/*--------------------------------*- C++ -*----------------------------------*\
| =========                 |                                                 |
| \\      /  F ield         | OpenFOAM: The Open Source CFD Toolbox           |
|  \\    /   O peration     | Version:  2306                                  |
|   \\  /    A nd           | Website:  www.openfoam.com                      |
|    \\/     M anipulation  |                                                 |
\*---------------------------------------------------------------------------*/
FoamFile
{
    version     2.0;
    format      ascii;
    arch        "LSB;label=32;scalar=64";
    class       surfaceScalarField;
    location    "2.5";
    object      phi;
}
// * * * * * * * * * * * * * * * * * * * * * * * * * * * * * * * * * * * * * //

dimensions      [0 3 -1 0 0 0 0];

oriented        oriented;

internalField   nonuniform List<scalar> 
20045
(
0.25607
-0.28902
0.0329503
-0.551273
0.209852
0.341421
0.148514
0.852528
-1.00104
0.0792654
-0.106025
0.0267595
-0.438333
0.425997
0.0123355
-0.2603
1.05628
-0.795982
-0.527478
0.227611
0.299866
0.0359455
0.226153
-0.262099
0.241799
0.222318
-0.464117
-0.390332
-0.0838581
0.47419
0.063138
0.225915
-0.289053
1.06903
-0.556457
-0.512574
0.197747
-0.194462
-0.00328518
-0.641465
0.507557
0.133908
-0.167049
0.55117
-0.384121
-0.546223
0.155892
-0.0243994
0.225204
-0.200805
0.385588
-0.37857
-0.00701724
-0.836985
1.21148
-0.374498
-0.378186
0.00892664
0.36926
0.225568
-0.212541
-0.0130268
0.0709463
0.126801
-0.0834436
-0.467829
0.273911
0.335601
-0.609512
0.432619
0.0774754
-0.510094
-0.368076
0.641987
0.0025578
-0.0155928
0.013035
-0.516551
1.01438
-0.497829
0.876531
0.115615
-0.992145
-0.981346
0.591972
0.389374
-0.0704759
-0.196227
0.266703
0.756607
-0.550891
-0.205716
-0.380544
0.657057
-0.276512
1.08447
-0.632051
-0.45242
-0.291297
0.327242
1.12506
-0.558622
-0.566435
0.731301
0.138699
-0.870001
-0.0320945
0.197367
-0.165273
-1.05553
0.414729
0.640797
0.319293
0.254591
-0.573883
0.0263961
0.21056
-0.236956
0.0694169
-0.101096
0.0316792
1.08621
-1.08577
-0.000433728
0.740581
-0.2567
-0.483881
0.328503
0.412078
0.529589
0.539442
0.399035
-0.384644
-0.0143909
0.62487
0.289679
-0.914549
0.950406
-0.219105
0.0576132
0.848982
-0.906596
0.652331
-1.10245
0.450123
0.953076
-0.704029
-0.249047
-0.463583
-0.51936
0.982943
-0.0446065
-0.162455
0.207062
0.420373
-0.14287
-0.277503
-0.360969
-0.0773635
0.0688965
0.714062
-0.782959
0.85969
0.0397517
-0.899442
0.349811
-0.730355
1.06699
-0.740151
-0.326837
0.0469113
0.217675
-0.264587
0.407542
0.659445
0.502689
-0.844276
0.341588
0.192635
0.0329329
0.283359
0.151328
-0.434686
0.813617
0.152489
-0.966106
-0.0286356
0.109491
-0.0808557
-0.341107
0.0659647
0.275142
0.439923
-0.198124
0.963625
-0.976904
0.0132791
-0.065515
0.0368793
0.0308912
0.389482
-0.140064
-0.517194
0.657258
0.152439
-0.116324
-0.0361153
0.908691
-0.137807
-0.770884
0.692317
-0.623421
-0.0490529
0.957744
0.228972
-0.396021
-0.266607
0.465945
-0.199338
0.354619
-0.644756
0.290136
0.518943
0.600491
-1.11943
0.452466
-0.367783
-0.0846829
0.703357
-0.200669
-1.06516
0.189134
0.876029
-0.00080739
0.256877
-0.245728
0.30861
-0.0628815
0.595211
-0.784134
0.188923
-0.796322
0.0303634
0.765959
0.521376
0.0812793
-0.602656
-0.448884
0.384212
0.0646719
-0.815194
-0.0536274
0.868821
0.378542
-0.0659198
-0.312622
0.207198
-0.308599
0.101401
-0.0982365
-0.404231
0.502467
0.310839
-0.328146
0.017307
0.742856
0.206384
-0.949239
0.0404389
-0.0378811
0.012938
-0.149409
0.13647
0.62724
-0.307947
-0.0919794
0.229856
-0.137876
0.76308
0.361978
-0.264312
-0.377153
-0.185444
0.198382
-0.14939
1.00908
0.0247519
-0.27048
-0.216177
0.124197
0.229568
0.605968
-0.835536
0.649408
-0.960932
0.311524
0.132428
-0.222017
0.193435
0.0285819
-0.105366
0.134709
-0.0293427
0.661447
-0.483763
-0.177685
-0.259883
0.215276
0.667767
-1.06037
0.392598
-0.104672
0.17513
-0.0704579
0.0239824
-0.13055
0.106568
0.573647
-0.141028
0.81486
0.269611
-0.597291
0.457227
0.694413
-1.02864
0.33423
0.400133
-0.0145456
0.237416
-0.190505
-0.405864
0.332656
0.0732079
-0.406118
0.0496295
-0.306301
0.256672
0.687097
0.265979
0.56846
-0.72853
0.160069
0.802626
0.0892023
-0.891829
-1.01131
0.792412
0.218901
-0.254911
-0.267871
0.522782
1.01222
-0.325121
-0.443234
0.0585891
0.361658
-0.238809
-0.122849
-0.000653294
-0.0206643
0.0213176
0.569645
0.401976
-0.971621
0.61496
-0.579441
-0.0355192
-0.170945
0.0830806
0.0878646
-0.159177
-0.0628404
1.14514
-0.450731
-0.338027
0.361927
-0.0238995
0.577664
-0.942084
0.36442
0.301069
-0.764652
0.522385
0.291556
-0.813941
0.697028
-0.342409
0.973122
-0.125293
-0.84783
0.0915034
-0.55882
0.467316
0.957773
-0.710866
-0.246907
-0.143654
0.222761
-0.0791079
0.02262
0.925745
-0.948365
1.06465
-0.188124
-0.823569
0.0236917
0.799878
-0.496063
0.431378
0.0646848
1.01916
-0.500215
0.152729
0.299737
-0.64023
0.769102
-0.128872
-0.68
0.828514
0.0112478
-0.163938
0.15269
0.0828067
-0.110121
0.0273144
-0.0161908
-0.197956
0.214147
0.868838
-0.0302816
-0.838557
1.22954
-0.596831
-0.632713
-0.23248
0.216289
0.466794
-0.816583
0.349789
0.0817427
-0.0123258
-0.85342
-0.509781
0.663329
-0.153547
-0.652091
0.5106
0.141491
-0.0101832
-0.0373342
0.0475174
0.310512
0.647262
-0.0319348
0.0312815
0.141886
0.219772
-0.699084
0.0588536
-0.73324
0.936626
-0.203386
-0.679259
0.771222
-0.091963
-0.609243
-0.424429
1.03367
0.0428267
-0.276112
0.233285
0.416011
-0.485205
0.0691939
0.690809
0.139529
-0.830338
0.0177367
-0.766238
0.748502
-0.419514
0.941898
0.205186
-0.559563
0.354377
-0.386875
1.05464
-0.841301
0.56818
0.273121
-0.0732934
0.0833334
-0.0100399
0.375198
-1.02814
0.652947
-0.828966
0.312415
-0.616869
-0.397567
0.930911
-0.596509
-0.334402
-0.280489
0.306885
0.131325
-0.13884
0.00751447
-0.767984
-0.207466
0.97545
-0.767905
1.08603
-0.318128
0.979863
-0.67409
-0.305772
0.0505022
-0.23473
0.184227
-0.223662
-0.531924
0.755586
-0.184013
0.247151
-0.440514
0.185604
-0.628536
-0.222833
0.851369
0.0946492
0.0262999
-0.120949
0.0686251
-0.578406
0.17605
-0.246526
0.854396
-0.0517693
-0.148455
0.116361
-0.139641
0.170264
-0.0306226
-0.142866
1.0117
-0.796763
0.573102
0.290048
0.019391
-0.309439
-0.709751
0.149883
0.559868
0.346686
0.633176
1.08332
-0.708126
0.660812
-1.06758
0.406766
0.268805
-0.648529
0.379724
0.0446648
-0.422851
-0.482967
0.712535
0.648527
-0.908827
0.168384
-0.638239
0.469855
-1.0624
0.567138
0.495263
-0.054328
-0.394556
0.183235
0.156205
-0.339441
0.630601
-0.128697
-0.501904
0.205456
-0.63414
0.65676
-0.26496
-0.0730674
0.601008
0.915629
-0.87737
-0.038259
-0.0116428
-0.136246
0.147889
0.670554
0.0662212
-0.736775
0.175466
0.138889
-0.314355
-0.0161423
0.573515
-0.557372
-0.229512
0.824723
0.581967
-0.37678
-0.0636025
0.174164
-0.110562
0.778586
-0.200922
0.097053
-0.00776177
-0.0892912
0.181555
0.0583147
-0.239869
-0.110071
0.114074
-0.00400338
0.939989
-0.622327
-0.317662
0.233427
-1.00133
-0.120197
0.0101259
-0.870983
0.263051
0.607932
0.910126
-0.25307
0.247402
-0.980643
1.23113
-0.584875
-0.646256
-0.0124269
0.107076
0.938886
-0.387772
-0.551114
-0.611137
0.130155
0.480983
-0.981084
0.971594
0.00948993
0.290592
-0.697384
0.406793
-0.051412
0.0325045
0.0189075
-0.479669
0.623896
-0.144227
0.0344904
-0.202917
0.168427
-0.160042
0.0553705
-0.122425
0.0170585
-0.672261
-0.288671
0.512973
-0.758781
0.245808
0.194491
-0.295241
0.10075
0.457702
0.298905
0.543184
-0.3748
0.00527154
0.0775352
0.552289
0.357837
-0.509624
0.0280915
0.481532
0.300308
0.638578
0.398342
0.152828
0.280838
-0.0863466
-0.296193
-0.0217144
0.317907
0.0163277
-0.0896211
-0.614603
0.598461
-0.222814
0.306095
-0.0832807
-0.902413
0.859902
0.0425111
0.0685201
0.294593
-0.363113
-0.190905
-0.132418
0.323324
0.769628
-0.837636
0.068008
-0.616823
-0.445578
1.18831
-0.837367
-0.350943
-0.0996252
0.0879823
0.776059
-0.485467
-0.287036
0.800009
-0.0563709
-0.251119
0.30749
0.87486
-0.108984
-0.765876
0.974777
-0.163314
-0.811463
-0.344346
0.287975
0.841999
-0.491886
-0.350113
-0.158626
0.782401
-0.623775
0.414809
-0.586392
0.171582
-0.184147
-0.031777
0.215924
0.0354442
0.0724772
-0.107921
1.07161
-0.824705
-0.246906
-0.548263
-0.46305
0.757924
0.157705
-0.811912
-0.0905009
-0.0562246
0.237779
0.231284
-0.845932
0.614648
0.00407144
0.127254
-0.541686
1.11133
0.321484
0.618505
1.02424
-0.654733
-0.369503
-0.794811
0.571978
0.742896
-1.10507
0.362177
-0.627313
-0.0411358
0.668449
-0.243461
-0.180766
0.424227
0.749571
-0.282777
0.00758682
0.282461
0.263911
-0.0506725
-0.500218
-0.70812
1.00753
-0.299408
-0.16042
0.0207786
-0.0664994
0.00289697
0.109947
-1.09103
0.617604
-0.847116
0.182422
-0.254555
0.362055
-0.1075
-0.00287161
0.082137
-0.517442
0.345715
0.171727
0.376877
0.28457
-0.172126
0.387075
-0.214949
0.491017
0.123943
-0.623852
0.855135
0.581379
-0.0600027
-0.220441
-0.489311
0.969145
-0.658997
-0.310148
0.952316
-0.961213
0.34305
0.618163
0.80726
-0.873491
0.0662314
-0.452416
0.35418
-0.13061
-0.0403352
-0.178236
-0.636958
0.293262
-0.559541
0.26628
0.426907
0.415092
0.691151
-0.984196
0.293045
0.233332
-0.55277
0.319439
-0.968256
0.171934
0.0104291
0.368113
-0.67983
0.947669
-0.267839
-0.24505
0.31883
-0.0737797
-0.420939
-0.106538
-0.136732
-0.230013
0.366745
0.0945504
0.000624453
-0.0951749
-0.341059
-0.155004
0.357286
0.458376
-0.815662
0.895669
-0.59536
0.354542
-0.45142
-0.000995921
0.47735
-0.244018
-0.684711
-0.15659
-0.138907
0.188468
-0.0495607
0.975771
-0.350901
-0.466163
0.761851
-0.295688
-0.127237
0.150977
-0.0237398
0.731557
-0.100956
-0.290328
-0.555604
-0.509719
0.933982
-0.424263
0.643038
-1.00727
0.364229
0.452769
0.735541
-0.0295387
0.0531421
-0.0236034
0.0873036
-0.714617
0.682528
-1.04389
0.361361
0.0739218
0.0785173
-0.0748218
0.643282
-0.155761
0.773365
-0.374525
0.64333
0.195291
-1.03228
-0.940207
0.603584
0.336623
0.648366
-0.11194
-0.536426
0.937691
-0.168063
-0.414208
-0.536433
-0.484552
0.401908
0.399116
-0.474845
0.0757284
0.32048
-0.311554
-0.725371
0.650549
0.85374
0.232468
-0.799699
0.333535
0.903381
-0.145456
0.151421
-0.210209
0.0587878
-0.0286735
-0.584469
0.613143
-0.895669
0.169333
0.726336
0.733385
-0.733385
-0.310731
0.906857
-0.596126
0.280503
-0.452629
0.642718
-0.429601
-0.213117
-0.93115
0.960558
-0.0294078
0.351275
-0.0473849
-0.30389
0.274768
-0.102916
-0.171852
0.126767
-0.317672
-0.0441171
0.538055
-0.825091
-0.818043
0.969781
-0.151738
-0.293326
0.650612
-0.228973
-0.0479782
0.276951
-0.137428
0.230663
-0.0932353
-0.377187
0.421852
0.951349
-0.748167
-0.203182
-0.0988795
-0.513966
0.612845
-0.247821
0.26326
-0.0154391
0.143423
-0.286872
0.143449
-1.06578
0.453743
0.612035
-0.0788202
-0.0272048
0.209345
-0.0579242
0.0236931
0.261883
-0.285576
0.430758
0.640853
-0.283642
0.0546698
-0.0877429
-0.263351
0.351094
-0.487444
0.787852
-0.300408
-0.00949531
0.0843863
-0.074891
0.44762
-0.220009
0.768751
0.0122076
-0.780958
0.0243409
-0.428571
-0.00144932
0.692258
0.43275
0.304444
-0.737194
0.480817
-0.410947
-0.0698701
-1.01284
0.189272
-0.423113
0.205404
0.217709
0.357106
0.501052
-0.858159
-0.628345
0.58721
0.0467185
-0.916644
0.869925
-0.142998
0.1935
-0.0700234
0.0777428
-0.00771937
0.0224926
-0.318685
-0.341037
0.270826
0.0702112
-0.682919
-0.188063
0.623704
0.146656
0.0794493
-0.226105
-0.138506
0.0112685
0.146461
-0.698615
0.552155
0.16409
0.53728
-0.70137
0.276178
-0.715982
0.857689
-0.141708
-0.718802
0.560176
-0.0363636
0.0207708
-0.408586
-0.243504
-0.269528
0.063173
0.206355
-0.852558
0.365114
0.662031
-0.76091
0.214752
0.688629
-0.310383
0.31431
-0.00392645
0.260331
-0.740717
0.480386
0.166295
-0.279999
0.113705
0.540769
-0.831097
-0.650637
-0.0286213
-0.327936
-0.0131704
-0.0312874
0.0083122
0.0229752
0.334527
0.0429383
-0.0571665
0.0142282
0.799061
-0.441955
-0.772854
0.955664
-0.18281
0.259218
0.194735
-0.453954
-0.368524
0.225526
-0.233455
-0.0360732
0.313762
0.328956
-0.275369
-0.753274
-0.190739
0.0518321
0.604837
0.419932
0.161447
-0.809786
0.867399
0.0405272
-0.41514
0.374613
-0.0864179
-0.826789
0.913207
0.0730751
-0.0757353
0.00266024
0.312086
-0.269259
-0.176305
0.591114
0.627687
-0.536183
-0.401381
-0.116061
-0.00385649
-0.413888
0.417744
0.403759
-1.013
-0.0790329
-0.487093
0.566125
0.0351234
-0.16843
0.133307
-0.653907
0.0604837
0.593424
0.953729
-0.664051
-0.0103013
0.0933746
-0.0830734
-0.223348
-0.0244734
0.191599
0.354388
-0.545987
0.102767
-0.129854
0.0270871
0.660547
0.378053
-1.0386
-0.402261
1.14512
0.0899778
0.00457256
-0.253055
-0.5754
0.828455
0.418044
0.7271
0.848192
-0.684102
-0.365187
0.228454
0.154399
-0.118955
-0.315074
1.05797
0.12295
-0.760607
0.637656
0.942626
-0.132125
-0.810502
-0.398511
0.689887
-0.291377
0.397373
-0.268123
-0.508676
0.776799
-0.287922
0.282572
0.00535023
-0.277451
-0.488155
0.765605
0.0839359
-0.221364
0.0454438
-0.0556271
0.512355
-0.789806
-0.705177
-0.21166
0.916837
-0.0562575
-0.48536
0.541617
0.00472646
1.09899
-1.13094
0.031952
0.218892
-0.135105
-0.0837873
0.00754504
-0.317928
0.25694
0.245527
-0.326482
0.0830205
-0.780674
0.982362
-0.201688
0.0357983
-0.258612
0.470465
0.226563
-0.836382
-0.249392
0.141949
0.0326418
-0.17459
0.541676
-0.121745
-0.205799
0.227033
-0.0212346
-0.179958
0.214449
-1.15416
0.537291
0.903184
0.153098
-0.114838
0.258261
-0.213051
0.47227
0.815897
-0.277842
-0.213881
0.00808202
-0.098826
-0.626545
0.264818
0.218871
-0.207623
-0.916449
0.0207807
-0.199151
0.218435
-0.0521409
-1.00555
0.621679
0.383866
0.800815
0.16281
0.203736
-0.0718964
-0.13184
0.286965
-0.269079
-0.017886
-0.874165
0.315543
-1.03113
0.521406
-0.300002
0.23983
0.0601723
0.0113303
-0.0690799
0.0577496
1.0351
0.00142878
-1.03653
0.150689
0.00842747
-0.159116
-0.13648
-0.269384
0.2366
-0.0294021
-0.0654169
0.0654817
-6.47933e-05
0.399928
-0.0613687
-0.338559
0.00318518
-0.0686021
0.846744
-0.64036
-0.0277751
-0.151624
0.179399
-0.995712
0.215038
0.01331
0.0442901
-0.229734
-0.148765
0.295421
0.0150521
-0.00978054
0.253625
0.158737
-0.412362
0.40431
-0.120952
0.394635
-0.354108
0.201176
-0.177194
0.0811957
-0.326246
0.680633
-0.175359
-0.505273
0.542011
-0.045523
-0.496488
-0.478362
-0.0804574
0.168132
0.0319078
-0.20004
0.353084
-0.441897
0.0888135
1.09745
-0.0410503
-1.0564
0.165892
0.0151179
-0.18101
-0.491588
0.667228
-0.175639
0.467786
0.541112
-1.0089
-0.0331085
0.250784
-0.268192
0.441255
-0.173063
0.22654
0.091398
-0.317938
-0.794334
0.395146
0.399188
0.0617744
0.00370725
-0.847591
0.142415
0.315286
-0.187157
-0.128129
0.457912
-0.611871
0.15396
-0.096734
-0.192286
0.156024
0.942964
0.818974
-0.143722
-0.675251
-0.833472
0.117491
0.329385
-0.549825
0.65495
-1.06832
0.413371
-0.10808
0.291315
0.0109002
-0.401395
0.313652
-0.167234
0.216863
-0.10622
-0.768756
0.874976
0.383859
0.3922
-0.729607
0.762417
-0.0328102
-0.0385313
0.00724389
-0.652304
-0.241757
-0.119672
0.134389
-0.0147175
0.154516
-0.33881
0.184294
0.0278664
0.0313474
-0.0592137
-0.102451
0.560363
-0.658738
-0.258788
0.917526
-0.749526
-0.254312
1.00384
0.470424
-0.370121
-0.100303
-0.177533
0.0200957
0.157438
0.137555
-0.0421431
-0.0954118
-0.964757
0.0444384
0.920319
0.0217669
0.197971
-0.219738
0.793198
-0.89165
0.0984524
-0.487619
0.362207
0.170906
-0.533112
0.0137711
-0.133443
-0.260398
-0.321803
0.5822
0.62869
-1.01557
-0.948924
0.822779
0.126145
0.119302
-0.0165348
0.698809
-0.228344
-0.0749243
-0.216705
0.291629
-0.0088659
0.130294
-0.121428
-0.265344
0.816161
-0.550818
0.850944
-0.708177
-0.142767
1.02419
-0.965864
-0.0583215
0.785325
-0.37379
-0.411535
0.039303
-0.232038
0.192735
-0.298209
-0.00809213
-0.955756
0.841131
0.114625
0.0618744
-1.01763
-0.0867514
0.717956
-0.631205
-0.544041
-0.280664
0.201942
-0.169651
-0.0322908
-0.793804
-0.201908
-0.190443
0.130338
0.0601047
0.285357
-0.109891
-0.895591
0.853711
0.0418799
-0.213619
0.0375209
-0.153845
0.162765
-0.0120765
-0.592279
0.112609
0.147916
-0.170118
0.0222018
-0.368617
0.36839
0.00022769
0.368285
-0.0170105
-0.259509
0.55501
0.176547
0.367196
0.00812027
0.329774
-0.337895
-0.142858
0.558869
-0.624763
0.394078
0.230685
0.0662207
-0.00444622
0.777355
-0.393496
0.609938
-0.349607
-0.197554
-0.19869
0.396244
0.264298
-0.735304
0.471006
0.551134
-0.607391
0.986222
-0.432048
-0.554174
-0.0040431
-0.518963
-0.105799
-0.733116
0.997456
-0.26434
-0.0420763
-0.242227
0.90304
-1.05795
0.264148
-0.230052
0.0459045
-0.139491
-0.0742282
0.117199
-0.00312446
-0.490824
-0.517024
1.12972
-0.437398
0.193516
-0.247454
0.0539383
0.0562535
0.218515
-0.662781
-0.356184
1.01896
0.363314
0.386257
-0.00663351
-0.146111
0.152744
0.821664
0.106016
0.0117773
-0.117794
0.524685
0.155947
-0.366948
-0.989692
0.171649
-0.213985
0.00972495
0.20426
0.56428
0.666852
0.234885
0.110771
-0.345657
0.972365
0.0518206
0.578164
-0.837703
0.259539
-0.835808
-0.0021194
0.837927
-0.786565
1.00631
-0.219744
0.143229
-0.00750168
-0.135728
-0.372824
1.00151
0.0581619
0.26829
-0.326452
0.0371144
-0.766721
0.232379
-0.00570236
-0.226677
-0.896786
1.15729
-0.2605
-0.248224
0.550435
-0.302211
1.16362
-0.513499
-0.650121
0.00790213
-0.603235
0.595332
0.0723127
0.00543004
-0.427473
0.895259
0.562248
-0.872979
0.97
-0.326962
-0.186658
0.158883
-0.859725
0.0239172
1.03937
-0.348223
-0.00854464
-1.05662
0.233593
-0.0230332
0.257826
0.568431
-0.826257
0.555479
-0.134847
-0.420631
0.634969
-0.970085
0.335117
-0.131161
0.00977075
0.12139
-0.206623
-0.47207
0.678693
0.356233
-0.275038
-0.411751
-0.0731825
0.484934
0.161374
0.253147
-0.414521
0.0778572
0.124084
-0.851288
1.00312
-0.151827
0.066665
0.00641012
0.439704
0.210448
-0.650152
0.409095
0.374823
-0.783918
0.161683
0.486683
-0.0206921
0.993814
0.00524721
0.781941
-0.787188
-0.00220952
-0.0072858
0.0213018
0.0587537
-0.0800556
0.645634
-0.547714
-0.0979205
0.442224
0.543998
0.28544
-0.210275
-0.075165
-0.282935
0.806176
-0.523241
0.00599115
0.166963
-0.172955
0.279573
-0.668418
0.388845
-0.476815
-0.159524
0.636339
0.772952
-0.102397
0.290338
0.265141
-0.0598305
-0.237218
0.297048
0.292951
-0.806917
0.0201944
0.221157
-0.241351
0.188615
-0.0630712
-0.125544
0.0048603
0.0674524
-0.0711463
0.716508
-0.645362
-0.105454
0.954437
0.77358
-0.623174
-0.150406
0.624457
-0.543178
-0.531842
0.192133
0.339709
-0.0195553
-0.410046
-0.209718
0.168556
0.041162
0.0658294
0.137907
0.139656
0.734413
-0.874069
0.212166
0.187762
0.127366
-0.876892
-0.440551
0.176276
0.264275
-0.319824
-0.24302
0.562844
0.483542
-0.229917
-0.836934
0.543608
0.350159
-0.2967
-0.0534592
-0.545732
0.796615
-0.250883
-0.428561
0.452902
-0.440865
0.570151
-0.129286
-0.689527
0.955855
-0.266328
-0.0214299
0.203429
-0.181999
0.115848
-0.104518
-0.358666
-0.643174
0.98134
-0.338166
-0.530472
0.680355
0.50483
-0.519511
0.0146813
-0.0558386
-0.221762
0.277601
-1.02222
0.724993
0.297231
0.00534223
-0.0670399
0.0616977
-0.0170832
0.537894
-0.803237
0.680444
-0.416145
-0.316025
-0.624183
-0.694901
0.700149
0.48239
0.0282095
0.334671
0.175946
-0.510616
-0.330156
0.309621
0.0205351
0.332325
-0.290168
-0.0421573
0.159135
-0.423161
0.264026
-0.220156
0.398922
-0.178766
-0.753321
-0.171447
0.924768
0.204317
-0.260155
0.469019
0.176615
-0.958085
0.710017
0.248068
0.246822
0.044669
-0.291491
0.00354816
0.187716
-0.236257
0.0485408
-0.647734
-0.286361
0.445497
0.136596
0.201759
-0.162456
0.305119
-0.150604
0.222367
-0.490238
0.0338146
0.277024
-0.0471057
-0.266904
0.314009
-0.550345
-0.44431
0.994655
0.117385
-0.177216
-0.519083
-0.0623831
0.581466
0.132953
0.179282
-0.312235
-0.00248227
1.13471
-0.737794
-0.396919
0.170352
0.648622
0.0196307
0.429528
-0.373371
-0.0561565
-0.268813
0.666803
-0.39799
-0.571533
-0.208538
0.780071
-0.454069
0.185877
-0.385932
-0.14591
1.02358
-0.440855
-0.582726
-0.247038
0.0243606
0.222677
0.366992
0.0687114
-0.435704
-0.17235
0.194117
-0.164812
0.465782
-0.300971
-0.0484187
-0.0217644
-0.210715
-0.00726926
0.568958
0.454623
-0.501291
0.91602
-0.270256
0.862228
-0.250222
0.00318391
-0.825715
0.254182
0.711905
-0.624602
-0.112586
-0.626116
0.134528
0.585256
-0.672008
0.67395
-0.702624
0.825374
-0.0181145
-0.18954
-0.119059
-0.251181
-0.0985858
0.349766
-0.298687
-0.0294587
0.721581
0.123332
-0.844913
0.00827236
-0.245055
0.236783
0.00675531
0.362262
-0.974331
0.61207
0.852896
-0.0596986
-0.892087
0.917242
-0.0251549
0.20857
-0.142605
-0.924592
-0.0976317
-0.326105
0.865813
-0.0246816
0.270166
1.04652
-0.417505
-0.629018
-0.593002
-0.0616431
0.654645
0.0704774
0.501161
-0.571639
-0.684732
0.0308249
-0.187289
-0.116125
0.303414
-0.469086
0.592036
0.145262
0.504908
-0.65017
-0.561354
-0.0350786
0.596433
-0.886945
0.0765875
0.810358
0.149995
0.530448
-0.228016
0.488249
0.297076
-0.265858
-0.157256
0.711643
-0.836935
0.0752743
-0.360417
0.285143
-0.286587
0.253479
0.677247
0.0299257
-0.707173
0.599136
-0.869392
-0.00223428
-0.0491777
-0.279049
0.695661
-0.416612
-0.567512
0.307115
-0.0146445
0.273689
-0.259044
0.236953
-0.097846
-0.139107
0.249073
0.0630129
-0.260298
0.589683
-0.0530346
-0.246968
-0.151983
0.165754
0.362209
-0.223319
0.0440928
-0.0115884
-0.183353
0.176895
0.00645753
0.203837
-0.226144
0.0223067
-0.708561
0.570754
0.0939904
-0.613073
-0.0125253
-0.267964
0.0223046
0.534578
-0.556883
0.318339
-0.340053
0.334517
-0.721706
0.387189
-0.434444
0.709588
-0.275144
0.260079
-0.968199
0.0851818
-0.0255103
-0.923414
0.433164
0.696551
-0.726146
-0.110789
-0.660546
-0.300666
-0.408027
0.178014
-0.0540817
0.0546643
-0.000582611
1.10788
-0.543602
0.920111
-0.237583
-0.223445
-0.155548
0.378993
-0.947745
0.370874
0.576871
0.293993
-0.0680783
-0.15399
0.516196
0.159379
-0.088433
-0.168697
0.297282
-0.23912
-0.150241
0.327646
-0.177405
-0.101102
0.822682
0.182013
-0.238937
0.0569242
0.883819
-1.18063
0.556172
0.624459
0.230177
0.198768
-0.428945
0.537615
-0.527226
-0.0103888
-0.516076
0.267852
-0.289186
-0.010101
0.377093
0.885295
-0.971713
0.399072
-0.172533
-0.380367
0.673318
-1.01208
0.723151
0.288925
0.312098
-0.703732
0.391634
-0.679818
0.725554
-0.0457356
0.377236
-0.520094
0.0140145
0.208719
0.261705
-0.0370653
-0.60769
0.202599
-0.904861
0.357047
0.547814
0.243382
-0.836384
0.732159
-0.0369043
-0.574233
0.131589
0.311829
1.01077
-0.334668
-0.676105
-0.347679
0.258713
-0.578536
0.153907
-0.927899
0.866256
-0.6554
0.387277
0.46754
-0.79201
0.636672
0.155337
-0.920266
0.609863
0.310403
-0.331346
-0.118039
0.153162
-0.955987
0.676372
0.279616
0.609603
-0.982427
-0.832097
-0.0191909
1.06194
-0.406995
0.486505
0.0745448
-0.56105
-0.0207949
-0.131436
0.152231
0.111359
0.482725
0.527806
-0.715494
-0.0765152
0.157095
0.199138
0.213406
0.3447
-0.558106
0.37226
-0.216055
-0.0316437
-0.992938
1.02458
-0.337504
0.368901
-0.788415
-0.570319
-0.385001
0.95532
0.243846
-0.309765
-0.659631
0.213112
0.44652
-0.00228697
0.0169366
-0.0146496
0.818357
-0.924577
0.421598
-0.700647
0.471981
0.20679
-0.678771
0.250057
-0.0565412
-0.783111
0.226339
0.556772
-0.666581
0.189766
0.392888
-0.6617
0.395871
-0.320596
-0.0016627
-0.000624268
-0.0426664
0.985293
-0.589512
0.728446
-0.138933
0.957625
0.000306969
-0.957932
-0.733458
-0.00194419
-0.252611
0.0624536
0.670931
0.122239
0.028738
0.0532564
-0.0683082
0.348811
0.490646
0.0851704
0.247155
-0.837289
-0.0583014
-0.875982
0.428147
-0.815919
0.173909
0.177263
-0.351173
0.862308
0.0480654
-0.910373
-0.102059
0.094557
-0.327094
-0.704031
-0.760892
-0.112599
-0.295979
0.895115
-0.315587
0.444657
-0.12907
-0.825159
0.274813
-0.271683
0.485089
-0.407715
-0.59783
-0.242045
-0.277264
0.346458
-0.45234
0.0837225
1.00732
-0.141512
0.577072
-0.519823
-0.0572486
0.0880041
0.08616
0.250889
0.986856
-0.940137
-0.00479366
-0.211345
0.312746
-0.473571
0.501663
-0.436497
-0.509001
0.202801
0.171616
-0.374417
-0.77045
0.0370648
-0.111005
0.734012
-0.623007
-0.10801
-0.784077
-0.66967
0.735892
1.13082
-0.487883
-0.642934
-0.104269
0.309673
0.836248
-0.415044
-0.421204
0.253041
-0.274805
0.0961777
-0.0748758
-0.183975
0.0249785
0.158997
-0.159228
0.493899
-0.38979
0.999394
-0.0213609
-0.14829
-0.258224
-0.0848703
0.343094
-0.00512736
0.823484
0.218179
0.123536
-0.341715
-0.354632
0.546232
0.401433
0.404743
-0.338427
-0.102124
0.496053
-0.176082
-0.319971
-0.00688487
-0.0213581
0.028243
0.0656421
-0.712643
0.647001
-0.879178
0.118286
0.207206
-0.398658
0.826804
-0.00384649
0.256887
0.127227
-0.442813
-0.989339
0.504787
-0.90401
0.307179
-0.430996
0.0538088
-0.376049
-0.560349
0.936399
-0.96074
-0.0646051
-0.0792334
0.143838
0.793696
-0.604562
0.638368
-0.567891
0.155211
0.495827
-0.651038
0.174311
-0.3616
-0.676366
-0.25724
0.933606
-0.125582
0.312756
-0.187174
-0.404094
0.774828
-0.370734
0.824562
-0.553205
-0.271358
0.819079
0.0202734
-0.839353
-0.467559
-0.713073
-0.302257
-0.0256796
0.366448
0.64577
-0.0108694
0.0899215
-0.0790521
-0.623203
-0.159908
0.656112
0.555371
-0.504154
0.612178
-0.108023
0.15664
-0.144862
0.145777
0.385171
-0.530948
-0.0519574
0.23397
-0.0913673
-0.86462
-0.899949
0.381693
-0.0315341
-0.143579
0.319629
0.0696666
0.695484
-0.76515
-0.485251
-0.107028
0.623068
0.2726
0.0660827
-0.225259
0.352089
-0.517986
0.165897
0.0923708
-0.349874
0.257504
0.474735
-0.180142
0.246311
0.785584
-0.358677
0.853386
-0.484485
-0.111739
-0.234877
0.346616
0.71038
0.0720217
0.0221649
-0.636261
0.429638
0.579401
-0.584529
-0.428442
-0.37841
0.806852
-0.547571
-0.400174
-0.901055
0.931751
-0.0306961
-0.103925
-0.356125
0.257539
0.532205
0.253379
0.0763799
-0.295857
0.219477
-0.316491
-0.660413
-0.183459
-0.704582
0.888041
0.725734
-0.36242
-0.250717
0.270912
0.544715
-0.871809
0.42765
-0.350175
-0.396609
0.943921
-0.547312
0.373261
0.471116
0.293299
-0.764416
0.946279
-0.585753
-0.360527
-0.331622
-0.692504
0.98299
-0.290485
0.533957
0.0431152
-0.268222
0.264376
0.400656
0.762964
-0.197053
0.176258
0.0462346
-0.00329631
0.901442
-0.499466
0.430258
0.677624
-0.384994
0.205507
0.179488
0.235662
-0.433216
0.707441
-0.030194
0.611921
-0.125416
-0.648842
-0.0665736
0.715415
0.175898
-0.0252095
-0.150689
0.13991
0.0789819
0.13546
-0.922025
-0.264247
0.286739
0.654153
-0.586648
-0.0675048
0.145204
0.350849
-0.142725
0.0708291
0.225888
0.226572
-0.45246
-0.419783
0.769594
-0.0262972
-0.430574
1.011
-0.580425
-0.244013
0.405387
-0.029699
-0.531655
1.04931
-0.48843
-0.323483
0.546083
-0.00846772
0.279194
-0.291719
-0.146997
0.125567
-0.274393
-0.131872
-0.00663406
0.468162
-0.14308
0.7623
-0.61922
-0.268923
0.292616
-0.317473
0.100768
-0.307095
0.00483792
-0.868358
0.615303
0.214642
0.226613
0.09578
-0.332951
0.237171
0.238017
0.0705928
0.7739
0.423648
-1.19755
-0.0968293
-0.0155004
0.11233
-0.0391425
-0.733711
0.744439
0.386378
0.736767
-0.6671
-1.00758
-0.0248474
0.0892928
-0.0116182
0.430071
0.601439
0.282182
-0.883621
0.346465
-0.0281264
-0.0256824
-0.294839
-0.0901553
-0.538937
-0.467839
0.448283
0.30894
0.646723
0.543162
-0.527476
-0.0156864
0.168954
0.00794076
-0.0712479
0.233295
-0.0294577
0.72937
0.173674
-0.903044
-0.419148
0.268907
-0.212799
0.131722
0.0810764
-0.320704
0.00407419
0.31663
0.412625
0.339804
-0.75243
0.217465
0.266077
0.646762
-0.012899
-0.246984
0.34078
-0.409088
-0.0701606
0.0959985
-0.0258379
-0.90936
0.511793
0.779991
-0.622022
-0.157969
0.0117683
-0.122987
0.111219
0.802059
-0.873205
0.865857
-0.140124
0.191988
0.44638
-0.122766
-0.00910596
0.428617
-0.28508
-0.143537
-0.511326
-0.10982
1.00073
-0.511939
-0.488789
0.851079
-0.431691
-0.419388
0.375484
-0.651897
0.276413
0.0306712
0.483997
-0.00664638
-0.0896772
0.478438
-0.388761
0.181801
0.246816
-0.335017
-0.208398
-0.0305392
0.720517
0.00444625
-0.724963
-0.35632
0.1489
-0.196006
-0.25924
0.0489646
0.114795
0.580866
-0.14506
0.172926
-0.0217593
0.0064282
-0.112555
0.137307
-0.352175
0.507386
0.0131927
0.205678
-0.122756
-0.284532
0.742234
-0.0152287
0.558391
-0.132165
-0.107699
-0.224589
0.450478
-0.193832
0.737288
-0.543456
-0.742627
-0.104964
-0.347468
0.715138
-0.36767
0.0462107
-0.254609
0.286071
-0.0599177
-0.0197734
-0.215512
0.235286
-0.743983
0.255553
0.108721
-0.119022
0.435168
-1.09795
0.294778
-0.870178
-0.231717
0.567318
-0.303151
0.464059
-0.237486
0.0130482
-0.595496
0.661138
0.00155881
-0.137805
0.112388
-0.482509
-0.086522
-0.549285
0.635807
0.275628
0.264365
1.10417
-0.723065
-0.381103
-0.205226
0.0591357
0.189781
0.0203752
-0.210156
-0.720237
0.130725
0.172593
0.0160219
-0.00430283
-0.113817
0.11812
0.401117
-0.748585
0.0790372
0.400579
0.0395385
-0.440118
-0.82029
0.626458
0.125356
0.0348157
-0.160172
0.32784
-0.971015
-0.130891
0.000803499
0.130088
0.160493
-0.0351371
0.00502381
0.653673
-0.49199
0.546694
0.451657
-0.234192
-0.810152
0.239833
-0.609943
0.494011
0.115932
0.37097
-0.799412
-0.440741
-0.278517
0.719258
0.0747738
0.356604
-0.270682
0.223297
0.976998
-0.126504
-0.850494
0.00481659
-0.842106
0.742109
0.0769705
0.441384
0.394863
-0.145627
-0.000483697
0.126236
-0.26047
-0.299072
0.014161
-0.100574
0.0864125
0.0181118
-0.738525
0.720414
-0.0435093
0.252435
-0.208926
0.26518
-0.822173
0.556993
-0.0876701
-0.491771
-0.0253769
-0.0430055
0.6009
-0.299236
-0.181039
0.480276
-0.327389
-0.35553
0.399122
-0.227506
-0.213586
0.00980148
0.203785
-0.24604
0.34182
-0.859825
-0.111428
-0.0411313
0.15256
0.108986
0.282081
-0.391067
0.607403
-0.884603
0.277199
0.0299406
-0.49777
0.140276
-1.03706
-0.457467
-0.550623
1.00809
-0.845766
0.0361547
0.809612
-1.08288
-0.703876
0.0240581
-0.241935
0.249683
-0.00774842
-0.892488
-0.307118
1.03649
0.335309
-0.176572
0.0720964
-0.296686
-0.154473
0.42055
0.134673
0.0869143
-0.345138
0.0134516
-0.104019
0.0905679
-0.189042
0.0453889
-0.0708773
0.0826457
-0.236375
0.466552
-0.963719
0.610843
0.352875
-0.326461
0.334048
0.52903
0.183969
-0.00807042
-0.231486
0.307866
-0.420056
-0.239575
-0.485044
0.178774
0.30627
-0.025645
-0.161293
0.186938
-0.355523
0.447893
-0.0835706
0.643439
0.543579
-0.3254
0.475607
-0.802996
0.398432
-0.512127
0.113695
0.0981553
-0.00478067
0.047194
0.00594813
-0.933035
0.556986
0.444219
0.406861
0.0140904
-0.170996
0.156905
-1.14111
0.46111
-0.181984
0.240299
-0.170427
-0.0139149
-0.197108
0.211023
-0.497952
0.198715
-0.9102
0.818833
0.767087
-0.295105
-0.15845
0.142052
0.0163979
0.18937
-0.156729
-0.135194
-0.992876
0.396881
0.595995
-0.127213
0.111713
-0.0624522
0.251886
-0.189434
0.651068
0.21479
0.00193991
0.235689
-0.237629
-0.228724
0.241916
0.0588195
0.0151023
0.631644
-0.798511
0.930875