/*--------------------------------*- C++ -*----------------------------------*\
| =========                 |                                                 |
| \\      /  F ield         | OpenFOAM: The Open Source CFD Toolbox           |
|  \\    /   O peration     | Version:  2306                                  |
|   \\  /    A nd           | Website:  www.openfoam.com                      |
|    \\/     M anipulation  |                                                 |
\*---------------------------------------------------------------------------*/
FoamFile
{
    version     2.0;
    format      ascii;
    arch        "LSB;label=32;scalar=64";
    class       volScalarField;
    location    "2";
    object      p;
}
// * * * * * * * * * * * * * * * * * * * * * * * * * * * * * * * * * * * * * //

dimensions      [0 2 -2 0 0 0 0];

internalField   nonuniform List<scalar> 
13486
(
32.6615
30.8276
-1.21594
-95.3328
-32.0868
2.96439
-43.4255
-13.0929
4.75139
18.7679
-52.5217
2.18134
34.1853
0.54271
-23.103
19.4405
-40.4058
25.766
1.31134
28.9981
-142.615
33.3569
30.2331
-159.152
16.3174
-154.829
-47.8285
-26.3389
-0.303444
-43.7525
-130.019
-3.67923
-28.2886
-19.327
-12.739
-0.363904
-4.48036
12.6192
-3.63368
8.84399
-83.4922
37.0685
-1.17284
16.6169
16.2895
2.22903
-75.0422
-0.121954
-4.29261
-10.7817
20.4821
-4.75016
5.37434
14.4919
16.8837
-29.4633
-10.7205
-4.51782
-33.5855
-4.78926
-76.5309
-5.20078
3.11738
-148.715
-349.519
-4.8465
-93.4298
37.0282
4.05655
-3.27665
-91.8509
21.7279
13.4514
-128.08
-5.59439
-9.24436
-5.64481
-25.7842
-69.12
-9.91316
-0.210662
32.2038
16.8486
-0.810967
32.6385
15.2483
0.972805
19.9982
24.5002
22.149
5.55068
-18.8199
28.171
29.8002
3.17027
-0.0613262
-49.0714
-99.6573
9.03337
-50.0522
-0.184998
1.80545
-110.082
-4.47075
25.2139
-53.3416
20.6841
-3.55936
-64.8197
-27.8276
-3.61954
-11.998
14.4943
-8.25883
46.7448
-1.79603
16.7658
-18.2186
13.7798
-3.94248
21.7713
-64.4998
6.9999
-3.71301
-3.3126
-4.43987
-4.45245
10.4967
-14.4075
-288.124
-4.44027
-65.1367
-136.923
-89.5976
20.712
23.1615
49.3853
-26.2585
-3.79579
-8.91718
-18.8524
5.10218
1.37993
-9.41956
-2.46611
4.92509
-0.711147
47.0572
-11.3047
-0.00788114
16.33
-35.9435
-0.107451
33.6019
11.366
-1.28504
-39.5085
-182.158
5.4722
-2.44104
-5.56532
5.50609
12.6267
36.3238
-4.6891
-3.95278
4.71021
59.0194
-2.24871
-91.5663
-138.767
11.3682
18.2632
-5.92952
-0.220018
-200.93
-4.13859
-16.7718
20.3641
1.63073
4.63676
-7.58824
-4.02408
-30.9237
-0.242871
-25.5434
-0.0213624
-29.6076
-84.9054
2.72374
-4.28774
-2.09123
-4.94716
41.8426
-5.6716
-46.7378
-296.18
-6.19544
20.397
-1.87086
-128.078
10.2156
12.5819
-50.3559
-5.44507
-5.90479
21.0568
18.8554
-4.83612
-0.204031
-26.9082
-232.768
28.576
20.7292
2.54463
-37.5774
-41.6373
22.5857
23.896
-23.9846
-42.1498
-11.0846
-7.4343
-6.35096
5.43627
26.9208
-1.18092
-192.492
-19.2446
0.831177
4.49192
-147.659
-20.2707
38.9833
-134.031
23.5158
-24.3019
-1.8993
24.2994
-1.06211
-39.3905
18.1932
-4.31463
19.6929
-2.95538
24.8677
0.369997
-98.4861
-98.3279
18.033
-85.4581
47.6115
-4.79405
-3.72954
-11.9017
-204.792
-2.09004
-38.4107
-161.785
-35.3012
27.2931
-2.91572
-21.621
-195.513
-37.084
-35.6125
-19.0468
-144.496
13.7
14.9311
31.9606
20.9705
-41.6796
3.21155
27.0614
-90.1379
-11.6426
-52.8938
-3.78262
1.64236
-58.316
2.50039
21.5782
-122.29
-56.3771
-58.0449
-13.599
-15.4534
5.04523
14.0891
-130.845
-3.11116
1.64268
20.4299
-23.5193
-27.3162
-6.58581
2.70639
21.4566
-69.0419
14.5938
20.7361
0.168748
-4.73628
-3.68857
-52.708
-163.389
0.370944
0.422475
-4.42828
-62.5842
-95.858
1.01185
-9.33824
-111.074
23.3583
-3.15245
24.7756
19.5122
-22.0246
-4.64985
-3.16856
20.3476
30.6342
54.1393
5.17243
-13.7626
1.88895
1.45076
-16.1886
20.3283
-21.3727
7.88444
38.135
-47.4474
0.29945
47.3652
-34.9295
17.6957
-2.86144
-19.9484
30.4532
-18.307
-4.67996
-41.9633
-0.195951
-3.03159
44.0084
-23.2665
-3.12665
0.0988942
2.25533
3.05522
-52.2301
21.2436
-1.59411
-123.569
-4.30291
-0.104938
-200.678
1.01309
8.08677
26.2377
21.068
-45.0736
0.0160166
-26.5472
-74.2778
29.7234
-3.43307
-1.21232
-2.20497
4.52738
-81.7471
3.50404
20.1989
20.3032
-3.09734
-107.421
-59.3493
12.7741
-25.8876
37.781
32.6727
-77.1932
-12.3381
7.32446
17.4263
-38.8362
-145.422
27.3563
-37.9299
13.9841
26.1968
40.3369
-3.95352
-92.8594
-77.7729
-30.5129
-14.4154
-35.9747
10.7551
8.22475
-177.606
-40.1193
4.24812
29.3934
-16.6888
-0.8717
29.905
16.4405
-12.3913
-34.8747
21.7373
20.2179
37.9315
-29.1443
-36.0427
-157.101
-1.40352
20.5457
9.11167
44.4058
18.3311
-2.18451
-29.4582
10.017
21.8253
-48.6236
5.83335
33.507
8.52941
13.7511
3.8829
-43.7321
-74.312
38.3388
-3.0912
-5.69509
36.2381
-84.9738
-39.3655
-81.4919
-37.616
-0.62595
16.655
37.0006
34.0133
-59.2694
-3.89723
-45.4599
18.0035
25.1104
-11.8964
-17.0448
20.6005
-55.5159
-227.745
-140.656
-3.15145
2.56739
22.4123
-0.286608
6.46846
-123.962
23.0717
-0.0397528
53.5169
27.4603
10.7175
-17.3375
-0.409721
-0.185202
46.8748
-9.8776
-3.76115
-2.7289
0.49089
-61.2571
2.7258
18.6287
-2.20724
-5.44627
30.2315
-13.4698
-30.3624
17.6836
-124.716
58.2501
17.8306
20.4957
22.111
-194.139
0.19178
47.1342
-41.8692
29.9692
-63.9282
11.3288
-144.887
-8.33152
-1.36836
-63.2411
25.4052
-2.74632
-95.8843
-0.0270068
2.05765
40.4011
16.5632
-11.9711
-1.43269
-2.74939
-5.3938
-38.5861
20.2838
-151.389
37.3436
-5.72637
-3.27359
37.3625
-25.8928
-0.481877
0.613417
-149.086
-69.1716
0.387726
-31.4682
7.79328
28.1807
-33.2132
-45.2817
-34.9585
-0.152045
23.6921
10.743
-32.7034
-111.53
10.2308
-161.749
-11.5536
-336.759
-16.7071
-1.3112
37.3931
-7.42006
26.3004
4.88156
-75.693
-27.7536
13.4228
-43.5251
17.1343
-0.336556
-89.2406
-4.00872
12.9118
-49.9894
-32.6887
20.6319
25.8749
12.1851
33.493
-0.245246
18.1507
10.0842
19.6565
-3.15644
23.8232
-50.028
11.8371
-3.65778
-13.8905
-87.6254
19.6278
-89.3865
2.87713
37.7906
32.4679
-182.542
-105.155
11.4345
7.18912
9.60963
21.9078
-61.2315
-28.8733
6.0898
29.6508
9.23767
6.63807
-402.056
32.8496
-97.1904
-6.88909
20.5238
-19.551
-8.42906
0.964587
-13.0426
0.864744
1.06459
12.9574
-16.8301
31.6577
-1.61068
2.08184
2.83641
6.45413
-12.9281
43.0203
11.7399
42.3693
-182.3
15.8982
-0.470814
-123.642
-32.6371
17.8559
46.79
-442.863
-27.2233
-15.4534
-23.7749
17.6835
24.4339
-5.48294
6.71614
-33.1162
-74.6532
-93.0249
1.84652
-26.0936
21.7264
-0.259025
38.2653
7.49087
-2.45781
-71.933
-25.4515
12.0126
-46.6805
-1.31891
-60.4269
22.8915
-0.0206842
-14.1985
-123.435
37.7567
-0.17699
14.2479
36.4797
20.354
-37.2594
-6.11435
-1.64077
7.62609
-5.18142
-4.2237
-224.646
12.8253
9.45024
11.5854
5.72138
37.6042
-6.28971
-193.162
19.6367
-5.14081
1.91726
-12.9676
18.8699
14.5638
-33.2595
-0.0131576
-2.88716
2.21837
23.5901
11.7072
1.36894
-0.617874
-93.8751
-6.57992
27.9486
-3.98802
-7.32019
7.90431
37.6235
20.7398
-14.8988
42.277
-0.827569
-59.8616
14.8489
-63.7863
26.5568
-2.6338
20.5743
-185.888
-99.2916
-195.838
-0.177777
-31.741
16.5526
44.7775
-42.5978
-20.7811
-2.04881
28.2004
11.7487
14.279
-113.6
46.8058
-31.8942
0.605522
-12.2719
17.3953
24.2647
15.1895
-49.8597
-160.986
36.4035
20.5887
-46.0656
9.85426
-92.8711
-4.02254
-11.6811
17.244
-75.7509
-10.2622
28.4083
-34.3746
-4.1778
-14.6489
-73.7615
-45.8487
-3.85939
17.8716
26.3156
-178.525
0.0691433
-31.616
-157.074
0.976984
-26.8536
7.36502
20.5858
4.33478
-21.1367
11.411
-47.3643
-246.482
-5.75851
-3.62861
-166.188
-213.555
-2.83091
-201.866
-5.54287
34.7389
-4.00637
-236.679
36.5408
31.9175
-169.303
-291.873
2.16017
-99.9207
-2.76568
10.7945
6.11291
-30.1836
-28.5331
14.1072
18.2659
-2.7466
-99.5067
-85.1838
3.15936
-3.12004
16.4543
1.35038
-166.788
26.1883
29.6733
-78.9699
-193.963
6.76826
-60.0118
2.10178
-3.5363
-39.6275
-164.213
3.60429
20.9829
42.9378
17.2318
7.32791
3.39959
20.4369
29.3356
-0.967505
4.35717
17.7341
40.064
-35.7425
-3.12425
8.83798
-12.335
37.4422
0.219359
11.8769
2.09458
-10.3555
1.7883
4.08241
-10.0236
22.8127
31.6958
18.6332
15.426
-11.2899
0.706676
-23.8031
-30.5706
-17.8532
-8.59135
-2.74198
-343.923
-102.311
16.0318
-37.4852
-98.9717
17.2438
-110.84
-21.5435
-43.4668
-231.938
20.0401
-161.149
32.9112
-201.179
-105.465
10.198
24.5434
-6.80854
6.67622
-74.9176
24.644
-33.4297
-6.22634
-6.95683
-3.79746
-90.2885
20.5681
-14.5055
17.0356
-3.21196
1.24654
-50.134
-3.89662
-1.5452
17.2907
-17.154
-59.0313
-410.565
32.8676
13.0688
-212.583
-76.3414
17.5215
-157.731
-3.18358
1.80001
-20.7428
5.21846
-13.9665
-339.575
25.5264
20.5598
12.2029
14.5655
-3.13382
-48.7291
19.9008
-4.45029
11.3416
22.132
-9.9297
-3.57854
-14.5171
4.53936
-3.71901
24.5962
13.3626
1.71214
20.838
22.0502
-3.03403
45.9008
4.10225
-14.6799
18.174
2.42793
-3.72303
-16.3376
-128.998
17.3354
-5.69984
-0.893905
-3.21589
16.8823
16.5888
-34.7672
-0.0509353
20.8303
2.53701
38.2215
25.5558
22.69
1.67044
21.3197
1.14639
-1.55979
-17.3254
9.76217
-192.939
-13.6698
10.8702
-84.0014
-117.638
15.1063
-15.2871
-85.6496
-375.117
-199.139
-2.05006
22.5928
-0.969531
7.08477
-80.1888
20.2177
43.1692
3.44085
-134.493
17.1615
-42.0313
16.3556
-3.06709
-3.12136
14.7985
-5.32524
37.787
0.920252
20.4042
-34.2172
24.7039
-2.64625
25.8788
-5.6984
-50.4639
-4.09338
-463.748
1.13231
2.97797
-145.214
33.8433
20.1537
27.0114
27.3145
27.1567
17.6443
-24.3674
3.90071
20.339
20.601
-12.5825
-1.0843
-18.5236
-15.2556
2.13704
6.83472
-100.147
54.0062
-21.6594
-5.15943
43.109
31.2111
-12.9318
-402.011
10.493
16.3273
-94.5295
-0.334301
-91.9082
-3.24512
20.3636
24.7791
-3.20856
5.59269
24.486
-0.104731
-4.94874
27.025
-0.205404
-4.06039
-33.4983
-0.56119
-9.4732
22.7453
25.1915
-4.15712
-53.0871
-63.4469
0.416749
-3.79655
1.81135
36.2913
-4.20513
51.1249
15.5736
1.46612
19.298
-37.4266
-109.902
-151.581
17.5524
-3.3901
-84.3989
-116.276
15.0016
18.1806
-2.75578
-25.232
-89.0341
-21.5682
12.7795
-3.16215
1.82425
1.15659
20.5743
21.529
26.183
8.20504
-12.3652
-36.3049
-15.805
-0.482638
-205.886
-1.78662
1.14921
-149.436
-3.13955
-4.17872
14.9133
-130.402
1.82195
15.9607
-3.89326
-77.7794
-4.28589
-9.27036
-71.0519
2.94938
2.64498
5.65186
18.9699
16.6194
-84.7512
20.3569
-3.71497
28.6605
2.89887
15.9728
19.7935
2.70887
37.6597
48.6924
5.99552
-38.4538
19.0911
-1.5441
37.9789
-18.8922
-25.3336
-108.777
2.51965
-19.4571
-13.4174
20.0595
14.6443
4.65393
-68.2742
-15.2714
9.18978
45.5678
-15.114
20.5482
-33.7793
-7.62069
35.4406
-10.0576
-5.84196
-138.323
14.0154
0.803526
49.4959
-1.04248
-19.778
15.2181
2.9888
-41.0553
-92.1032
26.0101
26.5471
-1.77763
-34.5941
32.2245
29.2925
-6.33041
-48.111
-0.829545
8.94698
9.28884
13.0735
23.4642
0.966165
-76.3407
27.3598
-6.47218
-9.48279
-13.8788
24.9163
15.5337
-135.539
-190.134
0.039148
20.4317
35.1857
0.424527
17.734
-10.3908
46.0001
-79.1352
-16.8049
38.7379
20.3771
5.11533
-2.04232
-95.4151
-19.1685
-105.801
-78.1513
-2.80848
-150.323
6.67036
-50.6914
-102.108
-33.1267
18.4926
-90.6795
-31.27
-78.3704
33.6088
22.751
-40.2739
-92.2106
-1.09034
8.45452
-14.4947
50.6292
-21.5979
-13.1648
20.4623
-59.7993
-154.752
-14.7975
-16.4593
14.8746
52.9249
-0.23745
-9.62697
-183.266
-0.108714
-18.3821
-3.98406
-2.69729
27.7445
21.4813
22.0265
-146.117
-6.75075
-2.55118
3.06096
20.3037
2.31656
22.3604
47.1585
41.377
-56.8605
20.4906
27.2486
-13.8729
22.6099
-3.81313
40.1995
22.0094
6.56905
26.0509
15.716
-13.2357
-1.94992
25.7454
-31.2616
3.47839
-32.741
-26.3725
2.82545
16.4315
-3.86121
2.8791
37.1218
36.5671
-12.9988
-87.6188
1.66872
-100.47
-9.22209
22.3352
28.286
-88.3172
20.8992
2.40719
-1.52544
3.35368
-116.306
-135.35
-4.12244
51.6104
-21.3513
-0.802135
29.6573
2.58079
-9.9976
14.996
2.70457
19.8038
-54.5699
-32.4018
0.887642
-12.4246
-21.2639
-15.9
43.9127
30.8441
13.8198
48.4219
35.5849
-19.5494
-3.94757
20.3041
-25.0278
37.1543
-151.954
10.5824
-0.856442
-51.1381
-20.2995
18.8521
-410.917
-1.24535
20.007
53.3791
-49.1751
-0.462399
5.7001
7.18849
-1.32532
-140.601
35.5433
21.3961
3.26409
17.4295
-75.7933
-49.5341
-65.206
41.1562
-8.6566
49.0418
-126.624
15.4988
-130.436
-39.897
-110.307
8.83684
-4.09583
12.354
0.92426
12.283
-137.124
-0.100501
-145.589
-83.3497
-23.5163
-0.906617
0.597499
-7.1709
-121.758
-65.1437
0.0524292
1.48887
38.8523
20.47
-3.23751
0.587614
60.4724
10.0309
-50.7599
-0.344454
3.47914
20.0664
4.20797
27.7122
-11.7279
-12.0818
-16.6931
-0.0550283
1.80635
31.6591
-91.9105
-48.7496
-57.6339
42.1951
-94.7113
1.73164
23.0569
-137.833
-7.62021
-3.33668
-34.4405
-38.9647
-3.16988
18.848
12.2771
22.4202
-1.61122
-86.1061
-28.3544
-72.2419
-58.9974
-14.0844
5.98197
-134.427
-0.296277
-119.173
-46.5722
-128.358
31.6678
-137.991
42.0226
-46.0692
-33.23
-7.22627
11.8651
25.3966
-3.90965
32.5151
2.26851
-102.979
-22.9235
21.2999
-80.4637
19.0583
-3.16697
34.3482
27.3942
-3.01898
17.4467
37.1102
7.81716
17.8816
-51.8211
-53.7532
-3.92866
-60.7152
-4.06527
-23.5103
-24.1895
-1.15959
-35.1578
1.82733
-4.97591
-10.7688
-20.7143
-26.5594
39.9917
-0.398985
-0.270424
2.51198
20.4728
-277.192
-0.292342
8.98641
-7.27197
-1.16898
1.34003
1.13914
20.4914
20.5583
-0.580523
22.5586
25.2654
12.1578
-49.5801
-4.94681
10.2718
0.909422
-10.475
-164.291
-216.5
-19.0879
-99.6641
-0.062922
-4.02064
-10.3772
-94.8779
-10.1073
-146.919
-3.53118
-155.502
12.9956
-32.2613
22.5068
59.5619
12.7631
-141.377
14.871
7.80432
1.71435
-0.751144
-56.4385
-398.935
0.141774
21.4792
-0.218742
35.3806
-0.639476
20.4608
-9.77579
-3.36122
-126.087
-35.2615
50.0249
-118.614
20.6339
20.8869
27.5637
-0.26581
21.271
2.43131
-129.627
7.087
-51.1596
-85.9253
22.2983
20.4459
-7.3738
6.46818
27.6459
-91.1505
-420.767
-11.8848
-3.3462
22.5263
16.3597
25.3702
-5.26196
5.70502
-54.4823
-23.405
-52.6251
25.4712
48.4809
-66.9351
-74.6999
-149.45
-2.58497
-0.426595
-0.251107
-46.2215
24.7913
-7.34503
-159.015
-4.66351
49.3656
14.0177
18.465
-139.667
-82.6625
-99.8682
-35.4696
-126.239
-56.6266
29.8518
16.0605
-30.4549
44.9053
-0.381032
-24.4848
-146.605
-84.2372
8.26518
-79.7201
12.1083
3.97122
-0.0933338
-47.5814
-37.2145
-54.1072
-175.671
26.4017
-131.713
-3.65959
-56.475
21.0009
18.5797
-96.035
23.411
15.8412
30.9809
37.2743
8.32464
2.34954
51.441
-62.9875
-1.21337
-58.6832
-278.925
30.7702
-190.895
40.0367
15.2601
-12.5154
-109.714
-63.1534
24.9416
-230.978
-243.955
-3.4836
-16.4515
22.9598
17.3053
9.52912
-11.0178
42.1661
-96.1785
-149.288
-5.00438
0.116679
21.9971
-174.019
59.705
-3.80197
-4.58283
20.3654
-16.511
20.5867
6.37243
14.4475
8.21942
23.1955
-18.6665
8.5457
1.71358
-167.69
-1.06837
5.91247
19.3331
22.4744
-166.201
-1.01189
-43.5133
16.9259
9.02647
-266.81
21.3949
-161.784
20.4315
22.6273
-38.048
33.6626
-381.209
49.0377
10.8505
-160.605
-0.154594
-5.45116
15.9988
24.7455
-187.728
22.8868
22.9716
-38.1119
-2.68895
1.60196
-0.847523
-40.4648
-46.0594
-25.5258
-167.722
20.9449
-146.666
-121.95
-54.751
27.8602
24.8223
18.3751
-131.871
15.333
-7.23983
-0.686804
16.3672
-207.573
-182.168
41.246
-7.20086
-3.84425
-31.3823
-78.3755
-157.188
20.597
-40.5078
-23.6926
24.9441
-12.9768
20.3158
-54.0212
-0.802127
45.5169
-49.1997
25.0848
-1.80867
-137.394
12.3042
1.65702
-0.979782
45.7062
12.8567
3.1158
47.1411
20.834
29.2807
-71.0515
-148.518
-29.6872
-15.8577
-132.22
8.13271
-16.562
3.37026
-2.92668
0.762303
-22.5829
-13.9263
-140.325
-20.2925
26.6984
-73.5882
0.364945
17.4208
20.3446
-7.38599
-2.26801
-97.7764
-39.3884
-62.341
-26.872
26.3282
-266.82
31.1561
-43.971
20.5692
-29.9683
-3.99363
-56.5055
13.7082
15.5454
10.7142
1.20878
7.58874
23.396
25.984
33.4133
-189.197
-60.48
-109.196
21.8816
5.88342
-49.8045
-0.736069
6.02026
-8.50347
-1.56026
4.08225
-14.6087
16.6892
15.3297
5.22946
-3.5323
-307.322
30.6973
-81.0768
16.5281
0.0818075
20.5477
15.0191
16.8083
3.43026
-100.164
-143.577
-3.72418
-126
-189.853
-353.015
10.8002
-175.185
20.5673
4.79461
20.524
-128.807
20.51
-22.7003
-3.78931
14.8605
-41.6104
9.43597
1.89836
-415.676
-123.324
-87.723
2.13159
20.8965
-3.54105
2.411
-117.751
8.96395
-63.7034
-2.18486
-41.9383
23.2892
-0.353401
-2.15074
19.387
7.15674
17.8976
18.7091
33.8757
-55.0257
-3.7344
-52.4359
-5.35584
17.7157
1.81013
-80.6836
-245.32
-107.788
-17.3818
-1.83938
-149.36
49.5955
-61.0162
14.3184
-0.671304
-249.409
-4.42354
-4.66931
-5.98938
8.03082
2.47835
22.3181
-3.67959
20.6224
-21.4809
-51.1093
-191.349
-13.4599
-230.272
13.6616
44.6879
20.8981
-36.8659
-75.2733
20.4335
-50.4483
-52.5883
-0.802884
-8.82178
-235.964
-164.639
-283.879
-29.9823
1.14538
-2.86869
20.1864
1.67085
23.8935
-15.3838
-6.69823
24.6865
-4.10615
-50.0856
-2.47957
1.24809
-0.237649
47.4014
-0.906545
-1.35655
-15.3127
-7.10492
-16.1403
5.60586
-12.2384
-7.00972
-15.8427
-20.6435
-3.70608
-39.203
26.2934
4.7704
9.73496
-43.0463
-21.3737
46.4121
-174.527
13.9322
13.678
3.0085
-5.27127
-0.272043
-152.97
-19.0234
21.5628
17.9203
9.71356
-194.567
24.5585
8.19899
35.332
-33.978
22.3062
26.3214
21.3163
4.81074
-34.1822
12.0725
-78.9595
-13.6706
14.9335
18.1393
7.73399
30.6988
2.49258
35.7524
8.09217
15.5203
2.65617
-0.329567
-61.2183
20.8406
-3.79759
14.7379
44.8801
22.2342
3.27576
-22.7062
-0.634494
20.518
-3.78533
-28.5568
2.64753
-2.98354
25.2097
-87.3551
32.6916
10.6116
60.5149
39.2708
-21.7671
-29.1117
-75.2948
7.28405
40.6541
-1.40572
4.91814
-7.75998
49.7982
16.4271
0.0489008
41.8234
-7.34255
18.5834
-21.4772
13.1002
-11.5874
6.96049
13.208
22.1615
-4.54446
-62.4404
1.71101
-76.8968
-4.93332
-79.852
-0.875968
36.4794
29.3567
-2.85813
-54.8997
-11.6778
17.4816
3.92249
3.21543
17.2034
-37.9193
-114.288
-137.333
22.5673
-24.5122
-30.1654
7.22012
-11.0628
-0.421118
-20.2888
46.723
-224.847
31.141
-60.2446
48.1471
-59.9088
-2.24917
-4.34815
-2.6453
5.6097
20.5633
5.78971
-13.256
9.112
-49.0231
25.8968
-1.91374
6.01689
-193.693
0.373721
-61.6345
13.1669
-32.5151
-3.11904
-8.24683
21.0983
48.9038
-79.5416
-3.93482
2.43439
-23.0227
15.1128
-2.88554
-24.1863
-10.1936
-90.4893
4.0263
-162.126
-20.3786
-0.284755
-11.5272
-442.719
4.95388
20.2177
15.7608
20.1838
45.747
-76.6858
49.7258
-106.013
46.2083
-211.573
-8.04163
42.7057
14.131
-250.31
-3.19814
-4.41758
4.21955
-187.315
-54.436
2.15671
-32.7736
-55.9845
-0.262604
-14.0965
13.4162
13.5151
-308.61
14.1564
-15.2371
1.59181
-210.404
-3.74518
13.6677
-197.538
-17.8447
38.1521
-2.99182
42.133
0.718563
-43.0245
12.7831
-16.559
-4.52153
20.2354
21.2817
50.7584
19.6914
24.1547
-30.7081
-97.0562
49.0654
49.3533
24.8531
-6.83868
-173.621
-77.8079
4.08929
-19.7513
-6.00898
26.4286
-119.794
-3.4539
-73.336
43.77
15.1626
8.42589
-146.547
-2.08494
14.409
57.4501
53.3557
7.57884
5.97652
-22.2746
-68.6955
14.9376
54.2289
-69.0928
-4.59127
-14.8176
-0.172514
3.17251
2.57785
-1.0759
1.59405
7.08778
0.696436
-5.28909
12.0782
26.2771
-63.8878
15.8617
-162.224
-2.43237
39.4274
-67.6818
3.9662
-66.2038
14.4561
8.99432
-86.5946
-72.8968
-2.19154
9.49429
58.2253
-118.092
14.3138
-357.091
-12.7071
-94.2094
-64.3845
-89.35
-3.4122
-2.31619
4.08461
-14.1951
-53.3962
9.48075
-1.85985
7.80543
57.5807
7.59275
1.62294
-21.9308
9.82966
-83.2534
-29.4935
36.4484
17.9861
1.77908
2.71282
13.2739
18.0049
-24.6346
-140.378
-1.09527
36.5812
-19.8849
20.4298
6.60699
33.457
3.11786
-180.025
17.2584
21.3935
-24.3318
21.7054
-7.91777
51.692
-102.343
0.706378
-49.2622
15.9989
-108.086
-11.113
-113.188
1.15452
-48.0194
-220.393
-206.442
-6.39775
7.01571
-213.245
-13.6417
4.95323
-84.3329
0.0838768
-123.149
21.2289
47.4833
-3.86389
-85.6311
1.84898
-0.0887719
4.18893
-7.36678
-3.59344
-55.0373
-0.828838
-66.3847
-48.3635
5.58807
-14.0779
-132.223
-62.2163
0.541153
20.3432
-17.9309
-91.7693
-1.81946
-4.2323
-1.59186
-9.47792
-54.7338
-99.8394
26.8019
-150.941
-36.4675
-25.8643
-73.4438
-41.4396
-88.9024
59.3114
-4.75708
-29.3252
12.883
46.9509
39.6436
-203.724
-21.3113
20.4372
-3.48248
-1.26964
46.5129
-1.64857
-11.5298
61.3906
-2.04039
-59.8973
8.86555
35.8824
21.7864
1.91132
35.6497
18.8333
-19.0215
-2.34003
14.8977
2.58469
-39.5111
44.2831
-5.43501
-8.86271
-5.12562
-172.254
-8.73495
-154.905
-28.153
3.53931
6.18836
24.0822
8.179
-44.0092
38.6554
42.1676
8.68656
0.231876
-10.4325
-2.01175
1.73336
17.281
-158.318
-15.0948
-18.6511
49.5597
-49.856
12.2681
17.0835
18.6446
-15.7496
2.5902
-6.68439
-15.8022
-35.4016
-4.31691
-80.7612
-14.0348
-1.21287
-102.172
20.4913
-225.983
-3.60415
9.82525
-78.4085
-148.615
-45.8392
8.57759
-19.6847
0.0241131
14.1162
-325.552
-3.95142
14.4353
-8.83151
19.8141
-33.3638
48.1283
-3.97873
52.9284
-0.125244
-0.39907
1.20622
20.73
-0.989236
-25.9903
-8.78825
0.291572
0.989399
-10.4229
62.3845
18.7299
-23.6007
-20.4005
-16.9731
18.0086
8.0248
-11.4089
17.4815
-144.719
-130.881
-88.0094
-57.8393
-18.9721
-93.283
17.757
-0.211762
39.5186
49.5744
-31.6097
-50.4463
8.23673
-14.3538
41.8981
-75.3423
-5.87788
14.0419
18.9954
-162.163
-76.4218
3.19319
-4.45221
-7.51829
-133.847
-59.5965
3.59536
-8.13334
-16.936
-0.590462
-21.6745
-15.2128
8.53267
-232.235
-171.222
-43.4862
26.953
51.153
-21.8146
20.9149
-98.8162
-7.28698
4.70888
-19.7405
11.625
-96.0111
-145.605
41.4314
19.2964
5.3469
-77.8524
55.367
-138.626
-144.029
-140.705
-27.3723
-112.213
-157.026
34.9363
4.17624
0.437902
13.5418
-102.047
13.975
0.0627424
0.601586
-30.6406
6.00082
12.4533
9.10516
-88.8416
-133.78
-79.3201
-57.3561
-18.0171
-13.8145
52.0696
18.2633
-155.318
-30.3598
10.9371
37.6034
-15.806
-155.712
-26.0904
28.2739
3.64631
-38.3103
21.886
-14.423
40.709
-19.8377
24.2283
-40.1329
-33.9139
-4.84757
-143.706
-30.6075
12.6189
-149.063
-110.141
15.5857
-13.2409
4.07202
29.6706
19.4096
28.2566
20.3858
-19.9591
-1.31462
6.4469
4.57664
-0.0319427
15.4403
-17.5899
41.2798
-99.572
27.0073
-43.2641
46.7636
-99.6801
-7.26363
45.1626
-107.523
-20.7345
-43.5037
29.5211
44.3326
20.9534
-38.406
20.4242
21.3221
-185.309
15.0126
-204.669
24.9485
-120.006
-168.638
-61.6033
-69.7861
20.5809
-39.8388
-85.4211
-5.51497
43.4177
-8.17328
1.54063
-73.1437
-8.80928
-14.4799
-22.4672
20.8072
5.77211
-79.5059
53.684
-5.25401
36.7902
24.1625
-5.56049
-1.78861
-3.00891
-10.6786
-31.1867
-7.61322
-10.1455
-2.84216
5.26193
-129.653
47.2076
25.4435
-7.30785
-102.979
5.01787
-109.155
18.8841
19.2354
1.66183
-3.76807
18.8455
8.25633
-12.9297
-94.0227
-18.1929
10.2877
40.624
-142.038
45.8275
53.7819
47.832
-31.4666
19.9737
-36.3151
20.2177
19.8088
29.0912
10.3331
28.0607
56.7481
21.8607
-160.665
-87.4264
-120.437
56.8256
-4.25883
-24.263
-90.0126
25.9924
39.2829
13.1934
-5.67853
-7.56095
34.7441
9.68088
5.80857
-97.7867
14.4089
-3.57032
-63.5966
-2.14661
-34.6687
-53.8717
-211.272
-50.7809
-2.66511
19.2655
0.737622
1.69581
6.3001
-50.7913
-30.932
-4.54923
-40.8734
-40.3264
-167.494
26.0383
36.0437
-132.594
18.2869
25.7435
34.4532
-2.40426
-418.541
10.2846
-49.7427
29.3115
-36.6573
27.9434
19.2379
8.53289
27.6002
1.8814
22.2259
-5.03331
14.9936
-24.5759
-86.4414
-70.9217
-3.81857
21.4781
-365.44
-195.915
-328.342
42.3958
19.8076
13.5437
-8.56371
33.3201
-11.0415
5.50351
1.28654
-23.7871
6.0391
-192.723
-49.5662
-12.2886
-42.5934
-25.1697
-180.367
0.989802
-84.6189
-103.624
-0.994851
44.2294
51.2214
39.2125
-365.378
6.00445
-34.9402
6.72836
37.6395
8.59793
20.8773
-319.247
-3.38131
-27.2343
4.32546
25.0929
-12.578
10.8599
-54.983
-0.190657
-53.2534
22.2266
11.0752
20.3338
-32.3623
6.58156
-208.553
-85.3377
-78.7738
-4.2471
42.4041
-18.3877
-88.144
-107.365
15.2742
20.8485
-5.20354
17.074
-44.3334
34.3587
40.2821
-177.893
1.10912
28.4131
-216.239
-99.6966
5.76161
26.778
30.6876
-38.0289
-22.3999
1.9869
43.4713
-78.3823
-384.932
4.23459
35.9008
5.55398
-23.2667
-46.1732
22.1626
19.3914
24.1918
3.62063
-12.5362
10.9223
54.8089
-91.0649
-9.96797
5.17361
-70.3433
5.30665
-2.23129
-78.2665
-24.5301
-111.78
17.7735
-121.485
-78.0731
20.1341
28.2878
7.00104
-11.0233
-349.872
8.27278
-51.5056
-37.2218
-17.6594
-4.78327
-75.9951
27.9684
9.42587
4.85039
3.61037
38.9444
-122.376
-14.6292
21.3854
-71.2072
18.2235
-2.5053
-7.71835
-49.9992
20.5021
-0.271875
-2.4347
-11.2727
-47.65
23.1747
-46.6958
11.7825
-239.775
-33.4879
20.3885
-65.3272
47.2928
-43.654
-76.1089
-123.83
27.6446
10.2081
19.5651
-111.58
35.404
-201.902
-18.0435
1.7011
-10.9818
21.8823
-3.2557
-13.0229
-11.3231
-120.387
20.1658
-37.2055
-217.399
-0.15394
-35.4942
-23.4452
-6.25643
39.0835
-0.23295
-40.4339
19.1996
1.81943
30.27
-47.9469
6.25265
19.9195
22.1885
-4.74899
-69.133
-63.8735
5.52552
11.1092
13.5333
-34.072
-125.044
-7.54227
-33.4466
3.30616
58.2594
6.49935
19.5086
30.0867
9.1306
23.5955
-257.844
-54.4533
-244.807
20.1312
56.9205
7.37698
-8.63744
24.1543
-6.96187
-4.15113
-0.300589
4.92241
-0.952805
47.4534
-110.589
-66.2832
37.3741
24.993
1.25822
10.8121
19.4747
2.21079
-180.161
-234.116
10.898
-115.524
-81.9523
17.6212
-257.844
-106.351
-55.0516
4.25447
5.91173
10.3258
2.93743
20.1648
21.2485
-0.095446
11.8523
6.84855
29.2414
24.074
-27.074
-6.11404
-5.37099
25.4939
10.3956
17.2861
-5.86043
2.76363
-3.97547
38.8673
14.2833
-0.369541
-57.9605
13.6195
15.6752
-17.8943
10.9456
-3.59109
1.06998
-233.561
2.04101
-64.8888
2.25358
-22.714
-80.4131
-99.5152
-36.0589
31.9108
-77.3728
-96.8389
-98.207
40.8491
-115.502
3.8898
9.85029
-79.1157
24.5403
20.9443
-23.1897
26.6757
3.5556
6.19285
-144.48
-64.0177
-1.22006
29.2688
24.7149
-34.3304
-76.4751
-205.599
-111.163
-103.223
12.2888
-11.8275
13.1084
20.4883
17.3066
-163.595
-0.0261139
27.635
17.9027
-30.8579
1.41245
-126.448
-13.7051
1.66724
-0.675824
20.1207
-10.3286
-140.268
-187.132
11.4983
-282.561
-140.558
-0.489237
-437.726
-45.8828
-88.2875
-88.5887
-0.69963
-80.9207
-4.37743
-35.4076
21.995
20.775
-13.5308
28.4117
-178.81
38.1919
-71.6075
6.68709
-12.7422
11.3079
-0.261797
-89.0868
-68.9277
22.7145
29.476
41.6206
-53.2366
-55.6702
-233.969
-10.5695
-0.236844
-42.7327
-48.491
-51.7484
-0.331956
-31.7377
-19.9644
-68.6213
-7.32051
34.7268
2.05642
-14.211
-3.12494
-12.4814
-149.555
36.1142
50.348
-132.103
12.4571
12.0438
-0.183502
-173.189
27.1077
29.0613
21.3385
-97.5902
-247.66
-218.327
-12.5791
-58.1894
-12.4975
20.5962
2.09358
25.7985
-26.7741
-84.897
21.9083
-11.8255
-66.3248
6.56299
23.9185
-72.7303
-3.77148
-81.8768
-45.354
-58.6035
42.8657
-71.2566
1.94611
-41.4661
17.3026
-65.3568
-15.655
4.77332
-90.1948
-23.4319
12.7583
-0.849856
-52.1405
6.39943
-0.03364
-292.175
-20.6137
-39.0092
-16.9609
-5.88378
19.9374
-47.4398
28.8188
-241.665
-0.162268
-5.68877
-38.1753
-225.04
-39.255
-213.854
4.44063
13.8201
-0.153439
0.338815
-23.0517
0.913885
-131.438
20.8587
-84.0374
17.1481
-28.9616
-111.291
19.7802
66.4239
-157.854
-78.4
-2.33449
-47.8203
20.2547
-1.43698
19.7278
-11.5689
-65.4338
-51.3004
-104.939
-51.4107
3.77569
-75.4497
8.86151
-74.3331
4.78773
6.87847
-6.23642
-33.9588
-4.17446
18.337
-40.4163
-320.02
23.4892
-8.43245
-52.1435
0.707629
-53.1121
-26.9603
-0.26876
19.9209
-207.026
14.8736
-39.8851
-45.3216
-77.6622
-75.9183
-127.762
-32.3748
-105.729
18.7711
13.8991
-168.608
61.1276
-227.643
28.7139
27.5783
-81.6958
6.45349
16.7569
20.5091
-16.6626
-284.666
-83.9894
-59.0094
19.9805
11.5351
-54.5712
-47.8924
-23.865
29.3218
1.40079
24.2431
6.6347
23.2903
-15.0804
-18.565
-3.64495
20.1679
7.09143
17.4487
29.3046
26.3275
-0.538214
-384.932
18.404
15.9164
4.11476
-8.45472
-94.994
-145.862
-43.5012
-339.616
28.52
2.922
-9.52884
-19.7554
8.58759
-88.6154
8.11999
-376.762
-19.965
19.1602
24.2216
-205.892
17.0682
-6.51425
4.69075
9.36815
2.63383
10.6108
-0.255679
21.9673
19.177
20.6489
-38.6806
24.6012
18.6598
20.3201
19.7791
-330.273
-12.9973
-4.15184
-30.9464
20.4126
39.1428
-399.13
41.2174
-301.222
-102.538
10.3027
17.2753
-4.05991
3.99924
-46.031
-406.221
-18.231
-160.295
-8.25213
-0.597575
3.9218
52.6198
14.7745
-197.725
-141.405
5.80358
15.3847
-176.778
-185.301
-362.315
-21.1488
-106.66
-88.3834
20.7095
5.80498
14.5948
-11.2499
-10.3664
11.0305
-1.77921
3.78569
-25.4462
22.9424
-60.3045
-42.9658
-53.3549
-142.749
-1.18852
16.2407
-7.07226
-64.744
20.4745
-4.27168
14.3834
-31.0935
18.8788
4.40073
34.9773
19.9554
-315.62
-0.363355
-22.4347
-323.197
-3.50565
-3.71113
-34.3212
-439.048
53.1939
-1.06618
-0.486019
28.2146
-94.7096
-10.6966
-171.26
-47.9334
-104.981
-55.9224
-11.6016
-1.59676
-59.8118
-322.783
18.7606
-251.279
-11.9597
-117.514
1.47885
20.4702
-99.0534
-145.922
-12.7351
-2.01634
-32.755
19.144
30.2182
-337.519
19.6265
-13.9614
18.8895
40.6556
-74.1834
17.9944
-0.331344
14.0003
25.0103
-2.12418
-11.0909
-100.759
16.8595
30.3276
-247.734
-0.474091
-98.7436
-47.8757
16.1097
-348.061
-3.69704
-381.34
14.4228
-52.1206
1.65642
-2.39103
21.4388
1.88001
-155.106
2.75442
-3.23304
-52.8332
35.8482
46.6954
20.4222
54.6251
24.2097
37.3901
6.17937
-4.05973
28.1107
-168.913
10.4641
0.229813
-107.759
31.6778
-11.454
-21.6205
45.494
6.21768
-136.612
16.0377
14.484
26.2433
4.97359
22.0855
45.0889
-83.916
-100.766
-8.99556
1.03478
-30.1679
16.9888
3.49796
28.0059
20.2596
-133.078
16.251
-9.96506
-160.817
-165.491
-254.761
11.9861
-56.6453
20.5375
-4.87465
-48.9601
-2.30273
1.23765
-22.1155
-411.343
-85.2023
15.3177
10.1081
-56.3485
-4.28329
20.0767
1.74014
-398.904
16.0886
-1.56634
15.3325
-68.3693
19.4728
11.4325
-33.0774
-7.40516
12.393
0.11205
11.9249
-48.2859
53.3127
-10.7397
-81.4682
12.8033
4.84836
-56.6594
-24.3598
-29.2238
-22.0172
-15.5332
-42.355
4.02186
1.22063
57.0362
6.66167
-118.416
-3.55777
-24.8112
-19.4497
-23.9269
7.13404
20.2267
-34.8628
0.494884
-58.3608
-18.6749
0.42917
4.97321
19.3615
-0.240277
-0.229179
-16.8474
19.4844
-0.451685
-0.92545
-73.5137
-8.19708
-5.24065
23.947
-78.1591
-9.09288
-59.3657
11.4301
-49.5988
1.12992
22.0295
17.4235
17.3859
-57.2362
-99.4443
20.2574
-9.16054
24.9553
16.4453
16.0594
17.9577
-0.618374
11.9172
4.37163
-34.6826
-176.479
20.2981
-111.693
24.3309
1.36779
56.8478
5.40399
11.3882
19.7597
8.82774
1.74449
18.9697
-8.04658
-2.48297
-72.3959
-3.43882
8.82648
-1.6598
-22.5567
-340.739
-21.3714
-79.1883
-60.384
-45.3857
20.7726
-5.82907
20.1241
3.93991
45.1785
38.0741
13.5382
-4.53751
13.1321
-58.2897
25.7035
1.99521
7.11232
-2.75365
22.3951
12.0403
-3.46395
-305.368
-17.496
-0.805533
-17.563
17.0212
20.4247
-194.758
-3.29782
-6.74391
10.9837
15.2927
-3.0193
14.4689
15.4925
-7.36759
6.64126
17.9737
2.1449
-72.1443
18.9168
5.64494
33.8233
-33.5236
26.3479
12.9078
-44.9268
-314.683
-4.22756
-36.3979
-36.2943
-217.367
20.5342
31.1712
25.185
28.4041
19.0575
24.0392
14.5491
0.879939
15.2903
-2.19593
8.02209
6.19945
-5.72847
38.682
2.38862
-63.1006
19.7796
30.5997