/*--------------------------------*- C++ -*----------------------------------*\
| =========                 |                                                 |
| \\      /  F ield         | OpenFOAM: The Open Source CFD Toolbox           |
|  \\    /   O peration     | Version:  2306                                  |
|   \\  /    A nd           | Website:  www.openfoam.com                      |
|    \\/     M anipulation  |                                                 |
\*---------------------------------------------------------------------------*/
FoamFile
{
    version     2.0;
    format      ascii;
    arch        "LSB;label=32;scalar=64";
    class       surfaceScalarField;
    location    "2";
    object      phi;
}
// * * * * * * * * * * * * * * * * * * * * * * * * * * * * * * * * * * * * * //

dimensions      [0 3 -1 0 0 0 0];

oriented        oriented;

internalField   nonuniform List<scalar> 
20045
(
1.33809
-1.48648
0.148389
-2.75347
1.09165
1.66182
0.737549
5.24214
-5.97969
-0.576766
1.1093
-0.532535
-2.4243
2.05699
0.367306
-1.53405
5.4019
-3.86785
-2.29069
0.342414
1.94828
0.112798
1.23652
-1.34932
1.32484
1.04282
-2.36765
-1.86693
-0.380101
2.24703
-1.59979
-0.0809776
1.68077
5.23842
-2.46918
-2.76924
0.979328
-0.983032
0.00370422
-2.9936
2.51496
0.47864
-0.328313
2.30883
-1.98052
-2.60773
0.740799
-0.313279
-0.660228
0.973507
0.414379
-0.577718
0.163338
-4.06659
5.9565
-1.88991
-1.92177
0.0376565
1.88412
-2.46031
1.67249
0.787826
0.336747
0.642581
-0.482674
-2.27079
4.68784
0.153087
-4.84093
2.06467
0.376668
-2.44133
-0.612147
5.29999
0.430294
-0.364685
-0.0656086
-3.47977
7.18939
-3.70962
3.5927
1.08283
-4.67552
-8.19165
4.50173
3.68992
-0.468215
2.67841
-2.2102
2.97613
-2.45525
-0.520874
-0.123899
3.53612
-3.41222
7.64035
-4.09496
-3.54539
-1.57197
1.68477
4.92648
-2.42324
-2.50324
2.51658
1.01191
-3.52849
-0.166522
1.04529
-0.878764
-5.25199
2.71709
2.5349
1.51436
1.42579
-2.94015
-0.0740376
1.45172
-1.37769
0.486546
-0.659199
0.172652
6.24004
-6.22751
-0.0125296
3.58645
-1.22977
-2.35668
1.58095
2.00549
2.30377
2.93465
0.604354
-2.18902
1.58467
3.33308
0.730301
-4.06338
3.75872
-1.24215
0.846025
4.5998
-5.44582
3.30924
-5.47861
2.16937
4.74016
-3.21877
-1.52139
-2.75682
-1.71526
4.47209
-0.272998
-0.795473
1.06847
0.95426
-1.13611
0.181855
-1.7692
-0.655095
1.42761
3.48263
-4.91025
3.86642
0.731897
-4.59832
4.5813
-4.7052
4.22635
-3.4869
-0.739452
-2.08032
-0.403967
2.48428
0.978962
3.24739
0.498465
-2.77906
2.2806
-1.23542
-1.2249
2.6707
-1.46748
-1.20322
2.69901
1.17822
-3.87723
0.521265
-1.22554
0.704275
-1.70715
0.296343
1.4108
2.26928
-0.944439
4.07597
-4.14205
0.0660811
1.01428
-0.493014
0.5842
0.37006
-0.666097
-2.67307
3.33916
0.735134
-0.561879
-0.173255
2.9198
0.212186
-3.13198
4.3507
-2.92309
-0.839614
3.75941
1.50819
-1.83651
0.765392
0.964752
-1.73014
-0.0114843
-2.86564
2.87712
2.43816
2.60349
-5.04165
2.18392
-1.83335
-0.35057
1.76375
-1.26528
-6.33042
0.915822
5.41459
0.0227352
1.31536
-1.18022
1.50839
-0.328169
1.1339
-2.94074
1.80684
-4.00263
0.0984368
3.90419
2.46585
0.573944
-3.0398
-2.06429
1.77272
0.291571
-2.98717
-0.243477
3.23064
2.06582
-0.508825
-1.55699
1.08877
-1.58877
0.500004
-0.541761
-1.98885
2.53061
1.58225
-1.73035
0.148095
3.78318
0.42202
-4.20519
0.115596
0.314698
-0.299224
1.53038
-1.23116
3.16529
-1.65093
-0.190475
-0.63084
0.821315
3.41599
1.51049
-1.11958
-1.87401
1.58703
-1.88625
-1.1381
5.00452
0.0211039
-1.20133
0.797545
-0.98802
0.988534
3.10701
-4.09555
2.5641
-4.84606
2.28196
1.36975
-1.31785
1.11689
0.200958
-0.798677
0.997672
-0.198995
2.45658
-2.32679
-0.129794
-1.3503
1.0773
3.59814
-7.1831
3.58496
-0.534937
0.883264
-0.348327
0.142267
-0.956627
0.81436
2.73098
-0.666315
5.30698
2.33337
-3.02676
2.36066
2.535
-4.03102
1.49603
0.65425
-0.239871
-2.2496
0.169284
-2.11879
1.67825
0.44054
-2.68789
0.311724
-1.61245
1.30072
3.09578
1.64438
2.6521
-3.66109
1.00898
3.8855
0.464221
-4.34972
-6.74787
4.86472
1.88315
1.4551
-3.75324
2.29814
4.90432
-1.80854
-0.387578
-1.80145
1.29323
-0.752467
-0.540768
-0.439788
0.350022
0.0897658
2.88138
1.96734
-4.84871
3.03161
-2.78937
-0.242245
-0.988249
0.283456
0.704794
-0.940982
-0.376869
4.45961
-1.92461
-1.79894
1.83109
-0.0321487
2.27327
-5.64439
3.37113
0.563458
-3.32028
2.31334
1.10338
-3.41672
3.39816
-3.40964
5.83551
-0.652131
-5.18338
2.64283
-1.74557
-0.897257
4.68888
-2.54802
-2.14086
-0.468029
0.884947
-0.416919
-0.702206
5.75082
-5.04861
5.13003
-1.53733
-4.11632
0.105503
4.01081
-2.6122
1.8571
0.755102
4.54555
-2.10739
0.689329
1.49459
-3.08343
3.72608
-0.642651
-4.35755
5.09509
0.0330965
-1.20502
1.17193
-0.947683
-0.735761
1.68344
-0.123523
-0.986661
1.11018
3.17962
0.49437
-3.67399
6.90848
-3.49082
-3.41766
-1.20662
1.0831
1.55135
-2.43076
0.879408
0.60119
-0.114644
-4.35686
-2.19571
3.13877
-0.943062
-3.1288
2.32689
0.801913
-0.0315425
-0.261766
0.293309
2.66321
2.02567
-0.153418
-0.28637
0.649049
0.644185
-3.39773
0.314305
-3.73301
4.63858
-0.905567
-3.38331
3.61203
-0.228722
-2.46594
-2.12173
4.58767
0.268047
2.05706
-2.3251
1.99611
-2.1751
0.178984
5.47487
-0.954144
-4.52073
-0.0689009
-3.71803
3.78693
-1.68877
4.00211
0.961399
-2.86081
1.89942
-3.33797
6.9361
-3.75396
2.69443
1.05953
-0.336823
0.334064
0.00275919
2.63957
-6.08672
3.44715
-5.71859
2.23882
-2.55649
-2.66817
7.07932
-4.30621
-2.77311
-1.76716
1.69312
0.939091
-1.00526
0.0661679
-2.68045
-1.12723
3.80769
-4.91913
6.95224
-2.03311
4.87765
-3.84254
-1.03512
0.213439
-1.14242
0.928977
-1.93662
-2.25638
4.19299
-0.0437122
-1.55608
-1.79021
3.24531
-3.78328
-1.08267
4.86595
0.655653
0.153252
-0.808905
0.598005
-2.79371
-2.21191
1.7437
4.17544
-0.289934
-0.879807
0.713286
-1.09161
1.34563
-0.254019
-1.22068
4.4003
-4.53469
2.59808
-0.593251
-0.00768001
0.600931
-3.59821
0.755492
2.84272
1.32001
3.55764
6.43117
-3.7916
4.72659
-7.74781
3.02121
3.27164
-6.88511
3.61347
0.234665
-2.15644
-2.5339
3.52244
3.09027
-4.62432
3.85989
-5.31653
1.45664
-8.72988
4.82608
3.90381
-0.250211
-1.81408
0.96342
0.777988
-1.74141
3.08716
-0.97954
-2.10762
-0.944119
-4.00367
3.30146
-1.33602
-0.462921
3.1252
5.02025
-3.78759
-1.23266
-0.0498369
-0.722224
0.772061
3.09074
0.656488
-3.74723
-0.824847
-1.99153
2.81637
-2.27484
4.75415
-2.47931
-2.38839
3.52228
2.9537
-1.9923
-0.659755
2.34589
-1.68613
4.88226
-2.60899
0.630606
-0.0629693
-0.567637
-1.08078
-1.12323
2.204
-0.749377
0.784576
-0.0351994
6.84746
-4.16472
-2.68274
1.45554
-6.37467
-0.835435
0.0860588
-4.07178
1.20463
2.86715
7.29807
-3.76195
1.14704
-4.88005
7.95828
-3.41436
-4.54393
-0.0999677
0.755621
4.56982
-2.70205
-1.86777
-3.05187
0.571893
2.47997
-4.73434
4.71334
0.0209968
3.80198
-8.03432
4.23234
0.540923
-0.0684251
-0.472497
-2.34591
3.00193
-0.65602
0.203333
1.43475
-1.63808
-0.808215
0.273278
-0.972876
0.174199
-2.71652
-2.12954
1.6522
-4.63495
2.98275
-2.63465
2.56778
0.0668699
2.01626
0.959863
5.04055
-1.18066
-2.37742
1.42974
2.57966
4.71841
-2.57129
0.224427
2.34687
2.21117
2.35865
2.02249
0.286343
-2.68144
0.0467927
-1.52087
-0.267087
1.78796
0.124545
-0.461368
-5.05397
2.77914
1.46935
-3.01721
1.54786
-4.6049
4.43259
0.17231
-1.77013
1.94908
-0.178952
-0.841315
-0.658426
1.49974
3.74139
-4.18812
0.446732
-4.97592
-3.75396
5.87569
-3.62842
-2.24727
-0.579595
0.529758
8.22391
-4.42193
-3.05888
4.71108
-3.52482
1.70461
1.82021
4.69446
-1.45156
-3.2429
5.08791
-1.77145
-3.31646
-1.85431
-1.67052
4.25734
-2.57985
-1.6775
-0.965456
4.03677
-3.07131
-2.35622
-2.48404
4.84027
0.377351
1.73352
-2.11088
-1.01828
-0.170163
1.18844
5.97035
-5.55414
-0.416216
-3.91377
-2.83409
3.02613
1.99412
-4.18628
-0.418627
0.98686
-2.06764
1.77421
-3.92424
2.15003
0.0143235
0.924768
-2.68169
5.56306
2.91219
3.93527
7.62022
-4.55374
-3.06648
-5.42717
4.3445
3.19143
-5.54373
2.3523
-3.10304
-0.321449
3.42449
-1.74563
-0.620721
2.36635
2.27979
-0.728443
-0.364232
-0.229019
2.53989
-0.50057
-1.95468
-2.64144
4.08314
-1.4417
-1.32018
0.228571
-1.55872
0.898966
0.536639
-5.27098
1.53889
-3.92728
1.07827
-1.25352
1.60371
-0.350192
0.194953
-0.771718
-2.34159
1.65041
0.691182
1.81261
0.643975
4.83836
-2.71719
-2.12118
2.35733
0.674284
-2.06781
3.84202
2.87725
-0.411398
-1.10501
-2.4932
6.00031
-5.4058
-0.594515
3.71092
-4.43138
2.24488
2.1865
3.92684
-4.38928
0.462442
-2.32525
1.78349
-0.7884
-0.199849
-0.660394
-2.32677
1.69497
-2.79163
1.09666
2.07664
2.1807
3.06577
-5.33067
2.2649
1.45488
-2.78679
1.33191
-4.89406
0.891431
0.174569
1.89125
-2.29896
3.24631
-0.947353
-1.12959
1.5441
-0.414508
-2.50622
0.21553
-0.626954
-1.25324
1.88019
0.562119
0.00735644
-0.569475
-1.43608
-1.17612
1.748
2.30457
-4.05257
4.27008
-2.05891
0.946338
-2.27675
-0.0485062
2.50688
-1.052
-3.21968
-0.534285
1.69916
-1.41253
-0.286627
4.54074
-1.20766
-2.51139
3.79672
-1.28533
-0.663083
0.770375
-0.107292
3.10823
-0.0210627
-2.12807
-1.79617
-2.59896
4.58485
-1.98589
2.74452
-5.26818
2.52367
2.83461
3.04108
-0.155616
0.0853481
0.0702682
0.568231
-3.67127
2.93189
-4.36765
1.43576
0.272032
0.463102
-0.548352
3.20045
-1.99089
3.52978
-3.30592
6.57756
0.985085
-5.05167
-3.44358
1.85212
1.59146
3.29267
-0.648917
-2.64375
4.71235
-0.970957
-3.36557
-2.47841
-2.1007
3.45549
1.97788
-0.560112
-1.41777
1.63807
-1.60041
-3.72703
3.17867
4.88889
1.35115
-3.9466
1.4352
4.92816
-1.90203
-1.81851
1.69349
0.125023
0.0999928
-2.94084
2.84085
-4.50345
0.803164
3.70028
4.2475
-4.2475
-2.20096
4.25125
-2.05029
1.74896
3.0894
3.02125
-1.79002
-1.23123
-4.73898
4.9305
-0.191526
1.81522
-0.133262
-1.68195
1.40796
-0.522556
-0.8854
0.637145
-1.47846
1.5903
1.98925
-5.04814
-4.03672
4.72572
-0.689002
-1.48211
3.23011
-0.194483
0.172681
0.0218015
0.672207
-2.06434
1.39214
-1.91494
2.1496
7.68682
-5.84202
-1.84481
-0.4789
-2.49147
2.97037
-1.24648
1.35184
-0.105361
0.742783
-1.39919
0.656412
-4.06843
1.79999
2.26844
0.646475
0.462826
-1.84172
0.0232107
-0.411016
-0.087396
0.498412
3.64329
2.32706
0.258382
-0.452865
-0.373288
-1.23129
1.60458
-2.5903
4.07148
-1.48118
0.200893
1.09705
-1.29794
1.91677
-1.57436
3.07244
-1.2414
-1.83105
0.177519
-2.16636
1.78681
3.68806
2.27957
1.35662
-3.63619
2.40228
-1.99223
-0.410048
-5.06524
0.948919
-1.86931
0.845158
1.02415
2.30239
4.18135
-6.48374
-3.23281
2.91137
0.365862
-4.54388
4.17801
-0.704152
0.917591
-0.166992
0.206906
-0.0399141
0.238454
-1.75933
-1.19764
0.56221
0.635433
-3.25035
-0.821423
3.03811
1.54587
-0.798168
-0.747704
-0.703381
0.0402979
0.722846
-3.45373
2.73089
1.34843
2.42517
-3.77361
2.52558
-3.46472
4.18771
-0.72299
-3.67526
2.7098
-0.0353446
-0.32934
-1.89169
-1.23711
-1.38428
0.343697
1.04059
-4.38772
1.79741
3.23023
-3.70913
2.31335
2.61481
-1.76919
1.62738
0.141809
1.24279
-6.96693
5.72414
0.866381
-1.43604
0.569663
1.77711
-3.90518
-3.06758
-0.315732
-1.67694
-0.0302034
0.711086
-1.49102
0.779938
2.7109
-0.113797
-0.0972266
0.211024
6.28148
-3.97909
-2.39723
4.15364
-1.75641
1.37766
0.96036
-2.33802
-1.75122
1.04707
-1.18169
-0.202587
1.76324
1.25802
-1.33351
-2.69751
1.13725
0.561909
3.02742
2.17769
0.699565
-4.50141
5.34744
0.441285
-2.04204
1.60075
-0.458217
-4.11924
4.57745
-0.934325
1.1077
-0.173373
-2.56888
2.83693
-4.0837
1.72748
1.82826
0.814567
-1.90691
-0.434686
0.0110295
-2.13479
2.12376
1.98948
-4.45542
-0.49838
-2.24819
2.74657
-1.00962
1.56524
-0.555617
-3.19102
0.103767
3.08725
4.25927
-3.52897
-0.0382206
0.486989
-0.448769
-1.14899
-0.0974887
0.893335
1.88018
-2.77352
0.81544
-0.97838
0.16294
2.93806
1.60508
-4.54314
-1.42149
5.20467
0.550446
0.011673
-1.90987
-2.96638
4.87624
1.72753
2.73207
4.57366
-3.22522
-1.85755
1.2306
-1.10288
0.0845996
-2.20097
5.39239
0.576424
-3.78234
3.20592
3.87695
-0.621121
-3.25582
-2.15071
3.23185
-1.08113
1.9196
-1.97656
-1.66988
3.64644
0.728247
-0.35897
-0.369277
-1.37189
-2.46098
3.83287
-1.57278
2.24499
0.255547
-0.287089
2.57775
-3.94964
-3.46499
-1.13344
4.59843
-0.206425
-2.51759
2.72402
-0.624385
6.40231
-6.65216
0.24985
1.07644
-0.635803
-0.440639
-0.129161
-1.64003
1.27039
1.26022
-1.73617
-0.0094575
-3.90648
4.9483
-1.04182
-1.17888
2.64823
0.772291
2.62587
-4.87592
-1.3516
0.106701
-0.926009
0.819308
2.653
-0.475315
-1.10366
1.20438
-0.100714
1.88939
-1.68606
-5.8688
3.31231
4.41433
0.987571
-0.527091
1.26987
-1.0572
2.43486
4.92324
-2.93399
-1.1222
0.0185367
-0.663096
-3.06393
0.988056
1.28125
-1.24815
-4.62682
0.12337
-0.548594
1.11953
-0.253151
-3.54339
2.09154
1.45186
3.38576
0.690208
1.01452
-0.343896
-0.670625
1.58339
-1.39257
-0.190828
-3.84392
1.42068
-5.10307
2.5041
2.91393
-1.5971
-1.31683
-0.0053536
1.01022
-1.00487
5.07768
-0.00874535
-5.06893
1.10049
0.0946203
-1.19511
-0.75886
-1.35993
1.22279
-0.134026
-0.380203
0.30616
0.0740425
2.11735
-0.147219
-1.97013
-0.140894
-0.239309
3.6472
-3.22518
-0.164298
-0.743051
0.90735
-5.0289
1.12242
0.167072
-0.537359
2.12439
0.627455
0.918416
-0.471876
-1.90555
1.18623
0.948651
-2.13488
0.97245
1.69825
1.94306
-1.50178
1.17537
-1.0331
0.449394
-1.57898
2.50053
0.847318
-3.34784
2.79126
-0.327758
-2.46351
-0.363686
-1.38189
-1.86954
0.496007
1.37353
1.73642
-1.95284
0.216413
5.35482
-0.121123
-5.2337
-1.67669
0.936916
0.739773
-2.53557
3.41389
-0.878328
2.97949
2.98169
-5.96118
2.32344
-2.7274
-1.50892
2.26087
-0.751943
1.10915
0.525074
-1.63423
-6.32045
5.31953
1.00093
0.257377
0.0487835
-4.25292
0.787936
1.62958
-0.984791
-0.644789
2.25108
-2.9355
0.684419
-0.475215
-1.01127
0.766769
5.63554
4.13712
-0.77829
-3.35883
-4.08813
0.623409
1.69574
-2.80074
4.50319
-6.75086
2.24767
-0.54605
1.50947
-0.0400205
-1.82749
1.45421
-0.823738
1.13546
-1.15329
-4.56976
5.72305
3.99039
4.23352
-3.63655
3.90287
-0.26632
1.3297
-0.618612
-2.70911
-1.11408
-0.626679
0.693812
-0.0671332
1.01085
1.36206
-2.37291
-0.893339
2.49303
-1.59969
-0.412162
2.66324
-3.59163
-0.129388
3.72102
-3.98048
-1.20829
5.18877
2.26067
-1.8085
-0.45217
-1.39983
0.0969999
1.30283
0.53356
0.260367
-0.793926
-4.77024
0.26295
4.50729
0.131857
0.993506
-1.12536
3.81735
-4.32259
0.50524
-2.39007
-0.0616067
3.79701
-3.7354
0.0455642
-0.672243
1.11704
-5.45055
4.33351
3.47965
-6.81762
-4.72945
4.13275
0.596704
0.985846
-0.170407
3.65911
-2.88682
-0.330007
-1.06406
1.39407
-0.0720263
0.981054
-0.909028
-0.707868
4.17123
-3.46336
3.45838
-1.63491
-1.82347
4.96796
-4.76999
-0.197969
3.50966
-1.33779
-2.17186
0.221172
-1.18972
0.968545
-1.51216
-0.100285
-5.00334
4.37667
0.626669
0.255251
-5.25859
-1.69932
2.12332
-0.424006
-2.4005
-3.15364
1.01805
-0.851676
-0.16637
-3.93549
-1.09341
-0.963901
0.653668
0.310232
-2.32761
1.50276
-4.73574
4.50603
0.2297
-0.90586
-0.0962361
-0.465643
1.20071
-0.100222
-2.85974
0.513825
0.759033
-0.869977
0.110943
-0.00248614
-0.423084
0.42557
2.03096
-0.215744
-1.09182
2.8096
0.29863
1.77216
-0.2312
-0.00961355
0.240813
-0.5127
2.50881
-3.17875
2.09263
1.08613
0.372801
-0.115424
7.6396
-3.64921
6.12357
-4.88078
-0.982617
-0.819594
1.80221
3.37398
-5.60346
2.22949
2.84797
-3.05439
4.41923
-2.06455
-2.35468
-0.0285924
-2.71415
-0.464603
-2.54795
4.33556
-1.78761
-0.176046
-1.83929
6.56588
-5.13715
1.20166
1.64439
-1.26704
-0.524687
0.904246
0.809152
-0.0245762
-2.3574
-2.21583
7.0691
-2.7184
-2.88821
1.73627
1.15194
0.295046
1.11291
-3.12912
-2.41374
5.54287
1.09864
1.18115
-0.010424
-0.742849
0.753273
4.1124
-0.846507
0.501415
0.345093
3.34263
-0.842102
-1.66703
-4.82645
0.789729
-1.15751
0.0722805
1.08522
3.26628
4.692
0.46868
-2.24048
1.7718
4.76709
0.200873
3.05446
-4.28014
1.22568
-4.0192
-0.0433905
4.06259
-4.06732
5.20442
-1.1371
0.715069
-0.0129095
-0.70216
-3.05924
6.53889
-0.548607
-2.43581
2.98441
0.232848
-3.8694
2.08074
-1.25099
-0.829752
-4.60147
6.05657
-1.4551
-1.05963
2.76974
-1.71011
5.79871
-2.56702
-3.23168
0.0619275
-2.93286
2.87093
0.22181
-0.0149039
-2.36593
5.34541
1.90039
-4.10135
5.15595
-2.41143
-0.94664
0.782341
-4.20197
0.182766
5.58242
-2.51666
0.0521191
-6.38253
1.47321
-0.0214849
2.18225
2.60667
-4.78892
2.73173
-0.723081
-2.00865
2.18732
-4.27166
2.08434
-0.959864
0.0484993
0.911364
-0.962046
-2.46588
3.42793
1.76309
-1.31369
-0.806809
0.0601466
0.746662
0.614993
1.21075
-1.82574
0.396266
0.62178
-4.86693
5.77922
-0.912295
-1.05708
0.122758
2.29098
1.02748
-3.31846
2.27465
4.54319
-6.81784
0.891598
2.40107
-0.171173
6.00668
-0.0733415
3.95504
-3.8817
0.210612
-0.00971812
0.577926
-0.208953
-0.368973
6.84781
-4.34147
-2.50635
2.12003
2.29919
-0.59941
0.767316
-0.167906
-1.31597
3.91538
-2.59941
0.0265643
0.849455
-0.876019
4.42639
-5.72712
1.30073
0.904327
-3.16932
2.265
3.93149
-0.840744
1.36946
1.36228
-2.31901
0.339505
1.97951
1.47033
-3.9618
1.63625
-2.87901
1.24275
0.93599
-0.292663
-0.643327
0.306418
-0.084608
-0.32215
4.00153
-3.67938
-1.14606
5.74586
3.75053
-3.11636
-0.634171
3.23179
-2.65785
-2.47867
0.875987
1.60269
0.312323
-2.10234
2.11701
-0.909129
-1.20788
0.316869
0.697652
0.761331
3.62086
-4.38219
1.29526
0.822084
0.643319
-4.6238
-2.37797
0.447435
1.93054
-1.76539
-1.07963
2.84501
2.49202
-1.30579
-4.16539
2.68328
1.58384
-1.18353
-0.40031
-2.0492
4.74346
-2.69426
-2.15132
2.32883
-2.50764
2.36127
0.146375
-2.76376
4.85383
-2.09007
-0.0979639
1.1042
-1.00624
-1.26658
1.26123
-0.890138
-2.72712
4.55488
-1.82776
-2.74534
3.50083
2.45521
-2.6283
0.173084
0.793397
1.84659
-2.63998
-6.04168
3.83613
2.20555
0.318863
0.00484077
-0.323704
0.881595
3.39387
-4.10174
5.3663
-1.99232
-1.31617
-2.1274
-3.54701
3.47367
2.30809
0.018806
1.67993
0.614949
-2.29488
-1.71518
1.55877
0.156408
-2.82185
2.16332
0.65853
-2.46847
-0.267514
2.73598
0.605649
2.08256
-2.68821
-3.38356
-1.28087
4.66443
-1.65443
2.44783
3.95622
2.89159
-4.52936
2.67366
1.8557
-3.15628
0.972538
2.18374
0.0378087
0.922405
-1.18688
0.264471
-2.3409
-3.87023
1.40176
0.704645
1.02248
-0.801304
-0.93523
1.94608
-0.79575
-2.95749
0.116243
1.46601
1.74305
-1.60632
-0.136723
-3.72553
-2.68051
6.40603
-1.10954
-1.20947
-2.41269
-0.420829
2.83352
0.427528
1.13343
-1.56096
0.128837
5.5012
-3.5244
-1.9768
0.947544
3.18957
0.547922
-1.31214
-1.5838
2.89594
-4.77011
5.51334
-0.743229
-2.6365
-1.23175
3.86826
-2.32591
0.816982
-1.81515
-0.663525
5.50971
-2.37804
-3.13167
2.27732
-0.34475
-1.93257
1.72976
0.381173
-2.11093
-0.853404
0.985261
0.705332
-0.514055
-0.191277
-0.588496
-0.158458
-1.04817
-0.0541966
3.28436
2.22535
-1.73511
4.4522
-2.54565
7.04738
2.31377
-0.0364492
-4.05675
1.42024
3.64777
-3.07953
-0.567634
-3.18509
0.649529
0.410673
-2.10999
3.36966
-3.26967
4.12038
-0.193541
-0.998906
-0.589863
-1.05131
-0.479577
1.53089
-1.51867
-0.211671
3.75708
0.653815
-4.41089
0.00528216
-1.24484
1.23956
-0.590873
2.3566
-4.5393
2.1827
4.1424
-0.325056
-5.36014
6.11957
-0.759428
1.04837
-0.752032
-5.01092
-1.03076
-1.38132
4.48509
-0.108417
2.87404
5.25089
-1.87411
-3.37677
-3.05264
-0.151438
3.20407
1.45223
1.95021
-3.40244
-3.50288
0.311863
-0.897844
-0.473909
1.37175
-2.35238
2.92881
0.733173
2.42604
-3.15922
-0.123615
-0.411697
0.535312
-4.61977
0.629619
3.99015
2.86879
2.49751
-1.34167
2.47362
1.03603
-1.20881
-0.660502
4.64973
-5.30186
2.60849
0.190498
-2.79899
3.01016
-0.686726
3.32731
0.134841
-3.46215
4.44771
-6.99336
-0.06986
0.610783
-0.320868
0.783304
-0.462435
-4.40017
5.51721
-0.154291
1.48432
-1.33002
-0.484732
1.01163
-0.526896
-2.38343
-0.185447
-1.30289
2.99863
1.16126
1.75267
-0.768654
0.814219
-3.07256
1.08104
0.617722
-0.686147
-0.990436
0.940517
0.049919
1.01338
-1.1506
0.137224
-2.60246
2.81464
0.592028
-3.00472
-0.286184
-1.48098
-0.0573779
2.81449
-2.75711
1.6157
-1.88278
0.11441
-2.87371
2.7593
-0.869187
3.8049
-2.93572
1.33625
-3.97769
-3.16645
-0.110029
-4.61942
2.68204
4.38706
-3.57266
-0.592731
-2.39104
-2.04034
-2.0937
0.840466
-0.410518
-0.720406
1.13092
7.07291
-3.80663
3.80438
-0.87249
-1.17542
-0.753339
1.92876
-5.94847
3.15
2.79847
-2.18178
2.1008
-2.92331
2.8617
0.801546
-0.464799
-1.43063
-2.65658
2.10797
2.54991
-1.97721
-0.572699
-0.602
4.35908
-1.87934
2.09225
-0.212903
4.02198
-6.03245
2.67472
3.35773
0.745059
1.3141
-2.05916
2.80495
-0.838074
-1.96687
-2.6166
1.55696
-3.25768
-0.0990948
1.82885
4.40536
-4.86358
2.03957
-0.930417
-1.8715
3.34183
-4.31952
3.08369
1.23583
4.6771
-6.05255
1.37545
-3.34518
3.65085
-0.305673
1.84418
-2.35688
0.0548499
0.984222
1.27645
1.31993
-4.18557
1.97794
-5.45222
3.53956
1.91265
1.07784
-4.13048
2.74963
-0.109609
-2.94226
0.584832
1.28257
5.1075
-1.77524
-3.33227
0.00648218
1.1569
-2.92229
0.785598
-4.5183
4.36686
-3.297
1.32044
2.28619
-3.09245
1.47969
1.61276
-4.36835
2.52912
1.83923
-0.698071
0.367086
-1.37671
-4.86015
3.45032
1.40983
3.50901
-6.56825
-4.87313
0.00619977
6.63082
-2.12763
0.75053
0.43295
-1.18348
-0.128027
-0.760675
0.888703
-0.527644
2.06715
2.5736
-1.65062
-1.44183
0.722529
1.04056
0.983555
1.80851
-2.79207
1.90226
-1.12427
-0.115562
-5.09481
5.21037
-1.6235
1.69675
-3.38552
-3.54032
-2.41623
5.95655
1.14763
-1.65646
-3.34741
1.01037
2.33705
0.659152
-0.0783766
-0.580776
4.85408
-6.00737
1.01166
-1.33253
2.83131
4.09688
-6.92819
-2.35215
-0.536059
-4.01741
1.14806
2.86934
-2.20447
3.1088
0.207217
-4.97733
-0.240168
2.84866
0.801062
-0.14191
-0.114281
3.99123
-2.88847
3.72524
-0.836767
4.12141
0.0173756
-4.13878
-2.54244
-0.0909176
-1.1626
0.205539
4.04197
0.609534
0.16084
1.42183
4.71498
-2.96601
2.43457
-1.0658
-1.75605
-4.43393
-0.301801
-3.76862
1.29217
-3.99422
0.828752
0.957546
-1.7863
4.20139
0.205443
-4.40683
-0.534628
0.521718
-1.66918
-3.43389
-3.72677
-0.662505
-2.60518
7.05289
-1.61695
2.2552
-0.638249
-5.2538
1.52827
-1.43273
2.41629
-1.65095
-1.89245
-3.74079
-1.32599
1.50498
-0.182124
0.179638
5.20832
-0.723234
2.84791
-1.06025
-1.78767
0.338176
2.00771
1.2661
4.87315
-4.50729
-0.116077
-1.10718
1.60719
-2.32076
2.54519
-2.23262
-2.53701
1.11006
0.801027
-1.91108
-4.31986
0.0723591
-0.664817
3.72409
-3.05927
0.0529518
-5.41309
-3.12962
3.78611
7.18945
-3.53433
-3.65512
-0.478658
1.32382
3.30675
-1.61635
-1.69039
1.27335
-1.4318
0.142848
0.435078
-0.722961
-0.0649575
0.787919
-0.571048
2.25098
-3.0036
6.51261
-0.108075
-0.743601
-1.33168
-0.431447
1.76313
-0.345411
5.19949
2.29085
0.384299
-2.67515
-1.8608
2.75413
1.91797
1.99741
-2.17738
-0.200591
2.59263
-1.00235
-1.59028
-0.366498
0.498973
-0.132475
0.667736
-3.58414
2.91641
-4.45795
0.731175
1.08353
-2.7102
4.00237
-0.068372
1.34172
0.63447
-2.25142
-4.37982
2.27912
-4.90268
1.41186
-2.1966
0.281658
-1.78572
-2.64175
4.42747
-3.82475
-0.0806375
-0.511978
0.592615
4.70483
-3.78901
3.58624
-2.134
0.590105
2.5861
-3.17621
0.82949
-1.72733
-2.30759
-1.66328
3.97087
1.77243
-2.47872
0.706291
-3.59558
7.17983
-3.58425
3.264
-2.33669
-0.927314
3.48626
0.123243
-3.60951
-2.54256
-3.48988
-1.51702
-0.159924
2.01437
2.88995
-0.0629543
0.466731
-0.403777
-3.20668
-0.810725
3.25327
2.70322
-2.56881
3.12277
-0.553959
-0.78171
1.28312
0.190947
1.76442
-1.95537
0.194259
-2.0736
-0.489494
-4.37066
-4.44531
1.50999
0.0738502
0.424292
-2.6362
0.397095
3.41571
-3.8128
-2.39413
-0.465612
2.22553
2.04455
0.336981
-1.27796
1.92943
-1.02906
-0.900367
0.12902
-1.61795
1.48893
0.532647
1.41644
1.86021
3.9796
-1.90296
3.72397
-2.02723
-0.546076
-1.21878
1.76485
3.52508
0.511685
0.0247025
-3.21434
2.25229
3.4966
-3.84201
-1.52156
-4.51918
6.04074
-2.65883
-3.28964
-5.34123
5.43143
-0.0901998
1.83074
-1.63715
1.15757
2.60249
1.37711
-1.55573
2.76099
-1.20527
-1.34347
-2.79858
-1.41203
-2.43527
3.8473
2.23785
-1.13921
3.02923
-1.39298
2.64573
-4.31491
2.04871
-1.67204
-2.43831
4.22528
-1.78698
4.04402
1.98582
1.54912
-3.53493
5.1759
-2.72735
-2.44855
-4.69227
-2.84746
5.04005
-2.19259
1.17554
1.67237
-1.40677
1.3384
2.02271
3.77599
-1.03252
0.904489
0.170241
-0.284038
4.49231
-2.52497
2.37918
4.69373
-1.96995
1.03946
0.930488
1.0134
-1.99601
3.45411
-0.1268
1.6578
-0.907274
-3.0282
-0.559175
3.58738
0.896058
-0.142273
-0.753786
0.721471
0.354971
0.631657
-4.69898
-1.36609
1.60454
3.14262
-2.86606
-0.276562
0.835659
1.75697
-0.712648
0.368752
1.33609
0.965273
-2.30136
-1.01362
5.59492
-1.14273
-2.58739
5.13597
-2.54858
-1.15449
1.76948
0.816016
-0.939631
5.07869
-2.55285
-1.63342
1.0771
1.72785
1.45317
-1.73935
-0.878519
0.780555
-1.33326
-0.686035
-0.0173457
-1.34106
-0.799984
3.84008
-3.0401
0.00252824
-0.413544
-1.5653
0.501238
-1.57453
0.0575089
-5.07574
3.16588
1.24817
1.0127
-2.44132
2.46679
-0.0254711
1.0008
0.507593
3.70262
2.06495
-5.76757
-0.502415
-0.0865455
0.58896
0.968982
-3.36621
5.1172
2.07225
3.65391
-3.25681
-5.04843
-0.53944
-0.223651
-0.152559
2.14235
1.80455
1.69207
-3.49663
1.94008
-0.324384
-0.149132
-1.51767
-0.452279
-2.35244
-1.91579
2.22812
2.24994
1.9037
2.5436
-2.56293
0.0193365
0.917547
0.0229698
-0.306385
1.19232
-0.178945
3.52709
0.912956
-4.44004
2.5364
0.0135137
-1.07114
0.64534
0.425798
-1.62874
-0.0655766
1.69432
0.801738
2.46611
-3.26785
0.963598
1.52842
3.17441
-0.106981
-1.24332
1.49819
3.21679
-0.208505
-0.336319
0.544824
-4.94793
2.27976
3.92774
-3.04534
-0.882393
0.0844991
-0.699104
0.614605
3.8411
-4.16325
2.76994
-0.532093
2.14311
1.44312
-0.627906
-0.058129
-0.926992
-0.101911
1.0289
-2.0011
-0.597597
4.99039
-2.56441
-2.42598
1.9991
0.0949141
-2.09401
2.03977
-3.26381
1.22404
-0.579064
2.30952
0.197354
-3.85757
6.25257
-2.39499
-1.03195
0.104963
-2.30383
2.21307
-0.120828
4.39054
-0.00967087
-4.38087
-1.05002
0.947165
0.795883
0.857187
-0.0898712
0.382694
0.40061
-2.75101
1.85767
0.170986
-0.406975
-0.528441
0.549545
-1.87374
2.46385
0.0356683
1.24558
1.36931
-0.859422
2.87569
-0.160815
2.70441
-1.14265
-0.565369
-0.945778
2.28186
-0.299655
4.03287
-3.73322
-3.6601
-0.592828
-4.56201
6.18236
-1.62035
0.0564396
2.15664
1.5043
-0.267782
-0.0728066
-1.16178
1.23458
-3.80411
1.25126
0.582578
-0.620799
2.82437
-5.95349
2.2993
-5.26568
-4.62456
4.77765
-2.25059
2.36203
-1.39675
0.0468709
-2.66623
3.33396
-0.0114695
-0.710755
0.514746
-2.32324
-0.536347
-2.72591
3.26226
-2.77598
2.78993
7.11818
-4.75471
-2.36347
-0.983647
0.402349
1.09377
0.0927254
-1.1865
-3.68191
0.793437
0.868261
0.0677292
-0.0435488
-0.589975
0.633524
2.12149
-6.6835
0.452306
2.02103
0.221107
-2.24213
-4.60476
4.3051
0.704099
0.166455
-0.870554
1.85043
-4.57755
-0.654806
-0.0180651
0.672871
0.91754
-0.213441
-0.044524
3.30203
-2.41044
2.65114
2.30136
-1.33776
-5.0792
1.53888
-2.96442
2.5027
0.461718
4.12508
-5.64664
-2.34079
-1.30387
3.64466
-0.0464595
1.90356
-1.38553
1.25227
4.93796
-0.775564
-4.16239
-0.00931284
-4.42462
3.1728
0.313467
1.67474
1.63201
-0.720962
-0.0218866
0.69437
-1.08813
-1.7035
0.412829
-0.280923
-0.131907
0.0324202
-4.43432
4.4019
-0.588979
1.72054
-1.13156
2.4386
-5.05924
2.62064
-0.335539
-2.45383
-0.155485
0.315603
2.98295
-1.60898
-0.824303
2.43328
-1.63422
-1.61614
2.03695
-1.23593
1.34614
0.957915
-2.30406
-0.902191
-1.53912
-3.71962
-0.508326
-0.250752
0.759079
1.01719
0.76167
-1.77886
1.72074
-3.64092
1.92018
0.243967
-2.51476
0.80224
-5.40371
-2.72089
-3.80487
6.52576
-4.22844
0.167511
4.06093
-5.2965
-3.56065
0.215472
-1.43233
1.40908
0.0232464
-6.91138
-1.47318
5.00026
1.77136
-0.822708
0.510626
-1.4564
-0.63561
2.16403
0.683085
0.44126
-1.77294
0.0815957
-0.761272
0.679676
-0.594834
0.126805
-0.495476
0.579975
-1.41956
2.16462
-4.59818
2.64115
1.95702
-0.0283103
-0.335922
2.35137
0.920254
-0.0241957
1.07803
-2.63375
-2.19391
-1.1535
-2.46823
0.785789
1.68244
-0.571154
1.71503
-1.14387
-2.01014
2.13916
-0.406036
3.24875
4.20957
-1.91872
2.19577
-3.82999
1.93643
-2.44621
0.509781
0.516742
-0.0297524
0.0596487
0.0256995
-4.40182
2.6161
0.118064
1.88103
0.0568894
-0.91659
0.8597
-7.06566
2.70812
1.26699
-2.39021
-0.870007
-0.101205
-0.981811
1.08302
-2.52243
0.91345
-4.61797
4.12847
7.00746
-4.17615
-1.22605
1.14128
0.0847733
-0.563869
-0.36214
-0.698355
-3.07689
1.29796
1.77893
-0.66535
0.578804
-0.151644
1.59765
-1.446
1.73459
1.03534
0.7173
-0.377418
-0.339882
-1.29844
1.3341
0.579172
-0.30714
1.93014
-4.21532
4.45647
0.310618
-2.53857
-0.402164
4.13908
-0.150782
-3.98829
-0.863403
-1.31529
2.17869
2.13061
-4.48802
-3.0682
3.66998
-0.601787
0.0158945
-0.250125
0.23423
-5.31821
5.4114
-0.0931932
-1.66342
1.77783
2.5704
0.887976
4.71882
-1.79906
-2.91977
0.412361
0.293964
-0.706325
-0.516077
-1.46817
-0.0439898
-1.38645
-0.0817232
0.246283
-1.46582
1.21954
-0.442248
4.19772
-3.75547
-3.53762
1.16024
2.37737
1.15492
3.92276
0.111932
0.221702
-0.333634
2.55769
1.0763
-3.634
0.767172
-1.17769
-1.83394
4.03484
-2.2009
-3.59321
0.565005
2.85087
1.15414
-3.49493
-0.0147143
-0.567325
0.582039
4.7917
-1.76819
-3.0235
2.3912
1.03139
-4.72352
2.50768
4.66189
-4.77745
-2.21946
0.406939
1.81252
-0.504573
1.04503
0.680839
-1.72586
0.988051
-0.665005
-0.323045
-0.049225
0.580186
-0.530961
1.38453
-1.49681
0.112288
-2.48923
5.13495
-1.32639
1.33742
1.21162
-1.36327
1.49518
-2.49092
0.995748
-2.4615
-1.85802
0.693882
-0.160323
-0.193597
0.0408344
0.152762
4.36534
-2.01389
-2.35146
0.355174
2.78745
-1.07918
-0.635992
-2.56186
0.427065
2.25632
0.698829
-2.95515
0.0476321
-0.0985691
0.050937
-0.0470606
1.63045
-0.0175934
-0.668685
0.686279
7.06152
-3.15432
-3.9072
-5.88365
1.31389
1.10324
-4.84932
-0.888637
5.73796
1.50647
-3.49737
-1.96482
1.42746
0.16452
-0.104871
-0.812373
4.39043
-3.57806
0.672536
0.12901
0.38333
1.28916
-1.06645
0.958373
-0.898708
1.83562
-4.33727
3.72994
0.607334
2.75677
-1.89352
-0.863244
2.47704
-1.94439
1.09187
0.259972
-1.07466
0.875662
-0.245926
-1.58742
1.60085
-3.23575
-6.15815
2.30058
0.525866
-0.265499
0.625922
0.291617
0.0605307
-0.0446362
3.74559
-3.87069
0.125107
4.25699
-2.12756
0.957606
1.16995
0.45918
-1.56636
-1.86564
-3.96415
-1.09948
0.957208
-0.718734
-1.26916
1.9879
-3.56072
0.815383
1.00331
1.38607
-2.38938
-0.152938
1.92537
-0.843182
-2.5057
7.04888
-0.00311697
-3.23978
0.959279
-2.31463
1.35536
-1.22185
1.55884
-2.88046
-4.1852
-0.730928
0.246196
2.70832
-4.10847
1.94108
2.16738
-0.139172
-1.4328
0.178958
-1.66288
1.48392
-4.97864
-2.76917
-0.729669
0.711604
4.06217
2.369
1.49455
3.04619
-2.99611
-2.27207
4.00724
-0.266708
-3.74053
3.52583
-4.32158
5.00557
-3.78021
-1.22536
1.42932
0.81217
-2.24149
-2.11818
3.13416
-1.01597
-7.05231
3.72128
3.33103
-0.205438
1.10809
3.56499
-2.498
-2.90396
5.40196
3.57759
-2.07112
-3.19961
-0.303277
2.3804
-0.666823
2.24936
-1.58254
-4.1696
6.29108
-6.41796
0.354341
-2.90458
2.55024
1.93836
-3.11997
1.18161
3.52247
-1.37935
0.103271
0.741978
-0.845249
-0.843623
-1.81295
2.82441