/*--------------------------------*- C++ -*----------------------------------*\
| =========                 |                                                 |
| \\      /  F ield         | OpenFOAM: The Open Source CFD Toolbox           |
|  \\    /   O peration     | Version:  2306                                  |
|   \\  /    A nd           | Website:  www.openfoam.com                      |
|    \\/     M anipulation  |                                                 |
\*---------------------------------------------------------------------------*/
FoamFile
{
    version     2.0;
    format      ascii;
    arch        "LSB;label=32;scalar=64";
    class       volVectorField;
    location    "2";
    object      U;
}
// * * * * * * * * * * * * * * * * * * * * * * * * * * * * * * * * * * * * * //

dimensions      [0 1 -1 0 0 0 0];

internalField   nonuniform List<vector> 
13486
(
(7.63277 -1.27316 1.61558e-20)
(8.51373 0.978779 8.76725e-21)
(13.1585 -0.117574 0)
(-8.83957 2.26794 -6.63643e-20)
(12.5178 -1.22555 -1.62492e-20)
(11.715 0.902673 -5.38928e-22)
(12.6906 1.41802 -9.60991e-22)
(10.788 -3.52841 5.61673e-21)
(10.0929 -1.76368 0)
(9.64164 3.02634 0)
(0.87042 12.1375 -2.00027e-20)
(11.7338 -0.473599 0)
(6.82779 -2.24311 -1.59322e-20)
(11.4869 3.23284 5.37608e-23)
(11.921 0.316364 -7.89707e-21)
(9.57951 3.19041 -6.71019e-21)
(8.56772 -5.33464 1.44152e-20)
(0.405529 -1.70155 2.418e-20)
(10.734 -0.139162 1.43631e-23)
(8.42231 -0.512855 -1.59364e-20)
(-15.9159 1.30419 -4.26332e-20)
(6.92556 -2.31387 2.05259e-20)
(8.67317 0.913205 -7.02311e-21)
(18.6032 3.9597 0)
(9.96249 2.43261 2.16952e-21)
(18.3042 3.67594 -3.01956e-20)
(4.39152 0.176745 1.85081e-20)
(15.6351 -0.205465 2.34624e-20)
(9.59138 1.30489 0)
(16.9949 -2.26327 -2.66019e-20)
(-17.5183 3.34483 -3.47561e-20)
(10.5721 0.325184 2.34332e-21)
(16.0474 3.62809 9.62396e-21)
(13.5519 -1.20809 0)
(10.8626 -3.34117 0)
(8.50645 0.120079 2.38797e-22)
(7.95715 -0.777388 -3.8598e-21)
(8.26927 -3.77912 3.95743e-21)
(9.21096 -1.32264 -5.61501e-22)
(10.1969 -1.03304 3.31575e-21)
(15.3766 -3.30968 0)
(6.09367 -2.8507 -1.9913e-20)
(11.5687 0.0882687 0)
(10.0516 2.06251 -1.04958e-20)
(10.082 2.06593 4.27539e-21)
(11.6935 -0.486796 9.90325e-22)
(-1.62635 -12.2602 4.71912e-20)
(9.32062 1.22631 5.20196e-23)
(7.77269 -0.694838 2.92312e-21)
(14.08 0.798668 4.53472e-21)
(9.98709 0.040492 9.62226e-21)
(9.48895 -0.566219 0)
(11.1287 -1.17369 -4.02247e-21)
(8.62726 -3.01018 -6.4851e-21)
(0.658811 -3.40329 0)
(12.221 -1.48136 8.56799e-21)
(11.5895 -1.4894 4.14858e-21)
(9.50869 -0.843731 -2.66182e-21)
(16.7487 4.06166 1.59127e-20)
(8.11002 -1.27634 0)
(-1.89685 17.1882 -2.96068e-20)
(8.24865 -1.392 0)
(11.346 2.64718 1.1359e-21)
(-15.2209 0.999715 -5.37418e-22)
(2.66483 -9.85526 0)
(7.87555 -0.922256 -1.96178e-21)
(-9.91736 3.24479 -5.94629e-20)
(7.50153 -0.0831186 6.1227e-21)
(10.134 -1.91312 -9.30825e-22)
(8.22561 0.0299617 9.4241e-22)
(-9.24467 3.64047 6.86605e-20)
(0.294841 -3.22041 1.06406e-21)
(10.0051 -0.583516 3.51401e-21)
(-2.14885 4.89722 -3.67925e-20)
(7.6649 -1.2975 -4.15976e-22)
(11.3197 -1.3981 -8.48697e-22)
(7.4138 -1.22472 1.76281e-21)
(12.0344 0.322094 3.43918e-21)
(-0.614439 -9.92918 -2.36435e-20)
(9.3745 -4.78836 0)
(8.98234 0.253672 -8.00583e-23)
(8.27058 1.39666 -5.84814e-22)
(10.2761 1.74085 5.2241e-22)
(13.1915 -0.170227 1.02757e-22)
(7.62893 -1.29013 -3.13651e-20)
(7.52823 7.19552 0)
(6.54427 -1.91551 4.10276e-22)
(9.95283 0.155303 -1.51985e-20)
(9.41961 0.676558 -6.84336e-21)
(8.76262 4.2247 -7.98375e-21)
(9.89549 -0.509975 -1.89943e-21)
(11.5305 -2.63835 5.01143e-21)
(7.9909 -1.82318 3.70131e-21)
(8.52189 0.0866287 4.42746e-22)
(9.85527 -2.8045 3.12399e-22)
(9.23614 0.977223 -1.60799e-23)
(2.30615 -0.0442428 0)
(-13.8383 5.85396 3.52655e-20)
(10.107 -0.980947 -6.43714e-21)
(6.69472 -4.82568 5.64833e-22)
(9.04214 0.111705 0)
(11.4226 3.28214 -1.22019e-22)
(-13.9404 5.27216 3.38899e-21)
(9.39936 -0.711833 3.11705e-21)
(6.70716 6.69518 0)
(5.94236 -6.10764 7.88364e-22)
(9.84492 0.0496884 -1.51117e-23)
(9.23684 -1.52953 -1.22486e-21)
(-1.45243 -9.63002 2.95476e-20)
(11.0489 -4.86238 0)
(9.14571 -4.23224 0)
(10.3929 1.3971 7.44461e-21)
(8.73921 -2.94458 2.53903e-22)
(13.8068 1.97381 -2.96438e-22)
(5.72948 -0.633658 0)
(8.97157 -4.21504 8.71575e-22)
(9.89946 2.60662 0)
(14.1504 -1.18221 0)
(9.95821 -0.547707 0)
(7.7342 -0.364087 -1.89239e-21)
(1.96664 -2.14129 -1.01319e-20)
(-3.72718 16.0435 0)
(9.61579 -2.48497 0)
(9.23519 -1.35998 1.80853e-21)
(10.1148 -3.31173 0)
(9.48691 -0.547317 0)
(11.0694 -0.736505 -4.40936e-23)
(10.5464 0.414689 4.6884e-21)
(12.8991 -0.849268 -2.2615e-21)
(7.54775 -11.6139 -6.2994e-20)
(9.34196 -0.476083 -3.393e-22)
(-1.48909 -11.4618 -1.17963e-20)
(7.34273 2.7565 6.36973e-20)
(-2.75704 2.49437 3.83187e-20)
(9.96142 0.0191041 -1.5412e-21)
(9.35622 1.75233 -8.61875e-21)
(5.96058 3.42558 -6.45579e-21)
(10.8735 -4.56159 0)
(7.73943 -0.249596 5.6012e-22)
(10.7222 -2.60967 1.12184e-21)
(15.105 2.63914 -1.08438e-20)
(11.2486 -1.23278 3.46374e-21)
(10.7265 -0.452662 0)
(9.2675 -4.45117 0)
(12.7409 0.217493 -3.36268e-22)
(5.74297 7.37997 1.31936e-21)
(9.86725 -2.13487 3.62355e-22)
(-2.88329 5.52278 0)
(14.2014 1.18279 0)
(9.66638 1.25234 0)
(10.0622 -0.00264392 1.74619e-22)
(12.7491 -0.00872344 0)
(9.05975 0.204092 8.37874e-23)
(7.90091 1.33964 -5.06005e-21)
(10.6037 1.42423 0)
(13.5847 -0.139618 0)
(11.2751 -4.75362 0)
(11.026 9.01828 7.4597e-20)
(9.23461 -3.47296 4.09416e-21)
(8.77663 -0.96998 -2.486e-21)
(12.9397 0.40852 1.80681e-21)
(9.26885 -3.38437 -5.70522e-21)
(8.34857 0.0791718 4.48659e-21)
(5.54205 -2.71717 8.54902e-21)
(9.6216 -0.642817 0)
(11.9174 3.27338 -1.41594e-21)
(11.12 2.9677 2.70538e-21)
(3.09097 -1.37469 -2.7207e-20)
(9.8648 -2.13277 -1.53653e-21)
(-2.82552 2.75708 1.06385e-20)
(6.5874 0.454505 3.11291e-21)
(10.5107 1.28246 3.64457e-21)
(9.94373 0.189193 -1.32256e-20)
(11.2796 -0.266483 -1.50602e-22)
(9.01284 0.484241 -6.9463e-23)
(-12.303 10.3078 0)
(11.3916 4.59326 1.98216e-21)
(14.707 3.61431 1.13247e-20)
(9.95734 0.00312891 -1.39513e-20)
(10.826 -0.50933 0)
(10.4474 -1.21994 3.40594e-21)
(13.6776 1.96211 -5.39553e-22)
(11.1248 -0.130161 1.45608e-22)
(2.62854 -1.20268 0)
(12.7206 -0.506418 -1.25294e-22)
(15.0041 -0.167144 -1.05695e-20)
(10.4493 1.23272 1.35458e-23)
(15.3649 -1.71667 -5.88795e-21)
(15.439 -3.35005 0)
(8.30387 -3.97281 -9.29226e-22)
(7.65608 -0.558139 0)
(13.3622 0.103209 0)
(9.75075 -1.15474 0)
(7.86035 3.46709 -1.18507e-20)
(10.0331 -1.48551 0)
(0.149666 10.3572 -4.21961e-21)
(3.85471 -10.7561 1.42454e-19)
(13.2741 0.304667 1.17037e-21)
(7.53665 -3.64381 -2.57117e-21)
(11.7967 3.07235 -1.78383e-22)
(-15.5888 1.99225 3.4282e-20)
(10.5776 0.510345 -1.44303e-22)
(8.23757 -3.88305 -4.58593e-21)
(13.3509 -5.0489 -1.0636e-20)
(8.33627 -0.930231 3.08042e-21)
(10.1139 -1.45305 -2.31282e-21)
(-1.5827 -0.867655 8.87107e-21)
(9.58855 -0.329033 9.63827e-21)
(9.73334 -1.12283 0)
(12.9004 -0.431668 0)
(15.5243 -0.517601 1.76462e-20)
(19.3775 -1.51174 8.99338e-20)
(8.44209 -0.365492 1.46205e-20)
(9.7198 0.0957249 9.05779e-24)
(11.8229 1.08375 6.21502e-22)
(12.1238 -7.18827 4.68908e-21)
(17.0746 -1.46814 0)
(8.87465 3.85586 2.04001e-20)
(8.39309 -1.92402 0)
(13.5741 2.93169 0)
(6.69916 -6.05519 -2.60826e-20)
(14.0201 1.32796 0)
(10.5835 -2.63464 -3.03021e-21)
(13.6298 0.466636 0)
(11.2061 -1.77658 -8.2553e-22)
(7.05196 -3.21546 5.07331e-21)
(12.1501 1.877 -2.78457e-23)
(-14.4761 2.34471 2.35024e-20)
(11.7012 -4.48105 9.37687e-22)
(8.2108 -2.04288 -1.07374e-22)
(10.4229 -1.20757 -1.16945e-21)
(17.0158 1.47539 8.17827e-20)
(15.3374 3.04884 1.34778e-20)
(5.94213 -2.76682 6.98963e-21)
(-14.9947 3.93223 0)
(6.90809 -3.32392 5.32258e-22)
(14.4856 -1.816 9.98445e-21)
(13.3936 0.0595069 2.5319e-22)
(7.07822 -3.3476 1.51783e-20)
(11.2293 -0.235992 0)
(17.5202 5.19285 0)
(10.0444 0.181005 2.03919e-20)
(13.3943 1.019 0)
(6.87519 -3.36638 4.33852e-21)
(8.92101 -1.47323 -1.03811e-21)
(9.26888 0.0413425 0)
(11.7952 -0.0319763 -4.55013e-23)
(23.6065 -1.90379 7.61154e-20)
(-5.08443 3.04293 7.08571e-20)
(9.9016 1.93319 0)
(-11.3332 9.15054 -1.20126e-20)
(5.58982 -0.510184 2.91374e-21)
(8.57407 -4.16902 -2.25033e-21)
(9.27028 -1.51641 0)
(10.5059 -4.11219 2.48418e-21)
(-11.3117 11.9944 1.40664e-20)
(10.624 0.225426 -7.44058e-22)
(11.7786 -7.51308 -5.92547e-21)
(14.6013 11.1431 -7.80855e-20)
(17.2826 3.75441 1.48669e-20)
(8.99952 0.759739 0)
(8.90236 -1.48224 -3.7116e-23)
(11.875 0.301193 1.76758e-20)
(-12.1522 11.2704 -1.75608e-20)
(12.5626 -3.17295 1.66633e-20)
(4.99613 -2.16787 0)
(11.8708 -4.3663 -6.82263e-21)
(-17.4963 3.05651 -5.129e-20)
(10.4921 -0.0627595 -4.50901e-21)
(4.66223 -3.14957 0)
(7.65708 3.86822 8.80464e-21)
(9.92761 0.091991 -3.98715e-21)
(16.9077 -1.75363 0)
(11.6451 -0.858931 1.34944e-21)
(7.28114 -3.38002 6.6665e-21)
(21.8689 -2.97795 -4.24753e-20)
(10.6267 -3.67744 0)
(-0.084852 -10.1589 0)
(9.31286 -1.69178 -1.28621e-21)
(9.82802 -1.64365 4.64458e-22)
(-0.0961683 -11.2784 2.67522e-20)
(10.7451 -0.682143 -8.40493e-22)
(9.79094 0.110421 8.63551e-21)
(12.4725 10.6843 -3.50419e-20)
(-4.28043 14.9705 2.85724e-20)
(9.47349 -2.08135 3.79835e-20)
(14.429 2.81761 8.33271e-21)
(12.5414 -1.00777 2.97376e-21)
(12.8663 -1.80896 1.24439e-21)
(10.2771 -0.0676764 0)
(-16.0293 3.21656 0)
(8.60119 -1.28247 1.1382e-21)
(8.83141 -4.0995 7.48965e-22)
(10.0315 0.0463633 -1.48849e-21)
(14.3042 -1.6733 8.9353e-21)
(14.9597 -1.8556 0)
(13.177 0.0644531 -2.60435e-21)
(11.8172 -0.696936 -1.02025e-21)
(9.7369 0.110567 -7.78934e-21)
(14.5694 0.266499 -2.82957e-20)
(8.16865 -0.332572 -5.18686e-21)
(-2.79932 0.174526 6.57351e-22)
(10.3967 -1.80764 -3.95809e-22)
(10.763 0.328532 -1.81776e-21)
(7.98407 -0.399634 6.08546e-22)
(11.3846 -5.5374 0)
(14.3686 0.768659 0)
(10.5028 -0.0499728 5.50126e-23)
(7.74709 -2.41233 -2.36972e-22)
(7.81913 -0.666374 0)
(10.5812 7.06223 -5.60078e-20)
(-6.41718 1.20188 0)
(10.9367 4.51107 3.0262e-22)
(10.77 1.29284 5.03226e-21)
(2.10028 18.3467 0)
(9.48192 1.51747 -5.38481e-21)
(8.3341 -1.17399 -1.69535e-21)
(9.33717 0.634415 -5.87408e-22)
(9.62421 -0.291647 -1.09681e-20)
(12.3607 -4.53339 0)
(7.70717 -0.861905 3.63721e-21)
(8.63355 -1.1515 2.06057e-23)
(9.99221 0.0706223 1.76699e-21)
(8.62717 0.295963 -8.53804e-21)
(4.18115 3.04653 1.18694e-20)
(10.2249 -0.276408 4.45717e-21)
(11.5991 -0.941335 1.70975e-20)
(10.7787 -0.694234 0)
(12.3976 -0.758654 -4.23824e-24)
(11.7571 -0.8145 5.07095e-21)
(10.1079 0.0170771 2.19684e-20)
(11.6305 -2.58379 0)
(9.28718 -0.555644 -1.69195e-21)
(7.34392 1.41711 0)
(13.0326 1.97413 4.86198e-20)
(10.1318 -2.55788 1.82408e-22)
(4.63408 -2.14883 9.44039e-21)
(12.7412 -0.282619 1.70845e-20)
(10.1443 0.661415 0)
(8.85459 -1.43751 -1.60122e-21)
(12.101 -4.37805 7.73803e-21)
(8.54627 0.290022 8.07386e-21)
(11.9328 -0.823001 -1.64173e-20)
(11.1613 -0.0622074 -2.51366e-21)
(-5.22637 9.6418 -1.48371e-20)
(9.353 1.15411 2.84004e-23)
(11.1685 -0.444104 0)
(5.70197 -1.96723 2.13603e-20)
(13.6518 2.77685 0)
(8.50734 -1.22963 1.1385e-23)
(10.9996 -0.258781 1.44223e-22)
(12.14 -0.859612 -1.00404e-21)
(11.6566 -0.815257 1.13801e-21)
(1.21131 -1.06041 -2.23848e-20)
(9.78645 0.0926557 9.68131e-21)
(8.49598 0.131089 0)
(-3.2829 4.22396 -3.26015e-20)
(11.0445 -0.71094 8.74365e-22)
(8.33073 -2.20442 -4.3711e-23)
(19.2552 -3.90677 6.65798e-20)
(12.3688 -0.129745 0)
(10.2838 -0.850481 4.62211e-21)
(9.14662 0.428467 1.69283e-20)
(9.83449 0.106548 1.21264e-20)
(16.9598 -2.48834 0)
(9.15447 0.133048 1.28704e-23)
(14.8559 -1.69527 -9.37731e-21)
(0.456258 -11.5074 9.90883e-21)
(8.29915 -0.445185 2.05231e-21)
(11.0672 -0.601212 -8.33976e-22)
(11.9431 0.0888685 1.5892e-22)
(11.0755 -0.435927 0)
(11.3098 -1.83812 -2.77642e-21)
(-10.9989 10.3153 9.99054e-21)
(11.4977 1.94751 -1.15472e-21)
(10.0689 0.0502383 7.96596e-21)
(8.44588 0.0313065 0)
(8.71509 -1.23521 -1.99682e-21)
(2.93041 18.6679 0)
(15.4995 4.41175 -1.25714e-20)
(10.497 -0.114751 0)
(11.9149 -3.23086 -5.31179e-22)
(7.13507 -0.844284 -4.87895e-21)
(7.60456 2.93216 2.04983e-20)
(0.741993 -11.0856 -2.95174e-20)
(10.9229 -3.75191 0)
(11.0357 0.327054 -3.98637e-21)
(9.93149 0.709502 -5.65726e-21)
(-1.10499 -2.33714 -1.01785e-20)
(-14.8454 4.29179 6.68517e-21)
(8.60674 -0.46384 -2.13651e-20)
(16.7866 -1.19567 1.09014e-20)
(10.0523 0.739448 4.17562e-21)
(7.79897 -2.39272 0)
(7.01742 0.952317 1.07261e-20)
(7.61499 -0.109962 -1.79398e-21)
(-8.17081 2.08294 3.7652e-20)
(-10.7594 9.23511 -3.65362e-20)
(1.04686 -3.75265 -1.30118e-20)
(14.5677 2.84943 0)
(-1.24089 -3.05092 0)
(9.91242 4.92311 0)
(10.5923 -0.282096 0)
(16.9827 -1.59616 -4.78127e-20)
(12.2667 1.72653 0)
(6.97101 -1.89812 0)
(8.55625 0.190282 3.22245e-21)
(14.7194 3.58344 -1.16366e-20)
(11.0348 -0.479528 5.33184e-22)
(8.51244 1.10166 3.06007e-20)
(10.0047 0.129213 -2.76359e-21)
(10.9601 7.06248 0)
(16.7036 -0.270489 0)
(9.73294 0.117618 8.37285e-21)
(9.89043 0.0392991 1.40932e-21)
(6.43147 3.77852 0)
(1.86872 -0.494047 1.26342e-20)
(12.4635 -3.23468 -1.86921e-20)
(6.86699 -0.494422 0)
(11.3193 -0.217132 -7.85596e-22)
(9.93958 0.0801873 -9.43937e-21)
(5.49759 4.06868 -4.89418e-21)
(5.67684 -1.92313 0)
(9.99578 0.750953 1.03962e-20)
(12.4576 1.34935 0)
(15.3371 -1.67079 0)
(10.7586 0.888486 -6.67044e-22)
(9.80265 0.175741 4.61327e-21)
(4.40519 0.231559 -2.42714e-20)
(11.0383 2.8926 1.20277e-21)
(7.18755 -1.88935 -7.70732e-21)
(10.5255 -0.262788 4.66269e-22)
(10.304 0.821456 3.31698e-21)
(12.9967 -1.82615 6.05918e-21)
(13.0316 -2.70921 0)
(21.1396 -0.0633205 2.96875e-20)
(7.16859 -0.556428 0)
(8.68029 -1.27417 1.08146e-21)
(11.2393 -0.333963 0)
(7.5602 -0.0903826 1.29983e-20)
(-3.97436 -11.276 -4.36549e-20)
(17.036 -1.0181 0)
(0.578114 1.86663 1.62911e-21)
(17.2172 -0.29419 -2.10963e-20)
(8.3741 -1.62834 -4.58135e-22)
(9.32881 -1.37274 1.38829e-20)
(7.19922 2.85308 -1.29703e-20)
(7.16263 -1.8799 -2.28707e-20)
(16.5805 4.38962 0)
(7.74837 -0.402914 1.69934e-21)
(-6.60292 12.6688 -4.11439e-20)
(10.0649 0.756425 0)
(9.31247 0.719636 6.43553e-22)
(13.4808 0.542735 -1.03496e-21)
(12.569 4.73194 0)
(9.99368 0.0153764 0)
(-8.4618 6.34564 0)
(-12.5525 8.95812 7.41624e-20)
(13.2069 13.9359 4.14997e-20)
(6.64944 8.32264 -6.18932e-22)
(10.8334 4.25315 0)
(8.91883 -0.974863 1.18698e-20)
(8.93685 0.46638 1.42549e-22)
(11.0032 2.67761 -2.65496e-21)
(-12.3354 0.506736 7.91768e-20)
(9.66066 0.477729 0)
(9.4438 1.26921 0)
(4.42033 -1.12665 -1.59756e-20)
(7.66557 -2.3637 -4.90954e-21)
(10.0687 -0.771185 0)
(10.1384 -4.6667 7.0168e-21)
(9.23017 0.0968883 -1.35788e-22)
(9.30497 0.875564 4.8158e-23)
(4.93442 -2.23705 0)
(10.8463 -0.9555 3.18694e-21)
(7.72779 -0.19173 1.58804e-21)
(12.5103 1.30556 1.0034e-21)
(10.0519 -2.6715 0)
(9.95965 -3.28724 -5.88995e-20)
(11.9267 -0.799732 1.11422e-21)
(9.95623 0.294573 2.05745e-21)
(8.21135 0.140234 6.00093e-22)
(12.0895 3.19004 0)
(8.60693 1.11884 -8.10097e-21)
(13.1505 2.77934 -3.64723e-21)
(3.26057 -4.19791 1.98222e-21)
(10.0123 0.12925 0)
(-19.3182 4.23752 -6.86077e-21)
(3.12999 -0.989497 0)
(10.1072 0.12571 -8.11308e-21)
(9.95182 0.117698 3.22251e-21)
(9.59699 0.0125679 -1.64821e-21)
(-12.0511 10.3634 0)
(13.02 -0.167714 -4.33122e-23)
(5.9915 1.85555 3.05976e-20)
(12.9197 -2.9477 0)
(8.50538 0.117964 9.9186e-21)
(14.4049 -0.171134 3.25881e-20)
(10.7391 0.0681223 0)
(-15.9246 2.46705 2.37155e-20)
(9.24253 -4.28034 -4.06856e-21)
(12.0607 0.0928722 0)
(6.09779 -5.22552 3.79444e-20)
(9.25467 0.65475 0)
(9.42993 -4.19703 -8.70917e-22)
(-11.772 9.29196 2.4348e-20)
(10.3781 1.37354 -1.62336e-23)
(11.8641 0.901804 6.72769e-22)
(7.02938 0.925347 5.62441e-21)
(9.27563 -1.47618 -4.92046e-21)
(10.9259 -3.37036 -2.50463e-21)
(9.55774 -4.09619 2.43964e-22)
(10.9982 -0.656515 -4.17056e-22)
(12.117 3.16645 3.15073e-21)
(11.8171 -4.94418 0)
(9.99723 0.00621194 -7.06333e-21)
(6.6703 1.03284 -3.2184e-20)
(7.28956 -0.599022 0)
(6.99556 -0.24764 -8.73515e-22)
(8.33708 -0.0107514 0)
(6.57276 -1.93018 2.06575e-20)
(11.549 -3.71295 0)
(8.89235 0.0646898 -4.54469e-22)
(11.1714 -0.246548 -1.31097e-22)
(-14.599 2.27932 4.30787e-20)
(-9.24017 6.17551 3.18465e-20)
(12.1671 -0.0664458 -2.15476e-24)
(11.0453 -5.11716 -1.50836e-20)
(9.52829 -2.48615 2.7046e-21)
(7.97673 -1.82067 0)
(2.47566 -2.60444 -8.51214e-21)
(13.2662 -2.60097 3.49931e-21)
(2.36299 -2.20853 -1.00891e-20)
(9.24549 1.03421 -1.33313e-23)
(7.71171 -2.89173 0)
(10.8347 0.062419 -5.24654e-23)
(3.69655 -0.504801 0)
(-13.5307 6.30549 2.3143e-21)
(5.68932 4.10907 4.47044e-21)
(14.5951 9.03031 0)
(11.0002 -2.24331 -1.315e-21)
(2.35231 -8.57889 0)
(12.5218 4.48041 0)
(9.14184 -4.24855 1.06114e-21)
(7.41301 1.08498 8.60076e-21)
(7.80559 -5.31359 0)
(9.18377 0.508663 -4.74999e-21)
(5.37868 6.69824 -3.89932e-21)
(-10.0908 10.9998 4.47091e-20)
(12.7871 6.08637 0)
(10.448 -0.00929388 0)
(-4.87815 11.5542 -1.76351e-20)
(9.6772 -0.584831 0)
(12.8865 -0.281452 0)
(-4.41181 17.2059 -2.32875e-21)
(10.8748 -1.5623 1.98117e-21)
(9.29299 -2.07838 3.26386e-21)
(19.0093 4.07218 2.41379e-21)
(2.9347 -1.87576 1.79378e-20)
(10.035 0.0844995 3.66497e-21)
(8.17836 -1.95382 0)
(10.4753 2.08007 -1.75122e-21)
(7.60012 -1.16308 0)
(12.2964 -0.0657175 0)
(9.97828 0.348527 0)
(10.671 0.837708 -5.44679e-22)
(9.59955 -0.285005 5.09873e-21)
(13.0419 0.918663 7.03278e-22)
(8.37339 -2.00563 0)
(1.45676 0.0101561 -1.79313e-20)
(9.74772 4.65575 2.86677e-21)
(10.1152 -3.34203 -1.63554e-22)
(12.2978 -1.32571 -4.81917e-21)
(21.3188 -2.52427 6.78038e-20)
(10.2557 0.0486947 -5.2529e-21)
(-4.24952 -9.43075 0)
(11.8101 -0.760454 0)
(7.16161 3.73035 0)
(6.68694 -2.90362 -1.38393e-20)
(-9.31387 -5.01286 -5.65488e-20)
(14.0148 7.60652 0)
(10.5746 2.09344 0)
(11.5595 -1.7952 4.17145e-21)
(9.95431 -0.049941 -7.7349e-22)
(9.47162 2.60051 9.53999e-21)
(14.0031 -5.12806 0)
(5.91915 -2.19413 -4.29233e-21)
(11.2386 0.359787 1.92654e-21)
(7.48648 -2.21347 -1.21494e-20)
(10.6882 0.421109 -3.43553e-21)
(10.9706 2.68228 4.03511e-21)
(17.1752 5.02358 9.41443e-20)
(6.61288 -2.89303 2.40961e-20)
(12.5966 -12.2913 4.31743e-20)
(13.934 1.66736 -5.33666e-22)
(10.0055 0.0129363 -1.69348e-21)
(9.54515 -4.54426 3.09113e-21)
(9.4002 -3.93644 1.77464e-21)
(8.14305 9.24288 -2.25925e-21)
(9.84284 -4.54073 -2.71209e-21)
(12.3073 -0.681874 0)
(7.69163 -1.9393 -9.08824e-23)
(10.5302 0.0146283 -8.26456e-21)
(13.1078 3.36145 3.01088e-21)
(7.3333 -2.04299 -1.16095e-20)
(10.0238 -3.22171 2.90217e-22)
(10.3739 -0.0223415 2.38033e-21)
(13.0164 -0.208433 -1.36792e-21)
(6.79087 -2.49198 -3.06934e-21)
(14.2603 2.80928 -4.51783e-21)
(6.17934 -1.05601 -3.06506e-20)
(10.7332 0.0230744 -7.00565e-21)
(6.14077 -1.38503 0)
(-16.029 2.53287 -9.77003e-20)
(10.8066 0.0497295 1.10597e-20)
(8.09959 0.049438 7.17472e-23)
(-2.75637 4.70613 0)
(10.8615 -4.69512 0)
(9.89903 1.75529 8.22426e-21)
(5.5982 -1.0748 1.97356e-20)
(-4.64294 -1.89972 -1.70764e-19)
(11.9669 -3.22478 6.89747e-21)
(11.724 -0.897287 -9.6681e-21)
(13.5694 2.80829 0)
(9.90168 1.93907 4.57523e-21)
(-0.132641 -0.214461 -3.12541e-22)
(11.6019 4.37915 2.27478e-21)
(10.3716 -1.13758 -3.09267e-21)
(3.44336 -2.85308 -2.86138e-20)
(19.8622 -3.29626 -6.12932e-20)
(23.5245 -0.243321 1.65068e-20)
(10.5712 5.13687 0)
(13.6014 -3.86042 -5.76686e-21)
(9.59531 -0.0033844 1.44972e-21)
(8.99941 0.367796 -9.71587e-23)
(5.52485 -2.64479 2.43454e-20)
(10.2454 -1.18215 4.78001e-21)
(8.57239 -1.09346 1.10979e-21)
(-9.98549 9.8749 -2.21309e-20)
(14.8622 -0.616501 -8.89377e-21)
(10.5859 0.124866 6.2761e-21)
(-2.13687 13.326 -3.16346e-21)
(11.224 4.27351 -6.31849e-22)
(7.64684 -5.49689 -4.12292e-20)
(7.22044 -3.43317 -5.7322e-21)
(9.14572 0.277062 0)
(12.7724 -0.0304453 4.79882e-21)
(-8.40158 16.0754 -2.61015e-20)
(7.09953 -0.956382 2.58575e-20)
(11.0812 1.02208 0)
(8.34219 -0.650727 5.41118e-21)
(6.39746 -2.55745 5.84327e-21)
(9.9837 0.07813 -1.56947e-20)
(-4.37165 7.07091 -1.38464e-20)
(7.84646 -5.06622 -9.29813e-22)
(11.0603 -0.468118 -4.45838e-22)
(10.9832 0.365377 5.9366e-21)
(9.57167 -4.25797 2.8756e-21)
(13.3266 1.00412 -1.26044e-21)
(-7.2517 -4.85029 -1.65164e-19)
(10.5212 0.0107476 7.75088e-21)
(10.493 -0.245748 -2.11649e-21)
(10.4477 0.493552 -1.19977e-22)
(11.8983 -0.0112419 -3.15436e-21)
(6.24674 -2.6384 -1.13153e-20)
(13.6803 1.60543 0)
(-14.09 7.53982 5.76655e-20)
(10.5326 0.0551575 1.01618e-21)
(7.0213 4.21308 9.61573e-22)
(12.1768 0.328354 9.23118e-22)
(11.538 -1.17295 4.46729e-21)
(9.96233 0.0675594 -1.30808e-20)
(10.2565 1.41354 2.51777e-21)
(1.93525 -0.247543 -1.2986e-20)
(12.9817 -0.248243 0)
(8.69747 -1.33792 1.05022e-21)
(12.1575 -0.922112 1.02908e-21)
(7.76844 -2.83087 0)
(10.4196 0.36576 5.05849e-21)
(12.277 -0.80564 9.06608e-22)
(12.9809 -0.155861 -4.76306e-26)
(15.8629 -3.99224 2.611e-20)
(10.3841 -1.41985 0)
(8.88784 1.4708 1.51356e-20)
(9.45164 -0.821185 -1.46586e-21)
(9.49769 -4.36855 -2.45609e-21)
(10.3611 -0.749219 0)
(7.44379 1.08937 -2.47354e-20)
(3.17656 -1.88479 -9.76791e-21)
(11.5439 6.35294 -9.13142e-21)
(6.2414 -1.13343 2.9873e-20)
(11.9646 0.181055 -6.00555e-22)
(-8.55362 6.03637 2.18483e-20)
(9.97879 -0.487369 -6.40523e-21)
(19.6415 1.12758 -3.48567e-20)
(9.06501 0.449828 -9.88144e-21)
(12.0938 0.247093 0)
(9.98314 0.0129029 -6.36049e-21)
(5.10863 0.363532 2.16944e-19)
(-1.54671 3.14232 0)
(19.7273 0.307542 0)
(9.0198 0.335872 0)
(4.98973 -4.72425 0)
(10.0886 1.27313 0)
(5.91192 -1.02677 0)
(13.0911 -7.04382 -6.32882e-22)
(8.93009 9.47493 -5.32101e-21)
(12.1875 1.95624 0)
(8.91471 1.30507 2.27621e-20)
(5.26158 -4.06127 1.11148e-20)
(10.207 0.840248 1.55228e-22)
(-6.98085 16.5935 -9.71275e-21)
(5.82178 -0.0396693 5.19552e-23)
(1.39536 0.758243 1.057e-20)
(10.0899 0.0238044 -1.83306e-22)
(13.9998 0.86815 7.18111e-22)
(9.99204 1.22103 -5.53927e-21)
(9.45847 0.565313 -1.34797e-20)
(9.51391 4.28899 -6.98458e-21)
(15.818 4.57204 0)
(-14.7006 0.755443 2.45856e-20)
(6.67452 -2.0161 -2.25828e-20)
(9.99439 0.016373 -1.89407e-20)
(13.3404 -2.32312 3.44157e-20)
(11.5258 -0.0641336 7.63218e-22)
(15.5419 -0.668127 -4.01567e-20)
(10.9905 -1.0113 3.29713e-22)
(11.086 -2.23435 4.76411e-21)
(9.99501 0.610213 5.86382e-21)
(11.2717 7.82996 0)
(10.7423 -3.01038 -2.10435e-21)
(8.75323 0.0840717 -3.01741e-21)
(11.8066 1.93201 0)
(9.50573 -1.52178 0)
(10.182 -4.44539 -2.46016e-22)
(-10.6315 6.52512 2.81859e-20)
(12.8848 -7.37302 -2.55931e-20)
(8.96052 -0.502235 0)
(9.78995 -0.389497 -9.73092e-21)
(9.13855 0.724523 -2.64619e-21)
(-15.1299 4.74317 3.35535e-20)
(12.6127 -0.530448 4.48363e-23)
(-0.313329 2.67844 0)
(-15.512 1.28636 2.35495e-20)
(12.687 -0.685242 0)
(13.334 -4.14848 6.20341e-21)
(9.80428 -0.800202 -2.70348e-21)
(10.1397 0.0116939 2.36559e-25)
(11.1821 3.04181 -4.73303e-21)
(12.6595 5.32848 -1.29533e-21)
(9.2609 -2.41662 6.88146e-21)
(-13.0384 2.40851 0)
(3.20433 -12.3683 -1.31902e-19)
(5.09347 -7.00108 0)
(12.3819 2.02703 -6.19329e-22)
(-14.6997 5.69018 6.28697e-20)
(20.0449 0.551417 8.4364e-20)
(8.72892 -1.33587 -9.95136e-22)
(-10.1915 13.7552 -8.49879e-20)
(8.77973 -4.1015 2.83673e-21)
(6.88058 -2.03696 -1.26018e-20)
(7.56947 -0.183355 6.38052e-22)
(5.05024 -11.8491 1.07816e-19)
(6.29869 -2.70148 9.32296e-21)
(7.17648 -2.17703 1.30232e-20)
(-9.57567 -2.23873 7.0962e-20)
(8.29414 -11.5415 -6.83724e-20)
(9.95955 -2.83251 6.07372e-22)
(-0.575481 -10.6878 4.12375e-20)
(13.322 0.374898 -4.56067e-22)
(5.16086 -3.90979 -9.36452e-21)
(11.1833 1.99113 -1.8918e-21)
(12.3312 -1.52578 0)
(4.21578 -4.5294 -2.30026e-20)
(10.369 -0.00148631 -9.29447e-21)
(10.0106 0.345329 0)
(12.3574 1.94854 0)
(-0.642053 -11.779 -5.00734e-20)
(18.3853 5.53941 -3.6438e-20)
(11.6343 1.22003 -2.76256e-21)
(10.8516 -1.50947 -2.68615e-21)
(9.55337 4.15388 6.48421e-21)
(9.05269 -0.0517873 9.77093e-22)
(-14.4699 6.43044 -4.66942e-21)
(8.90312 2.59398 0)
(7.36926 -2.3211 1.18659e-20)
(1.42401 3.70604 7.54312e-21)
(-10.8421 12.5673 6.57833e-20)
(9.18429 -3.2836 6.74799e-22)
(12.0225 -5.51981 1.25295e-20)
(10.2289 -0.0490624 5.21328e-22)
(9.11201 -1.3274 6.11234e-22)
(16.2975 -2.66152 2.68523e-20)
(-14.1849 7.05695 -3.91791e-20)
(11.5652 1.17652 2.13355e-21)
(9.89887 0.0881329 4.75186e-21)
(6.08582 -1.3512 -1.22558e-20)
(9.67255 -0.476043 5.84009e-21)
(5.26937 -2.29313 0)
(11.4539 1.87377 2.33211e-21)
(9.95274 0.0604576 1.0472e-21)
(7.91221 -1.62585 -3.90862e-21)
(9.31306 7.2092 8.29716e-22)
(9.80122 -2.77605 1.33704e-21)
(10.1186 -0.0137045 1.78777e-21)
(7.22369 0.307434 -1.84078e-20)
(12.245 1.42062 0)
(8.67599 -1.21244 -2.06118e-21)
(10.78 0.463324 4.64493e-21)
(12.2922 -1.50855 0)
(7.39381 -0.153882 1.01989e-20)
(12.7148 -0.562489 0)
(7.99294 7.36212 9.91394e-21)
(12.4831 -0.109864 0)
(10.725 -3.33696 0)
(11.8923 -0.348126 4.08493e-22)
(11.6523 0.931287 2.04994e-21)
(13.5445 2.78474 -5.1504e-21)
(9.68407 0.42445 -6.02548e-21)
(7.53138 4.27313 -6.01938e-21)
(9.86225 0.247552 -2.55405e-21)
(10.1808 1.3582 0)
(0.625228 -3.28418 2.01337e-21)
(12.0985 0.944885 -4.76825e-22)
(12.9667 -4.23229 -1.21533e-20)
(12.3546 -1.6121 0)
(13.1978 3.3198 4.77879e-21)
(10.2291 7.26704 3.96337e-22)
(13.2347 0.338521 -1.9647e-21)
(-1.63619 14.7982 0)
(-2.36218 17.9426 2.94424e-20)
(10.1466 0.612732 0)
(16.4164 -1.88557 -1.26749e-20)
(-4.73976 3.03732 0)
(4.37622 -1.62151 0)
(11.329 -14.2067 0)
(11.2432 -3.72212 0)
(3.36633 4.38803 -2.93846e-21)
(-12.7662 9.30789 -1.66024e-20)
(9.64073 -0.257882 -7.64883e-21)
(-15.4461 2.44406 -5.28617e-20)
(6.68354 -2.78688 0)
(-14.1711 1.16905 -4.44105e-20)
(-6.51081 3.1313 -7.02713e-20)
(8.44779 -3.871 0)
(7.7934 -2.65544 -1.11669e-20)
(7.73422 -1.39583 -6.67084e-22)
(11.1496 1.90744 4.80788e-21)
(14.7428 -3.48016 -2.35229e-20)
(9.40113 0.493853 0)
(12.4795 -2.90767 0)
(12.46 3.26539 -1.32203e-22)
(9.47672 -3.52407 3.79369e-22)
(7.98944 -0.502535 -1.23384e-21)
(0.34894 -11.9706 2.17615e-21)
(9.97122 0.0161455 4.72122e-22)
(12.9184 -0.0752762 -9.84517e-22)
(9.95858 0.621225 8.2866e-21)
(8.68542 -1.20693 1.08828e-21)
(10.0385 -2.4436 0)
(9.00743 0.550726 0)
(13.2169 0.949596 0)
(8.18986 0.144137 0)
(9.08846 -1.61396 3.84349e-21)
(14.9102 1.62198 0)
(-2.20566 15.2696 4.23437e-20)
(10.305 2.7894 3.79886e-21)
(7.03053 -2.23068 -1.99723e-20)
(4.36617 -3.27939 -5.76852e-21)
(-14.0056 5.51231 -2.9832e-20)
(-0.200611 14.8993 -2.50709e-20)
(10.7684 0.106249 1.4134e-21)
(-12.9717 9.09506 -3.34158e-20)
(8.63942 -1.17704 1.67747e-21)
(12.0131 -0.261249 0)
(11.9494 -0.249556 0)
(7.11562 -3.00708 0)
(11.6123 -1.29691 -2.69893e-21)
(7.08913 -9.65764 0)
(8.94379 2.51656 0)
(9.93275 0.018652 0)
(9.38454 -2.06517 3.05018e-21)
(10.4167 0.775152 -8.37277e-21)
(8.36842 0.136656 0)
(14.1437 -6.81811 -2.24516e-20)
(9.83036 0.678257 -7.56774e-21)
(11.578 4.13808 -4.91116e-21)
(8.49686 -3.81203 3.65933e-21)
(9.35273 2.9572 1.29426e-22)
(9.11851 -4.91414 -3.65211e-22)
(9.26102 -1.7155 1.2641e-21)
(11.0664 -4.20153 -5.50303e-21)
(11.417 0.974495 -2.70718e-21)
(7.92006 -0.384706 -2.79983e-21)
(9.3004 0.134463 -8.87542e-21)
(10.4258 0.0170265 0)
(7.76772 3.32904 -1.14392e-21)
(9.80561 0.0922226 8.8497e-21)
(0.700482 -2.18716 -1.15198e-20)
(10.9268 -0.974883 6.52075e-22)
(5.71992 -1.17737 -2.14693e-20)
(11.5153 0.81812 4.46704e-22)
(13.2533 2.66334 5.27617e-21)
(10.0249 0.266192 0)
(6.80457 -1.66168 -6.43143e-22)
(9.09517 -0.675524 -6.54833e-22)
(11.2499 -4.25748 1.18607e-20)
(-13.578 0.753073 -9.03211e-20)
(10.1493 -0.009576 3.76858e-21)
(13.8144 1.32726 4.59859e-22)
(11.781 0.195154 4.40808e-22)
(12.8954 1.00978 0)
(4.58095 -2.15186 0)
(7.96574 -3.71637 6.30558e-21)
(-4.05539 6.19541 1.49562e-20)
(9.09104 0.182808 -1.15227e-23)
(9.94446 0.066056 1.74545e-20)
(7.14451 -1.86075 2.17543e-21)
(7.42254 0.880798 0)
(9.20098 0.14453 0)
(8.49432 -1.85084 -3.29688e-22)
(11.8598 -0.191862 5.62038e-22)
(9.48312 2.70988 1.30149e-20)
(10.8392 -0.429683 0)
(12.7046 -0.0155695 0)
(11.2073 -2.37144 -1.22295e-20)
(10.2363 -0.675029 3.55566e-21)
(4.34909 -11.0977 -3.49286e-20)
(12.0534 -0.841507 0)
(4.88307 -2.74461 -1.09184e-21)
(17.6905 -7.72782 -1.18955e-20)
(-7.66703 14.8983 -2.63595e-20)
(10.1836 -0.175112 -7.19174e-21)
(9.68716 7.8155 0)
(19.7608 6.15584 2.99948e-20)
(0.354415 14.3301 -1.31156e-19)
(3.19644 -6.90776 0)
(8.08902 0.135662 -1.89184e-21)
(9.70542 0.267543 -6.10255e-21)
(9.02609 0.0796861 -1.18e-24)
(10.0517 -0.349925 1.4807e-21)
(8.27236 9.07754 1.67088e-20)
(10.646 0.0484861 0)
(5.78836 -2.07361 -2.90846e-22)
(6.39518 -1.69177 -2.11558e-21)
(3.65279 18.4057 -6.54898e-20)
(10.1299 1.25736 6.55945e-21)
(-11.4312 4.68494 1.2488e-20)
(9.99993 0.0295962 -1.70052e-20)
(8.48447 -0.941169 -7.47052e-22)
(9.01521 -1.50604 1.14268e-21)
(9.1624 -1.9192 0)
(9.3247 -0.0449101 -3.3211e-21)
(6.12953 -2.73533 7.50835e-21)
(11.0226 -0.236583 -8.0394e-22)
(10.0054 0.0337201 -7.7799e-21)
(15.7934 -2.17384 1.06757e-20)
(8.64642 -0.914195 1.85068e-20)
(13.0551 0.305753 4.75594e-22)
(9.05754 0.248591 5.36635e-21)
(6.98468 -0.352754 -2.96804e-21)
(18.5821 5.35125 -2.46492e-20)
(11.4392 4.60842 -4.08251e-21)
(2.52832 0.367707 1.33782e-19)
(10.1441 -0.0408913 0)
(7.2781 -2.46183 0)
(17.5202 1.84873 0)
(7.00426 -2.06994 1.57452e-20)
(10.182 0.0363397 -1.22607e-20)
(9.04336 0.772508 0)
(8.08134 -1.70683 -1.07972e-20)
(9.05504 0.665484 0)
(9.11775 -1.4403 -6.24516e-21)
(12.7595 -4.42736 -1.41389e-20)
(9.89174 -2.21998 -1.02087e-21)
(10.7736 0.0659281 0)
(9.74738 -0.000881387 0)
(12.2864 -1.5729 4.4237e-21)
(12.1826 1.7307 2.77029e-23)
(14.69 0.606487 7.14195e-21)
(10.5828 7.55949 -8.52778e-22)
(10.3962 -0.287534 0)
(9.28598 -3.20167 -9.22409e-22)
(-2.1012 4.79631 0)
(4.02684 2.62103 -1.20635e-20)
(12.6376 5.32833 0)
(13.5787 1.28861 -7.87556e-22)
(6.18435 -0.940141 8.00037e-21)
(7.98173 -0.821368 6.7973e-21)
(11.3655 -0.933113 -4.01679e-21)
(11.154 -1.32372 -4.01221e-19)
(10.1139 -0.818483 9.00716e-21)
(10.1209 1.32679 -1.96708e-22)
(16.4118 -0.177663 4.91871e-20)
(10.4979 -1.90962 2.04047e-22)
(0.150983 3.56791 2.7806e-20)
(12.1936 2.52283 0)
(10.0015 0.0593163 -6.33394e-24)
(8.24698 -2.07144 0)
(9.00876 -1.4037 -1.23517e-21)
(9.38892 -3.1756 -2.6382e-22)
(8.74117 -0.789729 -5.98184e-21)
(9.07687 0.0960253 -1.42899e-23)
(13.1618 0.593414 -2.41018e-21)
(8.62963 -0.343716 1.37129e-20)
(11.408 -0.209562 1.07786e-22)
(7.81239 -0.531959 0)
(4.23329 -4.57317 0)
(13.0843 -0.223169 -1.35745e-22)
(13.3829 2.64443 0)
(9.64024 0.53066 -3.28515e-21)