/*--------------------------------*- C++ -*----------------------------------*\
| =========                 |                                                 |
| \\      /  F ield         | OpenFOAM: The Open Source CFD Toolbox           |
|  \\    /   O peration     | Version:  2306                                  |
|   \\  /    A nd           | Website:  www.openfoam.com                      |
|    \\/     M anipulation  |                                                 |
\*---------------------------------------------------------------------------*/
FoamFile
{
    version     2.0;
    format      ascii;
    arch        "LSB;label=32;scalar=64";
    class       volScalarField;
    location    "8";
    object      p;
}
// * * * * * * * * * * * * * * * * * * * * * * * * * * * * * * * * * * * * * //

dimensions      [0 2 -2 0 0 0 0];

internalField   nonuniform List<scalar> 
13486
(
8.3649
7.44017
2.32208
-15.1756
0.278186
0.739143
0.339105
2.53801
4.8214
4.25188
-13.1507
2.99112
8.70257
0.651426
1.65809
4.58074
-17.7291
-5.2032
3.39142
7.72465
-15.4686
8.56159
7.29187
-4.28766
4.07061
-3.88786
-14.6657
-0.21769
0.0276756
0.615665
-16.2343
3.24294
-3.68581
2.43346
2.60767
-0.0169177
-0.729247
5.77721
-27.3995
5.31594
-5.76958
9.09218
0.532571
3.97829
3.84426
2.93321
-23.5237
0.0725402
-0.65189
-0.995726
5.51787
-2.68578
2.49474
6.02402
-7.55726
0.66649
1.02756
-6.41054
-3.43531
-1.04522
-9.29246
-0.74598
-10.4723
-15.222
-7.78037
-0.658361
-14.7241
8.78684
4.70131
-4.14121
-14.6834
-7.45213
5.65329
-14.6799
-0.316684
1.06539
-0.173151
1.45353
-26.1206
-3.82149
0.000465992
7.5958
-11.9
2.45547
8.37751
5.34422
-8.36746
5.29712
6.18835
4.86207
3.23826
1.85491
7.8241
7.59997
4.58985
0.0578909
-14.4012
-14.2104
5.23273
-18.0389
0.033304
0.904425
-14.6101
-5.13176
5.96696
-18.2838
6.06596
-22.3857
-25.4183
0.470441
3.54655
3.24669
6.04033
0.926287
10.3085
3.98521
4.10882
2.65794
5.70002
-0.366783
-5.8774
-9.5509
5.06294
-23.5787
3.74215
-3.9693
3.55482
2.55277
3.1157
-6.30432
-3.55027
-22.8884
-13.4958
-14.7896
5.708
5.50573
11.356
0.757884
-0.36936
3.06688
-2.58527
2.49386
3.12401
-2.75506
1.16603
-9.76473
1.76221
8.65811
-1.23581
0.0101053
4.14051
0.396175
0.00528211
7.75304
2.7945
2.3295
-0.770389
-5.87563
4.86422
0.936023
-0.479051
4.87526
3.69333
9.01537
-2.87791
-0.276913
1.34542
12.2603
1.86442
-14.7983
-13.2879
2.8431
4.73296
3.22342
0.00561271
-10.9459
0.160745
-3.51506
6.05478
3.16734
4.73821
0.920238
3.27596
-10.1898
2.67363
-0.271756
-0.000684197
1.14298
-5.14488
4.42182
-0.393174
1.92408
-3.55363
8.55444
0.683733
-13.493
-7.0201
-0.514425
6.8043
-0.0174511
-17.0734
2.47829
5.7858
-2.60004
0.67895
1.27431
-4.7648
6.25958
-5.21458
2.6496
0.593406
-3.4297
7.63679
6.07225
0.739207
0.903799
0.440517
4.93272
7.26569
-5.39999
-17.8998
-1.36864
3.29209
-0.563176
1.35231
7.7385
-0.1989
-21.1769
3.37531
-8.04905
4.71284
-11.6546
-2.80086
9.35568
-17.1034
7.23442
1.9713
1.9862
7.34326
3.48069
-3.62377
4.64814
1.11677
6.71757
-32.2356
6.80906
3.67525
-1.80098
-15.1604
4.31337
-10.467
10.4675
3.62441
-17.9852
2.02556
-7.88491
3.27938
0.427738
-4.97724
-3.31862
6.77621
-35.9094
1.88242
-8.42067
-0.244671
-10.2347
3.45054
-17.3432
5.56311
-19.7223
6.98142
5.97766
0.254728
2.64543
7.75251
-1.40319
2.50057
-9.16755
-12.4656
1.60398
-8.70719
4.43763
6.13097
-6.98971
-9.08154
-17.4087
-2.5354
2.95033
1.49392
5.61352
-16.8028
-11.4753
4.27736
5.75117
2.19073
1.58413
-0.426259
2.66476
6.20283
-3.17273
3.59918
-4.90256
1.84391
3.17628
-0.92296
-2.4169
-13.2169
3.80436
-9.30036
-0.424007
-12.7545
-15.3002
1.04382
3.34989
-11.3005
5.62842
-9.05448
6.21583
6.32063
3.29156
-0.579253
-21.2349
6.02206
7.68611
11.1301
3.30755
2.56209
4.32588
2.58056
2.21389
5.33594
1.46954
3.10167
8.5382
-0.315249
4.24087
10.5379
0.374277
4.37877
-34.502
3.55219
7.6415
1.94587
3.24081
-9.3104
0.0266219
3.73294
10.0572
-5.45741
-14.2674
3.94303
2.51931
2.61487
-13.7324
6.16359
-0.375647
-14.5504
3.53708
-8.9372
-3.05944
3.42022
2.8058
6.77472
5.99615
0.420055
0.0018078
1.80763
-19.7385
7.79896
3.65932
0.454472
3.83436
1.29649
-9.49906
0.865476
5.61805
6.07442
-28.0961
-10.9339
-9.00227
5.45037
1.09901
9.05606
7.24561
-20.6052
3.21752
1.75212
4.28984
-16.6998
-11.6932
7.49048
-0.180446
3.48834
7.59853
8.96114
-0.0641954
-15.0619
-9.82332
-17.1479
-2.68997
-16.8472
3.27144
5.01139
-13.0529
0.710968
-6.81687
7.48788
-3.24917
4.01515
7.08419
4.2091
-1.32124
-0.679213
6.22902
6.03912
8.37408
-10.0662
-0.142743
-13.5393
3.50067
6.06107
3.87614
10.123
4.53303
-0.440993
1.38654
2.45272
6.13655
-15.0132
1.7111
8.51912
5.06411
3.44707
1.45993
-1.24296
-2.1455
9.08999
-17.2453
3.34527
8.65241
-18.5416
0.179133
-14.7732
-0.743038
-2.67499
6.29798
8.00414
8.6184
-9.20823
-0.526315
-9.14266
4.45015
6.31945
-0.917014
-2.82029
5.98349
-10.5578
-10.8434
-7.24009
-9.05286
1.4122
6.92555
0.00132392
1.79034
-15.2362
5.99517
0.0632406
11.459
7.78968
5.48582
2.01444
-0.0384083
0.0215582
10.4401
4.22716
-0.264352
-0.356446
4.27298
-17.8228
2.60817
4.80044
-0.735887
-0.771643
7.25946
-4.7552
-17.4213
4.50003
-12.4959
12.219
4.56565
5.5734
6.4605
-9.88649
2.45296
10.0972
-0.772195
7.6694
-2.7725
2.80168
-18.2736
-3.01823
0.594165
-18.8478
6.42625
3.8007
-10.3902
0.0122576
0.588971
8.99871
6.26915
3.49914
3.97416
3.83351
-0.655858
-0.633007
5.63531
-13.0692
8.94015
0.225759
-3.81945
9.10631
1.01548
-0.0611587
4.01944
-20.077
-11.1038
3.56237
0.148331
5.21769
7.8134
-11.4457
-1.1233
-11.5661
0.0461842
7.29236
2.8185
-10.0828
-14.4571
3.5891
-5.33154
2.81541
-8.43125
-2.60467
3.98358
8.41634
-12.7933
6.6919
-10.3385
-8.96175
-3.83537
3.39268
-9.36932
6.1472
2.53752
-8.20948
3.71887
5.89565
-3.28381
-11.1525
5.58338
7.54201
3.0268
8.48611
2.46694
4.68011
2.53974
6.4093
0.912958
7.25527
-14.0329
3.12677
3.67508
3.54584
-1.14946
5.98172
-17.7746
2.68031
7.78081
8.4627
-17.0943
-0.562086
2.82005
1.99471
5.16824
5.21646
-3.3885
-13.2541
1.5391
8.07546
2.19985
1.9032
-6.0347
8.55238
-2.1914
0.978817
5.91891
1.81851
-2.2942
1.94166
2.46338
2.64438
-5.43805
3.30927
-3.60301
8.30748
3.98108
4.12736
4.23814
-7.4269
-2.61704
9.80793
2.93086
9.78059
-21.0672
5.69183
-0.0282869
-14.7196
-0.119086
4.30204
10.4063
-9.17519
0.864311
2.32552
-6.04627
4.17041
-4.139
-0.405171
5.00547
-11.0403
-0.867401
-2.39129
1.01966
2.95375
6.40272
-0.00566808
9.24987
5.15804
0.00832472
-9.22666
0.73378
3.03569
-9.92808
0.586069
-18.4231
7.14905
-0.000127811
1.06903
-5.789
9.04586
0.00374053
3.18355
9.00917
5.58112
-9.7238
-13.0008
3.91477
1.84678
3.46171
1.04853
-16.5575
3.27412
5.18906
2.85218
4.71613
9.19079
0.987045
-15.3628
5.97778
4.55894
0.583544
2.61237
4.97325
3.60197
-9.91845
2.51193
-32.2145
2.46742
7.28387
2.91461
2.55376
2.48335
-6.85428
2.64368
6.49127
0.854236
3.26592
5.11176
8.45306
-5.16377
-1.87311
9.72484
0.364371
-10.717
5.89159
-2.09701
6.85762
1.09647
5.90933
-13.4886
-14.7847
-3.77852
-0.000455821
-17.6297
4.06987
10.1038
1.17184
-8.15893
-0.448955
6.64323
-26.2011
3.56713
-5.95111
10.2457
-9.92298
3.89564
-1.10042
4.31415
6.23471
3.76849
-8.36809
-14.3031
8.9398
6.07029
-1.24402
5.17848
-5.70268
3.69317
2.79533
4.23985
-13.599
3.52313
7.38557
1.27073
-11.5573
2.29738
-11.1714
0.832518
-7.85734
6.18075
6.62773
-18.0179
2.69214
-9.87441
-14.6774
2.67425
2.98449
2.91306
5.89703
1.16418
-3.12827
5.63556
-8.88372
-7.0556
-14.8823
-0.909635
-17.5057
-3.39004
-38.2432
-6.40525
3.39668
8.70788
-0.131883
-6.47686
9.03621
8.3476
-17.7372
-5.69088
4.44673
-18.3752
1.35333
-25.2608
1.61037
0.682318
-17.465
3.60797
4.70118
-0.642582
-8.96408
-3.76677
0.798199
3.82196
4.04734
4.08889
-16.0301
5.97873
8.1226
-25.5231
-6.88102
5.00105
-3.09032
4.30635
-31.6606
0.844627
-15.2888
0.94722
6.14302
9.81276
6.16712
-9.52517
0.87266
6.0379
7.99505
1.64806
4.74568
5.87354
9.01024
1.04182
-36.0719
2.12359
4.18368
8.87499
2.70107
2.54798
4.07264
3.2912
2.94781
1.01622
-3.29744
5.97418
5.93513
4.77284
3.77167
-22.646
0.269117
3.22095
0.848265
-3.96531
-0.206614
1.16367
-6.74725
-7.95215
4.00058
0.826327
-15.0909
-15.5242
-2.73915
1.54788
-15.0193
-11.8828
6.45898
-20.2534
8.52855
-21.1026
-15.136
5.44043
7.38864
-0.225464
1.72865
-4.37158
6.36941
0.00962763
-7.30201
-2.25767
-0.966208
-8.6073
5.93084
1.00673
4.26369
-25.0896
4.38211
-15.3143
1.02376
-0.346841
6.37211
-1.72735
-11.8399
-6.29918
8.46924
-21.3329
-15.5317
-16.5013
5.86051
-12.2206
-17.9362
2.929
1.86226
-34.3749
2.51655
-7.14846
5.77423
5.95732
5.73859
3.62571
-7.02447
1.24599
5.09367
-0.154845
5.61156
5.07967
-3.90243
-16.0846
2.90292
1.12888
-0.704825
6.75501
3.36588
4.42629
6.04806
-5.99575
3.8259
10.252
1.02145
-4.96059
4.74303
-3.702
-12.9434
2.931
-15.3561
5.83928
1.06156
0.392197
0.848525
-4.44191
6.24801
-9.78793
0.00335972
6.06762
-4.79645
8.6538
6.87724
7.09804
3.0213
4.78642
3.20959
2.12723
2.08977
5.3093
-12.9957
3.48115
-17.2628
-0.261235
-5.9869
5.73767
-7.76015
-4.15825
-6.94369
-12.552
-0.654327
6.16828
-0.173673
3.26323
-13.8609
6.05817
9.94546
-4.90484
-9.8973
4.20974
-8.14752
5.73383
0.267739
-31.3175
6.13627
1.49615
9.21434
4.10282
6.01035
0.997695
7.23253
1.38246
6.93218
0.205469
-3.43848
0.248314
-8.33875
4.0548
-21.4951
-10.9574
8.56632
6.04888
6.71266
7.69878
6.77801
6.40383
3.12195
4.72316
6.08091
6.14094
4.08087
-0.169666
-0.898392
-2.2919
3.17848
5.01746
-14.7788
10.1231
-3.19438
1.07177
9.81952
8.09728
3.65955
-6.34475
5.42164
3.98219
-6.31641
4.19643
-14.8205
-0.604628
5.99936
7.38073
-33.7674
4.88291
7.18418
0.000174143
-0.450427
7.4076
3.53656
-0.549097
-12.0618
2.46665
-3.07512
5.92594
5.73383
-4.20733
-12.3669
-0.306679
3.227
-6.32733
2.94222
8.61118
-4.49353
11.109
5.78685
3.35048
6.3711
-9.55117
-13.3944
-12.7882
5.85211
-31.2185
-13.1824
-16.9245
3.81514
4.41547
-35.9049
1.0326
-16.9722
1.60062
-22.6731
-24.6815
4.27938
3.21652
6.81844
6.16429
6.54513
5.14884
3.68991
-2.53826
-1.75022
2.46254
-17.4949
1.94603
4.18079
-19.966
-4.8
-3.87762
3.13421
-5.60059
4.16334
3.91295
2.12795
-0.636586
3.31492
-1.3377
-2.30429
2.44925
-18.045
4.89852
4.96975
6.26763
-14.7936
5.66803
0.963554
7.83312
1.32349
3.99766
-7.24518
0.726134
9.15682
10.3758
4.8022
-0.418621
4.73315
3.99423
9.22793
1.95398
-3.03944
-6.01808
2.78285
-2.49752
-22.8191
6.04031
5.65062
-29.8695
-3.76293
2.29265
5.14913
10.2826
-8.78434
5.25877
-17.2507
2.38905
8.45279
4.27943
3.56686
-15.5086
4.44933
3.4934
10.8936
-2.19947
-0.855877
3.8703
2.53462
-9.43666
-14.7455
-4.5772
6.77553
1.12782
-0.0899882
8.37829
7.88457
2.14727
-7.80005
-2.32462
2.34781
5.33541
5.5179
7.25094
4.19744
-16.1984
7.73509
3.36885
-6.32785
2.54052
6.35692
6.2031
-9.54268
-13.5306
0.000447237
5.48794
8.8106
3.8917
2.42127
-2.99984
10.3618
-23.0863
-2.52628
9.35284
5.57107
-13.7116
3.95289
-14.9396
1.84383
-1.04728
-22.0513
-39.1774
-11.1845
1.6586
1.04798
-18.1305
-17.6081
-15.4385
0.3777
-16.9801
-10.2137
6.82395
5.88869
-0.925476
-17.8383
3.34072
2.25142
3.32254
11.046
1.65134
-1.4061
5.57335
0.822521
-10.5808
2.29806
2.10276
5.64875
11.2966
0.0066526
4.28155
-4.44139
2.69024
2.04749
3.62461
-0.568204
7.84273
5.08831
6.32416
-18.9184
-2.89774
1.50966
4.60774
6.04436
4.44518
6.12677
10.3555
9.69095
0.871496
5.59659
7.35723
-1.28914
7.09967
-9.32143
9.5518
7.0011
1.6392
6.84933
3.85778
2.59227
2.07704
6.37327
-2.38373
4.59136
0.702058
0.950599
0.759583
5.77156
-7.26222
3.17108
9.11285
9.07135
2.65825
-14.7597
2.98375
-6.92341
4.22524
5.49527
7.89721
-14.7894
6.15739
4.4644
3.54526
4.65066
-6.79427
-14.6042
-4.69054
10.805
2.10271
-1.03884
7.12259
0.770936
1.11458
3.81732
2.76596
5.11041
-2.42442
0.95125
4.08724
2.63955
1.48567
2.2675
9.95524
8.03174
5.92401
9.071
8.81103
2.00822
-7.30526
-6.03189
-3.88248
9.08645
-20.2541
5.4015
4.0998
-9.1756
1.80109
6.28112
-5.90666
3.59054
4.77023
11.431
-13.4511
3.49502
-12.9388
5.08187
2.358
-17.6051
8.83083
6.9775
4.59477
5.84303
0.219134
-1.62617
-19.246
9.67203
0.328619
10.803
-9.64959
1.89423
-15.1971
-0.81407
-14.5955
2.88692
-11.0375
3.19452
-9.75154
3.08914
-16.6402
0.00139737
-8.00121
-14.7421
-0.284571
-7.99332
-3.90409
2.78547
-15.1213
-8.68073
4.18116
4.37381
8.30058
5.97626
3.25497
3.49996
12.4361
5.31679
-15.7519
0.00460851
0.887143
5.16699
4.67813
7.86267
-2.64184
-2.53993
2.07916
0.000460259
3.03975
7.61641
-14.7916
-8.96029
-19.1836
9.80802
-13.6886
4.13011
7.01577
-10.8633
3.35432
-7.84487
-12.9674
-12.3603
0.538958
4.69016
5.78913
6.919
-7.76525
-14.8775
0.63478
-27.2252
0.253894
3.45086
3.09542
-2.45776
-9.72074
-14.9316
-13.1442
-3.94146
8.37173
-15.8726
9.65803
-8.91191
-4.24379
3.01739
-28.8461
7.47069
3.58581
7.40979
-5.1415
-0.716847
-13.0242
6.91741
-14.5828
4.9263
-33.0058
7.73065
7.70779
-39.1817
5.86746
9.05558
5.1904
6.1547
-8.77043
-12.184
3.2455
-1.76512
-10.359
1.45669
1.05885
2.38371
-13.9931
2.93457
0.728761
2.85288
1.61729
0.344734
9.52205
2.64468
0.000111893
2.52367
5.9457
-5.03249
0.0888361
5.36607
-1.24414
2.20501
0.377891
4.2775
5.96221
5.79097
-9.60788
5.92195
6.85548
5.72437
1.21588
1.13653
2.58202
4.31934
-2.82659
-13.6252
-16.7649
-5.15082
-15.0791
0.0778434
-14.5294
0.86727
-14.6414
-1.43377
-5.52373
0.700038
-2.62166
3.2779
-10.6513
6.35177
12.3943
3.16478
-7.43528
3.66469
2.03549
2.97966
0.314721
0.525258
-7.17399
2.42507
6.92233
0.0411134
8.80443
0.264671
5.76894
3.01495
3.32492
-15.4534
-0.446427
10.5936
-15.4534
6.00476
5.90539
7.81993
2.29769
6.95073
4.45698
-15.1882
5.07496
-13.7693
-21.266
7.07398
5.57532
-7.00699
1.81819
7.44117
-5.98065
-7.00112
0.810304
0.970915
5.35744
4.00411
6.28867
3.56738
4.79179
-8.77806
-0.395321
1.09563
6.20893
10.7488
-0.0755183
-25.1986
-15.034
3.79249
2.48041
2.47945
-1.40012
-2.44467
3.31179
-12.1921
3.4852
10.1591
3.53344
-8.92543
-16.5583
-12.0729
-2.27509
-17.493
-3.78259
-8.53119
7.27768
4.0052
-0.720021
9.89045
0.00652946
-11.8309
-6.03097
-21.5858
5.26862
-13.3055
3.0742
4.70912
-6.01316
1.3199
-8.87052
-15.9483
-21.004
6.69244
-5.76833
-8.58051
-18.9311
5.91795
6.16985
-13.4996
7.03394
6.16037
8.27353
8.93076
5.25138
2.68089
10.8751
-19.9096
4.13031
-1.6761
-7.03414
7.45476
-17.4033
9.04442
3.73666
-4.24631
-15.1446
-20.3927
6.51683
-16.888
-5.27937
2.20733
-2.0485
-7.97048
4.45043
2.3491
2.82056
9.8002
-14.8084
-3.74226
0.316302
4.14228
5.24434
-2.33497
12.2205
-12.906
0.606341
4.85819
-3.91441
5.86725
5.01381
5.97937
5.20735
-7.71992
1.9393
5.17385
2.87383
-12.3993
-0.160012
4.86997
6.3607
7.12731
-13.888
2.29149
-1.17322
4.36566
2.57879
-6.58645
5.47651
-13.124
5.52691
6.26172
-17.6485
8.63253
-5.56624
10.4578
5.51542
-5.07083
-0.00499
-0.507402
3.93274
6.44599
-5.45428
7.15215
5.97939
-0.499655
0.793217
2.77735
0.340131
-0.63263
-18.2514
1.14186
-21.1648
5.95586
-13.2902
-5.9069
0.992423
7.26614
7.44536
4.46949
-13.5609
3.83235
1.9883
2.64437
4.0891
-14.044
-12.9722
9.57312
-1.14768
-14.3905
-2.1355
-20.1666
-9.93443
6.09212
-17.9809
3.12055
6.44184
2.67655
6.26684
-10.3872
3.50231
10.0228
-8.55471
6.15394
3.23894
-10.6239
3.15227
2.92844
-0.0759828
10.1522
5.80409
-8.75671
10.2075
6.84654
7.33983
-26.6422
-13.4276
0.245131
-4.77853
-7.6256
-8.78594
-3.97013
-8.21925
3.83136
3.47232
1.55798
2.53578
-10.9906
1.67007
6.37988
-20.7947
4.16296
4.47237
5.99165
1.84854
-0.737552
-13.7069
-17.6692
-10.8895
2.50937
6.34335
-7.11286
8.24025
-9.43678
5.88061
0.453999
-4.21023
-1.59918
5.69486
3.76658
2.60044
4.35479
2.18117
-5.46834
7.60431
7.57064
-2.71329
-7.92193
-4.66965
5.68223
1.50054
-1.98588
-7.23543
1.54661
4.18098
-1.6119
4.64749
2.32999
0.952487
3.74417
1.34384
-6.67331
-6.64095
7.52436
-12.2296
5.76582
0.0288598
5.52686
5.89477
4.20361
4.601
-2.96481
-17.2082
-7.06459
-13.5075
-16.2612
-5.12699
-30.2078
-13.4788
5.34855
1.20524
5.92533
-9.54919
-3.5763
-6.79421
-10.957
5.80659
-12.5831
5.2664
2.98799
-7.18577
-8.92064
-12.2595
4.1681
6.18962
-8.34177
2.75225
-13.7697
5.29437
-0.118456
3.23799
-9.27953
6.99598
3.66434
0.0471272
6.19711
5.11221
6.44471
3.72681
7.74182
-9.02663
0.599558
-8.3639
3.45397
4.49507
3.06214
-4.51458
-5.96689
-6.78194
2.14891
2.25463
-5.70025
10.0095
-9.67364
6.02217
4.02634
-5.94908
-0.769568
1.67239
-2.79782
2.01122
2.58726
5.89776
-5.5718
6.04686
-7.13881
-2.39317
-12.7769
3.05665
-6.20838
5.91988
9.9621
6.3461
-0.294796
-4.09669
4.86423
-15.245
-4.0803
-8.40901
4.02039
-3.54277
-5.22084
-6.29872
-0.486257
4.34765
3.77298
-10.8411
3.02996
6.68668
-0.739968
-5.90606
6.51251
-6.48478
-10.7025
0.736179
0.422076
0.0589618
9.94912
-8.05381
4.06911
-3.65434
-1.74454
-0.644583
4.87045
3.01445
3.43727
-2.67108
-1.63052
2.03362
1.3101
6.93003
4.72632
2.293
-10.0457
2.26501
10.3029
-13.6078
5.90342
5.92114
1.40389
0.61994
3.58533
-14.7794
1.61329
5.60698
4.37946
5.27392
-14.3442
6.56507
2.04751
8.41487
1.86959
5.6946
7.2411
5.45704
2.62806
-9.83323
3.02894
-19.511
2.49068
3.68696
6.45346
1.89714
8.25356
2.69954
8.911
-34.254
6.19805
0.711316
4.094
-12.5473
5.87025
3.37784
3.56081
9.54357
6.07864
2.95323
-0.353689
3.84667
5.80353
-7.78948
-17.2339
4.25116
0.795592
7.26687
-12.8887
8.4452
2.6811
12.604
9.10047
1.50839
0.37282
-12.5878
1.75887
9.45283
2.08226
1.21486
2.86963
10.5729
3.97484
4.20988
9.63857
-1.84187
6.20331
3.27588
5.87723
1.12058
5.0658
5.64677
7.04476
-1.12246
-26.1739
3.25238
-11.5279
3.24856
-5.13826
-1.33197
8.0925
7.99952
0.316738
-1.97668
3.82582
6.41997
4.62134
4.58527
4.41946
-8.4635
-13.1866
-16.3945
6.22567
-7.08735
-10.1388
2.94933
2.80032
3.60441
-0.597216
10.3081
-13.298
8.24479
-2.99974
9.89729
0.434767
3.57972
-2.02709
1.44075
4.75927
5.96734
-2.79987
-9.31761
-35.2979
-10.9419
7.5832
-0.210178
1.5172
-15.006
-8.92262
-3.20293
5.88526
0.277667
0.145393
0.315208
6.03212
10.8014
-11.4834
1.81358
4.49248
-3.78504
3.85708
-35.2723
1.22622
-8.84563
-15.7552
1.26636
-14.2399
-1.94681
0.730575
-7.96471
-7.63938
1.41759
5.10777
5.97039
5.52115
10.3324
-10.464
10.401
-12.8411
9.6336
-5.47823
-2.20916
9.88532
3.48128
-12.638
3.82479
0.0932774
4.73345
-13.8052
-18.4892
2.70696
-0.218966
-1.23111
0.00958597
2.13978
3.39277
5.90932
-6.51451
3.5857
-6.99054
3.21099
-14.2911
-8.8702
3.90792
-12.0102
-5.16459
8.5777
-6.35288
9.09293
3.4488
-12.8882
3.16717
-2.92556
-1.57558
5.45364
6.81108
10.8605
5.07156
5.65426
0.539654
-14.8551
10.5158
10.8654
6.57912
-1.67049
-13.918
-19.9911
4.68504
1.89193
3.08274
6.01626
-18.1853
-6.10573
-20.0773
9.4245
0.684068
2.03445
-17.784
3.99073
3.79056
12.013
11.2058
4.93981
2.29364
2.10912
-10.3197
3.60793
11.4888
1.51439
-1.38714
2.40292
0.0804591
2.74848
0.757018
0.206694
2.84808
1.76052
3.69134
0.201771
3.0031
7.56134
-3.56074
5.95977
-18.4969
-0.0528082
9.44589
-7.25673
4.02313
-3.06112
3.59071
2.6489
-12.5888
-4.3316
0.761874
2.44252
12.2324
-15.6458
-9.85352
-5.67579
-1.80936
-0.518413
-3.28606
-13.6448
-7.61956
0.0715668
-10.2563
-2.607
-1.63129
2.58146
2.46822
1.90835
11.8514
1.95563
3.19384
-2.62278
2.4585
-14.8999
2.32996
8.29022
5.87409
3.27658
-9.1566
5.47443
6.10379
-3.02652
-5.28693
-9.18477
8.2937
-0.749972
5.75286
1.6561
8.49977
1.97085
-18.9496
-4.76241
6.37684
0.444465
5.67383
-1.92574
11.1357
-14.758
0.319431
-15.0008
3.87601
-13.8428
-2.29232
-15.1214
2.68164
-1.83867
-13.1647
-12.9983
2.21528
2.84329
-2.7637
-2.69086
4.57349
-21.9682
4.215
-15.543
6.398
10.3363
3.76794
-14.9357
4.45583
2.35878
3.90672
3.2431
-0.194383
-17.7284
0.411173
0.520614
-1.91307
1.41549
-1.50972
-8.7441
-11.5002
3.87486
6.04292
-2.65141
-12.7011
-0.318331
0.0284652
-9.26286
2.99795
-8.37309
-12.7981
6.45426
-10.3101
-0.408222
-2.81812
-13.9255
-10.7927
-10.1861
12.3241
3.14085
-1.36003
3.32641
9.96319
9.46612
-18.8794
3.16047
5.98866
-5.78027
0.0118504
10.1427
3.72445
2.71202
12.3549
-0.0464975
-2.81572
2.1605
8.684
6.21716
4.45362
7.92366
4.81874
0.617407
1.77227
3.71391
2.9375
-17.1176
9.99771
0.135983
-1.21429
0.210343
-2.16462
3.01032
-18.4396
2.62618
2.97178
5.01251
6.48659
5.22018
-15.4435
8.80752
9.66999
-9.58314
3.93033
-5.70242
-21.6696
4.02474
4.35006
-11.7598
-0.83333
0.425583
10.8575
-14.148
5.74499
5.85695
6.58452
2.23969
4.44148
-9.24921
0.491747
-0.254479
-9.02534
-24.5284
-6.44888
2.24747
-15.0744
6.69584
-14.375
-12.1315
2.50418
-14.6912
-17.1862
-18.3471
5.0575
3.31213
-6.82846
3.62774
-5.8456
3.17237
-11.4192
-5.35199
6.24693
-12.5615
10.2924
0.098214
11.1502
-0.000260204
-7.80071
2.4683
5.57883
4.08209
-9.70039
3.1652
0.448059
2.39481
2.91245
12.4914
6.62406
1.84699
-0.551466
2.17079
-8.57394
5.2007
-9.7723
4.38491
-17.4373
-16.6248
-13.9474
-2.69706
0.578568
-14.5159
4.57648
3.87362
9.38587
10.65
-17.5628
-17.4771
-2.89386
-3.35248
9.76188
-0.385861
-0.437272
3.56686
4.88556
-20.7069
-0.236055
1.81821
-0.854401
3.25203
-19.5355
-2.33308
-8.9269
-2.11733
-8.29429
0.0839915
-8.27878
-7.36237
5.29671
-17.9649
-19.1291
1.60647
-2.94173
11.0926
1.37926
5.79879
-1.68784
3.15674
1.25688
2.08898
2.94768
-14.0648
-13.9916
9.70065
6.16804
1.34744
-15.8061
11.6417
-16.0026
-13.3931
-16.8028
0.885472
-13.6775
-20.5485
8.52277
1.06306
4.26811
3.40814
-15.256
2.21598
-2.17088
3.82329
-9.04177
1.50389
3.01486
5.25527
-12.0481
-13.5515
-1.6674
0.692318
-4.19459
-3.6298
10.9784
4.64065
-5.42289
0.543535
2.70608
9.1048
2.3413
-14.4884
1.24865
7.40444
4.57253
-0.344662
5.67008
-9.59427
9.59476
0.519728
6.31194
-10.683
0.112422
0.134543
-17.8898
0.346144
3.14874
-15.1146
-12.7956
6.09756
-8.93847
1.10234
7.87876
5.17292
7.68043
5.76166
-1.85629
0.187248
1.63716
4.76814
0.0240213
6.21293
1.93952
9.63856
-14.7924
7.47705
-1.1209
10.2148
-15.222
-1.81173
10.1455
-15.1221
1.57422
-14.6964
8.05311
9.89846
6.33734
-6.70708
5.9811
6.8707
-2.34917
3.73359
-20.6275
7.41592
-15.5592
-12.821
-18.2045
-19.0867
6.77147
-0.604603
-25.5711
3.24995
9.81218
-0.983328
0.702771
-20.4532
-2.51679
2.27828
-0.869711
5.84587
4.87556
-27.1679
11.2826
1.84339
8.5176
7.33651
2.1288
-0.451484
3.82947
-6.06542
1.50046
3.30841
2.98657
-0.364497
4.7997
-15.6313
9.78347
6.59463
3.01794
-7.23173
4.79059
-17.0644
4.5551
6.69467
2.85005
0.180278
6.63636
5.27861
-1.20946
-14.8025
1.89268
5.51245
9.61576
-14.7561
10.3117
11.1559
10.616
-9.55176
6.68011
-9.80529
6.01513
6.76035
7.56542
5.52961
7.86689
11.9615
5.61456
-14.5203
-5.65249
-14.05
11.856
3.43523
-10.4158
-12.7793
6.14307
8.87794
5.47111
3.09725
3.07213
8.50868
-8.98724
4.90495
-13.0179
3.6596
-7.22087
-3.27592
3.7556
-9.59904
-8.97429
-11.6626
1.05637
-17.1316
6.57579
0.410423
2.56146
4.93552
-11.2436
0.148306
0.0667759
-10.0099
-11.3161
-14.317
7.56159
8.67643
-16.0636
4.61362
7.28969
7.74052
0.313206
-7.81201
5.5144
-16.7197
7.81536
-8.90331
7.6249
4.63973
2.15226
7.30867
4.13936
6.994
3.12187
3.73262
0.405852
-14.8935
-17.7094
-6.50854
6.87192
-6.79548
-21.1614
-6.56389
8.99377
6.73113
3.30985
3.11186
8.29118
-7.09496
4.82122
-19.4929
-0.399108
4.89788
-19.4416
-14.9814
-3.2707
-18.0177
2.77159
-5.00766
-16.6352
-22.8844
-15.0266
4.0772
9.98799
11.0351
9.29948
-6.87116
4.95433
-10.4404
4.97368
8.65961
2.22429
6.78556
-6.14905
3.19249
0.00279253
1.10157
7.41711
-2.14769
5.57225
-16.5277
0.135203
-18.8539
6.65432
5.6035
5.99466
-13.7613
4.96384
-14.317
-24.0814
-22.2953
3.16723
9.81182
-9.15247
-1.10319
-13.0853
5.64581
5.87652
0.697949
4.43281
-15.4169
8.43424
8.55956
-21.1681
0.375441
7.85513
-20.0021
-8.83158
1.48698
7.41846
8.15411
-10.3939
1.43928
0.823916
9.83916
-26.4932
-5.7742
1.07702
8.88126
1.45572
0.662859
-11.3628
7.0667
5.19293
7.27218
0.900189
-8.03568
5.59484
11.6714
-14.7755
2.90895
1.30228
-27.6036
1.35638
3.25073
-11.6426
1.16168
-15.3466
4.58816
-18.4698
-1.64307
6.69225
7.91632
5.00875
-5.49521
-5.00408
5.21283
-15.6287
0.0741623
-0.697282
3.30472
-23.5927
6.79755
5.39195
1.19239
4.62032
9.37134
-5.8529
2.36682
6.54404
-20.4772
4.50596
-0.548053
3.10628
-1.42752
5.22256
0.0649122
3.20828
4.11934
-8.29952
7.19435
-1.0722
3.90414
-18.6199
0.264232
6.14691
-18.1578
10.5398
-13.4313
-20.0268
-8.98122
7.38267
5.403
6.69932
-15.7048
8.86746
-7.61002
1.88436
1.86096
-11.9184
5.82159
3.3792
3.39091
2.85056
-13.4905
5.24176
-17.7884
-19.0603
0.0122996
-7.90739
-9.18544
3.48427
9.33809
-1.73935
-9.81993
6.67442
-7.70667
8.15882
-1.62467
1.62321
4.67673
6.13654
3.33442
-14.1298
0.252282
1.36371
2.72362
3.33288
-13.1147
-13.7661
1.4005
-0.167034
1.22791
12.0323
5.01467
5.97469
8.13253
2.32977
6.62946
-5.80251
-19.3784
-15.6121
6.00957
11.6469
5.0347
-2.18152
7.32506
3.28615
3.61703
-6.54833
1.21955
3.73567
10.568
-3.14359
-1.54054
9.29017
7.44822
4.30048
5.40064
6.57768
4.12076
-13.5709
-9.67924
5.57418
-14.6299
-14.4817
5.84651
-12.9537
-7.64144
-2.14666
4.73811
4.93013
5.46863
1.04096
6.79791
6.93912
3.76213
5.71784
5.10367
6.42764
5.48639
0.752416
3.22565
2.58156
7.22657
5.48048
-8.65397
3.42575
0.975549
-5.02851
9.27234
6.03495
0.141985
-8.36426
0.926243
6.1585
2.02597
2.88487
-9.20656
2.68153
-12.0883
2.7719
-10.5109
0.603449
1.31045
-6.52935
-7.22302
-14.2381
8.37167
-11.712
-12.6333
-9.86099
9.48407
-13.0068
3.19703
2.52228
-21.1117
5.60816
5.8029
1.52263
7.68969
4.55604
1.53356
-14.5501
-8.36829
0.412306
7.12247
-3.69629
-10.5747
-27.1126
-5.07894
-13.1754
-10.8486
-9.9216
4.29037
3.29532
5.96363
6.37232
-5.48303
-26.5581
7.80391
6.23781
-10.3239
1.0289
-14.2393
2.59069
1.75419
3.80369
5.43969
-7.92721
-12.5458
-12.3653
2.81259
-7.10236
-15.0507
2.65285
-7.39013
-17.5404
-23.4209
-8.36056
2.45906
-15.3102
3.3425
-11.1246
6.04573
5.61284
2.80735
7.48846
-5.22569
9.26702
-0.778616
1.74291
-3.00391
5.44219
3.90678
-14.7822
-16.9602
6.21545
7.3157
9.73341
-8.51498
-17.0223
-5.99251
4.30013
0.0166197
-14.2169
-1.25487
-17.1302
3.89599
-10.3198
1.62158
-2.3202
2.8544
8.55619
4.44447
-1.67295
-3.45797
-4.89657
-14.8914
8.06019
11.0132
-13.8762
5.76538
5.37345
0.0264603
-13.3265
7.2933
7.26074
-11.0932
-12.3334
-14.3611
-5.24633
-2.68781
-16.5703
-2.19416
4.8543
-22.94
6.67546
-12.2778
-24.5063
5.85372
-2.29422
-18.6477
1.75828
5.4528
-19.8807
-0.811064
-26.4861
-13.1493
-17.9132
9.90949
-17.6613
0.569876
-9.42636
6.13411
-20.1541
-9.56814
-8.27571
-11.3708
0.0640745
5.77508
0.0504828
-14.4979
4.84265
0.0312538
-4.45012
-11.4057
-14.8785
2.13208
3.54798
6.01187
-22.3852
7.95898
-4.74389
-0.00906907
2.06355
-6.97863
-8.36313
-14.797
-5.89903
3.13233
3.47145
-7.97753
0.380679
-2.9281
4.29658
-7.50343
6.15509
-10.6458
4.46635
2.66752
-11.8734
-11.0084
12.3466
-11.4638
-21.6227
-17.8674
-2.47415
6.00426
-10.7295
-11.744
0.87827
-26.9629
-8.63825
-14.8835
-16.0326
4.62889
-22.5871
2.14409
-27.4855
1.26967
4.87245
2.0614
0.329032
-0.325359
6.57055
-18.0323
-4.82165
7.21917
2.97047
-18.7684
0.309008
-10.3385
-2.5229
0.0584965
6.72909
-17.7187
3.64558
-16.893
-9.25823
-17.7163
-21.2246
-13.3645
0.174935
-6.55781
5.93189
3.43667
-8.69772
2.39799
-6.49783
7.32221
7.86613
-22.0222
1.94349
6.03042
5.94434
2.05526
-5.35371
-6.9588
-6.98472
6.01561
2.87883
-2.94756
-13.5269
1.39434
7.22214
0.594363
-3.92981
1.71315
7.21682
-4.28522
-4.71416
-10.4225
5.48237
2.13385
-10.1701
8.03915
7.18729
-9.09501
-6.69751
6.56103
3.91538
1.09339
3.1079
-0.540453
-6.06525
-8.2503
-6.34277
7.26515
4.56278
4.08888
-0.680767
-27.0898
-7.23519
5.23111
-6.90218
1.46839
6.68076
7.3275
-13.0371
5.84199
3.44341
4.78042
5.34104
0.900083
5.55794
-0.00340963
6.09585
4.43673
6.30772
-9.45654
7.10048
6.46936
5.63762
4.78024
-4.9032
2.62087
0.852378
-1.45968
6.8261
8.51207
-8.34526
8.51199
-5.93575
-15.0612
5.4998
6.11832
-7.13478
1.08768
-17.2172
-7.00443
-2.36338
-17.7744
-7.51073
0.107321
4.66232
10.9589
6.04511
-5.73444
-17.3027
4.9411
3.95337
-13.5631
-6.20985
-5.33083
-4.65112
-14.7631
-15.0091
5.84861
-40.7765
3.7673
0.428308
0.409649
-9.66755
0.69744
3.09347
1.09781
5.30308
-0.461649
-1.45653
-3.2603
-5.95111
3.93947
4.13105
2.97291
1.25321
4.8489
-1.8546
3.45364
-0.32553
5.95435
4.67975
8.77082
6.0037
-5.52998
0.0880514
-0.56456
-5.31067
-7.34228
-8.03611
-2.5399
-7.74303
11.2047
2.41406
-5.38411
7.87519
-12.2755
-1.63373
-13.6077
-9.12347
-17.3552
-2.04332
-3.47556
4.04095
-2.04956
-5.42868
-12.3286
-14.0588
-2.18284
-15.0124
0.445863
5.19535
-14.3387
-16.4966
-3.91283
3.30218
-2.78873
6.20325
8.13986
-5.88436
6.31213
2.49371
4.9119
9.53569
-10.9807
4.47579
3.77527
3.64394
7.48215
0.302502
4.59593
-15.5131
6.01743
8.13271
-17.723
-26.5036
-3.65792
-2.19582
4.00525
-5.08823
-6.72092
-6.38667
3.48698
-16.5253
2.92421
3.22156
5.6146
2.74513
-14.5133
-6.52954
-40.1091
-7.61861
8.92122
10.4316
6.84586
11.5733
5.88437
5.88957
4.94001
3.70981
6.27068
-3.63951
5.43957
0.161511
-14.8346
8.2475
3.99047
-2.74509
10.1441
1.54298
-5.44177
4.06329
3.67228
7.11025
-19.3051
5.84075
9.73752
-11.6166
-14.8562
-5.35607
4.15585
-11.1104
6.39064
0.92155
7.22944
5.99957
-15.2944
6.20033
-0.80695
-14.0881
-14.1578
-11.8177
5.74427
-2.68042
6.0881
0.708652
-15.102
2.36613
-9.66443
-2.97953
-5.8748
-20.203
6.21237
2.44854
-18.1375
-0.59963
4.76239
3.10353
-7.38316
3.93404
-12.8001
3.90785
-20.0089
4.56106
2.74615
-0.0414653
3.53094
5.382
3.94074
2.97882
-18.3625
11.323
-2.13653
-25.4241
5.43242
4.68622
-16.7451
-2.34867
-9.87845
1.62692
2.32785
-2.05339
1.06308
0.479285
11.5874
-37.2332
-13.1097
2.46738
0.279483
1.70655
3.15242
4.99138
4.76791
-11.664
4.01157
-16.752
1.81214
3.56441
4.8273
4.88903
0.0611347
0.0571161
2.2564
6.26715
3.86164
2.62361
-21.606
-0.920363
-0.404855
5.78565
-23.6526
2.97171
-23.7576
5.61666
-15.8878
0.405552
6.98967
6.33997
4.06178
-10.2944
-14.5112
6.37678
-2.91008
7.08993
4.15061
-8.90809
5.91791
3.2334
2.90066
2.66776
0.615363
-2.70732
4.85246
-10.0963
7.26388
3.39169
11.7145
1.39302
2.87585
6.57936
2.13922
3.13078
6.17222
3.21943
3.69632
-3.19022
-35.2726
5.18446
3.79569
1.95027
-6.75878
-0.235909
-8.26144
-16.8499
-0.092389
5.67847
1.22865
5.29007
1.17748
9.92921
8.04194
3.38006
3.64997
3.25026
-19.4609
6.01967
4.30401
1.83616
3.31805
6.86915
5.69919
-9.55037
-6.64096
-6.45993
4.09296
2.2145
-6.93741
6.24586
-4.97508
3.80532
-10.1657
5.39486
3.83143
-10.1346
3.64899
6.09981
3.45913
5.04252
6.52831
2.74903
0.359975
4.40411
1.55928
8.53675
-11.918
7.54697
5.8172
-15.5505
-4.59271
0.133538
0.626196
-10.015
-20.3488
5.92289
8.0109
6.71961
7.84435
4.84383
7.14901
3.59322
2.68558
3.78582
2.41791
2.07061
4.77545
0.65806
8.84431
3.16967
-27.3461
5.01594
8.14769
8.93625
-8.57605
2.86507
-5.04164
-14.9605
3.98231
3.6352
-14.7909
4.05604
9.61332
-19.0652
-10.4188
-8.84955
3.70593
2.29496
2.27856
4.55119
4.38511
-11.9311
2.14677
-16.4743
-10.6281
5.90586
5.8158
6.19277
1.52764
-3.86878
1.97976
2.22157