/*--------------------------------*- C++ -*----------------------------------*\
| =========                 |                                                 |
| \\      /  F ield         | OpenFOAM: The Open Source CFD Toolbox           |
|  \\    /   O peration     | Version:  2306                                  |
|   \\  /    A nd           | Website:  www.openfoam.com                      |
|    \\/     M anipulation  |                                                 |
\*---------------------------------------------------------------------------*/
FoamFile
{
    version     2.0;
    format      ascii;
    arch        "LSB;label=32;scalar=64";
    class       surfaceScalarField;
    location    "8";
    object      phi;
}
// * * * * * * * * * * * * * * * * * * * * * * * * * * * * * * * * * * * * * //

dimensions      [0 3 -1 0 0 0 0];

oriented        oriented;

internalField   nonuniform List<scalar> 
20045
(
0.527651
-0.601405
0.0737536
-1.11784
0.439522
0.678314
0.237812
1.79922
-2.03703
-0.410793
0.492737
-0.0819438
-0.903021
0.837432
0.0655893
-0.521124
2.10778
-1.58666
-0.934155
0.331277
0.602879
0.0656963
0.469751
-0.535448
0.493555
0.452174
-0.945728
-0.740915
-0.175646
0.916561
0.357962
-0.251391
-0.106571
2.36689
-1.20937
-1.15752
0.406116
-0.401322
-0.00479475
-1.2464
1.00286
0.243539
-0.289262
1.03275
-0.743493
-1.06244
0.321528
0.0676861
0.115221
-0.182907
1.28231
-1.86629
0.58398
-1.7408
2.50274
-0.761941
-0.76126
0.000311732
0.760948
-0.467589
0.454285
0.0133037
0.144274
0.261843
-0.19256
-0.925276
0.584907
0.875762
-1.46067
0.858033
0.136954
-0.994986
-0.952357
1.53726
-0.167125
0.156849
0.010276
-1.0857
2.08165
-0.995946
1.71436
0.0231015
-1.73746
-1.97969
1.07898
0.900708
-0.16532
0.182615
-0.0172949
1.44124
-0.968752
-0.472487
-0.8076
1.45024
-0.642638
2.09661
-1.2254
-0.871219
-0.601259
0.666955
1.78246
-0.853197
-0.929261
0.95687
1.19008
-2.14695
-0.0698179
0.421094
-0.351276
-3.35329
-0.0768166
3.4301
0.647604
0.522914
-1.17052
0.0107672
0.497666
-0.508434
0.173471
-0.244822
0.0713512
2.57697
-2.55443
-0.0225378
1.45288
-0.491575
-0.961302
0.637432
0.815446
1.16192
1.20496
-0.0223633
0.294595
-0.272232
0.971312
0.688669
-1.65998
2.29234
-1.33547
0.116843
1.74556
-1.86241
1.30791
-2.20116
0.893246
3.89227
-2.81733
-1.07494
-1.25189
-1.03759
2.28948
-0.0939256
-0.332514
0.42644
2.23238
-1.4526
-0.779779
-0.715972
-0.187049
0.469436
1.00776
-1.4772
3.92788
-0.236619
-3.69126
0.781001
-1.5886
1.48778
-1.72341
0.235632
0.224868
-0.0712149
-0.153654
-0.163057
1.65084
0.795189
-1.74767
0.952484
-0.409659
-0.0579291
1.1159
0.30289
-1.41879
0.866824
1.26816
-2.13498
0.112815
-0.442974
0.330159
-0.687844
0.111124
0.576721
0.896221
-0.402666
0.918693
-1.02799
0.109301
0.311027
-0.198212
0.878242
1.35414
-0.284427
-1.05122
1.33565
0.0631505
-0.111382
0.048231
1.12995
0.537791
-1.66774
1.27927
-0.809832
-0.920517
2.05046
0.462558
-0.75182
-0.211673
-0.0723839
0.284057
0.963949
-0.552317
-0.411632
0.918655
1.0695
-1.98815
0.900942
-0.756466
-0.144476
1.49982
-0.704629
-2.28574
0.363764
1.92197
-0.00551866
0.53317
-0.441323
0.580277
-0.138954
2.47012
-1.1584
-1.31171
-1.60073
0.0635695
1.53716
1.01811
0.1956
-1.21371
-0.866346
0.72773
0.138616
-1.44052
-0.3899
1.83042
0.781614
-0.151444
-0.630171
0.427046
-0.637649
0.210603
-0.217433
-0.806205
1.02364
0.633885
-0.672071
0.0381863
1.2014
0.512717
-1.71412
-0.103936
-0.0631888
0.0425046
0.348677
-0.391181
1.27683
-0.629224
0.0375748
0.159757
-0.197332
1.21061
0.571848
-0.504385
-0.742012
0.462561
-0.420056
-0.4995
4.42738
0.0805858
-0.521909
-0.234993
0.272568
0.440503
1.21039
-1.65089
3.47427
-2.24315
-1.23112
-0.234036
-0.493749
0.425518
0.0682312
-0.257579
0.326776
-0.0691975
1.1402
-0.812971
-0.327228
-0.535442
0.441517
1.5355
-1.94715
0.411651
-0.228627
0.366081
-0.137454
0.0544501
-0.316294
0.261844
1.11997
-0.26194
1.60599
0.490628
-1.21355
0.92912
1.27421
-2.59468
1.32047
1.86045
-0.578139
0.0392204
0.185648
-0.830544
0.679608
0.150935
0.12098
0.108395
-0.630721
0.522326
2.49995
1.39232
1.15086
-1.47973
0.328872
1.59205
0.172246
-1.7643
-1.9751
1.63472
0.340382
-0.492452
-1.10485
1.5973
4.16703
-1.66708
-0.1504
0.444995
0.271199
-0.21857
-0.0526292
-0.0470446
0.0240205
0.0230241
1.14433
0.79883
-1.94316
1.22856
-1.12854
-0.100019
-0.31751
0.126932
0.190578
-0.353064
-0.140685
2.80122
-1.52701
-0.696237
0.736031
-0.039794
1.19912
-1.98349
0.784373
0.484697
-1.73659
1.22556
0.448058
-1.67362
0.57099
0.39296
2.24226
-0.306977
-1.93528
0.416466
-1.4407
1.02424
1.92202
-1.83784
-0.0841813
-0.284447
0.400981
-0.116533
0.0359259
1.89645
-1.93238
1.84184
-0.12748
-1.64868
0.0508359
1.59785
-0.979285
0.802455
0.17683
1.75278
-0.834128
0.27629
0.624652
-1.27074
1.51617
-0.24543
-1.54202
1.77983
0.0211824
-0.396768
0.375585
-0.357804
0.32283
0.0349746
-0.0360736
-0.403802
0.439876
0.825639
0.0960058
-0.921645
2.56416
-1.22827
-1.33589
-0.478311
0.442237
0.208044
-0.992626
0.784582
0.208435
-0.0349642
-3.31683
-0.967596
1.29623
-0.328635
-1.27872
0.994052
0.284664
-0.0240378
-0.0931708
0.117209
0.222172
1.69985
-0.040496
-0.00654859
0.030361
0.240838
-1.37733
0.106593
-1.47253
1.86208
-0.389544
-1.35472
1.5503
-0.195582
-1.14163
-0.717668
1.8593
0.404296
-0.413165
0.00886983
0.809559
-0.923484
0.113925
1.52713
0.246548
-1.77368
0.0126422
-1.49894
1.4863
-0.749042
1.9746
0.419728
-1.14486
0.725129
-0.507481
2.04298
-1.70718
1.11008
0.597107
-0.00491318
0.00127285
0.00364033
0.73164
-2.15316
1.42152
-1.68331
0.597614
-1.35446
-0.491421
1.84541
-1.14118
-0.704232
-0.619141
0.629908
0.315635
-0.335128
0.0194936
-1.16219
-1.17975
2.34195
-1.6626
2.44303
-0.780432
3.90522
-1.67546
-2.22975
0.0634825
-0.442661
0.379179
0.546381
-2.4935
1.94712
0.290145
0.0678165
-1.43156
0.939113
-1.30332
-0.442732
1.74605
0.225647
0.0600149
-0.285662
0.169827
-1.13742
-0.094794
-0.0705264
1.69498
-0.102933
-0.33496
0.265142
-0.345716
0.427414
-0.0816981
-0.36314
1.18878
-1.89388
2.44026
0.255818
0.564595
-0.820413
-1.43594
0.304323
1.13161
2.17171
1.7335
2.28146
-1.54982
1.29273
-2.1495
0.856775
0.459328
-1.57617
1.11684
0.107557
-0.868817
-0.982706
1.42321
1.29159
-1.81271
0.829128
-1.11558
0.286457
-2.17144
1.24553
0.925908
-0.118331
-0.748015
0.372004
0.324794
-0.696798
1.30186
-0.344375
-0.957486
0.227443
-1.30426
1.34019
-0.538071
-0.158166
1.26084
2.36174
-2.09242
-0.269317
-0.0253723
-0.292042
0.317415
1.31927
0.157842
-1.47711
0.147332
0.257678
-0.40501
0.0999733
0.472829
-0.572802
1.71875
0.751368
1.18862
-0.768896
-0.172541
0.648429
-0.475888
1.65128
-0.452164
0.234057
-0.0181971
-0.21586
-0.383646
-0.0295997
0.413246
-0.26457
0.273545
-0.008975
1.81882
-1.20648
-0.612344
0.557751
-2.22035
-0.29089
0.0263199
-1.80908
0.579025
1.23006
2.03322
-0.582981
0.486915
-1.95945
2.9709
-1.55109
-1.41981
-0.0327381
0.258386
0.494936
1.63786
-2.1328
-1.22007
0.241632
0.978438
-1.9803
1.96297
0.0173254
0.497715
-1.53228
1.03457
0.00286425
-0.0166561
0.0137919
-0.95834
1.22697
-0.268631
0.107013
0.231139
-0.338152
-0.33698
0.108353
-0.306206
0.0486275
-3.17689
0.933748
1.11091
-0.576521
-0.534387
-0.115862
-0.304754
0.420616
0.752252
0.688987
1.03486
-0.205728
-0.292206
-0.0655986
1.23919
0.794029
-1.03054
0.0794583
0.951078
-1.34541
1.84035
0.760162
0.272592
0.171474
-0.287336
-0.596197
-0.0662489
0.662446
-0.0146276
0.00971438
-0.737431
0.837404
0.0844113
-0.221028
0.136617
-1.82894
1.76161
0.0673217
-2.6724
2.76144
-0.0890451
-0.347662
-0.27785
0.625512
1.5214
-1.65991
0.138514
-1.33872
-0.832719
2.71249
-1.85063
-0.861862
-0.227271
0.201899
1.69814
-1.20042
0.36398
0.746928
-1.4124
-0.165575
1.57797
0.993464
1.95132
-2.94479
1.9798
0.0653251
-2.04513
-1.61419
0.201793
1.70493
-0.993431
-0.711495
-0.337497
1.575
-1.2375
0.997355
-1.45932
0.461967
0.183353
-0.141716
-0.041637
0.27013
-0.0162423
-0.253887
2.24071
-1.75969
-0.481017
-1.02699
-0.948114
1.84372
0.518016
-1.67146
-0.157474
0.0733923
-0.457038
1.20654
-0.447971
-0.758572
0.00811449
0.30752
-1.07255
2.21688
0.631264
1.18756
2.00548
-1.25687
-0.748607
-1.6042
1.16147
1.69181
-2.51135
0.819535
-1.24336
-0.100707
1.34406
-0.560818
-0.290008
0.850825
1.00929
-0.801244
-0.72688
0.982699
0.141966
-0.0133215
-0.95543
-1.30835
2.72002
-1.41166
-0.407917
0.0622012
-0.37658
0.204038
0.215831
-2.19613
2.2363
-0.517551
1.13015
-0.493169
0.668287
-0.175118
0.00727037
-0.418063
-0.98488
0.66987
0.31501
0.591571
0.548627
-0.400706
1.03272
-0.632012
0.963911
0.264653
0.641884
0.564659
1.16234
-0.144226
-0.4481
-0.987836
1.33606
-0.959127
-0.376932
2.0569
-1.02496
1.73177
-0.706807
1.58052
-1.72512
0.1446
-0.923308
0.705876
-0.268087
-0.0494228
-0.140749
-1.29977
0.601374
-1.12014
0.518765
0.864554
0.840372
1.6549
-2.22459
0.569688
0.487369
-1.10591
0.618542
-1.94655
0.345818
0.0366446
0.74497
-1.06608
1.88799
-0.821905
-0.468832
0.645501
-0.176669
-0.841568
-0.0925876
-0.274485
-0.476483
0.750968
0.224725
0.000969796
-0.225695
-0.631418
-0.347867
0.731014
0.899313
-1.63033
0.100595
-1.44601
0.598628
-0.904064
-0.0192447
0.96142
-0.474051
-1.36273
-0.344453
0.198493
-0.242911
0.0444176
1.70985
-0.738538
-0.932882
1.53354
-0.60066
-0.266406
0.315467
-0.0490617
1.41762
-0.11576
-1.22495
0.776977
-1.03469
1.8977
-0.863006
1.5153
-2.31087
0.795564
1.06452
1.64797
0.127627
-0.0746225
-0.0530045
0.195431
-1.43879
1.17676
-1.7505
0.573745
0.111382
-0.0482314
-0.154548
1.30541
1.81924
0.417063
-1.05332
1.51265
0.339574
-2.08038
-1.99676
0.986421
1.01034
1.32058
-0.250682
-1.0699
1.87221
-0.350813
-0.734158
-0.923576
-0.798358
0.798998
-0.198414
-0.240214
0.438629
0.649648
-0.649337
-1.47006
1.31551
1.99337
0.583595
-1.61462
0.681734
2.32779
-0.484064
-0.353648
0.281712
0.0719364
-0.0450029
-1.15778
1.20278
-1.80105
0.33334
1.46771
1.59663
-1.59663
-0.636051
0.323907
0.312143
0.808956
-1.20966
1.24317
-0.769906
-0.473268
-1.88351
1.963
-0.0794885
0.711516
-0.0812947
-0.630221
0.564924
-0.200973
-0.363951
0.268323
-0.615985
-0.348814
1.18108
-0.8171
-1.62514
1.9354
-0.31026
-0.57782
1.30883
-0.03194
-0.0106976
0.0426376
0.0791537
-0.268978
0.189825
-0.760828
0.868385
1.95174
-1.60343
-0.348312
-0.194837
-1.02669
1.22152
-0.511001
0.542352
-0.0313514
0.31092
-0.580326
0.269406
-2.51405
1.41339
1.10066
0.358097
0.13464
-0.342833
-0.0108151
0.0466345
0.0610849
-0.107719
0.931602
1.30911
-0.0757505
0.0438104
-0.174918
-0.495577
0.670496
-1.01254
1.62422
-0.611677
0.0387819
0.271955
-0.310737
0.79522
-0.463943
1.62636
1.12097
-2.74734
0.0693298
-0.875535
0.0546224
1.47251
0.876303
0.620905
-1.49721
0.977493
-0.80991
-0.167583
-2.02878
0.380094
-0.776525
0.368809
0.407716
0.812824
0.994841
-1.80766
-1.26701
1.16631
0.119433
-1.81299
1.69355
-0.295594
0.359077
-0.0087229
0.0110915
-0.00236863
0.0649678
-0.661165
-0.0664468
0.156221
-0.0897739
-1.39471
-0.414374
1.22303
0.0547357
0.0974144
-0.15215
-0.291456
0.0250504
0.316505
-1.40217
1.08567
0.358131
1.06455
-1.42268
0.588542
-1.41147
1.68584
-0.274373
-1.4415
1.10401
0.0437492
0.1131
-0.798481
-0.480235
-0.55803
0.130417
0.427613
-1.75897
0.746435
1.30907
-1.50391
0.593404
1.73439
-0.65039
0.632965
0.0174254
0.702955
-1.66882
0.96586
0.356408
-0.578155
0.221748
-0.934353
-0.290595
-1.31096
-0.0437662
-0.679712
-0.00813239
0.17757
0.241256
-0.418825
0.61302
0.0391368
-0.0942459
0.0551091
1.69413
-0.881303
-1.45863
0.403526
1.0551
0.527871
0.405442
-0.933313
-0.718776
0.423182
-0.486029
-0.0720014
0.686972
0.556201
-1.29858
-1.2961
0.238596
-0.0401026
1.21582
0.859485
0.302856
-1.70185
1.81869
0.120834
-0.816923
0.696089
-0.178703
-1.64922
1.82792
-0.131967
0.149605
-0.0176379
0.560529
-0.156233
-0.491732
1.48909
1.54393
-1.12746
-0.769638
-0.215242
-0.0155356
-0.838088
0.853623
0.706289
-1.84792
-0.156544
-0.955976
1.11252
-0.0637838
0.461097
-0.397313
-1.29571
0.0808923
1.21482
1.74292
-1.05425
-0.0166789
0.201584
-0.184905
-0.460739
-0.0502619
0.39158
0.722358
-1.11394
0.255378
-0.316451
0.0610729
1.04269
0.584279
-1.62697
-0.828331
2.02974
0.214971
0.00975363
-0.332689
-1.71861
2.0513
1.38152
1.41971
1.71594
-1.35781
-0.745768
0.471283
0.254235
0.0158952
-0.724839
2.41665
0.260401
-1.52528
1.26488
1.70661
-0.325947
-1.38067
-0.812383
1.34384
-0.531461
0.784933
-0.644313
-0.946177
1.59049
-0.149675
0.0933725
0.0563028
-0.561644
-0.975402
1.53705
-0.181599
0.260752
0.104715
-0.128752
1.01469
-1.57633
-1.40906
-0.421871
1.83093
-0.097134
-0.982969
1.0801
-0.241692
2.10787
-2.19334
0.0854737
0.446375
-0.2493
-0.197075
-0.0111309
-0.639259
0.510926
0.512711
-0.650273
0.0894553
-1.61569
2.03337
-0.417684
-0.117547
0.201958
1.45741
-0.886423
-1.9662
-0.588236
-0.0123589
0.329772
-0.317414
1.07492
-0.21544
-0.434039
0.477298
-0.0432587
0.332497
-0.225483
-2.10352
0.749065
1.79505
0.312733
-0.213773
0.524693
-0.441223
0.969094
0.920546
0.260535
-0.44786
0.0138209
-0.202468
-1.26759
0.483848
0.485148
-0.463966
-1.83913
0.03808
-0.0360858
0.451276
-0.0948681
-2.10268
0.912277
1.1904
0.861073
0.0576195
0.421616
-0.147857
-0.27376
0.593286
-0.547219
-0.0460672
-1.3334
0.4802
-2.11706
1.08237
0.0126177
0.0499281
-0.0625459
0.023269
0.160976
-0.184245
2.11815
-0.0306787
-2.08747
0.363393
0.0226315
-0.386024
-0.280607
-0.549936
0.488796
-0.0617505
0.00824974
-0.0138683
0.00561859
0.809023
-0.0929799
-0.716043
-0.0230725
0.0313223
1.57812
-1.06541
-0.0570971
-0.311433
0.36853
-2.04721
0.431529
-0.00745005
0.0152039
0.447357
-0.25647
0.311206
-0.110323
-0.181882
0.506915
0.336278
-0.843193
1.39536
-0.279454
0.778268
-0.657434
0.446513
-0.392063
0.188177
-0.65701
-0.00146296
0.237913
-0.236451
1.10216
-0.115188
-0.98697
-1.09439
-0.346312
-0.310643
0.0907691
0.219874
0.692254
-0.828927
0.136673
2.18916
-0.0605744
-2.12858
-0.207618
-0.0264922
0.234111
-0.985146
1.34395
-0.358808
1.03697
1.17619
-2.21316
-0.207585
0.13637
-0.552616
0.897727
-0.345111
0.466165
0.188301
-0.654466
-1.78359
0.877666
0.905923
-0.0179372
0.00406888
-1.68995
0.280889
0.650084
-0.383656
-0.266428
0.895963
-1.19759
0.301625
-0.207021
-0.394383
0.27117
1.8367
1.64425
-0.281898
-1.36236
-1.64385
0.232386
0.658551
-1.10665
1.57914
-2.71627
1.13713
-0.226027
0.59803
0.0236909
-0.77062
0.595702
-0.337911
0.446305
-0.121503
-1.52745
1.64895
0.684239
1.0139
-1.47639
1.55807
-0.0816765
-0.15059
0.328159
-1.44683
-0.450454
-0.253859
0.285362
-0.0315026
0.917518
-1.23963
0.322112
-0.134942
0.456088
-0.321146
-0.205791
1.10175
-1.79856
-0.361705
2.16026
-1.5578
-0.487578
2.04538
0.91214
-0.739975
-0.172165
-0.442385
0.0341788
0.408206
-0.107955
-0.168343
0.276299
-1.91899
0.0696393
1.84936
0.0449577
0.409
-0.453957
1.56794
-1.75045
0.182512
-0.955025
1.0085
0.426085
-1.43459
0.0271855
-0.281045
0.00924045
-1.22504
1.2158
1.52673
-2.03421
-1.89345
1.64856
0.24489
0.302005
-0.0466263
0.500405
0.957008
-0.148833
-0.383746
0.532579
-0.0213421
0.317889
-0.296546
-0.722133
1.88698
-1.16485
1.33538
-2.53873
1.20335
2.03671
-1.9445
-0.0922152
1.50856
-0.660457
-0.848103
0.0816935
-0.480101
0.398407
-0.609714
-0.0210071
-2.01499
1.77738
0.237613
0.112269
-2.12726
-0.700235
2.40268
-1.70245
-1.10838
-0.651317
0.422302
-0.350066
-0.0722363
-1.5951
-0.45211
-0.397375
0.275694
0.121681
0.226634
-0.0793026
-1.86156
1.78496
0.0765976
-0.290709
-0.0698683
-0.0415132
0.394907
-0.0315143
-1.16798
0.209641
0.315916
-0.357225
0.041309
-1.1654
1.2216
-0.0561987
0.763231
-0.0517147
-0.504538
1.1737
0.243923
0.735396
-0.668391
1.36561
-0.697216
-0.24874
1.0583
-1.27416
0.805789
0.468366
-0.00241062
-0.0155266
1.66338
-0.979139
1.43233
-0.729375
-0.379344
-0.376228
0.755572
0.462819
-1.24988
0.787059
1.11792
-1.21505
1.76718
-0.769284
-0.997899
-0.0107655
-1.05882
-0.215337
-0.504819
1.03729
-0.532474
-0.0289311
-0.494855
1.78758
-2.10426
0.50915
0.071408
0.111945
-0.253613
-0.247352
0.282034
-0.00848927
-0.862118
-0.922018
1.77812
-0.498855
-0.0116039
-0.077419
0.0890229
0.108484
0.45644
-1.59563
-0.794766
2.3904
0.00788392
1.0014
-0.0108197
-0.304074
0.314893
1.64125
-0.113448
0.0241534
0.0892942
-0.164307
0.162844
-0.738313
-1.96542
0.340285
-0.453393
0.0236191
0.429774
1.51512
1.45578
1.03262
0.209443
-1.24206
1.94565
0.0910683
1.20407
-1.7109
0.506831
-1.63753
-0.00887912
1.64641
-1.61949
2.09427
-0.474787
0.299669
-0.013457
-0.286212
-0.572706
2.09944
0.315449
-0.0865184
-0.228931
0.0680939
-1.54449
0.243741
-0.0742414
-0.169499
-1.86586
2.38869
-0.522833
-0.485041
1.10641
-0.621365
2.32281
-1.0235
-1.29931
0.0342779
-1.2023
1.16803
0.0039844
0.00710713
-0.90953
1.9465
-0.278547
-0.357504
2.2088
-0.693497
-0.384408
0.327311
-1.705
0.0674649
2.34927
-0.694368
0.0191575
-2.3049
0.522636
-0.0249698
-0.339536
2.21915
-1.87961
1.10645
-0.289931
-0.816518
0.503786
-1.24836
0.744572
-0.316301
0.0201064
0.296194
-0.422503
-0.957828
1.38033
0.727926
-0.539749
-1.52468
-0.368776
1.89345
0.285343
0.486556
-0.771899
0.157927
0.264375
-2.18902
2.58216
-0.393138
-0.17683
0.0448627
0.886622
0.431484
-1.31811
0.987031
0.737807
-1.72484
0.348993
0.971586
-0.0532659
2.29552
-0.00552636
1.57022
-1.5647
0.0697393
-0.0309574
0.0555838
0.0479564
-0.10354
1.5445
-1.3936
-0.150898
0.79285
0.974333
0.130568
-0.145616
0.0150479
-0.5325
1.58405
-1.05155
0.00608983
0.352827
-0.358916
0.91219
-1.20319
0.291001
-1.03363
-0.516028
1.54966
1.55002
-0.230748
0.557233
0.549216
-2.74286
0.743124
1.99973
0.587585
-1.61427
0.0053895
0.0593292
-0.0647187
0.389624
-0.116215
-0.273408
0.00705465
-0.00307025
-0.133031
1.36999
-1.23696
-0.214722
1.96028
1.5122
-1.24711
-0.26509
1.26957
-1.07397
-1.02218
0.377921
0.644254
0.0595143
-0.82942
0.439376
-0.358461
-0.0809141
0.13573
0.285886
0.290042
1.46038
-1.75042
0.455666
0.353356
0.249114
-1.80692
-0.88979
0.252697
0.637093
-0.651598
-0.491421
1.14302
0.985555
-0.47864
-1.67649
1.09867
0.665094
-0.538602
-0.126493
-1.49339
1.03797
0.455428
-0.857435
0.926765
-0.839446
0.989184
-0.149738
-3.70009
2.69634
1.00375
-0.0437578
0.434188
-0.390431
-0.285725
0.308994
-0.203395
-1.94021
4.31516
-2.37495
-1.07715
1.38147
0.997623
-1.0499
0.052272
-0.161297
0.120005
0.0412918
-2.15674
1.58746
0.569276
0.0115976
0.00777668
-0.0193743
0.0297162
1.11403
-1.83617
1.03894
-0.576125
-0.937086
-1.05968
-1.39801
1.39249
0.945697
0.0483549
0.660032
0.302915
-0.962947
-0.678072
0.634416
0.0436553
0.125687
-0.448455
0.322768
0.0359567
-1.27347
1.23752
0.753398
1.22645
-1.97985
-1.47904
-0.3809
1.85994
-0.226012
0.0647146
1.26282
0.281676
-0.777054
0.711575
0.0654792
0.051231
0.304701
-0.355932
0.0104755
0.388181
-0.488557
0.100376
-1.13253
-1.32519
1.36115
0.28885
0.415836
-0.334142
1.18366
-0.266143
0.314936
-1.41979
0.0646587
0.569226
-0.342974
0.29152
0.0514543
-1.34703
-1.09369
2.44073
-1.60579
-1.13707
-1.01966
-0.129534
1.1492
0.235743
0.391503
-0.627246
-0.0191069
2.22553
-1.43517
-0.790358
0.350282
1.29397
0.0709779
0.942384
-1.55103
0.608646
-0.600229
1.51952
-0.919286
-1.12399
-0.423951
1.54794
-0.92383
0.371214
-0.733709
-0.288466
1.96214
-0.948673
-1.01347
-0.0485175
0.23782
-0.189303
0.700912
0.159965
-0.860877
-0.354342
0.3993
-0.0604264
0.135136
-0.0747099
-0.253523
-0.0487359
-0.429575
-0.014971
1.09027
0.871872
-2.78708
2.71027
-0.631062
1.71004
0.118445
-0.166962
-1.63699
0.513004
1.4349
-1.23947
-0.239448
-1.2664
0.281253
1.77618
-2.47641
1.34179
-1.38679
1.62687
-0.0463493
-0.38991
-0.247739
-0.452309
-0.193621
0.645929
-0.609829
-0.062242
1.4803
0.279138
-1.75944
-0.00541878
-0.496694
0.502113
-0.0442263
1.44686
-1.58832
0.141455
1.68069
-0.112752
-2.04017
1.86795
0.172225
0.420651
-0.309527
-2.01497
-0.141765
-0.601141
1.83558
-0.0582033
-0.572848
2.32724
-0.922802
-1.40444
-1.17344
-0.12627
1.29971
0.22019
0.998414
-1.2186
-1.38025
0.0845332
-0.374293
-0.20026
0.574553
-0.93423
1.19463
0.305157
0.988311
-1.29347
-1.14099
0.324893
0.816098
-1.77552
0.158832
1.61668
0.238519
0.800426
-0.480229
0.988088
0.520472
-0.488069
-0.288455
1.7994
-2.10638
0.339062
-1.03804
0.698974
-0.304092
0.0965065
1.33867
0.0740018
-1.41267
1.1241
-1.75516
0.0067732
-0.00390895
-0.998674
1.6597
-0.661023
-1.24756
1.2568
-0.0393465
0.566323
-0.526976
-0.0678061
-0.299677
0.367483
0.12822
0.432308
-0.518689
1.17724
0.0399705
-0.0273528
-0.315331
0.342517
0.660648
-0.402969
0.012153
-0.0288091
-0.393309
0.37723
0.0160798
0.41934
-0.465601
0.0462609
-1.11642
1.65421
0.193469
-1.21313
-0.0647371
-0.554404
0.00963226
1.10329
-1.11292
0.639987
-0.706236
0.537353
-1.49697
0.959618
-1.63372
0.525946
1.10778
1.39822
-2.70657
-0.671807
-0.0474685
-1.84598
0.474998
1.30313
-1.46061
-0.215876
0.527362
-1.55232
-0.836351
0.359868
0.120585
0.107134
-0.227719
2.75476
-1.23964
1.47781
-0.301049
-0.456013
-0.323746
0.779758
-1.98695
0.780831
1.20612
0.0109476
-0.262339
-0.412349
1.42085
0.328729
-0.184456
-1.92928
0.393498
-0.0780483
-0.304267
0.267867
0.0364005
-0.240929
1.72123
-0.291418
0.0740895
0.217329
0.797413
-2.6557
1.2715
1.3842
0.429756
0.40736
-0.837115
1.36373
-2.06526
0.701534
-1.04145
0.556406
-1.12867
-0.0449536
0.745866
1.7673
-1.94601
0.820084
-0.353919
-0.757047
1.34463
-1.12711
0.790409
0.336705
0.936994
-1.29805
0.361055
-1.36599
1.45617
-0.0901806
0.743587
-0.992327
0.0277845
0.38849
0.52365
-0.347755
-0.204562
-2.18343
-0.840393
-0.0636474
0.904041
0.47673
-1.65017
1.42144
-0.0569366
-1.16313
0.244656
0.341155
2.02828
-0.679656
-1.34863
-0.988047
0.524499
-1.1761
0.322006
-1.84626
1.71999
-1.36616
0.721844
0.927847
-1.51561
2.12961
-0.614004
-4.39461
1.83496
2.55965
-0.367564
0.309574
-0.373358
-1.93073
1.35736
0.573371
1.55735
-2.13006
-2.16432
-0.0247
2.72205
-1.1429
0.495901
1.26971
-1.76561
-0.0455905
-0.29498
0.34057
-0.10185
0.829207
1.04558
-2.49415
0.978548
0.295683
0.432243
0.408836
0.705326
-1.11416
0.765179
-0.440385
-0.146545
-2.12129
2.26784
-0.673954
0.87267
-1.62171
-1.11805
-0.833424
1.95148
0.485721
-0.637165
-1.34126
0.433124
0.908139
-0.0564369
-0.140834
0.197271
1.7038
-1.8253
0.544148
-1.54282
0.663632
0.793963
-1.4576
0.0318908
-0.0434948
-1.58543
0.454273
1.13115
-1.59215
0.558517
0.91727
-1.5175
1.15055
-0.811488
-0.0778017
0.0213647
-0.00307457
1.70969
-1.16664
1.46723
-0.300588
1.44223
0.0121365
-1.45437
-1.45598
-0.00783925
-0.48533
0.104185
1.49244
0.254396
0.0610711
-0.86779
-0.110748
0.919704
0.9797
-0.327086
0.452773
-1.75005
-0.111511
-0.867959
2.54101
-0.903145
0.355677
0.363384
-0.719061
3.04184
-0.183481
-2.85836
-0.224107
0.21065
-0.66544
-1.45162
-1.49925
-0.225876
-0.651182
1.77528
-0.638297
0.909251
-0.270954
-1.9741
0.627071
-0.564304
0.97314
-1.29659
-0.80609
-0.544398
-0.53673
0.650655
-1.45949
0.294097
2.10576
-0.270185
0.458877
-2.29445
1.83558
0.109951
0.538478
0.518598
1.95523
-1.8358
-0.0329129
-0.43344
0.644043
-0.932097
1.01156
-0.897236
-0.720608
0.418828
0.349103
-0.76793
-1.64386
0.0472298
-0.237575
1.46734
-1.22977
-0.439635
-1.60054
-1.31845
1.47629
2.32254
-0.992051
-1.33049
-0.200815
0.569623
1.63566
-0.930526
-0.705139
0.517043
-0.565779
0.108243
-0.0526597
-0.339102
0.0173718
0.32173
-0.278496
0.938528
-0.706197
2.26355
-0.0339866
-0.316079
-0.525284
-0.185
0.710284
0.0457654
1.65803
0.518196
0.408967
-0.927163
-0.723194
1.11477
0.774939
0.809107
-0.759615
-0.130175
1.01367
-0.363263
-0.650402
-0.069008
-0.0225011
0.091509
0.167037
-1.42746
1.26042
-1.75622
0.256972
0.424057
0.980093
1.56091
-0.0113856
0.528429
0.268144
-0.906441
-1.61591
0.817557
-1.86079
0.632522
-0.88379
0.122963
-0.814475
-1.14943
1.96391
-2.47586
-0.0683364
0.231947
-0.16361
1.70552
-1.34175
1.3395
-1.11931
0.273437
1.01036
-1.2838
0.317852
-0.692145
0.229922
-1.94723
1.71731
0.311473
0.265822
-0.577295
-0.698869
1.61591
-0.917038
1.57777
-0.924648
-0.653125
0.856031
-0.17121
-0.684821
-1.02955
-1.62615
-0.609108
-0.0706042
2.08038
2.08665
-0.0227591
0.193468
-0.170709
-1.26706
-0.31837
1.29439
1.20835
-1.00884
1.23635
-0.22751
-0.181537
0.205691
0.152436
0.746632
-0.899068
-0.16957
-0.121848
-0.207563
-1.72316
-1.80699
0.683776
-0.0186813
-0.302485
0.207691
0.141868
1.38242
-1.52429
-0.974169
-0.193812
1.00914
-0.908545
0.135274
-0.488338
-0.130187
-0.262742
0.392929
0.159227
-0.685077
0.52585
0.840507
1.92094
0.851269
1.59128
-0.726723
1.79175
-0.919083
-0.232033
-0.47886
0.710892
1.41079
0.164207
0.025029
-1.29781
0.875303
1.3226
-1.27683
-0.930253
-0.814979
1.74523
-1.13421
-0.852735
-1.86311
1.88038
-0.0172703
-0.20701
-0.663904
0.470283
1.07903
0.512249
-0.0849374
-0.18895
0.273888
-0.535395
-0.492598
-1.61048
0.166399
1.44408
0.970491
-0.962607
-0.189732
0.195122
1.1366
-1.80203
0.832239
-0.695286
-0.540325
1.39284
-0.85251
0.964509
0.979983
0.560729
-1.54071
1.9302
-1.18129
-0.748913
-0.681785
-1.58793
2.265
-0.677069
2.19971
-1.74083
-0.552025
0.540639
0.806276
1.51653
-0.415935
0.370344
0.0669384
-0.0278016
1.80164
-1.00281
1.20197
1.55278
-0.793662
0.430142
0.36352
0.445934
-0.825278
1.41076
-0.0720949
2.44946
-1.95356
-1.27532
-0.145177
1.4205
0.364679
-0.0485253
-0.316154
0.304326
0.142049
0.248529
-1.86802
-0.535574
0.600542
1.29425
-1.15029
-0.143955
0.299341
0.714324
-0.295377
0.147521
0.480179
0.440174
-0.920353
-0.894463
1.67546
-0.0180898
-0.986113
2.28077
-1.29466
-0.462755
0.748098
-0.452747
-0.688245
2.05941
-1.02585
-0.645607
2.34544
-0.981711
0.561879
-0.626616
-0.329846
0.286088
-0.554904
-0.277295
-0.0141608
1.0279
-0.289567
1.53626
-1.2467
-0.120675
0.167309
-0.581454
0.197708
-0.636486
0.0273784
-2.03622
1.70353
0.445308
0.452419
-0.212233
-0.919735
1.13197
0.420769
0.159507
1.56542
0.95063
-2.51605
-0.208467
-0.0307033
0.23917
-1.22891
-0.229721
1.50113
0.82141
1.46517
-1.3233
-2.31277
0.0309773
0.0392355
0.335773
0.851475
0.827021
0.0828363
-0.909858
0.723574
-0.0835871
-0.0524879
-0.598802
-0.19486
-2.23342
-0.850826
0.910341
-0.838549
1.24208
1.06838
-1.03969
-0.028689
0.362599
0.0146302
-0.121896
0.479885
-0.0605443
1.43091
0.355379
-1.78629
-0.53704
0.232773
-0.438283
0.270783
0.1675
-0.652023
0.000242289
0.651781
0.724733
0.836069
-1.5608
0.428803
0.556752
1.2792
-0.0274118
-0.50803
0.945962
-1.05671
0.302243
-0.432976
0.130733
-1.51669
1.02527
1.56146
-1.24168
-0.319782
0.0291884
-0.276793
0.247604
1.60494
-1.73797
1.71199
-0.741496
0.465865
0.873632
-0.26102
-0.0162749
0.152223
-0.0183702
-0.133853
-1.05189
-0.242304
1.99749
-1.02272
-0.974775
3.11418
-1.67402
-1.44016
0.763053
-1.32234
0.559286
-0.0848765
0.955678
0.00574263
-0.694401
1.33405
-0.639652
0.196017
-0.0437936
0.232087
0.263334
-0.189244
1.51885
0.0192221
-1.53808
-0.266197
-0.341507
-0.00146718
-0.149992
0.00437584
0.62842
1.03128
-0.608638
0.473696
-0.0146656
-0.111695
-0.189067
0.269653
-0.729366
1.0028
0.0199212
0.465227
-0.370401
-0.651322
1.40357
-0.0281382
1.09652
-0.190581
-0.231226
-0.431192
0.911371
-0.388935
1.51845
-1.12952
-1.48198
-0.207968
-0.940937
1.34826
-0.407321
0.226689
0.0366449
0.586079
-0.116328
-0.0371309
-0.450036
0.487167
-1.52098
0.495124
0.239676
-0.256355
0.844501
-2.44013
0.380629
-2.09924
-0.512925
1.38869
-0.565701
0.939385
-0.499211
0.0239042
-1.16449
1.33152
0.0024075
-0.29445
0.199308
-0.939283
-0.193209
-1.08996
1.28317
-0.0676186
-1.13332
2.64869
-1.68949
-0.9592
-0.417523
0.127931
0.417537
0.0418138
-0.459351
-1.45035
0.283715
0.366163
0.0234613
-0.0111899
-0.247038
0.258228
0.53673
-1.47767
0.15927
0.806826
0.0945121
-0.901338
-1.68173
1.2928
0.276438
0.0729045
-0.349342
2.4745
-4.41471
-0.272518
-0.00118834
0.273706
0.356548
-0.0801108
0.0164022
1.32442
-0.975424
1.0801
0.918669
-0.489865
-1.62847
0.510411
-1.21234
1.00239
0.20995
0.793889
-1.72414
-0.895644
-0.566255
1.4619
0.104174
0.698281
-0.553984
0.472689
1.95567
-0.246453
-1.70921
-0.0134817
-1.73656
0.483403
0.372628
0.720724
0.91494
-0.300488
-0.00358557
0.282001
-0.508314
-0.611825
0.0589127
-0.0996935
0.0407809
0.0692191
-1.22788
1.15866
-0.156475
0.585184
-0.428709
-0.156608
-1.55085
1.70746
-0.143183
-0.985361
-0.0517391
-0.0353332
1.19732
-0.613105
-0.365363
0.978468
-0.647799
-0.746908
0.818272
-0.469169
-0.0016294
0.13016
-0.128531
-1.33082
1.11859
-1.38056
-0.216983
-0.106568
0.32355
0.212886
0.498428
-0.711314
1.16185
-0.678512
-0.483338
0.0921291
-1.01741
0.275321
-2.14118
-1.03483
-0.769779
1.80461
-1.69268
0.0741969
1.61848
-2.43294
-1.41449
0.0485078
-0.528869
0.528964
-9.49767e-05
-1.79236
-0.638981
2.06989
0.689498
-0.35322
0.162988
-0.594179
-0.299819
0.856571
0.28059
0.189048
-0.714332
0.0314938
-0.253488
0.221994
-0.33985
0.055403
-0.176649
0.205838
-0.476899
0.906655
-4.22432
1.92518
2.29914
-1.58789
0.861008
0.995168
0.383296
-0.0186175
-0.508922
0.423985
-0.854741
-0.486523
-0.987198
0.359411
0.627786
-0.0356044
0.261804
-0.226199
-0.720719
0.879946
-0.166106
1.29772
1.49737
-0.979173
1.00587
-1.65367
0.791809
-0.995821
0.204013
0.213357
-0.0117725
-0.0945178
0.0198952
-1.94492
1.13045
1.98212
1.13205
0.0278189
-0.36606
0.338241
-2.4785
0.936473
0.308213
-0.337813
-0.352827
-0.0288052
-0.405931
0.434736
-1.01611
0.403004
-1.85758
1.65002
1.53021
-0.866575
-0.389495
0.355326
0.0341696
0.304155
0.025617
-0.283708
-1.96141
1.15197
0.809439
-0.27056
0.239857
-0.0899554
0.574806
-0.484851
0.747816
0.964171
0.0847441
0.0814343
-0.166178
-0.490813
0.510734
0.0529631
0.0584189
0.950903
-1.74877
1.83534
0.110301
0.574133
-1.73254
1.6808
-0.0677258
-1.61308
0.0192833
-0.367104
0.34782
0.908118
-1.77024
0.13037
1.34347
-1.47384
-0.00723737
-0.0411211
0.0483585
-1.02393
1.01367
0.0102576
-0.612805
1.15016
-0.639691
1.97507
2.78111
-0.705705
-2.0754
0.0162413
0.388637
-0.404878
-0.102496
-0.572792
-0.0369216
-0.558272
-0.0145205
0.102942
-0.581321
0.478379
-0.148519
1.6656
-1.51708
-1.60554
0.626914
0.978626
0.51992
1.59823
0.0576174
0.0981667
-0.155784
0.994863
0.455767
-1.45063
-0.0978733
0.218458
-0.583176
1.63012
-1.04694
-1.43038
0.155056
1.1666
0.51251
-1.40815
-0.000918496
-0.19568
0.196598
1.62364
-0.341948
-1.28169
0.515261
0.397057
-1.86235
0.940332
1.76488
-1.91142
-0.899642
0.168412
0.73123
-0.0604581
0.0626612
0.189986
-0.252647
-0.356496
0.0630555
0.29344
-0.0144453
0.219566
-0.205121
0.449767
-0.440649
-0.00911726
-1.01153
2.14813
-0.546087
0.530551
0.327299
-0.417255
0.654
-0.98257
0.32857
-0.490632
-0.636481
-0.215019
0.107064
0.0365516
0.0106846
-0.0472362
1.17339
-0.660786
-0.512601
0.172983
1.12127
-0.439818
-0.238254
-1.02598
0.187887
0.573394
0.912463
-1.48586
-0.014861
-0.0315738
0.0464348
-0.0336352
0.626921
-0.0641954
0.153923