/*--------------------------------*- C++ -*----------------------------------*\
| =========                 |                                                 |
| \\      /  F ield         | OpenFOAM: The Open Source CFD Toolbox           |
|  \\    /   O peration     | Version:  2306                                  |
|   \\  /    A nd           | Website:  www.openfoam.com                      |
|    \\/     M anipulation  |                                                 |
\*---------------------------------------------------------------------------*/
FoamFile
{
    version     2.0;
    format      ascii;
    arch        "LSB;label=32;scalar=64";
    class       volVectorField;
    location    "8";
    object      U;
}
// * * * * * * * * * * * * * * * * * * * * * * * * * * * * * * * * * * * * * //

dimensions      [0 1 -1 0 0 0 0];

internalField   nonuniform List<vector> 
13486
(
(3.06076 -0.596547 2.02813e-18)
(3.40974 0.40252 1.06963e-18)
(4.57359 -0.0860486 0)
(-3.29885 2.01647 -5.03921e-18)
(4.82449 -0.907845 6.84604e-20)
(4.69873 0.170263 -7.22409e-20)
(4.77333 -0.379447 -1.05325e-19)
(4.17183 -1.4909 -5.96477e-19)
(4.00901 -0.839693 0)
(4.02374 1.19299 0)
(-1.63331 -1.0386 -2.39988e-18)
(5.32207 0.0913594 0)
(2.80164 -0.975018 -1.99334e-18)
(4.80685 1.12232 -6.74514e-20)
(4.7584 -0.602084 3.02425e-19)
(3.93903 1.19068 -7.70613e-19)
(-1.50397 1.14678 2.83586e-18)
(3.5117 -5.35977 -2.35922e-18)
(4.50439 0.0746284 1.73481e-20)
(3.35244 -0.234763 -2.11785e-18)
(-3.02638 1.72402 -2.46967e-18)
(2.83944 -1.00833 2.59963e-18)
(3.45723 0.391797 -8.50698e-19)
(4.90124 -1.48457 0)
(4.09098 0.961785 2.65284e-19)
(4.89853 -1.47422 -3.46849e-19)
(-1.39271 0.34486 2.74332e-18)
(4.61353 -0.21438 1.04349e-19)
(3.54708 -0.344317 0)
(4.07814 -0.669896 2.12933e-19)
(-0.387155 -0.296057 -2.07377e-18)
(4.90847 -0.791452 -8.54337e-19)
(5.31497 -0.767412 7.91358e-19)
(3.65046 -0.026917 0)
(4.18968 -1.42775 0)
(3.04427 0.0331208 1.13279e-20)
(4.49265 -1.85742 -2.96939e-19)
(3.27579 -1.53796 8.6942e-19)
(7.49651 3.78868 -1.94682e-18)
(4.01577 -0.542475 9.69399e-19)
(5.4891 -1.4675 0)
(2.19515 -1.08349 -2.32862e-18)
(4.70655 0.0498081 0)
(4.11377 0.830639 -1.24457e-18)
(4.16286 0.789528 5.18756e-19)
(5.28443 0.0917572 6.6492e-19)
(0.806612 1.78033 7.20976e-18)
(3.59624 -0.341982 -7.65e-21)
(4.60534 -1.631 2.29234e-19)
(4.92926 -0.0984885 2.14191e-19)
(4.0016 0.0515979 1.3179e-18)
(7.42127 -0.159809 0)
(5.72704 -0.00265942 -9.65014e-19)
(3.45929 -1.31156 -1.3076e-18)
(3.63065 -5.5436 0)
(4.74723 -0.927442 -1.20694e-19)
(3.5223 -0.511825 -1.88904e-19)
(8.49241 1.05797 -1.69013e-18)
(5.23673 -0.722938 8.55726e-19)
(3.07608 -1.9547 0)
(-0.637834 -1.23163 -1.86805e-18)
(3.1098 -1.83228 0)
(6.8058 -0.365154 -1.53373e-18)
(-3.02516 1.75644 -2.77328e-20)
(5.40553 -2.56183 0)
(4.10477 -1.88939 -1.34892e-19)
(-3.63238 2.07312 -4.53122e-18)
(3.00959 -0.0789762 7.24351e-19)
(4.01598 -0.892032 -5.02092e-19)
(1.93963 0.233381 6.61112e-19)
(-3.03409 1.70882 5.16887e-18)
(3.75329 -5.86465 -2.05799e-19)
(3.99229 -0.292949 7.60202e-19)
(-0.768788 0.223018 -2.04743e-18)
(3.69804 -1.58989 -2.50344e-20)
(3.22084 -0.460751 4.46188e-20)
(3.84886 -1.48746 1.03778e-20)
(4.75807 -0.592232 -1.03747e-19)
(0.776115 1.36113 -4.31161e-18)
(0.927229 1.89726 0)
(3.58001 0.0202212 7.38334e-22)
(3.32245 0.575452 -6.73187e-20)
(7.0703 -0.740226 -3.12064e-20)
(4.77781 -0.0321136 -1.89532e-19)
(3.05221 -0.606591 -3.98993e-18)
(2.77278 2.8086 0)
(2.41524 5.09718 -1.8275e-18)
(4.01018 0.0837603 -2.00588e-18)
(3.7746 0.366477 -8.6268e-19)
(3.72999 1.6444 -9.47407e-19)
(5.44187 -1.01876 -6.43663e-19)
(4.43038 -1.24295 -2.77368e-19)
(3.17869 -0.776531 5.146e-19)
(3.40425 0.016325 5.69482e-20)
(3.86406 -1.23348 1.90517e-19)
(3.56994 -0.252322 3.71271e-21)
(-1.34619 0.301208 0)
(-3.18388 2.21156 2.27403e-18)
(4.04215 -0.538986 -1.8597e-18)
(-1.72802 1.40749 3.78587e-20)
(3.30923 0.0547507 0)
(4.75853 1.11449 -3.79355e-20)
(-2.97809 2.1292 3.69686e-20)
(7.95852 0.391262 2.03066e-18)
(2.77903 2.67619 0)
(-1.92041 1.43309 3.81148e-20)
(3.92117 0.103757 1.29205e-21)
(5.88684 5.09261 -4.22986e-18)
(0.863579 1.71684 5.19185e-18)
(4.1076 -1.82836 0)
(3.09467 -1.46277 0)
(4.4895 -0.794732 -9.65981e-19)
(3.47709 -1.26875 1.18856e-20)
(3.82251 -0.517965 1.58861e-20)
(2.40062 -0.299615 0)
(2.92856 -1.44192 -6.23669e-19)
(4.0763 0.982863 0)
(4.01283 0.0427687 0)
(3.98067 -0.2783 0)
(4.79041 -1.11842 -8.16398e-20)
(3.85268 -5.11494 1.54854e-18)
(-0.800323 -1.0573 0)
(3.80607 -1.12249 0)
(6.59178 4.06686 5.34686e-18)
(3.96669 -1.40856 0)
(8.04447 -0.282316 0)
(4.49594 -0.561154 2.01191e-20)
(4.31108 0.120993 5.74311e-19)
(3.93247 0.104524 2.25616e-19)
(5.16772 -2.88672 -7.79464e-19)
(7.53224 -0.79673 -1.5799e-19)
(1.29887 1.55727 -1.87071e-18)
(2.2734 0.417833 2.981e-18)
(-0.388805 0.0544322 2.99441e-18)
(3.99855 0.0209524 -2.12552e-19)
(3.82676 0.697548 -1.04125e-18)
(1.56396 1.06853 -6.61518e-19)
(4.12085 -1.77883 0)
(4.77204 -0.904098 2.34204e-20)
(4.21579 -1.18534 -2.56754e-19)
(5.17422 -0.359772 -7.39487e-19)
(5.84394 -0.177959 8.18215e-19)
(5.27225 -0.526479 0)
(0.932139 1.93291 0)
(4.96288 0.027193 8.18228e-20)
(6.35321 -1.49859 -2.4498e-18)
(4.52252 1.78106 -2.29654e-19)
(0.762795 2.62005 0)
(4.96661 -0.152177 0)
(3.53481 -0.377405 0)
(4.02897 0.0288798 2.19711e-20)
(4.8435 -0.668819 0)
(3.49514 0.0142362 -7.76799e-22)
(3.28577 0.549342 -5.79933e-19)
(4.33437 0.506367 0)
(4.85706 -0.0758429 0)
(3.84398 -1.73244 0)
(-0.938923 1.91939 1.15619e-18)
(3.66075 -1.48635 1.69048e-18)
(2.2271 -0.181053 2.55108e-19)
(4.85397 -0.0307003 7.96164e-20)
(3.68486 -1.4301 -2.57465e-18)
(3.47941 -1.33086 5.62923e-19)
(2.02258 -0.966971 1.02239e-18)
(7.7893 0.290407 0)
(4.99253 1.08551 -6.89108e-20)
(4.66612 1.03625 3.71745e-19)
(1.28679 -0.456463 -2.67386e-18)
(4.40673 1.73989 5.94909e-19)
(-0.382167 0.0306379 8.08529e-19)
(0.450619 0.4098 -4.43736e-20)
(4.32565 0.455297 4.52967e-19)
(3.99612 0.167476 -1.71219e-18)
(4.7504 -0.446545 3.5959e-20)
(3.63747 -0.0653777 -1.36785e-22)
(2.23638 0.933777 0)
(4.80991 1.6532 -5.03086e-20)
(5.40277 -0.459605 1.13526e-18)
(3.9305 0.0868694 -2.07253e-18)
(5.27891 -0.447477 0)
(4.13855 -0.638606 1.85431e-18)
(3.91468 -0.503996 3.16996e-20)
(4.90132 -0.445741 5.16484e-22)
(0.0528051 -0.088746 0)
(4.63989 0.386766 4.79665e-19)
(4.30598 -0.198456 -5.00881e-20)
(3.69295 -0.458609 -1.48134e-21)
(4.05789 -0.324387 1.12978e-19)
(5.39961 -1.40409 0)
(2.73736 -1.31397 -8.34566e-19)
(4.60254 -1.33489 0)
(4.72188 -0.0916175 0)
(6.69951 2.57733 0)
(2.88592 1.33963 -1.25722e-18)
(5.63186 2.85623 0)
(-1.75616 -1.25088 -5.65915e-19)
(4.93102 -2.72694 1.62537e-18)
(4.71153 -0.0312461 4.39047e-20)
(2.66526 -1.31746 -3.98411e-19)
(4.95038 1.0192 2.02762e-20)
(-0.540766 -0.712591 2.33762e-18)
(4.33152 0.143276 -1.76274e-20)
(3.13534 -1.51481 -1.01118e-18)
(4.2414 -1.72067 -2.60551e-19)
(2.27073 -0.303069 -2.87585e-19)
(5.68272 2.38333 2.24214e-19)
(2.43867 -4.30118 -1.01818e-18)
(3.82706 -0.165078 1.59487e-18)
(7.60642 2.7671 0)
(4.68114 0.278353 0)
(4.38701 -0.178577 -2.22116e-19)
(4.6954 -1.93827 6.41767e-19)
(3.38119 -0.202498 1.93078e-18)
(3.91406 0.107631 7.97711e-22)
(4.70347 0.245633 8.32268e-20)
(2.51189 -1.52666 -3.91832e-20)
(4.19364 -0.612075 0)
(3.75764 1.5794 2.24335e-18)
(3.3403 -0.810636 0)
(6.02789 0.786444 0)
(-1.5742 1.23886 -5.38091e-18)
(4.9645 -0.131065 0)
(4.16827 -1.18777 5.75139e-19)
(5.07097 -0.00159298 0)
(6.14287 0.256139 -1.27817e-19)
(2.82836 -1.33555 6.87647e-19)
(4.93756 0.399626 -2.26164e-21)
(1.86542 -0.541411 1.30539e-18)
(1.90228 0.0198531 1.9023e-21)
(2.38181 4.47274 -8.53954e-20)
(4.14726 -0.628492 -6.01162e-19)
(4.93346 0.231793 3.0082e-18)
(5.18916 -0.477268 9.24497e-19)
(2.22223 -1.0912 8.03128e-19)
(-2.5338 1.84591 0)
(2.55215 -1.24444 7.92656e-20)
(3.91687 -0.168378 -3.71605e-19)
(4.66906 -0.0787489 -1.36891e-19)
(2.378 -1.14779 2.12429e-18)
(4.91987 -0.245009 0)
(5.21718 -0.826307 0)
(4.00777 0.11928 2.59504e-18)
(4.7633 -0.312927 0)
(2.30007 -1.14804 7.03336e-19)
(2.6369 4.49556 -5.39899e-18)
(3.65809 0.0604704 0)
(4.8161 0.012726 -2.06147e-19)
(4.50902 -1.23933 6.73375e-19)
(-0.0494829 -0.0910372 5.03772e-18)
(4.05025 0.781005 0)
(-1.90892 2.05203 -7.07578e-19)
(2.33656 -0.240457 3.07011e-19)
(2.6342 -1.29027 7.43856e-19)
(5.31364 5.06447 0)
(1.65787 1.65649 -1.67033e-19)
(2.18382 0.501673 2.81031e-19)
(4.94936 -0.776464 7.7956e-19)
(2.40487 -1.73521 4.96932e-20)
(-0.0743828 2.19812 -1.17022e-18)
(5.19816 -0.830324 5.67151e-19)
(3.61581 0.345754 0)
(1.20741 3.82741 -4.21535e-19)
(4.71574 -0.588197 -7.23167e-19)
(1.97042 0.783926 -3.48331e-19)
(4.70463 -1.41161 4.2201e-20)
(-0.176345 -0.0301823 0)
(2.21948 0.193608 7.10472e-19)
(-1.61829 0.20579 -2.94853e-18)
(4.21854 -0.0188619 -9.2839e-19)
(6.0821 -4.75963 0)
(3.14353 1.55703 9.33408e-19)
(3.93637 0.11814 -5.65568e-19)
(4.15703 -0.669731 0)
(5.46689 0.196713 5.60373e-19)
(2.78963 -1.34659 9.15094e-19)
(4.4468 -1.17839 -3.71647e-19)
(1.54259 1.97004 0)
(3.90742 -5.3116 0)
(4.44332 5.15778 -2.45574e-18)
(4.82196 1.76158 4.02761e-19)
(4.25789 -5.14929 2.0557e-18)
(4.32777 -0.431724 -7.21194e-19)
(3.88045 0.145967 1.22403e-18)
(5.45504 -1.7668 -9.34686e-19)
(-0.976063 -0.394187 2.09687e-18)
(-2.11558 0.874238 5.34751e-18)
(5.21588 -0.326657 7.98348e-19)
(3.64385 0.14065 -2.95426e-19)
(6.22418 0.270125 1.79821e-19)
(4.08092 -0.00756558 0)
(-2.82709 1.80246 0)
(0.0954933 -2.48158 1.86344e-18)
(2.99924 -1.43972 6.5082e-19)
(3.99199 0.0393186 -2.0896e-19)
(3.82721 -0.153421 -4.47925e-19)
(3.97697 -0.253276 0)
(4.29329 -0.0792438 -9.41022e-20)
(5.40255 0.282429 -4.95382e-19)
(3.85987 0.101728 -1.12306e-18)
(5.28862 -0.521123 -6.15089e-19)
(3.68207 -1.81011 -6.99361e-19)
(2.73669 -4.67721 8.72323e-20)
(4.69255 1.73641 -3.51005e-19)
(4.89406 -0.736931 8.24274e-19)
(5.1227 -1.27789 8.57636e-20)
(3.63694 -1.65877 0)
(3.13904 0.265034 0)
(4.59939 -0.0299158 4.04327e-19)
(1.7185 5.3683 1.63239e-18)
(4.54615 -1.54698 0)
(4.55188 3.09395 -4.91335e-18)
(-3.56234 2.13466 0)
(4.63013 1.63264 1.56599e-19)
(4.59814 -0.809322 -1.04722e-18)
(5.37691 -3.32784 0)
(3.80444 0.648191 -6.57076e-19)
(0.484315 -2.07268 -2.53131e-18)
(3.77011 0.324121 -7.41628e-20)
(3.81811 -0.146173 -1.76457e-18)
(2.46904 -0.0530394 0)
(4.28605 -1.70425 2.4135e-19)
(0.816637 -3.0711 2.11831e-19)
(3.95141 0.0990728 2.61867e-19)
(3.37025 0.122437 -1.06817e-18)
(1.76546 1.02002 1.19215e-18)
(5.31744 -0.967916 1.23966e-18)
(4.58197 -0.73615 -1.51014e-18)
(4.3598 -0.427048 0)
(5.13276 0.55621 8.53737e-21)
(4.64456 -0.727624 -2.07392e-19)
(4.00729 0.049018 2.91003e-18)
(4.50872 -1.20965 0)
(5.29964 -1.22575 -3.13423e-19)
(3.03811 0.538633 0)
(4.78131 -0.311794 1.03244e-19)
(3.99027 -1.1396 -5.00394e-19)
(1.8165 -0.869807 9.73034e-19)
(4.83644 -0.680307 -1.32496e-19)
(4.04807 0.342722 0)
(1.61481 3.34898 -9.80684e-18)
(2.51113 0.0498635 -7.13726e-19)
(3.3875 0.121438 1.00725e-18)
(4.69465 -0.732293 9.68736e-19)
(4.88657 -0.456049 9.01748e-19)
(-1.59813 1.09384 -1.69475e-18)
(3.58746 -0.304572 4.31116e-21)
(4.58775 -0.415477 0)
(2.3328 -0.860499 2.37356e-18)
(6.04731 0.745352 0)
(0.136753 -1.93724 -3.60629e-19)
(4.62878 -0.216667 1.35849e-18)
(5.3415 0.483528 -5.5837e-19)
(5.51706 0.207444 4.64446e-19)
(-1.12377 0.196727 -2.86956e-18)
(3.87296 0.104219 1.39984e-18)
(3.4333 0.125164 0)
(-0.794357 0.0904838 -1.76152e-18)
(4.50987 -0.553453 -4.08713e-19)
(1.988 4.74799 -1.01232e-18)
(4.45012 -1.58525 4.90368e-19)
(5.10672 0.0665469 0)
(5.85589 -0.962326 7.58724e-19)
(3.64633 0.218008 2.17633e-18)
(3.92955 0.139088 1.72642e-18)
(4.04287 -0.721621 0)
(3.44299 0.0154837 -1.23978e-22)
(3.88979 -0.254248 3.49025e-19)
(1.79817 1.56455 8.31599e-19)
(3.32513 -0.241153 2.67625e-19)
(4.51387 -0.5088 3.87178e-19)
(5.01222 0.0843347 -3.11206e-20)
(4.55268 -0.414536 0)
(6.10836 0.532849 -4.24364e-19)
(-1.70399 1.84396 5.89568e-19)
(4.73699 0.537563 -1.51728e-19)
(3.99279 0.0507706 1.10692e-18)
(3.00814 0.0284718 0)
(0.555001 -0.791329 -9.69026e-18)
(5.6522 -2.90958 0)
(6.59666 1.56642 -9.15789e-19)
(4.23889 -0.0358434 0)
(4.4826 -1.40637 -2.90028e-20)
(2.87383 -0.401161 -5.72858e-19)
(3.18914 1.34306 2.16517e-18)
(1.47233 1.88207 -3.80022e-18)
(2.02564 1.47049 0)
(4.56843 0.0942257 -4.75423e-19)
(4.06215 0.365544 -6.96911e-19)
(-0.247035 0.349385 -1.70108e-18)
(-2.14706 0.624978 2.92931e-19)
(3.43161 -0.232655 -2.91373e-18)
(4.33155 -0.596339 4.08011e-20)
(4.16827 0.329114 5.21478e-19)
(3.14412 -1.03667 0)
(2.92616 0.375596 1.17125e-18)
(4.52084 -0.82055 -2.27235e-20)
(-3.64288 2.10109 2.94526e-18)
(-1.74289 1.91317 -2.08659e-18)
(-0.677698 0.70358 -3.32837e-18)
(5.23755 -0.331732 0)
(-0.442086 0.540161 0)
(4.05437 1.90859 0)
(4.25883 -0.185063 0)
(3.35463 -0.307785 -1.58457e-18)
(4.6634 -0.348239 0)
(5.4948 4.00541 0)
(3.44253 0.0774005 4.10217e-19)
(5.34447 -0.453761 -1.18234e-18)
(4.50702 -0.388812 -1.01618e-18)
(3.49612 0.480827 3.61532e-18)
(4.01652 0.0403241 -3.58072e-19)
(4.68806 2.80543 0)
(4.51956 -0.550663 0)
(3.84564 0.108756 1.19976e-18)
(3.96374 0.0518123 2.10125e-19)
(2.77703 1.4421 0)
(0.100404 -0.0688969 1.91556e-18)
(4.68023 -1.44484 -4.78057e-20)
(-0.42176 0.4521 0)
(4.93578 -0.250601 8.98821e-19)
(3.92638 0.100069 -1.39369e-18)
(1.11662 -0.698841 -6.50355e-19)
(2.31425 -0.839544 0)
(4.03206 0.36456 1.28783e-18)
(4.9306 0.161213 0)
(3.96384 -0.347801 0)
(4.3684 0.309696 -8.17432e-20)
(3.87122 0.154566 6.45904e-19)
(-1.51066 0.430977 -3.5805e-18)
(4.58463 1.0291 1.6554e-19)
(2.92612 -0.826713 -9.85295e-19)
(4.22835 -0.155687 1.33549e-19)
(4.16899 0.336318 4.13874e-19)
(6.15327 0.563157 1.09457e-18)
(4.89009 -1.37361 0)
(4.66471 -1.1078 3.57272e-19)
(2.8801 -0.29274 0)
(-0.108805 -2.406 2.73186e-18)
(4.71449 -0.462184 0)
(3.05177 -0.0411799 1.52359e-18)
(-1.75346 2.62763 -5.04499e-18)
(4.31229 -0.542869 0)
(-0.802916 0.224713 1.36771e-19)
(4.53691 -0.601499 -2.31134e-19)
(1.43224 3.22158 -7.72781e-19)
(3.6949 -0.630568 2.57251e-18)
(2.95244 1.29091 -1.40924e-18)
(2.90118 -0.819868 -2.81913e-18)
(6.68479 1.45581 0)
(4.84668 -1.17032 1.23305e-19)
(-1.63109 1.02486 -3.82087e-18)
(4.03582 0.392547 0)
(3.7394 0.368957 8.02867e-20)
(5.03306 -0.128119 -4.34479e-20)
(5.38478 1.72552 0)
(4.00281 0.0238055 0)
(-1.06882 0.880772 0)
(2.92788 0.709903 1.65864e-18)
(5.43018 -1.90995 1.14382e-18)
(6.15077 -1.52099 1.29273e-19)
(4.56284 1.586 0)
(3.56269 -0.453896 1.83164e-18)
(3.66885 -0.0557367 -9.47446e-22)
(4.56759 0.948241 -3.68452e-19)
(-3.46104 2.09515 4.60803e-18)
(3.84255 0.281217 0)
(3.54038 -0.315714 0)
(1.82068 -0.428323 -1.66541e-18)
(3.09117 -1.01234 -6.68129e-19)
(4.00756 -0.423369 0)
(3.22746 -1.54145 -3.89579e-19)
(3.35838 0.07379 -5.43376e-21)
(3.55804 -0.226391 -3.14584e-21)
(2.00366 -0.957564 0)
(4.48787 0.782393 -6.79158e-19)
(4.7331 -0.859792 6.26663e-20)
(4.90444 0.126237 6.36027e-20)
(3.96316 -1.18567 0)
(-2.2285 1.14637 -8.22436e-18)
(5.37791 0.359739 5.39808e-19)
(4.00304 0.169894 2.66392e-19)
(3.59506 0.161744 8.80225e-20)
(5.09432 1.02418 0)
(3.44557 0.480344 -9.64178e-19)
(5.88072 0.313831 -6.22902e-19)
(-0.934266 0.866358 7.09913e-19)
(4.02542 0.0932387 0)
(-1.78106 0.527389 -3.02029e-19)
(1.34338 -0.370806 0)
(4.01504 0.0911749 -1.03815e-18)
(3.98627 0.134414 4.38846e-19)
(3.78079 0.0383946 -2.33079e-19)
(2.06172 0.951265 0)
(4.29881 -0.0324433 -2.85646e-19)
(2.44048 0.626171 3.27262e-18)
(4.80815 -1.35943 0)
(3.38602 0.037266 1.29699e-18)
(5.22129 -0.639696 6.9619e-19)
(4.45919 0.000167895 0)
(-1.00386 -0.0241087 1.46073e-18)
(0.953341 2.76951 -6.44134e-19)
(5.01927 0.0756376 0)
(-2.44936 1.53972 5.50012e-18)
(3.71485 0.344521 0)
(3.72485 -1.68431 5.96558e-19)
(-1.55958 2.01404 1.22744e-18)
(3.68511 -0.44773 1.82163e-21)
(4.72688 0.20993 9.5749e-20)
(2.91289 0.372696 6.17674e-19)
(3.6945 -0.683115 -9.55113e-19)
(2.01485 1.79578 3.87799e-19)
(3.76697 -1.67461 1.24668e-20)
(4.47264 -0.504013 3.86434e-19)
(5.0843 1.03156 1.80504e-19)
(4.27109 -1.86562 0)
(3.99376 0.0416749 -9.81561e-19)
(0.788924 0.304441 -1.4772e-18)
(2.93328 -0.299749 0)
(4.00822 -0.914957 1.74134e-20)
(1.98291 0.321472 0)
(2.70619 -0.864624 2.44848e-18)
(4.42422 -1.58356 0)
(3.11384 0.0336956 -2.65985e-20)
(4.65376 -0.217956 -7.70634e-19)
(0.0809658 -0.619895 2.79458e-18)
(-1.65767 1.26352 2.43058e-18)
(4.9458 0.0287037 -9.34078e-21)
(3.39215 -1.60442 3.09874e-20)
(3.77159 -1.11705 8.03729e-19)
(3.17536 -0.787454 0)
(-0.172492 0.0314841 -1.3821e-18)
(4.92585 -1.18282 3.02198e-21)
(-0.29221 -0.00893086 -1.6225e-18)
(3.60068 -0.273184 1.68232e-21)
(3.12584 -1.25419 0)
(4.41628 -0.0128823 -6.70599e-21)
(-0.0867941 -0.049295 0)
(-2.78204 2.23359 3.9893e-20)
(1.07592 -1.0614 8.56158e-19)
(1.42696 1.71243 0)
(4.31628 -1.09918 1.80848e-19)
(5.53618 -2.76572 0)
(5.41807 1.52366 0)
(3.40705 -1.59928 -7.90418e-19)
(3.09176 0.463625 9.49774e-19)
(0.130174 -0.774996 0)
(3.65885 0.263133 -6.01276e-19)
(6.4453 -1.50176 2.82516e-18)
(-1.59165 1.65545 2.35879e-18)
(5.40992 2.28669 0)
(4.28811 -0.0461782 0)
(-1.62822 0.856068 -1.64913e-18)
(3.84879 -0.287093 0)
(4.82506 0.0541005 0)
(-0.145354 -1.28791 -4.67797e-20)
(4.28397 -0.806915 -1.07607e-18)
(3.67996 -0.943639 7.4261e-19)
(5.12425 -0.933904 7.9814e-20)
(-0.150191 -0.0430963 2.83758e-18)
(3.98656 0.118637 4.98194e-19)
(3.24026 -0.848135 0)
(4.31833 0.749497 -2.14357e-19)
(3.03457 -0.551046 0)
(4.02584 -0.0493629 0)
(3.99743 0.210803 0)
(4.34652 0.2794 -6.71257e-20)
(3.78608 -0.147874 8.1909e-19)
(5.28955 -0.191966 -1.06739e-19)
(3.32525 -0.854602 0)
(-1.14025 0.289607 -2.40361e-18)
(4.09977 1.80442 3.93941e-19)
(3.96445 -1.43073 6.20649e-20)
(3.45492 0.175851 6.00908e-19)
(4.34047 -1.20185 4.22399e-19)
(4.11679 0.0791549 -7.96664e-19)
(-1.27493 2.50822 0)
(5.41291 0.258404 0)
(3.0415 1.34629 0)
(2.74625 -1.24246 -1.74581e-18)
(5.11051 -3.63295 -2.62139e-18)
(2.00486 1.64557 0)
(4.36069 0.756819 0)
(6.21588 -0.0587189 5.40185e-19)
(3.9581 -0.0274392 -2.15037e-19)
(3.8465 0.975347 1.11285e-18)
(4.28333 -1.7185 0)
(-2.15565 0.249571 -9.14694e-19)
(4.61686 0.0986171 2.4538e-19)
(3.02762 -0.943622 -1.62527e-18)
(4.37454 0.0936633 -4.09665e-19)
(4.55486 0.948332 5.60053e-19)
(5.03598 -1.84201 7.06558e-19)
(2.70473 -1.24924 3.03101e-18)
(3.06557 -2.34978 4.43522e-19)
(4.11486 -0.487061 3.71073e-20)
(3.99396 0.0185495 -2.42318e-19)
(2.99504 -1.37121 -9.88421e-20)
(1.03561 3.05737 4.09737e-19)
(3.24278 3.51026 -2.80947e-19)
(3.21072 -1.52452 2.21181e-19)
(5.07777 0.583356 0)
(3.56731 4.20028 2.55207e-19)
(4.33292 -0.0466025 -1.05276e-18)
(5.67535 0.957478 3.27133e-19)
(2.97563 -0.880149 -1.49186e-18)
(3.92646 -1.38469 -7.29708e-19)
(4.15124 -0.0226639 2.14784e-18)
(5.43709 -0.093113 -1.2139e-18)
(7.45192 1.57104 1.6469e-18)
(5.25647 -0.302353 -3.96411e-19)
(2.56284 -0.497639 -3.42692e-18)
(4.38252 -0.012243 -8.76663e-19)
(2.53767 -0.603154 0)
(1.5126 -0.525225 -5.53357e-18)
(4.17236 0.0418297 1.9672e-18)
(2.73483 0.0114 1.36161e-21)
(-0.783784 0.276832 0)
(3.76965 -1.70654 0)
(4.06962 0.703674 9.88838e-19)
(2.31776 -0.483374 2.1424e-18)
(5.71592 -2.05291 -1.65869e-18)
(4.52991 -1.40783 -1.42599e-19)
(4.61571 -0.753547 8.07988e-19)
(6.14193 0.649208 0)
(4.09629 0.765651 5.41692e-19)
(3.11097 -4.7808 -2.0871e-19)
(4.9089 1.70653 6.36586e-20)
(4.09257 -0.589581 -1.09393e-18)
(-0.164514 -0.0679284 -4.55815e-18)
(4.31735 -1.14039 -3.74261e-19)
(4.6994 -1.17699 2.54574e-19)
(4.49651 2.01287 0)
(3.22352 -0.264321 2.91055e-19)
(3.79535 0.0338724 2.1224e-19)
(3.61125 -0.00294734 -1.77802e-21)
(2.06042 -1.00596 2.80674e-18)
(4.03923 -0.592759 1.63164e-18)
(1.99474 -0.549359 4.7796e-20)
(-1.60839 1.72765 -1.51506e-18)
(3.95429 -0.206466 9.61451e-20)
(4.38544 -0.0289628 7.84371e-19)
(-1.36468 -0.2475 -2.87575e-19)
(4.73818 1.59804 2.69528e-19)
(-2.05411 1.58945 -5.95421e-18)
(2.4408 -1.19018 -8.79198e-19)
(3.5684 -0.00685679 0)
(3.48898 -0.481743 -1.72956e-19)
(0.560546 0.0785959 -4.735e-19)
(2.86324 -0.453385 3.09738e-18)
(4.76725 -0.151444 0)
(3.70324 -1.77407 5.73073e-19)
(2.62345 -1.11335 6.92352e-19)
(3.98975 0.0825225 -2.14436e-18)
(-1.00546 0.701342 -1.7892e-18)
(-0.18412 0.823248 -8.19048e-19)
(4.52879 -0.404473 6.87865e-19)
(4.47094 0.0828488 7.06563e-19)
(3.77748 -1.70253 -7.74002e-19)
(5.06897 -0.318647 1.45999e-19)
(5.57773 -3.12436 -5.55917e-18)
(4.26861 -0.0346657 9.88081e-19)
(4.19434 -0.134004 -5.8089e-19)
(4.24975 0.161898 -2.03304e-20)
(4.78357 -0.0427207 -1.29555e-18)
(2.54166 -1.13852 -1.34033e-18)
(4.14168 -0.476678 0)
(1.22537 1.03236 2.15512e-18)
(4.22187 0.0884667 1.5377e-19)
(1.2222 -0.133552 -1.07324e-18)
(4.80284 0.0134399 1.33641e-19)
(4.52806 -0.80387 -4.92914e-19)
(3.99985 0.0353509 -1.73007e-18)
(4.18387 0.535194 3.10051e-19)
(0.0926847 -0.0732839 -1.97224e-18)
(4.8241 0.0161752 0)
(0.22801 -1.31465 5.28314e-18)
(5.24149 0.579239 5.70635e-19)
(3.14482 -1.22322 0)
(4.23953 0.135494 6.24518e-19)
(5.07188 0.62829 7.6586e-19)
(4.65146 -0.0235872 8.86016e-23)
(5.6901 -1.48106 9.50801e-19)
(5.18687 1.79757 0)
(3.62604 0.567512 1.77068e-18)
(2.63583 -0.615837 1.51124e-19)
(3.14715 -1.50628 6.13455e-19)
(4.12888 -0.407892 0)
(3.08987 0.400654 -2.73995e-18)
(4.27159 -4.78576 1.42213e-18)
(4.95017 2.48572 -5.88835e-19)
(2.58538 -0.5344 3.29365e-18)
(5.32278 0.0395893 1.31327e-19)
(-1.40878 1.12226 1.84197e-18)
(3.92884 -0.246556 -1.25279e-18)
(4.72248 -0.970154 -5.36539e-19)
(3.6203 0.213613 -1.26314e-18)
(4.52835 0.0231061 0)
(3.99366 0.0487427 -9.13935e-19)
(1.06026 0.0324515 7.57835e-18)
(-0.843363 0.0517592 0)
(4.72887 -1.61049 0)
(3.61336 -0.00225559 0)
(-1.18124 1.0117 0)
(4.10421 0.550828 0)
(2.44622 -0.472853 0)
(2.76346 -1.44257 1.49941e-20)
(5.95285 -1.49698 -1.25033e-18)
(4.99186 0.440498 0)
(3.59823 0.528493 2.68648e-18)
(5.49672 -5.5283 -1.16641e-17)
(4.15141 0.363892 1.83587e-20)
(0.46882 -0.325278 -2.80121e-19)
(2.44794 -0.0520208 -2.60597e-21)
(-0.0579046 0.0322536 1.64619e-18)
(3.78504 0.0283119 -6.19236e-19)
(4.87343 -0.162542 3.1056e-20)
(4.05559 0.527384 -6.81673e-19)
(3.77357 0.315912 -1.70974e-18)
(3.98679 1.68476 -8.68376e-19)
(6.48689 1.48933 0)
(-2.94834 1.70149 8.89112e-19)
(2.75383 -0.902671 -2.69266e-18)
(4.01885 0.0318228 -2.77642e-18)
(4.92945 -1.24378 4.4425e-19)
(4.47442 -0.0173855 2.01832e-19)
(5.72401 -0.750522 -1.2678e-18)
(4.39857 -0.64582 -1.30041e-19)
(4.33401 -1.07434 -6.32705e-19)
(4.06204 0.328174 7.28973e-19)
(5.22549 3.15245 0)
(2.36615 2.23065 3.81632e-19)
(3.47697 0.0287237 -3.8164e-19)
(4.56563 -0.417011 0)
(5.3318 5.08827 0)
(3.93964 -1.76987 -1.84586e-20)
(-2.24852 1.72562 2.01146e-18)
(2.80133 -1.54306 2.17174e-19)
(8.05215 -2.23501 0)
(3.85744 -0.15881 -1.67462e-18)
(3.65803 0.353386 -3.3151e-19)
(0.419429 1.02222 1.46956e-18)
(4.72068 0.399237 4.6217e-19)
(-0.192111 0.143934 0)
(-3.03926 1.6912 1.02885e-18)
(4.92081 0.499132 0)
(2.91427 -0.274452 -3.74703e-19)
(5.63184 -1.03122 -6.13684e-19)
(3.99658 0.0457736 -4.77524e-22)
(4.70352 1.05056 -6.61393e-19)
(5.35342 2.05906 -1.24945e-19)
(3.68291 -1.07119 1.71186e-18)
(-0.023488 -2.15334 0)
(5.20089 -3.53257 -1.81893e-18)
(2.84326 -6.11338 0)
(5.07995 0.393213 -7.76218e-20)
(-0.362191 1.40622 3.31637e-18)
(4.79183 -1.81971 6.56087e-19)
(0.907195 0.159377 -6.36838e-18)
(2.31058 0.188232 -1.37478e-18)
(2.80275 -1.36726 -7.11207e-19)
(2.83303 -0.910251 -1.52086e-18)
(4.56662 -0.856826 7.88569e-21)
(5.14829 -3.2262 1.51056e-18)
(2.59428 -1.16596 1.1077e-18)
(2.93454 -0.962303 1.67898e-18)
(4.64871 -3.68326 3.78741e-18)
(4.66356 -2.53387 -6.98074e-19)
(3.89861 -1.2364 7.67387e-19)
(0.291434 2.32439 3.61262e-18)
(5.08581 -0.0130997 1.07416e-19)
(4.41883 -5.51211 1.03006e-17)
(4.59699 0.628921 -2.51189e-19)
(4.71856 -0.975496 0)
(-0.94534 0.759674 -6.60073e-18)
(4.1901 -0.0361478 -1.19328e-18)
(3.99023 0.232578 0)
(5.02456 0.352945 0)
(4.57399 -4.7621 -2.28043e-18)
(5.01892 -1.17256 -8.37544e-19)
(4.71475 0.277705 -3.55207e-19)
(4.26665 -0.795594 1.3994e-18)
(3.9617 1.6037 7.66515e-19)
(3.22565 -0.0271412 1.44069e-18)
(0.0358438 1.48267 3.95117e-20)
(3.63769 1.03248 0)
(2.98758 -1.01509 1.60914e-18)
(0.420937 -0.966043 1.22131e-18)
(2.16785 0.470544 1.07661e-18)
(3.66943 -1.40831 2.59912e-19)
(3.85364 -1.73261 3.05975e-19)
(3.768 -0.0252235 7.86467e-19)
(6.18639 3.45021 2.92608e-18)
(3.94686 -0.663938 -2.5362e-19)
(0.129658 1.61959 -1.78239e-18)
(4.67837 0.280723 2.71935e-19)
(3.8847 0.0952456 6.96288e-19)
(2.52836 -0.603082 -1.36111e-18)
(3.84265 -0.246552 1.02581e-18)
(7.65012 1.24933 0)
(4.73722 0.56313 3.03807e-19)
(3.94043 0.0939215 1.5641e-19)
(3.14099 -0.728423 -5.14917e-19)
(3.71439 3.09269 -1.22584e-19)
(3.83961 -1.21415 5.96444e-19)
(4.12641 0.0400116 2.95683e-19)
(2.92973 0.0752255 -2.09392e-18)
(4.70517 -0.43327 0)
(2.01366 -1.8111 -1.1214e-17)
(4.40882 0.126952 5.58916e-19)
(4.32158 0.495166 0)
(2.97271 -0.123883 1.17718e-18)
(4.78471 0.399209 0)
(3.55553 3.07401 1.13197e-18)
(5.21224 -0.0512004 0)
(2.44889 1.98423 0)
(5.27532 0.143809 3.29597e-19)
(4.64649 0.213622 2.53816e-19)
(5.48541 -0.0497964 -8.60304e-19)
(3.85139 0.264653 -7.87763e-19)
(3.23726 2.00944 -6.06244e-19)
(3.998 0.186668 -3.30038e-19)
(4.15645 0.552178 0)
(6.18279 -0.969134 -6.35603e-19)
(4.78494 0.176486 -7.57858e-20)
(2.79912 -0.178359 8.54352e-19)
(4.69437 -0.958216 0)
(5.73501 0.924908 5.25106e-19)
(4.31231 2.90079 1.10781e-21)
(5.20415 0.0156746 4.2412e-19)
(5.0611 -1.78268 0)
(0.379303 -1.59077 1.24221e-18)
(4.08926 0.299619 0)
(4.07244 -0.534265 1.32609e-19)
(0.0229421 -0.0823343 0)
(7.43939 -0.986092 0)
(3.58569 -2.75524 0)
(4.32239 -1.58333 0)
(-2.33741 -0.690734 -4.69833e-19)
(3.06239 0.516462 -4.06472e-19)
(3.76798 -0.136015 -1.23614e-18)
(-0.302602 -0.198031 -3.25493e-18)
(2.74498 -1.2078 0)
(2.91389 -0.973029 -2.31397e-18)
(-0.2234 -0.0179507 -4.98239e-18)
(3.32955 -1.56156 0)
(3.15203 -1.15183 -1.64545e-18)
(3.58706 -1.55171 -1.41247e-20)
(4.56931 0.610493 6.25799e-19)
(5.36672 -1.54365 -6.34638e-19)
(3.74879 0.285396 0)
(4.69065 -1.36603 0)
(6.28281 -0.173124 5.97143e-19)
(1.40955 3.81659 7.39899e-20)
(5.1527 -1.56006 -1.55244e-19)
(4.24785 -4.92384 1.4212e-19)
(3.99556 0.0124842 6.76289e-20)
(3.32157 -0.456228 7.12508e-21)
(4.05368 0.332099 1.05266e-18)
(1.61365 -2.68067 4.55087e-18)
(3.97954 -1.10077 0)
(-1.84733 0.394009 0)
(4.98635 -0.264356 0)
(3.14236 0.0825417 0)
(3.63624 -0.737219 6.969e-19)
(4.98673 -0.266726 0)
(-1.21085 -1.24327 3.84775e-18)
(5.08294 -2.09751 3.71811e-20)
(2.87967 -0.987153 -2.54602e-18)
(5.51785 -5.57712 5.01883e-18)
(2.30711 0.712048 -1.12734e-18)
(0.575656 -2.19683 -2.64052e-18)
(4.13567 0.0584997 2.3454e-19)
(-0.244557 1.71921 -1.23287e-18)
(1.12572 -2.99655 4.84433e-18)
(5.41297 0.156324 0)
(4.73706 -0.640498 0)
(5.53624 3.50554 0)
(4.53047 -0.827488 2.51761e-19)
(5.47118 -2.76095 0)
(3.71452 1.01108 0)
(4.00452 0.0142405 0)
(3.72063 -0.959421 6.91275e-19)
(4.15562 0.342798 -1.04628e-18)
(1.83277 0.355722 0)
(3.07174 -1.26518 3.46503e-19)
(3.96233 0.343415 -9.70375e-19)
(4.92007 1.4859 -1.36823e-19)
(3.38612 -1.58097 8.70106e-19)
(3.83454 1.13365 2.93877e-21)
(0.929633 1.16227 -8.97911e-20)
(4.46354 5.70015 2.45408e-18)
(1.76705 0.790361 4.73882e-19)
(4.64056 0.226419 -3.3526e-19)
(5.07175 -1.20111 -2.43492e-19)
(3.67524 0.0834431 -1.20506e-18)
(4.23966 -0.0306898 0)
(1.27602 -0.461801 8.20348e-19)
(3.91924 0.12483 1.26798e-18)
(3.51419 -5.215 1.33672e-18)
(4.383 -0.620802 -3.91645e-19)
(2.37491 -0.526792 -2.3467e-18)
(4.64494 0.185654 5.565e-20)
(5.89311 0.283158 8.93395e-19)
(3.99125 0.164044 0)
(4.47254 3.79031 5.46714e-19)
(9.08322 -2.08552 -1.12015e-18)
(1.53111 0.407266 -1.00003e-18)
(-3.29691 2.09186 -5.15122e-18)
(4.02724 0.0252033 6.42658e-19)
(4.51062 -0.407848 -4.26788e-20)
(5.32253 0.0591396 -9.83823e-20)
(5.16046 -0.205293 0)
(5.31156 -3.84959 0)
(3.11207 -1.49597 1.10987e-18)
(-0.824232 0.658636 1.9311e-18)
(3.51677 0.0182367 3.5559e-22)
(3.91475 0.123404 2.53895e-18)
(4.70787 3.9655 -1.8044e-18)
(3.03686 0.348155 0)
(3.63201 0.112649 0)
(3.38937 -0.825541 -2.12999e-20)
(4.98936 0.166785 5.1784e-19)
(3.92976 1.05786 1.51054e-18)
(5.2322 -0.414549 0)
(4.07377 -0.0599837 0)
(4.41078 -1.18236 6.44814e-19)
(4.07689 -0.377329 9.29843e-19)
(-0.894012 1.34252 -8.8467e-19)
(3.85878 0.0952261 0)
(7.88617 -0.695478 1.00339e-18)
(3.78994 -1.4757 -2.79673e-20)
(0.516238 0.177864 -7.37125e-19)
(4.02197 -0.0737321 -1.34429e-18)
(5.97931 -1.28953 0)
(5.14973 -1.22862 6.61673e-19)
(5.02079 -1.69854 -1.20845e-18)
(-0.442888 0.784399 0)
(3.47002 0.12899 -2.99912e-19)
(3.83983 0.199116 -8.31614e-19)
(3.15074 0.0543791 -9.86243e-23)
(5.53905 -1.15425 3.82838e-19)
(3.86995 3.45331 1.55118e-18)
(4.14707 0.0458603 0)
(2.36106 -0.900805 -2.06189e-20)
(5.13062 3.92644 1.60266e-18)
(5.51366 -2.86848 -2.35576e-18)
(4.08688 0.509209 8.11271e-19)
(0.387182 -2.48246 1.92742e-18)
(4.05493 0.0275718 -2.99502e-18)
(2.01751 -0.403032 4.09008e-20)
(2.52577 4.78444 5.95299e-18)
(3.64222 -0.882798 0)
(5.74647 -0.486079 3.28877e-19)
(2.53207 -1.18911 8.79354e-19)
(4.59019 -0.214298 -1.45274e-18)
(3.95263 0.0977354 -1.14106e-18)
(3.97662 -0.47738 -1.62473e-19)
(3.47499 -0.445765 2.72855e-18)
(4.94041 -0.00604169 -1.26879e-19)
(3.61402 0.120867 7.13676e-19)
(4.04539 -0.96462 5.34836e-20)
(5.11857 -0.92757 -9.22653e-19)
(4.801 1.69711 -9.34855e-21)
(5.58825 -1.84256 1.30919e-18)
(4.01066 -0.0389964 0)
(3.7045 5.87061 0)
(4.43249 0.469892 0)
(2.87679 -0.927 1.96158e-18)
(4.15049 0.0775126 -1.83505e-18)
(3.63351 0.374591 0)
(3.22286 -0.764945 -1.51311e-18)
(3.62218 0.302662 0)
(3.6501 -0.66779 -1.14515e-18)
(2.9606 -0.162796 8.11971e-19)
(3.9252 -1.04972 -8.73151e-19)
(4.24064 0.0443534 0)
(3.88912 0.0767511 0)
(3.99227 0.416797 -6.62865e-19)
(4.91759 0.341618 2.26219e-21)
(4.68355 -0.211476 1.84089e-19)
(4.66391 3.09485 -4.17641e-20)
(5.21522 -0.739911 0)
(3.68756 -1.36887 -4.38054e-19)
(-0.840004 0.0862714 0)
(2.02078 1.49118 -1.24096e-18)
(5.38101 2.01386 0)
(4.44368 -0.400289 9.29097e-20)
(2.56899 -0.460961 8.99812e-19)
(3.2046 -0.386087 8.7843e-19)
(3.78397 0.2168 5.97355e-19)
(5.13226 -2.21609 -2.95915e-18)
(4.02519 -0.434166 2.33897e-18)
(4.12578 0.533999 -1.68808e-20)
(5.63314 -0.568381 1.48259e-18)
(4.13028 -0.913158 -4.27974e-19)
(-0.725098 0.0302988 2.15636e-18)
(5.05627 0.6228 0)
(3.96319 0.0981357 2.03436e-21)