/*--------------------------------*- C++ -*----------------------------------*\
| =========                 |                                                 |
| \\      /  F ield         | OpenFOAM: The Open Source CFD Toolbox           |
|  \\    /   O peration     | Version:  2306                                  |
|   \\  /    A nd           | Website:  www.openfoam.com                      |
|    \\/     M anipulation  |                                                 |
\*---------------------------------------------------------------------------*/
FoamFile
{
    version     2.0;
    format      ascii;
    arch        "LSB;label=32;scalar=64";
    class       surfaceScalarField;
    location    "9.2";
    object      phi;
}
// * * * * * * * * * * * * * * * * * * * * * * * * * * * * * * * * * * * * * //

dimensions      [0 3 -1 0 0 0 0];

oriented        oriented;

internalField   nonuniform List<scalar> 
20045
(
0.791532
-0.906869
0.115337
-1.66568
0.671051
0.994633
0.328869
2.54813
-2.877
-0.744973
0.958481
-0.213508
-1.30851
1.24878
0.0597226
-0.809677
3.179
-2.36932
-1.35947
0.602117
0.757357
0.102002
0.692052
-0.794054
0.731478
0.687095
-1.41857
-1.09387
-0.271041
1.36491
-0.208921
-0.223829
0.43275
3.63247
-1.92262
-1.70985
0.61595
-0.607557
-0.00839237
-1.84114
1.48239
0.358756
-0.530192
1.60427
-1.07408
-1.57429
0.480422
-0.0476105
-0.0819144
0.129525
1.23978
-3.15015
1.91037
-2.73989
3.91119
-1.1713
-1.13255
-0.0178749
1.15042
-0.839792
0.77924
0.0605524
0.220687
0.395263
-0.300325
-1.36536
1.01767
1.50284
-2.52051
1.2874
0.192175
-1.47958
-1.57164
2.58931
0.035626
-0.0342307
-0.00139525
-1.6772
3.26726
-1.59006
4.732
0.0171285
-4.74912
-3.23678
1.77011
1.46667
-0.490508
0.38472
0.105788
2.34665
-1.43984
-0.906818
-1.05935
2.21903
-1.15968
3.39722
-1.9251
-1.47213
-0.888459
0.990461
0.0806629
-0.0447595
-0.0359034
1.08552
2.19349
-3.27902
-0.106157
0.634184
-0.528027
-5.22806
0.683545
4.54452
0.998776
0.768883
-1.76766
0.0125377
0.726734
-0.739272
0.278967
-0.390076
0.111109
4.25861
-4.22275
-0.0358589
2.17393
-0.730322
-1.4436
0.941256
1.23267
1.86206
1.77041
-0.0666459
-0.00248367
0.0691296
2.54161
2.31266
-4.85427
3.41338
-2.32786
0.236166
2.61877
-2.85494
1.95383
-3.29518
1.34135
4.7701
-3.35196
-1.41814
-1.80418
-1.85961
3.66379
-0.13679
-0.498095
0.634885
3.18007
-2.60401
-0.576061
-1.06683
-0.241671
1.27125
1.47456
-2.7458
4.33963
-0.118547
-4.22108
1.42888
-2.48823
2.5306
-3.22251
0.691903
-0.265447
-0.157823
0.42327
-0.53596
3.06656
0.772982
-2.3047
1.53172
-0.673178
-0.166615
2.0104
-0.0799613
-1.93044
1.00928
2.39757
-3.40685
0.292233
-0.880426
0.588193
-1.02155
0.148544
0.873003
1.34363
-0.612151
1.69077
-1.70606
0.0152907
0.673754
-0.381521
2.29763
0.882441
-0.459271
-1.55679
2.01606
0.0786367
-0.247764
0.169127
1.51043
1.33721
-2.84764
2.548
-1.27675
-1.94341
3.45384
0.594445
-1.12464
0.0332939
-0.134827
0.101533
1.01802
-0.876656
-0.141363
1.18241
-2.11534
0.93293
1.33486
-1.14
-0.194867
1.89234
-1.11936
-3.30358
0.546996
2.75659
-0.0124111
0.803943
-0.669185
0.888746
-0.219561
3.16706
-1.689
-1.47806
-2.40521
0.0966855
2.30853
1.49515
0.316963
-1.81211
-1.2841
1.0688
0.215294
-2.4507
-0.775295
3.22599
1.15237
-0.210081
-0.942285
0.635797
-0.958133
0.322336
-0.341055
-1.18141
1.52246
0.949954
-1.00347
0.0535131
2.97198
1.29803
-4.27001
-0.0204374
0.0560634
-0.034713
0.750246
-0.715533
1.9191
-0.920325
-0.0279357
-0.081743
0.109679
0.717261
-0.636598
-0.740284
-1.10086
0.833012
-0.867725
-0.68333
5.02296
0.0707001
-0.739885
0.0612846
-0.0892203
0.639631
1.8241
-2.46373
4.49289
-4.16475
-0.328139
-0.033352
-0.746085
0.64177
0.104315
-0.416822
0.521959
-0.105137
1.80418
-1.10485
-0.69933
-0.797235
0.660445
2.93482
-3.54838
0.613557
-0.355047
0.559791
-0.204744
0.0828942
-0.505372
0.422477
1.66197
-0.374572
2.51092
0.886302
-1.84369
1.38442
1.22915
-3.72748
2.49833
3.30502
-2.06523
-0.453808
0.18836
-1.24475
1.01965
0.225091
-0.735172
0.153455
-0.93395
0.780495
3.16932
1.60078
1.77957
-2.23255
0.452986
2.38198
0.272957
-2.65494
-3.08465
2.42021
0.664437
-0.211096
-1.87474
2.08584
5.11948
-1.95016
0.0967058
-0.0991895
0.418023
-0.36837
-0.0496535
-0.121283
0.0836308
0.0376526
1.71417
1.20045
-2.91461
1.83815
-1.68044
-0.157715
-0.458624
0.120163
0.338461
-0.530473
-0.215613
3.9454
-2.71625
-1.02932
1.09984
-0.0705136
1.74921
-3.08886
1.33965
1.0328
-2.83698
2.00623
0.701871
-2.7081
1.13966
-0.121644
3.45856
-0.501071
-2.95749
1.42417
-2.49158
1.06741
2.54962
-2.62564
0.0760157
-0.34708
0.550356
-0.203276
-0.0389745
2.96763
-2.92865
5.01284
-0.280845
-2.47578
0.0789678
2.39681
-1.40607
1.21721
0.188861
-0.103107
1.28551
0.391889
0.942974
-1.90277
2.26612
-0.36334
-2.24786
2.57673
0.031792
-0.615645
0.583853
-0.781468
0.783101
-0.00163308
-0.0516913
-0.602654
0.654345
0.930476
0.549267
-1.47974
3.93249
-1.87945
-2.05304
-0.710855
0.659164
-0.136933
-1.69471
1.83164
0.340442
-0.0614744
-4.03529
-1.4097
1.90237
-0.492664
-1.89741
1.46682
0.430584
-0.0390502
-0.139006
0.178056
0.102158
2.44747
-0.06851
-0.0527734
0.03049
0.387533
-2.06306
0.16028
-2.20345
2.79267
-0.589222
-2.0323
2.40545
-0.373141
2.37942
-0.0426609
-2.33676
0.211289
-0.0775883
-0.133701
1.17731
-1.34909
0.171772
2.51086
0.177298
-2.68815
0.00140752
-2.22993
2.22852
-1.19458
3.20081
0.651647
-1.726
1.07435
-0.778657
3.71348
-2.68958
1.68778
1.0018
0.328387
-0.349934
0.0215464
0.958512
-3.0345
2.07599
-2.64303
0.965831
-3.13997
-0.962657
3.00799
-1.84211
-1.16588
-0.913641
0.926178
0.50299
-0.536419
0.0334286
-1.25566
-2.18429
3.43994
-2.35458
3.52256
-1.16798
4.37246
-2.4903
-1.88216
0.0836638
-0.66504
0.581376
-0.125734
-2.58525
2.71099
0.25621
-0.465131
-1.92546
1.71436
-2.02751
-0.663786
2.69129
0.359143
0.0941122
-0.453255
0.26643
-1.67613
-0.235225
-0.255283
2.54288
-0.160898
-0.518661
0.412504
-0.540468
0.660257
-0.119789
-0.928594
1.85907
-2.88571
2.75997
-0.061449
1.30757
-1.24612
-2.15937
0.479995
1.67937
2.01607
2.35639
3.2403
-2.28179
2.04417
-3.41167
1.3675
0.659822
-2.52346
1.86364
0.177036
-1.30959
-1.48035
2.11998
1.92324
-2.73292
0.940209
-1.85658
0.916369
-3.5055
1.99361
1.5119
-0.192123
-1.09197
0.556751
0.489923
-1.04667
1.90977
-0.534044
-1.37573
-0.129354
-2.03831
1.99933
-0.80645
-0.222873
1.90498
3.46957
-3.45954
-0.0100251
-0.0369847
-0.443485
0.480469
1.94583
0.268801
-2.21463
0.484774
0.00965571
-0.49443
-0.0265796
1.45437
-1.42779
1.82055
1.3465
1.79069
-1.13904
-0.182185
0.940995
-0.75881
2.5985
-0.849288
0.371551
-0.0306733
-0.340878
-0.585935
-0.217854
0.803789
-0.42193
0.438034
-0.0161044
2.97099
-1.92523
-1.04576
0.838922
-3.19351
-0.46686
0.0449299
-2.82377
0.934866
1.88891
3.29808
-1.07905
0.731615
-2.93506
4.53589
-2.53243
-2.00346
-0.0544595
0.413602
3.70951
0.891643
-4.60116
-1.81007
0.333546
1.47653
-3.09962
3.08619
0.0134276
0.859453
-2.53163
1.67218
0.0655093
-0.0630506
-0.00245865
-1.43805
1.82357
-0.385516
0.0968356
0.618605
-0.71544
-0.515734
0.160687
-0.499678
0.0828557
-4.23902
0.0742748
1.57433
-1.71261
0.138281
-0.269493
0.10365
0.165843
1.09288
1.25377
1.70512
-0.764909
-0.416507
-0.364961
1.8733
1.42478
-1.55041
0.137868
1.41254
-1.15777
4.86728
1.09542
0.508846
-0.137725
-0.131768
-0.886463
-0.0860657
0.972529
-0.0134063
0.341794
-1.68574
1.65916
0.0106644
-0.317991
0.307327
-2.73789
2.62909
0.108793
-2.29653
2.04144
0.255087
-0.480627
-0.427338
0.907965
2.26506
-2.48608
0.221018
-2.12632
-1.37919
4.13401
-2.98055
-1.15346
-0.349812
0.312828
2.78662
-1.92716
-0.315225
1.88955
-1.95904
0.0334013
1.92564
2.90812
1.12776
-4.03588
2.56717
0.324969
-2.89214
-1.94307
-0.0159649
2.5966
-1.49128
-1.10532
-0.53248
2.37486
-1.84238
1.71597
-2.92261
1.20664
0.260738
0.223407
-0.484146
0.0036583
-0.0273415
0.0236832
3.45255
-2.80985
-0.642697
-1.66655
-1.4181
3.08992
0.379644
-2.48035
-0.257533
0.245657
-0.831593
2.71183
-1.78473
-0.927098
0.0130956
0.489894
-1.61646
3.33063
1.0871
1.88389
3.25832
-2.01658
-1.24173
-2.72736
2.06357
2.72854
-3.80176
1.07322
-1.85212
-0.17288
2.025
-0.769056
-0.435104
1.20416
1.87018
-2.00712
-1.61694
1.55549
-0.0584689
0.11688
-1.55672
-1.46027
3.85202
-2.39175
-0.643287
0.102819
-0.616299
0.434114
0.349133
-3.44875
3.0221
-1.20154
2.15772
-0.78771
1.02222
-0.23451
0.0693477
-0.814321
-1.44916
0.973255
0.475906
0.761523
1.04266
0.956733
-0.00977656
-0.946957
1.41861
0.41954
1.2092
1.50262
1.72799
-0.232838
-0.690952
-1.46841
2.62492
-1.79378
-0.831139
3.20278
-3.65714
3.4197
0.237443
2.35274
-2.58499
0.232243
-1.38726
1.04621
-0.414874
-0.04375
-0.155805
-2.29489
0.860729
-1.68033
0.8196
1.339
1.2576
2.59121
-3.24648
0.655272
0.675411
-1.652
0.976593
-2.91534
0.510122
0.0401201
1.11225
-1.7293
3.30586
-1.57656
-0.67722
0.963432
-0.286212
-1.12687
-0.232608
-0.420904
-0.697721
1.11862
0.3507
0.00193612
-0.352636
-0.964308
-0.441759
1.09688
1.35122
-2.44811
3.09932
-4.25709
0.93918
-1.34212
-0.045149
1.4156
-0.740192
-2.09283
-0.596754
0.524391
-0.61298
0.0885882
4.70711
-2.1655
-1.3881
2.34134
-0.953242
-0.407295
0.480866
-0.0735705
2.02777
-0.117994
-2.64058
0.855852
-1.53795
2.88193
-1.34398
2.4267
-3.43579
1.0091
1.4384
2.69561
0.0102583
-0.0625894
0.0523311
0.31437
-2.16649
0.337089
-1.11106
0.773976
0.229824
-0.151188
-0.195883
1.97545
1.89554
1.12656
-1.77293
2.43275
0.532845
-3.27274
-3.52501
1.78134
1.74367
1.97539
-0.389921
-1.58547
2.79805
-0.532987
-1.24318
-2.24269
2.36394
1.33309
0.0745575
0.165481
-0.240039
0.967456
-0.985331
-2.20455
2.00867
3.38601
0.872606
-2.45742
1.06932
3.3909
-0.300977
-0.714017
0.696952
0.0170651
-0.0440806
-1.73122
1.7753
-2.70574
0.504813
2.20093
2.47662
-2.47662
-1.24823
2.65845
-1.41022
1.01692
-0.0601839
1.80139
-1.10685
-0.694539
-2.83007
2.93654
-0.106469
1.0555
-0.128885
-0.926616
0.853727
-0.295946
-0.557781
0.411483
-0.89211
0.171263
1.81172
-2.12694
-2.43682
2.88997
-0.453149
-0.868344
1.96523
0.0668982
0.00520863
-0.0721068
0.0342803
-0.343792
0.309512
-1.13061
1.30764
3.13858
-2.54178
-0.596802
-0.278416
-1.54004
1.81846
-0.770638
0.81471
-0.0440728
0.486053
-0.872777
0.386724
-3.71209
2.87194
0.840147
0.645332
0.313149
-0.787321
0.073304
-0.0105963
-0.0662219
0.0768182
1.57186
1.88069
0.0698027
-0.00290449
-0.268266
-0.716077
0.984343
-1.51406
2.45174
-0.937672
0.0797642
0.437682
-0.517446
1.16297
-0.56085
1.60568
1.78151
-3.38719
0.130166
-1.31157
0.27324
2.23762
1.29745
0.975162
-2.27261
1.46918
-1.20274
-0.266448
-3.03493
0.55915
-1.13492
0.54651
0.588408
1.25285
1.62997
-2.88282
-1.90597
1.73309
0.193776
-2.7191
2.52532
-0.446214
0.529878
0.341315
-0.382647
0.0413323
0.0859126
-0.972376
-0.0831527
0.249725
-0.166572
-2.14322
-0.680553
1.82551
-0.312099
0.536005
-0.223907
-0.443612
0.0363164
0.474969
-2.10748
1.63251
0.593051
1.56656
-2.15961
0.991406
-2.12402
2.54018
-0.416161
-2.16594
1.63346
0.0130187
-0.0472494
-1.18998
-0.707427
-0.843025
0.195379
0.647646
-2.65204
1.13797
1.96436
-2.24278
0.469267
2.92163
-0.948399
0.931639
0.0167598
1.07227
-2.71906
1.64679
0.549758
-0.87475
0.324992
-0.642208
-1.99837
-2.02135
-0.0109498
-1.02925
0.00770559
0.17856
-0.0948597
-0.0837003
1.01226
0.03532
-0.0884362
0.0531162
2.71532
-1.46247
-2.19991
0.455814
1.7441
0.784115
0.620005
-1.40412
-1.05347
0.607257
-0.735702
-0.107323
1.01649
0.784905
-2.39565
-1.33183
0.569619
-0.0452278
1.82619
1.29516
0.43283
-2.5862
2.82237
0.189635
-1.19152
1.00188
-0.26697
-2.4774
2.74437
-0.555069
0.610573
-0.0555038
0.242074
-0.0307847
-1.30084
3.01681
2.63297
-1.2088
-1.13077
-0.31839
-0.0359681
-1.25529
1.29126
0.0391803
2.34024
-0.234794
-1.412
1.6468
-0.151356
0.884729
-0.733373
-1.92532
0.104085
1.82123
4.88458
-2.57192
-0.0239625
0.313345
-0.289382
-0.692798
-0.0778395
0.611117
1.06712
-1.67824
0.411213
-0.504389
0.0931757
0.358497
-0.0618948
-0.296602
-1.18505
4.15703
0.337306
0.0133934
-0.730514
-2.19024
2.92075
2.67049
1.27492
2.61521
-2.02216
-1.11679
0.695887
-0.0659423
0.0696006
-0.903022
3.63156
0.402162
-2.30277
1.90061
1.42287
0.243911
-1.66678
-1.21196
1.97815
-0.766189
1.16886
-1.03856
-1.29196
2.33053
0.0998251
-0.073348
-0.0264772
-0.849358
-1.45694
2.3063
-0.296314
0.330594
0.160205
-0.199255
1.51982
-2.36917
-2.11341
-0.631631
2.74504
-0.119606
-1.49186
1.61146
-0.215314
3.08977
-3.22819
0.138418
0.667691
-0.354097
-0.313595
-0.00112574
-0.947273
0.751081
0.77138
-0.930376
0.16132
-2.40774
3.04051
-0.632766
-0.289606
0.300271
1.55711
-0.417447
-3.23166
-0.991095
0.0027802
0.0166156
-0.0193958
1.59726
-0.302105
-0.649549
0.715441
-0.0658919
0.706712
-0.609877
-4.73877
1.5988
2.68071
0.498283
-0.302306
0.788359
-0.674875
1.45899
2.19434
-0.382622
-0.670983
0.0214342
-0.27353
-1.93102
0.690406
0.727618
-0.695826
-2.75696
0.0512198
-0.0526628
0.67967
-0.129912
-3.35812
0.753642
2.60448
1.3343
0.356468
0.639093
-0.22812
-0.410972
0.88141
-0.813193
-0.0682173
-0.425475
0.380716
-3.21504
1.67709
0.0716793
0.199895
-0.271575
-0.0102324
0.588104
-0.577872
3.34475
-0.0426795
-3.30207
0.567304
0.0401789
-0.607483
-0.416453
-0.828293
0.734653
-0.0988563
0.191224
-0.173838
-0.0173866
1.19072
-0.154622
-1.0361
0.0383952
0.152829
4.34872
-3.05069
-0.0859527
-0.466525
0.552478
-3.08816
0.680415
-0.0086186
-0.122164
0.955176
-0.711213
0.399115
-0.349211
-0.0672958
0.769585
0.485064
-1.25465
1.87812
0.132284
1.14805
-0.958413
0.680777
-0.597883
0.300431
-0.97765
0.57059
-0.281476
-0.289114
1.6597
-0.192146
-1.46755
-1.52446
-0.967122
-0.681326
0.104523
0.576803
1.015
-1.19624
0.181239
3.26294
-0.0798038
-3.18314
-0.585918
0.0791585
0.506759
-1.48247
2.04275
-0.560277
1.4724
1.72576
-3.19816
0.286297
-0.44412
-0.804502
1.3409
-0.536402
0.701177
0.27249
-0.973667
-2.92677
1.58358
1.34319
-0.147102
-0.0267361
-2.53387
0.420463
0.976039
-0.572683
-0.403356
1.3361
-1.78694
0.450843
-0.312452
-0.594417
0.403794
2.68598
2.45911
-0.411665
-2.04744
-2.47656
0.352546
0.971683
-1.66263
2.18306
-3.97121
1.78814
-0.339385
0.896137
-0.0101791
-1.12288
0.85461
-0.507065
0.660519
-0.297009
-2.31595
2.61295
1.14904
1.63758
-2.1906
2.32794
-0.137341
0.111747
0.0668132
-2.36336
-0.641988
-0.386054
0.432926
-0.0468724
1.69363
-1.68436
-0.00926998
-0.244407
0.379457
-0.135049
-0.303409
1.63951
-2.66357
-1.01754
3.68111
-2.37652
-0.739523
3.11604
1.35414
-1.11069
-0.243447
-0.690886
0.0620075
0.628879
-0.43357
0.061277
0.372293
-2.87892
0.121579
2.75734
0.0652069
0.616177
-0.681384
2.34282
-2.62973
0.28691
-1.42477
2.27744
0.38037
-2.65781
0.0370844
-0.423138
-0.043475
-1.68944
1.73291
2.68521
-3.46386
-2.84147
2.47443
0.367033
0.491455
-0.0802418
1.21464
0.342475
-0.220491
-0.593022
0.813514
-0.0334758
0.504419
-0.470943
-1.22015
2.79229
-1.57214
1.78047
-3.25667
1.47619
3.04021
-2.90917
-0.131039
2.215
-0.948665
-1.26633
0.119839
-0.722617
0.602777
-0.908313
-0.0256366
-3.12317
2.76275
0.360416
0.170438
-3.2936
0.666465
2.88145
-3.54792
-1.63472
-1.17514
0.644488
-0.528018
-0.11647
-2.41222
-0.675939
-0.60496
0.418301
0.18666
0.423711
0.0610635
-2.82193
2.6874
0.134538
-0.0669783
-0.213281
-0.0344829
0.612252
-0.0449485
-1.74041
0.302357
0.489405
-0.549163
0.059758
-2.15022
1.58308
0.567145
1.11877
-0.0632648
-0.791276
1.73898
0.288789
1.09324
-1.79251
2.42837
-0.635858
-0.37499
1.5523
-1.93358
1.20031
0.733277
-0.211521
0.0644197
2.69377
-1.54473
2.31909
-1.24681
-0.546741
-0.546365
1.09311
0.883998
-2.21572
1.33172
1.69491
-1.81451
-1.69118
-0.188096
1.87928
-0.018525
-1.59204
-0.341549
-0.29028
1.50118
-1.2109
0.0156261
-0.818981
2.86315
-3.15209
0.739877
0.448327
-0.187589
-0.37583
0.0640648
0.451739
-0.0137052
-0.325603
2.2603
3.15046
-0.602464
-0.445764
0.317737
0.128027
0.158553
0.695174
-3.52254
-0.979956
4.5025
-0.444575
2.31476
-0.0149225
-0.459415
0.474338
2.45864
-0.525623
0.0413902
0.484233
0.159989
0.410602
-1.15997
-2.9374
0.500575
-0.677595
0.0345858
0.643009
2.38792
2.14797
1.77758
-0.314832
-1.46275
2.92021
0.120001
1.80496
-2.57989
0.774926
-2.444
-0.0243896
2.46839
-2.47026
3.19847
-0.728215
0.451382
-0.0182679
-0.433114
-0.820164
3.50537
0.140061
-0.1065
-0.0335611
0.123428
-2.31403
0.0403133
0.287149
-0.327462
-2.8041
3.6176
-0.813499
-0.758805
1.6585
-0.899697
3.48446
-1.53628
-1.94819
0.0501901
-1.79005
1.73986
-0.344559
-0.038088
-1.3309
2.80331
1.84635
-3.09458
3.24879
-0.822088
-0.575182
0.489229
-2.55833
0.114335
3.43719
-0.845975
0.0166587
-3.32024
0.76158
-0.0348455
0.383467
2.53674
-2.92021
1.64688
-0.442533
-1.20435
0.494332
-2.0004
1.50607
-0.504464
0.0315393
0.472925
-0.655727
-1.4283
2.08403
1.09346
-0.793027
-1.68467
-1.79308
3.47775
0.413227
0.703317
-1.11654
0.238991
0.405497
-3.77125
4.31621
-0.544956
-0.601341
0.0462716
1.32034
0.664153
-1.98449
1.52835
1.29328
-2.82164
0.535187
1.44021
-0.0862099
3.54477
-0.00547917
2.35335
-2.34787
0.117898
-0.0381335
0.181793
0.0251086
-0.206901
2.50708
-2.34534
-0.161738
0.71278
-2.40396
-0.0923553
0.105506
-0.0131509
-0.798963
2.37734
-1.57838
0.00402102
0.544282
-0.548303
1.17014
-1.98523
0.815099
-1.23571
-1.48873
2.72444
2.32595
-0.380125
0.809971
0.83691
-1.92484
1.14322
0.78162
0.866163
-2.40621
0.182711
-0.443222
0.260511
0.590664
-0.164677
-0.425988
0.0343371
-0.378896
-0.211677
2.40125
-2.18957
-0.393102
3.01187
2.26951
-1.87578
-0.393734
1.91799
-1.60102
-1.51107
0.568442
0.942633
0.119702
-1.22655
0.733292
-0.546789
-0.186502
0.208155
0.430937
0.441566
2.18207
-2.62364
0.657285
0.533438
0.400403
-2.77692
-1.22488
0.35578
0.869103
-0.954424
-0.763566
1.71799
1.4676
-0.698013
-2.51882
1.65047
1.01608
-0.776054
-0.240022
-2.03377
2.20874
-0.174972
-1.27581
1.40598
-1.09349
1.46318
-0.369684
-3.99116
3.91644
0.0747174
-0.0668719
0.648518
-0.581646
-0.738191
0.727958
-0.686444
-2.85587
5.31385
-2.45799
-1.60366
2.08366
1.4781
-1.5762
0.0980966
-0.00368115
0.078356
-0.0746749
-3.05072
2.32965
0.721065
0.0275409
0.355538
-0.383079
0.0601138
1.50278
-2.72293
1.9863
-1.10231
-1.70345
-1.82156
-2.09387
2.08839
1.3972
0.0696231
0.972955
0.4298
-1.40276
-1.01181
0.952539
0.0592684
0.171482
-0.753414
0.581932
-0.295037
-1.52337
1.8184
1.65739
0.710618
-2.36801
-2.17469
-0.607091
2.78178
-0.303254
0.299573
2.08495
0.422124
-4.1654
3.88621
0.279196
-0.250383
0.152913
0.09747
0.0174955
0.588362
-0.740721
0.152359
-1.0416
-2.01031
1.71528
0.43646
0.627869
-0.50803
1.74603
-0.0523927
0.0998103
-1.97455
0.105969
0.843986
0.185839
0.00118299
-0.187022
-1.9656
-1.66843
3.63403
-1.66556
-0.259283
-1.5056
-0.196244
1.70184
0.377164
0.55004
-0.927203
0.00746983
3.32542
-2.13311
-1.19232
0.513424
1.94568
0.151263
0.974231
-1.95751
0.983276
-1.17216
2.57202
-1.39986
-1.6758
-0.651371
2.32717
-1.37876
0.574258
-1.07116
-0.439912
3.30079
-1.50468
-1.79611
0.20521
0.104053
-0.309263
1.03114
0.251875
-1.28301
-0.537306
0.602513
0.419459
-0.391528
-0.0279314
-0.146732
-0.0674348
-0.643421
-0.0306297
1.91372
1.38707
-4.37411
5.05765
-1.03049
2.8006
0.317385
-0.112175
-2.46126
0.785454
2.15779
-1.84342
-0.365969
-1.9149
0.432429
3.49722
-2.83075
2.00537
-2.04945
2.43651
-0.0837675
-0.579422
-0.378711
-0.617835
-0.305015
0.922851
-0.914483
-0.0889841
2.22582
0.396025
-2.62185
-0.0250709
-0.740712
0.765783
0.069473
2.34012
-5.05239
2.71227
2.51716
-0.174341
-3.10795
3.08357
0.0243867
0.623811
-0.475267
-2.94113
-0.10959
-0.838327
2.86295
-0.100196
0.160566
3.55088
-1.46402
-2.08686
-1.77899
-0.168478
1.94746
0.452726
1.41753
-1.87025
-2.06913
0.143812
-0.567217
-0.258014
0.82523
-1.39239
1.79455
0.453103
1.47225
-1.92536
-0.763025
0.415015
0.34801
-2.68786
0.267701
2.42016
0.528925
1.45738
-0.68967
1.48256
0.732435
-0.701994
-0.432925
2.72495
-3.22602
-0.0594477
-0.994625
1.05407
0.402358
-0.116061
1.99332
0.115759
-2.10908
1.81785
-2.84835
0.0176802
0.047829
-1.27392
1.76318
-0.489254
-1.71075
1.66728
-0.0540796
0.836239
-0.782159
-0.441544
0.18803
0.253514
0.0929243
0.14915
-0.79624
1.76792
0.231573
-0.159894
-0.475561
0.512646
0.848927
-0.839271
0.0344423
-0.0974929
-0.59227
0.569641
0.022629
0.630484
-0.698224
0.06774
-1.77334
3.11055
0.296852
-1.80245
-0.0978777
-0.815763
-0.0125845
1.66651
-1.65393
0.944284
-1.03035
0.555974
-2.11762
1.56164
-1.76971
1.3421
0.427605
2.3404
-3.80067
-0.968843
-0.0715143
-2.76995
0.587117
2.56335
-2.19456
-0.324258
-0.948595
-2.70855
-1.24625
0.548533
0.174631
-0.0398035
-0.134827
4.0619
-1.67398
0.661943
-0.324855
-0.674906
-0.491579
1.16649
-3.09039
1.29947
1.79092
-0.503388
0.279559
-0.335665
2.6131
0.496398
-0.275711
-1.15331
0.275687
-0.135626
0.433402
-0.348477
-0.0849253
-0.371392
2.59721
-0.47957
0.346519
0.133051
2.77749
-4.02365
1.98379
2.03986
0.717654
0.539706
-1.25736
0.526914
-2.75242
2.22551
-1.55873
0.799923
-2.00542
-0.0877055
1.11884
2.6511
-2.91807
1.22409
-0.522917
-1.14356
2.00972
-2.03136
1.44542
0.585943
1.31426
-2.17254
0.858279
-2.04081
2.17271
-0.131898
1.08613
-1.46112
0.0419139
0.561274
0.792863
-0.276692
-0.599965
-1.3309
-2.29257
0.663065
1.62951
0.706126
-2.48511
1.45637
-0.0633884
-1.74668
0.353774
0.576319
3.03295
-1.02195
-2.01099
-0.852521
0.813291
-1.76771
0.493426
-2.76099
2.59251
-2.02487
0.986306
1.40028
-1.68627
2.77103
-1.08477
-5.33819
2.84025
2.49794
-0.8382
0.534047
-0.685402
-2.87736
2.03667
0.840686
2.63776
-3.45793
-3.60133
-0.169917
4.0337
-1.85064
0.305772
2.43352
-2.7393
-0.069342
-0.455038
0.52438
-0.498082
-2.3458
1.5526
-3.16614
1.47987
0.429204
0.664254
0.587325
1.07709
-1.66442
1.14665
-0.656726
-0.272396
-3.20767
3.48007
-1.01301
1.41498
-2.60956
-1.60464
-1.21734
2.82198
0.732264
-0.942345
-2.02736
0.67444
1.35292
-0.358007
-0.166463
0.524469
2.47019
-2.7672
0.347701
-1.62162
1.13505
1.1415
-2.27656
-0.407913
-0.0378512
-2.38949
0.703629
1.68586
-2.57919
1.34348
1.39729
-2.56945
1.40413
-1.46358
-0.361542
0.00353529
-0.490322
1.91319
-1.73386
2.19758
-0.463716
0.603603
-0.116591
-0.487012
-2.5046
-0.0473745
-0.740336
0.145667
2.33095
0.386859
0.0940064
-1.56046
0.814666
0.202251
1.47055
-0.660297
0.83178
-2.64163
-0.180305
-1.21887
4.37707
-3.48543
0.542207
0.53629
-1.0785
3.64311
-0.449549
-3.19356
-0.33808
0.319812
-0.986673
-2.22837
-2.23437
-0.350619
-1.07279
2.89065
-0.949575
1.36727
-0.4177
-2.95068
0.985077
-0.861626
1.44895
-2.6743
-0.683814
-1.05348
-0.77582
0.947591
-1.98049
-0.169729
3.29526
-0.432319
0.411129
-2.79114
2.38001
0.100641
0.840355
0.783741
2.90654
-2.71276
-0.0723101
-0.645521
0.967857
-1.38751
1.52538
-1.34978
-1.26486
0.616038
0.528779
-1.14482
-2.53351
0.0568911
-0.376861
2.20745
-1.83059
-0.419022
-2.68893
-1.95679
2.22559
3.594
-1.58685
-2.00715
-0.259731
0.80624
2.72371
-1.61979
-1.10392
0.77307
-0.840505
0.128077
0.0537152
-0.429407
-0.0366289
0.466036
-0.396397
1.36935
-0.985275
3.62304
-0.0451314
-0.482887
-0.783013
-0.285923
1.06894
-0.0239624
2.49415
0.452734
1.00829
-1.46103
-1.06918
1.6803
1.1627
1.21465
-1.05901
-0.165872
1.5133
-0.532492
-0.980812
-0.149503
0.0567984
0.0927045
0.278916
-2.13546
1.85654
-2.63111
0.396741
0.636654
0.0949097
4.28216
-0.0120898
0.78516
0.420695
-1.37027
0.0335602
2.33038
-2.7848
0.90535
-1.33483
0.204224
-1.28631
-1.7582
3.04451
-3.51612
0.192743
0.274934
-0.467677
2.46331
-1.91632
2.04818
-1.59545
0.39796
1.52465
-1.92261
0.45399
-1.02121
0.267166
-3.50295
3.23579
0.574058
0.43566
-1.00972
-1.14198
2.62483
-1.48285
2.60152
-1.4199
-1.18162
1.11746
0.244694
-1.36216
-1.52073
-2.50292
-0.907687
-0.121565
2.33025
2.78923
-0.0365136
0.297308
-0.260795
-1.89159
-0.497895
2.02621
1.88498
-1.50541
1.86654
-0.361136
-0.554349
0.595739
0.202269
1.12187
-1.32414
-0.0877233
-0.391846
-0.297863
-2.57949
-4.2792
1.01754
-0.00146464
-0.60326
0.368035
0.202831
2.08096
-2.28379
-1.46207
-0.278337
4.02513
-0.925813
0.204907
-0.73538
0.1147
-0.0723874
-0.0423128
0.294736
-1.03894
0.744209
1.01852
1.02292
1.70986
2.41131
-1.07231
2.87316
-1.45818
-0.355068
-0.712032
1.0671
2.10713
0.267725
0.0210633
-1.95856
1.30283
2.03631
-2.06027
-1.37052
-1.45862
2.82914
-1.68677
-1.40363
-2.66909
2.69467
-0.025573
0.0932159
-0.975226
0.670211
1.65217
0.759135
-0.287673
-0.288311
0.575984
-0.671161
-1.03489
-3.17311
0.344339
2.82877
1.68459
-2.12916
0.379722
-0.197011
1.73345
-2.72013
1.22413
-1.03195
-0.89467
1.98457
-1.0899
1.55179
1.58194
0.800097
-2.38204
2.9334
-1.75018
-1.18323
-1.19071
-2.60122
3.39593
-0.794703
2.64487
-2.23374
-0.819774
0.807684
1.19819
2.28628
-0.626197
0.556855
0.0969545
-0.0616345
2.70591
-1.50547
1.89314
2.16876
-1.19135
0.651891
0.539458
0.647918
-1.19466
2.10619
-0.112864
3.26242
-2.95665
-1.8885
-0.24164
2.13013
0.549999
-0.0716279
-0.478371
0.471188
0.196504
0.40103
-2.87128
-0.792974
0.878886
1.94301
-1.72706
-0.215947
0.437911
1.07539
-0.450728
0.222607
0.683805
0.680278
-1.36408
-1.28265
2.71153
-0.125485
-1.37321
3.44134
-2.06813
-0.666977
1.0802
-0.309396
-0.453629
3.0522
-1.50544
-0.974916
2.84573
-2.31882
0.816286
-0.914164
-0.50201
0.435138
-0.847071
-0.424035
-0.0195763
1.14424
-0.43383
2.28783
-1.854
0.0431502
-0.0537466
-0.917026
0.324003
-0.967266
0.059579
-2.89585
2.16533
0.643808
0.697096
-0.593209
-1.13975
1.73296
0.575902
0.312844
2.42183
1.47146
-3.89329
-0.319681
-0.047304
0.366985
-1.82991
-0.370006
2.36612
1.22788
2.19168
-1.98885
-3.50425
-0.0162986
-0.0214256
1.62035
1.26978
0.991584
0.256966
-1.24855
1.05059
-0.106302
-0.0749707
-0.892625
-0.298724
-2.50224
-1.22257
1.34227
-1.46209
1.91791
1.58354
-1.54272
-0.0408205
0.547064
0.0225765
-0.200979
0.720285
-0.089801
2.24019
0.595946
-2.83613
0.315036
0.118367
-0.65836
0.407194
0.251166
-0.976512
0.0115223
0.964989
0.901141
1.34048
-2.24162
0.657198
0.8104
1.9054
-0.0387695
-0.758465
1.32475
-0.51008
0.626467
-0.630052
0.00358506
-3.50013
2.53747
2.33589
-1.86362
-0.47227
0.0443336
-0.425738
0.381405
2.51749
-2.72916
3.42503
-1.74044
0.827957
1.22022
-0.39745
-0.026585
-0.440041
0.0863469
0.353694
-1.517
-0.368753
2.99555
-1.53294
-1.46261
4.05815
-3.17135
-0.886799
1.12788
-1.99742
0.869543
-0.235094
1.44751
-0.0319066
-0.894832
1.81091
-0.916081
-0.310798
-0.129242
-0.140269
0.495441
-0.148923
2.45966
0.0173914
-2.47705
-0.670977
-0.110118
0.295957
0.109459
-0.00395272
1.0492
0.713974
-0.507904
0.263497
0.00358081
-0.168716
-0.276952
0.347652
-1.09124
1.4892
0.0364552
0.691163
0.280182
-1.21752
2.3104
-0.046013
1.62955
-0.346991
-0.356195
-0.668264
1.35207
-0.511386
2.30928
-1.79789
-2.22557
-0.308307
-1.44863
2.31644
-0.867802
0.180514
0.314927
0.869483
-0.177431
-0.0558468
-0.667066
0.722912
-2.256
0.750559
0.370161
-0.394124
1.19449
-4.71703
0.881191
-3.07143
-0.90391
2.40675
-0.704848
1.39585
-0.715577
0.0378462
-1.69929
1.9782
0.00104135
-0.444526
0.280733
-1.39142
-0.310685
-1.61832
1.92901
-0.089711
-0.555072
3.88274
-2.41569
-1.46705
-0.630215
0.206578
0.636887
0.0630793
-0.699966
-2.17433
0.44047
0.563216
0.0274483
-0.019033
-0.374292
0.393325
0.982362
-2.431
0.233077
1.19988
0.160981
-1.36086
-2.57453
2.06314
0.421099
0.110737
-0.531836
2.47052
-5.32639
-0.412241
-0.00209593
0.414337
0.54692
-0.125821
0.0110558
1.98128
-1.44609
1.6158
1.36508
-0.707881
-2.40161
0.796962
-1.79343
1.50405
0.289375
1.38266
-2.75318
-1.33736
-0.878062
2.21542
0.220452
0.996755
-0.810633
0.681748
2.92447
-0.393663
-2.53081
-0.00463691
-2.63699
1.0623
0.055158
1.16554
1.55817
-0.453805
-0.00561016
0.430921
-0.797892
-0.882437
0.129039
-0.156727
0.0276882
0.122645
-2.13004
2.0074
-0.24085
0.854496
-0.613646
0.428781
-2.54602
2.11724
-0.198962
-1.48147
-0.0766212
0.040603
1.78093
-0.900865
-0.561486
1.46235
-0.962764
-1.18045
1.22027
-0.691488
0.306847
0.17777
-0.484616
-1.99024
1.39704
-2.90594
-0.313945
-0.180451
0.494396
0.176267
0.873073
-1.04934
1.73977
-0.901167
-0.838606
0.159157
-1.52452
0.445175
-3.24928
-2.11246
-1.1201
3.23257
-2.54622
0.119492
2.42673
-3.73657
-2.11406
0.0732564
-0.775623
0.786847
-0.0112241
-2.9149
-0.996264
3.23645
1.01858
-0.533514
0.225142
-0.893406
-0.464468
1.27487
0.427812
0.292925
-1.07594
0.0504435
-0.409217
0.358774
-0.40916
0.0620804
-0.28605
0.330383
-0.654422
1.37208
-5.10637
2.72799
2.37838
-2.4502
0.833261
1.4448
0.580201
-0.030202
-0.926143
0.63847
-1.27161
-0.755746
-1.47585
0.553999
0.921852
-0.0390723
0.625825
-0.586753
-1.03439
1.32913
-0.276079
1.95545
2.42969
-1.97696
1.58807
-2.55083
1.19277
-1.47592
0.283152
0.331045
-0.0177006
-0.0542449
-0.00834453
-3.02406
1.73775
3.41266
0.645486
0.0420786
-0.552354
0.510276
-3.57817
1.3303
0.437624
-0.655478
-0.532566
-0.0419954
-0.608339
0.650335
-1.52144
0.620579
-2.7506
2.45274
2.50672
-1.37166
-0.611835
0.55873
0.0531051
0.0165312
8.44244e-05
-0.431274
-3.30872
2.611
0.697717
-0.414391
0.367087
-0.0917918
0.812023
-0.720231
1.34525
2.07978
0.224646
-0.112796
-0.11185
-0.720603
0.757058
0.160729
0.0690952
1.60241
-2.8634
2.74198
0.178221
0.47897
-2.16797
2.51236
-0.0883302
-2.42403
-0.150475
-0.583383
0.733857
-1.8262
1.50059
-0.299585
2.00379
-1.70421
-0.0581409
-0.0825645
0.140705
-1.97437
1.97863
-0.00425274
-0.962092
1.51807
-0.98889
2.76936
3.45112
-1.098
-2.35312
-0.0362269
0.72858
-0.692353
-0.2304
-0.850571
-0.057742
-0.832637
-0.0179344
0.177719
-0.892646
0.714926
-0.225116
2.49497
-2.26986
-2.53186
1.0437
1.48816
0.819465
2.52529
0.0850295
0.159154
-0.244184
1.48465
0.70783
-2.19248
0.115417
0.059214
0.916179
-1.46558
0.549401
-2.13636
0.247861
1.73888
0.790963
-2.12832
-0.00382677
-0.31463
0.318457
2.54658
-0.634664
-1.91191
0.911859
0.592671
1.40256
0.857745
2.72365
-2.99604
-1.33348
0.22963
1.10385
-0.178153
0.156923
0.45908
-0.616002
0.0208605
-0.0401971
0.0193366
-0.0242992
0.347684
-0.323384
0.841692
-0.888389
0.0466973
-1.53559
3.26905
-0.827251
0.791283
0.537825
-0.629617
1.00363
-1.46731
0.463677
-0.811735
-1.21963
-0.438896
0.00532576
0.132854
-0.0146393
-0.118215
1.78153
-1.37753
-0.404003
0.257164
1.68585
-0.662646
-0.349161
-1.55102
0.295728
1.07624
1.06815
-2.14439
-0.0155684
-0.0568963
0.0724647
-0.0572092
0.938619
0.0285294
0.195016
-0.223545
2.63515
-1.15858
-1.47657
-2.67678
0.360838
1.40444
-1.79952
0.152047
1.64747
2.91424
-1.0187
-0.793059
0.670895
-0.0942378
0.0399929
-1.62577
2.36085
-0.735086
0.425778
0.0706202
0.374883
0.404358
-0.657507
0.612375
-0.462361
0.541519
-1.64728
1.27816
0.369121
1.96688
-1.01798
-0.948902
1.4255
-0.406976
0.675685
0.139026
-0.614885
0.509748
-0.169716
-0.97028
-1.74955
-1.50712
-1.86576
0.970929
-0.397852
0.459129
0.380751
0.166169
-0.0251853
-0.0329556
2.29002
-2.31571
0.0256917
4.18647
-1.27908
0.60433
0.674748