/*--------------------------------*- C++ -*----------------------------------*\
| =========                 |                                                 |
| \\      /  F ield         | OpenFOAM: The Open Source CFD Toolbox           |
|  \\    /   O peration     | Version:  2306                                  |
|   \\  /    A nd           | Website:  www.openfoam.com                      |
|    \\/     M anipulation  |                                                 |
\*---------------------------------------------------------------------------*/
FoamFile
{
    version     2.0;
    format      ascii;
    arch        "LSB;label=32;scalar=64";
    class       volScalarField;
    location    "7.3";
    object      p;
}
// * * * * * * * * * * * * * * * * * * * * * * * * * * * * * * * * * * * * * //

dimensions      [0 2 -2 0 0 0 0];

internalField   nonuniform List<scalar> 
5098
(
-0.423438
0.601419
0.178437
1.92686
-1.75546
2.18628
0.143335
-1.32273
0.189671
0.350972
-4.74374
0.752018
0.287271
2.50469
-0.741253
-0.0114236
-3.18931
-7.34638
-3.56134
-3.37472
1.57527
-0.016341
0.742364
3.11463
-6.15985
2.11057
1.44752
1.31281
-3.58044
0.407131
0.613223
2.6988
1.62606
-1.70869
-0.279539
-2.51512
1.52554
1.5572
2.40372
0.939787
1.88375
-10.0611
2.07849
0.231084
-0.0342443
0.715747
-4.0064
2.74419
0.620696
1.97122
0.312256
1.9623
-4.56282
1.45394
2.19218
2.19273
1.6631
1.79091
2.70588
-0.299836
-0.0472335
-4.70342
-0.283605
0.338071
-4.55482
2.53395
0.0451887
0.235642
1.18107
1.68641
1.61761
0.0723146
1.11644
-0.0963936
-0.19456
1.97231
-0.168303
2.25521
0.322942
2.12533
-0.344267
-5.04939
1.93947
-2.01551
-7.77654
0.333114
3.35102
-0.174779
-1.47995
-0.0698268
0.814028
-4.46069
0.774521
1.92901
2.41425
0.138927
1.65945
2.32032
-0.18242
1.17056
-6.26964
2.11947
-0.462925
-0.192053
2.2556
-0.19156
1.53156
0.180055
2.78775
-4.89767
1.8047
-3.36375
1.54359
-4.49272
1.507
-3.54291
-5.95819
-1.10392
-0.349173
3.08738
1.92361
0.405805
0.332084
-7.40089
-4.57395
-3.47322
1.36246
0.793613
2.49042
-4.50454
-7.72376
2.62767
2.59354
-0.883947
-3.53258
-2.86024
-1.23823
1.49875
2.42871
1.44123
1.98109
-0.80733
1.21492
0.20863
0.707392
-0.336354
1.24384
-1.4497
-1.21876
0.954979
-9.49089
-4.5021
-1.75421
1.64246
3.38332
3.01578
1.79596
-5.08835
1.88946
-3.59415
1.37934
-0.834821
-4.40085
1.78813
-7.04191
0.490351
-2.04973
0.375519
-6.29684
1.79464
0.139901
1.977
0.523461
1.32602
0.547366
0.843007
1.89634
-2.46465
1.89307
3.37266
-2.45406
-5.71968
1.67872
-6.85097
1.75706
-0.747295
2.24293
1.49388
1.9425
-4.45131
-3.46667
0.317375
1.05914
-0.211359
0.5226
-4.48181
-3.68489
-2.96254
0.0124526
1.75401
-6.5266
1.94904
-0.0252467
0.610273
1.39876
3.0119
-0.786887
2.46101
0.958686
1.04797
1.60304
1.91377
0.297397
0.660307
-1.08353
-3.51211
-0.226144
-5.88052
-4.50398
0.882084
0.747448
2.11977
0.0267629
0.728237
-4.49988
1.4793
3.30149
1.52532
1.25143
-0.0808062
1.6473
3.15901
-4.27761
0.0027327
0.353609
0.398714
1.25414
-5.03157
-2.21816
1.80297
-5.17856
0.470149
0.0332851
2.84293
1.52471
0.827579
2.45421
-5.43735
-3.3294
0.765143
0.553601
1.25409
-3.65527
-5.75054
1.67158
-4.9428
-3.16245
0.351432
2.7012
-0.0947542
-0.757093
-4.52364
-5.89627
1.13448
0.0439955
-5.56032
-3.59284
-5.22621
0.203451
1.83163
-4.43407
0.0281906
-3.5903
0.21418
2.66536
-0.35085
-10.4047
-8.82814
0.475241
1.6057
-7.50253
-1.13916
-4.50306
-1.22359
-0.703023
-1.08211
1.67879
-0.244936
0.496132
0.799032
-7.54206
-4.37025
2.84575
0.0257529
1.22775
0.333051
-0.332029
0.567323
1.3987
1.63771
-0.342128
-0.825801
2.06608
1.45833
-5.42222
1.48536
-1.35302
0.846385
1.65813
-4.0804
0.852048
-3.73121
2.14064
-0.265572
0.234322
3.36599
-1.10555
0.0207605
1.02306
2.9416
0.300327
-4.28164
-2.03508
-4.17458
-0.176556
2.44209
0.623607
1.47467
2.75719
-0.256749
1.65924
0.984919
2.43174
0.364596
1.64031
0.278207
0.539791
1.99996
1.19671
1.66505
1.17132
1.72169
0.362225
1.60592
-3.48257
-0.171005
1.32878
-3.66877
-1.09811
0.737462
0.132375
2.94556
2.91312
-6.84629
-0.286698
-7.09622
-2.87239
0.551969
2.45442
0.0314066
1.53992
1.29719
0.974632
-0.215201
0.202874
2.69734
1.61348
1.06397
0.443464
-5.11257
2.59677
0.223574
-2.58908
-0.111014
0.0782491
-4.77964
1.70409
0.281919
0.452489
-0.220913
1.43909
-3.27425
1.69604
-0.827641
0.188306
-1.89859
-0.178738
-5.39815
1.86053
-0.588846
1.43855
0.418175
1.59482
1.81508
1.22504
-2.50785
2.01002
-2.79676
0.583154
-1.08409
-4.60721
2.88833
2.17606
1.54433
-3.5115
0.546343
1.45054
-5.69302
0.290678
-1.34413
1.54996
-0.474132
-4.5125
0.13432
-1.32792
-0.0936671
1.46506
2.91565
-1.64454
0.666497
1.43003
2.16577
0.0953473
0.907861
-7.35224
-4.48874
0.0112535
-1.09273
0.136486
1.34078
0.0258121
-3.58945
0.0149267
1.49771
-1.64336
-4.15002
0.0470118
0.789516
1.29772
-2.21685
1.88438
1.65208
1.18336
-2.83955
1.44093
-1.33133
-2.74244
-0.710027
-3.51514
1.38189
-3.82045
0.927444
1.57661
-2.65828
-3.76242
0.195155
-10.013
0.579086
1.41647
-2.49453
2.04504
-0.13875
2.90157
-2.12793
1.87238
-6.49836
-4.49542
-8.71787
-5.1787
1.83956
-3.53742
0.390482
-1.19988
-2.19535
1.43325
-2.1486
-3.60452
2.15555
-2.67669
0.955456
0.871888
-0.519423
-3.20879
1.06079
0.176174
1.58242
0.424945
-0.983904
0.340545
1.49016
-2.61185
-1.3519
-0.2895
-2.48058
-4.36403
0.00134363
2.27726
-3.4436
2.18218
1.63065
-6.86857
0.756166
-3.61451
-7.81014
-3.59141
-3.7615
1.20026
0.979894
-2.62992
-0.301742
-4.58203
1.55825
1.79273
0.46739
0.823382
1.37788
2.9419
-4.73265
-0.949096
2.44266
-5.80509
-1.44994
2.88
-0.284151
-3.00323
0.00762192
-4.87557
-4.12335
1.31392
0.463335
0.420966
3.27877
-8.24098
0.0773511
-4.57724
-0.111449
0.365692
-1.35622
-4.51446
-3.098
1.42932
-0.432899
-4.68081
1.79022
-2.87555
-4.8066
-0.212237
-4.11185
3.30359
-2.85078
-1.58379
1.64242
-0.070856
-3.7531
-1.21313
-3.81741
-8.33531
2.16447
-3.99923
-1.45579
-4.0927
-1.1639
1.70619
-4.37456
-0.83643
-4.90007
-3.80502
-0.403005
-6.17297
-3.79571
0.578041
0.263286
-4.08685
1.52249
1.93262
3.28375
-0.758688
1.74976
2.55247
-6.59902
0.271286
-10.5411
0.831146
-0.704662
0.411918
-0.395625
-0.308178
1.18674
0.832614
-4.7264
-4.61389
2.89069
-1.34048
-7.68622
-0.146863
1.71072
0.788054
1.05432
-2.43699
-2.18512
-0.194124
2.11867
0.431243
-0.0379777
2.63181
-1.17605
2.48365
-6.69347
-4.83088
-1.02784
-1.62922
-4.60579
-4.42149
2.55006
-2.41347
-2.14377
2.5916
-1.22724
0.109873
-0.0174201
2.85167
-3.57334
2.27422
0.40235
-0.111132
0.323069
-4.54751
0.984108
-0.807294
-0.0935645
-8.6813
1.25089
2.08314
-6.01626
-0.21258
1.8233
2.81668
-4.71246
1.81944
3.27772
-2.19495
0.912449
-1.12084
1.65224
2.40021
2.08563
-3.39668
1.35851
0.448157
-6.12925
1.2884
-0.229924
1.77082
-4.26038
1.44052
0.755615
-0.639748
-0.072228
0.417132
1.41832
1.88931
0.255284
-7.002
2.72718
1.73022
2.18368
0.328035
-1.15549
-0.209387
-0.439767
2.65412
2.92653
-3.07942
1.78013
-5.86033
-4.95536
-0.289814
1.49742
-3.58976
-3.59191
-6.31225
-7.11061
-0.425398
0.663898
-2.13838
1.51903
2.00771
-3.57873
2.04282
-0.00558972
1.64437
-4.54861
-8.26535
-0.0896778
2.79196
-0.701953
-2.14321
-1.22518
-3.55926
1.36798
-1.97335
0.61948
2.56149
-6.96185
-8.31665
-3.26667
-9.07935
-3.63436
1.94127
-0.603865
2.87424
2.7333
2.52845
-7.07042
-4.60955
-3.4767
-3.64261
0.284391
-4.54921
-4.24032
-4.4493
-7.57486
2.12683
-4.49842
1.75138
-6.50773
2.49263
1.48452
-4.89676
0.348678
-3.68848
3.18904
-0.639702
1.2713
-1.89412
-8.49194
-7.33521
-8.12427
-3.93355
2.10442
-1.07511
-1.02024
-4.41884
-4.49373
0.773032
-5.44675
-0.45272
-0.0455682
0.374757
0.480328
-8.90872
1.93508
2.53391
-4.63074
0.905868
-6.90272
1.8268
-3.59806
0.273015
0.869774
-6.33299
-0.0676527
-4.48354
-1.05168
-7.37259
-3.66649
1.74607
1.11643
-3.3541
-0.303727
0.810909
1.42404
0.0816897
0.296291
-8.4611
3.24619
0.936108
1.9477
-0.464983
0.893642
-4.62634
-9.44681
-0.184455
-4.91038
-3.17219
2.62949
2.32115
-4.08191
0.831216
-5.12494
2.3142
0.459136
-4.49573
-4.52029
-4.46007
-3.62036
-0.0902066
0.205364
1.69882
-1.05124
-0.0827193
-4.57084
1.14793
-3.68636
-4.65072
2.06411
0.653601
2.68056
-0.861942
1.8488
2.01454
1.84861
-1.61257
1.65139
-0.565307
0.346699
0.576317
0.273212
0.831861
-4.46522
-4.6361
-7.19189
-10.6807
0.89445
1.3906
0.630628
-4.56106
0.160196
3.34541
-5.04431
1.77958
0.0198411
2.5588
-3.96974
1.65959
-2.90095
-8.83376
2.75886
-2.23047
-3.57663
0.850907
2.85773
1.72721
-0.467909
-1.18273
-1.65668
-4.37842
-2.73664
-4.64466
1.80324
-4.89449
-2.58911
-4.5061
1.04177
0.025018
-3.66495
-1.3014
-4.53491
1.17464
0.197772
1.55027
-4.65275
-3.9918
2.58327
-4.81342
-3.0598
-4.35407
0.30532
-4.49625
-4.56563
-6.29761
-0.4084
-0.0560841
1.47314
-4.62413
-7.51946
-3.72118
0.0939765
-0.000716083
0.150492
0.0906269
-4.50311
1.53402
-0.842526
2.58239
2.11532
0.538542
2.04853
0.771614
1.5237
3.05444
2.00354
-7.95588
-8.70538
-0.27559
-8.51607
-0.657894
-6.22981
1.80423
-3.89199
2.32424
2.42941
1.48102
1.45441
-7.75839
0.698965
-2.3559
-0.265765
2.61992
1.81112
-0.175591
0.0332531
-4.47911
-9.54922
-0.801599
-3.78436
-2.15557
-0.324484
0.0991446
-6.01805
0.334088
2.71011
1.60179
2.03585
1.87757
1.8948
-0.0695179
-0.583603
-0.841873
-4.59115
0.649478
0.339189
1.19159
1.23
2.81249
-3.73619
-0.967627
0.179956
1.69443
-3.2903
-0.0601376
-4.25711
3.15016
1.6504
-4.5001
1.43218
-0.527463
-10.3802
1.47934
1.84114
0.850644
0.665596
0.491619
-2.72893
-0.0963847
0.320349
2.62502
-0.93064
2.33783
-5.17298
-4.13864
-5.83943
1.39983
2.04714
-2.35647
-0.156965
3.1315
0.586498
1.24949
1.30129
2.91778
0.377333
1.69814
-0.0243271
1.826
-0.347157
-0.44869
2.33105
3.25175
0.449129
-6.1926
-0.159008
-1.22275
-4.92713
1.82619
0.973315
-2.45432
1.39423
1.95896
1.36575
1.52249
0.085864
1.79811
2.35108
-1.94006
2.97928
1.91617
0.656778
0.00875503
-0.830649
0.0305232
1.58807
0.48218
1.74894
1.9142
1.48347
-8.00727
-9.96751
1.97687
1.10021
2.31116
-0.452485
1.49113
1.78566
1.05504
2.03531
2.11629
-0.143178
-0.0741982
1.4907
2.05147
-2.05782
-0.934309
-1.63629
2.08397
0.39454
1.7971
2.90042
-6.5313
2.81184
3.09474
-0.267056
-1.41071
-0.335768
3.31575
-3.32014
1.94967
2.93183
0.828545
-4.49564
1.0417
1.16277
3.08337
1.07728
1.14102
3.19793
2.3786
-0.0399434
3.17241
2.55524
0.0358434
-4.77057
-4.51992
0.0132646
0.40379
1.85819
2.51798
-3.488
-0.289897
1.15532
0.494377
2.33172
-3.50069
2.78612
-2.56394
-7.38888
1.22409
-2.08197
2.09152
-0.560462
1.22983
-6.03509
2.52584
1.59646
1.70466
1.72324
-11.2812
-0.0967797
-0.255151
0.780166
0.932283
2.68861
1.77469
-0.011456
0.98755
0.419127
-6.11353
2.49546
0.0316946
2.04417
-0.0811348
-0.194683
-7.3478
0.35386
0.779537
2.86344
-0.0082136
1.08596
-6.6116
-4.92756
2.40315
2.45729
-6.58285
2.34251
0.785066
-6.86592
0.346959
0.835138
3.27339
-0.352545
-2.37656
2.09541
-0.786161
1.92101
-4.47673
-7.71876
-0.0764436
-4.42356
-4.55421
0.265953
1.70982
-0.286183
-4.59786
0.0114895
0.00595226
-2.02155
1.00561
2.72614
1.40901
1.27955
-2.62564
-3.00948
0.156703
1.19714
-1.39747
0.00870575
0.0252924
0.00048762
0.279114
1.36625
0.694705
0.877811
1.32611
0.909724
-1.39529
-3.97165
0.261339
-1.78394
3.13441
1.20078
0.784541
-2.31508
-1.15632
-0.573805
-0.246904
-6.49119
-3.13365
-0.729555
-1.30509
1.71439
0.180493
-0.0485796
1.84252
-4.54671
-0.404416
2.6767
-2.59946
-2.06155
0.502311
1.65562
-7.61033
0.390485
-8.60128
-0.118551
-3.18969
-1.90334
1.93402
-6.68472
0.831111
-0.0561455
-7.44894
-8.45149
-0.728719
1.51583
0.237095
-5.20533
2.661
-4.62033
1.73027
-0.51933
-2.87959
-1.72878
-1.1667
-4.42213
1.51504
1.64138
1.67495
-0.0675101
-6.02358
2.3822
-9.01786
-2.29709
0.00905392
-6.40094
-0.152952
0.0166332
2.38583
-4.37491
-3.65113
-6.18551
1.26387
1.19344
-8.97227
1.03532
-0.083446
-0.697716
0.520052
0.900695
0.574525
-0.353512
-9.48136
2.56774
-0.177799
-0.0127383
0.835472
0.0149779
1.28858
-8.81487
-0.767057
-3.07811
1.31794
-0.193617
-0.139294
0.70315
0.00829484
0.248561
-0.19931
1.69283
-0.28618
-1.61149
1.41262
1.56932
-0.187677
0.929546
0.936276
1.69135
2.01688
1.72832
0.336652
2.81045
1.25716
-2.04659
0.996435
-7.74799
0.114745
-0.00122199
0.77957
-0.34552
2.81438
0.441492
0.4127
-0.777067
0.628038
-2.00519
0.469585
-4.36509
1.24361
-1.51504
1.48314
1.01166
1.68216
-7.00531
2.10483
-5.04841
1.54255
1.75136
0.662812
-2.76768
-2.33204
-4.00583
1.82369
-9.42579
-3.61097
1.8379
0.894734
-0.160674
1.89515
1.44495
-1.15426
2.57311
-1.46727
-0.0329473
-2.07564
-1.56921
-0.168554
-0.589636
-1.87215
2.82222
0.00430573
0.676589
-0.897352
-6.53875
1.82026
2.11243
0.0111733
-0.0259049
1.59424
-4.15943
1.34513
1.66233
-0.662472
-0.744249
0.929779
-0.138707
2.86365
-4.67083
1.36131
-0.199396
-1.06927
2.81995
1.68916
0.354296
2.24217
-6.61453
2.02011
1.99745
0.121492
1.59907
1.36564
1.3278
1.63244
-0.932288
1.7616
-0.279548
0.59795
0.00569262
-3.6134
1.85882
-4.51521
-4.426
0.0325075
-0.301991
1.03544
-4.37091
1.45637
0.403143
0.915153
1.50866
1.12401
0.0905872
0.135919
-8.71525
1.67339
0.685034
-4.81764
-1.84627
-2.10312
1.66207
-5.03653
-5.60359
1.50971
-5.33344
1.9489
1.12389
-4.70231
-4.575
1.84465
2.14551
-1.3879
1.45416
-4.46504
-1.3762
-4.5117
0.429464
-1.17923
-4.49704
3.05647
0.521493
-4.24966
0.0233472
-1.00022
1.63673
0.769143
-2.26099
-4.45929
-5.89285
-7.43916
-4.44884
1.01476
2.51789
-0.328622
-10.0903
0.0176603
-4.48404
1.99614
3.09157
-4.75083
0.957817
1.56243
-4.46733
0.484388
2.77773
-3.00586
-2.43721
1.36298
1.46898
1.2964
-1.19136
0.77058
0.00862854
0.806874
-1.91848
-0.0310603
1.64091
-0.710966
0.350444
0.862717
1.54897
1.04372
-0.0594602
0.853717
1.65847
1.29008
1.32117
2.87879
-1.66701
2.69917
-0.167049
2.63216
3.24359
-2.67621
0.120296
0.502082
1.56943
-3.44975
0.847191
0.879027
-0.101643
1.63257
2.3139
1.70228
1.76202
0.679815
0.9157
-8.32475
3.16458
-4.79484
0.20294
-5.67982
-1.00311
-5.95845
1.65679
1.75982
1.01875
1.85344
-2.05169
-0.0351713
1.94297
1.38358
-0.137086
-1.36658
0.131258
-0.308986
0.460198
1.70233
3.03324
1.58294
2.10907
2.02039
1.66157
2.89533
1.14917
1.61694
0.303623
-6.30071
0.56023
1.1303
1.05703
3.19949
0.175734
0.755036
0.00164923
-0.0908285
3.05581
1.05275
-0.415097
-6.95112
1.1755
-1.56644
-0.2192
2.20309
1.74879
1.31019
1.81719
0.0491667
2.41867
-3.96245
1.28846
0.433109
0.261813
0.181601
2.49706
0.309039
0.0773678
1.65896
1.40112
-4.30428
1.5403
2.57198
-0.52252
-6.07558
-4.66456
-3.70012
-0.884753
-5.39997
-0.496564
1.51893
0.518457
-0.0212748
1.59515
-0.330722
-0.808994
-0.918187
-3.38927
-3.98969
0.233334
-4.6635
-4.50507
1.52733
1.55982
2.12284
-3.74416
0.768679
-0.347305
1.54756
2.56146
-5.71982
0.0188932
-0.12225
2.61337
1.14859
-3.77586
-1.07449
-3.67215
-0.0374401
-0.0154859
2.79184
-0.132923
0.00248928
0.814126
0.470257
0.0104108
1.02107
0.261879
0.661629
-4.59855
-5.74212
0.368773
-4.58401
-0.162493
0.523911
-3.47474
1.78168
1.1424
2.97959
0.581839
2.72587
-0.54333
1.89541
-1.3002
-0.253827
-5.29646
2.42958
-0.029421
0.362717
0.313654
-2.93689
-5.57171
0.0100959
0.0134895
-0.19902
-0.382073
-0.242664
0.161279
1.13609
1.96742
-4.04765
-0.0431635
0.16728
-0.353542
-0.0210682
1.74353
0.291502
0.950573
-0.266656
-0.103839
2.23527
-3.42573
0.614953
0.00250333
0.0220306
-1.0228
2.18778
-2.60935
-0.168325
-0.159391
-4.92166
-1.2709
-0.186818
2.6255
1.98313
0.00662579
-3.38735
-10.999
1.63625
-0.211544
-0.44083
0.00399717
0.59601
-0.0202904
-0.118281
-1.42185
0.00396253
0.775349
-0.803007
1.56193
0.0605672
-1.86153
0.393726
0.721357
0.0539984
0.0767073
1.64453
0.3414
-0.624818
-0.785671
-0.24351
-4.89619
-0.179706
1.66897
-3.45505
-0.827038
-0.0385173
0.0108211
-1.45025
-0.00725047
-0.185132
-0.0426107
2.3409
1.19985
-3.61785
-0.174357
-5.95275
-4.51697
0.0757201
-0.21461
1.7875
0.685718
1.37431
1.52491
-0.0603046
-3.25097
-5.2482
-3.58199
-2.27905
1.8179
-0.172268
0.553054
-4.51143
1.8793
0.00849377
1.75153
-0.110904
-0.0716707
2.16585
0.0199427
-0.0031073
-3.54502
2.27772
0.345968
1.50423
1.65514
-7.88366
-0.0313321
1.58142
-3.96747
2.22088
-1.37689
2.15639
-3.19106
-0.178348
-0.0638027
1.68294
2.08999
-2.99897
1.44824
0.77227
-0.224912
2.4249
0.684269
-6.89739
1.58754
-0.146735
-0.240703
-1.50037
-7.77198
-0.15421
-4.93141
0.00151933
1.48846
1.25615
-0.20053
0.0158306
0.825545
-0.27154
1.56326
-2.98404
0.018758
-1.10541
-0.960889
-0.163901
-0.859958
1.22114
-0.0332388
-0.133774
-3.79484
1.64731
-0.188929
-3.81635
-0.215132
0.466448
2.59879
-0.158158
-0.00119524
1.02426
0.240135
-0.311484
-0.263554
-2.51703
0.292489
0.0196637
0.2524
1.72488
0.00490732
-0.17562
-3.23474
-0.11433
0.0167645
-0.514617
1.65055
-0.518819
0.0143964
0.226066
-4.20524
-0.182002
-0.0951453
0.8484
-5.64988
0.118552
-0.00325488
-0.198675
-0.194117
0.0165225
0.0127394
-9.23688
-1.04694
-2.25846
0.595703
0.781899
-0.399856
0.811308
0.884562
-0.120555
0.017475
0.884461
0.16643
0.0198272
-1.68655
-0.0784876
0.426414
-0.705757
-6.56052
0.0149858
0.536514
0.0768739
1.10851
1.0088
-0.171801
0.412448
1.65473
-0.00941267
-5.95524
-0.0906849
-2.60928
2.09414
1.58458
0.0269168
-0.036495
-0.171757
-0.0592689
0.0111723
-0.166744
-5.04
-0.0917386
1.55168
0.199093
-0.0985113
1.611
-0.0940155
2.52557
-0.178735
0.15557
0.0960012
-0.188171
2.24167
-0.0736857
0.0268596
-8.60528
0.0289765
1.21022
0.705325
-0.127393
1.64948
-0.295824
1.14109
2.07172
0.711484
0.999746
-0.122252
0.895673
-0.0222831
0.363824
-2.77583
-8.40688
-0.00682771
1.98808
0.660532
1.37839
0.89324
-0.00180794
0.0240987
-0.013898
-0.0792102
0.984299
-7.38296
0.0221161
0.00882634
0.00884312
-0.147647
-0.43891
-6.63676
2.66074
-9.11835
-4.49981
2.51828
0.00378311
0.0159151
-0.0483621
0.00121445
1.33977
0.0119089
-0.0590772
-3.59566
-9.4063
0.196232
1.66336
0.00963355
0.0209881
-0.572514
0.0117447
-0.133185
-0.0972373
-0.0873462
0.0191913
1.65581
-9.32329
-2.38098
0.789032
-0.219927
-3.57803
-0.136282
-9.53105
-0.0279791
1.6245
-3.63553
2.02486
-0.261596
0.00325456
-4.5033
-0.174844
-0.258276
-0.139523
-6.87269
-2.1707
2.5371
-5.23828
-2.61519
0.00483569
-2.35045
-0.0142085
-0.0253093
-4.26744
0.00883841
-0.0964586
-0.318742
-0.105303
0.0261021
2.02425
0.431096
0.00314815
-0.087789
-0.0626473
-8.58788
-0.186218
-2.78923
-0.151732
-0.301971
1.9095
-0.00261672
1.66484
-0.00634744
-0.0340637
-0.0249361
0.00416116
0.0167652
-3.58487
-10.1182
-0.291459
0.86537
1.29689
0.736447
-0.0370923
-0.054183
-0.0112425
1.87224
-0.111028
0.265684
0.90207
0.00728788
-0.0698379
-0.162155
-0.0718837
0.00184574
-0.0315708
1.66806
0.00256048
1.11852
-0.0265885
1.61393
0.0258333
0.885555
0.00741161
-0.0304195
-4.40696
-0.0702676
-0.0995436
-0.392922
-0.102943
1.32667
-0.0411837
0.302149
-0.182457
-0.157711
0.31631
0.0340738
-0.11694
-7.4875
-4.4868
-0.0565007
2.06192
1.57009
0.0125179
-0.121109
-1.55807
0.0305524
0.394609
-0.209791
0.00118957
2.22157
0.145466
0.0319313
0.00300716
-4.07466
1.65557
-0.480472
0.0453457
0.00493981
-4.70779
0.0866689
0.0234272
-6.70576
0.801506
1.05217
-0.0127103
-0.116048
-0.00460275
1.60381
-0.00215863
0.015883
-0.0141203
0.024759
-0.760372
0.0150776
0.0287963
0.00545742
-0.115424
0.0218571
0.0171572
0.00537879
0.0208101
-0.387372
-0.114124
-0.0457259
0.0381699
2.99692
-0.0790556
0.0622168
0.00506426
-0.4379
0.573447
-0.0594728
0.0413747
0.290579
0.0286289
-0.0386497
-0.0346343
0.00417189
1.6348
0.0089447
-0.0657339
0.0547228
0.0153215
0.0174002
0.0667173
-0.0895177
1.76601
-0.179162
-1.6149
1.2563
-0.026873
0.020589
0.0201004
-0.111793
-4.46956
-0.395424
0.231202
-0.0185781
-0.0908884
0.0198941
-2.58267
1.77555
1.78643
0.00551096
-0.126081
-0.00927517
-0.0382823
1.61901
0.00236456
-0.0818875
1.71232
-0.0210354
1.70907
0.0361362
0.00510096
-0.0839956
0.0356776
0.00281448
2.02539
-0.147751
0.00243759
-0.464137
-0.510546
1.50404
2.27426
0.00357501
-0.37907
0.012963
0.0233919
0.00219179
1.52601
-5.48675
0.00167197
0.0227459
-0.0771331
-0.0797752
-0.0555442
0.0351843
-1.60004
0.000751975
0.0313079
-0.909542
1.64455
-2.83072
0.026344
-0.0685155
1.16795
1.2314
0.0226218
0.00394995
-4.49416
-8.24523
0.00749473
0.0173533
-0.000243588
0.0168212
0.00232802
-4.29518
0.0108133
-0.0362965
0.0180971
1.73302
0.00095296
0.0132995
0.00834395
-2.46494
0.000569941
1.50233
0.0105054
1.85306
-0.0914982
-4.82204
0.0200783
0.0192643
-0.00164259
-0.101251
-0.0601422
0.0168352
0.034716
0.00649452
0.00187718
0.00337016
-0.0278266
0.0192222
0.0272978
-0.0438903
1.68887
0.0391349
-0.681016
1.93254
0.00413519
0.0136457
-1.30802
0.681363
0.0108092
-7.32763
0.0115962
0.0307124
-4.38905
-0.0433169
0.0207044
-0.559131
0.0259663
-0.633686
-0.709291
-0.00227358
-5.92687
-0.20333
0.0207759
-2.31307
-0.693239
0.0198093
0.016861
0.0314073
0.145817
0.0234091
0.0239642
0.422153
0.0102613
0.0121842
0.029822
-3.35257
0.00164395
0.00645028
-0.00446261
-0.103284
-0.0818519
-0.00242699
0.00621548
-4.67331
2.60425
0.0315627
0.000989228
0.0387365
-3.28582
1.84854
-0.156597
0.118547
0.00269648
1.8675
0.00619449
0.545353
-0.0496142
0.00503483
0.0197787
-0.21651
-3.58154
-0.174728
0.295906
1.30835
0.0250606
-0.0019955
-0.152034
1.76037
-0.0106321
0.0294597
0.00935381
-0.136902
1.4733
-0.224836
0.0263819
0.00918063
-0.00349305
-0.00468743
0.0329541
0.917622
-0.105829
2.21303
0.00733801
-4.60705
-0.330561
2.43858
0.995738
-0.0161858
0.0176666
0.0258327
-0.0600323
1.54605
-0.334913
-0.0357228
0.0190956
-4.83762
-0.00160316
0.020018
0.0351604
3.14522
1.11345
1.63618
-0.00807357
1.66948
0.00398773
-10.9012
-5.00154
2.06684
-5.58936
-5.27135
0.0183331
1.09969
-0.243215
-0.0032259
-0.681019
-0.283701
-2.02629
0.380678
-0.911472
-0.0419355
1.64739
-0.130163
0.168602
0.0213036
0.0214484
0.0236282
1.75572
0.0101428
-7.00207
0.0378073
-3.67955
-0.00187837
-0.0328004
0.00764054
2.65113
-5.89885
-0.354999
-0.132382
0.0266499
0.0294122
1.18728
1.64953
-0.0880635
-0.0223886
-4.6511
-0.00888787
0.657095
2.97301
0.936433
0.2351
-0.585366
-0.297897
0.00619891
0.54648
0.0314372
-0.0839315
0.00655561
0.766078
1.59952
1.42849
-4.69817
0.994747
-0.0573943
-0.0495633
-6.80645
-0.0385098
-0.0160355
1.76078
-0.139571
-4.53085
-0.00670263
2.55359
-1.09617
-0.330824
-0.42305
-1.24246
-0.0667532
-3.72641
2.76404
-0.720924
-2.10148
-4.46222
-0.206191
0.00892421
0.289339
-0.544298
-0.146974
-1.65111
-4.53178
1.68447
-0.0748992
0.0239822
-0.0317657
0.774855
-0.180352
-4.48465
-0.00380978
-1.0817
3.08735
-0.0105893
-4.44629
2.78667
0.00535939
-0.000356635
-0.780265
0.00890655
1.82457
-7.25224
1.56674
1.65109
-0.370136
-0.321162
1.65656
0.931428
-0.428562
-1.21184
-7.12603
-2.13688
1.75371
-0.0136605
-1.28626
-4.3382
0.37479
-0.944167
-0.113406
-0.601217
1.62562
-0.625811
-0.0285646
-4.1558
0.00854937
0.0102931
0.0303676
-4.48034
-10.6956
-0.0196791
-0.016551
-0.0256221
-0.904803
0.0277273
2.97806
0.0234075
-6.82736
0.434777
0.0113544
1.59959
-0.163807
1.65285
0.0341978
1.45243
-3.61056
-0.0258606
2.35299
-1.14025
-2.40927
1.92008
0.285793
-0.134375
-0.145504
1.68236
1.67065
0.0409615
1.73786
2.77299
0.882047
1.79125
-2.74342
-0.057767
2.46597
-4.13836
0.466734
-0.527087
1.60144
-1.6128
1.81041
1.71661
1.90079
-1.85644
-0.0807781
-0.551503
0.00482646
0.00131205
-11.3659
-5.50207
-0.0511993
0.0103239
-4.17068
-0.511335
-0.434057
0.0545963
1.98292
2.15693
2.06255
-0.0150778
0.999509
-0.162605
0.557297
-0.0126296
-0.644831
2.89826
0.0227693
-0.229857
0.094519
-4.60286
2.26996
-0.218576
-0.707729
-3.32637
0.0495846
0.29034
-1.40316
-5.92099
1.13284
0.0256736
1.18833
1.72613
-5.93514
-3.62442
0.0888309
1.6176
-0.913792
0.00710117
-0.0653263
0.0093695
1.24388
0.22278
-0.166971
3.26011
2.34126
-0.175714
-0.00840944
-4.12254
2.64487
1.35156
0.128783
2.93843
0.0120409
1.45572
0.701885
2.73508
0.173482
-4.91642
1.08299
-4.41269
0.00405226
-0.423249
0.124335
-6.27199
2.79122
0.130503
-0.136662
-0.0748085
0.100693
0.947567
3.08492
-0.143632
-0.155071
-0.958261
1.2764
-0.332821
0.102885
0.440744
1.4452
-0.929023
-0.242701
-4.42859
0.100662
0.464197
1.3725
-0.890344
2.72059
-0.169452
-0.191636
1.69269
0.0201024
-0.000544096
0.00338785
-0.567436
0.94014
0.00921411
0.647501
-1.95354
-0.139683
1.25694
-5.07171
-0.16346
0.0584299
-0.146285
-0.169525
1.24941
0.00993291
0.0166136
-0.000132672
-0.317756
-0.14767
-0.430191
-3.64622
-0.038843
0.601147
0.250422
-0.110615
0.297685
-0.629558
-7.81233
-0.157509
1.67071
-0.473978
-0.135836
0.0592457
-0.396735
2.36949
-0.145783
0.449915
0.114062
3.21236
2.989
-0.909161
-0.352865
-3.56678
-0.00133463
1.43851
1.66813
1.55674
-0.101967
0.00519708
0.0250815
2.58005
0.124544
0.148294
0.428906
-2.56217
0.211285
-0.0697378
1.44387
2.51093
-0.966957
-0.848107
-0.182808
1.37131
2.18428
-0.457383
0.503567
-1.05877
3.02731
0.00381317
-0.405057
1.09314
-0.0288145
0.00704174
0.0117197
1.62126
0.00835698
0.00311723
-0.574255
-3.48177
-0.176019
-0.00145696
2.46017
0.896716
1.88363
0.0446571
-0.971649
3.17641
-0.160497
0.0410943
0.77846
-0.490771
1.23223
1.47118
1.68703
0.00508031
-6.05548
-0.805778
1.63456
-0.612688
0.0113994
-0.959419
1.6155
0.353114
0.013225
-0.199576
0.487472
-0.325906
0.0161058
0.0256761
-0.104495
-0.526266
-0.108431
1.26213
2.54051
-0.407954
1.92495
1.31365
-1.78969
0.0101218
-9.03648
1.55913
-1.08743
0.0827719
0.0755281
-0.0728842
-0.142311
0.113482
3.19827
0.00416945
1.76209
1.17795
-0.17229
0.020504
-0.269552
-0.155643
0.384894
-0.608827
-0.316285
0.988078
-0.104967
-0.422583
1.98051
0.364242
0.362021
0.17629
-3.99672
0.0723192
0.638067
0.102213
1.14773
0.0873525
-1.43863
2.29184
1.95022
-0.131391
1.27354
0.0103077
0.856991
1.605
1.75828
-0.5115
-0.814797
-3.40065
-0.00912081
1.6312
-1.67018
2.21037
0.0173492
0.786891
-5.96293
-3.58996
1.63738
-0.477635
1.63959
0.415385
0.157639
0.0726683
0.159782
-1.60148
1.1953
0.338519
1.65554
0.426287
2.15598
2.30743
-0.252515
2.04726
0.101174
0.000251262
0.74192
2.25046
0.617416
-0.838921
1.72741
0.423507
0.123936
2.19021
1.46542
2.12374
-0.19396
-0.249249
0.067332
-4.6091
0.300122
0.187884
1.31816
-7.84881
1.84089
0.00236642
-0.683191
1.28546
1.74996
0.28561
1.60362
0.0384738
-4.87262
-0.597851
-0.190932
-3.73236
1.03548
1.06043
-7.10227
-0.577603
0.276274
-0.0210356
0.97105
2.22472
2.45528
0.625751
0.483148
0.0995546
0.341695
1.37075
0.00740639
1.87142
-0.630857
-0.163066
-0.865848
-0.6928
0.940142
1.73269
1.89846
1.16123
-0.0708434
0.0282048
1.62257
1.62264
1.67438
-0.11562
2.05606
1.0159
1.66606
0.995246
0.0643012
0.133088
1.59101
1.47817
-11.5622
1.71573
-0.306154
0.38005
1.39141
-0.556158
-6.25533
2.64724
2.07889
0.120702
1.47787
0.624831
1.13893
0.0786736
0.0640237
-0.162841
-0.215328
-0.542883
-3.18384
0.215664
-0.887064
-0.300682
1.62554
2.37654
0.108421
1.6587
0.156041
3.35921
-1.78625
1.90124
0.0831587
-3.54828
-5.01234
3.40199
0.256385
-0.210268
3.38402
0.136536
-4.37757
1.54792
3.35191
0.128874
3.3007
1.01573
0.0928825
-4.6642
3.19591
-0.231186
-0.168842
-3.92788
0.368919
-0.00966386
1.84221
3.03597
0.0100789
0.443387
1.96888
0.365627
1.65101
1.44914
-0.777748
-3.25735
-3.76763
2.98102
0.514621
-3.57526
0.260009
0.115203
2.93198
1.08718
0.0904721
-3.92048
2.87963
-3.48395
-4.24058
2.82805
1.93289
-4.54918
-2.58141
-5.04723
0.850247
1.99084
-4.94712
2.74602
1.6468
0.118548
-5.17019
2.15209
0.462876
0.329897
-0.987629
-6.44666
1.562
1.64329
-1.88146
1.64924
0.214646
-1.44304
-3.87501
2.5998
0.889808
1.47374
-1.08809
-5.89187
-6.0602
-6.17297
-6.24485
-6.2711
-6.19961
-0.550412
-6.11048
-5.69317
2.11106
2.55379
0.897292
1.09519
0.28675
1.27494
-5.54372
2.51762
0.00120931
-5.36561
2.02898
-4.39896
-5.20214
0.0247908
2.41874
1.52929
1.07409
0.690012
1.65349
-2.76087
-5.05421
2.38173
-4.93356
0.0713869
0.15072
-4.53128
1.59931
2.3363
-0.199711
2.02952
0.0290294
1.3878
-4.81258
-0.661822
-0.0666132
2.29148
-0.80658
-3.60194
2.24673
-0.335566
-1.41815
-0.80707
-4.58448
2.20705
1.59036
0.505282
1.65633
0.394249
-0.0583538
-0.0303825
-4.54684
-5.81791
2.15682
0.619081
0.0282817
1.7301
0.701663
-10.4709
-0.759604
-4.52062
2.11646
-5.84653
1.60305
-0.216908
0.0214461
-4.50685
2.06954
0.91485
-6.92359
2.01706
-4.50261
-0.188715
-0.566734
-3.59161
-0.507685
1.97982
-4.50442
1.91619
-4.51283
-2.47541
1.16574
0.00601852
1.03954
-0.0191645
1.86675
-4.50265
0.738097
2.61309
1.73113
-4.51067
-9.64573
1.82483
-1.6697
-3.85672
1.48858
-4.48571
1.63847
1.78389
-0.0307759
0.277375
-1.66957
1.64928
1.22621
0.0936081
-0.129942
-4.44279
-3.59372
1.72619
0.456757
-3.74236
0.348143
-5.0374
-2.40004
-0.128419
0.875092
1.68059
2.31645
1.56656
2.48629
1.70189
-4.30448
0.848743
0.298351
-5.56391
0.908554
-0.0214097
0.0415111
1.04651
1.41794
-0.224146
-4.18612
-5.61451
1.58145
-2.9489
-0.447729
1.93409
1.49104
0.19186
2.82746
-11.8117
0.562113
0.32997
-4.04677
0.379082
-2.43389
1.52118
1.98993
1.79432
1.18777
-3.89537
1.46181
1.39164
1.34735
1.27573
1.22035
1.14055
-3.44079
1.41281
1.07606
1.80019
0.933655
-6.55166
2.34597
-3.75925
-0.785019
-7.5911
1.3317
-3.58054
2.19024
-3.65919
0.420705
-3.59336
-7.58301
-3.55343
1.63
-1.05026
-0.42431
-3.52631
-4.17691
-5.14061
1.69001
-4.70286
-3.53867
1.75231
1.72809
-1.12173
-11.9255
1.85248
0.329455
-8.94583
0.1735
0.764271
1.61366
-2.693
0.122188
-6.40612
1.86268
-2.9854
-2.11948
-6.23099
1.02314
1.65501
0.20421
-4.51783
0.822395
1.91413
1.16626
-4.72088
1.62696
0.655538
1.27144
-0.481515
1.66165
-1.25555
0.00858854
-0.00200334
0.860337
-2.88032
2.40251
0.385918
-0.11483
0.337605
-3.57978
2.14004
1.7648
1.56546
1.69948
0.286973
0.111284
0.0829046
-1.83681
0.53155
-0.744094
0.127619
1.30226
-3.31225
0.289691
3.01547
0.00599518
0.976761
1.02086
-8.11176
-0.0497272
1.07206
0.107075
0.861442
1.32508
1.64248
1.70467
1.65384
0.141779
1.93499
-3.59255
0.0123218
0.249111
-0.817889
-0.54887
-0.168536
1.83602
-7.45467
1.58783
-1.33301
-6.70924
0.361463
-2.6664
0.139451
-0.851515
0.321952
1.81604
0.237882
-0.694746
0.0165302
0.564713
0.0577864
-3.68582
0.00613587
1.53625
0.176624
-2.84371
1.31928
0.250101
1.33447
-2.65963
0.133654
-0.0747201
0.00820523
0.356619
-6.43985
0.304491
0.0210912
0.0491622
1.07892
2.43828
0.941104
-3.1712
1.65586
-0.448439
1.3622
-0.0449593
0.0326548
1.26175
-4.57203
0.0153771
-1.22295
-8.35329
-4.58663
1.6467
-0.275145
1.90381
0.229706
0.00405199
2.55987
2.39005
-3.11372
0.673135
-2.89439
-1.29298
1.87291
-1.92486
0.220379
-2.75168
-0.208176
-2.55349
0.276887
0.819603
0.220114
0.00794672
-0.072356
1.62609
-8.09011
-3.79072
0.869795
0.532869
2.38023
0.157191
0.774393
2.53197
2.57555
-0.0055625
2.28407
1.35646
1.65755
0.393821
2.18862
1.76252
0.665275
-0.835597
0.00736076
1.35696
1.33857