/*--------------------------------*- C++ -*----------------------------------*\
| =========                 |                                                 |
| \\      /  F ield         | OpenFOAM: The Open Source CFD Toolbox           |
|  \\    /   O peration     | Version:  2306                                  |
|   \\  /    A nd           | Website:  www.openfoam.com                      |
|    \\/     M anipulation  |                                                 |
\*---------------------------------------------------------------------------*/
FoamFile
{
    version     2.0;
    format      ascii;
    arch        "LSB;label=32;scalar=64";
    class       surfaceScalarField;
    location    "7.3";
    object      phi;
}
// * * * * * * * * * * * * * * * * * * * * * * * * * * * * * * * * * * * * * //

dimensions      [0 3 -1 0 0 0 0];

oriented        oriented;

internalField   nonuniform List<scalar> 
7520
(
-0.986814
0.796473
0.190341
-1.34366
-0.20429
1.54795
-0.0615437
-1.88874
1.95028
0.230694
-0.0309518
-0.199743
0.264924
1.82299
-2.08792
-0.0893697
0.0962016
-0.0068318
-0.307512
2.13069
-1.82318
-0.209546
-2.00699
2.21653
-1.54284
1.4813
0.823109
-0.0890492
-0.73406
0.424705
-0.131332
-0.293373
-0.274156
-1.57958
1.85373
0.670056
-0.0782669
-0.591789
-0.0975939
0.135489
-0.0378951
-2.1259
0.928509
1.19739
0.0755991
1.52732
-1.60291
0.280552
-0.0487499
-0.231803
-0.0421356
-0.41355
0.455686
0.0339035
0.0202699
-0.0541734
-0.0648478
0.3454
-0.39836
-0.281122
0.679482
-1.0604
1.136
-0.0340686
-0.309558
0.343627
0.137152
-0.139925
0.00277252
0.110022
-0.267928
0.157905
0.249985
-0.242723
-0.00726131
0.867311
1.12386
-1.99117
-0.0356393
0.311807
-0.276168
-0.0212311
0.0551346
0.200574
-0.0331726
-0.167402
-1.13518
1.74201
-0.606829
-0.0471843
-0.0179451
0.0651294
-1.85236
2.03512
-0.182755
-0.0593002
-0.161431
0.220731
-0.319061
-1.25155
1.57061
-0.35941
0.964369
-0.60496
0.26917
-0.535801
0.26663
0.829195
-1.58643
0.757235
0.0897124
-0.31275
0.223038
-0.044959
-0.101058
0.146017
-0.0279602
0.258655
0.342784
-0.459917
0.117133
0.283948
-0.0339632
2.09658
-1.58497
-0.51161
-0.589019
-0.57653
1.16555
-1.45983
1.60241
-0.142574
-0.136019
-0.131489
0.267509
0.261975
-0.0764325
-0.185542
-1.33212
0.196942
0.270583
-0.0743009
-0.196282
1.79521
0.176246
-1.97145
-0.717114
0.264884
0.45223
-0.0297654
0.0315751
-0.00180964
1.07747
0.478504
-1.55597
0.0144257
-0.103795
-0.759348
0.128204
0.631144
0.390566
-1.25597
0.865408
-0.0400864
-0.122036
0.162123
-0.114534
0.0673497
-2.20179
1.13291
1.06888
1.56726
-0.717115
-0.850141
0.0309917
0.165753
-0.196745
-1.29362
0.974562
0.808331
-0.138275
0.0111931
-0.0409585
0.00413557
-0.101729
1.16095
-2.3938
1.23285
0.128703
1.6665
-1.25523
0.981188
0.274043
0.310313
-0.234894
-0.0754192
-0.503917
0.894483
-0.0764262
-0.559541
0.635967
0.334635
-0.091467
-0.243168
-0.0494657
-0.138929
0.188395
1.00412
-1.57859
0.574466
0.126695
-0.11102
-0.0156744
1.75265
-0.496417
-1.25623
0.397254
-0.746466
0.349212
1.67294
-1.16799
-0.50495
-0.810283
0.0509354
-1.50905
-0.692741
1.04896
-0.692777
-0.356188
0.238484
-0.614914
0.37643
-0.34353
0.284229
-0.527746
0.48561
0.217415
-0.0168406
0.0142847
-0.0469673
0.0326826
1.10814
0.644511
-2.0023
2.33845
-0.336148
0.734722
0.832534
-0.975549
1.11641
-0.140861
0.0161543
-0.0773917
0.0612374
1.35523
-1.62939
0.239631
0.193844
-0.104131
0.13867
0.299277
-0.437946
0.00747941
0.0829612
-0.0904406
-0.525551
0.381873
0.143677
1.45182
-0.447693
-0.713286
0.610583
0.102703
1.18459
-1.74394
0.559356
-0.0876714
0.110225
-0.0225538
-0.054445
0.0911008
-0.0366558
3.00425
-1.9268
-1.07745
0.525459
-0.410695
-0.576119
-1.33803
0.834116
-1.9207
1.61319
0.162724
-0.0773984
-0.0853251
0.402733
0.0219723
-0.156894
0.155776
0.00111798
-0.110544
0.141305
-0.0307607
1.98356
-1.15436
-0.11105
0.0120368
0.0990135
-0.766563
0.368204
0.0351122
-0.0326728
-0.00243944
0.620787
0.428177
-0.783068
0.491684
0.291385
1.00816
-1.32725
0.319096
0.037154
0.0999984
-0.202363
-0.514751
-0.370626
0.0952215
0.275404
1.01126
-0.18815
0.662962
-0.570545
-0.0924177
-0.0413411
-0.0803087
0.12165
-0.240219
0.216785
0.0234341
0.6949
-1.85109
1.15619
0.37898
-0.413048
-0.34917
-0.0409476
0.390118
-0.0206484
-0.0904019
-0.357218
-0.248548
0.605765
0.139305
0.0318738
-0.171178
-0.0634845
0.202789
-0.594854
-0.188215
-0.702729
-0.513233
1.21596
-1.28677
2.33653
-1.04976
0.389622
-0.403122
0.0135002
-1.16419
-0.173841
-0.0335479
-0.0497807
0.0833286
1.41551
-0.338049
-0.636214
0.415286
0.220928
-0.0181864
0.15003
-0.131844
0.28455
-0.0732016
-0.211349
0.243809
-2.13254
0.31592
-1.77575
-2.91458
1.01113
1.90345
-0.841082
-0.41415
-1.52877
1.53554
-0.00676306
2.13998
0.204954
-2.34493
0.17894
-0.223899
0.716931
0.282179
-0.99911
-0.269682
-0.210295
0.479977
0.37408
-1.90285
-1.84231
-0.0100567
0.00119037
0.0130943
0.0613679
-0.116733
0.0553649
0.282123
-0.322209
1.65616
-0.471578
-0.152865
0.124905
-0.0194465
0.00291917
0.0165273
0.749858
-0.418359
-0.331498
-0.438599
-1.6873
-0.0718013
-0.19788
0.0620438
-0.586649
0.524606
0.286301
0.169207
-0.455509
-1.56431
0.9358
0.628511
1.01476
-0.749835
-0.0705126
0.452264
-0.381752
-0.262396
0.372418
0.505127
-0.233677
-0.271451
0.686848
-0.548178
0.234355
-0.308655
0.915002
0.290128
-1.20513
0.293712
-0.329351
-0.350536
-1.44645
1.79699
1.28557
0.658876
0.680432
-0.441948
-1.33004
0.970635
-0.690581
0.908672
-0.218092
0.00713998
-0.0331436
0.0260036
0.265258
-0.306174
0.0409158
-0.826361
1.44715
-0.268966
-0.144334
0.4133
0.416397
-0.130096
-0.835846
0.89789
0.584796
-1.06537
0.480574
-0.506428
-0.0191227
0.66714
-0.397969
0.137455
-0.0107604
-0.148891
0.155469
-0.00657778
0.0770666
-0.18761
-0.3607
-0.0900549
0.450755
0.128596
0.206039
-1.02276
-0.555825
-0.755625
-0.808686
0.0199045
0.0494888
-0.0693934
1.09729
-0.135111
-0.962182
-1.54907
0.262301
-1.18781
2.18137
-0.993557
0.352163
0.152964
-0.419796
0.499579
-0.0797828
-0.767052
0.564689
0.56105
-1.15007
1.75098
-0.0617656
-1.68922
-1.42787
1.88765
-0.459788
-0.0222233
0.0835912
0.38911
1.53733
-1.92644
0.0337247
-0.162982
0.129257
-0.133213
1.8062
-1.67299
0.00117761
0.108987
-0.110165
-0.888339
1.24169
-0.353348
-0.131077
-0.635975
0.0637826
-0.424483
0.258753
-0.171461
-1.8296
2.00106
0.0285614
-0.00829144
-1.72951
0.706746
-0.321964
-0.157461
0.479425
0.0849099
-0.126251
0.11867
1.59501
-1.71367
-0.549398
-0.566513
1.11591
-0.501046
0.396248
0.104799
2.75547
-1.84201
-0.913459
0.456621
-1.00602
0.0444835
-0.047512
0.00302848
0.104349
0.737189
-0.841538
0.0435209
-0.0466902
0.00316929
0.832423
0.813459
-1.64588
-0.229747
-0.48354
-0.0634369
0.173928
-0.110491
-0.906374
0.692277
0.214097
-0.070517
0.0379019
0.0326151
1.51027
-0.412979
1.0569
-1.95907
0.902178
-2.79635
1.21631
1.58004
-1.16966
-1.62669
-0.366715
0.479688
-0.112973
0.510304
-0.313591
-0.196713
0.942228
-1.72056
0.778329
0.0234527
1.08672
-1.11017
-0.645884
-0.0468931
1.14124
-0.226236
1.23219
1.32388
-2.55607
-0.180421
0.0853202
0.0951005
0.0485917
-0.954966
1.87808
-0.479413
-1.39866
0.13333
-0.0996049
0.080769
0.2717
-0.32045
1.06525
0.812823
0.168246
0.694457
-0.862703
0.352896
-0.0410886
-0.061784
0.0181871
0.0435969
0.560515
-0.435153
-0.125363
-1.82184
0.870315
0.951522
0.452752
0.0575522
0.851552
-1.55428
0.226407
0.00381547
-0.230222
0.132862
0.129113
-1.66802
1.61522
0.0528004
1.16597
-0.581171
-0.000677471
-0.0389801
0.0396576
0.0318736
-0.186495
0.154621
0.117538
-0.209005
1.72898
-0.568026
-0.10201
0.362926
-0.260916
0.00106344
-0.0205099
0.341078
-0.47241
0.748526
-0.449249
-0.669121
0.692573
-0.0966597
-0.0522312
2.13069
0.0120781
-0.0163145
0.00423639
0.0631607
0.685365
-0.19849
0.128189
0.0703009
-0.0709347
0.0164897
0.414527
-0.0717431
1.53404
-0.817106
0.416243
-0.361361
-0.054882
0.299434
-1.18777
0.0459769
-0.403195
-2.00221
1.83075
0.0434505
0.00103304
-2.21176
0.223239
-0.241425
0.00757941
0.0902305
-0.0978099
-0.604854
-1.21698
1.72359
1.28066
1.71043
-0.774633
-1.57958
0.204283
0.458679
0.243927
-0.240429
-0.00349704
0.172681
-0.232267
0.0595856
-1.23577
0.659244
-0.194798
-0.253947
0.448745
0.274931
-0.36398
-0.106194
-2.01568
2.12187
0.986385
0.208433
-1.51325
1.30481
0.954477
1.08064
-1.19099
1.58551
-1.1964
-0.0530118
0.380001
-0.326989
-0.881911
0.749422
0.13249
-0.229063
0.127053
-0.0814165
0.319977
-0.23856
-0.246983
-0.25779
0.504773
-0.529562
1.81513
-0.266958
-0.361307
0.628265
-0.368899
0.23288
0.243623
-1.21917
-0.0925707
0.0307867
0.00853017
-1.86396
0.976319
0.887637
0.361589
-0.439855
0.00833035
-0.0173254
0.406947
1.22077
1.5347
1.65421
-0.529567
-1.12464
0.114919
-0.0429503
-0.0719682
0.715189
0.957755
0.117396
0.12653
0.602897
-2.2049
1.602
-0.0965883
0.0959857
0.000602682
0.835015
0.616802
-0.214663
-0.0980867
0.736567
-0.568321
-0.566073
1.43338
0.151782
0.0109417
1.36786
-0.359709
0.141768
-0.134288
1.77776
-0.123553
0.0997816
0.395185
0.0210576
0.0167568
0.293556
-1.74445
-0.835353
0.954236
-0.118883
0.00574447
-0.116765
1.77356
0.0385964
-1.81216
-0.70232
0.435362
0.219084
0.0654663
-0.301889
0.0669948
0.0266949
-1.19469
1.53836
-1.57701
0.0386482
0.00386079
-0.258824
0.254963
-0.588297
1.42331
-0.834507
1.52941
0.0241945
-0.0203337
0.767495
-0.275811
1.95285
-0.597621
0.00346593
0.123663
-0.127129
-0.0702661
-0.0908059
0.161072
0.111757
0.00316127
-0.373819
-0.731049
-0.102173
-0.293766
0.395939
0.879523
1.45701
-1.64954
1.299
0.101351
-0.450521
-0.945194
0.868768
-1.13454
1.32313
-0.188582
0.520111
-1.69743
1.56422
1.50313
-0.394993
1.30181
0.794769
-0.0656283
0.272577
1.26578
-1.31807
0.288025
1.03005
0.247594
-0.280767
0.440439
0.0123136
-0.210053
0.146569
-0.0906295
-1.49434
0.455028
-1.26048
0.805448
-1.50864
1.01382
0.494821
0.138572
-0.698113
-0.220958
0.25195
0.0831971
-0.0234103
0.0685953
-0.045185
-0.538335
0.467823
0.960775
0.542358
-1.42787
-0.113785
-0.126434
1.61605
-1.42796
-0.188094
-0.403106
1.94043
-1.64474
2.48088
-0.836138
-0.727594
1.03683
-0.309236
0.0535735
-1.3472
0.136588
-0.45018
-0.262042
0.413133
-0.151091
0.0481358
0.0429649
1.33229
0.698711
-1.25663
0.557922
-0.00459515
-1.54765
1.55224
-0.0515451
-0.105349
-0.00671174
-0.463953
0.470664
-0.415209
1.13678
-0.721571
0.195652
-0.136257
-0.0593944
0.207188
-0.2042
-0.00298741
-1.98963
1.78534
2.38705
-0.488487
-1.89856
0.0542829
0.00200514
-0.056288
0.00750399
0.165177
0.0914022
-0.59783
-0.842962
1.67539
0.0265185
0.00859371
1.75098
-0.976881
1.08123
0.146614
-0.146614
-0.113465
0.317265
-2.31957
2.24595
-0.927682
-1.31827
-1.12799
0.811901
0.316085
-0.0207214
0.00685281
0.0138686
0.990475
-1.18968
0.199208
-0.5845
-0.198889
0.783389
0.509285
-1.96256
1.45328
-0.0986127
-0.783299
-0.206398
0.136132
-0.182995
-0.584101
0.767096
0.746092
0.422736
-1.16883
-1.37259
-0.424335
0.677453
-0.253118
-0.633314
0.944334
-0.311019
1.45144
-1.33277
0.286981
-0.389154
0.101064
-0.333456
0.28399
-1.34258
1.40815
-0.0655676
-1.26904
1.77062
-0.501583
-0.0166999
0.12927
-0.11257
-1.59461
-0.799195
-0.0322022
0.0109711
-1.64995
0.462135
-0.360943
0.279527
-0.177794
-0.549799
-0.0359277
-0.0606606
-0.840575
2.07277
0.0447778
-0.354336
-1.52926
0.129115
1.40014
0.462488
-0.374354
-0.0881342
-0.866285
0.175704
0.206456
-0.549938
0.343482
1.60365
-0.133382
-1.47027
-0.0361463
0.187881
-0.151735
-0.373427
0.578384
1.01198
-1.59037
-0.670845
1.59935
0.169866
0.689938
0.725577
-0.0971997
1.5841
0.193661
-1.40299
1.3984
0.267949
-0.0544498
-0.213499
0.390514
-0.143675
-0.246838
-1.99485
0.350107
-0.142757
-0.31716
-0.591992
-0.24336
0.24878
0.814636
-0.218055
-0.596581
0.188018
0.09593
-1.06125
1.48716
-0.42591
0.14886
-0.239666
-0.0619868
0.327245
0.244613
-0.506655
-0.02718
0.434118
-0.406938
-0.061284
-0.0237224
0.0850064
0.772726
-0.272978
-0.499748
-0.0336234
-0.162941
0.196565
-0.28332
0.315642
-0.0323222
0.0155823
-0.305988
0.290406
0.304649
-0.0570548
0.464196
-0.248953
-0.215243
1.54513
-1.03554
-0.955627
-0.050311
0.0252258
0.0250852
0.0635636
-0.071855
-0.270477
-0.23057
1.12826
-0.31362
-0.0598246
-1.19989
1.25972
-0.344973
-0.0256526
-0.0118832
-0.582971
0.175127
0.032061
0.166002
-0.164824
-1.35967
-0.0342981
-0.0785312
0.112829
1.29957
-1.00944
1.21796
1.16908
0.290669
-0.0642616
-0.146239
-1.68614
1.83238
0.79156
0.409883
-1.20144
0.192958
-1.04115
0.702478
0.338671
0.413014
0.0494745
0.0317355
0.0636821
-0.0954176
2.13638
-1.14405
-0.992334
0.133606
-0.298182
0.164576
0.74717
0.346857
-1.09403
0.0684061
0.0995859
-0.167992
1.71682
0.0189849
-1.73581
-0.43447
0.0209195
-0.248454
0.293232
0.0344543
0.0399652
-0.0744195
-0.485102
-0.0426438
0.029283
0.0197191
-0.0490021
-0.396728
-0.677006
1.07373
1.11661
0.487043
0.983698
-1.04352
0.757922
-1.17313
-1.9106
1.80441
-0.0038414
-0.0764673
0.244531
-0.595928
0.351397
0.722166
0.988267
1.13061
-1.36299
0.232389
1.23112
-0.541181
-0.128786
0.0858352
-0.00561245
-0.115463
0.121075
-1.70048
-0.443463
2.14394
-0.406623
0.43756
-0.0309377
0.011374
0.13524
0.17207
1.65092
-0.136346
-0.0440744
0.733881
-1.32778
0.593898
-0.720739
-0.358897
1.07964
1.52847
-0.471574
0.68391
0.574176
-0.784471
-0.257183
0.0047452
0.252437
0.020075
-0.187477
-0.469212
1.16792
0.0108743
0.0326467
-0.372972
-0.185349
0.55832
-0.00508373
0.995558
0.741187
-1.25442
-0.480098
-0.404529
0.499751
0.748723
-0.926517
0.0632008
-0.051164
-0.0962978
-0.224152
-1.94173
0.906182
-0.0918853
-0.00405645
0.0959417
0.0138581
-0.00251667
-0.0113414
0.225776
0.860942
0.197364
-0.0316112
0.0293219
-1.69018
1.66085
0.667199
-0.926007
0.258808
-0.0201478
0.0601517
-0.0400038
-0.760325
1.21535
-0.119003
-0.362435
0.481438
-0.27179
0.478246
-0.972051
1.4506
-0.478553
-0.480006
0.488974
-0.00896826
2.20716
-0.0671827
0.437048
-0.235223
-0.201825
-0.583248
0.3347
-0.174317
0.293314
1.30799
1.03045
0.134925
-1.64416
1.50924
-0.794399
-0.189851
0.98425
-0.284368
0.260278
0.0240904
0.102224
-0.177072
0.0748473
-0.0208619
-0.117666
0.138528
-0.0987024
0.00613171
-0.59337
-0.257818
-0.01011
-0.10903
0.139817
-0.127341
0.387113
-0.259773
-0.226013
0.264879
-0.0388655
-0.0386841
0.210474
-0.17179
0.798013
-0.37133
-0.0607734
0.013806
0.370998
-1.01775
0.646747
1.19387
-0.96809
0.0115485
-0.338035
0.326487
-1.00678
-0.737159
-1.37605
1.50475
0.729015
-0.446836
-1.28993
0.814076
0.47585
0.24959
-0.0949728
-0.154617
1.7562
-1.7562
-1.60942
0.100374
-0.367004
-0.225454
-0.619408
0.844862
0.574659
-0.532044
-0.0426146
0.00824562
0.0611078
-0.0663334
0.00522563
-0.000110524
0.196659
-0.196549
-0.42669
1.25559
-0.8289
0.440685
0.0793689
-0.520054
0.771171
-0.717597
-1.03781
0.24341
-0.0402564
-0.210564
0.25082
0.00730527
-1.32538
-0.468916
-1.2388
0.769888
0.306617
0.012547
0.225903
-0.23845
-0.266579
0.328566
-0.0619873
-0.23151
0.168074
-0.0818637
0.123686
-0.116107
0.0358841
0.119279
0.240206
-0.359485
-0.0805842
-0.0348788
0.249042
0.215154
-0.179344
0.17176
0.00758397
0.013629
0.0180279
-0.0316568
0.0971781
-0.0405291
-0.056649
-0.0637642
0.164157
-0.100393
-0.554895
1.36034
0.502115
-1.13731
0.635195
-0.149875
-0.0791475
0.229023
-0.0443283
-2.52443
2.56876
0.888315
-0.556557
-0.331758
0.47762
-0.0419926
-0.190274
0.0450458
-0.0777186
-0.0528603
0.186467
0.284289
-0.9544
0.670112
-0.427056
-1.24097
-0.209115
0.792891
-0.583776
-0.105334
0.0846854
0.397883
-0.268923
-0.12896
0.7212
-0.350202
-0.773918
0.542274
-0.545604
0.00332913
-0.512629
0.317832
-0.158173
0.573459
-0.252098
0.283971
-1.82193
-0.104867
-0.279482
0.524095
0.0279893
-0.234387
0.0846453
0.0364302
0.30881
-0.296263
-0.0809212
-1.31047
0.755573
1.99164
-0.185439
-1.8296
2.24324
-1.08225
-1.16098
-0.083772
0.465645
-0.067581
-0.742702
0.468389
-0.391322
-0.239283
-0.0178997
-0.562969
-0.404526
0.967495
0.105872
0.248124
-0.353997
0.0408717
-0.881953
-1.98636
-0.306736
-0.317082
0.623818
0.677974
-0.0107755
-0.238227
-0.0369924
0.275219
0.462083
-0.083103
0.163747
0.0858428
2.0476
-1.53832
-0.88277
0.319801
-0.244972
-0.049096
0.294068
-0.0436888
-0.120962
-1.06872
0.512282
-0.124843
-0.387439
-0.0809789
-0.033555
0.901041
-1.1655
0.264456
-0.655064
-0.0669773
1.82318
-0.45889
-0.558856
1.68789
-2.09343
0.405545
-2.24174
1.889
0.352743
0.148805
0.102627
-0.251432
0.14875
1.15705
0.0187595
0.831295
-0.850055
0.0383475
0.324579
0.106127
-0.0518441
0.00841499
-0.311211
0.302796
1.27905
-1.42529
0.0791459
0.334708
-0.379638
0.0449297
-1.53786
-0.071564
-0.58603
-0.331059
0.280748
0.106598
0.00334031
-0.109938
-0.610932
0.302315
0.308617
-0.382732
0.32972
-1.08484
-0.48093
1.56577
-0.125484
-0.0450555
0.0243341
-0.335982
-0.00614125
0.342124
-0.369507
1.38333
-0.153831
-0.897201
-0.230785
1.36495
-0.5134
0.99681
-1.4235
-0.0128766
-0.0204952
0.0333718
1.05315
-0.643463
-1.44446
-0.334742
-0.0791972
0.413939
-0.0538974
0.200466
0.0643687
-0.438234
0.373865
0.448712
0.0368984
0.427363
1.10667
-0.136122
0.299149
-0.0647946
-0.413988
0.396663
-0.174426
0.0680761
0.10635
0.241479
-0.107146
-0.134334
-0.139025
-0.0412467
0.180272
0.33674
0.0936908
-0.430431
0.074767
0.0468828
-0.193229
-0.0655947
-0.0318898
1.17861
0.0315884
0.126405
-0.157993
0.0697962
-0.122326
0.0525301
-0.0172615
-0.342494
0.359755
0.609893
0.235962
-0.660296
-0.0704974
0.353125
-0.0710017
-0.421448
0.159052
-0.126262
-0.0367195
1.79594
-0.982484
0.074646
-0.22029
0.145644
-1.58687
0.21082
-0.108488
0.024071
0.0844168
-0.038472
-0.032045
-0.381711
-1.86003
0.352107
-0.0583949
-0.756278
-1.44862
-0.528081
0.155109
-0.656522
0.320539
0.921032
-0.722645
-1.44706
1.58198
-2.07712
0.376641
-0.175171
0.0431865
0.131985
0.0377295
-0.187821
-0.378504
0.566325
-0.275797
0.0148806
-0.341613
-1.09219
1.43381
-0.565223
-1.1528
1.71803
0.579636
0.339381
-0.919017
-0.00522028
0.32363
0.218645
-0.255151
-0.251505
-0.169429
-0.101376
0.270805
0.114163
0.365813
0.268371
0.129512
0.45602
-0.586218
-0.0243739
0.036452
-0.586685
0.757626
-0.170941
-0.144677
0.440581
-1.34156
0.058457
-0.00896819
-1.35609
0.436776
0.168989
-1.02504
-0.529246
-0.136768
-0.92988
-0.314768
1.24465
-0.12058
0.588968
-0.101377
0.913278
-0.28871
-1.01066
-0.931069
-1.24047
1.43968
0.0786357
-0.259618
0.0149291
-0.0640532
0.0491241
-0.620029
0.559022
0.061007
0.67191
-0.802986
-0.121244
0.029359
-1.1168
-0.173131
-0.102437
0.0309182
0.071519
0.180215
0.592512
-1.45607
-0.166897
1.62296
0.0624884
-0.143073
0.271877
-0.3661
0.094223
-0.231739
0.39324
0.132219
-0.197226
-0.0522268
0.249453
-1.31078
0.831365
-0.286534
0.010737
-0.169821
-0.128361
-0.323634
0.0435781
0.0196227
-0.045733
0.138207
-0.0139236
-0.0604959
0.302286
1.31294
-0.648938
1.95075
1.0112
0.625661
-0.82455
0.0365913
-1.49266
-0.30523
-0.318296
0.375656
-0.0573599
0.203926
0.0128592
0.0572664
0.0135157
-0.0538397
0.121189
-0.192004
1.82138
-1.62938
0.206435
-0.84241
-0.120638
-0.25546
-0.0667492
0.806097
-0.277706
0.349406
-0.0717001
-0.0228703
-1.53552
1.55839
0.599216
0.272471
0.302188
-0.523524
-0.54988
0.942162
-0.392282
0.0207108
0.0177919
-0.0203086
-0.236678
0.946326
-0.709648
0.126024
0.182491
-0.308515
-0.141821
-0.629133
0.770954
-0.270881
-0.0584704
-2.0514
-0.0305668
0.182349
-0.178883
0.0270081
-0.283766
-0.00276716
0.336672
-0.653755
2.27484
-0.958276
-1.31657
-0.137387
0.411154
-0.0859497
0.357826
-0.285139
-0.260465
-0.172376
-0.0131666
0.0030837
-0.346613
-0.1896
0.836304
-0.978125
0.133812
-0.091091
-0.0427215
-0.365648
-1.96517
1.09552
0.86965
-1.98252
1.93819
-1.14262
0.318535
0.824084
-0.0741312
0.30545
-0.231319
0.699327
0.428928
-0.0347451
0.193605
-0.04302
-0.178975
0.0198557
-0.254687
-0.014236
1.11927
1.15558
0.00263379
0.0155533
1.6309
-1.42595
-0.0356003
-1.3973
1.4329
1.24086
-0.0622492
-0.286403
-0.0745402
0.631129
0.101444
-0.248576
-0.0597144
0.500153
0.767292
-1.55726
0.789964
0.0884877
2.36498
-1.4284
-0.936583
0.007293
-0.0597658
0.0666186
0.731002
0.716147
1.11975
-1.01937
1.07815
-1.64338
-1.24486
0.0325755
1.21229
-1.7681
0.363493
1.40461
0.0800569
0.05976
2.44878
0.0533601
-2.50214
-0.70931
1.3692
-0.659889
0.0491618
0.215717
-0.843458
0.210144
-0.000862584
0.044313
-1.33861
0.204069
0.00681649
-0.0221324
0.0153159
-0.0909586
0.2177
-0.126741
0.145939
-0.486562
0.340623
0.526307
0.427929
-0.508287
-0.102645
0.0751591
0.832267
-0.93088
-0.0642267
-0.0525062
-0.248093
0.0518114
0.694372
0.406598
-1.10097
-0.565111
0.560694
0.00441627
0.0923558
-0.42877
0.336415
-0.801789
-1.60998
0.80914
0.800844
0.120321
0.841031
0.249794
-1.09083
-0.295496
0.216159
-0.240126
0.0239667
0.164768
-0.0355112
-0.242106
0.00387873
-0.281964
-1.42537
0.608268
-0.408782
0.782579
-0.373797
-0.627804
-0.702241
1.71174
-0.735423
-0.0997711
0.179456
-1.41844
0.0829187
-1.40888
1.32596
0.0489328
0.0167046
-0.0656374
1.12334
-0.969136
-0.154205
0.168098
-0.0180678
-0.028431
-1.44514
0.817339
-0.564516
1.26699
-0.203822
0.5449
0.289701
0.212178
0.0293014
0.802002
-0.36664
-0.0185326
0.690442
-0.942705
0.427954
-1.63929
0.486487
1.04954
-1.07241
-1.5576
1.3656
-0.0866838
-1.48038
0.214318
1.26606
0.562111
0.23078
0.0338109
-0.92349
0.698036
-0.108115
-0.127268
0.235383
-2.22696
0.618227
1.60874
0.392214
0.824465
-1.21668
0.0889538
-1.32943
0.73627
0.122699
-0.858969
-0.343136
-0.00484012
-0.940354
-0.0764568
-0.0113516
0.0492535
1.49144
-1.47246
-0.0514233
-0.986711
-0.623273
0.594742
-0.0191558
-1.2257
1.1161
-0.275065
-1.56422
-0.0153579
-0.280542
-0.924588
0.325126
-0.278602
1.9106
0.220088
0.166848
-1.23557
0.132348
-0.100474
0.204659
-0.451643
0.332938
-0.552547
0.219609
0.110943
0.0941546
-0.205098
-0.417512
0.182289
0.288373
0.272142
-1.12515
1.15191
-0.0267597
-0.741178
1.11865
-2.08966
0.97101
-0.274675
-0.055189
0.087804
-1.47075
0.126432
1.34432
-0.371322
0.891433
-0.656521
0.697393
0.154667
0.978746
0.541123
-1.02122
-0.827323
-0.159438
0.986761
-0.20443
-1.36018
1.01857
-0.120555
0.123658
-0.00310354
0.0487431
-0.088747
0.961032
-1.43024
-0.761506
0.0958273
0.665678
0.0693031
-0.0641669
-0.00513618
-1.0686
0.439464
0.0359364
0.0242033
-0.223946
0.404033
2.27019
0.178587
-0.801775
0.820535
-0.258257
0.088436
-1.24953
2.17737
-0.92784
-0.0734206
0.0624998
0.0749553
0.362382
-0.0187548
0.990384
1.19099
0.644059
-0.91987
0.283372
-2.12538
-0.16192
0.127622
0.138875
-1.14832
-0.209594
-0.955903
-0.20418
0.0513154
0.777333
-0.3733
-1.34074
-0.118012
1.22469
0.179977
-1.67431
0.305252
1.36906
-0.0776665
0.470906
0.962832
-1.13045
-0.29742
0.730048
-0.32298
-0.407068
0.859109
-0.298668
-0.560441
-0.173519
0.0372618
0.631093
-0.659778
0.0286848
-1.43495
0.94398
0.490968
0.529441
0.921163
0.000629485
0.105968
0.750005
-0.514043
-2.14066
0.87427
1.26639
-2.00106
1.5576
1.00212
0.712573
-1.71469
0.786691
-0.735756
1.78274
-0.588126
-1.19462
-1.03692
0.166017
-0.0801821
-0.181242
-0.10105
0.18637
-0.0350391
0.111778
-0.0767386
-0.261608
0.122679
-1.77359
-0.2334
0.117834
-0.109419
-0.0303362
-0.0163541
0.960595
-0.504796
-0.455799
0.763825
-0.46151
-0.114961
0.122465
-0.142923
1.27353
0.0600325
-0.0110997
-0.320861
-0.747736
-1.49207
0.562194
-0.0648476
-0.0750773
0.120969
0.0992474
0.097069
-0.0821399
-0.490395
-0.509025
0.0902281
-0.0753238
-0.0149043
0.175125
-0.736699
-0.467983
1.20468
-0.296562
0.0127956
-0.117151
1.13497
0.994442
-2.12941
-0.377603
0.957239
0.20795
-0.0830455
0.665098
-0.818897
-0.815974
1.63487
-0.940269
-0.956489
0.551963
0.293364
-0.196146
-0.0972181
1.02274
-1.15785
-0.146437
1.92859
-0.809942
-0.173722
0.100521
-0.43094
-0.70637
0.0926121
2.06059
-1.80441
-0.256185
-0.902515
-0.589559
-0.34129
0.159219
0.0630027
-1.03212
-0.203756
1.23588
0.237964
-0.216242
0.342266
-1.65358
-1.45321
0.64745
0.805757
-0.157536
-0.00456169
0.162097
0.941884
-0.571477
-0.370407
0.100878
-0.154717
0.0752335
0.0805429
0.77588
-1.86072
0.749963
0.109146
-0.324639
-0.558131
0.330564
-0.0824396
0.143552
0.329932
-1.06663
0.0279136
0.352088
-0.369947
0.0364911
-0.119023
0.0397105
0.0793124
0.985076
0.797668
0.549897
0.057062
0.648466
-0.190797
-0.457669
1.69743
-1.39218
-0.393304
-0.18482
0.139442
0.0253261
0.202406
-0.0743802
-0.285105
0.00323663
-0.123791
0.555762
-0.0816435
-1.81143
-0.0201921
-0.137344
-0.0673813
0.00332808
1.07745
-1.17883
0.861023
-0.414121
-0.446902
0.00382451
0.106401
-0.0088666
0.0156831
0.390471
0.0204021
0.0646043
0.203617
-0.476595
-2.68879
1.12638
1.56241
-0.0826067
0.00521502
-0.0288475
0.100247
0.117168
-0.262511
-0.287427
0.648471
-1.46737
-0.00667963
-0.957911
2.09288
0.610839
-0.0701215
-0.540718
-0.603609
-0.487073
-0.0449714
0.0861535
-1.09258
0.497041
-0.729486
0.232445
0.187135
-0.297083
0.109948
-0.156001
1.14093
1.33995
-1.35359
1.39218
-2.0595
1.58564
0.473861
1.14658
-2.10449
2.3787
-1.15793
-1.04086
-1.03854
-0.0479041
0.116499
-0.0494196
-0.414533
-1.57105
0.0906724
-0.0760552
-1.28694
1.21145
-1.97036
0.758912
-0.0518162
0.230756
-0.393897
0.117769
-0.126737
0.990523
1.37446
-2.17496
0.925432
-0.170919
-0.76935
-1.33866
-0.0988032
-0.19828
1.98252
-2.0497
-0.127718
-1.08104
-0.000351896
1.30472
-0.726338
-1.74175
1.78084
-0.0390843
0.465591
2.10317
0.416625
-0.0493944
-0.367231
1.67591
-0.597753
0.226332
0.0355272
0.72953
-0.741413
0.0843413
0.127837
0.690135
0.799334
-1.48947
-0.54058
-0.430182
1.02041
-1.06543
0.0450265
0.347635
-0.472478
-1.72358
0.727279
0.996304
1.25323
-0.129885
-0.905506
-0.178633
1.00741
-1.52081
0.275657
-0.530808
-0.278123
0.437174
-0.61926
0.431439
-1.54393
-0.582109
2.12604
-0.424544
0.518235
-0.464075
0.421431
1.11762
-1.34841
0.0480926
1.35185
-2.00078
-0.262687
-0.402208
0.210624
-1.17871
0.107527
0.688946
0.494614
0.0117498
-0.59585
-1.75771
0.310651
0.0367015
0.158803
-0.195504
0.0665179
-0.305078
1.14558
1.09766
1.23472
-0.970264
0.0924848
-0.0663293
-0.368824
0.43429
-0.451188
0.488086
-0.648995
-0.940076
2.08665
-0.243811
0.364131
-0.544238
-0.853662
1.3979
-1.4262
0.716889
-0.0644135
0.29738
0.0623749
-1.45501
-0.0742423
-0.147364
0.644405
-1.39426
-1.29453
2.06059
0.550419
-1.35911
0.993138
-0.56521
-0.218855
0.525504
-0.306859
-0.226252
0.237801
-1.54133
0.230545
-0.780424
1.14954
-2.08962
-0.791001
-0.213357
0.548057
-0.186056
-1.5557
1.14191
-1.67115
1.34056
0.649238
-1.53317
0.883933
1.4677
-0.523718
1.85373
-0.885615
-1.09707
1.98268
0.601033
1.25183
-1.01386
-0.63335
-0.819858
-1.0152
-1.0443
0.445835
-0.836411
1.4364
-0.599987
-0.130038
1.36627
-1.23623
-1.01343
-0.95311
1.96654
0.914197
0.106208
0.241718
0.364399
-0.307924
0.248918
0.0590059
-0.00192339
-0.237743
0.48484
-1.38735
-0.689569
-0.373084
-0.246945
-0.145456
0.582233
-0.0723947
0.708362
-1.98724
0.682066
1.30517
-0.0285579
-1.62802
1.65658
0.0278684
-0.235422
0.0388728
0.589892
-1.81981
1.81981
-0.0731254
-0.0158116
0.088937
-0.623398
1.04613
-0.220987
0.122184
-0.754821
-0.244027
0.60984
-1.35359
-0.0556581
-1.25652
0.279638
1.27595
-1.26864
-1.20951
0.17739
-0.157323
0.558199
-0.400876
0.112456
0.518637
0.147533
-0.0365903
-0.957084
-1.19625
0.193759
1.00249
-1.38008
-0.363016
-0.872615
-1.21704
0.029544
-0.22677
0.156405
0.280068
-0.565207
-0.0509516
0.0370281
0.357453
-0.283013
-0.336247
-0.950646
1.42383
-0.473186
0.321877
0.195837
-0.225834
0.381597
-0.155763
-0.417174
0.159384
0.393605
-0.525858
0.132253
-1.16965
1.9251
-0.922979
-1.39834
-1.88797
0.352449
-1.65866
0.0484874
0.98801
1.14837
0.147998
-1.07259
1.22925
0.178895
0.24202
-0.445842
0.642052
0.61696
0.169731
2.05059
-0.901048
-1.07413
-0.641451
1.71558
1.13336
-0.00648324
-1.12688
-0.0194556
-0.102871
-0.186888
0.170188
0.132432
1.34015
-1.47258
-1.17954
1.07241
0.107133
1.17954
-1.3656
0.206939
-0.258755
-1.0641
1.05926
0.0749263
-0.04927
0.0961529
-1.66509
0.151848
1.52337
-0.874136
-0.300856
-0.0647371
0.132813
-0.416124
0.901492
0.248921
-0.0843448
0.623291
-1.33294
0.172134
-0.231529
-0.557256
-0.0576574
0.614453
-2.07048
0.522834
-0.0697397
0.4191
-0.349361
-1.03658
-0.933786
0.067933
0.675654
0.490313
-0.878212
0.076437
-0.124402
-0.304368
0.102609
-2.13558
1.09472
0.0691168
-0.018116
-0.278147
0.00274099
-0.0484739
-0.0945156
-1.40974
0.652336
-1.57979
0.927449
0.0578969
0.238707
-0.296604
-0.000219809
-0.24021
-1.02716
1.3068
0.605004
0.352235
1.3214
-1.13045
0.179066
0.0400177
1.72348
-1.99218
0.2687
0.246412
-0.252554
-0.802488
-0.056481
0.359771
-0.438968
0.287058
-0.250628
-1.30069
0.208279
-0.0869252
-0.121354
-1.47783
0.185385
1.29245
0.341916
-0.279428
-0.037921
0.329511
-0.29159
1.16934
-1.18849
-0.26187
0.356024
0.60713
0.237732
-0.174509
0.246028
-0.0394363
0.124122
0.175975
0.658084
-0.834059
-0.419592
-0.0669697
-0.924735
-1.01338
1.93811
0.122908
-0.19388
0.339524
-1.00142
1.93819
-0.0561162
0.0938457
0.047551
0.0525782
0.141487
2.14954
-1.03027
-1.21095
0.76191
-0.531365
-0.87883
2.14522
-0.0506852
0.0710873
-0.266761
0.278135
-0.01618
-0.141813
-0.280159
0.178783
-0.304312
0.577362
-0.297294
1.15598
0.0349363
-0.0321953
0.292606
-0.0667027
0.0352979
0.414665
0.0854877
0.465927
-0.74894
0.201846
-0.230853
0.0290065
0.0635328
-0.0468283
0.171781
0.879825
-1.05161
-0.229084
0.101816
0.476513
-0.597093
2.0969
-1.21738
1.01971
0.907869
0.108591
0.533379
-1.14114
0.338616
-0.421719
-0.387835
1.41781
0.629793
-1.48138
1.48138
1.71236
-0.839474
1.0831
-0.0330205
1.54493
-1.51191
0.918741
1.0257
0.733308
-2.27723
0.171097
-1.14922
-1.3454
-0.206443
-1.42307
1.62951
-0.390018
-0.122611
0.0690358
1.16882
0.14666
-0.253805
-0.687147
1.48511
-0.797967
-0.17277
0.257111
-0.0186382
-0.183032
0.596046
2.65784
-1.08148
-1.57637
1.61368
-1.48725
1.12227
0.200854
0.0265163
-0.00232178
0.0306039
1.5644
0.549602
1.10018
0.386973
0.020153
0.189696
-0.209849
-0.33554
0.207179
0.174813
-0.186405
0.011592
0.155874
-0.20938
0.0535062
0.503209
-0.42805
0.323319
-0.467996
0.534549
-0.330266
0.0217452
0.0155019
-0.00725632
-0.18063
0.377774
-0.197144
-0.321135
0.296179
0.0249556
2.0497
-1.65749
0.540372
-0.546539
0.00616677
-1.49144
-0.329593
0.258591
-0.991334
1.91008
0.251284
-0.318033
2.24566
-1.51235
0.238974
-0.303768
-0.150952
-0.0270763
-1.31992
0.0652467
1.58954
1.28125
-1.07062
-0.102056
0.13921
-0.0923317
-1.48467
-0.284145
0.276884
0.235653
-0.35629
-0.352212
0.280512
-0.0792844
-1.33267
1.29707
-1.43992
1.47857
-1.16258
-0.466288
0.411406
0.66642
0.371638
-0.385874
-0.0533762
0.0682985
0.335756
-0.404055
-0.346892
1.41215
-0.930832
-1.05362
-2.12043
-0.0752455
0.0715496
0.00369587
-0.00478541
1.44011
-1.43532
1.76281
-1.15455
0.310768
-0.368128
2.15382