/*--------------------------------*- C++ -*----------------------------------*\
| =========                 |                                                 |
| \\      /  F ield         | OpenFOAM: The Open Source CFD Toolbox           |
|  \\    /   O peration     | Version:  2306                                  |
|   \\  /    A nd           | Website:  www.openfoam.com                      |
|    \\/     M anipulation  |                                                 |
\*---------------------------------------------------------------------------*/
FoamFile
{
    version     2.0;
    format      ascii;
    arch        "LSB;label=32;scalar=64";
    class       surfaceScalarField;
    location    "0.2";
    object      phi;
}
// * * * * * * * * * * * * * * * * * * * * * * * * * * * * * * * * * * * * * //

dimensions      [0 3 -1 0 0 0 0];

oriented        oriented;

internalField   nonuniform List<scalar> 
20045
(
0.280878
-0.322674
0.0417954
-0.553885
0.219625
0.334259
0.142806
0.821446
-0.964251
0.0759962
-0.110661
0.0346646
-0.511567
0.414523
0.097044
-0.237407
0.971256
-0.733849
-0.464655
0.0661602
0.398494
0.022962
0.264152
-0.287114
0.264097
0.223691
-0.487789
-0.330052
-0.127289
0.457341
-0.121357
0.323615
-0.202259
0.924238
-0.475053
-0.449185
0.218798
-0.216781
-0.00201748
-0.605272
0.413632
0.19164
-0.0565923
0.464907
-0.408314
-0.537168
0.207116
-0.00948857
-0.172781
0.18227
0.561449
-0.226066
-0.335382
-0.779384
1.08624
-0.306851
-0.393905
-0.00331043
0.397215
0.132236
-0.0799173
-0.0523185
0.0750495
0.143748
-0.110678
-0.443207
0.338829
0.207746
-0.546575
0.468247
0.0289634
-0.49721
-0.245324
0.584153
0.205919
-0.214486
0.00856784
-0.470143
0.943669
-0.473526
0.885659
0.0917929
-0.977452
-0.942617
0.606717
0.3359
0.154927
-0.238262
0.0833355
0.613995
-0.532424
-0.0815702
-0.265635
0.531793
-0.266158
1.05937
-0.633513
-0.425857
-0.334787
0.357749
1.1183
-0.555771
-0.562526
0.700499
0.164178
-0.864677
-0.0358033
0.229101
-0.193297
-1.07706
0.439888
0.637174
0.320584
0.288665
-0.609249
-0.0385201
0.344012
-0.305492
0.111438
-0.151753
0.0403156
1.0758
-1.08507
0.00926721
0.709649
-0.196453
-0.513196
0.277198
0.432451
0.456429
0.467808
0.29377
-0.194462
-0.0993083
0.604088
0.328702
-0.93279
0.941359
-0.24086
0.0606365
0.764323
-0.824959
0.6596
-1.14235
0.482746
0.976419
-0.71405
-0.262369
-0.421744
-0.412566
0.83431
-0.0570749
-0.17295
0.230025
0.343943
0.0803328
-0.424276
-0.360666
-0.150901
0.0806438
0.696335
-0.776979
0.866262
0.0611323
-0.927394
0.366388
-0.632023
1.08058
-0.776214
-0.30437
-0.0772021
0.275625
-0.198423
0.397641
0.682942
0.293026
-0.566241
0.273215
0.0275701
0.104666
0.151722
0.281877
-0.433599
0.797503
0.170747
-0.96825
-0.0430788
0.111428
-0.0683489
-0.357898
0.0493228
0.308575
0.452573
-0.188475
0.985776
-1.02067
0.0348979
-0.0956748
0.0525959
-0.2792
0.623143
-0.118826
-0.546202
0.665028
-0.265345
0.355197
-0.0898524
0.892437
-0.110488
-0.781948
0.685585
-0.604941
-0.0741286
0.966565
0.311434
-0.368026
-0.317249
0.292985
0.024264
0.394829
-0.730874
0.336045
0.506647
0.616395
-1.12304
0.451295
-0.409889
-0.0414063
0.443063
-0.150037
-1.01048
0.184213
0.826262
-0.00504128
0.28592
-0.209914
0.316047
-0.106133
0.536029
-0.831882
0.295853
-0.812308
0.0684422
0.743866
0.502747
0.139328
-0.642075
-0.466782
0.359653
0.107129
-0.682438
0.0280964
0.654342
0.439311
-0.107277
-0.332034
0.226215
-0.340244
0.114029
-0.118599
-0.393833
0.512432
0.332178
-0.363775
0.0315973
0.739464
0.21541
-0.954874
0.178195
0.027724
0.0333868
-0.12655
0.093163
0.6581
-0.337516
0.025055
-0.195513
0.170458
0.774343
0.343954
-0.29648
-0.308793
-0.11207
0.145457
-0.163625
1.02989
0.0702616
-0.280176
0.223596
-0.198541
0.192747
0.629758
-0.822504
0.64464
-0.994311
0.349671
-0.0234787
-0.295675
0.250106
0.0455695
-0.180716
0.225171
-0.0444547
0.517848
-0.487407
-0.030441
-0.289165
0.23209
0.670978
-1.05808
0.387097
-0.133085
0.203001
-0.0699158
0.0342855
-0.215905
0.181619
0.547262
-0.0790159
0.780522
0.278848
-0.591007
0.472182
0.681518
-1.01815
0.336629
0.181681
0.379768
0.192514
-0.269716
-0.443492
0.359253
0.084239
-0.432423
0.0659978
-0.344194
0.278196
0.687964
0.288455
0.528127
-0.756322
0.228194
0.774749
0.0805275
-0.855276
-1.04681
0.804922
0.241885
-0.399891
-0.151633
0.551524
1.02633
-0.338362
-0.335634
0.141172
0.372243
-0.370997
-0.00124625
0.273799
-0.26119
-0.0126085
0.582027
0.407207
-0.989235
0.639704
-0.555356
-0.0843478
-0.167915
0.0497074
0.118208
-0.208209
-0.0874669
1.13287
-0.45135
-0.381008
0.388144
-0.00713545
0.483543
-0.825195
0.341652
0.226324
-0.648068
0.40471
0.288803
-0.693513
0.765165
-0.370336
0.979145
-0.123137
-0.856008
0.148875
-0.445991
0.297116
0.925797
-0.63446
-0.291337
-0.167258
0.209917
-0.042659
0.0219116
0.810761
-0.832673
1.04525
-0.159593
-0.840696
0.0612236
0.779473
-0.533886
0.3693
0.164585
0.992251
-0.485605
0.108934
0.342361
-0.646272
0.711109
-0.0648374
-0.638828
0.781633
0.0117048
-0.271682
0.259977
-0.0731346
-0.204487
0.277622
-0.0258778
-0.213875
0.239753
0.83347
0.0203517
-0.853822
1.10581
-0.527198
-0.578612
-0.258535
0.232657
0.476498
-0.634962
0.158464
0.136554
-0.0251158
-0.877675
-0.516871
0.578832
-0.0619612
-0.601192
0.523832
0.0773596
-0.0117931
-0.0621531
0.0739462
0.362296
0.563501
0.11307
0.160729
0.336143
0.0360995
-0.668512
0.0222398
-0.718394
0.903988
-0.185594
-0.707296
0.710769
-0.00347313
-0.605666
-0.41299
1.01866
0.107486
-0.266636
0.15915
0.337432
-0.485568
0.148136
0.611888
0.11369
-0.725579
-0.0220105
-0.729159
0.751169
-0.403381
0.808091
0.195305
-0.586861
0.391556
-0.368879
1.03986
-0.727546
0.56131
0.166236
-0.134703
0.15891
-0.0242076
0.372015
-0.960726
0.588711
-0.780397
0.310254
-0.601989
-0.387402
0.893473
-0.590582
-0.302891
-0.398435
0.359915
0.213717
-0.22797
0.0142531
-0.751832
-0.225651
0.977483
-0.740853
1.03707
-0.296217
1.01108
-0.717485
-0.293591
0.000323728
-0.213983
0.213659
-0.232404
-0.54474
0.777144
-0.263038
0.141682
-0.45051
0.0506185
-0.561459
-0.219606
0.781065
0.149273
0.0333743
-0.182648
-0.00422972
-0.512641
0.242177
-0.0872498
0.804717
-0.0299687
-0.193223
0.15742
-0.242657
0.301375
-0.0587174
-0.170736
1.00421
-0.827392
0.594989
0.514675
-0.196202
-0.318473
-0.73787
0.17604
0.56183
0.355399
0.655678
1.00293
-0.630915
0.645923
-1.02786
0.381934
0.362903
-0.643305
0.280402
0.0684538
-0.462359
-0.49363
0.686377
0.632238
-0.869645
0.10639
-0.671536
0.565146
-1.01644
0.504345
0.5121
-0.109615
-0.357167
0.196209
0.173039
-0.369248
0.450149
-0.037509
-0.41264
-0.205001
-0.54627
0.568181
-0.280032
-0.100976
0.544351
0.793614
-0.72324
-0.0703741
-0.0118219
-0.161375
0.173196
0.622616
0.0170215
-0.639637
0.0301166
0.227131
-0.257247
0.0235859
0.58871
-0.612296
-0.330643
0.866672
0.599623
-0.404317
0.0213249
0.416214
-0.437539
0.666248
-0.182706
0.145767
-0.0134423
-0.132325
0.05281
0.10359
-0.1564
-0.170913
0.178505
-0.00759237
0.908957
-0.619728
-0.289229
0.232235
-0.973088
-0.190192
0.0192795
-0.766506
0.185716
0.58079
0.795965
-0.264172
0.281266
-0.99966
1.18883
-0.567178
-0.621654
-0.0229515
0.172225
0.968646
-0.422585
-0.546061
-0.601991
0.0937518
0.508239
-0.926378
0.849567
0.076811
0.347541
-0.679697
0.332156
-0.23502
0.0341175
0.200903
-0.503493
0.588673
-0.085181
0.0467391
-0.178768
0.132029
-0.187686
0.0546008
-0.216217
0.0355009
-0.68107
-0.313241
0.560188
-0.8244
0.264212
0.0999304
-0.259765
0.159834
0.45536
0.158635
0.546434
-0.440045
-0.305076
0.231941
0.45296
0.343005
-0.534017
0.0654987
0.468519
0.338083
0.630563
0.412737
0.0521696
0.219023
-0.119093
-0.321432
-0.0616866
0.383119
0.0255105
-0.160213
-0.636353
0.659939
-0.033115
0.17825
-0.145135
-0.898795
0.884678
0.0141173
-0.24596
0.701423
-0.455464
-0.13915
-0.174205
0.313355
0.73262
-0.828952
0.0963322
-0.561594
-0.45485
1.02849
-0.715944
-0.312548
-0.131242
0.11942
0.728377
-0.380836
-0.296334
0.856522
0.144784
-0.419514
0.27473
0.922573
-0.124538
-0.798035
0.950561
-0.220566
-0.729995
-0.320855
0.465638
0.834917
-0.509913
-0.325004
-0.217663
0.81969
-0.602028
0.241972
-0.498198
0.256226
-0.259341
0.0735589
0.185782
-0.232287
0.0209817
0.211305
0.931671
-0.717029
-0.214641
-0.565304
-0.481503
0.618899
0.174715
-0.807354
-0.0914408
-0.0758704
0.12868
0.272444
-0.871105
0.59866
0.00491216
0.208805
-0.538757
1.12078
0.299555
0.609402
0.977769
-0.646889
-0.33088
-0.951779
0.732173
0.615107
-0.95109
0.335983
-0.619355
-0.0638233
0.683178
-0.376416
-0.0919291
0.468345
0.579133
-0.102635
0.287354
0.227321
0.316102
-0.129221
-0.403204
-0.695059
1.00577
-0.310715
-0.290714
0.0480573
-0.41826
0.439585
0.140385
-1.06676
0.58778
-0.918422
0.189527
-0.342236
0.581708
-0.239472
-0.00806679
0.084063
-0.513664
0.281564
0.232099
0.391924
0.125923
0.0190025
0.257511
-0.276513
0.471967
0.167736
-0.602199
0.874643
0.584079
-0.0813317
-0.247279
-0.49059
1.03435
-0.663257
-0.37109
0.961682
-0.973653
0.374518
0.599136
0.776355
-0.868766
0.0924111
-0.468672
0.350073
-0.161221
-0.00669349
-0.203437
-0.479001
0.352396
-0.573077
0.220681
0.403629
0.431288
0.590381
-0.89848
0.308099
0.29542
-0.568709
0.273289
-1.00184
0.189533
0.0354927
0.403818
-0.561291
0.690724
-0.129433
-0.224129
0.326993
-0.102864
-0.521098
0.0564429
-0.13073
-0.258818
0.389549
0.134998
0.00159251
-0.13659
-0.275241
-0.258645
0.331707
0.485921
-0.817629
0.921255
-0.583172
0.397994
-0.447029
-0.021643
0.496611
-0.201191
-0.635117
-0.0924293
-0.129187
0.190272
-0.0610843
0.947219
-0.343131
-0.495798
0.737301
-0.241503
-0.148068
0.174699
-0.0266307
0.589782
-0.139633
-0.329066
-0.542038
-0.492976
0.861833
-0.368857
0.534636
-0.894539
0.359903
0.407466
0.621026
-0.187851
0.16647
0.0213803
0.112337
-0.731692
0.698106
-1.07305
0.37494
-0.346141
0.0807966
-0.112459
0.640587
-0.244205
0.831984
-0.260508
0.623411
0.184949
-0.964334
-0.700799
0.474269
0.22653
0.659065
-0.138701
-0.520364
0.918277
-0.185657
-0.438272
-0.526695
-0.486171
0.358041
0.267545
-0.350815
0.0832695
0.330059
-0.33337
-0.739411
0.626951
0.832134
0.243664
-0.792808
0.297011
0.79461
-0.175711
0.112965
-0.183166
0.0702017
-0.0897495
-0.482401
0.572151
-0.878821
0.158929
0.719892
0.838545
-0.838545
-0.348874
0.934571
-0.585697
0.305739
-0.286737
0.448303
-0.399366
-0.0489371
-0.945861
0.938053
0.00780747
0.380895
-0.0218069
-0.359088
0.30133
-0.0978117
-0.203518
0.163054
-0.302204
-0.0680889
0.573926
-0.870259
-0.749153
0.897971
-0.148818
-0.282758
0.614465
0.220712
0.0140344
-0.234746
0.121652
0.0736936
-0.195345
-0.388091
0.456544
0.911835
-0.678189
-0.233646
-0.112669
-0.509853
0.622522
-0.273543
0.292883
-0.0193404
0.180359
-0.307885
0.127525
-1.05915
0.449278
0.609875
-0.0711566
-0.0395043
0.173628
-0.0606634
0.0096605
-0.217719
0.208058
0.417081
0.514589
0.212976
0.00773579
-0.145973
-0.20202
0.347994
-0.483048
0.761205
-0.278158
0.139155
0.205044
-0.344199
0.385545
-0.319384
0.822961
-0.124822
-0.698139
0.0635333
-0.457367
0.0273623
0.584526
0.45239
0.272315
-0.724705
0.515558
-0.411377
-0.104181
-1.03094
0.190243
-0.420368
0.267839
0.152529
0.278109
0.503734
-0.781843
-0.63929
0.575467
0.0721764
-0.916634
0.844458
-0.171059
0.171383
-0.137401
0.162093
-0.0246919
0.0563052
-0.377737
-0.396692
0.0817798
0.314912
-0.629376
-0.137131
0.607747
0.403682
-0.114382
-0.2893
-0.162328
0.0142596
0.119823
-0.687212
0.567389
0.115556
0.492222
-0.607778
0.246584
-0.710782
0.784419
-0.0736372
-0.746164
0.528502
-0.0923841
-0.122102
-0.414662
-0.18653
-0.300914
0.0723464
0.228567
-0.87197
0.388922
0.639869
-0.752538
0.252473
0.542137
-0.379445
0.339907
0.039538
0.155086
-0.671952
0.516866
0.196343
-0.313202
0.116859
0.531643
-0.86071
-0.627143
-0.0801526
-0.365283
0.00738467
-0.275567
0.0144144
0.261152
0.35024
0.011746
0.380462
-0.392208
0.715154
-0.437044
-0.743409
0.98224
-0.238831
0.2751
0.208958
-0.484057
-0.378317
0.207258
-0.263094
-0.0378197
0.116615
0.331688
-0.286552
-0.731595
-0.205443
0.0762553
0.605744
0.445973
0.138106
-0.737946
0.798582
-0.0698675
-0.295409
0.365276
-0.0816918
-0.814013
0.895705
0.135994
-0.140316
0.00432137
0.284922
-0.177435
-0.231244
0.473216
0.500092
-0.351217
-0.336242
-0.177422
0.0101922
-0.447612
0.437419
0.41342
-1.01909
0.00589644
-0.504239
0.498343
0.052631
-0.0999943
0.0473632
-0.632762
0.0078513
0.624911
0.972463
-0.643761
-0.00410553
0.114924
-0.110819
-0.250487
-0.0230554
0.188865
0.378297
-0.567162
0.179632
-0.219714
0.0400813
0.683466
0.387156
-1.07062
-0.39355
1.13301
0.131303
0.00369468
-0.267486
-0.586845
0.854331
0.421255
0.711613
0.767722
-0.652166
-0.390728
0.259998
-0.218626
-0.0136616
-0.310501
0.925609
0.138798
-0.78346
0.644663
0.949241
-0.128087
-0.821154
-0.267529
0.594627
-0.327098
0.40488
-0.156089
-0.445997
0.602086
0.213061
-0.21751
0.00444839
-0.272998
-0.478741
0.751738
0.196741
-0.0750898
0.066579
-0.0783721
0.514112
-0.78711
-0.704548
-0.19566
0.900208
-0.0336148
-0.49591
0.529525
-0.0476129
1.04926
-1.08994
0.0406872
0.233328
-0.114667
-0.118661
-0.0383985
-0.341046
0.269623
0.242809
-0.352729
-0.023687
-0.754113
0.946978
-0.192864
0.159057
-0.192172
0.506506
0.258659
-0.840553
-0.244513
-0.0407947
-0.199335
0.240129
0.522331
-0.0763586
-0.239675
0.263214
-0.0235393
-0.135362
0.182101
-1.14405
0.542059
0.832032
0.139224
-0.0966127
0.276972
-0.217944
0.493044
0.859643
-0.285717
-0.243414
0.00373892
-0.118403
-0.621008
0.311303
0.290225
-0.27852
-0.913718
0.0348971
-0.060549
0.235921
-0.0395783
-1.0009
0.612766
0.388136
0.827547
0.15823
0.228462
-0.0786289
-0.149833
0.345416
-0.300421
-0.0449949
-0.898788
0.343017
-1.01184
0.518862
-0.245324
0.0751817
0.170142
0.0226499
-0.128704
0.106054
0.94413
0.0373238
-0.981453
0.249805
0.0177521
-0.267557
-0.159085
-0.284406
0.25298
-0.0267642
-0.138361
0.143872
-0.00551111
0.44518
-0.0163071
-0.428873
0.0173636
-0.155725
0.835353
-0.619942
-0.0344855
-0.164533
0.199018
-0.977759
0.223645
0.0215092
0.0633949
-0.175465
0.0442265
0.359455
-0.0375663
-0.26751
0.257774
0.197942
-0.455716
0.382812
-0.23109
0.30212
-0.371987
0.260799
-0.226514
0.120446
-0.344575
0.816381
-0.20122
-0.615161
0.569786
-0.0786347
-0.491151
-0.327297
-0.118694
0.135476
0.0480999
-0.183576
0.235476
-0.417294
0.181818
1.0482
-0.0125623
-1.03564
0.160214
0.0547692
-0.214984
-0.508419
0.683233
-0.174814
0.444671
0.514168
-0.958839
0.0863106
0.189315
-0.31048
0.466115
-0.155635
0.238271
0.111709
-0.349981
-0.703434
0.398254
0.30518
0.134001
0.00987122
-0.846176
0.141628
0.33753
-0.203294
-0.134236
0.378494
-0.574142
0.195649
-0.111016
-0.211658
0.169432
0.879823
0.809662
-0.146723
-0.662939
-0.811559
0.100777
0.327585
-0.574864
0.633462
-1.03285
0.399391
-0.113315
0.309524
-0.00965624
-0.408408
0.262435
-0.176369
0.242367
-0.105078
-0.768319
0.873397
0.420278
0.308099
-0.713632
0.773058
-0.059426
-0.0442964
-0.23127
-0.543624
-0.215263
-0.140579
0.156222
-0.0156429
-0.0319233
-0.290287
0.32221
-0.0712509
0.344392
-0.273141
-0.162408
0.540901
-0.570787
-0.127744
0.698532
-0.764545
-0.231851
0.996396
0.45382
-0.403029
-0.0507914
-0.313987
0.0163919
0.297595
0.148213
0.0791526
-0.227366
-0.879023
0.0181804
0.860842
0.024895
0.21836
-0.243255
0.750541
-0.849197
0.0986562
-0.408766
0.177836
0.286566
-0.464401
0.0115412
-0.15212
-0.371888
-0.255769
0.627658
0.618383
-0.987262
-0.974664
0.829483
0.145181
0.216701
-0.0370687
0.76718
-0.260674
-0.119658
-0.178631
0.298289
-0.0140913
0.219734
-0.205643
-0.200248
0.714572
-0.514324
0.881554
-0.626486
-0.255068
0.975068
-0.941969
-0.033099
0.669544
-0.377943
-0.291602
0.0439177
-0.256106
0.212188
-0.323764
-0.0204292
-0.920727
0.814148
0.106579
0.109647
-1.03037
-0.273978
0.678789
-0.404811
-0.453667
-0.263362
0.226463
-0.184699
-0.041764
-0.781577
-0.196181
-0.217327
0.152347
0.0649806
0.181286
-0.15117
-0.928291
0.852479
0.0758122
-0.215322
0.198722
0.156475
0.270122
-0.0203171
-0.56505
0.0615575
0.178746
-0.199228
0.0204822
-0.258554
0.359253
-0.100699
0.432137
-0.0512414
-0.216313
0.395505
0.194276
0.39222
0.296688
0.18512
-0.481809
-0.2041
0.541532
-0.638717
0.432766
0.205951
0.137199
-0.00319811
0.73959
-0.319312
0.520535
-0.365449
-0.117286
-0.261656
0.378942
0.23555
-0.760653
0.525103
0.58061
-0.614225
0.967345
-0.422673
-0.544673
-0.00598608
-0.535344
-0.103373
-0.694208
0.982696
-0.288487
-0.0476902
-0.227183
0.873105
-1.02424
0.242666
-0.212185
-0.0471558
-0.204004
0.182801
0.18379
-0.00528441
-0.497759
-0.522245
1.09276
-0.40717
0.129549
-0.255351
0.125802
0.0586036
0.242726
-0.645684
-0.329102
0.974786
0.384308
0.194825
-0.00368801
-0.166259
0.169947
0.818529
0.140032
0.0175842
-0.157616
0.635966
0.180416
-0.340418
-0.926594
0.177441
-0.252801
0.0156064
0.237195
0.544224
0.644607
0.0771945
0.254716
-0.33191
0.942842
0.0322257
0.599261
-0.84938
0.250119
-0.805527
0.0145447
0.790982
-0.782315
0.977573
-0.195259
0.162287
-0.00387851
-0.158408
-0.366607
0.98499
0.121336
0.164405
-0.285741
0.0432658
-0.756898
0.517026
-0.221008
-0.296018
-0.832709
1.04269
-0.20998
-0.210032
0.560875
-0.350843
1.16414
-0.511855
-0.652286
0.0552301
-0.614395
0.559165
0.147635
0.0144579
-0.393972
0.838643
0.54842
-0.897294
0.867743
-0.333107
-0.209939
0.175453
-0.827819
0.0222926
0.924101
-0.33372
0.00194602
-1.01242
0.332528
0.0114842
0.269246
0.593599
-0.862845
0.57414
-0.182781
-0.391359
0.594455
-0.950601
0.356146
-0.217751
0.0116887
0.206062
-0.20071
-0.490728
0.691438
0.389293
-0.268847
-0.56831
0.399624
0.168686
0.23362
0.172238
-0.405858
0.084788
0.141675
-0.842686
0.96008
-0.117394
0.120675
0.0153198
0.464603
0.234339
-0.698941
0.301641
0.404285
-0.705927
0.178459
0.480606
0.0203138
0.958831
-0.0105831
0.792668
-0.782085
0.229894
-0.0907396
-0.301889
-0.0176343
0.319523
0.638363
-0.462303
-0.17606
0.435429
0.531916
-0.2176
0.165672
0.0519279
-0.214721
0.759055
-0.544334
0.00063253
0.195479
-0.196111
0.228352
-0.692767
0.464415
-0.318013
-0.20058
0.518593
0.682047
-0.059431
0.276624
0.297517
-0.366492
-0.342404
0.708896
0.312551
-0.822404
0.103299
0.164667
-0.267966
0.206519
-0.0505959
-0.155924
0.00822822
0.139407
-0.0537504
0.872232
-0.818482
-0.0847209
0.849043
0.723296
-0.632151
-0.0911446
0.665582
-0.526254
-0.531418
0.24684
0.284578
-0.157927
-0.241438
-0.103452
-0.0203305
0.123782
0.0723972
0.156064
0.150362
0.728826
-0.879188
0.279361
0.165819
0.137144
-0.901689
-0.466667
0.038632
0.428035
-0.355882
-0.214097
0.569979
0.534063
-0.276289
-0.821147
0.53839
0.356543
-0.443882
0.0873386
-0.580258
0.840655
-0.260397
-0.436064
0.499597
-0.510398
0.489058
0.0213401
-0.703551
0.984576
-0.281025
-0.0227695
0.243711
-0.220941
0.140297
-0.117647
-0.443184
-0.640321
0.989865
-0.349544
-0.538332
0.714371
0.484831
-0.536597
0.0517663
-0.110125
-0.116575
0.2267
-0.962023
0.658606
0.303416
0.00832338
-0.135358
0.127034
-0.0758815
0.5058
-0.706048
0.707443
-0.471893
-0.186766
-0.514033
-0.708761
0.698178
0.442606
0.0812258
0.224902
0.249059
-0.473961
-0.358049
0.33396
0.024089
0.352774
-0.125206
-0.227568
0.303702
-0.484827
0.181125
-0.422413
0.573754
-0.151341
-0.699112
-0.111075
0.810187
0.103674
-0.213799
0.387808
0.250555
-0.97811
0.693057
0.285053
0.159706
0.115441
-0.275147
0.00742047
0.208033
-0.26126
0.0532264
-0.637897
-0.176493
0.480195
0.158599
0.222039
-0.178121
0.213447
-0.24537
0.345585
-0.497217
0.0239406
0.308237
-0.0118208
-0.297174
0.308995
-0.546026
-0.41455
0.960576
0.135895
-0.502386
-0.509405
-0.000644911
0.51005
0.0749397
0.252496
-0.327436
-0.00453875
1.08311
-0.700099
-0.38301
0.170276
0.639386
-0.0170654
0.582692
-0.354401
-0.22829
-0.302147
0.586898
-0.28475
-0.536572
-0.142767
0.679339
-0.480684
0.170204
-0.335659
-0.195759
1.22912
-0.468006
-0.761117
-0.220334
0.0848904
0.135444
0.324728
0.122319
-0.447047
-0.186681
0.211576
0.0899049
0.217183
-0.307088
-0.100058
-0.030909
-0.227626
-0.0126122
0.728818
0.500305
-0.498206
0.938094
-0.227079
0.833796
-0.180203
-0.0401312
-0.792853
0.256281
0.726622
-0.614285
-0.132539
-0.641002
0.132583
0.390919
-0.664897
0.594434
-0.684183
0.80426
-0.0279049
-0.211759
-0.128485
-0.208199
-0.147887
0.356087
-0.317861
-0.0459144
0.718857
0.130906
-0.849763
-0.00931757
-0.263122
0.27244
-0.124854
0.394172
-0.994198
0.600027
0.767763
-0.0172219
-0.91677
0.924564
-0.0077944
0.204609
-0.155286
-0.852264
-0.109758
-0.327857
0.805828
0.00831964
0.279385
0.90136
-0.35431
-0.54705
-0.489339
-0.124024
0.613364
0.0406094
0.410907
-0.451516
-0.696179
0.0634165
-0.229105
-0.0686383
0.297743
-0.472854
0.611651
0.19511
0.471606
-0.666716
-0.374435
0.0780907
0.296344
-0.790358
0.0569676
0.73339
0.120061
0.587381
-0.285726
0.368731
0.300813
-0.205898
-0.214471
0.717741
-0.840878
0.168947
-0.359886
0.190939
-0.204878
0.291189
0.66796
0.0215051
-0.689465
0.605229
-0.832308
0.00868248
-0.243703
-0.238702
0.47696
-0.238258
-0.608461
0.236573
-0.0366417
0.320431
-0.28379
0.17149
0.0802875
-0.251777
0.158476
0.126445
-0.277537
0.605121
-0.136278
-0.109046
-0.173123
0.184664
0.314067
-0.0869358
-0.213152
0.24727
-0.216848
0.206365
0.0104827
0.221417
-0.249915
0.0284976
-0.698838
0.58835
0.0511841
-0.560589
-0.0790318
-0.319404
-0.0378549
0.580511
-0.542656
0.341771
-0.403458
0.247967
-0.562242
0.314275
-0.465922
0.776368
-0.310446
0.272228
-0.967287
0.261837
-0.0256181
-0.949046
0.415779
0.676976
-0.71041
-0.110737
-0.644087
-0.329566
-0.440891
0.182072
-0.148878
-0.0677574
0.216636
1.07096
-0.526731
0.921628
-0.223522
-0.244573
-0.165843
0.410416
-0.830987
0.344602
0.486385
0.24324
0.0803753
-0.242573
0.420408
0.177308
-0.102259
-0.588364
0.262631
-0.141295
0.0493411
0.22201
-0.271351
-0.111294
0.830152
0.105195
-0.198596
0.0934009
0.906161
-1.0626
0.517958
0.544645
0.140587
0.286737
-0.427323
0.692266
-0.487958
-0.204308
-0.53724
0.327208
-0.168632
-0.06151
0.386238
0.886455
-0.968147
0.433122
-0.194851
-0.332563
0.645114
-1.0501
0.723189
0.326912
0.249908
-0.71617
0.466261
-0.659746
0.713422
-0.0536767
0.294629
-0.498729
0.0122531
0.156892
0.296928
-0.0537782
-0.677096
0.241503
-0.984154
0.382923
0.601231
0.259552
-0.748891
0.719222
-0.0164414
-0.58555
0.106232
0.402644
1.00137
-0.335361
-0.66601
-0.505266
0.233696
-0.589578
0.179379
-0.888514
0.764489
-0.480824
0.324735
0.431134
-0.829027
0.575974
0.253054
-0.939437
0.607771
0.331665
-0.395444
-0.0181688
0.0707998
-0.932106
0.665099
0.267007
0.594719
-0.961326
-0.828144
-0.0145428
1.0306
-0.39714
0.578226
-0.0510024
-0.527223
-0.0290005
-0.167657
0.196658
0.148356
0.465557
0.507741
-0.636605
-0.192422
0.149044
0.240249
0.186295
0.382641
-0.568936
0.409478
-0.236438
-0.0234227
-0.884319
0.907741
-0.380276
0.270452
-0.673833
-0.559212
-0.361587
0.920799
0.238191
-0.345468
-0.674995
0.205659
0.469336
0.0113481
0.0240691
-0.0354172
0.845816
-0.950894
0.196842
-0.435544
0.561716
0.121332
-0.683049
0.22504
-0.0954914
-0.786775
0.226909
0.559867
-0.545264
0.227252
0.275598
-0.577745
0.380148
-0.211201
-0.0401035
0.0514516
-0.0279133
0.977154
-0.571257
0.742279
-0.171022
0.960215
0.0194454
-0.97966
-0.533194
0.104113
-0.446349
0.00650518
0.832039
0.139253
0.0354455
0.186356
0.0849092
0.22083
0.508575
0.276839
0.0759353
-0.862202
-0.066089
-0.864944
0.433817
-0.856402
0.182047
0.200026
-0.382073
0.895783
0.0613081
-0.957091
-0.12363
0.119751
-0.342477
-0.669361
-0.733373
-0.135393
-0.25962
0.864849
-0.319233
0.45084
-0.131607
-0.810974
0.264948
-0.285601
0.471896
-0.405204
-0.595698
-0.250474
-0.213518
0.361654
-0.454097
0.195543
0.985129
-0.179301
0.676422
-0.486836
-0.189585
-0.0623854
0.478599
0.28038
0.963191
-0.891015
-0.0491862
-0.226253
0.340281
-0.467228
0.532727
-0.462517
-0.543195
0.23318
0.171923
-0.405103
-0.861343
0.0227987
-0.132184
0.74321
-0.611026
-0.108285
-0.808485
-0.622684
0.639706
1.01523
-0.44587
-0.56936
-0.03886
0.306699
0.688619
-0.292809
-0.39581
0.276315
-0.307224
-0.330653
0.0287645
-0.167577
-0.0102813
0.177858
-0.203693
0.428595
-0.385525
0.980243
-0.0117327
-0.172966
-0.272939
-0.0972188
0.370158
-0.00899102
0.854807
0.294273
0.0279297
-0.322203
-0.37945
0.568316
0.329943
0.429112
-0.483039
0.0163723
0.536859
-0.210694
-0.326165
0.339113
0.0292189
-0.368332
0.0240142
-0.620153
0.596139
-0.874995
0.141622
0.224215
-0.43372
0.867537
-0.0127834
0.289098
0.156833
-0.476066
-0.984532
0.498361
-0.805463
0.278265
-0.460457
0.0723662
-0.295812
-0.540426
0.836238
-0.957246
0.00826856
-0.18642
0.178152
0.739235
-0.555022
0.546304
-0.505695
0.125886
0.524479
-0.650365
0.128018
-0.357123
-0.652855
-0.28751
0.940366
-0.307171
0.335535
-0.0283648
-0.442862
0.743765
-0.300903
0.684459
-0.525521
-0.158937
0.839586
0.0474066
-0.886993
-0.420218
-0.642385
-0.306457
-0.0588255
0.374621
0.651705
-0.0128469
0.112296
-0.099449
-0.620015
-0.16676
0.559438
0.526797
-0.512339
0.629176
-0.116836
0.169924
-0.152339
0.295756
0.124566
-0.420321
-0.0802525
0.185447
-0.0773354
-0.854771
-0.931926
0.551418
-0.194875
0.0333767
0.2088
0.0771633
0.690155
-0.767318
-0.507222
-0.0578284
0.608334
0.312921
0.0730438
-0.281252
0.284587
-0.372738
0.0881506
0.0189565
-0.330304
0.311348
0.515342
0.186081
0.290484
0.783082
-0.379453
0.730451
-0.459999
-0.123662
-0.254691
0.378354
0.715077
0.104613
-0.0142661
-0.653045
0.452334
0.830921
-0.839912
-0.332766
-0.389043
0.721809
-0.467479
-0.363508
-0.849588
0.86242
-0.0128322
-0.213092
-0.361326
0.213439
0.486194
0.296888
0.19921
-0.263777
0.0645673
-0.330114
-0.69056
-0.211143
-0.683773
0.894915
0.564205
-0.179896
-0.186718
0.290017
0.474017
-0.816494
0.386595
-0.357631
-0.41641
0.920703
-0.504294
0.296728
0.381534
0.334915
-0.71645
0.841728
-0.509758
-0.33197
-0.370311
-0.574368
0.863953
-0.289585
0.498526
0.177895
-0.298967
0.286184
0.377576
0.786565
-0.227509
0.198508
-0.274112
0.285858
0.878082
-0.470875
0.420039
0.650917
-0.400632
0.205921
0.194711
0.279182
-0.396468
0.666588
0.00137228
0.650254
-0.0720279
-0.624073
-0.0149628
0.639036
0.196983
-0.0256707
-0.171313
0.16846
0.0648682
0.155047
-0.937362
-0.294634
0.350939
0.634194
-0.592551
-0.0416425
0.178356
0.358504
-0.161155
0.0825262
0.290229
0.201345
-0.491574
-0.329487
0.695875
-0.0906834
-0.403944
0.898808
-0.494864
-0.172311
0.40593
-0.112545
-0.26189
0.969696
-0.501446
-0.305908
0.508345
0.183921
0.310941
-0.389972
-0.194225
0.171456
-0.272709
-0.155345
-0.00698256
0.299512
-0.145817
0.74978
-0.603964
0.23441
-0.22475
-0.321006
0.142374
-0.336435
0.0299777
-0.90448
0.636994
0.256525
0.209589
0.264534
-0.380322
0.115788
0.196861
0.119186
0.690685
0.385744
-1.07643
-0.118521
-0.0164432
0.134964
0.0482712
-0.79168
0.666525
0.348705
0.74041
-0.663247
-0.884869
-0.0452284
0.00846038
-0.386629
0.431085
0.540693
0.324126
-0.864819
0.418123
-0.0763522
-0.0275388
-0.29992
-0.100712
-0.558146
-0.430102
0.272174
0.371762
0.610478
0.545154
-0.480602
-0.0645518
0.200787
0.00557826
-0.0611831
0.256874
-0.0354561
0.713324
0.215932
-0.929255
-0.264171
0.313512
-0.238171
0.145353
0.0928176
-0.347961
-0.0142397
0.3622
0.327156
0.261373
-0.588529
0.209077
0.324986
0.627727
-0.0190583
-0.270107
0.340324
-0.255414
0.0273382
0.06035
-0.0876882
-0.894256
0.506854
0.77611
-0.614122
-0.161989
0.0207147
-0.158986
0.138271
0.780291
-0.834041
0.556256
0.00794826
0.162982
0.383322
-0.146529
-0.00881599
0.203488
-0.283357
0.079869
-0.408114
-0.137072
1.0073
-0.512283
-0.495021
0.740675
-0.221473
-0.519202
0.412245
-0.666299
0.254054
0.0402711
0.448887
0.0477239
0.0160109
0.416819
-0.43283
-0.063495
0.266983
-0.369777
-0.137223
-0.061373
0.888801
0.0136994
-0.9025
-0.442859
0.275755
-0.287576
0.19907
-0.0333977
0.15824
0.31872
-0.415857
0.344606
-0.00474274
-0.00513976
-0.0853188
0.15558
-0.353554
0.479439
0.00528467
0.28494
-0.0662273
-0.138712
0.594072
0.0454966
0.499657
-0.145972
-0.131368
-0.184762
0.474991
-0.145771
0.621566
-0.475795
-0.734987
-0.11119
-0.281974
0.732838
-0.450864
0.0836134
-0.220836
0.321917
-0.0577648
-0.0167877
-0.251937
0.268724
-0.762804
0.261357
0.140019
-0.144124
0.443747
-1.08943
0.32522
-0.912066
-0.288344
0.49609
-0.30212
0.501069
-0.299724
0.0104128
-0.548546
0.572561
-0.00226744
-0.159107
0.0594931
-0.462522
-0.128985
-0.543007
0.671992
0.234239
0.301258
1.09768
-0.720305
-0.377374
-0.207711
0.0751014
0.238008
0.0202006
-0.258209
-0.719354
0.148097
0.199059
0.00746072
-0.00872756
-0.137092
0.145819
0.46723
-0.749204
0.0835429
0.411707
0.0563417
-0.468049
-0.72604
0.580269
0.156576
0.0363733
-0.192949
0.343846
-0.984167
-0.150129
-0.00235297
0.152482
0.204995
-0.048419
0.0189488
0.656697
-0.478237
0.525053
0.493802
-0.284725
-0.830202
0.270991
-0.608619
0.531474
0.0771441
0.375651
-0.708417
-0.459479
-0.258507
0.717986
-0.0239409
0.393241
-0.293329
0.271522
0.877535
-0.0938377
-0.783697
-0.0112022
-0.851
0.760528
0.0790579
0.40777
0.280849
-0.162999
-0.00326045
0.160067
-0.21493
-0.358147
-0.389489
0.34829
0.041199
0.0250561
-0.898902
0.873846
-0.166808
0.395981
-0.229174
0.274148
-0.850421
0.576274
-0.0471688
-0.508187
-0.0321278
-0.00902742
0.594438
-0.332095
-0.179566
0.511661
-0.351187
-0.278189
0.43121
-0.259287
-0.219922
0.0539837
0.165938
-0.0998579
0.364392
-0.863998
-0.105056
-0.0728886
0.177944
0.220806
0.15858
-0.379386
0.553827
-0.883216
0.329389
0.0845035
-0.52771
0.142553
-0.975262
-0.470377
-0.537081
1.00746
-0.85928
0.0655357
0.793744
-0.947568
-0.715975
0.0562296
-0.320102
0.309333
0.0107693
-0.850202
-0.261794
0.975118
0.3662
-0.168258
0.108553
-0.293315
-0.122231
0.447217
0.153715
0.103522
-0.37646
0.0167842
-0.17391
0.157126
-0.169133
0.00187429
-0.114274
0.134988
-0.300481
0.441068
-0.979317
0.614224
0.365093
-0.180624
0.467978
0.484535
0.207262
-0.0102782
-0.0822144
0.281425
-0.443139
-0.231856
-0.512949
0.164725
0.348223
-0.0331711
-0.14658
0.179751
-0.417321
0.436278
-0.0869612
0.648791
0.524901
-0.230628
0.415786
-0.766973
0.422495
-0.478624
0.0561287
0.123444
-0.00851977
0.176549
-0.0100781
-0.823934
0.528122
0.293764
0.446911
0.0120612
-0.200574
0.188513
-1.08846
0.449634
-0.0698329
0.173423
-0.188863
-0.0193464
-0.214402
0.233748
-0.52097
0.188875
-0.915157
0.837822
0.781533
-0.219817
-0.27104
0.251253
0.0197863
-0.242144
0.0428092
-0.158856
-0.97826
0.393403
0.584857
-0.151712
0.135269
0.0494387
0.311671
-0.36111
0.480541
0.0757157
-0.253437
0.00321456
0.250222
-0.288024
0.293309
-0.290515
-0.0556267
0.503958
-0.828089
0.895735
0.0471066
-0.546407
-0.285476
0.833097
-0.0399258
-0.793172
0.0895138
0.0808097
-0.170324
0.490001
-0.98776
0.453857