/*--------------------------------*- C++ -*----------------------------------*\
| =========                 |                                                 |
| \\      /  F ield         | OpenFOAM: The Open Source CFD Toolbox           |
|  \\    /   O peration     | Version:  2306                                  |
|   \\  /    A nd           | Website:  www.openfoam.com                      |
|    \\/     M anipulation  |                                                 |
\*---------------------------------------------------------------------------*/
FoamFile
{
    version     2.0;
    format      ascii;
    arch        "LSB;label=32;scalar=64";
    class       volScalarField;
    location    "1.25";
    object      p;
}
// * * * * * * * * * * * * * * * * * * * * * * * * * * * * * * * * * * * * * //

dimensions      [0 2 -2 0 0 0 0];

internalField   nonuniform List<scalar> 
13486
(
2.24555
1.82749
0.22479
-0.650516
0.632645
0.112425
0.1539
1.21541
1.51464
0.880761
-0.736366
0.492382
2.36391
-0.0822872
0.507908
0.967062
-0.862121
0.0892271
0.597658
2.02903
-0.578245
2.33581
1.78753
-0.309623
0.843782
-0.288696
-0.757414
-0.206549
0.0673971
-0.122788
-0.418694
0.430344
-0.441612
-0.0669006
1.22066
0.0163369
0.113168
1.82714
0.127994
1.52891
-0.164529
2.4539
0.0702344
0.843747
0.813331
0.493243
-1.837
0.0699576
0.097567
-0.200307
1.36896
0.104362
0.438698
1.85708
0.109058
0.705044
0.0902299
0.116712
-0.414151
0.156496
-0.667902
0.12925
-1.24672
-0.563293
-0.126366
0.104194
-0.620153
2.2579
1.50399
0.10599
-0.624373
0.128171
1.55798
-10.9288
0.136202
0.130258
0.124267
0.485782
-1.47186
0.130898
0.0225467
1.85477
-1.286
0.257061
2.25369
1.08537
0.231376
1.32412
1.53911
0.982163
0.380787
1.03868
2.15153
1.93842
1.56474
0.0113893
-0.755153
-0.555379
1.50554
-0.856405
0.0554666
-0.0060544
-0.544514
0.114887
1.3037
-0.875881
1.56298
0.122132
-1.62403
0.888653
1.43548
0.187998
1.85587
0.102792
2.65752
1.50628
0.844253
-0.0618297
1.57663
0.0908282
0.134907
-0.672933
1.6419
0.125902
1.43063
0.0978603
1.08899
0.539094
-0.0206573
-0.073501
0.100103
-1.89738
-7.22231
-6.93844
1.48407
1.2645
2.80233
0.938397
0.0886425
1.26712
-0.385107
0.437724
0.514329
0.118107
0.133027
-0.785942
0.285419
2.03307
-0.250866
0.0163319
1.01915
0.429491
0.0238806
1.89504
0.564068
0.26332
0.661254
-0.163532
1.64899
0.196065
-0.107735
1.64938
0.19184
2.447
0.103904
-0.295291
0.131119
3.11161
0.285258
-7.16988
-6.48214
0.588959
1.11926
0.817471
0.00737851
-0.425552
-0.360286
-0.499333
1.5707
0.523258
1.43064
0.113695
0.680238
-0.626454
0.315985
-0.196292
-0.00149273
-0.100034
-0.0623134
1.59368
0.102659
0.169344
0.117419
2.03881
0.109436
-0.745611
-0.0897881
-0.146412
2.0244
-0.212855
-0.386468
0.558109
1.8304
0.361337
0.202654
0.106481
-0.301177
1.66496
0.081746
0.302159
-0.147359
-0.190378
2.0081
1.56619
0.0988834
0.0293075
-0.130944
1.00055
2.03803
-1.36187
-0.873809
-0.249957
1.30518
-0.146042
0.377727
2.19156
-0.121944
-0.307416
0.0487634
0.215659
1.41917
-0.980848
-0.403578
2.50488
-0.506972
2.10831
-0.0816073
0.188807
2.13035
0.714047
-0.417321
1.10455
0.112277
2.00716
0.150367
1.74392
0.748773
-0.208669
-9.05058
0.93618
-0.534836
2.69177
1.45149
0.131995
0.0871533
-0.454283
0.432261
0.0421735
-0.0410777
-0.375303
1.68135
0.141736
0.504825
-0.459753
0.699936
-0.628966
0.0617962
-0.436622
1.50405
0.278799
1.59888
1.53585
-0.154843
0.440031
2.19593
-0.192396
0.0746761
0.0908405
0.121755
0.295551
0.0906113
1.26377
1.58998
-0.494097
-0.66362
-0.806637
-0.423831
-0.0321743
0.386477
1.52325
-0.52508
0.15719
1.56649
1.48716
-0.062064
-0.110478
-0.149592
0.43565
1.58972
0.0328916
0.170681
-0.176434
0.289943
0.450175
0.102312
0.388807
-1.02892
0.781192
0.204613
0.094616
-5.85486
-0.665361
-0.100823
0.214277
-0.666201
1.29434
0.154206
1.53717
1.67042
0.0344868
0.113103
0.151571
1.55473
1.95432
2.74613
0.389946
0.930006
1.22651
0.37736
0.849724
1.33543
0.98104
0.350788
2.10411
0.138012
1.47386
2.74232
0.470145
1.03415
0.147235
0.0308673
1.93991
0.810785
0.695291
-0.610187
0.0229946
1.00098
2.64279
-1.30059
0.154226
0.990192
0.399473
0.435218
-0.749645
1.58469
0.061302
-10.5248
1.05933
0.200717
-0.178198
0.612048
0.401702
1.70241
1.5258
-0.131788
-0.00587653
-0.0971496
-2.28482
2.0511
1.07184
0.0840901
1.02815
0.381047
-0.546299
0.0940954
1.42854
1.61621
0.145247
-0.655649
-2.99891
1.48095
0.939855
2.37323
1.67743
-2.19368
0.0690731
0.361416
1.00706
-2.82787
-0.575846
1.97462
-0.162609
0.77693
2.13974
2.23934
0.0845556
-0.646258
-0.548601
-1.7481
-0.425532
-2.47074
0.488026
1.37733
-0.98245
0.20396
0.289649
1.90971
-0.464895
1.08668
1.73182
1.0313
-1.03306
-0.206686
1.61412
1.61574
1.97813
-0.601831
0.726562
-6.30053
0.732229
1.57266
-2.64868
2.65315
1.07261
-0.126425
-0.113616
0.513819
1.59349
-0.774968
0.218474
2.31546
1.37505
0.773347
0.38674
0.523072
-0.234618
2.36263
0.154499
0.849634
2.22177
-2.50865
-0.158731
-6.15992
-0.198046
0.21909
1.78865
1.86215
2.33007
-2.96522
0.0957163
-0.612863
1.04353
1.55317
-0.177966
-1.12175
1.58501
-0.55613
-0.40676
-0.488999
-0.755584
0.0150264
1.88885
0.0176982
0.255614
-0.656145
1.49577
0.0448312
2.92683
2.17586
1.54202
1.14974
0.0144632
0.0335849
2.72476
0.0607397
0.0934218
-0.103494
1.48735
-0.817246
0.424077
1.1664
0.0575484
-0.388262
1.77519
-0.915901
-1.28967
1.10691
-0.547328
3.10048
1.09835
1.37898
1.68672
-0.447567
0.334221
2.50756
0.599952
1.96497
0.099579
0.632398
-0.409287
0.129715
0.0904909
-0.899809
1.599
1.47251
-0.52698
0.010171
0.0833054
2.25848
1.78993
0.0603919
1.50307
1.10746
-0.387425
0.680071
1.47252
-6.93223
2.33544
0.0888772
0.0845717
2.43653
0.946391
-0.0147867
1.03117
-0.351949
-0.559475
0.67348
0.830135
1.66755
2.15655
-0.651017
0.521785
-0.67868
0.0359038
2.09773
0.615507
-0.613923
-0.531559
-2.77768
0.041873
1.18082
-0.121767
-1.0425
1.50733
2.08116
0.164847
1.67364
-0.846749
-0.553784
-1.65576
0.80569
-0.63055
1.66648
0.320165
-0.647936
1.26717
1.76824
-0.38106
-0.670942
1.38856
2.10304
0.604689
2.26588
0.301977
1.09664
0.520676
1.6923
0.0973652
2.04416
-0.752884
0.463285
1.42495
0.00357694
-0.175984
1.57567
-2.90569
0.452958
1.81427
2.33266
-0.123238
0.0428136
0.549761
0.393284
1.39368
1.13809
0.231278
-0.734395
0.301174
2.22883
0.448695
0.271842
-0.280547
2.34772
0.0168147
0.114768
1.54774
1.12286
0.124277
-0.0176501
1.23423
0.368422
0.255699
0.770382
-1.03112
2.27456
1.47009
1.11463
1.15464
0.327562
-0.446175
2.56192
0.655631
2.56759
-0.327992
1.53379
0.00214948
-11.0254
0.781868
0.932875
2.69467
-0.221589
0.891415
0.89283
-1.3557
0.896869
-0.0883205
-0.480372
1.46887
-0.672444
-0.17423
-0.239307
-0.138376
-0.00696692
1.65799
0.0230989
2.48697
1.50468
0.166337
-0.553577
-0.117053
0.688605
-0.677098
-0.221384
-0.867753
2.0927
-0.000175947
0.10831
-0.558187
2.3794
-0.0024081
0.208458
2.43409
1.43023
-0.592156
0.16177
1.08257
0.375207
1.41324
0.103282
-0.14719
0.758932
1.42428
0.622703
1.27343
2.47004
0.113433
-0.401528
1.58135
-1.62173
0.11301
0.99684
1.22132
0.770005
-0.602424
0.291917
0.143018
0.384847
2.09402
0.630296
0.367265
0.275787
-0.304839
0.0921549
1.55508
0.178015
1.38042
1.44467
2.10229
0.189867
-1.14534
2.54755
0.0161441
-0.556344
1.60078
-0.256342
1.72233
0.120631
1.53407
-0.987755
-8.56857
-0.24107
0.0110866
-1.0291
0.90576
2.62723
0.0194392
-0.680751
-0.17342
1.59794
0.257423
0.806413
-0.581972
2.61357
-0.603097
0.830682
-0.247813
0.963575
1.5533
0.674064
-2.79881
-0.576019
2.40737
1.60671
0.486274
1.40843
-0.289736
1.16948
1.16219
0.995343
-5.9197
0.0773686
1.89681
0.148519
0.107804
1.19974
-0.555711
0.0222995
0.109373
1.64374
1.64316
-0.402592
0.299622
-0.588142
-0.585323
0.358471
0.0132159
0.393799
1.53168
0.0814347
-1.33064
1.74713
-0.659294
-0.0379171
0.187039
-0.252488
-0.422617
-0.210344
0.13365
-0.469316
1.40573
2.35942
0.0858926
-0.032058
2.44054
2.28769
-0.138375
-0.0862808
1.53528
-2.62724
0.124214
0.245622
0.246508
0.74598
-1.16279
0.867679
1.11711
-0.205791
0.0554144
-0.368232
0.0941486
1.27974
0.756864
0.989901
-0.425904
1.35267
2.24144
-0.981733
-0.469826
1.67303
0.275432
0.931712
0.134776
-0.120376
-0.44123
0.149003
1.58531
2.57394
1.65733
0.327761
0.104787
1.55369
2.18126
-0.0998923
1.59191
1.56924
2.29469
0.194591
0.148426
0.44795
0.0466093
2.27631
0.323835
0.176302
1.05491
0.073695
0.502231
0.160041
-0.550862
1.48651
1.27101
1.14386
0.824229
-1.26062
0.0190151
0.0285782
0.756472
-1.08383
-0.663074
0.125583
-0.397115
-0.639492
0.904833
-0.1242
-8.74729
-1.33253
0.0152748
1.042
-0.774202
-0.392419
1.70578
-0.368225
2.341
-0.277483
-9.72087
1.7698
2.11007
0.131145
0.279564
0.0519837
1.58923
0.736308
-1.04545
0.121281
0.0948016
0.0738146
1.55912
0.077864
1.00645
0.153575
1.49367
-0.783324
0.102365
0.0580615
1.82358
-0.321914
-0.710249
-0.27305
2.31684
0.266023
-0.381797
-0.769506
1.55744
-0.466636
0.156746
0.458246
0.659545
0.266537
0.995731
-0.117815
1.29659
1.5749
1.73491
0.813617
0.100973
-0.0169126
1.2203
-0.387665
1.79791
1.09707
0.128928
0.1242
0.0613925
0.177332
0.0954101
1.73016
0.786638
-1.91053
1.55631
0.07504
1.19122
2.66301
0.179106
-0.990716
1.10472
0.258943
0.101089
0.0639402
-0.626644
1.55346
0.1187
0.0521094
0.085625
0.2706
1.91996
-0.585943
-0.0183929
1.56084
0.282718
2.15844
1.74887
2.00109
0.498209
1.02149
0.546502
0.173347
1.06717
1.48929
-1.0512
-0.0200433
-1.43407
-0.0644644
-0.557464
1.53517
-0.682874
-0.3879
-0.383112
-1.04751
0.0860879
1.56412
0.0514902
0.355112
-6.55421
1.59508
2.62007
0.297556
-0.622347
0.940386
-0.707931
1.54032
0.176902
0.154955
1.80066
0.0950121
2.47825
1.04835
1.5573
-0.10619
1.9534
0.131252
1.75426
0.0910921
-0.38655
-0.372869
-0.232582
1.04477
0.240103
-0.804192
2.33067
1.61504
1.65123
2.12281
1.6908
1.82072
0.0260614
1.55233
1.59984
1.59275
0.037155
-0.104173
-0.208974
-1.36369
0.453877
1.67167
-7.87877
2.46081
-1.30849
0.110688
2.5555
2.14661
-0.014509
-0.232394
1.52519
0.88285
-0.346158
1.39635
-6.47458
-0.254475
1.55763
2.07436
0.151558
1.64341
1.93075
0.0100435
-0.112098
1.94579
0.710738
0.10574
-0.70468
0.253588
-0.522314
1.45571
1.20653
0.134782
-0.370327
-0.131837
0.436597
0.0773761
0.493314
2.20605
0.0854672
2.85775
1.53333
0.587204
1.70185
-0.590144
-5.1523
-0.472073
1.574
0.143453
-5.53214
-0.359765
0.887968
0.96891
0.145228
0.982082
-2.73509
0.715378
0.27819
0.149225
1.20256
0.55328
1.9439
1.5684
1.62809
1.45856
0.0127046
-0.34769
-0.341919
0.271129
-0.148762
0.00906156
1.18492
-0.300613
0.121529
0.121424
0.2048
-0.570807
1.06193
0.808294
0.221945
-0.149333
0.736223
-0.25924
-0.263005
0.407724
0.244471
1.64073
1.2474
1.92253
-6.42311
1.47559
0.103254
2.09591
-0.0779251
0.901996
0.276407
0.0745054
2.43414
2.58138
1.29759
0.689075
1.12216
1.35972
2.46127
0.971029
-0.377079
-0.576143
0.450347
-1.3858
-1.35795
1.56958
1.49858
0.266695
0.13243
1.20223
1.38936
2.68568
-0.714716
1.26678
-1.80064
0.166146
2.16751
0.0610202
1.22959
-0.0916061
0.82444
0.626687
2.81001
0.217528
-0.226195
0.900996
0.416975
-0.625416
-6.97466
0.159434
1.70337
0.223597
0.708059
2.28509
2.10477
0.0986488
-2.51765
0.210807
0.425229
1.74991
1.4911
2.08222
0.920518
-0.763008
2.18423
1.3311
-1.01553
1.10917
1.5792
1.88211
-0.606477
-0.859941
0.00522808
1.37242
2.39991
0.797541
0.247247
-0.525544
2.69937
-0.908117
-0.394006
2.50459
1.41099
0.308564
1.19119
-0.62235
0.779551
-0.0469353
-0.887178
0.139268
-0.476696
0.33777
-0.00228656
-2.76558
-0.965129
-1.22616
0.0405835
-2.03985
-0.543911
1.5058
1.43992
0.629331
-2.64076
0.405355
0.393107
0.00469238
2.84329
0.926859
-0.269019
1.38296
-0.0494477
-0.473051
1.17792
1.16312
1.48456
2.88907
-0.00986243
0.0609718
-0.302902
0.309669
0.967938
1.43993
-0.22608
2.21205
1.10625
1.64145
-0.373029
0.120078
0.150172
1.53836
1.56947
1.59004
1.5434
2.64687
2.57203
-0.0549441
1.43396
1.92371
-0.234337
2.08122
0.0972302
2.54112
2.06145
0.346706
1.73743
0.850208
1.10235
0.182427
1.572
-0.336112
1.31784
0.444867
0.924273
0.138582
1.55456
0.0784099
0.460521
2.45303
2.44649
0.969155
-6.58106
0.480556
-0.330225
0.0577882
1.27265
2.19338
-6.20093
1.59985
1.42463
0.768372
1.52998
-0.533137
-0.0672514
0.133031
2.72357
0.326302
0.203849
1.75933
0.15811
0.14058
0.918024
0.455113
1.227
0.384887
-0.105857
0.936283
1.16073
0.921565
1.07097
2.59798
2.12596
1.85941
2.15491
2.40095
0.668656
0.100568
-0.0530978
-1.60458
2.42452
-0.269104
1.51166
1.33268
-0.578661
0.730439
1.66651
-0.216166
0.78658
1.02273
2.92457
-0.743755
0.722771
0.305173
1.70257
0.221131
-0.481777
2.38228
2.03056
1.44116
1.53976
-0.066399
0.508854
-0.964797
2.56639
0.0890756
2.78906
-0.728463
0.288864
-8.52917
0.650319
-9.83884
0.367124
0.111551
0.705538
0.245335
0.708072
-0.491636
-0.00721538
0.0217328
-6.57399
-0.170522
-1.11508
0.242489
0.069715
-0.767321
-0.659276
1.5092
1.5411
1.98221
1.57445
0.632759
0.629347
3.1473
1.47536
-0.787778
0.0271539
0.121171
1.23463
1.32543
2.21748
-0.463978
-0.439402
1.1607
0.00014755
0.499962
1.90264
-6.89262
-0.59216
-1.09505
2.59712
-0.572175
1.04728
1.91427
-0.854249
1.16754
0.0758247
-0.724939
-0.716324
0.170903
1.10129
1.77248
1.88288
-0.979708
-6.74856
0.887712
-1.28013
-0.11225
0.0019121
0.400835
-0.0160996
0.199151
-0.516725
-0.734646
-0.314319
2.29676
-0.568938
2.51644
-0.625536
0.100824
0.572384
0.270156
2.11995
1.44092
1.79942
0.271816
-0.0436211
-0.73228
2.04679
-6.41042
1.17153
0.146685
1.85454
2.11659
0.137491
1.55659
2.41002
1.63531
1.63493
-3.17218
-0.42279
0.645497
-0.245384
0.129243
0.84003
0.981018
0.239178
-0.757862
0.511242
0.149722
1.26215
1.04009
-0.143822
2.53266
0.304096
0.0479953
0.410825
1.55314
-0.0776602
0.043772
1.62025
-0.467769
0.240403
0.0541758
1.56339
1.54354
1.50382
0.201539
1.46283
1.75475
1.68399
-0.0436382
0.111941
0.488196
1.2817
-0.492493
-5.88236
-0.365783
-1.14267
-0.616025
0.034916
0.125459
0.112006
-6.75886
-0.255378
-0.568013
0.162957
-0.0316862
0.71774
-0.660572
1.64509
3.13952
0.636125
0.0312021
0.789012
0.359355
0.486212
0.0160327
-0.0971202
-0.358759
0.333914
1.97104
0.0198282
2.36619
0.0048514
1.46758
1.19393
0.69249
-6.339
0.72466
2.66687
-0.80086
1.60218
1.50388
2.20639
0.299787
2.02173
1.58986
-9.16219
1.69921
-0.749619
-0.921682
2.07129
1.40722
-1.07657
0.131629
1.94307
-0.209814
-0.18318
0.0960749
0.103239
1.22138
0.982255
1.54608
1.37135
1.30833
-2.67623
-0.181394
-0.0315268
1.51405
2.78094
-0.118307
-0.970838
-7.08913
1.47309
0.292447
0.298663
0.48853
-0.651343
1.14446
-1.01709
0.250584
2.4745
0.829025
0.202498
-0.440511
-0.55799
-0.229442
-1.55145
-0.314694
-0.586845
1.80694
0.958763
-0.199621
2.46197
0.0302698
-0.704756
0.0252377
-0.915471
1.61455
-6.01084
0.655315
1.48143
0.213764
-0.0567591
0.12174
-0.793602
-0.323337
1.66858
-0.580846
0.100883
-0.987361
1.51086
1.6392
-0.565721
1.89832
1.75251
2.27627
2.34091
1.65357
0.420832
2.73485
-1.15439
1.43634
0.0778553
-0.446906
1.84779
-0.393752
2.30239
0.842731
-0.832838
-3.24031
-2.12961
1.64344
-0.344008
-0.0409534
0.289237
-1.16886
0.178293
1.03485
0.502042
1.05692
2.59425
-8.28198
-0.288525
-0.530031
1.53476
1.19691
-0.176693
3.10089
0.118157
0.15606
1.04371
-1.01073
1.50561
1.53591
1.71847
1.72546
0.21344
0.763487
1.44514
0.487249
-1.04886
0.0474748
1.6054
1.69354
2.06025
-0.808152
0.215541
0.592119
1.03203
0.378052
-0.398756
1.30617
-0.0500368
1.37875
1.58766
-0.917471
2.36031
-0.19521
2.61967
1.69619
-0.537996
0.0127372
0.113027
0.707392
1.61883
-0.491662
2.02806
1.49001
0.638111
0.0938861
0.45548
-0.158493
0.631951
-0.985985
0.850672
-0.296757
1.52622
-4.79373
-0.201754
-0.0196925
1.87163
2.14281
0.861185
-4.13332
0.878391
0.0969243
0.280397
1.01808
-0.993679
-0.702161
2.51449
-0.467744
0.190896
-0.320436
-0.874024
-0.37775
1.60071
-0.952918
-0.00702386
1.6201
0.929884
1.64534
-0.565046
0.72084
2.55954
-2.42961
1.48857
0.504421
-0.896489
0.706004
0.49713
-0.706569
2.60777
1.70908
0.27401
2.56012
1.94101
1.85476
-1.3455
-4.98834
0.846043
-1.00714
-0.337319
-0.826805
-0.989373
-0.81947
1.17764
0.647658
0.840665
0.969493
-0.939831
1.05903
1.52002
-0.852655
1.54476
1.04916
1.56648
0.0999671
0.0561082
-0.555952
-1.61269
-0.55713
-0.0359085
1.50271
-0.466408
2.28853
-0.582238
1.52689
0.821638
0.13279
0.046512
1.55192
0.802334
0.550027
1.33346
0.243473
0.0198776
2.16806
1.8155
-0.187344
-0.594067
-0.141975
1.39421
0.247466
0.45832
-0.915201
0.320325
0.0833713
0.199113
1.30765
1.20293
0.304728
0.798353
0.211405
0.113109
-0.42464
1.87157
-0.568309
1.56183
0.0575722
1.36987
1.60634
0.977155
1.39402
-0.00477884
-0.469828
0.176011
-4.96859
-0.406125
-0.182403
0.275114
-0.500098
1.26786
0.230537
1.54684
-0.628858
-0.536389
-1.43428
0.100018
1.56509
-0.721826
1.47332
0.525127
-0.340741
-0.675665
-0.551852
1.04398
1.69891
0.111528
0.447078
-5.98049
1.74528
-1.1119
0.490157
-0.602539
1.88295
0.76914
0.0693481
1.63458
1.54598
1.81215
0.554017
1.88284
-2.66889
0.163055
0.10168
1.41572
1.08217
0.539421
-0.142501
-0.37198
-0.546909
0.779364
0.212435
-0.516304
2.4498
-3.4954
1.77685
1.08157
-0.0455787
0.0915271
0.212879
0.13107
0.397221
0.418264
1.46525
0.14439
1.5467
-1.4454
0.395509
-0.650623
0.215809
-0.387999
1.85601
2.56112
1.67457
0.718352
0.0291112
1.05884
-0.778495
-1.33467
0.192558
0.0761603
-0.200753
-0.546164
-0.382882
-0.194282
1.31972
1.44468
-1.02525
0.536187
1.71629
-0.22229
-0.936478
1.64539
0.0929943
-0.691787
0.0883171
0.0734854
0.0307137
2.45746
0.191941
1.41493
-0.905756
-0.412299
-0.202986
1.45685
0.285268
1.21356
-0.947866
-0.285742
0.211921
0.0625881
1.75084
1.32758
0.463536
0.0835915
-0.0822598
2.66262
-0.740703
1.69752
1.85475
0.0314663
0.0960087
0.737584
-6.54591
-0.105372
1.37175
0.955405
1.45587
-0.415857
1.67413
0.407214
2.14987
0.051635
1.38485
1.89662
1.30214
0.458657
-0.600536
0.663805
-0.888897
1.23843
0.812997
1.80532
0.373071
2.26903
0.434673
2.41675
0.268769
1.87623
0.0665878
1.12396
-0.730444
1.51047
0.73747
0.737826
2.33206
1.53215
0.493566
-0.180862
0.869276
1.4992
0.112458
-1.50804
1.09944
0.217572
1.94486
-0.565807
2.30952
0.558127
3.19006
2.34074
1.02648
0.864665
-0.713259
0.359623
2.48384
0.285442
0.22671
0.0930852
2.59774
0.84629
1.2787
2.28735
-0.396681
1.64795
-0.00919508
1.77276
0.139157
1.66795
1.53904
2.07055
0.101697
-1.44765
0.549733
-0.563078
0.706624
-0.0825977
0.214636
1.9579
2.17499
0.05773
0.316403
0.0328298
1.94761
1.25099
1.37254
1.0617
0.118518
-4.25146
-0.529351
1.58163
-1.52321
-0.294143
0.323464
1.02603
0.744197
-0.199288
2.64142
-0.537448
2.28843
0.21463
2.42791
-0.0927285
0.254285
0.140387
0.111574
1.29856
1.5307
0.345913
-0.169346
0.267745
-0.393855
2.16276
-0.207716
0.313317
-0.803924
0.0478057
0.264885
1.81882
0.610397
0.16903
0.0807125
1.55109
2.79174
-0.553732
0.213037
1.44247
-1.68804
0.940243
0.140629
0.987077
-0.045775
-2.90052
-0.19176
-0.0655369
0.092259
0.275662
-0.722703
-0.198992
0.169485
1.29174
1.61695
1.39242
2.70321
-0.684524
2.55883
-4.73695
2.37418
-0.477962
-0.438176
2.60923
0.766327
-0.110174
1.48606
0.100056
1.61658
-1.14788
-0.944285
0.42796
-0.171881
-0.207091
0.00260941
0.0777116
0.755838
1.85073
-0.417472
0.84436
-1.34813
0.432818
-0.632457
0.106981
0.0128436
-0.619929
-1.08805
2.0529
0.131851
2.22328
0.638267
-0.729187
0.638825
-0.93559
0.135685
1.34873
1.86747
2.75389
1.21453
1.3228
0.612701
-8.72644
2.65713
2.80657
1.67051
-0.435496
-0.437154
-0.894209
1.38849
0.927183
0.559908
1.31746
-0.321437
0.117547
-0.834422
2.31112
0.315773
0.42288
-0.463014
1.41836
0.5772
3.05068
2.84609
1.33042
0.239264
0.271912
-3.27412
0.692874
2.9208
-0.637834
0.158462
1.0597
0.0321022
0.457861
0.119743
0.00751141
0.466873
0.389282
0.743158
0.0901375
0.618403
2.0837
0.20485
1.60472
-0.423581
-0.0303959
2.52036
-0.555399
0.129818
0.156022
0.764799
0.356819
-0.569864
0.0180295
0.180782
0.381633
3.0992
-6.48902
-0.952135
-0.257375
-0.830476
-0.0539551
0.144036
-0.58425
-0.762614
0.0703871
-1.32507
-0.836861
-0.238574
0.351933
0.236909
0.386134
3.00769
0.351728
0.57115
0.0918219
0.504982
-6.14116
-0.0396762
2.07209
1.56999
0.569664
0.106909
1.46011
1.6205
-1.78093
-0.550351
0.18137
2.06484
-0.22993
1.46352
0.343142
2.28958
0.392264
-0.390671
0.309296
1.67428
-0.171232
1.40402
-0.427469
2.86249
-0.572547
0.0344029
-0.770537
0.780238
-0.532367
-0.385811
-0.54372
0.371999
0.480462
-0.394235
-0.787877
0.0781958
0.416504
-0.158676
-0.825572
1.18701
-0.952365
1.29472
-0.513814
1.68159
2.62902
1.37334
-6.01318
1.49205
0.304691
0.199032
0.086713
-0.0750466
-0.8013
0.240174
-0.0569512
0.466308
0.238177
-0.965584
-0.596177
-0.70381
0.803016
1.59677
-1.51008
-0.549569
-0.164722
0.0907326
0.0801114
0.873
-3.45809
-0.536048
1.55099
-0.589777
0.722242
-0.372145
-0.742322
-0.662889
-0.677095
3.10206
0.480701
-0.257957
0.540266
2.49273
2.52651
-0.356562
-0.00534585
1.55148
0.115319
0.245845
2.55387
0.84389
1.27527
3.12248
-0.200409
0.224144
0.463547
2.24698
1.57734
1.52729
1.91314
1.16645
0.0852092
0.163919
0.82957
0.501056
-2.19729
2.58362
-0.553679
-0.629395
0.0885182
-0.15418
0.741997
-0.437642
-0.0246183
0.482224
1.55269
1.65342
1.69901
-0.786016
2.2243
2.51084
-0.887404
0.944552
0.129755
0.204006
0.102502
0.983632
-0.6962
-0.238062
-0.51562
2.79891
-0.754386
1.72205
1.54754
1.97645
1.07939
1.18311
0.00971501
0.0803709
0.752068
0.119381
-0.949242
-1.13136
0.225257
-0.595293
1.84262
-0.378512
0.132116
0.477335
-6.37814
-0.454985
-1.10977
1.33842
-0.00889855
0.210597
0.897134
-0.313958
0.556886
-1.03148
0.13361
1.64039
-0.71448
2.60112
0.0910761
2.80436
0.0130865
0.208149
0.376219
1.39749
1.27087
-1.76996
0.0862919
-0.0862284
0.366857
1.02974
3.15624
1.98446
0.428513
-0.220478
0.755043
0.170044
1.70106
0.12717
0.981681
-0.485808
-0.507622
-5.83075
0.332482
0.0854645
-6.38111
1.13835
0.948093
2.4767
2.70037
-1.31441
-0.790951
0.352024
-0.85504
2.58399
0.0596559
-0.444391
0.820861
1.17316
-0.252698
-0.710911
0.387265
0.0965317
1.33562
-0.252892
0.247858
0.265218
-0.488015
-1.52341
-0.11825
-1.68362
-1.32795
1.64747
-0.324953
-0.401372
0.00497064
-0.0873362
2.8465
1.03518
1.46932
-8.66725e-05
0.779848
0.24355
0.578018
0.638647
-0.577644
-4.30384
2.57675
1.62328
0.234091
-6.82921
2.96733
-0.482373
-5.34337
-0.504836
0.691066
-0.522157
-0.312348
2.23198
0.168646
1.37238
0.764696
-0.62159
-3.29743
0.245783
0.778728
-1.86094
0.277438
0.608627
1.48067
-0.545795
-5.41831
-0.0319948
-0.0752718
-1.06823
-0.852421
2.79034
1.09198
-0.522315
0.636656
0.599079
2.41467
0.815154
-5.0167
0.840312
1.90952
1.61309
-0.173072
1.38786
-0.0860489
2.55466
0.0854226
1.5755
-0.666138
-0.171398
0.086058
-0.473431
0.795645
0.687278
-5.50848
-0.518379
1.76129
-0.547267
0.224477
2.09229
1.29295
2.03628
1.50848
-0.302764
0.0505423
0.300972
1.47496
0.0361151
1.85086
1.10769
2.53402
-0.590639
1.98375
0.597577
2.59102
-0.643304
-0.436296
2.62949
-0.559486
1.07118
-0.764939
2.25271
2.53764
1.65854
-2.14469
1.5719
1.93189
-0.147452
0.762105
-0.323277
2.06428
-0.528435
-0.58565
-0.830331
-0.8969
1.89874
0.60674
-1.07384
0.803411
2.53068
-0.585461
-0.0158151
-0.990731
-0.487866
1.20644
0.0796474
1.51679
1.4085
-1.14761
2.87027
0.0775543
2.1548
2.1213
0.20837
0.0694965
1.31052
-1.03399
0.0401583
1.28735
1.10084
-0.199064
1.40953
-0.594943
2.36217
1.66707
0.599206
-0.409877
1.65072
-0.2671
1.00855
1.97815
0.468174
0.0737122
1.91513
1.59228
-0.272454
-7.46951
1.08617
1.66821
2.55082
-10.39
2.69829
2.7706
2.74941
0.103271
1.86282
-0.642952
1.56003
2.01228
1.9671
1.65168
2.19507
3.04036
1.36598
-8.75413
-0.189511
-3.67527
3.01327
0.824178
-0.1959
-0.556422
1.45713
2.23842
1.4623
0.532989
0.0936037
2.20878
-0.931442
1.58787
-0.543504
0.864485
0.108121
0.23824
0.964825
-0.601909
-0.581339
-0.397338
-0.0687448
0.195582
1.83001
-0.0634828
0.400982
1.39681
-0.715541
0.824392
0.0962983
-0.697234
-0.678373
-6.89684
2.09905
2.2695
-0.495599
0.833827
1.93205
1.83055
0.053027
-0.326909
1.6352
-3.17013
2.06889
-0.672796
2.01286
1.03083
0.443679
1.88367
1.02511
1.96119
0.575332
0.834894
-0.156788
-6.0795
-0.810293
0.155421
1.92557
-0.374488
-0.258948
-0.367001
2.206
1.9401
0.674122
1.09667
2.1711
-1.21354
1.42203
0.227647
-0.200472
1.4248
-0.367092
-0.770246
-0.76335
-1.41599
-0.0251691
-0.517066
0.220681
-0.93088
-10.0522
1.22694
2.58931
2.83893
2.45044
-0.387952
1.60487
-0.67072
1.39349
2.18379
0.409951
1.89156
-0.360682
0.575421
-0.18555
0.180163
2.05797
-0.874683
1.6886
-0.801921
-0.0746241
-1.33848
1.73897
1.67653
1.57143
-0.746365
1.41091
-0.905138
-1.10152
-1.11125
0.518432
2.59317
-1.61614
0.00505805
-0.525821
1.49971
1.50108
0.0774687
1.08495
-0.781716
2.20404
2.0673
-0.268983
-0.0138198
2.1421
-0.314511
-0.652569
0.282063
1.96425
2.2028
-0.648315
0.999965
0.00112335
2.54433
-1.03417
-0.157398
0.215637
2.37621
0.273056
-0.116517
-0.297358
2.04179
1.27109
2.02483
0.163405
-1.4022
1.65761
2.97078
-6.42841
1.31002
0.24522
-1.20703
0.226585
0.609625
-0.55999
0.966739
-0.660098
1.10197
-0.276705
-0.207368
1.85998
2.22418
1.41478
-0.961989
-0.158601
1.72413
-0.786025
0.454548
-0.243247
0.769539
-0.921376
1.65341
1.72686
0.200702
1.61769
2.50168
0.0502385
1.17296
1.71395
-1.10479
1.01712
-0.145837
0.74939
0.391207
1.26931
0.0269495
0.568853
0.0250876
-3.51984
2.09245
0.462251
0.127273
-0.286364
0.0570958
1.61021
-0.82871
2.73579
-0.740321
-1.93777
-0.708057
1.92664
1.68049
1.99974
-3.156
2.406
-0.49201
1.12322
0.3553
-0.816643
1.44452
0.725763
0.000824535
1.0047
-3.94956
1.31159
-1.02452
-0.331309
-0.00165036
-0.64143
-0.713429
1.31166
2.47047
0.240135
-0.649622
1.91698
-0.858964
2.24253
0.515259
0.30142
0.94956
1.56294
0.79991
-0.300881
-0.0252875
0.240983
0.531052
0.690043
-0.792204
-0.501127
0.169799
0.767892
-0.0625224
3.04952
1.59986
1.57525
2.26634
0.427605
1.69862
-0.351661
-2.20359
-0.340718
1.55773
2.95647
1.4092
-0.528819
2.09052
1.37908
1.40362
0.204839
0.201821
0.821092
2.74735
0.1299
-0.219608
2.19257
2.13812
1.56162
1.49432
1.82204
1.06698
-0.911822
-0.409152
1.64088
-9.00192
-6.10837
1.55502
-0.358138
-0.450765
0.312057
1.6079
1.6721
1.69908
0.0633585
1.99152
2.04406
0.213534
1.78573
1.56102
1.42984
1.21963
0.926748
0.785914
0.0903158
1.91433
1.77313
0.239247
1.33607
0.0551883
0.126264
2.4492
1.84352
0.023697
-0.591375
0.330067
1.90182
1.02489
0.445726
0.107671
0.378942
-0.0845409
0.442936
-0.555394
0.108578
1.02721
0.0768319
-0.518414
-0.757372
2.31108
-0.555526
-3.87877
-0.526105
2.48265
-0.0251343
0.447637
0.471961
-0.953564
1.2561
1.47667
0.887009
2.18163
1.18401
0.293057
-4.28255
-0.577678
0.0332542
1.76538
0.2086
-0.659809
-1.08079
-0.0241338
-4.00291
-0.520146
-1.05739
0.0407577
0.725245
1.54358
1.943
0.0112011
0.208245
2.18761
1.68257
-0.643184
-0.0638356
-3.72973
0.895569
0.361146
0.834227
1.33573
-0.589566
-0.0271791
-0.0559764
0.561215
-0.445636
-4.83717
0.287341
-0.31532
-1.95715
-1.00172
-0.546993
0.272254
-2.90254
0.781469
-0.672677
1.53638
1.40593
0.309566
1.943
-0.510561
2.48278
-0.178883
0.355591
-0.770862
1.50184
0.951409
-6.76788
-2.56403
1.58102
1.83565
2.57664
-0.611597
-2.79333
-0.457261
0.0596102
0.0215647
-0.755941
0.393776
-0.79821
0.90769
-0.662334
1.07776
-0.0507262
0.0915469
2.2547
1.31558
-0.980256
0.0540211
-0.903862
-8.20812
1.97714
2.83725
-7.08987
1.82406
1.47617
0.0286382
-1.04373
1.89685
1.83032
-1.08755
-0.00253955
-0.359146
-0.483189
-0.756157
-0.806781
-0.765357
1.07738
0.216398
1.68254
-0.717516
-1.01766
1.46361
-0.713162
-0.857832
0.308142
1.2174
-0.931948
-0.267837
-1.08408
-0.734314
-0.811508
2.61689
-2.50567
0.043327
-0.652661
1.65353
-1.30071
0.106563
-0.869546
-0.693076
-0.137983
1.6857
0.0457731
-0.760852
1.30327
-0.0250718
-0.119034
-0.777864
-0.772495
1.02025
1.21186
1.56355
-1.86628
2.23556
-0.0574735
0.00542745
0.222846
-1.99198
-0.431699
-0.767946
-0.376619
0.443685
0.821342
0.203088
-0.0611701
-0.404394
1.38898
-0.615022
1.689
-0.66127
1.07831
-0.0231165
-0.549708
0.218206
3.103
-0.891885
-1.03208
-1.67825
-0.314388
1.56624
0.183558
0.249829
0.122308
-1.11369
-0.60412
-9.48176
-0.794071
1.61966
-0.895206
0.45891
-1.14774
0.249476
1.29056
0.199889
0.574775
-0.0981499
1.95767
-1.20693
-0.227367
2.10335
0.611588
-1.16245
-0.047257
-0.685726
-0.347646
-0.06234
1.91281
-0.372432
0.770409
-2.57252
-0.66357
-0.791131
-0.862974
-4.31882
0.784237
0.0603694
1.5523
0.708114
-0.56615
0.361321
-0.454586
1.86825
2.21786
-1.0065
0.252644
1.61025
1.55408
1.12141
-0.300621
-0.519506
-0.560327
1.5718
0.634256
-0.338533
-0.772516
0.794307
1.80973
-0.00227849
-0.19529
0.291896
2.07214
-0.966498
-1.11673
0.133891
1.38099
0.246272
0.192678
2.24852
1.86967
0.198679
-0.35993
1.89006
0.868157
0.143516
1.34664
-0.0586005
-0.417856
-0.636963
-0.349502
1.84346
1.57797
0.0992829
-0.215604
0.241913
-0.862182
1.62302
-0.371903
1.0577
1.97187
2.11747
-0.0790972
1.57562
1.29339
1.6461
1.74911
0.0593459
1.75878
0.0114394
1.55756
0.929615
1.65834
-0.594095
1.88487
1.79151
1.41043
1.0689
-0.189914
1.02743
0.161922
-0.263568
2.02407
2.06672
-0.321565
1.97555
-0.345107
-7.42617
1.61597
1.63761
-0.754362
0.192838
-2.28363
-0.349173
-1.17522
-0.433245
-0.716051
-0.140345
1.37372
2.77182
1.87944
-0.0136353
-0.492691
1.57705
0.970161
-0.597041
-0.404221
-0.149177
-1.19199
-9.58962
-6.14944
1.50607
0.261028
0.947137
0.077617
0.0738001
0.158423
0.0490731
0.457714
0.703009
1.12367
-0.164131
0.538495
-1.15633
-0.578179
1.05015
0.943919
0.0818827
-0.24102
1.08246
0.101409
0.702987
-0.180355
1.54563
1.2638
2.37657
1.56627
-0.291902
-0.106458
-0.18869
-0.127119
0.11218
0.144824
0.0893181
-0.31049
2.83254
0.225448
-1.15643
2.20825
-0.53865
-0.678834
-0.791165
-0.589882
-2.84267
0.260852
-0.738789
1.43712
0.0570632
-0.264136
0.265987
-0.128418
-0.381699
-0.452534
0.289564
1.24657
-0.569876
-0.462777
-0.815691
0.63399
-0.357111
1.63887
2.26795
-0.114561
1.67401
0.826897
1.22527
2.50876
-0.550954
1.01753
0.810475
0.868405
2.14435
-0.255923
0.0442079
-0.315431
1.60967
2.26399
-0.303125
0.205717
-0.34171
-0.29704
0.894855
-0.216928
-0.894854
-0.149569
0.721679
-3.71794
0.495576
0.531479
1.38284
0.432012
-9.78442
0.281655
0.132848
0.10862
2.41803
2.72116
2.00807
2.93264
1.39342
1.39756
1.67631
1.4357
1.43949
-0.26157
1.53952
-0.0608933
-9.99884
2.21528
0.0173407
-0.39576
2.61397
0.275245
-0.542713
0.940639
0.855313
1.84172
-1.43999
1.44604
2.4397
-0.549419
-8.08174
-0.881088
1.05783
-0.677779
1.91861
0.177531
1.85317
1.55477
-0.488761
1.75375
-0.206289
-5.97861
-7.92162
-0.375822
1.79845
-0.320427
1.62002
0.0933145
-0.774263
0.293558
0.129756
-1.40931
-0.182504
-2.32511
1.82995
0.520326
-0.829227
-0.322948