/*--------------------------------*- C++ -*----------------------------------*\
| =========                 |                                                 |
| \\      /  F ield         | OpenFOAM: The Open Source CFD Toolbox           |
|  \\    /   O peration     | Version:  2306                                  |
|   \\  /    A nd           | Website:  www.openfoam.com                      |
|    \\/     M anipulation  |                                                 |
\*---------------------------------------------------------------------------*/
FoamFile
{
    version     2.0;
    format      ascii;
    arch        "LSB;label=32;scalar=64";
    class       surfaceScalarField;
    location    "1.25";
    object      phi;
}
// * * * * * * * * * * * * * * * * * * * * * * * * * * * * * * * * * * * * * //

dimensions      [0 3 -1 0 0 0 0];

oriented        oriented;

internalField   nonuniform List<scalar> 
20045
(
0.267755
-0.307825
0.04007
-0.562309
0.227115
0.335194
0.130991
0.830612
-0.961603
0.120763
-0.15146
0.0306968
-0.474083
0.440891
0.0331915
-0.228456
1.00214
-0.773682
-0.555923
0.197338
0.358585
0.0339593
0.240719
-0.274678
0.253227
0.225033
-0.478261
-0.357954
-0.112547
0.4705
-0.0939917
0.321787
-0.227795
0.993803
-0.521072
-0.472731
0.210213
-0.206764
-0.00344823
-0.631072
0.469137
0.161936
-0.129888
0.54381
-0.413922
-0.536868
0.178915
-0.02969
-0.0563302
0.0860202
0.446096
-0.0541482
-0.391947
-0.822153
1.15564
-0.333486
-0.383947
-0.00906142
0.393009
0.20905
-0.209677
0.000627287
0.07541
0.134803
-0.10762
-0.454689
0.303911
0.259929
-0.56384
0.451361
0.0439291
-0.49529
-0.291906
0.595817
0.130089
-0.135005
0.00491585
-0.479744
0.956701
-0.476957
0.885855
0.0899043
-0.975759
-0.94952
0.5985
0.35102
-0.0838311
-0.147801
0.231632
0.705363
-0.587039
-0.118324
-0.315114
0.584332
-0.269219
1.08777
-0.644418
-0.443355
-0.308462
0.342421
1.1445
-0.583023
-0.561477
0.721773
0.147115
-0.868888
-0.0348086
0.214423
-0.179615
-1.07537
0.433151
0.642218
0.318429
0.265633
-0.584062
0.0204479
0.24285
-0.263298
0.0790584
-0.113693
0.034635
1.08157
-1.07198
-0.00959831
0.724442
-0.227918
-0.496524
0.300415
0.424027
0.491029
0.502775
0.331619
-0.330109
-0.0015097
0.613823
0.299202
-0.913025
0.952719
-0.230946
0.0588234
0.799548
-0.858372
0.634562
-1.08976
0.455194
0.971444
-0.718738
-0.252705
-0.408205
-0.464388
0.872593
-0.0481835
-0.169962
0.218145
0.178978
0.13305
-0.312028
-0.375103
-0.0989804
0.0856174
0.694269
-0.779886
0.869071
0.055908
-0.924979
0.340902
-0.656015
1.06343
-0.754075
-0.309356
-0.0517514
0.281445
-0.229693
0.39367
0.669761
0.416166
-0.68148
0.265313
0.197639
0.0114105
0.209804
0.206792
-0.416596
0.810584
0.158081
-0.968664
-0.0381972
0.146291
-0.108094
-0.345699
0.0517842
0.293915
0.455849
-0.202622
0.971509
-0.981565
0.0100562
-0.0991629
0.0609657
-0.312422
0.4914
-0.144025
-0.52346
0.667485
-0.0478604
0.132881
-0.0850206
0.899797
-0.119603
-0.780194
0.692948
-0.60733
-0.04711
0.946907
0.278874
-0.408762
-0.263024
0.335935
-0.0729105
0.394522
-0.702796
0.308274
0.516864
0.595444
-1.11231
0.448985
-0.388205
-0.0607801
0.555385
-0.139219
-1.02811
0.172937
0.855175
-0.00498649
0.272742
-0.222774
0.305208
-0.0824339
0.550429
-0.808477
0.258048
-0.794451
0.0235776
0.770874
0.501038
0.111958
-0.612996
-0.459271
0.371538
0.0877331
-0.78147
0.0555045
0.725966
0.401786
-0.0780835
-0.323703
0.217148
-0.325213
0.108065
-0.11246
-0.40061
0.51307
0.323427
-0.343903
0.0204757
0.73737
0.206586
-0.943955
0.111227
0.0188619
0.011194
-0.164233
0.153039
0.636625
-0.318197
-0.0163986
-0.0958829
0.112281
0.789322
0.355177
-0.28223
-0.348842
-0.190659
0.201853
-0.15944
1.02851
0.0452421
-0.268016
0.143099
-0.159498
0.216003
0.61243
-0.828433
0.644112
-0.981615
0.337503
0.0685948
-0.250983
0.217475
0.0335083
-0.124997
0.159384
-0.034387
0.658776
-0.56068
-0.0980958
-0.27387
0.225686
0.664758
-1.0516
0.386841
-0.120202
0.18855
-0.0683488
0.0271333
-0.153868
0.126735
0.56114
-0.10978
0.82894
0.258832
-0.6095
0.465475
0.691953
-1.03029
0.338333
0.0217534
0.424342
0.220636
-0.272388
-0.424265
0.346326
0.0779395
-0.431256
0.0549776
-0.322843
0.267865
0.691567
0.279877
0.566046
-0.748224
0.182177
0.796044
0.0911507
-0.887195
-1.03892
0.83311
0.205811
-0.319355
-0.192739
0.512093
1.02493
-0.333361
-0.362451
0.032342
0.637867
-0.589051
-0.0488158
-0.115619
0.115534
8.53578e-05
0.568035
0.393824
-0.961859
0.633092
-0.565152
-0.0679404
-0.166719
0.063797
0.102922
-0.179107
-0.0718766
1.14986
-0.457908
-0.356701
0.376536
-0.0198342
0.520631
-0.865245
0.344613
0.265086
-0.673292
0.420013
0.325407
-0.74542
0.749526
-0.355003
0.984787
-0.132263
-0.852524
0.124996
-0.483605
0.358608
0.932759
-0.651138
-0.281621
-0.153781
0.210761
-0.0569795
0.0221257
0.865616
-0.887742
1.06692
-0.181066
-0.828603
0.028471
0.800132
-0.53342
0.433903
0.0995175
1.00368
-0.486818
0.128231
0.320754
-0.650878
0.748368
-0.0974899
-0.671803
0.802794
0.0121438
-0.194915
0.182771
0.194875
-0.233277
0.0384023
-0.0186866
-0.206589
0.225276
0.838229
0.00440498
-0.842634
1.15781
-0.548417
-0.609392
-0.244486
0.2258
0.653674
-0.771256
0.117582
0.0930284
-0.01397
-0.878178
-0.515112
0.626884
-0.111771
-0.630437
0.520476
0.10996
-0.0083131
-0.0491948
0.0575079
0.347908
0.58485
-0.0160931
-0.0995259
0.577354
0.0605132
-0.683121
0.0322434
-0.768911
0.941104
-0.172193
-0.699935
0.761717
-0.0617821
-0.614824
-0.415195
1.03002
0.0655195
-0.283784
0.218264
0.38175
-0.485524
0.103773
0.629377
0.118921
-0.748298
0.000487503
-0.744498
0.74401
-0.43544
0.855452
0.208221
-0.577752
0.369531
-0.374994
1.03975
-0.803017
0.583322
0.219695
-0.0930702
0.104749
-0.0116786
0.371291
-0.976722
0.605431
-0.789588
0.309844
-0.619855
-0.385904
0.911245
-0.595595
-0.315651
-0.311211
0.331659
0.154077
-0.163051
0.00897388
-0.762671
-0.214273
0.976944
-0.74854
1.06708
-0.318537
0.997634
-0.684056
-0.313578
0.0226644
-0.220384
0.19772
-0.230589
-0.542384
0.772973
-0.265346
0.171354
-0.425333
0.105978
-0.593179
-0.212497
0.805676
0.109246
0.0292979
-0.138544
0.029694
-0.544807
0.124499
-0.20833
0.837283
-0.0412385
-0.167154
0.132346
-0.168072
0.205707
-0.0376351
-0.158875
0.997104
-0.817418
0.58683
0.317261
-0.206966
-0.110295
-0.719083
0.158681
0.560403
0.346417
0.651216
1.04023
-0.668939
0.638473
-1.00765
0.36918
0.314417
-0.629963
0.315546
0.0588519
-0.442799
-0.489258
0.705261
0.639837
-0.868293
0.115541
-0.640701
0.52516
-1.02462
0.520896
0.503723
-0.0826478
-0.376623
0.190126
0.165423
-0.355549
0.540309
-0.0658131
-0.474496
-0.125573
-0.588917
0.611042
-0.275433
-0.0812682
0.56463
0.812869
-0.757645
-0.0552242
-0.0122153
-0.148655
0.16087
0.654986
0.0396951
-0.694681
0.147292
0.133911
-0.281203
0.0178513
0.579499
-0.59735
-0.304889
0.855318
0.595834
-0.387613
-0.0957869
0.267831
-0.172044
0.717873
-0.197242
0.10922
-0.0092563
-0.0999638
0.177244
0.050145
-0.227389
-0.126281
0.131288
-0.00500759
0.91518
-0.627738
-0.287442
0.217507
-0.966047
-0.138217
0.0119369
-0.832142
0.223602
0.60854
0.836638
-0.252306
0.218808
-0.987719
1.21456
-0.581396
-0.633162
-0.0146279
0.123874
0.962954
-0.413002
-0.549952
-0.609489
0.111758
0.49773
-0.928845
0.928285
0.000559565
0.323601
-0.677068
0.353467
0.211969
0.0114377
-0.223407
-0.494952
0.611514
-0.116562
0.0342249
-0.209072
0.174847
-0.172946
0.0527447
-0.146039
0.0210417
-0.678002
-0.303614
0.552415
-0.793976
0.241561
0.16851
-0.295458
0.126948
0.506059
0.199304
0.529841
-0.4143
-0.00569448
0.20057
0.483366
0.353272
-0.521771
0.0524256
0.469345
0.328999
0.633956
0.430108
0.113702
0.273182
-0.104672
-0.310464
-0.0309266
0.34139
0.0172184
-0.110289
-0.617158
0.635009
-0.205241
0.263467
-0.0582256
-0.915002
0.866292
0.0487104
-0.166332
0.661608
-0.495276
-0.166896
-0.153763
0.320659
0.759208
-0.833193
0.0739848
-0.573468
-0.451151
1.0854
-0.763616
-0.321784
-0.111355
0.0991393
0.742383
-0.418781
-0.284223
0.836639
0.107619
-0.334816
0.227197
0.907346
-0.121211
-0.786135
0.957502
-0.206691
-0.750811
-0.282168
0.389787
0.853298
-0.503898
-0.3494
-0.178121
0.79531
-0.617189
0.315782
-0.525438
0.209656
-0.266421
0.0539791
0.212442
-0.198246
0.0233108
0.174935
0.976333
-0.75332
-0.223013
-0.560482
-0.478439
0.64194
0.170929
-0.821311
-0.0936909
-0.049255
0.226499
0.257949
-0.861112
0.603164
0.0041757
0.149901
-0.53932
1.10735
0.312144
0.603036
0.997377
-0.655556
-0.341821
-0.848286
0.63579
0.67065
-1.00914
0.338487
-0.625522
-0.0587279
0.68425
-0.284619
-0.177488
0.462108
0.67378
-0.020106
0.269153
0.0481081
0.306364
-0.121532
-0.465507
-0.706323
1.01362
-0.307297
-0.194486
0.0264136
-0.111444
0.0156575
0.137912
-1.06676
0.604077
-0.908966
0.190048
-0.286087
0.420347
-0.13426
-0.00380042
0.124564
-0.516449
0.316957
0.199492
0.456546
0.20223
-0.0427498
0.305121
-0.262372
0.479516
0.153576
-0.611786
0.869735
0.588072
-0.0870337
-0.230293
-0.488791
1.00484
-0.659945
-0.344896
0.957699
-0.97913
0.367511
0.611619
0.785631
-0.863515
0.0778833
-0.465278
0.352819
-0.145037
-0.0216814
-0.240158
-0.541312
0.320896
-0.576022
0.255126
0.424576
0.428722
0.622885
-0.920651
0.297766
0.264949
-0.572284
0.307335
-0.961736
0.167285
0.0174295
0.384357
-0.67258
0.782349
-0.10977
-0.231962
0.328199
-0.0962369
-0.480728
-0.0751947
-0.139458
-0.243876
0.383334
0.106015
0.000612777
-0.106628
-0.339553
-0.193867
0.362522
0.463626
-0.826148
0.918613
-0.589615
0.387683
-0.450202
-0.0150767
0.50371
-0.23876
-0.68616
-0.116857
-0.155065
0.214509
-0.0594444
0.972318
-0.358495
-0.488979
0.763865
-0.274886
-0.138044
0.164944
-0.0269001
0.674567
-0.134259
-0.321949
-0.539164
-0.518506
0.922203
-0.403697
0.575166
-0.932491
0.357325
0.422457
0.662944
-0.115677
0.101942
0.0137342
0.0893667
-0.714889
0.690129
-1.04515
0.355022
-0.215502
0.167642
-0.0927252
0.658771
-0.216752
0.82083
-0.301869
0.616286
0.160527
-0.982679
-0.777952
0.5607
0.217252
0.664653
-0.132816
-0.531837
0.93634
-0.177132
-0.428624
-0.529431
-0.479655
0.369639
0.42115
-0.39078
-0.0303703
0.324456
-0.333517
-0.745825
0.6531
0.868822
0.212752
-0.799086
0.310107
0.807701
-0.165761
0.158136
-0.218253
0.0601167
-0.0583448
-0.544443
0.602788
-0.907434
0.152179
0.755256
0.773164
-0.773164
-0.336905
0.927239
-0.590334
0.30022
-0.34297
0.597733
-0.45576
-0.141974
-0.922206
0.95141
-0.0292041
0.368082
-0.0441413
-0.323941
0.287034
-0.0982912
-0.188743
0.144141
-0.311037
0.0586992
0.569115
-0.853339
-0.802427
0.955718
-0.153291
-0.297686
0.660208
-0.0790954
0.0222972
0.0567982
-0.167864
0.216213
-0.0483495
-0.378187
0.437039
0.917545
-0.701242
-0.216303
-0.108003
-0.512478
0.620481
-0.262731
0.278057
-0.0153264
0.162222
-0.29584
0.133618
-1.06759
0.460402
0.607193
-0.111484
-0.0399755
0.217594
-0.0594578
-0.0632808
0.0249947
0.0382861
0.400424
0.575909
0.0034265
-0.0825219
-0.115926
-0.23836
0.354285
-0.51005
0.804076
-0.294026
-0.0157091
0.11875
-0.103041
0.472402
-0.275064
0.80295
-0.0863897
-0.716561
0.0400394
-0.44065
0.00946302
0.619914
0.447502
0.29327
-0.740773
0.498953
-0.407205
-0.0917487
-1.01615
0.187543
-0.416888
0.223454
0.193435
0.311247
0.498563
-0.80981
-0.637937
0.57921
0.0626052
-0.906409
0.843804
-0.158576
0.181241
-0.0916801
0.1011
-0.00941995
0.0298008
-0.340265
-0.630784
0.0713435
0.559441
-0.678129
-0.154013
0.612917
0.580673
-0.118568
-0.462105
-0.152854
0.0148103
0.148236
-0.688253
0.540017
0.139083
0.518775
-0.657858
0.255689
-0.714254
0.838908
-0.124654
-0.723777
0.545656
-0.0673634
-0.0676411
-0.418427
-0.21201
-0.285888
0.0653752
0.220513
-0.873729
0.363679
0.645632
-0.753634
0.226149
0.581552
-0.335192
0.331395
0.00379714
0.194676
-0.686462
0.491785
0.184836
-0.293073
0.108237
0.527944
-0.849892
-0.644277
-0.0556586
-0.347677
0.00197797
-0.198465
-0.147671
0.346136
0.344077
0.00805684
-0.00604738
-0.00200946
0.752684
-0.441436
-0.748659
0.975404
-0.226746
0.266544
0.20367
-0.470214
-0.371143
0.212567
-0.25035
-0.0355381
0.216409
0.381325
-0.283938
-0.746348
-0.226206
0.0711415
0.611862
0.443219
0.144853
-0.747936
0.80676
-0.0103345
-0.3705
0.380835
-0.0878388
-0.827133
0.914972
0.102759
-0.107219
0.00445986
0.310241
-0.244722
-0.204844
0.520626
0.543583
-0.418587
-0.371586
-0.144863
-0.0107379
-0.423636
0.434374
0.395765
-1.01059
-0.0369222
-0.49433
0.531252
0.0245463
-0.185908
0.161362
-0.644528
0.0308359
0.613692
0.969705
-0.670503
-0.00414961
0.103254
-0.0991045
-0.23594
-0.0267908
0.193245
0.363055
-0.5563
0.123449
-0.154545
0.0310954
0.68392
0.370263
-1.05418
-0.397286
1.13466
0.100496
0.00551882
-0.264786
-0.594876
0.859662
0.424291
0.725571
0.793392
-0.65431
-0.380502
0.241044
-0.169329
-0.0289163
-0.297254
0.967905
0.142087
-0.774799
0.632713
0.945524
-0.13457
-0.810954
-0.335424
0.649815
-0.314392
0.391333
-0.204891
-0.490754
0.695645
0.0700866
-0.0174868
-0.0525998
-0.282257
-0.488075
0.770332
0.0353505
-0.203214
0.0587332
-0.0670463
0.52869
-0.810948
-0.715094
-0.221634
0.936728
-0.0419747
-0.494286
0.536261
-0.0106017
1.05282
-1.08535
0.0325321
0.226652
-0.123581
-0.103071
-0.00128677
-0.333905
0.253859
0.259211
-0.352258
0.0676394
-0.770998
0.977513
-0.206516
0.0181823
-0.223423
0.512735
0.23679
-0.8357
-0.236276
0.00792724
-0.187999
0.180072
0.537004
-0.0937844
-0.222499
0.245008
-0.0225093
-0.181475
0.2157
-1.15016
0.530308
0.867848
0.13429
-0.10411
0.266332
-0.224367
0.490912
0.844889
-0.275774
-0.229822
0.00732277
-0.116219
-0.629606
0.29146
0.24731
-0.235166
-0.920345
0.0129108
-0.0534306
0.228718
-0.0438814
-1.00849
0.619882
0.388605
0.817616
0.153893
0.218123
-0.0785824
-0.139541
0.306135
-0.282812
-0.0233232
-0.915018
0.331995
-1.01554
0.497029
-0.258094
0.208448
0.0496461
0.0142771
-0.0987781
0.084501
0.999138
-0.0162069
-0.982931
0.178863
0.0102389
-0.189102
-0.143319
-0.280946
0.249457
-0.0323086
-0.0813197
0.0818429
-0.000523227
0.422913
-0.0553233
-0.36759
0.00981698
-0.0911367
0.836812
-0.630227
-0.0296674
-0.159664
0.189331
-0.982444
0.211446
0.0130686
0.0424844
-0.233144
0.069368
0.511305
0.0725671
-0.0782615
0.257714
0.174483
-0.432197
0.378174
-0.16837
0.355695
-0.36603
0.226276
-0.199142
0.101172
-0.333135
0.792588
-0.218226
-0.574362
0.556775
-0.0636635
-0.493112
-0.38826
-0.0953446
0.17556
0.0344248
-0.209985
0.311452
-0.43633
0.124878
1.04533
-0.0163675
-1.02896
0.187192
0.0446059
-0.231798
-0.495132
0.681952
-0.186821
0.454598
0.497616
-0.952214
0.0588361
0.222608
-0.286315
0.456961
-0.170646
0.235749
0.0953747
-0.331124
-0.728156
0.391935
0.336221
0.077298
0.00454497
-0.847221
0.132127
0.331069
-0.194984
-0.136085
0.431497
-0.603129
0.171632
-0.107367
-0.200458
0.143663
0.909159
0.815112
-0.122601
-0.692511
-0.811865
0.097611
0.326883
-0.557175
0.645931
-1.05081
0.404875
-0.114777
0.304903
-0.00444981
-0.404073
0.288147
-0.173608
0.228586
-0.097968
-0.769478
0.867446
0.406177
0.336206
-0.704384
0.749907
-0.0455222
0.131794
-0.330259
-0.58668
-0.227002
-0.130175
0.145731
-0.0155567
0.0768778
-0.280687
0.20381
0.11323
0.10439
-0.21762
-0.128949
0.560445
-0.558365
-0.216836
0.775201
-0.773075
-0.242647
1.01572
0.458829
-0.387642
-0.0711873
-0.214094
0.0214991
0.192595
0.161128
0.0687723
-0.2299
-0.939393
0.0347
0.904693
0.022083
0.210292
-0.232375
0.789094
-0.868836
0.0797421
-0.455349
0.277694
0.219812
-0.497506
0.0137918
-0.143967
-0.33076
-0.268614
0.599374
0.629255
-1.00425
-0.944784
0.828132
0.116652
0.143755
-0.0203057
0.754636
-0.2419
-0.0924858
-0.194365
0.286851
-0.010682
0.155047
-0.144365
-0.222744
0.750066
-0.527323
0.873247
-0.647582
-0.225666
0.968697
-0.927108
-0.0415887
0.748787
-0.392264
-0.356523
0.040563
-0.245791
0.205228
-0.311509
-0.0113334
-0.93096
0.824108
0.106851
0.0508148
-0.981774
-0.221283
0.679945
-0.458662
-0.500546
-0.252774
0.218487
-0.1786
-0.0398872
-0.780978
-0.201466
-0.205292
0.143514
0.0617779
0.248174
-0.100882
-0.910683
0.865929
0.0447537
-0.231098
0.119723
0.0131584
0.193512
-0.014649
-0.581856
0.0869042
0.166722
-0.184938
0.0182158
-0.308305
0.358509
-0.0502037
0.392856
-0.0247738
-0.251388
0.46197
0.212597
0.383596
0.323963
-0.0190164
-0.304946
-0.174333
0.556084
-0.643895
0.408599
0.235295
0.0814323
-0.00413429
0.748685
-0.342508
0.553082
-0.358405
-0.162295
-0.224334
0.386629
0.233915
-0.743089
0.509174
0.571767
-0.613741
0.986714
-0.433052
-0.553662
-0.00447337
-0.535535
-0.10836
-0.717541
1.00279
-0.285247
-0.0426927
-0.231985
0.870458
-1.00896
0.227984
-0.236238
-0.0301835
-0.168566
0.151027
0.134848
-0.00355965
-0.497465
-0.509605
1.12356
-0.430615
0.173711
-0.275642
0.101931
0.0518078
0.235226
-0.666448
-0.33225
0.998698
0.539963
0.133817
-0.00641313
-0.15731
0.163723
0.78674
0.131853
0.00967786
-0.141531
0.606575
0.186013
-0.351584
-0.975123
0.172696
-0.232347
0.0117678
0.220579
0.558492
0.656066
0.160585
0.147997
-0.308582
0.921229
0.0474683
0.593965
-0.837319
0.243354
-0.823328
0.000338043
0.82299
-0.785493
0.993269
-0.207776
0.154657
-0.00727912
-0.147378
-0.36212
0.991375
0.0683348
0.247872
-0.316206
0.0369058
-0.74129
0.766865
-0.242706
-0.524159
-0.864523
1.11046
-0.245932
-0.241525
0.565871
-0.324346
1.16918
-0.521807
-0.647377
0.0418928
-0.613082
0.571189
0.092837
0.00826308
-0.410425
0.865024
0.554414
-0.891318
0.902629
-0.327463
-0.196773
0.167106
-0.854509
0.0311814
0.966523
-0.343638
-0.0138315
-1.01428
0.264476
-0.0216265
0.26748
0.587828
-0.855308
0.558355
-0.153622
-0.404732
0.620964
-0.967504
0.34654
-0.154934
0.0108086
0.144126
-0.206817
-0.481546
0.688364
0.371695
-0.270523
-0.481093
0.453107
0.0279857
0.185384
0.22384
-0.409223
0.0797634
0.138724
-0.827451
0.973838
-0.146387
0.0954488
0.00731032
0.438711
0.214855
-0.653566
0.342784
0.383943
-0.726727
0.182984
0.481669
-0.0147197
0.999507
-0.00860758
0.80024
-0.791632
-0.00369383
-0.0120153
0.0936565
-0.147961
0.054304
0.628457
-0.492259
-0.136198
0.437471
0.549243
-0.0542481
0.0681674
-0.0139193
-0.260506
0.788017
-0.527511
0.000113985
0.184706
-0.18482
0.23214
-0.669704
0.437564
-0.37432
-0.183502
0.557822
0.721981
-0.066995
0.270095
0.28826
-0.28193
-0.382933
0.664863
0.298493
-0.810972
0.0781639
0.203561
-0.281725
0.19779
-0.0538047
-0.143986
0.00252005
0.0903169
-0.0685435
0.787184
-0.718641
-0.105946
0.905495
0.759036
-0.641385
-0.117651
0.644306
-0.532348
-0.531078
0.215437
0.315641
-0.101587
-0.354173
-0.195832
0.180569
0.0152637
0.0714475
0.146676
0.137096
0.734898
-0.871994
0.23391
0.189003
0.122597
-0.895673
-0.482914
0.170447
0.312467
-0.341595
-0.238621
0.580216
0.506277
-0.248563
-0.848138
0.550451
0.381704
-0.34341
-0.0382946
-0.57179
0.824084
-0.252294
-0.425551
0.46559
-0.515289
0.603125
-0.0878362
-0.704989
0.984285
-0.279296
-0.0230507
0.222671
-0.19962
0.14686
-0.132583
-0.408561
-0.648234
0.993535
-0.345301
-0.538438
0.697118
0.493194
-0.52456
0.0313658
-0.0568874
-0.202154
0.259041
-0.98485
0.675809
0.30904
0.00398955
-0.0883874
0.0843978
0.00180684
0.526704
-0.749448
0.675253
-0.441337
-0.183567
-0.594385
-0.691808
0.6832
0.464251
0.0562254
0.290757
0.206153
-0.49691
-0.345748
0.323688
0.0220592
0.149082
-0.197808
0.0487258
0.235868
-0.432433
0.196565
-0.397592
0.510603
-0.113011
-0.733003
-0.133568
0.866572
0.189149
-0.246036
0.409494
0.218963
-0.979726
0.707108
0.272619
0.221651
0.0797704
-0.301422
0.00444986
0.200914
-0.251876
0.0509616
-0.643304
-0.20526
0.441127
0.148244
0.213343
-0.17278
0.232451
-0.155573
0.283573
-0.476311
0.0327993
0.290628
0.170869
-0.473618
0.302748
-0.546006
-0.446043
0.992049
0.185717
-0.467646
-0.519701
-0.0382495
0.55795
0.124062
0.202253
-0.326314
0.0158385
1.13605
-0.749022
-0.38703
0.149453
0.665659
-0.0110222
0.481087
-0.319505
-0.161582
-0.280379
0.608654
-0.328275
-0.571205
-0.181286
0.752491
-0.4687
0.182385
-0.360389
-0.170689
1.09173
-0.411395
-0.680338
-0.239247
0.0311331
0.208114
0.345957
0.0919693
-0.437926
-0.182726
0.204809
0.0398436
0.259014
-0.298857
-0.0738065
-0.024449
-0.220037
-0.00838675
0.625284
0.466448
-0.504495
0.937646
-0.235164
0.833665
-0.238532
-0.000715288
-0.804328
0.233123
0.704054
-0.614687
-0.125528
-0.635351
0.140219
0.428067
-0.64935
0.636543
-0.694888
0.814151
-0.0285195
-0.197491
-0.127723
-0.227622
-0.117857
0.345479
-0.310856
-0.0330467
0.714268
0.128748
-0.843016
-0.00610522
-0.248674
0.254779
-0.0428871
0.38761
-0.994019
0.606409
0.834394
-0.0452999
-0.885141
0.909386
-0.0242444
0.208523
-0.156739
-0.867114
-0.117736
-0.320108
0.848916
-0.0248078
0.273099
0.972371
-0.387584
-0.584788
-0.561138
-0.0740325
0.63517
0.0482096
0.462614
-0.510824
-0.694368
0.0498393
-0.204775
-0.092763
0.297538
-0.475997
0.618083
0.170361
0.483794
-0.654155
-0.386095
0.0213329
0.364762
-0.850995
0.0636713
0.787324
0.11687
0.558383
-0.251041
0.435505
0.313282
-0.239667
-0.177221
0.695436
-0.827699
0.126427
-0.363593
0.237166
-0.242373
0.301209
0.670751
0.0334777
-0.704228
0.602683
-0.837848
-0.0408001
0.252769
-0.201103
0.513877
-0.312774
-0.578497
0.247737
-0.0192101
0.29087
-0.27166
0.194682
0.0567946
-0.251477
0.226563
0.0836786
-0.262553
0.589436
-0.0419055
-0.216189
-0.163272
0.177064
0.316711
-0.182801
0.19305
-0.181612
-0.200519
0.192473
0.00804513
0.214856
-0.238486
0.0236301
-0.71875
0.599146
0.0707003
-0.590401
-0.0223758
-0.288835
-0.00864914
0.56036
-0.551711
0.332858
-0.363785
0.309014
-0.620129
0.311115
-0.468219
0.764377
-0.296159
0.268954
-0.975276
0.198919
-0.0285302
-0.916254
0.420876
0.702687
-0.739315
-0.108823
-0.653436
-0.325694
-0.42626
0.182384
-0.136025
-0.0524934
0.188518
1.09117
-0.532681
0.917456
-0.227327
-0.230886
-0.163701
0.394587
-0.88559
0.361124
0.524466
0.270355
0.0514313
-0.193918
0.471612
0.16892
-0.0935096
-0.549264
0.283896
-0.215561
0.0143257
0.253971
-0.268297
-0.105532
0.8198
0.171335
-0.235488
0.0641533
0.895454
-1.10352
0.517223
0.586301
0.203206
0.237708
-0.440914
0.667723
-0.503485
-0.164238
-0.532184
0.290659
-0.21854
-0.0376171
0.383574
0.882689
-0.970528
0.415495
-0.179746
-0.377826
0.676319
-1.03227
0.735634
0.296634
0.262539
-0.705087
0.442548
-0.686084
0.731431
-0.0453468
0.342307
-0.51664
0.0139048
0.179784
0.279044
-0.0513461
-0.65145
0.229344
-0.940845
0.353477
0.587368
0.244232
-0.805369
0.729682
-0.0193958
-0.590093
0.118224
0.648297
1.00715
-0.338106
-0.669043
-0.36657
0.255466
-0.597061
0.166836
-0.901113
0.827081
-0.573671
0.36878
0.465107
-0.816958
0.578014
0.238944
-0.940803
0.611406
0.329397
-0.361346
-0.132189
0.156735
-0.94529
0.687342
0.257948
0.607707
-0.969827
-0.807808
-0.0196434
1.0494
-0.403465
0.64448
-0.158908
-0.485572
-0.0235796
-0.147038
0.170618
0.135842
0.47425
0.51789
-0.651838
-0.16512
0.14601
0.225685
0.195224
0.36173
-0.556954
0.389878
-0.224455
-0.0544447
-0.902356
0.956801
-0.357084
0.294508
-0.729948
-0.575021
-0.384717
0.959738
0.250013
-0.328096
-0.675601
0.218565
0.457036
0.0064762
0.0381264
-0.0446026
0.874935
-0.972903
0.290173
-0.491276
0.52212
0.145747
-0.667867
0.262622
-0.0889106
-0.79181
0.233616
0.558194
-0.574064
0.199744
0.319856
-0.600235
0.389473
-0.263046
0.0127576
-0.00628139
-0.0356915
0.981216
-0.577676
0.734901
-0.157226
0.956118
0.00407214
-0.96019
-0.617075
0.0112444
-0.297331
0.0477107
0.725453
0.134093
0.0308507
0.151112
0.0306179
0.269602
0.49853
0.00529198
0.14379
-0.847998
-0.0626846
-0.876416
0.426539
-0.839542
0.180009
0.18469
-0.364698
0.875173
0.0514831
-0.926656
-0.111849
0.10457
-0.322145
-0.69339
-0.747125
-0.116389
-0.272378
0.875061
-0.320591
0.459328
-0.138737
-0.803083
0.257077
-0.289302
0.484526
-0.416201
-0.592287
-0.24479
-0.252516
0.356289
-0.439579
0.131274
0.986664
-0.137748
0.65885
-0.499299
-0.159551
0.104663
0.163167
0.266289
0.963661
-0.901056
-0.0285768
-0.220678
0.328744
-0.4635
0.515925
-0.455254
-0.543075
0.214449
0.176271
-0.390721
-0.802666
0.0295019
-0.116541
0.728728
-0.612187
-0.10804
-0.777102
-0.649078
0.688774
1.06783
-0.475972
-0.591861
-0.0822736
0.305727
0.764601
-0.322633
-0.441968
0.2646
-0.289049
-0.101063
0.19472
-0.170668
0.00351763
0.16715
-0.18555
0.476308
-0.380662
0.988369
-0.0143423
-0.164258
-0.263347
-0.0971259
0.360473
0.00749045
0.867445
0.26614
0.0736736
-0.339814
-0.362144
0.55539
0.378051
0.409966
-0.384046
-0.0988675
0.51567
-0.187481
-0.328189
-0.044111
0.165146
-0.121035
0.0326087
-0.672201
0.639592
-0.877119
0.129994
0.216292
-0.432015
0.858554
-0.00599287
0.270593
0.139403
-0.459994
-0.989682
0.510027
-0.846549
0.298132
-0.444975
0.0667875
-0.3335
-0.558056
0.891556
-0.960621
-0.00409253
-0.187773
0.191866
0.757272
-0.584335
0.578211
-0.530002
0.133104
0.512373
-0.645476
0.150486
-0.35526
-0.661957
-0.28163
0.943587
-0.0530378
0.17225
-0.119212
-0.42865
0.749674
-0.321024
0.762858
-0.588937
-0.173921
0.831438
0.0229521
-0.85439
-0.439986
-0.663537
-0.306642
-0.0410353
0.372382
0.652545
-0.00904285
0.100599
-0.091556
-0.625803
-0.166007
0.619609
0.536029
-0.503015
0.624418
-0.121403
0.176915
-0.167237
0.317865
0.294076
-0.611941
-0.0558457
0.22718
-0.0860478
-0.859242
-0.93651
0.451344
-0.06964
-0.12146
0.245959
0.0623581
0.698517
-0.760875
-0.502263
-0.0795935
0.617261
0.301352
0.0711151
-0.250222
0.464075
-0.453702
-0.0103733
0.0674126
-0.353606
0.286194
0.549955
0.111653
0.273803
0.796026
-0.371449
0.783698
-0.48919
-0.118897
-0.24278
0.361677
0.707457
0.0878531
0.0124437
-0.648985
0.442168
0.70854
-0.70105
-0.379284
-0.369837
0.749121
-0.513613
-0.371977
-0.869085
0.891005
-0.0219197
-0.120103
-0.353413
0.235556
0.53041
0.265616
0.0657865
-0.24762
0.181834
-0.312883
-0.668682
-0.198056
-0.685836
0.883892
0.671305
-0.131342
-0.228035
0.306199
0.548489
-0.870634
0.406452
-0.362522
-0.417098
0.93332
-0.516222
0.320035
0.41641
0.327744
-0.744154
0.876998
-0.547341
-0.329657
-0.343677
-0.621107
0.89997
-0.278862
0.515464
0.143386
-0.282385
0.276392
0.405756
0.763429
-0.212929
0.189349
0.0510034
-0.0429466
0.900578
-0.506754
0.427583
0.66359
-0.400858
0.21779
0.183068
0.252696
-0.414991
0.701233
-0.0304825
0.610769
0.0337111
-0.638934
-0.0392818
0.678216
0.186163
-0.0226835
-0.163479
0.156377
0.0702748
0.144226
-0.929719
-0.277776
0.307576
0.648696
-0.574504
-0.0741922
0.15568
0.35999
-0.153397
0.074815
0.247905
0.225056
-0.472961
-0.367656
0.708558
-0.0720814
-0.402943
0.938642
-0.535698
-0.218881
0.404265
-0.0529037
-0.333191
1.01137
-0.4967
-0.324611
0.527862
0.139861
0.296717
-0.319092
-0.166915
0.143864
-0.279763
-0.143605
-0.00924932
0.360081
-0.146458
0.763695
-0.617237
0.0211828
-0.0844636
-0.309661
0.115296
-0.328047
0.0214057
-0.884077
0.61929
0.233329
0.223632
0.138751
-0.289445
0.150694
0.212934
0.0922737
0.725657
0.419916
-1.14557
-0.111098
-0.0128882
0.123986
0.0140871
-0.762746
0.716646
0.351187
0.73159
-0.669231
-0.918361
-0.0390145
-0.145174
-0.459339
0.423959
0.561356
0.317036
-0.878392
0.372384
-0.0395263
-0.0252781
-0.300713
-0.100146
-0.549939
-0.478119
0.376532
0.356253
0.619151
0.546676
-0.508199
-0.0384771
0.185196
0.00727728
-0.0559147
0.246085
-0.031229
0.701608
0.210037
-0.911646
-0.30431
0.318636
-0.224673
0.139144
0.0855281
-0.332984
-0.00035685
0.333341
0.385002
0.272286
-0.657288
0.217068
0.289209
0.635657
-0.0144359
-0.259434
0.339639
-0.309022
-0.12475
0.157453
-0.0327029
-0.892122
0.506218
0.772238
-0.614501
-0.157737
0.0139012
-0.136549
0.122648
0.794684
-0.863228
0.575494
0.0958104
0.164537
0.413674
-0.136979
-0.00662591
0.244066
-0.285511
0.0414453
-0.464821
-0.121106
0.992282
-0.513171
-0.479112
0.779342
-0.285742
-0.4936
0.394823
-0.665118
0.270294
0.0348067
0.492009
0.0117007
-0.0260708
0.437738
-0.411667
-0.0294879
0.273553
-0.362465
-0.198979
-0.0365092
0.790376
0.00530025
-0.795677
-0.407165
0.397057
-0.226188
0.0682743
-0.000106965
0.105035
0.408841
-0.248002
0.361231
0.0284212
0.00852185
-0.0964432
0.141685
-0.364998
0.498102
0.0126533
0.234657
0.0732952
-0.182202
0.688261
0.0109731
0.535703
-0.139793
-0.120141
-0.224025
0.47193
-0.167722
0.681192
-0.513469
-0.72235
-0.124871
-0.30172
0.716286
-0.414566
0.0562383
-0.255217
0.3013
-0.0605814
-0.0199154
-0.231032
0.250948
-0.749743
0.253043
0.126674
-0.130823
0.437842
-1.10429
0.30182
-0.896696
-0.261287
0.521216
-0.300912
0.485343
-0.260287
0.012661
-0.582929
0.615538
0.000792987
-0.149448
0.0819669
-0.469608
-0.11771
-0.538244
0.655954
0.22663
0.286417
1.06713
-0.700433
-0.366693
-0.21181
0.0696531
0.212269
0.0212866
-0.233555
-0.726993
0.149318
0.189429
0.0083615
-0.00500181
-0.125029
0.130031
0.436996
-0.738716
0.0643901
0.401211
0.0483837
-0.449595
-0.75967
0.591947
0.139116
0.0369995
-0.176116
0.339504
-0.987738
-0.142145
0.000810184
0.141335
0.178597
-0.0394809
0.0163249
0.664082
-0.481098
0.548412
0.470797
-0.253729
-0.811277
0.236255
-0.597173
0.497259
0.0999145
0.36081
-0.740094
-0.454131
-0.274236
0.728366
0.0450391
0.388864
-0.283968
0.239826
0.923665
-0.104085
-0.819581
0.00129531
-0.849294
0.750357
0.0810812
0.455232
0.309369
-0.15653
-0.00077993
0.139205
-0.250937
-0.325086
0.0859071
-0.0190399
-0.0668673
0.0319281
-0.815474
0.783546
-0.0602407
0.290386
-0.230145
0.267746
-0.840704
0.572959
-0.0565759
-0.508576
-0.0256482
0.0798598
0.587513
-0.312643
-0.181531
0.494174
-0.348204
-0.329925
0.416109
-0.239838
-0.238
0.0321543
0.205846
-0.150092
0.288842
-0.860013
-0.105857
-0.0579388
0.163796
0.173699
0.242451
-0.41615
0.574501
-0.890226
0.315725
0.0555291
-0.510218
0.136579
-1.0011
-0.445899
-0.547633
0.993532
-0.834693
0.0264015
0.808292
-0.989624
-0.708813
0.0227286
-0.268111
0.273524
-0.00541332
-0.867973
-0.308876
1.01048
0.354319
-0.179835
0.0841037
-0.308129
-0.151799
0.441008
0.144819
0.0959937
-0.359341
0.0151756
-0.121366
0.10619
-0.176285
0.022504
-0.0802621
0.0941633
-0.271426
0.474631
-0.973499
0.614517
0.358982
-0.0280968
0.29725
0.517606
0.197894
-0.011731
-0.182883
0.248669
-0.427961
-0.24764
-0.497504
0.175401
0.322103
-0.0250691
-0.176557
0.201627
-0.389713
0.457125
-0.088074
0.648477
0.523094
-0.256954
0.42959
-0.777794
0.413203
-0.496881
0.0836788
0.112573
-0.00931922
0.106379
-0.00443691
-0.882086
0.548586
0.317828
0.461513
0.014031
-0.186697
0.172666
-1.12616
0.454355
-0.172346
0.222491
-0.180428
-0.0151275
-0.207511
0.222638
-0.512101
0.199458
-0.915951
0.829903
0.766312
-0.244192
-0.189714
0.171506
0.0182075
-0.164865
-0.0231338
-0.147147
-0.985471
0.401986
0.583485
-0.139286
0.126398
-0.0729515
0.304334
-0.231382
0.574887
0.000607244
-0.022389
-0.166903
0.189292
-0.25037
0.263023
-0.052015
-0.163487
0.598782
-0.826199
0.878521
0.0427074
-0.515692
-0.292785
0.844093
-0.04368
-0.800413