/*--------------------------------*- C++ -*----------------------------------*\
| =========                 |                                                 |
| \\      /  F ield         | OpenFOAM: The Open Source CFD Toolbox           |
|  \\    /   O peration     | Version:  2306                                  |
|   \\  /    A nd           | Website:  www.openfoam.com                      |
|    \\/     M anipulation  |                                                 |
\*---------------------------------------------------------------------------*/
FoamFile
{
    version     2.0;
    format      ascii;
    arch        "LSB;label=32;scalar=64";
    class       volVectorField;
    location    "1.25";
    object      U;
}
// * * * * * * * * * * * * * * * * * * * * * * * * * * * * * * * * * * * * * //

dimensions      [0 1 -1 0 0 0 0];

internalField   nonuniform List<vector> 
13486
(
(1.56042 -0.313116 5.46138e-19)
(1.72029 0.169048 2.59784e-19)
(2.09395 0.0263136 0)
(1.12513 -0.635122 -2.1449e-19)
(2.51998 -0.481544 1.53223e-19)
(2.27865 0.0531985 -1.02965e-20)
(2.82005 -0.255637 4.45609e-21)
(2.14153 -0.767887 -2.77977e-19)
(2.02804 -0.41786 0)
(2.05571 0.51748 0)
(1.76729 -0.806836 -1.25924e-19)
(2.25238 0.060395 0)
(1.44193 -0.509298 -5.40483e-19)
(2.41956 0.383471 1.57003e-20)
(2.60355 -0.181768 8.33165e-20)
(2.01589 0.517303 -1.62919e-19)
(0.809608 -0.531781 1.33488e-19)
(1.52096 0.703122 3.08998e-20)
(2.25597 0.0460974 3.04087e-21)
(1.70891 -0.151832 -5.55181e-19)
(1.34695 -0.868401 -7.88402e-20)
(1.45864 -0.521082 6.98162e-19)
(1.7459 0.164379 -2.07559e-19)
(1.95086 -0.335326 0)
(2.08016 0.401681 5.49205e-20)
(1.95523 -0.300016 -2.54505e-20)
(0.977584 -0.480425 1.38944e-19)
(2.04352 -0.056949 8.96106e-20)
(2.00574 0.0277267 0)
(1.97127 -0.111915 -3.70081e-20)
(1.12555 -0.730397 -5.43639e-20)
(2.53178 0.126007 -1.18815e-19)
(2.18412 -0.246764 9.45803e-20)
(2.00408 0.0136043 0)
(2.14956 -0.739436 0)
(2.01574 -0.0290617 1.31125e-22)
(1.99996 0.0295255 4.65392e-20)
(1.6778 -0.784982 2.75668e-19)
(1.93512 0.0172928 9.68543e-21)
(2.02097 -0.256079 2.79333e-19)
(2.76822 -0.873562 0)
(1.02419 -0.509269 -6.26751e-19)
(2.11303 0.0362766 0)
(2.07226 0.315717 -2.6374e-19)
(2.08523 0.324772 1.08754e-19)
(2.22014 0.0537817 1.11218e-19)
(2.00666 -1.41713 6.01758e-19)
(2.03111 -0.011975 -7.14694e-21)
(2.01002 0.0292238 -3.50311e-20)
(2.29296 -0.0241481 4.32104e-20)
(1.96413 0.00865428 3.3285e-19)
(1.95628 0.0300665 0)
(2.23704 0.159102 -1.70476e-19)
(1.77294 -0.667864 -4.02927e-19)
(1.42887 0.466662 0)
(2.48772 -0.48845 -1.07456e-19)
(2.02805 -0.00361446 -1.82536e-20)
(1.94551 0.0141777 3.4131e-20)
(2.17022 -0.246262 1.0436e-19)
(1.96259 -0.0400822 0)
(1.75731 -0.764267 -1.27546e-19)
(2.04829 0.0264207 0)
(2.49176 -0.643523 -1.947e-19)
(1.31027 -0.865636 -1.02428e-21)
(1.6452 -0.310363 0)
(2.00208 0.0272654 2.31393e-20)
(1.12876 -0.605026 -1.91766e-19)
(1.53012 -0.0609114 1.85068e-19)
(2.03432 -0.441861 -1.5907e-19)
(1.99185 -0.0144913 -1.68113e-20)
(0.960944 -0.500909 2.20067e-19)
(1.47773 0.520371 3.87671e-21)
(2.00443 -0.150923 2.09699e-19)
(1.25407 0.146032 -1.51849e-18)
(1.99552 0.0297126 4.43902e-21)
(2.00162 0.0137846 4.74758e-21)
(2.00879 0.0603234 -1.71229e-20)
(2.62572 -0.207355 -3.3655e-20)
(1.87003 -1.28393 -2.31283e-19)
(1.85342 0.0485994 0)
(1.94785 0.0144073 5.86515e-21)
(1.68479 0.236646 -1.65492e-20)
(2.44352 -0.738486 -1.9682e-20)
(2.07534 0.00510042 -1.95885e-20)
(1.55347 -0.32652 -1.06975e-18)
(1.52465 1.36966 0)
(1.95899 0.11739 5.02049e-20)
(1.97091 0.0238631 -5.00662e-19)
(1.91355 0.131548 -2.14107e-19)
(1.95935 0.738722 -1.79521e-19)
(2.42187 0.268672 -7.29729e-20)
(2.26977 -0.637781 -1.4362e-19)
(1.62111 -0.398766 1.40964e-19)
(1.71955 0.00152538 1.44586e-20)
(1.97201 -0.623983 6.43005e-20)
(2.02835 0.034404 1.79059e-21)
(1.11915 -0.547326 0)
(1.45207 -0.765568 8.27182e-20)
(2.02507 -0.244921 -5.3366e-19)
(1.10019 -0.746528 4.84084e-21)
(2.05219 0.0350717 0)
(2.38915 0.3902 1.98822e-21)
(1.47041 -0.763155 -3.12352e-21)
(1.96892 0.00952512 -3.94937e-20)
(1.47825 1.30458 0)
(1.15448 -0.863977 7.24168e-21)
(1.95587 0.0479095 2.42238e-21)
(1.95085 0.0316259 2.06508e-20)
(1.9144 -1.33615 3.38672e-19)
(2.07384 -0.935299 0)
(1.5215 -0.725534 0)
(2.78192 0.0887302 -6.12961e-20)
(1.77932 -0.64945 3.00276e-21)
(2.02702 0.00298233 1.69804e-21)
(1.23022 -0.175227 0)
(1.45534 -0.715918 -2.39204e-19)
(2.08262 0.408987 0)
(2.01764 -0.00613128 0)
(1.98213 -0.133863 0)
(2.00932 0.023651 2.16559e-20)
(1.60624 0.655223 -3.49049e-20)
(1.74472 -0.774664 0)
(1.93425 -0.571845 0)
(1.94001 0.0141551 -2.9502e-20)
(2.03019 -0.718313 0)
(1.97978 0.0300328 0)
(2.26642 -0.233246 6.11961e-21)
(2.16273 0.053382 1.21308e-19)
(2.01128 0.0253532 -2.03784e-21)
(1.64605 -0.230446 -8.91333e-21)
(1.9564 0.00602993 3.62962e-21)
(2.04649 -1.45813 -1.52445e-19)
(4.07865 -1.14572 1.51698e-18)
(-0.505558 0.899587 1.41714e-18)
(1.94725 0.0114955 -5.4988e-20)
(1.95957 0.285419 -2.39569e-19)
(0.862965 0.539656 -1.61398e-19)
(2.08031 -0.921441 0)
(2.00522 0.0165231 -6.72263e-21)
(2.15114 -0.609158 -1.00742e-19)
(2.24102 -0.179788 -1.07461e-19)
(2.24628 0.181093 1.44413e-19)
(2.37073 0.138806 0)
(1.87556 0.0475661 0)
(2.08703 -0.0169356 7.36769e-21)
(2.17689 -0.613985 -2.04234e-19)
(2.06385 0.12661 -3.61343e-20)
(0.468558 1.31258 0)
(2.2303 -0.0886674 0)
(2.00453 -0.0509921 0)
(1.98983 0.0140542 5.43309e-21)
(2.65226 -0.317252 0)
(1.98345 0.0169931 -6.15674e-21)
(1.66461 0.238187 -1.40809e-19)
(2.17405 0.178646 0)
(2.05081 0.0135712 0)
(1.92434 -0.875897 0)
(1.27058 -0.871635 2.11304e-20)
(1.87864 -0.7555 5.72573e-19)
(2.00782 0.0496584 6.34226e-20)
(2.2207 -0.0451859 1.90125e-20)
(1.88394 -0.734729 -8.69745e-19)
(2.49452 0.577579 2.97763e-20)
(0.915562 -0.439859 2.75692e-19)
(1.97967 0.0195534 0)
(2.49874 0.316027 -5.11158e-20)
(2.34265 0.368415 3.05177e-20)
(0.652617 -0.260784 -6.77968e-19)
(2.05271 0.108388 9.42998e-20)
(-0.645014 1.1252 3.96461e-19)
(4.04791 -1.18972 -2.98382e-20)
(2.15195 0.179138 9.4844e-20)
(2.0037 0.0114404 -4.04118e-19)
(2.34985 -0.0968673 9.22699e-21)
(2.02801 0.00315979 2.71066e-21)
(1.5769 -0.651852 0)
(2.52341 0.655165 8.71199e-20)
(2.27096 -0.23102 1.62049e-19)
(1.98013 0.0338717 -5.37535e-19)
(2.32018 0.123319 0)
(2.08561 -0.30801 5.62802e-19)
(2.02752 0.0133149 3.95536e-21)
(2.39473 -0.0243753 -4.72228e-21)
(0.878852 -0.433717 0)
(2.06669 0.0678547 5.53654e-20)
(2.03801 -0.0589797 -4.08672e-20)
(2.01077 0.00323835 -1.11536e-21)
(1.98608 -0.0754655 -1.04051e-20)
(2.76042 -0.833325 0)
(1.30543 -0.629385 -3.08161e-19)
(1.99896 0.024611 0)
(2.01253 0.0259092 0)
(1.91837 -0.00328317 0)
(1.43816 0.63622 -2.98917e-19)
(1.89081 0.0338013 0)
(1.75829 -0.818178 -3.47678e-20)
(1.6527 -0.258446 1.98313e-20)
(2.25063 -0.0147795 1.35947e-20)
(1.2901 -0.63517 -1.19972e-19)
(2.45196 0.301055 -1.86481e-20)
(1.12592 -0.671242 5.12584e-20)
(2.14355 0.0361684 -3.94074e-21)
(1.58021 -0.759238 -3.18862e-19)
(2.05315 -0.877775 2.86484e-20)
(1.9823 0.0568454 -7.65707e-20)
(1.95487 0.00336683 2.05751e-20)
(0.910621 0.685026 -5.0887e-20)
(1.90315 -0.0940458 4.2388e-19)
(1.98181 -0.00244319 0)
(2.1086 0.0428756 0)
(2.00976 -0.0268409 4.4411e-20)
(1.86769 -0.282455 3.35361e-20)
(1.7219 -0.121084 5.08072e-19)
(1.92047 0.0511703 -1.29549e-22)
(2.28203 0.0478442 1.18667e-20)
(1.84497 -0.0106229 -2.23557e-21)
(1.9685 -0.106542 0)
(1.95862 0.732695 4.57034e-19)
(1.70213 -0.41876 0)
(2.82829 -0.126538 0)
(0.887142 -0.660333 -2.6426e-19)
(2.29126 -0.0667066 0)
(2.13085 -0.6057 2.33637e-19)
(2.25602 -0.024027 0)
(2.18918 0.203583 -3.01149e-20)
(1.44296 -0.677796 1.94776e-19)
(2.37442 0.063697 -1.38454e-21)
(1.36958 -0.583104 1.97989e-20)
(1.87425 -0.00545043 2.05479e-21)
(1.95785 0.118372 -2.68006e-21)
(2.08329 -0.306098 -1.81204e-19)
(1.92883 -0.26547 2.57093e-19)
(2.23532 -0.19685 1.35392e-19)
(1.0546 -0.514662 2.14569e-19)
(1.42486 -0.76317 0)
(1.24923 -0.605672 2.31089e-20)
(1.96184 -0.00259741 1.74912e-20)
(2.01701 0.0361775 -1.38459e-20)
(1.10176 -0.532237 6.23383e-19)
(2.32453 0.00652068 0)
(2.15107 -0.265433 0)
(2.04683 -0.00650947 6.19014e-19)
(2.02161 0.00816437 0)
(1.1054 -0.550201 2.0896e-19)
(1.95365 0.0575201 2.59757e-20)
(1.85696 0.0157826 0)
(2.27627 -0.0111719 -4.26756e-20)
(1.96258 -0.209749 8.09236e-20)
(-2.14299 1.48245 3.11007e-18)
(2.04298 0.321932 0)
(1.56261 -0.76192 -3.42383e-20)
(1.19636 -0.149673 7.92356e-20)
(1.24602 -0.609206 3.01885e-19)
(1.94137 0.0360575 0)
(1.89324 0.0128364 -9.54785e-21)
(1.61347 -0.660715 1.58014e-20)
(2.52548 0.133364 9.88391e-20)
(1.79645 -0.0298596 2.82569e-21)
(1.24572 -0.73253 -2.23058e-20)
(2.12254 -0.258635 6.38047e-20)
(1.81422 0.120634 0)
(1.97007 0.0326637 -1.04313e-21)
(2.60254 -0.188432 -1.97891e-19)
(1.60872 -0.662155 -1.97099e-20)
(2.42569 -0.753826 -1.58174e-19)
(1.04757 -0.514473 0)
(1.87719 -0.00256984 1.04757e-20)
(1.22785 -0.743634 -7.9012e-20)
(2.08629 -0.0756905 -2.51214e-19)
(1.88025 0.365803 0)
(1.65103 0.70517 2.11134e-19)
(1.95771 0.032959 -1.44219e-19)
(2.01623 -0.110156 0)
(2.19592 0.120854 9.42907e-20)
(1.38175 -0.662325 2.58514e-19)
(1.9477 -0.207121 -4.51524e-20)
(1.90818 0.00891509 0)
(1.47785 0.0477414 0)
(1.94799 0.0508596 2.13427e-20)
(2.08008 0.133792 6.96656e-20)
(1.51001 0.0320748 -2.30416e-20)
(2.15122 -0.175987 -2.05862e-19)
(1.89561 0.0646431 3.14891e-19)
(2.00225 -0.480932 -6.44983e-20)
(1.72254 -0.782559 1.54259e-19)
(1.4601 -0.768073 2.49587e-19)
(2.26883 -0.18868 1.35553e-19)
(1.96935 0.0295887 2.67279e-21)
(2.15476 0.172104 4.98259e-20)
(1.98433 -0.0474685 0)
(1.41094 -0.781441 0)
(2.00769 0.0617281 -2.82297e-20)
(1.48726 -0.714189 2.35926e-19)
(1.99099 -0.00750326 -5.37512e-20)
(1.97058 -0.0672342 1.10403e-20)
(1.98016 -0.0396862 0)
(2.16718 -0.04791 -2.97835e-20)
(2.21851 0.0924682 -8.0569e-20)
(1.97556 0.0385587 -2.87096e-19)
(2.83928 -0.462089 1.42802e-20)
(2.4442 0.599875 -3.42883e-20)
(0.991413 0.640194 9.94861e-21)
(2.06583 0.126629 -5.98974e-20)
(2.54218 0.0956568 1.14525e-19)
(1.99666 0.0175163 -7.85655e-21)
(1.71224 -0.782383 0)
(0.808508 -0.218446 0)
(2.21471 -0.0389956 8.26999e-20)
(1.97481 0.110299 -3.94857e-20)
(1.99752 0.032622 0)
(2.7967 1.60674 -2.25723e-18)
(1.00009 -0.547919 0)
(2.4219 0.668166 -8.74987e-21)
(2.75887 0.0992971 -6.987e-20)
(1.90352 -0.692541 0)
(1.93844 0.274489 -1.47829e-19)
(2.01039 0.0291196 4.11086e-20)
(1.91308 0.102963 -1.81834e-20)
(1.91984 -0.0840156 -4.67814e-19)
(1.88729 -0.0304844 0)
(2.00975 0.0188407 -4.23368e-20)
(1.99127 0.0603139 6.19041e-22)
(1.97636 0.029551 6.77124e-20)
(1.70722 0.0355074 -2.7064e-19)
(0.945029 0.508194 2.95233e-19)
(2.44404 0.252794 1.45968e-19)
(2.36904 -0.323654 -5.53286e-19)
(2.17381 -0.171866 0)
(2.12771 0.0765978 2.07022e-21)
(2.41569 -0.320002 -9.73379e-20)
(2.00692 0.0366469 7.25954e-19)
(2.30482 -0.639413 0)
(2.4056 0.33567 -3.29211e-20)
(1.55817 0.234079 0)
(2.82856 -0.280094 -7.76087e-20)
(2.04023 -0.580502 -1.75154e-19)
(0.841426 -0.403021 2.55768e-19)
(2.62848 -0.35236 -1.27726e-19)
(2.06586 0.146055 0)
(1.97258 0.0530903 4.04868e-20)
(1.93015 -0.0191719 -6.772e-21)
(1.70375 0.0504135 2.55571e-19)
(2.42998 -0.31801 3.86892e-19)
(2.38784 -0.0126928 1.94226e-19)
(1.6276 -0.781457 -1.11619e-19)
(2.01388 -0.00245642 4.65323e-21)
(2.24304 -0.123192 0)
(1.20723 -0.4653 6.18817e-19)
(2.79771 -0.152241 0)
(1.98999 0.0153384 -1.1983e-21)
(2.19614 -0.0473017 3.41296e-19)
(2.14422 0.117635 -8.7747e-20)
(2.23016 0.118338 7.80834e-20)
(1.07174 -0.524372 -1.57752e-19)
(1.92078 0.04986 3.58954e-19)
(1.99545 0.00302458 0)
(1.62886 0.194471 -1.21216e-18)
(2.2748 -0.228336 -1.20156e-19)
(1.97057 0.102336 2.15833e-20)
(1.85753 -0.254267 3.10823e-20)
(2.26201 0.0324248 0)
(2.34249 0.288915 1.08649e-19)
(1.82628 0.0753061 5.47107e-19)
(1.99542 0.083289 4.3927e-19)
(1.97865 -0.125032 0)
(2.01885 -0.011615 -3.31272e-22)
(1.99173 -0.0590013 -1.64278e-20)
(2.23749 -1.59307 1.12277e-19)
(1.68478 -0.152195 7.04708e-20)
(2.24994 -0.193744 1.14217e-19)
(1.9931 0.00825642 -6.09353e-21)
(2.27856 -0.160362 0)
(2.14497 0.181052 -1.17956e-19)
(1.58451 -0.76389 3.30666e-20)
(2.3096 0.158075 -1.34682e-20)
(2.07916 0.0109906 2.84862e-19)
(1.49892 0.0187323 0)
(1.98842 0.0475431 4.95909e-20)
(1.91182 -0.674551 0)
(3.45361 0.0106875 -3.17451e-19)
(2.01682 0.00393536 0)
(2.3083 -0.743771 -6.31206e-21)
(1.46024 -0.225957 -1.50699e-19)
(1.64789 0.646683 5.03687e-19)
(2.17537 -1.53977 -4.25151e-19)
(1.88055 0.0219031 0)
(2.23886 0.0313717 -9.67082e-20)
(2.0682 0.155709 -1.63069e-19)
(-0.755071 -0.146151 -3.54869e-19)
(1.06782 -0.926067 1.3533e-20)
(1.72016 -0.128881 -7.67174e-19)
(2.02304 -0.115096 2.19701e-20)
(2.10828 0.142288 1.17005e-19)
(1.60986 -0.534507 0)
(1.49244 0.172134 2.9206e-19)
(2.00822 0.00734769 1.94334e-20)
(1.05611 -0.575294 1.22864e-19)
(1.5757 -0.763842 -1.1523e-19)
(-0.0576127 -0.485153 -3.46049e-19)
(2.25389 -0.194444 0)
(-0.443452 -0.458156 0)
(2.14151 0.85331 0)
(2.07699 -0.0687533 0)
(0.943002 -0.317289 -1.20337e-19)
(2.80763 -0.21946 0)
(2.0167 0.179512 0)
(1.73623 0.0202304 1.05156e-19)
(2.25416 -0.228862 -1.67407e-19)
(2.26043 -0.136437 -2.77629e-19)
(1.77422 0.217108 8.82978e-19)
(2.00135 0.0345331 -8.74115e-20)
(2.58564 1.34121 0)
(2.05817 -0.116713 0)
(1.9154 0.044629 3.07598e-19)
(2.00861 0.00236444 5.62156e-20)
(1.45543 0.677565 0)
(0.859784 -0.434611 1.15415e-19)
(2.40484 -0.774135 1.7813e-19)
(3.63834 -1.64983 0)
(2.34514 0.00324472 1.92092e-19)
(1.97946 0.0391203 -3.59406e-19)
(3.11503 0.262713 4.93411e-19)
(1.20007 -0.450135 0)
(1.97378 0.16686 3.04419e-19)
(2.32184 0.0165482 0)
(2.01566 -0.0539148 0)
(2.14573 0.129672 -1.71958e-20)
(1.93465 0.0486397 1.66307e-19)
(1.09486 -0.536704 -1.7961e-19)
(2.30934 0.371322 2.23447e-20)
(1.49356 -0.43641 -2.67594e-19)
(2.1096 -0.0456301 3.61509e-20)
(2.08872 0.131481 9.23889e-20)
(2.11298 0.181683 3.13293e-19)
(2.51641 -0.744475 0)
(2.00427 -0.225967 4.35728e-20)
(1.4577 -0.165611 0)
(2.0053 0.0666405 -2.67413e-20)
(2.36462 -0.11405 0)
(1.55422 -0.0472274 3.91824e-19)
(1.60879 -2.0584 -6.27257e-19)
(2.00841 -0.0988358 0)
(0.00620502 0.124028 5.70452e-20)
(2.03547 -0.117755 -5.67235e-20)
(1.98737 0.105307 6.10547e-20)
(1.86173 -0.315193 7.31764e-19)
(1.54643 0.622001 -3.22849e-19)
(1.48346 -0.424758 -7.60521e-19)
(3.41133 -0.0173711 0)
(1.99735 0.0185729 -2.08971e-20)
(1.6487 -0.788458 -2.61892e-19)
(2.03066 0.164242 0)
(1.90599 0.143128 1.97969e-20)
(2.21182 -0.0475355 -8.58498e-21)
(2.80357 0.530646 0)
(1.97986 0.0244005 0)
(0.842799 -0.425685 0)
(1.57804 -0.634852 6.43554e-20)
(1.96112 -0.491843 7.71348e-20)
(2.17719 -0.568364 4.97259e-21)
(2.37519 0.63669 0)
(1.80271 -0.233711 4.97053e-19)
(1.97866 -0.019375 -3.54828e-21)
(2.2715 0.320789 -4.79935e-20)
(1.3843 -0.864174 1.91872e-19)
(1.93466 0.116903 0)
(2.01792 0.000434186 0)
(0.944234 -0.25081 -4.23589e-19)
(1.58459 -0.528362 -1.87021e-19)
(2.00303 -0.204016 0)
(1.58873 -0.766146 -2.2016e-19)
(2.00841 0.0137729 3.65452e-21)
(1.98332 -0.000975752 -4.0264e-21)
(0.946822 -0.451637 0)
(1.92776 0.00841077 -9.71307e-21)
(2.00157 0.0256257 -2.01181e-20)
(2.2993 0.00401237 1.87554e-20)
(2.02556 -0.601537 0)
(1.47565 -0.795801 -3.76693e-19)
(2.13177 0.11021 8.78994e-20)
(2.00068 0.120833 6.36881e-20)
(2.01158 0.0398034 -1.1057e-20)
(2.51477 0.260663 0)
(1.75112 0.187119 -2.35382e-19)
(2.5846 -0.196743 -1.22689e-19)
(0.275111 -0.499861 4.51e-20)
(2.01261 0.0457331 0)
(1.13013 -0.891835 -1.37463e-20)
(0.706536 -0.235958 0)
(2.04654 0.0324387 -2.48932e-19)
(2.02692 0.0676511 1.08599e-19)
(1.86482 0.0336728 -5.99716e-20)
(1.59207 -0.66086 0)
(2.04829 0.0336867 -3.95175e-20)
(1.25569 0.298426 8.07768e-19)
(2.48271 -0.737583 0)
(1.7074 -0.000369303 3.28913e-19)
(2.79581 -0.485069 -1.61334e-20)
(2.07735 -0.0044645 0)
(1.23868 -0.713336 3.246e-20)
(1.86304 0.068866 3.07584e-20)
(1.97042 -0.0232161 0)
(1.37521 -0.970005 2.61729e-19)
(1.8681 0.140318 0)
(1.90976 -0.866287 2.31544e-19)
(1.56827 -0.753267 6.42189e-20)
(2.01457 -0.0145965 1.271e-21)
(2.25712 -0.00329905 1.35922e-20)
(1.48265 0.159737 1.54849e-19)
(1.86317 -0.345973 -2.70369e-19)
(1.92626 0.00196988 6.35826e-21)
(1.92904 -0.862523 2.59493e-21)
(2.25534 -0.206143 1.11065e-19)
(2.52049 0.275026 1.09803e-19)
(2.1618 -0.953914 0)
(1.97288 0.0267444 -2.5242e-19)
(3.8116 -1.62715 -6.55659e-19)
(1.48314 -0.173883 0)
(2.01409 0.0193829 7.29753e-21)
(1.94521 0.0046704 0)
(1.3925 -0.457032 6.5644e-19)
(2.27204 -0.819583 0)
(2.04979 -0.0368197 -9.8727e-22)
(2.26356 -0.0548197 -1.95659e-19)
(1.27382 -0.634807 5.18826e-20)
(0.953714 -0.482553 1.22089e-19)
(2.25511 -0.0231088 -1.75936e-21)
(1.63143 -0.774647 1.83984e-19)
(1.91863 -0.567596 2.58161e-19)
(1.61876 -0.406693 0)
(0.848142 -0.424528 -8.09399e-20)
(2.54233 -0.665235 -3.74963e-20)
(0.920447 -0.44379 -9.54783e-20)
(1.96766 -0.0284624 4.11977e-21)
(1.60963 -0.641379 0)
(2.14589 -0.0304035 -1.481e-21)
(0.959652 -0.463976 0)
(1.48167 -0.763255 -3.42764e-21)
(3.11765 0.717312 -6.13185e-19)
(1.10498 -0.461049 0)
(2.21648 -0.552223 7.43164e-20)
(1.61878 -0.300644 0)
(2.79364 0.467233 0)
(1.72846 -0.812763 -3.05451e-19)
(1.5821 0.209942 2.3601e-19)
(1.81693 0.126057 0)
(1.83714 0.112856 -1.49956e-19)
(2.20657 -0.623819 2.37298e-19)
(1.60421 -0.766847 1.47507e-19)
(2.9553 0.842871 0)
(2.0856 0.0240381 0)
(1.66847 -0.795105 -1.14422e-19)
(1.92999 -0.160902 0)
(2.05397 0.00415062 0)
(1.75002 -0.752952 -4.69752e-22)
(2.17968 -0.392891 -3.61139e-19)
(1.87012 -0.479349 2.23699e-19)
(2.10914 -0.277557 9.13755e-21)
(0.767682 -0.376796 1.70905e-19)
(1.98655 0.0632002 1.25252e-19)
(1.65237 -0.43512 0)
(2.17207 0.301747 -4.31458e-20)
(1.54691 -0.293796 0)
(2.09053 -0.0076333 0)
(2.01061 0.164422 0)
(2.17325 0.107668 -1.39977e-20)
(1.90784 -0.0905512 2.17128e-19)
(2.02897 -0.0023151 -1.07117e-20)
(1.69569 -0.438035 0)
(0.929716 -0.455974 -1.29772e-19)
(2.16432 0.806867 5.1776e-20)
(2.03091 -0.733021 2.42676e-20)
(1.98167 -0.00354729 4.65911e-22)
(1.94375 -0.190268 6.87792e-20)
(1.97148 0.0127203 -2.10113e-19)
(1.66583 -2.19316 0)
(2.14 0.0867122 0)
(1.57011 0.648491 0)
(1.39867 -0.637739 -4.72727e-19)
(1.35072 -0.328826 -1.35244e-20)
(1.42759 -0.297092 0)
(2.20019 0.297631 0)
(2.20697 0.216949 1.13667e-19)
(2.06738 -0.00614591 -5.80365e-20)
(1.96167 0.436411 2.41006e-19)
(2.05701 -0.870456 0)
(1.70102 -0.825417 -5.00675e-20)
(2.25234 0.0554569 4.58627e-20)
(1.55155 -0.495583 -4.477e-19)
(2.19108 0.0158108 -8.50246e-20)
(2.28613 0.334914 8.4988e-20)
(1.79261 -0.398543 3.17113e-20)
(1.39584 -0.640799 8.2504e-19)
(1.74788 -0.103817 -2.46909e-21)
(2.0359 0.00798254 4.09669e-21)
(1.99532 -0.00233926 -6.34997e-20)
(1.44656 -0.677816 -6.8901e-20)
(1.89067 0.0536192 -1.4621e-20)
(1.79693 1.7809 -8.46979e-21)
(1.59732 -0.761415 1.14052e-19)
(2.06595 0.094761 0)
(2.0014 0.116597 -1.35576e-20)
(2.05103 -0.062461 -2.44547e-19)
(2.73546 0.10547 9.09565e-20)
(1.52193 -0.463584 -4.08051e-19)
(2.01114 -0.70347 -2.64936e-19)
(2.06532 -0.0591057 5.7416e-19)
(2.30108 -0.0349088 -3.27771e-19)
(2.03503 0.251529 -7.96668e-20)
(2.29305 -0.196657 -6.73286e-20)
(1.31246 -0.271133 -8.91971e-19)
(2.05754 0.0707194 -1.97675e-19)
(1.30242 -0.335521 0)
(1.35793 -0.593724 -8.85137e-20)
(1.94235 0.000325909 5.27419e-19)
(1.96976 0.0228498 -1.56188e-21)
(0.977756 0.0907008 0)
(1.88114 -0.860321 0)
(2.06305 0.300676 2.15629e-19)
(1.19461 -0.271333 5.55356e-19)
(1.64552 -0.413379 -4.23643e-20)
(2.33362 -0.734082 -1.22145e-19)
(2.38233 -0.329738 3.01475e-19)
(2.79984 -0.183129 0)
(2.0741 0.322287 1.1552e-19)
(1.22935 0.802692 7.10493e-21)
(2.57059 0.630714 9.88155e-20)
(2.06847 -0.291736 -3.20029e-19)
(0.95243 -0.470562 -2.76263e-19)
(1.95817 -0.175123 -6.85469e-20)
(1.97218 -0.22426 2.45331e-20)
(2.3877 0.855052 0)
(1.9242 -0.035079 -1.61904e-21)
(1.92009 -0.0188726 5.51381e-20)
(1.99195 -0.00751659 5.42833e-21)
(0.948652 -0.462456 7.5552e-19)
(2.04447 -0.29327 4.79267e-19)
(2.02881 0.0633599 -2.95001e-20)
(1.59227 -0.764682 -8.9562e-20)
(1.94042 -0.0205997 -2.25619e-20)
(2.06455 0.0338863 1.76768e-19)
(1.72716 -0.791002 -2.01457e-20)
(2.47388 0.622435 -7.57e-20)
(1.29324 -0.878905 -2.83884e-19)
(1.14018 -0.555607 -2.51744e-19)
(2.01442 0.00888672 0)
(2.01947 0.0166385 -1.54916e-20)
(1.6822 -0.724671 -4.745e-20)
(1.45458 -0.250616 8.11619e-19)
(1.96278 -0.015089 0)
(2.3724 0.578351 3.84484e-20)
(1.35873 -0.585275 1.86793e-19)
(1.90511 -0.00382925 -5.40477e-19)
(1.34494 -0.668386 -1.09057e-19)
(1.85265 0.083844 1.20177e-20)
(2.21264 -0.1551 1.8935e-19)
(2.22572 0.0221146 1.44957e-19)
(1.93734 -0.878765 -3.19665e-19)
(2.03196 0.0178213 1.47413e-20)
(1.42064 -0.362667 -4.91344e-20)
(1.99904 -0.042118 2.29539e-19)
(2.04363 -0.0360192 -1.59132e-19)
(2.12949 0.0681571 -3.38922e-21)
(2.12812 -0.0320396 -3.49157e-19)
(1.30548 -0.593903 -3.60893e-19)
(2.02724 0.00545208 0)
(1.51146 -0.651265 5.45135e-20)
(2.01543 0.0369945 4.05934e-20)
(3.22054 0.059348 4.12903e-19)
(2.21151 0.0129038 2.64916e-20)
(2.31952 -0.375184 -1.86069e-19)
(2.00776 -0.00691314 -4.23228e-19)
(2.09836 0.204475 6.64296e-20)
(0.773477 -0.388817 -1.18516e-19)
(2.09324 0.0282844 0)
(1.98409 0.0429054 -2.52031e-20)
(2.15153 0.0982215 8.98277e-20)
(1.61606 -0.626111 0)
(2.12588 0.0520848 1.35655e-19)
(2.08975 0.0979936 1.12249e-19)
(2.12641 0.0346451 9.83137e-24)
(2.81776 -0.872182 4.46404e-20)
(1.95724 0.0307901 0)
(1.84087 0.244305 4.25187e-19)
(2.04143 0.0385012 3.28363e-20)
(1.56002 -0.749618 2.56247e-19)
(2.06784 -0.191247 0)
(1.57947 0.175134 -6.82309e-19)
(1.74427 0.628973 -4.44753e-20)
(2.72124 1.06798 -3.23766e-19)
(1.32244 -0.293688 8.65792e-19)
(2.04099 -0.0514533 1.20735e-20)
(0.995468 -0.505227 9.51916e-20)
(1.97358 -0.126621 -3.38629e-19)
(2.03708 -0.203157 -6.98561e-20)
(1.83035 0.0708873 -3.14603e-19)
(2.00267 -0.0592322 0)
(2.02687 0.00125765 -2.37916e-19)
(0.15199 -0.242368 5.68426e-19)
(0.558871 1.28426 0)
(1.89553 -0.294694 0)
(2.0342 -0.00379073 0)
(0.525638 -0.46517 0)
(2.03961 0.248722 0)
(1.25839 -0.264479 0)
(1.84933 -0.0415807 -1.639e-21)
(2.14128 -0.518095 -1.031e-19)
(2.37854 0.0540123 0)
(1.81524 0.231655 6.43622e-19)
(1.83733 0.321157 1.20582e-19)
(2.0746 0.160441 4.89172e-21)
(1.70049 -0.73272 -2.6667e-20)
(1.25686 -0.0545947 -1.84124e-21)
(0.95058 -0.476636 9.94735e-20)
(2.15916 -0.00782066 -1.30233e-19)
(2.2334 -0.0396448 6.80003e-21)
(2.06207 0.213874 -1.52008e-19)
(1.87409 0.13888 -4.26447e-19)
(2.09273 0.751639 -1.54182e-19)
(3.37007 0.0968038 0)
(1.26526 -0.910765 3.93091e-20)
(1.41096 -0.468941 -7.19698e-19)
(2.01393 -0.00934084 -7.36038e-19)
(2.55593 -0.672565 -1.88226e-19)
(2.03618 0.0224746 5.4959e-20)
(2.98707 -0.574782 -6.68813e-20)
(2.2349 -0.282422 -4.11672e-20)
(2.22946 -0.535462 -2.57619e-19)
(2.01754 0.146636 1.69793e-19)
(3.55814 1.43072 0)
(1.91055 -0.00142196 7.32833e-21)
(1.73996 0.00214133 -9.74993e-20)
(2.83687 -0.160521 0)
(1.97566 0.0367013 0)
(2.0225 -0.917058 -3.63326e-21)
(1.21573 -0.615742 1.01011e-19)
(1.82804 -0.057649 5.76947e-21)
(1.96996 0.0240267 0)
(1.9272 -0.0994099 -4.44734e-19)
(1.82208 0.154658 -8.24105e-20)
(1.45912 -0.661317 3.47881e-20)
(2.13557 0.0352927 5.28207e-20)
(0.94454 -0.469631 0)
(1.31278 -0.90738 4.17811e-20)
(2.14075 0.0582846 0)
(1.8993 -0.0449817 -2.45873e-21)
(2.36255 0.295161 -8.37194e-20)
(1.95573 0.0253358 1.56372e-22)
(2.36058 0.375038 -5.21929e-20)
(2.86509 0.714589 -3.96367e-20)
(1.87404 -0.550549 5.36227e-19)
(0.635018 -0.635664 0)
(1.60083 -0.203137 -9.45946e-21)
(1.69769 0.184846 0)
(2.39863 0.0269605 -2.03682e-20)
(1.45915 -0.682412 8.02657e-20)
(1.88425 -0.296842 4.30251e-20)
(1.99125 0.0364763 2.38457e-20)
(1.64137 -0.661902 -1.00606e-19)
(1.35089 -0.659777 -2.96091e-19)
(1.45054 -0.472417 -4.16367e-19)
(2.00762 0.00844315 -6.81167e-21)
(1.62193 -0.183813 7.89225e-21)
(1.34378 -0.607145 2.96932e-19)
(1.50498 -0.49357 4.58008e-19)
(1.33018 -0.332803 2.82792e-20)
(1.67425 -0.23229 -9.37687e-21)
(1.98748 -0.623797 2.65003e-19)
(2.16302 -1.86781 5.42615e-19)
(2.01314 -0.00115003 8.57619e-21)
(1.8325 0.311109 -1.0345e-19)
(2.28188 0.223074 -4.08346e-20)
(2.46211 -0.523784 0)
(0.303003 -0.377992 -4.53424e-19)
(2.0684 -0.055434 -2.90449e-19)
(2.006 0.183276 0)
(2.37932 0.0390073 0)
(1.49473 -0.0432076 1.66989e-20)
(2.03168 -0.318074 -8.00472e-20)
(2.3105 0.0631559 -4.78901e-20)
(2.17406 -0.388317 4.73321e-19)
(2.06701 0.715485 1.42534e-19)
(1.76667 0.133655 3.68936e-19)
(1.49088 -0.680264 2.14738e-21)
(1.86719 0.462862 0)
(1.53532 -0.52232 4.39006e-19)
(1.83074 -0.941611 4.73385e-20)
(1.63345 -0.66348 7.63623e-20)
(1.87363 -0.719918 8.82893e-20)
(1.82692 -0.817425 -3.36152e-20)
(2.06614 0.0672677 1.70588e-19)
(1.96891 0.0479105 -1.11636e-20)
(1.96036 -0.0913922 4.01903e-20)
(1.50812 -0.687387 -5.30025e-20)
(2.26219 0.0914275 3.81215e-20)
(1.92209 0.0775971 1.8021e-19)
(1.29707 -0.324741 -3.56014e-19)
(1.93668 -0.130625 2.76154e-19)
(2.02732 0.262961 0)
(2.31679 0.170092 3.71579e-20)
(1.98434 0.0426039 4.06626e-20)
(1.60438 -0.379066 -1.40558e-19)
(2.05591 1.54562 4.27137e-20)
(1.9558 -0.611468 1.97837e-19)
(2.00739 0.02594 7.8957e-20)
(1.47912 0.0268279 -5.30762e-19)
(2.80544 -0.186484 0)
(1.97476 0.041155 4.69568e-20)
(2.18043 0.017761 1.15662e-19)
(1.90517 -0.00134507 0)
(1.49607 -0.0707757 3.02759e-19)
(2.11269 0.0508181 0)
(1.93041 1.57725 1.04645e-19)
(2.2732 -0.063494 0)
(1.90689 0.0104232 0)
(2.22424 0.0596733 5.68628e-20)
(2.26392 0.0717137 3.93156e-20)
(2.3821 -0.149292 -1.4538e-19)
(1.92595 0.118286 -1.95191e-19)
(1.72172 0.951257 -1.31671e-19)
(2.03292 0.10599 -7.67076e-20)
(2.09216 0.221065 0)
(2.13615 -0.976557 -5.00013e-20)
(2.2894 0.0860861 -8.47423e-21)
(1.8992 -0.0204367 4.67259e-21)
(2.46051 -0.515243 0)
(2.75292 0.0940458 1.39348e-19)
(2.39938 1.3908 1.67918e-20)
(1.99155 -0.00469071 4.40653e-20)
(1.73061 -0.551952 0)
(1.76356 -0.740372 9.84048e-20)
(2.05846 0.16043 0)
(1.97719 -0.0716744 -2.05519e-20)
(-1.71668 1.38435 0)
(2.34304 -0.87275 0)
(1.75919 -0.0919083 0)
(2.22191 -0.816297 0)
(1.75026 -0.837621 -2.35943e-20)
(1.56428 -0.621644 -1.42196e-20)
(1.89656 -0.0772836 -3.25862e-19)
(1.29763 -0.649599 -6.25429e-20)
(1.42027 -0.628205 0)
(1.36234 -0.551505 -2.9499e-20)
(-1.71978 1.17601 -3.04656e-18)
(1.70333 -0.796011 0)
(1.61543 -0.590193 -4.6854e-19)
(2.01493 0.000928204 7.0722e-21)
(2.26614 0.215943 1.00304e-19)
(2.70498 -0.85147 1.4289e-20)
(1.87878 0.112416 0)
(2.41767 -0.724768 0)
(2.49966 -0.430849 8.03816e-20)
(1.93891 0.0289929 -3.6915e-21)
(2.00637 0.0249846 1.61899e-20)
(1.49705 -0.033974 1.83925e-21)
(1.99123 0.0122836 1.78054e-20)
(2.06998 -0.00835692 -2.67952e-21)
(2.04037 0.160358 2.43708e-19)
(1.9803 0.0398022 -2.48478e-20)
(2.03313 -0.559564 0)
(1.45976 -0.715263 0)
(2.02829 -0.00185397 0)
(1.99591 0.00927414 0)
(1.84917 -0.372069 1.98114e-19)
(2.22114 -0.115875 0)
(1.75877 -0.795098 2.36904e-19)
(1.76613 -0.40796 -2.37261e-21)
(1.47694 -0.510382 -6.88243e-19)
(1.85311 0.353181 -5.81995e-20)
(1.5148 -0.624674 -3.11391e-20)
(1.8073 -0.811963 -1.26939e-19)
(1.95372 -0.0104068 6.17916e-20)
(1.55022 -0.697582 -4.98076e-20)
(1.9701 0.00348019 -4.09004e-20)
(2.2193 0.0268815 0)
(2.5115 -0.241565 0)
(1.9227 0.202628 0)
(2.32352 -0.392245 9.81801e-20)
(1.664 -0.293429 0)
(1.89509 0.470732 0)
(1.98562 0.000175339 0)
(1.88386 -0.479399 2.08665e-19)
(2.08975 0.153214 -2.34758e-19)
(2.00711 0.0252771 0)
(1.9139 -0.0649853 -1.40667e-21)
(1.99473 0.155629 -2.32232e-19)
(2.5452 0.536513 -2.03185e-19)
(1.7271 -0.801247 2.78438e-19)
(1.96473 0.497536 -2.34372e-23)
(1.86716 0.0480594 2.54779e-21)
(1.94987 0.0297001 -2.10688e-20)
(1.89058 0.008897 1.3552e-20)
(2.26392 0.062581 -5.18277e-20)
(2.003 0.00995778 3.44773e-20)
(1.86301 0.00690276 -3.08572e-19)
(2.02579 0.0106819 0)
(3.43347 0.424661 -3.0014e-19)
(1.94263 0.0509375 3.26407e-19)
(1.42974 0.627114 -2.00737e-20)
(2.22488 -0.270293 -1.21264e-19)
(1.22263 -0.289081 -6.06036e-19)
(2.26359 0.0598113 9.15687e-21)
(2.6134 -0.186504 1.76666e-19)
(2.04962 0.0283712 0)
(2.02713 0.135879 -3.49248e-20)
(1.98997 0.0175074 9.51759e-21)
(1.87983 -0.0150812 -2.00268e-20)
(1.38631 -0.874623 -2.19942e-19)
(2.01056 -0.0400913 1.707e-19)
(2.01993 0.014799 -4.7282e-21)
(1.94768 0.0148534 -5.80336e-21)
(2.0323 0.014564 0)
(1.95554 0.53253 0)
(1.56347 -0.747186 3.41021e-19)
(1.22517 -0.609261 1.16865e-19)
(2.03485 0.00283794 -2.2814e-21)
(1.96498 0.0410323 6.52676e-19)
(1.98619 0.165379 1.0966e-19)
(1.55236 0.152676 0)
(1.83447 0.0225181 0)
(1.72922 -0.420277 -2.82031e-21)
(2.16015 0.0101431 8.73038e-20)
(2.00369 0.458565 3.21955e-19)
(2.33826 0.12188 0)
(2.02669 0.0190286 0)
(2.26499 -0.610649 3.46498e-19)
(2.05591 -0.193276 2.60604e-19)
(0.471254 -0.404227 -7.16535e-20)
(2.04052 0.0225656 0)
(2.36151 -0.9221 8.8695e-20)
(1.88966 -0.133531 -5.19131e-21)
(1.67702 -0.723847 -6.7182e-20)
(1.99022 -0.0719111 -3.58081e-19)
(2.15918 -0.507919 0)
(2.06381 -0.316149 6.32724e-20)
(1.74675 -0.534681 -6.81457e-20)
(0.178365 -0.171714 0)
(1.96681 -0.023054 3.26788e-20)
(1.92008 0.0683008 -2.11088e-19)
(1.98982 -0.000464783 2.63983e-23)
(2.44207 0.31502 3.97003e-20)
(2.62602 1.9509 7.2891e-19)
(1.96191 0.047563 0)
(1.22208 -0.485197 -4.19898e-21)
(2.00074 0.189195 -1.01751e-19)
(1.9091 -0.655107 -1.47554e-19)
(2.04922 0.226793 1.80405e-19)
(0.576781 -0.575623 1.40848e-19)
(2.03364 0.00800986 -8.05788e-19)
(2.03217 0.0546609 1.68313e-20)
(1.94748 0.05569 -2.85692e-20)
(1.85403 -0.445025 0)
(1.95658 -0.00241766 2.97773e-20)
(1.27965 -0.5988 2.37069e-19)
(2.17448 -0.0965596 -3.739e-19)
(1.97943 0.042792 -2.96164e-19)
(1.98388 -0.0870103 1.67263e-20)
(1.75366 -0.223535 7.28597e-19)
(1.98754 0.0270241 -1.15379e-20)
(1.83139 0.0335791 1.78888e-19)
(2.00385 0.018372 2.37267e-20)
(2.11037 -0.287275 -1.04062e-19)
(2.52637 0.657011 -1.57257e-19)
(1.66953 -0.4188 3.31265e-20)
(2.03095 0.00859234 0)
(1.94038 0.15487 0)
(1.84508 -0.229033 0)
(1.47355 -0.47804 5.32278e-19)
(1.97765 0.042663 -4.84481e-19)
(1.82102 0.146751 0)
(1.64669 -0.391851 -4.17365e-19)
(1.8181 0.127147 0)
(1.85057 -0.347272 -3.25812e-19)
(1.9105 -0.0361316 4.90715e-21)
(2.00204 -0.529035 -2.9203e-19)
(2.01103 0.0037629 0)
(1.92691 0.0246499 0)
(1.92244 -0.00709461 -3.91879e-21)
(2.35499 0.0740067 1.38082e-21)
(2.15263 -0.0471578 4.27501e-20)
(2.63012 1.48326 -1.30159e-20)
(2.40984 0.186919 0)