/*--------------------------------*- C++ -*----------------------------------*\
| =========                 |                                                 |
| \\      /  F ield         | OpenFOAM: The Open Source CFD Toolbox           |
|  \\    /   O peration     | Version:  2306                                  |
|   \\  /    A nd           | Website:  www.openfoam.com                      |
|    \\/     M anipulation  |                                                 |
\*---------------------------------------------------------------------------*/
FoamFile
{
    version     2.0;
    format      ascii;
    arch        "LSB;label=32;scalar=64";
    class       surfaceScalarField;
    location    "6.25";
    object      phi;
}
// * * * * * * * * * * * * * * * * * * * * * * * * * * * * * * * * * * * * * //

dimensions      [0 3 -1 0 0 0 0];

oriented        oriented;

internalField   nonuniform List<scalar> 
20045
(
0.245381
-0.266196
0.0208149
-0.530532
0.186572
0.34396
0.19587
0.974968
-1.17084
-0.0296826
0.0616201
-0.0319374
-0.422023
0.40907
0.0129528
-0.302116
1.12892
-0.826808
-0.506595
0.21692
0.289675
0.0326408
0.216214
-0.248854
0.239864
0.204583
-0.444447
-0.418801
-0.0494646
0.468265
-0.147767
-0.199583
0.34735
1.13372
-0.543145
-0.590571
0.174056
-0.17684
0.00278379
-0.642997
0.556136
0.0868617
-0.16124
0.529573
-0.368333
-0.545267
0.126466
0.00232514
-0.0355239
0.0331988
0.349227
-0.287976
-0.0612515
-0.836572
1.23289
-0.396316
-0.374402
0.0268088
0.347593
-0.0300029
-0.0117551
0.041758
0.0578145
0.116242
-0.0626437
-0.467889
0.392588
0.565971
-0.958559
0.411116
0.110426
-0.521542
-0.587659
0.980247
-0.0514291
0.0588805
-0.00745138
-0.659384
1.24769
-0.588308
0.867307
0.130407
-0.997714
-1.22832
0.673976
0.554345
-0.180976
0.0363173
0.144659
0.716218
-0.505976
-0.210242
-0.395447
0.837
-0.441553
1.19235
-0.697003
-0.495348
-0.278294
0.310935
1.05232
-0.513932
-0.538387
0.718044
0.0606653
-0.778709
-0.0296141
0.183189
-0.153575
-0.952138
0.427633
0.524504
0.294684
0.261608
-0.556292
0.0242732
0.199366
-0.223639
0.0631554
-0.0906839
0.0275286
1.07005
-1.0715
0.00144585
0.747487
-0.281365
-0.466122
0.350931
0.396556
0.513461
0.620255
-0.129874
0.137306
-0.00743159
0.638948
0.271759
-0.910707
0.865344
-0.147301
0.0791596
0.975454
-1.05461
0.650285
-1.09975
0.449469
0.879871
-0.636898
-0.242973
-0.596266
-0.423123
1.01939
-0.0457751
-0.149017
0.194792
0.378799
-0.130736
-0.248063
-0.346539
-0.0754836
-0.0696293
0.831682
-0.762053
0.765854
0.0726054
-0.83846
0.540367
-0.935814
0.989739
-0.600105
-0.389634
-0.119491
-0.171616
0.291107
0.467549
0.52219
0.263678
-0.880951
0.617272
0.0406372
-0.0706401
0.663413
-0.137751
-0.525662
0.820202
0.0508302
-0.871033
0.0452904
-0.0753299
0.0300394
-0.334032
0.0828568
0.251175
0.423433
-0.183569
0.844548
-0.858019
0.0134702
0.0759055
-0.0306151
-0.0105506
0.389349
-0.126409
-0.521225
0.647634
0.0675694
-0.138843
0.0712737
0.910607
-0.222335
-0.688272
0.679405
-0.749034
0.0405531
0.870053
0.218887
-0.380126
0.00510564
-0.211809
0.206704
0.180428
-0.608603
0.428175
0.52172
0.598651
-1.12037
0.449906
-0.346585
-0.103321
0.719235
-0.455557
-1.31879
0.244115
1.07467
0.0110096
0.234372
-0.275817
0.309985
-0.0341682
0.278503
-0.657931
0.379428
-0.803665
0.0360303
0.767635
0.518213
0.07455
-0.592762
-0.424277
0.393096
0.0311804
-0.721002
-0.104111
0.825113
0.362814
-0.0653185
-0.297495
0.199439
-0.283266
0.0838277
-0.080125
-0.40602
0.486145
0.29093
-0.311288
0.0203583
0.757195
0.186877
-0.944072
-0.0928189
0.0413898
-0.0832108
0.136058
-0.0528474
0.606833
-0.31215
0.00771768
-0.0515761
0.0438584
0.710041
0.342278
-0.229038
-0.413959
0.0491115
-0.132322
-0.160544
0.926398
-0.00370374
-0.272113
0.054681
-0.0469633
0.22993
0.602512
-0.832443
0.524816
-0.876211
0.351395
-0.124769
-0.20784
0.181202
0.0266375
-0.0983484
0.125587
-0.0272383
0.61855
-0.454173
-0.164377
-0.244637
0.198862
0.642535
-1.12413
0.481595
-0.0822289
0.154972
-0.0727433
0.0225436
-0.121906
0.0993623
0.58093
-0.169814
0.860964
0.331387
-0.584709
0.4583
0.688202
-0.950707
0.262505
0.253055
0.0961724
-0.315395
0.195904
-0.384743
0.310549
0.0741943
-0.427322
0.049205
-0.291381
0.242176
0.620349
0.259523
0.55531
-0.714502
0.159192
0.814228
0.0928919
-0.90712
-0.988296
0.742444
0.245852
-0.00934718
-0.561441
0.570789
0.926871
-0.306522
0.131291
0.00601542
0.134212
-0.071334
-0.0628779
-0.0565874
0.0423813
0.0142061
0.569588
0.40214
-0.971728
0.597781
-0.580016
-0.0177652
-0.174799
0.107305
0.0674939
-0.14913
-0.0587103
1.07164
-0.38344
-0.32415
0.343958
-0.0198076
0.647209
-1.14235
0.495144
0.173744
-0.770009
0.56509
0.226161
-0.791252
0.680586
-0.500159
0.966568
-0.132267
-0.834301
0.538846
-0.966996
0.428149
1.0534
-0.678349
-0.375054
-0.126687
0.234653
-0.107966
-0.0161434
1.07822
-1.06207
1.07715
-0.209848
-0.826201
0.0276053
0.798596
-0.47639
0.414268
0.062122
1.0075
-0.485778
0.17144
0.278466
-0.634012
0.781435
-0.147423
-0.831016
1.02689
0.0105204
-0.152551
0.14203
0.0113132
-0.0126326
0.00131937
-0.0171213
-0.184885
0.202006
1.18559
-0.477885
-0.707703
1.36381
-0.679987
-0.683828
-0.219721
0.2026
0.345718
-0.664802
0.319085
0.074306
-0.0111506
-0.797442
-0.47342
0.692755
-0.219335
-0.675325
0.490579
0.184746
-0.0126853
-0.0204513
0.0331366
0.488071
0.565333
-0.0297546
-0.0268328
0.0153245
0.118887
-0.711361
0.077349
-0.733048
0.932583
-0.199535
-0.659719
0.755394
-0.0956748
-0.592421
-0.430132
1.02255
-0.361167
0.288208
0.0729585
0.458835
-0.473354
0.0145195
0.943355
0.0615864
-1.00494
0.0160857
-0.75911
0.743024
-0.362125
0.927216
0.190392
-0.540873
0.35048
-0.466803
1.10934
-0.829441
0.542635
0.286806
0.242785
-0.268501
0.0257154
0.492567
-1.2683
0.775732
-0.984983
0.325599
-0.611332
-0.424545
1.14707
-0.691594
-0.455477
-0.267532
0.291805
0.122646
-0.129645
0.00699934
-0.764982
-0.138571
0.903553
-0.874666
1.22434
-0.349678
0.907431
-0.669042
-0.238389
0.0876199
-0.252338
0.164719
-0.279332
-0.461165
0.740497
0.221863
-0.369629
-0.52106
0.511713
-0.692774
-0.226291
0.919065
0.0881324
0.0242617
-0.112394
0.140624
-0.614044
-0.0297447
-0.151232
0.873904
-0.0596759
-0.137868
0.108254
-0.129693
0.158244
-0.028551
0.27125
0.914338
-0.793519
0.514187
0.199052
0.0223861
-0.221438
-0.699916
0.133243
0.566673
0.28479
0.622641
1.32993
-0.837368
0.76016
-1.29969
0.539533
0.238362
-0.932693
0.694331
0.0295516
-0.403954
-0.485764
0.715695
0.662609
-0.964724
0.379109
-0.782914
0.403805
-1.3337
0.760961
0.572737
-0.0140076
-0.410269
0.178209
0.136557
-0.314766
0.732105
-0.234717
-0.497388
-0.049251
-0.748085
0.731942
-0.250887
-0.0732627
0.671041
1.07279
-0.862316
-0.210477
-0.010254
-0.124612
0.134866
0.677347
0.120967
-0.798314
0.282312
-0.251648
-0.0306646
-0.193418
0.715734
-0.522316
-0.451985
0.730488
0.562905
-0.372512
-0.055325
0.15843
-0.103105
0.963467
-0.316258
0.0872786
-0.00809821
-0.0791804
0.0718101
-0.157571
0.0857607
-0.10202
0.105904
-0.00388379
1.13103
-0.715428
-0.415599
0.241173
-1.11584
-0.111452
0.00943142
-0.874683
0.284399
0.590284
1.24962
-0.412616
0.247901
-0.980948
1.32219
-0.589856
-0.732335
-0.0115829
0.0997153
0.805131
-0.419693
-0.385438
-0.61101
0.14175
0.46926
-0.941839
0.946431
-0.00459245
0.334142
-0.953971
0.619828
0.0344488
-0.047287
0.0128381
-0.466544
0.633275
-0.166731
-0.142959
0.302251
-0.159292
-0.140606
0.0583771
-0.114201
0.0158525
-0.546827
-0.329384
0.414306
-0.81165
0.397345
0.217242
0.123612
-0.340854
0.407855
0.308364
0.709312
-0.330203
0.0030114
0.00830181
0.708627
0.540989
-0.489394
0.0110819
0.478312
0.325797
0.479334
0.380901
0.148673
-0.0519194
0.269162
-0.282978
-0.0213254
0.304303
-0.0247633
0.267548
-0.757932
0.564514
-0.152835
0.0750691
0.0777655
-0.928187
0.890528
0.0376592
-0.336869
0.53851
-0.201641
-0.221471
-0.104686
0.326158
0.765581
-0.828207
0.0626254
-0.811078
-0.52262
1.29163
-0.820876
-0.470751
-0.0913245
0.0810705
1.04548
-0.711337
-0.420878
0.835184
-0.218534
-0.141012
0.359546
0.83422
-0.195476
-0.638744
1.14303
-0.307932
-0.835095
-0.400063
0.181529
0.830327
-0.491684
-0.338643
-0.15739
0.78095
-0.62356
0.621921
-1.07568
0.45376
0.273977
0.0610886
-0.335066
0.0265751
-0.0175397
-0.00903536
1.2707
-1.04043
-0.23027
-0.51841
-0.469886
0.712479
0.360313
-0.846314
-0.0818729
0.100928
-0.029118
0.0861127
-0.604958
0.518845
0.00388534
0.11876
-0.540066
1.10965
0.43879
0.692238
1.24899
-0.756973
-0.492016
-0.773478
0.547187
0.723697
-1.21011
0.486411
-0.627479
-0.0382643
0.665744
-0.233322
-0.173203
0.406525
0.550335
-0.204618
-0.0060399
0.205092
0.464677
-0.0290209
-0.476955
-0.690244
0.928071
-0.237827
-0.148965
0.0192717
-0.0639723
0.00864731
0.116174
-1.05801
0.340859
-0.792845
0.100362
-0.194823
0.268812
-0.0739883
0.00991152
-0.0395942
-0.505914
0.381017
0.124896
0.349369
0.269181
0.325563
0.208142
-0.533705
0.493561
0.10422
-0.519722
0.605834
0.57136
-0.0531477
-0.203746
-0.49617
1.03891
-0.808857
-0.230056
0.880868
-0.750685
0.237211
0.513474
0.799235
-0.864355
0.0651203
-0.43394
0.353815
-0.109915
-0.0648838
-0.119756
-0.601246
0.284229
-0.539331
0.255102
0.416756
0.413571
0.705513
-1.14246
0.436944
0.225806
-0.533562
0.307756
-0.972384
0.168719
0.0112779
0.351536
-0.575495
0.871969
-0.296474
-0.255482
0.302795
-0.0473125
-0.404813
-0.101782
-0.123506
-0.224301
0.347808
0.0782927
0.000936108
-0.0792288
-0.327519
-0.148871
0.377057
0.444997
-0.822053
0.741482
-0.415685
0.280981
-0.449596
0.0156554
0.461167
-0.235361
-0.664262
-0.165179
0.250468
-0.346095
0.095627
0.976448
-0.337499
-0.458688
0.749608
-0.29092
-0.111441
0.128614
-0.0171724
0.743424
-0.0113184
-0.171776
-0.433182
-0.503743
0.924732
-0.420989
0.633395
-1.1401
0.506708
0.592364
0.699262
0.0819976
-0.120855
0.038857
0.0862284
-0.713708
0.669764
-1.01042
0.340651
0.0923638
-0.0247944
-0.0765899
0.6319
-0.355708
0.696568
-0.663449
0.901811
0.190148
-1.02672
-0.883871
0.486849
0.397022
0.63552
-0.0984368
-0.537083
0.934286
-0.168704
-0.46736
-0.532332
-0.472145
0.533561
-0.0489159
0.174472
-0.125556
0.314717
-0.287908
-0.714714
0.638124
0.84566
0.224395
-0.785395
0.326707
1.06246
-0.349983
-0.115887
0.290577
-0.17469
0.0174091
-0.628919
0.61151
-0.902455
0.170259
0.732196
0.726214
-0.726214
-0.265511
0.697367
-0.431856
0.589584
-0.26402
0.68371
-0.384068
-0.299642
-0.956236
0.990428
-0.0341923
0.33501
-0.0443578
-0.290653
0.255875
-0.106215
-0.14966
0.105041
-0.326512
0.0823746
0.454139
-0.875017
-0.858972
1.01317
-0.1542
-0.282997
0.660054
0.11178
-0.0023992
-0.109381
-0.104344
0.0818281
0.0225162
-0.37471
0.404262
1.18749
-0.962898
-0.22459
-0.0826692
-0.528148
0.610817
-0.223516
0.244459
-0.0209424
0.117122
-0.272308
0.155186
-1.00061
0.382743
0.617869
0.0300872
0.0315329
-0.251608
0.135721
0.0305421
-0.104822
0.0742799
0.581163
0.689535
0.0908932
0.0208865
-0.0432886
-0.293514
0.336803
-0.50982
0.805114
-0.295294
-0.00440453
0.0770484
-0.0726439
0.428942
-0.212022
0.72123
-0.232033
-0.489197
0.00669164
-0.412712
0.11181
0.831545
0.429018
0.297317
-0.726335
0.458616
-0.41027
-0.0483463
-1.01281
0.186605
-0.425619
0.175826
0.249792
0.468976
0.610972
-1.07995
-0.626388
0.588123
0.0449606
-0.91361
0.86865
-0.121452
0.209072
0.243495
-0.27975
0.0362551
0.0217968
-0.304775
-0.00387903
0.0276319
-0.0237528
-0.672843
-0.20184
0.618598
0.0777035
0.0129015
-0.0906051
-0.115366
0.00392488
0.171704
-0.710063
0.538359
0.233669
0.546516
-0.780185
0.390098
-0.714065
0.871002
-0.156937
-0.715756
0.558365
0.053038
0.0058425
-0.393855
-0.28147
-0.248154
0.0662351
0.181919
-0.874995
0.365175
0.670112
-0.752781
0.43498
0.627482
-0.29729
0.300749
-0.00345873
0.395098
-1.01957
0.624468
0.145218
-0.260914
0.115695
0.442473
-0.614249
-0.637153
-0.0225663
-0.302866
-0.0311658
0.0561459
-0.0314135
-0.0247324
0.37641
-0.00702682
-0.0260935
0.0331203
1.01648
-0.547506
-0.437757
0.842653
-0.404896
0.261454
0.175926
-0.43738
-0.364198
0.242746
-0.205367
-0.0427863
0.426287
0.257423
-0.209786
-0.740922
0.363423
-0.112955
0.616701
0.403798
0.167562
-0.931761
1.01092
0.11418
-0.468107
0.353926
-0.0855632
-0.828134
0.913697
-0.206308
0.207568
-0.00125983
-0.161247
-0.19992
-0.480169
1.10209
1.01136
-0.472516
-0.435485
-0.0704283
0.0107633
-0.409087
0.398324
0.40737
-0.99979
-0.12552
-0.471212
0.596732
-0.0476976
0.038489
0.00920853
-0.652221
0.0558111
0.59641
0.95632
-0.684561
-0.0184686
0.0781043
-0.0596356
-0.207572
-0.0159447
0.176641
0.357792
-0.534433
0.0955096
-0.120915
0.0254053
0.615891
0.356191
-0.972082
-0.385294
1.14249
0.0763685
0.00192416
-0.26737
-0.575584
0.842954
0.350305
0.721336
0.939645
-0.705976
-0.34339
0.219884
-0.0234964
0.0500714
-0.448016
1.17171
0.137542
-0.767985
0.630443
0.911107
-0.145182
-0.765925
-0.481177
0.715154
-0.233977
0.395972
-0.421653
-0.447538
0.869191
0.0574504
-0.0880823
0.0306319
-0.285786
-0.484336
0.770122
-0.0359793
-0.0683649
0.0263976
-0.0390829
0.505317
-0.791103
-0.707594
-0.20643
0.914024
-0.0663266
-0.476178
0.542505
0.236289
1.20268
-1.22321
0.020525
0.203974
-0.148383
-0.0555916
0.00670522
-0.303995
0.257893
0.228252
-0.312871
0.0795486
-0.815895
1.02474
-0.208849
-0.145542
-0.00729274
0.303321
0.377265
-0.823475
-0.248025
-0.0117642
-0.0193579
0.0311221
0.534403
-0.130605
-0.193047
0.21297
-0.0199235
0.139887
-0.282847
-1.17764
0.56631
0.941205
0.187718
-0.128306
0.245428
-0.195713
0.457167
0.857443
-0.403304
-0.200455
0.00740771
-0.102617
-0.612098
0.211578
0.205023
-0.194503
-0.918448
0.0159932
0.0114455
0.204728
-0.0595092
-0.958413
0.648681
0.309731
0.710933
0.133616
0.178732
-0.0567238
-0.122009
0.274194
-0.256503
-0.0176904
-0.79542
0.281489
-1.02673
0.522986
-0.0019728
0.167936
-0.165964
-0.0477858
0.182475
-0.134689
1.02227
-0.00181877
-1.02046
0.140265
0.00785065
-0.148116
-0.134517
-0.250226
0.21691
-0.017471
0.198937
-0.189182
-0.0097552
0.382897
-0.0582642
-0.324633
0.0232721
0.175665
0.840198
-0.653321
-0.0283109
-0.137389
0.1657
-1.02036
0.204468
-0.0250059
-0.13045
0.179562
-0.0622673
0.139971
0.0041779
-0.0011665
0.239732
0.155163
-0.394895
0.493105
0.170308
0.441175
-0.326995
0.187921
-0.165377
0.0612417
-0.316724
0.625346
-0.0114449
-0.613901
0.531216
-0.0319951
-0.499221
-0.596847
-0.370149
-0.18064
-0.134546
0.315186
0.402042
-0.436989
0.0349468
1.11274
-0.0405672
-1.07217
-0.316919
-0.0485251
0.365444
-0.493554
0.656723
-0.163169
0.564734
0.664376
-1.22911
0.0977303
-0.269346
-0.264396
0.424693
-0.160297
0.207003
0.0958478
-0.30285
-1.09908
0.593029
0.50605
-0.162315
-0.0268672
-0.843928
0.136334
0.290374
-0.181127
-0.109246
0.488088
-0.616237
0.128148
-0.0800047
-0.186191
0.189001
1.01368
0.820217
-0.134847
-0.68537
-0.848169
0.134104
0.338068
-0.541814
0.726897
-1.14495
0.418055
-0.0938966
0.272105
-0.0108214
-0.387113
0.343824
-0.156881
0.206086
-0.127413
-0.784553
0.911965
0.444924
0.600555
-0.744606
0.7736
-0.0289934
0.0371014
0.0190445
-0.617744
-0.259157
-0.108467
0.121024
-0.012557
0.386848
-0.283518
-0.103329
0.0264127
0.0157798
-0.0421925
-0.0682265
0.556315
-0.780028
-0.099984
0.880012
-0.721839
-0.246279
0.968118
0.475056
-0.348517
-0.126539
-0.164964
0.0186398
0.146324
-0.330635
0.0384391
0.292196
-1.0142
0.0431961
0.971004
0.0269256
0.17686
-0.203785
0.808417
-0.907515
0.0990977
-0.519375
0.931009
0.0741564
-1.00517
0.0103802
-0.118847
-0.138271
-0.538826
0.677096
0.607553
-1.07436
-0.948369
0.823327
0.125042
0.110897
-0.0153874
0.698609
-0.395288
-0.0468506
-0.2491
0.295951
-0.00813653
0.121311
-0.113174
-0.209704
0.920876
-0.711172
0.778693
-0.408922
-0.369771
1.03627
-0.980168
-0.0561029
0.793168
-0.306041
-0.487127
0.0442351
-0.21452
0.170285
-0.280919
-0.0104613
-0.922989
0.811932
0.111057
0.053464
-0.976453
-0.296932
0.521293
-0.224362
-0.594363
-0.446066
0.176495
-0.155281
-0.0212141
-0.798586
-0.221777
-0.168032
0.110141
0.0578907
0.132028
0.150284
-0.885479
0.852941
0.0325378
-0.179529
-0.124647
-0.0141963
0.151495
-0.0112299
-0.602342
0.135799
0.120514
-0.148137
0.0276238
-0.809182
0.391578
0.417604
0.352225
-0.0172148
-0.249332
0.67288
0.0705442
0.35191
0.0258869
0.225609
-0.251496
-0.0908519
0.549687
-0.59991
0.388629
0.211281
-0.204079
0.0417641
1.02348
-0.578559
0.87175
-0.476652
-0.244768
-0.155371
0.400139
0.423276
-0.871816
0.44854
0.544632
-0.610959
0.980792
-0.43233
-0.548462
-0.00340531
-0.507574
-0.0923361
-0.94521
0.838522
0.106689
0.109937
-0.312397
1.07256
-1.06748
0.268897
0.351667
-0.0776897
-0.0923368
0.0429168
0.108789
-0.00288519
-0.493943
-0.511851
1.23606
-0.556655
-0.114562
0.286724
-0.172162
0.0620595
0.193816
-0.665316
-0.383314
1.04863
0.22337
0.326965
-0.00302314
-0.130722
0.133746
0.820544
-0.244662
-0.031819
0.276481
0.628609
-0.00326327
-0.356377
-1.03057
0.171593
-0.200844
0.00900301
0.191841
0.572622
0.749568
0.458993
-0.241831
-0.217162
0.98168
0.0545908
0.606644
-0.854802
0.248158
-0.83121
-0.0110378
0.842248
-0.751197
0.975821
-0.224624
0.125047
-0.00443222
-0.120615
-0.447398
1.05495
-0.318662
0.107115
0.211547
0.0206913
-0.765298
0.133329
-0.0365973
-0.0967317
-0.955258
1.24186
-0.286602
-0.236245
0.530154
-0.293909
1.16167
-0.510981
-0.650689
-0.00875574
-0.594336
0.603092
-0.249747
-0.0300026
-0.527063
1.0918
0.428483
-0.693994
1.11629
-0.482896
-0.172581
0.14427
-0.86896
0.03775
1.20683
-0.501314
-0.0267638
-1.29202
0.220369
-0.0210035
0.318353
0.51788
-0.836233
0.545455
-0.118931
-0.426524
0.876058
-0.969278
0.0932201
-0.122338
0.00920072
0.113138
-0.193837
-0.47527
0.669108
0.339157
-0.277915
-0.370473
0.12983
0.240643
0.123133
0.289083
-0.412217
0.0747561
0.101739
-0.873653
1.02296
-0.149308
-0.165792
-0.0405161
0.44503
0.196376
-0.641406
0.565659
0.488411
-1.05407
0.148454
0.487066
-0.0166526
0.983221
0.00315596
0.78331
-0.786466
0.00282086
-0.00722539
0.0832446
0.000339231
-0.0835839
0.948189
-0.882433
-0.0657561
0.448687
0.532105
-0.065563
0.0318345
0.0337285
-0.288855
0.805426
-0.516571
0.0140952
0.140775
-0.154871
0.491716
-0.828994
0.337277
-0.47233
-0.559416
1.03175
0.839098
-0.161751
0.300845
0.24461
-0.422139
-0.099413
0.521552
0.280735
-0.808883
-0.0864176
-0.186305
0.272723
0.174827
-0.0751129
-0.0997137
-0.00799287
-0.241754
-0.0718895
0.620091
-0.548201
-0.140839
1.11629
0.770831
-0.617179
-0.153652
0.61747
-0.54292
-0.519951
0.152449
0.367503
0.0982747
-0.482342
-0.000868124
0.049591
-0.0487229
0.0528019
0.12593
0.137165
0.735282
-0.872447
0.20355
0.179347
0.120823
-0.842662
-0.416517
0.16715
0.249367
-0.316471
-0.232043
0.548514
0.463737
-0.224005
-0.840087
0.55709
0.266447
-0.215751
-0.050696
-0.461119
0.828459
-0.36734
-0.426463
0.433155
-0.423992
0.544927
-0.120934
-0.561339
0.879621
-0.318282
-0.0201883
0.191249
-0.171061
-0.191064
0.143278
-0.291197
-0.579788
0.887032
-0.307245
-0.540963
0.674205
0.499766
-0.501894
0.00212716
0.249701
-0.137195
-0.112506
-1.25335
0.848831
0.404518
-0.0154063
0.233355
-0.217949
0.0397691
0.687562
-0.897265
0.817639
-0.394362
-0.357247
-0.526624
-0.69675
0.699906
0.500375
-0.00979647
0.38697
0.128184
-0.515154
-0.312395
0.287022
0.0253733
0.141005
-0.17647
0.0354644
-0.0924342
-0.361571
0.454006
-0.160955
0.493223
-0.332268
-0.755941
-0.248341
1.00428
0.0862454
0.163456
0.788016
0.160173
-0.788701
0.550373
0.238328
0.132871
-0.305431
0.17256
0.00324832
0.16039
-0.210702
0.0503123
-0.650307
-0.546729
0.454295
0.122024
0.184818
-0.140583
0.296954
0.0898935
0.0243186
-0.58576
0.0271807
0.263749
0.111986
0.0351587
-0.147145
-0.603196
-0.469301
1.0725
-0.0733842
-0.348755
-0.507519
-0.0970886
0.604608
0.126487
0.173154
-0.299641
-0.00811261
1.13106
-0.738686
-0.392372
0.167993
0.652224
0.0831571
0.31622
-0.421459
0.105239
-0.443041
0.964091
-0.52105
-0.569075
-0.249193
0.818268
-0.437075
0.172678
-0.413424
-0.106527
0.883121
-0.426893
-0.456228
0.24878
-0.282061
0.0332807
0.386269
0.0448905
-0.431159
-0.151759
0.178684
0.326896
-0.396159
0.0692623
0.256483
-0.0233055
-0.196416
-0.00672006
0.473897
0.409224
-0.377713
0.805346
-0.394816
1.06879
0.0787666
0.170014
-0.857196
0.28812
0.712176
-0.625948
-0.0932757
-0.615048
0.121494
0.203498
-0.50043
0.720841
-0.703432
0.815607
-0.0163722
-0.18447
-0.0987964
-0.284005
-0.06743
0.351435
-0.278496
-0.0327928
0.706285
0.149376
-0.855661
0.0307381
-0.243207
0.212469
0.00494953
0.312232
-0.800995
0.488763
0.873474
-0.0650568
-0.94944
1.00479
-0.0553471
0.20527
-0.122413
-1.08286
-0.170485
-0.330855
0.841126
-0.0291944
0.396324
1.12292
-0.413678
-0.709245
-0.632315
-0.0442894
0.676604
0.193183
0.510672
-0.703854
-0.681706
0.0294852
-0.160495
-0.148662
0.309157
-0.462721
0.600263
0.126956
0.515105
-0.642061
-0.190391
0.233208
-0.0428172
-0.958798
0.108905
0.849893
0.313111
0.504527
-0.220052
0.554738
0.23843
-0.301313
-0.124306
0.767624
-0.899891
-0.150844
-0.390154
0.540998
0.235457
-0.137727
0.665683
0.0467519
-0.712435
0.691326
-1.08614
0.0125798
0.021869
-0.458287
0.605262
-0.146975
-0.662088
0.523817
-0.01475
0.261294
-0.246544
-0.375178
0.160648
0.21453
0.183981
-0.345227
-0.241272
0.57934
0.149559
-0.151532
-0.137304
0.147684
0.0776593
-0.329307
0.0113686
-0.0586556
-0.17062
0.164454
0.006166
0.184898
-0.2092
0.024302
-0.675544
0.45321
0.130083
-0.637603
-0.0123678
-0.255164
0.0266113
0.535289
-0.5619
0.304141
-0.325466
0.183146
-0.794487
0.611342
-0.285164
0.708672
-0.423508
0.191053
-0.881297
-0.0838427
-0.0256824
-0.922687
0.542977
0.693083
-0.739375
-0.100712
-0.514985
-0.2357
-0.387559
0.163258
0.159693
-0.0221012
-0.137592
1.18682
-0.614199
0.873878
-0.204114
-0.223302
-0.139703
0.363005
-1.13821
0.474361
0.663852
-0.381663
0.182079
-0.0399156
0.970925
0.143856
-0.086042
-0.436282
-0.120791
-0.197871
0.346044
-0.305944
-0.0401005
-0.114355
0.82064
0.0510165
0.211968
-0.262985
0.679684
-1.29017
0.585898
0.704272
0.223326
0.190328
-0.413654
0.596146
-0.274664
-0.321482
-0.496851
0.260606
-0.658811
0.0157431
0.370525
0.885921
-0.971484
0.37869
-0.171687
-0.394184
0.674918
-0.8975
0.638968
0.258532
0.532619
-0.871246
0.338627
-0.687526
0.720911
-0.0333855
0.422068
-0.51292
0.012569
0.234357
0.240699
0.106745
-0.715348
0.287393
-0.958447
0.500828
0.45762
0.234376
-0.86669
0.718285
-0.0461422
-0.564868
0.13257
0.146231
1.01337
-0.333464
-0.679907
-0.298526
0.247565
-0.564036
0.134609
-0.959026
0.914737
-0.769801
0.348149
0.469862
-0.714872
0.380709
0.334163
-0.82614
0.540677
0.285463
-0.242713
-0.0316865
-0.016011
-0.994519
0.694599
0.29992
0.602574
-1.04997
-0.861273
-0.0123797
1.13098
-0.404084
0.277522
0.0855734
-0.363096
-0.0195776
-0.121598
0.141175
-0.260068
0.475166
0.527607
-0.434542
-0.28033
0.168139
0.171018
0.223186
0.331388
-0.554574
0.346109
-0.209552
-0.0438128
-1.06681
1.11063
-0.31091
0.409861
-0.771986
-0.564487
-0.40862
0.973107
0.231862
-0.29718
-0.648543
0.199758
0.448785
-0.00576287
-0.0024633
0.00822617
0.736913
-0.864326
0.0479558
-0.506242
0.467635
0.415407
-0.883042
-0.259715
0.145154
-0.790505
0.220158
0.570347
-0.993196
0.520867
0.524296
-0.967337
0.507984
-0.658828
-0.00687101
0.00110814
-0.0308511
0.941958
-0.587657
0.725706
-0.13805
0.886221
0.000343533
-0.886564
-0.679606
-0.0114287
-0.183395
0.0642925
0.661922
0.101417
0.0271969
0.286688
0.298912
0.290672
0.481976
-0.0169534
0.157959
-0.83031
-0.0551696
-0.67396
0.294817
-0.71451
0.154315
0.17818
-0.332495
0.793052
0.0467588
-0.839811
-0.0891717
0.0847395
-0.322958
-0.703771
-0.757618
-0.106738
-0.416384
1.10771
-0.31641
0.427797
-0.111387
-0.87378
0.270584
-0.257421
0.480607
-0.328686
-0.629726
-0.390452
-0.307481
0.322
-0.547168
-0.262014
0.964624
-0.123497
0.605157
-0.290007
-0.31515
0.0798964
0.0785334
0.226625
0.985266
-0.940306
0.0103722
-0.204715
0.288542
-0.471359
0.482441
-0.419015
-0.495746
0.198968
0.156796
-0.355764
-0.763656
0.0374423
-0.108139
0.729494
-0.621356
-0.0716545
-0.877786
-0.679558
0.800525
1.34824
-0.579327
-0.768912
-0.135153
0.310979
0.785685
-0.422168
-0.363517
0.236714
-0.26002
0.0438878
0.0393568
-0.197224
0.0527855
0.144439
-0.117875
0.504845
-0.459175
1.06175
-0.0306939
-0.124587
-0.251823
-0.0689275
0.320751
-0.0151931
0.752107
0.0519555
0.44426
-0.496215
-0.35764
0.534281
0.411242
0.394184
-0.321633
-0.094884
0.479344
-0.175693
-0.303651
-0.0709632
0.0609229
0.0100403
0.132245
-0.776223
0.643978
-0.879657
0.122039
0.196477
-0.423403
0.71822
-0.00677474
0.243489
0.107485
-0.423895
-0.950028
0.477883
-1.01032
0.330333
-0.412697
0.0379863
-0.398928
-0.544797
0.943724
-0.879493
0.122236
0.220467
-0.342703
0.981555
-0.73744
0.759578
-0.566396
0.152343
0.493878
-0.64622
0.20618
-0.366676
-0.652714
-0.144511
0.797225
0.0272899
0.139592
-0.166882
-0.453769
1.00121
-0.547442
0.772082
-0.488624
-0.283458
0.706159
0.0210596
-0.727219
-0.53018
-0.759989
-0.298709
-0.00415702
0.343114
0.583756
-0.013481
0.0736427
-0.0601617
-0.63945
-0.151055
0.662262
0.570626
-0.500862
0.596174
-0.0953123
-0.298302
0.266483
-0.00880377
0.337822
-0.329018
0.231795
-0.180779
-0.113806
-0.880713
-0.801115
0.257464
0.00898279
-0.177207
0.147462
0.06737
0.696886
-0.764256
-0.476052
-0.12629
0.45761
0.283871
0.0623186
-0.211448
0.0142638
0.167777
-0.18204
0.0894811
-0.33753
0.248049
0.279936
0.258574
0.182382
0.777477
-0.360721
0.847054
-0.437194
-0.0954567
-0.228797
0.324253
0.710717
0.070233
0.0325095
-0.62557
0.431733
0.35353
-0.368723
-0.510202
-0.544641
1.05484
-0.621402
-0.516811
-1.05335
1.09821
-0.0448617
0.175475
-0.355289
0.287859
0.521797
0.25568
-0.15115
-0.0463463
0.197497
-0.286848
-0.571171
-0.0565134
-0.682489
0.739002
0.430107
-0.206737
0.154043
-0.24046
0.549947
-0.872906
0.445463
-0.335036
-0.393947
1.26611
-0.87216
0.569714
0.474031
0.273959
-0.747989
1.0686
-0.628741
-0.439855
-0.453907
-0.65853
1.09891
-0.440383
0.308902
0.296255
-0.254373
0.247598
0.3989
0.76277
-0.182303
0.162725
0.0234094
-0.0304362
0.902082
-0.499942
0.434919
0.751902
-0.364273
0.187223
0.17705
0.204683
-0.449451
0.713126
-0.0474432
0.460313
-0.182791
-0.649702
-0.11205
0.761752
0.161747
-0.032414
-0.129333
0.113836
0.0901379
0.128896
-0.880092
-0.252584
0.274381
0.656597
-0.57118
-0.0854168
0.145114
0.33423
-0.124309
0.0675855
0.219517
0.215492
-0.435009
-0.473714
1.01408
0.100418
-0.540854
1.11275
-0.571892
-0.275297
0.398431
-0.180193
-0.0101979
1.04956
-0.517298
-0.329016
0.30586
0.290287
0.266997
-0.279365
-0.137408
0.11722
-0.268351
-0.114221
-0.00114509
0.451946
-0.13205
0.760521
-0.628471
0.111449
-0.0809066
-0.32481
0.0757095
-0.283231
-0.0154787
-0.846633
0.579263
0.212159
0.212534
-0.137793
-0.140886
0.278679
0.272537
0.0374482
0.785323
0.422869
-1.20819
-0.0752364
-0.0193304
0.0945668
0.27817
-0.715927
0.877221
0.471018
0.733871
-0.666501
-1.10655
0.0465049
-0.0270753
-0.117418
0.432779
0.559264
0.38248
-0.941745
0.331861
-0.0277197
-0.0326019
-0.288944
-0.075329
-0.475166
-0.429802
0.528077
0.610048
0.232605
0.53213
-0.546817
0.014687
0.157421
0.00703346
-0.0657084
0.216627
-0.0317296
0.675992
0.170265
-0.846257
0.309057
0.0369868
-0.19433
0.117544
0.0767858
-0.302784
0.000152491
0.302632
0.308891
0.532684
-0.841575
0.205236
0.2585
0.644081
-0.0165143
-0.228123
0.655739
-0.356827
-0.00947417
0.00666518
0.00280899
-0.935935
0.511389
0.778219
-0.62389
-0.154328
0.0113086
-0.110914
0.0996056
0.76198
-0.83387
0.499346
-0.0692384
0.326623
0.432956
-0.100478
-0.0137426
-0.417645
0.122256
0.295389
-0.561189
-0.0972699
0.998833
-0.510363
-0.48847
0.536358
-0.0824458
-0.453912
0.372248
-0.635419
0.263171
-0.0452427
0.467486
-0.00631922
-0.297025
0.699208
-0.402183
-0.285414
-0.132232
-0.331091
0.00704101
0.204927
0.678851
0.00571092
-0.684562
-0.296375
-0.0492913
0.161278
0.0387457
-0.00691121
0.420934
0.184328
-0.134501
0.160914
-0.0139288
0.0506432
-0.133175
0.129471
-0.349312
0.501655
0.0124528
0.19257
0.188736
-0.287411
0.695266
-0.0472523
0.579383
-0.121882
-0.0887174
-0.213496
0.433013
-0.190186
0.848513
-0.658327
-0.744721
-0.0992073
-0.554652
0.883712
-0.32906
-0.239499
0.24654
0.272361
-0.0561478
-0.0187249
-0.203951
0.222676
-0.765386
0.248088
0.0822606
-0.100729
0.462894
-1.12821
0.332458
-0.908042
-0.344211
0.910182
-0.419468
0.446867
-0.231375
0.012126
-0.588364
0.720609
0.000477059
-0.125089
0.139547
-0.488063
-0.0812139
-0.550406
0.63162
0.0223946
0.413445
1.20341
-0.787461
-0.415951
-0.188591
0.056497
0.177074
0.0190132
-0.196087
-0.719013
0.131356
0.148402
0.0264251
-0.00617305
-0.0971831
0.103356
0.38615
-0.940803
0.0758235
0.397829
0.0236256
-0.421455
-0.937377
0.747191
0.115614
0.0315061
-0.14712
0.297733
-0.877521
-0.111525
-0.00309965
0.114625
0.148027
-0.0324121
-0.00102772
0.641457
-0.493004
0.538198
0.433802
-0.228566
-0.798368
0.233882
-0.606021
0.480566
0.125455
0.51796
-1.02816
-0.443811
-0.265135
0.708946
0.0722179
0.34205
-0.258028
0.21367
1.04667
-0.146287
-0.900386
-0.00865983
-0.82165
0.646071
0.0600882
0.374093
0.411592
-0.126145
-0.00457756
0.112268
-0.248674
-0.290657
0.0604735
-0.0498022
-0.0106714
0.0203491
-0.666681
0.646332
-0.0423548
0.238559
-0.196205
0.343584
-0.86776
0.524176
-0.10336
-0.476656
-0.030712
0.03438
0.604038
-0.294807
-0.165648
0.460455
-0.310663
-0.36218
0.380486
-0.22369
0.321847
-0.153012
-0.168835
-0.358638
0.220845
-0.709227
-0.117235
-0.0160222
0.133257
0.103577
0.269043
-0.37262
0.0996528
-0.689583
0.589931
0.0109551
-0.478844
0.145987
-1.10125
-0.3933
-0.673776
1.06708
-0.847952
0.0379859
0.809966
-1.1586
-0.701914
0.014388
-0.228697
0.235956
-0.00725875
-1.10798
-0.308052
0.984044
0.322
-0.166837
0.070595
-0.284091
-0.145031
0.403531
0.119561
0.0701643
-0.321988
0.0124474
-0.0971069
0.0846595
-0.204252
0.0775649
-0.0643057
0.0756142
-0.226904
0.45023
-0.87668
0.549191
0.327488
-0.271136
0.265096
0.530226
0.160126
0.00162036
-0.242374
0.0912232
-0.422857
-0.225686
-0.466183
0.16502
0.301164
0.0714284
0.247247
-0.318676
-0.343083
0.432565
-0.0633914
0.630065
0.82866
-0.776704
0.488197
-0.79886
0.377345
-0.517577
0.140232
0.0766057
0.0014986
-0.110249
-0.0106055
-0.936356
0.537428
0.110604
0.425754
0.0129171
-0.159245
0.146328
-1.4097
0.578688
-0.0726884
-0.0848824
-0.157901
-0.0170682
-0.179888
0.196956
-0.478178
0.183371
-0.962793
0.848987
0.96317
-0.495535
-0.147342
0.131999
0.0153427
-0.0549737
0.0356157
-0.117698
-0.944858
0.316085
0.628773
-0.108625
0.0892944
-0.0547288
0.232553
-0.177824
0.322406
0.17694
0.166978
-0.154477
-0.0125007
-0.216393
0.228846
0.0814969
0.010867
0.514722
-0.756815
0.937644
0.0440359
-0.54062
-0.117311
0.852394