/*--------------------------------*- C++ -*----------------------------------*\
| =========                 |                                                 |
| \\      /  F ield         | OpenFOAM: The Open Source CFD Toolbox           |
|  \\    /   O peration     | Version:  2306                                  |
|   \\  /    A nd           | Website:  www.openfoam.com                      |
|    \\/     M anipulation  |                                                 |
\*---------------------------------------------------------------------------*/
FoamFile
{
    version     2.0;
    format      ascii;
    arch        "LSB;label=32;scalar=64";
    class       volScalarField;
    location    "2";
    object      p;
}
// * * * * * * * * * * * * * * * * * * * * * * * * * * * * * * * * * * * * * //

dimensions      [0 2 -2 0 0 0 0];

internalField   nonuniform List<scalar> 
13486
(
9.32099
7.36556
0.545146
-1.05828
3.10274
-1.22998
1.43362
5.3575
6.36122
2.86746
-29.3548
1.42685
9.85396
-1.59222
2.46379
3.28776
-30.6247
-0.212226
1.98137
8.38589
-0.963528
9.73796
7.1856
-5.08695
2.80813
-4.7735
-26.3886
-3.0594
0.00760311
-2.51929
-0.75858
1.71196
-6.2096
-1.90725
5.36877
0.0234695
0.0580504
7.69279
-0.23564
6.32761
1.14108
10.2334
0.0931079
2.75806
2.57185
1.32649
-42.7878
0.021156
0.0652264
-3.50136
5.12107
-0.342209
0.81936
7.78541
-0.389016
3.38632
0.208731
-0.367006
-5.96007
0.111619
-19.738
0.117362
-15.8733
-0.912898
-2.34148
0.0831696
-1.10234
9.31331
6.31561
-0.072123
-1.0973
-0.356134
6.30906
-23.1694
0.100113
0.252961
0.0944756
2.41831
-52.0648
-0.765457
0.00860478
7.3985
-18.1814
0.579261
9.3666
2.7489
-1.29347
4.82663
5.95266
3.20799
1.01061
4.6657
8.95674
7.92926
6.62257
0.00955001
-24.8861
-1.08136
6.21243
-34.0846
0.043163
-1.25626
-1.10381
-0.356144
3.43768
-35.7039
6.09132
-0.27046
-49.8049
4.28294
6.15526
1.50125
7.78185
0.177879
10.9461
6.43616
2.81824
-1.79946
6.38746
0.0671907
-0.253237
-19.7237
6.91473
-0.251882
6.11744
-0.337014
4.47992
1.08603
-1.52861
-2.10354
-0.307781
-40.1743
-16.9422
-19.7827
5.44358
4.76367
10.904
4.45076
0.0398196
5.48231
-5.15605
0.812468
1.58833
-0.760272
0.22369
-14.652
-0.392793
6.30876
-3.7298
0.00925718
3.20693
2.30127
-0.00961149
7.55634
1.3444
0.508643
3.59254
0.0407066
6.9776
0.296516
-2.78023
6.97136
0.308476
10.1747
-0.358575
-2.68701
-0.655432
12.6733
-0.286392
-20.062
-17.1687
1.40527
3.9951
3.30784
0.0209237
-2.29002
-2.48353
-6.16337
6.1072
1.6487
5.92313
0.18986
2.65934
-3.80823
0.559817
-3.09032
0.00961469
-2.36137
1.40085
6.74214
0.0452078
0.352815
-0.452396
7.75376
-0.56239
-29.6602
-2.14755
-3.02075
8.47708
-2.33762
-0.804066
0.985615
7.70271
2.63692
0.281154
-0.587886
-0.176206
6.78084
-0.38967
0.615583
-2.62704
-3.34177
8.25801
6.06117
-1.23154
-1.37127
-2.62332
3.39396
8.49256
-8.92067
-32.0941
-3.87824
5.62501
-2.97709
0.0619615
9.17034
-2.39228
-1.3349
-1.11074
-0.864064
5.84898
-1.03136
-5.37397
10.4462
-1.12767
8.7967
-2.02413
0.427871
8.88045
2.75108
-6.04769
3.88826
0.197548
8.41247
-0.150639
7.02183
2.83447
-3.49009
-23.5752
3.20651
-1.32124
11.0668
6.1983
-0.305228
-0.863068
-2.83703
1.62226
-1.33776
0.14208
-5.63243
6.66243
-0.126905
2.39955
-2.59817
3.57636
-4.00045
-1.12849
-0.860459
5.92967
-0.754367
5.90816
5.89231
-2.72923
0.931312
9.18421
-3.31459
-0.870845
-0.945731
-0.332089
-0.60797
-1.03426
5.19785
6.14108
-8.73448
-16.3844
-37.2391
-5.18364
-1.64492
0.0429045
5.95847
-1.09535
0.0955135
6.64097
5.48911
-1.94763
-2.21116
-2.95023
0.866498
6.32091
1.24899
0.19064
-0.217722
-0.373462
1.84279
0.0366533
2.70692
-0.88493
2.97796
-0.708321
0.0786017
-17.5896
-1.05112
-1.40348
1.47512
-20.0973
4.87977
0.110113
5.95411
6.81541
-1.27469
0.0810775
0.0353052
6.01068
7.97959
10.7825
1.13852
4.02235
5.07658
0.543802
3.71146
4.8803
4.42326
0.79438
8.49132
1.369
6.25996
11.3965
2.465
3.48176
-0.101612
-1.18986
7.88979
3.55929
2.73221
-3.99203
0.00629852
4.1973
10.9821
-8.9611
0.0931051
3.96645
0.610957
0.877331
-21.4162
6.24777
0.0449444
-22.7935
4.35632
-0.550002
-3.26883
2.11885
0.817126
6.80084
5.91048
-2.6154
0.0150938
-2.08866
-31.8503
8.47132
4.40671
0.0344455
4.27827
-0.0644798
-1.49577
-1.08603
5.27333
6.07187
0.0157532
-18.4625
-13.8568
5.80451
4.37146
9.82762
6.28802
-34.8646
-0.912855
0.040587
3.34154
-24.7949
-0.564038
8.11659
-3.0111
2.28265
8.92887
9.06109
0.0472568
-1.08732
-1.38691
-26.4084
-5.294
-25.1539
1.14809
5.5012
-0.922319
1.59833
-7.75909
7.79412
-5.83149
4.49164
6.88751
3.28849
-5.0138
-3.35891
6.31515
5.99359
7.46531
-2.96528
3.67466
-16.4539
2.86212
6.11179
0.958198
11.0225
3.64747
-2.67355
-2.27137
0.949446
6.11323
-28.184
-0.18981
9.63858
5.52543
2.22125
-0.0340106
2.99492
-4.00972
9.78026
0.070029
3.50061
9.14598
-32.7283
-2.78982
-20.372
-3.39174
-0.117867
7.41903
7.06575
9.69931
-13.8959
0.0492422
-4.53538
3.55293
6.07867
-3.41213
-6.13029
5.85198
-1.08562
-2.38431
-8.64526
-13.4472
-0.912855
7.82602
0.0112188
-0.0474757
-1.01152
5.70209
0.0261313
12.0193
9.08601
6.35533
5.17556
0.0149479
-0.00163677
11.32
-0.911703
0.0344638
-2.59038
6.3181
-38.7118
0.782391
4.0581
0.0283582
-3.26795
7.10495
-7.96949
-27.4974
3.71056
-0.608584
12.6245
3.77066
5.22054
6.67444
-2.37293
0.697348
10.0455
3.24557
8.04904
1.47103
1.3631
-0.923507
-0.733801
0.117053
-39.9767
6.23539
6.30661
-1.38813
0.0115356
-1.40741
9.16315
7.44325
-0.899633
6.41837
4.5797
-3.15499
3.64942
5.29768
-17.4739
9.66069
0.0957259
-0.0379001
10.1467
4.45532
0.0182024
4.07203
-1.03396
-1.04007
2.48367
4.10767
7.00984
8.98104
-9.34648
2.93442
-10.1412
-0.000808701
8.77933
1.43675
-3.17333
-1.13273
0.839103
0.0822946
5.12704
-2.19478
-5.7898
6.4341
8.39341
-0.841945
6.64856
-15.7788
-1.81129
-7.60879
2.17338
-6.24767
6.83034
0.647172
-17.0794
5.37757
7.39446
-5.4464
-8.24227
5.24858
8.75133
1.56378
9.40105
0.709429
3.86065
1.06756
6.88822
0.164614
8.51778
-23.0298
1.01978
6.09702
-1.38974
-3.13635
6.02089
-30.5996
0.92729
6.9085
9.72775
-1.28797
0.0491973
1.31849
0.481849
5.56209
4.16763
2.29716
-21.7075
-0.240922
9.30161
0.640232
0.073053
-4.46886
9.79421
-1.63634
0.211811
5.7493
5.05243
-0.72406
-1.98026
5.46108
0.527347
-2.57075
2.01075
-6.77359
9.47753
6.26897
4.26288
4.40748
-1.62309
-5.28585
10.6093
1.62217
10.6518
-1.24587
5.97976
0.0227298
-23.5045
3.95484
3.20745
11.1368
-2.80309
4.18366
3.87401
-9.6364
3.01235
-0.177305
-3.1459
6.11978
-7.73814
-3.03468
-4.04864
-1.57328
-1.53807
6.61854
-0.00670721
10.3619
6.26791
0.23442
-1.62571
-2.53682
1.72404
-18.2724
-1.93705
-37.7344
8.73509
0.00196288
0.228703
-6.11616
9.86461
0.0024685
0.131932
10.1471
5.21623
-2.15324
-0.807069
4.40223
0.173063
6.08572
0.201692
-1.51326
1.95566
5.65059
1.47065
5.03564
10.3022
0.204373
-1.70404
5.97022
1.17139
-1.41453
4.27591
4.31668
2.37154
-2.59179
0.645097
-0.0172054
0.535794
8.76125
1.54377
0.500264
0.60868
0.774254
-0.64341
6.08501
0.2526
5.97713
5.91109
8.5028
-0.242631
-5.4111
10.5579
0.0910778
-1.05323
6.50391
-4.17559
6.90965
0.172924
5.76587
-0.911188
-22.7467
-4.07784
0.0172773
-28.3219
2.98551
10.8559
-1.50733
-11.8646
-2.70111
6.25799
-0.826918
2.39311
-8.74712
10.7127
-2.36052
3.21189
-3.61855
3.3019
6.03342
1.89268
-13.0805
-0.827684
10.0188
5.98396
2.78141
5.58409
0.396864
4.90829
5.03863
3.30934
-18.3128
-0.854524
7.7145
1.46165
-0.377767
5.34734
-1.05039
-1.46013
-0.196723
6.68874
6.47125
-1.43351
0.647749
-1.861
-0.885617
0.5501
-1.49796
0.842735
5.76812
-0.902455
-6.63281
7.32721
-0.292124
-1.71247
-0.87465
-3.26176
-1.38337
-3.67466
-0.0637699
-3.53925
6.06657
9.82159
0.0360958
-1.72616
10.1752
9.53035
-1.2129
-2.24797
6.50315
-30.6244
0.235075
-0.788707
-0.183019
3.59502
-27.4798
2.37995
3.9064
-2.93615
-1.16286
-5.66065
-1.12565
5.41708
2.33111
3.98114
-1.49291
5.09123
9.3578
-56.5518
-3.18125
7.04878
2.43118
3.88819
-0.205309
-2.43572
-1.50628
-0.937424
6.23219
10.6607
6.80181
-1.86181
-1.0664
6.03936
9.07912
-1.96515
6.72003
6.08704
9.37636
1.58128
-0.058565
0.517061
-1.19568
9.39531
0.629616
-0.914166
4.13925
-0.869192
1.35827
-0.829614
-6.17004
5.70509
4.12498
4.00332
2.59812
-39.0223
-1.77339
-1.40333
3.61135
-7.19146
-3.70963
0.198232
-5.26162
-16.725
2.95676
-2.46452
-23.3711
-24.4827
-1.64431
4.77239
-33.0316
-2.26163
6.95379
-1.07667
9.76902
-1.36003
-23.8605
7.44552
8.81414
0.119914
-0.0305259
1.70518
6.25077
3.6622
-11.2379
-0.668778
0.0320414
-1.1319
5.77619
0.225602
3.34684
0.0254532
6.32748
-29.6482
0.208686
0.0364093
7.59135
-4.29319
-25.7786
-4.20083
9.65504
-0.720921
-1.79323
-35.3385
6.10748
-1.66749
0.0565136
1.33643
3.01124
-2.03204
4.29586
-2.34329
4.79716
5.83383
7.24539
2.46138
-0.102395
-1.63871
4.43563
-2.78535
7.56859
3.95595
-0.80959
-0.306881
-0.981139
-0.69805
0.0312981
6.95236
2.12689
1.0754
6.02508
-0.261818
4.98446
11.0139
-0.826177
-8.23985
3.94464
-5.00457
-0.163731
-1.05816
-0.99931
6.12852
0.191903
0.0863584
0.154977
-0.195972
8.047
-1.88894
0.0124365
6.05942
-5.84005
8.75356
7.04894
8.33202
1.48431
3.58625
1.7678
0.416944
4.75406
6.09657
-1.01822
-1.42605
-27.1114
-2.22384
-5.27508
6.16341
-11.3507
-6.02725
-5.12027
-0.997496
0.0110659
6.06929
-0.0126223
0.923453
-18.4961
6.04935
10.8942
-6.57541
-15.5891
3.16629
-0.23596
6.00046
0.246792
-0.173878
7.5309
-0.388898
10.327
4.20809
5.97359
-2.41069
8.08005
0.235886
7.09034
0.0922301
-5.66912
-2.40313
-3.08171
4.04737
-2.42289
-0.898888
9.70073
5.97425
6.56382
8.8331
6.69768
7.57568
-1.37512
6.54274
6.03031
6.2771
-1.23188
-2.34387
-3.52369
-6.29445
1.40499
7.04192
-23.4192
9.1594
-6.68472
0.231319
10.577
8.89119
-1.38958
-3.42011
6.26026
2.87125
0.350916
5.89735
-23.4934
-2.95223
5.98486
8.63488
-0.167537
6.93778
7.9903
0.0351383
-2.73597
8.00066
2.65566
0.0528258
-16.0488
0.565571
-5.88077
5.6382
3.9754
0.0938315
-0.537289
-2.77022
1.45176
-0.164164
1.33034
9.03965
-0.271144
11.8171
6.19412
1.89814
6.95986
-2.23031
-20.2777
-1.5594
6.10255
-0.206379
-18.1625
-0.782181
2.69409
3.35966
-0.0652555
4.59714
-24.4791
3.20973
-0.922006
0.0327666
4.96118
1.8078
8.09423
6.18442
6.35956
5.97457
-1.39818
-4.96271
-4.3103
0.590933
-1.40187
-1.34937
4.85505
-0.99852
-0.118439
0.0874223
0.138336
-8.79006
4.3393
2.60601
0.34901
-2.87853
2.95594
-3.81085
-4.2347
0.606516
-2.73825
6.92775
4.33043
8.0566
-20.177
5.37384
0.179267
8.71974
-1.26855
2.94503
-0.335096
-1.24648
10.1335
10.357
5.15425
3.58408
3.92188
5.76463
10.2521
4.31646
-5.5339
-7.36149
1.06661
-6.20639
-38.8744
6.00628
6.00943
-2.63502
1.87641
5.35103
5.62846
11.1494
-12.8927
4.61747
-26.768
-1.63343
8.85108
-0.916521
5.23849
-1.04779
1.47415
2.3341
11.6265
-0.238903
-3.50304
2.76111
0.718668
-5.37588
-22.972
-0.197344
6.76213
0.213617
3.56373
9.51762
8.7298
-0.603678
-12.2054
-0.0536503
0.726141
7.36807
5.91091
8.70069
3.7547
-33.8537
9.10842
5.73127
-9.97105
4.84251
6.18504
7.89027
-14.3123
-0.998492
-0.00490418
5.07015
10.0063
3.21885
0.15028
-5.76888
11.1985
-50.9244
-5.11059
10.4415
5.22967
-4.62684
4.97102
-1.08579
3.42426
-1.88714
-48.7219
-0.0584087
-1.72858
-0.0591336
-1.59659
-30.9204
-28.276
-24.7732
0.458644
-25.8148
-1.32543
4.59663
5.54039
3.48459
-27.2144
1.52489
0.5953
-1.4567
11.751
4.15714
-3.92963
5.23776
-1.91697
-1.87711
5.22303
5.21329
6.01039
11.8637
0.0264667
-0.942464
-5.07212
0.579073
4.29312
6.18738
-2.8847
9.247
4.04984
6.45025
-0.953454
-0.678052
0.276786
6.4938
6.08036
6.74515
6.03609
10.8616
10.7117
-1.99538
5.24166
7.87864
-3.81306
8.68874
-0.192605
10.588
8.61809
-0.108466
6.94651
2.71716
4.79953
0.376392
6.10877
-4.86757
5.42206
2.31818
4.33053
-1.1806
5.99516
-0.15514
1.37097
10.2242
10.2141
4.16599
-20.8288
1.46887
0.665757
-0.851856
4.80634
9.15445
-21.2699
6.27098
5.95975
2.983
6.44882
-3.4463
-1.08443
0.0894943
10.9884
1.86935
0.034396
7.01535
-1.17002
0.229786
2.6981
1.05623
4.4664
2.71649
-2.42644
3.63307
5.06335
4.11721
4.70841
10.744
8.78814
7.8071
7.00743
10.0093
3.02577
-0.243784
-0.302831
-7.6001
10.1004
-1.02473
6.16939
5.60016
-2.09671
3.25682
6.83611
-3.3846
3.03544
3.67429
12.0283
-19.9124
2.63315
-6.06017
7.18881
0.521153
-1.14098
9.91594
8.49626
6.01642
6.05656
-2.12037
3.11687
-40.6702
10.6891
0.0806701
11.5331
-0.283723
0.163014
-23.7401
3.5352
-23.13
0.745772
-0.378599
1.8215
-1.70862
1.78255
-1.18451
0.00041463
-1.3613
-19.4167
-3.05935
-12.2021
-1.79027
-0.592874
-1.04391
-16.6016
6.4248
6.54601
7.7123
5.90034
2.43546
2.33619
12.5987
6.01882
-31.6041
-0.00361026
-1.05547
4.50479
5.46607
9.2701
-5.33619
-5.20117
5.20864
-0.00207258
1.48842
7.6888
-21.5907
-3.15156
-38.4518
10.8131
-1.05921
4.23717
7.92423
-0.622078
4.97378
-0.0615343
-19.7408
-14.0997
0.224879
3.8682
7.42835
7.76958
-11.9022
-19.5141
4.23331
-57.2657
-2.51637
-1.47207
0.968527
-1.81948
-0.467421
-1.1646
-18.2191
-5.1183
9.58202
-0.994352
10.4145
-6.51684
-1.12107
2.32106
-1.09974
8.84415
6.17771
7.17624
-3.76045
-1.92317
-22.1935
8.55611
-19.4801
4.2605
-0.0274488
7.37998
8.80605
-0.0794918
6.04155
10.0298
6.84838
6.63498
-13.882
-0.528684
2.53121
-3.95187
-0.35865
3.85156
4.59081
0.555775
-29.6762
1.32386
0.255795
5.51288
4.71703
-2.76314
10.5548
0.600842
0.00968311
0.645679
5.84569
-2.20258
-3.04736e-05
6.78292
-3.81729
0.432728
-1.63578
6.63342
5.87677
5.57059
-0.388392
5.62529
7.0616
7.01066
-1.93848
0.22658
1.05082
5.36724
-5.56791
-16.1612
-1.73037
-8.51419
-1.08092
0.0511092
-0.334606
0.212147
-24.4577
-3.92105
-10.0681
0.243784
-1.90735
1.96812
-6.9415
6.4696
12.7582
1.76178
-1.36807
2.44294
0.36823
1.42853
0.0625823
-2.39214
-4.67439
0.719347
8.20353
0.00757727
9.85121
0.0779863
5.56129
5.14579
2.67402
-23.4361
3.78169
10.7907
-1.05713
5.89319
5.71664
9.22369
0.713481
8.45537
6.74732
-24.0901
7.17816
-21.7235
-49.9472
8.66255
5.25273
-10.8531
-0.408719
7.99556
0.938552
-2.92147
0.201206
0.165957
4.5555
2.95076
6.02199
5.8966
5.24281
-13.1246
-3.15676
-1.83092
5.88139
11.5505
-2.61295
-54.344
-22.4874
6.30834
0.642984
0.699279
2.85193
0.00315303
4.84363
-0.92457
1.42695
9.43026
2.31785
-0.436755
-0.794636
-1.04134
-3.84063
-28.0345
-5.13393
-3.35694
7.2662
2.97667
-3.42554
9.89536
0.00734035
-16.6286
-1.46492
-50.8658
6.75126
-17.9571
1.71817
6.2074
-0.399623
-1.99106
-0.982294
-32.8729
-1.17494
6.62748
-10.3377
-0.110009
-38.3439
5.73371
6.60065
-1.05581
7.84152
7.26845
9.49906
9.68768
6.92437
0.883369
10.9827
-40.92
6.10479
1.20776
-7.71175
7.46255
-1.53138
9.4004
2.60665
-7.3534
-18.4585
-32.7046
6.47584
-1.79468
-1.90264
-0.0563422
-5.55513
-0.373474
3.55085
0.830643
4.5422
10.8024
-21.9419
-4.75903
-3.80541
6.53424
4.4398
-3.2322
12.5642
-0.212809
0.234155
3.75328
-7.08329
5.68875
6.40956
7.13013
7.27888
-0.358492
3.34584
5.92442
1.2838
-1.0459
0.0203664
6.75759
6.9061
8.61778
-0.994135
0.486111
3.37259
3.48639
0.69157
-6.77775
4.92953
-1.2365
5.17874
6.23772
-29.1978
9.84626
-3.1894
10.5948
7.08053
-7.32093
0.0313063
0.093137
2.00255
6.37472
-4.60447
8.45077
5.67267
3.3451
0.160566
1.24713
-1.94192
3.36965
-33.7978
3.97436
-1.1304
5.87731
-13.5892
-0.441883
-1.75994
7.56677
8.95416
2.6421
-14.3276
2.70146
-0.681241
0.545967
3.11635
-0.946849
-0.885101
10.4277
-3.7178
-0.824628
-4.61142
-46.5415
-0.524019
5.99219
-31.9887
-1.54689
6.35078
4.00455
6.58486
-1.12036
2.72137
10.5002
-12.6506
5.79157
1.82215
-0.852641
1.81157
1.37419
-4.52814
10.745
7.11016
-6.85422
10.3662
8.08026
7.49329
-54.9625
-14.7287
4.14084
-8.04438
-0.543076
-13.2252
-7.10618
-12.4063
4.90512
2.27404
3.81169
4.17109
-0.81536
4.8078
5.92243
-44.3987
6.56588
3.56276
5.91156
-0.699975
0.0403617
-1.07701
-29.2071
-1.04458
-1.78306
5.85062
-8.13121
9.55082
-2.01692
5.70617
3.94792
0.104717
1.07234
6.31577
2.53508
1.16647
5.58194
0.0848026
-0.254092
9.06626
7.21385
-3.32635
-11.011
-0.146712
5.27533
-0.292912
2.92602
-11.0975
-0.198117
-0.754023
0.0502376
5.38115
5.3467
0.126277
2.49289
-0.491072
-0.0969602
-5.92113
7.58691
-1.02707
6.01387
0.0138163
5.08778
6.56052
3.22697
5.74894
0.129658
-1.21309
0.110018
-17.5848
-1.56247
-3.14162
-1.19998
-0.894753
4.72875
-0.627249
5.78631
-0.357919
-0.0711755
-10.5273
-0.169942
6.39262
-15.284
6.01695
1.43025
-4.56504
-0.194164
-1.05396
4.34584
6.0975
-0.104112
0.998363
-20.4603
7.34724
0.553916
1.78354
-3.54942
7.75771
2.96656
0.0863945
6.5334
6.44473
7.52732
0.734527
7.49266
-13.2791
0.228875
-1.04786
6.08894
3.70052
1.5188
0.728837
-6.33203
-3.75674
3.40122
0.450158
-4.27806
9.54615
-15.1608
7.41652
4.43092
-1.90337
-0.236673
0.286193
-0.598103
0.381332
0.733641
5.61289
0.136943
6.06394
-10.9799
2.73597
-0.829925
1.56256
-6.6377
7.8026
10.5479
6.6653
3.68189
1.49216
3.82367
-29.2451
0.0696709
-0.201627
-0.828651
-3.52398
-8.48129
-6.47675
-3.28155
5.51829
6.18166
-16.5994
1.53969
6.90645
-3.40193
-9.4234
6.50457
-0.257029
-21.1533
0.162462
-1.61084
0.0225977
9.79057
-0.141446
6.01525
-6.70702
-4.28284
-3.33951
6.04323
1.61847
5.18042
-5.70664
-4.20565
0.338773
1.26386
7.06458
5.43095
0.749161
-0.872678
-1.93262
10.9812
-0.953994
7.03735
7.79689
-0.87477
-0.348468
2.76474
-21.2454
-3.45744
5.17082
3.31961
5.95269
-1.78133
6.62248
0.431255
8.76448
1.30882
5.24798
7.76368
4.90468
0.935298
-2.4067
1.65474
-45.448
5.47566
2.51102
7.49103
0.218987
9.46834
0.930977
10.0791
-1.47792
7.86464
-1.26358
4.62633
-20.3153
5.7397
2.93435
2.23922
9.15549
5.9574
1.35443
-3.11991
3.51723
5.60345
-0.164964
-26.8231
4.43367
0.221652
8.03033
-1.0379
9.61568
1.23415
12.7439
9.62331
4.68424
4.19381
-20.8798
0.0451137
10.296
-0.154791
-0.620798
-0.714692
10.0524
2.77239
5.31604
8.5569
-4.39279
6.64955
-1.49335
7.41272
0.226376
7.03353
6.25645
8.65522
-0.251292
-50.6044
1.67906
-1.03851
2.84299
1.29602
-0.0147179
7.80382
9.04995
0.063087
2.2468
-1.34642
8.1679
5.07124
5.6898
3.53944
-1.00994
-16.0617
-1.01433
6.1818
-10.8712
-0.442841
0.0255332
4.37982
2.88186
-3.30616
10.8605
-0.746601
9.54854
2.04473
9.54112
-2.32552
1.38816
0.133934
0.255814
5.16721
5.87269
-0.812887
-0.464367
-1.29463
-0.445531
9.04526
-2.50932
-0.223452
-0.886356
-0.547051
2.37588
7.63425
2.977
0.226958
0.12961
5.9444
11.5698
-1.04505
0.314251
6.03548
0.0663264
2.77875
-0.048838
4.59678
-0.49789
-19.2765
-2.06245
-1.20548
-1.03017
-0.9998
-11.7892
-2.92992
-0.482985
4.58628
6.54994
5.15818
11.2359
-22.5799
10.0019
-18.7071
9.42724
-4.68852
-4.83368
10.8605
2.2357
-1.67706
6.32915
-0.255832
6.84687
-1.16277
-36.0475
0.905588
-3.08851
-3.52806
0.0230137
-0.910045
2.13833
7.78183
-5.67173
2.42702
-10.7889
1.37738
-0.827524
-0.153413
0.414581
-0.73333
-8.50281
7.90662
-0.0862177
8.75924
2.28353
-16.7678
1.74617
-5.96965
0.13328
5.06971
7.74106
11.1759
4.40152
5.014
2.94653
-21.9694
10.7861
11.6337
6.61264
-4.22942
-1.69653
-46.7116
5.72342
4.1413
2.23881
4.77375
-0.855361
-0.0726095
-41.6736
9.11667
0.110386
0.421634
-1.18915
6.04452
1.01699
12.4147
11.5672
5.44056
0.095344
1.74386
-15.0037
2.09451
11.9012
0.851189
0.12349
4.63049
0.0411372
1.07047
-1.19899
-1.85028
1.29697
0.428684
2.72405
0.0928698
1.62661
8.66257
2.21545
6.51796
-1.27828
-2.15274
10.5071
-9.92794
1.02528
1.78707
2.36972
0.591879
-1.04558
1.51119
0.26781
0.644604
12.5016
-23.8924
-14.9697
-4.14818
-4.83435
0.486053
1.79075
-1.06357
-11.4618
0.0721392
-15.3588
-5.5564
-3.93084
0.57907
0.363847
0.244041
12.1992
0.270636
1.69207
-1.0405
0.966193
-20.3319
-1.83468
8.39084
6.04266
1.73495
-0.613871
5.87557
6.53751
0.149682
-7.40578
-0.102628
8.34549
-3.41991
5.53178
-0.0272643
9.52226
0.234654
-1.39687
-0.178782
6.63347
-2.74944
5.28859
-4.5014
11.8065
-1.08318
-1.73162
-33.308
2.49417
-1.12683
-4.9413
-1.10961
0.732921
3.00972
-2.05662
-0.933993
-0.569047
0.908466
-3.0819
-5.64462
4.8599
-51.2099
5.38939
-1.16353
6.71849
10.7431
5.8862
-22.0413
6.30225
0.742572
1.03919
-0.63398
-2.38692
-36.7078
-0.114748
-1.96957
2.9577
-0.376534
-4.83226
-0.62412
-17.8427
3.11548
6.01564
-6.99029
-1.05447
-2.56881
0.0634869
-0.625931
3.68237
-13.1891
-1.11246
6.06544
-0.461954
3.74732
-5.3667
-24.1228
-8.06199
-21.6886
12.2065
1.92409
-3.91647
1.33281
10.0663
10.5298
-1.54441
-1.55156
5.94911
-0.0874105
-0.258337
10.3774
3.44875
5.60674
12.4262
-2.34342
2.03623
0.583804
9.26827
6.25445
6.46625
7.62868
4.09879
0.149658
0.351811
2.5471
1.33049
-26.2221
10.6669
-3.52792
-3.98846
0.0923021
-3.04866
3.06697
-1.21207
-1.67377
1.32693
6.50944
6.53876
7.15401
-29.468
9.07707
10.3815
-14.4946
3.79058
-0.826079
-0.905743
1.13531
3.37092
-0.830287
-3.45781
-4.12676
11.5553
-23.8896
7.18152
6.16389
8.29541
4.75752
4.88331
-0.567741
0.116435
3.85403
-0.340553
-54.8279
-10.1304
0.49052
-1.07926
7.61522
-1.96602
0.0368535
0.952861
-19.4411
-1.27209
-33.7888
5.425
-1.50612
-0.524923
2.42533
-5.14817
2.15833
-17.6194
-0.79861
6.57789
-17.6569
10.5804
0.0866229
11.2301
0.0142807
-0.265675
0.941765
5.20254
5.32215
-14.037
-0.782262
-1.71564
0.787873
4.38645
12.4257
8.33224
2.15001
-3.24642
3.31248
-0.412921
7.16064
-0.726863
3.40464
-1.02942
-1.14704
-18.8273
2.55827
0.149294
-19.0014
3.78003
3.82412
10.2946
10.9765
-28.3135
-35.4872
-0.599764
-6.35526
10.7572
0.385735
-3.08758
2.34777
4.20175
-1.11172
0.558156
0.139232
-0.2437
5.77802
-0.963016
2.02394
-7.89953
-4.76268
-12.4657
-2.10558
-12.3114
-11.271
6.89008
-1.71731
-1.31216
-1.60979
-0.092004
11.7123
4.7718
5.6027
-1.72031
3.17593
-0.544162
2.61021
1.57956
-1.06677
-16.0535
10.7273
6.50825
-0.452336
-24.178
12.1517
-1.2462
-13.2554
-0.991691
3.22265
-1.16178
-1.05573
9.20838
-0.832787
5.73965
2.16492
-1.06383
0.583101
-0.635396
2.98117
-13.0747
-0.260894
1.59208
6.07185
-1.07244
-17.3112
0.359593
-2.1819
-7.40738
-6.65062
11.3503
3.81896
-5.12225
3.03963
1.26936
10.0425
3.54747
-18.865
3.90739
7.79055
6.83845
-3.13678
5.26374
-0.521999
10.6407
0.121884
6.18615
-9.65179
-2.88478
0.0749069
-1.10699
3.84294
1.81817
-21.8353
-1.20341
7.31829
-0.305173
-0.772266
8.6449
4.66482
8.41976
5.54409
-4.42178
0.10189
-0.11119
6.15947
0.0128259
7.73748
4.96331
10.5305
-1.08636
8.19148
3.3643
10.5737
-1.05968
-4.37411
10.8564
-1.09287
4.90683
-27.5117
9.40662
10.4349
6.60862
-10.8104
5.90415
8.0193
-2.98
2.39503
-1.40911
8.59716
-1.13101
-0.724919
-38.7967
-41.9
7.87547
3.22164
-58.1717
3.21442
10.438
-3.76045
-1.38558
-45.7535
-5.19548
5.34809
-1.07032
5.71063
5.81296
-60.15
11.6997
-0.394818
8.80343
8.86495
0.344863
0.039872
5.54335
-9.63872
-1.32978
5.54469
4.7452
-2.65495
5.83339
-1.01424
9.09434
6.55885
2.41948
0.385622
6.98435
-0.776542
3.54354
8.28565
1.29967
0.0845259
7.99212
6.66885
-3.72559
-21.3336
4.87342
6.97569
10.625
-23.4446
11.2089
10.9278
11.3832
-0.838968
7.73053
-7.41385
6.03033
8.43758
8.06264
6.90844
9.1678
12.4127
5.1685
-21.7157
0.920987
-15.0767
12.2639
3.3292
-0.50317
-1.04275
5.64267
9.13138
5.86433
2.13584
-0.695878
9.10929
-13.6383
6.67684
-1.08199
2.50371
-0.118994
2.29625
4.01728
-2.90558
-2.42904
-0.751188
-2.10738
-0.86515
7.57273
-1.73517
0.590724
5.77451
-17.1829
4.05643
0.0859501
-14.7981
-10.5017
-19.6204
8.73564
9.34968
-1.19689
2.17243
7.97433
7.06962
0.101515
-3.90726
6.81215
-24.8536
8.54626
-12.8646
8.32764
3.66311
0.565735
7.703
4.05291
8.14216
2.25497
2.61266
-2.72843
-22.1969
-33.4714
-0.509108
7.98105
-5.70179
-1.27599
-5.85071
8.72631
8.09054
1.89874
4.63539
8.94918
-10.9537
5.90035
-1.25213
-3.14398
5.87396
-1.4427
-28.1796
-6.20607
-31.2454
-1.66574
-6.20562
-1.02434
-53.6967
-23.5716
5.10642
10.7005
11.6996
10.1705
-5.36395
6.74846
-11.5874
5.73609
8.90811
0.608801
7.84342
-5.94045
2.18045
-2.91828
-0.742705
8.56193
-5.16239
7.056
-34.5319
-2.00799
-35.5768
7.09139
7.00557
5.93753
-23.6984
5.83835
-0.965471
-54.1511
-49.2543
2.03804
10.7824
-13.5205
-1.6966
-1.15484
5.95784
5.7319
-0.359216
3.57402
-31.6934
9.08503
8.0959
-1.16551
-1.69474
8.90994
-1.51266
-18.746
-0.265267
8.09737
9.16803
-6.1406
4.5694
-1.26999
10.5051
-59.0716
-2.83619
-0.798544
9.88924
-0.304218
-2.53116
-0.495291
8.53196
4.67359
8.41918
-0.997648
-12.1353
6.91503
12.1356
-23.9928
5.72662
-0.497753
-58.2115
-0.445639
2.23065
-1.04234
4.49291
-1.04081
3.81276
-0.864585
-3.70944
7.69623
9.29285
5.81998
-8.91192
-2.91214
7.27218
-31.8387
2.4544
-3.33873
3.06091
-50.3869
6.55204
7.2648
-0.651857
6.8568
10.4284
-1.37946
5.18916
6.99498
-43.715
3.57686
-2.79592
3.08396
2.44983
4.61413
0.0133632
2.08538
-1.25001
-13.1445
8.74921
2.66144
0.457103
-1.66735
-1.24947
6.30984
-41.2916
11.3418
-20.0639
-37.5197
-0.56564
7.86116
7.03158
8.37865
-20.9544
10.031
-9.20452
5.07451
-0.141638
-18.711
5.52696
2.81608
-1.47079
4.28129
-14.5164
4.73518
-29.8876
-1.59098
-0.00328935
-11.3194
-13.4843
5.62719
10.279
-0.459332
-8.69179
7.98994
-11.7056
9.35094
3.11078
-0.115353
3.22752
6.07096
3.21943
-0.626297
0.540988
-0.409651
1.23481
1.97891
-21.3036
-1.25713
0.296224
3.88845
-1.24868
12.3072
6.71968
6.00048
9.45817
0.725079
6.82765
-5.84468
-29.407
-1.94443
6.03867
11.9995
5.75523
-4.86403
8.72352
5.96772
6.01816
-0.282432
-0.622289
3.28208
11.4064
0.56916
-3.73169
8.27492
8.94002
6.63779
6.09532
7.52952
4.25333
-1.01437
-2.68454
6.8159
-23.8918
-20.8661
6.0104
-2.22793
0.35548
2.26583
6.80296
7.07264
7.10877
-0.985942
8.32915
8.55815
1.27115
7.49911
6.53177
4.79213
4.50046
4.40363
3.16336
-0.385922
7.87059
7.46404
-0.405282
5.74244
-1.04776
0.0652144
10.1773
7.73072
0.00683732
-4.01607
0.184759
7.97256
4.51599
1.00662
-0.0944814
0.753266
-1.57708
1.07024
-1.11999
-1.38084
4.75983
-1.22516
-9.4375
-26.5693
9.64275
-1.03583
-16.0485
-1.53088
10.2841
-1.06734
1.30155
0.958449
-48.8641
4.70159
5.59881
4.03531
9.12142
4.94116
-0.237446
-18.2583
-2.98087
0.0325936
7.06012
-0.171907
-8.28288
-59.3863
-1.77607
-14.9407
-1.37212
-15.0952
-1.13074
2.01393
5.86942
8.14289
-1.55475
-0.971447
9.13322
6.84255
-5.27519
-1.31892
-16.0513
3.84878
-0.13949
3.36894
5.04461
-0.26504
-1.16938
-1.3589
1.34512
-7.76592
-21.0484
0.563357
-4.14332
-28.6738
-53.943
-2.1972
0.618477
-18.1571
3.13665
-9.07678
5.92092
5.26368
1.72737
7.95626
-5.27877
10.3512
-3.07991
0.0237434
-5.91831
6.09986
3.70124
-20.1269
-22.4474
6.13249
7.40533
10.7242
-5.66816
-26.3919
-4.14917
-1.00084
0.0345937
-24.7266
2.42635
-35.2769
3.61132
-9.96933
4.92308
0.683327
-0.535202
9.31648
5.49118
-4.9604
-0.0557833
-8.15254
-22.6573
7.93291
11.7539
-18.4465
7.67177
5.81127
-0.00105376
-0.796624
7.73594
7.37247
-17.0196
-1.00913
-2.0416
-5.37616
-5.57927
-35.4669
-5.06743
3.8612
-0.843546
6.68119
-19.6637
-56.3367
5.57855
-5.13164
-40.8949
0.0212205
4.53482
-44.7373
-3.17512
-59.8571
-18.4584
-38.0816
10.8957
-25.113
-1.44371
-10.5557
6.72463
-40.5937
-0.750631
-12.546
-23.9121
-2.8925
7.00897
0.0531544
-25.64
5.33095
0.0186773
-2.6245
-17.6004
-30.7761
4.49243
5.1542
6.05923
-37.898
9.3378
-2.03213
0.0124101
0.33679
-10.9202
-2.93637
-28.6703
-6.36064
1.2228
2.28421
-0.449425
-1.74947
-5.5101
5.82484
-15.2565
6.09657
-16.0905
3.62671
-1.63519
-0.494794
-0.506908
12.0735
-0.474095
-48.7049
-27.0464
-4.71081
5.9624
-0.0596907
-0.484211
0.215538
-55.6934
-4.68537
-22.6115
-32.267
6.8723
-48.8675
0.538986
-59.9092
-0.559962
5.36893
0.353488
2.8476
-2.57342
8.20336
-31.4968
-3.76732
8.77991
2.49132
-35.9301
-1.79139
-15.3677
-5.04548
-2.06936
7.96259
-1.59836
2.38055
-25.3239
-13.3709
-36.4614
-43.3418
-14.1663
3.84409
-1.28915
5.98547
2.05015
-12.2046
-2.83651
-3.66006
7.55676
9.27158
-50.4772
0.06244
6.55622
5.78166
5.00385
-4.99636
-9.24743
-9.68475
6.03332
1.48367
-5.05076
-22.3898
3.62402
7.26326
-1.46715
-0.147463
-0.0295558
8.65443
-7.46873
-8.01795
0.0276911
5.09532
0.062678
-0.515806
9.39028
7.63832
-0.30982
-5.51149
7.87631
2.79499
-0.819726
5.85779
-2.17831
-6.99224
-11.7433
-5.647
7.44017
6.69221
-0.730969
-3.37328
-0.85202
-0.161351
6.80326
-5.32086
4.85491
8.25499
8.8528
-1.45655
6.1243
5.54043
6.97134
7.36703
-1.11432
7.39582
0.00429988
6.02531
3.17841
6.62699
-2.60608
7.74169
7.41185
5.35177
3.84208
-3.31942
4.42402
0.238339
-3.99373
8.47789
8.12193
-3.57235
6.88483
-5.67737
-25.2294
6.71671
6.6538
-10.8028
-0.776995
-26.9544
-4.85779
-5.78057
-1.3078
-11.1896
-2.12143
5.6434
11.2019
7.8912
-1.65248
-1.05969
6.62621
2.91828
-0.802009
-6.77557
-2.77341
-7.98355
-22.993
-22.7987
5.69746
-1.53788
2.58644
0.138073
0.118388
-0.570305
0.143499
1.27104
3.23615
3.97075
-2.95264
3.20326
-12.0198
-11.547
4.276
3.11266
-0.569566
0.531067
3.89167
-0.257576
2.10894
-3.19222
6.00773
5.16114
9.89699
6.02604
-4.82031
-2.073
-3.2914
-2.56114
-0.12205
0.0298822
-1.15363
-3.84907
11.428
0.567064
-0.0861094
9.21085
-1.10414
-4.42529
-1.13464
-2.71303
-27.0117
2.01786
-6.43382
6.1172
-1.36715
-4.3368
-0.493766
-1.6551
-4.79417
-0.673461
-1.33185
4.59009
-1.08081
-1.28923
-6.96182
2.36764
-5.19491
6.60418
9.47477
-2.44006
6.74024
3.55942
4.21846
10.4198
-1.07001
3.5386
3.23139
2.48419
8.97579
-2.20679
-0.969892
-0.667649
6.52683
9.47093
-1.75834
-0.952798
-5.41905
-4.47382
2.92232
-3.60062
-10.406
-2.68489
2.16177
-24.3485
1.35709
1.94933
5.20672
1.03308
-22.153
-5.91884
-0.128986
-1.08512
10.0919
11.3071
8.40729
11.8596
5.30231
2.07852
7.09058
6.17163
5.4222
-4.41208
6.34339
-1.96501
-23.0091
9.1976
-1.29667
-5.32633
10.7774
-0.204325
-6.18828
3.03254
2.50648
7.49072
-30.9456
5.53843
9.86628
-1.0694
-24.5257
-8.73606
4.34426
-10.8773
8.04161
-0.970833
7.47613
5.9841
-1.25089
7.25579
-3.26982
-17.9148
-19.9159
-2.35494
7.56308
-4.80509
5.98726
-0.306296
-29.2025
0.0589356
-0.644523
-6.59937
-3.04762
-34.9949
7.65489
0.954612
-37.2026
-3.02434
3.76055
1.58902
-4.36319
2.75532
-0.0748652
2.82993
-43.3729
3.39899
1.29975
3.98165
-0.726422
5.77744
3.75134
1.58836
-33.0527
11.8406
-4.74634
-57.0124
5.84108
5.11426
-35.0514
-4.87786
-2.05554
4.01532
3.32868
-4.40649
-0.8144
-1.58069
11.7196
-1.64282
-1.2584
0.144056
-2.82168
4.33784
-1.50799
5.68124
3.72809
-11.7247
3.92104
-25.2895
5.05113
2.49232
6.25679
4.11935
0.0109311
0.017269
3.13465
6.66578
1.25732
0.547602
-46.519
-3.60287
-2.60785
5.1437
-52.0454
3.14497
-42.0242
7.56648
-33.267
-1.65387
8.18056
7.36416
2.45787
-1.14962
-16.3055
6.79779
0.123377
7.65704
3.1721
-0.421776
6.13375
1.71479
1.49507
0.988785
-2.57977
-3.64253
3.92696
-0.369582
8.37243
1.83475
11.9259
-0.378988
1.50146
7.44549
0.564455
1.61861
6.52752
5.30877
3.80645
-5.20407
-0.185482
5.86676
3.99985
2.26186
-5.84863
-1.04765
-2.4141
-36.2621
-2.89838
5.39342
0.294961
4.82798
-0.777878
10.1812
7.46132
2.11131
5.11036
1.94682
-37.6988
5.46677
4.56984
0.129828
2.56646
7.62995
6.83185
-0.351329
-6.44372
-10.1154
5.52766
2.90169
-0.334365
6.48897
-6.17545
5.7681
-15.0513
6.02376
2.72935
-0.311402
2.50746