/*--------------------------------*- C++ -*----------------------------------*\
| =========                 |                                                 |
| \\      /  F ield         | OpenFOAM: The Open Source CFD Toolbox           |
|  \\    /   O peration     | Version:  2306                                  |
|   \\  /    A nd           | Website:  www.openfoam.com                      |
|    \\/     M anipulation  |                                                 |
\*---------------------------------------------------------------------------*/
FoamFile
{
    version     2.0;
    format      ascii;
    arch        "LSB;label=32;scalar=64";
    class       surfaceScalarField;
    location    "2";
    object      phi;
}
// * * * * * * * * * * * * * * * * * * * * * * * * * * * * * * * * * * * * * //

dimensions      [0 3 -1 0 0 0 0];

oriented        oriented;

internalField   nonuniform List<scalar> 
20045
(
0.50289
-0.548585
0.0456952
-1.08389
0.376221
0.70767
0.329548
1.75563
-2.08518
0.151322
-0.213798
0.062476
-0.833647
0.818152
0.015495
-0.567359
2.17995
-1.61259
-1.01793
0.448964
0.568964
0.0696191
0.428889
-0.498508
0.466903
0.425851
-0.892754
-0.822059
-0.121884
0.943942
0.664329
-0.106024
-0.558306
2.24408
-1.10469
-1.13939
0.363988
-0.365801
0.00181323
-1.28569
1.08629
0.199394
-0.335022
1.06517
-0.730143
-1.09542
0.273365
0.22846
0.317647
-0.546107
0.8987
-0.681988
-0.216713
-1.72155
2.51418
-0.792626
-0.758816
0.0590123
0.699804
0.420473
-0.384207
-0.0362655
0.124055
0.239932
-0.128797
-0.955095
0.499283
0.873372
-1.37266
0.855929
0.190615
-1.04654
-0.93855
1.43783
-0.619179
0.628543
-0.00936401
-1.12541
2.15947
-1.03406
1.74207
0.226829
-1.9689
-2.0814
1.18139
0.900002
-0.131461
-0.340293
0.471755
1.44571
-1.00709
-0.438613
-0.851105
1.48663
-0.635527
2.22414
-1.28414
-0.940002
-0.55324
0.622859
2.22962
-1.10858
-1.12104
1.44465
0.236164
-1.68081
-0.0658865
0.39425
-0.328363
-1.97101
0.759732
1.21128
0.610792
0.508832
-1.11962
0.0605755
0.401061
-0.461637
0.158201
-0.221467
0.0632664
2.18427
-2.18372
-0.000552916
1.48436
-0.523122
-0.961235
0.670267
0.814089
1.0513
1.19278
0.00131927
0.576494
-0.577814
1.24141
0.569251
-1.81066
1.84408
-0.399438
0.124953
1.81204
-1.937
1.29567
-2.20062
0.904948
1.82519
-1.35885
-0.466333
-1.18931
-0.90403
2.09334
-0.0930109
-0.304202
0.397213
0.860284
-0.201531
-0.658753
-0.693269
-0.140379
0.0810953
1.47229
-1.55339
1.63343
0.0692205
-1.70265
0.777044
-1.62815
2.1123
-1.42497
-0.687338
0.63308
0.0360029
-0.669083
0.854824
1.25748
0.86146
-1.89384
1.03238
0.350111
0.0703614
0.69503
0.183245
-0.878275
1.63883
0.246819
-1.88565
-0.0677901
0.22766
-0.15987
-0.68452
0.165298
0.519222
0.846558
-0.379656
1.87044
-1.90724
0.0367977
-0.143472
0.0756822
-0.116223
0.976507
-0.253825
-1.03565
1.28947
-0.0687466
-0.176951
0.245698
1.812
-0.31372
-1.49828
1.37506
-1.29396
-0.0562501
1.86825
0.424747
-0.759769
-0.509307
-0.0855449
0.594851
0.4832
-1.15822
0.675025
1.0354
1.20506
-2.24046
0.916748
-0.704089
-0.212659
1.6662
-0.80474
-2.29326
0.427232
1.86603
0.0180604
0.484829
-0.536769
0.627828
-0.0910593
1.00761
-0.926736
-0.0808732
-1.61174
0.0765541
1.53519
1.04596
0.161723
-1.20769
-0.862283
0.781829
0.0804532
-1.46294
-0.233191
1.69613
0.721615
-0.123179
-0.598435
0.407934
-0.585998
0.178064
-0.145106
-0.834506
0.979613
0.589754
-0.624273
0.0345187
1.4838
0.40428
-1.88808
-0.467086
-0.152093
0.0202866
-0.269831
0.249545
1.22336
-0.612571
0.146434
0.439236
-0.58567
1.51924
0.710383
-0.478391
-0.807295
-0.306489
0.326776
-0.273019
1.90644
0.0264325
-0.563201
-0.556278
0.702712
0.438659
1.20223
-1.64089
1.21643
-1.7891
0.572667
-0.507987
-0.453782
0.39454
0.059242
-0.241008
0.30411
-0.0631017
1.24537
-0.895603
-0.349763
-0.49886
0.405849
1.30966
-2.13609
0.826434
-0.172045
0.322658
-0.150614
0.0521671
-0.29622
0.244053
1.18398
-0.328047
1.65218
0.57196
-1.15919
0.905368
1.38889
-2.0104
0.621509
0.602939
0.295761
0.499119
0.13396
-0.772305
0.630291
0.142014
-0.754578
0.0955813
-0.583244
0.487662
1.32386
0.501324
1.11364
-1.4148
0.301161
1.60577
0.171112
-1.77688
-2.03955
1.58872
0.450826
-0.403942
-0.663501
1.06744
1.93465
-0.610784
-0.246499
0.822993
-0.0546067
-0.0945487
0.149155
-0.138994
0.0378135
0.10118
1.14646
0.802344
-1.9488
1.20077
-1.15012
-0.0506481
-0.345834
0.196444
0.14939
-0.3216
-0.132183
2.25068
-0.86179
-0.647102
0.69299
-0.0458883
1.2441
-2.0636
0.819496
0.388183
-1.57749
1.14422
0.458892
-1.60311
1.26929
-0.78609
1.96692
-0.25885
-1.70807
0.348286
-1.54082
1.19254
2.19343
-1.82402
-0.369409
-0.273958
0.467979
-0.19402
0.0133897
1.97689
-1.99028
2.12633
-0.384261
-1.6551
0.0613988
1.5937
-0.945683
0.833241
0.112442
2.0261
-0.990703
0.348259
0.56849
-1.25779
1.52605
-0.268251
-1.42126
1.75081
0.0255998
-0.357963
0.332364
0.124269
-0.15369
0.029421
-0.0324619
-0.376141
0.408603
1.8331
-0.194802
-1.6383
2.59145
-1.25911
-1.33234
-0.443805
0.411343
0.666419
-1.35807
0.691649
0.189786
-0.0315856
-1.63187
-0.974053
1.37211
-0.398052
-1.33382
0.991346
0.342471
-0.0304627
-0.0559618
0.0864245
0.525821
1.6676
-0.176877
0.0378831
-0.132844
0.078237
-1.39155
0.133756
-1.46631
1.8629
-0.39659
-1.30437
1.50548
-0.201113
-1.20031
-0.844971
2.04528
-0.131664
-0.323323
0.454987
0.894605
-0.959834
0.0652289
1.5834
0.256533
-1.83993
0.026495
-1.50169
1.4752
-0.73016
1.87438
0.396576
-1.08479
0.688218
-0.806076
2.11573
-1.65957
1.0791
0.580468
-0.0050392
-0.0360231
0.0410623
0.760317
-2.23124
1.47092
-1.76453
0.639117
-1.22519
-0.806386
1.96094
-1.21088
-0.750058
-0.529013
0.589589
0.296523
-0.314231
0.0177081
-1.53572
-0.377674
1.91339
-1.60706
2.25935
-0.652293
1.85465
-1.28625
-0.568398
0.157643
-0.50445
0.346807
-0.443029
-0.986372
1.4294
0.152027
0.512302
-0.903817
0.499876
-1.3485
-0.457999
1.8065
0.212924
0.0558559
-0.26878
0.235239
-1.20929
0.309346
-0.440807
1.71203
-0.106262
-0.315289
0.249402
-0.308341
0.370448
-0.0621078
-0.167431
2.00053
-1.5261
1.08308
0.633353
-0.0316049
-0.601748
-1.37995
0.256375
1.12357
0.64884
1.20581
2.31483
-1.55452
1.3558
-2.26141
0.905605
0.442354
-1.36907
0.926714
0.0543082
-0.813125
-0.975777
1.41444
1.30799
-1.87535
0.506549
-1.33422
0.827674
-2.25531
1.26665
0.988663
-0.0499692
-0.812313
0.361988
0.28412
-0.646108
1.38768
-0.386769
-1.00091
0.667696
-1.36392
1.37731
-0.506605
-0.140496
1.24295
2.21547
-1.82512
-0.39035
-0.0212595
-0.268089
0.289349
1.33355
0.207155
-1.54071
0.349946
0.18707
-0.537015
-0.183255
1.20845
-1.0252
-0.0993272
1.10694
1.13204
-0.735467
-0.13397
0.351273
-0.217303
1.71642
-0.472317
0.212065
-0.0181754
-0.193889
0.308356
0.0762458
-0.384602
-0.247546
0.257111
-0.00956509
1.95591
-1.2665
-0.68941
0.461875
-2.06893
-0.272356
0.0248103
-1.74828
0.571069
1.17721
2.06106
-0.574431
0.494432
-1.96074
2.51168
-1.16236
-1.34932
-0.0309191
0.243843
1.72009
-0.681329
-1.03876
-1.2306
0.291239
0.939365
-1.94985
1.95921
-0.00936363
0.527033
-1.49804
0.971004
-0.141999
-0.00697242
0.148971
-0.960952
1.25897
-0.298018
-0.0619887
-0.174584
0.236573
-0.294029
0.121984
-0.285273
0.0442645
-1.24839
-0.54071
0.878842
-1.46605
0.587213
0.544155
-0.47423
-0.0699254
0.808164
0.637541
1.1822
-0.675655
0.0452249
0.0790443
1.27326
0.787806
-0.995426
0.0347092
0.960717
0.505895
1.21419
0.755146
0.310019
0.489952
0.0542027
-0.564151
-0.037016
0.601167
-0.0823248
0.0772856
-1.2917
1.10845
-0.392536
0.53314
-0.140604
-1.76949
1.69197
0.0775216
-0.826873
1.25292
-0.426044
-0.433334
-0.221653
0.654987
1.51736
-1.65248
0.135122
-1.36149
-0.893822
2.57704
-1.69317
-0.883868
-0.208451
0.187192
1.67674
-1.14971
-0.653414
1.53226
-0.180188
-0.506414
0.686603
1.62175
-0.221404
-1.40035
2.29188
-0.225873
-2.066
-0.762448
0.58226
1.63439
-0.951401
-0.682987
-0.329028
1.55801
-1.22899
1.15986
-1.44641
0.286545
0.206965
-0.580421
0.373456
0.741816
-0.101162
-0.640654
2.33403
-1.83493
-0.499097
-1.10515
-0.934396
1.56789
0.647581
-1.60702
-0.162475
-0.0911467
0.399503
0.348007
-1.59101
1.243
0.00890287
0.28762
-1.07934
2.2258
0.721812
1.2341
2.14315
-1.33188
-0.81127
-1.80182
1.34382
1.52637
-2.39511
0.868745
-1.2383
-0.0883592
1.32666
-0.452489
-0.35686
0.80935
1.15142
-0.485003
0.116509
0.516843
0.467862
-0.0433858
-0.963707
-1.41315
1.96507
-0.551919
-0.357617
0.0492759
-0.122618
-0.0113521
0.266656
-2.2165
0.976388
-1.07571
0.308363
-0.472179
0.643657
-0.171478
-0.00925335
0.160576
-1.02492
0.744716
0.280209
0.686432
0.558934
-0.854038
1.28716
-0.433118
0.979867
0.220902
-1.27411
1.62212
1.16913
-0.123166
-0.393654
-0.986295
1.89785
-1.37781
-0.520049
1.875
-1.80597
0.57818
1.22779
1.58328
-1.72205
0.138763
-0.847367
0.70226
-0.228838
-0.116996
-0.229958
-1.23298
0.556575
-1.07813
0.521559
0.833124
0.801265
1.52183
-2.20247
0.680636
0.439205
-1.06341
0.624205
-1.94894
0.337196
0.018079
0.703536
-1.16084
1.78862
-0.627783
-0.519787
0.623055
-0.103268
-0.799459
-0.218468
-0.257334
-0.443249
0.700583
0.192199
0.00175698
-0.193956
-0.661318
-0.284366
0.746554
0.888639
-1.63519
1.64193
-1.13604
0.60615
-0.889933
0.0425663
0.916095
-0.47689
-1.32236
-0.337213
-0.185843
0.0536732
0.13217
1.93276
-0.691349
-0.884747
1.47505
-0.590301
-0.238784
0.276154
-0.0373703
1.48651
-0.0988238
-0.456293
-1.13471
-0.981284
1.81573
-0.834448
1.36929
-2.24805
0.87876
1.09723
1.47981
0.528156
-0.388873
-0.139284
0.183146
-1.42145
1.3572
-2.05982
0.702614
0.313109
-0.381855
-0.138072
1.25172
-0.132824
1.10921
-0.92265
1.365
0.406565
-2.12811
-1.82007
0.993195
0.826871
1.29063
-0.211587
-1.07904
1.86751
-0.350146
-0.814749
-1.07234
-0.946858
0.876647
-0.430558
-0.357897
0.788455
0.637501
-0.578489
-1.40458
1.26651
1.73122
0.453052
-1.5512
0.666458
2.22174
-0.653856
0.26391
-0.197277
-0.066633
0.00130307
-1.21162
1.21032
-1.79914
0.337347
1.4618
1.60467
-1.60467
-0.50099
1.68679
-1.1858
0.658957
-1.51299
1.34538
-0.823555
-0.521823
-1.81727
1.88495
-0.0676797
0.669841
-0.0928287
-0.577012
0.529187
-0.218512
-0.310675
0.225408
-0.658742
-0.677057
0.947307
-1.60072
-1.63444
1.94185
-0.307408
-0.568833
1.31539
0.0113808
0.0272999
-0.0386808
-0.235419
0.425
-0.189581
-0.756831
0.811139
2.02089
-1.63415
-0.386744
-0.181892
-1.04068
1.22257
-0.461513
0.502256
-0.0407432
0.24503
-0.557966
0.312936
-2.08777
0.869896
1.21787
-0.155185
-0.0586135
0.243416
0.0204938
0.179932
0.107086
-0.287017
0.97174
1.36229
-0.126596
0.137976
-0.118133
-0.569458
0.687591
-0.97888
1.56779
-0.588913
-0.0250324
0.181816
-0.156784
0.860022
-0.411058
1.58818
-0.0849358
-1.50324
0.00191925
-0.836425
0.054055
1.52934
0.831341
0.608902
-1.44024
0.934187
-0.829898
-0.104289
-2.03452
0.379419
-0.845
0.368404
0.476596
0.809037
1.04734
-1.85638
-1.2512
1.16284
0.121171
-1.81751
1.69633
-0.257759
0.415402
-0.030789
0.00506561
0.0257234
0.0393891
-0.60354
0.222774
0.00527905
-0.228053
-1.34279
-0.405492
1.22873
0.283816
0.0789891
-0.362806
-0.249212
0.0104286
0.335949
-1.41556
1.07961
0.409997
1.07847
-1.48847
0.629065
-1.395
1.69737
-0.30237
-1.45099
1.12196
0.227346
0.401197
-0.790391
-0.543426
-0.50807
0.130298
0.377772
-1.7104
0.731523
1.32496
-1.50685
0.772821
1.44892
-0.585941
0.598318
-0.012377
0.671146
-1.65793
0.986787
0.298843
-0.537252
0.238409
1.10286
-1.55915
-1.27218
-0.0321847
-0.627557
-0.0569628
0.0743087
0.561427
-0.635735
0.659407
-0.00704308
-0.105037
0.11208
1.73412
-0.925081
-1.58522
1.65877
-0.0735544
0.516176
0.360007
-0.876183
-0.739405
0.481646
-0.425998
-0.0820719
0.749583
0.595795
-0.515886
-1.49452
0.0341096
-0.219953
1.22459
0.84136
0.327768
-1.70929
1.83424
0.179484
-0.908019
0.728535
-0.175052
-1.65076
1.82581
0.150854
-0.159324
0.00846952
0.445844
-0.577508
-0.324677
1.48454
1.62754
-1.27926
-0.851528
-0.173397
0.0164219
-0.811801
0.795379
0.80524
-2.00555
-0.221621
-0.950808
1.17243
0.0829372
-0.333863
0.250925
-1.30656
0.112629
1.19393
1.90726
-1.33801
-0.0371403
0.173865
-0.136724
-0.425428
-0.0360854
0.357135
0.703728
-1.06086
0.233633
-0.292242
0.0586094
1.29948
0.754131
-2.05361
-0.798033
2.28183
0.187532
0.00466744
-0.505724
-1.12144
1.62717
0.796893
1.45379
1.79038
-1.38038
-0.695151
0.437817
0.638281
0.103535
-0.793912
2.32028
0.273584
-1.53764
1.26406
1.86392
-0.285367
-1.57855
-0.910868
1.41569
-0.504822
0.80539
-0.704794
-0.969763
1.67456
-0.450399
0.226556
0.223843
-0.574526
-0.961565
1.53609
0.162334
-0.397754
0.0651875
-0.0956502
1.01398
-1.58851
-1.40612
-0.420836
1.82696
-0.13611
-0.939077
1.07519
0.166629
2.3458
-2.40551
0.0597167
0.429826
-0.299729
-0.130096
0.0194312
-0.605372
0.526516
0.453097
-0.623115
0.170625
-1.59287
2.00797
-0.4151
0.0464307
-0.438967
0.717101
0.552188
-1.68356
-0.500161
-0.0911687
0.690021
-0.598852
1.07977
-0.238406
-0.403856
0.446348
-0.0424921
-0.277501
0.215512
-2.30986
1.08467
1.8268
0.353147
-0.257907
0.502936
-0.401715
0.917891
1.57791
-0.630604
-0.419144
0.0152883
-0.184828
-1.21975
0.461237
0.445694
-0.420094
-1.83415
0.035008
0.0899302
0.422738
-0.123895
-1.98414
1.25457
0.729574
1.57304
0.297405
0.374837
-0.121957
-0.25288
0.540778
-0.510546
-0.0302315
-1.73433
0.62575
-2.01213
1.03085
-0.510636
0.43084
0.0797953
0.0185403
-0.157635
0.139095
2.13647
-0.00184831
-2.13462
0.330211
0.0184086
-0.348619
-0.263421
-0.508884
0.449929
-0.0419943
0.147153
-0.189511
0.0423576
0.760751
-0.1204
-0.640351
-0.120185
0.267339
1.68392
-1.27964
-0.0601936
-0.281231
0.341425
-2.01876
0.425899
-0.0668121
0.0483305
-0.35482
-0.223051
0.506867
0.00241177
0.0428132
0.486982
0.302848
-0.78983
0.832462
-0.137433
0.852046
-0.672562
0.418269
-0.366102
0.128814
-0.648601
1.17386
-0.0920946
-1.08176
1.07874
-0.0840574
-0.994685
-1.21875
-0.32207
0.254668
-0.132363
-0.122306
0.776919
-0.890095
0.113176
2.16306
-0.0546381
-2.10842
0.177395
-0.321505
0.14411
-0.966215
1.28939
-0.323176
0.958544
1.19553
-2.15408
-0.646427
0.68243
-0.513255
0.849199
-0.335944
0.427103
0.183054
-0.610157
-1.80761
0.871037
0.936571
-0.207303
0.0177919
-1.6763
0.270172
0.601881
-0.370029
-0.231852
0.937217
-1.21117
0.27395
-0.168203
-0.380382
0.337291
2.00851
1.63437
-0.274203
-1.36017
-1.65054
0.25554
0.679035
-1.07269
1.35273
-2.16336
0.810636
-0.198548
0.560535
0.0610701
-0.795977
0.677844
-0.316905
0.412486
-0.224179
-1.49814
1.72232
0.738636
0.938104
-1.46601
1.55393
-0.0879179
-0.458263
0.532572
-1.29788
-0.513997
-0.230954
0.258021
-0.0270664
0.356958
-0.663454
0.306495
0.0715519
-0.0441067
-0.0274453
-0.165819
1.10304
-1.62789
-0.247423
1.87532
-1.48558
-0.476486
1.96207
0.944848
-0.705968
-0.23888
-0.387873
0.0435288
0.344345
-0.0615254
-0.443859
0.505384
-1.93594
0.0823697
1.85357
0.0502738
0.366801
-0.417075
1.57433
-1.76997
0.195639
-1.01201
0.998613
0.188627
-1.18724
0.0215324
-0.252487
-0.432887
-0.781789
1.21468
1.236
-2.04208
-1.89575
1.64809
0.247664
0.276235
-0.0426025
1.28085
-0.563745
-0.112432
-0.477353
0.589785
-0.0181042
0.292761
-0.274656
-0.604122
1.82844
-1.22431
1.24164
-1.53901
0.297369
2.0088
-1.91583
-0.0929747
1.57155
-0.65675
-0.9148
0.0847174
-0.438771
0.354054
-0.567707
-0.0155361
-1.89859
1.66752
0.231074
0.127124
-2.02571
-1.22925
1.66024
-0.430987
-1.14912
-0.685806
0.365194
-0.321719
-0.043475
-1.58576
-0.433002
-0.351044
0.231338
0.119706
0.508408
-0.158462
-1.83295
1.7468
0.0861527
-0.434845
-0.20687
0.0299192
0.353998
-0.0237875
-1.1998
0.238843
0.254691
-0.312054
0.0573632
-0.861218
0.708132
0.153086
0.699375
-0.0295341
-0.506835
1.25332
0.233185
0.735848
0.158699
0.549066
-0.707765
-0.209945
1.10455
-1.20726
0.768433
0.438826
-0.132118
-0.0751851
1.66391
-0.925271
1.38809
-0.71694
-0.462936
-0.349031
0.811967
0.646278
-1.52409
0.877809
1.08062
-1.21673
1.96194
-0.856046
-1.1059
-0.00940242
-1.0114
-0.195863
-1.54977
1.9669
-0.417128
0.0573915
-0.548403
1.90421
-2.08793
0.502172
-0.263822
0.470786
-0.215118
-0.647447
0.26499
-0.00787884
-0.978165
-1.02987
2.29416
-0.919105
0.625375
-0.252432
-0.372943
0.127954
0.401233
-1.31485
-0.724072
2.03892
0.446114
0.705309
-0.00638387
-0.275284
0.281668
1.63302
0.0911115
-0.0840829
-0.00702858
1.09251
0.0813484
-0.719864
-1.97173
0.337287
-0.421407
0.0198244
0.401583
1.13097
1.38071
0.52051
0.131649
-0.652159
1.92168
0.0871261
1.17359
-1.66444
0.490843
-1.63231
-0.015335
1.64765
-1.54643
2.00847
-0.462042
0.266998
-0.00913829
-0.25786
-0.779633
2.01563
-0.0114534
0.487887
-0.476433
0.0715592
-1.53757
0.390631
-0.0738619
-0.316769
-1.82363
2.36614
-0.542508
-0.481591
1.05843
-0.576835
2.32594
-1.02554
-1.30041
0.00374961
-1.18925
1.1855
-0.00649775
0.0115634
-0.947803
1.90635
1.11373
-1.61472
2.17825
-0.808965
-0.355776
0.295582
-1.70877
0.0764564
2.32333
-0.801494
-0.0534116
-2.23985
0.453848
-0.0527869
0.528699
1.07613
-1.60483
1.08444
-0.249334
-0.835106
1.34658
-1.93527
0.588694
-0.295153
0.0205478
0.274605
-0.396815
-0.9205
1.31731
0.698371
-0.569557
-0.926526
0.346507
0.580019
0.274164
0.558357
-0.832521
0.155298
0.209896
-1.70318
2.01531
-0.312134
0.152339
-0.00148529
0.877634
0.40103
-1.27866
0.977327
0.758673
-1.736
0.306338
0.984292
-0.036991
2.00391
-0.00495709
1.57401
-1.56906
-0.0233078
-0.00172461
0.034111
0.275354
-0.309465
1.37188
-1.26099
-0.110894
0.885694
1.07625
0.35951
-0.464705
0.105195
-0.559277
1.59936
-1.04009
0.0292996
0.29309
-0.32239
0.709021
-1.40736
0.698343
-1.15867
-0.445591
1.60426
1.61523
-0.281678
0.590687
0.493753
-0.900379
-0.170366
1.07074
0.576796
-1.61747
-0.479755
0.638662
-0.158907
0.363517
-0.151184
-0.212333
-0.0574549
0.0509571
-0.180187
1.56314
-1.38295
-0.235963
2.04801
1.53171
-1.24114
-0.290574
1.2499
-1.08818
-1.05731
0.335112
0.722193
0.0882959
-0.911851
-0.397429
0.30725
0.0901793
0.1134
0.261438
0.291619
1.46479
-1.75641
0.399309
0.361441
0.246061
-1.73164
-0.852419
0.355672
0.496748
-0.617737
-0.475252
1.09299
0.926496
-0.439514
-1.67204
1.1032
0.652873
-0.522571
-0.130303
-0.970796
1.53373
-0.562937
-0.879395
0.881314
-0.836587
1.09214
-0.255554
-1.27287
1.77881
-0.505936
-0.0436753
0.40411
-0.360435
0.213912
-0.195372
-0.625202
-1.24902
1.88576
-0.636745
-1.07476
1.33114
1.00291
-1.02913
0.0262187
-0.027956
-0.405386
0.433342
-2.21292
1.61192
0.600993
-0.0402665
-0.0350703
0.0753368
-0.0473177
1.18269
-1.78681
1.41142
-0.765147
-0.744826
-1.07524
-1.39476
1.38981
0.98943
0.00191565
0.74224
0.292633
-1.03487
-0.630128
0.585432
0.0446966
0.625401
-0.526627
-0.0987741
0.217278
-0.827408
0.61013
-0.421051
0.997074
-0.576024
-1.49359
-0.438051
1.93164
0.355954
-0.38391
1.09858
0.273297
-1.76485
1.3661
0.398746
0.647351
-0.21985
-0.427501
0.0089573
0.338705
-0.437808
0.0991028
-1.29088
-0.68859
0.905867
0.260614
0.379686
-0.294969
0.606059
-0.2491
0.337714
-1.00122
0.0614165
0.528337
-0.721878
0.520325
0.201553
-1.13905
-0.881656
2.0207
-0.167786
-0.732593
-1.01477
-0.165777
1.18055
0.260962
0.338124
-0.599086
-0.0908888
2.21839
-1.42915
-0.78924
0.33092
1.30345
0.121644
0.872402
-0.805649
-0.0667526
-0.565762
1.51718
-0.951419
-1.11107
-0.467563
1.57863
-0.872258
0.359003
-0.817596
-0.23971
2.13691
-0.911859
-1.22506
-0.329018
-0.0508267
0.379844
0.765703
0.101609
-0.867313
-0.316252
0.366526
-0.163522
0.445195
-0.281673
0.173122
-0.0446713
-0.399134
-0.017425
1.23045
0.906465
-0.949688
1.70942
-0.639399
1.82079
-0.394823
0.0658052
-1.65549
0.544426
1.42473
-1.24158
-0.195747
-1.21738
0.251163
0.235235
-1.46449
1.3999
-1.39859
1.63187
-0.0485888
-0.375651
-0.210347
-0.549254
-0.161768
0.711022
-0.565727
-0.0585461
1.4345
0.275916
-1.71042
0.0569579
-0.496307
0.439349
0.0234352
0.623739
-1.821
1.19726
1.69883
-0.124492
-1.75481
1.83467
-0.0798641
0.421918
-0.25662
-2.02464
-0.188276
-0.661686
1.73407
-0.066556
0.607115
2.19994
-0.832104
-1.36783
-1.21913
-0.111796
1.33092
0.247829
1.03262
-1.28045
-1.37273
0.0661717
-0.340769
-0.279483
0.620251
-0.930967
1.20455
0.276769
1.01668
-1.29345
-1.39912
0.409013
0.99011
-1.84446
0.199365
1.6451
0.431514
0.979911
-0.432306
1.04975
0.521799
-0.573268
-0.271732
1.45368
-1.71253
-0.102348
-0.654745
0.757093
-0.881998
0.235571
1.32688
0.0840634
-1.41094
1.20342
-1.84282
0.0075981
-0.149597
-1.12912
1.83596
-0.706841
-1.18375
0.750868
-0.0258151
0.518432
-0.492617
0.221791
-0.517739
0.295948
0.499527
-0.0536825
-0.478776
1.15781
-0.0694485
-0.441187
-0.286695
0.308228
0.635559
-0.448489
-0.0971385
0.090166
-0.368111
0.353904
0.0142072
0.379356
-0.430725
0.0513687
-1.39706
1.08334
0.228408
-1.24318
-0.0161499
-0.512863
0.0420517
1.05492
-1.09698
0.608127
-0.645143
0.563619
-1.58142
1.0178
-0.678115
1.30253
-0.624413
0.474672
-1.88782
0.109954
-0.0508758
-1.84488
0.905549
1.38861
-1.46594
-0.206095
-1.29959
-0.506383
-0.779515
0.336266
0.38739
0.274438
-0.661828
2.24549
-1.11452
1.79644
-0.439232
-0.442681
-0.289231
0.731912
-2.05226
0.811161
1.2411
0.507285
-0.613309
-0.164802
1.16342
0.298089
-0.174034
-0.997238
0.457195
-0.468649
-0.686445
0.728545
-0.0421006
-0.23541
1.66991
0.352335
-0.320413
-0.031922
1.68104
-2.50591
1.15807
1.34784
0.459922
0.367046
-0.826968
0.933816
-0.192501
-0.741315
-0.99129
0.509699
-0.720572
0.017372
0.748331
1.76838
-1.94343
0.764141
-0.337038
-0.768359
1.34515
-1.95734
1.3958
0.561547
0.775418
-1.47416
0.698742
-1.37277
1.44513
-0.0723627
0.814319
-1.02426
0.0261387
0.454252
0.490596
0.0855188
-1.24374
0.373364
-1.75667
0.797347
0.959327
0.466573
-1.6857
1.44918
-0.0937371
-1.13687
0.247229
0.46962
2.02659
-0.676864
-1.34973
-0.79821
0.506565
-1.1243
0.283991
-1.88185
1.77005
-1.45208
0.747288
0.931934
-1.41299
1.55778
-0.144793
-1.7477
1.173
0.574691
-0.548222
-0.208177
0.291114
-1.91861
1.33843
0.580176
1.20773
-1.98736
-1.66763
-0.0355453
2.16082
-0.808091
0.643314
0.241947
-0.885261
-0.0431619
-0.27663
0.319792
0.050845
0.953761
1.05081
-1.62866
0.215675
0.338965
0.359406
0.453955
0.660952
-1.11491
0.708225
-0.424105
-0.0794284
-2.09027
2.16969
-0.641172
0.82308
-1.55324
-1.17502
-0.789006
1.96402
0.468833
-0.592012
-1.27826
0.402428
0.875835
-0.00964284
0.0271093
-0.0174665
1.63365
-1.85782
0.517863
-1.64698
0.889384
0.564505
-1.45389
0.398384
0.226991
-1.54916
0.434024
1.11514
-1.66164
0.50297
0.953367
-1.51913
0.765626
-0.867974
-0.005025
-0.00461783
-0.0845515
1.94847
-1.1656
1.4507
-0.285099
1.8994
-0.00038232
-1.89902
-1.39403
-0.012959
-0.45922
0.107744
1.49693
0.217974
0.0581801
-0.0404847
-0.499508
1.15846
0.972436
0.184311
0.44109
-1.70812
-0.124836
-1.7172
0.81867
-1.5
0.318857
0.349185
-0.668042
1.65632
0.0915619
-1.74788
-0.199306
0.190167
-0.622564
-1.38957
-1.49794
-0.224109
-0.684668
1.88809
-0.636257
0.861622
-0.225365
-1.67138
0.532334
-0.51826
0.972215
-0.763143
-1.221
-0.534351
-0.602508
0.667736
-0.868607
0.00738883
2.00602
-0.271952
0.604655
-0.191467
-0.413188
0.191655
0.159618
0.469003
1.93691
-1.81574
0.00748828
-0.416729
0.594792
-0.949595
0.984304
-0.844396
-0.946292
0.391368
0.325098
-0.716466
-1.65231
0.047637
-0.222939
1.45468
-1.23175
-0.175054
-1.57975
-1.32855
1.53571
2.42977
-1.05434
-1.37544
-0.255005
0.623409
1.58851
-0.85941
-0.729098
0.479823
-0.524494
0.243476
-0.209365
-0.399339
0.0886117
0.310727
-0.267932
1.01017
-0.798302
2.00603
-0.0646662
-0.257053
-0.512881
-0.141389
0.65427
-0.0206932
1.65434
0.297853
0.38716
-0.685013
-0.701634
1.05877
0.801494
0.797869
-0.639171
-0.213248
0.956797
-0.340486
-0.616312
-0.119651
0.044817
0.0748338
0.22284
-1.50403
1.28119
-1.75038
0.252436
0.403333
-0.719112
1.53778
-0.00944576
0.489268
0.214218
-0.850475
-1.93339
0.986537
-1.88465
0.62554
-0.82857
0.0717389
-0.797859
-1.08008
1.87794
-1.87219
-0.332878
0.460844
-0.127965
1.69237
-1.26513
1.40001
-1.15218
0.294433
0.974592
-1.26902
0.397269
-0.738038
-1.36309
-0.444924
1.80801
-0.240938
0.584297
-0.343359
-0.778701
1.64417
-0.865472
1.55786
-0.969728
-0.588135
1.59008
0.0389026
-1.62898
-1.01589
-1.49002
-0.612314
-0.0152431
0.695059
1.23959
-0.0297405
0.163965
-0.134225
-1.25148
-0.297685
1.3613
1.15287
-1.00148
1.1876
-0.186121
0.0315377
-0.115621
0.195475
0.728213
-0.923687
0.0269611
0.325374
-0.208857
-1.70975
-1.6688
0.648102
0.00477096
-0.268133
0.577478
0.136141
1.38475
-1.52089
-0.97335
-0.226446
1.19538
0.446553
0.130381
-0.451981
-0.355257
-0.363308
0.718565
0.190529
-0.678021
0.487493
0.542777
0.710139
0.387202
1.53116
-0.698033
1.70423
-0.881151
-0.19889
-0.458451
0.657342
1.41088
0.147129
0.050633
-1.23783
0.841018
1.19324
-1.21393
-0.958327
-0.819212
1.77754
-1.16667
-0.885586
-1.89234
1.96858
-0.0762442
-0.142943
-0.716659
0.554891
1.04175
0.489408
0.111291
-0.516757
0.405466
-0.623069
-1.28417
-0.289722
-1.4247
1.71442
0.943637
-0.497523
-0.74552
0.265765
1.10062
-1.72319
0.882622
-0.692007
-0.676525
1.91491
-1.23839
0.885206
0.954483
0.539353
-1.49384
1.99637
-1.2069
-0.789468
-0.680606
-1.42004
2.19609
-0.776054
0.382343
0.222312
-0.51116
0.501714
0.796676
1.52927
-0.38744
0.344278
0.0695929
-0.0766359
1.80011
-0.997765
0.860893
1.3846
-0.740394
0.382122
0.358272
0.439587
-0.902522
1.40882
-0.0819365
1.0991
-0.455791
-1.28284
-0.192067
1.47491
0.333584
-0.0643089
-0.269275
0.249403
0.180423
0.262115
-1.80854
-0.503067
0.542457
1.31809
-1.14488
-0.173208
0.279032
0.677765
-0.261372
0.139415
0.431759
0.439088
-0.870847
-0.928808
1.70585
0.38623
-1.00592
2.18245
-1.17652
-0.529159
0.803323
-0.635821
-0.763302
2.04465
-0.989565
-0.617451
0.149983
0.783833
0.534014
-0.550164
-0.306744
0.263069
-0.536811
-0.246108
-0.00310406
1.18195
-0.278345
1.53719
-1.25884
-0.285821
0.465753
-0.645005
0.167652
-0.588232
-0.0240817
-1.6924
1.18668
0.410462
0.438737
0.150462
-0.629358
0.478896
0.520048
0.10778
1.56677
0.83303
-2.3998
-0.166581
-0.0410779
0.207659
-0.422841
-1.16238
1.59468
0.835093
1.46585
-1.3297
-2.21395
0.211505
0.123825
-0.323587
0.867155
1.34113
0.414052
-1.75518
0.656945
-0.0488175
-0.0609987
-0.585071
-0.155323
-0.997406
-0.898454
0.98675
0.287983
1.37079
1.0791
-1.07603
-0.00306691
0.33948
0.0144242
-0.125304
0.445496
-0.0661402
1.45841
0.364077
-1.82249
-1.08705
0.400601
-0.401093
0.242342
0.158751
-0.612279
0.00794413
0.604335
0.753185
0.890046
-1.64323
0.41817
0.508326
1.29195
-0.0324991
-0.46636
0.810889
-1.3104
-0.115022
0.164431
-0.0494092
-1.82596
1.01958
1.55505
-1.24071
-0.314332
0.0276881
-0.250917
0.223229
1.59681
-1.777
1.13593
-0.192289
0.499673
0.900333
-0.218785
-0.0273229
0.535583
-0.217069
-0.318514
-1.09186
-0.217481
1.9989
-1.02043
-0.978471
1.09378
0.220867
-1.31465
0.723771
-1.26617
0.5424
0.0724752
0.937237
-0.0211413
-0.328427
1.08087
-0.752443
0.387576
0.148007
-0.569469
-0.395806
0.0753935
1.62115
-0.00642611
-1.61472
-0.631946
-0.521982
-0.199897
-0.438743
-0.0259623
0.700646
1.13531
-0.291144
0.362696
-0.0195099
0.0688317
-0.248629
0.275061
-0.715285
1.00972
0.0281777
0.417517
-0.713154
-0.597054
1.40522
-0.0622708
1.14137
-0.269104
-0.196322
-0.432474
0.864233
-0.388537
1.56858
-1.18005
-1.47881
-0.197481
-0.83004
1.48643
-0.656393
-0.0691203
-0.326686
0.542868
-0.113978
-0.0385078
-0.415035
0.453543
-1.48975
0.500188
0.184326
-0.221466
0.88671
-2.20156
0.60031
-1.72175
-0.403734
1.27711
-0.619318
0.892088
-0.453
0.024941
-1.17281
1.39565
-0.00106931
-0.26702
0.265941
-0.971909
-0.161176
-1.08971
1.25089
0.477271
0.602731
2.25428
-1.47852
-0.775767
-0.388147
0.130183
0.390533
0.0407187
-0.431252
-1.42976
0.264154
0.310802
0.0527152
-0.0135392
-0.216791
0.23033
0.748886
-1.57893
0.154202
0.805779
0.0433956
-0.849174
-1.74093
1.35239
0.257359
0.0651107
-0.32247
0.605683
-1.8547
-0.239297
-0.00634787
0.245644
0.332037
-0.0746775
0.00590259
1.29491
-0.988569
1.07826
0.867038
-0.448868
-1.68836
0.513344
-1.21455
0.975115
0.239436
0.811359
-1.76969
-0.86087
-0.540475
1.40134
0.157658
0.675583
-0.517955
0.425126
1.99311
-0.2712
-1.72191
-0.00933258
-1.69879
1.44343
0.146649
0.750961
0.837547
-0.267209
-0.0080756
0.253434
-0.507652
-0.570481
0.143079
-0.245992
0.102913
0.0318788
-1.68087
1.64899
-0.0716477
0.484778
-0.41313
0.564235
-1.60768
1.04345
-0.188279
-0.961842
-0.0586269
0.0380412
1.20179
-0.578671
-0.345586
0.924257
-0.611923
-0.730868
0.765372
-0.440273
-0.118324
-0.269917
0.388241
-0.519653
0.670115
-1.65281
-0.241901
-0.0436642
0.285565
0.191804
0.552243
-0.744047
1.35398
-1.65048
0.296505
0.0160029
-0.971097
0.292897
-2.11653
-0.877916
-1.15386
2.03177
-1.70358
0.0772967
1.62628
-2.30381
-1.41505
0.0422811
-0.469512
0.487495
-0.0179834
-1.89555
-0.620978
2.07939
0.641881
-0.339033
0.135264
-0.567737
-0.297634
0.80596
0.249615
0.144083
-0.656964
0.0300621
-0.239763
0.209701
-0.403132
0.129173
-0.160758
0.188446
-0.443597
0.903519
-1.85392
1.18646
0.667453
-0.620017
0.736526
1.06955
0.334196
-0.000612084
-0.442024
0.553315
-0.831284
-0.446978
-0.930433
0.344169
0.586264
0.108134
-0.184272
0.0761385
-0.675843
0.866372
-0.124272
1.24785
1.13622
-0.838371
0.979971
-1.59189
0.770701
-1.03736
0.266657
0.171546
0.0023186
-0.45134
0.0624671
-1.87159
1.07373
-0.164669
1.25845
0.0271379
-0.343658
0.31652
-2.42237
1.0011
-0.308642
0.384887
-0.324408
-0.0365208
-0.368556
0.405077
-0.958507
0.379836
-1.83912
1.63026
1.616
-0.726621
-0.347154
0.310377
0.0367764
0.532401
0.15762
-0.252836
-1.95075
0.759222
1.19153
-0.23672
0.195642
-0.148807
0.521913
-0.373107
0.737419
0.398507
0.02729
0.216653
-0.243943
-0.443427
0.471605
-0.0340727
0.347182
1.0438
-1.49427
1.80735
0.114325
-0.396552
-0.530184
1.67732
-0.0555386
-1.62178
0.058194
0.299612
-0.357806
0.998584
-1.97675
0.463449
0.434
-0.897448
0.0588338
-0.0813429
0.0225091
-1.31301
1.31295
5.32448e-05
-0.662029
1.22565
0.0149809
1.22666
1.6857
-0.569305
-1.11639
-0.023034
-0.184255
0.207289
-0.0813017
-0.53005
-0.0376577
-0.518957
-0.0110924
0.0319373
-0.56472
0.532783
-0.144685
1.66528
-1.5206
-1.55851
0.603223
0.95529
0.498362
1.63811
0.0771026
0.0413704
-0.118473
0.962185
0.430845
-1.39303
-0.206839
0.594229
-0.69912
1.79018
-1.09106
-1.48055
0.197705
1.16678
0.493041
-1.35391
-0.00200944
-0.181723
0.183732
1.6954
-0.366331
-1.32907
0.546272
0.365603
-2.09076
1.06088
1.92278
-2.00221
-0.908862
0.234115
0.674747
-0.122167
-0.226175
0.0608508
0.165325
-0.731297
0.247461
0.483836
-0.0147574
0.196369
-0.181612
-0.255897
0.272358
-0.0164614
-0.972522
2.07314
-0.499186
0.515608
0.176594
-0.3254
0.635298
-0.930742
0.295445
-1.13408
-0.823264
-0.339087
0.277561
0.264784
0.0552158
-0.32
1.98412
-0.598772
-1.38535
0.199217
1.11887
-0.404591
-0.225537
-0.960359
0.148558
0.605659
0.981375
-1.58703
0.00502703
-0.0475439
0.0425169
-0.0425099
0.583288
-0.267893