/*--------------------------------*- C++ -*----------------------------------*\
| =========                 |                                                 |
| \\      /  F ield         | OpenFOAM: The Open Source CFD Toolbox           |
|  \\    /   O peration     | Version:  2306                                  |
|   \\  /    A nd           | Website:  www.openfoam.com                      |
|    \\/     M anipulation  |                                                 |
\*---------------------------------------------------------------------------*/
FoamFile
{
    version     2.0;
    format      ascii;
    arch        "LSB;label=32;scalar=64";
    class       volVectorField;
    location    "2";
    object      U;
}
// * * * * * * * * * * * * * * * * * * * * * * * * * * * * * * * * * * * * * //

dimensions      [0 1 -1 0 0 0 0];

internalField   nonuniform List<vector> 
13486
(
(2.84953 -0.423676 2.26486e-18)
(3.33954 0.6496 1.0564e-18)
(4.50075 0.0598419 0)
(1.57906 -0.744421 -3.53135e-19)
(4.52919 -1.09512 7.47872e-19)
(4.82471 0.234815 1.20275e-19)
(4.96865 -0.936407 9.80574e-21)
(3.84615 -1.43412 -1.22395e-18)
(3.78866 -0.788207 0)
(4.09232 1.50658 0)
(-0.434089 -4.03219 -5.32279e-18)
(5.01691 -0.0468781 0)
(2.54685 -0.833622 -2.26084e-18)
(4.9855 1.41861 2.17657e-19)
(4.75131 -0.798976 3.99959e-19)
(3.99314 1.4984 -5.6373e-19)
(-4.30774 3.54495 5.1593e-18)
(2.91249 -0.904018 -9.54889e-20)
(4.63495 -0.0310292 9.96565e-21)
(3.1839 -0.0519403 -2.29466e-18)
(2.64482 -1.32375 -1.41693e-19)
(2.58602 -0.865757 2.94288e-18)
(3.39185 0.631582 -8.40705e-19)
(4.60049 -1.61576 0)
(4.21864 1.17706 1.79575e-19)
(4.59355 -1.48599 -4.23382e-19)
(-5.1607 1.91098 5.2109e-18)
(4.69934 -0.231134 1.36891e-18)
(4.03784 0.0447098 0)
(4.29662 -0.605905 -7.64854e-19)
(2.55912 -1.26749 -9.82711e-20)
(4.9966 -0.60173 -4.75784e-19)
(5.42433 -0.811416 1.32411e-18)
(4.02583 -0.117549 0)
(3.86577 -1.37759 0)
(3.85377 0.00375255 -5.71964e-21)
(3.90092 0.151038 2.73596e-20)
(3.07002 -1.4422 1.15792e-18)
(3.5866 0.1257 -1.86347e-20)
(3.85442 -0.497691 1.15271e-18)
(4.68435 -1.67107 0)
(1.99678 -0.97797 -2.61616e-18)
(4.11253 0.00224642 0)
(4.17209 0.93887 -8.5908e-19)
(4.24369 0.898842 3.56717e-19)
(5.04457 -0.0603148 3.00225e-19)
(1.96484 3.4777 1.29349e-17)
(4.01921 0.030995 -2.105e-21)
(3.89794 0.150774 -2.0411e-20)
(5.1119 -0.0799359 7.51268e-19)
(4.05649 0.0925962 1.22809e-18)
(3.66278 0.0570839 0)
(5.27216 -0.199533 -3.21192e-19)
(3.21786 -1.1921 -1.6885e-18)
(2.76552 -0.993173 0)
(4.46405 -1.10832 -5.04417e-19)
(4.13279 0.172024 -4.19069e-20)
(3.61295 0.067528 -1.06364e-19)
(5.36583 -0.809341 1.52277e-18)
(3.94768 0.237498 0)
(0.243349 -4.67771 -4.01435e-18)
(3.91887 0.244815 0)
(7.37229 -0.376583 -2.30364e-18)
(2.72145 -1.34424 -1.68037e-21)
(3.32148 -1.65997 0)
(3.9162 0.16774 1.69801e-20)
(1.77222 -0.825226 -3.38789e-19)
(2.84781 0.146082 7.67519e-19)
(3.78686 -0.846118 -6.73673e-19)
(3.84621 0.0331223 1.43496e-20)
(1.34243 -0.612775 3.88362e-19)
(3.07168 -0.951345 -9.96832e-21)
(3.87389 -0.233685 8.49548e-19)
(-1.83244 -0.952536 -3.24112e-18)
(3.92754 0.19019 3.87078e-21)
(4.12632 0.181568 9.88223e-21)
(3.94514 0.183977 -1.5605e-20)
(4.7547 -0.839801 -1.63574e-19)
(2.21756 2.87122 -8.69054e-18)
(3.22449 -0.430664 0)
(4.02631 0.0046571 -1.79038e-22)
(3.22815 0.863668 -6.58132e-20)
(7.93413 -0.796982 -9.96655e-21)
(4.65555 0.119391 -4.40018e-20)
(2.82851 -0.436624 -4.45696e-18)
(2.69455 3.50136 0)
(2.28005 1.0266 -2.44931e-19)
(4.04366 0.110399 -1.83101e-18)
(3.7931 0.453508 -8.26772e-19)
(3.80664 2.05333 -5.76798e-19)
(5.20922 -0.552258 -2.23962e-19)
(4.11136 -1.25019 -6.40817e-19)
(2.95654 -0.625246 5.89451e-19)
(3.27313 0.247423 5.96191e-20)
(3.58763 -1.14727 2.72216e-19)
(4.02929 0.0177967 2.79531e-22)
(-5.0612 1.92685 0)
(2.4665 -1.23753 1.68601e-19)
(3.88193 -0.492646 -2.203e-18)
(-5.02131 4.45456 1.49891e-19)
(4.08809 0.00269307 0)
(4.92661 1.40946 6.77508e-20)
(2.32104 -1.24443 6.7382e-21)
(3.69634 0.0835331 1.2231e-19)
(2.76341 3.37435 0)
(-4.61464 4.04199 1.69647e-19)
(3.87841 0.108488 4.47607e-21)
(3.56387 0.131108 -4.36824e-20)
(2.12907 3.40962 1.00361e-17)
(3.7451 -1.70839 0)
(2.88527 -1.37501 0)
(4.99861 -0.778877 -4.58522e-19)
(3.23229 -1.14441 1.1517e-20)
(4.14231 0.126837 3.11536e-21)
(2.11841 -0.0385092 0)
(2.7455 -1.35768 -1.02118e-18)
(4.19825 1.23605 0)
(4.12153 -0.0838979 0)
(3.83232 -0.215123 0)
(3.93783 0.126114 1.56157e-20)
(2.89178 -0.978027 6.96313e-20)
(-0.0211688 -4.61094 0)
(3.5296 -1.0263 0)
(3.56905 0.125092 6.24713e-20)
(3.66923 -1.3337 0)
(3.7351 0.0794987 0)
(4.30182 -0.574035 2.53461e-20)
(4.32571 0.10574 2.54462e-19)
(3.88221 -0.0420006 -1.19079e-19)
(3.40624 -1.46617 -2.19305e-19)
(3.68346 0.0667441 -1.13286e-20)
(2.53569 2.81189 -3.31084e-18)
(0.804781 0.141401 3.84789e-18)
(-1.16257 -0.414715 3.98177e-18)
(4.00901 0.0308655 -2.02493e-19)
(3.79997 0.868184 -9.06019e-19)
(1.21616 1.50969 -6.27019e-19)
(3.76797 -1.68485 0)
(3.9252 0.129611 -2.74348e-21)
(3.92334 -1.16108 -4.32909e-19)
(5.37516 -0.367481 -1.43776e-18)
(5.24933 -0.286239 2.67404e-19)
(5.03977 -0.416267 0)
(3.23909 -0.390262 0)
(4.09925 -0.0194763 1.32514e-20)
(6.85432 -1.99434 -3.67793e-18)
(4.99729 1.17967 4.35366e-20)
(0.638472 3.66476 0)
(5.09264 -0.107777 0)
(4.03772 0.0289777 0)
(4.02223 0.0515252 1.68672e-20)
(4.75058 -0.970426 0)
(4.05767 -0.00987903 1.88497e-22)
(3.19254 0.844695 -5.6311e-19)
(4.36171 0.577351 0)
(4.52338 0.104819 0)
(3.4465 -1.60526 0)
(0.64864 -0.539533 -1.94334e-20)
(3.40391 -1.38953 2.41592e-18)
(4.07386 0.471653 9.15294e-20)
(5.02663 -0.0206193 4.74009e-19)
(3.4207 -1.33744 -3.69047e-18)
(4.99178 -0.716204 3.12669e-20)
(1.8394 -0.874829 1.15481e-18)
(3.69701 0.0855356 0)
(5.20757 1.34284 -4.3519e-19)
(4.8049 1.31186 -2.39975e-19)
(0.923969 -0.223504 -2.75945e-18)
(4.9388 1.15784 -1.04394e-19)
(-1.46294 -0.553681 1.09614e-18)
(-1.73498 -0.552753 5.5534e-20)
(4.31508 0.527924 2.33395e-19)
(3.98196 0.189394 -1.4392e-18)
(4.60051 -0.464402 3.74263e-20)
(3.97528 0.0230518 1.27341e-21)
(2.04414 -2.11677 0)
(5.03149 2.01583 5.73004e-19)
(5.60427 -0.485967 2.01332e-18)
(3.91074 0.110384 -2.08746e-18)
(5.03085 -0.371217 0)
(3.93708 -0.590579 2.32944e-18)
(4.10603 0.103179 7.06146e-21)
(4.76403 -0.436156 -1.90083e-20)
(-0.583715 -0.123421 0)
(4.80403 0.324993 9.68322e-20)
(4.59708 -0.177278 -6.24897e-19)
(4.06194 0.0364653 -2.84119e-21)
(4.28482 -0.354244 -2.41687e-19)
(4.67618 -1.6134 0)
(2.5554 -1.23511 -1.28554e-18)
(3.93462 0.164825 0)
(4.33416 0.0738546 0)
(3.62343 0.034227 0)
(2.72365 1.74879 -1.15052e-18)
(3.57178 0.0137484 0)
(-1.1549 -4.23053 -1.18634e-18)
(3.35162 -1.5291 5.15067e-19)
(5.077 -0.0220982 2.76244e-19)
(2.5114 -1.23875 -4.97455e-19)
(5.16125 1.27435 -2.22018e-19)
(2.55337 -1.3104 1.08701e-19)
(4.38737 0.140265 -7.22531e-21)
(2.95291 -1.42994 -1.3458e-18)
(3.69606 -1.60677 2.29658e-19)
(4.06099 0.456452 -1.10143e-19)
(3.6078 0.0114881 -1.12598e-19)
(2.79143 -1.00478 -4.06771e-20)
(3.69671 -0.0574859 1.73194e-18)
(3.56058 0.0378647 0)
(4.71934 0.301496 0)
(4.58221 -0.257669 8.65145e-19)
(4.05837 -1.50346 5.94641e-19)
(3.22287 -0.0076944 2.09202e-18)
(3.86033 0.111829 3.11002e-21)
(4.86741 0.331956 -1.38525e-19)
(3.54454 -0.690117 8.28191e-20)
(4.34588 -0.573501 0)
(3.79659 1.98444 1.54913e-18)
(3.12474 -0.659043 0)
(6.33818 0.950784 0)
(-4.19434 3.76782 -9.38674e-18)
(5.16168 -0.0814957 0)
(3.88811 -1.15908 1.00352e-18)
(5.023 0.0134467 0)
(5.58038 -0.181473 -1.90916e-20)
(2.60055 -1.20655 8.13205e-19)
(5.08378 0.564201 -2.9061e-20)
(2.5468 -1.50469 7.96219e-20)
(3.58772 -0.410634 9.80763e-21)
(2.47866 0.960345 5.93025e-20)
(3.95373 -0.590509 -7.48836e-19)
(2.74774 -0.703094 2.56388e-19)
(5.38349 -0.492197 1.80587e-18)
(2.01012 -0.975435 8.95042e-19)
(2.41334 -1.32837 0)
(2.39688 -1.16217 9.66194e-20)
(4.16741 -0.254466 4.03742e-19)
(4.33199 0.0380043 -2.89845e-20)
(2.22502 -1.06997 2.57036e-18)
(4.767 -0.281086 0)
(5.31505 -0.926006 0)
(4.01152 0.120822 2.17139e-18)
(4.22273 0.0911222 0)
(2.16892 -1.08288 8.79604e-19)
(3.53471 0.260907 -2.76675e-20)
(3.60422 0.193089 0)
(4.78345 -0.054463 -1.56765e-19)
(4.41768 -1.1072 1.36322e-18)
(1.49685 -0.823647 7.89396e-18)
(4.10806 0.886887 0)
(1.48524 -1.40211 -7.85262e-20)
(2.04719 0.0245509 3.24458e-19)
(2.44676 -1.20372 1.27874e-18)
(3.52989 0.122 0)
(3.4269 -0.339269 9.01905e-20)
(1.8823 -2.46064 9.38864e-20)
(4.99488 -0.595479 3.6983e-19)
(3.54317 -0.697293 -1.04929e-19)
(0.481402 -0.568316 2.0506e-20)
(5.26201 -0.891622 9.46213e-19)
(3.54904 0.484159 0)
(3.55108 0.258335 -2.7401e-21)
(4.76787 -0.822519 -9.45725e-19)
(1.91155 -2.31649 -1.18223e-19)
(4.29764 -1.46451 -8.02363e-19)
(-0.733411 -0.25692 0)
(3.66056 -0.407305 -2.15342e-19)
(2.53548 -1.30275 -1.49584e-19)
(4.00477 -0.0314064 -9.91978e-19)
(3.39804 -1.06089 0)
(3.08989 1.973 7.84071e-19)
(3.90012 0.114734 -5.57172e-19)
(4.37083 -0.583954 0)
(5.1819 -0.0231516 2.09857e-19)
(2.57655 -1.22753 1.0866e-18)
(4.39159 -1.02209 -7.62851e-19)
(3.47228 -0.308048 0)
(3.02575 -1.13297 0)
(3.46766 0.0912147 -5.53104e-20)
(5.24871 1.11539 -1.17315e-19)
(3.0592 -1.13876 2.497e-19)
(4.16317 -0.421524 -8.50141e-19)
(3.86285 0.168253 1.22707e-18)
(5.20077 -2.32335 -1.14097e-18)
(-0.706663 -3.97242 3.91306e-18)
(-5.631 2.82129 1.13772e-17)
(5.43115 -0.340028 1.62129e-18)
(3.86306 -0.0500169 1.5587e-19)
(5.57727 -0.220309 -1.97971e-21)
(3.98241 -0.0241742 0)
(2.48423 -1.31511 0)
(3.80967 0.359942 -1.86266e-20)
(2.81235 -1.359 9.98006e-19)
(4.00174 0.0578228 -1.99218e-19)
(4.13513 -0.258962 3.77949e-19)
(4.23944 -0.320924 0)
(4.69062 -0.0364879 -6.3851e-19)
(5.15675 0.0448179 -1.54611e-19)
(3.80633 0.149658 -1.13962e-18)
(4.92954 -1.17932 2.84696e-19)
(4.084 -0.617381 -4.96321e-20)
(2.71993 -0.980826 3.16327e-21)
(5.15804 1.1073 1.02285e-19)
(4.94756 -0.610544 4.48555e-19)
(3.89158 0.145322 -2.76764e-21)
(3.1418 -1.46393 0)
(0.353918 -0.25302 0)
(4.64096 -0.0982858 3.26077e-19)
(2.48648 0.656095 1.47939e-19)
(3.90883 0.142378 0)
(4.63991 3.1101 -6.66923e-18)
(1.32406 -0.633707 0)
(4.84116 2.00151 -1.51596e-19)
(5.03623 -0.767171 -4.49981e-19)
(5.07901 -5.28757 0)
(3.78842 0.812813 -5.63784e-19)
(3.80126 0.371698 2.73997e-20)
(3.79256 0.396689 -7.12172e-20)
(3.70758 -0.0290613 -1.8981e-18)
(3.70257 -0.427006 0)
(3.94528 0.172226 -3.0706e-20)
(3.74096 0.303622 1.40779e-21)
(3.97303 0.112925 2.61968e-19)
(3.14516 0.360087 -1.10633e-18)
(1.53346 1.45002 1.16027e-18)
(5.17296 -0.556198 3.95103e-19)
(4.39247 -0.802499 -2.39367e-18)
(4.17121 -0.412675 0)
(5.10952 0.270035 1.15428e-20)
(4.45839 -0.816555 -4.30026e-19)
(3.99695 0.0689593 2.66038e-18)
(4.17663 -1.24626 0)
(5.19351 -0.570536 -7.25959e-20)
(2.90292 0.854222 0)
(4.95035 -0.952295 -7.22023e-19)
(3.71513 -1.07692 -7.48283e-19)
(1.57428 -0.733351 1.05313e-18)
(4.70396 -0.997507 -6.49963e-19)
(4.04734 0.370742 0)
(3.55574 0.315204 -2.89559e-20)
(3.61833 -0.440053 2.30356e-19)
(3.19499 0.350921 1.04309e-18)
(4.49507 -0.837186 1.70308e-18)
(4.76055 -0.450295 7.56552e-19)
(-0.621127 -1.30478 -7.48644e-19)
(4.02819 0.0418069 3.10803e-22)
(4.4143 -0.442984 0)
(2.06264 -0.687732 2.59069e-18)
(6.35904 0.923443 0)
(3.77951 0.376124 -2.80338e-21)
(4.41477 -0.218745 1.37438e-18)
(5.188 0.1509 -1.28294e-19)
(5.19319 -0.0245636 1.47234e-19)
(-4.54108 1.62817 -4.36382e-18)
(3.83673 0.148398 1.42285e-18)
(3.99524 0.0148462 0)
(-2.40057 -1.82862 -2.69568e-18)
(4.33177 -0.584934 -4.97538e-19)
(2.67882 0.679406 -5.48994e-20)
(4.06166 -1.38048 5.60852e-19)
(5.08995 -0.0375392 0)
(5.35242 -0.505228 2.15152e-19)
(3.59312 0.342739 2.18536e-18)
(3.93887 0.129677 1.70213e-18)
(4.29248 -0.63438 0)
(4.03851 0.0152852 -3.33242e-21)
(4.18368 -0.300129 -3.79208e-19)
(3.05869 3.07788 1.46664e-18)
(3.13082 -0.0506802 2.90966e-19)
(4.33452 -0.520757 4.71425e-19)
(4.12655 0.0229444 -3.60178e-21)
(4.36944 -0.420546 0)
(5.66632 -0.0796681 1.00534e-20)
(1.13521 -1.4667 8.69939e-20)
(4.83917 0.678462 2.33182e-19)
(3.95962 0.0630199 1.03977e-18)
(3.05442 0.0455312 0)
(3.6986 0.349388 3.12036e-21)
(5.72908 -4.6643 0)
(7.06418 1.73956 -1.4106e-18)
(4.05511 -0.0565884 0)
(4.12276 -1.40751 -2.36775e-20)
(2.67602 -0.200427 -6.23291e-19)
(3.13835 1.75659 1.8923e-18)
(2.35801 3.67625 -6.23165e-18)
(3.54391 -0.313709 0)
(4.56458 0.09247 -4.30173e-20)
(4.07038 0.414167 -5.43465e-19)
(0.255358 0.0347828 -2.44515e-18)
(2.68538 -1.29463 1.40971e-20)
(3.27672 -0.0597586 -3.15751e-18)
(4.50053 -0.532683 4.01538e-19)
(4.16629 0.36673 3.5138e-19)
(2.89902 -0.884911 0)
(2.76328 0.672217 1.18202e-18)
(3.93526 0.0822216 1.1802e-20)
(1.55166 -0.730523 2.02968e-19)
(1.22626 -1.41209 -2.93082e-19)
(-1.30873 1.99721 -5.1208e-18)
(5.42789 -0.321545 0)
(-0.218663 0.692529 0)
(4.20843 2.309 0)
(4.11572 -0.173496 0)
(1.19003 -0.469017 -1.11309e-19)
(4.92659 -0.901961 0)
(4.33556 0.606674 0)
(3.34316 0.300716 4.27873e-19)
(5.53144 -0.477743 -2.09787e-18)
(4.32779 -0.416529 -1.14065e-18)
(3.43058 0.70108 3.52186e-18)
(4.01797 0.0387303 -2.81333e-19)
(4.99437 3.29223 0)
(4.6807 -0.490826 0)
(3.81819 0.120016 1.21428e-18)
(4.015 0.05595 2.08043e-19)
(2.65603 1.91957 0)
(-0.171146 -0.215719 5.33238e-19)
(4.26666 -1.48414 9.07858e-19)
(-1.26202 0.703679 0)
(4.7318 -0.271939 7.43108e-19)
(3.94599 0.126205 -1.40296e-18)
(2.16435 -0.636591 -1.50404e-19)
(2.04578 -0.660357 0)
(4.03449 0.417434 1.04155e-18)
(5.10069 0.248012 0)
(4.25032 -0.340616 0)
(4.36464 0.366764 -3.24876e-20)
(3.92167 0.192405 6.42315e-19)
(-5.53031 2.25541 -6.93348e-18)
(4.68412 1.29495 -1.97718e-21)
(2.65384 -0.657585 -1.11792e-18)
(4.08801 -0.152345 1.45856e-19)
(4.18626 0.358056 2.68968e-19)
(5.67354 -0.11838 -8.98319e-20)
(4.43916 -1.46773 0)
(4.63732 -1.02334 7.67595e-19)
(2.68801 -0.0820401 0)
(3.77467 0.351775 -1.41109e-20)
(4.56677 -0.481404 0)
(2.90061 0.173084 1.60516e-18)
(-1.20616 5.01133 -8.98223e-18)
(4.45403 -0.510473 0)
(-0.590824 0.652297 1.92409e-19)
(4.6641 -0.548687 -9.47081e-19)
(3.56568 1.02036 -4.51853e-20)
(3.50267 -0.516092 3.03512e-18)
(2.88094 1.73757 -1.23251e-18)
(2.63397 -0.6435 -3.16475e-18)
(7.23107 1.65475 0)
(3.91131 0.123288 -1.02077e-20)
(-0.745567 -1.53615 -2.03393e-18)
(4.021 0.450788 0)
(3.76211 0.456839 7.7091e-20)
(5.03426 -0.122216 -1.5716e-19)
(5.69737 2.08333 0)
(3.97574 0.0474592 0)
(1.23888 -0.684239 0)
(2.12225 -2.14465 3.96018e-19)
(5.04111 -2.49644 1.39792e-18)
(6.46934 -2.08786 2.00999e-19)
(4.75248 1.94663 0)
(3.36483 -0.316211 2.06385e-18)
(3.99232 0.0051543 -4.43674e-21)
(4.68033 1.16901 6.31515e-20)
(2.56674 -1.23179 3.00569e-19)
(3.82321 0.372239 0)
(4.03793 0.0422646 0)
(1.51676 -0.194717 -1.74943e-18)
(2.84433 -0.863768 -7.77656e-19)
(3.83476 -0.355971 0)
(2.97674 -1.43862 -9.96606e-19)
(4.17075 -0.017638 4.4838e-22)
(4.02929 0.0240488 1.7203e-22)
(1.74211 -0.805925 0)
(3.70805 0.00375233 1.45936e-19)
(3.94016 0.116679 -7.527e-21)
(5.07513 0.206349 5.60342e-19)
(3.69505 -1.119 0)
(-5.49123 3.40389 -1.7964e-17)
(5.17679 0.0848304 1.68447e-19)
(4.022 0.200926 2.27794e-19)
(3.96582 0.0300682 -2.03179e-21)
(5.31349 1.27046 0)
(3.37608 0.706684 -9.39279e-19)
(6.16357 0.38896 -1.03799e-18)
(-2.52145 2.97014 1.05264e-18)
(3.99337 0.107944 0)
(2.61311 -1.30206 -1.42542e-20)
(0.988168 -0.130296 0)
(4.02197 0.137445 -8.62226e-19)
(3.9657 0.148933 4.08381e-19)
(3.68751 0.132127 -2.37428e-19)
(1.94703 -2.19931 0)
(4.64421 0.0323699 -8.34764e-20)
(2.22918 0.993714 3.26683e-18)
(4.38184 -1.45629 0)
(3.23571 0.269506 1.36371e-18)
(4.86841 -1.19925 -3.21739e-19)
(4.40092 0.0111677 0)
(2.50187 -1.33571 7.4867e-20)
(3.25331 -0.346924 -1.76549e-19)
(4.15216 -0.00781523 0)
(-4.60667 3.79458 1.1426e-17)
(3.71162 0.421016 0)
(3.47016 -1.58809 9.91158e-19)
(1.47261 -1.51584 1.78189e-19)
(4.06101 0.0456494 2.83499e-21)
(4.84727 0.294901 -3.06036e-19)
(2.73611 0.665258 6.30078e-19)
(3.5032 -0.58276 -1.12732e-18)
(3.51561 -0.277798 -9.4579e-20)
(3.50635 -1.58185 9.31616e-21)
(4.2943 -0.518097 4.57299e-19)
(5.32667 1.28908 8.88576e-19)
(3.85763 -1.74017 0)
(3.99681 0.035336 -9.21753e-19)
(-1.57135 -0.159138 -1.91801e-18)
(2.73994 -0.0890701 0)
(3.952 0.126567 7.76025e-21)
(3.76256 -0.00688484 0)
(2.45122 -0.69645 2.73563e-18)
(4.05076 -1.53842 0)
(3.96835 -0.011196 6.93539e-21)
(4.40824 -0.217172 -7.77852e-19)
(2.52717 -1.37762 1.41728e-19)
(1.53773 -0.768672 2.27492e-19)
(4.91533 -0.0483429 -6.52151e-21)
(3.04293 -1.46084 9.02093e-19)
(3.50245 -1.02015 1.07485e-18)
(2.94594 -0.63908 0)
(-2.21805 0.723419 -1.11614e-18)
(4.49465 -1.35759 -1.9298e-19)
(-2.47853 0.478835 -1.40642e-18)
(4.02188 0.032119 6.78888e-22)
(2.8889 -1.1048 0)
(4.34743 -0.0158588 -3.56739e-21)
(-0.348643 -0.322825 0)
(2.27793 -1.27611 7.50206e-21)
(2.43835 -0.734409 2.05798e-19)
(-0.196958 -0.238653 0)
(4.03252 -1.09137 3.21642e-19)
(3.28843 -1.58641 0)
(5.71114 1.82482 0)
(3.18683 -1.50882 -1.30906e-18)
(2.97028 0.767325 9.50924e-19)
(3.02136 -0.638699 0)
(3.60509 0.368157 -5.96383e-19)
(6.98623 -2.04563 4.30395e-18)
(0.864488 -1.60244 5.01496e-19)
(5.73423 2.68806 0)
(4.25023 -0.0313769 0)
(-1.14561 -1.73537 -1.14852e-18)
(3.69987 -0.208688 0)
(4.71569 0.154141 0)
(0.641537 -4.86128 -1.9965e-19)
(4.0365 -0.810684 -1.53203e-18)
(3.43661 -0.840654 9.34583e-19)
(5.15591 -1.00429 1.3193e-19)
(-2.03863 0.199729 2.06872e-18)
(3.9774 0.123682 4.69187e-19)
(3.02152 -0.701527 0)
(4.35101 0.887726 -1.14449e-19)
(2.824 -0.372968 0)
(4.54146 0.0226258 0)
(3.97843 0.217181 0)
(4.32527 0.350718 -2.72452e-20)
(3.67423 -0.0341042 8.82865e-19)
(4.19178 0.06759 -2.17785e-20)
(3.10715 -0.711665 0)
(-4.73816 1.71109 -3.92372e-18)
(4.25206 2.24145 9.36386e-20)
(3.66418 -1.36164 1.04805e-19)
(3.81026 -0.0933716 -2.46256e-19)
(4.31569 -0.997694 1.22985e-18)
(4.08022 0.049311 -8.0131e-19)
(-0.767177 5.26111 0)
(5.14089 0.0307608 0)
(2.9828 1.75521 0)
(2.48571 -1.10444 -1.99751e-18)
(2.86564 -1.42469 -2.14896e-19)
(0.109976 -0.255584 0)
(4.39183 0.895999 0)
(5.47675 -0.332276 1.31131e-19)
(3.9682 -0.0469843 -2.31522e-19)
(3.85173 1.23758 8.82318e-19)
(3.66253 -1.59395 0)
(-3.82052 -0.802411 -1.55924e-18)
(4.5933 0.108494 -5.29131e-20)
(2.77164 -0.796493 -1.87193e-18)
(4.41431 0.121417 -1.07885e-19)
(4.65485 1.18735 7.5497e-20)
(3.95472 -2.08717 4.95261e-19)
(2.45189 -1.11003 3.46595e-18)
(3.51108 -1.02648 3.71372e-19)
(4.15691 0.127058 7.97778e-21)
(3.97306 0.0466621 -2.34926e-19)
(2.73998 -1.28074 -3.14433e-19)
(3.25586 -0.289517 7.90639e-20)
(3.3601 4.28045 1.76863e-19)
(2.97358 -1.42834 5.05021e-19)
(4.97186 0.340574 0)
(2.97928 1.87287 1.18919e-19)
(4.285 -0.0333658 -6.34282e-19)
(5.94843 1.16707 6.02092e-19)
(2.71022 -0.727284 -1.70234e-18)
(3.6364 -1.31002 -1.13429e-18)
(4.07271 -0.018243 2.2208e-18)
(4.86226 -0.118327 -1.25645e-18)
(4.27197 -1.64346 3.74871e-19)
(5.4553 -0.287818 -8.29512e-19)
(2.28218 -0.258773 -3.71081e-18)
(4.3268 0.018745 -4.91931e-19)
(2.26085 -0.381115 0)
(2.54782 -1.44684 -3.33936e-19)
(4.00894 -0.00622801 2.06244e-18)
(3.65698 -0.0395139 -2.70583e-21)
(-1.67843 -0.694087 0)
(3.403 -1.58614 0)
(4.1441 0.798204 7.44894e-19)
(2.03105 -0.245639 2.29787e-18)
(3.20678 -1.98747 -5.53088e-19)
(4.16888 -1.41385 -5.67606e-19)
(4.41862 -0.831495 1.30168e-18)
(6.46034 0.790104 0)
(4.18273 0.861577 3.84473e-19)
(2.76301 -0.943039 -1.28986e-20)
(5.11902 2.07475 6.82136e-19)
(3.9079 -0.532093 -1.33305e-18)
(-1.89316 0.325078 -3.15371e-18)
(4.31201 -0.928293 -1.19667e-18)
(4.60102 -1.08574 4.12945e-19)
(4.71244 2.43653 0)
(3.85137 -0.441364 -1.65174e-19)
(3.74218 0.130935 2.19332e-19)
(4.01848 0.00360006 4.08765e-22)
(1.86258 -0.901645 3.14745e-18)
(3.84247 -0.534922 1.98617e-18)
(4.02992 0.433393 -3.8926e-20)
(0.933321 -1.51086 -2.5731e-19)
(4.2703 -0.220177 -4.34508e-19)
(4.35025 5.92133e-05 4.38714e-19)
(-1.5461 -3.48304 -5.31342e-19)
(4.93935 1.95971 -7.24906e-19)
(-4.99571 4.12743 -1.23233e-17)
(2.29054 -1.11346 -1.07101e-18)
(4.01274 0.0107634 0)
(4.12143 0.181991 -3.78586e-20)
(0.649065 -3.54299 -5.00153e-19)
(2.65325 -0.257698 3.38127e-18)
(4.07428 0.0347889 0)
(4.33591 -0.568095 2.41865e-20)
(2.36992 -0.973756 7.78391e-19)
(3.95304 0.110342 -1.9983e-18)
(0.246649 -0.845836 -3.72474e-19)
(2.96476 -0.606418 -5.95672e-20)
(4.35277 -0.4285 7.71855e-19)
(4.50816 0.0848579 4.22075e-20)
(3.51482 -1.6056 -1.3837e-18)
(4.18402 0.101969 3.03774e-20)
(2.87876 -1.5302 -5.46118e-19)
(4.18756 -0.0222042 5.95532e-19)
(4.07594 -0.123744 -6.32309e-19)
(4.25184 0.163888 -2.4593e-20)
(4.45351 -0.0788465 -1.38617e-18)
(2.28423 -0.99782 -1.50589e-18)
(4.16424 0.123611 0)
(2.22981 -1.73704 2.43832e-19)
(4.20711 0.081313 1.53677e-19)
(1.66768 -0.291895 -2.67731e-19)
(4.74696 0.0532603 -2.29238e-19)
(4.30811 -0.862405 -7.96249e-19)
(3.99452 0.0323831 -1.50703e-18)
(4.19288 0.615695 2.05512e-19)
(-0.00748819 -0.272616 -5.48341e-19)
(4.74852 0.158785 0)
(3.67628 0.331771 1.70757e-22)
(5.19434 0.225629 1.31128e-19)
(2.90913 -1.07332 0)
(4.22302 0.152121 3.26513e-19)
(5.05376 0.331097 1.4745e-19)
(4.63267 0.125211 2.20175e-23)
(4.85437 -1.67838 -8.7564e-20)
(3.62278 -0.0261769 0)
(3.5543 0.740098 1.66214e-18)
(4.08081 0.360759 4.77954e-20)
(2.93154 -1.41491 1.10783e-18)
(3.94997 -0.376254 0)
(2.96988 0.684812 -2.75357e-18)
(2.93512 -0.907059 6.61992e-20)
(5.2374 2.94689 -1.47444e-18)
(2.30437 -0.298135 3.58029e-18)
(4.16894 0.0342024 3.07424e-20)
(1.50583 -0.805229 1.79402e-19)
(3.83001 -0.185284 -1.38028e-18)
(4.76471 -0.925333 -1.13014e-18)
(3.583 0.324155 -1.26854e-18)
(4.17056 0.0219012 0)
(4.00578 0.0524821 -8.92139e-19)
(-0.0750327 -0.284258 5.18914e-19)
(-2.87699 -1.14554 0)
(4.28598 -1.51841 0)
(3.99375 0.0088336 0)
(-3.49101 3.59332 0)
(4.11503 0.633176 0)
(2.166 -0.235655 0)
(3.64877 -0.693392 -9.16495e-21)
(6.13739 -2.00774 -1.82779e-18)
(5.14394 0.602975 0)
(3.48081 0.708983 2.53549e-18)
(3.16417 -0.999359 -3.74579e-19)
(4.1742 0.411744 2.38884e-20)
(0.558088 -4.00097 -4.3684e-19)
(2.19807 0.219475 -1.17004e-20)
(0.158254 -0.522587 3.64698e-19)
(4.2905 -0.023109 -5.04061e-19)
(5.09358 -0.143297 1.02735e-19)
(4.0737 0.606866 -5.16881e-19)
(3.7685 0.403433 -1.65892e-18)
(4.10254 2.11527 -4.39842e-19)
(7.03411 1.74016 0)
(2.73743 -1.35715 5.10527e-20)
(2.49692 -0.73733 -3.00747e-18)
(4.06958 0.00333993 -2.7378e-18)
(4.52069 -1.38932 -1.08142e-18)
(4.0899 -0.0170034 2.18079e-19)
(5.23078 -1.42256 7.78935e-20)
(4.1965 -0.644123 -1.7351e-19)
(4.05927 -1.07203 -1.10863e-18)
(4.05512 0.360242 5.68405e-19)
(4.8714 3.14308 0)
(3.54583 -0.209847 -8.6908e-20)
(3.42159 0.23264 -3.89343e-19)
(4.95915 -0.855591 0)
(3.54039 0.0733521 0)
(3.64872 -1.6656 -1.23819e-20)
(1.71332 -0.951303 1.93556e-19)
(3.60957 -0.72374 -4.11115e-19)
(3.76748 0.0978214 0)
(3.75318 -0.054518 -1.80856e-18)
(3.62103 0.449216 -3.24554e-19)
(2.33675 -1.55884 1.34463e-19)
(4.85355 0.315785 1.1255e-19)
(0.497949 -0.596487 0)
(2.64667 -1.33419 6.18102e-20)
(5.01868 0.327212 0)
(3.815 -0.464047 1.76034e-19)
(5.24335 -0.528566 -1.89728e-19)
(4.01497 0.0470904 -5.62937e-21)
(4.84161 1.3291 4.32767e-19)
(5.66136 2.44456 -1.54802e-19)
(3.41394 -0.964465 2.24049e-18)
(2.61408 -1.15209 0)
(3.22878 -1.40284 -4.60948e-19)
(3.01701 -0.948673 0)
(5.24882 0.534092 -2.59818e-19)
(2.27422 -1.50668 2.51909e-19)
(4.20427 -1.50524 7.4758e-19)
(3.63854 0.288397 -9.71564e-21)
(1.7993 -2.81062 -7.45525e-19)
(2.60115 -1.27306 -1.2838e-18)
(2.57196 -0.751518 -1.72241e-18)
(3.93177 0.10446 -3.3203e-21)
(3.29354 -1.36821 3.79865e-19)
(2.33805 -1.02435 1.24182e-18)
(2.67834 -0.815723 1.91492e-18)
(2.84926 -1.38301 2.49732e-19)
(3.45785 -1.49907 -2.54504e-19)
(3.62425 -1.15639 1.12669e-18)
(1.00732 4.54524 6.06988e-18)
(4.18168 0.0325414 1.9724e-20)
(2.73762 -0.919917 3.29688e-19)
(4.68672 0.754601 -1.35373e-20)
(4.40474 -1.14131 0)
(-2.0907 2.46512 -1.02739e-17)
(4.13989 -0.0351262 -7.92456e-19)
(3.98877 0.284134 0)
(5.18567 0.506801 0)
(3.09371 -1.19008 -2.97503e-19)
(5.0319 -1.30459 -1.23461e-18)
(4.79452 0.37139 4.51073e-19)
(4.01307 -0.796531 2.00365e-18)
(4.06345 1.98563 4.3517e-19)
(3.33625 -0.0125528 1.41619e-18)
(2.20581 -1.58664 -1.34573e-20)
(3.61052 1.34931 0)
(2.73866 -0.87299 1.8495e-18)
(1.79342 -2.61287 2.72619e-18)
(1.82882 -2.65257 5.48439e-19)
(3.40425 -1.31385 3.69577e-19)
(3.29967 -1.51101 -2.69589e-19)
(4.22073 -0.023036 7.0885e-19)
(3.58879 0.187007 1.71015e-20)
(4.24271 -0.566036 8.15208e-19)
(2.14533 -1.61292 -1.72013e-19)
(4.73298 0.368677 -3.20413e-19)
(3.88067 0.112292 7.07798e-19)
(2.25374 -0.375285 -1.47889e-18)
(3.70505 -0.163469 1.12828e-18)
(4.35789 -1.74228 0)
(4.85396 0.708733 -3.63739e-19)
(3.94246 0.09804 1.57122e-19)
(2.91822 -0.574066 -5.83961e-19)
(3.8489 3.76606 3.84788e-19)
(3.56417 -1.12505 8.33941e-19)
(4.0277 0.0213703 3.05488e-19)
(2.76436 0.339593 -2.18592e-18)
(4.94417 -0.866695 0)
(3.68894 0.267004 -1.64967e-20)
(4.45166 0.151114 1.48617e-19)
(3.81485 -0.100998 0)
(2.81257 0.112062 1.25171e-18)
(4.82972 0.292442 0)
(3.72047 3.7411 -2.34926e-19)
(4.75213 -0.0826051 0)
(3.54964 -0.253775 0)
(5.02598 -0.00193877 1.54919e-19)
(4.80467 0.275499 -1.70191e-19)
(5.72196 0.00521157 -1.59497e-18)
(3.84686 0.317606 -7.50311e-19)
(3.22984 2.54702 -4.3755e-19)
(4.04125 0.210477 -2.74222e-19)
(4.18199 0.633653 0)
(7.55798 -0.721173 -9.33527e-19)
(4.90056 0.28348 4.01761e-19)
(3.76774 -0.44086 -3.61713e-19)
(4.40275 -1.13543 0)
(6.01131 1.13283 9.10381e-19)
(4.55591 3.40694 1.00558e-19)
(4.15869 0.0243681 7.69175e-20)
(3.13546 -2.94172 0)
(1.37382 -4.99435 2.60881e-18)
(4.0684 0.310248 0)
(4.28645 -0.51493 -4.096e-19)
(1.38859 -0.942594 0)
(8.13059 -1.0052 0)
(3.49334 -1.07943 0)
(3.97174 -1.52917 0)
(-1.82383 -2.86396 -1.04528e-18)
(2.19 -2.05113 -8.28215e-20)
(3.69153 -0.0235718 -1.32984e-18)
(2.51377 -1.39213 -1.7118e-19)
(2.49171 -1.06972 0)
(2.60398 -1.52008 -1.44453e-19)
(0.717303 -0.733305 -7.88483e-18)
(3.12161 -1.46899 0)
(2.91588 -1.00057 -1.963e-18)
(3.9511 0.20092 5.85326e-21)
(4.64478 0.725892 -1.54663e-20)
(4.71485 -1.66134 2.78913e-19)
(3.62198 0.371409 0)
(4.30071 -1.41574 0)
(6.67164 -0.15819 9.07337e-19)
(3.28403 -0.209009 1.85025e-20)
(3.90166 0.134559 5.6389e-21)
(3.08946 -1.1934 -6.82528e-22)
(4.01687 0.00498955 6.60659e-20)
(4.12252 0.134128 7.25361e-22)
(4.02571 0.373404 8.28482e-19)
(3.72232 0.307876 -1.65054e-21)
(3.7055 -1.03247 0)
(-5.53625 1.65524 0)
(4.16326 0.0445061 0)
(3.88475 0.00571538 0)
(3.43171 -0.620043 8.29037e-19)
(5.15948 -0.263606 0)
(-0.570192 -4.62728 8.30643e-18)
(3.78133 -2.06837 -6.47054e-20)
(2.62194 -0.845724 -2.89609e-18)
(2.83769 -1.00186 1.66225e-19)
(2.29997 -1.771 -1.32486e-19)
(1.46684 -5.03016 -5.79323e-18)
(3.93652 0.0601369 2.44322e-19)
(1.90579 -1.77207 -1.7948e-19)
(3.78204 0.333763 -1.38672e-20)
(4.9958 0.0116128 0)
(4.6351 -0.810649 0)
(2.29059 -1.37673 0)
(4.28958 -0.881996 4.2116e-19)
(3.40827 -1.56716 0)
(3.72388 1.30424 0)
(3.98474 0.00602092 0)
(3.48255 -0.854893 8.65577e-19)
(4.15284 0.369377 -7.06436e-19)
(3.81529 0.00304286 0)
(3.72538 -0.714156 -3.93617e-19)
(3.96754 0.389901 -8.45565e-19)
(5.1096 1.80226 -1.4123e-18)
(3.16625 -1.48166 1.17274e-18)
(3.83661 1.42415 -4.2277e-21)
(3.23256 -0.471932 -1.56236e-20)
(3.51667 0.128184 5.47876e-20)
(3.51424 -0.389843 -1.80586e-19)
(4.72397 0.291581 2.47318e-19)
(3.88519 0.0932912 1.47819e-20)
(3.6245 0.20252 -1.2378e-18)
(4.1742 -0.0403451 0)
(2.29974 -0.472415 2.05646e-19)
(3.88252 0.135667 1.25604e-18)
(2.85018 -1.01024 5.61599e-20)
(4.18362 -0.609937 -5.05229e-19)
(2.09428 -0.29561 -2.51351e-18)
(4.7514 0.215194 -4.52567e-20)
(6.22278 0.401252 1.48791e-18)
(4.01247 0.188898 0)
(3.78245 2.24912 6.98276e-19)
(3.67804 0.104981 -1.63489e-20)
(3.54826 -0.394888 3.60398e-19)
(2.57375 -1.2633 -3.47304e-19)
(3.94038 0.028815 6.73857e-19)
(4.14959 0.0893252 -7.58496e-21)
(4.05668 -0.00749763 -2.52511e-20)
(4.17149 0.0594069 0)
(3.06622 -0.756851 0)
(2.91867 -1.40162 1.4237e-18)
(0.431382 -0.745081 4.002e-19)
(4.04711 0.0125731 1.32629e-21)
(3.93271 0.125937 2.53451e-18)
(3.92167 1.81814 -2.29972e-18)
(2.90061 0.625114 0)
(3.55974 0.260263 0)
(3.17293 -0.679499 -1.1235e-20)
(4.90386 0.00342636 2.55758e-19)
(3.96483 1.33972 1.13022e-18)
(4.98838 -0.351685 0)
(4.23932 0.00479475 0)
(4.10865 -1.20911 1.5352e-18)
(3.89501 -0.318923 1.06487e-18)
(0.224066 -0.0432171 -7.06365e-20)
(3.78457 -0.0340324 0)
(8.66187 -0.519731 1.55428e-18)
(3.94956 -0.939437 -1.55885e-19)
(0.765334 -3.30735 -6.5828e-19)
(3.93497 -0.0379912 -1.44145e-18)
(6.2386 -1.64191 0)
(5.1108 -1.324 9.78924e-19)
(3.36462 -2.74513 -9.31547e-19)
(0.0625043 0.0573723 0)
(3.92178 0.00673788 9.26553e-21)
(3.80015 0.254325 -8.19425e-19)
(4.06638 0.0107276 1.1172e-23)
(5.31544 -0.597198 1.10465e-19)
(3.43492 3.12787 2.04226e-18)
(4.12455 0.0562996 0)
(2.09312 -0.732156 -1.6771e-20)
(4.00187 1.46527 2.15348e-18)
(4.96864 -4.68354 -3.64172e-18)
(4.11569 0.595767 6.1515e-19)
(2.63873 -1.1387 6.10435e-20)
(4.05424 0.0295004 -3.13476e-18)
(4.02199 0.448591 2.33825e-20)
(3.5326 0.224206 3.0416e-20)
(3.40577 -0.769216 0)
(3.6893 0.00987935 -1.14719e-19)
(2.27119 -1.04571 9.88124e-19)
(4.4066 -0.244879 -1.50681e-18)
(3.94506 0.107511 -1.13615e-18)
(4.26441 -0.47799 3.80747e-19)
(3.30395 -0.297634 3.04095e-18)
(4.19564 -0.0104486 -2.20104e-20)
(3.54829 0.256869 7.26762e-19)
(3.96052 0.138479 2.25772e-20)
(5.18809 -1.03332 -1.53793e-18)
(5.03924 2.08011 -9.83029e-19)
(3.25099 -2.08389 4.29669e-19)
(4.01089 -0.0759539 0)
(1.61365 -0.602516 0)
(2.0918 -0.620723 0)
(2.61711 -0.770237 2.21975e-18)
(4.10832 0.0754515 -1.81854e-18)
(3.59295 0.493823 0)
(3.00268 -0.61599 -1.73913e-18)
(3.61103 0.423361 0)
(3.45597 -0.556403 -1.35706e-18)
(3.71026 -0.457002 -3.76494e-19)
(3.6622 -0.974214 -1.23132e-18)
(4.22772 0.0304515 0)
(3.87084 0.102091 0)
(3.83408 -0.111431 2.14053e-19)
(5.05126 0.485536 2.90729e-20)
(4.99962 -0.18219 6.93295e-19)
(4.96362 3.59993 -1.79623e-20)
(5.07968 -0.485687 0)
(3.41852 -1.2713 -6.29066e-19)
(-1.86922 -0.611382 0)
(1.86847 2.01508 -1.11381e-18)
(5.69599 2.38701 0)
(4.12652 0.088157 1.77919e-20)
(2.29575 -0.218718 9.71669e-19)
(2.9967 -0.202715 9.67104e-19)
(3.75285 -0.0342931 -2.18636e-19)
(3.64664 -1.91976 -1.64592e-18)
(3.85914 -0.368604 2.69688e-18)
(4.16353 0.622046 -2.12551e-20)
(4.89503 -1.34002 -8.79046e-20)
(3.90066 -0.883762 -6.09932e-19)
(-1.28855 0.513228 3.38667e-18)
(5.25111 0.816066 0)
(3.95257 0.098255 2.31758e-21)