/*--------------------------------*- C++ -*----------------------------------*\
| =========                 |                                                 |
| \\      /  F ield         | OpenFOAM: The Open Source CFD Toolbox           |
|  \\    /   O peration     | Version:  2306                                  |
|   \\  /    A nd           | Website:  www.openfoam.com                      |
|    \\/     M anipulation  |                                                 |
\*---------------------------------------------------------------------------*/
FoamFile
{
    version     2.0;
    format      ascii;
    arch        "LSB;label=32;scalar=64";
    class       volScalarField;
    location    "6";
    object      p;
}
// * * * * * * * * * * * * * * * * * * * * * * * * * * * * * * * * * * * * * //

dimensions      [0 2 -2 0 0 0 0];

internalField   nonuniform List<scalar> 
13486
(
2.5194
2.04503
0.0744965
-0.667221
0.829742
-0.209064
0.373574
1.42571
1.71278
0.955338
-10.7706
0.43109
2.65422
-0.219771
0.653445
1.05278
-5.09523
0.12171
0.596539
2.27846
-0.402596
2.62346
2.00647
-2.71031
0.907655
-2.44887
-5.72902
-1.12021
0.0023754
-1.00893
-0.237999
0.489164
-2.13279
-0.703023
1.42872
0.0113658
-0.00831764
2.06685
-0.150248
1.70866
0.244649
2.75589
0.0371816
0.903984
0.865142
0.406599
-4.04525
0.00478675
-0.00827265
-1.01269
1.50063
-0.165583
0.329769
2.09955
0.0639161
0.895352
0.0464427
-0.169531
-2.02462
-0.00684514
-12.1511
-0.00136268
-3.02568
-0.361071
-1.5662
-0.00457362
-0.913833
2.52836
1.70267
-0.0450723
-0.932197
0.0818099
1.71839
-4.6903
0.00362959
0.0496205
0.00391811
0.637827
-4.17177
-0.237266
0.00486728
2.07111
-3.06108
0.0815266
2.52947
0.928014
-0.142874
1.42137
1.70114
1.04488
0.362037
1.23935
2.41811
2.17701
1.78255
0.00271355
-5.86051
-1.38899
1.68179
-5.04914
0.0272092
-0.124425
-1.4027
-0.16404
1.11577
-5.03036
1.70887
-0.158313
-4.26752
1.12362
1.65077
0.395747
2.09796
0.048598
2.95134
1.72863
0.911597
-0.653475
1.73327
-0.00310463
0.121309
-11.6159
1.86253
-0.155869
1.6443
-0.154081
1.21342
0.439241
-0.5748
-1.14691
-0.149665
-3.65047
-5.50285
-4.10735
1.57308
1.40353
2.93302
1.16866
-0.00363919
1.46774
-1.65891
0.324419
0.495746
-0.24536
0.0438374
-4.56343
-0.0503904
1.76172
-1.09942
0.000950962
1.01082
0.609545
0.0060707
2.11217
0.521512
0.0679934
0.930874
0.0394862
1.87501
-0.289838
-0.744456
1.87551
0.233351
2.7477
-0.170574
-0.499642
0.0300494
3.37206
-0.0629496
-4.11515
-5.57776
0.536088
1.20388
0.911128
0.00276304
-5.09733
-0.420014
-1.91615
1.71164
0.507074
1.60447
0.0487551
0.736051
-6.55675
0.0761062
-1.11391
0.000686219
-0.924017
0.314727
1.81553
-0.00413562
0.0686795
-0.198393
2.18523
-0.230566
-10.3718
-1.21699
-0.785928
2.27287
-0.411275
-0.266172
0.415082
2.07128
0.683393
-0.217637
-0.238273
0.0887793
1.84932
-0.18681
0.0856084
-1.0198
-1.86368
2.24957
1.70901
-0.206481
-0.494546
-1.05625
1.07469
2.29261
-2.14422
-5.07758
-1.12463
1.5055
-0.798311
0.227224
2.46203
-0.510804
-1.042
-0.397318
-0.158308
1.58493
-0.158855
-1.73636
2.80909
-0.913954
2.3659
-0.7847
0.0687815
2.38978
0.767633
-2.17286
1.18073
0.0547963
2.25437
-0.149141
1.9456
0.800776
-1.58406
-4.08279
1.01196
-3.88671
2.98385
1.67016
-0.164737
-0.310555
-6.6329
0.474489
-0.472215
0.0616574
-2.11002
1.87547
-0.143365
0.640911
-6.1201
0.932399
-6.6883
-0.406318
-0.347834
1.59127
0.0934785
1.72171
1.67392
-1.09576
0.323765
2.46601
-1.47797
-0.312881
-0.198417
-0.178341
-0.0163698
-0.237105
1.40546
1.72596
-5.10594
-10.7408
-5.15174
-1.57466
-0.599301
0.216322
1.60602
-0.822338
-0.0994182
1.78807
1.58842
-0.744953
-0.848842
-0.748976
0.293786
1.75867
0.329352
0.214801
0.0906127
-0.0327149
0.519377
-0.0139306
0.713692
-0.185922
0.83758
-0.155157
-0.00426633
-4.039
-0.613479
-0.139413
0.397614
-11.317
1.43352
-0.107948
1.70488
1.85836
-0.469506
-0.00495694
-0.0917639
1.69738
2.19145
2.9033
0.385284
1.07887
1.37603
0.166115
0.999274
1.43309
1.18574
0.32412
2.3432
0.363282
1.68166
3.05759
0.650566
1.08192
-0.144202
-0.435702
2.17061
0.963381
0.755049
-7.32926
0.00302948
1.13562
2.95302
-2.15937
-0.113696
1.09821
0.216079
0.304172
-6.11239
1.7455
-0.00237975
-4.8296
1.18704
-0.166741
-1.75637
0.614034
0.341536
1.90244
1.67793
-1.05268
0.00352525
-0.809833
-3.57584
2.30193
1.19936
0.0293032
1.15482
0.190717
-4.75874
-0.128373
1.53391
1.73863
-0.122884
-10.8102
-3.31191
1.57014
1.15244
2.65597
1.82065
-3.80417
-0.332243
0.143408
1.05483
-5.07129
-0.11663
2.21229
-1.18523
0.763752
2.4084
2.49101
0.0045612
-0.744905
-4.49332
-5.1171
-1.6658
-5.10905
0.503073
1.49783
-0.254285
0.413335
-0.0214142
2.14462
-1.86964
1.21568
1.93552
1.02929
-1.06708
-1.27594
1.76329
1.72257
2.10902
-6.29428
0.958593
-5.64179
0.794176
1.71129
0.223693
2.96255
1.12982
-0.63256
-0.878702
0.406376
1.72395
-5.61322
0.138858
2.60134
1.50251
0.746033
0.178768
0.773763
-1.72743
2.64425
-0.107582
0.955691
2.48855
-5.20243
-1.11213
-4.05704
-1.30213
-0.394076
2.00457
1.99909
2.61588
-3.43336
-0.00669766
-7.61553
1.1033
1.73521
-0.993996
-1.27827
1.69886
-3.53406
-5.1655
-5.67495
-4.34929
-0.0134066
2.12197
0.00357439
0.16605
-0.457432
1.64004
0.00433252
3.21643
2.44739
1.71816
1.37453
0.0148052
0.00203642
3.04071
-0.350506
-0.00108525
-0.622524
1.69732
-5.12406
0.273998
1.22983
-0.00548776
-0.670574
1.9863
-1.93513
-5.11129
1.14123
-0.139508
3.36029
1.163
1.516
1.85135
-5.54229
0.140968
2.74078
0.839726
2.20188
0.385326
0.514273
-0.411714
-0.238992
0.0348178
-4.98518
1.76838
1.69037
-3.99218
0.0017728
-0.268479
2.51399
2.01071
-0.331346
1.72212
1.23976
-0.630363
0.941624
1.54085
-5.59782
2.61412
0.014032
-0.0389864
2.73318
1.16694
-0.00309095
1.11797
-0.524333
-2.83981
0.693335
1.07428
1.88947
2.42444
-6.87121
0.764994
-6.90793
0.0026619
2.36074
0.510916
-6.46741
-1.58389
0.217815
0.0563867
1.37194
-1.43605
-1.21336
1.72759
2.3187
-0.169808
1.86703
-4.37566
-5.52731
-1.64387
0.743039
-7.9677
1.86141
0.116341
-12.4517
1.4438
1.99416
-2.17595
-6.82261
1.52109
2.36368
0.587496
2.54028
0.127475
1.17377
0.431854
1.88171
0.0449658
2.30052
-5.95986
0.479713
1.63909
-0.534583
-1.39446
1.69479
-5.25586
0.310198
1.9677
2.61992
-0.585719
0.0611444
0.521965
0.271018
1.49761
1.25943
0.573271
-7.57524
0.058521
2.50408
0.315228
0.19924
-3.79329
2.63649
-0.635286
0.0504683
1.66368
1.35389
-0.243259
-0.388075
1.45287
0.12444
-0.118681
0.702361
-1.54373
2.5552
1.685
1.17466
1.20947
0.102017
-1.56634
2.86097
0.553782
2.86891
-0.891808
1.61105
0.0110749
-4.7328
1.03187
1.00551
2.99592
-2.9428
1.1057
1.04037
-2.30766
0.967839
0.119425
-0.57108
1.64992
-6.87316
-1.31894
-1.80723
-0.164221
-0.582718
1.83767
0.00436147
2.78957
1.68766
-0.189806
-5.19859
-1.00674
0.592355
-10.4367
-0.279748
-5.02999
2.34706
0.000819499
0.0519751
-10.3038
2.66339
0.00218936
0.215369
2.7318
1.52058
-5.89041
-0.173342
1.1895
0.183126
1.62925
0.0523835
-0.876092
0.68669
1.52949
0.54399
1.37439
2.77094
0.0504443
-2.92772
1.69356
0.241367
-0.275054
1.1549
1.29113
0.789223
-6.05855
0.119523
-0.119146
0.195144
2.35702
0.564548
0.147527
0.0923967
0.153182
-0.259489
1.74209
-0.0406062
1.59349
1.59696
2.34845
0.141357
-1.13606
2.8468
0.0218404
-3.30409
1.77079
-1.72735
1.92872
0.0430123
1.66273
-0.252516
-4.39038
-2.27448
0.00421978
-5.10399
0.951421
2.92552
-0.568512
-4.22004
-0.589159
1.78303
0.0560313
0.794809
-11.3238
2.89542
-5.94018
0.898599
-1.07445
1.02848
1.71654
0.710161
-3.04126
-0.266206
2.70354
1.73933
0.729122
1.49623
0.122515
1.32353
1.34872
1.03549
-4.00437
-0.312226
2.12471
0.377682
-0.184423
1.41619
-2.83318
-0.544859
-0.109263
1.82654
1.82606
-1.77833
0.0958015
-5.50189
-0.306295
0.132594
-0.56399
0.34223
1.65607
-0.0219821
-1.41865
1.97782
-0.00709542
-0.830384
-0.0921083
-0.745132
-1.75621
-2.01801
-0.123569
-8.10474
1.61773
2.65024
0.00252737
-0.830431
2.73911
2.57044
-0.529458
-1.24793
1.75001
-4.6162
0.0494502
0.0408418
0.11603
0.939202
-5.10699
0.831346
1.18297
-0.659195
-0.335292
-2.41599
-0.177765
1.45577
0.808231
1.085
-2.34455
1.49764
2.51825
-7.0749
-7.47644
1.90119
0.609172
1.12525
-0.145582
-0.968095
-2.5599
-0.132289
1.74238
2.87565
1.85457
0.0975406
-0.128293
1.7021
2.44885
-0.349037
1.81076
1.67266
2.56397
0.408399
-0.108616
0.290127
-0.458641
2.55098
0.1048
-0.0948711
1.14923
-0.313648
0.414071
-0.105911
-1.58687
1.63539
1.28314
1.2141
0.855263
-3.22141
-0.388673
-0.521684
0.94569
-1.64396
-0.743131
0.0421581
-8.53868
-12.9043
0.936749
-0.975665
-4.049
-3.01314
-0.643667
1.25717
-9.28732
-4.58619
1.89864
-0.603333
2.6294
-1.01249
-4.14218
2.00643
2.37556
0.00721697
0.151455
0.402134
1.76289
0.962357
-2.59039
-0.235105
-0.0142173
-0.305357
1.67056
0.0511365
1.0375
-0.101261
1.70022
-5.68792
0.0506961
-0.00388981
2.05254
-1.36826
-11.2868
-3.75021
2.60361
0.0791194
-2.95589
-10.9147
1.6753
-3.67716
-0.0938416
0.388046
0.796517
-0.0203331
1.15837
-1.4763
1.43439
1.68696
1.95714
0.81395
-0.0557403
-0.645141
1.31915
-0.490087
2.03599
1.21089
-0.243198
-0.167477
-0.351373
-0.0654972
-0.010246
1.92671
0.729757
0.256384
1.69675
0.103879
1.34263
2.96504
-0.105861
-1.99398
1.20072
-0.0565589
-0.10908
-0.372843
-0.447824
1.66896
0.053341
0.0245946
0.0435533
0.170838
2.16739
-5.57551
0.00446353
1.70362
-0.050048
2.40879
1.95199
2.25267
0.425364
1.11839
0.53151
0.0496232
1.26269
1.64923
-0.219173
-0.543697
-2.70493
-0.960183
-9.81945
1.67345
-3.8479
-2.58863
-7.89071
-0.203243
-0.00474592
1.71855
0.00704158
0.343347
-4.21823
1.73198
2.92974
-0.032845
-10.705
0.997967
0.0108162
1.61825
-0.249837
-0.150596
2.03124
-0.180074
2.77945
1.15658
1.69346
-0.943786
2.19112
0.0479207
1.96364
0.0133196
-2.20735
-0.407875
-3.26829
1.121
-0.0749926
-0.100029
2.61925
1.72721
1.84939
2.38617
1.88342
2.04669
-0.509157
1.76184
1.74329
1.74567
-0.47379
-0.508944
-1.13331
-1.36812
0.450945
1.89959
-4.42386
2.51981
-1.42457
0.0518054
2.85153
2.41061
-0.535767
-2.70821
1.69456
0.925376
0.101168
1.58418
-4.27092
-0.624345
1.69193
2.33347
-0.146397
1.8687
2.16914
0.00461509
-0.720418
2.18377
0.754861
-0.00727866
-7.76011
0.0740475
-1.53651
1.60718
1.23065
-0.0325839
-0.076284
-1.17342
0.45387
-0.0913463
0.401999
2.46854
-0.139757
3.16316
1.68435
0.573888
1.89849
-6.01054
-4.93523
-3.31394
1.66586
-0.148906
-3.90592
-0.234885
0.88043
1.0442
-0.138857
1.20813
-3.82553
0.86742
0.0871978
-0.114015
1.34792
0.539236
2.18896
1.73909
1.80007
1.61798
-0.543368
-1.79685
-1.3514
0.106349
-0.750872
-0.162838
1.32225
-0.443347
-0.0540807
-0.0341385
0.207361
-11.704
1.18367
0.861604
-0.410552
-1.24224
0.814337
-1.06696
-1.79151
0.246634
-0.080095
1.86503
1.29302
2.17011
-4.07902
1.55725
0.0485605
2.35415
-0.0976159
0.9368
0.15198
-0.186001
2.72712
2.81417
1.39465
0.928004
1.1949
1.54532
2.75847
1.15274
-1.91104
-10.698
0.337444
-1.34083
-2.77906
1.72132
1.61616
-0.0257437
0.459605
1.41934
1.52505
2.99511
-4.49623
1.36887
-5.16168
-0.276743
2.42351
-0.360735
1.40131
-0.361626
0.611807
0.670115
3.1151
-0.377977
-1.15092
0.898578
0.267892
-7.70679
-4.28744
0.14021
1.89651
-1.40416
0.933089
2.56689
2.36267
-0.25199
-2.87264
-0.523904
0.351907
1.98433
1.58518
2.34471
1.02938
-11.2089
2.45823
1.53574
-2.37454
1.29595
1.7538
2.12624
-10.2486
-0.227614
0.00213765
1.47218
2.69489
0.900933
0.216183
-1.54617
3.00762
-8.17194
-1.62007
2.80815
1.51649
0.0491218
1.34009
-0.817775
0.928866
-0.804159
-8.46024
-0.129729
-4.16258
0.09914
-0.619655
-4.92324
-5.09991
-3.26116
0.128442
-5.10292
-4.11774
1.35953
1.59289
0.896138
-3.92547
0.452558
0.31734
-0.552029
3.14765
1.11197
-1.20218
1.51499
-0.787654
-4.57785
1.3895
1.37935
1.61322
3.17972
0.00374167
-0.353211
-2.80809
0.0813101
1.14608
1.65686
-0.610993
2.48523
1.22614
1.80114
-0.421082
-0.232403
0.0567528
1.74727
1.70789
1.81351
1.70668
2.93113
2.8801
-0.815779
1.52357
2.15472
-1.1615
2.33798
-0.111483
2.84664
2.31629
0.0990392
1.93258
0.883818
1.28411
0.00101096
1.74358
-1.72115
1.46448
0.61497
1.14088
-0.211079
1.61582
-0.0842534
0.443483
2.75221
2.74664
1.11916
-4.13151
0.412043
0.119376
-0.325464
1.41293
2.46564
-4.11531
1.7497
1.61056
0.827495
1.7361
-7.94716
-0.371519
-0.0371395
2.97517
0.493572
-0.880189
1.96925
-0.216192
0.054388
0.897421
0.336588
1.32903
0.685258
-0.955123
1.00894
1.35331
1.11078
1.26019
2.89808
2.38594
2.10281
1.94232
2.69472
0.803093
-0.124372
0.075273
-1.64833
2.71832
-0.451553
1.67321
1.50935
-5.97054
0.878247
1.86234
-2.58381
0.844445
1.1281
3.21819
-6.19094
0.751038
0.0287979
1.93205
0.0647392
-0.920747
2.6749
2.28776
1.62541
1.65657
-0.899466
0.810046
-4.99694
2.87392
0.0210615
3.09281
-0.113815
0.223622
-4.95371
0.910043
-4.69898
0.32284
-0.187334
0.652846
-0.122314
0.623543
-1.23904
0.00046652
-0.485258
-4.03301
-1.09705
-2.66841
-0.14228
-0.246805
-0.364059
-11.2795
1.72591
1.75914
2.1656
1.69046
0.685175
0.661135
3.35865
1.63122
-5.66302
0.00350106
-0.129893
1.33861
1.47665
2.49054
-1.49412
-1.50581
1.3781
0.00238015
0.434068
2.12883
-4.20117
-6.98024
-5.01225
2.90651
-1.36407
1.16732
2.14875
-0.174878
1.3302
-0.0699285
-7.39633
-6.6026
-0.120526
1.17975
2.00439
2.10887
-2.79087
-4.12034
1.11398
-4.64851
-1.04419
-0.549271
0.360207
-0.772578
-0.165433
-1.58994
-6.35069
-2.50409
2.58102
-0.45447
2.80992
-8.29788
-0.321177
0.642167
0.0597693
2.38686
1.65746
2.01534
-0.0940738
-0.8145
-7.98174
2.29954
-4.01208
1.27647
-0.109647
2.06559
2.37862
-0.11534
1.66176
2.70062
1.85074
1.81248
-3.05066
-0.0821761
0.705491
-1.62198
-0.184997
1.01806
1.20518
0.0670189
-9.18277
0.401582
-0.0117906
1.4696
1.25053
-1.05782
2.83705
0.0794957
0.00147649
0.234529
1.67829
-1.17196
0.00549994
1.82626
-0.819607
0.0448912
-0.344952
1.78611
1.68389
1.61009
-0.171497
1.61503
1.95627
1.8942
-0.780584
0.0545514
0.442882
1.44771
-1.5036
-5.42265
-2.51182
-2.06936
-0.80338
0.0385115
-0.173602
0.0485815
-4.36198
-1.11831
-12.6796
-0.0294787
-0.846552
0.681666
-7.16015
1.80518
3.38874
0.638611
-0.478309
0.814851
0.251398
0.411097
0.0245602
-0.980305
-7.04574
0.147157
2.21942
0.00542322
2.655
0.02593
1.60627
1.37811
0.744498
-5.16875
0.984023
2.92174
-0.366502
1.70873
1.6459
2.47947
0.149887
2.27813
1.81293
-4.8258
1.92851
-6.27836
-6.10226
2.32847
1.51765
-2.50702
0.119891
2.18443
0.200412
-2.31282
0.0462697
0.0467032
1.35275
0.958302
1.72158
1.5777
1.4244
-3.27123
-1.11848
-0.728559
1.68521
3.09224
-1.10359
-7.37359
-5.12798
1.69123
0.114381
0.120068
0.740572
0.128436
1.30232
-0.183346
0.396716
2.58455
0.805041
0.1021
-0.295533
-2.1872
-1.75133
-5.15278
-2.42996
-7.25597
2.02455
0.954837
-1.26678
2.70443
0.00424259
-8.18126
-0.545653
-6.46125
1.81753
-4.00578
0.61424
1.6757
-0.205688
-0.8001
-0.195227
-5.86778
-0.746579
1.85919
-12.3811
-0.0875601
-4.99127
1.64724
1.80545
-1.47144
2.129
1.96609
2.55803
2.62058
1.87405
0.283888
2.97647
-4.99897
1.63658
0.329278
-9.24516
2.06812
-2.12374
2.57441
0.849323
-1.79019
-4.32702
-3.03902
1.82382
-2.5093
-0.929757
-0.0725412
-1.16597
0.100679
1.09452
0.348327
1.2217
2.90354
-4.27347
-2.37081
-0.816861
1.75507
1.32335
-1.61832
3.34987
-0.117001
-0.00621983
1.15073
-1.62672
1.64002
1.72805
1.93005
1.95739
0.122875
0.906033
1.60292
0.367031
-0.231176
0.00231723
1.82314
1.88588
2.32033
-0.252959
0.0647267
0.877768
1.07431
0.32025
-6.1817
1.43534
-0.476651
1.50101
1.7554
-5.09387
2.6508
-2.30595
2.86928
1.91631
-11.5835
0.0039805
-0.00169605
0.740172
1.79801
-9.61059
2.28308
1.62833
0.870857
0.0409224
0.337877
-0.31547
0.871504
-5.04635
1.03974
-0.645874
1.66471
-5.50562
0.00281734
-0.697397
2.08924
2.40784
0.904159
-5.28966
0.878112
-0.26385
0.0551467
0.994526
-0.192093
-0.208163
2.81151
-0.79153
-0.0752453
-1.64482
-7.05967
-0.0612953
1.74892
-5.07394
-0.582884
1.79101
1.07424
1.81359
-3.77268
0.772187
2.84213
-3.17265
1.66294
0.532537
-0.142828
0.63669
0.383655
-1.07455
2.89814
1.92127
-0.0389184
2.81429
2.18589
2.07666
-4.5293
-5.37861
1.08625
-1.94539
-0.0461316
-3.67529
-1.685
-3.38069
1.32169
0.6521
1.01366
1.12189
-0.166957
1.27185
1.69615
-9.56122
1.76461
1.10088
1.69835
-0.26471
-0.00481414
-1.52231
-5.18654
-3.07249
-0.682763
1.67886
-10.041
2.57314
-5.80494
1.64784
1.04219
-0.0384386
0.29366
1.71846
0.835226
0.450569
1.50724
0.241513
0.102366
2.43598
2.02461
-1.73868
-4.99479
0.0376971
1.5236
0.0724085
0.776023
-2.75002
0.0558813
-0.307212
-0.830725
1.45459
1.41846
0.223364
0.828139
0.0204528
-0.0759574
-9.2569
2.09904
-1.98432
1.61238
0.00233851
1.48508
1.78001
1.0126
1.55553
0.0754724
-1.24896
-0.0736518
-5.43785
-2.44111
-2.11078
0.0541563
-0.0908488
1.38858
-0.0438042
1.67002
-0.056808
0.111807
-2.47058
-0.106003
1.74333
-6.56684
1.62791
0.43313
-6.3824
-0.0796451
-2.1935
1.18871
1.79137
-0.0755191
0.321287
-5.00612
1.97974
0.112949
0.519725
-7.09141
2.10954
0.835228
0.00953085
1.79838
1.73793
2.03396
0.359663
2.09858
-3.36306
-0.0845031
-0.243449
1.63154
1.1295
0.458927
0.200268
-4.45364
-8.21134
0.919245
0.0600674
-9.35614
2.62491
-3.32497
2.00343
1.20318
-0.952556
-0.128656
-0.666616
-0.224255
0.245707
0.255735
1.60998
-0.0608335
1.70301
-2.54409
0.706214
-0.199847
0.413515
-5.02407
2.09916
2.84994
1.84103
0.956906
0.368074
1.16764
-5.61251
0.0594095
-0.209327
-0.313009
-2.00434
-12.274
-5.48058
-1.21574
1.48819
1.65949
-3.53439
0.433775
1.91192
-1.03444
-2.30403
1.82792
-0.132879
-10.6211
0.0387502
-0.329625
0.00538303
2.68019
-0.223399
1.61396
-1.59046
-1.04411
-1.00291
1.63402
0.439148
1.38464
-1.25359
-1.38644
-0.530868
0.316904
1.95725
1.46751
0.358451
-0.153129
-0.738051
2.9583
-0.24642
1.90281
2.09627
-0.00551212
-0.168522
0.781961
-5.1515
-0.954993
1.50281
1.0339
1.61099
-3.34727
1.85282
0.258072
2.40515
0.325654
1.52318
2.12506
1.43614
0.353026
-6.06025
0.603486
-5.71596
1.45632
0.825015
2.02587
0.191568
2.54928
0.298917
2.71357
0.0263631
2.11948
-0.184986
1.25262
-8.45859
1.63698
0.812399
0.767739
2.52853
1.68957
0.435933
-1.09492
0.964447
1.61964
-0.101114
-5.11327
1.21576
-1.29469
2.18157
-1.59907
2.5957
0.478166
3.39026
2.61705
1.23893
1.10143
-9.38441
0.141383
2.77787
-0.0582624
-0.0431685
-0.277471
2.74486
0.897405
1.43301
2.3431
-1.10504
1.82006
-0.56594
2.00008
0.0539524
1.89427
1.69934
2.32399
-0.125675
-3.73219
0.502877
-2.43888
0.784463
0.293349
-0.66516
2.17629
2.44127
0.0239937
0.575034
-0.520569
2.19623
1.3718
1.53636
1.09261
-0.211016
-5.24379
-0.512268
1.74311
-2.55161
-0.0240388
0.188643
1.18577
0.808188
-1.09225
2.92836
-0.114224
2.57262
0.512937
2.62359
-0.965617
0.389306
-0.0222132
0.0528867
1.40907
1.67669
0.150573
-0.0126209
0.0312836
-0.0407568
2.43045
-0.465278
0.0458445
-0.1558
-0.00542516
0.594117
2.05688
0.805486
-0.139496
0.0203257
1.68928
3.09981
-2.60336
-0.537793
1.63195
0.0755843
0.911393
-0.125105
1.20608
-0.00618447
-3.93532
-0.323826
-0.466815
-0.32489
-0.0839254
-3.7118
-2.53123
0.0559682
1.35247
1.78608
1.49764
3.01714
-12.3279
2.73456
-4.90922
2.59539
-9.67456
-1.26222
2.91877
0.751397
-0.975393
1.70964
-0.12886
1.84016
-0.262208
-5.01628
0.288683
-1.18258
-1.45688
0.00301209
-0.327481
0.728714
2.09176
-9.35254
0.802355
-2.49639
0.441973
-0.133576
-0.0954332
0.209675
-0.161286
-2.06985
2.21998
-0.0423006
2.43311
0.653852
-6.41781
0.636334
-1.34441
-0.0163097
1.48007
2.09819
3.02105
1.31581
1.46635
0.797726
-4.21132
2.92055
3.1153
1.85275
-0.990088
-3.27899
-5.99522
1.54819
1.10239
0.623317
1.42577
-0.287012
-0.0678818
-9.99155
2.52096
0.22292
0.243016
-1.07874
1.61866
0.438681
3.31317
3.11542
1.47806
0.24406
0.45952
-3.92119
0.73997
3.19266
0.155778
-0.0114033
1.23806
0.00633168
0.357769
-0.220764
-0.453159
0.362493
0.277829
0.781674
0.0131718
0.592948
2.34142
0.540513
1.77535
-1.28031
-0.557408
2.82471
-4.55979
0.304453
0.451696
0.787865
0.370238
-1.71675
0.365826
-0.149203
0.315863
3.33514
-5.13306
-3.5273
-3.13812
-0.965249
0.123153
0.449667
-1.26132
-3.2923
0.010008
-2.98577
-1.2429
-1.57927
0.364201
-0.295233
0.197645
3.26565
0.222963
0.501573
-0.318944
0.392325
-4.02618
-0.705314
2.31393
1.65524
0.510855
-0.00973977
1.57327
1.78608
0.0815983
-11.34
-0.222688
2.30783
-1.13176
1.59683
0.0987767
2.56928
0.19193
-1.51418
0.181345
1.83605
-1.04746
1.52904
-1.11636
3.16428
-1.11103
-0.376372
-9.81875
0.83857
-1.78864
-1.36523
-1.24209
0.180875
0.77242
-3.98479
-0.195007
-0.230899
0.356289
-1.60936
-1.269
1.3444
-5.77668
1.45251
-1.40368
1.85483
2.906
1.57397
-4.11663
1.69529
0.154039
0.320365
-0.258716
-0.620929
-5.12026
-0.625455
-0.814066
0.751504
0.0504305
-0.987562
-0.0670119
-8.05387
0.868287
1.72515
-1.54397
-2.00505
-0.531318
0.00685141
-0.0271604
0.995555
-2.93724
-2.21896
1.73862
-0.0858112
0.97195
-1.81573
-9.64888
-7.37046
-12.7694
3.25565
0.541717
-1.3991
0.565898
2.74375
2.83136
-1.80258
-0.58566
1.68712
-0.0650496
-0.423445
2.81585
0.943449
1.49038
3.32004
-0.417892
0.514074
0.30959
2.51624
1.75431
1.73957
2.13036
1.23879
0.0388307
0.0662591
0.841558
0.415563
-5.20523
2.87559
-0.683033
-0.809035
0.0142526
-1.498
0.833056
-1.08781
-0.64438
0.430631
1.75132
1.83137
1.92797
-5.42691
2.48316
2.80173
-3.74421
1.05684
-0.230174
-0.123287
0.312269
1.0412
-0.0845713
-1.04683
-0.964462
3.10045
-6.25121
1.9407
1.68247
2.22587
1.27047
1.31893
-0.0227195
0.0329185
1.00315
-0.166569
-7.38594
-2.37271
0.0481273
-0.887979
2.06506
-3.47062
-0.0576441
0.414149
-4.00621
-1.45463
-5.05596
1.49042
-0.569351
-0.179925
0.841669
-4.09038
0.609818
-3.64706
-0.231069
1.81337
-7.45239
2.86768
0.00964994
3.0374
0.00416136
-0.209055
0.218506
1.50797
1.43345
-3.03848
-0.295441
-0.25991
0.19581
1.18567
3.32015
2.23304
0.573439
-1.07188
0.894061
0.0804639
1.93101
-0.0644196
1.05083
-0.586901
-1.09031
-3.95182
0.636648
0.0369273
-4.01781
1.15362
1.06998
2.77105
2.96927
-5.12372
-5.13057
0.175663
-1.4864
2.89243
0.113361
-0.575193
0.793312
1.26356
-0.557827
0.111447
0.181628
-0.123801
1.54479
-0.366899
0.517084
-0.02493
-1.14852
-2.75631
-0.387178
-2.82023
-2.56351
1.86101
-2.11417
-1.28638
-0.623525
0.138581
3.1429
1.25643
1.60446
-0.684509
0.866883
-0.044951
0.699159
0.570347
-1.24645
-5.07452
2.88433
1.78566
0.0249706
-4.50877
3.24977
-1.62763
-5.67323
-0.498445
0.868188
-2.00914
-0.532609
2.503
-0.0674203
1.54914
0.736236
-0.715755
0.188837
-0.244695
0.841282
-3.02826
0.0667283
0.591888
1.64532
-2.41221
-5.57238
0.120248
-0.900497
-1.72157
-1.59002
3.06241
1.15907
-10.0735
0.823503
0.486106
2.70474
0.956515
-5.06856
1.02402
2.13935
1.83835
-1.21603
1.52613
-0.0252032
2.86105
0.0343543
1.74754
-7.85889
-1.11488
0.0107155
-0.789453
1.01595
0.637209
-5.13844
-2.50829
1.98128
0.00211628
-0.104658
2.34783
1.37071
2.28664
1.59841
-1.44688
0.0198486
0.103626
1.66318
0.00145225
2.08713
1.31898
2.83283
-0.999561
2.22678
0.863632
2.86419
-0.650637
-1.05358
2.92516
-1.10486
1.29259
-6.54771
2.53153
2.82341
1.82668
-2.51438
1.69299
2.17296
-1.48877
0.808897
-1.25659
2.32094
-1.24682
-0.188263
-5.07348
-5.02588
2.13331
0.838694
-5.65462
0.884809
2.8187
-0.73364
-0.180761
-5.03017
-1.35361
1.42712
-0.351767
1.6285
1.5708
-5.37708
3.14491
-0.168013
2.41244
2.38317
-0.236577
-0.00403175
1.49156
-2.29741
-0.472978
1.48223
1.26903
-0.538503
1.57894
-0.49097
2.49345
1.846
0.669736
0.0640859
1.87643
-0.222903
1.09313
2.23066
0.364695
0.0128794
2.15857
1.7957
-1.11475
-4.19808
1.29489
1.88106
2.85612
-4.84944
3.01159
2.94966
3.05493
-0.127491
2.09213
-7.9961
1.69863
2.26181
2.20706
1.86145
2.46843
3.31112
1.50151
-5.10213
0.213509
-4.94167
3.27981
0.91473
-0.0357031
-1.8285
1.62784
2.49991
1.57035
0.595453
-0.27625
2.47629
-3.32362
1.80074
-2.00405
0.828828
-0.0780881
0.560484
1.09898
-6.54565
-6.36792
-0.102941
-0.857142
-0.0797467
2.05014
-0.279835
0.185186
1.56079
-7.22388
1.06456
0.00760243
-6.1638
-7.42373
-5.20477
2.35973
2.54098
-1.42101
0.744647
2.16929
2.00615
0.0252413
-5.92602
1.83677
-5.20239
2.32258
-5.20295
2.26248
1.12414
0.302364
2.11545
1.11766
2.20661
0.630946
0.847896
-1.04333
-4.15207
-9.66136
-0.191661
2.16469
-6.98962
-0.813724
-5.98451
2.42603
2.18668
0.680303
1.25228
2.43582
-2.50058
1.59744
-0.110161
-1.10756
1.59008
-1.51568
-5.93229
-1.4823
-5.14462
-0.642539
-11.0292
-0.121082
-6.67481
-4.19517
1.37694
2.88384
3.13979
2.7416
-7.881
1.82122
-8.45275
1.54809
2.43666
0.316727
2.1245
-5.07589
0.618521
-1.10242
-0.0757221
2.31321
-1.07721
1.90553
-5.39898
-0.380743
-5.09582
1.94672
1.88856
1.69965
-7.26074
1.58079
-0.173323
-5.25042
-5.04891
0.574283
2.90235
-2.89479
-0.667316
-2.24088
1.60579
1.63675
-0.157441
1.10648
-6.90951
2.47094
2.26625
-0.658709
-0.305324
2.40515
-1.48468
-13.126
0.0567009
2.20353
2.47214
-7.19104
1.20962
-0.134048
2.83441
-6.40096
-1.92142
-0.0960658
2.66454
0.0391936
-1.02385
-0.0517095
2.30027
1.37341
2.27817
-0.152193
-2.69244
1.86491
3.24708
-4.31555
1.52463
-0.00808999
-4.93201
0.0198518
0.637366
-2.4123
1.18305
-0.51091
1.15493
-0.286978
-1.5783
2.08372
2.50005
1.56888
-2.15757
-1.84195
1.95592
-6.18255
0.644487
-1.07196
0.843614
-8.2223
1.85392
1.9576
-0.0257867
1.8423
2.80381
-0.473993
1.38043
1.91508
-5.00041
1.0948
-0.655013
0.838237
0.633904
1.36947
0.00470456
0.598193
-0.482191
-2.94839
2.35272
0.695741
0.231493
-1.72617
-0.433474
1.75196
-7.66235
3.04355
-6.49596
-5.15798
-0.0867207
2.15164
1.90432
2.25144
-4.23407
2.70107
-8.30133
1.34077
0.0943194
-5.7413
1.58659
0.780412
-0.545793
1.15277
-5.23157
1.4036
-5.09788
-1.79231
0.0108705
-4.36003
-4.97996
1.50605
2.7651
-0.290691
-8.29544
2.15842
-3.0482
2.51892
0.795857
0.0961021
1.02717
1.71426
0.885343
-0.126026
0.144293
0.00672255
0.496996
0.693296
-7.02873
-2.28353
0.0594994
1.01427
-0.0873122
3.29203
1.81352
1.69137
2.54763
0.350743
1.89299
-4.18918
-2.92186
-2.92883
1.70694
3.21908
1.55531
-1.15794
2.3542
1.59419
1.61553
-0.226958
-0.0144848
0.9038
3.05996
0.0869947
-1.55326
2.27286
2.40342
1.78327
1.65377
2.04081
1.17542
-0.234116
-5.8836
1.84035
-4.74702
-4.043
1.63204
-3.98363
0.0391549
0.577565
1.82947
1.8998
1.92168
-0.0658092
2.2452
2.29937
0.358835
2.02089
1.75868
1.46338
1.34545
1.15564
0.867996
-0.168361
2.14457
2.00909
0.123794
1.53931
-0.0894612
-0.0353712
2.74101
2.0838
0.0100573
-7.71678
0.235244
2.1474
1.21116
0.467919
-0.0824166
0.186687
-0.81727
0.317439
-3.59165
-0.263961
1.25145
-0.355231
-5.09691
-7.29363
2.59706
-2.3047
-4.94019
-4.51679
2.77553
-0.325697
0.424163
0.419123
-5.28091
1.38864
1.60364
1.06637
2.45224
1.33486
0.069055
-4.92136
-7.01806
0.0263809
1.97694
0.15829
-7.63761
-6.0076
-0.798665
-5.20003
-3.72351
-3.25505
-0.436035
0.691881
1.6767
2.19065
-0.617009
-0.10935
2.4605
1.86605
-6.97354
-0.120901
-4.8256
1.03428
0.111895
0.930782
1.46562
0.0214816
-0.401705
-0.579322
0.526974
-8.08916
-5.04507
0.060707
-5.56724
-5.25134
-5.69305
-6.20103
0.0946854
-4.06444
0.864268
-7.28855
1.6818
1.5221
0.463591
2.17743
-10.2804
2.78415
-1.31594
0.137043
-1.38594
1.65518
1.01888
-4.12303
-3.38481
1.73569
2.05483
2.88438
-8.29128
-5.31226
-8.8717
-0.388549
0.00736858
-6.54775
0.629906
-5.19952
0.991548
-8.20897
1.2972
0.199653
-0.217859
2.52642
1.48224
-1.01913
-0.0346357
-1.98212
-5.05736
2.2065
3.14517
-5.36084
2.0636
1.55663
0.00259581
-0.176746
2.12055
2.04708
-3.39045
-0.269227
-3.45179
-10.3987
-1.27692
-5.81065
-1.10744
1.17885
-0.0435441
1.87451
-8.3101
-5.9243
1.60135
-1.15141
-5.05455
0.155394
1.34801
-5.04692
-0.69046
-5.73934
-6.51273
-5.05077
2.92743
-3.36024
-0.245436
-9.02837
1.82768
-5.06164
-0.0816143
-3.24093
-12.7205
-1.0804
1.89687
0.00645349
-5.995
1.44649
0.0188275
-1.48921
-6.07182
-7.75119
1.20097
1.37914
1.70091
-2.85455
2.51145
-1.01614
0.00397289
-0.316411
-2.60602
-6.6332
-6.91733
-4.22446
0.408723
0.773135
-0.179582
-0.294478
-1.8093
1.57276
-13.613
1.78195
-8.46204
1.11268
-0.6263
-0.0989162
0.0818042
3.22055
-0.244176
-5.08509
-2.44578
-1.84349
1.7041
-0.228249
0.102771
0.0392777
-5.56717
-7.90337
-4.25647
-5.45745
1.84354
-8.57588
0.282329
-5.42034
-0.0474795
1.45003
-0.169097
0.763873
-0.66789
2.20836
-5.09866
-2.4895
2.36251
0.686467
-5.04806
-0.313446
-6.85382
-1.73234
-0.434625
2.15254
-2.13505
0.7939
-5.18443
-5.81534
-10.7223
-9.40666
-5.38881
1.01095
-0.409345
1.66989
0.720216
-10.0014
-0.455453
-8.15509
2.08825
2.49085
-5.22919
0.205641
1.78901
1.68013
1.3312
-3.40916
-4.59583
-4.15833
1.71276
0.548257
-2.04487
-7.9124
0.96733
2.02124
-0.223847
0.115048
0.139424
2.33381
-1.79765
-1.93847
-0.0544023
1.48186
0.235211
0.0593041
2.52707
2.09494
-0.181481
-6.2214
2.12615
0.901183
-0.0554877
1.56073
-0.946414
-4.2463
-4.82854
-5.29226
2.06336
1.79819
-0.297367
-1.09991
0.0199001
0.00450608
1.8348
-7.1032
1.28178
2.22341
2.37984
-0.694384
1.67716
1.48438
1.8718
1.98303
-0.120837
1.99213
0.00349269
1.70405
1.0132
1.8246
-6.37047
2.11177
2.00903
1.5447
1.1717
-2.17913
1.19051
-0.0674879
-1.44676
2.27689
2.27417
-5.59201
1.92622
-4.45452
-4.54185
1.8128
1.81511
-3.08715
-0.099574
-5.26865
-6.39785
-1.21765
-1.4794
-3.4304
-0.368938
1.52746
3.02968
2.123
-0.71213
-0.67558
1.78666
0.944882
-0.225928
-4.52277
-1.76973
-1.89135
-4.50533
-4.17004
1.63153
-0.00667309
0.894582
0.0288739
0.0284146
0.022346
0.0301019
0.421395
0.875034
1.21847
-1.24158
0.823543
-2.79978
-13.2085
1.16441
0.984893
-0.230397
0.106548
1.18609
-0.122739
0.733862
-1.19195
1.67524
1.38515
2.66936
1.69802
-3.51833
-0.386351
-1.10952
-1.53707
-0.073184
-0.0463905
-0.356935
-5.40282
3.08514
0.0695609
0.0593601
2.4845
-2.43618
-0.928386
-0.164919
-6.59255
-4.45681
0.520301
-1.55986
1.64035
-0.470766
-3.11029
0.11984
-1.00484
-1.38625
-0.18169
-0.0563522
1.35847
-1.24416
-1.66025
-1.68581
0.673985
-1.87449
1.80977
2.55012
-1.46883
1.8456
0.961143
1.26841
2.80551
-3.06577
1.08459
0.89423
0.833485
2.40961
-0.348197
-0.386125
-0.16197
1.77841
2.54764
-2.07581
-0.108139
-2.38212
-1.74702
0.932318
-2.48174
-2.61243
-1.83418
0.743834
-5.13524
0.388923
0.560511
1.50933
0.299271
-5.03484
-0.0507152
-0.126703
-0.258899
2.71571
3.0362
2.26308
3.18768
1.54245
0.873726
1.90371
1.65065
1.59325
-2.29165
1.71725
-0.376129
-4.39935
2.48452
-0.498925
-1.74142
2.90615
0.0936614
-10.6091
0.960151
0.834947
2.06069
-2.4927
1.58993
2.69401
-2.62061
-4.56294
-2.16495
1.18513
-7.71995
2.16549
-0.149593
2.07045
1.69336
-1.82735
1.96387
-0.954047
-5.22675
-5.23083
-4.56171
2.03502
-1.92978
1.75271
-0.143866
-6.21244
-0.0716684
-0.0269805
-1.41163
-2.22962
-4.3773
2.06314
0.402855
-5.0335
-0.606781
1.15364
0.455327
-6.86716
0.888555
-0.206956
0.904862
-4.99023
1.05929
0.513249
1.03967
-0.284131
1.56454
1.03784
0.582802
-5.15548
3.17482
-1.33703
-5.31982
1.5674
1.38105
-5.2519
-1.65818
-5.67244
1.06266
0.89906
-1.68425