/*--------------------------------*- C++ -*----------------------------------*\
| =========                 |                                                 |
| \\      /  F ield         | OpenFOAM: The Open Source CFD Toolbox           |
|  \\    /   O peration     | Version:  2306                                  |
|   \\  /    A nd           | Website:  www.openfoam.com                      |
|    \\/     M anipulation  |                                                 |
\*---------------------------------------------------------------------------*/
FoamFile
{
    version     2.0;
    format      ascii;
    arch        "LSB;label=32;scalar=64";
    class       surfaceScalarField;
    location    "6";
    object      phi;
}
// * * * * * * * * * * * * * * * * * * * * * * * * * * * * * * * * * * * * * //

dimensions      [0 3 -1 0 0 0 0];

oriented        oriented;

internalField   nonuniform List<scalar> 
20045
(
0.245363
-0.264337
0.0189743
-0.530965
0.186509
0.344456
0.193023
0.965361
-1.15838
-0.00521711
0.0264519
-0.0212347
-0.421592
0.409609
0.0119831
-0.300975
1.12645
-0.825474
-0.508089
0.21965
0.28844
0.0333106
0.215781
-0.249092
0.238983
0.205318
-0.444302
-0.420323
-0.0485552
0.468878
-0.109151
-0.208674
0.317824
1.13557
-0.543822
-0.59175
0.174949
-0.177422
0.00247313
-0.644245
0.553642
0.0906025
-0.163016
0.531271
-0.368255
-0.546106
0.125783
-0.00564113
-0.0332361
0.0388772
0.366408
-0.292759
-0.0736494
-0.841779
1.23699
-0.395212
-0.374683
0.0279801
0.346703
0.0113431
-0.0435092
0.032166
0.0584098
0.116539
-0.0625296
-0.468435
0.364053
0.563397
-0.92745
0.412482
0.108239
-0.520722
-0.585887
0.94994
-0.100831
0.116653
-0.0158222
-0.649525
1.23157
-0.582041
0.870022
0.128486
-0.998508
-1.20615
0.662178
0.543971
-0.157557
-0.0022349
0.159792
0.717908
-0.506655
-0.211253
-0.397471
0.830419
-0.432948
1.18273
-0.690743
-0.491985
-0.277977
0.311288
1.05775
-0.516811
-0.540936
0.723591
0.0673597
-0.790951
-0.0297126
0.18363
-0.153918
-0.947186
0.415115
0.532071
0.293679
0.26155
-0.555229
0.0247454
0.198087
-0.222832
0.0633628
-0.0910585
0.0276957
1.07099
-1.0721
0.00110847
0.747785
-0.28035
-0.467435
0.349514
0.398271
0.514136
0.621436
-0.140412
0.196991
-0.0565782
0.637949
0.274407
-0.912356
0.87762
-0.154029
0.0740381
0.971783
-1.04582
0.65006
-1.09993
0.44987
0.879115
-0.639146
-0.23997
-0.599655
-0.423788
1.02344
-0.045729
-0.149576
0.195305
0.384464
-0.122026
-0.262438
-0.347051
-0.0745416
-0.0489719
0.815019
-0.766047
0.770634
0.0656722
-0.836307
0.529326
-0.926796
1.0088
-0.622413
-0.386384
-0.0631237
-0.176331
0.239455
0.465144
0.543653
0.259221
-0.879003
0.619782
0.0640335
-0.0526904
0.594272
-0.0994536
-0.494819
0.825238
0.0596101
-0.884848
0.0321761
-0.0404347
0.00825866
-0.333595
0.0805479
0.253047
0.423133
-0.18415
0.85334
-0.867529
0.0141889
0.0473689
-0.0151928
-0.0232401
0.407704
-0.126338
-0.52216
0.648498
0.0530517
-0.136035
0.0829837
0.915558
-0.214093
-0.701466
0.682099
-0.731071
0.030939
0.884619
0.217647
-0.380663
-0.0385248
-0.237682
0.276207
0.185662
-0.60633
0.420668
0.52198
0.600461
-1.12244
0.450654
-0.346947
-0.103707
0.723458
-0.464237
-1.30683
0.242922
1.0639
0.0128078
0.232555
-0.27616
0.310816
-0.0346557
0.263063
-0.651498
0.388435
-0.803849
0.0360966
0.767752
0.518875
0.0742012
-0.593077
-0.425002
0.393507
0.0314957
-0.72205
-0.103076
0.825126
0.362634
-0.0643043
-0.298329
0.199299
-0.281781
0.0824815
-0.079485
-0.406699
0.486184
0.292172
-0.311919
0.0197463
0.755238
0.18955
-0.944789
-0.145112
0.0442813
-0.0779342
0.0996207
-0.0216865
0.605999
-0.31232
0.000811702
-0.0472436
0.0464319
0.714345
0.343402
-0.23178
-0.412464
0.0105918
-0.0885261
-0.155951
0.926586
-0.00326748
-0.272893
0.0480662
-0.0472545
0.230004
0.6024
-0.832404
0.530075
-0.869405
0.33933
-0.178937
-0.207361
0.180863
0.0264975
-0.0982785
0.125435
-0.0271564
0.621485
-0.454722
-0.166763
-0.245398
0.199669
0.647695
-1.11664
0.468942
-0.0812951
0.154946
-0.0736506
0.0226247
-0.121881
0.0992566
0.581939
-0.169457
0.855256
0.327473
-0.585322
0.458984
0.69054
-0.960252
0.269713
0.256339
0.110069
-0.27132
0.208196
-0.385572
0.311839
0.073733
-0.417111
0.0488171
-0.29159
0.242773
0.622036
0.25708
0.556432
-0.714243
0.157811
0.81485
0.0919754
-0.906826
-0.988416
0.744286
0.24413
-0.0379676
-0.519803
0.557771
0.927375
-0.30534
0.117411
0.0795798
0.128123
-0.0770143
-0.0511087
-0.0610248
0.0449884
0.0160364
0.569322
0.402404
-0.971726
0.598051
-0.580105
-0.0179453
-0.174879
0.107601
0.0672779
-0.148747
-0.0586132
1.08238
-0.39184
-0.323969
0.344745
-0.0207768
0.645408
-1.13331
0.487902
0.172517
-0.772172
0.566055
0.226658
-0.792713
0.675976
-0.490314
0.967306
-0.132622
-0.834684
0.531992
-0.986453
0.454461
1.08097
-0.683356
-0.397618
-0.126757
0.235649
-0.108893
-0.00855109
1.06888
-1.06033
1.07736
-0.207341
-0.826303
0.0274075
0.798895
-0.476029
0.415211
0.0608174
1.00963
-0.487648
0.171926
0.278728
-0.634878
0.781409
-0.146531
-0.818452
1.01148
0.0105753
-0.151902
0.141327
0.0187326
-0.024438
0.00570537
-0.0169962
-0.185297
0.202294
1.1471
-0.427302
-0.719796
1.35748
-0.675237
-0.682241
-0.220063
0.203067
0.356693
-0.671529
0.314836
0.0745555
-0.0111927
-0.795097
-0.476398
0.691462
-0.215064
-0.676372
0.492912
0.18346
-0.0128759
-0.0203102
0.0331861
0.507764
0.573211
-0.0330436
-0.0279812
0.0201879
0.107935
-0.711723
0.0768449
-0.732398
0.93259
-0.200191
-0.657806
0.75624
-0.0984341
-0.594623
-0.42978
1.0244
-0.377901
0.24735
0.13055
0.457059
-0.475979
0.0189201
0.93095
0.070004
-1.00095
0.0158759
-0.758941
0.743066
-0.362633
0.928688
0.190752
-0.541092
0.350341
-0.455099
1.10279
-0.830657
0.542837
0.28782
0.239741
-0.271355
0.0316132
0.484535
-1.26513
0.780592
-0.974923
0.325398
-0.613496
-0.420251
1.13064
-0.682566
-0.448078
-0.266381
0.291126
0.122679
-0.129662
0.0069835
-0.769262
-0.145146
0.914408
-0.864337
1.21001
-0.345672
0.90515
-0.662914
-0.242236
0.0876118
-0.252823
0.165211
-0.272719
-0.462334
0.735053
0.228006
-0.337156
-0.498854
0.460886
-0.687383
-0.227086
0.914469
0.0882657
0.024322
-0.112588
0.136421
-0.612819
0.00527041
-0.162828
0.873528
-0.0586771
-0.138138
0.108425
-0.129037
0.157349
-0.0283121
0.209325
0.937774
-0.786524
0.513804
0.222032
0.0128643
-0.234896
-0.699837
0.132232
0.567605
0.288624
0.616526
1.32409
-0.839552
0.752682
-1.28377
0.531084
0.222431
-0.889664
0.667233
0.0286982
-0.403381
-0.485772
0.715775
0.661996
-0.962971
0.362481
-0.76814
0.405659
-1.31152
0.747057
0.564467
-0.0142309
-0.410772
0.178726
0.134754
-0.31348
0.726315
-0.228918
-0.497396
-0.0528848
-0.740053
0.731502
-0.25161
-0.0723583
0.670095
1.08198
-0.868202
-0.213778
-0.0103211
-0.124971
0.135292
0.678497
0.116462
-0.79496
0.26742
-0.189379
-0.0780409
-0.182552
0.702635
-0.520083
-0.457936
0.720999
0.563576
-0.372824
-0.0544511
0.154419
-0.0999683
0.954705
-0.309297
0.0876259
-0.00807375
-0.0795521
0.0928431
-0.131064
0.0382209
-0.102215
0.106088
-0.00387343
1.11261
-0.706108
-0.406502
0.239857
-1.10419
-0.111656
0.00944096
-0.875206
0.285729
0.589478
1.23459
-0.40417
0.248802
-0.9812
1.30913
-0.585675
-0.723454
-0.0115981
0.0998637
0.796872
-0.401959
-0.394913
-0.611957
0.142236
0.469721
-0.945289
0.948036
-0.00274663
0.32081
-0.928668
0.607858
0.0322502
-0.0525376
0.0202873
-0.466875
0.633444
-0.166569
-0.154091
0.274353
-0.120262
-0.140537
0.0592415
-0.114082
0.0158037
-0.549792
-0.319614
0.41601
-0.802857
0.386847
0.286641
0.0660942
-0.352735
0.408534
0.309375
0.694223
-0.331742
0.00433109
0.0144016
0.704205
0.530383
-0.489415
0.0106741
0.478741
0.306364
0.490507
0.380874
0.150397
0.00983684
0.276804
-0.283303
-0.0206
0.303903
-0.0336121
0.273353
-0.743803
0.561251
-0.160763
0.110008
0.0507547
-0.927548
0.889425
0.038123
-0.341334
0.552179
-0.210845
-0.221688
-0.104772
0.32646
0.765375
-0.828335
0.0629591
-0.798092
-0.513432
1.29494
-0.823534
-0.47141
-0.0915813
0.0812603
1.02164
-0.700828
-0.410599
0.826608
-0.193643
-0.16201
0.355653
0.824118
-0.185669
-0.638449
1.16035
-0.319654
-0.840695
-0.396009
0.202366
0.829278
-0.490665
-0.338613
-0.157936
0.781632
-0.623696
0.65978
-1.06546
0.405681
0.287045
0.0111085
-0.298153
0.0874703
-0.0404522
-0.047018
1.26433
-1.02896
-0.23537
-0.520497
-0.467919
0.719657
0.362323
-0.844911
-0.0826367
0.0814539
0.0113892
0.075682
-0.628266
0.552584
0.00395359
0.118725
-0.540211
1.10953
0.430078
0.682532
1.22876
-0.747398
-0.481358
-0.770192
0.543106
0.726597
-1.21278
0.48618
-0.627435
-0.0377886
0.665223
-0.232114
-0.174112
0.406226
0.557923
-0.20123
0.00898142
0.21305
0.476993
-0.0282526
-0.478403
-0.695346
0.938035
-0.242689
-0.148134
0.0190963
-0.0615438
0.0070927
0.115928
-1.06122
0.329368
-0.787304
0.108358
-0.198444
0.274612
-0.0761685
0.00743488
-0.012652
-0.508669
0.3791
0.129569
0.350224
0.271262
0.228208
0.297247
-0.525455
0.493669
0.104382
-0.566439
0.642121
0.571691
-0.0528152
-0.202728
-0.497108
1.02689
-0.793751
-0.233142
0.892598
-0.764568
0.225858
0.538709
0.799023
-0.863812
0.0647898
-0.433669
0.354184
-0.109941
-0.0649387
-0.120352
-0.601699
0.283413
-0.540146
0.256733
0.416929
0.412349
0.709895
-1.14398
0.434086
0.224782
-0.533989
0.309207
-0.972171
0.168321
0.0104935
0.35214
-0.576329
0.870075
-0.293745
-0.255698
0.302952
-0.0472541
-0.403813
-0.104277
-0.124913
-0.223522
0.348435
0.0787643
0.000938953
-0.0797032
-0.328404
-0.147625
0.377795
0.444781
-0.822576
0.734792
-0.428428
0.283091
-0.449935
0.016266
0.460971
-0.236189
-0.664681
-0.165977
0.222897
-0.328361
0.105465
0.977417
-0.339468
-0.456486
0.748516
-0.29203
-0.111996
0.129268
-0.0172714
0.742568
-0.0162531
-0.152185
-0.476081
-0.502646
0.924317
-0.421671
0.636708
-1.14136
0.504656
0.592542
0.702403
0.129547
-0.168485
0.038938
0.0868101
-0.714245
0.672906
-1.01583
0.342927
0.0932691
-0.0402174
-0.0752001
0.631632
-0.355473
0.684841
-0.643865
0.866296
0.190036
-1.03182
-0.882753
0.484902
0.39785
0.635317
-0.0978805
-0.537436
0.934378
-0.169003
-0.459093
-0.533264
-0.473933
0.522649
-0.0834643
0.148318
-0.064854
0.31516
-0.28718
-0.714294
0.639094
0.847245
0.223747
-0.78512
0.328634
1.07169
-0.35203
-0.0712714
0.25721
-0.185939
0.0158529
-0.62742
0.611567
-0.902668
0.170369
0.7323
0.725993
-0.725993
-0.241497
0.703483
-0.461985
0.581121
-0.352913
0.684245
-0.389261
-0.294984
-0.95361
0.989156
-0.0355461
0.33544
-0.0452156
-0.290224
0.255288
-0.107494
-0.147794
0.105322
-0.32701
0.0339465
0.454491
-0.865089
-0.857987
1.01373
-0.155743
-0.282872
0.660667
0.113443
-0.00414719
-0.109296
-0.104246
0.104331
-8.51552e-05
-0.375542
0.404241
1.16943
-0.949245
-0.22018
-0.0829091
-0.528159
0.611068
-0.22474
0.245341
-0.0206015
0.117264
-0.272689
0.155425
-1.0105
0.390669
0.619829
0.0074142
0.0190377
-0.210824
0.139553
0.0318975
-0.100561
0.0686639
0.572056
0.692274
0.0866574
0.0267857
-0.0459661
-0.292907
0.338873
-0.508526
0.803346
-0.294819
-0.00486362
0.0759983
-0.0711347
0.430048
-0.210398
0.734591
-0.2392
-0.49539
0.00712985
-0.413829
0.102366
0.828584
0.426698
0.299017
-0.725715
0.459076
-0.410197
-0.0488786
-1.01269
0.186385
-0.427962
0.178511
0.249452
0.464452
0.602527
-1.06698
-0.625971
0.588182
0.0448411
-0.913481
0.86864
-0.121757
0.209369
0.238582
-0.279124
0.0405423
0.0211565
-0.304459
0.00652461
0.00954221
-0.0160668
-0.67252
-0.202687
0.618276
0.0796717
0.0190557
-0.0987274
-0.11582
0.00382372
0.171852
-0.710629
0.538777
0.230126
0.545828
-0.775953
0.383246
-0.714789
0.870908
-0.156119
-0.715997
0.558061
0.0883416
0.0283117
-0.395198
-0.281174
-0.248822
0.066196
0.182626
-0.872969
0.364442
0.669857
-0.752766
0.434467
0.63722
-0.296814
0.300815
-0.00400095
0.393542
-1.00077
0.607225
0.14446
-0.260529
0.116069
0.474364
-0.626549
-0.637107
-0.0206989
-0.304728
-0.028867
0.0358506
-0.00767315
-0.0281774
0.371333
-0.0101161
-0.0254554
0.0355715
1.00319
-0.538741
-0.347994
0.757338
-0.409345
0.262211
0.174306
-0.436517
-0.364918
0.243161
-0.205698
-0.0431234
0.418945
0.2653
-0.214751
-0.745501
0.353431
-0.130534
0.616633
0.403547
0.168144
-0.925201
0.999239
0.111685
-0.467962
0.356277
-0.085569
-0.82817
0.913739
-0.183577
0.181533
0.00204412
-0.112635
-0.265266
-0.437429
1.09721
1.0265
-0.494507
-0.4338
-0.0748686
0.0117154
-0.409247
0.397531
0.408044
-1.00267
-0.12436
-0.472708
0.597069
-0.0336935
0.00220156
0.031492
-0.652476
0.0555869
0.596889
0.958283
-0.683876
-0.0191318
0.0783519
-0.05922
-0.208279
-0.016461
0.174835
0.358161
-0.532996
0.09517
-0.120604
0.0254337
0.618972
0.358715
-0.977686
-0.38825
1.14349
0.0768187
0.00194561
-0.263124
-0.574922
0.838046
0.358362
0.724018
0.935855
-0.705729
-0.344576
0.219663
0.00216638
0.0853039
-0.447387
1.17398
0.13679
-0.767254
0.630464
0.915671
-0.144798
-0.770873
-0.476799
0.714086
-0.237288
0.396546
-0.413542
-0.453712
0.867253
0.0534603
-0.0807025
0.0272421
-0.285135
-0.485047
0.770182
-0.0127719
-0.0914739
0.0261843
-0.0390602
0.505646
-0.790781
-0.707946
-0.206089
0.914035
-0.0650525
-0.477202
0.542255
0.257187
1.19851
-1.21864
0.0201356
0.204346
-0.148202
-0.0561442
0.00738351
-0.304198
0.258138
0.228046
-0.312737
0.080623
-0.816093
1.02449
-0.208396
-0.114354
-0.0464088
0.306638
0.369338
-0.823286
-0.248814
-0.0229191
0.0168002
0.00611891
0.534418
-0.130871
-0.193349
0.213429
-0.0200798
0.0923332
-0.246424
-1.17486
0.561365
0.938824
0.187625
-0.128663
0.245927
-0.194902
0.457114
0.848578
-0.394087
-0.20094
0.00759103
-0.100577
-0.613717
0.214663
0.204434
-0.193859
-0.918172
0.0155038
0.0267125
0.204388
-0.0599271
-0.966778
0.648215
0.318563
0.719716
0.133625
0.179497
-0.0570633
-0.122434
0.273804
-0.256861
-0.0169424
-0.800316
0.283505
-1.02619
0.52354
-0.0493796
0.176402
-0.127023
-0.0474511
0.156919
-0.109468
1.02647
-0.00177597
-1.0247
0.139716
0.00779349
-0.14751
-0.134162
-0.25141
0.216346
-0.0170469
0.220568
-0.213423
-0.00714489
0.382997
-0.0588535
-0.324144
0.0136618
0.206906
0.841229
-0.651679
-0.028296
-0.137794
0.16609
-1.01993
0.203841
-0.0327725
-0.118253
0.128845
-0.0694328
0.149104
0.00639738
-0.0020663
0.240975
0.154319
-0.395294
0.468011
0.126262
0.440706
-0.329021
0.188136
-0.165512
0.0613654
-0.317063
0.628294
-0.018018
-0.610276
0.531537
-0.031741
-0.499796
-0.614458
-0.371995
-0.138176
-0.153185
0.29136
0.402188
-0.44023
0.0380421
1.11254
-0.0408741
-1.07167
-0.288793
-0.0761072
0.3649
-0.493233
0.656153
-0.16292
0.558187
0.663842
-1.22203
0.0304193
-0.206751
-0.263674
0.424973
-0.161299
0.206676
0.0958868
-0.302563
-1.08569
0.580319
0.505371
-0.186106
-0.0273175
-0.843944
0.135999
0.289768
-0.181238
-0.10853
0.48674
-0.616295
0.129555
-0.0776467
-0.18669
0.188017
1.01049
0.819638
-0.134264
-0.685373
-0.846962
0.132173
0.337953
-0.540682
0.719688
-1.13524
0.41555
-0.0931652
0.271892
-0.0155654
-0.389035
0.343069
-0.157327
0.206144
-0.124906
-0.780594
0.9055
0.431318
0.590321
-0.744901
0.773743
-0.0288419
0.0173086
0.018542
-0.620236
-0.259596
-0.108829
0.121481
-0.0126522
0.339813
-0.28934
-0.0504721
0.0278393
0.014222
-0.0420613
-0.0699615
0.556701
-0.787615
-0.0974792
0.885094
-0.720293
-0.246818
0.967111
0.475718
-0.349242
-0.126476
-0.164071
0.0186894
0.145382
-0.327709
0.0149381
0.312771
-1.01315
0.0437001
0.969452
0.0265427
0.177906
-0.204449
0.808063
-0.907496
0.0994336
-0.519558
0.895477
0.0448995
-0.940377
0.0105403
-0.119369
-0.148361
-0.517467
0.665828
0.611531
-1.06663
-0.948351
0.823136
0.125215
0.110504
-0.0153343
0.692428
-0.38579
-0.0477532
-0.249758
0.297511
-0.0080423
0.120977
-0.112935
-0.217617
0.927295
-0.709678
0.787527
-0.397597
-0.38993
1.03587
-0.979765
-0.0561064
0.794305
-0.308272
-0.486033
0.0439286
-0.21517
0.171242
-0.281694
-0.00989537
-0.924723
0.813505
0.111218
0.0530439
-0.977767
-0.308027
0.523405
-0.215379
-0.595758
-0.433202
0.176057
-0.155743
-0.0203141
-0.798488
-0.221445
-0.168194
0.109803
0.0583909
0.157584
0.109836
-0.887271
0.853515
0.0337565
-0.181345
-0.133533
-0.00250253
0.150828
-0.0111121
-0.603482
0.136607
0.119743
-0.148173
0.0284297
-0.76701
0.375384
0.391626
0.351848
-0.0164088
-0.250576
0.665745
0.0768232
0.353094
0.0389776
0.231285
-0.270262
-0.0950809
0.55214
-0.599788
0.388445
0.211343
-0.219869
0.0337633
1.00118
-0.569858
0.854185
-0.460643
-0.242229
-0.159725
0.401953
0.412732
-0.857697
0.444965
0.545473
-0.610525
0.982238
-0.433333
-0.548905
-0.00343266
-0.507261
-0.0925279
-0.936222
0.889025
0.0471973
0.119035
-0.307737
1.06042
-1.06735
0.268867
0.326991
-0.0399463
-0.0968799
0.0251471
0.108981
-0.00289292
-0.49419
-0.512842
1.22479
-0.542692
-0.0357956
0.250567
-0.214772
0.0638071
0.191481
-0.665705
-0.380329
1.04603
0.235605
0.322318
-0.00318558
-0.13124
0.134426
0.820428
-0.228267
-0.0422439
0.270511
0.625274
0.00301961
-0.358422
-1.03056
0.172568
-0.201089
0.00885779
0.192231
0.5707
0.738429
0.413615
-0.177054
-0.236561
0.981692
0.0541799
0.606745
-0.853379
0.246634
-0.830793
-0.0109886
0.841782
-0.751137
0.975215
-0.224077
0.125714
-0.00456699
-0.121147
-0.43737
1.0489
-0.301844
0.155704
0.14614
0.0205076
-0.765408
0.1299
-0.0311196
-0.0987809
-0.955188
1.24007
-0.284882
-0.237832
0.530911
-0.293079
1.16177
-0.51098
-0.650789
-0.00771351
-0.594969
0.602683
-0.250901
-0.0282238
-0.524657
1.08284
0.452625
-0.694122
1.11735
-0.480643
-0.172991
0.144695
-0.868218
0.0374249
1.20911
-0.49921
-0.0275266
-1.2793
0.219341
-0.0212543
0.310636
0.516904
-0.82754
0.546464
-0.119393
-0.427071
0.831308
-0.970537
0.139228
-0.122216
0.00928178
0.112934
-0.19282
-0.475875
0.668695
0.33994
-0.278575
-0.386235
0.142346
0.243889
0.126198
0.288882
-0.41508
0.0754548
0.100602
-0.870365
1.0205
-0.150138
-0.139644
-0.0439333
0.444799
0.196452
-0.641251
0.560945
0.475113
-1.03606
0.148288
0.487028
-0.0168682
0.984175
0.00314677
0.783117
-0.786264
0.00210891
-0.00697253
0.07834
0.00680957
-0.0851496
0.904589
-0.852497
-0.0520919
0.448278
0.533961
-0.0595446
0.0325985
0.026946
-0.288234
0.805755
-0.517521
0.0150617
0.140028
-0.15509
0.473284
-0.812357
0.339073
-0.494416
-0.544713
1.03913
0.836112
-0.157615
0.300879
0.245585
-0.426114
-0.106504
0.532618
0.280633
-0.808791
-0.14654
-0.108367
0.254907
0.17504
-0.0752127
-0.099827
-0.0160229
-0.234878
-0.0712864
0.624624
-0.553338
-0.135208
1.10699
0.771201
-0.617703
-0.153498
0.617553
-0.543352
-0.521145
0.154091
0.367054
0.0909012
-0.480162
-0.035499
0.0673748
-0.0318758
0.0531497
0.126347
0.137205
0.735195
-0.8724
0.203114
0.179884
0.121355
-0.841649
-0.415891
0.168422
0.247469
-0.314544
-0.233576
0.54812
0.464265
-0.22329
-0.840164
0.557292
0.272186
-0.220851
-0.0513353
-0.462638
0.819768
-0.35713
-0.427323
0.434453
-0.422888
0.546735
-0.123847
-0.564391
0.873493
-0.309102
-0.0203412
0.191358
-0.171017
-0.159715
0.112264
-0.294856
-0.586304
0.892273
-0.305969
-0.540804
0.673037
0.499577
-0.501788
0.00221101
0.222863
-0.168862
-0.054001
-1.24955
0.853363
0.39619
-0.0220449
0.229397
-0.207352
0.0285345
0.684442
-0.902058
0.80327
-0.390538
-0.356306
-0.526446
-0.696713
0.69986
0.500845
-0.0079337
0.386787
0.131285
-0.518072
-0.313228
0.288286
0.0249427
0.172329
-0.189334
0.0170045
-0.0583544
-0.366252
0.424607
-0.174786
0.498319
-0.323533
-0.757352
-0.245015
1.00237
0.117282
0.105581
0.759609
0.14498
-0.78607
0.568004
0.218066
0.213877
-0.331973
0.118097
0.00321923
0.161347
-0.211562
0.0502145
-0.652135
-0.509113
0.450759
0.122528
0.185464
-0.141536
0.294098
0.0457149
0.0422443
-0.562047
0.0281019
0.264071
0.0766586
0.0456085
-0.122267
-0.600549
-0.465593
1.06614
-0.0680591
-0.358055
-0.508202
-0.0959914
0.604194
0.127481
0.172564
-0.300045
-0.00608423
1.13103
-0.738797
-0.39223
0.166873
0.652765
0.0787607
0.337533
-0.416688
0.0791544
-0.426545
0.948759
-0.522214
-0.569342
-0.247411
0.816752
-0.437235
0.173561
-0.413505
-0.10764
0.888055
-0.427557
-0.460498
0.19386
-0.269401
0.075541
0.386824
0.0455742
-0.432398
-0.152716
0.179259
0.33468
-0.392775
0.0580949
0.279971
-0.023097
-0.196966
-0.00672188
0.476956
0.411098
-0.387321
0.802436
-0.387448
1.04963
0.0248299
0.16903
-0.856171
0.286829
0.712189
-0.625379
-0.0927394
-0.615804
0.122571
0.199513
-0.50754
0.719461
-0.703608
0.815432
-0.0164094
-0.184463
-0.0973177
-0.284344
-0.0689042
0.353248
-0.279803
-0.0321153
0.707938
0.147933
-0.855871
0.0300026
-0.243879
0.213877
0.00715946
0.296028
-0.803863
0.507835
0.872854
-0.0647915
-0.940909
0.993982
-0.0530728
0.204651
-0.124103
-1.08502
-0.164535
-0.332097
0.842601
-0.0290959
0.38594
1.12533
-0.414962
-0.710366
-0.630703
-0.0454384
0.676141
0.183793
0.513373
-0.697166
-0.681312
0.028836
-0.160967
-0.148559
0.309526
-0.463175
0.599965
0.128301
0.514604
-0.642904
-0.25299
0.28674
-0.0337502
-0.954611
0.106526
0.848085
0.302565
0.500706
-0.21957
0.554034
0.240271
-0.301122
-0.126841
0.762923
-0.895545
-0.193734
-0.380291
0.574025
0.160253
-0.129833
0.666122
0.0464508
-0.712573
0.680544
-1.06799
0.0145341
0.0177162
-0.488425
0.625391
-0.136966
-0.649246
0.500885
-0.0140547
0.261054
-0.247
-0.361933
0.134998
0.226935
0.238799
-0.351434
-0.241035
0.578988
0.117539
-0.166918
-0.137767
0.148307
0.125359
-0.314738
0.00161056
-0.0541481
-0.170981
0.164852
0.00612975
0.18556
-0.209793
0.0242329
-0.683946
0.469853
0.12927
-0.637473
-0.0118418
-0.254539
0.0269868
0.535381
-0.562368
0.304537
-0.325137
0.190615
-0.795459
0.604844
-0.287969
0.701268
-0.413298
0.197027
-0.892374
-0.0584756
-0.0256301
-0.922721
0.529549
0.695242
-0.739383
-0.10078
-0.543708
-0.22086
-0.388001
0.164479
0.206277
-0.0198371
-0.186439
1.17675
-0.60605
0.880497
-0.207592
-0.224167
-0.139014
0.363181
-1.12753
0.468085
0.659449
-0.345309
0.136635
-0.0124564
0.907934
0.144417
-0.0860077
-0.447838
-0.0641902
-0.237654
0.307811
-0.26889
-0.0389214
-0.113591
0.821529
0.101349
0.16226
-0.263609
0.700222
-1.29167
0.58645
0.705218
0.224727
0.189359
-0.414086
0.600511
-0.27707
-0.323441
-0.497462
0.25963
-0.598308
0.0155038
0.37132
0.886039
-0.971608
0.378354
-0.171678
-0.394178
0.674811
-0.906609
0.645257
0.261352
0.515992
-0.852957
0.336965
-0.687925
0.720957
-0.0330317
0.419438
-0.514519
0.0126489
0.235104
0.240614
0.100297
-0.706627
0.274326
-0.947742
0.48964
0.458102
0.235231
-0.865934
0.723284
-0.0470771
-0.56488
0.132777
0.148956
1.01361
-0.334022
-0.679591
-0.315999
0.249667
-0.564211
0.134805
-0.959421
0.913983
-0.765869
0.352327
0.469415
-0.733276
0.37857
0.354706
-0.830272
0.548612
0.28166
-0.245107
-0.0460614
0.0123678
-0.993067
0.693889
0.299178
0.601563
-1.03893
-0.857351
-0.0130133
1.12147
-0.401786
0.293435
0.0840101
-0.377445
-0.0195937
-0.121868
0.141461
-0.250312
0.476364
0.527841
-0.441049
-0.292227
0.168477
0.171464
0.223494
0.331499
-0.554994
0.344844
-0.210091
-0.0424306
-1.06765
1.11008
-0.311002
0.410371
-0.773004
-0.563146
-0.408769
0.971915
0.232808
-0.297112
-0.647877
0.198076
0.449801
-0.00182421
0.00145452
0.000369688
0.741697
-0.866603
0.0301592
-0.518584
0.460792
0.400034
-0.860826
-0.203438
0.167642
-0.789336
0.220508
0.568828
-1.00161
0.507189
0.527323
-0.953867
0.499266
-0.693
-0.00309847
0.00127427
-0.0342925
0.949964
-0.587501
0.724866
-0.137365
0.891936
0.000536489
-0.892473
-0.679405
-0.0111168
-0.187327
0.0639454
0.662047
0.101957
0.0273103
0.293542
0.208298
0.372823
0.482966
0.00576374
0.166566
-0.831552
-0.0557194
-0.726897
0.305894
-0.707853
0.153485
0.178608
-0.332093
0.795729
0.0485454
-0.844274
-0.0896506
0.0850836
-0.322445
-0.703741
-0.757191
-0.106621
-0.409131
1.08968
-0.317031
0.427249
-0.110219
-0.869851
0.269302
-0.257201
0.480696
-0.33845
-0.628329
-0.381485
-0.306397
0.325317
-0.520887
-0.246123
0.96583
-0.12323
0.60663
-0.28869
-0.31794
0.0800537
0.0743657
0.227543
0.985421
-0.94058
0.0101616
-0.204631
0.287112
-0.471796
0.48247
-0.41907
-0.491186
0.198175
0.157796
-0.355971
-0.763622
0.0376296
-0.108548
0.729735
-0.621187
-0.0738986
-0.86701
-0.680516
0.796979
1.33298
-0.574773
-0.758208
-0.134318
0.312828
0.78616
-0.422478
-0.363682
0.237483
-0.26058
0.0434381
0.0349019
-0.197259
0.0527377
0.144522
-0.120341
0.507127
-0.452439
1.054
-0.0322832
-0.123459
-0.253164
-0.0689419
0.322106
-0.014729
0.756426
0.042676
0.414912
-0.457588
-0.358426
0.533261
0.410489
0.395266
-0.320098
-0.0957931
0.479123
-0.174968
-0.304154
-0.0691852
0.0616108
0.00757441
0.128929
-0.774278
0.645349
-0.879396
0.122205
0.196603
-0.408089
0.713983
-0.00641258
0.243896
0.106577
-0.423608
-0.9537
0.479767
-1.00479
0.329549
-0.413263
0.0377209
-0.398635
-0.546404
0.945039
-0.890647
0.098809
0.242054
-0.340863
0.971865
-0.728942
0.753912
-0.570119
0.152042
0.494147
-0.646188
0.205963
-0.36693
-0.66771
-0.151556
0.819265
-0.00283736
0.167484
-0.164647
-0.441899
0.98001
-0.538111
0.772923
-0.489065
-0.283858
0.716145
0.021324
-0.737469
-0.53087
-0.760798
-0.298823
-0.00590443
0.341321
0.586054
-0.013715
0.074004
-0.0602891
-0.638375
-0.150961
0.663029
0.573962
-0.50081
0.596482
-0.0956719
-0.288073
0.245829
0.00484358
0.346634
-0.351478
0.231921
-0.130572
-0.11288
-0.880187
-0.79541
0.264805
0.0073814
-0.16679
0.17206
0.0671446
0.697201
-0.764346
-0.476041
-0.127442
0.473425
0.261367
0.0624727
-0.21122
0.00153269
0.160359
-0.161892
0.0906304
-0.338136
0.247506
0.288606
0.263573
0.159775
0.77636
-0.359431
0.847707
-0.437336
-0.093729
-0.229657
0.323386
0.71052
0.0711114
0.0326306
-0.625134
0.432314
0.366049
-0.380778
-0.50521
-0.535089
1.0403
-0.619129
-0.508406
-1.04626
1.09121
-0.0449451
0.124274
-0.356841
0.287936
0.521991
0.254369
-0.111179
-0.0861469
0.197326
-0.290205
-0.577325
-0.0643829
-0.699532
0.763915
0.439945
-0.204341
0.0679419
-0.214482
0.548513
-0.870958
0.444961
-0.336721
-0.258016
1.18196
-0.923945
0.559277
0.47579
0.273316
-0.749106
1.06323
-0.629338
-0.433893
-0.439822
-0.662178
1.10138
-0.439206
0.305047
0.301583
-0.254943
0.248531
0.399
0.762769
-0.182748
0.163154
0.0238784
-0.0339945
0.902353
-0.499949
0.434135
0.742615
-0.365837
0.187811
0.178025
0.208124
-0.450353
0.713387
-0.0472649
0.478395
-0.18496
-0.650096
-0.11044
0.760537
0.162269
-0.0331015
-0.129168
0.114433
0.089913
0.128389
-0.879526
-0.252773
0.273929
0.656346
-0.571201
-0.0851448
0.144363
0.33476
-0.124808
0.0677447
0.218745
0.216766
-0.435511
-0.47179
1.00112
0.1422
-0.540855
1.11466
-0.573805
-0.27521
0.401409
-0.246381
-0.00660832
1.04937
-0.515101
-0.329811
0.306561
0.29395
0.266641
-0.278482
-0.137337
0.116996
-0.266224
-0.114744
-0.00107573
0.481787
-0.131799
0.760331
-0.628532
0.110421
-0.078523
-0.326206
0.0764476
-0.284263
-0.0145601
-0.845917
0.582793
0.211249
0.213724
-0.0939319
-0.173613
0.267545
0.272839
0.0379771
0.787908
0.422133
-1.21004
-0.0752749
-0.0197216
0.0949965
0.355874
-0.703868
0.869996
0.462986
0.733801
-0.666657
-1.10956
0.0646379
-0.0257471
-0.129896
0.433656
0.775863
0.151619
-0.927482
0.331505
-0.0269681
-0.0325444
-0.290538
-0.0752989
-0.475887
-0.433198
0.524099
0.594033
0.163305
0.533669
-0.546803
0.0131341
0.157738
0.00711307
-0.0641852
0.217239
-0.0316789
0.676616
0.171589
-0.848205
0.259059
0.0487516
-0.19484
0.117994
0.0768453
-0.3038
0.00120082
0.302599
0.316612
0.523816
-0.840428
0.206509
0.257756
0.64454
-0.0164112
-0.228987
0.648792
-0.440493
-0.0220363
0.0246995
-0.00266313
-0.932825
0.512574
0.777949
-0.624023
-0.153925
0.0113049
-0.11133
0.100025
0.767306
-0.838592
0.501907
-0.0619621
0.315773
0.438139
-0.100686
-0.0140584
-0.407064
0.114528
0.292536
-0.561254
-0.0977243
0.998667
-0.510234
-0.488432
0.537394
-0.0791437
-0.45825
0.370018
-0.636048
0.26603
-0.0330205
0.468132
-0.00716053
-0.281887
0.677128
-0.395242
-0.279496
-0.127568
-0.312645
-0.0520506
0.21431
0.676898
0.00590677
-0.682805
-0.296365
-0.0528071
0.129466
0.0379976
-0.00539905
0.447075
0.178316
-0.128022
0.155861
-0.013904
0.0635284
-0.133265
0.129997
-0.349637
0.501679
0.0125975
0.191836
0.149851
-0.28811
0.696644
-0.0454183
0.579087
-0.122317
-0.0889899
-0.214754
0.433499
-0.194656
0.844565
-0.649909
-0.744751
-0.0991937
-0.538545
0.864758
-0.326213
-0.249759
0.197709
0.272407
-0.0566256
-0.018991
-0.20401
0.223001
-0.764675
0.249574
0.0816744
-0.100806
0.459603
-1.12531
0.326943
-0.901864
-0.311266
0.874664
-0.411764
0.447206
-0.230439
0.0123403
-0.590138
0.719067
0.000546987
-0.125518
0.139342
-0.488584
-0.0811111
-0.550836
0.631947
0.0620483
0.404459
1.19334
-0.781113
-0.412224
-0.189826
0.0564905
0.17729
0.0191496
-0.19644
-0.719298
0.131797
0.14822
0.0268196
-0.00612162
-0.0977723
0.103894
0.383331
-0.921876
0.0756776
0.398351
0.024042
-0.422393
-0.933674
0.739018
0.115888
0.0316294
-0.147517
0.294682
-0.880986
-0.112197
-0.00298047
0.115178
0.148378
-0.0324901
0.000577873
0.640847
-0.492559
0.538789
0.434289
-0.22778
-0.797853
0.234707
-0.606437
0.480303
0.126133
0.51043
-1.01564
-0.442646
-0.264851
0.707497
0.0735603
0.341651
-0.258369
0.213153
1.04437
-0.146258
-0.89811
-0.00792488
-0.823627
0.654384
0.0617603
0.374248
0.411912
-0.126839
-0.00440076
0.112779
-0.250326
-0.289819
0.0624688
-0.0515478
-0.010921
0.0209352
-0.669779
0.648844
-0.0413893
0.237183
-0.195794
0.336822
-0.856977
0.520155
-0.103283
-0.476823
-0.030373
0.0370135
0.603641
-0.294169
-0.166408
0.460576
-0.309574
-0.362946
0.380575
-0.222779
0.295518
-0.183343
-0.112175
-0.334018
0.240086
-0.732092
-0.11734
-0.016249
0.133589
0.101846
0.271196
-0.373043
0.0934134
-0.597035
0.503621
0.0107731
-0.479209
0.144904
-1.10009
-0.400108
-0.658781
1.05889
-0.847472
0.0373801
0.810092
-1.16109
-0.701919
0.0139942
-0.227858
0.235295
-0.00743698
-1.0917
-0.309866
0.986483
0.322046
-0.167727
0.0699819
-0.284736
-0.146286
0.404042
0.119714
0.0699825
-0.323147
0.0124833
-0.0972224
0.0847391
-0.20468
0.0779233
-0.0645331
0.075838
-0.226062
0.450789
-0.879847
0.555147
0.3247
-0.273931
0.282913
0.533473
0.1605
0.00176875
-0.236537
0.125358
-0.424339
-0.223538
-0.466406
0.165794
0.300613
0.0843414
0.217101
-0.301443
-0.342428
0.433058
-0.0633414
0.630946
0.762063
-0.719387
0.489239
-0.798812
0.378423
-0.517629
0.139206
0.0765981
0.0017538
-0.155183
-0.0133022
-0.936467
0.537832
0.107345
0.430048
0.0130191
-0.159616
0.146597
-1.39233
0.573877
-0.0945688
-0.0364952
-0.158412
-0.0170352
-0.180475
0.19751
-0.478263
0.184095
-0.96177
0.84889
0.941639
-0.480847
-0.146632
0.131271
0.0153616
-0.0397253
0.0565255
-0.118319
-0.952856
0.326271
0.626585
-0.108949
0.089227
-0.0551298
0.231348
-0.176218
0.330719
0.171188
0.156074
-0.154132
-0.00194141
-0.215812
0.22841
0.072519
0.02075
0.513768
-0.750061
0.937638
0.0440533
-0.540923