/*--------------------------------*- C++ -*----------------------------------*\
| =========                 |                                                 |
| \\      /  F ield         | OpenFOAM: The Open Source CFD Toolbox           |
|  \\    /   O peration     | Version:  2306                                  |
|   \\  /    A nd           | Website:  www.openfoam.com                      |
|    \\/     M anipulation  |                                                 |
\*---------------------------------------------------------------------------*/
FoamFile
{
    version     2.0;
    format      ascii;
    arch        "LSB;label=32;scalar=64";
    class       volVectorField;
    location    "6";
    object      U;
}
// * * * * * * * * * * * * * * * * * * * * * * * * * * * * * * * * * * * * * //

dimensions      [0 1 -1 0 0 0 0];

internalField   nonuniform List<vector> 
13486
(
(1.38072 -0.180966 6.13054e-19)
(1.64883 0.311842 2.90976e-19)
(2.55017 0.0367202 0)
(-0.191138 -0.0483763 -2.26722e-19)
(2.27752 -0.53034 2.01625e-19)
(2.47746 0.148772 2.0328e-20)
(2.48689 -0.444792 3.7282e-21)
(1.93035 -0.709325 -3.25175e-19)
(1.88642 -0.367674 0)
(2.0134 0.794687 0)
(-1.05075 1.82616 -1.82348e-18)
(2.54304 -0.0726862 0)
(1.23146 -0.388489 -6.06532e-19)
(2.4964 0.758429 3.16373e-20)
(2.38904 -0.377887 1.07369e-19)
(1.96842 0.786277 -1.77516e-19)
(0.395084 -0.227045 8.05093e-19)
(1.16071 -0.439172 5.90108e-20)
(2.24873 -0.00824443 3.00053e-21)
(1.57932 -0.0281796 -6.22619e-19)
(0.0452444 -0.45531 -6.89227e-20)
(1.25167 -0.403713 7.82248e-19)
(1.67276 0.307966 -2.32605e-19)
(3.13298 -0.966606 0)
(2.06122 0.624067 5.88074e-20)
(3.0544 -0.913407 -2.18934e-19)
(-0.691977 0.693379 1.04185e-18)
(2.68671 -0.15616 4.9955e-19)
(2.04312 0.0469513 0)
(2.47351 -0.398604 -3.06402e-19)
(0.371844 -0.760222 -3.41585e-20)
(2.4844 -0.272747 -1.36232e-19)
(3.11937 -0.246126 4.50361e-19)
(2.11411 -0.0845539 0)
(1.93985 -0.683861 0)
(1.79933 0.00464762 -9.8917e-22)
(1.85946 0.164945 -3.47119e-21)
(1.42416 -0.671294 3.12004e-19)
(1.69494 -0.059312 -1.16835e-20)
(1.91963 -0.214644 3.12158e-19)
(2.30351 -0.785455 0)
(0.823864 -0.407895 -7.0339e-19)
(1.9978 -0.00529705 0)
(2.07543 0.525491 -2.82191e-19)
(2.09771 0.521722 1.16194e-19)
(2.54289 -0.0725893 9.16406e-20)
(-0.380779 0.983091 1.30431e-18)
(2.03254 0.0438506 -6.15063e-22)
(1.86715 0.156605 2.75339e-21)
(2.74226 -0.038317 2.16767e-19)
(1.99941 0.0331183 3.5756e-19)
(1.77943 -0.0048112 0)
(2.58043 -0.167361 -1.27932e-19)
(1.58306 -0.581705 -4.55654e-19)
(1.1864 -0.532222 0)
(2.2478 -0.536447 -1.35188e-19)
(2.14175 0.243446 -8.49278e-21)
(1.76771 -0.023322 -4.91859e-20)
(3.09966 -0.232262 5.2419e-19)
(1.8463 0.27978 0)
(-1.10144 1.16954 -2.31195e-18)
(1.85324 0.273627 0)
(3.56583 0.355676 -4.49467e-19)
(0.100945 -0.490256 -6.91874e-22)
(1.71423 -1.76701 0)
(1.86305 0.185952 -1.14836e-21)
(-0.37181 -0.00721749 -2.846e-19)
(1.39093 0.0716959 2.07361e-19)
(1.88573 -0.391769 -1.80081e-19)
(1.75561 0.00859013 7.34933e-21)
(-0.383368 0.0499219 3.26616e-19)
(1.19207 -0.503711 2.13226e-21)
(1.95125 -0.105261 2.30921e-19)
(-1.09877 -0.075224 -6.66153e-19)
(1.89421 0.21971 -1.59868e-23)
(2.14903 0.236141 2.04864e-21)
(1.90335 0.20999 -9.60173e-22)
(2.39081 -0.397443 -4.38173e-20)
(-0.360245 1.85693 -7.13768e-19)
(1.75291 -0.418892 0)
(2.01433 0.0118327 1.38432e-21)
(1.59543 0.417179 -1.8476e-20)
(3.70159 0.361744 2.6015e-20)
(2.66044 0.068328 -5.93736e-21)
(1.36997 -0.192154 -1.19998e-18)
(1.33332 1.75342 0)
(1.57867 -0.392179 -3.36496e-20)
(2.00205 0.0492604 -5.37356e-19)
(1.86289 0.234163 -2.36487e-19)
(1.86201 1.06598 -1.89947e-19)
(2.54454 -0.238309 -7.45472e-20)
(2.06021 -0.613137 -1.70239e-19)
(1.42971 -0.280763 1.58365e-19)
(1.63291 0.105467 1.62133e-20)
(1.78706 -0.555265 7.31819e-20)
(2.02149 0.0386967 1.93788e-22)
(-0.959195 0.966569 0)
(-0.755439 -0.17087 2.30983e-19)
(1.93718 -0.21346 -5.95786e-19)
(0.452758 -0.279379 -2.73128e-21)
(1.97065 0.0147361 0)
(2.4625 0.756218 8.159e-21)
(-0.782217 -0.239774 2.40969e-20)
(1.76309 -0.0159467 5.74474e-20)
(1.30806 1.70407 0)
(0.47009 -0.242644 -2.79213e-21)
(1.96698 0.0706701 7.70495e-22)
(1.69032 -0.0921706 -2.72082e-20)
(-0.38637 1.62859 9.23488e-19)
(1.699 -0.775142 0)
(1.20253 -0.580329 0)
(2.50774 -0.348597 -1.21981e-19)
(1.59137 -0.562069 3.3413e-21)
(2.15723 0.144167 8.35982e-22)
(1.01315 -0.0124336 0)
(1.15254 -0.572506 -2.74817e-19)
(2.05882 0.644556 0)
(2.21129 -0.0688217 0)
(1.94594 -0.109415 0)
(1.88692 0.124998 -6.31559e-22)
(1.19249 -0.422468 -2.5124e-20)
(-1.36349 1.36432 0)
(1.75718 -0.492915 0)
(1.69249 -0.0729736 3.76865e-20)
(1.83422 -0.653869 0)
(1.7734 -0.00132079 0)
(2.16829 -0.267714 6.84701e-21)
(2.20973 0.0731986 1.00844e-19)
(1.90805 -0.0391544 -4.41234e-20)
(1.77468 -1.4013 -1.23796e-19)
(1.7774 0.00320378 -5.66578e-21)
(-0.493331 0.852815 -3.14875e-19)
(0.795695 0.361415 1.23667e-18)
(-0.421209 0.270806 8.30263e-19)
(1.99929 0.0173862 -5.85926e-20)
(1.90306 0.444675 -2.65959e-19)
(0.585556 0.789582 -1.67764e-19)
(1.72551 -0.77382 0)
(1.89495 0.113984 1.75662e-22)
(1.95728 -0.56911 -1.161e-19)
(2.9669 -0.0775705 -4.64084e-19)
(2.57184 -0.179954 1.07447e-19)
(2.49406 -0.199958 0)
(1.76861 -0.404328 0)
(2.09943 0.00169691 3.34018e-21)
(4.35094 0.0973483 -1.13609e-18)
(2.34438 -0.160073 7.11797e-21)
(0.222579 1.79903 0)
(2.75309 -0.0332914 0)
(2.04535 0.0441312 0)
(2.01179 0.0239265 5.34364e-21)
(2.38723 -0.45789 0)
(2.01462 0.00500154 -1.45318e-21)
(1.57149 0.417294 -1.5693e-19)
(2.20933 0.325156 0)
(2.64654 0.0687511 0)
(1.50456 -0.689335 0)
(0.10703 -0.104765 -1.07107e-20)
(1.68645 -0.678511 6.51112e-19)
(2.03373 0.901577 -8.05516e-20)
(2.62514 0.000504066 1.25985e-19)
(1.69478 -0.65834 -9.88719e-19)
(2.40661 -0.246976 3.47235e-20)
(0.730945 -0.347937 3.09032e-19)
(1.77729 -0.0117748 0)
(2.60349 0.731628 -8.44479e-20)
(2.40667 0.698497 -1.26263e-22)
(0.360736 -0.0788091 -7.33494e-19)
(2.34218 -0.138501 -2.17997e-20)
(-0.427415 0.271122 2.23674e-19)
(0.465764 0.257244 9.8864e-21)
(2.20344 0.300076 8.71648e-20)
(1.99863 0.0966569 -4.33353e-19)
(2.31021 -0.220251 1.03554e-20)
(2.00625 0.0244509 4.5302e-22)
(-1.00635 -1.59497 0)
(2.50033 1.08817 9.7499e-20)
(3.10038 -0.0568705 6.35649e-19)
(1.97516 0.0645117 -5.85347e-19)
(2.49216 -0.1848 0)
(1.9674 -0.269949 6.31655e-19)
(2.15749 0.13275 1.72816e-21)
(2.39208 -0.210405 -4.70576e-21)
(-2.44864 1.27824 0)
(2.6846 0.0416164 1.1864e-20)
(2.53693 -0.147215 -2.26952e-19)
(2.06779 0.0408378 -3.31095e-22)
(2.46269 -0.25193 -9.43931e-20)
(2.35197 -0.775196 0)
(1.03208 -0.499617 -3.52555e-19)
(1.88574 0.144814 0)
(2.32064 0.0404706 0)
(1.77816 -0.0695264 0)
(1.2751 0.901373 -3.21981e-19)
(1.80689 -0.101492 0)
(-1.43543 2.01421 -4.97518e-19)
(1.69853 -1.52679 2.87435e-19)
(2.51357 -0.018336 7.08028e-20)
(1.04459 -0.516762 -1.35062e-19)
(2.58067 0.694053 -3.69049e-20)
(0.3585 -0.813517 3.43882e-20)
(2.2221 0.0904928 -2.98192e-21)
(1.30417 -0.631997 -3.60534e-19)
(1.57915 -0.692866 5.85325e-20)
(2.02495 0.828595 9.74261e-20)
(1.81996 -0.0962521 -4.61214e-20)
(1.00762 -0.513168 1.8735e-20)
(1.8799 -0.0318111 4.72305e-19)
(1.77146 -0.0717469 0)
(2.67745 0.0604029 0)
(2.65488 -0.160232 3.39939e-19)
(2.6324 -1.18679 3.37057e-19)
(1.59907 -0.0143025 5.69871e-19)
(1.96057 0.0709587 8.65417e-22)
(2.4735 0.188616 -2.34176e-20)
(1.97527 -0.569614 2.95639e-20)
(2.52548 -0.356251 0)
(1.85727 1.05123 4.90649e-19)
(1.51816 -0.308515 0)
(3.2133 0.667307 0)
(0.506465 -0.248927 -1.54652e-18)
(2.77903 -0.0067578 0)
(1.93987 -0.562297 2.7016e-19)
(2.62492 0.0161632 0)
(2.6416 -0.19294 -1.95329e-20)
(1.20732 -0.568401 2.18899e-19)
(2.60817 0.322034 -6.24413e-21)
(0.048651 -1.4058 5.95802e-20)
(1.95252 -0.378806 4.12759e-21)
(1.64535 -0.399085 -1.30287e-21)
(1.97932 -0.260958 -2.02807e-19)
(1.16705 -0.217684 4.14861e-20)
(2.99948 -0.118169 5.82016e-19)
(0.844983 -0.407778 2.40544e-19)
(-0.411177 -0.618754 0)
(1.01691 -0.495807 2.59144e-20)
(2.35093 -0.188607 1.56402e-19)
(2.32932 0.0298685 -4.79636e-21)
(0.885336 -0.428774 7.00986e-19)
(2.37973 -0.132806 0)
(3.14485 -0.292434 0)
(2.00562 0.0686869 6.6132e-19)
(2.19726 0.0973836 0)
(0.892793 -0.444113 2.34332e-19)
(1.59568 -0.0845446 -2.54916e-20)
(1.79686 0.0964287 0)
(2.28475 -0.0156505 -4.42066e-20)
(2.73327 -0.679967 6.16952e-19)
(-0.246919 -0.232446 1.36991e-18)
(2.0369 0.505804 0)
(-1.86452 0.103126 -2.16364e-19)
(0.976202 0.0169724 8.79026e-20)
(0.966363 -0.475622 3.48011e-19)
(1.69174 -0.104174 0)
(1.86441 -0.354358 3.22907e-20)
(-1.0628 -1.56828 2.2115e-19)
(2.48801 -0.269547 1.09342e-19)
(1.9441 -0.580153 -3.74069e-20)
(0.0666026 -0.0732414 1.12186e-20)
(3.11005 -0.285162 3.6221e-19)
(1.76867 0.252261 0)
(1.59613 -0.0623073 7.29227e-22)
(2.39297 -0.386715 -2.52146e-19)
(-1.06243 -1.3045 -2.7699e-19)
(2.16684 -0.725818 -2.09625e-19)
(-2.36855 1.28487 0)
(1.97068 -0.367879 -7.78345e-20)
(0.201936 -0.770283 -6.21801e-20)
(2.10225 -0.0155642 -2.66267e-19)
(1.41923 -0.352478 0)
(1.53608 0.977973 2.2644e-19)
(1.971 0.0756369 -1.58542e-19)
(2.5481 -0.372902 0)
(2.58373 -0.109231 7.1827e-20)
(1.13536 -0.546925 2.90105e-19)
(2.67153 -0.653444 -3.43784e-19)
(1.86772 -0.327423 0)
(1.33404 -0.820128 0)
(1.70156 -0.139553 -3.00373e-20)
(2.40376 -0.125715 -5.67278e-21)
(1.34976 -0.865684 5.76352e-20)
(2.0978 -0.182836 -2.29096e-19)
(1.93515 0.0961464 3.45471e-19)
(4.13368 -0.950452 -7.1019e-19)
(-1.88945 1.418 2.56082e-18)
(-0.2453 0.680203 1.56615e-18)
(2.96885 -0.0196567 4.88516e-19)
(1.84844 -0.0544856 5.78654e-20)
(2.71486 -0.193195 2.62748e-20)
(2.08816 -0.0111263 0)
(-0.3468 -0.547468 0)
(1.56406 0.259531 1.87857e-20)
(1.18711 -0.574798 2.68985e-19)
(1.99756 0.0256961 -5.7691e-20)
(2.35584 -0.181593 1.44578e-19)
(2.40821 -0.223507 0)
(2.03245 -0.0409275 -1.62691e-19)
(2.60285 -0.0839147 -5.31778e-20)
(1.92549 0.079275 -3.17299e-19)
(2.47217 -0.558983 7.47036e-20)
(1.99484 -0.208932 -4.28841e-20)
(1.04138 -0.510511 2.65527e-21)
(2.43639 -0.102205 4.88183e-21)
(2.46943 -0.277196 1.29267e-19)
(1.86536 0.117184 1.28231e-21)
(1.291 -0.593544 0)
(0.418755 -0.085204 0)
(2.25368 -0.0350098 9.06079e-20)
(1.59455 -0.381112 2.94337e-20)
(1.8788 0.154318 0)
(2.02193 1.35558 -1.50795e-18)
(-0.155302 -0.00493574 0)
(2.39487 1.07257 -1.09671e-20)
(2.5129 -0.344063 -1.22611e-19)
(2.95892 0.138188 0)
(1.89154 0.436242 -1.63247e-19)
(1.55133 0.312161 -2.71184e-20)
(1.86209 0.221667 -2.02484e-20)
(1.87279 -0.0254263 -5.1968e-19)
(2.02442 -0.378035 0)
(1.8717 0.179599 1.99415e-21)
(1.59866 0.155615 -9.86817e-22)
(1.98433 0.0639752 7.38248e-20)
(1.61544 0.153672 -3.0321e-19)
(0.693927 0.763154 3.1302e-19)
(2.5345 -0.245966 1.40886e-19)
(2.20509 -0.381097 -6.41967e-19)
(2.11213 -0.181142 0)
(2.65757 -0.0493039 2.14757e-21)
(2.23814 -0.391162 -1.17098e-19)
(2.00046 0.0342589 7.79249e-19)
(2.08605 -0.617329 0)
(2.53855 -0.2406 -3.10072e-20)
(1.42163 0.418933 0)
(2.48671 -0.454238 -1.91315e-19)
(1.85531 -0.520427 -1.99792e-19)
(0.637349 -0.295245 2.85748e-19)
(2.36734 -0.472437 -1.7232e-19)
(2.02449 0.20353 0)
(1.55981 -0.0557978 -3.99106e-20)
(1.9993 -0.379075 8.46328e-20)
(1.62945 0.159354 2.86309e-19)
(2.25107 -0.397767 4.57119e-19)
(2.38245 -0.214255 2.1126e-19)
(-2.68551 1.13014 -1.28179e-18)
(2.03051 0.0414106 9.92074e-23)
(2.22077 -0.203867 0)
(0.961353 -0.318722 6.90563e-19)
(3.22058 0.631746 0)
(1.52006 0.228367 2.51914e-21)
(2.25072 -0.112943 3.77029e-19)
(2.63296 -0.0768505 -4.59882e-20)
(2.59345 -0.106537 5.27301e-20)
(-1.25088 1.11127 -1.2895e-18)
(1.9341 0.0774576 3.96271e-19)
(1.98418 0.0214297 0)
(-0.742761 0.180022 -6.32999e-19)
(2.182 -0.273158 -1.34517e-19)
(1.58131 -0.37034 -1.79178e-20)
(2.58382 -1.09492 2.97104e-19)
(2.48713 -0.0114905 0)
(2.58801 -0.233343 9.25837e-20)
(1.78379 0.181617 6.11288e-19)
(1.96625 0.0829915 4.81907e-19)
(2.49906 -0.411946 0)
(2.01347 -0.000168669 -5.43388e-22)
(2.40713 -0.215129 -1.469e-19)
(-0.759704 0.0111869 2.30014e-19)
(1.55474 -0.0272805 7.91702e-20)
(2.18684 -0.236136 1.27879e-19)
(2.04605 0.00361874 -1.88709e-21)
(2.21358 -0.193784 0)
(2.65155 -0.192898 -5.95449e-20)
(-2.09447 0.150932 2.82373e-19)
(2.46483 0.399062 3.1048e-20)
(1.99767 0.0324952 3.02016e-19)
(1.37665 0.0295062 0)
(1.52471 0.0905207 -4.26621e-20)
(3.19578 -0.134287 0)
(3.50211 1.14683 -3.38092e-19)
(2.11002 -0.0254697 0)
(2.07234 -0.702721 -6.2325e-21)
(1.28693 -0.0832297 -1.68689e-19)
(1.52377 0.904083 5.48025e-19)
(-0.738323 0.276593 -7.04024e-19)
(1.89402 -0.324863 0)
(2.39045 0.0569378 -4.67952e-20)
(2.03177 0.211858 -1.70232e-19)
(0.956461 -0.347477 -5.10113e-19)
(0.420693 -0.527863 3.09307e-21)
(1.6332 -0.0310824 -8.60136e-19)
(2.61229 -0.333307 1.58992e-19)
(2.10227 0.203275 1.1622e-19)
(1.4158 -0.42688 0)
(1.34427 0.350683 3.24632e-19)
(1.91554 0.116513 8.33394e-22)
(-0.262433 -0.0121365 1.35514e-19)
(-2.07545 0.272755 -9.09527e-19)
(0.931113 -0.211141 -9.95594e-19)
(2.99122 -0.0318497 0)
(1.07004 -0.296712 0)
(2.05367 1.22171 0)
(2.09257 -0.0673483 0)
(0.661931 -0.158982 -3.10901e-20)
(2.47511 -0.429057 0)
(1.59846 -0.279319 0)
(1.65434 0.120123 1.17968e-19)
(3.07972 -0.0414519 -6.58699e-19)
(2.18647 -0.180667 -3.08513e-19)
(1.69184 0.354982 9.88415e-19)
(2.00632 0.0240662 -8.76576e-20)
(2.4273 1.76692 0)
(2.69126 -0.285279 0)
(1.91632 0.0853766 3.38692e-19)
(2.02072 0.0519626 6.00251e-20)
(1.28937 0.958253 0)
(-2.36099 1.15488 1.1865e-18)
(2.14971 -0.739134 2.35912e-19)
(-0.239598 -0.156195 0)
(2.37486 -0.134502 2.07869e-19)
(1.97135 0.0662851 -3.91888e-19)
(0.584034 -0.165732 -3.90017e-20)
(0.955709 -0.301837 0)
(2.01501 0.218015 3.20927e-19)
(2.62924 0.16756 0)
(2.44395 -0.248075 0)
(2.2323 0.199168 -1.36757e-20)
(1.9282 0.100298 1.81061e-19)
(-0.636027 0.62867 -1.35237e-18)
(2.3611 0.692501 1.6288e-20)
(1.29527 -0.305461 -3.00434e-19)
(2.09747 -0.0555651 3.9599e-20)
(2.10586 0.19825 9.00542e-20)
(2.75152 -0.191159 1.3824e-19)
(2.23989 -0.722696 0)
(2.82909 -0.582615 3.25866e-19)
(1.3014 -0.0298573 0)
(1.54445 0.192452 1.91723e-20)
(2.29022 -0.223891 0)
(1.41414 0.0893903 4.38712e-19)
(-0.27191 0.0557465 -1.40153e-18)
(2.5753 -0.320485 0)
(-0.187787 0.290036 3.77059e-20)
(2.6918 -0.312754 -3.62833e-19)
(1.41436 -0.623922 -1.0684e-19)
(1.74745 -0.236644 8.21169e-19)
(1.41329 0.892164 -3.45321e-19)
(1.28576 -0.291946 -8.5356e-19)
(3.62202 1.10324 0)
(1.88286 0.126891 1.60382e-21)
(-2.62324 1.12368 -3.27006e-18)
(2.01987 0.226224 0)
(1.84191 0.249355 2.20466e-20)
(2.8157 -0.0559204 -4.56053e-20)
(2.81656 1.13035 0)
(2.00392 0.0205091 0)
(-1.61182 0.600771 0)
(-0.866856 -1.70267 8.55487e-19)
(4.16754 -1.1755 8.60502e-19)
(3.94841 0.076531 6.75783e-20)
(2.35497 1.02956 0)
(1.69179 -0.146997 5.57661e-19)
(2.00155 0.0236326 -8.88452e-22)
(2.35305 0.632583 -2.52284e-20)
(0.0107373 -0.306413 1.35784e-19)
(1.90753 0.180145 0)
(2.03777 0.045402 0)
(0.679405 -0.0652285 -4.65621e-19)
(1.3894 -0.418267 -2.10485e-19)
(1.92994 -0.162097 0)
(1.2368 -0.60233 -2.62454e-19)
(2.01374 0.0161119 1.72862e-21)
(2.02331 0.035013 -3.04279e-22)
(0.72056 -0.329899 0)
(1.89498 -0.0243252 5.67509e-20)
(1.89997 0.108512 1.57805e-22)
(2.62805 0.148439 1.3395e-19)
(1.84063 -0.539207 0)
(-0.107582 0.545527 -2.37956e-18)
(2.60788 -0.0882192 5.79925e-20)
(2.00169 0.0978477 6.87075e-20)
(1.94179 0.0278308 6.70442e-22)
(2.66853 0.710333 0)
(1.66506 0.349762 -2.63285e-19)
(3.16518 0.411856 -2.5116e-19)
(0.717779 -0.170238 2.10198e-19)
(2.00939 0.056285 0)
(0.388321 -0.549796 -3.15427e-21)
(0.406482 -0.0442302 0)
(2.00482 0.0530165 -2.64496e-19)
(1.99227 0.0773624 1.18747e-19)
(1.87252 0.0596679 -6.61933e-20)
(-1.19554 -1.51442 0)
(2.30684 0.0358627 -1.69253e-20)
(1.06151 0.506455 8.83471e-19)
(2.2124 -0.71801 0)
(1.61794 0.107984 3.68457e-19)
(2.44901 -0.568171 -8.50581e-20)
(2.20411 -0.0177484 0)
(0.164407 -0.832149 3.62407e-20)
(1.75966 -0.385357 -5.83498e-20)
(2.05328 -0.000914888 0)
(0.140853 0.272224 1.48198e-18)
(1.82939 0.236475 0)
(1.64801 -0.756418 2.65833e-19)
(-1.88326 -0.0877743 5.16823e-19)
(2.06657 0.0441882 3.64028e-22)
(2.49483 0.156859 -6.17293e-20)
(1.33659 0.331474 1.72264e-19)
(1.7406 -0.264306 -3.02851e-19)
(1.89721 -0.297314 -3.49558e-20)
(1.69132 -0.766166 2.71887e-21)
(2.16804 -0.238876 1.2403e-19)
(2.66129 0.715944 1.76173e-19)
(1.76119 -0.788061 0)
(1.9959 0.0284045 -2.67801e-19)
(0.14341 -0.0166626 -6.41395e-19)
(1.32709 -0.0411116 0)
(1.94347 0.148344 1.11079e-21)
(1.71208 0.00819758 0)
(1.18036 -0.321265 7.36791e-19)
(2.04099 -0.764922 0)
(1.86682 0.00153563 -7.16193e-22)
(2.2566 -0.105145 -2.14697e-19)
(0.184777 -1.0075 6.76226e-20)
(-1.40366 0.471608 6.03567e-19)
(2.36935 -0.0262069 -1.82545e-21)
(1.2609 -0.598636 2.38683e-19)
(1.74292 -0.486154 2.92782e-19)
(1.42397 -0.287822 0)
(-1.9097 1.1317 -8.09992e-19)
(2.26344 -0.667178 -4.90043e-20)
(-2.14456 1.40104 -9.8961e-19)
(2.02315 0.0396134 1.27392e-22)
(1.40932 -0.54561 0)
(2.23766 -0.0209645 -1.24047e-21)
(-2.36377 1.1954 0)
(-0.884335 -0.324726 2.29293e-20)
(0.720307 -0.225335 5.05685e-20)
(0.0276884 -0.0490006 0)
(2.02083 -0.530619 8.61917e-20)
(1.65512 -1.68091 0)
(2.82425 1.03557 0)
(1.41896 -0.673782 -3.50561e-19)
(1.451 0.386722 2.63261e-19)
(1.65586 -0.47351 0)
(1.79534 0.206014 -1.67182e-19)
(3.97064 0.230086 1.22711e-18)
(-2.2535 0.293708 1.50075e-18)
(2.83761 1.42843 0)
(2.18224 -0.0453321 0)
(-2.58779 1.28535 -1.50529e-18)
(1.86717 -0.09872 0)
(2.68238 0.0564561 0)
(-1.07897 0.950173 -7.73597e-20)
(2.02398 -0.380232 -4.1105e-19)
(1.71195 -0.389699 2.52371e-19)
(3.1261 -0.365958 5.20914e-20)
(-2.14573 1.31559 1.7611e-18)
(1.99136 0.0654897 1.3593e-19)
(1.46189 -0.320062 0)
(2.19887 0.492986 -4.24299e-20)
(1.3697 -0.164483 0)
(2.36957 0.0430354 0)
(2.00149 0.122163 0)
(2.22245 0.180537 -1.12361e-20)
(1.85424 -0.0242486 2.41664e-19)
(2.18382 0.0666726 -5.17798e-21)
(1.50703 -0.325161 0)
(-0.945529 0.795476 -1.02152e-18)
(2.08454 1.16302 5.37519e-20)
(1.83113 -0.667656 2.7935e-20)
(1.98226 -0.0752679 -9.3176e-20)
(2.63264 -0.644446 5.42653e-19)
(2.03963 0.068147 -2.26061e-19)
(-0.269232 -0.0466726 0)
(2.5909 -0.0921478 0)
(1.43069 0.908858 0)
(1.16764 -0.526363 -5.29513e-19)
(0.834427 -1.31347 -8.42601e-20)
(0.262572 -0.0264716 0)
(2.22331 0.503599 0)
(2.61805 -0.205852 7.99945e-20)
(1.94618 -0.0315534 -6.23654e-20)
(1.91595 0.66326 2.66355e-19)
(1.57132 -0.682168 0)
(-2.19728 2.07102 -4.93896e-19)
(2.42716 0.065192 5.1872e-21)
(1.3563 -0.379782 -5.02926e-19)
(2.26401 0.0654636 -5.72285e-20)
(2.34615 0.639727 6.81223e-20)
(3.08564 -1.96242 4.32226e-19)
(1.16583 -0.529408 9.25154e-19)
(1.9137 -0.860297 1.45212e-19)
(2.1709 0.133109 1.89383e-21)
(1.9996 0.0155493 -6.80524e-20)
(1.11875 -0.525008 -8.3216e-20)
(1.76745 -0.368067 2.54006e-20)
(1.65775 2.20343 2.88231e-20)
(1.25628 -0.602588 1.34607e-19)
(2.67203 -0.0246173 0)
(1.82208 -0.427708 7.0949e-21)
(2.21422 -0.0445432 -2.22147e-19)
(2.99754 0.732252 1.37077e-19)
(1.3249 -0.341634 -4.58386e-19)
(1.81715 -0.64025 -3.03157e-19)
(1.9522 -0.00985519 6.03679e-19)
(2.37882 -0.0551258 -3.44638e-19)
(1.53007 -0.244913 -2.59356e-20)
(2.96874 -0.000206236 -2.54214e-19)
(1.09939 -0.114827 -9.96376e-19)
(2.13508 -0.0263032 -1.68574e-19)
(1.08175 -0.179053 0)
(0.086738 -1.29658 -2.48865e-19)
(1.91634 0.0243126 5.54013e-19)
(1.65184 -0.00936417 -1.40424e-21)
(-1.12222 -0.178945 0)
(1.47788 -0.680655 0)
(2.04624 0.468203 2.32395e-19)
(0.959564 -0.106177 6.17991e-19)
(1.72158 -2.46854 -5.85608e-19)
(2.09585 -0.699179 -1.49827e-19)
(2.21891 -0.395502 3.50251e-19)
(3.27299 0.600656 0)
(2.05877 0.507218 1.24215e-19)
(1.07941 -0.456929 -2.17208e-21)
(2.55674 1.08593 1.20902e-19)
(1.94857 -0.242846 -3.59217e-19)
(-2.20049 1.3157 -2.84194e-18)
(2.58892 -0.618175 -5.23143e-19)
(2.85545 -0.628628 1.81158e-19)
(2.32198 1.25812 0)
(2.1404 -0.362268 -6.30002e-20)
(1.87928 0.0552229 6.07979e-20)
(2.00755 0.0173629 8.61984e-22)
(0.760066 -0.366663 8.47833e-19)
(1.927 -0.239157 5.37934e-19)
(1.85318 0.760683 3.33535e-20)
(-2.24619 0.368969 -8.43487e-19)
(2.32094 -0.152576 -1.68722e-19)
(2.27772 -0.0239927 1.49969e-19)
(-1.82177 1.4344 -3.17251e-19)
(2.46 1.03982 -9.916e-20)
(0.334327 -0.120576 -1.60642e-18)
(0.91646 -0.448371 -2.81249e-19)
(2.01417 0.012344 0)
(2.15562 0.2196 -8.59336e-21)
(-1.62827 -0.182581 -9.27718e-19)
(1.27743 -0.108643 9.07949e-19)
(2.09431 0.0370893 0)
(2.08216 -0.194607 3.86862e-20)
(1.12938 -0.464423 2.09629e-19)
(1.99283 0.0479337 -5.81829e-19)
(-2.41203 0.998254 -1.04485e-18)
(1.66171 -0.466197 -1.32831e-20)
(2.19806 -0.194721 2.09923e-19)
(2.3517 0.0571962 6.42989e-20)
(1.66647 -0.765435 -3.68718e-19)
(2.18721 0.0955305 7.23991e-21)
(0.833855 -1.53754 -3.23504e-19)
(2.12188 -0.0422802 2.08375e-19)
(2.09286 -0.0438537 -1.71082e-19)
(2.1653 0.0996086 -6.78524e-21)
(2.1147 -0.0308807 -3.74648e-19)
(1.06758 -0.472215 -4.04922e-19)
(2.16869 0.123162 0)
(-0.834718 -1.51023 4.09672e-19)
(2.1112 0.0736349 4.36022e-20)
(0.636888 -0.113722 -5.94379e-20)
(2.44142 0.0233384 -4.23263e-20)
(2.162 -0.408911 -2.15587e-19)
(2.00068 0.0196412 -4.50747e-19)
(2.11618 0.336535 6.83661e-20)
(-2.23875 1.05812 -1.22574e-18)
(2.67251 0.057393 0)
(1.5583 0.0651688 2.11646e-20)
(2.65066 -0.0758175 4.70683e-20)
(1.41849 -0.530502 0)
(2.15514 0.0780693 1.20037e-19)
(2.66673 -0.0463435 4.64742e-20)
(2.63739 0.0625091 3.35971e-24)
(2.33447 -0.775734 -1.5765e-20)
(1.84556 -0.0943224 0)
(1.78118 0.389316 4.7652e-19)
(2.06299 0.572393 -7.1482e-21)
(1.23045 -0.596536 2.95283e-19)
(2.01077 -0.158073 0)
(1.44704 0.34299 -7.62249e-19)
(1.23323 -0.369651 -2.92169e-20)
(2.58677 1.54946 -3.15565e-19)
(1.10975 -0.139053 9.68822e-19)
(2.09712 0.000702495 8.07673e-21)
(-1.61551 0.578365 5.44221e-19)
(1.92089 -0.0858097 -3.75372e-19)
(2.86446 -0.483414 -4.66105e-19)
(1.76899 0.17687 -3.53051e-19)
(1.97458 0.00802389 0)
(1.99841 0.0353788 -2.5734e-19)
(0.126111 -0.104172 1.47224e-19)
(-0.606039 0.338504 0)
(2.85047 -1.11748 0)
(2.00463 0.0158412 0)
(0.513723 -0.169763 0)
(2.06453 0.338593 0)
(1.03631 -0.106479 0)
(2.04123 -0.578574 -5.01681e-21)
(3.961 -0.160141 -6.43112e-19)
(2.64004 0.346127 0)
(1.75977 0.389892 7.18838e-19)
(1.44522 -0.391349 2.57607e-20)
(2.09359 0.21154 6.69184e-21)
(-1.49108 0.16016 -5.15259e-19)
(1.05692 0.121992 -2.50026e-21)
(-2.3838 1.1512 9.57432e-19)
(1.84536 -3.48417e-05 -1.4087e-19)
(2.74951 -0.0612557 3.07141e-20)
(2.03863 0.323421 -1.61735e-19)
(1.86519 0.212185 -4.72412e-19)
(2.01047 1.08921 -1.61754e-19)
(3.46876 1.10681 0)
(0.219099 -0.464985 1.35571e-20)
(1.20141 -0.336837 -8.07305e-19)
(2.01069 0.0281753 -7.95588e-19)
(2.27593 -0.675237 -2.78487e-19)
(1.98971 -0.030882 5.86738e-20)
(2.54855 -0.628421 2.31971e-20)
(2.10553 -0.306728 -4.66956e-20)
(2.03622 -0.520212 -2.98249e-19)
(2.0322 0.187673 1.77231e-19)
(1.9895 1.24416 0)
(1.88191 -0.257767 -3.21325e-20)
(1.67128 0.101482 -1.08519e-19)
(2.49538 -0.407303 0)
(1.72537 -0.113585 0)
(1.71561 -0.788871 -3.61585e-21)
(-1.44083 0.390897 5.36558e-19)
(2.00854 -0.592438 -1.54325e-19)
(1.7692 0.0315644 0)
(1.89409 -0.035338 -4.9358e-19)
(1.79635 0.246461 -9.16864e-20)
(-0.591724 -1.27205 1.94501e-19)
(2.6744 0.0265709 1.7358e-20)
(-2.28808 1.05209 0)
(0.160003 -0.446661 2.06003e-20)
(2.67971 -0.0114476 0)
(2.11559 -0.380481 6.60132e-20)
(2.55035 -0.229809 -7.33417e-20)
(1.99978 0.0327514 -2.80937e-22)
(2.42536 0.711146 9.61516e-22)
(2.81074 1.29895 -3.68822e-20)
(1.69405 -0.459912 6.07578e-19)
(0.660021 -0.597876 0)
(1.53906 -1.32964 -2.24006e-19)
(1.48053 -0.583522 0)
(2.70061 0.330652 -6.03416e-20)
(-0.648782 -1.17015 3.05296e-19)
(2.77688 -1.10604 4.03895e-19)
(1.5839 0.0169381 -2.15956e-20)
(-0.901139 -1.48986 -1.71889e-18)
(1.05664 -0.521551 -3.40969e-19)
(1.24576 -0.346058 -4.68661e-19)
(1.91028 0.119355 -2.81709e-22)
(1.62684 -1.26397 1.83983e-19)
(1.10953 -0.486994 3.32908e-19)
(1.30587 -0.374451 5.14307e-19)
(0.845388 -1.24168 1.03092e-19)
(1.87076 -1.42992 -1.4028e-19)
(1.80504 -0.558593 3.02055e-19)
(-0.94633 -0.135736 9.49293e-19)
(2.20852 0.0177732 3.98056e-21)
(1.43901 -0.413702 -1.95509e-20)
(2.37494 0.43362 -2.52559e-20)
(2.22142 -0.556974 0)
(0.545807 -0.159498 -1.94223e-18)
(2.10743 -0.0394852 -2.75333e-19)
(1.99834 0.133248 0)
(2.66602 0.307955 0)
(1.35474 -0.962965 -8.35507e-20)
(3.17453 -0.587089 -5.29415e-19)
(2.46856 0.213439 6.8509e-20)
(2.02048 -0.369025 5.38908e-19)
(1.98756 1.04653 1.52592e-19)
(1.43463 -0.0156215 3.86598e-19)
(-0.880982 -1.19104 -4.13126e-20)
(1.79687 0.68546 0)
(1.33909 -0.409011 4.92541e-19)
(-0.119682 2.40205 3.12781e-19)
(-1.12114 -1.1838 1.27901e-18)
(1.68562 -0.642473 1.00472e-19)
(1.38481 -0.627765 -6.86688e-20)
(1.73605 -0.00586909 2.0125e-19)
(1.67103 -0.0528449 1.23965e-20)
(2.44768 -0.38594 3.2428e-19)
(-1.0205 -1.17728 -2.96585e-19)
(2.44707 0.208007 -4.82836e-20)
(1.93963 0.0731994 1.97563e-19)
(1.07685 -0.167208 -3.97867e-19)
(1.8772 -0.074878 3.07611e-19)
(1.49537 -0.244453 0)
(2.46594 0.394477 -4.36145e-20)
(1.98 0.0670457 4.41496e-20)
(1.41543 -0.257574 -1.57843e-19)
(1.90617 1.97184 7.76094e-20)
(1.77414 -0.542419 2.24832e-19)
(2.06676 0.0258612 8.42285e-20)
(1.34597 0.179672 -5.93004e-19)
(2.47766 -0.412468 0)
(1.60977 0.0567131 -3.45711e-20)
(2.27608 0.084016 7.77864e-20)
(2.05456 -0.086559 0)
(1.37282 0.0610044 3.39279e-19)
(2.68007 0.0278651 0)
(1.80178 1.97486 -1.51411e-21)
(2.33155 -0.0339639 0)
(1.88067 -0.28448 0)
(2.56068 -0.0340512 4.69165e-20)
(2.43609 0.162594 -1.77791e-20)
(3.00245 0.165503 -4.11376e-19)
(1.9134 0.168694 -2.15106e-19)
(1.58698 1.29314 -1.3379e-19)
(2.00223 0.104959 -8.3127e-20)
(2.09618 0.343731 0)
(1.47613 1.08881 -8.22408e-20)
(2.53722 0.141749 8.62853e-20)
(2.08027 -0.365674 -1.3531e-19)
(2.22076 -0.55219 0)
(3.03038 0.717798 2.07079e-19)
(2.27133 1.76896 1.96727e-20)
(2.20014 0.0092705 1.59968e-20)
(1.74209 -2.47982 0)
(-0.78254 0.684675 1.92879e-18)
(2.05385 0.181842 0)
(2.4739 -0.332888 -1.6271e-19)
(-0.196388 -0.143892 0)
(2.89625 0.538933 0)
(1.87911 -0.924298 0)
(1.99855 -0.758306 0)
(-1.52577 2.2546 -2.68614e-19)
(-0.63292 -1.93264 -1.72527e-19)
(1.84491 -0.0205255 -3.62545e-19)
(0.0644492 -1.02755 -9.76995e-20)
(1.19458 -0.517078 0)
(0.214662 -1.49869 -1.00775e-19)
(-0.411823 -0.243388 -1.34921e-18)
(1.44301 -0.67995 0)
(1.42011 -0.491916 -5.27268e-19)
(1.90213 0.231723 2.95328e-22)
(2.36199 0.419022 5.44458e-20)
(2.3536 -0.798295 6.75125e-20)
(1.85023 0.199486 0)
(2.16406 -0.698627 0)
(3.38874 0.278657 1.96105e-19)
(1.76105 -0.330021 6.71285e-21)
(1.85913 0.123856 -2.31331e-21)
(1.35796 -0.94191 8.22203e-22)
(1.99816 0.00957973 1.91278e-20)
(2.15266 0.216381 1.75874e-22)
(2.03087 0.190461 2.55111e-19)
(1.57479 0.13496 1.70246e-20)
(1.85268 -0.497081 0)
(-1.28915 1.42243 0)
(2.19323 0.0792268 0)
(1.87924 0.014291 0)
(1.71069 -0.280457 2.22975e-19)
(2.83753 -0.0742639 0)
(-1.22567 1.73671 3.83467e-18)
(2.73732 -2.17186 -5.2781e-20)
(1.27236 -0.392356 -7.72453e-19)
(1.41169 -0.376293 -1.56697e-20)
(-0.644562 -1.65804 -2.39507e-19)
(-0.198788 1.88959 -1.84647e-18)
(1.87166 0.0474386 6.72194e-20)
(-1.33461 -1.02515 -4.17667e-19)
(1.58258 0.191566 2.39822e-20)
(2.5862 -0.0183405 0)
(2.32804 -0.382396 0)
(1.5884 -0.355387 0)
(2.15573 -0.424959 1.14002e-19)
(1.83038 -1.59945 0)
(1.83299 0.691681 0)
(2.00189 0.0120072 0)
(1.73506 -0.395315 2.35253e-19)
(2.09115 0.210095 -2.3324e-19)
(1.78147 0.0200548 0)
(2.10765 -0.588376 -1.53817e-19)
(1.97907 0.198818 -2.51195e-19)
(2.55896 0.984 -2.54293e-19)
(1.48324 -0.6944 3.15244e-19)
(1.911 0.738618 9.91985e-23)
(1.75759 -0.439523 -4.60308e-21)
(1.69225 -0.124565 2.96287e-20)
(1.90746 -0.370187 -6.48829e-20)
(2.42314 0.170065 2.86717e-20)
(1.87324 0.116694 -3.25172e-21)
(1.80487 0.0991929 -3.43989e-19)
(2.12186 -0.0408919 0)
(0.67145 -0.134331 4.5236e-20)
(1.96275 0.0773723 3.55667e-19)
(1.14982 -0.472843 -2.6988e-20)
(2.10047 -0.289111 -1.36201e-19)
(0.990973 -0.127518 -6.73657e-19)
(2.43821 0.144741 -5.77408e-21)
(3.18824 0.418104 3.6079e-19)
(2.00035 0.0918859 0)
(1.76223 -0.347343 6.87639e-21)
(1.7473 0.0293362 -9.81068e-21)
(1.92409 -0.379204 1.28047e-19)
(0.00800651 -0.349462 -1.54343e-19)
(2.05294 0.0312277 1.82911e-19)
(2.18024 0.123764 -2.14228e-21)
(2.10247 0.0117465 -6.08482e-21)
(2.17528 0.072069 0)
(1.32208 -0.272739 0)
(1.30342 -0.626271 3.84975e-19)
(-2.34244 0.964903 1.13283e-18)
(2.02606 0.00796734 4.42644e-22)
(1.96071 0.0753448 7.1177e-19)
(1.62086 -0.288648 -1.76738e-20)
(1.41373 0.327795 0)
(1.77846 0.123286 0)
(1.55221 -0.313876 -3.10893e-21)
(2.501 0.00272548 7.37381e-20)
(1.96352 0.716545 3.5211e-19)
(2.48314 -0.177689 0)
(2.07478 0.00335965 0)
(2.05676 -0.592019 4.12034e-19)
(1.98612 -0.144609 2.88536e-19)
(0.00443442 0.0214703 -1.34117e-20)
(1.77943 -0.0418339 0)
(2.72094 0.406294 1.57294e-19)
(2.29697 -0.72869 -6.80224e-20)
(-1.92641 0.0393658 -1.14911e-18)
(2.00807 -0.0196295 -3.91873e-19)
(3.81055 -0.126894 0)
(3.26005 -0.546614 4.20874e-19)
(2.25112 -2.48975 -1.40069e-18)
(-0.0172078 0.0260672 0)
(1.91638 0.0202381 -2.22191e-21)
(1.91036 0.130977 -2.31832e-19)
(1.89323 0.00850923 5.45854e-24)
(2.58835 -0.25305 4.00357e-20)
(1.36723 1.15827 4.71563e-19)
(1.85935 0.0458329 0)
(0.977717 -0.342642 -4.29791e-21)
(1.73411 -0.305577 1.28797e-20)
(3.30843 -0.488351 -2.52114e-18)
(2.05383 0.321728 1.91946e-19)
(0.710779 -0.581456 -1.43758e-21)
(2.00967 0.0157592 -8.44989e-19)
(1.84651 0.83891 -2.09416e-20)
(1.62508 -0.0889208 2.80372e-20)
(1.70287 -0.356225 0)
(1.78974 0.0150837 -5.43697e-20)
(1.03712 -0.476641 2.66088e-19)
(2.22582 -0.106281 -4.15739e-19)
(1.98498 0.0671267 -3.21885e-19)
(2.45824 -0.314864 1.49226e-19)
(1.64379 -0.135219 8.17515e-19)
(2.1766 0.0145966 -4.30466e-21)
(1.76564 0.125665 2.00404e-19)
(1.93831 0.152993 3.45709e-21)
(3.14586 -0.367645 -5.90733e-19)
(2.49485 1.11245 -1.7435e-19)
(1.79599 -2.52844 4.5042e-19)
(1.8896 -0.0222794 0)
(1.64079 -0.369594 0)
(0.978555 -0.184009 0)
(1.27067 -0.352904 5.97976e-19)
(2.14928 0.0729093 -5.23929e-19)
(1.77855 0.266525 0)
(1.45846 -0.276549 -4.69091e-19)
(1.77343 0.234263 0)
(1.71959 -0.254462 -3.66177e-19)
(2.05946 -0.385518 -1.41061e-19)
(1.82916 -0.463567 -3.31734e-19)
(1.94057 0.0477819 0)
(1.94542 0.0633205 0)
(2.07216 -0.0943045 8.20299e-20)
(2.60543 0.284139 6.22956e-21)
(2.72883 -0.111199 2.23104e-19)
(2.47277 1.85772 -4.63383e-21)
(2.50632 -0.228777 0)