/*--------------------------------*- C++ -*----------------------------------*\
| =========                 |                                                 |
| \\      /  F ield         | OpenFOAM: The Open Source CFD Toolbox           |
|  \\    /   O peration     | Version:  2306                                  |
|   \\  /    A nd           | Website:  www.openfoam.com                      |
|    \\/     M anipulation  |                                                 |
\*---------------------------------------------------------------------------*/
FoamFile
{
    version     2.0;
    format      ascii;
    arch        "LSB;label=32;scalar=64";
    class       surfaceScalarField;
    location    "1.6";
    object      phi;
}
// * * * * * * * * * * * * * * * * * * * * * * * * * * * * * * * * * * * * * //

dimensions      [0 3 -1 0 0 0 0];

oriented        oriented;

internalField   nonuniform List<scalar> 
20045
(
0.74292
-0.795785
0.0528654
-1.61663
0.582628
1.034
0.546947
2.68116
-3.2281
0.260657
-0.347637
0.0869803
-1.23124
1.21177
0.0194717
-0.865159
3.26888
-2.40373
-1.50295
0.667307
0.835644
0.10042
0.633562
-0.733982
0.70233
0.610244
-1.31257
-1.24551
-0.160792
1.4063
0.882614
-0.705106
-0.177507
3.37541
-1.6136
-1.76181
0.520813
-0.536446
0.0156325
-1.91805
1.60942
0.308624
-0.505143
1.58081
-1.07566
-1.63299
0.38748
0.427844
0.141399
-0.569243
1.25892
-0.934656
-0.324259
-2.61008
3.8125
-1.20243
-1.14121
0.100454
1.04075
0.49951
-0.47313
-0.0263798
0.168324
0.352489
-0.193863
-1.42277
0.718358
1.54119
-2.25955
1.21451
0.330339
-1.54485
-1.62082
2.33918
-1.11437
1.18691
-0.0725367
-1.76242
3.40054
-1.63812
2.5937
0.356891
-2.95059
-3.22903
1.7854
1.44362
-0.21933
-0.41758
0.636909
2.14018
-1.47956
-0.660618
-1.28151
2.35804
-1.07653
3.40481
-1.9362
-1.46861
-0.816762
0.917182
3.31772
-1.67036
-1.64736
2.16944
0.290707
-2.46014
-0.0934408
0.574283
-0.480842
-2.82689
1.11284
1.71405
0.868477
0.778112
-1.64659
0.0872128
0.599515
-0.686728
0.248669
-0.341765
0.0930955
3.26015
-3.26844
0.00829406
2.24041
-0.847556
-1.39285
1.05408
1.18633
1.53543
1.83998
-0.380476
1.38429
-1.00382
1.8698
0.83562
-2.70542
2.71317
-0.543734
0.242245
2.73611
-2.97835
1.9258
-3.28752
1.36173
2.65534
-1.96525
-0.690088
-1.8321
-1.26839
3.10049
-0.140166
-0.441313
0.581478
1.24646
-0.304798
-0.941664
-1.02291
-0.208331
0.0352731
2.26625
-2.30152
2.37555
0.128868
-2.50442
1.30454
-2.58605
3.12351
-2.05443
-1.06908
1.03167
-0.404038
-0.627633
1.3191
1.80441
0.964536
-2.90476
1.94023
0.444246
0.0552642
1.17146
0.10472
-1.27618
2.46909
0.290856
-2.75994
-0.0961992
0.329496
-0.233297
-1.01316
0.273228
0.739935
1.25176
-0.549427
2.75672
-2.80329
0.0465723
-0.239389
0.14319
-0.190914
1.43738
-0.354119
-1.54408
1.8982
-0.204135
-0.209198
0.413332
2.72693
-0.525424
-2.20151
2.04342
-2.00815
-0.0153503
2.74228
0.618096
-1.12324
-0.745152
-0.602136
1.34729
0.630614
-1.75279
1.12218
1.5547
1.77967
-3.33437
1.35879
-1.05262
-0.306161
2.55843
-1.59389
-3.59319
0.691382
2.90181
0.0409368
0.701983
-0.889763
1.00659
-0.11683
0.294636
-1.27724
0.982607
-2.41629
0.104313
2.31198
1.52015
0.251036
-1.77118
-1.27336
1.1634
0.109967
-2.15179
-0.354362
2.50615
1.06174
-0.182992
-0.87875
0.602164
-0.850922
0.248758
-0.233309
-1.22046
1.45377
0.866117
-0.927549
0.0614324
2.23066
0.583869
-2.81453
-0.936918
-0.177455
-0.0555805
-0.242346
0.297926
1.77975
-0.911277
0.377287
0.449074
-0.826361
2.2457
1.07202
-0.723316
-1.19473
-0.379118
0.323537
-0.426859
2.80241
-0.0740026
-0.815761
-0.703677
1.08096
0.662482
1.80214
-2.46462
1.69917
-2.55238
0.853212
-1.12563
-0.688186
0.596099
0.0920874
-0.394925
0.491966
-0.0970405
1.84034
-1.32202
-0.518325
-0.731045
0.59088
1.94441
-3.22192
1.27751
-0.245041
0.477102
-0.23206
0.0791914
-0.477658
0.398467
1.71065
-0.496136
2.47823
0.926579
-1.7144
1.36028
2.07869
-2.95808
0.879395
0.801985
0.45693
0.38393
0.647741
-1.15008
0.927997
0.222084
-1.12772
0.146132
-0.859749
0.713617
1.91895
0.73639
1.66245
-2.10926
0.446811
2.38609
0.302958
-2.68904
-3.09085
2.37664
0.714211
-0.453091
-1.11939
1.57248
2.81683
-0.897886
-0.0574037
1.4417
-0.171344
-0.0408591
0.212203
-0.326292
0.153019
0.173273
1.70583
1.20966
-2.91549
1.82576
-1.75239
-0.0733721
-0.5832
0.254695
0.328505
-0.484897
-0.203289
3.31753
-1.23884
-0.950682
1.01729
-0.0666063
1.90214
-3.24138
1.33924
0.498568
-2.33067
1.71566
0.643889
-2.35955
1.9169
-1.28628
2.98652
-0.368388
-2.61814
0.941194
-2.92631
1.98512
3.92808
-2.82304
-1.10503
-0.227534
0.669403
-0.441869
-0.0185503
3.06304
-3.04449
3.17699
-0.583288
-2.49608
0.0949043
2.40118
-1.40077
1.23807
0.162705
3.00674
-1.45204
0.515768
0.843017
-1.89754
2.33095
-0.433413
-2.18781
2.73476
0.0383689
-0.564721
0.526352
0.210628
-0.270741
0.0601122
-0.0577698
-0.543964
0.601733
2.89218
-0.504681
-2.3875
3.94488
-1.94419
-2.00068
-0.654387
0.596617
0.97723
-2.00158
1.02435
0.303273
-0.0546033
-2.39211
-1.41278
2.02151
-0.60873
-2.01516
1.49851
0.516641
-0.0515175
-0.0666068
0.118124
1.1671
2.76098
-0.304445
-0.0218472
-0.149762
-0.0215813
-2.11767
0.220134
-2.2049
2.81612
-0.611222
-1.93492
2.24117
-0.306249
-1.78285
-1.26099
3.04384
-0.585235
-0.149711
0.734946
1.35718
-1.44487
0.0876806
2.58167
0.288706
-2.87037
0.0370018
-2.23061
2.19361
-1.05073
2.76638
0.58169
-1.6178
1.03611
-1.24233
3.18674
-2.47518
1.58783
0.887349
0.265041
-0.390827
0.125786
1.22047
-3.5312
2.31073
-2.75563
0.993206
-1.83342
-1.20415
3.03404
-1.83303
-1.20101
-0.780761
0.867974
0.475279
-0.506153
0.0308737
-2.30576
-0.50597
2.81173
-2.47389
3.43086
-0.956966
2.68594
-1.89227
-0.793666
0.273091
-0.780011
0.50692
-0.705174
-1.40297
2.10814
0.671276
0.211337
-1.33792
0.884827
-2.08983
-0.695682
2.78551
0.331809
0.0843058
-0.416115
0.374637
-1.78741
0.383587
-0.602916
2.58796
-0.201872
-0.473995
0.380554
-0.492462
0.587317
-0.0948559
-0.0687285
2.96091
-2.26694
1.56176
0.886694
-0.0444182
-0.842276
-2.04755
0.385188
1.66236
0.919944
1.766
3.66262
-2.44216
2.10911
-3.52873
1.41962
0.598692
-2.16462
1.56593
0.0719026
-1.21311
-1.44364
2.10613
1.96082
-2.82598
0.879821
-2.08464
1.20482
-3.52798
1.99924
1.52875
-0.0691497
-1.20421
0.537594
0.402394
-0.939988
2.13064
-0.653633
-1.477
0.876918
-2.12546
2.10691
-0.74325
-0.207432
1.85504
3.3391
-2.65203
-0.687071
-0.0303737
-0.395968
0.426342
2.01283
0.318861
-2.33169
0.55312
0.118637
-0.671756
-0.400167
1.89322
-1.49305
-1.00022
1.29486
1.67841
-1.09672
-0.227822
0.580163
-0.352341
2.70464
-0.802503
0.326633
-0.032155
-0.294478
0.42998
0.00781453
-0.437794
-0.385386
0.401985
-0.0165989
3.00558
-1.89571
-1.10987
0.673959
-3.14785
-0.427145
0.0417594
-2.61603
0.875967
1.74006
3.31433
-0.956291
0.748328
-2.95322
3.80319
-1.74634
-2.05685
-0.0502201
0.38203
2.41593
-0.988771
-1.42716
-1.83308
0.433735
1.39934
-2.98755
2.98656
0.000992366
0.760575
-2.364
1.60343
-0.159097
-0.176591
0.335689
-1.40178
1.88781
-0.486031
-0.28893
0.0644708
0.224459
-0.434535
0.189494
-0.471945
0.0770197
-1.73566
-0.816716
1.24984
-2.23722
0.987389
1.07957
-0.542298
-0.53727
1.18512
0.955062
1.85697
-0.977151
0.0631801
0.147448
2.00545
1.30887
-1.47663
0.0182278
1.4584
0.722122
1.69381
1.11239
0.468416
0.66779
0.411777
-0.834344
-0.0555753
0.889919
-0.168313
0.433355
-2.01122
1.61105
-0.543956
0.693176
-0.14922
-2.68905
2.56008
0.128971
-1.18552
1.87147
-0.685954
-0.633353
-0.322203
0.955555
2.27302
-2.4747
0.201678
-2.15446
-1.37352
3.90362
-2.49405
-1.40957
-0.312481
0.282108
2.64445
-1.88387
-1.06698
2.31681
-0.325603
-0.700832
1.02643
2.34909
-0.382345
-1.96674
4.04493
-0.912679
-3.13225
-1.12976
0.804154
2.45033
-1.43748
-1.01285
-0.476583
2.32231
-1.84573
2.04148
-2.52354
0.482062
0.815177
-1.01373
0.198553
1.26761
-0.304791
-0.962821
3.67597
-2.96671
-0.709265
-1.71229
-1.37856
2.21286
1.12625
-2.43012
-0.258929
-0.052356
0.482336
0.380808
-2.2223
1.84149
0.012755
0.462524
-1.62555
3.33138
1.15537
1.85021
3.29475
-2.00062
-1.29413
-2.91946
2.22378
2.21969
-3.64089
1.4212
-1.86128
-0.129128
1.99041
-0.665459
-0.530837
1.1963
1.66712
-0.689888
0.162921
0.723774
1.22188
-0.052932
-1.42663
-2.10613
2.8915
-0.785369
-0.576564
0.0841022
-0.206766
-0.0210556
0.355697
-3.34325
0.732595
-1.73282
0.407412
-0.737188
0.965228
-0.22804
-0.0209097
0.281567
-1.5438
1.12134
0.422459
1.00693
0.833418
-1.36636
2.08287
-0.716512
1.48172
0.344039
-1.90317
2.28398
1.6786
-0.158459
-0.586608
-1.46094
2.85994
-2.1376
-0.722344
2.75979
-2.55631
0.748711
1.8076
2.34944
-2.56969
0.220251
-1.28482
1.05151
-0.365256
-0.217944
-0.332454
-1.81933
0.811113
-1.58274
0.771629
1.24264
1.20769
2.26841
-3.39165
1.12325
0.636833
-1.56611
0.929282
-2.90281
0.486521
0.0258306
1.03591
-1.69806
2.63397
-0.935913
-0.773443
0.912633
-0.13919
-1.17688
-0.326067
-0.372867
-0.655463
1.02833
0.280603
0.00408874
-0.284692
-0.983642
-0.417129
1.13055
1.33637
-2.46692
2.28151
-1.55939
0.848725
-1.32959
0.0447683
1.34831
-0.711479
-1.95972
-0.515455
-0.0370009
-0.293588
0.330589
2.89002
-1.02023
-1.34527
2.21857
-0.873301
-0.346189
0.394113
-0.0479237
2.1903
-0.0596623
-0.53217
-1.69013
-1.47377
2.72725
-1.25348
1.99764
-3.43235
1.43472
1.75864
2.14498
0.997223
-0.842509
-0.154713
0.270879
-2.13216
2.0224
-3.06527
1.04287
0.349095
-0.55323
-0.205651
1.8681
-0.696779
1.42937
-1.56581
2.1645
0.611262
-3.22134
-2.68013
1.43356
1.24657
1.84115
-0.258314
-1.58284
2.76458
-0.491559
-1.22979
-1.59651
-1.40026
1.39904
-1.08309
-0.21903
1.30212
0.951355
-0.850901
-2.09177
1.88612
2.61341
0.646744
-2.32615
0.980885
3.33455
-1.12169
0.330079
0.00211184
-0.332191
0.0313642
-1.83454
1.80318
-2.71325
0.518637
2.19461
2.47636
-2.47636
-0.652131
2.36104
-1.70891
1.12263
-2.48899
1.97988
-1.19208
-0.787805
-2.74617
2.85313
-0.106962
0.987686
-0.13811
-0.849576
0.781049
-0.33413
-0.446919
0.326575
-0.959927
-1.14049
1.34922
-2.4162
-2.49062
2.92643
-0.435811
-0.854882
1.98543
0.24615
0.0502186
-0.296368
-0.318623
0.543649
-0.225027
-1.1318
1.2037
3.15865
-2.57487
-0.583785
-0.244992
-1.57939
1.82439
-0.672886
0.737374
-0.0644879
0.341964
-0.827602
0.485638
-3.07869
1.24402
1.83467
-0.246676
-0.100961
0.115034
0.215045
0.143949
-0.163083
0.0191335
1.60992
2.06605
0.229147
0.0170021
-0.16388
-0.854884
1.01876
-1.46532
2.33817
-0.872843
-0.0909438
0.321369
-0.230425
1.27321
-0.605898
2.81569
-1.39511
-1.42058
0.0173862
-1.23785
0.187775
2.39389
1.24939
0.894538
-2.14393
1.40159
-1.24407
-0.157519
-3.03484
0.538762
-1.28568
0.547808
0.737875
1.28394
1.62017
-2.90412
-1.86786
1.73873
0.191096
-2.72896
2.53787
-0.37243
0.645521
0.234045
-0.345024
0.11098
0.0575734
-0.891917
0.731761
-0.46819
-0.263571
-1.98654
-0.62949
1.83914
0.449824
0.066972
-0.516796
-0.352701
0.00651133
0.522563
-2.12363
1.60106
0.655742
1.60179
-2.25753
1.03341
-2.13063
2.5643
-0.433667
-2.14161
1.66503
0.522901
0.664009
-1.21966
-0.795494
-0.761585
0.204687
0.556898
-2.53477
1.06945
1.99983
-2.24482
1.3369
1.99765
-0.866396
0.884675
-0.0182796
1.13942
-2.65524
1.51581
0.430898
-0.792944
0.362046
1.63454
-2.16671
-1.89544
-0.0394802
-0.902345
-0.110818
0.0741837
0.950595
-1.02478
1.00419
-0.0726537
-0.103
0.175653
2.72622
-1.44227
-1.79259
1.5291
0.263493
0.777098
0.519372
-1.29647
-1.08764
0.715209
-0.63117
-0.130415
1.15621
0.823672
-0.70809
-2.24999
0.47714
-0.514141
1.85893
1.18071
0.497899
-2.59044
2.83269
0.312685
-1.38653
1.07385
-0.262322
-2.47685
2.73917
0.0421517
-0.0674464
0.0252947
0.434812
-1.02005
-0.546941
2.58842
2.96104
-2.01985
-1.28881
-0.254985
0.050416
-1.23092
1.1805
1.20633
-2.98919
-0.330642
-1.44232
1.77296
0.0887276
-0.440979
0.352252
-1.95949
0.172746
1.78674
2.8401
-2.00448
-0.0655121
0.251323
-0.185811
-0.629144
-0.0437417
0.538578
1.04809
-1.58667
0.381315
-0.471845
0.0905294
1.96487
1.09295
-3.05782
-1.17331
3.40397
0.278263
0.00234008
-0.774573
-1.6317
2.40627
1.1493
2.16823
2.73625
-2.0805
-1.02073
0.647859
0.911054
0.356558
-1.32019
3.53988
0.405676
-2.30567
1.89999
2.75199
-0.431124
-2.32087
-1.37642
2.09932
-0.722898
1.20772
-1.20518
-1.36394
2.56912
-0.231792
0.00808446
0.223708
-0.85013
-1.45943
2.30956
0.190504
-0.509127
0.0802958
-0.131813
1.54144
-2.39157
-2.11761
-0.62622
2.74383
-0.20139
-1.4102
1.61159
0.518079
3.68121
-3.77736
0.0961463
0.637805
-0.467798
-0.170007
0.0294136
-0.895809
0.775406
0.678363
-0.92048
0.255021
-2.36036
2.99962
-0.639266
0.00925348
-0.553209
0.962262
0.954636
-2.53897
-0.729474
-0.362596
1.17944
-0.816843
1.58788
-0.407177
-0.6001
0.662061
-0.0619613
-0.325185
0.0362549
-3.45891
1.62549
2.73677
0.532114
-0.407723
0.749686
-0.583549
1.36065
2.37487
-1.02565
-0.618539
0.0184389
-0.276133
-1.81564
0.645083
0.671235
-0.632866
-2.76124
0.047996
0.581999
0.621077
-0.190179
-2.94094
1.90251
1.03843
2.32324
0.43348
0.541359
-0.168839
-0.37252
0.804544
-0.756585
-0.0479592
-2.59807
0.927704
-3.04162
1.56785
-0.63139
0.597453
0.0339376
-0.0386232
-0.0972124
0.135836
3.19172
0.0385151
-3.23024
0.523555
0.0333871
-0.556942
-0.39752
-0.75256
0.657339
-0.0551747
0.524503
-0.593189
0.0686869
1.12736
-0.183296
-0.944065
-0.183301
0.707804
2.50769
-1.92382
-0.0878728
-0.410416
0.498289
-3.03833
0.677976
-0.156783
-0.0497335
-0.329384
-0.296069
0.745894
-0.011786
0.0749661
0.722408
0.447614
-1.17002
1.22422
-0.0527599
1.31845
-1.00576
0.63563
-0.556439
0.177511
-0.950954
1.80973
-0.0951488
-1.71458
1.54522
-0.0599568
-1.48527
-2.13623
-0.790079
0.254976
-0.409477
0.1545
1.19391
-1.32097
0.127056
3.24516
-0.0833874
-3.16177
-0.0676566
-0.564696
0.632352
-1.46291
1.9293
-0.466394
1.50644
1.85869
-3.36513
-1.19763
0.793587
-0.768634
1.25659
-0.487957
0.619979
0.276295
-0.896274
-2.93238
1.43417
1.49821
-0.58734
-0.0058497
-2.52563
0.408025
0.878416
-0.547182
-0.331234
1.44109
-1.84521
0.404115
-0.228321
-0.567464
0.548558
3.13265
2.44863
-0.411893
-2.03674
-2.5179
0.387269
1.00246
-1.58907
2.04788
-3.2546
1.20672
-0.283312
0.820906
0.060305
-1.15808
0.994197
-0.461313
0.607445
-0.348828
-2.28062
2.62944
1.10638
1.53807
-2.16251
2.30257
-0.140069
-0.730927
0.805111
-1.88225
-0.761064
-0.341762
0.379866
-0.038104
0.60217
-0.938528
0.336358
0.151316
-0.147892
-0.00342402
-0.241393
1.68249
-2.44156
-0.266253
2.70781
-2.23772
-0.720058
2.95778
1.42585
-1.04493
-0.380924
-0.620537
0.0730372
0.5475
-0.477545
-0.608599
1.08614
-2.9369
0.159379
2.77752
0.0842681
0.533522
-0.61779
2.37585
-2.68621
0.310363
-1.5503
1.76412
0.128569
-1.89269
0.0246643
-0.366427
-0.563292
-1.27009
1.83339
1.83149
-3.07382
-2.84227
2.47573
0.366535
0.456532
-0.0752171
1.94189
-0.979633
-0.141134
-0.814912
0.956046
-0.0282317
0.470719
-0.442488
-0.823228
2.81283
-1.9896
1.38325
-0.167742
-1.2155
3.00364
-2.89013
-0.113505
2.37747
-0.945234
-1.43224
0.137017
-0.654554
0.517537
-0.828194
-0.0315553
-2.85577
2.52569
0.330072
0.184841
-3.04061
-1.06255
1.69954
-0.63699
-1.75215
-1.21456
0.539326
-0.47746
-0.0618663
-2.3631
-0.675236
-0.517339
0.336277
0.181062
0.674847
-0.121728
-2.72927
2.60782
0.121452
-0.633199
-0.350546
0.141348
0.558817
-0.0352622
-1.79548
0.393706
0.368892
-0.45967
0.0907774
-1.42136
0.972158
0.4492
1.031
-0.0433122
-0.755001
1.96534
0.224961
1.04025
0.229758
0.758091
-0.987849
-0.319319
1.6765
-1.7877
1.15354
0.634165
-0.484266
-0.103074
2.62197
-1.51559
2.25408
-1.11465
-0.701471
-0.493534
1.195
1.06429
-2.33875
1.27446
1.6138
-1.81519
2.9308
-1.28298
-1.64782
-0.0151318
-1.50719
-0.280512
-2.44972
2.9097
-0.459974
0.257088
-0.840871
2.94998
-3.10558
0.742486
0.107463
0.707714
-0.323529
-1.06627
0.414136
-0.0121511
-1.46699
-1.5257
3.49154
-1.44813
0.902844
0.00569523
-0.90854
0.200622
0.580427
-1.9757
-1.0953
3.071
0.644487
1.02263
-0.0014639
-0.401604
0.403068
2.44443
-0.1125
-0.207719
0.320219
1.75052
0.0592067
-1.07676
-2.99191
0.501295
-0.626816
0.0303763
0.596439
1.69366
2.10953
0.834306
0.0620045
-0.896311
2.88221
0.121424
1.74836
-2.48241
0.734048
-2.46822
-0.0456927
2.51392
-2.3168
2.96876
-0.651955
0.381824
-0.00647571
-0.375348
-1.19987
3.03137
-0.252351
0.726719
-0.474368
0.110101
-2.27261
0.603809
-0.130773
-0.473036
-2.7858
3.62608
-0.840273
-0.711781
1.56187
-0.85009
3.4897
-1.53788
-1.95182
-0.0241587
-1.77815
1.80231
-0.356088
0.0110635
-1.474
2.98044
1.59644
-2.24857
3.34877
-1.35113
-0.517153
0.42928
-2.59
0.12178
3.62215
-1.35374
-0.0737459
-3.51944
0.674305
-0.07479
0.828284
1.5428
-2.37109
1.61422
-0.374124
-1.2401
2.12419
-2.88591
0.761716
-0.476597
0.0321037
0.444493
-0.590799
-1.38767
1.97847
1.02253
-0.845017
-1.2817
0.501264
0.780433
0.385171
0.851728
-1.2369
0.233085
0.306241
-2.58686
3.04223
-0.455367
0.11433
-0.0721782
1.33392
0.56967
-1.90359
1.59392
1.18891
-2.78282
0.417846
1.42331
-0.0636186
3.05014
-0.00961463
2.35153
-2.34192
-0.0921907
0.00124686
-0.222655
0.511709
-0.289053
2.17142
-2.09129
-0.0801223
1.33181
1.59899
0.164505
-0.374505
0.21
-0.85962
2.40216
-1.54254
0.0476883
0.430707
-0.478395
1.1798
-2.19008
1.01028
-1.85747
-0.965677
2.82315
2.45504
-0.442213
0.860587
0.753634
-1.29569
-0.359553
1.65524
0.821724
-2.40112
-0.994262
0.803771
0.19049
0.54431
-0.239327
-0.304983
-0.14396
-0.212128
-0.223863
2.44138
-2.21752
-0.409854
3.14596
2.3041
-1.85422
-0.449876
1.88845
-1.63741
-1.57315
0.489306
1.08385
0.204892
-1.39697
-0.492062
0.399956
0.0921059
0.157784
0.383576
0.44403
2.19575
-2.63978
0.588662
0.538699
0.39899
-2.63671
-1.24938
0.529031
0.720345
-0.916407
-0.701062
1.61747
1.37565
-0.653245
-2.51077
1.65588
0.966456
-0.733211
-0.233245
-1.37828
2.30401
-0.925725
-1.29311
1.3105
-1.23341
1.61428
-0.380871
-1.78877
2.57189
-0.783115
-0.0666709
0.603851
-0.53718
0.129823
-0.168447
-0.904835
-1.82672
2.74697
-0.920247
-1.61283
1.99802
1.50392
-1.48455
-0.0193707
0.125598
-0.605062
0.479465
-3.51797
2.52255
0.995418
-0.125982
0.239616
-0.113634
-0.0478158
1.89445
-2.71768
2.18692
-1.12263
-1.1187
-1.56143
-2.09161
2.08199
1.47876
0.0197513
1.14389
0.407698
-1.55159
-0.935733
0.86344
0.0722936
0.816187
-0.711117
-0.10507
0.18229
-1.1603
0.97801
-0.636553
1.51332
-0.876765
-2.24775
-0.680405
2.92816
0.519045
-0.393447
1.82565
0.345768
-2.47332
1.94052
0.532804
1.16589
-0.764487
-0.401405
0.0153691
0.482656
-0.64146
0.158804
-1.92939
-1.13929
1.32158
0.38036
0.559286
-0.422268
0.873183
-0.271014
0.376643
-1.49604
0.0855115
0.780605
-1.17474
1.07247
0.102265
-1.72468
-1.337
3.06169
-0.164154
-1.13153
-1.50806
-0.259178
1.76724
0.383838
0.497683
-0.881521
-0.0672871
3.31639
-2.13004
-1.18635
0.496271
1.95236
0.207287
1.22262
-1.18944
-0.0331837
-0.925003
2.4892
-1.56419
-1.69906
-0.690834
2.38989
-1.28895
0.520311
-1.22315
-0.350006
3.2793
-1.35296
-1.92634
-0.257992
-0.278955
0.536946
1.16254
0.139976
-1.30252
-0.454907
0.539175
0.370005
-0.373966
0.00396177
0.623593
-0.0747968
-0.57959
-0.0332198
1.90519
1.37411
-1.32357
2.43641
-1.04031
2.82571
-0.489484
0.231492
-2.52868
0.829617
2.09762
-1.82674
-0.284254
-1.798
0.335096
0.613818
-1.67637
2.10008
-2.06872
2.41143
-0.0619831
-0.5549
-0.296022
-0.81956
-0.250724
1.07028
-0.832248
-0.095301
2.17748
0.413765
-2.59125
0.114203
-0.746174
0.631971
0.0397968
0.841812
-2.56153
1.71972
2.57173
-0.195883
-2.62839
2.75985
-0.13146
0.629616
-0.356388
-3.16764
-0.350329
-0.960694
2.60894
-0.0832497
0.996594
3.3273
-1.23928
-2.08802
-1.87576
-0.120596
1.99636
0.490857
1.52898
-2.01984
-2.05418
0.0946884
-0.509973
-0.413837
0.923811
-1.40002
1.8057
0.385455
1.5415
-1.92696
-1.85281
1.17111
0.681702
-2.76058
0.283415
2.47716
0.729624
1.45729
-0.639072
1.64466
0.732809
-0.889696
-0.395986
2.21065
-2.57903
-0.540055
-0.947291
1.48735
-1.10385
-0.0937738
1.9856
0.123414
-2.10901
1.83944
-2.87975
0.110782
-0.269879
-1.92879
2.46923
-0.540437
-1.77794
1.21465
-0.0376672
0.766459
-0.728792
-0.232558
-0.658231
0.890789
0.83271
-0.397898
-0.706642
1.7091
-0.026629
-0.604761
-0.420721
0.445386
0.814079
-0.695443
-0.320557
0.143966
-0.541261
0.517461
0.0237997
0.551484
-0.62698
0.0754958
-2.08111
1.55568
0.359057
-1.86712
-0.021797
-0.758964
0.0472309
1.63215
-1.67938
0.896828
-0.952403
0.631005
-2.4023
1.7713
-0.905565
1.95424
-1.04867
0.663929
-2.77006
0.0928661
-0.073007
-2.76926
1.4252
2.06634
-2.21338
-0.297385
-1.89455
-0.661767
-1.14679
0.491329
0.807192
0.322237
-1.12943
3.403
-1.70934
2.66085
-0.63845
-0.663788
-0.41487
1.07866
-3.21787
1.32153
1.89634
0.311169
-1.01627
-0.0957648
1.85988
0.433399
-0.265075
-1.54507
0.503863
-0.756214
-0.845027
0.531105
0.313922
-0.349139
2.52662
0.571862
-0.263762
-0.3081
2.38325
-3.79908
1.72391
2.07517
0.678744
0.540382
-1.21913
1.81147
-0.720673
-1.0908
-1.46941
0.757633
-1.2332
0.0392542
1.12329
2.65379
-2.91611
1.12285
-0.502867
-1.19112
2.01284
-2.85886
2.0558
0.803061
1.28095
-2.29298
1.01203
-2.0829
2.16985
-0.0869476
1.24906
-1.56838
0.0330224
0.695324
0.730528
0.209261
-1.96205
0.613423
-2.64737
1.29116
1.35622
0.696247
-2.57201
2.18341
-0.138
-1.69508
0.355024
0.670781
2.99981
-0.987307
-2.01251
-1.12557
0.747095
-1.6635
0.416581
-2.79681
2.67621
-2.24918
1.044
1.4161
-2.72536
0.663324
2.06203
-2.54106
1.71513
0.825927
-0.754152
-0.278393
0.367121
-2.87125
2.01918
0.852076
1.79466
-2.99454
-2.535
-0.0518543
3.25127
-1.20339
0.949903
0.27993
-1.22983
-0.066226
-0.411778
0.478004
-0.238482
1.41023
1.55617
-1.02585
-1.69951
0.522605
0.499923
0.692228
0.997524
-1.68975
1.03068
-0.628289
-0.0916972
-3.18876
3.28046
-0.937664
1.24794
-2.29866
-1.8259
-1.23187
3.05777
0.689267
-0.872258
-1.91205
0.597809
1.31424
-0.00879303
0.0456531
-0.0368601
2.47111
-2.81994
0.0337492
-1.96254
1.289
0.974623
-2.26362
0.315889
0.586955
-2.31932
0.642062
1.67725
-2.84684
0.989365
1.58038
-2.50538
1.14883
-1.68889
0.00407591
-0.0128689
-0.110997
2.86299
-1.76819
2.17365
-0.405462
2.81012
0.0064414
-2.81656
-2.05242
-0.0503978
-0.68679
0.135754
2.34061
0.305968
0.088145
1.78985
-0.976782
2.09941
1.44448
0.216186
0.600002
-2.55805
-0.17122
-2.51845
1.12783
-2.1166
0.464143
0.522455
-0.986598
2.41684
0.156573
-2.57342
-0.285152
0.278676
-0.938743
-2.10288
-2.22843
-0.341263
-1.10027
2.93971
-0.959871
1.27524
-0.315374
-2.53994
0.815258
-0.748309
1.44054
-1.10368
-1.83727
-0.926926
-0.903688
0.991369
-1.22928
-0.192076
3.0182
-0.40926
1.65281
-0.60089
-1.05192
0.31706
0.263103
0.687343
2.89301
-2.70192
0.0272966
-0.614913
0.863671
-1.42669
1.44492
-1.24734
-1.40798
0.582282
0.470358
-1.05264
-2.52737
0.051011
-0.322083
2.16019
-1.83811
-0.22299
-2.4054
-2.03232
2.35118
3.75132
-1.62794
-2.12338
-0.372273
0.920081
2.34849
-1.28679
-1.0617
0.699824
-0.774621
0.275438
-0.498093
-0.540388
0.0788748
0.461513
-0.376158
1.52005
-1.25126
3.04592
-0.104628
-0.372832
-0.757977
-0.182548
0.940525
-0.0298186
2.50093
0.26859
0.726587
-0.995176
-1.0515
1.59007
1.22689
1.17527
-0.93608
-0.313296
1.41744
-0.513846
-0.903593
0.0220734
0.0057752
-0.0278486
0.347494
-2.27334
1.92584
-2.62217
0.393735
0.595104
-1.04585
2.17368
-0.0241679
0.723992
0.301509
-1.26138
-2.89379
1.49354
-2.85917
0.914982
-1.23237
0.10057
-1.20615
-1.593
2.79916
-2.75596
-0.38585
0.956955
-0.571105
2.65255
-1.96117
2.19247
-1.70161
0.454595
1.47229
-1.92689
0.612685
-1.12266
-2.05682
-0.571732
2.62855
-0.300028
0.790239
-0.49021
-1.16607
2.58971
-1.42364
2.31026
-1.43371
-0.876545
2.32201
0.0699256
-2.39194
-1.55827
-2.24081
-0.912934
0.0105887
1.0107
1.80613
-0.0485376
0.233323
-0.184786
-1.8755
-0.443815
2.07617
1.73634
-1.48025
1.75222
-0.271979
-0.312698
0.104979
0.284577
1.04308
-1.32766
0.26643
0.305431
-0.327036
-2.54422
-2.36942
0.922734
0.0437226
-0.393599
0.777186
0.189956
2.08906
-2.27902
-1.43643
-0.359051
1.67717
0.604339
0.196114
-0.681011
-0.871178
-0.206998
1.07818
0.284027
-1.00132
0.717291
0.995493
0.875978
0.466496
2.2932
-1.05055
2.52595
-1.27802
-0.281663
-0.682183
0.963846
2.10486
0.217453
0.103329
-1.85389
1.26309
1.85246
-1.88228
-1.49189
-1.35874
2.85063
-1.7782
-1.43967
-2.95733
3.0818
-0.124469
-0.104222
-1.10395
0.853225
1.55219
0.741004
0.0800785
-0.65133
0.571252
-0.907017
-1.89628
-0.343093
-2.13914
2.48223
1.33558
-0.691095
-1.00128
0.00701364
1.60616
-2.54491
1.31938
-0.989041
-0.853021
2.94467
-2.09165
1.4559
1.43879
0.780819
-2.21961
3.06719
-1.82187
-1.24532
-1.06132
-2.03504
3.32942
-1.29439
0.609748
1.04306
-0.757323
0.733155
1.18884
2.30086
-0.566247
0.500021
0.176603
-0.249256
2.70759
-1.49793
1.27803
2.12496
-1.07691
0.543338
0.533569
0.628217
-1.32969
2.11461
-0.129012
1.55845
-0.60855
-1.91901
-0.304483
2.2235
0.496184
-0.100388
-0.395796
0.359293
0.278512
0.405849
-2.72265
-0.743263
0.800837
1.99094
-1.72135
-0.269583
0.422755
0.994684
-0.378857
0.210018
0.635821
0.651863
-1.28768
-1.44697
2.7515
0.809467
-1.58274
3.29971
-1.71697
-0.81177
1.19694
-1.37268
-0.480131
3.02877
-1.47219
-0.957924
0.741231
1.07024
0.790603
-0.8124
-0.469463
0.402792
-0.786409
-0.355078
0.00237675
1.99536
-0.402015
2.26633
-1.86432
-0.103372
0.247321
-1.09965
0.284734
-0.847816
-0.0651175
-2.49967
1.7251
0.613556
0.643035
0.126284
-0.840073
0.713789
0.782569
0.224024
2.38669
1.22438
-3.61107
-0.231271
-0.066052
0.297323
-1.03229
-0.760298
2.46253
1.28879
2.18715
-1.9972
-3.35522
0.409484
0.297511
-0.479711
1.28691
2.30556
0.325714
-2.63128
0.969358
-0.0725303
-0.0976565
-0.872912
-0.203995
-1.43865
-1.31671
1.52161
-0.348132
1.87723
1.59835
-1.60072
0.00236858
0.501768
0.0156929
-0.186093
0.648985
-0.0975003
2.13557
0.598104
-2.73368
-1.03794
0.19291
-0.584261
0.349627
0.234633
-0.89709
0.00674195
0.890348
0.99053
1.51983
-2.51036
0.621359
0.754294
1.93568
-0.0519086
-0.679137
1.48298
-2.45977
-0.195029
0.284555
-0.0895262
-2.7194
1.51525
2.32981
-1.86786
-0.461951
0.0423419
-0.373896
0.331554
2.44413
-2.66799
1.57354
-0.237958
0.869156
1.32331
-0.30761
-0.0474671
-0.133686
0.192652
-0.0589659
-1.63146
-0.317307
2.99458
-1.52924
-1.46535
1.59566
-0.0491728
-1.54648
1.08117
-1.88384
0.802666
0.0828202
1.38564
-0.0373247
-0.618492
1.73009
-1.1116
0.112118
-0.245804
-0.79615
-0.601875
0.338114
2.54882
-0.00645014
-2.54237
-0.90913
-0.947517
-0.227222
-0.27004
-0.104464
1.45376
1.01547
-0.443795
0.595111
0.0660646
0.179505
-0.429496
0.355494
-1.03884
1.49344
0.0447051
0.626529
-1.09021
-0.893352
2.07847
-0.101144
1.6995
-0.443295
-0.279809
-0.640296
1.27612
-0.534002
2.39729
-1.86328
-2.21844
-0.307188
-1.36592
2.31463
-0.948714
-0.374756
-0.22712
0.8026
-0.169038
-0.0574059
-0.613372
0.670778
-2.2266
0.754405
0.25145
-0.316963
1.32427
-3.29997
0.917217
-2.54892
-0.567359
2.10855
-1.00864
1.32582
-0.673954
0.0352453
-1.74827
2.09576
-0.00333127
-0.392637
0.417073
-1.462
-0.247234
-1.6431
1.89033
0.606706
1.03633
3.44247
-2.25677
-1.1857
-0.56451
0.180812
0.591278
0.0563142
-0.647592
-2.16234
0.394151
0.455068
0.0892424
-0.0261406
-0.30785
0.33399
1.07711
-2.44303
0.225989
1.20219
0.0560837
-1.25828
-2.65318
2.11918
0.379733
0.0961202
-0.475853
0.882283
-2.709
-0.338305
-0.01702
0.355325
0.493235
-0.113502
-0.0104693
1.89741
-1.47957
1.61234
1.28562
-0.664258
-2.62734
0.801445
-1.79605
1.43081
0.365248
1.31234
-2.80423
-1.28872
-0.790651
2.07937
0.232772
1.00529
-0.758079
0.619968
3.01766
-0.423674
-2.59398
-0.00992943
-2.54812
2.11263
0.209386
1.09641
1.25208
-0.380067
-0.0215376
0.371772
-0.751425
-0.831317
0.189624
-0.324339
0.134715
0.03665
-2.72717
2.69052
-0.102612
0.71413
-0.611519
0.901888
-2.41413
1.51224
-0.306312
-1.44608
-0.0956223
0.0866241
1.77554
-0.862825
-0.496129
1.35895
-0.893865
-1.09267
1.12647
-0.656113
0.193679
-0.661999
0.46832
-0.804637
0.93092
-2.39991
-0.366842
-0.0480281
0.41487
0.278981
0.816833
-1.09581
2.20035
-2.01493
-0.185417
0.0435274
-1.46629
0.470137
-3.25594
-1.27302
-1.78609
3.05912
-2.5578
0.111488
2.44632
-3.46499
-2.11109
0.0281933
-0.69382
0.723725
-0.0299044
-2.9333
-0.961451
3.09702
0.946133
-0.498518
0.200477
-0.840772
-0.439859
1.19415
0.36884
0.185112
-0.943089
0.0451523
-0.381733
0.336581
-0.456573
0.229039
-0.254245
0.296587
-0.650434
1.32918
-2.68573
1.71885
0.966875
-0.867261
1.03018
1.60161
0.489901
0.00628298
-0.639546
0.719624
-1.24349
-0.668559
-1.37879
0.496555
0.882237
0.305069
-0.0624212
-0.242648
-0.995006
1.27903
-0.182936
1.8453
1.74006
-1.47147
1.4629
-2.35676
1.12843
-1.53472
0.406285
0.240432
0.0108916
-0.924189
0.0816793
-2.78512
1.57896
0.114659
1.481
0.0344791
-0.504304
0.469825
-3.75617
1.56836
-0.436323
0.444137
-0.483676
-0.0526269
-0.536088
0.588715
-1.41982
0.556998
-2.7801
2.45306
2.51618
-1.22718
-0.553877
0.497281
0.0565957
0.697175
0.482263
-0.364446
-2.8817
1.0714
1.8103
-0.340059
0.274007
-0.228504
0.801064
-0.572559
1.01623
0.557311
-0.0177431
0.117061
-0.0993179
-0.653422
0.698127
-0.241649
0.590745
1.51528
-2.17112
2.69707
0.18514
-1.36952
0.0922731
2.52956
-0.0817719
-2.44779
-0.0315999
0.41142
-0.37982
1.48611
-2.95309
0.586948
0.709878
-1.29683
0.209902
-0.268259
0.0583572
-2.16571
2.16021
0.00549756
-1.14493
1.77593
1.3586
0.024645
2.49797
-0.850284
-1.64769
-0.041318
-0.29081
0.332128
-0.629801
-0.784756
-0.0434378
-0.758424
-0.0263323
0.0430213
-0.849503
0.806481
-0.22857
2.50689
-2.27832
-2.3143
0.914833
1.39947
0.689401
2.50232
0.118255
0.0361722
-0.154427
1.44538
0.632777
-2.07816
-0.137097
0.944289
-1.05249
2.66415
-1.61166
-2.21758
0.298569
1.76783
0.716478
-2.0052
-0.00502791
-0.287287
0.292315
2.68875
-0.658023
-2.03072
0.936595
0.546445
-3.11148
1.58578
2.94717
-3.03887
-1.33985
0.315924
1.02393
-0.0268275
-0.415954
0.46546
-0.0495054
-1.19033
0.575203
0.615128
-0.0258875
0.298401
-0.272514
-0.310715
0.312666
-0.00195105
-1.43631
3.04248
-0.7248
0.775216
0.301001
-0.529505
0.933318
-1.37984
0.446524
-1.65376
-1.2051
-0.912351
0.434806
0.68234
0.0792838
-0.761624
2.94549
-0.747884
-2.19761
0.306404
1.68453
-0.598214
-0.337519
-1.43106
0.200147
1.18069
1.33866
-2.51936
0.0525259
-0.118931
0.0664053
-0.0655996
0.870144
-0.210115
1.00574
-0.795622
2.60322
-1.15544
-1.44777
-2.67666
0.39604
0.944717
-1.77815
0.478354
1.2998
0.902912
-1.59969
0.322463
-0.372197
-0.758721
-0.165467
-1.71282
2.2009
-0.48808
0.354286
0.0791129
-0.266908
-0.206222
-0.590573
0.485945
-0.567954
0.00325777
-1.31721
1.91617
-0.59896
1.8303
-1.03119
-0.799116
2.0324
-1.03691
0.591196
0.146177
-0.573669
0.476629
-0.0604582
-0.992166
1.71951
-1.88725
-1.73197
1.11348
-1.13538
0.52678
0.340986
0.152249
0.0987056
0.111197
2.28497
-2.30952
0.0245503
2.43825
-1.24771
0.47088
0.776826
0.225952
-0.840866
-0.621014
-2.36633
-0.607469
0.507082
-0.419098
-0.679096