/*--------------------------------*- C++ -*----------------------------------*\
| =========                 |                                                 |
| \\      /  F ield         | OpenFOAM: The Open Source CFD Toolbox           |
|  \\    /   O peration     | Version:  2306                                  |
|   \\  /    A nd           | Website:  www.openfoam.com                      |
|    \\/     M anipulation  |                                                 |
\*---------------------------------------------------------------------------*/
FoamFile
{
    version     2.0;
    format      ascii;
    arch        "LSB;label=32;scalar=64";
    class       surfaceScalarField;
    location    "7";
    object      phi;
}
// * * * * * * * * * * * * * * * * * * * * * * * * * * * * * * * * * * * * * //

dimensions      [0 3 -1 0 0 0 0];

oriented        oriented;

internalField   nonuniform List<scalar> 
7520
(
-0.982404
0.792042
0.190362
-1.34215
-0.207455
1.5496
-0.0485488
-1.91047
1.95902
0.228706
-0.0303487
-0.198357
0.229062
1.76775
-1.99681
-0.0883685
0.095144
-0.00677546
-0.306558
2.12806
-1.82151
-0.187271
-1.99221
2.17949
-1.54044
1.49189
0.827953
-0.0893681
-0.738585
0.412615
-0.183803
-0.228812
-0.265391
-1.59943
1.86482
0.68951
-0.0965052
-0.593005
-0.0975309
0.135316
-0.0377854
-2.095
0.940258
1.15474
0.0788392
1.5387
-1.61754
0.253658
-0.0658298
-0.187829
-0.0969115
-0.361132
0.458043
0.033901
0.0207351
-0.0546361
-0.0455649
0.299223
-0.388871
-0.286228
0.6751
-1.06661
1.14545
-0.0324566
-0.307784
0.34024
0.136512
-0.139737
0.00322531
0.110524
-0.296464
0.18594
0.247546
-0.241771
-0.00577471
0.863622
1.12948
-1.99311
-0.03537
0.309794
-0.274424
-0.0229388
0.0568397
0.196925
-0.0320725
-0.164853
-1.14256
1.74127
-0.598715
-0.0471401
-0.017874
0.065014
-1.85011
2.03199
-0.181872
-0.1504
-0.0663322
0.216732
-0.320486
-1.25413
1.57461
-0.375869
0.963623
-0.587754
0.262074
-0.530912
0.268838
0.82089
-1.58968
0.768795
0.0900439
-0.311043
0.220999
-0.0442404
-0.0997556
0.143996
-0.0278084
0.256515
0.334152
-0.426867
0.092715
0.282217
-0.0346709
2.09371
-1.57599
-0.51772
-0.579634
-0.579914
1.15955
-1.46791
1.61424
-0.146329
-0.144132
-0.101489
0.245622
0.259284
-0.0746204
-0.184664
-1.33845
0.195895
0.268237
-0.0729895
-0.195247
1.79901
0.177019
-1.97603
-0.722234
0.26674
0.455495
-0.0220172
0.0246912
-0.00267407
1.06987
0.476427
-1.5463
0.014553
-0.102922
-0.762194
0.121121
0.641072
0.381355
-1.25642
0.875065
-0.0398022
-0.121027
0.160829
-0.114175
0.0670345
-2.19852
1.12438
1.07414
1.56822
-0.730471
-0.837753
0.0222937
0.162411
-0.184705
-1.30775
0.987261
0.815502
-0.125992
0.0141559
-0.0361731
0.00408849
-0.101619
1.14701
-2.37316
1.22615
0.130051
1.66896
-1.25152
0.978904
0.272612
0.308007
-0.232787
-0.0752194
-0.511488
0.892843
-0.0275316
-0.588968
0.6165
0.332581
-0.0911216
-0.241459
0.055599
-0.229916
0.174317
0.981678
-1.56476
0.58308
0.125103
-0.109685
-0.0154175
1.70903
-0.490892
-1.21814
0.403529
-0.74959
0.346061
1.6832
-1.18257
-0.500629
-0.815735
0.0535418
-1.48976
-0.708769
1.09649
-0.679776
-0.416709
0.235827
-0.609153
0.373326
-0.369274
0.218874
-0.528703
0.431792
0.21358
-0.0166544
0.012696
-0.0471331
0.0344371
1.05262
0.656405
-1.98371
2.30728
-0.323569
0.7293
0.838924
-0.963794
1.11282
-0.149026
0.0168872
-0.0689334
0.0520462
1.36345
-1.62884
0.237888
0.192549
-0.102505
0.235679
0.274344
-0.510023
0.00738156
0.0818502
-0.0892318
-0.522633
0.380987
0.141647
1.42666
-0.444979
-0.711553
0.608947
0.102606
1.11724
-1.71063
0.593395
-0.086783
0.108952
-0.0221685
-0.0409586
0.0621033
-0.0211447
3.04981
-1.9151
-1.1347
0.52465
-0.408955
-0.573449
-1.3426
0.831111
-1.92405
1.61749
0.161094
-0.0773186
-0.083775
0.354625
0.0579896
-0.154934
0.153802
0.00113206
-0.114769
0.147825
-0.0330558
1.96498
-1.14409
-0.100045
0.015595
0.0844501
-0.763836
0.374964
0.0308808
-0.0392952
0.0084144
0.59422
0.502265
-0.79042
0.496964
0.293456
1.17263
-1.46723
0.294594
0.0368516
0.0996602
-0.197702
-0.524532
-0.376454
0.0969456
0.279508
1.02043
-0.192479
0.626042
-0.516265
-0.109777
-0.0505019
-0.0735935
0.124095
-0.213111
0.189707
0.0234035
0.69711
-1.84277
1.14566
0.377672
-0.410129
-0.345078
-0.0425238
0.387602
-0.0210716
-0.0789735
-0.330334
-0.253911
0.584245
0.138126
0.0319888
-0.170115
-0.0636362
0.201762
-0.598939
-0.191481
-0.646119
-0.52674
1.17286
-1.22182
2.27932
-1.0575
0.396482
-0.409827
0.0133441
-1.15758
-0.185017
-0.0333209
-0.0496608
0.0829817
1.40854
-0.338675
-0.638954
0.411822
0.227132
-0.0115804
0.134536
-0.122956
0.282349
-0.0726988
-0.20965
0.225471
-2.13594
0.323903
-1.79181
-2.80605
0.895146
1.9109
-0.836724
-0.414792
-1.47817
1.44777
0.0304028
2.11683
0.225271
-2.3421
0.177302
-0.221542
0.6114
0.444057
-1.05546
-0.270492
-0.233252
0.503743
0.315511
-1.79368
-1.8419
-0.00821907
-0.000797493
0.0134934
0.0607522
-0.114559
0.0538064
0.279556
-0.319359
1.59566
-0.478419
-0.151481
0.123672
-0.0202179
0.00300937
0.0172085
0.747269
-0.411267
-0.336002
-0.433377
-1.66162
-0.0636517
-0.20684
0.055422
-0.579886
0.524464
0.30419
0.139877
-0.444067
-1.56734
0.936749
0.630588
0.946815
-0.717752
-0.0652745
0.447894
-0.38262
-0.286428
0.396952
0.502339
-0.231539
-0.2708
0.764894
-0.529215
0.233109
-0.306098
0.891614
0.322242
-1.21386
0.292139
-0.327509
-0.339456
-1.45737
1.79682
1.29035
0.654096
0.679211
-0.443384
-1.325
0.94913
-0.672379
0.900794
-0.228416
0.00900166
-0.0334535
0.0244518
0.269041
-0.310473
0.0414318
-0.92744
1.52166
-0.267251
-0.144327
0.411578
0.420259
-0.116069
-0.834958
0.89038
0.571468
-1.06192
0.490454
-0.502845
-0.0197885
0.66259
-0.400515
0.135712
-0.0106099
-0.236769
0.209726
0.0270431
0.0767091
-0.191478
-0.338966
-0.101142
0.440108
0.128213
0.204367
-1.00265
-0.562109
-0.751225
-0.816112
0.0155284
0.0432082
-0.0587366
1.17302
-0.166777
-1.00625
-1.51055
0.288731
-1.18125
2.17279
-0.991541
0.350404
0.151935
-0.434932
0.500986
-0.0660547
-0.769948
0.572246
0.562728
-1.14236
1.7508
-0.0594671
-1.69134
-1.43036
1.88084
-0.450486
-0.0214913
0.0822435
0.398853
1.52701
-1.92586
0.0335198
-0.162731
0.129211
-0.121105
1.79984
-1.67873
0.00130424
0.107455
-0.108759
-0.890139
1.2489
-0.358762
-0.133268
-0.63668
0.073584
-0.41255
0.272089
-0.171968
-1.80513
1.9771
0.0274955
-0.00676036
-1.71232
0.709669
-0.24926
-0.20847
0.45773
0.0767977
-0.1273
0.125571
1.58818
-1.71375
-0.559951
-0.555382
1.11533
-0.494945
0.391192
0.103753
2.71541
-1.80418
-0.911226
0.447285
-1.00724
0.0446986
-0.0496471
0.0049485
0.109299
0.737986
-0.847285
0.0412673
-0.0445313
0.003264
0.833492
0.813035
-1.64653
-0.232821
-0.478732
-0.0607798
0.168792
-0.108012
-0.91497
0.694768
0.220202
-0.0684609
0.0371589
0.0313021
1.58338
-0.410361
1.05519
-1.96831
0.913118
-2.79774
1.20978
1.58796
-1.17349
-1.62424
-0.372377
0.486356
-0.113979
0.522331
-0.324113
-0.198218
0.907782
-1.70139
0.793605
0.0377714
1.07404
-1.11181
-0.681739
0.00196291
1.14376
-0.252146
1.21239
1.32562
-2.53801
-0.180555
0.0855604
0.0949942
0.0444933
-0.959464
1.87147
-0.478641
-1.39283
0.133078
-0.0995581
0.105365
0.21686
-0.282689
1.06542
0.806053
0.170193
0.691345
-0.861538
0.350714
-0.0409204
-0.0657924
0.0330806
0.0327118
0.562656
-0.44303
-0.119626
-1.80965
0.859802
0.949844
0.452415
0.0699164
0.817313
-1.46343
0.283349
0.00136528
-0.284715
0.132308
0.126976
-1.68513
1.63549
0.0496365
1.17697
-0.6055
0.0052959
-0.0395692
0.0342733
0.0285478
-0.217785
0.189237
0.116414
-0.207535
1.71824
-0.571231
-0.0864599
0.342272
-0.255812
0.00112004
-0.0213379
0.246176
-0.429979
0.774429
-0.500085
-0.659316
0.697088
-0.171912
-0.064857
2.12806
0.0129515
-0.016688
0.0037365
0.0443205
0.730109
-0.196388
0.126082
0.0703055
-0.0372495
-0.00370913
0.354512
-0.0203597
1.59659
-0.985193
0.411728
-0.360031
-0.0516968
0.303931
-1.19407
0.0637139
-0.394048
-1.98132
1.80935
0.0475269
-0.00282826
-2.16859
0.219053
-0.230633
-0.014801
0.0731484
-0.0583474
-0.596348
-1.2133
1.84121
1.2086
1.72161
-0.784857
-1.59943
0.215297
0.410745
0.22491
-0.219486
-0.00542362
0.174262
-0.235357
0.0610954
-1.2415
0.661586
-0.194521
-0.253817
0.448338
0.285818
-0.375186
-0.112718
-2.01427
2.12699
0.990049
0.200753
-1.50732
1.30657
0.94648
1.08551
-0.964835
1.57109
-1.17224
-0.0516564
0.37693
-0.325274
-0.890352
0.759674
0.130678
-0.215376
0.128916
-0.0813908
0.31803
-0.236639
-0.249396
-0.262075
0.511472
-0.530495
1.82084
-0.266625
-0.358545
0.62517
-0.335207
0.191075
0.251282
-1.21508
-0.0814637
0.0156713
0.00836096
-1.85337
0.969837
0.883529
0.355978
-0.452483
0.00820416
-0.0170251
0.413508
1.18994
1.52546
1.65374
-0.532052
-1.12168
0.11352
-0.042964
-0.0705564
0.731795
0.951407
0.109482
0.115428
0.615829
-2.17863
1.5628
-0.0933698
0.101069
-0.00769878
0.802978
0.623679
-0.212668
-0.0983744
0.733492
-0.563299
-0.562786
1.42641
0.149827
0.0112669
1.47629
-0.303659
0.140234
-0.132852
1.77676
-0.12302
0.099757
0.392675
0.0190533
0.0168178
0.291189
-1.74703
-0.831357
0.962437
-0.13108
0.00563906
-0.115324
1.76031
0.0416318
-1.80194
-0.700065
0.43344
0.217212
0.0651367
-0.299359
0.0665715
0.0237574
-1.20633
1.54209
-1.56796
0.0258678
0.00482337
-0.262671
0.257847
-0.584501
1.38748
-0.828424
1.52553
0.0255706
-0.0207473
0.773222
-0.276258
1.95998
-0.596529
0.00403752
0.120282
-0.12432
-0.0710976
-0.0899812
0.161079
0.110142
0.00337812
-0.371218
-0.728986
-0.128877
-0.2825
0.411377
0.799167
1.48015
-1.65409
1.31463
0.100859
-0.445938
-0.895628
0.868097
-1.1365
1.32577
-0.18927
0.514447
-1.69919
1.57808
1.46385
-0.411222
1.30378
0.789927
-0.0640804
0.276507
1.26558
-1.30117
0.287267
1.0139
0.245158
-0.277231
0.435847
0.0165672
-0.208153
0.144517
-0.0783348
-1.49765
0.461019
-1.25177
0.790752
-1.49377
1.0145
0.479268
0.0711933
-0.660162
-0.210315
0.232609
0.0831532
-0.00972209
0.0990001
-0.0892781
-0.535604
0.470329
0.87077
0.593077
-1.43036
-0.104323
-0.108788
1.6083
-1.42446
-0.183834
-0.403997
1.93101
-1.64751
2.48854
-0.841035
-0.734229
1.04421
-0.309977
0.0619817
-1.36973
0.134008
-0.458122
-0.258525
0.410713
-0.152189
0.0260564
0.0360469
1.33024
0.705693
-1.26875
0.563056
-0.0079181
-1.54773
1.55564
-0.0509848
-0.103949
-0.00468233
-0.471151
0.475834
-0.423173
1.17202
-0.748846
0.193861
-0.135226
-0.0586357
0.168263
-0.135886
-0.0323774
-1.98906
1.7816
2.33834
-0.482411
-1.85593
0.0330773
0.00828218
-0.0413595
0.00680638
0.167456
0.0986507
-0.601496
-0.852131
1.68562
0.0201424
0.0107384
1.7508
-0.979755
1.08905
0.156026
-0.156026
-0.110864
0.293571
-2.27728
2.25093
-0.932322
-1.31861
-1.02185
0.811432
0.210423
-0.037432
-0.0365132
0.0739452
0.994009
-1.20053
0.206526
-0.589058
-0.200494
0.789551
0.578016
-1.97304
1.39503
-0.0907893
-0.799563
-0.206968
0.135871
-0.184164
-0.589887
0.774051
0.751649
0.420675
-1.17232
-1.36634
-0.416863
0.671525
-0.254662
-0.644721
0.980908
-0.336187
1.45868
-1.33311
0.262597
-0.391474
0.0936849
-0.282084
0.337683
-1.29238
1.33429
-0.0419131
-1.29176
1.77542
-0.483663
-0.0165188
0.127777
-0.111259
-1.58558
-0.787581
-0.0330201
0.0100813
-1.64102
0.459768
-0.358544
0.277153
-0.180771
-0.553459
-0.0210146
-0.0723552
-0.839173
2.05156
0.0437169
-0.3515
-1.52756
0.131729
1.39583
0.523529
-0.405858
-0.11767
-0.865792
0.193413
0.206716
-0.54604
0.339324
1.59806
-0.136418
-1.46164
-0.0423896
0.16221
-0.119821
-0.37706
0.592605
0.982002
-1.57461
-0.626297
1.56656
0.17532
0.68542
0.723124
-0.118347
1.58507
0.191689
-1.3988
1.39088
0.230218
-0.0665394
-0.163679
0.35413
-0.168582
-0.185548
-2.00223
0.35472
-0.147909
-0.278958
-0.600497
-0.23086
0.251323
0.823023
-0.225036
-0.597987
0.187654
0.0945627
-1.1444
1.57942
-0.435018
0.149248
-0.239229
-0.0627388
0.33178
0.244751
-0.503275
-0.0856725
0.44366
-0.357987
-0.0617912
-0.0138369
0.0756281
0.801212
-0.323657
-0.477555
-0.0395951
-0.155029
0.194624
-0.280824
0.312984
-0.0321592
0.0185711
-0.316183
0.297612
0.300571
-0.0554132
0.450528
-0.157706
-0.292823
1.52361
-1.03387
-0.959237
-0.0150774
-0.0592068
0.0742843
0.0689003
-0.0756607
-0.267136
-0.227809
1.13454
-0.311518
-0.0291734
-1.20921
1.23838
-0.349924
-0.0265296
-0.0104136
-0.588525
0.154261
0.0140028
0.164404
-0.1631
-1.37009
-0.033947
-0.0774979
0.111445
1.31339
-0.991149
1.19351
1.14483
0.320521
-0.0371718
-0.142034
-1.67479
1.81682
0.780914
0.422936
-1.20385
0.155393
-1.02979
0.675457
0.354335
0.465332
0.058197
0.0375378
0.0557754
-0.0933133
2.14939
-1.15595
-0.993435
0.132245
-0.296153
0.163909
0.740104
0.366895
-1.107
0.0690783
0.0983262
-0.167404
1.71768
0.0235977
-1.74128
-0.413421
0.0522891
-0.246602
0.290318
0.0353264
0.0378379
-0.0731643
-0.421654
-0.107049
0.0300107
0.0193098
-0.0493205
-0.419342
-0.673443
1.09279
1.11528
0.482785
0.991292
-1.02047
0.753844
-1.17702
-1.90622
1.7935
0.0161918
-0.0897853
0.248084
-0.600867
0.352783
0.725252
0.996353
1.15969
-1.37115
0.211455
1.23072
-0.545302
-0.126833
0.0838691
0.00313328
-0.178357
0.175224
-1.67927
-0.442162
2.12144
-0.407246
0.433247
-0.026001
0.00847563
0.14755
0.202354
1.5654
-0.136736
-0.0438188
0.653129
-1.37556
0.722432
-0.725522
-0.346146
1.07167
1.54027
-0.485079
0.655943
0.573908
-0.807159
-0.255221
0.00465091
0.25057
0.0194926
-0.184345
-0.468111
1.1738
0.00993563
0.0313316
-0.382052
-0.150389
0.532442
-0.0160527
1.01006
0.727285
-1.25402
-0.467064
-0.410473
0.507419
0.752507
-0.933277
0.0581477
-0.0425527
-0.113732
-0.168958
-1.94263
0.908762
-0.0834748
0.0289341
0.0545407
-0.018921
0.0257948
-0.00687386
0.210159
0.863882
0.191202
-0.0287908
0.0262155
-1.68436
1.65814
0.651996
-0.950702
0.298707
-0.0178662
0.0585457
-0.0406795
-0.743698
1.20472
-0.119695
-0.367345
0.487041
-0.269421
0.476137
-0.949387
1.46164
-0.51225
-0.49457
0.498562
-0.00399227
2.18047
-0.0636345
0.397394
-0.263393
-0.134001
-0.548691
0.29478
-0.172693
0.235783
1.3045
1.00277
0.147146
-1.5958
1.44865
-0.799437
-0.197198
0.996635
-0.290083
0.261791
0.0282924
0.122934
-0.113011
-0.00992291
-0.00497099
-0.149847
0.154818
-0.0986981
0.0172345
-0.814101
-0.287772
-0.0086924
-0.121041
0.136713
-0.12468
0.383405
-0.258725
-0.223996
0.260938
-0.0369415
-0.0320476
0.212682
-0.180634
0.804168
-0.372214
-0.0627234
0.0155903
0.263388
-0.918417
0.65503
1.17826
-0.968098
0.0174659
-0.338064
0.320598
-1.00456
-0.706076
-1.38462
1.51467
0.814239
-0.370181
-1.32728
0.831003
0.496281
0.232271
-0.0921034
-0.140167
1.76004
-1.76004
-1.59346
0.103709
-0.504791
-0.231696
-0.622032
0.853728
0.580327
-0.538841
-0.0414862
-0.0157877
0.0529636
-0.0410949
-0.0118687
-0.000426026
0.198084
-0.197658
-0.414849
1.26038
-0.845536
0.451499
0.0366308
-0.48813
0.787573
-0.725591
-1.04625
0.246811
-0.03942
-0.208631
0.248051
0.0406471
-1.34182
-0.470857
-1.23769
0.76683
0.331895
0.0122578
0.228571
-0.240829
-0.26478
0.324743
-0.0599628
-0.22675
0.16597
-0.0820707
0.0818429
-0.096644
0.0357582
0.104739
0.256496
-0.361234
-0.125596
-0.0527614
0.170561
0.279968
-0.149525
0.131111
0.0184139
0.0133501
0.0118668
-0.0252169
0.0951022
-0.0578589
-0.0372433
-0.0636945
0.163909
-0.100214
-0.552034
1.34279
0.511152
-1.14364
0.632491
-0.147624
-0.0794759
0.2271
-0.0583683
-2.47404
2.53241
0.877269
-0.551086
-0.326183
0.468314
-0.0425894
-0.192768
0.0342911
-0.0735863
-0.0529466
0.185191
0.277203
-0.956681
0.679478
-0.430331
-1.2548
-0.198726
0.805594
-0.606868
-0.0984308
0.0773592
0.395599
-0.266886
-0.128714
0.625372
-0.361984
-0.764466
0.496578
-0.521668
0.02509
-0.51308
0.318559
-0.162812
0.574633
-0.281634
0.310182
-1.92165
0.00654848
-0.275488
0.520239
0.0272908
-0.234259
0.145808
0.0294162
0.31248
-0.300222
-0.0805896
-1.30353
0.751493
1.99207
-0.192236
-1.80513
2.24463
-1.08619
-1.15844
-0.0775766
0.458563
-0.0727185
-0.743017
0.473589
-0.39688
-0.237462
-0.0177591
-0.576354
-0.398145
0.974499
0.0884473
0.252642
-0.34109
0.0388589
-0.875583
-1.98806
-0.305509
-0.313411
0.61892
0.7142
-0.0622043
-0.236292
-0.0367988
0.273091
0.458425
-0.0807523
0.160317
0.0719541
2.03263
-1.45462
-0.889336
0.312982
-0.243257
-0.048926
0.292183
-0.0429365
-0.147699
-1.05284
0.507327
-0.195592
-0.311735
-0.0805791
-0.0335954
0.893838
-1.15519
0.261354
-0.650939
-0.061466
1.82151
-0.366014
-0.552403
1.60195
-2.07476
0.472814
-2.17873
1.81992
0.358806
0.148285
0.102718
-0.251003
0.148822
1.16304
0.00462346
0.840225
-0.844848
0.020935
0.321337
0.0786762
-0.0455989
-0.00708787
-0.287644
0.294732
1.28022
-1.42226
0.0874714
0.336885
-0.356566
0.019681
-1.51632
-0.0771477
-0.586805
-0.33197
0.316892
0.1053
0.00329609
-0.108596
-0.607285
0.301663
0.305622
-0.378635
0.326979
-1.08801
-0.48806
1.57607
-0.124213
-0.0351804
-0.00225164
-0.26527
-0.15039
0.41566
-0.370091
1.38459
-0.151939
-0.862248
-0.159607
1.26898
-0.451664
1.02095
-1.43579
-0.016972
-0.0143388
0.0313108
1.05242
-0.613145
-1.38367
-0.333744
-0.0764925
0.410237
-0.0543887
0.198906
0.030087
-0.413138
0.383051
0.45115
-0.0193578
0.268343
1.32825
-0.140863
0.296445
-0.0633364
-0.419919
0.402894
-0.174941
0.0680619
0.106879
0.242992
-0.10608
-0.136912
-0.138067
-0.041424
0.179492
0.352271
0.0677551
-0.420026
0.068191
0.0559044
-0.195578
-0.067093
-0.0378227
1.16569
0.0215234
0.109074
-0.130597
0.0553695
-0.107149
0.0517794
-0.0127047
-0.390536
0.403241
0.591376
0.242917
-0.65978
-0.0634451
0.350194
-0.0706374
-0.435913
0.149484
-0.126123
-0.0366071
1.79114
-0.9781
0.0919576
-0.223367
0.131409
-1.58491
0.200292
-0.105187
0.0319441
0.0732432
-0.0377306
-0.0307303
-0.269493
-1.90923
0.350148
-0.0580095
-0.787187
-1.39144
-0.48778
0.105728
-0.725875
0.460605
0.940803
-0.723658
-1.40235
1.5495
-2.05547
0.376191
-0.190376
0.0545833
0.135793
0.0226588
-0.184395
-0.381716
0.566112
-0.252111
-0.00370076
-0.346535
-1.05951
1.40605
-0.604032
-1.15106
1.75509
0.592792
0.336966
-0.929758
-0.00923565
0.323439
0.173139
-0.250722
-0.252553
-0.168127
-0.10141
0.269537
0.144691
0.359053
0.267718
0.127881
0.45701
-0.580997
-0.023784
0.0367354
-0.592227
0.771046
-0.178819
-0.142411
0.425332
-1.31948
0.0499715
-0.00676323
-1.22826
0.404514
0.179731
-0.972644
-0.490787
-0.15241
-0.920739
-0.314459
1.2352
-0.124183
0.597772
-0.0539721
0.865404
-0.286022
-1.01177
-0.930862
-1.24213
1.44865
0.0765753
-0.225252
0.0137234
-0.0619968
0.0482733
-0.62083
0.562687
0.0581421
0.670266
-0.803534
-0.0600897
-0.0233851
-1.13171
-0.19557
-0.160741
0.0817574
0.0789833
0.268767
0.532446
-1.4624
-0.165829
1.62823
0.0606772
-0.186273
0.293163
-0.299545
0.00638219
-0.229694
0.389986
0.134664
-0.186574
-0.0416232
0.228197
-1.31039
0.831754
-0.274474
0.0223624
-0.168453
-0.1277
-0.320193
0.0374312
0.0207165
-0.0298845
0.197022
-0.0100281
-0.0631361
0.309807
1.32569
-0.642093
1.94587
1.01195
0.628732
-0.829225
0.0281978
-1.4906
-0.295054
-0.317005
0.373558
-0.0565524
0.186061
0.0036459
0.0691554
0.0125564
-0.0538206
0.120855
-0.193136
1.79732
-1.60418
0.21055
-0.84723
-0.118444
-0.253509
-0.0658498
0.716574
-0.274974
0.346738
-0.071764
-0.00576523
-1.53092
1.53668
0.616776
0.274169
0.306158
-0.547906
-0.552682
0.941105
-0.388424
0.00531688
0.0149331
0.0108618
-0.272528
1.00482
-0.73229
0.0957218
0.156546
-0.252268
-0.152276
-0.630888
0.783164
-0.269104
-0.0584044
-2.04852
-0.0302398
0.179681
-0.175644
0.0250922
-0.254684
-0.0197894
0.336688
-0.650099
2.25943
-0.950435
-1.309
-0.130746
0.408539
-0.0133804
0.306543
-0.297188
-0.22448
-0.171139
-0.0135243
-0.11389
-0.255384
-0.196957
0.83678
-0.989057
0.132161
-0.0905385
-0.0416225
-0.363377
-1.97528
1.10539
0.869893
-1.95967
1.9013
-1.15318
0.324472
0.828713
-0.0666149
0.297577
-0.230962
0.692699
0.441842
-0.0195715
0.191957
-0.0578896
-0.195093
0.0235943
-0.253776
-0.0131099
1.10637
1.15306
0.0176665
0.0154141
1.64048
-1.4152
-0.0376143
-1.39692
1.43453
1.25755
-0.0918601
-0.28371
-0.0748338
0.623012
0.0916404
-0.247603
-0.0606243
0.496472
0.750587
-1.56855
0.817967
0.0811566
2.37965
-1.43624
-0.943411
0.00741876
-0.117874
0.0813603
0.851451
0.670209
1.1426
-1.03889
1.10023
-1.70427
-1.25015
0.0392822
1.21087
-1.73373
0.230727
1.503
0.0663227
0.0703899
2.46836
0.0252819
-2.49364
-0.764853
1.38194
-0.617086
0.0470685
0.213869
-0.875854
0.231133
-0.000782719
0.0483096
-1.33565
0.199148
0.00582634
-0.0199436
0.0141172
-0.0924775
0.219159
-0.126681
0.146801
-0.490051
0.343249
0.519156
0.443281
-0.499528
-0.107757
0.075883
0.838979
-0.929768
-0.0637211
-0.0508374
-0.246176
0.0509285
0.64134
0.523012
-1.16435
-0.63887
0.709134
-0.0702641
0.073762
-0.416966
0.343204
-0.911398
-1.59757
0.784584
0.812986
0.115318
0.842918
0.254762
-1.09768
-0.308597
0.2152
-0.238689
0.0234885
0.164433
-0.0352218
-0.240186
0.00389367
-0.280056
-1.49279
0.507598
-0.402369
0.78358
-0.38121
-0.638723
-0.686275
1.70744
-0.737598
-0.0993186
0.179174
-1.41996
0.066027
-1.40706
1.34103
0.0441344
0.0167367
-0.0608711
1.14333
-1.10008
-0.0432517
0.151975
-0.0174393
-0.0388647
-1.44232
0.803595
-0.588169
1.26363
-0.274029
0.520204
0.287801
0.214051
0.0289414
0.801059
-0.367619
-0.0141783
0.684444
-0.94964
0.425107
-1.71399
0.562934
1.08247
-1.08824
-1.53494
1.3418
-0.109219
-1.47712
0.214103
1.26302
0.578931
0.226663
0.033143
-0.930521
0.698824
-0.110494
-0.127552
0.238047
-2.13218
0.53178
1.6004
0.373249
0.828017
-1.20127
0.0757896
-1.31792
0.73909
0.120485
-0.859575
-0.29928
0.0304802
-0.926108
-0.0788735
-0.0108887
0.0480476
1.49126
-1.46766
-0.049112
-0.992449
-0.605122
0.623278
-0.0305201
-1.21963
1.11121
-0.268287
-1.57808
-0.0213436
-0.283234
-0.930622
0.323442
-0.235497
1.90622
0.221847
0.164728
-1.21756
0.132123
-0.100135
0.208383
-0.457779
0.327931
-0.546725
0.218794
0.153807
0.0975887
-0.251395
-0.364812
0.101419
0.281504
0.281152
-1.1386
1.16369
-0.0250843
-0.737836
1.11147
-2.07664
0.965166
-0.371095
-0.0545371
0.0858391
-1.475
0.135057
1.33994
-0.372595
0.887042
-0.653758
0.692616
0.155494
0.968548
0.539414
-1.00648
-0.816567
-0.174586
0.991153
-0.254839
-1.33777
0.991234
-0.119995
0.123244
-0.00324922
0.0472868
-0.0879663
0.971319
-1.43943
-0.781401
0.0167407
0.76466
0.0107542
-0.0243541
0.0135999
-1.07143
0.440543
0.0356283
0.0237834
-0.222141
0.400543
2.24904
0.219325
-0.805064
0.809687
-0.256275
0.0878214
-1.23952
2.11781
-0.878288
-0.0730267
0.0617869
0.0739255
0.359567
-0.0193271
0.980739
1.19205
0.647601
-0.923859
0.274332
-2.07851
-0.160256
0.126309
0.138589
-1.12974
-0.208868
-0.946323
-0.202227
0.0507467
0.778878
-0.378334
-1.46538
0.0794538
1.2488
0.178444
-1.67171
0.297939
1.37377
-0.0804189
0.470405
0.865453
-1.14017
-0.290189
0.729632
-0.323555
-0.406077
0.852379
-0.294252
-0.558127
-0.172015
0.0367895
0.632092
-0.661474
0.0293815
-1.41751
1.02321
0.394303
0.506207
0.955431
0.000619627
0.104681
0.74703
-0.504113
-2.1341
0.857641
1.27646
-1.9771
1.53494
0.976598
0.738821
-1.71542
0.787683
-0.734141
1.79207
-0.59451
-1.19756
-1.02544
0.163732
-0.0798633
-0.179417
-0.101135
0.186695
-0.0336088
0.109903
-0.076294
-0.285199
0.0552832
-1.76449
-0.227726
0.0902108
-0.0972987
-0.0296226
-0.0149087
0.973755
-0.507676
-0.466079
0.762038
-0.460375
-0.116129
0.122935
-0.106669
1.26636
0.0566262
-0.0124918
-0.314248
-0.757182
-1.48722
0.566481
-0.0647755
-0.0749617
0.119782
0.0886026
0.0951753
-0.0814519
-0.484822
-0.480554
0.0881458
-0.0744279
-0.013718
0.172711
-0.774934
-0.452141
1.22708
-0.280332
0.025648
-0.124504
1.12172
0.994045
-2.11577
-0.37549
0.968282
0.205818
-0.0821457
0.665157
-0.816399
-0.791157
1.60756
-0.93628
-0.962268
0.564123
0.295482
-0.196597
-0.0988847
1.01866
-1.18543
-0.14765
1.89356
-0.782094
-0.17214
0.0994413
-0.430151
-0.713492
0.0829488
2.05405
-1.7935
-0.260553
-0.902546
-0.584674
-0.335631
0.157482
0.0630278
-1.03328
-0.201415
1.2347
0.231934
-0.164216
0.259938
-1.65616
-1.47915
0.649959
0.82919
-0.155229
-0.00457775
0.159807
0.939097
-0.568399
-0.370698
0.099809
-0.15363
0.07433
0.0794722
0.797111
-1.88512
0.746313
0.106066
-0.315912
-0.573424
0.328522
-0.0758793
0.142884
0.321497
-1.09643
0.026147
0.350783
-0.420203
0.13812
-0.0940004
0.0164757
0.0775248
0.98459
0.807482
0.557438
0.0569614
0.633448
-0.23622
-0.397229
1.69919
-1.40125
-0.393457
-0.223417
0.139424
0.0250084
0.203004
-0.0652787
-0.295956
0.00360188
-0.123596
0.553546
-0.0610164
-1.80849
-0.0196804
-0.135548
-0.0665271
0.00453036
1.06419
-1.11817
0.868275
-0.419278
-0.448996
0.00372925
0.105222
-0.00558631
0.0114127
0.394886
0.0119288
0.0636993
0.161264
-0.48492
-2.6485
1.0706
1.57791
-0.0730374
0.00410408
-0.0361161
0.0990684
0.114511
-0.260375
-0.285665
0.634644
-1.45104
0.0242119
-0.968421
2.09014
0.614987
-0.0692376
-0.545749
-0.605196
-0.488958
-0.0498833
0.0857463
-1.09932
0.511509
-0.739157
0.227648
0.126737
-0.246393
0.119655
-0.172542
1.15249
1.33605
-1.35962
1.40125
-1.99914
1.50951
0.489627
1.12778
-2.0962
2.34558
-1.15564
-1.03859
-1.02964
-0.0507608
0.149761
-0.0542968
-0.416854
-1.56738
0.0902592
-0.0771838
-1.29396
1.2072
-1.96873
0.761535
-0.0510092
0.228311
-0.400678
0.130593
-0.134586
1.00114
1.3785
-2.13737
0.897852
-0.155917
-0.780363
-1.35593
-0.0408992
-0.205494
1.95967
-2.0233
-0.130318
-1.07767
0.0302391
1.29618
-0.703576
-1.7155
1.77757
-0.0620748
0.459985
2.07242
0.420683
-0.0565252
-0.364158
1.71667
-0.616441
0.224355
0.0119043
0.733497
-0.743911
0.0862189
0.127832
0.65914
0.814711
-1.47385
-0.536697
-0.443112
1.02335
-1.06944
0.0460935
0.267163
-0.462755
-1.73265
0.731202
1.00145
1.35971
-0.216381
-0.911304
-0.149888
0.949278
-1.40094
0.274689
-0.525411
-0.297854
0.447339
-0.621658
0.437263
-1.45423
-0.631606
2.08584
-0.440987
0.508742
-0.453135
0.346086
1.10114
-1.26075
0.0532842
1.35828
-2.00037
-0.254971
-0.45116
0.212185
-1.18028
0.103436
0.688606
0.479195
0.0121825
-0.60207
-1.71187
0.309518
0.0541169
0.216438
-0.270555
0.0662443
-0.302884
1.14822
1.09641
1.23099
-0.969639
0.078925
-0.0712195
-0.37181
0.42879
-0.439284
0.419926
-0.655187
-0.943268
2.07105
-0.265314
0.380632
-0.507539
-0.961568
1.46911
-1.43471
0.669853
-0.0637259
0.32704
0.0762003
-1.45591
-0.0716507
-0.139416
0.650925
-1.34092
-1.30758
2.05405
0.554206
-1.37032
0.999763
-0.556482
-0.213882
0.470912
-0.297773
-0.22106
0.238526
-1.55467
0.224784
-0.777466
1.13179
-2.07506
-0.799843
-0.20578
0.50056
-0.166976
-1.54852
1.08736
-1.57815
1.33893
0.658139
-1.51723
0.859095
1.37176
-0.34855
1.86482
-0.89436
-1.08632
1.98068
0.571379
1.24495
-1.01302
-0.635098
-0.844051
-0.983687
-1.01545
0.442876
-0.808532
1.41701
-0.608476
-0.130837
1.36442
-1.23358
-1.01184
-0.956351
1.96819
0.917533
0.105816
0.247502
0.366255
-0.341717
0.260074
0.0816433
-0.00219906
-0.23703
0.491185
-1.39373
-0.690825
-0.375736
-0.245094
-0.137808
0.542322
-0.147489
0.763989
-1.98996
0.722296
1.26766
-0.0440614
-1.61595
1.66001
0.0264614
-0.235482
0.0378243
0.599009
-1.83261
1.83261
-0.059872
-0.0128423
0.0727143
-0.631859
1.05253
-0.165479
0.12458
-0.759024
-0.26736
0.626412
-1.35962
-0.0676818
-1.26361
0.283858
1.28639
-1.24575
-1.20187
0.168587
-0.148119
0.532962
-0.384842
0.114796
0.517296
0.201688
-0.0478814
-0.959682
-1.19394
0.191064
1.00288
-1.38474
-0.413435
-0.855724
-1.22091
0.0148059
-0.20138
0.154833
0.211833
-0.509021
-0.0479623
0.0379342
0.355656
-0.279296
-0.342363
-0.940208
1.40095
-0.460741
0.318654
0.198501
-0.228287
0.381599
-0.153312
-0.423537
0.161462
0.401903
-0.524172
0.122268
-1.16893
1.91876
-0.942162
-1.38519
-1.86416
0.333239
-1.59683
0.0483861
0.992983
1.15641
0.129333
-1.05996
1.21639
0.117901
0.152391
-0.42642
0.64531
0.619079
0.168604
2.03932
-0.907534
-1.07679
-0.677836
1.75463
1.13262
-0.00505488
-1.12757
0.00119342
-0.108342
-0.185168
0.168649
0.130654
1.33621
-1.46686
-1.17482
1.08824
0.0865848
1.17482
-1.3418
0.205413
-0.256423
-1.0162
1.04668
0.0731939
-0.0417197
0.0976242
-1.6703
0.162974
1.51619
-0.858054
-0.304546
-0.0652999
0.133362
-0.413748
0.915897
0.247086
-0.083177
0.631013
-1.3633
0.171212
-0.229848
-0.55294
-0.0562124
0.617405
-2.06087
0.513147
-0.0707979
0.418613
-0.347815
-1.03606
-0.932676
0.0631822
0.674349
0.50262
-0.886847
0.0817829
-0.109687
-0.307279
0.100842
-2.12003
1.08144
0.0662352
-0.0203442
-0.279878
0.0187941
-0.0486786
-0.0897618
-1.42457
0.644129
-1.55881
0.914683
0.0571381
0.237001
-0.294139
-0.00252254
-0.216964
-1.02938
1.31324
0.613604
0.354678
1.32784
-1.14017
0.177726
0.0394864
1.73512
-2.00012
0.264999
0.200042
-0.350432
-0.785503
-0.0740715
0.358922
-0.435415
0.335742
-0.306326
-1.27973
0.171475
-0.0921099
-0.0793647
-1.48212
0.189464
1.29265
0.392339
-0.331662
-0.0301265
0.360314
-0.330187
1.1621
-1.19262
-0.302587
0.400175
0.610316
0.243412
-0.223682
0.302666
-0.0356865
0.113046
0.161553
0.659872
-0.821426
-0.420293
-0.0697578
-0.923755
-1.01358
1.93734
0.10365
-0.217491
0.3489
-1.0074
1.9013
-0.0562833
0.0789421
0.0461817
0.0502055
0.137774
2.13219
-1.02582
-1.21033
0.760695
-0.535911
-0.836062
2.11252
-0.0416624
0.0535912
-0.270254
0.27873
-0.00407554
-0.126522
-0.280686
0.179276
-0.31714
0.502089
-0.290256
1.14065
-0.00355682
0.022351
0.296404
-0.067833
0.0350017
0.401305
0.0951663
0.470493
-0.749788
0.200117
-0.228929
0.028812
0.031547
-0.0148103
0.173747
0.885223
-1.05897
-0.2324
0.104847
0.479926
-0.60411
2.0334
-1.23423
1.02069
0.908387
0.0961716
0.538736
-1.12599
0.337866
-0.418619
-0.38902
1.35375
0.67888
-1.48304
1.48304
1.71579
-0.832156
1.08344
-0.0281871
1.53969
-1.5115
0.91847
1.02597
0.752554
-2.20678
0.147521
-1.13658
-1.35146
-0.213846
-1.42292
1.63677
-0.389099
-0.123981
0.0685197
1.13157
0.150955
-0.257035
-0.704418
1.4771
-0.772678
-0.172036
0.258255
-0.0192403
-0.194728
0.66006
2.65351
-1.09064
-1.56287
1.61429
-1.47923
1.12632
0.199455
0.0271313
-0.00156067
0.0237836
1.56439
0.550673
1.12488
0.454541
0.0200224
0.187974
-0.207997
-0.333544
0.205844
0.173157
-0.18468
0.0115228
0.154362
-0.207345
0.0529834
0.51023
-0.434347
0.322646
-0.465056
0.500474
-0.285177
0.0207475
-0.0102434
-0.00554432
-0.281084
0.422493
-0.141409
-0.318196
0.290007
0.0281887
2.0233
-1.65006
0.511929
-0.529543
0.0176131
-1.49126
-0.32711
0.256472
-0.988093
1.90656
0.249708
-0.315558
2.19534
-1.44278
0.238023
-0.30136
-0.149539
-0.0607046
-1.33127
0.0396883
1.60191
1.281
-1.06881
-0.10235
0.139201
-0.0858576
-1.4821
-0.281976
0.276202
0.235161
-0.353605
-0.34977
0.278006
-0.0797743
-1.33364
1.29602
-1.4483
1.47417
-1.15319
-0.462353
0.410656
0.664445
0.370535
-0.383645
-0.0514486
0.0641744
0.33559
-0.399765
-0.341886
1.4073
-0.939414
-1.04678
-2.08622
-0.073867
0.0701248
0.00374222
-0.0025627
1.43558
-1.43301
1.78373