/*--------------------------------*- C++ -*----------------------------------*\
| =========                 |                                                 |
| \\      /  F ield         | OpenFOAM: The Open Source CFD Toolbox           |
|  \\    /   O peration     | Version:  2306                                  |
|   \\  /    A nd           | Website:  www.openfoam.com                      |
|    \\/     M anipulation  |                                                 |
\*---------------------------------------------------------------------------*/
FoamFile
{
    version     2.0;
    format      ascii;
    arch        "LSB;label=32;scalar=64";
    class       volVectorField;
    location    "7";
    object      U;
}
// * * * * * * * * * * * * * * * * * * * * * * * * * * * * * * * * * * * * * //

dimensions      [0 1 -1 0 0 0 0];

internalField   nonuniform List<vector> 
5098
(
(2.52921 1.05416 0)
(2.13394 0.0758197 -4.10933e-20)
(2.55897 0.0299961 -2.11037e-21)
(1.49361 -0.67448 7.77949e-19)
(2.56606 -0.986014 0)
(0.875433 -0.423013 0)
(2.49589 0.00232773 1.48591e-20)
(2.78323 -0.27003 2.0896e-21)
(2.74114 -0.00993408 -4.68925e-20)
(1.90592 -0.280911 1.3674e-19)
(-1.94032 -0.140445 0)
(2.15218 -0.0215943 1.76667e-19)
(2.44415 -0.399283 -9.2516e-21)
(0.921397 -0.446932 0)
(2.28034 -0.394861 1.41359e-19)
(1.91432 0.0698519 -3.46809e-22)
(-1.61592 0.309339 -4.3894e-19)
(-2.57832 0.767834 0)
(-0.266345 0.184239 3.81137e-19)
(-1.6595 0.351021 5.0063e-19)
(1.8106 0.596287 -8.45501e-20)
(1.87604 0.065122 -1.17464e-22)
(2.06321 -0.783599 0)
(0.739634 0.0409466 3.03464e-20)
(-2.33451 1.44784 0)
(1.44049 -0.584098 0)
(1.99406 0.0252142 1.36094e-19)
(1.80621 -0.761037 2.01371e-19)
(-0.345934 0.283624 -1.16649e-18)
(1.67637 -0.727592 0)
(2.40916 -0.198493 -1.12228e-19)
(0.70237 -0.338451 0)
(2.07918 0.0454086 -1.46185e-19)
(-0.838998 -0.598192 0)
(2.5617 0.382792 -4.00319e-20)
(3.57359 0.365861 1.28951e-18)
(1.82105 -0.430973 1.50614e-19)
(2.07498 -0.00413945 -1.54138e-21)
(1.31446 -0.421662 5.7619e-19)
(1.3594 -0.628588 0)
(1.49932 -0.686555 -3.65583e-19)
(0.821041 1.27187 -2.08031e-18)
(1.45615 -0.589354 0)
(2.57477 -0.153634 6.83466e-20)
(2.42825 0.745205 2.26163e-20)
(2.05329 0.0821722 7.85106e-21)
(-1.87781 0.339853 2.07192e-19)
(1.05874 -0.344717 0)
(2.38263 -0.216405 0)
(1.49633 -0.642423 8.29579e-20)
(2.2806 0.140554 6.58129e-20)
(1.61927 0.486617 -5.02713e-19)
(0.264263 -0.124524 2.69204e-21)
(2.06702 -0.0383779 1.82935e-19)
(0.939317 -0.471107 -3.49124e-19)
(1.56978 0.112307 0)
(1.83397 0.276223 -2.72308e-19)
(1.59008 -0.65526 0)
(0.828582 -0.403878 0)
(1.94072 -0.00931209 -3.88993e-20)
(1.64986 -0.322254 1.41204e-20)
(-2.06012 0.934486 -7.72495e-19)
(2.56665 0.426814 0)
(2.38418 -0.377962 0)
(0.280121 -0.113598 1.81285e-18)
(0.798603 -0.399701 4.39873e-19)
(2.29105 0.0320747 6.46658e-21)
(2.30427 0.183619 1.22367e-20)
(2.12138 -0.225395 1.81449e-19)
(1.63279 -0.688634 2.41292e-19)
(1.8893 0.209022 1.59153e-20)
(1.01111 -0.650991 2.97785e-21)
(1.87887 -0.77459 0)
(0.197701 -0.723337 0)
(1.75806 -0.233366 3.9404e-20)
(1.09676 -0.538156 -3.97811e-19)
(1.49316 -0.153294 0)
(1.49916 0.204336 4.5752e-19)
(2.52494 -0.237583 6.84252e-20)
(1.6075 0.182757 0)
(1.67652 -0.0437143 0)
(2.39111 0.918775 7.36137e-19)
(1.65071 -0.2935 5.3967e-19)
(-0.840404 -0.918661 -6.07253e-20)
(-2.4383 0.335007 7.2645e-19)
(1.52003 -0.662918 1.78446e-19)
(0.0387667 0.300165 -2.74945e-19)
(1.50118 -0.178685 -5.40391e-21)
(2.86736 -0.195149 7.66014e-20)
(1.59155 -0.320253 1.76673e-20)
(2.27444 -0.249161 -7.89971e-21)
(0.761047 -0.205229 7.58912e-19)
(2.48386 -0.0643858 -2.21878e-19)
(1.51129 -0.660324 -4.14822e-19)
(1.29454 -0.446356 1.0158e-19)
(1.10938 -0.49909 -2.40269e-20)
(1.02021 -0.512363 -3.31447e-19)
(1.42393 0.297279 3.39453e-19)
(1.70944 -0.224855 1.91094e-20)
(1.99973 -0.441473 -1.22007e-19)
(2.81766 -2.36263 -4.52371e-19)
(0.988545 -0.489876 -4.13377e-19)
(-0.246466 0.120905 -5.78533e-20)
(2.84401 0.189858 2.04027e-20)
(1.52063 0.175645 -5.20069e-19)
(2.37799 1.15483 0)
(1.94011 0.249678 2.89292e-19)
(2.34539 0.0977465 1.58619e-20)
(0.982862 -0.381865 7.88621e-20)
(-1.96584 -0.235075 0)
(1.0245 -0.493333 -8.89565e-19)
(1.11599 0.458397 5.5708e-19)
(1.92289 -0.0115381 -2.72787e-19)
(0.698485 -0.144138 1.63067e-19)
(1.75697 0.682824 1.2166e-19)
(-0.235805 -0.135616 0)
(2.69551 0.654858 1.94816e-18)
(2.64694 1.50607 0)
(1.41286 0.40704 -5.0445e-20)
(0.77001 -0.0101974 -4.66153e-19)
(1.68263 0.462402 4.12779e-19)
(1.59234 2.05612 -1.29956e-19)
(1.9909 -0.29782 -8.61799e-20)
(-0.264545 2.03336 -1.06065e-18)
(0.836759 -0.193967 -1.02448e-18)
(-1.5992 0.611177 3.53497e-20)
(2.21428 -0.0256553 1.48957e-19)
(2.04944 -0.750066 -2.30653e-19)
(1.31991 -0.105739 -1.22177e-19)
(0.747943 -0.116368 -3.19495e-19)
(-1.88867 1.99908 -1.38322e-18)
(1.07903 -0.466862 -5.80663e-19)
(1.11177 -0.466985 4.85808e-19)
(2.54157 1.53053 -1.02097e-19)
(1.1438 -2.3837 -9.7204e-19)
(3.26497 -0.626126 5.54784e-19)
(1.99044 2.54871 5.40144e-19)
(1.90922 0.267324 1.97256e-19)
(0.856979 -0.420012 0)
(2.08371 -0.0432989 -5.895e-19)
(1.57055 0.602599 -3.32462e-19)
(1.39814 -0.263371 6.05718e-20)
(1.7065 -0.773691 3.83008e-19)
(2.53806 0.0280939 -1.12298e-20)
(2.05796 0.0802591 -5.32401e-20)
(2.7883 0.477546 0)
(2.09547 -0.231243 1.89238e-19)
(2.23284 -1.22108 0)
(2.83433 -0.0681401 4.44521e-19)
(1.60076 -0.730819 1.41755e-19)
(2.79623 -0.0917078 -1.30525e-18)
(2.00298 0.732699 0)
(2.36647 -1.22098 1.86137e-19)
(2.06532 0.037235 0)
(0.0239321 0.19284 -3.46918e-19)
(0.762104 -0.281674 -1.93183e-19)
(1.5938 -0.648517 -4.33784e-19)
(2.18222 -2.33013 -2.31593e-19)
(1.44568 -0.678021 -2.99563e-19)
(-0.202648 0.146812 1.23578e-18)
(1.93037 -0.403478 -4.08403e-19)
(2.30239 -0.417409 -1.89314e-19)
(0.543301 0.551773 -4.94157e-19)
(1.77999 -0.191821 -3.34719e-19)
(-2.69967 1.22289 -6.5694e-19)
(2.44416 -0.198121 -1.13177e-19)
(2.57168 -1.21811 -6.82958e-19)
(2.3153 -0.519799 0)
(-2.47888 1.52421 7.6708e-19)
(1.64466 -0.54411 -4.76001e-19)
(1.07736 -0.502676 1.70982e-20)
(1.50375 -0.61909 -2.82813e-19)
(2.22568 0.624016 1.3341e-19)
(1.80431 -0.733111 3.59279e-19)
(2.62396 -0.0498565 0)
(1.92382 0.00979126 0)
(1.68515 -0.289806 -2.08519e-19)
(3.3612 0.472825 -1.51767e-20)
(1.73796 -0.178907 4.66688e-19)
(0.217311 0.127629 0)
(1.71538 2.21286 0)
(3.42291 0.300362 -1.32126e-18)
(1.70439 -0.530903 5.83043e-19)
(-2.65824 1.30619 0)
(1.84199 -0.199963 0)
(2.70356 0.82401 4.32965e-19)
(1.48482 0.327809 0)
(1.86109 -0.41234 5.17477e-19)
(0.965839 -0.472693 7.71111e-19)
(-0.287633 1.06762 -3.31229e-19)
(1.08174 0.674977 0)
(1.44749 -0.217842 1.34819e-19)
(1.90378 -0.792932 0)
(1.75035 -0.249536 4.16192e-20)
(2.44794 -0.197134 1.25374e-20)
(0.588897 -0.164956 -7.91747e-19)
(3.79175 0.44875 5.30299e-19)
(3.46131 -0.511496 0)
(2.01792 0.024668 -4.58783e-21)
(1.66914 -0.525046 -8.61923e-20)
(-2.08095 2.10177 -2.08849e-18)
(1.67112 0.408603 6.28285e-21)
(2.42668 0.744656 -7.5624e-21)
(2.32211 0.025812 5.68227e-21)
(1.48373 0.00222791 2.13249e-19)
(0.734292 -0.288856 -1.38161e-19)
(2.74804 0.0813635 -1.99045e-20)
(1.15214 -0.525342 0)
(2.38277 -0.100922 0)
(1.23863 -0.599998 -3.94852e-19)
(1.97139 -0.158268 -1.702e-19)
(1.70209 0.379571 3.34251e-19)
(1.55855 -0.228747 -1.35806e-19)
(2.10434 0.0924312 -1.89182e-19)
(2.20686 -0.069414 -2.98739e-19)
(-0.0276855 0.216932 -3.18877e-19)
(1.79241 -0.253109 0)
(-2.25222 0.152184 -1.10188e-18)
(1.01039 -0.249872 1.45852e-19)
(2.01522 0.0519705 1.3696e-19)
(2.28968 -0.263287 -2.95779e-20)
(1.53066 -0.303006 0)
(2.36896 0.0951894 5.06144e-21)
(2.28314 -0.304148 1.50617e-19)
(0.338333 -0.187434 2.04357e-19)
(2.04053 -0.162665 0)
(0.339728 -0.0731944 0)
(1.97663 0.0373777 0)
(1.95349 -0.442387 0)
(1.72187 -0.671358 2.16894e-21)
(1.82418 0.465758 0)
(0.544113 -0.218466 -5.05028e-19)
(3.24918 0.470511 -8.29783e-19)
(2.00714 0.0291406 -2.63546e-21)
(2.65597 -0.0505344 -6.23402e-20)
(2.39705 -0.039849 0)
(1.4616 1.54515 -1.93278e-19)
(-1.04099 2.4017 -1.81735e-18)
(3.23408 0.0101325 0)
(1.85447 -0.00667797 3.38638e-19)
(1.97361 1.09243 -2.47213e-18)
(2.2556 0.656393 0)
(2.68375 0.0935755 0)
(1.01631 -0.225428 8.52489e-19)
(1.80587 0.51678 -4.36494e-19)
(2.29736 -0.125061 -1.9806e-19)
(1.0353 -0.491014 9.38083e-20)
(-2.21024 0.0364623 -6.87206e-19)
(-1.66595 0.201092 0)
(2.38538 -0.1189 5.43685e-20)
(2.17894 0.859134 -9.58682e-20)
(1.8132 -0.756872 3.69898e-19)
(-0.285404 -0.287434 5.33674e-19)
(-1.4897 2.33582 9.8662e-19)
(1.94251 0.0407381 -2.51648e-19)
(-1.09296 2.34439 1.65817e-18)
(1.9053 -2.22064 8.23932e-19)
(0.717657 -0.374497 -8.55173e-20)
(1.08836 -0.363474 -3.56778e-19)
(1.75862 0.026115 1.12424e-20)
(2.70258 0.813748 6.66627e-20)
(0.364314 -0.157425 8.25222e-19)
(-2.01909 1.3541 1.08863e-18)
(1.82651 -0.785405 0)
(2.05252 0.0384148 -1.56817e-21)
(-2.40028 0.953454 3.17062e-19)
(-0.175591 0.12145 -1.44774e-18)
(-1.82764 -0.601216 0)
(1.13571 -0.401503 0)
(1.81774 0.0153114 -3.12134e-20)
(-0.238167 1.14571 4.06187e-19)
(1.8457 0.0996812 -1.43985e-20)
(-0.178957 0.149639 -6.51931e-19)
(1.20314 -0.342963 0)
(1.08862 -0.419446 2.63807e-21)
(-0.250074 0.0805875 -1.62639e-20)
(0.855549 0.910249 -2.48848e-18)
(3.51836 -0.714304 0)
(2.2101 -0.678658 0)
(1.95334 -0.12383 0)
(-2.20069 2.01928 -7.85985e-19)
(2.64447 -0.186311 2.1663e-19)
(0.382245 -0.239495 -8.56142e-19)
(2.62553 -0.139864 -2.40714e-19)
(2.05777 -0.47608 -5.68074e-20)
(-0.58984 0.0528078 0)
(1.93576 0.0338612 0)
(2.9377 0.229196 1.02727e-19)
(2.47562 -0.15683 9.10983e-20)
(1.69386 -0.0126299 -2.72754e-19)
(-0.125124 2.11075 0)
(-0.956839 -0.712861 5.93105e-19)
(1.03221 -0.00773574 -2.50141e-19)
(2.45381 0.615843 1.54437e-20)
(1.92318 -0.591231 3.88105e-19)
(0.861368 -0.186204 -6.55128e-20)
(2.55256 0.124067 0)
(2.406 -0.202083 -1.00623e-19)
(2.0348 0.0572376 0)
(2.04212 0.034144 -1.55786e-19)
(2.81538 0.41674 -8.49347e-20)
(2.70867 0.0617726 1.25036e-19)
(1.535 -0.396754 5.57819e-19)
(1.90129 0.472422 2.42443e-19)
(-2.36119 1.04184 -5.17653e-19)
(1.73512 -0.702716 -2.2919e-19)
(2.53673 1.92913 -1.2555e-19)
(2.0872 0.00527953 0)
(1.7596 -0.420871 0)
(-1.91829 0.300821 0)
(2.25602 -0.252335 3.8501e-20)
(-0.480678 -0.297677 5.40223e-20)
(0.80776 -0.403325 4.58062e-19)
(1.8851 -0.0231684 -8.43338e-20)
(2.48218 -0.395236 -3.4975e-20)
(0.111972 0.106377 6.80947e-19)
(1.94503 2.36161 -4.24961e-20)
(2.37569 0.0744541 -6.75281e-21)
(2.23408 -0.147129 5.44288e-19)
(0.813346 -0.331032 0)
(2.69016 -0.236645 -8.2225e-20)
(-0.960675 -0.681593 -1.25283e-18)
(3.18199 0.0423288 -6.30704e-19)
(0.686964 -0.463978 -1.60026e-20)
(1.7128 -0.203306 1.74221e-20)
(1.29784 -0.394398 3.8829e-19)
(2.17314 0.889491 0)
(1.98595 0.101826 -9.85531e-20)
(0.995701 -0.389284 -8.33166e-19)
(1.49729 0.38847 4.32874e-20)
(1.2279 -0.59678 0)
(2.29453 -0.135394 -1.5888e-19)
(1.00037 -0.480966 2.60599e-19)
(2.25466 -0.674826 -9.76153e-20)
(1.65737 -0.693104 -3.25625e-19)
(2.30499 0.0797386 -5.72809e-20)
(2.34718 -0.342439 7.59954e-21)
(0.924513 -0.458885 5.03898e-19)
(2.10381 -0.0811826 2.29169e-19)
(1.78606 -0.377865 0)
(1.72927 -0.786128 -3.62141e-19)
(1.61377 -0.6902 -9.88534e-19)
(2.5929 -0.254908 2.54211e-20)
(1.965 0.0614416 4.11765e-20)
(1.62603 1.09739 0)
(1.5839 -0.215829 0)
(2.06602 -0.045358 -1.82156e-19)
(0.380349 0.28638 2.87054e-19)
(2.68578 1.43213 0)
(2.27885 -0.0744615 1.59768e-19)
(1.51313 -0.665022 -4.92845e-21)
(0.868414 0.381099 -6.17091e-19)
(0.809182 -0.33785 -4.46031e-19)
(-2.21967 2.00312 7.63731e-19)
(1.80008 -0.0409373 4.86717e-20)
(-2.40968 1.89573 2.94711e-18)
(3.37323 -0.497862 -5.92908e-19)
(2.15711 -0.00486956 0)
(1.35045 -0.0661305 -1.05679e-19)
(1.37324 -0.72385 0)
(1.95644 0.110364 -4.77783e-19)
(1.96548 -0.402742 0)
(2.05702 -0.0256865 -1.54395e-19)
(1.38876 -0.121762 3.98282e-20)
(2.69003 -0.159436 -5.63861e-20)
(1.06679 -0.396584 4.7077e-19)
(1.95763 0.0861172 -3.84052e-19)
(1.99314 0.220753 -4.37085e-19)
(1.93586 -0.823089 0)
(-0.807964 2.51688 0)
(1.14353 -0.437152 -4.63468e-19)
(2.68243 -0.169314 0)
(3.44303 0.808205 -8.30507e-19)
(1.60818 -0.322595 0)
(1.03004 -0.685726 -3.98799e-21)
(-2.12907 0.86168 6.74791e-19)
(1.68921 -0.554785 6.93365e-19)
(0.327402 -0.169206 -3.18618e-20)
(2.29966 -0.491561 0)
(1.36346 -0.116924 -3.57221e-20)
(1.76823 0.00730444 -2.40751e-19)
(-1.56695 0.582555 -6.43597e-20)
(1.93848 0.0320855 -2.1612e-19)
(2.75221 0.0326103 -8.47249e-20)
(2.63553 -0.0876255 -3.48851e-20)
(3.0819 1.11933 3.04419e-19)
(2.51759 0.479315 -4.09736e-20)
(-1.29573 2.46661 -4.40016e-19)
(1.62034 -0.488009 0)
(-0.356329 0.179331 5.45864e-20)
(1.97524 0.126036 -1.71248e-19)
(2.50114 -0.258244 0)
(1.97721 0.0401702 1.4391e-19)
(1.09546 -0.528993 -3.35052e-19)
(1.6349 1.3295 1.69155e-19)
(3.54785 0.394335 0)
(1.32981 -0.634137 1.22654e-19)
(-0.37614 -0.124498 0)
(2.2259 0.0548743 4.23384e-20)
(2.50784 -0.328532 -1.95595e-19)
(0.154252 0.529671 1.21099e-18)
(1.00003 -0.0381035 0)
(1.53068 0.291603 2.35076e-19)
(2.00736 0.064237 1.5396e-19)
(-0.179557 -0.0831116 0)
(1.65406 0.0272518 0)
(2.03285 -0.165223 0)
(-1.15684 0.568229 1.14705e-18)
(0.211586 -0.0381013 -3.71912e-20)
(2.85451 -0.0872379 0)
(2.00727 0.0174014 0)
(1.50842 -1.10757 1.15755e-19)
(-0.147732 0.522786 0)
(2.3691 0.524629 1.8328e-20)
(2.83337 1.33111 1.62473e-19)
(2.02615 0.531848 -2.74692e-21)
(1.84408 0.427664 -5.63296e-21)
(0.871598 0.47446 7.09695e-19)
(2.84888 1.51642 -1.72772e-19)
(2.34549 -0.240879 6.97159e-21)
(2.0956 -0.0351689 1.56212e-19)
(1.57095 -0.148834 -2.55776e-19)
(1.419 -0.195594 2.34053e-21)
(2.02483 0.0306471 0)
(-2.41153 1.84903 -2.83156e-18)
(0.891957 -0.215091 0)
(0.413576 -0.772486 2.89857e-20)
(1.9908 -1.14604 0)
(2.18303 -0.144283 0)
(1.23335 -0.588571 -2.7147e-19)
(2.14152 0.0409411 -3.52985e-21)
(-0.261324 0.210686 -1.29659e-18)
(2.05839 0.0117898 5.88223e-21)
(1.74166 -0.676612 3.69865e-19)
(2.99681 1.24402 1.91081e-19)
(0.578224 -0.476999 1.18243e-18)
(2.60151 0.126226 1.01523e-20)
(2.0209 -0.797416 1.33074e-19)
(1.95857 0.0606651 -2.72574e-19)
(1.44026 0.527225 0)
(1.75799 -0.135913 -4.84986e-19)
(1.73714 -0.455925 3.85794e-19)
(1.99556 0.126458 -6.07544e-19)
(-1.41519 0.445492 -2.94848e-19)
(1.55968 1.34216 -1.51684e-19)
(2.7757 1.40137 2.44114e-19)
(3.45356 -0.148374 0)
(2.22839 -0.318999 0)
(0.0840218 0.200419 -4.90774e-19)
(2.06869 -0.0809357 9.9133e-20)
(-1.79499 0.178242 0)
(2.26782 -0.136649 -1.3758e-19)
(2.00758 0.0288973 -3.18663e-19)
(-1.3932 0.215157 -1.88367e-19)
(-1.67727 -0.121788 1.04885e-18)
(2.60285 -0.130334 -3.80185e-21)
(0.206169 1.50642 -4.79279e-20)
(2.32515 -0.344151 -2.87066e-19)
(1.89124 -0.421524 2.67571e-19)
(3.39272 1.18856 7.16992e-19)
(1.468 -0.608263 3.59317e-19)
(1.63377 0.375496 1.78197e-21)
(0.952196 0.311891 5.17437e-19)
(2.04171 2.05072 0)
(1.62259 -0.461257 2.25635e-19)
(-2.49685 0.435484 0)
(0.552985 -0.220837 -2.19981e-18)
(1.79585 1.03005 0)
(-2.23604 0.996132 -1.89643e-18)
(1.55775 -0.66954 -5.01112e-19)
(1.06234 0.627053 -2.34458e-19)
(2.00528 -0.811356 0)
(-0.307776 -1.19425 0)
(3.23785 -0.0610749 0)
(1.9842 0.101637 1.24606e-19)
(0.35689 0.0691708 -7.74389e-19)
(-0.162257 0.392357 9.66723e-19)
(1.51646 -0.282691 -7.97062e-21)
(3.35644 1.23225 -8.20354e-19)
(2.01177 0.26356 0)
(1.17875 2.06376 2.62489e-19)
(2.44538 1.41371 9.03599e-20)
(-0.726323 -0.43212 -2.3703e-19)
(1.48072 -0.688858 3.02431e-19)
(2.53047 -0.16612 4.62782e-21)
(1.10644 -0.538349 5.57436e-19)
(2.26535 0.497198 0)
(2.4998 -0.293407 1.87021e-19)
(0.718185 -0.321699 9.80159e-20)
(1.98559 -0.0210078 2.6593e-20)
(3.49997 0.944225 -4.46136e-19)
(2.1326 -1.16977 0)
(2.5005 0.814468 0)
(1.86773 0.398113 0)
(0.931254 -0.300494 0)
(1.87501 0.00119795 0)
(1.36522 -0.505767 1.55348e-19)
(3.75881 1.14696 6.75481e-19)
(1.39492 -0.581032 4.28603e-19)
(2.10067 0.0609458 2.55958e-19)
(-2.6109 0.589746 0)
(1.98676 -0.820977 3.08382e-21)
(-0.322414 0.363247 0)
(-2.36391 0.297975 -1.26825e-18)
(-0.304957 0.237998 5.33949e-19)
(3.7013 0.734337 -3.77814e-19)
(1.97859 0.117713 3.04116e-19)
(2.03496 0.259764 -9.62322e-20)
(3.47193 0.511125 -3.94716e-19)
(2.56106 -0.000597839 0)
(0.656877 -0.227619 9.76566e-19)
(1.9939 0.0363128 0)
(1.50949 0.949361 1.70913e-20)
(2.47416 -0.161406 0)
(2.13284 0.234355 -1.24693e-19)
(2.07493 -0.0736329 0)
(0.847968 -0.306938 -3.14926e-19)
(-0.836543 0.915194 1.59766e-18)
(2.4172 -0.238666 -1.72577e-19)
(1.31152 0.438059 4.7048e-19)
(-1.69933 0.911888 -2.37978e-18)
(2.42782 -1.01447 0)
(0.98704 -0.194474 -1.20642e-18)
(1.28581 0.0890043 -2.42909e-20)
(3.46783 0.420352 -1.04358e-18)
(1.80119 0.0058318 3.25856e-21)
(3.88924 0.390913 2.06524e-18)
(2.71128 0.945978 0)
(1.69394 -0.75909 -7.86725e-20)
(1.41566 -0.641324 0)
(2.50298 -0.239748 1.38406e-20)
(0.390392 -0.0965326 7.71396e-20)
(-2.48087 1.21094 0)
(2.41024 0.502701 0)
(1.4668 -2.38716 -7.55323e-19)
(2.43732 0.795184 0)
(1.71792 1.87131 1.28756e-19)
(2.89741 1.07412 -3.02343e-19)
(0.476846 -0.164337 -7.22604e-19)
(-1.55643 -0.0154115 -3.76884e-19)
(1.99021 0.0316348 -6.96622e-21)
(-0.194896 -0.22501 -8.11215e-21)
(-0.00819948 0.119217 -9.99012e-19)
(1.87524 0.0176243 5.19766e-19)
(-1.46564 0.266494 2.14822e-19)
(-1.99336 0.858136 0)
(2.45701 0.179173 -8.47778e-20)
(0.665151 -2.23682 9.34405e-19)
(0.330454 0.260019 8.35572e-20)
(3.49765 0.568365 8.75973e-19)
(2.77758 1.75363 0)
(1.73198 -0.485681 -3.87736e-19)
(1.8468 -0.294008 -1.39373e-21)
(1.90597 0.817835 -8.46933e-20)
(2.82452 -0.0547009 -4.41128e-19)
(-1.57344 -0.51815 3.01823e-19)
(-1.98579 1.82828 1.83577e-18)
(1.41184 -0.569749 -1.03506e-19)
(-1.81483 -0.0283843 5.93718e-20)
(2.84776 -0.158369 -4.34443e-19)
(-1.7068 -0.462931 -3.38756e-19)
(2.2343 -0.984299 0)
(1.89976 -0.168199 -4.69024e-19)
(-1.19079 -0.674936 0)
(-0.404659 -0.445523 -1.42427e-19)
(-0.618971 -0.566197 2.55684e-19)
(-0.55859 -0.364931 8.01817e-19)
(1.34158 0.303032 1.41753e-20)
(-2.18397 1.28226 1.39245e-19)
(-0.911569 -0.253346 0)
(2.12828 -0.764985 3.45275e-19)
(2.10802 -0.811534 7.7273e-20)
(-1.1425 -0.404375 -7.07374e-19)
(1.78772 0.554054 0)
(1.65669 0.533403 0)
(0.152019 0.386071 0)
(1.24877 -1.41686 -7.25538e-20)
(1.89379 -0.0325016 -4.61773e-19)
(1.25685 0.206261 0)
(2.68769 -2.24846 0)
(2.28364 0.207103 -1.42198e-20)
(2.36184 -0.468757 -1.18499e-19)
(2.14143 0.350652 -3.73419e-19)
(1.69969 -0.297138 -8.68271e-20)
(1.69185 0.0454611 5.37887e-20)
(1.94183 -0.020869 -6.05015e-20)
(1.27987 0.0135154 9.57397e-20)
(1.93533 0.554227 -2.92604e-20)
(1.87213 1.27585 0)
(-0.155295 0.230474 -1.65828e-20)
(0.0856673 -0.27027 0)
(0.978607 0.188572 0)
(2.99077 0.41049 -4.95845e-19)
(-2.70464 1.055 0)
(2.5201 0.475897 0)
(1.88993 -0.119177 7.22596e-19)
(1.80659 -0.789766 0)
(2.04095 0.280737 4.45782e-19)
(3.40287 0.744869 4.43921e-19)
(3.21472 0.835961 1.55354e-19)
(1.54582 0.427942 -3.63874e-21)
(1.07731 1.4234 2.7419e-19)
(2.14416 -0.804017 3.8103e-21)
(1.93345 -0.753343 -4.93882e-21)
(1.12165 -0.417145 4.53268e-19)
(-0.649706 -0.0309845 0)
(0.917247 -0.451298 0)
(-2.75718 1.5408 -1.93356e-18)
(-0.918023 1.07631 -2.16817e-18)
(-0.170779 -1.13468 0)
(-0.895186 -0.00134269 2.43106e-19)
(0.196982 -0.0623027 0)
(0.370535 -0.411207 1.053e-18)
(1.07735 -0.492411 -5.86844e-19)
(3.42368 0.601308 -1.99576e-20)
(3.18392 0.966724 3.47256e-19)
(1.18293 -0.385782 9.15933e-20)
(2.77506 -0.117688 2.06303e-19)
(2.29798 1.01455 0)
(2.37589 0.964257 0)
(1.02792 0.0579095 0)
(-0.476036 -0.122019 -5.0202e-19)
(1.3626 -0.511378 0)
(2.27528 0.781245 0)
(1.70527 0.0388845 0)
(2.34826 -0.357446 -6.2541e-20)
(0.824225 -0.0807713 3.19856e-19)
(1.96519 -0.744285 -1.95941e-19)
(1.05092 -1.4558 2.28665e-19)
(1.59554 -0.306145 0)
(-2.14427 1.34501 0)
(1.92265 -0.555835 -3.53953e-19)
(1.53944 0.612671 7.08894e-19)
(-2.34356 1.54474 -9.83175e-19)
(2.92062 0.099705 1.39626e-20)
(1.65241 -0.440053 4.12931e-19)
(0.948961 0.500721 -1.1207e-18)
(-0.867876 1.13864 0)
(1.18222 1.39203 -6.36134e-19)
(0.331441 0.427253 -6.91187e-19)
(3.22583 0.684766 0)
(2.19556 -0.0750949 0)
(1.95467 -0.0718453 0)
(2.02792 0.0483831 -4.62932e-19)
(1.36169 0.323336 -4.82007e-19)
(1.62425 0.164418 0)
(2.50103 1.3828 1.34923e-18)
(1.72862 -0.770917 3.6928e-19)
(2.39209 -0.347462 7.35187e-20)
(-2.57014 1.16475 7.72089e-19)
(2.05578 -0.248959 0)
(2.53133 0.100056 5.00996e-20)
(1.70286 -0.407959 0)
(0.296022 -2.14872 -9.31133e-19)
(1.67015 -0.756449 0)
(2.07259 -0.731153 4.25986e-19)
(1.59082 -0.233542 -2.3656e-23)
(2.12706 0.463346 4.91249e-21)
(2.41397 -0.363592 0)
(1.75334 -0.746977 0)
(1.53628 -0.660164 -5.24783e-19)
(2.30452 0.451866 -2.02493e-20)
(-2.13978 -0.165159 6.24362e-19)
(0.823777 -0.390478 4.60867e-19)
(1.86326 -0.0617253 0)
(1.55419 0.228353 -7.31307e-19)
(2.40756 0.0186097 -5.43815e-20)
(1.36051 -1.63296 -1.09942e-19)
(2.10415 0.66063 1.51781e-20)
(2.27709 0.785059 0)
(1.16161 -0.328052 6.45215e-19)
(0.928905 0.23496 -7.10587e-19)
(3.5417 0.914551 1e-20)
(1.79776 0.265829 -8.37818e-19)
(-2.46047 1.07364 6.49968e-19)
(-0.185623 0.121613 -1.9321e-18)
(1.6389 -0.190046 1.94899e-20)
(2.08322 -0.01294 -4.15993e-20)
(0.551958 0.362841 1.07006e-18)
(-0.262514 0.197665 -2.93096e-22)
(-2.56445 1.01795 1.22303e-18)
(-2.33778 -0.0533948 1.34131e-18)
(1.77488 -0.0846157 7.30186e-20)
(2.37276 -0.207608 0)
(0.806026 0.258045 8.31783e-19)
(1.10907 -0.539633 2.5139e-19)
(1.63406 -0.246111 2.50936e-19)
(-0.26049 0.300866 0)
(1.55709 -0.35862 -6.67518e-20)
(1.89638 0.0789969 -7.29223e-23)
(2.04619 0.0354806 0)
(0.206838 0.0819498 6.66003e-19)
(-0.907901 -1.55803 4.33673e-19)
(1.62705 -0.283207 0)
(0.996077 -0.358187 0)
(1.50964 -1.26761 -1.12002e-19)
(1.45929 -2.03371 -7.10367e-20)
(2.95427 0.376415 1.77481e-19)
(-0.327614 0.0550646 0)
(1.90744 -0.00886563 -4.05234e-19)
(2.70993 -1.02439 -1.95697e-19)
(2.14207 -0.702728 2.37301e-20)
(1.17449 -0.438679 5.69174e-19)
(-2.66469 1.03579 -1.12523e-18)
(-2.43073 0.642735 9.17794e-19)
(3.77283 0.865109 -8.66255e-21)
(3.27973 -0.832253 0)
(2.02455 0.944819 -1.04625e-18)
(1.52869 -0.611821 2.6323e-19)
(2.03104 2.10345 1.57481e-19)
(0.789523 0.653568 0)
(1.12823 -0.210411 -5.70831e-19)
(1.17201 -0.483632 -6.90651e-19)
(-2.71605 1.48379 1.36824e-18)
(0.862318 -0.116613 -1.03666e-18)
(2.16969 1.49181 0)
(-0.198734 0.429946 -6.10078e-19)
(2.29807 0.652006 0)
(-0.58293 -0.456492 -7.79477e-19)
(-0.167604 0.557099 1.34637e-18)
(-0.66214 1.88811 0)
(-2.68329 1.10497 5.14705e-19)
(1.60536 -0.0953129 -1.04474e-19)
(0.757026 -0.171648 4.02975e-19)
(1.62197 -0.64146 4.74938e-19)
(-2.7351 1.68385 -3.14754e-18)
(1.14471 -0.516015 0)
(2.01195 0.0411317 1.49753e-19)
(0.595941 -0.0628284 0)
(2.25536 0.247456 -3.96783e-21)
(-0.697623 0.0661766 -1.13906e-18)
(0.503977 -0.185665 3.01331e-19)
(2.36143 0.777249 0)
(1.83561 -0.727568 -3.519e-19)
(3.13945 0.0796725 1.71998e-19)
(-2.51733 0.971569 2.25649e-18)
(-0.263535 -2.09339 0)
(-2.43374 0.791296 -2.01268e-18)
(3.27827 0.831247 -1.02864e-18)
(1.59052 0.22969 9.37027e-19)
(2.25705 -0.784758 0)
(2.57037 -0.227591 4.32093e-19)
(-0.868852 -0.0120438 1.01216e-18)
(0.646511 -0.163476 -1.40661e-19)
(2.16265 -0.539754 1.33141e-19)
(-2.33043 0.853468 0)
(1.9367 -0.547544 -5.85973e-20)
(1.83968 0.318004 -1.8335e-22)
(2.4744 -0.36292 1.19563e-19)
(2.34535 0.0282455 0)
(-2.10614 1.55646 1.11512e-18)
(1.59293 -0.435595 1.29758e-22)
(1.24513 -0.355894 7.0675e-20)
(1.49302 0.555948 0)
(1.99451 -0.762588 -1.51665e-19)
(-2.65692 1.5166 2.37312e-18)
(1.663 -0.399158 -5.16783e-19)
(-0.244047 0.171083 0)
(1.41531 -0.286211 -5.29e-20)
(2.01975 -0.738375 1.25148e-19)
(-2.59571 1.05992 -1.28521e-18)
(1.47187 -0.29812 0)
(0.439614 -0.156885 1.4467e-18)
(1.64373 -1.44169 0)
(-1.85675 2.01403 1.56049e-18)
(1.85797 -2.29522 0)
(1.85285 -0.11557 -2.67135e-19)
(2.17384 -0.212173 -2.63427e-19)
(2.70937 1.35764 -6.75871e-19)
(1.43794 -0.990026 0)
(1.94296 -0.823596 -2.33981e-19)
(2.0024 0.0185885 0)
(2.38146 0.471844 0)
(2.04227 -0.828425 6.14946e-20)
(-2.05481 1.69791 1.08137e-18)
(0.509258 -0.0240129 1.8942e-19)
(2.08858 -0.526086 -8.09682e-20)
(1.67273 0.359821 3.08421e-19)
(-0.23467 -0.289618 -5.27119e-20)
(2.07128 0.325343 1.72803e-19)
(-0.687895 1.05213 -1.55404e-19)
(2.07632 0.871879 0)
(2.51213 0.293087 0)
(-1.26991 1.3761 0)
(-1.22901 -0.890414 1.16463e-18)
(1.14794 -0.383011 -4.00353e-19)
(1.46288 0.130992 0)
(-1.92368 0.609764 1.29318e-18)
(2.30831 -0.143963 -1.82835e-19)
(-2.26681 0.774851 -6.1484e-19)
(1.35163 -0.479133 -1.29406e-19)
(2.11958 -0.827778 0)
(0.443693 -0.177949 1.23887e-18)
(0.334125 -0.0718177 -1.4975e-18)
(-0.362919 1.54853 0)
(-0.399502 0.318617 -8.12943e-19)
(1.7279 0.033636 -1.22944e-20)
(2.73573 -0.148463 9.42385e-20)
(1.9071 0.0666326 2.76825e-19)
(2.74273 1.18135 -3.13621e-19)
(2.45776 0.223723 5.43369e-21)
(-1.39935 -0.689074 0)
(1.89317 -0.735563 0)
(-1.76157 0.701302 1.16394e-18)
(0.416983 -0.188156 0)
(1.55817 -0.317225 -6.76371e-20)
(2.11511 -0.737625 -2.19477e-19)
(0.945999 -0.437349 4.82497e-19)
(2.30246 -0.231128 -1.53929e-19)
(1.71611 0.40822 -3.06763e-19)
(1.49095 -0.599999 -2.59573e-19)
(1.57448 -0.628193 -4.79022e-19)
(1.3999 -1.9057 0)
(1.67304 -0.649361 4.51527e-19)
(2.06504 -0.055018 0)
(2.46027 -0.383596 -4.80059e-21)
(1.99968 1.35405 2.08432e-20)
(0.964984 -0.249727 6.3195e-20)
(2.20575 -0.345934 -2.20092e-19)
(0.608716 -0.363829 -8.67136e-19)
(-0.123713 0.311627 0)
(1.04547 -2.63483 -4.24319e-19)
(-0.26611 1.3947 -1.97215e-18)
(2.09005 0.548553 -1.91692e-19)
(1.78106 -0.711072 4.13442e-19)
(2.1058 0.0119733 -5.26896e-21)
(0.85895 -0.0849328 3.60418e-19)
(1.78278 -0.739372 -6.75425e-20)
(0.281796 0.155965 0)
(-2.21953 0.697865 1.77514e-18)
(1.71765 -0.365649 2.73911e-19)
(2.06586 0.043731 -9.96177e-23)
(1.14048 -0.486448 1.01369e-18)
(-0.815794 -0.425864 2.26193e-20)
(1.68192 0.640798 0)
(-1.18622 -0.776359 -4.31647e-19)
(-2.21225 1.34879 -1.56291e-19)
(1.06543 -0.31264 -7.66584e-19)
(-0.928614 -0.943823 4.48893e-19)
(2.38465 1.03679 -2.91136e-19)
(2.122 0.444845 5.42926e-21)
(0.906105 -0.354297 3.47143e-19)
(1.76153 -0.367646 0)
(2.59146 0.204938 -1.49265e-19)
(2.47679 -0.0638544 -6.53154e-21)
(3.02669 0.992085 -3.45292e-19)
(-1.20895 -0.708943 0)
(3.57123 1.17457 2.27699e-20)
(-0.128213 -0.268017 7.47061e-19)
(1.57023 -0.682486 1.01297e-18)
(-0.0893451 -0.49403 1.35362e-20)
(-0.497522 0.676152 -4.30487e-19)
(0.462749 -0.215539 2.39815e-18)
(1.95013 -0.724319 4.04171e-19)
(2.19452 0.0353505 -3.56225e-21)
(-0.0556025 -0.307512 -5.68115e-21)
(2.86475 0.00238978 4.81857e-20)
(0.263038 0.505785 0)
(2.0285 0.0304671 0)
(2.37631 0.591444 0)
(1.72168 -0.661023 -3.91187e-19)
(2.334 -2.38843 6.79152e-19)
(-1.20967 -0.349568 0)
(1.2095 -0.354149 -1.65712e-19)
(-0.779242 2.31583 0)
(3.75249 0.422483 0)
(-1.45751 -0.566274 0)
(1.97388 -0.00151367 0)
(0.398354 -0.143718 -4.48041e-19)
(-0.395586 0.823035 0)
(3.7128 0.189611 1.54061e-18)
(1.33212 0.0142854 0)
(1.75714 0.280251 0)
(1.92752 0.259964 2.92283e-21)
(-0.730527 0.931354 0)
(3.59231 -1.38164 0)
(-0.868266 -0.201599 0)
(2.59861 0.0246177 1.21761e-20)
(1.64821 -0.0572156 0)
(2.13618 -0.81089 -7.62909e-21)
(1.42971 -0.303742 2.54692e-21)
(0.348871 -0.215361 -4.19265e-19)
(1.97443 0.0641997 6.78229e-19)
(-0.183814 0.0351133 -6.77344e-20)
(1.05531 0.95528 -5.99419e-19)
(1.44687 0.774985 0)
(2.3525 -0.34347 6.83544e-21)
(1.61734 -0.188445 -2.45005e-19)
(1.56244 1.74985 1.55577e-19)
(1.82377 0.417645 4.39999e-19)
(0.728121 -0.245001 -7.30741e-19)
(1.47295 -0.649643 -4.00212e-19)
(2.92641 0.430266 2.23761e-19)
(0.509217 -2.43266 0)
(2.32685 -0.407072 -1.07054e-20)
(1.03037 -2.19364 4.99655e-19)
(2.69866 0.323816 -7.99394e-20)
(-2.56839 1.71587 0)
(1.86224 0.0290198 -3.08466e-19)
(2.73679 0.99832 -1.08937e-18)
(1.32223 -0.523451 5.22309e-19)
(1.20159 -0.539214 -6.32051e-19)
(1.61132 -0.74347 0)
(1.71849 -0.754725 0)
(3.57724 -0.285122 1.76601e-18)
(2.26067 -0.347419 -1.35822e-19)
(3.38733 0.488964 -5.67932e-19)
(1.74816 -0.0325198 4.14151e-20)
(1.19016 -0.323458 -1.54056e-19)
(1.64583 -0.497246 4.35505e-19)
(2.51335 0.318122 0)
(2.42717 0.314669 1.18334e-20)
(0.39476 -0.238038 -1.84579e-18)
(2.69028 -1.82881 2.60324e-18)
(1.15234 -0.173332 -6.09749e-20)
(-0.791629 0.0276642 6.79132e-19)
(3.25536 0.510867 4.74268e-19)
(2.51604 0.769274 5.7317e-20)
(2.38052 0.701553 0)
(-1.86223 -0.39537 0)
(2.18739 -0.808815 -1.22797e-21)
(1.13852 -0.237255 0)
(1.83178 -0.384296 1.81359e-19)
(1.62368 0.295294 5.32627e-19)
(1.64275 0.497402 -1.57828e-19)
(1.54517 -0.633152 1.03835e-18)
(1.82134 0.364247 2.72842e-22)
(1.4155 0.0131397 0)
(1.82505 -0.0854149 -8.69441e-21)
(-0.960368 -0.17667 -9.24242e-19)
(2.17332 0.262506 0)
(2.52423 -0.38724 0)
(1.86609 -0.746374 1.49781e-19)
(1.95948 0.582863 2.45041e-19)
(1.06406 -0.144804 0)
(3.67242 -0.862566 1.00027e-19)
(2.80884 -0.0126633 1.96412e-19)
(2.32551 0.353554 3.62762e-20)
(1.71872 0.505346 4.6587e-19)
(-1.62132 -0.0976331 -5.81418e-19)
(1.26863 -0.79659 0)
(0.338948 -0.500988 -2.10844e-18)
(0.475953 -0.20039 1.09137e-18)
(1.96124 0.00651931 1.70548e-20)
(0.0619953 -0.395556 -8.97661e-19)
(1.75333 -0.72373 2.93284e-20)
(2.65025 0.386002 2.0924e-19)
(1.70917 0.502613 0)
(1.97072 0.199717 3.03764e-21)
(1.81248 0.0315569 9.5462e-20)
(2.09138 -0.0284644 -1.59439e-19)
(2.18777 0.492802 -1.47849e-19)
(2.16924 -0.766672 0)
(-1.43695 0.0498345 0)
(2.58034 0.0111643 0)
(2.26692 0.441811 -7.91256e-20)
(1.0187 -0.468694 7.56393e-19)
(2.38991 1.84395 -8.04616e-20)
(1.47454 -0.0623462 0)
(-1.62932 1.55024 -4.20372e-19)
(-1.49726 -0.821386 6.5498e-19)
(-1.56953 2.41532 0)
(1.95085 0.280705 -1.42163e-19)
(1.63071 0.28021 -1.77028e-19)
(3.24722 -0.0885783 -1.14417e-19)
(2.03608 0.571903 1.39326e-20)
(0.625829 -0.205867 0)
(2.16485 0.19251 -1.8344e-19)
(2.00445 -0.391723 0)
(2.0456 -0.246148 1.01119e-20)
(0.962566 0.0989547 0)
(2.23286 0.905337 1.07098e-19)
(1.64245 -0.660009 -4.61658e-19)
(2.38252 0.878902 0)
(1.80554 -0.0825823 -4.67406e-19)
(2.1506 0.709871 -3.86032e-20)
(1.88937 -0.647129 0)
(1.11285 -0.526685 0)
(0.478553 0.223489 -9.27521e-20)
(2.46767 -0.233304 -1.28792e-20)
(0.397203 -2.4903 -4.95138e-19)
(-0.0966907 -0.13049 -6.19524e-21)
(2.75487 -0.10873 -9.43746e-22)
(1.26566 0.305193 7.76912e-19)
(1.73592 0.421547 -1.99538e-21)
(2.05127 0.545479 0)
(3.36669 0.988577 4.78313e-19)
(1.65999 -0.755273 0)