/*--------------------------------*- C++ -*----------------------------------*\
| =========                 |                                                 |
| \\      /  F ield         | OpenFOAM: The Open Source CFD Toolbox           |
|  \\    /   O peration     | Version:  2306                                  |
|   \\  /    A nd           | Website:  www.openfoam.com                      |
|    \\/     M anipulation  |                                                 |
\*---------------------------------------------------------------------------*/
FoamFile
{
    version     2.0;
    format      ascii;
    arch        "LSB;label=32;scalar=64";
    class       volVectorField;
    location    "6.2";
    object      U;
}
// * * * * * * * * * * * * * * * * * * * * * * * * * * * * * * * * * * * * * //

dimensions      [0 1 -1 0 0 0 0];

internalField   nonuniform List<vector> 
13486
(
(4.35958 -0.662604 1.08551e-20)
(5.04429 0.818773 5.14295e-21)
(7.11677 0.0566558 0)
(-6.98436 3.18395 -2.45619e-20)
(6.90397 -1.49345 3.49266e-21)
(7.20461 0.423564 9.01752e-24)
(7.35014 -0.879165 -1.20964e-22)
(5.96041 -2.15338 -5.53906e-21)
(5.76111 -1.18016 0)
(5.92695 2.08337 0)
(-1.64095 5.26194 -1.54973e-20)
(7.69414 -0.102113 0)
(3.96014 -1.27457 -1.07864e-20)
(7.23649 2.09466 -6.70654e-23)
(7.04234 -1.05316 2.51914e-21)
(5.83771 2.17566 -3.60376e-21)
(1.75264 -1.00478 1.25476e-20)
(3.61273 -3.85511 1.38441e-21)
(6.91397 -0.0382679 5.35351e-23)
(4.86499 -0.177311 -1.09408e-20)
(-5.24725 0.465868 -8.85836e-21)
(4.00717 -1.30458 1.38959e-20)
(5.11375 0.813263 -4.1199e-21)
(9.29989 -2.58022 0)
(6.16275 1.69411 1.18386e-21)
(8.81722 -2.41545 -3.77977e-21)
(2.11932 -1.03247 1.75943e-20)
(7.35758 -0.520881 6.15836e-21)
(5.78695 -0.687419 0)
(7.04642 -1.49868 -4.2437e-21)
(-0.761885 -3.40513 -4.71113e-21)
(7.29595 -1.2974 -4.35745e-21)
(8.79063 -0.67889 6.73687e-21)
(6.08327 -0.32391 0)
(5.98868 -2.07194 0)
(4.01924 0.249157 1.06512e-21)
(1.2963 -0.393826 -7.36593e-20)
(4.7601 -2.2256 5.55164e-21)
(3.22633 4.00915 -5.75209e-22)
(5.84451 -0.712096 5.53861e-21)
(7.52414 -2.41173 0)
(3.33041 -1.60264 -1.27475e-20)
(7.20222 -0.063453 0)
(6.14827 1.44746 -5.74907e-21)
(6.17583 1.44687 2.33722e-21)
(7.71574 -0.101117 1.4712e-21)
(-1.63098 1.48969 2.16485e-20)
(5.85326 -0.655266 -5.12285e-23)
(5.02361 -2.29809 5.69292e-20)
(7.75452 -0.045189 2.85847e-21)
(5.97646 0.0873747 6.4253e-21)
(4.40793 2.2672 0)
(8.04433 -0.187182 -1.49872e-21)
(4.92882 -1.8059 -8.06963e-21)
(4.19367 -3.9857 0)
(6.84201 -1.54308 -2.33557e-21)
(4.72185 0.217869 -1.71757e-21)
(5.04232 2.52937 2.29538e-21)
(8.88477 -0.629896 7.84659e-21)
(-1.59626 2.47407 0)
(-0.50779 5.25539 -2.04077e-20)
(-0.0996701 3.59392 0)
(10.5603 0.809877 -8.12114e-21)
(-5.04036 0.501099 -9.29251e-23)
(7.55937 -7.37361 0)
(-0.336816 -0.0700401 -3.15129e-20)
(-8.14946 3.52914 -2.58543e-20)
(4.34064 0.124345 3.63802e-21)
(5.76621 -1.2478 -3.13098e-21)
(9.36264 -1.41642 -1.52306e-21)
(-7.43495 3.41084 2.98527e-20)
(3.52158 -3.81052 -1.6645e-23)
(5.83029 -0.346652 4.13278e-21)
(-1.18584 0.11109 -9.35439e-21)
(-0.646253 -0.784744 -4.54845e-21)
(4.7962 0.204788 3.96825e-22)
(-0.742583 -0.945549 1.11884e-20)
(7.05231 -1.0675 -9.77885e-22)
(-1.72585 1.67768 -1.13878e-20)
(4.39263 -3.5918 0)
(5.23094 0.277739 -3.68469e-22)
(4.91025 1.10494 -3.31741e-22)
(11.4571 0.760749 -1.51949e-22)
(8.04759 0.295845 -4.27197e-22)
(4.34577 -0.696503 -2.11414e-20)
(4.39105 4.85038 0)
(7.02726 -5.9827 -1.41174e-20)
(5.98791 0.134859 -9.81171e-21)
(5.58858 0.601123 -4.30056e-21)
(5.38836 2.87503 -4.19915e-21)
(8.4271 -1.51237 -2.3996e-21)
(6.31764 -1.83761 -2.8861e-21)
(4.53067 -0.980287 2.77917e-21)
(4.99091 0.245198 2.84519e-22)
(5.51767 -1.7135 1.27185e-21)
(6.01819 -0.495716 6.21623e-24)
(2.00242 -0.998467 0)
(-8.11796 3.37175 1.64634e-20)
(5.86122 -0.695247 -1.05816e-20)
(1.31398 -0.866489 -1.62783e-22)
(4.39317 0.195076 0)
(7.15404 2.09981 -8.13263e-23)
(-7.36985 2.68688 9.20586e-22)
(3.38549 2.45945 -2.8678e-21)
(4.00323 4.64512 0)
(0.856619 -0.600726 -8.89509e-23)
(5.87981 0.152126 1.81443e-23)
(2.84599 3.32833 -2.076e-21)
(-1.77258 1.49804 1.45981e-20)
(5.99008 -2.72728 0)
(4.76371 -2.24669 0)
(6.70265 -1.28615 -5.6399e-21)
(4.95593 -1.75418 7.12762e-23)
(5.59793 -0.328332 1.36347e-22)
(3.33083 -0.218712 0)
(4.66362 -2.2273 -4.75333e-21)
(6.0897 1.80489 0)
(6.13727 -0.376502 0)
(5.81203 -0.327871 0)
(7.36113 -6.57784 -2.90803e-20)
(4.37522 -3.73953 -2.70179e-22)
(-1.58887 5.68293 0)
(5.42279 -1.55468 0)
(2.40561 3.05962 1.55097e-21)
(5.6569 -2.00375 0)
(5.38958 2.06523 0)
(6.51358 -0.830559 1.24958e-22)
(6.45663 0.267696 2.32121e-21)
(5.34419 -0.0901566 -5.63924e-23)
(6.87689 -6.05753 -5.50357e-21)
(4.63032 2.10482 4.87931e-22)
(-1.57547 1.32856 -5.537e-21)
(0.506479 1.57161 1.49579e-20)
(-0.590953 0.189648 1.35886e-20)
(5.98699 0.0422529 -1.04945e-21)
(5.68749 1.24883 -4.92771e-21)
(2.51358 1.95392 -3.08683e-21)
(5.95894 -2.68311 0)
(9.98291 -7.12397 7.03374e-21)
(6.01492 -1.746 -1.99924e-21)
(8.47686 -0.23124 -6.687e-21)
(8.22357 -0.280074 1.23137e-21)
(7.72834 -0.81309 0)
(4.08204 -3.37844 0)
(7.02424 -0.107334 5.09676e-22)
(12.5151 -0.496859 -1.61349e-20)
(10.0211 -1.12902 3.38486e-21)
(-1.48024 3.98057 0)
(7.97719 -0.0290923 0)
(5.75027 -0.663131 0)
(6.00589 0.0482549 1.01676e-22)
(7.13222 -1.1838 0)
(5.02256 0.229033 3.85628e-22)
(4.8311 1.05839 -2.8087e-21)
(6.50615 0.937356 0)
(7.96605 0.111047 0)
(5.75588 -2.56282 0)
(-3.75944 1.66042 2.39528e-21)
(5.24031 -2.07954 1.14839e-20)
(5.69392 4.79975 -6.4552e-22)
(7.85761 0.0266642 1.52073e-21)
(5.26129 -2.02641 -1.72487e-20)
(4.49156 -3.62068 1.76558e-21)
(3.04248 -1.50725 5.61268e-21)
(4.7477 1.95873 0)
(7.56807 2.07523 -7.481e-22)
(6.99054 1.93345 1.43542e-21)
(1.53414 -0.418832 -1.36506e-20)
(10.4909 -1.74922 -8.91777e-21)
(-0.591374 0.16026 3.6874e-21)
(-2.99992 1.176 4.12309e-22)
(6.48638 0.853988 1.91282e-21)
(5.98725 0.232145 -8.04957e-21)
(6.9252 -0.724835 2.09851e-22)
(5.87139 0.124654 -2.34262e-22)
(-1.66075 0.302921 0)
(7.21489 3.03584 4.64795e-22)
(8.90406 -0.0721757 9.25419e-21)
(5.8843 0.128669 -1.04374e-20)
(7.7471 -0.728345 0)
(5.97203 -0.867797 1.12352e-20)
(5.74665 -0.308371 2.69762e-22)
(7.21007 -0.743079 -5.86314e-23)
(-3.39305 2.90547 0)
(7.98475 0.128895 4.49242e-22)
(7.36529 -0.451379 -2.77672e-21)
(5.58924 -0.686117 -5.90418e-23)
(6.61782 -1.0638 -1.0245e-21)
(7.47094 -2.32534 0)
(4.29284 -2.06255 -6.41352e-21)
(6.4897 -5.39399 0)
(6.86989 -0.0992289 0)
(2.86279 1.73272 0)
(4.50744 2.4758 -5.97044e-21)
(2.68915 0.300031 0)
(-2.85334 5.77373 -4.80141e-21)
(6.991 -6.66476 1.20209e-20)
(7.68032 -0.0414945 8.16472e-22)
(4.09808 -2.02603 -2.51276e-21)
(7.47055 1.92995 -9.2536e-23)
(-1.04687 -3.43068 4.63127e-21)
(6.48723 0.306864 -7.12174e-23)
(4.68183 -2.24792 -6.43314e-21)
(6.25012 -2.5846 8.02473e-22)
(5.31402 4.82714 9.91279e-22)
(2.74965 0.476564 1.37166e-21)
(3.2488 -3.97857 6.25441e-22)
(5.63303 -0.114409 8.41522e-21)
(3.00366 2.41937 0)
(7.89195 0.255532 0)
(7.13137 -0.567333 3.88733e-21)
(8.08827 -3.25451 8.16454e-21)
(4.91419 -0.099865 1.00478e-20)
(5.85896 0.160493 2.83729e-23)
(7.2107 0.53 -1.03992e-23)
(5.44931 -3.1987 7.95805e-22)
(7.2726 -1.32326 0)
(5.49373 2.73464 1.05723e-20)
(4.76141 -1.05323 0)
(9.2328 1.90974 0)
(1.55739 -0.857612 -2.38708e-20)
(7.99528 0.016677 0)
(5.97241 -1.72852 4.67874e-21)
(7.96235 0.106676 0)
(8.19406 -0.0155425 -6.12615e-24)
(4.07728 -1.89444 3.96085e-21)
(7.57914 0.944868 -5.77852e-23)
(-1.26613 -5.03319 5.49238e-21)
(4.80344 -2.29879 -1.48949e-22)
(7.94713 -6.38786 -1.13616e-21)
(5.99612 -0.849967 -3.60521e-21)
(7.1106 -0.985219 8.15378e-21)
(8.71371 -0.307442 8.38791e-21)
(3.29242 -1.56999 4.36633e-21)
(-5.42334 0.666612 0)
(3.82422 -1.86672 4.68113e-22)
(6.32914 -0.821133 1.52262e-21)
(6.7462 -0.129155 -6.35723e-22)
(3.74999 -1.80157 1.287e-20)
(7.16817 -0.454331 0)
(8.99238 -0.873277 0)
(5.99797 0.194229 1.2402e-20)
(6.36254 -0.296361 0)
(3.6054 -1.78458 4.2634e-21)
(1.5848 3.4949 -4.10898e-21)
(5.41635 0.220654 0)
(7.33245 -0.0609556 -8.34332e-22)
(8.02869 -2.05551 1.14399e-20)
(-0.112995 -0.193785 2.22299e-20)
(6.0432 1.37582 0)
(-7.52999 4.1434 -8.19975e-21)
(3.24586 -0.133059 1.58675e-21)
(4.27626 -2.09335 6.05298e-21)
(2.25476 2.59357 0)
(4.13509 -2.75861 6.82305e-22)
(-1.01716 0.19386 5.51318e-21)
(7.36791 -1.27718 3.73154e-21)
(5.6438 -3.44479 -1.00561e-21)
(0.116401 1.3124 -2.50805e-21)
(8.86501 -0.842059 5.67004e-21)
(5.33558 0.659016 0)
(1.75727 4.81538 7.79906e-22)
(6.99565 -1.06123 -5.81247e-21)
(-1.47326 0.637814 -6.88361e-21)
(6.698 -2.14189 -3.2766e-21)
(-3.08785 3.18325 0)
(4.49012 -2.3185 -8.36676e-22)
(-2.21047 -2.78329 -8.15509e-21)
(6.13188 -0.00503169 -4.8696e-21)
(4.4187 -2.78289 0)
(4.56083 2.5697 4.46328e-21)
(5.89419 0.166878 -2.83665e-21)
(7.2767 -1.33482 0)
(7.87374 -0.0665378 8.29012e-22)
(4.14549 -1.95678 5.28741e-21)
(8.29444 -2.41954 -6.46792e-21)
(4.00218 -2.25993 0)
(4.59793 -5.05707 0)
(1.84717 1.56171 -2.01084e-21)
(8.92812 -0.0136029 -5.7362e-21)
(4.52056 -5.02111 4.54229e-21)
(6.29361 -0.609363 -4.1195e-21)
(5.79474 0.225852 6.19685e-21)
(11.2768 -1.79536 -9.522e-21)
(-3.05218 6.27672 2.68637e-20)
(0.939568 -0.609083 2.63913e-20)
(8.68227 -0.0501831 7.45263e-21)
(5.52826 -0.170196 7.41543e-23)
(8.08388 0.018194 -1.49461e-22)
(6.01931 -0.0140078 0)
(-5.73278 0.878353 0)
(1.47641 6.55027 7.32413e-21)
(4.64481 -2.21739 4.79172e-21)
(6.00248 0.0596425 -1.02539e-21)
(6.24341 -0.721237 1.02647e-21)
(6.50589 -0.918148 0)
(7.04146 -0.0880158 -1.92297e-21)
(7.90728 -0.0411723 -3.48767e-22)
(5.75834 0.191724 -5.67214e-21)
(7.75565 -1.32511 4.36232e-22)
(3.65824 -3.69647 -2.55043e-21)
(3.58116 -3.96081 1.93683e-22)
(8.92109 -0.645632 4.88833e-21)
(7.27879 -1.21204 4.16721e-21)
(11.1587 -4.44426 1.47315e-20)
(5.44068 -2.58279 0)
(3.92445 -0.615149 0)
(6.70636 -0.116853 1.67378e-21)
(5.50187 -6.37947 1.28679e-20)
(2.61243 -3.56264 0)
(6.29438 4.29563 -2.14722e-20)
(-7.52179 3.43037 0)
(6.90183 2.99865 4.1079e-22)
(6.81273 -1.17894 -5.88507e-21)
(4.26129 0.520688 0)
(5.67504 1.13381 -3.01061e-21)
(2.6119 6.54936 -1.04693e-20)
(5.57248 0.592166 -3.65832e-22)
(5.62237 -0.0959944 -9.27836e-21)
(4.92235 -2.28759 0)
(2.13944 -0.815517 5.62378e-20)
(1.61045 6.4892 -2.64981e-23)
(5.91218 0.132959 1.31579e-21)
(4.94512 0.371973 -5.34687e-21)
(2.34508 1.93177 5.74165e-21)
(7.94918 -1.54169 4.4875e-21)
(6.6481 -1.13671 -1.16632e-20)
(6.32281 -0.60164 0)
(7.78274 0.12102 1.60401e-22)
(6.7259 -1.14769 -2.17573e-21)
(5.98142 0.0761381 1.41973e-20)
(6.39475 -1.84542 0)
(8.93441 -1.88637 -9.57994e-22)
(4.39474 1.08078 0)
(7.22224 -0.8136 -4.18609e-21)
(5.70655 -1.60498 -3.44576e-21)
(2.52208 -1.16747 5.29211e-21)
(7.11219 -1.23297 -3.1978e-21)
(6.03982 0.540957 0)
(1.58513 4.40703 -8.71812e-21)
(4.85978 -1.98314 6.54673e-22)
(4.98747 0.384859 5.05621e-21)
(6.76752 -1.17594 8.43995e-21)
(7.15291 -0.754249 4.56982e-21)
(-6.66842 6.67419 -2.10528e-20)
(5.86321 -0.593705 2.01006e-24)
(6.67219 -0.650486 0)
(3.19563 -1.07169 1.25101e-20)
(9.25173 1.84716 0)
(2.80504 6.41263 -2.45838e-23)
(6.55826 -0.359295 7.10625e-21)
(7.85613 0.0780903 1.39863e-22)
(7.90461 -0.103033 4.35985e-22)
(2.01594 -0.852502 -2.08304e-20)
(5.77933 0.184079 7.08643e-21)
(3.86214 0.477806 0)
(-1.18702 -0.0216721 -8.08988e-21)
(6.52722 -0.833174 -2.50196e-21)
(4.97838 -5.45119 -7.18747e-21)
(8.45643 -3.76408 6.3684e-21)
(7.79781 -0.0271351 0)
(8.60626 -1.17236 1.72766e-21)
(5.39243 0.460691 1.09195e-20)
(5.883 0.193338 8.59507e-21)
(7.21209 -1.62437 0)
(4.92489 0.167488 6.63513e-23)
(6.57201 -0.952265 -1.43003e-21)
(-1.14506 1.21593 2.83181e-21)
(4.80729 -0.146305 1.39784e-21)
(6.5297 -0.736212 2.38641e-21)
(7.55367 -0.0341175 -3.02654e-22)
(6.62258 -0.61268 0)
(8.26269 0.0537856 4.54189e-22)
(-7.37982 4.55326 8.08716e-21)
(7.14501 1.12797 -2.64665e-22)
(6.00284 0.0844294 5.38501e-21)
(4.71137 0.0073421 0)
(2.62773 5.99051 -1.32937e-20)
(5.71816 0.637085 0)
(9.63312 3.0998 -4.75171e-21)
(6.16 -0.0462293 0)
(6.40273 -2.10191 -1.1378e-22)
(4.09189 -0.361361 -2.98975e-21)
(4.51225 2.17843 1.05067e-20)
(-1.46692 1.04448 -1.26801e-20)
(3.79929 -2.45253 0)
(6.7483 0.204276 -1.63233e-21)
(6.04823 0.580379 -3.27876e-21)
(1.09806 -0.724022 -7.36633e-21)
(-2.85261 -1.14991 5.22541e-22)
(4.99343 -0.164062 -1.5148e-20)
(7.35413 -1.22687 2.1871e-21)
(6.22917 0.55999 2.31786e-21)
(4.46425 -1.37277 0)
(4.21876 0.836591 5.81699e-21)
(7.25378 -7.0746 -1.50449e-20)
(-7.90066 3.50087 1.44869e-20)
(-7.6204 4.44742 -2.82802e-20)
(1.25933 -0.879108 -1.43149e-20)
(8.57413 -0.0652933 0)
(1.04085 -0.803256 0)
(6.12474 3.33259 0)
(6.23774 -0.245016 0)
(2.98614 -1.46254 -2.52983e-21)
(7.09061 -0.841878 0)
(8.81208 -1.30024 0)
(5.02565 0.297307 2.0958e-21)
(8.82984 -0.0643328 -9.50842e-21)
(6.55692 -0.577081 -5.68342e-21)
(5.15062 0.931737 1.77937e-20)
(6.0125 0.0950535 -1.64032e-21)
(6.91223 4.77727 0)
(7.58935 -1.02057 0)
(5.74131 0.208782 6.05133e-21)
(5.97069 0.0690809 1.04991e-21)
(3.90462 2.66335 0)
(-4.00977 3.07948 2.05627e-20)
(6.64876 -2.18923 3.67542e-21)
(-2.08393 -0.256964 0)
(7.17627 -0.461392 4.16994e-21)
(5.87949 0.152437 -6.96742e-21)
(1.29339 0.389189 -4.71275e-21)
(3.18485 -1.03606 0)
(6.01085 0.591114 6.09888e-21)
(7.65366 0.502779 0)
(6.7776 -0.978404 0)
(6.56681 0.573143 -3.28418e-22)
(5.77906 0.240387 3.24429e-21)
(2.00813 -1.0116 -2.30324e-20)
(6.90389 1.89433 6.38128e-22)
(4.11751 -1.04054 -5.29083e-21)
(6.16576 -0.226099 7.18372e-22)
(6.24968 0.588983 1.81183e-21)
(8.00546 0.166745 -2.17151e-21)
(6.91592 -2.09273 0)
(8.13578 -1.77691 5.30983e-21)
(4.11756 -0.183713 0)
(1.67104 6.47369 7.13306e-21)
(6.88658 -0.721405 0)
(4.40114 0.134053 7.77013e-21)
(-1.97688 0.774248 -1.8991e-20)
(7.60296 -1.21196 0)
(-0.347691 0.012424 6.09095e-22)
(7.85762 -1.11391 -5.03085e-21)
(6.71259 -0.65274 -5.25963e-20)
(5.33799 -0.800714 1.44337e-20)
(4.28881 2.12419 -6.51605e-21)
(4.10342 -1.00764 -1.50909e-20)
(10.1891 2.9309 0)
(9.45372 -6.20746 3.07843e-20)
(-6.81504 7.02976 -5.19443e-20)
(6.01096 0.610243 0)
(5.53886 0.66759 4.00808e-22)
(8.20715 -0.0880784 -6.15762e-22)
(7.98351 3.06661 0)
(6.00303 0.0306196 0)
(-7.79346 4.31943 0)
(-0.348964 -0.181869 2.47971e-20)
(11.8169 -2.2333 1.12779e-20)
(11.0057 -0.27723 6.1282e-22)
(6.84331 2.85167 0)
(5.14859 -0.514509 9.80199e-21)
(5.8926 0.197464 4.54387e-22)
(6.873 1.74711 -1.34594e-21)
(-6.616 2.16278 1.77815e-20)
(5.72498 0.483295 0)
(5.81562 -0.671307 0)
(2.4166 -0.392432 -8.4007e-21)
(4.39484 -1.35304 -3.73417e-21)
(5.83627 -0.546729 0)
(5.13932 -2.41848 -4.42856e-21)
(4.15293 0.213989 -7.33417e-22)
(5.9344 -0.421032 4.83209e-24)
(2.75734 -1.24361 0)
(4.60823 0.198347 -1.00872e-21)
(8.68618 -7.18159 1.62164e-20)
(7.66149 0.484938 1.4981e-21)
(5.66862 -1.67161 0)
(0.75314 -0.488134 -3.97428e-20)
(7.82837 0.0613503 3.80892e-22)
(5.9946 0.278095 1.27117e-21)
(5.58892 -0.467103 3.8156e-21)
(7.72806 1.99124 0)
(5.11059 0.9276 -4.73168e-21)
(9.09143 1.18055 -3.57144e-21)
(1.47177 -0.940684 3.161e-21)
(5.99881 0.154772 0)
(-2.35348 -1.03549 -5.36192e-22)
(1.67648 -0.278676 0)
(6.00938 0.142504 -4.93882e-21)
(5.96826 0.183645 2.1381e-21)
(5.62334 0.15241 -1.18442e-21)
(-1.87699 0.266735 0)
(7.12025 0.242371 -5.12101e-22)
(3.45496 1.28806 1.57439e-20)
(6.8458 -2.10392 0)
(4.95534 0.259101 6.43857e-21)
(7.58202 -1.40517 -4.98639e-22)
(6.58257 0.0856296 0)
(-2.21049 -3.04725 4.39094e-21)
(3.97191 -3.58964 -2.95185e-21)
(7.46915 -0.0609104 0)
(-0.326968 0.0128432 2.37179e-20)
(5.51136 0.604707 0)
(5.39324 -2.45624 4.6511e-21)
(-6.91491 3.59512 1.65505e-20)
(5.66667 -0.68844 5.99426e-23)
(7.25234 0.432187 -3.22286e-22)
(4.17424 0.797023 3.07704e-21)
(5.32396 -0.880267 -5.29415e-21)
(3.72931 -2.0391 -2.1386e-22)
(5.42009 -2.41682 5.06886e-23)
(6.49224 -0.737636 2.28178e-21)
(7.69909 1.97643 1.64756e-21)
(6.28722 -2.80209 0)
(5.99442 0.058177 -4.77397e-21)
(-0.872163 -0.0473312 -8.22067e-21)
(4.18741 -0.207368 0)
(3.35012 -5.652 -2.59229e-21)
(9.44782 -2.1527 0)
(3.81565 -1.07172 1.32063e-20)
(6.3068 -2.30045 0)
(4.03102 0.114296 -1.92599e-21)
(6.75165 -0.322435 -4.06739e-21)
(-1.46624 -4.14141 8.01291e-21)
(-8.92515 4.84777 2.50675e-20)
(7.60881 -0.0715452 -3.42046e-23)
(5.23103 -2.49935 3.94411e-21)
(5.39342 -1.55037 5.1729e-21)
(4.51086 -0.993447 0)
(0.399569 -0.0491242 -1.21611e-20)
(6.97411 -1.98171 -7.65073e-22)
(0.972497 -0.186684 -1.40701e-20)
(5.99185 -0.529146 1.4074e-23)
(4.45635 -1.70779 0)
(6.72893 0.0242112 -2.7224e-23)
(-3.59318 3.36481 0)
(-7.09803 2.69045 8.27055e-22)
(1.56304 -0.118727 6.05852e-21)
(1.39615 1.35927 0)
(6.19855 -1.61359 1.48237e-21)
(7.09278 -7.28904 0)
(7.9879 2.93124 0)
(5.07173 -2.39726 -6.11239e-21)
(4.4896 0.939232 4.74534e-21)
(4.76744 -3.3023 0)
(5.41612 0.531669 -2.99505e-21)
(11.2407 -0.120488 1.81609e-20)
(-7.15506 4.95074 3.7164e-20)
(8.1013 3.93569 0)
(6.42502 -0.0200632 0)
(-6.50365 7.28589 -2.23265e-20)
(5.62379 -0.326354 0)
(8.09908 0.295256 0)
(-0.390239 4.98777 4.51362e-22)
(6.16475 -1.19073 -7.22531e-21)
(5.28543 -1.27134 4.42813e-21)
(9.00398 -1.08976 8.33029e-22)
(0.391879 -0.11226 2.59752e-20)
(5.95643 0.147485 2.45473e-21)
(4.63048 -1.07287 0)
(6.47505 1.39477 -9.40523e-22)
(4.33167 -0.596101 0)
(6.80527 0.179268 0)
(6.00391 0.335876 0)
(6.55264 0.546538 -2.67064e-22)
(5.60041 -0.0906015 4.28223e-21)
(6.88492 -0.415341 -8.39594e-22)
(4.74157 -1.10818 0)
(2.04813 -0.880399 -1.67591e-20)
(6.06508 3.13907 1.6206e-21)
(5.65213 -2.0319 4.84401e-22)
(4.91141 -0.290314 3.70576e-23)
(7.68831 -2.08585 9.35943e-21)
(6.08789 0.07584 -4.03971e-21)
(-2.03786 0.652833 0)
(7.7627 -0.0359468 0)
(4.28745 2.49376 0)
(3.86424 -1.70663 -9.64061e-21)
(3.06594 -8.0536 -7.69921e-21)
(2.84094 0.589819 0)
(6.54113 1.38677 0)
(8.34578 -0.117331 6.4271e-22)
(5.75799 -0.0601159 -1.13496e-21)
(5.7321 1.83301 5.1509e-21)
(6.41344 -2.60831 0)
(-3.76827 4.58461 -6.67921e-21)
(6.85001 0.215631 6.2315e-22)
(4.29532 -1.24977 -8.883e-21)
(6.55029 0.241903 -1.55222e-21)
(6.88192 1.75906 2.14031e-21)
(11.2993 -4.53774 9.81179e-21)
(3.81326 -1.68273 1.66205e-20)
(6.50707 -4.4125 4.9069e-21)
(5.89979 -0.294283 3.06964e-22)
(5.99362 0.0316959 -1.20056e-21)
(4.66274 -2.24773 -1.32738e-21)
(3.66209 -3.67522 1.4958e-21)
(4.95504 6.17195 -1.19277e-21)
(5.02957 -2.38761 2.33253e-21)
(8.13414 0.0502294 0)
(11.2407 -5.95862 3.11708e-21)
(6.50736 -0.0115942 -4.42967e-21)
(8.55934 2.04025 1.73168e-21)
(4.20651 -1.14126 -8.10899e-21)
(5.60935 -1.95992 -5.22104e-21)
(6.1738 -0.0599884 1.09897e-20)
(7.93416 -0.236815 -6.31575e-21)
(6.42017 -0.3927 2.68284e-22)
(8.577 0.0764294 -3.88754e-21)
(3.58 -0.508019 -1.78074e-20)
(6.56584 0.00647614 -3.66012e-21)
(3.54047 -0.70682 0)
(-1.13029 -4.27335 -2.33959e-20)
(6.4151 0.0632711 1.02192e-20)
(3.4557 0.136336 3.90057e-22)
(-1.07409 -0.0126984 0)
(5.61245 -2.56443 0)
(6.07336 1.28384 4.55455e-21)
(3.20266 -0.480162 1.10621e-20)
(8.60195 -6.77418 -2.19292e-20)
(6.45316 -2.08736 -2.44413e-21)
(6.68486 -1.15222 6.38773e-21)
(9.38402 1.74475 0)
(6.08263 1.38764 2.51034e-21)
(3.70827 -3.60057 -3.66296e-22)
(7.36827 2.88097 7.04995e-22)
(5.91743 -0.792339 -6.35622e-21)
(-0.112892 0.492186 -4.17119e-20)
(7.91818 -2.24796 -8.95909e-21)
(8.16995 -1.89211 3.2124e-21)
(6.67238 3.39635 0)
(5.57441 -1.81429 -5.82689e-22)
(5.63847 0.133242 1.08154e-21)
(5.47987 0.255838 -3.96029e-22)
(3.05361 -1.4875 1.54444e-20)
(5.8646 -0.804537 9.57447e-21)
(4.81158 5.24485 2.00212e-21)
(-7.33327 4.68255 -2.12183e-20)
(6.88829 -0.487713 -1.98714e-21)
(6.57436 0.0858889 3.27746e-21)
(-2.86976 6.3607 -3.37235e-21)
(7.10783 2.85117 4.27427e-22)
(0.43998 -0.528091 -2.57708e-20)
(3.85202 -1.8675 -5.067e-21)
(5.41504 0.186397 0)
(4.92896 0.0329314 -1.53118e-21)
(-1.90082 3.97784 -1.44052e-20)
(4.05848 -0.443092 1.59946e-20)
(5.73917 -0.81631 0)
(3.93118 -3.74467 3.48636e-22)
(3.67159 -1.46424 3.77403e-21)
(5.98005 0.105659 -1.04709e-20)
(-8.14817 6.41209 -2.09224e-20)
(5.94368 -4.47098 -6.77241e-22)
(6.59293 -0.613208 3.89943e-21)
(6.75323 0.20291 2.38921e-21)
(5.45944 -2.48845 -6.39798e-21)
(6.63368 -0.363297 1.12077e-21)
(3.02904 -8.25979 -2.53523e-20)
(6.42512 0.00673567 4.15514e-21)
(6.13946 -0.1882 -3.09995e-21)
(6.36551 0.329938 -8.67885e-23)
(7.12174 -0.0223085 -6.66929e-21)
(3.5519 -1.52702 -7.28597e-21)
(6.02837 -0.2846 0)
(-2.59401 -0.305749 2.02322e-20)
(6.39488 0.0783426 7.76741e-22)
(2.60389 0.690382 -6.64824e-21)
(7.4865 0.0893826 -8.87457e-23)
(6.53782 -1.20095 -3.86774e-21)
(5.99915 0.0503568 -8.27288e-21)
(6.27174 0.959926 1.38378e-21)
(-4.09139 3.64374 -2.11358e-20)
(8.09057 0.30564 0)
(1.64227 6.10225 6.48473e-21)
(7.90237 0.137981 -1.43352e-22)
(4.48209 -1.66233 0)
(6.36752 0.277645 2.60628e-21)
(7.97035 0.131321 -6.1585e-22)
(7.93485 0.263645 1.71153e-25)
(7.8358 -2.62594 6.43234e-22)
(3.30995 0.21579 0)
(5.35539 1.08818 8.75632e-21)
(4.59746 3.03622 6.75227e-22)
(4.94317 -2.33022 5.19257e-21)
(6.02214 -0.537756 0)
(4.45329 0.901856 -1.37296e-20)
(4.19935 -3.57867 -6.36934e-22)
(7.36833 4.22246 -3.46907e-21)
(3.61601 -0.560351 1.74137e-20)
(7.96387 -0.102076 1.25343e-21)
(-9.04109 5.0092 1.96139e-20)
(5.77712 -0.274901 -6.67319e-21)
(8.29514 -1.46325 -7.39452e-21)
(5.35374 0.454677 -6.28674e-21)
(6.64922 -0.0870833 0)
(5.98627 0.0706839 -4.54082e-21)
(0.448778 -0.734083 1.18294e-20)
(-1.30697 0.10665 0)
(8.73412 -3.36493 0)
(5.48703 0.259081 0)
(1.6828 -0.978943 0)
(6.14242 0.923616 0)
(3.42053 -0.479781 0)
(5.69661 -3.15423 -1.29055e-22)
(10.9569 -0.685062 -8.83897e-21)
(7.66498 0.998963 0)
(5.2407 1.00975 1.30088e-20)
(4.35919 -3.21537 -1.43849e-21)
(6.20799 0.606315 1.13552e-22)
(-1.26194 4.65437 -6.41731e-21)
(3.45476 0.196654 -3.81821e-23)
(-5.30408 4.25737 1.75773e-20)
(6.13929 0.00293319 -2.66593e-21)
(7.89743 -0.0713046 4.04908e-22)
(6.07451 0.894373 -3.13537e-21)
(5.61727 0.554204 -8.5429e-21)
(5.8947 2.91343 -3.79271e-21)
(9.94648 3.17769 0)
(-4.64577 0.128165 2.20094e-21)
(3.86118 -1.12265 -1.44592e-20)
(6.01236 0.0340629 -1.37521e-20)
(7.03175 -1.92442 -4.06358e-21)
(6.87245 -0.0483073 1.0685e-21)
(8.36094 -1.6222 -1.39855e-21)
(6.36432 -0.959601 -8.38539e-22)
(6.23005 -1.57854 -5.1697e-21)
(6.04807 0.521574 3.39841e-21)
(6.74593 4.73441 0)
(3.53569 -1.78785 6.13187e-24)
(5.10248 0.228244 -1.92808e-21)
(6.9423 -0.842264 0)
(2.07345 1.9292 0)
(5.73054 -2.60536 -5.40495e-23)
(-8.65764 4.47815 2.16608e-20)
(5.89744 -3.25289 -3.43608e-21)
(6.0445 3.43615 0)
(5.69177 -0.148768 -8.76094e-21)
(5.42354 0.633806 -1.64891e-21)
(-3.52998 -1.37889 1.16761e-20)
(7.91143 0.136873 3.33721e-22)
(-6.30485 4.79469 0)
(-5.02518 0.467502 3.03295e-21)
(7.4204 0.134919 0)
(5.27973 -1.7974 6.24031e-22)
(8.9871 -1.28096 -1.81119e-21)
(5.99869 0.0639419 -9.98608e-24)
(6.99864 1.96263 -2.53318e-21)
(8.01135 3.49675 -5.69959e-22)
(5.2395 -1.49193 1.07419e-20)
(0.828352 -4.09473 0)
(6.00734 -6.37696 -1.1373e-20)
(4.56756 -3.99465 0)
(7.82733 0.963842 -6.85687e-22)
(-3.85412 -0.499584 2.18264e-20)
(8.31254 -2.89277 8.90405e-21)
(1.92456 5.71438 -5.6752e-21)
(-0.306817 0.458452 -3.51952e-20)
(4.44916 -2.08251 -5.99719e-21)
(3.98535 -1.13812 -8.40097e-21)
(8.50875 -7.34407 5.90209e-21)
(6.25399 -5.87798 9.30297e-21)
(3.60864 -1.54744 5.97448e-21)
(4.15613 -1.22547 9.09632e-21)
(2.90775 -7.35796 1.00264e-20)
(7.31593 -6.07039 -5.56296e-21)
(5.55985 -1.73086 5.24301e-21)
(-1.94826 1.15676 1.34584e-20)
(6.95099 -0.160056 6.45507e-22)
(5.61215 -3.8178 1.78312e-21)
(6.94193 1.2521 -8.69438e-22)
(6.80977 -1.59432 0)
(1.55448 -0.87439 -2.88505e-20)
(6.3033 -0.017611 -5.10665e-21)
(5.98415 0.359162 0)
(7.7348 0.900986 0)
(4.80162 -5.42651 -6.18409e-21)
(9.19509 -1.59945 -8.50188e-21)
(7.18977 0.629542 -3.03437e-22)
(6.15011 -1.15407 9.48753e-21)
(5.86515 2.83594 3.48197e-21)
(5.07513 -0.0936943 7.18681e-21)
(-3.83159 0.346435 -9.44985e-22)
(5.37258 1.86967 0)
(4.26246 -1.32423 8.66348e-21)
(-1.44573 2.89616 3.36946e-21)
(-1.2159 0.619495 2.68725e-20)
(5.22617 -1.98481 1.7776e-21)
(5.7165 -2.59041 -9.45332e-22)
(5.97063 -0.0635092 3.64921e-21)
(2.6187 3.66195 1.15225e-21)
(6.84793 -1.59254 4.31658e-21)
(-4.14301 0.364525 -1.56667e-20)
(7.16057 0.612752 2.5306e-22)
(5.79318 0.167385 3.53939e-21)
(3.52038 -0.682934 -7.1595e-21)
(5.63322 -0.252407 5.45263e-21)
(7.72213 -0.878727 0)
(7.17784 1.10469 5.73309e-22)
(5.90244 0.128342 7.87041e-22)
(4.49012 -0.893897 -2.78702e-21)
(5.79062 5.05031 2.41245e-22)
(5.48127 -1.69258 3.91381e-21)
(5.98297 0.0388835 1.53241e-21)
(4.1559 0.389783 -1.0484e-20)
(7.16007 -0.844682 0)
(2.39369 5.87408 -9.29855e-21)
(6.63212 0.263462 2.10238e-21)
(5.34911 -0.499036 0)
(4.30081 0.0880018 6.00321e-21)
(7.80681 0.180568 0)
(4.98154 5.06431 4.76032e-21)
(7.59873 -0.15234 0)
(3.55298 -1.65211 0)
(7.68907 -0.0152502 8.09941e-22)
(7.0846 0.47937 5.10835e-22)
(8.63076 0.536676 -5.82342e-21)
(5.73803 0.427762 -3.88784e-21)
(4.63942 3.12742 -2.91526e-21)
(5.97782 0.272966 -1.54971e-21)
(6.215 0.95023 0)
(1.16765 1.0856 -2.78457e-21)
(7.36828 0.412638 5.9163e-22)
(5.31619 -2.13674 -1.3231e-21)
(6.80721 -1.58728 0)
(8.62454 1.9774 2.66853e-21)
(6.47262 4.8011 1.04345e-22)
(7.02205 -0.150168 2.76476e-21)
(6.45527 -1.83359 0)
(0.65259 4.65046 1.80093e-20)
(6.12045 0.511499 0)
(7.03028 -1.22319 -2.10049e-21)
(-0.087299 -0.108175 0)
(8.79679 0.689222 0)
(5.60516 -4.02907 0)
(6.17982 -2.28005 0)
(-3.55649 5.52348 -2.66661e-21)
(-0.462525 -0.280854 -5.5439e-21)
(5.56288 -0.0890789 -6.40224e-21)
(-1.88273 -3.60063 -1.0972e-20)
(3.86396 -1.62158 0)
(-0.311119 -5.58694 -9.38174e-21)
(-0.3552 -0.130298 -2.20486e-20)
(4.83871 -2.27243 0)
(4.48209 -1.5491 -9.3054e-21)
(-0.200892 0.518734 -3.53473e-21)
(6.89492 1.19422 2.17849e-21)
(7.52432 -2.45644 5.05753e-22)
(5.56937 0.513391 0)
(6.66221 -2.05195 0)
(9.83025 0.771756 3.13808e-21)
(2.98455 -3.92175 4.06374e-22)
(8.53927 -2.5249 -2.73891e-20)
(4.64655 -5.35137 2.5629e-22)
(5.99205 0.016241 3.36343e-22)
(4.92819 0.0213592 2.85281e-23)
(6.05751 0.514398 4.83864e-21)
(3.05823 6.11833 6.09801e-21)
(5.69559 -1.5625 0)
(1.19356 -0.305579 0)
(6.45501 -0.334683 0)
(3.51664 0.441466 0)
(5.2258 -0.950338 3.90329e-21)
(8.1673 -0.195168 0)
(-1.66192 5.33629 3.35186e-20)
(9.94096 -5.38862 -2.20302e-22)
(4.06371 -1.267 -1.37334e-20)
(5.0265 -3.0026 7.31272e-23)
(-1.8536 -1.26096 -1.11237e-20)
(-0.392295 4.02051 -1.47495e-20)
(6.39266 0.111052 1.21496e-21)
(-4.09236 1.36425 -1.52542e-20)
(2.95087 6.44535 1.04891e-20)
(7.88623 0.0240591 0)
(6.94783 -1.10941 0)
(5.47463 -3.18251 0)
(6.52871 -1.2607 2.04293e-21)
(7.58819 -6.63801 0)
(5.4834 1.81602 0)
(6.00516 0.0198247 0)
(5.33414 -1.26227 4.15694e-21)
(6.20979 0.569664 -4.64411e-21)
(9.50432 -0.227436 0)
(6.0435 -2.77546 -2.93353e-21)
(5.92637 0.555925 -4.64119e-21)
(7.35856 2.749 -1.61068e-21)
(4.90686 -2.25579 5.58931e-21)
(5.66702 2.01697 3.49836e-23)
(4.43424 -3.74266 -2.41807e-22)
(2.50684 2.85024 1.97624e-21)
(4.21385 -2.44225 -9.1637e-22)
(7.05997 0.518715 -6.25932e-22)
(9.72878 -5.1805 -4.96217e-20)
(5.44052 0.255723 -6.13548e-21)
(6.34673 0.00651004 0)
(2.1818 0.969078 5.02214e-21)
(5.87223 0.177312 6.3525e-21)
(4.30979 -3.90496 -3.78889e-22)
(6.34058 -0.909509 -2.45594e-21)
(3.28689 -0.547773 -1.20328e-20)
(7.09177 0.425681 9.11881e-23)
(9.12124 1.24462 5.16661e-21)
(5.99817 0.240897 0)
(11.8865 -2.93419 3.37346e-21)
(6.18331 3.83473 2.12554e-22)
(4.67502 -2.24127 1.99009e-21)
(-6.06279 1.59144 -2.02868e-20)
(5.97618 0.0549752 3.30773e-21)
(6.27372 -0.329209 -3.30829e-22)
(7.63464 -0.100455 -9.326e-22)
(6.53251 -0.445299 0)
(3.5287 -2.62385 0)
(4.56158 -2.17523 6.97131e-21)
(-7.09703 5.33896 2.25998e-20)
(5.05868 0.231119 -6.98634e-23)
(5.86813 0.171241 1.26631e-20)
(10.0119 -2.73995 -8.3307e-21)
(4.43039 0.795711 0)
(5.39613 0.307283 0)
(4.84669 -1.03976 -5.41529e-23)
(7.38241 0.0673454 1.25998e-21)
(5.80178 1.8878 7.0127e-21)
(7.658 -0.699718 0)
(6.00798 -0.22234 0)
(6.31536 -1.76024 7.07464e-21)
(5.9414 -0.482399 5.15595e-21)
(-0.435373 2.93058 -3.16396e-22)
(5.16962 0.0252021 0)
(9.36456 0.694744 3.96448e-21)
(6.88048 -2.87313 -1.47674e-21)
(-2.527 4.18947 -1.83341e-20)
(5.92711 -0.0585219 -7.08099e-21)
(10.1707 -0.576274 0)
(9.38919 -1.46147 6.76195e-21)
(7.23357 -1.88779 -2.27346e-20)
(-1.34218 1.03282 0)
(5.20511 -0.063174 -1.2023e-20)
(5.73407 0.329172 -4.1551e-21)
(3.55758 0.24302 -6.65263e-24)
(8.50893 -1.80192 1.39338e-21)
(4.93351 5.00329 6.41386e-21)
(6.40648 0.0648691 0)
(3.24057 -1.1367 -7.91679e-23)
(11.2016 -1.50545 6.78938e-21)
(5.54218 -0.0201599 -2.30302e-20)
(6.10321 0.898367 3.71277e-21)
(0.912942 -3.43094 5.69115e-22)
(5.8919 0.0426495 -1.56271e-20)
(5.08882 5.06151 -4.40839e-22)
(2.1473 4.10721 4.52294e-21)
(5.24511 -1.16614 0)
(5.45187 1.11423 5.08814e-21)
(3.53296 -1.59405 4.82874e-21)
(6.63726 -0.310789 -7.79245e-21)
(5.92 0.126679 -5.73598e-21)
(6.62852 -1.28547 1.75394e-21)
(5.03667 -0.464863 1.42744e-20)
(6.84201 -0.130946 -7.51839e-22)
(5.35842 0.335979 3.53991e-21)
(3.71148 -5.91512 -1.23427e-20)
(9.08448 -1.08957 -9.29009e-21)
(7.23661 3.05345 -1.19143e-21)
(8.22952 -5.86578 1.71933e-20)
(6.03041 -0.104658 0)
(7.27735 -3.9483 0)
(5.63869 -0.254377 0)
(4.0537 -1.15414 1.05696e-20)
(6.02874 0.0586526 -9.17399e-21)
(5.38322 0.686944 0)
(4.59768 -0.947955 -8.24958e-21)
(5.35141 0.626587 0)
(5.25606 -0.853457 -6.43137e-21)
(5.32751 -1.90272 -1.69995e-21)
(5.6334 -1.45605 -5.76102e-21)
(6.51627 0.0625239 0)
(5.80294 0.138122 0)
(4.96538 -0.456729 -2.41494e-22)
(7.5803 0.851898 5.74882e-23)
(7.82127 -0.278403 3.01214e-21)
(6.833 5.00693 -3.35034e-22)
(7.82563 -1.16789 0)
(5.25154 -1.92339 -2.94494e-21)
(-0.992936 0.335608 0)
(2.67411 2.29343 -5.77122e-21)
(8.08436 3.44712 0)
(6.26635 -0.314368 6.70201e-22)
(3.6068 -0.434609 4.62323e-21)
(4.60301 -0.374962 4.61131e-21)
(5.48721 -0.191855 8.42999e-23)
(9.79985 -5.69727 -3.65873e-20)
(5.86482 -0.559252 1.30066e-20)
(6.15253 0.935955 -1.14402e-22)
(7.99139 -1.56301 1.74489e-21)
(5.95364 -1.29269 -2.90871e-21)
(-0.71937 0.307425 9.65067e-21)
(7.71932 1.36144 0)
(5.93094 0.125543 1.4999e-23)
(4.67119 -1.12111 0)
(1.92368 3.51574 -3.20204e-21)
(5.31339 -1.92165 -1.53078e-21)
(5.07078 -0.382612 -4.68468e-21)
(4.66218 0.167814 -7.36629e-23)
(7.69067 0.0916183 -2.02859e-21)
(5.03431 -0.0873698 9.69432e-21)