/*--------------------------------*- C++ -*----------------------------------*\
| =========                 |                                                 |
| \\      /  F ield         | OpenFOAM: The Open Source CFD Toolbox           |
|  \\    /   O peration     | Version:  2306                                  |
|   \\  /    A nd           | Website:  www.openfoam.com                      |
|    \\/     M anipulation  |                                                 |
\*---------------------------------------------------------------------------*/
FoamFile
{
    version     2.0;
    format      ascii;
    arch        "LSB;label=32;scalar=64";
    class       surfaceScalarField;
    location    "0.25";
    object      phi;
}
// * * * * * * * * * * * * * * * * * * * * * * * * * * * * * * * * * * * * * //

dimensions      [0 3 -1 0 0 0 0];

oriented        oriented;

internalField   nonuniform List<scalar> 
20045
(
0.281595
-0.322827
0.0412317
-0.552741
0.219512
0.333228
0.151191
0.816491
-0.967681
0.0839428
-0.116397
0.0324538
-0.509549
0.417228
0.0923208
-0.234254
0.973202
-0.738948
-0.471337
0.0654445
0.405892
0.022628
0.264185
-0.286813
0.26967
0.219727
-0.489397
-0.33322
-0.13184
0.46506
-0.120988
0.322591
-0.201603
0.927919
-0.475765
-0.452154
0.220037
-0.216944
-0.00309325
-0.604678
0.413651
0.191026
-0.0574357
0.466839
-0.409403
-0.53503
0.20181
-0.00928947
-0.166897
0.176186
0.559982
-0.222811
-0.33717
-0.777346
1.08112
-0.303771
-0.393476
-0.00206204
0.395538
0.126083
-0.085647
-0.0404362
0.0779032
0.142134
-0.111182
-0.441559
0.339134
0.207851
-0.546985
0.465187
0.0306624
-0.49585
-0.245423
0.584556
0.202631
-0.210935
0.00830332
-0.467898
0.938588
-0.47069
0.890749
0.0868279
-0.977577
-0.94594
0.61012
0.33582
0.148786
-0.228627
0.0798402
0.618131
-0.532836
-0.0852954
-0.264917
0.525232
-0.260315
1.05905
-0.633851
-0.425203
-0.332711
0.355339
1.12035
-0.555617
-0.564731
0.701554
0.162889
-0.864443
-0.035995
0.229137
-0.193142
-1.08261
0.441898
0.640715
0.321569
0.285003
-0.606571
-0.0329255
0.336893
-0.303968
0.109555
-0.149603
0.0400481
1.07914
-1.08873
0.00959042
0.708611
-0.197042
-0.511569
0.278798
0.429812
0.458836
0.469084
0.297846
-0.196287
-0.101559
0.603998
0.329275
-0.933273
0.941917
-0.240363
0.0604822
0.763955
-0.824437
0.66422
-1.1513
0.487082
0.9778
-0.714099
-0.263701
-0.419965
-0.420476
0.840441
-0.0536409
-0.176532
0.230173
0.337697
0.080479
-0.418176
-0.364812
-0.144737
0.0725042
0.697709
-0.770213
0.869357
0.0589519
-0.928308
0.365938
-0.630855
1.07952
-0.773008
-0.306512
-0.0775511
0.276918
-0.199367
0.391309
0.688211
0.307315
-0.574903
0.267589
0.0356353
0.0904479
0.152498
0.280147
-0.432646
0.801409
0.16724
-0.968649
-0.0422571
0.115748
-0.0734911
-0.357407
0.0475791
0.309828
0.457628
-0.187958
0.98561
-1.01932
0.0337113
-0.096841
0.0545839
-0.283842
0.621539
-0.115051
-0.547269
0.66232
-0.275998
0.352824
-0.0768256
0.89127
-0.112232
-0.779038
0.676345
-0.603841
-0.0740535
0.965323
0.311151
-0.368586
-0.319021
0.293612
0.0254094
0.392651
-0.724683
0.332032
0.50217
0.61742
-1.11959
0.452756
-0.407153
-0.0456032
0.454913
-0.147598
-1.01609
0.189271
0.826819
-0.0044364
0.286032
-0.210347
0.313859
-0.103512
0.535232
-0.828352
0.29312
-0.821841
0.0757026
0.746139
0.498546
0.141077
-0.639623
-0.470419
0.365702
0.104717
-0.682472
0.0257416
0.65673
0.446969
-0.115644
-0.331325
0.227193
-0.338004
0.11081
-0.118453
-0.39039
0.508843
0.332784
-0.362766
0.029982
0.742938
0.214096
-0.957034
0.175078
0.0275533
0.0313107
-0.129232
0.0979208
0.657542
-0.335974
0.0243543
-0.194289
0.169935
0.773237
0.34711
-0.29418
-0.310498
-0.117605
0.148915
-0.16336
1.03272
0.0655967
-0.275944
0.223043
-0.198689
0.195963
0.627766
-0.823729
0.646916
-0.997167
0.350251
-0.0211749
-0.294247
0.24968
0.0445674
-0.176595
0.220862
-0.0442662
0.52421
-0.496059
-0.0281508
-0.287151
0.23351
0.675709
-1.05958
0.383869
-0.13213
0.202569
-0.0704389
0.0350269
-0.212972
0.177945
0.552163
-0.0869759
0.780008
0.279047
-0.587566
0.472515
0.68252
-1.02004
0.337524
0.178968
0.381014
0.19507
-0.272621
-0.445658
0.358849
0.0868093
-0.435697
0.0645447
-0.34303
0.278485
0.689507
0.288293
0.536861
-0.756981
0.22012
0.775064
0.0842365
-0.8593
-1.04286
0.802747
0.240112
-0.397993
-0.15442
0.552413
1.03001
-0.340501
-0.335202
0.138914
0.373036
-0.378006
0.00496978
0.223321
-0.245629
0.022308
0.589518
0.405941
-0.995458
0.642018
-0.558443
-0.0835751
-0.167298
0.0495394
0.117759
-0.207351
-0.0868958
1.13677
-0.454247
-0.380889
0.388816
-0.00792683
0.482726
-0.828198
0.345473
0.234944
-0.654909
0.404802
0.286554
-0.691356
0.762927
-0.370276
0.974983
-0.117961
-0.857022
0.151685
-0.446385
0.294701
0.928037
-0.638064
-0.289973
-0.165113
0.206009
-0.040896
0.0288763
0.812003
-0.84088
1.04495
-0.154199
-0.846613
0.0643043
0.782308
-0.535641
0.37234
0.163301
0.989785
-0.487615
0.109349
0.343407
-0.641229
0.710623
-0.0693934
-0.625161
0.776352
0.0125301
-0.267992
0.255462
-0.0793088
-0.214171
0.293479
-0.0242758
-0.2148
0.239076
0.838998
0.0157641
-0.854762
1.10165
-0.523872
-0.577773
-0.258194
0.233919
0.480674
-0.635617
0.154943
0.133143
-0.023588
-0.877459
-0.513138
0.582442
-0.0693038
-0.593718
0.52478
0.0689373
-0.0113081
-0.0614972
0.0728052
0.362443
0.565594
0.0695707
0.15375
0.343057
0.0299792
-0.668828
0.0275988
-0.710614
0.893028
-0.182414
-0.707924
0.720826
-0.0129013
-0.608399
-0.408215
1.01661
0.105742
-0.266232
0.160489
0.338868
-0.4836
0.144732
0.61359
0.110418
-0.724008
-0.0203097
-0.729964
0.750274
-0.405836
0.810638
0.194383
-0.587686
0.393303
-0.367517
1.04323
-0.727932
0.562413
0.165519
-0.132669
0.155706
-0.0230374
0.374072
-0.96307
0.588998
-0.780132
0.312234
-0.606246
-0.376284
0.894485
-0.591752
-0.302734
-0.393816
0.360891
0.210157
-0.223962
0.0138058
-0.753036
-0.225097
0.978133
-0.734649
1.02744
-0.292795
1.00525
-0.712
-0.293252
0.000503537
-0.21368
0.213176
-0.232714
-0.543104
0.775819
-0.263257
0.142269
-0.449325
0.0513313
-0.554705
-0.223487
0.778192
0.147147
0.0343913
-0.181538
0.00126874
-0.514407
0.235048
-0.0862615
0.804432
-0.0293684
-0.193752
0.157757
-0.238192
0.295026
-0.0568346
-0.168731
1.00773
-0.826655
0.593941
0.512027
-0.199949
-0.312079
-0.73918
0.176517
0.562662
0.347953
0.6573
1.00434
-0.630266
0.645242
-1.02487
0.379626
0.360921
-0.643356
0.282435
0.0686041
-0.46208
-0.482117
0.678079
0.624701
-0.858955
0.106782
-0.672222
0.56544
-1.02078
0.506614
0.514165
-0.114294
-0.356125
0.199027
0.169552
-0.368579
0.454391
-0.0358063
-0.418585
-0.203579
-0.538351
0.567227
-0.278358
-0.102531
0.546941
0.794433
-0.715005
-0.0794274
-0.0110556
-0.161849
0.172904
0.624361
0.0181176
-0.642479
0.0344086
0.221688
-0.256096
0.0196013
0.58173
-0.601331
-0.332772
0.868004
0.597281
-0.402898
-0.0173297
0.456391
-0.439062
0.668965
-0.186239
0.143622
-0.0131444
-0.130478
0.06203
0.0969246
-0.158955
-0.168623
0.176441
-0.00781796
0.910433
-0.622632
-0.2878
0.239821
-0.97447
-0.187164
0.0185411
-0.762813
0.180602
0.582211
0.793885
-0.268654
0.288162
-0.998776
1.1934
-0.569902
-0.623499
-0.0216462
0.168793
0.969942
-0.423527
-0.546414
-0.601705
0.0955558
0.506149
-0.920732
0.846815
0.0739162
0.343344
-0.674516
0.331171
-0.214151
0.0250973
0.189053
-0.503625
0.589578
-0.0859528
0.0466507
-0.180808
0.134157
-0.186324
0.0541937
-0.211279
0.0346833
-0.684402
-0.312764
0.56097
-0.823451
0.262481
0.103025
-0.260757
0.157732
0.45583
0.162301
0.5388
-0.432017
-0.312616
0.233307
0.450451
0.343434
-0.532356
0.0658818
0.466474
0.337247
0.632694
0.416758
0.0500804
0.221462
-0.118437
-0.322385
-0.0596456
0.382031
0.0251353
-0.157804
-0.631617
0.651218
-0.0356619
0.172845
-0.137183
-0.899199
0.888068
0.0111316
-0.24333
0.701039
-0.45771
-0.145602
-0.17298
0.318582
0.734009
-0.828575
0.0945659
-0.565189
-0.45559
1.03369
-0.713304
-0.320381
-0.130537
0.119481
0.727269
-0.383925
-0.296298
0.857268
0.140459
-0.412627
0.272168
0.923729
-0.12678
-0.79695
0.953155
-0.229118
-0.724037
-0.319456
0.459915
0.834542
-0.50844
-0.326102
-0.221993
0.824119
-0.602126
0.246027
-0.499561
0.253534
-0.25962
0.0720345
0.187586
-0.232748
0.0216293
0.211119
0.933532
-0.715568
-0.217964
-0.560798
-0.48206
0.624546
0.169887
-0.800478
-0.0987215
-0.0703086
0.132339
0.271236
-0.868616
0.59738
0.0043643
0.205792
-0.539856
1.12937
0.300732
0.6097
0.980924
-0.64934
-0.331584
-0.946886
0.723399
0.616897
-0.952575
0.335678
-0.619111
-0.0639288
0.68304
-0.378361
-0.0991919
0.477553
0.581044
-0.10037
0.290332
0.221695
0.315091
-0.132119
-0.400717
-0.696814
1.00806
-0.311247
-0.283663
0.0454714
-0.420127
0.402797
0.146331
-1.06706
0.588992
-0.921764
0.188881
-0.332697
0.5545
-0.221803
-0.0066739
0.0906167
-0.513037
0.280966
0.232072
0.393887
0.130324
0.015832
0.259638
-0.27547
0.471576
0.170442
-0.602482
0.873718
0.579826
-0.0812798
-0.245893
-0.493286
1.0333
-0.65861
-0.374694
0.964298
-0.974994
0.375979
0.599015
0.776903
-0.870392
0.0934885
-0.470276
0.351824
-0.160196
-0.00710243
-0.204732
-0.47774
0.351899
-0.57524
0.223342
0.398182
0.43636
0.591847
-0.898269
0.306423
0.298668
-0.565727
0.267059
-1.00849
0.186651
0.039918
0.407051
-0.563678
0.69205
-0.128372
-0.226711
0.330808
-0.104097
-0.522233
0.0508966
-0.131252
-0.262026
0.393278
0.133326
0.0014147
-0.13474
-0.277778
-0.257864
0.338256
0.48371
-0.821966
0.921118
-0.583871
0.401687
-0.448309
-0.021967
0.50634
-0.207672
-0.633359
-0.0945732
-0.131219
0.192659
-0.0614393
0.949091
-0.345094
-0.488128
0.728819
-0.240691
-0.14818
0.175363
-0.0271833
0.593819
-0.139428
-0.327668
-0.540948
-0.48769
0.847891
-0.360201
0.536006
-0.896366
0.36036
0.408618
0.625067
-0.184584
0.163448
0.0211365
0.112222
-0.731333
0.697078
-1.07259
0.375509
-0.342288
0.0662895
-0.107957
0.644818
-0.242929
0.831921
-0.261535
0.622456
0.183653
-0.960999
-0.703722
0.478093
0.225628
0.659984
-0.138498
-0.521486
0.917125
-0.183115
-0.439326
-0.526602
-0.483849
0.358291
0.270414
-0.349928
0.0795144
0.330429
-0.332491
-0.742809
0.634852
0.831742
0.247398
-0.789248
0.30112
0.79653
-0.171984
0.115809
-0.184872
0.0690633
-0.0926768
-0.481764
0.574441
-0.874448
0.150184
0.724264
0.83222
-0.83222
-0.34912
0.934781
-0.585661
0.305415
-0.289583
0.462693
-0.408739
-0.0539539
-0.944549
0.935338
0.00921116
0.38435
-0.0256624
-0.358687
0.300759
-0.0994137
-0.201345
0.159967
-0.305569
-0.064788
0.573353
-0.869651
-0.744704
0.89879
-0.154086
-0.274436
0.612692
0.213672
0.0131962
-0.226869
0.121268
0.0636058
-0.184874
-0.387752
0.456356
0.91061
-0.672819
-0.23779
-0.112273
-0.509851
0.622124
-0.273423
0.292663
-0.0192399
0.178602
-0.307365
0.128762
-1.06196
0.451935
0.610029
-0.0772782
-0.0391184
0.176876
-0.0610673
0.00850504
-0.210856
0.202351
0.416841
0.516691
0.206835
0.00683731
-0.146384
-0.209078
0.355462
-0.479349
0.754044
-0.274695
0.103131
0.214959
-0.31809
0.392392
-0.326948
0.827613
-0.130301
-0.697312
0.0636362
-0.454026
0.0255861
0.588004
0.448508
0.2748
-0.723308
0.516128
-0.409878
-0.106249
-1.03974
0.193126
-0.422618
0.26297
0.159649
0.278838
0.504912
-0.78375
-0.639233
0.575305
0.0680778
-0.91482
0.846742
-0.17164
0.172144
-0.135226
0.158279
-0.023053
0.0530591
-0.375445
-0.396722
0.0797356
0.316986
-0.621782
-0.14103
0.607457
0.407289
-0.117993
-0.289296
-0.162356
0.0141764
0.122287
-0.687999
0.565712
0.11429
0.483335
-0.597625
0.245146
-0.706272
0.777126
-0.0708541
-0.744293
0.522299
-0.0923337
-0.118601
-0.410071
-0.183647
-0.30164
0.07177
0.22987
-0.870635
0.391286
0.639826
-0.7521
0.251658
0.544872
-0.379946
0.342069
0.0378764
0.155592
-0.673717
0.518126
0.197917
-0.312409
0.114492
0.530904
-0.858572
-0.62549
-0.0824348
-0.364473
0.00706621
-0.274871
0.0131003
0.261771
0.345421
0.000637067
0.384097
-0.384734
0.714355
-0.435517
-0.746526
0.985435
-0.23891
0.274557
0.208066
-0.482623
-0.37416
0.20252
-0.262563
-0.0390772
0.121005
0.341689
-0.286694
-0.733351
-0.206401
0.0751813
0.605997
0.440911
0.138915
-0.734738
0.795221
-0.0612111
-0.304083
0.365294
-0.0725633
-0.820714
0.893278
0.134619
-0.138826
0.00420722
0.286656
-0.180913
-0.221391
0.467418
0.504337
-0.352653
-0.338317
-0.17472
0.00936574
-0.448291
0.438925
0.413283
-1.02168
-0.001837
-0.502139
0.503976
0.0431001
-0.104345
0.0612454
-0.633763
0.00938097
0.624382
0.975797
-0.646522
-0.003988
0.114676
-0.110688
-0.249805
-0.0236175
0.190355
0.376347
-0.566703
0.175628
-0.215989
0.0403614
0.684292
0.38873
-1.07302
-0.393844
1.13678
0.129326
0.0039995
-0.272093
-0.581522
0.853615
0.422887
0.713881
0.766368
-0.652077
-0.389625
0.258373
-0.218568
-0.0141805
-0.310131
0.927028
0.141076
-0.786117
0.645042
0.951692
-0.132033
-0.819659
-0.268244
0.599124
-0.33088
0.404946
-0.161212
-0.452261
0.613473
0.208382
-0.211546
0.00316378
-0.275034
-0.47466
0.749694
0.192146
-0.0708782
0.066896
-0.0782041
0.513271
-0.788305
-0.698581
-0.192566
0.891147
-0.0399277
-0.48788
0.527808
-0.0447699
1.0544
-1.0959
0.0415
0.232791
-0.115089
-0.117702
-0.0345117
-0.345434
0.267434
0.241409
-0.359936
-0.0184253
-0.753548
0.937647
-0.184099
0.151334
-0.186996
0.50387
0.259056
-0.840156
-0.248575
-0.0399041
-0.200129
0.240033
0.522469
-0.0815578
-0.238962
0.262736
-0.0237736
-0.137894
0.184545
-1.15012
0.543877
0.835376
0.137826
-0.0990149
0.277617
-0.215193
0.48975
0.858841
-0.285489
-0.243422
0.00445961
-0.127044
-0.615766
0.314198
0.289556
-0.277026
-0.911179
0.0367316
-0.0536653
0.238173
-0.0402557
-1.00251
0.61271
0.389797
0.828908
0.156702
0.22953
-0.0800492
-0.149481
0.342184
-0.299534
-0.0426491
-0.894786
0.33917
-1.01439
0.5267
-0.242494
0.0779954
0.164499
0.0221554
-0.127399
0.105243
0.943099
0.0363346
-0.979434
0.24568
0.0167501
-0.26243
-0.159656
-0.286003
0.257418
-0.0302243
-0.135049
0.139944
-0.00489424
0.444563
-0.0198995
-0.424664
0.0169416
-0.151991
0.829478
-0.615382
-0.0339621
-0.164611
0.198573
-0.974703
0.221155
0.0204797
0.0607692
-0.178374
0.0480207
0.359269
-0.0429737
-0.269642
0.253519
0.197701
-0.451221
0.380459
-0.22796
0.309796
-0.371007
0.260824
-0.225797
0.118251
-0.344962
0.815656
-0.203756
-0.6119
0.568558
-0.077511
-0.491047
-0.332708
-0.113677
0.13759
0.0468257
-0.184416
0.239959
-0.419283
0.179324
1.04981
-0.0154758
-1.03433
0.161655
0.0538565
-0.215511
-0.503332
0.675888
-0.172556
0.446597
0.515329
-0.961926
0.086102
0.190816
-0.30852
0.464844
-0.156323
0.23887
0.109557
-0.348427
-0.704404
0.398679
0.305725
0.130721
0.00922237
-0.842281
0.143699
0.338842
-0.200838
-0.138004
0.381691
-0.577286
0.195595
-0.112485
-0.210343
0.17261
0.881794
0.809179
-0.149287
-0.659893
-0.812083
0.105811
0.326957
-0.572851
0.635178
-1.03526
0.400082
-0.112905
0.311931
-0.00950601
-0.407812
0.261427
-0.177543
0.242087
-0.104715
-0.773569
0.878284
0.419664
0.307605
-0.715218
0.772415
-0.0571978
-0.0420131
-0.232858
-0.543957
-0.214193
-0.140571
0.156289
-0.0157179
-0.0290099
-0.289009
0.318019
-0.0840842
0.357098
-0.273014
-0.160205
0.541896
-0.574836
-0.131209
0.706044
-0.759006
-0.22808
0.987086
0.451003
-0.403398
-0.0476051
-0.305732
0.0163831
0.289349
0.149785
0.0784049
-0.22819
-0.879233
0.0198803
0.859352
0.0246806
0.219026
-0.243707
0.751373
-0.849932
0.098559
-0.411908
0.183511
0.282819
-0.46633
0.0114774
-0.152048
-0.372441
-0.255954
0.628395
0.619955
-0.987471
-0.976793
0.835346
0.141447
0.21102
-0.0353919
0.763236
-0.259366
-0.115893
-0.182906
0.298798
-0.0146304
0.216403
-0.201773
-0.200856
0.706155
-0.505299
0.88431
-0.629271
-0.255038
0.976057
-0.944758
-0.0312992
0.677008
-0.379787
-0.297221
0.0428594
-0.255399
0.212539
-0.322248
-0.0207821
-0.905238
0.800094
0.105144
0.114273
-1.01951
-0.278
0.682462
-0.404461
-0.453098
-0.26247
0.228003
-0.184828
-0.0431745
-0.781691
-0.193012
-0.216278
0.150969
0.0653097
0.181516
-0.147108
-0.928167
0.848591
0.0795757
-0.210494
0.190793
0.162031
0.267313
-0.0216328
-0.565847
0.0622223
0.179991
-0.199632
0.0196412
-0.262649
0.360358
-0.0977087
0.431605
-0.0472553
-0.213829
0.39639
0.197429
0.392536
0.294952
0.182174
-0.477126
-0.205612
0.54448
-0.636345
0.430239
0.206106
0.133472
-0.00275087
0.739119
-0.319456
0.513482
-0.35789
-0.120677
-0.259583
0.38026
0.236168
-0.760897
0.52473
0.575853
-0.615781
0.969162
-0.423292
-0.545871
-0.00598024
-0.530799
-0.105547
-0.695282
0.984306
-0.289024
-0.047282
-0.227571
0.872813
-1.01902
0.237325
-0.213262
-0.0463585
-0.202634
0.183139
0.182073
-0.0056326
-0.498344
-0.523411
1.08809
-0.41174
0.131699
-0.255399
0.1237
0.0547516
0.246007
-0.648738
-0.322345
0.971084
0.386287
0.194756
-0.0040973
-0.166214
0.170312
0.814404
0.141767
0.0169939
-0.158761
0.636938
0.178718
-0.34074
-0.920294
0.17559
-0.252182
0.0152403
0.236942
0.546475
0.646925
0.0785046
0.251678
-0.330183
0.9418
0.0342567
0.598166
-0.851422
0.253257
-0.806862
0.0140899
0.792772
-0.774487
0.966042
-0.191555
0.162816
-0.00446815
-0.158348
-0.365255
0.985209
0.117599
0.169042
-0.286641
0.0427062
-0.757924
0.520346
-0.22545
-0.294896
-0.828838
1.03414
-0.205302
-0.208783
0.560906
-0.352123
1.16905
-0.517617
-0.651434
0.055159
-0.614804
0.559645
0.145169
0.0131103
-0.389772
0.83637
0.547681
-0.896801
0.868368
-0.332362
-0.209137
0.175175
-0.831333
0.0244708
0.922779
-0.330932
0.00212272
-1.01821
0.328744
0.00814936
0.268785
0.593849
-0.862634
0.56929
-0.177117
-0.392173
0.594501
-0.950222
0.35572
-0.214372
0.0123634
0.202008
-0.201217
-0.491023
0.692241
0.385325
-0.267074
-0.567917
0.401141
0.166777
0.230399
0.177598
-0.407997
0.0834592
0.144543
-0.839508
0.958709
-0.119201
0.119814
0.0148052
0.458828
0.236533
-0.695361
0.302933
0.404545
-0.707478
0.177715
0.482269
0.0237806
0.951202
-0.0089238
0.79153
-0.782606
0.18257
-0.0794389
-0.322146
0.0113181
0.310828
0.636223
-0.458653
-0.17757
0.436017
0.533145
-0.212125
0.161463
0.0506612
-0.215685
0.757191
-0.541506
-0.000860944
0.197329
-0.196468
0.22917
-0.691736
0.462566
-0.318743
-0.20199
0.520733
0.683764
-0.0594026
0.270651
0.29864
-0.361651
-0.345858
0.707509
0.316831
-0.826682
0.102287
0.166079
-0.268365
0.206131
-0.0510222
-0.155108
0.00857194
0.136597
-0.0530328
0.865678
-0.812645
-0.0885552
0.85251
0.724818
-0.63318
-0.0916382
0.667709
-0.526631
-0.526099
0.241477
0.284622
-0.15811
-0.25063
-0.0922385
-0.0152961
0.107535
0.0726678
0.156862
0.150019
0.729392
-0.879412
0.2817
0.162863
0.139628
-0.898633
-0.479422
0.0513495
0.428073
-0.355176
-0.215618
0.570794
0.529708
-0.276189
-0.816337
0.541901
0.375933
-0.439691
0.0637585
-0.580029
0.840106
-0.260076
-0.437876
0.501512
-0.515301
0.492508
0.0227925
-0.705111
0.986243
-0.281132
-0.022725
0.242974
-0.220249
0.142437
-0.120282
-0.443052
-0.641422
0.991687
-0.350265
-0.53921
0.715728
0.48357
-0.535352
0.0517823
-0.105599
-0.120691
0.226289
-0.960653
0.661911
0.298741
0.00803359
-0.13306
0.125026
-0.0566032
0.500302
-0.701158
0.706971
-0.470803
-0.185097
-0.518625
-0.707264
0.69834
0.447153
0.0776272
0.229018
0.247461
-0.476479
-0.359912
0.337345
0.0225674
0.346958
-0.119508
-0.22745
0.301583
-0.480315
0.178731
-0.422581
0.572788
-0.150207
-0.70147
-0.112271
0.813741
0.108191
-0.213789
0.388077
0.248146
-0.979676
0.695923
0.283753
0.162989
0.113877
-0.276866
0.00648999
0.208239
-0.261966
0.0537272
-0.639078
-0.177081
0.478665
0.158719
0.221387
-0.178528
0.211571
-0.240581
0.342398
-0.496818
0.0219644
0.31082
-0.0102825
-0.298974
0.309257
-0.540508
-0.410775
0.951283
0.137484
-0.499136
-0.511497
-0.0064771
0.517974
0.0797997
0.250604
-0.330404
-0.00374281
1.07838
-0.696328
-0.382055
0.170772
0.638407
-0.0177063
0.581457
-0.350354
-0.231103
-0.301447
0.587023
-0.285576
-0.536311
-0.150069
0.68638
-0.479771
0.171251
-0.334244
-0.191855
1.21673
-0.46614
-0.750589
-0.219648
0.0815473
0.138101
0.329294
0.115623
-0.444917
-0.187092
0.211773
0.0879604
0.218432
-0.306392
-0.0977682
-0.0292525
-0.228942
-0.0107062
0.721293
0.495437
-0.496608
0.938506
-0.225142
0.835262
-0.182814
-0.0368337
-0.785006
0.248695
0.726301
-0.614079
-0.132819
-0.638851
0.135518
0.38773
-0.66573
0.594914
-0.687591
0.805902
-0.0289983
-0.209306
-0.128698
-0.20958
-0.14399
0.35357
-0.318659
-0.0441066
0.7131
0.128718
-0.841818
-0.0096923
-0.260311
0.270003
-0.122908
0.3955
-0.996342
0.600841
0.767856
-0.0164834
-0.920312
0.925862
-0.00554984
0.208123
-0.160544
-0.847323
-0.113329
-0.325473
0.800786
-0.000692009
0.278812
0.906317
-0.355061
-0.551256
-0.48627
-0.12399
0.61026
0.0392588
0.411812
-0.451071
-0.696596
0.0628324
-0.227354
-0.0713462
0.2987
-0.467428
0.608504
0.197917
0.470226
-0.668143
-0.373414
0.0761447
0.29727
-0.791079
0.0560626
0.735016
0.120357
0.586614
-0.285012
0.371345
0.305662
-0.209851
-0.212767
0.715415
-0.833377
0.165732
-0.358021
0.192289
-0.205841
0.291943
0.669507
0.0211363
-0.690643
0.607494
-0.832635
0.00908223
-0.223233
-0.234896
0.476709
-0.241814
-0.609406
0.236966
-0.033981
0.319038
-0.285057
0.172958
0.0785449
-0.251503
0.161849
0.124807
-0.271646
0.598604
-0.130454
-0.11204
-0.172967
0.184444
0.311714
-0.0900258
-0.210653
0.235751
-0.216727
0.205846
0.0108809
0.222513
-0.25006
0.0275478
-0.698682
0.58645
0.0465566
-0.558054
-0.0740783
-0.319738
-0.0367928
0.578803
-0.54201
0.341655
-0.401301
0.249679
-0.561125
0.311447
-0.463817
0.7749
-0.311083
0.271848
-0.968662
0.262001
-0.0268289
-0.949964
0.410833
0.677252
-0.705901
-0.110436
-0.645967
-0.329027
-0.440381
0.178355
-0.149556
-0.0672048
0.216761
1.07331
-0.526836
0.922567
-0.225489
-0.247763
-0.163808
0.411572
-0.838603
0.349838
0.488766
0.245562
0.077029
-0.230763
0.414273
0.179385
-0.101481
-0.589187
0.262249
-0.14465
0.0509672
0.223019
-0.273986
-0.117943
0.831043
0.108369
-0.20049
0.0921205
0.906884
-1.06302
0.519499
0.543516
0.142752
0.285275
-0.428027
0.692467
-0.488121
-0.204346
-0.536073
0.32729
-0.169177
-0.057751
0.387045
0.888604
-0.961167
0.432743
-0.193872
-0.323173
0.640004
-1.04556
0.716427
0.329132
0.250456
-0.714856
0.4644
-0.661172
0.713255
-0.0520827
0.296876
-0.502489
0.0124098
0.154996
0.296007
-0.0484428
-0.676241
0.239327
-0.982904
0.379253
0.603651
0.262647
-0.748917
0.721368
-0.0144834
-0.587221
0.105049
0.402354
0.996783
-0.333127
-0.663657
-0.506654
0.233797
-0.588974
0.17913
-0.894854
0.770864
-0.484292
0.32308
0.4256
-0.829468
0.572113
0.257354
-0.939414
0.608136
0.331278
-0.401175
-0.0298649
0.0729649
-0.927994
0.663912
0.264082
0.596784
-0.962038
-0.826976
-0.0125318
1.0335
-0.39832
0.57994
-0.050646
-0.529294
-0.0286684
-0.16703
0.195699
0.1498
0.463183
0.514666
-0.641305
-0.188162
0.146175
0.23915
0.189548
0.380611
-0.570159
0.406819
-0.237267
-0.0168135
-0.88669
0.903504
-0.380034
0.270955
-0.676791
-0.555659
-0.356256
0.911915
0.232425
-0.348069
-0.675629
0.2064
0.469229
0.105364
-0.0231399
-0.0822238
0.845415
-0.95013
0.19985
-0.434745
0.564576
0.11779
-0.682367
0.228381
-0.0966819
-0.786412
0.228393
0.558018
-0.546536
0.227793
0.27703
-0.578477
0.379395
-0.213663
0.0187206
0.086643
-0.0259709
0.977663
-0.572425
0.744322
-0.171897
0.961041
0.0192755
-0.980317
-0.537937
0.0917939
-0.42449
0.00404846
0.828172
0.140751
0.0346119
0.186308
0.0828538
0.222561
0.509133
0.277687
0.069271
-0.862001
-0.0661656
-0.864013
0.431748
-0.855276
0.182149
0.198809
-0.380958
0.894228
0.0607275
-0.954956
-0.123777
0.119308
-0.346032
-0.668357
-0.735175
-0.135217
-0.258109
0.865602
-0.317269
0.447046
-0.129777
-0.807386
0.266879
-0.279936
0.469485
-0.407087
-0.59542
-0.253953
-0.219332
0.364064
-0.452799
0.19015
0.989952
-0.189165
0.674088
-0.485659
-0.188429
-0.0481851
0.504576
0.280009
0.961318
-0.89324
-0.0487861
-0.228418
0.339229
-0.467155
0.533037
-0.462956
-0.538254
0.229888
0.175464
-0.405352
-0.856822
0.0246017
-0.132243
0.743805
-0.611562
-0.110165
-0.810147
-0.624849
0.642967
1.01411
-0.448006
-0.566102
-0.0429832
0.305953
0.691138
-0.291814
-0.399325
0.276482
-0.305735
-0.332707
0.0105616
-0.166348
-0.0117413
0.178089
-0.203485
0.432502
-0.383765
0.980548
-0.0128267
-0.172002
-0.273816
-0.0984135
0.372229
-0.00844743
0.853863
0.291994
0.0295316
-0.321525
-0.377616
0.567971
0.325054
0.432137
-0.484848
0.00542587
0.536312
-0.214634
-0.321678
0.365395
0.0219464
-0.387342
0.0181404
-0.620507
0.602367
-0.876399
0.141224
0.225938
-0.434901
0.866649
-0.0115485
0.288031
0.156357
-0.473626
-0.986601
0.502752
-0.803048
0.279176
-0.46045
0.072698
-0.29635
-0.540449
0.836799
-0.958448
0.00872437
-0.188484
0.17976
0.738135
-0.548863
0.54897
-0.509711
0.130027
0.522048
-0.652074
0.127382
-0.354736
-0.65075
-0.28841
0.93916
-0.301717
0.329922
-0.0282052
-0.443003
0.743918
-0.300915
0.684838
-0.530226
-0.154612
0.838195
0.0467814
-0.884977
-0.422337
-0.640679
-0.309943
-0.0545298
0.376099
0.653909
-0.0126551
0.111883
-0.099228
-0.618315
-0.168096
0.548861
0.532255
-0.514252
0.62893
-0.114678
0.170084
-0.15309
0.305722
0.123965
-0.429688
-0.0787382
0.187107
-0.0698311
-0.858163
-0.931509
0.561666
-0.185733
0.0323701
0.202678
0.0764678
0.690016
-0.766483
-0.507954
-0.0578929
0.608818
0.3123
0.0731342
-0.280486
0.28738
-0.372652
0.0852722
0.0184373
-0.328064
0.309627
0.51681
0.184229
0.288814
0.777978
-0.379796
0.731542
-0.460588
-0.121617
-0.255495
0.377111
0.719969
0.10415
-0.0128833
-0.653865
0.452648
0.824527
-0.832974
-0.333673
-0.38953
0.723203
-0.472339
-0.366264
-0.846885
0.860824
-0.013939
-0.210504
-0.358348
0.214358
0.485333
0.292645
0.194118
-0.257811
0.0636924
-0.329663
-0.689658
-0.215717
-0.677208
0.892924
0.561878
-0.17559
-0.189158
0.291445
0.473045
-0.819077
0.387052
-0.35639
-0.416694
0.920853
-0.504159
0.296116
0.381732
0.332673
-0.714404
0.835303
-0.501779
-0.333524
-0.370784
-0.57735
0.86585
-0.2885
0.497676
0.176411
-0.29825
0.286701
0.377372
0.791678
-0.227616
0.198947
-0.246146
0.246784
0.873221
-0.467281
0.421172
0.652139
-0.402444
0.211908
0.190536
0.276964
-0.397641
0.668691
0.000815035
0.650422
-0.0704819
-0.625081
-0.0152195
0.6403
0.195524
-0.02485
-0.170674
0.169518
0.0632723
0.162173
-0.93666
-0.29741
0.350469
0.635336
-0.592305
-0.0430305
0.179195
0.357117
-0.161758
0.0817092
0.283815
0.204372
-0.488187
-0.331392
0.69733
-0.0893204
-0.406436
0.900642
-0.494206
-0.178015
0.408414
-0.108433
-0.264982
0.965366
-0.502147
-0.298331
0.50959
0.182877
0.312796
-0.386874
-0.192874
0.170149
-0.27247
-0.155159
-0.00719728
0.302347
-0.144173
0.744032
-0.599859
0.232746
-0.224241
-0.321056
0.13815
-0.338554
0.0286108
-0.903906
0.631813
0.25573
0.209113
0.263708
-0.375505
0.111797
0.194598
0.119261
0.694172
0.383806
-1.07798
-0.119041
-0.0157498
0.134791
0.0440396
-0.790565
0.662007
0.352101
0.739613
-0.663145
-0.887481
-0.0447458
0.0326881
-0.38895
0.43006
0.541469
0.322621
-0.86409
0.418519
-0.0768641
-0.0255288
-0.301104
-0.10134
-0.55787
-0.436003
0.277894
0.373591
0.611844
0.545884
-0.481263
-0.0646216
0.200515
0.00533113
-0.0564811
0.257438
-0.0349258
0.709584
0.219443
-0.929027
-0.266311
0.317278
-0.237479
0.145411
0.0920679
-0.346331
-0.0159727
0.362303
0.331524
0.262159
-0.593683
0.203619
0.32609
0.630916
-0.0179121
-0.269239
0.33958
-0.256727
-0.0151711
0.0503319
-0.0351608
-0.88551
0.509226
0.776599
-0.61481
-0.161789
0.0195238
-0.158562
0.139038
0.781228
-0.834261
0.555945
0.00593252
0.160209
0.38876
-0.146357
-0.00880147
0.205809
-0.283628
0.077819
-0.411357
-0.136921
1.00631
-0.513251
-0.49306
0.736857
-0.224724
-0.512133
0.414727
-0.668278
0.253551
0.03847
0.458468
0.0478718
0.0153893
0.413707
-0.429097
-0.0644742
0.270283
-0.370858
-0.141186
-0.0593033
0.883485
0.013568
-0.897053
-0.44128
0.277818
-0.2881
0.191623
-0.0301601
0.152963
0.323746
-0.429295
0.345211
-0.00402051
-0.00393184
-0.0881214
0.153718
-0.346873
0.4769
0.00674838
0.282808
-0.0625484
-0.139078
0.594908
0.0412558
0.504629
-0.147384
-0.131696
-0.19184
0.475655
-0.146796
0.614474
-0.467679
-0.734134
-0.108146
-0.283123
0.731775
-0.448652
0.0818711
-0.223058
0.322141
-0.0579554
-0.0177164
-0.251266
0.268983
-0.764383
0.262236
0.140223
-0.144211
0.446359
-1.0951
0.326839
-0.90836
-0.287393
0.495244
-0.301159
0.503486
-0.299114
0.0105541
-0.553374
0.571514
-0.00271975
-0.159129
0.0606771
-0.464075
-0.129228
-0.541317
0.670545
0.22933
0.299419
1.10254
-0.72141
-0.381126
-0.210493
0.0759375
0.237657
0.020708
-0.258365
-0.719869
0.147444
0.200175
0.00595559
-0.00837874
-0.136981
0.145359
0.465922
-0.749046
0.0802694
0.412308
0.0566168
-0.468924
-0.723448
0.576653
0.156218
0.03702
-0.193238
0.344355
-0.985776
-0.149856
-0.00274529
0.152602
0.205047
-0.0488283
0.0195571
0.653413
-0.475698
0.522971
0.489413
-0.285794
-0.828687
0.273028
-0.60735
0.532887
0.0744629
0.37433
-0.708003
-0.460497
-0.25873
0.719228
-0.028838
0.401178
-0.29622
0.270557
0.875504
-0.0919412
-0.783563
-0.0103142
-0.851687
0.75682
0.0813754
0.411108
0.28003
-0.163109
-0.00310523
0.159356
-0.217019
-0.358221
-0.398884
0.336241
0.0626429
0.0273083
-0.895758
0.86845
-0.155431
0.389695
-0.234264
0.274181
-0.850615
0.576434
-0.0502313
-0.508212
-0.0307792
-0.0147873
0.594058
-0.335516
-0.175337
0.510853
-0.348122
-0.273661
0.433505
-0.25804
-0.219739
0.0525906
0.167148
-0.0980208
0.361728
-0.866467
-0.105866
-0.0712478
0.177114
0.22378
0.154277
-0.378057
0.552642
-0.880578
0.327936
0.0855713
-0.52713
0.148803
-0.977641
-0.467644
-0.542662
1.01031
-0.861851
0.0661281
0.795723
-0.950392
-0.715118
0.0539458
-0.317589
0.308057
0.00953229
-0.84986
-0.260055
0.969639
0.372502
-0.174801
0.105835
-0.297675
-0.128866
0.454956
0.154154
0.103286
-0.377102
0.0175595
-0.170552
0.152992
-0.169451
0.00433773
-0.112393
0.131917
-0.300129
0.442881
-0.980965
0.614527
0.366437
-0.179171
0.469503
0.487421
0.206874
-0.0113497
-0.0844259
0.278544
-0.4416
-0.234029
-0.51404
0.164596
0.349445
-0.0319871
-0.148763
0.18075
-0.412859
0.431296
-0.0822175
0.64488
0.524857
-0.232864
0.417706
-0.765828
0.423167
-0.479351
0.0561845
0.12399
-0.00931456
0.173038
-0.00959042
-0.824629
0.528278
0.28454
0.452317
0.013167
-0.201324
0.188157
-1.08363
0.458472
-0.0756682
0.172593
-0.189298
-0.0188795
-0.214806
0.233686
-0.521546
0.18603
-0.91287
0.843039
0.786255
-0.221678
-0.265775
0.245266
0.0205092
-0.241743
0.041614
-0.158235
-0.979022
0.39489
0.584131
-0.151456
0.135706
0.0270739
0.32593
-0.353004
0.486454
0.0694918
-0.24801
-0.00167964
0.24969
-0.285739
0.292487
-0.305452
-0.0368356
0.506953
-0.831891
0.896612
0.0451879
-0.538624
-0.289728
0.835644
-0.0403939
-0.79525
0.0851332
0.0866813
-0.171814
0.490266
-0.98861
0.45309
0.02483
-0.47792
0.0968879
0.236744
-0.333632