/*--------------------------------*- C++ -*----------------------------------*\
| =========                 |                                                 |
| \\      /  F ield         | OpenFOAM: The Open Source CFD Toolbox           |
|  \\    /   O peration     | Version:  2306                                  |
|   \\  /    A nd           | Website:  www.openfoam.com                      |
|    \\/     M anipulation  |                                                 |
\*---------------------------------------------------------------------------*/
FoamFile
{
    version     2.0;
    format      ascii;
    arch        "LSB;label=32;scalar=64";
    class       volVectorField;
    location    "0.25";
    object      U;
}
// * * * * * * * * * * * * * * * * * * * * * * * * * * * * * * * * * * * * * //

dimensions      [0 1 -1 0 0 0 0];

internalField   nonuniform List<vector> 
13486
(
(1.63595 -0.351755 7.02557e-19)
(1.77973 0.222665 3.84144e-19)
(1.94756 0.0998466 0)
(0.862488 -0.393148 1.96901e-19)
(2.60361 -0.24819 1.84697e-19)
(2.07633 -0.0712423 -1.37416e-19)
(2.67745 0.398919 -7.84901e-21)
(2.29449 -0.753352 -3.33501e-19)
(2.13306 -0.382899 0)
(2.1613 0.376517 0)
(1.77456 -0.626536 1.05125e-19)
(2.08986 0.00779958 0)
(1.49123 -0.547164 -7.04452e-19)
(2.38176 0.140336 -1.27258e-19)
(2.45275 0.145702 1.35119e-19)
(2.0846 0.406917 -3.21052e-19)
(1.84604 -0.893234 -1.52848e-20)
(1.89992 0.216716 4.69895e-19)
(1.91535 0.131964 4.09088e-21)
(1.77738 -0.0992076 -7.34072e-19)
(0.783602 0.00922163 1.34148e-19)
(1.52604 -0.534359 9.10434e-19)
(1.64007 0.176878 -3.0692e-19)
(1.95426 -0.147769 0)
(2.09322 0.37596 1.29979e-19)
(1.88656 -0.212594 7.70396e-20)
(1.59345 -0.772371 -9.02988e-20)
(1.74913 -0.0769669 -3.61535e-19)
(2.02628 0.0984322 0)
(2.00714 -0.0324645 2.31344e-19)
(1.33317 0.258626 1.3583e-19)
(2.2284 0.218674 -2.5597e-19)
(1.86591 -0.20294 -1.61189e-19)
(1.97815 0.0778407 0)
(2.31019 -0.678465 0)
(1.93313 -0.0443035 -5.21048e-20)
(1.96225 -0.0406423 1.67258e-19)
(1.82356 -0.829664 3.56305e-19)
(1.98525 0.00650864 3.98259e-20)
(2.12761 -0.320513 3.8566e-19)
(3.48598 -0.58449 0)
(1.36655 -0.649016 -8.17604e-19)
(2.03427 -0.111613 0)
(1.97923 0.197043 -6.05433e-19)
(2.13801 0.188906 2.47465e-19)
(2.12096 0.0795264 1.87338e-19)
(2.07964 -0.72087 -3.44804e-20)
(1.96192 -0.0696389 -2.32773e-20)
(1.99502 0.00322264 -1.26906e-19)
(2.02281 0.158435 -2.12316e-19)
(2.08162 0.178005 5.88199e-19)
(1.9835 0.0449642 0)
(2.07523 0.0288108 -3.42648e-19)
(1.86142 -0.679036 -5.17306e-19)
(1.87571 0.256336 0)
(2.56244 -0.255045 -1.22927e-19)
(1.93744 -4.46642e-05 -6.91047e-20)
(1.9643 0.0368578 1.51348e-19)
(2.12803 -0.148143 -2.16671e-19)
(1.99984 -0.118494 0)
(1.72165 -0.557872 1.34987e-19)
(2.1096 0.17224 0)
(2.24312 -0.386241 6.39569e-20)
(0.821213 0.109985 1.52457e-21)
(1.75467 -0.0491222 0)
(1.97171 0.0793676 8.77764e-20)
(0.939238 -0.408538 2.20163e-19)
(1.63131 -0.108218 2.48128e-19)
(2.07458 -0.389136 -2.03944e-19)
(2.05263 0.128138 -4.98609e-20)
(0.899822 -0.416427 -2.52469e-19)
(1.85245 0.177175 2.36038e-20)
(2.00715 -0.0464035 2.85784e-19)
(2.32185 -1.1816 -1.90134e-19)
(1.93192 -0.0149594 1.33912e-20)
(1.84419 0.0310361 1.40849e-20)
(2.01432 0.152369 -4.2681e-20)
(2.48746 0.104179 -5.56489e-20)
(1.99867 -0.733917 3.59074e-20)
(1.96195 -0.00323397 0)
(2.06367 0.0136795 3.84669e-22)
(1.75276 0.091135 -2.455e-20)
(2.22502 -0.393841 -2.32521e-20)
(2.16523 0.0366658 -3.51238e-20)
(1.68308 -0.342449 -1.38178e-18)
(1.62055 1.26574 0)
(2.13414 0.0576219 1.22915e-19)
(2.00013 0.102777 -8.97321e-19)
(1.93575 -0.00516128 -3.55618e-19)
(1.96821 0.70565 -3.9221e-19)
(2.21762 0.231105 -1.87754e-19)
(2.53749 -0.524589 -1.67429e-19)
(1.68964 -0.45016 1.83309e-19)
(1.56855 -0.00733447 2.03256e-20)
(2.08793 -0.609201 8.12789e-20)
(1.97442 0.0263796 9.47456e-21)
(1.68298 -0.812127 0)
(1.10148 -0.404004 -1.35727e-19)
(1.95975 -0.21211 -7.30532e-19)
(1.93792 -0.915215 3.17375e-21)
(2.05393 -0.137429 0)
(2.18195 0.302777 -5.51802e-20)
(1.13644 -0.371702 -5.15903e-21)
(1.96271 0.0566266 -1.7654e-19)
(1.60079 1.22252 0)
(1.92203 -0.895402 9.95082e-22)
(2.03671 -0.00310189 1.40653e-20)
(1.97671 -0.018873 9.50186e-20)
(2.02874 -0.741632 -2.84628e-20)
(2.47157 -1.08119 0)
(2.01819 -0.953554 0)
(2.30358 0.268924 -2.65939e-19)
(1.8668 -0.662556 3.68321e-21)
(2.07179 -0.0395083 3.78507e-21)
(1.31814 -0.223763 0)
(2.00951 -0.978654 -2.9817e-19)
(2.12214 0.21051 0)
(1.96426 -0.170146 0)
(2.00402 -0.12299 0)
(2.00817 -0.00383518 7.50897e-20)
(1.91784 0.198638 -2.12643e-19)
(1.72862 -0.584868 0)
(2.04743 -0.569663 0)
(1.98939 0.00465127 -1.29411e-19)
(2.15286 -0.714591 0)
(2.00654 0.00401196 0)
(2.43176 -0.0825409 8.01014e-21)
(2.12726 0.043751 3.78648e-19)
(2.09232 -0.070678 5.25044e-20)
(1.78532 -0.0254541 9.84869e-20)
(1.98765 0.00702838 1.78261e-20)
(2.10139 -0.736532 9.76322e-21)
(2.52455 -0.920938 1.83315e-19)
(1.27396 -1.83641 8.81967e-19)
(2.1112 0.00872839 -9.45261e-20)
(1.90032 0.251021 -4.31814e-19)
(0.979856 0.465 -2.1815e-19)
(2.43913 -1.03687 0)
(2.02958 0.00937782 -2.36516e-20)
(2.21697 -0.596446 -1.23872e-19)
(2.17722 -0.119732 2.01782e-19)
(2.21045 0.125034 2.9469e-19)
(2.24057 0.0673648 0)
(1.94757 0.0265339 0)
(2.06709 0.0731093 1.4496e-20)
(2.00797 -0.397728 1.4935e-19)
(2.08863 0.0561583 -8.15015e-20)
(0.512693 1.18557 0)
(1.94774 -0.117264 0)
(1.92415 -0.171708 0)
(1.9831 0.0271819 1.18629e-20)
(2.58702 0.0277564 0)
(1.94437 0.00330011 -4.03782e-22)
(1.78161 0.178727 -2.02558e-19)
(1.96078 0.0656849 0)
(1.82521 0.0576654 0)
(2.61183 -1.16396 0)
(2.01388 1.24689 -9.14677e-20)
(1.98587 -0.78116 7.25309e-19)
(2.00343 0.0586759 1.57344e-19)
(1.88839 -0.0671367 -1.91958e-19)
(2.01365 -0.739469 -1.10162e-18)
(2.18359 0.234359 1.40207e-19)
(1.26246 -0.60448 3.59005e-19)
(1.93942 -0.0218768 0)
(2.33755 0.116468 1.40846e-19)
(2.26871 0.187663 3.79629e-19)
(0.798202 -0.305504 -8.76702e-19)
(2.04772 0.0367085 2.14329e-19)
(1.07838 -1.71147 1.54993e-19)
(2.44448 -0.899431 -2.13539e-20)
(2.27869 0.197903 2.71357e-19)
(1.71024 -0.0506245 -8.27098e-19)
(2.37984 0.0375217 1.18327e-20)
(1.87053 -0.0432046 2.59167e-20)
(1.47715 -0.347127 0)
(2.50035 0.406922 -1.91835e-19)
(2.23979 -0.361663 -2.16309e-19)
(1.87836 0.0808974 -8.77953e-19)
(2.08278 0.0716784 0)
(2.1515 -0.29402 7.3629e-19)
(1.95897 -0.0317582 8.04419e-21)
(2.27267 0.10458 -2.25714e-21)
(1.34857 -0.6344 0)
(2.05333 -0.00720751 1.08309e-19)
(2.0119 -0.0870146 1.72901e-19)
(1.96696 -0.0156877 2.49807e-20)
(1.97806 -0.0554152 7.0555e-20)
(3.38117 -0.567909 0)
(1.8483 -0.886013 -3.85129e-19)
(1.99983 0.00998981 0)
(1.70948 0.091528 0)
(1.82868 -0.136165 0)
(1.52898 0.547821 -4.34281e-19)
(1.82525 0.000551764 0)
(1.76802 -0.622996 3.14933e-20)
(1.7767 -0.0470362 -2.2237e-19)
(1.99742 -0.200834 -8.32313e-20)
(1.67535 -0.801853 -1.54758e-19)
(2.33981 0.181899 1.0901e-19)
(1.36338 0.271077 -1.48924e-19)
(2.08728 0.00416382 -1.23986e-20)
(1.8146 -0.842526 -4.12584e-19)
(2.81672 -1.1134 -2.50096e-20)
(2.0144 0.0966204 -1.94374e-19)
(1.95425 0.00570164 1.25191e-19)
(1.82807 0.262874 1.97578e-19)
(2.00753 -0.200197 5.84005e-19)
(2.1243 0.125733 0)
(2.01686 0.0336809 0)
(2.16612 -0.092209 -2.04407e-19)
(1.92783 -0.0775817 -1.53412e-19)
(1.80128 -0.20208 6.71641e-19)
(1.72421 0.0907318 5.92156e-21)
(2.26603 0.258133 1.58355e-19)
(1.87628 -0.01226 -5.47061e-20)
(1.99867 -0.0115925 0)
(2.04291 0.609648 9.1827e-19)
(1.84147 -0.420386 0)
(2.46888 -0.231051 0)
(1.92224 -0.913828 2.22534e-20)
(2.19535 -0.0757941 0)
(2.26175 -0.537981 2.87877e-19)
(2.4409 0.034587 0)
(2.13228 0.21279 -5.26251e-20)
(1.58669 -0.724719 2.52972e-19)
(2.19618 0.00393664 1.39802e-20)
(1.39908 -0.0305209 -6.53093e-20)
(1.78841 -0.0496811 9.92068e-21)
(1.99732 0.0269677 3.55536e-21)
(2.09444 -0.215336 -2.39141e-19)
(3.72932 1.47208 7.89538e-19)
(2.1117 -0.146035 -2.52888e-19)
(1.33829 -0.632869 2.80084e-19)
(1.10157 -0.186701 0)
(1.63204 -0.774866 2.97548e-20)
(1.98019 -0.0231183 -1.41625e-19)
(2.13357 0.0494313 -2.60006e-20)
(1.54253 -0.733206 8.02215e-19)
(2.23614 0.00102519 0)
(1.99369 -0.258444 0)
(2.21356 0.235818 1.28987e-18)
(1.99928 -0.00993762 0)
(1.54931 -0.757475 2.722e-19)
(1.96517 0.000626121 9.72176e-20)
(1.84465 0.0447312 0)
(2.01518 0.179603 -5.36854e-20)
(2.05522 -0.10967 -2.61832e-19)
(2.03169 -1.09114 3.72158e-19)
(2.02144 0.177151 0)
(1.32263 -0.521674 5.76797e-20)
(1.29216 -0.191943 1.03146e-19)
(1.87943 -0.916241 3.69104e-19)
(2.0281 -0.0125267 0)
(1.96347 0.00436016 -7.68849e-20)
(1.50323 -0.373764 -3.26983e-20)
(2.32794 0.20458 2.14132e-19)
(1.76285 -0.0252453 6.91511e-20)
(2.0908 1.09203 9.37337e-20)
(2.09937 -0.162507 -1.08654e-19)
(1.81632 0.0501952 0)
(1.99286 0.00278381 -6.23203e-21)
(2.44214 0.175155 -3.23859e-19)
(1.44832 -0.365124 4.07301e-20)
(2.67585 -0.645605 -1.37976e-19)
(1.46721 -0.696237 0)
(1.80068 0.0530185 1.39656e-19)
(1.18525 0.196563 1.82457e-19)
(1.93246 -0.0635364 -3.43314e-19)
(1.94286 0.118507 0)
(1.79864 0.633076 3.37127e-19)
(2.00207 -0.0125278 -2.40556e-19)
(2.05787 -0.0647037 0)
(2.14765 0.162275 1.80021e-19)
(1.59671 -0.738879 3.36495e-19)
(1.93797 -0.1536 1.40316e-19)
(1.9619 -0.000719768 0)
(1.81696 0.0510739 0)
(2.04016 0.112683 8.18882e-20)
(2.15191 0.153724 1.3333e-19)
(1.72294 0.145483 -2.20253e-19)
(2.02081 -0.117956 -2.81615e-19)
(1.93497 -0.0211733 5.00659e-19)
(1.97178 -0.316288 1.06412e-19)
(1.67365 -0.597057 -1.69688e-19)
(1.82537 -0.849501 -9.80504e-20)
(2.08346 -0.162287 -2.49001e-19)
(1.8912 -0.0832884 -6.88551e-20)
(2.12351 0.108949 1.00609e-19)
(2.06163 -0.010146 0)
(1.05066 -0.161971 0)
(1.97222 -0.0601422 -1.09806e-19)
(1.9841 -0.947598 2.96797e-19)
(1.98096 -0.0942207 -9.12472e-20)
(1.97941 -0.042732 -1.47744e-19)
(1.98147 -0.0429367 0)
(2.20912 0.058456 1.95721e-19)
(2.00868 0.0589197 -1.48668e-19)
(1.92733 0.0261448 -4.58796e-19)
(3.06921 0.229825 -4.32253e-20)
(2.09854 0.285149 -1.67893e-19)
(1.90159 0.289107 -2.43172e-21)
(2.04818 0.0700764 -1.1461e-19)
(2.21158 0.1151 2.42903e-19)
(2.02515 -0.00204588 -2.76284e-20)
(2.61953 -1.18313 0)
(4.31289 1.63829 0)
(2.29359 -0.244046 1.04353e-19)
(2.02876 0.0773834 -1.06554e-19)
(2.00956 0.00369545 0)
(3.77169 1.47717 -2.93141e-18)
(0.788849 -0.36513 0)
(2.45072 0.463247 1.28324e-19)
(2.25735 0.26436 -2.70072e-19)
(1.86141 -0.433539 0)
(2.02956 0.222851 -2.66523e-19)
(1.8733 0.0104008 1.58371e-19)
(1.82304 0.234801 -2.93787e-20)
(1.8992 -0.0845082 -6.67816e-19)
(1.75855 -0.0536259 0)
(1.96739 0.041793 -1.58451e-19)
(1.9788 -0.0333784 4.83447e-21)
(1.97922 0.00565395 1.08988e-19)
(1.77502 -0.0178849 -3.82387e-19)
(1.04951 0.432953 3.95339e-19)
(2.10421 0.127724 3.45176e-19)
(2.4183 -0.162313 -7.32027e-19)
(2.21374 -0.038292 0)
(2.18614 0.0215916 4.64743e-21)
(2.49693 -0.102051 -1.36206e-19)
(2.11513 0.0325116 1.30838e-18)
(2.55447 -0.539397 0)
(2.1105 0.18292 -9.26089e-20)
(1.66168 0.158467 0)
(2.67625 0.356021 -2.00436e-19)
(2.17929 -0.561617 -2.18227e-19)
(1.10716 -0.515914 3.30595e-19)
(2.65021 0.0305075 -1.72546e-19)
(2.182 0.0499349 0)
(1.97531 0.0239713 1.50247e-19)
(2.2013 -0.00136715 -1.19637e-19)
(1.71524 0.0563441 3.611e-19)
(2.42069 -0.174244 5.2054e-19)
(2.22614 0.178465 2.84596e-19)
(1.51713 -0.639965 1.44182e-19)
(2.02273 0.0471143 1.8915e-20)
(1.83106 -0.0508099 0)
(1.29127 -0.488724 8.0307e-19)
(2.4606 -0.30532 0)
(1.92162 0.00479916 5.14503e-21)
(1.87248 -0.0994092 4.36475e-19)
(2.06132 0.0577193 -1.74419e-19)
(2.14261 0.108571 1.35526e-19)
(1.64491 -0.793938 1.19519e-19)
(1.91978 -0.00218458 5.70119e-19)
(2.13288 -0.0391174 0)
(2.36212 -1.22383 -1.57609e-19)
(2.2968 -0.0921364 -1.54991e-19)
(1.98674 0.0356553 7.01892e-20)
(1.82086 -0.124016 -1.4982e-19)
(2.33651 0.00795288 0)
(2.13013 0.104871 2.69965e-19)
(1.80745 0.101384 8.2799e-19)
(1.87262 0.0805346 7.29913e-19)
(2.01 -0.0703786 0)
(1.99351 -0.00458854 -7.79733e-21)
(1.98439 -0.0425625 1.33014e-19)
(2.16415 -0.731728 2.52023e-21)
(1.72403 -0.162536 9.32793e-20)
(2.25805 -0.183575 1.47362e-19)
(2.15106 0.0440466 -2.284e-21)
(2.42897 -0.0154119 0)
(2.11643 0.0929025 -2.4331e-19)
(1.39079 -0.536477 -5.38245e-20)
(2.24373 0.0392528 -2.49365e-19)
(2.07756 0.105949 5.10352e-19)
(1.79932 -0.0394566 0)
(1.96742 -0.00754039 2.08535e-19)
(1.92408 -0.46116 0)
(2.88754 -0.384459 -8.17685e-20)
(1.86679 -0.288108 0)
(2.54067 -0.678756 -1.21332e-20)
(1.52275 -0.25616 -1.96481e-19)
(1.75622 0.519762 7.77178e-19)
(2.08748 -0.743345 7.77498e-21)
(1.9142 0.0394395 0)
(2.07601 0.0164761 -3.94702e-19)
(1.9652 0.156617 -3.35802e-19)
(1.85656 -0.913906 -3.80812e-20)
(1.24899 0.566826 -2.50019e-20)
(1.7848 -0.126806 -1.03337e-18)
(1.94992 -0.158406 -1.05544e-19)
(1.97968 0.133809 2.71861e-19)
(1.69971 -0.527484 0)
(1.55822 0.13904 4.05136e-19)
(2.00717 -0.00145095 7.34182e-20)
(0.863046 -0.387289 -1.12855e-19)
(1.36416 -0.533664 1.90644e-19)
(1.96963 -0.95506 -3.57599e-20)
(2.27487 0.0109249 0)
(1.97713 -0.968899 0)
(2.1853 0.651034 0)
(1.82879 -0.0315321 0)
(4.03224 0.0938603 -7.60447e-19)
(2.57214 0.356115 0)
(2.07359 0.106389 0)
(1.9251 -0.0354022 1.49696e-19)
(2.25088 -0.110617 2.23417e-19)
(2.17929 -0.0773227 -3.97162e-19)
(1.78274 0.179929 1.32821e-18)
(2.20657 0.0746613 -1.84232e-19)
(2.75399 1.09149 0)
(2.03282 -0.0299923 0)
(1.84477 0.0298839 4.73914e-19)
(1.97207 -0.00036005 9.29693e-20)
(1.55196 0.590597 0)
(1.32739 -0.606907 -1.52384e-19)
(2.70572 -0.690755 1.55499e-19)
(2.3681 -0.89571 0)
(2.16235 0.158012 2.98657e-19)
(1.85744 -0.0695274 -5.87455e-19)
(1.99782 0.489954 -1.67935e-19)
(1.29592 -0.469121 0)
(1.97269 0.15867 6.38245e-19)
(2.05817 -0.0321298 0)
(2.0004 -0.0302273 0)
(1.88041 -0.080511 -5.72258e-20)
(2.05564 -0.00599327 2.73506e-19)
(1.65994 -0.807383 1.16053e-19)
(2.18824 0.198592 1.24572e-19)
(1.59191 -0.471284 -3.47367e-19)
(2.18653 -0.0535706 5.40273e-20)
(2.05886 0.0529194 2.40446e-19)
(2.09185 0.0357183 6.7014e-19)
(2.82128 -0.560862 0)
(1.94308 -0.172299 -1.54534e-19)
(1.56687 -0.149506 0)
(1.94316 -0.0107463 -1.15194e-19)
(2.26383 -0.141719 0)
(1.63932 -0.092893 5.23627e-19)
(2.06899 -0.837152 -1.92048e-20)
(2.0938 -0.0522573 0)
(3.28488 -2.07792 5.44461e-20)
(1.8391 -0.0989696 2.17668e-19)
(2.03974 0.110365 1.59817e-19)
(2.00348 -0.310588 9.62882e-19)
(1.56843 0.500625 -4.95181e-19)
(1.56033 -0.440115 -9.82294e-19)
(2.73593 -0.425514 0)
(1.97615 0.0378378 -7.74218e-20)
(1.52439 -0.647173 3.40161e-19)
(1.99569 0.0735986 0)
(1.95546 0.231749 3.19852e-20)
(1.96395 -0.172651 4.64546e-20)
(2.65543 0.295261 0)
(1.88636 0.0239871 0)
(1.16463 -0.55505 0)
(1.53796 -0.320729 -1.43737e-19)
(1.82896 -0.234383 -1.2709e-19)
(2.11411 -0.385208 -1.49945e-21)
(2.31364 0.422346 0)
(1.94126 -0.226736 6.41899e-19)
(1.99056 -0.0677422 -4.80312e-20)
(2.3498 0.249673 -3.08811e-19)
(0.755393 -0.228492 -1.964e-19)
(1.90625 0.111495 0)
(1.98686 -0.104314 0)
(1.05231 -0.283215 -5.47244e-19)
(1.67681 -0.521525 -2.41255e-19)
(2.02864 -0.159688 0)
(2.21995 -1.06102 -2.56838e-19)
(2.09747 -0.0915711 2.16151e-21)
(2.01497 0.0781732 -9.49392e-21)
(1.18039 -0.540491 0)
(1.88595 0.0154255 -1.05153e-19)
(2.00312 0.0323578 -7.67863e-20)
(2.18164 -0.063438 -2.67268e-19)
(2.19131 -0.555572 0)
(1.84021 -0.855673 1.44906e-19)
(2.08446 0.0761945 1.62192e-19)
(2.00332 0.132438 1.28112e-19)
(1.93708 0.0120644 -3.56176e-20)
(2.48609 0.0785679 0)
(1.85262 0.0912892 -3.55791e-19)
(2.43847 -0.207961 5.74426e-20)
(1.91454 -0.932003 2.85871e-21)
(1.9502 0.17498 0)
(1.23417 0.532148 2.57478e-20)
(0.824238 -0.266482 0)
(2.0554 -0.0820829 -5.15624e-19)
(1.62829 0.184816 2.0237e-19)
(1.92958 -0.0152796 -8.35707e-20)
(1.41806 -0.368035 0)
(2.13004 -0.0515398 -6.34251e-20)
(1.31786 0.208124 1.08897e-18)
(2.76688 -0.57276 0)
(1.76635 0.12009 4.47595e-19)
(2.99394 0.101159 4.94856e-20)
(1.94358 -0.2119 0)
(1.25111 0.154248 -8.27199e-20)
(1.83794 0.114296 1.87245e-19)
(2.01265 -0.00634969 0)
(1.91778 -0.859255 -5.45988e-20)
(1.82936 0.0419254 0)
(2.06528 -0.916016 2.886e-19)
(1.37703 -0.493702 -1.0888e-19)
(2.08056 0.0570768 -2.30671e-20)
(2.20055 0.106901 2.38494e-19)
(1.55801 0.0890208 2.13719e-19)
(1.77925 -0.333376 -3.57349e-19)
(1.93007 0.0196911 7.32387e-20)
(2.05643 -0.886134 3.88507e-21)
(2.2128 -0.300591 1.55299e-19)
(2.42445 0.0459565 -2.5127e-19)
(2.60549 -1.12292 0)
(1.89981 -0.196534 -4.51958e-19)
(2.39774 -0.923446 -7.703e-20)
(1.63131 -0.18725 0)
(2.01135 0.0186793 2.52404e-20)
(2.11984 -0.0677343 0)
(1.47311 -0.459084 8.50511e-19)
(2.50138 -0.791038 0)
(1.88863 0.00549011 9.4865e-20)
(2.39919 0.00383155 -2.47298e-19)
(1.32652 0.0966215 -1.53259e-19)
(1.18375 -0.553081 -1.92249e-19)
(2.06999 -0.257007 -2.46321e-21)
(2.34925 -1.09833 1.68114e-19)
(2.00404 -0.489963 3.2747e-19)
(1.72329 -0.433098 0)
(1.43946 -0.684015 8.2301e-20)
(2.88356 -0.420119 -3.23469e-20)
(1.48869 -0.708549 9.58246e-20)
(1.84168 -0.100901 8.44498e-21)
(1.68118 -0.65445 0)
(2.09704 0.163099 -4.2653e-21)
(1.42049 -0.665178 0)
(1.17135 -0.364426 -4.79143e-21)
(2.00112 0.471496 2.12686e-19)
(2.13195 1.15445 0)
(2.38176 -0.484223 8.91919e-20)
(1.58323 -0.0965583 0)
(2.76396 0.173318 0)
(2.03459 -0.948929 -3.81355e-19)
(1.71828 0.0887063 3.31981e-19)
(1.83498 -0.106223 0)
(1.8255 0.0922763 -2.30121e-19)
(1.97058 -0.419987 -1.59609e-19)
(1.41918 -0.54966 -2.35683e-19)
(2.91149 0.395584 0)
(2.06142 0.00553258 0)
(1.56535 -0.649511 1.42063e-19)
(1.76146 -0.13448 0)
(2.02541 0.0580365 0)
(1.70109 -0.532191 -2.17479e-22)
(2.15328 -0.258969 -4.82701e-19)
(1.98739 -0.442767 2.8471e-19)
(2.07586 -0.146446 -1.69812e-20)
(1.3742 -0.665553 -1.76849e-19)
(2.07801 0.151764 2.21879e-19)
(1.68798 -0.40551 0)
(2.24927 0.00700394 -1.19858e-19)
(1.64174 -0.291382 0)
(2.09508 0.0116827 0)
(1.97681 0.128553 0)
(2.2773 0.176608 -4.74553e-20)
(1.97035 -0.123885 3.08182e-19)
(2.02012 0.00847097 -2.58804e-20)
(1.75045 -0.460751 0)
(1.56132 -0.753975 9.33948e-20)
(2.19042 0.626065 2.00309e-19)
(2.12698 -0.737976 2.97368e-20)
(1.95899 -0.0241879 1.19575e-19)
(1.86767 -0.0955305 -3.15439e-19)
(2.0646 0.0524334 -3.38559e-19)
(2.09071 -0.860034 0)
(2.09822 0.0559111 0)
(1.61186 0.540262 0)
(1.50298 -0.663784 -6.14233e-19)
(1.55786 0.046732 1.71541e-19)
(2.20882 0.990076 0)
(2.10714 0.201142 0)
(2.03843 0.0988624 2.22114e-19)
(1.69044 0.0799162 -7.93077e-20)
(2.02261 0.236283 4.51796e-19)
(2.89534 -1.12961 0)
(1.69633 -0.736783 4.02914e-20)
(2.05569 0.0526996 2.54915e-19)
(1.61591 -0.49602 -5.84492e-19)
(2.19612 0.114868 -3.25071e-19)
(2.18916 0.168847 3.72839e-19)
(1.80443 -0.289501 -1.07303e-19)
(1.4876 -0.65614 1.0722e-18)
(1.85922 -0.00983409 -1.97967e-19)
(2.00639 0.0237536 1.12255e-20)
(2.12162 0.00308509 -1.03667e-19)
(2.04897 -0.962904 -7.51628e-20)
(1.85009 0.0356334 -8.42905e-20)
(1.90213 1.71808 -1.41635e-19)
(2.16461 -1.01536 1.35556e-19)
(1.85088 0.150042 0)
(1.96629 0.113713 -3.47669e-20)
(2.02197 -0.0267437 -6.64187e-19)
(2.49534 0.0177611 -4.15498e-20)
(1.59481 -0.451971 -5.3124e-19)
(2.12568 -0.675068 -3.29726e-19)
(1.98588 0.224313 7.6719e-19)
(2.17972 -0.428578 -4.38015e-19)
(2.01405 0.0562196 -2.10715e-19)
(2.1098 -0.00124428 1.32155e-19)
(1.36448 -0.303626 -1.15708e-18)
(2.06305 0.192606 -5.59886e-19)
(1.37908 -0.357479 0)
(1.35029 -0.0193889 2.76802e-19)
(1.88516 -0.16854 7.75879e-19)
(2.05092 0.113435 -5.08325e-22)
(2.28844 -1.13692 0)
(2.52958 -1.12103 0)
(2.07404 0.25507 4.61635e-19)
(1.29126 -0.308305 7.1822e-19)
(1.74461 -0.173261 1.64783e-19)
(2.54955 -0.644649 -1.32054e-19)
(2.34021 -0.117382 3.98518e-19)
(2.49367 -0.232666 0)
(2.08255 0.243314 2.60016e-19)
(1.92273 0.303806 9.84097e-21)
(2.58058 0.412514 -1.72223e-19)
(2.17453 -0.199985 -4.03123e-19)
(1.47077 -0.711124 2.90511e-19)
(1.94428 -0.104322 3.00679e-19)
(1.76128 -0.159416 -7.45848e-20)
(2.48065 0.633568 0)
(1.92917 0.00304236 8.25783e-20)
(2.00583 -0.00872034 7.67402e-20)
(2.01964 -0.0294222 1.63333e-20)
(1.26346 -0.603539 9.85662e-19)
(2.0721 -0.117862 6.10047e-19)
(1.99168 0.0650147 -8.80943e-20)
(1.39833 -0.549608 1.41497e-19)
(2.0012 0.0373328 8.98396e-20)
(2.07651 -0.109233 4.99004e-19)
(1.68073 -0.634249 2.13953e-20)
(2.43387 0.373894 3.7214e-19)
(1.90799 -0.880447 5.92066e-20)
(1.57843 -0.76038 -3.26596e-19)
(2.01163 0.00867264 0)
(1.91091 -0.131458 -4.48479e-20)
(1.61796 -0.507214 7.42834e-20)
(1.5418 -0.26654 1.05058e-18)
(1.97711 -0.0489227 0)
(2.07302 0.226284 1.94029e-19)
(1.43048 -0.59281 2.42731e-19)
(1.93754 -0.144073 -9.59771e-19)
(1.44912 -0.657566 1.54739e-19)
(2.03987 0.132748 5.00943e-20)
(2.11869 -0.059539 2.68694e-19)
(2.21794 -0.0805631 5.94763e-19)
(2.11681 -0.937934 -3.89582e-19)
(2.03467 -0.00499841 3.11059e-20)
(1.59853 0.0262554 3.59462e-19)
(2.11859 -0.0948495 6.23498e-19)
(2.04591 -0.0635761 -2.31869e-19)
(2.07841 0.00924091 3.3005e-21)
(1.78476 0.10967 -4.87327e-19)
(1.40493 -0.611631 -4.69846e-19)
(1.98271 -0.00353026 0)
(1.44042 -0.222617 -1.35648e-19)
(1.99659 -0.00609568 6.56043e-20)
(2.03378 0.491439 -2.10043e-19)
(1.88207 -0.165802 2.6057e-19)
(2.30512 -0.176237 -2.46905e-19)
(1.92586 0.000234468 -8.66732e-19)
(2.05901 0.094947 1.68302e-19)
(1.2814 -0.603797 1.56394e-19)
(1.8949 -0.17297 0)
(1.95488 0.00803018 -1.0801e-19)
(2.06209 0.0880362 1.78565e-19)
(1.70766 -0.633429 0)
(2.11792 0.0211638 3.94746e-19)
(1.78702 0.141861 2.54637e-19)
(2.08125 -0.0471182 1.72177e-23)
(3.62979 -0.619902 2.58452e-19)
(1.92671 0.0111582 0)
(1.77388 0.154186 7.01446e-19)
(2.00338 0.042052 9.37469e-20)
(2.08006 -0.986707 3.10992e-19)
(2.085 -0.15645 0)
(1.54218 0.153668 -9.64342e-19)
(1.94233 0.196407 -2.09503e-19)
(2.81899 0.740828 -5.86707e-20)
(1.39277 -0.306792 1.12174e-18)
(1.93259 -0.216169 6.9454e-20)
(1.23985 -0.583871 -1.5033e-19)
(2.14241 -0.230521 -4.73343e-19)
(1.94225 -0.127123 2.33572e-19)
(1.87461 0.0179634 -4.7195e-19)
(1.84993 -0.232188 0)
(1.94449 0.053704 -4.08286e-19)
(2.39175 0.30672 3.70429e-18)
(2.35935 -1.4863 0)
(1.84861 -0.220453 0)
(1.99831 -0.00348388 0)
(1.88697 -0.913197 0)
(1.86355 0.0714445 0)
(1.34885 -0.300822 0)
(1.85714 -0.0409146 -2.00671e-21)
(2.005 -0.348484 1.06643e-19)
(2.29959 0.0291168 0)
(1.94005 0.278707 9.89401e-19)
(1.89411 0.0616737 4.32158e-19)
(2.22965 0.197204 -1.43006e-20)
(1.63946 -0.510814 3.57175e-20)
(1.3287 -0.101532 -1.42368e-21)
(1.36992 -0.653149 -1.36367e-19)
(2.05221 0.0806279 -1.90723e-19)
(2.16694 -0.250732 -2.12286e-20)
(1.97872 0.0986645 -3.34014e-19)
(1.86577 0.114442 -6.91007e-19)
(2.15558 0.621265 -3.88516e-19)
(2.86834 -0.261289 0)
(0.746481 0.348032 -5.47929e-20)
(1.50066 -0.476404 -9.32566e-19)
(1.98457 -0.0632966 -1.22601e-18)
(2.86539 -0.423951 -1.24778e-19)
(2.25051 0.0499373 7.85142e-20)
(3.35797 0.267333 -2.2103e-19)
(2.17264 -0.190035 -5.60468e-20)
(2.29423 -0.461767 -3.15128e-19)
(2.09564 0.237625 3.49638e-19)
(4.70299 0.630225 0)
(1.93243 0.0211287 7.3927e-20)
(1.80885 -0.0542531 -1.49311e-19)
(2.41688 0.295222 0)
(1.97638 0.0482886 0)
(2.24647 -0.991901 -5.57009e-21)
(1.22571 -0.543467 -1.61743e-19)
(1.90419 -0.0552895 2.4308e-19)
(1.97382 0.0151339 0)
(1.96556 -0.0703323 -6.26382e-19)
(1.82063 0.0255932 -1.27966e-19)
(1.31367 -0.186204 -8.73585e-20)
(2.09533 -0.00103397 9.13874e-20)
(1.33507 -0.64923 0)
(0.684947 0.197684 -6.11494e-20)
(2.07581 -0.049804 0)
(1.99691 -0.0741901 -9.77208e-20)
(2.14189 0.177605 -1.88118e-19)
(1.88706 -0.0232146 9.38734e-21)
(2.32483 0.361461 -6.66328e-19)
(2.83996 0.401026 -3.07612e-20)
(1.91936 -0.5856 6.84002e-19)
(1.56154 0.438138 0)
(1.84091 -0.0160674 2.2826e-19)
(1.89759 0.0960597 0)
(2.22776 -0.116217 7.23272e-20)
(1.32094 -0.197464 -1.85068e-19)
(1.95998 -0.17369 -1.50085e-19)
(1.97394 0.00831108 9.41842e-20)
(1.55796 -0.399691 1.94447e-19)
(1.95422 -0.948865 -3.59764e-19)
(1.54026 -0.496514 -5.36963e-19)
(2.02534 -0.00381145 -2.48031e-20)
(1.79786 -0.0665194 -1.86029e-19)
(1.41809 -0.616022 3.86699e-19)
(1.53492 -0.519308 5.9634e-19)
(1.55588 0.0551368 -2.28e-19)
(1.76222 -0.045813 1.06966e-19)
(2.13362 -0.592708 3.34897e-19)
(2.15335 -0.773566 1.63175e-20)
(1.68737 0.0639695 1.72078e-20)
(1.91641 0.186116 -3.79844e-19)
(2.14025 0.120703 -2.10212e-19)
(2.60907 -0.264308 0)
(1.78209 -0.853461 -2.38862e-20)
(1.77486 -0.0260918 -7.19963e-19)
(2.00929 0.103076 0)
(2.27143 0.0141901 0)
(1.6277 0.0441915 2.39968e-19)
(1.97632 -0.185024 1.72887e-19)
(2.09056 0.00394694 -5.38992e-19)
(2.23207 -0.302155 6.33941e-19)
(1.99665 0.52634 3.44527e-19)
(1.83997 0.121771 4.91893e-19)
(1.34412 -0.265984 -7.89966e-22)
(1.97276 0.374474 0)
(1.57875 -0.520678 5.73486e-19)
(1.92405 -0.649267 -2.09376e-20)
(1.5268 -0.389377 -1.48805e-19)
(1.96497 -0.743365 1.11588e-19)
(2.7671 -1.20995 2.93549e-20)
(2.39525 0.187679 2.25598e-19)
(1.95749 0.0168214 -4.63214e-20)
(1.95969 -0.0548095 -2.47402e-19)
(1.31914 -0.297722 1.12312e-19)
(2.41847 0.256234 4.10093e-19)
(1.91894 0.0241276 2.81763e-19)
(1.36488 -0.332871 -4.61181e-19)
(2.15966 -0.142089 3.87149e-19)
(1.97408 0.0282587 0)
(2.31204 0.0928866 4.18184e-19)
(1.9724 0.0579294 6.56187e-20)
(1.65851 -0.328337 -1.84206e-19)
(2.18051 1.40573 -9.64113e-20)
(2.05527 -0.636082 2.5352e-19)
(2.04485 0.0278009 1.2281e-19)
(1.50907 0.0465015 -7.17663e-19)
(2.52262 0.308648 0)
(1.97625 -0.0188465 1.78145e-19)
(1.99229 -0.0550139 4.39404e-19)
(1.93739 0.0975897 0)
(1.51274 -0.0614794 4.09209e-19)
(2.11443 0.118723 0)
(2.09512 1.43619 5.33842e-19)
(2.25944 0.405183 0)
(1.95578 0.0346734 0)
(2.14275 0.0150547 8.3794e-20)
(2.01816 -0.12464 3.08713e-19)
(2.1857 -0.20898 1.86574e-19)
(1.9479 0.114983 -3.29014e-19)
(1.83828 0.836187 -2.31503e-19)
(1.88737 0.137833 -1.64983e-19)
(2.20929 0.198898 0)
(2.0693 -0.523984 1.75127e-20)
(2.13962 0.00518968 -2.86779e-19)
(1.897 -0.014708 1.95648e-19)
(2.59478 -0.246303 0)
(2.42964 -0.0690431 -3.67667e-20)
(2.56425 1.19907 -1.13277e-20)
(1.9739 -0.0295782 8.47567e-20)
(1.6803 -0.292426 0)
(1.70569 -0.52532 -1.15819e-19)
(2.06821 0.126498 0)
(1.98487 -0.0527585 1.24672e-19)
(1.80529 -0.977871 0)
(2.16701 -0.50722 0)
(1.85652 0.00677383 0)
(2.41167 -0.79353 0)
(1.76254 -0.652936 1.77847e-20)
(1.4535 -0.280424 3.33771e-20)
(1.82639 -0.0178424 -4.63287e-19)
(1.29103 0.0801091 1.72581e-19)
(1.50257 -0.637347 0)
(1.43917 0.00361549 1.135e-19)
(2.11587 -1.11833 -3.77111e-19)
(1.85424 -0.850917 0)
(1.70309 -0.600581 -6.08771e-19)
(1.88859 0.0259139 2.44647e-20)
(2.27096 0.20153 5.42079e-19)
(3.29128 -0.67158 -1.07622e-19)
(1.87042 0.113186 0)
(2.65391 -0.609945 0)
(2.35691 -0.288544 -3.41068e-20)
(1.94008 0.0458892 -2.0668e-20)
(1.99623 -0.0116774 5.68709e-20)
(1.91579 0.0897252 -1.69591e-20)
(2.1482 -0.115999 2.94421e-20)
(2.10678 0.130616 1.25296e-20)
(1.79433 0.256999 5.40774e-19)
(2.01423 0.0276369 -9.10179e-20)
(2.12074 -0.537973 0)
(1.7297 -0.812357 0)
(2.00248 0.0205254 0)
(2.02386 0.0732792 0)
(1.92663 -0.392169 2.59658e-19)
(2.12454 -0.082383 0)
(1.75527 -0.591808 -2.24233e-19)
(1.70398 0.040991 2.06416e-21)
(1.5871 -0.539173 -8.97892e-19)
(1.92477 0.225534 -1.99685e-19)
(1.43665 -0.229791 7.25733e-20)
(1.79338 -0.606155 1.0338e-19)
(1.94491 -0.0123388 8.9746e-20)
(1.37383 -0.35028 1.00465e-19)
(2.00293 0.0593986 -1.43397e-19)
(2.22864 0.12883 0)
(2.48965 -0.0108105 0)
(1.9623 0.0933597 0)
(2.42854 -0.292547 1.29194e-19)
(1.75305 -0.107139 0)
(1.99161 0.327922 0)
(1.99744 0.0211729 0)
(1.97871 -0.443604 2.65809e-19)
(1.94594 -0.00481746 -5.46649e-19)
(2.1986 -0.113354 0)
(1.85843 -0.0310812 2.03523e-19)
(1.90619 0.185014 -4.48354e-19)
(2.44983 0.326546 3.6968e-19)
(1.84257 -0.829246 3.57616e-19)
(1.98947 0.383097 5.85821e-21)
(1.99386 -0.109795 1.34815e-20)
(1.98977 -0.0351673 -8.08419e-20)
(2.05706 -0.011644 1.1767e-19)
(2.33441 -0.18407 -4.08969e-19)
(1.99913 -0.00571024 1.3051e-19)
(1.87193 -0.00283566 -4.52819e-19)
(2.11333 -0.0261963 0)
(2.06332 0.486111 1.59275e-19)
(1.83316 0.113743 5.25933e-19)
(1.84843 0.269096 -2.33516e-19)
(2.26786 -0.199392 -1.63342e-19)
(1.31648 -0.310687 -7.83995e-19)
(2.28317 0.0285646 6.7209e-20)
(2.32419 -0.272618 -8.27318e-20)
(2.16331 -0.0692536 0)
(2.14461 -0.0221873 -8.94675e-20)
(1.97888 0.0235306 3.89784e-20)
(1.90652 -0.0139361 -2.5221e-19)
(0.754811 -0.152889 2.24602e-19)
(2.06835 -0.00553777 2.60773e-19)
(2.01335 0.0235668 -1.19257e-20)
(1.97332 0.0379385 -5.72777e-20)
(2.01145 0.00742466 0)
(1.93993 0.160054 0)
(1.7562 -0.817935 4.40074e-19)
(1.4013 -0.649076 -1.65749e-19)
(1.93748 0.0618553 2.10699e-21)
(2.12244 0.053144 1.06485e-18)
(1.9326 0.0437689 2.63441e-19)
(1.70382 0.167748 0)
(1.9971 -0.0397408 0)
(1.80142 -0.403069 -5.27639e-21)
(1.97537 -0.135348 1.44976e-19)
(1.99388 0.35219 6.38897e-19)
(2.15723 0.164168 0)
(1.7248 0.0664836 0)
(2.3712 -0.457048 4.00594e-19)
(2.06293 -0.180454 3.54849e-19)
(-0.0481903 -1.18434 -1.41718e-19)
(1.96493 0.0193326 0)
(2.19267 -0.544967 -1.66093e-20)
(1.94674 -0.0480384 5.88868e-20)
(1.58256 -0.492725 9.91169e-20)
(1.97223 -0.0945143 -5.21146e-19)
(2.04362 -0.30674 0)
(1.96319 -0.181461 -1.39934e-19)
(1.68416 -0.280355 1.60702e-19)
(-0.645918 -0.897189 0)
(2.07625 0.151803 1.06551e-19)
(1.95291 0.0451217 -3.35199e-19)
(2.0696 0.115377 6.14114e-23)
(2.10914 0.15626 1.12098e-19)
(4.02871 2.50635 9.88198e-19)
(2.01707 0.0674706 0)
(1.30552 -0.502759 -4.76728e-21)
(2.10603 0.078573 -2.34024e-19)
(1.79815 -0.381115 1.90987e-19)
(2.06345 0.160966 3.96431e-19)
(1.60716 0.388487 -2.33752e-19)
(2.10196 -0.0353315 -1.18627e-18)
(1.97676 0.00924663 4.6083e-20)
(1.95782 0.0527739 -1.06921e-19)
(1.92946 -0.436947 0)
(2.05046 0.131133 1.34846e-19)
(1.39165 -0.631646 3.08619e-19)
(2.14032 -0.0672687 -5.29466e-19)
(2.00328 0.0186477 -4.74171e-19)
(1.97787 -0.0322644 -1.11837e-19)
(1.635 -0.224475 9.73843e-19)
(2.02222 0.0402015 -3.59609e-20)
(1.78268 0.0762508 2.53062e-19)
(2.00593 0.0155833 7.19952e-20)
(2.10078 -0.191838 1.78988e-19)
(2.52492 0.445924 2.68684e-19)
(1.77255 -0.121785 -1.29887e-19)
(2.22736 0.077231 0)
(1.89442 0.0726516 0)
(3.37692 1.58206 0)
(1.56238 -0.463988 6.88239e-19)
(2.08675 0.0425237 -7.98823e-19)
(1.8526 0.0692221 0)
(1.66453 -0.373672 -5.41614e-19)
(1.83574 0.103096 0)
(1.96852 -0.273125 -4.27462e-19)
(1.88904 -0.0865899 2.25287e-19)
(2.07657 -0.507142 -3.73189e-19)
(1.98216 0.0575868 0)
(1.94944 0.00476478 0)
(2.00485 0.0390294 -1.08751e-19)
(2.11545 -0.00126933 -1.39407e-20)
(1.92507 -0.129689 -1.53781e-19)
(2.83929 1.21968 -9.52427e-21)
(2.20867 0.0572938 0)