/*--------------------------------*- C++ -*----------------------------------*\
| =========                 |                                                 |
| \\      /  F ield         | OpenFOAM: The Open Source CFD Toolbox           |
|  \\    /   O peration     | Version:  2306                                  |
|   \\  /    A nd           | Website:  www.openfoam.com                      |
|    \\/     M anipulation  |                                                 |
\*---------------------------------------------------------------------------*/
FoamFile
{
    version     2.0;
    format      ascii;
    arch        "LSB;label=32;scalar=64";
    class       volScalarField;
    location    "1";
    object      p;
}
// * * * * * * * * * * * * * * * * * * * * * * * * * * * * * * * * * * * * * //

dimensions      [0 2 -2 0 0 0 0];

internalField   nonuniform List<scalar> 
13486
(
8.26589
6.47131
0.629243
-2.39794
2.30672
-0.956602
0.79563
4.47699
5.50172
2.36844
-4.05681
1.37945
8.76894
-1.58438
1.78433
2.76579
-10.5718
-6.85344
1.67725
7.38416
-2.16998
8.65697
6.31808
-2.65814
2.2897
-2.54485
-2.69327
-1.91088
0.0123101
-1.56392
-1.84817
0.924904
-3.47137
-1.2109
4.4936
0.0194639
0.122588
6.72933
-0.10999
5.4961
-0.0574776
9.1267
0.105268
2.23808
2.07028
1.34916
-24.1583
-0.00866111
0.159612
-2.27242
4.50073
-0.167152
0.898271
6.82343
-2.84877
2.60436
0.331751
-0.133417
-3.39895
0.095314
-3.75049
0.139408
-8.84594
-2.10453
-1.76662
0.22649
-2.53693
8.29158
5.4559
0.0803743
-2.56243
-3.49633
5.5248
-32.4975
0.0895176
0.314667
0.164506
1.74065
-15.8615
-0.276599
0.0163904
6.54275
-9.34677
0.670858
8.30925
2.95242
0.313108
4.33573
5.17652
2.80843
0.237546
3.8279
7.92739
6.9859
5.71757
-0.0322836
-2.75845
-2.52248
5.37595
-9.4391
-0.0411753
-1.31239
-2.50896
-0.077733
3.63971
-9.93109
5.31865
-0.0726066
-20.081
3.36072
5.25847
0.394417
6.82212
0.190979
9.85295
5.52811
2.28506
-1.14412
5.60028
0.101437
-7.32025
-3.69784
6.00188
-0.0696107
5.22448
-0.106705
3.78799
1.02442
-1.03036
-1.52003
-0.117012
-24.0301
-30.8111
-25.1518
4.6679
4.07329
10.1961
3.5366
0.065713
4.62779
-3.15759
0.834953
1.20524
-0.306627
0.159715
-5.52335
0.518008
6.60848
-2.51809
0.0465885
2.68148
1.60959
0.0086362
6.70774
1.03947
0.57986
2.61744
-0.298231
6.05574
0.263728
-2.01199
6.04855
-1.71457
9.06691
-0.187733
-2.56864
-0.720938
11.6423
0.531015
-25.3661
-33.4604
1.12799
3.43608
2.68945
-0.0055085
-2.61642
-2.58185
-3.74124
5.32564
1.30718
5.12124
0.178117
2.11949
-3.16145
0.617644
-1.93611
-0.0142017
-1.53575
0.252115
5.83338
0.0867799
0.322991
-0.257331
7.1158
-0.257354
-4.00938
-1.59516
-2.0271
7.48008
-2.22518
-1.84838
0.950837
6.73643
1.57315
0.250683
-0.281369
-2.90473
5.90639
-0.13715
0.65182
-1.67877
-1.97037
7.27054
5.30097
-1.00103
-0.796478
-1.65487
2.95698
7.49244
-7.73628
-10.6135
-2.53602
4.76673
-2.13006
0.695059
8.12804
-1.91026
-2.05746
-0.677742
0.279657
5.05589
-2.66334
-3.26007
9.33211
-2.32376
7.77785
-1.36976
0.354089
7.85723
2.28253
-3.31972
3.37873
0.209415
7.42281
0.00913299
6.15049
2.33207
-2.07546
-30.1752
2.65336
-2.82191
9.97872
5.28847
-0.149176
-0.465099
-2.78855
0.866291
-0.780512
0.0627688
-3.05518
5.85202
0.0552824
1.71967
-2.77389
2.6844
-3.17009
-0.648617
-1.94966
5.18376
-0.675961
5.33312
5.12035
-1.73992
1.06693
8.14205
-1.9644
-0.480181
-1.12603
-0.135963
0.610443
-1.03791
4.44934
5.38606
-3.63248
-3.5551
-3.6166
-3.32958
-1.11762
0.754564
5.17206
-2.32676
0.152905
5.7331
4.76656
-1.2505
-1.31724
-1.99202
1.11833
5.5316
0.465588
-2.37245
-3.15931
0.573627
1.08986
0.0691694
1.63446
-2.57843
2.29998
0.253769
0.161222
-20.8108
-2.36769
-1.56037
0.37174
-4.37521
4.14619
0.177266
5.17514
5.94348
-0.791185
0.108147
0.128989
5.29164
7.04106
9.99817
0.371006
3.30386
4.32582
0.842233
3.00679
4.27106
3.56974
-0.156532
7.55182
0.755142
5.38492
10.2508
1.76335
2.93132
0.0598564
-0.687432
6.95277
2.85129
2.19724
-3.16444
0.0890812
3.53683
9.84929
-7.52885
0.218557
3.30064
0.897844
1.03817
-2.85739
5.41269
-0.00325613
-30.0597
3.65114
0.213869
-1.93529
1.95685
0.326226
5.97668
5.2012
-1.57708
0.0297715
-1.35918
-28.3483
7.45935
3.70876
0.127592
3.55629
0.684509
-2.91481
-0.952022
4.54714
5.19604
0.131751
-4.34376
-13.9107
5.12605
3.49533
8.74618
5.66389
-28.4516
-0.548004
0.0640141
2.80202
-35.9229
-1.72509
7.14109
-1.86803
1.91653
7.90231
8.09305
0.110511
-2.46404
-2.90594
-28.4761
-3.35365
-34.2906
0.851756
4.79776
-2.80265
0.936785
0.469096
6.85627
-3.54601
3.88793
6.03439
2.80289
-5.01633
-2.06807
5.47573
5.22213
6.88639
-3.1818
2.7765
-39.3277
2.34483
5.33122
-1.2509
9.89183
3.16345
-2.01774
-1.37659
0.838597
5.40402
-2.65368
-0.339988
8.55427
4.88631
1.87479
0.736181
2.07383
-2.23721
8.71492
0.190807
2.87829
8.14022
-39.3435
-1.78756
-24.5766
-2.09336
0.334827
6.49631
6.48038
8.61123
-14.1889
0.121853
-3.18388
3.09133
5.35274
-2.34873
-5.95856
5.05087
-2.8718
-2.57336
-3.58361
-5.33049
-1.09189
6.86291
-0.0246798
-0.249045
-2.31082
4.96387
-0.0568456
10.9338
8.05055
5.52617
4.26502
0.200098
-0.0436919
10.1719
-0.436812
0.0725046
-1.95754
5.43691
-4.16371
0.998414
3.40606
0.093578
-3.00997
6.24663
-5.85908
-21.7556
3.28224
-1.75992
11.5951
3.35352
4.58207
5.82555
-2.70432
0.681867
9.11935
2.34436
7.09448
0.662117
1.26282
-1.97505
-0.288835
-0.081156
-8.92222
5.49626
5.40697
-2.80358
0.0234576
-1.04956
8.16895
6.51655
-0.532725
5.51577
3.89195
-2.97182
2.68842
4.37621
-37.7546
8.60243
0.0970736
0.165792
9.04317
3.56325
-0.0742845
3.49483
-1.94207
-2.81716
2.03365
3.17194
6.09243
7.95257
-3.1624
2.03294
-3.18273
-0.0607541
7.75859
1.20729
-3.18319
-2.52345
-1.46274
0.261348
4.29233
-1.74658
-5.62452
5.52912
7.45308
-0.122584
5.81291
-6.0171
-2.97355
-7.66525
1.78406
-3.23805
5.97036
0.688966
-3.68488
4.56426
6.47204
-3.03075
-3.1832
4.67157
7.73962
1.22472
8.34038
0.686024
3.28373
0.914898
6.00701
0.162223
7.51397
-2.78449
0.716542
5.20283
-0.884729
-1.86689
5.35241
-43.2932
1.07002
6.27095
8.65624
-1.727
0.573786
1.0041
0.632268
4.80307
3.515
1.20089
-3.29488
0.0183288
8.24732
0.593608
-0.124435
-2.47864
8.71979
-1.01564
0.18319
5.01188
4.12822
-0.284831
-1.30994
4.56278
0.889915
0.389119
1.83422
-6.1131
8.40806
5.37482
3.7411
4.09035
0.455948
-3.42576
9.49763
1.28446
9.53661
-2.057
5.2026
0.0786259
-36.4875
3.00737
2.65141
10.0269
-2.10112
3.31022
3.15599
-7.95081
2.48673
-4.86911
-3.16777
5.27739
-3.19696
-1.85384
-2.26695
-1.70904
-0.985273
5.73568
-0.0460106
9.25104
5.42247
0.231971
-2.95489
-1.76247
1.3832
-3.59026
-2.05527
-8.42275
7.72106
-0.000564395
0.137965
-3.19704
8.77869
-0.095454
-2.40098
9.05194
4.55885
-3.09364
-0.146892
3.77536
0.232103
5.19064
0.194059
-1.78229
1.78804
4.87613
1.29211
4.25457
9.19897
0.196122
-2.41422
5.37829
-1.06117
-1.09632
3.54388
3.67128
1.99443
-3.14077
0.679445
0.095741
0.916466
7.74168
1.28137
0.842743
0.704111
-0.516481
-0.372977
5.27888
0.266729
5.08896
5.11565
7.54088
-8.68621
-5.48912
9.44415
0.293655
-2.83616
5.67758
-2.39595
6.0641
0.0718795
5.03632
-2.84541
-23.5035
-2.27336
-0.0149658
-16.4651
2.45761
9.75083
-0.954904
-4.8522
-2.20038
5.43647
-0.345748
2.0174
-3.32941
9.63988
-3.10849
2.55877
-2.31362
2.78108
5.26667
1.51749
-12.9922
-2.01347
8.9171
5.28834
1.88976
4.82595
-0.567513
4.15926
4.22215
2.79313
-22.0154
-0.446133
6.79974
0.744656
-0.16141
4.45512
-2.80345
-0.886866
-0.099423
5.79034
5.64642
-2.30742
0.814471
-3.06575
-2.08508
0.920975
-0.946249
0.23638
4.96866
-0.980047
-6.53264
6.39202
-1.6982
-1.38337
-0.464462
-2.56642
-2.33468
-2.12574
0.0778243
-2.88811
5.18047
8.73271
0.127804
-1.33279
9.0786
8.4568
-1.75047
-1.57307
5.60341
-36.5608
0.0593517
-0.376973
-0.295454
2.80492
-19.283
2.05399
3.31574
-2.3758
-1.1557
-2.99462
-0.905696
4.62435
1.91516
3.39072
-2.4072
4.39662
8.29967
-6.72955
-2.8575
6.12229
1.35003
3.23515
-0.0535286
-1.57181
-2.47477
-0.677651
5.5005
9.54379
5.92039
0.386041
-0.935733
5.30955
8.04214
-1.56996
5.80901
5.32642
8.33907
0.896431
0.0637053
0.495657
-0.698305
8.35507
0.779471
-0.478526
3.65118
-0.393773
1.31504
-0.572873
-4.21076
4.9291
3.85513
3.40154
2.15427
-9.96319
-1.32876
-0.843872
2.83264
-6.43169
-3.65063
0.195256
-2.84374
-3.70395
2.46377
-1.54105
-28.5606
-10.161
-1.04407
3.88694
-4.00036
-2.50929
6.03445
-1.9959
8.69551
-2.0003
-31.4365
6.49437
7.79052
0.0535748
-0.135199
0.603147
5.46215
2.78064
-7.11601
-0.17453
0.108061
-1.06244
5.01856
0.17509
2.93516
0.130739
5.45473
-2.79716
0.177467
0.122087
6.64526
-2.66098
-3.92759
-2.41456
8.57354
-0.665322
-2.38617
-4.52498
5.38621
-2.63106
0.135511
1.33504
2.33993
0.260796
3.55793
-1.71865
4.13288
5.03167
6.32473
2.09493
0.103846
-0.980162
3.76992
-2.78751
6.61178
3.33227
-0.286717
-0.0978397
-0.50315
-0.4749
0.0992996
6.09494
1.84797
-1.22767
5.17786
-4.96611
4.25214
9.90137
-0.624143
-6.17817
3.39427
0.42733
-0.00925898
-0.604841
-2.25897
5.31788
0.213477
0.101104
0.147465
-4.19817
7.06091
-3.0713
0.0852012
5.28874
0.447178
7.78709
6.18401
7.34422
1.35092
3.01425
1.38409
0.542232
3.92708
5.27002
-2.62151
-0.844878
-11.337
-1.41005
-3.16114
5.35881
-4.86043
-3.11131
-2.78359
-2.64778
-0.00994586
5.29973
0.177598
-0.0120534
-22.9067
5.30077
9.7628
0.506865
-4.17548
2.6346
-1.78109
5.28576
0.28358
-0.0101745
6.59858
-0.115098
9.22209
3.66554
5.23721
-1.51833
7.12299
0.120837
6.22039
0.110509
-3.08247
-2.55679
-2.15226
3.7851
0.320243
-2.21
8.61503
5.14394
5.75876
7.80866
5.88773
6.63886
-0.842911
5.65566
5.24512
5.50383
-0.799823
-1.85884
-2.28934
-6.31966
0.826551
6.11595
-21.7102
8.71831
-6.53118
0.184717
9.47248
7.86739
-0.852824
-2.09813
5.45753
2.39558
-0.759637
5.06866
-21.1761
-2.47724
5.17907
7.62273
-0.0176225
6.01667
7.00971
-0.0631131
-1.91032
7.05997
2.26017
0.0788883
-3.29298
0.70045
-3.98236
4.91287
3.65477
0.130475
-1.79978
-1.75741
0.759599
0.0186191
1.32172
8.035
-0.0829835
10.6968
5.39889
1.35912
6.0882
-3.09282
-21.6309
-2.62043
5.2361
-0.0680295
-21.1789
-1.816
2.32433
2.81404
0.0259357
3.68808
-31.6777
2.49444
-0.407066
0.154774
4.21913
1.41
7.12742
5.51307
5.55122
5.17685
-0.899519
-2.85287
-2.79904
0.674365
-1.78216
-1.15681
4.13527
-1.88275
-0.00399303
0.233606
-3.04766
-3.32498
3.7649
2.12319
0.397488
-1.77895
2.38687
-2.60301
-2.4121
0.905446
0.357944
6.00843
3.73261
7.07083
-24.8001
4.59463
0.154732
7.70022
-1.40814
2.49493
-2.90748
-1.02759
9.02996
9.42361
4.42154
2.66675
3.40184
4.95395
9.14905
3.52788
-3.17739
-3.26744
1.10592
-6.34303
-11.1982
5.22779
5.2152
0.306471
0.818603
4.45676
4.89195
10.0186
-5.07628
4.02474
-30.0093
-0.852195
7.86623
-0.498998
4.44737
-1.63957
1.8334
2.11793
10.5054
0.367706
-2.33077
2.42865
0.979349
-3.21158
-21.7557
-9.53286
5.95643
0.362031
2.68596
8.44543
7.72374
-0.339505
-12.0831
0.286579
0.501938
6.42206
5.30266
7.68487
3.01498
-4.57426
8.06465
4.86413
-6.69288
4.02956
5.39056
6.92681
-4.10531
-2.47125
-0.029261
4.33558
8.91876
2.55106
-2.95651
-3.91482
10.0704
-5.69396
-3.19597
9.32869
4.462
0.453228
4.21764
-2.48271
2.70668
-1.15596
-5.40055
0.031628
-2.68183
-0.0280351
-0.936244
-39.9618
-14.6587
-9.21291
0.799072
-30.871
-2.86923
4.68043
4.83335
2.5156
-32.4295
0.715294
0.394693
-0.946
10.6321
3.37237
-2.53675
4.63364
-1.15804
-2.70512
4.34032
4.32065
5.22438
10.7765
-0.0106153
-0.435453
-2.64112
0.732279
3.5152
5.29026
-2.4015
8.20072
3.39432
5.66876
-1.93097
-0.186667
0.239763
5.6099
5.28532
5.83267
5.23919
9.78696
9.58515
-1.22228
4.51454
6.92334
-2.43585
7.67186
-0.0360837
9.47039
7.60543
0.011938
6.09477
2.26942
3.98603
0.446633
5.30673
-2.85954
4.67845
1.63434
3.44485
-0.889479
5.23591
0.0524101
0.819588
9.12469
9.1132
3.42806
-23.8615
1.33404
-0.594584
-0.453645
4.10643
8.11205
-23.4186
5.49299
5.13829
2.44215
5.56697
-3.02057
-1.59108
0.194795
9.98192
1.09813
0.299617
6.17027
-0.87144
0.17817
2.39453
1.11699
3.80858
1.68682
-1.60231
3.06156
4.22297
3.3132
3.89263
9.63284
7.76383
6.8328
7.19503
8.9214
2.3581
-0.0810995
-2.96807
-7.55729
8.99546
-1.85871
5.37528
4.80887
-3.06082
2.54468
5.97654
-2.06077
2.45648
3.04015
10.9342
-2.90935
2.23847
0.467317
6.25509
0.62212
-2.28269
8.82027
7.49341
5.17438
5.29386
-1.32256
2.09451
-10.9828
9.56542
0.0666739
10.416
-1.82828
-2.04935
-51.6293
2.57434
-26.0354
-0.0720868
-0.165471
1.64465
0.343024
1.43459
-2.37725
0.0184003
-1.21439
-25.5957
-1.9749
-7.62817
0.457714
-0.360056
-2.41065
-3.59065
5.52772
5.64528
6.97516
5.10101
1.89779
2.04325
11.647
5.24529
-2.92101
0.0158044
-0.873967
3.91016
4.70393
8.22165
-3.51938
-3.35386
4.31482
-0.00213822
1.42095
6.7634
-23.498
-3.11816
-15.8738
9.68021
-2.53915
3.63166
6.97383
-2.37395
4.20037
0.00919338
-3.22588
-3.11152
0.290039
3.29919
6.49172
6.82102
-6.74823
-24.3629
3.32842
-12.5086
-1.52038
-0.985266
0.334151
-1.15193
0.191158
-2.49858
-2.9771
-2.68007
8.50853
-2.19241
9.31366
-3.24962
-0.556624
1.71968
-0.0974499
7.81946
5.28099
6.318
0.412566
-1.12293
-3.41521
7.54791
-25.2393
3.71269
0.0855511
6.5282
7.78059
0.0741446
5.29569
8.92943
5.94144
5.82838
-13.7486
-1.77085
1.96349
-2.28999
-0.120522
3.08301
3.68394
0.648405
-3.83385
1.32068
0.350995
4.63768
3.83984
-1.78179
9.4395
0.716812
0.0558115
0.949301
5.20437
-1.51686
0.0293604
5.90636
-3.37697
0.475985
-1.14737
5.72417
5.15863
4.73217
0.169765
4.8833
6.18112
6.11722
-1.18951
0.24647
0.794042
4.61495
-3.77016
-44.1092
-2.33087
-6.84543
-2.45487
0.00990379
-0.171667
0.193282
-19.7924
-2.58377
-3.39229
0.301875
-1.21201
1.65206
-3.22357
5.67849
11.7468
1.41301
-1.15178
2.06465
0.218674
1.40326
-0.0235758
-1.47259
-2.69087
0.660851
7.2282
0.0606154
8.75436
0.106039
4.80575
4.33832
2.16598
-54.9652
2.81989
9.78042
-2.44809
5.05817
5.05955
8.17768
0.805781
7.45725
5.83471
-49.2896
6.24483
-2.91687
-5.7292
7.64629
4.50095
-7.17976
-0.627786
7.04163
-0.253176
-1.99468
0.121641
0.171941
3.87466
2.45622
5.25147
5.0228
4.54249
-13.4026
-1.98875
-1.12336
5.10275
10.4171
-1.64931
-6.67657
-54.1866
5.40824
0.599236
0.649536
1.93021
-3.60733
4.08843
-3.15403
0.370027
8.84776
2.07045
-4.42748
-1.88651
-2.70986
-2.23017
-26.7945
-2.68816
-3.11652
6.39198
2.61994
-2.15739
8.94606
-0.00049721
-3.36429
-1.14794
-5.61228
5.86352
-21.5972
1.42862
5.36272
0.303509
-1.22569
-0.8997
-3.11598
-2.01435
5.81078
-3.40537
0.0311318
-12.8758
5.0608
5.79208
-2.55015
6.86159
6.36218
8.43183
8.62047
6.01065
1.04851
10.0025
-16.5078
5.24797
0.600051
-3.17052
6.54679
-2.33273
8.36559
2.17741
-5.45601
-32.3956
-24.555
5.73818
-2.29643
-1.36329
0.614579
-5.61841
-4.86918
3.10602
0.791801
3.78768
9.67118
-24.4377
-2.53891
-3.24417
5.62828
3.74639
-1.92258
11.543
-0.0936134
0.276815
3.12868
-6.17419
5.03521
5.55932
6.23861
6.33896
-5.73045
2.63015
5.13057
1.17673
-3.13624
0.0909516
5.84932
6.04072
7.60732
-2.38995
0.638309
2.37392
2.91132
0.191052
-3.01342
4.24066
-1.53094
4.49468
5.4881
-12.1029
8.76779
-1.9987
9.60823
6.16047
-3.22733
-0.0364228
0.16585
1.65216
5.5861
-3.00515
7.45723
4.95259
2.45365
0.0983844
1.3559
-1.92838
2.46734
-14.4633
3.17653
-1.95094
5.10444
-35.3969
0.164045
-1.11076
6.68803
7.92217
2.28787
-31.1123
2.3628
-0.303232
0.620901
2.58221
-2.7745
-2.14665
9.31786
-3.3305
-0.563773
-2.75318
-4.88814
-0.867811
5.32727
-13.8826
-0.942409
5.57449
3.3079
5.80375
-2.93736
2.29979
9.42735
-12.7292
5.04097
1.21853
-2.46537
1.5888
1.26057
-3.731
9.65935
6.21122
0.433731
9.37175
7.10573
6.58959
-13.8674
-39.689
3.2091
-6.22697
-0.556522
-5.88527
-5.98007
-5.82092
4.18948
2.05569
3.04988
3.43729
-2.69699
3.92622
5.1436
-5.2474
5.66066
3.01307
5.18322
-0.275423
0.0889789
-2.5473
-28.3272
-2.82177
-1.09309
5.07776
-3.24203
8.48557
-3.06573
5.03944
3.06922
0.16446
0.533764
5.50297
2.10174
1.08518
4.79469
-0.168707
-4.25951
8.02894
6.37419
-1.95934
-4.28863
0.310069
4.59082
-0.244852
1.87324
-6.29337
0.00542719
-0.388349
0.322333
4.63821
4.45566
-1.96664
2.07512
-0.435812
-0.0507118
-2.97799
6.65321
-2.68596
5.22133
-0.0199174
4.47105
5.71337
2.81479
4.95608
0.61569
-2.34237
0.128829
-27.9198
-2.37798
-1.96404
0.00285163
-2.15091
4.02464
-0.504286
5.16818
-1.58865
-3.07612
-8.52075
0.0158968
5.57515
-3.07456
5.21846
1.37866
-2.63536
-1.66179
-2.69102
3.54874
5.26352
-0.00888654
1.11927
-23.3097
6.3994
-0.793364
1.17134
-3.14339
6.80183
2.4254
0.102766
5.71647
5.58806
6.60964
1.00374
6.63718
-13.6835
0.267648
-0.959881
5.19385
3.06572
1.50975
-0.0954732
-2.94849
-3.06865
2.7093
0.531281
-3.02822
8.80643
-14.87
6.48894
3.76402
-1.39656
-0.0678196
0.395287
-0.160604
0.316999
0.938252
4.86676
0.156006
5.27919
-8.76634
1.69316
-2.03682
0.520314
-3.02084
6.82993
9.46346
5.89539
2.76161
0.458428
3.19708
-2.68744
-1.51639
0.193326
-0.449796
-2.03912
-3.29602
-2.93371
-2.04366
4.74855
5.28732
-7.39073
1.39614
6.05996
-2.12056
-6.21756
5.7486
-0.111002
-3.68697
0.15835
-1.17512
0.0302704
8.90937
0.198135
5.16795
-5.57045
-3.26309
-2.1379
5.2324
0.659135
4.40349
-5.39584
-2.64393
0.431888
0.57353
6.16045
4.72239
0.65509
-1.25063
-1.24677
9.88405
-2.26114
6.14025
6.82744
-1.03168
-0.0606819
2.33663
-53.5625
-2.05594
4.41925
2.78186
5.17024
-2.48282
5.81585
0.301228
7.77147
0.50157
4.60163
6.82406
4.22337
0.916417
-3.11332
1.40354
-5.08939
4.5795
2.13586
6.58306
0.267469
8.40144
1.14939
8.9871
0.167512
6.90351
-1.07541
3.96127
-5.02667
5.00868
2.34583
1.81351
8.36462
5.1681
1.18933
-2.00713
2.95343
4.8495
-0.044815
-25.102
3.86862
0.353883
7.05207
-2.56622
8.53404
1.02022
11.8094
8.5796
3.80287
3.26771
-4.8346
0.0113744
9.1897
0.580033
-0.406902
-0.35431
9.36107
2.31129
4.5553
8.15173
-3.26437
5.86987
-0.945885
6.4855
0.242723
6.11138
5.44218
7.64239
-0.074653
-14.2369
1.55315
-2.79157
2.27547
0.159377
0.32494
6.95292
8.01736
0.101522
1.37303
-0.828158
7.17824
4.39176
4.88973
2.97851
-0.816243
-25.1289
-2.16913
5.42603
-8.98651
-1.88802
0.107435
3.64099
2.34425
-2.313
9.78258
-2.0312
8.48367
1.05962
8.74431
-1.43323
0.2965
0.200085
0.242064
4.50174
5.15586
0.411704
-1.97187
0.099894
-1.83314
8.00879
-2.26397
-0.130334
-2.69232
-1.94269
1.29925
6.6858
2.18221
0.202992
0.16773
5.1783
10.4424
-2.77058
0.401411
5.19992
-1.68672
2.34806
0.091154
3.70599
-2.04624
-28.1988
-1.93248
-1.58541
-0.484574
0.47343
-5.1559
-2.04756
-0.579216
3.89834
5.7236
4.45068
10.0893
-3.89434
9.2366
-20.946
8.56812
-2.98235
-3.43327
9.72963
1.87421
-1.6881
5.41834
-0.163756
5.92992
-3.49241
-12.1865
1.05798
-1.95633
-2.07633
0.0650601
-0.442746
1.76813
6.81381
-2.94264
1.96356
-8.40969
0.706541
-2.23412
0.000987291
-3.12511
-1.89702
-6.63702
7.20226
-0.0396041
7.93749
1.93733
-3.02062
1.36854
-5.43223
0.15947
4.39296
6.76991
10.1322
3.77367
4.32533
2.17136
-25.8708
9.75459
10.5042
5.81403
-3.41516
-2.53509
-5.16938
4.94252
3.37123
1.64666
4.21755
-1.83193
0.0070548
-5.21377
8.29249
-1.50015
0.309282
-2.29308
5.18834
1.12063
11.375
10.5157
4.66098
-0.174801
0.929763
-16.0382
1.65058
10.8467
-0.231123
0.142993
3.83599
0.143331
1.13992
-0.779684
-1.23003
1.28995
0.558158
2.32586
0.0848047
1.33384
7.65295
1.1287
5.70444
-2.27062
-1.43854
9.3929
-4.07393
-0.534777
0.853964
1.94293
0.289838
-2.62416
0.438906
0.307851
0.214969
11.502
-53.7432
-6.81756
-2.33174
-4.76333
0.3384
0.820395
-2.55291
-5.45496
0.121469
-9.26636
-5.03106
-2.30207
0.280742
0.459729
0.430824
11.1648
0.138885
1.45316
-0.478754
0.917363
-24.6183
-1.11047
7.4579
5.34691
1.58566
-1.73908
5.22329
5.71187
-1.56681
-3.24518
0.187014
7.39531
-2.17872
4.7977
-0.00219936
8.4527
0.796437
-2.25813
-1.5203
5.77644
-1.60725
4.56066
-3.41409
10.6929
-2.49823
-1.22913
-4.11149
1.9992
-2.56593
-3.31789
-2.47563
0.854781
1.99973
-2.47803
-2.38036
-0.265644
0.467938
-1.88137
-5.06681
4.43618
-6.48547
4.62172
-2.45448
5.92066
9.67877
5.03234
-21.9869
5.42848
0.704818
-0.388398
-0.342395
-1.71788
-4.47188
0.412539
-1.19798
1.95497
-0.300809
-4.8747
-1.47372
-4.87728
2.51497
5.19345
-6.8979
-2.64645
-2.12602
0.0803075
-1.68074
3.0485
-13.8966
-2.64766
5.27395
-1.64595
2.80067
-3.07983
-5.00259
-3.22905
-3.93212
11.3648
1.23871
-2.40968
0.998899
9.08607
9.41301
-2.24735
-0.974629
5.12436
0.0696804
0.411767
9.36148
2.85134
4.71566
11.5079
-2.1916
1.08311
0.624647
8.22087
5.56771
5.5723
6.76457
3.49885
0.183452
0.322755
2.14676
1.33468
-34.5834
9.57469
-3.35758
-3.88691
0.103451
-1.83631
2.45416
-2.25558
-1.04282
1.15821
5.63843
5.76442
6.22726
-2.60052
8.06225
9.28877
-6.37978
3.20005
-0.243652
0.0185668
-0.360765
2.82918
-2.04113
-2.28518
-3.19336
10.4427
-2.91734
6.28107
5.44591
7.30048
3.93762
4.17736
-1.88737
0.119241
2.90625
-0.143993
-6.2322
-7.30412
0.512224
-2.45973
6.66127
-2.41746
0.118739
0.708558
-24.8873
-2.35196
-17.8763
4.94759
-0.956553
0.253626
2.02945
-2.63896
1.59424
-7.47327
-0.257059
5.77489
-3.24034
9.54847
0.0874478
10.2657
0.00457623
0.19945
0.848945
4.42036
4.53592
-11.4705
-0.431302
-1.67668
0.897094
3.65513
11.5781
7.3374
1.44787
-2.06828
2.61735
-3.40144
6.23085
-1.33578
2.85401
-2.14684
-2.36806
-22.6022
1.52133
0.176175
-24.5699
3.14782
3.19472
9.18898
9.93138
-22.5826
-3.96714
0.319126
-5.35354
9.63088
0.825332
-3.0419
2.05251
3.68137
-1.86584
-0.554116
0.812859
-0.0942267
4.89738
-1.81798
1.14454
0.426166
-3.67547
-9.58019
-1.88297
-10.2081
-8.47855
5.99016
-2.22777
-2.23671
-0.967498
-6.60465
10.6134
3.87078
4.88153
-1.07494
2.59441
-0.337978
1.95765
1.37215
-2.53227
-38.866
9.59828
5.68415
-0.322776
-38.9069
11.0799
-2.43453
-35.8605
-2.12183
2.47104
-2.5819
-1.92136
8.16873
-0.710144
4.92277
1.82283
-2.41246
-1.96869
0.390019
2.34472
-11.481
-0.178398
1.26826
5.29753
-2.70707
-31.6554
0.548338
-1.41386
-6.40802
-5.3908
10.2939
3.23834
-3.08713
2.26606
1.12938
8.94369
2.87027
-47.0309
3.13414
6.86642
5.92626
-1.92596
4.49072
-1.96927
9.51697
0.141245
5.40776
-3.26664
-1.85171
0.128878
-2.2216
2.96735
1.55319
-52.9036
-2.6411
6.40014
-1.84827
-0.524686
7.63292
3.94838
7.42948
4.76796
-2.79979
0.0454444
-0.078755
5.30564
0.0293989
6.79086
4.08443
9.42075
-2.49803
7.22229
2.39415
9.52521
-2.39872
-3.35418
9.75802
-2.47364
4.00601
-3.09959
8.35009
9.35727
5.72341
-10.5538
5.126
7.05713
-1.81606
1.92787
-2.12247
7.59463
-2.44573
-1.89173
-5.67311
-7.52103
6.93561
2.33666
-8.77119
2.61326
9.35044
-3.69422
-1.37549
-9.84799
-3.6449
4.44349
-0.555007
4.89452
5.00486
-9.91721
10.6392
-0.101705
7.79644
7.83882
0.419645
-0.145211
4.74462
-6.73445
-0.742431
4.70088
3.98161
-2.26984
5.05079
-2.24584
8.46272
5.77295
1.81549
-0.876201
6.06288
-1.77065
2.95085
7.29532
1.09558
0.0928244
7.03533
5.79585
-2.44037
-24.3031
4.0002
6.08681
9.50564
-45.9699
10.0653
10.0902
10.262
-1.22092
6.80351
-3.25493
5.27819
7.43821
7.12009
6.03028
8.12726
11.3642
4.45151
-50.438
-0.230659
-30.5068
11.2163
2.74969
-1.88683
-2.62592
4.85977
8.11214
5.2711
1.50436
-0.358635
8.07268
-6.54974
5.77878
-2.62926
2.0856
-0.0311274
1.22861
3.31806
-3.13521
-3.07949
-1.34885
-1.34448
-0.366778
6.65855
-1.59136
0.868832
5.01255
-5.02871
3.12413
0.10781
-4.95311
-3.23135
-51.2538
7.72325
8.29953
-2.42311
2.16034
7.011
6.35133
0.134659
-2.54066
5.93799
-41.1884
7.55396
-4.81282
7.34752
3.0627
0.50101
6.79534
3.61928
7.17421
1.6767
2.20253
-1.66899
-21.9599
-5.36926
-0.055876
7.02902
-2.82029
-1.93037
-2.8068
7.87742
7.11581
1.54938
3.897
7.93113
-7.86575
5.10965
0.228106
-1.99553
5.06875
-2.22919
-2.87442
-4.98887
-24.8745
-1.06043
-3.14193
0.219449
-5.87097
-30.5313
4.35166
9.60244
10.5904
9.06762
-2.82508
5.84374
-3.33194
4.93371
7.90533
0.419961
6.89946
-2.81938
1.62875
-1.90656
-0.523607
7.55728
-4.97353
6.15698
-3.11036
-1.70378
-22.4299
6.16668
6.12
5.20476
-3.24592
5.0516
-2.81398
-10.2309
-12.1116
1.40069
9.65319
-10.4017
-1.04641
-2.6245
5.33727
4.97703
-0.122525
3.05704
-3.43328
8.061
7.31133
-1.90587
-1.44355
7.88667
-2.13561
-3.82397
-0.214427
7.12861
8.12745
-3.21651
3.69739
-1.33857
9.41664
-7.543
-1.85801
-0.537717
8.79301
-0.167501
-1.63816
-1.81849
7.52702
4.0007
7.42546
-0.760238
-9.02576
6.02841
11.0728
-20.1582
4.83569
-0.247913
-10.4057
-0.321462
1.72527
-2.76556
3.60629
-2.35959
3.23766
-1.8015
-2.1355
6.76696
8.24223
5.02165
-6.27142
-1.85878
6.33281
-3.16882
1.73987
-2.10311
2.50737
-6.08459
5.73499
6.33323
-0.520225
5.93967
9.3199
-1.03648
4.31723
6.11453
-14.0139
3.01987
-2.10539
2.4793
1.59935
4.03578
0.0320735
1.58101
-0.797626
-14.076
7.72795
1.81356
-1.53181
-2.11252
-0.690868
5.48258
-4.30555
10.2151
-2.99863
-31.2387
-1.82003
6.92133
6.10948
7.37861
-34.5898
8.94158
-3.50907
4.17992
0.74684
-5.72688
4.84333
2.28139
-0.935599
3.55329
-27.737
4.24049
-16.6876
-2.20019
0.0938231
-4.58884
-5.07997
4.78158
9.17448
0.362744
-3.28447
7.02937
-6.02673
8.29195
2.11676
-0.0604961
2.71967
5.28378
2.60148
-1.78471
0.651347
-0.271378
0.943773
1.61792
-5.56399
-2.57684
0.260869
2.94611
-1.40888
11.2978
5.8224
5.22506
8.39813
0.513128
5.95742
-2.82516
-24.0871
-2.32147
5.25759
10.9584
4.96387
-3.84741
7.70573
5.07455
5.1303
0.254953
-0.513561
2.74738
10.2679
0.711649
-2.166
7.79828
7.9088
5.72859
5.32535
6.61216
3.61823
-2.50041
-2.6252
5.93809
-23.3156
-23.8685
5.32426
-2.41644
-0.954863
1.36914
5.8892
6.14507
6.18697
-1.04753
7.33958
7.54773
0.0348255
6.55808
5.66811
4.45261
3.85673
3.48988
2.58602
-0.116087
6.9167
6.51368
-4.48411
4.87932
-1.08257
0.16766
9.07401
6.77788
0.00862302
-3.14539
-0.898815
6.99204
3.69413
0.672901
0.00252912
0.843249
-1.60634
1.14003
-2.86187
-1.06502
3.85475
-0.924599
-3.82068
-3.34216
8.57425
-2.76643
-22.0498
-2.833
9.17991
-1.51795
0.76788
0.707617
-7.38911
4.04928
4.88421
3.25652
8.08037
4.20152
-0.0600392
-42.2632
-3.08858
0.151118
6.19487
-9.1456
-3.24629
-8.2886
-1.27458
-25.0898
-2.7626
-7.44794
-0.642245
1.66482
5.10497
7.15477
-1.17304
0.065892
8.0929
5.98652
-3.20845
-1.43845
-33.9562
3.16673
0.765519
2.83086
4.27383
-1.9524
-1.48698
-1.53813
1.03673
-3.20774
-49.2869
0.709908
-2.52812
-33.2866
-7.56084
-2.98121
0.613632
-25.9344
2.55584
-3.2221
5.23239
4.51281
0.827793
7.00437
-3.07624
9.24619
-1.85069
0.0580294
-4.93853
5.34226
3.11416
-24.8927
-25.9057
5.34929
6.47905
9.59892
-3.21984
-40.8885
-2.89704
-0.509175
-0.0109565
-3.02928
1.59385
-3.33649
3.09226
-3.29428
4.02477
0.313872
-0.259718
8.278
4.71209
-4.98246
0.16028
-5.90221
-52.5354
7.04068
10.6272
-27.3603
6.71029
5.17711
-0.0558804
-3.08179
6.79794
6.47874
-7.79289
-1.50132
-2.38718
-3.03904
-4.83286
-3.36856
-4.62037
3.25903
-0.251703
5.87214
-3.43349
-7.62775
4.86655
-4.55292
-6.13049
-0.0775393
3.88677
-8.03903
-2.64239
-8.75027
-3.0147
-4.69877
9.7586
-27.2478
-1.14093
-3.35177
5.90277
-19.8356
-1.32439
-6.13726
-4.08808
-1.89479
6.11434
0.0316776
-2.83946
4.60058
0.16838
-1.68188
-5.46626
-3.63053
3.69179
4.37228
5.32549
-20.2804
8.28572
-1.41406
-0.0234577
0.391186
-10.5034
-2.72788
-3.28477
-2.97348
0.767925
1.87604
0.216217
-1.58855
-3.26534
5.00558
-3.70553
5.20572
-4.557
3.13658
-1.01535
-1.68988
-2.78737
11.3095
-2.08468
-10.2361
-13.7633
-2.77249
5.27216
0.192807
-2.71431
0.201114
-8.66077
-3.18252
-27.0953
-2.8773
5.95677
-5.69614
0.534703
-9.55495
-0.307665
4.6032
0.358196
2.07883
-1.82379
7.21837
-20.6223
-2.16066
7.75919
1.88474
-18.6343
-1.56788
-4.84652
-2.9142
-1.6572
6.99288
-2.3083
1.99044
-36.9544
-4.74725
-4.86576
-5.58469
-28.3038
2.95267
-0.994216
5.30382
1.6532
-3.86565
-1.16445
-2.85613
6.67567
8.22346
-8.7902
-0.174436
5.72612
5.11232
4.12909
-2.59242
-3.83059
-4.12259
5.25356
1.27477
-2.82002
-5.36559
2.8669
6.37508
-1.32816
-4.14303
-0.0513953
7.64104
-5.99939
-6.61307
0.142629
4.38991
-0.172065
-2.34596
8.33444
6.7017
0.185385
-2.7468
6.91845
2.33793
-0.774808
4.9661
-1.38171
-3.19566
-4.57476
-2.76636
6.54897
5.78449
-0.381226
-2.21636
-0.287139
-1.55882
5.91532
-2.77604
3.94462
7.2679
7.82638
-1.59946
5.32321
4.70101
6.04971
6.42176
-1.0797
6.45831
0.0529447
5.24079
2.6216
5.81391
-3.11245
6.81327
6.49264
4.50673
3.22864
-2.00058
3.6807
0.223001
-2.46804
7.47241
7.30939
-2.48734
6.72312
-2.76013
-19.765
5.85422
5.81679
-5.37721
-0.520018
-36.4406
-2.6808
-5.781
-2.31745
-5.17098
-1.95032
4.87837
10.1805
6.91499
-1.23377
-2.20344
5.7372
2.49557
-1.98555
-3.11179
-1.80827
-6.92071
-25.3999
-21.2158
4.90638
0.181269
2.32403
0.142444
0.112001
-1.76878
0.111157
0.904982
2.50155
3.45129
-1.80482
2.20731
-8.15247
-3.48477
3.59121
2.64598
-0.2354
0.250272
3.26591
-0.00167273
1.67806
-1.95016
5.32114
4.49686
8.80485
5.29968
-2.52718
-1.80497
-2.20307
-1.72433
-0.00307276
0.15059
-0.566142
-2.49082
10.4151
0.592168
-1.90463
8.16199
-2.68661
-4.19463
-2.90966
-3.10626
-36.9506
1.173
-4.92913
5.25063
-0.789994
-2.38007
-1.94521
-1.74779
-3.14109
-1.80498
0.452801
3.9534
-2.52216
-2.39901
-5.346
1.87099
-2.9678
5.80991
8.41344
-1.68758
5.91447
2.87687
3.54407
9.31019
-2.80679
2.99348
2.72565
2.12848
7.94271
-2.25223
-0.509959
-1.77427
5.69777
8.4094
-2.18181
0.0430872
-2.84319
-2.64303
2.51691
-2.09037
-6.15442
-1.82848
1.75347
-42.4631
1.29383
1.35459
4.50127
1.17204
-47.6199
0.395806
-0.00555614
-0.819385
8.99945
10.1619
7.40943
10.8344
4.54706
3.18088
6.16379
5.27802
4.72957
-2.35093
5.53853
-1.65511
-27.5349
8.15445
-0.740488
-3.22858
9.68707
-0.176719
-3.17263
2.58486
2.20418
6.59276
-11.6442
4.85676
8.87458
-2.74913
-21.0347
-5.8953
3.75501
-3.26282
7.06974
-0.730572
6.62555
5.22709
-2.4831
6.35314
-2.17601
-48.0536
-49.7733
-2.47821
6.61547
-2.73761
5.28375
-0.16129
-3.03199
0.618005
-1.53842
-6.64341
-1.97087
-31.9035
6.71439
0.829314
-6.76051
-2.75945
3.16289
1.48006
-2.65263
2.27446
0.163348
2.38029
-11.5427
2.82541
1.07916
3.03967
-0.373797
5.14206
3.1671
1.32899
-25.88
10.7651
-3.15863
-10.0762
5.09439
4.5613
-3.15495
-2.92513
-3.07344
3.24036
2.64176
-2.58973
-0.562626
-1.10741
10.7478
0.234986
-2.62015
0.577221
-1.79912
3.5059
-0.961259
4.8803
3.12925
-3.21389
3.31
-43.2143
4.15428
2.16641
5.4073
3.53354
-0.0847839
0.0634225
2.4702
5.89997
-0.0851903
0.568432
-14.2761
-3.4952
-1.78676
4.41744
-11.9304
2.51313
-19.7164
6.61042
-3.38858
-1.38458
7.19972
6.46494
2.01269
-2.91811
-26.9726
5.96415
-1.78169
6.73766
2.69948
-1.69692
5.38478
1.12299
1.26299
0.961631
-1.69347
-2.06932
3.29711
-1.62489
7.38738
1.34365
10.9275
-0.148076
1.26087
6.53239
0.553475
1.53377
5.72514
4.4911
3.20089
-2.83162
0.0554363
5.12284
3.34016
1.57357
-2.92409
-0.55854
-3.02369
-3.35605
-1.83995
4.6069
0.272011
4.00274
-0.830288
9.15675
6.70704
1.7378
4.33365
1.59814
-23.0628
4.68646
3.90491
0.0770514
2.0677
6.6789
5.95407
-0.042188
-2.93748
-7.80094
4.72948
2.25605
-1.36637
5.66365
-3.12389
4.93214
-9.45861
5.25933
2.32252
-0.0151681
2.11859
6.23495
-0.364339