/*--------------------------------*- C++ -*----------------------------------*\
| =========                 |                                                 |
| \\      /  F ield         | OpenFOAM: The Open Source CFD Toolbox           |
|  \\    /   O peration     | Version:  2306                                  |
|   \\  /    A nd           | Website:  www.openfoam.com                      |
|    \\/     M anipulation  |                                                 |
\*---------------------------------------------------------------------------*/
FoamFile
{
    version     2.0;
    format      ascii;
    arch        "LSB;label=32;scalar=64";
    class       surfaceScalarField;
    location    "1";
    object      phi;
}
// * * * * * * * * * * * * * * * * * * * * * * * * * * * * * * * * * * * * * //

dimensions      [0 3 -1 0 0 0 0];

oriented        oriented;

internalField   nonuniform List<scalar> 
20045
(
0.520246
-0.587293
0.0670463
-1.097
0.41695
0.680053
0.275732
1.64682
-1.92255
0.235686
-0.305715
0.0700292
-0.88294
0.854867
0.0280733
-0.503824
2.06914
-1.56531
-1.0771
0.464257
0.612839
0.071291
0.453323
-0.524614
0.482123
0.441574
-0.923697
-0.746474
-0.188837
0.935311
-0.0693292
0.543317
-0.473988
2.05209
-1.07424
-0.977847
0.395841
-0.395217
-0.000623342
-1.26861
0.975044
0.293566
-0.324052
1.10619
-0.782137
-1.07916
0.332685
-0.165929
0.271947
-0.106018
0.210108
-0.383006
0.172898
-1.67171
2.39462
-0.722916
-0.753705
0.0167599
0.736945
0.459565
-0.436019
-0.0235463
0.13732
0.258521
-0.168796
-0.928208
0.55595
0.608729
-1.16468
0.884829
0.123039
-1.00787
-0.670488
1.22644
0.262652
-0.27594
0.0132876
-0.978043
1.95243
-0.974391
1.76913
0.199077
-1.96821
-1.89774
1.16284
0.734904
-0.150633
-0.376257
0.52689
1.50059
-1.14182
-0.358776
-0.711025
1.23777
-0.52674
2.14508
-1.24448
-0.900599
-0.58384
0.655131
2.25833
-1.12932
-1.12901
1.43176
0.29871
-1.73047
-0.0691042
0.417729
-0.348624
-2.14171
0.844003
1.29771
0.628512
0.509901
-1.13841
0.0579531
0.433269
-0.491222
0.174394
-0.244227
0.0698326
2.11225
-2.14836
0.036115
1.48095
-0.489832
-0.991116
0.640878
0.84007
1.02971
1.02238
0.920501
-1.13297
0.212469
1.20935
0.61188
-1.82123
1.87842
-0.446659
0.120034
1.6296
-1.74963
1.31112
-2.19472
0.883607
1.90944
-1.41677
-0.492671
-0.859896
-1.00031
1.86021
-0.0940306
-0.323711
0.417742
0.434847
-0.128337
-0.30651
-0.724979
-0.157962
0.15992
1.40481
-1.56473
1.72246
0.0904508
-1.81291
0.672342
-1.38337
2.14152
-1.50815
-0.63337
-0.0301733
0.501261
-0.471087
0.825085
1.31644
0.972453
-1.55689
0.58444
0.398969
0.0605954
0.507475
0.336962
-0.844437
1.62092
0.288376
-1.9093
-0.0820144
0.300399
-0.218385
-0.675254
0.12125
0.554003
0.877201
-0.395078
1.90534
-1.94945
0.0441124
-0.206506
0.124491
0.0969139
0.337933
-0.282993
-1.02745
1.31044
0.429882
-0.11434
-0.315542
1.78199
-0.237375
-1.54462
1.3921
-1.23218
-0.140895
1.92289
0.476281
-0.800332
-0.468886
0.962167
-0.493281
0.753696
-1.33255
0.578854
1.00857
1.19279
-2.20137
0.910805
-0.758848
-0.151958
1.26903
-0.296573
-2.04303
0.329382
1.71365
0.00160211
0.518644
-0.470902
0.613801
-0.142899
1.15061
-1.5976
0.44699
-1.60728
0.06793
1.53935
1.02594
0.190439
-1.21638
-0.893361
0.748342
0.145019
-1.64421
0.00417578
1.64003
0.756788
-0.132641
-0.624147
0.424989
-0.626944
0.201955
-0.20526
-0.798362
1.00362
0.620676
-0.658075
0.0373987
1.45494
0.421039
-1.87598
0.24329
0.0193627
0.027804
-0.344781
0.316977
1.24881
-0.620301
-0.240018
0.194256
0.045762
1.56445
0.693876
-0.547099
-0.721512
-0.393256
0.42106
-0.302325
2.02479
0.0832894
-0.554192
-0.10949
-0.130528
0.443636
1.21903
-1.66267
1.31026
-1.94505
0.63479
0.451615
-0.489384
0.423954
0.0654294
-0.267517
0.337384
-0.0698678
1.34963
-1.02425
-0.325375
-0.524697
0.430667
1.3306
-2.09003
0.759422
-0.215571
0.358233
-0.142661
0.0558666
-0.327205
0.271339
1.1419
-0.257075
1.60487
0.540203
-1.19808
0.915089
1.36857
-2.03565
0.667076
0.0702067
0.139902
0.437693
-0.467867
-0.81504
0.666019
0.149021
-0.831454
0.103444
-0.616362
0.512918
1.35503
0.554407
1.12849
-1.45632
0.327825
1.58389
0.174182
-1.75807
-2.03137
1.60572
0.425652
-0.54306
-0.470869
1.01393
2.00891
-0.653878
-0.975741
-0.157229
1.16384
-0.747662
-0.416174
-0.00982104
0.0119232
-0.0021022
1.149
0.802709
-1.95171
1.22339
-1.13246
-0.0909363
-0.325993
0.145232
0.180761
-0.345847
-0.143537
2.27328
-0.90471
-0.676162
0.722853
-0.0466909
1.106
-1.79443
0.688432
0.596851
-1.45675
0.969774
0.622506
-1.59228
1.42781
-0.674109
1.94693
-0.255195
-1.69173
0.183365
-1.01282
0.829454
1.8894
-1.36279
-0.526612
-0.293118
0.431957
-0.138839
0.0487979
1.79191
-1.84071
2.11531
-0.346181
-1.65122
0.0587959
1.59242
-1.002
0.866097
0.135899
1.9826
-0.974032
0.285946
0.62486
-1.28693
1.52219
-0.235264
-1.35123
1.62696
0.027269
-0.39814
0.370871
0.336031
-0.393475
0.0574442
-0.0357132
-0.394268
0.429981
1.71058
-0.040185
-1.67039
2.43811
-1.15563
-1.28248
-0.467942
0.432229
1.26725
-1.82148
0.554233
0.209166
-0.0347716
-1.71909
-1.01969
1.28772
-0.26803
-1.2956
1.03308
0.262514
-0.0277877
-0.0840103
0.111798
0.660691
1.22871
-0.00985926
3.82203e-05
0.6807
0.483136
-1.38855
0.101626
-1.48326
1.8434
-0.360133
-1.35622
1.52405
-0.167836
-1.2188
-0.839098
2.0579
0.110402
-0.57054
0.460137
0.80498
-0.967539
0.162559
1.31087
0.275639
-1.58651
0.0179914
-1.49955
1.48156
-0.867409
1.83718
0.406073
-1.11899
0.712916
-0.75757
2.08817
-1.6561
1.1471
0.508992
-0.199015
0.228392
-0.0293778
0.740996
-2.00748
1.26649
-1.61367
0.635627
-1.22157
-0.795645
1.8234
-1.17776
-0.645635
-0.564678
0.622631
0.326325
-0.346192
0.0198669
-1.52059
-0.429578
1.95017
-1.51832
2.13832
-0.619995
1.95861
-1.35164
-0.606968
0.0851237
-0.465315
0.380191
-0.442667
-1.06345
1.50612
-0.442116
0.372787
-0.858117
0.315057
-1.26714
-0.400121
1.66726
0.231476
0.0600037
-0.29148
0.111343
-1.13103
0.331406
-0.482039
1.69105
-0.107162
-0.337958
0.268854
-0.345168
0.415035
-0.0698665
-0.306384
2.01696
-1.60719
1.16452
0.398119
0.164929
-0.563048
-1.41422
0.303274
1.11094
0.694243
1.26436
2.09688
-1.35588
1.28924
-2.07035
0.781113
0.570687
-1.27191
0.70122
0.0994546
-0.85316
-0.965027
1.40866
1.27417
-1.77799
0.287229
-1.26229
0.975061
-2.06911
1.0761
0.993002
-0.125796
-0.767565
0.368061
0.31276
-0.680821
1.1952
-0.206938
-0.988264
0.0283271
-1.23239
1.28119
-0.528596
-0.147566
1.17097
1.70161
-1.62575
-0.0758639
-0.0239167
-0.290063
0.31398
1.32254
0.106452
-1.42899
0.33808
0.275206
-0.613286
0.00866368
1.13766
-1.14632
-0.521806
1.67241
1.15899
-0.752919
-0.149377
0.435448
-0.286071
1.49455
-0.388557
0.23382
-0.0194673
-0.214352
0.362136
0.115847
-0.477982
-0.269374
0.279431
-0.0100574
1.85321
-1.23958
-0.613629
0.449723
-1.96804
-0.29665
0.0272765
-1.70187
0.500157
1.20171
1.72864
-0.490872
0.468387
-1.95165
2.42933
-1.155
-1.27432
-0.0334889
0.264965
1.90026
-0.805133
-1.09513
-1.20775
0.247705
0.960048
-1.91388
1.91834
-0.00445232
0.600943
-1.36274
0.761795
0.230415
0.221178
-0.451593
-0.960835
1.23079
-0.269957
0.0668217
-0.425512
0.35869
-0.328932
0.113361
-0.317746
0.0502289
-1.35175
-0.593295
1.04771
-1.52684
0.479123
0.36756
-0.602435
0.234874
0.96614
0.534453
1.05923
-0.771999
0.0516213
0.284409
1.04026
0.688378
-1.03128
0.0765816
0.954694
0.628698
1.27156
0.812681
0.293507
0.564694
-0.197134
-0.591892
-0.0438723
0.635765
0.0393947
-0.238409
-1.21246
1.22113
-0.43906
0.595958
-0.156897
-1.80888
1.70438
0.104496
0.0852229
1.06993
-1.15515
-0.362838
-0.280409
0.643246
1.52563
-1.65769
0.132058
-1.18067
-0.888436
2.26399
-1.59747
-0.666522
-0.227329
0.203412
1.51225
-0.911312
-0.569263
1.61698
-0.011128
-0.509362
0.52049
1.77596
-0.229235
-1.54672
1.92949
-0.369808
-1.55969
-0.614986
0.603858
1.68666
-0.982602
-0.704054
-0.33903
1.56959
-1.23056
0.733959
-1.09086
0.356902
-0.464251
0.0521872
0.412064
-0.280864
0.150196
0.130667
2.04285
-1.57579
-0.467061
-1.1066
-0.924773
1.40065
0.300968
-1.63307
-0.175808
-0.112683
0.474818
0.466562
-1.6794
1.21284
0.00848996
0.317835
-1.06137
2.21037
0.649713
1.2035
1.9846
-1.29386
-0.690737
-1.79823
1.39811
1.42401
-2.1106
0.686587
-1.25276
-0.0796306
1.33239
-0.488504
-0.364582
0.853086
1.71895
-0.451706
-0.116341
0.51446
0.566702
-0.150499
-0.991319
-1.40257
2.01002
-0.607447
-0.401436
0.0562672
-0.160631
0.0112539
0.275404
-2.18929
1.22422
-1.74602
0.357829
-0.561344
0.786631
-0.225287
-0.0113726
0.247059
-1.02721
0.669508
0.357706
0.81516
0.534465
-0.218156
0.680035
-0.461879
0.965843
0.257549
-1.2273
1.69386
1.16441
-0.138466
-0.434295
-0.979922
1.95215
-1.30273
-0.649421
1.91963
-1.93298
0.71051
1.22247
1.58498
-1.73383
0.148849
-0.911337
0.706077
-0.26107
-0.0649232
-0.426168
-1.21804
0.591592
-1.11679
0.525199
0.860099
0.826557
1.30949
-1.89556
0.586065
0.475478
-1.10607
0.630587
-1.94258
0.335307
0.0220829
0.734705
-1.41813
1.80749
-0.389359
-0.477481
0.64409
-0.166609
-0.855679
-0.221417
-0.270691
-0.463407
0.734098
0.221386
0.000934147
-0.22232
-0.684063
-0.317933
0.743844
0.881938
-1.62578
1.81031
-1.18161
0.739691
-0.903174
-0.00816282
0.961472
-0.485994
-1.3685
-0.287601
-0.307552
0.426972
-0.11942
1.91141
-0.702065
-0.930184
1.49862
-0.568439
-0.259013
0.305844
-0.046831
1.42871
-0.233507
-0.595845
-1.08356
-1.01519
1.84266
-0.827464
1.22041
-1.93789
0.717477
0.862962
1.40103
-0.255353
0.231388
0.0239652
0.203705
-1.45647
1.41479
-2.1418
0.727009
-0.10311
0.532992
-0.16198
1.29047
-0.36786
1.59208
-0.686075
1.25676
0.315504
-1.98721
-1.75988
1.21794
0.54194
1.30397
-0.241292
-1.06268
1.85846
-0.332833
-0.821641
-1.0454
-0.974006
0.745018
1.2449
-1.05303
-0.191873
0.643643
-0.626883
-1.44897
1.28699
1.7129
0.399352
-1.58821
0.658024
1.68832
-0.287673
0.323894
-0.441134
0.11724
-0.0802976
-1.13331
1.21361
-1.81895
0.336182
1.48277
1.59872
-1.59872
-0.637454
1.82391
-1.18645
0.567197
-0.785353
1.27586
-0.875787
-0.400069
-1.82024
1.91695
-0.0967169
0.703195
-0.0944261
-0.608769
0.548252
-0.200792
-0.34746
0.266879
-0.629717
0.269164
1.09891
-1.66817
-1.62889
1.91412
-0.285229
-0.569111
1.31295
-0.613132
-0.0351376
0.648269
-0.286302
0.460101
-0.173799
-0.751854
0.851308
1.84764
-1.43449
-0.413146
-0.181354
-1.034
1.21536
-0.495796
0.530232
-0.0344363
0.302702
-0.577897
0.275194
-2.1167
0.902832
1.21387
-0.222654
-0.0830612
0.444004
-0.120109
-0.169498
0.552944
-0.383446
0.818198
1.22465
-0.493525
-0.119607
-0.193557
-0.502807
0.696364
-0.999643
1.58916
-0.589513
-0.034677
0.221835
-0.187158
0.916034
-0.451777
1.56716
-0.0855285
-1.48163
0.0626242
-0.860986
-0.00276279
1.31364
0.87197
0.603827
-1.4758
0.951179
-0.803447
-0.147732
-2.0122
0.360985
-0.820195
0.409339
0.410856
0.668867
0.992361
-1.66123
-1.24965
1.17002
0.127543
-1.81176
1.68421
-0.293147
0.37827
-0.198751
0.22347
-0.0247187
0.0456172
-0.637509
-1.15002
0.539477
0.610541
-1.35538
-0.346481
1.23703
0.317988
0.168012
-0.485999
-0.281291
0.0222782
0.358678
-1.43201
1.07333
0.310913
1.0658
-1.37671
0.529535
-1.42084
1.68807
-0.267228
-1.43777
1.09875
-0.141988
-0.133952
-0.828856
-0.466739
-0.546908
0.132146
0.414762
-1.74266
0.743017
1.31016
-1.49152
0.417556
1.27076
-0.62132
0.629042
-0.00772205
0.463614
-1.4261
0.962488
0.346564
-0.568416
0.221852
1.07018
-1.66603
-1.2894
-0.066817
-0.657799
-0.0174549
-0.169893
-0.424288
0.594181
0.666971
0.187294
-0.184661
-0.00263288
1.53947
-0.870607
-1.51067
1.92075
-0.410081
0.523467
0.392897
-0.916364
-0.731117
0.43797
-0.472244
-0.0746642
0.576923
0.698933
-0.551701
-1.48395
-0.446332
0.138779
1.24062
0.847899
0.316508
-1.57362
1.69366
0.0489141
-0.799207
0.750293
-0.178688
-1.66169
1.84038
0.220794
-0.229682
0.00888779
0.633939
-0.523537
-0.361045
1.095
1.15078
-0.967416
-0.774448
-0.252767
-0.0048698
-0.826464
0.831333
0.800069
-2.01887
-0.128134
-0.989899
1.11803
0.0748586
-0.390768
0.315909
-1.30262
0.0881472
1.21447
1.95009
-1.33821
-0.0249318
0.197055
-0.172123
-0.449734
-0.0460613
0.384063
0.708937
-1.093
0.261773
-0.325883
0.0641099
1.33537
0.743684
-2.07906
-0.812999
2.26794
0.212169
0.00921668
-0.524261
-1.11325
1.63751
0.827427
1.44586
1.66546
-1.35454
-0.729561
0.45887
-0.0623561
-0.218508
-0.601764
2.02578
0.301718
-1.53529
1.23357
1.89419
-0.284608
-1.60958
-0.744695
1.33841
-0.593716
0.782383
-0.475802
-1.00833
1.48413
-0.278138
0.475203
-0.197065
-0.589771
-0.952456
1.54223
0.154954
-0.441257
0.0947341
-0.122522
1.01159
-1.60136
-1.38436
-0.396048
1.78041
-0.106037
-0.969422
1.07546
-0.00584566
2.15424
-2.22949
0.0752555
0.445438
-0.260537
-0.184901
0.0144243
-0.635744
0.504734
0.498888
-0.65721
0.168706
-1.51775
1.92343
-0.40568
0.0655078
-0.504568
0.981913
0.445893
-1.70468
-0.443684
0.294303
-0.286831
-0.00747237
1.07628
-0.228386
-0.42789
0.471717
-0.0438262
-0.370446
0.437267
-2.28332
1.06175
1.78043
0.288702
-0.2192
0.521902
-0.425032
0.9485
1.64848
-0.549568
-0.441943
0.0140523
-0.20733
-1.24164
0.543025
0.479804
-0.452535
-1.84164
0.0226885
-0.469318
0.44174
-0.0951756
-2.01402
1.24799
0.766035
1.6097
0.295634
0.411922
-0.140895
-0.271027
0.57019
-0.536
-0.0341901
-1.78942
0.660104
-2.04881
1.03361
-0.581895
0.467781
0.114114
0.0308428
-0.211672
0.180829
2.06996
0.000221483
-2.07018
0.367084
0.0210245
-0.388109
-0.275069
-0.53997
0.48092
-0.0559318
-0.187742
0.192508
-0.00476566
0.799022
-0.120299
-0.678723
0.0259672
-0.213709
1.68681
-1.26577
-0.0577819
-0.30364
0.361422
-1.91535
0.397602
0.0296413
0.0908929
-0.484149
-0.349627
0.667615
0.113521
-0.0618997
0.506057
0.319804
-0.82586
0.782194
-0.274719
0.761406
-0.712491
0.449978
-0.394111
0.182217
-0.659697
1.471
-0.413488
-1.05752
1.09235
-0.101904
-0.990446
-0.858409
-0.15441
0.356411
0.0641786
-0.420589
0.679402
-0.881817
0.202415
2.17059
-0.0611915
-2.10939
0.36832
0.0841999
-0.45252
-0.977259
1.32563
-0.34837
0.887229
1.05836
-1.94559
0.0442907
0.45697
-0.541698
0.886449
-0.344751
0.45448
0.186593
-0.641073
-1.51175
0.766979
0.744773
0.180263
0.0122445
-1.68465
0.300288
0.639502
-0.382021
-0.257481
0.894549
-1.20509
0.310539
-0.19725
-0.390043
0.308637
1.8456
1.67188
-0.306492
-1.36539
-1.64917
0.228334
0.666959
-1.10125
1.30113
-2.1073
0.806164
-0.219292
0.587353
-0.0120637
-0.800847
0.60729
-0.33229
0.435734
-0.198924
-1.54892
1.74784
0.781063
0.731192
-1.39903
1.52498
-0.125951
0.272574
-0.442467
-1.24764
-0.464237
-0.25145
0.281298
-0.0298478
0.278098
-0.641728
0.36363
0.164422
0.0574764
-0.221899
-0.225268
1.11982
-1.16643
-0.516898
1.68333
-1.50954
-0.498595
2.00814
0.928378
-0.757282
-0.171096
-0.434621
0.0464762
0.388145
0.311219
0.0904343
-0.401654
-1.89493
0.0704435
1.82448
0.0466489
0.396155
-0.442804
1.56759
-1.7428
0.175205
-0.956991
0.648594
0.376757
-1.02535
0.0238438
-0.275294
-0.572881
-0.578683
1.15156
1.25508
-2.01265
-1.89626
1.65347
0.242788
0.309967
-0.0481935
1.4303
-0.448389
-0.161598
-0.413662
0.57526
-0.0205821
0.32653
-0.305948
-0.495803
1.57219
-1.07638
1.71289
-1.33985
-0.373042
1.97582
-1.91422
-0.0616021
1.54341
-0.758178
-0.785231
0.0833297
-0.469137
0.385807
-0.597654
-0.0187077
-1.91783
1.69304
0.224789
0.0838993
-2.00173
-0.319274
1.37701
-1.05774
-1.05092
-0.524867
0.413473
-0.345516
-0.0679566
-1.51361
-0.401738
-0.390077
0.268976
0.1211
0.553718
-0.215637
-1.78861
1.69399
0.0946287
-0.454049
0.278611
-0.392951
0.39395
-0.0268658
-1.16697
0.20614
0.304564
-0.34863
0.0440654
-0.687507
0.727342
-0.0398342
0.737937
-0.0347421
-0.514473
1.03278
0.39593
0.740959
-0.208729
0.618373
-0.409643
-0.30157
1.10655
-1.24347
0.786871
0.456601
0.184586
-0.00432261
1.52014
-0.739072
1.16376
-0.700149
-0.36814
-0.416617
0.784757
0.484218
-1.45397
0.969754
1.11663
-1.22267
1.97043
-0.85414
-1.11629
-0.0104074
-1.03119
-0.212278
-1.43612
1.98005
-0.543933
-0.0847232
-0.491957
1.7812
-2.00704
0.493434
-0.446537
-0.0177136
-0.298031
0.184813
0.288105
-0.00867359
-0.970576
-1.03627
2.24651
-0.854409
0.363407
-0.534938
0.171531
0.111555
0.436697
-1.31269
-0.713728
2.02642
1.1832
0.535749
-0.00779411
-0.299232
0.307026
1.6473
0.274808
0.0210676
-0.295875
1.11228
0.358726
-0.716238
-1.94966
0.320765
-0.447251
0.022826
0.424425
1.11295
1.31637
0.432581
0.229219
-0.6618
1.89036
0.0854607
1.21104
-1.68592
0.474875
-1.64906
-0.00682249
1.65588
-1.58146
2.05263
-0.471173
0.292022
-0.0109046
-0.281117
-0.730242
1.98532
0.125085
0.526914
-0.651999
0.0686897
-1.46772
0.588166
-0.0604099
-0.527756
-1.75653
2.2793
-0.522772
-0.49018
1.0979
-0.607723
2.31759
-1.01166
-1.30594
0.0309125
-1.20213
1.17122
0.20422
0.0192496
-0.849351
1.73658
1.11789
-1.75534
1.86052
-0.640114
-0.3763
0.318518
-1.73915
0.0900871
1.99902
-0.689533
-0.0136434
-2.02939
0.486684
-0.0534154
0.529097
1.13983
-1.66892
1.11502
-0.291311
-0.823714
1.22653
-1.91033
0.683806
-0.327185
0.0216133
0.305572
-0.406913
-0.940204
1.34712
0.727492
-0.545275
-0.424743
0.627459
-0.202716
0.333317
0.484396
-0.817714
0.157424
0.256049
-1.67322
1.95635
-0.283128
0.203998
0.0167964
0.87439
0.416654
-1.29104
0.763104
0.731102
-1.49421
0.340832
0.963136
-0.0385389
1.98546
-0.0144661
1.57877
-1.56431
-0.019814
-0.014863
0.293903
-0.21805
-0.0758529
1.27722
-1.04618
-0.231043
0.897074
1.07336
0.362042
-0.128356
-0.233686
-0.546867
1.60006
-1.05319
0.00968562
0.343177
-0.352862
0.503666
-1.31188
0.808219
-0.867249
-0.315064
1.18231
1.49839
-0.175847
0.567241
0.547784
-0.217142
-0.859095
1.07624
0.562842
-1.59684
0.114943
0.41842
-0.533363
0.388957
-0.128818
-0.260139
0.00798357
0.196236
-0.151572
1.65089
-1.49932
-0.204988
1.83459
1.53205
-1.26536
-0.266685
1.27629
-1.08585
-1.05648
0.401474
0.655004
-0.0827791
-0.793008
-0.429446
0.353265
0.0761812
0.129623
0.282299
0.286653
1.45776
-1.74441
0.425779
0.373244
0.269078
-1.77862
-0.90087
0.360637
0.540234
-0.639524
-0.490191
1.12971
0.967513
-0.461456
-1.6555
1.08639
0.766588
-0.64311
-0.123478
-1.11613
1.60947
-0.493332
-0.847678
0.910302
-0.909723
1.17341
-0.263688
-1.39533
1.92184
-0.526509
-0.0458313
0.429459
-0.383628
0.308627
-0.277784
-0.758625
-1.28597
1.96994
-0.683974
-1.058
1.36127
1.0014
-1.03889
0.0374811
-0.113062
-0.43337
0.546432
-1.98891
1.40219
0.586716
0.00990637
-0.191807
0.1819
-0.0304769
1.06839
-1.5642
1.3329
-0.848679
-0.498386
-1.2615
-1.40661
1.39214
0.95652
0.0765617
0.638895
0.368555
-1.00745
-0.665463
0.621682
0.0437807
0.614306
-0.5609
-0.0534051
0.362338
-0.84037
0.478032
-0.604091
0.82849
-0.224399
-1.48574
-0.31336
1.7991
0.401513
-0.514576
0.886551
0.390672
-1.91643
1.40726
0.50917
0.473243
0.130568
-0.603811
0.0101994
0.374772
-0.477778
0.103006
-1.28927
-0.502619
0.864958
0.284228
0.406192
-0.322862
0.575852
-0.297754
0.478342
-0.949211
0.0645896
0.556086
0.422053
-1.11478
0.692724
-1.1184
-0.824401
1.94281
0.474228
-0.69137
-1.03866
-0.0957549
1.13442
0.264375
0.362933
-0.627308
0.083904
2.17498
-1.40929
-0.765693
0.383743
1.28814
0.0126513
0.842158
-0.685205
-0.156953
-0.53333
1.27178
-0.738451
-1.12824
-0.393409
1.52165
-0.910254
0.368556
-0.751799
-0.30468
2.26245
-0.877309
-1.38515
-0.492258
0.0535429
0.438715
0.716573
0.162205
-0.878778
-0.343127
0.389775
-0.1193
0.664829
-0.545529
-0.129192
-0.0478253
-0.420117
-0.0195865
1.32303
0.939429
-0.986393
1.8304
-0.516672
1.67951
-0.496014
0.00375547
-1.61566
0.487416
1.42214
-1.21843
-0.232653
-1.25579
0.27853
0.984387
-1.30366
1.31762
-1.39792
1.62705
-0.0420749
-0.390468
-0.236476
-0.478492
-0.215978
0.69447
-0.596827
-0.0612471
1.41415
0.264487
-1.67863
0.0110067
-0.50455
0.493543
0.00631146
0.74078
-1.95068
1.2099
1.68763
-0.120042
-1.76091
1.78583
-0.0249227
0.418791
-0.29754
-1.78352
-0.205389
-0.64009
1.73117
-0.0381312
0.532342
2.00595
-0.784711
-1.22124
-1.14365
-0.146923
1.29058
0.114336
0.974976
-1.08931
-1.35733
0.0547124
-0.388677
-0.212589
0.601266
-0.897383
1.1991
0.30096
1.00063
-1.30159
-0.864719
-0.0744112
0.939131
-1.72634
0.132869
1.59347
0.269207
1.06369
-0.460604
0.931667
0.611743
-0.498235
-0.32196
1.39833
-1.65353
0.193857
-0.719008
0.525151
-0.510117
0.554408
1.34289
0.0815119
-1.4244
1.18281
-1.69948
-0.0942185
0.324633
-0.415857
1.18758
-0.771728
-1.12218
0.5493
-0.0291678
0.546245
-0.517077
0.390578
0.000583155
-0.391161
0.486968
0.146971
-0.508792
1.17575
-0.10175
-0.480145
-0.3113
0.335144
0.702044
-0.426839
0.535788
-0.31461
-0.391269
0.374604
0.0166651
0.40821
-0.45542
0.0472105
-1.3792
1.14182
0.163129
-1.20179
-0.0232671
-0.541411
0.017891
1.08868
-1.10657
0.637259
-0.681131
0.674991
-1.36013
0.685136
-0.885929
1.42835
-0.542417
0.519974
-1.92255
0.227172
-0.0458884
-1.85037
0.859902
1.3866
-1.44431
-0.211195
-1.31007
-0.622902
-0.816612
0.353205
-0.247215
-0.0492879
0.296503
2.18369
-1.07074
1.84613
-0.431338
-0.449547
-0.313018
0.762565
-1.83145
0.719775
1.11168
0.532109
0.0112082
-0.333505
0.982099
0.321376
-0.184056
-0.773872
0.591397
-0.466312
-0.106035
0.538124
-0.43209
-0.21109
1.62524
0.360014
-0.480342
0.120327
1.78069
-2.26922
1.06916
1.20007
0.452178
0.4104
-0.862577
1.24004
-1.05232
-0.18772
-1.03011
0.539934
-0.521155
-0.0495044
0.766078
1.76058
-1.93927
0.800355
-0.345875
-0.77126
1.3341
-2.03224
1.44374
0.588502
0.565316
-1.38522
0.819906
-1.36134
1.43823
-0.0768886
0.729428
-1.031
0.0264599
0.389081
0.539297
-0.0994466
-1.2331
0.424201
-1.8368
0.704708
1.13209
0.484727
-1.62838
1.45832
-0.0655539
-1.1422
0.256368
0.756178
2.01436
-0.674275
-1.34008
-0.286093
0.517741
-1.15726
0.31425
-1.84142
1.69449
-1.24324
0.767435
0.946015
-1.61319
1.22404
0.389148
-1.85893
1.21859
0.640344
-0.699141
-0.255568
0.330426
-1.92919
1.36985
0.559343
1.2165
-1.94674
-1.65004
-0.0231829
2.09392
-0.792787
1.72789
-0.805373
-0.922515
-0.0465486
-0.29621
0.342759
0.284714
0.937206
1.04933
-1.36018
-0.253005
0.300633
0.426859
0.411801
0.701303
-1.1131
0.743542
-0.430782
-0.141887
-1.88153
2.02341
-0.690078
0.682067
-1.54948
-1.1308
-0.753084
1.88389
0.487749
-0.620391
-1.3202
0.429998
0.890204
-0.0272064
0.0759934
-0.048787
1.66202
-1.86094
0.77007
-1.18593
0.963275
0.360711
-1.32399
0.523112
-0.159705
-1.56458
0.457643
1.10694
-1.23727
0.370023
0.720814
-1.25414
0.777463
-0.583606
0.00314624
-0.0303526
-0.0890159
1.9832
-1.16968
1.46383
-0.294148
1.90753
-0.00512682
-1.90241
-1.41395
0.0147332
-0.576077
0.0605032
1.53821
0.245752
0.0600919
0.20697
-0.0426256
0.609822
0.985179
0.118891
0.495414
-1.66287
-0.125744
-1.7425
0.848183
-1.65332
0.345094
0.358906
-0.703999
1.71886
0.0988057
-1.81767
-0.21927
0.208366
-0.633873
-1.41493
-1.51969
-0.214138
-0.578975
1.76178
-0.630243
0.883458
-0.253216
-1.63766
0.519251
-0.554584
0.966386
-0.802803
-1.21122
-0.471493
-0.535129
0.697688
-0.886749
0.199242
2.01762
-0.286445
1.23709
-1.02327
-0.213821
0.195055
0.240393
0.506918
1.94806
-1.82052
-0.0298714
-0.431438
0.633393
-0.932274
1.00886
-0.874579
-1.03353
0.407554
0.340653
-0.748207
-1.63324
0.0345265
-0.237238
1.46298
-1.22574
-0.211258
-1.54965
-1.31545
1.4219
2.19259
-0.955483
-1.2371
-0.198462
0.607801
1.63334
-0.762239
-0.871098
0.506216
-0.554041
0.0461807
0.247722
-0.357196
0.0325556
0.324641
-0.334427
0.973322
-0.768032
1.98453
-0.0406486
-0.304868
-0.520802
-0.177243
0.698046
-0.0194515
1.68147
0.46121
0.208061
-0.669271
-0.704436
1.0885
0.794358
0.805701
-0.686635
-0.214236
0.991221
-0.350966
-0.640255
-0.112584
0.041137
0.0714474
0.108788
-1.38246
1.27367
-1.78333
0.263639
0.42021
-0.820177
1.66836
-0.0109396
0.517156
0.258317
-0.888559
-1.99227
1.01827
-1.74778
0.592144
-0.870738
0.118885
-0.713731
-1.11801
1.83174
-1.91353
-0.023944
-0.342252
0.366196
1.53907
-1.20969
1.21986
-1.10552
0.296326
1.01105
-1.30738
0.332979
-0.721656
-1.33917
-0.530326
1.8695
-0.214751
0.580506
-0.365755
-0.827082
1.51988
-0.692801
1.62796
-1.14853
-0.479425
1.64543
0.0543939
-1.69982
-0.895135
-1.37409
-0.603853
-0.0539459
0.733295
1.27561
-0.0243733
0.1884
-0.164027
-1.25253
-0.312049
1.29443
1.10019
-1.0062
1.22885
-0.222649
0.360133
-0.339065
0.305959
0.819369
-1.12533
-0.106739
0.466753
-0.20888
-1.72031
-1.80657
0.842577
-0.0759887
-0.280709
0.612115
0.175497
1.36983
-1.54533
-0.969959
-0.197016
1.23837
0.57194
0.13757
-0.483417
1.20742
-1.21569
0.00827106
0.177172
-0.700631
0.523459
1.17052
-0.100599
0.513835
1.57853
-0.718435
1.64645
-0.964382
-0.220184
-0.472182
0.692366
1.40357
0.166015
0.0373993
-1.26643
0.859519
1.42227
-1.44173
-0.806529
-0.740003
1.54653
-1.06557
-0.765883
-1.78443
1.83443
-0.050004
-0.209148
-0.706858
0.49088
1.06865
0.509885
0.14596
-0.57021
0.42425
-0.64783
-1.30162
-0.371453
-1.39819
1.76965
1.78265
-0.599441
-0.471743
0.586686
1.08731
-1.72118
0.839465
-0.716426
-0.807793
1.87832
-1.07052
0.693053
0.903539
0.608975
-1.51251
1.83009
-1.14472
-0.685367
-0.662998
-1.31008
1.87614
-0.566054
1.05531
0.181781
-0.540619
0.529679
0.807928
1.50967
-0.411972
0.365423
0.16297
0.0243243
1.80295
-1.00024
0.856893
1.3268
-0.782704
0.419812
0.362892
0.482589
-0.850729
1.42549
-0.0825939
1.11769
0.610202
-1.27704
-0.117134
1.39418
0.359299
-0.0516248
-0.307674
0.293985
0.151453
0.260664
-1.84212
-0.528097
0.573714
1.31198
-1.15266
-0.159323
0.289549
0.701672
-0.288563
0.147668
0.459177
0.45022
-0.909397
-0.805015
1.47736
-0.116518
-0.82064
1.96083
-1.14019
-0.464495
0.797813
0.00626352
-0.870983
2.00857
-0.983807
-0.649264
1.09066
0.14938
0.56139
-0.584657
-0.33185
0.286019
-0.53162
-0.268799
-0.0124918
0.835717
-0.270583
1.52285
-1.25226
-0.48395
0.314453
-0.626707
0.213045
-0.619505
0.0156526
-1.75849
1.23423
0.43508
0.451369
0.19617
-0.635945
0.439775
0.447082
0.16672
1.47209
0.835263
-2.30735
-0.199658
-0.0326166
0.232275
-0.0209718
-1.4897
1.44174
0.750844
1.46901
-1.29352
-1.91185
-0.0780114
-0.0664037
-0.354536
0.851058
1.15953
0.589459
-1.74899
0.694487
-0.0572278
-0.054375
-0.594779
-0.187925
-1.07809
-0.948128
0.865349
0.662401
1.25835
1.08393
-1.03026
-0.0536708
0.361035
0.013569
-0.115853
0.47013
-0.0619207
1.42041
0.432274
-1.85268
-0.672657
0.566622
-0.428684
0.263205
0.165479
-0.640903
0.00659997
0.634303
0.81831
0.604125
-1.42244
0.432757
0.534756
1.29418
-0.0293393
-0.495358
0.668717
-0.711342
-0.206366
0.297561
-0.0911953
-1.80222
1.00657
1.58645
-1.2624
-0.324046
0.0303947
-0.275188
0.244793
1.60611
-1.75768
1.60729
0.175351
0.347956
0.871903
-0.251057
-0.0177425
0.602045
-0.524098
-0.0779477
-0.97623
-0.238738
1.99913
-1.02264
-0.976495
1.60041
-0.695629
-0.904778
0.743402
-1.2861
0.5427
0.0777448
0.969328
-0.00785609
-0.1192
0.910291
-0.79109
0.118039
0.484006
-0.678064
-0.415422
-0.0649198
1.68614
-0.0127564
-1.67338
-0.746569
0.81847
-0.396417
-0.243814
0.115457
0.164392
1.02319
-0.254706
0.419128
0.059419
0.0184921
-0.204763
0.288052
-0.716003
1.01233
0.0285047
0.4513
0.154389
-0.504916
1.47106
-0.000249462
1.08418
-0.255226
-0.224031
-0.444431
0.903608
-0.368632
1.41917
-1.05054
-1.49052
-0.194134
-0.642393
1.39026
-0.74787
0.10236
-0.517782
0.571723
-0.118399
-0.0393894
-0.438185
0.477574
-1.47499
0.491184
0.225083
-0.250015
0.844411
-2.1571
0.597182
-1.71043
-0.485088
1.09382
-0.605292
0.930696
-0.480476
0.0244658
-1.18433
1.29312
0.000467561
-0.290531
0.195637
-0.952919
-0.190233
-1.08497
1.2752
0.533289
0.544373
2.19309
-1.39792
-0.795162
-0.409058
0.127502
0.419234
0.0413362
-0.46057
-1.43896
0.269279
0.355645
0.0333118
-0.0121169
-0.241559
0.253676
0.828862
-1.47125
0.156781
0.79721
0.0857748
-0.882985
-1.58692
1.21829
0.276626
0.0711134
-0.347739
0.65635
-1.94232
-0.264656
-0.00325348
0.26791
0.357307
-0.0806816
0.0191946
1.31271
-0.971877
1.09532
0.906619
-0.473862
-1.65
0.519198
-1.20863
0.9898
0.218827
0.739082
-1.54561
-0.875185
-0.558736
1.43392
0.145755
0.720343
-0.544543
0.450117
1.94183
-0.241582
-1.70025
-0.0177156
-1.64515
1.50373
0.141701
0.916957
0.71638
-0.292328
-0.00690437
0.278198
-0.515058
-0.601733
0.0612725
-0.128695
0.0674226
0.0352169
-1.71472
1.6795
-0.0853975
0.523444
-0.438046
0.528163
-1.64425
1.11609
-0.149981
-0.982475
-0.053579
-0.123389
1.1849
-0.598207
-0.359267
0.957473
-0.66413
-0.691255
0.799193
-0.45854
-0.468121
0.0497354
0.418385
-0.446688
0.642858
-1.71062
-0.225065
-0.0919103
0.316976
0.243664
0.559748
-0.803412
1.189
-1.77608
0.587073
0.071583
-0.999791
0.265399
-2.02193
-0.90113
-1.09539
1.99652
-1.68597
0.0787007
1.60727
-2.06828
-1.40732
0.045973
-0.500077
0.516834
-0.0167576
-1.75674
-0.650866
2.07127
0.672415
-0.352611
0.147563
-0.591994
-0.306839
0.841595
0.27522
0.180529
-0.701331
0.0318797
-0.261596
0.229716
-0.363773
0.0706549
-0.176916
0.20731
-0.486358
0.938536
-1.94137
1.22331
0.718067
-0.531875
0.415534
1.04796
0.3729
-0.013601
-0.44309
0.58905
-0.835592
-0.48461
-0.972132
0.356869
0.615263
-0.0502056
-0.355892
0.406097
-0.721731
0.898902
-0.166738
1.27768
1.05581
-0.594596
0.936274
-1.6004
0.810197
-1.01372
0.203524
0.204478
-0.0074233
0.245951
-0.0145633
-1.82546
1.11173
0.743516
0.856891
0.0268013
-0.363989
0.337187
-2.23317
0.881942
-0.359608
0.475455
-0.348155
-0.0307515
-0.395393
0.426144
-0.998976
0.400769
-1.80296
1.59408
1.49373
-0.530452
-0.387399
0.347619
0.0397801
0.0784298
-0.36526
-0.276773
-1.95667
0.777869
1.1788
-0.262086
0.229469
-0.165224
0.58122
-0.415996
1.55151
0.0557857
-0.0153109
0.231385
-0.216074
-0.470547
0.499051
0.279907
-0.383017
1.3091
-1.62457
1.75721
0.133152
-0.965866
-0.63173
1.71759
-0.0696939
-1.6479
0.108188
0.359081
-0.467269
0.999083
-1.96966
0.561831
0.272796
-0.834627
0.0369871
-0.0472782
0.0102911
-1.42624
1.44753
-0.0212918
-0.405248
1.08024
0.773417
0.939478
1.78566
-0.590855
-1.1948
-0.0256193
-0.269873
0.295492
0.48988
-0.560719
-0.036935
-0.547289
-0.0134301
0.0925948
-0.588178
0.495583
-0.173329
1.69674
-1.52342
-1.56747
0.539623
1.02785
0.517647
1.55231
0.0663351
0.0812256
-0.147561
0.974378
0.447562
-1.42194
-0.0386589
-0.208556
-0.691686
1.78204
-1.09035
-1.40617
0.129127
1.16765
0.504696
-1.37988
-0.00191735
-0.198974
0.200892
1.47627
-0.263975
-1.21229
0.425347
0.39007
-2.08987
1.0536
1.78055
-1.92243
-0.896129
0.176716
0.719413
-0.195099
-0.00683701
-0.372673
0.37951
0.254457
-0.398231
0.143774
-0.0148846
0.217788
-0.202903
-0.331624
0.344152
-0.0125275
-0.987688
2.07499
-0.524892
0.520022
0.211532
-0.376756
0.65314
-0.969698
0.316558
-1.17838
-0.853863
0.407279
-0.0960592
-0.207731
-0.0111684
0.2189
1.97176
-0.705968
-1.26579
0.20598
1.106
-0.43046
-0.235002
-1.00627
0.179808
0.305949
0.925645
-1.23159
-0.047051
-0.0229525
0.0700035
-0.042647
0.612837
-0.580912
-0.247898
0.828809
1.55266
-0.825515
-0.727149
-1.76368
0.214765