/*--------------------------------*- C++ -*----------------------------------*\
| =========                 |                                                 |
| \\      /  F ield         | OpenFOAM: The Open Source CFD Toolbox           |
|  \\    /   O peration     | Version:  2306                                  |
|   \\  /    A nd           | Website:  www.openfoam.com                      |
|    \\/     M anipulation  |                                                 |
\*---------------------------------------------------------------------------*/
FoamFile
{
    version     2.0;
    format      ascii;
    arch        "LSB;label=32;scalar=64";
    class       volVectorField;
    location    "1";
    object      U;
}
// * * * * * * * * * * * * * * * * * * * * * * * * * * * * * * * * * * * * * //

dimensions      [0 1 -1 0 0 0 0];

internalField   nonuniform List<vector> 
13486
(
(3.00079 -0.555492 2.00836e-18)
(3.35556 0.48786 9.28495e-19)
(4.19329 -0.0553944 0)
(2.26309 -1.22372 -7.99589e-19)
(4.76504 -1.09231 5.5186e-19)
(4.61288 0.126565 9.58216e-20)
(5.23112 -0.928507 8.81151e-21)
(4.05842 -1.49859 -1.02557e-18)
(3.91776 -0.817316 0)
(4.10714 1.17965 0)
(2.98796 -1.97962 -7.00341e-19)
(4.59608 0.131217 0)
(2.75548 -0.92629 -2.01211e-18)
(4.88278 0.912576 2.15994e-19)
(5.0322 -0.691513 2.83396e-19)
(4.00966 1.19202 -4.75909e-19)
(-1.87826 -0.0261593 1.56028e-18)
(0.457191 -1.05707 -3.26105e-18)
(4.52358 0.124351 7.72976e-21)
(3.27026 -0.178676 -2.02066e-18)
(2.93391 -1.6181 -3.08943e-19)
(2.791 -0.953861 2.62307e-18)
(3.40351 0.480399 -7.38678e-19)
(4.01346 -0.941643 0)
(4.1874 0.93832 1.46302e-19)
(4.02809 -0.880608 -2.25892e-19)
(1.9644 -1.08553 4.79687e-19)
(4.18627 -0.0737829 8.52272e-19)
(4.04471 -0.0691892 0)
(3.9415 -0.288915 -4.82812e-19)
(2.74953 -1.48231 -2.35929e-19)
(5.28207 -0.172085 -2.70859e-19)
(4.54157 -0.663067 7.35827e-19)
(3.9061 -0.077331 0)
(4.07838 -1.44102 0)
(3.86322 0.0313531 8.64233e-21)
(3.96854 0.0437617 5.89066e-20)
(3.27224 -1.52706 1.01251e-18)
(3.92254 0.125919 -6.82268e-21)
(3.90988 -0.515155 9.99295e-19)
(5.02957 -1.72833 0)
(2.20233 -1.07983 -2.33477e-18)
(4.02075 -0.044043 0)
(4.225 0.817727 -6.978e-19)
(4.24743 0.748497 2.87303e-19)
(4.6096 0.121564 2.97561e-19)
(4.937 -5.20492 8.26725e-18)
(3.96913 -0.0324312 -7.0716e-21)
(3.96672 0.041759 -4.66427e-20)
(4.64694 -0.0597365 4.95302e-19)
(3.91199 -0.0377673 1.07621e-18)
(3.87406 0.0443447 0)
(4.74575 0.393191 -3.37163e-19)
(3.38973 -1.27683 -1.47951e-18)
(1.59037 -0.601748 0)
(4.71011 -1.10308 -3.90651e-19)
(3.98835 0.0221782 -5.30814e-20)
(3.88297 0.041846 -3.12746e-20)
(4.50738 -0.651437 8.7014e-19)
(4.07328 0.0667981 0)
(3.13113 -1.80201 -7.20506e-19)
(3.97888 0.11876 0)
(5.6839 -1.44793 -1.35591e-18)
(2.91642 -1.60175 -3.82225e-21)
(3.28816 -0.955349 0)
(3.98935 0.0606546 3.32073e-20)
(2.30708 -1.19867 -7.85779e-19)
(2.90688 -0.0177989 6.82485e-19)
(3.92522 -0.880438 -5.82379e-19)
(3.89748 0.0363394 -4.80845e-21)
(1.97918 -1.00213 9.02669e-19)
(0.994253 -0.690523 -9.07225e-20)
(3.94443 -0.295929 7.44495e-19)
(0.769483 3.73751 -4.30583e-18)
(3.99265 0.0796067 1.12374e-20)
(4.0067 0.0812319 1.37317e-20)
(4.01324 -0.0280764 -3.07928e-20)
(5.05121 -0.748207 -1.17906e-19)
(3.49936 -5.05978 -2.47511e-18)
(3.54419 0.102493 0)
(3.93179 -0.0368848 3.1311e-21)
(3.35974 0.605724 -5.80682e-20)
(5.57114 -1.91858 -1.56276e-19)
(4.14903 -0.0304422 -5.29189e-20)
(2.98202 -0.558618 -3.95509e-18)
(2.88486 3.01682 0)
(3.83578 0.423362 6.63111e-20)
(3.93229 0.104618 -1.62398e-18)
(3.81876 0.357751 -7.22971e-19)
(3.87151 1.67041 -4.98819e-19)
(5.33504 0.263966 -6.50708e-20)
(4.30382 -1.293 -5.28265e-19)
(3.14409 -0.730386 5.21637e-19)
(3.36097 0.0377438 5.25354e-20)
(3.78285 -1.20512 2.35211e-19)
(3.95326 -0.0387583 -3.45011e-21)
(2.34115 -1.21729 0)
(3.06719 -1.58059 3.8284e-19)
(3.97751 -0.505505 -1.91101e-18)
(-1.13827 -1.4502 2.18487e-19)
(4.14136 0.0816476 0)
(4.83879 0.925456 6.91006e-20)
(3.06331 -1.55254 -1.28834e-22)
(3.85956 0.0443847 3.18932e-20)
(2.9302 2.89723 0)
(-1.36637 -1.34855 2.27258e-19)
(3.91826 0.166738 4.83398e-21)
(3.83678 0.136841 -1.27486e-20)
(4.72756 -5.33577 4.36134e-18)
(4.05749 -1.84149 0)
(3.19589 -1.51272 0)
(5.53497 -0.519655 -1.31274e-19)
(3.40361 -1.23116 1.05041e-20)
(4.07719 0.042608 2.96853e-21)
(2.34924 -0.231935 0)
(3.04703 -1.49741 -8.75767e-19)
(4.16126 0.951699 0)
(4.02846 -0.0883949 0)
(3.90804 -0.277474 0)
(3.96297 0.0307413 2.4369e-20)
(0.876915 0.103001 1.38825e-18)
(3.05585 -1.78807 0)
(3.72378 -1.09616 0)
(3.88167 0.109487 2.00328e-20)
(3.87676 -1.39278 0)
(3.84293 0.00464619 0)
(4.42034 -0.545705 2.15185e-20)
(4.2342 0.0976729 2.27901e-19)
(3.91003 -0.0615808 -8.06362e-20)
(3.25447 -0.810897 -1.66205e-19)
(3.86856 0.0392523 -3.90536e-21)
(5.25483 -5.30329 -1.99786e-18)
(6.15104 0.886484 6.8938e-18)
(0.0702938 0.0992635 5.10384e-18)
(4.06135 -0.00218246 -1.73635e-19)
(3.8525 0.733965 -7.74334e-19)
(1.49654 1.18126 -5.89528e-19)
(4.05213 -1.80239 0)
(3.97234 0.0207212 -5.09712e-21)
(4.0998 -1.20848 -3.67159e-19)
(4.67379 -0.437889 -8.73949e-19)
(4.85881 0.428675 2.84168e-19)
(5.02749 0.0609447 0)
(3.57026 0.0989727 0)
(4.04999 0.0193097 1.77086e-20)
(4.60468 -1.68409 -1.42629e-18)
(4.21642 0.386458 -6.63776e-20)
(0.708767 2.85291 0)
(4.7479 -0.213207 0)
(4.07471 0.00218601 0)
(4.06851 0.0460883 1.40337e-20)
(5.02632 -0.921239 0)
(4.03859 -0.0137452 -3.2961e-21)
(3.29534 0.573526 -4.9935e-19)
(4.40038 0.47645 0)
(4.28401 0.0698373 0)
(3.83011 -1.78034 0)
(1.85529 -1.43363 2.36704e-20)
(3.58233 -1.44877 2.09676e-18)
(4.00414 0.179577 8.14911e-20)
(4.784 -0.0694778 3.36289e-19)
(3.60483 -1.40024 -3.20263e-18)
(6.19729 0.232598 -3.41875e-19)
(2.02425 -0.967119 1.03041e-18)
(3.87428 0.0505846 0)
(5.07065 0.862337 -4.1408e-19)
(4.75261 0.924621 -2.61856e-19)
(1.22055 -0.393106 -2.53698e-18)
(4.1922 0.360961 1.75908e-19)
(-0.108406 0.253859 1.40509e-18)
(6.85972 0.712788 7.19649e-19)
(4.34995 0.449805 1.918e-19)
(3.95513 0.0896903 -1.24376e-18)
(4.70113 -0.343324 3.03279e-20)
(4.04541 0.060069 -8.49216e-21)
(3.18946 -1.44691 0)
(5.03503 1.50519 6.05736e-19)
(4.77233 -0.561652 1.22428e-18)
(3.9485 0.0714378 -1.81715e-18)
(4.99725 0.110715 0)
(4.0559 -0.610294 2.01098e-18)
(4.06228 0.0346478 5.8899e-21)
(4.83727 -0.227941 -2.21039e-20)
(1.95821 -0.924243 0)
(4.32734 0.175235 1.13343e-19)
(4.32623 -0.0740616 -3.91015e-19)
(4.02791 0.0235314 -9.95409e-22)
(4.04177 -0.14529 -1.56637e-19)
(5.00157 -1.6689 0)
(2.81816 -1.35687 -1.10765e-18)
(4.00124 0.0469618 0)
(4.15694 -0.0249324 0)
(3.90052 0.0715765 0)
(2.95649 1.48061 -1.0513e-18)
(3.80411 0.0369061 0)
(2.88568 -1.97215 -1.83419e-19)
(3.25056 -0.873661 3.76672e-19)
(4.63606 0.00436877 1.8574e-19)
(2.72654 -1.33902 -4.37926e-19)
(4.99673 0.799315 -2.18609e-19)
(2.82553 -1.43872 2.50983e-19)
(4.32003 0.142413 -6.89694e-21)
(3.1722 -1.5238 -1.17779e-18)
(4.13258 -1.77861 1.32057e-19)
(4.06809 0.152133 -1.00725e-19)
(3.80536 0.106507 -5.58437e-20)
(2.03657 -1.54235 -6.32567e-19)
(3.79684 -0.140707 1.51144e-18)
(3.73805 0.0792812 0)
(4.25803 0.115232 0)
(4.07526 -0.0962706 5.76379e-19)
(3.78522 -0.804122 3.52473e-19)
(3.33564 -0.158245 1.84195e-18)
(3.83806 0.0841349 7.3066e-22)
(4.64876 0.202845 -1.10403e-19)
(3.57495 -0.191046 4.81731e-20)
(3.9735 -0.304547 0)
(3.89462 1.59463 1.34514e-18)
(3.26655 -0.772249 0)
(5.98327 0.0862249 0)
(-1.90594 -0.440967 -3.19586e-18)
(4.75801 -0.13809 0)
(4.06146 -1.20499 8.48477e-19)
(4.71896 0.010152 0)
(4.64003 0.529807 -5.29572e-20)
(2.81945 -1.31789 7.20709e-19)
(4.8542 0.257647 -2.31224e-20)
(2.98186 -1.35722 1.27467e-19)
(3.6312 -0.059142 8.84609e-21)
(3.84237 0.394257 -5.92798e-21)
(4.04715 -0.596014 -6.47393e-19)
(3.4029 -0.554683 6.98006e-19)
(4.60873 -0.524348 1.10096e-18)
(2.22021 -1.08056 7.99932e-19)
(3.02713 -1.53815 0)
(2.5924 -1.25549 8.5442e-20)
(4.00465 -0.161817 2.68031e-19)
(4.11863 0.0509867 -2.38607e-20)
(2.43016 -1.17035 2.26963e-18)
(4.68762 -0.0667145 0)
(4.4577 -0.694579 0)
(3.98396 0.0926498 1.88676e-18)
(4.054 0.0513727 0)
(2.35723 -1.17445 7.77098e-19)
(3.88595 0.143364 -1.6714e-22)
(3.61587 0.108907 0)
(4.5589 -0.0635451 -1.28169e-19)
(3.97158 -0.614288 8.07083e-19)
(-3.03838 3.52533 1.00922e-17)
(4.06752 0.785169 0)
(3.18719 -1.57007 -1.77781e-19)
(2.28181 -0.167214 2.92219e-19)
(2.7373 -1.34281 1.08807e-18)
(3.89778 0.141529 0)
(3.66043 0.00922704 4.67467e-20)
(3.25127 -1.46395 9.59873e-20)
(5.29846 -0.160976 1.85265e-19)
(3.53405 -0.185728 -6.09828e-20)
(1.94776 -1.40314 -2.52404e-20)
(4.40965 -0.691462 5.13657e-19)
(3.63764 0.325075 0)
(3.86971 0.134476 1.18327e-21)
(5.06376 -0.713031 -6.78117e-19)
(3.23742 -1.45775 -1.20243e-19)
(4.54324 -1.51013 -6.04341e-19)
(2.25533 -1.08445 0)
(3.68836 -0.0581346 -1.2519e-19)
(2.82005 -1.49228 -3.38907e-19)
(4.07244 -0.0816493 -8.78036e-19)
(3.21872 1.74855 0)
(3.199 1.65689 7.10343e-19)
(4.03064 0.148869 -4.90484e-19)
(4.03326 -0.317603 0)
(4.63855 0.248552 2.30437e-19)
(2.80809 -1.34181 9.63671e-19)
(3.96992 -0.565738 -4.52564e-19)
(3.68213 -0.00772797 0)
(2.67317 -0.553465 0)
(3.84026 0.124499 -2.02466e-20)
(4.2166 0.393123 1.39865e-19)
(2.74106 -0.563643 2.39423e-19)
(4.26548 -0.430946 -7.2782e-19)
(3.87304 0.16111 1.08506e-18)
(4.03182 -1.29644 -4.73175e-19)
(3.04381 -1.68245 8.30989e-19)
(0.816808 -1.73325 1.20109e-18)
(4.7146 -0.428963 1.04738e-18)
(3.85004 -0.0270295 1.05562e-19)
(4.57799 0.543313 9.30186e-20)
(4.05109 -0.0297521 0)
(3.01013 -1.56521 0)
(3.93591 0.143111 -2.99082e-20)
(3.10106 -1.48966 8.6278e-19)
(3.97644 0.0942384 -1.72553e-19)
(3.91581 -0.168304 2.40693e-19)
(4.00301 -0.137147 0)
(4.58701 0.0568129 -4.3357e-19)
(4.46689 0.263376 -1.98336e-19)
(3.80169 0.17631 -9.85359e-19)
(5.19023 -1.15127 1.18842e-19)
(6.26745 0.422593 3.80702e-19)
(2.02659 -1.67122 -1.2472e-19)
(4.22751 0.385383 -1.21313e-19)
(5.24675 -0.224659 2.52152e-19)
(3.96789 0.0436923 -7.52277e-21)
(3.53962 -1.64871 0)
(0.636944 -0.142564 0)
(4.68463 -0.0597516 2.61633e-19)
(3.82538 0.392384 -5.01647e-20)
(3.95399 0.0452608 0)
(5.12411 3.33543 -8.05062e-18)
(1.98471 -1.03388 0)
(4.8417 1.52277 -1.74935e-19)
(5.49699 -0.5024 -1.14823e-19)
(3.7354 -1.91866 0)
(3.8122 0.687751 -4.80254e-19)
(3.94147 0.1661 4.67081e-20)
(3.81565 0.313404 -6.23156e-20)
(3.7508 -0.117858 -1.65465e-18)
(3.75315 -0.101563 0)
(3.99018 0.0675208 -5.99399e-20)
(3.95216 0.137473 3.88794e-21)
(3.96545 0.108226 2.29941e-19)
(3.34751 0.169806 -9.75367e-19)
(1.73236 1.12399 1.07467e-18)
(5.36798 0.137314 9.53828e-20)
(4.5648 -0.762847 -1.96356e-18)
(4.3202 -0.4236 0)
(4.37804 0.249765 -9.37278e-22)
(4.65462 -0.766933 -3.40247e-19)
(4.04837 0.0881087 2.34194e-18)
(4.37816 -1.28229 0)
(5.48342 0.374692 3.34934e-20)
(3.04506 0.582718 0)
(5.31308 -0.980784 -4.02623e-19)
(3.89392 -1.13282 -6.43227e-19)
(1.78809 -0.854921 9.45455e-19)
(4.96516 -0.954566 -4.72292e-19)
(4.03393 0.394512 0)
(3.89177 0.137273 1.4705e-20)
(3.67228 -0.114177 1.3369e-19)
(3.35317 0.179631 9.19718e-19)
(4.68769 -0.791608 1.37243e-18)
(4.8432 -0.234757 6.07213e-19)
(3.23324 -1.55144 -5.82041e-19)
(4.02658 0.0223552 -8.47668e-21)
(4.40743 -0.379145 0)
(2.26223 -0.825271 2.32542e-18)
(5.94472 -0.00783586 0)
(3.89008 0.112748 -2.30274e-22)
(4.46198 -0.225597 1.15565e-18)
(4.47741 0.292927 -2.0315e-19)
(4.57049 0.321736 1.82859e-19)
(2.38488 -1.15486 -6.09102e-19)
(3.9792 0.0374561 1.2392e-18)
(4.03731 0.0787085 0)
(1.27696 3.10813 -3.68412e-18)
(4.47093 -0.527318 -4.1799e-19)
(3.82826 0.35166 2.18715e-20)
(3.74669 -0.754026 3.31125e-19)
(4.58355 0.0734315 0)
(5.26106 0.426629 7.29827e-20)
(3.60995 0.236411 1.91977e-18)
(3.82958 0.186072 1.48921e-18)
(3.94192 -0.339283 0)
(4.03077 0.0204237 2.4817e-21)
(3.92035 -0.0435516 -2.51727e-19)
(5.8844 -4.8537 1.6665e-18)
(3.27076 -0.195287 2.55993e-19)
(4.45559 -0.462679 3.96003e-19)
(3.96625 -0.0877339 -6.73433e-21)
(4.58217 -0.355264 0)
(4.56082 0.586764 -2.19202e-19)
(3.19347 -1.56275 1.74851e-19)
(4.70794 0.445488 2.05134e-19)
(3.97269 -0.0611911 8.78258e-19)
(3.19797 0.0343936 0)
(3.91341 0.108533 4.50512e-20)
(3.81773 -1.83692 0)
(7.11432 0.818554 -1.41431e-18)
(4.05147 0.00255627 0)
(4.35106 -1.46099 -2.31382e-20)
(2.79564 -0.349601 -5.54689e-19)
(3.23115 1.39745 1.70354e-18)
(6.05017 -4.89778 -5.40816e-18)
(3.72692 -0.0157084 0)
(4.5136 0.197148 -5.1643e-20)
(4.05831 0.387498 -4.57217e-19)
(-5.4595 2.02572 -4.44712e-18)
(2.71431 -1.57776 4.19123e-20)
(3.398 -0.225214 -2.78115e-18)
(4.09292 -0.297058 2.46359e-19)
(4.16983 0.377403 2.95454e-19)
(3.06809 -0.989496 0)
(2.90464 0.410944 1.05684e-18)
(3.9692 0.0651568 2.57385e-20)
(2.14223 -1.12821 4.58164e-19)
(3.20057 -1.56703 -6.13272e-19)
(-4.81902 1.46711 -5.69268e-18)
(4.76148 -0.425254 0)
(-5.60631 2.07189 0)
(4.27861 1.89454 0)
(4.14224 -0.153777 0)
(1.46169 -0.631338 -3.41361e-19)
(5.30069 -0.904896 0)
(4.00767 0.622252 0)
(3.38385 0.091424 3.76649e-19)
(4.77307 -0.560095 -1.27221e-18)
(4.4769 -0.370713 -9.82544e-19)
(3.43933 0.545092 3.08663e-18)
(3.96894 0.0390182 -2.42684e-19)
(5.0732 2.79291 0)
(4.26472 -0.282246 0)
(3.90616 0.110176 1.06363e-18)
(3.97706 0.0839886 1.80215e-19)
(2.81753 1.58049 0)
(1.93375 -0.937423 6.05445e-19)
(4.50806 -1.53319 6.84242e-19)
(6.72933 0.396526 0)
(4.71786 -0.12062 6.08425e-19)
(4.01745 0.13026 -1.22434e-18)
(3.00059 -1.105 2.53685e-19)
(2.24228 -0.800204 0)
(4.04134 0.502861 9.02283e-19)
(4.84218 0.0837709 0)
(3.95927 -0.189202 0)
(4.33556 0.279192 -2.84507e-20)
(3.801 0.128319 5.63091e-19)
(2.07523 -1.18137 -6.17358e-19)
(4.70353 0.949379 -1.7907e-20)
(2.85864 -0.779665 -9.92655e-19)
(4.16467 -0.190929 1.27781e-19)
(4.161 0.339657 2.26352e-19)
(4.4545 0.589529 6.01837e-19)
(4.69811 -1.5098 0)
(4.06761 -0.603099 4.36369e-19)
(2.81536 -0.271768 0)
(3.93831 0.163372 -3.54091e-20)
(4.65729 -0.368431 0)
(2.97824 0.015498 1.4277e-18)
(1.68822 -4.59071 -1.00923e-17)
(4.05502 -0.291129 0)
(-1.6181 -0.566178 2.23459e-19)
(4.19424 -0.326976 -5.78896e-19)
(3.95242 0.300469 9.67527e-20)
(3.64629 -0.59627 2.65819e-18)
(2.98372 1.36816 -1.12864e-18)
(2.84168 -0.77205 -2.81112e-18)
(7.02934 0.721181 0)
(3.9693 0.0306176 -2.44209e-20)
(3.25068 -1.55795 -1.36998e-18)
(3.9949 0.481262 0)
(3.71627 0.409752 6.74639e-20)
(4.62184 -0.121742 -1.05126e-19)
(5.63217 1.43748 0)
(4.03663 0.0143936 0)
(1.83626 -0.912025 0)
(3.20431 -1.43335 4.10763e-19)
(4.00428 -1.31002 5.73721e-19)
(4.61201 -1.5351 3.20119e-20)
(4.75453 1.4858 0)
(3.49186 -0.394529 1.81067e-18)
(4.12422 0.0273991 4.29758e-21)
(4.67717 0.858861 1.00044e-19)
(2.93457 -1.60427 6.82688e-19)
(3.84176 0.324739 0)
(4.07684 -0.0944899 0)
(1.76029 -0.351087 -1.59166e-18)
(3.01339 -0.966416 -6.88499e-19)
(3.93776 -0.409134 0)
(3.34099 -1.60941 -8.23576e-19)
(4.07595 0.0220194 1.89659e-20)
(4.01731 -0.0249911 6.53133e-21)
(1.97371 -0.939999 0)
(3.79254 -0.00614397 7.48015e-20)
(3.98277 0.0382091 -1.55108e-20)
(4.88352 0.0225667 4.16732e-19)
(3.87052 -1.17158 0)
(0.700938 -1.9279 -1.86412e-18)
(4.534 0.367571 2.16195e-19)
(3.99299 0.243511 1.96148e-19)
(3.91065 0.0100327 -5.74337e-21)
(5.14057 0.770602 0)
(3.38001 0.542318 -8.21605e-19)
(5.50028 -0.289511 -7.74094e-19)
(-3.85477 0.804429 6.94085e-19)
(3.93718 0.108175 0)
(2.78888 -1.5729 -4.22571e-20)
(1.27893 -0.298377 0)
(3.99699 0.195152 -7.60062e-19)
(3.93815 0.170636 3.5826e-19)
(3.78035 0.0358697 -2.07212e-19)
(3.21841 -1.45597 0)
(4.27377 -0.0277598 -7.86622e-20)
(2.41283 0.705936 2.96252e-18)
(4.63805 -1.49426 0)
(3.30914 0.0529753 1.20184e-18)
(5.16619 -1.18549 -1.33974e-19)
(4.23222 -0.00339105 0)
(2.9005 -1.47152 1.56726e-19)
(3.58941 0.127573 -6.94337e-20)
(4.13088 0.112696 0)
(-0.425487 -2.39903 2.57367e-18)
(3.71783 0.374251 0)
(3.687 -1.67191 8.49711e-19)
(3.17351 -1.55696 3.44619e-19)
(4.02272 0.0115694 1.61515e-21)
(4.67085 0.134591 -2.20537e-19)
(2.89354 0.414516 5.62374e-19)
(3.61498 -0.64504 -9.86834e-19)
(3.72651 -0.0196224 -5.84847e-20)
(3.69829 -1.6513 9.00325e-21)
(4.38788 -0.457199 3.91596e-19)
(5.10543 0.760127 8.41815e-19)
(4.19467 -1.88146 0)
(4.15557 0.0390511 -7.79035e-19)
(6.46696 0.638576 -3.73358e-18)
(2.8797 -0.278345 0)
(4.00848 0.0761386 6.41184e-21)
(3.91675 0.052935 0)
(2.66532 -0.818196 2.43665e-18)
(4.26635 -1.60253 0)
(4.13308 0.00772507 -1.6844e-20)
(4.53012 -0.219114 -6.56785e-19)
(2.8765 -1.4118 2.76219e-19)
(2.01016 -1.0088 6.14576e-19)
(4.6565 -0.0303829 -5.51005e-21)
(3.40223 -1.62799 6.95319e-19)
(3.69597 -1.09344 9.33583e-19)
(3.12559 -0.748291 0)
(2.03714 -0.977934 -3.90852e-19)
(4.75279 -1.38163 -1.46749e-19)
(2.06922 -0.971469 -4.51312e-19)
(4.06268 0.0523702 1.23879e-21)
(3.0652 -1.21635 0)
(4.08909 0.0231656 -2.90585e-21)
(2.05503 -0.97679 0)
(3.08491 -1.56385 -1.30547e-21)
(2.82487 -1.29809 -3.05234e-19)
(1.28165 -0.953918 0)
(4.21905 -1.12926 2.7023e-19)
(3.25756 -0.922851 0)
(5.65771 1.22509 0)
(3.45 -1.6216 -1.12277e-18)
(3.0988 0.507169 8.44081e-19)
(3.35377 0.251425 0)
(3.645 0.274949 -5.22178e-19)
(4.71369 -1.68038 1.65084e-18)
(3.20922 -1.56495 7.97305e-19)
(5.83502 2.07453 0)
(4.20718 0.0197442 0)
(3.26034 -1.56216 -5.92881e-19)
(3.76046 -0.292566 0)
(4.30772 0.0513274 0)
(3.15621 -1.76717 -1.10023e-20)
(4.22172 -0.826018 -1.30494e-18)
(3.59966 -0.91326 8.16827e-19)
(4.36513 -0.752947 7.25343e-20)
(1.82564 -0.88422 8.07985e-19)
(3.90969 0.0803197 4.16564e-19)
(3.19392 -0.812127 0)
(4.36933 0.718269 -8.97118e-20)
(2.97499 -0.512467 0)
(4.20952 0.00596999 0)
(4.04232 0.206077 0)
(4.36654 0.28438 -2.34971e-20)
(3.7341 -0.126303 7.66273e-19)
(4.04593 0.0473913 -2.10157e-20)
(3.26862 -0.825909 0)
(2.05151 -1.03415 -4.75657e-19)
(4.28738 1.81651 5.24209e-20)
(3.87441 -1.42138 8.93774e-20)
(3.88819 -0.0121688 -1.61063e-19)
(3.93134 -0.545699 7.39742e-19)
(4.09068 -0.0580076 -7.06779e-19)
(1.37491 -3.33845 0)
(4.64989 0.229363 0)
(3.08582 1.42832 0)
(2.70725 -1.21027 -1.78255e-18)
(2.91596 -1.13165 -2.80942e-19)
(0.852237 -0.541442 0)
(4.39881 0.712703 0)
(4.74403 0.664299 1.711e-19)
(4.12266 -0.0934336 -2.00809e-19)
(3.93009 0.963561 7.44968e-19)
(4.11321 -1.77017 0)
(2.97261 -1.68335 -2.21785e-19)
(4.55534 0.135682 -1.19174e-20)
(2.94978 -0.902582 -1.66023e-18)
(4.38203 0.101498 -1.0235e-19)
(4.66223 0.857696 2.16428e-20)
(3.67894 -1.05572 2.7984e-19)
(2.67182 -1.21137 3.0902e-18)
(3.36199 -0.38039 2.30428e-19)
(4.05225 0.0126321 6.03779e-21)
(4.04192 -0.00732425 -2.04218e-19)
(3.04987 -1.42436 -2.55413e-19)
(3.621 0.096641 2.97183e-20)
(3.50165 3.78117 1.12282e-19)
(3.31907 -1.58936 4.207e-19)
(4.28068 0.242966 0)
(3.97622 0.425758 -2.30353e-20)
(4.17333 0.00700746 -5.77592e-19)
(5.7306 0.482651 5.41154e-19)
(2.90157 -0.838704 -1.51063e-18)
(3.84124 -1.3663 -9.74754e-19)
(4.35102 -0.0849411 1.99118e-18)
(4.49796 -0.0301091 -1.12643e-18)
(4.17707 0.877384 -1.10375e-19)
(4.82273 -0.436218 -5.34186e-19)
(2.5136 -0.459153 -3.32001e-18)
(4.17975 -0.050273 -3.9217e-19)
(2.49042 -0.569789 0)
(2.97573 -1.37955 -5.50146e-19)
(4.11174 0.0169475 1.80514e-18)
(3.84579 -0.0286938 -5.69438e-21)
(0.604885 3.81923 0)
(3.77287 -1.7536 0)
(4.07675 0.691802 6.19925e-19)
(2.25949 -0.43636 2.06687e-18)
(3.3335 -1.14658 -3.98819e-19)
(4.39283 -1.46383 -4.53517e-19)
(4.5965 -0.794094 1.06549e-18)
(5.98708 -0.0683986 0)
(4.11374 0.745092 3.15185e-19)
(1.451 -1.90415 1.5766e-19)
(5.13352 1.54447 6.84831e-19)
(4.00814 -0.560882 -1.15153e-18)
(2.12661 -1.02292 -1.31585e-18)
(3.97232 -0.502629 -7.21469e-19)
(4.04725 -0.620799 2.17785e-19)
(4.7259 1.9569 0)
(3.78571 -0.131663 -1.04006e-19)
(3.80528 0.0733567 1.90796e-19)
(4.04865 0.0247735 -9.18674e-21)
(2.05104 -0.996997 2.8091e-18)
(3.93301 -0.579932 1.71593e-18)
(4.01073 0.102826 -4.44986e-20)
(3.20618 -1.56408 -4.72908e-19)
(4.06721 -0.162652 -2.83989e-19)
(4.11175 0.00099571 3.46814e-19)
(3.00518 -1.71378 -1.07402e-19)
(4.94971 1.46845 -7.72412e-19)
(-0.472242 -2.14253 -2.8007e-18)
(2.4992 -1.21442 -9.50143e-19)
(4.01771 -0.000705562 0)
(4.14348 -0.0451348 -2.61216e-20)
(3.23323 -1.56705 -2.78783e-19)
(2.7657 -0.403424 3.00924e-18)
(4.10288 0.0328761 0)
(6.22961 0.757088 -5.1579e-19)
(2.57955 -1.06853 6.94476e-19)
(4.01899 0.149484 -1.75058e-18)
(2.80416 -1.37723 -5.74108e-19)
(3.43127 0.22133 -1.03735e-20)
(4.37232 -0.348604 6.64866e-19)
(4.4425 0.102511 5.76822e-20)
(3.7397 -1.69434 -1.1791e-18)
(4.07843 0.0210926 2.589e-20)
(2.96982 -1.14384 -6.20701e-19)
(4.20801 0.0750118 5.44192e-19)
(4.18572 -0.0408851 -5.50705e-19)
(4.21238 0.163652 -1.88208e-20)
(4.50708 -0.153792 -1.17684e-18)
(2.49615 -1.0988 -1.34423e-18)
(4.0655 0.0263174 0)
(3.10644 -1.44341 3.34311e-19)
(3.93999 0.0722927 1.36457e-19)
(2.99831 -0.806231 2.68743e-19)
(4.52933 -0.0112018 -1.78116e-19)
(4.48539 -0.841384 -6.61684e-19)
(3.99167 0.0752593 -1.28427e-18)
(4.1881 0.560775 1.73303e-19)
(1.73091 -0.851255 -6.20424e-19)
(4.28813 0.0872508 0)
(3.92841 0.159316 -1.98177e-20)
(4.42953 0.291511 2.07713e-19)
(3.08185 -1.18533 0)
(4.38067 0.222912 2.78638e-19)
(4.33908 0.256754 2.51804e-19)
(4.22695 0.0678505 2.35244e-23)
(5.21515 -1.75037 8.47392e-20)
(3.84174 0.0396594 0)
(3.63888 0.594294 1.44337e-18)
(4.00216 0.137255 5.40905e-20)
(3.2538 -1.56158 9.44822e-19)
(4.03007 -0.376311 0)
(3.0926 0.428812 -2.44094e-18)
(1.84706 1.69892 1.5946e-18)
(5.33964 2.41204 -1.50396e-18)
(2.53914 -0.497433 3.19743e-18)
(3.96572 -0.00330817 6.72522e-20)
(2.10476 -1.05975 4.83607e-19)
(3.86837 -0.243444 -1.20468e-18)
(4.16545 -0.594269 -6.51759e-19)
(3.60276 0.232432 -1.11387e-18)
(4.15388 -0.0180085 0)
(3.99866 0.0372666 -7.88483e-19)
(-0.0153623 -0.43508 1.60295e-18)
(0.0414483 2.54762 0)
(3.88843 -0.838592 0)
(4.03496 0.020257 0)
(-3.08472 0.144297 0)
(4.1338 0.608695 0)
(2.39802 -0.432603 0)
(3.63543 -0.2314 -3.41641e-21)
(4.54928 -1.42293 -7.3297e-19)
(4.87209 0.238424 0)
(3.63789 0.550541 2.20772e-18)
(2.93699 1.29854 -1.95757e-19)
(4.10977 0.390638 2.38404e-20)
(3.21083 -1.60995 -1.51787e-19)
(2.42195 0.0320059 -1.07697e-20)
(2.04594 -1.01734 5.16293e-19)
(4.31917 -0.0566701 -4.04196e-19)
(4.51028 -0.15573 6.50661e-20)
(4.10188 0.540461 -4.32583e-19)
(3.78147 0.358556 -1.44693e-18)
(4.14522 1.72496 -3.58521e-19)
(6.76944 0.794897 0)
(2.86942 -1.62913 1.28927e-19)
(2.7056 -0.848299 -2.6802e-18)
(3.99467 0.0850331 -2.39394e-18)
(4.77138 -1.41762 -7.42947e-19)
(4.13229 -0.0432239 1.90293e-19)
(5.53014 -1.39352 -1.40338e-19)
(4.3486 -0.651827 -1.46758e-19)
(4.24636 -1.10547 -9.31568e-19)
(4.04471 0.36693 4.78122e-19)
(6.59475 3.37627 0)
(3.74326 0.0414453 -4.57803e-20)
(3.41066 0.0467526 -3.44885e-19)
(5.39841 -0.850491 0)
(3.80469 0.106536 0)
(3.90055 -1.76881 -1.2319e-20)
(2.54878 -1.27822 5.12676e-19)
(3.55979 -0.196906 -2.49869e-19)
(3.9209 0.0539856 0)
(3.80543 -0.168469 -1.57734e-18)
(3.65186 0.393215 -2.8381e-19)
(3.05648 -1.44593 2.05122e-19)
(4.32229 0.16723 1.38327e-19)
(2.02781 -1.00158 0)
(2.88477 -1.65021 1.48043e-19)
(4.37834 0.185075 0)
(3.72554 -0.0941732 1.08789e-19)
(5.26872 0.411288 -7.85815e-20)
(4.02559 0.0179193 -4.01323e-22)
(4.82719 0.936962 4.75653e-19)
(5.69816 1.82658 -1.55975e-19)
(3.6073 -1.04452 1.95179e-18)
(2.75751 -1.47212 0)
(3.17551 -0.790566 -3.64071e-19)
(2.72444 0.178034 0)
(4.9267 0.195727 -2.02555e-19)
(3.05663 -1.468 4.34521e-19)
(3.8585 -0.827354 4.33791e-19)
(3.88358 0.138765 1.47397e-20)
(3.26247 -1.48476 -6.13872e-19)
(2.89392 -1.40855 -1.09561e-18)
(2.77951 -0.857231 -1.52811e-18)
(3.97451 0.0693365 -9.52998e-21)
(3.14488 -0.747213 3.00475e-19)
(2.54936 -1.12243 1.10934e-18)
(2.87209 -0.914761 1.69988e-18)
(2.92039 -1.13854 3.72453e-19)
(3.32324 -0.79408 -1.80766e-19)
(3.81174 -1.20926 9.70811e-19)
(5.55228 -4.86675 7.81307e-18)
(4.12278 0.0231032 1.30878e-20)
(2.77593 1.12229 1.49816e-19)
(4.60399 0.520317 3.29525e-21)
(4.64261 -1.14546 0)
(-3.70285 0.788945 -7.53579e-18)
(4.16225 -0.0148309 -6.7336e-19)
(4.07407 0.154269 0)
(4.96052 0.197356 0)
(2.80753 -0.670947 -2.8792e-19)
(4.22911 -0.860626 -6.45011e-19)
(4.61595 0.187885 3.51548e-19)
(4.20529 -0.805784 1.70534e-18)
(4.10224 1.59868 3.55166e-19)
(3.68599 0.106744 1.22578e-18)
(3.08557 -1.46713 -4.30438e-22)
(3.71964 1.04698 0)
(2.92029 -0.97103 1.64213e-18)
(3.08361 -3.09322 3.37323e-19)
(3.2594 -1.46984 4.65793e-19)
(3.58826 -1.37872 3.20525e-19)
(3.70663 -1.69176 -1.55035e-19)
(4.28078 0.0590738 5.82932e-19)
(3.8768 0.113139 -9.53732e-23)
(3.94928 -0.302079 5.16709e-19)
(3.109 -1.47373 -2.8978e-19)
(4.59722 0.221943 -2.45689e-19)
(3.83382 0.11555 6.2227e-19)
(2.48114 -0.567999 -1.323e-18)
(3.8523 -0.229654 9.8462e-19)
(4.13045 0.955722 0)
(4.73601 0.447155 -3.16025e-19)
(3.9644 0.104509 1.37272e-19)
(3.09776 -0.680192 -5.17339e-19)
(4.02192 3.23468 3.21826e-19)
(3.75644 -1.18184 7.22104e-19)
(3.99245 -0.00295762 2.67569e-19)
(2.93032 0.156132 -1.94546e-18)
(5.26623 -0.829948 0)
(3.90971 0.0951175 2.25427e-20)
(4.36983 0.127539 1.3996e-19)
(3.73648 -0.0113457 0)
(2.91939 -0.0788137 1.11024e-18)
(4.32512 0.167489 0)
(3.81948 3.25053 -6.38233e-20)
(4.65801 -0.0144358 0)
(3.68332 0.0149174 0)
(4.6037 0.0814224 1.49542e-19)
(4.58809 0.150471 -1.14674e-19)
(5.09101 -0.293433 -1.08612e-18)
(3.84029 0.281475 -6.49756e-19)
(3.38141 2.13498 -4.08051e-19)
(3.99324 0.276048 -2.34911e-19)
(4.22357 0.573127 0)
(4.7378 -3.05337 -3.87188e-19)
(4.65251 0.148317 2.92011e-19)
(3.75173 -0.142764 -2.16158e-19)
(4.63324 -1.13732 0)
(5.77822 0.465308 8.10981e-19)
(4.62822 2.98962 9.73041e-20)
(4.0426 0.00623321 8.02368e-20)
(3.44605 -1.41246 0)
(3.22695 -1.76217 5.64331e-19)
(4.12046 0.351121 0)
(3.98624 -0.281984 -2.60135e-19)
(-1.83951 2.92153 0)
(5.38572 -2.38022 0)
(3.38332 -0.461222 0)
(4.18201 -1.59456 0)
(2.67477 -2.03095 -1.2211e-19)
(3.188 -1.42271 -9.08083e-20)
(3.81417 -0.115872 -1.15665e-18)
(2.92273 -1.42576 -3.25276e-19)
(2.7083 -1.16759 0)
(2.9803 -1.33764 -2.15195e-19)
(-2.1251 3.95245 -9.90279e-18)
(3.32835 -1.55361 0)
(3.08458 -1.11028 -1.73552e-18)
(3.93289 0.0049577 3.69994e-21)
(4.58989 0.487914 -5.56363e-20)
(4.99814 -1.71737 1.10319e-19)
(3.68329 0.306377 0)
(4.54097 -1.45838 0)
(5.5326 -0.914209 5.56749e-19)
(3.58726 0.151885 4.8954e-21)
(3.95891 0.0270356 1.45991e-20)
(2.7928 -0.623099 1.54318e-20)
(4.0188 -0.0156934 5.7249e-20)
(4.06728 0.0375761 -1.18867e-20)
(3.93291 0.378417 7.24355e-19)
(3.93106 0.131011 -2.22105e-20)
(3.88216 -1.0913 0)
(2.19478 -1.49191 0)
(4.05701 0.032974 0)
(3.96456 0.0478729 0)
(3.56526 -0.704586 7.26522e-19)
(4.53477 -0.259682 0)
(2.99923 -1.91727 1.31405e-18)
(3.53577 -1.09981 -2.23385e-20)
(2.8231 -0.93961 -2.57496e-18)
(2.87661 1.54447 1.30728e-19)
(3.13247 -1.41227 -1.85984e-19)
(3.1174 -2.18157 -7.37766e-19)
(3.82361 0.0300418 2.14491e-19)
(3.15059 -1.49026 -2.79862e-19)
(3.93394 0.0993113 -3.51701e-20)
(4.53741 0.0541054 0)
(4.86101 -0.720346 0)
(3.63608 0.748485 0)
(4.47739 -0.874123 3.4888e-19)
(3.33555 -0.89768 0)
(3.83607 1.02639 0)
(4.01751 0.0121823 0)
(3.64017 -0.933454 7.55638e-19)
(4.12532 0.38276 -5.98596e-19)
(3.85027 0.00150527 0)
(3.63072 -0.261004 -2.35995e-19)
(3.94756 0.362483 -7.1471e-19)
(5.11775 1.30194 -1.40962e-18)
(3.3544 -1.55595 1.0246e-18)
(3.9126 1.1535 -1.14573e-21)
(3.52072 0.0845289 -5.27633e-21)
(3.79551 0.0973181 2.00702e-20)
(3.6483 -0.00810128 -8.99706e-20)
(4.60676 0.171117 1.71604e-19)
(3.98387 0.062304 3.92137e-20)
(3.62016 0.0920424 -1.08186e-18)
(4.26852 -0.130045 0)
(3.2034 -1.02176 -2.00615e-19)
(3.95629 0.128975 1.0871e-18)
(1.05527 -1.06944 1.42491e-18)
(4.30749 -0.629145 -4.31566e-19)
(2.31879 -0.488572 -2.26334e-18)
(4.56201 0.0902043 -3.24659e-20)
(5.5799 -0.253238 1.11261e-18)
(3.9591 0.238077 0)
(4.06579 0.520507 -5.63474e-20)
(3.89121 0.0418104 -4.49529e-21)
(3.71149 -0.0549665 2.08302e-19)
(2.93734 -1.63176 -7.89817e-19)
(4.03312 -0.00902109 5.90382e-19)
(4.06836 0.0252792 -8.30892e-21)
(4.07967 -0.0306025 -6.28836e-20)
(4.06209 0.0856903 0)
(4.15814 2.74689 0)
(3.12196 -1.49259 1.24953e-18)
(2.57694 -1.26354 6.12414e-19)
(3.90425 -0.00635244 9.07089e-21)
(3.85761 0.122987 2.21219e-18)
(4.01998 0.520503 1.79277e-19)
(3.04045 0.368287 0)
(3.61281 0.118672 0)
(3.30042 -0.784353 -9.5616e-21)
(4.54195 0.15588 2.35469e-19)
(4.00642 1.0369 9.46378e-19)
(4.99408 0.0493442 0)
(4.10166 -0.0782308 0)
(4.30163 -1.24371 1.26294e-18)
(4.03973 -0.376534 9.24182e-19)
(0.667457 -0.199977 -1.91577e-19)
(3.79151 0.0243877 0)
(5.59687 -2.52228 7.05845e-19)
(3.72887 -0.445173 -9.70596e-20)
(3.24183 -1.54667 -3.79784e-19)
(3.91502 -0.0493399 -1.25484e-18)
(4.61868 -1.33438 0)
(4.28834 -0.863338 5.1362e-19)
(3.4506 -1.36291 -4.94357e-19)
(0.466236 0.024343 0)
(4.1139 0.0153679 2.12029e-20)
(3.82657 0.204982 -7.15141e-19)
(3.88196 0.00954797 6.21049e-23)
(5.50679 0.218112 -1.41684e-21)
(4.97232 4.08094 2.49671e-18)
(4.0328 -0.0800312 0)
(2.29036 -0.862891 -1.64395e-20)
(3.99177 0.579167 -1.69637e-19)
(3.79185 -1.78194 -9.98601e-19)
(4.14923 0.529576 5.14831e-19)
(2.33454 -1.36318 4.08805e-19)
(3.74855 -0.0107494 -2.7461e-18)
(4.00591 0.1878 2.38657e-20)
(3.87851 0.120534 1.83708e-22)
(3.57453 -0.853935 0)
(3.79926 0.0217482 -2.73943e-20)
(2.49207 -1.15285 8.81831e-19)
(4.43447 -0.216287 -1.30719e-18)
(4.02089 0.11212 -9.89755e-19)
(3.98569 -0.270829 2.44707e-19)
(3.40056 -0.412459 2.67551e-18)
(4.12208 -0.000678211 -1.17135e-20)
(3.60249 0.136408 6.3245e-19)
(4.01432 0.0714385 2.81463e-20)
(4.34357 -0.747884 -8.36061e-19)
(5.03371 1.52624 -1.03005e-18)
(3.35906 -1.15251 3.12563e-19)
(4.14667 -0.0419927 0)
(3.71358 0.574189 0)
(2.73834 -0.584252 0)
(2.82168 -0.875677 1.97236e-18)
(4.1048 0.0342667 -1.57463e-18)
(3.6194 0.386747 0)
(3.17826 -0.723124 -1.53796e-18)
(3.59672 0.328585 0)
(3.57109 -0.627099 -1.18865e-18)
(3.70649 -0.1158 -2.31735e-19)
(3.82577 -1.02745 -1.0631e-18)
(4.04459 0.00996178 0)
(3.833 0.11368 0)
(3.81557 -0.0264054 1.36688e-19)
(4.832 0.183922 2.31241e-20)
(4.51609 -0.165082 4.49224e-19)
(5.06038 3.18125 -3.77498e-20)
(5.16404 0.0958838 0)
(3.60907 -1.33817 -5.45085e-19)
(-0.438119 2.16361 0)
(2.03101 1.63068 -1.0596e-18)
(5.71366 1.73525 0)
(4.06062 0.0447352 2.01988e-20)
(2.52806 -0.41248 8.69971e-19)
(3.15954 -0.370236 8.55999e-19)
(3.85007 -0.0365367 -1.38097e-19)
(3.46148 -1.02528 -9.97882e-19)
(3.90916 -0.443557 2.35468e-18)
(4.16369 0.582008 -1.75267e-20)
(5.25844 -1.31225 1.67081e-19)
(4.04159 -0.920541 -5.2392e-19)
(-0.979809 0.243861 3.12981e-18)
(4.98985 0.410196 0)