/*--------------------------------*- C++ -*----------------------------------*\
| =========                 |                                                 |
| \\      /  F ield         | OpenFOAM: The Open Source CFD Toolbox           |
|  \\    /   O peration     | Version:  2306                                  |
|   \\  /    A nd           | Website:  www.openfoam.com                      |
|    \\/     M anipulation  |                                                 |
\*---------------------------------------------------------------------------*/
FoamFile
{
    version     2.0;
    format      ascii;
    arch        "LSB;label=32;scalar=64";
    class       volScalarField;
    location    "4";
    object      p;
}
// * * * * * * * * * * * * * * * * * * * * * * * * * * * * * * * * * * * * * //

dimensions      [0 2 -2 0 0 0 0];

internalField   nonuniform List<scalar> 
13486
(
14.359
14.9346
2.82305
-78.7134
-9.50301
6.69618
-17.746
-1.94498
4.86124
13.1013
-18.6731
5.38505
14.6271
8.22369
-7.04857
13.3522
-13.3234
-8.09498
4.58466
13.5113
-90.394
14.3536
14.7782
-15.1241
11.9696
-12.6122
-21.6987
-5.76544
-1.01648
-8.86489
-93.9067
0.0447154
-13.0508
-6.98538
-1.77428
-0.0608091
-0.178607
7.24438
-2.17024
6.51691
-30.4394
15.4206
-0.324026
11.765
11.7558
5.45048
-7.12783
-0.592445
-0.210998
0.331839
11.8253
-2.9964
7.01462
8.02217
-19.3424
-8.34761
0.635485
-2.82736
-9.90569
0.07187
-19.8461
0.0488007
3.48778
-88.0241
-39.404
-0.109722
-84.3039
16.1412
4.59828
-0.68783
-81.6341
-16.2949
8.36917
-10.9285
-0.0568548
0.305861
-0.103639
-8.09308
-9.22828
-27.1009
-0.0194441
15.6862
0.0173303
3.38264
14.3186
17.451
1.12268
11.7887
13.0224
14.8878
3.91322
-4.08393
12.7918
14.1085
4.12754
-0.188304
-22.0965
-91.5679
6.60211
-14.8716
0.0529986
8.46692
-94.2695
-2.79771
18.7991
-14.9714
11.5218
-2.4842
-9.14124
-7.61792
1.68485
-6.22825
8.01699
-0.786192
18.9518
2.05768
12.2316
-6.46151
8.45905
-0.256537
-5.45382
-19.7935
5.4963
-2.46395
1.72171
-2.61938
1.70451
9.17447
-5.53254
-31.428
-2.67877
-6.19188
-14.2238
-9.97525
11.8049
13.2565
23.3309
-7.08298
-0.307865
-0.294875
-4.78719
7.02803
4.04803
-23.7749
0.47044
-20.6218
5.32519
23.733
0.137515
-0.459915
10.9708
-11.9885
0.00771797
16.0222
9.83388
2.777
-12.2558
-58.7931
4.81793
1.40661
2.92873
4.8309
1.5119
15.1122
-2.95583
7.01735
8.99791
23.0977
4.76272
-9.86643
-11.3154
9.81428
11.449
1.03264
-0.089512
-101.167
8.20783
-5.34055
11.3939
4.23042
4.96946
-0.740517
1.68187
-31.095
4.17624
-5.505
-0.901305
-7.85733
-31.6667
3.85308
-0.239663
1.73806
-3.80203
19.3446
-4.817
-19.0568
-34.0895
2.58088
10.1068
7.18552
-96.8933
9.10012
7.18983
-16.5781
0.956995
-5.05885
-20.4477
10.3317
-3.70315
4.15168
-6.59304
5.4358
13.4026
11.5578
6.56699
-37.1773
-8.13482
14.8351
11.3982
2.55127
-13.6633
0.275324
0.254217
2.60835
7.87776
12.0794
5.89365
-160.644
-17.8993
1.08431
4.92383
-69.4865
-5.47944
16.1519
-112.565
11.0279
-7.80115
1.92982
11.3598
3.24723
-14.8932
11.423
0.0881059
9.74468
-1.49267
12.6268
3.99683
-7.14854
-6.66094
12.0882
-63.5239
19.3094
0.874455
-2.89801
-17.427
-81.8178
0.829261
-45.3875
-59.9728
-15.5678
13.8084
-1.25194
-6.60341
-85.5176
-11.3122
-30.441
-16.6049
-103.912
8.71845
0.596609
17.266
11.7295
-8.20194
6.16511
12.1862
-8.17344
-15.5463
-56.0656
-3.45123
5.92473
-58.4384
4.31552
11.8268
-51.9485
-20.037
-19.6162
-2.51515
-5.94928
7.87442
8.8779
-108.752
0.266089
3.48272
11.7476
-7.88047
-7.97001
2.4251
6.13133
11.6763
-25.757
2.06295
-24.1661
5.24541
-0.199741
-0.308406
-17.9739
-74.9198
3.79297
0.014818
-0.223724
-2.80079
-75.9525
9.54592
-5.23991
-25.4814
13.3944
0.333966
13.1356
10.5977
-15.2869
-0.163452
-0.116144
11.4351
14.4159
22.8777
3.93872
-2.09293
4.11224
5.7211
-3.12143
11.8113
-5.08179
4.32183
17.2671
-18.7007
3.14618
18.916
-11.4396
11.42
-1.06296
-16.3675
14.4272
-3.95867
1.51268
-31.6904
-0.43788
2.24028
17.852
2.04976
0.229073
3.52613
6.20523
6.32503
-23.5883
11.6248
-0.302966
-13.7944
1.72042
-0.575155
2.54773
4.51587
5.93718
13.2998
11.7558
-8.64931
0.00657604
-8.14849
-3.43028
13.732
1.95819
-0.514101
2.52568
7.99491
-54.7205
7.72164
11.7358
11.5056
-0.220862
-27.3755
-3.20384
8.27463
-6.83834
16.0846
17.3635
-4.51075
-14.6228
8.03287
11.3569
-6.24231
-68.0019
13.0214
-7.91364
10.3887
12.0138
17.7399
-0.283852
-80.0004
-56.0912
-8.22441
-3.1247
-6.65054
12.7356
6.51731
-68.8032
-15.7715
6.33064
14.0008
-4.7209
3.07548
14.7933
10.998
8.84581
-7.35077
11.7804
11.4839
19.0785
-33.1877
-10.9123
-8.24197
3.13885
11.4493
-17.5327
17.9945
11.5786
4.83738
-8.10791
9.1855
11.9302
-21.4466
9.2729
14.4588
6.67121
10.318
7.7915
-13.8833
-11.1231
16.3639
0.112954
1.09756
15.9391
-8.9756
-7.90584
-9.92949
-7.59878
1.87162
9.09762
18.558
14.6406
-3.11296
-0.254787
-30.6156
11.5184
13.2414
0.0141519
5.00867
11.7086
-58.2367
-99.4533
-47.7397
-23.3349
9.83555
11.1635
-0.0891923
9.3176
-82.2543
12.5814
-0.628557
21.1648
12.4378
7.26303
-3.70033
0.0407316
-0.176708
18.7697
-6.4803
-0.294291
4.53192
3.19619
-19.1804
6.18784
11.5729
-0.277772
6.31108
14.8878
2.00443
-9.79798
11.3322
-73.96
22.8828
11.3768
11.8459
11.7259
-93.868
4.10525
20.1998
-13.2214
14.115
-24.2404
9.47301
-112.378
-19.7155
-0.373938
-16.4693
13.2842
1.81118
-66.1361
0.107899
6.32438
17.6632
9.07571
-13.3404
2.28396
2.17846
6.48383
-11.9952
11.7593
-10.6858
16.0358
-0.321012
-0.659092
15.695
-6.82135
-0.154085
3.7241
-130.722
-66.1286
3.95762
-9.12984
5.78095
12.782
-25.6784
-14.7137
-26.2391
-0.296583
11.1127
8.96814
-33.4709
-95.5863
-16.9362
-58.5146
-1.23819
-43.574
5.12174
2.3178
16.9934
-41.8056
13.3854
-14.627
-49.1447
3.73121
10.1406
-27.1089
9.61444
3.98195
-21.6025
1.70162
7.61212
-19.0897
-26.404
11.8616
12.0301
10.491
14.6449
3.90212
11.4359
9.15148
10.6362
-0.135249
11.3557
-23.0994
12.6952
1.6048
-5.85201
-6.59742
11.1651
-7.77309
6.07454
18.2889
13.9722
-108.392
-44.9576
10.3408
7.87354
7.12233
13.652
-21.4315
-22
7.59677
13.1767
8.71417
9.40678
-18.3423
14.0923
-54.956
-0.447158
11.7167
-4.59865
-18.9752
15.6422
-1.94518
5.31045
3.29491
9.97013
3.73383
13.8501
2.34498
3.96754
4.82067
8.38694
-2.07928
17.6746
9.54004
17.405
-158.618
9.5212
-0.0566827
-10.1815
-9.49436
11.9849
18.9194
-48.5574
-7.38376
-2.77606
2.19046
12.0529
-14.5192
7.73277
5.72836
-26.6742
-7.9176
-9.93735
10.2725
-13.086
11.613
-0.0527184
15.8834
5.99824
1.03436
-50.7118
-6.45904
9.62119
-19.32
8.75752
-16.1376
10.8861
-0.00902642
0.581353
-35.0385
16.0402
-0.408372
5.38408
15.3283
11.8018
-38.2187
-37.0034
2.77518
8.15225
0.99288
-0.0838518
-115.379
9.90003
7.05766
9.57125
5.74428
15.6845
-0.583847
-136.836
11.1493
-16.3839
6.10032
-1.75464
11.5572
10.7977
-35.2864
4.02949
-0.383886
6.19175
11.0896
9.59818
5.67119
3.4991
-35.2529
-5.55004
14.3516
0.811023
0.110231
6.30307
16.8856
-0.623739
7.14348
17.4205
-0.335234
-60.511
8.86108
-10.824
13.3487
0.341337
11.689
-79.4987
-12.402
-3.36096
-0.0356294
-11.5361
11.3147
18.2573
-32.2085
-37.7578
5.65889
14.5153
-7.34461
10.4994
-28.5739
19.1741
-35.6358
4.12448
-0.3098
11.5232
12.953
13.4083
-2.04021
-80.5751
15.3781
11.7147
-15.0326
7.25627
-36.2359
1.7716
-1.29391
11.2623
-6.81315
-11.1239
13.6441
-14.4134
-3.55167
-2.57591
-67.4954
-34.6343
-1.59938
10.01
13.5482
-150.411
4.47198
-39.7864
-80.5938
5.29988
-13.6833
5.40194
11.6938
8.9969
4.64593
7.04101
-62.9503
-47.6139
-53.3156
5.09052
-141.908
0.971799
-0.679735
-64.0752
0.882835
14.8375
-0.288387
-41.4107
15.3288
13.9255
-106.444
-21.454
3.77262
-5.29104
0.763635
-5.81636
8.57749
-8.61198
-10.293
10.4209
11.4904
5.34904
-59.5182
-25.1621
6.94964
2.02889
13.4671
4.16052
-131.917
14.7477
13.1654
-16.3808
-68.0356
5.30546
-20.7026
4.97539
-2.00341
-8.86684
-127.672
7.03795
11.5392
17.6033
9.65567
7.86286
7.61461
11.4391
13.2007
13.6892
4.53128
10.3311
17.2462
-14.623
-0.563763
8.62363
-6.53455
16.2789
4.62285
16.0032
4.57138
-12.2854
5.1284
7.14967
1.41801
12.4934
17.4623
11.5478
11.0397
-5.46245
5.77439
-14.2266
-8.84561
3.40278
10.2956
0.229144
-46.5303
-21.5349
10.9434
-8.43945
-6.95406
-0.0121037
-53.2179
-5.12251
-20.3114
-117.743
10.7485
-136.81
14.147
-159.242
-6.89415
6.39168
11.4326
-0.00116452
8.70446
-27.2074
12.9535
-9.72171
-0.134063
-14.3005
-0.288694
-59.9937
11.714
0.547899
11.2212
-0.173958
3.49861
-22.1547
0.0171615
-0.292653
9.26127
-2.92572
-19.0943
-20.6476
14.197
-0.66924
-143.749
-18.6554
10.2269
-99.4373
-0.00556309
5.16051
-5.44926
-0.870576
-2.13103
-31.957
14.6456
11.704
7.43469
10.5877
-0.727526
-25.6964
11.9711
7.85376
6.79531
13.8328
-30.0728
-3.03635
-18.374
7.30674
-0.281858
12.5698
10.1394
-15.9375
11.6673
-11.3663
2.12064
18.5799
7.10257
2.19573
11.4233
5.08521
-1.40733
-19.0822
-87.5064
10.1153
-0.1767
-0.194063
-0.260144
6.13898
8.65943
-39.9816
0.00212414
11.6581
5.45899
17.0604
12.8891
11.0141
5.0114
13.539
4.06054
2.50047
-3.48234
6.97365
-74.0021
-5.48875
0.392627
-14.1521
-35.811
9.17787
-37.9094
-32.2744
-43.748
-73.4934
-0.286262
12.2437
-0.0501917
4.01238
-8.76147
11.4558
17.5706
5.53395
-30.7448
11.4818
-61.9505
9.77321
0.928521
-1.72799
8.3082
-3.55505
15.7296
3.83435
11.481
-8.39745
11.9728
0.718052
13.0268
-0.290472
-18.6875
8.37952
-54.3046
3.622
-0.268211
-58.9103
14.5461
11.4884
13.7494
12.5405
13.7113
9.44646
-16.1038
4.44744
11.5465
11.3531
-6.20715
5.78528
-2.86054
8.64927
3.51642
5.34091
-14.3353
22.8035
4.39515
-0.100156
17.7299
14.07
-4.94862
-16.7342
7.19295
11.2826
-37.2673
3.03531
-14.1568
5.94222
11.4781
11.6673
-1.80011
4.90823
11.9107
0.0463494
3.283
12.9346
3.70982
-0.263064
-21.9829
3.37125
1.07279
12.5651
16.55
-0.0257507
-69.9569
-9.39728
2.23827
-1.46616
5.13094
16.0209
-2.29369
20.2483
9.34309
4.76415
10.4078
-38.2617
-12.7387
-101.246
10.215
-1.99665
-7.63814
-89.9318
10.6081
12.0176
-0.841667
-6.60879
-1.36869
-5.44915
1.62641
-0.134525
4.05267
4.17216
10.305
11.783
13.5213
6.38798
-4.76488
-9.72247
-2.32646
3.69497
-116.19
13.5891
3.83071
-121.267
-0.617055
0.1234
3.8383
-29.2262
4.21747
11.8673
1.85125
-6.72081
1.75453
1.05208
-11.5928
6.53615
-0.182959
4.9441
11.5743
8.64733
-10.2324
11.7498
-0.110124
13.2
10.7428
10.9641
4.65891
7.22917
15.8448
20.571
5.48001
-11.7799
11.7789
2.61522
15.8989
-4.11598
-10.633
-30.4801
5.75255
6.34428
-4.17033
11.4184
9.0853
-0.814537
-24.0474
-2.82398
6.90687
18.3827
-33.1469
12.1147
-8.51689
16.4335
15.78
-6.52111
1.02474
-93.9079
17.3085
4.32853
19.7376
2.02168
-3.2175
10.6779
6.49183
-28.8227
-13.2078
-5.13127
13.4261
1.91908
-10.2778
14.0451
13.421
-5.4461
-1.01645
1.75049
9.46846
6.08135
8.42442
11.0733
4.24941
-18.8877
12.351
0.641545
1.36344
-2.14299
13.0635
8.3807
-31.8913
-73.032
-0.874097
11.881
14.8591
3.96041
5.84799
0.615151
18.546
-17.6136
-3.67834
16.0268
11.7855
6.0391
2.58228
-83.4913
-4.31125
-20.8694
-18.4928
-0.865232
-91.3554
7.80413
-29.4737
-6.80835
-11.8834
-2.96275
-42.7516
-7.40297
-60.9409
20.0792
12.5748
-12.6556
-2.65433
0.934647
9.41089
-5.61205
20.125
-5.20486
-0.946158
11.8353
-16.4489
-85.689
-2.55945
-3.25206
9.14716
20.948
-0.604639
-6.46718
-14.5542
4.34699
-3.89109
1.43798
5.92542
12.4123
13.5134
11.822
-118.69
-14.7385
1.04015
4.15121
11.3814
3.65578
12.1602
19.2804
16.9577
-14.5214
11.8255
13.0731
-1.05119
10.733
-1.54398
16.5622
10.5649
7.80139
13.1662
11.1519
-1.76555
1.97155
13.4773
-9.03807
4.662
-10.9814
-6.999
6.46565
9.72455
-1.44259
3.97128
15.5473
15.2763
-1.77533
-10.9471
4.92342
-38.2952
-7.54814
13.074
12.7433
-11.6296
11.4612
4.0749
3.02189
4.28328
-45.3734
-94.5953
0.0344965
21.0016
-7.95918
1.9016
14.5499
6.17508
0.703969
10.6306
5.94071
11.9144
-18.3364
-7.90487
4.28282
-1.52608
-4.93133
-2.89329
17.9689
13.9939
7.62969
24.3883
15.0543
-4.92421
-1.9071
-22.5487
3.93533
15.6569
-121.643
7.27331
2.87784
-41.065
-4.95852
10.3108
-10.0947
3.17619
12.9678
21.0938
-24.309
3.57507
6.48793
5.35152
2.79455
-120.496
15.1075
10.3739
4.40577
10.1684
-14.4137
-16.4496
-15.8722
16.8735
-0.333193
19.5959
-52.1144
5.26168
-6.51908
-12.482
-13.7489
5.24848
-3.65891
9.67363
1.03334
9.74803
-117.314
-0.0171673
-62.8944
-9.43112
-5.26436
1.40391
3.20524
-5.87183
-73.9075
-20.1356
2.94757
3.47057
18.3344
11.6148
1.98283
4.16309
23.9961
7.10869
-21.8151
-0.131067
7.42534
12.0037
4.95457
12.3469
-0.710613
-0.926077
-3.32919
-0.0244343
4.99698
14.996
-11.711
-34.4359
-14.1858
17.206
-84.8976
4.26174
11.3796
-54.4724
0.303813
-0.947563
-22.5027
-24.8435
1.04249
11.7615
7.36022
11.213
-1.00659
-9.91112
-7.805
-11.7819
-9.09008
-5.94156
4.75425
-32.7112
-1.30073
-101.215
-24.2835
-18.597
13.7962
-90.1699
17.404
-26.9204
-97.3353
-0.257768
-1.38736
11.7347
1.42498
15.6067
4.12242
-21.5142
-21.6447
10.3561
-8.32208
11.629
-0.43389
16.524
12.5918
-0.724982
10.1403
15.6898
5.87653
10.0493
-2.60413
-68.7737
1.68707
-9.9596
-3.95347
-5.956
-6.25597
2.9117
-20.738
5.2232
0.648231
-1.03255
-4.78492
-6.61188
16.5114
3.94301
-0.400287
6.2141
11.6566
-17.6895
-1.3726
6.3766
5.70402
2.56158
6.0632
3.23984
11.6318
11.7452
-1.66686
12.4357
12.7721
7.52349
-14.3577
0.00776381
9.80427
3.66671
0.00489838
-5.77595
-153.053
1.83424
-85.2983
0.126864
-3.20651
-0.675687
-15.3786
0.597936
-27.6579
0.815046
-23.0969
10.073
-26.9276
12
23.3115
10.5452
-60.7581
10.8869
8.95548
4.9134
-0.429139
-9.68411
-48.6436
4.20056
10.5945
-2.26239
15.0946
-0.377568
11.7341
-0.547172
2.01565
-5.63064
-10.602
20.494
-71.7122
11.7093
11.7702
12.3339
4.01832
10.3481
3.69632
-6.19943
5.33281
-23.1387
-20.184
10.5907
11.8
1.5668
10.7103
13.1759
-33.6685
-29.2948
-0.48004
-0.0553649
13.0966
10.9101
13.3526
1.07039
5.53691
-1.34297
-4.77205
-17.5993
13.4428
19.3363
-8.26686
-15.8745
-6.82957
1.91207
3.79398
3.84022
-14.8855
-19.3587
0.469517
-56.8485
-3.28703
22.3799
10.3899
-6.10202
-97.0078
-76.0175
-9.66237
-9.56883
-18.3203
-35.0122
14.5103
10.857
-6.65401
19.7296
-0.173322
-21.0691
-56.3834
-20.4228
6.10653
-7.25345
9.80141
4.585
0.942981
-12.7425
-60.3775
-22.3935
-150.356
13.4862
-28.1098
-1.10117
-14.6341
11.7945
10.3385
-84.2255
11.5795
8.86972
13.5736
15.948
6.01291
5.8889
21.3229
-14.1375
2.58587
-23.5138
-34.8759
14.767
-150.102
17.3053
10.7356
2.52735
0.277551
-2.32083
12.9438
-156.031
-30.0346
4.24292
6.58397
-7.1625
11.238
8.64063
-0.919912
17.2108
-11.1711
-12.5467
12.927
2.86152
12.9249
-0.131277
23.1766
-1.58935
0.519842
13.1503
3.24832
11.7157
5.47628
8.37333
5.67969
-3.77107
-4.19707
6.55185
5.09395
-68.8419
-0.323724
5.15299
10.4985
10.7329
-72.016
2.77254
-13.814
11.1012
6.34181
-37.1382
12.3081
-85.3862
11.8116
12.1698
-13.1869
14.3963
-11.0402
20.3475
6.95674
-32.6789
-0.769853
-0.0898415
13.7675
12.913
-48.4327
11.0302
12.5947
-11.739
-0.280971
5.04389
7.785
-12.6317
-13.353
-6.77128
-144.656
11.7423
-1.83809
-50.3462
-22.176
13.4966
11.3783
14.3375
-1.45901
10.7897
-8.40155
3.67284
10.9601
-72.8174
-68.7564
17.0684
5.85988
-46.5959
-8.14058
-21.2838
-64.1583
11.7191
-12.9231
-11.4339
13.0201
-1.79603
11.0601
-56.2918
3.38493
18.7761
-0.172771
13.4042
1.88676
-58.6884
9.68532
4.91274
12.7611
18.7363
7.74783
4.63942
19.8789
10.4052
14.1405
-11.203
-4.00972
-8.27714
2.50938
-50.7454
-14.5588
2.91522
-13.0203
2.17906
4.32825
-5.56539
-2.13314
-60.067
-4.68442
14.0988
-17.985
3.01859
11.2778
11.5613
-9.23397
-0.309522
-88.8794
-9.90001
-63.1992
-10.1695
14.1452
-37.1392
13.5749
-40.3155
11.7094
-8.39782
0.120301
-23.5416
8.44651
11.3061
9.29097
3.71243
10.9146
-13.8684
11.8041
16.2232
1.30404
-53.3098
-43.2581
12.4003
8.24793
-16.6116
-2.25974
7.57447
-6.34338
1.67004
4.89415
-2.5301
6.64238
11.3089
8.14187
-1.01772
-41.2654
14.7515
-74.9613
9.80071
-0.444656
11.9074
8.94553
11.1179
4.52857
-37.5404
-124.471
0.29724
-8.12443
-143.153
-5.18758
0.0177601
-72.3965
12.1439
7.23027
11.6669
-62.0809
-20.174
1.96798
-1.42398
8.92924
-24.5644
6.87333
5.09587
-44.4238
-49.0694
-77.1859
4.10928
11.8824
-0.89994
5.81639
-16.0882
5.93489
-45.113
1.33606
-32.9116
11.5888
3.62552
-0.481245
10.7137
5.79441
9.5572
16.5893
16.1937
-1.74335
0.842024
-60.494
0.86625
11.2447
5.03183
-30.762
-31.0382
-40.6945
-3.71412
2.29697
-41.9721
21.276
-4.22945
8.18826
3.14002
-35.5484
-2.29385
1.6724
-11.3491
8.4916
6.18671
12.3622
0.278189
11.5086
2.20897
-17.1235
-70.7385
-6.46419
-34.9358
7.56009
18.4487
11.2121
-11.1301
-27.8223
12.9908
-21.7496
-56.2138
-0.185129
-7.62283
2.22248
-32.8034
-30.9005
-6.47909
3.6939
1.88477
-4.79121
4.97951
12.3006
-1.63399
0.680492
12.8253
-2.19551
-19.2253
-0.338284
5.87744
-1.89316
20.1278
0.0692722
2.57831
3.31407
3.81232
-1.61462
5.30019
-5.07523
0.551924
4.59682
-4.09111
1.8362
-17.5616
13.2128
5.16021
9.07961
-49.8467
-7.32523
18.8158
-70.8092
8.20088
7.62811
9.68705
-3.64793
3.6712
-5.59816
16.6898
12.2846
11.8887
6.99965
-123.99
12.7219
8.61766
15.8345
-16.2619
12.5173
12.7718
12.2709
6.65417
-36.0405
9.69838
-21.1467
-2.21096
10.795
9.6489
8.16348
13.4957
5.91234
15.0552
-0.838802
8.40141
7.30684
3.2513
-24.4062
11.7541
1.83846
11.1742
20.1997
12.1518
5.5137
-4.85156
3.34954
11.7388
-1.37691
-8.81261
4.23344
1.76847
12.2034
-80.1701
14.1569
9.32869
24.005
16.8152
-5.25141
-8.16631
-25.6089
8.02712
16.8972
5.09577
7.29444
-8.42425
22.2236
11.6243
3.29407
20.9966
3.3409
10.3069
-11.0756
7.71877
0.63805
5.41709
8.31488
10.5953
-2.38923
-8.1023
4.88499
-70.1277
1.38258
-28.6888
2.08479
17.0628
13.2427
-6.0797
-19.138
-4.52751
8.95587
4.92027
4.45985
11.1608
-66.7627
-4.27801
-101.961
12.1655
1.60759
-60.1849
14.5747
-0.98284
3.57478
-3.58323
19.0728
-72.0663
13.5619
-21.1752
20.7533
-11.0811
-1.98478
0.203589
0.921303
5.53974
11.6036
8.84409
-49.9125
-1.01586
-67.5891
11.8104
6.93088
7.52938
-69.502
-34.6374
-21.3453
7.593
-9.80391
0.921418
-0.34241
11.7367
19.5027
-70.7233
1.70427
4.02154
-53.9054
10.662
-0.514715
-6.15239
-38.6919
0.736875
12.6035
-93.7151
-51.9369
4.80515
-24.3384
-36.9895
8.75777
11.7995
9.20766
11.7799
18.3895
-20.2038
21.5576
-10.054
19.8292
-50.1785
2.62136
17.4022
10.568
-88.3675
1.59213
-2.55926
4.40799
-74.8254
-14.451
5.7264
-7.33729
-9.08061
-0.104179
-19.439
10.2005
7.56978
-44.7297
10.3505
2.77643
2.9796
-75.5785
-1.28413
-0.107002
-68.4579
2.34137
18.9349
-0.675703
19.2596
4.27725
-24.747
10.6053
4.07117
0.158449
11.7669
10.7778
20.7349
11.8829
13.3726
-9.0795
-9.99817
20.1544
19.65
12.8277
4.65324
-120.481
-21.0944
4.81387
-4.38343
0.190852
15.9026
-101.125
-0.882767
-18.3648
19.6531
7.50329
8.47923
-127.834
2.28565
15.8858
22.5663
21.2466
6.28859
11.2222
-8.7163
-3.46006
12.0168
21.5796
-47.5786
0.148595
-2.4182
-0.14594
6.22196
6.33726
4.65986
5.0115
7.69912
4.30031
-0.320971
9.96646
12.2425
-22.1951
9.30765
-145.156
4.17981
16.2958
-57.3867
-0.984022
-23.8976
10.7303
11.675
-80.5726
-26.2312
1.10338
6.86293
23.1987
-6.44508
-7.17047
-10.8135
6.02114
-46.5201
-22.9517
-81.9631
-16.7012
-0.498611
4.78254
4.39884
-10.1097
11.4566
2.21597
8.20041
22.4594
8.83569
4.89419
-61.6129
8.73168
-10.1551
-10.7149
16.3963
10.3823
4.93659
-31.5396
8.52963
10.1272
-54.7487
-32.3135
-0.121196
16.5546
-3.30892
11.7303
7.76263
14.5302
7.23968
-156.306
7.84143
11.4553
-5.57562
12.2659
3.26127
20.4564
-91.289
5.72119
-19.961
12.1036
-92.3322
-0.0158499
-99.0605
5.24197
-15.7212
-127.38
-72.5755
-4.94401
5.71521
5.53623
4.27715
5.61514
-19.6269
3.29417
-105.775
11.3251
19.4982
1.6276
-12.6263
3.74661
4.03299
0.156771
-6.15727
3.73094
-17.7159
2.80394
-16.9801
-15.7239
8.0547
7.05273
-53.6348
-27.1047
4.07839
11.5312
8.35345
-80.8984
6.13676
-0.290309
-35.5121
-0.42979
-2.0724
-83.1787
14.1141
-62.8483
-11.0964
-9.23171
-23.0839
-25.1336
-20.1267
24.169
0.222146
-6.32774
12.6727
19.5917
16.3641
-163.322
-10.2503
11.5218
-0.900973
3.02879
19.4907
2.92697
-1.42382
23.8883
7.19883
-20.7757
8.78924
15.7057
11.8466
3.70226
16.7709
11.591
-0.76596
1.40702
10.6368
5.62853
-7.99038
18.1805
11.3148
6.38114
-0.400553
0.97893
-0.308062
-133.552
-11.9292
5.66809
5.37686
12.5854
5.83913
-20.6221
16.9618
17.5062
-11.2959
3.6285
-37.6294
-31.6243
-3.08658
11.42
-70.767
-1.46495
13.2739
19.7919
-22.8369
7.46977
9.9831
9.35787
-2.81767
4.40685
-40.3227
-1.45518
-10.6804
-2.74898
-17.3552
1.31893
2.59963
-88.6977
10.5455
-136.759
-0.289983
9.62103
-8.40535
-128.662
-12.759
6.72941
-9.28833
0.826935
10.4212
-20.2424
1.24918
-7.25684
-32.168
10.8583
-22.3231
19.7017
-0.373542
21.7901
-0.039117
0.00204444
4.85336
11.917
2.91844
3.33699
-10.1616
7.76384
4.90196
-0.737124
24.5342
9.32778
-8.05357
-3.74222
-3.60568
-12.5123
5.76078
-39.148
11.4946
-112.292
-111.13
-9.44986
-19.7981
-0.966446
-9.60331
11.3185
3.40597
16.4845
20.3222
-10.1504
-17.9718
9.31206
3.61194
17.128
-40.4731
7.21805
10.3294
11.6246
-130.539
-53.1766
7.4376
-2.54136
0.179724
-110.363
-21.066
4.86421
3.98843
2.33663
6.93791
2.99997
2.54635
6.16014
-162.563
-153.911
-21.6475
-10.8819
20.4071
-5.28178
11.8341
-42.2494
0.294524
7.09353
-5.46698
9.65262
-86.0591
-2.0304
16.9539
10.6935
7.85511
-4.54376
21.6948
-115.061
-5.8563
-100.87
-7.54312
-92.2217
-131.762
15.3371
7.64721
3.33534
10.2241
-85.0313
-20.3437
2.82238
4.02957
2.25926
7.90817
10.397
6.71199
-75.949
-9.27126
-35.1456
-11.7193
2.92784
2.96751
20.8233
11.5402
-41.7328
-8.93997
9.37099
15.8752
-3.03817
-4.93618
-6.97
13.56
4.07481
-7.66017
12.3272
-50.3928
16.7314
-1.15155
12.8204
-23.5276
-7.19089
-0.294949
-123.207
-8.6629
9.98087
-6.17587
-86.5877
8.7332
-62.0027
6.74031
13.6005
11.67
13.183
11.7213
-4.26452
-2.8557
8.03978
4.87219
-0.116105
8.48551
-3.61395
17.0347
-88.2966
12.8254
-13.8238
19.3872
-82.8366
4.09335
18.4254
-94.5025
-4.85473
-22.6947
12.9936
18.3642
11.3143
0.50603
11.5856
10.6287
1.53664
11.4325
-167.844
11.7558
-102.983
-70.4467
-17.7424
-17.4368
10.4212
-12.5467
-16.6562
1.20033
17.9599
6.68358
7.99655
-17.2459
2.00768
-2.50674
-47.4425
11.7621
5.45062
-14.3435
21.2758
-3.51907
16.3356
11.2648
1.75416
-0.342412
2.03884
1.93656
-37.8834
0.250141
-0.604644
6.23969
5.24085
-90.0813
21.3952
13.1013
-0.104508
-39.8018
4.61295
-91.2931
12.221
9.63399
4.97296
-0.524849
9.69386
6.12614
-0.518694
-10.8618
-3.80732
6.80608
16.7299
-8.06215
18.434
22.7033
19.1763
-49.8395
10.2626
-25.7899
11.3804
9.76386
13.7023
6.85702
12.6153
22.2879
12.3598
-8.50633
-32.9331
1.31698
22.3835
1.74879
-60.4835
-81.5257
13.8641
17.1535
8.47739
0.0515988
-7.79779
15.3442
-7.92344
5.14938
-83.6035
10.4269
-0.992995
-22.3077
2.59615
-34.9081
-39.0907
-76.2575
-11.5575
-46.6232
10.0708
7.46312
5.83982
5.69111
-27.6425
-8.85424
-0.299586
-33.8148
-24.4031
-6.78107
12.1112
15.6642
-113.509
16.2566
12.4425
17.5053
-3.4638
-56.6402
6.88768
-6.55615
13.5264
-41.0427
13.1296
12.2589
8.72473
13.3295
4.26347
10.9139
0.747276
10.6339
-5.8125
-12.102
-19.3541
-8.97446
10.7113
-37.0693
-151.045
-33.3365
18.8466
10.0024
11.0052
-0.00805016
14.848
2.17206
5.30926
-4.39573
-5.04934
5.54621
-164.694
-22.5394
3.29984
-11.1304
-10.4251
-39.132
-4.48485
-19.5284
-8.08783
2.9535
18.1271
20.2951
16.4395
-40.7087
5.19873
-21.6784
5.87237
16.6474
9.19481
10.5638
-28.0147
1.64986
-5.86907
7.25888
11.8275
5.62605
6.99008
-21.2066
6.65837
-12.533
11.5297
7.11145
11.5207
-22.5772
5.75674
-75.1451
-16.865
-16.3571
0.673609
17.3226
3.59581
-47.0635
-87.1699
9.31665
11.7786
-3.54644
11.1981
-23.1766
15.1929
18.6042
-144.929
6.83565
12.9454
-167.492
-21.6412
7.79476
12.7646
13.692
-27.2056
-5.46278
8.26526
17.9462
-15.657
-16.9414
7.06245
15.2826
7.56489
-6.26193
-68.6432
10.6655
11.6697
11.5508
6.87034
2.63759
7.08581
21.7343
-16.009
-0.818104
7.5013
-11.8067
7.75299
2.38965
-73.8329
-6.27736
-83.1146
11.3141
-101.431
-8.18017
10.3333
12.5973
5.9645
1.51766
-5.372
5.75084
-22.6555
-12.3854
-2.5754
1.49715
-16.7235
14.2642
6.28547
7.71663
4.11795
16.1632
-65.5291
-2.48825
11.2658
-15.4364
11.7103
4.94869
0.139616
-16.8937
12.0253
-1.10529
2.06753
-4.33514
-0.109475
10.9118
-15.442
1.41383
-161.15
-49.1524
11.2642
-21.9098
18.982
-23.1107
-10.563
-50.4354
13.2373
6.70688
9.70258
-1.54381
14.9827
-37.0337
-3.85207
6.51353
-19.6905
12.2353
2.14752
-4.96786
-1.1005
-0.136756
11.7851
-12.0084
-166.726
-0.099981
-49.6781
-32.0819
0.75032
16.3193
2.76595
-23.6651
9.82821
-6.7254
13.3973
-15.6119
7.82875
14.0046
12.0857
1.54211
-76.7891
-32.7124
7.4884
10.0213
10.7494
-22.5314
-97.7843
0.875645
-9.96222
10.3729
22.9236
5.4109
11.1098
13.196
9.41845
12.2505
-24.9006
-0.757503
-147.653
11.4261
22.1057
6.1229
3.9216
11.3321
0.311102
1.44602
0.593256
7.81309
3.25353
18.9874
-46.3903
-9.10562
20.8642
11.5337
3.28753
7.38011
10.1737
4.18786
-72.864
-99.1991
7.13276
-16.7584
-9.91219
10.2803
-129.492
-40.5727
-18.5662
4.44935
4.92824
6.73782
8.45365
9.98051
10.2387
-1.65757
7.12984
5.62594
17.7208
14.1402
-7.30153
0.895127
-3.7138
12.3918
6.48314
-1.3361
0.857782
8.29976
-0.0795316
16.2864
7.98099
-0.231778
-32.968
8.37048
8.31726
-3.77062
11.6708
-1.01576
5.14192
-86.8699
5.51298
-59.4465
6.31105
-5.65715
-72.2342
-54.6732
-22.6657
13.8287
-72.7832
-3.5391
-63.3731
16.9981
-76.9445
4.24626
9.75288
-18.8243
14.2096
11.8641
-5.71435
12.0643
4.75956
7.79198
-3.13875
-37.3737
-0.57814
14.3858
0.0024152
-25.5882
-14.2813
-38.6539
-1.21501
-71.8506
0.398562
-6.5817
10.0802
11.5926
8.8839
-53.5094
-20.7353
12.468
9.91973
-29.0792
9.17634
-1.43575
-2.09759
6.81814
3.39315
11.7199
-58.8111
-78.2842
-87.2972
10.194
-35.3447
-4.69995
3.82179
-44.6644
-9.53344
-18.7802
-47.714
3.54531
3.17367
1.68052
-25.4043
12.0873
11.9271
-5.3638
13.5081
-43.336
15.903
-7.5933
7.96957
3.54952
7.59178
3.46171
-10.3117
1.51729
12.2576
14.3016
17.0518
-28.5766
-7.87197
-60.3184
-5.60085
-0.940761
-23.0555
-16.4179
-19.1326
3.45642
-23.4988
-4.6088
-28.7584
-6.18324
15.1598
4.08162
6.67084
-0.527339
1.69328
-5.59094
16.6231
19.9843
-16.008
7.19989
8.08808
-0.15236
-65.7525
13.114
14.1236
-1.79062
-68.2388
-135.625
-47.7825
4.20407
-22.318
4.97133
12.9228
-34.7014
13.1577
-20.6693
-18.0125
12.2128
4.66624
-18.0782
8.52229
13.9156
-17.7543
5.50481
-15.7627
-23.784
-18.18
17.422
-0.434923
6.94332
-22.1612
9.76731
-13.6028
-44.5098
-6.02991
-20.7635
-5.32555
7.75884
-0.414295
-22.7654
5.849
-0.0164885
-2.25358
-22.8911
-22.6123
-3.21132
0.973556
11.2433
-3.33121
12.7618
-24.5674
-0.59895
1.63871
0.553367
-81.9623
-22.9288
-33.5896
4.56751
10.2921
0.0241539
7.26339
-7.50779
3.51443
-24.6966
11.8291
-31.1559
11.2018
-12.7696
-71.3163
-10.3954
24.9213
-60.9054
-17.0352
2.53999
-12.8587
11.5019
-0.0550442
-2.81741
0.579697
-12.3876
-30.8205
-9.80422
-21.389
4.12947
-17.5275
8.5319
-13.3614
7.12502
6.06578
1.30518
-10.6282
3.42254
9.31852
-11.6443
-1.32664
11.0226
-0.631214
-12.9222
7.11567
-32.1436
-7.89005
6.0576
10.113
-156.557
11.0821
-7.01245
-39.038
-18.6165
-17.4535
-1.44361
-9.33459
-63.7649
10.7675
11.0219
-34.4816
22.6088
-67.8766
13.8493
12.2638
-18.1896
9.70505
9.62356
11.6996
-3.23179
-13.3402
-59.0641
-61.0552
11.3688
9.6469
-17.2518
-22.2567
-6.14591
14.2778
7.47787
-15.4607
8.49208
11.0364
2.86785
2.50507
-0.325079
11.7665
10.6732
-18.3127
12.9153
12.8454
-1.03433
-34.1452
9.58065
11.0928
7.91514
-0.247087
-13.5372
-43.7938
-47.118
-28.776
13.8586
3.96769
-7.67926
-3.17653
-19.5349
-56.7367
6.03103
-38.4392
-4.55019
9.62719
11.2809
-90.9055
10.0037
0.670986
4.49093
6.12058
7.94665
6.69852
-0.0704527
12.0159
12.9583
11.1546
-36.3749
12.1033
9.91271
11.7604
12.3991
-1.69734
-1.74497
0.812857
-6.914
9.94294
18.2638
-69.6287
21.705
-24.1886
-18.013
6.93671
9.77937
-15.3251
6.88328
-8.21082
-38.7726
5.69063
-140.226
-22.9638
7.20989
4.77263
21.1352
7.98653
-45.3442
-113.507
5.17916
10.7368
-73.9038
-40.3945
-9.49456
2.59855
-12.5596
-13.5288
11.7447
-6.39571
10.6337
-1.65861
-2.24104
-24.4065
-0.469772
4.60352
-6.9017
14.7948
-8.51817
-14.005
16.7266
-27.1572
2.99299
11.0032
-5.71804
-41.3436
12.7461
-2.27513
11.0725
-6.77488
10.8042
5.06399
14.8983
11.2585
-14.7144
6.91695
-4.33087
-11.6464
-0.910856
-0.180881
-82.4082
-52.4447
21.5483
3.09545
-55.7514
12.6291
-79.1184
5.69326
-65.5394
-37.0813
-4.56899
-19.7043
3.28107
2.45019
-85.3856
-8.32151
1.46852
-102.453
-0.590636
-82.4752
5.23527
12.0508
-89.5166
-123.447
2.63354
2.66271
-11.334
10.5587
13.2077
-19.5296
10.693
-2.26965
11.587
16.8564
-64.9737
11.6165
3.5887
10.3493
11.4346
8.30561
-6.65412
-87.4594
9.68493
13.2175
-160.494
-25.3476
-23.0518
-10.6247
11.1002
-4.00569
-0.825616
-25.7206
11.0064
-5.83444
5.03994
1.76392
12.1992
5.47209
-7.29141
4.77236
-1.28265
-73.1139
15.0955
18.7106
10.0381
22.0204
13.4497
22.868
4.9951
1.38985
15.4305
-6.98118
7.13643
6.62245
-10.435
14.0661
-4.54772
-6.07894
18.5908
8.21212
-33.2552
10.9487
10.4452
12.8973
-0.361935
12.3048
19.0862
-73.0604
-16.2336
0.440932
3.95291
-23.407
8.89401
6.74819
13.6069
11.429
-110.066
9.04998
0.868648
-4.76326
-6.32735
-119.388
7.14984
-13.0901
11.6963
-3.00857
-22.7338
4.54715
-34.6094
4.98513
-17.3279
-6.19142
8.49225
9.15931
-16.6026
6.45441
12.721
4.85065
-56.111
11.4227
-0.379074
10.7946
-16.0003
12.8122
9.75015
-9.70958
-6.0576
8.13134
3.63275
9.96661
-11.2093
21.0447
0.209675
-15.8551
8.31885
5.28303
-20.631
-7.22785
-37.9824
-5.24528
-3.01822
-10.6711
6.82022
5.84411
22.4174
-1.13862
-91.7966
3.85915
-6.23873
-4.19623
-12.6867
6.0464
12.9032
-24.3064
3.71184
-6.71426
-4.14598
4.078
4.97841
11.8426
-1.21199
-0.14234
-3.7436
10.6753
-2.83936
3.34795
-15.0526
6.53109
2.96623
13.4303
-15.6257
-0.407181
-5.05894
6.82621
-23.0677
6.73986
10.826
9.45057
13.2178
-56.5766
1.46788
10.8846
-50.4149
12.2879
10.9438
6.26239
10.358
2.38094
9.88287
6.5564
-7.86314
-1.62251
12.5827
-60.7401
11.6205
4.61855
22.5841
7.35774
9.44991
10.335
8.46457
4.95301
10.5513
0.119515
2.46449
-17.7715
-1.65997
6.6811
2.78733
-7.60979
-38.6382
-39.0768
-43.9745
-21.7238
-8.47076
11.897
1.06851
11.78
8.47779
19.0919
17.8533
10.3805
1.54402
10.2686
-12.2553
13.7755
4.19187
8.55414
2.37624
11.2779
7.57791
-4.34232
-33.5609
1.77118
2.93168
-4.22933
7.20433
11.1561
-38.0138
1.87684
2.85024
7.47918
10.7143
-4.13178
10.4999
8.77873
-5.95556
5.61671
9.23221
5.64495
-21.9654
12.7776
7.74551
14.6745
-24.1401
12.2936
7.73195
-23.0054
-1.06674
-0.395978
-8.29594
-21.4237
-161.121
11.7054
14.166
12.8379
12.9706
11.7632
11.7212
10.6758
5.13437
10.882
1.9286
8.92136
5.91434
0.540004
16.8952
4.69759
-11.2087
12.0057
13.6941
16.3047
-22.3751
-0.894419
-4.83779
-8.52534
10.8547
-18.6724
-103.421
12.8681
19.3458
-7.58358
-27.9205
-24.8233
10.4763
3.94338
8.89569
4.22207
3.62225
-68.0554
4.36075
-1.06276
-28.0148
12.2522
11.7419
13.3024
-5.60028
-28.9292