/*--------------------------------*- C++ -*----------------------------------*\
| =========                 |                                                 |
| \\      /  F ield         | OpenFOAM: The Open Source CFD Toolbox           |
|  \\    /   O peration     | Version:  2306                                  |
|   \\  /    A nd           | Website:  www.openfoam.com                      |
|    \\/     M anipulation  |                                                 |
\*---------------------------------------------------------------------------*/
FoamFile
{
    version     2.0;
    format      ascii;
    arch        "LSB;label=32;scalar=64";
    class       surfaceScalarField;
    location    "4";
    object      phi;
}
// * * * * * * * * * * * * * * * * * * * * * * * * * * * * * * * * * * * * * //

dimensions      [0 3 -1 0 0 0 0];

oriented        oriented;

internalField   nonuniform List<scalar> 
20045
(
0.876243
-1.04507
0.168822
-1.7554
0.814848
0.940553
0.407978
3.00366
-3.41164
0.835142
-1.32622
0.49108
-1.6986
1.40184
0.296762
-0.860257
3.10492
-2.24466
-1.66323
0.153884
1.50934
0.0692429
0.852549
-0.921792
0.885533
0.711323
-1.59686
-0.892168
-0.359997
1.25216
0.0430166
-0.233899
0.190882
2.87968
-1.45887
-1.4208
0.720224
-0.699472
-0.0207524
-1.63182
1.31345
0.318375
-0.0949234
1.50153
-1.40661
-1.43898
0.546813
-0.0753361
-0.469431
0.544767
-0.0190416
1.51744
-1.4984
-2.33831
3.36144
-1.02313
-1.1885
-0.11127
1.29977
1.67799
-1.11901
-0.558989
0.266734
0.45349
-0.451353
-1.30405
1.06659
1.1457
-2.21229
1.27119
0.0654834
-1.33667
-1.33686
2.40345
0.683218
-0.665156
-0.0180623
-1.97218
4.22241
-2.25023
1.25775
0.866307
-2.12406
-4.71229
3.13218
1.5801
1.64002
-1.66647
0.0264472
1.82237
-1.81081
-0.0115564
-0.368132
2.43766
-2.06953
4.98193
-2.80057
-2.18136
-1.07615
1.14539
2.73617
-1.34483
-1.39133
1.68592
0.687122
-2.37305
-0.117083
0.730433
-0.61335
-3.71331
2.11774
1.59557
1.02479
0.910525
-1.93531
-0.0512403
1.01099
-0.959754
0.338649
-0.471555
0.132906
3.91824
-3.88917
-0.0290726
2.02406
-0.586522
-1.43754
0.804211
1.21985
1.34061
1.53907
-0.143324
-0.0869426
0.230267
1.76214
0.0825434
-1.84469
2.55188
-0.865958
0.500175
2.68911
-3.18929
1.99941
-3.2938
1.2944
3.39678
-2.22905
-1.16773
-1.11543
-1.12563
2.24107
-0.171328
-0.563006
0.734334
-1.92899
1.8725
0.0564929
-1.213
-0.485603
0.609325
1.71378
-2.3231
2.66633
0.691711
-3.35804
2.54617
-2.9143
2.78779
-2.25036
-0.537435
0.200723
-0.212616
0.0118932
0.732061
2.05573
-0.241465
-0.819939
1.0614
0.769432
0.908562
-2.16527
0.55712
1.60815
1.84895
0.766779
-2.61573
-0.507939
1.27588
-0.767942
-1.06192
0.04662
1.0153
1.52934
-0.64381
2.33908
-2.39426
0.0551803
-1.07609
0.568154
-1.66368
-0.265313
-0.476812
-1.6932
2.17001
-0.0370388
-0.1874
0.224438
2.13523
0.021978
-2.15721
2.12912
-1.51979
-0.512117
2.64735
1.15482
-1.24974
0.297619
-0.183384
-0.114235
-0.631024
-2.54138
3.1724
1.34565
1.45429
-2.79995
1.29318
-1.24828
-0.0448993
0.465619
-0.707084
-3.60349
0.49088
3.11261
-0.0528387
0.929082
-0.400997
0.698597
-0.2976
0.00210928
-1.67701
1.6749
-2.37538
0.0452293
2.33015
1.38313
0.520743
-1.90387
-1.21248
0.90316
0.309318
-2.06656
0.411492
1.65507
1.41906
-0.361043
-1.05802
0.710404
-1.0977
0.3873
-0.471936
-1.16604
1.63798
1.07718
-1.17271
0.0955343
2.00462
0.0853296
-2.08995
0.517703
0.165515
0.045996
-1.07631
1.03031
2.08859
-1.0638
-0.00775926
-0.458382
0.466141
1.8749
0.861263
-0.662269
-0.969552
-1.28417
1.33017
-0.946206
3.61253
0.228522
-0.629519
0.475471
-0.48323
0.517057
1.94822
-2.46527
1.58832
-3.45845
1.87014
0.154294
-0.922565
0.781055
0.14151
-0.527231
0.664072
-0.13684
1.65353
-1.81745
0.163917
-0.922388
0.75106
2.68186
-3.82807
1.14621
-0.473729
0.65516
-0.181431
0.0942589
-0.63421
0.539951
1.5111
-0.23991
3.5748
1.40713
-1.98839
1.51158
1.63773
-2.76306
1.12532
-1.22511
1.20607
0.0634418
0.137281
-1.44158
1.15425
0.287333
-2.12499
0.214087
-1.10378
0.889688
2.14091
1.25587
1.69158
-2.41919
0.727601
2.31811
0.241479
-2.55959
-4.46872
3.23276
1.23596
-0.919564
2.21057
-1.291
3.45978
-1.31886
0.133031
-0.219973
0.346704
-0.501108
0.154403
-0.163754
0.0975476
0.0662064
1.73697
1.17613
-2.9131
1.86403
-1.5523
-0.311735
-0.366296
-0.0242135
0.390509
-0.661888
-0.260676
3.03397
-1.39624
-1.2397
1.25677
-0.0170729
1.41956
-3.42405
2.00449
0.569572
-1.68501
0.970547
1.02178
-1.99232
2.91836
-3.54939
3.52364
-0.415046
-3.10859
1.45544
-0.660388
-0.795056
2.16908
-1.05063
-1.11845
-0.454694
0.405564
0.0491297
-0.426702
3.37733
-2.95063
2.51036
-1.25261
-2.45523
0.0519959
2.40323
-1.83067
1.22951
0.601159
2.54
-1.19435
0.237687
1.0555
-1.84676
2.13693
-0.290173
-2.53975
2.94773
0.0221533
-0.817078
0.794925
-0.226439
-0.611141
0.83758
-0.079479
-0.68432
0.763799
1.70627
0.509827
-2.2161
4.02626
-2.03111
-1.99515
-0.830101
0.750622
1.89167
-1.71367
-0.177995
0.415398
-0.0767492
-3.17526
-1.21055
1.67624
-0.465685
-1.70176
1.32856
0.373199
-0.0175781
-0.243682
0.26126
1.38485
0.784227
-0.118749
-0.0450054
0.392321
-0.0456167
-1.93766
0.0908951
-2.26047
2.77832
-0.517847
-2.27617
2.28599
-0.00982031
-1.36793
-1.14447
2.5124
-1.09563
0.0734835
1.02215
0.988199
-1.16234
0.174136
3.41097
-0.61512
-2.79585
-0.118929
-2.21948
2.33841
-1.3108
2.28134
0.632838
-1.88727
1.25444
-1.3752
4.05706
-2.27818
1.83025
0.447926
-0.472233
0.504345
-0.0321121
1.58957
-3.40291
1.81334
-3.34452
1.37234
-0.985417
-2.40096
4.33156
-2.89557
-1.43599
-1.2325
1.18126
0.623714
-0.667722
0.0440078
-1.78244
-0.829351
2.61179
-2.8495
4.08377
-1.23427
3.47713
-2.92301
-0.55412
-0.134145
-0.475115
0.609259
-1.63311
-1.50326
3.13637
0.199229
-0.156212
1.53277
-2.45234
-2.20545
-0.641632
2.84708
0.434549
0.107692
-0.542242
0.284833
-1.49538
1.47185
0.168174
2.44386
-0.125743
-0.606692
0.489609
-0.737433
0.91444
-0.177007
-0.943031
2.6493
-3.42669
1.79358
1.26708
-1.67072
0.403638
-2.33196
0.556326
1.77563
0.771136
2.706
3.61334
-2.02377
2.96579
-4.64967
1.68387
1.46355
-1.69017
0.226622
0.271172
-1.45967
-1.60674
2.1238
1.79484
-2.6551
2.00018
-4.79988
2.79969
-4.98874
2.38672
2.60202
-0.298984
-0.913494
0.626026
0.567457
-1.19348
1.63379
-0.608817
-1.02497
-0.533718
-2.35422
1.92752
-0.914191
-0.325509
1.82082
2.20777
-1.83535
-0.372426
-0.0419174
-0.512525
0.554442
1.73978
0.377085
-2.11687
-0.643294
0.948982
-0.305689
-1.34392
3.95764
-2.61372
-2.15279
2.1549
1.95004
-1.3172
-0.496905
1.72393
-1.22703
2.97131
-1.55175
0.448736
-0.0361155
-0.412621
0.873233
0.620473
-1.49371
-0.504354
0.525348
-0.0209941
4.39012
-2.90824
-1.48189
0.868927
-3.71843
-0.559884
0.0555299
-2.39922
0.552904
1.84632
4.53031
-2.09266
0.659203
-2.91968
5.01288
-2.45484
-2.55804
-0.0649358
0.499485
3.14897
-2.14989
-0.999086
-1.83728
0.220392
1.61688
-2.82283
2.74469
0.0781433
2.03018
-3.4628
1.43262
0.0304713
-0.104446
0.0739745
-1.43739
1.68795
-0.250558
-0.290517
-0.692501
0.983018
-0.607073
0.133344
-0.640189
0.112958
-1.69256
-1.76589
1.34156
-4.06492
2.72336
1.55965
-0.362877
-1.19677
1.59509
0.227276
4.6541
-2.65391
-1.48193
1.2555
2.01732
2.513
-1.68025
0.309241
1.37101
1.75007
1.3989
1.45105
0.0504824
0.862277
0.69737
-1.04083
-0.195046
1.23588
-0.0283403
-0.443892
-3.87811
2.53419
0.143693
1.07508
-1.21878
-2.91418
2.80361
0.110567
0.543902
-0.33566
-0.208242
-0.289719
-0.540039
0.829758
2.22133
-2.56119
0.339858
-2.59368
-2.39506
3.05152
-2.01745
-1.03406
-0.410196
0.368278
3.70099
-1.67081
-2.597
3.93856
3.0963
-0.842897
-2.2534
3.46155
-1.36725
-2.0943
2.40806
-0.967928
-1.44013
2.32961
0.766692
2.77076
-1.7023
-1.06846
-0.706266
2.52172
-1.81545
-0.0988577
0.160209
-0.0613508
-0.00943326
-0.153557
0.162991
-0.649274
0.0685222
0.580751
3.6228
-3.39829
-0.224506
-2.54206
-1.92666
1.47088
0.736897
-2.64062
-0.273565
-0.58837
1.4616
1.24576
-2.53655
1.29079
0.00865481
0.615059
-1.59849
3.33545
1.61138
2.77875
4.77061
-3.10661
-1.664
-3.00464
2.363
1.71185
-2.90543
1.19358
-1.85316
-0.309723
2.16288
-1.26343
-0.420595
1.68402
1.40372
0.48795
2.13641
-0.869327
1.35743
-0.629041
-1.18177
-1.72949
2.75887
-1.02938
-0.892562
0.155129
-1.02306
0.526153
0.271502
-3.09433
0.30644
-2.45923
0.769438
-0.665344
0.841559
-0.176215
-0.172639
1.00778
-1.26228
0.809311
0.45297
1.49354
0.159991
-0.0935986
-0.489791
0.583389
1.31083
0.553204
-1.2316
2.47736
1.76632
-0.383193
-0.796232
-1.53573
5.08231
-3.9739
-1.1084
2.53607
-2.9163
1.58994
1.32636
2.34219
-2.67285
0.33066
-1.51936
1.04742
-0.490566
0.12427
-0.833294
-1.23327
1.18373
-1.86068
0.676954
1.32792
1.44284
1.50282
-2.78912
1.2863
1.04118
-1.86499
0.823809
-2.92541
0.550035
0.130839
1.28822
-1.79347
1.75179
0.0416802
-0.56748
1.00486
-0.437384
-1.86985
0.20662
-0.428636
-0.853394
1.28203
0.439544
0.00148551
-0.441029
-0.937913
-0.892757
0.950207
1.40979
-2.36
2.89045
-1.14038
1.2042
-1.35502
-0.164338
1.70418
-0.662998
-2.09967
-0.178507
-0.533338
0.566203
-0.0328648
2.23016
-0.468023
-1.70788
2.46878
-0.760895
-0.481307
0.579762
-0.0984556
1.51519
0.118598
-1.50822
-1.02833
-1.72207
2.91652
-1.19446
1.37922
-2.71624
1.33702
1.37871
1.6728
-0.589529
0.453595
0.135934
0.450352
-2.30351
1.70267
-2.59544
0.892769
0.258816
-0.295855
-0.416822
2.10841
-1.99153
2.29797
-0.542388
2.00594
0.513243
-2.85156
-1.76853
1.41942
0.349112
2.11504
-0.554716
-1.56032
2.87727
-0.655938
-2.32557
-1.38942
-1.1716
1.86237
0.128898
0.0848106
-0.213708
1.02539
-1.13666
-2.48248
2.06565
3.03267
0.88557
-2.55776
0.849871
2.19174
-0.720863
0.983058
-0.771258
-0.2118
0.00695684
-1.62853
1.62157
-2.68731
0.465066
2.22224
2.50168
-2.50168
-1.64545
2.78459
-1.13914
-0.663723
0.570124
1.40683
-0.843723
-0.563103
-3.00985
3.13531
-0.125466
1.22754
-0.0794524
-1.14808
0.958312
-0.274382
-0.68393
0.496173
-0.785892
0.261928
1.62152
-4.21853
-2.35229
2.78073
-0.428436
-0.946314
1.89652
0.333254
0.0618429
-0.395097
0.613645
0.552584
-1.16623
-1.18648
1.45766
4.41725
-3.17592
-1.24133
-0.370615
-1.4265
1.79712
-0.889782
0.932839
-0.0430562
0.62571
-0.916495
0.290784
-2.79872
1.40772
1.391
-0.800188
-0.526034
0.967609
0.0154489
-0.0708779
-0.403504
0.474382
2.2126
1.4102
0.42924
-0.0959859
-0.328508
-0.541537
0.870045
-1.66101
2.61436
-0.95335
0.0978692
0.741618
-0.839487
1.37522
-1.22134
1.54134
-1.03344
-0.507894
0.26497
-1.43101
1.12345
2.28751
1.52818
0.817302
-2.34548
1.57267
-1.14472
-0.427947
-3.03485
0.579628
-0.901942
0.467374
0.434569
1.15808
2.4996
-3.65768
-2.03248
1.72276
0.21572
-2.74429
2.52857
-0.509061
0.374917
-0.545002
0.585721
-0.0407192
0.171823
-1.21266
-0.0172176
-0.334624
0.351842
-2.04369
-0.355528
1.82929
2.01619
-1.18048
-0.835705
-0.546258
0.0649515
0.323636
-1.99846
1.67482
0.804175
1.37531
-2.17949
1.22495
-2.064
2.42437
-0.36037
-2.27413
1.56786
-0.258988
-0.406168
-1.08904
-0.612721
-0.963513
0.204296
0.759217
-2.81504
1.15403
1.86009
-2.23071
0.976501
1.21524
-1.22693
1.12074
0.10619
0.61524
-3.35885
2.74361
0.68316
-0.985573
0.302413
1.02583
-2.53405
-1.95155
-0.324625
-1.16852
0.1066
0.0560583
-0.282565
0.226507
1.82357
-0.0168735
-0.105419
0.122293
3.44904
-2.29096
-1.20994
2.6768
-1.46686
0.884471
0.685455
-1.56993
-0.98059
0.471528
-0.866759
-0.0967545
0.812638
0.594188
-0.98474
-1.77832
-0.518423
-0.0149154
1.73343
1.46239
0.303933
-2.62644
3.12661
0.185011
-1.00615
0.821138
-0.28281
-2.46911
2.75192
0.829857
-0.914805
0.084948
-0.16462
-0.93101
0.310404
-0.409261
0.338688
1.11676
-0.939479
-0.322801
-0.0708686
-1.37333
1.4442
1.08005
-2.44798
-0.182718
-1.30246
1.48518
0.727554
-1.48364
0.756091
-1.84827
-0.0738892
1.92216
1.88002
-1.79748
0.0252605
0.37972
-0.40498
-0.79148
-0.0983025
0.616624
1.20937
-1.826
0.546156
-0.654413
0.108257
1.62774
0.90867
-2.53641
-0.655924
2.66055
0.416654
0.02289
-1.56528
-1.9908
3.55608
1.30762
1.72635
2.6525
-1.84833
-1.26722
0.838587
-0.573537
-0.0757362
-1.09053
2.80238
0.300285
-2.23657
1.93629
2.33676
-0.322386
-2.01437
-1.12952
1.73384
-0.604319
1.12132
-1.28027
-0.722458
2.00273
0.541542
-0.472404
-0.0691383
-0.796826
-1.48711
2.28393
1.27783
-0.664186
0.255779
-0.273357
1.55183
-2.34866
-2.04429
-0.710709
2.755
-0.00815481
-1.64158
1.64973
0.93576
3.56757
-3.71492
0.14735
0.693833
-0.237887
-0.455946
-0.101127
-1.1258
0.741741
0.896239
-1.23942
-0.0240139
-2.37994
2.98005
-0.600106
1.499
-1.3553
0.0787356
2.83963
-3.03194
-0.857234
0.00237834
-0.437932
0.435553
1.58676
-0.124373
-0.767598
0.834971
-0.0673731
-1.07149
0.780972
-3.80466
2.81924
2.54924
0.555679
-0.206754
0.832465
-0.747028
1.6315
3.9933
-2.37178
-0.778553
0.0109548
-0.485243
-1.99723
0.546714
0.899381
-0.877227
-2.76981
0.0825001
0.375103
0.762204
-0.0790434
-2.61876
1.32336
1.29541
1.95989
0.379191
0.751767
-0.285151
-0.466615
1.09553
-0.954509
-0.141024
-2.11604
0.77121
-3.25411
1.53205
-1.27527
-0.177676
1.45294
0.0356724
-0.898272
0.862599
2.93222
-0.0395359
-2.89268
0.745765
0.0636244
-0.809389
-0.503705
-0.937877
0.841576
-0.131172
-0.313
0.290217
0.0227823
1.4512
-0.0893619
-1.36184
0.00615662
-0.319156
1.74304
-1.65771
-0.0991461
-0.535466
0.634612
-3.03996
0.660022
-0.0406574
0.15469
-1.43886
1.12918
0.887008
-0.151857
-1.33008
0.797035
0.661549
-1.45858
-1.81639
-0.348884
0.972034
-0.787023
0.809796
-0.715537
0.426727
-0.994208
1.32207
1.53395
-2.85602
1.78473
-0.358985
-1.42575
0.097998
-0.758386
0.866376
-0.293676
-0.572699
0.824831
-0.972186
0.147355
3.25093
-0.0900235
-3.1609
0.553393
-0.0770402
-0.476353
-1.5987
2.21904
-0.620339
1.73307
1.6496
-3.38267
-0.383704
0.171088
-1.02384
1.50845
-0.484609
0.775923
0.333603
-1.10953
-3.99818
2.6458
1.35238
0.242009
0.048208
-2.54931
0.505015
1.11558
-0.640845
-0.474733
1.18863
-1.66586
0.477234
-0.396818
-0.648247
0.408791
3.15878
2.48902
-0.510328
-1.97869
-2.36217
0.298172
0.997608
-1.79384
2.70856
-4.34308
1.63452
-0.394788
1.02081
-0.0718263
-1.00735
0.678846
-0.565075
0.779162
-0.795411
-3.14851
3.94392
2.41355
1.28744
-2.21647
2.37678
-0.160315
0.25785
-0.201792
-1.52672
-0.484417
-0.446982
0.501994
-0.0550122
-2.59785
1.44449
1.15336
-0.494638
1.86994
-1.37531
-0.351205
1.53984
-1.43084
-0.380965
1.81181
-2.53093
-0.764309
3.29524
1.22522
-1.12878
-0.0964346
-0.95172
0.0638706
0.887849
0.312897
0.279536
-0.592433
-2.78158
0.134268
2.64731
0.0632335
0.714673
-0.777906
2.26261
-2.531
0.268396
-1.27176
-0.2421
-0.785269
1.02737
0.0451055
-0.492088
-2.80496
0.592894
2.21207
2.66076
-4.03596
-2.83838
2.48534
0.353044
0.655194
-0.109038
3.03851
-2.95977
-0.261648
-0.329489
0.591137
-0.05113
0.657171
-0.606041
-0.230122
2.13524
-1.90511
1.94342
-0.392025
-1.5514
3.02388
-2.88163
-0.142247
1.80367
-0.660763
-1.14291
0.121172
-0.824927
0.703756
-1.03613
-0.0676495
-3.1719
2.75375
0.418151
0.120354
-3.29226
-0.555711
0.804057
-0.248347
-1.40562
-1.99267
0.767364
-0.593998
-0.173366
-2.36368
-0.676286
-0.712302
0.513802
0.1985
0.160315
-0.803609
-2.97784
2.83718
0.140651
-0.488303
-0.273043
0.0856431
0.817086
-0.0713211
-1.61079
0.173393
0.623342
-0.651057
0.0277153
1.36637
-1.76405
0.397676
1.38797
-0.160439
-0.681263
1.53156
-0.016375
1.10143
1.80142
-1.28837
-0.513044
-0.32945
1.31765
-2.09524
1.3719
0.723346
0.314342
-0.072333
3.75599
-1.34244
2.59617
-1.98093
-0.398639
-0.520685
0.919324
1.77085
-3.98338
2.21253
1.8538
-1.86195
2.44735
-1.12683
-1.32051
-0.0228186
-1.77453
-0.320709
-1.39336
2.59633
-1.20297
0.0951179
-0.996563
3.96236
-3.10918
0.745499
-0.00882819
-0.000605071
-0.353025
0.477849
0.541358
-0.0160104
-1.31557
-1.22312
3.07173
-0.942612
0.81809
-0.184638
-0.633452
0.129615
0.828697
-2.07045
-1.84468
3.91513
1.54613
-0.142412
-0.0213203
-0.534785
0.556105
2.46447
0.609456
-0.117843
-0.491612
2.96581
-1.64374
-1.02958
-2.83446
0.482169
-0.804624
0.052926
0.751698
2.33568
2.6772
-2.47921
1.22101
1.2582
2.88655
0.137329
1.95407
-2.7361
0.782033
-2.40022
0.0250621
2.37516
-2.59993
3.30472
-0.70479
0.529891
-0.023202
-0.506689
-1.42908
4.08984
-0.574848
1.18724
-0.612391
0.135451
-2.35192
2.23673
-1.43948
-0.797249
-2.69649
3.53271
-0.836214
-0.672529
1.84466
-1.17213
3.4875
-1.54486
-1.94263
0.159124
-1.77942
1.6203
0.467439
0.118282
-1.32601
3.05907
1.09969
-2.74514
2.65569
-1.27647
-0.659892
0.560746
-2.47328
0.0730571
2.90851
-1.4057
0.0766245
-3.68012
1.03139
-0.0203979
1.84357
1.76625
-3.60982
1.6441
-0.560196
-1.08391
1.14423
-2.36906
1.22483
-0.638445
0.030596
0.607849
-0.641737
-1.59706
2.23879
1.16141
-0.734687
-0.0560992
0.992104
-0.936004
0.357075
0.551341
-0.908416
0.252984
0.514379
-3.2038
3.79527
-0.59147
0.886575
-0.0567173
1.42876
0.71858
-2.14734
1.31133
2.20463
-3.51596
0.686709
1.42833
-0.129205
3.65284
-0.0557453
2.38625
-2.33051
0.208479
-0.11061
0.129106
0.11726
-0.246366
2.24765
-1.78474
-0.462907
1.16858
1.27877
-0.5332
0.468613
0.0645866
-0.664146
2.26386
-1.59971
-0.0398728
0.673151
-0.633278
2.22065
-4.80195
2.58131
1.04242
-1.42792
0.385504
2.22139
-0.481608
0.681698
0.962407
0.485962
0.0976488
-0.583611
0.950797
-2.3773
-0.579095
0.537554
0.0415414
0.64753
-0.0881327
-0.559397
-0.111837
0.579276
-0.14384
2.08534
-1.9415
-0.680441
3.36955
2.15109
-1.89222
-0.258869
2.05341
-1.53267
-1.35487
0.598804
0.756065
0.144385
-0.988108
-1.42737
0.498037
0.929333
0.257143
0.494624
0.457062
2.17739
-2.63445
0.903771
0.547431
0.388447
-2.91938
-1.71334
0.329903
1.38344
-1.19898
-0.688402
1.88738
1.70501
-0.90797
-2.51096
1.56465
0.814663
-0.632991
-0.181671
-1.5639
3.76006
-2.19617
-1.29452
1.55949
-1.93155
1.71968
0.211872
-1.70302
3.47558
-1.77256
-0.0661468
0.768306
-0.70216
0.911055
-0.875383
-2.57923
-1.87132
3.14731
-1.27599
-1.69771
2.25404
1.44558
-1.70155
0.25597
-0.0270051
-0.931325
0.958331
-3.36854
2.03193
1.33661
-0.0884804
-0.511271
0.599751
-0.657937
1.89965
-2.12977
3.83797
-2.06713
-0.209434
-1.5591
-2.12541
2.06967
1.24684
0.0817197
0.806887
0.344632
-1.15152
-1.16722
1.07932
0.0879022
0.780647
0.28966
-1.07031
1.64572
0.866609
-2.51233
-0.204202
-1.07626
1.28046
-1.89273
-0.74325
2.63599
1.09783
-1.12484
1.0927
1.15495
-3.08831
1.64062
1.44769
1.20649
-1.31843
0.111936
0.0256263
0.69957
-0.861098
0.161528
-1.49111
2.70607
-1.06035
0.50857
0.718883
-0.597711
-1.55902
-1.03882
1.01183
1.19874
0.082769
0.994406
0.342249
-0.202186
-0.140062
-2.24566
-1.68962
3.93528
-0.128892
0.614853
-1.39847
-0.179989
1.57846
0.265824
0.803676
-1.0695
0.0083425
3.31532
-2.13518
-1.18015
0.620732
1.86829
0.328653
0.0122242
2.39281
-2.40504
-1.88915
3.41361
-1.52447
-1.5408
-0.679747
2.22055
-1.55167
0.527832
-0.861843
-0.493025
3.09206
-1.43645
-1.65561
-0.774184
-0.408608
1.18279
0.857074
0.368184
-1.22526
-0.625761
0.688995
-0.0337864
-0.346292
0.380079
0.843614
-0.0996421
-0.730459
-0.03728
1.74663
1.34543
-0.981798
3.09954
-1.0514
4.18358
-1.18791
0.413731
-2.34107
0.800267
2.28719
-1.83684
-0.459318
-2.08205
0.483353
0.0385739
-0.594285
1.88974
-1.88278
2.52305
-0.180853
-0.639052
-0.458652
-0.404672
-0.310228
0.714901
-1.03719
-0.135517
2.3443
0.40191
-2.74621
-0.149273
-0.753703
0.902976
-0.556326
1.7543
-3.09356
1.33926
2.41743
-0.154821
-3.79672
4.39217
-0.595453
0.640549
-0.593929
-2.70141
-0.667128
-0.66632
2.8014
-0.047644
2.42941
2.92877
-1.10294
-1.82583
-1.74205
-0.11278
1.85483
0.970978
1.05232
-2.0233
-2.15777
0.309501
-0.598232
-0.0945958
0.692828
-1.44818
1.74847
0.55777
1.34393
-1.9017
0.0828278
0.207892
-0.29072
-2.65646
0.356937
2.29952
1.40004
2.43793
-0.947173
1.31349
0.49018
-0.503342
-0.3986
2.91647
-3.33152
-1.23466
1.32614
-0.091486
-0.07528
-0.308424
2.01801
0.0161001
-2.03411
3.03882
-4.09022
0.0313048
-0.000833407
-0.42948
0.246068
0.183412
-1.17399
-1.63097
-0.114418
1.02406
-0.909645
-0.129311
0.0397023
0.0896089
0.868325
-1.03295
-0.900282
1.89789
-1.14597
-0.129292
-0.549994
0.5951
0.0808902
0.868092
-0.041286
-0.0631598
-0.689916
0.656011
0.0339057
0.723748
-0.79972
0.0759718
-1.82286
1.84484
0.275287
-1.67376
-0.199766
-1.03273
-0.199732
1.79305
-1.59332
1.09318
-1.28822
-0.431348
-1.51038
1.94173
-0.234044
3.06042
-2.82638
0.948487
-2.67798
2.34183
-0.0628725
-2.77551
0.809726
2.26201
-2.08476
-0.426205
-1.42088
-1.49542
-1.42807
0.57468
-0.437828
-0.291805
0.729632
4.52487
-2.18919
2.21981
-0.517141
-0.762182
-0.548839
1.31102
-3.51417
1.8462
1.66797
-0.0808652
-0.153034
0.890501
-1.1326
0.572889
-0.306155
0.641551
0.206867
-0.781715
-0.0903746
-0.242304
0.332679
-0.375231
2.71953
1.33787
-0.836834
-0.501031
2.61577
-3.37387
1.50644
1.86743
0.391402
0.99583
-1.38723
0.878331
0.543329
-1.42166
-1.74325
1.07072
2.08989
-0.21402
1.07109
2.64067
-2.92348
1.38816
-0.612234
-1.03254
1.98334
-2.50312
1.7883
0.71482
2.04518
-4.71991
2.67473
-1.94452
2.22351
-0.278998
0.926381
-1.25583
0.0405162
0.405304
0.819913
1.82476
-4.36614
1.76899
-4.80564
3.06673
1.73891
0.641967
-2.38402
1.77413
0.0413555
-1.87863
0.369297
1.05625
3.1207
-1.1364
-1.9843
-0.146241
0.74121
-1.94019
0.583469
-2.62898
2.5162
-1.83891
0.558641
1.33014
-1.64195
0.391824
1.25013
-3.02938
1.68517
1.34421
-0.847999
-0.411917
1.13947
-3.01013
2.15341
0.856714
2.60121
-4.0303
-3.21019
0.0063891
4.34516
-1.6366
0.940942
-0.770601
-0.170341
-0.085985
-0.528145
0.61413
0.520975
1.15059
1.51396
-0.434261
-1.20769
0.335891
0.825523
0.478036
1.21571
-1.69375
1.30538
-0.737926
-0.078551
-2.82695
2.9055
-1.03368
0.698104
-2.0089
-1.97443
-1.39954
3.37397
0.788388
-1.14943
-2.18155
0.673562
1.50799
-0.137666
0.0963493
0.0413168
3.1644
-3.95981
-0.197774
-0.231706
3.70571
0.135424
-3.84113
0.490488
0.327602
-2.55323
0.76014
1.79309
-0.924655
1.96707
1.54416
-3.43331
-1.40057
0.165909
-0.0919946
-0.0456716
-0.103615
2.44037
-1.68761
2.30644
-0.618833
2.32403
0.0067269
-2.33076
-1.38198
-0.040984
-0.62436
0.134137
2.36754
0.474189
0.105573
1.10708
-0.274114
-0.389609
1.48694
1.51963
-0.73898
-2.77649
-0.201348
-2.33639
0.621563
-2.77145
0.594228
0.626307
-1.22053
2.69761
0.146573
-2.84418
-0.400139
0.376937
-1.11209
-2.14202
-2.22278
-0.450073
-1.22505
4.26387
-1.01597
1.51581
-0.499839
-3.20116
0.955499
-1.00755
1.48559
-1.33675
-1.28202
-1.98087
-0.638269
0.812406
2.10709
-0.740721
3.24864
-0.44724
1.65535
0.364924
-2.02027
0.21649
1.50744
0.903866
2.94827
-2.73255
-0.234673
-0.718282
1.10558
-1.34505
1.65429
-1.50921
-2.57386
0.747742
0.557165
-1.30491
-2.54936
0.0476806
-0.501738
2.34613
-1.84439
0.0154365
-3.81216
-1.77367
2.15076
4.1832
-2.05999
-2.12321
-0.170326
0.6377
1.99224
-0.667354
-1.32488
0.881512
-0.981154
0.210321
-0.0812147
-0.316261
-0.153349
0.46961
-0.318788
1.12568
-1.48789
4.0891
0.00966629
-0.603664
-0.835964
-0.373379
1.20934
-0.249442
3.41385
-0.69855
-0.259847
0.958396
-1.19723
1.81386
1.02382
1.24004
-1.57325
-0.14009
1.74847
-0.680803
-1.06767
-0.167624
0.0894115
0.0782129
0.371532
-1.97885
1.60732
-2.70913
0.48635
0.72079
-2.14514
2.7667
-0.0389279
0.92044
0.511404
-1.52738
-2.44061
1.26901
-2.8502
0.819088
-1.48392
0.297436
-0.929122
-1.71313
2.64225
-2.60767
0.112982
-0.54522
0.432237
2.69868
-2.2078
2.12205
-1.15107
0.226764
1.63707
-1.86384
0.272663
-0.870895
-1.50401
-1.12862
2.63263
-1.51254
0.6128
0.899736
-2.53637
3.83403
-1.29765
2.0139
-1.80502
-0.208882
1.91395
0.0936226
-2.00758
-1.38793
-1.98594
-0.929758
-0.238763
1.4722
1.98757
-0.020962
0.368793
-0.347831
-2.00326
-0.549968
1.78111
1.58033
-1.60967
2.03761
-0.42794
0.500948
-0.618792
0.345415
0.729263
-1.07468
0.384252
0.953614
-0.287597
-2.72253
-3.12694
0.804917
0.00974558
1.21864
0.25321
0.274124
2.01601
-2.29013
-1.4677
-0.143089
1.29163
1.59882
0.229608
-0.891497
0.225228
-0.00278875
-0.222439
0.00641544
-1.06935
1.06293
0.0183062
-0.353966
1.3637
2.59729
-1.26937
2.13675
-1.43865
-0.407168
-0.804477
1.21165
2.10659
0.415131
-0.114785
-2.10771
1.46598
2.29957
-2.54901
-1.10836
-2.43367
3.54203
-1.56695
-1.94722
-3.0251
3.0412
-0.0160983
-1.03472
-0.77714
0.466912
1.67081
0.92648
1.65901
-0.820214
-0.838794
-0.815159
-1.5791
-0.943173
-1.55889
2.50207
1.38231
0.163821
-0.389619
-0.189476
1.63362
-2.74572
1.08329
-1.01781
-1.462
2.35536
-0.893366
1.21962
1.08284
1.14857
-2.2314
3.02173
-1.57123
-1.4505
-2.04752
-1.50433
2.56178
-1.05745
-0.123639
1.77899
-0.959482
0.920554
1.22249
2.265
-0.723872
0.637887
0.0731902
-0.0900637
2.69505
-1.51892
1.75655
2.76832
-1.33391
0.756244
0.577668
0.590633
-0.989272
2.02236
-0.00435504
0.0759997
0.864942
-1.73784
-0.282951
2.02079
0.625895
-0.0499389
-0.575956
0.585365
0.108468
0.376493
-2.97643
-0.939939
1.11176
1.83618
-1.76706
-0.0691166
0.577575
1.17089
-0.533141
0.24799
0.940897
0.636578
-1.57747
-0.859151
3.40532
0.352916
-1.29387
2.7329
-1.43903
-0.515572
0.872647
-0.120628
0.203456
3.08241
-1.60104
-1.03958
-0.468535
1.34687
1.01243
-1.21219
-0.608184
0.542037
-0.860974
-0.504956
-0.0413021
-1.08923
-0.575606
2.31075
-1.73514
0.372291
-0.443168
-0.649749
0.32026
-1.0984
0.16864
-3.59159
2.02631
0.852292
0.656154
1.9779
0.00752515
-1.98542
0.3487
0.349897
2.06299
1.31516
-3.37815
-0.420781
-0.0253061
0.446087
1.02351
-2.23345
2.97626
1.20694
2.19795
-1.92383
-2.59486
0.0349703
0.0426963
-1.28121
1.23002
0.836572
1.22645
-2.06303
1.33327
-0.240091
-0.0657104
-0.957704
-0.376207
-1.58312
-0.921615
1.066
1.78753
0.889272
1.48658
-1.41849
-0.0680892
0.638807
0.0172034
-0.206232
0.82566
-0.101911
2.16414
0.527531
-2.69167
0.363524
-0.453899
-0.756854
0.471067
0.285787
-1.10674
-0.0500516
1.1568
0.065944
1.68512
-1.75106
0.638976
1.06603
1.85368
-0.0566028
-0.865785
-0.812892
0.538778
-0.271011
0.548509
-0.277499
-3.59447
1.19352
2.38011
-1.81075
-0.56936
0.0528573
-0.50269
0.449833
2.31762
-2.46145
0.822113
0.560195
1.39106
0.730991
-0.499215
-0.00574096
-0.331838
0.369046
-0.0372074
-1.21145
-0.436255
2.9978
-1.54053
-1.45726
0.406295
0.219818
-0.626113
1.37815
-2.15478
0.776633
0.475692
1.51904
0.185134
1.02469
1.3844
-2.40909
0.0101211
-0.341959
-1.79668
-1.3718
0.534969
2.40147
0.00297195
-2.40444
-2.75677
0.156583
0.185666
0.55908
-0.0904668
0.633659
-0.387592
-2.05096
1.55632
0.0257362
0.275107
-0.124226
0.352748
-1.22625
1.45301
0.0210213
0.878359
0.310038
-0.174932
1.77002
-0.0103232
1.4969
-0.727054
-0.441743
-0.634001
1.5749
-0.17032
2.37576
-2.20544
-2.17197
-0.377333
-1.59524
4.40757
-2.81233
-0.624352
-0.747451
1.03048
-0.177935
-0.0470558
-0.80439
0.851446
-2.40219
0.801158
0.501063
-0.475803
2.20266
-4.27311
1.86217
-3.85297
-0.591092
1.73679
-1.37098
1.60946
-0.972879
0.0303475
-1.48275
1.85428
0.00095201
-0.513477
0.13084
-1.25962
-0.445013
-1.60871
2.05372
1.32132
2.80447
4.29891
-2.80604
-1.49287
-0.680332
0.303564
0.757701
0.0634801
-0.821181
-2.27463
0.587025
0.684793
-0.0372631
-0.0187008
-0.4483
0.467001
2.68466
-4.2799
0.292499
1.25277
0.255615
-1.50838
-2.69689
2.52657
0.490633
0.124504
-0.615138
1.32432
-3.19564
-0.492721
0.00486394
0.487857
0.637774
-0.147141
-0.000848386
2.09708
-1.41037
1.58159
1.56569
-0.926709
-2.84818
0.873747
-1.75456
1.61313
0.141434
2.25636
-3.36472
-1.53664
-0.833983
2.37062
-0.124857
1.35437
-0.944105
0.864653
2.86282
-0.436338
-2.42649
-0.00108009
-2.77541
1.76872
0.145232
1.32247
0.669771
-0.536013
0.00122759
0.509844
-0.681424
-1.17925
0.168844
-0.206166
0.0373219
0.00828926
-2.07905
2.07076
-0.392775
1.19135
-0.798572
1.91876
-3.81051
1.89175
-0.0255351
-1.52676
-0.0768074
0.0634251
1.78546
-1.07788
-0.556157
1.63403
-1.15854
-0.885151
1.38867
-0.831508
-0.238251
-0.615327
0.853577
2.88154
-0.903647
-2.44718
-0.253645
-0.318547
0.572192
0.890142
0.372889
-1.26303
0.788419
-2.25986
1.47144
0.338065
-1.64211
0.474944
-3.17144
-1.81534
-1.49356
3.3089
-2.52291
0.090239
2.43267
-2.82059
-2.16333
0.218817
-0.993808
0.977872
0.0159359
-4.12062
-0.875539
3.03968
1.22198
-0.560431
0.36785
-1.00185
-0.424109
1.49014
0.499785
0.380552
-1.21652
0.0560731
-0.499747
0.443674
-0.337466
-0.117228
-0.347274
0.400131
-1.04566
1.43706
-3.24568
1.82825
1.41743
2.03851
0.0978978
1.16946
0.688023
-0.0621287
1.13415
0.524858
-1.40724
-0.774309
-1.64715
0.513415
1.13373
0.130328
-0.660208
0.52988
-1.4132
1.41962
-0.344564
2.12019
-1.25912
0.560571
1.20057
-2.35911
1.19396
-1.33994
0.145977
0.432175
-0.052455
0.502444
-0.0488489
-2.62707
1.69794
-0.378681
0.784976
0.0398438
-0.638066
0.598222
-4.07126
1.5315
-0.903467
1.52394
-0.603955
-0.0503413
-0.696142
0.746483
-1.69373
0.61585
-2.87193
2.58433
4.67162
-0.965918
-0.82889
0.7739
0.0549901
-0.376976
-0.0609556
-0.511422
-2.58337
1.38894
1.19443
-0.497719
0.472412
-0.136175
1.17263
-1.03645
1.22827
-0.406152
0.176481
-0.368894
0.192414
-0.902718
0.923739
0.0522867
0.206529
1.54236
-3.07027
2.72318
0.163365
-1.98884
0.311833
2.48067
-0.132823
-2.34784
0.38153
1.04145
-1.42298
1.16551
-2.48108
1.89308
-3.41497
1.52189
0.0347467
-0.0853314
0.0505847
-2.94442
3.03606
-0.0916463
-1.17152
0.740172
1.91227
0.0311494
3.39997
-1.3784
-2.02157
-0.307603
-0.625285
0.932888
-0.0901155
-1.0036
-0.0325242
-0.951557
-0.0520452
0.323327
-0.880219
0.556892
-0.275721
2.53087
-2.25515
-2.16554
0.508734
1.6568
0.714726
2.21749
0.0367477
0.286384
-0.323132
1.64508
0.709421
-2.3545
0.148697
-0.586525
-0.956901
2.19424
-1.23734
-2.02317
0.285326
1.64791
0.740283
-2.27692
-0.00594604
-0.379847
0.385793
2.89206
-1.13115
-1.76091
1.48643
0.721251
-2.62287
1.39975
2.53402
-2.61257
-1.32417
0.0988341
1.22533
-0.16347
-0.255131
-0.364716
0.619847
0.426538
-0.0935524
-0.332985
-0.0283064
0.422706
-0.394399
-1.20428
1.26906
-0.0647778
-1.62044
3.25406
-0.936737
0.865869
0.811364
-0.947539
0.972547
-1.66024
0.687695
-1.35913
-1.14399
0.566677
-0.25378
-0.343429
0.000618031
0.342811
2.53417
-1.34247
-1.1917
0.10748
1.7287
-0.750194
-0.417028
-1.72975
0.356419
1.8629
-0.0611223
-1.80178
0.00343685
-0.0691724
0.0657355
-0.0261066
1.12164
0.300472
-0.098661
-0.201811
3.97295
-2.50816
-1.46479
-4.00468
0.856173
0.0959735
-1.16982
2.49452
-1.32469
0.342705
-2.33424
1.31886
-1.16417
0.388398
0.114046
-1.65767
2.50564
-0.847966
0.499161
0.0737285
-0.230635
-0.888371
-0.743456
0.753122
0.3262
-0.40324
-2.36418
3.02893
-0.664755
1.7323
-1.39059
-0.341705
-0.402891
0.421197
0.778398
0.15444
-0.742423
0.605583
-0.315823
-0.932462
1.44597
-1.838
-1.95042
2.97511
0.497438
-0.217902
0.440086
0.197688
0.0218025
0.0129442
2.2386
-2.34324
0.104637
2.85399
-1.28133
0.738553
0.542776
0.369751
-1.08803
-1.45294
-2.47002
-0.76225
0.712311
-0.510683
-0.844631
1.35531
-2.28272
0.585007
0.518208
0.645753
-1.16396
-0.908755
-0.603781
-0.335285
-1.3481
3.55273
0.349128
-2.44343
0.629412
-1.59077
0.961357