/*--------------------------------*- C++ -*----------------------------------*\
| =========                 |                                                 |
| \\      /  F ield         | OpenFOAM: The Open Source CFD Toolbox           |
|  \\    /   O peration     | Version:  2306                                  |
|   \\  /    A nd           | Website:  www.openfoam.com                      |
|    \\/     M anipulation  |                                                 |
\*---------------------------------------------------------------------------*/
FoamFile
{
    version     2.0;
    format      ascii;
    arch        "LSB;label=32;scalar=64";
    class       volVectorField;
    location    "4";
    object      U;
}
// * * * * * * * * * * * * * * * * * * * * * * * * * * * * * * * * * * * * * //

dimensions      [0 1 -1 0 0 0 0];

internalField   nonuniform List<vector> 
13486
(
(5.20067 -1.25402 7.09212e-21)
(5.35713 -0.0165121 4.26398e-21)
(7.57102 -0.0867627 0)
(10.5558 -3.7148 -5.55088e-20)
(8.69027 -0.628745 -4.85895e-21)
(6.75548 0.48536 -1.30367e-21)
(9.54317 1.52145 1.52191e-22)
(7.39909 -2.36558 7.35654e-22)
(6.80025 -1.2336 0)
(5.50881 1.06313 0)
(-1.22372 0.572149 -6.54203e-21)
(6.47044 0.000623109 0)
(4.8839 -1.80221 -6.83848e-21)
(6.22766 1.48672 -2.07769e-21)
(8.24027 0.846654 -2.45302e-21)
(5.45899 1.07388 -4.46156e-21)
(5.4039 -2.86939 4.55245e-21)
(0.6062 6.12398 -8.14375e-21)
(5.98289 0.0186116 4.81586e-23)
(5.53961 -0.751013 -7.44341e-21)
(10.7964 -0.404641 -2.87672e-20)
(4.92696 -1.8352 8.80996e-21)
(5.38942 -0.0318677 -3.41576e-21)
(6.9561 -1.74679 0)
(5.75446 0.864993 1.60344e-21)
(8.15432 -1.50766 -1.82625e-21)
(5.18848 -1.86593 8.2667e-21)
(9.34324 0.0723999 5.10444e-21)
(4.4352 1.46929 0)
(9.87148 -0.0681696 -5.5716e-21)
(7.92559 4.90619 -2.45398e-20)
(6.80719 1.54859 5.07541e-23)
(10.197 1.71756 5.38678e-21)
(8.86251 -0.455281 0)
(7.43265 -2.24351 0)
(4.65249 0.074706 6.20897e-23)
(5.31422 -0.545893 -1.65665e-22)
(5.77108 -2.65503 2.26629e-21)
(6.38651 -1.45833 -3.54643e-22)
(6.67867 -0.758876 2.43344e-21)
(10.8613 -2.38216 0)
(4.31286 -2.08365 -8.28295e-21)
(7.16731 0.0917955 0)
(5.81853 0.716007 -7.42807e-21)
(5.82462 0.731373 3.04333e-21)
(6.42515 -0.0015972 2.46173e-21)
(-1.48691 -0.829847 4.822e-21)
(4.3664 1.02062 1.63524e-22)
(5.29771 -0.510866 1.29496e-22)
(8.29152 0.497059 -2.24739e-22)
(5.98881 0.000173586 5.57078e-21)
(6.74242 -0.579078 0)
(5.63093 0.146108 -5.40963e-21)
(5.95134 -2.17113 -3.58861e-21)
(-0.818735 6.98856 0)
(8.48533 -0.841418 2.37604e-21)
(5.74007 -0.512957 -2.11793e-22)
(6.8516 -0.924814 -1.66579e-21)
(10.2052 1.56293 5.60044e-21)
(5.32484 -0.711365 0)
(-1.10833 -0.874625 -7.73806e-21)
(5.42015 -0.745358 0)
(3.74259 2.12261 1.31076e-21)
(10.6237 -0.66344 -3.30621e-22)
(-6.10379 6.32759 0)
(5.32333 -0.593967 -6.44207e-23)
(9.76122 -4.03809 -5.32262e-20)
(5.01862 -0.647689 2.6646e-21)
(6.80843 -1.30915 -9.97961e-22)
(4.81261 0.0664419 1.90871e-22)
(10.8535 -4.54736 6.14585e-20)
(-0.0367652 7.3925 -7.73509e-22)
(6.46802 -0.481024 2.22125e-21)
(-2.04093 -0.701877 -3.58184e-21)
(5.32468 -0.660928 -7.99276e-24)
(5.52654 -0.584317 3.93121e-23)
(5.30283 -0.636955 3.26022e-23)
(8.37187 0.8484 1.0666e-21)
(-1.64586 -0.137486 -3.49346e-21)
(8.68756 -6.10134 0)
(4.98893 0.114547 -2.81638e-24)
(5.17417 0.123216 -2.82099e-22)
(3.08202 2.39776 8.10414e-22)
(7.64429 -0.182181 -5.18716e-22)
(5.20293 -1.27188 -1.37754e-20)
(4.15803 2.29675 0)
(4.27217 -2.99963 4.99532e-22)
(6.00056 0.027977 -8.89543e-21)
(5.75873 -0.0260167 -3.65169e-21)
(5.04541 1.46409 -5.93804e-21)
(5.79813 1.51971 -1.36512e-21)
(7.88619 -1.74196 1.04808e-21)
(5.42088 -1.48946 1.68982e-21)
(5.48959 -0.427637 2.08952e-22)
(6.69298 -1.94283 3.59299e-22)
(4.62195 0.685227 -3.58685e-23)
(5.85531 -2.13409 0)
(9.59739 -4.97957 3.06556e-20)
(6.67038 -0.719691 -4.69536e-21)
(4.56152 -2.59472 -1.54705e-22)
(5.0961 0.0446864 0)
(6.21316 1.46987 -8.30354e-22)
(9.39024 -5.4245 1.11614e-21)
(6.7418 -0.797898 1.93092e-21)
(3.89475 2.0583 0)
(4.08519 -2.60943 -6.91525e-23)
(6.04367 -0.128773 -1.1444e-23)
(6.42699 -1.73971 -8.33268e-22)
(-1.57294 -0.21589 4.36772e-21)
(7.70426 -3.35791 0)
(6.12122 -2.81292 0)
(7.58804 2.4148 3.79136e-21)
(5.9875 -2.12605 8.65773e-23)
(7.53994 -0.379091 -2.21492e-23)
(4.2503 -1.0425 0)
(6.01143 -2.80223 -5.95925e-22)
(5.69954 0.930593 0)
(9.34165 -0.494845 0)
(6.46257 -0.468548 0)
(5.2671 -0.46007 -1.19795e-22)
(0.560043 5.33423 2.83917e-21)
(-0.918613 -0.647378 0)
(6.53673 -1.78966 0)
(6.45606 -1.4934 1.20141e-21)
(6.93123 -2.26851 0)
(6.803 -0.556345 0)
(7.31264 -0.293997 2.10313e-23)
(6.23213 0.152812 4.05765e-21)
(8.70151 -0.539378 -8.69734e-22)
(-3.69198 7.22136 -8.4411e-21)
(6.55482 -0.462909 -1.94958e-22)
(-1.26393 -0.522902 -1.12068e-21)
(3.02994 -1.19792 5.95513e-21)
(-1.27291 0.321782 4.15121e-21)
(5.99685 -0.00329555 -8.80322e-22)
(5.61466 0.427928 -4.9895e-21)
(3.09146 0.439297 -2.76658e-21)
(7.64136 -3.22445 0)
(5.23009 -0.41334 4.46417e-23)
(7.3577 -1.76236 -5.93917e-23)
(9.14461 1.55785 -2.88953e-21)
(5.67377 0.211881 4.65828e-21)
(6.30008 0.834925 0)
(8.49716 -5.43319 0)
(7.82928 0.140354 1.04112e-22)
(0.821669 5.39954 -1.06771e-20)
(4.57064 -1.34384 -1.28722e-21)
(1.68817 1.20079 0)
(8.33607 0.717187 0)
(4.67464 1.60286 0)
(5.99302 0.0067488 1.171e-22)
(8.90822 0.480271 0)
(5.06265 0.0936749 2.94753e-24)
(5.12088 0.120516 -2.41599e-21)
(6.13013 0.552722 0)
(7.96468 -0.130126 0)
(7.84388 -3.28833 0)
(6.47268 4.07604 2.57988e-20)
(6.35925 -2.42644 3.51535e-21)
(5.06954 -1.02364 7.60219e-22)
(7.42862 0.242928 -1.0853e-21)
(6.38451 -2.37744 -5.15066e-21)
(5.31782 2.91507 6.05026e-22)
(3.87863 -1.95022 3.56285e-21)
(6.95218 -0.694291 0)
(6.40493 1.5747 2.0574e-21)
(6.14802 1.31379 5.42071e-21)
(2.91108 -1.30414 -1.0648e-20)
(4.39552 -1.45689 3.19361e-21)
(-1.30754 0.31095 1.10473e-21)
(2.0843 -2.074 -7.57163e-22)
(6.11799 0.487012 3.09218e-21)
(6.00257 0.055124 -8.29693e-21)
(7.28134 0.277171 1.76389e-23)
(4.93094 0.244887 -2.12262e-23)
(-0.211004 -6.64463 0)
(6.03249 1.98885 -4.00696e-21)
(9.13305 2.30251 3.40263e-21)
(6.06244 -0.133765 -7.81436e-21)
(6.29612 0.716099 0)
(6.88297 -0.818891 3.85239e-21)
(7.78035 -0.194621 -5.75685e-23)
(7.0403 0.560448 3.38738e-23)
(3.96146 -2.64158 0)
(7.0389 -0.566135 1.47315e-21)
(8.75963 0.06746 -2.29482e-21)
(6.78656 2.03568 2.37719e-22)
(9.52309 -0.238057 -1.56183e-21)
(10.6786 -2.27637 0)
(5.48114 -2.60315 -1.53708e-21)
(5.25734 -0.514258 0)
(7.84382 -0.00554213 0)
(7.0877 -1.35772 0)
(4.30541 0.869175 -5.6791e-21)
(7.3635 -1.5466 0)
(-1.27725 0.899208 -1.88895e-21)
(-5.19381 8.46999 1.59987e-20)
(7.60136 0.151221 -4.61551e-22)
(5.05624 -2.46978 -1.27077e-21)
(6.40494 1.50406 1.63298e-21)
(7.44955 5.2486 2.62171e-20)
(6.24859 0.201395 -1.28631e-22)
(5.69304 -2.68949 -2.62616e-21)
(8.97573 -3.42773 -3.59944e-21)
(4.97072 -0.941415 -8.87389e-22)
(7.49224 -1.51197 -1.94349e-21)
(1.90799 8.22511 -9.39208e-21)
(6.19672 -0.418826 5.27622e-21)
(7.02958 -1.34766 0)
(7.19345 -0.503722 0)
(9.42488 -0.0911666 4.39807e-21)
(4.83823 0.605774 -2.02338e-21)
(5.58238 -0.681645 6.83501e-21)
(5.99756 -0.111528 -1.46674e-23)
(6.78741 0.559744 1.50342e-21)
(12.859 -2.7617 5.14724e-21)
(9.71584 -0.021031 0)
(5.06233 1.40938 1.35704e-20)
(5.68532 -1.49395 0)
(6.74231 2.06945 0)
(4.71974 -2.7288 -8.52779e-21)
(8.16163 0.81238 0)
(7.2928 -1.7777 1.04258e-24)
(8.04634 0.316955 0)
(5.20201 -0.253844 -1.17833e-21)
(4.99906 -2.35051 2.27299e-21)
(6.85743 1.06044 1.43552e-22)
(2.90724 3.3246 2.00912e-20)
(10.2345 -2.90057 1.10145e-21)
(4.58018 -2.94188 -2.11811e-22)
(6.88879 -0.768909 -1.26712e-21)
(13.4671 0.626023 3.66753e-20)
(9.33571 1.63776 3.53381e-21)
(4.28292 -2.06967 2.88879e-21)
(9.75706 -3.24385 0)
(4.68733 -2.27694 2.515e-22)
(9.38925 -0.436686 3.13397e-21)
(7.81902 -0.0364388 -2.73243e-22)
(4.68 -2.23753 7.05543e-21)
(6.88826 0.290298 0)
(11.1819 1.36414 0)
(5.99464 0.054468 1.28117e-20)
(8.25273 -0.0576346 0)
(4.49227 -2.21044 2.13834e-21)
(6.00935 -1.64866 -5.51403e-22)
(5.81502 -0.332483 0)
(6.857 0.118503 -4.52291e-22)
(9.7041 -0.110511 6.19665e-21)
(-0.238274 -0.727582 4.7134e-21)
(5.78089 0.640142 0)
(5.84307 -5.63314 -9.24128e-21)
(4.17705 -0.983926 1.18239e-21)
(5.63383 -2.72571 3.70873e-22)
(6.51755 -1.75853 0)
(9.25315 -3.7024 3.845e-21)
(-0.709742 -6.99412 5.91002e-21)
(6.77142 1.53193 4.22616e-22)
(13.8422 -2.96616 -6.50432e-21)
(10.1031 4.31794 -2.70099e-20)
(10.837 1.42307 5.84713e-21)
(5.57845 -0.0565779 0)
(5.97788 -1.63921 -4.08614e-23)
(8.24219 0.857622 5.46405e-21)
(-1.23035 -7.88666 -7.37962e-21)
(8.67274 -2.10444 5.06319e-21)
(3.7715 -2.79819 0)
(9.8945 -2.47611 -6.14922e-21)
(8.85917 3.88054 -3.58895e-20)
(6.67151 -0.048363 -2.88479e-21)
(-0.856301 2.28887 0)
(4.75744 1.08666 4.66677e-21)
(6.00918 -0.097193 -2.2221e-21)
(9.71414 0.0397709 0)
(6.14517 -0.109236 2.62294e-21)
(5.12175 -2.42726 3.00809e-21)
(9.93329 0.402182 -3.39389e-21)
(8.83845 -3.37643 0)
(-3.65181 10.4065 0)
(6.59908 -1.98659 -1.13394e-21)
(4.59542 -1.19087 2.70303e-21)
(-3.43364 9.783 2.87319e-20)
(6.99583 -0.359107 -1.4078e-21)
(5.99879 -0.160437 4.72968e-21)
(-1.33605 -0.113497 -1.31612e-20)
(-0.10891 -1.03369 9.60089e-21)
(4.92291 -2.46357 1.23504e-20)
(8.76228 1.81715 1.44028e-21)
(8.21892 -0.553234 1.14367e-21)
(5.88617 -0.285098 2.07365e-21)
(6.4605 -0.0545395 0)
(11.1915 -3.05615 0)
(5.39542 -1.01105 -1.08896e-22)
(5.91804 -2.74387 1.16551e-21)
(5.99431 0.000338736 -8.54944e-22)
(9.32846 -0.473149 3.02867e-21)
(9.48546 -0.352447 0)
(7.88775 0.035988 1.20956e-21)
(6.19858 -0.211743 -2.31381e-21)
(6.01848 -0.192749 -4.25192e-21)
(10.4379 0.291503 -1.06457e-20)
(5.18125 3.01669 -5.83704e-22)
(1.83838 8.68281 1.06724e-21)
(4.62793 -1.33792 -2.30341e-21)
(6.99268 1.45586 1.56064e-22)
(5.34683 -0.417672 4.84514e-23)
(7.84777 -3.68137 0)
(9.76252 0.7475 0)
(6.29323 0.0600353 8.08313e-22)
(4.59411 -3.27633 -2.094e-22)
(5.27142 -0.526209 0)
(5.30078 3.61998 -4.41526e-21)
(8.28873 -2.67982 0)
(5.85251 1.88398 2.49023e-21)
(7.37348 2.35381 2.88226e-21)
(-4.3885 0.683547 0)
(5.60489 0.361267 -3.14891e-21)
(5.4785 -0.998934 1.6779e-22)
(5.72016 -0.0363962 -3.10544e-22)
(6.14262 -0.421324 -5.97622e-21)
(9.98921 -2.37386 0)
(5.27888 -0.569298 1.11611e-22)
(5.62183 -1.07968 3.3534e-23)
(6.06768 -0.0771117 9.93844e-22)
(5.45422 -0.346448 -4.0309e-21)
(3.35261 0.184928 5.01281e-21)
(5.99098 1.58653 3.13253e-21)
(7.79098 -0.375485 2.70745e-21)
(7.02158 -0.343688 0)
(6.4888 -0.607074 -2.26321e-23)
(7.91124 -0.243139 1.17209e-21)
(5.9894 -0.0149922 1.28476e-20)
(7.9875 -1.71446 0)
(5.41946 1.70658 -8.38693e-22)
(4.83623 0.0439963 0)
(9.48283 1.68018 1.91798e-20)
(6.88741 -1.74117 -6.71983e-22)
(3.51571 -1.70524 3.7667e-21)
(8.8668 0.233501 5.46207e-21)
(5.96756 0.179405 0)
(5.86034 -1.57579 -6.086e-22)
(10.1241 -2.36531 6.32369e-21)
(5.44202 -0.332703 3.81178e-21)
(8.00598 -0.231653 -3.40096e-21)
(7.05227 0.598083 9.16062e-22)
(3.35484 -3.26303 -1.17321e-20)
(4.52993 0.972292 -3.67639e-23)
(7.19989 -0.0327848 0)
(4.22052 -1.69493 8.6734e-21)
(6.86133 2.11362 0)
(5.482 -1.0768 -3.24574e-23)
(6.99073 0.0305813 2.41944e-21)
(6.2512 -0.490081 -2.78251e-21)
(6.08838 -0.0991313 2.31381e-21)
(5.28655 -1.9077 -1.05626e-20)
(6.03531 -0.172955 5.28246e-21)
(5.09197 0.00470191 0)
(-1.85314 -1.37145 -3.99432e-21)
(7.30438 -0.24085 -4.14032e-22)
(5.04782 -3.14158 -2.04098e-22)
(6.33834 1.36739 -6.54432e-22)
(7.06725 0.023831 0)
(5.53671 1.35056 3.3382e-21)
(5.69428 -0.190586 8.57512e-21)
(5.99828 -0.108054 6.76854e-21)
(9.82384 0.0459644 0)
(5.12282 0.0827741 -7.4509e-24)
(9.45423 -0.36484 -2.9434e-21)
(-0.790872 -1.11314 6.65668e-22)
(5.50407 -0.744415 9.51894e-22)
(7.27509 -0.201248 3.94911e-22)
(7.56037 0.0857264 6.91586e-23)
(7.18204 -0.0705199 0)
(5.14782 -0.470383 -4.89201e-21)
(4.78271 -5.35868 6.95962e-21)
(6.50105 0.947522 -3.00579e-21)
(6.00508 -0.00448674 4.62335e-21)
(4.78091 0.00855635 0)
(5.59882 -1.26247 -1.61156e-22)
(-3.49471 0.697647 0)
(7.45183 1.94946 -7.75651e-22)
(6.71573 -0.0698796 0)
(8.12212 -2.12576 -2.16108e-22)
(4.90769 -1.0521 -2.07486e-21)
(4.81562 0.933213 1.05816e-20)
(-1.04448 -1.14794 -1.55595e-21)
(9.13159 -3.05751 0)
(6.49471 0.124202 -4.23496e-21)
(5.96344 0.182897 -3.69088e-21)
(3.11201 -2.16137 -1.27603e-21)
(8.90936 2.39407 3.5181e-21)
(5.6421 -0.708232 -1.01903e-20)
(9.64189 0.0828619 2.08913e-21)
(6.02076 0.2518 3.05963e-21)
(5.40333 -1.83766 0)
(4.73148 -0.165645 4.71534e-21)
(5.15036 -0.453043 -1.36314e-22)
(9.29589 -3.44193 3.17941e-20)
(4.88654 -5.35818 -2.65761e-20)
(3.70861 -2.45275 -3.38398e-21)
(8.87205 1.84486 0)
(3.13949 -2.29996 0)
(5.31868 1.88016 0)
(6.80806 -0.191421 0)
(10.9565 -0.818183 -1.94652e-20)
(8.96921 1.78721 0)
(3.01882 -2.05025 0)
(5.53947 -0.368219 1.5411e-21)
(9.08586 2.3087 -3.49618e-21)
(7.13766 -0.126032 -1.53489e-21)
(5.37694 0.077126 1.51412e-20)
(6.00492 0.0362784 -1.85525e-21)
(5.45862 3.01038 0)
(9.53699 0.221883 0)
(5.98986 -0.193395 4.54557e-21)
(5.96649 0.0310265 8.01919e-22)
(3.91093 0.814011 0)
(4.24645 -2.92378 1.38565e-20)
(8.5989 -2.18134 -5.67953e-21)
(0.124729 -3.32655 0)
(6.90884 0.316372 1.59838e-21)
(6.07784 -0.11042 -5.25979e-21)
(6.86496 6.16022 5.78117e-21)
(4.20199 -1.67331 0)
(5.9349 0.192152 6.55208e-21)
(7.17851 0.832427 0)
(9.51847 -0.257338 0)
(6.2607 0.355375 -6.03858e-22)
(5.97662 -0.156332 2.52476e-21)
(5.87324 -2.20495 -1.08251e-20)
(6.13019 1.25583 1.73629e-21)
(5.02599 -1.59676 -3.3507e-21)
(6.75222 -0.174932 3.56744e-22)
(6.0734 0.278816 2.47519e-21)
(5.84078 -0.571586 1.28595e-20)
(9.01891 -1.83855 0)
(10.0764 -0.131596 3.82901e-21)
(4.88869 -0.908856 0)
(5.48779 -1.09402 -5.94438e-23)
(7.2815 0.203221 0)
(5.06457 -0.618243 5.72916e-21)
(-0.29624 -2.29 -5.08931e-21)
(9.61108 0.0474952 0)
(-0.670665 0.773334 2.06874e-22)
(9.54705 0.17074 -4.20433e-21)
(4.85741 -1.86837 1.04222e-21)
(6.2163 -1.08334 7.55975e-21)
(4.50105 0.836926 -6.60679e-21)
(5.00138 -1.57558 -9.80487e-21)
(7.40353 2.02705 0)
(5.27397 -0.456259 1.16767e-22)
(3.2426 -3.02746 -2.68336e-20)
(5.94491 0.181982 0)
(5.70949 -0.0196115 3.40234e-22)
(7.76776 0.314359 1.53933e-23)
(6.44595 2.19725 0)
(5.99918 -0.00866198 0)
(6.98085 -4.26348 0)
(-0.679831 -5.66484 3.25551e-20)
(-0.633171 0.17428 1.55858e-20)
(1.98393 5.38876 -1.94105e-22)
(5.83658 1.79188 0)
(5.91506 -0.923606 5.92363e-21)
(4.91013 0.221669 5.00611e-23)
(6.14856 1.16187 -4.20617e-21)
(11.7566 -2.28004 5.31689e-20)
(5.8375 -0.0539107 0)
(4.3884 1.14816 0)
(3.56414 -1.24035 -6.31496e-21)
(5.32283 -1.83658 -2.21734e-21)
(6.59405 -0.607219 0)
(6.85115 -3.13172 1.5056e-21)
(5.26517 0.0348916 -1.40812e-23)
(4.79103 0.659782 4.27574e-23)
(3.79588 -1.81173 0)
(7.62798 -1.0971 2.07821e-21)
(5.22427 -0.404632 1.24754e-22)
(7.21365 0.813327 -2.14163e-21)
(6.86901 -1.83278 0)
(4.88899 -2.539 -1.862e-20)
(6.22805 -0.350425 2.52694e-21)
(5.98112 0.0774292 1.27003e-21)
(5.00861 -0.0177668 8.11853e-23)
(6.5094 1.61396 0)
(5.36149 0.0666836 -4.02692e-21)
(7.02189 2.39643 5.44447e-22)
(4.1732 -2.55498 8.30491e-22)
(5.97888 0.0280703 0)
(8.5483 2.92359 -3.61022e-21)
(2.94037 -1.15944 0)
(6.00875 0.0379107 -5.16189e-21)
(5.98195 -0.00664263 1.8658e-21)
(6.00784 -0.284212 -8.801e-22)
(1.22365 -8.23781 0)
(7.32942 -0.128428 -9.81204e-22)
(4.10157 0.00416419 1.31293e-20)
(8.9374 -1.96356 0)
(5.50201 -0.41657 4.67867e-21)
(10.3148 0.00121377 1.22621e-20)
(6.51175 0.0236747 0)
(8.81306 3.09317 1.87199e-20)
(7.97501 -5.25498 -9.40332e-21)
(7.63482 0.106042 0)
(3.56175 -2.39182 1.00098e-20)
(5.67944 -0.0490696 0)
(6.59569 -2.91497 6.08722e-22)
(5.18192 -6.33652 1.62431e-20)
(6.7305 2.423 -2.5018e-22)
(6.84707 0.465915 2.4772e-21)
(4.74188 -0.20399 2.44366e-21)
(6.18782 -1.14273 -2.72473e-21)
(8.8222 -2.87185 -2.6831e-21)
(6.59649 -2.82065 8.38577e-23)
(7.24474 -0.255828 5.06181e-22)
(6.48425 1.63366 -3.75231e-21)
(8.2253 -3.4412 0)
(6.00198 -0.0118581 -4.10102e-21)
(0.927758 -3.04547 -2.25465e-21)
(4.95931 -0.921483 0)
(5.10478 -0.60918 -5.53297e-23)
(4.74812 0.0464309 0)
(4.73514 -1.65367 8.69921e-21)
(7.97896 -2.49837 0)
(4.99793 0.0271967 -1.2546e-22)
(7.09973 -0.00240155 -1.40845e-21)
(7.15839 4.39053 3.63658e-20)
(8.7922 -5.02178 3.05104e-20)
(6.99394 0.108441 -2.1172e-23)
(7.32522 -3.38756 -4.36907e-21)
(6.49574 -1.79924 1.91356e-21)
(5.41859 -1.49001 0)
(2.80786 -1.75483 -6.65133e-21)
(9.13875 -1.67053 1.03916e-21)
(2.95796 -1.74529 -7.67371e-21)
(4.57975 0.775802 -2.97459e-23)
(5.40584 -2.14577 0)
(6.54273 -0.0116531 -4.31914e-23)
(4.25725 -3.00952 0)
(9.24111 -5.44136 1.76779e-21)
(6.64007 5.78537 -8.03197e-21)
(11.7188 5.36514 0)
(7.55883 -1.46376 -9.94202e-23)
(-5.88998 6.20524 0)
(6.41766 2.14092 0)
(6.2985 -2.91468 -8.26498e-22)
(4.90697 -0.0445521 3.88474e-21)
(5.4274 -6.98013 0)
(5.67787 -0.138128 -2.42203e-21)
(1.78958 4.61755 9.36021e-21)
(4.15115 -4.93173 2.75214e-20)
(6.4272 2.73707 0)
(6.30715 -0.0405088 0)
(2.98821 -2.71144 -1.03113e-20)
(6.26298 -0.562633 0)
(7.26482 -0.231912 0)
(-1.4371 -1.56474 7.2455e-23)
(7.27263 -0.968041 -1.09095e-21)
(6.30072 -1.5363 1.95462e-21)
(11.7087 0.78673 9.06132e-22)
(2.7387 -1.62445 1.44708e-20)
(5.97879 -0.011882 2.10809e-21)
(5.54606 -1.53261 0)
(6.00695 0.805273 -1.48004e-21)
(5.16408 -1.19968 0)
(6.82149 -0.0753396 0)
(5.97293 0.102119 0)
(6.25952 0.331418 -4.9394e-22)
(6.15326 -0.441496 2.74506e-21)
(8.36005 0.0907337 2.95515e-23)
(5.67539 -1.53892 0)
(5.01002 -1.67961 -8.23962e-21)
(5.34774 1.78053 3.44532e-21)
(6.93066 -2.28363 4.40063e-23)
(8.45906 -0.91391 -2.0317e-21)
(9.73104 0.0802997 5.78585e-21)
(6.24593 0.0409407 -2.99046e-21)
(-0.0616084 -2.30514 0)
(6.22835 -0.203683 0)
(4.35927 0.892676 0)
(4.81079 -2.19304 -5.94663e-21)
(-1.89346 9.98611 -3.27529e-20)
(11.1494 5.38593 0)
(6.03652 0.823355 0)
(5.36923 0.0965506 4.54701e-21)
(6.28863 -0.0194758 -5.84417e-22)
(5.46362 0.840724 5.91626e-21)
(9.4496 -3.51674 0)
(4.46483 -1.11123 -3.11508e-21)
(6.58262 0.150937 2.51463e-21)
(5.21391 -1.75517 -5.39452e-21)
(6.30016 0.165947 -3.30266e-21)
(6.1131 1.17441 5.24377e-21)
(-4.84092 -1.41292 4.53465e-21)
(4.75257 -2.16742 1.03262e-20)
(5.95062 5.9988 2.30337e-20)
(8.31277 -0.203716 -2.66395e-23)
(6.01039 -0.00500871 -9.65456e-22)
(6.33452 -2.99204 8.20815e-22)
(8.07143 -4.72142 4.4511e-21)
(4.02486 3.0888 -4.01787e-21)
(6.63257 -3.05128 -4.40488e-22)
(6.51564 -0.634212 0)
(4.14521 -2.53477 -3.54949e-22)
(6.36755 -0.0377066 -6.36853e-21)
(6.75489 1.91295 -6.13178e-22)
(5.11706 -1.66649 -5.07169e-21)
(6.8508 -2.20133 -9.53848e-22)
(6.42327 0.0416351 4.32064e-21)
(8.39287 -0.0979525 -2.48305e-21)
(2.39398 -0.743948 -4.16385e-21)
(8.60897 1.93765 -8.65306e-22)
(4.48554 -1.2245 -1.2608e-20)
(6.49449 -0.0435192 -5.65021e-21)
(4.48069 -1.39366 0)
(4.55726 3.99801 -8.51407e-20)
(6.76199 0.0245462 6.61599e-21)
(4.34915 0.0445467 9.03648e-24)
(-1.7836 -1.54718 0)
(7.53782 -3.25663 0)
(5.80709 0.595662 5.47797e-21)
(4.17585 -1.24956 7.98446e-21)
(-8.17288 1.42195 -1.93172e-20)
(8.17959 -2.09911 1.82539e-21)
(7.85774 -0.333268 -1.58953e-21)
(6.73855 2.21385 0)
(5.78232 0.655914 3.16987e-21)
(1.70019 7.47478 -6.23554e-22)
(6.10895 1.97869 -3.58049e-21)
(6.78807 -0.787914 -2.5454e-21)
(2.99575 -2.08897 -2.34911e-20)
(9.99988 0.377763 -5.78289e-21)
(9.87264 -0.338237 1.9987e-21)
(5.65309 2.09569 0)
(10.0919 -1.31051 -2.69683e-21)
(6.02601 -0.27637 7.71651e-22)
(4.99093 0.165422 -2.01778e-23)
(3.91706 -1.94393 1.01092e-20)
(6.73313 -0.830926 3.87057e-21)
(5.04311 -0.902355 -3.17429e-22)
(4.16409 -5.05462 -1.66365e-20)
(8.91761 -0.057967 -2.15182e-21)
(6.40497 0.0635008 5.07449e-21)
(0.259909 -0.196494 -1.21511e-21)
(5.9902 1.86904 7.21564e-21)
(4.06701 -2.55244 -1.08762e-20)
(4.7869 -2.30709 -2.7148e-21)
(5.07723 0.186616 0)
(5.90354 -0.653891 -1.88714e-22)
(-0.100435 -4.69213 -6.51825e-21)
(4.8907 -1.116 1.10189e-20)
(7.83177 1.08624 0)
(4.65144 2.52796 1.73087e-21)
(4.62476 -1.98415 2.45125e-21)
(5.99593 0.00949311 -9.084e-21)
(4.49109 -3.5252 -1.5068e-20)
(6.05865 -7.42468 -5.47141e-21)
(7.1599 -0.10317 1.03172e-21)
(6.43719 0.177989 6.42219e-21)
(6.70004 -2.95656 -2.99765e-22)
(8.40226 -0.0710936 -4.02512e-23)
(-3.45773 9.00736 -7.85518e-20)
(6.37631 -0.0348088 5.97532e-21)
(6.70723 -0.167255 -1.58149e-21)
(6.17696 0.185975 -3.21227e-23)
(7.57606 0.0793354 -3.00173e-21)
(4.53206 -2.04081 -4.73351e-21)
(8.29896 -0.0711909 0)
(2.3586 -5.34641 3.98353e-20)
(6.40849 0.0435712 5.77736e-22)
(7.18915 5.53625 7.89962e-21)
(7.12134 0.17344 2.30427e-21)
(7.7413 -0.616158 5.13211e-22)
(6.00348 0.0271146 -8.03625e-21)
(6.00302 0.466117 1.85396e-21)
(4.65886 -2.92072 -1.42424e-20)
(7.43938 -0.211721 0)
(5.7063 -1.30176 1.06622e-22)
(6.24769 -0.623728 2.85192e-21)
(5.42875 -2.10682 0)
(6.16514 0.128935 4.16282e-21)
(6.43574 -0.697684 3.50503e-21)
(7.35921 -0.1896 2.5372e-25)
(10.9452 -2.77839 9.90234e-21)
(7.70174 -1.51249 0)
(5.45442 0.234939 7.86864e-21)
(5.10032 -0.854139 3.14642e-22)
(6.39672 -2.92566 2.02233e-22)
(6.74713 -0.516399 0)
(4.9069 -0.0843294 -1.11548e-20)
(0.970772 4.31219 9.68186e-22)
(5.89193 2.75639 3.15825e-21)
(4.5221 -1.26649 1.22853e-20)
(7.79903 0.138568 -1.82606e-22)
(8.10974 -4.81831 2.21214e-20)
(6.40845 -0.471124 -3.81591e-21)
(9.99313 0.0331475 -5.81723e-21)
(5.69587 -0.179533 -4.95281e-21)
(7.22988 0.20691 0)
(6.01336 -0.015277 -3.61466e-21)
(2.04949 -0.376494 8.93754e-20)
(-2.0817 0.0130717 0)
(6.28911 -0.197887 0)
(4.99298 0.162654 0)
(4.58672 -2.662 0)
(5.93118 0.395897 0)
(4.35424 -1.22259 0)
(13.0495 -1.56351 6.97765e-22)
(2.26586 5.59089 -1.05463e-20)
(6.87375 1.14511 0)
(5.41869 0.170579 1.16809e-20)
(-1.4597 0.859524 -5.34705e-21)
(6.03706 0.268996 5.31336e-23)
(-1.11864 -3.47738 -2.45029e-21)
(4.28689 -0.728995 3.70353e-23)
(4.55203 -3.2424 1.28831e-20)
(5.61622 0.0606639 -1.31219e-21)
(8.16478 0.506463 3.14479e-23)
(5.91567 0.347907 -3.6891e-21)
(5.75274 -0.0661752 -7.13276e-21)
(5.29862 1.55664 -6.07706e-21)
(7.23745 2.13045 0)
(10.4378 0.162802 1.01154e-20)
(4.78407 -1.69528 -9.51538e-21)
(6.02827 0.0189832 -1.07759e-20)
(9.21548 -1.49592 1.11527e-20)
(7.30927 -0.0153519 5.60297e-22)
(11.7298 -0.389429 -1.57558e-20)
(7.30055 -0.538585 -1.13223e-22)
(7.57889 -1.4385 4.04442e-22)
(5.96944 0.173392 3.82558e-21)
(6.13387 3.92953 0)
(8.48091 -2.67177 -2.20274e-21)
(5.59085 -0.416805 -1.4728e-21)
(8.73469 2.0906 0)
(6.74902 -1.7856 0)
(7.14171 -3.10363 -8.68563e-23)
(7.43272 -4.73329 2.52618e-20)
(13.0016 -2.02515 -2.05089e-20)
(6.1975 -0.37524 0)
(6.25342 -0.41619 -5.45957e-21)
(5.6288 -0.0510333 -1.36284e-21)
(5.28219 -3.83261 2.60878e-20)
(6.92617 -0.544849 1.55375e-21)
(5.1698 -3.54337 0)
(10.2022 0.12201 1.19385e-20)
(6.82999 -0.641916 0)
(10.165 -1.42026 3.39626e-21)
(5.42373 1.40978 -2.18449e-21)
(6.02986 -0.0121323 1.91278e-24)
(6.1559 1.33099 -9.59367e-21)
(6.41394 2.45436 -2.77882e-22)
(6.30668 -1.77886 4.35822e-21)
(3.5799 4.1743 0)
(-4.4337 9.3183 -2.43869e-20)
(-3.99373 4.6797 0)
(6.97958 1.22942 7.61717e-22)
(6.62381 -4.78118 5.43336e-20)
(7.07321 -0.103641 -1.71204e-22)
(5.82359 -1.39438 -2.06373e-22)
(-3.05505 -6.2302 -2.74406e-20)
(5.82739 -2.68622 -2.33571e-22)
(4.89377 -1.69216 -5.39781e-21)
(5.16153 -0.454196 4.58709e-23)
(-3.31426 8.52675 1.98037e-20)
(4.56542 -2.05884 3.89409e-21)
(5.05649 -1.74296 5.68922e-21)
(-1.56515 9.40443 4.56662e-20)
(-3.78781 7.08445 -6.17462e-21)
(6.74314 -1.93959 1.27682e-21)
(-0.83032 -1.81691 2.48094e-21)
(8.23146 0.137644 1.10234e-22)
(-1.45308 0.433839 5.41304e-21)
(6.31006 0.914546 -2.39605e-21)
(8.54244 -0.905986 0)
(4.38986 -2.55667 -8.03844e-21)
(6.22762 -0.0326291 -6.86361e-21)
(5.9676 0.0834908 0)
(6.96148 1.13966 0)
(-3.93351 12.275 -3.1463e-20)
(11.241 -1.02161 -1.23027e-20)
(6.68952 0.635105 -5.84181e-21)
(7.25094 -0.930815 1.4034e-21)
(5.31 1.52616 5.22031e-21)
(5.04317 -0.0640558 2.81907e-21)
(5.09493 -5.47943 -1.25323e-21)
(5.27089 0.764866 0)
(5.17246 -1.81602 5.26716e-21)
(-2.28583 1.41235 1.53497e-21)
(-1.23509 -7.19954 2.20336e-20)
(6.3307 -2.31842 5.58639e-22)
(8.29032 -3.66969 4.24023e-21)
(5.78606 -0.0297045 1.52995e-21)
(6.29492 -1.42107 3.2096e-22)
(9.84095 -0.118345 5.81692e-21)
(5.91963 -7.16764 -2.97679e-20)
(6.66671 0.608238 4.4077e-21)
(6.04552 -0.18314 2.60947e-21)
(4.44729 -1.37074 -5.03585e-21)
(6.29079 -0.503532 3.25341e-21)
(1.65747 -0.778799 0)
(6.49764 0.935457 5.20415e-21)
(6.05675 -0.116191 5.87866e-22)
(5.37253 -1.4095 -1.74655e-21)
(4.60771 2.86038 -3.53497e-21)
(6.63596 -1.9263 1.218e-21)
(6.34062 -0.0134052 1.04029e-21)
(4.80572 -0.478097 -7.94998e-21)
(9.00372 1.71777 0)
(5.8113 -1.22439 -3.56074e-22)
(6.3171 0.189097 4.46281e-21)
(8.88981 -1.21912 0)
(4.95525 -0.682754 4.39519e-21)
(6.99881 -0.573036 0)
(4.17435 2.69456 1.32708e-20)
(7.95469 -0.0192149 0)
(8.70147 -2.82184 0)
(6.64785 -0.0451892 1.13136e-21)
(6.68767 0.465841 3.38017e-21)
(7.8233 1.92129 3.69165e-22)
(5.87033 -0.0651386 -3.31054e-21)
(4.48968 1.5001 -3.48066e-21)
(6.00015 0.0398104 -1.59773e-21)
(5.97464 0.432679 0)
(-0.729717 1.50522 -3.55849e-23)
(6.97222 0.514058 -2.78038e-21)
(10.0876 -1.73496 -7.40315e-21)
(8.58404 -0.942243 0)
(6.81622 1.95401 -6.78735e-22)
(5.2386 2.93503 -6.06131e-22)
(8.4333 0.188737 1.96571e-22)
(-6.23473 -2.70396 0)
(-1.52553 -1.56044 6.68439e-21)
(6.02497 0.196149 0)
(9.70823 -0.11785 -2.85321e-21)
(-0.017218 -0.542895 0)
(1.78028 1.75668 0)
(4.58867 6.97425 0)
(7.75764 -2.50122 0)
(-0.757616 1.24118 -1.28686e-21)
(-1.84066 -5.40354 -7.87919e-21)
(6.15028 -0.432057 -4.1194e-21)
(7.35353 3.80351 -4.45808e-20)
(4.80012 -2.1163 0)
(1.51173 4.91014 -3.47094e-20)
(-0.53971 -0.596814 -4.67489e-21)
(5.8775 -2.70781 0)
(5.42207 -2.0013 -5.19151e-21)
(5.36735 -0.690525 -2.84949e-24)
(6.30157 0.862789 6.34084e-21)
(10.3673 -2.45172 -8.42359e-21)
(5.76745 -0.108108 0)
(8.52596 -1.90156 0)
(7.19067 3.49428 -1.22558e-22)
(7.70455 -4.04217 7.51086e-22)
(5.38309 -0.445559 -9.83564e-23)
(-3.72979 11.0817 -9.84391e-22)
(5.99522 0.00109013 2.68732e-22)
(5.74409 -0.740899 1.55797e-22)
(5.97467 0.173232 5.45477e-21)
(5.6037 -1.0903 8.31552e-23)
(6.86432 -1.68569 0)
(5.57597 -2.02803 0)
(8.34203 0.0266418 0)
(4.73834 0.0521593 0)
(6.1209 -1.26337 2.04129e-21)
(8.83218 0.960109 0)
(-1.34754 0.0548868 1.30585e-20)
(-4.87608 0.203813 -2.46879e-22)
(4.98453 -1.78764 -8.63511e-21)
(-1.46135 0.0344998 1.62222e-21)
(0.496829 -4.81089 -2.05941e-20)
(-2.24388 0.778411 -6.44735e-21)
(6.66591 0.0572023 8.23877e-22)
(4.59318 -7.01318 -2.06785e-20)
(5.52153 -1.01413 2.1807e-23)
(6.74777 -0.0874728 0)
(8.13389 0.325322 0)
(1.23969 -3.50721 0)
(7.76277 -0.698187 -3.90279e-22)
(-4.7046 6.18159 0)
(5.28783 0.756943 0)
(6.00436 0.00490698 0)
(6.33251 -1.51844 1.86339e-21)
(6.07068 0.246149 -6.11811e-21)
(4.83833 0.12144 0)
(12.6638 -0.895208 -1.15216e-20)
(5.91416 0.130087 -4.56428e-21)
(6.13395 1.86695 7.44907e-21)
(5.92433 -2.66964 2.18889e-21)
(5.41125 0.934105 6.25385e-23)
(8.92259 -6.27288 -1.21288e-21)
(6.49568 -1.99993 1.11444e-21)
(9.86251 -3.30213 -7.31257e-21)
(6.61668 0.503034 -4.58609e-21)
(5.33783 -0.416783 -2.07618e-22)
(5.84313 -0.271358 -4.54412e-21)
(6.31778 -0.0277926 0)
(7.31505 5.08749 -5.91986e-21)
(6.00279 -0.111154 4.93814e-21)
(0.247287 6.30716 4.60946e-21)
(7.26519 -0.546678 -4.34069e-22)
(4.24389 -1.29305 -8.68576e-21)
(6.65891 0.419845 7.78629e-22)
(7.05866 2.30145 -7.87618e-22)
(5.99662 0.0597297 0)
(3.2544 -2.17681 -1.36585e-21)
(6.24355 -0.645305 -2.60898e-22)
(9.76892 -3.32154 1.30947e-20)
(10.8782 -1.71647 -6.06752e-20)
(6.31559 -0.0547155 2.20235e-21)
(8.47315 -0.146027 1.09695e-23)
(7.83408 0.140389 1.26355e-22)
(8.39154 0.15067 0)
(0.816967 1.95006 0)
(5.532 -2.60231 3.25937e-21)
(5.12116 -3.77318 1.62747e-20)
(5.08153 0.102221 -2.00022e-24)
(6.02556 -0.113695 9.72967e-21)
(3.42109 -2.31939 4.20472e-21)
(4.89228 -0.160914 0)
(5.76416 -0.288139 0)
(5.76157 -1.45445 -1.1842e-22)
(6.52113 -0.0520485 1.69827e-21)
(5.47134 0.902253 8.55032e-21)
(6.41225 0.68383 0)
(7.08828 -0.0835145 0)
(7.79564 -1.60743 -2.55042e-21)
(6.65519 -0.503631 2.48897e-21)
(-0.0498705 1.40417 -1.19115e-20)
(8.09702 -0.609404 0)
(0.900608 1.12901 -1.5229e-22)
(11.4596 1.02965 -1.67608e-21)
(-0.164674 -4.80663 -8.0593e-21)
(6.42804 -0.194193 -4.34103e-21)
(3.68866 6.34323 0)
(12.5156 -0.502934 9.49372e-21)
(-6.25104 -1.78522 -1.48634e-20)
(-0.22732 1.58556 0)
(4.91981 -0.0031713 -2.58239e-22)
(5.91701 -0.141466 -3.29993e-21)
(5.14288 0.0486942 -1.35747e-25)
(5.81958 1.79014 8.18615e-22)
(5.05451 4.76315 1.53949e-21)
(6.45285 0.0489902 0)
(4.25902 -1.74581 -9.6125e-23)
(2.80725 -2.00096 -3.94195e-21)
(-4.30388 0.543249 -1.51765e-20)
(5.92142 0.367955 4.36848e-21)
(4.75681 6.46992 2.82613e-20)
(6.30818 0.00648219 -1.01523e-20)
(5.2353 -1.07108 1.68566e-22)
(6.11355 -1.74831 6.06948e-22)
(6.21862 -1.43749 0)
(6.07895 -0.0362897 -2.25724e-21)
(4.51446 -2.11034 3.13085e-21)
(7.03308 0.0117563 -2.83339e-21)
(6.04256 -0.0925572 -4.38135e-21)
(9.68741 -0.185677 2.6373e-21)
(5.77395 -0.903902 8.96774e-21)
(7.96512 0.113991 -1.45667e-22)
(5.73632 -0.251952 2.71271e-21)
(5.10059 -0.615536 -1.41974e-22)
(11.6822 0.835018 -9.63987e-21)
(5.9984 2.00766 5.77283e-21)
(-8.66706 0.734576 1.5187e-20)
(6.20084 0.0227035 0)
(3.13871 -4.27872 0)
(11.867 1.43146 0)
(4.95579 -1.69849 6.76079e-21)
(6.15715 0.0320267 -6.98321e-21)
(5.60481 -0.0473614 0)
(5.49208 -1.42499 -4.96869e-21)
(5.59937 -0.100829 0)
(6.12679 -1.15413 -3.37815e-21)
(10.3953 -1.63137 -9.38199e-21)
(6.75499 -1.58396 -1.55247e-21)
(6.54019 0.0463218 0)
(6.07515 -0.200186 0)
(8.58938 -1.09763 2.13164e-21)
(6.90746 1.01734 -1.42814e-22)
(8.52464 0.349549 1.08602e-21)
(5.39864 3.15631 -3.00286e-22)
(6.21786 1.2522 0)
(6.36767 -2.26155 -8.7318e-22)
(-1.53941 0.382089 0)
(3.10324 0.809781 -5.54159e-21)
(6.41902 2.43246 0)
(8.33779 -0.0771853 1.77644e-23)
(4.49098 -1.16892 3.28833e-21)
(5.35913 -0.964701 3.06909e-21)
(7.22551 -0.595195 -1.60091e-21)
(-4.82853 1.00777 -1.45654e-20)
(6.61296 -0.623183 6.21723e-21)
(5.92589 0.407353 -5.55651e-23)
(11.4426 -0.118865 1.93197e-20)
(7.03347 -1.2278 -6.07224e-22)
(-0.79926 1.08494 4.1336e-21)
(6.74589 1.37665 0)
(6.05536 -0.0550077 -7.71938e-24)
(5.59285 -1.58628 0)
(6.17439 -1.5535 -7.1011e-22)
(6.45601 -2.23234 -3.92764e-22)
(5.80755 -0.838315 -2.90575e-21)