/*--------------------------------*- C++ -*----------------------------------*\
| =========                 |                                                 |
| \\      /  F ield         | OpenFOAM: The Open Source CFD Toolbox           |
|  \\    /   O peration     | Version:  2306                                  |
|   \\  /    A nd           | Website:  www.openfoam.com                      |
|    \\/     M anipulation  |                                                 |
\*---------------------------------------------------------------------------*/
FoamFile
{
    version     2.0;
    format      ascii;
    arch        "LSB;label=32;scalar=64";
    class       surfaceScalarField;
    location    "4.6";
    object      phi;
}
// * * * * * * * * * * * * * * * * * * * * * * * * * * * * * * * * * * * * * //

dimensions      [0 3 -1 0 0 0 0];

oriented        oriented;

internalField   nonuniform List<scalar> 
20045
(
1.13503
-1.29684
0.161813
-2.25908
0.94405
1.31503
0.793502
3.65389
-4.44739
1.08761
-1.5953
0.507684
-2.11618
1.70223
0.413948
-1.13546
4.22007
-3.08461
-1.7597
0.0811785
1.67852
0.0769636
1.09661
-1.17357
1.13283
0.869829
-2.00266
-1.38367
-0.37257
1.75624
-0.206905
-0.763849
0.970753
4.24714
-1.86503
-2.38211
0.888882
-0.885783
-0.00309818
-2.33144
1.92713
0.404317
-0.1456
1.78016
-1.63456
-2.02837
0.644699
0.0372093
-0.000956429
-0.0362529
1.47701
-1.38757
-0.0894428
-3.25165
4.81897
-1.56732
-1.57551
-0.0276656
1.60317
0.224819
0.419907
-0.644726
0.311346
0.577536
-0.447861
-1.81122
1.82649
1.56631
-3.3928
1.67404
0.234085
-1.90813
-1.73161
3.5581
-0.099282
0.0955394
0.00374261
-2.41489
4.72478
-2.30988
3.88659
-0.152053
-3.73454
-4.91529
2.75593
2.15936
1.90163
0.458068
-2.3597
2.2569
-1.93509
-0.321804
-1.26908
3.0439
-1.77482
5.03902
-2.80618
-2.23284
-1.37394
1.45091
3.55415
-1.65126
-1.90289
3.98595
-0.0426364
-3.94331
-0.149918
0.936734
-0.786816
-2.83777
-0.158971
2.99674
1.24687
1.16981
-2.41667
-0.227604
1.41845
-1.19085
0.432896
-0.592087
0.159192
5.12555
-5.1324
0.00685636
2.82213
-0.930221
-1.89191
1.20843
1.6137
1.71627
2.53087
-0.393409
0.694261
-0.300852
1.91508
1.75829
-3.67337
5.3101
-1.32416
0.414395
3.54179
-3.95619
2.64992
-4.39187
1.74195
3.83913
-3.61508
-0.22405
-2.23564
-1.03103
3.26666
-0.228686
-0.706142
0.934828
1.82057
-1.29866
-0.521909
-1.48618
-0.630003
0.0718719
1.82185
-1.89372
3.9159
-0.738229
-3.17767
2.20585
-3.47492
0.137041
2.36741
-2.50445
-0.585602
-0.499
1.0846
2.86237
-2.72533
0.39156
-3.09839
2.70683
-0.59896
0.823779
1.04384
1.46241
-2.50625
2.95498
-0.971721
-1.98326
-0.379514
1.27561
-0.896099
-1.41599
0.172186
1.2438
1.92526
-0.792433
5.8765
-5.25101
-0.625489
-1.24769
0.868181
0.443742
1.37683
-0.540751
-2.17523
2.71598
0.0401957
-0.14694
0.106744
-0.0129122
-0.376015
0.388927
1.86331
-1.79143
-0.254896
0.241983
1.32617
-1.47177
0.0154612
-0.605702
0.590241
-0.524767
-1.77698
2.30175
2.00076
2.20546
-4.20622
1.77188
-1.5589
-0.21298
2.38207
-1.99051
-5.47882
1.23648
4.24235
-0.0141996
1.14923
-0.742276
1.07208
-0.329808
-1.4282
-0.466021
1.89422
-3.1734
0.0783013
3.0951
1.95871
0.502281
-2.46099
-1.64918
1.33547
0.313705
-2.21424
-0.111863
2.32611
1.80844
-0.4809
-1.32754
0.922111
-1.36939
0.447279
-0.491735
-1.60499
2.09672
1.35263
-1.48371
0.13108
2.5361
1.40186
-3.93796
-0.0754303
-0.0238517
-0.535342
-0.0867429
0.622085
2.60796
-1.36109
0.032044
0.0113982
-0.0434422
2.4576
1.09655
-0.902658
-1.42878
-0.442054
-0.0932877
0.378804
3.5371
0.162649
-0.904925
-0.0727407
0.104785
0.79297
2.50572
-3.29869
2.66515
-2.34564
-0.319513
-0.377948
-1.18948
1.00258
0.186903
-0.697745
0.876319
-0.178574
1.86628
-1.87986
0.0135729
-1.1727
0.944013
2.66457
-3.52488
0.860309
-0.541043
0.815303
-0.27426
0.122514
-0.839246
0.716732
2.139
-0.464954
3.62761
1.41141
-2.47321
1.93246
2.72743
-8.68008
5.95265
1.59444
-0.117435
-1.19926
0.61366
-1.81953
1.44512
0.374412
-0.172615
0.278849
-1.40411
1.12526
3.62708
0.212045
2.12558
-3.00215
0.876566
3.11077
0.352905
-3.46368
-4.49928
3.43138
1.0679
-1.93014
-1.44669
3.37683
4.30107
-0.67399
0.312711
0.38155
-0.185022
0.159009
0.0260128
-0.0518024
0.0219791
0.0298233
2.30755
1.57751
-3.88506
2.44081
-2.18283
-0.257976
-0.536442
0.0679946
0.468447
-0.85918
-0.330305
9.46735
-6.73992
-1.57246
1.5803
-0.00784264
2.27413
-4.27602
2.00189
0.116775
-2.35241
1.79116
0.844145
-2.63531
2.11075
-2.63552
4.33831
-0.712035
-3.62627
2.1144
-3.85644
1.74204
8.43161
-4.45463
-3.97697
-0.628524
0.7319
-0.103376
-0.189948
4.12433
-3.93438
3.96032
-0.0737245
-3.27768
0.0822247
3.19546
-2.17147
1.42811
0.743364
3.63962
-1.63886
0.475647
1.29623
-2.47767
2.95133
-0.473666
-3.16283
3.95633
0.00263042
-1.08394
1.08131
-0.891492
-1.00655
1.89804
-0.106953
-0.869575
0.976529
4.07621
-2.44102
-1.63519
5.33041
-2.5793
-2.75111
-1.0588
0.951842
1.29575
-1.72719
0.43144
0.534004
-0.101108
-3.23627
-1.7362
2.44291
-0.706701
-2.43979
1.84976
0.590032
-0.0422853
-0.236514
0.278799
3.92823
4.50338
-0.0671368
0.0153343
-0.235086
0.0500646
-2.68517
0.207498
-2.98195
3.70017
-0.718218
-2.74192
2.87112
-0.129196
-2.5786
-1.61443
4.19303
-0.989301
1.78058
-0.791278
1.5035
-1.67297
0.169471
3.65567
0.038125
-3.6938
-0.0542071
-2.97935
3.03356
-1.28074
3.0719
0.771711
-2.3541
1.58239
-0.985164
3.64973
-2.97615
2.15037
0.825784
0.154912
-0.167317
0.012405
1.88001
-5.53808
3.65807
-3.82538
1.41049
-2.74728
-0.87801
4.46654
-2.7166
-1.74994
-1.74178
1.51418
0.823482
-0.882121
0.0586388
-2.74654
-3.61313
6.35967
-3.17176
4.56849
-1.39673
3.33461
-2.03195
-1.30266
0.0225422
-0.883243
0.8607
-0.58748
-1.89057
2.47805
0.713155
-0.920059
-2.7717
0.841557
-2.81086
-0.880374
3.69124
0.574324
0.1378
-0.712125
0.433487
-2.16969
-0.461211
2.36284
3.31871
-0.207934
-0.785499
0.635582
-0.970302
1.21373
-0.243427
1.84249
2.23372
-2.68386
2.09638
0.343339
-0.372846
0.0295065
-2.94632
0.619683
2.32664
1.64554
1.68907
5.66873
-3.78872
3.00004
-4.99985
1.99981
1.82126
-3.93103
2.10977
0.245826
-1.82133
-2.04703
2.84
2.48266
-3.61812
2.24712
-3.73039
1.48327
-5.28767
2.9385
2.34917
-0.282849
-1.36633
0.815023
0.674687
-1.48971
2.56421
-0.885831
-1.67837
0.0486075
-2.85673
2.66678
-1.14895
-0.423512
2.51954
3.72584
-2.18255
-1.5433
-0.0474515
-0.65037
0.697821
2.49046
0.448273
-2.93873
-1.39259
-0.894645
2.28724
-1.37964
3.24941
-1.86977
-1.8056
0.377401
2.43122
-1.65951
-0.13866
1.96052
-1.82186
3.61227
-1.33815
0.56453
-0.0518065
-0.512723
-0.655231
-0.284567
0.939798
-0.660439
0.690094
-0.0296552
4.38646
-2.76135
-1.62511
1.00941
-4.18117
-0.73485
0.0744109
-3.19415
0.9443
2.24985
4.71442
-1.67052
0.91274
-3.89469
4.76434
-2.55462
-2.20973
-0.0867546
0.661079
1.99495
0.645039
-2.63999
-2.46133
0.437012
2.02431
-3.72876
3.72631
0.00245321
1.65913
-3.81756
2.15843
-0.0414577
-0.0264144
0.0678721
-1.89006
2.36539
-0.475335
-0.859935
0.957045
-0.0971105
-0.75032
0.209276
-0.852717
0.154972
-2.35947
0.0138282
0.963885
-3.14011
2.17622
-0.0856006
0.988528
-0.902927
1.5805
0.676401
3.57468
-1.32755
-1.80163
0.910138
2.5092
2.20522
-2.11553
0.235082
1.88045
-1.10805
3.103
1.65941
0.120752
-1.04903
0.963426
-1.30529
-0.275115
1.58041
-0.0122317
0.167144
-3.21936
1.83972
2.45847
-2.28166
-0.176813
-3.65494
3.52575
0.129193
-3.1793
3.14177
0.037533
-0.540574
-0.60908
1.14965
2.99752
-3.37138
0.37386
-3.1255
-2.16217
4.86752
-2.67224
-2.19528
-0.520513
0.473062
4.16498
-2.50584
-1.93219
2.89607
-1.92961
-0.0240639
1.95367
1.82988
0.299853
-2.12973
9.01147
-4.01367
-4.9978
-2.23591
0.306304
3.45504
-2.11786
-1.33718
-0.787352
3.2499
-2.46255
2.20216
-3.65163
1.44947
0.756218
0.486145
-1.24236
0.245141
-0.0426207
-0.20252
4.74691
-4.0013
-0.74561
-2.50072
-1.99856
1.71806
2.00778
-3.32689
-0.328053
0.195394
-0.850625
-2.59284
-0.918829
3.51167
0.0108206
0.812662
-2.13781
4.44536
1.75244
2.63402
4.84574
-2.9591
-1.88664
-3.882
3.00163
2.31091
-4.6249
2.314
-2.49643
-0.271991
2.76842
-1.56562
-0.37311
1.93872
1.66991
-0.37416
0.0211292
0.32221
4.55684
-0.444833
-1.49026
-5.68773
9.39228
-3.70455
-1.21245
0.242152
-1.65519
1.51653
0.432872
-4.16164
-0.570718
-1.23488
2.56357
-0.970148
1.19982
-0.229676
-0.224185
1.3118
-1.80931
1.23677
0.572542
1.48495
0.381339
0.00981692
0.0562852
-0.0661021
1.84141
0.599401
-3.52117
0.928329
2.32241
-0.363704
-0.919812
-2.02651
4.03712
-3.46508
-0.572033
2.91234
-1.88135
-2.16316
4.04452
3.13773
-3.50794
0.370204
-1.91723
1.4255
-0.563027
0.0265853
-0.540103
-1.67414
1.44478
-2.2908
0.846021
1.66257
1.79246
2.71967
-4.94621
2.22654
1.26125
-2.28796
1.02671
-3.89203
0.718633
0.187195
1.62125
-1.72993
2.28578
-0.555858
-0.861778
1.30512
-0.443344
-2.10309
0.343398
-0.52415
-1.09132
1.61547
0.517508
0.0057931
-0.523301
-1.0858
-1.08567
1.35846
1.83745
-3.19591
1.7036
-2.81165
0.817755
-1.82696
-0.0902775
2.07978
-0.818526
-2.57546
-0.400695
0.682198
-0.842146
0.159948
3.72211
-1.80703
-2.06327
3.06649
-1.00322
-0.594761
0.698787
-0.104026
2.51306
0.0511431
2.55469
-3.47352
-2.07569
3.6193
-1.5436
2.09047
-4.68925
2.59878
2.70986
2.15766
0.0822142
-0.0638293
-0.0183849
0.464831
-2.96126
2.50862
-3.87697
1.36835
0.180981
-0.140785
-0.485853
2.61144
-1.13802
0.567306
-2.05345
3.87471
0.779345
-4.03099
-2.42096
1.32336
1.0976
2.69612
-0.569047
-2.12708
3.78967
-0.79215
-1.97679
-1.98156
-1.56892
2.08439
-0.573251
0.235742
0.33751
1.3499
-1.37757
-3.06065
2.5748
4.09311
1.03244
-3.18312
1.11985
4.33069
-2.61262
-0.067702
0.926103
-0.858401
0.0175243
-2.29256
2.27503
-3.58533
0.634346
2.95099
3.38411
-3.38411
1.87243
1.47898
-3.35141
0.543164
-0.533347
2.18465
-1.22047
-0.964177
-3.77097
3.93164
-0.160667
1.54573
-0.0766765
-1.46905
1.21577
-0.408692
-0.807081
0.560314
-1.10089
-0.26054
1.22605
-3.15824
-3.18948
3.7653
-0.575818
-1.21057
2.56902
0.145563
-0.00574973
-0.139813
2.17622
-1.40899
-0.767227
-1.57082
1.81664
4.71845
-3.73441
-0.984046
-0.417824
-1.98229
2.40011
-1.10371
1.18344
-0.079734
0.711449
-1.18972
0.478276
-8.01138
7.23945
0.771922
-0.998376
-0.596921
-0.53936
0.471658
0.0603473
-0.120027
0.0596795
2.31639
2.43051
0.097655
0.0479081
-0.356807
-0.881241
1.23805
-2.09679
3.2887
-1.19191
0.299996
0.696634
-0.99663
1.50018
-1.419
5.46958
-4.30124
-1.16834
0.201032
-1.80602
0.593004
3.06267
1.8636
1.05857
-2.92216
2.00337
-1.59474
-0.40863
-4.04286
0.765173
-1.34893
0.637224
0.711705
1.70048
2.45462
-4.1551
-2.60882
2.33682
0.284789
-3.65854
3.37375
-0.600732
0.623275
0.142024
-0.155499
0.0134752
0.261113
-1.56641
0.547273
-0.405377
-0.141896
-2.55589
-0.638258
2.45151
1.43133
-0.813329
-0.618004
-0.646885
0.0521239
0.529828
-2.73065
2.20082
0.919316
2.00062
-2.91994
1.50744
-2.76671
3.31383
-0.54712
-2.95204
2.16469
0.0563135
0.0392259
-1.50782
-0.931971
-1.21875
0.290015
0.928736
-3.53915
1.44236
2.55408
-2.9719
2.93272
1.39797
-1.56028
1.38152
0.178755
1.17265
-3.84238
2.66973
0.794579
-1.23891
0.444333
3.61261
-1.05792
-2.44458
-0.297344
-1.45253
0.0365384
0.0458345
0.242926
-0.288761
1.59295
0.0661068
-0.0897995
0.0236926
3.95529
-2.25481
-2.02335
-0.522006
2.54535
1.1516
0.811685
-1.96329
-1.33882
0.738092
-1.05868
-0.160074
1.40692
0.777728
-4.71061
-3.96947
0.899024
-0.216826
2.36728
1.7857
0.536716
-3.50601
3.92041
0.33612
-1.53907
1.20295
-0.372951
-3.29343
3.66638
0.0920736
-0.212222
0.120148
-1.55242
0.563121
-1.42203
3.62419
4.05284
-1.93844
-1.43052
-0.378787
-0.0193265
-1.77255
1.79188
1.6023
-4.18091
-0.342587
-1.79619
2.13878
0.869639
-1.05807
0.188426
-2.5369
0.0532108
2.48369
3.86485
-2.10656
-0.00899597
0.453779
-0.444783
-1.00581
-0.0978988
0.736452
1.5449
-2.28135
0.724943
-0.862625
0.137683
2.06066
1.10062
-3.16128
-2.05891
4.595
0.502566
0.0149419
-0.973585
-2.34268
3.31626
6.86446
2.60289
3.53318
-2.61387
-1.59052
1.06637
0.164186
0.0809549
-2.32542
4.63633
0.446313
-3.01539
2.56908
4.55805
-0.23059
-4.32746
-1.65435
2.53484
-0.880489
1.55551
-1.63003
-1.47496
3.10499
0.0143111
-0.0834399
0.0691288
-1.09066
-1.96839
3.05906
0.942167
1.23405
0.262942
-0.305227
2.05275
-3.14342
-2.75504
-0.916432
3.67147
-0.153213
-2.04529
2.1985
0.731553
5.11788
-5.09562
-0.0222608
0.886861
-0.409619
-0.477242
-0.17459
-1.38569
1.02292
1.0738
-1.43208
-0.133532
-3.14514
3.9721
-0.826967
0.609539
1.84893
0.0324391
2.07831
-3.91998
-1.21242
-0.0499903
0.231046
-0.181055
2.13091
-0.345214
-0.988859
1.07505
-0.0861866
0.355097
-1.21503
-4.1848
1.43752
3.50121
0.718859
-0.36941
1.08086
-0.900217
2.05182
2.98519
-1.75913
-1.0014
0.0125448
-0.570477
-2.49017
0.78856
1.15144
-1.14881
-3.68418
0.098849
0.312187
0.964577
-0.169998
-3.84949
-1.34758
5.19707
3.92051
1.95599
0.927594
-0.327069
-0.600525
1.41774
-1.21799
-0.199751
-2.61627
0.965008
-4.06117
1.98548
2.1896
-2.33327
0.143671
-0.265874
-0.242043
0.507917
4.01863
0.00514956
-4.02377
0.975041
0.0914196
-1.06646
-0.647338
-1.17219
1.05065
-0.128543
0.0716123
-0.0545964
-0.017016
1.79503
-0.0372373
-1.75779
0.0143075
0.0573049
3.63037
-2.22851
-0.138844
-0.668653
0.807497
-4.05838
0.913241
-0.025293
-0.853765
0.411711
0.705325
0.726007
-0.454231
-1.3474
0.985867
0.849716
-1.83558
2.2295
-1.18565
1.48028
-1.14416
1.04707
-0.924558
0.45094
-1.31272
1.83291
1.38753
-3.22044
2.27193
-0.305996
-1.96593
-2.36735
-1.48908
-0.455655
-0.602067
1.05772
1.29424
-1.44893
0.154683
4.34702
-0.105252
-4.24177
-0.897985
0.0596344
0.838351
-2.0712
2.79708
-0.725882
2.09978
2.96254
-5.06232
0.679956
-1.17896
-1.28373
1.87927
-0.595542
0.954114
0.442397
-1.39651
-4.10815
2.39263
1.71552
-0.041829
-0.0127674
-3.39382
0.638782
1.39555
-0.833795
-0.561753
1.73793
-2.31967
0.581741
-0.448074
-0.848764
0.9205
4.19739
3.30676
-0.63248
-2.67428
-3.22868
0.461965
1.35753
-2.27734
2.33374
-4.53718
2.20344
-0.471206
1.28623
0.00678395
-1.41278
1.05597
-0.71349
0.992339
-0.552528
-3.15179
3.70431
2.05311
2.11187
-2.92997
3.13328
-0.203307
-0.177008
0.222842
-1.91505
-0.77851
-0.562834
0.625747
-0.0629122
-0.809407
0.787311
0.022096
-0.836597
1.94805
-1.11145
-0.38274
2.12067
-2.18014
0.12482
2.05532
-3.20269
-0.947859
4.15055
1.74481
-1.46497
-0.279838
-1.25044
0.0530028
1.19744
-0.328718
-0.0594783
0.388196
-3.77415
0.18181
3.59234
0.105572
0.881507
-0.987079
3.05406
-3.43312
0.379059
-1.85041
1.5488
1.57816
-3.12696
0.0440035
-0.606838
-0.99166
-2.7891
3.78076
2.64596
-3.63112
-3.78138
3.30689
0.474493
0.874929
-0.149986
2.14416
-2.11172
-0.307238
-0.623269
0.930506
-0.0680587
0.867859
-0.7998
-0.525334
4.07057
-3.54523
2.14627
1.4727
-3.61896
4.04242
-3.8712
-0.171221
2.76599
-1.05617
-1.70982
0.182774
-1.04506
0.862283
-1.3099
-0.0942064
-3.99683
3.49083
0.506
0.187669
-4.1845
-4.03134
3.78249
0.248851
-2.14846
-1.85284
0.941934
-0.761928
-0.180006
-3.1726
-0.88578
-0.884966
0.61476
0.270206
-2.22908
0.836483
-3.8157
3.6343
0.181407
-0.555612
-0.200274
0.0533335
1.07612
-0.10108
-2.25802
0.367961
0.730163
-0.803664
0.0735016
-1.25958
1.76824
-0.50866
1.77215
-0.226417
-0.843176
2.40459
0.108474
1.43517
0.00957945
0.607817
-0.617397
-0.416015
1.91951
-2.6096
1.73164
0.87796
-0.0849226
0.0430936
4.14915
-2.09603
3.20394
-2.03129
-0.683339
-0.668888
1.35223
1.89957
-3.52054
1.62097
2.31838
-2.47159
3.82567
-1.71731
-2.10835
-0.0275574
-2.23115
-0.378445
-3.83274
2.30065
1.53209
0.470447
-1.23328
4.23333
-4.16441
0.991812
1.14231
-0.386088
-0.436199
-0.122731
0.711614
-0.0215196
-1.9242
-1.90312
3.12878
-1.26547
-0.866093
1.02745
-0.161353
0.217629
0.998145
-2.9171
-0.904929
3.82203
0.926673
0.743232
-0.0123772
-0.670016
0.682393
3.28426
-0.24489
-0.115345
0.360235
2.98982
-1.15691
-1.31953
-3.83016
0.640672
-1.03759
0.0699914
0.9676
2.60085
2.16349
-0.849478
0.4098
0.439679
3.87454
0.167884
2.46647
-3.44352
0.977047
-3.21563
-0.011624
3.22726
-3.23481
4.14237
-0.907564
0.644317
-0.0167827
-0.627535
-0.978388
3.62435
-0.980728
-1.36441
2.34514
0.18315
-3.11312
1.73654
-1.09642
-0.640113
-3.66039
4.77026
-1.10987
-0.826481
2.27783
-1.45135
4.64711
-2.05506
-2.59205
0.0964549
-2.35973
2.26328
-0.163941
0.00844188
-2.33501
4.43479
3.53198
-1.65955
4.70431
-2.61385
-0.83857
0.699726
-3.34754
0.13191
5.39679
-2.67712
-0.282733
-5.19609
1.3458
0.072656
0.817897
2.05972
-2.87762
2.19149
-0.632425
-1.55907
2.94889
-2.44949
-0.499399
-0.841281
0.0381747
0.803106
-0.777839
-2.01742
2.79526
1.4984
-1.04746
-1.94905
0.0717182
1.87733
0.468315
0.879526
-1.34784
0.343137
0.598797
-4.21088
4.91993
-0.709053
0.343128
-0.251055
1.86175
0.841581
-2.70333
1.90354
2.10657
-4.01012
0.755642
1.94048
-0.0336837
4.37199
-0.0583287
3.16603
-3.1077
0.815884
-0.515888
0.0950657
0.0764041
-0.17147
3.89944
-3.10606
-0.793378
1.75647
2.0692
-0.0344246
-0.0220772
0.0565018
-1.00515
3.10284
-2.0977
-0.00751578
0.805237
-0.797721
2.54399
-3.80943
1.26545
-1.9534
-2.06113
4.01453
3.09077
-0.600308
1.03943
1.15206
-3.51015
0.973929
2.53622
1.19708
-3.17937
0.238382
-1.0733
0.834916
0.833277
-0.189872
-0.643404
-0.0383225
-0.125619
-0.258348
3.08494
-2.8266
-0.63073
4.17252
2.95813
-2.49443
-0.463695
2.61934
-2.11705
-1.915
0.7451
1.1699
0.368087
-1.58856
-0.237408
-0.560396
0.797803
0.297804
0.62979
0.606807
2.90061
-3.50742
1.16067
0.634365
0.520873
-3.72356
-1.82661
0.0298229
1.79679
-1.48666
-0.857987
2.34465
2.14028
-1.15441
-3.34672
2.13615
1.19682
-0.892415
-0.304407
-1.18191
2.8075
-1.62559
-1.74155
1.94258
-2.0941
1.83228
0.26182
-2.25809
2.49659
-0.238493
-0.0808436
0.989388
-0.908545
0.109841
-0.375715
-1.1864
-3.99824
4.52321
-0.524965
-2.2205
2.84018
1.96858
-2.1473
0.178719
1.11488
1.45611
-2.57099
-5.48114
3.84977
1.63136
-0.0749816
0.151802
-0.0768199
-0.836368
3.05463
-3.57997
3.38735
-1.48778
-0.842529
-1.57843
-2.82613
2.7678
1.79389
0.0558732
1.25379
0.463739
-1.71753
-1.47123
1.34744
0.123788
-0.615814
1.78618
-1.17036
1.3021
-2.92147
1.61937
0.736806
2.56323
-3.30004
-2.76104
-0.92554
3.68658
-1.17783
2.29271
2.63223
1.2672
-2.07907
3.46608
-1.38702
-0.327744
-0.606799
0.934544
0.0350375
0.843884
-1.07184
0.227954
-1.14692
-1.72915
3.03125
0.63194
0.909143
-0.726369
-1.0416
0.232189
1.74422
-3.19091
0.0917923
1.26084
-0.284817
0.467018
-0.182201
-2.28735
-2.01277
4.30011
-2.07955
-1.4306
-1.92517
-0.294377
2.21955
0.289504
1.03414
-1.32364
-0.0201135
4.42901
-2.84096
-1.58805
0.775427
2.53133
0.329725
2.00774
-2.24519
0.237452
-1.80558
3.5344
-1.72881
-2.14256
-0.916566
3.05913
-1.93389
0.650164
-1.33304
-0.581959
4.25962
-1.87947
-2.38015
2.56285
-1.16919
-1.39366
1.30675
0.371706
-1.67845
-0.767651
0.873223
0.22416
-0.729427
0.505268
0.660784
-0.134369
-0.924427
-0.0367143
2.5046
1.75502
-2.84277
2.6838
-1.52832
4.28425
1.81557
0.747278
-3.22177
1.07921
2.9403
-2.47547
-0.54183
-2.61482
0.543625
-0.454713
-3.57662
2.64482
-2.62729
3.30353
-0.165792
-0.837892
-0.531499
-0.693731
-0.386814
1.08055
-1.30069
-0.183024
3.00682
0.528668
-3.53549
-0.0818039
-1.00963
1.09144
-0.593913
-1.5042
-2.19199
3.69619
3.29158
-0.237525
-3.68647
3.96441
-0.27794
0.859579
-0.687393
-4.74428
-0.736854
-1.00097
3.57552
-0.0846943
1.80327
4.30896
-1.45834
-2.85062
-2.37137
-0.167539
2.53891
0.82893
1.79673
-2.62566
-2.81259
0.275689
-0.761892
-0.258026
1.01992
-1.89353
2.33984
0.631833
1.90374
-2.53557
-0.308072
0.972622
-0.66455
-3.58457
0.422245
3.16232
1.61642
1.77093
-1.19667
1.96937
0.796618
-0.829109
-0.51982
3.07176
-3.7838
0.575597
-1.23342
0.657825
1.01466
-0.334708
2.67085
0.0845408
-2.75539
2.76418
-4.2925
0.00965741
-0.0511151
-1.56187
1.46179
0.100076
-3.97014
2.97848
-0.160859
1.32088
-1.16002
-0.743361
0.0976713
0.64569
-0.814413
-0.738009
-1.07396
2.43149
-0.0542557
2.24385
-0.694237
0.73824
-2.35486
1.46021
-0.00899642
-0.017418
-0.886281
0.842158
0.0441229
0.900762
-1.0141
0.113342
0.358699
-0.734714
0.426134
-2.35131
-0.40017
-1.34161
-0.0803161
2.28123
-2.20091
1.36639
-1.6415
0.366575
-2.83352
2.46695
-0.0898645
2.20273
-2.11286
2.6213
-8.30903
-0.228172
-0.0856613
-3.69572
1.11966
2.00912
-2.83997
-0.506743
-3.63598
1.75463
-1.79982
0.708503
0.172166
0.057951
-0.230117
4.44968
-1.84883
3.01509
-0.506475
-0.989902
-0.656167
1.64607
-4.30859
1.92302
2.38557
-1.28385
0.520004
-1.22997
2.77877
0.718877
-0.407531
-2.20537
-2.04283
1.06211
0.535202
-0.934457
0.399255
-0.507427
3.51425
-0.287181
1.6113
-1.32412
1.44945
-5.02294
2.16406
2.85888
0.51195
1.15789
-1.66984
3.11896
0.608513
-3.72747
-2.15916
1.33268
-1.3093
-0.153996
1.46074
3.52536
-3.89831
1.74186
-0.787745
-1.44961
2.64669
-5.87991
4.18225
1.69765
2.47871
-3.87948
1.40077
-2.65341
2.934
-0.280591
1.40017
-1.81618
0.0504529
0.696038
1.04877
1.46389
-3.24087
-0.52959
-3.72609
2.49775
1.22834
0.888174
-3.25954
4.68166
-0.07191
-2.38942
0.475819
0.923209
4.10523
-1.43506
-2.67017
-0.943825
0.928579
-2.41524
0.722647
-3.59602
3.42848
-2.76665
1.13662
1.80665
-4.88938
-0.207186
5.09656
-3.75272
3.93565
-0.182929
-0.476681
0.483931
0.385708
-3.90402
2.76266
1.14136
2.62014
-3.59853
-4.07277
-0.138111
4.53346
-2.19973
0.896058
1.458
-2.35406
-0.112738
-0.680859
0.793597
-0.319871
1.65806
2.0582
-0.355826
-4.53355
0.540227
0.958173
0.777569
1.48542
-2.26299
1.62707
-0.952387
-0.0751302
-4.20117
4.2763
-1.33233
1.3439
-2.62464
-2.17449
-1.61422
3.78871
0.976081
-1.45698
-2.72697
0.812714
1.91426
0.0585191
0.138911
-0.19743
3.53367
-4.0862
-0.515635
-1.04623
2.2912
1.5539
-3.8451
-1.13249
0.266399
-3.22571
0.92031
2.3054
-3.91895
1.96555
1.73138
-3.53696
1.46978
-0.894181
0.082008
-0.0234889
-0.259279
4.81732
-2.30221
2.99088
-0.688671
2.67731
0.0600811
-2.73739
-1.84179
-0.0748324
-0.895315
0.176702
3.20741
0.559466
0.139321
5.11376
-0.0464835
0.589647
1.95298
0.786069
-1.40188
-3.57511
-0.240598
-1.99025
2.67389
-2.02885
0.718121
0.812564
-1.53069
3.625
0.573613
-4.19861
-0.484108
0.467325
-1.34584
-2.71533
-2.97267
-0.535263
-1.59384
4.35803
-1.34158
1.90789
-0.566307
-3.51339
1.22605
-1.19139
1.96896
-5.6391
1.78961
-1.59895
-0.986762
1.15623
-2.10462
0.845042
4.14452
-0.568992
2.83041
0.908219
-3.73863
-0.0447125
2.00523
1.1339
3.8785
-3.59371
-0.146949
-0.932864
1.38014
-1.85328
2.08836
-1.89012
-1.84867
0.957282
0.685281
-1.64256
-3.44275
0.0586331
-0.538391
3.01147
-2.47308
-0.188892
-3.49758
-2.51982
2.9681
5.09159
-2.30218
-2.78942
-0.316382
0.953606
2.49999
-1.18693
-1.31306
1.11422
-1.24859
0.197783
-0.102717
-0.532173
-0.105841
0.638015
-0.432456
1.68625
-1.09448
3.71462
-0.0477005
-0.714227
-1.10144
-0.406271
1.50772
-0.0777749
3.61145
1.7682
0.323488
-2.09169
-1.52787
2.26432
1.48999
1.61285
-1.89451
0.0678932
2.20224
-0.869241
-1.333
-0.0989046
-0.0243461
0.123251
0.472031
-2.81896
2.34693
-3.56591
0.593237
0.924342
0.512898
2.16099
-0.0578505
1.17207
0.563804
-1.90538
-3.27981
1.7109
-3.73734
1.15804
-1.84986
0.27904
-1.41679
-2.07839
3.49518
-7.5826
0.164375
0.306027
-0.470403
4.08866
-2.85218
2.82742
-1.99849
0.442827
2.09148
-2.5343
0.529401
-1.29129
-4.98914
4.4933
0.495837
-0.677307
-0.940974
1.61828
-2.06042
4.10651
-2.04609
2.46479
-1.82963
-0.635169
4.54578
0.188794
-4.73457
-2.16617
-2.85677
-1.24904
-0.20349
0.73204
3.56903
-0.047361
0.43402
-0.386659
-2.57835
-0.647361
2.66678
2.15219
-2.08794
2.55048
-0.462532
-0.561893
0.446549
0.0384246
1.23959
-1.27801
1.49729
-1.78447
-0.398867
-3.50515
-2.32987
1.13497
0.0618536
1.94386
-2.40507
0.328242
2.71998
-3.04823
-1.92749
-0.330523
3.03952
-1.33592
0.302309
-1.16149
-0.432885
0.242716
0.190168
0.0257582
-1.29842
1.27267
0.297977
2.84379
-2.157
3.23284
-1.57027
2.90196
-1.55806
-0.475385
-1.03669
1.51208
2.83704
0.412862
-0.0163901
-2.63403
1.85619
2.31454
-2.39231
-1.74557
-2.22002
3.96559
-2.24325
-2.06533
-4.14527
4.45484
-0.309562
-0.0621679
-1.16442
0.777604
2.09089
1.14195
0.243264
1.92606
-2.16932
-1.59562
-3.65539
4.2873
-4.29236
0.00505776
1.48914
-0.562465
0.989953
-0.751571
2.09992
-3.44577
1.58179
-1.34771
0.613793
3.39733
-4.01113
2.08872
1.55345
1.26115
-2.8146
3.98117
-2.28512
-1.69604
-1.93883
-1.92372
4.27165
-2.34793
-1.0461
3.87651
-1.21871
1.16086
1.61936
3.02775
-0.926408
0.81367
0.0766538
-0.010547
3.60071
-2.0232
2.21893
2.23075
-1.67559
0.909652
0.765941
0.79445
-1.47779
2.74965
-0.0787975
3.16766
-2.2716
-2.42732
-0.387508
2.81483
0.797966
-0.104053
-0.693913
0.676767
0.210094
0.49923
-3.73404
-1.18447
1.44559
2.51625
-2.32605
-0.190206
0.739561
1.46268
-0.655417
0.328348
1.19802
0.773311
-1.97134
-1.5942
3.80005
-0.0458517
-2.37802
4.28306
-1.90504
-0.821433
1.28975
-0.75994
0.451868
4.0552
-2.02768
-1.29921
-0.753265
3.87223
1.20543
-1.6056
-0.788108
0.707264
-1.07268
-0.618971
-0.0279134
1.9917
-0.673416
3.05555
-2.38213
0.102922
-0.0425746
-1.0437
0.420434
-1.36029
0.111257
-3.20593
2.23235
1.07054
0.808735
0.384364
0.628649
-1.01301
0.636368
0.435715
2.95711
1.61689
-4.574
-0.473839
-0.0606075
0.534446
-3.21615
1.1928
3.44322
1.64837
2.92391
-2.59566
-4.24914
0.00103891
0.0988786
-0.354607
1.70288
4.52728
-1.89027
-2.63701
1.71663
-0.35024
-0.116321
-1.25786
-0.417732
-1.86596
-1.41084
1.77893
-3.46236
2.94035
2.03696
-2.00841
-0.0285535
0.82103
0.021128
-0.245223
1.04786
-0.1471
2.78765
0.723177
-3.51082
1.00576
-0.470554
-0.956144
0.580447
0.375697
-1.3931
-0.0767423
1.46984
0.901476
2.1086
-3.01008
0.784968
1.35531
2.53902
-0.0843352
-1.08836
1.07516
-1.12165
-0.0671839
0.475524
-0.40834
-3.00855
2.13054
3.15427
-2.43805
-0.71622
0.0717714
-0.627039
0.555268
3.04286
-3.30121
1.59173
-0.10259
1.33012
1.4973
-0.583512
-0.0354596
-0.759318
0.611323
0.147995
-1.95963
-0.535915
3.99409
-2.05027
-1.94382
1.99774
1.69733
-3.69507
1.70866
-2.68427
0.97561
0.277238
1.86037
0.219413
-1.11078
3.39055
-2.27976
-0.157538
-0.60178
0.960451
0.531975
1.07932
3.38133
0.00307926
-3.38441
-1.33072
-0.376243
0.0914264
-0.0100536
-0.0120236
1.76206
-0.300271
-2.09253
1.25593
-0.0223718
0.417685
-0.27539
0.43804
-1.52802
1.97084
0.0256545
1.12579
-0.197143
-0.570243
2.15074
-0.0855006
2.12246
-0.654819
-0.5212
-0.767412
1.96544
-0.572027
3.12689
-2.55486
-2.91718
-0.476638
-2.35162
3.88826
-1.53664
-1.11132
1.64329
1.31667
-0.220068
-0.0555273
-1.0438
1.09933
-3.02841
1.00073
0.563301
-0.572297
1.11702
-4.03412
1.2638
-3.60648
-1.62974
3.19605
-1.6883
2.00131
-1.228
0.0374532
-2.1483
2.62033
-0.00743466
-0.642935
0.331944
-1.79692
-0.448308
-2.18955
2.63786
-1.72373
2.0543
4.70435
-2.93513
-1.76922
-0.842541
0.324176
0.978626
0.0811547
-1.05978
-2.95817
0.655954
0.826988
0.00628895
-0.034056
-0.534568
0.568624
1.69625
-4.04787
0.367077
1.65864
0.222146
-1.88079
-3.4936
2.92157
0.630632
0.152902
-0.783535
0.161065
-4.15931
-0.589999
-0.0107014
0.6007
0.820538
-0.189905
-0.00884599
2.69775
-1.94211
2.12183
1.95756
-1.17259
-3.21533
1.04084
-2.38938
2.05061
0.338771
2.1208
-3.86637
-1.91512
-1.04182
2.95694
-0.163223
1.59133
-1.19692
1.12025
3.88368
-0.565867
-3.31782
-0.0083592
-3.56675
4.25925
0.286522
1.27025
1.22974
-0.653484
-0.0165321
0.626517
-0.843515
-1.44729
0.111077
-0.175523
0.0644459
0.0231884
-3.45021
3.42702
-0.784598
1.60928
-0.824686
1.29954
-3.13568
1.83614
-0.203391
-1.97944
-0.1243
0.0212772
2.40191
-1.36417
-0.676893
2.04106
-1.29904
-1.25685
1.74815
-1.06287
1.32051
-0.338826
-0.98168
0.885865
-0.501502
-0.701835
-0.379839
-0.31447
0.694309
0.922234
0.502816
-1.42505
4.00867
-0.784285
-3.22439
0.267958
-2.07918
0.597532
-4.25793
-1.39347
-1.77239
3.16586
-3.37446
0.136234
3.23823
-4.29306
-2.85714
0.203732
-1.31799
1.26427
0.0537212
-4.31045
-1.1733
3.96095
1.54649
-0.696772
0.479942
-1.24735
-0.514471
1.86978
0.625231
0.411417
-1.51286
0.072992
-0.664112
0.59112
-0.607217
-0.0213065
-0.442544
0.514315
-1.21811
1.73006
-4.0804
3.57849
0.501912
-0.512854
0.533983
1.75798
0.838743
-0.0407768
1.91129
-1.66803
-1.79019
-0.936782
-2.05418
0.630766
1.42342
0.277106
0.54338
-0.820486
-1.7022
1.72796
-0.339549
2.66619
3.40174
-1.63354
1.71412
-3.01315
1.56815
-1.9093
0.341151
0.492609
-0.0388298
-0.0665124
0.00268303
-3.45632
2.03953
-1.91263
3.91037
0.0506183
-0.819987
0.769369
-5.54103
2.37821
0.813629
-1.0982
-0.774034
-0.0791374
-0.869936
0.949073
-2.11402
0.749853
-3.71198
3.31311
4.26993
-1.97873
-1.13903
1.0679
0.0711302
0.112104
0.118942
-0.624055
-2.52213
3.81936
-1.29722
-0.60484
0.544232
0.189682
1.33221
-1.52189
1.22356
0.36817
0.0829479
-0.172034
0.0890859
-1.18436
1.21002
0.0739384
0.107042
1.44325
-1.95824
3.62906
0.245475
-2.06633
1.60031
3.31462
-0.142047
-3.17257
-0.587358
-0.464422
1.05178
1.93713
-3.86133
1.59757
1.23094
-2.8285
-0.168949
-0.0128572
0.181806
-3.1025
3.09368
0.00881479
-1.54005
1.90662
3.17694
-1.03067
3.27587
-0.940254
-2.33561
-0.486594
-0.518592
1.00519
-0.713117
-1.27624
-0.0336656
-1.20171
-0.074529
0.288811
-1.24271
0.9539
-0.351013
3.36108
-3.01007
-2.78894
0.898353
1.89059
0.899327
3.1193
0.0763126
0.288178
-0.36449
2.08081
0.861317
-2.94212
-0.0346732
0.206839
-1.28921
3.75112
-2.4619
-2.81815
0.390835
2.26059
0.925854
-2.84097
-0.0112819
-0.497872
0.509154
3.56839
-1.02906
-2.53933
1.41993
0.933861
-3.96193
2.0588
3.86039
-3.93552
-1.79297
0.270397
1.52257
-0.076644
-0.0365792
0.735372
-0.698792
-0.201209
0.140078
0.0611316
-0.0409134
0.523914
-0.483001
-1.03021
0.862949
0.167264
-2.00446
4.10439
-1.13948
1.12016
1.40172
-1.21204
1.20183
-2.06065
0.858813
-3.3816
-2.49831
-0.391092
0.0623744
0.0537705
-0.00392444
-0.049846
2.40892
0.862992
-3.27192
0.246635
2.26962
-0.933714
-0.537512
-2.15353
0.380981
1.86577
1.20575
-3.07152
-0.00906735
-0.0595794
0.0686468
-0.0147175
1.43246
0.274641
0.317922
-0.592562
4.14779
-1.96669
-2.1811
-3.84763
0.69584
0.747679
-3.86546
1.05763
2.80783
0.0690172
-1.20704
-0.72411
-0.129655
-0.0547036
-0.0118088
-1.91381
3.18709
-1.27328
0.608596
0.110281
0.823372
-0.403465
-0.944148
0.896447
-0.986549
1.04618
-3.57969
3.73512
-0.155432
2.14637
-1.52501
-0.621359
3.50809
-3.21011
0.965416
0.218024
-0.960884
0.782311
-0.277321
-1.28158
4.82467
-3.35198
-3.10528
1.9945
-0.580874
0.521396
0.56278
0.257758
-0.155289
-0.0136604
3.00773
-3.11243
0.104699
2.02779
-1.7175
0.84826
0.869238
0.420016
-1.35288
1.27409
-3.18331
-0.967565
0.863512
-0.624041
-1.07888
1.70292
-2.8855
0.664998
0.684153
1.06516
-1.74931
-1.22576
0.548455
-0.638576
-1.92542
4.03199
-0.853681
-1.27605
0.758578
-1.97415
1.21557
-1.10016
1.40247
-2.01072
-3.53032
-0.0591934
-0.684167
2.14279
-2.01497
2.56586
-0.550895
-0.138763
-1.23518
0.189047
-1.45202
1.26297
-3.27821
-1.72164
-0.656583
0.645881
4.06243
1.6063
0.438035
3.28407
-2.24039
-2.44886
3.20202
-0.214545