/*--------------------------------*- C++ -*----------------------------------*\
| =========                 |                                                 |
| \\      /  F ield         | OpenFOAM: The Open Source CFD Toolbox           |
|  \\    /   O peration     | Version:  2306                                  |
|   \\  /    A nd           | Website:  www.openfoam.com                      |
|    \\/     M anipulation  |                                                 |
\*---------------------------------------------------------------------------*/
FoamFile
{
    version     2.0;
    format      ascii;
    arch        "LSB;label=32;scalar=64";
    class       volVectorField;
    location    "4.6";
    object      U;
}
// * * * * * * * * * * * * * * * * * * * * * * * * * * * * * * * * * * * * * //

dimensions      [0 1 -1 0 0 0 0];

internalField   nonuniform List<vector> 
13486
(
(6.58053 -1.29584 1.28906e-20)
(6.97925 0.554186 7.27092e-21)
(9.4735 0.24047 0)
(13.0222 -5.51507 -1.30379e-19)
(10.6997 -0.578463 -7.06417e-21)
(9.27393 0.555098 -1.02393e-21)
(10.3299 2.38478 -1.24761e-22)
(9.4328 -2.96255 1.48814e-21)
(8.54724 -1.4442 0)
(7.62703 2.0473 0)
(-4.14319 5.31214 -1.71159e-20)
(9.43499 -0.796985 0)
(6.16275 -2.08869 -1.26445e-20)
(8.94114 2.36826 -2.12656e-21)
(9.58117 0.834514 -1.94636e-21)
(7.52414 2.13174 -6.81162e-21)
(-0.2 0.294528 1.07983e-20)
(4.2114 -3.25061 1.24893e-20)
(8.79479 -0.1632 7.2604e-23)
(7.02108 -0.598796 -1.31885e-20)
(1.46907 6.66427 -5.60009e-20)
(6.22577 -2.13769 1.62901e-20)
(7.04861 0.524755 -5.8245e-21)
(11.5833 -1.90871 0)
(7.93803 1.70719 2.32212e-21)
(11.9322 -1.93086 -5.31378e-21)
(-0.770557 0.36651 1.56083e-20)
(10.0516 -0.411212 7.6402e-21)
(7.62156 -1.21395 0)
(10.2732 -1.33762 -6.22517e-21)
(-6.89342 10.2884 -2.64116e-20)
(7.98239 0.559096 -2.26136e-21)
(11.9227 -0.283868 8.23861e-21)
(9.15117 -0.508178 0)
(9.47764 -2.76399 0)
(6.09775 0.22981 1.02286e-21)
(8.58131 2.37587 -1.45325e-19)
(7.39441 -3.3936 4.14829e-21)
(6.33261 3.13876 5.29324e-22)
(8.36087 -0.845147 4.31037e-21)
(13.6868 -1.02995 0)
(5.47207 -2.58808 -1.54904e-20)
(9.47976 -0.0489858 0)
(7.96997 1.45189 -1.08202e-20)
(7.97834 1.46591 4.40948e-21)
(9.53476 -0.831914 3.28464e-21)
(-0.625083 3.57292 1.99556e-20)
(7.798 -1.21667 -1.57732e-23)
(12.1149 -0.640405 1.10199e-19)
(10.2019 0.141941 2.28123e-21)
(7.96896 0.0322136 8.85249e-21)
(7.60928 2.09079 0)
(7.83338 -1.48364 -5.11614e-21)
(7.55856 -2.69375 -6.53441e-21)
(2.91497 -4.52391 0)
(10.5491 -0.851323 3.56037e-21)
(5.22665 0.288096 -1.06126e-21)
(7.41808 1.91502 5.17868e-21)
(11.7089 -0.173778 9.56826e-21)
(-1.48453 5.61216 0)
(-3.11655 6.48018 -2.12181e-20)
(-0.0281367 7.189 0)
(13.2173 3.34434 -7.51191e-21)
(1.33294 6.29778 -6.03558e-22)
(10.1172 -1.16251 0)
(2.91195 2.66446 -6.99092e-20)
(9.31515 -5.63129 -1.15219e-19)
(6.38713 -0.377931 4.78053e-21)
(8.5711 -1.55101 -1.8016e-21)
(9.10346 -1.16564 -3.28463e-21)
(13.1879 -6.96877 1.33048e-19)
(3.5523 -4.44392 3.60964e-22)
(8.1648 -0.462168 3.83539e-21)
(-1.37606 -0.154395 -8.1279e-21)
(-0.16977 0.502998 -1.24226e-20)
(5.46127 0.28063 2.76965e-22)
(0.50401 -1.09264 3.44273e-20)
(9.762 0.803897 9.64787e-22)
(-1.61746 4.11058 -1.20879e-20)
(6.1474 -4.37526 0)
(7.54131 0.201151 -3.42945e-22)
(6.78067 0.818624 -4.80607e-22)
(13.4821 3.80668 7.96944e-22)
(10.9072 0.74167 -8.77768e-22)
(6.57334 -1.31486 -2.5049e-20)
(5.8708 4.4148 0)
(0.736429 -4.62133 -2.60798e-20)
(7.98475 0.0829947 -1.39791e-20)
(7.59246 0.436595 -5.99768e-21)
(6.93339 2.79072 -8.98356e-21)
(7.32688 -0.30881 -3.13067e-21)
(10.0029 -2.10854 1.75305e-21)
(6.8471 -1.65688 3.07031e-21)
(7.05184 -0.108674 3.64921e-22)
(8.45801 -2.37442 6.48765e-22)
(8.10333 -1.03446 7.00628e-25)
(-0.847688 0.43871 0)
(0.231113 -4.12563 5.03477e-20)
(8.37436 -0.803273 -8.29083e-21)
(-0.22983 0.397205 -1.43447e-22)
(6.58768 0.189191 0)
(8.87457 2.36176 -8.78538e-22)
(-0.271908 -4.85792 -6.27881e-22)
(6.76321 2.29339 -6.28122e-21)
(5.23904 4.07946 0)
(-0.545394 0.651394 -1.06493e-22)
(7.96459 0.0287508 -1.01555e-23)
(5.43139 2.77215 1.06991e-21)
(-1.30348 3.99181 1.34951e-20)
(9.97286 -4.47095 0)
(8.03495 -3.67702 0)
(8.20561 1.61316 -5.36143e-22)
(7.59538 -2.62079 1.63314e-22)
(6.83694 -0.644365 1.49611e-22)
(5.28425 -0.931356 0)
(7.93981 -3.69121 -9.73103e-22)
(7.83238 1.80126 0)
(9.25162 -0.509162 0)
(8.16505 -0.442808 0)
(15.1373 -6.77733 -5.22801e-20)
(4.94695 -3.49883 -4.85028e-21)
(-4.59028 6.89174 0)
(8.24619 -2.1632 0)
(5.09741 2.90288 -2.03839e-21)
(8.81564 -2.83827 0)
(8.57301 1.78888 0)
(9.04367 -0.456476 4.5452e-23)
(8.3978 0.281202 5.06088e-21)
(8.31667 -0.204644 6.67859e-23)
(11.0114 -2.38121 -1.06418e-20)
(7.80652 2.1505 7.90251e-22)
(-2.15056 3.4988 -5.01103e-21)
(-0.632819 0.738894 1.38778e-20)
(-0.459999 -0.109107 1.1586e-20)
(7.98777 0.00914719 -1.41021e-21)
(7.54538 1.16419 -7.87029e-21)
(3.694 1.10951 -4.98347e-21)
(9.84889 -3.9468 0)
(15.7499 -7.22282 1.15632e-20)
(9.3081 -2.14014 -1.32723e-22)
(11.1883 0.186178 -7.34433e-21)
(8.03863 -1.7288 4.43305e-21)
(8.23804 -0.33936 0)
(6.28457 -4.32262 0)
(9.21581 -0.174962 6.67311e-22)
(17.2771 0.706442 -3.01468e-20)
(17.8825 -2.7744 1.56429e-20)
(0.726021 3.18328 0)
(10.4915 0.219043 0)
(7.58494 -1.1761 0)
(7.96596 0.0135888 1.69239e-22)
(10.4864 0.598661 0)
(7.24826 0.179686 3.58918e-22)
(6.67445 0.756091 -4.14421e-21)
(8.41364 1.01252 0)
(10.2831 0.373935 0)
(10.9101 -4.27311 0)
(10.0894 9.37207 2.55871e-20)
(8.126 -3.06093 6.34077e-21)
(5.72972 5.04918 -6.41487e-21)
(10.0304 0.13905 5.45123e-22)
(8.13746 -2.98975 -9.28177e-21)
(5.73077 0.813113 3.35915e-21)
(4.93331 -2.45535 6.67591e-21)
(8.11834 1.87243 0)
(9.30405 2.43472 1.48022e-21)
(8.74529 2.15079 6.23792e-21)
(3.04948 -1.1832 -1.95891e-20)
(17.9725 -2.44434 -4.27644e-20)
(-0.516988 -0.137259 3.15164e-21)
(-2.05609 0.273464 5.46884e-22)
(8.37616 0.905513 4.04475e-21)
(7.95139 0.145044 -1.25078e-20)
(9.04253 -0.0378797 6.32226e-23)
(8.21021 -0.167216 -1.95291e-22)
(-9.39034 -0.625493 0)
(8.73077 3.32807 -4.10841e-21)
(11.558 0.510624 9.87338e-21)
(7.97208 0.0141514 -1.28695e-20)
(8.27269 -0.514693 0)
(8.6136 -0.958087 6.95769e-21)
(7.20392 -0.706026 3.0554e-22)
(8.94384 -0.0241004 7.03286e-23)
(-1.25305 0.730599 0)
(12.031 0.665471 1.29881e-21)
(10.1069 -0.346308 -3.43057e-21)
(7.25266 -1.03333 -3.36971e-23)
(9.70382 -1.05204 -1.41678e-21)
(15.0734 -2.74969 0)
(7.25981 -3.45788 -2.68496e-21)
(13.4598 -5.27206 0)
(8.85658 -0.0700053 0)
(6.36696 1.02664 0)
(7.29286 2.59529 -9.6348e-21)
(6.4012 0.516384 0)
(-4.29004 4.84661 -4.73472e-21)
(10.6483 -2.04041 2.24861e-20)
(9.94501 0.055257 3.62365e-22)
(6.64957 -3.22931 -2.32869e-21)
(9.23681 2.27836 1.54134e-21)
(-7.63788 10.3571 2.31533e-20)
(8.44764 0.334386 -1.5887e-22)
(7.35516 -3.47163 -4.80706e-21)
(11.0611 -3.48707 -7.14541e-21)
(5.20915 5.15897 7.85453e-21)
(6.6319 0.446951 3.35523e-21)
(0.623545 1.28138 3.45089e-21)
(7.88085 -0.284666 9.06931e-21)
(6.01589 1.7234 0)
(11.3936 0.848357 0)
(9.85312 -0.499342 4.89337e-21)
(11.9421 -2.06102 1.11522e-20)
(7.0971 -0.493959 1.2108e-20)
(7.91455 0.0558742 -5.37087e-24)
(9.25563 0.687476 1.18082e-21)
(8.80294 -3.54215 8.61908e-22)
(10.4347 -1.17418 0)
(7.01151 2.63881 2.09702e-20)
(7.15658 -1.68612 0)
(11.0656 2.7834 0)
(-0.126241 0.410604 -2.05341e-20)
(10.4262 0.292903 0)
(9.22406 -2.17523 5.13795e-23)
(10.5191 0.200206 0)
(8.36705 -3.31146 -4.72965e-22)
(6.33938 -2.9198 4.22164e-21)
(9.61112 1.24183 7.2471e-23)
(-11.1339 5.1025 1.00955e-20)
(8.65707 -2.92003 7.36461e-22)
(1.09157 -4.00949 3.90621e-21)
(8.62016 -0.883126 -2.28304e-21)
(17.9796 4.83192 6.28615e-20)
(11.2785 0.149279 9.15998e-21)
(5.3631 -2.53232 5.39472e-21)
(-6.67374 2.56015 0)
(6.09014 -2.94221 4.63366e-22)
(9.42959 -0.840215 1.93876e-21)
(8.71587 -0.102353 -8.86754e-22)
(6.21009 -2.94728 1.30258e-20)
(8.85674 -0.163837 0)
(11.8155 -0.451831 0)
(8.00192 0.128214 1.92921e-20)
(7.5757 -0.715878 0)
(5.97231 -2.93562 3.93756e-21)
(4.30328 3.61056 -1.12908e-21)
(7.516 -0.0348286 0)
(9.25541 -0.059974 -7.24893e-22)
(11.0931 -1.61228 1.61232e-20)
(0.386087 -0.391589 1.92121e-20)
(7.86348 1.35565 0)
(-6.97195 -1.57286 -8.97094e-21)
(5.18238 -0.847119 2.17051e-21)
(7.53233 -3.6424 5.18713e-22)
(4.83029 2.17218 0)
(7.37827 -2.89387 -5.4438e-22)
(-7.09955 -0.521763 5.18318e-21)
(8.23347 0.340196 2.57322e-21)
(9.30893 -4.4291 -1.08915e-21)
(8.82869 7.8704 -2.67857e-20)
(11.9585 -0.492102 7.30993e-21)
(7.29452 0.446576 0)
(5.71518 4.9499 4.52792e-22)
(9.61816 0.776994 4.26779e-21)
(-7.54946 -0.0333476 -6.47167e-21)
(10.985 -2.47684 9.46545e-21)
(-1.54292 0.990174 0)
(7.49443 -2.45245 4.44308e-22)
(-8.63054 11.0905 -4.79475e-20)
(8.29327 -0.0350317 -4.86695e-21)
(6.73588 -6.27407 0)
(6.23473 2.36609 7.70461e-21)
(7.9503 0.042987 -3.63549e-21)
(10.1698 -1.22575 0)
(9.29963 -1.719 2.90401e-21)
(6.54729 -3.05729 5.58485e-21)
(10.9123 -1.6638 -9.00574e-21)
(6.18726 -2.6294 0)
(5.27637 -6.67856 0)
(3.86231 1.3256 1.38239e-21)
(16.5996 -4.61125 -2.16636e-20)
(6.01916 -7.34347 2.89596e-20)
(8.72472 -0.468869 -2.5536e-21)
(7.88316 0.0841311 7.82181e-21)
(13.4535 -3.0987 -1.24027e-20)
(-5.647 7.11469 2.63418e-20)
(-1.63879 1.02103 2.3241e-20)
(11.2264 0.48178 7.41392e-21)
(8.64586 -0.389973 -8.78209e-23)
(7.67784 -2.70975 4.31747e-22)
(8.20886 -0.0332431 0)
(-4.35929 2.91882 0)
(3.47393 6.26231 7.36851e-21)
(7.79854 -3.59697 2.03999e-21)
(7.99925 0.0250515 -1.37085e-21)
(9.13587 -0.799955 1.32507e-21)
(9.56669 -0.934418 0)
(9.56824 -0.0618527 -7.81916e-22)
(9.93547 -1.47678 -2.37845e-21)
(7.8687 0.055534 -7.05536e-21)
(12.1903 1.16611 -1.32552e-20)
(6.07933 0.226827 -4.18242e-21)
(1.94686 -0.989689 9.23482e-22)
(17.8479 -5.04165 1.84624e-20)
(8.42072 0.468524 2.39045e-21)
(17.3987 -2.38415 1.89962e-20)
(10.9574 -5.71165 0)
(16.9123 7.5175 0)
(8.39169 -0.0650055 1.36288e-21)
(1.82847 -3.24297 1.79111e-20)
(9.54138 -2.73966 0)
(7.60944 5.45513 -1.55802e-20)
(10.5776 -3.42399 0)
(8.41355 3.21605 2.97324e-21)
(8.2035 1.71814 -1.55858e-21)
(1.20045 0.0350943 0)
(7.50078 1.00462 -4.95092e-21)
(5.36546 6.73127 -1.10651e-20)
(7.53187 0.415915 -5.12166e-22)
(7.84109 -0.277763 -1.02269e-20)
(7.88856 -2.50976 0)
(8.10598 0.506864 1.26191e-19)
(4.98926 6.70045 -4.16862e-22)
(7.98681 0.0452464 1.63105e-21)
(7.01349 0.0383305 -7.01291e-21)
(3.7778 1.11316 9.03254e-21)
(7.3768 0.126786 6.18405e-21)
(9.55467 -0.516425 2.60176e-21)
(8.75121 -0.455579 0)
(11.669 -1.38736 5.29811e-22)
(9.66329 -0.367984 1.42907e-21)
(7.96805 0.0081079 2.01942e-20)
(10.1611 -2.00669 0)
(7.30271 -0.274731 -1.73932e-21)
(6.19607 0.699137 0)
(10.3949 2.37656 1.78608e-20)
(8.70176 -2.11646 -1.21201e-21)
(4.23351 -1.97805 7.04321e-21)
(10.5486 0.537457 6.72609e-21)
(7.99612 0.437266 0)
(4.30259 4.19746 -4.02535e-21)
(8.36408 -2.48638 5.39872e-23)
(7.02194 0.0421366 6.63167e-21)
(9.82957 -0.365021 -3.82294e-21)
(8.81199 0.0148154 2.25274e-21)
(-6.24749 3.39582 -1.45164e-20)
(7.83989 -1.14214 -1.35154e-23)
(9.01238 -0.235697 0)
(5.14536 -1.87747 1.61592e-20)
(11.0268 2.7985 0)
(5.63748 6.51521 3.65525e-22)
(8.5969 -0.129467 4.4179e-21)
(11.0086 -1.914 -1.85012e-21)
(9.67744 -1.60908 2.02535e-21)
(-0.845142 0.385364 -1.86972e-20)
(7.87513 0.0613182 8.77502e-21)
(7.40356 0.195277 0)
(-1.48115 -0.327698 -6.8984e-21)
(9.05029 -0.415973 -9.08108e-22)
(1.01484 -2.50623 -6.63569e-21)
(11.378 -2.33419 9.40635e-21)
(9.7373 -0.128534 0)
(6.75157 -0.260532 4.56618e-21)
(7.42469 0.217807 1.44808e-20)
(7.93494 0.055976 1.10562e-20)
(10.1219 -1.3919 0)
(7.09915 0.152152 5.54676e-23)
(9.46805 -0.949353 -1.82087e-21)
(-1.81339 3.17187 2.66638e-21)
(6.97586 -0.576641 1.6893e-21)
(9.03829 -0.371204 8.66165e-22)
(9.93459 -0.0427531 -3.10497e-22)
(8.9164 -0.258517 0)
(9.59313 -4.53286 -8.61665e-22)
(-8.19548 -0.204055 6.08852e-21)
(9.07973 1.34883 -2.80668e-21)
(7.99851 0.0240684 7.35961e-21)
(6.50527 0.0079927 0)
(5.2281 5.3681 -8.93576e-21)
(3.19955 -1.167 0)
(11.0255 3.91611 -3.56776e-21)
(8.33808 -0.067647 0)
(10.3903 -2.49516 -3.32168e-22)
(6.1932 -0.977588 -3.77802e-21)
(5.94947 1.83321 1.75293e-20)
(-0.694957 2.53797 -1.02047e-20)
(6.8806 -2.3138 0)
(8.69551 0.237873 -4.65798e-21)
(7.99769 0.476026 -5.4383e-21)
(1.27151 -0.428844 -6.59724e-21)
(-0.67328 12.5636 5.43641e-21)
(7.17477 -0.558116 -1.79693e-20)
(10.2983 -1.07763 3.08995e-21)
(8.15179 0.523984 4.24979e-21)
(6.83471 -2.16834 0)
(6.05563 0.373113 8.37767e-21)
(12.6632 -9.15935 -2.87517e-20)
(10.3077 -5.05954 7.37232e-20)
(-6.12337 -0.685368 -2.21126e-20)
(1.04106 -0.0737212 -1.25593e-20)
(11.2796 0.440987 0)
(1.24466 -0.280251 0)
(7.63837 3.37458 0)
(8.60245 -0.223534 0)
(13.1365 4.72161 -3.20218e-20)
(10.2615 2.23376 0)
(9.70997 -10.3087 0)
(7.10237 -0.0180396 2.67854e-21)
(11.5335 0.493733 -1.01448e-20)
(8.86787 -0.289637 -2.95813e-21)
(7.06185 0.678512 2.56382e-20)
(8.01819 0.0878344 -2.69359e-21)
(7.94978 4.97712 0)
(10.4765 -0.797491 0)
(7.84724 0.0694803 7.55616e-21)
(8.05738 0.04413 1.30681e-21)
(5.12093 2.14957 0)
(-1.1279 0.572402 1.42107e-20)
(11.162 -2.59072 -1.06178e-20)
(-2.56469 -1.81101 0)
(8.85956 -0.163013 2.86607e-21)
(7.97967 0.0581865 -8.65818e-21)
(5.07163 3.95877 -2.38403e-21)
(5.13132 -1.84696 0)
(7.97797 0.482995 9.84129e-21)
(9.82036 0.766841 0)
(9.69981 -0.911787 0)
(8.51444 0.630063 -7.47895e-22)
(7.85734 0.0986412 4.15857e-21)
(-0.736024 0.309805 -2.04314e-20)
(8.65969 2.08124 2.11545e-21)
(6.3411 -1.77802 -6.15401e-21)
(8.4464 -0.197037 6.1341e-22)
(8.17791 0.575513 3.3984e-21)
(10.0148 -4.2701 -3.58047e-23)
(11.4496 -2.01304 0)
(11.1328 -1.36668 7.53619e-21)
(6.1608 -0.76161 0)
(3.74461 6.22041 6.36063e-21)
(8.97818 -0.10458 0)
(6.46459 -0.349122 1.02229e-20)
(-0.7569 2.30172 -1.7059e-20)
(10.6113 -0.995739 0)
(-0.50181 -0.205534 5.19853e-22)
(10.7589 -0.874134 -6.82428e-21)
(0.86809 6.70166 -4.29443e-20)
(7.8282 -1.17231 1.34742e-20)
(5.71749 1.8111 -1.10689e-20)
(6.30667 -1.75262 -1.80153e-20)
(11.5818 3.79069 0)
(16.0678 -5.58341 4.7968e-20)
(-6.26348 4.01213 -3.67156e-20)
(7.94331 0.495764 0)
(7.51883 0.474308 5.61125e-22)
(10.4519 0.0515047 -5.14027e-22)
(9.47417 3.57039 0)
(8.00642 0.00223542 0)
(1.51414 -1.8797 0)
(-7.40919 0.0527022 2.16549e-20)
(14.3428 -3.6145 1.46902e-20)
(15.5113 0.0352601 2.38838e-21)
(8.38376 3.04494 0)
(7.47837 -0.921768 1.04983e-20)
(8.30028 -0.0934073 3.88934e-22)
(8.65953 1.92922 -4.89208e-21)
(7.8718 2.27133 1.1528e-19)
(7.73844 0.308984 0)
(7.70748 -1.21883 0)
(4.15352 -1.18352 -1.16788e-20)
(6.73246 -2.15439 -4.06704e-21)
(8.27136 -0.649857 0)
(9.01833 -4.09969 3.03049e-21)
(6.48467 0.202453 -6.74447e-22)
(7.99885 -0.888503 -2.15413e-24)
(4.53748 -2.07717 0)
(7.8414 0.0218889 -1.8882e-21)
(15.1686 -7.86716 2.6535e-20)
(9.82289 0.728274 -4.22235e-22)
(8.67919 -2.23678 0)
(-1.42956 1.24837 -3.50508e-20)
(10.0083 -1.79231 2.59751e-21)
(7.98322 0.202722 1.93717e-21)
(10.1929 -0.697113 3.25967e-21)
(9.50144 2.39878 0)
(7.04406 0.692 -6.81258e-21)
(11.2034 2.14046 -2.52387e-21)
(0.717713 0.148729 2.7044e-21)
(8.00431 0.0981035 0)
(-1.42325 9.7817 -5.57976e-21)
(3.2715 -1.0286 0)
(8.0232 0.100664 -7.72057e-21)
(7.9748 0.0749535 2.96419e-21)
(7.77433 -0.0244964 -1.4732e-21)
(-9.3875 -0.396085 0)
(10.0776 0.486424 -1.56448e-21)
(5.09921 0.688069 2.34969e-20)
(11.2432 -2.06395 0)
(7.0443 -0.0799265 8.18296e-21)
(11.9289 0.87879 1.52624e-20)
(8.49095 0.0723466 0)
(-7.6867 10.1488 2.10961e-20)
(5.7167 -3.91488 -1.85722e-22)
(9.85074 -0.0684221 0)
(-1.30256 1.32226 2.06222e-20)
(7.45963 0.42909 0)
(8.47571 -3.75282 1.0105e-21)
(-8.98729 -1.64514 1.47335e-20)
(7.30795 -1.05218 3.57589e-23)
(9.3142 0.569265 1.67158e-21)
(6.05007 0.315105 4.35507e-21)
(7.79812 -1.26648 -4.85079e-21)
(6.6037 -2.07767 7.03156e-22)
(8.52123 -3.60446 1.55162e-22)
(8.96847 -0.424113 1.01818e-21)
(9.46363 2.38184 -2.52775e-21)
(11.0316 -4.43573 0)
(7.98908 0.00688592 -6.52724e-21)
(-3.21214 -1.38359 -7.98502e-21)
(6.27737 -0.784406 0)
(5.44798 -9.27031 -6.77724e-21)
(13.2821 -1.25768 0)
(5.95795 -1.85657 1.60803e-20)
(10.2849 -3.09279 0)
(6.17183 0.115472 -1.87074e-21)
(8.90154 -0.138698 -2.5562e-21)
(-9.63516 9.25105 2.96557e-20)
(1.41665 -3.56484 2.84162e-20)
(9.52508 -0.106483 -3.48675e-23)
(9.45062 -4.30375 -8.43141e-21)
(8.19418 -2.18571 3.45584e-21)
(6.83145 -1.65016 0)
(-0.459272 0.452102 -1.07014e-20)
(11.6757 -1.69268 2.31999e-21)
(-0.688415 0.399315 -1.24782e-20)
(8.05904 -1.06717 3.34663e-24)
(6.86398 -2.62798 0)
(8.87503 0.0306181 -5.61389e-23)
(-1.62628 0.818191 0)
(-4.48382 -3.73028 -4.39833e-22)
(4.90931 4.05802 2.60225e-21)
(10.4859 8.14614 0)
(9.52354 -1.74828 -1.23201e-22)
(9.90872 -0.771628 0)
(9.50363 3.44003 0)
(8.10973 -3.75691 -1.37316e-21)
(6.31097 0.529245 6.82268e-21)
(7.00778 -6.56027 0)
(7.43491 0.300103 -4.06858e-21)
(15.2145 1.43326 3.48973e-20)
(-8.74997 1.24247 2.71703e-20)
(9.43764 4.47416 0)
(8.55906 -0.0308692 0)
(-5.84554 4.69836 -1.66492e-20)
(7.92892 -0.515855 0)
(11.2486 0.659285 0)
(-3.55552 6.45396 3.52355e-22)
(9.06923 -1.16082 -2.21867e-21)
(7.94731 -1.81559 3.52245e-21)
(12.0294 -0.763134 1.08937e-21)
(-0.461089 0.424187 2.21991e-20)
(7.96267 0.052021 3.362e-21)
(6.98472 -1.72612 0)
(8.30577 1.47676 -2.0057e-21)
(6.53263 -1.21073 0)
(9.62097 0.376123 0)
(8.00026 0.248702 0)
(8.48717 0.594521 -6.08933e-22)
(7.8351 -0.29294 4.71699e-21)
(8.94612 -0.957016 -9.98205e-22)
(7.12962 -1.74623 0)
(-0.593326 0.223151 -1.49981e-20)
(7.54009 3.18446 4.75449e-21)
(8.813 -2.85251 7.35059e-23)
(8.31198 -0.387199 3.38593e-22)
(10.9386 -1.68368 1.41745e-20)
(8.09105 0.0581401 -4.90689e-21)
(-0.398264 2.10243 0)
(9.61422 -1.45872 0)
(5.73511 2.14211 0)
(6.02429 -2.65339 -1.10716e-20)
(-2.47654 3.02575 -1.96052e-20)
(9.94714 6.83138 0)
(8.38096 1.47739 0)
(5.36785 -1.24224 3.36342e-21)
(7.81935 -0.0482472 -1.00086e-21)
(7.46993 1.75372 9.20617e-21)
(11.9146 -3.56331 0)
(-2.94623 1.83591 -6.22425e-21)
(8.80911 0.256127 2.49312e-21)
(6.58761 -2.03027 -9.91365e-21)
(8.48683 0.269638 -3.85918e-21)
(8.6651 1.95094 6.46438e-21)
(12.2109 -2.14635 9.31475e-21)
(5.94143 -2.62181 1.92262e-20)
(10.8504 -4.85617 9.39788e-21)
(7.27017 -0.745209 3.47019e-22)
(7.99518 0.00295205 -1.55911e-21)
(8.44556 -4.01425 1.58915e-21)
(5.99498 -3.47911 5.26971e-22)
(5.91396 5.62141 -5.39915e-21)
(8.72844 -3.99224 -9.20925e-22)
(12.5976 -1.06496 0)
(4.18195 -8.14714 1.21752e-20)
(8.65381 -0.0193857 -8.46474e-21)
(10.3337 2.69755 6.75539e-22)
(6.45955 -1.89286 -9.32736e-21)
(8.70342 -2.75585 -1.68799e-21)
(8.23545 -0.00798365 7.72739e-21)
(10.4592 -0.156647 -4.44082e-21)
(9.29686 -7.70661 6.11671e-21)
(11.1943 0.617849 -3.94899e-21)
(5.62054 -1.21543 -2.31913e-20)
(8.53476 -0.000453005 -7.34278e-21)
(5.61178 -1.45325 0)
(-11.474 6.1007 -4.84583e-20)
(8.83682 0.0475004 1.1055e-20)
(5.38858 0.135744 3.50224e-22)
(-1.3377 -0.912406 0)
(10.2336 -4.23245 0)
(7.90799 1.27129 8.12597e-21)
(5.16479 -1.23014 1.47488e-20)
(7.60689 -0.378495 -1.68757e-20)
(10.424 -2.53443 3.30427e-21)
(9.66881 -0.464791 -1.58781e-21)
(11.2401 2.67773 0)
(7.89527 1.37244 4.65504e-21)
(3.44069 -1.50759 -5.9069e-22)
(8.89476 3.22704 -3.38289e-21)
(8.51868 -0.907365 -4.53024e-21)
(-0.721664 0.638154 -3.53971e-20)
(10.7236 -1.73384 -1.34408e-20)
(11.2678 -1.49863 4.04658e-21)
(8.11531 3.5927 0)
(8.66234 -1.87106 -6.00208e-22)
(7.78257 -0.0338816 1.30341e-21)
(7.80818 0.0940216 -3.69768e-22)
(4.9237 -2.40518 1.88992e-20)
(8.44049 -0.933378 6.88614e-21)
(5.10547 5.36531 4.88761e-21)
(-8.4659 -0.0554804 -1.40709e-20)
(9.72959 -0.458154 -2.52409e-21)
(8.70108 0.0761267 6.58682e-21)
(-4.7536 6.6492 -3.24261e-21)
(8.64204 3.10892 8.00447e-21)
(-0.702922 0.866576 -2.2407e-20)
(6.34182 -3.03114 -5.00295e-21)
(7.65622 0.105007 0)
(5.62099 0.100249 -1.28268e-21)
(-6.49437 4.14562 -1.43462e-20)
(6.15449 -1.06548 2.00738e-20)
(7.69804 -0.942636 0)
(5.94078 0.100949 4.17287e-21)
(5.77346 -2.33715 4.56392e-21)
(7.9982 0.0487992 -1.44338e-20)
(-3.44675 1.13255 -1.33567e-20)
(5.99756 -5.48701 -1.07074e-21)
(8.92559 -0.272957 1.99785e-21)
(8.75724 0.243001 6.99222e-21)
(8.61177 -3.8095 -3.73711e-22)
(8.0686 -0.884732 1.39905e-21)
(-2.16012 2.74878 -3.85321e-20)
(8.44671 -0.00788052 7.9415e-21)
(8.41369 -0.178299 -2.71075e-21)
(8.3207 0.337136 -9.62689e-23)
(9.56293 0.0149672 -5.31377e-21)
(5.59646 -2.40835 -8.82869e-21)
(7.27752 -0.761879 0)
(-11.731 0.706108 2.32051e-20)
(8.63321 0.0617325 9.4713e-22)
(5.60551 3.91029 -2.5589e-21)
(9.80164 0.149509 1.72476e-21)
(9.57914 -0.733163 4.46231e-22)
(7.99072 0.0530056 -1.23135e-20)
(8.1665 0.97473 2.60453e-21)
(-1.47953 0.50741 -1.46068e-20)
(11.1715 0.696969 0)
(5.09441 6.09336 4.35133e-21)
(10.8313 -1.82323 1.89626e-21)
(6.89121 -2.56884 0)
(8.32498 0.26913 5.35504e-21)
(12.1425 -1.23151 1.06928e-21)
(10.8102 0.661653 3.9862e-25)
(15.4623 -4.24655 2.00601e-20)
(6.80519 0.20325 0)
(7.30007 0.95141 1.30063e-20)
(5.3121 3.47846 -2.4396e-21)
(8.38836 -3.80949 2.09081e-22)
(8.4534 -0.564937 0)
(6.31898 0.490697 -1.95936e-20)
(6.04324 -3.86395 -5.14004e-21)
(8.5973 4.5748 1.90598e-21)
(5.68006 -1.26872 2.26174e-20)
(10.2778 -0.0825057 1.23691e-21)
(0.398945 -2.57763 1.85306e-20)
(8.10188 -0.416627 -6.57434e-21)
(11.2588 -1.09418 -1.02422e-20)
(7.39891 0.245068 -8.38622e-21)
(8.8051 -0.14725 0)
(7.99623 0.0079204 -5.8521e-21)
(11.7634 -5.38712 1.42182e-19)
(-1.46617 0.11989 0)
(11.5127 -2.06337 0)
(7.81731 0.127227 0)
(0.308759 0.235273 0)
(8.03293 0.892045 0)
(5.43372 -1.20352 0)
(8.99333 -3.34 -4.7172e-23)
(15.4779 -1.0994 -1.53102e-20)
(9.68814 1.33423 0)
(7.04207 0.747561 1.93813e-20)
(7.0487 -7.32622 -1.37387e-21)
(8.14629 0.576193 1.18608e-22)
(-5.30278 5.48341 -6.43557e-21)
(5.35692 -0.469887 4.71308e-23)
(-1.43623 0.629885 1.20334e-20)
(7.90209 0.0058141 -2.13175e-21)
(10.3736 0.114554 3.63499e-22)
(7.9787 0.837625 -5.42296e-21)
(7.61669 0.364926 -1.17772e-20)
(7.41261 2.87438 -8.8699e-21)
(11.4504 4.06892 0)
(1.67739 4.59709 1.7376e-20)
(6.03491 -1.92191 -1.75874e-20)
(8.02367 0.0177668 -1.74523e-20)
(11.5695 -1.49229 1.87078e-20)
(9.44801 -0.0318777 9.57038e-22)
(13.858 2.67494 -2.18003e-20)
(9.08662 -0.678083 -2.52249e-22)
(9.54414 -1.72023 5.27671e-22)
(7.99311 0.425972 5.63682e-21)
(8.45609 6.22881 0)
(6.35145 -2.01014 9.17029e-22)
(7.18625 -0.10232 -2.5259e-21)
(9.48292 2.315 0)
(4.7086 1.49621 0)
(9.23055 -3.96051 -1.2819e-22)
(0.895803 -3.54231 2.35398e-20)
(9.70345 -3.91502 -4.95552e-21)
(8.91656 2.99261 0)
(7.94535 -0.318045 -9.34257e-21)
(7.38096 0.449221 -2.27416e-21)
(-15.0305 3.93691 1.739e-20)
(12.0257 0.277725 1.40335e-21)
(-1.54201 0.329949 0)
(3.43751 7.13294 2.11093e-20)
(10.7399 -0.725693 0)
(8.82024 -2.05941 4.63067e-22)
(7.39868 -0.611673 -2.9687e-21)
(8.03336 0.0112255 -2.06502e-24)
(8.74271 2.18022 -1.10528e-20)
(9.40669 3.97558 -6.19599e-22)
(7.93807 -2.14414 7.86992e-21)
(-1.43858 8.72008 0)
(11.1835 -2.61545 -2.77636e-20)
(6.71372 -8.73952 0)
(9.8741 1.33254 6.27232e-23)
(-14.5074 1.38794 5.13499e-20)
(12.0806 -2.02867 1.21154e-20)
(5.84841 5.19308 -3.35507e-21)
(-5.7702 -0.2224 -3.34288e-20)
(7.72414 -3.56716 -2.41483e-22)
(6.18004 -1.92496 -9.95124e-21)
(14.0212 -8.77561 1.13995e-20)
(11.0788 -2.53689 2.26202e-20)
(5.64901 -2.44561 7.26319e-21)
(6.38581 -2.01418 1.04631e-20)
(-4.61489 3.22472 2.25024e-20)
(10.7664 -2.032 -1.00243e-20)
(8.53706 -2.38509 2.29611e-21)
(-1.05979 2.29387 1.1682e-20)
(8.97703 -0.26474 8.43032e-22)
(6.29659 -6.44133 1.17609e-21)
(8.83219 1.44266 -2.74689e-21)
(10.6716 -0.917427 0)
(0.443843 0.131593 -2.49115e-20)
(8.39944 -0.0239495 -9.32911e-21)
(7.95925 0.245478 0)
(9.79557 1.2419 0)
(7.58299 -4.05521 -3.51492e-20)
(11.9028 -1.29714 -1.15218e-20)
(9.21326 0.80413 -4.94102e-21)
(9.03393 -1.12482 2.8425e-21)
(7.42263 2.80819 7.68457e-21)
(6.99678 -0.0489417 5.00043e-21)
(-16.0699 0.795152 5.69662e-21)
(7.11935 1.70941 0)
(6.54053 -2.12844 9.67837e-21)
(-2.8706 3.87997 4.34002e-21)
(-6.12554 0.119287 2.54056e-20)
(8.06263 -2.90527 1.00697e-21)
(11.7357 -5.54701 8.41751e-21)
(7.91399 -0.042262 2.64218e-21)
(5.54415 3.54919 -2.26464e-23)
(9.86779 -1.4684 6.33414e-21)
(-14.1466 0.347179 -2.85518e-20)
(9.1877 0.769549 3.74771e-21)
(7.89773 0.0389325 4.33743e-21)
(5.55995 -1.42616 -9.28198e-21)
(7.94398 -0.430438 5.63037e-21)
(10.1489 -7.73969 0)
(9.10446 1.32889 4.88776e-21)
(7.97997 0.0175714 9.67889e-22)
(6.77701 -1.53126 -3.18018e-21)
(6.70509 4.84525 -4.12821e-21)
(8.39199 -2.36894 2.20205e-21)
(7.97282 0.0127095 1.72872e-21)
(6.08923 -0.119558 -1.42418e-20)
(9.56317 1.93684 0)
(6.03884 5.85906 -5.42635e-21)
(8.6069 0.302523 5.22181e-21)
(8.29103 -0.508522 0)
(6.2866 -0.438494 7.91242e-21)
(11.5781 0.260662 0)
(5.9498 4.75343 1.84106e-20)
(9.99254 -0.0925449 0)
(6.4899 -1.9932 0)
(9.71606 -0.534568 1.63586e-21)
(9.11023 0.60636 3.10946e-21)
(10.9335 1.15153 -4.71667e-21)
(7.74897 0.267026 -5.37844e-21)
(6.05288 2.76097 -5.61038e-21)
(7.91232 0.161489 -2.41431e-21)
(8.10283 0.935097 0)
(0.0913085 5.48941 -2.48424e-21)
(9.46404 0.574113 -1.67889e-21)
(8.26253 -2.23097 -5.89963e-22)
(10.6507 -0.929733 0)
(10.4142 2.63652 1.27369e-21)
(7.52689 4.88591 -6.63011e-22)
(9.15625 -0.263013 3.50594e-21)
(6.36881 -1.03214 0)
(-1.64033 5.97881 1.87806e-20)
(8.08807 0.432252 0)
(10.1429 -1.15505 -3.07331e-21)
(0.412876 -0.303024 0)
(6.5561 3.99244 0)
(11.4818 -4.6661 0)
(9.98819 -3.11117 0)
(-4.46284 3.8476 -2.85788e-21)
(-8.78075 0.120756 -4.83563e-21)
(7.79885 -0.274009 -7.07282e-21)
(-11.3553 8.23174 -3.99653e-20)
(6.0404 -2.54464 0)
(-9.09594 4.68433 -1.56222e-20)
(-0.090595 -0.265682 -1.90555e-20)
(7.54304 -3.46852 0)
(6.87268 -2.40615 -9.54169e-21)
(0.020674 1.06721 -1.08868e-20)
(8.77381 1.36491 7.19235e-21)
(14.0347 -2.02391 -1.66239e-20)
(7.58691 0.31614 0)
(10.843 -2.21065 0)
(12.3986 2.2103 2.84567e-21)
(5.71027 -3.13298 -1.02616e-22)
(17.6533 -0.0936194 -3.60516e-20)
(7.6951 -4.45524 2.1336e-21)
(7.99048 0.00500302 4.34514e-22)
(5.74388 -0.0113241 -7.0688e-23)
(8.01238 0.414272 8.00919e-21)
(5.94069 5.9243 4.53279e-21)
(8.68206 -2.0436 0)
(-1.76166 0.805408 0)
(7.88668 -0.88021 0)
(6.52633 0.32378 0)
(7.71935 -1.42969 3.65776e-21)
(10.7916 0.0911306 0)
(-4.38502 6.38531 3.5873e-20)
(9.99654 -1.80078 1.23387e-22)
(6.29598 -2.07053 -1.59275e-20)
(6.71821 -6.49899 4.42425e-22)
(-11.2666 2.42856 -1.34714e-20)
(-3.59491 4.84357 -1.77858e-20)
(8.82371 0.102045 1.36423e-21)
(-12.1482 -1.68014 -1.79634e-20)
(5.87022 6.54094 9.40592e-21)
(10.0277 -0.422414 0)
(9.7631 0.224538 0)
(7.14193 -8.76038 0)
(9.60262 -0.845322 -4.20943e-22)
(10.8751 -1.40194 0)
(7.175 1.67003 0)
(8.01663 0.00956096 0)
(7.97502 -1.80157 3.34724e-21)
(8.13863 0.51803 -8.50254e-21)
(12.2806 0.0202476 0)
(9.46009 -2.79485 -4.12457e-21)
(7.89646 0.43786 -7.04756e-21)
(8.9255 3.0834 6.89887e-21)
(7.62053 -3.41741 3.99569e-21)
(7.38421 1.94202 1.02994e-22)
(6.40515 -4.98441 -1.19872e-22)
(5.29935 2.11016 -1.35861e-21)
(8.0634 -2.99508 4.58441e-22)
(9.0791 0.644639 -4.14893e-21)
(18.212 -3.67281 -7.11471e-20)
(7.53959 0.0608384 -7.71542e-21)
(8.37197 -0.00549899 0)
(5.85288 3.84241 1.94033e-21)
(7.93383 0.0542433 8.09001e-21)
(3.62085 -2.94601 -5.81461e-21)
(9.01923 -0.702517 -8.99024e-22)
(5.26104 -1.29967 -1.60442e-20)
(9.13532 0.537067 6.87497e-22)
(11.2138 2.11288 3.65111e-21)
(7.99215 0.161623 0)
(8.07764 -10.5092 2.24223e-20)
(8.73686 3.21139 9.79139e-22)
(7.24528 -2.91498 -4.19515e-22)
(5.90361 3.59907 -1.3155e-19)
(8.13395 0.0142419 3.67502e-21)
(7.5343 -0.715442 -3.97828e-22)
(9.8573 -0.0899854 -9.09689e-22)
(8.33926 -1.12099 0)
(7.40015 -4.36613 0)
(7.12729 -3.33685 5.98316e-21)
(-2.71689 0.3994 1.44271e-20)
(7.28234 0.202452 -6.73391e-23)
(7.93777 0.0476735 1.59787e-20)
(9.76348 -10.9819 -6.00363e-20)
(6.32193 0.358038 0)
(7.48808 0.0583875 0)
(7.25268 -1.64039 -2.03929e-22)
(9.55387 -0.24023 2.51046e-21)
(7.51303 1.81559 1.30284e-20)
(8.44476 -0.373142 0)
(8.0596 -0.214225 0)
(9.85804 -1.88901 -4.38727e-21)
(8.35286 -0.538231 4.3432e-21)
(2.34558 -1.88258 -1.69576e-20)
(7.95038 -0.151432 0)
(6.02647 3.83172 2.92474e-21)
(10.4053 -2.58101 -2.1393e-21)
(-6.29331 3.84542 -1.73541e-20)
(8.15609 -0.124666 -7.33893e-21)
(14.72 -0.308871 0)
(12.2115 -1.1678 9.17566e-21)
(6.21215 -1.58878 -1.87601e-20)
(-0.464041 -0.572179 0)
(9.80408 -0.483014 -1.06077e-20)
(7.78209 0.15953 -5.44366e-21)
(6.0483 0.228469 -5.9133e-24)
(6.83839 0.0917719 1.95707e-21)
(6.80995 7.0393 4.86089e-21)
(8.69833 0.0570835 0)
(5.20592 -1.95648 -1.81105e-22)
(8.90856 -9.83878 4.8933e-20)
(4.02149 -2.16673 -3.22422e-20)
(8.0051 0.856888 6.42169e-21)
(-2.05939 6.96307 7.46443e-21)
(7.92884 0.0225138 -1.69474e-20)
(5.67384 5.05377 -1.89125e-21)
(5.84188 4.05688 1.24283e-21)
(7.84901 -1.67239 0)
(8.44756 1.00089 6.51369e-21)
(5.52719 -2.50474 5.8461e-21)
(8.75554 -0.129634 -5.06927e-21)
(7.98752 0.0119926 -7.1772e-21)
(9.70935 -1.22189 2.50114e-21)
(7.30428 -0.871111 1.59191e-20)
(8.78143 -0.212773 -9.84379e-22)
(7.43424 0.1184 4.60356e-21)
(6.99564 -9.72971 -3.6419e-20)
(11.917 -0.711687 -1.19965e-20)
(8.73088 3.36013 5.62344e-21)
(8.70976 -1.42694 1.3253e-20)
(8.02858 -0.0273172 0)
(6.47244 -8.70623 0)
(12.7485 5.21898 0)
(6.25381 -1.93901 1.24622e-20)
(7.90132 0.0374497 -1.13877e-20)
(7.35517 0.457033 0)
(6.91632 -1.57331 -9.02236e-21)
(7.34604 0.384246 0)
(7.72944 -1.25902 -6.03277e-21)
(8.86266 -2.34949 -1.16289e-21)
(8.53811 -1.9045 -2.80957e-21)
(8.80468 0.0544136 0)
(7.92226 0.0118544 0)
(8.09706 -0.580485 -7.69562e-22)
(9.66793 1.14948 -7.20989e-23)
(10.4934 -0.104026 3.21463e-21)
(7.78881 5.16696 -5.69923e-22)
(7.68291 -0.0129444 0)
(8.0896 -2.82112 -1.56941e-21)
(-1.54861 -0.00432299 0)
(4.15342 2.07652 -9.69328e-21)
(9.51762 3.98707 0)
(7.37751 -0.75573 8.50465e-22)
(5.63835 -1.13209 6.0456e-21)
(6.78918 -0.891548 5.51184e-21)
(8.57705 -0.347691 4.9449e-22)
(10.3721 -1.57933 -4.01338e-20)
(8.30823 -0.669453 1.08848e-20)
(8.04573 0.911708 -1.37323e-22)
(13.3659 1.50291 2.72803e-20)
(8.84958 -1.47327 -1.12047e-21)
(-1.08375 0.303233 8.32343e-21)
(9.66332 1.74652 0)
(7.99546 0.0377176 -2.45257e-24)
(7.05658 -1.80788 0)
(4.97357 3.84036 -1.49826e-22)
(8.21961 -2.78668 -7.0275e-22)
(7.35534 -0.772936 -5.16593e-21)
(6.81031 0.152103 -6.15825e-23)
(9.94359 0.217575 -7.27168e-22)
(7.22491 -0.446006 1.15335e-20)
(9.00444 -0.203127 -2.30697e-21)
(14.8468 -3.36156 0)
(-3.17897 2.47628 0)