/*--------------------------------*- C++ -*----------------------------------*\
| =========                 |                                                 |
| \\      /  F ield         | OpenFOAM: The Open Source CFD Toolbox           |
|  \\    /   O peration     | Version:  2306                                  |
|   \\  /    A nd           | Website:  www.openfoam.com                      |
|    \\/     M anipulation  |                                                 |
\*---------------------------------------------------------------------------*/
FoamFile
{
    version     2.0;
    format      ascii;
    arch        "LSB;label=32;scalar=64";
    class       volVectorField;
    location    "7.8";
    object      U;
}
// * * * * * * * * * * * * * * * * * * * * * * * * * * * * * * * * * * * * * //

dimensions      [0 1 -1 0 0 0 0];

internalField   nonuniform List<vector> 
13486
(
(3.05736 -0.614677 2.28369e-18)
(3.41502 0.372387 1.14911e-18)
(4.58389 -0.0943902 0)
(-3.32947 1.5781 -5.41319e-18)
(4.77155 -1.07952 6.99781e-19)
(4.66824 0.153272 -5.24794e-20)
(4.92616 -0.821981 -6.54118e-20)
(4.0974 -1.51524 -1.11852e-18)
(4.00028 -0.88445 0)
(4.03664 1.15307 0)
(-0.577232 -1.15015 -1.61682e-18)
(5.26757 0.200549 0)
(2.79639 -0.986017 -2.25182e-18)
(4.80983 1.05998 -3.49559e-20)
(4.92047 -0.825158 5.81219e-19)
(3.95149 1.1506 -7.84261e-19)
(-1.23312 0.776807 2.93621e-18)
(3.97323 -5.99527 -4.20625e-18)
(4.47257 0.106011 1.97598e-20)
(3.35762 -0.264908 -2.37712e-18)
(-2.78491 0.488092 -2.49175e-18)
(2.83141 -1.01468 2.93673e-18)
(3.464 0.366923 -9.13836e-19)
(4.87887 -1.33988 0)
(4.09921 0.924827 2.6814e-19)
(4.86657 -1.35213 -3.7066e-19)
(-0.756835 0.0165363 2.48023e-18)
(4.59764 -0.185909 1.32897e-19)
(3.51804 -0.349315 0)
(4.01601 -0.526964 2.82083e-19)
(-0.234259 -1.97485 -1.85666e-18)
(5.29304 -0.761272 -9.90047e-19)
(5.15235 -0.715224 8.31059e-19)
(3.75837 0.054037 0)
(4.11869 -1.45814 0)
(3.05998 0.0251703 -4.28233e-22)
(4.36059 -1.39846 -1.187e-19)
(3.24433 -1.5286 1.12106e-18)
(8.3329 1.04824 -2.41782e-18)
(4.03191 -0.579956 1.22484e-18)
(5.09875 -1.61882 0)
(2.16963 -1.07364 -2.59688e-18)
(4.71593 0.0539528 0)
(4.11752 0.794385 -1.26525e-18)
(4.16921 0.751565 5.27319e-19)
(5.21747 0.201436 7.45001e-19)
(1.68181 0.623121 8.10444e-18)
(3.53842 -0.337891 -9.90351e-21)
(4.42291 -1.23526 9.21562e-20)
(4.8721 -0.0936467 2.67987e-19)
(4.00169 0.0608369 1.4388e-18)
(7.78396 -1.20721 0)
(5.63354 0.388704 -9.74956e-19)
(3.4351 -1.31859 -1.65391e-18)
(3.63829 -6.23806 0)
(4.70837 -1.09728 -4.79993e-19)
(3.58175 -0.526674 -1.7291e-19)
(8.67644 -0.364485 -2.24728e-18)
(5.11737 -0.684189 9.08884e-19)
(3.45113 -1.59549 0)
(0.745676 -0.613882 -1.35237e-18)
(3.40004 -1.50077 0)
(6.51859 -0.550665 -1.55447e-18)
(-2.66174 0.618547 -2.63968e-20)
(5.5885 -3.10572 0)
(4.09402 -1.44227 -5.20292e-20)
(-3.50671 1.682 -5.13914e-18)
(3.01617 -0.105081 7.8909e-19)
(4.00635 -0.937743 -6.81621e-19)
(2.25092 0.191824 4.29668e-19)
(-3.19356 1.65425 5.86597e-18)
(3.97524 -6.56613 -3.63116e-19)
(4.01046 -0.321605 9.23097e-19)
(-0.689538 0.45139 -2.24002e-18)
(3.79509 -1.2722 -9.04256e-21)
(3.23007 -0.479781 4.09873e-20)
(3.8954 -1.1904 -1.02536e-20)
(4.90785 -0.846237 -2.24396e-19)
(1.396 0.0181364 -4.46006e-18)
(0.985663 3.5543 0)
(3.55634 0.0133047 4.14718e-21)
(3.32925 0.547117 -7.17778e-20)
(6.65287 -0.959692 -7.27864e-20)
(4.70604 -0.0703837 -1.97364e-19)
(3.048 -0.627428 -4.49539e-18)
(2.80397 2.78981 0)
(2.26288 4.48561 -1.21239e-18)
(4.01007 0.0948177 -2.17425e-18)
(3.77706 0.343777 -9.35035e-19)
(3.74702 1.60526 -9.52744e-19)
(5.88399 -0.649857 -5.876e-19)
(4.35509 -1.30856 -5.9887e-19)
(3.17464 -0.794304 5.92896e-19)
(3.41347 -0.00883706 6.27581e-20)
(3.8285 -1.25508 2.6528e-19)
(3.50954 -0.250657 3.31597e-21)
(-0.639624 -0.187641 0)
(-3.1446 1.95784 2.96516e-18)
(4.06219 -0.577874 -2.34793e-18)
(-1.70938 0.89477 5.7203e-20)
(3.32951 0.0473871 0)
(4.75616 1.05647 -2.63963e-20)
(-3.08551 1.78837 1.35283e-19)
(8.18223 -1.02224 2.65747e-18)
(2.81127 2.65561 0)
(-2.12888 0.891835 6.01902e-20)
(3.91759 0.0956851 3.0847e-21)
(7.39832 2.68557 -6.07676e-18)
(1.6196 0.478583 5.60089e-18)
(3.96921 -1.79407 0)
(3.02189 -1.43326 0)
(5.06145 -1.04467 -1.15821e-18)
(3.45142 -1.27734 1.04476e-20)
(3.84619 -0.54238 1.36066e-20)
(2.405 -0.316702 0)
(2.863 -1.41134 -9.5592e-19)
(4.08455 0.94087 0)
(4.21472 0.133643 0)
(3.99609 -0.307772 0)
(4.5269 -0.847514 -2.76241e-20)
(4.51936 -5.39723 2.8368e-18)
(0.478014 -0.313393 0)
(3.77445 -1.14772 0)
(8.04432 1.19738 7.00703e-18)
(3.91275 -1.42566 0)
(8.33337 -1.25989 0)
(4.54697 -0.618182 2.87718e-20)
(4.30816 0.109783 5.67234e-19)
(4.23128 0.165912 2.33211e-19)
(4.94365 -3.59983 -9.7391e-19)
(7.62496 -1.65151 -2.07511e-19)
(2.17648 0.540907 -2.08345e-18)
(2.95514 0.56864 3.40629e-18)
(-0.419051 0.0951619 3.30321e-18)
(3.99815 0.0283129 -2.33431e-19)
(3.83386 0.668044 -1.09221e-18)
(1.59475 1.06132 -6.83622e-19)
(3.99264 -1.76217 0)
(4.51953 -0.694923 7.90586e-21)
(4.16284 -1.23622 -4.16662e-19)
(5.06857 -0.344152 -8.03996e-19)
(5.81846 0.27127 8.2097e-19)
(5.478 -0.331477 0)
(1.02565 3.55432 0)
(4.98339 0.0381799 7.62769e-20)
(5.96965 -1.46372 -2.29841e-18)
(4.00894 1.48639 -3.07253e-19)
(0.740365 2.56828 0)
(4.90014 -0.154162 0)
(3.46952 -0.401661 0)
(4.02932 0.0368291 2.2947e-20)
(4.90201 -0.937225 0)
(3.48458 0.012522 -4.3631e-21)
(3.29574 0.521353 -6.15071e-19)
(4.32876 0.47551 0)
(4.84859 -0.0986674 0)
(3.66058 -1.68047 0)
(-0.893748 0.899952 8.15604e-20)
(3.62256 -1.48633 2.32549e-18)
(2.40858 -0.559085 2.51959e-19)
(4.77754 -0.0284082 1.22998e-19)
(3.64573 -1.43673 -3.55539e-18)
(4.74293 -1.29932 3.81333e-19)
(1.9954 -0.95917 1.14625e-18)
(8.28124 -0.675745 0)
(4.98618 1.02119 -1.18182e-19)
(4.66626 0.982669 3.13142e-19)
(1.2966 -0.468835 -2.80164e-18)
(3.90051 1.42858 7.94523e-19)
(-0.412244 0.0879303 8.91041e-19)
(1.71287 0.532901 -2.33231e-20)
(4.32338 0.426968 4.50555e-19)
(3.99657 0.178652 -1.81518e-18)
(4.87135 -0.485417 5.02851e-20)
(3.58016 -0.0662715 3.38273e-21)
(2.02408 1.32339 0)
(4.82929 1.5907 2.01626e-20)
(5.28379 -0.468106 1.22409e-18)
(3.92834 0.0764022 -2.32837e-18)
(5.44287 -0.227679 0)
(4.15041 -0.68174 2.46312e-18)
(3.9611 -0.516141 2.62771e-20)
(5.06536 -0.437688 -9.99196e-21)
(0.279427 -0.0903324 0)
(4.44985 0.28099 5.13743e-19)
(4.25005 -0.165272 -6.41057e-20)
(3.79021 -0.529535 1.25661e-22)
(4.09206 -0.215895 1.25039e-19)
(5.05322 -1.55351 0)
(2.66888 -1.28643 -1.21512e-18)
(4.40727 -1.02492 0)
(4.77965 -0.0863285 0)
(8.07038 1.55363 0)
(2.90839 1.31363 -1.30324e-18)
(6.80266 2.61414 0)
(-0.774983 -0.843426 -4.2977e-19)
(4.98753 -3.37549 1.98932e-18)
(4.65409 -0.0272924 6.68519e-20)
(2.62664 -1.29956 -4.86188e-19)
(4.94266 0.954659 -9.93415e-21)
(-0.483648 -2.28344 2.06856e-18)
(4.32682 0.131959 -1.73206e-20)
(3.10035 -1.50124 -1.30364e-18)
(3.97598 -1.68054 8.47057e-20)
(2.48736 -0.6593 -2.88537e-19)
(6.70678 2.11476 -2.83106e-19)
(2.72369 -5.12678 -1.21698e-18)
(3.83462 -0.189645 1.85899e-18)
(8.51024 1.74802 0)
(4.51671 0.183475 0)
(4.39798 -0.136897 -2.26325e-19)
(4.72107 -1.90531 6.93157e-19)
(3.38514 -0.227553 2.16737e-18)
(3.91363 0.0988933 2.59648e-21)
(4.67438 0.225043 6.04645e-20)
(1.81269 -1.19835 -8.12438e-20)
(4.1375 -0.474041 0)
(3.77965 1.54457 2.26909e-18)
(3.33199 -0.831635 0)
(5.97803 0.648294 0)
(-1.46695 0.743773 -5.58234e-18)
(4.88671 -0.133302 0)
(4.12238 -1.23448 9.58093e-19)
(5.03189 0.000608896 0)
(5.83899 0.753801 -1.41601e-19)
(2.81165 -1.32983 8.01838e-19)
(4.90229 0.359475 -5.60518e-21)
(0.903202 -2.05584 1.56168e-18)
(1.94311 0.982024 -3.48533e-20)
(1.5947 3.94281 -1.68866e-19)
(4.16418 -0.672849 -7.9495e-19)
(3.8365 -0.190402 1.33285e-18)
(5.07801 -0.466131 1.00667e-18)
(2.20273 -1.08317 8.89545e-19)
(-2.43415 0.976404 0)
(2.51462 -1.22723 9.48994e-20)
(4.02026 -0.054518 -4.08675e-19)
(4.73407 -0.0750691 -1.35181e-19)
(2.33721 -1.13152 2.52353e-18)
(5.0266 -0.211113 0)
(5.09515 -0.766697 0)
(4.00953 0.13002 2.75063e-18)
(4.91794 -0.297253 0)
(2.25811 -1.12997 8.60307e-19)
(3.99234 1.27275 -7.22898e-18)
(3.66361 0.0344326 0)
(4.83479 0.0370829 -2.49015e-19)
(4.43409 -1.1304 6.58641e-19)
(-0.234506 0.088124 5.51085e-18)
(4.0559 0.746041 0)
(-1.9607 2.19684 -1.0303e-18)
(2.34149 -0.258011 3.28418e-19)
(2.55527 -1.25409 1.18652e-18)
(6.96923 3.11581 0)
(2.14446 2.63759 -1.57329e-19)
(2.10344 1.14043 5.47857e-19)
(5.36699 -0.716425 8.36044e-19)
(1.64919 -1.53709 1.02946e-19)
(-0.796846 1.03411 -8.41387e-20)
(5.04544 -0.767867 5.96437e-19)
(3.62216 0.318454 0)
(2.00303 0.266378 -1.42866e-19)
(4.90635 -0.825606 -1.36431e-18)
(1.94995 1.42397 -6.76891e-19)
(4.57414 -1.49742 -6.15857e-19)
(0.147064 -0.0255283 0)
(2.29457 1.03281 7.94072e-19)
(-1.20151 -1.08903 -2.81585e-18)
(4.23715 -0.0224586 -1.10686e-18)
(7.68117 -0.932454 0)
(3.16561 1.53176 9.60764e-19)
(3.93379 0.11457 -6.28427e-19)
(4.11957 -0.562134 0)
(5.32824 0.399815 6.17139e-19)
(2.77026 -1.33849 1.07126e-18)
(4.37367 -1.10396 -3.62441e-19)
(1.99636 2.80077 0)
(2.51468 -5.90316 0)
(5.99191 4.62772 -4.5455e-18)
(4.26716 1.55651 5.59754e-19)
(3.20438 -6.11873 2.88773e-18)
(4.36972 -0.469604 -9.50347e-19)
(3.87891 0.133275 1.36551e-18)
(5.279 -1.48932 -9.47811e-19)
(0.0689984 0.241009 1.8399e-18)
(-1.29097 0.429824 5.05571e-18)
(5.10418 -0.333058 8.84395e-19)
(3.8019 0.199076 -3.05326e-19)
(5.90777 0.801599 2.22244e-19)
(4.0925 -0.0145767 0)
(-2.88459 1.18841 0)
(1.42768 -3.03445 1.11308e-18)
(2.93386 -1.41249 9.44944e-19)
(3.99074 0.0456027 -2.29794e-19)
(3.89737 -0.017357 -4.84985e-19)
(4.04777 -0.134335 0)
(4.30306 -0.0753921 -1.48743e-19)
(5.22095 0.42713 -5.55886e-19)
(3.86088 0.0850885 -1.25783e-18)
(5.15016 -0.949301 1.16135e-19)
(4.74676 -1.72348 -4.93005e-19)
(2.97394 -5.44387 -1.07722e-20)
(4.16727 1.4941 -4.86584e-19)
(5.26426 -0.72601 9.41226e-19)
(4.81217 -0.935003 4.21343e-20)
(3.38416 -1.56293 0)
(1.72993 -0.0506948 0)
(4.64457 -0.0195592 4.9261e-19)
(1.54415 5.03519 1.1909e-18)
(4.37688 -1.17496 0)
(4.67015 3.13797 -5.40089e-18)
(-3.538 1.61352 0)
(4.64999 1.575 1.28496e-19)
(5.13609 -1.02696 -1.17391e-18)
(5.01992 -2.3833 0)
(3.81076 0.615421 -6.85396e-19)
(1.8115 -2.67194 -1.51092e-18)
(3.77771 0.299539 -8.02095e-20)
(3.82828 -0.168288 -2.0429e-18)
(2.40235 0.56324 0)
(4.18047 -1.30244 9.23469e-20)
(1.9325 -4.03687 6.59203e-20)
(3.94804 0.0935817 2.93715e-19)
(3.37558 0.0942879 -1.16983e-18)
(1.78512 1.00634 1.23732e-18)
(5.72142 -0.706109 1.07109e-18)
(4.62213 -0.838886 -2.63749e-18)
(4.40196 -0.462072 0)
(4.85513 0.579181 5.8974e-21)
(4.68805 -0.847267 -4.66497e-19)
(4.00725 0.0595323 3.1553e-18)
(4.42581 -1.29405 0)
(6.04111 -0.766066 -2.32326e-19)
(3.04892 0.513819 0)
(4.91529 -0.81875 -1.125e-18)
(3.95769 -1.17585 -7.31901e-19)
(1.79845 -0.863801 1.04829e-18)
(4.87329 -0.942802 -7.20138e-19)
(4.05144 0.335623 0)
(2.50319 -0.166827 -1.10201e-17)
(2.64068 0.752204 -8.08105e-19)
(3.39466 0.0953207 1.10314e-18)
(4.72883 -0.858419 1.8894e-18)
(5.05028 -0.447203 1.15857e-18)
(-1.01791 1.40975 -1.9282e-18)
(3.54495 -0.307967 4.70013e-21)
(4.65622 -0.458585 0)
(2.33047 -0.869997 2.58817e-18)
(6.00002 0.598947 0)
(1.49701 -3.15117 -1.50844e-19)
(4.70387 -0.229997 1.7559e-18)
(5.08082 0.589026 -6.39201e-19)
(5.35592 0.409423 5.18792e-19)
(-0.396112 -0.285922 -2.62521e-18)
(3.8731 0.0875196 1.56964e-18)
(3.49333 0.0966969 0)
(-0.649639 0.298417 -1.94298e-18)
(4.57078 -0.616641 -5.79524e-19)
(1.28083 4.12686 -8.79089e-19)
(4.22859 -1.44795 4.95664e-19)
(5.08167 0.0821502 0)
(6.10664 -0.525229 5.96985e-19)
(3.65038 0.192487 2.38647e-18)
(3.92695 0.133989 1.9165e-18)
(4.00694 -0.62175 0)
(3.44117 0.0161835 -9.40561e-22)
(3.91151 -0.127998 3.83828e-19)
(2.60066 0.703632 1.02489e-18)
(3.32871 -0.267954 3.00119e-19)
(4.57079 -0.558873 5.4888e-19)
(5.01178 0.0853885 -2.58038e-20)
(4.62285 -0.446102 0)
(5.68438 0.988381 -5.29872e-19)
(-1.64153 2.05793 8.62347e-19)
(4.72055 0.499554 -1.09517e-19)
(3.99254 0.0593214 1.21127e-18)
(3.00192 0.0292769 0)
(1.82429 -3.44597 -7.52644e-18)
(5.14794 -2.13992 0)
(6.63717 1.40344 -1.0038e-18)
(4.26253 -0.0396669 0)
(4.38672 -1.46467 -2.3981e-20)
(2.87632 -0.421947 -6.30654e-19)
(3.20628 1.32002 2.24018e-18)
(2.3707 0.974312 -4.40507e-18)
(2.61002 2.2701 0)
(4.55583 0.0867204 -4.46806e-19)
(4.06701 0.357826 -7.27112e-19)
(-0.750617 0.627928 -1.8554e-18)
(-1.24228 -0.536309 2.24417e-19)
(3.43725 -0.258308 -3.28666e-18)
(4.28447 -0.494833 3.77392e-20)
(4.16956 0.314264 5.32588e-19)
(3.13221 -1.04722 0)
(2.93349 0.352105 1.24476e-18)
(4.30549 -0.646331 5.45739e-21)
(-3.5933 1.64404 3.18406e-18)
(-1.73549 2.07212 -3.05405e-18)
(-1.10977 0.833697 -3.58998e-18)
(5.12891 -0.332301 0)
(-0.949993 0.767152 0)
(4.06799 1.8675 0)
(4.29325 -0.203076 0)
(1.94845 -0.442102 -6.44001e-19)
(4.8876 -0.833382 0)
(4.3003 3.63734 0)
(3.44741 0.0501631 4.52899e-19)
(5.20574 -0.452239 -1.27436e-18)
(4.57084 -0.420115 -1.36023e-18)
(3.50366 0.453045 3.87028e-18)
(4.01706 0.0446489 -3.75189e-19)
(4.73995 2.76087 0)
(4.45354 -0.480386 0)
(3.84674 0.0903957 1.34194e-18)
(3.95863 0.0530228 2.35063e-19)
(2.78869 1.41046 0)
(0.193025 -0.0119332 2.21453e-18)
(4.54611 -1.52143 6.97366e-19)
(0.401136 0.494218 0)
(5.04176 -0.21326 1.11786e-18)
(3.9266 0.0919928 -1.56176e-18)
(1.93571 -1.73455 -6.6153e-19)
(2.31297 -0.846341 0)
(4.03519 0.35614 1.3525e-18)
(4.88272 0.137528 0)
(3.96659 -0.232784 0)
(4.36226 0.28796 -8.00275e-20)
(3.86966 0.139509 7.17193e-19)
(-0.820993 0.0790344 -3.22824e-18)
(4.58438 0.97943 1.51649e-19)
(2.91873 -0.841318 -1.11714e-18)
(4.26427 -0.173972 1.64852e-19)
(4.1702 0.31873 4.20769e-19)
(5.73466 1.03741 1.4252e-18)
(4.73111 -1.48006 0)
(4.58816 -0.988797 3.59324e-19)
(2.88389 -0.314125 0)
(1.0734 -3.44753 1.70976e-18)
(4.82937 -0.497773 0)
(3.05725 -0.063844 1.66141e-18)
(-1.519 2.11994 -5.88852e-18)
(4.2572 -0.447167 0)
(-0.836803 0.178669 1.50752e-19)
(4.48327 -0.512204 -2.43534e-19)
(1.0325 2.28587 -6.83041e-19)
(3.69567 -0.66414 3.11418e-18)
(2.96854 1.26338 -1.454e-18)
(2.89685 -0.832073 -3.16473e-18)
(6.68454 1.29157 0)
(4.5909 -0.88656 5.37167e-20)
(-1.06051 1.44443 -4.4312e-18)
(4.0405 0.382189 0)
(3.74458 0.343758 8.68322e-20)
(4.91545 -0.120975 -5.47246e-20)
(5.40223 1.63765 0)
(4.00208 0.0268581 0)
(-1.68511 1.36072 0)
(2.73712 1.12056 3.06749e-18)
(5.2929 -1.55166 1.15741e-18)
(5.79909 -1.3948 1.00073e-19)
(4.58114 1.52912 0)
(3.56599 -0.482904 2.1328e-18)
(3.61029 -0.0626824 -7.49546e-21)
(4.56534 0.902677 -3.29466e-19)
(-3.16181 1.42365 4.50429e-18)
(3.84301 0.264146 0)
(3.46621 -0.350571 0)
(1.82734 -0.439848 -1.76544e-18)
(3.08175 -1.02375 -7.73328e-19)
(4.02561 -0.461957 0)
(3.12389 -1.50211 -8.7109e-19)
(3.40225 0.0628035 2.62894e-21)
(3.48528 -0.227426 -4.53382e-21)
(1.99135 -0.954857 0)
(4.98624 0.724733 -5.94231e-19)
(4.4753 -0.657758 2.03884e-20)
(4.85304 0.103751 1.22065e-19)
(3.92761 -1.21681 0)
(-1.64884 0.563399 -7.73717e-18)
(5.1743 0.496805 6.05883e-19)
(4.0036 0.180459 2.83866e-19)
(3.62673 0.127197 4.45697e-20)
(5.08091 0.959034 0)
(3.44981 0.449618 -1.03275e-18)
(5.76982 0.210528 -6.7891e-19)
(-1.23103 0.8516 7.56675e-19)
(4.02725 0.103561 0)
(-1.19706 -0.954628 -2.28298e-19)
(1.35382 -0.384831 0)
(4.0161 0.101475 -1.10069e-18)
(3.98551 0.144414 4.7815e-19)
(3.78608 0.0160375 -2.60879e-19)
(1.95776 1.46495 0)
(4.27439 -0.0510877 -3.10709e-19)
(2.45182 0.608441 3.43546e-18)
(4.66409 -1.46795 0)
(3.38914 0.00776601 1.43363e-18)
(5.09398 -1.01516 -1.30702e-19)
(4.45855 -0.00630438 0)
(-0.898246 -1.57027 1.47279e-18)
(1.21477 4.07961 -7.83911e-19)
(5.01955 0.0774755 0)
(-2.79048 0.884307 5.54512e-18)
(3.72052 0.318713 0)
(3.66821 -1.67179 9.26382e-19)
(-1.63386 2.18486 1.86818e-18)
(3.74749 -0.481616 1.57563e-22)
(4.69555 0.192044 5.18448e-20)
(2.91936 0.350139 6.58945e-19)
(3.69729 -0.718144 -1.16007e-18)
(2.58242 2.50734 3.60687e-19)
(3.71309 -1.66683 9.96797e-21)
(4.52972 -0.552178 5.29767e-19)
(5.07451 0.960807 2.77291e-19)
(4.10128 -1.82704 0)
(3.99296 0.0501664 -1.07401e-18)
(1.78545 0.52481 -1.72783e-18)
(2.93368 -0.319893 0)
(3.94909 -0.74884 1.788e-20)
(2.24304 0.243324 0)
(2.70545 -0.876482 2.72929e-18)
(4.31381 -1.61213 0)
(3.14644 0.0287947 -5.60645e-21)
(4.72848 -0.226875 -9.93979e-19)
(-0.111364 -2.28526 2.8216e-18)
(-2.44709 1.73759 3.33162e-18)
(4.94132 0.0490771 -1.10157e-20)
(3.2306 -1.54095 6.85544e-19)
(3.74475 -1.14244 1.05993e-18)
(3.16857 -0.809837 0)
(0.499171 -0.286329 -1.39516e-18)
(4.78335 -1.33812 -1.49179e-19)
(0.452685 -0.30862 -1.62696e-18)
(3.53011 -0.291124 2.51665e-21)
(3.11171 -1.25702 0)
(4.41779 -0.0158732 -6.70368e-21)
(0.0909814 0.0434709 0)
(-2.84824 1.98855 1.42555e-19)
(2.09895 -2.18847 8.84582e-19)
(-0.808055 1.07646 0)
(4.27537 -1.16353 3.11642e-19)
(5.56189 -3.63942 0)
(5.43492 1.43424 0)
(3.35038 -1.58006 -1.22386e-18)
(3.10016 0.436679 1.01171e-18)
(0.151313 2.26589 0)
(3.66294 0.236834 -6.5491e-19)
(6.01771 -1.43155 2.62933e-18)
(-1.36184 1.93475 3.4804e-18)
(5.45849 2.20655 0)
(4.28987 -0.0468246 0)
(-0.97921 1.26195 -1.85407e-18)
(3.86371 -0.316404 0)
(4.69489 0.00947306 0)
(1.10197 -0.386714 4.82354e-20)
(4.28108 -0.873073 -1.58652e-18)
(3.66593 -0.972381 9.37801e-19)
(4.98573 -0.860497 8.39316e-20)
(0.526823 -0.307067 2.90485e-18)
(3.9854 0.128432 5.44519e-19)
(3.23621 -0.869153 0)
(4.31884 0.712087 -2.12977e-19)
(3.0327 -0.569982 0)
(4.0027 -0.0616313 0)
(3.99929 0.218977 0)
(4.34106 0.258836 -6.57514e-20)
(3.79475 -0.170994 9.45438e-19)
(5.36787 -0.156729 -9.50229e-20)
(3.31822 -0.878467 0)
(-0.488719 -0.10084 -2.18935e-18)
(4.12159 1.75781 3.79126e-19)
(3.90913 -1.44977 9.87602e-20)
(3.79071 0.308636 6.18238e-19)
(4.2322 -1.096 3.73806e-19)
(4.11412 0.0770994 -8.9843e-19)
(-1.02806 2.23298 0)
(5.25542 0.414398 0)
(3.05453 1.31658 0)
(2.73421 -1.24456 -1.9848e-18)
(3.76127 -4.94576 -2.90954e-18)
(0.529637 0.837505 0)
(4.35904 0.719253 0)
(6.04651 0.576044 4.61159e-19)
(3.99321 -0.0307596 -2.63629e-19)
(3.85536 0.938345 1.14238e-18)
(3.96794 -1.6715 0)
(-0.952946 -0.177583 -8.16356e-19)
(4.60037 0.0908607 2.19935e-19)
(3.02106 -0.957759 -1.8645e-18)
(4.36923 0.0835759 -3.94816e-19)
(4.55137 0.896657 5.23252e-19)
(5.34409 -1.5694 8.84622e-19)
(2.6958 -1.24733 3.43992e-18)
(2.47691 -2.39384 2.98315e-19)
(4.23803 -0.51353 3.17954e-20)
(3.99377 0.0219338 -2.68229e-19)
(2.88564 -1.33779 -2.67518e-19)
(1.4152 4.26584 4.80099e-19)
(3.27798 3.49143 -2.72227e-19)
(3.11829 -1.4903 4.48206e-19)
(4.78628 0.549199 0)
(2.67903 3.51435 1.12034e-19)
(4.33588 -0.048073 -1.06496e-18)
(5.64762 0.85351 3.71452e-19)
(2.96926 -0.895942 -1.69724e-18)
(3.8786 -1.40113 -1.08502e-18)
(4.20005 -0.0171812 2.73046e-18)
(5.5041 -0.0950746 -1.54283e-18)
(6.43995 2.93963 1.09172e-18)
(5.14873 -0.314302 -4.40624e-19)
(2.56402 -0.516742 -3.72989e-18)
(4.3831 -0.0149547 -8.79013e-19)
(2.53633 -0.618294 0)
(0.835075 -1.71079 -6.61863e-18)
(4.18432 0.0393958 2.30017e-18)
(2.76812 0.00447742 -2.98188e-21)
(-0.689394 0.55457 0)
(3.60633 -1.65991 0)
(4.07578 0.670116 1.01493e-18)
(2.32105 -0.496908 2.31005e-18)
(6.04684 -2.17802 -2.42915e-18)
(4.42792 -1.46853 -4.87225e-19)
(4.65043 -0.863706 1.4294e-18)
(6.07495 0.511214 0)
(4.10379 0.730335 5.52169e-19)
(3.72092 -5.42166 -2.84312e-19)
(4.93012 1.64104 1.3732e-19)
(4.10393 -0.6306 -1.40877e-18)
(0.496069 -0.287816 -4.7042e-18)
(4.24364 -1.04912 -3.2705e-19)
(4.61736 -1.06213 2.69708e-19)
(4.52464 1.96534 0)
(3.26728 0.136311 3.48258e-19)
(3.79888 0.0127588 2.39526e-19)
(3.57558 -0.0095504 2.38457e-21)
(2.03582 -0.997372 3.12437e-18)
(4.05153 -0.63402 2.09688e-18)
(2.34602 -0.912045 7.96193e-21)
(-1.46559 1.97385 -2.1392e-18)
(3.94973 -0.161097 9.64049e-20)
(4.38966 -0.0315122 7.86142e-19)
(-0.030944 0.137921 -2.47683e-19)
(4.75864 1.53492 1.65903e-19)
(-2.20206 1.01116 -6.01214e-18)
(2.40112 -1.17352 -1.05341e-18)
(3.53289 -0.00602948 0)
(3.50519 -0.514633 -1.58309e-19)
(1.17328 0.857269 -8.1233e-19)
(2.8647 -0.475002 3.41988e-18)
(4.87603 -0.122041 0)
(4.97393 -1.48234 2.7724e-19)
(2.61725 -1.11708 7.73669e-19)
(3.98772 0.0920211 -2.34077e-18)
(-1.17603 1.19677 -2.18129e-18)
(-0.0937179 3.01001 -8.30648e-19)
(4.59474 -0.440861 9.22643e-19)
(4.46137 0.0746733 6.61233e-19)
(3.71497 -1.68959 -1.27832e-18)
(5.21194 -0.294236 1.27836e-19)
(4.28834 -4.54712 -6.98171e-18)
(4.27204 -0.0361887 9.99506e-19)
(4.22641 -0.150265 -7.13373e-19)
(4.2507 0.152482 -2.21474e-20)
(4.83033 -0.0447877 -1.61786e-18)
(2.53655 -1.14134 -1.49616e-18)
(4.26916 -0.482026 0)
(0.76351 0.745081 3.4252e-18)
(4.21318 0.0876192 1.73169e-19)
(1.8185 -1.07792 -1.09296e-18)
(4.7712 0.00779647 9.69031e-20)
(4.54554 -0.90064 -8.44458e-19)
(3.99927 0.0405922 -1.85291e-18)
(4.18597 0.506091 3.1499e-19)
(0.0819385 0.0672292 -2.28067e-18)
(4.71053 -0.0276602 0)
(1.37093 -3.55254 4.00677e-18)
(4.95411 0.657353 6.53327e-19)
(3.13003 -1.22763 0)
(4.24008 0.124481 6.22805e-19)
(4.77404 0.619859 8.7723e-19)
(4.56797 -0.0637281 9.33394e-23)
(5.29153 -1.63422 2.55829e-19)
(6.03515 1.65024 0)
(3.63465 0.536815 1.88274e-18)
(2.84877 -0.775984 1.50651e-19)
(3.07022 -1.47529 1.02072e-18)
(4.15577 -0.441858 0)
(3.10004 0.374916 -2.92359e-18)
(5.24943 -4.67358 2.83711e-18)
(4.99956 2.4243 -6.95446e-19)
(2.58543 -0.551339 3.58797e-18)
(5.33355 0.038434 1.08709e-19)
(-2.22901 1.6496 2.50835e-18)
(3.94225 -0.271449 -1.49474e-18)
(4.64546 -0.861615 -5.5859e-19)
(3.6238 0.185196 -1.3821e-18)
(4.54917 0.0338854 0)
(3.9915 0.0535827 -1.01417e-18)
(0.343802 -0.262459 3.07907e-18)
(-0.774333 0.198006 0)
(4.75077 -1.51527 0)
(3.57621 -0.00799944 0)
(-1.31402 0.834229 0)
(4.10711 0.525946 0)
(2.44928 -0.490747 0)
(2.48357 -0.956086 7.50004e-21)
(5.66097 -1.34704 -1.19508e-18)
(4.95366 0.397368 0)
(3.60666 0.500218 2.85293e-18)
(6.32261 -0.671284 -1.77648e-17)
(4.15576 0.349031 2.09026e-20)
(1.26273 0.534404 -3.44463e-19)
(2.45512 -0.068833 -6.53391e-21)
(-0.117357 0.287314 1.96524e-18)
(3.78267 0.0366824 -7.57699e-19)
(4.79751 -0.155351 3.77002e-20)
(4.05962 0.503071 -7.04255e-19)
(3.77437 0.296643 -1.86047e-18)
(4.01013 1.64032 -8.6275e-19)
(6.48417 1.33756 0)
(-2.31222 0.326764 6.77798e-19)
(2.74734 -0.909489 -3.00292e-18)
(4.01773 0.0359018 -3.08814e-18)
(4.78782 -1.38434 -7.56586e-19)
(4.50091 -0.0184031 2.46802e-19)
(5.52587 -1.17006 -3.19934e-19)
(4.42818 -0.710809 -1.89997e-19)
(4.30226 -1.14189 -1.08706e-18)
(4.06639 0.320372 7.60585e-19)
(5.55248 3.20354 0)
(3.05314 2.76267 3.20836e-19)
(3.48192 0.00416855 -4.1922e-19)
(4.86609 -0.881201 0)
(6.79449 3.8472 0)
(3.85729 -1.75116 -1.44474e-20)
(-2.68188 1.95201 2.79682e-18)
(2.34088 -1.11664 4.57894e-19)
(7.55178 -2.27136 0)
(3.86821 -0.182606 -1.95435e-18)
(3.66322 0.32607 -3.59609e-19)
(-0.277375 0.271662 2.20399e-18)
(4.51063 0.319646 5.00074e-19)
(-0.469263 0.51735 0)
(-2.65018 0.38936 8.90588e-19)
(4.7008 0.465145 0)
(2.8887 0.144764 -4.50979e-19)
(6.09018 -0.519897 -5.11579e-19)
(3.99441 0.0538215 -1.0149e-21)
(4.70408 0.99664 -5.5622e-19)
(5.38953 1.9763 -1.32918e-19)
(3.65831 -1.0955 2.21729e-18)
(0.47082 -3.54221 0)
(4.7008 -4.32574 -2.29933e-18)
(1.00452 -5.21272 0)
(5.03459 0.346708 -1.01444e-19)
(-0.815239 0.780312 4.53252e-18)
(4.80281 -1.77023 6.91704e-19)
(2.00955 -2.85555 -5.25852e-18)
(2.51267 1.01216 -2.75157e-18)
(2.72326 -1.32908 -1.18318e-18)
(2.82675 -0.919498 -1.71353e-18)
(4.35666 -0.677185 -1.98707e-21)
(4.72042 -4.27073 1.91074e-18)
(2.58915 -1.16749 1.23492e-18)
(2.93133 -0.973191 1.91011e-18)
(3.4088 -4.98076 4.01191e-18)
(5.18191 -3.14202 -8.25925e-19)
(3.86112 -1.25794 1.09525e-18)
(1.15508 1.69148 4.34384e-18)
(5.15436 -0.000140979 1.00747e-19)
(5.25136 -1.76655 1.59981e-17)
(4.58491 0.58825 -2.31857e-19)
(4.65614 -1.13549 0)
(-1.16241 0.68356 -7.0536e-18)
(4.18926 -0.0349841 -1.21734e-18)
(3.99295 0.236984 0)
(4.98299 0.311309 0)
(3.7039 -6.4252 -2.92495e-18)
(4.93258 -1.05284 -8.75801e-19)
(4.68605 0.251471 -2.70847e-19)
(4.26624 -0.859432 2.07016e-18)
(3.9777 1.56667 7.63378e-19)
(3.26792 -0.0237532 1.81977e-18)
(-0.49708 1.19692 -6.96014e-20)
(3.64889 0.996601 0)
(2.98429 -1.02523 1.84524e-18)
(0.734831 -2.10297 1.03108e-18)
(2.36304 1.28778 2.15151e-18)
(3.63134 -1.41566 3.56132e-19)
(3.57078 -1.62116 -9.94509e-20)
(3.79723 -0.0214401 9.79392e-19)
(7.4636 -0.0560636 3.13517e-18)
(3.91283 -0.508102 -3.20375e-19)
(-0.207943 1.18037 -2.6914e-18)
(4.6543 0.256873 2.10268e-19)
(3.88375 0.0800331 7.83677e-19)
(2.52976 -0.617157 -1.48379e-18)
(3.853 -0.275072 1.20737e-18)
(6.5828 2.85219 0)
(4.71782 0.521679 2.34028e-19)
(3.93705 0.0866036 1.7586e-19)
(3.14019 -0.749972 -5.8649e-19)
(3.76385 3.06106 -1.03909e-19)
(3.80446 -1.234 8.14959e-19)
(4.12837 0.0353956 3.40746e-19)
(2.9414 0.0505155 -2.25845e-18)
(4.92079 -0.846664 0)
(3.01394 -3.87584 -7.61269e-18)
(4.3967 0.116749 5.38707e-19)
(4.73959 0.593697 0)
(2.98298 -0.144084 1.27994e-18)
(4.58079 0.326704 0)
(3.59649 3.0502 1.11386e-18)
(5.27638 -0.0486565 0)
(3.1462 2.48709 0)
(5.21249 0.200271 3.71328e-19)
(4.62107 0.193539 2.12395e-19)
(5.38832 -0.093326 -9.45799e-19)
(3.85238 0.249278 -8.57203e-19)
(3.26449 1.98163 -6.18232e-19)
(4.00107 0.195801 -3.49115e-19)
(4.15959 0.526234 0)
(6.4849 -1.70538 -5.70004e-19)
(4.74793 0.158057 -2.2136e-20)
(2.93761 0.357325 1.00369e-18)
(4.64501 -1.11878 0)
(5.71269 0.824656 5.87913e-19)
(4.35481 2.87148 8.015e-21)
(5.27182 0.0289959 3.90965e-19)
(5.21044 -0.907868 0)
(1.40677 -0.67683 1.01411e-18)
(4.09315 0.290997 0)
(4.04882 -0.40871 1.59608e-19)
(-0.150989 0.0540677 0)
(7.04909 -1.40244 0)
(3.3733 -3.5878 0)
(4.22621 -1.60644 0)
(-1.25126 -0.911437 -3.54515e-19)
(2.61325 0.731235 -7.33506e-19)
(3.77873 -0.163794 -1.42596e-18)
(-0.732229 -1.54583 -3.46098e-18)
(2.73621 -1.20905 0)
(1.91047 -2.4493 -2.73451e-18)
(-0.394061 0.200184 -5.44571e-18)
(3.29244 -1.55008 0)
(3.13912 -1.15898 -1.94277e-18)
(3.70848 -1.25869 -1.77812e-21)
(4.56002 0.570647 5.71834e-19)
(5.0861 -1.65951 8.10729e-21)
(3.75225 0.259577 0)
(4.57259 -1.44986 0)
(6.09168 -0.30266 6.15679e-19)
(2.00524 4.53274 1.15072e-19)
(4.83681 -1.13308 -7.60871e-20)
(2.64393 -5.27941 1.01779e-19)
(3.99513 0.0157749 7.49622e-20)
(3.32879 -0.495502 8.41374e-21)
(4.05754 0.32814 1.09896e-18)
(2.56006 -4.15159 2.90152e-18)
(3.94907 -1.13877 0)
(-0.865822 -0.130023 0)
(5.12426 -0.231896 0)
(3.19734 0.0604913 0)
(3.63293 -0.765463 8.43581e-19)
(4.89477 -0.256212 0)
(-0.0740996 -0.899762 2.69404e-18)
(5.43101 -2.02731 5.80299e-20)
(2.87292 -0.997339 -2.88767e-18)
(6.49115 -1.67473 7.50733e-18)
(1.58269 0.479503 -1.81208e-18)
(0.703207 -2.27374 -1.72821e-18)
(4.1443 0.0554579 2.70858e-19)
(-0.372567 1.83078 -2.05241e-18)
(2.24337 -3.85922 2.7964e-18)
(5.3333 0.189489 0)
(4.8365 -0.813583 0)
(4.59901 5.46676 0)
(4.53887 -0.924051 4.44354e-19)
(5.15434 -2.93591 0)
(3.72515 0.980643 0)
(4.00359 0.018573 0)
(3.70679 -0.984616 8.73019e-19)
(4.15773 0.327311 -1.06879e-18)
(2.1605 0.409854 0)
(2.80578 -0.933092 5.42894e-19)
(3.96447 0.336841 -1.03288e-18)
(4.93204 1.41934 -2.90577e-19)
(3.35288 -1.57086 1.13462e-18)
(3.8453 1.09964 1.9705e-21)
(0.845501 2.95071 -9.78838e-20)
(6.01042 4.34815 4.55166e-18)
(2.18265 1.89515 4.89951e-19)
(4.61959 0.204605 -2.7779e-19)
(4.75433 -0.881833 -1.1445e-19)
(3.68061 0.0570759 -1.34144e-18)
(4.243 -0.030967 0)
(2.05697 -1.49604 8.31416e-19)
(3.91683 0.118665 1.41122e-18)
(3.91533 -5.80042 2.33885e-18)
(4.41383 -0.678956 -5.57218e-19)
(2.37691 -0.540371 -2.53043e-18)
(4.62044 0.169756 4.56296e-20)
(5.81318 0.173824 9.74156e-19)
(3.99323 0.17318 0)
(3.62743 3.27116 1.76822e-19)
(8.3412 -2.77757 -8.89517e-19)
(1.71638 1.59833 -1.1184e-18)
(-2.9727 1.17827 -5.032e-18)
(4.02939 0.0162617 7.45023e-19)
(4.6793 -0.423008 -3.75239e-20)
(5.34208 0.056839 -8.1272e-20)
(5.27358 -0.154544 0)
(6.56613 -2.7448 0)
(3.07964 -1.48474 1.3859e-18)
(-1.06859 1.10759 2.35634e-18)
(3.50597 0.019587 9.11105e-22)
(3.91092 0.114668 2.83267e-18)
(3.76529 3.50039 -5.97816e-19)
(3.04379 0.323595 0)
(3.63489 0.0872336 0)
(3.38302 -0.846934 -1.47773e-20)
(4.90658 0.175239 5.7575e-19)
(3.93938 1.01911 1.54179e-18)
(5.39998 -0.252088 0)
(4.12353 -0.0576107 0)
(4.34991 -1.26074 1.41822e-18)
(4.09816 -0.411583 1.1536e-18)
(0.363469 2.23678 -3.45019e-19)
(4.18833 0.111645 0)
(7.51999 -1.18199 9.62229e-19)
(3.63878 -1.38565 6.02012e-21)
(1.12824 0.991486 -1.10084e-18)
(4.03673 -0.0877417 -1.58563e-18)
(5.66624 -1.21092 0)
(5.01157 -1.10952 6.93175e-19)
(5.2428 -1.02419 -1.68892e-18)
(-0.187045 1.79409 0)
(3.50657 0.0996419 -1.57111e-19)
(3.83894 0.181982 -9.17289e-19)
(3.21047 0.0509616 -2.56952e-23)
(6.01678 -0.83439 3.22767e-19)
(4.16245 3.63647 1.70474e-18)
(4.14746 0.0451963 0)
(2.35764 -0.907618 -1.76352e-20)
(4.02713 3.24651 5.07719e-19)
(5.10774 -2.0454 -1.99728e-18)
(4.09089 0.482723 8.3816e-19)
(0.913869 -3.73272 1.54843e-18)
(4.06187 0.0240241 -3.49768e-18)
(2.28516 -0.793741 4.61438e-20)
(3.50935 1.61759 7.95063e-18)
(3.63423 -0.910404 0)
(5.64659 -0.974749 -7.03153e-20)
(2.5275 -1.18965 9.80795e-19)
(4.6611 -0.225739 -1.86714e-18)
(3.94856 0.0934216 -1.27644e-18)
(3.98407 -0.332253 -1.82975e-19)
(3.48204 -0.474426 3.1383e-18)
(4.99432 0.00623784 -1.1986e-19)
(3.62177 0.0943984 7.86123e-19)
(3.95896 -0.78016 5.82916e-20)
(4.99717 -0.847707 -9.7025e-19)
(4.8214 1.62838 -1.22835e-19)
(5.95246 -1.72332 1.91571e-18)
(4.06295 -0.037068 0)
(3.17164 5.47515 0)
(3.15496 -0.0540918 0)
(2.87217 -0.937028 2.21361e-18)
(4.14757 0.0778111 -2.05417e-18)
(3.63757 0.348378 0)
(3.22077 -0.786587 -1.74904e-18)
(3.62588 0.277338 0)
(3.64705 -0.699991 -1.38763e-18)
(2.9788 0.487693 1.01633e-18)
(3.90117 -1.08543 -1.21691e-18)
(4.24091 0.0440112 0)
(3.88862 0.0609338 0)
(4.25649 0.551786 -6.73992e-19)
(4.88175 0.305357 5.60628e-21)
(4.60437 -0.187945 2.25124e-19)
(4.72178 3.06454 -4.81529e-20)
(5.56419 -0.526276 0)
(3.64937 -1.37729 -6.07322e-19)
(-0.740654 0.151806 0)
(2.03309 1.47801 -1.27992e-18)
(5.41323 1.92986 0)
(4.61125 -0.395358 8.33532e-20)
(2.57399 -0.476818 9.77976e-19)
(3.20746 -0.410991 9.87439e-19)
(4.00368 0.294745 6.03139e-19)
(5.49677 -2.19026 -3.67177e-18)
(4.04513 -0.468861 2.90667e-18)
(4.13007 0.505936 -1.8909e-20)
(5.27778 -1.02108 3.79462e-19)
(4.12206 -0.964606 -6.17135e-19)
(-0.808524 -0.0657835 2.36638e-18)
(5.02434 0.569609 0)
(3.95919 0.0958092 3.34339e-21)
(3.2749 -0.879029 0)