/*--------------------------------*- C++ -*----------------------------------*\
| =========                 |                                                 |
| \\      /  F ield         | OpenFOAM: The Open Source CFD Toolbox           |
|  \\    /   O peration     | Version:  2306                                  |
|   \\  /    A nd           | Website:  www.openfoam.com                      |
|    \\/     M anipulation  |                                                 |
\*---------------------------------------------------------------------------*/
FoamFile
{
    version     2.0;
    format      ascii;
    arch        "LSB;label=32;scalar=64";
    class       surfaceScalarField;
    location    "8.9";
    object      phi;
}
// * * * * * * * * * * * * * * * * * * * * * * * * * * * * * * * * * * * * * //

dimensions      [0 3 -1 0 0 0 0];

oriented        oriented;

internalField   nonuniform List<scalar> 
7520
(
-0.92549
0.754488
0.171002
-1.31673
-0.190643
1.50737
-0.0972204
-1.82813
1.92535
0.254036
-0.0368905
-0.217146
0.1255
2.40581
-2.53131
-0.101186
0.109076
-0.00788967
-0.308507
2.10079
-1.79229
-0.147568
-2.21346
2.36103
-1.5354
1.43818
0.759765
-0.105614
-0.654151
0.423904
0.170811
-0.594714
-0.23993
-1.48766
1.72759
0.485365
0.111513
-0.596878
-0.112112
0.153985
-0.0418729
-2.40176
0.995112
1.40664
0.0602817
1.47142
-1.5317
0.341568
-0.0045158
-0.337052
0.191103
-0.562958
0.371855
0.0313527
0.0229477
-0.0543004
-0.0842834
0.425851
-0.427345
-0.237561
0.664906
-1.00443
1.06471
-0.0616446
-0.346861
0.408505
0.167323
-0.156757
-0.0105659
0.0496535
-0.0467073
-0.0029462
0.270961
-0.26281
-0.00815169
0.890193
1.11115
-2.00134
-0.0497568
0.356476
-0.30672
-0.00916698
0.0405197
0.269338
-0.0524359
-0.216902
-1.03375
1.66403
-0.63028
-0.054875
-0.0218102
0.0766852
-1.85615
2.04807
-0.191926
0.488491
-0.705408
0.216917
-0.315084
-1.21295
1.52803
-0.287937
0.919445
-0.631508
0.256818
-0.569312
0.312493
0.838656
-1.61806
0.779409
0.0915292
-0.336888
0.245358
-0.0592666
-0.126389
0.185656
-0.028236
0.282272
0.0971851
-0.606812
0.509627
0.307055
-0.0360936
1.95743
-1.5618
-0.395631
-0.536864
-0.567788
1.10465
-1.47252
1.59481
-0.122287
-0.0967556
-0.198504
0.29526
0.293042
-0.0895087
-0.203533
-1.2898
0.256052
0.295885
-0.0837071
-0.212178
1.75131
0.175157
-1.92647
-0.70876
0.231826
0.476933
-0.0224841
0.0218478
0.000636313
1.09089
0.497354
-1.58825
0.015642
-0.116828
-0.77194
0.101613
0.670327
0.358581
-1.25536
0.896779
-0.0511519
-0.129526
0.180678
-0.13402
0.0791453
-2.34854
1.23468
1.11386
1.57983
-0.651658
-0.928174
0.0466854
0.111527
-0.158212
-1.27034
0.955254
0.740135
-0.25477
0.00425684
-0.0267409
0.00469771
-0.11681
1.2098
-2.58955
1.37975
0.120523
1.63079
-1.2918
0.982804
0.308993
0.34428
-0.253865
-0.0904146
-0.530686
0.889267
-0.515171
-0.38026
0.895431
0.377213
-0.0974564
-0.279756
-0.402684
0.45147
-0.0487854
1.10434
-1.68358
0.579237
0.144051
-0.125468
-0.0185833
1.93989
-0.550574
-1.38932
0.444537
-0.778594
0.334057
1.47968
-1.00893
-0.470753
-0.86073
0.0887899
-1.6018
-0.746742
0.664032
-0.736875
0.0728433
0.246474
-0.657166
0.410692
-0.136978
0.625469
-0.425932
0.617035
0.29018
-0.0208421
0.0300423
-0.0426393
0.012597
1.26544
0.674451
-1.98604
2.49503
-0.508985
0.699594
0.880239
-1.03848
1.11636
-0.0778789
-0.0169239
-0.082763
0.0996869
1.36197
-1.6019
0.258995
0.207987
-0.116457
-0.23739
0.40664
-0.16925
0.00708588
0.0991163
-0.106202
-0.551661
0.36769
0.183971
1.51623
-0.411883
-0.788338
0.650748
0.137589
1.11577
-1.11208
-0.00369126
-0.0988797
0.124571
-0.025691
0.340237
-0.0234036
-0.316834
2.70951
-1.8093
-0.900209
0.54615
-0.383965
-0.541525
-1.34406
0.813378
-1.91173
1.60322
0.18608
-0.0857499
-0.10033
0.559804
-0.1359
-0.18052
0.1791
0.0014204
-0.0791566
0.0949148
-0.0157582
2.01879
-1.18013
-0.166557
0.03091
0.135647
-0.751264
0.323919
0.0419053
0.00870567
-0.0506109
0.742725
-0.0786934
-0.716999
0.459068
0.257931
0.554193
-1.61926
1.06507
0.0553761
0.111947
-0.158672
-0.550087
-0.315221
0.0667966
0.248425
0.902483
-0.142718
0.673987
-0.622101
-0.0518862
0.0236757
-0.0976634
0.0739876
-0.219967
0.202446
0.0175206
0.720295
-1.91075
1.19046
0.41389
-0.475534
-0.352258
-0.0696385
0.421897
-0.0598632
-0.106694
-0.370975
-0.117841
0.488816
0.16001
0.0344585
-0.194469
-0.0679923
0.228002
-0.541168
-0.175831
-0.514321
-0.224422
0.738743
-1.71563
2.62981
-0.914172
0.333837
-0.349287
0.0154498
-1.13368
-0.210389
-0.0373608
-0.0572721
0.0946329
1.44087
-0.349982
-0.627295
0.440454
0.186841
-0.142452
0.402828
-0.260376
0.324515
-0.0809649
-0.24355
0.259029
-2.08716
0.305069
-1.77759
-2.41853
1.18613
1.23239
-0.839101
-0.452696
-2.06448
2.03939
0.0250887
2.19632
0.154256
-2.35057
0.210701
-0.269967
1.0423
-0.519629
-0.522666
-0.268884
-0.106756
0.37564
0.345823
-2.4103
-1.85207
-0.00407881
0.0220145
0.00802783
0.0723253
-0.14036
0.0680345
0.301843
-0.352995
1.16687
-0.0510935
-0.168235
0.139999
-0.0123887
0.000686991
0.0117017
0.802888
-0.420701
-0.382186
-0.455687
-1.94607
-0.10067
-0.168214
0.0539934
-0.614334
0.56034
0.166422
0.255197
-0.421619
-1.46982
0.857768
0.612057
1.20848
-1.08298
-0.16963
0.545031
-0.375401
-0.0842094
0.133863
0.559706
-0.269226
-0.290479
0.46061
-0.698
0.250447
-0.334154
0.87053
0.303287
-1.17382
0.322291
-0.372048
-0.315062
-1.41882
1.73388
1.28149
0.662953
0.72749
-0.481016
-1.26951
0.981576
-0.715496
0.957847
-0.242352
-0.0128207
-0.0269591
0.0397798
0.239503
-0.275486
0.0359828
-0.232012
0.974737
-0.277994
-0.179726
0.45772
0.323858
-0.157437
-0.88361
0.937603
0.577263
-1.0232
0.445936
-0.491468
-0.0601931
0.714634
-0.457816
0.156232
-0.0121805
-0.0454344
0.0869543
-0.0415199
0.0740221
-0.153179
-0.561476
0.0107625
0.550714
0.137364
0.239849
-1.16277
-0.520807
-0.757146
-0.712678
0.00452763
0.0991159
-0.103644
0.590919
0.0493237
-0.640242
-1.68072
-0.0349099
-1.22917
2.25929
-1.03012
0.382544
0.177161
-0.248041
0.342002
-0.0939609
-0.755873
0.597201
0.541232
-1.0781
1.73348
-0.0523788
-1.6811
-1.44854
1.9117
-0.46316
-0.0284213
0.100747
0.349294
1.55025
-1.89955
0.0367051
-0.182556
0.145851
-0.153232
1.83379
-1.68056
-0.00172143
0.138625
-0.136904
-0.925586
1.28587
-0.360287
-0.0792564
-0.676617
-0.131219
-0.430258
0.278081
-0.201779
-2.03704
2.23881
0.038067
-0.0151193
-1.8864
0.723632
-0.592596
0.0680844
0.524511
0.106398
-0.082722
0.135833
1.57853
-1.71436
-0.465875
-0.62724
1.09312
-0.541623
0.432957
0.108665
3.02627
-1.99656
-1.02971
0.517365
-0.98324
0.0967625
-0.0937444
-0.00301803
0.0908493
0.76928
-0.860129
0.0643268
-0.0667889
0.00246207
0.850509
0.794167
-1.64468
-0.279371
-0.508967
-0.108289
0.264069
-0.15578
-0.911402
0.666862
0.24454
-0.0906792
0.0473613
0.043318
1.01549
-0.424573
1.01522
-1.86854
0.853319
-2.70072
1.16447
1.53626
-1.1282
-1.57252
-0.348327
0.423154
-0.0748266
0.111369
-0.0538505
-0.0575187
1.13768
-1.7355
0.597819
0.0158819
1.11155
-1.12743
-0.30385
-0.433025
1.08775
-0.217216
1.33314
1.29061
-2.62376
-0.206498
0.102819
0.103679
0.00728328
-0.918686
1.84525
-0.419594
-1.42566
0.149916
-0.113211
-0.0327919
0.440678
-0.445194
1.00894
0.836315
0.177221
0.637476
-0.814697
0.397501
-0.0410243
-0.0632482
-0.0166218
0.07987
0.277274
-0.200724
-0.0765502
-1.85131
0.89369
0.957615
0.160468
-0.0490986
0.787608
-1.30193
0.120267
-0.172527
0.0522595
0.146181
0.146861
-1.60806
1.56294
0.0451144
1.12462
-0.547359
0.00712936
-0.0325338
0.0254044
0.0163481
-0.00155862
-0.0147895
0.140359
-0.237815
1.79354
-0.583742
-0.129675
0.34587
-0.216195
0.000726229
-0.013115
0.728898
-0.558087
0.559385
-0.152745
-0.696132
0.712014
0.0361815
-0.0816159
2.10079
0.00607274
-0.0129649
0.00689213
0.191261
0.368124
-0.22362
0.146485
0.0771348
-0.0596904
0.399928
0.601266
-0.504081
1.05658
-0.0142896
0.503885
-0.391284
-0.112602
0.311332
-1.23692
-0.0336065
-0.337368
-2.20294
2.00116
0.0586424
0.03812
-2.35051
0.257061
-0.399513
0.159613
0.115187
-0.2748
-0.630809
-1.2205
1.35948
1.35003
1.61862
-0.760848
-1.48766
0.0998663
0.574121
0.287035
-0.257302
-0.0297329
0.182538
-0.267599
0.0850615
-1.18694
0.619152
-0.241571
-0.263027
0.504598
0.290687
-0.3963
-0.0893353
-2.00515
2.09448
0.906883
0.237196
-1.52634
1.28914
0.955546
1.09253
-1.05905
1.5477
-1.19841
-0.0556654
0.41732
-0.361655
-0.851962
0.74888
0.103082
-0.207808
0.0781326
-0.100872
0.358819
-0.257946
-0.21955
-0.232105
0.451656
-0.537339
1.81883
-0.31526
-0.376195
0.691456
-0.444322
0.347566
0.191325
-1.2298
-0.134462
0.0712133
0.0101961
-1.98613
0.984465
1.00167
0.43818
-0.326667
0.00919377
-0.0219659
0.355803
1.3354
1.69087
1.64593
-0.475669
-1.17026
0.136054
-0.0486071
-0.0874473
0.573475
0.906203
0.161892
0.125143
0.419365
-2.13426
1.7149
-0.0778952
0.0566482
0.0212469
0.921371
0.594856
-0.236708
-0.10018
0.699646
-0.522425
-0.551476
1.44167
0.17499
0.0110894
1.38752
-0.833331
0.161516
-0.15443
1.80815
-0.162228
0.112555
0.446698
0.0571873
0.0232486
0.321031
-1.73657
-0.857623
0.881935
-0.0243126
0.00690939
-0.132377
1.84752
0.020119
-1.86764
-0.752906
0.437645
0.254642
0.0698728
-0.331711
0.0778461
0.0326079
-1.04153
1.54408
-1.59967
0.0555921
-0.000844889
-0.225027
0.225871
-0.606241
1.52761
-0.855013
1.57531
0.0163936
-0.0172385
0.703078
-0.24401
1.92489
-0.562918
-0.00500904
0.184142
-0.179133
-0.106606
-0.0625428
0.169149
0.133203
0.00285108
-0.281648
-0.751451
0.017233
-0.258393
0.24116
1.23134
1.39847
-1.5248
1.20974
0.131886
-0.484144
-1.32694
0.811768
-1.12244
1.34193
-0.21949
0.523517
-1.65812
1.50489
1.7555
-0.490064
1.33271
0.62472
-0.0774389
0.250783
1.2933
-1.32434
0.309969
1.01437
0.296226
-0.348662
0.12359
0.0368779
-0.23361
0.165618
-0.197629
-1.36417
0.377199
-1.19392
0.816717
-1.55659
1.09394
0.462658
0.453639
-0.833899
-0.193081
0.239767
0.10455
-0.358433
0.339483
0.0189504
-0.606923
0.437293
1.18033
0.575171
-1.44854
-0.111758
-0.108209
1.6635
-1.45144
-0.212057
-0.369539
1.91979
-1.64524
2.42077
-0.775524
-0.660217
0.96085
-0.300632
0.0626549
-1.33299
0.101368
-0.155218
-0.297962
0.457765
-0.159803
0.213422
-0.236826
1.34835
0.595873
-1.09121
0.495341
-0.0255301
-1.55392
1.57945
-0.0593215
-0.121198
0.0212039
-0.442704
0.4215
-0.300354
0.847246
-0.546892
0.216566
-0.149826
-0.0667396
0.402505
-0.267017
-0.135488
-1.96628
1.77564
2.65449
-0.56953
-2.08496
0.0779615
0.0177422
-0.0957037
-0.0054471
0.187985
0.136062
-0.62753
-0.827526
1.67803
0.0496125
-0.00770719
1.73348
-1.01579
1.10664
0.0464105
-0.0464105
-0.347671
0.44311
-2.42915
2.24399
-0.920397
-1.32359
-1.53359
0.804821
0.728774
-0.0142336
0.0664242
-0.0521906
0.975744
-1.17118
0.195434
-0.547481
-0.169379
0.71686
0.816526
-1.9059
1.08938
-0.0488833
-0.803079
-0.225968
0.119362
-0.155597
-0.5397
0.695297
0.664461
0.476499
-1.14096
-1.4134
-0.426928
0.713166
-0.286238
-0.710752
0.830688
-0.119936
1.45432
-1.31848
0.312457
-0.295224
0.0894738
-0.159704
-0.24298
-1.75279
1.96711
-0.214325
-1.04153
1.61721
-0.575686
-0.0213895
0.156599
-0.13521
-1.79173
-0.797824
-0.0241032
0.0149362
-1.69729
0.468111
-0.402715
0.301842
-0.143664
-0.516553
-0.069076
-0.00881916
-0.790474
2.12362
0.0644698
-0.411331
-1.53357
0.146306
1.38726
0.0920701
-0.141061
0.0489913
-0.910131
0.194635
0.248123
-0.610544
0.362421
1.608
-0.165269
-1.44273
-0.0388993
0.206323
-0.167424
-0.327124
0.317951
1.28004
-1.59799
-0.794914
1.79003
0.132982
0.694957
0.745917
-0.0036441
1.558
0.250155
-1.41646
1.39093
0.375951
-0.0205211
-0.35543
0.500359
0.0245727
-0.524932
-1.92889
0.283648
-0.0167614
-0.59005
-0.531389
-0.326234
0.293933
0.727287
-0.167399
-0.559887
0.201558
0.105497
-0.461938
1.29964
-0.837703
0.179759
-0.242302
-0.0535652
0.293068
0.263897
-0.561859
0.21513
0.34658
-0.561711
-0.100104
-0.058963
0.159067
0.42517
0.268019
-0.693189
-0.00139958
-0.122728
0.124128
-0.311178
0.342882
-0.031704
-0.0125353
-0.225671
0.238207
0.382324
-0.0860978
0.205638
-0.605311
0.399673
1.55705
-1.05752
-0.943824
-0.143128
0.245402
-0.102274
0.060172
-0.0752913
-0.296604
-0.245019
1.03772
-0.310438
-0.0140681
-1.22835
1.24242
-0.30701
-0.00821087
-0.00480342
-0.536365
0.227767
0.174738
0.196599
-0.198321
-1.23916
-0.0417171
-0.0928358
0.134553
1.26385
-0.960562
1.33283
1.32166
0.103958
0.0163095
-0.154961
-1.7216
1.87656
0.792268
0.328105
-1.12037
0.286598
-0.984828
0.66384
0.320988
0.0690108
0.0230592
-0.0074231
0.0833448
-0.0759217
2.04188
-1.07735
-0.964535
0.141389
-0.321017
0.179627
0.724266
0.250442
-0.974709
0.0747552
0.108321
-0.183076
1.71456
0.026691
-1.74125
-0.465002
-0.0979559
-0.283771
0.348241
0.0343885
0.0483344
-0.082723
-0.682386
0.256454
0.0234162
0.0199119
-0.0433281
-0.287205
-0.62895
0.916155
1.10219
0.505805
0.992081
-1.00615
0.711979
-1.01233
-1.8845
1.79516
-0.0855546
-0.0121087
0.280583
-0.584303
0.30372
0.681203
0.937412
1.12175
-1.3132
0.191458
1.24718
-0.552224
-0.151124
0.102517
-0.0121956
0.0614156
-0.04922
-1.87418
-0.49063
2.36481
-0.382844
0.460348
-0.0775041
0.0141349
0.0322756
0.326442
2.07936
-0.151208
-0.0552899
1.14608
-1.6997
0.553613
-0.62453
-0.361642
0.986172
1.46169
-0.446465
0.78348
0.528023
-0.634779
-0.293861
0.00928697
0.284574
0.0304971
-0.247399
-0.451476
1.04735
0.019446
0.0448809
-0.239777
-0.286994
0.526771
-0.00101251
0.976757
0.379595
-0.604017
-0.443596
-0.373746
0.440542
0.721913
-0.865578
0.128706
-0.0977956
-0.00159516
-0.443598
-1.94332
0.885802
0.221738
-0.37099
0.149252
0.0496655
-0.0407681
-0.00889742
0.236437
0.875116
0.135609
-0.0240828
0.0352994
-1.65818
1.62288
0.400895
-0.286603
-0.114292
-0.0498954
0.0744742
-0.0245788
-0.765166
1.14237
-0.0989823
-0.330066
0.429048
-0.286903
0.535026
-0.964582
1.41715
-0.452569
-0.37304
0.417037
-0.0439979
2.22107
-0.0247531
0.570142
0.0266589
-0.596801
-0.524479
0.406638
-0.188055
0.496715
1.5012
0.993825
0.11224
-2.10445
1.99221
-0.83645
-0.193642
1.03009
-0.205098
0.22322
-0.0181224
-0.222868
-0.453449
0.676317
-0.0765501
-0.0213422
0.0978922
-0.0965613
-0.0379002
-0.473176
-0.0427243
-0.003983
-0.0447189
0.115932
-0.175279
0.457656
-0.282377
-0.267216
0.338327
-0.0711109
-0.078886
0.175679
-0.0967926
0.756163
-0.395468
-0.034383
-0.00825633
0.630627
-1.14192
0.511297
1.22276
-0.98632
-0.0267173
-0.341605
0.368323
-0.482632
-0.629449
-1.36507
1.4856
0.0910695
-0.610699
-1.28931
0.823143
0.466164
0.43297
-0.0768882
-0.356082
1.73194
-1.73194
-1.70142
0.0996141
-0.519364
-0.200342
-0.621002
0.821344
0.527386
-0.506541
-0.0208446
0.0374699
0.0808874
-0.154915
0.0740276
-0.0270571
0.226799
-0.199742
-0.365055
1.20428
-0.839222
0.312599
0.25046
-0.563059
0.759602
-0.696948
-1.09049
0.254035
-0.0560365
-0.248576
0.304612
-0.034007
-1.29033
-0.401648
-1.16775
0.7661
0.925587
-0.0226436
0.218783
-0.196139
-0.302216
0.399817
-0.0976014
-0.318391
0.210101
-0.087125
0.340758
-0.181145
0.0407743
0.138322
0.108345
-0.246667
0.0446494
0.0167662
0.59229
-0.386652
-0.334494
0.343384
-0.00889046
0.00526418
0.0158836
-0.0211478
0.0817606
0.027845
-0.109606
-0.0698298
0.185579
-0.115749
-0.485578
1.30229
0.431146
-1.06451
0.63336
-0.168099
-0.0814312
0.24953
-1.73561e-05
-2.66418
2.6642
0.835637
-0.528358
-0.307279
0.451672
-0.069935
-0.197664
0.0773703
-0.0686646
-0.0595156
0.200905
0.278826
-0.900951
0.622125
-0.39151
-1.21655
-0.344165
0.655206
-0.311041
-0.0969108
0.0370476
0.451262
-0.31444
-0.136822
0.833081
-0.202455
-0.856999
0.55472
-0.460661
-0.0940586
-0.578938
0.337367
-0.121843
0.562296
-0.0507393
0.0670874
-1.7197
-0.0896031
-0.319237
0.583134
-0.00906863
-0.216899
-0.0619518
0.0127318
0.265081
-0.287725
-0.0842783
-1.24048
0.754903
1.96613
-0.132344
-2.03704
2.25736
-1.09883
-1.15852
-0.130384
0.498074
-0.119148
-0.741582
0.410421
-0.336399
-0.267965
-0.0258955
-0.402636
-0.458328
0.860964
0.145458
0.157739
-0.303197
0.0783202
-0.917421
-1.96985
-0.324238
-0.357457
0.681695
0.156992
0.243903
-0.266203
-0.0463484
0.312552
0.535567
-0.121677
0.144354
0.288616
2.19157
-1.37504
-0.796097
0.393461
-0.270048
-0.0625669
0.332615
-0.0521831
-0.137295
-1.03388
0.467256
0.200766
-0.668021
-0.0960092
-0.0380111
0.938617
-1.21078
0.272164
-0.642531
-0.0603499
1.79229
-0.730416
-0.411508
0.96811
-2.268
1.29989
-2.25044
0.941404
1.30904
0.168569
0.108363
-0.276932
0.152702
1.05237
0.0577891
0.815721
-0.87351
0.0957586
0.250112
0.170351
-0.0923899
0.262265
-0.519208
0.256943
1.29755
-1.45251
0.0476367
0.256122
-0.389576
0.133454
-1.6492
-0.0522142
-0.625341
-0.189739
0.0466112
0.127988
0.00246572
-0.130454
-0.657144
0.322899
0.334246
-0.417789
0.362123
-1.03492
-0.418826
1.45374
-0.137505
-0.0544824
0.0402488
-0.500712
0.639256
-0.138544
-0.346515
1.44045
-0.175259
-0.940363
-0.593232
1.38404
-0.596432
1.03622
-1.40128
0.0112563
-0.0468061
0.0355498
1.05669
-0.592242
-1.93906
-0.360288
-0.125359
0.485647
-0.0553801
0.220998
0.191204
-0.466046
0.274842
0.322605
0.29443
0.973285
0.0833003
-0.0926896
0.325529
-0.0750819
-0.373237
0.351271
-0.169275
0.0380574
0.131218
0.26549
-0.106619
-0.158872
-0.158173
-0.0427637
0.200936
0.209984
0.175131
-0.385115
0.109604
-0.035616
-0.172901
-0.052126
-0.0269568
1.12655
0.0464028
0.199211
-0.245614
0.0829283
-0.15085
0.0679216
-0.0644725
-0.0332159
0.0976885
0.567796
0.277579
-0.704507
-0.102167
0.388251
-0.0864082
-0.218917
0.134707
-0.143706
-0.0388505
1.78945
-0.995284
0.00984798
-0.190557
0.180709
-1.5706
0.205525
-0.0880943
-0.0154814
0.103576
-0.0470311
-0.0436481
-1.38464
-0.8658
0.399554
-0.0772631
-0.613106
-1.52116
-0.573065
0.333288
-0.0836292
-0.417083
0.778465
-0.761679
-1.80715
1.91939
-2.28832
0.414133
-0.13193
-0.0150676
0.146998
0.0355431
-0.248614
-0.375879
0.624494
-0.295482
0.0792868
-0.209018
-1.37934
1.58836
-0.588773
-0.691342
1.28011
0.38226
0.407171
-0.789431
0.00154498
0.192438
0.362282
-0.286364
-0.275495
-0.188939
-0.103424
0.292363
0.0202056
0.355434
0.290226
0.161036
0.348306
-0.643475
-0.0247614
0.0308342
-0.537722
0.594196
-0.0564744
-0.185309
0.40158
-1.3111
0.116616
-0.0175
-1.67078
0.441328
0.0474871
-0.938473
-0.363455
-0.151869
-0.954737
-0.279665
1.2344
-0.0899647
0.500385
-0.555537
1.36036
-0.339808
-1.01736
-0.925961
-1.22262
1.41805
0.115108
-0.332041
0.0299853
-0.0881229
0.0581376
-0.692754
0.599888
0.092866
0.703201
-0.782458
-0.248222
0.46996
-1.1177
-0.171603
0.0560248
-0.0555399
-0.000484891
-0.442866
0.868036
-1.4153
-0.165312
1.58061
0.011943
0.0327064
0.0281705
-0.615801
0.58763
-0.255224
0.431686
0.114464
-0.187938
-0.0608427
0.248781
-1.27836
0.858766
-0.264923
-0.0305594
-0.186994
-0.134023
-0.388314
0.0905604
0.0381453
-0.047353
0.0224818
-0.0265467
-0.0561763
0.320964
1.24198
-0.552642
1.88535
1.03269
0.59619
-0.765568
0.0360771
-1.45138
-0.281648
-0.349356
0.42774
-0.0783843
0.178331
0.0241148
-0.00466718
0.0151685
-0.0607405
0.139886
-0.230864
1.99436
-1.7635
0.157734
-0.834351
-0.132596
-0.273346
-0.079649
0.972533
-0.297836
0.387013
-0.0891767
-0.131652
-1.55035
1.682
0.39597
0.242555
0.28483
-0.34646
-0.507007
0.958309
-0.451302
0.0696518
0.00592698
-0.0466951
0.0112397
0.158448
-0.169688
0.0919744
0.428178
-0.520152
-0.154163
-0.603945
0.758108
-0.296252
-0.0757962
-2.01866
0.0126928
0.233874
-0.238883
0.0475151
-0.325233
0.0603101
0.34573
-0.703187
2.36351
-1.00745
-1.35606
-0.175447
0.429301
-0.552216
0.580386
-0.123912
-0.336749
-0.193224
-0.0103096
0.570142
-0.70712
-0.134833
0.817706
-0.971869
0.155504
-0.103449
-0.0520547
-0.407176
-1.92998
1.08793
0.842049
-2.09766
2.09764
-1.07492
0.271056
0.803859
-0.0400885
0.253986
-0.213898
0.689227
0.348498
-0.108512
0.213356
-0.0114942
-0.0216148
0.0315973
-0.280705
-0.033735
1.15676
1.20675
-0.0441712
0.0275495
1.63522
-1.48096
-0.0458413
-1.38829
1.43413
1.18795
-0.0613979
-0.308765
-0.0939493
0.228393
0.13096
-0.27037
-0.0694446
0.193035
0.803603
-1.41267
0.609068
0.126428
2.25463
-1.35081
-0.90382
0.0188203
0.0524651
0.0139591
0.0565565
0.91818
0.980019
-0.880405
0.738693
-1.32747
-1.22027
-0.0162924
1.23656
-1.49748
0.957983
0.539499
0.107816
0.00811588
2.42906
0.0503787
-2.47944
-0.656726
1.29807
-0.64134
0.0845172
0.25381
-0.714293
0.00354181
-0.0105589
0.0692013
-1.35442
0.231979
-0.0182772
0.0265301
-0.00825297
-0.129794
0.212027
-0.0822321
0.100949
-0.449564
0.348615
0.568531
0.313404
-0.538721
-0.118424
0.0494083
0.856911
-0.905795
-0.0740215
-0.0663382
-0.270715
0.0585365
0.956241
-0.345369
-0.610871
0.0195747
-0.295032
0.275458
0.322027
-0.557543
0.235516
0.0308144
-1.5611
0.791872
0.769224
0.0831236
0.851249
0.276035
-1.12728
-0.217741
0.236952
-0.260994
0.0240421
0.183176
-0.0373251
-0.273559
0.00735564
-0.316397
-1.0128
0.998508
-0.476392
0.790356
-0.313964
-0.556622
-0.712891
1.74772
-0.763252
-0.101801
0.188539
-1.37826
0.0680533
-1.36126
1.2932
0.0412279
0.0855113
-0.126739
0.737087
-0.223492
-0.513595
0.390381
0.0124471
0.019722
-1.37787
0.821248
-0.551585
1.21543
0.128961
0.599937
0.328707
0.238525
0.0269654
0.854908
-0.417262
0.0321338
0.671067
-0.941674
0.391587
-1.19554
0.504201
0.981464
-1.11312
-1.74818
1.51732
-0.00550234
-1.44388
0.206071
1.23781
0.320322
0.334884
0.0501981
-0.899118
0.698776
-0.133687
-0.129886
0.263574
-2.49736
1.09994
1.39742
0.427904
0.810013
-1.23792
0.0697505
-1.29237
0.783941
0.0617743
-0.845715
-0.526527
-0.433585
-0.893354
-0.041231
-0.015669
0.0630303
1.52191
-1.49522
-0.035578
-0.957423
-0.603672
0.1584
0.0213331
-1.2416
1.15012
-0.298867
-1.50489
0.0172285
-0.272825
-0.900992
0.360055
-0.46412
1.8845
0.216295
0.155191
-1.18907
0.151052
-0.116593
0.186928
-0.406478
0.327929
-0.577682
0.249753
-0.0443944
0.0201412
0.0242532
-0.581268
0.607927
0.19201
0.0852643
-1.09538
1.15221
-0.0568334
-0.729545
0.950833
-2.15758
1.20675
-0.937793
-0.0649307
0.108249
-1.45709
0.124347
1.33274
-0.417209
0.940726
-0.66151
0.739831
0.156864
0.916302
0.514725
-0.958321
-0.843334
-0.191152
1.03449
-1.3266
-1.55074
1.34172
-0.134077
0.137798
-0.00372105
0.0724751
-0.0970539
0.857699
-1.30918
-0.25144
0.378662
-0.127221
0.166282
0.264408
-0.43069
-1.0476
0.44365
0.0445865
0.0286028
-0.245749
0.397091
2.27585
0.153208
-0.782151
0.83994
-0.280598
0.0936046
-1.19918
2.33835
-1.13918
-0.08309
0.0698401
0.0863917
0.417374
-0.00886864
1.04277
1.21653
0.607443
-0.851453
0.283199
-2.27976
-0.186871
0.145154
0.132452
-1.09301
-0.234196
-0.976585
-0.226585
0.0583503
0.824445
-0.427354
-0.524197
-0.797908
0.881208
0.197982
-1.7154
0.275599
1.4398
-0.0633428
0.495029
1.24007
-1.15135
-0.29719
0.777626
-0.333953
-0.443673
0.908925
-0.349466
-0.559459
-0.192151
0.0423255
0.677051
-0.678429
0.00137827
-1.49547
0.948054
0.547416
0.537324
0.879827
0.00133718
0.126651
0.808846
-0.531267
-2.25584
1.06487
1.19097
-2.23881
1.74818
1.03279
0.630686
-1.66347
0.829048
-0.740258
1.62463
-0.544676
-1.07996
-1.07753
0.191932
-0.0894142
-0.110572
-0.104702
0.207521
-0.0471467
0.134154
-0.0870078
0.150102
0.301367
-1.8755
-0.337962
0.500235
-0.237969
-0.0363222
-0.0304667
0.843952
-0.464321
-0.379631
0.820414
-0.497515
-0.141092
0.135645
-0.124719
1.24646
0.0777037
-0.0364759
-0.293602
-0.753993
-1.48358
0.528838
-0.0593544
-0.0974029
0.147036
0.132125
0.122306
-0.0923209
-0.513228
-0.430858
0.112077
-0.0877216
-0.0243558
0.19415
-0.776219
-0.299869
1.07609
-0.293983
-0.0312503
-0.0515827
1.22826
1.01595
-2.24421
-0.429239
0.811499
0.232377
-0.0923782
0.626211
-0.825314
-0.92138
1.74669
-0.914605
-0.877837
0.419509
0.286421
-0.138585
-0.147836
1.0067
-0.957373
-0.178344
2.04635
-1.09552
-0.202456
0.121492
-0.418608
-0.645899
0.0435372
2.06405
-1.79516
-0.268887
-0.924168
-0.559407
-0.293817
0.178234
0.0782478
-1.01213
-0.245503
1.25763
0.246172
-0.541881
0.633855
-1.6221
-1.33063
0.618504
0.712125
-0.20252
-0.00434858
0.206869
0.963303
-0.631429
-0.331874
0.117334
-0.178074
0.0849813
0.0941182
0.698663
-1.73358
0.760981
0.147944
-0.389851
-0.406245
0.231643
-0.0739037
0.162086
0.163128
-0.939347
0.0288016
0.388519
0.187873
-0.347577
-0.502463
0.474332
0.0281313
0.929873
0.69476
0.489118
0.0542974
0.703386
0.0821558
-0.785542
1.65812
-1.38252
-0.332592
0.0929923
0.156058
0.0271183
0.156627
-0.0789387
-0.167728
0.00440417
-0.138481
0.544881
-0.146776
-1.79692
-0.0298014
-0.172719
-0.07693
-0.0111929
1.11309
-1.66863
0.778081
-0.358698
-0.419382
0.00464687
0.119924
-0.0114326
-0.00684451
0.381532
0.0704482
0.0886191
0.58147
-0.313451
-2.65084
1.25702
1.39382
-0.0978073
0.0150443
-0.00307475
0.123775
0.166405
-0.3055
-0.305044
0.757679
-1.58299
-0.0414309
-0.956409
2.18467
0.560484
-0.0661827
-0.494301
-0.534387
-0.44058
-0.0659608
0.0975516
-1.11167
0.449131
-0.703675
0.254544
0.542941
-0.567119
0.0241774
0.0164144
1.07747
1.3433
-1.3624
1.38252
-2.51444
1.83952
0.674911
1.24703
-2.20344
2.61259
-1.27719
-1.06017
-1.10696
0.221915
0.117568
-0.0771462
-0.365558
-1.52133
0.0774563
-0.0161554
-1.29705
1.2047
-1.98212
0.77742
-0.0676761
0.278377
-0.353002
0.0705035
-0.114501
0.958168
1.29646
-2.30261
1.10344
-0.140327
-0.774277
-1.32988
-0.493865
-0.0732536
2.09766
-2.12241
-0.100862
-1.12873
-0.118422
1.23387
-0.915924
-1.87342
1.82149
0.0519285
0.3743
2.2899
0.391365
0.0464027
-0.437768
1.37035
-0.631658
0.250568
0.0445056
0.680451
-0.685255
0.101314
0.13721
0.752397
0.700692
-1.45309
-0.47438
-0.309306
1.05114
-1.05672
0.00558361
0.657552
-0.456786
-1.60628
0.657989
0.948294
0.420087
0.317
-0.958146
-0.196041
1.12027
-1.7167
0.297825
-0.584189
-0.140443
0.275151
-0.674822
0.426208
-1.49277
-1.07311
2.56588
-0.280802
0.455933
-0.39009
0.646544
1.25551
-1.84874
0.102888
1.35856
-1.9112
-0.209207
-0.102661
0.226057
-1.21238
0.107486
0.647002
0.517836
-0.0016606
-0.538039
-2.16597
0.358816
-0.00556401
0.0398028
-0.0342388
0.0795471
-0.337494
1.15919
1.09817
1.27713
-1.00497
0.0850585
-0.00239491
-0.198329
0.459815
-0.342508
0.636938
-0.586007
-0.907174
2.15421
-0.0960039
0.179127
-0.840474
-0.619092
1.45957
-1.32956
0.672836
-0.0726119
0.0657305
0.0319579
-1.44556
-0.0880053
-0.175035
0.624166
-1.46591
-1.18494
2.06405
0.547578
-1.26026
0.943881
-0.630477
-0.197181
0.576172
-0.21389
-0.264774
0.238057
-1.42326
0.305213
-0.812219
1.26747
-2.17465
-0.796036
-0.118124
0.524763
-0.217246
-1.65617
1.34176
-1.70521
1.35101
0.651228
-1.63641
0.985183
1.50967
-0.561615
1.72759
-0.793042
-1.21216
2.0052
0.553067
1.28934
-1.04317
-0.623323
-0.707306
-1.40581
-1.10862
0.442259
-0.941986
1.54842
-0.606435
-0.14565
1.36749
-1.22184
-1.01662
-0.949394
1.96601
0.899159
0.151979
0.270125
0.37045
-0.190022
0.176801
0.0132206
0.0345373
-0.27684
0.474334
-1.3985
-0.622968
-0.397816
-0.294938
-0.0695006
0.510829
0.24034
0.655091
-1.9323
0.377895
1.55441
-0.0398887
-1.627
1.66689
0.0241191
-0.269555
0.0698128
0.431725
-1.72281
1.72281
-0.313493
-0.046367
0.35986
-0.532899
1.0094
-0.584173
0.0903076
-0.699158
-0.149515
0.504949
-1.3624
0.00626436
-1.29968
0.28389
1.24451
-1.27852
-1.23425
0.22212
-0.0787843
0.422093
-0.343309
0.147096
0.529955
-0.0489725
0.00457814
-0.988347
-1.21181
0.162113
1.0497
-1.37963
-0.0456589
-1.08146
-1.07612
0.0635237
-0.251462
0.173056
0.496211
-0.620123
-0.0573915
0.0308448
0.393537
-0.347929
-0.326893
-1.06581
1.50587
-0.440054
0.339398
0.190255
-0.225468
0.41674
-0.191272
-0.371398
0.139292
0.323646
-0.591228
0.267582
-1.04909
1.86889
-0.8361
-1.47769
-2.00845
0.458098
-1.99806
0.0551738
0.927987
1.11389
0.121773
-1.02277
1.52999
0.437123
0.652718
-0.523758
0.636128
0.620177
0.208871
2.12178
-0.854302
-0.862432
-0.623757
1.48619
1.16094
-0.0438934
-1.11705
-0.0413179
-0.109532
-0.217793
0.196404
0.151212
1.35057
-1.50178
-1.30007
1.11312
0.186959
1.30007
-1.51732
0.235554
-0.30323
-1.46645
1.03287
0.0884826
-0.0904576
0.0548416
-1.66322
0.136884
1.64915
-0.997921
-0.269388
-0.0942187
0.132276
-0.466629
0.727493
0.267249
-0.0876217
0.375624
-0.545312
0.187212
-0.253952
-0.598634
-0.0585325
0.70095
-2.08015
0.526222
-0.0987744
0.475311
-0.376537
-1.05504
-0.927084
0.104218
0.679958
0.444664
-0.897715
0.115564
-0.309097
-0.248446
0.134997
-2.22066
1.16048
0.0618889
-0.0546358
-0.233089
0.0343135
-0.0816665
-0.0901451
-1.38332
0.61947
-1.72646
1.10699
0.0733683
0.270352
-0.34372
0.0276619
-0.284964
-1.05309
1.33699
0.425512
0.385987
1.30867
-1.15135
0.203361
0.0512805
1.70894
-1.96543
0.256489
0.335717
0.303539
-0.828383
-0.0173314
0.38041
-0.505769
-0.0264772
0.039209
-1.23775
0.341788
-0.0741801
-0.267608
-1.50454
0.204626
1.29992
-7.42399e-05
0.0120172
-0.0249607
0.0684732
-0.0435125
1.19078
-1.16945
-0.0150287
0.0351699
0.605678
0.215666
0.050924
-0.0514089
-0.0861659
0.123213
0.202414
0.667648
-0.870063
-0.430136
-0.0194279
-0.920625
-1.01848
1.93911
0.169478
-0.116312
0.297021
-0.92508
2.09764
-0.098081
0.133624
0.0601329
0.094363
0.143769
2.24085
-1.08409
-1.24978
0.81859
-0.513377
-1.13218
2.32315
-0.0694542
0.139902
-0.151832
0.165967
-0.0332448
-0.212369
-0.305858
0.202434
-0.307099
0.70129
-0.205079
1.21073
0.0985065
-0.064193
0.255333
-0.0365498
0.0419105
0.15338
0.0396545
0.469633
-0.817562
0.224515
-0.260111
0.0355967
0.140697
-0.0551857
0.209506
0.761597
-0.971103
-0.259838
0.129952
0.439019
-0.528984
2.41532
-1.18398
1.02382
0.889409
0.0606082
0.481917
-1.20471
0.361918
-0.483595
-0.374843
1.57432
0.617247
-1.51783
1.51783
1.58786
-0.884163
1.07549
-0.0499428
1.53987
-1.48993
0.908933
1.03551
1.19935
-2.69213
0.124929
-1.0968
-1.35333
-0.177134
-1.44757
1.62471
-0.419844
-0.159094
0.0811486
1.25578
0.178272
-0.284891
-0.667059
1.57946
-0.912397
-0.180967
0.282281
-0.00445491
-0.0962508
0.165262
2.60191
-1.08651
-1.51541
1.59187
-1.46752
1.11243
0.229501
0.0221433
-0.00574968
0.0147923
1.56374
0.512
0.574873
0.724768
0.0253545
0.210659
-0.236014
-0.360932
0.226909
0.193757
-0.209123
0.0153662
0.1723
-0.234401
0.0621006
0.450064
-0.400656
0.348283
-0.533591
0.66943
-0.569564
0.0345846
0.0410214
-0.00355147
0.287362
-0.0390383
-0.248324
-0.210318
0.204917
0.00540131
2.12241
-1.69451
0.316688
-0.337346
0.0206582
-1.52191
-0.360225
0.273817
-0.99505
1.90398
0.265939
-0.345588
2.72861
-1.52926
0.253568
-0.32865
-0.173207
0.467003
-1.2915
-0.204709
1.46976
1.31998
-1.09393
-0.105892
0.161269
-0.118181
-1.48149
-0.305258
0.297107
0.251068
-0.383664
-0.387394
0.298218
-0.0969103
-1.33884
1.293
-1.44335
1.49894
-1.13718
-0.540084
0.427482
0.703139
0.40557
-0.439305
-0.0713869
0.136488
0.354023
-0.490511
-0.381459
1.39039
-0.845944
-1.13274
-2.44815
-0.0932725
0.0890519
0.00422067
-0.0236071
1.45079
-1.42719
1.42752
-0.429016
0.338549