/*--------------------------------*- C++ -*----------------------------------*\
| =========                 |                                                 |
| \\      /  F ield         | OpenFOAM: The Open Source CFD Toolbox           |
|  \\    /   O peration     | Version:  2306                                  |
|   \\  /    A nd           | Website:  www.openfoam.com                      |
|    \\/     M anipulation  |                                                 |
\*---------------------------------------------------------------------------*/
FoamFile
{
    version     2.0;
    format      ascii;
    arch        "LSB;label=32;scalar=64";
    class       volVectorField;
    location    "8.9";
    object      U;
}
// * * * * * * * * * * * * * * * * * * * * * * * * * * * * * * * * * * * * * //

dimensions      [0 1 -1 0 0 0 0];

internalField   nonuniform List<vector> 
5098
(
(2.36183 1.02898 0)
(2.05831 0.0872705 -6.51866e-20)
(2.50373 -0.0310861 -1.40555e-21)
(1.65457 -0.724826 3.64812e-19)
(3.49882 -1.07171 0)
(1.00398 -0.479163 0)
(2.49583 0.0160751 1.14855e-19)
(3.03606 -0.186054 1.86678e-21)
(2.69053 -0.0469859 -3.12909e-20)
(1.77146 -0.276539 3.12258e-19)
(-2.75906 1.24839 0)
(1.99524 -0.00905937 5.74898e-20)
(2.24439 0.22826 2.02966e-20)
(1.04523 -0.513401 0)
(2.62219 -0.522171 1.6683e-19)
(1.83067 0.0737291 -1.29606e-21)
(-2.47944 0.937911 -8.6902e-19)
(-2.40347 1.83712 0)
(-0.241376 0.209695 2.04602e-19)
(-2.29892 0.936559 9.9461e-19)
(1.79017 0.475726 -8.37395e-20)
(1.7687 0.0760241 -4.79428e-21)
(2.44657 -0.78407 0)
(0.876509 -0.0363973 2.61211e-20)
(-0.159893 0.268993 0)
(1.57135 -0.62781 0)
(1.99519 0.00334896 1.14688e-19)
(2.06029 -0.816633 -1.39144e-22)
(-0.325332 0.19826 -6.28416e-19)
(2.27199 -0.904143 0)
(2.30876 -0.0819171 -3.19134e-20)
(0.827683 -0.40547 0)
(2.08791 0.0460124 -9.93073e-20)
(-2.73397 0.94219 0)
(2.4841 0.382455 9.45407e-21)
(3.69179 0.604277 7.04174e-19)
(2.00538 -0.396597 5.13169e-20)
(2.1 -0.00960611 -2.24551e-21)
(1.42099 -0.489146 3.83599e-19)
(1.72817 -0.76269 0)
(1.6693 -0.743024 -1.56605e-19)
(-0.0586409 2.51069 -9.93931e-19)
(1.59527 -0.628324 0)
(2.47179 -0.328436 7.71989e-20)
(2.30719 0.674066 -5.33214e-20)
(2.04773 0.0701167 9.28577e-21)
(-2.47873 1.14293 3.09656e-19)
(1.18787 -0.418914 0)
(2.28421 -0.0908244 0)
(1.64991 -0.6855 3.96654e-20)
(2.1859 0.126719 1.22912e-19)
(1.62961 0.397344 -4.46855e-19)
(0.206663 -0.123244 7.50036e-23)
(2.12076 -0.0438491 8.58528e-20)
(1.06422 -0.527849 -2.04655e-19)
(1.62827 0.0683629 0)
(1.86197 0.234958 -2.33128e-19)
(1.76538 -0.684336 0)
(0.971552 -0.480767 0)
(2.08907 -0.0180922 -3.99878e-20)
(1.6751 -0.464344 -1.74879e-20)
(-1.6357 0.914355 -9.03351e-19)
(2.4916 0.411877 0)
(2.14324 0.256848 0)
(0.252557 -0.138654 1.15534e-18)
(0.920538 -0.464314 3.05417e-19)
(2.54203 0.0672062 -2.27241e-21)
(2.25344 0.184323 3.00268e-20)
(2.16858 -0.16577 3.5589e-20)
(1.82656 -0.734246 8.07108e-20)
(1.90482 0.168863 8.42554e-21)
(0.963232 -1.31866 1.94081e-21)
(2.17442 -0.824298 0)
(-1.12338 0.289035 0)
(1.86297 -0.329081 2.81113e-20)
(1.25697 -0.608434 -1.94382e-19)
(1.71066 -0.23439 0)
(1.56696 0.144039 3.6651e-19)
(2.20422 -0.29831 9.84508e-20)
(1.6609 0.112583 0)
(1.78319 -0.0550801 0)
(0.952671 1.62147 2.3426e-19)
(1.79481 -0.301479 3.09152e-19)
(-2.63331 1.02879 -1.84501e-19)
(-2.27531 1.80335 5.88863e-19)
(2.09988 -0.841672 -7.86063e-19)
(0.20229 0.151384 -2.56895e-19)
(1.72052 -0.256217 5.83219e-22)
(3.05808 -0.00575478 6.51423e-20)
(1.53918 -0.433488 -1.08031e-20)
(2.29898 -0.097194 -1.35627e-23)
(1.02812 -0.503252 4.49456e-19)
(2.45233 -0.0448484 -7.60827e-20)
(1.67086 -0.705962 -1.9411e-19)
(1.39902 -0.510589 6.73863e-20)
(0.516272 -0.875553 -1.17266e-19)
(1.21356 -0.597549 -1.02105e-19)
(1.49264 0.201771 2.80066e-19)
(1.78612 -0.303396 9.15764e-21)
(2.20474 -0.397109 9.71993e-21)
(2.45043 -0.703642 -9.28408e-19)
(1.12377 -0.552142 -2.28935e-19)
(1.59395 1.57758 -1.19709e-18)
(2.53928 -0.0887692 8.51099e-21)
(1.58369 0.117505 -4.16625e-19)
(2.24182 1.08583 0)
(1.93377 0.217373 2.50757e-19)
(2.30315 0.0928308 7.23875e-20)
(1.13466 -0.466846 6.0098e-20)
(-2.70279 1.32318 0)
(1.19991 -0.56911 -3.39511e-19)
(0.773964 0.308926 2.92416e-19)
(1.92396 -0.0277381 -1.61409e-19)
(1.05638 -0.375135 1.10221e-19)
(1.73003 0.548052 1.21832e-19)
(-0.469159 0.259465 0)
(1.49098 1.46097 8.36926e-19)
(2.37888 1.39244 0)
(1.52588 -0.361432 -4.4425e-20)
(0.912455 -0.085479 -3.94894e-19)
(1.69409 0.381483 3.67043e-19)
(1.4176 1.71493 -3.64467e-19)
(1.70319 -0.345014 -1.99686e-19)
(-0.753431 2.29076 -4.61665e-19)
(0.446179 -0.588121 -6.03723e-19)
(-1.54702 0.682878 1.06944e-19)
(2.28842 -0.0358911 6.86078e-20)
(2.40027 -0.744025 2.47945e-19)
(1.42623 -0.185825 -8.92039e-20)
(1.04778 -0.378578 -2.08244e-19)
(-1.2695 2.12824 -6.58122e-19)
(1.22837 -0.554318 -4.19465e-19)
(1.25232 -0.551825 3.48188e-19)
(2.29268 1.39981 -1.89865e-20)
(0.551067 -1.76207 -2.82051e-18)
(3.68307 -0.119765 5.1673e-19)
(1.73031 2.14069 4.75124e-20)
(1.91321 0.211957 1.74631e-19)
(0.972012 -0.47875 0)
(2.12257 -0.0527443 -2.88786e-19)
(1.59863 0.47928 -3.03069e-19)
(3.403 0.25824 8.44669e-19)
(1.99331 -0.868807 -7.69499e-20)
(2.47156 -0.0311965 -6.54149e-21)
(2.02597 0.0541827 -6.56166e-20)
(2.45119 -0.0251205 0)
(2.15351 -0.178644 5.51577e-20)
(3.04457 -1.69708 0)
(2.8676 0.0212962 2.97825e-19)
(1.9681 -0.860073 -1.01933e-19)
(1.45829 1.90977 -8.68211e-19)
(1.45764 0.875095 0)
(3.33665 -1.60009 3.65952e-19)
(2.083 0.0389575 0)
(0.198344 0.0747484 -3.13943e-19)
(0.925064 -0.367022 -1.57453e-19)
(1.7653 -0.680534 -1.66407e-19)
(2.0743 -1.36878 -6.11766e-19)
(1.62025 -0.741066 -1.34409e-19)
(-0.138137 0.0845619 6.76397e-19)
(2.08147 -0.377548 -9.34533e-20)
(2.64582 -0.559769 -2.18888e-19)
(0.472379 0.693258 -2.85635e-19)
(1.89288 -0.1955 -1.83932e-19)
(-2.07517 1.72325 -4.21228e-19)
(2.28781 -0.122415 -5.40737e-20)
(3.5412 -1.40273 -1.36113e-18)
(2.59604 -0.1514 0)
(-0.726541 0.747323 4.08672e-19)
(1.82577 -0.5479 -2.04352e-19)
(0.61013 -1.02043 8.34048e-20)
(1.64951 -0.654149 -1.37751e-19)
(2.14295 0.559767 1.99634e-19)
(2.0501 -0.777352 -1.60949e-20)
(2.59987 -0.0475965 0)
(1.93392 0.00477318 0)
(1.81715 -0.294865 -1.10683e-19)
(3.19353 0.645797 -1.8116e-20)
(1.83402 -0.172675 2.86977e-19)
(0.37963 0.00806981 0)
(1.53726 1.95893 0)
(1.88171 1.36334 -5.08843e-19)
(1.90925 -0.525529 2.03493e-19)
(-1.97689 1.76895 0)
(1.9302 -0.201092 0)
(2.56153 0.856009 5.53978e-20)
(1.54142 0.230887 0)
(2.02905 -0.381639 1.53716e-19)
(1.11591 -0.538746 3.57667e-19)
(0.348498 0.276862 -2.35782e-19)
(0.80123 0.562128 0)
(1.54771 0.347203 9.35331e-20)
(2.20811 -0.85259 0)
(1.85576 -0.353268 2.69296e-20)
(2.29981 -0.108507 5.65739e-21)
(1.11618 -0.433959 -5.03989e-19)
(2.31922 0.620386 1.41878e-19)
(3.92846 0.110844 0)
(2.09314 0.0378852 -5.28959e-23)
(1.86957 -0.525616 -2.94285e-20)
(-0.99764 1.67067 -9.66651e-19)
(1.69997 0.311473 5.49673e-21)
(2.31326 0.682961 -4.78646e-20)
(2.35646 0.00945959 7.3807e-21)
(1.52932 -0.00350467 1.06707e-19)
(0.898025 -0.371194 -1.11524e-19)
(2.66984 0.126823 -7.07404e-21)
(1.29183 -0.599843 0)
(2.4089 -0.0567154 0)
(1.55895 -0.73388 1.77673e-19)
(2.02837 -0.14116 -8.73676e-20)
(1.74115 0.275097 2.89039e-19)
(1.75776 0.473756 -8.4472e-20)
(2.0722 0.0925783 -2.42988e-19)
(2.43561 -0.0780456 -2.66011e-19)
(-0.148286 0.242467 -1.69334e-19)
(1.94256 -0.371485 0)
(-2.69772 1.52641 -1.2771e-18)
(0.683634 -0.524914 8.35874e-20)
(2.00018 0.0538653 1.52469e-19)
(2.27938 -0.0760974 2.47619e-23)
(1.6843 -0.346074 0)
(2.64183 0.110954 -9.4985e-21)
(2.27481 -0.125385 -2.03305e-20)
(0.737828 -0.193392 1.32574e-19)
(2.09179 -0.13346 0)
(0.508558 -0.153726 0)
(1.9849 0.0137142 0)
(2.15422 -0.419802 0)
(2.53145 -0.801156 -7.37236e-20)
(1.78893 0.390755 0)
(0.708034 -0.3084 -4.26227e-19)
(1.7616 0.888404 -2.63403e-19)
(1.91149 0.0545284 1.26001e-21)
(2.57842 -0.065606 -3.73479e-20)
(2.29597 -0.0539215 0)
(1.38572 1.30245 -2.74512e-19)
(-0.0566589 0.741103 -9.70795e-19)
(3.18739 0.438997 0)
(1.90713 -0.0308318 2.29501e-19)
(0.62444 1.61154 -7.95475e-19)
(2.16416 0.579979 0)
(2.73795 -0.00571744 0)
(1.13916 -0.290099 6.7774e-19)
(1.78349 0.42465 -4.08009e-19)
(2.27994 -0.0388135 -5.74929e-20)
(1.16625 -0.558052 6.26344e-20)
(-2.71048 1.35231 -8.57304e-19)
(-2.71094 1.00815 0)
(2.36063 -0.0458372 1.54693e-20)
(2.07819 0.762128 -1.87317e-19)
(2.08163 -0.807997 -5.28133e-20)
(-0.652752 0.00506493 2.74967e-19)
(-0.502696 1.33042 4.92855e-19)
(1.99607 0.0248175 -1.70719e-19)
(0.0381502 0.569508 8.97899e-19)
(1.73761 -1.83244 2.43179e-18)
(0.46203 0.233368 -2.62567e-19)
(1.2214 -0.439997 -2.66258e-19)
(1.70317 0.00880362 1.69175e-20)
(2.57074 0.854717 1.88472e-21)
(0.318146 -0.119601 5.31925e-19)
(0.0392032 0.063096 5.85407e-19)
(2.11886 -0.856625 0)
(2.13492 0.0578782 1.70865e-21)
(-2.10626 1.27945 3.00217e-19)
(-0.106185 0.0711704 -7.94135e-19)
(-2.64294 1.09928 0)
(0.485113 -0.661539 0)
(1.88927 -0.0225372 -2.12154e-20)
(0.526198 0.323192 2.902e-19)
(1.7882 0.0907984 -1.11294e-19)
(-0.201082 0.0951504 -3.56422e-19)
(0.701174 -0.627205 0)
(1.22853 -0.504341 2.84869e-21)
(1.05097 1.70982 -8.13086e-19)
(-0.259211 2.49618 -1.35289e-18)
(2.03292 1.38891 0)
(2.61833 -0.513467 0)
(2.02333 -0.116412 0)
(-1.41449 2.01855 -3.67512e-19)
(2.95248 -0.192174 1.92318e-19)
(0.768181 -0.160628 -5.61769e-19)
(2.87357 -0.122762 -2.13684e-19)
(3.58496 0.0661381 -7.93438e-19)
(-1.5709 1.1546 0)
(1.9782 0.0221686 0)
(2.69948 -0.0304515 4.12718e-20)
(2.33904 -0.12481 4.38376e-20)
(1.55813 -0.000389762 -9.19741e-20)
(-0.47873 2.36952 0)
(-1.25999 -0.681795 3.89799e-19)
(1.14783 -0.0850058 -2.02998e-19)
(2.32636 0.543867 -6.1272e-20)
(2.16529 -0.577693 -2.40692e-20)
(1.02826 -0.242707 -1.93906e-19)
(2.51696 0.147654 0)
(2.29795 -0.100091 -3.70012e-20)
(2.03659 0.00974703 0)
(2.06142 0.0364466 -1.01524e-19)
(2.35232 -0.0948091 -3.39944e-20)
(2.71977 0.115077 4.77146e-20)
(1.69418 -0.444518 3.2726e-19)
(1.84595 0.396153 2.32899e-19)
(-2.01017 1.22731 -4.88302e-19)
(1.95729 -0.742883 -3.54299e-20)
(2.22617 1.72075 -3.74724e-20)
(2.09206 -0.00414588 0)
(1.93289 -0.385865 0)
(-2.63006 1.11654 0)
(2.28961 -0.137247 2.62803e-21)
(-0.826666 -0.0692038 2.93523e-20)
(0.931704 -0.461066 2.54455e-19)
(2.02564 -0.0876328 -8.60347e-20)
(2.30617 0.269306 1.26914e-19)
(0.26862 -0.00560308 6.20087e-19)
(1.72078 2.03834 4.00746e-20)
(2.64421 0.100653 8.46413e-21)
(2.26028 -0.0510539 1.64195e-19)
(0.975146 -0.416798 0)
(2.3343 -0.301862 -1.2e-19)
(-1.25446 -0.716511 -7.60591e-19)
(3.19048 0.296919 -4.10185e-19)
(0.139863 -0.499661 -1.92516e-20)
(1.79055 -0.281166 1.04003e-20)
(1.40564 -0.46315 2.70463e-19)
(2.06764 0.819937 0)
(1.99447 0.0638816 -8.15585e-20)
(1.14991 -0.472469 -6.29735e-19)
(1.51358 -0.335192 4.28598e-20)
(1.43482 -0.682205 0)
(2.31543 -0.0632548 -5.01396e-20)
(1.12969 -0.545564 1.71045e-19)
(2.71639 -0.532605 3.47758e-19)
(1.85881 -0.735081 -9.31211e-20)
(2.30928 0.0880157 -1.17393e-19)
(2.26583 -0.0228432 -1.70356e-20)
(1.06774 -0.525588 2.48698e-19)
(2.17155 -0.0504268 9.01965e-20)
(1.93234 -0.332173 0)
(2.01874 -0.881752 7.5883e-20)
(1.80371 -0.736102 -3.40189e-19)
(2.24249 -0.248679 2.69277e-20)
(1.99564 0.0251137 3.18438e-20)
(1.35236 0.952268 0)
(1.74448 -0.281781 0)
(2.14792 -0.0406604 -8.48996e-20)
(0.285331 0.245658 1.57247e-19)
(2.4317 1.33526 0)
(2.24267 -0.045905 5.63969e-20)
(2.20195 -0.905231 -1.21857e-20)
(0.971959 0.259778 -5.48218e-19)
(0.97255 -0.420646 -3.54937e-19)
(-1.21326 1.83874 3.55956e-19)
(1.92977 -0.0898632 5.0026e-20)
(-1.39233 1.83754 1.42446e-18)
(3.98604 0.0267722 -7.00121e-19)
(1.98402 -0.0239423 0)
(1.46374 -0.150942 -7.85712e-20)
(1.19258 -1.39654 0)
(1.97385 0.07092 -3.87506e-19)
(2.11805 -0.351269 0)
(2.00297 -0.0073914 -5.26378e-20)
(1.67319 -0.25184 2.30999e-20)
(2.53976 -0.300743 -6.4377e-20)
(1.2064 -0.479197 3.51237e-19)
(1.9757 0.0483889 -2.97019e-19)
(1.99746 0.166971 -4.45569e-19)
(2.47058 -0.951031 0)
(-0.0877813 0.964902 0)
(1.27688 -0.51889 -3.3229e-19)
(2.47912 -0.345338 0)
(3.26486 0.941244 -5.27683e-19)
(1.5836 -0.371578 0)
(0.766801 -1.41173 -2.59812e-21)
(-1.97184 1.0619 7.91077e-19)
(1.88119 -0.553779 2.5315e-19)
(1.19436 0.532312 -5.88808e-20)
(2.54476 -0.176221 0)
(1.67054 -0.251697 -2.53428e-20)
(1.74068 0.0221855 -1.32018e-19)
(-1.66195 0.71751 -1.20407e-19)
(1.97881 0.019919 -1.53345e-19)
(2.77259 0.106266 -3.79975e-20)
(2.57167 -0.158618 -2.63823e-20)
(2.79424 1.1289 1.37912e-19)
(2.44463 0.477419 6.04245e-20)
(-0.193263 0.957396 -2.13191e-19)
(1.81137 -0.498827 0)
(1.23609 1.61557 1.28222e-18)
(1.98453 0.0921503 -1.45048e-19)
(2.17917 -0.168799 0)
(1.99129 0.0202117 1.1237e-19)
(1.27584 -0.605978 -1.33613e-19)
(1.55516 1.13171 2.22148e-19)
(2.68467 0.416532 0)
(1.48387 -0.694481 6.4289e-20)
(-0.922056 -0.970424 0)
(2.16056 0.0620978 5.73941e-20)
(2.84584 -0.377369 -2.19666e-19)
(0.199436 0.76818 7.70266e-19)
(1.11311 -0.10381 0)
(1.57351 0.213527 1.96909e-19)
(1.97984 0.0379396 1.23413e-19)
(-0.409679 0.230202 0)
(1.59131 0.0153127 0)
(2.07551 -0.136164 0)
(-0.2855 0.184497 9.39213e-19)
(1.2037 0.631436 -3.65603e-20)
(2.97426 0.0978728 0)
(1.99436 -0.000226416 0)
(1.60248 -2.14852 5.34727e-19)
(0.540285 -0.164016 0)
(2.31402 0.493998 6.33761e-20)
(2.5719 1.2665 4.63578e-20)
(1.8716 0.155252 -1.1579e-19)
(1.81523 0.357488 -6.58603e-21)
(0.966834 0.330461 6.29764e-19)
(2.55252 1.42198 -7.41404e-20)
(2.27051 -0.0922987 7.32612e-22)
(2.16595 -0.0515482 7.60338e-20)
(1.66713 -0.193396 -1.7749e-19)
(1.25418 -0.492721 -1.52942e-22)
(2.00988 0.00850981 0)
(-1.53416 1.91916 -1.3787e-18)
(0.903079 -0.537373 0)
(-1.0332 0.0852607 9.90657e-21)
(2.63474 -1.83928 0)
(1.95575 -0.355481 0)
(1.49871 -0.701149 2.58762e-21)
(2.31275 0.112069 7.26863e-21)
(-0.24872 0.107609 -7.0655e-19)
(2.13244 0.0210891 6.78198e-23)
(1.95995 -0.706494 6.09976e-20)
(2.72683 1.19978 6.96038e-20)
(-0.00015752 -0.501999 6.08611e-19)
(2.67093 0.0349479 4.24691e-21)
(2.38682 -0.8386 -1.61376e-19)
(1.9634 0.0317823 -2.47732e-19)
(0.343701 -0.346329 0)
(1.86364 -0.132008 -2.96518e-19)
(1.95408 -0.44267 1.33636e-19)
(1.99168 0.0962473 -5.77777e-19)
(-1.9402 0.700158 -7.63415e-19)
(1.49079 1.12636 -1.6879e-19)
(2.50684 1.32506 8.49398e-20)
(3.45766 0.50401 0)
(2.53513 -0.490163 0)
(-0.0388237 0.108386 -2.57353e-19)
(2.12862 -0.0851931 4.68553e-20)
(-2.67829 1.14287 0)
(2.27198 -0.0508021 -4.07281e-20)
(1.99829 0.0128799 -2.51738e-19)
(-2.46358 0.835824 -4.77409e-19)
(-2.85376 1.12817 1.99978e-18)
(2.52196 -0.193363 -2.10899e-21)
(-0.578617 2.53357 -3.60882e-20)
(2.29228 -0.0812794 1.54263e-19)
(2.05571 -0.378968 5.03898e-20)
(3.08398 1.22873 3.7888e-19)
(1.60994 -0.649325 1.86942e-19)
(1.42104 -0.249191 5.68279e-21)
(1.06026 0.201771 4.4906e-19)
(1.79177 1.86343 0)
(1.82541 -0.479102 1.11504e-19)
(-2.53078 1.6273 0)
(1.08268 -0.204415 -1.46688e-18)
(0.431652 2.28743 0)
(-1.64467 0.950228 -1.92155e-18)
(1.73049 -0.71146 -2.02562e-19)
(0.570832 0.47917 -1.18544e-19)
(2.52943 -0.897476 0)
(-1.85209 -0.0167501 0)
(3.25345 0.384212 0)
(1.99659 0.0731942 1.06197e-19)
(-0.209938 -0.68406 -5.17687e-19)
(-0.141848 0.400968 5.15161e-19)
(1.65346 -0.327306 -8.29962e-21)
(2.99611 1.25365 -4.57159e-19)
(2.03236 0.235824 0)
(1.12784 1.70464 3.97537e-19)
(2.22155 1.30533 -1.74843e-20)
(-0.915617 -1.15373 -2.09601e-19)
(1.81849 -0.816861 -1.38385e-19)
(2.29295 -0.362824 8.35928e-21)
(1.32134 -0.629612 1.30157e-19)
(2.20555 0.493107 0)
(2.84393 -0.352405 2.05361e-19)
(-0.020729 0.0501313 3.20779e-19)
(1.99975 -0.0200568 8.62954e-21)
(3.25738 1.08269 -2.67229e-19)
(2.95364 -1.74362 0)
(2.38651 0.813936 0)
(0.441346 0.114555 0)
(0.797264 -0.505819 0)
(1.76883 0.0311753 0)
(1.47793 -0.565809 9.77807e-20)
(3.34178 1.23508 4.31546e-19)
(1.52515 -0.631591 2.44249e-19)
(2.08385 0.0474066 1.84524e-19)
(-2.39999 1.6874 0)
(2.37106 -0.883898 2.99166e-21)
(-0.318047 0.429796 0)
(-2.42293 1.80615 -1.10765e-18)
(-0.244369 0.211819 2.92077e-19)
(3.15748 0.91783 -2.74084e-19)
(1.98253 0.0833025 2.90066e-19)
(2.03338 0.241479 -1.02489e-19)
(2.94563 0.600364 -1.58284e-19)
(2.55808 0.0262284 0)
(0.108897 -0.606338 5.7746e-19)
(2.0096 0.00102624 0)
(1.52677 0.756379 1.70555e-20)
(2.32238 -0.140882 0)
(2.064 0.196521 -1.41686e-19)
(2.09729 -0.0724394 0)
(1.005 -0.387847 -2.51443e-19)
(0.358961 -0.26318 9.68707e-19)
(2.66795 -0.279113 -1.64985e-19)
(1.39445 0.280833 4.05561e-19)
(-0.43455 0.295072 -1.91947e-18)
(3.28774 -1.19476 0)
(1.11122 -0.259513 -9.6007e-19)
(1.63191 -0.236903 -1.35002e-20)
(3.17883 0.501473 -7.13779e-19)
(1.68929 0.016904 -1.55788e-21)
(2.32159 0.778673 7.06445e-19)
(2.01995 0.907122 0)
(1.9591 -0.840634 1.14909e-21)
(1.9467 -0.835855 0)
(2.24113 -0.167616 1.09686e-20)
(0.562325 -0.188157 6.72905e-20)
(-1.90194 2.05798 0)
(2.33559 0.473722 0)
(0.579908 -1.06948 -1.71646e-18)
(2.33088 0.754317 0)
(1.55805 1.59173 3.35995e-19)
(2.66178 1.0781 -1.25175e-19)
(1.0197 -0.286346 -4.72866e-19)
(-2.76916 1.0251 -8.26767e-19)
(1.98323 0.00954129 -2.63221e-21)
(-0.605131 1.76294 -1.73355e-19)
(0.311545 -0.233094 -6.08797e-19)
(1.92376 -0.0194653 3.40529e-19)
(-2.36192 0.806369 5.4591e-19)
(-1.4709 0.8345 0)
(2.42593 0.183784 3.12739e-20)
(-0.606115 -0.783239 2.17731e-18)
(0.496154 0.133913 7.49262e-20)
(3.27987 0.704655 5.57903e-19)
(2.43436 1.59836 0)
(1.94869 -0.480562 -1.36015e-19)
(1.66141 -0.276044 3.19654e-22)
(1.25145 0.735068 -4.64848e-20)
(2.91772 0.0128896 -3.08089e-19)
(-2.79578 1.11788 5.42718e-19)
(-1.50392 2.20492 8.7107e-19)
(1.53802 -0.616319 -5.99926e-20)
(-2.78145 1.13605 1.24723e-21)
(3.05296 0.0153546 -3.61899e-19)
(-2.77955 1.06622 -6.09824e-19)
(2.90646 -1.39507 0)
(1.96418 -0.151875 -2.6032e-19)
(-1.04797 -0.242776 0)
(-2.25215 1.19512 -8.0887e-19)
(-0.70109 0.0594731 1.79883e-19)
(-0.887709 -0.163844 4.50985e-19)
(1.67699 -0.288548 9.62766e-21)
(-0.276793 0.272706 8.06239e-20)
(-0.830551 0.206023 0)
(2.54527 -0.742698 -6.10849e-19)
(2.66907 -0.867067 -3.25204e-19)
(-0.998006 0.013993 -4.16828e-19)
(1.73692 0.461951 0)
(1.66245 0.441826 0)
(0.298964 0.227372 0)
(0.966709 -2.10826 -3.87197e-19)
(1.9448 -0.0554661 -3.00902e-19)
(1.37985 0.0970404 0)
(2.43713 -0.683513 0)
(2.24863 0.213784 -3.48964e-20)
(1.1806 1.81206 -1.43984e-20)
(2.07343 0.288708 -4.35663e-19)
(3.28237 0.654652 -1.29817e-18)
(1.6202 0.0402173 9.57794e-20)
(2.08186 -0.0405314 -6.70753e-20)
(1.66297 -0.225915 4.0226e-20)
(1.91119 0.499572 -3.02691e-20)
(1.75379 1.12178 0)
(0.343198 -0.238687 -8.87579e-22)
(-0.465483 -0.730497 0)
(1.0951 0.0953631 0)
(2.90365 0.46364 -2.33266e-19)
(-2.23419 1.87181 0)
(2.43559 0.451026 0)
(1.97416 -0.110102 4.0496e-19)
(2.20402 -0.890991 0)
(1.99809 0.177385 4.53054e-19)
(3.22437 0.874379 2.66367e-19)
(3.01279 0.892564 8.68306e-20)
(1.43167 -0.367874 -5.38737e-21)
(1.09472 1.1261 2.87929e-19)
(2.61354 -0.815803 -1.26345e-20)
(2.76802 -0.862886 5.61426e-20)
(1.2518 -0.497941 3.32136e-19)
(-2.06835 1.02461 0)
(1.04659 -0.518938 0)
(-1.55279 1.35953 -1.09424e-18)
(0.395501 -0.261678 -1.28924e-18)
(-1.80373 0.521504 0)
(-2.36221 0.878026 1.37203e-18)
(0.234952 -0.178331 0)
(-0.230395 -0.624195 5.74854e-19)
(1.21757 -0.571558 -4.12392e-19)
(3.33829 0.752087 -1.20122e-20)
(2.94166 1.02145 1.85381e-19)
(1.29446 -0.456029 6.56339e-20)
(2.96801 -0.0105398 1.52646e-19)
(2.17982 0.940243 0)
(2.26148 0.933407 0)
(1.14466 -0.0230285 0)
(-0.565749 0.277728 -2.7895e-19)
(1.47898 -0.562876 0)
(2.17267 0.682129 0)
(1.62236 0.0162854 0)
(1.98875 0.297671 3.99131e-20)
(0.832401 -0.376072 2.11388e-19)
(2.27904 -0.761274 1.25177e-19)
(0.607838 -2.00163 1.13011e-18)
(1.72236 -0.395826 0)
(-1.62865 2.15281 0)
(2.16747 -0.521739 2.23942e-20)
(1.57216 0.475365 6.46741e-19)
(-0.394293 0.450569 -5.19891e-19)
(2.58262 -0.0636747 3.56369e-21)
(1.85405 -0.447073 1.91411e-19)
(1.03537 0.346093 -1.00819e-18)
(0.353948 -0.273246 0)
(1.16342 1.15115 -6.82384e-19)
(0.466398 0.249282 -6.31432e-19)
(3.05852 0.764967 0)
(2.21208 -0.0122232 0)
(2.26422 -0.0507358 0)
(2.06027 0.0391614 -3.52207e-19)
(1.45403 0.204985 -4.07875e-19)
(1.68265 0.0887622 0)
(2.04168 1.23972 7.302e-19)
(1.97897 -0.845074 4.54328e-21)
(2.13447 0.0447241 -1.5578e-20)
(-1.96987 1.34742 5.88089e-19)
(2.12051 -0.19276 0)
(2.49323 0.115295 -3.94535e-20)
(1.87743 -0.39241 0)
(-0.410434 -0.834466 -2.13464e-18)
(1.90577 -0.832085 0)
(2.4169 -0.701161 -4.54883e-19)
(3.31395 0.687252 1.00779e-20)
(2.34844 0.317891 1.38536e-19)
(2.16411 0.0463361 0)
(1.98872 -0.801978 0)
(1.69998 -0.704539 -2.36887e-19)
(2.25686 0.456833 -7.00224e-20)
(-2.5543 1.59609 6.31832e-19)
(0.965146 -0.467782 3.47048e-19)
(1.95634 -0.0665692 0)
(1.59321 0.161285 -5.94835e-19)
(2.40165 0.0215432 -9.68352e-20)
(1.24186 -2.29558 -5.20009e-19)
(2.20283 -0.386064 1.30133e-19)
(2.3723 -0.6041 0)
(1.26873 -0.396546 4.79444e-19)
(1.04549 0.130432 -6.12487e-19)
(3.15664 1.04388 6.51285e-21)
(1.81203 0.180621 -7.03573e-19)
(-2.17299 1.3916 5.41224e-19)
(-0.032713 0.605779 -1.25277e-18)
(2.77088 1.08305 1.15889e-18)
(2.11125 -0.034789 -2.27587e-20)
(0.270212 0.327844 5.59868e-19)
(-0.20084 0.136921 -2.04556e-21)
(-2.27469 1.5709 1.00244e-18)
(-2.4218 1.59057 1.18318e-18)
(1.90201 -0.143626 8.09562e-20)
(2.28944 -0.0755469 0)
(0.289791 -0.448302 4.34317e-19)
(1.33548 -0.638157 4.54533e-20)
(1.76261 -0.250598 1.5571e-19)
(-0.253882 0.305121 0)
(1.72628 -0.40192 -3.87881e-20)
(1.75414 0.10926 -1.5947e-21)
(2.05342 0.0354429 0)
(0.449315 -0.179352 4.24442e-19)
(-1.60342 0.994584 5.40346e-19)
(1.76749 -0.370924 0)
(1.13919 -0.437952 0)
(1.52108 -2.21599 -5.17505e-19)
(1.58529 -2.46486 -2.32719e-19)
(2.86339 0.437635 8.11494e-20)
(-0.411748 0.299587 0)
(1.92899 -0.000511636 -2.00368e-19)
(3.6324 -0.974724 -3.10295e-19)
(2.51636 -0.612445 -4.48353e-20)
(1.30034 -0.518943 4.03576e-19)
(-2.28588 1.7153 -8.03651e-19)
(-2.25783 1.95645 6.53239e-19)
(3.49314 1.05048 -5.6405e-21)
(2.45545 1.3829 0)
(1.62995 0.831139 -5.57478e-19)
(1.67605 -0.637131 1.2817e-19)
(1.80371 1.80498 4.88216e-20)
(0.882769 0.49049 0)
(1.22982 -0.272668 -4.4503e-19)
(1.30952 -0.564705 -4.82928e-19)
(-1.89311 1.75958 8.10176e-19)
(0.543799 -0.515698 -6.6617e-19)
(1.874 1.33535 0)
(-0.170487 0.481328 -3.24813e-19)
(2.21579 0.583996 0)
(-1.04971 -0.897648 -4.78975e-19)
(-0.12082 0.770505 7.67969e-19)
(0.122553 0.399462 0)
(-2.04948 1.86416 3.3159e-19)
(1.70522 -0.142742 -7.23202e-20)
(1.07598 -0.458066 2.626e-19)
(1.79782 -0.665239 1.80487e-19)
(-1.11124 1.0495 -1.70689e-18)
(1.28306 -0.592822 0)
(1.9938 0.0190622 1.22416e-19)
(0.586975 0.313169 0)
(2.22581 0.237997 -7.26124e-21)
(-0.627502 0.414836 -6.44564e-19)
(0.659775 -0.270617 2.56786e-19)
(2.11792 -0.60055 0)
(2.08861 -0.763465 1.38227e-20)
(3.12074 0.4444 1.08076e-19)
(-2.07163 2.00379 1.44905e-18)
(-1.74161 0.472721 0)
(-2.1037 1.97249 -1.29526e-18)
(2.71552 1.01729 -6.51198e-19)
(1.65344 0.156451 7.62335e-19)
(2.83415 -1.10837 0)
(2.88536 -0.254908 4.137e-19)
(-0.579361 0.43277 6.17161e-19)
(1.1394 -0.266923 -1.13e-19)
(2.39186 -0.397521 -1.09472e-19)
(-2.30403 1.38782 0)
(2.18174 -0.867277 -8.07738e-20)
(1.3225 0.125659 -3.00557e-21)
(2.06572 0.0658597 4.48445e-21)
(2.36142 0.0207779 0)
(-1.69213 2.23108 5.69894e-19)
(1.77648 -0.461234 3.13495e-21)
(1.34923 -0.421118 4.98789e-20)
(1.08904 0.60891 0)
(2.32371 -0.784377 1.45478e-19)
(-1.64209 1.57471 1.31217e-18)
(1.86358 -0.403918 -2.43718e-19)
(-0.257206 0.09363 0)
(1.05947 -0.463811 -1.61981e-19)
(2.34849 -0.73964 -9.62432e-20)
(-2.07747 1.48877 -9.92933e-19)
(1.55663 -0.38875 0)
(0.978986 -0.384391 9.16804e-19)
(2.02381 -2.3459 0)
(-1.28227 2.10364 7.05293e-19)
(1.82803 -1.9739 0)
(1.93813 -0.10748 -1.54487e-19)
(2.18328 -0.127544 -6.65426e-20)
(2.31839 1.24995 -3.65324e-19)
(1.3805 -1.9581 0)
(2.32542 -0.906654 2.62052e-19)
(2.00711 0.00911643 0)
(2.33506 0.455366 0)
(2.63881 -0.919939 -2.80798e-19)
(-1.50377 2.20732 5.40071e-19)
(0.666379 -0.115902 1.64204e-19)
(2.33303 -0.445869 4.28209e-20)
(1.70702 0.248374 2.59825e-19)
(-1.12748 1.48169 -5.30776e-19)
(2.05998 0.320671 1.99395e-19)
(0.372851 -0.294932 -9.64011e-20)
(0.636302 2.2532 0)
(2.44091 0.299905 0)
(0.328403 -0.182149 0)
(-2.63545 0.677966 2.55168e-18)
(1.26765 -0.456792 -2.94501e-19)
(1.54745 0.0659404 0)
(-2.11021 1.03552 1.89187e-18)
(2.28814 -0.0578675 -4.40273e-20)
(-2.23836 1.24883 -6.79579e-19)
(1.46214 -0.537537 -8.13709e-20)
(2.617 -0.856021 0)
(1.04806 -0.312654 8.15053e-19)
(0.468411 -0.126364 -9.65239e-19)
(0.211942 0.328528 0)
(-0.346976 0.447912 -4.46199e-19)
(1.6142 0.0298318 -1.84997e-20)
(2.71094 -0.266795 9.9618e-20)
(1.99245 0.0335341 1.96417e-19)
(2.51541 1.15266 -1.00388e-19)
(2.38444 0.228992 -1.08026e-20)
(-1.25277 -0.532882 0)
(2.1673 -0.760289 0)
(-1.76546 0.816152 1.93672e-18)
(-0.10322 -0.661153 0)
(1.71495 -0.363175 -3.98458e-20)
(2.49908 -0.702978 3.67691e-19)
(1.09396 -0.518849 3.5629e-19)
(2.5315 -0.289582 -1.51143e-19)
(1.76481 0.289836 -2.65278e-19)
(1.6314 -0.631777 -1.35055e-19)
(1.73541 -0.652187 -2.11452e-19)
(1.13552 -2.08496 0)
(1.8653 -0.671323 1.42422e-19)
(2.15969 -0.224609 0)
(2.10986 0.15925 -3.89512e-21)
(1.84563 1.19118 4.469e-20)
(0.581805 -0.414428 1.93605e-19)
(2.27047 -0.173189 4.27168e-20)
(0.0987896 -0.588339 -4.68396e-19)
(0.339043 -0.278981 0)
(0.351143 -0.696996 -6.74271e-19)
(-0.856725 2.62463 -9.86266e-19)
(2.05334 0.498395 -2.28779e-19)
(2.01561 -0.748946 2.94305e-20)
(2.13655 0.0176775 -6.84385e-21)
(0.686335 -0.511315 2.28129e-19)
(2.48559 -0.898138 4.74781e-19)
(0.453897 0.0532544 0)
(-2.37704 1.316 2.04194e-18)
(1.8719 -0.347617 1.32623e-19)
(2.14497 0.041262 3.6743e-23)
(1.28566 -0.571612 7.11775e-19)
(-1.09008 -0.265737 3.68423e-20)
(1.68701 0.535927 0)
(-2.74403 1.03676 -1.02e-18)
(-1.7804 2.19112 -8.4584e-20)
(1.18471 -0.379229 -5.88107e-19)
(-2.57 0.603721 1.21401e-18)
(1.94355 0.967053 -1.53382e-19)
(2.08153 0.459553 4.76402e-21)
(1.06242 -0.437511 2.70138e-19)
(1.90121 -0.33946 0)
(2.5255 0.20519 -1.57612e-20)
(2.6472 -0.0484472 -4.95396e-21)
(2.79927 1.01356 -1.66917e-19)
(-1.07348 -0.770121 0)
(3.25206 1.2532 4.35773e-21)
(-0.659758 -0.758686 4.59069e-19)
(1.74904 -0.732318 4.11765e-19)
(0.138657 0.0582943 1.09763e-20)
(-0.876267 -1.03989 -3.30224e-19)
(1.07735 -0.237059 1.57107e-18)
(2.2482 -0.7289 -1.66658e-19)
(2.31586 0.0113683 1.04295e-22)
(-0.519551 -0.0777165 -9.64328e-21)
(2.90852 0.0883653 3.25936e-20)
(0.349367 0.753933 0)
(1.99718 0.0225666 0)
(2.26655 0.529625 0)
(1.93015 -0.685819 -9.01211e-20)
(2.11713 -1.28545 1.58233e-18)
(-0.979459 0.0935208 0)
(1.31149 -0.418522 -1.20987e-19)
(-0.031921 0.768032 0)
(3.35051 0.616332 0)
(-1.12047 -0.135493 0)
(1.85753 0.00867341 0)
(0.997773 -0.366069 -2.84616e-19)
(0.468954 -0.231962 0)
(2.34537 1.09914 8.27662e-19)
(1.15843 0.0242864 0)
(1.38511 0.00900571 0)
(1.93444 0.162115 2.62472e-21)
(0.382317 -0.309676 0)
(3.29572 0.520203 0)
(-0.770792 0.237802 0)
(2.54687 -0.0107044 7.52382e-21)
(1.66278 -0.191294 0)
(2.80179 -0.823955 4.37103e-20)
(1.10893 -0.543343 1.94897e-21)
(0.555031 -0.142472 -2.73659e-19)
(1.98151 0.0203013 5.50226e-19)
(0.121383 -0.10778 -1.00823e-18)
(1.08577 0.720339 -5.66559e-19)
(1.46698 0.592146 0)
(2.24811 -0.0519593 -1.51832e-20)
(1.75616 -0.206507 -1.52031e-19)
(1.47869 1.4685 1.83183e-19)
(1.82722 0.318632 4.04322e-19)
(0.885113 -0.325921 -6.04742e-19)
(1.62519 -0.699648 -2.00138e-19)
(1.57567 1.69606 1.06798e-19)
(-0.574529 0.368474 0)
(2.93869 0.638508 -4.14784e-19)
(-0.286825 0.12128 7.94443e-19)
(2.63014 0.364643 -1.16627e-20)
(-0.623781 0.696214 0)
(1.90161 0.00768555 -2.21285e-19)
(2.24032 1.04945 -6.34872e-19)
(1.44857 -0.588386 3.3165e-19)
(1.33899 -0.612651 -4.20216e-19)
(1.8446 -0.82571 0)
(1.9484 -0.819638 0)
(2.49662 1.24428 1.27003e-18)
(2.30847 -0.127444 7.62394e-20)
(3.30515 0.641401 -3.17808e-19)
(1.78519 -0.0586847 4.27466e-20)
(1.29398 -0.386722 -1.15371e-19)
(1.8504 -0.499898 1.86356e-19)
(2.43367 0.311212 0)
(2.34556 0.309389 -4.45305e-20)
(0.961164 -0.102224 -1.21555e-18)
(1.76001 0.660623 3.02538e-18)
(3.06503 0.236297 -9.19881e-19)
(-0.718351 0.422632 3.922e-19)
(3.09536 0.652873 2.65373e-19)
(2.41757 0.775446 -3.91779e-20)
(2.2727 0.612415 0)
(-2.65768 1.41746 0)
(2.72832 -0.781141 2.97174e-20)
(1.2484 -0.299817 0)
(1.97064 -0.34537 6.32982e-20)
(1.6588 0.203811 4.45366e-19)
(1.67317 0.412016 -1.42659e-19)
(1.70129 -0.664928 4.62962e-19)
(1.25663 0.0465243 2.14079e-21)
(1.35211 -0.0696633 0)
(2.01503 -0.0882837 -8.24793e-21)
(-0.859018 0.255172 -6.20027e-19)
(2.11748 0.264001 0)
(1.9746 0.162556 0)
(2.13552 -0.791518 -3.38905e-20)
(1.91018 0.496946 2.51052e-19)
(1.16994 -0.214034 0)
(4.39819 0.127462 1.78415e-19)
(2.86312 0.0423628 1.09111e-19)
(2.2942 0.3421 8.57309e-20)
(1.76698 0.387053 4.14446e-19)
(-2.87668 1.02468 -1.13106e-18)
(1.19279 -1.61344 0)
(-0.212604 -0.550217 -1.09389e-18)
(0.625072 -0.277941 9.20488e-19)
(1.99126 0.0154324 1.22297e-20)
(-0.455429 -0.668735 -4.91762e-19)
(1.98227 -0.770253 3.7816e-21)
(2.57871 0.406593 1.23213e-20)
(0.573766 2.10681 0)
(1.98407 0.110407 2.62339e-21)
(1.87362 -0.00447047 6.72023e-20)
(1.98892 -0.00912086 -5.24317e-20)
(2.13322 0.489705 -2.21262e-19)
(2.62692 -0.714545 0)
(-2.78074 0.950759 0)
(2.56962 0.0229737 0)
(2.2358 0.433459 -1.51012e-19)
(1.16531 -0.55109 5.46985e-19)
(2.12328 1.64148 -8.69768e-21)
(1.5506 -0.139265 0)
(0.311302 -0.0622094 -2.28474e-19)
(-2.68103 0.872928 1.10903e-18)
(-0.529959 1.27126 0)
(1.9008 0.222636 -1.26716e-19)
(1.6704 0.189216 -1.46033e-19)
(3.33474 0.209681 -8.51223e-20)
(2.0141 -0.2027 1.09964e-19)
(0.784093 -0.288004 0)
(2.13902 0.182887 -2.43925e-19)
(2.14183 -0.34654 0)
(2.13582 -0.17734 1.28978e-20)
(1.07752 0.0208067 0)
(2.11908 0.804187 2.09192e-19)
(1.82822 -0.69137 -1.48435e-19)
(2.28306 0.827769 0)
(1.88181 -0.0957483 -2.94503e-19)
(2.22941 -0.600328 -1.09637e-19)
(2.14397 -1.05839 0)
(1.24535 -0.587158 0)
(0.616664 0.110122 -8.31664e-20)
(2.21965 -0.154252 -6.8043e-21)
(-0.625613 -0.426936 -9.53922e-19)
(0.702354 1.64445 2.08318e-19)
(2.87281 -0.0258955 -7.89035e-21)
(0.8128 0.652644 5.13345e-19)
(1.76746 0.332798 -1.7521e-21)
(2.01054 0.503965 0)
(3.08631 1.07231 2.73041e-19)
(1.90981 -0.83854 0)
(1.6219 -0.727655 -2.06296e-19)
(2.00473 -0.81907 -4.8335e-21)
(2.00606 -0.325941 -1.73873e-19)