/*--------------------------------*- C++ -*----------------------------------*\
| =========                 |                                                 |
| \\      /  F ield         | OpenFOAM: The Open Source CFD Toolbox           |
|  \\    /   O peration     | Version:  2306                                  |
|   \\  /    A nd           | Website:  www.openfoam.com                      |
|    \\/     M anipulation  |                                                 |
\*---------------------------------------------------------------------------*/
FoamFile
{
    version     2.0;
    format      ascii;
    arch        "LSB;label=32;scalar=64";
    class       volVectorField;
    location    "3.4";
    object      U;
}
// * * * * * * * * * * * * * * * * * * * * * * * * * * * * * * * * * * * * * //

dimensions      [0 1 -1 0 0 0 0];

internalField   nonuniform List<vector> 
13486
(
(6.85509 -1.70857 1.26158e-20)
(7.12767 -0.0314944 7.00484e-21)
(9.52986 -0.251517 0)
(9.9992 -5.48739 -3.15127e-20)
(11.1017 -1.68586 -4.95099e-21)
(8.85261 0.393064 -1.09942e-21)
(12.5928 -0.0345895 3.63586e-22)
(9.38589 -3.24387 -1.2737e-21)
(8.87649 -1.82011 0)
(7.53814 1.33947 0)
(-1.36066 1.98325 -4.75752e-21)
(8.75436 0.495785 0)
(6.39049 -2.38342 -1.23398e-20)
(8.58942 1.68638 -2.09715e-21)
(11.3486 -0.0619064 -3.86627e-21)
(7.43697 1.37712 -6.64207e-21)
(-0.5175 -1.62611 4.27592e-21)
(9.07421 7.72465 -6.52038e-20)
(8.14884 0.197198 7.52496e-23)
(7.30902 -1.06155 -1.29993e-20)
(11.337 -7.14351 -2.1348e-20)
(6.44694 -2.42503 1.58975e-20)
(7.18184 -0.0499682 -5.61134e-21)
(12.8036 1.90775 0)
(7.83684 1.07329 2.24211e-21)
(13.0168 2.26266 -8.8319e-21)
(4.5101 -0.648198 6.39858e-21)
(10.8682 0.164421 9.92335e-22)
(4.57603 -0.49651 0)
(11.0728 0.151654 2.68226e-21)
(12.204 -5.24914 -3.02398e-20)
(10.4914 1.59324 3.34317e-21)
(11.0798 1.44813 4.69589e-21)
(11.2139 0.126193 0)
(9.4176 -3.10232 0)
(6.28223 0.0823314 -6.83464e-22)
(7.59887 -1.09599 4.49093e-21)
(7.50428 -3.46802 4.84146e-21)
(10.5048 -4.19969 -7.38019e-22)
(8.80166 -1.16762 4.78911e-21)
(12.469 -3.56063 0)
(5.80463 -2.78371 -1.48675e-20)
(9.90314 0.187001 0)
(7.8701 0.907923 -1.04025e-20)
(7.89878 0.912752 4.23999e-21)
(8.59761 0.505707 3.82558e-21)
(0.0230993 -4.93785 2.91765e-20)
(5.29124 -0.478725 -7.0648e-22)
(7.57408 -1.02789 -3.4314e-21)
(9.95007 0.328666 6.59108e-22)
(7.98646 0.0314973 8.69342e-21)
(10.8889 -1.91441 0)
(7.98768 1.47833 -6.11085e-21)
(7.71828 -2.89113 -7.3364e-21)
(8.62484 9.26815 0)
(10.8892 -1.80857 2.27164e-21)
(6.94629 -1.09367 -1.79843e-21)
(11.1601 -2.53137 7.32571e-23)
(10.843 1.59598 6.27912e-21)
(7.30334 -1.45022 0)
(-1.46143 1.09343 -4.47334e-21)
(7.1479 -1.30345 0)
(9.77612 0.215653 -4.20019e-21)
(12.3039 -6.7558 -2.62101e-22)
(-10.3078 -8.24349 0)
(7.54154 -1.19548 2.20141e-21)
(8.45395 -5.10609 -2.40497e-20)
(6.65049 -0.898755 4.59276e-21)
(8.87217 -1.92222 -2.30123e-21)
(6.50403 0.156436 -1.33067e-21)
(9.2839 -5.06752 2.77707e-20)
(7.63125 7.71525 -3.7502e-21)
(8.56201 -0.773027 4.06872e-21)
(-1.16158 5.20803 -1.03329e-20)
(7.41987 -1.19311 4.6325e-22)
(6.25086 -0.943325 3.87357e-22)
(7.28212 -1.12985 -1.5023e-21)
(11.4291 -0.136589 1.58611e-21)
(-0.684959 -6.42805 -8.27077e-21)
(9.56144 9.57042 0)
(6.60605 0.052563 3.31687e-22)
(6.93037 0.150368 -4.63598e-22)
(10.165 -0.205839 -8.90848e-22)
(9.42308 -0.389197 -1.3637e-21)
(6.84903 -1.72371 -2.45363e-20)
(5.79905 3.23425 0)
(-0.707955 -4.96996 -1.04293e-20)
(7.93861 0.073851 -1.36767e-20)
(7.67036 0.0379975 -5.83111e-21)
(6.89379 1.9239 -8.98463e-21)
(9.56583 2.55493 1.46344e-21)
(9.98578 -2.60024 2.05095e-22)
(7.11212 -2.01398 3.07407e-21)
(7.27303 -0.627064 3.55838e-22)
(8.62209 -2.67101 9.01269e-22)
(5.89842 -0.0208336 2.1706e-22)
(5.42591 -0.894296 0)
(7.41829 -5.74694 9.4141e-21)
(8.80602 -1.12257 -9.20258e-21)
(-0.945373 -2.57205 4.125e-22)
(6.80758 0.0528235 0)
(8.54549 1.68385 -8.62769e-22)
(7.18915 -6.46542 1.79154e-22)
(10.886 -2.2922 -1.73474e-22)
(5.48001 2.89753 0)
(-1.30495 -2.49121 5.69288e-22)
(7.9807 -0.106294 -4.34773e-25)
(10.8924 -4.98552 -2.83504e-21)
(-1.79588 -5.13369 1.48037e-20)
(9.67691 -4.3271 0)
(7.97205 -3.70899 0)
(11.7605 1.53425 1.01034e-20)
(7.76151 -2.82899 1.2917e-22)
(8.96265 -0.550832 1.49724e-22)
(5.65886 -1.38012 0)
(7.88927 -3.69504 -2.49759e-21)
(7.75749 1.15679 0)
(11.4989 0.157647 0)
(8.53276 -0.744632 0)
(7.53313 -0.776045 2.37228e-21)
(8.31874 8.72582 2.73543e-20)
(-1.08946 1.34497 0)
(8.45842 -2.47077 0)
(10.7491 -4.19183 2.60567e-21)
(8.8438 -3.06834 0)
(11.0802 -1.86561 0)
(9.78658 -0.760134 5.42082e-23)
(8.31786 0.179553 4.90044e-21)
(11.4893 -0.0522064 9.98896e-22)
(-7.84993 -3.02094 -1.44208e-20)
(10.5512 -1.58703 1.1233e-22)
(0.0231173 -5.48939 -7.14798e-21)
(4.87755 4.14996 1.96779e-20)
(-0.635217 0.720234 1.1553e-20)
(7.99695 0.0140299 -1.38979e-21)
(7.52893 0.621881 -7.58624e-21)
(4.02927 0.608401 -4.69658e-21)
(9.32318 -4.04916 0)
(7.47967 -0.684872 -7.37242e-22)
(9.44436 -2.55374 -7.89335e-22)
(10.332 0.997107 -4.45448e-21)
(8.28657 1.79675 5.30752e-21)
(9.45348 1.44378 0)
(10.652 9.70082 0)
(10.6454 0.0531245 6.7725e-22)
(8.35195 1.70332 -5.04302e-21)
(5.52312 -1.09024 -2.90129e-21)
(1.99389 1.58183 0)
(10.1386 0.494818 0)
(4.541 -0.418189 0)
(7.96914 0.0280215 1.63823e-22)
(11.667 -0.675605 0)
(6.69274 0.0714063 -3.47135e-22)
(6.82868 0.129435 -3.97019e-21)
(8.24798 0.64588 0)
(9.83368 -0.305865 0)
(9.55052 -4.11898 0)
(2.45232 0.1139 1.58998e-20)
(8.17395 -3.21498 8.56268e-21)
(6.53662 -1.75477 3.29221e-21)
(9.05327 0.190219 -2.78781e-22)
(8.20857 -3.15116 -1.27041e-20)
(10.6195 3.97612 -4.73787e-21)
(5.16835 -2.6207 6.40318e-21)
(11.3429 -2.12185 0)
(8.8665 1.76153 1.46135e-21)
(8.4177 1.49787 6.07324e-21)
(3.64408 -1.59581 -1.83426e-20)
(5.27666 -1.13242 7.39947e-21)
(-0.562076 0.746838 3.17797e-21)
(5.08619 3.44299 2.89658e-21)
(8.23124 0.565205 3.87981e-21)
(8.03996 0.125052 -1.21305e-20)
(10.0626 0.000987909 2.87945e-23)
(6.55239 0.0534973 2.84937e-22)
(-1.66674 -7.30427 0)
(8.41752 2.5241 -4.33445e-21)
(10.1671 1.26994 6.01478e-21)
(8.00343 -0.125933 -1.2876e-20)
(9.31325 1.3411 0)
(9.07828 -1.29431 8.3213e-21)
(9.05185 -0.503097 3.35794e-22)
(10.007 0.473196 -3.01702e-23)
(1.86687 -1.69622 0)
(8.39566 -0.759924 3.61514e-21)
(10.2908 0.11829 -4.24112e-22)
(10.3631 -0.628256 8.26317e-22)
(11.1707 0.22859 7.75849e-22)
(12.4271 -3.43551 0)
(7.22102 -3.46057 -4.33173e-21)
(7.50494 -0.910563 0)
(10.1199 -0.115372 0)
(11.9452 -3.0624 0)
(5.93051 1.28835 -9.39402e-21)
(12.7026 -2.83486 0)
(-1.22757 2.11924 -1.35881e-21)
(-8.79851 -6.3804 2.95435e-20)
(9.03911 0.144784 -9.44511e-23)
(6.71198 -3.26489 -2.48047e-21)
(8.8144 1.60525 1.51407e-21)
(11.2249 -6.27915 4.11454e-20)
(8.3159 0.225166 -1.53561e-22)
(7.42333 -3.52132 -5.61031e-21)
(11.3762 -4.42914 -3.46958e-21)
(6.39426 -1.63793 -4.0312e-21)
(12.7585 -2.50516 -1.57056e-21)
(11.439 7.5031 -3.89746e-20)
(8.15353 -0.646196 9.29325e-21)
(11.8445 -3.09037 0)
(8.69957 -0.758073 0)
(10.9705 0.132944 -1.04855e-21)
(9.5675 -4.78662 2.21906e-20)
(7.37166 -0.963211 1.19365e-20)
(7.91955 -0.0676226 -6.77917e-24)
(8.87104 0.472887 1.26788e-21)
(7.73077 4.35068 -3.31446e-21)
(11.1784 0.161956 0)
(7.002 1.86459 2.07203e-20)
(7.43856 -2.01769 0)
(10.3022 1.84353 0)
(-1.05408 -1.41756 -7.99608e-21)
(9.79551 0.546641 0)
(9.35782 -2.55272 1.70183e-21)
(10.2504 0.227012 0)
(7.1416 1.70068 -1.49816e-21)
(6.55193 -3.08274 4.23655e-21)
(9.11175 0.898397 8.34832e-23)
(3.78259 -9.96956 1.50243e-20)
(13.545 4.09432 -6.14798e-21)
(-0.254807 -5.15762 -3.93067e-21)
(9.06632 -1.24785 -2.70441e-21)
(11.9873 -0.640588 3.6552e-20)
(10.3871 1.15517 5.52955e-21)
(5.73113 -2.75192 5.15147e-21)
(8.96592 -8.26034 0)
(6.1634 -2.98834 4.80241e-22)
(11.3637 0.303082 -2.38282e-21)
(10.0135 -0.112687 -9.66851e-22)
(6.29307 -2.99798 1.33655e-20)
(9.59818 0.377012 0)
(10.7126 1.95548 0)
(7.98184 0.108977 1.87084e-20)
(10.5802 -0.171922 0)
(6.00047 -2.95732 4.20961e-21)
(9.20933 -5.17601 -2.51974e-21)
(7.69636 -0.495651 0)
(9.413 0.194643 -7.07782e-22)
(13.6721 0.18271 1.22666e-20)
(-2.85329 2.66063 2.23078e-20)
(7.80836 0.824877 0)
(3.22945 -4.46894 -1.3226e-21)
(5.56909 -1.2973 2.04506e-21)
(7.41968 -3.60781 2.6812e-21)
(11.1794 -4.88199 0)
(15.9297 4.74027 8.23063e-21)
(-1.61235 -6.23823 1.57336e-21)
(10.6444 1.56405 -2.62096e-21)
(5.84011 3.77345 4.18822e-21)
(5.67085 -3.10055 -1.66499e-20)
(11.1024 1.3976 5.30049e-21)
(7.45346 -0.0538312 0)
(8.76367 -5.07905 3.8014e-22)
(11.3124 -0.031301 8.51063e-21)
(-1.43064 -5.95755 -1.96457e-21)
(10.808 -3.0923 4.38454e-21)
(1.84446 -1.9093 0)
(14.1827 3.40859 1.00707e-21)
(11.6539 -6.83201 -3.67722e-20)
(8.71527 -0.1145 -5.09481e-21)
(4.83518 7.83956 0)
(6.61404 1.51589 7.53836e-21)
(7.97201 -0.046326 -3.61177e-21)
(11.1972 0.20297 0)
(8.19265 0.757708 3.89941e-21)
(6.77563 -3.20586 5.63779e-21)
(12.2749 -0.168955 -6.98774e-21)
(15.2858 3.53391 0)
(-1.83345 10.6296 0)
(11.871 -5.46035 -5.34057e-21)
(5.63675 -0.915624 5.97859e-21)
(-1.01352 9.72327 4.80104e-20)
(9.32166 -0.690648 -2.88416e-21)
(7.9472 -0.135695 7.77776e-21)
(8.02923 3.87146 -1.13141e-20)
(-0.366776 0.858172 4.20897e-21)
(2.27433 -2.92583 1.13998e-20)
(10.0902 1.05485 4.20798e-21)
(11.1735 0.143738 -1.3135e-21)
(7.93996 1.73053 2.94901e-21)
(8.49459 -0.118444 0)
(9.85482 -7.80109 0)
(6.96436 -2.66149 -1.43675e-21)
(7.77706 -3.62596 3.25763e-21)
(8.00081 0.0183406 -1.35401e-21)
(11.1075 0.247417 -2.68324e-21)
(11.2654 0.257431 0)
(9.81934 -0.00995964 3.67697e-22)
(8.09576 0.573174 -3.82325e-21)
(7.95428 -0.212812 -7.03405e-21)
(12.8439 -1.42829 -1.16583e-20)
(10.7263 4.28566 5.81091e-21)
(11.5282 8.64886 2.09523e-21)
(5.72159 -1.0444 -5.09477e-21)
(10.7515 1.35609 -2.91201e-21)
(7.70096 -0.776972 -8.30561e-22)
(9.36612 -4.58314 0)
(8.12642 -0.788694 0)
(8.64622 0.129257 1.32126e-21)
(-0.956286 -6.86294 1.25224e-20)
(7.54276 -0.97758 0)
(7.42011 4.90721 -1.37234e-20)
(9.04018 -4.88571 0)
(8.13351 2.40442 3.1038e-21)
(11.7898 1.5213 9.47333e-21)
(1.61142 2.03621 0)
(7.57301 0.491228 -4.77445e-21)
(7.34263 -2.56283 2.14212e-21)
(7.63926 0.012465 -4.97886e-22)
(8.13048 -0.637932 -1.04338e-20)
(12.7251 3.65788 0)
(7.55741 -1.12095 -3.97447e-21)
(7.57057 -2.92227 -2.00524e-23)
(8.03507 -0.0350112 1.6306e-21)
(7.21403 -0.508692 -6.8188e-21)
(4.40562 0.235991 8.53685e-21)
(10.1245 2.30117 -2.25055e-21)
(10.3093 -1.07196 1.05728e-21)
(9.36656 -0.668172 0)
(7.87798 -0.106836 -1.15153e-22)
(10.4795 -0.993791 1.08281e-21)
(7.99771 0.0184598 1.97663e-20)
(10.1535 -2.59258 0)
(9.62586 3.07443 1.09488e-21)
(6.48537 0.0452723 0)
(12.5884 -0.0814363 2.45056e-20)
(8.90968 -2.45147 -2.06142e-21)
(4.61479 -2.21121 6.61978e-21)
(11.6829 -0.881847 6.64028e-21)
(7.97415 0.30321 0)
(8.57352 -4.89193 -2.67911e-21)
(12.5399 3.5065 -3.87574e-21)
(7.21434 -0.494221 6.44812e-21)
(10.6377 -1.00004 -2.80912e-21)
(10.0349 0.537195 5.68583e-22)
(2.10238 -2.02648 -2.16535e-21)
(5.29457 -0.292736 -2.29429e-23)
(9.75445 -0.334897 0)
(5.59882 -2.21963 1.52939e-20)
(10.459 1.73867 0)
(7.4574 -2.91275 4.79916e-23)
(9.45974 -0.0975134 4.39083e-21)
(7.85317 0.28915 -5.06239e-21)
(8.12517 0.803647 3.56948e-21)
(4.15519 -0.535244 -7.91193e-21)
(7.9604 -0.182905 8.75577e-21)
(7.04165 -0.00718677 0)
(-1.67544 3.67932 -7.88782e-21)
(9.78162 -0.704133 -1.06618e-21)
(-0.497456 -7.39467 -1.14486e-20)
(10.9432 -3.78121 1.4785e-20)
(9.49927 0.164696 0)
(9.50339 2.74381 -3.15855e-22)
(7.56266 -0.246793 1.41733e-20)
(7.96702 -0.0598334 1.09762e-20)
(11.2936 0.0399832 0)
(6.7327 0.0608842 -6.57116e-23)
(11.0329 0.235806 2.23792e-21)
(2.50166 -4.48562 6.02124e-21)
(7.25216 -1.04658 1.66264e-21)
(9.74277 -0.595409 1.01693e-21)
(10.7529 0.17259 -3.70046e-22)
(9.71504 -0.341968 0)
(6.77123 1.48215 -7.05235e-21)
(2.53091 -3.72808 7.96766e-22)
(8.72646 0.932493 -2.74803e-21)
(7.9984 0.0264689 7.26039e-21)
(6.53762 0.0144021 0)
(7.7916 -3.55556 8.66423e-22)
(2.35969 2.02166 0)
(10.874 3.23674 -3.52758e-21)
(8.785 -0.144794 0)
(10.1755 -3.06305 -2.87423e-22)
(6.4864 -1.43197 -3.63595e-21)
(6.82047 1.27837 1.71356e-20)
(1.59282 -4.19527 -2.2349e-20)
(16.2034 3.12379 0)
(8.66838 0.126513 -4.61041e-21)
(7.97927 0.316323 -5.24074e-21)
(-4.44379 1.39335 -7.61418e-21)
(14.9296 -5.15998 4.48073e-21)
(7.46333 -1.01061 -1.7812e-20)
(11.1247 0.224666 6.50533e-22)
(8.06305 0.341115 4.08949e-21)
(7.06564 -2.43568 0)
(6.30504 -0.23968 7.9555e-21)
(7.37963 -0.675034 2.25215e-21)
(8.91223 -5.16483 1.77364e-20)
(2.79799 -3.93199 -3.24256e-21)
(-3.642 0.607102 -1.02509e-20)
(10.2166 1.07528 0)
(-4.30976 1.21985 0)
(7.38103 2.47432 0)
(9.06718 -0.36313 0)
(8.97576 -2.4388 -1.79018e-20)
(12.2959 0.14354 0)
(1.69541 1.12916 0)
(7.3333 -0.546982 2.6197e-21)
(10.249 1.23907 -6.18013e-21)
(9.6162 -0.395262 -3.11572e-21)
(7.15676 0.0957554 2.46668e-20)
(8.01519 0.0684423 -2.61574e-21)
(7.65215 4.05702 0)
(11.0125 0.378867 0)
(7.95648 -0.211983 7.52331e-21)
(7.98799 0.0351529 1.30536e-21)
(4.75936 1.01333 0)
(2.15947 -1.80856 1.8626e-21)
(10.6196 -3.16448 -4.91832e-21)
(4.55965 3.45157 0)
(9.65047 0.419788 2.09735e-21)
(8.06713 -0.0734228 -8.64742e-21)
(11.4935 1.98913 1.86182e-20)
(5.58997 -2.19023 0)
(7.93169 0.323856 9.48951e-21)
(9.26648 0.611448 0)
(11.0219 0.187939 0)
(8.38313 0.402911 -7.20046e-22)
(7.92142 -0.125369 4.1272e-21)
(5.59415 -1.1482 -8.40167e-21)
(8.38722 1.44077 2.05161e-21)
(6.59344 -2.12067 -6.0408e-21)
(8.95642 -0.32523 6.54551e-22)
(8.15413 0.390173 3.26103e-21)
(7.66425 1.38068 1.90718e-20)
(11.1357 -2.93282 0)
(12.4202 0.854048 6.01005e-21)
(6.47629 -1.2421 0)
(7.10515 -3.007 -1.15736e-21)
(10.0489 -0.0680112 0)
(6.7341 -0.862187 9.84153e-21)
(-3.83422 -2.40924 -2.85277e-20)
(11.1343 0.205509 0)
(-1.36949 0.159967 4.80579e-22)
(11.1544 0.409339 -2.62308e-21)
(3.357 -4.12584 -2.30343e-21)
(8.13605 -1.54219 1.42971e-20)
(6.2172 1.14821 -1.07953e-20)
(6.56127 -2.10119 -1.75272e-20)
(11.3006 2.97005 0)
(7.55974 -0.8001 -2.23401e-21)
(1.89002 -1.76368 -4.88913e-21)
(7.94824 0.319781 0)
(7.60908 0.0296979 5.4548e-22)
(9.36318 0.214106 -1.52156e-22)
(9.08467 2.72461 0)
(7.98682 -0.0102466 0)
(4.77251 -2.99933 0)
(-1.45224 -7.47746 1.01245e-20)
(7.52599 4.30899 1.33993e-20)
(8.3648 2.2115 -3.38201e-22)
(8.13907 2.26148 0)
(7.80239 -1.32259 1.06798e-20)
(6.58781 0.0114986 -6.32725e-22)
(8.39913 1.31933 -4.7253e-21)
(10.3158 -5.61506 3.67757e-20)
(7.76897 0.0341195 0)
(5.10322 -0.628043 0)
(4.75728 -1.59542 -1.0954e-20)
(6.96667 -2.4253 -4.07654e-21)
(8.70811 -0.95736 0)
(8.77713 -4.05695 -4.34658e-24)
(7.07118 0.0462181 5.0157e-22)
(5.87839 0.131817 -3.7325e-22)
(4.97787 -2.34313 0)
(11.4743 -0.932746 -1.85841e-21)
(7.46655 -0.661781 -2.12893e-21)
(9.24725 0.591799 -9.83226e-22)
(8.85482 -2.56408 0)
(1.74096 -3.26016 -1.74022e-20)
(8.03739 0.448306 4.1754e-21)
(7.98254 0.178364 1.87764e-21)
(7.05579 -0.0397013 -1.19936e-21)
(9.03426 1.73445 0)
(7.14221 0.0804046 -6.55662e-21)
(9.82284 1.30867 -2.09581e-21)
(-2.98345 -0.331278 1.26185e-21)
(7.969 0.0678012 0)
(13.5 -4.92745 -4.59735e-21)
(3.75503 -1.41725 0)
(7.99016 0.100546 -7.51523e-21)
(7.94107 0.0463653 2.91128e-21)
(7.97468 -0.401616 -1.46207e-21)
(-0.92419 -7.0803 0)
(9.20353 -0.236098 -2.20385e-21)
(5.52375 0.00793248 2.22705e-20)
(11.1023 -2.99653 0)
(7.27936 -0.613202 7.99512e-21)
(12.6082 -1.51492 1.3427e-20)
(8.54302 0.00751888 0)
(10.8852 -7.73974 1.71887e-20)
(12.5277 8.01315 -5.45019e-20)
(10.7886 0.143945 0)
(-1.48933 -3.29583 9.84458e-21)
(7.60417 -0.0129695 0)
(8.37805 -3.76971 2.52853e-21)
(2.93573 -4.69658 2.03609e-21)
(9.8911 -1.84389 -8.37232e-22)
(8.93037 0.384041 1.91224e-21)
(6.32626 -0.288407 4.1406e-21)
(8.14629 -1.63982 -5.17248e-21)
(15.4764 1.92432 -2.15899e-21)
(8.48478 -3.70597 1.20437e-22)
(9.69933 -0.646673 1.15751e-21)
(9.00453 1.68457 -2.49591e-21)
(10.3625 -4.47943 0)
(7.99903 0.0111128 -6.4396e-21)
(4.82946 4.43465 -1.08619e-20)
(6.5626 -1.26135 0)
(7.24658 -0.901097 8.06891e-22)
(6.55449 0.124353 0)
(6.20991 -2.19226 1.55095e-20)
(9.95856 -3.41517 0)
(6.68644 0.0409158 1.17824e-21)
(9.618 -0.110765 -2.5464e-21)
(8.60633 -8.22985 3.6653e-20)
(5.38768 -3.53948 4.81403e-21)
(9.48807 0.221556 -3.33666e-23)
(9.40688 -4.40764 -3.35981e-21)
(8.40912 -2.47951 4.20285e-21)
(7.10218 -2.00861 0)
(0.372658 -0.264171 -3.34729e-21)
(11.2978 -2.75029 8.77655e-22)
(0.706731 -0.557046 -3.97919e-21)
(5.57076 -0.160558 2.02502e-22)
(7.06215 -2.83126 0)
(8.71912 0.000296716 -5.37086e-23)
(2.23897 -1.98991 0)
(7.11852 -6.52773 -1.15831e-22)
(12.6265 2.24638 -2.37773e-20)
(2.82695 0.683311 0)
(9.72641 -2.25071 3.94708e-22)
(-8.59343 -6.5328 0)
(9.11022 2.60708 0)
(8.14 -3.82559 -3.34301e-21)
(6.53135 -0.0862238 6.50198e-21)
(1.47613 13.3261 0)
(7.55421 -0.172326 -3.9627e-21)
(8.42215 1.44744 4.72415e-21)
(1.93092 -3.35275 3.10241e-21)
(9.0947 3.60922 0)
(8.40424 -0.0272135 0)
(2.07061 -1.64263 -2.20339e-21)
(8.27533 -0.857624 0)
(8.94839 -0.403772 0)
(-1.66499 0.966027 -4.04405e-22)
(9.49134 -1.57816 -3.59145e-21)
(8.20551 -2.13674 3.96529e-21)
(11.4169 1.57695 8.48938e-22)
(0.305022 -0.32938 6.42517e-21)
(7.98914 0.0379621 3.30471e-21)
(7.2616 -2.0653 0)
(8.14969 0.956801 -1.92338e-21)
(6.80475 -1.63252 0)
(8.49421 -0.192209 0)
(7.97272 0.198061 0)
(8.34743 0.379543 -5.8714e-22)
(8.0889 -0.660719 4.80489e-21)
(10.8601 -0.118151 -1.00894e-21)
(7.42532 -2.07844 0)
(4.09925 -0.416012 -6.17194e-21)
(7.35339 2.32612 4.87916e-21)
(8.85788 -3.09978 2.36588e-22)
(11.4894 0.10204 2.50885e-21)
(13.0865 -0.111305 5.98211e-21)
(8.16708 0.0500785 -4.92549e-21)
(-4.57008 -2.05286 0)
(8.24103 0.550499 0)
(5.73785 1.19316 0)
(6.33326 -2.89452 -1.08164e-20)
(-1.95833 -5.56132 -7.50739e-20)
(7.87532 0.0289138 0)
(8.19022 0.963714 0)
(7.74084 2.15666 4.43095e-21)
(8.31699 -0.072235 -1.05702e-21)
(7.43964 1.08247 8.90542e-21)
(11.8302 -4.50367 0)
(4.90125 -0.390159 -2.39423e-21)
(8.76612 0.147708 2.5125e-21)
(6.83015 -2.32786 -9.85215e-21)
(8.40376 0.177247 -3.77385e-21)
(8.33572 1.31595 6.2492e-21)
(-0.0345689 -3.53217 2.25997e-20)
(6.24764 -2.85264 1.8759e-20)
(-0.442607 0.880226 -1.19172e-20)
(9.85071 -0.339821 3.43978e-22)
(7.98203 0.000249393 -1.54698e-21)
(8.11754 -3.89896 4.6531e-22)
(13.3572 6.37201 2.81203e-20)
(5.74451 4.31729 -6.26118e-21)
(8.53098 -3.97452 4.3393e-22)
(7.87196 -0.287402 0)
(1.35136 -2.92794 1.78549e-22)
(8.48469 -0.0240605 -8.1819e-21)
(9.61226 1.89797 6.77459e-22)
(6.70622 -2.21528 -9.18213e-21)
(8.76753 -2.98992 -3.10569e-21)
(8.80656 0.0355882 7.90676e-21)
(11.3152 -0.128154 -4.54387e-21)
(4.49531 3.43838 -4.8627e-21)
(10.1016 1.07173 -2.12997e-21)
(5.92379 -1.62877 -2.20392e-20)
(8.56593 -0.034858 -7.08164e-21)
(5.90466 -1.82818 0)
(4.11402 -9.60334 -6.08457e-20)
(9.0531 -0.00668575 1.13856e-20)
(5.90902 0.0584979 -2.69553e-22)
(-1.22351 4.21739 0)
(9.27245 -4.11787 0)
(7.85284 0.760249 7.80692e-21)
(5.55506 -1.63302 1.39122e-20)
(-8.75933 -8.46574 -2.99127e-20)
(10.2699 -3.01662 1.1428e-21)
(10.4136 -1.06279 -7.11131e-22)
(10.3996 1.69329 0)
(7.83303 0.831234 4.47242e-21)
(10.3339 7.58538 -1.92943e-21)
(8.62053 2.43717 -3.53403e-21)
(8.98311 -1.22455 -5.18885e-21)
(0.961349 -1.22674 -9.74477e-21)
(11.9099 -0.0367133 -5.47636e-21)
(14.1755 1.15486 4.9732e-21)
(7.84931 2.75159 0)
(11.185 1.54001 2.83544e-21)
(7.95356 -0.392049 1.30374e-21)
(6.63911 0.0509583 3.56599e-22)
(5.18836 -2.59276 1.81286e-20)
(8.86297 -1.26795 7.86855e-21)
(6.44208 -1.73896 -1.68248e-21)
(2.32885 -3.40402 -1.68698e-21)
(10.6437 0.091599 3.81696e-22)
(8.53122 0.0653124 6.35074e-21)
(-0.118769 1.29029 -5.51258e-22)
(8.39038 2.32473 8.23134e-21)
(-1.26354 -3.08372 -1.06968e-20)
(6.41046 -3.07874 -5.19869e-21)
(6.65424 0.111077 0)
(7.17125 -0.887154 -1.5627e-21)
(-1.12302 -2.09284 -1.9066e-21)
(6.45766 -1.50898 1.93525e-20)
(10.6177 -0.460255 0)
(9.73964 4.52776 -4.75742e-21)
(6.09083 -2.60877 4.39652e-21)
(7.95263 0.0372929 -1.41724e-20)
(2.64325 -2.34156 -1.7243e-21)
(0.780991 12.8871 -1.17541e-20)
(9.66124 -0.388257 2.09549e-21)
(8.50504 0.165633 6.93464e-21)
(8.47625 -3.81508 -2.85201e-21)
(10.8451 -0.223002 1.28808e-21)
(-4.99074 -6.99651 -1.19534e-19)
(8.44251 -0.0333208 7.67574e-21)
(8.88516 -0.303722 -2.88709e-21)
(8.26431 0.230723 -8.55697e-23)
(10.2666 0.0187688 -5.6262e-21)
(5.98533 -2.6749 -8.49406e-21)
(9.85719 -0.311419 0)
(0.192335 -10.0768 1.46811e-20)
(8.52928 0.0508072 9.5074e-22)
(13.3341 2.09588 2.23571e-20)
(9.42165 0.106423 1.93376e-21)
(10.1624 -1.31683 -3.73432e-22)
(8.00203 0.0572894 -1.19844e-20)
(8.10164 0.602339 2.49517e-21)
(2.59762 -1.82836 -1.91447e-21)
(9.10995 -0.405359 0)
(7.77507 -3.69399 -4.69603e-22)
(7.65543 0.13002 5.18866e-21)
(7.09427 -2.78003 0)
(8.23376 0.16747 5.16705e-21)
(7.69311 -0.243192 6.94141e-21)
(9.18968 -0.373385 6.44196e-25)
(12.869 -3.94361 1.01463e-20)
(12.8163 -1.91836 0)
(7.30587 0.338336 1.25314e-20)
(6.62362 -1.40701 2.10027e-21)
(8.30289 -3.84396 2.28962e-21)
(8.93765 -0.848539 0)
(6.54932 -0.125061 -1.86857e-20)
(9.05259 10.2148 1.96382e-20)
(8.30305 3.6656 2.83892e-21)
(5.96258 -1.6731 2.14978e-20)
(10.876 0.245871 1.78085e-21)
(4.7642 -3.23154 2.90006e-21)
(8.4735 -0.73121 -6.86187e-21)
(12.0179 0.833672 -7.57977e-21)
(7.55385 -0.241916 -8.18331e-21)
(9.7508 0.0652174 0)
(7.9811 -0.00411933 -5.81572e-21)
(-0.493471 -0.169609 8.21822e-20)
(-0.716528 2.68351 0)
(10.6229 -1.50551 0)
(6.63104 0.0546551 0)
(-1.94902 -1.07579 0)
(8.00337 0.552672 0)
(5.76272 -1.61151 0)
(7.14805 2.20231 4.32918e-22)
(8.35424 3.02739 -4.04765e-21)
(9.15413 0.953966 0)
(7.3864 0.220287 1.86785e-20)
(3.368 9.20141 -2.02522e-20)
(8.09881 0.388637 1.23535e-22)
(-1.43493 -0.852126 -8.16773e-22)
(5.70969 -0.961624 4.29032e-23)
(2.53009 -2.11611 1.44756e-21)
(7.85825 0.0919208 -2.1108e-21)
(9.77475 0.362393 1.27399e-22)
(7.94261 0.512041 -5.20839e-21)
(7.68165 -0.00843994 -1.14911e-20)
(7.27391 2.00769 -8.96529e-21)
(10.9548 3.06914 0)
(12.5306 -6.33879 9.95588e-21)
(6.27312 -2.24632 -1.69682e-20)
(8.0517 0.0276382 -1.74046e-20)
(11.3885 -2.59931 1.1154e-20)
(9.85331 -0.059385 1.01631e-21)
(13.6861 -1.84365 -1.61922e-20)
(9.67202 -1.05783 -3.59419e-22)
(9.7726 -2.21595 -1.25087e-21)
(8.01418 0.292478 5.43205e-21)
(9.40603 6.06898 0)
(15.764 0.288461 -2.33044e-21)
(7.39587 -0.611444 -2.47203e-21)
(12.2681 0.524767 0)
(11.983 -4.53793 0)
(8.92389 -3.96876 -1.15667e-22)
(5.06899 -3.71161 3.74362e-21)
(6.57429 2.80247 1.77473e-20)
(9.75923 -1.33598 0)
(8.23592 -0.660319 -9.59575e-21)
(7.53319 -0.0334726 -2.21352e-21)
(3.11836 -10.4418 9.90922e-21)
(8.24057 -0.594787 3.57418e-21)
(2.9977 -2.24579 0)
(11.5775 -6.56941 1.05307e-20)
(8.30393 -0.359186 0)
(11.3892 1.70952 -3.27861e-21)
(9.27515 2.72727 3.14036e-22)
(8.04845 0.0217302 -1.77002e-24)
(8.4419 1.52749 -1.07625e-20)
(9.06766 3.13059 -5.80773e-22)
(8.17512 -2.43629 9.18817e-21)
(15.4811 -0.927732 0)
(-7.48456 -3.87496 -4.13774e-20)
(2.42531 12.7816 0)
(9.27197 0.962283 1.91749e-22)
(4.46101 -9.71669 2.23361e-20)
(11.5382 -1.55717 2.39991e-20)
(8.25599 -4.06649 -2.6018e-23)
(-2.19311 -4.70341 -7.87556e-21)
(7.60071 -3.52444 -2.64445e-21)
(6.41868 -2.24747 -9.69126e-21)
(7.3745 -0.711695 -7.86861e-22)
(-7.53297 -1.69555 3.39494e-20)
(6.01141 -2.70707 6.98191e-21)
(6.63104 -2.32253 1.03002e-20)
(-1.62637 -4.83403 9.56263e-20)
(-8.19218 -7.97707 -1.26854e-20)
(8.67731 -2.67086 3.47228e-21)
(-0.41598 -3.69657 2.80674e-20)
(10.7023 -0.0278683 8.2289e-22)
(3.22217 8.80353 1.93749e-20)
(8.53799 0.960964 -2.65195e-21)
(10.884 -1.90239 0)
(-2.10883 0.00425988 -1.42445e-20)
(8.30603 -0.0180589 -9.01895e-21)
(7.94868 0.16427 0)
(9.22874 0.925074 0)
(-3.2684 7.17412 -5.64222e-20)
(12.0594 2.83156 -1.05513e-20)
(8.83676 0.549147 -5.11171e-21)
(9.4654 -1.54239 4.69554e-21)
(7.3281 2.02031 7.65906e-21)
(7.45549 -0.0218389 5.0018e-21)
(2.37812 -9.30714 8.11165e-23)
(7.0852 0.975099 0)
(6.77899 -2.41005 9.61573e-21)
(-1.97111 -1.71595 8.53329e-22)
(-1.35094 -4.83038 6.21856e-21)
(8.15054 -3.08566 1.3405e-21)
(9.81354 -4.56364 4.08726e-21)
(8.22123 -0.016912 2.71624e-21)
(10.1406 -4.20939 5.78372e-22)
(11.0275 0.246316 -2.7245e-21)
(2.4823 -9.15413 -8.52258e-21)
(8.81366 0.525256 3.87529e-21)
(7.971 -0.195557 4.33846e-21)
(5.86873 -1.807 -8.82246e-21)
(8.28911 -0.774477 5.81473e-21)
(4.0077 3.60564 0)
(8.7466 0.883062 4.80817e-21)
(8.00928 -0.0990508 9.69264e-22)
(7.05048 -1.90964 -3.15103e-21)
(6.44317 3.87682 -5.22573e-21)
(8.55301 -2.64597 2.90981e-21)
(8.16779 -0.0392798 1.76372e-21)
(6.39755 -0.670498 -1.3603e-20)
(12.3634 0.223022 0)
(8.34448 -3.48337 1.1331e-21)
(8.37481 0.197021 5.10075e-21)
(12.771 -0.0917294 0)
(6.59783 -0.947957 7.58292e-21)
(8.3852 -0.625385 0)
(5.77055 3.71024 2.07142e-20)
(10.7789 -0.0469448 0)
(16.9388 1.5405 0)
(8.84569 0.31816 1.81448e-21)
(8.77071 0.400759 3.16541e-21)
(9.94833 1.11975 -2.96949e-21)
(7.82331 0.0290994 -5.25684e-21)
(6.1193 2.00033 -5.5738e-21)
(8.0603 0.114539 -2.33836e-21)
(8.03878 0.574711 0)
(4.97712 -3.32752 -5.30404e-22)
(9.04043 0.411598 -2.00961e-21)
(11.6214 2.27817 7.10654e-21)
(10.9252 -1.94023 0)
(9.86625 1.88882 1.29026e-21)
(7.26998 3.92375 -8.20224e-22)
(10.8639 0.0421496 3.46753e-21)
(-5.37063 -2.96774 0)
(-1.89954 0.557615 3.54117e-21)
(8.09698 0.304139 0)
(11.0474 0.154315 1.31881e-21)
(-2.05651 2.20092 0)
(9.49 -1.47171 0)
(-2.66259 1.53096 0)
(9.72813 -3.40974 0)
(-0.335151 1.42786 -1.20969e-21)
(-2.07405 -9.20896 -2.51032e-21)
(8.10575 -0.652442 -7.20083e-21)
(7.88263 -8.54066 -3.71315e-20)
(6.31136 -2.78885 0)
(2.24549 -9.9185 -3.09832e-20)
(-2.9692 3.05895 -2.21251e-20)
(7.63681 -3.53609 0)
(7.09019 -2.63902 -9.75701e-21)
(7.2175 -1.16464 5.47079e-22)
(8.50014 0.902748 6.90419e-21)
(12.2158 -3.62034 -8.51091e-21)
(7.6754 -0.0737497 0)
(10.664 -2.9238 0)
(10.0934 0.983905 1.78222e-21)
(15.9312 1.51303 7.15469e-21)
(7.75456 -0.882675 1.69156e-21)
(-3.41492 10.3793 6.71288e-21)
(8.00447 0.0161781 4.31591e-22)
(6.61171 -0.778745 -1.66526e-23)
(7.9823 0.29717 7.7347e-21)
(7.79448 -3.1295 -9.16055e-22)
(8.8811 -2.39683 0)
(4.96243 -1.04564 0)
(10.6146 -0.172905 0)
(6.56193 0.0332695 0)
(8.02991 -1.78498 3.87534e-21)
(10.2418 0.70236 0)
(-1.63728 1.99987 8.29771e-21)
(-6.41694 -5.62963 -2.18823e-21)
(6.52623 -2.36711 -1.56037e-20)
(4.44209 7.39555 8.28097e-21)
(-0.634548 -11.388 -6.73802e-21)
(-1.87713 1.52355 -3.95126e-21)
(8.96877 0.0416289 1.39483e-21)
(1.30492 -7.29355 -4.17735e-21)
(7.67879 -2.83066 -1.8434e-21)
(8.98299 0.235829 0)
(11.0222 -0.4606 0)
(-1.0521 7.56068 0)
(10.1508 -1.43479 4.90474e-23)
(-9.16044 -5.92923 0)
(7.1799 0.971389 0)
(8.01207 0.0247074 0)
(8.26072 -2.12197 3.73639e-21)
(8.16486 0.345749 -8.18173e-21)
(6.66813 0.197799 0)
(8.42105 1.57091 1.39928e-20)
(7.88989 0.280948 -6.83778e-21)
(8.60197 2.31627 7.16429e-21)
(7.685 -3.48875 4.75426e-21)
(7.35611 1.21651 1.12784e-22)
(9.22757 11.9187 -3.7778e-21)
(11.6862 -5.91633 5.24878e-21)
(14.6163 4.55084 -6.38947e-21)
(8.75938 0.438595 -4.24879e-21)
(7.66848 -0.750188 3.79379e-21)
(7.74439 -0.386204 -7.6257e-21)
(8.37599 -0.022201 0)
(13.8595 2.72446 -1.67572e-20)
(7.94159 -0.0726393 8.05377e-21)
(7.70169 7.62436 3.22283e-20)
(9.6294 -1.02542 -1.18466e-21)
(5.63834 -1.69657 -1.5134e-20)
(8.76738 0.363793 7.11586e-22)
(10.4773 1.43504 3.03189e-21)
(8.00701 0.143163 0)
(1.78389 -1.4226 -1.95179e-21)
(9.85485 -1.9538 4.85966e-22)
(12.5668 5.47851 1.07126e-21)
(10.2774 -6.64085 -4.19657e-20)
(8.28577 -0.0989391 3.76329e-21)
(10.5825 -0.252179 -3.67479e-22)
(10.7988 0.17609 -1.3587e-21)
(10.7129 -0.125795 0)
(7.46446 7.64244 0)
(7.22598 -3.40379 6.56826e-21)
(3.01835 -2.38468 1.86241e-21)
(6.6974 0.0592231 5.74854e-23)
(7.97771 -0.0744806 1.59234e-20)
(1.55822 -0.397458 6.12188e-21)
(6.50561 -0.243246 0)
(7.63858 -0.416606 0)
(7.55018 -1.97328 -1.59966e-22)
(8.63809 0.171061 2.80753e-21)
(7.46057 1.13429 1.26418e-20)
(9.48676 1.20177 0)
(9.25192 -0.16231 0)
(9.99038 -2.46014 -4.74845e-22)
(8.8119 -0.807913 4.70369e-21)
(4.85003 -1.14638 -1.17365e-20)
(11.3377 -0.15912 0)
(9.62953 -1.96655 1.93893e-21)
(8.91594 -1.99721 1.98163e-21)
(-0.850963 -2.14187 -1.76822e-21)
(8.47101 -0.322763 -7.61033e-21)
(9.92255 2.1498 0)
(11.7993 2.28223 8.48592e-21)
(-5.12831 -3.14507 -1.72065e-20)
(-1.47922 1.19396 0)
(6.95181 -0.0210848 3.64607e-21)
(7.83296 -0.107607 -5.37008e-21)
(7.03088 0.0586676 3.29024e-24)
(10.1034 2.70449 -1.35745e-21)
(7.73206 7.4726 4.45942e-21)
(8.66369 0.0524395 0)
(5.65623 -2.28668 -1.55559e-22)
(1.6694 0.0810941 -6.06166e-21)
(1.53544 2.09593 -9.89904e-21)
(7.97162 0.513552 6.16759e-21)
(14.5372 -1.16993 6.11103e-20)
(8.15775 -0.0201149 -1.7442e-20)
(6.64402 -1.8194 9.50093e-22)
(9.36187 -5.48799 2.77354e-21)
(8.12685 -2.0104 0)
(10.3441 -1.20923 -7.49024e-22)
(5.92816 -2.76812 5.61061e-21)
(9.485 -0.110293 -5.18924e-21)
(7.99898 -0.0712916 -7.16108e-21)
(11.116 0.211516 -1.26841e-21)
(7.62866 -1.29249 1.60238e-20)
(10.3669 -0.0331879 -9.56026e-22)
(7.60901 -0.366223 4.51698e-21)
(7.27238 -0.915648 2.49388e-21)
(11.1006 2.28003 -8.77358e-21)
(8.39777 2.52684 5.9742e-21)
(-7.8679 -8.79891 2.35245e-20)
(8.57069 0.0357149 0)
(-2.10579 3.91796 0)
(11.6138 -0.517836 0)
(6.49804 -2.26199 1.21534e-20)
(8.03203 0.0359447 -1.13785e-20)
(7.47272 -0.0430312 0)
(7.19898 -1.93781 -9.06641e-21)
(7.49036 -0.117183 0)
(8.04155 -1.62632 -6.40074e-21)
(11.5137 1.9093 9.37126e-21)
(8.76575 -2.25675 -3.94312e-21)
(8.76682 0.0503779 0)
(8.01404 -0.226891 0)
(11.6422 0.0388872 -2.3627e-21)
(9.15312 0.825851 -8.30545e-23)
(10.0904 0.308286 1.16936e-21)
(7.48161 4.20487 -6.06267e-22)
(9.77854 1.80488 0)
(8.2043 -3.01133 -2.1525e-21)
(-1.56333 2.74953 0)
(3.96916 1.12403 -9.33994e-21)
(9.14945 3.14261 0)
(10.4285 -0.199838 7.13225e-22)
(5.92673 -1.55117 5.74173e-21)
(7.05768 -1.33664 5.41867e-21)
(11.098 0.0804023 2.3628e-21)
(-7.15353 -7.16766 -8.69534e-20)
(8.73421 -0.976251 1.18346e-20)
(7.988 0.549866 -1.26878e-22)
(13.3272 -2.0773 1.98486e-20)
(9.15776 -1.87081 -1.72245e-21)
(-1.12038 1.7368 7.11098e-21)
(9.12374 1.26847 0)
(8.02977 -0.016025 -6.42413e-25)
(7.32317 -2.13042 0)
(9.77367 -4.68288 -2.41427e-21)
(8.2886 -2.98566 -1.04541e-21)
(7.67282 -1.20009 -5.21582e-21)
(6.71521 0.047233 7.29553e-23)
(9.57278 0.246006 3.71881e-22)
(7.51533 -0.907765 1.14261e-20)
(9.53266 0.409822 -1.96455e-21)
(7.61742 -0.890341 0)