/*--------------------------------*- C++ -*----------------------------------*\
| =========                 |                                                 |
| \\      /  F ield         | OpenFOAM: The Open Source CFD Toolbox           |
|  \\    /   O peration     | Version:  2306                                  |
|   \\  /    A nd           | Website:  www.openfoam.com                      |
|    \\/     M anipulation  |                                                 |
\*---------------------------------------------------------------------------*/
FoamFile
{
    version     2.0;
    format      ascii;
    arch        "LSB;label=32;scalar=64";
    class       surfaceScalarField;
    location    "7.6";
    object      phi;
}
// * * * * * * * * * * * * * * * * * * * * * * * * * * * * * * * * * * * * * //

dimensions      [0 3 -1 0 0 0 0];

oriented        oriented;

internalField   nonuniform List<scalar> 
20045
(
0.248583
-0.271587
0.0230045
-0.533299
0.191189
0.342111
0.198828
1.01135
-1.21018
-0.178298
0.250684
-0.0723859
-0.434726
0.406521
0.0282053
-0.312766
1.13722
-0.824449
-0.493049
0.185062
0.307986
0.0297924
0.220326
-0.250118
0.243758
0.208266
-0.452024
-0.412357
-0.0488363
0.461194
-0.22459
-0.17385
0.39844
1.12255
-0.536772
-0.585774
0.179152
-0.180248
0.00109655
-0.630525
0.55238
0.0781449
-0.13954
0.512477
-0.372937
-0.537857
0.125499
0.0267403
-0.0802458
0.0535056
0.239866
-0.266055
0.0261892
-0.81681
1.20719
-0.390379
-0.376187
0.023985
0.352202
-0.258344
0.191718
0.066626
0.060984
0.118168
-0.0675191
-0.46578
0.551763
0.550118
-1.10188
0.406619
0.109147
-0.515766
-0.576149
1.12791
0.0503616
-0.053175
0.00281338
-0.719966
1.34699
-0.627024
0.842577
0.149814
-0.992391
-1.35213
0.727236
0.624898
-0.23926
0.271922
-0.0326627
0.693097
-0.501678
-0.191418
-0.342434
0.852972
-0.510538
1.25057
-0.727736
-0.522837
-0.282003
0.311796
1.01704
-0.49222
-0.524824
0.650128
0.047945
-0.698073
-0.0296482
0.184687
-0.155039
-1.00188
0.485377
0.516503
0.301718
0.263605
-0.565323
0.0154028
0.217994
-0.233397
0.0642367
-0.0923238
0.028087
1.06646
-1.06747
0.00100716
0.740602
-0.27799
-0.462612
0.347204
0.393397
0.50605
0.616496
-0.112243
0.0208746
0.0913682
0.652884
0.245917
-0.898801
0.781702
-0.131574
0.100092
0.990994
-1.09109
0.652542
-1.09963
0.447093
0.904142
-0.643215
-0.260926
-0.590792
-0.416405
1.0072
-0.0457775
-0.151072
0.196849
0.359363
-0.2079
-0.151463
-0.345737
-0.0889889
-0.239622
0.990084
-0.750461
0.770306
0.102375
-0.872681
0.634828
-0.977262
0.77214
-0.477609
-0.294531
-0.254774
-0.148918
0.403693
0.385981
0.386159
0.228683
-0.892821
0.664138
-0.132681
-0.125664
0.868366
-0.204361
-0.664005
0.735827
0.0289274
-0.764754
0.0922567
-0.246918
0.154662
-0.334331
0.0775709
0.25676
0.430645
-0.186886
0.793073
-0.806565
0.0134924
0.2066
-0.114343
0.086038
0.273325
-0.128276
-0.527939
0.656214
0.062457
-0.10812
0.0456635
0.81388
-0.237043
-0.576837
0.675698
-0.91532
0.0718903
0.74199
0.235746
-0.375287
0.12408
-0.126488
0.00240808
0.144808
-0.619569
0.474761
0.517264
0.585988
-1.10325
0.447958
-0.349839
-0.0981186
0.690765
-0.462082
-1.34339
0.233136
1.11025
0.00885692
0.239726
-0.26333
0.299612
-0.0362825
0.298402
-0.659791
0.361388
-0.802035
0.0333794
0.768656
0.514987
0.0797512
-0.594738
-0.417103
0.383962
0.0331411
-0.697894
-0.100098
0.797992
0.370095
-0.073081
-0.297014
0.202512
-0.290028
0.087516
-0.0837922
-0.405559
0.489352
0.295026
-0.315901
0.0208747
0.765104
0.16302
-0.928124
0.0410517
0.00930993
-0.0684453
0.279204
-0.210759
0.61699
-0.315272
0.051366
-0.105431
0.0540652
0.687325
0.32972
-0.219371
-0.411154
0.253345
-0.32179
-0.18406
0.954365
0.000311241
-0.263641
0.11058
-0.0592136
0.227588
0.606155
-0.833743
0.524234
-0.926106
0.401872
0.0118376
-0.214284
0.185934
0.0283499
-0.101154
0.129374
-0.0282198
0.590291
-0.452413
-0.137878
-0.247773
0.201996
0.625764
-1.19801
0.572245
-0.0868561
0.158281
-0.0714251
0.022718
-0.125101
0.102383
0.574544
-0.167925
0.884481
0.366091
-0.59178
0.463504
0.64747
-0.876892
0.229422
0.237668
0.00219812
-0.404323
0.149549
-0.390783
0.31653
0.0742525
-0.477646
0.0514033
-0.294095
0.242692
0.62081
0.283332
0.552149
-0.72021
0.16806
0.811896
0.0939982
-0.905895
-0.988406
0.725011
0.263395
0.0891508
-0.831822
0.742672
0.943713
-0.322903
0.168769
-0.147895
0.0890325
-0.0312418
-0.0577906
-0.0331547
0.0249179
0.00823685
0.570993
0.400816
-0.971809
0.596318
-0.574944
-0.0213739
-0.170739
0.0994215
0.0713174
-0.154169
-0.0601144
0.997547
-0.350077
-0.330335
0.34724
-0.0169056
0.631977
-1.18237
0.550397
0.169335
-0.760128
0.548342
0.226972
-0.775314
0.70376
-0.558952
0.960927
-0.134687
-0.82624
0.569745
-0.891214
0.321468
0.974609
-0.614224
-0.360385
-0.126488
0.22466
-0.0981727
-0.0427026
1.12244
-1.07974
1.07477
-0.232198
-0.825228
0.0262254
0.799002
-0.483061
0.40123
0.0818305
0.989674
-0.47241
0.165546
0.282412
-0.629752
0.778209
-0.148456
-0.878348
1.07718
0.00955247
-0.160304
0.150752
-0.0720855
0.106769
-0.0346838
-0.018235
-0.185683
0.203918
0.546503
0.406005
-0.952508
1.3986
-0.700658
-0.69794
-0.221726
0.203491
0.346345
-0.65654
0.310195
0.075676
-0.0114392
-0.827275
-0.456654
0.683838
-0.227185
-0.668238
0.479255
0.188983
-0.0117508
-0.0253473
0.0370981
0.47812
0.496489
-0.0170323
-0.0161224
-0.0160539
0.105086
-0.709254
0.0795014
-0.734648
0.931443
-0.196795
-0.668707
0.751082
-0.0823751
-0.57141
-0.433987
1.0054
-0.148199
0.398119
-0.24992
0.452839
-0.45926
0.00642084
1.01809
0.0108886
-1.02898
0.0133848
-0.760217
0.746832
-0.362107
0.910449
0.194407
-0.550198
0.355792
-0.54245
1.16821
-0.81612
0.546189
0.269931
0.150016
-0.14742
-0.00259577
0.520682
-1.26916
0.748477
-1.05722
0.337251
-0.596064
-0.4498
1.25235
-0.735105
-0.517246
-0.283324
0.298726
0.12558
-0.132854
0.00727344
-0.706257
-0.11691
0.823168
-0.931247
1.303
-0.371755
0.940203
-0.710218
-0.229985
0.0790238
-0.244456
0.165432
-0.315382
-0.468088
0.78347
0.1922
-0.41679
-0.706868
0.796018
-0.715217
-0.229245
0.944462
0.0895654
0.0244664
-0.114032
0.152075
-0.608729
-0.25358
0.014321
0.873079
-0.0611823
-0.139565
0.109917
-0.137832
0.170076
-0.0322435
-0.55625
1.10275
-0.845761
0.530379
0.0220913
0.0977605
-0.119852
-0.707812
0.137585
0.570227
0.279424
0.660779
1.3382
-0.817517
0.800652
-1.40709
0.606436
0.353571
-1.18675
0.833179
0.032252
-0.408439
-0.489493
0.717082
0.657639
-0.970406
0.474361
-0.875822
0.401461
-1.45924
0.843087
0.616149
-0.0159974
-0.401106
0.179835
0.14108
-0.320915
0.740771
-0.260193
-0.480579
-0.078691
-0.780259
0.737557
-0.253359
-0.0769757
0.683381
1.06438
-0.856938
-0.207446
-0.0102721
-0.125635
0.135907
0.669128
0.134174
-0.803302
0.159279
-0.400871
0.241592
-0.252008
0.791335
-0.539326
-0.434091
0.732493
0.572611
-0.378204
-0.069719
0.216278
-0.146559
1.00288
-0.3709
0.0887893
-0.00795397
-0.0808354
-0.115585
-0.208576
0.324161
-0.103471
0.107491
-0.00401981
1.23084
-0.76012
-0.470724
0.246668
-1.17791
-0.113116
0.00964566
-0.866583
0.273178
0.593405
1.33896
-0.485986
0.245336
-0.979984
1.40739
-0.595485
-0.811904
-0.0118184
0.101384
0.870332
-0.489055
-0.381276
-0.611903
0.137359
0.474545
-0.928698
0.930589
-0.00189064
0.408451
-1.09139
0.682937
0.026208
-0.0334553
0.00724723
-0.463674
0.627661
-0.163987
-0.0534556
0.363164
-0.309708
-0.14383
0.056974
-0.117753
0.0165983
-0.554905
-0.371201
0.41291
-0.866773
0.453862
-0.218801
0.363577
-0.144776
0.405051
0.288046
0.805122
-0.330762
-0.0281067
-0.0439789
0.708638
0.630321
-0.492946
0.0163579
0.476588
0.397635
0.472696
0.384055
0.128422
-0.35531
0.136509
-0.283849
-0.0289819
0.312831
0.0163774
0.133639
-0.837794
0.585786
0.00526409
-0.201389
0.196125
-0.934148
0.901814
0.0323344
-0.337831
0.473959
-0.136128
-0.212739
-0.106639
0.319378
0.764478
-0.831198
0.0667198
-0.889237
-0.569999
1.27678
-0.809988
-0.466792
-0.0922562
0.0819841
1.18217
-0.773715
-0.475393
0.888303
-0.454757
0.0357565
0.419001
0.889789
-0.233394
-0.656395
1.08088
-0.302638
-0.778239
-0.472673
0.0179162
0.836926
-0.495165
-0.341761
-0.162649
0.786211
-0.623563
0.389179
-1.02395
0.634769
0.208215
0.200115
-0.408331
-0.0659941
0.00913972
0.0568544
1.30335
-1.09804
-0.205305
-0.514866
-0.47354
0.709927
0.354457
-0.855824
-0.0783239
0.151433
-0.267017
0.314188
-0.691373
0.377185
0.00367877
0.121901
-0.539028
1.11002
0.49753
0.733314
1.36231
-0.806435
-0.555872
-0.797693
0.568448
0.71164
-1.19572
0.484081
-0.62823
-0.0414009
0.669631
-0.256966
-0.159462
0.416427
0.551533
-0.205188
-0.130928
0.15302
0.466653
-0.0414587
-0.46022
-0.637759
0.859656
-0.221897
-0.159478
0.0216461
-0.100103
0.0303839
0.112495
-1.04119
0.364648
-0.798739
0.0754444
-0.181316
0.246901
-0.0655852
0.0183371
-0.196635
-0.492279
0.375084
0.117195
0.347386
0.242905
0.524481
-0.115304
-0.409177
0.489144
0.107174
-0.344008
0.658197
0.571685
-0.0566978
-0.208188
-0.499624
1.11527
-0.893759
-0.221511
0.783772
-0.801378
0.383626
0.417752
0.799968
-0.867394
0.0674261
-0.43673
0.352938
-0.112855
-0.0578839
-0.118656
-0.579238
0.296051
-0.541613
0.245562
0.420057
0.416869
0.683181
-1.12768
0.444498
0.24047
-0.536477
0.296007
-0.972718
0.170683
0.0172042
0.352891
-0.550107
0.836811
-0.286703
-0.250684
0.303891
-0.0532061
-0.422229
-0.0708196
-0.124939
-0.228156
0.353095
0.0817272
0.000832421
-0.0825597
-0.314689
-0.168372
0.373854
0.44538
-0.819234
0.810243
-0.412607
0.277476
-0.448796
0.0120663
0.468145
-0.227675
-0.664473
-0.151647
0.330467
-0.359171
0.0287041
0.970915
-0.318031
-0.470608
0.754734
-0.284126
-0.114066
0.132987
-0.0189214
0.724964
0.0158073
-0.375524
-0.315848
-0.521763
0.9382
-0.416437
0.618864
-1.12469
0.505824
0.587883
0.688898
-0.0426549
0.0334601
0.00919487
0.0902454
-0.718475
0.645231
-0.973059
0.327828
0.0729107
-0.0104537
-0.0829336
0.635083
-0.353088
0.717736
-0.758875
1.11245
0.187105
-1.00392
-0.856963
0.464894
0.392069
0.640173
-0.10384
-0.536334
0.937177
-0.172699
-0.509046
-0.525654
-0.459338
0.602186
-0.0184812
0.21377
-0.195289
0.317998
-0.294013
-0.722988
0.640055
0.839908
0.22655
-0.790479
0.319871
1.04951
-0.33958
-0.300364
0.381815
-0.0814513
0.0280355
-0.631508
0.603473
-0.90166
0.168151
0.733508
0.727179
-0.727179
-0.391229
0.777474
-0.386245
0.437453
0.0870285
0.655118
-0.348407
-0.30671
-0.964764
1.00185
-0.0370856
0.335574
-0.0392531
-0.296321
0.259094
-0.105828
-0.153267
0.106818
-0.319558
0.150288
0.460468
-0.935861
-0.861222
1.01248
-0.151253
-0.284109
0.657962
0.109502
0.00716163
-0.116663
-0.0545689
-0.0892503
0.143819
-0.375674
0.407926
1.29164
-1.0447
-0.246939
-0.0829262
-0.526072
0.608998
-0.230284
0.249507
-0.0192229
0.122313
-0.273366
0.151053
-0.928883
0.334014
0.594869
0.162387
0.0882971
-0.387401
0.0870375
0.010133
-0.121864
0.111731
0.634861
0.668489
0.115317
-0.00581523
-0.0426397
-0.285833
0.328473
-0.508574
0.809947
-0.301373
0.00130777
0.0932215
-0.0945293
0.41761
-0.232548
0.656534
-0.202427
-0.454107
0.0114357
-0.416995
0.171143
0.846945
0.436586
0.294631
-0.731217
0.462296
-0.408551
-0.053745
-1.01275
0.187517
-0.409965
0.166303
0.243662
0.496729
0.663277
-1.16001
-0.630105
0.588704
0.0452459
-0.915029
0.869783
-0.123261
0.202285
0.163346
-0.170724
0.00737858
0.0277858
-0.311635
0.0252185
0.023051
-0.0482695
-0.674641
-0.191942
0.61954
0.0465017
-0.0258398
-0.0206619
-0.120481
0.00641539
0.168338
-0.706863
0.538525
0.255148
0.539169
-0.794317
0.445915
-0.710582
0.869781
-0.159199
-0.719652
0.557003
-0.0248065
-0.0283686
-0.385645
-0.282593
-0.253414
0.0651061
0.188307
-0.883822
0.375248
0.667824
-0.75075
0.421867
0.627641
-0.30707
0.302948
0.00412224
0.392204
-1.11865
0.726444
0.148674
-0.263768
0.115095
0.326665
-0.70219
-0.634233
-0.0344731
-0.309195
-0.0251357
0.0885217
-0.0792453
-0.00927631
0.402407
0.00700347
-0.0253692
0.0183657
1.09869
-0.601961
-0.529852
0.874571
-0.344719
0.261567
0.181239
-0.442806
-0.35837
0.235109
-0.212536
-0.0408778
0.438209
0.216909
-0.187884
-0.689008
0.337293
-0.00682533
0.613718
0.407828
0.163857
-0.956431
1.05652
0.128352
-0.465087
0.336735
-0.086425
-0.827634
0.914059
-0.252307
0.270709
-0.0184019
-0.355882
0.207683
-0.573026
0.962205
0.960545
-0.390799
-0.427415
-0.0648639
0.00823837
-0.410939
0.402701
0.409995
-0.981405
-0.131233
-0.462239
0.593472
-0.0932357
0.234265
-0.141029
-0.650027
0.0504782
0.599548
0.942039
-0.696122
-0.0157911
0.0812951
-0.0655039
-0.211914
-0.0183695
0.180333
0.361061
-0.541394
0.0997263
-0.125359
0.0256328
0.592452
0.339659
-0.932111
-0.364198
1.1293
0.0790434
0.00268384
-0.276495
-0.590158
0.866653
0.310556
0.686991
0.958339
-0.703191
-0.348695
0.223756
-0.0706921
0.00469802
-0.445583
1.15722
0.133831
-0.76545
0.631619
0.876266
-0.144598
-0.731668
-0.489348
0.705464
-0.216116
0.394776
-0.45584
-0.416578
0.872418
0.10445
-0.125578
0.0211279
-0.283245
-0.485958
0.769204
-0.161947
0.107378
0.0316175
-0.0433683
0.506504
-0.789749
-0.704807
-0.209608
0.914415
-0.0625256
-0.481048
0.543574
0.0428086
1.2097
-1.23018
0.0204748
0.20472
-0.143341
-0.0613795
-0.00167254
-0.305397
0.257388
0.231963
-0.318273
0.0613072
-0.816454
1.02535
-0.208894
-0.248693
0.253957
0.280722
0.423038
-0.814652
-0.252813
-0.0644059
-0.0350861
0.099492
0.533469
-0.125641
-0.195762
0.215436
-0.0196735
0.330363
-0.383818
-1.18515
0.589089
0.940889
0.196326
-0.123895
0.246208
-0.200824
0.46239
0.915962
-0.455494
-0.2025
0.00673796
-0.107678
-0.61531
0.19449
0.21181
-0.202257
-0.919129
0.0174699
0.00916461
0.207193
-0.0585193
-0.879794
0.637528
0.242266
0.668473
0.1246
0.184249
-0.0605749
-0.123674
0.280543
-0.258484
-0.0220593
-0.762142
0.269922
-1.04566
0.523898
0.289848
-0.00699312
-0.282855
-0.0310094
0.249307
-0.218298
1.00409
-0.00261219
-1.00148
0.14681
0.00859637
-0.155406
-0.13519
-0.255592
0.222574
-0.0200612
0.0227449
-0.0190678
-0.0036771
0.38641
-0.0500557
-0.336354
0.0226258
0.000119093
0.821962
-0.658942
-0.0280018
-0.139807
0.167809
-1.02124
0.204782
0.0159254
-0.134162
0.387507
-0.00576063
0.0522623
-0.0199262
-0.00818047
0.238905
0.162486
-0.401391
0.621491
0.246875
0.438816
-0.310464
0.191084
-0.168366
0.0661948
-0.316879
0.604365
0.0375015
-0.641867
0.534486
-0.0371647
-0.497322
-0.538634
-0.352579
-0.340033
-0.0112626
0.351296
0.397299
-0.420245
0.0229458
1.11323
-0.0410275
-1.0722
-0.37821
0.0744097
0.303801
-0.496274
0.662254
-0.16598
0.588384
0.657084
-1.24547
0.279523
-0.428441
-0.271171
0.430852
-0.15968
0.212752
0.0938292
-0.306581
-1.17192
0.688793
0.483131
-0.0154663
-0.0036015
-0.844706
0.1399
0.29762
-0.18356
-0.114061
0.485653
-0.611096
0.125443
-0.0831347
-0.188452
0.185469
1.02424
0.820424
-0.137452
-0.682971
-0.846884
0.136302
0.339093
-0.547281
0.789146
-1.21521
0.426063
-0.0976978
0.277533
-0.00160323
-0.378405
0.335765
-0.156449
0.207853
-0.138626
-0.803555
0.942181
0.512711
0.669456
-0.745145
0.773926
-0.028781
0.0787128
0.00980882
-0.607838
-0.251552
-0.109558
0.122341
-0.0127821
0.540246
-0.183932
-0.356314
0.00533657
0.0687851
-0.0741217
-0.0647077
0.550361
-0.78112
-0.0951436
0.876264
-0.718619
-0.251607
0.970226
0.468799
-0.345666
-0.123132
-0.176609
0.0172659
0.159343
-0.220491
0.0872126
0.133278
-1.01687
0.0481177
0.968751
0.0254093
0.182715
-0.208125
0.806066
-0.907487
0.101421
-0.516878
0.794914
0.306588
-1.1015
0.0109202
-0.120479
-0.0780675
-0.689687
0.767754
0.598594
-1.14104
-0.948076
0.823912
0.124164
0.11583
-0.0161038
0.730298
-0.449576
-0.0464586
-0.236827
0.283286
-0.00884595
0.125916
-0.117071
-0.18705
0.898181
-0.711131
0.725629
-0.403494
-0.322134
1.0364
-0.980552
-0.0558475
0.773496
-0.277735
-0.49576
0.0427904
-0.219121
0.176331
-0.281997
-0.0120984
-0.924329
0.811166
0.113164
0.0535017
-0.977831
-0.264614
0.447154
-0.18254
-0.590273
-0.507772
0.181399
-0.157357
-0.0240413
-0.799247
-0.221989
-0.172356
0.114849
0.0575072
-0.107945
0.267225
-0.88131
0.853136
0.0281735
-0.16969
-0.0925262
-0.0155943
0.159564
-0.0127544
-0.597896
0.134222
0.12674
-0.152156
0.0254167
-0.735838
0.431347
0.304491
0.359275
-0.0237001
-0.240427
0.6911
0.0338644
0.349671
-0.0742304
0.191842
-0.117612
-0.0797557
0.532595
-0.611026
0.394453
0.216573
-0.0518891
0.0364228
1.15552
-0.642805
0.959839
-0.567635
-0.241127
-0.148234
0.389361
0.490532
-0.955195
0.464663
0.550818
-0.613343
0.965067
-0.431453
-0.533614
-0.00353444
-0.515465
-0.0955614
-0.257438
0.788351
-0.530914
0.0417818
-0.357034
1.15769
-1.06748
0.26823
0.384353
-0.176138
-0.0841765
0.0461737
0.110403
-0.00291236
-0.49317
-0.499103
1.37503
-0.699332
-0.407523
0.338472
0.0690517
0.0609349
0.19816
-0.659412
-0.40747
1.06688
0.2234
0.328133
-0.00380192
-0.132901
0.136703
0.820693
-0.269667
0.0334974
0.23617
0.651427
-0.0470621
-0.353893
-1.03041
0.169186
-0.20396
0.00979428
0.194166
0.584174
0.823215
0.525586
-0.443903
-0.0816834
0.982011
0.0543879
0.608858
-0.864971
0.256113
-0.829488
-0.012107
0.841595
-0.754031
0.984766
-0.230735
0.127531
-0.00500098
-0.12253
-0.514689
1.11328
-0.248251
-0.21567
0.46392
0.0205556
-0.765701
0.184906
-0.0749553
-0.109951
-0.960673
1.25208
-0.291406
-0.229742
0.533431
-0.303689
1.16183
-0.511593
-0.650237
-0.00894166
-0.590957
0.599898
-0.149961
-0.0207628
-0.523982
1.11237
0.373329
-0.764558
1.09928
-0.480412
-0.175236
0.147234
-0.867617
0.0381281
1.18694
-0.503764
-0.0177092
-1.32568
0.234481
-0.016487
0.356323
0.53698
-0.893303
0.543829
-0.122162
-0.421667
0.711361
-1.04528
0.333917
-0.125876
0.00900684
0.116869
-0.197725
-0.477848
0.675573
0.341119
-0.274925
-0.275136
0.0520527
0.223084
0.11344
0.284119
-0.397559
0.0745256
0.106873
-0.89154
1.04178
-0.150242
-0.244067
-0.00823985
0.449662
0.20038
-0.650042
0.576565
0.572147
-1.14871
0.153874
0.486299
-0.0169537
0.977881
0.00108315
0.784618
-0.785701
0.012092
-0.0107842
0.067559
-0.00607853
-0.0614804
1.18916
-1.02876
-0.160403
0.445956
0.519111
-0.117276
0.0644483
0.0528282
-0.286368
0.801361
-0.514993
0.0114542
0.146302
-0.157756
0.593196
-0.931943
0.338747
-0.386585
-0.624942
1.01153
0.845792
-0.176664
0.295683
0.248146
-0.419468
-0.0369918
0.45646
0.280479
-0.806551
0.153889
-0.431423
0.277534
0.176331
-0.0718075
-0.104523
0.0354081
-0.18537
-0.0670705
0.597033
-0.529963
-0.163701
1.1547
0.767092
-0.615895
-0.151197
0.620708
-0.540957
-0.509701
0.150485
0.359215
0.128496
-0.476903
0.206177
-0.0902639
-0.115913
0.0560789
0.12817
0.137921
0.735037
-0.872958
0.213646
0.172764
0.120366
-0.838985
-0.428831
0.149578
0.279252
-0.322581
-0.23075
0.553332
0.470919
-0.232014
-0.839039
0.55493
0.243847
-0.19595
-0.0478977
-0.468578
0.883037
-0.414459
-0.427757
0.439192
-0.437932
0.527407
-0.0894749
-0.566423
0.924739
-0.358316
-0.0197169
0.194388
-0.174671
-0.297259
0.26625
-0.282626
-0.557885
0.881549
-0.323664
-0.54428
0.681865
0.498122
-0.505286
0.00716372
0.245503
0.120233
-0.365736
-1.25515
0.826885
0.428267
0.0234211
0.169194
-0.192615
0.073496
0.691757
-0.878807
0.899187
-0.408655
-0.350052
-0.506911
-0.697857
0.698941
0.494561
-0.015306
0.384793
0.113548
-0.498341
-0.317324
0.29375
0.0235746
-0.106337
-0.0428813
0.149218
-0.286221
-0.414236
0.700457
-0.0646314
0.468439
-0.403808
-0.743115
-0.268579
1.01169
-0.153774
0.399278
0.930442
0.25872
-0.855422
0.52602
0.329402
-0.32754
-0.00980123
0.337341
0.00349839
0.167095
-0.216497
0.0494014
-0.618327
-0.836161
0.54994
0.123729
0.188771
-0.14598
0.247418
0.292828
-0.0320733
-0.799749
0.0273845
0.267642
0.150103
0.0285208
-0.178624
-0.630899
-0.491445
1.12234
-0.125101
-0.294367
-0.499712
-0.102979
0.60269
0.11548
0.184916
-0.300396
-0.0128262
1.13081
-0.738833
-0.391978
0.170633
0.649791
0.102676
0.172475
-0.519922
0.347447
-0.549568
1.041
-0.49143
-0.562374
-0.258259
0.820633
-0.443699
0.172527
-0.404084
-0.105617
0.863211
-0.423804
-0.439407
0.425427
-0.198802
-0.226626
0.379545
0.0474162
-0.426961
-0.156859
0.182268
0.223922
-0.351862
0.127941
0.0360367
-0.0243519
-0.197374
-0.00653339
0.45928
0.403931
-0.362229
0.847606
-0.44822
1.17546
0.334503
0.0909245
-0.857715
0.295342
0.717264
-0.627018
-0.0978307
-0.620595
0.124321
0.163434
-0.428047
0.723143
-0.695107
0.819063
-0.0190955
-0.186838
-0.10319
-0.27183
-0.0651788
0.337009
-0.283176
-0.0327252
0.705877
0.151786
-0.857663
0.0245102
-0.242121
0.217611
-0.0203218
0.415464
-0.854124
0.43866
0.873353
-0.0672865
-0.998502
1.06614
-0.067636
0.204808
-0.127237
-1.06666
-0.188497
-0.318289
0.839279
-0.0281136
0.447384
1.11527
-0.407417
-0.707852
-0.638109
-0.0369555
0.675064
0.23213
0.497842
-0.729972
-0.684254
0.0342275
-0.159305
-0.140844
0.300149
-0.464529
0.59836
0.126762
0.512053
-0.638815
0.0665358
0.0381898
-0.104726
-0.968387
0.117149
0.851239
0.373915
0.525272
-0.230257
0.559396
0.2141
-0.292092
-0.117873
0.797313
-0.931999
0.205898
-0.342591
0.136693
0.429819
-0.150296
0.664937
0.0452053
-0.710142
0.7394
-1.18762
0.00795676
0.0182513
-0.321776
0.437476
-0.1157
-0.76848
0.690412
-0.0183655
0.266379
-0.248013
-0.362645
0.198876
0.163769
-0.15263
-0.203252
-0.245811
0.584904
0.238954
0.0508944
-0.139086
0.150006
-0.216586
-0.184285
0.0125324
-0.0459877
-0.172421
0.16585
0.0065715
0.189423
-0.212982
0.0235596
-0.571602
0.334559
0.136389
-0.636101
-0.0221375
-0.261186
0.0215146
0.538681
-0.560196
0.303905
-0.332887
0.135415
-0.793389
0.657974
-0.271076
0.744949
-0.473873
0.175732
-0.813491
-0.300199
-0.0250395
-0.923037
0.67963
0.6954
-0.736381
-0.102658
-0.447526
-0.353852
-0.393698
0.165541
-0.0299995
-0.0160664
0.0460659
1.26158
-0.677405
0.838991
-0.19376
-0.223475
-0.144267
0.367743
-1.18546
0.5209
0.664563
-0.444563
0.270714
-0.249889
1.0448
0.147205
-0.0862209
-0.374823
-0.354845
0.106594
0.383668
-0.382009
-0.0016592
-0.115522
0.821399
-0.217979
0.384593
-0.166614
0.710291
-1.28155
0.578859
0.702693
0.205287
0.206116
-0.411402
0.560231
-0.232903
-0.327328
-0.500853
0.271111
-0.911229
0.0130942
0.366451
0.885562
-0.971987
0.384282
-0.17153
-0.392551
0.673031
-0.839179
0.597978
0.241202
0.64058
-0.98018
0.339601
-0.684624
0.721586
-0.0369612
0.418524
-0.49828
0.0122662
0.230303
0.238496
0.147497
-0.767066
0.334884
-1.02236
0.562438
0.459925
0.229822
-0.867931
0.671772
-0.042467
-0.569436
0.132675
0.159067
1.01674
-0.337237
-0.679508
-0.180017
0.247482
-0.570063
0.138194
-0.957495
0.920539
-0.782313
0.326473
0.466914
-0.669585
0.378837
0.290747
-0.831685
0.514682
0.317003
-0.231028
0.0824625
-0.175698
-1.00056
0.69783
0.302727
0.603676
-1.11836
-0.878325
-0.0132145
1.19336
-0.404215
0.203202
0.0946645
-0.297867
-0.0199845
-0.122841
0.142826
-0.246246
0.464019
0.527251
-0.418082
-0.251503
0.163957
0.177163
0.219786
0.336744
-0.556529
0.352174
-0.211094
-0.0392059
-1.05583
1.09504
-0.307554
0.396539
-0.758645
-0.575588
-0.41983
0.995418
0.230305
-0.303386
-0.656641
0.203697
0.452944
-0.0512716
-0.031883
0.0831545
0.708603
-0.847229
0.0364239
-0.3582
0.505425
0.514128
-1.01955
-0.413943
0.0064191
-0.798859
0.222707
0.576152
-0.994401
0.607816
0.486361
-1.03593
0.476254
-0.270356
-0.0446349
-0.00663662
-0.02616
0.902426
-0.586169
0.728345
-0.142176
0.841664
0.00209471
-0.843759
-0.650205
-0.0117639
-0.169552
0.0638339
0.663345
0.105926
0.0270613
0.238452
0.506386
-0.0689327
0.480724
-0.181649
0.0753123
-0.830375
-0.0509342
-0.813688
0.275401
-0.764456
0.159909
0.17697
-0.336879
0.781488
0.0474299
-0.828918
-0.0909281
0.0859271
-0.335853
-0.709808
-0.757731
-0.109662
-0.472641
1.21204
-0.31629
0.431087
-0.114797
-0.905137
0.274239
-0.262634
0.48242
-0.266201
-0.613593
-0.463286
-0.302797
0.309218
-0.604797
-0.131041
0.961333
-0.122054
0.582845
-0.26782
-0.315026
0.0782598
0.138018
0.232201
0.985961
-0.940715
0.00517674
-0.207367
0.294883
-0.469376
0.485734
-0.424299
-0.519844
0.201598
0.159745
-0.361343
-0.76435
0.0371709
-0.11128
0.73441
-0.62313
-0.0638033
-0.934698
-0.673129
0.807303
1.41594
-0.619378
-0.796557
-0.132424
0.298727
0.766055
-0.406597
-0.359458
0.238177
-0.262529
0.0348919
0.0326671
-0.189835
0.04577
0.144065
-0.104816
0.489608
-0.522411
1.12609
-0.0280916
-0.129266
-0.255742
-0.0720738
0.327816
-0.0170399
0.725643
0.233013
0.392464
-0.625477
-0.361219
0.541552
0.408501
0.39286
-0.346324
-0.0825071
0.488282
-0.180138
-0.308144
-0.0532919
0.0370979
0.016194
0.147869
-0.779439
0.631569
-0.882292
0.12456
0.199923
-0.48734
0.762741
-0.00755618
0.245733
0.111176
-0.427466
-0.925516
0.466178
-1.02944
0.328783
-0.416772
0.0410984
-0.389965
-0.549563
0.939528
-0.805918
0.163605
0.100625
-0.26423
1.00316
-0.770024
0.781394
-0.549264
0.146911
0.497246
-0.644157
0.197845
-0.35715
-0.490587
-0.199062
0.689649
0.243608
-0.0946702
-0.148938
-0.510379
1.12678
-0.616401
0.751229
-0.484057
-0.267172
0.648718
0.0222067
-0.670924
-0.529216
-0.752336
-0.298067
-0.0111281
0.362027
0.581686
-0.0122617
0.0770922
-0.0648305
-0.645465
-0.153394
0.648237
0.558952
-0.505103
0.603191
-0.0980876
-0.286563
0.320061
-0.0311006
0.268617
-0.237517
0.153251
-0.37123
-0.115814
-0.884742
-0.849569
0.22978
0.0140672
-0.168245
-0.085335
0.0684155
0.695295
-0.76371
-0.473481
-0.124415
0.441814
0.368429
0.0621246
-0.216294
-0.00492743
0.202121
-0.197194
0.0740051
-0.332872
0.258867
0.213625
0.260334
0.329948
0.784266
-0.364209
0.832837
-0.436299
-0.0994562
-0.229663
0.329119
0.711417
0.0747943
0.0281826
-0.633284
0.435559
0.283717
-0.300757
-0.497763
-0.628007
1.12577
-0.622019
-0.563444
-1.07102
1.11306
-0.0420352
0.341654
-0.342527
0.277348
0.526028
0.258238
-0.317883
0.227088
0.0907944
-0.274945
-0.53162
-0.14031
-0.477505
0.617815
0.431312
-0.207912
0.424393
-0.270504
0.554122
-0.889975
0.440745
-0.331597
-0.562215
1.04879
-0.486579
0.645137
0.45729
0.286528
-0.743818
1.09084
-0.626439
-0.464396
-0.542084
-0.647254
1.08306
-0.435807
0.29746
0.285385
-0.257138
0.249581
0.400359
0.761471
-0.183739
0.163755
0.0214089
-0.0144055
0.901559
-0.500743
0.440017
0.821562
-0.370527
0.192037
0.17849
0.197007
-0.438134
0.710654
-0.0457177
0.391261
-0.188059
-0.643123
-0.121907
0.76503
0.164555
-0.0299921
-0.134563
0.118434
0.0862861
0.129753
-0.883784
-0.254234
0.28202
0.65308
-0.571238
-0.0818424
0.149368
0.338914
-0.128284
0.0677089
0.230726
0.209721
-0.440447
-0.445461
1.08029
-0.0929513
-0.536163
1.09879
-0.56263
-0.269515
0.382955
0.0295996
0.0369362
1.04979
-0.526303
-0.329521
0.273015
0.287216
0.270003
-0.29214
-0.140539
0.120822
-0.274964
-0.117443
-0.00303864
0.335603
-0.135663
0.760287
-0.624624
0.115447
-0.105314
-0.311493
0.0746659
-0.289546
-0.00852042
-0.8481
0.571605
0.219084
0.211767
-0.409211
0.0816682
0.327542
0.260063
0.0395496
0.773643
0.425336
-1.19898
-0.080557
-0.0175471
0.0981041
0.168402
-0.698254
0.931125
0.484811
0.733327
-0.664912
-1.09284
-0.0409177
-0.0184
-0.0374687
0.430647
0.361186
0.445127
-0.806313
0.340759
-0.0368546
-0.0308137
-0.291762
-0.0787646
-0.489438
-0.398591
0.527087
0.47103
0.403541
0.525665
-0.544744
0.0190789
0.159216
0.00663364
-0.0629501
0.220232
-0.0308089
0.671528
0.166618
-0.838146
0.421985
-0.0383169
-0.197861
0.120592
0.0772687
-0.305024
-0.00223057
0.307254
0.269094
0.57463
-0.843723
0.202281
0.268637
0.642223
-0.0154214
-0.232352
0.490379
0.0160063
0.0889078
-0.129557
0.0406493
-0.953589
0.503789
0.779586
-0.621664
-0.157923
0.0113995
-0.11234
0.100941
0.753553
-0.820624
0.496155
-0.0648427
0.368558
0.412836
-0.105691
-0.0117518
-0.398878
0.159897
0.238981
-0.547514
-0.098882
0.99884
-0.510869
-0.487972
0.478614
-0.0663922
-0.412222
0.378035
-0.642291
0.264257
-0.0845315
0.463385
0.00476013
-0.402441
0.850286
-0.447845
-0.241461
-0.157417
-0.413608
0.295117
0.0894762
0.685974
0.00323424
-0.689208
-0.291363
-0.0397604
0.189863
0.08373
-0.0192817
0.307282
0.130194
-0.22466
0.229996
-0.00654697
-0.0242373
-0.125799
0.12611
-0.353342
0.500253
0.0104161
0.201393
0.208843
-0.267892
0.672942
-0.0512281
0.576893
-0.122218
-0.0928187
-0.206953
0.437679
-0.169316
0.865105
-0.695788
-0.742272
-0.102434
-0.655866
0.993951
-0.338086
-0.115751
0.410868
0.275035
-0.0547098
-0.0177477
-0.207684
0.225432
-0.770071
0.243768
0.0885945
-0.104386
0.488495
-1.14791
0.357443
-0.947601
-0.525485
1.0756
-0.442273
0.451797
-0.242076
0.0114754
-0.576972
0.724841
0.000514817
-0.126149
0.13651
-0.482176
-0.0858108
-0.551016
0.636827
-0.255686
0.459222
1.26888
-0.830021
-0.438858
-0.1921
0.0588462
0.179936
0.0187747
-0.19871
-0.721921
0.135752
0.152378
0.0239531
-0.00557361
-0.0998188
0.105392
0.404878
-1.06074
0.0784217
0.399
0.0273094
-0.42631
-0.958743
0.789427
0.116711
0.0315646
-0.148276
0.321547
-0.879432
-0.114824
-0.00196298
0.116787
0.149436
-0.0327247
-0.00439354
0.646101
-0.492227
0.535263
0.439595
-0.237314
-0.81016
0.234572
-0.604557
0.483466
0.121091
0.589928
-1.08769
-0.445446
-0.268508
0.713954
0.0531253
0.348105
-0.259205
0.219952
1.05417
-0.152554
-0.901611
-0.0112771
-0.819098
0.594816
0.0539015
0.367205
0.398849
-0.129468
-0.00343268
0.114014
-0.240551
-0.301061
0.0390763
-0.0356586
-0.00341773
0.0183864
-0.646493
0.628107
-0.0579699
0.259036
-0.201066
0.384533
-0.933699
0.549166
-0.0986227
-0.476321
-0.029199
0.0137071
0.605984
-0.300343
-0.167887
0.468231
-0.321022
-0.35362
0.386433
-0.226688
0.337218
0.0509694
-0.388187
-0.485416
0.0762058
-0.630897
-0.114646
-0.0216407
0.136287
0.122873
0.24461
-0.367483
0.355378
-0.776724
0.421346
0.0166789
-0.482459
0.150833
-1.11151
-0.342771
-0.8066
1.14937
-0.846856
0.036704
0.810152
-1.144
-0.70296
0.0183358
-0.238863
0.242668
-0.00380484
-1.20775
-0.304977
0.976504
0.328689
-0.166204
0.0780287
-0.284982
-0.140732
0.40937
0.122261
0.0737016
-0.329444
0.0125099
-0.0989798
0.0864699
-0.195423
0.0689355
-0.0654398
0.0768393
-0.239489
0.444775
-0.886996
0.539341
0.347654
-0.266974
0.136046
0.510848
0.165959
-0.00140331
-0.152065
-0.165817
-0.427409
-0.229232
-0.473327
0.165822
0.307505
-0.0135475
0.342434
-0.328886
-0.355165
0.429171
-0.0664162
0.636643
1.07919
-0.846181
0.477485
-0.798506
0.374178
-0.511739
0.13756
0.081767
-0.000471968
0.0356109
-0.00215086
-0.932103
0.542139
0.0968088
0.381805
0.0125849
-0.160766
0.148181
-1.4681
0.589751
0.12308
-0.331656
-0.160418
-0.0159918
-0.183904
0.199895
-0.486347
0.186004
-0.968584
0.852769
1.09626
-0.590833
-0.156022
0.141324
0.0146982
-0.103577
0.068491
-0.120398
-0.86916
0.233399
0.635761
-0.112267
0.0947195
-0.0501518
0.251776
-0.201625
0.310007
0.186147
0.142049
-0.134253
-0.00779595
-0.22362
0.234036
0.0730089
-9.82236e-05
0.486758
-0.799818
0.93776
0.0442514
-0.533983
-0.125808
0.85064
-0.0323896
-0.818251