/*--------------------------------*- C++ -*----------------------------------*\
| =========                 |                                                 |
| \\      /  F ield         | OpenFOAM: The Open Source CFD Toolbox           |
|  \\    /   O peration     | Version:  2306                                  |
|   \\  /    A nd           | Website:  www.openfoam.com                      |
|    \\/     M anipulation  |                                                 |
\*---------------------------------------------------------------------------*/
FoamFile
{
    version     2.0;
    format      ascii;
    arch        "LSB;label=32;scalar=64";
    class       volVectorField;
    location    "7.6";
    object      U;
}
// * * * * * * * * * * * * * * * * * * * * * * * * * * * * * * * * * * * * * //

dimensions      [0 1 -1 0 0 0 0];

internalField   nonuniform List<vector> 
13486
(
(1.41084 -0.207412 5.83723e-19)
(1.65459 0.29325 2.92207e-19)
(2.68243 0.0381002 0)
(-1.78576 0.776455 -1.21794e-18)
(2.31968 -0.454341 1.04128e-19)
(2.48789 0.171615 5.01038e-21)
(2.47595 -0.275589 -3.96785e-21)
(1.9548 -0.6937 -2.48705e-19)
(1.92077 -0.37151 0)
(1.98203 0.775579 0)
(-0.877192 2.53946 -1.02292e-18)
(2.5138 -0.0758161 0)
(1.25244 -0.406328 -5.73273e-19)
(2.44406 0.793338 -2.23992e-21)
(2.37727 -0.271465 6.46659e-20)
(1.93919 0.765714 -2.02832e-19)
(0.806326 -0.200002 7.39143e-19)
(0.693251 -0.598521 1.72308e-19)
(2.19253 -0.0152879 2.76416e-21)
(1.59596 -0.0415865 -5.98098e-19)
(-1.71786 0.188897 -4.57768e-19)
(1.27307 -0.42234 7.39479e-19)
(1.67657 0.288655 -2.33577e-19)
(3.80424 -0.758402 0)
(2.03758 0.623661 6.90658e-20)
(3.69112 -0.722609 -3.40878e-19)
(0.40651 -0.203989 8.57968e-19)
(2.95035 -0.205081 5.94388e-19)
(2.03139 0.0968545 0)
(2.76874 -0.471672 -4.47433e-19)
(-1.26818 -0.610011 -2.69161e-19)
(2.40868 -0.213619 -1.19985e-19)
(3.30652 -0.0696875 4.74407e-19)
(2.22695 -0.126645 0)
(1.96247 -0.665851 0)
(1.73023 0.00922496 8.59175e-22)
(1.64551 0.159149 -4.17923e-20)
(1.43521 -0.673443 2.75901e-19)
(1.76842 -0.171346 -1.62834e-20)
(1.95186 -0.227771 2.79095e-19)
(2.46619 -0.753339 0)
(0.8343 -0.412965 -6.67908e-19)
(1.98873 -0.00452014 0)
(2.05475 0.522086 -3.26943e-19)
(2.0739 0.5213 1.34731e-19)
(2.51322 -0.0759699 8.95796e-20)
(-0.949032 -0.0273802 1.40229e-18)
(2.01565 0.0960251 -2.61556e-22)
(1.66444 0.159015 3.1617e-20)
(2.83787 0.00747235 2.11639e-19)
(1.9998 0.0281452 3.6212e-19)
(1.82742 -0.0418636 0)
(2.53895 -0.166167 -1.38633e-19)
(1.59573 -0.587443 -4.06266e-19)
(0.726878 -0.813077 0)
(2.28626 -0.463273 -7.94165e-20)
(2.32958 0.583336 2.15332e-20)
(1.81888 -0.0865372 -7.22349e-20)
(3.29309 -0.041258 5.69348e-19)
(1.40366 0.234273 0)
(-0.944297 2.53098 -1.39223e-18)
(1.41073 0.261766 0)
(3.7275 0.552735 -4.08286e-19)
(-1.63816 0.188674 -4.77044e-21)
(2.21904 -2.58259 0)
(1.61877 0.188361 -2.20623e-20)
(-2.04625 0.862201 -1.28358e-18)
(1.40321 0.0590512 2.02382e-19)
(1.91933 -0.393876 -1.55149e-19)
(1.62998 0.011018 1.63409e-20)
(-1.89539 0.833911 1.46997e-18)
(0.746639 -0.749611 7.20757e-21)
(1.97539 -0.109084 2.11923e-19)
(-0.788248 0.106158 -4.79471e-19)
(1.60115 0.289009 -5.87639e-21)
(2.36614 0.545254 -4.03047e-21)
(1.62396 0.285875 1.4537e-20)
(2.38265 -0.283691 -2.52102e-20)
(-0.802772 0.328806 -7.26398e-19)
(1.83695 -0.568152 0)
(1.98229 0.0213278 9.3444e-22)
(1.59742 0.393824 -1.86554e-20)
(3.59194 0.487555 -1.53227e-20)
(2.77355 0.0365026 -2.96977e-21)
(1.40151 -0.218353 -1.14208e-18)
(1.30444 1.66644 0)
(1.60237 -0.30896 -3.57789e-21)
(2.00166 0.043411 -5.50537e-19)
(1.86424 0.220642 -2.38966e-19)
(1.82187 1.03386 -2.32946e-19)
(2.4552 -0.234888 -8.3442e-20)
(2.09324 -0.579402 -1.22279e-19)
(1.46634 -0.304973 1.48673e-19)
(1.64151 0.0915516 1.58362e-20)
(1.80916 -0.557497 6.24283e-20)
(1.99951 0.0836049 9.64991e-23)
(0.395769 -0.186167 0)
(-2.36828 0.894173 8.31065e-19)
(1.96645 -0.224456 -5.32941e-19)
(0.988468 -0.14824 3.12779e-21)
(1.89806 0.019202 0)
(2.41263 0.788985 -4.35459e-21)
(-2.43696 0.783927 5.22327e-20)
(1.81409 -0.0726369 8.46162e-20)
(1.27258 1.61645 0)
(0.983685 -0.0621387 5.67093e-21)
(1.97449 0.0652656 3.36765e-22)
(1.77881 -0.197217 -3.62031e-20)
(-0.84014 0.292296 9.64571e-19)
(1.76408 -0.793321 0)
(1.2375 -0.594357 0)
(2.40284 -0.226502 -1.01194e-19)
(1.60683 -0.570787 3.59781e-21)
(2.30353 0.295462 5.85502e-24)
(1.03467 -0.0425724 0)
(1.18346 -0.5853 -2.26559e-19)
(2.03257 0.641063 0)
(2.33831 -0.102621 0)
(1.9659 -0.110928 0)
(1.73366 0.145224 -1.60461e-20)
(0.774749 -0.561497 -7.6187e-20)
(-1.1929 2.55993 0)
(1.7829 -0.503621 0)
(1.77454 -0.176067 5.24668e-20)
(1.84952 -0.643867 0)
(1.81533 -0.0397187 0)
(2.18652 -0.242251 5.62503e-21)
(2.20572 0.0781488 1.3076e-19)
(1.90705 -0.0595572 -6.32887e-20)
(2.42195 -2.4476 -4.72529e-19)
(1.80485 -0.0289569 -8.83428e-21)
(-1.13861 -0.138619 -3.52919e-19)
(0.450948 0.497116 8.9415e-19)
(-0.219375 0.153827 6.22879e-19)
(1.99946 0.014463 -5.88864e-20)
(1.89332 0.429673 -2.81675e-19)
(0.613508 0.739761 -1.71171e-19)
(1.78562 -0.786266 0)
(1.7463 0.139785 4.42844e-21)
(1.98824 -0.551917 -9.2596e-20)
(3.11596 0.0533193 -4.82689e-19)
(2.53413 -0.179322 1.17078e-19)
(2.44219 -0.177582 0)
(1.86561 -0.541538 0)
(2.09638 0.00310218 4.45878e-22)
(3.94767 0.430047 -8.50974e-19)
(2.11905 -0.171881 -1.14867e-20)
(0.259112 1.67728 0)
(2.84862 0.0269631 0)
(2.03695 0.0909117 0)
(2.01084 0.0210104 5.84405e-21)
(2.40474 -0.343656 0)
(1.97168 0.0135006 -9.80877e-22)
(1.57344 0.392706 -1.59054e-19)
(2.19738 0.333493 0)
(2.85982 0.0546588 0)
(1.59388 -0.717997 0)
(-0.534166 0.294172 1.34752e-19)
(1.6982 -0.675638 5.59025e-19)
(2.05443 -0.799552 -2.27488e-19)
(2.71722 0.0182094 1.11848e-19)
(1.70619 -0.654574 -8.4737e-19)
(2.352 -0.260338 7.09582e-20)
(0.741389 -0.352372 2.9269e-19)
(1.83533 -0.0528892 0)
(2.55291 0.784158 -4.21013e-20)
(2.36432 0.72192 7.04958e-20)
(0.406672 -0.111077 -7.24587e-19)
(2.09014 -0.170668 2.71325e-20)
(-0.232318 0.168849 1.68076e-19)
(0.298855 0.447603 1.46401e-20)
(2.19193 0.306304 1.09941e-19)
(1.99786 0.0865958 -4.59382e-19)
(2.31111 -0.168881 8.32072e-21)
(1.96967 0.0451276 -8.69414e-23)
(-2.20033 0.681289 0)
(2.41346 1.11523 1.91508e-20)
(3.22078 0.124516 6.40529e-19)
(1.98235 0.0608 -5.72873e-19)
(2.44519 -0.165028 0)
(1.99792 -0.276409 5.4821e-19)
(2.29906 0.269001 3.16836e-22)
(2.36869 -0.162528 -2.98894e-21)
(-1.10814 0.78566 0)
(2.67316 -0.0392874 1.54598e-20)
(2.73764 -0.190589 -2.67695e-19)
(2.09153 0.0876194 -3.42841e-22)
(2.71071 -0.335516 -1.2934e-19)
(2.49288 -0.732265 0)
(1.06065 -0.511786 -2.96531e-19)
(1.7005 0.168736 0)
(2.48575 0.056811 0)
(1.86304 -0.133384 0)
(1.2665 0.855077 -3.33935e-19)
(1.90994 -0.167193 0)
(-1.14024 2.5223 -2.90448e-19)
(2.30525 -2.71705 1.02922e-18)
(2.61623 -0.00287205 6.56167e-20)
(1.05861 -0.522559 -1.22549e-19)
(2.53268 0.745447 -8.88123e-21)
(-1.30497 -0.668649 2.74432e-19)
(2.21753 0.0984755 -3.95801e-21)
(1.31861 -0.636519 -3.18838e-19)
(1.69998 -0.727725 6.61322e-21)
(2.08844 -0.840767 2.77886e-19)
(1.93313 -0.155879 -6.4856e-20)
(0.296733 -0.735593 4.73096e-20)
(1.89717 -0.042486 4.45838e-19)
(1.84889 -0.138613 0)
(2.68815 -0.0217463 0)
(2.95549 -0.231995 4.34742e-19)
(3.50431 -1.25285 6.88687e-19)
(1.61489 -0.0267493 5.47402e-19)
(1.96805 0.0644596 4.47042e-22)
(2.4849 0.214969 -5.77138e-21)
(2.1894 -0.791479 5.05501e-20)
(2.80973 -0.409602 0)
(1.81916 1.01808 5.74482e-19)
(1.54998 -0.332897 0)
(3.1646 0.842203 0)
(0.985042 -0.178308 -1.41633e-18)
(2.88095 0.0630542 0)
(1.97035 -0.547527 2.13591e-19)
(2.68881 0.0337992 0)
(2.59616 -0.182198 -2.30747e-20)
(1.2139 -0.570687 2.03107e-19)
(2.61244 0.378875 -3.94344e-21)
(-1.52923 -1.15542 3.19576e-19)
(2.12144 -0.512548 7.97352e-21)
(1.64187 -0.309826 -3.18e-21)
(2.0105 -0.26891 -1.76429e-19)
(1.58629 -0.147666 3.31858e-19)
(3.15377 0.0326647 6.04344e-19)
(0.855796 -0.413984 2.29227e-19)
(-2.22762 0.251899 0)
(1.02923 -0.500946 2.37455e-20)
(2.57269 -0.264863 2.2114e-19)
(2.4949 0.0403711 1.54642e-21)
(0.898934 -0.434442 6.44753e-19)
(2.37224 -0.10322 0)
(3.36767 -0.0792781 0)
(2.00355 0.0628848 7.01668e-19)
(2.3722 0.18153 0)
(0.907307 -0.450309 2.12384e-19)
(1.71605 -0.223486 -3.16441e-20)
(1.80477 0.0820143 0)
(2.24116 -0.0144549 -3.88863e-20)
(3.19199 -0.669104 9.41964e-19)
(-0.217116 -0.101548 1.0287e-18)
(2.01932 0.497465 0)
(-2.72506 1.42038 -4.416e-19)
(0.998575 -0.0130669 8.60745e-20)
(1.00069 -0.491193 2.83124e-19)
(1.78626 -0.200821 0)
(2.00029 -0.48236 4.52977e-20)
(-1.91615 0.898397 3.83815e-19)
(2.4094 -0.215686 1.03953e-19)
(2.15237 -0.814491 -6.39961e-20)
(-0.318259 0.316889 -1.40261e-19)
(3.35262 -0.0980596 4.17551e-19)
(1.77178 0.236585 0)
(1.7038 -0.216721 -7.35226e-22)
(2.37267 -0.276783 -1.54966e-19)
(-2.24799 0.964013 -4.75024e-19)
(2.22047 -0.687325 -1.10153e-19)
(-1.17095 0.927967 0)
(2.14549 -0.494169 -1.1663e-19)
(-1.65209 -0.397567 -4.58003e-19)
(2.1368 -0.00612266 -2.45522e-19)
(1.17575 -0.442312 0)
(1.51601 0.933974 2.43492e-19)
(1.97433 0.067762 -1.5686e-19)
(2.83701 -0.429769 0)
(2.54652 -0.114432 7.47428e-20)
(1.1429 -0.549632 2.6863e-19)
(3.08894 -0.689658 -5.26268e-19)
(2.00805 -0.442187 0)
(1.03111 -1.53114 0)
(1.80541 -0.22834 -3.92742e-20)
(2.22039 -0.146933 2.72742e-20)
(1.04575 -1.63552 1.65036e-19)
(2.11765 -0.18378 -1.9845e-19)
(1.9423 0.0866092 3.398e-19)
(4.27682 -0.0996791 -7.76038e-19)
(-1.47707 2.48563 1.65852e-18)
(0.521215 -0.25594 1.41934e-18)
(3.08791 0.13977 4.80706e-19)
(1.84905 -0.0804127 8.29931e-20)
(2.67927 -0.183559 3.32692e-20)
(2.10921 0.00304821 0)
(-2.22345 0.401462 0)
(1.49798 -0.218687 4.24269e-20)
(1.21628 -0.58634 2.26508e-19)
(1.99771 0.0215768 -5.78629e-20)
(2.61236 -0.253241 2.0588e-19)
(2.646 -0.306624 0)
(2.11861 -0.0345596 -1.49149e-19)
(2.56308 -0.0955367 -5.76423e-20)
(1.93333 0.0722197 -3.10824e-19)
(2.55802 -0.41376 -4.37815e-20)
(1.97039 -0.222139 -8.56718e-20)
(0.396313 -0.761322 1.00887e-20)
(2.25541 -0.148778 -2.34539e-20)
(2.40081 -0.213454 1.15552e-19)
(1.70769 0.113931 7.37549e-21)
(1.40092 -0.636472 0)
(0.787301 -0.0432605 0)
(2.21215 -0.0319317 7.91367e-20)
(1.64394 -0.334133 6.09839e-21)
(1.68194 0.171115 0)
(1.81635 1.25859 -1.15786e-18)
(-1.73057 0.813659 0)
(2.31545 1.08787 2.66848e-20)
(2.40299 -0.230314 -1.13134e-19)
(1.56521 1.64293 0)
(1.88146 0.421912 -1.74384e-19)
(1.44455 -0.243716 -6.3918e-20)
(1.86134 0.208086 -2.04633e-20)
(1.89262 -0.0353688 -4.9313e-19)
(2.22131 -0.501232 0)
(1.63809 0.192632 4.02611e-20)
(1.57417 -0.158541 -1.10803e-21)
(1.99066 0.0584311 7.24527e-20)
(1.62366 0.137925 -2.97764e-19)
(0.715077 0.714006 3.16675e-19)
(2.44384 -0.228882 1.64132e-19)
(2.22116 -0.327256 -4.74978e-19)
(2.13291 -0.183016 0)
(2.6201 -0.0821731 1.20254e-21)
(2.25461 -0.328822 -7.80586e-20)
(2.00087 0.0292387 7.97914e-19)
(2.12107 -0.579613 0)
(2.43434 -0.252395 -4.22149e-20)
(1.42696 0.391 0)
(2.49425 -0.273879 5.60928e-21)
(1.88339 -0.518343 -1.66446e-19)
(0.659354 -0.308778 2.7655e-19)
(2.38937 -0.36327 -8.07037e-20)
(2.01925 0.19463 0)
(1.68982 -0.226055 -4.96907e-20)
(2.18095 -0.507546 1.27554e-19)
(1.63417 0.145207 2.81171e-19)
(2.27103 -0.331893 3.2046e-19)
(2.36085 -0.162698 1.75693e-19)
(-2.23551 1.89344 -1.11253e-18)
(2.01507 0.0887155 1.55782e-22)
(2.23434 -0.171443 0)
(0.985094 -0.341673 6.6458e-19)
(3.18178 0.813977 0)
(1.52262 -0.23075 1.1476e-21)
(2.28257 -0.0844863 3.24228e-19)
(2.59433 -0.0953583 -5.54908e-20)
(2.55422 -0.112477 5.71833e-20)
(0.341067 -0.154064 -1.01063e-18)
(1.94201 0.0707515 3.87772e-19)
(1.9067 0.0228987 0)
(-0.583566 0.302062 -4.46203e-19)
(2.19594 -0.243737 -1.10605e-19)
(1.66918 -0.3201 -6.29678e-21)
(3.27621 -1.29393 5.53342e-19)
(2.41817 -0.0185384 0)
(2.51039 -0.243392 1.1288e-19)
(1.79172 0.16463 6.05683e-19)
(1.97072 0.0758499 4.77354e-19)
(2.79907 -0.491678 0)
(1.96922 0.00603772 -3.14524e-22)
(2.67167 -0.293799 -2.07708e-19)
(-1.39695 -0.567157 2.13362e-19)
(1.57746 -0.0416207 7.60512e-20)
(2.20083 -0.211535 1.05151e-19)
(2.03466 0.00702073 -1.03191e-21)
(2.22891 -0.166128 0)
(2.5977 -0.170701 -7.66503e-20)
(-2.70908 1.58445 4.47019e-19)
(2.45406 0.433623 -7.67204e-21)
(1.99792 0.0276758 3.05e-19)
(1.38499 0.0284703 0)
(1.61109 -0.213362 -6.15337e-20)
(1.6631 1.66274 0)
(3.26655 1.31052 -2.60617e-19)
(2.14597 -0.025967 0)
(2.10901 -0.672142 -7.15128e-21)
(1.30806 -0.104914 -1.62819e-19)
(1.50365 0.864075 5.7992e-19)
(-1.31139 -0.338747 -8.0096e-19)
(2.04275 -0.439585 0)
(2.39432 0.0650748 -8.41561e-20)
(2.02608 0.203371 -1.8583e-19)
(0.990527 -0.544442 -4.14422e-19)
(-1.10322 -0.171138 3.3202e-20)
(1.64241 -0.0426283 -8.24961e-19)
(2.88751 -0.370488 2.14622e-19)
(2.09588 0.202213 1.33764e-19)
(1.4422 -0.446095 0)
(1.35197 0.323488 3.24059e-19)
(1.77335 0.16306 -1.11293e-20)
(-1.91651 0.859252 7.21339e-19)
(-2.73783 1.50322 -1.50901e-18)
(1.17104 -0.469879 -8.69478e-19)
(3.12107 0.116528 0)
(1.06472 -0.535563 0)
(1.99088 1.20047 0)
(2.11397 -0.0807664 0)
(0.928112 -0.152673 -1.63404e-19)
(2.45754 -0.252 0)
(1.49099 -0.211813 0)
(1.6629 0.108328 1.15279e-19)
(3.21606 0.142578 -6.64456e-19)
(2.20555 -0.161358 -2.61668e-19)
(1.697 0.337276 9.9868e-19)
(2.00607 0.0216042 -9.51821e-20)
(2.30163 1.72841 0)
(2.93808 -0.287775 0)
(1.92448 0.0760031 3.31938e-19)
(2.02404 0.0518807 5.91199e-20)
(1.28233 0.908125 0)
(-1.21471 0.784111 1.14844e-18)
(2.20256 -0.705715 1.23985e-19)
(-0.310006 0.110199 0)
(2.36854 -0.103324 1.78479e-19)
(1.97774 0.0607082 -3.843e-19)
(0.261698 0.100533 -7.10797e-20)
(0.979747 -0.327231 0)
(2.00998 0.209624 3.45289e-19)
(2.66427 0.218122 0)
(2.70539 -0.329794 0)
(2.22746 0.209545 -1.84684e-20)
(1.93682 0.0916853 1.78934e-19)
(0.413303 -0.214044 -1.11036e-18)
(2.32208 0.710629 3.59512e-20)
(1.3214 -0.328814 -2.83975e-19)
(2.12159 -0.0718931 3.57645e-20)
(2.09966 0.197047 1.04819e-19)
(2.70435 -0.173156 1.8922e-19)
(2.30612 -0.677123 0)
(3.22836 -0.536285 4.58659e-19)
(1.31797 -0.0434111 0)
(1.55088 -0.209418 3.55971e-20)
(2.2951 -0.176397 0)
(1.42769 0.0725917 4.2879e-19)
(-0.598907 -0.345933 -1.28107e-18)
(2.84728 -0.357759 0)
(-0.199223 0.108 2.81511e-20)
(2.95203 -0.316842 -4.65832e-19)
(1.7254 -0.284655 -2.03998e-20)
(1.76741 -0.256463 7.53189e-19)
(1.39639 0.848614 -3.65047e-19)
(1.31171 -0.317637 -8.11331e-19)
(3.41291 1.29359 0)
(1.71894 0.14048 1.64172e-20)
(-2.19196 2.00229 -2.80112e-18)
(2.01453 0.217355 0)
(1.84258 0.233515 2.22807e-20)
(2.96162 -0.0237677 -4.49031e-20)
(2.7034 1.18808 0)
(2.00353 0.018117 0)
(-2.11994 1.15285 0)
(-1.91462 0.269415 1.77873e-18)
(4.06488 -0.148518 9.36527e-19)
(3.62483 0.47958 2.34393e-20)
(2.28256 1.04215 0)
(1.70659 -0.159769 5.23921e-19)
(1.96183 0.0469374 2.0263e-22)
(2.31935 0.654355 -7.46815e-20)
(-1.70764 0.514533 8.71216e-19)
(1.90971 0.16715 0)
(2.02155 0.0942813 0)
(0.714344 -0.0997956 -4.56333e-19)
(1.41483 -0.436358 -1.96518e-19)
(1.95797 -0.173016 0)
(1.28815 -0.62188 -1.92068e-19)
(1.92582 0.0226974 5.88574e-22)
(2.00187 0.0744483 -7.71976e-23)
(0.741586 -0.34419 0)
(1.94164 -0.0499356 8.31152e-20)
(1.75847 0.141402 1.16204e-20)
(2.66193 0.194878 1.00998e-19)
(1.86797 -0.538843 0)
(0.574314 -0.204229 -2.13741e-18)
(2.57132 -0.0996741 6.28615e-20)
(2.00175 0.0907705 7.222e-20)
(1.85587 0.0359711 5.38928e-21)
(2.62367 0.77328 0)
(1.67107 0.332239 -2.6606e-19)
(3.1656 0.575279 -2.19259e-19)
(1.17921 -0.385571 1.80733e-19)
(2.00826 0.0517441 0)
(-1.16713 -0.21906 -3.40062e-20)
(0.452316 -0.0784067 0)
(2.00469 0.049497 -2.80879e-19)
(1.99146 0.0683248 1.20538e-19)
(1.88086 0.0525256 -6.47347e-20)
(-2.11445 0.573526 0)
(2.31152 0.0295763 -1.59219e-20)
(1.07382 0.473246 8.85848e-19)
(2.27231 -0.672715 0)
(1.63006 0.0955408 3.58869e-19)
(2.52743 -0.436509 5.00489e-20)
(2.21214 -0.0158814 0)
(-1.62629 -0.543605 2.45197e-19)
(1.85624 -0.517232 -7.3104e-20)
(2.04863 0.00177957 0)
(0.85049 0.0497594 1.38065e-18)
(1.8312 0.221526 0)
(1.66948 -0.759216 2.17876e-19)
(-2.7761 1.34785 9.1026e-19)
(2.0883 0.0951653 3.60826e-22)
(2.51128 0.17477 -3.14514e-20)
(1.34387 0.303769 1.71177e-19)
(1.75914 -0.283776 -2.77346e-19)
(2.04485 -0.399381 -5.02132e-20)
(1.70911 -0.766327 3.12927e-21)
(2.18368 -0.217234 1.04107e-19)
(2.60985 0.779225 9.46559e-20)
(1.84165 -0.8089 0)
(1.9969 0.0234616 -2.70476e-19)
(-0.0358498 0.184343 -4.65729e-19)
(1.34528 -0.0558393 0)
(1.79089 0.243441 -2.77386e-21)
(1.58977 0.00721349 0)
(1.20153 -0.344891 7.01816e-19)
(2.0819 -0.746032 0)
(1.77821 0.0015781 -4.10249e-21)
(2.29726 -0.0811511 -1.84815e-19)
(-1.53335 -0.799876 4.57438e-19)
(-2.36026 1.24347 1.32726e-18)
(2.31843 -0.017887 -1.60948e-21)
(1.33426 -0.628913 1.40697e-19)
(1.76803 -0.498708 2.55986e-19)
(1.46091 -0.310152 0)
(-0.0883309 0.118442 -6.18895e-19)
(2.32539 -0.605508 -2.66252e-20)
(-0.0774537 0.180942 -7.25641e-19)
(2.004 0.0858848 1.36232e-22)
(1.42468 -0.55575 0)
(2.23525 -0.0199792 -1.53509e-21)
(-1.32257 0.95072 0)
(-2.50293 0.811726 5.42586e-20)
(0.207734 0.022294 8.69609e-20)
(-0.0768926 0.263868 0)
(2.05801 -0.508175 6.68805e-20)
(2.18822 -2.67845 0)
(2.72089 1.10111 0)
(1.44547 -0.682203 -2.87655e-19)
(1.45668 0.360519 2.63628e-19)
(1.6615 -0.654054 0)
(1.79816 0.189454 -1.66853e-19)
(3.50778 0.484363 8.71242e-19)
(-2.65719 1.70704 2.04425e-18)
(2.68789 1.44899 0)
(2.18287 -0.0455019 0)
(-2.07205 2.06947 -1.21751e-18)
(1.88508 -0.103106 0)
(2.71975 0.0186704 0)
(-1.08012 2.51708 -1.60778e-20)
(2.05711 -0.366752 -3.37844e-19)
(1.73212 -0.412226 2.25552e-19)
(3.41306 -0.169673 6.11686e-20)
(-0.200292 0.219266 1.33269e-18)
(1.99204 0.0579295 1.37458e-19)
(1.49677 -0.343279 0)
(2.17701 0.500745 -5.36904e-20)
(1.3975 -0.189761 0)
(2.41879 0.0394581 0)
(1.99937 0.113647 0)
(2.21754 0.189941 -1.51067e-20)
(1.87649 -0.0328805 2.29616e-19)
(2.34007 0.120886 -1.78644e-21)
(1.53992 -0.349245 0)
(0.381001 -0.184433 -8.18239e-19)
(2.02594 1.14142 8.96477e-20)
(1.84633 -0.65663 2.26318e-20)
(2.04249 -0.111562 -1.35103e-19)
(3.05271 -0.686201 8.44644e-19)
(2.04079 0.0684914 -2.2131e-19)
(-0.596455 -0.404148 0)
(2.55549 -0.0994584 0)
(1.41484 0.865362 0)
(1.17625 -0.530433 -4.97954e-19)
(-0.192884 -2.03112 -5.16929e-19)
(0.540937 0.227562 0)
(2.2022 0.514547 0)
(2.59782 -0.207164 9.35379e-20)
(1.94539 -0.0331807 -5.64157e-20)
(1.89121 0.649853 2.94826e-19)
(1.70743 -0.720567 0)
(-0.952936 1.56519 -3.25939e-19)
(2.43318 0.0740246 3.00095e-20)
(1.38201 -0.398251 -4.71748e-19)
(2.26133 0.0691283 -8.44525e-20)
(2.31077 0.660789 1.24334e-19)
(4.02873 -1.29911 9.69523e-19)
(1.17431 -0.535012 8.70757e-19)
(2.19879 -1.30986 3.09581e-19)
(2.32913 0.262222 1.00623e-22)
(2.00002 0.0134317 -6.77308e-20)
(1.17117 -0.544345 -5.87318e-20)
(1.87099 -0.487322 3.09278e-20)
(1.58742 2.09341 -2.11211e-20)
(1.30247 -0.619827 1.01273e-19)
(2.61899 -0.0709889 0)
(1.62158 -0.251701 -1.55042e-21)
(2.21402 -0.0437223 -2.60801e-19)
(2.9364 0.844101 1.07182e-19)
(1.35073 -0.361598 -4.3214e-19)
(1.8311 -0.630873 -2.51754e-19)
(1.94418 -0.0114589 5.32188e-19)
(2.38184 -0.0572187 -3.03824e-19)
(1.34355 -0.214857 -4.71539e-20)
(3.07548 0.153543 -2.53888e-19)
(1.12251 -0.145431 -9.64536e-19)
(2.14243 -0.0268238 -2.05415e-19)
(1.10581 -0.211128 0)
(-1.62569 -0.84593 -1.33047e-18)
(1.89612 0.0356627 5.24461e-19)
(1.5681 -0.00382185 -8.2121e-22)
(-0.831375 0.0214842 0)
(1.55755 -0.707264 0)
(2.02923 0.459642 2.6078e-19)
(0.984918 -0.139713 6.00609e-19)
(1.98667 -2.19484 -1.83268e-18)
(2.13398 -0.666116 -9.82598e-20)
(2.23696 -0.338377 2.57694e-19)
(3.24705 0.788219 0)
(2.03913 0.502113 1.42545e-19)
(0.517704 -0.627963 -4.57007e-21)
(2.46908 1.11799 4.57973e-20)
(1.98054 -0.252565 -3.17415e-19)
(-0.359647 0.418791 -2.17636e-18)
(2.98172 -0.687253 -8.01826e-19)
(3.2897 -0.579073 2.49101e-19)
(2.23741 1.25325 0)
(2.36546 -0.473071 -9.68074e-20)
(1.89321 0.0483987 5.89097e-20)
(1.97065 0.0301775 1.2921e-22)
(0.771201 -0.372425 8.05852e-19)
(1.96042 -0.249812 4.75879e-19)
(1.61848 -0.753851 1.20077e-19)
(-2.70692 1.62991 -1.18425e-18)
(2.48953 -0.22356 -2.1547e-19)
(2.27441 -0.0240674 1.83145e-19)
(-1.36178 2.452 -2.02796e-19)
(2.38001 1.06287 2.24458e-20)
(0.945004 -0.0523905 -1.49572e-18)
(0.929724 -0.453987 -2.57554e-19)
(1.98456 0.0253585 0)
(2.34604 0.485173 8.71859e-21)
(-1.78566 2.17166 -9.22833e-19)
(1.30036 -0.13255 8.74657e-19)
(2.13579 0.0781863 0)
(2.0553 -0.232716 8.28442e-20)
(1.14364 -0.476205 1.98976e-19)
(1.99354 0.0418605 -5.89386e-19)
(-2.32381 1.61508 -1.16831e-18)
(1.6678 -0.635808 -1.28624e-20)
(2.214 -0.170256 1.77662e-19)
(2.34795 0.0678981 1.21371e-19)
(1.69092 -0.768773 -2.95572e-19)
(2.35669 0.178849 1.63186e-21)
(-0.0455439 -2.20682 -1.74344e-18)
(2.12349 -0.0425352 2.44675e-19)
(2.11923 -0.0622676 -1.5499e-19)
(2.16258 0.102444 -6.37687e-21)
(2.13101 -0.0352913 -3.35488e-19)
(1.07957 -0.481333 -3.84408e-19)
(2.3227 0.241269 0)
(-2.26827 0.00106234 1.2238e-18)
(2.11087 0.0734512 4.27446e-20)
(0.854255 0.0228224 -9.90932e-20)
(2.46168 0.0357374 -1.65986e-20)
(2.18609 -0.364155 -1.63635e-19)
(2.00024 0.0175498 -4.69915e-19)
(2.10361 0.337881 7.95833e-20)
(-1.37787 0.961164 -1.18553e-18)
(2.737 0.0233246 0)
(1.63056 -0.195873 3.16511e-20)
(2.60358 -0.0989183 5.67957e-20)
(1.43595 -0.542459 0)
(2.15427 0.0794788 1.48464e-19)
(2.61835 -0.0836599 6.17506e-20)
(2.71093 0.0344617 2.35585e-24)
(2.51263 -0.746411 8.57908e-20)
(1.97615 -0.148711 0)
(1.7736 0.370843 4.89038e-19)
(2.17097 0.117315 -2.74827e-19)
(1.26878 -0.611731 2.36044e-19)
(2.03109 -0.169962 0)
(1.45205 0.317131 -7.62172e-19)
(0.858524 -0.460826 -8.14887e-20)
(2.45591 1.5381 -1.9972e-19)
(1.13283 -0.17062 9.36824e-19)
(2.13653 0.00275255 4.44012e-21)
(-2.42064 1.31686 1.06664e-18)
(1.94618 -0.0893879 -3.48654e-19)
(3.21902 -0.412505 -6.24617e-19)
(1.77831 0.161038 -3.50126e-19)
(1.95628 0.00775446 0)
(2.00051 0.0319014 -2.55487e-19)
(0.254978 -0.0875032 7.66199e-19)
(-0.416458 0.352313 0)
(3.67143 -1.11136 0)
(1.96952 0.0290035 0)
(1.08388 -0.3081 0)
(2.05332 0.335663 0)
(1.05921 -0.138076 0)
(2.29052 -0.792729 -8.87901e-21)
(3.78551 0.369251 -5.31961e-19)
(2.64228 0.409653 0)
(1.75254 0.371688 7.36556e-19)
(1.21525 -0.50975 1.06865e-19)
(2.08635 0.208434 6.19122e-21)
(-1.55156 2.2976 -4.03778e-19)
(1.0724 0.0974395 -1.41946e-21)
(-1.60322 1.10924 1.02584e-18)
(1.78108 0.00129411 -1.22647e-19)
(2.85996 -0.00722924 3.09764e-20)
(2.02895 0.316832 -1.79516e-19)
(1.86622 0.198177 -4.7486e-19)
(1.96279 1.06188 -2.11813e-19)
(3.27712 1.26393 0)
(-1.44086 0.118378 1.15963e-19)
(1.22379 -0.360326 -7.68884e-19)
(2.01057 0.0268758 -7.87121e-19)
(2.33703 -0.614752 -9.71877e-20)
(1.98171 -0.0285255 5.2972e-20)
(2.69044 -0.492721 -1.3349e-19)
(2.12904 -0.286406 -3.81623e-20)
(2.07215 -0.49661 -2.3082e-19)
(2.02752 0.181354 1.93472e-19)
(1.74706 1.13662 0)
(2.02205 -0.352898 -4.55029e-20)
(1.68212 0.087399 -1.07e-19)
(2.45653 -0.235116 0)
(1.82116 -0.200051 0)
(1.75261 -0.79595 -4.25091e-21)
(-2.54293 1.27996 1.14065e-18)
(2.24657 -0.825781 -2.70223e-19)
(1.7463 -0.021598 0)
(1.91495 -0.0456899 -4.65754e-19)
(1.80032 0.231264 -9.19592e-20)
(-2.31701 -0.232585 6.59363e-19)
(2.66044 -0.041368 2.07148e-20)
(-1.84115 1.21298 0)
(-1.53066 0.186708 1.5598e-19)
(2.64875 -0.0678636 0)
(2.33849 -0.498263 1.01916e-19)
(2.4718 -0.24266 -8.57928e-20)
(1.99998 0.0286678 -1.30561e-22)
(2.37973 0.734857 -1.24846e-19)
(2.67652 1.33373 -3.14658e-20)
(1.71852 -0.47852 5.35964e-19)
(-0.650399 -0.660745 0)
(1.77855 -2.50943 -8.3079e-19)
(1.31225 -0.885282 0)
(2.70705 0.402208 -4.56882e-20)
(-2.38661 0.041269 1.18013e-18)
(3.61978 -1.05241 7.38424e-19)
(1.66105 -0.190342 -3.08803e-20)
(-1.7358 1.25597 -2.47985e-18)
(1.09241 -0.537596 -2.72584e-19)
(1.2685 -0.367931 -4.43985e-19)
(1.7614 0.162359 4.0441e-21)
(2.03438 -2.3378 6.85097e-19)
(1.12135 -0.496303 3.16261e-19)
(1.32906 -0.393767 4.84881e-19)
(-0.102496 -1.91714 6.38543e-19)
(2.6059 -2.36452 -4.65147e-19)
(1.82841 -0.559437 2.54766e-19)
(-1.29784 -0.529086 8.96589e-19)
(2.32976 0.0265597 -3.02946e-22)
(1.21314 -0.549977 -8.90599e-20)
(2.35698 0.459943 -5.03499e-20)
(2.26219 -0.487107 0)
(1.01969 -0.347987 -1.7307e-18)
(2.10777 -0.0397177 -3.13062e-19)
(1.99673 0.123518 0)
(2.67519 0.374794 0)
(1.158 -1.95575 -2.86077e-19)
(3.52856 -0.348144 -6.48002e-19)
(2.47423 0.243044 -8.63134e-22)
(2.05284 -0.357318 4.42354e-19)
(1.94427 1.02335 1.92763e-19)
(1.41321 -0.0164655 3.37973e-19)
(-2.5414 0.340574 -8.94185e-20)
(1.77533 0.664291 0)
(1.36189 -0.426941 4.62181e-19)
(-0.638205 1.99567 1.99497e-19)
(-1.96203 1.17822 1.8943e-18)
(1.69682 -0.639054 8.64336e-20)
(1.50683 -0.673749 -7.75899e-21)
(1.67419 -0.00957501 1.785e-19)
(1.74729 -0.174987 1.75247e-20)
(2.73028 -0.477783 4.67826e-19)
(-2.5193 0.226428 -8.93216e-19)
(2.45399 0.235225 3.2058e-21)
(1.95019 0.0661643 1.92772e-19)
(1.09994 -0.199638 -3.84498e-19)
(1.89059 -0.0779015 2.88284e-19)
(1.23195 -0.221336 0)
(2.4537 0.427919 2.12351e-20)
(1.98685 0.0617794 4.31957e-20)
(1.44995 -0.281083 -1.4908e-19)
(1.82099 1.89048 2.05704e-20)
(1.7978 -0.547553 1.9344e-19)
(2.08346 0.0324431 8.07931e-20)
(1.35031 0.155237 -5.83033e-19)
(2.4527 -0.253392 0)
(1.64609 -0.162837 -5.75617e-20)
(2.27578 0.0910732 1.14664e-19)
(2.19289 -0.123328 0)
(1.38117 0.0472539 3.31158e-19)
(2.6648 -0.0401759 0)
(1.7223 1.88821 1.4772e-19)
(2.32634 -0.0329158 0)
(2.02147 -0.389071 0)
(2.53514 -0.044171 4.51424e-20)
(2.44374 0.184229 1.87185e-20)
(3.05746 0.306598 -3.71551e-19)
(1.91664 0.154525 -2.17201e-19)
(1.55228 1.23655 -1.52014e-19)
(2.00071 0.0988921 -8.81805e-20)
(2.08307 0.342638 0)
(-0.252022 0.424468 -6.90902e-20)
(2.56246 0.166355 5.12042e-20)
(2.29235 -0.481873 -2.07409e-19)
(2.25934 -0.482458 0)
(2.97178 0.829901 1.65174e-19)
(2.16295 1.72114 7.81219e-21)
(2.30004 0.0130432 1.51741e-21)
(1.57384 -0.0323161 0)
(-0.76097 2.44723 1.24401e-18)
(2.04793 0.177903 0)
(2.74383 -0.41119 -2.30697e-19)
(-0.180948 -0.0449639 0)
(2.16471 0.220942 0)
(2.17505 -1.44605 0)
(2.03375 -0.741873 0)
(-1.1015 2.40881 -1.56746e-19)
(-1.82857 -0.0192675 -3.84676e-19)
(1.86469 -0.0275114 -3.44694e-19)
(-1.75669 -0.666344 -6.11283e-19)
(1.20543 -0.524799 0)
(-1.41982 -1.19432 -5.6073e-19)
(-0.351124 -0.104951 -1.01504e-18)
(1.45624 -0.682741 0)
(1.44091 -0.507359 -4.86675e-19)
(1.58943 0.323766 -6.89428e-21)
(2.34354 0.443689 1.22142e-19)
(2.47041 -0.760403 -3.16327e-20)
(1.8541 0.185094 0)
(2.21213 -0.657352 0)
(3.42337 0.491519 1.77796e-19)
(1.86821 -0.438029 8.18316e-21)
(1.69763 0.114894 -1.41605e-20)
(1.11127 -1.81862 2.43378e-20)
(1.99848 0.00823143 1.90056e-20)
(2.33145 0.472226 -2.33146e-21)
(2.02652 0.184352 2.78045e-19)
(1.58328 -0.176873 3.11169e-20)
(1.88228 -0.497664 0)
(0.400874 -0.161405 0)
(2.3614 0.152932 0)
(1.78495 0.0213168 0)
(1.72689 -0.302582 2.04299e-19)
(2.98721 0.0134164 0)
(-1.02829 2.56455 2.23175e-18)
(3.45733 -1.90481 -3.06663e-20)
(1.2947 -0.410435 -7.28981e-19)
(1.17012 -0.485326 -5.51656e-20)
(-2.10176 -0.279745 -6.78773e-19)
(-0.544963 2.49461 -9.88167e-19)
(1.85479 0.0541653 6.44481e-20)
(-2.57166 0.749558 -9.10274e-19)
(1.53796 -0.178748 5.15695e-20)
(2.5694 -0.0261831 0)
(2.33047 -0.295524 0)
(1.44573 -0.400813 0)
(2.18409 -0.380721 8.53409e-20)
(2.60622 -2.57891 0)
(1.80768 0.671474 0)
(2.00208 0.0113304 0)
(1.75622 -0.417818 2.10452e-19)
(2.08552 0.208703 -2.68098e-19)
(1.65385 0.0279003 0)
(2.38811 -0.790756 -2.61664e-19)
(1.97684 0.187839 -2.63218e-19)
(2.47859 1.02487 -9.83495e-20)
(1.4938 -0.69589 2.77397e-19)
(1.88629 0.719379 8.37166e-22)
(1.84357 -0.598157 -5.75809e-21)
(1.79235 -0.22058 3.87436e-20)
(2.05871 -0.501464 -9.41889e-20)
(2.4262 0.190646 -2.10419e-20)
(1.72251 0.120144 -2.77724e-20)
(1.8155 0.0849945 -3.36289e-19)
(2.1243 -0.0407556 0)
(0.759201 0.0691063 7.54942e-20)
(1.96865 0.0704055 3.51149e-19)
(0.669158 -0.669929 -8.08198e-20)
(2.12465 -0.273173 -1.12773e-19)
(1.01559 -0.16102 -6.54819e-19)
(2.4436 0.166571 2.72406e-21)
(3.18315 0.594173 3.14789e-19)
(1.99842 0.0844848 0)
(1.56368 -0.213469 -1.20912e-20)
(1.73452 -0.0501568 -1.64326e-20)
(2.08463 -0.509926 1.91694e-19)
(-1.70538 0.431919 -9.80254e-19)
(2.06643 0.0372109 1.74178e-19)
(2.35163 0.229862 -1.31155e-22)
(2.16475 0.0116448 -3.35847e-21)
(2.32159 0.126128 0)
(1.02551 -0.316868 0)
(1.3148 -0.62957 3.45721e-19)
(-2.22538 1.44709 1.26655e-18)
(1.9875 0.0152274 3.1657e-22)
(1.96705 0.0700244 7.00749e-19)
(1.54875 -0.216148 3.93758e-20)
(1.41938 0.302008 0)
(1.78997 0.108936 0)
(1.57787 -0.338028 -4.44777e-21)
(2.46132 -0.00486811 7.05481e-20)
(1.93637 0.700862 3.9885e-19)
(2.43802 -0.154519 0)
(2.1206 0.0104439 0)
(2.09093 -0.558839 2.9543e-19)
(2.00669 -0.155915 2.60912e-19)
(-0.195589 0.734124 -7.68929e-20)
(1.73149 -0.0608557 0)
(1.71323 0.149811 1.59963e-19)
(2.69482 -0.954551 -1.2148e-19)
(-1.94766 2.02588 -1.06851e-18)
(2.03165 -0.0195646 -3.66991e-19)
(3.87966 0.239265 0)
(3.58397 -0.287256 5.20317e-19)
(2.12617 -0.366167 -2.23056e-18)
(-0.0396228 0.510604 0)
(1.82188 0.0336639 -1.72325e-20)
(1.9152 0.119877 -2.3015e-19)
(1.78594 0.0142676 -4.00319e-24)
(2.47826 -0.245942 4.92633e-20)
(1.22275 1.04974 3.63926e-19)
(1.8563 0.0467264 0)
(1.00027 -0.364698 -4.82589e-21)
(1.51712 -0.205414 -3.82947e-20)
(1.97669 1.28173 -1.6955e-18)
(2.04255 0.318012 2.13046e-19)
(-0.497606 -0.714722 1.0007e-19)
(2.0189 0.0252635 -8.00998e-19)
(1.57777 -0.794132 -6.60665e-20)
(1.72971 -0.21796 3.47997e-20)
(1.71977 -0.380669 0)
(1.75648 0.0157026 -8.27164e-20)
(1.0473 -0.48382 2.52638e-19)
(2.26673 -0.0860583 -3.60558e-19)
(1.99105 0.0614187 -3.16562e-19)
(2.72169 -0.401469 2.08698e-19)
(1.656 -0.150268 7.73289e-19)
(2.25954 0.017542 1.16195e-21)
(1.77755 0.112071 1.9739e-19)
(1.77309 0.248074 -1.18501e-20)
(3.41862 -0.147777 -6.82108e-19)
(2.40269 1.14042 -5.29809e-20)
(2.13206 -2.17233 1.42362e-18)
(1.87998 -0.021491 0)
(1.53613 -0.362568 0)
(1.49969 -0.0899927 0)
(1.29375 -0.374579 5.6618e-19)
(2.1516 0.0716787 -5.15796e-19)
(1.78285 0.249286 0)
(1.4925 -0.298495 -4.39588e-19)
(1.77607 0.216468 0)
(1.73741 -0.274821 -3.35515e-19)
(2.26769 -0.506839 -2.19662e-19)
(1.8571 -0.468302 -2.82431e-19)
(1.93727 0.0469343 0)
(1.95593 0.0582651 0)
(2.21609 -0.133589 1.19856e-19)
(2.61104 0.340626 3.93434e-21)
(2.89561 -0.0954287 2.37717e-19)
(2.34101 1.80926 -5.16796e-21)
(2.43728 -0.204312 0)
(1.70754 -0.621421 -1.44721e-19)
(-0.305605 0.418194 0)