/*--------------------------------*- C++ -*----------------------------------*\
| =========                 |                                                 |
| \\      /  F ield         | OpenFOAM: The Open Source CFD Toolbox           |
|  \\    /   O peration     | Version:  2306                                  |
|   \\  /    A nd           | Website:  www.openfoam.com                      |
|    \\/     M anipulation  |                                                 |
\*---------------------------------------------------------------------------*/
FoamFile
{
    version     2.0;
    format      ascii;
    arch        "LSB;label=32;scalar=64";
    class       volScalarField;
    location    "3.9";
    object      p;
}
// * * * * * * * * * * * * * * * * * * * * * * * * * * * * * * * * * * * * * //

dimensions      [0 2 -2 0 0 0 0];

internalField   nonuniform List<scalar> 
13486
(
2.41782
1.92599
0.163501
-0.187106
0.802899
-0.202568
0.386838
1.36304
1.64532
0.82424
-7.33697
0.407513
2.54349
-0.324663
0.642
0.922792
-7.03603
0.011645
0.566388
2.17974
-0.164922
2.51374
1.8869
-1.17814
0.78801
-1.09987
-6.38098
-0.709118
0.00463436
-0.566553
-0.128391
0.469736
-1.42917
-0.415241
1.3667
0.0140251
0.0428112
1.9737
-0.0151216
1.64549
0.230037
2.63826
0.0424684
0.790018
0.750994
0.387322
-8.67347
0.00775521
0.0422056
-0.779445
1.39916
-0.0434505
0.260016
2.00669
-0.039198
0.865562
0.0785519
-0.0457687
-1.36908
0.0604876
-5.08023
0.0590206
-3.74457
-0.153673
-0.51831
0.048212
-0.19578
2.41857
1.63492
0.0173898
-0.195574
-0.0286723
1.6536
-5.49553
0.0536233
0.0839264
0.050462
0.627838
-10.5077
-0.134443
0.00830959
1.94631
-4.15727
0.178043
2.42765
0.807945
-0.208502
1.32154
1.59042
0.900575
0.32451
1.18873
2.31897
2.07076
1.70543
0.00598119
-6.10197
-0.192433
1.61966
-7.56043
0.0315565
-0.22973
-0.199333
-0.0423495
1.01329
-7.87849
1.61371
-0.0211912
-10.0648
1.07208
1.57347
0.395418
2.00549
0.0652831
2.83889
1.64709
0.788725
-0.389395
1.66954
0.0395207
0.0027924
-5.10024
1.78264
-0.0201131
1.57171
-0.0374204
1.17448
0.374509
-0.33026
-0.457746
-0.033183
-8.23289
-4.73303
-4.97287
1.47252
1.28584
2.83172
1.11527
0.0368932
1.40661
-1.19102
0.249839
0.458847
-0.132753
0.0706297
-3.39854
-0.0247954
1.69253
-0.841195
0.00381375
0.92095
0.59958
0.00832584
1.98629
0.439045
0.154986
0.886847
0.0887549
1.79042
0.105398
-0.596393
1.79132
0.216411
2.63059
-0.0459265
-0.593603
-0.0696844
3.26844
-0.000483094
-4.97674
-4.5194
0.453629
1.10809
0.88368
0.00792198
-0.521748
-0.57495
-1.44374
1.61838
0.471397
1.54504
0.0644769
0.711635
-1.03745
0.186346
-0.714895
0.00150642
-0.53379
0.299099
1.73101
0.0402653
0.116303
-0.0648336
2.05575
-0.0904925
-7.40634
-0.46709
-0.61747
2.17399
-0.500043
-0.139071
0.352382
1.9779
0.64931
0.102087
-0.0963551
0.0141371
1.77247
-0.0554471
0.194174
-0.613641
-0.771713
2.15077
1.61181
-0.204315
-0.279797
-0.599305
0.931759
2.19726
-2.1787
-7.20373
-0.87202
1.44282
-0.627926
0.0686319
2.35514
-0.504543
-0.270202
-0.220195
-0.120359
1.52664
-0.17347
-1.24264
2.69084
-0.205317
2.26374
-0.45434
0.124024
2.28675
0.742409
-1.39301
1.08641
0.0691885
2.15598
0.00886987
1.84463
0.773731
-0.80258
-5.47579
0.898585
-0.271717
2.87117
1.59195
-0.0282003
-0.160896
-0.669266
0.452062
-0.271804
0.115133
-1.30262
1.76176
0.0146051
0.629962
-0.607776
0.893855
-1.10786
-0.22337
-0.150437
1.54993
-0.146195
1.58412
1.57515
-0.623721
0.285958
2.35893
-0.762411
-0.161326
-0.179578
-0.0382215
-0.0613518
-0.197706
1.35869
1.62954
-2.04242
-4.25776
-8.4494
-1.21379
-0.352744
0.0697749
1.55868
-0.197501
0.061353
1.70443
1.48577
-0.43145
-0.493128
-0.589676
0.271788
1.66701
0.323199
0.199432
0.00689011
-0.0134063
0.500928
0.037015
0.678013
-0.194912
0.8079
-0.0951634
0.0437578
-4.76057
-0.184091
-0.292937
0.393238
-4.74432
1.31407
0.0648187
1.59164
1.77969
-0.25988
0.0460467
0.0465319
1.60306
2.08279
2.79608
0.351753
1.04422
1.3307
0.192308
0.968422
1.33278
1.13707
0.285999
2.21891
0.373916
1.61109
2.9385
0.637392
0.983767
0.0204424
-0.240185
2.06104
0.93393
0.730731
-1.07049
0.00598794
1.10126
2.83573
-2.18665
0.059675
1.06345
0.207001
0.272521
-5.3754
1.65276
0.0189392
-5.50423
1.14927
-0.0609049
-0.753845
0.584102
0.281921
1.7938
1.57838
-0.591363
0.00377181
-0.467771
-6.5664
2.20153
1.16161
0.0317636
1.12051
0.0304091
-0.330193
-0.174651
1.43154
1.63877
0.0440475
-4.37173
-3.42222
1.52621
1.10404
2.54978
1.68283
-7.12881
-0.172887
0.107114
0.955045
-5.93337
-0.0719627
2.11551
-0.686018
0.677163
2.30632
2.36969
0.037739
-0.19308
-0.298861
-6.1165
-1.24464
-6.00111
0.3494
1.44887
-0.243761
0.423551
-1.68449
2.03955
-1.37278
1.17851
1.81462
0.938453
-1.27995
-0.768878
1.66934
1.62123
1.97905
-0.800469
0.918485
-4.40788
0.767408
1.61752
0.241489
2.84596
1.02563
-0.566946
-0.507199
0.339637
1.62565
-6.7248
0.0375226
2.49476
1.45376
0.658963
0.036375
0.742501
-0.915806
2.53675
0.0550999
0.927095
2.37858
-6.91009
-0.639271
-4.98737
-0.773129
0.0324301
1.92498
1.86466
2.5096
-3.46956
0.0371154
-1.21233
1.0022
1.62068
-0.758683
-1.43835
1.59794
-0.223476
-0.545983
-2.0439
-3.1366
-0.162795
2.03558
0.00741088
0.0713298
-0.177137
1.5322
0.00801586
3.10511
2.34425
1.65546
1.31058
0.0184661
0.00346093
2.92128
-0.178631
0.0352087
-0.551969
1.62575
-8.68592
0.249727
1.13193
0.0257353
-0.742243
1.86512
-1.87539
-6.32037
1.04784
-0.083865
3.25665
1.06801
1.41526
1.75714
-0.545869
0.206722
2.61997
0.805858
2.0965
0.376891
0.445146
-0.165921
-0.124551
0.0442281
-8.73088
1.65508
1.61123
-0.286819
0.0021223
-0.249951
2.39414
1.93076
-0.171365
1.64174
1.20033
-0.716002
0.897609
1.43992
-4.44116
2.50789
0.0453468
0.0194844
2.62163
1.11619
0.00237227
1.08299
-0.193312
-0.198705
0.66127
1.02466
1.80861
2.32459
-2.53043
0.735708
-2.7228
0.0044741
2.25914
0.44409
-0.859249
-0.206074
0.223339
0.115279
1.31719
-0.483456
-1.36307
1.64647
2.19538
-0.152008
1.75637
-3.63501
-0.424037
-1.88172
0.665948
-1.67815
1.78731
0.19992
-4.39031
1.38958
1.91096
-1.2836
-2.23091
1.42081
2.26536
0.489063
2.43797
0.200785
1.07551
0.364358
1.7996
0.0587288
2.20429
-5.70742
0.327136
1.56622
-0.300523
-0.7196
1.59783
-6.51476
0.285394
1.83006
2.50686
-0.260698
0.115694
0.428076
0.160003
1.45469
1.13252
0.544042
-5.50528
0.0399259
2.39986
0.259862
0.100174
-1.02974
2.52298
-0.342546
0.0685114
1.56261
1.29128
-0.122381
-0.500992
1.38536
0.181206
-0.442528
0.631934
-1.59951
2.44981
1.61079
1.14516
1.18133
-0.503496
-1.23679
2.74986
0.484773
2.75665
-0.247937
1.56226
0.0109268
-5.54417
0.984083
0.893979
2.88243
-0.64615
1.05973
1.00741
-2.33635
0.853684
0.0233995
-0.720243
1.58925
-2.0979
-0.692333
-0.92834
-0.331348
-0.326904
1.74464
0.00650424
2.67184
1.62553
0.0938221
-0.37216
-0.602243
0.520941
-4.73667
-0.429624
-8.30211
2.24588
0.00192612
0.0796919
-1.5722
2.55767
0.00391247
0.194245
2.61629
1.41796
-0.559322
-0.143801
1.15315
0.144058
1.55314
0.0666486
-0.315111
0.611255
1.48121
0.472887
1.33141
2.65405
0.0685002
-0.363173
1.59714
0.267117
-0.243336
1.11567
1.19101
0.69242
-0.694702
0.197926
0.037739
0.185916
2.25568
0.493006
0.17475
0.181803
0.141765
-0.113824
1.62141
0.0958794
1.5191
1.54121
2.2267
0.0120699
-1.35746
2.73566
0.0306995
-0.211403
1.70197
-0.957095
1.82023
0.06435
1.56243
-0.240564
-5.33646
-0.936868
0.00598532
-6.58685
0.847311
2.81348
-0.315006
-2.75981
-0.577453
1.6611
-0.163928
0.708028
-2.25018
2.78169
-0.624138
0.865053
-0.809537
0.923823
1.607
0.563991
-3.19733
-0.132764
2.59191
1.64039
0.702113
1.45963
0.115601
1.27809
1.29569
0.939833
-4.79068
-0.157009
2.02057
0.393239
-0.0473445
1.35067
-0.20012
-0.303598
-0.00861992
1.75033
1.71217
-0.290945
0.197133
-0.475841
-0.146532
0.1915
-0.31592
0.289786
1.55806
-0.12605
-1.61471
1.89274
-0.0209703
-0.368668
-0.162795
-0.713876
-0.276724
-0.848837
0.0273461
-0.860446
1.54236
2.54072
0.0372404
-0.372192
2.62302
2.4636
-0.243752
-0.494671
1.67472
-6.29345
0.0708107
-0.152661
0.0470396
0.906225
-6.38886
0.748794
1.08349
-0.633819
-0.228937
-1.31546
-0.185185
1.40128
0.665753
1.05512
-0.307709
1.36609
2.41306
-12.3803
-0.765335
1.81602
0.578268
1.06933
-0.00768897
-0.548375
-0.31058
-0.142388
1.64999
2.76346
1.77948
-0.546206
-0.168648
1.60737
2.3493
-0.487835
1.7325
1.59781
2.44848
0.419886
0.0289393
0.238644
-0.251183
2.44027
0.196352
-0.222907
1.12019
-0.160218
0.398204
-0.112823
-1.40591
1.52893
1.14678
1.11618
0.755739
-8.31572
-0.347847
-0.291469
0.913165
-1.69225
-0.933059
0.0684814
-1.2723
-4.2778
0.842524
-0.55794
-5.42734
-5.43037
-0.34449
1.20216
-8.1622
-0.513069
1.81579
-0.2027
2.51641
-0.277635
-5.53042
1.91495
2.27384
0.0574041
0.0827734
0.383389
1.65547
0.922971
-2.60651
-0.108122
0.0362005
-0.221275
1.5703
0.0761659
0.944675
0.0447518
1.62926
-7.09236
0.0665219
0.0176626
1.96957
-0.98269
-6.52166
-0.979154
2.49465
-0.136439
-0.387009
-8.62524
1.60318
-0.355557
0.0512876
0.387924
0.777145
-0.508266
1.11861
-0.515939
1.30172
1.588
1.87574
0.722876
0.0170835
-0.351267
1.21472
-0.6299
1.9438
1.08226
-0.143462
-0.0290504
-0.18891
-0.0791381
0.0356102
1.82635
0.656194
0.261479
1.60219
-0.00456656
1.29662
2.85172
-0.112147
-1.9539
1.10111
-0.953633
-0.00340082
-0.205013
-0.175916
1.60237
0.0678941
0.0310723
0.0556744
0.020928
2.07119
-0.482963
0.0058057
1.60796
-1.16493
2.28779
1.85007
2.15843
0.417969
0.990755
0.498472
0.130329
1.2117
1.59075
-0.175542
-0.307905
-5.90151
-0.491392
-1.36832
1.61276
-2.63772
-1.40335
-1.23604
-0.170366
0.0239377
1.61648
0.0243903
0.309315
-5.01482
1.6334
2.81241
-1.362
-3.67338
0.89346
-0.00957373
1.56706
0.0971586
0.00223903
1.94754
-0.0542638
2.66218
1.12015
1.59538
-0.543075
2.09985
0.076448
1.85965
0.0463644
-1.32704
-0.573524
-0.710506
1.09709
-0.532566
-0.1162
2.51087
1.62359
1.73521
2.28801
1.77046
1.96444
-0.28401
1.68847
1.64055
1.65693
-0.262657
-0.494095
-0.795003
-1.59886
0.415518
1.81483
-5.4276
2.41387
-1.60962
0.0711
2.74099
2.31019
-0.304617
-0.819305
1.63301
0.821906
0.0928151
1.52188
-5.34006
-0.646842
1.5949
2.23552
0.00211462
1.78561
2.07865
0.00735373
-0.584449
2.08728
0.723494
0.0406166
-4.21657
0.174448
-1.34222
1.50306
1.09254
0.0533095
-0.0778483
-0.625448
0.423951
-0.00912879
0.394439
2.35719
-0.0272847
3.04784
1.62223
0.54454
1.81891
-0.574941
-5.07843
-0.324954
1.59853
-0.00641756
-4.67842
-0.133962
0.791595
0.932553
0.0261828
1.15298
-5.12295
0.842999
-0.188412
0.0474437
1.30476
0.505935
2.09747
1.6417
1.68603
1.55963
-0.308909
-1.15203
-0.986433
0.190397
-0.28844
-0.312257
1.28013
-0.188272
0.0119711
0.0568974
0.187403
-2.23845
1.15019
0.744718
0.122554
-0.651659
0.787609
-0.851945
-0.967834
0.205996
-0.580318
1.78261
1.19324
2.07397
-5.0151
1.45706
0.0634587
2.25706
-0.265854
0.842961
-0.0258369
-0.215088
2.61834
2.6955
1.35284
0.888667
1.091
1.48455
2.64646
1.11042
-1.2758
-1.90562
0.320948
-1.5791
-8.18303
1.61958
1.5676
-0.664244
0.43936
1.35373
1.47615
2.8786
-3.01431
1.26122
-6.13626
-0.368656
2.31182
-0.183873
1.34966
-0.204248
0.489968
0.637524
3.00003
0.0111995
-0.794776
0.808475
0.233365
-1.45054
-5.30469
0.0217719
1.78585
0.0988194
0.895729
2.4617
2.2648
-0.105874
-2.9988
0.0457861
0.267351
1.89379
1.54412
2.24417
0.990746
-8.29534
2.3527
1.47043
-2.34094
1.2455
1.64386
2.03306
-3.38843
-0.157684
0.00110008
1.37013
2.57883
0.869643
0.190462
-1.32426
2.89172
-11.6285
-1.18631
2.69025
1.41604
-1.46853
1.29454
-0.190986
0.901271
-0.412506
-11.2957
0.0252471
-0.372788
0.0842321
-0.338913
-6.41832
-6.64035
-5.53843
0.215274
-5.99709
-0.2799
1.25255
1.48571
0.854296
-5.64096
0.430022
0.232802
-0.312675
3.0327
1.07112
-0.890758
1.41418
-0.420325
-0.413295
1.32824
1.31605
1.56967
3.0679
0.00798787
-0.181869
-1.17445
0.188135
1.10479
1.57944
-0.625997
2.37752
1.10173
1.70562
-0.173162
-0.110542
0.088324
1.67409
1.61311
1.72882
1.60584
2.81788
2.76172
-0.438492
1.42134
2.05695
-0.860012
2.23674
-0.00817188
2.72942
2.21564
0.0747029
1.82709
0.783238
1.23523
0.110883
1.62894
-1.12479
1.41493
0.605742
1.09235
-0.192586
1.5645
-0.00505977
0.404551
2.63675
2.62929
1.08243
-5.05835
0.411778
0.110879
-0.164641
1.29659
2.36252
-5.09732
1.65863
1.54853
0.797327
1.66459
-0.852385
-0.212562
0.0550884
2.86066
0.49342
0.0637514
1.85092
-0.191757
0.0812626
0.810187
0.314194
1.22419
0.652644
-0.552069
0.969116
1.29885
1.06895
1.21098
2.78603
2.2858
2.00855
1.87471
2.57863
0.783309
-0.0179312
-0.0147314
-1.86837
2.60889
-0.195229
1.61289
1.45264
-0.523466
0.853789
1.78569
-0.797445
0.813502
1.00741
3.10598
-5.04637
0.720162
-1.69438
1.84326
0.158715
-0.210783
2.56504
2.18905
1.56327
1.5895
-0.46832
0.770109
-8.81234
2.75601
0.0457403
2.97819
-0.116328
0.17989
-5.69332
0.868204
-5.51123
0.275504
-0.0481056
0.577473
-0.29764
0.549295
-0.220428
0.00249699
-0.277321
-4.94814
-0.721137
-2.79545
-0.293919
-0.100157
-0.177496
-4.30651
1.64952
1.68169
2.03203
1.5926
0.658797
0.634321
3.26326
1.57354
-7.52338
0.0065178
-0.162016
1.23261
1.42677
2.38229
-1.22803
-1.20546
1.31458
0.00142716
0.429873
2.01212
-5.15671
-0.831843
-8.27617
2.7875
-0.186916
1.13156
2.06007
-0.17308
1.28256
0.0111755
-5.02
-3.69789
0.093602
1.07593
1.91847
2.02239
-2.76945
-5.02194
1.0653
-11.6813
-0.563777
-0.31281
0.315106
-0.390177
-0.0465229
-0.21412
-4.67434
-1.18192
2.47253
-0.171047
2.70034
-1.73739
-0.219132
0.622335
-0.233441
2.28509
1.57989
1.88981
-0.683558
-0.419305
-5.65426
2.19967
-4.92509
1.17693
0.0349644
1.93457
2.28109
0.0243731
1.58834
2.59317
1.7739
1.73653
-3.36336
-0.0746205
0.680238
-0.905541
-0.0415086
0.983022
1.15036
0.163964
-7.44552
0.391531
0.0928552
1.40594
1.19715
-0.644224
2.72051
0.189578
0.00352495
0.215643
1.58058
-0.48456
0.0084368
1.75404
-0.874909
0.134982
-0.312984
1.70264
1.58519
1.50966
-0.0306815
1.50763
1.85395
1.81939
-0.423501
0.0730811
0.356032
1.39707
-1.27842
-4.14756
-0.370184
-2.07093
-0.190984
0.0427421
-0.0370365
0.0679005
-5.44087
-0.881498
-2.54027
0.0935903
-0.413963
0.596581
-1.87777
1.70885
3.28766
0.540139
-0.279258
0.714367
0.179318
0.409748
0.0278938
-0.531072
-1.10852
0.209423
2.12594
0.00449401
2.54753
0.0328777
1.50645
1.32419
0.718185
-5.53902
0.938241
2.80603
-0.181402
1.60853
1.54404
2.37221
0.207603
2.17994
1.72856
-5.751
1.83996
-5.46518
-11.1413
2.22743
1.41877
-2.53134
-0.0299103
2.08623
0.189393
-0.657194
0.0659579
0.061596
1.23442
0.869513
1.60758
1.51021
1.37921
-3.27473
-0.728671
-0.394334
1.5703
2.97472
-0.587484
-11.9379
-5.35673
1.61186
0.198942
0.202045
0.711321
0.0585332
1.25637
-0.184285
0.38476
2.47268
0.723893
-0.0419254
-0.135634
-0.191071
-0.882484
-6.31264
-1.18327
-0.87951
1.90894
0.866425
-0.783839
2.5828
0.00836795
-4.39855
-0.303912
-11.3622
1.74515
-4.77433
0.533333
1.61018
-0.0249608
-0.437168
-0.187328
-7.81136
-0.231105
1.74922
-2.62823
0.00577399
-8.31194
1.54686
1.72918
-0.187727
2.0409
1.88858
2.45052
2.51498
1.79519
0.275091
2.86208
-8.75279
1.56934
0.333796
-1.84826
1.9517
-0.318671
2.45711
0.758067
-1.72333
-4.18672
-6.73162
1.71585
-0.386924
-0.412029
0.0518609
-1.3859
-0.0302744
0.997208
0.281252
1.17915
2.78481
-5.20482
-1.09692
-0.960869
1.67312
1.20641
-0.740653
3.24778
-0.00976903
0.088814
1.02725
-1.65798
1.53943
1.66102
1.85416
1.86757
-0.022228
0.880181
1.54687
0.367065
-0.227353
0.0206412
1.74513
1.8054
2.22047
-0.160813
0.157831
0.835614
0.981542
0.251737
-1.58274
1.32748
-0.249028
1.40232
1.65443
-6.85911
2.53753
-0.732625
2.75245
1.8362
-1.84269
0.00853745
0.0500515
0.592203
1.68996
-1.14448
2.18688
1.52022
0.836288
0.0536431
0.353109
-0.413302
0.835589
-7.4115
1.00113
-0.221891
1.56877
-3.83715
0.0168515
-0.377823
1.98586
2.30324
0.758263
-3.89071
0.784837
-0.117946
0.178916
0.905694
-0.173707
-0.132089
2.70148
-0.856069
-0.15147
-1.06547
-10.7301
-0.0669723
1.64751
-7.09921
-0.329819
1.68155
1.04027
1.72914
-0.234243
0.743331
2.72841
-3.15118
1.54773
0.50702
-0.155108
0.565349
0.385292
-1.2047
2.78565
1.84498
-1.47689
2.69619
2.09504
1.96714
-11.1857
-3.821
1.03627
-1.92281
-0.048063
-3.0827
-1.70434
-2.8984
1.27706
0.621855
0.979465
1.08469
-0.174021
1.21671
1.57528
-10.3515
1.68218
1.00253
1.59704
-0.120023
0.0275474
-0.192738
-6.46071
-0.205479
-0.388477
1.55812
-1.95152
2.46123
-0.507419
1.54713
0.998826
0.0598032
0.302872
1.65368
0.727809
0.383877
1.45252
0.0952793
-2.79632e-05
2.33045
1.89436
-0.768376
-2.5511
0.0587039
1.41842
0.0197102
0.737704
-2.60543
0.0364247
-0.143314
0.0666807
1.40588
1.35334
0.157086
0.719015
-0.0307597
0.0095169
-1.46138
1.98332
-0.193775
1.56378
0.00558579
1.38074
1.7119
0.917766
1.49882
0.112277
-0.229006
0.0633511
-4.63363
-0.32598
-0.718394
-0.273317
-0.087685
1.28066
-0.0591628
1.56997
-0.028528
0.0401041
-2.53694
-0.00310085
1.67574
-3.98035
1.57057
0.412787
-1.07674
-0.0852971
-0.193182
1.15369
1.69058
0.0120728
0.307229
-5.23703
1.88903
0.148651
0.495636
-0.951432
2.02149
0.803492
0.0301509
1.71687
1.67107
1.95298
0.227985
1.97067
-3.32324
0.0939271
-0.201886
1.55521
1.03782
0.436852
0.195255
-1.48436
-0.941073
0.893074
0.145594
-1.08191
2.50439
-3.66218
1.92119
1.16615
-0.412476
-0.0275198
0.113082
-0.0943922
0.193464
0.237863
1.50552
0.0665485
1.60999
-2.64223
0.671673
-0.121987
0.413774
-1.55749
2.00505
2.73781
1.75389
0.91578
0.353009
1.04785
-6.96741
0.0582901
0.0104155
-0.155638
-0.815313
-2.13271
-1.51304
-0.751543
1.4348
1.58532
-3.77628
0.430024
1.8136
-0.743101
-2.21626
1.72226
-0.0236063
-5.47332
0.0529394
-0.283512
0.00788764
2.55781
0.022138
1.54811
-1.59991
-0.976483
-0.725033
1.57336
0.435517
1.33353
-1.36017
-0.962065
0.120167
0.344384
1.85229
1.4186
0.295474
-0.159223
-0.429069
2.84601
-0.15159
1.82894
2.00258
-0.14797
-0.0478129
0.750755
-5.0277
-0.962934
1.39695
0.922995
1.555
-0.381327
1.74913
0.202171
2.29187
0.353118
1.41473
2.02894
1.32691
0.290791
-0.636711
0.527897
-10.2837
1.3888
0.72992
1.94523
0.157217
2.44286
0.285074
2.59769
-0.375225
2.02683
-0.218411
1.21432
-4.72594
1.53934
0.784602
0.659439
2.40239
1.58864
0.391688
-0.727934
0.932607
1.51968
-0.00242804
-6.14269
1.18194
0.0982097
2.08967
-0.187568
2.48759
0.407683
3.29833
2.50575
1.18567
1.05107
-4.87142
0.110859
2.66914
0.0275132
-0.0526748
-0.1275
2.63313
0.786856
1.38262
2.23147
-1.01144
1.7423
-0.318635
1.91602
0.0820241
1.81092
1.63676
2.22312
-0.0252521
-10.2318
0.477704
-0.192359
0.759212
0.279313
0.055813
2.04633
2.34235
0.0284243
0.555892
-0.295841
2.09943
1.32892
1.48102
0.999009
-0.194076
-4.35949
-0.177804
1.64258
-2.62143
-0.05743
0.0433048
1.14518
0.778563
-0.755254
2.81556
-0.0876041
2.46116
0.492879
2.50066
-0.516939
0.374634
0.0626887
0.0807175
1.3633
1.5782
-0.206359
-0.0614346
-0.305565
-0.0575787
2.32525
-0.530041
0.035389
-0.139941
-0.0788872
0.564567
1.96656
0.780525
0.0921976
0.0511456
1.59065
2.98372
-0.194292
0.117186
1.56822
0.0591525
0.825888
0.0326683
1.15321
-0.0673567
-4.39912
-0.486431
-0.241088
-0.197053
-0.140527
-2.74251
-0.663135
-0.030385
1.2573
1.7154
1.39737
2.89797
-5.76032
2.61794
-4.76977
2.47066
-1.1539
-1.11728
2.80071
0.659261
-0.357185
1.62974
-0.0249255
1.75816
-0.254519
-7.88043
0.283102
-0.704648
-0.80689
0.00862471
-0.17274
0.643865
1.99827
-1.38614
0.721292
-2.58327
0.408431
-0.119269
-0.000179299
0.193912
-0.0985361
-2.05441
2.08828
0.0280768
2.30378
0.622299
-4.33827
0.53567
-1.41789
0.0641641
1.38109
2.013
2.90737
1.21071
1.34958
0.774525
-5.20661
2.80508
2.99887
1.74766
-0.964109
-0.359748
-10.5498
1.49263
1.06352
0.602679
1.28539
-0.152577
0.0133825
-9.75806
2.39397
0.140143
0.205809
-0.223971
1.55187
0.300103
3.20795
3.00405
1.43142
0.0903427
0.463097
-3.80862
0.611449
3.08323
0.222302
0.0613296
1.19175
0.0119916
0.319805
-0.193545
-0.375518
0.379646
0.152702
0.744949
0.0421813
0.50837
2.24509
0.513803
1.70507
-0.249224
-0.457701
2.70727
-2.30626
0.285371
0.436739
0.691706
0.221174
-0.193238
0.349668
0.0998634
0.238107
3.23511
-5.70279
-3.43975
-0.963456
-1.11699
0.199558
0.433506
-0.185658
-2.67031
0.0297793
-3.61108
-1.31155
-0.900357
0.217987
0.131548
0.160927
3.15964
0.15492
0.481972
-0.199391
0.324551
-4.98807
-0.398888
2.19517
1.58077
0.487349
-0.0917361
1.53951
1.71199
0.0764318
-1.8753
0.0276622
2.18694
-0.776578
1.49864
0.0822387
2.46614
0.102274
-0.28168
0.0141351
1.7453
-0.634353
1.42401
-1.0348
3.05006
-0.193473
-0.334122
-8.22362
0.712281
-0.205251
-1.12885
-0.199651
0.226987
0.735406
-0.457039
-0.134964
-0.0905677
0.29677
-0.701479
-1.32778
1.29962
-11.259
1.40074
-0.213542
1.76667
2.79143
1.50927
-5.15835
1.62565
0.212033
0.301699
-0.107042
-0.511097
-8.1348
0.0379095
-0.430372
0.716445
0.0030152
-1.19241
-0.0793964
-4.16286
0.836638
1.62581
-1.77061
-0.191741
-0.548242
0.0387082
-0.0962436
0.966117
-3.36732
-0.204731
1.61843
-0.0494019
0.927783
-1.23448
-5.55909
-2.17376
-5.53482
3.16607
0.522283
-0.901033
0.417223
2.62366
2.71349
-0.320527
-0.332336
1.59051
0.0135942
0.010798
2.69857
0.912584
1.42117
3.22498
-0.496793
0.495355
0.251175
2.4083
1.65622
1.66564
2.00061
1.14074
0.054819
0.104615
0.749381
0.386583
-6.04716
2.7645
-0.858524
-0.933738
0.0413207
-0.691868
0.809177
-0.231459
-0.362128
0.384087
1.68237
1.72898
1.84304
-7.009
2.36697
2.69212
-3.35335
1.0233
-0.146381
-0.166772
0.295215
0.938592
-0.0974652
-0.757886
-1.07053
2.98645
-5.94547
1.86153
1.61411
2.1281
1.2202
1.27856
-0.0841149
0.0465708
0.956854
-0.0400113
-12.2089
-2.39301
0.146391
-0.19078
1.98164
-0.432549
0.0405098
0.330388
-4.929
-0.244986
-7.35035
1.43074
-0.323666
-0.0501111
0.760839
-1.18984
0.586276
-4.00268
-0.139127
1.72974
-4.55558
2.75144
0.0387001
2.92555
0.00493046
-0.000793935
0.24524
1.40637
1.38255
-3.35524
-0.143936
-0.342903
0.238757
1.14548
3.23189
2.13515
0.567793
-0.741438
0.869166
-0.0423484
1.84506
-0.124486
0.947288
-0.185548
-0.209758
-4.78875
0.606391
0.0527124
-4.90003
1.05882
1.03472
2.66205
2.85477
-6.40438
-7.95841
-0.151371
-1.5032
2.77473
0.185127
-0.707014
0.706779
1.16419
-0.217218
0.156721
0.0749802
-0.0220508
1.47734
-0.180297
0.500554
-1.77789
-1.09809
-2.97886
-0.435977
-2.96397
-2.68002
1.78446
-0.366278
-0.259209
-0.343412
0.0452877
3.02982
1.1994
1.50581
-0.36278
0.84213
-0.0468607
0.684812
0.494239
-0.188983
-3.88849
2.76551
1.70632
-0.0144527
-5.77438
3.14002
-0.23698
-4.06651
-0.175902
0.841291
-0.214051
-0.201543
2.39785
-0.106417
1.49056
0.651678
-0.18682
0.176834
-0.0648464
0.80658
-3.15649
0.0280746
0.497816
1.58571
-0.196893
-4.59684
0.162713
-0.482868
-1.75007
-1.57848
2.94977
1.05841
-1.29466
0.798405
0.418549
2.59781
0.928511
-4.38816
0.987632
2.03703
1.75222
-0.713923
1.42051
-0.0746125
2.74241
0.0488827
1.64134
-2.57962
-0.661938
0.0433091
-0.204311
0.974191
0.555378
-5.03118
-0.227545
1.9024
-0.0254981
-0.0994073
2.24916
1.2728
2.18955
1.49986
-1.01185
0.0263384
0.0648899
1.59946
0.00356955
1.998
1.26181
2.72175
-0.193984
2.13164
0.824004
2.74868
-0.186649
-0.999132
2.81342
-0.196886
1.23325
-6.75352
2.42174
2.71071
1.73744
-2.64114
1.59279
2.08355
-0.67273
0.693068
-0.287363
2.225
-0.204996
-0.105373
-8.58325
-9.151
2.04635
0.806338
-12.3281
0.858051
2.70793
-0.868315
-0.262191
-9.83188
-1.19824
1.36134
-0.208101
1.53192
1.51509
-12.509
3.03416
-0.0501
2.29734
2.28
0.124011
0.0197565
1.43405
-2.27157
-0.268156
1.42168
1.22412
-0.572531
1.52182
-0.177231
2.37439
1.73833
0.649084
0.0570848
1.78939
-0.137078
0.980235
2.1337
0.379001
0.0371773
2.06777
1.72537
-0.837433
-5.10874
1.2396
1.8053
2.73985
-5.61026
2.89304
2.84081
2.93987
-0.150689
2.00766
-1.99649
1.60565
2.16321
2.10613
1.7877
2.36419
3.20443
1.39458
-5.271
0.202665
-3.84414
3.17294
0.886961
-0.0714339
-0.192111
1.50865
2.38213
1.53796
0.575242
-0.12578
2.36922
-3.1602
1.72553
-0.197652
0.745824
0.00890777
0.533052
1.06501
-0.77006
-0.617251
-0.0956414
-0.46573
-0.162975
1.96807
-0.346768
0.198574
1.50609
-4.00497
1.01612
0.0424404
-3.45329
-2.81265
-4.74539
2.26206
2.43445
-0.223019
0.606904
2.07633
1.87033
0.0315332
-0.910052
1.76529
-5.88849
2.22384
-3.00191
2.16543
1.01124
0.242559
2.01456
1.09034
2.11538
0.608751
0.758538
-0.640477
-5.17423
-7.76037
-0.0698338
2.07596
-1.35846
-0.257643
-1.38346
2.29682
2.09408
0.574635
1.20876
2.33151
-2.58113
1.53925
-0.238144
-0.730467
1.53269
-0.293357
-6.82458
-1.46139
-6.81767
-0.362699
-1.55642
-0.182545
-11.8641
-5.47168
1.32959
2.77283
3.02578
2.63399
-1.30709
1.74432
-3.0894
1.49517
2.32074
0.240296
2.03833
-1.38627
0.593626
-0.683512
-0.0919114
2.21773
-1.20595
1.82783
-8.09084
-0.408598
-7.63991
1.85713
1.81316
1.6009
-5.96691
1.52415
-0.151801
-11.4726
-10.4447
0.552949
2.78531
-3.2169
-0.357721
-0.213953
1.56623
1.53738
-0.0450094
1.01355
-7.67558
2.3656
2.13373
-0.230396
-0.329427
2.30715
-0.313917
-4.78549
0.0226564
2.10858
2.37244
-1.65657
1.1587
-0.227022
2.72398
-12.6544
-0.637192
-0.0973474
2.5577
0.0122091
-0.607915
-0.0700843
2.2015
1.27497
2.18383
-0.151999
-2.87963
1.79162
3.13833
-5.40449
1.45376
-0.030163
-12.0041
-0.0157613
0.610565
-0.194088
1.13212
-0.18108
1.06156
-0.156271
-0.847831
1.9996
2.39202
1.51545
-2.10102
-0.659434
1.86667
-7.62451
0.63064
-0.755764
0.816474
-11.3224
1.73437
1.8716
-0.0616776
1.75705
2.68799
-0.282338
1.32101
1.82883
-9.33313
0.990212
-0.595258
0.813708
0.613336
1.26414
0.00782397
0.571619
-0.265541
-3.38323
2.25087
0.672212
0.214713
-0.35529
-0.252605
1.66388
-9.74584
2.92769
-5.10142
-7.87814
-0.0987565
2.05256
1.82396
2.15312
-4.52653
2.58644
-2.18592
1.27959
0.0215577
-4.34459
1.48283
0.753005
-0.305793
1.11447
-4.00235
1.30232
-6.73746
-0.333134
0.00893612
-2.62552
-3.15947
1.4448
2.65566
-0.0312658
-2.3297
2.06816
-2.74921
2.41481
0.758568
0.0605528
0.88837
1.61365
0.859224
-0.101299
0.213791
-0.0128299
0.408213
0.592332
-4.9071
-0.240727
0.097902
0.967903
-0.247651
3.18916
1.73836
1.59141
2.43751
0.270201
1.79503
-1.35971
-6.11028
-0.426966
1.61386
3.11108
1.50189
-1.12368
2.25372
1.51992
1.54454
-0.00254626
-0.055229
0.872182
2.94206
0.15242
-0.853088
2.15391
2.29954
1.70035
1.59427
1.95902
1.14229
-0.167661
-0.625483
1.769
-5.63188
-4.99537
1.5595
-0.502177
0.0326271
0.557489
1.7489
1.81242
1.84065
-0.155765
2.14807
2.19937
0.343165
1.93216
1.68986
1.32828
1.21795
1.10305
0.841566
-0.0502703
2.05189
1.91813
-0.0373198
1.47464
-0.174513
0.0494933
2.63327
1.99259
0.00945422
-1.05553
0.142943
2.05222
1.16441
0.325022
0.0114937
0.233447
-0.332272
0.316856
-0.226964
-0.23742
1.19415
-0.243893
-2.20015
-6.61513
2.48519
-0.185341
-4.27303
-0.328773
2.6669
-0.207657
0.383374
0.332025
-10.6231
1.26303
1.50387
1.02835
2.34624
1.29567
0.0405101
-4.18512
-0.764768
0.0309291
1.86141
0.0327075
-2.22508
-12.5354
-0.380131
-4.16732
-0.279113
-3.49174
-0.236342
0.608742
1.57613
2.09391
-0.326811
-0.185475
2.35603
1.78948
-1.43646
-0.259935
-3.86238
1.00223
0.0183275
0.897485
1.36717
-0.0161767
-0.232245
-0.278401
0.436183
-1.83488
-4.76296
0.180391
-0.967771
-6.35018
-11.6751
-0.5269
0.180652
-4.28132
0.8377
-2.4492
1.58094
1.42063
0.460175
2.07686
-1.32489
2.66796
-0.703699
0.0988248
-1.39377
1.59657
0.98881
-5.01522
-4.91657
1.6326
1.94253
2.76733
-1.50025
-6.02629
-1.01005
-0.201272
0.0101036
-6.15417
0.610685
-8.05572
0.961869
-2.65862
1.23801
0.214936
-0.0780595
2.42259
1.43002
-1.21763
0.0224962
-1.91634
-5.45723
2.08113
3.02894
-5.11607
1.97103
1.51961
0.00430019
-0.174047
2.02189
1.93654
-3.84619
-0.192967
-0.452649
-1.3246
-1.30912
-8.3527
-1.19064
1.06199
-0.160747
1.76589
-5.09625
-12.1151
1.49754
-1.2034
-9.01086
0.0930148
1.22422
-9.69709
-0.694314
-12.6268
-4.72985
-8.45966
2.8082
-5.28996
-0.266717
-2.822
1.75439
-8.64083
-0.129671
-2.9339
-6.05142
-0.678873
1.82223
0.0186871
-6.29536
1.40207
0.0169492
-0.588111
-4.10347
-7.57485
1.15588
1.32905
1.60879
-7.72992
2.40246
-0.443211
0.00593165
0.122033
-2.66126
-0.692503
-7.03206
-1.50256
0.363421
0.697323
-0.0383702
-0.351523
-1.26611
1.51223
-3.85025
1.68252
-3.76878
1.01983
-0.351528
-0.062898
-0.0656095
3.13541
-0.237554
-10.4088
-5.85461
-1.09328
1.60681
0.0374961
-0.0650423
0.0778786
-11.7166
-1.23708
-5.30734
-7.65269
1.75728
-11.1589
0.233614
-12.4525
-0.0466984
1.40794
0.123009
0.742403
-0.548521
2.112
-6.91043
-0.871857
2.26038
0.666522
-7.74626
-0.355111
-3.57838
-1.16295
-0.426829
2.06376
-0.335628
0.689073
-5.94487
-3.11741
-8.7639
-9.97152
-4.09815
0.968482
-0.260461
1.57137
0.611723
-2.88752
-0.471335
-0.885408
1.98289
2.38267
-10.8388
0.0917695
1.71673
1.57845
1.27379
-1.15706
-2.15455
-2.25049
1.6115
0.470396
-1.18061
-5.1604
0.935693
1.90855
-0.280644
0.0278448
0.0809189
2.23387
-1.78967
-1.95328
0.0383426
1.38263
0.0939154
-0.0696891
2.41771
1.99736
-0.0138466
-1.30802
2.03791
0.801724
-0.110258
1.48802
-0.480687
-1.65594
-2.72455
-1.32559
1.95542
1.71872
-0.135212
-0.762063
-0.166981
0.00902257
1.7603
-1.2674
1.22266
2.12697
2.27684
-0.301729
1.60718
1.42466
1.78516
1.89271
-0.192004
1.90442
0.00802333
1.60487
0.886469
1.73991
-0.680528
2.02067
1.92919
1.44646
1.05777
-0.761457
1.1491
0.0967079
-0.918387
2.17768
2.14217
-0.830739
1.81628
-1.31744
-5.64871
1.74312
1.74082
-2.51777
-0.0994176
-6.11065
-1.14917
-1.422
-0.255714
-2.60198
-0.438597
1.47279
2.91644
2.02833
-0.351865
-0.192227
1.7135
0.857772
-0.124229
-1.62173
-0.623755
-1.92504
-5.40701
-5.22721
1.5321
-0.361993
0.81354
0.0455736
0.0410328
-0.0835631
0.0399873
0.375059
0.848309
1.07976
-0.673757
0.784114
-2.70661
-2.90369
1.12867
0.889705
-0.0884714
0.190724
1.07092
-0.023566
0.628131
-0.728947
1.57409
1.34406
2.55839
1.60577
-1.11607
-0.428033
-0.755834
-0.57251
0.00975973
0.0439809
-0.227908
-0.893195
2.97384
0.167935
0.0254357
2.37825
-0.20485
-1.03398
-0.169886
-0.704462
-5.61529
0.505198
-1.50586
1.57185
-0.278256
-1.00606
-0.0759294
-0.351514
-1.10002
-0.106468
-0.209852
1.25387
-0.193732
-0.248953
-1.63634
0.646509
-1.20488
1.73126
2.439
-0.542648
1.76506
0.932898
1.16948
2.6955
-0.205366
0.981464
0.860825
0.7522
2.3049
-0.484959
-0.196925
-0.111554
1.70738
2.43607
-0.377883
-0.180888
-1.25134
-1.03401
0.834012
-0.83294
-2.44454
-0.60071
0.63971
-5.80709
0.393522
0.535582
1.40472
0.304615
-5.35591
-1.209
0.00974712
-0.211183
2.59918
2.91715
2.16499
3.07935
1.42541
0.825381
1.81555
1.57629
1.4599
-1.01141
1.65355
-0.398106
-5.38821
2.38416
-0.278358
-1.22601
2.7942
0.0456187
-1.56892
0.867077
0.747995
1.96154
-6.59388
1.48567
2.5735
-0.200048
-5.58888
-2.05732
1.14861
-2.89957
2.07096
-0.145949
1.96534
1.59732
-0.237979
1.88658
-0.738562
-4.36396
-4.88773
-0.536174
1.94516
-1.11465
1.6501
-0.0355561
-7.07054
0.0764871
-0.104148
-1.63736
-0.688357
-7.12713