/*--------------------------------*- C++ -*----------------------------------*\
| =========                 |                                                 |
| \\      /  F ield         | OpenFOAM: The Open Source CFD Toolbox           |
|  \\    /   O peration     | Version:  2306                                  |
|   \\  /    A nd           | Website:  www.openfoam.com                      |
|    \\/     M anipulation  |                                                 |
\*---------------------------------------------------------------------------*/
FoamFile
{
    version     2.0;
    format      ascii;
    arch        "LSB;label=32;scalar=64";
    class       volVectorField;
    location    "1.4";
    object      U;
}
// * * * * * * * * * * * * * * * * * * * * * * * * * * * * * * * * * * * * * //

dimensions      [0 1 -1 0 0 0 0];

internalField   nonuniform List<vector> 
5098
(
(2.60285 0.541087 0)
(2.18781 0.133893 -1.71243e-20)
(2.16016 0.0316314 -2.11578e-21)
(1.70605 -0.756775 6.10879e-19)
(1.8321 -0.181481 0)
(1.07031 -0.517739 0)
(2.29488 -0.00281176 -3.79418e-20)
(2.05177 -0.279494 7.09507e-22)
(2.06193 0.0509528 -5.50303e-20)
(2.92573 0.596075 -1.35584e-19)
(1.46537 -0.735324 0)
(2.25232 0.0502695 1.26061e-19)
(2.79243 -0.258353 1.59705e-21)
(1.10768 -0.539246 0)
(1.92931 -0.0278252 4.67346e-20)
(1.98515 0.0749466 -2.46274e-22)
(1.40311 -0.782899 -1.38502e-19)
(1.57566 -0.76472 0)
(-0.332049 0.291894 6.37351e-19)
(1.37119 -0.750174 1.56316e-19)
(1.88884 0.377397 -5.79465e-20)
(1.96761 -0.0238724 2.89744e-21)
(2.30799 -0.861701 0)
(0.967909 -0.0899847 2.49509e-20)
(0.970669 -0.479671 0)
(1.63953 -0.667208 0)
(2.00752 -0.0208681 8.76455e-20)
(2.02148 -0.842277 1.50765e-19)
(0.0618606 0.0521387 -1.94751e-18)
(2.09804 -0.907949 0)
(2.38627 -0.0254522 -7.70309e-20)
(0.86721 -0.426514 0)
(1.94208 -0.108364 -1.07927e-19)
(1.30924 -0.819084 0)
(2.39287 0.11202 -4.32731e-20)
(2.61178 -0.548108 7.77427e-19)
(1.98408 -0.491814 1.14969e-19)
(2.16608 -0.088543 -7.56148e-21)
(1.50814 -0.535407 4.55206e-19)
(1.70315 -0.781274 0)
(1.73066 -0.778756 -2.85974e-19)
(1.79216 -0.70291 -1.84062e-19)
(1.65658 -0.67334 0)
(2.21551 0.19072 6.21216e-20)
(2.3285 0.332942 5.76292e-20)
(2.10759 0.208901 3.76487e-21)
(1.46415 -0.795261 4.72094e-20)
(1.26863 -0.471303 0)
(2.43388 0.00240665 0)
(1.70154 -0.722117 6.51264e-20)
(2.12268 -0.0147939 2.72541e-20)
(1.6904 0.271732 -3.58166e-19)
(0.926792 -0.436328 1.29331e-21)
(2.08076 -0.0811952 1.37807e-19)
(1.13447 -0.563886 -2.75897e-19)
(1.65048 0.0230229 0)
(1.82178 0.306632 -1.94066e-19)
(1.80331 -0.740855 0)
(1.02371 -0.507798 0)
(2.06148 -0.0325801 -1.13668e-20)
(1.94151 0.158453 -7.47413e-21)
(0.93413 -0.47867 -1.49301e-19)
(2.43425 0.189854 0)
(2.77147 -0.201375 0)
(1.01124 -0.459627 3.66724e-19)
(0.969957 -0.485404 3.49815e-19)
(2.03979 0.0150717 4.21146e-21)
(2.17863 0.0150618 -3.27287e-21)
(2.2155 -0.204732 1.29315e-19)
(1.83888 -0.771909 1.87316e-19)
(1.86993 0.0319411 2.06969e-20)
(1.62569 0.325289 -1.01217e-21)
(2.1158 -0.862153 0)
(0.422621 -0.803215 0)
(1.96973 -0.0147985 1.96328e-20)
(1.34499 -0.653926 -3.13215e-19)
(1.9143 0.0520163 0)
(1.60952 0.062269 3.4676e-19)
(2.33026 0.278026 4.0045e-20)
(1.74718 0.00575283 0)
(1.87189 0.052222 0)
(2.02305 -0.728111 1.38378e-19)
(1.78457 -0.36892 4.18905e-19)
(1.21882 -0.762303 -2.43394e-20)
(1.57842 -0.740175 7.16621e-20)
(1.89034 -0.822981 4.41135e-20)
(0.274359 0.113711 -2.35967e-19)
(1.95209 0.107628 -1.41392e-21)
(2.13677 -0.00749414 2.6245e-20)
(1.90871 0.0427864 -1.77256e-20)
(2.35848 -0.162443 -5.50543e-21)
(0.0417568 -0.43513 3.00444e-19)
(2.217 -0.0646157 -1.48594e-19)
(1.71971 -0.738873 -3.25572e-19)
(1.49313 -0.557038 8.04412e-20)
(1.64707 0.579615 2.72498e-21)
(1.27685 -0.634348 -2.56318e-19)
(1.61256 0.165716 2.53484e-19)
(2.00219 0.0483369 2.70873e-21)
(2.18695 -0.479902 -8.83116e-20)
(1.73865 -0.379608 -4.15187e-20)
(1.20222 -0.58787 -3.26961e-19)
(0.409637 -0.473359 -1.01985e-19)
(2.03455 0.0877927 -1.18114e-20)
(1.54157 0.0641221 -3.94114e-19)
(2.47036 0.779094 0)
(1.92004 0.151158 2.01772e-19)
(2.26785 -0.0238366 -4.27344e-21)
(1.22281 -0.519973 6.33158e-20)
(1.49207 -0.762755 0)
(1.26362 -0.607554 -6.94705e-19)
(2.83559 0.668601 9.41653e-19)
(1.97751 -0.0190896 -2.04614e-19)
(0.684392 -0.779005 3.97701e-20)
(1.87702 0.465334 7.85032e-20)
(-1.91579 1.32197 0)
(1.98239 -0.709133 2.55765e-19)
(2.81922 0.938305 0)
(2.03192 0.0558049 8.18916e-21)
(1.0059 -0.137041 -3.81953e-19)
(1.71667 0.226793 2.94111e-19)
(1.67465 1.63607 -8.25651e-20)
(2.66698 0.595436 7.94672e-20)
(1.7534 -0.813192 -1.46168e-19)
(0.166226 -0.967812 -5.33222e-19)
(0.929412 -0.492656 1.88042e-20)
(2.14915 -0.114848 1.02903e-19)
(2.29133 -0.825129 -1.46746e-19)
(1.53898 -0.233784 -9.58665e-20)
(0.65746 -0.822077 -9.01546e-20)
(1.69827 -0.772209 -1.43518e-19)
(1.31064 -0.591751 -4.62915e-19)
(1.33383 -0.586393 3.87143e-19)
(2.73619 1.02815 -1.46617e-19)
(1.55443 -0.314702 -1.17304e-19)
(1.99332 -0.322631 1.31806e-19)
(2.12654 2.10297 5.0033e-19)
(2.02963 0.221863 1.28921e-19)
(1.03825 -0.510033 0)
(2.00251 -0.0153883 -4.38146e-19)
(1.70749 0.298259 -2.41784e-19)
(1.85755 -0.429294 1.31865e-19)
(2.00143 -0.900602 2.79027e-19)
(2.25601 0.00780457 -1.20245e-20)
(2.14593 0.0163396 -2.18516e-20)
(2.03544 0.0330423 0)
(2.16312 -0.246054 1.35331e-19)
(1.71402 -0.124927 0)
(2.11466 -0.056858 2.07705e-19)
(1.95847 -0.889956 9.61761e-20)
(1.82608 -0.615929 -9.34827e-20)
(3.94077 -0.855605 0)
(1.75291 -0.188689 3.56264e-20)
(2.10359 0.0225189 0)
(0.269572 0.0298592 -2.92457e-19)
(1.01475 -0.418085 -1.57343e-19)
(1.79989 -0.728663 -3.3734e-19)
(1.65325 -0.360591 -2.4513e-20)
(1.71377 -0.792091 -2.35003e-19)
(-0.240887 0.00208123 2.16621e-18)
(2.11341 -0.466006 -2.99394e-19)
(1.91039 -0.00560203 -6.24302e-20)
(4.29692 -0.708549 -7.29534e-19)
(1.8494 -0.23564 -2.54336e-19)
(1.58212 -0.773983 -7.27111e-20)
(2.40121 0.0228453 -6.73295e-20)
(1.73605 -0.180085 -1.29337e-19)
(2.60194 -0.514619 0)
(1.25323 -0.619809 9.86764e-20)
(1.84685 -0.606828 -3.69369e-19)
(1.68214 0.529207 -2.12933e-21)
(1.70738 -0.697751 -2.21829e-19)
(2.1815 0.313328 4.11574e-20)
(2.01808 -0.811566 2.66774e-19)
(2.1282 0.126398 0)
(2.0519 -0.0451412 0)
(1.86036 -0.324763 -1.5859e-19)
(2.60325 -0.474201 -3.1771e-20)
(1.8535 -0.238142 3.53893e-19)
(0.463701 -0.0495082 0)
(2.11008 2.37455 0)
(1.96259 -0.590657 -2.18555e-19)
(1.89927 -0.59544 4.50024e-19)
(1.57665 -0.779007 0)
(1.79819 -0.212372 0)
(2.56431 0.388643 5.50378e-19)
(1.58749 0.155367 0)
(2.04721 -0.465653 3.88601e-19)
(1.18174 -0.57547 6.06816e-19)
(1.56503 -1.19533 -9.12518e-20)
(3.44752 0.782466 0)
(2.64808 -0.393879 -2.91493e-19)
(2.13634 -0.876931 0)
(1.99743 0.131376 1.19377e-20)
(2.38984 0.102632 6.92993e-21)
(0.369833 -0.478129 -2.26693e-19)
(2.20478 -0.666119 1.52217e-19)
(2.0109 -0.328837 0)
(1.99937 -0.0415706 -8.27374e-21)
(1.87031 -0.589385 -6.60623e-20)
(1.70383 -0.787394 -2.67848e-19)
(1.67521 0.247823 4.5242e-21)
(2.41093 0.367096 2.12911e-20)
(2.13289 -0.0140705 2.3693e-21)
(1.87742 -0.0614846 1.63079e-19)
(0.982315 -0.42267 -1.1242e-19)
(2.22359 -0.180085 -1.255e-20)
(1.38021 -0.637485 0)
(2.30286 -0.0603893 0)
(1.56155 -0.750063 -2.75248e-19)
(2.05857 -0.133335 -1.26857e-19)
(1.70994 0.221926 2.36418e-19)
(3.02489 -0.178618 2.91286e-19)
(2.07857 0.081906 -7.33031e-20)
(2.07018 0.0105833 -1.21843e-19)
(1.96872 0.343719 -5.10249e-19)
(1.90164 -0.0381543 0)
(1.50741 -0.753708 -1.44854e-19)
(-0.00351487 -0.750129 7.28742e-20)
(2.00131 -0.0453704 7.20074e-20)
(2.38885 -0.113947 -1.89438e-20)
(1.74204 -0.393476 0)
(1.90274 -0.101074 9.91527e-21)
(2.4526 -0.225077 9.63192e-20)
(0.810255 -0.496396 4.16214e-20)
(2.04602 -0.188353 0)
(0.578944 -0.196028 0)
(2.10853 -0.0646625 0)
(2.14029 -0.498438 0)
(2.14147 -0.825055 -5.94263e-21)
(1.92203 0.319889 0)
(0.780468 -0.350739 -4.15279e-19)
(2.09637 -0.633351 -1.64025e-19)
(2.04188 -0.0400743 1.01365e-20)
(2.27826 0.0524364 -5.28371e-20)
(2.08771 0.00292521 0)
(1.60179 1.20888 -1.26957e-19)
(1.64596 -0.846742 -3.59254e-19)
(2.21284 -0.312916 0)
(1.86512 -0.0596809 2.54179e-19)
(1.92318 -0.773812 -4.56358e-19)
(2.2737 0.360103 0)
(2.00459 0.0583946 0)
(1.212 -0.341545 6.8539e-19)
(1.86935 0.410807 -2.86402e-19)
(2.28836 -0.0986915 -1.25959e-19)
(1.23996 -0.593117 7.4335e-20)
(1.50899 -0.749559 -1.14204e-19)
(1.46407 -0.817733 0)
(2.27941 -0.0970896 3.94987e-20)
(2.19805 0.513068 -1.91773e-21)
(2.04165 -0.846448 2.71751e-19)
(-1.40935 0.57456 1.13662e-18)
(1.71421 -0.789546 1.6356e-19)
(1.90882 -0.00107285 -1.83752e-19)
(1.6131 -0.886245 3.3392e-19)
(1.55912 -0.250783 1.01387e-19)
(2.48486 0.714357 6.34173e-19)
(1.29493 -0.490594 -2.85441e-19)
(1.99395 -0.0983069 5.06392e-21)
(2.67156 0.298022 8.11911e-20)
(1.08531 -0.515482 1.66998e-19)
(0.897799 -0.430637 1.55343e-19)
(2.08195 -0.88687 0)
(2.15738 0.0318963 -4.12143e-21)
(1.32696 -0.675879 5.15999e-20)
(-0.120717 0.0326154 -2.57416e-18)
(1.46887 -0.703361 0)
(1.83833 0.696706 0)
(1.85763 -0.0899414 -2.36899e-20)
(1.52413 -1.09475 1.13615e-19)
(1.96371 0.0683268 3.67642e-20)
(0.0849198 -0.0203492 -1.1477e-18)
(1.91836 0.607703 0)
(1.31138 -0.549867 2.34855e-21)
(0.847701 -0.648962 -7.16797e-20)
(1.76676 -0.679069 -1.74177e-19)
(1.85594 -0.544645 0)
(2.48017 -0.734184 0)
(1.94733 -0.120641 0)
(1.69742 -0.779853 -8.9865e-20)
(2.06575 -0.13815 7.42248e-20)
(1.01806 -0.588844 -1.76438e-19)
(2.0285 -0.068254 -8.24995e-20)
(2.66795 -0.671692 -1.23971e-19)
(1.22473 -1.00876 0)
(1.98251 -0.0189943 0)
(2.03158 0.0529066 -3.80582e-20)
(2.36409 0.0924144 5.46913e-20)
(2.01544 0.0445076 -1.92709e-19)
(1.79998 -0.783557 0)
(1.33051 -2.14623 7.13503e-19)
(1.23139 -0.147877 -2.0016e-19)
(2.34073 0.251286 6.40304e-20)
(2.12398 -0.653528 2.82376e-19)
(2.77251 0.938655 1.74964e-19)
(2.48981 -0.102554 0)
(2.40063 0.00701509 -6.8251e-20)
(1.98971 0.0584484 0)
(1.98034 0.0973696 -1.16544e-19)
(2.09579 0.0629428 3.0706e-20)
(2.45459 0.0483584 8.12025e-20)
(1.73802 -0.491908 4.35843e-19)
(1.8765 0.369137 1.62517e-19)
(1.189 -0.611089 -8.20241e-20)
(1.94616 -0.784484 -1.73717e-19)
(2.7289 1.56385 -1.69257e-19)
(1.99466 0.00291021 0)
(1.95855 -0.469725 0)
(1.48241 -0.790637 0)
(2.36319 -0.23862 2.62906e-20)
(-1.19596 0.151335 1.19306e-19)
(0.988287 -0.487743 3.6171e-19)
(2.02176 -0.0233574 -9.98995e-21)
(2.791 -0.192864 1.32545e-20)
(0.335634 -0.0488701 5.75291e-19)
(1.97577 2.0902 -5.89669e-20)
(2.06499 0.0639279 -7.59915e-21)
(2.13118 -0.0208823 3.65296e-19)
(1.06378 -0.469393 0)
(2.29223 0.282079 -5.83091e-20)
(1.33287 -1.86877 -1.94268e-18)
(2.31749 -0.379763 -2.44309e-19)
(-0.958571 -0.0652004 5.91166e-20)
(1.86598 0.140894 7.6119e-21)
(1.4907 -0.506568 3.07784e-19)
(2.17112 0.528449 0)
(1.92896 0.0431107 -6.56492e-20)
(1.23018 -0.524663 -6.68507e-19)
(2.01875 0.0180666 -7.74058e-21)
(1.51561 -0.728061 0)
(2.2962 -0.0128635 -1.03199e-19)
(1.20551 -0.583302 2.06743e-19)
(2.52519 -0.730931 -3.39574e-20)
(1.86674 -0.777893 -2.5201e-19)
(2.03008 -0.0136685 -1.58727e-20)
(2.54719 -0.211444 4.03299e-21)
(1.13385 -0.558222 3.96229e-19)
(2.31526 -0.0431576 1.83869e-19)
(1.97569 -0.418142 0)
(2.01284 -0.905884 -2.63925e-19)
(1.81949 -0.774357 -7.65942e-19)
(2.38221 0.220686 1.37513e-20)
(1.95067 0.07293 2.96783e-20)
(3.44747 1.57585 0)
(1.97836 -0.112912 0)
(2.16162 -0.0502966 -1.27319e-19)
(1.75137 0.732507 5.23965e-19)
(2.86819 0.871913 0)
(2.43468 -0.0774463 1.07763e-19)
(1.92182 -0.845347 -3.79388e-21)
(1.09737 0.222484 -5.00384e-19)
(1.04935 -0.468505 -3.61522e-19)
(1.70234 -0.791532 9.74184e-20)
(1.86611 0.0696232 1.44006e-20)
(1.68155 -0.79703 3.3632e-19)
(2.01373 -0.334947 -1.24419e-19)
(2.33738 -0.0204577 0)
(1.54866 -0.176932 -8.23066e-20)
(1.73745 0.212988 0)
(1.88996 0.216309 -3.23088e-19)
(2.14038 -0.476234 0)
(2.31064 -0.15214 -1.03823e-19)
(1.96195 0.06892 -1.45016e-20)
(2.14109 0.196425 -5.38592e-20)
(1.2872 -0.529655 3.76527e-19)
(1.99077 0.0637219 -2.78114e-19)
(1.98994 0.0655897 -2.41634e-19)
(2.31982 -0.977917 0)
(1.64266 -0.913163 0)
(1.36103 -0.558915 -3.6953e-19)
(2.2025 0.230486 0)
(2.99932 -0.282246 -6.78015e-19)
(1.93944 0.0720163 0)
(1.6 0.298145 1.35545e-21)
(1.11931 -0.572742 1.31946e-19)
(1.9003 -0.62366 5.35017e-19)
(2.21306 -1.17676 1.63561e-19)
(2.55273 -0.481142 0)
(1.99187 0.078905 1.02048e-20)
(2.05363 0.0290656 -1.67652e-19)
(1.00366 -0.53812 -2.05699e-20)
(1.96546 -0.0179256 -1.54589e-19)
(2.36385 -0.0700422 -5.1455e-20)
(2.19478 0.147552 -3.39782e-20)
(3.15682 0.27038 3.64639e-19)
(2.35107 0.23923 -6.31777e-20)
(1.64547 -0.829424 -7.27205e-20)
(1.80937 -0.54326 0)
(0.502917 -0.649508 9.19347e-20)
(2.05491 0.0245123 -1.156e-19)
(2.5159 0.143419 0)
(2.10714 0.00869273 9.90359e-20)
(1.34822 -0.64909 -2.61184e-19)
(1.76486 1.01618 1.05575e-19)
(2.36231 -0.76746 0)
(1.57118 -0.737432 9.67682e-20)
(2.36377 -1.33488 0)
(2.18614 0.0500304 1.53072e-20)
(1.88255 -0.063421 -5.71291e-20)
(3.79997 -0.879835 1.91731e-18)
(1.19274 -0.168292 0)
(1.66583 0.160441 1.73781e-19)
(1.90814 0.0516832 9.95073e-20)
(-1.7811 1.42033 0)
(1.9122 0.00823915 0)
(2.07048 -0.159044 0)
(0.242705 -0.117375 1.69333e-19)
(2.40148 -0.561402 8.29988e-20)
(2.19836 -0.120122 0)
(1.95484 0.0185741 0)
(1.58857 0.0167168 3.28287e-20)
(1.5818 -0.783433 0)
(2.27195 0.114707 -1.88218e-20)
(2.95091 0.696659 2.08177e-19)
(2.0295 0.00904172 6.9581e-21)
(1.92348 0.271831 -4.79446e-21)
(1.10125 0.283809 5.75254e-19)
(3.09722 0.868779 -2.25875e-19)
(2.44634 -0.0638867 4.14146e-21)
(2.02476 0.0536183 1.15306e-19)
(1.65564 -0.262107 -1.9692e-19)
(1.99889 0.218897 1.59504e-21)
(2.07441 0.0503424 0)
(1.67767 -0.789279 -3.27775e-19)
(0.07656 -0.506084 0)
(0.370624 -0.0409774 -5.73933e-19)
(1.74576 -0.0534332 0)
(2.12821 0.284041 0)
(1.5387 -0.7341 -2.02985e-19)
(1.99426 -0.0786347 -1.22612e-21)
(-0.245862 -0.127581 -2.23201e-18)
(2.02514 -0.0136068 1.06084e-20)
(1.95496 -0.762234 2.81327e-19)
(3.05815 0.547353 2.29477e-19)
(-0.792699 -0.461478 1.25261e-18)
(2.13032 0.0552611 2.20991e-20)
(2.26917 -0.88393 8.28194e-20)
(1.97337 0.0350198 -1.61775e-19)
(2.27544 -0.894764 0)
(1.82284 -0.188878 -3.67459e-19)
(1.94544 -0.51233 2.95934e-19)
(2.05987 0.243812 -4.20353e-19)
(1.25653 -0.727584 -1.25267e-19)
(1.68394 0.998238 -1.10393e-19)
(2.91042 0.782723 3.19426e-19)
(2.14169 -0.430563 0)
(1.9684 -0.0367579 0)
(2.79285 0.512908 -8.39705e-19)
(2.08166 -0.142463 7.19805e-20)
(1.47605 -0.796341 0)
(2.13431 0.00158783 -9.31786e-20)
(2.00744 -0.0572669 -2.16501e-19)
(1.38966 -0.819683 -7.48733e-20)
(1.44444 -0.773943 2.62778e-19)
(2.16107 0.0979625 -3.09015e-21)
(1.75638 -0.722587 2.45832e-21)
(2.5376 -0.225664 -1.46794e-19)
(2.08439 -0.455612 2.00036e-19)
(3.3106 0.25548 7.77508e-19)
(1.67092 -0.689128 2.82168e-19)
(2.00195 0.0405749 -7.53054e-22)
(1.18259 0.144535 4.14162e-19)
(2.12916 2.0924 0)
(1.8261 -0.536936 1.75173e-19)
(1.53467 -0.749276 0)
(0.982943 -0.8095 -4.94798e-19)
(1.82334 -0.677449 0)
(0.893324 -0.440266 -3.24383e-19)
(1.7675 -0.751287 -3.90845e-19)
(3.82526 0.376163 -4.38214e-19)
(2.34614 -0.945773 0)
(1.00835 -0.539717 0)
(2.23748 -0.427614 0)
(2.00069 0.178001 7.36686e-20)
(2.34686 -1.08204 -6.63216e-19)
(1.59449 0.185577 1.5421e-18)
(1.69124 -0.352087 -5.88023e-21)
(3.38539 0.0566004 -8.70532e-19)
(1.9753 0.100874 0)
(1.32395 1.6449 2.18368e-19)
(2.5549 0.908614 1.48281e-19)
(2.25178 -1.52957 -1.80054e-19)
(1.83962 -0.849482 2.10003e-19)
(2.15816 0.276189 4.04732e-21)
(1.38632 -0.667979 4.29905e-19)
(2.19123 0.199082 0)
(1.97716 -0.0510057 5.82103e-20)
(2.0489 1.21182 -6.05336e-19)
(2.04966 -0.24053 2.06473e-20)
(3.14987 -0.134003 -3.97096e-19)
(1.72398 -0.130059 0)
(2.5171 0.469111 0)
(2.24438 -0.854811 0)
(-0.398395 -0.360673 0)
(1.97339 0.0215825 0)
(1.55774 -0.606793 1.22757e-19)
(3.47564 -0.179011 6.27899e-19)
(1.59436 -0.670003 3.37968e-19)
(2.06698 -0.0311602 1.81643e-19)
(1.57059 -0.756157 0)
(2.26345 -0.927283 2.72077e-21)
(-0.203264 0.93722 0)
(1.56725 -0.724946 -1.35415e-19)
(-0.379151 0.653859 9.37802e-19)
(3.24479 -0.779965 -3.10102e-19)
(2.00185 0.23513 2.16793e-19)
(2.11704 0.167063 -5.2364e-20)
(2.40752 -0.691131 -1.91209e-19)
(2.30112 -0.0317831 0)
(0.225348 -1.25247 4.9952e-19)
(2.02271 -0.0473408 0)
(1.6141 0.717791 1.61926e-20)
(2.32433 0.113734 0)
(2.05349 0.1609 -5.89872e-20)
(2.1496 -0.0971649 0)
(1.09646 -0.442094 -2.54753e-19)
(1.37756 -0.642788 3.09747e-19)
(1.98164 -0.0518769 -5.72099e-20)
(1.44797 0.230397 3.57009e-19)
(0.423082 -0.212408 -3.47174e-19)
(1.84172 -0.10528 0)
(1.18269 -0.31275 -9.6996e-19)
(2.02379 0.0464021 3.63761e-21)
(2.8405 -0.699257 -8.03917e-19)
(2.15123 -0.0638182 -1.25331e-20)
(2.08735 -0.616156 3.78983e-19)
(4.02238 -0.114709 0)
(1.96928 -0.877316 -5.88753e-20)
(1.77831 -0.804299 0)
(2.37842 0.183496 7.76234e-21)
(0.638475 -0.230989 6.42271e-20)
(1.63631 -0.755616 0)
(2.33718 0.310336 0)
(1.561 -0.372984 -7.48134e-20)
(2.40936 0.432071 0)
(1.83063 1.48773 6.88024e-20)
(2.9061 0.320245 -3.62159e-19)
(0.653479 -0.568492 -1.64469e-19)
(1.45295 -0.816881 -1.15162e-19)
(2.11812 0.0488639 -5.432e-21)
(1.3496 -0.974083 -3.29492e-20)
(1.00589 -0.469647 -1.97309e-19)
(1.98034 -0.109206 3.81087e-19)
(1.38313 -0.794941 8.50108e-20)
(0.707262 -0.357227 0)
(2.41682 0.0964709 -9.28067e-20)
(1.45112 -0.388544 1.15264e-19)
(0.57242 0.0885353 7.00112e-20)
(2.96595 -0.540767 7.13678e-19)
(2.99024 1.2233 0)
(1.9271 -0.551641 -2.97406e-19)
(1.98579 0.047486 5.36393e-22)
(4.19125 0.21892 -1.21811e-19)
(2.05549 -0.0252517 -2.07363e-19)
(1.39937 -0.732758 6.41033e-20)
(1.69018 -0.76143 1.91694e-19)
(1.60966 -0.656617 -8.15825e-20)
(1.48051 -0.789027 1.02312e-21)
(2.1091 -0.112924 -1.45903e-19)
(1.45139 -0.755099 -7.18257e-20)
(1.78123 -0.115485 0)
(1.92377 -0.195617 -3.49826e-19)
(1.77298 -1.84391 0)
(1.26911 -0.871979 -1.6325e-19)
(3.00908 -1.72953 3.73447e-19)
(-0.599587 -0.333384 1.69115e-18)
(1.9896 0.0321853 -1.99696e-21)
(0.825941 -0.40458 1.93223e-20)
(-0.351387 -0.0155573 0)
(2.38525 -0.844326 1.93742e-19)
(2.44872 -0.937532 2.39414e-20)
(0.612392 -1.08882 -1.53768e-18)
(1.89687 0.357537 0)
(1.74309 0.299783 0)
(0.355916 0.203875 0)
(1.45439 -0.0219802 -2.69297e-20)
(1.88282 -0.0364071 -3.42184e-19)
(1.4561 0.0456728 0)
(1.69228 -0.395215 0)
(2.24556 0.236222 3.80393e-21)
(1.8155 -0.553124 -9.83167e-22)
(2.1562 0.366785 -2.06274e-19)
(2.16601 -0.447316 -2.03449e-19)
(1.94629 0.0717739 1.24451e-20)
(1.96228 -0.0505172 -2.27751e-20)
(1.9798 0.0385267 -1.23162e-20)
(2.0312 0.416498 -1.69726e-20)
(1.96282 0.983079 0)
(0.985325 -0.455765 1.73254e-21)
(0.619009 -1.7274 0)
(1.20523 0.0213943 0)
(2.49673 -0.132301 -3.38998e-19)
(1.60247 -0.767882 0)
(2.39016 0.263501 0)
(1.91898 -0.142647 5.34953e-19)
(2.13364 -0.926503 0)
(2.18589 0.434919 2.51843e-19)
(3.00105 -0.299592 3.92421e-19)
(2.97299 -0.0684698 1.20857e-19)
(1.99896 0.0362824 1.035e-21)
(1.27733 0.998663 2.0822e-19)
(2.43164 -0.902816 1.52854e-21)
(2.37768 -0.923641 2.27793e-21)
(1.33697 -0.5432 3.61877e-19)
(1.31574 -0.952395 0)
(1.10847 -0.54731 0)
(1.44682 -0.715078 -2.43529e-19)
(1.36142 -0.647105 -4.08335e-19)
(1.06449 -0.626815 0)
(1.34837 -0.923498 1.88808e-19)
(0.891015 -0.414524 0)
(-0.098193 -1.2704 9.19739e-19)
(1.29469 -0.601632 -4.67003e-19)
(2.82042 -0.369217 -1.48184e-20)
(3.14452 0.0718928 3.5522e-19)
(1.3831 -0.50539 7.29746e-20)
(2.04424 -0.0441017 9.59841e-20)
(2.33896 0.677859 0)
(2.41706 0.494365 0)
(1.24683 -0.100159 0)
(-1.55046 1.13019 -1.21508e-18)
(1.55803 -0.612755 0)
(2.31144 0.460119 0)
(2.02838 0.0467809 0)
(2.86654 -0.0746264 1.13433e-20)
(0.711159 -1.02094 1.03941e-19)
(2.19724 -0.821688 -1.33897e-19)
(1.39268 -0.0599218 6.70225e-20)
(1.94821 0.190443 0)
(1.66098 -0.748625 0)
(2.12437 -0.62011 -2.57501e-19)
(1.6619 0.368256 5.18361e-19)
(1.19028 -0.585 -1.36155e-19)
(2.01992 0.0425552 -6.42245e-21)
(1.83795 -0.484241 3.20478e-19)
(1.16177 0.307545 -8.96761e-19)
(1.57247 -0.737869 0)
(1.32064 1.09748 -5.0567e-19)
(0.526892 0.207102 -5.79863e-19)
(2.80717 -0.219356 0)
(2.06512 -0.0236396 0)
(1.85875 0.0264544 0)
(2.0062 0.09548 -3.19218e-19)
(1.5145 0.160628 -3.64739e-19)
(1.70794 0.0383165 0)
(4.14364 0.966905 1.9565e-18)
(1.97615 -0.873671 2.76942e-19)
(2.69925 -0.0573735 2.68831e-20)
(1.32039 -0.670503 1.03519e-19)
(2.14152 -0.244947 0)
(2.08768 -0.0483805 4.82616e-20)
(1.89023 -0.467544 0)
(1.43279 -0.432841 -1.10041e-19)
(1.91871 -0.86051 0)
(2.31947 -0.800567 2.7085e-19)
(2.2091 -0.383654 -1.0588e-21)
(2.01549 0.0276982 -7.83614e-21)
(2.69294 -0.115887 0)
(1.96712 -0.830554 0)
(1.74169 -0.737346 -4.10942e-19)
(2.20152 0.0830887 2.07791e-20)
(1.53889 -0.707268 6.44083e-20)
(1.01935 -0.495902 3.69265e-19)
(1.99077 -0.068664 0)
(1.6699 0.0973839 -5.42501e-19)
(2.19795 -0.0333404 -1.25823e-20)
(1.56347 -0.113895 -2.76049e-20)
(2.03245 0.0244971 -9.70405e-21)
(2.03016 0.0320487 0)
(1.3519 -0.44175 5.13723e-19)
(1.15911 0.0815963 -5.75561e-19)
(3.22058 -0.429516 8.77349e-21)
(1.91371 0.0897025 -5.92075e-19)
(1.34377 -0.686247 9.30969e-20)
(3.52897 -1.13174 -2.83904e-18)
(2.542 -0.269753 1.89393e-19)
(2.00014 0.0349468 -2.98856e-20)
(2.98906 0.334724 1.70879e-18)
(-0.325724 0.234997 -2.64554e-20)
(1.5056 -0.758162 1.69889e-19)
(1.54229 -0.72845 1.38496e-19)
(1.8857 0.0055998 2.74835e-20)
(2.43476 -0.0703411 0)
(2.43545 -1.07165 6.96318e-19)
(1.38978 -0.674267 1.93395e-19)
(1.76291 -0.321866 1.92751e-19)
(-0.100029 0.800455 0)
(1.78241 -0.458582 -5.15341e-20)
(2.05735 -0.0393116 -2.70071e-22)
(1.89339 0.0858442 0)
(1.50035 -0.718761 1.35296e-19)
(1.54681 -0.586585 3.61621e-20)
(2.00465 0.0729207 0)
(1.22335 -0.48858 0)
(1.61029 -0.0369684 -3.17523e-20)
(1.55541 -0.226687 -9.65993e-21)
(2.47095 -0.0858575 1.24216e-19)
(-1.76906 1.59319 0)
(2.03006 -0.042548 -3.05594e-19)
(1.9048 -0.214695 -3.70645e-20)
(2.3963 -0.766669 1.29149e-20)
(1.3869 -0.556518 4.53345e-19)
(1.57576 -0.777847 -1.32683e-19)
(1.60382 -0.735014 8.09811e-20)
(3.22754 -0.402375 -7.59525e-21)
(1.80462 -0.506435 0)
(3.34216 0.478371 -1.48291e-18)
(1.73156 -0.686922 2.06377e-19)
(2.15597 1.68797 1.77338e-19)
(0.967692 0.426363 0)
(1.31788 -0.319693 -4.5715e-19)
(1.39229 -0.597914 -5.49886e-19)
(1.59737 -0.781081 1.63332e-19)
(0.469712 -1.11898 -3.80511e-19)
(2.89399 1.68383 0)
(0.992163 0.559731 -9.61345e-19)
(2.24334 0.317676 0)
(1.20613 -2.14252 -6.33177e-19)
(2.95445 -0.0426892 2.49722e-18)
(1.61594 -1.08532 0)
(1.61714 -0.77138 5.7164e-20)
(1.77079 -0.226855 -7.91042e-20)
(0.437552 -0.6529 9.37716e-20)
(1.82637 -0.720712 3.692e-19)
(1.36191 -0.675281 -4.05123e-19)
(1.36607 -0.626284 0)
(2.04074 -0.0100846 1.06059e-19)
(3.73055 -1.42759 0)
(2.25853 0.0575179 -2.43412e-22)
(-0.686364 1.09385 -2.78211e-18)
(0.731113 -0.310356 2.47967e-19)
(2.03033 0.0524152 0)
(2.05339 -0.803094 -2.61553e-19)
(2.19999 -0.257594 6.48216e-20)
(1.6297 -0.74401 2.10575e-19)
(1.5053 -0.571479 0)
(1.61149 -0.747806 -1.87429e-19)
(3.53256 -0.642979 -9.60113e-19)
(1.68419 0.098036 6.93216e-19)
(1.86216 -0.118592 0)
(2.02983 -0.000322286 1.38951e-19)
(2.56283 -0.577425 2.09303e-18)
(0.948773 -0.904263 -5.16057e-20)
(2.38725 -0.571302 8.63059e-20)
(1.41337 -0.722875 0)
(1.83046 0.00707818 -1.64755e-20)
(1.99767 0.0163051 3.33091e-22)
(2.75771 -0.0314854 5.83159e-21)
(2.13798 -0.00972086 0)
(1.66563 -0.755472 9.32187e-20)
(1.77895 -0.514839 -1.17246e-21)
(1.43845 -0.466347 5.61094e-20)
(4.09865 -0.728275 0)
(2.22786 -0.840413 -9.86409e-20)
(1.57375 -0.767762 2.8296e-19)
(1.842 -0.438931 -4.00435e-19)
(0.909541 0.0321425 0)
(2.13285 0.593587 4.80599e-21)
(2.25746 -0.80947 8.38068e-20)
(1.47738 -0.746255 -1.72339e-19)
(1.95967 0.105028 0)
(0.364297 -0.374388 3.70421e-19)
(1.6044 -0.0706033 0)
(1.71048 -0.77217 1.85573e-19)
(1.57938 -0.280856 0)
(1.9505 -0.17211 -1.96929e-19)
(2.23431 -0.183527 -1.81223e-19)
(3.60718 0.742412 -1.00128e-18)
(1.62737 0.0741133 0)
(2.23583 -0.940362 -1.48301e-19)
(1.82869 -0.0157681 0)
(2.21197 0.136248 0)
(2.42496 -0.974706 1.57021e-20)
(1.68122 -0.764271 1.02912e-19)
(0.764103 -0.168776 1.56908e-19)
(2.27888 -0.571337 -5.502e-20)
(1.72859 0.203073 2.18979e-19)
(1.3494 -0.905174 -1.07457e-19)
(1.96822 0.330209 9.79862e-20)
(1.68932 -0.783927 -3.17747e-20)
(1.80881 -0.663981 0)
(2.29429 0.0343832 0)
(1.44243 -0.682887 0)
(1.35118 -0.707233 2.80994e-19)
(1.35049 -0.505215 -3.19496e-19)
(1.59222 0.0283829 0)
(1.18314 -0.621168 3.07761e-19)
(2.2806 -0.110501 -1.22242e-19)
(1.36197 -0.701956 -1.07628e-19)
(1.54568 -0.581248 -1.02083e-19)
(2.41877 -0.931542 0)
(0.717021 -0.581841 2.82708e-19)
(1.33851 -0.658136 -3.04119e-19)
(1.58633 -1.16076 0)
(-0.0504607 1.26321 -1.48816e-18)
(2.01693 0.098126 -5.53865e-21)
(2.16366 0.198676 9.51462e-20)
(1.91258 -0.0242343 1.98004e-19)
(2.82083 0.548033 -4.06395e-19)
(2.23347 0.0148127 1.08341e-20)
(3.01414 -2.12036 0)
(2.11792 -0.811123 0)
(1.04251 -0.557226 3.18995e-19)
(0.530474 -1.51949 0)
(1.74455 -0.406642 -5.23059e-20)
(2.3609 -0.813531 -1.25499e-19)
(1.16272 -0.553422 3.86188e-19)
(1.99027 -0.0427805 -4.87968e-20)
(1.67184 0.285064 -2.17041e-19)
(1.69288 -0.678677 -2.03868e-19)
(1.77798 -0.702561 -3.74379e-19)
(1.49927 -0.157553 0)
(1.88125 -0.730204 3.48999e-19)
(1.96303 0.0174766 0)
(2.79108 -0.168259 -1.26953e-20)
(2.10366 1.03399 2.79576e-21)
(1.99749 0.728162 -5.73537e-21)
(2.41744 -0.332968 -1.48663e-19)
(-0.280016 -0.874313 -5.99526e-19)
(1.25986 -0.592967 0)
(1.57601 -0.437648 -3.04817e-20)
(1.71032 -0.709722 -1.50044e-19)
(2.03643 0.327759 -9.33519e-20)
(1.99303 -0.790343 3.11064e-19)
(1.99364 0.0213008 -2.19697e-21)
(0.447625 -0.94918 1.67765e-19)
(2.21309 -0.911365 3.76967e-21)
(0.537271 0.000682325 0)
(1.41567 -0.735151 3.18533e-19)
(1.91174 -0.431371 2.09239e-19)
(2.0205 -0.0639 -2.35816e-22)
(1.36867 -0.603948 8.07403e-19)
(0.20303 -0.76449 9.59447e-20)
(1.82487 0.413066 0)
(1.32397 -0.740486 -1.19711e-19)
(1.64564 -0.746272 -1.41302e-20)
(1.26651 -0.434281 -6.14047e-19)
(1.25584 -0.714307 1.42767e-19)
(3.99192 0.207529 -4.37019e-19)
(2.12442 0.264862 3.90856e-21)
(1.14915 -0.490581 2.80053e-19)
(1.93814 -0.448367 0)
(2.32381 0.0695232 -1.12392e-19)
(2.0873 -0.0100231 -2.64447e-21)
(2.91037 0.155303 -3.55965e-19)
(2.95777 -1.95414 0)
(3.30446 0.07238 6.23695e-20)
(1.19969 -2.036 5.95354e-19)
(1.77914 -0.763219 7.91701e-19)
(3.47291 -1.81647 1.45681e-20)
(2.20164 -1.30564 -2.69656e-19)
(0.937706 -0.683977 5.25818e-19)
(2.17787 -0.800357 2.85001e-19)
(2.02653 0.065385 -5.25817e-21)
(-1.82192 0.636043 -7.8383e-20)
(2.35064 -0.012662 2.0103e-20)
(3.58257 -0.56443 0)
(2.00539 -0.00396013 0)
(2.36803 0.350162 0)
(1.93342 -0.740662 -2.98774e-19)
(1.6101 -0.350088 6.29421e-20)
(0.484719 -0.336376 0)
(1.4039 -0.469036 -1.3196e-19)
(1.65278 -0.958856 0)
(2.23206 -0.616775 0)
(2.27742 -1.26759 0)
(2.0023 0.0203809 0)
(0.472774 -0.38717 -1.11424e-19)
(1.71238 -0.815416 0)
(1.97559 -0.624702 1.77665e-19)
(1.97266 0.00714175 0)
(1.98932 0.0249464 0)
(1.98332 0.164362 8.70452e-21)
(1.5052 -0.70139 0)
(1.83747 -0.432161 0)
(-0.949752 0.567046 0)
(1.96775 0.0524771 2.34748e-20)
(2.05453 0.112482 0)
(2.51975 -0.947126 -1.03096e-21)
(1.97077 0.275248 1.55597e-21)
(0.915241 -0.497218 -8.50591e-20)
(1.94029 0.0552493 4.58587e-19)
(-0.345767 -0.0111238 -1.48085e-19)
(1.17172 0.631833 -4.75525e-19)
(1.52325 0.538129 0)
(2.56513 -0.175222 6.59455e-21)
(1.77196 -0.253045 -1.88205e-19)
(1.71632 1.38306 1.12094e-19)
(1.93586 0.250458 2.97943e-19)
(0.974969 -0.378056 -5.96927e-19)
(1.68055 -0.731305 -3.14492e-19)
(1.87208 -0.641199 2.41209e-20)
(1.55602 -0.543513 0)
(2.99099 -0.456797 -6.79933e-20)
(1.58454 -0.503694 3.59645e-20)
(2.38851 0.106095 -6.7035e-20)
(1.30877 -0.645604 0)
(1.86856 -0.00503434 -2.29884e-19)
(3.84433 -0.328479 -1.22613e-18)
(1.52279 -0.624159 4.13281e-19)
(1.42321 -0.64792 -5.01677e-19)
(1.8804 -0.859026 0)
(1.93874 -0.841496 0)
(1.86965 -0.524831 1.76569e-19)
(2.47744 -0.268704 -8.12418e-20)
(2.64544 -0.35551 -3.67484e-19)
(1.90352 -0.00314868 4.23639e-21)
(1.38196 -0.437467 -1.22901e-19)
(1.84791 -0.547286 3.38085e-19)
(2.29148 0.0617688 0)
(2.24886 0.150298 3.49491e-20)
(1.3354 -0.792828 -3.89537e-19)
(1.68751 -0.528323 1.60654e-19)
(1.47942 -0.357475 -1.37025e-19)
(-0.420263 0.550061 1.71369e-18)
(2.65609 -0.245857 3.0676e-19)
(2.44412 0.263492 8.94056e-20)
(2.36111 0.294535 0)
(1.50114 -0.693455 0)
(2.48776 -0.906602 2.7929e-21)
(1.3268 -0.349466 0)
(1.98765 -0.460817 1.37807e-19)
(1.70104 0.165471 3.89315e-19)
(1.71839 0.309476 -1.09333e-19)
(1.75029 -0.708378 8.12317e-19)
(2.00118 0.0363459 -2.16792e-22)
(1.92065 0.000135533 0)
(1.95067 -0.0647629 -3.02556e-21)
(2.23424 -1.28644 -1.52592e-18)
(2.11829 0.0398153 0)
(2.89655 -0.0487345 0)
(2.08539 -0.822187 1.08455e-19)
(2.00713 0.349191 1.4628e-19)
(1.25198 -0.264417 0)
(1.93524 -0.460481 -8.01227e-21)
(1.90412 0.0119804 1.1886e-19)
(2.30302 0.1505 -9.8707e-21)
(1.77188 0.395147 3.34451e-19)
(1.44712 -0.798308 -1.44055e-19)
(1.6404 0.156775 0)
(-0.626694 -0.787916 -2.32113e-18)
(0.67934 -0.311414 8.98483e-19)
(2.1045 0.0468918 1.21205e-20)
(0.343806 -1.60136 -7.74027e-19)
(1.96402 -0.805867 2.22626e-20)
(2.34439 0.0521056 1.93351e-19)
(1.80973 -0.631192 0)
(2.00188 0.129955 3.33316e-21)
(1.88118 -0.0714061 7.04763e-20)
(2.26397 -0.00160455 -1.08114e-19)
(2.17749 0.321407 -4.56168e-20)
(2.42878 -0.844112 0)
(1.44106 -0.850022 0)
(2.30415 0.0717889 0)
(2.19076 0.244599 -7.72229e-21)
(1.24289 -0.585864 6.04013e-19)
(2.60898 1.42618 -1.22161e-19)
(1.61098 -0.168302 0)
(1.35059 -0.649666 -6.92082e-20)
(1.41291 -0.702597 1.13987e-19)
(1.69264 -0.795397 0)
(1.93705 0.262827 -9.06229e-20)
(1.74482 0.139606 -1.33376e-19)
(2.20253 -0.194245 -3.62696e-20)
(2.01738 0.0307144 -7.34807e-21)
(0.869165 -0.339301 0)
(2.10959 0.155652 -8.46196e-20)
(2.16259 -0.466917 0)
(2.16048 -0.294891 1.10824e-20)
(1.16242 -0.0450552 0)
(2.24353 0.615061 2.141e-21)
(1.8499 -0.742805 -3.57068e-19)
(2.40774 0.48825 0)
(1.86684 -0.131507 -3.43877e-19)
(2.02207 0.0420284 1.07919e-20)
(1.83762 -0.000320268 0)
(1.33069 -0.631686 0)
(0.703404 0.0800574 -7.77094e-20)
(2.33906 0.115421 -6.9472e-21)
(1.50222 -0.487744 -4.59997e-20)
(1.35099 -0.828198 8.30637e-20)
(2.28731 -0.0842596 4.99018e-21)
(3.88281 -1.39886 1.04827e-18)
(1.79419 0.302174 -1.39779e-21)
(2.02699 0.296963 0)
(3.16571 -0.151245 4.75004e-19)