/*--------------------------------*- C++ -*----------------------------------*\
| =========                 |                                                 |
| \\      /  F ield         | OpenFOAM: The Open Source CFD Toolbox           |
|  \\    /   O peration     | Version:  2306                                  |
|   \\  /    A nd           | Website:  www.openfoam.com                      |
|    \\/     M anipulation  |                                                 |
\*---------------------------------------------------------------------------*/
FoamFile
{
    version     2.0;
    format      ascii;
    arch        "LSB;label=32;scalar=64";
    class       surfaceScalarField;
    location    "4.5";
    object      phi;
}
// * * * * * * * * * * * * * * * * * * * * * * * * * * * * * * * * * * * * * //

dimensions      [0 3 -1 0 0 0 0];

oriented        oriented;

internalField   nonuniform List<scalar> 
7520
(
-1.02267
0.795793
0.226878
-1.36167
-0.187634
1.5493
-0.00635975
-1.83637
1.84273
0.234349
-0.0320081
-0.202341
0.0174825
1.46097
-1.47845
-0.0892738
0.0960248
-0.00675105
-0.276324
2.07387
-1.79755
-0.157281
-1.70153
1.85881
-1.44737
1.44101
0.857186
-0.0892559
-0.76793
-0.0377424
-0.208393
0.246135
-0.235175
-1.71816
1.95334
0.709677
-0.105748
-0.603929
-0.0987771
0.137077
-0.0383002
-1.88356
0.963975
0.919582
0.145637
1.58298
-1.72862
-0.0770065
-0.0465887
0.123595
-0.216972
0.163015
0.0539575
0.0274774
0.0504161
-0.0778936
0.0422016
-0.119208
-0.415799
-0.269647
0.685446
-1.07054
1.21618
-0.0294101
-0.316603
0.346013
0.14083
-0.141888
0.00105711
-0.00685036
-0.118571
0.125422
0.25329
-0.246675
-0.00661425
0.872199
1.12098
-1.99318
-0.0360821
0.317883
-0.2818
-0.0591298
0.0866072
0.197571
-0.0311173
-0.166454
-1.14735
1.75897
-0.611616
-0.0477933
-0.0180257
0.065819
-1.83509
1.95864
-0.123543
-0.295692
0.334809
-0.0391174
-0.26644
-1.2365
1.50294
-0.537258
1.01875
-0.481497
0.273693
-0.545009
0.271316
0.799176
-1.54146
0.742285
0.092001
-0.319423
0.227422
-0.0445959
-0.10167
0.146266
-0.0277991
0.262148
0.408001
0.403545
-0.811547
0.28831
-0.0350202
2.20191
-1.64144
-0.560471
-0.469862
-0.68567
1.15553
-1.49616
1.62543
-0.129271
-0.023386
0.0766062
-0.0532202
0.262185
-0.0764024
-0.185783
-1.34427
0.196918
0.275064
-0.0759744
-0.19909
1.79424
0.150841
-1.94508
-0.722324
0.254894
0.467429
0.198149
-0.20204
0.00389109
1.00783
0.533626
-1.54145
0.0146212
-0.103895
-0.763324
0.125583
0.637741
0.382923
-1.25372
0.870793
-0.0422533
-0.123604
0.165858
-0.116674
0.0688805
-2.19896
1.09762
1.10134
1.08764
-0.521912
-0.565726
-0.0174446
-0.00218113
0.0196257
-1.25286
0.986417
0.832248
-0.12257
-0.0336607
0.231809
0.00406498
-0.102842
1.11711
-2.22397
1.10685
0.152454
1.64179
-1.24461
0.990551
0.254055
0.316843
-0.23857
-0.0782724
-0.523549
0.906472
0.232265
-0.925073
0.692808
0.341854
-0.0943828
-0.247471
0.444057
-0.472474
0.0284166
0.718607
-1.45515
0.736541
0.127306
-0.111295
-0.0160114
2.13803
-0.950753
-1.18727
0.411578
-0.773571
0.361993
1.70611
-1.20747
-0.498637
-0.823874
0.0605498
-1.48673
-0.712232
1.16635
0.177245
-1.3436
0.241845
-0.62519
0.383345
-0.0521883
-0.243503
-0.0463638
-0.170609
0.214535
-0.0169646
0.0152904
-0.0467386
0.0314482
1.09053
1.04749
-1.80071
2.03565
-0.234942
0.742571
0.345067
-0.956848
1.11887
-0.162018
0.0490908
-0.00969521
-0.0393956
1.36299
-1.59816
0.243056
0.196742
-0.104741
0.474413
0.253705
-0.728118
0.00741234
0.0837959
-0.0912082
-0.549608
0.402952
0.146656
1.33234
-0.613736
-0.726854
0.630979
0.0958749
0.778717
-0.967238
0.188521
-0.0876054
0.110313
-0.0227076
-0.00514615
0.00045687
0.00468928
2.34797
-1.36536
-0.98261
0.537161
-0.455024
-0.567648
-1.36894
0.845393
-1.8841
1.60777
0.164989
-0.0779037
-0.0870854
-0.149455
0.111713
-0.15833
0.157093
0.00123687
-0.187977
0.26434
-0.0763631
1.88965
-1.09047
0.334588
-0.146548
-0.188039
-0.781876
0.366076
-0.0300093
-0.0437909
0.0738002
-0.136708
1.30306
-0.786502
0.466595
0.319907
1.29122
-2.03988
0.74866
0.039675
0.101155
-0.178267
-0.544057
-0.377452
0.0889914
0.288461
1.06268
-0.205493
-0.389163
0.303209
0.0859535
-0.0801086
0.224174
-0.144066
0.0506149
-0.0501404
-0.000474513
0.734022
-1.84831
1.11429
0.388454
-0.417864
-0.348747
-0.0504309
0.399178
0.239378
0.09521
0.124394
-0.25694
0.132546
0.142109
0.0321707
-0.174279
-0.0642764
0.206385
-0.615417
-0.171086
0.0420954
-0.644021
0.601925
-0.738165
1.71728
-0.979117
0.394275
-0.415058
0.0207826
-1.1726
-0.196338
-0.0337069
-0.0499041
0.083611
1.36579
-0.357969
-0.64018
0.420073
0.220107
-0.000463875
0.115897
-0.115434
0.290771
-0.0752432
-0.215528
0.224831
-2.0612
0.317405
-1.81356
-2.16877
0.817416
1.35135
-0.844086
-0.400519
-1.24907
1.03583
0.213242
1.89724
0.312051
-2.20929
0.182093
-0.226689
-0.155539
1.18914
-1.0336
-0.26149
-0.397951
0.659442
0.0487182
-1.29779
-1.84569
0.0105939
0.00251167
0.0127788
0.0627675
-0.119609
0.0568411
0.286864
-0.329117
0.853225
-0.0745081
-0.154583
0.126784
-0.0356831
0.00749892
0.0281842
0.756127
-0.426428
-0.329699
-0.478897
-1.40466
0.0136824
-0.275173
0.0380017
-0.573772
0.53577
0.1226
-0.102369
-0.0202304
-1.59352
0.94625
0.647273
0.610563
-0.59308
-0.0546539
0.449973
-0.395319
-0.158852
0.152002
0.520971
-0.242168
-0.278803
1.04447
-0.570058
0.237972
-0.313947
0.901307
0.320841
-1.22215
0.29963
-0.335712
-0.383406
-1.43246
1.81587
1.27678
0.667664
0.696589
-0.454743
-1.31606
0.778805
-0.705721
0.908712
-0.202991
0.00591437
-0.0336226
0.0277082
0.276072
-0.323948
0.047876
-1.47714
1.34043
-0.27715
-0.148891
0.426042
0.0830532
0.0395465
-0.850308
0.88831
0.550523
-1.0903
0.539773
-0.529
-0.020608
0.675629
-0.401936
0.137992
-0.0106857
-0.363425
0.130656
0.232769
0.063247
-0.251224
-0.359893
-0.111625
0.471518
0.132527
0.209327
-0.759663
-0.695485
-0.766183
-0.82734
0.0577988
-0.088833
0.0310342
1.66762
-0.699644
-0.96798
-1.14996
0.411794
-1.15771
2.12407
-0.966357
0.362541
0.15843
-0.236933
0.118836
0.118097
-0.768072
0.589804
0.634132
-1.10399
1.74539
-0.0656128
-1.67977
-1.48759
1.93156
-0.443973
-0.0233555
0.086123
0.367143
1.43096
-1.79811
0.0340175
-0.166224
0.132207
-0.112062
1.77286
-1.6608
0.00174674
0.109239
-0.110986
-0.881851
1.23006
-0.348213
-0.0977272
-0.670344
0.0745479
-0.434441
0.263761
-0.178896
-1.62731
1.80621
-0.0189077
0.0693238
-1.59136
0.831701
0.236211
-0.1656
-0.0706115
-0.107205
0.027096
0.112794
1.59927
-1.71206
-0.576778
-0.550557
1.12733
-0.511488
0.4034
0.108087
2.4681
-1.61978
-0.848317
0.441596
-1.01837
-0.198451
0.232177
-0.033726
0.110902
0.718537
-0.829439
0.0459853
-0.0492998
0.00331448
0.826563
0.807029
-1.63359
-0.223647
-0.503208
-0.0584922
0.16599
-0.107498
-0.930336
0.690564
0.239772
-0.0733524
0.0392396
0.0341128
1.42488
0.242745
1.08304
-2.02226
0.93922
-2.79065
1.23035
1.5603
-1.16784
-1.62281
-0.375016
0.487346
-0.11233
0.27469
-0.368567
0.093877
0.647697
-1.52688
0.87918
0.0554903
1.05784
-1.11333
-0.865595
1.04284
1.12579
-0.224487
1.10513
1.13278
-2.23791
-0.182851
0.0881659
0.0946855
0.0251028
-0.955439
1.85708
-0.482797
-1.37428
0.135022
-0.101004
0.0867557
-0.153286
0.106697
1.07032
0.786754
0.186994
0.665803
-0.852797
0.360321
-0.0424389
0.00824485
0.050556
-0.0588009
0.161449
-0.294035
0.132586
-1.81364
0.856164
0.957478
0.0152459
0.259444
0.821229
-0.779133
0.497875
-0.0307959
-0.467079
0.133399
0.128786
-1.86876
1.81339
0.0553759
1.19303
-0.642511
0.0238149
0.2095
-0.233315
-0.0384825
-0.115096
0.153579
0.11895
-0.213333
1.67267
-0.555562
0.0333155
-0.0260793
-0.00723626
0.00227139
-0.0379545
-0.328065
0.119672
0.928055
-0.67435
-0.660208
0.715698
-0.370969
0.00754413
2.07387
0.0192666
-0.0194399
0.000173385
0.0274011
0.900654
-0.20004
0.128982
0.0710583
0.0199458
-0.0250919
-0.3537
0.761701
1.14572
-1.30126
0.414549
-0.369772
-0.0447777
0.316633
-1.19848
0.182924
-0.0585293
-1.82701
1.64811
-0.243235
0.044784
-1.98429
0.221027
-0.221491
-0.0694164
-0.0578017
0.127218
-0.593431
-1.22021
1.39084
0.957127
1.7254
-0.779154
-1.71816
0.0968354
-0.485998
0.0449396
0.232601
-0.27754
0.173602
-0.235667
0.0620652
-1.27776
0.592087
-0.194211
-0.261245
0.455456
0.336807
-0.426063
-0.122595
-1.91544
2.03804
0.992786
0.215217
-1.50658
1.29136
0.919084
1.03955
-0.777928
1.48335
-1.1162
-0.0518308
0.391009
-0.339178
-0.876804
0.769961
0.106844
0.0190066
0.0143089
-0.0835739
0.326417
-0.242843
-0.269015
-0.247734
0.516749
-0.521062
1.79784
-0.275724
-0.364732
0.640456
0.0874114
-0.110797
0.264245
-1.22109
0.0344833
-0.0262384
0.00841946
-1.84414
1.00958
0.834565
0.363103
-0.468851
0.00842604
-0.026553
0.420828
1.07765
1.39045
1.64762
-0.53497
-1.11265
0.117874
-0.0434072
-0.0744673
0.742434
0.963672
0.16205
-0.117111
0.683667
-1.99972
1.31605
-0.0159687
0.0259264
-0.00995765
0.494389
0.837954
-0.217982
-0.101441
0.751437
-0.564443
-0.574883
1.44708
0.154245
0.0107446
1.86673
-0.575505
0.143743
-0.136331
1.77273
-0.125111
0.101315
0.400009
0.0145403
0.0177685
0.299074
-1.73325
-0.839378
0.98191
-0.142532
0.00577576
-0.117071
1.77405
0.0121544
-1.7862
-0.709705
0.433982
0.223337
0.0674338
-0.307581
0.0690111
0.00820127
-1.21567
1.54396
-1.58942
0.0454579
0.0211826
-0.309649
0.288466
-0.829615
1.324
-0.801847
1.53587
0.0536064
-0.0324238
0.78436
-0.317766
1.95295
-0.589969
0.00513747
0.118815
-0.123952
-0.0677931
-0.0958583
0.163651
0.11501
0.00286412
-0.054009
-0.746521
-0.215104
0.0174662
0.197638
0.52044
1.19684
-1.73122
1.34781
0.111655
-0.460402
-0.78205
1.01431
-1.13996
1.33387
-0.193907
0.53248
-1.81017
1.6981
2.05683
-0.966294
1.32464
0.877269
-0.0666411
0.258552
1.28541
-1.33223
0.319482
1.01274
0.250181
-0.281298
0.228346
-0.2131
-0.211787
0.14751
-0.106912
-1.53453
0.522291
-1.20059
0.678296
-1.20228
0.482019
0.720264
-0.155708
-0.769365
0.0191631
-0.0366077
0.0853906
-0.0270605
0.193994
-0.166933
-0.542398
0.487744
1.07375
0.983082
-1.48759
0.0207806
0.0298343
1.61816
-1.43185
-0.186308
-0.384793
1.81576
-1.5596
2.50074
-0.941149
-0.774245
1.03802
-0.263771
0.124771
-1.37763
-0.202063
-0.166504
-0.271525
0.427357
-0.155832
-0.0166194
0.0170763
1.3362
0.708038
-1.27949
0.571451
-0.0274814
-1.55713
1.58461
-0.0523813
-0.105949
-0.00253002
-0.471969
0.474499
-0.7939
1.66701
-0.873109
0.197794
-0.137457
-0.0603367
-0.531665
0.640435
-0.10877
-1.96757
1.77993
2.03078
-0.443221
-1.58756
-0.132635
0.0660731
0.0665614
0.0049354
0.168666
0.104629
-0.633628
-0.822718
1.64928
-0.0450953
0.015086
1.74539
-0.980002
1.0909
0.0198034
-0.0198034
-0.138686
0.247422
-2.04813
2.25581
-0.938405
-1.31741
-0.716609
0.872758
-0.156149
0.006196
-0.311935
0.305739
1.06402
-1.19549
0.13147
-0.561104
-0.250683
0.811787
0.867013
-1.99828
1.13126
-0.0766767
-0.800128
-0.2093
0.141507
-0.223256
-0.565447
0.788703
0.760478
0.420003
-1.18048
-1.31468
-0.428893
0.69234
-0.263446
-1.00501
1.14062
-0.135608
1.44925
-1.33646
-0.105986
-0.109118
-0.0581138
-0.0134676
0.457525
-1.16947
0.986875
0.182599
-1.29648
1.87378
-0.5773
-0.016842
0.130932
-0.11409
-1.47099
-0.752975
-0.0556852
-0.00344459
-1.61486
0.457152
-0.368266
0.284692
-0.243684
-0.530562
0.0395341
-0.0555028
-0.680703
1.78584
0.042716
-0.359319
-1.51884
0.109252
1.40959
0.956435
-1.01882
0.0623871
-0.871614
0.165894
0.213491
-0.566584
0.353093
1.61462
-0.15734
-1.45728
-0.0120749
-0.058123
0.0701979
-0.377546
0.755967
0.601698
-1.35766
-0.429668
1.39364
0.245432
0.641526
0.724268
-0.0658747
1.5818
0.190925
-1.43309
1.40561
-0.11152
-0.035585
0.147105
-0.0976218
-0.10839
0.206011
-2.04289
0.483292
-0.121395
0.52494
-0.618181
-0.221197
0.249201
0.861353
-0.304544
-0.556809
0.191041
0.097269
-1.12457
1.86602
-0.741447
0.147849
-0.243707
-0.0725642
0.348637
0.251955
-0.52348
-0.200643
0.0447013
0.155942
0.32588
-0.0344509
-0.291429
0.695577
-1.17899
0.483416
-0.0127463
0.00856851
0.00417781
-0.288714
0.320855
-0.0321413
0.124499
-0.469966
0.345467
0.304158
-0.0539777
0.0322572
0.40299
-0.435247
1.33136
-1.03013
-0.963051
-0.178749
-0.461078
0.639827
0.0975825
-0.0282587
-0.271334
-0.240153
1.11172
-0.250369
0.0030811
-1.25808
1.255
-0.354598
-0.022854
-0.0413672
-0.574049
-0.333904
-0.197761
0.168855
-0.167108
-1.4034
-0.0349289
-0.0793075
0.114236
1.31391
-0.993072
1.07803
0.952748
0.436714
0.061161
-0.160052
-1.5986
1.75866
0.670888
0.514205
-1.18509
-0.133642
-1.04645
0.626041
0.420412
1.22139
-0.264955
0.0249548
0.00540593
-0.0303607
2.21252
-1.21344
-0.999078
0.134754
-0.30275
0.167996
0.677751
0.440631
-1.11838
0.0703681
0.100379
-0.170747
1.70037
0.0351161
-1.73549
0.0520086
0.111006
-0.253887
0.296603
0.0570766
-0.0011909
-0.0558857
0.215536
-0.2619
0.0481862
0.0208169
-0.0690032
-0.506001
-0.664687
1.17069
1.12028
0.494339
1.00588
-1.0028
0.589743
-1.38364
-1.84661
1.72402
0.147161
0.0770128
0.249729
-0.603791
0.354062
0.742497
0.982907
1.14119
-1.32874
0.18755
1.20325
-0.561728
-0.13074
0.0873327
0.10941
-0.320058
0.210648
-1.52115
-0.319071
1.84022
-0.421745
0.448442
-0.0266978
-0.00614844
0.0259519
0.307297
1.15367
-0.136985
-0.0458666
1.00635
-2.06917
1.06281
-0.819953
-0.311935
1.13189
1.61385
-0.530815
-0.0522597
0.555284
-0.953235
-0.262475
0.00450841
0.257967
0.0192194
-0.185673
-0.482988
1.19103
0.0117337
0.0342516
-0.128544
0.150076
-0.0215321
0.0543241
1.0097
0.0951358
-0.739157
-0.412322
-0.41616
0.505151
0.715841
-0.959525
-0.20155
0.055002
-0.0657149
0.172412
-1.93074
0.900614
0.0532466
0.103533
-0.15678
-0.306105
0.214732
0.0913726
0.200066
0.857773
-0.00498669
0.00280555
0.0213617
-1.66172
1.64036
0.0163284
-0.620766
0.604437
-0.0240827
0.0633802
-0.0392976
-0.685954
1.20824
-0.150162
-0.352679
0.502841
-0.282494
0.495984
-0.216572
1.30124
-1.08467
-0.655702
0.535017
0.120685
1.98811
-0.0908698
-0.137746
-0.141965
0.279711
-0.00481269
-0.252127
-0.176307
-0.163497
1.12686
0.908793
0.292981
-1.36692
1.07393
-0.804982
-0.177949
0.982931
0.0697729
0.132533
-0.202306
0.067533
0.251554
-0.319087
-0.16693
-0.0132843
0.180215
0.0206307
0.0138526
-1.03353
-0.130667
0.0120961
-0.0398682
0.0136298
-0.122282
0.389603
-0.267321
-0.228628
0.262915
-0.0342867
-0.0560803
0.0591829
-0.00310257
0.795063
-0.385285
-0.0592975
0.0125589
-0.238098
-0.592095
0.830193
1.17367
-0.973606
0.0110417
-0.351254
0.340213
-0.53005
-0.437188
-1.36878
1.52123
1.09362
0.0955202
-1.34508
0.842873
0.502204
0.218722
-0.0947664
-0.123955
1.74014
-1.74014
-1.61791
0.131183
-0.995421
-0.19079
-0.652225
0.843015
0.574989
-0.53715
-0.0378385
-0.196694
-0.320112
0.205024
0.115088
0.00317793
0.197412
-0.20059
-0.50416
1.26674
-0.762584
0.11198
-0.189917
0.0779375
0.797789
-0.673018
-1.05698
0.251997
-0.0390144
-0.21407
0.253085
-0.013111
-1.31912
-0.529699
-1.2046
0.674901
0.742153
0.00983185
0.235003
-0.244835
-0.27202
0.329224
-0.0572044
-0.226134
0.167641
-0.0828053
-0.149223
0.0798063
0.0360733
-0.0526188
0.119489
-0.0668703
-0.259693
-0.0603647
-0.320803
0.35306
0.119276
-0.141409
0.022133
-0.0883377
-0.116521
0.204859
-0.156253
0.0297189
0.126534
-0.0646776
0.167483
-0.102805
-0.654651
1.33295
0.585041
-1.12337
0.538327
-0.149789
-0.0810397
0.230828
-0.0512437
-2.23554
2.28678
0.899486
-0.586355
-0.313131
0.444463
-0.0406403
-0.195027
-0.0519498
0.00815888
-0.0542533
0.189007
0.300788
-0.923708
0.62292
-0.453061
-1.4157
-0.201136
0.829611
-0.628475
0.186189
0.0531885
0.404762
-0.271519
-0.133243
0.318758
-0.556856
-0.459712
-0.109799
-0.0543607
0.16416
-0.524222
0.330011
-0.157928
0.578001
-0.178069
0.139586
-1.58032
0.214959
-0.288779
0.540734
0.0322846
-0.241585
0.347849
-0.137201
0.315616
-0.305784
-0.0833801
-1.29031
0.635658
1.98038
-0.207523
-1.62731
2.2449
-1.08661
-1.15829
-0.0792812
0.482233
-0.0837709
-0.740103
0.518079
-0.454832
-0.244301
-0.0181741
-0.588382
-0.403557
0.991939
-0.0434938
0.0480911
-0.00459734
0.0226577
-0.866744
-1.89408
-0.311209
-0.325569
0.636778
0.42368
-0.407352
-0.242853
-0.0379662
0.280819
0.465945
-0.0774908
0.164718
0.0540034
1.99797
-1.13096
-0.90474
0.316358
-0.249654
-0.0503206
0.299975
-0.0456577
-0.0987104
-1.09678
-0.0148925
-0.247985
0.262878
-0.0826218
-0.034052
0.920313
-1.18147
0.261154
-0.668942
-0.0574053
1.79755
0.117281
-0.709376
1.24343
-2.04698
0.80355
-1.9959
1.32874
0.667168
0.150815
0.103808
-0.254623
0.151027
1.19196
0.017439
0.845731
-0.86317
-0.0532482
0.0271689
0.0447268
-0.177361
-0.0288848
-0.275359
0.304244
1.26064
-1.4207
0.222082
0.0524625
0.0318744
-0.0843369
-1.46498
-0.152933
-0.583793
-0.876715
0.697966
0.107916
0.00340286
-0.111318
-0.629102
0.305565
0.323537
-0.391649
0.339818
-1.0991
-0.543619
1.64272
-0.145314
0.276938
-0.270742
0.322341
-0.597697
0.275356
-0.72602
1.20804
-0.154306
-0.8874
0.170791
0.765732
0.0554968
0.895752
-1.39991
-0.0538236
0.0497437
0.0040799
1.12971
-0.397778
-1.08067
-0.343663
-0.0718231
0.415486
-0.0550814
0.202592
-0.131895
0.0436686
0.0882264
0.10012
-0.270728
-0.148758
1.29448
-0.224534
0.30506
-0.0670873
-0.425359
0.398806
-0.179392
0.0717571
0.107635
0.246799
-0.106317
-0.140482
-0.141708
-0.0417778
0.183485
0.138997
-0.113447
-0.0255492
-0.281084
0.137019
-0.222164
-0.0874847
-0.0294496
1.2152
-0.357478
0.0943937
0.263084
-0.0797555
0.111113
-0.0313575
0.122525
-0.354061
0.231536
0.00961028
0.236785
-0.665678
0.153009
0.360881
-0.074017
-0.126806
-0.0320459
-0.129183
-0.0370419
1.79983
-0.992797
0.0692855
-0.301173
0.231887
-1.60529
0.236517
-0.059724
0.0928948
-0.0331708
-0.039803
-0.0335494
-0.694197
-1.30171
0.3584
-0.0587708
-0.861471
-1.13825
0.0897976
-0.218341
-0.290087
0.612428
0.995915
-0.752713
-1.04789
1.34087
-1.82525
0.304095
-0.132284
0.0696139
0.0626701
0.137841
-0.180121
-0.394507
0.574628
0.0467933
-0.0540296
-0.456542
-0.835571
1.29211
-0.828426
-1.05492
1.88334
0.603972
0.343498
-0.94747
0.00524439
0.197299
-0.307099
-0.261536
-0.261944
-0.171543
-0.104834
0.276377
0.256446
0.402996
0.275948
0.128814
0.0863779
-0.599989
-0.0102441
0.0295106
-0.696872
0.927757
-0.230885
-0.141916
0.00896876
-0.942592
-0.0847752
-0.00405781
-0.770119
-0.174099
0.306645
-0.775652
-0.0034816
-0.136665
-0.892216
-0.335049
1.22726
-0.175573
0.693652
0.229029
0.643729
-0.292901
-1.00426
-0.926485
-1.28907
1.42054
0.0755298
0.192487
0.0166539
-0.0673832
0.0507293
-0.630808
0.575479
0.0553296
0.713083
-0.81081
0.269446
-0.2162
-1.12834
-0.216736
-0.243335
0.322823
-0.0794882
1.13912
-0.443543
-1.46101
-0.141072
1.60208
-0.0893733
-0.17032
0.109318
0.234969
-0.344287
-0.232594
0.396255
0.140906
0.0247089
0.0194533
-0.0441622
-1.30402
0.821225
0.0164459
0.0303474
-0.172546
-0.130204
-0.325997
-0.10064
-0.10091
0.300753
0.253181
0.054744
-0.11063
0.355804
1.45758
-0.736317
2.06096
1.02472
0.601971
-0.852654
-0.00684941
-1.45416
-0.0971575
-0.325351
0.38193
-0.0565789
-0.0332731
-0.0168672
-0.172951
0.0117511
-0.0547651
0.123646
-0.0974231
1.54118
-1.44376
0.177863
-0.848208
-0.122906
-0.259402
-0.0697155
0.0563561
-0.282609
0.356846
-0.0742374
-0.010517
-1.42817
1.43869
0.631112
0.265829
0.30916
-0.669471
-0.571386
0.948171
-0.376785
-0.0792403
-0.104514
0.319246
-0.535805
0.732089
-0.196284
-0.0268146
-0.40394
0.430755
-0.139998
-0.617629
0.757627
-0.276097
-0.0596148
-2.03318
-0.094895
0.181166
-0.176028
0.0297576
0.0645206
-0.0480747
0.337935
-0.663503
2.17909
-0.919314
-1.25978
-0.0354496
0.420918
0.29339
-0.184072
-0.204732
0.150372
-0.172609
-0.0131731
-0.375873
0.323685
-0.310235
0.843978
-0.983976
0.1363
-0.0920333
-0.0442665
-0.371771
-1.92925
1.0473
0.881954
-1.78513
1.73389
-1.17401
0.389897
0.784118
0.140108
-0.181575
0.0414672
0.600052
0.511671
-0.152454
0.197251
0.0560011
0.179357
-0.135091
-0.260334
-0.0111849
1.04172
1.13738
0.0738691
-0.0233131
1.51635
-1.2043
-0.0275484
-1.39295
1.4205
1.22343
-0.00822941
-0.291661
-0.0766048
0.0775736
0.0193147
-0.252582
0.13657
0.0917762
0.453279
-1.59689
1.14361
0.129431
2.3841
-1.48497
-0.899137
-0.0297732
-0.249328
-0.0626062
1.37991
-0.0394797
1.3688
-1.23761
1.06635
-1.89477
-1.24543
0.021288
1.22414
-0.955209
-0.00200441
0.957214
-0.0400866
0.0537164
2.16933
0.00048729
-2.16982
-1.76603
1.86361
-0.0975796
0.0449679
0.217947
-1.05362
0.0486108
-0.00193639
-0.241298
-1.34649
0.206535
-0.00750002
-0.00913236
0.0166324
-0.0914755
0.223472
-0.131997
0.147175
-0.493184
0.346009
0.522907
0.459003
-0.52493
-0.104172
0.0711865
0.865845
-0.942521
-0.0651556
-0.054453
-0.251815
0.0527251
-0.200603
1.47715
-1.27654
-0.260119
0.7623
-0.502181
0.0553312
-0.416654
0.361323
-0.795924
-1.52035
0.707173
0.813175
-0.0260667
0.849347
0.217118
-1.06647
-0.418218
0.219687
-0.243503
0.0238165
0.167976
-0.0357689
-0.246912
0.00405985
-0.28762
-1.17931
-0.12195
-0.393167
0.793189
-0.400021
-0.761232
-0.554831
1.77155
-0.76197
-0.101767
0.185189
-1.37757
0.0235687
-1.35822
1.33465
-0.272062
-0.0362741
0.308336
0.852774
-0.867623
0.0148488
0.136816
-0.0209183
-0.0998106
-1.43207
0.670843
-0.655351
1.28139
-0.230787
-0.097278
0.294937
0.218419
0.0283799
0.807511
-0.373529
0.00660476
0.706479
-0.953065
0.409008
-1.89245
0.837533
1.25876
-1.26928
-1.48714
1.38972
-0.00285344
-1.45353
0.191187
1.26235
0.593327
0.236283
0.0330495
-0.91639
0.725599
-0.113618
-0.127202
0.24082
-1.39976
0.228186
1.17157
0.307704
0.791886
-1.09959
0.0110781
-1.30015
0.775202
0.0895941
-0.864796
0.140297
0.253126
-1.03518
0.069253
-0.0118003
0.05104
1.51255
-1.47743
0.241622
-0.986351
-0.533998
0.78542
-0.0040331
-1.2414
1.1141
-0.264753
-1.6981
-0.0200572
-0.316958
-0.905191
0.332399
0.136827
1.84661
0.227259
0.111532
-1.20831
0.134945
-0.102774
0.191186
-0.460202
0.325226
-0.555837
0.230611
0.239728
-0.037536
-0.202192
0.175811
-0.317776
-0.109851
0.271299
-1.14512
1.17832
-0.033204
-0.746108
1.09084
-1.7698
0.678966
-0.75485
-0.056543
0.0906558
-1.45882
0.10945
1.34937
-0.362221
0.894701
-0.668527
0.691185
0.156772
0.96659
0.604405
-1.01673
-0.821641
-0.177387
0.999029
-0.71824
-1.20343
0.746887
-0.121855
0.125119
-0.00326408
0.0520043
-0.0913019
0.972135
-1.45512
-0.206459
-0.472213
0.678672
-0.165685
0.138714
0.0269715
-1.06451
0.446882
0.0365179
0.0249068
-0.227248
0.405575
1.9474
0.221926
-0.791204
0.808643
-0.262027
0.0894812
-1.09978
1.73679
-0.637014
-0.0738988
0.0627668
0.0752251
0.367959
-0.0219461
0.946789
1.17728
0.626016
-0.943781
0.281146
-1.90093
-0.164546
0.129617
0.115383
-1.10845
-0.2211
-0.960368
-0.206689
0.052106
0.784394
-0.378819
-1.10397
0.420609
0.873866
0.181783
-1.68245
0.329533
1.35291
-0.0833247
0.47958
0.674045
-1.19654
-0.291046
0.745084
-0.333525
-0.411559
0.853461
-0.282197
-0.571264
-0.175032
0.0375745
0.627303
-0.663506
0.0362027
-1.40723
0.334298
1.07293
1.1083
0.192935
0.000615386
0.1073
0.761103
-0.524317
-1.76797
0.628227
1.13974
-1.80621
1.48714
0.804663
0.794715
-1.59938
0.780493
-0.719944
1.81908
-0.619857
-1.19923
-1.04274
0.167561
-0.0802281
-0.00731725
-0.100337
0.188503
-0.0363401
0.113903
-0.0775625
-0.235494
-0.23698
-1.53592
-0.165601
0.0687512
-0.0976361
-0.0316317
-0.0176681
1.02493
-0.477798
-0.547131
0.781558
-0.475993
-0.117782
0.122717
-0.126656
1.26785
-0.328794
0.0567322
-0.274944
-0.789567
-1.44706
0.554847
-0.0652627
-0.0766249
0.121595
0.0916051
0.100248
-0.0835939
-0.501026
-0.597525
0.0928831
-0.0769299
-0.0159532
0.175747
-0.788432
-0.476529
1.26496
0.0349055
0.0296151
0.196109
1.04908
0.99193
-2.04101
-0.384039
0.98801
0.210465
-0.0836808
0.60671
-0.896822
-0.649634
1.54646
-0.927169
-0.978051
0.574494
0.298853
-0.200974
-0.0978785
0.524994
-1.22464
-0.147107
1.5176
-0.426764
-0.17705
0.101807
-0.391347
-0.732022
0.0728504
1.95309
-1.72402
-0.229073
-0.862124
-0.584939
-0.0213738
0.160814
0.0651849
-1.01476
-0.2187
1.23346
0.213304
0.529374
-0.556189
-1.66857
-1.70817
0.68958
1.01859
-0.157168
-0.00484343
0.162012
0.940131
-0.551696
-0.388435
0.103221
-0.157986
0.075897
0.0811965
0.899435
-1.99854
0.757157
0.0963043
-0.316803
-0.587937
0.0371025
0.0109886
0.146443
0.0733558
-0.861787
0.0262272
0.364782
-0.542926
0.529458
-0.0902944
-0.00481884
0.0951133
0.982803
0.836282
0.56831
0.0550484
0.706231
-0.558746
-0.147485
1.81017
-1.48063
-0.0406683
-0.52563
0.142559
0.0254168
0.207377
0.0311118
-0.0979822
0.00371072
-0.125566
0.52702
0.067996
-1.79066
-0.0192802
-0.137888
-0.0692573
0.00187407
1.05478
-0.82575
0.887965
-0.47752
-0.410445
0.00383109
0.106482
-0.011239
0.00373899
0.396904
0.0616911
-0.35312
-0.857734
-0.321259
-2.15649
0.878978
1.27751
-0.0110946
0.00139935
0.0734945
0.100498
0.114037
-0.272046
-0.294538
0.477253
-1.37407
0.230908
-0.958413
2.00749
0.621282
-0.0878259
-0.533456
-0.666273
-0.487192
-0.0499578
0.0876035
-1.12383
0.492064
-0.738787
0.246723
-0.235935
0.183132
0.0528033
-0.0956387
1.29991
1.20083
-1.46848
1.48063
-1.61554
1.13566
0.479886
1.04968
-2.00809
2.13935
-1.0617
-1.04557
-0.978272
-0.0179807
0.211975
-0.0539187
-0.418051
-1.53009
0.0765553
-0.0137624
-1.31498
1.23719
-1.98222
0.745034
-0.0512571
0.23335
-0.458174
0.27741
-0.156725
1.01428
1.36982
-1.77769
0.677909
-0.121997
-0.805172
-1.34254
0.233019
-0.0498867
1.78513
-1.876
-0.126597
-1.11411
0.0967099
1.11768
-0.361713
-1.4872
1.64525
-0.158053
0.409066
1.87771
0.435101
-0.067694
-0.367407
1.87025
-0.803901
0.230007
-0.304403
0.716903
-0.75827
0.0886573
0.129762
0.397626
1.00715
-1.40477
-0.615407
-0.455144
1.01513
-1.06721
0.0520867
-0.307946
0.0599612
-1.74205
0.749802
0.992247
0.945285
-0.0925105
-0.298926
0.0629823
0.856758
-0.801261
0.283089
-0.544625
-0.161789
0.129743
-0.631694
0.451573
-1.10931
-0.844349
1.95366
-0.159686
0.0462388
0.00103668
-0.262936
1.04178
-0.870989
0.0515385
1.32409
-2.06041
0.00626026
-0.217492
0.208199
-1.18181
0.0736283
0.722165
0.388292
0.0453041
-0.610751
-1.44295
0.395064
0.0621056
0.258801
-0.320906
0.0682699
-0.311113
1.15863
1.08627
1.2419
-0.980749
0.0429159
-0.203635
-0.0903999
0.436881
-0.046286
-0.224442
-0.695891
-0.959039
2.00872
-0.168629
0.142562
-0.69953
-1.13012
1.82965
-2.04991
0.283878
-0.0652852
0.20784
0.0236962
-1.4539
-0.0649355
-0.16178
0.653843
-1.00656
-1.14993
1.95309
0.559927
-1.38727
1.01781
-0.558807
-0.220028
-0.161593
-0.145506
-0.235753
0.246795
-1.61416
0.21243
-0.783816
1.05831
-2.01735
-0.809546
-0.177161
-0.0749662
-0.08765
-1.39955
0.857555
-0.861036
1.34644
0.827661
-1.50767
0.680009
1.61673
-1.28243
1.95334
-0.940376
-1.01813
1.95851
0.500181
1.25117
-1.03786
-0.694283
-1.01388
-0.843158
-0.772386
0.454695
-0.64508
1.55978
-0.914701
-0.115028
1.34223
-1.2272
-1.02561
-0.939373
1.96498
0.908183
0.106944
0.236173
0.373314
-0.46881
0.322195
0.146616
-0.0033823
-0.240325
0.496093
-1.35822
-0.796417
-0.385413
-0.245396
-0.197495
0.0233953
-0.290956
0.983764
-1.978
0.90648
1.07152
-0.0177351
-1.67283
1.69057
0.0472329
-0.2388
0.0382097
0.607901
-1.90452
1.90452
-0.0420493
-0.0158607
0.05791
-0.643085
1.06309
0.221291
0.0117279
-0.771947
-0.331228
0.734224
-1.46848
-0.0299465
-1.27229
0.292284
1.27184
-1.28495
-1.1995
0.18474
-0.247311
0.12214
0.125171
0.103469
0.523834
0.260545
-0.0208171
-0.955654
-1.17541
0.159831
1.01558
-1.38227
-0.140904
-0.589732
-1.18007
-0.0347602
0.0594691
0.158084
-0.320315
0.115583
-0.0173919
0.0721359
0.363063
-0.276069
-0.355624
-0.667945
1.35495
-0.687009
0.326815
0.203286
-0.229731
0.39661
-0.166879
-0.423335
0.175602
0.419593
-0.532878
0.113285
-1.08901
1.7867
-0.982035
-1.28168
-1.67804
0.249869
-1.24094
0.0492143
1.02114
1.19138
0.126384
-1.03157
1.13381
-0.146936
-0.351353
0.120566
0.64878
0.613875
0.166619
1.99605
-0.937738
-1.03413
-0.839682
1.87382
1.15573
-0.032541
-1.12319
0.136491
-0.0253776
-0.190378
0.173536
0.132139
1.34581
-1.47795
-1.30207
1.26928
0.032788
1.30207
-1.38972
0.211781
-0.263038
-0.806085
1.05921
0.0755276
0.35951
-0.222491
-1.64565
0.139068
1.5856
-0.757944
-0.357553
-0.0648008
0.136558
-0.431385
0.936825
0.252659
-0.0846631
0.661583
-0.857867
0.174523
-0.23486
-0.571741
-0.0534487
0.753515
-2.06076
0.503633
-0.0683682
0.425975
-0.357607
-1.04203
-0.940189
0.0885205
0.65928
0.533755
-0.865719
0.0745148
-0.0960437
-0.320611
0.100638
-2.07478
1.02921
0.040945
-0.0206205
-0.285163
0.036658
0.264095
0.0520507
-1.43059
0.738101
-1.47896
0.740858
0.057834
0.244456
-0.30229
0.278732
-0.0461316
-1.01942
1.3117
0.624315
0.363695
1.33422
-1.19654
0.18334
0.0399975
1.6644
-1.95559
0.291188
-0.181886
-0.415811
-0.824617
-0.040179
0.369877
-0.4417
0.228354
-0.365555
-1.14946
-0.117084
-0.0144618
0.131546
-1.46207
0.165834
1.29624
0.248419
-0.337793
0.0859626
0.165996
-0.251959
1.18263
-1.18666
-0.265834
0.228298
0.621847
0.221169
-0.336104
0.256616
0.372066
-0.318877
0.184969
0.667456
-0.852424
-0.42364
-0.069544
-0.937889
-1.01796
1.95585
-0.183147
-0.245269
0.477156
-0.999551
1.73389
0.423102
-0.285262
0.0487471
0.0457141
-0.0402556
2.04487
-1.00315
-1.20163
0.764395
-0.551965
-0.538483
1.67823
0.365276
-0.303585
-0.027366
0.0212176
0.344969
-0.0818848
-0.289136
0.184302
-0.288888
-0.236188
-0.0841276
1.07851
-0.33648
0.373138
0.302443
-0.0674398
0.0362027
0.124
-0.0322243
0.486684
-0.762754
0.20547
-0.235251
0.0297815
-0.373062
0.336788
0.17704
0.895196
-1.07224
-0.235072
0.10787
0.456629
-0.632202
1.56165
-1.04121
1.00656
0.902409
0.106575
0.555004
-1.08284
0.347595
-0.425085
-0.342125
1.10899
0.888979
-1.52314
1.52314
1.7326
-0.819694
1.08394
-0.0249983
1.52449
-1.4995
0.933749
1.0107
0.874568
-1.98388
0.124394
-1.10837
-1.32993
-0.202304
-1.44488
1.64719
-0.403747
-0.120475
0.0707438
0.925228
0.15536
-0.261676
-0.968916
1.66304
-0.694128
-0.176022
0.264679
-0.017253
0.20705
1.01434
2.42928
-0.947481
-1.4818
1.59224
-1.48279
1.13771
0.196154
0.0483215
0.00528488
0.0460154
1.55326
0.563346
1.09477
0.771252
0.0208027
0.192807
-0.213609
-0.342698
0.212494
0.177391
-0.189494
0.0121026
0.157885
-0.212479
0.0545937
0.507847
-0.436661
0.331251
-0.473167
-0.463294
0.560129
0.0233179
-0.238026
0.0413316
-0.608111
0.553462
0.054649
-0.0132469
0.00479447
0.00845242
1.876
-1.5683
0.162663
0.0368749
-0.199538
-1.51255
-0.337419
0.263402
-1.00507
1.93882
0.255712
-0.325428
1.99409
-1.11952
0.243101
-0.310189
-0.15386
-0.391447
-1.34714
-0.0621518
1.61941
1.3117
-1.1035
-0.101734
0.141409
-0.0954149
-1.494
-0.288784
0.28217
0.239953
-0.362859
-0.360372
0.286135
-0.0819364
-1.32792
1.30037
-1.45195
1.49741
-1.18862
-0.468516
0.423738
0.655502
0.379586
-0.390771
-0.0557562
0.0583131
0.345012
-0.403325
-0.362165
1.43249
-0.978935
-0.996784
-1.97531
-0.0777639
0.074119
0.00364487
-0.0513526
1.47604
-1.42468
1.02985