/*--------------------------------*- C++ -*----------------------------------*\
| =========                 |                                                 |
| \\      /  F ield         | OpenFOAM: The Open Source CFD Toolbox           |
|  \\    /   O peration     | Version:  2306                                  |
|   \\  /    A nd           | Website:  www.openfoam.com                      |
|    \\/     M anipulation  |                                                 |
\*---------------------------------------------------------------------------*/
FoamFile
{
    version     2.0;
    format      ascii;
    arch        "LSB;label=32;scalar=64";
    class       volVectorField;
    location    "4.5";
    object      U;
}
// * * * * * * * * * * * * * * * * * * * * * * * * * * * * * * * * * * * * * //

dimensions      [0 1 -1 0 0 0 0];

internalField   nonuniform List<vector> 
5098
(
(2.67744 0.959645 0)
(2.10607 0.122861 -3.08759e-20)
(2.45821 0.0628761 -2.67568e-21)
(1.52995 -0.684976 7.92519e-19)
(2.02165 -0.5775 0)
(0.884464 -0.427563 0)
(2.37845 0.00872806 -9.02381e-21)
(2.35976 -0.207634 1.35565e-21)
(2.5991 0.0243535 -5.33508e-20)
(2.00026 -0.277079 1.17107e-19)
(0.687465 -0.902512 0)
(2.23831 0.0248723 1.90594e-19)
(2.49215 -0.428839 -1.08944e-20)
(0.934677 -0.45396 0)
(2.04098 -0.191873 8.24989e-20)
(1.99367 0.0187508 5.83882e-22)
(0.70278 -0.497715 -1.69668e-20)
(-0.0208857 -0.918926 0)
(-0.416605 0.313209 4.98159e-19)
(0.601997 -0.421799 1.91922e-20)
(1.84122 0.561985 -7.7066e-20)
(1.9174 0.0137854 2.34326e-21)
(2.10377 -0.820354 0)
(0.757519 0.0280591 2.95398e-20)
(-1.21081 0.406332 0)
(1.4723 -0.593478 0)
(2.02318 0.0183104 1.26046e-19)
(1.85377 -0.782484 2.13044e-19)
(-0.213732 0.525093 -1.5061e-18)
(1.68416 -0.740433 0)
(2.41515 -0.190874 -1.1756e-19)
(0.713248 -0.345376 0)
(2.02702 0.133425 -1.41853e-19)
(1.08417 -0.694074 0)
(2.48924 0.29203 -4.69907e-20)
(3.35256 0.0388977 1.54871e-18)
(1.87019 -0.456328 1.54316e-19)
(2.00931 -0.00494615 -3.28699e-21)
(1.34795 -0.433571 5.74758e-19)
(1.38342 -0.643965 0)
(1.53702 -0.698105 -3.7382e-19)
(1.66039 -2.27173 -1.29799e-18)
(1.48823 -0.599076 0)
(2.66651 -0.176998 4.74896e-20)
(2.45395 0.512406 4.38932e-20)
(2.08357 0.0616527 6.47523e-21)
(0.562656 -0.510267 1.04805e-20)
(1.06915 -0.353138 0)
(2.41162 -0.216211 0)
(1.53453 -0.651713 8.44361e-20)
(2.25594 0.103329 4.30805e-20)
(1.63968 0.444303 -4.72259e-19)
(-1.90954 1.04884 -1.45695e-20)
(2.05189 -0.116091 1.86717e-19)
(0.948924 -0.475446 -3.51189e-19)
(1.57578 0.114194 0)
(1.82785 0.285221 -2.55813e-19)
(1.63846 -0.669616 0)
(0.844478 -0.414672 0)
(1.88612 0.00682891 -1.76821e-20)
(1.13535 -0.175071 6.4619e-20)
(0.15053 -0.174017 -5.57924e-20)
(2.48034 0.339171 0)
(2.44312 -0.408881 0)
(-2.19402 1.25119 2.69984e-18)
(0.805919 -0.403689 4.36928e-19)
(2.09941 -0.0102509 8.87018e-21)
(2.27181 0.120307 7.1414e-21)
(2.10085 -0.259853 1.88228e-19)
(1.67894 -0.70298 2.4873e-19)
(1.91352 0.205547 1.84493e-20)
(1.45964 -0.444227 -9.66859e-21)
(1.92722 -0.801689 0)
(1.2561 -0.538417 0)
(1.684 -0.00693604 1.63845e-20)
(1.11639 -0.545894 -4.04408e-19)
(1.76667 0.23857 0)
(1.55497 0.217663 4.4102e-19)
(2.56777 -0.227179 6.16718e-20)
(1.61117 0.17287 0)
(1.72799 -0.00156912 0)
(3.73383 -1.61069 8.75291e-19)
(1.6985 -0.294012 5.39704e-19)
(1.07502 -0.734002 -2.13331e-21)
(-0.00294092 -1.04203 9.68444e-20)
(1.52368 -0.672431 2.44145e-19)
(0.0645319 0.277457 -2.65366e-19)
(1.79745 0.193431 2.6313e-21)
(2.5389 -0.21799 5.27016e-20)
(1.17094 -0.0260026 6.64452e-20)
(2.28844 -0.277102 -8.35175e-21)
(-0.113058 0.287839 9.30364e-19)
(2.37776 -0.0506656 -2.28078e-19)
(1.55073 -0.67056 -4.22628e-19)
(1.32443 -0.457988 1.01386e-19)
(1.38317 -0.400011 5.74716e-21)
(1.04432 -0.523826 -3.42638e-19)
(1.50463 0.318218 3.2667e-19)
(1.66733 0.0477353 9.45415e-21)
(2.04125 -0.491999 -1.29038e-19)
(1.67946 -1.02686 -8.47319e-20)
(1.00194 -0.494787 -4.17375e-19)
(-0.0669295 -0.0785215 1.61295e-20)
(2.23252 0.24776 -1.67937e-20)
(1.54764 0.189677 -5.01273e-19)
(2.47148 1.11307 0)
(1.97689 0.242095 2.70113e-19)
(2.23942 0.0564857 1.72514e-21)
(1.0058 -0.399285 7.77493e-20)
(0.556701 -0.82147 0)
(1.0467 -0.503066 -9.14039e-19)
(1.55294 0.684181 7.31807e-19)
(1.85465 -0.0215655 -2.65923e-19)
(-1.43362 1.54699 2.30894e-19)
(1.79587 0.635498 1.10175e-19)
(0.383473 -0.403951 0)
(3.47656 -1.69086 1.39493e-18)
(2.7218 1.38263 0)
(1.95793 0.213251 1.014e-20)
(0.787162 -0.0236499 -4.54808e-19)
(1.70617 0.424101 3.87795e-19)
(1.64567 2.04615 -3.54311e-20)
(2.0745 -0.320626 -7.32261e-20)
(0.589461 -1.56626 -1.32145e-18)
(-0.735194 1.29237 -1.21636e-18)
(0.334937 -0.202115 9.76804e-22)
(2.23144 -0.0584003 1.53818e-19)
(2.08462 -0.784429 -2.6254e-19)
(1.3591 -0.130999 -1.20339e-19)
(-1.42995 1.44329 -4.18209e-19)
(-1.07888 -0.749463 -7.85406e-19)
(1.10473 -0.484131 -5.75036e-19)
(1.13504 -0.481507 4.81721e-19)
(2.61085 1.43315 -1.33465e-19)
(1.5245 -0.858486 -1.85681e-19)
(2.5296 -0.736335 3.04366e-19)
(2.07773 2.54434 6.79877e-19)
(1.95486 0.25355 1.81578e-19)
(0.866175 -0.424405 0)
(1.99327 -0.0996866 -5.94441e-19)
(1.58757 0.579026 -3.11975e-19)
(1.26714 -0.306081 5.46609e-21)
(1.75503 -0.798788 4.11075e-19)
(2.41242 0.0429547 -1.45408e-20)
(2.0288 0.0505811 -4.47323e-20)
(2.15496 0.219772 0)
(2.10245 -0.26331 1.9491e-19)
(1.88367 -0.644548 0)
(2.60564 -0.16666 3.64275e-19)
(1.63633 -0.752725 1.57528e-19)
(2.75757 -2.32443 -4.4623e-19)
(2.41706 0.394584 0)
(1.88685 -0.666733 7.26123e-20)
(2.02227 0.0458396 0)
(0.0479469 0.17537 -3.36314e-19)
(0.79372 -0.302383 -1.89289e-19)
(1.64321 -0.660431 -4.4507e-19)
(1.63633 -0.979741 -5.66914e-20)
(1.481 -0.690434 -3.0575e-19)
(-0.338986 0.280339 1.55832e-18)
(1.94979 -0.437251 -4.21548e-19)
(2.04405 -0.23712 -1.13534e-19)
(0.982265 0.224961 -4.93108e-19)
(1.80896 -0.170757 -3.34257e-19)
(-0.538559 -0.469199 -1.36528e-19)
(2.49407 -0.174161 -1.14131e-19)
(1.98993 -0.663033 -2.52314e-19)
(2.35184 -0.576392 0)
(-1.23684 0.251203 2.89018e-19)
(1.70324 -0.55528 -4.85399e-19)
(1.70617 -0.418476 -4.00455e-21)
(1.54455 -0.626959 -2.87545e-19)
(2.23427 0.636951 1.00599e-19)
(1.85034 -0.753091 3.80984e-19)
(2.67911 -0.00175424 0)
(1.98668 0.00408633 0)
(1.74042 -0.302759 -2.09278e-19)
(3.49578 0.0489337 -6.41632e-20)
(1.75285 -0.127458 4.61783e-19)
(0.253947 0.114402 0)
(1.85276 2.31933 0)
(3.48339 -1.64149 -9.23484e-19)
(1.76979 -0.558013 5.98115e-19)
(-0.580139 -0.452529 0)
(1.83522 -0.161674 0)
(2.85351 0.755183 5.41678e-19)
(1.55762 0.347128 0)
(1.8865 -0.432222 5.32141e-19)
(0.982144 -0.479509 7.86008e-19)
(-1.50261 1.70458 -6.62657e-19)
(1.72186 0.815401 0)
(1.53671 -0.213882 1.26866e-19)
(1.95105 -0.819563 0)
(1.69817 -0.00976173 2.22386e-20)
(2.47718 -0.199502 1.25984e-20)
(-0.484294 0.575574 -1.01065e-18)
(3.96562 -0.84815 5.71802e-19)
(2.63226 -0.827661 0)
(1.98067 0.0381521 -6.52829e-21)
(1.73124 -0.539425 -8.82571e-20)
(-1.5769 -0.0343942 -1.49429e-18)
(1.70803 0.357269 5.9032e-21)
(2.46185 0.540696 2.69442e-21)
(2.21414 0.0119564 4.86562e-21)
(1.54763 0.0490055 2.10307e-19)
(0.767835 -0.311393 -1.35501e-19)
(2.6294 0.0939201 -1.78058e-20)
(1.17645 -0.538719 0)
(2.26789 -0.103849 0)
(1.2619 -0.614259 -4.3069e-19)
(1.9498 -0.153066 -1.6973e-19)
(1.74313 0.310671 3.13967e-19)
(1.64382 -0.238913 -1.27871e-19)
(2.12031 0.0892924 -1.50337e-19)
(2.08286 -0.00882237 -1.95055e-19)
(0.554346 0.368375 -4.30921e-19)
(1.71508 -0.0343988 0)
(0.439988 -0.897261 -8.75587e-20)
(-0.374071 0.745861 1.72466e-19)
(1.98195 0.0279573 1.1726e-19)
(2.3174 -0.281092 -3.13629e-20)
(1.58466 -0.304582 0)
(2.14692 0.0640653 1.57981e-20)
(2.29848 -0.333722 1.61138e-19)
(-1.4197 1.11675 3.06839e-19)
(1.9764 -0.15608 0)
(0.374275 -0.0866143 0)
(1.95664 0.0197336 0)
(2.00063 -0.495506 0)
(1.704 -0.680297 7.55606e-21)
(1.84061 0.435616 0)
(0.580306 -0.239612 -4.9319e-19)
(3.86568 -1.29087 -6.46679e-19)
(2.03461 0.00261179 -3.50638e-21)
(2.62569 -0.0295596 -6.61233e-20)
(2.41313 -0.0551313 0)
(1.48102 1.54514 -1.44627e-19)
(-1.81998 0.292265 -3.10255e-18)
(3.01199 -0.305269 0)
(1.84525 0.0399277 3.3184e-19)
(3.44089 -1.78151 -3.05623e-18)
(2.23662 0.591825 0)
(2.32348 0.053085 0)
(1.01955 -0.235886 8.37353e-19)
(1.82238 0.481104 -4.0127e-19)
(2.31157 -0.142221 -2.02176e-19)
(1.05162 -0.499955 9.34735e-20)
(0.472887 -0.84029 -4.58109e-20)
(0.694373 -0.564223 0)
(2.32216 -0.152556 5.73588e-20)
(2.2003 0.81363 -6.28462e-20)
(1.86044 -0.780855 3.95291e-19)
(0.488146 -0.232959 7.21615e-19)
(-1.81687 0.228158 1.18758e-18)
(1.93082 0.0529113 -2.45342e-19)
(-1.7028 0.81104 2.93426e-18)
(1.56245 -0.802484 1.61485e-19)
(1.2035 -0.4 -6.91731e-20)
(1.09519 -0.370715 -3.52589e-19)
(1.92175 0.0413876 -5.39679e-22)
(2.77638 0.7448 8.2196e-20)
(-2.1929 1.31211 1.26605e-18)
(-1.4289 0.532532 5.5412e-19)
(1.87563 -0.812497 0)
(1.98453 0.00657004 -2.26041e-21)
(-0.00688741 -0.261227 3.28317e-20)
(-0.331603 0.21301 -1.81253e-18)
(0.680325 -1.01434 0)
(1.44639 -0.372951 0)
(1.86383 0.0254554 -3.05741e-20)
(-1.67171 1.526 8.06739e-19)
(1.86645 0.0912929 8.74386e-21)
(-0.100534 0.177951 -8.1813e-19)
(1.4913 -0.330174 0)
(1.10657 -0.432803 2.36211e-21)
(0.0710172 -0.111187 3.03982e-20)
(1.52777 -2.42252 -1.00816e-18)
(2.61693 -1.91087 0)
(2.23688 -0.726645 0)
(1.93019 -0.139458 0)
(-1.143 -0.259091 -4.71683e-19)
(2.38047 -0.175452 1.46793e-19)
(-1.83979 1.33806 -1.27858e-18)
(2.44718 -0.137265 -1.63072e-19)
(1.9665 -0.532583 -5.1268e-21)
(0.841818 -0.474951 0)
(1.94179 0.0583378 0)
(2.22389 0.229689 -4.11952e-20)
(2.46811 -0.17265 9.19075e-20)
(1.86005 -0.00527083 -2.90136e-19)
(0.827947 -1.33544 0)
(-0.663376 1.54795 6.4075e-19)
(1.03193 -0.00783104 -2.45453e-19)
(2.4578 0.379119 3.85242e-20)
(1.9561 -0.615304 4.10014e-19)
(1.06962 -0.190817 -5.63376e-20)
(2.53706 0.106724 0)
(2.45025 -0.191303 -1.04553e-19)
(1.99732 0.0554768 0)
(1.94839 0.00420265 -1.51722e-19)
(2.17536 0.20901 3.31092e-20)
(2.54968 0.0704163 1.1468e-19)
(1.59511 -0.419511 5.6006e-19)
(1.90055 0.445584 2.19483e-19)
(0.0126548 -0.217123 -5.26808e-20)
(1.78068 -0.720927 -2.39195e-19)
(2.61205 1.86528 -1.58058e-19)
(2.01744 0.00385155 0)
(1.81085 -0.427053 0)
(0.552764 -0.559019 0)
(2.27298 -0.288703 4.05984e-20)
(0.253329 -0.131207 7.21748e-20)
(0.814527 -0.40596 4.62323e-19)
(1.8409 0.00116266 -3.80872e-20)
(2.54366 -0.426911 -4.38315e-20)
(0.135476 0.0950755 6.5923e-19)
(1.99558 2.35932 -7.31781e-20)
(2.15571 0.031317 -1.51223e-20)
(2.24284 -0.15175 5.59802e-19)
(0.845774 -0.353454 0)
(2.71314 -0.228035 -7.35944e-20)
(-0.527209 1.27517 -1.42855e-18)
(2.87348 -0.201622 -4.95811e-19)
(0.309811 -0.0286299 -2.45295e-22)
(1.68105 0.082502 5.63166e-21)
(1.33366 -0.40465 3.86094e-19)
(2.21991 0.866961 0)
(2.0218 0.113141 -9.16403e-20)
(1.01758 -0.407229 -8.2217e-19)
(1.9435 0.198047 -9.40438e-21)
(1.26001 -0.610709 0)
(2.2655 -0.108433 -1.63646e-19)
(1.01373 -0.48842 2.60088e-19)
(2.27829 -0.722347 -1.2897e-19)
(1.70456 -0.709832 -3.37171e-19)
(2.29567 0.0690376 -3.55795e-20)
(2.38047 -0.378511 8.82456e-21)
(0.937723 -0.464014 5.11894e-19)
(2.14561 -0.0554661 2.29042e-19)
(1.80527 -0.366747 0)
(1.77698 -0.811138 -3.89015e-19)
(1.65925 -0.703861 -1.0176e-18)
(2.61166 -0.224572 2.44731e-20)
(1.98423 0.019853 3.89589e-20)
(2.1376 1.2922 0)
(1.64734 0.117978 0)
(2.01776 -0.101724 -1.86056e-19)
(0.654851 0.411007 3.6269e-19)
(2.76192 1.31649 0)
(2.30144 -0.0326294 1.62526e-19)
(1.50438 -0.669368 -4.18161e-21)
(0.872192 0.407608 -5.95881e-19)
(0.839135 -0.359184 -4.37912e-19)
(-1.37242 -0.181561 5.19713e-19)
(1.82269 -0.00602848 2.21145e-20)
(-1.2052 -0.327057 1.4485e-18)
(2.46975 -0.714149 -2.63738e-19)
(2.16319 0.0134792 0)
(1.39138 -0.100236 -1.03674e-19)
(1.50526 -0.450561 0)
(1.95772 0.108724 -4.47698e-19)
(1.98325 -0.445794 0)
(2.16314 -0.0291735 -1.58899e-19)
(1.83048 0.239393 -2.2642e-21)
(2.87069 -0.12258 -3.12839e-20)
(1.08298 -0.408974 4.6522e-19)
(2.0031 0.0353376 -3.65678e-19)
(1.97631 0.0944322 -3.68978e-19)
(1.96148 -0.846256 0)
(-1.14083 0.181147 0)
(1.16252 -0.448678 -4.59596e-19)
(2.76805 -0.21042 0)
(3.38311 0.371942 -8.84249e-19)
(1.35306 0.141873 0)
(1.52122 -0.446429 1.29402e-20)
(0.202719 -0.228176 4.91467e-20)
(1.74434 -0.572755 7.10448e-19)
(0.644928 -0.241288 -3.16555e-20)
(2.33777 -0.547479 0)
(1.86581 0.194255 5.05371e-21)
(1.79918 0.00507025 -2.38307e-19)
(0.386395 -0.236353 -2.69696e-21)
(1.94442 0.0606257 -2.08617e-19)
(2.51651 0.0322666 -7.03526e-20)
(2.60211 0.0895944 -3.3952e-20)
(3.18943 0.886414 3.53867e-19)
(2.48614 0.413034 -6.8323e-20)
(-1.64968 0.347267 -5.67011e-19)
(1.68679 -0.497937 0)
(-0.0581433 -0.0686831 -2.18331e-20)
(1.96819 0.0879309 -1.60769e-19)
(2.51305 -0.24992 0)
(2.03797 0.0290778 1.36867e-19)
(1.1184 -0.538777 -3.43504e-19)
(1.63887 1.32644 1.32767e-19)
(3.97953 -0.0738168 0)
(1.35744 -0.643639 1.24223e-19)
(1.96475 1.08316 0)
(2.25794 0.035239 3.30944e-20)
(2.18336 -0.236612 -1.15799e-19)
(-0.526522 -0.122719 1.07034e-18)
(1.00396 -0.0450792 0)
(1.61563 0.302126 2.24199e-19)
(2.00454 0.0675264 1.45516e-19)
(0.433759 -0.345698 0)
(1.74548 0.0114035 0)
(2.02485 -0.174077 0)
(-0.174106 0.0623604 1.53519e-19)
(0.322951 -0.0533256 -3.48867e-20)
(2.57526 -0.106831 0)
(2.03859 0.0385928 0)
(1.55273 -0.525193 6.50805e-20)
(-2.37303 1.26597 0)
(2.38817 0.396114 2.10707e-21)
(2.90896 1.19524 1.99056e-19)
(2.03963 0.137327 8.82724e-21)
(1.82558 0.400479 -5.64693e-21)
(0.878987 0.504844 6.85526e-19)
(2.94311 1.35958 -2.08788e-19)
(2.36865 -0.255708 7.33102e-21)
(2.04294 -0.105692 1.56225e-19)
(1.6171 -0.149813 -2.51757e-19)
(1.85115 -0.868578 2.67731e-21)
(2.01326 0.0718251 0)
(-1.13856 -0.369085 -1.38633e-18)
(-0.494189 0.738655 0)
(1.30194 -0.551159 3.75233e-20)
(1.80816 -0.593996 0)
(2.29643 -0.281529 0)
(1.26475 -0.605099 -2.87534e-19)
(2.04051 0.0277394 -1.04365e-20)
(-0.27981 0.450716 -1.64183e-18)
(2.02032 0.0101454 8.37018e-21)
(1.78869 -0.69607 3.85984e-19)
(3.05994 1.10532 2.2922e-19)
(0.375674 -0.0437232 1.4104e-18)
(2.3166 0.0460167 2.3964e-20)
(2.06274 -0.830384 1.52516e-19)
(1.9677 0.0924219 -2.51957e-19)
(3.62194 -0.118168 0)
(1.7709 -0.087486 -4.80123e-19)
(1.8059 -0.475826 3.9577e-19)
(1.99504 0.0814133 -5.38376e-19)
(0.61987 -0.364967 -9.47521e-21)
(1.56835 1.33581 -1.31433e-19)
(2.87171 1.2429 3.00554e-19)
(2.98235 -0.562291 0)
(1.97494 -0.10668 0)
(0.794625 0.487588 -6.46636e-19)
(2.03121 -0.11224 1.00185e-19)
(0.630504 -0.60292 0)
(2.2839 -0.134944 -1.40871e-19)
(2.04382 0.00121376 -2.99943e-19)
(0.793747 -0.505083 -6.1383e-21)
(0.732285 -0.739772 4.64649e-20)
(2.68029 0.0357987 -8.80765e-21)
(1.3064 -2.21932 6.01406e-20)
(2.36619 -0.387245 -3.17183e-19)
(1.92211 -0.45335 2.77385e-19)
(3.34204 0.928756 7.97837e-19)
(1.5021 -0.617312 3.64018e-19)
(1.96718 0.142093 -9.99367e-22)
(0.958482 0.33361 5.02006e-19)
(2.12145 2.09334 0)
(1.69196 -0.473705 2.28375e-19)
(0.245467 -0.943336 0)
(-1.83215 1.5374 -3.2087e-18)
(2.67456 -2.21628 0)
(0.0304953 -0.10856 -1.72526e-19)
(1.60126 -0.68202 -5.1346e-19)
(2.13837 0.733768 -3.55227e-19)
(2.02962 -0.838328 0)
(1.29165 -0.698205 0)
(2.91291 -0.349588 0)
(1.96716 0.10656 1.11556e-19)
(2.91445 0.594468 -2.25429e-18)
(0.0903246 0.230741 1.31044e-18)
(1.56324 -0.273624 -7.76511e-21)
(3.49425 0.920984 -8.90246e-19)
(2.04548 0.184366 0)
(1.21581 2.06811 1.95147e-19)
(2.49619 1.30953 1.30811e-19)
(1.59635 1.22224 -3.79297e-19)
(1.51616 -0.709317 3.29995e-19)
(2.60758 -0.210101 3.66302e-21)
(1.13543 -0.552102 5.80021e-19)
(2.26546 0.489596 0)
(2.15826 -0.191712 1.09655e-19)
(1.22196 -0.372033 7.57196e-20)
(1.89722 -0.0253856 2.878e-20)
(3.36611 0.577961 -4.68567e-19)
(1.81385 -0.59019 0)
(2.59353 0.682951 0)
(3.73176 -0.247661 0)
(0.166967 0.0106714 0)
(1.95379 -0.0249428 0)
(1.39389 -0.519185 1.5562e-19)
(3.68544 0.863094 6.09373e-19)
(1.42359 -0.592044 4.32001e-19)
(2.05123 0.0746956 2.46275e-19)
(-0.0235615 -0.772681 0)
(2.03012 -0.854453 2.97318e-21)
(-0.50102 0.199618 0)
(0.232919 -1.18852 -1.49745e-19)
(-0.525685 0.357711 6.8114e-19)
(4.08308 0.395018 -3.50191e-19)
(1.98708 0.0784364 2.67092e-19)
(2.076 0.241991 -8.20465e-20)
(4.17266 -0.375598 -5.31223e-19)
(2.43856 -0.00540531 0)
(-0.816568 1.41386 1.15557e-18)
(1.97944 -0.0269303 0)
(1.51922 0.95627 1.57256e-20)
(2.50307 -0.129612 0)
(2.07652 0.1831 -1.05808e-19)
(2.04587 -0.120519 0)
(0.874395 -0.325642 -3.09101e-19)
(-2.34894 1.02983 1.95878e-18)
(2.15539 -0.116668 -1.09651e-19)
(1.35699 0.455196 4.51054e-19)
(-0.266909 0.0869201 -3.23384e-19)
(1.99287 -0.586939 0)
(0.993489 -0.207954 -1.18487e-18)
(1.9113 0.221581 2.95776e-21)
(3.70158 0.577657 -1.26853e-18)
(1.90866 -0.00847354 4.33544e-21)
(3.62307 -1.26745 1.60437e-18)
(3.32597 0.676554 0)
(1.74172 -0.782527 -8.33628e-20)
(1.42038 -0.648754 0)
(2.54334 -0.225192 1.36157e-20)
(0.426936 -0.112068 7.51344e-20)
(-0.553994 -0.875885 0)
(2.44695 0.316398 0)
(1.52201 -0.915375 -1.08696e-19)
(2.52728 0.612477 0)
(1.75322 1.85368 4.16805e-20)
(3.02992 0.895821 -3.56084e-19)
(-1.19776 1.05246 -9.71211e-19)
(0.775777 -0.612182 -1.40306e-20)
(2.01034 0.0355609 -7.006e-21)
(0.883336 -0.467494 6.67129e-21)
(-2.30288 1.13441 -1.30035e-18)
(1.85369 0.0169141 5.06854e-19)
(0.717815 -0.459303 6.97443e-21)
(0.0471281 -0.0805989 0)
(2.48624 0.166278 -9.86307e-20)
(1.45844 -0.918104 1.16856e-19)
(0.369801 0.246029 8.09715e-20)
(3.50111 0.658341 9.33625e-19)
(2.86492 1.63695 0)
(1.80352 -0.516931 -3.9757e-19)
(1.45035 0.621856 -4.16859e-21)
(2.89995 0.697638 -9.982e-20)
(2.5506 -0.111051 -3.36731e-19)
(0.860047 -0.851309 1.52089e-20)
(-0.715217 -0.959049 1.03745e-18)
(1.44134 -0.58038 -1.04204e-19)
(0.624191 -0.689987 5.57389e-21)
(2.53054 -0.178405 -2.95665e-19)
(0.744738 -0.847789 -1.7047e-20)
(1.91174 -0.542202 0)
(1.8827 -0.144367 -4.65214e-19)
(-0.611863 0.797592 0)
(1.11276 -0.605073 5.0415e-21)
(-0.654396 0.29754 2.1899e-19)
(0.155687 0.00254672 1.03906e-18)
(1.97117 0.228193 -2.42756e-21)
(-1.10744 0.356374 4.87438e-20)
(-0.0844129 -0.206689 0)
(2.16184 -0.804618 4.10527e-19)
(2.12949 -0.841565 1.05688e-19)
(-0.358552 0.127724 -8.79701e-19)
(1.7907 0.508956 0)
(1.67471 0.509583 0)
(0.177591 0.366083 0)
(1.55528 -0.58736 -3.27623e-20)
(1.87756 -0.0106554 -4.50304e-19)
(1.31889 0.19479 0)
(1.72342 -1.11655 0)
(2.26405 0.195023 -8.29943e-21)
(2.4057 -2.2109 -3.06292e-20)
(2.17981 0.29524 -3.11142e-19)
(1.60415 -0.379156 -2.80445e-21)
(1.75748 0.0108353 3.61791e-20)
(1.93802 -0.016279 -3.49274e-20)
(1.91762 0.186279 -1.21897e-20)
(1.97319 0.479497 -2.5662e-20)
(1.87419 1.25545 0)
(-2.06869 1.01001 2.85857e-20)
(-0.926524 1.8233 0)
(0.981375 0.201048 0)
(2.90004 0.189886 -4.97237e-19)
(-0.299319 -0.84249 0)
(2.50053 0.33639 0)
(1.90642 -0.103827 7.15843e-19)
(1.84429 -0.81648 0)
(2.02973 0.221879 3.8222e-19)
(3.30644 0.642649 4.65778e-19)
(3.23863 0.510415 1.62571e-19)
(1.96505 0.166029 1.05526e-21)
(1.11438 1.43669 2.44508e-19)
(2.17597 -0.841119 4.96265e-21)
(1.92417 -0.768747 -9.23333e-21)
(1.13912 -0.427686 4.48672e-19)
(0.933256 -0.521895 0)
(0.927392 -0.45701 0)
(-0.913866 -0.0981178 -5.81911e-19)
(-2.17199 0.908578 -2.6577e-18)
(1.25321 -0.669157 0)
(0.87744 -0.501034 5.60837e-21)
(-1.92927 1.04362 0)
(-0.318935 0.874785 1.21833e-18)
(1.10044 -0.506087 -5.82593e-19)
(3.3373 0.365485 -2.20898e-20)
(3.16176 0.626027 3.74732e-19)
(1.20204 -0.392062 9.08905e-20)
(2.47341 -0.089283 1.47904e-19)
(2.36206 0.958675 0)
(2.51952 0.888311 0)
(1.03337 0.064422 0)
(0.166921 -0.444933 -6.70839e-19)
(1.39141 -0.525145 0)
(2.24871 0.652177 0)
(1.93229 0.0168556 0)
(2.42386 -0.375546 -6.761e-20)
(-1.49476 1.85574 4.22012e-19)
(2.00594 -0.773408 -2.16506e-19)
(1.51908 -0.59682 9.61114e-20)
(1.30291 0.0738472 0)
(-0.594876 -1.06778 0)
(1.96354 -0.587747 -3.74012e-19)
(1.55741 0.599445 6.65558e-19)
(-1.46809 0.386104 -4.93782e-19)
(2.24451 0.283541 -6.20951e-21)
(1.71486 -0.444598 4.18726e-19)
(0.960994 0.533389 -1.07598e-18)
(-2.24163 0.97363 0)
(1.20527 1.41449 -5.66754e-19)
(0.363875 0.40965 -6.67477e-19)
(3.31587 0.361781 0)
(2.23314 -0.111395 0)
(1.68936 -0.0713467 0)
(2.04888 0.048811 -4.41983e-19)
(1.43382 0.343694 -4.63369e-19)
(1.63596 0.148893 0)
(3.11468 1.40071 1.66261e-18)
(1.77796 -0.794228 3.90395e-19)
(2.43331 -0.363523 7.90106e-20)
(-0.265583 -0.212219 1.12773e-19)
(2.04009 -0.273687 0)
(2.30228 0.102516 6.15565e-20)
(1.75262 -0.402917 0)
(1.40462 -0.991603 -1.16916e-19)
(1.7172 -0.777196 0)
(2.10774 -0.767668 4.84809e-19)
(1.46167 -0.314547 -1.23898e-21)
(2.0644 0.139092 -1.06082e-20)
(2.45089 -0.377099 0)
(1.80018 -0.766673 0)
(1.5782 -0.669826 -5.35406e-19)
(2.37318 0.378179 -2.32695e-21)
(0.469491 -1.15756 6.2056e-20)
(0.84256 -0.402788 4.54597e-19)
(1.90009 -0.0355883 0)
(1.59895 0.233969 -7.00391e-19)
(2.27946 0.0106088 -3.65779e-20)
(1.54875 -0.641555 -4.43876e-20)
(2.05372 0.157184 -1.31029e-20)
(2.06221 0.185252 0)
(1.17628 -0.332287 6.38017e-19)
(0.927841 0.25333 -6.91191e-19)
(3.71561 0.619234 1.0149e-20)
(1.83354 0.237667 -7.86542e-19)
(-0.0912149 -0.302479 7.89312e-20)
(-0.923048 0.234348 -1.6592e-18)
(1.57904 -0.299483 -3.34004e-20)
(2.06227 -0.0386872 -4.15707e-20)
(1.39275 0.4278 1.44315e-18)
(-0.421411 0.34622 6.67745e-21)
(-0.189654 -0.453316 1.59255e-19)
(0.232152 -1.04954 1.54921e-19)
(1.7931 -0.00510855 4.2149e-20)
(2.36911 -0.220484 0)
(3.10084 0.239289 2.28944e-18)
(1.13723 -0.553723 2.62725e-19)
(1.69859 -0.235059 2.49263e-19)
(-0.38014 0.350891 0)
(1.61562 -0.377711 -6.69279e-20)
(1.96423 0.0402208 6.40736e-22)
(2.0738 0.0208699 0)
(-2.42353 1.39819 1.02519e-18)
(1.11032 -1.49286 3.81353e-20)
(1.38336 0.29447 0)
(1.00974 -0.36982 0)
(1.59316 -0.587774 -6.2959e-20)
(1.52689 -0.766325 -1.63349e-20)
(2.84409 0.199138 1.77848e-19)
(-0.0259468 -0.38954 0)
(1.94871 -0.0153462 -4.02828e-19)
(2.11554 -0.622144 -8.23882e-20)
(2.17262 -0.745084 2.84783e-20)
(1.19509 -0.448808 5.65203e-19)
(-0.284089 -0.632902 -1.91285e-19)
(0.00184945 -1.18651 1.57337e-19)
(3.62535 0.615084 -8.78983e-21)
(2.27228 -1.85434 0)
(2.38727 0.938462 -1.33332e-18)
(1.5728 -0.619584 2.6761e-19)
(2.08748 2.07385 1.93409e-19)
(0.800761 0.686698 0)
(1.14586 -0.221514 -5.62064e-19)
(1.19692 -0.497854 -6.86243e-19)
(-0.76821 -0.396289 3.51643e-19)
(-1.22686 1.68475 -1.29795e-18)
(2.4125 1.58197 0)
(-0.145954 0.104358 -8.30887e-19)
(2.37355 0.555561 0)
(-0.707125 1.95777 -9.0974e-19)
(-0.326435 -0.545188 1.45209e-18)
(-1.1363 1.23841 0)
(-0.546857 -0.634734 1.06757e-19)
(1.63544 -0.0890093 -1.02518e-19)
(-0.98451 1.04918 5.35683e-19)
(1.67128 -0.65489 4.87385e-19)
(-1.15297 0.0965169 -1.11962e-18)
(1.16978 -0.529972 0)
(2.02148 0.0579279 1.39842e-19)
(0.789342 0.0947772 0)
(2.27758 0.216383 -2.6913e-21)
(-0.362622 -0.568742 -1.4578e-18)
(0.537804 -0.204084 2.93801e-19)
(2.07418 0.205054 0)
(1.87923 -0.747871 -3.73036e-19)
(2.86778 -0.238993 1.40082e-19)
(-0.304168 -1.04427 4.78116e-19)
(1.20786 -1.36302 0)
(-0.309973 -0.961916 -4.24958e-19)
(3.53803 0.562342 -9.40679e-19)
(1.65323 0.217164 8.96324e-19)
(1.91165 -0.432631 0)
(2.2213 -0.14167 2.70478e-19)
(-0.736839 0.0412616 1.0284e-18)
(-1.89172 1.8345 -2.42213e-19)
(2.19509 -0.578829 1.49166e-19)
(0.0970325 -0.386973 0)
(1.76616 -0.325251 -3.60768e-20)
(1.97862 0.126542 4.69643e-22)
(2.50932 -0.368749 1.25666e-19)
(2.24012 0.0174242 0)
(-0.399568 -1.27895 4.19174e-19)
(1.65786 -0.447761 -6.59312e-22)
(1.2775 -0.362711 7.02119e-20)
(2.2085 0.405409 0)
(2.0333 -0.792086 -1.71223e-19)
(-0.928852 -0.203265 7.3421e-19)
(1.72643 -0.402334 -5.235e-19)
(-0.0923194 0.270874 0)
(1.48938 -0.3236 -2.92704e-20)
(2.05654 -0.76998 1.39503e-19)
(-0.300008 -0.301974 -1.86161e-19)
(1.19582 0.364282 0)
(-0.547147 0.509726 1.87266e-18)
(1.57265 -0.614926 0)
(-1.27717 -0.43856 1.17597e-18)
(1.57651 -0.862168 0)
(1.88066 -0.0900821 -2.64369e-19)
(2.12964 -0.232065 -2.72887e-19)
(2.99639 1.31056 -8.34573e-19)
(1.57764 -0.503136 0)
(1.98854 -0.855268 -2.66638e-19)
(1.9613 0.0308566 0)
(2.42031 0.364083 0)
(2.06342 -0.853608 8.51898e-20)
(-0.89068 -0.865538 4.67445e-19)
(0.542886 -0.0380685 1.84393e-19)
(2.12179 -0.557478 -8.86878e-20)
(1.74977 0.291131 2.89398e-19)
(1.03501 -0.535055 1.33941e-20)
(2.10028 0.401039 1.45467e-19)
(-2.27497 1.04885 -2.29602e-19)
(2.13017 -2.27306 0)
(2.48543 0.253767 0)
(-2.20524 0.879726 0)
(1.00909 -0.875465 6.10981e-20)
(1.16099 -0.389004 -3.96305e-19)
(1.50382 0.143478 0)
(0.373351 -0.300909 6.88598e-20)
(2.28574 -0.149085 -1.92853e-19)
(0.182529 -0.348518 -4.82612e-20)
(1.38275 -0.492984 -1.29601e-19)
(2.15311 -0.86275 0)
(-1.30577 1.15955 1.63615e-18)
(-2.35777 1.33482 -2.30755e-18)
(-0.93472 1.30988 0)
(-0.738877 -0.132446 -1.03466e-18)
(1.95141 0.0409066 5.90239e-22)
(2.79278 -0.0652863 4.85755e-20)
(1.92921 0.069932 2.67219e-19)
(2.86046 1.01825 -3.85193e-19)
(2.44556 0.184234 8.8463e-21)
(-0.390789 0.879595 0)
(1.9356 -0.759076 0)
(0.383945 -0.247221 5.19237e-20)
(-0.749582 1.70015 0)
(1.60815 -0.326223 -6.7656e-20)
(2.14568 -0.776361 -2.59646e-19)
(0.968404 -0.452375 4.77007e-19)
(2.05128 -0.117195 -9.33507e-20)
(1.77114 0.333507 -2.8818e-19)
(1.52927 -0.607492 -2.62977e-19)
(1.62222 -0.637901 -4.8903e-19)
(1.53318 -0.696108 0)
(1.72184 -0.666494 4.65709e-19)
(1.92737 -0.0293478 0)
(2.50258 -0.397397 -5.71442e-21)
(2.00142 1.32532 9.1606e-21)
(1.32511 -0.298996 3.49586e-20)
(2.21522 -0.386278 -2.36412e-19)
(-0.332794 0.952683 -1.01393e-18)
(-2.26476 1.12539 0)
(1.53743 -1.27204 -5.32537e-20)
(0.631239 -1.95814 -8.95348e-19)
(2.08251 0.539642 -1.57715e-19)
(1.82587 -0.73005 4.34446e-19)
(2.02268 0.0436364 -4.5117e-21)
(-1.16004 1.49609 4.3449e-19)
(1.78344 -0.751994 -1.05345e-19)
(0.324328 0.141573 0)
(0.251249 -0.420197 1.2867e-19)
(1.75219 -0.358298 2.76809e-19)
(1.99827 0.0371252 -1.23398e-22)
(1.16603 -0.502377 1.00674e-18)
(-0.111716 0.327929 -1.36679e-20)
(1.69866 0.601076 0)
(0.98076 -0.795319 -2.03482e-20)
(-0.444754 -1.21566 -4.54472e-20)
(1.07125 -0.319188 -7.55697e-19)
(1.11804 -0.792831 2.36096e-20)
(2.86397 0.84096 -3.80795e-19)
(2.12842 0.522769 3.25126e-21)
(0.931377 -0.373421 3.4161e-19)
(1.79497 -0.360277 0)
(2.54018 0.185785 -1.53436e-19)
(2.29513 -0.0766576 -4.77281e-21)
(3.14199 0.81941 -3.82695e-19)
(0.319276 0.948201 0)
(3.4343 0.87944 3.82707e-20)
(-0.590336 1.90089 8.73512e-19)
(1.61253 -0.693288 1.03815e-18)
(0.26881 -0.19995 1.04015e-20)
(2.24704 0.901586 -1.10348e-18)
(-1.5829 1.41672 3.45089e-18)
(1.98877 -0.751363 4.39551e-19)
(2.10699 0.0115491 -4.07894e-21)
(0.612433 -0.202199 -8.36389e-21)
(2.60899 -0.128312 3.93216e-20)
(-0.293328 -0.146091 0)
(2.01107 0.0305325 0)
(2.38048 0.46248 0)
(1.76856 -0.679571 -4.05723e-19)
(1.62512 -0.904309 1.20186e-19)
(-0.349306 -0.0755743 0)
(1.23404 -0.359126 -1.64172e-19)
(-1.0101 0.590259 0)
(3.6464 -0.416189 0)
(-0.692435 0.457677 0)
(2.03117 0.0691885 0)
(-0.716908 0.7312 -5.8916e-19)
(-2.2624 1.1761 0)
(3.24893 -1.67047 7.64605e-19)
(1.56265 0.0421414 0)
(1.96314 0.131123 0)
(1.93912 0.225746 2.21714e-21)
(-2.36552 1.04217 0)
(2.00871 -1.30202 0)
(-0.0426232 -0.4224 0)
(2.32126 0.0625697 2.65532e-20)
(2.46904 0.83004 0)
(2.15077 -0.840096 -1.12264e-20)
(1.41859 -0.612456 -3.47642e-21)
(-1.66051 1.08177 -6.08636e-19)
(1.99698 0.0733825 6.36709e-19)
(-0.166725 -0.0559003 -8.44991e-21)
(1.0674 0.983079 -5.64819e-19)
(1.46333 0.778943 0)
(2.39537 -0.373755 8.53521e-21)
(1.68322 -0.174759 -2.43379e-19)
(1.58711 1.73866 1.30688e-19)
(1.86463 0.390935 4.01865e-19)
(0.756849 -0.263742 -7.14843e-19)
(1.50796 -0.659723 -4.06334e-19)
(2.83584 -2.14986 1.30038e-19)
(1.38253 -1.52532 0)
(2.34035 -0.50072 1.23713e-20)
(1.60397 -1.44132 6.28018e-20)
(2.58501 0.237406 -8.48038e-20)
(-1.37157 0.290322 0)
(1.83264 0.0949619 -2.9728e-19)
(3.11477 0.698946 -1.1014e-18)
(1.34803 -0.535984 5.22712e-19)
(1.22819 -0.553007 -6.30391e-19)
(1.65667 -0.763219 0)
(1.76509 -0.773266 0)
(2.85762 -1.78101 6.47805e-19)
(2.2839 -0.393305 -1.49809e-19)
(3.30293 0.175987 -6.19154e-19)
(1.83776 0.0177209 1.92468e-20)
(1.21491 -0.329458 -1.5226e-19)
(1.71378 -0.510739 4.44118e-19)
(2.43806 0.282548 0)
(2.37941 0.271802 2.87441e-20)
(-2.24673 1.69898 -2.91996e-18)
(1.89003 -1.60636 4.53276e-19)
(1.02459 -0.219231 -3.0517e-21)
(-0.34233 -0.576407 8.56964e-19)
(3.33735 0.196701 5.17057e-19)
(2.58892 0.631931 8.46269e-20)
(2.4319 0.536803 0)
(0.659567 -1.0936 0)
(2.21527 -0.846872 -2.9906e-21)
(1.15509 -0.247072 0)
(1.85507 -0.382783 1.85466e-19)
(1.70481 0.255648 5.05749e-19)
(1.67577 0.447959 -1.46928e-19)
(1.59141 -0.642153 1.05977e-18)
(1.99933 0.123412 -2.37885e-22)
(1.64599 -0.0276775 0)
(1.88734 -0.015878 -5.47539e-21)
(-0.590408 0.341199 -8.50252e-19)
(2.12823 0.254931 0)
(2.59167 -0.388522 0)
(1.9103 -0.767589 1.60841e-19)
(1.97477 0.489744 2.1676e-19)
(1.07474 -0.155816 0)
(2.45133 -0.95586 1.03473e-20)
(2.59126 -0.0656708 1.70268e-19)
(2.35288 0.264153 1.65271e-20)
(1.77221 0.442442 4.32976e-19)
(0.773173 -0.697384 -2.58973e-20)
(1.56315 -0.474723 0)
(-0.0263995 0.55683 -2.5148e-18)
(0.50682 -0.218738 1.06623e-18)
(2.00033 -0.0292112 1.64712e-20)
(-0.440323 1.4069 -1.03618e-18)
(1.8003 -0.742557 3.07082e-20)
(2.55034 0.272328 2.2892e-19)
(2.26378 -2.34486 0)
(1.98999 0.178031 2.32299e-21)
(1.80996 0.0392125 9.28846e-20)
(2.21006 -0.0446988 -1.65522e-19)
(2.15266 0.572205 -1.11472e-19)
(2.20041 -0.80754 0)
(0.820006 -0.587835 0)
(2.43237 -0.00746139 0)
(2.30044 0.378563 -4.72888e-20)
(1.0419 -0.4837 7.49192e-19)
(2.45628 1.77202 -1.08495e-19)
(1.49211 -0.0980065 0)
(-2.02156 0.793568 -3.60281e-19)
(0.877854 -0.953437 3.96432e-20)
(-1.60137 0.0678522 0)
(1.97266 0.247626 -1.31362e-19)
(1.67581 0.253213 -1.69655e-19)
(2.77423 -0.380827 -7.79565e-20)
(2.03456 0.137798 -8.93936e-21)
(0.658689 -0.225633 0)
(2.16047 0.16849 -1.49059e-19)
(2.01571 -0.430151 0)
(2.05555 -0.278438 9.56096e-21)
(0.959703 0.107989 0)
(2.22037 0.829161 7.02005e-20)
(1.69279 -0.67535 -4.75942e-19)
(2.48626 0.737465 0)
(1.83299 -0.0819943 -4.57229e-19)
(2.05094 0.177032 1.23533e-20)
(1.71097 -0.329801 0)
(1.13035 -0.535945 0)
(0.510959 0.211751 -8.98774e-20)
(2.4975 -0.221251 -1.30912e-20)
(1.386 -1.21086 -5.94819e-20)
(0.525443 -0.333845 -3.05701e-20)
(2.52585 -0.104591 2.95994e-21)
(1.65732 0.0506619 6.50962e-19)
(1.77476 0.370454 -1.86948e-21)
(2.05618 0.483882 0)
(3.41934 0.771441 5.07696e-19)
(1.7064 -0.776499 0)
(1.49643 -0.682803 -4.44948e-19)