/*--------------------------------*- C++ -*----------------------------------*\
| =========                 |                                                 |
| \\      /  F ield         | OpenFOAM: The Open Source CFD Toolbox           |
|  \\    /   O peration     | Version:  2306                                  |
|   \\  /    A nd           | Website:  www.openfoam.com                      |
|    \\/     M anipulation  |                                                 |
\*---------------------------------------------------------------------------*/
FoamFile
{
    version     2.0;
    format      ascii;
    arch        "LSB;label=32;scalar=64";
    class       surfaceScalarField;
    location    "7.7";
    object      phi;
}
// * * * * * * * * * * * * * * * * * * * * * * * * * * * * * * * * * * * * * //

dimensions      [0 3 -1 0 0 0 0];

oriented        oriented;

internalField   nonuniform List<scalar> 
20045
(
0.527042
-0.607453
0.08041
-1.12584
0.453515
0.672328
0.223438
1.81387
-2.0373
-0.299135
0.41526
-0.116125
-0.883282
0.862169
0.0211131
-0.504091
2.07875
-1.57465
-1.03522
0.468774
0.566445
0.0747547
0.456535
-0.53129
0.484036
0.467014
-0.95105
-0.723294
-0.192289
0.915584
0.0507178
0.0842566
-0.134974
2.31207
-1.23605
-1.07602
0.4098
-0.402737
-0.00706289
-1.24345
0.981951
0.261497
-0.359883
1.12782
-0.767934
-1.05909
0.335797
-0.00480551
0.106141
-0.101335
1.63853
-2.12063
0.482108
-1.73103
2.46829
-0.737264
-0.757538
-0.0132754
0.770814
-0.349336
0.238181
0.111154
0.147481
0.262319
-0.206979
-0.918865
0.643046
0.798207
-1.44125
0.869374
0.117805
-0.987179
-0.885783
1.52883
-0.0396247
0.0240678
0.0155569
-1.05117
2.05874
-1.00757
1.69582
0.00155391
-1.69737
-1.95084
1.14021
0.810628
-0.69947
0.293292
0.406179
1.58882
-1.1028
-0.486024
-0.751983
1.38479
-0.632808
2.22577
-1.3441
-0.881675
-0.589079
0.663834
1.79645
-0.867441
-0.929013
1.09762
0.898911
-1.99653
-0.0699054
0.41858
-0.348675
-4.62737
2.39389
2.23349
0.671241
0.513298
-1.18454
0.0519359
0.434595
-0.48653
0.171636
-0.243138
0.0715013
2.58151
-2.55827
-0.023233
1.44576
-0.474607
-0.971155
0.622517
0.823245
1.18345
1.12862
0.21438
-0.0386484
-0.175731
0.937083
0.686738
-1.62382
2.13314
-1.03552
0.119242
1.70695
-1.82619
1.30226
-2.20173
0.899474
4.11762
-2.39879
-1.71883
-1.00814
-1.17507
2.18321
-0.0899283
-0.333891
0.423819
2.4609
-1.63919
-0.821716
-0.731667
-0.151615
0.489511
1.02235
-1.51186
3.28234
0.854381
-4.13672
0.778996
-1.53098
1.75864
-1.75232
-0.00631532
-0.134031
0.250744
-0.116713
0.118057
1.64058
0.810468
-1.65713
0.846664
-0.132902
-0.216433
1.39368
0.0447851
-1.43847
1.08925
0.977125
-2.06638
0.135399
-0.387168
0.251769
-0.685925
0.0999049
0.58602
0.897711
-0.413675
1.12887
-1.21061
0.0817399
0.344908
-0.209508
0.899358
1.56154
-0.303831
-1.05049
1.35432
0.0929415
-0.111847
0.0189058
1.31958
0.330992
-1.65058
1.29542
-0.805907
-0.697061
2.01664
0.439881
-0.799764
-0.265868
0.222751
0.0431162
1.90714
-0.857995
-1.04914
0.909309
1.05871
-1.96802
0.897861
-0.76657
-0.131291
1.38833
-0.57786
-2.2175
0.320338
1.89716
-0.0119414
0.538984
-0.431794
0.580339
-0.148545
1.90435
-0.838484
-1.06587
-1.60493
0.0694506
1.53548
1.00732
0.213249
-1.22056
-0.874265
0.72323
0.151035
-1.68678
-0.230778
1.91755
0.764482
-0.128867
-0.635616
0.424854
-0.642349
0.217495
-0.230475
-0.799088
1.02956
0.635645
-0.667276
0.0316305
1.16073
0.50946
-1.67019
0.0133802
-0.0530049
-0.0334078
0.354786
-0.321378
1.29401
-0.622766
-0.0563656
0.159424
-0.103058
1.21857
0.577888
-0.517623
-0.725825
0.384025
-0.417433
-1.37225
4.65459
0.0896052
-0.521399
-0.242159
0.185793
0.431122
1.21543
-1.64656
2.70206
-3.70237
1.00031
-0.051488
-0.478549
0.415388
0.0631609
-0.251313
0.318012
-0.066699
1.34167
-0.921954
-0.419711
-0.532445
0.442517
1.55145
-1.97471
0.423255
-0.235878
0.370041
-0.134163
0.0539897
-0.3091
0.25511
1.11348
-0.244105
1.76037
0.465396
-1.23367
0.929838
1.26513
-2.36688
1.10175
1.96383
-0.325305
0.0202879
-0.154319
-0.827407
0.682408
0.144999
-1.92531
0.10045
-0.622673
0.522223
2.09244
2.02518
1.1916
-1.50739
0.315792
1.59234
0.16542
-1.75776
-2.15122
1.8166
0.334617
-0.101434
-1.38833
1.48976
4.18254
-2.09009
-0.371948
0.333299
0.503953
-0.374984
-0.128969
-0.0556863
0.0312417
0.0244446
1.14031
0.803013
-1.94332
1.23871
-1.12125
-0.11746
-0.316362
0.119349
0.197013
-0.340052
-0.138497
2.56916
-1.30403
-0.685751
0.737482
-0.051731
1.1558
-1.92494
0.769135
0.692191
-1.70033
1.15722
0.592122
-1.74935
0.859038
1.0481
2.25177
-0.301397
-1.95037
0.394276
-1.31018
0.915909
1.61156
-1.4975
-0.11406
-0.288055
0.396998
-0.108944
0.0347523
1.85705
-1.89181
1.78718
-0.0913617
-1.65122
0.0542687
1.59695
-0.990501
0.871768
0.118733
1.74365
-0.834342
0.263066
0.634795
-1.27762
1.50784
-0.230213
-1.5465
1.76994
0.0253997
-0.376963
0.351563
-0.0165324
0.057183
-0.0406506
-0.0323575
-0.402851
0.435209
0.777509
0.34452
-1.12203
2.51841
-1.2074
-1.31101
-0.4736
0.441242
0.634172
-1.50817
0.874
0.205623
-0.0339872
-3.77105
-0.977696
1.28107
-0.303378
-1.26669
1.00107
0.265617
-0.0222474
-0.0972837
0.119531
0.271978
1.33958
-0.0407405
-0.0149458
0.188246
0.315707
-1.36786
0.0902365
-1.46898
1.86414
-0.395161
-1.40112
1.60842
-0.207296
-1.11646
-0.699304
1.81577
0.377223
-0.31647
-0.0607531
0.792033
-0.926898
0.134865
1.47484
0.237667
-1.71251
0.00323456
-1.49291
1.48967
-0.876983
2.03421
0.438452
-1.1602
0.721745
-0.532817
2.08427
-1.77451
1.17834
0.596165
0.0199786
-0.00832189
-0.0116567
0.755453
-2.04425
1.2888
-1.66338
0.612211
-1.44709
-0.478812
1.8545
-1.20967
-0.644832
-0.565983
0.617919
0.309266
-0.327909
0.0186427
-1.24595
-0.929039
2.17499
-1.70014
2.49221
-0.792071
4.52989
-2.6984
-1.83149
0.0477768
-0.433818
0.386041
0.0517718
-2.8577
2.80593
0.0127351
0.0379826
-1.40834
1.3069
-1.2869
-0.435141
1.72205
0.222427
0.0596752
-0.282102
0.14303
-1.12073
-0.24617
-0.4533
1.68669
-0.0943485
-0.332147
0.262242
-0.325567
0.393852
-0.0682852
-0.627036
1.40454
-2.64235
2.69412
0.313205
0.705573
-1.01878
-1.44791
0.320185
1.12772
1.72521
2.80468
2.18023
-1.42478
1.33385
-2.15583
0.821986
0.465382
-1.61285
1.14746
0.120034
-0.877573
-0.988542
1.41966
1.28476
-1.78885
0.511608
-0.723274
0.211666
-2.15058
1.16817
0.982411
-0.134366
-0.739899
0.368235
0.332665
-0.7009
1.25463
-0.302525
-0.952108
0.154618
-1.27552
1.31027
-0.540329
-0.145421
1.2315
2.03377
-2.03035
-0.00341578
-0.0255931
-0.291549
0.317142
1.31064
0.14038
-1.45102
0.560408
-0.299716
-0.260692
0.852245
0.118525
-0.97077
1.53854
0.36581
1.2056
-0.76715
-0.131457
0.430171
-0.298713
1.5998
-0.443998
0.232435
-0.0179315
-0.214504
-0.136708
-0.228926
0.365634
-0.261374
0.270059
-0.00868564
1.87069
-1.3074
-0.563289
0.563633
-2.26377
-0.287116
0.0257425
-1.84387
0.560497
1.28337
1.9699
-0.585106
0.492701
-1.96168
3.10351
-1.60631
-1.49721
-0.0320684
0.254495
1.84999
-1.17292
-0.67707
-1.21498
0.225781
0.9892
-2.00394
1.97058
0.0333645
0.528751
-1.50313
0.974384
0.0296631
-0.00221997
-0.0274431
-0.967969
1.21985
-0.251883
0.108956
0.243446
-0.352402
-0.341083
0.105204
-0.297802
0.0464889
-3.06814
-0.63423
1.76041
-0.802109
-0.958305
-0.286736
-0.209769
0.496505
0.895333
0.693492
0.609845
-0.0982366
-0.0208056
0.00427323
1.1752
0.794701
-1.04272
0.0967706
0.945946
1.33683
0.513166
0.794383
0.333435
0.0523
-0.339036
-0.596184
-0.0420886
0.638272
0.0254753
-0.00549672
-0.487378
1.33962
-0.344644
0.0550507
0.289594
-1.84522
1.77409
0.0711374
-0.751412
2.44394
-1.69252
-0.335061
-0.28992
0.62498
1.51706
-1.65988
0.14282
-1.27598
-0.874606
2.56091
-1.85183
-0.709079
-0.22598
0.200387
1.64901
-1.12026
0.635746
1.12467
-1.99741
0.435476
1.56193
2.43064
1.10616
-3.5368
1.66252
0.0386816
-1.7012
-1.42777
-0.569645
1.73466
-0.999936
-0.73472
-0.350607
1.58198
-1.23138
0.828851
-1.3761
0.547247
-0.082259
0.147128
-0.0648691
0.0796795
0.0146728
-0.0943523
2.17005
-1.70444
-0.465612
-1.09289
-1.05833
1.80013
0.233634
-1.68187
-0.163349
0.186183
-0.322891
1.70436
-1.43348
-0.270872
0.00882951
0.300437
-1.07538
2.21568
0.561186
1.30951
2.0341
-1.34096
-0.693143
-1.58776
1.15262
1.66995
-2.37268
0.70273
-1.23773
-0.114235
1.35196
-0.484857
-0.354065
0.838923
1.49832
-0.864144
-0.926197
1.2394
0.165014
-0.0523458
-1.05045
-1.33115
2.44556
-1.11442
-0.379004
0.0534374
-0.188088
0.0566308
0.205535
-2.20948
1.77363
-0.235085
0.88719
-0.517183
0.70758
-0.190397
0.0384936
-0.337629
-0.987413
0.65528
0.332134
0.702062
0.639603
-0.114818
0.755365
-0.640547
0.957622
0.281084
0.330104
1.37425
1.16597
-0.158652
-0.463859
-0.984048
1.50005
-0.744188
-0.755857
1.98817
-1.91907
2.40221
-0.483144
1.57569
-1.72565
0.149954
-0.932284
0.701809
-0.275124
-0.0412385
-0.299334
-1.38744
0.588799
-1.14417
0.555376
0.888953
0.845703
1.52951
-2.04883
0.519318
0.465243
-1.12877
0.663525
-1.9457
0.340773
0.0187975
0.745685
-1.3871
2.10628
-0.719189
-0.459307
0.648479
-0.189172
-0.815248
-0.219972
-0.284538
-0.465897
0.750435
0.225554
0.000721377
-0.226275
-0.691114
-0.299387
0.723595
0.905188
-1.62878
1.2937
0.0431213
1.01267
-0.900946
-0.0313382
0.971104
-0.505861
-1.42701
-0.347491
0.26185
-0.229027
-0.0328235
1.66268
-0.725599
-0.944419
1.57015
-0.625727
-0.268077
0.3188
-0.0507229
1.40009
-0.145456
-2.14509
0.71161
-1.05829
1.94224
-0.883942
1.44645
-2.13936
0.692908
0.908871
1.65204
0.00974283
0.0392992
-0.0490421
0.208018
-1.44575
1.18699
-1.7893
0.602309
0.0984317
-0.00549017
-0.143764
1.33536
1.68016
0.093467
-1.0071
1.47248
0.325353
-2.05638
-2.0977
1.27131
0.826392
1.3312
-0.26727
-1.06392
1.87232
-0.355253
-0.782666
-0.921316
-0.798837
0.726699
0.103276
-0.443473
0.340197
0.647511
-0.660786
-1.49269
1.34893
1.998
0.583507
-1.6524
0.707978
1.99765
-0.197516
-0.382858
0.279462
0.103396
-0.0644799
-1.13633
1.20081
-1.80351
0.337871
1.46563
1.59539
-1.59539
-2.46596
1.47275
0.993206
0.791957
-0.906774
1.22693
-0.787004
-0.439926
-1.90174
1.97974
-0.0780043
0.710445
-0.0975451
-0.6129
0.567919
-0.195338
-0.372581
0.275956
-0.611016
-0.268672
1.8017
-1.16595
-1.61239
1.9255
-0.313118
-0.583797
1.30739
-0.110311
-0.0188023
0.129113
-0.338516
0.0848795
0.253637
-0.757263
0.877297
1.94016
-1.55101
-0.389143
-0.207287
-1.01876
1.22605
-0.514768
0.542429
-0.0276608
0.321235
-0.582827
0.261592
-2.32527
1.24446
1.08081
0.264943
0.150317
-0.358234
-0.0246247
0.0149425
0.127944
-0.142887
0.906759
1.2633
-0.137481
0.0271701
-0.191532
-0.48321
0.674742
-1.01884
1.64512
-0.626278
-0.0181592
0.210742
-0.192582
0.883327
-0.414552
1.08401
0.983832
-2.06784
0.084022
-0.88311
0.0565526
1.41829
0.888102
0.643271
-1.53137
0.987604
-0.804761
-0.182842
-2.02818
0.376961
-0.77657
0.381004
0.395566
0.755447
1.01196
-1.76741
-1.27383
1.15959
0.119053
-1.81051
1.69145
-0.302051
0.349827
0.0386124
-0.0278772
-0.0107353
0.0448781
-0.641062
-0.295426
0.272832
0.0225939
-1.44137
-0.402497
1.21867
0.0934626
0.344634
-0.438097
-0.295421
0.0273441
0.307214
-1.3984
1.09119
0.339051
1.05553
-1.39458
0.513545
-1.41477
1.67567
-0.260901
-1.44597
1.09536
-0.0149055
0.0389733
-0.804193
-0.462493
-0.560243
0.127357
0.432886
-1.78334
0.764499
1.30231
-1.50959
0.323501
1.67415
-0.622531
0.630632
-0.00810117
0.630444
-1.6104
0.979961
0.366494
-0.583016
0.216521
-0.790127
-1.35497
-1.35867
-0.0424499
-0.688086
0.00216055
0.130227
0.16463
-0.294857
0.664178
0.0441008
-0.0966054
0.0525046
1.65426
-0.898812
-0.830576
0.260728
0.569849
0.520702
0.420867
-0.941569
-0.717649
0.415599
-0.491998
-0.0682445
0.641919
0.585011
-1.03978
-1.3271
0.174509
0.0873413
1.2124
0.875702
0.290266
-1.65842
1.77766
0.091338
-0.794113
0.702775
-0.176263
-1.65062
1.82688
-0.261702
0.300916
-0.0392134
0.393083
-0.01586
-0.560895
1.38975
1.42147
-1.02719
-0.754908
-0.232505
-0.0279858
-0.836242
0.864228
0.688896
-1.80536
-0.133761
-0.96276
1.09652
-0.144948
0.367418
-0.22247
-1.28855
0.0676969
1.22086
1.70528
-1.01854
-0.0132299
0.203861
-0.190631
-0.460932
-0.0538363
0.41061
0.717875
-1.12848
0.245157
-0.3061
0.0609423
1.05434
0.599504
-1.65384
-0.808496
1.96923
0.214821
0.0107326
-0.495605
-1.92355
2.41916
1.19338
1.37578
1.68317
-1.34412
-0.747492
0.462954
0.13666
-0.0569804
-0.592118
2.26207
0.264033
-1.52785
1.26382
1.71375
-0.300602
-1.41314
-0.778702
1.32864
-0.549939
0.780624
-0.593705
-0.947323
1.54103
-0.146746
0.140496
0.00624952
-0.567241
-0.972199
1.53944
-0.291262
-0.047254
0.109639
-0.131887
1.01196
-1.5792
-1.41321
-0.416944
1.83015
-0.0809281
-0.995764
1.07669
-0.26417
2.08488
-2.17665
0.0917702
0.448661
-0.242137
-0.206524
0.0163608
-0.638891
0.506037
0.523527
-0.648368
0.16351
-1.61824
2.0325
-0.414266
-0.447206
0.102561
2.23878
-1.37974
-1.96799
-0.590285
0.116942
0.202876
-0.319818
1.07427
-0.198563
-0.427796
0.47217
-0.0443741
0.369076
-0.26012
-2.16047
0.713379
1.77785
0.300893
-0.205533
0.526768
-0.453786
0.974487
1.34035
0.461351
-0.443619
0.0158236
-0.19383
-1.29887
0.502372
0.469477
-0.444078
-1.83705
0.0335418
-0.10718
0.453992
-0.0874983
-2.03083
0.959771
1.07106
1.00114
0.127734
0.4258
-0.152021
-0.273779
0.574308
-0.541566
-0.0327421
-1.35206
0.484618
-2.16414
1.10584
0.0187661
0.435419
-0.454186
0.00658666
0.289985
-0.296572
2.11903
-0.0428429
-2.07619
0.34712
0.0200032
-0.367123
-0.274386
-0.553021
0.492155
-0.0673005
-0.0653403
0.0668469
-0.00150664
0.802163
-0.121386
-0.680777
0.00273676
-0.0680771
1.53319
-1.02373
-0.0552974
-0.31242
0.367718
-2.04712
0.428886
0.0302906
-0.0898046
0.47383
-0.586939
0.680402
-0.0502239
0.0294183
0.522699
0.318459
-0.841158
1.3583
0.0353765
0.758315
-0.666977
0.440182
-0.386193
0.198557
-0.657864
0.730378
-1.07546
0.345082
1.11197
-0.131753
-0.98022
-1.00076
-0.309427
-0.348429
0.156492
0.191937
0.671895
-0.830066
0.158171
2.1907
-0.0610389
-2.12966
-0.254818
0.131087
0.123732
-0.982894
1.35615
-0.373251
1.03467
1.10252
-2.13719
0.206115
0.044629
-0.541177
0.905429
-0.364252
0.47457
0.180245
-0.654815
-1.72417
0.879693
0.844472
0.0598442
0.00700278
-1.6884
0.275197
0.653796
-0.380914
-0.272881
0.877761
-1.19212
0.314361
-0.214229
-0.393223
0.251666
1.83322
1.64485
-0.280408
-1.36445
-1.63311
0.21834
0.649501
-1.11336
1.64718
-2.78143
1.13425
-0.230828
0.599063
0.023123
-0.774772
0.58324
-0.339893
0.440344
-0.0965854
-1.78743
1.88401
0.707086
0.941929
-1.47359
1.55651
-0.0829214
-0.11551
0.245738
-1.46381
-0.441694
-0.254083
0.285896
-0.0318132
1.48686
-1.09933
-0.387529
-0.0181656
0.0257728
-0.00760714
-0.224998
1.10276
-1.49365
-0.625456
2.1191
-1.57623
-0.496234
2.07247
0.906617
-0.751013
-0.155604
-0.411252
0.0429655
0.368286
0.00598301
-0.0504379
0.0444549
-1.90244
0.0643986
1.83804
0.0419989
0.412626
-0.454625
1.56507
-1.74132
0.176251
-0.937954
0.968242
0.565194
-1.53344
0.0278066
-0.28189
0.263276
-1.09634
0.833067
1.58691
-2.11973
-1.89456
1.647
0.247565
0.28968
-0.0445222
0.782972
1.4558
-0.159131
-0.374151
0.533282
-0.019536
0.306875
-0.287339
-0.651811
1.72327
-1.07146
0.870196
-1.80229
0.932093
2.03876
-1.9454
-0.0933635
1.49675
-0.679722
-0.817032
0.0783969
-0.481354
0.402957
-0.608853
-0.0138205
-2.05133
1.80744
0.243895
0.112127
-2.16346
0.172841
1.75633
-1.92917
-1.07759
-0.626855
0.428549
-0.351456
-0.0770921
-1.59341
-0.453717
-0.401616
0.280719
0.120897
0.348587
0.211822
-1.87274
1.79384
0.0789
-0.29772
-0.0367139
-0.0751334
0.373457
-0.0263375
-1.16028
0.19231
0.323691
-0.361511
0.03782
-1.30291
1.27259
0.0303182
0.742403
-0.0319578
-0.539968
1.11996
0.280132
0.745245
-0.753341
1.69294
-0.939602
-0.268202
1.06023
-1.29461
0.804906
0.489703
0.0531282
0.00671598
1.60459
-0.897504
1.3726
-0.74216
-0.36088
-0.392236
0.753116
0.179527
-1.2442
1.06467
1.13028
-1.2112
1.7397
-0.752432
-0.987263
-0.0107021
-1.06486
-0.229749
-0.483023
1.31011
-0.82709
-0.0689672
-0.468806
1.80265
-2.10549
0.512086
0.00659129
-0.0888502
-0.271619
-0.125217
0.27855
-0.00849037
-0.848721
-0.908512
1.77049
-0.475076
-0.213074
-0.141938
0.355012
0.103215
0.464704
-1.63054
-0.830068
2.4606
0.47996
1.01836
-0.0118704
-0.30507
0.316941
1.64013
-0.211459
0.0828365
0.128623
-0.446661
1.17704
-0.764295
-1.95614
0.343756
-0.446165
0.0215218
0.424643
1.54928
1.55423
1.47746
-0.515507
-0.961955
1.9466
0.0921649
1.21383
-1.73362
0.519796
-1.6405
2.66428e-05
1.64047
-1.6455
2.12871
-0.48321
0.301498
-0.0143027
-0.287196
-0.617908
2.20482
0.0894948
-0.0374557
-0.052039
0.0688002
-1.54239
0.35704
0.0955915
-0.452631
-1.84864
2.36237
-0.513729
-0.515639
1.12588
-0.610237
2.32191
-1.02135
-1.30055
0.0526172
-1.21133
1.15872
-0.0248647
-0.00301246
-0.86113
1.8958
-0.892111
-1.57385
2.02425
-0.577796
-0.383621
0.328324
-1.70123
0.0607357
2.15002
-0.620505
0.0397475
-2.25725
0.483343
-0.0487487
0.00341555
2.48739
-2.49081
1.10877
-0.302276
-0.806494
0.526204
-1.40527
0.87907
-0.308423
0.0210517
0.287371
-0.44121
-0.960181
1.40139
0.733174
-0.534618
-1.97534
0.214197
1.76114
0.300322
0.471704
-0.772025
0.156985
0.271563
-2.20038
2.59282
-0.392444
-0.306218
0.0445161
0.881732
0.449107
-1.33084
0.913389
0.757712
-1.6711
0.364477
0.966718
-0.0575442
2.30932
-0.00106454
1.5677
-1.56663
-0.000621946
-0.0175373
0.0682624
0.026102
-0.0943644
1.58234
-1.39312
-0.189219
0.779744
0.959951
0.14458
-0.103016
-0.041564
-0.519092
1.57994
-1.06084
0.00153624
0.360111
-0.361648
0.557716
-0.950313
0.392597
-0.929421
-0.507316
1.43674
1.52148
-0.210837
0.545896
0.562873
-0.686266
-1.29269
1.97896
0.599634
-1.6184
0.308878
-0.101694
-0.207184
0.391402
-0.109754
-0.281648
0.0563774
-0.0812421
-0.125538
1.36676
-1.24122
-0.214206
1.92115
1.50643
-1.25505
-0.251376
1.28053
-1.06728
-1.02431
0.39171
0.632596
0.0130364
-0.80004
0.271381
-0.0538246
-0.217556
0.139323
0.286478
0.288189
1.46083
-1.74902
0.425547
0.376615
0.250755
-1.82699
-0.88391
0.341535
0.542375
-0.646458
-0.515104
1.16156
0.985758
-0.463059
-1.67979
1.09599
0.693125
-0.569846
-0.123278
-2.0745
1.49266
0.581844
-0.852901
0.936923
-0.842903
1.12391
-0.281002
-3.88112
3.9736
-0.0924835
-0.0455207
0.426771
-0.38125
-0.345958
0.352545
-0.165558
-1.61113
3.86205
-2.25092
-1.07435
1.39454
0.993563
-1.06154
0.0679747
0.10933
-0.0309143
-0.0784155
-2.04088
1.45451
0.586373
0.0491281
0.0691171
-0.118245
0.138478
1.05108
-1.70289
0.971958
-0.792431
-0.795924
-1.30178
-1.39484
1.39378
0.937032
0.064036
0.637812
0.321558
-0.95937
-0.675986
0.638032
0.0379544
0.346848
-0.858619
0.51177
-0.48575
-0.997789
1.48354
0.694328
0.355185
-1.04951
-1.46986
-0.356138
1.826
-0.0778396
0.187169
1.27255
0.309787
-2.13093
-0.0402135
2.17115
-0.177838
0.507645
-0.329806
0.00958918
0.394094
-0.492669
0.0985748
-1.13189
-1.61331
1.12756
0.289628
0.417084
-0.338687
1.20479
0.282062
0.0732225
-1.46155
0.0725151
0.56313
-0.261187
0.044396
0.216791
-1.38063
-1.10645
2.48708
0.713158
-1.39942
-1.02438
-0.112603
1.13699
0.272422
0.360732
-0.633155
-0.00216581
2.22677
-1.43552
-0.791255
0.350015
1.29484
0.0516151
0.173047
-1.44505
1.27201
-0.624459
1.47342
-0.848962
-1.12333
-0.40696
1.53029
-0.931512
0.390334
-0.720873
-0.303433
1.98558
-0.962974
-1.0226
0.119127
0.0181568
-0.137284
0.687263
0.173657
-0.860919
-0.358209
0.400207
-0.236325
0.379402
-0.143078
-0.387607
-0.0438557
-0.429744
-0.0173997
1.10117
0.884413
-1.25946
3.65335
-0.542444
1.68265
0.165014
-0.0458867
-1.62185
0.49852
1.44173
-1.23371
-0.24463
-1.27926
0.296363
1.98567
-1.81283
1.31966
-1.38414
1.6274
-0.0517088
-0.387117
-0.255232
-0.441005
-0.205047
0.646052
-0.611723
-0.055553
1.4871
0.276691
-1.76379
-0.0150489
-0.496212
0.511261
0.040424
2.91419
-2.52336
-0.390827
1.67023
-0.105159
-2.32464
2.10626
0.218381
0.4186
-0.318695
-1.86906
-0.171822
-0.600136
1.86523
-0.0577953
-0.734154
2.27657
-0.930895
-1.34568
-1.15474
-0.135586
1.29033
0.19761
0.979698
-1.17731
-1.38477
0.096215
-0.383139
-0.188768
0.571907
-0.932784
1.19682
0.323183
0.976589
-1.29977
-1.17538
0.198558
0.976825
-1.74758
0.148789
1.59879
-0.210649
1.18261
-0.459245
0.958683
0.538071
-0.475445
-0.301125
1.83539
-2.13679
0.631999
-1.14999
0.517987
-0.162093
0.368208
1.34414
0.066824
-1.41096
1.1967
-1.73914
0.000772354
0.0288907
-0.827637
1.50652
-0.678879
-1.01548
1.27876
-0.0277877
0.550673
-0.522886
0.0371486
-0.117283
0.0801347
0.0608422
0.332241
-0.531868
1.18137
0.332048
-0.313282
-0.315895
0.343702
0.449096
-0.748812
0.0531042
-0.0553241
-0.389901
0.37504
0.0148608
0.421802
-0.465575
0.043773
-1.21772
1.54871
0.175983
-1.20037
-0.0266408
-0.539343
-0.00823769
1.11347
-1.10523
0.642484
-0.684573
0.559351
-1.44029
0.880944
-2.20036
0.825778
1.37458
1.0891
-2.42025
-1.25472
-0.0491981
-1.84537
0.452942
1.31755
-1.45865
-0.221136
0.627911
-2.54698
-0.83566
0.369763
-0.0113247
0.0474201
-0.0360954
2.85084
-1.30155
1.51185
-0.324859
-0.450498
-0.333672
0.78417
-1.93588
0.768404
1.16748
0.0813322
0.00292442
-0.56224
1.53048
0.330244
-0.182764
-2.0441
0.193105
-0.10361
-0.271936
0.257491
0.014445
-0.239847
1.72695
-0.283757
0.143665
0.140092
1.61209
-2.58506
1.24988
1.33518
0.487733
0.386089
-0.873822
0.787655
-2.33069
1.54304
-1.05672
0.541082
-1.36355
-0.0598353
0.747098
1.76844
-1.9447
0.822505
-0.347936
-0.747864
1.3475
-1.28479
0.951807
0.332983
0.647184
-1.1177
0.470516
-1.3634
1.46025
-0.0968475
0.725422
-0.993624
0.0286793
0.372797
0.53382
-1.13099
0.272991
-0.637491
-1.16229
-0.481318
1.64361
0.480237
-1.63498
1.40578
-0.0433498
-1.17163
0.2453
0.701674
2.02864
-0.684582
-1.34406
-1.22128
0.547497
-1.19395
0.325227
-1.83348
1.69789
-1.31702
0.723316
0.931357
-1.04797
1.52435
-0.476379
-3.91169
1.33432
2.57737
-1.04376
0.116471
-0.261418
-1.93303
1.36362
0.569412
1.62966
-2.24757
-2.17477
-0.0256135
2.78885
-1.14167
1.69042
0.423955
-2.11438
-0.0446537
-0.293199
0.337853
-0.162331
0.822335
1.0401
-1.846
0.798031
0.287777
0.445397
0.393572
0.717525
-1.1111
0.769452
-0.436787
-0.143925
-2.06327
2.2072
-0.686294
0.810216
-1.6872
-1.14425
-0.847122
1.99137
0.498051
-0.626918
-1.3611
0.452143
0.908955
-0.244346
0.0276643
0.216682
1.91653
-2.01312
0.627833
-1.45547
0.668155
0.697235
-1.36539
0.00067582
-0.21375
-1.60047
0.466791
1.13368
-1.47613
0.546712
0.841027
-1.46549
1.26805
-0.636048
-0.158557
-0.0857898
-0.0261252
1.73987
-1.16
1.47216
-0.312164
1.48238
0.0105323
-1.49291
-1.61787
-8.16888e-05
-0.517101
0.103772
1.49162
0.258118
0.0606814
-0.761995
0.128735
0.663221
0.987336
-0.518497
0.865345
-1.75747
-0.115267
-1.11006
0.691693
-1.86462
0.365618
0.356772
-0.72239
3.14706
-0.48169
-2.66537
-0.224779
0.210476
-0.679862
-1.48428
-1.49543
-0.230215
-0.578139
1.77483
-0.632688
0.915594
-0.282906
-2.00781
0.627182
-0.579035
0.972607
-1.15333
-0.877499
-0.54897
-0.524047
0.658912
-1.59864
0.295734
2.14236
-0.277123
0.342844
-2.01317
1.67032
0.157844
0.272327
0.521451
1.95285
-1.8338
-0.0491542
-0.431026
0.648521
-0.92587
1.02264
-0.904283
-0.954836
0.40991
0.358436
-0.768346
-1.64252
0.047131
-0.249672
1.47465
-1.22498
-0.557299
-1.76734
-1.30963
1.45001
2.26704
-0.98016
-1.28688
-0.189119
0.570122
1.7827
-0.929529
-0.853176
0.516799
-0.560655
0.103845
-0.0355824
-0.332301
0.00760206
0.324699
-0.29425
0.932061
-0.762143
2.3918
-0.0281246
-0.323332
-0.522849
-0.194693
0.717542
0.0564199
1.86011
0.609422
0.411343
-1.02077
-0.720724
1.13133
0.761499
0.818438
-0.685111
-0.198799
1.01292
-0.352824
-0.660092
-0.07887
0.00730885
0.0715611
0.144312
-1.40103
1.25672
-1.75567
0.260233
0.422968
-1.84656
2.53825
-0.00615227
0.522951
0.283551
-0.916239
-1.62152
0.822681
-1.83087
0.623477
-0.893648
0.136386
-0.800341
-1.19587
1.99621
-2.25614
0.0184001
0.0458132
-0.0642133
1.65389
-1.33355
1.29841
-1.1008
0.260929
1.01792
-1.27885
0.305854
-0.688992
-0.381188
-1.51195
1.89314
0.547162
0.357921
-0.905083
-0.719789
1.54365
-0.823859
1.73962
-1.10076
-0.638858
0.678551
0.10827
-0.78682
-0.98654
-1.59852
-0.60705
-0.0810356
2.37704
1.8055
-0.0211261
0.195943
-0.174817
-1.27067
-0.329805
1.26142
1.20688
-1.00783
1.2498
-0.241967
-0.182435
0.265271
0.207626
0.758144
-0.96577
-0.0973487
-0.186409
-0.20387
-1.72916
-3.10602
0.732609
-0.0394847
-0.722299
0.476128
0.143276
1.38249
-1.52577
-0.983307
-0.176972
-0.257826
1.55153
0.136819
-0.476871
0.122904
-0.494553
0.371649
0.201735
-0.717385
0.51565
2.36967
0.0742679
2.10066
1.61769
-0.728735
1.83238
-1.02216
-0.240078
-0.474826
0.714904
1.40505
0.176933
0.012728
-1.31726
0.876047
1.56189
-1.50547
-0.878178
-0.815076
1.69325
-1.10067
-0.835209
-1.83951
1.84504
-0.00552954
0.378134
-0.664952
0.459906
1.10472
0.512966
-0.497479
-0.151507
0.648986
-0.538331
-0.672278
-1.32317
-0.411971
1.73514
1.54401
-1.06405
-0.0221439
0.331022
1.16023
-1.8401
0.820442
-0.702637
-0.728863
1.37019
-0.641331
0.884801
1.00451
0.596954
-1.60146
1.8889
-1.15853
-0.730371
-0.697015
-1.56851
2.09068
-0.522169
1.77798
-1.43514
-0.54682
0.540668
0.801873
1.52003
-0.413761
0.369108
0.0722579
-0.0281571
1.80338
-1.00036
1.20826
1.64257
-0.799492
0.439403
0.360088
0.457016
-0.817896
1.40806
-0.0639195
2.62804
-0.937614
-1.27172
-0.1266
1.39832
0.36576
-0.0446025
-0.321157
0.312071
0.13659
0.252178
-1.89768
-0.53166
0.576538
1.29013
-1.15498
-0.135149
0.2882
0.724716
-0.298727
0.146706
0.457041
0.466918
-0.92396
-0.845959
1.62496
-0.243632
-0.875174
2.17326
-1.29809
-0.450302
0.750623
-0.337433
-0.837951
2.05662
-1.0287
-0.65317
2.28185
-1.4942
0.559459
-0.5861
-0.322891
0.27737
-0.569514
-0.279375
-0.0160457
0.914153
-0.297444
1.53979
-1.24235
-0.202308
0.217251
-0.581278
0.207126
-0.645312
0.0382618
-2.38524
1.88963
0.432068
0.473361
-0.825895
-0.480322
1.30622
0.409555
0.170784
1.54622
0.986099
-2.53232
-0.213306
-0.0283494
0.241656
-0.725617
-0.10496
1.47758
0.78946
1.46714
-1.32387
-2.16063
-0.0803093
0.0249748
-0.011505
0.844703
0.477688
0.409264
-0.886952
0.697189
-0.0547052
-0.048468
-0.5957
-0.203792
-2.63893
-0.864342
0.877378
-0.28493
0.545657
1.07248
-1.02881
-0.0436679
0.359285
0.0157551
-0.127654
0.479534
-0.0577317
1.45444
0.355629
-1.81007
-0.50561
0.233674
-0.438714
0.27268
0.166034
-0.65406
0.0122218
0.641838
0.732179
0.769987
-1.50217
0.449022
0.536737
1.27229
-0.0236026
-0.508843
0.916064
-0.787329
0.172107
-0.169274
-0.00283254
-1.58013
1.10132
1.56013
-1.24413
-0.315994
0.0286406
-0.276259
0.247618
1.62485
-1.75039
2.07731
-0.533296
0.440899
0.857515
-0.265281
-0.0140945
0.346011
-0.0892714
-0.25674
-1.01818
-0.24271
1.99746
-1.02126
-0.976196
2.42107
-1.72565
-0.695413
0.761358
-1.34472
0.583366
-0.122225
0.993413
-0.0223093
-0.649492
1.16827
-0.518775
0.325063
0.0209487
-2.38876
0.316325
-0.17266
1.50006
0.0210663
-1.52113
-0.303129
-0.154953
-0.106234
-0.121749
0.0187335
0.487311
1.0192
-0.284373
0.266207
-0.00953658
-0.114787
-0.181272
0.270877
-0.739179
1.00011
0.0276918
0.441786
-0.320569
-0.661767
1.5571
-0.0104708
1.08295
-0.196515
-0.234432
-0.458266
0.915307
-0.37345
1.48252
-1.10907
-1.48628
-0.202125
-0.766989
1.23426
-0.467266
0.220702
0.0956228
0.577875
-0.12134
-0.0402119
-0.439534
0.479746
-1.52965
0.500947
0.246105
-0.259335
0.914414
-2.54495
0.549733
-2.47328
-0.568665
1.36687
-0.589746
0.946555
-0.479637
0.0260051
-1.16185
1.30616
0.00299635
-0.294545
0.181952
-0.932964
-0.207131
-1.08298
1.29011
-0.0117861
-1.41738
2.69977
-1.72997
-0.969802
-0.425751
0.134493
0.41209
0.0426145
-0.454704
-1.45423
0.294228
0.373051
0.0183512
-0.0104134
-0.248884
0.259297
0.597258
-1.36425
0.153851
0.803958
0.10798
-0.911938
-1.64285
1.2694
0.274919
0.0733957
-0.348315
2.40127
-4.0124
-0.275175
0.000211164
0.274964
0.354656
-0.0797362
0.0230611
1.33227
-0.967791
1.08468
0.922569
-0.473547
-1.66095
0.516701
-1.20758
1.01198
0.195597
0.794277
-1.67245
-0.899088
-0.587551
1.48664
0.165802
0.705966
-0.55021
0.452665
1.9316
-0.23773
-1.69387
-0.0116858
-1.74579
0.692705
-0.0141543
0.895082
0.887623
-0.302903
-0.00216725
0.281977
-0.542366
-0.601809
0.0581814
-0.0960817
0.0379003
0.0597429
-1.17023
1.11049
-0.0925344
0.522203
-0.429669
-0.119985
-1.96478
2.08476
-0.125988
-0.995258
-0.0483063
-0.0384241
1.19206
-0.606193
-0.380486
0.986679
-0.68773
-0.753644
0.819512
-0.461076
-0.0567542
0.278473
-0.221719
-1.57322
0.747321
-1.70436
-0.212725
-0.114959
0.327684
0.177784
0.598909
-0.776693
0.492173
-0.480813
-0.0113602
0.109353
-1.02822
0.2716
-2.12024
-1.08688
-0.749056
1.83594
-1.69497
0.0769821
1.61799
-2.33898
-1.41745
0.0540453
-0.498329
0.513511
-0.0151818
-1.78781
-0.644445
2.09889
0.681108
-0.362649
0.144013
-0.60228
-0.319382
0.856118
0.283019
0.19941
-0.722259
0.0315185
-0.249125
0.217606
-0.334567
0.0465124
-0.174599
0.203239
-0.4682
0.955933
-4.04119
1.6204
2.42078
-1.8936
0.967401
0.993453
0.388149
-0.0223897
-0.828268
0.330789
-0.854864
-0.506233
-0.996685
0.37735
0.619336
-0.100978
0.302591
-0.201613
-0.714992
0.916727
-0.182695
1.31042
1.62796
-1.01854
1.01012
-1.69785
0.801724
-0.988549
0.186825
0.21794
-0.0140788
0.0207599
0.0185394
-1.98287
1.18253
1.83091
0.590157
0.0287686
-0.363472
0.334703
-2.45543
0.90893
0.09993
-0.328856
-0.353346
-0.0260186
-0.40756
0.433578
-1.02585
0.419656
-1.85921
1.65534
1.41192
-0.743763
-0.366537
0.329283
0.0372542
0.358277
-0.155401
-0.285588
-1.92304
1.06121
0.861836
-0.273112
0.244762
-0.141769
0.551876
-0.410108
1.35756
0.719745
0.0730107
0.144251
-0.217262
-0.469597
0.497289
0.0765536
0.0218781
1.31036
-2.77496
1.83797
0.10863
0.531146
-1.36963
1.68386
-0.0736527
-1.6102
-0.167863
-0.202966
0.370829
0.891045
-1.73977
-0.687846
1.84332
-1.15548
0.00862558
-0.0429534
0.0343278
-1.07399
1.08231
-0.00831379
-0.556624
1.11598
-0.451359
1.32155
3.13336
-1.08523
-2.04813
0.0520767
0.240531
-0.292608
0.167416
-0.566111
-0.0427414
-0.557529
-0.00858244
0.114329
-0.585301
0.470972
-0.145913
1.66311
-1.51719
-1.67627
0.622232
1.05403
0.538161
1.58087
0.0548118
0.104369
-0.15918
0.9975
0.474475
-1.47197
-0.0551626
0.043838
-0.564369
1.59007
-1.0257
-1.40967
0.137946
1.1628
0.532113
-1.4312
-0.00072453
-0.192772
0.193497
1.57415
-0.325811
-1.24834
0.496559
0.386559
-1.83846
0.929948
1.70791
-1.85184
-0.896408
0.155267
0.741141
-0.0711069
0.173712
0.108633
-0.282345
-0.264888
-0.104503
0.369391
-0.0141402
0.218358
-0.204218
0.395952
-0.408228
0.0122756
-1.03353
2.19377
-0.556654
0.528669
0.216352
-0.358121
0.68152
-0.991538
0.310018
-0.49372
-0.79107
-0.0312409
0.0372239
-0.0630018
0.00493239
0.0580694
1.37982
-0.891894
-0.487928
0.16279
1.12734
-0.443057
-0.232929
-1.03787
0.20163
0.511598
0.89399
-1.40559
-0.0129653
-0.037503
0.0504683
-0.0438454
0.618154
-0.170642
-0.0133394
0.183982