/*--------------------------------*- C++ -*----------------------------------*\
| =========                 |                                                 |
| \\      /  F ield         | OpenFOAM: The Open Source CFD Toolbox           |
|  \\    /   O peration     | Version:  2306                                  |
|   \\  /    A nd           | Website:  www.openfoam.com                      |
|    \\/     M anipulation  |                                                 |
\*---------------------------------------------------------------------------*/
FoamFile
{
    version     2.0;
    format      ascii;
    arch        "LSB;label=32;scalar=64";
    class       volScalarField;
    location    "2";
    object      p;
}
// * * * * * * * * * * * * * * * * * * * * * * * * * * * * * * * * * * * * * //

dimensions      [0 2 -2 0 0 0 0];

internalField   nonuniform List<scalar> 
13486
(
2.22455
1.78127
0.199577
-0.507678
0.670684
-0.0728795
0.259991
1.21367
1.4988
0.775813
-0.911828
0.431858
2.34227
-0.256767
0.521812
0.865419
-3.18009
-1.42014
0.536733
2.00581
-0.442074
2.3139
1.74578
-0.546695
0.735225
-0.519072
-0.616989
-0.37173
0.0125401
-0.284941
-0.35039
0.325502
-0.741157
-0.206118
1.21831
0.0202462
0.0748054
1.80347
0.0507426
1.50516
0.0135377
2.43174
0.0467185
0.73844
0.70008
0.420801
-6.10291
0.0104873
0.076822
-0.442227
1.3031
0.0287979
0.317541
1.83541
-0.548192
0.734814
0.107342
0.0365526
-0.719905
0.0847241
-0.831282
0.0868315
-2.0883
-0.425184
-0.326254
0.0896735
-0.530927
2.23372
1.48831
0.0536881
-0.532321
-0.696655
1.52536
-6.52
0.0754497
0.108859
0.0811505
0.508616
-4.26227
0.0284307
0.0108743
1.80558
-2.21104
0.224884
2.23363
0.918382
0.160245
1.2532
1.47354
0.871915
0.153817
1.04685
2.13102
1.90894
1.54938
0.00118598
-0.611741
-0.531146
1.48037
-2.86037
0.0128241
-0.174312
-0.527796
0.0431493
1.13645
-2.97133
1.5036
0.058301
-5.16484
0.913885
1.42199
0.188716
1.8344
0.0792765
2.63686
1.49173
0.734721
-0.193382
1.5373
0.0644746
-1.54085
-0.817339
1.62346
0.0565601
1.41895
0.0380779
1.05769
0.426048
-0.160795
-0.266722
0.0367735
-6.02225
-6.49
-6.15731
1.36121
1.18845
2.73184
0.958886
0.0591751
1.26154
-0.661521
0.301527
0.39859
0.0230887
0.0724117
-1.29
0.21901
1.84353
-0.493874
0.0120295
0.876931
0.477508
0.00652659
1.84334
0.440685
0.190348
0.715266
-0.0407887
1.63013
0.13273
-0.349102
1.63084
-0.31856
2.42502
0.0271264
-0.493498
-0.0222442
3.08205
0.219037
-6.2101
-6.98555
0.45976
1.03939
0.78248
0.00710956
-0.546181
-0.520933
-0.808974
1.50606
0.418764
1.40879
0.0759002
0.620275
-0.687832
0.238319
-0.379385
-0.00208297
-0.275435
0.0969715
1.57438
0.0665374
0.128265
0.0212375
1.96684
0.0126901
-0.897672
-0.28311
-0.357468
1.99404
-0.405606
-0.350394
0.407391
1.80709
0.458798
0.1283
0.00854023
-0.593547
1.63262
0.0342281
0.242738
-0.309733
-0.379686
1.97875
1.50121
-0.0796437
-0.0939362
-0.305581
0.893379
2.01689
-1.80479
-3.23799
-0.50222
1.29726
-0.374317
0.27006
2.16374
-0.328487
-0.402797
-0.0669494
0.152208
1.3936
-0.41321
-0.687589
2.48208
-0.478779
2.07863
-0.236395
0.132884
2.10067
0.664995
-0.708194
1.02459
0.0815648
1.97706
0.0767162
1.70484
0.685706
-0.402554
-6.89933
0.83588
-0.599258
2.67032
1.43918
0.0461787
-0.0184136
-0.585966
0.311248
-0.0880296
0.0293232
-0.654239
1.63143
0.0819987
0.509003
-0.582823
0.741173
-0.688123
-0.0660155
-0.376843
1.44373
-0.0586248
1.51375
1.46611
-0.321699
0.356638
2.16754
-0.381367
-0.0236204
-0.163733
0.0477724
0.231757
-0.144017
1.23792
1.51577
-0.794004
-0.775393
-1.06519
-0.708059
-0.179225
0.280314
1.44904
-0.479072
0.100432
1.54854
1.38585
-0.211814
-0.238838
-0.337327
0.359096
1.54773
0.187134
-0.475096
-0.646731
0.226881
0.364704
0.0623398
0.486512
-0.481879
0.702462
0.145128
0.0763604
-5.41595
-0.502313
-0.253155
0.184426
-1.0012
1.21317
0.104449
1.47464
1.64088
-0.0955013
0.0703667
0.0922439
1.49775
1.92129
2.68214
0.187754
0.926325
1.20935
0.294867
0.850891
1.25028
0.993747
0.0544712
2.06106
0.253535
1.46044
2.72214
0.515296
0.927172
0.0868903
-0.0788471
1.90193
0.816254
0.638064
-0.681067
0.0205008
0.993973
2.6225
-1.76367
0.107704
0.953752
0.313737
0.349064
-0.615738
1.53151
0.0239107
-6.05556
1.03316
0.137755
-0.370696
0.557775
0.171634
1.66081
1.47528
-0.293183
0.00892586
-0.238327
-6.95274
2.02429
1.04692
0.0500556
1.00533
0.267168
-0.621721
-0.0781619
1.32948
1.5038
0.0962563
-0.993144
-3.28401
1.4265
0.956421
2.35194
1.59861
-7.05991
-0.0372256
0.191502
0.89902
-8.0624
-0.326332
1.94532
-0.355764
0.661496
2.11814
2.20046
0.0625172
-0.51999
-0.618825
-7.04511
-0.71254
-7.93445
0.358982
1.33824
-0.591938
0.29437
0.203173
1.88017
-0.764625
1.07228
1.67891
0.894944
-1.18855
-0.403386
1.5462
1.50512
1.90142
-0.665984
0.765023
-8.14352
0.683424
1.50694
-0.159487
2.63309
0.970977
-0.34381
-0.250635
0.378789
1.51761
-0.626769
0.0692527
2.29455
1.35242
0.649893
0.274809
0.585028
-0.450915
2.34109
0.102898
0.825495
2.19677
-9.62158
-0.332285
-6.06665
-0.406696
0.155308
1.76429
1.78535
2.30893
-3.34151
0.0680148
-0.684286
0.95247
1.50626
-0.446364
-1.32936
1.48011
-0.607069
-0.536573
-0.78383
-1.23963
-0.13062
1.8686
0.00528981
0.0984501
-0.480855
1.42295
-0.000459711
2.90444
2.15396
1.51646
1.15625
0.0368823
-0.000800709
2.70445
-0.0313907
0.0586363
-0.332768
1.4741
-1.24327
0.337374
1.05376
0.0469765
-0.607176
1.72658
-1.32541
-5.79386
1.0007
-0.334148
3.07065
1.01379
1.32494
1.62668
-0.566289
0.231436
2.46203
0.651806
1.93278
0.237224
0.483237
-0.382117
0.027575
0.0286467
-2.60722
1.53938
1.45802
-0.595924
0.00403926
-0.101615
2.22056
1.76937
-0.036235
1.48766
1.08601
-0.595713
0.729
1.31535
-7.73914
2.31335
0.0611354
0.0685954
2.41606
0.964522
0.00591679
0.986617
-0.378126
-0.593457
0.609967
0.862637
1.64851
2.13627
-0.645757
0.582904
-0.661008
1.92079e-05
2.0731
0.487578
-0.67754
-0.530729
-0.218841
0.0585008
1.17812
-0.320051
-1.25543
1.49197
2.03672
0.0642623
1.62468
-1.40017
-0.636113
-1.827
0.64422
-0.693367
1.64467
0.242042
-0.812114
1.25519
1.74774
-0.640131
-0.680141
1.33803
2.08062
0.476288
2.2441
0.239799
1.00816
0.3994
1.65833
0.0676288
2.02328
-0.612604
0.333591
1.41357
-0.13468
-0.358341
1.50296
-10.3445
0.357644
1.73906
2.30814
-0.311471
0.105399
0.420672
0.249574
1.34839
1.04806
0.346008
-0.695443
0.150783
2.20654
0.32429
0.124421
-0.500819
2.32358
-0.142793
0.0782426
1.45534
1.13491
0.0247867
-0.241639
1.23321
0.290678
0.181341
0.629741
-1.35223
2.25311
1.45714
1.04566
1.08653
0.196706
-0.730031
2.54345
0.522358
2.54855
-0.40218
1.46181
0.019833
-7.15571
0.819934
0.833671
2.67537
-0.414347
0.912394
0.888838
-1.8648
0.796307
-1.0215
-0.651633
1.45092
-0.688435
-0.34969
-0.455932
-0.287036
-0.144633
1.61115
0.00392817
2.46433
1.48565
0.123146
-0.631968
-0.315482
0.54758
-0.783049
-0.38134
-2.50793
2.06242
0.0017381
0.0802667
-0.688891
2.35885
-0.00728222
-0.495813
2.4119
1.32343
-0.667907
0.0632759
1.04438
0.224408
1.40129
0.0773313
-0.329219
0.615773
1.3648
0.500922
1.21411
2.44757
0.0798419
-0.49722
1.50116
-0.107794
-0.094077
0.992518
1.11437
0.668659
-0.674303
0.23657
0.0910124
0.311892
2.06992
0.50738
0.29191
0.233139
-0.0933722
-0.00875203
1.49859
0.122948
1.36873
1.41138
2.06212
-1.9507
-1.29744
2.52886
0.0603031
-0.603612
1.56715
-0.482021
1.68408
0.0580726
1.45655
-0.590199
-5.6598
-0.452136
0.00303755
-4.62353
0.800107
2.60786
-0.127929
-1.10603
-0.390198
1.53511
0.0205352
0.690658
-0.720887
2.58746
-0.678163
0.736115
-0.46193
0.870962
1.4911
0.552885
-3.05743
-0.402595
2.38703
1.53235
0.550769
1.35191
-0.0439877
1.15513
1.15895
0.889268
-5.57568
-0.0229856
1.86274
0.247703
0.0401485
1.19936
-0.590604
-0.115231
0.0444335
1.60944
1.58442
-0.470996
0.266727
-0.662426
-0.420692
0.295579
-0.134008
0.150741
1.44543
-0.0784266
-1.52854
1.72841
-0.313975
-0.233288
-0.00496797
-0.487734
-0.478936
-0.416171
0.0867715
-0.61147
1.39227
2.33882
0.0654621
-0.223141
2.41813
2.26591
-0.316759
-0.279725
1.51993
-8.94693
0.0685317
0.00966877
0.092961
0.772022
-5.27313
0.738491
1.01523
-0.429592
-0.172837
-0.631729
-0.0639583
1.26796
0.643122
0.949993
-0.496302
1.27258
2.21885
-1.68758
-0.604231
1.65436
0.383068
0.927115
0.0610175
-0.280861
-0.511455
-0.0209342
1.53831
2.55537
1.63493
0.184727
-0.0721528
1.50122
2.15993
-0.2976
1.57525
1.50104
2.26437
0.283121
0.0813531
0.300634
-0.0918835
2.25261
0.265861
-0.0266543
1.03011
-0.0170175
0.422997
0.00996056
-0.903036
1.41813
1.15153
1.04578
0.720292
-2.47846
-0.176433
-0.113005
0.781341
-1.42234
-0.827569
0.0790714
-0.600951
-0.817159
0.803637
-0.281171
-6.77391
-2.43606
-0.148988
1.05187
-0.901129
-0.520742
1.66969
-0.392675
2.31714
-0.389262
-6.9206
1.74784
2.08719
0.0690594
0.128724
0.190373
1.53436
0.773143
-1.62452
0.0376004
0.0681628
-0.149865
1.46013
0.0783347
0.904909
0.093073
1.47849
-0.653314
0.0752582
0.0425634
1.80421
-0.548837
-0.878706
-0.488278
2.29514
-0.0592711
-0.488997
-1.05268
1.50993
-0.551019
0.0950263
0.410621
0.663678
0.159626
0.99443
-0.312804
1.21539
1.47333
1.71419
0.7056
0.0674071
-0.146344
1.12975
-0.560342
1.77512
1.00432
0.0258583
0.0546033
-0.0359839
0.037813
0.0653681
1.69
0.653737
-0.13826
1.48175
-1.01394
1.17483
2.64394
0.00680833
-1.41043
1.03431
0.196846
0.0564468
-0.0507717
-0.46949
1.49261
0.0834251
0.0389033
0.0655886
-0.970098
1.89475
-0.660718
0.0168444
1.49741
0.198516
2.12036
1.7101
1.98058
0.428581
0.922954
0.440004
0.164434
1.07173
1.45783
-0.507035
-0.12978
-2.70373
-0.237144
-0.680102
1.49368
-1.10803
-0.661387
-0.588522
-0.501093
0.0339826
1.50243
0.0427665
0.0901994
-5.88138
1.5096
2.59968
0.20544
-0.940789
0.842221
-0.329018
1.47595
0.132032
0.0746558
1.78276
0.0270385
2.45567
1.02785
1.48931
-0.273797
1.92957
0.079009
1.71931
0.0639017
-0.658446
-0.528279
-0.428964
1.0189
0.166515
-0.257175
2.30985
1.49983
1.60694
2.10196
1.63971
1.80049
-0.11067
1.53583
1.51381
1.54232
-0.109935
-0.313172
-0.446609
-1.50818
0.308467
1.65311
-5.40246
2.36715
-1.51185
0.0776927
2.53642
2.12619
-0.132601
-0.426535
1.49831
0.781084
-0.0912171
1.38178
-5.52653
-0.472118
1.48033
2.0524
0.0715097
1.62536
1.90825
0.000897255
-0.335162
1.92123
0.65516
0.0644347
-0.691228
0.226545
-0.851303
1.39634
1.0898
0.0852837
-0.328534
-0.318383
0.29359
0.0525066
0.414324
2.17742
0.0419305
2.83744
1.50266
0.488493
1.6749
-0.667637
-5.0233
-0.548028
1.48323
0.0620146
-5.38549
-0.341796
0.76749
0.86999
0.0832944
0.998373
-7.5043
0.725966
0.0028941
0.0983874
1.18594
0.45024
1.9237
1.53301
1.5623
1.428
-0.134494
-0.600397
-0.566116
0.236198
-0.32806
-0.169533
1.16378
-0.358856
0.0478755
0.102176
-0.662188
-0.720573
1.05499
0.697815
0.164061
-0.329085
0.694744
-0.506547
-0.485016
0.319667
0.170738
1.6227
1.12446
1.89751
-6.08101
1.34746
0.0703403
2.07628
-0.223214
0.809201
-0.617838
-0.0993917
2.41364
2.53592
1.23165
0.73202
1.02704
1.34625
2.44057
0.978723
-0.671643
-0.705504
0.369234
-1.52952
-2.77312
1.49642
1.45908
0.166593
0.256388
1.20232
1.36291
2.66561
-1.17088
1.17991
-7.39954
-0.073546
2.13515
-0.0421283
1.21799
-0.290205
0.639569
0.602666
2.78971
0.161042
-0.451431
0.789415
0.33514
-0.689046
-5.5772
-2.08513
1.65566
0.157385
0.747144
2.26427
2.08359
-0.0025915
-2.84957
0.149847
0.2812
1.7281
1.45119
2.05939
0.885642
-1.06511
2.16105
1.32256
-1.53003
1.10996
1.52368
1.86067
-0.923598
-0.492153
-5.92296e-05
1.26881
2.37603
0.74735
-0.655277
-0.827685
2.67949
-1.39188
-0.668723
2.48192
1.30974
0.198841
1.17286
-0.51882
0.783601
-0.186652
-1.30894
0.0809378
-0.564056
0.174706
-0.135689
-9.63896
-4.19379
-2.22519
0.192974
-7.38158
-0.610182
1.34502
1.38131
0.68393
-7.8066
0.275549
0.250738
-0.145646
2.82303
0.939296
-0.509432
1.32879
-0.190958
-0.568837
1.17858
1.16493
1.46308
2.86705
0.00393191
-0.0325516
-0.543952
0.253578
0.975017
1.42693
-0.449664
2.18508
1.01788
1.58411
-0.372498
0.0382687
0.101206
1.52147
1.50026
1.5715
1.48957
2.62179
2.54999
-0.203766
1.31938
1.89303
-0.489797
2.05245
0.0512126
2.51957
2.0324
0.166564
1.68937
0.74636
1.101
0.144513
1.50752
-0.595414
1.29222
0.485113
0.942819
-0.0528735
1.47322
0.0589408
0.305804
2.43134
2.42354
0.962424
-5.93895
0.41164
-0.112285
-0.0324373
1.19915
2.17134
-5.9332
1.54235
1.4087
0.711157
1.51359
-0.646128
-0.278604
0.096945
2.68476
0.349505
0.151749
1.71379
-0.0520811
0.0877166
0.79707
0.371747
1.14155
0.47111
-0.285863
0.872001
1.15912
0.93495
1.07437
2.5794
2.10355
1.83603
1.98834
2.37628
0.670963
0.0435953
-0.589123
-1.79554
2.40406
-0.35112
1.48079
1.318
-0.659426
0.737162
1.64548
-0.411687
0.723289
0.930176
2.90281
-0.621614
0.653528
0.201844
1.68094
0.198528
-0.466707
2.36176
2.00736
1.42258
1.48791
-0.222627
0.586552
-3.18135
2.54473
0.0582485
2.76895
-0.394123
-0.432181
-10.4555
0.701039
-5.61375
0.0784849
0.0389252
0.585992
0.165217
0.557036
-0.4914
0.00542093
-0.187125
-6.28137
-0.374181
-1.73904
0.186176
-0.00758039
-0.498406
-0.78634
1.49477
1.52591
1.91827
1.47182
0.57286
0.609322
3.10284
1.44675
-0.697081
0.0124746
-0.054657
1.15413
1.3014
2.18961
-0.743652
-0.713585
1.16302
0.00108367
0.428256
1.85922
-5.89267
-0.671736
-4.48529
2.57456
-0.534813
1.03502
1.89251
-0.486565
1.15364
0.0543073
-0.67649
-0.649818
0.128688
1.00877
1.75314
1.85725
-1.55703
-6.08148
0.911828
-3.36033
-0.276462
-0.14764
0.176166
-0.178663
0.131005
-0.523265
-0.626656
-0.554581
2.27467
-0.448682
2.49697
-0.696297
-0.0337788
0.516295
0.0713339
2.09788
1.42772
1.75157
0.188449
-0.184778
-0.723207
2.01767
-6.211
1.10659
0.0862271
1.79944
2.09557
0.0835017
1.49281
2.38955
1.61709
1.60625
-3.29437
-0.325692
0.589432
-0.457638
0.0498648
0.854383
0.99646
0.210063
-0.849761
0.418448
0.12564
1.25745
1.04938
-0.329533
2.51125
0.24748
0.0150083
0.324786
1.47956
-0.266074
0.0170067
1.60208
-0.704005
0.17454
-0.138965
1.54625
1.4765
1.39112
0.125421
1.40174
1.71267
1.66413
-0.19536
0.0884777
0.36262
1.27177
-0.79507
-9.31634
-0.473328
-1.59473
-0.514809
0.0214727
0.0409624
0.0806844
-5.28886
-0.515879
-0.739922
0.12503
-0.19488
0.594975
-0.693272
1.58683
3.10667
0.523383
-0.17326
0.687536
0.212998
0.420727
0.0314903
-0.261349
-0.562192
0.233148
1.95005
0.01255
2.34506
0.0449603
1.39624
1.18793
0.634247
-11.455
0.77067
2.62838
-0.506344
1.48408
1.44467
2.17995
0.26352
1.99909
1.57136
-9.92698
1.67771
-0.625906
-1.50324
2.04317
1.31458
-1.64247
-0.00717035
1.92018
-0.0177315
-0.381382
0.0702908
0.0707464
1.14254
0.8313
1.48975
1.36113
1.26752
-3.13832
-0.392456
-0.176638
1.45326
2.7602
-0.295228
-1.65576
-11.2072
1.45864
0.228271
0.239386
0.554432
-0.745284
1.12988
-0.525209
0.177111
2.39571
0.727145
-0.915577
-0.363001
-0.572271
-0.438973
-6.86524
-0.558077
-0.671523
1.76572
0.84396
-0.418886
2.41924
0.0105366
-0.709041
-0.168392
-1.45015
1.59295
-5.52672
0.5388
1.46613
0.151266
-0.204434
-0.108846
-0.731554
-0.391034
1.61985
-0.741775
0.0598871
-3.723
1.4469
1.59917
-0.540192
1.87305
1.73101
2.25403
2.31905
1.63658
0.347814
2.69305
-4.61858
1.42177
0.218467
-0.688013
1.80313
-0.476467
2.27088
0.728605
-1.22066
-7.47326
-6.0344
1.59688
-0.463087
-0.228844
0.228021
-1.32604
-1.00262
0.953745
0.375736
1.05367
2.57206
-5.98575
-0.519599
-0.735639
1.51812
1.11576
-0.366011
3.06763
0.0462915
0.114236
0.950793
-1.3573
1.44629
1.51529
1.69862
1.7036
-1.2326
0.763304
1.41755
0.392839
-0.584482
0.0329235
1.58774
1.66222
2.03691
-0.482366
0.204387
0.658098
0.927324
0.137979
-0.644726
1.23782
-0.264938
1.30668
1.5413
-3.58377
2.33713
-0.386736
2.57917
1.67599
-0.697991
0.000663627
0.0800966
0.584499
1.56757
-0.641944
2.00713
1.4139
0.685399
0.0562465
0.396649
-0.338426
0.6807
-4.13861
0.865645
-0.374597
1.4579
-7.68241
0.0834825
-0.168594
1.83315
2.11448
0.743817
-6.95817
0.76222
0.00519124
0.224803
0.861873
-0.486058
-0.431417
2.4955
-0.697474
-0.0285883
-0.568369
-1.1989
-0.0665028
1.54378
-4.01956
-0.14145
1.56107
0.924265
1.60513
-0.618184
0.671664
2.53436
-2.98044
1.43364
0.398133
-0.40479
0.582982
0.408351
-0.928592
2.58599
1.68808
0.193624
2.52088
1.92123
1.81655
-3.76673
-8.60099
0.876149
-1.42779
-0.0423984
-1.35725
-1.35709
-1.34186
1.15786
0.599936
0.853074
0.963036
-0.468233
1.06748
1.45851
-1.25211
1.52744
0.946563
1.49408
0.00896698
0.0481035
-0.537043
-7.24145
-0.597925
-0.178926
1.4428
-0.706798
2.26374
-0.660647
1.44979
0.849709
0.0940562
0.195339
1.52494
0.690239
0.422774
1.32181
0.10853
-0.874071
2.14042
1.76008
-0.377417
-0.960123
0.0965477
1.32127
0.0926515
0.548304
-1.45207
0.148397
-0.0227064
0.151196
1.28408
1.20241
-0.441177
0.68286
0.0464541
0.0499285
-0.637201
1.83234
-0.571939
1.4714
0.00501588
1.2927
1.5742
0.8816
1.36616
0.13422
-0.48155
0.0961074
-6.01764
-0.488716
-0.375489
0.0941893
-0.238719
1.19007
0.0448228
1.47102
-0.289747
-0.641867
-2.00016
0.0594664
1.5439
-0.641951
1.44198
0.437618
-0.547883
-0.342161
-0.567938
1.03917
1.56283
0.0576172
0.366283
-5.33958
1.7237
-0.104455
0.380941
-0.677209
1.85629
0.718346
0.0437776
1.58919
1.5247
1.79127
0.370996
1.8297
-3.19875
0.124732
-0.126456
1.40357
0.97073
0.455611
0.054722
-0.62634
-0.657312
0.778092
0.173866
-0.649456
2.3888
-3.5893
1.75775
1.05506
-0.237104
0.0441914
0.156879
0.042563
0.248527
0.327321
1.39729
0.0970171
1.49675
-2.05014
0.485519
-0.407556
0.220485
-0.64397
1.83255
2.53946
1.62669
0.758686
0.175078
0.968318
-0.639912
-0.259488
0.127719
-0.0285398
-0.399894
-0.716599
-0.62542
-0.397595
1.30647
1.43229
-1.72302
0.425498
1.67839
-0.412845
-1.42044
1.60044
0.0409272
-0.811172
0.0618439
-0.120034
0.00985082
2.40953
0.128016
1.4024
-1.25507
-0.673964
-0.40795
1.4357
0.255788
1.20276
-1.20202
-0.53515
0.166701
0.194659
1.70952
1.3009
0.335681
-0.192764
-0.215938
2.64242
-0.460749
1.6746
1.83077
-0.114655
0.0382392
0.679799
-11.1596
-0.44239
1.29565
0.862825
1.429
-0.513845
1.62185
0.248474
2.11654
0.183968
1.3199
1.8676
1.23682
0.329415
-0.675361
0.540654
-1.34209
1.237
0.706548
1.78504
0.237399
2.24683
0.363874
2.39382
0.138061
1.85499
-0.109844
1.10364
-1.16135
1.4378
0.692147
0.625718
2.2752
1.47346
0.389557
-0.387603
0.834447
1.40896
0.0522928
-6.42044
1.08601
0.154414
1.91882
-0.548124
2.28811
0.431891
3.14313
2.31662
1.03687
0.892369
-1.1157
0.190329
2.46449
0.225188
0.0589627
-0.00695611
2.53022
0.739825
1.25624
2.19226
-0.680908
1.61424
-0.14185
1.7522
0.0969498
1.6498
1.50742
2.04017
0.0412999
-3.8474
0.46131
-0.582673
0.665223
0.0820138
0.156673
1.90693
2.15393
0.0395997
0.40611
-0.1252
1.92171
1.217
1.3492
0.944024
-0.0903853
-5.52372
-0.44251
1.52822
-2.10848
-0.34785
0.15544
1.02166
0.69763
-0.432984
2.61757
-0.34408
2.2639
0.323686
2.3722
-0.252761
0.15992
0.0948445
0.0941016
1.25631
1.47179
0.199041
-0.362937
0.123932
-0.335769
2.13547
-0.407658
0.140216
-0.414853
-0.353154
0.371422
1.79793
0.649717
0.118191
0.0702647
1.47881
2.77144
-0.583072
0.158931
1.42602
-0.300425
0.797279
0.0902331
1.00176
-0.373617
-6.5316
-0.362173
-0.277136
-0.0210375
0.204625
-1.18029
-0.396247
0.0141613
1.16438
1.58
1.29984
2.68197
-0.872026
2.49846
-4.8286
2.32551
-0.635939
-0.724044
2.58783
0.641776
-0.306945
1.47457
0.0347572
1.59926
-0.633859
-3.57061
0.350202
-0.372458
-0.409398
0.0166718
-0.0225334
0.632893
1.82677
-0.624925
0.698573
-1.94612
0.28346
-0.348752
0.0576685
-0.657118
-0.373658
-1.53982
1.98385
0.0493435
2.16895
0.578762
-0.63325
0.517346
-1.2128
0.0906996
1.28686
1.84638
2.72137
1.13214
1.25126
0.647619
-6.2084
2.62193
2.78605
1.62032
-0.701596
-0.525809
-1.33702
1.36156
0.935084
0.497012
1.22417
-0.345344
0.0563715
-1.23922
2.25783
-0.31842
0.262223
-0.468415
1.40444
0.408739
3.02119
2.81616
1.31074
0.104095
0.311455
-3.75308
0.577401
2.89302
0.0120896
0.0899614
1.05911
0.0307545
0.374532
-0.0452321
-0.178865
0.410258
0.229734
0.687521
0.0588777
0.511479
2.06207
0.318727
1.57233
-0.46158
-0.217712
2.49826
-0.906873
-0.0395675
0.276908
0.662779
0.225746
-0.561114
0.16459
0.133399
0.147586
3.06177
-11.1638
-1.58099
-0.471909
-1.02723
0.105733
0.266835
-0.533687
-1.24452
0.0474267
-2.17159
-1.10833
-0.458391
0.22139
0.180451
0.25582
2.97601
0.195927
0.467934
-0.0185633
0.403268
-6.16828
-0.182972
2.03214
1.49915
0.478527
-0.308482
1.44113
1.58225
-0.268391
-0.701261
0.123732
2.02333
-0.42764
1.39331
0.169641
2.26927
0.292279
-0.457183
-0.283375
1.61574
-0.319696
1.32397
-0.710573
2.84226
-0.525183
-0.159958
-0.929142
0.666714
-0.541047
-0.690855
-0.518365
0.295127
0.556153
-0.513027
-0.456123
0.00613695
0.211977
-0.349556
-1.10921
1.21267
-1.74097
1.27327
-0.511858
1.63702
2.59992
1.36323
-5.72411
1.47645
0.26141
0.000127326
-0.00474561
-0.280569
-1.4115
0.175626
-0.196897
0.540682
0.0820505
-1.12806
-0.175833
-1.11994
0.724979
1.49994
-1.65374
-0.559479
-0.383172
0.0579601
-0.296805
0.858538
-3.51831
-0.558994
1.49672
-0.304906
0.764526
-0.653548
-1.15854
-0.68664
-0.880607
3.03901
0.397831
-0.483509
0.414623
2.45205
2.50415
-0.451555
-0.147123
1.47191
0.0648532
0.176295
2.51791
0.812998
1.27026
3.07281
-0.394763
0.331588
0.314946
2.2211
1.54718
1.51169
1.86111
1.06525
0.0687957
0.123933
0.727438
0.416989
-8.24037
2.56288
-0.723667
-0.832699
0.0589909
-0.342376
0.707142
-0.457565
-0.164223
0.376515
1.5339
1.60616
1.68043
-0.653952
2.18902
2.49033
-1.46977
0.921697
0.0346441
0.0976517
-0.0038494
0.88266
-0.194346
-0.436916
-0.754213
2.77883
-0.630534
1.70214
1.50927
1.94909
1.08217
1.16559
-0.337615
0.0557313
0.792468
0.0372675
-1.55469
-1.67253
0.182638
-0.515422
1.81822
-0.496778
0.0825409
0.341358
-6.12808
-0.484014
-5.00633
1.35661
-0.144795
0.146387
0.735532
-0.544312
0.487526
-1.74408
0.0340997
1.60175
-0.680382
2.56702
0.053086
2.76095
0.00400054
0.131242
0.278828
1.29661
1.25371
-2.65906
-0.0155192
-0.263768
0.280036
1.02421
3.09683
1.95606
0.442969
-0.408056
0.755256
-0.672974
1.68197
-0.209475
0.889898
-0.433789
-0.490064
-5.65198
0.423901
0.0670201
-6.0601
0.990099
0.92771
2.45692
2.66791
-5.99564
-1.2534
0.178308
-1.19063
2.5628
0.175501
-0.626328
0.700466
1.09918
-0.354314
-0.0616324
0.288123
0.0439898
1.3275
-0.339503
0.35012
0.195916
-0.782051
-2.24101
-0.312831
-2.39037
-1.95478
1.62804
-0.445439
-0.452205
-0.142388
-1.39059
2.82581
1.04656
1.40196
-0.156666
0.741639
0.0738175
0.570511
0.511615
-0.532686
-8.62735
2.55375
1.58139
0.075753
-8.05951
2.94324
-0.505437
-7.59992
-0.429896
0.714973
-0.543027
-0.369929
2.20998
-0.0118921
1.35336
0.644582
-0.504566
-0.349147
0.172176
0.708395
-2.65964
0.113688
0.484557
1.45535
-0.571371
-6.71215
0.131051
-0.2395
-1.42929
-1.2052
2.76051
0.996688
-0.663799
0.670076
0.444575
2.39457
0.814315
-10.2128
0.855817
1.87761
1.59334
-0.37069
1.31341
-0.356358
2.53161
0.0609115
1.52209
-0.691768
-0.349127
0.0645629
-0.450747
0.825901
0.561394
-11.3332
-0.556471
1.74208
-0.342836
0.0361781
2.06933
1.18348
2.01343
1.3919
-0.566236
0.0257032
0.142852
1.45663
0.0111772
1.82938
1.11285
2.51463
-0.524893
1.95963
0.654995
2.55994
-0.503266
-0.70146
2.60961
-0.518758
1.08032
-0.67703
2.22682
2.51469
1.60488
-2.47016
1.48205
1.91057
-0.33471
0.651533
-0.418786
2.04303
-0.51043
-0.371453
-1.73407
-2.21981
1.87734
0.656745
-2.33773
0.759429
2.50899
-0.779562
-0.190094
-2.79664
-0.777087
1.20874
-0.0363186
1.41966
1.38438
-2.59926
2.84282
0.0276841
2.12209
2.09301
0.162678
0.0109118
1.29792
-1.53826
-0.0856651
1.27879
1.09713
-0.417887
1.39005
-0.465027
2.28771
1.61265
0.546132
-0.164907
1.62992
-0.327225
0.909709
1.95506
0.387965
0.051761
1.8958
1.57546
-0.485139
-6.05108
1.09221
1.64941
2.52987
-9.05171
2.67757
2.71183
2.72947
-0.186594
1.8429
-0.695122
1.49527
1.98309
1.93905
1.63438
2.17266
3.01325
1.29672
-10.1271
0.004248
-6.95004
2.98457
0.79063
-0.344404
-0.557356
1.39456
2.20399
1.44807
0.463877
-0.00713997
2.18364
-1.5244
1.57102
-0.555569
0.722256
0.0536456
0.343518
0.955683
-0.676307
-0.663298
-0.188243
-0.226812
0.0172957
1.80626
-0.248784
0.303201
1.38025
-1.15398
0.856298
0.0622613
-1.13146
-0.678551
-10.579
2.07765
2.24427
-0.503123
0.680543
1.90871
1.76049
0.0429581
-0.521147
1.6143
-9.23797
2.04617
-1.09243
1.99196
0.939772
0.293924
1.85751
0.989028
1.94055
0.508445
0.736042
-0.319965
-5.67385
-1.26163
0.0701787
1.90391
-0.59835
-0.371967
-0.596591
2.1552
1.91986
0.552655
1.08427
2.14773
-1.80437
1.40648
0.144319
-0.384232
1.40074
-0.446985
-0.645469
-1.1026
-6.57786
-0.16951
-0.676883
0.139089
-1.50689
-6.70774
1.20598
2.5695
2.81904
2.43047
-0.599207
1.58815
-0.707346
1.3679
2.1455
0.266146
1.87016
-0.595896
0.501342
-0.362899
0.0204325
2.03604
-1.08861
1.66999
-0.799667
-0.271411
-6.0914
1.70775
1.6578
1.49143
-0.689025
1.39455
-0.463873
-2.82212
-3.39247
0.440814
2.57303
-2.42956
-0.150805
-0.553558
1.47853
1.42991
0.0324763
0.955306
-0.758501
2.18015
2.00837
-0.366245
-0.200896
2.12072
-0.422834
-0.850139
0.107753
1.9385
2.18244
-0.691462
1.01184
-0.170879
2.52349
-1.92681
-0.352402
0.024264
2.35533
0.110594
-0.299136
-0.334296
2.01941
1.18773
2.00454
-0.0241867
-2.09066
1.63775
2.94495
-5.34027
1.30301
0.0830997
-2.69213
0.0745121
0.528312
-0.580934
0.98222
-0.48992
0.998398
-0.336546
-0.422525
1.83541
2.19862
1.38701
-1.42707
-0.350149
1.70267
-0.7207
0.506515
-0.417484
0.722055
-1.48311
1.60589
1.70776
0.0325763
1.59859
2.48029
-0.145017
1.17335
1.68702
-3.94756
0.927032
-0.369819
0.712759
0.46836
1.18231
0.0128772
0.484327
-0.105923
-3.54159
2.06516
0.527888
-0.272055
-0.417235
-0.0718633
1.54351
-1.00307
2.7158
-0.634094
-8.00735
-0.284994
1.89021
1.6637
1.97277
-8.01841
2.38366
-0.765915
1.12804
0.269584
-1.35261
1.38235
0.666286
-0.145756
0.995232
-6.22274
1.23735
-4.68836
-0.439751
0.0209162
-1.03674
-1.16874
1.30199
2.45019
0.168719
-0.699988
1.89631
-1.3881
2.22055
0.584055
0.145218
0.841947
1.49937
0.758467
-0.325349
0.143467
0.0936493
0.407324
0.571043
-1.29926
-0.540056
0.110464
0.805605
-0.208914
3.01322
1.58394
1.48928
2.24162
0.289096
1.66058
-0.592835
-5.84014
-0.469455
1.49569
2.92562
1.37482
-0.819134
2.06851
1.36867
1.39287
0.141463
0.0324432
0.784149
2.72693
0.152463
-0.429625
2.10202
2.11116
1.54427
1.46698
1.79888
1.04061
-0.497012
-0.548396
1.61798
-5.24416
-5.98881
1.49334
-0.495027
-0.202557
0.403247
1.59053
1.65142
1.67935
-0.10248
1.96911
2.01644
0.0970755
1.76539
1.54204
1.31777
1.13045
0.947382
0.743696
0.0306264
1.88582
1.75106
-0.957384
1.32764
-0.114706
0.08894
2.4293
1.82271
0.0126754
-0.677189
-0.133591
1.87728
1.02829
0.319277
0.0587829
0.295881
-0.287858
0.36845
-0.609034
-0.0916229
1.04018
-0.117624
-0.844553
-0.717361
2.28706
-0.568548
-4.93034
-0.60248
2.46321
-0.25938
0.281129
0.338172
-2.04745
1.17296
1.40142
0.89709
2.15527
1.17597
0.139306
-9.39972
-0.66464
0.0505956
1.72179
-2.15088
-0.690795
-2.11731
-0.206757
-5.56044
-0.585907
-1.74586
-0.0776366
0.60347
1.46647
1.91675
-0.175563
0.11242
2.1648
1.64683
-0.69273
-0.217284
-7.71646
0.887364
0.272844
0.803588
1.26507
-0.361715
-0.252978
-0.266531
0.429282
-0.693688
-10.7916
0.239121
-0.519124
-8.22021
-2.04018
-0.637506
0.220971
-5.97796
0.740957
-0.681016
1.47552
1.31869
0.293523
1.91181
-0.660723
2.46103
-0.353859
0.176785
-1.08776
1.47147
0.889384
-6.06448
-6.09705
1.51728
1.79285
2.55591
-0.691086
-9.5474
-0.615107
-0.045585
0.0058942
-0.651874
0.469338
-1.00405
0.866565
-0.699317
1.0858
0.130368
0.00551093
2.23229
1.30142
-1.15028
0.0688288
-1.33296
-10.6618
1.931
2.81674
-5.87521
1.80098
1.42045
-0.00172278
-0.52092
1.86179
1.78848
-1.82515
-0.251011
-0.487258
-0.65017
-1.05341
-0.812283
-1.01478
0.982367
0.0427395
1.63573
-0.728233
-2.02368
1.39398
-0.988645
-1.82861
0.142918
1.13408
-2.31229
-0.500698
-2.29275
-0.634665
-1.44836
2.5944
-6.48511
-0.136887
-0.716778
1.61858
-5.44997
-0.211909
-1.42159
-0.924422
-0.35952
1.66764
0.0241152
-0.625267
1.28603
0.0350711
-0.309319
-1.27372
-0.794284
1.02239
1.19886
1.50294
-5.11182
2.20871
-0.240746
0.00246112
0.159751
-2.42787
-0.571867
-0.713202
-0.636151
0.273843
0.680115
0.138862
-0.2465
-0.684456
1.37416
-0.819714
1.55201
-1.03982
0.967154
-0.155706
-0.313127
-0.548554
3.03002
-0.553391
-2.86374
-3.30229
-0.562645
1.501
0.122034
-0.539091
0.0902704
-2.18946
-0.684265
-6.26705
-0.720525
1.59903
-1.38002
0.307774
-2.47116
0.0781925
1.28841
0.152428
0.615425
-0.311175
1.93451
-5.6496
-0.429072
2.07487
0.563073
-5.18803
-0.237027
-1.1044
-0.614588
-0.259153
1.89195
-0.467738
0.656085
-8.52797
-1.07626
-1.14436
-1.3357
-6.21689
0.816708
-0.136721
1.49377
0.581705
-0.85973
0.0266531
-0.604047
1.83081
2.19005
-2.43168
0.106556
1.58278
1.4785
1.1257
-0.532231
-0.850051
-0.916392
1.4961
0.489145
-0.587992
-1.25002
0.810205
1.76312
-0.184157
-0.86544
0.142427
2.04981
-1.36544
-1.53425
0.0836682
1.28625
0.108995
-0.445787
2.22297
1.83935
0.127085
-0.581825
1.86796
0.765861
-0.031485
1.3373
-0.230428
-0.689958
-1.03106
-0.582593
1.80565
1.56155
-0.0213154
-0.42602
0.0308295
-0.278147
1.60586
-0.585053
1.06903
1.9491
2.08981
-0.283856
1.49534
1.28334
1.62566
1.72722
-0.116732
1.73898
0.0166896
1.48861
0.82469
1.61165
-0.671462
1.85824
1.77035
1.33563
0.982842
-0.388025
1.02382
0.119508
-0.492934
1.9961
2.0102
-0.509521
1.84369
-0.578445
-5.08771
1.59456
1.60548
-1.22127
0.0268891
-8.71314
-0.558677
-1.35185
-0.474599
-1.17382
-0.33248
1.34464
2.73598
1.85486
-0.196007
-0.446654
1.56071
0.82794
-0.395611
-0.673292
-0.339983
-1.58735
-5.77049
-5.57157
1.42243
0.142509
0.806983
0.0558903
0.0496503
-0.310345
0.0467893
0.30823
0.724637
1.02259
-0.339545
0.606829
-1.72428
-0.763732
1.01568
0.84906
0.00870624
0.0918898
0.990806
0.0487006
0.5952
-0.378105
1.49303
1.23677
2.35564
1.49836
-0.519388
-0.299493
-0.426747
-0.316493
0.0571384
0.087205
-0.0413996
-0.507741
2.79596
0.205592
-0.352779
2.1853
-0.567987
-0.902693
-0.375871
-0.670153
-8.8937
0.360769
-1.088
1.42283
-0.0905889
-0.482936
-0.363361
-0.320923
-0.651517
-0.339627
0.205778
1.17018
-0.531548
-0.496077
-1.18877
0.567234
-0.625681
1.60294
2.24246
-0.307481
1.63048
0.819809
1.08352
2.48934
-0.593363
0.92294
0.775744
0.736517
2.11603
-0.42409
-0.046826
-0.326655
1.5755
2.23893
-0.434256
0.106104
-0.596357
-0.533051
0.796925
-0.415137
-1.40891
-0.344554
0.6081
-9.2693
0.418878
0.432131
1.30717
0.366195
-9.43412
0.18938
0.069349
-0.0913343
2.39498
2.70077
1.98453
2.89863
1.31615
1.13677
1.65472
1.42344
1.36275
-0.479726
1.51652
-0.257529
-6.1412
2.19374
-0.106288
-0.671058
2.59308
0.116933
-0.683908
0.830392
0.741297
1.80929
-2.81061
1.3861
2.40008
-0.580924
-5.11627
-1.33503
1.05366
-0.687747
1.89639
-0.019535
1.81715
1.48781
-0.517481
1.72935
-0.423432
-10.1433
-10.0807
-0.512124
1.77749
-0.5608