/*--------------------------------*- C++ -*----------------------------------*\
| =========                 |                                                 |
| \\      /  F ield         | OpenFOAM: The Open Source CFD Toolbox           |
|  \\    /   O peration     | Version:  2306                                  |
|   \\  /    A nd           | Website:  www.openfoam.com                      |
|    \\/     M anipulation  |                                                 |
\*---------------------------------------------------------------------------*/
FoamFile
{
    version     2.0;
    format      ascii;
    arch        "LSB;label=32;scalar=64";
    class       surfaceScalarField;
    location    "2";
    object      phi;
}
// * * * * * * * * * * * * * * * * * * * * * * * * * * * * * * * * * * * * * //

dimensions      [0 3 -1 0 0 0 0];

oriented        oriented;

internalField   nonuniform List<scalar> 
20045
(
0.26005
-0.295587
0.0355375
-0.550083
0.210372
0.339711
0.136849
0.833518
-0.970367
0.0954867
-0.124758
0.0292716
-0.448272
0.432509
0.0157625
-0.252375
1.04087
-0.788495
-0.544957
0.230347
0.31461
0.0360723
0.230084
-0.266156
0.244862
0.22362
-0.468482
-0.375895
-0.0953418
0.471236
-0.0304196
0.274902
-0.244482
1.0339
-0.542789
-0.491109
0.201827
-0.199085
-0.00274217
-0.639379
0.492049
0.147329
-0.160977
0.556989
-0.396011
-0.54181
0.165915
-0.0704239
0.148732
-0.0783078
0.1205
-0.192199
0.0716982
-0.83828
1.19911
-0.36083
-0.377833
0.00518363
0.372649
0.227571
-0.217913
-0.00965777
0.0720506
0.129776
-0.0860759
-0.464007
0.28088
0.305965
-0.586845
0.443797
0.0624573
-0.506254
-0.338042
0.618922
0.099107
-0.105665
0.00655805
-0.494776
0.989212
-0.494436
0.885514
0.102516
-0.98803
-0.960555
0.588953
0.371602
-0.0781646
-0.18723
0.265394
0.753139
-0.575544
-0.177594
-0.357538
0.625281
-0.267743
1.08729
-0.63101
-0.456279
-0.29614
0.332213
1.12837
-0.56347
-0.564897
0.720258
0.148112
-0.86837
-0.0328083
0.2026
-0.169791
-1.07427
0.424202
0.650073
0.319201
0.257515
-0.576716
0.0257754
0.218255
-0.244031
0.0718445
-0.104222
0.0323776
1.06492
-1.07362
0.0086969
0.742082
-0.246342
-0.49574
0.320243
0.42184
0.517502
0.516396
0.453936
-0.52859
0.0746534
0.612787
0.30155
-0.914337
0.945825
-0.225567
0.0535668
0.827965
-0.881532
0.655807
-1.10045
0.444646
0.961882
-0.711582
-0.2503
-0.428241
-0.50528
0.933521
-0.0456962
-0.165171
0.210867
0.223911
-0.0584044
-0.165507
-0.366681
-0.0815903
0.0789141
0.705519
-0.784433
0.866657
0.0451583
-0.911815
0.340743
-0.698281
1.07178
-0.75461
-0.317172
-0.0123742
0.253643
-0.241268
0.407649
0.664133
0.483114
-0.781864
0.298751
0.199899
0.0276716
0.25769
0.169224
-0.426914
0.815997
0.146851
-0.962848
-0.0326865
0.125483
-0.0927965
-0.340067
0.0590934
0.280974
0.445213
-0.200351
0.960759
-0.981282
0.0205228
-0.0784747
0.0457881
0.0295751
0.194336
-0.144644
-0.517572
0.662216
0.188391
-0.0767116
-0.11168
0.89694
-0.122251
-0.774689
0.696982
-0.618068
-0.0663884
0.963328
0.243119
-0.404096
-0.245471
0.481643
-0.236172
0.380495
-0.673913
0.293418
0.509967
0.602285
-1.11225
0.45446
-0.378297
-0.0761629
0.643127
-0.160013
-1.0356
0.170867
0.864733
-0.00160233
0.261652
-0.237711
0.307642
-0.0699313
0.578356
-0.803939
0.225583
-0.80572
0.0344827
0.771237
0.512334
0.0951411
-0.607475
-0.451668
0.378706
0.0729624
-0.828606
0.00305258
0.825553
0.385021
-0.0680086
-0.317012
0.21125
-0.314704
0.103454
-0.103619
-0.400562
0.504181
0.315196
-0.333291
0.0180953
0.73596
0.208301
-0.944262
0.0942995
0.00480748
0.0119368
-0.158739
0.146803
0.630365
-0.311164
-0.113629
0.119868
-0.00623985
0.773935
0.354433
-0.274139
-0.36524
-0.193157
0.205093
-0.151162
1.01782
0.0324119
-0.270123
-0.0780362
-0.0355923
0.228456
0.607663
-0.83612
0.656811
-0.977665
0.320854
0.208465
-0.230189
0.20035
0.029839
-0.110378
0.141068
-0.0306897
0.676498
-0.517951
-0.158547
-0.264646
0.21895
0.66921
-1.05185
0.382642
-0.110648
0.17974
-0.0690918
0.02485
-0.136565
0.111715
0.571521
-0.127724
0.817054
0.270235
-0.604107
0.459463
0.689872
-1.0267
0.33683
0.046557
0.0739433
0.223886
-0.23626
-0.412436
0.337748
0.0746882
-0.417464
0.0510478
-0.311699
0.260651
0.686037
0.275845
0.571195
-0.737039
0.165844
0.800068
0.0875015
-0.88757
-1.01891
0.80754
0.211369
-0.273594
-0.240033
0.513627
1.01507
-0.329036
-0.486836
-0.0417533
0.529225
-0.366584
-0.162641
6.83271e-05
-0.0108125
0.0107442
0.573591
0.40291
-0.976501
0.61767
-0.570508
-0.0471617
-0.168146
0.0753791
0.0927672
-0.164825
-0.0653645
1.14551
-0.455641
-0.343082
0.366978
-0.0238961
0.556256
-0.906336
0.35008
0.300185
-0.728426
0.483128
0.314477
-0.797605
0.72119
-0.340695
0.973782
-0.126896
-0.846886
0.0966717
-0.51597
0.419299
0.947562
-0.682969
-0.264593
-0.147482
0.218297
-0.0708147
0.0246922
0.901581
-0.926273
1.06495
-0.179433
-0.824928
0.0264433
0.798485
-0.508309
0.43716
0.0711491
1.00587
-0.495906
0.142805
0.311655
-0.647746
0.764286
-0.11654
-0.675933
0.812782
0.0116276
-0.171829
0.160201
0.144462
-0.165929
0.0214673
-0.0168823
-0.20087
0.217753
0.859004
-0.0174912
-0.841513
1.215
-0.581083
-0.633917
-0.236536
0.219654
0.62693
-0.906342
0.279412
0.0845284
-0.012684
-0.862744
-0.512175
0.647235
-0.135059
-0.649605
0.518944
0.130661
-0.00962977
-0.0418722
0.051502
0.330823
0.616739
-0.0158723
0.0159406
0.304503
0.224722
-0.696646
0.0489003
-0.742801
0.925956
-0.183155
-0.686604
0.7709
-0.0842963
-0.611739
-0.421496
1.03324
0.0539419
-0.287666
0.233724
0.403591
-0.485857
0.082266
0.662439
0.135382
-0.797821
0.0127844
-0.757401
0.744617
-0.437893
0.921021
0.206638
-0.566067
0.359429
-0.38029
1.0495
-0.833683
0.579016
0.254667
-0.0753775
0.0848288
-0.00945137
0.372531
-1.00763
0.6351
-0.812998
0.318222
-0.616411
-0.39619
0.920317
-0.594036
-0.326281
-0.287815
0.31359
0.137239
-0.145124
0.00788548
-0.765149
-0.214086
0.979235
-0.764362
1.07793
-0.313569
0.988715
-0.682086
-0.306629
0.0395433
-0.229394
0.189851
-0.225158
-0.537157
0.762315
-0.223499
0.193079
-0.432754
0.15916
-0.628547
-0.201914
0.830461
0.0982484
0.0270585
-0.125307
0.0546342
-0.56681
0.165569
-0.243733
0.85079
-0.0507219
-0.153613
0.120805
-0.146724
0.178917
-0.0321931
-0.155949
1.01495
-0.807266
0.582108
0.19713
0.0780478
-0.275178
-0.713425
0.151848
0.561577
0.348231
0.640484
1.05609
-0.683556
0.647258
-1.04317
0.395911
0.285583
-0.638131
0.352548
0.0516943
-0.429527
-0.483617
0.712073
0.643158
-0.895533
0.145353
-0.636306
0.490952
-1.04545
0.544399
0.501056
-0.0641037
-0.387564
0.184847
0.159385
-0.344232
0.598331
-0.10329
-0.495041
0.0494445
-0.617101
0.641793
-0.268545
-0.0745366
0.586453
0.856523
-0.819119
-0.0374039
-0.0119952
-0.140132
0.152127
0.664871
0.053264
-0.718135
0.172354
0.137117
-0.309471
0.00286564
0.57398
-0.576846
-0.264809
0.843165
0.586385
-0.379746
-0.0564606
0.178645
-0.122184
0.752664
-0.196408
0.100125
-0.00826909
-0.0918555
0.185327
0.0559738
-0.241301
-0.114062
0.118272
-0.00421038
0.932334
-0.626895
-0.305439
0.227551
-0.991913
-0.124606
0.0105449
-0.858021
0.250711
0.60731
0.873398
-0.248117
0.234373
-0.977173
1.22471
-0.582723
-0.641982
-0.012919
0.111167
0.955752
-0.404904
-0.550848
-0.606402
0.122499
0.483903
-0.956698
0.959705
-0.00300752
0.303781
-0.689043
0.385262
0.0358484
0.075861
-0.111709
-0.485591
0.620287
-0.134695
0.0323064
-0.207649
0.175343
-0.164853
0.0542057
-0.128403
0.0180255
-0.680099
-0.297567
0.530373
-0.77167
0.241297
0.18754
-0.304667
0.117128
0.488094
0.265045
0.535092
-0.389739
0.0288852
0.115576
0.52399
0.349408
-0.514269
0.0367494
0.477519
0.316212
0.63954
0.411604
0.145385
0.285881
-0.0983409
-0.300586
-0.0234163
0.324003
0.0160059
-0.0913834
-0.611237
0.614102
-0.223852
0.301444
-0.0775921
-0.906192
0.860034
0.0461576
0.0360076
0.531922
-0.56793
-0.179804
-0.143458
0.323262
0.766083
-0.829832
0.063749
-0.596428
-0.449027
1.13919
-0.805264
-0.333925
-0.102947
0.0909521
0.762952
-0.45917
-0.285468
0.815841
-0.0060877
-0.257159
0.263247
0.893975
-0.116129
-0.777846
0.969598
-0.185996
-0.783602
-0.309837
0.303749
0.851065
-0.496139
-0.354927
-0.166847
0.787894
-0.621046
0.370935
-0.554899
0.183964
-0.233667
0.0234182
0.210249
-0.109546
0.0708954
0.0386506
1.03118
-0.794894
-0.236289
-0.549137
-0.469772
0.706108
0.150415
-0.819268
-0.0869242
-0.0548466
0.240174
0.238675
-0.849503
0.610828
0.00412308
0.133116
-0.532967
1.10656
0.324478
0.607856
1.00429
-0.653842
-0.350444
-0.804001
0.602087
0.717044
-1.06231
0.345266
-0.626652
-0.0452936
0.671946
-0.250102
-0.183248
0.43335
0.861081
-0.234151
-0.0511754
0.248305
0.286629
-0.0784462
-0.497098
-0.706907
1.01184
-0.304932
-0.168766
0.0220422
-0.070635
0.0141744
0.127686
-1.08438
0.614285
-0.879095
0.180676
-0.265412
0.380655
-0.115243
-0.0034626
0.0989493
-0.517238
0.335267
0.181971
0.410856
0.265642
-0.110327
0.345835
-0.235508
0.484489
0.133181
-0.617866
0.856541
0.581691
-0.0693565
-0.221056
-0.492369
0.982025
-0.654927
-0.327098
0.964109
-0.970166
0.356453
0.613713
0.800075
-0.869527
0.0694513
-0.456966
0.353347
-0.13526
-0.0328863
-0.215832
-0.612774
0.300304
-0.564692
0.264388
0.431547
0.419519
0.661076
-0.954257
0.293182
0.241628
-0.559475
0.317847
-0.972999
0.167279
0.0114275
0.373593
-0.713033
0.909041
-0.196008
-0.238799
0.321513
-0.0827131
-0.436477
-0.10848
-0.138093
-0.233696
0.37179
0.0980786
0.000525976
-0.0986046
-0.344535
-0.163774
0.368309
0.442934
-0.811243
0.909372
-0.59316
0.370788
-0.451643
-0.00532353
0.486299
-0.244671
-0.690702
-0.142981
-0.149099
0.206114
-0.0570155
0.965536
-0.352749
-0.473686
0.763145
-0.289459
-0.130241
0.155567
-0.025326
0.714729
-0.116398
-0.302346
-0.547158
-0.511898
0.929358
-0.41746
0.614167
-0.975414
0.361247
0.433308
0.705882
-0.0970486
0.0891874
0.00786126
0.0960918
-0.722744
0.705686
-1.06934
0.36365
-0.0079823
0.196374
-0.081616
0.652811
-0.1852
0.799486
-0.344857
0.63044
0.165619
-1.0039
-0.887806
0.614706
0.2731
0.655237
-0.121099
-0.534138
0.932613
-0.16653
-0.416156
-0.52961
-0.487635
0.377391
0.578432
-0.526196
-0.0522354
0.322641
-0.317457
-0.734593
0.652977
0.859566
0.205352
-0.801518
0.327832
0.852256
-0.146149
0.159882
-0.21788
0.0579972
-0.0406084
-0.568561
0.609169
-0.904832
0.165686
0.739146
0.735856
-0.735856
-0.320799
0.915301
-0.594503
0.288476
-0.398803
0.633199
-0.440585
-0.192614
-0.9217
0.963715
-0.0420147
0.356444
-0.047461
-0.308983
0.277061
-0.0994036
-0.177658
0.134593
-0.314397
0.0915955
0.552534
-0.838001
-0.818775
0.961991
-0.143216
-0.286406
0.654716
-0.272245
-0.0290972
0.301342
-0.147153
0.231611
-0.0844578
-0.377163
0.428858
0.934485
-0.725429
-0.209055
-0.0928624
-0.51811
0.610973
-0.252743
0.267791
-0.0150475
0.151959
-0.288959
0.137
-1.06595
0.455286
0.610667
-0.092358
-0.0324003
0.216981
-0.0570983
-0.0484167
0.261588
-0.213171
0.415878
0.615305
-0.251252
-0.0209933
-0.0969648
-0.254207
0.351172
-0.501068
0.800236
-0.299168
-0.00878478
0.0899852
-0.0812004
0.46296
-0.232613
0.790091
-0.0443692
-0.745722
0.0323008
-0.432863
0.000919013
0.66152
0.440661
0.300735
-0.741397
0.480399
-0.405152
-0.0752473
-1.0101
0.185173
-0.419614
0.21052
0.209094
0.337677
0.499022
-0.836699
-0.630812
0.585518
0.0505627
-0.915886
0.865324
-0.149404
0.188947
-0.0728424
0.0799403
-0.00709792
0.0237259
-0.324312
-0.5157
0.258768
0.256932
-0.684112
-0.173909
0.620448
0.162583
0.0774553
-0.240039
-0.14383
0.0135886
0.176213
-0.71662
0.540407
0.151613
0.535654
-0.687266
0.266474
-0.718997
0.850893
-0.131896
-0.719358
0.552511
-0.0590484
-0.0466167
-0.416644
-0.23296
-0.275774
0.0643505
0.211424
-0.874022
0.372954
0.658487
-0.75135
0.211791
0.640465
-0.316681
0.319368
-0.00268719
0.232712
-0.719087
0.486375
0.176019
-0.285357
0.109339
0.536602
-0.838948
-0.651398
-0.0352059
-0.332912
-0.00715556
-0.0931515
-0.148904
0.242055
0.338056
0.0638121
-0.0625351
-0.00127699
0.777982
-0.440305
-0.760332
0.96706
-0.206728
0.262914
0.198976
-0.46189
-0.36916
0.219757
-0.239995
-0.0357799
0.283514
0.349685
-0.278779
-0.747923
-0.217728
0.068629
0.619146
0.425796
0.155894
-0.793763
0.84733
0.0227729
-0.400376
0.377603
-0.0866922
-0.831248
0.91794
0.0826577
-0.0861533
0.00349557
0.319829
-0.265887
-0.185395
0.55633
0.583565
-0.486893
-0.390679
-0.126559
-0.00516273
-0.414922
0.420085
0.401714
-1.01345
-0.0622508
-0.496714
0.558964
0.0336184
-0.181172
0.147554
-0.650978
0.0460927
0.604885
0.972347
-0.670797
-0.00825385
0.0971961
-0.0889423
-0.227132
-0.0256116
0.195028
0.356837
-0.551865
0.107997
-0.136171
0.0281731
0.665651
0.376134
-1.04179
-0.40601
1.14197
0.0927839
0.00529474
-0.263351
-0.56819
0.831541
0.418378
0.727135
0.831623
-0.68001
-0.370189
0.232096
-0.00294573
-0.1066
-0.302052
1.0191
0.145819
-0.766921
0.621102
0.948646
-0.139539
-0.809107
-0.373337
0.672765
-0.299428
0.394324
-0.241342
-0.504981
0.746323
-0.172039
0.240362
-0.0683234
-0.290724
-0.479052
0.769776
0.0740904
-0.221243
0.050454
-0.0600838
0.505803
-0.796527
-0.698013
-0.199734
0.897748
-0.0528397
-0.488231
0.541071
-0.00178554
1.08263
-1.11743
0.0348012
0.220309
-0.128909
-0.0914
0.00605821
-0.322739
0.253726
0.250455
-0.333268
0.0831657
-0.777851
0.97858
-0.20073
0.0302462
-0.254098
0.49384
0.22735
-0.846476
-0.227139
0.142715
-0.116672
-0.0260427
0.538607
-0.11281
-0.211105
0.2328
-0.0216945
-0.186536
0.218842
-1.15011
0.533703
0.893235
0.147634
-0.108874
0.260833
-0.21807
0.480983
0.828709
-0.276175
-0.219063
0.00795701
-0.106458
-0.628135
0.273898
0.226871
-0.215243
-0.917864
0.0130315
-0.211197
0.22202
-0.0460009
-1.01178
0.626729
0.385056
0.811804
0.148955
0.208842
-0.0739982
-0.134844
0.291863
-0.273264
-0.0185981
-0.885127
0.321657
-1.03402
0.522126
-0.293525
0.237702
0.0558227
0.0119245
-0.0792335
0.0673091
1.02941
0.00203702
-1.03145
0.157912
0.00885037
-0.166762
-0.138722
-0.273714
0.241832
-0.030582
-0.0680553
0.069225
-0.00116964
0.406532
-0.0607701
-0.345762
0.0112141
-0.0792695
0.846627
-0.638325
-0.0277044
-0.154847
0.182551
-0.970866
0.193015
0.0119864
0.0437249
-0.236881
-0.173312
0.335895
0.0508211
-0.0219359
0.256164
0.162236
-0.4184
0.394303
-0.136613
0.382077
-0.359304
0.208418
-0.183568
0.0906666
-0.329466
0.739275
-0.206143
-0.533132
0.548158
-0.0522321
-0.495926
-0.436198
-0.0797721
0.176966
0.0319222
-0.208888
0.33978
-0.440903
0.101123
1.10581
-0.0398339
-1.06597
0.179614
0.0413063
-0.22092
-0.492593
0.670618
-0.178025
0.453175
0.528862
-0.982036
0.0202688
0.233374
-0.273322
0.447059
-0.173738
0.230291
0.0923254
-0.322617
-0.76444
0.389208
0.375232
0.0662242
0.00300076
-0.844459
0.146446
0.321731
-0.190194
-0.131537
0.447949
-0.604334
0.156385
-0.100473
-0.195114
0.150962
0.931668
0.834317
-0.150981
-0.683336
-0.828759
0.109762
0.332051
-0.553107
0.653567
-1.06145
0.407887
-0.11106
0.295907
-0.00274912
-0.401477
0.304512
-0.16953
0.220578
-0.0981077
-0.780212
0.878319
0.393576
0.369375
-0.711532
0.763505
-0.051973
0.0845001
-0.177652
-0.629002
-0.234567
-0.123285
0.138323
-0.0150388
0.141631
-0.323565
0.181934
0.0783109
0.0172416
-0.0955525
-0.113143
0.561092
-0.590088
-0.260852
0.85094
-0.758413
-0.248862
1.00728
0.466415
-0.379979
-0.0864369
-0.186505
0.0207162
0.165789
0.147477
0.0372459
-0.184723
-0.952366
0.0348752
0.917491
0.0216583
0.202034
-0.223692
0.791059
-0.879684
0.0886244
-0.478895
0.328043
0.190534
-0.518578
0.0137945
-0.137079
-0.288313
-0.293238
0.581552
0.629576
-1.00987
-0.948867
0.825846
0.123021
0.125444
-0.017447
0.721541
-0.227701
-0.0813305
-0.208472
0.289803
-0.00933298
0.136623
-0.12729
-0.249704
0.791359
-0.541655
0.861974
-0.676338
-0.185635
1.01349
-0.968785
-0.0447012
0.777412
-0.383184
-0.394229
0.0398325
-0.236823
0.19699
-0.302979
-0.00871978
-0.963528
0.841232
0.122296
0.0423443
-1.00587
-0.159872
0.691075
-0.531203
-0.527204
-0.267689
0.208284
-0.171897
-0.0363863
-0.763862
-0.207004
-0.195827
0.136155
0.0596719
0.280067
-0.107713
-0.900723
0.854383
0.0463393
-0.219476
0.106183
-0.182894
0.170568
-0.0126558
-0.588354
0.102762
0.155837
-0.175205
0.0193678
-0.347831
0.366087
-0.0182553
0.374694
-0.0182503
-0.259171
0.519506
0.195223
0.373944
-0.0822447
0.292707
-0.210462
-0.15505
0.558641
-0.629299
0.397259
0.232041
0.0673986
-0.00117442
0.765383
-0.371806
0.587061
-0.354348
-0.185346
-0.207538
0.392884
0.245942
-0.733376
0.487434
0.558972
-0.611812
0.988328
-0.428288
-0.56004
-0.00409755
-0.521679
-0.107621
-0.721061
0.99552
-0.274459
-0.0409137
-0.245316
0.892574
-1.02018
0.256314
-0.227929
-0.00573876
-0.15059
0.0646784
0.121494
-0.0032216
-0.487596
-0.521644
1.1281
-0.431118
0.184929
-0.270216
0.0852876
0.0539827
0.223079
-0.660636
-0.356357
1.01699
0.587441
0.27364
-0.00626344
-0.150145
0.156408
0.821493
0.113305
0.00905884
-0.122364
0.559729
0.179546
-0.360857
-0.980991
0.162216
-0.21975
0.0102516
0.209498
0.561279
0.663426
0.218917
0.115622
-0.334539
0.959442
0.0540438
0.605298
-0.84481
0.239512
-0.831776
-0.00130227
0.833079
-0.784162
1.01713
-0.232963
0.146794
-0.00724702
-0.139547
-0.366135
0.995711
0.0618756
0.267866
-0.329741
0.0335476
-0.74508
0.299439
-0.0425695
-0.25687
-0.882782
1.14237
-0.259587
-0.247473
0.555656
-0.308183
1.16102
-0.50932
-0.651705
0.0186531
-0.605549
0.586896
0.073995
0.00594532
-0.424327
0.877502
0.559714
-0.880513
0.936624
-0.322456
-0.189885
0.162181
-0.869793
0.0380166
1.00739
-0.346312
-0.00754535
-1.02805
0.241458
-0.0232025
0.263609
0.57496
-0.83857
0.556923
-0.14435
-0.412573
0.619607
-0.962526
0.342919
-0.137298
0.0100835
0.127215
-0.206805
-0.474187
0.680993
0.362022
-0.271356
-0.189697
0.288335
-0.0986379
0.168958
0.243324
-0.412282
0.0773721
0.130911
-0.843566
0.985879
-0.142314
0.0767388
0.00591889
0.439224
0.211952
-0.651176
0.383474
0.371109
-0.754583
0.170791
0.484446
-0.0157541
0.989536
-0.00331379
0.787819
-0.784505
-0.000770927
-0.00801385
0.090244
-0.0279548
-0.0622893
0.639639
-0.524943
-0.114696
0.447481
0.540847
0.19939
-0.095598
-0.103792
-0.273613
0.803602
-0.529989
0.00222786
0.174384
-0.176612
0.255685
-0.664477
0.408793
-0.435739
-0.161834
0.597573
0.752941
-0.0880701
0.283163
0.27376
-0.117167
-0.423638
0.540805
0.285458
-0.803568
0.0565267
0.21296
-0.269486
0.192671
-0.0614188
-0.131252
0.00262979
0.0713652
-0.0779169
0.734932
-0.657015
-0.102795
0.93076
0.769341
-0.63497
-0.134371
0.63788
-0.542738
-0.530197
0.199385
0.330812
-0.0474985
-0.393087
-0.212553
0.177262
0.0352905
0.067518
0.141324
0.137565
0.734193
-0.871758
0.217262
0.18927
0.129634
-0.888047
-0.450214
0.178968
0.271246
-0.323994
-0.246203
0.570197
0.490718
-0.234554
-0.834805
0.548399
0.363154
-0.312759
-0.0503946
-0.560103
0.807988
-0.247886
-0.426478
0.458779
-0.464401
0.592081
-0.12768
-0.700448
0.967261
-0.266813
-0.0219938
0.209349
-0.187355
0.128208
-0.116284
-0.380621
-0.646252
0.99084
-0.344588
-0.534512
0.68636
0.500804
-0.52071
0.0199055
-0.0558243
-0.220774
0.276598
-1.00108
0.703784
0.297294
0.0034935
-0.0702303
0.0667368
-0.0126532
0.533034
-0.782738
0.673019
-0.427078
-0.250897
-0.636909
-0.701852
0.698538
0.480013
0.0389314
0.320639
0.186623
-0.507262
-0.335845
0.314872
0.0209732
0.310007
-0.284822
-0.0251846
0.181119
-0.42212
0.241001
-0.303946
0.419454
-0.115508
-0.748443
-0.156752
0.905195
0.204523
-0.260347
0.444143
0.195497
-0.964634
0.709047
0.255587
0.240734
0.0645308
-0.305265
0.00376953
0.191893
-0.241921
0.0500283
-0.647576
-0.256148
0.437267
0.14053
0.20552
-0.165687
0.289189
-0.147557
0.240639
-0.480672
0.0337683
0.281428
0.144428
-0.498359
0.353931
-0.559454
-0.421205
0.98066
0.233091
-0.350258
-0.523086
-0.0470933
0.57018
0.132676
0.184664
-0.31734
0.027351
1.11664
-0.735451
-0.381189
0.191046
0.643271
0.0044977
0.424129
-0.345206
-0.0789234
-0.271206
0.643377
-0.372171
-0.570936
-0.195362
0.766298
-0.459566
0.186245
-0.376096
-0.154101
1.03941
-0.434011
-0.605394
-0.248753
0.0256046
0.223149
0.358303
0.081202
-0.439505
-0.175672
0.19733
-0.0648371
0.351029
-0.286192
-0.0639328
-0.0225166
-0.214019
-0.00758817
0.59027
0.449136
-0.497316
0.921518
-0.258567
0.84752
-0.251801
0.00304789
-0.815341
0.244405
0.714181
-0.618089
-0.118455
-0.632092
0.139499
0.491428
-0.6513
0.66186
-0.702469
0.818016
-0.0179402
-0.193324
-0.12138
-0.242406
-0.105185
0.34759
-0.302907
-0.0303841
0.712515
0.133431
-0.845945
0.00370769
-0.250379
0.246672
-0.00144064
0.373312
-0.982412
0.6091
0.84738
-0.0563212
-0.892911
0.906
-0.0130889
0.208491
-0.149398
-0.89602
-0.105058
-0.323736
0.861084
-0.0198517
0.268606
1.01291
-0.399063
-0.613845
-0.577084
-0.0740443
0.651128
0.0591322
0.490155
-0.549287
-0.679045
0.0280672
-0.194128
-0.107777
0.301905
-0.454639
0.600458
0.151006
0.500559
-0.651565
-0.451982
-0.0290543
0.481036
-0.867007
0.067523
0.799484
0.134536
0.538483
-0.234006
0.471527
0.305886
-0.256247
-0.163367
0.704054
-0.83095
0.0977266
-0.364193
0.266467
-0.260647
0.280916
0.673759
0.0385485
-0.712308
0.598399
-0.856966
-0.0133553
0.0492037
-0.221203
0.605026
-0.383824
-0.565966
0.277653
-0.0151935
0.278295
-0.263102
0.202568
-0.00520541
-0.197363
0.246951
0.0728777
-0.256171
0.588222
-0.0494452
-0.24408
-0.156188
0.169982
0.35389
-0.216773
0.190342
-0.114481
-0.188651
0.181721
0.00693044
0.208045
-0.230009
0.0219643
-0.698332
0.576081
0.0818764
-0.604963
-0.0141244
-0.273691
0.0081543
0.548361
-0.556515
0.322868
-0.346284
0.33374
-0.6833
0.34956
-0.447172
0.724121
-0.276948
0.262698
-0.969605
0.114292
-0.0248224
-0.924044
0.429156
0.698944
-0.725587
-0.109218
-0.656634
-0.313531
-0.41358
0.179883
-0.107656
-0.0156454
0.123301
1.0999
-0.538623
0.924658
-0.218972
-0.225693
-0.159096
0.384789
-0.92432
0.363376
0.560944
0.272826
0.00207573
-0.168911
0.496955
0.162607
-0.0905559
-0.38763
0.298666
-0.23679
-0.0584798
0.277581
-0.219101
-0.107647
0.820161
0.183881
-0.243717
0.0598351
0.893055
-1.14552
0.538929
0.606591
0.225374
0.21035
-0.435724
0.620893
-0.526045
-0.0948486
-0.521189
0.273716
-0.26353
-0.0244728
0.382776
0.883267
-0.969959
0.404748
-0.174457
-0.3871
0.672557
-1.0223
0.725228
0.297075
0.287141
-0.699364
0.412224
-0.681992
0.720936
-0.0389438
0.365173
-0.520223
0.0139487
0.195697
0.270719
-0.0499941
-0.623918
0.213876
-0.923904
0.35613
0.567774
0.244994
-0.822077
0.73306
-0.0302357
-0.576166
0.137023
0.376894
1.00995
-0.333411
-0.676535
-0.162623
0.260428
-0.584423
0.158065
-0.924599
0.850555
-0.625446
0.384105
0.471317
-0.808935
0.612519
0.196416
-0.933229
0.611414
0.321815
-0.349923
-0.126505
0.160123
-0.965808
0.685769
0.280039
0.611839
-0.977974
-0.829263
-0.0143032
1.05494
-0.401377
0.854846
-0.409071
-0.445776
-0.0217005
-0.135647
0.157347
0.116799
0.476264
0.526329
-0.684027
-0.124908
0.150675
0.211348
0.205601
0.351084
-0.556685
0.37655
-0.217165
-0.0643528
-0.950174
1.01453
-0.346113
0.338867
-0.776761
-0.563745
-0.382952
0.946697
0.24707
-0.315078
-0.665342
0.21636
0.448982
-0.00942684
0.0290239
-0.0195971
0.836313
-0.934421
0.379024
-0.600227
0.488438
0.182427
-0.670865
0.264552
-0.0796229
-0.78854
0.231117
0.557422
-0.624569
0.18883
0.364047
-0.635252
0.394566
-0.296839
-0.00203395
-0.00739289
-0.0452733
0.993919
-0.586685
0.732185
-0.1455
0.956749
-0.00129583
-0.955453
-0.70998
0.00147557
-0.266887
0.0434
0.692456
0.126525
0.0290423
0.106064
-0.0216302
0.310106
0.495728
0.06109
0.248917
-0.837715
-0.0630074
-0.87701
0.426048
-0.830952
0.175598
0.179541
-0.355139
0.870193
0.0478225
-0.918016
-0.104758
0.0975112
-0.324849
-0.709175
-0.763993
-0.105534
-0.289368
0.887767
-0.317106
0.447325
-0.130219
-0.8207
0.261246
-0.279023
0.484624
-0.405848
-0.605936
-0.240451
-0.268279
0.350546
-0.44837
0.100539
1.00455
-0.143466
0.623032
-0.514199
-0.108834
0.0864146
0.0922303
0.256243
0.983276
-0.932713
-0.0134645
-0.215026
0.31848
-0.467998
0.504747
-0.443763
-0.520391
0.205827
0.173505
-0.379333
-0.766755
0.0308987
-0.117219
0.73379
-0.616571
-0.10835
-0.784561
-0.661403
0.714667
1.10342
-0.481236
-0.622184
-0.0966718
0.307191
0.822958
-0.38279
-0.440168
0.257255
-0.279772
0.0638432
0.0264008
-0.178487
0.0168685
0.161618
-0.168466
0.489105
-0.384569
0.996408
-0.0172937
-0.154604
-0.260484
-0.0903177
0.350802
-0.00837493
0.844688
0.233455
0.105683
-0.339138
-0.35556
0.550588
0.396617
0.406985
-0.347197
-0.103017
0.502333
-0.178241
-0.324092
-0.0304577
0.0133508
0.017107
0.0538928
-0.698948
0.645055
-0.890837
0.126844
0.210671
-0.413225
0.839274
-0.00425502
0.261511
0.130545
-0.447652
-0.995822
0.508187
-0.881977
0.300894
-0.43781
0.0606467
-0.361625
-0.560215
0.92184
-0.962009
-0.0146712
-0.158756
0.173427
0.77358
-0.602713
0.61528
-0.556148
0.147394
0.505554
-0.652948
0.166308
-0.360436
-0.673317
-0.266131
0.939448
-0.106593
0.291644
-0.185051
-0.414812
0.763098
-0.348286
0.818784
-0.581127
-0.237656
0.823203
0.0257032
-0.848906
-0.452529
-0.692991
-0.302921
-0.0299904
0.370363
0.64471
-0.00943917
0.0938373
-0.0843982
-0.628286
-0.160254
0.647561
0.551549
-0.503515
0.617232
-0.113718
0.163479
-0.15442
0.179913
0.384623
-0.564536
-0.0528513
0.236733
-0.103408
-0.8624
-0.910541
0.406363
-0.0432093
-0.144297
0.309866
0.0877207
0.685585
-0.773306
-0.490263
-0.0980908
0.62232
0.287052
0.0677846
-0.232609
0.55355
-0.596603
0.0430536
0.087381
-0.353339
0.265958
0.581299
-0.0493767
0.258667
0.792976
-0.361429
0.827645
-0.488777
-0.113629
-0.236762
0.350391
0.708785
0.079109
0.0178969
-0.641047
0.434242
0.621152
-0.629527
-0.406285
-0.373275
0.77956
-0.535398
-0.388921
-0.895472
0.916658
-0.0211857
-0.104648
-0.354443
0.249259
0.535207
0.257769
0.0712617
-0.287309
0.216047
-0.323484
-0.657799
-0.187299
-0.701124
0.888423
0.894391
-0.30695
-0.240208
0.296735
0.546693
-0.871542
0.420691
-0.358233
-0.406418
0.941581
-0.535164
0.35057
0.454767
0.308675
-0.763442
0.921251
-0.57739
-0.343861
-0.335614
-0.65984
0.943846
-0.284006
0.529288
0.0937441
-0.272983
0.268728
0.401036
0.759988
-0.202015
0.180314
0.057168
0.00664416
0.901786
-0.498876
0.431357
0.668545
-0.393085
0.212368
0.180718
0.241077
-0.426423
0.71397
-0.0402111
0.545987
0.30886
-0.643242
-0.0571955
0.700437
0.17992
-0.0236253
-0.156295
0.145526
0.0747835
0.138004
-0.922166
-0.268218
0.291944
0.658853
-0.579082
-0.079771
0.147298
0.355035
-0.146518
0.0725197
0.23192
0.227908
-0.459829
-0.403896
0.744639
-0.0572567
-0.413003
0.984662
-0.571659
-0.23526
0.404218
-0.00915682
-0.442825
1.02668
-0.494306
-0.324962
0.545041
0.0758522
0.284045
-0.298169
-0.152629
0.130635
-0.268724
-0.135266
-0.00856397
0.421731
-0.136309
0.763223
-0.626914
-0.233681
0.185264
-0.314763
0.10629
-0.31226
0.00933831
-0.881333
0.617982
0.219611
0.227448
0.0961279
-0.3177
0.221573
0.228883
0.0787588
0.746143
0.42432
-1.17046
-0.102875
-0.0133562
0.116231
-0.0107533
-0.749578
0.728059
0.375361
0.737456
-0.649735
-0.961891
-0.0381139
0.0333855
-0.14314
0.427058
0.583043
0.297718
-0.880761
0.353177
-0.0303089
-0.0253988
-0.297555
-0.0955305
-0.543657
-0.474977
0.427478
0.333988
0.633071
0.545733
-0.518702
-0.0270306
0.17396
0.00776091
-0.0616657
0.237566
-0.0295209
0.709991
0.194943
-0.904934
-0.347366
0.288887
-0.216744
0.134756
0.0819881
-0.325239
0.00362982
0.321609
0.408514
0.306296
-0.714811
0.218824
0.271894
0.646034
-0.0132831
-0.251363
0.3399
-0.36153
-0.0886108
0.122643
-0.034032
-0.904821
0.508631
0.791593
-0.629888
-0.161706
0.0123728
-0.126952
0.114579
0.791568
-0.869485
0.810884
0.0835064
0.177885
0.437395
-0.128427
-0.00683859
0.317049
-0.272193
-0.0448564
-0.490458
-0.113027
1.00077
-0.511596
-0.489179
0.805621
-0.34852
-0.457101
0.378303
-0.652055
0.273753
0.033125
0.489066
-0.00276613
-0.0608803
0.45763
-0.39675
0.0678774
0.249172
-0.342314
-0.21161
-0.032107
0.747187
-0.000819331
-0.746367
-0.377337
0.357662
-0.213233
-0.147272
0.0516739
0.0926269
0.5124
-0.11871
0.19702
0.0103358
0.0093316
-0.106822
0.139234
-0.357935
0.505329
0.0133421
0.213528
0.0273535
-0.251335
0.739429
0.000401187
0.545332
-0.126881
-0.112314
-0.226266
0.458186
-0.184258
0.71346
-0.529202
-0.743545
-0.100913
-0.32483
0.705656
-0.380826
0.0508867
-0.262496
0.290667
-0.0605826
-0.0200056
-0.220369
0.240375
-0.746055
0.251749
0.115288
-0.123542
0.427503
-1.08814
0.29953
-0.86772
-0.242999
0.548964
-0.303847
0.471347
-0.243439
0.01305
-0.593858
0.647751
0.0016791
-0.141811
0.0980433
-0.478022
-0.0951509
-0.545093
0.640244
0.267948
0.274369
1.10072
-0.706441
-0.394276
-0.207752
0.0606146
0.196383
0.0207262
-0.217109
-0.722984
0.136299
0.178529
0.0141422
-0.00444546
-0.116991
0.121436
0.416542
-0.741372
0.0779481
0.40029
0.044619
-0.444909
-0.798786
0.614528
0.129187
0.0356147
-0.164801
0.331941
-0.978193
-0.134363
0.000760357
0.133602
0.165446
-0.036259
0.00962423
0.658461
-0.48767
0.547623
0.458436
-0.239611
-0.812373
0.248628
-0.605554
0.496422
0.109132
0.370834
-0.777119
-0.444131
-0.281436
0.725567
0.0702634
0.366896
-0.274766
0.227305
0.971226
-0.120001
-0.851225
-0.00700634
-0.830709
0.750783
0.07242
0.462247
0.360711
-0.149107
-0.00103839
0.129889
-0.259335
-0.305357
0.0174722
-0.0811679
0.0636958
0.0120149
-0.754408
0.742393
-0.0465063
0.261389
-0.214883
0.265933
-0.827008
0.561075
-0.0751787
-0.495329
-0.0250974
-0.045063
0.596962
-0.301891
-0.182331
0.484222
-0.337268
-0.346844
0.404567
-0.231061
-0.236181
0.0240478
0.212133
-0.225803
0.321931
-0.860616
-0.10998
-0.0469335
0.156914
0.12735
0.277562
-0.404912
0.595801
-0.891333
0.295532
0.0390223
-0.50303
0.131185
-1.01397
-0.454586
-0.549446
1.00403
-0.844077
0.0362868
0.807791
-1.042
-0.703653
0.0216617
-0.249017
0.256584
-0.00756679
-0.883404
-0.324505
1.0345
0.341016
-0.17878
0.0749688
-0.301234
-0.155538
0.427432
0.137998
0.0916332
-0.352117
0.0138485
-0.108332
0.0944833
-0.184145
0.0366625
-0.0732084
0.0855812
-0.247264
0.472638
-0.975327
0.614891
0.360436
-0.267392
0.216217
0.526403
0.189453
-0.00953301
-0.22505
0.296311
-0.421695
-0.243648
-0.490448
0.17928
0.311168
-0.0235215
-0.171652
0.195174
-0.366203
0.453584
-0.0829375
0.644515
0.53431
-0.300855
0.466717
-0.803985
0.406035
-0.506844
0.100809
0.103847
-0.00665061
0.0932126
-0.00402525
-0.920209
0.558584
0.373015
0.432606
0.0141359
-0.175861
0.161725
-1.1252
0.449266
-0.183566
0.23954
-0.174403
-0.0139318
-0.201116
0.215048
-0.503364
0.201473
-0.90987
0.806462
0.758728
-0.27029
-0.166291
0.149298
0.0169935
0.0594688
-0.176141
-0.138808
-0.984588
0.392608
0.59198
-0.131093
0.117737
-0.0639384
0.262717
-0.198779
0.781467
0.0294173
-0.0127325
0.142943
-0.130211
-0.234858
0.2482
0.0963973
-0.10438
0.658144
-0.816577
0.896164
0.0632787
-0.48694