/*--------------------------------*- C++ -*----------------------------------*\
| =========                 |                                                 |
| \\      /  F ield         | OpenFOAM: The Open Source CFD Toolbox           |
|  \\    /   O peration     | Version:  2306                                  |
|   \\  /    A nd           | Website:  www.openfoam.com                      |
|    \\/     M anipulation  |                                                 |
\*---------------------------------------------------------------------------*/
FoamFile
{
    version     2.0;
    format      ascii;
    arch        "LSB;label=32;scalar=64";
    class       volVectorField;
    location    "2";
    object      U;
}
// * * * * * * * * * * * * * * * * * * * * * * * * * * * * * * * * * * * * * //

dimensions      [0 1 -1 0 0 0 0];

internalField   nonuniform List<vector> 
13486
(
(1.50611 -0.284406 5.41216e-19)
(1.69525 0.235345 2.53393e-19)
(2.10839 -0.0189213 0)
(0.929039 -0.497372 -1.68911e-19)
(2.4123 -0.546466 1.62779e-19)
(2.32357 0.0766633 7.48916e-21)
(2.66877 -0.447017 3.58949e-21)
(2.06028 -0.759736 -2.77213e-19)
(1.98133 -0.420927 0)
(2.05103 0.5941 0)
(1.50852 -1.03155 -1.59229e-19)
(2.32015 0.0716871 0)
(1.38725 -0.484607 -5.35372e-19)
(2.46054 0.46482 3.71579e-20)
(2.54778 -0.338534 8.48073e-20)
(2.01099 0.591761 -1.46405e-19)
(-1.18394 0.121186 4.78339e-19)
(0.319573 -0.479345 -6.79414e-19)
(2.27046 0.0505751 2.62056e-21)
(1.65378 -0.102531 -5.47932e-19)
(1.45072 -0.821168 -6.39622e-20)
(1.40442 -0.49793 6.91287e-19)
(1.71759 0.23277 -2.02503e-19)
(2.01975 -0.468692 0)
(2.09566 0.468716 4.76178e-20)
(2.01497 -0.432955 -4.61901e-20)
(0.733815 -0.424735 1.12954e-19)
(2.12593 -0.0427326 1.66072e-19)
(2.02648 -0.0151922 0)
(1.98973 -0.151707 -8.71789e-20)
(1.39355 -0.752352 -4.50869e-20)
(2.65508 -0.0806732 -9.34787e-20)
(2.28836 -0.331493 1.57934e-19)
(1.9755 -0.0338855 0)
(2.0685 -0.73392 0)
(1.92603 0.00729991 -3.47646e-21)
(1.99525 0.0224709 3.26767e-20)
(1.57493 -0.741607 2.72166e-19)
(1.95761 0.0584562 4.09958e-21)
(1.98002 -0.263996 2.74825e-19)
(2.52788 -0.851988 0)
(0.936622 -0.468682 -6.20971e-19)
(2.01799 -0.00912023 0)
(2.10101 0.391944 -2.30125e-19)
(2.12031 0.38406 9.45424e-20)
(2.31776 0.0711335 9.42876e-20)
(2.53068 -2.44315 2.04451e-18)
(2.00963 -0.0046888 -2.54724e-21)
(1.99639 0.0252638 -2.51539e-20)
(2.33853 -0.0473226 9.55975e-20)
(1.98905 0.006313 3.10914e-19)
(1.95003 0.0214418 0)
(2.38639 0.207884 -1.20977e-19)
(1.71456 -0.651472 -3.98232e-19)
(0.808004 -0.290498 0)
(2.38493 -0.55232 -1.11408e-19)
(2.0208 0.0144361 -1.91446e-20)
(1.94902 0.0269827 1.17146e-20)
(2.28902 -0.326146 1.84379e-19)
(2.02223 0.0293432 0)
(1.58335 -0.929949 -1.60668e-19)
(2.00206 0.0448609 0)
(2.86485 -0.716804 -3.21369e-19)
(1.44606 -0.822334 -7.7825e-22)
(1.65905 -0.483143 0)
(2.00787 0.0345475 1.66332e-20)
(0.966121 -0.504915 -1.6381e-19)
(1.47924 -0.0246971 1.83119e-19)
(1.98484 -0.446557 -1.57426e-19)
(1.96389 0.0140971 -7.38758e-21)
(0.765239 -0.386902 1.87878e-19)
(0.58397 -0.305068 -1.80599e-20)
(1.98346 -0.149527 2.04917e-19)
(0.106087 1.54045 -8.77173e-19)
(2.00326 0.0359185 4.26362e-21)
(2.01935 0.036623 4.60427e-21)
(2.01108 0.00367412 -1.25195e-20)
(2.55681 -0.365285 -3.49353e-20)
(1.9329 -2.46081 -6.61288e-19)
(1.7898 0.0509521 0)
(1.98727 -0.0105918 2.18436e-21)
(1.67458 0.296369 -1.60999e-20)
(2.82353 -0.908773 -3.72992e-20)
(2.11028 -0.00188548 -1.73421e-20)
(1.49808 -0.295075 -1.05994e-18)
(1.47968 1.47386 0)
(1.93519 0.208346 3.5062e-20)
(1.99532 0.0436836 -4.71351e-19)
(1.89935 0.182945 -2.05056e-19)
(1.93992 0.82925 -1.5552e-19)
(2.69451 0.131602 -3.47348e-20)
(2.18596 -0.651921 -1.44384e-19)
(1.57354 -0.379734 1.39578e-19)
(1.69299 0.0251382 1.42274e-20)
(1.9115 -0.615796 6.36442e-20)
(2.00226 -0.00345791 3.94919e-23)
(0.887373 -0.487956 0)
(1.42152 -0.740541 8.11957e-20)
(2.00438 -0.260378 -5.24939e-19)
(-0.855224 -0.489322 6.04213e-20)
(2.08751 0.0295657 0)
(2.42698 0.476364 1.02993e-20)
(1.4812 -0.762712 -1.12396e-22)
(1.93958 0.0269217 -1.44551e-20)
(1.43918 1.41427 0)
(-0.835875 -0.568082 5.8372e-20)
(1.97239 0.0791999 9.48956e-22)
(1.93164 0.0616157 1.02781e-20)
(2.2786 -2.52848 1.12405e-18)
(1.89153 -0.859591 0)
(1.35232 -0.648566 0)
(2.77613 -0.243672 -6.03751e-20)
(1.72093 -0.632932 2.94196e-21)
(2.04746 0.0181164 1.32812e-21)
(1.17346 -0.138177 0)
(1.29147 -0.638598 -2.37115e-19)
(2.08822 0.475615 0)
(2.03419 -0.0344413 0)
(1.96863 -0.147876 0)
(1.99624 0.0182427 1.53197e-20)
(0.450436 -0.00486658 2.90004e-19)
(1.54875 -0.924042 0)
(1.88055 -0.562149 0)
(1.94601 0.0515915 -1.28583e-20)
(1.96085 -0.708607 0)
(1.94026 0.0102322 0)
(2.23731 -0.270588 5.97797e-21)
(2.1509 0.060004 9.56164e-20)
(1.96289 -0.00705384 -1.28328e-20)
(1.64663 -0.413988 -2.93802e-20)
(1.95086 0.0191056 1.54377e-21)
(2.63541 -2.43996 -4.98415e-19)
(2.8406 0.387794 1.48023e-18)
(-0.0709549 -0.205542 1.24243e-18)
(2.02512 0.00649903 -5.06872e-20)
(1.93238 0.351363 -2.2546e-19)
(0.78349 0.60454 -1.56881e-19)
(1.91203 -0.854652 0)
(1.99752 0.0153072 -4.35177e-21)
(2.07726 -0.617665 -1.00127e-19)
(2.34945 -0.21512 -1.83814e-19)
(2.42772 0.217995 1.01713e-19)
(2.52341 0.0444246 0)
(1.79755 0.050574 0)
(2.04402 0.011419 5.62609e-21)
(2.35024 -0.832837 -3.35719e-19)
(2.10833 0.192649 -2.77382e-20)
(0.407908 1.44053 0)
(2.36555 -0.096193 0)
(2.03718 -0.000503115 0)
(2.01441 0.0194909 4.63311e-21)
(2.54664 -0.448297 0)
(2.03344 -0.00925123 -2.29293e-21)
(1.65412 0.292979 -1.369e-19)
(2.19218 0.23099 0)
(2.12116 0.0319264 0)
(1.69889 -0.777756 0)
(0.810278 -0.644593 1.03341e-21)
(1.81707 -0.739451 5.66057e-19)
(2.01956 0.0830831 4.15182e-20)
(2.35009 -0.0321438 5.88334e-20)
(1.82415 -0.719863 -8.59846e-19)
(3.08515 0.100785 -6.79622e-20)
(0.832469 -0.400628 2.72901e-19)
(1.94428 0.0253593 0)
(2.54528 0.419772 -8.1607e-20)
(2.38126 0.460527 -1.64952e-20)
(0.580323 -0.214649 -6.7126e-19)
(2.09963 0.179371 7.19205e-20)
(-0.0547311 -0.137662 3.41994e-19)
(3.24452 0.159321 1.3015e-19)
(2.18394 0.223388 7.50702e-20)
(1.98673 0.0467344 -3.75038e-19)
(2.37361 -0.172276 8.87995e-21)
(2.02578 0.0219193 -1.68522e-23)
(1.61209 -0.740893 0)
(2.53013 0.77094 1.24338e-19)
(2.41626 -0.275871 2.64503e-19)
(1.98072 0.0508905 -5.14568e-19)
(2.50671 0.0603788 0)
(2.04359 -0.313202 5.54424e-19)
(2.04296 0.019145 2.62366e-21)
(2.43992 -0.105926 -4.61733e-21)
(0.712555 -0.347119 0)
(2.15966 0.0838152 4.2601e-20)
(2.16072 -0.0382765 -7.63815e-20)
(2.02428 0.00989889 -2.27345e-22)
(2.0286 -0.0895481 -2.81163e-20)
(2.54981 -0.828389 0)
(1.15629 -0.558726 -3.0507e-19)
(2.00666 0.0244819 0)
(2.08308 -0.00221973 0)
(1.93891 0.0320225 0)
(1.39898 0.709955 -2.88653e-19)
(1.91519 0.0237315 0)
(1.45607 -1.02672 -4.01572e-20)
(1.64448 -0.441031 6.6533e-20)
(2.29044 -0.00282723 3.20541e-20)
(1.16373 -0.575359 -1.18333e-19)
(2.51251 0.393915 -3.82952e-20)
(1.40928 -0.734133 4.75542e-20)
(2.17219 0.070805 -2.90081e-21)
(1.45078 -0.701338 -3.14663e-19)
(1.79417 -0.781297 3.80189e-20)
(2.03749 0.0740102 -5.06835e-20)
(1.91744 0.0378932 1.58482e-21)
(1.02525 -0.76753 -1.29306e-19)
(1.90743 -0.075547 4.17136e-19)
(1.90808 0.0302715 0)
(2.13958 0.0629814 0)
(2.06552 -0.0546392 1.04883e-19)
(1.88891 -0.403219 6.79398e-20)
(1.67415 -0.0919216 5.01455e-19)
(1.94775 0.0619517 5.71089e-22)
(2.33158 0.0945727 -8.62995e-21)
(1.79523 -0.0976375 5.55419e-21)
(2.01541 -0.149821 0)
(1.93788 0.823006 4.08138e-19)
(1.6488 -0.402698 0)
(3.00472 0.0373566 0)
(-1.14097 -0.0653941 -9.70283e-19)
(2.37512 -0.073461 0)
(2.05957 -0.611657 2.32445e-19)
(2.36178 0.0102118 0)
(2.3309 0.273483 -2.12442e-20)
(1.35422 -0.642381 1.92372e-19)
(2.43457 0.121279 -3.92862e-21)
(1.50382 -0.69786 2.49455e-20)
(1.84346 -0.0335149 2.05336e-21)
(1.93601 0.196572 -1.50627e-21)
(2.04713 -0.302254 -1.78192e-19)
(1.39163 -0.194328 1.12663e-19)
(2.33817 -0.249196 2.31637e-19)
(0.969339 -0.475272 2.12625e-19)
(1.52224 -0.792191 0)
(1.13186 -0.551888 2.27739e-20)
(2.00916 -0.0621975 4.65728e-20)
(2.08006 0.0159489 -9.06459e-21)
(0.987406 -0.478941 6.15392e-19)
(2.37037 -0.040566 0)
(2.25875 -0.35139 0)
(1.99674 0.0441392 5.73724e-19)
(2.04196 0.0206695 0)
(0.992249 -0.494495 2.05624e-19)
(1.95098 0.0690901 1.28606e-20)
(1.81834 0.0456891 0)
(2.27785 -0.0250905 -3.79194e-20)
(2.00287 -0.308021 1.57407e-19)
(-0.601795 0.878673 2.28576e-18)
(2.04871 0.384941 0)
(1.56836 -0.779038 -3.78308e-20)
(1.14077 -0.109091 7.86063e-20)
(1.08861 -0.533654 2.99677e-19)
(1.94738 0.0627398 0)
(1.84135 0.00247803 1.32815e-21)
(1.63548 -0.74953 2.01909e-20)
(2.65589 -0.0634529 6.90746e-20)
(1.77598 -0.0952772 -7.02097e-21)
(0.752812 -0.609693 -1.09043e-21)
(2.22856 -0.3451 1.09723e-19)
(1.81608 0.171611 0)
(1.94965 0.0666159 -4.26824e-22)
(2.55541 -0.345257 -2.00353e-19)
(1.63281 -0.747047 -2.51964e-20)
(2.30888 -0.761968 -1.66974e-19)
(0.870954 -0.414674 0)
(1.85619 -0.03307 -1.26147e-20)
(1.42971 -0.76338 -6.62805e-20)
(2.03708 -0.0307549 -2.42639e-19)
(1.59662 0.849245 0)
(1.6317 0.772656 1.99748e-19)
(1.99186 0.0792595 -1.39403e-19)
(2.03695 -0.15845 0)
(2.32821 0.137271 7.68116e-20)
(1.27489 -0.616699 2.55047e-19)
(2.00892 -0.28282 -8.77971e-20)
(1.85222 0.00165663 0)
(1.34867 -0.281813 0)
(1.92835 0.0593396 8.87961e-21)
(2.12012 0.200713 5.45625e-20)
(1.37763 -0.283138 3.24124e-20)
(2.14613 -0.209206 -2.01794e-19)
(1.94122 0.0826752 3.03969e-19)
(2.06184 -0.650687 -1.03532e-19)
(1.53583 -0.871554 1.81881e-19)
(0.196365 -0.737157 3.54345e-19)
(2.39135 -0.207196 2.23943e-19)
(1.92376 -0.00901526 1.68314e-20)
(2.31026 0.274283 3.54941e-20)
(2.03198 -0.0204325 0)
(1.5108 -0.797301 0)
(1.9832 0.0698879 -1.85668e-20)
(1.32733 -0.640247 2.33137e-19)
(1.99338 0.0327664 -5.01759e-20)
(1.97454 -0.0762194 4.07378e-20)
(2.01218 -0.0651026 0)
(2.13699 0.00279964 -7.41049e-20)
(2.27076 0.132041 -6.52238e-20)
(1.92858 0.0642186 -2.78106e-19)
(2.63984 -0.576617 4.44892e-20)
(3.12504 0.178463 7.34559e-20)
(0.989465 -0.794098 -2.73176e-20)
(2.11929 0.190623 -4.69277e-20)
(2.63303 -0.100087 8.81978e-20)
(1.99595 0.0222934 -5.3505e-21)
(1.47359 -0.676732 0)
(0.446924 -0.0297452 0)
(2.32436 -0.0386223 7.69286e-20)
(1.92062 0.190883 -2.79354e-20)
(1.99363 0.0251498 0)
(2.61981 1.56878 -2.0646e-18)
(0.791435 -0.419835 0)
(2.42779 0.779727 -2.68882e-20)
(2.76249 -0.223854 -5.64396e-20)
(1.90511 -0.967956 0)
(1.91631 0.343345 -1.38191e-19)
(1.98835 0.0723558 2.75378e-20)
(1.89773 0.169036 -1.75458e-20)
(1.89829 -0.0656295 -4.58631e-19)
(1.87375 -0.0539999 0)
(2.0097 0.0360263 -3.01992e-20)
(1.98343 0.0633055 7.97548e-22)
(1.99352 0.0598704 6.50622e-20)
(1.67911 0.0719843 -2.65726e-19)
(0.874847 0.572711 2.88619e-19)
(2.69314 0.0788114 6.06401e-20)
(2.30874 -0.380054 -5.50659e-19)
(2.16834 -0.209256 0)
(2.20776 0.127377 4.8569e-22)
(2.34933 -0.38476 -9.86503e-20)
(2.01148 0.0425773 6.81667e-19)
(2.2146 -0.6543 0)
(2.76069 0.188617 -7.90307e-22)
(1.52337 0.285203 0)
(2.68497 -0.472977 -1.34173e-19)
(1.97233 -0.576871 -1.73445e-19)
(0.777519 -0.373332 2.54115e-19)
(2.52004 -0.466567 -1.37869e-19)
(2.00456 0.18916 0)
(1.95535 0.0698958 2.36309e-20)
(1.85753 -0.05605 1.54832e-20)
(1.68681 0.0832293 2.50928e-19)
(2.36605 -0.39103 3.88327e-19)
(2.44087 -0.11092 1.78624e-19)
(1.5675 -0.748536 -1.24086e-19)
(2.02145 0.00517688 -6.6945e-22)
(2.25687 -0.186005 0)
(1.13862 -0.437365 6.13717e-19)
(2.98845 0.00764707 0)
(1.97382 0.0619195 -4.3946e-22)
(2.25081 -0.101629 3.29183e-19)
(2.24812 0.143312 -7.00092e-20)
(2.30772 0.152282 6.21225e-20)
(0.912467 -0.46084 -1.3056e-19)
(1.96043 0.0501322 3.48236e-19)
(2.03092 0.0279809 0)
(0.237587 1.31762 -7.33284e-19)
(2.25334 -0.26571 -1.17272e-19)
(1.92286 0.174199 1.45026e-20)
(1.88877 -0.378522 6.35972e-20)
(2.33444 0.0418467 0)
(2.64463 0.216772 4.3313e-20)
(1.8165 0.120337 5.33598e-19)
(1.94779 0.0892375 4.22846e-19)
(1.99893 -0.166163 0)
(2.03177 0.00581991 -6.23277e-22)
(1.98616 -0.0439469 -4.37412e-20)
(3.04609 -2.14551 4.10579e-19)
(1.64348 -0.103762 6.96228e-20)
(2.24396 -0.227082 1.11472e-19)
(2.01102 -0.0381545 -2.98614e-21)
(2.27112 -0.173399 0)
(2.29038 0.288341 -8.36366e-20)
(1.57985 -0.776342 3.74537e-20)
(2.36498 0.226207 2.0523e-20)
(1.99471 -0.00992043 2.59843e-19)
(1.39134 0.0183056 0)
(1.97071 0.0656778 3.28555e-20)
(1.94152 -0.936216 0)
(3.53984 0.38945 -3.39826e-19)
(2.03351 -0.00833517 0)
(2.207 -0.744116 -5.80344e-21)
(1.40813 -0.190366 -1.4938e-19)
(1.61592 0.704497 4.80637e-19)
(3.0156 -2.24973 -1.33222e-18)
(1.86499 -0.0081393 0)
(2.25513 0.0737937 -5.70136e-20)
(2.0195 0.187934 -1.45636e-19)
(-2.32563 1.17371 -9.22817e-19)
(1.36055 -0.809086 7.95362e-21)
(1.70468 -0.112074 -7.56554e-19)
(2.06686 -0.149638 4.72692e-20)
(2.08659 0.180386 1.00717e-19)
(1.55033 -0.513763 0)
(1.45018 0.209177 2.87022e-19)
(1.99692 0.0270574 1.43837e-20)
(0.872413 -0.460276 9.75879e-20)
(1.56816 -0.772813 -1.29832e-19)
(-2.32839 0.921251 -1.40084e-18)
(2.39304 -0.213092 0)
(-2.55912 1.21695 0)
(2.1246 0.958865 0)
(2.08553 -0.0851776 0)
(0.733192 -0.209014 -7.24182e-20)
(2.67858 -0.433965 0)
(2.01731 0.308813 0)
(1.70697 0.0443635 1.03407e-19)
(2.39941 -0.272254 -2.73316e-19)
(2.24015 -0.174508 -2.7166e-19)
(1.735 0.270026 8.57493e-19)
(2.00009 0.0228151 -7.65993e-20)
(2.53714 1.45965 0)
(2.13339 -0.149379 0)
(1.9363 0.0620464 2.97722e-19)
(2.02788 0.0586699 5.22873e-20)
(1.41473 0.750685 0)
(0.679927 -0.343717 1.28476e-19)
(2.28994 -0.77709 1.87982e-19)
(3.07228 0.133262 0)
(2.38106 -0.0535286 1.7871e-19)
(1.99568 0.0671061 -3.44972e-19)
(1.49212 -0.54142 3.72676e-20)
(1.13187 -0.422588 0)
(2.02416 0.241774 2.75932e-19)
(2.41521 0.0307186 0)
(2.00514 -0.0902126 0)
(2.1897 0.129936 -1.26491e-20)
(1.92544 0.0784581 1.58833e-19)
(0.773682 -0.476586 -1.46208e-19)
(2.35022 0.467863 9.11767e-21)
(1.43962 -0.410828 -2.65119e-19)
(2.09268 -0.083479 3.55035e-20)
(2.09282 0.16765 7.81998e-20)
(2.26007 0.287039 2.23171e-19)
(2.38641 -0.75733 0)
(2.06117 -0.303935 8.70552e-20)
(1.41887 -0.138789 0)
(1.98144 0.0722622 -1.82414e-20)
(2.35434 -0.181082 0)
(1.50369 -0.00590538 3.87086e-19)
(0.887936 -1.69354 -2.48876e-18)
(2.05035 -0.143601 0)
(-0.495652 -0.20429 5.55335e-20)
(2.11433 -0.167625 -1.12866e-19)
(1.98671 0.145018 4.42054e-20)
(1.83405 -0.307233 7.22642e-19)
(1.51223 0.684679 -3.08678e-19)
(1.43067 -0.399503 -7.53669e-19)
(3.50428 0.317441 0)
(1.99757 0.0200564 -1.46663e-20)
(1.59468 -0.760928 -2.9303e-19)
(2.0048 0.226649 0)
(1.87078 0.1977 1.91027e-20)
(2.3274 -0.0628501 -2.02e-20)
(2.83202 0.698783 0)
(2.01071 0.0150175 0)
(0.665901 -0.336179 0)
(1.61804 -0.732412 8.55142e-20)
(2.03322 -0.66543 1.23944e-19)
(2.34645 -0.765992 8.47357e-21)
(2.38492 0.747281 0)
(1.75452 -0.212953 4.91035e-19)
(2.04863 0.00757517 -1.72245e-21)
(2.33595 0.418226 -1.20362e-20)
(1.36562 -0.768719 1.42234e-19)
(1.91802 0.162391 0)
(2.03859 -0.0256064 0)
(0.878976 -0.202674 -4.20355e-19)
(1.52504 -0.50697 -1.8518e-19)
(1.98542 -0.212811 0)
(1.39739 -0.677692 -2.21049e-19)
(2.07349 0.00701998 4.10694e-21)
(2.02048 -0.0056332 1.68776e-22)
(0.875305 -0.41934 0)
(1.91303 -0.00826181 5.88233e-21)
(2.00111 0.019921 -1.24405e-20)
(2.41775 0.0102966 6.98042e-20)
(1.96046 -0.596444 0)
(0.118539 -0.863394 -5.53645e-19)
(2.27582 0.164172 7.1157e-20)
(1.99087 0.11075 5.9572e-20)
(1.98429 0.00565507 -5.94009e-21)
(2.58061 0.379376 0)
(1.70745 0.265396 -2.28238e-19)
(2.76707 -0.129232 -1.75749e-19)
(-1.98712 0.591969 1.91775e-19)
(1.9887 0.0597656 0)
(1.37547 -0.802125 -8.08457e-21)
(0.632001 -0.18575 0)
(1.99716 0.0752418 -2.30132e-19)
(1.98022 0.0760018 1.03415e-19)
(1.89397 0.0243066 -5.80581e-20)
(1.62231 -0.745867 0)
(2.13296 0.00226586 -2.72717e-20)
(1.20322 0.347817 7.93409e-19)
(2.35796 -0.751956 0)
(1.67617 0.0270273 3.23447e-19)
(2.61529 -0.588055 -5.05923e-20)
(2.12343 -0.0202989 0)
(1.44538 -0.754895 3.06294e-20)
(1.80758 0.0578999 6.35063e-21)
(2.05597 0.0359244 0)
(-0.384283 -1.06253 7.57662e-19)
(1.86202 0.184594 0)
(1.80377 -0.824882 2.29274e-19)
(1.58332 -0.781611 7.30883e-20)
(2.02597 0.00564987 3.43463e-22)
(2.34051 0.0651597 -2.42435e-20)
(1.44495 0.194166 1.52292e-19)
(1.82686 -0.335085 -2.66629e-19)
(1.87081 -0.00549972 -4.40422e-21)
(1.84093 -0.831023 2.4907e-21)
(2.22113 -0.230266 1.09038e-19)
(2.57027 0.381743 1.68557e-19)
(1.96322 -0.874923 0)
(2.03214 0.0252793 -2.30443e-19)
(2.85189 0.369521 -7.98136e-19)
(1.44388 -0.148537 0)
(2.01278 0.0346914 4.71648e-21)
(1.96413 0.0237682 0)
(1.33861 -0.428886 6.5091e-19)
(2.17388 -0.810151 0)
(2.04585 0.00408276 4.78816e-21)
(2.27058 -0.104445 -1.87863e-19)
(1.45315 -0.724294 5.36626e-20)
(0.77241 -0.390313 1.28858e-19)
(2.32473 -0.00708429 -1.59767e-21)
(1.42933 -0.679117 1.91433e-19)
(1.86646 -0.556944 2.55323e-19)
(1.56852 -0.389223 0)
(0.721463 -0.349188 -7.97724e-20)
(2.40989 -0.695661 -3.92818e-20)
(0.803673 -0.367377 -9.40285e-20)
(2.02791 0.0143963 9.04558e-22)
(1.55286 -0.626052 0)
(2.09929 -0.0108289 -1.17663e-21)
(0.781543 -0.369482 0)
(1.51561 -0.778907 -5.65053e-22)
(1.43288 -0.638998 -4.24076e-20)
(0.509187 -0.454838 0)
(2.13742 -0.569699 7.41025e-20)
(1.6422 -0.474921 0)
(2.82643 0.625227 0)
(1.57984 -0.746921 -3.02414e-19)
(1.54793 0.257996 2.31224e-19)
(1.6963 0.118385 0)
(1.82598 0.142356 -1.45573e-19)
(2.40036 -0.839306 3.9275e-19)
(1.6013 -0.782423 1.70088e-19)
(2.94501 1.01813 0)
(2.14053 -0.0328279 0)
(1.60234 -0.766927 -1.27275e-19)
(1.90237 -0.146137 0)
(2.15844 0.0276838 0)
(1.59832 -0.90741 -3.0761e-21)
(2.12792 -0.418051 -3.5784e-19)
(1.82046 -0.468333 2.21069e-19)
(2.19839 -0.372065 1.54704e-20)
(0.653238 -0.305589 1.74095e-19)
(1.97166 0.0438045 1.19401e-19)
(1.6055 -0.418373 0)
(2.18342 0.358512 -3.44626e-20)
(1.49245 -0.268234 0)
(2.1246 -0.00284692 0)
(2.01671 0.0947723 0)
(2.1895 0.13026 -1.05337e-20)
(1.89066 -0.0662546 2.12568e-19)
(2.03794 0.0194607 -8.13754e-21)
(1.64564 -0.422668 0)
(0.772474 -0.405551 -1.04949e-19)
(2.15013 0.907078 3.34445e-20)
(1.95934 -0.722114 2.40777e-20)
(1.96697 -0.00222233 -2.43e-20)
(1.98533 -0.27393 1.40353e-19)
(2.03096 0.0027829 -1.99893e-19)
(0.718719 -1.23136 0)
(2.31592 0.125308 0)
(1.53386 0.712662 0)
(1.32732 -0.610932 -4.67425e-19)
(1.46184 -0.573549 -4.93492e-20)
(0.458505 -0.317699 0)
(2.2032 0.35723 0)
(2.38458 0.321092 6.91967e-20)
(2.05159 -0.0352552 -5.59975e-20)
(1.96225 0.497951 2.21559e-19)
(1.78716 -0.771058 0)
(1.36885 -0.814004 -4.68063e-20)
(2.28021 0.0461865 2.18636e-20)
(1.49315 -0.474079 -4.43176e-19)
(2.20448 0.0470817 -5.90919e-20)
(2.32991 0.424099 4.59806e-20)
(1.8479 -0.542788 5.66646e-20)
(1.32669 -0.61498 8.16126e-19)
(1.70131 -0.202622 3.2761e-20)
(2.0383 0.0109903 2.83072e-21)
(2.01136 0.00443382 -5.94153e-20)
(1.26881 -0.595954 -6.9659e-20)
(1.82474 0.0503491 -3.55135e-21)
(1.76801 1.88732 1.75464e-20)
(1.41463 -0.676682 1.14124e-19)
(2.17176 0.118101 0)
(1.98622 0.219525 -1.00003e-20)
(2.13523 -0.032225 -1.99012e-19)
(2.86377 0.243616 1.19314e-19)
(1.46513 -0.44102 -4.04163e-19)
(1.94352 -0.695037 -2.62459e-19)
(2.09876 0.01042 5.39479e-19)
(2.3363 -0.0180339 -3.07882e-19)
(2.10302 0.449956 -4.82819e-20)
(2.42199 -0.211285 -1.13746e-19)
(1.2561 -0.243538 -8.85419e-19)
(2.07236 -0.0198995 -1.57338e-19)
(1.24434 -0.309225 0)
(1.49388 -0.702767 -1.07544e-19)
(2.00504 0.000929063 5.03989e-19)
(1.88708 -0.019583 -1.85034e-21)
(0.0628755 1.7703 0)
(1.66702 -0.766476 0)
(2.05175 0.354487 1.93162e-19)
(1.13124 -0.239342 5.51383e-19)
(1.68247 -0.579285 -7.8791e-20)
(2.2301 -0.73772 -1.24341e-19)
(2.32452 -0.394489 3.0009e-19)
(3.00685 -0.0407529 0)
(2.07122 0.379261 1.01925e-19)
(0.76669 -0.897571 3.50077e-20)
(2.58401 0.750575 1.38098e-19)
(2.01685 -0.291216 -3.16037e-19)
(0.810059 -0.381477 -2.83441e-19)
(1.9982 -0.253155 -1.37429e-19)
(2.04654 -0.310274 4.53559e-20)
(2.37944 0.970382 0)
(1.90318 -0.0682281 -1.5649e-20)
(1.89957 0.0323607 5.3365e-20)
(2.02435 0.00327866 7.54653e-22)
(0.869329 -0.424525 7.48691e-19)
(1.99127 -0.294379 4.73193e-19)
(2.01863 0.0590019 -2.13795e-20)
(1.57886 -0.773643 -1.01892e-19)
(2.02777 -0.0683238 -5.19887e-20)
(2.11879 -0.006698 1.40305e-19)
(1.51412 -0.887448 -2.34267e-20)
(2.48719 0.735112 -1.39302e-19)
(-0.481373 -0.893718 -8.22618e-19)
(1.02323 -0.500872 -2.47572e-19)
(2.01911 -0.0025715 0)
(2.06057 0.00124789 -1.32177e-20)
(1.6296 -0.801178 -6.00282e-20)
(1.39971 -0.216671 8.04249e-19)
(2.04912 0.0128861 0)
(3.12201 0.357146 -1.10238e-19)
(1.29611 -0.558347 1.85119e-19)
(2.00348 0.0544375 -5.05937e-19)
(1.1739 -0.57932 -1.22898e-19)
(1.71705 0.111774 4.66431e-21)
(2.23391 -0.176293 1.84714e-19)
(2.23527 0.0637242 8.18528e-20)
(1.82524 -0.834826 -3.16998e-19)
(2.04713 0.0131915 1.07684e-20)
(1.50194 -0.578111 -1.14482e-19)
(2.11883 -0.010452 1.86841e-19)
(2.08347 -0.0309985 -1.53375e-19)
(2.14285 0.0837999 -4.95365e-21)
(2.19976 -0.0663754 -3.30708e-19)
(1.23335 -0.563688 -3.57576e-19)
(2.04107 0.0124892 0)
(1.57336 -0.738552 6.86831e-20)
(2.01539 0.0444872 3.83681e-20)
(1.52081 -0.357388 2.90294e-20)
(2.27814 0.00845778 -1.23022e-20)
(2.26562 -0.418723 -1.85501e-19)
(2.00156 0.022976 -3.89496e-19)
(2.10846 0.267693 5.77939e-20)
(0.607701 -0.301742 -1.31971e-19)
(2.1614 0.0357115 0)
(1.97049 0.0743906 -1.63681e-20)
(2.2306 0.148567 7.16656e-20)
(1.56003 -0.611353 0)
(2.17017 0.0806378 1.09164e-19)
(2.187 0.132518 8.79501e-20)
(2.13186 0.0261604 8.13508e-24)
(2.56915 -0.847704 1.60754e-20)
(1.92265 0.0216052 0)
(1.82164 0.292279 4.10035e-19)
(2.01894 0.0626042 2.3871e-20)
(1.38494 -0.668293 2.53911e-19)
(2.04033 -0.192449 0)
(1.54026 0.21546 -6.68856e-19)
(0.847644 0.758954 3.52551e-19)
(2.69495 1.20861 -3.59519e-19)
(1.26743 -0.267365 8.59763e-19)
(2.01343 -0.0111967 1.7084e-20)
(0.812377 -0.412503 1.02671e-19)
(1.94676 -0.124235 -3.32223e-19)
(2.09671 -0.294982 -1.30822e-19)
(1.80599 0.111557 -3.08078e-19)
(2.05043 -0.00663667 0)
(1.99761 0.027368 -2.26083e-19)
(0.110832 -0.143507 3.37474e-19)
(-0.34104 0.672685 0)
(1.95029 -0.420307 0)
(2.02275 0.0044838 0)
(-1.66347 0.293469 0)
(2.0763 0.289508 0)
(1.19871 -0.236607 0)
(1.82353 -0.114388 -1.38417e-21)
(2.29463 -0.711043 -1.68261e-19)
(2.45385 0.12011 0)
(1.81225 0.289289 6.19653e-19)
(1.4822 0.624789 1.11921e-21)
(2.06973 0.187857 5.87958e-21)
(1.62031 -0.824139 -3.2889e-20)
(1.20601 0.00200584 -2.20373e-21)
(0.768402 -0.380626 1.1191e-19)
(2.0434 -0.0175708 -1.16494e-19)
(2.30463 -0.0716357 1.30012e-20)
(2.06245 0.268167 -1.3672e-19)
(1.89415 0.172897 -4.10383e-19)
(2.07785 0.845063 -1.26987e-19)
(3.40118 0.378592 0)
(1.41946 -0.836284 2.55932e-20)
(1.35763 -0.44099 -7.13509e-19)
(2.00701 0.0431383 -6.97825e-19)
(2.42165 -0.703958 -2.11647e-19)
(2.07524 -0.0240819 5.32623e-20)
(2.758 -0.660572 -1.44593e-20)
(2.19056 -0.329579 -4.07296e-20)
(2.15142 -0.556474 -2.56633e-19)
(2.02163 0.173544 1.51623e-19)
(3.12081 1.49844 0)
(1.87766 0.0128025 -2.67626e-21)
(1.72421 0.0236957 -9.5086e-20)
(2.72172 -0.401684 0)
(1.91853 0.0527058 0)
(1.88659 -0.862482 -3.44493e-21)
(1.05356 -0.534007 1.08021e-19)
(1.79955 -0.110631 -3.30079e-20)
(1.96641 0.0223179 0)
(1.91916 -0.0796768 -4.36187e-19)
(1.83163 0.194061 -7.96576e-20)
(1.54737 -0.741253 4.19869e-20)
(2.16957 0.0812943 4.58958e-20)
(0.758673 -0.374873 0)
(1.42331 -0.835637 2.96197e-20)
(2.19756 0.104234 0)
(1.8829 -0.0628348 1.50721e-20)
(2.66535 0.207406 -3.83539e-20)
(2.00212 0.0167075 2.04025e-22)
(2.40644 0.469241 3.10786e-20)
(2.87574 0.886233 -3.99623e-20)
(1.8203 -0.537 5.30635e-19)
(1.32735 -0.73221 0)
(1.59613 -0.403961 -6.14745e-20)
(1.37725 0.0855884 0)
(2.48608 0.0921944 -3.90387e-20)
(1.54682 -0.752926 8.93891e-20)
(1.9317 -0.410799 8.50231e-20)
(1.95533 0.0709159 1.53837e-20)
(1.64444 -0.758836 -1.30308e-19)
(1.19005 -0.583909 -2.93286e-19)
(1.39758 -0.446004 -4.12866e-19)
(2.00039 0.0278431 -5.11586e-21)
(1.59561 -0.383205 5.05321e-20)
(1.2769 -0.579498 2.94178e-19)
(1.44957 -0.470549 4.53596e-19)
(1.45278 -0.578309 6.6988e-20)
(1.67941 -0.406354 -3.19814e-20)
(1.92817 -0.616898 2.62346e-19)
(2.66459 -1.99867 1.8723e-18)
(2.05574 0.0131077 6.27558e-21)
(1.4054 0.546284 -5.94385e-21)
(2.31265 0.253712 -2.1028e-20)
(2.35769 -0.577585 0)
(-1.94352 0.626551 -2.03812e-18)
(2.09573 -0.0402075 -2.42579e-19)
(2.02719 0.0766753 0)
(2.47394 0.0953855 0)
(1.42094 -0.3379 -4.20848e-20)
(2.1463 -0.423095 -1.36878e-19)
(2.32834 0.0942191 2.11301e-20)
(2.12286 -0.407187 4.68908e-19)
(2.05079 0.808235 1.2046e-19)
(1.64945 0.033908 3.43753e-19)
(1.5627 -0.751765 6.46939e-24)
(1.86064 0.521835 0)
(1.47888 -0.500687 4.34421e-19)
(1.6195 -1.63785 8.51513e-20)
(1.64302 -0.754171 9.88338e-20)
(1.81435 -0.705174 8.73207e-20)
(1.57776 -0.712252 -4.46059e-20)
(2.0226 0.0176531 1.6734e-19)
(1.9457 0.0572464 -5.88408e-21)
(1.99144 -0.148325 9.31313e-20)
(1.57239 -0.755792 -6.05626e-20)
(2.32063 0.102902 -1.31362e-20)
(1.93502 0.0586321 1.74283e-19)
(1.23873 -0.298349 -3.53418e-19)
(1.91948 -0.121169 2.71321e-19)
(2.07454 0.478684 0)
(2.37504 0.216278 -2.33517e-20)
(1.98912 0.0608543 3.88528e-20)
(1.55437 -0.355454 -1.39212e-19)
(2.01818 1.65727 6.89152e-20)
(1.89803 -0.604509 1.95725e-19)
(2.00795 0.00593799 7.5625e-20)
(1.45961 0.0698755 -5.24061e-19)
(2.67772 -0.398511 0)
(1.96654 0.0554633 2.65648e-20)
(2.20583 0.0590516 8.02815e-20)
(1.90602 -0.000566655 0)
(1.47093 -0.0372155 2.99493e-19)
(2.17176 0.0827888 0)
(1.89889 1.6817 2.43112e-20)
(2.3423 -0.0109393 0)
(1.86136 0.00426506 0)
(2.31443 0.0540824 4.76297e-20)
(2.31338 0.0756098 7.04474e-21)
(2.55597 -0.140322 -2.33257e-19)
(1.91291 0.15954 -1.86612e-19)
(1.69416 1.04866 -1.20387e-19)
(1.99513 0.131214 -7.16699e-20)
(2.10653 0.282386 0)
(2.48722 -1.52012 -9.39153e-20)
(2.34614 0.0584696 3.71509e-20)
(1.8832 -0.0653156 -2.94849e-20)
(2.35563 -0.570729 0)
(2.88506 0.23165 1.80358e-19)
(2.36294 1.49298 2.13993e-20)
(2.02936 0.00136771 3.02375e-20)
(1.74209 -0.716178 0)
(1.63108 -0.906061 1.24408e-19)
(2.06793 0.165011 0)
(2.01283 -0.132386 -4.71844e-20)
(-0.294197 0.525338 0)
(2.749 -1.15785 0)
(1.69587 -0.227882 0)
(2.13021 -0.805709 0)
(1.35492 -1.0731 -2.75401e-20)
(1.6098 -0.725079 -1.88191e-20)
(1.88942 -0.0609967 -3.1914e-19)
(1.46901 -0.732224 -6.46617e-20)
(1.35744 -0.604915 0)
(1.50166 -0.682242 -4.18335e-20)
(-0.803344 1.3999 -2.25759e-18)
(1.5945 -0.750362 0)
(1.55848 -0.574654 -4.63332e-19)
(1.98358 0.0137445 3.81514e-21)
(2.30214 0.24908 4.53625e-20)
(2.53094 -0.848872 3.49065e-20)
(1.86437 0.151335 0)
(2.30434 -0.733626 0)
(2.77548 -0.443465 1.26628e-19)
(1.82471 0.0646976 -1.17314e-21)
(1.99298 0.0197911 1.07297e-20)
(1.40611 -0.319001 3.56233e-21)
(2.00584 0.0011398 1.67176e-20)
(2.04779 0.0159392 -1.40362e-21)
(2.00181 0.176857 2.2204e-19)
(1.97718 0.0644232 -1.56246e-20)
(1.9671 -0.55509 0)
(0.898702 -0.666258 0)
(2.04255 0.0128307 0)
(2.00021 0.0188747 0)
(1.79941 -0.356992 1.96039e-19)
(2.30945 -0.142697 0)
(1.51965 -0.997057 2.93161e-19)
(1.79993 -0.55695 -4.00387e-21)
(1.42206 -0.487532 -6.81538e-19)
(1.43803 0.749433 8.73244e-21)
(1.58036 -0.723296 -3.84607e-20)
(1.59298 -1.13976 -1.71165e-19)
(1.93199 0.0143403 6.02984e-20)
(1.59524 -0.763891 -5.88783e-20)
(1.98104 0.0583758 -2.4743e-20)
(2.28877 0.0336927 0)
(2.4614 -0.351747 0)
(1.82843 0.373085 0)
(2.26097 -0.438237 9.79057e-20)
(1.6751 -0.455497 0)
(1.89337 0.524323 0)
(2.00285 0.0100978 0)
(1.83938 -0.471631 2.06141e-19)
(2.0772 0.188525 -2.02416e-19)
(1.96122 0.00214801 0)
(1.83386 -0.133725 -3.50102e-20)
(1.97772 0.175436 -2.15163e-19)
(2.56803 0.657947 -2.86835e-19)
(1.63413 -0.763913 2.74901e-19)
(1.96284 0.563392 1.80786e-22)
(1.77377 0.0436927 5.82634e-22)
(1.91742 0.0535433 -8.76542e-21)
(1.84258 -0.0148187 -5.44943e-21)
(2.30868 0.0859291 -6.37768e-21)
(1.99999 0.0274822 2.45049e-20)
(1.82492 0.0438921 -3.01404e-19)
(2.14308 -0.0618562 0)
(1.56263 -0.462911 -2.12155e-20)
(1.97093 0.0746166 3.10994e-19)
(0.581764 -0.496538 2.93574e-19)
(2.17624 -0.313652 -1.19275e-19)
(1.15946 -0.260162 -6.01545e-19)
(2.30281 0.055923 4.72131e-22)
(2.79948 -0.117047 2.52986e-19)
(1.98745 0.1001 0)
(2.02715 0.257973 -2.54914e-20)
(1.95822 0.0236278 4.45253e-21)
(1.85397 -0.0254757 1.85321e-20)
(1.41661 -0.799886 -1.63125e-19)
(2.01891 -0.00452693 1.64319e-19)
(2.04386 0.0145503 -3.33191e-21)
(2.0354 -0.0116922 -1.43305e-20)
(2.04049 0.0260796 0)
(2.0399 1.38321 0)
(1.44856 -0.69551 3.3658e-19)
(1.04219 -0.51637 1.31773e-19)
(1.99243 -0.00329908 1.76578e-21)
(1.94668 0.0717688 6.25267e-19)
(2.01457 0.269733 7.75465e-20)
(1.50948 0.195514 0)
(1.81306 0.0623926 0)
(1.66931 -0.402083 -2.9067e-21)
(2.28602 0.0644079 7.39906e-20)
(2.00309 0.533792 2.90209e-19)
(2.49522 0.0336848 0)
(2.05085 -0.0212043 0)
(2.18273 -0.629692 3.48746e-19)
(2.02105 -0.192065 2.55193e-19)
(0.275673 -0.0891566 -3.53808e-20)
(1.91657 0.014477 0)
(2.84634 -1.22204 1.67472e-19)
(1.87372 -0.226651 -1.66981e-20)
(1.63374 -0.791705 -8.13464e-20)
(1.98228 -0.0384591 -3.49684e-19)
(2.33212 -0.670448 0)
(2.16044 -0.437046 1.08426e-19)
(1.75421 -0.694597 -1.04892e-19)
(0.12863 0.0252807 0)
(2.03639 0.00222328 1.84529e-20)
(1.92151 0.110526 -2.02669e-19)
(1.97889 0.004207 2.08061e-23)
(2.75989 0.116108 1.05139e-20)
(2.2429 1.73886 6.60492e-19)
(1.91466 -0.00428962 0)
(1.15343 -0.457444 -4.19075e-21)
(2.01518 0.291078 -7.11435e-20)
(1.92771 -0.899212 -2.23936e-19)
(2.06854 0.264586 1.62265e-19)
(1.25069 -0.730217 7.56099e-20)
(1.94528 0.000568166 -7.69212e-19)
(2.02055 0.0790645 1.16104e-20)
(1.94463 0.0638714 -1.41448e-20)
(1.80307 -0.434348 0)
(1.93245 0.00700173 1.01633e-20)
(1.19985 -0.564662 2.3489e-19)
(2.2444 -0.0969283 -3.69691e-19)
(2.00766 0.0645941 -2.82367e-19)
(2.00927 -0.130755 4.38307e-20)
(1.71555 -0.206197 7.19777e-19)
(2.05156 0.00364217 -7.30842e-21)
(1.80703 0.0664767 1.74981e-19)
(2.01296 0.0354249 1.61327e-20)
(2.20938 -0.374696 -1.78655e-19)
(2.5359 0.779105 -2.14497e-19)
(1.69762 -0.583816 6.17029e-20)
(2.02169 -0.00472711 0)
(1.87386 0.28066 0)
(1.12154 -0.1802 0)
(1.41927 -0.452527 5.27496e-19)
(2.11046 0.0455083 -4.55355e-19)
(1.81664 0.199739 0)
(1.59539 -0.371653 -4.13218e-19)
(1.80526 0.167815 0)
(1.80384 -0.329931 -3.2213e-19)
(1.87029 -0.0622905 -3.07606e-20)
(1.93914 -0.524487 -2.88868e-19)
(1.95611 0.0272683 0)
(1.9361 0.0505139 0)
(1.92632 -0.00903662 1.92099e-20)
(2.4239 0.0938023 3.91842e-21)
(2.26442 -0.0736473 8.82865e-20)