/*--------------------------------*- C++ -*----------------------------------*\
| =========                 |                                                 |
| \\      /  F ield         | OpenFOAM: The Open Source CFD Toolbox           |
|  \\    /   O peration     | Version:  2306                                  |
|   \\  /    A nd           | Website:  www.openfoam.com                      |
|    \\/     M anipulation  |                                                 |
\*---------------------------------------------------------------------------*/
FoamFile
{
    version     2.0;
    format      ascii;
    arch        "LSB;label=32;scalar=64";
    class       volScalarField;
    location    "6";
    object      p;
}
// * * * * * * * * * * * * * * * * * * * * * * * * * * * * * * * * * * * * * //

dimensions      [0 2 -2 0 0 0 0];

internalField   nonuniform List<scalar> 
13486
(
87.9396
85.4032
60.7015
52.0968
60.9266
63.6351
46.3075
71.2085
75.9037
78.781
28.9605
59.0928
89.0579
67.4754
52.6296
79.4866
34.5465
-52.5904
60.8171
85.7144
42.3973
88.6919
85.0377
13.0949
76.3548
16.265
33.3815
49.6944
63.7414
47.8326
11.3389
44.4658
41.5697
57.1407
71.2483
53.7731
75.0736
80.6528
71.893
76.2688
54.2392
90.1347
18.5368
76.0655
75.9705
59.2323
37.3406
124.494
75.9087
53.2918
79.0371
71.8511
53.3565
81.2108
-34.9789
61.8168
49.4899
71.4286
41.606
63.6699
15.8271
69.4471
45.081
40.349
-23.9293
74.3592
45.7899
89.4169
75.7164
78.6912
46.6722
-41.3642
77.7416
33.4813
69.0794
45.5252
70.7614
52.4963
38.3397
77.4906
34.8779
86.4178
45.2785
61.8524
87.9869
88.2398
68.9369
78.571
81.5862
82.4684
39.8343
68.296
86.2018
85.4585
76.6259
229.05
33.0545
33.2377
76.2714
34.7265
35.9876
68.0873
30.4235
71.9075
90.5743
34.7156
80.1166
71.4717
37.4232
67.6056
75.4347
34.4313
81.1962
30.8509
94.2527
75.2688
76.9561
58.2976
77.9451
77.7195
-41.53
18.113
77.9152
71.7583
74.5341
72.3374
67.3017
69.9356
60.9381
0.144265
72.6758
35.8986
34.9875
33.6942
79.3773
80.2443
99.7606
67.9179
77.745
71.7926
47.0793
53.677
51.5495
76.047
33.5516
43.4808
60.3293
100.451
52.8368
46.8131
75.1
54.2111
29.1452
86.9981
71.3917
61.1476
64.1295
35.0303
77.9162
46.6501
56.8414
77.9033
13.953
89.5321
71.7417
64.4002
69.2065
100.365
60.9203
33.8697
31.979
71.3963
76.794
60.9782
56.8822
-25.3623
68.1472
46.2895
80.0346
51.9407
74.5939
26.3219
56.956
26.9052
62.5726
49.9107
3.46241
51.8308
54.462
77.3351
75.1671
56.3072
70.3594
92.1144
70.1468
29.0624
-11.2291
56.704
83.9764
65.1197
6.93602
69.7405
80.6035
62.0501
43.6693
69.3941
-67.8022
80.2981
70.6023
62.6094
51.1028
5.92125
85.4325
80.128
63.5543
60.1464
47.3592
82.3835
84.4919
50.0671
34.5895
52.7596
72.3064
56.4127
54.7216
86.1208
61.5964
-12.87
65.164
69.6249
74.3015
40.5034
46.2399
91.1425
28.819
84.9454
55.0671
56.0905
85.3886
59.7644
39.4856
76.6965
39.291
83.576
71.1649
82.735
62.1598
32.4385
34.4735
76.9492
13.97
94.7446
73.8602
71.1057
70.4476
-27.1027
43.9023
61.8841
37.5433
39.0082
83.393
70.9131
51.9177
-25.3969
63.5942
26.513
64.1974
19.9588
77.0834
33.8631
87.7701
80.0712
47.1288
58.0455
86.3147
35.2249
69.0728
12.5092
71.044
61.4447
30.2865
71.3471
80.5774
12.0581
18.3355
34.3535
48.498
59.9359
55.9832
77.2998
32.4423
67.6059
76.9473
79.4127
55.888
53.3854
56.2782
59.2625
80.6977
54.1619
9.32961
-71.1283
61.3044
45.1395
77.6899
59.9605
58.185
62.5059
68.1561
75.7087
48.6892
54.0663
70.9803
33.8965
19.3982
80.5653
69.4748
81.7351
80.5493
62.4413
74.1028
70.4182
79.9543
85.8361
98.8857
39.8601
64.3091
70.8774
61.4299
62.7988
78.6473
67.5056
35.4235
89.5832
46.671
75.2113
94.7213
55.2468
76.1812
70.9156
63.1976
85.7006
62.4074
57.1365
20.7172
158.858
65.9898
93.2518
49.7055
70.9346
66.1518
60.4188
58.4337
32.5009
80.5552
81.3661
33.0199
67.2609
70.4763
13.6499
60.7976
41.2653
83.0707
80.1367
47.0992
8.56287
54.1028
31.9247
86.0104
67.6143
16.7802
66.3618
56.2521
11.4877
65.9239
79.126
79.9152
72.0655
20.2678
44.8597
76.5292
66.966
90.0783
88.1275
35.3264
68.2515
67.1019
75.9821
34.2855
21.5979
84.8799
47.0016
73.1232
85.682
90.8019
77.7505
49.9752
12.6651
34.478
47.7272
34.4408
77.9612
74.0181
44.1258
46.0682
62.7701
85.2485
46.3232
67.5716
84.7885
75.2157
70.6108
46.5271
80.8096
79.8578
91.7135
25.4599
64.104
30.5472
59.9267
80.0858
-24.8187
93.4393
76.649
59.5525
52.5282
69.8364
80.683
33.5392
69.8625
88.63
74.1083
72.9109
56.9821
61.3304
36.6562
90.253
66.3499
61.5734
88.9953
34.4574
47.1766
34.6271
45.9244
62.4904
80.7403
90.4436
88.793
44.2073
77.5431
20.4776
76.4388
82.015
53.1442
61.4054
79.8679
21.2111
-30.0654
8.75235
40.1658
71.4948
82.9823
57.8613
69.8624
50.0638
80.7475
112.513
97.6309
86.2084
76.8702
70.2209
60.5578
277.846
94.5757
66.5481
78.5492
59.1118
75.3773
34.3836
59.3489
77.1627
81.937
62.6954
85.0551
50.5081
34.5315
76.3983
20.4818
100.104
76.531
79.1716
81.3477
-22.2357
61.5564
94.7344
62.1575
85.6316
54.3666
70.6226
16.5644
76.8879
20.036
34.9431
82.2237
75.1228
8.86293
10.2704
62.9104
90.8343
80.8082
68.0174
75.568
68.0618
63.2368
64.1898
79.1594
32.9494
89.8062
71.9055
78.8949
90.3171
67.4215
45.9048
66.6365
5.74218
23.1344
61.0269
66.2654
78.1897
86.297
30.622
60.9741
30.1964
231.31
84.8755
70.1992
25.4718
26.5327
-30.9091
40.8036
70.0664
-24.0068
61.2999
75.5418
89.1568
83.3947
82.9305
41.7265
11.3796
59.7694
72.433
22.0402
79.7937
61.8441
9.54476
71.4255
79.936
36.2955
29.9627
79.1961
85.3338
72.8948
88.2816
61.1443
76.583
69.8823
80.6456
33.4815
84.4845
33.119
77.8881
74.4873
62.3395
36.305
79.6324
34.0777
58.8399
89.8949
88.3445
-24.5051
39.1787
72.4491
52.0776
74.503
80.4136
58.7589
31.8891
66.0455
87.0985
68.7671
70.1459
-39.7003
88.494
45.5816
33.1354
79.7451
69.1162
74.599
84.6109
72.0133
61.7538
65.173
72.0577
55.8509
87.9257
75.0966
67.6583
68.4071
56.48
48.8758
92.6388
71.0053
92.4275
-7.42088
78.1136
50.1322
33.6544
66.3309
76.7341
94.4223
-57.3678
66.2747
63.6876
48.8224
76.7983
-69.6922
66.9594
75.4407
29.6771
38.9491
32.9343
72.7145
58.503
81.2009
45.9312
90.7789
75.8752
45.8764
12.4573
51.9066
71.2276
21.6
69.2317
34.8621
84.8897
9.90216
43.2643
-5.63793
90.1372
4.88922
13.5695
90.0417
79.0997
21.3481
81.6871
67.0793
67.4053
74.4582
37.4741
-29.9775
71.9294
74.6986
70.9218
71.63
90.4959
34.6088
-15.3216
79.5907
-13.1322
62.6054
66.1676
77.4534
73.9488
24.2484
61.6737
70.3813
60.4847
84.8062
71.0362
61.4463
61.8241
52.42
68.9697
83.3121
54.5484
73.4734
74.9498
89.1669
-21.4196
66.7519
92.3278
13.3397
21.9892
78.3507
37.468
83.2757
32.1502
79.7644
40.7522
33.3159
8.71199
36.3826
34.5735
75.411
93.4558
57.4943
36.3763
60.9955
83.6574
39.237
73.4432
-1.49753
94.1615
24.4548
63.46
52.6101
76.0363
81.6096
79.4417
46.6542
39.2328
89.8953
79.9961
60.4282
74.7359
53.9902
69.3611
69.8013
75.7226
37.9298
68.2167
84.7746
42.2985
71.3092
71.2534
21.9858
57.7979
74.7834
79.7642
82.7998
-3.31327
62.4072
22.67
40.358
61.6107
58.8775
40.0367
79.7358
69.1928
61.153
79.6213
-11.574
0.737186
47.9528
59.567
2.12496
9.092
70.6782
-27.814
74.6499
89.19
77.8212
6.49121
90.0342
88.0489
-22.7775
-3.23603
76.2344
33.589
40.9103
34.2525
68.1061
62.5391
34.4341
73.066
76.7302
60.2506
16.2154
30.891
64.2219
71.5862
79.494
66.1611
-4.08685
82.8953
87.1356
39.818
-25.6345
78.3163
59.8201
66.717
71.6632
49.31
-2.12471
64.457
80.4693
92.667
79.7418
56.3854
65.6653
79.9923
86.6888
81.0684
77.004
78.9727
90.6835
44.3195
70.5096
68.5141
63.9446
89.5775
62.3779
84.8237
67.4139
68.8281
60.1313
64.7213
51.4047
80.6237
87.7934
77.0667
74.6012
50.9341
61.6708
60.3562
62.5464
55.0494
73.6642
33.9046
-55.6703
5.53337
74.7498
49.3944
34.4727
47.2453
48.2247
68.7107
32.0926
-31.5617
80.8708
8.84616
88.5491
-16.0521
34.4162
79.7054
85.1477
70.6177
68.388
56.6769
81.8754
64.1296
45.0668
73.8664
77.9234
23.7368
79.7635
40.9716
75.6467
74.091
75.437
33.8084
38.1566
78.2861
81.3066
49.2581
22.997
-34.2068
88.4845
29.2084
-22.2351
30.0768
78.8345
-6.27907
75.0738
60.485
57.2158
66.3726
66.3454
-17.2641
82.5884
79.8389
79.5347
73.6609
77.4071
54.2436
78.1359
67.0351
80.1445
80.5782
78.5155
71.2334
67.9482
65.165
78.2261
82.5816
72.3927
-14.6188
80.1734
-50.8285
69.8597
93.9601
64.6366
50.4047
76.6718
63.1207
74.1985
66.6695
47.3895
78.85
36.6567
14.5696
32.6501
12.5121
82.2245
21.4155
12.0898
80.1998
63.6541
89.606
82.9642
83.9198
60.4821
79.9272
52.9872
58.9258
68.4612
75.9985
45.3156
62.1413
48.6928
43.0498
-4.48819
78.0198
37.3954
29.9446
-57.6381
42.7417
81.6902
80.902
77.106
35.823
33.6456
79.8808
92.8796
62.876
9.53812
75.8726
-20.8906
78.3518
45.2428
70.791
80.542
72.2629
90.5109
67.1252
79.9492
50.5507
84.012
40.9672
83.1387
72.0212
37.144
68.5053
-58.7459
66.6747
69.5827
66.2198
88.8115
79.8694
83.1652
85.8638
83.3734
81.342
60.7568
76.3491
79.9352
80.3346
63.6402
61.3415
50.4686
70.9113
45.8453
78.293
33.2779
98.6544
60.4582
37.7468
92.6489
87.031
63.0391
-31.5769
76.64
75.2933
52.8648
73.6945
33.828
61.5851
79.9191
84.9021
71.6937
77.8196
83.8018
10.1129
57.2675
84.6252
60.2112
76.3777
30.5891
61.5266
51.6018
80.4817
86.1245
74.3079
-13.1508
42.156
44.9118
76.7537
60.4143
88.933
73.1458
96.4948
78.2359
60.8225
80.714
20.2655
34.5513
-2.59672
78.9328
71.774
33.2543
2.88385
73.8894
76.8997
71.9215
68.1701
25.847
59.9442
36.1802
69.5595
70.4777
54.0788
83.0181
80.6314
82.652
75.274
62.8717
41.8443
49.7948
61.6117
-26.7437
80.5101
70.0347
-2.91532
78.481
71.8595
10.2431
-6.71393
67.8534
76.1456
54.1456
39.5865
58.8252
53.742
36.4207
59.0342
68.745
77.7943
77.4978
82.1995
32.8065
79.2821
35.4517
85.9975
73.8049
74.7893
10.8219
64.7674
90.3509
95.441
71.5943
63.7166
77.2549
73.2423
90.6129
66.3607
43.0865
-0.520599
59.2531
65.301
48.3927
79.8251
77.5686
65.8802
56.6192
70.9429
74.5684
93.9572
37.5433
78.5562
34.1843
86.3714
88.4443
66.3811
70.4664
-19.4795
88.1469
60.8973
95.7629
64.6356
50.2764
74.0822
59.012
22.2296
33.616
-39.7822
83.1482
40.8046
63.5192
88.0994
86.2106
69.1927
47.4431
63.1416
70.3217
79.3882
76.6863
84.7062
65.1865
31.4385
86.283
72.8993
47.1366
68.859
81.9401
81.5601
10.4072
52.9533
6.80858
78.9059
89.4788
63.3512
13.409
50.8168
94.1404
37.924
47.8689
90.8337
79.0512
61.8093
69.5222
48.0438
61.5833
41.7456
37.1172
72.6118
-7.1215
66.5467
54.8678
32.703
34.5461
49.8221
35.4435
34.229
14.0156
92.5181
80.398
63.8511
30.8294
41.8304
70.1628
61.3768
96.3019
65.726
51.5644
79.1132
49.1108
-9.84052
70.7531
70.6652
77.6245
97.2319
7.47481
66.2102
8.44408
62.586
66.2328
74.87
61.5431
86.5073
80.0689
81.1075
11.1772
75.1176
46.9806
76.1455
80.0001
76.9255
80.7504
94.4236
92.1549
48.9862
79.1321
84.5448
51.6115
84.62
74.386
91.5905
84.4398
66.5029
83.1325
74.9076
68.6352
58.5966
82.2967
43.4311
72.3248
53.701
66.8516
63.3538
78.2681
76.4532
46.0526
90.2953
89.8463
65.1799
33.6715
60.9219
54.4294
67.1486
80.0339
86.5339
33.1094
80.4547
74.4093
60.4885
76.0024
-4.12888
-19.8542
70.7906
96.5163
44.5637
57.4821
84.6591
62.9505
41.5275
73.8872
58.8741
78.1015
60.7649
50.9022
65.0547
70.0384
66.0144
68.3683
93.0635
86.8173
81.0821
101.002
89.8609
57.2507
73.7098
-64.9768
59.7694
90.1806
-7.00579
76.4522
72.5788
17.1698
59.9433
80.3675
-30.5342
61.1657
78.789
97.5719
32.707
59.8313
60.8928
78.6519
61.4217
25.8575
89.5336
83.8846
74.6458
78.8477
44.5011
60.5094
35.0994
91.9837
63.5918
95.5263
48.9665
18.2944
33.5378
64.0146
33.3499
36.53
71.3548
71.5253
68.2056
71.4971
22.5884
16.1724
7.72979
31.4502
50.4043
46.1387
66.1882
67.2157
56.5576
15.8117
75.7431
76.2155
90.4386
79.8427
55.4943
60.8767
101.416
75.9016
33.4029
81.3914
65.2366
78.2457
72.6113
86.3219
50.3521
50.0128
70.5966
14.6268
60.5593
86.037
33.3348
18.3628
35.1283
92.462
36.2242
67.5261
83.3183
48.6166
69.1265
76.9918
31.9921
31.7539
53.164
77.1397
79.9585
82.8826
44.9744
31.9939
66.6945
38.8608
44.8286
61.8752
41.4245
39.6816
70.7972
22.7471
31.9734
22.3664
87.9966
39.5245
92.0907
19.811
66.3338
51.835
45.4289
85.4049
74.8701
86.1228
65.6617
41.7343
31.6433
84.1967
33.354
77.498
72.577
87.4228
85.8545
72.0598
78.8064
90.0927
77.8156
79.7055
47.3867
-8.98323
55.7956
38.8058
71.1127
63.7554
68.3
61.3945
31.5393
60.1375
57.4673
71.8356
68.5586
50.7298
91.5414
62.6815
116.124
59.9285
79.8103
3.89216
102.066
77.7135
61.0475
60.1391
62.2757
76.4748
79.8334
79.5391
71.8843
80.4244
82.918
78.9228
50.6436
39.906
71.1508
71.6675
50.9519
29.8229
-21.4116
49.7082
46.4931
35.8273
71.6524
25.5878
33.2135
53.1205
-11.6505
58.5542
34.0307
72.2452
28.4729
81.3186
100.721
73.0763
25.0698
74.1911
69.0856
60.7899
11.0952
46.1137
-59.6086
61.3914
83.4495
12.4615
89.3673
10.1062
79.5002
70.3098
57.4569
32.9518
65.6428
95.7305
58.2144
79.8825
79.9002
86.3756
60.6696
83.8128
76.9272
33.6277
78.5794
33.2031
35.1183
84.4256
79.0759
46.2319
73.5068
84.8327
52.2384
-35.7453
21.2148
35.7415
79.7832
74.7136
82.0747
73.3913
72.1341
44.7126
50.4055
51.4044
81.9477
95.3321
43.0907
41.3009
32.5916
75.3345
61.5134
61.1743
60.7389
-77.3506
68.9216
43.4537
32.7754
97.8322
72.9783
-9.22462
20.1281
26.5177
33.3552
34.4867
24.203
15.9716
84.9553
74.6013
47.4771
94.0285
84.2459
30.1978
28.4383
35.247
77.526
36.5722
71.5664
75.3247
67.5858
50.4852
42.7829
34.1119
-3.72175
82.9669
-6.7395
75.6795
35.0236
79.9428
79.9295
33.9955
83.2702
80.2597
87.6894
89.8192
78.1157
59.957
96.9548
35.3992
74.2934
51.7589
-30.8693
85.4177
-9.43457
90.6933
74.0809
51.3988
24.4635
33.3706
82.258
-25.9047
11.6244
60.7703
65.7053
-25.9321
75.8992
68.9746
67.5954
92.4869
33.7356
20.1295
79.2176
76.1374
79.4276
22.9466
100.358
73.681
57.5073
79.1654
54.5941
79.6697
76.237
79.694
78.9984
-14.3904
60.8185
75.1743
60.5892
31.0716
71.753
77.4658
80.6653
84.3324
52.0788
60.5843
63.0256
75.5692
40.2932
-18.9649
79.1576
-15.2297
79.0144
81.0868
34.599
88.8547
-23.5966
95.3449
78.9976
-15.1383
9.12244
71.2464
80.1577
82.0786
-25.6574
84.1376
80.6673
62.5559
30.0053
61.0653
66.4126
62.6805
34.7341
64.8214
-7.83416
80.0121
28.491
60.215
51.8137
84.4286
85.3559
81.3785
25.781
74.2508
69.758
62.8143
75.021
43.8281
46.0738
91.8442
61.5702
40.6786
43.9976
34.6786
50.9996
80.004
34.7182
58.8419
82.1484
64.2883
80.6041
20.634
60.1121
93.5179
44.2355
81.7276
49.1208
41.6411
71.4677
60.6593
78.9313
93.7608
79.3459
65.0932
94.6057
83.0374
84.9433
38.5631
27.8508
66.9398
50.7949
46.1175
43.8537
52.9439
43.1682
69.3258
60.8963
63.6252
65.3218
45.2613
68.9227
82.6889
37.1224
76.5131
75.9965
79.8468
70.4331
81.347
31.461
34.3444
22.8869
56.2696
82.6823
-33.0695
87.8636
18.8863
79.7087
65.446
71.4169
48.9035
77.7175
75.0406
70.1086
72.7315
73.9027
-65.0063
85.7933
86.8728
17.9376
26.1504
52.2681
79.8142
67.2521
60.9507
45.0611
66.0064
68.7384
57.0049
72.2872
71.2252
20.7085
75.0307
66.9138
76.679
-42.221
85.5623
29.2706
78.3415
72.4553
79.0071
78.6085
75.357
73.7318
44.7036
18.2642
72.054
35.0925
-8.3727
-17.3123
49.3389
51.8043
78.6695
65.1249
79.7932
16.5544
-83.7325
46.9768
74.6824
78.4241
31.3444
75.6983
59.9259
-59.4328
51.2331
25.0848
67.7966
80.2206
76.2116
59.5699
33.9291
79.2384
9.65322
47.0482
20.2542
83.1312
61.5599
87.2682
80.1995
76.4663
81.2491
85.8864
87.1476
43.7823
54.1467
28.6998
74.2505
76.1114
59.9781
48.2855
-10.2315
-1.07814
60.9145
61.4003
-14.0122
96.0988
45.0667
80.2976
67.3694
1.91072
74.4224
44.6437
73.8969
68.1161
59.7874
80.3082
67.9369
80.0505
46.3209
61.4073
43.923
36.7538
-7.81056
80.9972
93.2799
80.9331
64.148
55.8555
78.9818
33.4363
-2.01735
69.2335
67.6934
2.96802
-15.7592
-19.79
48.096
72.43
74.8125
45.3718
60.8498
82.2312
51.8088
47.3745
82.1737
73.2898
22.1931
28.0805
62.0493
18.5907
94.4975
68.2305
74.0752
53.6678
56.6725
51.8486
75.0903
39.843
70.1422
59.1377
48.2271
52.6741
38.3346
83.3025
72.57
69.5369
-1.2568
56.3946
94.1421
52.1861
79.3505
81.0749
71.1566
71.0442
60.683
32.4179
88.6786
79.5706
76.6274
75.592
-15.7945
82.2687
68.3398
88.3695
37.7856
79.9494
84.1121
79.1439
54.1796
22.4232
71.3499
34.5104
71.4498
74.0621
81.2152
67.5105
87.5537
59.5636
89.708
56.4761
81.5324
64.9589
68.2835
34.786
79.7999
58.7613
74.6322
94.1845
80.6244
54.6368
50.4302
63.3461
79.5586
75.1867
34.3005
68.1715
32.3905
84.0986
34.0409
88.3527
70.3329
101.562
90.5097
68.3408
66.9231
31.7541
67.0844
91.5458
61.7435
65.19
69.2899
97.9247
75.7613
71.4217
95.253
55.6588
80.0008
59.4993
80.0628
48.229
78.2513
77.4145
84.4846
74.7118
40.2981
60.8593
25.7431
57.6917
54.3679
59.8785
88.6033
86.6465
2.44698
57.3189
63.68
82.5582
70.9696
73.3597
75.7652
35.4091
32.4965
36.3903
80.9881
46.7843
-31.2163
82.1601
66.807
61.2194
50.6403
94.201
49.7596
87.8809
57.7128
95.2251
45.7832
32.0769
70.1891
44.3767
71.9513
79.908
53.7449
-39.8435
55.4357
-21.0739
85.8242
64.0412
65.9561
48.0315
-36.5514
58.8535
80.6012
60.232
51.2367
62.7643
80.1927
95.479
23.256
48.7104
74.6492
-18.8723
74.0158
72.4823
67.9747
-39.7766
21.8337
78.1521
-18.47
71.8049
62.1104
38.414
-46.1083
68.5451
78.198
78.8011
78.9281
94.0364
17.6684
96.7272
34.9798
93.8713
-30.2169
53.9009
92.7016
73.41
-23.9358
74.7229
73.8591
77.3654
39.429
34.917
60.2243
48.2347
40.7137
68.7254
69.1773
72.6625
80.9822
-49.2021
73.1212
46.917
44.8278
42.2639
75.4018
-7.36991
40.0397
49.6969
91.5128
77.905
92.6081
60.2252
32.2612
73.2138
57.3039
69.5924
78.8928
82.5036
96.3677
78.0009
80.7468
59.4246
33.9256
95.3373
95.7184
82.3239
57.9599
-9.29321
34.7282
73.6159
65.3503
51.2815
84.8552
-0.818946
77.1012
36.4088
93.3341
23.4024
68.0602
18.7856
74.0949
84.7683
99.5366
97.2921
73.5731
74.5988
43.1393
41.0151
76.3095
97.9658
18.9762
72.4579
67.8312
5.1625
57.7853
63.1431
59.7412
60.8818
50.4961
62.0987
73.8117
71.8475
85.3299
58.5347
78.8065
8.11915
58.8941
91.2321
24.2597
20.0504
56.0235
73.8282
75.555
32.4011
55.3026
49.3411
42.1268
100.367
33.5659
43.562
-19.1281
63.1248
30.8332
56.4412
39.7106
40.7385
85.551
45.1846
58.1008
40.6651
75.0773
58.6826
67.5604
99.2202
68.7476
60.3974
70.7529
69.2485
33.1722
55.3096
88.5466
79.0464
61.0243
-17.4226
76.792
79.6115
-11.0606
-10.8695
70.1443
88.5976
50.4429
79.4592
66.5052
88.444
58.6419
-2.45109
20.3395
81.0636
51.834
79.7145
55.7857
96.6852
38.0865
61.6399
31.6284
76.6197
24.4712
51.4493
31.9386
61.4746
61.8778
-25.5596
48.2781
68.7213
44.0183
16.5744
57.6884
70.8444
35.4801
71.8335
25.5831
81.0912
94.5374
73.3906
33.6359
75.3854
60.6974
24.0635
65.9616
58.1313
34.4996
59.5222
47.5438
61.8656
66.8795
66.4395
54.5858
31.3175
63.0232
79.884
70.0025
26.7115
62.1168
76.7796
-21.5943
62.4404
48.351
21.8134
82.9773
17.806
64.9637
44.0333
30.6634
28.4931
15.0871
101.498
47.3203
46.3034
77.7153
93.9965
91.3512
-14.1438
59.0855
79.9151
77.1744
61.3586
94.1095
62.5487
72.1285
101.183
64.6432
57.3259
68.8858
88.901
80.7941
75.9647
88.0645
77.2882
-37.0838
52.1714
73.8492
58.2406
34.3075
93.1286
75.4839
63.6407
72.5674
23.8795
58.1842
15.1469
56.8217
53.8171
76.499
82.0023
78.7445
33.6707
89.9505
92.1395
41.6793
65.4116
80.5721
77.4034
21.0163
75.9128
60.7791
51.7165
81.0705
95.736
32.7194
79.3817
78.7712
83.0163
68.6585
69.8535
-37.6772
-68.9832
65.0476
71.55
38.6244
46.9652
60.0256
44.3261
82.1027
-27.0394
74.2785
70.7178
34.015
13.3969
34.8888
73.7232
59.6919
68.862
73.0523
-22.9727
51.5852
46.0524
79.1559
80.4113
31.4316
94.5926
77.8182
97.7154
29.0558
69.4772
61.011
79.1443
71.3984
42.8014
69.2271
66.0431
61.5005
66.6518
102.078
83.0075
49.6103
50.4674
60.1724
-23.4442
78.7204
9.81249
76.0805
29.533
26.6842
29.8867
59.7956
-52.2424
25.7601
76.3334
65.598
91.1385
95.7236
34.366
34.4727
51.6213
54.781
92.3239
42.082
65.5839
73.0511
77.4456
-14.2237
17.2433
58.2703
74.0914
72.9994
-10.6289
56.2244
63.5386
56.2335
44.6259
64.0718
45.0161
46.5197
77.9875
-25.4397
3.18905
55.3537
-73.4692
96.5389
69.0328
79.6927
46.808
59.2447
64.8775
54.1319
71.1851
38.3185
26.4938
92.1181
80.0804
66.3787
34.6176
98.3227
16.7335
29.7261
33.4324
61.0455
20.8535
-3.51012
88.6298
65.8692
73.2415
72.7324
48.2854
-46.4933
63.3168
62.5535
43.7094
66.5992
72.7146
75.7852
22.9929
31.6925
43.5122
47.3467
53.7757
53.4385
96.6321
76.6939
-15.1322
60.3034
70.3513
90.2679
61.6422
28.9969
64.0811
84.8249
77.4548
46.7294
79.78
-35.565
91.8622
-60.8562
81.6458
27.829
48.3944
74.9962
24.387
65.0394
71.9291
32.2365
16.1343
80.4242
-23.4396
64.1787
86.2694
78.1053
85.5364
79.4692
47.9752
19.1491
66.8342
75.272
266.458
81.2092
69.7665
91.9343
41.5871
84.8505
62.8155
94.2486
51.1954
56.9095
93.6252
36.2582
69.4236
32.9943
87.246
93.0412
80.8525
50.3296
79.8543
83.0717
20.8392
75.1648
-13.1133
84.8806
29.4812
35.4741
34.6582
34.9123
82.606
61.9186
36.7492
60.5974
92.6239
64.4605
66.5732
35.1812
53.1584
71.5085
69.2803
79.7438
74.2105
38.7195
97.4474
72.2801
88.9336
85.209
57.3141
79.6444
72.2588
47.9172
62.589
71.9916
68.2721
62.1988
74.2602
46.32
95.9598
82.5582
53.1078
52.2928
77.9007
-10.7922
77.4396
83.0423
60.8194
76.7195
82.4069
77.2398
52.2742
33.7405
69.2719
78.4952
91.7993
33.2548
94.0852
98.7663
94.9389
19.7198
82.1844
24.1671
79.9103
83.5176
85.4373
78.2776
86.513
99.2294
79.6648
32.9221
52.3573
25.562
99.2009
61.4022
-33.3701
29.7739
82.2011
90.1884
76.6804
49.7117
69.1432
88.362
43.6149
77.1095
24.8293
73.3465
76.3235
58.8014
65.3454
21.6756
16.5593
64.0248
48.8743
52.6019
81.6912
65.3952
60.876
74.1514
35.4345
66.4528
75.8032
35.2304
29.5138
31.1073
85.3673
89.1009
21.5803
85.6103
84.1604
88.7099
13.323
-66.2172
78.0085
34.2004
86.0541
33.827
85.3014
77.6154
68.6878
84.5033
66.7639
83.5076
51.947
73.8547
51.5147
33.4095
37.2628
74.1027
83.0549
-42.4489
-20.0403
-33.6966
91.9588
82.8535
74.0726
68.136
87.8091
46.789
74.6078
71.6106
49.903
74.5089
-7.45499
33.1503
54.2164
34.6671
57.3508
-22.54
73.609
35.8834
34.1561
70.3361
93.1613
96.4143
90.923
-52.3555
77.2861
26.3579
74.0666
89.3505
69.6756
82.643
-27.1098
52.745
50.0208
65.0199
84.8635
62.1459
78.8325
33.7552
63.3437
34.9869
81.8698
78.7429
79.8416
33.0657
74.4997
49.8861
35.7793
35.4859
49.0818
92.5501
43.9963
47.7707
18.7664
77.7992
79.8376
71.431
75.9429
33.174
88.2897
91.1223
-10.6576
63.7982
86.2323
-19.7924
9.22533
66.3425
84.6464
87.1911
27.2453
67.8864
67.4823
92.719
40.1082
-24.9646
64.6037
89.5501
65.955
52.678
-22.7225
84.1332
78.0932
84.4355
64.1682
45.384
78.402
98.3416
34.574
72.6848
65.6846
41.4409
66.1834
54.2633
25.4436
67.5237
50.574
76.3381
-6.77115
35.7275
82.1407
86.6836
74.3938
48.5784
-15.9319
79.0196
33.2802
55.7413
51.0609
59.379
39.5127
83.7125
79.1751
66.0291
77.3451
91.089
34.584
70.4444
81.4586
35.336
76.6243
59.6088
58.4189
58.0388
78.5184
82.9306
52.3721
64.927
54.4377
84.778
59.0997
8.1146
-28.2279
62.6944
80.2924
34.0692
94.7378
32.2128
35.0544
54.767
84.6395
78.879
83.3888
24.996
89.611
-6.16906
70.1872
60.8414
42.1075
80.0236
58.3804
61.5744
65.8598
27.679
78.4728
34.5257
-19.4651
25.2207
32.3036
35.0201
72.2691
90.9842
64.2434
24.1611
82.4626
43.5503
87.3233
61.5637
66.5376
80.6895
80.7179
60.8266
-13.0408
35.9779
65.6702
71.7371
73.6057
40.9919
13.5576
53.9068
65.8971
72.9017
99.8808
77.2668
79.6121
87.4277
70.1989
82.0866
-10.2217
31.4969
-32.0084
79.8096
98.6569
74.311
56.4589
84.9035
73.7602
74.2056
69.565
66.2761
62.2174
94.8271
33.5622
38.4806
95.0236
85.5068
76.5514
76.327
81.6733
67.881
49.828
-33.9414
78.1566
32.6698
35.6173
78.8814
-37.6859
53.6314
57.6219
77.2416
78.1459
78.9564
67.8197
83.3669
84.0012
27.7426
80.0827
76.636
88.371
81.4773
67.4916
59.6238
71.8076
83.9462
79.7971
-1.31378
73.0192
67.3836
71.8748
90.8113
81.0093
7.16974
15.9533
32.4465
81.831
67.5668
75.5129
75.7528
61.5996
-20.3087
60.3247
19.6436
62.88
68.8639
46.3228
17.1316
32.7246
88.1909
26.5756
36.0791
7.98654
91.5822
-7.54169
44.2588
71.0174
35.3307
81.628
79.7252
64.7776
86.0969
70.21
66.3482
28.2889
13.5692
15.3297
84.585
-21.5395
27.5214
40.7957
20.2076
32.923
8.92162
44.4699
64.6009
72.3241
79.875
82.5028
31.0283
75.7569
86.3625
80.0456
27.295
69.9932
26.4849
63.4385
59.8285
62.8226
78.6619
-33.0892
-11.0365
-15.8608
72.1467
-26.329
30.6356
62.8214
-63.0206
34.3778
35.416
6.58611
61.2915
24.2658
60.2069
29.5365
80.5076
79.2359
40.522
85.0237
-21.7193
90.7648
39.8825
66.8928
55.3924
76.4974
64.4226
33.8236
27.984
81.028
84.8956
92.2095
17.1581
34.1398
-35.9028
67.0816
11.1603
33.6342
57.6442
34.3382
63.864
26.0654
69.6222
47.382
65.0857
88.6116
72.3785
65.4627
78.5174
49.9055
33.1565
88.2489
96.1862
31.3173
80.563
76.0978
136.255
50.6021
84.3258
84.7324
46.6578
-11.9624
-32.2032
-31.4993
56.7876
33.4813
59.7724
78.9183
50.1049
82.7925
30.7185
36.6569
80.1012
58.37
34.7924
68.0211
81.0366
35.1418
60.5002
38.3524
32.6609
34.5669
92.716
26.2576
64.0569
22.589
79.625
35.3311
-17.6523
43.9603
17.158
51.4889
79.0653
106.284
33.6185
72.7487
21.8324
-2.78285
41.343
32.91
67.2142
70.1158
79.8314
36.2399
86.97
10.3309
5.8593
56.1406
48.6453
-33.3952
33.7756
-3.42848
44.942
72.7769
70.0703
64.8865
44.7717
73.6745
-2.31545
80.197
25.7464
75.949
57.2064
12.3845
-5.42771
102.555
47.4831
35.6359
45.3095
39.1903
79.8383
67.874
4.30661
47.1296
43.8974
18.0521
33.8622
33.9965
77.3945
38.6984
68.4433
40.9121
64.9128
73.0089
58.2427
58.4334
57.7152
82.7241
34.5854
-17.0459
84.9462
53.5915
34.9628
64.4458
30.1915
44.2829
61.975
82.5974
-14.9253
74.4871
34.1055
29.9725
33.657
38.37
27.6555
65.0281
35.0576
79.3841
74.1922
-0.564163
96.5477
-34.004
84.7511
86.2249
35.1381
70.9426
79.216
79.8032
69.8702
-15.2516
20.36
26.8302
79.7717
71.0947
35.9144
38.2732
62.7179
84.6915
65.3847
-77.507
67.8648
84.5965
51.8997
50.7692
75.2262
78.8321
73.3031
-5.57921
87.1075
83.9537
70.6801
-43.3452
82.0764
74.8558
66.4806
73.2389
41.2138
6.24178
30.4102
-31.3357
84.5991
76.7919
63.0652
50.6773
42.2281
6.11188
77.696
-49.6495
69.9743
82.9984
85.2251
-20.1488
78.7572
71.9221
77.6953
79.4198
66.5585
79.6514
52.3887
80.616
78.5922
80.7438
20.408
83.5226
81.2592
79.1968
77.9982
-15.2005
66.9863
53.8363
45.6878
83.6856
90.5999
-65.7286
96.228
-18.2536
33.0759
77.7655
79.5157
42.3537
64.367
34.1287
-54.0543
63.3647
8.8428
39.8644
64.8502
73.3012
96.8666
81.4823
22.2768
29.1653
76.8696
74.3551
41.0202
-0.0368316
-16.3895
51.9123
33.3367
32.2545
79.7196
62.2564
73.4722
-42.4065
-42.6043
-1.10637
22.7228
47.5192
60.9159
82.4771
41.8941
63.5301
90.3483
-9.06952
66.6472
75.0289
66.3959
24.6062
78.6326
74.6429
74.3384
48.193
79.4199
71.2134
89.3651
79.8217
-18.0325
63.8738
49.9751
-10.2823
76.3435
73.6132
66.9158
-65.111
97.5542
61.9177
-32.7293
86.62
21.0851
61.6524
51.1345
18.3313
28.7299
55.8955
53.2762
74.512
59.9568
-17.7079
17.1952
-29.0562
50.7954
10.3911
62.2647
78.4899
36.2564
12.6196
52.3386
56.0189
41.7479
80.1635
87.4273
-11.7101
80.5003
61.7457
77.3711
91.635
20.4378
76.4317
62.4349
73.0987
85.3695
68.0042
67.1965
-5.76592
79.2105
87.5032
-29.598
79.5075
29.5186
40.0454
74.9819
-21.2354
45.7453
-26.5888
74.2202
34.1643
60.9214
50.1662
79.5134
60.5565
33.3621
64.9764
72.7373
43.3667
89.8
94.4699
83.5242
98.4617
81.1001
97.9847
78.2962
74.5097
84.3149
15.3003
76.83
63.2582
33.9079
87.5405
64.2567
45.6818
93.6623
67.2453
-10.3418
74.8285
73.3927
83.761
48.5108
80.1194
93.1943
22.0313
32.8095
47.8355
67.4989
29.0663
82.15
63.9911
84.4269
79.8844
16.0766
80.3438
54.22
30.7198
31.7057
-37.6787
80.2476
37.5034
80.0076
73.4002
33.9491
61.4368
-14.9378
62.1914
-32.8346
32.6955
80.934
69.7655
34.6712
63.0021
78.4869
60.7886
-64.0331
75.3876
69.6245
74.3298
35.354
78.3955
71.1874
66.0177
68.0817
76.3047
64.9308
71.8109
34.7153
97.3067
51.6925
37.0415
76.5288
71.2765
34.1111
45.3581
23.6232
64.6856
60.1175
41.643
64.2853
62.0511
98.8286
62.2945
13.0357
61.5897
51.1981
67.0156
59.2635
74.003
78.7922
30.537
65.8983
34.0152
69.9449
61.3468
75.6041
77.561
75.484
4.88216
58.4021
80.3586
25.9893
63.0512
35.8394
63.7584
56.8377
80.941
36.2633
58.8512
38.4595
80.1671
34.1381
63.5369
83.5119
80.8343
78.9229
19.7246
26.0366
80.7931
-29.3594
83.5335
74.9298
22.3647
79.1455
48.3863
71.5723
55.2197
49.2272
18.3052
78.3857
12.0449
84.4243
60.9556
99.2255
65.4774
70.7681
81.6151
68.3417
60.3971
80.0485
71.0414
64.2105
34.0414
72.3178
75.0711
65.4564
50.2203
-46.3064
68.0269
8.76617
34.0954
45.495
79.4401
47.3272
78.4375
67.8493
93.4735
89.5097
72.9721
70.2264
72.6457
35.2117
81.7459
68.3516
68.1065
57.1288
82.6773
78.4159
71.6358
-27.1095
47.5347
72.3428
56.435
27.7053
80.5564
-26.5507
73.1046
44.2134
76.2121
74.1145
71.6275
73.5257
79.9097
67.705
76.0766
82.512
60.1538
47.7325
78.2471
53.7861
88.537
39.0191
85.2836
79.5616
33.6932
-9.63957
76.1298
48.9104
24.5557
-23.0833
79.7658
86.8269
82.6653
86.1541
77.3727
83.7744
73.7383
61.8439
74.3358
58.7896
68.985
71.9029
58.3755
90.0014
52.5219
44.0796
77.9479
87.1226
89.9227
5.48729
61.6841
-13.9212
34.1477
74.561
20.5155
18.9765
78.2125
93.277
34.0566
36.6376
19.7199
73.4775
60.0805
69.2107
74.2086
75.0865
41.6433
60.4282
70.339
28.7069
80.2548
79.5572
81.8641
62.6376
51.0361
65.2185
61.2461
30.6386
54.2673
71.6849
62.8431
69.1316
57.6229
57.6527
76.4185
77.066
40.7086
60.6357
81.4878
70.9533
77.432
31.5325
8.20948
36.7727
78.1432
60.7279
-1.47719
79.9056
79.8611
66.2149
50.3952
71.7302
51.9833
-65.1761
73.389
61.5538
45.0312
74.3083
-10.9264
76.0369
74.1047
50.3659
84.4256
72.9395
79.5729
61.8008
75.5387
82.3361
80.8972
41.1386
67.6384
77.0527
46.3561
42.363
-35.5097
42.1527
67.6334
60.5741
46.4199
81.2386
68.054
7.90328
22.4401
42.9674
79.8981
69.4246
68.8578
46.1549
85.1383
69.9591
42.17
50.1209
50.8376
78.1621
60.6593
83.4434
44.3749
65.723
88.526
80.5837
73.4597
76.0635
81.3584
85.2278
93.0225
60.7019
82.1847
59.9551
80.9363
63.3074
10.9042
78.3287
62.8454
59.4489
45.1764
67.0188
77.3538
39.961
76.1118
18.1733
80.0458
64.078
68.489
-33.683
74.7326
81.4238
58.6683
33.0595
80.4084
78.8186
47.1164
71.4416
82.8497
28.1386
87.5017
80.7083
61.312
73.8934
76.6248
78.8628
43.3987
86.4909
66.429
61.4795
-42.0459
75.9007
46.8987
-4.63875
78.6443
82.6422
55.2052
77.2707
13.9657
29.1095
72.2435
70.9885
-53.5609
28.8181
79.934
85.419
80.0806
76.9807
66.3331
24.8861
68.9891
49.3623
60.7786
62.2952
85.4356
78.6395
72.3063
46.8331
17.3475
47.9324
-64.5634
2.92469
47.8155
79.919
44.6963
85.1438
54.1716
72.2217
85.5357
95.528
19.6879
17.7778
75.5656
62.7606
25.594
60.0977
48.9796
60.3954
42.1033
-37.7559
43.3535
33.2567
22.9864
79.0483
75.0871
79.868
45.7827
53.1793
74.2876
50.7344
-57.1298
30.3436
83.9402
92.6249
44.9348
79.7674
-5.58129
68.9739
72.0152
54.7843
48.252
69.1728
52.2204
64.4612
73.826
92.7062
50.4082
69.8334
44.6356
79.8585
72.4303
68.4759
47.2356
84.6074
92.4652
62.019
7.52035
82.4696
70.4185
62.3054