/*--------------------------------*- C++ -*----------------------------------*\
| =========                 |                                                 |
| \\      /  F ield         | OpenFOAM: The Open Source CFD Toolbox           |
|  \\    /   O peration     | Version:  2306                                  |
|   \\  /    A nd           | Website:  www.openfoam.com                      |
|    \\/     M anipulation  |                                                 |
\*---------------------------------------------------------------------------*/
FoamFile
{
    version     2.0;
    format      ascii;
    arch        "LSB;label=32;scalar=64";
    class       surfaceScalarField;
    location    "6";
    object      phi;
}
// * * * * * * * * * * * * * * * * * * * * * * * * * * * * * * * * * * * * * //

dimensions      [0 3 -1 0 0 0 0];

oriented        oriented;

internalField   nonuniform List<scalar> 
20045
(
1.14725
-1.3935
0.246246
-2.34849
1.08908
1.25941
0.239979
3.32898
-3.56896
-0.122548
0.36349
-0.240942
-1.96197
1.93849
0.0234834
-1.03535
4.04766
-3.01231
-2.54546
1.16877
1.37668
0.169831
1.00365
-1.17348
1.04918
1.03591
-2.08509
-1.18357
-0.514753
1.69832
-0.71818
-0.216326
0.934506
4.26527
-2.46359
-1.80168
0.968031
-0.931153
-0.0368778
-2.23953
1.73379
0.505739
-0.762116
2.55828
-1.79617
-1.94473
0.761161
-0.000649016
-0.0995902
0.100239
0.821963
0.495254
-1.31722
-3.49679
4.87158
-1.37479
-1.54528
-0.18468
1.72996
-0.507855
-0.0273006
0.535156
0.366446
0.601584
-0.602887
-1.7456
2.75438
1.20188
-3.95626
1.73796
0.0664916
-1.80445
-1.49656
4.25094
0.181275
-0.186282
0.00500649
-2.31981
4.75379
-2.43398
2.38226
-1.84812
-0.534144
-5.06217
3.00938
2.05279
-2.01291
1.52986
0.483046
3.42171
-2.76101
-0.660701
-0.77587
2.70519
-1.92932
5.30091
-2.9759
-2.32501
-1.29665
1.46648
5.79969
-2.76435
-3.03534
1.24097
2.01272
-3.25369
-0.158395
0.945923
-0.787528
-5.30519
2.50989
2.7953
1.49653
1.077
-2.57352
0.152751
0.923846
-1.0766
0.453129
-0.633193
0.180064
5.45398
-5.50817
0.0541898
2.72989
-0.783426
-1.94647
1.0748
1.65509
2.34974
1.91553
-0.0569165
-0.269544
0.32646
0.106595
0.157447
-0.264042
3.21573
-1.97476
0.44819
3.37063
-3.81882
2.64434
-4.39413
1.7498
4.41988
-3.0713
-1.34858
-1.31537
-2.55138
3.86675
-0.189864
-0.756562
0.946426
-1.25415
0.363697
0.890451
-1.63534
-0.326627
3.94423
1.6191
-5.56333
3.82038
0.568798
-4.38918
2.47643
-3.2523
3.76339
-3.99353
0.230149
-0.900864
-0.286376
1.18724
-0.0660024
3.82939
0.604479
-2.46942
1.86494
0.346704
-0.85456
1.76373
-0.61843
-1.1453
1.07311
2.4751
-3.54821
0.266331
-0.473402
0.207071
-1.40013
0.0396782
1.36045
1.97098
-0.9218
3.28141
-3.36196
0.0805457
0.400692
-0.13436
-0.52861
-0.725538
-0.728973
-2.17293
2.9019
0.0674279
-0.19703
0.129602
1.47621
1.72593
-3.20214
5.24135
-1.29712
-2.19885
3.67506
1.08331
-1.84543
0.266309
-0.00229771
-0.264011
1.19821
-2.71547
1.51726
4.87396
1.88638
-6.76034
1.72809
-1.67348
-0.0546078
1.96538
-1.3609
-3.89979
0.526441
3.37335
-0.0917501
1.239
-0.506267
0.932105
-0.425838
2.62118
-2.83366
0.212477
-3.18118
0.0841796
3.097
1.86713
0.651036
-2.51817
-1.67456
1.22696
0.4476
-3.97739
0.432706
3.54468
1.68679
-0.276449
-1.41034
0.915981
-1.45408
0.538098
-0.637986
-1.5296
2.16759
1.41361
-1.47677
0.0631678
-1.85656
0.0796993
1.77686
0.158896
0.0223794
-0.349441
0.79628
-0.44684
2.79476
-1.29823
0.0172516
-0.134998
0.117746
4.45229
1.3474
-0.960538
-1.27899
0.505248
-0.854688
-0.972464
4.79285
0.344439
-0.850706
0.162826
-0.145574
0.724511
2.55156
-3.27607
2.98157
-4.91632
1.93475
0.209393
-1.08814
0.93711
0.151028
-0.660658
0.820347
-0.159689
3.25781
-2.53112
-0.726686
-1.18633
0.996462
6.47712
-7.17311
0.695981
-0.645463
0.879606
-0.234143
0.126569
-0.796106
0.669537
2.04228
-0.304316
3.84613
1.45477
-2.67626
1.94728
1.37033
-3.27612
1.90579
-0.88655
1.70851
-1.13242
0.231559
-1.83357
1.51934
0.314223
-2.32361
0.2137
-1.37262
1.15892
2.93039
1.48949
2.55915
-3.2768
0.71765
3.11293
0.319296
-3.43223
-4.79001
3.57949
1.21051
0.494622
-1.90157
1.40695
4.54151
-1.61112
0.272823
-0.542367
0.283245
-0.255923
-0.0273218
-0.146619
0.0880604
0.0585588
2.30474
1.58316
-3.8879
2.49648
-2.09135
-0.405127
-0.478855
-0.0494108
0.528265
-0.766012
-0.322126
3.38584
-2.0155
-1.5084
1.63282
-0.124425
1.96146
-4.00159
2.04013
1.67845
-2.99382
1.78367
1.70739
-3.49105
3.18882
-1.99061
5.08454
-0.744096
-4.34044
2.00082
-2.58509
0.584273
3.28863
-2.94463
-0.343995
-0.660564
0.57104
0.0895246
-0.258614
3.98174
-3.72313
1.22762
1.15464
-3.28586
0.0856665
3.20019
-2.27619
2.01243
0.263757
6.54418
-1.67022
0.30845
1.41964
-2.5053
2.87889
-0.373592
-2.91504
3.15502
0.0590133
-0.945566
0.886553
1.18759
-1.05904
-0.128549
-0.069195
-0.901265
0.97046
0.401434
3.21673
-3.61817
5.10481
-2.47403
-2.63078
-1.05303
0.98383
3.71804
-4.41304
0.694996
0.558691
-0.105562
-4.04376
-1.73327
2.26885
-0.535573
-2.29642
1.85098
0.445435
-0.0265298
-0.333028
0.359558
0.497354
2.79128
-0.0967011
-0.0499181
-0.0810301
0.364275
-2.61002
0.104721
-2.98923
3.71171
-0.722476
-3.09363
3.43393
-0.340303
0.798223
-5.7415
4.94327
-0.32675
1.00557
-0.678817
1.30919
-1.60887
0.299682
3.5257
-0.172023
-3.35368
-0.125556
-2.95096
3.07651
-2.18245
3.96612
0.971549
-2.52472
1.55318
-1.23603
7.71315
-3.68526
2.66543
1.01984
0.395107
-0.371016
-0.0240908
1.17359
-3.47525
2.30165
-3.79405
1.47423
-2.39702
-2.40765
4.61681
-2.9431
-1.67372
-1.21494
1.36769
0.788401
-0.840777
0.0523764
-1.2535
-1.87914
3.13264
-3.15156
4.81121
-1.65965
4.75449
-3.50963
-1.24486
-0.198637
-0.626754
0.825391
-1.35614
-2.42573
3.78187
0.303618
-1.0218
-1.35222
1.84684
-2.71263
-0.834168
3.5468
0.565784
0.142363
-0.708148
0.268054
-2.00133
-1.76651
-0.246392
3.27629
-0.163359
-0.784237
0.625842
-0.832668
0.98846
-0.155792
-3.8972
4.29863
-3.98101
2.62487
-1.02657
0.719946
0.306623
-3.08031
0.783412
2.29689
1.50758
3.24691
3.70467
-2.53108
3.16917
-5.11969
1.95052
1.91904
-4.54799
2.62895
0.390561
-1.93584
-2.10344
2.82795
2.44278
-3.47813
1.32272
-3.45437
2.13165
-5.43791
2.86623
2.57168
-0.440738
-1.23382
0.788433
0.781105
-1.56954
2.25189
-0.690299
-1.56159
-0.135647
-2.7563
2.49769
-1.1989
-0.309496
2.39218
3.21751
-3.58404
0.366529
-0.0575151
-0.672652
0.730167
2.41093
0.353954
-2.76489
0.481722
-1.71748
1.23576
-0.534583
3.15783
-2.62325
-0.272236
2.89342
2.61507
-1.64352
-0.263015
0.90573
-0.642715
3.39997
-1.43851
0.600872
-0.0439835
-0.556888
0.307193
-0.985789
0.678596
-0.662659
0.687104
-0.0244444
4.59162
-2.977
-1.61461
1.22258
-4.37414
-0.734594
0.0719343
-3.71068
0.962461
2.74822
4.63706
-1.93186
0.907138
-3.89637
8.24089
-4.81566
-3.42523
-0.086292
0.652076
4.94684
-2.45675
-2.49009
-2.4205
0.284787
2.13571
-4.15399
4.04584
0.108155
2.0077
-4.15877
2.15107
0.0604653
-0.0628089
0.00234366
-1.94208
2.27644
-0.334356
-0.0736122
0.930127
-0.856515
-0.816479
0.171016
-0.797974
0.137315
-3.20113
-1.71519
2.22838
-3.77635
1.54798
-0.731518
0.995089
-0.263571
2.42897
0.992735
3.116
-1.79328
0.351103
0.836484
2.1107
2.52635
-2.2275
0.396918
1.83058
2.02362
2.92322
1.88576
0.672527
-0.960901
0.229383
-1.32433
-0.0768541
1.40118
0.0769918
0.318115
-3.25098
2.7164
-0.633046
-0.475741
1.10879
-3.83204
3.65337
0.178664
1.52145
1.81629
-3.33774
-0.368417
-0.744847
1.11326
2.97439
-3.38554
0.411155
-3.06537
-2.37254
4.53823
-3.56358
-0.974656
-0.540132
0.482617
4.44646
-2.43876
-1.69243
3.92081
-2.20726
2.489
-0.281738
4.58786
-0.853514
-3.73435
3.20332
-0.0281697
-3.17515
0.132578
-2.33984
3.74299
-2.15757
-1.58542
-0.89209
3.31573
-2.42364
-0.0308344
-2.0906
2.12144
0.399997
0.687423
-1.08742
-0.226776
0.0601819
0.166594
4.36551
-3.77873
-0.586784
-2.67412
-2.11589
3.20146
0.0160491
-3.43819
-0.393852
0.684443
-0.37725
2.989
-5.19134
2.20235
0.0197699
0.768631
-2.14003
4.44477
1.71093
2.88068
5.02597
-3.1689
-1.85708
-3.74235
2.90818
3.19116
-4.23086
1.0397
-2.45468
-0.385262
2.83994
-1.00915
-0.867835
1.87698
3.95929
-0.241251
-1.03963
0.0130658
0.258684
-0.517366
-2.24364
-1.60029
3.45477
-1.85449
-0.982479
0.149812
-0.159575
-0.103441
0.394069
-4.54806
2.53675
-2.80899
1.96223
-0.984168
1.24075
-0.25658
0.0880679
-0.210616
-1.73895
1.07115
0.667799
2.06888
1.18892
1.96222
-0.589115
-1.3731
1.76909
0.72739
-2.34341
5.33241
2.34917
-0.482033
-1.08588
-1.99442
4.7145
-3.44571
-1.26879
3.08583
-4.83302
2.70615
2.12687
3.11788
-3.52918
0.411304
-2.01501
1.37703
-0.663781
0.184926
-1.30774
-2.66965
1.32189
-2.52184
1.19995
1.91238
1.83061
2.82632
-3.58502
0.758697
1.05471
-2.50101
1.4463
-3.89566
0.714484
0.0294158
1.65737
-3.58711
4.01926
-0.432142
-0.748878
1.35008
-0.601198
-1.92318
-0.622273
-0.64436
-1.01066
1.65502
0.602226
-0.00040466
-0.601822
-1.58784
-0.688345
1.30747
1.86216
-3.16963
4.65514
-2.63152
1.46351
-1.78714
-0.227872
2.16434
-1.10963
-3.12527
-0.559999
0.807366
-0.810802
0.0034355
0.675675
-0.569079
-2.10549
3.39708
-1.29159
-0.639628
0.775194
-0.135565
2.30786
-0.0559662
-3.04566
-2.14568
-2.25492
4.0678
-1.81288
2.70224
-3.75861
1.05637
1.3462
3.19203
-0.164194
0.148179
0.0160149
0.569651
-3.02433
2.41832
-3.18519
0.76687
0.1787
-0.111272
-0.335823
2.89497
-0.174974
2.71173
-2.50206
4.4211
0.624112
-4.1209
-3.83488
3.08126
0.753616
2.79839
-0.723358
-2.07503
3.80488
-0.830496
-2.19594
-5.0825
-1.98552
2.04897
0.168771
0.380026
-0.548797
1.33437
-1.51905
-3.24317
2.90735
4.28174
1.17224
-3.54384
1.43835
3.25541
-0.0539429
-0.908521
0.991119
-0.0825986
-0.0996278
-2.13054
2.23016
-3.58801
0.63585
2.95216
3.38583
-3.38583
-2.29732
4.7061
-2.40878
1.36744
0.594773
1.98962
-1.19883
-0.79079
-3.96331
4.09137
-0.128063
1.57186
-0.227573
-1.34428
1.2799
-0.348292
-0.931605
0.687232
-1.05565
0.441594
2.3659
-4.05833
-3.11198
3.70951
-0.597534
-1.24196
2.54943
0.157596
0.00642593
-0.164022
-1.3328
0.452203
0.880597
-1.54517
1.93573
4.85215
-3.68772
-1.16443
-0.481213
-1.93462
2.41583
-1.19217
1.22809
-0.0359192
0.852039
-1.22991
0.377875
-3.01529
1.865
1.15029
0.165553
0.197938
-1.05318
0.144655
0.0204073
-0.175347
0.15494
2.28688
2.07864
0.161007
-0.00341041
-0.484841
-0.71077
1.19561
-2.14191
3.48633
-1.34442
-0.153494
0.563387
-0.409893
2.17702
-1.00825
2.43293
0.654326
-3.08725
0.366555
-1.89616
0.768491
2.75721
1.93007
1.32992
-3.25999
2.10634
-1.53867
-0.567675
-4.04597
0.760111
-1.22686
0.661071
0.56579
1.52426
2.63615
-4.16041
-2.67403
2.28877
0.287502
-3.66368
3.37618
-0.700443
0.501806
0.446646
-0.441228
-0.00541812
0.083159
-1.40749
-0.0390556
0.195852
-0.156797
-3.03548
-0.675195
2.426
1.45163
0.338152
-1.78978
-0.732532
0.0929035
0.475166
-2.70235
2.22719
0.825527
1.92781
-2.75334
1.44792
-2.77683
3.24419
-0.467359
-2.99241
2.10032
-0.0833876
-0.102894
-1.51148
-0.784942
-1.28513
0.259726
1.02541
-3.76945
1.62755
2.50618
-2.98739
0.275137
2.98027
-1.36329
1.40307
-0.0397775
0.834403
-3.91307
3.07867
0.930808
-1.32009
0.389282
1.83958
-4.88524
-2.90216
-0.191465
-1.56174
0.16161
0.178866
-0.181379
0.00251372
1.78678
0.0563025
-0.0843573
0.0280548
3.95681
-2.43255
-3.5408
3.72633
-0.185526
1.09592
0.973848
-2.06977
-1.33195
0.631507
-1.17165
-0.113486
1.16826
0.821357
-1.81937
-1.45675
0.744817
0.0625487
2.33733
1.92222
0.426945
-3.31143
3.75962
0.168875
-1.32726
1.15839
-0.369719
-3.29468
3.6644
-0.661201
0.720015
-0.0588136
-1.04474
0.71799
-1.84562
1.81479
2.63794
-0.637117
-1.24994
-0.489012
-0.149771
-1.7713
1.92107
5.1257
-4.32748
-0.17702
-1.80559
1.98261
-0.561823
0.389159
0.172664
-2.48452
-0.0482443
2.53277
1.71714
-1.55969
0.036796
0.51243
-0.549226
-1.04422
-0.14795
0.928598
1.50379
-2.43238
0.646939
-0.791596
0.144658
3.31628
1.05636
-4.37264
6.08532
-7.94188
0.568047
0.0341796
-1.53483
-2.58082
4.11565
1.81331
1.57253
3.35159
-2.52606
-1.65894
1.01458
-0.161956
-0.0648197
-0.815072
4.00623
0.440428
-3.01312
2.57269
2.84448
-0.553145
-2.29133
-1.41261
2.36568
-0.953063
1.50345
-1.37923
-1.39215
2.77138
0.144903
-0.175284
0.0303816
-1.08699
-1.96888
3.05587
-1.05945
-0.273353
0.349091
-0.375621
2.04838
-3.13537
-2.75098
-0.916747
3.66772
-0.0064878
-2.16376
2.17025
0.0446663
3.79228
-3.96095
0.168671
0.927758
-0.304056
-0.623702
0.0564459
-1.41974
0.971179
1.19641
-1.46677
0.457626
-3.1809
3.989
-0.808098
-1.56531
0.932263
1.96041
1.22841
-4.21204
-1.29613
-0.00967171
-0.157265
0.166936
2.11883
-0.196612
-0.958839
1.05677
-0.0979272
0.947689
-1.0213
-5.04767
2.65065
3.403
0.64466
-0.264099
1.11614
-1.04233
2.13826
3.97996
-1.61407
-0.992233
0.0333942
-0.447979
-2.79519
0.856232
1.05602
-0.997004
-3.68335
0.0953389
-0.120086
1.0169
-0.0860895
-2.52021
0.409961
2.11024
2.77704
0.504366
1.01134
-0.391331
-0.620012
1.27055
-1.1987
-0.0718546
-4.5275
1.76315
-4.52796
2.27304
1.50069
0.234774
-1.73546
-0.0799761
0.650683
-0.570707
4.33123
-0.115174
-4.21605
0.875459
0.0611319
-0.936591
-0.596141
-1.23742
1.11289
-0.196905
0.00866923
0.00444104
-0.0131103
1.78554
-0.298519
-1.48702
0.0695536
-0.0608844
-1.7668
1.8465
-0.117819
-0.715656
0.833475
-4.06352
0.882612
0.0756294
-0.541767
1.04701
-0.906175
2.35781
0.765997
-0.414894
1.16158
0.694444
-1.85602
0.940671
0.82306
1.29874
-1.12986
1.02025
-0.893684
0.582784
-1.33166
1.12441
-0.420935
-0.703474
2.35899
-0.45985
-1.89914
-1.38138
-1.20371
-0.962377
0.113937
0.84844
1.09326
-1.33918
0.245916
4.3525
-0.108544
-4.24396
-0.925911
0.294987
0.630924
-2.0522
2.92684
-0.874638
1.83181
1.94864
-3.78045
0.973821
-1.2602
-1.17442
1.97739
-0.802968
1.06895
0.369488
-1.43843
-3.97162
2.73677
1.23485
0.0168562
-0.0124152
-3.39206
0.641084
1.47017
-0.818096
-0.652074
1.58082
-2.24887
0.668055
-0.547251
-0.846249
0.447532
3.34475
3.31278
-0.64624
-2.66654
-3.15914
0.382311
1.27054
-2.35643
4.09336
-6.80082
2.70746
-0.540987
1.32942
-0.00529842
-1.37574
0.890898
-0.758228
0.971928
-0.699437
-3.51604
4.21548
2.33304
2.11342
-2.91859
3.13057
-0.211983
0.157151
0.0217148
-2.88465
-0.644718
-0.589242
0.664077
-0.0748353
1.93481
0.366243
-2.30105
1.15207
0.276759
-1.42883
-0.512348
2.09316
-2.06742
-1.69512
3.76253
-3.34996
-1.0439
4.39387
1.65169
-1.53384
-0.117845
-1.04649
0.124421
0.92207
-0.364871
0.223401
0.14147
-3.6806
0.150055
3.53054
0.0688694
0.961523
-1.03039
3.02157
-3.36921
0.347637
-1.6885
1.20664
1.64107
-2.84771
0.0640948
-0.653336
-0.542346
-2.30399
2.84633
5.84611
-7.08214
-3.78674
3.30961
0.477124
0.78078
-0.133841
3.37276
-1.41235
-0.381127
-0.411203
0.792329
-0.0490442
0.789272
-0.740228
-1.36168
3.09365
-1.73197
2.93349
-3.0329
0.0994146
4.04975
-3.87383
-0.175924
2.58304
-1.08523
-1.49781
0.146382
-1.09628
0.949896
-1.34923
-0.0233855
-4.40054
3.86071
0.539836
0.216625
-4.61717
0.259858
2.49619
-2.75605
-1.92736
-1.85137
1.03719
-0.795622
-0.241568
-3.17534
-0.888176
-0.955328
0.694879
0.260449
-0.73078
1.2125
-3.91615
3.70753
0.208624
-1.21121
-0.189381
-0.00764901
0.934083
-0.0586246
-2.1725
0.230423
0.842645
-0.872805
0.0301597
-1.20305
0.54569
0.657364
1.62982
-0.0579647
-1.17912
2.08027
0.227582
1.49301
0.191867
-0.127535
-0.0643324
-0.517762
1.82695
-2.83075
1.73183
1.09892
-0.0855497
0.102406
4.37176
-2.03872
3.23218
-2.39778
-0.497385
-0.751375
1.24876
1.60519
-3.73412
2.12893
2.43836
-2.44485
5.69533
-4.39114
-1.30419
-0.0323207
-2.30302
-0.527731
-0.0112806
4.4926
-4.48132
0.0287427
-1.16613
4.3353
-4.17151
0.99617
0.992703
-0.592706
-0.537719
0.153154
0.71018
-0.0230761
-6.15936
-0.966857
5.22165
0.0196994
-1.24352
0.913434
0.330084
0.15769
1.12221
-3.29153
-2.41801
5.70955
3.43361
0.525686
-0.0338779
-0.709079
0.742957
3.28019
-0.640875
0.123019
0.517856
0.682299
0.44211
-1.61376
-3.76975
0.657767
-0.998222
0.0492301
0.948991
4.32692
3.91397
1.2619
-1.9461
0.684198
3.87745
0.172306
2.54781
-3.66145
1.11364
-3.21986
0.0280956
3.19177
-3.48132
4.50262
-1.02131
0.706879
-0.0362355
-0.670644
-1.37115
7.21726
-0.9025
-0.485793
1.38829
0.188642
-3.10723
2.48835
-0.340198
-2.14816
-3.60008
4.65654
-1.05646
-1.13095
2.48066
-1.34971
4.64345
-2.05192
-2.59153
0.21097
-2.39475
2.18378
-0.349213
-0.0920148
-1.5373
3.36911
2.15132
-4.44864
3.54838
-0.846146
-0.869197
0.751378
-3.32263
0.102767
3.76528
-0.938956
0.105902
-4.00569
1.05071
-0.126865
1.55045
2.53992
-4.09037
2.20912
-0.747063
-1.46206
-0.15098
-4.0434
4.19438
-0.79364
0.0486806
0.74496
-0.972267
-2.03265
3.00492
1.56522
-0.98244
-1.4734
2.42918
-0.955773
0.523007
0.72168
-1.24469
0.333361
0.703829
-4.59922
5.36374
-0.764511
-0.631645
-0.0295566
1.81718
1.02222
-2.8394
1.6029
2.48177
-4.08467
0.902375
1.89602
-0.0415058
5.12604
-0.05496
3.16818
-3.11322
-0.102457
-0.051037
0.117305
0.0711641
-0.188469
4.72169
-3.65282
-1.06888
4.67791
1.01743
-0.157139
0.0986429
0.0584957
-0.908309
3.05226
-2.14396
-0.0626737
0.910566
-0.847892
1.82977
-3.57977
1.74999
-0.595237
-2.20578
2.80102
2.90117
-0.49024
0.919517
1.28961
1.29544
-2.90093
1.60549
1.25238
-3.18699
0.528946
-1.25571
0.726764
0.868029
-0.105185
-0.762844
0.127141
-0.476354
-0.234596
3.3651
-3.13051
-0.659973
4.0306
2.89749
-2.52844
-0.369047
2.70706
-2.05603
-1.84279
0.843614
0.999173
0.174058
-1.37289
0.290262
0.565226
-0.855488
0.353173
0.65817
0.605511
2.90018
-3.50569
0.92763
0.857909
0.567579
-3.91754
-1.94421
0.872626
1.07158
-1.41411
-1.11083
2.52494
2.17716
-1.01558
-3.35694
2.11498
1.2084
-0.918205
-0.290195
-2.41854
3.88963
-1.47109
-1.70218
2.06874
-2.12328
2.82358
-0.700302
-3.18887
4.72985
-1.54098
-0.101755
0.953408
-0.851653
-0.728894
0.648917
-1.62459
-2.55025
4.31154
-1.76129
-2.19668
2.98009
1.93207
-2.25277
0.320698
1.07715
0.188275
-1.26543
-3.48002
2.59178
0.888248
0.0942839
0.414351
-0.508635
0.636966
1.7822
-3.14388
3.49542
-1.89024
-0.705481
-3.1294
-2.81794
2.76298
1.68377
0.167215
1.0572
0.522166
-1.57937
-1.49194
1.42521
0.0667272
-0.729579
-0.812821
1.5424
-1.2376
-0.293443
1.53104
0.938961
-0.83329
-0.105671
-2.6668
-0.794033
3.46083
-0.160709
1.23786
3.12349
1.5982
-4.87201
3.11106
1.76095
-1.04421
0.145261
0.898946
0.0267071
0.952159
-1.15806
0.205897
-1.20199
-2.08001
0.842417
0.673001
0.959125
-0.812743
0.0889659
1.84584
-0.142965
-1.75861
0.174216
1.23939
0.304099
0.0674201
-0.371519
-3.05812
-2.39536
5.45348
2.31205
-1.01662
-1.92951
-0.181718
2.11123
0.623668
0.786339
-1.41001
-0.0122359
4.42545
-2.83879
-1.58666
0.791874
2.5209
0.234372
-2.37015
-0.212129
2.58228
-2.38762
3.57431
-1.18669
-2.12878
-0.81236
2.94114
-2.02993
0.855504
-1.14374
-0.699043
4.78377
-2.09212
-2.69165
1.26336
-0.804136
-0.459224
1.14652
0.505962
-1.65249
-0.846772
0.915642
0.361759
-0.43879
0.0770306
-0.0491173
-0.0892291
-0.963796
-0.0580306
2.82154
1.96224
-2.18275
4.69264
-1.39828
4.40765
0.850519
0.412841
-3.1199
0.991116
3.01098
-2.44133
-0.621967
-2.75233
0.700134
2.59552
-2.33567
2.48816
-2.58779
3.32707
-0.209186
-0.822549
-0.63153
-0.522604
-0.441401
0.964005
-1.36314
-0.113632
3.07181
0.509472
-3.58128
-0.219087
-1.00379
1.22288
0.0537439
2.66583
-5.14684
2.48102
3.21661
-0.195034
-4.24485
4.61932
-0.374466
0.847951
-0.808273
-3.29644
-0.183583
-0.90373
3.96546
-0.104749
1.56143
4.23258
-1.85726
-2.37532
-2.26241
-0.224602
2.48701
0.784805
1.62178
-2.40659
-2.84716
0.36264
-0.822186
-0.10647
0.928656
-1.90785
2.34827
0.743027
1.81334
-2.55637
-0.323021
-0.0385307
0.361551
-3.42866
0.365038
3.06362
1.092
2.40342
-1.01167
1.76048
0.822566
-0.653877
-0.572984
4.02325
-4.76735
0.978283
-0.655796
-0.322487
1.32022
-0.346396
2.68614
0.0481823
-2.73432
3.01779
-4.41607
0.0167496
0.0437157
-1.35528
1.78432
-0.429036
-2.7841
2.24175
-0.056273
1.213
-1.15673
-0.690442
0.503012
0.18743
-0.524663
-0.520078
-1.21166
2.48221
1.34706
0.15363
-0.728129
0.792224
-1.47972
-0.237767
0.0249271
-0.087736
-0.882766
0.847778
0.0349878
0.970737
-1.05621
0.0854773
-2.07501
3.80094
0.30901
-2.23852
-0.0255607
-1.18938
-0.228036
2.36317
-2.13513
1.42656
-1.50341
0.379969
-2.41536
2.0354
-1.94289
3.47616
-1.53326
1.92717
-3.52746
-2.23757
-0.0884817
-3.69826
-0.318832
5.54048
-2.81755
-0.539384
-2.45115
-2.38187
-1.84212
0.83146
-0.116261
-0.0608142
0.177075
7.30727
-2.98035
3.00328
-0.584955
-0.94908
-0.772841
1.72192
-4.11986
1.95835
2.16151
-1.19086
0.974531
-1.12894
2.33558
0.765587
-0.399141
-1.37947
-1.27541
0.37291
1.10262
-0.917161
-0.185457
-0.491393
3.5632
-0.516799
1.01979
-0.502992
4.54573
-4.78089
2.40116
2.37974
1.03388
0.932907
-1.96679
1.59801
-2.53585
0.937843
-2.32297
1.19202
-1.97065
-0.303923
1.45045
3.52521
-3.89493
1.81598
-0.747036
-1.40017
2.65254
-3.67886
2.56455
1.1143
2.03063
-3.79696
1.76633
-2.62028
2.94531
-0.325027
1.22275
-1.74051
0.0631573
0.529791
1.1219
0.154505
-2.86997
1.38673
-4.51355
2.08913
2.42442
0.90714
-3.16955
1.6354
0.0576606
-2.47816
0.478676
2.82651
4.12738
-1.47654
-2.65084
-0.0333559
1.17414
-2.58825
0.779971
-3.52056
3.29596
-2.44892
1.06969
1.80386
-2.63846
2.7586
-0.120146
-4.31087
2.38323
1.92764
-1.35571
-0.363741
-0.198082
-3.94769
2.83696
1.11073
5.45037
-6.82152
-4.53532
-0.0639035
7.03709
-2.94373
4.24702
-2.23957
-2.00744
-0.104969
-0.688716
0.793685
-0.546591
1.46168
2.02393
-2.94948
0.311021
0.439139
1.12608
0.633069
1.60613
-2.2392
1.71822
-0.937114
-0.345958
-3.82738
4.17334
-1.41494
1.22389
-3.40634
-2.14487
-1.68228
3.82715
1.10882
-1.38527
-2.92702
1.00579
1.92123
0.250579
0.102503
-0.353082
3.58489
-4.28432
0.245061
-1.60034
2.34388
1.5429
-3.88678
-1.14159
-0.101924
-3.37691
1.04475
2.33217
-2.82264
2.2274
1.13799
-3.52561
0.838262
0.140021
0.361075
-0.110496
-0.0479792
2.89246
-2.2592
3.04207
-0.782871
3.3215
0.253145
-3.57465
-3.15441
-0.0635142
-0.920654
0.173634
3.2122
0.638319
0.136875
-0.516548
2.02626
-0.658815
1.98918
-1.82604
1.09646
-3.63462
-0.281536
-3.90848
1.84675
-4.3035
0.844535
0.756911
-1.60145
3.94961
0.268884
-4.21849
-0.534498
0.498262
-1.43986
-3.08809
-2.96013
-0.569057
-1.51174
4.52953
-1.30095
2.00029
-0.699341
-4.35727
1.29915
-1.33356
1.96663
-2.10389
-0.416318
-1.86091
-0.841809
1.14149
-1.07166
-0.131397
4.6021
-0.636639
1.65929
-2.1396
0.480312
0.60515
0.30058
1.21188
3.87639
-3.58889
-0.295431
-0.92131
1.45941
-1.79334
2.19026
-1.99141
-2.35371
0.890218
0.80356
-1.69378
-3.44265
0.0568193
-0.642248
3.08288
-2.44064
-0.26677
-3.97808
-2.43546
2.78942
4.90515
-2.30278
-2.60236
-0.201141
0.862211
3.7264
-1.52632
-2.20008
1.155
-1.24423
0.118841
-0.00153609
-0.408458
-0.21207
0.620528
-0.484683
1.54189
-1.5602
7.01056
0.0265123
-0.822135
-1.08562
-0.51892
1.60454
-0.166684
3.75157
1.09943
0.576915
-1.67634
-1.50826
2.43686
1.38815
1.66412
-1.41868
-0.525526
2.21852
-0.763803
-1.45471
-0.0836835
0.0226144
0.0610692
0.345445
-2.6098
2.26436
-3.58033
0.620207
0.929184
-2.50622
4.35297
-0.00497404
1.15997
0.725748
-2.0267
-6.22033
4.23481
-3.59423
1.1202
-1.97171
0.426536
-1.45877
-2.51419
3.97297
-3.33588
0.379374
0.105658
-0.485031
2.91818
-2.39174
2.59577
-1.81096
0.351373
2.1471
-2.49847
0.342713
-1.1649
-1.45803
-2.69482
4.15285
2.17204
-1.05712
-1.11492
-2.30432
4.27071
-1.96639
3.73396
-2.87829
-0.855666
2.92106
0.0797481
-3.00081
-1.73951
-3.04138
-1.22645
-0.335295
1.85996
2.68155
-0.027493
0.494842
-0.467349
-2.61426
-0.762653
2.47815
2.39343
-2.08341
2.69352
-0.610107
-0.608336
0.731355
0.175958
1.25779
-1.43375
0.46108
-0.977879
-0.366195
-3.58149
-4.68898
1.22123
-0.0128305
-1.27019
-0.496324
0.342807
2.70794
-3.05075
-1.97727
-0.195234
2.62233
2.03281
0.312034
-1.07805
0.0753402
0.230856
-0.306197
0.418124
-1.59397
1.17585
3.32359
-1.50729
2.25495
3.47694
-1.56456
3.58719
-2.36331
-0.577234
-1.01781
1.59505
2.79995
0.515784
-0.133935
-2.83197
1.85971
2.74466
-2.91134
-1.42028
-2.48289
3.90317
-2.05101
-2.06886
-3.19131
3.19472
-0.00341288
1.62815
-1.04893
0.607531
2.35704
1.1199
-2.0479
1.63195
0.415947
-1.12172
-2.24024
-2.73152
-1.53686
4.26838
4.07085
-0.637242
1.25546
-0.726518
2.38647
-3.82634
1.45229
-1.3858
-1.95234
2.50342
-0.551082
2.06743
1.93314
1.45477
-3.38791
3.77457
-2.14155
-1.63302
-2.31017
-3.00405
3.69199
-0.687939
2.15079
-0.491503
-1.20841
1.20344
1.62137
3.02209
-0.936793
0.831824
0.115472
-0.0591694
3.59963
-2.01648
3.1307
4.17657
-1.76117
1.02125
0.739916
0.829028
-1.32641
2.72106
-0.0349224
2.45208
1.79494
-2.38376
-0.273985
2.65775
0.837419
-0.0543188
-0.783101
0.793948
0.133809
0.563275
-4.04459
-1.17766
1.26082
2.48205
-2.34752
-0.134527
0.627698
1.59082
-0.715862
0.324531
0.996345
1.04235
-2.03869
-1.20939
3.68582
-0.342275
-1.37117
3.90713
-2.53596
-0.675288
1.19829
0.224398
-0.547419
4.05002
-2.05751
-1.38068
2.36131
-0.7633
1.24792
-1.27348
-0.75138
0.649625
-1.22164
-0.672854
-0.059678
0.432159
-0.721296
3.07757
-2.35628
0.162169
-0.141762
-0.863485
0.452282
-1.46862
0.242178
-4.15862
2.62379
0.94078
1.03661
-2.91391
2.02074
0.893173
0.447662
0.484443
2.97181
2.06806
-5.03987
-0.566731
-0.030851
0.597582
-0.945241
-2.59556
3.38253
1.52262
2.93126
-2.58846
-3.81912
-0.181093
0.0351579
-2.35995
1.63563
2.6534
-0.0762595
-2.57715
1.52945
-0.102896
-0.070869
-1.23787
-0.523298
-2.43057
-1.34511
1.51917
0.25907
3.46726
2.03647
-1.90003
-0.136439
0.8138
0.0339787
-0.309937
1.08629
-0.115557
3.12554
0.781072
-3.90661
0.982605
0.120012
-1.00413
0.634093
0.370039
-1.45189
0.0374708
1.41442
0.829139
1.76358
-2.59272
0.999284
1.17788
2.47903
-0.039599
-1.14673
1.45271
0.573545
-0.458103
0.275518
0.182585
-4.57458
2.16693
3.15757
-2.43551
-0.722061
0.0674521
-0.664881
0.597429
3.39761
-3.63221
3.03432
1.03653
1.27535
1.32041
-0.670681
-0.00217316
-0.622551
0.131439
0.491112
-1.71472
-0.578481
3.99576
-2.04894
-1.94682
3.38352
-2.09826
-1.28526
1.67068
-2.91671
1.24603
-0.30785
2.199
-0.0346667
-1.11603
3.08507
-1.96904
-0.460914
-0.161637
-2.24969
0.795514
0.224276
3.25227
0.02246
-3.27473
-1.54914
-0.0723865
0.376486
0.116014
-0.017371
1.14531
0.639012
-0.479267
1.63134
-0.0143404
-0.123049
-0.151137
0.495576
-1.59833
1.94971
0.0721872
0.98383
0.455366
-0.96242
3.39139
0.0322381
2.00423
-0.70483
-0.594224
-1.03383
2.03017
-0.451821
2.95462
-2.5028
-2.91728
-0.474779
-2.14653
3.86512
-1.7186
-0.284062
1.07958
1.27652
-0.272874
-0.0869316
-0.976767
1.0637
-3.12383
1.06632
0.679521
-0.642725
2.93228
-6.22381
1.76073
-4.34155
-2.43923
3.64111
-0.88347
2.0942
-1.05185
0.0585446
-2.08853
2.43397
0.00505922
-0.677711
0.16297
-1.69681
-0.569834
-2.13371
2.70354
-1.33054
1.42987
5.68833
-3.6499
-2.03843
-0.9519
0.376108
0.951862
0.0932453
-1.04511
-2.99999
0.740787
0.927709
-0.0596798
-0.0195982
-0.60047
0.620068
1.95065
-4.09718
0.362903
1.63749
0.368509
-2.006
-3.32177
2.86995
0.639505
0.16713
-0.806635
1.84389
-4.39414
-0.660159
0.0130874
0.647071
0.83364
-0.194135
0.0289188
2.77635
-1.87398
2.13118
2.03363
-1.03435
-3.22633
1.08147
-2.3484
2.13586
0.212538
2.32191
-3.74218
-1.92979
-1.27016
3.19996
0.361423
1.65101
-1.20554
0.977968
3.73663
-0.509263
-3.22737
0.0130266
-3.64764
2.57553
0.34553
2.328
1.39839
-0.71755
0.00847073
0.678326
-1.18185
-1.34
0.143218
-0.180514
0.0372951
0.137117
-2.73548
2.59836
-0.135275
1.09499
-0.959718
1.53272
-4.02246
2.48974
-0.0547556
-2.0366
-0.0826927
0.0588612
2.36874
-1.3036
-0.846809
2.15041
-1.58394
-1.45155
1.80426
-1.0007
0.824343
0.30945
-1.13379
-1.47325
-1.44065
-4.18955
-0.33161
-0.440368
0.771978
0.585126
1.29948
-1.8846
3.79475
-3.66128
-0.133469
0.445278
-2.19088
0.576544
-4.17662
-5.12356
-1.24537
6.36893
-3.37635
0.137313
3.23904
-4.25582
-2.86386
0.243583
-1.09178
1.13886
-0.0470857
-4.45483
-1.29947
4.42501
1.49849
-0.804051
0.307957
-1.34178
-0.714578
1.89245
0.668998
0.529811
-1.61543
0.076383
-0.647367
0.570984
-0.469813
-0.190751
-0.465377
0.532829
-1.10198
2.13587
-4.32548
2.45815
1.86733
-0.133427
-0.906208
1.61543
0.931647
-0.094227
-0.358432
-1.68947
-1.79526
-1.13176
-2.17035
0.826827
1.34352
-0.0952427
0.816626
-0.721383
-1.62476
2.04289
-0.50746
2.80435
2.69774
-1.59831
1.91996
-3.5039
1.62558
-1.80839
0.182816
0.583771
-0.0713418
0.149156
-0.000976802
-3.98458
2.52581
2.26296
1.12056
0.0629293
-0.821328
0.758399
-4.39549
1.48045
-0.117291
-0.868497
-0.804883
-0.0453956
-0.931589
0.976985
-2.23532
0.931722
-3.75041
3.38422
4.21196
-1.86808
-0.937559
0.842957
0.0946019
-0.15998
0.00271544
-0.679757
-2.05555
2.44265
-0.387101
-0.667355
0.636504
-0.391759
1.29381
-0.902054
3.58667
-0.552351
0.218993
-0.173754
-0.0452395
-1.0348
1.10699
0.0762789
0.102421
3.31378
-4.04239
3.64416
0.233286
-1.20382
-1.62984
3.32076
-0.167482
-3.15328
-0.873556
-0.00410477
0.877661
0.363309
-6.52267
-2.37189
2.08973
0.282162
-0.0629467
-0.101426
0.164373
-3.26125
3.32695
-0.0656988
-1.2641
1.64407
0.59392
2.33957
4.26185
-1.55986
-2.702
0.23072
-0.158859
-0.0718616
-0.445
-1.24983
-0.0993997
-1.2375
-0.0123371
0.44534
-1.18136
0.736015
-0.352064
3.35955
-3.00749
-3.4955
1.06095
2.43456
1.13515
3.19607
0.0450849
0.398335
-0.44342
2.10353
1.04985
-3.15338
0.0482459
-0.164507
-5.11796
4.32623
0.791724
-2.66983
0.286072
2.22401
1.13819
-3.06798
-0.0067733
-0.501905
0.508679
3.3451
-1.01811
-2.32699
1.41775
0.866476
-6.56429
5.59743
3.2582
-3.60416
-1.75828
0.126397
1.63188
-0.145356
0.303288
0.53254
-0.835828
0.135444
0.00569893
-0.141143
-0.0339711
0.571992
-0.538021
0.582426
-0.707466
0.12504
-2.18823
4.5747
-1.26576
1.11599
0.49936
-0.89112
1.488
-2.16887
0.680867
-2.09122
-1.58764
-0.281372
-0.0834995
-0.0944448
-0.00611248
0.100557
4.13338
-4.42873
0.295357
0.185347
2.2967
-0.995616
-0.49632
-2.29598
0.524682
1.5717
0.967463
-2.53916
-0.0155141
-0.0815824
0.0970964
-0.107093
1.37765
0.107406
-0.0678573
-0.039549
4.28739
-2.18372
-2.10367
-4.25744
0.741398
0.415284
-3.06235
0.532425
2.52992
2.29801
-2.47298
-0.860276
0.31851
0.128473
0.0206832
-1.5369
3.54381
-2.00691
0.675125
0.090462
-0.492103
0.464803
-0.999145
1.02566
-0.627396
0.922382
-1.5296
1.92522
-0.395624
2.88351
-1.86966
-1.01384
1.62827
1.69532
1.04245
0.185635
-0.922326
0.762637
-0.4277
-1.24578
-0.424422
-2.60848
-2.92258
1.80655
-0.303785
0.527185
0.577734
0.255906
0.00910547
-0.0720521
2.99596
-3.10143
0.10547
4.81715
-1.7191
0.999991
0.719109
0.519204
-1.44051
-2.03578
-3.24094
-1.01925
0.964932
-0.734335
-1.0356
1.76994
-3.01227
0.815593
0.743971
0.863258
-1.60723
1.35392
0.818118
-0.830077
-1.71472
4.19648
-0.714306
-3.02004
1.078
-2.06036
0.982366
-1.01254
1.32458
-1.91576
-2.47973
-0.400879
-0.289563
2.49307
-3.7929
-0.19777
3.99067
-0.0398295
-1.25682
0.0537692
-1.34687
1.2931
-3.2941
-1.82559
-0.701553
0.714641
2.54907
1.15561
-4.4615
5.13718
-2.97197
-0.786634
3.20018
-0.213885