/*--------------------------------*- C++ -*----------------------------------*\
| =========                 |                                                 |
| \\      /  F ield         | OpenFOAM: The Open Source CFD Toolbox           |
|  \\    /   O peration     | Version:  2306                                  |
|   \\  /    A nd           | Website:  www.openfoam.com                      |
|    \\/     M anipulation  |                                                 |
\*---------------------------------------------------------------------------*/
FoamFile
{
    version     2.0;
    format      ascii;
    arch        "LSB;label=32;scalar=64";
    class       volVectorField;
    location    "6";
    object      U;
}
// * * * * * * * * * * * * * * * * * * * * * * * * * * * * * * * * * * * * * //

dimensions      [0 1 -1 0 0 0 0];

internalField   nonuniform List<vector> 
13486
(
(6.87735 -1.78496 4.34904e-20)
(7.1633 -0.0258414 2.44514e-20)
(8.28226 -0.410215 0)
(-2.90552 0.0401024 3.55261e-20)
(10.6156 -2.64513 3.04515e-20)
(8.92272 0.419416 -1.25098e-20)
(12.248 -2.48474 7.62073e-22)
(9.0208 -3.40775 -3.29871e-20)
(8.76719 -2.09712 0)
(7.50638 1.31799 0)
(-0.606886 6.59974 1.02197e-20)
(9.69962 1.00637 0)
(6.50877 -2.48067 -4.19826e-20)
(8.55098 1.69404 -1.6974e-20)
(11.6307 -1.67824 1.80603e-20)
(7.39916 1.35339 -2.61627e-20)
(1.10933 -0.517365 -1.14539e-20)
(2.78149 3.80573 -5.19248e-20)
(8.83706 0.314077 6.25332e-22)
(7.30951 -1.11254 -4.72863e-20)
(-2.96077 -4.54486 1.13518e-20)
(6.55993 -2.5184 5.40871e-20)
(7.21048 -0.0330165 -1.95872e-20)
(14.2534 -0.240012 0)
(7.82327 1.09613 1.02618e-20)
(14.4489 -0.531041 2.94367e-21)
(1.55734 -0.647786 -1.28339e-20)
(10.4381 -0.164603 -4.42532e-20)
(-0.108641 -2.45724 0)
(10.5107 -0.880519 2.98617e-20)
(-7.11891 -6.87096 4.18499e-21)
(12.1153 0.360882 -2.45938e-20)
(11.2467 0.818861 -1.74558e-20)
(9.51511 -0.471392 0)
(9.08486 -3.30485 0)
(8.49654 0.695571 -2.76559e-20)
(6.74026 -3.02069 6.572e-20)
(7.39357 -3.47418 2.53249e-20)
(9.48483 -0.697654 1.0976e-20)
(8.75958 -1.40003 2.82986e-20)
(10.7168 -3.81969 0)
(5.83701 -2.81847 -4.80663e-20)
(10.2069 -0.105649 0)
(7.85847 0.928419 -4.78852e-20)
(7.87478 0.940625 1.97555e-20)
(9.46301 0.928892 2.70832e-20)
(-1.63908 -1.54321 -2.36957e-20)
(2.20612 -0.781216 -4.59592e-20)
(6.31811 -2.66856 -5.02749e-20)
(9.98031 0.244907 -2.31657e-20)
(7.97809 0.0425977 3.73011e-20)
(8.69822 -0.327259 0)
(9.9948 2.14117 -4.1706e-20)
(7.71978 -3.01736 -3.63358e-20)
(-1.95824 2.95611 0)
(10.5021 -2.66183 -1.89446e-20)
(10.5822 -5.02533 -1.78987e-20)
(9.31854 -0.428148 4.24361e-20)
(11.1129 0.892092 -2.27626e-20)
(7.79841 -3.6516 0)
(-1.47285 7.89216 6.4652e-21)
(7.74462 -4.14659 0)
(10.4333 1.71603 1.38253e-20)
(-3.57126 -4.33534 1.53606e-22)
(3.32009 -5.47111 0)
(6.23937 -3.55385 3.19374e-20)
(-3.70811 0.598702 2.97127e-20)
(6.68271 -0.951628 1.47e-20)
(8.78362 -2.19321 -1.59982e-20)
(7.01656 -0.0836304 -2.31436e-20)
(-3.54521 0.69989 -3.4309e-20)
(-3.15044 2.87179 -1.75821e-21)
(8.53482 -0.87376 2.10183e-20)
(-1.68981 -0.0244885 9.71636e-21)
(6.2963 -4.20986 6.45763e-21)
(10.7237 -5.89647 4.04737e-21)
(6.67044 -3.82483 -2.0771e-20)
(11.6578 -1.82181 -7.35825e-21)
(-1.13142 -1.20252 1.29468e-20)
(8.40793 -1.18433 0)
(11.2804 3.42566 1.6199e-20)
(6.93354 0.145141 -1.55946e-21)
(10.3264 1.53646 -3.23952e-22)
(8.50494 -0.283816 -9.47458e-21)
(6.88275 -1.80935 -8.47487e-20)
(5.72718 2.84114 0)
(6.73549 2.15473 3.1306e-20)
(7.98414 0.0845211 -5.926e-20)
(7.63502 0.0691265 -2.29275e-20)
(6.91005 1.82011 -3.37496e-20)
(12.0251 1.96353 -1.51419e-20)
(9.5702 -2.99839 -1.89993e-20)
(7.12115 -2.10382 1.14779e-20)
(7.28167 -0.627023 1.26688e-21)
(8.46988 -2.85221 6.37454e-21)
(-4.11449 0.401954 3.33632e-20)
(1.34794 -0.802609 0)
(-6.58413 1.34379 -9.38527e-21)
(8.77873 -1.36078 -5.41032e-20)
(1.3362 -0.656405 -1.98082e-23)
(12.3022 0.631533 0)
(8.48722 1.68311 -6.7383e-21)
(-6.99833 0.614346 1.79854e-21)
(8.7959 -0.458044 -5.01161e-20)
(5.34439 2.55178 0)
(1.46035 -0.657542 -3.18469e-23)
(7.97576 -0.103684 6.28976e-24)
(9.71305 -0.621927 2.48484e-20)
(-1.04532 -1.27203 -1.59887e-20)
(9.14586 -4.20958 0)
(7.61897 -3.58465 0)
(13.4625 -0.778956 -2.16895e-20)
(7.74166 -2.94512 1.04685e-22)
(14.2097 -3.71712 1.08907e-21)
(5.71219 -1.47373 0)
(7.47985 -3.52588 -2.50018e-20)
(7.72609 1.1639 0)
(9.87861 -0.435533 0)
(8.52789 -0.859636 0)
(6.2598 -1.8831 3.64779e-20)
(3.876 5.90692 1.55139e-20)
(-2.67958 7.65143 0)
(8.33579 -2.65125 0)
(9.45599 -0.427525 -3.45337e-20)
(8.63696 -3.21584 0)
(9.03323 -0.425649 0)
(9.91471 -1.27532 7.53682e-22)
(8.37307 0.194925 3.08456e-20)
(9.3193 -0.339744 9.10076e-21)
(4.83547 -5.81087 -2.17965e-21)
(8.50282 -0.280142 5.72638e-21)
(-2.02118 -2.024 6.12204e-21)
(3.73861 0.463809 -1.55341e-20)
(-1.09785 0.367963 -1.44262e-20)
(7.99657 0.0186082 -5.92519e-21)
(7.54738 0.633346 -3.03769e-20)
(4.22265 0.438145 -1.18742e-20)
(8.80947 -3.97031 0)
(5.35168 -1.54426 -1.15832e-20)
(9.16175 -2.8609 -1.13998e-20)
(10.5509 0.729063 2.5362e-20)
(10.212 2.34721 3.5515e-20)
(11.1018 1.10541 0)
(7.64132 -0.854065 0)
(10.9285 -0.0515749 4.60838e-21)
(10.8477 2.9416 2.22736e-20)
(7.42476 2.61326 -1.54055e-20)
(2.55507 1.43536 0)
(10.0327 0.371733 0)
(4.58078 -3.91601 0)
(8.00809 0.0404719 8.0157e-22)
(11.44 -2.26882 0)
(12.6669 3.21262 -1.69538e-20)
(6.85308 0.12078 -1.30561e-20)
(8.26854 0.688316 0)
(9.27507 -0.566761 0)
(8.9075 -3.98575 0)
(4.65328 -5.91583 -1.57722e-20)
(8.10698 -3.32412 5.59137e-20)
(6.07643 -6.14482 2.88988e-20)
(9.31039 0.166473 -1.97859e-20)
(8.13373 -3.25652 -8.43924e-20)
(14.4582 2.81341 3.7924e-21)
(5.1543 -2.62818 2.13149e-20)
(9.08128 -0.412588 0)
(8.82385 1.76275 1.94323e-20)
(8.39975 1.5205 4.1691e-20)
(4.00597 -1.76239 -4.61282e-20)
(7.83569 2.38791 4.033e-20)
(-1.11032 0.44079 -3.93615e-21)
(-1.58082 1.64071 4.33861e-22)
(8.26745 0.608402 2.23802e-20)
(8.01128 0.141885 -5.56783e-20)
(10.5916 -0.662724 1.40683e-21)
(10.125 7.30952 1.3438e-20)
(-6.00058 2.10992 0)
(8.32126 2.44883 -3.29591e-20)
(10.5427 1.06758 -3.13467e-20)
(8.00952 -0.128047 -5.49148e-20)
(10.8164 1.11313 0)
(9.01204 -1.57513 5.94307e-20)
(14.7495 -3.03666 1.87676e-21)
(10.9726 -0.156216 -2.55479e-22)
(-2.75627 2.26395 0)
(7.35563 0.655683 2.25275e-20)
(9.90387 -0.121038 2.03156e-20)
(9.62814 0.637383 -3.77267e-21)
(10.1665 -0.667818 1.05469e-20)
(10.5634 -4.02391 0)
(6.892 -3.32225 -3.2202e-20)
(5.99037 -2.60927 0)
(9.23659 -0.437958 0)
(8.99959 -0.440528 0)
(5.80246 1.12818 -2.72514e-20)
(9.52366 -0.410553 0)
(-1.96075 6.13004 2.59053e-21)
(3.67773 -5.98411 2.88064e-21)
(9.30287 0.0969126 -1.03853e-20)
(6.60258 -3.24106 -1.07124e-20)
(8.76649 1.63128 1.41892e-20)
(-7.75719 -6.64373 -1.36756e-21)
(8.36719 0.241895 -9.85095e-22)
(7.29213 -3.5055 -2.93467e-20)
(9.82061 -4.06577 1.16436e-20)
(7.43461 -7.00375 -3.51077e-20)
(9.09106 -0.455118 2.71719e-20)
(-2.68205 -1.87911 -2.94072e-20)
(8.13548 -0.683821 4.10678e-20)
(9.73712 -0.512159 0)
(7.66965 0.446292 0)
(10.2748 -0.262416 -3.47042e-20)
(14.0136 -3.04851 -8.98769e-22)
(7.35536 -1.01202 4.34658e-20)
(7.9771 -0.0735429 1.291e-23)
(8.99369 0.508252 1.44266e-20)
(9.09646 -1.66344 -7.53301e-21)
(10.6445 -0.65627 0)
(7.02059 1.81338 7.58141e-20)
(7.41147 -2.13698 0)
(10.0444 1.96233 0)
(1.33883 -0.572009 2.18527e-20)
(9.95906 0.435291 0)
(9.10291 -2.84066 2.69179e-20)
(10.3427 0.217141 0)
(9.28955 2.65995 -8.44195e-21)
(6.54902 -3.10391 1.60197e-20)
(9.15711 0.940704 1.51107e-21)
(-7.6992 -3.27083 1.21856e-21)
(9.53566 -1.21527 3.46995e-22)
(6.7999 2.40383 -1.36709e-22)
(9.03493 -1.54321 -1.90694e-20)
(8.74957 -2.00969 -2.36368e-20)
(10.6567 0.786575 -3.22011e-20)
(5.79794 -2.82125 1.62634e-20)
(-5.6816 -2.63869 0)
(6.08022 -2.96948 1.95027e-21)
(9.90044 -0.678736 -2.14716e-20)
(9.23448 -0.463595 -7.85117e-21)
(6.1932 -2.97013 5.3129e-20)
(10.4898 0.07921 0)
(11.3551 0.978254 0)
(7.96682 0.130971 8.60263e-20)
(13.1202 -1.61077 0)
(5.84808 -2.90463 1.82864e-20)
(9.62733 -0.397645 2.42161e-20)
(7.66976 -0.466173 0)
(10.0659 0.18026 -6.9172e-21)
(11.9555 -0.895313 -2.66749e-20)
(-0.493317 -0.173904 -2.39561e-20)
(7.80311 0.846554 0)
(-7.1726 4.24473 2.09453e-21)
(5.60633 -1.39183 5.78328e-21)
(6.96856 -3.40541 3.27195e-20)
(9.5206 -0.268277 0)
(8.86823 -1.11352 -1.52433e-20)
(-4.89398 3.17907 1.84294e-21)
(12.27 0.435285 2.04321e-20)
(9.81512 -1.93649 9.51904e-21)
(5.02505 -5.62783 1.65184e-20)
(11.5121 0.832215 -1.27263e-20)
(7.42801 -0.0277644 0)
(10.1621 -0.52763 1.36817e-22)
(11.6903 -1.63945 -4.14946e-20)
(-5.68321 2.94267 -2.30098e-21)
(9.96643 -3.46274 -2.91287e-20)
(-2.55322 2.55709 0)
(9.09449 -1.14795 2.51932e-20)
(-6.41491 -5.6343 8.10775e-21)
(8.63186 -0.13462 -2.58623e-20)
(6.99891 7.54424 0)
(6.39083 1.35781 2.35278e-20)
(7.95922 -0.0375853 -1.51618e-20)
(10.5162 -0.839081 0)
(9.41354 1.60656 2.44995e-20)
(6.75851 -3.21986 2.15052e-20)
(11.7018 -1.34351 1.4821e-20)
(8.85665 -0.709159 0)
(-6.99086 -5.16786 0)
(9.45829 -0.289091 2.48537e-20)
(7.5309 2.51821 2.95621e-20)
(-7.33518 -5.40232 -1.4249e-20)
(9.39679 -1.01363 -2.31624e-20)
(7.92888 -0.124877 3.22945e-20)
(8.70823 2.4822 2.72026e-21)
(-3.40468 7.13731 -8.3494e-21)
(1.44908 -1.08942 -2.18819e-20)
(10.3944 0.877273 -3.06136e-20)
(8.87191 -0.38448 -1.19671e-20)
(9.8454 2.77039 1.46596e-20)
(8.50111 -0.144053 0)
(-5.83824 -2.72837 0)
(9.54108 -1.92872 -2.49076e-20)
(7.40683 -3.49018 2.40203e-20)
(7.99457 0.0266295 -5.7751e-21)
(9.62172 -0.544807 -2.22957e-20)
(10.043 -0.679099 0)
(9.66545 -0.0425498 2.50424e-20)
(9.14731 1.42423 -2.22742e-20)
(7.93215 -0.1995 -2.93339e-20)
(11.2774 -3.15535 2.3164e-20)
(14.3133 3.58338 -4.46317e-21)
(-3.87636 -2.30992 -1.95073e-21)
(7.87871 2.60081 -2.51926e-20)
(12.1935 0.129978 2.36597e-20)
(6.04602 -1.95661 -1.24903e-20)
(8.47876 -4.17557 0)
(-1.50597 0.143995 0)
(9.28117 0.0878812 1.31709e-20)
(6.73558 2.02432 -2.59441e-20)
(6.33123 -2.85683 0)
(7.39507 4.80773 3.18806e-20)
(-1.94332 0.0229405 0)
(8.05148 2.33379 1.8068e-20)
(13.3621 -0.736199 -2.09219e-20)
(4.77971 6.31707 0)
(7.51028 0.518403 -1.89485e-20)
(12.4983 -4.1377 3.6523e-20)
(7.6232 0.0448416 -1.92769e-21)
(8.09987 -0.663157 -4.55096e-20)
(9.16851 -1.19905 0)
(6.74042 -3.20666 -5.74124e-20)
(9.57197 -1.22113 5.13766e-22)
(8.02331 -0.033684 6.96414e-21)
(7.20273 -0.50675 -2.39736e-20)
(4.557 0.142266 2.17462e-20)
(12.2546 1.61836 3.08191e-20)
(10.2859 -1.80227 -7.77967e-20)
(9.47269 -0.996913 0)
(8.20704 1.34048 -3.18737e-23)
(10.4585 -1.85826 -1.57066e-20)
(7.99147 0.0288153 8.56318e-20)
(9.69551 -3.03594 0)
(12.3805 2.4742 -6.53847e-21)
(6.50175 -0.00142097 0)
(12.3239 -2.94175 -4.9003e-20)
(8.73445 -2.68451 -1.82101e-20)
(4.78661 -2.3473 1.87514e-20)
(11.331 -2.37065 -2.89066e-20)
(7.95355 0.333737 0)
(9.92039 -0.582093 3.97759e-20)
(9.10214 -1.1646 -2.45645e-20)
(7.21822 -0.4892 2.26704e-20)
(10.5423 -1.86416 5.89556e-20)
(10.8758 -0.155483 3.2603e-20)
(-4.68993 4.72127 8.39252e-21)
(2.31727 -1.99523 -1.27784e-20)
(9.99641 -0.821394 0)
(5.62633 -2.31742 4.548e-20)
(10.0621 1.91544 0)
(12.4303 -3.11948 1.97797e-22)
(9.70551 -0.363154 4.50783e-20)
(8.65063 1.54925 -2.71375e-20)
(9.42266 1.59089 2.11429e-20)
(1.32874 -0.780285 1.44209e-20)
(7.94623 -0.173069 3.65553e-20)
(5.99691 0.915735 0)
(-1.4036 -0.139647 8.38549e-21)
(9.92747 -1.26345 -1.5203e-20)
(6.50981 1.76892 1.52831e-20)
(13.0228 -3.3779 -5.40969e-21)
(10.081 0.28925 0)
(11.7151 2.48025 2.27192e-20)
(7.54707 -0.219036 5.36462e-20)
(7.95459 -0.0447062 4.61238e-20)
(10.5174 -1.02696 0)
(14.0979 2.84979 -2.5405e-21)
(9.81238 -0.587658 2.01659e-20)
(-2.46787 -2.70289 -3.14963e-21)
(7.25537 -1.1018 5.99763e-21)
(9.87189 -1.09158 1.45007e-20)
(10.4758 0.00305006 -2.30351e-21)
(9.97866 -0.79304 0)
(8.98595 2.68168 -3.48158e-20)
(-6.65746 5.03907 -1.52133e-21)
(8.73497 0.965516 -2.59678e-20)
(7.98744 0.0334829 3.11481e-20)
(6.46821 0.0170808 0)
(10.1304 -1.36306 4.88446e-20)
(4.51836 6.68335 0)
(10.4558 2.86466 9.21628e-21)
(8.71404 -0.177152 0)
(9.64758 -3.37989 -2.03064e-22)
(6.56479 -1.51221 -1.16404e-20)
(6.58256 1.15578 5.37364e-20)
(-2.6001 -1.39375 1.31241e-20)
(9.09357 -0.939536 0)
(8.65313 0.141956 -3.49832e-20)
(7.98551 0.344649 -2.47556e-20)
(1.31177 -0.717517 7.3988e-21)
(-3.22479 -6.58603 -1.04203e-21)
(7.44662 -1.05898 -6.66953e-20)
(10.5747 -0.652777 -1.21299e-20)
(8.1241 0.378788 2.13759e-20)
(7.12678 -2.55768 0)
(6.36069 -0.296615 2.39454e-20)
(5.66497 -1.27656 3.61149e-20)
(-2.93973 0.227281 -2.04088e-20)
(-7.04258 4.39441 5.31732e-21)
(1.69047 -0.617342 1.39407e-20)
(10.4403 0.890094 0)
(1.56708 -0.729415 0)
(7.32993 2.37288 0)
(9.17587 -0.491541 0)
(2.22945 -2.62292 1.11988e-20)
(12.4304 -2.6144 0)
(7.18429 3.14045 0)
(7.31352 -0.54118 9.47643e-21)
(10.6506 1.08026 3.22085e-20)
(9.82558 -0.784577 -3.45159e-20)
(7.19455 0.115966 8.69817e-20)
(8.00061 0.071768 -1.26782e-20)
(7.57301 3.90579 0)
(10.653 -0.322933 0)
(7.91428 -0.199237 3.11595e-20)
(8.08013 0.0415899 5.57575e-21)
(5.32907 1.00181 0)
(-3.13496 2.34845 -1.00514e-20)
(9.96077 -3.54178 3.26748e-20)
(-1.60265 0.197877 0)
(10.4337 0.115107 3.13979e-20)
(8.01863 -0.0750154 -3.67044e-20)
(11.4292 -3.11027 1.14737e-20)
(5.60209 -2.27531 0)
(7.98022 0.359262 4.33492e-20)
(9.31769 0.613328 0)
(10.0046 -0.663611 0)
(8.38105 0.429344 -4.56029e-21)
(7.8972 -0.116683 1.70548e-20)
(1.4012 -0.687155 1.68051e-20)
(8.35921 1.45638 1.28326e-20)
(6.71486 -2.22344 -2.09131e-20)
(9.00564 -0.446841 3.90191e-21)
(8.15491 0.418045 1.7453e-20)
(9.48469 2.87648 9.35489e-20)
(10.3446 -3.49414 0)
(11.8104 -0.5445 -1.49179e-20)
(6.53866 -1.31475 0)
(9.38955 -1.45241 -2.38762e-20)
(10.52 -0.673446 0)
(6.72916 -0.905492 3.19157e-20)
(-1.22564 -0.844793 1.92166e-20)
(10.7602 -0.528842 0)
(-0.740983 0.317646 -6.49655e-22)
(10.8377 -0.367907 2.47065e-20)
(8.4325 2.36621 3.60531e-20)
(8.09247 -1.69687 6.6649e-20)
(6.14535 1.02928 -3.241e-20)
(6.67498 -2.2007 -5.88381e-20)
(10.6212 2.7774 0)
(5.68636 -2.09651 -3.4386e-20)
(-4.59678 5.05193 1.76608e-20)
(7.95956 0.347505 0)
(7.58311 0.0598353 2.11197e-21)
(9.63537 0.142474 4.85101e-21)
(8.91895 2.63287 0)
(7.99661 -0.00361972 0)
(-5.6528 3.06369 0)
(-5.2439 1.35732 1.02152e-20)
(8.50572 3.14811 -3.22167e-21)
(9.52172 3.26783 -8.55005e-22)
(8.04184 2.19916 0)
(7.76676 -1.4147 4.39156e-20)
(9.89755 6.90407 -3.21548e-20)
(8.37292 1.34448 -3.2025e-20)
(-2.98015 -2.88133 -3.04071e-20)
(7.75359 0.0508059 0)
(3.53685 1.78153 0)
(4.81446 -1.68501 -2.91783e-20)
(7.05131 -2.54066 -1.52005e-20)
(8.6859 -1.14872 0)
(8.29845 -3.86978 -2.81062e-20)
(9.56577 0.69701 1.72526e-20)
(-10.2541 3.33539 -5.27197e-20)
(5.18197 -2.5021 0)
(9.01862 -0.563423 -2.12461e-20)
(6.09717 -1.23402 -3.42593e-20)
(9.37569 0.606915 -2.6977e-20)
(8.68216 -2.78655 0)
(1.32694 -1.06093 3.30718e-20)
(9.00577 1.51103 2.43259e-20)
(7.97398 0.196491 8.45978e-21)
(6.03213 0.354051 -2.47288e-20)
(8.98116 1.75001 0)
(7.19013 0.094991 -2.32823e-20)
(9.96148 1.5673 1.29707e-20)
(1.61495 -0.516248 -2.99189e-21)
(7.98611 0.0913258 0)
(-3.42781 -6.5077 1.06915e-21)
(4.03501 -1.57922 0)
(7.95996 0.114837 -3.47416e-20)
(7.96721 0.0671519 1.24712e-20)
(7.91962 -0.38621 -5.9993e-21)
(-5.29888 1.97698 0)
(7.93525 -0.164626 -1.44542e-20)
(5.50529 -0.0923221 6.16051e-20)
(10.1559 -3.44146 0)
(7.26372 -0.61815 2.86016e-20)
(11.3667 -3.20734 -2.6661e-20)
(8.62061 0.0235119 0)
(-7.16513 -5.29464 -2.69997e-21)
(8.63664 -0.760293 3.68095e-20)
(10.5585 -0.00671991 0)
(1.40152 -0.808358 -2.14369e-20)
(7.56935 0.0214743 0)
(8.21046 -3.76046 2.45897e-20)
(-7.28321 4.05605 -2.11263e-21)
(8.62563 1.09503 3.7772e-21)
(9.03834 0.408324 2.50549e-20)
(6.37208 -0.346441 1.25093e-20)
(8.11513 -1.80687 -2.46449e-20)
(8.79138 -0.726284 1.39381e-20)
(8.32251 -3.72365 8.45328e-23)
(9.83196 -1.09956 1.36698e-20)
(8.92899 1.72235 -3.63277e-20)
(9.66073 -4.37769 0)
(7.99874 0.0285295 -2.76301e-20)
(1.63221 0.610012 7.58194e-21)
(6.61782 -1.33325 0)
(4.19239 -2.49879 1.21253e-20)
(6.26863 0.0245255 0)
(6.33435 -2.28694 5.0413e-20)
(9.48421 -3.61751 0)
(10.9844 -0.583542 4.71926e-20)
(9.95063 -0.335637 -2.58419e-20)
(-8.86748 -5.00363 -2.48512e-21)
(-6.07326 3.2391 -1.08396e-20)
(10.1124 0.245686 -3.223e-22)
(8.42808 -4.02623 3.12825e-20)
(8.29465 -2.65579 2.48427e-20)
(7.12092 -2.1132 0)
(0.190588 0.184993 7.81805e-21)
(10.4471 -3.33283 -6.55407e-21)
(0.53275 0.143883 9.03439e-21)
(-7.26845 -2.68465 4.67262e-20)
(7.12048 -2.92527 0)
(8.83795 0.00086655 -3.29543e-22)
(-2.99497 2.68723 0)
(-6.62403 0.936891 1.94764e-21)
(10.948 -2.81988 -1.28069e-20)
(6.32995 -5.64095 0)
(9.44052 -2.671 8.8656e-21)
(3.01513 -5.78078 0)
(8.95552 2.54305 0)
(7.82132 -3.72666 -3.22413e-20)
(6.57456 -0.114955 2.04463e-20)
(1.69899 0.0326529 0)
(7.53405 -0.138101 -1.49513e-20)
(9.73555 2.9317 -2.50526e-20)
(-6.24043 5.29259 -5.43264e-21)
(8.91968 3.44447 0)
(8.56915 -0.031162 0)
(-4.17594 5.38618 7.63116e-21)
(8.25822 -0.954097 0)
(7.98436 -0.0115561 0)
(-2.68593 7.6889 -4.7907e-22)
(9.3796 -2.01046 -4.09851e-20)
(8.11916 -2.30964 2.07106e-20)
(11.6932 0.822274 -1.76617e-21)
(0.151673 0.2946 -1.62775e-20)
(7.96594 0.0522397 1.41056e-20)
(7.26775 -2.1837 0)
(8.136 0.990692 -1.02508e-20)
(6.83786 -1.70979 0)
(7.11617 -0.0817264 0)
(8.00327 0.229508 0)
(8.40209 0.410872 -3.76722e-21)
(8.07313 -0.688233 2.07846e-20)
(13.025 -0.399237 -7.78688e-21)
(7.41186 -2.21039 0)
(1.48304 -0.693717 1.19043e-20)
(7.3021 2.24577 2.1699e-20)
(8.63016 -3.24413 2.63106e-21)
(9.19009 -0.580281 2.13891e-20)
(11.6496 -1.14253 -2.95643e-20)
(8.11685 0.0432846 -2.13527e-20)
(-1.18933 -0.829154 0)
(9.2855 1.45008 0)
(5.96697 1.13758 0)
(6.364 -2.9425 -3.75531e-20)
(-6.17681 -7.18648 -6.10321e-21)
(7.67433 -4.68984 0)
(8.17031 0.993364 0)
(9.96465 2.84476 2.99294e-20)
(8.33896 -0.108199 -6.20586e-21)
(7.41255 1.07954 3.46057e-20)
(10.0211 -4.07638 0)
(-0.943511 2.58862 4.54052e-21)
(8.75735 0.161374 2.21347e-20)
(6.92915 -2.43936 -3.56823e-20)
(8.40086 0.192497 -2.61372e-20)
(8.32219 1.34725 3.85886e-20)
(11.7867 -0.625074 8.50519e-21)
(6.26713 -2.89083 6.45396e-20)
(9.11315 -3.62104 -2.11501e-20)
(14.3632 -3.18291 2.55971e-21)
(7.99672 -0.00117871 -6.57004e-21)
(7.46493 -3.64792 -9.06863e-21)
(8.12009 -0.375136 -1.6986e-20)
(5.6221 3.93952 -2.15734e-20)
(8.08674 -3.81691 1.40992e-20)
(7.90876 1.19484 0)
(7.55879 2.78646 -7.17243e-21)
(8.66818 -0.0250367 -4.61414e-20)
(9.55279 1.95986 -9.57954e-21)
(6.8174 -2.32362 -3.21285e-20)
(8.56516 -3.14857 -2.72695e-20)
(9.11222 -0.0380587 6.85962e-20)
(11.5234 -0.214371 -3.94209e-20)
(8.03246 4.28012 -2.76606e-20)
(10.3085 0.951423 1.62283e-20)
(6.03112 -1.73403 -6.63194e-20)
(8.59059 -0.0233014 -4.19312e-20)
(5.99525 -1.92558 0)
(-8.471 -3.39161 -3.07287e-21)
(9.02365 -0.0169965 5.36586e-20)
(8.97648 0.157365 -8.85025e-21)
(-1.486 -0.257089 0)
(8.69489 -3.98992 0)
(7.83782 0.795979 3.50631e-20)
(5.59076 -1.72764 4.01231e-20)
(2.43599 -3.6918 -2.18929e-20)
(9.69743 -3.34471 -1.78468e-20)
(10.3718 -1.84946 4.27753e-20)
(10.1424 1.87908 0)
(7.81749 0.854955 2.03268e-20)
(0.403327 1.59405 5.62238e-22)
(8.47048 2.3723 -3.07751e-20)
(8.90878 -1.48787 -3.27845e-20)
(-0.306639 0.795454 2.60478e-20)
(11.3137 -1.40672 2.96752e-20)
(12.017 -0.501157 -5.58676e-21)
(7.77692 2.65482 0)
(9.51745 -1.14721 1.20697e-20)
(7.91724 -0.371198 5.37315e-21)
(11.2252 4.94308 1.70855e-20)
(5.20327 -2.62695 5.80508e-20)
(8.81532 -1.52553 4.92884e-20)
(8.4974 -7.45458 -1.57824e-20)
(-6.4832 4.74041 4.79543e-21)
(9.83681 -0.295423 1.68597e-20)
(8.71509 0.0640669 3.76902e-20)
(-2.46211 7.12308 1.24213e-21)
(8.26994 2.26203 5.64214e-20)
(1.35026 -0.7857 2.32924e-20)
(6.30754 -3.05627 -2.11625e-20)
(14.2191 5.80108 0)
(10.9662 -5.62347 -1.40774e-20)
(-4.61802 6.60553 -2.31898e-21)
(6.54735 -1.59355 6.23892e-20)
(11.4944 0.876887 0)
(13.8866 4.1854 4.38012e-21)
(6.13611 -2.68329 1.43174e-20)
(7.97763 0.0507647 -6.08146e-20)
(-5.14121 4.06303 8.23242e-21)
(3.32715 0.764783 1.22138e-20)
(9.89988 -0.826815 2.37642e-20)
(8.54785 0.177867 5.33776e-20)
(8.28065 -3.79567 -3.50862e-20)
(13.8753 -1.63228 1.05202e-20)
(-4.84759 -6.26249 -2.04383e-20)
(8.44594 -0.0231178 4.33183e-20)
(8.92975 -0.395712 -1.68334e-20)
(8.29558 0.253334 -1.03085e-22)
(10.4329 -0.0660867 -3.86518e-20)
(6.02131 -2.75004 -2.75646e-20)
(14.142 -2.4083 0)
(-6.93228 -0.534406 5.37045e-21)
(8.56684 0.0472668 4.12396e-21)
(12.1632 -2.76902 6.74839e-21)
(9.51826 0.0990399 2.32005e-20)
(10.0622 -1.96812 -2.46939e-20)
(7.99703 0.0632471 -5.39367e-20)
(8.09148 0.637653 1.26631e-20)
(-3.28341 2.74066 1.03316e-20)
(8.41291 -0.0783644 0)
(9.67549 -0.779869 -2.50069e-20)
(8.48837 1.58307 2.78144e-20)
(7.15736 -2.87847 0)
(8.27641 0.191416 3.08272e-20)
(8.08484 1.36889 3.68852e-20)
(7.78563 -0.227722 4.43101e-24)
(11.23 -4.46568 -1.41687e-20)
(9.08709 -0.488454 0)
(7.30539 0.349232 4.59647e-20)
(8.14321 -6.40989 2.18081e-20)
(7.93063 -3.71567 2.85829e-20)
(8.93898 -1.05442 0)
(6.62899 -0.166168 -5.90934e-20)
(5.78127 6.79536 7.98899e-21)
(8.19138 3.51717 3.23908e-20)
(6.08276 -1.77496 6.47797e-20)
(11.0014 0.00651055 9.73843e-21)
(-6.20063 3.35387 -8.02326e-21)
(8.42739 -0.815198 -3.34691e-20)
(11.7774 -0.169973 2.13695e-20)
(7.53497 -0.213535 -3.0588e-20)
(10.3709 -0.041225 0)
(7.99433 0.000681217 -2.46953e-20)
(-1.39088 -0.491911 -5.13224e-20)
(-1.54767 0.113685 0)
(13.4104 -1.85181 0)
(11.4982 5.20657 0)
(1.39876 -0.490853 0)
(7.98427 0.580996 0)
(5.83618 -1.71166 0)
(9.24237 -1.85334 -3.91924e-22)
(10.0997 3.25821 1.10267e-20)
(9.19696 1.00257 0)
(7.2992 0.237002 6.72308e-20)
(4.67618 7.0849 3.40368e-20)
(8.11474 0.420767 1.43577e-22)
(-4.03512 6.88165 8.05044e-23)
(5.77061 -1.05649 1.58703e-23)
(-3.95687 3.0589 -8.34904e-21)
(8.55405 0.104048 -2.02337e-20)
(9.87489 0.244435 -2.94808e-21)
(7.94308 0.534136 -2.43617e-20)
(7.65166 0.0101158 -4.4842e-20)
(7.22557 1.92397 -3.56556e-20)
(10.4197 2.87721 0)
(-2.69933 -5.34493 -5.55374e-21)
(6.38695 -2.33729 -5.52317e-20)
(8.02963 0.0301185 -7.35811e-20)
(10.4664 -3.26316 -4.61651e-20)
(9.86473 -0.10311 5.89411e-21)
(12.0326 -3.14381 2.28654e-20)
(9.68183 -1.58001 -4.97685e-21)
(9.49824 -2.62743 -3.12057e-20)
(8.00218 0.319019 2.56592e-20)
(9.45671 5.80576 0)
(8.85296 -0.59992 1.37028e-20)
(7.3954 -0.600516 -9.05887e-21)
(12.8517 -2.36787 0)
(9.1867 -0.340849 0)
(8.61337 -3.91773 -5.6594e-23)
(-6.22795 3.0103 -8.09582e-21)
(9.43177 -1.84695 3.21463e-20)
(8.18237 -0.581487 0)
(8.21612 -0.687301 -4.34026e-20)
(7.50006 0.00106248 -8.36489e-21)
(-8.14371 -2.8608 1.67662e-21)
(7.53449 0.745317 2.16914e-20)
(-4.57959 3.37541 0)
(-2.98551 -5.48966 -5.8993e-21)
(8.43523 1.23873 0)
(9.34331 -1.19725 -1.45173e-20)
(11.8032 2.43691 -1.74072e-20)
(8.00694 0.0289066 -6.01224e-24)
(8.40431 1.52984 -7.36997e-20)
(8.89176 3.00254 -5.69064e-22)
(8.08887 -2.59399 5.05077e-20)
(-4.13711 -8.17507 0)
(1.45265 -7.40052 1.85879e-21)
(-4.27446 -2.61969 0)
(9.32185 1.02563 9.16075e-21)
(-7.54458 -1.74216 -2.13203e-21)
(15.0386 -2.28099 -4.78906e-21)
(9.98621 -0.678543 2.49257e-20)
(-4.46346 4.34277 -1.14166e-20)
(7.13524 -3.32242 -3.30124e-20)
(6.55244 -2.34439 -3.26766e-20)
(5.11487 -1.5011 -1.2469e-20)
(4.22836 -5.59621 -1.26182e-21)
(6.03886 -2.76958 2.25584e-20)
(6.76077 -2.43529 3.60407e-20)
(-6.36367 -6.89892 1.02491e-20)
(5.01051 -5.53444 -3.83825e-22)
(8.51162 -2.86144 2.686e-20)
(-2.64409 -0.967791 -1.35173e-20)
(11.4444 0.0622558 6.4272e-21)
(4.19297 7.03723 -3.04249e-20)
(8.53701 1.00597 -1.87408e-20)
(10.3866 -2.77344 0)
(1.39654 -0.516837 2.74311e-20)
(8.34292 -0.0227621 -4.81192e-20)
(7.95791 0.188221 0)
(9.28111 0.955668 0)
(-4.53601 -6.10805 1.04407e-20)
(12.7122 0.752317 1.2968e-20)
(8.90636 0.586347 -5.37734e-20)
(9.36515 -1.96717 5.38357e-20)
(7.25602 1.92219 3.10214e-20)
(7.91241 -0.0298167 4.71901e-20)
(-7.90514 -0.766286 -1.65744e-21)
(7.13391 0.967702 0)
(6.89569 -2.52625 3.47952e-20)
(-0.31817 2.63657 -3.83238e-21)
(-4.86973 3.70896 8.87007e-21)
(8.08879 -3.21325 8.62599e-21)
(8.78179 -4.12984 -1.37165e-20)
(8.82805 -0.0242877 2.42302e-20)
(9.81771 -0.528799 -1.26177e-20)
(10.2449 -0.99324 -3.23088e-20)
(-6.86965 -0.719263 1.7335e-22)
(8.87101 0.562255 4.05451e-20)
(7.96735 -0.187812 1.82591e-20)
(5.95897 -1.90739 -2.659e-20)
(8.2473 -0.855713 2.65492e-20)
(7.58086 4.33746 0)
(8.77643 0.945013 4.51077e-20)
(8.00607 -0.0946925 4.14254e-21)
(7.07289 -2.00453 -1.13244e-20)
(6.28983 3.6335 -2.1312e-20)
(8.40312 -2.82551 1.93197e-20)
(8.08759 -0.0415268 8.01855e-21)
(6.47037 -0.728788 -4.21363e-20)
(12.429 -2.25364 0)
(10.3545 -1.25161 4.62957e-20)
(8.40699 0.213989 3.53495e-20)
(9.73289 -0.683941 0)
(6.64167 -1.00127 2.39062e-20)
(7.85006 0.737858 0)
(5.70294 3.51632 7.00627e-20)
(11.0427 -0.12361 0)
(9.04025 -0.776345 0)
(9.56542 0.767095 1.32857e-20)
(8.89406 0.43137 3.02493e-20)
(10.0306 1.14604 2.6055e-20)
(7.785 0.0417121 -2.13866e-20)
(6.13347 1.87937 -1.74259e-20)
(7.99399 0.136976 -1.06819e-20)
(8.04628 0.610722 0)
(1.13939 -1.63468 3.97554e-21)
(9.15161 0.426848 -2.91286e-20)
(9.35255 -1.15003 3.13507e-20)
(10.4069 -2.75168 0)
(9.65416 1.92329 -1.22246e-20)
(7.19498 3.72814 -4.18734e-21)
(12.1709 -0.00163666 2.53846e-20)
(2.91552 2.95849 0)
(-1.43271 7.84621 -2.46563e-21)
(8.06094 0.337701 0)
(10.4325 -0.773308 1.64329e-20)
(-0.434191 -0.0612987 0)
(8.86938 0.939599 0)
(6.88415 -4.48827 0)
(9.31707 -3.59034 0)
(-1.32202 4.692 2.01383e-21)
(-5.5106 0.944114 -2.22784e-21)
(8.05981 -0.687405 -3.11064e-20)
(-8.3486 -4.49967 3.87078e-21)
(6.35693 -2.84422 0)
(-7.7785 -3.52733 -4.02573e-21)
(-0.730534 -0.139944 2.37604e-20)
(7.49647 -3.52853 0)
(7.16338 -2.75069 -3.86105e-20)
(6.4358 -4.55639 7.45993e-21)
(8.51528 0.949343 4.98744e-20)
(10.9632 -3.87197 1.8589e-20)
(7.65215 -0.0530897 0)
(10.0274 -3.36595 0)
(10.3895 1.5528 -6.65932e-21)
(8.46171 -0.103323 -4.33571e-21)
(7.06824 -2.043 2.5644e-20)
(-5.51025 -8.20104 3.79521e-21)
(8.00322 0.0214523 1.83059e-21)
(11.7944 -5.48618 1.15908e-21)
(8.00437 0.324406 3.67387e-20)
(9.09033 -1.90406 -2.42522e-20)
(8.71038 -2.64052 0)
(1.49064 -0.536542 0)
(13.2284 -1.00903 0)
(6.05653 0.59034 0)
(7.97672 -1.93045 1.77001e-20)
(10.3492 0.419622 0)
(-2.01171 7.71766 -1.57449e-20)
(7.63599 -1.93616 1.0036e-22)
(6.64336 -2.4698 -5.38487e-20)
(5.74225 7.24925 -1.43567e-20)
(-7.47209 -1.47569 -2.48926e-21)
(-0.431671 6.48635 1.02194e-20)
(8.94611 0.0435847 6.33389e-21)
(-6.72611 1.74638 -1.45922e-21)
(10.0953 -2.08337 -3.82695e-20)
(9.73682 0.618709 0)
(11.1307 -1.68854 0)
(5.72789 4.53661 0)
(10.0103 -2.09724 1.32599e-20)
(5.08839 -5.77268 0)
(7.14415 0.978501 0)
(8.00133 0.0255366 0)
(8.1832 -2.29742 1.95835e-20)
(8.10718 0.3753 -4.26711e-20)
(7.10163 -0.0131824 0)
(9.58168 -1.96346 2.67117e-20)
(7.88645 0.303263 -2.98987e-20)
(8.48734 2.25388 6.47633e-20)
(7.61866 -3.52318 2.57606e-20)
(7.3161 1.19465 9.90363e-23)
(6.92169 -1.15262 3.07143e-21)
(9.74912 -0.495246 -2.44266e-20)
(9.2119 -1.1489 2.64528e-20)
(8.82476 0.464735 -4.12727e-20)
(6.84975 -1.63822 5.87962e-20)
(7.70839 -0.360933 -2.98159e-20)
(8.37556 -0.0145178 0)
(12.5016 -2.09094 -4.73492e-21)
(7.95737 -0.0603687 3.3832e-20)
(0.998473 2.38522 2.4665e-20)
(9.62411 -1.49058 -1.44152e-20)
(5.6816 -1.79579 -4.36442e-20)
(8.8332 0.384243 7.06388e-21)
(10.1243 1.58751 -1.87639e-20)
(7.99016 0.154213 0)
(7.23535 3.26006 -1.64222e-20)
(9.31621 -0.843427 1.28669e-20)
(9.00508 -1.02668 -4.49141e-20)
(-2.72522 -3.44897 3.46918e-20)
(8.26968 -0.0992242 1.72782e-20)
(14.3648 -2.75007 -2.97481e-21)
(11.1729 0.0671964 -7.25328e-21)
(13.48 -0.155082 0)
(8.85395 6.78836 0)
(7.14872 -3.41809 3.05512e-20)
(-4.9789 3.66271 -8.89228e-21)
(12.9167 3.19354 2.77061e-21)
(7.96449 -0.0746466 6.70272e-20)
(7.13176 3.01822 4.91193e-20)
(6.57346 -0.282709 0)
(7.61805 -0.379326 0)
(7.52255 -2.10162 -1.07753e-22)
(9.13358 0.495045 2.06638e-20)
(7.42899 1.12472 5.10689e-20)
(10.9906 0.897284 0)
(8.02158 -0.323305 0)
(9.61508 -2.89926 4.64672e-20)
(8.8011 -1.0051 2.66234e-20)
(3.40425 -5.63147 7.28819e-21)
(8.89159 -0.381627 0)
(7.98717 0.405714 -5.63734e-21)
(10.2945 -2.37814 5.64857e-21)
(-4.75873 6.29227 -2.15122e-22)
(8.43676 -0.354302 -3.66188e-20)
(11.5147 2.63742 0)
(12.2918 0.89354 -1.03881e-20)
(4.21512 2.63575 -1.94376e-20)
(2.77801 -3.36183 0)
(5.74412 0.126451 7.37542e-20)
(7.82513 -0.0950308 -2.18095e-20)
(7.84979 0.534712 9.05241e-23)
(12.5907 2.03173 8.1943e-21)
(7.8458 7.55491 -9.3148e-21)
(8.74234 0.0488206 0)
(5.67234 -2.37534 -1.27382e-22)
(7.08251 3.47561 -4.40633e-20)
(6.10886 6.30188 4.82403e-21)
(7.95519 0.547391 2.88483e-20)
(-4.51007 -7.81359 1.01176e-20)
(8.10518 -0.0326413 -8.20502e-20)
(7.29122 -6.86993 7.96678e-21)
(10.1646 -0.6289 -2.66554e-20)
(8.05337 -2.17921 0)
(9.41309 0.0390739 4.49157e-20)
(5.98009 -2.84235 1.82061e-20)
(9.76352 -0.345961 -4.83819e-20)
(8.00281 -0.071906 -3.0508e-20)
(10.1861 -0.807306 -1.61856e-20)
(7.6039 -1.38368 6.28436e-20)
(10.9001 0.130989 -7.54161e-21)
(7.61403 -0.337527 1.71562e-20)
(5.0465 -2.56317 3.59378e-20)
(11.6107 0.897409 2.07199e-20)
(8.29441 2.45162 4.91426e-20)
(4.28195 -3.52615 1.71166e-20)
(8.93424 -0.0460016 0)
(5.78291 3.03441 0)
(3.12653 -2.89187 0)
(6.63085 -2.36551 4.12083e-20)
(7.92083 0.0322097 -4.86717e-20)
(7.44895 -0.0116835 0)
(7.20769 -2.04477 -3.42559e-20)
(7.44351 -0.0919444 0)
(7.99539 -1.78169 -2.9531e-20)
(9.25537 -1.1961 3.30437e-20)
(8.61562 -2.49785 -2.95147e-20)
(8.85107 0.0483828 0)
(7.99633 -0.218275 0)
(9.15607 -0.584557 -2.13925e-20)
(9.15971 0.86744 -1.50331e-21)
(10.0205 0.113548 -1.97898e-20)
(7.38553 4.00133 -6.57662e-22)
(11.6474 1.20752 0)
(8.11836 -3.12807 -1.4478e-20)
(-0.985067 0.640337 0)
(4.09716 1.01907 -2.4568e-20)
(8.96764 3.00673 0)
(13.6197 -2.22429 6.58358e-21)
(6.05774 -1.65015 1.72133e-20)
(7.08064 -1.40835 1.91166e-20)
(8.03903 -0.328461 2.03877e-20)
(7.76796 -2.71309 -3.12941e-20)
(8.71338 -1.16777 6.65505e-20)
(7.98678 0.584861 -1.40283e-22)
(10.9141 -3.45072 -2.77881e-20)
(9.06125 -2.21787 -1.58071e-20)
(-0.663455 0.450866 -1.01911e-20)
(9.10503 1.29852 0)
(8.01746 -0.0126578 6.39808e-24)
(7.31447 -2.24186 0)
(9.69921 -0.424258 2.68796e-20)
(8.19029 -3.12283 -7.74009e-21)
(7.63439 -1.27604 -2.06165e-20)
(13.4647 2.13389 2.82096e-21)
(9.70305 0.227626 2.63935e-20)
(7.48838 -0.956751 4.27389e-20)