/*--------------------------------*- C++ -*----------------------------------*\
| =========                 |                                                 |
| \\      /  F ield         | OpenFOAM: The Open Source CFD Toolbox           |
|  \\    /   O peration     | Version:  2306                                  |
|   \\  /    A nd           | Website:  www.openfoam.com                      |
|    \\/     M anipulation  |                                                 |
\*---------------------------------------------------------------------------*/
FoamFile
{
    version     2.0;
    format      ascii;
    arch        "LSB;label=32;scalar=64";
    class       volScalarField;
    location    "4.1";
    object      p;
}
// * * * * * * * * * * * * * * * * * * * * * * * * * * * * * * * * * * * * * //

dimensions      [0 2 -2 0 0 0 0];

internalField   nonuniform List<scalar> 
13486
(
50.6513
50.4614
11.0115
-330.673
-18.6075
14.6289
-13.3192
-1.52982
20.2631
41.7289
-72.0695
17.7045
52.0918
22.952
-0.94784
42.3068
-73.6764
21.9305
17.2348
47.1391
-315.435
51.1893
49.8224
-70.936
37.5989
-67.8193
-78.6051
-17.7936
4.16734
-28.5321
-104.47
16.2839
-33.2448
-13.7067
-1.53693
-7.44277
-50.5161
27.9275
-42.104
25.3445
-87.9585
55.3039
6.14109
37.0744
36.9644
17.6256
-118.056
4.13869
-50.8512
-8.17961
38.9651
-3.61457
19.4779
30.2068
1.78806
-15.9707
13.8645
-7.37872
-30.775
-18.0008
-81.9747
-23.3334
-74.3568
-290.803
-247.305
-33.8695
-342.885
55.8845
19.4063
51.5541
-332.846
12.9582
30.4934
-23.7577
-20.2156
13.1355
-22.3
-4.45185
-104.812
-11.9209
-8.43162
52.3269
-82.7969
11.2613
50.5575
44.634
-2.3646
38.6059
43.5746
47.2939
22.1928
-8.04739
45.5907
48.5391
17.6868
0.315722
-79.3945
-296.433
25.4757
-79.5374
-6.76476
24.0092
-298.936
-11.2918
52.9058
-80.9576
38.8978
-30.7351
-109.395
-21.8764
8.99344
12.6805
30.1966
14.4446
66.022
11.2146
38.6167
-5.40317
30.7925
-85.8839
18.1704
-78.8266
22.0418
-30.0417
9.95237
-3.32795
12.5207
26.2835
-3.60939
-211.039
-2.2062
-126.301
-24.8862
-17.604
39.1331
43.4577
71.5687
-19.7556
-104.453
4.00564
-21.7506
19.372
18.3087
-14.1771
9.23814
-30.7668
6.32768
74.3878
-9.27456
3.15153
34.1867
-14.7753
-6.02687
53.8135
29.199
10.4686
-39.4772
-39.3892
19.8458
-6.14238
-0.584634
19.9206
26.0191
54.4059
-5.34513
17.2442
25.8746
79.4056
6.3647
-17.7594
-37.2054
29.1175
36.5933
12.0576
-20.9844
-186.276
23.8829
-24.0659
38.5336
18.4032
20.7364
14.4766
14.2114
-83.1568
10.6654
-17.5959
0.758447
-18.9076
-139.118
16.4587
-55.3269
9.36855
-3.9491
64.7521
-4.68617
-64.2052
-233.464
-1.50659
36.5916
18.8894
-120.7
25.9467
27.8305
-56.5596
-5.95438
-3.12292
6.31954
36.3374
-8.9863
11.1494
-18.2756
-96.6656
46.6819
39.0124
14.7509
-30.9826
-27.0243
47.209
40.9803
-17.1243
-73.9751
-9.24846
5.74378
-1.54462
18.0114
43.9041
11.0908
-199.4
-11.3701
-5.27502
20.6577
-201.358
-23.1867
57.4545
-294.199
40.0902
-15.7459
9.66784
40.9393
16.1634
-34.7416
36.4169
12.4248
35.8345
-54.6764
43.268
17.0488
-51.9064
-22.2778
38.4863
-125.931
67.0135
7.74257
-25.3936
-13.7063
-175.802
17.3687
-29.1995
-39.3956
-35.522
46.514
-67.1575
0.192251
-173.599
-32.4538
-84.8723
-12.1137
-159.085
31.0887
19.4244
55.471
39.2993
-27.5744
17.7101
44.0458
-48.9224
-12.0944
-106.041
-17.6995
8.40398
-111.753
19.1996
39.9443
-60.25
-83.8386
-89.5184
-19.8049
-6.65754
18.205
31.5723
-303.56
-131.125
15.1869
38.8174
-13.3586
-18.4615
-1.65616
17.1244
39.658
-47.6878
26.9758
3.69383
8.01725
15.3926
-60.8491
-57.0452
-207.948
17.0598
-5.41191
-52.4014
-3.59635
-327.223
28.2303
14.624
-38.0501
43.8372
-94.3745
43.918
37.1047
-22.8338
-39.4651
-219.327
38.5418
49.4658
75.5058
21.571
2.92622
18.5894
14.1892
0.766706
38.7392
-10.5706
23.5118
58.3056
-18.752
14.6265
66.9365
-14.8277
36.1465
-75.6737
-20.0507
49.3536
-1.4039
13.6337
-87.0562
3.41071
14.1829
62.9868
-17.9254
-125.593
17.1751
16.0362
17.778
-80.2584
39.4536
5.49731
-20.1279
12.5657
-9.07704
-86.9247
17.2638
22.5614
45.0619
39.4165
-29.4713
-1.45111
-17.601
-135.213
47.8745
13.2324
5.66188
14.8367
17.6557
-116.239
19.8327
38.5808
38.398
-168.569
-38.0013
-13.8664
29.9958
-18.7864
56.2827
56.261
-136.171
-13.1075
21.3564
35.8701
-36.3361
-96.8782
45.4119
-26.2059
31.6714
43.3171
60.3338
-104.686
-337.194
-116.319
-53.8658
-21.5875
-42.1938
38.1492
25.1259
-251.946
-13.3736
9.09902
48.1308
-23.4312
16.1277
49.8592
34.2407
23.3146
-24.9408
40.0151
38.3638
61.0688
-81.9287
-32.8764
-57.3245
15.8956
38.6859
27.1303
63.4154
36.9374
6.41239
-19.8425
26.343
40.2019
-78.3266
27.0411
51.3799
25.4489
31.2824
17.2135
-35.4149
-44.1783
57.0346
-156.561
12.2023
55.1011
-84.1078
-26.2495
-15.4262
-26.8181
-9.47851
33.2936
60.2026
51.9466
-14.947
-72.0608
-89.0322
36.6528
44.3279
-8.73954
13.0644
38.8405
-114.273
-182.975
-58.7398
-37.8622
29.1342
39.6726
-20.5359
26.9812
-334.939
41.9378
4.45737
73.5643
44.7239
27.4339
-8.01024
-6.03562
-1.33663
66.2834
2.10689
-115.805
5.31208
14.8014
-91.2036
17.3758
37.0376
-38.3567
14.1631
49.9918
-17.6283
-62.8979
35.875
-110.19
78.7026
36.0122
39.0414
40.2478
-175.488
13.1064
67.8909
-35.8602
48.6498
-47.5651
27.3488
-176.198
-12.256
6.53293
-87.1866
44.5449
10.0829
-131.679
1.29246
13.2475
60.2076
33.1856
-11.6713
11.6454
13.8929
15.3504
-36.813
38.7213
-42.6837
55.9401
-21.0581
53.271
55.6032
-18.5514
-7.19169
17.5884
-168.605
-139.02
16.9404
-26.4328
22.9851
45.6269
-81.4641
-38.7995
-83.5122
1.332
40.4434
26.9446
-84.2268
-269.692
27.1512
-45.5455
2.05883
-260.129
12.8749
11.8495
57.4701
-7.87133
45.2997
-40.9356
-108.996
10.385
30.1768
-88.3265
34.3225
12.2333
-93.0827
11.2615
28.7938
-40.1604
-83.2019
39.0916
43.0954
31.9619
51.5566
12.4507
36.4711
26.3549
37.2636
10.8158
40.8303
-79.6423
38.5105
9.46156
-6.98834
-48.0801
37.6635
-79.3347
17.7416
60.3759
50.1128
-208.228
-21.6287
31.0801
19.4737
26.7242
44.0787
-72.4373
-76.9674
19.439
47.1346
24.2981
27.4835
-152.747
50.558
-75.8572
13.9618
38.9025
-10.6827
-13.7238
34.3317
-2.55557
13.3797
1.01153
29.6164
0.161239
49.3669
11.9616
18.9657
19.6491
16.4644
-19.0917
61.8307
28.0163
61.1289
-194.078
33.4616
-6.40166
-20.0505
-28.1196
38.0462
66.0475
-241.062
-18.5612
1.21925
-20.1838
38.2979
15.5833
21.715
22.902
-84.8615
-44.8437
-49.4773
30.4966
-16.7079
39.8751
-13.6638
56.6242
23.7853
-11.4563
-105.854
-16.4379
28.3281
-79.7903
25.7347
-85.4799
39.3696
-2.0993
14.9719
-121.832
56.2166
1.74095
28.0541
54.631
38.8463
-88.8738
-7.44778
15.3813
21.836
7.16985
12.2312
-237.943
29.4537
26.5254
27.9524
22.6723
55.8908
13.6182
-200.202
37.6733
24.1748
12.4339
2.85404
37.2766
33.3072
-86.7296
12.3798
-158.329
15.5571
40.3437
28.1325
14.1397
11.5707
-128.785
-1.91392
48.0924
-2.78947
4.64099
24.5934
57.4971
21.8258
19.515
61.039
4.75172
-121.862
31.9956
-40.9483
45.3562
9.33629
38.8562
-271.851
-17.5466
-84.6971
-10.3856
-67.2872
35.5429
63.7893
-32.3031
-37.8514
9.75486
48.4931
15.1025
32.054
-110.208
66.3441
-84.1647
17.3107
-9.89815
36.479
43.3285
41.1803
-8.83727
-245.499
54.5495
38.812
-37.3144
26.926
-84.0768
12.2116
1.746
35.6347
-15.6037
-10.3663
46.9195
-4.63266
-15.3074
-4.44347
-140.347
-33.5629
-7.29488
35.3216
45.5123
-218.939
11.6299
-88.4666
-290.696
14.0847
-19.2998
22.383
38.872
25.9258
12.8111
26.9251
-37.4698
-229.715
-13.7285
6.58913
-219.602
-86.4889
-131.276
-166.687
6.63866
52.726
-103.745
-215.902
54.7026
49.6678
-187.056
-196.262
16.5044
-122.897
9.94391
13.2902
23.7541
-17.7571
-63.6986
31.1187
36.6961
8.03257
-153.075
-48.5577
16.0714
12.3057
41.8576
18.089
-210.383
48.2587
47.1524
-78.2263
-163.31
21.4127
-72.0333
19.0167
-42.3497
-26.2476
-207.812
16.5532
39.2027
61.7486
34.4422
15.963
19.1739
38.5998
46.9259
32.1555
19.0282
35.4143
59.3779
-4.13886
-183.217
23.8472
-3.29517
56.3619
11.9966
43.0416
18.9697
-14.2041
17.231
16.948
-13.2373
41.6422
57.3341
36.9806
34.3227
-84.4728
10.8945
-18.3232
-17.5675
-1.61351
25.4135
9.50156
-172.355
-93.5484
34.1819
-24.6696
-21.5434
-97.7152
-85.168
-12.2901
-68.9132
-194.767
37.6451
-186.376
50.6417
-205.932
-22.0051
25.1763
41.4414
-15.4246
24.2893
-93.1093
43.5771
-24.3162
-38.7788
-12.4743
-70.2735
-138.809
38.8904
15.079
35.3605
-226.638
15.8196
-79.3237
11.7256
13.6486
33.8544
-17.0514
-74.042
-155.414
50.6307
16.5072
-208.425
-63.2473
35.0989
-177.855
-191.558
16.9998
-1.22815
8.13967
1.45385
-239.487
47.8091
38.8477
28.1246
32.4396
37.9054
-33.6882
38.707
22.0061
26.4647
44.6868
-17.1951
-29.2277
-13.1774
17.8229
-84.4932
42.9973
30.1199
23.9773
39.2234
13.8029
13.1182
65.0137
16.7017
-17.9966
36.506
5.88169
-32.7808
-18.8178
-327.686
35.0467
13.3716
5.05973
10.9171
23.5897
32.3749
-88.8974
-2.87191
39.2142
6.37033
58.0691
44.0231
39.6574
16.9625
43.9228
18.0708
12.0879
-5.50618
26.4929
-266.365
-6.44931
-107.397
-50.3073
-120.59
32.5656
-34.8329
-48.718
-171.575
-261.43
-37.9042
41.1675
10.0248
23.2638
-15.5919
38.2963
62.0693
7.92011
-55.4416
36.2932
-26.751
33.9759
-13.0142
-49.6154
30.9403
6.28877
56.0776
17.9624
38.6442
-22.9565
42.2704
9.84187
44.4779
-29.0089
-39.8086
24.2888
-225.16
18.1701
2.38446
-104.061
51.7566
38.3485
46.2829
44.7119
46.3338
34.3661
-16.9486
18.8528
38.466
38.6904
-4.7908
10.3556
-15.1307
21.0073
19.4321
21.4823
-17.1295
77.2292
11.9795
12.9641
61.9651
49.28
-6.5397
-168.936
27.1838
35.4289
-79.2813
14.7525
-15.7999
11.3386
38.5872
41.9075
-56.0451
20.1007
42.0178
-2.19632
0.754837
45.0798
16.6824
-67.7941
-81.8295
11.0413
-12.9547
41.7379
51.3835
-84.7933
-64.3879
-41.0273
18.6477
26.3373
17.019
55.2387
-2.87245
70.9325
33.0569
17.3417
36.7332
-87.6595
-15.7125
-181.76
35.2607
-48.0113
-13.4622
-119.061
32.5529
38.2588
-87.9267
-18.2129
-141.876
-3.44925
17.645
-178.246
18.5167
17.9071
37.3534
39.9089
45.4415
24.8483
-5.41714
-31.6551
-15.9364
11.9886
-224.6
31.7015
17.9271
-153.593
41.4419
-66.9108
29.1191
-117.153
18.6962
37.3982
0.146851
-43.1635
13.6555
-7.03659
-43.5319
16.9684
2.21025
20.2208
37.441
32.4189
-16.4141
38.7462
11.5753
46.4529
31.5413
34.1992
24.2915
17.3552
55.9341
69.4265
22.9456
-34.1816
37.8465
13.4276
56.2802
-5.44957
-29.9768
-109.526
17.3672
17.3048
-97.3651
38.2349
32.1665
7.6957
-77.1436
-5.27644
26.1831
64.6949
-30.1939
39.4095
-55.5114
26.934
54.3994
0.293818
9.3741
-163.326
44.8309
17.2194
69.0853
-9.55203
-15.7436
32.8696
17.6868
-87.2523
-15.5454
26.7257
45.5106
-7.38864
-27.3867
49.9792
47.1418
-3.53941
-11.8624
-12.0287
27.6469
24.122
30.3925
40.2384
17.7696
-52.7952
44.538
6.7911
-32.2979
-0.50671
43.8798
31.3858
-47.2307
-276.476
1.12012
38.9958
53.1354
17.1802
26.8659
-14.4664
65.1894
-76.4482
-20.5285
57.1643
38.8649
12.3687
14.5214
-341.817
-1.90811
-67.1915
-76.2584
-110.929
-168.203
20.2388
-36.292
-101.486
-69.0177
-85.9211
-19.545
-45.5019
-117.996
59.7768
41.7596
-37.8891
-140.664
18.3139
27.371
-5.02715
70.3743
-8.98968
-12.0888
38.9386
-40.4705
-165.046
-3.9895
-6.64567
32.3516
72.8592
2.13716
1.58712
-77.4922
10.9327
-4.44525
8.58218
11.1925
44.8454
43.4336
40.2662
-163.039
-11.2795
9.9546
17.8398
38.4678
16.0902
40.8855
66.6606
60.126
-38.6273
38.9332
45.401
-11.984
39.0854
-14.2183
58.7812
38.4128
20.2616
44.8143
34.7597
0.93138
7.07102
45.0281
-28.9696
20.068
-11.6471
-17.667
14.0208
34.0554
28.5718
19.6856
55.3247
54.6947
3.39113
-16.221
16.7834
-141.783
-3.21589
42.412
45.6678
-16.3567
39.025
17.9362
15.8082
18.3139
-123.622
-158.854
-75.6999
71.995
3.01514
-9.99565
49.1808
13.5545
14.2105
32.4308
17.7234
38.6195
-66.084
-21.2056
17.7918
0.717031
-8.02852
-2.94883
62.8547
48.9578
29.2722
72.9353
53.5768
-0.0444453
-6.98248
7.66954
10.0705
55.378
-155.092
27.3759
14.6772
-92.7267
-2.19398
36.3216
-170.733
15.9183
41.7108
73.4171
-80.6329
16.5249
11.825
21.7252
10.0637
-274.612
53.6011
37.9295
18.9756
35.1588
-46.8815
-61.8581
-85.6908
59.8636
3.73784
68.5731
-188.92
25.668
-39.4076
-37.6372
-16.9484
23.6518
-18.9672
28.8589
-2.49017
28.8658
-277.403
-4.6188
-177.608
-16.8186
-16.2243
-43.1851
0.0894283
3.07651
-312.557
-84.2086
13.7313
15.4487
61.0469
38.7092
14.8967
17.0949
81.1536
26.86
-80.8927
-30.6362
18.2095
38.964
20.8308
44.777
-15.088
-15.8965
-6.93389
-3.84533
17.1052
51.0352
-17.1005
-89.1983
-79.5336
61.0941
-283.231
18.6815
40.3641
-126.342
7.98231
35.7255
-82.8322
-78.7352
-4.15999
37.6821
27.983
39.7742
-44.1978
-16.9884
-22.0633
-90.7555
-38.1172
-5.54903
21.7226
-90.5504
-8.64607
-269.769
-80.5068
-59.1803
49.3337
-295.03
60.8238
-86.8671
-33.978
12.5075
16.5906
42.4013
8.71233
52.7002
3.49513
-60.9787
-71.4681
37.624
-14.8349
37.4754
-206.073
55.3506
44.8466
-162.708
35.2264
55.3651
23.2691
35.388
-6.01077
-59.1948
14.3443
-39.6221
-34.5193
-9.13232
-16.8026
10.3109
-70.6474
17.1679
-1.83845
0.963458
-10.9392
-18.9735
58.547
10.4866
2.89989
16.4621
38.8009
-181.531
7.37813
24.8558
10.8124
10.0008
12.1259
14.6948
38.755
38.8866
-10.6394
41.329
43.721
28.3777
-32.6807
12.7089
29.0019
17.276
-14.0967
-79.8825
-208.269
-18.6928
-351.3
-4.97435
-28.4039
15.4398
-13.5823
-8.55152
-118.558
-3.14313
-96.8493
30.2319
-83.5549
40.8602
80.2134
32.0941
-175.683
33.6893
25.341
16.8282
4.0608
-37.4233
-181.866
13.1945
38.3299
2.63998
53.4643
3.63532
38.8396
4.14054
14.5587
-49.292
-32.2349
70.3158
-301.866
38.852
39.2806
44.6654
12.9995
37.8208
16.2509
-30.9081
21.6183
-80.3782
-94.4234
38.7776
38.9334
-36.3841
32.529
45.8082
-119.157
-231.536
16.0367
11.1049
42.8503
34.0083
44.6032
8.06712
22.5348
-17.3251
-15.4297
-38.1894
44.8466
68.0471
-40.7601
-69.8925
-51.4535
10.2546
12.1079
12.5664
-40.1926
19.2523
8.30709
-51.8319
17.8284
71.3045
31.0226
16.5227
-160.006
-184.812
-51.3792
-60.8605
-58.3051
-93.3661
49.2165
33.674
-22.7872
65.3751
-34.3056
-82.7878
-160.68
-95.9485
23.9914
-12.3617
29.1155
19.4878
-8.90989
-32.394
-77.3376
-81.8546
-187.686
45.4904
-115.082
-16.0785
-82.2015
39.3894
36.1698
-280.469
40.917
32.506
48.5834
55.7957
23.7436
16.6538
71.9612
-84.0874
13.1339
-34.0745
-109.993
50.1967
-211.239
59.4026
33.273
-14.5558
-135.224
-146.669
43.7419
-214.101
-189.755
5.93686
18.468
20.0058
35.4881
24.8779
4.45624
61.0535
-18.8268
-63.1407
29.2097
13.5196
42.1368
-73.451
80.1902
-27.8962
-4.15572
42.3147
-3.07376
38.8597
22.1338
30.9836
22.9155
24.4563
-0.677963
25.2901
16.6475
-339.171
4.74592
20.8665
36.9295
39.1279
-300.334
10.7726
-48.2446
34.8935
22.9431
-97.3758
40.2297
-192.837
38.9244
41.1014
-71.2848
51.491
-171.923
69.4551
26.6258
-127.773
2.45296
-34.9683
42.408
43.5663
-154.528
39.8105
41.888
-31.2235
10.0678
16.2544
21.0695
-35.7749
-73.7832
-14.0765
-169.743
39.2962
-82.6471
-66.9321
-37.1698
46.397
41.5499
44.333
-91.5886
33.4304
-9.94367
9.85573
34.1199
-298.076
-309.998
59.8822
11.9605
-12.1492
-28.1371
-87.9386
-135.661
38.8092
-71.7069
-15.9649
43.8579
3.76476
38.2296
-111.505
16.3054
64.9326
-24.9899
44.5528
16.7722
-116.263
28.7569
16.7183
33.9123
64.9792
29.085
6.45598
67.4138
37.6494
48.2842
-99.7145
-92.4975
-24.2489
-16.1013
-97.7461
-39.8956
-8.81528
-40.5292
13.4396
17.1762
-7.90369
2.13999
-243.084
-10.8809
46.7876
-56.7101
13.6616
35.6601
38.5915
-12.5254
-81.613
-268.212
-64.1709
-127.473
-16.5225
46.7815
-122.708
48.6479
-90.9249
38.8836
-22.0965
-59.1502
-31.5571
30.7458
35.3614
26.4468
17.2111
33.219
12.5053
42.8744
54.3492
-79.0902
-36.8934
-58.9724
40.9126
22.0945
-55.8675
-40.7587
19.3162
1.68796
-13.2222
20.7376
-4.38466
25.5572
35.334
21.5524
4.11264
-143.898
50.0622
-196.094
34.1773
2.58973
39.1129
32.2033
35.0119
19.5336
-37.3074
-258.313
-105.559
-31.4913
-205.665
-156.766
14.2373
-151.371
39.5849
17.7334
38.8252
-58.7382
15.4612
-29.5755
-21.9168
32.0715
-80.9263
26.2108
17.4386
-184.767
-166.327
-186.857
19
39.0407
-30.2483
17.3076
-13.5407
23.7358
0.743185
16.6718
-86.9921
40.8647
16.6155
-52.0767
37.1847
23.1028
34.6789
48.3124
54.3436
-20.4101
-6.25488
-94.3691
7.03007
35.7449
17.4279
-79.0596
-93.8811
-117.578
0.487014
9.31841
-133.495
71.6571
-8.30856
30.5147
16.3522
-205.042
11.0088
-2.43381
-12.1174
23.3121
16.6017
41.0759
-68.8693
38.8128
-33.6564
-55.2374
-273.638
12.0477
-89.948
29.0819
63.9048
38.792
-31.5605
-84.2378
41.8911
-79.0514
-6.13782
-17.0391
-3.4505
-97.374
-125.009
-102.788
-22.1371
17.2178
10.2087
-58.742
16.9384
42.1697
-11.9973
-30.8488
43.3929
-7.17934
-78.8102
9.70576
11.2871
3.11489
68.4244
-17.5054
13.1696
-7.0043
0.12741
-12.3025
21.7179
11.7417
8.00571
8.09569
-19.1268
-1.541
-7.76693
45.0279
21.4897
25.8591
-99.3372
-14.1074
65.6099
-308.492
30.4006
29.1133
28.9163
4.29855
16.7076
-63.2615
17.1905
40.4578
37.7539
26.5421
-196.17
43.2046
23.7093
54.3922
0.34918
41.3421
44.3703
40.2825
19.2578
-86.9414
28.6616
-94.8671
-3.28804
33.3709
34.9513
22.0705
48.2684
16.9275
53.8131
12.2989
31.4246
17.8211
16.6008
2.65465
39.1606
14.1474
34.7856
66.8117
40.7609
18.8469
-16.0065
16.4253
38.8958
-7.8454
-58.0161
19.4685
-7.02322
42.9028
-253.281
50.4561
27.1075
81.407
58.251
-12.6166
-23.2874
-12.837
21.2676
59.2495
5.54204
17.669
-6.4394
72.0995
36.5496
16.2502
65.165
-2.40188
36.1638
-11.0037
29.0589
14.345
21.7298
30.3018
38.5592
12.6675
-100.109
17.2422
-162.858
13.3469
-83.0948
-8.95873
57.2348
46.9781
12.239
-47.8108
-4.34962
33.3748
20.8276
19.3933
35.2106
-71.0451
-41.0855
-277.383
41.0566
-29.2318
-45.475
37.9576
4.86995
16.5585
-14.9425
66.1185
-179.598
48.646
-59.5097
69.5482
-39.7673
18.9739
-43.2027
9.98576
22.507
38.86
17.9769
-46.6178
13.4178
-45.9704
42.7928
16.4649
19.2081
-212.55
-34.621
-75.9979
28.777
-17.4638
-10.3244
-0.428378
39.4256
68.4549
-157.259
-2.56364
17.8367
-4.73848
32.565
-138.88
-16.0618
-44.0723
-140.929
36.1344
-195.444
-22.2462
5.21628
-42.6958
-234.132
24.704
38.7213
33.0108
38.6847
65.1729
-77.5407
71.1638
-19.2122
67.299
-159.757
-6.99081
61.593
32.3787
-266.282
9.5801
9.83081
18.4886
-141.057
-79.1946
16.5141
-22.9966
-37.118
-22.1078
-8.00911
30.8179
28.9287
-154.695
31.371
-34.9518
19.374
-220.749
-13.9613
27.5138
-224.081
-19.8396
60.7976
44.472
63.7928
17.2962
-79.6434
32.4848
3.56557
-28.7629
38.6086
38.4642
70.9193
38.4244
44.2287
-14.2933
-18.7798
69.1367
68.9814
43.5101
3.18927
-192.337
-95.2028
20.39
-5.26193
13.5433
50.6253
-114.373
-6.14493
-49.6643
65.0977
25.4124
22.8631
-258.908
12.133
44.0567
77.8586
73.5374
24.4361
33.6012
3.43492
-23.6041
37.7522
74.465
2.75841
-33.9742
-0.692367
2.09541
18.1476
13.2723
7.41279
16.3854
19.9734
17.2987
-39.6583
29.7484
43.6096
-74.856
33.2211
-225.859
4.75323
57.9276
-44.4906
23.4558
-60.7964
33.052
35.3744
-232.939
-66.0917
-7.48878
22.6711
78.7884
-44.4488
-53.3313
-136.953
15.7136
-17.6181
-64.3085
-293.022
-41.6602
-47.1107
-72.6126
5.33155
-35.4046
35.1782
2.92667
22.1091
77.9748
24.7878
17.3723
-21.9119
25.2635
-15.4497
-19.2426
56.1032
35.6848
17.3084
-27.0811
30.6123
35.5242
3.95867
-123.84
-22.9194
56.3014
-15.5857
38.7907
20.2819
51.3999
16.8775
-215.293
24.1127
39.4224
-12.3023
40.4864
-1.90105
71.5017
-333.433
10.7208
-67.8367
38.036
-249.94
-12.2863
-316.963
14.4969
-55.0681
-196.504
-285.537
2.85344
21.9272
-90.7219
4.28279
21.8972
-95.6542
16.1353
-286.816
39.1426
67.1939
10.2142
-14.4285
16.6778
13.2204
22.457
6.43953
3.14592
-87.5017
-3.04666
-43.0271
-51.7824
21.2993
19.7505
-113.496
-6.18056
17.2948
38.4616
21.3738
-214.357
12.3724
-94.5168
-36.4257
8.31027
-3.57279
-203.556
46.8272
-71.4415
-32.6051
-28.1574
-21.7538
-86.3914
-79.5859
80.6401
15.1473
-23.8332
39.0341
67.2942
58.1861
-211.069
-13.8152
38.6705
6.38726
-2.44917
66.4743
15.6049
-0.492866
82.1505
17.7217
-57.0026
24.6495
54.5423
40.1621
16.3474
56.3901
37.241
17.8384
9.42911
32.7467
17.8781
-49.1296
63.3398
29.8087
16.2913
-30.7173
-73.9684
9.98661
-240.951
-18.2689
19.0855
21.7921
42.6996
23.0851
-78.381
58.1241
61.045
-50.5904
17.1928
-12.3863
-5.72214
22.3734
36.0835
-128.693
-12.1927
19.3178
69.1024
-80.3635
28.2596
34.7311
34.6855
-3.08159
19.4837
-44.8717
18.8319
-32.5354
-24.4547
-79.5932
-30.8933
10.0941
-354.033
37.6631
-204.714
-157.42
28.2004
-15.0646
-241.872
-71.9496
25.5969
-9.42343
-8.41689
31.0964
-122.089
14.9254
-56.3271
-11.9198
37.6441
-81.8738
68.1098
-87.7363
73.5651
-7.16337
-13.2957
15.3257
39.2452
15.0647
-59.3745
-7.99711
20.1423
14.4351
5.76389
82.9923
34.7552
-0.109362
-15.4873
1.38495
10.0676
22.8865
-48.772
36.4231
-260.316
-297.407
-19.106
-62.467
17.9572
-16.5652
35.9546
16.8548
58.011
69.5976
-63.3438
-86.148
19.2887
-3.79952
60.6708
-18.3057
19.7563
31.2803
37.36
-169.782
-2.31842
16.6668
12.1369
5.05165
-137.656
-50.9586
7.84886
-0.975347
-45.8283
16.4136
-44.3026
-38.8354
24.1591
-216.617
-220.049
-32.1317
23.4435
70.9113
-13.42
39.314
-72.2117
11.1305
17.2422
1.20579
28.5029
-311.358
-108.933
60.2367
37.0774
20.2563
-26.8916
75.5362
-251.945
-62.0321
-262.6
-11.7919
-232.926
-155.551
53.4273
19.3709
15.9619
30.926
-343.208
26.6326
-3.42057
17.2233
-44.443
20.6551
31.7439
25.799
-178.539
-38.7511
-29.2155
-37.746
-4.78464
-7.92025
72.1576
36.8097
-134.799
-15.2616
26.7758
55.9092
1.92081
-97.8562
-13.2737
46.7475
17.5915
-26.2038
40.736
-53.9344
59.404
18.982
43.0888
-88.9916
-22.9864
-56.7553
-252.166
-22.1202
29.8023
-73.0999
-193.495
32.1528
-34.9911
16.0295
47.6576
37.8694
46.1885
38.7467
-19.7081
7.65592
20.9272
20.3509
1.24059
31.5596
-7.70174
59.9012
-342.889
44.8939
-44.2482
66.5158
-334.823
0.647018
64.2385
-333.722
-12.2674
-77.5045
46.8221
63.578
38.9561
-5.34704
38.6513
38.2635
-79.4265
35.7763
-207.432
42.1126
-307.441
-211.457
-89.6813
-90.3528
37.512
-33.4499
-94.1945
12.4292
62.4549
17.8755
21.118
-91.2917
-8.76028
-4.38435
-21.9137
39.1382
22.2295
-89.6799
73.7445
7.13416
56.1254
40.8183
0.50533
8.87047
12.0264
-29.5958
-29.228
5.86306
5.16906
12.5283
21.5765
-336.993
70.4388
44.3073
12.2112
-97.194
19.2042
-106.624
39.083
35.5183
16.5294
-39.9146
35.3976
24.1013
-10.4354
-17.1659
-7.53209
26.1616
59.2365
-31.8139
65.0743
74.9778
67.211
-80.5786
36.9281
-85.4877
38.3666
35.9497
47.4613
26.3241
45.3684
77.088
40.8157
-46.7149
-93.813
-112.409
77.1252
13.4942
-57.345
-225.439
46.0715
58.8052
30.5109
13.953
-4.20035
53.3231
-49.4557
20.9535
-215.969
31.7042
-8.68768
-73.8515
15.0943
-84.4404
-93.6169
-143.513
-33.5127
-7.84336
36.2407
19.0695
15.3883
22.8923
7.33916
-25.3577
-64.4985
-6.29513
-88.259
-66.0422
43.2989
54.5893
-274.396
47.0205
43.5679
56.8287
10.5835
-205.484
26.4135
-40.3049
47.3595
-22.3721
45.9139
39.2992
24.3116
45.9992
18.6179
39.2275
14.061
32.737
-14.6923
-14.1329
-33.9956
-11.3201
38.4683
-141.956
-189.225
-126.638
63.5892
36.4243
33.8342
7.19832
51.731
-35.8749
21.7557
-1.75055
-17.4132
22.4507
-210.729
-79.2275
-5.78611
-66.6855
-16.7983
-141.503
-3.78399
-88.9002
-21.0911
15.4475
63.2007
70.9751
57.7101
-167.292
21.1247
-81.9091
23.4132
57.0905
26.3501
37.8997
-116.182
15.1871
-17.7018
17.6295
42.2979
13.9059
26.7416
-84.1866
14.7957
-70.8982
40.0606
27.0931
38.5196
-71.3645
23.0908
-233.026
-95.1033
-92.6243
15.0461
61.203
-54.4047
-62.734
-205.25
32.7521
39.2508
6.73966
35.2361
-75.8173
52.8848
62.2445
-184.457
15.6589
45.9736
-209.563
-86.7268
20.0725
44.6501
48.455
-87.5702
-13.4022
23.0182
62.4584
-77.6723
-198.338
16.538
54.0393
19.3881
-13.3427
-64.1659
38.8458
37.8285
41.3486
15.8461
-44.474
27.0384
75.0419
-12.9043
1.44349
18.8647
-88.9242
19.8817
15.758
-167.332
-15.3811
-337.529
35.897
-119.892
-45.8809
37.1318
45.4826
23.6369
-25.9617
-167.775
22.9496
-78.1765
-18.9164
-13.9127
13.1978
-57.4955
47.6843
24.531
19.6763
17.5688
57.3605
-137.338
-3.43937
39.2143
-87.2234
37.2858
6.44371
10.8489
-41.3343
39.2
5.40681
15.8939
-4.85762
-0.512659
39.7667
-37.2299
25.9162
-223.843
-26.2701
38.4559
-81.554
66.6174
-79.5422
-85.773
-89.9916
45.8866
25.8484
35.7218
-142.06
53.4237
-73.4337
-8.63462
13.1589
-17.005
40.6035
14.6195
-3.0983
5.05603
-80.1982
38.5874
-69.3592
-217.018
-4.06675
-33.6601
-33.8596
7.61134
57.5167
-2.63262
-83.4352
35.8099
-43.0398
47.8456
-52.9578
20.4602
44.3517
40.6753
13.096
-82.4529
-18.5518
18.5448
29.9247
32.9647
13.4865
-212.013
11.9021
-28.5269
31.1273
78.6618
21.8092
37.5309
47.4924
27.4265
41.9726
-95.8334
-147.45
-213.887
38.2921
77.1263
24.102
-0.362033
41.0634
5.02515
9.04216
-12.4123
20.1496
16.2105
66.8915
-33.2764
-40.486
61.2618
41.7928
14.8489
27.6677
36.5111
19.0392
-272.791
-187.573
27.1498
-18.3094
-14.291
35.5684
-205.76
-126.277
-43.3932
18.642
20.2518
25.9505
23.494
36.5983
37.5994
20.4494
27.2781
22.5999
55.0158
46.091
-20.5479
12.0734
7.25587
43.3342
25.4082
19.4118
7.50433
22.5942
-88.651
57.2879
30.0269
2.81184
-94.0584
23.6401
31.3708
-5.22594
35.9949
-20.8402
14.2465
-255.969
16.7255
-118.691
12.9312
-14.8626
-105.348
-49.9987
-73.1628
49.5216
-174.588
-34.397
-128.89
59.5392
-158.412
20.5741
28.7071
-95.0974
46.3875
39.415
-9.69279
43.6783
20.4704
19.9151
-111.372
-97.7714
5.37066
48.717
26.723
-86.9246
-75.9904
-167.589
-53.4294
-144.386
-61.3337
-4.05734
30.351
38.7989
33.1765
-149.11
-2.51152
44.8825
35.2325
-83.311
27.0698
-121.589
3.39495
14.2516
16.4225
38.2958
-23.6724
-177.188
-221.09
30.6121
-107.379
-90.2025
9.97933
-200.918
-59.8697
-94.9944
-112.615
11.5421
-135.627
13.4816
-86.3391
40.5221
39.3083
10.6423
46.7656
-145.485
56.5349
-41.4271
21.0782
-2.20569
28.2452
16.7948
-17.0327
-148.386
41.2785
48.6005
60.3445
-91.546
-50.3716
-170.351
-0.926612
3.35396
-78.4554
-36.8269
-86.4557
16.6868
-80.1189
-11.1876
-33.1841
5.45557
53.0513
18.3693
18.781
53.6643
-19.8644
-42.7545
56.3025
70.1115
-24.0878
27.7354
29.2819
-2.76764
-230.742
45.3806
48.1294
-61.7403
-148.795
-205.632
-157.142
1.1028
-83.6588
8.70734
41.5951
0.952133
44.5767
-68.2605
-90.5335
40.581
5.26022
-91.4931
23.4022
45.4955
-92.8959
8.86554
-93.1905
-80.4525
-89.5724
61.8945
-146.828
15.9215
-85.5292
34.6461
-79.6903
-59.5027
-43.9961
-78.7992
-15.1838
29.0859
-30.8859
-79.6659
23.2972
-3.90019
-148.506
-0.511201
-71.1752
-3.21709
9.51726
38.0391
-132.982
46.0243
-168.627
1.97629
-1.9091
-12.2434
-179.739
-73.6262
-81.2346
20.7868
30.7184
-10.4501
17.9412
-26.8692
16.3625
-101.075
39.0387
-20.0171
35.2443
-19.5501
-73.717
19.6154
86.6122
-348.223
-94.0349
-130.154
-36.1775
38.4567
-32.8876
22.0692
11.8447
-67.225
-90.0973
-20.9112
-81.6698
17.7997
-62.8302
23.6317
-90.1832
17.2021
23.7604
-0.1386
-17.2423
2.18089
34.4953
-68.9619
-124.013
40.053
11.2104
-77.2961
17.0204
-18.224
-27.2863
11.6036
36.6588
-210.659
34.4752
-44.374
-28.751
-40.4647
-38.2797
-63.7255
-26.2041
-134.647
36.7854
34.1698
-69.2887
84.3494
-172.485
47.4566
44.6278
-94.6168
28.8627
34.1283
38.8421
-5.88048
-105.026
-47.4679
-40.0706
38.0976
28.3909
-41.2327
5.53749
-8.86132
48.5011
18.8074
13.6754
23.1586
40.0874
-12.6462
-16.1794
-132.35
38.5754
32.3423
10.6964
46.6084
44.4887
-11.5174
-144.92
34.9713
34.6458
20.8099
3.21635
-55.1997
-68.8272
-36.7317
-123.168
47.3049
17.054
6.40632
-15.361
9.79095
-25.6753
23.7413
-151.078
-11.3726
35.4564
40.9243
-235.324
34.7669
7.53929
18.8614
24.2318
21.113
25.8813
-17.3152
40.4106
41.4993
38.5566
-86.5475
42.3794
35.6635
38.7506
39.873
-140.887
2.34475
-4.02869
-25.536
36.6618
60.4525
-210.827
66.2492
-110.404
-14.6438
26.5478
34.6792
-39.3467
16.1806
-54.4549
-172.734
15.7413
-232.939
-40.3715
18.0733
20.309
72.9348
30.3534
-181.127
-289.972
21.1156
32.9901
-258.964
-77.8958
-185.903
-10.117
-18.6582
-13.5089
39.068
9.58009
31.7067
19.16
18.5453
-5.40387
7.25348
19.9429
-8.87269
47.0558
-38.7941
-36.9603
-8.85655
-111.344
15.9631
34.3713
4.02218
-1.89619
41.095
11.5658
34.3485
-22.7193
36.8303
21.2801
52.9767
38.0521
-118.528
15.9186
-16.7109
-185.551
-10.9978
-125.085
-33.5749
-204.462
73.6235
10.3098
-5.45113
45.479
-180.395
12.6153
-131.826
-90.0358
-135.238
-47.8383
-8.69806
12.4166
-52.4435
-121.142
22.689
-261.329
-14.1651
-98.6939
6.11442
39.271
-305.65
-239.595
-11.4372
15.7308
-31.1073
36.8083
47.5878
-202.452
37.3085
3.87524
37.2841
59.2418
-136.657
36.9533
16.6581
31.1532
41.7755
23.7046
-1.53929
-106.086
34.2632
47.7013
-219.513
-2.07389
-50.8129
-35.6971
34.7467
-138.499
-37.8698
-217.563
34.0882
-35.5285
16.648
16.258
40.2656
16.4157
-34.3978
5.72048
-92.4971
-81.9509
53.9113
66.1054
36.843
75.1051
44.1971
63.1247
20.5594
8.85352
50.1423
-70.1194
27.0461
14.5154
-18.2923
49.6035
-5.02952
-24.9905
64.6752
21.9412
-123.609
34.1095
31.7574
44.533
-103.39
40.8291
65.3219
-159.804
-14.0143
-27.4121
18.1103
-85.1271
33.0416
15.5234
46.6816
38.45
-241.789
33.0204
-6.39913
-78.9298
-51.4944
-200.535
27.3742
-39.3136
38.7649
9.80623
-78.8234
4.97353
-28.9847
14.0155
-194.783
-125.255
31.5335
26.1458
-86.653
14.604
40.8594
17.0501
-190.976
35.8331
-27.5091
33.3301
-88.9975
41.145
28.778
-30.1138
1.16583
29.5646
17.1247
29.7634
-68.1217
73.2753
-11.7727
-95.4718
30.141
21.7321
-87.2932
-25.3076
-87.4283
-7.64736
2.9336
-32.6251
15.8388
10.8744
77.6646
11.4095
-194.458
4.47253
-16.738
-6.69379
-14.3539
23.8694
41.5038
-85.1002
17.536
-43.6697
-9.6655
16.99
20.6557
38.1329
5.58608
1.78387
2.08666
37.204
20.4398
9.14807
-90.6734
16.586
0.72113
43.9691
-92.7634
9.53257
-119.673
26.5869
-79.1082
14.9549
38.989
34.2608
41.7246
-110.07
-119.808
37.947
5.59005
42.8463
34.1527
22.4982
35.7276
17.5516
29.3698
18.8632
-23.3364
-71.655
40.6271
-50.5111
41.5421
17.1669
77.3124
18.3866
27.7155
36.9246
23.5525
17.332
36.7276
6.0106
14.8622
-44.5054
-61.1142
25.6466
15.5141
0.87748
-147.424
-19.2439
-105.456
-87.3939
-29.7145
39.3331
-2.93587
38.5968
23.465
65.0699
59.8739
31.6291
11.2108
31.1397
-76.1553
45.7303
18.9302
23.5314
15.0952
39.8496
28.4684
-23.3074
-109.989
-28.8547
14.8725
2.17922
23.0829
38.4074
-144.763
11.0685
-62.349
27.9013
33.0867
-22.668
32.0934
32.1604
-0.0534604
22.6126
34.1351
16.835
-46.745
40.9817
18.9928
51.8255
-4.05282
43.7463
29.0389
-73.391
-147.731
-63.2018
-24.6104
-84.5158
-209.35
38.8522
49.4211
43.7454
45.9838
37.7077
41.4959
32.8608
13.4093
33.7371
0.997522
25.1401
23.0729
-0.683596
58.018
18.7921
-81.0145
38.7672
48.4007
56.6484
-86.166
7.45846
-122.018
-20.6453
33.6975
9.16797
-249.138
40.8314
64.9119
-98.4736
-17.5743
-88.8095
31.9239
14.0533
25.1463
18.5083
16.3638
-232.003
4.67028
-0.600812
-86.1764
40.7694
38.9388
44.4336
-6.72603
-72.1936
-3.93935
9.15523
-42.9835
3.07553
19.9541
14.3066
-10.6578
2.16039
-14.8963
-58.1667
29.5506
-40.2793
17.1488
33.0744
2.23887
2.09729
-70.6756
-111.819
-42.9537
39.9983
16.0943
-14.1912
38.072
43.2631
-32.0823
-16.5509
9.07333
4.51988
-224.534
11.3811
14.0521
-30.5492
33.035
-100.818
35.6407
-47.7498
19.4536