/*--------------------------------*- C++ -*----------------------------------*\
| =========                 |                                                 |
| \\      /  F ield         | OpenFOAM: The Open Source CFD Toolbox           |
|  \\    /   O peration     | Version:  2306                                  |
|   \\  /    A nd           | Website:  www.openfoam.com                      |
|    \\/     M anipulation  |                                                 |
\*---------------------------------------------------------------------------*/
FoamFile
{
    version     2.0;
    format      ascii;
    arch        "LSB;label=32;scalar=64";
    class       surfaceScalarField;
    location    "4.1";
    object      phi;
}
// * * * * * * * * * * * * * * * * * * * * * * * * * * * * * * * * * * * * * //

dimensions      [0 3 -1 0 0 0 0];

oriented        oriented;

internalField   nonuniform List<scalar> 
20045
(
1.35853
-1.50774
0.14921
-2.75823
1.09636
1.66187
1.10528
5.11412
-6.2194
0.540585
-0.885151
0.344566
-2.56174
1.9815
0.580244
-1.54446
5.45848
-3.91402
-1.93574
0.0140007
1.92174
0.0599904
1.33444
-1.39443
1.39995
1.00213
-2.40207
-1.85829
-0.347203
2.20549
-1.02341
-0.84211
1.86552
5.07456
-2.28536
-2.7892
1.00456
-1.01033
0.00577205
-2.95685
2.57781
0.379032
-0.130689
2.04583
-1.91514
-2.56176
0.703475
-0.124376
-0.303499
0.427875
0.6079
-1.19805
0.590148
-3.9297
5.79657
-1.86688
-1.94692
0.044979
1.90194
-1.95803
2.37869
-0.42066
0.343663
0.660898
-0.477373
-2.28086
3.27824
1.68015
-4.95839
2.02349
0.412691
-2.43618
-1.90472
5.18296
-0.00577271
0.0700645
-0.0642918
-3.29471
6.49249
-3.19778
5.53382
-0.238542
-5.29528
-6.89598
3.8148
3.08117
1.55968
1.14728
-2.70696
2.73489
-2.24616
-0.48873
-1.39578
3.86693
-2.47114
6.79522
-3.5859
-3.20933
-1.6703
1.73029
2.04318
-0.934554
-1.10863
6.04758
-5.0956
-0.951977
-0.168915
1.09013
-0.921211
-3.62793
4.81166
-1.18373
1.45212
1.47295
-2.92508
-0.378534
1.74745
-1.36892
0.517146
-0.704145
0.186998
6.27868
-6.36588
0.0872
3.57154
-1.25441
-2.31712
1.59561
1.97592
2.11634
2.95822
-1.39511
-0.108049
1.50316
2.75982
2.73954
-5.49936
0.907671
5.13991
0.618896
4.6527
-5.2716
3.30632
-5.47892
2.1726
1.57507
-0.175895
-1.39917
-2.77041
-1.49643
4.26684
-0.29592
-0.817943
1.11386
1.5212
-1.86125
0.340047
-1.74897
-0.812775
-1.10425
4.5935
-3.48925
-0.413234
2.54983
-2.1366
3.18864
-4.58443
6.0366
-1.36025
-4.67635
-1.09152
-0.86323
1.95475
5.54862
0.487975
1.31706
-4.76786
3.4508
-2.6128
0.654767
1.82662
1.73488
-3.56149
6.75208
-4.98961
-1.76247
-0.356597
0.730773
-0.374177
-1.72024
0.290696
1.42954
2.31535
-0.915402
3.94557
-5.16268
1.21711
-0.80674
0.450144
1.21726
0.303942
-0.610683
-2.70166
3.31234
0.671611
-0.534185
-0.137426
5.91236
-4.66363
-1.24874
3.12186
-4.22611
4.65012
1.26224
1.56855
-1.69924
2.476
-1.07774
-1.39826
-0.409916
-3.09901
3.50892
1.78589
1.11469
-2.90058
2.21738
-1.87043
-0.346951
3.52299
-2.20593
-6.68762
1.12862
5.559
0.0238229
1.33471
-1.08053
1.39189
-0.311361
0.800456
-4.27725
3.47679
-3.97408
0.0973546
3.87672
2.46197
0.567713
-3.02968
-2.00157
1.73135
0.270222
-2.6886
-0.345679
3.03428
2.19361
-0.629686
-1.56392
1.1154
-1.60872
0.493312
-0.536636
-2.00462
2.54125
1.60152
-1.78507
0.183555
4.08547
1.917
-6.00247
-0.138178
0.132406
-0.658599
0.819495
-0.160895
3.14991
-1.69779
-0.169278
-0.109336
0.278614
1.49482
0.548359
-1.04192
-1.91493
0.895052
-1.55365
-1.94225
1.52902
0.023325
-1.10385
0.0115891
-0.180867
1.00442
3.11323
-4.11765
-0.563327
-3.77696
4.34029
1.0809
-1.45642
1.2278
0.228614
-0.855154
1.07477
-0.219619
2.1388
-2.08308
-0.0557182
-1.40196
1.10604
3.261
-5.6525
2.3915
-0.568246
0.923876
-0.35563
0.145006
-1.02212
0.877113
2.71378
-0.690293
4.575
2.22023
-3.00069
2.39
5.49257
0.353381
-5.84595
1.33898
-0.73108
-1.81833
0.726802
-2.1832
1.70802
0.475181
-4.19125
0.358674
-1.69107
1.33239
0.0206228
1.55444
2.52395
-3.62428
1.10033
3.90686
0.474469
-4.38133
-5.65321
3.84804
1.80517
-2.28122
-3.1917
5.47291
1.33621
-1.31559
1.40198
-1.51003
0.545212
0.245563
-0.790775
-0.00467886
0.00155176
0.0031271
2.88358
1.9678
-4.85138
3.00455
-2.76805
-0.2365
-0.913863
0.238179
0.675684
-1.04713
-0.409289
-0.355275
5.84784
-1.90555
1.88027
0.0252884
2.90479
-5.68624
2.78145
0.367508
-3.13791
2.26236
0.991631
-3.25399
3.92515
-4.33507
5.53059
-0.869222
-4.66136
2.18361
-4.14107
1.95747
5.06965
-2.40107
-2.66858
-0.486373
0.825753
-0.33938
-0.360562
5.44364
-5.08308
5.65885
-0.125021
-4.10008
0.106498
3.99359
-2.53799
1.6052
0.932788
2.56681
-0.780914
0.685411
1.53197
-3.07585
3.73919
-0.663342
-4.43266
5.53795
-0.00603448
-1.33322
1.33926
-1.42219
-0.224552
1.64674
-0.146155
-1.019
1.16516
5.65702
0.0750206
-5.73204
6.86893
-3.40979
-3.45914
-1.26648
1.12032
1.19434
-2.22435
1.03001
0.642969
-0.125823
-2.11815
-2.11536
3.19003
-1.07466
-3.1407
2.27027
0.870424
-0.0431699
-0.250315
0.293485
3.04806
2.02159
-0.0245863
0.0199074
-0.712163
1.25737
-3.41183
0.33598
-3.73003
4.64197
-0.911943
-3.31383
3.45479
-0.140965
-1.38912
-2.53847
3.9276
-0.104392
2.32322
-2.21883
2.04266
-2.09226
0.0496022
4.91713
-0.0776804
-4.83945
-0.0545707
-3.7237
3.77827
-1.57308
3.83544
0.885274
-2.83226
1.94698
-2.41356
5.67456
-3.59586
2.58689
1.00897
-0.0895456
0.109142
-0.0195966
2.78629
-6.45492
3.66863
-5.15011
1.85539
-3.70036
-1.52639
6.1158
-3.58636
-2.52944
-2.26197
1.88344
0.998404
-1.0713
0.0728991
-6.06965
5.88804
0.18161
-4.95488
6.83336
-1.87848
2.25314
-3.58765
1.3345
0.176457
-1.09774
0.92128
-2.71199
-0.301901
3.01389
0.78457
-1.80798
-4.35135
2.07014
-3.68676
-1.10906
4.79582
0.686847
0.158345
-0.845191
0.729052
-2.84441
-1.13909
2.69877
4.2079
-0.301044
-0.91835
0.749435
-1.18588
1.52295
-0.33707
-0.994683
6.6517
-3.39304
0.681051
-0.893956
0.566872
0.327084
-3.60972
0.720004
2.88972
-0.599864
2.85301
6.71337
-3.92708
4.09243
-6.92703
2.8346
3.25301
-6.57349
3.32048
0.232259
-2.17918
-2.53579
3.54021
3.13151
-4.67597
3.35186
-5.3273
1.97543
-7.36312
4.14988
3.21324
-0.216729
-1.78485
1.00062
0.762966
-1.76359
3.63342
-1.41574
-2.21769
-0.233713
-3.82833
3.46776
-1.36307
-0.542487
3.18217
4.82105
-3.54887
-1.27218
-0.0542607
-0.753132
0.807393
3.15733
0.687564
-3.84489
-1.98469
-1.14773
3.13242
-2.36003
4.5468
-2.18677
-4.1703
4.97075
2.92603
-2.04076
0.305636
1.96359
-2.26923
4.80821
-1.90342
0.671186
-0.0637135
-0.607473
-2.36164
-0.541453
2.9031
-0.783673
0.820602
-0.0369295
6.03141
-3.60157
-2.42984
1.29066
-6.24554
-0.874769
0.0910963
-3.88936
1.14443
2.74492
6.32504
-2.45811
1.14929
-4.87931
7.1156
-3.18919
-3.9264
-0.103998
0.790845
5.43373
-6.17796
0.744227
-3.06181
0.587888
2.47393
-4.53359
4.52571
0.00787493
2.62944
-5.64058
3.01114
0.0427978
0.0226244
-0.0654222
-2.32064
2.99982
-0.679187
-0.555625
1.46927
-0.913641
-0.852345
0.284099
-1.04784
0.192685
-0.117399
-3.65957
0.866767
-4.03834
3.17157
-1.93266
2.24057
-0.30791
1.81054
0.924348
5.09688
-1.74502
-2.05175
0.629558
3.14848
3.17655
-2.57624
0.226804
2.34943
6.18598
-0.752253
1.9281
0.117734
-2.45604
0.523374
-1.55658
-0.386185
1.94276
0.110245
-0.199791
-5.00457
2.64454
3.06424
-3.24435
0.180117
-4.51335
4.36389
0.149461
-2.62404
2.70424
-0.0802013
-0.818311
-0.645704
1.46401
3.74906
-4.19899
0.449931
-4.361
-3.00212
5.76637
-3.37954
-2.38682
-0.608405
0.554145
6.07181
-3.44237
-3.47201
4.33877
-3.85222
1.26228
2.58994
4.60332
-3.19909
-1.40423
5.59168
-2.46318
-3.1285
-2.85458
-0.997639
4.20373
-2.61241
-1.59133
-0.951114
4.01629
-3.06518
1.28124
-4.41313
3.13188
0.937291
0.839552
-1.77684
-0.226828
-0.148895
0.375723
6.26265
-5.37163
-0.891026
-3.28067
-2.37254
2.70144
2.11961
-4.11626
-0.39709
0.465558
-2.8272
1.76014
-8.33148
6.57134
0.00852329
0.989881
-2.67199
5.55558
2.66917
3.36224
6.67555
-3.88117
-2.79438
-5.2897
4.18064
2.87919
-5.44584
2.56665
-3.11477
-0.318581
3.43335
-1.96193
-0.238814
2.20074
1.98091
-0.786566
-1.02807
0.13411
3.19061
-0.446376
-1.79978
-6.20065
0.21142
5.98923
-1.48808
0.302202
-2.03713
2.34277
0.528031
-5.06162
1.08582
-5.25612
-5.16197
-1.0077
1.23973
-0.232032
-0.134218
0.674803
-2.2689
1.67753
0.591369
1.60648
0.532322
2.32907
-0.874735
-1.45433
2.33738
0.667166
-5.99569
7.75583
2.87099
-0.409022
-1.09242
-2.51731
5.88869
-5.29914
-0.589552
1.65648
-7.94837
3.13813
4.81024
3.92421
-4.3736
0.449387
-2.31222
1.77558
-0.746522
-0.167341
-0.515625
-2.17298
1.76397
-2.73487
0.970897
1.9968
2.20693
2.87141
-5.43302
2.56162
1.55196
-2.73048
1.17851
-4.87223
0.89815
0.2586
1.93501
-2.0171
3.06371
-1.04661
-1.14533
1.59641
-0.451079
-2.46161
0.525867
-0.589117
-1.33888
1.92799
0.585078
0.0131387
-0.598216
-1.19834
-1.33965
1.75812
2.26613
-4.02425
5.95376
0.232221
0.88412
-2.26567
-0.0465505
2.49324
-0.941276
-3.10366
-0.492197
1.39399
-1.35589
-0.0381
5.51838
-2.75855
-2.53098
3.71712
-1.18614
-0.687867
0.795397
-0.107529
3.38151
0.251918
-4.06703
-4.26444
-2.5516
4.41286
-1.86126
2.4746
-5.25364
2.77904
3.00338
2.76299
0.109259
-0.108854
-0.000404772
0.563115
-3.67788
1.72255
-8.04033
6.31777
0.361158
0.310452
-0.622449
3.14639
-3.78715
4.87297
-2.96355
6.21656
0.966179
-4.89588
-3.27052
1.64357
1.62695
3.29712
-0.648101
-2.64901
4.71483
-0.965775
-2.7461
-1.7796
-0.768036
3.07398
-0.346179
0.81372
-0.467541
1.65521
-1.61023
-3.72696
3.10451
5.08628
1.1924
-3.85882
1.32784
4.56659
-1.86515
-0.910817
1.45269
-0.541878
0.145758
-3.00726
2.8615
-4.49148
0.794861
3.69662
4.27474
-4.27474
-7.48901
8.59066
-1.10165
1.4017
0.927371
2.88956
-1.37554
-1.51402
-4.65373
4.86
-0.206269
1.85202
-0.0443795
-1.80764
1.42414
-0.526794
-0.897345
0.630403
-1.44871
1.0558
1.51113
-4.98314
-4.0463
4.73234
-0.686035
-1.4713
3.22942
-0.177904
0.0972653
0.0806383
2.95495
-2.28242
-0.672524
-1.94124
2.1735
6.54729
-5.16341
-1.38389
-0.457865
-2.52768
2.98555
-1.2778
1.39461
-0.116817
0.770938
-1.4405
0.66956
1.27226
-4.50641
3.23415
-0.430714
-0.454437
-1.32978
0.418961
-0.272238
0.0380667
0.234172
3.16766
3.09499
0.0834597
-0.261363
-0.314762
-1.23463
1.54939
-2.61734
4.06546
-1.44812
1.25272
0.481678
-1.7344
1.63812
-1.62412
4.51496
-2.18884
-2.32612
0.177381
-2.182
0.923632
3.99349
2.28805
1.25435
-3.5424
2.40606
-1.98039
-0.425672
-5.05598
0.955899
-1.75891
0.74159
1.01732
2.26891
3.36522
-5.63413
-3.21815
2.89957
0.361068
-4.59281
4.23174
-0.681036
0.857493
0.00290393
-0.0213799
0.018476
0.355111
-1.91169
-0.135595
1.23574
-1.10014
-3.11965
-0.769705
3.05866
1.05978
-0.538497
-0.521286
-0.727696
0.0398291
0.72914
-3.46187
2.73273
1.30846
2.52513
-3.83359
2.23463
-3.45255
4.19837
-0.745823
-3.65669
2.70558
0.127987
-0.0579222
-1.84961
-1.29109
-1.41174
0.354176
1.05756
-4.36816
1.75082
3.23524
-3.6931
2.39004
2.17655
-1.90842
1.62212
0.286304
1.36399
-5.39943
4.03545
0.878994
-1.44865
0.56966
4.46564
-8.53267
-2.93902
-0.374806
-1.69318
-0.027051
1.64208
-0.816765
-0.825317
2.18629
0.0825124
-0.12634
0.0438274
5.44173
-3.17282
-3.04363
6.77362
-3.72998
1.42843
0.921658
-2.35009
-1.66973
0.988698
-1.19979
-0.211953
2.2062
0.683362
6.59601
-6.24263
1.29675
0.0972407
2.99527
2.1648
0.706195
-4.50214
5.12104
0.639605
-2.12246
1.48285
-0.469677
-4.11464
4.58432
-0.408633
0.396663
0.0119701
-2.38419
2.27979
-2.66684
3.94808
4.39966
-2.21606
-1.92437
-0.344529
0.0368138
-2.17304
2.13623
2.07174
-3.46087
-0.576991
-2.21084
2.78783
0.300825
0.293944
-0.594769
-3.18584
0.113186
3.07265
5.66736
-2.92783
-0.0522821
0.522015
-0.469733
-1.18371
-0.0940826
0.846085
1.92238
-2.76847
0.899089
-1.06594
0.16685
1.03186
0.799214
-1.83107
-2.56903
6.65451
0.582168
0.00290998
-1.49727
-2.08546
3.58273
-5.36836
5.01308
4.6263
-3.31784
-1.88631
1.2972
-0.301302
0.0744746
-2.42684
5.30603
0.579803
-3.7727
3.1929
7.90904
2.20314
-10.1122
-2.33006
3.30341
-0.973347
1.92869
-2.35145
-1.87862
4.23008
0.301545
-0.183164
-0.11838
-1.36778
-2.45138
3.81916
0.395388
2.55956
0.261388
-0.304558
2.56606
-3.93384
-3.44366
-1.13868
4.58234
-0.221098
-2.50152
2.72261
-0.132817
6.60858
-6.78969
0.181115
1.10051
-0.626107
-0.474402
-0.259641
-1.64878
1.28026
1.26099
-1.66942
-0.29251
-3.95545
5.02162
-1.06617
0.456994
2.60724
0.112978
3.81217
-4.80199
-1.56389
0.193459
-0.0666191
-0.12684
2.64831
-0.483513
-1.17436
1.27148
-0.0971208
1.28118
-1.8368
-5.9108
2.21043
4.468
0.990488
-0.529449
1.30039
-1.03656
2.465
5.25421
-3.74308
-1.17959
0.00523804
-0.730483
-2.99648
0.859966
1.41471
-1.42074
-4.61554
0.124062
-0.847758
1.13282
-0.253825
0.0681719
2.33623
-2.4044
5.09214
-1.14657
1.04269
-0.354314
-0.688379
1.73607
-1.46026
-0.275814
-1.44438
0.509828
-4.96292
2.41132
3.04335
-2.90258
-0.14077
-0.291832
0.288847
0.00298528
4.88371
0.00606111
-4.88977
1.19924
0.114676
-1.31391
-0.800427
-1.38277
1.2353
-0.119892
-0.267945
0.203609
0.0643354
2.1454
0.0165688
-2.16196
-0.132425
-0.13552
5.31814
-3.40114
-0.173061
-0.768225
0.941286
-5.09695
1.1415
0.112046
-0.980385
1.87544
0.187926
0.871858
-0.753775
-1.29797
1.14049
1.06171
-2.20221
2.90838
-1.08176
2.02118
-1.38157
1.2428
-1.0978
0.467257
-1.61258
2.69098
1.34878
-4.03977
2.77313
-0.323626
-2.4495
-2.86667
-1.27441
-1.21053
-0.164062
1.37459
1.79865
-1.84059
0.0419343
5.44138
-0.122795
-5.31859
-1.57497
0.449402
1.12557
-2.57049
3.41616
-0.845671
3.00855
3.16186
-6.17041
1.24378
-2.10701
-1.59185
2.26021
-0.668361
1.10365
0.566812
-1.67047
-5.53159
3.52212
2.00948
0.155904
0.0477047
-4.23418
0.790526
1.64942
-1.01757
-0.631852
2.27795
-2.93505
0.657097
-0.484541
-1.0232
0.89134
5.71724
4.12255
-0.761763
-3.36079
-4.09913
0.646578
1.71166
-2.80408
3.8019
-6.25642
2.45452
-0.534602
1.53522
-0.0289193
-1.74253
1.42777
-0.835383
1.19406
-1.12167
-3.98331
5.10498
3.05964
3.01217
-3.63514
3.8927
-0.257557
0.76429
0.877792
-2.44246
-1.03933
-0.650503
0.723504
-0.0730008
-0.153343
1.51434
-1.361
-1.09518
1.72305
-0.627865
-0.376496
2.65445
-3.55284
0.0162926
3.53655
-3.98239
-1.15657
5.13896
2.21817
-1.76157
-0.456594
-1.56614
0.0301157
1.53602
0.35357
-0.314385
-0.0391842
-4.77972
0.260336
4.51939
0.140689
1.01495
-1.15564
3.82566
-4.32939
0.503734
-2.4266
1.27813
3.51005
-4.78818
0.0505189
-0.701022
-1.0549
-4.55109
5.60599
3.15099
-5.56455
-4.72882
4.13853
0.59029
1.08549
-0.1864
4.61524
-4.50226
-0.282463
-0.990414
1.27288
-0.0874556
1.07272
-0.985261
-0.362567
4.30596
-3.9434
4.94293
-1.62572
-3.31722
5.05725
-4.85507
-0.202182
3.58941
-1.19854
-2.39087
0.230984
-1.21705
0.986063
-1.55288
-0.138185
-4.88936
4.2613
0.628063
0.229174
-5.11853
-2.4872
3.25299
-0.765787
-2.77259
-2.59904
1.04749
-0.873011
-0.174483
-4.00373
-1.09321
-0.993617
0.674094
0.319522
-3.01107
1.02638
-4.72736
4.50426
0.223105
-0.412527
-0.122285
-0.4119
1.3285
-0.129268
-2.86776
0.547124
0.790284
-0.909638
0.119354
-0.427906
1.88718
-1.45928
2.16266
-0.310639
-0.966508
3.4638
-0.0822878
1.74541
-0.856049
0.648504
0.207545
-0.378342
2.421
-3.13018
2.124
1.00618
0.199498
-0.0435938
5.975
-2.91536
4.48555
-3.12156
-1.01349
-0.720109
1.7336
3.2921
-5.26714
1.97504
2.85089
-3.07199
2.86648
-1.75941
-1.10707
-0.0329583
-2.71775
-0.412429
-5.28919
6.97488
-1.68568
0.242163
-1.71883
5.81126
-5.2362
1.23247
1.67552
-0.738227
-0.414733
0.205048
0.84568
-0.0250778
-2.2328
-0.875873
6.33497
-3.21311
-2.13716
1.72114
0.416017
0.294162
1.12998
-3.94543
-1.64203
5.58746
0.549538
1.43137
-0.011629
-0.766447
0.778076
4.10118
-0.748064
0.20066
0.547405
4.01805
-1.32707
-1.57077
-4.83101
0.784712
-1.23739
0.0903525
1.14704
3.17889
3.93671
-0.657079
-0.636379
1.29346
4.8598
0.197455
3.06821
-4.25083
1.18262
-4.03048
-0.0583014
4.08878
-3.99436
5.09273
-1.09837
0.74112
-0.0158126
-0.725308
-2.3238
5.47479
-0.520699
-2.77738
3.29808
0.233199
-3.86834
1.58276
-0.876745
-0.706013
-4.64752
6.09309
-1.44557
-0.945568
2.72287
-1.7773
5.80124
-2.56591
-3.23533
0.0418535
-2.9239
2.88205
-0.0404124
0.0190324
-2.54732
5.55587
-0.466824
-7.02219
5.28173
-2.80713
-0.979071
0.80601
-4.23044
0.199964
5.87038
-2.99898
-0.0576462
-6.62998
1.63409
0.11336
2.76984
1.00865
-3.77848
2.71208
-0.722063
-1.99001
4.39595
-5.731
1.33504
-1.03044
0.0442393
0.986203
-0.903687
-2.4968
3.40049
1.78967
-1.32241
-1.18891
-0.288188
1.4771
0.494281
1.23597
-1.73026
0.405788
0.641705
-5.29186
6.08337
-0.79151
-0.183292
-0.225342
2.32338
0.993661
-3.31704
2.41207
3.1606
-5.57266
0.882788
2.41433
-0.0206626
5.55125
-0.0740532
3.95913
-3.88508
1.90915
-0.65643
0.262657
-0.0629775
-0.19968
6.36248
-4.61276
-1.74972
1.80447
1.06201
-0.299535
0.319009
-0.0194736
-1.32017
3.90027
-2.5801
0.0269252
0.881743
-0.908668
3.84826
-5.5693
1.72105
-1.98876
-2.53016
4.51891
4.05087
-0.893542
1.34633
1.36575
-3.17606
0.707183
2.46887
1.43565
-3.96333
0.733328
-2.15174
1.41841
0.979973
-0.297374
-0.682599
0.158104
-0.198516
-0.316054
3.85459
-3.53853
-0.902164
5.55486
3.73015
-3.08552
-0.644625
3.22344
-2.65573
-2.3953
0.824375
1.57092
0.854801
-2.23035
1.76319
-2.65435
0.891166
0.325236
0.717457
0.762611
3.61613
-4.37874
1.45043
0.694964
0.626924
-4.60931
-2.00032
-0.231331
2.23165
-1.83228
-0.990025
2.82231
2.56494
-1.42445
-4.1635
2.6922
1.25578
-0.939018
-0.316762
-1.37253
4.64764
-3.2751
-2.16036
2.33774
-2.35994
2.00584
0.354104
0.024771
3.45494
-3.47971
-0.0922966
1.18112
-1.08882
-0.55027
0.258438
-1.47904
-0.490156
0.389817
0.100339
-2.76405
3.48406
2.4533
-2.62293
0.169633
0.743597
2.48552
-3.22912
-6.32281
3.97558
2.34722
0.142601
0.169999
-0.3126
-0.849611
3.59784
-3.96041
5.21048
-1.91837
-1.37667
-1.89385
-3.52989
3.45583
2.31344
-0.0431656
1.75043
0.457289
-2.20772
-1.76423
1.58833
0.175905
-1.63311
1.80446
-0.171349
0.336614
-3.12655
2.78993
1.10342
2.81902
-3.92244
-3.49343
-1.33684
4.83027
-2.5158
3.2594
4.00311
2.35937
-6.18386
-0.529758
6.71362
-2.30617
0.409102
1.89707
0.0443312
0.943309
-1.21543
0.272125
-4.0961
-3.74066
4.07727
0.729491
1.04968
-0.818693
-1.24262
1.08927
2.39361
-5.5853
0.0803095
1.52121
0.620927
1.08339
-1.70432
-3.25233
-2.66161
5.91394
-1.82333
-1.35273
-2.38283
-0.469392
2.85223
0.281667
1.28158
-1.56325
0.00200949
5.52935
-3.54123
-1.98812
0.931706
3.19084
0.557444
0.387273
-2.36079
1.97351
-2.87032
4.82865
-1.95834
-2.66943
-1.25271
3.92214
-2.32946
0.737614
-1.78811
-0.607182
5.2957
-2.3036
-2.9921
3.02684
-0.41692
-2.60992
1.703
0.369425
-2.07242
-0.872787
1.01348
-0.470554
-0.65739
1.12794
-0.0655977
-0.183137
-1.08334
-0.043188
3.14922
2.14648
2.05532
2.75633
-2.24551
6.06032
2.83021
0.19663
-4.10902
1.43959
3.6503
-3.08718
-0.587828
-3.19281
0.622317
0.591089
-3.07829
3.44653
-3.30078
4.11972
-0.195511
-1.02076
-0.587952
-0.994313
-0.421311
1.41562
-1.53852
-0.246549
3.72868
0.654294
-4.38297
-0.00649127
-1.23796
1.24445
-0.721817
6.52269
-5.29378
-1.22891
4.16064
-0.33498
-4.53765
5.3021
-0.764451
1.05243
-0.761731
-5.14428
-1.17853
-1.27678
4.35503
-0.0937359
3.88168
5.14673
-1.76256
-3.38417
-3.08914
-0.147249
3.23638
1.22365
2.32744
-3.55108
-3.48834
0.30251
-0.871445
-0.461416
1.33286
-2.36485
2.94466
0.713348
2.43775
-3.1511
0.106239
-0.352422
0.246183
-4.65585
0.612904
4.04295
2.87622
2.33426
-1.4673
2.6967
0.892705
-1.19164
-0.567272
4.1696
-5.03882
1.81584
-0.973395
-0.842443
2.17429
-0.930505
3.32312
0.156408
-3.47952
3.75534
-6.00085
-0.00722442
0.0500222
-1.80721
2.58995
-0.782745
-5.78334
4.72844
-0.221944
1.60219
-1.38025
-0.985732
0.617621
0.368111
-2.26853
-0.115654
-1.28799
2.99965
0.0656223
2.97773
-0.795768
0.846287
-3.26226
2.11453
0.204845
-0.182221
-1.03925
0.98105
0.0581987
1.03984
-1.18677
0.146932
-3.09163
-1.572
0.634532
-3.01737
-0.607664
-1.65431
-0.0487418
2.7965
-2.74776
1.60719
-1.99337
0.599882
-3.91323
3.31335
-0.15907
3.61846
-3.45939
-5.72598
-0.474676
-2.46731
-0.105178
-4.62364
3.10093
3.23404
-3.58017
-0.583334
-3.25969
-4.68868
-2.15116
0.812281
0.0784609
-0.300503
0.222042
6.43849
-3.2596
5.06245
-3.3399
-1.22353
-0.745568
1.9691
-5.70526
2.63607
3.06919
-1.97448
1.13237
-3.01939
4.29752
0.822455
-0.478792
-1.91686
-2.87458
2.35388
1.55368
-1.85369
0.300013
-0.627398
4.35608
-1.71155
2.4114
-0.699848
7.60377
-5.99785
2.57887
3.41898
0.564039
1.39985
-1.96389
3.58347
-0.656854
-2.92662
-2.58416
1.63859
-2.61648
-0.0876318
1.79063
4.40215
-4.87182
2.07595
-0.972292
-1.86835
3.30399
-2.23275
2.64107
-0.408322
3.92475
-5.72937
1.80462
-3.34156
3.63977
-0.298211
1.90468
-2.28303
0.0508777
0.979367
1.2388
1.67702
-4.77603
4.48592
-4.92062
3.44556
1.47506
1.0841
-4.17323
6.80743
-0.124636
-2.93718
0.58631
1.04426
5.1151
-1.77199
-3.34312
0.0192129
1.08039
-2.91267
0.817209
-4.56319
4.41594
-3.82022
1.46877
2.27712
-4.53712
1.66782
2.86929
0.228333
-0.179703
-0.0486295
-0.373814
1.02247
-0.72165
-4.86004
3.43925
1.42079
3.18001
-5.50381
-5.03194
-0.259918
6.14173
-2.33983
0.789155
0.983804
-1.77296
-0.13731
-0.791396
0.928706
-0.605463
0.787212
2.57931
-1.9401
-2.59702
0.732333
1.05734
1.00662
1.79858
-2.8052
1.92546
-1.1625
-0.0535997
-5.0289
5.0825
-1.58239
1.66934
-3.24242
-3.48344
-2.24699
5.73043
1.13182
-1.7615
-3.31518
0.947918
2.36726
-0.871179
0.564373
0.306806
3.74097
-4.86264
0.43278
-2.23999
3.24981
2.4879
-5.73771
-2.08895
-0.0482109
-3.98765
1.11937
2.86828
-4.5613
2.57254
1.85669
-4.72701
1.28843
0.527412
-0.141822
-0.729357
-3.9962
11.9052
-2.88368
3.71303
-0.829353
3.08526
-0.325011
-2.76024
-2.36278
-0.0776277
-0.930068
0.214071
4.06067
0.626726
0.168671
2.57486
2.14698
-0.745279
2.40998
-0.362288
-1.27082
-4.43151
-0.295853
-6.28388
-2.39065
-3.78731
0.815125
1.00869
-1.82382
2.06085
-0.139297
-1.92155
-0.560627
0.544815
-1.65836
-3.30455
-3.71906
-0.654533
-2.34393
6.09927
-1.66265
2.29268
-0.630032
-4.8295
1.57717
-1.42177
2.42839
3.43622
-3.36804
-2.38311
-1.36001
1.40961
-2.26602
1.83812
5.05966
-0.704625
4.48178
-0.975728
-3.50605
-0.446103
2.40969
1.29749
4.81762
-4.45655
-0.122939
-1.13597
1.62928
-2.32101
2.54781
-2.26009
-2.42292
1.17709
0.784483
-1.96157
-4.34138
0.0666388
-0.656392
3.73478
-3.07839
0.27135
-4.809
-3.19774
3.88531
6.76322
-3.11657
-3.64665
-0.498658
1.24025
3.09873
-1.55214
-1.54659
1.3157
-1.49883
0.19077
0.0718873
-0.624416
-0.0773292
0.701745
-0.433817
2.18425
-2.41389
5.59389
-0.101171
-0.77184
-1.35134
-0.433579
1.78492
-0.319275
4.06024
3.87536
0.00733449
-3.88269
-1.8959
2.74198
1.92283
1.97744
-2.40212
0.401796
2.65973
-1.08332
-1.57641
-0.191705
0.037644
0.154061
0.752664
-3.71389
2.96122
-4.44709
0.728022
1.11482
-5.64244
3.25179
-0.0931983
1.4089
0.617586
-2.28023
-2.12062
1.35259
-4.88631
1.47652
-2.21747
0.276228
-1.71356
-2.53102
4.24458
-0.354596
0.0998167
-0.0708771
-0.0289396
4.98734
-3.85872
3.7694
-2.54575
0.597725
2.5653
-3.16302
0.814934
-1.68638
-8.23691
4.47829
3.75862
0.457106
-1.72662
1.26951
-2.99456
5.93469
-2.94013
3.0187
-2.12393
-0.89477
1.17677
0.312577
-1.48935
-2.5766
-3.42125
-1.527
-0.166182
0.94456
0.391652
-0.0764586
0.497248
-0.42079
-3.20705
-0.7806
3.18646
2.61012
-2.58992
3.11335
-0.523429
-0.836517
1.03718
-0.371
0.763301
-0.392301
0.861333
-2.57288
-0.495167
-4.36488
-3.58712
1.09206
0.163723
1.61387
-2.75297
0.379922
3.42626
-3.80619
-2.37442
-0.493345
-0.749502
6.70327
0.341836
-1.38896
-0.488594
0.459272
0.0293214
-0.0213555
-1.52297
1.54433
0.576273
2.12797
5.33097
3.94108
-1.94428
3.57833
-1.90899
-0.525507
-1.26575
1.79126
3.52085
0.49544
0.0253798
-3.19578
2.29209
1.6076
-1.92687
-2.18719
-3.21413
5.40132
-2.88833
-2.81693
-5.45956
5.64664
-0.187085
0.857262
-1.53827
1.11696
2.52385
1.41723
-0.316366
2.60645
-2.29008
-2.8646
-2.29809
3.82151
-8.02958
4.20808
1.72575
-1.17621
2.19734
-1.46401
2.55373
-4.21209
2.05779
-1.6451
-3.04363
6.3221
-3.27848
2.98044
1.87645
1.51727
-3.39372
5.22791
-2.93488
-2.29303
-2.98737
-2.54624
5.00552
-2.45928
1.21847
3.26331
-1.46716
1.37397
2.00646
3.79477
-1.07994
0.942628
0.0575817
0.0249307
4.49923
-2.53143
2.49872
3.93976
-1.99391
1.04843
0.945481
0.9164
-1.92989
3.47433
-0.151211
2.34659
-1.55744
-3.05806
-0.604785
3.66285
0.914204
-0.145486
-0.768718
0.759459
0.34105
0.611108
-4.60546
-1.42338
1.77849
3.15937
-2.8625
-0.29687
0.923852
1.73588
-0.733919
0.379605
1.48198
0.870188
-2.35217
-1.94715
5.13579
-0.430596
-2.71162
5.06034
-2.34871
-1.15513
1.64942
0.624081
-0.517842
5.03169
-2.5171
-1.59916
0.999239
2.58423
1.41091
-2.01857
-0.942643
0.850346
-1.29995
-0.714375
-0.0133214
1.8695
-0.788645
3.77067
-2.98202
-0.269717
-0.00252133
-1.44184
0.451421
-1.58922
0.0622196
-3.94301
2.44574
1.33373
0.926478
-1.14997
1.89213
-0.742153
0.927455
0.464431
3.56308
1.97106
-5.53414
-0.522742
-0.0992036
0.621946
2.4291
-5.47273
4.62146
2.14175
3.63839
-3.25847
-4.97307
-0.27822
-0.000934965
0.150066
2.12503
2.972
2.93987
-5.91187
2.0855
-0.478312
-0.159484
-1.54078
-0.453121
-0.623209
-1.68176
2.53656
4.57299
2.20063
2.53496
-2.58939
0.054425
0.964481
0.0165689
-0.289847
1.23147
-0.191629
3.39903
0.877556
-4.27658
1.87876
-0.325079
-1.10304
0.662158
0.440887
-1.65126
-0.12763
1.77889
1.23137
2.90308
-4.13445
0.891198
1.67374
3.1747
-0.125101
-1.27686
1.69678
0.450197
0.246443
0.364487
-0.610929
-4.43256
2.90617
3.91488
-3.04313
-0.871745
0.0849484
-0.732998
0.648049
3.69483
-4.01089
2.48483
-0.759076
1.87596
1.89344
-0.651157
-0.0632182
-1.0473
0.813086
0.234216
-2.51857
-0.624341
4.98971
-2.56383
-2.42588
2.67847
0.273012
-2.95148
2.10137
-3.23977
1.1384
0.300059
2.18935
0.303894
-2.01175
5.24656
-3.23481
-0.372547
-0.674755
-6.93337
1.96053
0.450871
4.41945
-0.0204119
-4.39903
-1.64456
-1.10863
1.72956
0.396717
-0.0777077
1.19225
1.39771
-2.11398
1.01879
0.121526
0.139487
-0.49333
0.516655
-1.85907
2.45679
0.0166883
1.39802
0.325127
-0.817732
2.62827
-0.20572
2.74068
-1.0146
-0.599201
-0.859043
2.34102
-0.641007
4.07897
-3.43796
-3.64263
-0.591551
-3.7101
5.82223
-2.11213
-0.442609
2.40314
1.58361
-0.249163
-0.0567637
-1.24922
1.30598
-3.75051
1.23342
0.609021
-0.661303
2.03772
-5.98315
2.05837
-4.14383
-3.23863
4.91878
-2.47933
2.38399
-1.5138
0.0340864
-2.69917
3.45183
-0.009298
-0.743834
0.528321
-2.28989
-0.532008
-2.71747
3.24947
-2.44559
4.45617
6.63481
-4.30275
-2.33205
-0.974067
0.396026
1.1585
0.0889657
-1.24746
-3.67551
0.791837
0.91473
0.0652431
-0.0468854
-0.614779
0.661664
2.31656
-6.02665
0.45855
2.04742
0.21102
-2.25844
-4.54148
3.90047
0.735454
0.173466
-0.90892
0.0023582
-0.492514
-0.674157
-0.0203901
0.694547
0.95786
-0.222406
-0.0473866
3.30305
-2.42026
2.63618
2.33617
-1.44497
-4.84069
1.35725
-2.98091
2.51396
0.466948
3.01173
-5.19892
-2.36864
-1.22486
3.59349
-0.256862
1.86206
-1.41244
1.36806
4.97637
-0.776549
-4.19983
-0.0125666
-4.41894
1.66005
-0.483278
1.51693
1.5818
-0.742572
-0.0238756
0.731813
-0.96466
-1.77021
0.0664577
-0.0920113
0.0255537
-0.000545922
-4.36751
4.36806
-1.16166
2.03227
-0.870608
2.74268
-4.40936
1.66668
-0.330663
-2.43738
-0.168763
-0.0598821
2.9939
-1.68032
-0.771819
2.45214
-1.59104
-1.52861
2.08863
-1.30414
1.53647
0.327256
-1.86372
-0.0965761
-1.0534
-4.41541
-0.525927
-0.279668
0.805594
1.04969
0.577961
-1.62766
2.24263
-6.00295
3.76031
0.24697
-2.52783
0.790667
-5.43819
-1.68113
-3.74821
5.42934
-4.22791
0.17724
4.05067
-5.15409
-3.54481
0.203253
-1.65827
1.52302
0.135252
-5.93029
-1.41983
4.81886
1.87026
-0.808547
0.61461
-1.47365
-0.569262
2.243
0.707261
0.439505
-1.79084
0.0823464
-0.79943
0.717083
-0.596937
0.110565
-0.531899
0.616847
-1.46929
2.03333
-0.977449
0.34811
0.629339
-0.64716
-0.380906
2.25594
0.939411
-0.0252063
2.14169
-2.45805
-2.21875
-1.09643
-2.47336
0.71607
1.75729
-0.111662
1.22403
-1.11237
-2.05476
2.0334
-0.367801
3.25752
5.98209
-2.10673
2.07026
-3.6613
1.89616
-2.4256
0.529441
0.545696
-0.0236807
-0.116907
0.00805274
-4.19994
2.48638
-0.159182
2.83765
0.0517128
-0.957541
0.905829
-7.38719
2.95453
2.52732
-3.06877
-0.890198
-0.112339
-1.00836
1.1207
-2.54117
0.860849
-4.60622
4.11105
6.24787
-2.99807
-1.40837
1.32017
0.0881995
0.209894
-0.276513
-0.721043
-1.06298
-1.14238
2.20537
-0.700236
0.601033
0.53594
1.45026
-1.9862
1.25096
1.23387
0.538896
0.334099
-0.872996
-1.42381
1.4405
0.452805
-0.0916461
1.68704
-3.17432
4.54333
0.316469
-4.31943
0.0421828
4.14976
-0.142017
-4.00774
-0.805128
-2.13128
2.93641
0.987395
-3.22019
-0.581165
2.85619
-2.27503
-0.196604
0.0865186
0.110085
-4.50261
4.51363
-0.0110193
-2.09947
2.69936
4.38893
0.554005
2.68875
-1.50387
-1.18488
-0.445076
0.119729
0.325347
-0.978774
-1.54034
-0.0125426
-1.42655
-0.113794
0.251918
-1.42633
1.17441
-0.439685
4.19945
-3.75976
-3.37583
1.10252
2.27331
1.08959
3.79413
0.117672
0.238184
-0.355856
2.57815
1.0128
-3.59095
0.504073
-0.425612
-2.01575
4.00415
-1.9884
-3.65424
0.596185
2.85113
1.08861
-3.45725
-0.013834
-0.597445
0.611279
4.77576
-1.45468
-3.32108
2.00317
1.12435
-2.91916
2.04329
4.646
-4.6996
-2.2248
0.406395
1.81841
-0.0929463
0.475445
0.876206
-1.35165
0.0402969
-0.464923
0.424626
-0.0536193
0.618928
-0.565309
-0.194738
0.00563992
0.189098
-2.45822
5.01195
-1.33571
1.37252
1.94829
-1.41235
1.39496
-2.48226
1.0873
-0.666192
-1.56656
0.248406
0.105164
-0.0752096
0.075689
-0.000479457
6.35547
-1.94892
-4.40655
0.369866
2.7895
-1.097
-0.667233
-2.57741
0.404363
2.35075
1.85004
-4.20078
-0.0388433
-0.0444488
0.0832922
-0.000108413
1.73618
2.06415
-1.54208
-0.522074
6.01949
-2.80848
-3.21101
-5.30704
1.32373
1.14043
-5.83329
1.21053
4.62276
0.811595
-4.59874
-2.28742
1.30704
-0.0279474
-0.0889597
-2.14605
4.41515
-2.2691
0.688039
0.134416
1.86488
0.513814
-1.08398
0.982807
-1.12327
1.57267
-5.28911
5.12077
0.168347
2.56889
-1.79804
-0.770853
3.28446
-2.70819
1.11948
0.275133
-1.14568
0.926063
-0.263629
-1.6068
3.17693
-4.80265
-4.96263
2.95088
-0.421267
0.106882
0.652382
0.305478
-0.0530219
-0.143582
3.77902
-3.90057
0.121548
6.05587
-2.08332
0.958065
1.12525
0.45655
-1.59252
-5.82354
-3.95192
-1.11658
0.971097
-0.708981
-1.32214
2.03112
-3.55068
0.786628
0.601082
1.60071
-2.20179
-0.700395
1.1575
-0.788936
-2.48488
5.64548
2.36517
-3.76941
0.849695
-2.34745
1.49775
-1.32851
1.67035
-2.86753
-4.51967
-0.373974
-0.611757
2.57013
-5.30237
4.60724
0.695124
-0.197342
-1.47296
0.253374
-1.76476
1.51138
-4.65654
-2.27049
-0.751878
0.731488
4.28119
2.43217
0.756288
4.76209
-2.69252
-2.56112
4.0007
-0.270002
-3.7307
6.31038
-3.91677
6.22789
-2.85047
-3.37742
1.48248
0.793504
-2.27598
-2.29095
3.22956
-0.938609
-6.95914
3.8618
3.09733
-0.187857
1.16702
3.56102
-2.50653
-2.90483
5.41136
4.82982
-4.01822
-3.19505
-0.293294
2.38647
-0.649643
2.2784
-1.62875
-3.333
5.64955
-5.60308
0.386099
-2.9277
2.54161