/*--------------------------------*- C++ -*----------------------------------*\
| =========                 |                                                 |
| \\      /  F ield         | OpenFOAM: The Open Source CFD Toolbox           |
|  \\    /   O peration     | Version:  2306                                  |
|   \\  /    A nd           | Website:  www.openfoam.com                      |
|    \\/     M anipulation  |                                                 |
\*---------------------------------------------------------------------------*/
FoamFile
{
    version     2.0;
    format      ascii;
    arch        "LSB;label=32;scalar=64";
    class       volScalarField;
    location    "8.75";
    object      p;
}
// * * * * * * * * * * * * * * * * * * * * * * * * * * * * * * * * * * * * * //

dimensions      [0 2 -2 0 0 0 0];

internalField   nonuniform List<scalar> 
13486
(
1.88931
1.77429
-0.0163008
-4.89524
-0.663936
0.14386
-0.918139
0.0806267
0.757627
1.14054
-3.8191
0.265542
1.96621
0.256337
-0.356379
1.21019
-3.47684
0.594925
0.309599
1.72879
-4.82442
1.92387
1.74522
-4.49509
1.06557
-4.1604
-3.52017
-1.17216
-0.00176297
-1.6088
-4.23142
0.175859
-1.75425
-1.00949
0.0982001
-5.85875e-05
-0.163754
1.07764
-0.180878
0.9149
-2.49975
2.07972
-0.00263828
1.04146
1.01799
0.256982
-3.50314
-0.00110315
-0.154995
-0.691962
1.29446
-0.240254
0.302499
1.15427
0.233056
-0.555983
-0.551147
-0.232751
-1.70552
-0.272503
-4.59082
-0.278361
-1.63566
-4.70909
-10.1653
-0.189758
-5.11802
2.05734
0.725452
-0.119483
-5.1139
0.378524
1.04812
-2.57335
-0.250048
-0.528771
-0.224809
-0.424021
-3.56394
-0.30043
-6.56404e-06
1.8457
-1.64287
0.0261934
1.88942
1.35086
0.0660461
1.25928
1.46696
1.28437
0.387869
-0.146558
1.71181
1.75195
0.708907
-0.00192473
-3.51468
-5.59891
0.889359
-3.59611
0.0196875
0.325507
-5.76149
-0.229604
1.51583
-3.67108
1.34398
-0.179413
-3.60526
-0.529287
0.406644
0.0184683
1.15747
-0.130834
2.46929
0.537396
1.07812
-0.943496
1.06126
-0.126604
0.602627
-4.40247
0.850865
-0.185717
0.455637
-0.225799
0.322513
0.641708
-0.870572
-7.876
-0.223425
-3.39905
-3.13321
-2.3161
1.32468
1.36918
2.78966
-0.445564
-0.117758
0.232048
-1.30773
0.310304
0.28308
-0.31618
-0.0634923
-1.38168
0.0267021
2.0798
-0.760775
-0.00118456
1.03754
-0.729469
0.0020078
1.8887
0.731359
-0.0225497
-0.910024
-2.96001
0.796448
-0.134859
-0.393685
0.801698
0.612402
2.06574
-0.24222
0.0374803
0.427266
2.98241
0.0259748
-2.31946
-3.2333
0.739008
1.1531
0.200025
-0.00430409
-9.1415
0.167752
-1.3793
1.33148
0.283974
0.727395
-0.111226
0.209891
-3.83608
0.0763525
-1.12235
0.000296635
-1.30177
-2.29164
0.674997
-0.144794
-0.0850579
-0.261028
2.1402
-0.306705
-3.6793
-8.52286
-0.450581
1.38258
0.0970643
-4.31278
0.624587
1.08284
-1.44953
-0.159395
-0.323292
0.211815
1.27611
-0.247423
0.0746906
-1.22211
-5.40728
1.70973
1.34919
0.149171
-1.16331
-1.57539
1.2918
1.53561
-1.26536
-3.53073
-0.766421
0.299022
-0.458523
0.291858
1.66407
-0.0607707
-7.81483
-0.687314
0.0471721
0.718309
-4.18467
-1.36801
2.15396
-5.93218
1.51962
-1.14904
-0.0798954
1.55342
0.298424
-1.90717
1.13795
-0.0812234
1.35565
-0.13883
1.52814
0.352782
-2.79131
-2.24966
1.11282
-5.66212
2.5164
0.437743
-0.187233
-0.46798
-9.23653
0.217822
-1.14238
-2.65258
-2.01252
1.60344
-0.137756
-0.295069
-8.87972
-0.786865
-3.83318
-0.693681
-4.86979
1.00043
0.485584
1.77373
1.35112
-1.60774
0.258533
1.66837
-2.5374
-0.467757
-1.97016
-0.199221
0.0353205
-2.20922
0.607019
1.37392
-4.30959
-4.27214
-3.56836
-1.1346
-0.888124
0.274718
1.02909
-5.73788
-0.154417
0.631896
1.3313
-1.10722
-1.22669
-0.414563
0.233175
1.37138
-1.79685
0.657978
0.264651
0.0286775
0.142036
-0.130434
-1.38458
-4.49749
0.369413
0.0374417
-0.152353
-2.34356
-4.78548
0.378848
0.0839719
-3.92551
1.39733
-0.156137
1.47937
1.30291
-0.837265
-0.177289
-0.148752
1.33286
1.78147
2.74099
0.360911
0.0092571
0.574348
0.161277
-0.0999118
1.26457
-0.245926
0.442025
2.07942
-1.08383
0.58993
2.50428
-0.716249
1.095
-0.130767
-0.745978
1.77756
-0.174516
0.193158
-4.06876
-0.00157041
0.354604
2.3687
-1.29204
-0.145332
0.43731
0.198488
0.246968
-3.5064
1.36176
-0.0489211
-2.64077
0.318744
0.0207557
-4.76248
0.305696
0.400118
1.57009
1.35471
-1.64696
0.00149667
-1.19363
-3.36159
1.75578
0.353031
-0.00557724
0.38419
0.261927
-5.56871
0.253569
1.30967
1.38185
-0.134304
-3.78864
-1.95795
0.960444
-0.370166
2.10793
1.83707
-3.39735
-0.509288
0.413813
1.07795
-2.66827
-3.33005
1.66503
-1.60941
0.887821
1.63461
2.17841
-0.108404
-4.97814
-5.45624
-2.97335
-1.24915
-2.75102
0.891849
0.810198
-4.6614
-0.794075
0.179305
1.72469
-1.4122
0.451794
1.7078
1.04938
-0.189729
-1.52798
1.3821
1.36928
2.08882
-3.94588
-0.751753
-3.38378
0.296696
1.33648
0.707612
2.38734
1.1271
-0.203837
-1.27162
0.63088
1.3825
-3.52777
0.50771
1.92303
0.823734
0.874777
0.245529
-1.09215
-2.55977
2.12643
-0.144431
0.2316
2.02527
-3.40968
-1.56154
-2.29243
-1.60312
-0.011141
1.2372
1.99776
1.9525
-2.07596
-0.131051
-4.11031
1.11026
1.50301
-0.685709
-0.479955
1.38229
-4.92309
-9.81854
-4.56647
-1.60789
0.466337
1.4562
-0.00495113
0.519976
-4.7429
1.40894
9.50757e-05
2.7712
1.68899
0.973341
-0.0663907
-0.00216996
-0.00154059
2.47918
-0.549853
-0.112207
-0.200598
0.602598
-3.5981
0.228474
1.16818
-0.0682678
-0.107232
1.7453
-1.14719
-3.17484
1.11205
-3.43677
2.97125
1.12444
1.30578
1.40896
-8.78661
0.0996679
2.48096
-0.952813
1.75896
-1.66215
0.691962
-5.19584
-0.292835
-0.0124324
-3.79575
1.52118
0.478036
-5.93515
0.000838443
0.0911791
2.18005
1.2279
-0.498216
0.530939
0.403034
-0.0658586
-0.880316
1.31201
-3.29308
2.08237
-0.137417
-0.11604
2.09057
-0.392117
-0.0184717
0.462796
-5.7632
-5.16204
0.309877
-0.629013
0.897824
1.70732
-3.60603
-1.05944
-3.59651
-0.00154135
1.53276
0.682326
-3.9303
-5.94158
0.778863
-2.70732
0.141744
-10.0312
-0.440054
0.536387
2.04488
-0.141506
1.5637
-1.24971
-5.39116
-0.69197
0.868404
-3.96795
1.22224
0.0815387
-4.95089
0.399714
1.10385
-2.25568
-3.63768
1.30659
1.62303
0.808185
1.92748
0.0873689
1.14173
0.647376
1.33398
-0.0473999
1.53317
-3.51017
0.864954
0.437812
-0.827506
-2.49275
1.31395
-3.30026
0.240838
1.95427
1.89006
-6.80067
-1.72203
0.759567
0.321044
0.843775
1.34075
-1.7101
-3.48947
0.347884
1.77549
0.547591
0.5482
-9.71393
1.91496
-2.44361
-0.111342
1.36337
-0.110607
-0.299344
0.436345
0.0685896
0.132339
0.0907483
0.837709
-0.772873
1.85295
0.526356
0.540541
0.570894
0.317074
-1.08051
2.31867
0.715876
2.30022
-7.35562
1.08958
-0.00416805
-2.6029
-0.710329
1.10327
2.48369
-13.2424
-0.439946
-0.062359
-1.42204
1.08593
0.528084
0.0463699
0.807336
-3.65599
-2.32868
-2.80533
0.387725
-1.03329
1.3904
-0.00255175
2.126
0.856119
-0.168709
-5.3663
-1.2038
0.749867
-4.04388
0.267226
-3.71894
1.49152
-0.000118398
-0.465633
-6.37463
2.09862
0.000533368
0.646066
2.05335
1.30443
-4.18673
-0.131398
0.414464
0.445837
0.37495
-0.0716883
-8.30193
0.825731
0.865837
0.721305
0.707396
2.10467
-0.0988293
-8.84078
1.31673
0.529532
0.070543
0.0461071
1.19558
0.925075
-3.98698
0.0813173
-0.136371
0.189789
1.53131
0.736148
0.151746
0.0445931
-2.8087
-0.362634
1.59016
-0.261443
0.310755
0.840578
2.04945
0.668174
-0.284862
2.29224
-0.00586171
-5.02604
1.13137
-2.29098
1.58358
-0.0582044
1.35748
-4.79682
-2.40084
-5.35839
-0.00117099
-3.32941
1.03452
2.40123
-1.3433
-1.98713
-0.121821
1.62598
0.428531
0.908519
-5.93893
2.47152
-4.06808
0.386495
-0.767933
1.08453
1.4688
1.02826
-1.75651
-4.40565
2.04685
1.40823
-1.10417
0.841719
-2.55196
0.374262
0.130547
1.06472
-2.31523
-0.450455
1.68896
-0.653105
-0.218689
0.0114324
-5.25122
-1.3271
-0.180445
1.24925
1.56368
-7.87936
0.0945697
-4.22971
-4.54841
0.135353
-1.02145
0.406224
1.35499
0.395312
-0.553056
1.0293
-1.7714
-6.98317
-0.143851
-0.250093
-7.50633
-5.15292
-0.13991
-8.94385
0.350356
1.97697
-0.114171
-6.60356
2.06095
1.86537
-6.30916
-7.81381
0.663876
-3.42868
-0.0873845
0.401773
0.450106
-0.553163
-3.22127
0.943298
1.14802
-0.184898
-3.40763
-2.71581
0.182453
0.431763
1.08903
0.485664
-7.84338
1.5147
1.78813
-3.52715
-8.84015
0.845404
-1.61941
0.557651
-0.170523
-1.50552
-7.69319
0.216112
1.35038
2.31716
1.22868
0.328328
0.248764
1.33418
1.76346
0.415061
0.758249
1.20361
2.16099
-0.694492
-0.145939
0.530557
-0.722235
2.08608
0.106917
0.612855
0.521188
-0.456822
0.249542
0.227812
-0.949151
1.40013
1.52726
1.1609
0.969473
-1.66639
-0.0112222
-0.933375
-0.508559
-0.855105
0.0541807
-0.0645111
-11.4452
-5.16635
1.00232
-1.44362
-2.2546
-1.41193
-2.73484
-0.228295
-3.49168
-10.0872
1.34767
-6.09663
1.90748
-8.01025
-2.27459
0.983674
1.56821
-0.284288
0.473525
-2.05289
1.48809
-0.702618
-1.53912
-0.270685
-0.136899
-2.95186
1.36768
-0.429477
1.06474
-0.144425
0.63188
-3.51723
-0.0651357
-0.0486427
1.26105
-1.09648
-4.01505
-10.2758
1.89981
0.473039
-9.33007
-3.69682
1.19923
-7.74147
-0.149756
0.242753
-0.259009
0.246822
0.0189407
-9.46586
1.47723
1.37507
1.05874
0.922563
-0.132218
-1.50226
1.23759
0.0963255
1.03049
1.3141
-0.326538
-0.185022
-0.566477
0.263619
-0.126889
1.51278
0.857849
0.683444
1.35311
0.482154
0.413744
2.44101
0.227258
-1.18891
1.15374
0.122469
-0.176333
-0.628937
-4.80142
1.17533
-0.100761
-0.00617229
-0.0435841
0.632239
1.2282
-4.25597
0.00207192
1.35333
0.13892
2.09472
1.55749
1.48729
0.254568
1.24872
0.278327
-0.0709015
-0.0830223
0.914547
-4.57176
-0.839079
-1.61254
-2.34562
-6.25199
1.09837
-1.9285
-2.77825
-11.6286
-4.57034
-0.0648998
1.40973
-0.0228432
0.416331
-2.48851
1.37157
2.3357
0.155506
-4.47004
1.06594
-1.3972
1.10715
-0.157772
-0.147158
1.17975
-0.272072
2.11342
0.492322
1.33686
-1.37878
1.55584
-0.0940779
1.57608
-0.14811
-2.17808
0.186594
-13.1575
0.502795
0.155965
-4.05127
1.93647
1.3718
1.58911
1.67434
1.59653
1.26973
-0.923457
0.74022
1.38991
1.33465
-0.741885
-0.0660026
-0.947463
-0.394744
0.296334
0.849508
-2.4021
2.49788
-0.567361
-0.090251
2.3234
1.8259
-0.834223
-10.2154
0.952069
1.01867
-2.69767
0.557989
-2.33158
-0.117333
1.33683
1.57372
-0.154769
0.804532
1.54584
0.00121281
-0.356352
1.64595
0.316626
-0.138822
-3.54308
0.020243
-0.924336
1.39751
1.47398
-0.187353
-2.35769
-2.11265
0.268161
-0.166732
0.246933
2.02618
-0.212045
2.66551
1.11861
0.3105
1.30552
-4.26766
-2.74487
-7.45671
1.18154
-0.16314
-2.23603
-4.16032
0.959829
1.12574
-0.13193
-0.367669
-3.50497
-0.292191
0.454233
-0.138271
0.560616
0.281514
1.40046
1.37374
1.5483
0.855002
-0.844337
-1.71189
-1.04908
0.0623895
-7.67106
0.52522
0.531481
-5.54282
-0.131514
-0.197748
0.67456
-6.32104
0.522028
1.03111
-0.0650328
-2.27981
0.217582
-0.670633
-2.47371
0.227497
0.144529
0.806483
1.19629
1.23328
-2.31238
1.31776
-0.0582327
1.72694
0.447155
1.00344
0.600608
0.197984
2.10938
2.54514
0.730273
-0.834811
1.16862
0.492934
2.12201
-0.142259
-1.66909
-5.95721
0.242026
-0.424551
-1.85173
1.3613
1.05743
0.23108
-1.8651
0.0125199
0.852864
2.43303
-1.78677
1.27045
-3.04536
0.55278
1.98835
-0.571244
0.345084
-5.12156
1.13409
0.310694
2.60616
0.0093678
-0.998559
0.97179
0.232979
-3.96445
-2.34535
0.678665
1.57873
-0.045609
-0.738837
1.87723
1.75062
-0.346351
-1.65657
-0.0209523
0.630799
0.949395
0.983743
1.52554
0.458594
-3.66135
1.67815
0.326315
-1.4297
0.051086
1.49143
1.20485
-4.43401
-4.54165
0.00129801
1.29279
1.99494
0.389642
0.651398
-0.948546
2.45669
-3.52535
-1.24897
2.15346
1.30169
0.27688
0.450188
-5.07187
-0.209003
-2.57872
-3.55446
-0.139828
-7.59578
0.376058
-1.49114
-3.39104
-3.349
-1.17684
-1.44133
-2.84437
-5.47343
1.68452
1.39388
-0.971855
-3.44797
0.241299
0.608541
-0.845605
2.65066
-0.230477
-0.890167
1.30458
-1.77185
-7.77142
0.0107898
-0.0488589
1.06115
2.73089
0.00128327
-0.548787
-4.98815
0.085851
-0.119243
0.423252
-0.113354
1.69769
1.30825
1.40173
-5.27596
-0.264627
-0.0967584
0.704754
1.32962
0.677422
1.39853
2.49489
2.25566
-1.74921
1.30749
1.64444
-0.863309
1.48038
-0.180904
2.21335
1.44889
0.380385
1.57182
0.990486
0.0616495
-0.141664
1.52553
-1.60085
0.659499
-0.64759
-0.409737
0.130056
1.12047
-0.160793
0.310902
2.08466
2.06858
0.0461083
-2.31173
0.247949
-2.84335
-0.477827
1.36505
1.72237
-2.30147
1.34556
0.646595
0.303264
0.715374
-6.45323
-5.17803
-0.18757
2.64726
-0.30098
-0.0253568
1.70381
0.118842
-0.344721
0.973614
0.246066
1.2397
-1.42477
-1.3482
0.445012
0.0917269
-0.25839
-0.0271294
2.36118
1.81118
1.12928
2.19149
1.9944
-0.2164
-0.19336
0.154922
-0.711042
2.08655
-5.6442
0.950497
0.522351
-4.62948
-0.240974
1.27841
-9.63257
0.315617
1.23044
2.76109
-3.50856
0.307543
0.250974
0.867123
-0.0194212
-6.08663
2.01433
1.43998
0.685558
1.17443
-2.1019
-1.16149
-3.83635
2.2501
-0.164174
2.58358
-3.71371
0.606891
-2.64227
-0.936897
-2.54336
0.438148
-0.216941
0.799104
0.086119
0.78017
-6.27899
-0.000788201
-4.60494
-2.31013
-1.04076
-1.60092
0.0762028
-0.366903
-4.4688
-4.48829
0.586232
0.643702
2.06903
1.364
0.214554
0.300309
3.04266
0.916686
-3.5074
-0.00486703
0.238497
1.25257
0.687166
1.70328
-0.965024
-1.01507
-0.0548353
0.000146649
0.259784
1.80514
-2.3307
-4.37227
-3.77589
2.28986
-5.40903
0.516376
1.48271
-4.03698
0.273024
-0.146484
-3.49958
-3.5451
-0.196895
1.16212
1.07496
1.45848
-1.52224
-2.35687
-0.494713
-3.66047
-1.89426
-0.845586
0.387752
-3.22371
0.00840339
-6.13362
-3.51461
-3.65261
1.86565
-4.98788
2.27955
-4.15774
-0.888252
0.102276
0.411861
1.59692
0.417933
1.80315
0.110855
-2.42749
-3.45445
1.42344
-2.28843
1.19174
-0.142701
1.90352
1.67836
-0.145784
1.18977
2.08267
0.890961
1.24557
-1.69906
-2.37746
0.203341
-2.17814
-0.197922
-0.316564
-0.364182
-0.00856562
-3.48955
0.246284
-0.376201
0.173099
-0.203945
-1.22356
2.20378
0.0664569
-0.00185783
0.21113
1.36182
-7.03157
-0.00101429
0.929876
-0.232294
-0.077882
0.0292037
0.630793
1.36145
1.33889
-0.00981748
1.38872
1.54612
1.05174
-1.60299
-0.0916299
0.692393
0.574204
-0.928664
-3.45908
-9.31134
-1.22656
-5.12032
0.0317662
-0.205358
-0.177971
-2.35569
-0.732946
-6.60169
-0.306176
-3.63798
0.829357
-3.65782
1.41529
3.01511
0.837286
-4.22551
0.943069
0.54433
0.249014
0.00255847
-1.82648
-12.382
0.106036
1.43365
0.00214532
2.00704
0.0114545
1.33719
0.195779
0.23216
-2.84217
-0.808625
2.58786
-4.43217
1.3899
1.34685
1.69147
0.108053
1.43275
0.67872
-2.55283
0.864084
-3.50064
-3.70053
1.46959
1.30264
-1.51718
0.567945
1.6653
-2.55228
-11.2139
-0.158364
-0.0544982
1.33574
1.00877
1.50315
0.385135
0.724173
-1.99827
-1.09274
-1.64524
1.49547
2.55734
-2.05456
-3.34301
-2.90392
0.476876
0.072761
0.0827517
-1.13782
0.517856
0.263346
-4.35427
0.188825
2.51136
0.92043
0.542211
-4.45467
-5.41698
-2.92761
-3.19732
-3.42939
-4.61806
1.72188
1.00729
-1.41143
2.42682
-0.005593
-3.53746
-4.11594
-3.66099
0.900534
-2.30438
0.780435
0.723535
0.0144335
-1.57228
-1.3722
-3.48303
-6.88824
1.57047
-6.22729
-0.1647
-3.7758
1.34899
1.2634
-5.4789
1.49866
1.19517
1.83521
2.07522
0.91389
0.221548
2.67215
-3.83879
0.548125
-1.43519
-8.54786
1.76329
-8.36549
2.18025
0.946775
-1.04103
-3.66373
-3.24227
1.50832
-9.77969
-6.24496
0.036016
-0.320886
0.524735
1.09428
0.55818
0.113094
2.28771
-2.36411
-3.84497
0.0869859
0.583815
1.30971
-3.90079
2.98261
-0.18124
-0.441729
1.25391
-0.857444
1.3501
0.817097
1.13889
0.90708
0.608484
-0.193529
0.862879
0.233005
-4.46465
-0.0245808
0.796626
1.30412
1.48547
-4.46419
-0.0283644
-1.02388
1.07699
0.420078
-7.82805
1.31294
-5.91125
1.29517
1.41577
-3.42106
1.9398
-9.45496
2.55317
0.994073
-7.25377
0.00165163
-0.201902
1.06426
1.49601
-8.42356
1.50125
1.4085
-0.864552
-0.0334673
0.214108
0.179263
-0.910847
-3.6098
-0.403995
-6.56441
1.35009
-3.59812
-2.98129
-1.64308
1.66009
1.58198
1.19006
-3.64368
0.965384
-0.348603
0.0464236
1.02806
-4.78333
-4.42833
2.24607
-0.203131
-0.121345
-1.57861
-3.51345
-3.96171
1.41572
-3.52979
-0.990346
1.50209
0.0389597
1.32987
-4.87139
0.306955
2.41211
-1.99271
1.48738
0.217399
-3.92646
0.785977
0.238482
-0.0778708
2.4316
1.07813
0.16721
2.49049
1.41085
1.71177
-3.67825
-3.58265
-0.596575
-1.14634
-3.37386
-1.56173
-0.921177
-1.5783
0.411986
0.30305
-0.28393
0.0142065
-4.04027
-0.188528
1.56349
-3.39423
0.592812
1.09938
1.36174
-0.34952
-0.0682681
-5.57458
-3.28112
-5.06537
-1.12837
1.56101
-8.15775
1.82508
-4.4485
1.35284
-0.563354
-0.196919
-1.45535
1.0638
0.97639
0.644756
0.595671
0.651537
0.435807
1.62596
1.86471
-4.3617
-2.80825
-2.58824
1.35461
0.398759
-1.25118
-1.49507
0.343341
-0.479642
-0.0367842
0.675471
0.0216757
0.593501
0.975636
0.36249
-0.156543
-9.98057
1.7775
-5.34831
1.1181
0.000775738
1.29993
1.12968
1.04761
0.678809
-2.18501
-6.48768
-0.174882
-3.21883
-8.38019
-8.72006
0.389759
-4.7145
1.2871
0.276644
1.3583
-2.63778
0.392818
-1.56755
-0.175983
1.10372
-3.53472
0.897559
0.257067
-12.4143
-3.50156
-5.52753
0.538333
1.45526
-0.157235
0.234836
-2.75034
0.939504
-0.760647
0.208626
-4.14063
1.4916
0.342028
-0.0423511
1.2943
0.848161
1.28577
0.927905
1.89583
-2.09627
-0.222883
-1.98512
0.37512
1.10635
0.266277
-2.22341
-6.55629
-6.13338
-0.136766
-0.0598148
-7.36164
2.47849
-1.87353
1.14806
0.457371
-6.82206
-0.211958
-0.0763376
-0.241315
0.508894
0.218651
1.38012
-0.187302
1.34117
-1.62652
-1.3931
-4.31713
-0.0375965
-6.75851
1.12504
2.38333
1.35549
-0.78994
-1.99871
1.25097
-3.52738
-1.03075
-0.0255577
-0.452869
-5.65913
-7.16425
-7.6434
-1.36311
0.589019
0.465192
-1.29746
0.257093
1.48815
-0.81504
-1.3797
1.49956
-0.202218
-3.96889
-0.0280858
0.0250901
0.00164427
2.45113
-0.03198
0.528967
-0.852382
-0.490407
-0.778037
0.767525
-0.00837917
0.305766
-0.511905
-1.18602
-0.0642198
-0.737009
1.58451
0.703218
0.59577
-1.85187
-1.06775
2.46193
-4.45367
1.11351
1.12226
0.462005
-0.257147
0.326674
-3.07608
0.168691
1.33531
1.11349
0.900919
-8.74746
1.49802
0.521029
1.98808
-0.566948
1.35997
1.60692
1.30746
0.302382
-4.07919
0.765735
-3.64476
0.0755268
0.940744
1.29238
0.449031
1.82997
0.229848
2.02391
0.333624
1.2022
0.202906
0.48324
-2.2133
1.34403
0.240309
0.935857
2.36624
1.39152
0.297999
-1.01165
0.383373
1.34313
-0.174564
-3.05043
0.57444
-0.0533406
1.57672
-5.35274
1.89765
0.681542
3.08243
2.15479
-0.238032
-0.561075
-2.5928
0.409955
2.21482
0.0323054
0.272736
-0.377641
2.6127
1.02954
0.538874
2.36167
-0.554358
1.26846
-0.940122
1.09986
-0.421414
0.857025
1.04556
1.45968
-0.206608
-3.35943
0.279628
-5.27911
0.193841
-2.29641
-0.0168058
1.98923
1.76644
-0.00782986
-1.36735
-0.810066
1.27399
0.655503
0.669093
1.08746
-1.312
-3.25802
-5.18759
1.41196
-1.63806
-1.53249
0.77076
0.106964
0.329447
-0.964567
2.47608
-4.9056
1.8262
-1.64697
2.44956
-1.90275
0.232982
-0.235543
-0.0942999
0.714682
1.34526
0.311465
-1.16949
0.350802
-1.92455
1.61975
0.0345947
0.333299
-4.9445
-0.567152
-1.65172
1.10607
-0.662937
-0.191699
-0.182066
1.35675
2.57731
-5.35619
-0.0732333
0.658414
-0.605723
0.982007
-0.134796
-0.32699
-0.843216
-3.62514
0.386399
-5.92111
-0.643604
0.0487312
-1.76661
-12.0348
0.430648
1.2254
1.16268
1.29349
2.44533
-4.42454
2.57233
-2.83447
2.37909
-9.01696
-0.709587
2.31333
0.889801
-8.90038
0.499292
-0.213628
0.75526
-4.75
-3.69486
0.219318
-1.48601
-2.08383
-0.00430387
-0.514091
0.859967
1.11768
-10.6312
0.907793
-1.57943
0.292393
-4.92206
-0.169855
0.770905
-4.16338
-1.23026
2.14332
-0.118425
2.25988
0.307407
-3.52022
0.840851
-0.607385
-0.254737
1.28474
1.41745
2.65172
1.22991
1.39825
-0.5977
-2.34778
2.56276
2.59371
1.5098
-0.422198
-8.2395
-3.6127
0.70121
-0.174262
0.125842
1.54698
-4.52804
-0.151906
-3.30386
2.33635
0.578302
0.489008
-6.39975
0.505746
0.962941
2.92409
2.73317
0.785608
0.675768
-0.325571
-2.4428
0.970427
2.79589
-0.801577
-0.252929
-0.000147549
-0.000575984
0.267755
0.113315
-0.0929218
0.226773
0.345708
0.361195
-0.121456
0.775046
1.63454
-1.78128
1.16307
-7.02745
-0.195683
2.18063
-3.04718
0.430212
-1.69643
0.921134
0.76062
-5.33557
-2.05678
-0.18097
0.414207
2.98948
-2.70621
-1.39415
-8.98126
-0.250146
-1.61102
-1.7509
-5.25794
-1.6483
-0.0456781
-1.75705
-0.536106
-2.04096
0.744937
-0.0340277
0.452109
2.89248
0.518371
0.279854
-0.663772
0.595921
-2.27723
-1.19134
1.99155
1.19611
0.283956
-0.335772
0.974078
1.23933
-0.652516
-6.80917
-0.0452089
2.0054
-0.998502
1.33391
0.375607
1.92215
0.225365
-7.77626
0.562066
1.37718
-1.1445
1.34193
-0.552091
2.68118
-5.44493
-0.00385146
-3.55948
1.03189
-5.93454
-0.861688
-5.74104
0.15587
-1.23781
-9.6724
-4.59458
-0.339717
0.377697
-4.56954
-0.56447
0.686432
-3.79714
0.543619
-6.12037
1.37414
2.503
0.435855
-2.2801
0.653336
0.112545
0.402483
-0.390326
-0.25119
-3.57291
0.0178915
-1.91752
-1.27079
0.376866
-0.201358
-3.53288
-2.27897
0.379834
1.37688
-0.493379
-5.58483
-0.0544767
-0.110681
-0.625593
0.122588
-1.57769
-5.83523
1.57736
-3.00953
-0.809743
-1.551
-2.5304
-3.6443
-4.56893
3.02499
0.139692
-1.3956
0.919668
2.43602
2.18726
-8.67159
-0.955017
1.34043
-0.148956
0.0281306
2.46634
0.344486
0.139404
3.02735
0.0836227
-1.60228
0.554019
2.02436
1.38451
0.662642
1.94589
1.17165
-0.149296
-0.0926709
0.937329
0.273858
-2.96656
2.37926
0.128548
-0.161094
-0.111399
-3.76466
0.10739
-6.63905
-1.12124
0.304308
0.816734
1.47827
0.90573
-3.54271
2.10875
2.28711
-1.40726
0.43115
-0.305017
0.00607321
0.377839
1.08421
-4.28268
-0.812787
0.0347481
2.60389
-3.4956
1.06155
1.17812
1.31826
-0.0330622
0.595627
-0.893375
-0.0927553
-0.757726
-0.225285
-3.57332
-1.45806
-0.0577859
-5.24969
1.38148
-9.80401
-0.159954
0.667888
-2.28891
-6.80183
-3.5968
0.83271
-0.913437
0.0234779
0.952927
-8.37172
0.172715
-1.15805
-0.293485
1.31505
-3.51794
2.50263
-0.0891691
2.74146
-0.000162028
-0.00919639
0.140628
1.30719
0.502385
-2.14109
-0.413881
0.201214
0.144053
0.136543
3.06483
1.32728
-0.341158
-0.934295
-0.13553
0.411999
0.902885
-0.721633
1.09394
-5.48381
-6.04939
-2.25848
-1.52474
-0.128044
-2.3171
1.12082
0.418861
2.18135
2.59452
-3.25167
-3.55286
0.335034
-0.766194
2.27785
-1.60873
0.0228957
0.901686
1.18534
-6.29809
-0.975038
0.227579
-0.208628
0.296928
-5.1035
-1.48432
0.185243
-0.556801
-1.81138
0.0760874
-1.88785
-1.62811
0.921485
-9.65114
-7.31555
-1.37398
0.667807
2.6756
-0.268347
1.33723
-2.47386
0.162688
0.267431
-0.220191
0.749188
-5.38547
-3.63303
2.25849
1.28808
0.349499
-2.21264
2.8227
-6.57363
-3.50167
-5.22976
-0.490745
-6.08944
-5.992
1.97228
0.288283
0.578353
0.863456
-5.06567
0.751738
0.0431867
0.374242
-2.08054
0.376778
0.800519
0.893573
-5.58713
-3.28912
-1.78105
-1.81235
-0.933314
-0.863855
2.67572
1.14104
-7.34951
-0.589988
0.672838
2.10063
-0.077073
-3.41797
-0.383939
1.68214
0.715958
-1.58071
1.34529
-1.22947
2.22614
-0.1177
1.47047
-3.63143
-1.40783
-0.125079
-5.94162
-0.595517
0.797904
-3.15116
-6.1661
1.17778
-1.38916
0.212572
1.76379
1.23456
1.70637
1.3345
-1.21751
0.00103829
0.40207
0.740097
-0.000504204
1.2043
-0.101241
2.25297
-5.29846
1.64895
-1.03038
2.47578
-4.93699
-0.488375
2.415
-5.56133
-0.208551
-3.46106
1.76507
2.37264
1.36196
-1.415
1.36058
1.42507
-4.07698
0.98555
-8.17811
1.5834
-5.91364
-4.06185
-3.66771
-3.80794
1.39389
-0.903064
-3.82487
0.203257
2.33563
-0.0935318
0.257036
-3.91827
-0.776792
0.0187656
-0.712487
1.34223
0.762523
-3.7157
2.74511
-0.260151
2.02845
1.5481
-0.0948599
-0.0542134
0.443475
-1.39162
-1.02157
0.294609
0.161607
-0.0457668
0.742141
-4.94751
2.41977
1.5307
0.106997
-2.96398
0.778744
-4.00296
1.15918
1.35367
0.226798
-0.0733227
1.3391
0.900819
-0.803308
-2.33625
-0.119429
0.982313
2.2335
-2.67538
2.44154
2.74835
2.53067
-1.47819
1.36445
-3.81337
1.32778
1.369
1.71648
0.983867
1.7111
2.90429
1.33975
-2.92101
-2.46402
-3.69511
2.88782
0.256199
-1.59509
-5.47593
1.50532
2.13499
0.970125
0.127638
-0.375647
1.97387
-1.47313
0.800238
-5.73497
0.925907
-0.158439
-1.70793
0.371471
-4.07616
-4.61634
-4.48706
-1.66179
-0.0353987
1.33525
0.170778
0.174473
0.778857
-1.93836
-0.629771
-0.121134
-1.90455
-3.59587
-3.19252
1.63008
2.01766
-6.32693
1.17127
1.59439
1.93891
-0.00612441
-13.4657
0.979585
-2.73228
1.74986
-2.1075
1.69304
1.17564
0.554901
1.65002
0.504894
1.46342
0.148109
0.940495
-1.11498
-2.29606
-2.64459
-0.142919
1.42921
-10.2318
-7.52441
-9.20861
2.23247
1.37055
0.880091
0.204379
1.90536
-1.55997
0.752659
0.0975569
-1.05113
0.773555
-8.13111
-3.50127
-0.786654
-3.42996
-1.06736
-7.82096
0.0698892
-3.67795
-2.33038
0.492001
2.37231
2.65769
2.16522
-10.9467
0.819051
-3.67644
0.790412
2.06757
0.592574
1.39997
-8.13605
0.192064
-1.20418
0.260145
1.58734
-0.356685
1.0059
-3.52102
0.0618959
-3.63933
1.42832
1.00955
1.35689
-3.46092
0.790807
-4.86187
-3.92572
-3.95839
0.158907
2.29906
-1.96212
-2.2154
-6.02774
1.06312
1.3445
-0.248408
1.09347
-3.41214
1.94944
2.13411
-6.77688
0.110839
1.72353
-8.77215
-4.96378
0.366729
1.63606
1.81518
-3.70859
-0.262841
0.303431
2.33709
-3.5905
-9.60557
0.228881
2.0316
0.34671
-1.16884
-1.97992
1.47018
1.23683
1.54597
0.188739
-1.73373
1.00617
2.83547
-2.33708
0.199662
0.311081
-3.44284
0.342378
0.224819
-5.34101
-0.345106
-4.81945
1.12198
-4.5723
-2.36384
1.37202
1.72262
0.803463
-1.29883
-8.43064
0.907968
-3.459
-0.800294
-0.902601
0.213528
-3.27929
1.63893
0.95636
0.313287
0.726859
2.15906
-3.38705
0.024413
1.38821
-3.90399
1.12555
-0.213292
0.139026
-1.20079
1.25911
-0.000327353
0.211994
-0.766
-1.56462
1.506
-1.08274
0.598775
-9.75822
-1.01566
1.32861
-3.41772
2.50648
-3.50693
-3.59695
-3.51992
1.65954
0.961672
1.35586
-3.59261
2.01144
-6.06881
-0.115895
0.144339
-1.03312
1.36138
0.245468
-0.841433
0.107944
-3.58133
1.25048
-3.42645
-9.0585
0.00544165
-2.26582
-1.78461
0.347622
2.16218
0.0357516
-3.80737
1.35206
-1.53998
1.80428
-1.17808
0.392577
1.23366
1.39471
0.227852
-2.91649
-1.36492
0.311596
0.730318
0.874426
-1.45456
-6.50641
-0.24878
-0.729388
0.432698
2.94246
0.833643
1.30342
1.79148
0.621989
1.47339
-7.03296
-3.25134
-10.3671
1.35123
2.84259
0.812458
-0.553828
1.55208
0.317614
0.413491
-0.000568658
0.32615
0.350735
2.51182
-2.33427
-2.2069
2.28665
1.58071
0.630964
0.949807
1.34007
0.533166
-4.51202
-10.1641
1.00094
-2.55238
-2.26992
1.17961
-10.91
-3.08619
-1.40965
0.754883
0.819508
0.978052
0.349244
1.38671
1.42769
0.292287
1.05495
0.84462
1.65879
1.40392
-0.454285
0.187631
-0.259969
1.58053
0.990965
0.594591
0.345932
0.326305
-0.178874
2.15149
1.15196
0.000249893
-4.61321
0.51152
1.19929
-0.0997173
0.813386
-0.161211
0.154913
-8.03883
0.224738
-5.13307
0.0822607
-0.286865
-2.43587
-3.75897
-3.44546
1.86273
-5.29985
-3.13918
-6.05087
2.22791
-4.46998
0.328908
0.679269
-3.87558
1.42381
1.33859
-0.292481
1.65268
0.635315
0.36593
-3.54573
-4.87733
-0.00831303
1.69252
0.695284
-3.64832
-3.51147
-5.3799
-3.37508
-6.13492
-1.44621
-0.685566
0.834785
1.34609
1.26221
-4.36058
0.0620311
1.69363
1.25629
-3.73313
0.370919
-3.68837
0.00764038
0.164023
0.37088
1.27927
-1.01868
-5.11109
-6.60525
0.754918
-7.89694
-3.30161
0.056104
-12.9317
-3.21392
-3.84955
-5.71665
0.0489129
-3.63207
0.229734
-3.60292
1.38255
1.31237
-0.0743875
1.69445
-7.85582
2.12826
-2.18978
0.423016
-0.694476
0.966105
0.412458
-2.32364
-3.50013
1.41664
1.72033
2.27129
-4.36944
-2.9806
-9.62816
-0.617286
0.00213594
-3.47833
-1.15704
-3.55655
0.403611
-3.68835
-0.195939
-1.72895
-0.327851
1.96965
0.616845
-0.237643
-0.112763
-1.18195
-2.80853
1.9622
2.63518
-2.97771
1.07534
0.934427
-0.00211538
-4.59811
1.63738
1.69922
-1.35543
-3.75783
-10.3879
-9.00224
-0.593705
-3.4765
-0.422847
1.2442
0.150754
1.54504
-3.49875
-3.80529
1.36459
-0.48245
-3.73747
0.467051
1.38593
-3.86968
-0.17987
-3.7539
-3.51401
-3.61374
2.31929
-3.44305
0.149964
-3.95303
1.22411
-3.8073
-1.03945
-1.53331
-4.34717
-1.09619
1.0714
-0.0150714
-3.50415
0.746186
0.0117994
-7.16069
-1.3125
-3.40579
-0.0804942
0.336057
1.31545
-3.11256
1.73497
-6.25066
0.000533856
-0.0885352
-1.5499
-9.81271
-3.43661
-5.95332
0.342832
0.891901
0.0136509
0.150603
-1.47451
0.591621
-5.63025
1.44729
-2.80763
1.09819
-1.11764
-2.91322
0.481828
3.03202
-4.32294
-3.94852
-2.21988
-2.02873
1.35764
-0.0649308
0.542951
-1.03317
-3.07328
-4.36497
-2.36856
-3.52381
0.728312
-3.39854
0.515694
-3.5732
0.262108
0.757939
-0.113914
-0.671793
-0.296106
1.31642
-3.47445
-7.57316
1.51602
0.0885673
-3.67645
0.122275
-2.1296
-1.52803
-0.00802151
1.37339
-8.78447
0.946382
-2.811
-2.19496
-3.43393
-3.088
-3.46797
-0.646376
-3.08528
1.25046
0.910099
-5.26983
0.55195
-9.51745
1.69144
1.70415
-3.92764
0.572064
1.19225
1.37015
-0.066821
-7.17923
-3.49444
-2.79978
1.34751
0.73374
-2.26885
-1.82752
-0.335431
1.70283
0.200111
0.466435
0.450832
1.51683
-1.02896
-1.12606
-0.159876
1.28671
0.638085
0.351686
1.76076
1.60282
-0.0146901
-10.0995
1.31542
0.995702
0.314115
0.260451
-2.5077
-5.00876
-2.38702
-8.95744
1.68453
0.700893
-0.467186
-0.95933
0.356236
-1.77495
0.896012
-11.0158
-0.231928
1.34924
1.54512
-7.41231
1.17562
0.333258
0.774014
0.949313
0.288527
1.00608
-0.00413971
1.3847
1.16273
1.34646
-4.21382
1.54076
1.30533
1.31274
1.20781
-8.10213
0.0523434
-0.231232
-1.48416
1.39322
2.11958
-13.6122
2.0859
-7.82992
-2.43692
0.975139
1.22299
-1.63602
0.223896
-3.05098
-11.7124
-0.38785
-7.11372
-1.74079
0.109
0.690303
2.68332
1.16251
-5.1971
-5.59335
0.807203
1.00038
-4.27025
-5.52513
-8.87566
-1.0661
-2.45661
-2.29252
1.34307
0.279869
0.998321
-0.0687565
-0.0546324
0.0686162
-0.0309312
0.330279
-0.426311
1.37881
-2.03716
-1.12629
-0.964561
-6.4092
0.42891
1.02998
-0.346853
-1.08788
1.23544
-0.201522
0.911201
-1.39099
1.25526
0.676317
1.99287
1.31685
-7.93211
0.0698621
-1.00563
-8.41914
-0.155976
-0.167327
-0.935999
-13.5483
2.74512
0.00204
-0.625788
1.71867
-5.754
-0.269859
-4.64227
-4.3863
-3.4412
-1.40933
-0.864421
0.525928
-1.55552
-8.20712
0.549375
-9.0435
-0.939968
-3.73615
0.0613083
1.25615
-5.47231
-6.82252
-0.955442
0.240876
-1.76553
1.28294
1.79209
-8.72835
1.31478
-0.0305499
1.18389
2.22771
-5.25724
1.11572
0.366592
0.934954
1.58816
0.199019
-0.613626
-3.379
1.19221
1.78848
-10.0664
0.0528977
-2.90203
-1.97998
1.01161
-8.21302
-1.47306
-9.93861
0.913899
-2.59079
0.240449
0.20518
1.32935
0.215906
-2.84033
0.145363
-0.157888
-1.62127
2.02555
2.47536
1.39955
2.83086
1.44935
1.48602
0.822657
0.439697
1.59873
-4.36279
0.95697
0.0590917
-2.42236
1.85158
-0.788495
-1.4102
2.42456
0.406255
-6.85045
1.01511
0.930727
1.59317
-1.61702
1.36832
2.37673
-5.48217
-2.45417
-1.30146
0.505131
-3.58524
1.26047
0.186408
1.66093
1.33344
-6.58053
1.21016
-0.641535
-3.36317
-3.11518
-10.7564
1.06177
-2.1966
1.41473
-0.232232
-3.47432
0.0469599
-0.39144
-0.517735
-9.9844
-3.45806
1.20104
0.622962
-3.66432
-0.0663982
1.21943
0.264069
-12.8648
1.01176