/*--------------------------------*- C++ -*----------------------------------*\
| =========                 |                                                 |
| \\      /  F ield         | OpenFOAM: The Open Source CFD Toolbox           |
|  \\    /   O peration     | Version:  2306                                  |
|   \\  /    A nd           | Website:  www.openfoam.com                      |
|    \\/     M anipulation  |                                                 |
\*---------------------------------------------------------------------------*/
FoamFile
{
    version     2.0;
    format      ascii;
    arch        "LSB;label=32;scalar=64";
    class       surfaceScalarField;
    location    "1.3";
    object      phi;
}
// * * * * * * * * * * * * * * * * * * * * * * * * * * * * * * * * * * * * * //

dimensions      [0 3 -1 0 0 0 0];

oriented        oriented;

internalField   nonuniform List<scalar> 
7520
(
-0.982301
0.67264
0.309661
-1.34036
-0.203933
1.54429
0.012724
-1.68633
1.67361
0.263971
-0.0365849
-0.227386
-0.262831
1.4204
-1.15757
-0.110008
0.118371
-0.00836345
-0.231585
2.0684
-1.83681
-0.177472
-1.39491
1.57238
-1.13522
1.14795
0.664028
0.468257
-1.13228
-0.220981
-0.110549
0.33153
-0.228417
-1.78982
2.01824
0.728636
-0.0254418
-0.703194
-0.120284
0.165839
-0.0455554
-1.79984
1.01902
0.780829
0.13808
1.6014
-1.73948
-0.181367
-0.044812
0.226179
-0.0281063
0.295235
-0.267129
-0.01219
0.0878556
-0.0756656
0.0804927
-0.26186
-0.502889
-0.184756
0.687644
-1.06919
1.20727
-0.0394953
-0.345413
0.384908
0.192421
-0.170944
-0.0214778
-0.0318707
0.109804
-0.0779336
0.283589
-0.277759
-0.00583048
0.894952
1.13196
-2.02692
-0.0421784
0.351059
-0.308881
0.00549209
-0.0176821
0.251605
-0.0406467
-0.210958
-1.02298
1.70379
-0.680813
-0.0587211
-0.0224111
0.0811323
-1.7399
1.93075
-0.190845
-0.32349
0.371029
-0.0475393
-0.147145
-1.25026
1.3974
-0.64392
0.810972
-0.167052
0.291722
-0.583021
0.291299
0.924331
-1.6131
0.688765
0.0962473
-0.359601
0.263353
-0.0564216
-0.128847
0.185268
-0.0314728
0.295444
0.566191
-0.0749563
-0.491234
0.322982
-0.039393
1.77909
-1.1506
-0.628492
-0.377027
-0.713341
1.09037
-1.43449
1.62155
-0.187061
0.0323217
0.137854
-0.170176
0.317929
-0.100049
-0.21788
-1.36762
0.344641
0.306511
-0.0846576
-0.221853
1.77334
0.0431812
-1.81653
-0.69769
0.178602
0.519088
-0.0825283
0.0869873
-0.004459
1.05822
0.459695
-1.51792
0.0167131
-0.126721
-0.783437
0.0901821
0.693255
0.306326
-1.24215
0.935826
-0.0458169
-0.13723
0.183047
-0.143267
0.0845459
-2.40097
1.12997
1.271
1.79555
-1.16352
-0.632038
-0.0229535
-0.0625318
0.0854853
-1.14849
1.00135
0.955567
-0.22693
0.0268461
-0.109374
0.00500606
-0.12529
1.1111
-2.20527
1.09417
0.140754
1.63259
-1.31044
1.02439
0.286048
0.349029
-0.262826
-0.086203
-0.578023
0.884349
0.772514
-1.1474
0.374883
0.375274
-0.102738
-0.272537
0.113517
-0.261399
0.147881
0.834416
-1.69562
0.861203
0.156568
-0.136677
-0.0198908
2.27976
-0.910656
-1.3691
0.470915
-0.809077
0.338162
1.43181
-1.26439
-0.167422
-0.916611
0.133174
-1.57676
-0.824207
0.677313
0.0305541
-0.707867
0.273375
-0.679731
0.406356
-0.0281539
-0.295336
0.311254
-0.339361
0.273575
-0.02197
0.0401689
-0.0448452
0.00467628
1.27425
1.00551
-1.47542
1.71402
-0.238592
1.18572
0.609837
-1.04725
1.1466
-0.099349
-0.0557616
-0.000919968
0.0566816
1.3124
-1.54082
0.269926
0.221922
-0.125675
1.04425
-0.209294
-0.834958
0.00822278
0.105766
-0.113989
-0.586406
0.375851
0.210555
1.54958
-0.715166
-0.784171
0.669062
0.11511
0.856991
-0.764943
-0.0920483
-0.107462
0.135565
-0.0281039
0.121198
-0.144981
0.0237827
2.12564
-1.35543
-0.770217
0.561097
-0.52707
-0.455232
-1.37227
0.79425
-1.71453
1.48294
0.20174
-0.0906195
-0.11112
-0.306772
0.0857914
-0.194875
0.193645
0.00122952
-0.459245
0.542035
-0.0827905
1.97065
-1.04632
-0.201977
0.0766219
0.125355
-0.803382
0.300493
0.177296
0.0599729
-0.237269
0.0393809
0.637932
-0.737175
0.351166
0.386008
1.17809
-2.06773
0.889643
0.071118
0.121303
-0.10146
-0.59623
-0.302409
0.00884651
0.293562
1.27828
-0.614252
-0.0753635
0.399158
-0.323794
0.0855684
-0.172604
0.0870356
0.135983
-0.130223
-0.0057602
0.756728
-1.81617
1.05944
0.421728
-0.461223
-0.363757
-0.0848109
0.448568
-0.135338
-0.0666393
0.107228
0.291961
-0.399189
0.171563
0.0378302
-0.209393
-0.0733009
0.244864
-0.643654
-0.0935206
0.320977
-0.673705
0.352728
-0.698834
1.37134
-0.672502
0.31824
-0.368762
0.0505224
-1.11781
-0.254461
-0.0408373
-0.0609932
0.101831
1.39052
-0.332301
-0.633809
0.494016
0.139793
-0.00815775
0.182923
-0.174765
0.332285
-0.0873238
-0.244961
0.167006
-1.85334
0.334647
-1.76913
-2.07446
0.906489
1.16797
-0.877761
-0.432676
-1.21002
0.755537
0.454483
1.589
0.184878
-1.77388
0.215427
-0.271849
0.241027
0.44427
-0.685297
-0.288867
-0.830649
1.11952
-0.180642
-1.02938
-1.77801
0.0381089
0.0343011
0.00586784
0.0790628
-0.157134
0.0780717
0.316689
-0.362506
0.615785
0.241206
-0.180234
0.148761
-0.0230844
0.00141089
0.0216735
0.816015
-0.456378
-0.359637
-0.592479
-1.20737
0.454448
-0.743315
0.0816918
-0.62302
0.541328
-0.176126
-0.0925827
0.268708
-1.52703
0.753848
0.773177
0.348082
-0.610913
-0.0947428
0.515949
-0.421206
0.154139
-0.186009
0.568319
-0.262375
-0.305944
1.21448
-0.170229
0.264341
-0.348999
0.973687
0.159629
-1.13332
0.326809
-0.368988
-0.403408
-1.15775
1.56115
1.24526
0.699188
0.762332
-0.488957
-1.01941
0.375489
-0.685843
0.966081
-0.280238
-0.0250086
-0.0228164
0.0478251
0.26827
-0.332257
0.0639867
-0.754657
0.794037
-0.302966
-0.159644
0.46261
-0.244696
0.0685699
-0.864552
0.946244
0.35146
-0.927868
0.576409
-0.496045
-0.0903615
0.732362
-0.44064
0.17
-0.0134322
0.267029
-0.0214585
-0.245571
-0.043066
-0.416179
-0.740395
-0.411144
1.15154
0.143141
0.232133
-0.790873
-0.904746
-0.889086
-0.637939
-0.0402015
0.0827521
-0.0425506
0.920364
-0.437422
-0.482942
-0.868922
0.170088
-1.13285
2.097
-0.964148
0.395986
0.172333
0.312597
-0.26972
-0.0428768
-0.716298
0.614837
0.658857
-1.03588
1.77974
-0.036052
-1.74369
-1.71483
2.1682
-0.453375
-0.0326247
0.111688
0.453975
1.09472
-1.54869
0.0400241
-0.19639
0.156366
-0.0964789
1.71158
-1.6151
0.00079984
0.139598
-0.140398
-0.916795
1.30144
-0.384647
-0.0496562
-0.666641
0.0112187
-0.751614
0.281189
-0.19969
-1.67749
1.87718
-0.22961
0.317465
-1.75363
0.96276
0.324152
-0.0199373
-0.304215
0.0951883
-0.00961991
0.135237
1.606
-1.74124
-0.526224
-0.642451
1.16867
-0.563041
0.458337
0.104704
2.28435
-1.46455
-0.819799
0.528154
-1.05438
0.126122
-0.136719
0.0105969
0.124779
0.752287
-0.877066
0.0779635
-0.0795162
0.00155272
0.881988
0.767234
-1.64922
-0.250699
-0.533473
-0.0781349
0.218895
-0.14076
-0.988314
0.681112
0.307202
-0.102871
0.0521532
0.0507178
0.791146
0.129218
1.09248
-2.06728
0.974802
-2.45367
1.10186
1.35182
-0.996306
-1.45737
-0.384921
0.426501
-0.0415803
-0.326061
0.3812
-0.0551391
0.416691
-1.1099
0.693209
-0.0280564
1.13853
-1.11048
-0.496273
0.526827
1.0908
-0.117109
0.979739
0.963332
-1.94307
-0.227368
0.118901
0.108467
-0.055026
-0.933288
1.82826
-0.440458
-1.3878
0.16198
-0.121955
0.01738
-0.26905
0.224238
1.00987
0.818392
0.302396
0.544998
-0.847393
0.396597
-0.0455376
-0.104791
-0.0827493
0.18754
-0.290565
0.359132
-0.0685668
-1.81584
0.903349
0.912495
-0.0738019
-0.252259
0.861961
-0.540984
1.12462
-0.691455
-0.43316
0.15576
0.162168
-1.9143
1.91958
-0.00527863
1.08626
-0.734802
0.00182526
-0.106723
0.104897
0.00773399
0.0821223
-0.0898563
0.135304
-0.238042
1.66756
-0.556454
0.0621815
-0.202705
0.140524
0.0041354
-0.0272198
-0.406133
0.295584
0.787565
-0.996859
-0.706614
0.678558
0.309632
-0.0426027
2.0684
0.00656105
-0.00942438
0.00286334
-0.476296
1.26386
-0.241634
0.159023
0.0826107
0.225769
-0.104571
0.0738456
0.492345
0.852275
-0.611247
0.467958
-0.401788
-0.0661703
0.336383
-1.25318
-0.126273
0.233501
-1.51473
1.31504
0.127354
-0.00123275
-1.6922
0.290685
-0.298842
-0.150885
-0.0726971
0.223582
-0.631797
-1.18405
1.16727
0.95838
1.61215
-0.858306
-1.78982
0.388005
-0.463369
-0.204747
-0.261239
0.465986
0.186263
-0.292219
0.105955
-1.21352
0.500183
-0.220292
-0.281734
0.502026
1.04269
-0.574428
-0.206841
-1.69608
1.90292
0.814708
0.238746
-1.50396
1.26521
0.858305
1.07244
-0.907197
1.4249
-0.970925
-0.0441092
0.42164
-0.37753
-0.854709
0.816927
0.0377823
0.115582
-0.0534004
-0.0926144
0.35818
-0.265565
-0.333863
-0.174469
0.508332
-0.494386
1.73964
-0.292221
-0.391776
0.683997
0.240005
-0.207684
0.205137
-1.25238
-0.107243
0.00245157
0.0109094
-1.98162
1.07767
0.903942
0.461907
-0.487348
0.00929246
-0.0779117
0.396152
1.01794
1.26641
1.57451
-0.44404
-1.13047
0.149232
-0.0513486
-0.0978829
0.882312
0.549499
-0.4119
0.207152
0.625336
-1.55283
0.927495
-0.0384949
-0.0242455
0.0627404
0.651137
0.898446
-0.256699
-0.102902
0.765315
-0.462919
-0.535052
1.43
0.190895
0.0108447
1.91496
-0.736866
0.172735
-0.164512
1.7449
-0.170383
0.121142
0.441644
0.0263146
0.0204668
0.328562
-1.67134
-0.936897
1.01517
-0.0782749
0.00729757
-0.143975
1.79706
0.0508412
-1.8479
-0.778932
0.486711
0.257727
0.0745581
-0.339793
0.0769668
-0.20114
-1.06325
1.56731
-1.57358
0.00627505
0.0994056
-0.431447
0.332041
-0.830606
1.48174
-0.851332
1.60806
0.177484
-0.078078
0.760453
-0.409286
1.85011
-0.537707
0.00455873
0.15796
-0.162518
-0.134482
-0.0514264
0.185908
0.147097
0.00213426
0.186324
-0.851647
0.14642
0.124505
-0.270925
0.561631
0.809705
-1.78374
1.38034
0.150288
-0.514045
-0.438854
1.21137
-1.13429
1.31187
-0.177571
0.565316
-1.99866
1.90218
2.15378
-0.879528
0.843206
0.935884
-0.0858732
0.242142
1.32516
-1.42543
0.419279
1.00615
0.292902
-0.333549
-0.380673
0.306871
-0.251342
0.178041
0.169503
-1.3201
0.71511
-1.05471
0.339602
-1.78015
0.880227
0.899925
-0.591392
-0.556006
0.112052
-0.135005
0.0930206
-0.176247
0.787376
-0.611129
-0.602069
0.507326
1.22874
0.925045
-1.71483
0.0582984
0.0776848
1.63518
-1.4151
-0.220081
-0.29242
1.38714
-1.22531
2.077
-0.85169
-0.834368
0.955349
-0.120981
0.209521
-1.35801
0.145485
0.235715
-0.292217
0.463262
-0.171045
-0.124773
-0.0202084
1.37071
0.462326
-1.17487
0.71254
-0.0590371
-1.59762
1.65666
-0.0634484
-0.131426
0.0716955
-0.485313
0.413617
-0.689252
1.00537
-0.316118
0.232655
-0.161807
-0.0708481
-0.12549
0.68744
-0.56195
-1.93457
1.73064
1.82114
-0.51465
-1.30649
0.706129
-0.848083
0.141954
-0.0167119
0.202975
0.177419
-0.673463
-0.800967
1.68295
0.236463
-0.0591673
1.77974
-0.969938
1.09472
-0.037513
0.037513
-0.587391
0.22704
-1.70246
2.23859
-0.921999
-1.31659
-0.451298
0.920763
-0.469465
-0.0208514
0.225393
-0.204541
1.04173
-1.06933
0.0276049
-0.444974
-0.361016
0.805989
0.949629
-1.98875
1.03912
0.00114115
-0.85585
-0.256335
0.121854
-0.315479
-0.471442
0.786921
0.69407
0.525627
-1.2197
-1.35647
-0.411563
0.716866
-0.305303
-0.563963
1.34618
-0.782216
1.43531
-1.30008
-0.0990708
0.245491
0.0394267
0.151151
-0.0376333
-1.15811
0.707771
0.450336
-1.39419
1.62815
-0.233961
-0.0209097
0.163305
-0.142395
-1.392
-0.813269
-0.0325511
0.0380432
-1.65343
0.520577
-0.403915
0.311301
-0.411067
-0.423301
-0.125643
0.0871478
-0.616735
1.59647
0.0518023
-0.397215
-1.54396
0.136056
1.4079
0.441072
-0.723747
0.282674
-0.905139
0.219296
0.230618
-0.612788
0.382171
1.62449
-0.127482
-1.49701
-0.0188802
-0.129329
0.148209
-0.313226
0.513196
0.449489
-0.962685
-0.356706
1.37572
0.312426
0.661186
0.729336
-0.0290448
1.51765
0.227244
-1.43762
1.37858
-0.207299
-0.043784
0.251083
-0.247712
-0.0520694
0.299781
-1.67145
0.44615
-0.349029
0.274073
-0.625303
-0.311594
0.275984
0.912613
-0.488728
-0.423885
0.213836
0.109147
-1.04532
1.88242
-0.837098
0.206022
-0.257448
-0.099381
0.367651
0.274764
-0.566981
-0.0714262
-0.237118
0.308544
-0.184703
-0.00529552
0.189998
0.611594
-0.656622
0.0450282
0.00932347
0.0654528
-0.0747763
-0.319844
0.355672
-0.0358279
0.385655
-0.76063
0.374975
0.359192
-0.0662896
0.0207374
0.320873
-0.341611
1.04203
-1.0376
-0.989311
-0.485824
-0.059165
0.544989
0.233042
0.0844231
-0.316232
-0.24681
0.977316
-0.0647028
0.0052622
-1.2409
1.23563
-0.318519
0.0161098
-0.147164
-0.49649
-0.354749
0.229259
0.202657
-0.201857
-1.22469
-0.0437133
-0.0994084
0.143122
1.18865
-1.02902
1.03852
0.782617
0.162667
0.961948
-0.200845
-1.609
1.80985
0.350442
0.688737
-1.03918
-0.40257
-0.980196
0.483833
0.496363
0.763984
-0.322912
-0.0705677
0.0322123
0.0383553
2.21601
-1.2048
-1.01121
0.148549
-0.34085
0.192301
0.326825
0.684077
-1.0109
0.0801395
0.113059
-0.193198
1.64173
0.0481028
-1.68984
0.277251
0.017984
-0.283475
0.335277
-0.0246814
0.158627
-0.133946
0.374122
-0.0628673
0.0311402
0.100347
-0.131487
-0.748788
-0.326889
1.07568
1.1638
0.460687
0.963577
-0.958314
0.217118
-0.90637
-1.87083
1.66399
-0.140674
-0.0319296
0.322344
-0.60915
0.286806
0.824284
0.78787
1.13738
-1.32455
0.187174
1.27207
-0.610881
-0.167204
0.115855
-0.0569328
0.203703
-0.14677
-1.44789
-0.251706
1.69959
-0.37319
0.487311
-0.114122
-0.00250921
-0.0350038
0.557893
0.86251
-0.160465
-0.0669027
1.16991
-2.12333
0.953413
-0.918063
0.129758
0.788305
1.68097
-0.588498
0.0364891
0.322166
-1.15281
-0.296874
0.00637486
0.290499
0.0256439
-0.236602
-0.666818
1.12914
0.025917
0.0520465
0.249033
0.08682
-0.335853
0.0697618
0.971968
-0.152202
-0.521503
-0.321339
-0.425019
0.433865
0.507886
-0.918953
0.132154
-0.0555322
-0.0503718
0.27461
-1.934
0.896392
0.0079994
0.226725
-0.234724
0.142062
-0.105843
-0.0362193
0.265403
0.87313
-0.0738232
0.0112914
-0.0742266
-1.4829
1.55713
-0.182133
-0.403629
0.585762
-0.066717
0.0841415
-0.0174245
-0.266775
0.981885
-0.243674
-0.287268
0.530943
-0.303667
0.534285
-0.82361
1.72021
-0.896602
-0.935328
0.476519
0.458809
1.69374
-0.104738
-0.27946
-0.0579241
0.337384
0.362673
-0.0707126
-0.197619
-0.276757
0.997462
0.716553
0.500942
-1.31699
0.81605
-0.794885
-0.217582
1.01247
-0.0644699
-0.437128
0.501598
0.146511
0.244318
-0.390829
0.728738
-0.0430552
-0.685683
-0.119879
0.0126366
-0.89782
0.111573
-0.00176824
-0.0789161
0.0813677
-0.144073
0.432971
-0.288898
-0.264655
0.310083
-0.0454285
0.214203
-0.112777
-0.101426
0.761901
-0.455207
-0.0243005
-0.0205447
-0.468915
-0.339174
0.808089
1.23047
-0.965069
-0.0450246
-0.345634
0.390659
-0.282031
-0.482912
-1.3363
1.47706
0.643179
-0.198909
-1.32013
0.885865
0.434262
0.329013
-0.139487
-0.189526
1.77902
-1.77902
-1.67416
0.0974044
-0.894591
-0.142731
-0.679559
0.82229
0.530584
-0.562768
0.0321836
0.0851292
0.294507
-0.170363
-0.124144
-0.0463351
0.249179
-0.202844
-0.594535
1.1334
-0.538861
-0.263022
-0.0577992
0.320821
0.823839
-0.614318
-1.08098
0.286092
-0.0477446
-0.251818
0.299562
-0.00705462
-1.41838
-0.70427
-1.08088
0.376615
0.869637
-0.0589867
0.242034
-0.183047
-0.301794
0.372749
-0.0709549
-0.281576
0.203442
-0.0923188
-0.231439
0.0805537
0.043884
-0.0445564
-0.14025
0.184806
0.168454
0.0352488
-0.26606
0.286798
0.162829
-0.223713
0.0608839
0.047666
0.0415943
-0.0892604
0.173871
0.000187622
-0.174059
-0.0758369
0.19989
-0.124053
-0.74765
1.08725
0.733664
-1.02065
0.286991
-0.183409
-0.0847541
0.268163
-0.00459188
-1.92078
1.92537
0.829719
-0.635646
-0.194072
0.302649
-0.0924562
-0.199763
0.220807
-0.160834
-0.0640925
0.212642
0.373387
-0.916466
0.543078
-0.454207
-1.4601
-0.358908
0.9709
-0.611992
-0.115157
-0.0201805
0.444287
-0.301277
-0.143009
0.0558367
-0.524751
-0.594435
-0.323266
0.3782
-0.0549341
-0.568606
0.348315
-0.0902704
0.584286
0.152276
-0.144542
-1.36287
0.00744271
-0.309764
0.584527
-0.029728
-0.226607
-0.23652
0.0897502
0.261465
-0.320451
-0.0910174
-1.08795
0.340302
1.84143
-0.129848
-1.67749
2.15644
-1.04247
-1.11397
-0.152501
0.528351
-0.164924
-0.751686
0.517504
-0.56057
-0.27504
-0.0218337
-0.532695
-0.54491
1.07761
-0.0625713
-0.121422
0.183993
0.0375339
-0.915295
-1.7703
-0.338665
-0.343796
0.682461
0.232112
-0.414245
-0.274909
-0.0435415
0.318451
0.515727
-0.0939992
0.226898
0.102115
1.95784
-1.00821
-0.991923
0.459228
-0.273843
-0.0568716
0.330715
-0.049918
0.0265694
-1.0959
-0.302695
-0.0641449
0.36684
-0.102467
-0.0408001
0.916407
-1.20584
0.289429
-0.631659
-0.0577966
1.83681
0.416395
-0.75557
1.14501
-2.03281
0.887802
-1.97176
1.20675
0.765014
0.186815
0.113559
-0.300374
0.159687
1.01556
0.0923131
0.833047
-0.92536
-0.0352366
-0.167469
-0.0358184
0.741947
-0.00354329
-0.424145
0.427688
1.16816
-1.369
0.618697
-0.188193
0.23194
-0.0437466
-1.48781
-0.186352
-0.673552
-0.767782
0.281957
0.135375
0.0038255
-0.1392
-0.65707
0.340643
0.316427
-0.427265
0.383156
-1.08057
-0.628124
1.70869
-0.136278
-0.16905
0.148199
0.464124
-0.510517
0.0463935
-0.802638
1.68286
-0.190668
-0.931289
0.479991
0.535969
0.325993
0.64431
-1.23885
0.0840406
-0.234132
0.150091
1.31687
-0.12879
-1.02878
-0.371655
-0.0917398
0.463394
-0.0583565
0.236397
-0.0536926
0.271959
-0.218266
-0.278659
-0.0607012
0.210463
0.641812
-0.448204
0.337386
-0.0730444
-0.4143
0.336388
-0.174962
0.0244384
0.150523
0.285281
-0.107299
-0.177982
-0.169027
-0.0456883
0.214716
-0.210817
-0.0321167
0.242934
0.182571
-0.0955358
-0.285074
-0.146373
0.24305
1.21522
0.436222
-0.254133
-0.182089
0.393634
0.125524
-0.519158
-0.269993
0.416028
-0.146036
-0.355605
0.311578
-0.723141
-0.106841
0.397111
-0.0804215
0.211554
-0.0574156
-0.154335
-0.0420551
1.72667
-0.959433
0.765346
-0.861471
0.0961248
-1.5947
0.258394
-0.0483525
-0.080846
0.129198
-0.052406
-0.050465
-0.820891
-1.15087
0.394219
-0.0674096
-0.759894
-0.792937
0.336459
-0.087426
0.0476608
0.416463
1.00624
-0.796583
-0.823187
1.32413
-1.61619
0.168307
0.48229
0.0333268
-0.515616
-0.0593477
-0.213602
-0.413082
0.626683
0.172807
-0.0322837
-0.717373
-0.633589
1.35096
-0.927712
-0.973817
1.90153
0.515768
0.540119
-1.05589
0.000722918
-0.290925
-0.032341
-0.275393
-0.291587
-0.206815
-0.107717
0.314532
0.897289
0.222227
0.29823
0.146056
-0.255373
-0.648429
0.100473
-0.0939116
-0.49327
1.22201
-0.728744
-0.162993
-0.250764
-1.62625
0.0810496
0.00170247
-0.514893
-0.118375
-0.280813
-0.80108
0.260096
-0.16457
-0.960598
-0.3207
1.2813
-0.319194
0.836698
0.579171
0.341592
-0.33122
-1.01522
-0.918779
-1.25945
1.28706
0.0945374
0.0717478
0.0420725
-0.106571
0.0644987
-0.682614
0.617447
0.0651662
0.732577
-0.782233
0.2891
-0.281101
-1.11437
-0.20576
0.172848
-0.225958
0.0531104
0.585881
0.0257128
-1.39525
-0.00719043
1.40244
0.0463907
0.122063
0.0525622
0.305708
-0.35827
-0.275727
0.462144
0.0989534
0.103554
0.0397154
-0.14327
-1.306
0.865545
0.162708
0.0100999
-0.200801
-0.140049
-0.368084
0.0759429
0.0562112
-0.167225
-0.291451
-0.155785
0.0218394
0.397201
1.52238
-0.707841
1.55105
1.00338
0.467256
-0.828272
-0.112416
-1.28283
0.664268
-0.354796
0.420384
-0.0655882
-0.10345
-0.026773
0.153833
0.0310721
-0.0656274
0.150173
-0.0687067
1.48627
-1.41756
0.134583
-0.801224
-0.135163
-0.287468
-0.0750385
-0.219601
-0.310908
0.392586
-0.0816785
0.0289115
-1.50985
1.48094
0.596659
0.190443
0.340141
-0.969566
-0.580652
1.02238
-0.441731
0.141942
0.0636725
-0.169515
-0.581156
0.475539
0.105616
0.40072
-0.510136
0.109415
-0.224149
-0.518637
0.742786
-0.301308
-0.0676797
-1.97062
0.0674141
0.223019
-0.21846
0.061325
0.192708
-0.0300004
0.384033
-0.727829
2.15738
-0.954886
-1.20249
0.0943237
0.496356
0.32564
-0.273078
0.248481
0.12972
-0.210694
-0.00718637
-0.366301
0.338147
-0.560352
0.805212
-1.02936
0.170201
-0.111226
-0.0589752
-0.394898
-1.69898
0.839364
0.85962
-1.69409
1.68949
-1.08319
0.554034
0.529154
-0.772053
0.0676755
0.704377
0.305515
0.671802
0.265859
0.218442
0.722291
0.628275
0.0706474
-0.283956
-0.0173208
1.01478
1.1426
-0.15015
0.0674011
1.27127
-1.08639
-0.045461
-1.39544
1.4409
1.14376
0.0714595
-0.320163
-0.0837527
-0.185295
-0.191693
-0.291569
-0.234389
-0.146284
0.180135
-1.00667
0.826538
-0.538554
2.22267
-1.36802
-0.854646
0.0255174
0.172763
0.0526303
0.648882
0.145156
1.60652
-1.50911
0.994636
-1.92235
-1.22095
-0.0039481
1.2249
-0.844127
0.297227
0.5469
0.076517
0.00485064
1.95625
0.00871339
-1.96497
-1.04357
1.61673
-0.573161
0.0585572
0.251526
-1.25154
0.687572
-0.00921145
0.136566
-1.33712
0.202829
-0.00668587
-0.0291283
0.0358141
-0.158634
0.218132
-0.0594978
0.0770596
-0.433183
0.356123
0.639515
0.375657
-0.529523
-0.127546
0.00148285
0.906712
-0.90557
-0.0804025
-0.0767319
-0.282108
0.0602545
0.126716
0.659585
-0.7863
0.0694684
0.49732
-0.566788
0.121959
-0.531292
0.409333
-0.511687
-1.38614
0.567622
0.818523
-0.0337337
0.808835
0.301773
-1.11061
-0.676296
0.251321
-0.276924
0.0256031
0.196873
-0.0405074
-0.28053
0.00562081
-0.317384
-0.775598
0.16435
-0.478467
0.851284
-0.372816
-0.780101
-0.239308
1.91301
-0.835336
-0.104753
0.200887
-1.25745
-0.0808654
-1.24754
1.3284
0.142697
0.0541701
-0.196867
0.772219
-0.484757
-0.287462
0.222352
-0.0394293
0.0281646
-1.1483
0.3682
-0.721993
1.20583
-0.05923
-0.346903
0.32732
0.261546
0.023735
0.883832
-0.397122
0.0589767
0.6736
-0.939948
0.343719
-1.8951
0.921281
1.53768
-1.50877
-1.62547
1.55677
-0.0562647
-1.48016
0.250413
1.22975
0.529745
0.441155
0.0394231
-0.890866
0.748135
-0.152556
-0.13221
0.284766
-1.11558
0.38954
0.726041
0.227498
0.597014
-0.824512
-0.0585711
-1.20088
0.805366
0.0265766
-0.831942
0.249409
0.665487
-1.10434
-0.125455
-0.0171902
0.0693434
1.60452
-1.55642
-0.298203
-0.990474
-0.39567
0.659727
0.0116232
-1.23257
1.14531
-0.336472
-1.90218
0.112358
-0.16831
-0.965006
0.362016
0.230826
1.87083
0.19757
0.00435798
-1.10026
0.162765
-0.124935
0.116916
-0.450779
0.330427
-0.595111
0.264684
-0.152579
0.00485195
0.147727
0.293633
-0.351557
-0.00694477
-0.28362
-1.13322
1.19193
-0.0587084
-0.737606
0.808715
-1.40988
0.601162
-0.843736
-0.0713705
0.122088
-1.448
0.111164
1.33684
-0.396147
0.961463
-0.688199
0.725733
0.156722
0.918385
0.63085
-0.952188
-0.830183
-0.197225
1.02741
-0.826068
-1.27203
0.554662
-0.145497
0.149372
-0.00387435
0.0893739
-0.106798
0.719824
-1.38664
0.0802917
-0.544981
0.464689
-0.365566
0.284845
0.0807209
-1.03615
0.517509
0.0434103
0.0296837
-0.25707
0.443193
1.80023
0.156025
-0.781272
0.873585
-0.300102
0.0993012
-0.789011
1.43243
-0.643421
-0.089132
0.0761836
0.0938164
0.405217
-0.0203097
0.907449
1.18955
0.512165
-0.921451
0.287351
-1.7519
-0.19818
0.154467
0.00597516
-1.035
-0.258396
-0.94744
-0.242448
0.062214
0.854989
-0.411796
-0.633665
-0.0829738
0.724786
0.212764
-1.73743
0.321044
1.41639
-0.0514357
0.51358
0.338624
-1.35318
-0.361648
0.80188
-0.372044
-0.429835
0.923536
-0.3348
-0.588736
-0.207827
0.0460204
0.680287
-0.666777
-0.0135101
-1.71538
0.782096
0.933282
0.948016
0.772195
0.000985896
0.134389
0.82973
-0.518152
-1.45572
0.58601
0.869706
-1.87718
1.62547
0.615362
0.693898
-1.30926
0.859073
-0.725899
1.6639
-0.735901
-0.928004
-1.08858
0.21085
-0.0949949
0.0713045
-0.106784
0.225685
-0.057737
0.151977
-0.0942402
-0.209025
-0.0523737
-1.24264
-0.152268
0.170514
-0.174057
-0.0399053
-0.0396109
1.0154
-0.313099
-0.702298
0.846489
-0.505846
-0.159304
0.142592
-0.121266
1.25864
0.190247
-0.0475503
-0.254659
-0.781487
-1.523
0.562398
-0.0564986
-0.114445
0.136428
0.0596269
0.142502
-0.10043
-0.52569
-1.01641
0.129107
-0.0965114
-0.0325961
0.209806
-0.650774
-0.869023
1.5198
0.173592
0.0191162
-0.0497615
1.01276
0.987488
-2.00025
-0.552384
1.06815
0.248815
-0.100054
0.339101
-1.0645
-0.617701
1.6822
-0.934218
-1.04295
0.498039
0.292635
-0.115995
-0.17664
0.31945
-0.756872
-0.20469
1.18161
-0.372897
-0.21072
0.123396
-0.241463
-0.779192
0.000137201
1.86374
-1.66399
-0.199758
-0.928953
-0.594043
0.196703
0.190709
0.0724237
-1.00025
-0.277709
1.27796
0.283033
0.443477
-0.0427564
-1.59532
-2.04218
0.800651
1.24153
-0.199143
-0.00596946
0.205113
1.00861
-0.619923
-0.388683
0.126783
-0.19241
0.092286
0.101359
0.926116
-2.00668
0.79977
0.123766
-0.422746
-0.569177
-0.155991
0.0345688
0.172661
0.730841
-1.38161
0.0225694
0.39907
-0.161444
0.312595
-0.238322
0.0298745
0.208447
0.694932
0.968973
0.504145
0.0504193
0.356877
-0.620122
0.263246
1.99866
-1.67761
0.228212
-0.555831
0.166938
0.029935
0.134001
0.0255492
0.159257
0.00419231
-0.14969
0.636902
0.0504422
-1.72914
-0.0252759
-0.173867
-0.0851515
-0.0214197
1.11779
-0.538624
0.883881
-0.60655
-0.277331
0.00503808
0.130527
-0.0134502
0.00676436
0.399404
-0.00810135
0.1981
-0.334903
-0.321719
-1.98082
0.888691
1.09213
-0.0111716
0.0102516
-0.0531955
0.123923
0.149652
-0.290685
-0.322103
0.43433
-1.49883
-0.121849
-0.959478
1.97224
0.63262
-0.176319
-0.456301
-0.793894
-0.426982
-0.135785
0.105022
-1.13717
0.400157
-0.706653
0.306497
-0.313716
0.264905
0.0488104
-0.0643064
1.07704
0.999959
-1.62677
1.67761
-1.45739
0.858837
0.598555
1.01714
-1.97662
2.09352
-1.07558
-0.998662
-0.965764
0.207648
0.579727
-0.135436
-0.349877
-1.53769
0.0575307
-0.00784492
-1.31671
1.19208
-1.96955
0.777473
-0.0616666
0.277094
-0.575302
0.760349
-0.30154
0.855854
1.36681
-1.47337
0.684363
-0.0772087
-0.857009
-1.35052
0.29521
-0.0303044
1.69409
-1.79882
-0.0752
-1.3193
0.0401335
0.754603
-0.241407
-1.47364
1.68617
-0.212529
0.24518
1.68019
0.46951
-0.0490553
-0.420455
1.89852
-0.90388
0.259616
0.175045
0.61179
-0.758955
0.115311
0.146235
0.105904
0.789555
-0.895458
-0.711337
-0.403435
1.05442
-1.04458
-0.00983572
-0.365923
0.301778
-1.58138
0.840724
0.74066
0.59603
0.176189
-0.767362
0.138791
0.87304
-0.547048
0.311742
-0.587135
0.18584
-0.243256
-0.684388
0.470786
-0.991413
-0.917786
1.9092
0.268785
-0.300902
0.294984
-0.357851
1.0695
-0.589508
0.107085
0.980471
-1.68831
0.124905
0.181639
0.261244
-1.22631
-0.0205449
0.693185
0.0638216
0.137152
-0.608594
-1.41673
0.593543
0.210649
-0.432453
0.221804
0.0760561
-0.341621
1.08613
1.0703
1.26842
-0.978988
-0.0709526
0.181977
0.177155
0.480715
0.300791
-0.361492
-0.730191
-0.956235
1.97338
0.170399
-0.204133
-0.816687
-1.05052
1.86721
-1.56302
0.519453
-0.0781797
-0.405274
0.259238
-1.45312
-0.0908349
-0.24463
0.644787
-1.05766
-0.923159
1.86374
0.676777
-1.31472
1.0494
-0.673745
-0.302186
-0.388637
0.356296
-0.288973
0.243948
-1.69731
0.274068
-0.85472
1.02006
-1.97629
-0.853084
0.309902
-0.380615
-0.0584666
-1.41518
0.868442
-0.608346
1.32814
0.901604
-1.73283
0.831225
1.72637
-0.944271
2.01824
-0.95082
-0.981782
1.9326
0.368375
1.29978
-1.01675
-0.782631
-1.25955
-0.951479
-0.505914
0.495352
-0.772107
1.73122
-0.959109
-0.15724
1.39029
-1.23305
-1.00499
-0.982232
1.98722
0.89387
0.160551
0.300207
0.406981
-0.847587
-0.0130901
0.860677
0.0571413
-0.31459
0.451516
-1.38047
-0.807998
-0.413802
-0.268811
0.287891
-0.406266
-0.810158
1.18504
-1.95675
0.957514
0.99924
0.0117258
-1.70931
1.69758
0.13613
-0.299516
0.0966721
0.525222
-1.80687
1.80687
-0.082865
-0.0254417
0.108307
-0.559734
1.08536
0.28156
0.0136496
-0.826181
-0.679354
0.901581
-1.62677
-0.0686102
-1.27808
0.308145
1.24874
-1.2558
-1.23521
0.234964
0.311551
-0.379461
0.0679096
0.166219
0.514068
-0.169131
0.0165524
-0.9417
-1.18102
0.119119
1.0619
-1.39047
-0.0605936
-0.526457
-0.88342
-0.0472244
0.150779
0.185367
-0.13877
0.38725
-0.216658
0.0608732
0.390287
-0.313651
-0.370737
-0.772785
1.59117
-0.818387
0.357532
0.219884
-0.230684
0.438009
-0.207325
-0.388034
0.213564
0.44547
-0.602941
0.157471
-0.854553
1.54334
-0.927981
-1.48795
-1.6757
0.165851
-1.08027
0.0590807
0.984378
1.23163
0.0266711
-0.991677
1.14965
-0.441879
-0.371327
0.312097
0.650921
0.615185
0.243888
1.96681
-0.946758
-0.988392
-0.922954
1.91135
1.15684
-0.0300004
-1.12684
-0.229598
0.355121
-0.226866
0.205957
0.151543
1.3286
-1.48014
-1.4983
1.50877
-0.0104673
1.4983
-1.55677
0.237427
-0.299094
-0.515337
1.18082
0.0996244
-0.268623
0.173087
-1.67387
0.16991
1.72975
-0.828145
-0.451696
-0.110877
0.135315
-0.463312
1.06986
0.282652
-0.0903511
0.706797
-0.601181
0.196815
-0.267663
-0.598589
-0.081142
0.404324
-2.09335
0.495728
-0.0805963
0.469373
-0.388776
-1.04033
-0.929227
0.112257
0.439784
0.646477
-0.912162
0.13089
-0.152323
-0.378969
0.116319
-1.99241
0.993748
0.139961
-0.0995728
-0.220879
0.00325942
-0.170484
-0.0801876
-1.3637
0.895385
-1.58526
0.689874
0.0691916
0.275352
-0.344544
-0.731943
0.470705
-1.05845
1.36659
0.483205
0.584946
1.27807
-1.35318
0.20924
0.048487
1.67782
-1.91088
0.233055
-0.317429
-0.193088
-0.800357
-0.0315856
0.397285
-0.489025
-0.206182
0.295932
-0.887365
-0.191935
-0.0263244
0.21826
-1.48508
0.209508
1.27557
-0.231734
0.278124
-0.0391041
-0.18294
0.222044
1.1749
-1.16328
0.227519
-0.222667
0.664418
0.157872
0.26873
-0.21562
-0.246522
0.226341
0.215449
0.635018
-0.850467
-0.445587
0.0124044
-0.923079
-1.02567
1.94874
0.211853
-0.702074
0.798199
-0.7571
1.68949
-0.262388
0.203041
0.0715747
0.0616062
0.0896985
1.9934
-0.978625
-1.25199
0.836892
-0.562824
-0.50911
1.37882
-0.226985
0.218884
0.104657
-0.107167
-0.580472
0.398383
-0.327732
0.220015
-0.141853
-0.449269
0.310499
1.02926
0.244596
-0.241336
0.262781
-0.0207471
0.0453563
-0.436404
0.29012
0.510042
-0.823693
0.233173
-0.268967
0.0357946
0.26832
-0.21415
0.37233
0.709865
-1.08219
-0.282847
0.150636
0.336363
-0.655557
1.29703
-0.735394
1.02137
0.904119
0.0120033
0.543916
-1.00492
0.375255
-0.469255
-0.225158
1.01616
0.94168
-1.64263
1.64263
1.53566
-0.908586
1.11372
0.00222235
1.52504
-1.52726
0.930574
1.01387
0.927624
-1.91904
0.0462983
-1.07566
-1.33354
-0.23059
-1.43
1.66059
-0.4342
-0.134407
0.088122
0.783449
0.202091
-0.30939
-0.950856
1.80121
-0.850349
-0.18849
0.303801
0.00422242
0.260749
0.503236
2.09561
-0.799066
-1.29655
1.57906
-1.4679
1.11866
0.193208
0.187067
-0.00958374
0.0456944
1.56031
0.566875
1.01866
0.863752
0.0254454
0.22025
-0.245695
-0.382398
0.242349
0.203891
-0.218924
0.0150327
0.182528
-0.247874
0.065346
0.447284
-0.445801
0.359125
-0.522118
-0.098276
0.486281
0.0459908
0.0969194
-0.0117902
-0.398214
-0.094829
0.493043
0.128983
-0.121182
-0.00780064
1.79882
-1.57132
-0.446903
0.166985
0.279918
-1.60452
-0.369543
0.289122
-0.962212
1.89279
0.281803
-0.356842
1.93042
-1.00279
0.268305
-0.341349
-0.183456
-0.762749
-1.30611
-0.138842
1.493
1.34104
-1.07979
-0.107913
0.179031
-0.0673446
-1.50624
-0.322058
0.316227
0.267084
-0.402247
-0.395238
0.313559
-0.110046
-1.3505
1.30504
-1.4403
1.44657
-1.19652
-0.519908
0.453738
0.703689
0.413526
-0.430847
-0.0850021
0.0791845
0.375832
-0.455016
-0.412974
1.42284
-0.990285
-0.969993
-1.92599
-0.102446
0.0983236
0.00412239
-0.0624286
1.50215
-1.43972
0.847443
-0.683093
0.345961
-0.411549
1.62804
-0.844587
0.871626
0.877644
-1.74927
0.252375
0.0302766
0.69207
-0.195714
0.212332