# Force       
# CofR        : (0.000000e+00 0.000000e+00 0.000000e+00)
#
# Time        	total_x total_y total_z	pressure_x pressure_y pressure_z	viscous_x viscous_y viscous_z
0.005          2.718605e+02 2.783528e+02 2.153432e-16 2.309299e+02 2.918792e+02 2.171995e-16 4.093061e+01 -1.352632e+01 -1.856296e-18
0.01           2.988276e+02 3.375988e+02 2.057655e-16 2.601086e+02 3.508515e+02 2.072313e-16 3.871904e+01 -1.325268e+01 -1.465887e-18
0.015          2.461649e+02 2.823885e+02 1.856037e-16 2.096197e+02 2.954365e+02 1.865551e-16 3.654524e+01 -1.304799e+01 -9.514490e-19
0.02           2.230218e+02 2.510445e+02 1.676098e-16 1.884895e+02 2.638530e+02 1.683165e-16 3.453226e+01 -1.280849e+01 -7.067234e-19
0.025          2.184198e+02 2.421926e+02 1.607283e-16 1.857602e+02 2.546286e+02 1.613567e-16 3.265960e+01 -1.243600e+01 -6.283539e-19
0.03           2.136802e+02 2.389419e+02 1.640798e-16 1.826468e+02 2.508630e+02 1.646851e-16 3.103346e+01 -1.192104e+01 -6.052553e-19
0.035          2.123625e+02 2.431454e+02 1.688673e-16 1.827056e+02 2.544888e+02 1.694975e-16 2.965683e+01 -1.134340e+01 -6.302299e-19
0.04           2.079219e+02 2.488685e+02 1.729234e-16 1.795003e+02 2.597146e+02 1.735548e-16 2.842155e+01 -1.084614e+01 -6.314118e-19
0.045          2.037390e+02 2.510076e+02 1.758193e-16 1.764299e+02 2.614162e+02 1.763566e-16 2.730905e+01 -1.040859e+01 -5.373177e-19
0.05           2.047390e+02 2.646461e+02 1.777366e-16 1.784455e+02 2.746444e+02 1.781577e-16 2.629355e+01 -9.998337e+00 -4.210920e-19
0.055          2.090800e+02 2.819463e+02 1.785285e-16 1.836981e+02 2.915971e+02 1.788848e-16 2.538190e+01 -9.650716e+00 -3.562979e-19
0.06           2.083282e+02 2.912786e+02 1.776049e-16 1.837715e+02 3.006558e+02 1.779784e-16 2.455669e+01 -9.377140e+00 -3.734862e-19
0.065          2.096474e+02 3.021763e+02 1.775655e-16 1.858174e+02 3.113207e+02 1.779869e-16 2.382997e+01 -9.144443e+00 -4.213908e-19
0.07           2.093116e+02 3.072339e+02 1.741874e-16 1.860978e+02 3.161525e+02 1.746773e-16 2.321380e+01 -8.918632e+00 -4.898660e-19
0.075          2.102318e+02 3.125491e+02 1.716340e-16 1.875474e+02 3.212495e+02 1.722127e-16 2.268443e+01 -8.700437e+00 -5.786923e-19
0.08           2.097227e+02 3.163271e+02 1.685621e-16 1.875304e+02 3.248298e+02 1.691869e-16 2.219234e+01 -8.502650e+00 -6.248543e-19
0.085          2.102713e+02 3.224084e+02 1.654795e-16 1.885627e+02 3.307127e+02 1.660810e-16 2.170862e+01 -8.304304e+00 -6.014838e-19
0.09           2.131517e+02 3.355148e+02 1.624257e-16 1.919163e+02 3.435970e+02 1.629294e-16 2.123535e+01 -8.082116e+00 -5.036776e-19
0.095          2.160000e+02 3.488386e+02 1.602770e-16 1.952252e+02 3.566625e+02 1.606474e-16 2.077485e+01 -7.823930e+00 -3.704428e-19
0.1            2.161457e+02 3.516758e+02 1.569973e-16 1.958263e+02 3.592162e+02 1.572272e-16 2.031939e+01 -7.540320e+00 -2.298438e-19
0.105          2.182432e+02 3.600708e+02 1.540315e-16 1.983698e+02 3.673144e+02 1.541558e-16 1.987332e+01 -7.243648e+00 -1.243041e-19
0.11           2.194607e+02 3.660106e+02 1.510729e-16 2.000063e+02 3.729780e+02 1.511519e-16 1.945442e+01 -6.967451e+00 -7.896242e-20
0.115          2.207520e+02 3.717219e+02 1.486849e-16 2.016961e+02 3.784598e+02 1.487749e-16 1.905590e+01 -6.737960e+00 -8.999138e-20
0.12           2.213020e+02 3.776578e+02 1.469305e-16 2.026306e+02 3.841914e+02 1.470839e-16 1.867139e+01 -6.533592e+00 -1.533207e-19
0.125          2.218906e+02 3.832003e+02 1.453488e-16 2.035982e+02 3.895383e+02 1.455892e-16 1.829235e+01 -6.338009e+00 -2.403393e-19
0.13           2.236836e+02 3.919499e+02 1.439273e-16 2.057778e+02 3.981040e+02 1.442510e-16 1.790584e+01 -6.154078e+00 -3.237513e-19
0.135          2.258034e+02 4.010149e+02 1.428325e-16 2.082962e+02 4.069959e+02 1.432147e-16 1.750724e+01 -5.981037e+00 -3.821947e-19
0.14           2.268643e+02 4.071085e+02 1.419043e-16 2.097689e+02 4.129304e+02 1.423032e-16 1.709545e+01 -5.821888e+00 -3.988820e-19
0.145          2.279736e+02 4.137588e+02 1.404756e-16 2.112955e+02 4.194288e+02 1.408543e-16 1.667816e+01 -5.669984e+00 -3.787905e-19
0.15           2.281990e+02 4.165869e+02 1.385801e-16 2.119352e+02 4.221058e+02 1.389102e-16 1.626379e+01 -5.518902e+00 -3.301137e-19
0.155          2.287598e+02 4.204178e+02 1.366630e-16 2.128974e+02 4.257791e+02 1.369398e-16 1.586232e+01 -5.361221e+00 -2.767896e-19
0.16           2.294513e+02 4.240626e+02 1.347950e-16 2.139737e+02 4.292619e+02 1.350284e-16 1.547757e+01 -5.199322e+00 -2.334110e-19
0.165          2.297347e+02 4.266411e+02 1.328746e-16 2.146237e+02 4.316803e+02 1.330833e-16 1.511105e+01 -5.039159e+00 -2.087274e-19
0.17           2.292175e+02 4.281791e+02 1.311640e-16 2.144536e+02 4.330629e+02 1.313730e-16 1.476389e+01 -4.883867e+00 -2.090497e-19
0.175          2.290474e+02 4.312676e+02 1.300217e-16 2.146116e+02 4.360026e+02 1.302570e-16 1.443581e+01 -4.734960e+00 -2.352682e-19
0.18           2.286924e+02 4.336956e+02 1.292700e-16 2.145699e+02 4.382877e+02 1.295435e-16 1.412253e+01 -4.592126e+00 -2.735528e-19
0.185          2.286620e+02 4.365946e+02 1.282844e-16 2.148441e+02 4.410531e+02 1.285870e-16 1.381781e+01 -4.458505e+00 -3.026139e-19
0.19           2.295605e+02 4.414800e+02 1.273905e-16 2.160366e+02 4.458117e+02 1.277151e-16 1.352395e+01 -4.331694e+00 -3.246286e-19
0.195          2.291345e+02 4.433098e+02 1.262449e-16 2.158930e+02 4.475227e+02 1.265729e-16 1.324156e+01 -4.212880e+00 -3.279949e-19
0.2            2.299149e+02 4.468302e+02 1.249618e-16 2.169424e+02 4.509274e+02 1.252910e-16 1.297252e+01 -4.097277e+00 -3.292257e-19
0.205          2.303965e+02 4.497270e+02 1.235451e-16 2.176791e+02 4.537075e+02 1.238829e-16 1.271744e+01 -3.980543e+00 -3.378656e-19
0.21           2.325864e+02 4.553518e+02 1.221294e-16 2.201113e+02 4.592142e+02 1.224911e-16 1.247510e+01 -3.862438e+00 -3.617178e-19
0.215          2.328550e+02 4.578514e+02 1.207172e-16 2.206114e+02 4.615963e+02 1.211086e-16 1.224359e+01 -3.744928e+00 -3.913661e-19
0.22           2.337239e+02 4.608509e+02 1.191845e-16 2.217053e+02 4.644822e+02 1.196001e-16 1.201866e+01 -3.631299e+00 -4.155904e-19
0.225          2.344620e+02 4.635742e+02 1.178656e-16 2.226640e+02 4.670958e+02 1.182894e-16 1.179797e+01 -3.521551e+00 -4.238316e-19
0.23           2.353264e+02 4.668472e+02 1.167469e-16 2.237484e+02 4.702631e+02 1.171614e-16 1.157798e+01 -3.415831e+00 -4.145949e-19
0.235          2.358833e+02 4.696454e+02 1.157066e-16 2.245267e+02 4.729589e+02 1.161042e-16 1.135662e+01 -3.313519e+00 -3.976220e-19
0.24           2.368802e+02 4.729637e+02 1.144690e-16 2.257480e+02 4.761787e+02 1.148577e-16 1.113213e+01 -3.215042e+00 -3.886206e-19
0.245          2.372660e+02 4.749056e+02 1.130991e-16 2.263614e+02 4.780251e+02 1.134983e-16 1.090457e+01 -3.119503e+00 -3.991534e-19
0.25           2.377732e+02 4.771698e+02 1.115227e-16 2.270997e+02 4.801961e+02 1.119510e-16 1.067352e+01 -3.026241e+00 -4.282600e-19
0.255          2.386289e+02 4.797753e+02 1.099011e-16 2.281893e+02 4.827101e+02 1.103709e-16 1.043958e+01 -2.934758e+00 -4.698243e-19
0.26           2.383516e+02 4.804424e+02 1.080759e-16 2.281489e+02 4.832866e+02 1.085817e-16 1.020272e+01 -2.844163e+00 -5.058465e-19
0.265          2.388521e+02 4.825853e+02 1.064088e-16 2.288893e+02 4.853414e+02 1.069407e-16 9.962759e+00 -2.756094e+00 -5.318965e-19
0.27           2.385599e+02 4.831199e+02 1.047154e-16 2.288382e+02 4.857919e+02 1.052568e-16 9.721773e+00 -2.672010e+00 -5.414363e-19
0.275          2.384603e+02 4.843287e+02 1.032217e-16 2.289788e+02 4.869212e+02 1.037645e-16 9.481482e+00 -2.592541e+00 -5.428173e-19
0.28           2.389494e+02 4.865636e+02 1.019361e-16 2.297046e+02 4.890793e+02 1.024785e-16 9.244808e+00 -2.515726e+00 -5.424335e-19
0.285          2.389375e+02 4.881306e+02 1.008708e-16 2.299232e+02 4.905714e+02 1.014194e-16 9.014346e+00 -2.440823e+00 -5.486244e-19
0.29           2.391066e+02 4.894681e+02 9.978242e-17 2.303160e+02 4.918373e+02 1.003447e-16 8.790627e+00 -2.369197e+00 -5.622705e-19
0.295          2.390045e+02 4.901137e+02 9.863514e-17 2.304296e+02 4.924141e+02 9.921711e-17 8.574882e+00 -2.300405e+00 -5.819710e-19
0.3            2.388445e+02 4.906068e+02 9.814542e-17 2.304778e+02 4.928429e+02 9.875180e-17 8.366694e+00 -2.236174e+00 -6.063775e-19
0.305          2.389917e+02 4.915283e+02 9.717245e-17 2.308266e+02 4.937059e+02 9.779901e-17 8.165108e+00 -2.177608e+00 -6.265630e-19
0.31           2.392064e+02 4.923422e+02 9.633835e-17 2.312344e+02 4.944630e+02 9.698738e-17 7.972024e+00 -2.120787e+00 -6.490301e-19
0.315          2.394262e+02 4.931612e+02 9.560084e-17 2.316402e+02 4.952254e+02 9.627266e-17 7.786003e+00 -2.064229e+00 -6.718255e-19
0.32           2.399556e+02 4.946344e+02 9.494268e-17 2.323484e+02 4.966429e+02 9.563715e-17 7.607211e+00 -2.008530e+00 -6.944737e-19
0.325          2.398990e+02 4.949657e+02 9.423723e-17 2.324640e+02 4.969178e+02 9.495259e-17 7.434971e+00 -1.952014e+00 -7.153547e-19
0.33           2.406469e+02 4.967652e+02 9.370579e-17 2.333780e+02 4.986619e+02 9.444312e-17 7.268887e+00 -1.896736e+00 -7.373291e-19
0.335          2.411826e+02 4.978597e+02 9.320429e-17 2.340748e+02 4.997025e+02 9.395904e-17 7.107856e+00 -1.842789e+00 -7.547521e-19
0.34           2.418653e+02 4.995157e+02 9.280754e-17 2.349144e+02 5.013068e+02 9.357811e-17 6.950847e+00 -1.791047e+00 -7.705734e-19
0.345          2.424257e+02 5.008880e+02 9.249735e-17 2.356283e+02 5.026295e+02 9.328259e-17 6.797463e+00 -1.741528e+00 -7.852400e-19
0.35           2.429388e+02 5.023683e+02 9.217803e-17 2.362912e+02 5.040617e+02 9.297729e-17 6.647613e+00 -1.693422e+00 -7.992595e-19
0.355          2.434295e+02 5.037495e+02 9.189722e-17 2.369279e+02 5.053958e+02 9.271148e-17 6.501622e+00 -1.646273e+00 -8.142586e-19
0.36           2.439983e+02 5.053411e+02 9.167028e-17 2.376385e+02 5.069413e+02 9.250053e-17 6.359835e+00 -1.600240e+00 -8.302483e-19
0.365          2.443209e+02 5.067094e+02 9.148765e-17 2.380991e+02 5.082651e+02 9.233479e-17 6.221783e+00 -1.555710e+00 -8.471459e-19
0.37           2.446345e+02 5.080434e+02 9.134577e-17 2.385462e+02 5.095554e+02 9.220925e-17 6.088299e+00 -1.511924e+00 -8.634804e-19
0.375          2.448412e+02 5.093466e+02 9.132413e-17 2.388816e+02 5.108149e+02 9.220290e-17 5.959618e+00 -1.468290e+00 -8.787756e-19
0.38           2.449860e+02 5.104731e+02 9.128202e-17 2.391501e+02 5.118978e+02 9.217535e-17 5.835856e+00 -1.424671e+00 -8.933384e-19
0.385          2.454468e+02 5.123099e+02 9.129341e-17 2.397293e+02 5.136898e+02 9.220071e-17 5.717532e+00 -1.379927e+00 -9.072939e-19
0.39           2.456543e+02 5.135028e+02 9.126048e-17 2.400487e+02 5.148351e+02 9.218104e-17 5.605672e+00 -1.332314e+00 -9.205603e-19
0.395          2.461460e+02 5.153597e+02 9.129427e-17 2.406472e+02 5.166436e+02 9.223030e-17 5.498769e+00 -1.283856e+00 -9.360284e-19
0.4            2.462552e+02 5.163271e+02 9.128775e-17 2.408592e+02 5.175626e+02 9.223952e-17 5.396063e+00 -1.235541e+00 -9.517649e-19
0.405          2.465028e+02 5.175760e+02 9.129865e-17 2.412058e+02 5.187642e+02 9.226542e-17 5.297064e+00 -1.188162e+00 -9.667704e-19
0.41           2.468192e+02 5.189914e+02 9.129219e-17 2.416182e+02 5.201336e+02 9.227029e-17 5.201027e+00 -1.142203e+00 -9.781046e-19
0.415          2.470854e+02 5.202035e+02 9.129038e-17 2.419778e+02 5.213017e+02 9.227688e-17 5.107556e+00 -1.098240e+00 -9.865052e-19
0.42           2.468829e+02 5.203509e+02 9.125280e-17 2.418663e+02 5.214072e+02 9.224539e-17 5.016577e+00 -1.056346e+00 -9.925902e-19
0.425          2.474079e+02 5.219705e+02 9.123055e-17 2.424796e+02 5.229856e+02 9.222906e-17 4.928370e+00 -1.015157e+00 -9.985137e-19
0.43           2.477737e+02 5.230926e+02 9.118481e-17 2.429316e+02 5.240678e+02 9.219085e-17 4.842123e+00 -9.752536e-01 -1.006041e-18
0.435          2.480579e+02 5.240657e+02 9.112231e-17 2.433003e+02 5.250023e+02 9.213824e-17 4.757563e+00 -9.365103e-01 -1.015925e-18
0.44           2.483559e+02 5.252314e+02 9.107724e-17 2.436822e+02 5.261302e+02 9.210553e-17 4.673759e+00 -8.988015e-01 -1.028288e-18
0.445          2.485069e+02 5.260411e+02 9.101053e-17 2.439161e+02 5.269034e+02 9.204877e-17 4.590859e+00 -8.623838e-01 -1.038239e-18
0.45           2.488259e+02 5.270577e+02 9.091647e-17 2.443168e+02 5.278847e+02 9.196054e-17 4.509089e+00 -8.270410e-01 -1.044068e-18
0.455          2.488701e+02 5.275923e+02 9.087171e-17 2.444414e+02 5.283851e+02 9.191657e-17 4.428707e+00 -7.928260e-01 -1.044862e-18
0.46           2.490908e+02 5.284809e+02 9.083859e-17 2.447406e+02 5.292391e+02 9.188096e-17 4.350271e+00 -7.581965e-01 -1.042369e-18
0.465          2.493197e+02 5.293994e+02 9.079652e-17 2.450460e+02 5.301220e+02 9.183515e-17 4.273616e+00 -7.225938e-01 -1.038630e-18
0.47           2.494839e+02 5.302744e+02 9.082157e-17 2.452853e+02 5.309628e+02 9.186052e-17 4.198585e+00 -6.884053e-01 -1.038953e-18
0.475          2.497646e+02 5.311754e+02 9.080773e-17 2.456400e+02 5.318296e+02 9.185127e-17 4.124629e+00 -6.541528e-01 -1.043539e-18
0.48           2.503629e+02 5.328734e+02 9.075520e-17 2.463115e+02 5.334936e+02 9.180751e-17 4.051418e+00 -6.201500e-01 -1.052306e-18
0.485          2.507953e+02 5.341705e+02 9.074199e-17 2.468165e+02 5.347572e+02 9.180623e-17 3.978737e+00 -5.867150e-01 -1.064244e-18
0.49           2.512019e+02 5.353827e+02 9.069852e-17 2.472952e+02 5.359370e+02 9.177512e-17 3.906660e+00 -5.543034e-01 -1.076601e-18
0.495          2.515007e+02 5.364380e+02 9.075121e-17 2.476658e+02 5.369615e+02 9.183935e-17 3.834948e+00 -5.234657e-01 -1.088133e-18
0.5            2.518435e+02 5.374900e+02 9.053203e-17 2.480789e+02 5.379825e+02 9.162679e-17 3.764653e+00 -4.924750e-01 -1.094764e-18
0.505          2.522171e+02 5.386621e+02 9.050161e-17 2.485219e+02 5.391246e+02 9.160012e-17 3.695248e+00 -4.624760e-01 -1.098502e-18
0.51           2.524882e+02 5.396664e+02 9.046397e-17 2.488615e+02 5.400997e+02 9.156174e-17 3.626703e+00 -4.333036e-01 -1.097770e-18
0.515          2.527504e+02 5.406655e+02 9.044180e-17 2.491913e+02 5.410705e+02 9.153494e-17 3.559147e+00 -4.049711e-01 -1.093148e-18
0.52           2.529121e+02 5.415072e+02 9.041957e-17 2.494193e+02 5.418848e+02 9.150522e-17 3.492756e+00 -3.775842e-01 -1.085649e-18
0.525          2.531948e+02 5.425298e+02 9.039920e-17 2.497672e+02 5.428810e+02 9.147607e-17 3.427651e+00 -3.512495e-01 -1.076870e-18
0.53           2.534058e+02 5.433781e+02 9.033036e-17 2.500419e+02 5.437045e+02 9.139801e-17 3.363836e+00 -3.264152e-01 -1.067657e-18
0.535          2.538147e+02 5.446856e+02 9.034366e-17 2.505124e+02 5.449874e+02 9.140412e-17 3.302291e+00 -3.017510e-01 -1.060465e-18
0.54           2.540737e+02 5.456413e+02 9.029478e-17 2.508312e+02 5.459190e+02 9.134818e-17 3.242469e+00 -2.777429e-01 -1.053395e-18
0.545          2.540533e+02 5.460413e+02 9.026758e-17 2.508690e+02 5.462960e+02 9.131506e-17 3.184353e+00 -2.546940e-01 -1.047476e-18
0.55           2.543604e+02 5.471268e+02 9.038469e-17 2.512321e+02 5.473583e+02 9.142469e-17 3.128376e+00 -2.314659e-01 -1.039993e-18
0.555          2.546679e+02 5.481823e+02 9.039970e-17 2.515939e+02 5.483913e+02 9.143230e-17 3.074057e+00 -2.089600e-01 -1.032600e-18
0.56           2.549777e+02 5.490845e+02 9.035235e-17 2.519562e+02 5.492715e+02 9.137607e-17 3.021486e+00 -1.870065e-01 -1.023720e-18
0.565          2.553035e+02 5.501266e+02 9.035642e-17 2.523328e+02 5.502914e+02 9.137253e-17 2.970691e+00 -1.647767e-01 -1.016112e-18
0.57           2.558453e+02 5.515719e+02 9.035881e-17 2.529245e+02 5.517152e+02 9.136666e-17 2.920855e+00 -1.432193e-01 -1.007853e-18
0.575          2.561773e+02 5.526039e+02 9.036249e-17 2.533057e+02 5.527264e+02 9.136183e-17 2.871637e+00 -1.224884e-01 -9.993349e-19
0.58           2.567585e+02 5.541078e+02 9.037291e-17 2.539357e+02 5.542106e+02 9.136430e-17 2.822859e+00 -1.027707e-01 -9.913891e-19
0.585          2.571358e+02 5.551730e+02 9.038203e-17 2.543613e+02 5.552571e+02 9.136570e-17 2.774422e+00 -8.411224e-02 -9.836674e-19
0.59           2.576518e+02 5.565197e+02 9.038633e-17 2.549253e+02 5.565864e+02 9.136316e-17 2.726515e+00 -6.672184e-02 -9.768269e-19
0.595          2.582615e+02 5.580169e+02 9.039825e-17 2.555824e+02 5.580678e+02 9.136849e-17 2.679072e+00 -5.086598e-02 -9.702440e-19
0.6            2.586242e+02 5.590482e+02 9.041702e-17 2.559913e+02 5.590832e+02 9.137913e-17 2.632929e+00 -3.495518e-02 -9.621065e-19
0.605          2.591306e+02 5.603690e+02 9.045201e-17 2.565429e+02 5.603886e+02 9.140530e-17 2.587776e+00 -1.967843e-02 -9.532905e-19
0.61           2.596941e+02 5.617948e+02 9.048703e-17 2.571503e+02 5.617997e+02 9.143108e-17 2.543787e+00 -4.887826e-03 -9.440457e-19
0.615          2.601782e+02 5.630673e+02 9.048283e-17 2.576773e+02 5.630577e+02 9.141734e-17 2.500908e+00 9.580510e-03 -9.345099e-19
0.62           2.607492e+02 5.645127e+02 9.051807e-17 2.582903e+02 5.644889e+02 9.144306e-17 2.458904e+00 2.377678e-02 -9.249930e-19
0.625          2.612938e+02 5.658715e+02 9.052773e-17 2.588762e+02 5.658338e+02 9.144306e-17 2.417577e+00 3.769929e-02 -9.153333e-19
0.63           2.618873e+02 5.674240e+02 9.056244e-17 2.595108e+02 5.673731e+02 9.146922e-17 2.376496e+00 5.090732e-02 -9.067823e-19
0.635          2.623032e+02 5.684964e+02 9.055807e-17 2.599668e+02 5.684318e+02 9.145752e-17 2.336403e+00 6.465478e-02 -8.994506e-19
0.64           2.630491e+02 5.703210e+02 9.059060e-17 2.607524e+02 5.702434e+02 9.148315e-17 2.296743e+00 7.752720e-02 -8.925503e-19
0.645          2.632885e+02 5.711645e+02 9.065308e-17 2.610308e+02 5.710750e+02 9.153943e-17 2.257674e+00 8.956404e-02 -8.863487e-19
0.65           2.638407e+02 5.726096e+02 9.069112e-17 2.616210e+02 5.725083e+02 9.157216e-17 2.219717e+00 1.013239e-01 -8.810445e-19
0.655          2.641518e+02 5.735628e+02 9.070181e-17 2.619686e+02 5.734499e+02 9.157694e-17 2.183187e+00 1.128290e-01 -8.751292e-19
0.66           2.645239e+02 5.746480e+02 9.075385e-17 2.623760e+02 5.745238e+02 9.162336e-17 2.147973e+00 1.242187e-01 -8.695053e-19
0.665          2.650171e+02 5.758348e+02 9.070164e-17 2.629032e+02 5.756996e+02 9.156341e-17 2.113912e+00 1.351218e-01 -8.617634e-19
0.67           2.653704e+02 5.768110e+02 9.070211e-17 2.632889e+02 5.766643e+02 9.155507e-17 2.081429e+00 1.467132e-01 -8.529613e-19
0.675          2.659929e+02 5.783290e+02 9.069513e-17 2.639432e+02 5.781701e+02 9.153845e-17 2.049671e+00 1.588579e-01 -8.433269e-19
0.68           2.663853e+02 5.793675e+02 9.069783e-17 2.643672e+02 5.791965e+02 9.153134e-17 2.018076e+00 1.710655e-01 -8.335095e-19
0.685          2.668883e+02 5.806539e+02 9.070755e-17 2.649021e+02 5.804709e+02 9.153220e-17 1.986264e+00 1.830243e-01 -8.246464e-19
0.69           2.673719e+02 5.817890e+02 9.064032e-17 2.654174e+02 5.815936e+02 9.145633e-17 1.954570e+00 1.953107e-01 -8.160087e-19
0.695          2.677986e+02 5.828734e+02 9.061605e-17 2.658759e+02 5.826663e+02 9.142519e-17 1.922716e+00 2.070573e-01 -8.091341e-19
0.7            2.682769e+02 5.840545e+02 9.056621e-17 2.663861e+02 5.838363e+02 9.136868e-17 1.890854e+00 2.181969e-01 -8.024695e-19
0.705          2.685000e+02 5.847799e+02 9.056720e-17 2.666401e+02 5.845498e+02 9.136500e-17 1.859834e+00 2.301632e-01 -7.978075e-19
0.71           2.688709e+02 5.858124e+02 9.058726e-17 2.670415e+02 5.855704e+02 9.137967e-17 1.829378e+00 2.420246e-01 -7.924114e-19
0.715          2.694719e+02 5.872767e+02 9.053467e-17 2.676723e+02 5.870229e+02 9.132016e-17 1.799578e+00 2.538113e-01 -7.854935e-19
0.72           2.697998e+02 5.882237e+02 9.049893e-17 2.680294e+02 5.879581e+02 9.127702e-17 1.770365e+00 2.655577e-01 -7.780812e-19
0.725          2.703087e+02 5.895590e+02 9.050429e-17 2.685672e+02 5.892817e+02 9.127485e-17 1.741510e+00 2.772916e-01 -7.705615e-19
0.73           2.709056e+02 5.910243e+02 9.042426e-17 2.691928e+02 5.907355e+02 9.118684e-17 1.712842e+00 2.888433e-01 -7.625716e-19
0.735          2.713109e+02 5.921995e+02 9.040989e-17 2.696269e+02 5.918994e+02 9.116490e-17 1.684019e+00 3.000393e-01 -7.550071e-19
0.74           2.716092e+02 5.931486e+02 9.038288e-17 2.699537e+02 5.928366e+02 9.113031e-17 1.655516e+00 3.119720e-01 -7.474375e-19
0.745          2.721976e+02 5.946692e+02 9.035958e-17 2.705708e+02 5.943453e+02 9.110010e-17 1.626868e+00 3.238139e-01 -7.405168e-19
0.75           2.725844e+02 5.958545e+02 9.034477e-17 2.709862e+02 5.955189e+02 9.107819e-17 1.598178e+00 3.356875e-01 -7.334217e-19
0.755          2.729688e+02 5.970298e+02 9.034156e-17 2.713993e+02 5.966822e+02 9.106826e-17 1.569506e+00 3.476043e-01 -7.267007e-19
0.76           2.733738e+02 5.982465e+02 9.031338e-17 2.718328e+02 5.978870e+02 9.103347e-17 1.541000e+00 3.594972e-01 -7.200914e-19
0.765          2.738736e+02 5.996314e+02 9.007024e-17 2.723612e+02 5.992604e+02 9.078203e-17 1.512430e+00 3.709716e-01 -7.117867e-19
0.77           2.743194e+02 6.009023e+02 9.026584e-17 2.728348e+02 6.005187e+02 9.096933e-17 1.484598e+00 3.836363e-01 -7.034872e-19
0.775          2.747253e+02 6.021229e+02 9.020488e-17 2.732683e+02 6.017261e+02 9.089776e-17 1.457010e+00 3.967441e-01 -6.928796e-19
0.78           2.753218e+02 6.036239e+02 9.004739e-17 2.738921e+02 6.032138e+02 9.072832e-17 1.429683e+00 4.100158e-01 -6.809335e-19
0.785          2.758286e+02 6.049878e+02 8.993351e-17 2.744260e+02 6.045645e+02 9.060220e-17 1.402601e+00 4.233010e-01 -6.686934e-19
0.79           2.762131e+02 6.060739e+02 8.981511e-17 2.748375e+02 6.056374e+02 9.047168e-17 1.375643e+00 4.365375e-01 -6.565646e-19
0.795          2.766067e+02 6.071520e+02 8.964996e-17 2.752578e+02 6.067026e+02 9.029453e-17 1.348873e+00 4.494428e-01 -6.445711e-19
0.8            2.768626e+02 6.079573e+02 8.952088e-17 2.755405e+02 6.074957e+02 9.015341e-17 1.322069e+00 4.616168e-01 -6.325340e-19
0.805          2.774501e+02 6.093560e+02 8.928862e-17 2.761538e+02 6.088815e+02 8.990871e-17 1.296241e+00 4.745128e-01 -6.200824e-19
0.81           2.780435e+02 6.107290e+02 8.904397e-17 2.767726e+02 6.102418e+02 8.965148e-17 1.270925e+00 4.871555e-01 -6.075089e-19
0.815          2.786602e+02 6.120876e+02 8.872693e-17 2.774139e+02 6.115882e+02 8.932110e-17 1.246252e+00 4.994668e-01 -5.941776e-19
0.82           2.791850e+02 6.132671e+02 8.845962e-17 2.779630e+02 6.127556e+02 8.904070e-17 1.222023e+00 5.114682e-01 -5.810860e-19
0.825          2.797559e+02 6.144619e+02 8.810456e-17 2.785574e+02 6.139386e+02 8.867320e-17 1.198516e+00 5.233217e-01 -5.686398e-19
0.83           2.803712e+02 6.157446e+02 8.775522e-17 2.791957e+02 6.152095e+02 8.831146e-17 1.175555e+00 5.350398e-01 -5.562344e-19
0.835          2.810276e+02 6.170586e+02 8.733662e-17 2.798740e+02 6.165112e+02 8.788042e-17 1.153548e+00 5.473336e-01 -5.437972e-19
0.84           2.814160e+02 6.178798e+02 8.697487e-17 2.802840e+02 6.173205e+02 8.750729e-17 1.132070e+00 5.593453e-01 -5.324183e-19
0.845          2.821567e+02 6.193016e+02 8.653431e-17 2.810458e+02 6.187306e+02 8.705516e-17 1.110897e+00 5.710149e-01 -5.208522e-19
0.85           2.828910e+02 6.207375e+02 8.605563e-17 2.818009e+02 6.201555e+02 8.656494e-17 1.090105e+00 5.819959e-01 -5.093136e-19
0.855          2.835152e+02 6.218839e+02 8.561201e-17 2.824452e+02 6.212910e+02 8.611057e-17 1.069953e+00 5.928842e-01 -4.985525e-19
0.86           2.840975e+02 6.229958e+02 8.516151e-17 2.830469e+02 6.223916e+02 8.564958e-17 1.050598e+00 6.041681e-01 -4.880696e-19
0.865          2.848916e+02 6.245336e+02 8.472359e-17 2.838603e+02 6.239191e+02 8.520105e-17 1.031279e+00 6.144320e-01 -4.774558e-19
0.87           2.854644e+02 6.256300e+02 8.427949e-17 2.844522e+02 6.250059e+02 8.474657e-17 1.012198e+00 6.240565e-01 -4.670840e-19
0.875          2.861629e+02 6.269987e+02 8.386676e-17 2.851696e+02 6.263657e+02 8.432438e-17 9.932700e-01 6.329692e-01 -4.576270e-19
0.88           2.868740e+02 6.284153e+02 8.344799e-17 2.858996e+02 6.277744e+02 8.389617e-17 9.744037e-01 6.409567e-01 -4.481776e-19
0.885          2.873229e+02 6.293686e+02 8.310046e-17 2.863674e+02 6.287206e+02 8.353991e-17 9.555540e-01 6.480130e-01 -4.394505e-19
0.89           2.879561e+02 6.306503e+02 8.271027e-17 2.870191e+02 6.299956e+02 8.314154e-17 9.370166e-01 6.546738e-01 -4.312727e-19
0.895          2.885156e+02 6.318579e+02 8.237713e-17 2.875969e+02 6.311974e+02 8.280074e-17 9.186478e-01 6.604982e-01 -4.236083e-19
0.9            2.892669e+02 6.334129e+02 8.200640e-17 2.883664e+02 6.327474e+02 8.242239e-17 9.005333e-01 6.655347e-01 -4.159878e-19
0.905          2.897501e+02 6.345075e+02 8.171949e-17 2.888676e+02 6.338377e+02 8.212847e-17 8.825315e-01 6.698132e-01 -4.089858e-19
0.91           2.902349e+02 6.356239e+02 8.143906e-17 2.893702e+02 6.349501e+02 8.184084e-17 8.646698e-01 6.737600e-01 -4.017770e-19
0.915          2.911137e+02 6.374875e+02 8.111032e-17 2.902658e+02 6.368083e+02 8.150524e-17 8.478972e-01 6.791505e-01 -3.949206e-19
0.92           2.914544e+02 6.384415e+02 8.091718e-17 2.906240e+02 6.377583e+02 8.130397e-17 8.304420e-01 6.832583e-01 -3.867863e-19
0.925          2.918205e+02 6.394145e+02 8.073131e-17 2.910076e+02 6.387270e+02 8.111007e-17 8.128318e-01 6.875062e-01 -3.787565e-19
0.93           2.922824e+02 6.406188e+02 8.055443e-17 2.914873e+02 6.399269e+02 8.092494e-17 7.951050e-01 6.918829e-01 -3.705122e-19
0.935          2.925366e+02 6.414848e+02 8.046100e-17 2.917594e+02 6.407884e+02 8.082421e-17 7.771389e-01 6.964564e-01 -3.632077e-19
0.94           2.932096e+02 6.430842e+02 8.026076e-17 2.924506e+02 6.423831e+02 8.061681e-17 7.589668e-01 7.011318e-01 -3.560535e-19
0.945          2.934608e+02 6.439936e+02 8.019392e-17 2.927202e+02 6.432881e+02 8.054473e-17 7.405335e-01 7.055278e-01 -3.508145e-19
0.95           2.937366e+02 6.449015e+02 8.009534e-17 2.930143e+02 6.441907e+02 8.044123e-17 7.222782e-01 7.107664e-01 -3.458882e-19
0.955          2.941636e+02 6.461659e+02 8.000962e-17 2.934596e+02 6.454496e+02 8.035168e-17 7.039392e-01 7.163447e-01 -3.420620e-19
0.96           2.944894e+02 6.472545e+02 7.991868e-17 2.938036e+02 6.465320e+02 8.025725e-17 6.857969e-01 7.225368e-01 -3.385727e-19
0.965          2.948211e+02 6.483088e+02 7.979530e-17 2.941537e+02 6.475806e+02 8.013033e-17 6.674495e-01 7.282606e-01 -3.350340e-19
0.97           2.950914e+02 6.493206e+02 7.975740e-17 2.944426e+02 6.485872e+02 8.008961e-17 6.487946e-01 7.334250e-01 -3.322126e-19
0.975          2.954575e+02 6.505366e+02 7.969494e-17 2.948274e+02 6.497978e+02 8.002441e-17 6.301321e-01 7.387885e-01 -3.294632e-19
0.98           2.956201e+02 6.513192e+02 7.963947e-17 2.950085e+02 6.505748e+02 7.996700e-17 6.115731e-01 7.444019e-01 -3.275269e-19
0.985          2.958942e+02 6.523278e+02 7.957415e-17 2.953010e+02 6.515776e+02 7.990010e-17 5.932357e-01 7.501902e-01 -3.259568e-19
0.99           2.960105e+02 6.530573e+02 7.954469e-17 2.954352e+02 6.523010e+02 7.987044e-17 5.752594e-01 7.562985e-01 -3.257495e-19
0.995          2.964249e+02 6.543121e+02 7.943133e-17 2.958671e+02 6.535495e+02 7.975651e-17 5.577741e-01 7.626625e-01 -3.251813e-19
1              2.966727e+02 6.552474e+02 7.932881e-17 2.961317e+02 6.544777e+02 7.965388e-17 5.410022e-01 7.697714e-01 -3.250680e-19
1.005          2.970222e+02 6.563631e+02 7.919999e-17 2.964981e+02 6.555875e+02 7.952520e-17 5.241084e-01 7.755914e-01 -3.252116e-19
1.01           2.973091e+02 6.573620e+02 7.908093e-17 2.968016e+02 6.565809e+02 7.940729e-17 5.075087e-01 7.811555e-01 -3.263611e-19
1.015          2.975035e+02 6.581527e+02 7.897921e-17 2.970123e+02 6.573664e+02 7.930728e-17 4.911533e-01 7.862940e-01 -3.280645e-19
1.02           2.977208e+02 6.589493e+02 7.881702e-17 2.972452e+02 6.581574e+02 7.914735e-17 4.756203e-01 7.918899e-01 -3.303258e-19
1.025          2.982195e+02 6.602662e+02 7.857826e-17 2.977587e+02 6.594687e+02 7.891140e-17 4.607670e-01 7.974708e-01 -3.331371e-19
1.03           2.982737e+02 6.607684e+02 7.846096e-17 2.978273e+02 6.599653e+02 7.879854e-17 4.464095e-01 8.031424e-01 -3.375778e-19
1.035          2.986356e+02 6.617032e+02 7.819733e-17 2.982030e+02 6.608944e+02 7.853947e-17 4.326274e-01 8.087922e-01 -3.421364e-19
1.04           2.989695e+02 6.626622e+02 7.795543e-17 2.985501e+02 6.618478e+02 7.830168e-17 4.194262e-01 8.144449e-01 -3.462478e-19
1.045          2.992504e+02 6.633791e+02 7.767122e-17 2.988438e+02 6.625598e+02 7.802236e-17 4.066045e-01 8.193029e-01 -3.511398e-19
1.05           2.994966e+02 6.640182e+02 7.738093e-17 2.991021e+02 6.631941e+02 7.773727e-17 3.944976e-01 8.240865e-01 -3.563396e-19
1.055          2.996431e+02 6.644665e+02 7.709613e-17 2.992602e+02 6.636380e+02 7.745705e-17 3.828942e-01 8.284803e-01 -3.609264e-19
1.06           3.000871e+02 6.654447e+02 7.675685e-17 2.997154e+02 6.646124e+02 7.712262e-17 3.716579e-01 8.323382e-01 -3.657625e-19
1.065          3.004384e+02 6.662316e+02 7.641692e-17 3.000777e+02 6.653964e+02 7.678719e-17 3.607089e-01 8.351889e-01 -3.702671e-19
1.07           3.008042e+02 6.670329e+02 7.607325e-17 3.004534e+02 6.661941e+02 7.645030e-17 3.507314e-01 8.387754e-01 -3.770424e-19
1.075          3.012363e+02 6.679477e+02 7.571819e-17 3.008954e+02 6.671059e+02 7.610211e-17 3.409212e-01 8.418635e-01 -3.839177e-19
1.08           3.015104e+02 6.685775e+02 7.537343e-17 3.011791e+02 6.677329e+02 7.576448e-17 3.313125e-01 8.446163e-01 -3.910506e-19
1.085          3.018869e+02 6.694874e+02 7.508988e-17 3.015648e+02 6.686399e+02 7.548770e-17 3.220877e-01 8.475801e-01 -3.978220e-19
1.09           3.021292e+02 6.700174e+02 7.472284e-17 3.018162e+02 6.691667e+02 7.512730e-17 3.129804e-01 8.506844e-01 -4.044595e-19
1.095          3.025152e+02 6.709032e+02 7.437755e-17 3.022113e+02 6.700495e+02 7.478894e-17 3.038981e-01 8.536357e-01 -4.113867e-19
1.1            3.027916e+02 6.715699e+02 7.404600e-17 3.024967e+02 6.707128e+02 7.446532e-17 2.949380e-01 8.571655e-01 -4.193204e-19
1.105          3.030826e+02 6.722337e+02 7.369687e-17 3.027965e+02 6.713730e+02 7.412434e-17 2.860140e-01 8.606854e-01 -4.274702e-19
1.11           3.033164e+02 6.728426e+02 7.338858e-17 3.030392e+02 6.719785e+02 7.382456e-17 2.771454e-01 8.641729e-01 -4.359817e-19
1.115          3.036875e+02 6.737056e+02 7.304656e-17 3.034194e+02 6.728381e+02 7.349000e-17 2.681506e-01 8.674868e-01 -4.434391e-19