/*--------------------------------*- C++ -*----------------------------------*\
| =========                 |                                                 |
| \\      /  F ield         | OpenFOAM: The Open Source CFD Toolbox           |
|  \\    /   O peration     | Version:  2306                                  |
|   \\  /    A nd           | Website:  www.openfoam.com                      |
|    \\/     M anipulation  |                                                 |
\*---------------------------------------------------------------------------*/
FoamFile
{
    version     2.0;
    format      ascii;
    arch        "LSB;label=32;scalar=64";
    class       surfaceScalarField;
    location    "6.2";
    object      phi;
}
// * * * * * * * * * * * * * * * * * * * * * * * * * * * * * * * * * * * * * //

dimensions      [0 3 -1 0 0 0 0];

oriented        oriented;

internalField   nonuniform List<scalar> 
20045
(
0.245415
-0.265869
0.0204538
-0.530628
0.18655
0.344078
0.195333
0.9732
-1.16853
-0.0244377
0.0542486
-0.0298109
-0.421914
0.409206
0.0127078
-0.301867
1.12859
-0.826724
-0.506882
0.21746
0.289422
0.0327629
0.216127
-0.24889
0.239679
0.204709
-0.444389
-0.419066
-0.0493711
0.468437
-0.140648
-0.201728
0.342377
1.13424
-0.543422
-0.590815
0.174215
-0.17695
0.00273446
-0.643389
0.555872
0.0875169
-0.161599
0.529906
-0.368307
-0.545479
0.126413
0.000788419
-0.0348948
0.0341064
0.352696
-0.288898
-0.0637981
-0.837716
1.23393
-0.396216
-0.374382
0.0269668
0.347415
-0.0214901
-0.0183721
0.0398622
0.0579158
0.116299
-0.0626463
-0.467981
0.38709
0.565358
-0.952448
0.411474
0.109821
-0.521296
-0.587349
0.974439
-0.0608159
0.0696863
-0.00887043
-0.657442
1.24446
-0.587015
0.868052
0.129928
-0.99798
-1.22403
0.671921
0.552113
-0.176236
0.028373
0.147863
0.71665
-0.506118
-0.210532
-0.396226
0.835813
-0.439587
1.19052
-0.695975
-0.494548
-0.278235
0.310998
1.05337
-0.514538
-0.538832
0.719233
0.0619644
-0.781197
-0.0296305
0.183261
-0.153631
-0.950984
0.425141
0.525843
0.294376
0.261636
-0.556013
0.0243898
0.199049
-0.223439
0.0631922
-0.090752
0.0275599
1.07016
-1.07155
0.00139481
0.747705
-0.281482
-0.466223
0.350912
0.396793
0.513579
0.620659
-0.13165
0.147746
-0.0160956
0.638484
0.272569
-0.911054
0.867879
-0.148646
0.0781096
0.974888
-1.053
0.650235
-1.09977
0.449534
0.879572
-0.637281
-0.242291
-0.596926
-0.423143
1.02007
-0.0457788
-0.149108
0.194887
0.379892
-0.128857
-0.251035
-0.346661
-0.0752532
-0.0651411
0.828105
-0.762964
0.766727
0.0711556
-0.837883
0.537913
-0.93414
0.99399
-0.604861
-0.389129
-0.109183
-0.173192
0.282375
0.467266
0.526723
0.262736
-0.879892
0.617156
0.0455762
-0.0670664
0.648386
-0.129772
-0.518614
0.821377
0.0525997
-0.873976
0.042655
-0.0681257
0.0254707
-0.333991
0.0824244
0.251567
0.423333
-0.183654
0.84627
-0.859836
0.0135664
0.0700351
-0.0273801
-0.0131922
0.393085
-0.126513
-0.521303
0.647817
0.0651498
-0.13848
0.07333
0.911799
-0.220703
-0.691095
0.680006
-0.745147
0.038648
0.873151
0.218627
-0.380227
-0.00344901
-0.216773
0.220222
0.18148
-0.608113
0.426633
0.52184
0.598964
-1.1208
0.450087
-0.346673
-0.103414
0.719464
-0.456728
-1.31654
0.24409
1.07245
0.0114293
0.233986
-0.275949
0.310164
-0.0342149
0.276268
-0.656604
0.380336
-0.803702
0.0360992
0.767603
0.518293
0.074561
-0.592854
-0.424313
0.393215
0.0310985
-0.72134
-0.103832
0.825172
0.362738
-0.0650782
-0.29766
0.199385
-0.282897
0.0835118
-0.0801486
-0.406142
0.486291
0.291179
-0.311422
0.0202425
0.756701
0.18757
-0.94427
-0.103065
0.0422491
-0.0822825
0.128731
-0.0464488
0.606566
-0.31219
0.00593481
-0.0505343
0.0445995
0.710898
0.342472
-0.229479
-0.41391
0.041177
-0.12346
-0.159566
0.926293
-0.0036605
-0.272288
0.0534732
-0.0475384
0.229843
0.602571
-0.832414
0.525654
-0.874678
0.349024
-0.135099
-0.207744
0.18114
0.0266045
-0.098332
0.125554
-0.0272224
0.61917
-0.454218
-0.164952
-0.244783
0.199004
0.643549
-1.1226
0.479046
-0.0820697
0.154935
-0.0728658
0.0225572
-0.121896
0.0993391
0.580936
-0.169462
0.859921
0.330603
-0.584878
0.458365
0.688872
-0.952731
0.263859
0.253655
0.0990406
-0.307636
0.198453
-0.384897
0.310782
0.074115
-0.42533
0.0491312
-0.291439
0.242307
0.620656
0.258916
0.555782
-0.714489
0.158707
0.814331
0.0927326
-0.907064
-0.988364
0.742795
0.24557
-0.0151265
-0.552498
0.567624
0.92693
-0.306274
0.128213
0.0195322
0.13357
-0.0726616
-0.0609083
-0.0575961
0.0430209
0.0145752
0.569563
0.402145
-0.971708
0.597818
-0.580064
-0.0177536
-0.174793
0.10734
0.0674537
-0.149051
-0.0586934
1.07382
-0.384945
-0.324093
0.344102
-0.0200087
0.647357
-1.1407
0.493341
0.17341
-0.770337
0.565237
0.226283
-0.791521
0.679655
-0.498175
0.966722
-0.132469
-0.834252
0.538017
-0.970982
0.432964
1.05889
-0.679727
-0.37916
-0.126694
0.23484
-0.108146
-0.0147284
1.07638
-1.06165
1.07725
-0.209196
-0.826221
0.0276162
0.798605
-0.476319
0.414471
0.061848
1.00798
-0.486137
0.17157
0.278517
-0.634114
0.781502
-0.147388
-0.828682
1.02402
0.0105385
-0.152405
0.141867
0.0130129
-0.0153057
0.00229279
-0.0170922
-0.184966
0.202059
1.18093
-0.473477
-0.707451
1.36251
-0.679237
-0.683275
-0.219792
0.2027
0.347811
-0.66621
0.318399
0.0743502
-0.011158
-0.796848
-0.474166
0.692594
-0.218428
-0.675544
0.490943
0.184601
-0.0127262
-0.0203949
0.0331212
0.492069
0.566818
-0.0304186
-0.0271775
0.0165554
0.117015
-0.711461
0.0773472
-0.733022
0.932675
-0.199653
-0.659283
0.755449
-0.096166
-0.592963
-0.430065
1.02303
-0.365794
0.281055
0.0847384
0.458359
-0.473928
0.0155694
0.940584
0.063578
-1.00416
0.0160006
-0.759053
0.743052
-0.362298
0.927536
0.190449
-0.540847
0.350398
-0.46444
1.10799
-0.829724
0.542668
0.287056
0.24313
-0.270047
0.0269172
0.491036
-1.26785
0.776815
-0.982929
0.325488
-0.611889
-0.423519
1.14391
-0.689848
-0.454065
-0.267247
0.291636
0.122646
-0.129642
0.00699614
-0.765998
-0.13992
0.905917
-0.872998
1.22146
-0.348465
0.906885
-0.66783
-0.239054
0.0876711
-0.252485
0.164814
-0.27792
-0.461383
0.739303
0.22342
-0.364068
-0.515788
0.500661
-0.691763
-0.226538
0.918301
0.0881511
0.0242716
-0.112423
0.139808
-0.613973
-0.0223902
-0.153846
0.873833
-0.0595015
-0.13791
0.10828
-0.129538
0.158028
-0.0284897
0.261906
0.919021
-0.791985
0.514065
0.203847
0.0203829
-0.22423
-0.69978
0.132909
0.566871
0.285466
0.621419
1.32892
-0.837887
0.758815
-1.29639
0.537574
0.234899
-0.923832
0.688934
0.0294732
-0.403855
-0.48588
0.715723
0.662556
-0.964423
0.37551
-0.779865
0.404355
-1.3294
0.758348
0.571057
-0.0138558
-0.410457
0.17827
0.136193
-0.314463
0.731139
-0.233844
-0.497295
-0.0497459
-0.746577
0.731848
-0.251025
-0.0730678
0.670749
1.07468
-0.863265
-0.211416
-0.0102671
-0.124673
0.13494
0.67761
0.120084
-0.797694
0.279652
-0.239099
-0.0405529
-0.191082
0.713047
-0.521965
-0.453325
0.729593
0.562944
-0.372494
-0.0551221
0.157527
-0.102405
0.961832
-0.314475
0.0873418
-0.00809411
-0.0792477
0.0763029
-0.1523
0.0759976
-0.10205
0.105931
-0.00388135
1.12741
-0.71379
-0.413618
0.240534
-1.11353
-0.111482
0.00943231
-0.874896
0.284724
0.590172
1.24659
-0.410779
0.247921
-0.980943
1.31963
-0.589202
-0.730424
-0.0115846
0.0997357
0.803233
-0.416223
-0.38701
-0.611167
0.141891
0.469277
-0.942887
0.946881
-0.00399398
0.331677
-0.949017
0.61734
0.0343185
-0.0484063
0.0140878
-0.466524
0.633483
-0.166959
-0.145126
0.296942
-0.151816
-0.140579
0.0585096
-0.114174
0.0158423
-0.547267
-0.327412
0.414657
-0.809877
0.395221
0.231319
0.112295
-0.343614
0.407993
0.308657
0.706111
-0.330601
0.00330221
0.00971073
0.707813
0.53878
-0.489359
0.0110447
0.478314
0.321969
0.481265
0.380887
0.149019
-0.0394942
0.270813
-0.283035
-0.0211296
0.304165
-0.0264953
0.269625
-0.755004
0.563922
-0.154604
0.0823598
0.0722442
-0.928151
0.890226
0.0379249
-0.337611
0.541329
-0.203718
-0.221576
-0.104722
0.326298
0.76564
-0.828181
0.0625407
-0.808633
-0.520771
1.29218
-0.821294
-0.470885
-0.0913685
0.0811013
1.04073
-0.709056
-0.418823
0.83348
-0.213271
-0.14542
0.35869
0.832156
-0.193622
-0.638535
1.14611
-0.309184
-0.836931
-0.399172
0.185901
0.830067
-0.491487
-0.33858
-0.15742
0.781035
-0.623615
0.629635
-1.07457
0.444932
0.276618
0.0519857
-0.328604
0.0373839
-0.0216852
-0.0156987
1.26947
-1.03788
-0.231591
-0.51886
-0.469505
0.71376
0.360922
-0.846021
-0.0821304
0.0971985
-0.0208957
0.0827195
-0.608881
0.526161
0.00389689
0.118749
-0.540085
1.10965
0.436931
0.690477
1.2452
-0.755162
-0.490043
-0.772904
0.546366
0.724265
-1.21066
0.486397
-0.627437
-0.038319
0.665756
-0.233027
-0.173384
0.406411
0.552013
-0.204201
-0.00285217
0.206699
0.466388
-0.0288203
-0.477298
-0.691343
0.930182
-0.23884
-0.148768
0.0192296
-0.0634308
0.00830866
0.115962
-1.05885
0.338735
-0.792061
0.101881
-0.195553
0.269994
-0.0744407
0.00942778
-0.0338655
-0.506457
0.380642
0.125815
0.349473
0.269697
0.307842
0.22504
-0.532882
0.49359
0.104228
-0.530065
0.612784
0.57143
-0.0531373
-0.203511
-0.496269
1.03637
-0.805883
-0.230485
0.883341
-0.752939
0.234213
0.518726
0.79918
-0.864255
0.0650748
-0.434054
0.353906
-0.109921
-0.0648726
-0.119932
-0.601408
0.28402
-0.539485
0.255466
0.416734
0.413333
0.706315
-1.14276
0.436442
0.22555
-0.533657
0.308106
-0.972359
0.168657
0.0110961
0.351642
-0.575867
0.871761
-0.295894
-0.255559
0.302833
-0.0472745
-0.404606
-0.102276
-0.12378
-0.224139
0.347918
0.0783643
0.000937737
-0.079302
-0.327721
-0.148597
0.377211
0.444871
-0.822082
0.739783
-0.417814
0.281364
-0.449625
0.0155708
0.46111
-0.23556
-0.664324
-0.1654
0.245557
-0.343245
0.0976877
0.976579
-0.338094
-0.458152
0.749466
-0.291314
-0.111535
0.12871
-0.0171746
0.743119
-0.0119801
-0.166684
-0.442196
-0.503446
0.924625
-0.42118
0.634007
-1.14038
0.506377
0.592371
0.699808
0.0912897
-0.130432
0.0391425
0.086347
-0.713784
0.670529
-1.01135
0.340817
0.0925522
-0.0274023
-0.0761375
0.63192
-0.355828
0.694563
-0.659642
0.894541
0.190116
-1.02783
-0.883675
0.486686
0.396989
0.635526
-0.0983657
-0.537161
0.93431
-0.16867
-0.465686
-0.532582
-0.472454
0.531414
-0.0541094
0.169612
-0.115502
0.314668
-0.287701
-0.714563
0.638425
0.846004
0.224155
-0.785335
0.327183
1.06467
-0.350911
-0.107073
0.284338
-0.177265
0.0171961
-0.628746
0.61155
-0.902512
0.17031
0.732203
0.726177
-0.726177
-0.260288
0.697829
-0.437541
0.589223
-0.281381
0.684123
-0.385243
-0.298881
-0.955803
0.990226
-0.0344234
0.335074
-0.044539
-0.290535
0.255742
-0.10634
-0.149401
0.105107
-0.326683
0.074104
0.454076
-0.8729
-0.858771
1.01333
-0.154556
-0.282984
0.660195
0.112223
-0.00278114
-0.109442
-0.104405
0.0865113
0.0178939
-0.37483
0.404303
1.18402
-0.960212
-0.22381
-0.0825764
-0.528259
0.610835
-0.223741
0.244612
-0.0208708
0.117132
-0.272381
0.155249
-1.00266
0.384389
0.618266
0.0252705
0.0289781
-0.243788
0.136715
0.0309658
-0.104117
0.0731515
0.578963
0.690506
0.0901199
0.0221031
-0.0435791
-0.293501
0.33708
-0.509877
0.804933
-0.295056
-0.00450952
0.0768057
-0.0722962
0.429161
-0.211701
0.723529
-0.233443
-0.490087
0.00678206
-0.412924
0.109507
0.831077
0.42849
0.297641
-0.726131
0.458659
-0.410183
-0.0484766
-1.0128
0.186581
-0.426029
0.176355
0.249674
0.468085
0.609232
-1.07732
-0.626422
0.588103
0.0449607
-0.913582
0.868621
-0.121512
0.209183
0.243407
-0.280637
0.0372295
0.0216442
-0.304679
-0.00260152
0.0246631
-0.0220616
-0.672855
-0.202041
0.618571
0.0783587
0.0141378
-0.0924965
-0.115407
0.00387169
0.171926
-0.710275
0.538348
0.232745
0.546513
-0.779258
0.388752
-0.714164
0.87092
-0.156756
-0.715742
0.558322
0.0597015
0.0099848
-0.394047
-0.281497
-0.248231
0.0662762
0.181955
-0.874749
0.364872
0.67015
-0.752726
0.435298
0.629373
-0.297152
0.300766
-0.00361403
0.394584
-1.01574
0.621157
0.145261
-0.260892
0.115631
0.449192
-0.615876
-0.637022
-0.0222611
-0.303137
-0.0308547
0.0522369
-0.0273526
-0.0248843
0.375388
-0.00771592
-0.0259656
0.0336815
1.01387
-0.545785
-0.422998
0.830049
-0.407051
0.261608
0.175559
-0.437167
-0.364383
0.242871
-0.205297
-0.042934
0.42505
0.259074
-0.210807
-0.741924
0.361972
-0.116414
0.616797
0.403736
0.167694
-0.930602
1.00871
0.113313
-0.467916
0.354603
-0.0855671
-0.828136
0.913703
-0.202021
0.202472
-0.000450572
-0.152141
-0.213652
-0.47244
1.10208
1.01458
-0.476563
-0.43528
-0.0711763
0.0109494
-0.409169
0.39822
0.407427
-1.00039
-0.125265
-0.471452
0.596717
-0.0448246
0.0308802
0.0139445
-0.652304
0.0558955
0.596409
0.95688
-0.684311
-0.0186097
0.0781214
-0.0595117
-0.207685
-0.0160564
0.1762
0.357883
-0.534083
0.0954373
-0.12085
0.0254132
0.616506
0.356832
-0.973338
-0.385957
1.14266
0.0764427
0.00192153
-0.266522
-0.575475
0.841997
0.352002
0.721814
0.938673
-0.705928
-0.34362
0.219841
-0.0193121
0.056696
-0.447944
1.17221
0.137454
-0.76787
0.630415
0.912045
-0.145279
-0.766766
-0.480153
0.714966
-0.234812
0.396013
-0.420438
-0.44858
0.869018
0.0565078
-0.0866556
0.0301478
-0.285759
-0.484362
0.770122
-0.031212
-0.0731932
0.0263223
-0.0390485
0.505326
-0.791085
-0.707644
-0.20641
0.914054
-0.0660496
-0.476452
0.542502
0.241561
1.20191
-1.22236
0.0204508
0.204026
-0.148396
-0.0556305
0.00688895
-0.304041
0.25799
0.228301
-0.312815
0.0797882
-0.815922
1.02472
-0.208801
-0.139165
-0.0154388
0.303943
0.375712
-0.823511
-0.248043
-0.0126149
-0.0144807
0.0270956
0.534466
-0.13073
-0.193096
0.213046
-0.0199501
0.130744
-0.27587
-1.17724
0.565348
0.940786
0.187805
-0.128407
0.245539
-0.19551
0.457118
0.855628
-0.401552
-0.200533
0.00743667
-0.10214
-0.612423
0.21244
0.204901
-0.194362
-0.918385
0.0158731
0.0139539
0.204678
-0.0594175
-0.960236
0.648555
0.311681
0.712688
0.133582
0.178826
-0.0567314
-0.122094
0.274097
-0.256563
-0.0175342
-0.796393
0.281855
-1.0264
0.522954
-0.0121471
0.169918
-0.157771
-0.0478351
0.177516
-0.129681
1.02286
-0.00175625
-1.0211
0.140145
0.00783674
-0.147982
-0.134465
-0.250433
0.216702
-0.0173169
0.203847
-0.194478
-0.00936944
0.382904
-0.0584323
-0.324471
0.021657
0.18219
0.840415
-0.652845
-0.0283017
-0.137461
0.165762
-1.02028
0.204362
-0.0266401
-0.128177
0.169354
-0.0637977
0.142156
0.00470358
-0.00140137
0.239975
0.15496
-0.394935
0.487104
0.161282
0.440949
-0.327636
0.187955
-0.165397
0.0612446
-0.316803
0.626018
-0.0128229
-0.613195
0.531313
-0.0320189
-0.499294
-0.600136
-0.370846
-0.172042
-0.139268
0.31131
0.401994
-0.437699
0.0357045
1.11268
-0.0405789
-1.0721
-0.312169
-0.0534658
0.365634
-0.493542
0.656723
-0.163181
0.563337
0.664442
-1.22778
0.084983
-0.258175
-0.264249
0.424713
-0.160464
0.206839
0.0959364
-0.302775
-1.09647
0.59061
0.50586
-0.167358
-0.0271198
-0.843908
0.136264
0.290127
-0.18111
-0.109016
0.48798
-0.616351
0.128371
-0.0795603
-0.186309
0.188925
1.01298
0.820167
-0.134926
-0.685242
-0.847907
0.133743
0.338055
-0.541566
0.725312
-1.14305
0.417734
-0.0936933
0.271964
-0.0117753
-0.387341
0.343762
-0.156973
0.206105
-0.127003
-0.783757
0.91076
0.442413
0.59832
-0.744673
0.773652
-0.0289784
0.0335398
0.0186971
-0.618291
-0.259275
-0.108532
0.121108
-0.0125759
0.376612
-0.284667
-0.0919446
0.0267473
0.0154679
-0.0422152
-0.0684677
0.556447
-0.781342
-0.099343
0.880685
-0.721481
-0.246262
0.967743
0.475211
-0.348807
-0.126404
-0.164749
0.0186549
0.146094
-0.330373
0.034073
0.2963
-1.01401
0.0430916
0.970923
0.0268583
0.177026
-0.203885
0.808357
-0.907519
0.0991617
-0.519312
0.926527
0.0669131
-0.99344
0.0104134
-0.118945
-0.139938
-0.534617
0.674555
0.60824
-1.07268
-0.948374
0.823299
0.125076
0.110814
-0.0153765
0.697367
-0.393424
-0.0470039
-0.249241
0.296245
-0.00811633
0.121241
-0.113125
-0.211065
0.921977
-0.710911
0.780624
-0.407222
-0.373402
1.03619
-0.980035
-0.056159
0.793234
-0.306447
-0.486787
0.0442068
-0.214609
0.170403
-0.281088
-0.0103504
-0.923422
0.812273
0.111149
0.0533357
-0.976758
-0.299651
0.522005
-0.222355
-0.594675
-0.443202
0.176343
-0.155326
-0.021017
-0.798585
-0.221699
-0.168003
0.110004
0.0579995
0.13773
0.141922
-0.885889
0.853137
0.0327517
-0.179887
-0.1262
-0.0122798
0.151344
-0.0111995
-0.602582
0.136057
0.120304
-0.1481
0.0277956
-0.803276
0.388321
0.414955
0.352101
-0.0170271
-0.249637
0.671621
0.0714973
0.352001
0.0285903
0.226756
-0.255346
-0.0919198
0.550279
-0.599795
0.388547
0.211248
-0.207847
0.0404894
1.01914
-0.576731
0.868221
-0.473637
-0.244281
-0.156163
0.400444
0.42127
-0.869047
0.447777
0.544754
-0.610804
0.981082
-0.432557
-0.548525
-0.00341026
-0.507468
-0.0923274
-0.946467
0.84994
0.0965271
0.112296
-0.311397
1.07021
-1.06746
0.268875
0.347577
-0.0709595
-0.0932864
0.0408583
0.108817
-0.00288642
-0.493966
-0.512099
1.23358
-0.553571
-0.0990172
0.280121
-0.181104
0.0623393
0.193403
-0.665576
-0.382548
1.04812
0.225984
0.326028
-0.00305333
-0.13082
0.133874
0.820545
-0.241695
-0.0343992
0.276094
0.627971
-0.00195303
-0.356846
-1.03048
0.171713
-0.200886
0.00897705
0.191909
0.572082
0.747544
0.449264
-0.228079
-0.221185
0.981688
0.0545063
0.606996
-0.854716
0.24772
-0.831152
-0.0109621
0.842114
-0.751329
0.975616
-0.224287
0.125171
-0.00445692
-0.120714
-0.445256
1.0535
-0.31647
0.117262
0.199208
0.0206393
-0.765313
0.132622
-0.035509
-0.0971132
-0.955203
1.24155
-0.286345
-0.2366
0.530303
-0.293703
1.16171
-0.510998
-0.650717
-0.00858805
-0.594498
0.603086
-0.250852
-0.0297845
-0.526856
1.09019
0.433167
-0.693455
1.11646
-0.482456
-0.172649
0.144347
-0.868849
0.037697
1.20711
-0.500796
-0.0269329
-1.2896
0.220109
-0.0210594
0.316702
0.517682
-0.834384
0.545741
-0.119009
-0.426732
0.866147
-0.969587
0.10344
-0.122312
0.0092164
0.113095
-0.193564
-0.475467
0.669031
0.339284
-0.278039
-0.373622
0.132421
0.2412
0.123806
0.288942
-0.412748
0.0748921
0.101451
-0.872853
1.02221
-0.14936
-0.160708
-0.0413131
0.444909
0.196275
-0.641184
0.564401
0.485939
-1.05034
0.148391
0.487135
-0.0167002
0.983422
0.00315031
0.783281
-0.786432
0.00266033
-0.00716985
0.0825523
0.00145749
-0.0840098
0.9394
-0.876561
-0.0628395
0.448701
0.532381
-0.0642281
0.0317719
0.0324561
-0.288887
0.805597
-0.51671
0.014299
0.140572
-0.154871
0.488193
-0.825559
0.337366
-0.476507
-0.557111
1.03362
0.838403
-0.160793
0.30093
0.244811
-0.422816
-0.101078
0.523894
0.28062
-0.808879
-0.0979955
-0.171451
0.269447
0.174836
-0.0750749
-0.0997615
-0.00978435
-0.241068
-0.0720125
0.621135
-0.549122
-0.139627
1.11452
0.77101
-0.617206
-0.153804
0.617504
-0.542943
-0.520062
0.152514
0.367547
0.0968744
-0.482117
-0.00810717
0.0533955
-0.0452883
0.0528176
0.126008
0.137148
0.735286
-0.872433
0.203413
0.17949
0.120942
-0.842423
-0.416294
0.167393
0.248901
-0.316112
-0.232387
0.548499
0.463809
-0.223834
-0.840085
0.557101
0.267608
-0.216791
-0.0508167
-0.461331
0.826753
-0.365422
-0.426609
0.433391
-0.423768
0.54529
-0.121522
-0.561768
0.878299
-0.316531
-0.020221
0.191275
-0.171054
-0.184943
0.137108
-0.291673
-0.581139
0.887971
-0.306832
-0.541019
0.673928
0.499736
-0.501862
0.00212571
0.245092
-0.144341
-0.100751
-1.25269
0.849835
0.402853
-0.017016
0.233283
-0.216267
0.0374691
0.686944
-0.898009
0.814834
-0.393564
-0.356928
-0.526747
-0.696751
0.699901
0.500573
-0.00962968
0.386807
0.129003
-0.51581
-0.312532
0.287211
0.0253202
0.147524
-0.17915
0.0316264
-0.0853998
-0.362148
0.447548
-0.163853
0.494257
-0.330404
-0.756376
-0.247408
1.00378
0.0932751
0.151817
0.782419
0.156981
-0.787732
0.55361
0.234122
0.150259
-0.31182
0.161561
0.00324251
0.160494
-0.210814
0.0503199
-0.650653
-0.538696
0.453296
0.122118
0.184931
-0.140724
0.296232
0.0803792
0.0277105
-0.580208
0.0273599
0.263819
0.106249
0.0363591
-0.142608
-0.602695
-0.468459
1.07115
-0.0721477
-0.350668
-0.507728
-0.0968685
0.604597
0.126732
0.172996
-0.299727
-0.00772025
1.13103
-0.73871
-0.392323
0.167775
0.652392
0.0820276
0.320765
-0.420314
0.099549
-0.440117
0.961222
-0.521105
-0.569217
-0.248758
0.817976
-0.437082
0.172833
-0.413583
-0.106478
0.884102
-0.427102
-0.457
0.238069
-0.280286
0.0422168
0.386354
0.0450817
-0.431436
-0.15193
0.178789
0.329393
-0.396159
0.0667657
0.262555
-0.0232625
-0.196529
-0.0067211
0.474505
0.409597
-0.379439
0.80458
-0.393063
1.06498
0.0678804
0.170189
-0.857027
0.28781
0.71217
-0.625823
-0.0931111
-0.615245
0.121702
0.202657
-0.502308
0.720717
-0.703521
0.815505
-0.0163243
-0.184491
-0.0984055
-0.284093
-0.0676787
0.351771
-0.278756
-0.0326657
0.706569
0.149125
-0.855694
0.030679
-0.243431
0.212752
0.00539384
0.30864
-0.801122
0.492482
0.873367
-0.0650106
-0.947723
1.00248
-0.0547619
0.205168
-0.122743
-1.08322
-0.169467
-0.331097
0.841493
-0.0292197
0.394297
1.12344
-0.413965
-0.709477
-0.631932
-0.0446812
0.676613
0.191514
0.511062
-0.702576
-0.681588
0.0292841
-0.160531
-0.148717
0.309248
-0.462675
0.600129
0.127143
0.515088
-0.642231
-0.202938
0.244501
-0.041563
-0.958184
0.10876
0.849425
0.311209
0.503625
-0.219929
0.554523
0.238711
-0.301247
-0.124782
0.766672
-0.899141
-0.160429
-0.388146
0.548575
0.221698
-0.136715
0.665782
0.0466393
-0.712422
0.689433
-1.0825
0.0129727
0.0213457
-0.464188
0.609135
-0.144946
-0.659211
0.519272
-0.0146151
0.261232
-0.246616
-0.373143
0.156007
0.217136
0.195457
-0.347598
-0.241142
0.579197
0.143047
-0.155194
-0.137389
0.147803
0.0881112
-0.32721
0.00968957
-0.0580959
-0.170678
0.164518
0.00615956
0.185036
-0.209309
0.0242732
-0.677364
0.456661
0.129841
-0.637569
-0.0122232
-0.255023
0.0267172
0.535278
-0.561995
0.304217
-0.325346
0.184892
-0.794508
0.609616
-0.285649
0.707202
-0.421553
0.19229
-0.883633
-0.0784072
-0.0256825
-0.922692
0.540133
0.693444
-0.739347
-0.100738
-0.520716
-0.232223
-0.387622
0.163483
0.169335
-0.0219067
-0.147428
1.18471
-0.612631
0.875229
-0.2047
-0.223467
-0.139566
0.363034
-1.13594
0.472705
0.66323
-0.375464
0.173736
-0.0332411
0.959768
0.143962
-0.086046
-0.438689
-0.11
-0.20647
0.339606
-0.299745
-0.0398609
-0.114157
0.820725
0.0621115
0.2023
-0.264412
0.683405
-1.29064
0.586154
0.704485
0.223624
0.190113
-0.413736
0.597173
-0.275326
-0.321847
-0.496974
0.260375
-0.645559
0.0155826
0.370771
0.885932
-0.971499
0.378579
-0.171741
-0.394251
0.674871
-0.899403
0.640279
0.259125
0.529528
-0.86748
0.337952
-0.687595
0.720904
-0.0333089
0.421446
-0.513366
0.0125833
0.23438
0.240831
0.105446
-0.713559
0.28489
-0.956189
0.498607
0.457582
0.234587
-0.866519
0.719375
-0.0464116
-0.564756
0.132647
0.14676
1.01343
-0.333597
-0.679831
-0.30209
0.248023
-0.564135
0.134603
-0.959231
0.91455
-0.769276
0.348838
0.47
-0.717666
0.380717
0.336948
-0.826867
0.542211
0.284656
-0.243142
-0.0346828
-0.0101418
-0.994224
0.694492
0.299731
0.602167
-1.04742
-0.860563
-0.0122905
1.12907
-0.403753
0.280859
0.08493
-0.365789
-0.0195795
-0.121641
0.141221
-0.258711
0.475395
0.527548
-0.435726
-0.28194
0.168215
0.171069
0.223208
0.331389
-0.554597
0.345823
-0.209631
-0.043533
-1.067
1.11054
-0.311098
0.409962
-0.77226
-0.564163
-0.408614
0.972778
0.232054
-0.297133
-0.648378
0.199366
0.449012
-0.00479174
-0.00167706
0.00646879
0.737825
-0.864828
0.0443631
-0.508551
0.466215
0.412318
-0.878533
-0.248779
0.149762
-0.790223
0.220126
0.570097
-0.99506
0.518553
0.52465
-0.964767
0.505767
-0.666196
-0.00597003
0.00117829
-0.031572
0.943617
-0.587602
0.725609
-0.138008
0.887432
0.000305605
-0.887737
-0.679699
-0.0113653
-0.184188
0.0642664
0.661911
0.101485
0.0272245
0.287804
0.282091
0.307132
0.482123
-0.0121954
0.159719
-0.830543
-0.0553458
-0.684561
0.296807
-0.713031
0.154085
0.178335
-0.332421
0.793573
0.0470436
-0.840616
-0.0892599
0.084803
-0.322696
-0.703703
-0.757549
-0.106707
-0.414716
1.10415
-0.316578
0.427695
-0.111117
-0.872981
0.270286
-0.257382
0.48059
-0.330764
-0.629472
-0.388657
-0.307192
0.322762
-0.542302
-0.260974
0.964957
-0.123464
0.605743
-0.290076
-0.315667
0.079921
0.0776062
0.22677
0.985289
-0.940328
0.0103773
-0.204691
0.288203
-0.471381
0.482426
-0.418978
-0.494674
0.198811
0.156956
-0.355768
-0.763637
0.0374596
-0.108227
0.729547
-0.62132
-0.0720012
-0.875721
-0.679772
0.799856
1.34494
-0.578148
-0.76679
-0.134963
0.311317
0.785837
-0.422295
-0.363542
0.236871
-0.260134
0.0438381
0.0387143
-0.197263
0.0528008
0.144462
-0.118591
0.505399
-0.45772
1.05989
-0.0309708
-0.124355
-0.252004
-0.0689892
0.320993
-0.0150871
0.752912
0.04876
0.439816
-0.488576
-0.357803
0.534003
0.411207
0.39439
-0.321234
-0.09506
0.479239
-0.175518
-0.303721
-0.0708351
0.0613424
0.00949275
0.131516
-0.775769
0.644253
-0.879622
0.122073
0.196433
-0.42038
0.717187
-0.00670552
0.243577
0.10732
-0.423898
-0.950777
0.478322
-1.00911
0.329873
-0.412835
0.0380057
-0.398974
-0.545068
0.944042
-0.881843
0.118129
0.224587
-0.342715
0.979827
-0.735737
0.758438
-0.566924
0.152371
0.493823
-0.646194
0.206247
-0.366778
-0.65612
-0.1457
0.80182
0.0210195
0.145412
-0.166432
-0.451397
0.997039
-0.545642
0.772357
-0.488753
-0.283604
0.70823
0.0211071
-0.729337
-0.53038
-0.760259
-0.29882
-0.00431618
0.342857
0.584073
-0.0135369
0.0736864
-0.0601495
-0.639293
-0.15093
0.662546
0.571386
-0.500812
0.596189
-0.0953772
-0.297089
0.26269
-0.00623057
0.339824
-0.333594
0.23297
-0.170858
-0.113594
-0.880629
-0.799819
0.258965
0.00864288
-0.175086
0.152696
0.0673934
0.696915
-0.764308
-0.476121
-0.126461
0.460453
0.27933
0.0623592
-0.21141
0.0129511
0.166629
-0.17958
0.0897451
-0.337656
0.24791
0.281867
0.259461
0.177112
0.777248
-0.360514
0.847228
-0.437266
-0.0951129
-0.228958
0.324071
0.71069
0.0703452
0.0326048
-0.62543
0.431866
0.356035
-0.371122
-0.509308
-0.542617
1.05193
-0.621211
-0.514724
-1.05207
1.09688
-0.0448102
0.164597
-0.355556
0.287877
0.521788
0.25546
-0.142711
-0.0549892
0.197701
-0.287395
-0.572441
-0.0578241
-0.686457
0.744281
0.43246
-0.206476
0.138041
-0.236036
0.549644
-0.87234
0.445217
-0.335396
-0.361054
1.25026
-0.889205
0.567747
0.474501
0.273715
-0.748216
1.06759
-0.628743
-0.438845
-0.45134
-0.659235
1.09955
-0.440315
0.308338
0.297404
-0.254492
0.247787
0.398934
0.76278
-0.182377
0.162797
0.0234972
-0.0312131
0.902132
-0.499988
0.434903
0.74981
-0.364543
0.187282
0.177261
0.205295
-0.449576
0.713192
-0.0474096
0.463831
-0.182972
-0.649723
-0.11189
0.761614
0.161828
-0.0326267
-0.129201
0.11391
0.0901162
0.128684
-0.880013
-0.252629
0.274274
0.656665
-0.571123
-0.0855422
0.144937
0.334302
-0.124364
0.0676329
0.219332
0.215769
-0.435101
-0.473588
1.0115
0.108669
-0.540906
1.11309
-0.57218
-0.27521
0.399017
-0.193677
-0.00926074
1.04956
-0.516898
-0.329123
0.306031
0.291141
0.266921
-0.279144
-0.137396
0.117175
-0.267753
-0.114297
-0.00110978
0.45747
-0.131958
0.760491
-0.628533
0.111447
-0.0804811
-0.32508
0.0758393
-0.283238
-0.0155824
-0.846462
0.57994
0.21199
0.212722
-0.128304
-0.147885
0.27619
0.272643
0.0375206
0.786098
0.422477
-1.20857
-0.0751958
-0.0194241
0.0946199
0.293479
-0.716477
0.875558
0.46938
0.733882
-0.666488
-1.10718
0.049803
-0.026997
-0.119966
0.432947
0.608586
0.33178
-0.940367
0.331736
-0.0275197
-0.0326548
-0.289237
-0.0753057
-0.475283
-0.430666
0.52754
0.612865
0.217184
0.532505
-0.546827
0.0143218
0.157471
0.00704726
-0.0655766
0.216737
-0.0317012
0.676121
0.170449
-0.846569
0.300444
0.0391615
-0.194426
0.117641
0.0767847
-0.302991
0.000367825
0.302623
0.31053
0.530792
-0.841323
0.205495
0.258314
0.644221
-0.0165047
-0.228278
0.655631
-0.373541
-0.0121869
0.0105418
0.00164506
-0.93529
0.511771
0.778135
-0.623953
-0.154182
0.0113068
-0.11099
0.0996834
0.762889
-0.834902
0.50021
-0.0677501
0.324543
0.433895
-0.100465
-0.0138315
-0.416411
0.120739
0.295672
-0.561734
-0.097354
0.998815
-0.510331
-0.488484
0.536529
-0.0816555
-0.454873
0.371833
-0.635535
0.263702
-0.0428552
0.467633
-0.00652255
-0.2938
0.69457
-0.40077
-0.28491
-0.131501
-0.327279
-0.0050807
0.207381
0.678404
0.00582964
-0.684233
-0.296031
-0.0491634
0.155412
0.038366
-0.00659408
0.426315
0.18282
-0.133084
0.159832
-0.0139973
0.0531545
-0.133232
0.129572
-0.349287
0.501658
0.0124965
0.192404
0.182563
-0.287638
0.695631
-0.0468944
0.579399
-0.122033
-0.0887327
-0.213776
0.433108
-0.191308
0.847867
-0.656558
-0.744746
-0.099162
-0.551399
0.88
-0.328601
-0.242823
0.237742
0.272355
-0.0562277
-0.0187792
-0.203965
0.222744
-0.765236
0.248338
0.0821003
-0.10071
0.462178
-1.12775
0.331388
-0.906863
-0.337709
0.903067
-0.418016
0.446935
-0.231165
0.0121609
-0.588656
0.720172
0.000492179
-0.125165
0.139318
-0.488125
-0.0810226
-0.550487
0.63151
0.0307531
0.411718
1.2013
-0.786239
-0.415065
-0.188811
0.0564519
0.177107
0.0190352
-0.196143
-0.719127
0.131525
0.148389
0.0264478
-0.00616842
-0.097286
0.103454
0.385659
-0.937058
0.075799
0.397882
0.0237548
-0.421637
-0.93675
0.745441
0.115659
0.0315282
-0.147188
0.297047
-0.878186
-0.111641
-0.00308638
0.114727
0.148084
-0.0324249
-0.000687614
0.641338
-0.492947
0.53835
0.43389
-0.228395
-0.798156
0.233993
-0.606136
0.480517
0.125619
0.516345
-1.02565
-0.443637
-0.265024
0.708662
0.0725004
0.34197
-0.258078
0.213539
1.04605
-0.146268
-0.899785
-0.00853021
-0.822013
0.647817
0.0604127
0.374168
0.411669
-0.126271
-0.00454928
0.112363
-0.249051
-0.290434
0.0610431
-0.050229
-0.0108141
0.0203768
-0.667259
0.646882
-0.042126
0.238212
-0.196086
0.342152
-0.865531
0.523379
-0.103368
-0.476696
-0.0306582
0.0350775
0.603943
-0.294647
-0.165803
0.46045
-0.310555
-0.3623
0.380463
-0.223507
0.317206
-0.159748
-0.157458
-0.353118
0.224814
-0.713944
-0.117232
-0.0160848
0.133317
0.103195
0.269502
-0.372697
0.0889422
-0.672991
0.584049
0.0108871
-0.478868
0.145809
-1.10101
-0.394647
-0.670715
1.06536
-0.847882
0.0378496
0.810032
-1.1592
-0.701937
0.0143423
-0.228506
0.235817
-0.00731159
-1.10456
-0.308205
0.984325
0.321974
-0.167014
0.0704446
-0.284221
-0.145297
0.403611
0.119555
0.070115
-0.322119
0.0124531
-0.0971213
0.0846681
-0.204348
0.077654
-0.0643464
0.0756532
-0.226723
0.450346
-0.877295
0.550302
0.326993
-0.271649
0.268796
0.530997
0.160103
0.00172497
-0.241357
0.0986457
-0.423144
-0.225234
-0.4662
0.165168
0.301032
0.0748451
0.241249
-0.316094
-0.342921
0.432667
-0.0632988
0.63017
0.814669
-0.765909
0.488352
-0.798907
0.377641
-0.517507
0.139867
0.0765595
0.0015619
-0.119164
-0.0112684
-0.936258
0.537284
0.109949
0.42658
0.012934
-0.159304
0.14637
-1.40657
0.577884
-0.0775064
-0.074794
-0.157996
-0.0170519
-0.180001
0.197053
-0.478156
0.183508
-0.962597
0.849003
0.958877
-0.492662
-0.147178
0.131826
0.015352
-0.0526635
0.0381827
-0.117809
-0.946551
0.318171
0.62838
-0.108649
0.0892252
-0.0548046
0.23224
-0.177435
0.324687
0.175523
0.165492
-0.154892
-0.0105994
-0.216273
0.228769
0.0799926
0.0125595
0.514833
-0.755389
0.937645
0.0440427
-0.540719
-0.115885
0.852435