/*--------------------------------*- C++ -*----------------------------------*\
| =========                 |                                                 |
| \\      /  F ield         | OpenFOAM: The Open Source CFD Toolbox           |
|  \\    /   O peration     | Version:  2306                                  |
|   \\  /    A nd           | Website:  www.openfoam.com                      |
|    \\/     M anipulation  |                                                 |
\*---------------------------------------------------------------------------*/
FoamFile
{
    version     2.0;
    format      ascii;
    arch        "LSB;label=32;scalar=64";
    class       volScalarField;
    location    "6.4";
    object      p;
}
// * * * * * * * * * * * * * * * * * * * * * * * * * * * * * * * * * * * * * //

dimensions      [0 2 -2 0 0 0 0];

internalField   nonuniform List<scalar> 
13486
(
2.51862
2.06617
0.0526528
-1.18843
0.788244
-0.188428
0.334501
1.39517
1.69372
0.999947
-9.36097
0.432616
2.6485
-0.161756
0.62604
1.09652
-5.04305
0.154107
0.595081
2.28355
-0.730206
2.61724
2.02761
-3.11134
0.947408
-2.81127
-5.34017
-1.20567
0.00226766
-1.13643
-0.425576
0.486571
-2.21947
-0.787347
1.39836
0.0115188
-0.0244818
2.04947
-0.173659
1.69644
0.163538
2.75106
0.036412
0.941506
0.90439
0.409534
-4.147
0.00331557
-0.0236585
-1.03753
1.52027
-0.191665
0.338197
2.0834
0.0909728
0.855728
0.0356401
-0.194446
-2.1102
-0.0365065
-11.1128
-0.0264931
-2.95536
-0.653677
-2.24013
-0.0225732
-1.56798
2.53887
1.68281
-0.0597185
-1.5964
0.11095
1.71224
-4.41556
-0.014174
0.0391585
-0.0120305
0.608545
-4.06452
-0.250511
0.00396599
2.09499
-2.96991
0.0643128
2.52773
0.99197
-0.109776
1.44368
1.72186
1.09811
0.365272
1.20507
2.41205
2.18876
1.76146
0.00360446
-5.42722
-2.2813
1.66916
-5.0033
0.0279706
-0.0682169
-2.29396
-0.188389
1.17836
-4.98287
1.72053
-0.180494
-4.27644
1.08331
1.62451
0.394107
2.08188
0.0443791
2.95985
1.7041
0.95282
-0.731558
1.72691
-0.0154583
0.152382
-10.5984
1.84347
-0.179447
1.61958
-0.179826
1.19378
0.468106
-0.642835
-1.52186
-0.174694
-3.88813
-5.25301
-3.83472
1.59118
1.43505
2.95954
1.12975
-0.014317
1.43964
-1.71541
0.331631
0.494092
-0.260503
0.0381458
-4.21654
-0.0203823
1.81599
-1.12753
0.00131221
1.03869
0.570586
0.00474022
2.1363
0.555881
0.0455333
0.883618
-0.0430498
1.85433
-0.784948
-0.752015
1.85499
0.270788
2.74267
-0.195987
-0.442663
0.0805296
3.37925
-0.0205506
-3.84764
-5.35333
0.570008
1.22929
0.894566
0.0016207
-6.86959
-0.346229
-1.95984
1.72252
0.505614
1.58744
0.0446423
0.725318
-6.75559
0.0722133
-1.19329
0.00123612
-1.02824
0.238012
1.79267
-0.0177935
0.0512748
-0.224319
2.22074
-0.257936
-8.97679
-1.64975
-0.79665
2.25943
-0.356872
-0.464821
0.443848
2.05396
0.625178
-0.617624
-0.26719
0.114706
1.85068
-0.211721
0.0796398
-1.11686
-2.25761
2.25523
1.72101
-0.184473
-0.561971
-1.18198
1.12642
2.28403
-2.11786
-5.02817
-1.15173
1.47842
-0.807752
0.254432
2.45256
-0.48523
-1.79648
-0.443225
-0.119482
1.56829
-0.281508
-1.79597
2.80484
-1.57593
2.35435
-0.878326
0.0519662
2.37864
0.760146
-2.28094
1.20711
0.049897
2.24059
-0.170235
1.9569
0.794899
-1.81119
-3.8797
1.04861
-5.13868
2.99305
1.64429
-0.186514
-0.342003
-8.47253
0.473133
-0.535919
-0.0142066
-2.23879
1.89542
-0.166229
0.616082
-7.91148
0.886204
-6.83664
-0.453903
-0.609258
1.58451
0.124104
1.76373
1.68883
-1.22386
0.333119
2.45658
-1.68279
-0.345066
-0.22909
-0.199833
-0.00667652
-0.277836
1.3898
1.73917
-5.47693
-9.96147
-5.00929
-1.61217
-0.669525
0.244121
1.60154
-1.44115
-0.161087
1.7647
1.60617
-0.83451
-0.949208
-0.760052
0.30251
1.77005
0.263631
0.254267
0.118641
-0.0140969
0.514633
-0.0278653
0.656781
-0.309378
0.831659
-0.117213
-0.0189151
-3.79396
-1.09731
-0.0697234
0.398785
-10.3705
1.46542
-0.180985
1.72622
1.86116
-0.527525
-0.0215095
-0.132876
1.71086
2.20407
2.92921
0.388479
1.05204
1.36009
0.176261
0.971157
1.45507
1.14982
0.328346
2.36575
0.318695
1.65891
3.05688
0.611102
1.11032
-0.167226
-0.488475
2.18433
0.933795
0.743011
-7.60901
0.00281962
1.11914
2.95127
-2.14238
-0.171573
1.08461
0.228727
0.314733
-5.6156
1.75743
-0.00838483
-4.53152
1.16751
-0.131225
-2.10713
0.610442
0.340042
1.91867
1.69278
-1.18447
0.00290267
-0.90628
-3.96468
2.30796
1.18107
0.0299272
1.13921
0.223568
-5.98627
-0.0933036
1.55331
1.75276
-0.159976
-9.90453
-3.18062
1.56508
1.11412
2.66187
1.86057
-4.09682
-0.368361
0.16867
1.08368
-4.94189
-0.244013
2.21762
-1.31116
0.79472
2.39873
2.5105
-0.00514104
-1.31333
-5.70366
-5.03147
-1.71296
-4.98996
0.564919
1.48821
-0.377118
0.377758
0.0183149
2.15681
-1.92457
1.19986
1.95869
1.0568
-0.961086
-1.3917
1.77472
1.73648
2.14586
-6.68758
0.913256
-5.47227
0.785319
1.72292
0.242815
2.96124
1.15853
-0.620396
-0.9809
0.436861
1.73756
-5.29698
0.187784
2.59588
1.49345
0.776512
0.210776
0.721807
-1.93548
2.65251
-0.158942
0.939241
2.49908
-5.16851
-1.23506
-3.76697
-1.4245
-0.250055
1.99615
2.03742
2.61126
-3.32268
-0.0202909
-7.83982
1.13147
1.75613
-1.01891
-1.18923
1.71373
-4.70762
-7.03655
-6.11622
-4.12603
0.0536941
2.12034
0.00205589
0.212182
-0.829879
1.66065
0.00358278
3.22238
2.43845
1.70842
1.34184
0.0132219
0.00209031
3.03962
-0.395613
-0.0114132
-0.610808
1.67474
-5.03423
0.283411
1.25556
-0.0120447
-0.618836
2.00875
-1.92895
-5.03876
1.16709
-0.272876
3.36779
1.18758
1.53649
1.86012
-7.26855
0.133589
2.76334
0.790405
2.21287
0.322663
0.543003
-0.71722
-0.253173
0.0328896
-4.93272
1.78854
1.66508
-5.29326
0.00115585
-0.250183
2.53205
2.00155
-0.366661
1.6975
1.22202
-0.574684
0.894892
1.55975
-5.4111
2.62182
0.00628089
-0.0547215
2.72929
1.12833
-0.004159
1.10467
-0.904845
-4.01465
0.686889
1.03216
1.87085
2.41747
-6.50775
0.713775
-6.4883
0.00336044
2.34944
0.538546
-6.78765
-2.5581
0.24374
-0.0135262
1.34265
-2.07657
-1.13018
1.70304
2.3405
-0.165662
1.88493
-3.98439
-6.63437
-1.52698
0.771028
-7.98014
1.85936
0.109223
-11.6419
1.42007
1.97909
-2.33464
-6.546
1.54129
2.35553
0.626842
2.54084
0.121994
1.20013
0.461907
1.88477
0.041273
2.29112
-5.50345
0.541173
1.61398
-0.596989
-1.59374
1.70691
-5.20273
0.31764
2.00546
2.61317
-0.896824
0.00316597
0.56106
0.282428
1.48929
1.29887
0.509498
-6.73096
0.0834833
2.49625
0.343489
0.246133
-5.01393
2.63002
-0.75186
0.0461757
1.67957
1.32038
-0.258966
-0.294195
1.42207
0.132581
-0.0755093
0.730725
-1.495
2.54852
1.66133
1.16599
1.19952
0.152078
-1.59562
2.86494
0.580669
2.86966
-1.54033
1.61288
0.00978889
-4.47901
0.988326
1.04156
3.0002
-4.44125
1.0661
1.01237
-2.30022
1.00536
0.152162
-0.496361
1.63452
-6.62979
-1.50465
-2.0394
-0.0915806
-0.65833
1.8458
0.00270907
2.78505
1.67326
-0.521207
-6.3393
-1.10316
0.620692
-9.53879
-0.2089
-4.9573
2.33506
0.0011152
0.0426986
-11.0703
2.66764
0.00260453
0.240193
2.72673
1.53951
-6.59177
-0.169205
1.17349
0.208596
1.60257
0.0475719
-1.38534
0.715473
1.52213
0.573087
1.36557
2.76629
0.0461488
-4.49547
1.70607
0.259224
-0.259817
1.12763
1.31562
0.823065
-6.5719
0.110028
-0.153647
0.209137
2.34572
0.592877
0.157055
0.0780091
0.0655917
-0.290204
1.76899
-0.166941
1.56595
1.58549
2.36895
0.169582
-1.03175
2.84949
0.02264
-4.48921
1.76792
-1.9097
1.94446
0.0362118
1.67798
-0.376918
-4.06674
-2.71635
0.00203252
-5.03548
0.983829
2.93004
-0.650935
-4.09905
-0.564349
1.80973
0.0873643
0.825856
-11.618
2.9085
-6.52898
0.88397
-1.10616
1.0603
1.73603
0.766801
-2.90906
-0.485407
2.69915
1.754
0.677196
1.48631
0.0387632
1.30247
1.3195
1.06376
-3.75476
-0.345638
2.13538
0.347711
-0.207434
1.38462
-4.01603
-0.623852
-0.131977
1.82707
1.84615
-2.92557
0.0973506
-6.27541
-0.55835
0.140657
-0.63761
0.341782
1.67245
0.0312907
-1.31775
1.96094
-0.0442939
-1.10603
-0.079533
-0.72349
-2.87539
-2.41872
-0.152578
-9.90309
1.59067
2.64523
-0.00821176
-1.0877
2.73409
2.56372
-0.80842
-1.63519
1.7283
-4.76429
0.0413647
0.0716953
0.154686
0.898662
-5.03305
0.85931
1.20951
-0.636975
-0.415879
-2.6248
-0.152701
1.43282
0.862312
1.07483
-3.67453
1.53477
2.51044
-5.74223
-9.28789
1.88132
0.547354
1.11979
-0.16922
-1.08782
-3.93776
-0.107382
1.75343
2.87745
1.85353
0.142595
-0.0947356
1.71449
2.44406
-0.258804
1.79031
1.67921
2.57788
0.376007
-0.1399
0.318099
-0.513988
2.56207
0.108222
-0.00953912
1.14069
-0.346643
0.415801
-0.0826391
-1.59336
1.65521
1.33732
1.24014
0.889266
-2.51549
-0.372763
-0.588149
0.906418
-1.59809
-0.64685
0.0384986
-10.657
-12.1238
0.966541
-1.09141
-3.84791
-2.72969
-0.76802
1.2215
-7.97712
-6.44929
1.90225
-1.05552
2.62286
-1.74385
-3.92457
1.98782
2.36486
-0.0113767
0.188946
0.330415
1.78164
0.917882
-2.58032
-0.250677
-0.0289879
-0.370112
1.68614
0.0431554
1.06597
-0.140401
1.67814
-5.27776
0.045772
-0.0092815
2.04296
-1.41962
-9.93487
-5.03002
2.59709
0.109935
-4.55545
-9.15818
1.68043
-5.16512
-0.140517
0.390923
0.768631
0.0134551
1.13014
-2.05058
1.47323
1.70222
1.94155
0.844801
-0.0732867
-0.741793
1.34511
-0.418735
2.01799
1.25172
-0.257447
-0.188848
-0.389615
-0.0406131
-0.0232652
1.93847
0.757767
0.28393
1.7111
0.135414
1.32236
2.96877
-0.081721
-1.9883
1.22639
-0.0155166
-0.132721
-0.414425
-0.812112
1.67328
0.0476703
0.0230703
0.0410235
0.187844
2.15204
-6.36427
0.00355437
1.71756
-0.00593616
2.42819
1.96498
2.24374
0.425165
1.16022
0.529455
0.0279601
1.2296
1.63933
-0.371505
-0.606133
-2.54415
-1.12173
-10.5941
1.67175
-3.76228
-2.79677
-9.94914
-0.339391
-0.0117197
1.7344
0.0040674
0.348804
-3.96171
1.74613
2.92757
0.00526575
-10.2101
1.03035
-0.0149858
1.62053
-0.665995
-0.17195
2.01812
-0.207436
2.77482
1.14296
1.70638
-1.05447
2.19119
0.0399147
1.97677
0.00421068
-2.35294
-0.33097
-4.81205
1.1121
-0.0398467
-0.218181
2.61355
1.74104
1.86984
2.37984
1.90226
2.03817
-0.572943
1.74137
1.75655
1.75595
-0.530947
-0.485721
-1.18404
-1.25112
0.451089
1.87989
-4.0766
2.554
-1.32613
0.0481589
2.85726
2.41449
-0.597904
-3.59616
1.68471
0.959011
0.0141212
1.56192
-3.92149
-0.590523
1.70406
2.32421
-0.169438
1.84845
2.16968
0.00272999
-0.725514
2.18932
0.746726
-0.0209254
-7.05333
0.057172
-1.54379
1.62818
1.28473
-0.0649568
-0.136865
-1.33903
0.453619
-0.11173
0.405944
2.47979
-0.164286
3.16509
1.68329
0.573768
1.89889
-6.72163
-4.5994
-4.7665
1.67038
-0.171479
-3.6574
-0.408124
0.908903
1.07939
-0.164389
1.17058
-4.32568
0.836471
0.118038
-0.15604
1.3326
0.536791
2.17903
1.75202
1.82067
1.60615
-0.606813
-1.90516
-1.3969
0.0933888
-1.18139
-0.0781261
1.30672
-0.753893
-0.0701596
-0.0736677
0.229286
-12.1319
1.17066
0.902437
-0.633614
-1.42112
0.801002
-1.0843
-1.99161
0.259736
-0.045183
1.84488
1.31733
2.15481
-3.79783
1.57594
0.0433465
2.35501
-0.0257704
0.967008
0.173216
-0.1553
2.7252
2.83591
1.3867
0.881282
1.22257
1.52199
2.75478
1.11988
-2.00061
-11.1627
0.344062
-1.22823
-2.28595
1.73533
1.61442
0.00767393
0.391694
1.38775
1.51604
2.99441
-4.29752
1.3943
-5.09685
-0.183735
2.43538
-0.406489
1.37695
-0.522747
0.682508
0.664011
3.11691
-0.219681
-1.20807
0.926924
0.279309
-7.79893
-3.9486
0.170482
1.91365
-1.40581
0.888049
2.56087
2.36458
-0.281364
-2.76167
-0.294401
0.391068
1.96523
1.5794
2.3334
1.02025
-9.41646
2.44901
1.50927
-2.37062
1.26562
1.77282
2.11078
-9.84722
-0.397804
0.00161125
1.49398
2.68929
0.888535
0.223799
-1.55741
3.00762
-6.65613
-1.67173
2.80388
1.53621
0.0876497
1.32115
-1.42436
0.899012
-0.952976
-6.94223
-0.156271
-5.68017
0.125792
-0.712579
-4.97646
-5.03155
-2.81183
0.0699454
-4.99629
-5.33595
1.41598
1.61465
0.847601
-4.31255
0.453233
0.357518
-0.616591
3.14996
1.07745
-1.23851
1.53518
-0.910514
-6.14672
1.35782
1.34684
1.6121
3.1862
0.00527962
-0.396675
-3.25684
0.0812337
1.11392
1.63083
-0.579435
2.47618
1.26488
1.81232
-0.726825
-0.246521
0.0452846
1.72621
1.71864
1.79081
1.7231
2.9432
2.87673
-0.939467
1.54338
2.16156
-1.19745
2.32591
-0.134918
2.84296
2.30384
0.124146
1.94709
0.917568
1.25422
-0.0247071
1.76569
-1.81888
1.44951
0.578618
1.1019
-0.193289
1.62021
-0.104231
0.443871
2.74745
2.74173
1.09256
-3.8333
0.410927
0.0306226
-0.36344
1.4434
2.45717
-3.80938
1.76031
1.59061
0.81675
1.71529
-9.03042
-0.526622
-0.0732891
2.99303
0.473641
-0.388109
1.99015
-0.199911
0.0442762
0.924622
0.342594
1.35448
0.627414
-1.06353
0.998426
1.32305
1.07546
1.22839
2.90177
2.39073
2.08609
1.99186
2.6891
0.776476
-0.148029
0.101103
-1.53604
2.71549
-0.758452
1.66437
1.48792
-6.81062
0.848715
1.8633
-3.43826
0.83309
1.16745
3.22295
-5.68955
0.74217
0.0640863
1.91182
0.0418243
-1.58572
2.6705
2.27525
1.60629
1.661
-1.0449
0.757853
-4.93032
2.87059
0.0136029
3.09509
-0.221663
0.214303
-4.73645
0.862123
-4.36567
0.323157
-0.20923
0.681494
-0.0897373
0.653419
-2.077
0.00133485
-0.614221
-3.76445
-1.16708
-2.66049
-0.0954077
-0.277904
-0.662057
-10.4953
1.70298
1.737
2.198
1.705
0.675984
0.656367
3.37182
1.62211
-5.24892
0.00261243
-0.099436
1.36461
1.46271
2.48159
-1.51517
-1.53343
1.34552
0.0024121
0.435547
2.1467
-3.89087
-7.51696
-4.99
2.9034
-2.24456
1.15514
2.14739
-0.289255
1.30561
-0.0875984
-6.62591
-6.112
-0.370861
1.20835
1.98802
2.10779
-2.74607
-3.84285
1.07365
-4.27286
-1.19085
-0.613578
0.361355
-0.931562
-0.139108
-2.57095
-5.82169
-2.82111
2.5742
-0.819443
2.81615
-8.31947
-0.354317
0.631027
0.0936559
2.37672
1.63132
2.03964
-0.0484288
-0.960206
-7.08533
2.2867
-3.73638
1.30088
-0.142814
2.09364
2.37331
-0.144661
1.6676
2.69898
1.83257
1.81394
-2.87514
-0.143712
0.695448
-1.79468
-0.204677
0.982812
1.16774
0.0455476
-7.96473
0.404364
-0.0951688
1.44043
1.21509
-1.15435
2.83335
0.0706174
0.00183919
0.246643
1.69321
-1.51808
0.00597048
1.81018
-0.772765
0.0192897
-0.326138
1.76277
1.69835
1.62714
-0.151173
1.63524
1.96776
1.88105
-0.895246
0.0490129
0.480876
1.42979
-1.51683
-5.42361
-3.9863
-2.05445
-1.40285
0.0384365
-0.196102
0.0420038
-3.99057
-1.14074
-13.0534
-0.135581
-1.02918
0.711753
-6.99656
1.81705
3.39684
0.676703
-0.595826
0.848571
0.288073
0.411465
0.0246747
-1.11957
-9.11207
0.140087
2.20935
0.00311996
2.65116
0.0296031
1.62347
1.35005
0.73392
-4.99992
0.938564
2.93964
-0.669154
1.72368
1.66243
2.4703
0.142717
2.26556
1.79029
-4.58943
1.90831
-5.70035
-5.36393
2.31631
1.53814
-2.50452
0.185061
2.19094
0.117515
-3.34274
0.0418731
0.0430063
1.38492
0.98558
1.74362
1.55207
1.41345
-3.18963
-1.19426
-0.840194
1.70866
3.09221
-1.26192
-5.91113
-4.97831
1.66588
0.102185
0.114482
0.68769
0.161046
1.27826
-0.304634
0.402231
2.61611
0.832855
0.131774
-0.520121
-3.2924
-1.99315
-5.10994
-2.72124
-7.81577
2.0432
0.98211
-1.36943
2.72615
0.00254058
-7.41549
-0.675232
-5.5927
1.80067
-3.75555
0.644894
1.65649
-0.151144
-0.91518
-0.216588
-5.34251
-1.29405
1.87789
-12.573
-0.110364
-4.96231
1.66367
1.80831
-2.39936
2.12915
1.9573
2.55079
2.62741
1.85598
0.291616
2.99559
-4.98698
1.61328
0.274024
-10.5473
2.08697
-3.40335
2.58876
0.880527
-1.78158
-4.86022
-3.48868
1.84044
-4.00521
-1.19842
-0.0218754
-1.06219
0.13099
1.12162
0.374022
1.19474
2.90048
-3.9765
-2.70389
-0.714786
1.73115
1.35499
-1.91511
3.35961
-0.141182
-0.0789128
1.19017
-1.58865
1.65653
1.71074
1.91974
1.93772
0.151688
0.877394
1.59226
0.37062
-0.35395
0.0003226
1.80329
1.88638
2.30843
-0.454763
0.04046
0.828229
1.10116
0.315643
-7.2703
1.46052
-0.673493
1.52164
1.77057
-5.03153
2.64459
-3.10301
2.8883
1.89964
-12.5919
0.00547649
-0.0192731
0.797928
1.81491
-11.2988
2.27286
1.64938
0.82343
0.0377985
0.336805
-0.258639
0.822819
-5.01424
1.00155
-1.1027
1.68036
-5.55298
-0.0868703
-0.804975
2.10059
2.39724
0.960098
-5.45926
0.908599
-0.290747
0.0438766
1.02245
-0.313247
-0.383281
2.81378
-0.741231
-0.0610591
-1.74428
-6.03359
-0.167385
1.76338
-5.02619
-0.657634
1.80894
1.04852
1.81968
-4.94273
0.763263
2.85503
-3.12862
1.68723
0.52827
-0.259156
0.665167
0.385822
-0.965613
2.90869
1.90826
-0.00361567
2.83312
2.17693
2.09205
-4.30638
-5.47207
1.04485
-1.93609
-0.144674
-3.52906
-1.66088
-3.27855
1.30198
0.647221
0.979524
1.09433
-0.283976
1.23665
1.72373
-7.7847
1.74068
1.12851
1.71225
-0.291503
-0.0115026
-2.47094
-5.16547
-4.25217
-0.76898
1.70728
-11.3244
2.56578
-6.62538
1.6641
1.0003
-0.0816002
0.238606
1.7138
0.871985
0.477557
1.48821
0.303933
0.133514
2.42596
2.05253
-2.06737
-4.98509
-0.0411222
1.54673
0.105851
0.721755
-2.70788
0.0804523
-0.346912
-0.438812
1.44055
1.38692
0.209402
0.86558
0.0544126
-0.0962482
-11.2021
2.11683
-3.0397
1.61665
0.00308056
1.50564
1.77628
1.04111
1.5381
0.00850202
-2.10082
-0.134521
-5.23513
-3.82622
-2.76273
0.087786
-0.212894
1.4139
-0.0183885
1.68484
-0.142721
0.141517
-2.47501
-0.129355
1.74016
-6.04575
1.61827
0.435486
-8.35747
-0.184488
-3.30743
1.17779
1.80551
-0.0977831
0.327852
-4.65133
1.96047
0.0806984
0.51621
-7.47855
2.11038
0.824363
0.00526317
1.80347
1.7215
2.02685
0.434654
2.12393
-3.29986
-0.278511
-0.282835
1.60481
1.15514
0.461057
0.124694
-5.21651
-9.1659
0.892184
0.0320861
-10.667
2.65314
-3.13166
1.99013
1.18802
-1.23445
-0.154612
-1.09762
-0.238319
0.275211
0.266783
1.62995
-0.119988
1.71526
-2.55485
0.6491
-0.372108
0.408207
-5.86156
2.0824
2.86088
1.84749
0.911087
0.296987
1.20595
-5.28492
0.0317714
-0.172754
-0.34899
-2.42974
-13.0783
-6.49353
-1.3156
1.46964
1.63467
-3.29253
0.434366
1.92239
-1.07403
-2.30117
1.8436
-0.15751
-9.54049
0.0361971
-0.313108
0.00444457
2.7045
-0.187112
1.59046
-1.56693
-1.02952
-1.03896
1.6176
0.433218
1.35954
-1.18629
-1.44845
-0.771445
0.285931
1.97115
1.45396
0.389406
-0.175617
-0.826388
2.96517
-0.44476
1.89244
2.07944
0.0594124
-0.195305
0.773354
-5.05989
-0.842897
1.5257
1.06837
1.6022
-4.96753
1.86737
0.287944
2.41824
0.300578
1.54608
2.13178
1.46068
0.359893
-6.66111
0.632856
-5.18214
1.42559
0.857413
2.01964
0.21922
2.54205
0.307435
2.70823
0.0624322
2.10403
-0.152724
1.23738
-7.42512
1.65329
0.80013
0.807097
2.55661
1.7066
0.437902
-1.16051
0.952238
1.6365
-0.123949
-5.03014
1.20478
-1.50022
2.18334
-2.56941
2.58942
0.508485
3.40309
2.62725
1.20288
1.06059
-8.30176
0.166285
2.78103
-0.0189592
-0.0203001
-0.307167
2.77291
0.934727
1.41431
2.38032
-1.09622
1.82223
-0.637567
1.98475
0.0417816
1.87482
1.6943
2.31167
-0.149598
-3.58744
0.501708
-3.59904
0.77128
0.216118
-0.32031
2.20306
2.43753
0.0227484
0.518018
-0.581123
2.18147
1.35958
1.51914
1.11935
-0.233276
-5.15427
-0.915905
1.75807
-2.55972
-0.0441683
0.265152
1.15964
0.799276
-1.14972
2.93941
-0.237609
2.56524
0.449467
2.65063
-1.10727
0.397415
-0.0599314
0.0441766
1.3982
1.69102
0.204021
-0.0186076
0.0648352
-0.0806581
2.42034
-0.419576
0.0701804
-0.281297
0.00819064
0.531453
2.0403
0.764492
-0.400593
0.0120541
1.70304
3.10069
-3.77941
-0.905484
1.61174
0.0660432
0.93825
-0.156483
1.16871
-0.0017954
-4.57309
-0.237002
-0.671624
-0.355984
-0.0347003
-3.612
-3.71667
0.101251
1.37508
1.78404
1.51796
3.01559
-11.0621
2.76143
-4.65594
2.62064
-11.5312
-1.26378
2.91606
0.784065
-1.48346
1.68446
-0.15565
1.81919
-0.390158
-4.9802
0.295913
-1.29777
-1.62312
0.00225226
-0.361494
0.758813
2.07491
-11.4283
0.831436
-2.50703
0.442297
-0.253922
-0.118924
0.269167
-0.312941
-2.05796
2.25373
-0.0591727
2.46094
0.649519
-5.91104
0.675053
-1.28862
-0.0525198
1.5004
2.09522
3.03633
1.34104
1.49594
0.75886
-3.94475
2.93708
3.11595
1.86782
-0.966556
-4.8243
-5.33108
1.53195
1.06956
0.613583
1.47219
-0.488247
-0.0890421
-8.16488
2.54802
0.202714
0.270335
-1.8382
1.59467
0.510951
3.32188
3.12875
1.46865
0.307616
0.439491
-3.82364
0.78514
3.20356
0.117899
-0.0432912
1.20741
0.00830579
0.364688
-0.204416
-0.44398
0.36263
0.285476
0.77647
0.00572217
0.625255
2.33608
0.474988
1.77343
-2.16791
-0.555552
2.82071
-4.65451
0.332764
0.387504
0.821275
0.431307
-2.71998
0.293548
-0.447974
0.309349
3.34686
-4.92651
-3.33372
-4.07613
-0.884189
0.0698878
0.384134
-2.09129
-3.21836
0.00567423
-2.9625
-1.18985
-1.73914
0.424441
-0.337274
0.223878
3.27683
0.258713
0.501791
-0.349026
0.41887
-3.73592
-0.796373
2.33341
1.66305
0.511755
0.00626314
1.56704
1.7881
0.0662982
-12.155
-0.196573
2.32813
-1.19113
1.61429
0.123764
2.56634
0.215777
-2.54662
0.189311
1.84349
-1.1388
1.55055
-1.10478
3.16765
-1.87673
-0.360783
-8.41518
0.880962
-2.83708
-1.38195
-2.066
0.186861
0.718574
-5.75505
-0.352635
-0.260529
0.357007
-1.93927
-1.22002
1.33367
-5.17615
1.43348
-2.30827
1.86169
2.92017
1.54899
-3.78722
1.67359
0.146694
0.343439
-0.29101
-0.620186
-5.01468
-0.23373
-0.943824
0.69686
0.0823272
-0.891269
-0.172213
-7.2319
0.858604
1.73944
-1.42039
-3.08036
-0.499831
-0.00184303
-0.0164791
0.974827
-2.75239
-3.35692
1.76486
-0.190277
0.926413
-1.89546
-8.33336
-7.10854
-11.4883
3.27559
0.53565
-1.49136
0.624912
2.76371
2.82737
-2.99215
-0.658472
1.70005
-0.0854113
-0.189572
2.83302
0.930808
1.46058
3.33558
-0.36671
0.451644
0.339419
2.52562
1.76713
1.71791
2.15718
1.26329
0.0343443
0.0486848
0.871136
0.419198
-5.127
2.88406
-0.586735
-0.738447
0.0063398
-1.77892
0.816227
-1.85992
-0.728227
0.43236
1.73325
1.84596
1.90905
-5.19645
2.4987
2.80963
-3.53119
1.04473
-0.240366
-0.108492
0.337293
1.07159
-0.205099
-1.08596
-0.857012
3.10393
-5.65189
1.92606
1.68511
2.2117
1.23831
1.30612
-0.0171131
0.0302588
0.958743
-0.191971
-6.03138
-2.37522
0.0233097
-1.53778
2.06213
-5.19788
-0.0872976
0.451299
-3.73242
-2.40864
-5.04167
1.47934
-0.6402
-0.141324
0.870071
-5.16774
0.601955
-3.33365
-0.241815
1.81866
-6.72712
2.88397
0.00331506
3.05635
0.00291914
-0.168679
0.219833
1.52858
1.41372
-3.12275
-0.326278
-0.210223
0.193966
1.16036
3.33793
2.21897
0.548914
-1.12907
0.86767
0.109446
1.91202
-0.0585084
1.08195
-1.0391
-1.86151
-3.693
0.576639
0.0328271
-3.75716
1.17935
1.05733
2.77122
2.98469
-5.07317
-5.02887
0.211926
-1.45765
2.88938
0.0554197
-0.50446
0.822574
1.28823
-0.944515
0.0691628
0.208441
-0.15019
1.51763
-0.604624
0.457598
0.015582
-1.13127
-2.78657
-0.347166
-2.85883
-2.57861
1.84361
-3.45924
-2.18856
-0.713684
0.172937
3.14848
1.22047
1.62171
-0.810812
0.850754
-0.0221847
0.67544
0.601292
-2.07645
-5.31763
2.88094
1.79039
0.0546793
-4.2706
3.25663
-2.63596
-5.56971
-0.888539
0.831097
-3.11687
-0.912148
2.51078
-0.0360764
1.52846
0.765795
-1.26483
0.216751
-0.142434
0.834481
-3.0885
0.0955593
0.629634
1.63438
-3.57229
-5.3647
0.0606016
-1.0337
-1.68562
-1.57009
3.07627
1.18695
-11.3301
0.784413
0.513616
2.7045
0.930275
-5.183
0.986821
2.14912
1.8162
-1.33926
1.54828
-0.0303588
2.85737
0.0306116
1.76606
-7.47519
-1.22463
0.00142306
-1.37507
0.973547
0.667954
-5.08469
-3.72513
1.97081
-0.0214801
-0.0850253
2.3517
1.39358
2.29043
1.61572
-1.50827
0.0181583
0.132193
1.64494
0.00224528
2.07212
1.28529
2.83301
-1.70941
2.23046
0.81381
2.87921
-1.15962
-1.03607
2.93131
-1.86713
1.25767
-5.81687
2.52335
2.83531
1.83363
-2.41624
1.70719
2.16614
-1.7837
0.849321
-2.15
2.31348
-2.08263
-0.356968
-4.98267
-4.93781
2.12703
0.790525
-4.99336
0.869191
2.82883
-0.660096
-0.132769
-4.91368
-1.35572
1.39549
-0.388678
1.64536
1.55641
-4.67339
3.15653
-0.19718
2.42786
2.37207
-0.44192
-0.0106013
1.46795
-2.29525
-0.533815
1.45514
1.24239
-0.501849
1.56322
-0.881939
2.5257
1.86302
0.657753
-0.0276341
1.85504
-0.368176
1.12783
2.217
0.363998
0.00773537
2.14673
1.77943
-1.14704
-3.90433
1.26093
1.86531
2.85276
-4.6254
3.01016
2.97348
3.05652
-0.139515
2.08638
-7.85549
1.7108
2.24826
2.21517
1.84643
2.45965
3.31824
1.52481
-4.94119
0.131918
-5.29662
3.2891
0.900158
-0.0546332
-2.85611
1.65531
2.51606
1.56242
0.586759
-0.306119
2.48532
-3.19041
1.78108
-3.0896
0.857062
-0.0988017
0.496493
1.08365
-7.03984
-7.12258
-0.209577
-0.980457
-0.0636292
2.04533
-0.235506
0.195128
1.54774
-6.49127
1.02239
-0.000984379
-5.70726
-6.97725
-5.15088
2.35242
2.54853
-2.33773
0.810147
2.17277
2.04022
0.0237965
-8.00416
1.82249
-5.061
2.32725
-4.97912
2.26668
1.15828
0.332819
2.1249
1.10644
2.19984
0.621634
0.877639
-1.13111
-3.82259
-7.9601
-0.195441
2.15869
-8.65992
-1.39066
-7.32813
2.45274
2.17486
0.719427
1.22767
2.44352
-2.50963
1.5817
-0.0800966
-1.17632
1.57534
-2.56265
-5.41528
-1.46178
-5.14038
-0.724031
-12.3822
-0.0965111
-5.68828
-3.96837
1.35837
2.89067
3.14389
2.74392
-9.824
1.80174
-7.94769
1.53615
2.4526
0.353458
2.11919
-6.17969
0.610881
-1.19342
-0.050155
2.30669
-1.00168
1.88982
-5.12524
-0.347288
-5.10763
1.9518
1.87362
1.71311
-6.43103
1.56763
-0.297164
-4.91181
-4.92452
0.567357
2.89974
-2.94767
-0.784588
-3.39683
1.60488
1.65256
-0.186621
1.13302
-6.0578
2.4791
2.29664
-1.12612
-0.274502
2.4011
-2.52215
-12.0985
0.0850532
2.20759
2.46953
-7.11962
1.1732
-0.0829489
2.84338
-5.26471
-2.62281
-0.073981
2.66189
0.0650599
-1.11904
-0.0885114
2.2882
1.39633
2.27156
-0.129829
-2.71398
1.85084
3.25548
-3.9441
1.4956
0.0183815
-4.17626
0.0488652
0.630029
-3.56884
1.14517
-0.923245
1.18103
-0.47891
-1.76877
2.07902
2.49129
1.55673
-2.15515
-2.40442
1.93632
-5.53442
0.60249
-1.12012
0.829189
-6.58267
1.87714
1.93934
0.00436798
1.82029
2.79971
-0.576493
1.34882
1.91985
-4.95656
1.12602
-0.640686
0.822128
0.580494
1.3939
0.00518094
0.591776
-0.539451
-2.76385
2.34103
0.6447
0.275004
-2.91387
-0.489237
1.76067
-6.53257
3.04416
-5.87026
-5.13469
-0.193087
2.1595
1.88688
2.23773
-4.71425
2.69561
-8.90335
1.30718
0.112131
-5.0022
1.60665
0.76964
-0.610691
1.12723
-5.37447
1.4253
-5.04576
-2.98788
0.00825079
-4.28229
-4.70786
1.47985
2.76398
-0.157964
-8.03452
2.14744
-2.98071
2.51163
0.743155
0.12271
1.07665
1.7299
0.870723
-0.21137
0.094975
0.0309542
0.534757
0.730722
-6.00919
-3.48169
0.0423396
0.970334
-0.0173002
3.30433
1.79451
1.70361
2.53979
0.388425
1.9038
-5.04015
-3.45846
-4.58417
1.7207
3.23094
1.54373
-1.13753
2.34339
1.56673
1.59026
-0.163525
0.0167373
0.891705
3.05944
0.0223802
-1.72952
2.3105
2.39276
1.75998
1.64546
2.03677
1.16531
-0.406367
-7.85326
1.82684
-4.38618
-3.7378
1.64105
-5.85473
-0.0547645
0.519584
1.80875
1.87903
1.90473
-0.0169414
2.23198
2.28665
0.372995
2.00376
1.74142
1.51491
1.3835
1.11664
0.852271
-0.197061
2.14856
1.99059
0.151132
1.51307
-0.042089
-0.0659318
2.74177
2.06777
0.0116872
-8.16585
0.200532
2.1316
1.17836
0.525394
-0.105036
0.190818
-1.20098
0.321371
-4.80022
-0.248862
1.21526
-0.418853
-5.33297
-6.42323
2.59007
-3.43958
-4.88381
-5.823
2.78047
-0.441395
0.425557
0.458004
-4.97858
1.42508
1.62121
1.03099
2.44257
1.32243
0.0953721
-5.1595
-7.7328
0.0255023
1.99668
0.183884
-7.36006
-4.92148
-1.00872
-5.2087
-5.05185
-3.10432
-0.48814
0.722033
1.69092
2.17571
-0.764741
-0.0897405
2.45146
1.86589
-6.99306
-0.0550049
-5.21174
1.00856
0.132166
0.920321
1.4867
0.0112581
-0.551188
-0.825422
0.565189
-9.20093
-5.09501
0.0525706
-7.49259
-5.21741
-5.10134
-7.28674
0.0830856
-4.67602
0.850059
-6.93431
1.69849
1.54233
0.453972
2.18585
-11.7222
2.77977
-1.4915
0.165059
-1.35774
1.64804
1.00735
-3.83999
-4.05797
1.75118
2.07164
2.88141
-8.45353
-5.21312
-10.8613
-0.437523
0.00760593
-5.84543
0.577749
-5.0806
0.979374
-7.81925
1.26245
0.138381
-0.247078
2.53216
1.46486
-0.92422
-0.0507427
-1.9781
-4.87604
2.22965
3.14633
-5.04668
2.0462
1.54947
0.00216496
-0.302555
2.12915
2.06325
-3.17855
-0.352659
-5.21517
-12.2197
-1.23976
-5.29594
-1.04899
1.21575
-0.0206101
1.89071
-7.44176
-5.1814
1.62062
-1.1056
-4.93728
0.190483
1.38445
-4.91057
-0.661169
-4.95339
-5.91488
-4.99376
2.92462
-3.94794
-0.21614
-8.63703
1.82666
-5.04802
-0.0811302
-3.14294
-11.2441
-1.15888
1.88454
0.00558766
-5.47686
1.43561
0.0163093
-1.90248
-5.38134
-6.74267
1.16884
1.35517
1.71217
-3.13124
2.50289
-1.30222
0.00401056
-0.580549
-2.54549
-8.55911
-6.09467
-4.85341
0.40992
0.800749
-0.142586
-0.253149
-1.87683
1.55191
-13.0209
1.79659
-7.80274
1.13943
-0.709243
-0.199934
0.111059
3.24275
-0.359825
-4.92021
-2.6389
-1.99222
1.71775
-0.210209
0.131584
0.0229825
-4.43819
-8.18005
-3.99734
-5.15157
1.82159
-6.92719
0.308878
-4.57066
-0.0244099
1.44044
-0.374552
0.723416
-0.669162
2.19417
-5.08351
-3.13199
2.35093
0.673396
-5.04478
-0.276705
-6.31908
-1.81748
-0.410995
2.14364
-3.44964
0.830671
-5.07402
-5.52585
-8.88745
-7.59782
-5.38622
0.967609
-0.495175
1.67936
0.759332
-10.0479
-0.352267
-10.0832
2.10186
2.4819
-4.95063
0.257596
1.78824
1.69517
1.29803
-4.17611
-4.79317
-4.23601
1.72524
0.578326
-2.21456
-6.78066
0.93273
2.03907
-0.183898
0.146581
0.173302
2.32245
-1.78435
-1.9189
-0.0820203
1.50263
0.296157
0.0883151
2.51883
2.10299
-0.158871
-7.76035
2.11514
0.933442
-0.0187183
1.53255
-1.1126
-4.71773
-4.72669
-6.55453
2.07781
1.77671
-0.336723
-1.15421
0.0493626
-0.0463701
1.81724
-8.94936
1.24666
2.20971
2.3687
-1.01945
1.67971
1.45807
1.85042
1.96397
-0.0773023
1.97438
0.00260989
1.71925
1.05405
1.83159
-6.97805
2.11551
2.00463
1.56354
1.20528
-2.79742
1.1625
-0.238833
-1.54722
2.2637
2.30327
-7.68017
1.9722
-5.47523
-4.16174
1.79915
1.8154
-3.03879
-0.0781973
-5.20023
-8.27019
-1.11785
-2.46524
-3.36111
-0.322747
1.51148
3.04622
2.10673
-0.900508
-1.19079
1.76742
0.972579
-0.413974
-5.09286
-2.34666
-1.85867
-4.18691
-3.82594
1.64758
0.0258388
0.923218
0.0262095
0.0254459
0.0455036
0.0273014
0.422383
0.839701
1.266
-1.40444
0.771939
-2.6311
-13.3138
1.1493
1.01365
-0.261214
0.0575576
1.22128
-0.146922
0.772627
-1.29687
1.68429
1.37296
2.66405
1.71055
-4.40451
-0.349091
-1.17278
-2.02065
-0.095234
-0.0768072
-0.396888
-7.38628
3.10141
0.0498078
0.0574837
2.47581
-3.61414
-0.8639
-0.289248
-7.21937
-4.68892
0.46275
-1.54702
1.61668
-0.541182
-3.94385
0.146529
-1.57321
-1.41244
-0.330015
-0.0270737
1.38356
-2.07546
-2.69397
-1.67334
0.666105
-1.98325
1.81361
2.54237
-1.95339
1.84949
0.936367
1.2924
2.8064
-4.26722
1.11532
0.882767
0.862077
2.39915
-0.279476
-0.433439
-0.276839
1.77793
2.53993
-3.41901
-0.0898391
-2.61589
-1.8944
0.963992
-3.17429
-2.58631
-2.53931
0.781745
-4.9572
0.389177
0.555054
1.53096
0.303661
-4.84377
-0.0141631
-0.152292
-0.293244
2.71042
3.0352
2.25001
3.2015
1.57124
0.948575
1.88294
1.62526
1.62987
-2.66395
1.70653
-0.344867
-4.11665
2.48373
-0.557812
-1.80615
2.91541
0.125419
-11.5598
0.989058
0.863564
2.06961
-2.32919
1.61005
2.71327
-3.80619
-4.19622
-2.16561
1.17188
-7.24936
2.15064
-0.128802
2.0831
1.70642
-2.90604
1.95599
-0.974968
-5.26161
-5.12325
-6.48817
2.01778
-2.09539
1.76657
-0.172897
-5.57058
-0.019358
-0.0129424
-1.30227
-3.09252
-4.55935
2.04925
0.432721
-4.97699
-0.558173
1.18995
0.457408
-8.98556
0.924434
-0.196994
0.93467
-4.9085
1.09922
0.546183
0.99654
-0.317821
1.55873
1.02572
0.61628
-5.1649
3.18304
-1.35731
-4.87028
1.56116
1.36986
-5.06657
-1.73686
-6.36248
1.02813
0.874145
-1.81799
-0.095229
-0.300927
3.17086
0.0404992
-3.78703
-0.0387568
-1.15393
1.13645