/*--------------------------------*- C++ -*----------------------------------*\
| =========                 |                                                 |
| \\      /  F ield         | OpenFOAM: The Open Source CFD Toolbox           |
|  \\    /   O peration     | Version:  2306                                  |
|   \\  /    A nd           | Website:  www.openfoam.com                      |
|    \\/     M anipulation  |                                                 |
\*---------------------------------------------------------------------------*/
FoamFile
{
    version     2.0;
    format      ascii;
    arch        "LSB;label=32;scalar=64";
    class       surfaceScalarField;
    location    "6.4";
    object      phi;
}
// * * * * * * * * * * * * * * * * * * * * * * * * * * * * * * * * * * * * * //

dimensions      [0 3 -1 0 0 0 0];

oriented        oriented;

internalField   nonuniform List<scalar> 
20045
(
0.245212
-0.26692
0.0217084
-0.530358
0.18667
0.343687
0.197322
0.979798
-1.17712
-0.0461047
0.0843865
-0.0382818
-0.422443
0.408593
0.0138501
-0.303309
1.12981
-0.826503
-0.505744
0.215265
0.29048
0.0322885
0.216455
-0.248744
0.240363
0.204346
-0.444708
-0.418532
-0.0490947
0.467627
-0.16579
-0.194215
0.360005
1.13188
-0.541886
-0.589998
0.173725
-0.176566
0.00284081
-0.641714
0.556119
0.0855951
-0.160088
0.528534
-0.368446
-0.544657
0.126125
0.00676438
-0.0379478
0.0311835
0.338696
-0.285264
-0.0534319
-0.833442
1.22944
-0.396
-0.374594
0.0265501
0.348044
-0.0559323
0.00857325
0.0473591
0.0576452
0.11608
-0.0625761
-0.467781
0.407926
0.568433
-0.976359
0.410154
0.11174
-0.521894
-0.589276
0.997202
-0.0256017
0.0295622
-0.00396048
-0.6654
1.25717
-0.591773
0.864467
0.132233
-0.996699
-1.24075
0.680037
0.56071
-0.194925
0.0606708
0.134255
0.714717
-0.505589
-0.209128
-0.391538
0.839888
-0.448351
1.19776
-0.699616
-0.498144
-0.278435
0.310723
1.04922
-0.511911
-0.537314
0.71417
0.0568885
-0.771058
-0.0295735
0.183017
-0.153444
-0.956051
0.434928
0.521123
0.295906
0.26137
-0.557276
0.0238256
0.200462
-0.224288
0.0630579
-0.090503
0.0274451
1.07005
-1.07157
0.00151699
0.746565
-0.280594
-0.465971
0.350333
0.396232
0.512675
0.61921
-0.12709
0.111271
0.0158183
0.641077
0.268471
-0.909547
0.857572
-0.143402
0.0823124
0.976918
-1.05923
0.650427
-1.09979
0.44936
0.88116
-0.636039
-0.245121
-0.594375
-0.423303
1.01768
-0.0457447
-0.148794
0.194539
0.375625
-0.136807
-0.238818
-0.346146
-0.0762968
-0.0837016
0.842752
-0.75905
0.76363
0.0769656
-0.840596
0.548809
-0.940347
0.975555
-0.585056
-0.390499
-0.146414
-0.167794
0.314208
0.467646
0.507909
0.266535
-0.886016
0.61948
0.0250221
-0.0809545
0.709113
-0.160762
-0.548351
0.816133
0.0454028
-0.861535
0.0530677
-0.0973482
0.0442806
-0.333913
0.0836312
0.250282
0.423801
-0.183438
0.839382
-0.852739
0.0133572
0.0937353
-0.0406676
-0.00226635
0.377891
-0.12608
-0.521274
0.647353
0.0731813
-0.139132
0.0659509
0.906456
-0.227287
-0.679169
0.677472
-0.761174
0.0462484
0.860207
0.219721
-0.379809
0.0298418
-0.197535
0.167694
0.17717
-0.610074
0.432904
0.520987
0.598048
-1.11904
0.449401
-0.346287
-0.103114
0.720328
-0.453793
-1.32477
0.243553
1.08122
0.00978107
0.23543
-0.275178
0.309315
-0.0341362
0.284159
-0.661875
0.377716
-0.803624
0.035794
0.76783
0.518156
0.0742796
-0.592436
-0.424014
0.392519
0.0314948
-0.71968
-0.104962
0.824641
0.363116
-0.0661147
-0.297001
0.199555
-0.284417
0.0848617
-0.0797305
-0.405866
0.485596
0.290199
-0.310874
0.0206744
0.758826
0.184391
-0.943217
-0.063595
0.0379932
-0.0858338
0.158029
-0.0721952
0.607865
-0.31196
0.013576
-0.0551892
0.0416132
0.707575
0.34165
-0.228107
-0.413607
0.0729626
-0.158796
-0.163526
0.927156
-0.00371641
-0.271462
0.0585528
-0.0449768
0.230323
0.602296
-0.832619
0.522796
-0.881193
0.358397
-0.097248
-0.208124
0.181379
0.0267454
-0.0984121
0.125698
-0.0272858
0.616635
-0.454142
-0.162493
-0.244227
0.198483
0.639763
-1.12893
0.489168
-0.0825609
0.155122
-0.0725606
0.0225113
-0.121957
0.0994452
0.581191
-0.171036
0.863526
0.334234
-0.584414
0.458334
0.685565
-0.944114
0.258549
0.251325
0.0873713
-0.335955
0.189541
-0.384374
0.310018
0.0743557
-0.433256
0.0494269
-0.291177
0.24175
0.619401
0.26176
0.553499
-0.714498
0.160999
0.814131
0.0931651
-0.907297
-0.98792
0.741274
0.246646
0.00867862
-0.591107
0.582428
0.926915
-0.307514
0.140447
-0.0291753
0.134275
-0.0667523
-0.0675229
-0.0533975
0.0402373
0.0131602
0.569607
0.402207
-0.971814
0.597595
-0.57977
-0.0178248
-0.174771
0.107167
0.0676034
-0.149368
-0.0587561
1.06507
-0.37951
-0.324364
0.343557
-0.0191929
0.645251
-1.14708
0.501827
0.174901
-0.769276
0.564497
0.225991
-0.790488
0.683377
-0.506207
0.965956
-0.13141
-0.834547
0.540661
-0.955789
0.415128
1.03812
-0.672331
-0.365789
-0.126631
0.234045
-0.107414
-0.0196185
1.08361
-1.06399
1.07678
-0.212309
-0.826144
0.0274428
0.798701
-0.476601
0.413546
0.0630551
1.00592
-0.484931
0.171091
0.27831
-0.633733
0.781142
-0.147409
-0.837332
1.03465
0.010449
-0.153014
0.142565
0.00551257
-0.00361791
-0.00189467
-0.017212
-0.184649
0.201861
1.18438
-0.463933
-0.720448
1.36833
-0.682369
-0.685964
-0.219515
0.202303
0.340588
-0.660946
0.320358
0.0741898
-0.0111319
-0.799565
-0.471193
0.692605
-0.221412
-0.675033
0.48975
0.185283
-0.0125595
-0.0206967
0.0332562
0.477489
0.560631
-0.0278817
-0.0255157
0.0110628
0.123212
-0.711242
0.0775087
-0.732787
0.932209
-0.199423
-0.660897
0.755589
-0.0946915
-0.590329
-0.430531
1.02086
-0.344877
0.308108
0.0367688
0.459881
-0.471741
0.0118604
0.952282
0.0552137
-1.0075
0.0162983
-0.75933
0.743032
-0.361692
0.926188
0.190326
-0.541148
0.350823
-0.473805
1.11357
-0.828374
0.542688
0.285685
0.240072
-0.26191
0.0218387
0.497415
-1.26945
0.772031
-0.991345
0.325945
-0.609556
-0.427664
1.15695
-0.696651
-0.460301
-0.268492
0.292317
0.122669
-0.129679
0.00700971
-0.761483
-0.134474
0.895956
-0.879058
1.23288
-0.353819
0.909333
-0.672668
-0.236665
0.0873903
-0.251841
0.16445
-0.283864
-0.460575
0.74444
0.217502
-0.383292
-0.540283
0.548961
-0.695473
-0.225784
0.921257
0.0881
0.0242384
-0.112338
0.142573
-0.613766
-0.0527456
-0.14218
0.874181
-0.0600496
-0.137777
0.108204
-0.130202
0.15897
-0.0287685
0.281451
0.90293
-0.798457
0.514593
0.184088
0.0286929
-0.212781
-0.70059
0.134352
0.566239
0.283019
0.626313
1.33297
-0.835559
0.763927
-1.30995
0.546021
0.249287
-0.959649
0.710362
0.0295256
-0.404119
-0.485408
0.715731
0.662401
-0.965709
0.389787
-0.792259
0.402472
-1.34623
0.768348
0.577886
-0.0144791
-0.409535
0.178124
0.137512
-0.315636
0.734537
-0.236945
-0.497592
-0.0484249
-0.752115
0.732496
-0.250497
-0.0738673
0.672859
1.06751
-0.860349
-0.207158
-0.0102137
-0.124455
0.134669
0.676708
0.122996
-0.799704
0.286723
-0.288603
0.00187997
-0.200529
0.723884
-0.523354
-0.447435
0.731594
0.563092
-0.372767
-0.0560175
0.16147
-0.105452
0.967965
-0.322714
0.0871099
-0.00810413
-0.0790057
0.0570628
-0.17285
0.115787
-0.101958
0.105851
-0.00389334
1.14143
-0.719894
-0.421538
0.243577
-1.12264
-0.11139
0.00943197
-0.873966
0.283586
0.590381
1.25897
-0.419081
0.248254
-0.98104
1.3296
-0.590388
-0.739217
-0.0115815
0.0996816
0.811403
-0.429787
-0.381616
-0.610767
0.141217
0.46955
-0.938257
0.944375
-0.0061186
0.340949
-0.968482
0.627533
0.0342682
-0.0439184
0.00965016
-0.466423
0.632512
-0.166088
-0.134503
0.316327
-0.181824
-0.140687
0.058126
-0.114297
0.0158851
-0.546002
-0.335191
0.413424
-0.817152
0.403728
0.17159
0.159144
-0.330734
0.407486
0.307231
0.719218
-0.329431
0.00198349
0.00352908
0.710469
0.5485
-0.489546
0.0111349
0.478411
0.336889
0.474514
0.380956
0.147578
-0.0903798
0.26197
-0.282842
-0.0219688
0.304811
-0.0189495
0.259021
-0.766753
0.566224
-0.146916
0.0523646
0.0945515
-0.928317
0.891695
0.0366225
-0.335154
0.530033
-0.194878
-0.22106
-0.10443
0.32549
0.765189
-0.828375
0.0631865
-0.81842
-0.527814
1.29023
-0.819869
-0.470363
-0.0912115
0.0809978
1.05968
-0.718734
-0.427023
0.840447
-0.235401
-0.127042
0.362443
0.840521
-0.200913
-0.639608
1.13441
-0.307407
-0.827008
-0.403043
0.167642
0.831106
-0.492229
-0.338878
-0.15766
0.781099
-0.623439
0.598434
-1.07652
0.478087
0.267244
0.0849532
-0.352197
-0.00170075
-0.0062741
0.00797485
1.27464
-1.04834
-0.226297
-0.517067
-0.470853
0.709421
0.358086
-0.84719
-0.0811277
0.111748
-0.0546849
0.100569
-0.59616
0.495592
0.00385562
0.118814
-0.540033
1.10964
0.444592
0.69684
1.25965
-0.762476
-0.497172
-0.775273
0.549489
0.72194
-1.20845
0.486513
-0.627656
-0.0378862
0.665542
-0.234432
-0.172565
0.406998
0.545512
-0.204924
-0.0160347
0.200123
0.462083
-0.0297649
-0.475825
-0.686622
0.921315
-0.234693
-0.149616
0.0194143
-0.0657962
0.00977873
0.116817
-1.05507
0.347015
-0.79445
0.0960893
-0.192707
0.265346
-0.0726392
0.011358
-0.0574627
-0.504459
0.381502
0.122957
0.349214
0.267421
0.372983
0.16053
-0.533513
0.493403
0.104192
-0.48639
0.586958
0.571195
-0.0530392
-0.204351
-0.496239
1.04707
-0.817672
-0.229399
0.873021
-0.74583
0.248384
0.497445
0.799415
-0.864581
0.0651662
-0.433425
0.353694
-0.109909
-0.0648624
-0.119187
-0.600493
0.28501
-0.538948
0.253938
0.416879
0.414228
0.702917
-1.14157
0.438655
0.226759
-0.533289
0.30653
-0.972397
0.168773
0.0118673
0.351249
-0.573867
0.871881
-0.298013
-0.255132
0.302642
-0.0475097
-0.405502
-0.100242
-0.122746
-0.224779
0.347526
0.0781584
0.000928386
-0.0790868
-0.326778
-0.149823
0.376998
0.445183
-0.822181
0.74746
-0.410571
0.280318
-0.449637
0.0162125
0.461397
-0.234638
-0.664205
-0.164169
0.265069
-0.352743
0.0876742
0.976295
-0.335218
-0.460534
0.749906
-0.289372
-0.111238
0.12846
-0.0172222
0.744323
-0.00978572
-0.190433
-0.405727
-0.505168
0.925395
-0.420227
0.631579
-1.13892
0.507343
0.592339
0.697894
0.0555086
-0.0926592
0.0371506
0.0861356
-0.713792
0.667133
-1.0078
0.340666
0.0918766
-0.0186952
-0.0782091
0.631708
-0.355066
0.702081
-0.67442
0.923707
0.190094
-1.02354
-0.8842
0.486661
0.397539
0.635514
-0.0985621
-0.536952
0.934291
-0.169103
-0.472399
-0.531503
-0.471216
0.539754
-0.0376379
0.187784
-0.150146
0.315188
-0.288637
-0.715481
0.637272
0.844681
0.22537
-0.7857
0.325166
1.05551
-0.346089
-0.141309
0.308119
-0.16681
0.0181688
-0.629364
0.611195
-0.902359
0.170068
0.73229
0.726289
-0.726289
-0.281948
0.698287
-0.416339
0.58702
-0.214037
0.681709
-0.380051
-0.301658
-0.957248
0.991027
-0.0337786
0.334871
-0.0438297
-0.291041
0.256282
-0.106292
-0.14999
0.104809
-0.325869
0.102809
0.454575
-0.881597
-0.859459
1.01295
-0.153487
-0.282857
0.659855
0.110353
-0.00120633
-0.109146
-0.103906
0.0672826
0.0366236
-0.374518
0.404043
1.19767
-0.970892
-0.226773
-0.0830089
-0.52781
0.610819
-0.223011
0.24411
-0.0210992
0.117136
-0.272111
0.154975
-0.994365
0.377632
0.616733
0.0451607
0.0392257
-0.273864
0.132556
0.0289169
-0.106618
0.0777012
0.588435
0.686204
0.0930626
0.0172902
-0.043144
-0.293135
0.336279
-0.508604
0.805026
-0.296423
-0.00405717
0.0778961
-0.0738389
0.428254
-0.212989
0.715167
-0.227483
-0.487684
0.00651778
-0.412384
0.119464
0.832818
0.430598
0.296402
-0.727
0.458665
-0.410575
-0.0480902
-1.01274
0.186592
-0.42457
0.174458
0.250111
0.472392
0.61595
-1.08834
-0.626115
0.588229
0.0448493
-0.913714
0.868865
-0.121256
0.208647
0.24256
-0.275475
0.0329154
0.0223043
-0.305147
-0.0054939
0.0348288
-0.0293349
-0.672725
-0.201241
0.618594
0.0749488
0.00934638
-0.0842952
-0.11541
0.00417179
0.171113
-0.709623
0.53851
0.236836
0.546032
-0.782869
0.394475
-0.713956
0.871473
-0.157516
-0.716069
0.558409
0.0346303
-0.00506804
-0.393313
-0.28172
-0.248118
0.065934
0.182184
-0.875176
0.366572
0.669854
-0.752863
0.432926
0.622583
-0.297837
0.300729
-0.00289222
0.39767
-1.03141
0.633738
0.144616
-0.26079
0.116174
0.42176
-0.612193
-0.637699
-0.023198
-0.302607
-0.0313063
0.0670731
-0.041959
-0.0251141
0.379246
-0.00490695
-0.0264386
0.0313455
1.02449
-0.552101
-0.469927
0.867976
-0.398049
0.261098
0.176947
-0.438045
-0.363546
0.24229
-0.205993
-0.0421251
0.42942
0.252289
-0.206392
-0.737722
0.365268
-0.1002
0.616297
0.403891
0.167304
-0.934721
1.01703
0.117617
-0.469175
0.351558
-0.0855655
-0.828128
0.913694
-0.218318
0.221983
-0.00366579
-0.187136
-0.157741
-0.500904
1.09934
1.00201
-0.461346
-0.435307
-0.0691517
0.0101809
-0.40863
0.39845
0.407612
-0.997942
-0.126681
-0.47047
0.597152
-0.0559882
0.0617413
-0.00575305
-0.652009
0.0553266
0.596682
0.95427
-0.6858
-0.0180576
0.078145
-0.0600875
-0.207341
-0.0156696
0.17803
0.357551
-0.53558
0.0957353
-0.121116
0.0253811
0.613915
0.35409
-0.968005
-0.383208
1.14203
0.0762057
0.00195269
-0.269478
-0.576082
0.845561
0.34527
0.719804
0.942941
-0.706105
-0.342752
0.220006
-0.0332846
0.0315838
-0.448147
1.17009
0.137354
-0.767946
0.630592
0.9081
-0.14461
-0.76349
-0.483828
0.715166
-0.231338
0.396089
-0.424377
-0.445296
0.869673
0.0606821
-0.0922176
0.0315355
-0.28547
-0.484676
0.770147
-0.0504511
-0.0534551
0.0267069
-0.0392664
0.505514
-0.790984
-0.707502
-0.20643
0.913932
-0.0668101
-0.475615
0.542425
0.217729
1.20444
-1.22519
0.0207536
0.203884
-0.148213
-0.0556706
0.00605272
-0.30389
0.257665
0.227932
-0.313101
0.0786683
-0.815936
1.02485
-0.208919
-0.165534
0.0186179
0.301467
0.38191
-0.822968
-0.2486
-0.0126001
-0.0287594
0.0413595
0.534118
-0.130227
-0.192944
0.212801
-0.0198565
0.167551
-0.302055
-1.17834
0.568779
0.942005
0.187807
-0.127985
0.245121
-0.196364
0.457462
0.863212
-0.408637
-0.200277
0.00733335
-0.104026
-0.611455
0.208777
0.205385
-0.194936
-0.918565
0.0162066
0.0055689
0.204804
-0.0601881
-0.952462
0.649114
0.303349
0.705798
0.133584
0.178693
-0.0569138
-0.121779
0.27452
-0.256384
-0.0181364
-0.792378
0.280466
-1.02845
0.523279
0.0290809
0.161151
-0.190232
-0.0471004
0.196722
-0.149622
1.02105
-0.00200793
-1.01904
0.140645
0.00789752
-0.148542
-0.134582
-0.249792
0.217708
-0.018153
0.181932
-0.171494
-0.010438
0.382949
-0.0576613
-0.325288
0.0269546
0.154978
0.8393
-0.654908
-0.028378
-0.137175
0.165553
-1.02059
0.20465
-0.0193504
-0.137016
0.209979
-0.0575307
0.13248
0.00238624
-0.00040275
0.239033
0.155866
-0.394899
0.512821
0.196292
0.442269
-0.324652
0.187858
-0.165347
0.0613095
-0.316442
0.623284
-0.0071509
-0.616133
0.530986
-0.0319544
-0.499032
-0.588132
-0.367658
-0.204784
-0.120849
0.325633
0.402586
-0.43505
0.0324641
1.11295
-0.0406674
-1.07228
-0.330027
-0.032824
0.362851
-0.493411
0.656482
-0.163072
0.569578
0.663647
-1.23322
0.132853
-0.300647
-0.264923
0.424721
-0.159798
0.207692
0.0953806
-0.303073
-1.10699
0.600755
0.506232
-0.14599
-0.0255044
-0.844022
0.13652
0.291345
-0.181199
-0.110146
0.488018
-0.615767
0.127749
-0.0810068
-0.185913
0.188464
1.01597
0.82004
-0.13433
-0.68571
-0.84874
0.134784
0.338074
-0.542424
0.732272
-1.15078
0.418505
-0.0945984
0.272723
-0.00808637
-0.386689
0.343545
-0.156576
0.206003
-0.128265
-0.786998
0.915263
0.451754
0.607929
-0.744506
0.773423
-0.0289168
0.0463435
0.0207296
-0.616115
-0.258737
-0.108289
0.120791
-0.0125016
0.419805
-0.280077
-0.139729
0.0252356
0.0168507
-0.0420863
-0.067791
0.555809
-0.776984
-0.102089
0.879073
-0.722629
-0.246978
0.969608
0.47462
-0.347577
-0.127043
-0.165684
0.0185735
0.14711
-0.329121
0.0492829
0.279838
-1.01477
0.0440664
0.970709
0.0270169
0.176588
-0.203605
0.808308
-0.907623
0.0993149
-0.519995
0.938112
0.0986216
-1.03673
0.0102833
-0.118573
-0.133359
-0.55206
0.685419
0.605958
-1.07976
-0.948329
0.82335
0.124978
0.111157
-0.0154215
0.702383
-0.400916
-0.0465122
-0.248532
0.295045
-0.00819705
0.121528
-0.113331
-0.206595
0.918433
-0.711838
0.772134
-0.411694
-0.36044
1.03641
-0.980578
-0.0558283
0.793072
-0.304043
-0.489028
0.0441483
-0.214398
0.170249
-0.280394
-0.0107828
-0.921671
0.810963
0.110708
0.0538359
-0.975507
-0.287779
0.517592
-0.229813
-0.593702
-0.45464
0.177038
-0.155285
-0.0217526
-0.798618
-0.221967
-0.168273
0.110691
0.0575821
0.112947
0.173776
-0.884158
0.852257
0.031901
-0.178462
-0.120466
-0.0186667
0.15198
-0.0113347
-0.601996
0.135573
0.121197
-0.148338
0.0271417
-0.820466
0.40092
0.419546
0.352687
-0.0178166
-0.248279
0.676036
0.0682873
0.351918
0.0174763
0.222091
-0.239567
-0.087975
0.547856
-0.600552
0.388917
0.211635
-0.190603
0.0446131
1.0364
-0.584649
0.882611
-0.484941
-0.245566
-0.153806
0.399372
0.429463
-0.880074
0.450611
0.544664
-0.611474
0.979788
-0.431852
-0.547936
-0.00339314
-0.507973
-0.0925798
-0.927117
0.80113
0.125987
0.103335
-0.315887
1.07981
-1.06756
0.268943
0.362115
-0.0948705
-0.0902392
0.0459527
0.108733
-0.00288209
-0.49386
-0.511005
1.2447
-0.567224
-0.159996
0.304774
-0.144778
0.0615778
0.194705
-0.664202
-0.385906
1.05011
0.216198
0.329314
-0.00295411
-0.130453
0.133407
0.820495
-0.253476
-0.023433
0.276909
0.6304
-0.00711655
-0.355101
-1.03094
0.17148
-0.200763
0.00907275
0.19169
0.574414
0.755191
0.488845
-0.284219
-0.204626
0.981723
0.0546838
0.604899
-0.854743
0.249844
-0.831242
-0.0114311
0.842673
-0.750581
0.97647
-0.225889
0.124716
-0.00437425
-0.120342
-0.454196
1.06015
-0.321998
0.0754709
0.246528
0.0207514
-0.765257
0.135459
-0.0397231
-0.0957359
-0.955854
1.2429
-0.287045
-0.235195
0.529768
-0.294573
1.16155
-0.51093
-0.650621
-0.0091383
-0.59385
0.602988
-0.244932
-0.0305432
-0.526644
1.09622
0.415232
-0.69718
1.11559
-0.484009
-0.172403
0.144025
-0.869119
0.0378773
1.20591
-0.502993
-0.0261858
-1.29859
0.221261
-0.0207986
0.323323
0.518606
-0.841929
0.544598
-0.118795
-0.425803
0.908411
-0.968056
0.0596451
-0.122432
0.00915811
0.113274
-0.194863
-0.474516
0.669378
0.33887
-0.277561
-0.361005
0.121921
0.239084
0.121275
0.28965
-0.410925
0.0744197
0.102618
-0.876184
1.02566
-0.149472
-0.180703
-0.0376144
0.445543
0.197002
-0.642545
0.570517
0.495008
-1.06553
0.148741
0.486773
-0.0167155
0.982672
0.003128
0.78335
-0.786478
0.003351
-0.00740817
0.0843629
-0.00206253
-0.0823004
0.974358
-0.899968
-0.0743898
0.448235
0.531553
-0.0698966
0.0326629
0.0372337
-0.288575
0.804866
-0.516291
0.0135444
0.141424
-0.154968
0.501334
-0.839548
0.338214
-0.460129
-0.565523
1.02565
0.841065
-0.164357
0.300377
0.244221
-0.420445
-0.0937901
0.514235
0.280915
-0.808726
-0.0522428
-0.229227
0.281469
0.17484
-0.0752153
-0.0996252
-0.00196778
-0.242964
-0.0709243
0.61677
-0.545846
-0.144361
1.12128
0.77038
-0.617146
-0.153234
0.617231
-0.542952
-0.519612
0.152634
0.366978
0.102639
-0.48269
0.0211687
0.0378987
-0.0590674
0.0529511
0.125742
0.137264
0.735212
-0.872476
0.204105
0.178844
0.120515
-0.843144
-0.417382
0.166358
0.251024
-0.317244
-0.231098
0.548342
0.46366
-0.224627
-0.839995
0.557138
0.262998
-0.212657
-0.0503407
-0.461083
0.833543
-0.372461
-0.42621
0.432728
-0.424638
0.543814
-0.119176
-0.56042
0.883804
-0.323383
-0.0200944
0.191188
-0.171093
-0.209049
0.161948
-0.290926
-0.57575
0.884539
-0.30879
-0.540706
0.675058
0.499667
-0.501991
0.00232353
0.261611
-0.114913
-0.146698
-1.25513
0.846077
0.409058
-0.0103049
0.232614
-0.222309
0.0461908
0.68904
-0.895635
0.82594
-0.396478
-0.358335
-0.525865
-0.696734
0.699862
0.499836
-0.0100859
0.387926
0.125431
-0.513356
-0.312143
0.286754
0.0253892
0.120685
-0.168025
0.0473396
-0.114404
-0.361003
0.475407
-0.151974
0.490128
-0.338154
-0.754556
-0.251583
1.00614
0.0641223
0.197488
0.80471
0.169647
-0.792811
0.541658
0.251153
0.0781641
-0.282785
0.204621
0.00326559
0.160441
-0.210616
0.0501754
-0.649095
-0.572843
0.458439
0.121762
0.184566
-0.140418
0.299741
0.120064
0.0142493
-0.605356
0.0266783
0.263521
0.125398
0.0337673
-0.159166
-0.604967
-0.471751
1.07672
-0.0775286
-0.342917
-0.506624
-0.0979907
0.604614
0.125636
0.173758
-0.299395
-0.00921443
1.13114
-0.73871
-0.392431
0.168099
0.651941
0.0865093
0.301841
-0.42545
0.123609
-0.451573
0.972586
-0.521013
-0.56847
-0.250637
0.819107
-0.437136
0.172213
-0.412714
-0.106897
0.880266
-0.426137
-0.454129
0.278955
-0.284078
0.00512316
0.386017
0.0444404
-0.430458
-0.15141
0.178427
0.318015
-0.395017
0.0770013
0.237308
-0.023414
-0.196101
-0.00671333
0.471984
0.408282
-0.373203
0.808131
-0.400039
1.08008
0.110777
0.168178
-0.857675
0.289205
0.712372
-0.626236
-0.0938537
-0.614597
0.121187
0.205465
-0.493244
0.721141
-0.702972
0.816012
-0.0165974
-0.184264
-0.100153
-0.283538
-0.0668869
0.350425
-0.277758
-0.0331161
0.705627
0.14997
-0.855597
0.0305935
-0.242478
0.211885
0.00361521
0.323817
-0.801908
0.478091
0.873653
-0.065345
-0.954594
1.01187
-0.057273
0.205365
-0.121734
-1.08177
-0.173368
-0.33005
0.840073
-0.0291098
0.402129
1.1216
-0.41263
-0.708968
-0.633531
-0.0429734
0.676504
0.197377
0.509987
-0.707365
-0.681974
0.0299651
-0.160354
-0.14832
0.308674
-0.463149
0.600503
0.126612
0.51499
-0.641603
-0.153247
0.199349
-0.0461028
-0.960083
0.108828
0.851255
0.318495
0.507446
-0.22051
0.55605
0.237022
-0.301385
-0.123185
0.770674
-0.902083
-0.118099
-0.39541
0.513509
0.271892
-0.139039
0.665459
0.0470734
-0.712532
0.696786
-1.09683
0.0114176
0.0228506
-0.441868
0.594413
-0.152544
-0.67134
0.537981
-0.0151196
0.261509
-0.246389
-0.379545
0.172086
0.207459
0.149379
-0.336515
-0.241842
0.579915
0.168597
-0.139517
-0.137064
0.147347
0.0433888
-0.331992
0.0153603
-0.0592787
-0.170487
0.164303
0.00618484
0.184463
-0.208904
0.0244409
-0.669591
0.442305
0.131218
-0.637842
-0.0129281
-0.255564
0.0264617
0.535271
-0.561733
0.30396
-0.325929
0.178258
-0.79507
0.616812
-0.28395
0.713045
-0.429095
0.187399
-0.874021
-0.101202
-0.0256244
-0.922704
0.55248
0.692216
-0.73939
-0.100605
-0.498323
-0.247507
-0.38748
0.162701
0.130497
-0.0222102
-0.108286
1.19322
-0.618805
0.870023
-0.202889
-0.222932
-0.140069
0.363001
-1.14497
0.480397
0.664578
-0.397668
0.203453
-0.0624013
1.00051
0.143602
-0.085957
-0.428944
-0.151056
-0.170943
0.36197
-0.321342
-0.0406272
-0.114945
0.820572
0.018115
0.237261
-0.255376
0.670144
-1.28867
0.585
0.703672
0.222323
0.19109
-0.413412
0.592574
-0.272242
-0.320332
-0.496532
0.261337
-0.701045
0.0162979
0.369719
0.885944
-0.971509
0.379077
-0.171384
-0.394069
0.674984
-0.891537
0.63495
0.256587
0.542177
-0.882604
0.340427
-0.687436
0.720903
-0.0334672
0.423372
-0.511347
0.01253
0.234636
0.239985
0.110612
-0.720686
0.294519
-0.965311
0.507461
0.45785
0.233826
-0.867357
0.714924
-0.0454209
-0.565346
0.132371
0.144805
1.01339
-0.333338
-0.680047
-0.287531
0.246415
-0.56366
0.134741
-0.958455
0.915482
-0.771216
0.346839
0.469061
-0.709013
0.37992
0.329093
-0.824335
0.536375
0.28796
-0.241427
-0.0219604
-0.0340278
-0.995346
0.69481
0.300536
0.603723
-1.05792
-0.863137
-0.013047
1.13669
-0.404416
0.267481
0.0881026
-0.355584
-0.0195761
-0.121498
0.141075
-0.26378
0.474415
0.527977
-0.432186
-0.276827
0.167888
0.170983
0.223078
0.331594
-0.554672
0.346895
-0.209383
-0.0439958
-1.06638
1.11037
-0.310021
0.409375
-0.771067
-0.565269
-0.409415
0.974684
0.231291
-0.297405
-0.648964
0.200868
0.448096
-0.00927172
-0.00505366
0.0143254
0.734281
-0.862546
0.0575652
-0.499433
0.472364
0.424219
-0.896583
-0.290548
0.130552
-0.791404
0.220525
0.57088
-0.987866
0.527738
0.523415
-0.974989
0.514704
-0.632803
-0.010025
0.000753253
-0.0293653
0.937465
-0.587736
0.725697
-0.137961
0.882192
0.000665086
-0.882857
-0.678829
-0.0115892
-0.181118
0.0642631
0.662026
0.101358
0.0271025
0.282981
0.345816
0.241204
0.481805
-0.0318145
0.1525
-0.829738
-0.0544201
-0.645666
0.28952
-0.719307
0.155052
0.177593
-0.332645
0.791397
0.0462645
-0.837662
-0.0889392
0.084565
-0.324365
-0.704082
-0.757719
-0.106862
-0.421824
1.11861
-0.315795
0.42798
-0.112185
-0.87634
0.271373
-0.25764
0.480718
-0.32223
-0.630232
-0.396518
-0.308076
0.319936
-0.560789
-0.259678
0.963493
-0.12342
0.602971
-0.28926
-0.313711
0.0798612
0.0816086
0.226375
0.985173
-0.940324
0.0101214
-0.204679
0.289541
-0.471318
0.482453
-0.419295
-0.499177
0.199383
0.156504
-0.355886
-0.763725
0.0374364
-0.107986
0.729501
-0.621516
-0.070959
-0.883635
-0.679025
0.802021
1.35833
-0.583733
-0.774594
-0.13562
0.310078
0.78494
-0.42154
-0.3634
0.236275
-0.259689
0.0437778
0.0405851
-0.196937
0.0526254
0.144312
-0.115352
0.503278
-0.464557
1.06828
-0.030121
-0.125164
-0.2517
-0.0685736
0.320274
-0.0154786
0.749759
0.0657988
0.453183
-0.518982
-0.357244
0.535274
0.411091
0.393775
-0.323064
-0.0943181
0.479808
-0.176277
-0.303531
-0.0707291
0.0590505
0.0116786
0.134485
-0.77772
0.643235
-0.87976
0.122041
0.196746
-0.432228
0.721748
-0.00695054
0.243226
0.107941
-0.423735
-0.947703
0.476487
-1.01397
0.331602
-0.412266
0.0377487
-0.398315
-0.544747
0.943061
-0.872196
0.131777
0.208766
-0.340544
0.985968
-0.742415
0.762848
-0.565471
0.151988
0.494271
-0.64626
0.205694
-0.366048
-0.64118
-0.141795
0.782975
0.0467714
0.121302
-0.168073
-0.460318
1.01343
-0.55311
0.770934
-0.488156
-0.282778
0.69974
0.0209623
-0.720702
-0.529677
-0.758995
-0.298191
-0.00441603
0.343779
0.583136
-0.0132983
0.0736049
-0.0603066
-0.639794
-0.151611
0.661047
0.568395
-0.501134
0.596407
-0.0952726
-0.301132
0.277699
-0.0155517
0.331054
-0.315502
0.227127
-0.209012
-0.114423
-0.880923
-0.805431
0.253065
0.0099333
-0.18333
0.130585
0.06714
0.696948
-0.764088
-0.475505
-0.126491
0.450148
0.297312
0.0621896
-0.211558
0.0144935
0.171341
-0.185834
0.0885318
-0.337117
0.248585
0.273608
0.256425
0.199964
0.778137
-0.361258
0.846249
-0.436874
-0.0963003
-0.228408
0.324708
0.710726
0.0703731
0.0321275
-0.626154
0.431291
0.346013
-0.361492
-0.512091
-0.551407
1.0635
-0.621365
-0.52361
-1.05691
1.10198
-0.0450657
0.208768
-0.354509
0.287622
0.521896
0.256241
-0.177393
-0.018493
0.195886
-0.285501
-0.567238
-0.0536238
-0.668736
0.72236
0.422902
-0.206704
0.199994
-0.252236
0.550526
-0.874891
0.446009
-0.334269
-0.496829
1.30629
-0.809458
0.576084
0.472378
0.275123
-0.747501
1.07141
-0.629013
-0.442401
-0.460891
-0.656637
1.09677
-0.440129
0.310094
0.292877
-0.254002
0.247051
0.398828
0.762723
-0.182122
0.162546
0.023159
-0.0280659
0.902019
-0.499812
0.435036
0.758182
-0.363736
0.187253
0.176483
0.203432
-0.448998
0.712985
-0.0475259
0.450391
-0.18291
-0.649662
-0.112611
0.762273
0.161609
-0.0316388
-0.12997
0.113795
0.0900889
0.129617
-0.880198
-0.252454
0.274758
0.656133
-0.571245
-0.0848872
0.145716
0.334092
-0.124314
0.0674001
0.220167
0.214629
-0.434796
-0.472723
1.02153
0.0755473
-0.540612
1.11153
-0.570922
-0.275648
0.396923
-0.140851
-0.0123958
1.04944
-0.518203
-0.328987
0.305005
0.287568
0.267174
-0.280102
-0.137454
0.11736
-0.270277
-0.114102
-0.00130798
0.436484
-0.132313
0.760488
-0.628176
0.11107
-0.0821527
-0.323915
0.0753826
-0.283745
-0.0144456
-0.847053
0.577575
0.212682
0.212039
-0.168419
-0.11871
0.287128
0.271981
0.0373334
0.782931
0.424111
-1.20704
-0.0754893
-0.0190277
0.094517
0.241747
-0.711674
0.883031
0.475296
0.73375
-0.66661
-1.10478
0.0352416
-0.0269514
-0.10968
0.432424
0.408879
0.534645
-0.943524
0.332372
-0.0284122
-0.0322134
-0.288334
-0.0754027
-0.475134
-0.426529
0.529168
0.592255
0.275721
0.531116
-0.546912
0.0157956
0.157307
0.00699525
-0.0655535
0.216333
-0.0318705
0.675449
0.169946
-0.845395
0.330143
0.0318265
-0.19405
0.11723
0.0768198
-0.302175
-0.000465847
0.302641
0.304756
0.537769
-0.842526
0.204475
0.259185
0.643693
-0.0165409
-0.227686
0.653272
-0.307456
-0.000601259
-0.00574168
0.00634294
-0.937737
0.510073
0.778449
-0.623665
-0.154784
0.0113146
-0.110706
0.0993912
0.760187
-0.831111
0.495979
-0.0730778
0.331992
0.430856
-0.100676
-0.0134257
-0.419746
0.126663
0.293083
-0.558643
-0.0970434
0.998831
-0.510436
-0.488395
0.535414
-0.0851505
-0.450263
0.373163
-0.635216
0.262053
-0.0521875
0.466966
-0.00556899
-0.306892
0.713664
-0.406772
-0.285674
-0.134072
-0.342663
0.0425598
0.194702
0.680206
0.00526058
-0.685467
-0.297371
-0.0508174
0.176216
0.0405844
-0.00792154
0.405248
0.189165
-0.139198
0.164434
-0.0135556
0.0424633
-0.132858
0.129141
-0.349656
0.501644
0.0122902
0.193095
0.202278
-0.286439
0.693925
-0.048186
0.579302
-0.121272
-0.0887877
-0.212609
0.432776
-0.186812
0.85024
-0.663428
-0.744561
-0.0994617
-0.563932
0.89453
-0.330598
-0.228771
0.271331
0.272395
-0.0559396
-0.018574
-0.203931
0.222504
-0.765781
0.247578
0.0828039
-0.100861
0.465192
-1.12939
0.3355
-0.911582
-0.362846
0.931279
-0.423369
0.446674
-0.232045
0.012038
-0.587686
0.722171
0.000424839
-0.12488
0.140337
-0.487914
-0.0819901
-0.550296
0.632286
-0.00438272
0.418433
1.20981
-0.791122
-0.41869
-0.188097
0.0566822
0.17701
0.0189579
-0.195968
-0.718768
0.131031
0.148398
0.0264421
-0.00616368
-0.0969367
0.1031
0.388343
-0.952274
0.0759344
0.397753
0.0232663
-0.421019
-0.939246
0.752434
0.115509
0.0314454
-0.146954
0.299813
-0.875563
-0.111261
-0.00309406
0.114355
0.14789
-0.0323818
-0.00182974
0.641821
-0.493079
0.537703
0.433618
-0.229143
-0.799094
0.233825
-0.605782
0.480678
0.125103
0.523362
-1.03545
-0.444128
-0.265503
0.709631
0.0712576
0.342288
-0.25793
0.2141
1.04868
-0.146543
-0.902139
-0.00903353
-0.820704
0.640605
0.0591349
0.373747
0.411192
-0.125836
-0.00461708
0.11201
-0.247507
-0.291441
0.0584454
-0.0484084
-0.0100371
0.0203887
-0.665055
0.644666
-0.0431735
0.239775
-0.196602
0.348268
-0.874648
0.52638
-0.103256
-0.476514
-0.0307529
0.0320069
0.604386
-0.295318
-0.165259
0.460576
-0.310825
-0.361901
0.380673
-0.224169
0.332437
-0.129777
-0.20266
-0.377015
0.208597
-0.694804
-0.117218
-0.0159192
0.133137
0.104748
0.267626
-0.372375
0.148563
-0.732225
0.583663
0.0111563
-0.478938
0.146424
-1.10228
-0.388874
-0.683632
1.07251
-0.847934
0.0381177
0.809816
-1.15673
-0.701861
0.0144253
-0.229294
0.236345
-0.00705152
-1.11847
-0.308003
0.983452
0.322181
-0.166315
0.0711223
-0.283731
-0.144208
0.403393
0.119671
0.0702808
-0.321981
0.012434
-0.0970903
0.0846563
-0.203843
0.0772119
-0.0641976
0.0755122
-0.227522
0.449845
-0.875003
0.54628
0.328722
-0.269588
0.253554
0.528016
0.160507
0.00110229
-0.24421
0.0668172
-0.422173
-0.226791
-0.466248
0.164573
0.301676
0.0608977
0.264404
-0.325302
-0.343692
0.432224
-0.0638538
0.630092
0.870831
-0.805033
0.487943
-0.798768
0.376576
-0.517698
0.141122
0.0768594
0.00128566
-0.0841162
-0.008543
-0.936656
0.538342
0.1124
0.423013
0.0128723
-0.159107
0.146235
-1.41859
0.581256
-0.057223
-0.115627
-0.157665
-0.017172
-0.179532
0.196704
-0.478372
0.183054
-0.963355
0.848932
0.97622
-0.503857
-0.147875
0.132575
0.0152993
-0.0607163
0.0319569
-0.117424
-0.939546
0.309497
0.630049
-0.108669
0.0896409
-0.0545038
0.233691
-0.179188
0.314622
0.181358
0.169753
-0.152072
-0.0176813
-0.216748
0.229039
0.0850001
0.00687646
0.513546
-0.761333
0.937724
0.0439988
-0.540261