/*--------------------------------*- C++ -*----------------------------------*\
| =========                 |                                                 |
| \\      /  F ield         | OpenFOAM: The Open Source CFD Toolbox           |
|  \\    /   O peration     | Version:  2306                                  |
|   \\  /    A nd           | Website:  www.openfoam.com                      |
|    \\/     M anipulation  |                                                 |
\*---------------------------------------------------------------------------*/
FoamFile
{
    version     2.0;
    format      ascii;
    arch        "LSB;label=32;scalar=64";
    class       volScalarField;
    location    "1.9";
    object      p;
}
// * * * * * * * * * * * * * * * * * * * * * * * * * * * * * * * * * * * * * //

dimensions      [0 2 -2 0 0 0 0];

internalField   nonuniform List<scalar> 
13486
(
9.21266
7.27091
0.550228
-1.23663
3.03328
-1.21545
1.41191
5.27116
6.27575
2.78181
-24.0649
1.4036
9.73627
-1.64977
2.41346
3.198
-32.5362
-0.330234
1.96006
8.28194
-1.08737
9.62168
7.09641
-4.69871
2.72088
-4.42236
-23.1265
-2.94033
-0.00442222
-2.40205
-0.843915
1.64454
-5.90851
-1.8322
5.28339
-0.0212569
0.065138
7.58362
-0.206127
6.24326
1.04995
10.112
0.179278
2.68072
2.49935
1.33682
-47.673
-0.0050155
0.051595
-3.38781
5.07229
-0.307813
0.801564
7.68216
-0.470825
3.31632
0.256378
-0.349597
-5.68628
0.143546
-15.4129
0.159441
-15.5464
-1.02553
-2.23453
0.0893718
-1.30472
9.20579
6.22818
-0.061027
-1.30258
-0.434247
6.23436
-23.0919
0.115008
0.281824
0.0874288
2.36857
-56.044
-0.719124
0.0149508
7.31246
-17.8465
0.607799
9.25665
2.752
-0.796308
4.74948
5.87701
3.14474
0.978731
4.58405
8.84673
7.838
6.5293
0.0304719
-21.448
-1.2816
6.13167
-35.849
0.0545772
-1.31709
-1.29887
-0.318826
3.44354
-37.4145
5.97906
-0.251253
-54.1843
4.19713
6.06542
1.42628
7.67961
0.17976
10.8233
6.3423
2.7311
-1.69902
6.31253
0.0552476
-0.353938
-15.4389
6.82235
-0.230895
6.02684
-0.304343
4.41164
1.04554
-1.4819
-2.00833
-0.275884
-44.5748
-16.4541
-20.3491
5.39291
4.69239
10.8119
4.36534
0.0599292
5.39565
-4.94314
0.787251
1.54412
-0.711125
0.177115
-13.4534
-0.125883
6.31763
-3.63638
0.00921199
3.12024
2.24801
0.022684
7.46806
1.29745
0.537367
3.50455
0.0563294
6.87995
0.301708
-2.75072
6.87397
0.255506
10.0545
-0.310134
-2.74557
-0.716742
12.5483
-0.0576417
-20.7098
-15.8717
1.35935
3.92264
3.25169
0.0223686
-2.22213
-2.54379
-5.92284
6.03383
1.62074
5.84632
0.183614
2.61545
-2.60864
0.621162
-2.95514
0.00517713
-2.24212
1.31166
6.64464
0.0730908
0.381842
-0.405011
7.67792
-0.512146
-24.4144
-2.05501
-2.92154
8.36739
-2.39361
-0.887277
0.963072
7.59282
2.54659
0.301664
-0.534404
-0.267569
6.70122
-0.379678
0.66469
-2.55276
-3.1164
8.15913
5.98154
-1.21616
-1.31659
-2.50518
3.32526
8.38678
-8.9227
-34.1228
-3.75182
5.53832
-2.91107
-0.00821364
9.06553
-2.38923
-1.40447
-1.04864
-0.509345
5.77074
-1.20251
-5.15021
10.3213
-1.27975
8.68996
-1.96075
0.440621
8.77376
2.71094
-5.73227
3.84095
0.216961
8.30226
-0.12039
6.94401
2.78788
-3.2977
-24.0813
3.13195
-1.43642
10.9438
6.10709
-0.274504
-0.813258
-2.63475
1.55577
-1.27796
0.17674
-5.31153
6.57239
-0.0910666
2.34952
-2.43873
3.49531
-2.80552
-1.05491
-0.955323
5.89552
-0.981213
5.83468
5.81654
-2.59917
0.942205
9.07968
-3.12485
-0.814609
-0.981914
-0.307294
-0.256069
-1.0629
5.12
6.05611
-7.85748
-12.6085
-36.1447
-5.00943
-1.58798
0.0108393
5.90386
-1.25038
0.119691
6.54477
5.41222
-1.87234
-2.0917
-2.84723
0.90601
6.24603
1.17735
0.163135
-0.316916
-0.0874358
1.7793
0.0533283
2.61615
-1.04419
2.94616
-0.470327
0.0682216
-17.7368
-1.22294
-1.46736
1.39352
-16.348
4.79875
0.129739
5.87846
6.73168
-1.19209
0.0852386
0.0429061
5.93275
7.8823
10.6845
1.10016
3.95719
5.00411
0.634668
3.64774
4.80703
4.34197
0.75529
8.39809
1.34156
6.171
11.2646
2.40835
3.40866
-0.0724949
-1.11436
7.79065
3.49517
2.68769
-2.9615
0.0260388
4.14667
10.8534
-8.9508
0.107755
3.90826
0.676403
0.900065
-17.811
6.17214
0.0191919
-22.7464
4.29142
-0.363633
-3.05811
2.07704
0.787731
6.70995
5.80345
-2.48762
0.0123747
-1.98825
-36.1105
8.36776
4.34389
0.102192
4.21399
-0.0895614
-1.51851
-1.10457
5.17922
5.98228
0.0386462
-15.136
-13.8551
5.73786
4.28874
9.71634
6.2112
-39.2528
-0.862253
-0.0048544
3.28865
-25.6176
-0.63811
8.02052
-2.8776
2.22372
8.81919
8.95853
0.0578134
-1.27206
-1.43721
-27.3419
-5.09773
-26.0783
1.07516
5.43636
-1.02245
1.57237
-5.95266
7.70264
-5.5952
4.44209
6.79252
3.22179
-5.02582
-3.19311
6.25286
5.91007
7.39114
-2.12362
3.59267
-15.415
2.81332
6.00695
0.827557
10.8945
3.56749
-2.66001
-2.16791
0.900663
6.05035
-25.0254
-0.251364
9.52049
5.4587
2.16247
-0.0360049
2.91407
-3.75892
9.66827
0.0857397
3.44909
9.04135
-36.5537
-2.67235
-21.0342
-3.20973
0.0194516
7.32542
6.99566
9.58147
-13.876
0.0352469
-3.34482
3.47761
6.00295
-3.31939
-6.17666
5.80374
-1.22375
-2.30081
-7.7332
-12.4104
-0.97763
7.72935
0.00784726
-0.10061
-1.15365
5.65366
-0.00139114
11.893
8.97607
6.26538
5.09046
0.00750213
0.00275143
11.188
-0.847697
0.0441536
-2.56538
6.2291
-38.0219
0.823392
4.02575
0.0480421
-3.3016
7.01005
-7.87216
-28.64
3.67052
-0.688012
12.4999
3.75612
5.15718
6.6033
-2.28212
0.714419
9.94491
3.16514
7.95179
1.3996
1.36821
-1.0194
-0.690937
0.167233
-41.2539
6.14164
6.2145
-1.49536
0.00674885
-1.40504
9.05937
7.35043
-0.852685
6.32489
4.51585
-3.19781
3.56203
5.25778
-15.9424
9.55045
0.0966329
-0.0448733
10.0249
4.3712
-0.0204446
4.00988
-1.12058
-1.23081
2.43394
4.02117
6.91717
8.87022
-6.66994
2.85551
-7.27217
0.0240172
8.67254
1.41591
-2.26876
-1.32431
0.696367
0.106429
5.04563
-2.10723
-5.8414
6.34058
8.29903
-0.824183
6.56239
-14.6227
-1.70773
-7.66846
2.10718
-4.53252
6.75006
0.693489
-13.1679
5.30319
7.30103
-5.12466
-5.77726
5.16653
8.64227
1.51563
9.29163
0.693366
3.78862
1.02707
6.8046
0.175719
8.4121
-19.4921
0.946026
6.00658
-1.32384
-2.95881
5.96572
-34.1418
0.953172
6.83616
9.6166
-1.32717
0.0892524
1.26928
0.431183
5.49072
4.08643
2.20676
-17.5182
-0.257286
9.18854
0.607889
0.0182151
-4.07008
9.68141
-1.57317
0.210146
5.69497
4.96671
-0.677144
-1.90933
5.3759
0.608659
-1.4186
2.01977
-6.78343
9.36194
6.17709
4.18897
4.396
-3.0781
-5.13279
10.4877
1.59848
10.5291
-1.32523
5.92808
0.0360937
-23.457
3.86797
3.13417
11.0124
-2.63232
4.10162
3.80901
-9.622
2.93435
-0.294539
-3.20012
6.03759
-5.38322
-2.87178
-3.79719
-1.63875
-1.46922
6.54234
0.0117407
10.2385
6.18362
0.269737
-1.58004
-2.48916
1.66683
-14.1623
-1.99719
-39.028
8.62749
0.0116997
0.270364
-4.7619
9.75412
0.00851358
0.171645
10.0266
5.14173
-1.72248
-0.776599
4.34501
0.144119
5.99614
0.211261
-1.52989
1.91047
5.58703
1.41793
4.97905
10.1793
0.19691
-1.75094
5.96658
1.06575
-1.40543
4.20663
4.25366
2.31964
-1.91971
0.683108
-0.000243079
0.596212
8.65414
1.52587
0.574909
0.651903
0.680912
-0.595832
5.9993
0.261565
5.88945
5.82321
8.40755
-0.332823
-5.45401
10.4361
0.0717547
-1.21339
6.43455
-3.93736
6.82448
0.197989
5.69876
-1.01385
-23.1804
-3.77606
0.0108976
-30.085
2.90343
10.7335
-1.43559
-10.9343
-2.70424
6.16649
-1.04712
2.3307
-6.63431
10.5924
-1.78372
3.22898
-3.4884
3.22788
5.94779
1.81669
-13.1086
-0.928634
9.8975
5.93632
2.70402
5.52159
0.301813
4.83837
4.95928
3.2357
-18.6548
-0.789963
7.63174
1.44744
-0.349967
5.26247
-1.24334
-1.39494
-0.181177
6.61019
6.38905
-1.52527
0.659936
-1.53663
-0.995585
0.653933
-1.44093
0.816325
5.70079
-0.964602
-6.68345
7.23357
-0.367614
-1.67033
-0.939227
-3.24281
-1.49178
-3.41699
-0.0354683
-3.16222
5.97826
9.70415
0.0487858
-1.67965
10.0545
9.41457
-1.25694
-2.14317
6.41126
-34.8538
0.256039
-0.980083
-0.226282
3.52376
-28.7325
2.2995
3.84503
-2.92482
-1.18224
-5.29079
-1.13354
5.34051
2.25256
3.92181
-1.58956
5.00526
9.24527
-51.6241
-2.88994
6.95123
2.34099
3.79445
-0.182383
-2.31893
-1.60543
-0.949049
6.15142
10.5382
6.73072
-3.48418
-1.087
5.96572
8.96878
-1.92833
6.62725
5.99844
9.26912
1.56002
-0.0409107
0.527104
-1.12259
9.28534
0.659319
-0.879844
4.08357
-0.824856
1.3339
-0.854963
-6.0404
5.62829
4.0762
3.96561
2.53751
-37.688
-1.76004
-1.33178
3.54011
-7.20073
-3.71863
0.189692
-4.62434
-12.9023
2.86888
-2.357
-23.9709
-23.8144
-1.58128
4.68794
-27.5792
-2.20774
6.86683
-1.16872
9.65612
-1.41956
-24.2913
7.33842
8.70624
0.126746
-0.0727948
1.61759
6.16127
3.5815
-11.0439
-0.62692
0.0339164
-1.1504
5.73032
0.247973
3.29755
0.0409087
6.23855
-26.2931
0.189939
0.03716
7.49739
-4.15256
-20.5837
-3.83234
9.53861
-0.896789
-1.82402
-29.1665
5.99232
-1.74142
0.0674265
1.41335
2.95463
-2.78844
4.22601
-2.2291
4.71146
5.78339
7.15166
2.38325
-0.092487
-1.57601
4.36232
-2.84027
7.46081
3.8747
-0.766216
-0.280012
-0.929216
-0.724831
0.0404651
6.86775
2.09841
0.924849
5.96382
-0.384697
4.91143
10.8906
-0.84959
-8.15338
3.87201
-2.94708
-0.169668
-1.00084
-1.13816
6.03808
0.194439
0.0789358
0.156363
-0.325966
7.93607
-1.5693
0.0259473
5.97267
-3.65951
8.65356
6.97609
8.22874
1.48297
3.49564
1.73308
0.423435
4.67322
6.01141
-1.13768
-1.35608
-26.6897
-2.11378
-4.16537
6.09078
-10.5316
-5.61901
-4.53466
-1.11637
0.0239631
5.98387
0.000445702
0.874256
-18.7282
5.97192
10.7653
-4.48831
-12.9681
3.08777
-0.313002
5.94035
0.27701
-0.151909
7.43679
-0.353848
10.2041
4.13587
5.87078
-2.30544
7.97984
0.27114
7.01184
0.111101
-5.33144
-2.47264
-2.87248
4.07401
-2.38753
-1.08253
9.58339
5.89929
6.482
8.72495
6.61824
7.48292
-1.29537
6.453
5.95579
6.2025
-1.19365
-2.34181
-3.37422
-6.29825
1.35064
6.94485
-23.7554
9.08306
-6.73264
0.215991
10.4566
8.78502
-1.32239
-3.1603
6.18569
2.80349
0.251646
5.81425
-24.065
-2.95692
5.89516
8.52653
-0.130696
6.84169
7.8903
0.0259917
-2.6846
7.90311
2.61219
0.0636707
-12.3845
0.580355
-5.74888
5.54198
3.92283
0.0816264
-0.615548
-2.63581
1.3943
-0.160288
1.39283
8.93816
-0.26155
11.6882
6.13609
1.88192
6.87556
-1.80447
-20.005
-1.65088
6.04892
-0.182372
-18.5756
-0.861595
2.6408
3.29206
-0.0434172
4.51206
-28.0815
3.14831
-1.19194
0.0612992
4.88948
1.76332
7.99605
6.09035
6.27472
5.88657
-1.33181
-4.71854
-4.17118
0.638024
-1.43115
-1.3394
4.77913
-1.07777
-0.079576
0.0924727
0.193478
-6.70697
4.25242
2.52505
0.362765
-2.72696
2.90272
-3.70505
-3.97675
0.642898
-2.39876
6.83228
4.23822
7.94618
-20.8505
5.31029
0.187642
8.61489
-1.33076
2.87766
-0.535811
-1.27405
10.0124
10.2521
5.06138
3.50098
3.84358
5.68258
10.1298
4.24313
-5.2778
-5.61436
1.09428
-6.24646
-38.3474
5.93425
5.89617
-3.5019
1.79018
5.26622
5.56031
11.0213
-11.8611
4.54145
-28.236
-1.54631
8.75249
-0.858873
5.16186
-1.09497
1.49678
2.28919
11.4988
-0.045805
-3.35569
2.72671
0.754077
-3.88338
-23.4439
-0.286824
6.68367
0.264086
3.48388
9.40212
8.6258
-0.574434
-12.246
0.0694016
0.67618
7.26217
5.80145
8.59342
3.65908
-27.7631
8.99988
5.64406
-9.81499
4.7644
6.10796
7.78784
-12.0088
-1.10773
0.00980109
4.96453
9.89029
3.23081
0.229915
-5.6326
11.0711
-45.0266
-4.90842
10.3168
5.16366
-8.18454
4.89822
-1.27905
3.36243
-1.7939
-42.8013
-0.0417972
-1.78298
-0.0490537
-1.516
-34.8832
-30.0561
-23.7167
0.599418
-26.6536
-1.41305
4.58555
5.47194
3.39718
-31.2474
1.46396
0.545127
-1.40926
11.623
4.08353
-3.82432
5.12128
-1.82731
-1.89299
5.13693
5.12832
5.91779
11.7378
0.0312658
-0.874196
-4.67196
0.637514
4.22049
6.0965
-2.89756
9.1417
3.96723
6.37204
-1.04214
-0.634257
0.307764
6.40404
5.99296
6.64743
5.94787
10.7406
10.5832
-1.89399
5.15559
7.78545
-3.70724
8.58097
-0.166663
10.4611
8.50944
-0.11038
6.86804
2.65136
4.72325
0.419792
6.02209
-4.6466
5.35892
2.26648
4.24734
-1.17488
5.90938
-0.147446
1.31867
10.1019
10.0934
4.0971
-21.4452
1.49294
0.572525
-0.811995
4.72578
9.04323
-21.9674
6.19248
5.87595
2.92897
6.3604
-2.91503
-1.12722
0.100142
10.8736
1.82463
0.119485
6.92402
-1.14886
0.233774
2.65162
1.06958
4.39601
2.6283
-2.32131
3.58422
4.98082
4.0424
4.62733
10.6218
8.68226
7.69645
7.00387
9.8933
2.97006
-0.233322
-0.404242
-7.65453
9.97763
-1.09749
6.08926
5.52175
-1.78826
3.19731
6.74789
-3.13281
2.98483
3.58895
11.9014
-16.3064
2.61046
-8.37661
7.08505
0.566833
-1.28112
9.7966
8.38977
5.93189
5.99789
-2.02021
3.02729
-42.4918
10.5611
0.10175
11.4065
-0.387837
0.244187
-23.5047
3.44836
-23.2687
0.719891
-0.354791
1.75467
-1.1387
1.69623
-1.33803
0.00879123
-1.35398
-19.9855
-2.92788
-12.0194
-0.926836
-0.535797
-1.18009
-12.8174
6.33238
6.45277
7.6295
5.82935
2.3844
2.30735
12.4805
5.94138
-28.3893
-0.00368482
-1.06479
4.42572
5.39836
9.16531
-5.19395
-5.06957
5.12384
-0.0100122
1.51332
7.58971
-22.1275
-2.43873
-41.1061
10.6837
-1.27404
4.14749
7.83437
-0.726658
4.89942
-0.0697056
-15.7433
-10.7329
0.240764
3.78599
7.33377
7.67485
-11.5179
-19.9106
4.14904
-58.9177
-2.38425
-1.38931
0.93988
-1.74443
-0.320952
-1.34418
-14.6191
-4.74482
9.46842
-1.12474
10.2964
-4.76178
-1.091
2.27123
-1.39001
8.73519
6.08753
7.08604
-2.14936
-1.82638
-17.8767
8.44706
-20.0853
4.17541
-0.0223595
7.28966
8.69805
-0.0557641
5.96665
9.91097
6.75623
6.54353
-13.9886
-0.605908
2.48003
-3.74209
-0.314752
3.78068
4.50573
0.579453
-24.4436
1.33276
0.261991
5.42679
4.63303
-2.68986
10.4284
0.651658
0.0158942
0.690642
5.77542
-2.09977
0.0168095
6.69574
-3.83473
0.470967
-1.63123
6.53734
5.78839
5.52108
-0.270713
5.54044
6.97891
6.92167
-1.85065
0.230947
1.00041
5.29313
-5.43854
-16.3908
-1.76776
-8.47333
-1.27026
0.0765563
-0.297958
0.203602
-25.0043
-3.81326
-7.72724
0.262244
-1.82282
1.9198
-4.8525
6.38685
12.6347
1.71691
-1.35649
2.38707
0.324146
1.47906
0.0893073
-2.2675
-4.16858
0.716525
8.10291
0.0211639
9.73238
0.0733732
5.49233
5.06656
2.63914
-23.9961
3.69424
10.6776
-1.19671
5.83403
5.64127
9.11861
0.746123
8.34928
6.64978
-23.8197
7.07498
-18.0517
-47.6817
8.55498
5.2002
-10.6952
-0.478572
7.89429
0.846647
-2.73424
0.2217
0.193593
4.4774
2.93289
5.93701
5.80843
5.18412
-13.1236
-3.02873
-1.72776
5.79397
11.4201
-2.48373
-49.1478
-22.6719
6.21636
0.686032
0.7322
2.77172
-0.1006
4.77002
-1.05472
1.33548
9.34794
2.21438
-0.545894
-0.884056
-1.25915
-3.61334
-29.9667
-4.77288
-2.62352
7.17265
2.92858
-3.25302
9.79338
-0.0018927
-12.8999
-1.43852
-47.8414
6.66211
-18.1546
1.68101
6.12675
-0.206392
-1.89387
-1.02727
-29.4893
-1.25515
6.54468
-7.87386
-0.0938259
-40.5177
5.67239
6.53838
-1.27264
7.74518
7.1785
9.38617
9.5757
6.83185
0.905227
10.8701
-43.8924
6.01862
1.16246
-6.64356
7.36935
-1.60706
9.29208
2.53799
-7.26922
-20.9874
-36.3874
6.38806
-1.82144
-1.82602
0.128321
-5.6042
-0.499849
3.46147
0.770402
4.46781
10.6732
-22.6172
-4.41738
-3.74038
6.43939
4.36235
-3.02403
12.4403
-0.179292
0.23876
3.66904
-7.08161
5.59534
6.32362
7.03951
7.17373
-0.470204
3.28728
5.86102
1.30346
-1.16122
0.0232102
6.66487
6.82363
8.51088
-1.10863
0.507286
3.28375
3.41072
0.654823
-5.9935
4.84522
-1.26016
5.10113
6.14859
-31.0113
9.73114
-2.96673
10.4852
6.98689
-5.75205
0.0247822
0.100094
1.93103
6.29262
-3.9098
8.34554
5.60154
3.2653
0.165805
1.28134
-2.00284
3.28858
-36.0547
3.90044
-1.20615
5.7835
-13.8859
-0.532057
-1.68265
7.48109
8.8478
2.57898
-14.9709
2.66134
-0.623985
0.603806
3.06479
-1.07164
-0.98122
10.3086
-3.74617
-0.878891
-4.40665
-42.4439
-0.66415
5.94483
-34.1985
-1.46552
6.25204
3.94128
6.50354
-1.23548
2.7109
10.382
-12.6983
5.70376
1.77467
-1.00099
1.7654
1.37747
-4.42734
10.6225
7.02057
-5.08711
10.2572
7.98232
7.40052
-58.2146
-15.4837
4.05489
-7.98237
-0.661284
-12.4804
-7.10214
-11.767
4.83668
2.26768
3.74144
4.1001
-0.950954
4.72356
5.83642
-38.3073
6.47092
3.50008
5.82833
-0.646136
0.0775945
-1.2851
-31.5713
-1.21952
-1.70645
5.76413
-6.9447
9.44235
-1.70364
5.62281
3.86599
0.119765
1.03427
6.22042
2.47238
1.10311
5.51093
0.0121357
-0.372162
8.961
7.12343
-3.10094
-9.96569
-0.203033
5.20156
-0.31775
2.83557
-10.7357
-0.23821
-0.721031
0.126811
5.3141
5.26124
0.16604
2.4286
-0.527387
-0.0806328
-5.18299
7.48957
-1.2547
5.94852
0.00738329
5.02071
6.46768
3.1612
5.67094
0.133692
-1.35547
0.131134
-16.6606
-1.63633
-2.92562
-1.5239
-1.03315
4.665
-0.645962
5.73948
-0.420885
-0.169713
-10.5
-0.164644
6.31947
-11.8078
5.94652
1.40343
-4.08722
-0.303048
-1.26835
4.21599
6.07369
-0.0850879
1.0546
-20.3594
7.24048
0.525265
1.7393
-2.66256
7.66352
2.93158
0.0845022
6.44921
6.35994
7.43313
0.746615
7.40357
-13.2874
0.242513
-1.08011
5.99954
3.6634
1.53248
0.647571
-5.69656
-3.09097
3.34164
0.468273
-3.57594
9.45674
-15.2831
7.32224
4.38088
-1.82717
-0.211056
0.35281
-0.549221
0.360157
0.764973
5.55521
0.150963
5.97275
-10.9595
2.64656
-0.921117
1.49387
-5.93806
7.69207
10.4282
6.58388
3.59831
1.40734
3.74402
-26.0884
0.00200107
-0.103954
-0.762445
-3.27727
-6.61066
-5.76592
-3.11923
5.44299
6.09064
-15.8366
1.54529
6.81996
-3.24078
-9.25503
6.42066
-0.256446
-16.5516
0.17929
-1.5984
0.0316542
9.69428
-0.0587631
5.92946
-6.69273
-4.24015
-3.21869
5.96602
1.55215
5.10533
-5.74767
-4.0264
0.355405
1.27142
6.97878
5.36469
0.711189
-0.917487
-1.83572
10.8586
-1.06177
6.94422
7.68766
-0.933798
-0.328302
2.73784
-21.7482
-3.2961
5.0953
3.25336
5.87214
-1.82036
6.5435
0.384164
8.66807
1.31607
5.18849
7.67503
4.81196
0.926788
-1.82727
1.64727
-43.0422
5.3904
2.45209
7.39903
0.225743
9.3545
0.95314
9.96063
-2.14383
7.76349
-1.28923
4.56029
-17.4268
5.66137
2.89423
2.18318
9.06717
5.87608
1.32203
-2.98222
3.46988
5.53547
-0.146005
-27.4716
4.37789
0.271451
7.93281
-1.2621
9.4984
1.19161
12.6266
9.51349
4.60046
4.10808
-17.658
0.0500039
10.1784
0.0369426
-0.615634
-0.656684
9.96197
2.69915
5.24306
8.48683
-4.34178
6.57689
-1.41025
7.31932
0.255399
6.93826
6.17716
8.54678
-0.231685
-53.9489
1.69708
-1.25056
2.79495
1.20674
0.0961359
7.71295
8.94176
0.0647544
2.17148
-1.29326
8.05815
5.01667
5.60698
3.49294
-1.05222
-15.7705
-1.14399
6.10582
-10.8718
-0.523365
0.0185579
4.31042
2.82451
-3.18729
10.7392
-0.826522
9.4393
1.96199
9.45007
-2.22623
1.28979
0.124478
0.262765
5.09707
5.81543
-1.3015
-0.545228
-1.72486
-0.52403
8.93975
-2.54053
-0.258998
-1.01227
-0.632955
2.28611
7.53464
2.9085
0.241311
0.128042
5.89374
11.4411
-1.24882
0.391608
5.9555
-0.0149469
2.72992
-0.0203085
4.51234
-0.57993
-21.8589
-2.06248
-1.23528
-0.985788
-0.480071
-11.0033
-2.73779
-0.535037
4.52955
6.4835
5.08784
11.1041
-17.8116
9.90791
-18.4029
9.33361
-4.00438
-4.74934
10.7312
2.1804
-1.66539
6.23644
-0.250816
6.75102
-1.28713
-38.0966
0.95476
-2.93716
-3.32791
0.0250473
-0.858392
2.09699
7.6735
-4.94564
2.3695
-10.7552
1.32213
-0.942443
-0.129884
0.197135
-0.813445
-8.43944
7.82698
-0.0359904
8.66999
2.23137
-13.2208
1.69245
-5.98408
0.150995
5.02839
7.64227
11.0559
4.34139
4.93623
2.88123
-22.8122
10.6709
11.5042
6.53791
-4.21294
-1.75804
-43.9022
5.64975
4.0698
2.19056
4.70218
-0.934515
-0.0689109
-35.5074
9.02651
0.117316
0.467378
-1.32465
5.95797
1.01118
12.2898
11.4453
5.38937
0.0203895
1.70367
-14.9445
2.01405
11.7782
0.86567
0.133366
4.55516
-0.00798463
1.06689
-1.19391
-1.82675
1.36977
0.338198
2.6354
0.0749583
1.58079
8.55454
2.12595
6.425
-1.39492
-2.14319
10.3811
-9.02513
0.850673
1.70782
2.30532
0.514643
-1.27312
1.42443
0.290591
0.612986
12.3805
-24.2754
-14.2832
-3.80307
-4.88783
0.633144
1.70931
-1.27818
-10.8484
0.0585743
-15.1513
-5.5696
-3.71972
0.502391
0.424735
0.227114
12.0766
0.227744
1.66305
-0.997003
0.891492
-21.0469
-1.742
8.2971
5.97335
1.69995
-0.682795
5.84211
6.46164
0.0747513
-5.74524
-0.0325911
8.2508
-3.25896
5.4878
-0.0179665
9.40907
0.266603
-1.48969
-0.391235
6.54882
-2.60297
5.2077
-4.45275
11.6785
-1.28268
-1.70219
-27.6401
2.40572
-1.32369
-4.80398
-1.29876
0.790561
2.92132
-2.04215
-1.0311
-0.536137
0.865968
-2.89209
-5.65404
4.82364
-49.8221
5.31451
-1.33669
6.63438
10.6247
5.80027
-22.8192
6.21461
0.749776
0.906339
-0.553126
-2.34155
-36.8582
0.056881
-1.87867
2.87032
-0.405612
-4.88401
-0.773339
-15.4463
3.10118
5.92966
-6.9681
-1.26898
-2.57906
0.0627392
-0.688317
3.62387
-13.3325
-1.31213
5.97839
-0.527915
3.66108
-5.10722
-20.3766
-5.7125
-17.0552
12.0996
1.86811
-3.74466
1.2571
9.9609
10.4037
-1.60798
-1.47224
5.88283
-0.0651639
-0.0300082
10.2676
3.39096
5.52087
12.3118
-2.3848
1.95556
0.576158
9.16067
6.14174
6.3759
7.53993
4.03063
0.151773
0.32571
2.49061
1.33394
-27.6854
10.5449
-3.51744
-4.03718
0.0849323
-2.86086
3.01869
-1.33581
-1.60946
1.29231
6.42219
6.45846
7.05775
-26.6629
8.97477
10.2636
-13.7445
3.76258
-0.787657
-0.897948
0.958853
3.2969
-1.0178
-3.29836
-4.01146
11.4289
-20.1452
7.08988
6.09182
8.18562
4.67593
4.81191
-0.644769
0.118937
3.76729
-0.323559
-49.507
-10.033
0.52478
-1.27098
7.51971
-1.96449
0.0312814
0.908252
-20.0978
-1.40556
-36.3115
5.2981
-1.44072
-0.291214
2.35428
-4.65607
2.11023
-16.6951
-0.755226
6.49739
-13.8423
10.4665
0.0750232
11.117
-0.00153129
-0.139852
0.957966
5.11678
5.248
-14.1851
-0.74147
-1.76405
0.845403
4.31708
12.3169
8.22227
2.10394
-3.11496
3.25324
-0.498471
7.06309
-0.805238
3.33305
-1.1518
-1.30537
-19.3373
2.47059
0.156338
-19.5661
3.7152
3.79341
10.1755
10.8581
-30.1224
-35.4136
-1.06067
-6.34975
10.6287
0.494049
-3.1379
2.27645
4.11345
-1.17987
0.541859
0.16498
-0.21816
5.68936
-1.03375
1.94848
-6.35952
-4.72797
-12.471
-2.12845
-12.3614
-11.2293
6.79854
-1.75059
-1.4161
-1.5516
-0.209116
11.5864
4.68685
5.52611
-1.64008
3.13213
-0.560715
2.55741
1.54208
-1.27726
-17.6046
10.5988
6.4238
-0.466377
-24.3644
12.026
-1.39879
-13.358
-1.11407
3.15548
-1.3511
-1.13642
9.1004
-0.843361
5.66013
2.11145
-1.24295
0.448445
-0.286802
2.91389
-13.1946
-0.269818
1.54479
5.99603
-1.2773
-16.0481
0.389403
-2.08053
-7.40723
-6.62157
11.2288
3.73638
-4.18463
2.97265
1.27416
9.92535
3.48768
-20.3844
3.83527
7.70334
6.73923
-2.99034
5.19716
-0.601868
10.5131
0.124542
6.10334
-6.98967
-2.75535
0.101337
-1.23634
3.76177
1.77666
-23.1882
-1.38217
7.22467
-0.384975
-0.765601
8.53956
4.58677
8.31699
5.49776
-4.22832
0.0984701
-0.122149
6.07424
0.00775485
7.64167
4.87899
10.4093
-1.28719
8.0917
3.27754
10.4583
-1.23368
-4.33406
10.7346
-1.28612
4.82208
-23.5155
9.30012
10.3165
6.51412
-10.8529
5.82751
7.92247
-2.79738
2.31858
-1.47829
8.49002
-1.30894
-0.809738
-39.0937
-42.5745
7.78009
3.14289
-57.7485
3.15159
10.3184
-3.81256
-1.43803
-47.0832
-5.10754
5.26291
-1.02203
5.64593
5.73147
-59.6698
11.5768
-0.36579
8.70381
8.75839
0.396828
0.0438629
5.46544
-9.5116
-1.26847
5.45923
4.67212
-2.67023
5.76189
-1.15484
9.01136
6.48367
2.37067
0.288075
6.88331
-0.851129
3.47737
8.17962
1.36755
0.0848222
7.89323
6.58339
-3.61141
-21.9826
4.78937
6.88535
10.498
-22.8595
11.0778
10.8243
11.2564
-0.890393
7.63497
-5.33207
5.94905
8.32807
7.96692
6.81853
9.05787
12.2875
5.0864
-21.1653
0.829329
-16.5942
12.1391
3.29416
-0.583988
-1.26375
5.56088
9.02645
5.81635
2.0841
-0.650545
9.00386
-13.0367
6.58538
-1.28945
2.4715
-0.0866331
2.20786
3.95623
-2.20345
-2.00988
-0.863925
-2.00756
-0.951525
7.48149
-1.7705
0.639879
5.70643
-15.1085
3.97052
0.0768307
-13.2739
-7.69708
-19.7662
8.62741
9.23957
-1.35717
2.15308
7.87753
6.98519
0.0795199
-3.53705
6.72392
-25.7632
8.443
-11.6925
8.22669
3.59675
0.529192
7.6193
4.06238
8.04245
2.20555
2.5327
-2.61286
-22.915
-28.3403
-0.45458
7.88452
-5.02712
-1.33625
-5.19545
8.63366
7.99002
1.83567
4.56321
8.84515
-10.8702
5.82418
-1.12883
-3.02657
5.79548
-1.52115
-24.5541
-6.17421
-33.9276
-1.59938
-5.01576
-0.889146
-50.0393
-24.1401
5.03511
10.5791
11.5728
10.0535
-4.77073
6.65691
-8.63103
5.66804
8.80772
0.562147
7.74744
-5.31364
2.13601
-2.81876
-0.763419
8.45464
-5.20714
6.96452
-32.0402
-2.02012
-38.7102
7.0103
6.91434
5.87311
-19.5499
5.77897
-1.08763
-55.5463
-51.7011
1.98845
10.654
-13.576
-1.62313
-1.34552
5.87972
5.63948
-0.337089
3.53929
-27.3782
8.97866
8.01012
-1.23463
-1.70187
8.80359
-1.56787
-14.6059
-0.298766
8.00021
9.05931
-4.26795
4.48625
-1.32799
10.386
-55.4615
-2.65966
-0.789447
9.77109
-0.348241
-2.42886
-0.57336
8.42506
4.60093
8.31579
-1.0067
-12.1067
6.82614
12.0107
-24.6435
5.63985
-0.52189
-57.4735
-0.453717
2.19792
-1.25685
4.40917
-1.19147
3.74175
-0.939967
-3.49197
7.60262
9.18679
5.73736
-8.78929
-2.72338
7.16828
-28.0415
2.39516
-3.24823
3.01817
-44.6988
6.46304
7.1686
-0.669998
6.75802
10.3034
-1.36305
5.10465
6.92022
-46.3626
3.50001
-2.77266
3.02905
2.37624
4.55959
0.012878
2.03925
-1.19192
-13.2477
8.64208
2.58792
0.316331
-1.69546
-1.18875
6.23478
-36.4641
11.2142
-16.3931
-41.8695
-0.704509
7.77048
6.93784
8.26954
-23.9776
9.91229
-7.99979
4.98951
0.0258734
-16.7637
5.43585
2.77477
-1.41012
4.21349
-15.0307
4.68039
-32.0281
-1.6436
-0.0324746
-10.3722
-12.3196
5.54353
10.1583
-0.176528
-6.29992
7.89381
-11.2152
9.23732
3.02315
-0.13296
3.15143
5.9886
3.1736
-0.702367
0.64135
-0.454673
1.19181
1.92703
-18.6735
-1.42408
0.318405
3.80209
-1.31731
12.1864
6.62818
5.92407
9.34993
0.675336
6.75538
-5.27331
-32.9709
-1.94573
5.94388
11.8773
5.68213
-4.83556
8.61564
5.87909
5.92788
-0.136502
-0.648383
3.23437
11.2759
0.603934
-3.51473
8.20186
8.83398
6.54169
6.02687
7.43947
4.1641
-1.12745
-2.54019
6.72998
-24.01
-21.6374
5.93306
-2.17593
0.259176
2.18879
6.70831
6.97111
7.01387
-1.04576
8.22412
8.45026
1.15387
7.40137
6.44725
4.74025
4.4172
4.31831
3.11872
-0.353857
7.77659
7.35826
-0.554557
5.65449
-1.10319
0.0591538
10.0599
7.63151
-0.0315345
-3.07375
0.170605
7.86275
4.43684
0.92992
-0.0671906
0.805596
-1.57115
1.10099
-1.25905
-1.38153
4.67498
-1.2323
-8.50188
-22.258
9.53154
-1.24952
-15.9175
-1.59399
10.1669
-1.10436
1.25678
0.912979
-48.4648
4.61488
5.51572
3.9622
9.01597
4.88629
-0.244926
-20.2405
-2.42184
0.0611771
6.96466
-0.269378
-5.90157
-56.5368
-1.71142
-15.104
-1.49466
-14.5639
-1.06572
1.96924
5.78101
8.03199
-1.52182
-0.979695
9.02333
6.76953
-3.66425
-1.37331
-17.9414
3.78687
0.00497067
3.30656
4.96352
-0.347634
-1.19928
-1.37262
1.29712
-6.76384
-22.9373
0.59205
-3.7534
-31.0713
-52.9422
-2.002
0.621981
-20.2928
3.09349
-6.50565
5.83523
5.16887
1.66802
7.86039
-4.34883
10.2272
-2.91722
0.0168619
-5.90355
6.02689
3.66021
-20.6755
-25.3992
6.05204
7.30389
10.5961
-4.18407
-28.226
-3.62919
-0.92768
0.0317904
-20.8308
2.35465
-34.2498
3.58538
-7.25537
4.83826
0.650616
-0.492743
9.20944
5.42251
-5.0137
-0.0323647
-8.04784
-22.3946
7.83917
11.624
-18.2759
7.56448
5.7224
0.0104702
-0.933292
7.64674
7.2756
-16.3398
-1.05201
-2.02525
-4.50964
-5.58337
-32.3107
-5.09146
3.78442
-0.937111
6.59548
-15.5821
-54.9909
5.4979
-5.14231
-41.0314
-0.0187349
4.4542
-45.4786
-3.17207
-58.5157
-14.8073
-38.0725
10.7655
-28.5134
-1.46245
-7.78802
6.63616
-44.0632
-0.820524
-11.9723
-18.985
-2.71555
6.92019
0.0504936
-21.9948
5.2705
-0.00159712
-2.47376
-15.7413
-26.0456
4.41691
5.07713
5.99085
-41.4114
9.2321
-1.94718
0.0293069
0.372177
-10.9558
-2.72386
-24.4302
-5.74788
1.1823
2.25434
-0.269355
-1.778
-5.26867
5.74367
-11.8018
6.05454
-13.8283
3.56279
-1.54594
-0.570226
-0.610077
11.9721
-0.571279
-50.0885
-27.7442
-4.44732
5.90166
-0.00692428
-0.633291
0.227872
-52.7223
-3.48712
-23.3581
-29.4966
6.77273
-42.9295
0.543107
-58.5447
-0.550083
5.31791
0.382704
2.7829
-2.52492
8.09731
-33.9918
-3.48216
8.67264
2.44132
-38.7044
-1.80991
-13.622
-4.82058
-2.06634
7.864
-1.6603
2.31932
-26.3705
-12.036
-30.361
-37.3948
-14.3475
3.76178
-1.29057
5.94849
1.98784
-10.2945
-2.65515
-3.26562
7.46743
9.16667
-50.7678
-0.00757833
6.47747
5.72319
4.91938
-4.55764
-8.38769
-8.86383
5.93569
1.41824
-4.74919
-19.3561
3.55512
7.16978
-1.49617
-0.256535
-0.0613795
8.54709
-7.43829
-7.99983
0.0327361
5.02584
-0.00622739
-0.642902
9.28338
7.54714
-0.20207
-4.8935
7.77979
2.7278
-0.844237
5.77034
-2.06888
-6.32912
-10.6925
-5.04547
7.35462
6.59794
-0.682511
-3.24446
-1.03287
-0.226848
6.71342
-4.68949
4.76995
8.15017
8.7462
-1.46446
6.06237
5.45833
6.87084
7.26168
-1.15664
7.29797
0.00621818
5.95278
3.08875
6.54376
-2.04641
7.65354
7.32368
5.29204
3.78121
-3.08199
4.35262
0.264241
-3.81504
8.36931
8.03222
-3.26139
6.84062
-5.10809
-25.6078
6.63099
6.57344
-10.2725
-0.782541
-28.8668
-4.32518
-5.8351
-1.42796
-10.5092
-2.15679
5.57026
11.084
7.78099
-1.61069
-1.18837
6.53584
2.8489
-0.896922
-6.10382
-2.60351
-7.98634
-23.349
-23.5588
5.62229
-1.99007
2.51172
0.146511
0.113729
-0.66946
0.0996006
1.23704
3.16975
3.90045
-2.80906
3.11491
-11.6007
-8.85919
4.22728
3.05203
-0.539878
0.744222
3.81888
-0.245934
2.05167
-3.05106
5.96885
5.08132
9.77764
5.96294
-4.39093
-2.0977
-3.17759
-2.42111
-0.117968
0.052318
-1.11811
-3.50274
11.3098
0.612844
-0.172374
9.1012
-1.30235
-4.46534
-1.30404
-2.15279
-30.9669
1.94515
-6.37984
6.02918
-1.31884
-3.97148
-0.703407
-1.64887
-4.63774
-0.752458
-0.67258
4.51018
-1.28577
-1.42807
-6.89774
2.32701
-4.93482
6.52104
9.36757
-2.31475
6.66336
3.50221
4.20556
10.2998
-1.24865
3.47517
3.17954
2.40056
8.86989
-2.25866
-0.901222
-0.743246
6.44751
9.36389
-1.77921
-0.968172
-5.05737
-4.23725
2.85372
-3.3275
-10.108
-2.52971
2.111
-24.9291
1.40596
1.89941
5.12471
1.07281
-21.4229
-3.88889
-0.0994444
-1.11149
9.97368
11.1756
8.30077
11.7395
5.22395
2.18461
6.98789
6.08051
5.33948
-4.09249
6.26412
-1.98127
-23.5229
9.09066
-1.23609
-5.10922
10.6553
-0.234582
-4.86952
2.9902
2.42772
7.40225
-30.8457
5.45339
9.76011
-1.27035
-24.7356
-8.58158
4.27386
-7.99233
7.93768
-0.988309
7.39228
5.91228
-1.41042
7.16647
-3.22653
-18.6065
-19.4407
-2.27835
7.46279
-4.51775
5.94565
-0.299871
-25.3658
0.229192
-0.721013
-6.65408
-2.8449
-39.5183
7.55928
0.927238
-38.0799
-3.0539
3.68901
1.55953
-3.89946
2.69101
-0.0322952
2.73805
-45.3675
3.31411
1.26916
3.89509
-0.672437
5.74214
3.71354
1.53815
-36.0772
11.7162
-4.60222
-58.0995
5.77742
5.04995
-33.0507
-4.66506
-1.63032
3.94242
3.26952
-4.17223
-0.815362
-1.58512
11.6045
-2.35231
-1.42669
0.285595
-2.64573
4.25935
-1.43199
5.60034
3.64962
-8.69115
3.86304
-26.5926
4.96651
2.44389
6.17048
4.05847
-0.00531918
-0.00350763
3.0778
6.58545
1.11858
0.565795
-49.5326
-3.65064
-2.52853
5.06627
-54.6442
3.09621
-45.865
7.45935
-29.236
-1.65626
8.08023
7.27042
2.37533
-1.26024
-18.0162
6.71862
0.0349523
7.56632
3.09535
-0.667603
6.07012
1.67094
1.45597
0.965062
-2.45437
-3.4088
3.86467
-0.438949
8.26921
1.86102
11.8082
-0.438482
1.48419
7.3531
0.562256
1.62543
6.43862
5.22838
3.75988
-4.87887
-0.157396
5.77614
3.9242
2.2131
-5.1551
-1.00465
-2.11482
-33.5925
-2.76008
5.30678
0.298883
4.77476
-0.830713
10.0721
7.37582
2.0489
5.03503
1.88059
-41.1882
5.37953
4.48797
0.0874029
2.53012
7.53644
6.74493
-0.308745
-5.68501
-10.0649
5.45143
2.84834
-0.591975
6.40218
-5.0497
5.68375
-14.9432
5.95889
2.6821