/*--------------------------------*- C++ -*----------------------------------*\
| =========                 |                                                 |
| \\      /  F ield         | OpenFOAM: The Open Source CFD Toolbox           |
|  \\    /   O peration     | Version:  2306                                  |
|   \\  /    A nd           | Website:  www.openfoam.com                      |
|    \\/     M anipulation  |                                                 |
\*---------------------------------------------------------------------------*/
FoamFile
{
    version     2.0;
    format      ascii;
    arch        "LSB;label=32;scalar=64";
    class       surfaceScalarField;
    location    "5.9";
    object      phi;
}
// * * * * * * * * * * * * * * * * * * * * * * * * * * * * * * * * * * * * * //

dimensions      [0 3 -1 0 0 0 0];

oriented        oriented;

internalField   nonuniform List<scalar> 
20045
(
0.579658
-0.691468
0.11181
-1.16971
0.533428
0.636284
0.288888
1.99216
-2.28105
0.538301
-0.861754
0.323453
-1.12448
0.924278
0.200201
-0.559533
2.07819
-1.51865
-1.08252
0.0972937
0.98523
0.0492068
0.566369
-0.615575
0.584703
0.471468
-1.05617
-0.608313
-0.225154
0.833467
0.321159
-0.460544
0.139385
1.94346
-0.979967
-0.96349
0.475458
-0.462411
-0.0130472
-1.10673
0.910211
0.196523
-0.0624724
0.988417
-0.925945
-0.964746
0.356434
-0.0808166
0.0147836
0.066033
0.0990018
0.798814
-0.897816
-1.54309
2.23042
-0.687333
-0.794405
-0.0657996
0.860204
1.07455
-0.723952
-0.350594
0.174522
0.300936
-0.295311
-0.8744
1.37333
0.0272729
-1.4006
0.838676
0.0618528
-0.900528
-0.110119
1.48345
0.284007
-0.298777
0.0147695
-1.24466
2.70914
-1.46448
0.907685
0.602705
-1.51039
-3.10206
2.18918
0.912882
1.04671
-0.939588
-0.107121
1.21354
-1.18217
-0.0313696
-0.360103
1.36383
-1.00372
3.32166
-1.83302
-1.48865
-0.713715
0.762922
1.81085
-0.886101
-0.924745
1.13474
0.464088
-1.59883
-0.0785813
0.485994
-0.407413
-2.53488
1.44811
1.08676
0.676156
0.603603
-1.27976
-0.0388804
0.683245
-0.644364
0.208037
-0.29261
0.0845733
2.47941
-2.47382
-0.00559311
1.35072
-0.403315
-0.947404
0.550758
0.79996
0.903434
1.04002
-0.451349
0.158638
0.292711
1.21663
0.0505788
-1.26721
1.71723
-0.58249
0.276018
1.76486
-2.04087
1.33284
-2.19896
0.866113
2.28673
-1.53226
-0.75447
-0.775883
-0.749487
1.52537
-0.114336
-0.375292
0.489628
-0.977163
0.963399
0.0137642
-0.801971
-0.322508
0.267566
1.22373
-1.49129
1.84643
0.456978
-2.30341
1.31899
-1.67909
1.85391
-1.49601
-0.357901
0.293728
-0.348177
0.0544484
0.490772
1.36314
0.269074
-1.56989
1.30082
0.497374
0.577172
-1.42145
0.517427
0.904027
1.24231
0.514352
-1.75666
-0.316983
0.818909
-0.501926
-0.70894
0.0384862
0.670454
1.01013
-0.425425
1.50997
-1.54397
0.033998
-0.687652
0.370668
-0.921386
-0.0557767
-0.302884
-1.14172
1.4446
0.222919
-0.150674
-0.072245
1.42136
0.0209311
-1.44229
1.39033
-1.12277
-0.346841
1.7682
0.765033
-0.827505
0.714613
-0.411145
-0.303467
-0.499613
-1.68955
2.18917
0.913715
0.98288
-1.8966
0.864661
-0.821952
-0.0427089
1.1697
-0.900625
-2.41779
0.330744
2.08705
-0.0344807
0.614139
-0.27067
0.455091
-0.184421
-0.00309772
-1.03068
1.03377
-1.58196
0.0331526
1.54881
0.937467
0.328453
-1.26592
-0.80918
0.612548
0.196632
-1.36519
0.241976
1.12321
0.939455
-0.237556
-0.701899
0.473124
-0.72697
0.253846
-0.307245
-0.78634
1.09359
0.712932
-0.774305
0.0613723
1.37577
0.0464632
-1.42223
0.268745
0.0152623
0.0483665
-0.709687
0.661321
1.39415
-0.717997
-0.114975
0.069304
0.0456714
1.24041
0.570439
-0.436562
-0.670172
-0.82679
0.875157
-0.616036
2.46246
0.146006
-0.416676
-0.119133
0.00415739
0.361339
1.28972
-1.65106
1.08886
-2.36201
1.27315
0.263264
-0.608022
0.515083
0.0929391
-0.324985
0.414282
-0.0892972
1.09456
-1.19375
0.0991904
-0.614319
0.499984
1.78232
-2.52916
0.746844
-0.309875
0.429273
-0.119398
0.0634149
-0.395466
0.332051
1.0159
-0.17722
2.33731
0.984351
-1.3146
1.01171
1.0979
-1.84729
0.749386
-0.623273
0.722274
-0.0609827
0.354711
-0.949632
0.763242
0.18639
-1.44602
0.144563
-0.734845
0.590282
1.46937
0.81736
1.13061
-1.60777
0.477162
1.55883
0.15593
-1.71476
-2.91981
2.02475
0.895058
-0.654577
1.39179
-0.73721
2.31948
-0.850104
0.380125
-0.221486
0.236511
0.0595232
-0.296035
0.0556637
-0.0565037
0.000840013
1.158
0.784928
-1.94293
1.23928
-1.041
-0.198284
-0.254445
-0.000687901
0.255133
-0.437812
-0.17021
2.03115
-0.933246
-0.821771
0.83084
-0.00906875
1.00582
-2.11937
1.11355
0.371357
-1.14724
0.675437
0.657819
-1.33326
2.05527
-2.55488
2.26449
-0.282187
-1.9823
0.672538
-1.44207
0.769534
1.53743
-0.811895
-0.725533
-0.287747
0.264514
0.0232327
-0.191823
2.13168
-1.93986
1.76745
-0.859762
-1.64017
0.0386347
1.60154
-1.21323
0.815461
0.397771
1.71584
-0.802128
0.167076
0.697585
-1.23727
1.44122
-0.203953
-1.71189
2.00078
0.0183177
-0.525491
0.507173
-0.124906
-0.52134
0.646247
-0.0521018
-0.457272
0.509374
1.15961
0.322204
-1.48181
2.65221
-1.32624
-1.32596
-0.553576
0.501474
1.17313
-1.10916
-0.0639715
0.250995
-0.0429581
-2.1483
-0.820241
1.1621
-0.341857
-1.1571
0.892352
0.264748
-0.0109402
-0.157566
0.168506
0.904599
0.63283
0.0113103
0.0443534
-0.218985
0.455496
-1.30522
0.0679586
-1.5005
1.84836
-0.347864
-1.50379
1.51481
-0.0110215
-0.920014
-0.778303
1.69832
-0.865593
0.41391
0.451683
0.693902
-0.778241
0.0843399
1.90188
-0.0895645
-1.81232
-0.0651012
-1.49192
1.55702
-0.858803
1.53424
0.414684
-1.24955
0.834866
-0.831161
2.61348
-1.5324
1.21453
0.317878
-0.199093
0.21344
-0.0143475
1.04161
-2.26888
1.22727
-2.13256
0.8879
-0.727303
-1.52172
2.83879
-1.94743
-0.891359
-0.808532
0.769651
0.391433
-0.417248
0.0258146
-1.20014
-0.550401
1.75054
-1.9084
2.72264
-0.814238
2.40894
-2.01384
-0.395104
-0.0872521
-0.320877
0.408129
-1.12722
-1.04072
2.16793
0.378501
-0.0573414
0.853147
-1.50772
-1.43392
-0.438227
1.87214
0.27289
0.0694323
-0.342322
0.21324
-1.03348
0.786047
0.260662
1.64343
-0.0845997
-0.394322
0.315741
-0.463745
0.58433
-0.120585
-0.600579
1.76019
-2.3789
1.25169
0.733222
-0.996736
0.263514
-1.554
0.363618
1.19038
0.55291
1.85603
2.40997
-1.36836
1.9595
-3.02742
1.06792
1.85488
-1.7109
-0.143986
0.175287
-0.969692
-1.0627
1.42404
1.21178
-1.77131
1.41094
-3.37217
1.96123
-3.24055
1.44711
1.79345
-0.183591
-0.625589
0.413134
0.375768
-0.788902
1.2689
-0.499722
-0.769183
-0.0115125
-1.48009
1.28827
-0.604479
-0.217291
1.21829
1.50652
-1.23759
-0.268931
-0.0279822
-0.337806
0.365788
1.20137
0.235926
-1.4373
-0.535786
0.384619
0.151166
-0.95149
2.78565
-1.83416
-1.34121
1.33811
1.2946
-0.879912
-0.300416
1.11089
-0.810471
1.79378
-0.787954
0.279705
-0.0210924
-0.258612
0.52742
0.400169
-0.927589
-0.316037
0.328225
-0.012188
2.92834
-1.942
-0.986335
0.561068
-2.46947
-0.349006
0.0329687
-1.60862
0.377572
1.23105
2.33174
-0.967919
0.447578
-1.94807
3.36054
-1.64468
-1.71586
-0.0396103
0.3125
2.12123
-1.47147
-0.649755
-1.23176
0.160329
1.07144
-1.85869
1.8109
0.0477848
1.63185
-2.20168
0.569822
-0.0592963
0.0345921
0.0247042
-0.952187
1.13573
-0.183541
-0.285855
-0.356864
0.64272
-0.398593
0.0887185
-0.390224
0.0652389
-1.16683
-1.19518
0.94548
-2.84959
1.90412
0.830537
0.0579994
-0.888537
1.03653
0.177004
3.20739
-1.79645
-0.929329
0.804422
1.02035
1.3114
-1.11018
0.193395
0.916783
1.19378
0.92745
0.951779
0.0366387
0.212717
0.617821
-0.683206
-0.127934
0.811139
0.00953296
-0.208626
-2.72998
1.77849
0.172839
0.545446
-0.718285
-1.9396
1.87329
0.0663035
0.209762
0.0023468
-0.212109
-0.207992
-0.342107
0.550099
1.49088
-1.7065
0.215621
-1.58242
-1.65814
2.07641
-1.36303
-0.713378
-0.265701
0.237719
2.34483
-0.712976
-1.82738
2.77286
1.5247
-0.181047
-1.34366
2.36826
-0.942982
-1.42527
1.73963
-0.662739
-1.07689
1.42936
0.0953417
1.82888
-1.12389
-0.704985
-0.451907
1.67096
-1.21905
0.493456
-1.13979
0.646338
0.271099
-0.228019
-0.0430799
-0.108431
0.0864273
0.0220041
2.31905
-2.03753
-0.281521
-1.69303
-1.22678
0.989797
0.516722
-1.7732
-0.166394
-0.385356
0.912776
0.843156
-1.71218
0.86902
0.00627499
0.385158
-1.06279
2.22079
1.06956
1.85877
3.14665
-2.0786
-1.06805
-1.80721
1.36899
1.16748
-1.97667
0.809188
-1.24112
-0.190898
1.43202
-0.827354
-0.262425
1.08978
0.91609
0.257041
1.21637
-0.483147
0.927731
-0.397191
-0.784978
-1.15821
1.84357
-0.685357
-0.558163
0.094418
-0.706426
0.40601
0.18156
-2.04024
0.153434
-1.49464
0.517095
-0.377438
0.482823
-0.105385
-0.115087
0.653388
-0.844326
0.567313
0.277013
0.976121
0.118442
-0.523528
0.0914029
0.432125
0.88819
0.351092
-0.829307
1.67246
1.1774
-0.239932
-0.525207
-1.02879
3.60216
-2.79156
-0.810608
1.70639
-1.94932
1.05926
0.89006
1.57278
-1.78219
0.209404
-1.00834
0.70109
-0.318616
0.0641705
-0.527986
-0.837201
0.783215
-1.23357
0.450351
0.871695
0.95718
1.04432
-1.89417
0.849851
0.689298
-1.23585
0.546549
-1.95066
0.368699
0.0888515
0.850603
-1.1721
1.18864
-0.0165429
-0.390467
0.670383
-0.279916
-1.22043
0.137907
-0.283108
-0.569658
0.852767
0.279092
0.000649851
-0.279742
-0.620176
-0.593056
0.643222
0.931467
-1.57469
1.9383
-0.744521
0.872181
-0.904757
-0.103579
1.12613
-0.436828
-1.40032
-0.13208
-0.264691
0.310125
-0.0454346
1.52966
-0.313032
-1.11838
1.62753
-0.509142
-0.314311
0.380369
-0.0660585
1.17459
0.0943152
-1.0163
-0.695875
-1.14951
1.94076
-0.791247
0.959084
-1.85248
0.893398
0.944686
1.13173
-0.28831
0.262274
0.0260355
0.284133
-1.52526
1.1366
-1.73028
0.593673
0.0815971
0.141322
-0.271295
1.40191
-1.23618
1.38961
0.0743837
1.7805
0.344021
-1.88711
-1.20524
0.924973
0.280263
1.40581
-0.359266
-1.04655
1.92051
-0.429633
-1.65495
-0.938092
-0.786386
1.20465
-0.325007
0.24075
0.0842579
0.6824
-0.7482
-1.63645
1.36516
1.91948
0.559931
-1.69718
0.5788
1.49982
-0.510018
0.653945
-0.449418
-0.204527
0.000557907
-1.1074
1.10684
-1.79166
0.30992
1.48174
1.6139
-1.6139
-1.10284
1.86504
-0.7622
-0.301531
-0.221997
0.967485
-0.484983
-0.482501
-2.00225
2.09372
-0.091474
0.815046
-0.0533168
-0.761729
0.632297
-0.183512
-0.448786
0.318539
-0.526531
0.0551171
1.13704
-2.96443
-1.57654
1.86908
-0.29254
-0.622989
1.26621
-0.136031
-0.0102884
0.146319
0.384644
0.351613
-0.736257
-0.792559
0.967846
2.84445
-1.94793
-0.896522
-0.24756
-0.960216
1.20778
-0.587728
0.618115
-0.0303876
0.406308
-0.606436
0.200128
-1.87293
0.942717
0.930216
-0.516616
-0.345138
0.577584
0.0763613
-0.0487231
0.123753
-0.0750301
1.23832
1.08073
-0.110936
-0.0250944
-0.201718
-0.379407
0.581125
-1.10735
1.73796
-0.630617
0.0716415
0.467241
-0.538883
0.905047
-0.807753
1.08968
-0.613031
-0.476646
0.164582
-0.950922
0.43766
1.46422
1.01599
0.546649
-1.56264
1.04186
-0.764926
-0.276929
-2.0292
0.389026
-0.600494
0.293658
0.306836
0.619379
1.63651
-2.25589
-1.34932
1.15842
0.133675
-1.83176
1.69808
-0.346062
0.25881
-0.218609
0.234155
-0.0155463
0.117731
-0.800936
-0.122597
0.479948
-0.357351
-1.36338
-0.245246
1.22462
1.27056
-0.769345
-0.501217
-0.359223
0.0449125
0.2252
-1.33548
1.11028
0.485455
0.960796
-1.44625
0.760189
-1.3741
1.61702
-0.242925
-1.50648
1.05458
-0.131411
-0.167365
-0.727006
-0.430094
-0.636208
0.135732
0.500476
-1.87673
0.769382
1.2481
-1.49566
0.67333
0.826485
-0.808158
0.737358
0.0708001
-0.0849822
-1.84405
1.92903
0.446517
-0.650396
0.203879
0.689285
-1.70559
-1.29393
-0.20986
-0.771715
0.0627747
0.432254
-0.0754135
-0.35684
1.26203
0.10689
-0.102241
-0.00464927
2.11756
-1.49818
-0.78552
1.71205
-0.926526
0.587531
0.451441
-1.03897
-0.662005
0.315943
-0.57249
-0.0637179
0.709187
0.258298
-0.654307
-1.19298
-0.255938
-0.00875308
1.15667
0.961351
0.216048
-1.72493
2.00095
0.171582
-0.714162
0.54258
-0.18713
-1.64593
1.83306
0.46596
-0.534827
0.0688669
-0.469101
-0.396492
-0.377762
0.871218
1.51984
-0.847304
-0.650584
-0.193742
-0.0433239
-0.910588
0.953912
0.731933
-1.65195
-0.138751
-0.876135
1.01489
0.458433
-0.95709
0.498657
-1.2425
-0.0333377
1.27584
1.31645
-1.26587
0.0165976
0.246148
-0.262745
-0.524419
-0.0633093
0.405739
0.80775
-1.21349
0.336208
-0.408437
0.0722282
1.07376
0.601744
-1.6755
-0.434564
1.81033
0.263121
0.0159712
-0.9844
-1.40449
2.38889
0.874768
1.15638
1.75216
-1.2667
-0.839469
0.55636
0.00487474
-0.113306
-0.739797
1.90728
0.205662
-1.49099
1.28533
1.57374
-0.220399
-1.35334
-0.797111
1.20126
-0.404154
0.746545
-0.867801
-0.656321
1.52412
-0.0303137
0.096861
-0.0665473
-0.535996
-0.989528
1.52552
0.779535
-0.39489
0.170566
-0.181506
1.03013
-1.56612
-1.36798
-0.469035
1.83701
-0.0177407
-1.08369
1.10143
0.626626
2.32143
-2.41072
0.0892931
0.457713
-0.163437
-0.294277
-0.0713307
-0.736828
0.495905
0.59768
-0.809114
-0.0182391
-1.60147
2.00445
-0.402977
0.858263
-0.685424
0.043532
2.01174
-1.90269
-0.57113
0.163626
0.0228146
-0.186441
1.06065
-0.0993006
-0.509834
0.554836
-0.045003
-0.706291
0.420436
-2.50733
1.78003
1.72378
0.354409
-0.143758
0.550066
-0.48973
1.07726
2.79952
-1.66247
-0.517836
0.00800219
-0.316015
-1.32044
0.364986
0.597468
-0.57915
-1.84644
0.0547855
-0.341582
0.504577
-0.0580607
-1.75504
0.885062
0.869981
1.27018
0.239789
0.496581
-0.185746
-0.310834
0.718228
-0.633113
-0.0851144
-1.38475
0.498649
-2.17776
1.02825
-0.526263
-0.281957
0.80822
-0.00909044
-0.535991
0.545081
1.9301
-0.026645
-1.90346
0.477312
0.0339254
-0.511237
-0.332345
-0.617287
0.556582
-0.0834581
-0.187558
0.204995
-0.0174372
0.960307
-0.0464324
-0.913875
0.063836
-0.251394
1.18781
-1.14135
-0.0655762
-0.356954
0.42253
-2.0231
0.421625
-0.00516841
0.107746
-0.934537
0.717854
0.552708
-0.0725072
-0.856821
0.529203
0.437801
-0.967004
-1.09339
-0.328062
0.690738
-0.519156
0.532761
-0.469346
0.274191
-0.664658
0.533842
1.04088
-1.57472
1.18116
-0.226045
-0.955115
-0.996815
-0.445258
0.56148
-0.25274
-0.30874
0.587163
-0.650427
0.0632643
2.18333
-0.0655077
-2.11782
0.220252
-0.0148241
-0.205428
-1.05053
1.4564
-0.40587
1.15679
1.11473
-2.27152
-0.372556
0.0243792
-0.67912
1.00175
-0.322628
0.515587
0.224713
-0.7403
-1.9432
1.39167
0.551527
0.195374
0.00962118
-1.70111
0.333135
0.737634
-0.42502
-0.312615
0.80769
-1.11905
0.311359
-0.264126
-0.427342
0.274557
2.04687
1.66082
-0.337053
-1.32377
-1.57712
0.203021
0.667179
-1.19239
1.79306
-2.89997
1.10691
-0.262203
0.675337
-0.0195644
-0.674056
0.472338
-0.375055
0.519617
-0.591629
-2.10134
2.69297
1.83725
0.507575
-1.4911
1.58929
-0.0981857
0.0969712
0.335283
-1.03198
-0.343466
-0.294051
0.330418
-0.0363671
-1.85699
1.4005
0.456492
-0.301994
1.22097
-0.918979
-0.226506
1.0342
-0.988253
-0.249712
1.23796
-1.65453
-0.508644
2.16318
0.823106
-0.744877
-0.0782293
-0.600764
0.0271055
0.573659
0.126508
-0.0437802
-0.0827274
-1.86297
0.0814867
1.78148
0.0432673
0.473313
-0.51658
1.52413
-1.69741
0.173283
-0.865757
-0.528505
0.532635
-0.00413042
0.0323134
-0.326364
-1.66065
0.109685
1.55097
1.73746
-2.56862
-1.89251
1.65627
0.236245
0.398837
-0.0626287
2.11422
-2.07069
-0.165594
-0.223066
0.388659
-0.0316135
0.412146
-0.380532
-0.19021
1.46017
-1.26996
1.19038
-0.264838
-0.925546
2.02856
-1.92993
-0.0986291
1.27408
-0.440407
-0.833671
0.0823333
-0.546746
0.464413
-0.690312
-0.0445327
-2.05727
1.7856
0.27167
0.0885571
-2.14583
-0.447721
0.687342
-0.239621
-1.00883
-1.0287
0.503943
-0.394049
-0.109894
-1.56981
-0.453281
-0.46874
0.339652
0.129088
-0.212508
-0.323278
-1.9578
1.87987
0.0779336
-0.31099
0.0270753
-0.177749
0.52676
-0.0494488
-1.08142
0.129235
0.405727
-0.425112
0.0193849
0.87598
-0.824543
-0.0514361
0.922884
-0.107838
-0.452632
1.22149
-0.046897
0.732413
1.01123
-0.692364
-0.318866
-0.189156
0.883057
-1.3798
0.911646
0.468153
0.174343
0.0210308
2.46645
-0.629195
1.32149
-1.40647
-0.293486
-0.330941
0.624427
1.18373
-2.74895
1.56522
1.22255
-1.24029
1.6556
-0.762962
-0.892637
-0.0129058
-1.1713
-0.208495
-0.945786
1.73501
-0.789226
0.112062
-0.621982
2.58148
-2.08323
0.51342
0.14327
0.127829
-0.210928
0.0444934
0.338211
-0.009986
-0.891707
-0.827531
2.21315
-0.822818
0.355995
0.091767
-0.447762
0.0873324
0.544965
-1.31725
-1.2302
2.54745
0.961272
-0.0451822
-0.0151283
-0.354176
0.369304
1.64276
0.329493
-0.0813669
-0.248126
1.64601
-1.11217
-0.681198
-1.90417
0.327629
-0.535144
0.034788
0.500356
1.56814
1.7924
-1.79312
0.58792
1.2052
1.92813
0.100429
1.30288
-1.82526
0.522377
-1.61527
0.0177211
1.59755
-1.70307
2.17248
-0.469413
0.351773
-0.0171398
-0.334633
-0.881265
2.61872
-0.495648
0.461345
0.0343031
0.0772421
-1.56835
1.432
-0.912252
-0.519745
-1.80793
2.34802
-0.540084
-0.443608
1.22337
-0.779762
2.32489
-1.02904
-1.29585
0.0982122
-1.19149
1.09328
0.192425
0.0417305
-0.893441
2.05023
0.734216
-1.83706
1.81352
-0.854435
-0.44024
0.374664
-1.65994
0.0446729
1.97536
-0.931041
0.0470608
-2.46485
0.681726
0.001519
1.26112
1.25333
-2.51445
1.09925
-0.365219
-0.734035
0.791945
-1.62001
0.828064
-0.398936
0.0199856
0.378951
-0.424222
-1.06456
1.48878
0.769177
-0.494986
-0.145564
0.622501
-0.476936
0.216378
0.391422
-0.607801
0.166531
0.337412
-2.08944
2.46014
-0.370698
0.546072
-0.080112
0.951577
0.478234
-1.42981
0.448227
1.54296
-1.99119
0.450367
0.955447
-0.066187
2.33067
-0.034798
1.58924
-1.55444
0.152866
-0.0812246
0.0121836
0.0168097
-0.0289933
1.84876
-0.912311
-0.936447
0.795024
0.860575
0.0538471
0.0256306
-0.0794777
-0.451393
1.51338
-1.06199
-0.023695
0.438238
-0.414543
1.49665
-3.32055
1.8239
-0.788636
-0.749327
1.53796
1.5122
-0.310828
0.467303
0.631951
0.289241
-0.0325595
-0.256681
0.635415
-1.59563
-0.412795
0.202371
0.210424
0.42583
-0.0614102
-0.36442
-0.053777
0.246202
-0.104425
1.23846
-1.13403
-0.386897
2.15175
1.4378
-1.25531
-0.182491
1.35698
-1.02852
-0.905101
0.382017
0.523084
0.246635
-0.731618
-0.91535
0.325601
0.58975
0.168008
0.328573
0.298997
1.45642
-1.75542
0.597479
0.362829
0.245278
-1.89981
-1.12067
0.203522
0.917151
-0.793511
-0.45957
1.25308
1.12924
-0.600042
-1.67067
1.04768
0.478791
-0.376174
-0.102618
-1.0901
2.60926
-1.51916
-0.864656
1.02924
-1.26554
1.12592
0.139618
-1.16382
2.3736
-1.20979
-0.0443215
0.513026
-0.468704
0.600887
-0.609978
-1.87552
-1.28502
2.12289
-0.83787
-1.13182
1.49543
0.967517
-1.12625
0.158736
0.00587322
-0.329599
0.323726
-2.24343
1.37466
0.868768
-0.0585124
-0.215237
0.27375
-0.417976
1.26038
-1.45059
2.644
-1.46027
-0.187268
-1.01797
-1.41434
1.37954
0.853018
0.0393346
0.574582
0.202846
-0.777428
-0.772997
0.713336
0.0596618
0.418218
0.342062
-0.760281
0.86046
0.636148
-1.49661
0.0625599
-0.71354
0.65098
-1.32329
-0.483069
1.80636
0.485188
-0.479315
0.449144
1.39961
-2.07241
1.09975
0.972655
0.588849
-0.817188
0.228338
0.0153455
0.462787
-0.568827
0.10604
-0.998165
1.61345
-0.752985
0.336644
0.475769
-0.393436
-1.45795
-0.399037
0.934513
0.457274
0.0519911
0.660941
-0.0526203
0.432703
-0.380083
-1.49332
-1.13089
2.62422
-0.00513607
0.294377
-0.950679
-0.128826
1.0795
0.176428
0.539781
-0.716208
0.0235334
2.22178
-1.4374
-0.784382
0.412349
1.24847
0.188903
-0.410789
1.50684
-1.09605
-1.10517
1.5626
-0.45743
-1.0479
-0.44905
1.49695
-1.0312
0.352085
-0.591116
-0.313984
1.88017
-0.919005
-0.961169
-0.23971
-0.318309
0.558019
0.582239
0.232083
-0.814322
-0.412663
0.455931
-0.416197
-0.131297
0.547494
0.646849
-0.0683327
-0.485243
-0.0164339
1.01949
0.860687
-0.655583
2.1037
-0.592359
2.78154
-0.52743
0.287719
-1.5749
0.526996
1.51981
-1.23568
-0.302209
-1.37524
0.324706
0.135191
-0.582912
1.28552
-1.28496
1.6836
-0.110812
-0.426355
-0.300615
-0.289503
-0.190549
0.480052
-0.685894
-0.0884105
1.55022
0.283033
-1.83325
-0.090244
-0.503771
0.594015
-0.360489
1.17468
-2.07254
0.897865
1.62875
-0.104616
-2.61644
3.07419
-0.457752
0.428641
-0.390154
-1.81896
-0.424473
-0.455097
1.81914
-0.0335347
1.70941
1.97316
-0.741856
-1.2313
-1.15708
-0.0872337
1.24431
0.489386
0.840215
-1.3296
-1.43537
0.192865
-0.38582
-0.0812004
0.467021
-0.960391
1.16605
0.3665
0.906666
-1.27317
-0.0810075
0.0149983
0.0660093
-1.76917
0.218207
1.55096
0.962189
1.68181
-0.625543
0.949029
0.325049
-0.354625
-0.245869
1.92601
-2.20819
-0.542782
0.600549
-0.0577664
-0.0230829
-0.349473
1.34998
0.0157006
-1.36568
2.08278
-2.67513
-0.00469475
-0.0546015
-0.811369
0.978775
-0.167405
-0.942248
-0.718402
-0.0739465
0.679475
-0.605528
-0.103379
-0.233005
0.336384
0.299885
-0.768986
-0.591363
1.25854
-0.620733
0.0944694
-0.364983
0.397296
-0.413718
0.798337
0.0205469
0.0140452
-0.458238
0.435233
0.023005
0.479992
-0.531939
0.0519461
-1.21795
1.23888
0.189716
-1.14039
-0.132435
-0.676097
-0.113696
1.1833
-1.06961
0.734176
-0.86211
0.139428
-1.41623
1.2768
-0.129228
2.13762
-2.0084
0.632196
-1.79041
1.01857
-0.0429404
-1.84957
0.720701
1.49245
-1.3947
-0.275966
-0.950661
-0.998661
-0.949522
0.379864
-0.143754
-0.029621
0.173375
3.02068
-1.45254
1.48168
-0.345077
-0.50954
-0.36356
0.8731
-2.18612
1.08654
1.09958
-0.168092
-0.292452
-0.119821
-0.408684
0.379605
-0.205084
0.177203
-0.254347
-0.241301
-0.335307
-0.154426
0.489732
-0.247002
1.79722
0.736673
-0.287395
-0.449278
1.74855
-2.27901
1.01919
1.25982
0.262045
0.649221
-0.911267
0.447687
0.309272
-0.756958
-1.15564
0.712028
1.37057
-0.12582
0.708058
1.761
-1.94813
0.924332
-0.408744
-0.692075
1.32749
-1.62601
1.15941
0.466595
1.29092
-3.27595
1.98503
-1.30357
1.48315
-0.179586
0.656764
-0.845919
0.0277564
0.287707
0.5354
1.24724
-2.93679
1.20143
-3.3903
2.15732
1.23299
0.438565
-1.59565
1.18926
0.0170684
-1.24883
0.253396
0.662651
2.07992
-0.754688
-1.32523
-0.122572
0.492084
-1.2856
0.382032
-1.77144
1.68421
-1.37932
0.511523
0.887968
-1.10221
0.342041
0.760172
-2.05228
1.16017
0.892107
-0.604656
-0.275435
0.733867
-2.01489
1.43289
0.582005
1.72364
-2.60491
-2.09412
0.0046861
2.91378
-1.12071
0.615506
-0.367501
-0.248005
-0.0559642
-0.344294
0.400259
0.270981
0.777752
1.01722
-0.398131
-0.704082
0.227305
0.541873
0.33116
0.799403
-1.13056
0.865985
-0.490217
-0.0545608
-1.89345
1.94801
-0.67704
0.486297
-1.3451
-1.28725
-0.904557
2.19181
0.522008
-0.759564
-1.4502
0.442839
1.00736
-0.0650045
0.0254043
0.0396001
1.94065
-2.53227
-0.00360978
-0.80776
2.7586
-0.0728111
-2.68579
0.100576
0.255419
-1.69651
0.495418
1.20109
-1.6662
0.877567
0.464788
-1.56996
-0.619785
0.0770027
-0.0385154
-0.026489
-0.0673444
1.64108
-1.13207
1.53413
-0.402058
1.52958
0.00517102
-1.53475
-0.930123
-0.0185116
-0.358927
0.0968108
1.51709
0.312461
0.0679083
0.691546
-0.491452
0.189921
0.98641
1.16874
-0.750525
-1.83446
-0.123344
-1.54636
0.39685
-1.86832
0.393062
0.416285
-0.809347
1.7011
0.11203
-1.81313
-0.264313
0.247173
-0.743591
-1.43417
-1.48922
-0.292964
-0.733044
2.81582
-0.674748
1.0051
-0.330357
-2.10338
0.610051
-0.660935
0.992095
-0.897496
-0.857547
-0.922854
-0.450037
0.534377
0.8911
-0.0151202
2.09619
-0.277052
0.905297
0.204878
-1.11017
0.12913
0.981756
0.59852
1.97649
-1.84282
-0.142661
-0.47735
0.731196
-0.900267
1.09366
-0.99927
-1.82937
0.498668
0.370413
-0.869081
-1.65466
0.0407603
-0.318781
1.55607
-1.23729
0.0473025
-2.66374
-1.21563
1.45156
2.64609
-1.27137
-1.37471
-0.135459
0.429117
1.33971
-0.473296
-0.866414
0.585582
-0.653915
0.0684345
-0.0562509
-0.232056
-0.0932179
0.325273
-0.190984
0.765566
-0.982173
2.70582
0.00413438
-0.398183
-0.55595
-0.244731
0.800681
-0.240238
2.18088
0.416052
-0.476281
0.0602296
-0.804091
1.20983
0.69083
0.822548
-1.04078
-0.0798939
1.15665
-0.448814
-0.707835
0.0263582
-0.136894
0.110535
0.24826
-1.36165
1.11339
-1.80505
0.315829
0.475431
-1.46807
1.86492
-0.026832
0.612414
0.335227
-1.00997
-1.62869
0.842308
-1.89653
0.570288
-0.983077
0.190518
-0.631876
-1.14093
1.7728
-1.74338
-0.0283361
-0.122845
0.151181
1.81129
-1.48055
1.40982
-0.920435
0.160483
1.08027
-1.24075
0.194412
-0.580232
-1.01105
-0.754705
1.76575
-0.97651
0.192769
0.783741
-1.90048
2.54742
-0.64694
1.34705
-1.18778
-0.159266
1.21882
0.0521807
-1.271
-0.934505
-1.3445
-0.619219
-0.152496
0.959521
1.35995
-0.0127727
0.241398
-0.228625
-1.33928
-0.357232
1.18243
1.04799
-1.07129
1.34854
-0.277256
0.287121
-0.368488
-0.0144724
0.328521
-0.314049
0.348998
0.387675
-0.199387
-1.81551
-2.12365
0.452708
0.0260835
0.874544
-0.0884965
0.181038
1.34533
-1.52637
-0.972539
-0.108883
0.856399
1.0819
0.150425
-0.588236
-0.37942
0.114983
0.264437
0.00300444
-0.706678
0.703674
0.012693
-0.0103462
0.914382
1.71867
-0.846974
1.43417
-0.947877
-0.267124
-0.535337
0.802461
1.41115
0.259807
-0.0656014
-1.4031
0.97888
0.986291
-1.22653
-0.654017
-1.34157
1.99559
-1.05056
-1.13557
-2.00779
2.02385
-0.0160648
-0.392623
-0.516429
0.32588
1.10762
0.61105
0.903767
-0.244954
-0.658813
-0.535354
-1.00861
-0.627775
-1.04309
1.67086
0.921445
0.039827
-0.138905
-0.273889
1.10662
-1.85021
0.737246
-0.675394
-0.977686
1.54678
-0.569096
0.565973
0.732045
0.761172
-1.49322
1.98276
-1.08296
-0.899798
-1.39582
-1.02842
1.74981
-0.721395
-0.0632052
0.968502
-0.638289
0.611457
0.818832
1.50605
-0.480045
0.424081
0.066095
0.0407953
1.79569
-1.01077
1.18745
1.83323
-0.879393
0.496934
0.382459
0.382062
-0.675548
1.35852
-0.00854388
0.279719
0.335787
-1.1854
-0.184075
1.36948
0.415338
-0.033427
-0.381911
0.380519
0.077194
0.241653
-1.94472
-0.623525
0.741256
1.22831
-1.17374
-0.0545648
0.378502
0.778146
-0.350334
0.164588
0.633224
0.421457
-1.05468
-0.580487
1.89948
0.294138
-0.880819
1.85184
-0.971023
-0.364455
0.580833
-0.00467973
-0.0763278
2.0733
-1.08361
-0.689592
-0.256607
0.704293
0.67188
-0.804315
-0.400006
0.355685
-0.573844
-0.330084
-0.0291391
0.770515
-0.377254
1.54715
-1.1699
-0.198201
0.149478
-0.41933
0.196264
-0.723751
0.104532
-2.34912
1.36472
0.564613
0.437135
1.07244
0.488369
-1.56081
0.254141
0.20095
1.39172
0.872638
-2.26435
-0.275218
-0.0159352
0.291153
0.624117
-1.40964
1.86342
0.782667
1.46747
-1.28643
-1.76821
-0.0356855
0.0947927
-0.768837
0.821894
0.580013
0.81687
-1.39688
0.897014
-0.162838
-0.0462702
-0.631138
-0.248254
-1.11778
-0.590505
0.83714
1.13204
0.580002
1.00352
-0.966085
-0.0374346
0.423324
0.0119084
-0.128957
0.548075
-0.0680829
1.40775
0.327312
-1.73506
0.122295
-0.457602
-0.503675
0.312457
0.191218
-0.732714
-0.0336941
0.766408
0.376952
1.1142
-1.49115
0.426381
0.702864
1.24328
-0.0369558
-0.577364
-0.151952
-0.3395
-0.162328
0.300274
-0.137947
-2.3332
0.811482
1.58568
-1.20934
-0.376344
0.0352425
-0.32516
0.289918
1.51726
-1.62169
0.611976
0.309469
0.741095
0.668726
-0.328157
-0.0019271
-0.121567
0.459724
-0.338157
-0.881045
-0.285406
1.99862
-1.02716
-0.97146
0.474679
0.0859778
-0.560657
0.908852
-1.42905
0.520198
0.302294
1.00531
0.120816
0.799341
1.16177
-1.96111
0.315774
-0.437341
-1.21601
-0.711006
0.423612
1.49897
0.00726433
-1.50623
-2.02963
-0.397615
0.344995
0.0154417
0.0101888
0.614447
0.364328
-1.30397
1.00197
0.012817
0.22072
-0.0893067
0.235312
-0.814451
0.974934
0.00675552
0.590712
-0.13867
-0.142138
1.17867
-0.0158917
1.01941
-0.507521
-0.28799
-0.413997
1.04722
-0.191065
1.54787
-1.3568
-1.45222
-0.24889
-0.958728
3.08642
-2.12769
-0.506993
-0.204013
0.683817
-0.117448
-0.0327967
-0.535601
0.568397
-1.6092
0.525586
0.327316
-0.310719
1.46443
-2.78168
1.23608
-2.64056
-1.14607
1.17334
-0.894213
1.06877
-0.647309
0.0196924
-1.03196
1.28022
0.00153783
-0.339343
0.103338
-0.848215
-0.281576
-1.08133
1.36291
0.576306
1.98499
2.86793
-1.88546
-0.982474
-0.450854
0.191677
0.496341
0.0434694
-0.53981
-1.5126
0.380525
0.446889
-0.021059
-0.0100477
-0.295603
0.305651
1.97523
-2.93396
0.190538
0.836504
0.164097
-1.0006
-1.74478
1.55372
0.322476
0.0814873
-0.403963
0.875396
-2.16041
-0.325716
0.00413078
0.321586
0.415814
-0.0933379
0.00611295
1.39634
-0.945977
1.05733
1.04512
-0.618741
-1.81943
0.532185
-1.17938
1.06783
0.111548
1.29725
-1.95127
-1.01642
-0.554605
1.57103
-0.0791948
0.894656
-0.639095
0.585778
1.92215
-0.277748
-1.64441
-0.012828
-1.82163
1.12522
0.0935989
0.871757
0.467953
-0.355122
0.000945629
0.331747
-0.454164
-0.779402
-0.0294269
-0.056546
0.0859729
0.0140388
-1.26036
1.24632
-0.267328
0.787424
-0.520096
1.34017
-2.67075
1.33058
-0.0305889
-1.01041
-0.0511053
-0.131668
1.20103
-0.720567
-0.367325
1.08789
-0.769249
-0.594129
0.924593
-0.55418
0.0494036
-0.442072
0.392668
1.92959
-0.857152
-1.63882
-0.172075
-0.202378
0.374453
0.590918
0.250795
-0.841712
0.532909
-1.47341
0.940504
0.215049
-1.08945
0.304861
-2.11279
-1.05886
-1.20772
2.26658
-1.68327
0.0608381
1.62244
-1.9128
-1.44142
0.137855
-0.662939
0.64228
0.020659
-2.68048
-0.58599
1.99374
0.81035
-0.372549
0.243977
-0.657974
-0.279634
0.982498
0.328344
0.248938
-0.804889
0.0360295
-0.309988
0.273959
-0.221395
-0.0663524
-0.211652
0.246894
-0.69133
0.953375
-2.18521
1.25403
0.931184
1.17012
0.0462483
0.790009
0.455773
-0.0404353
0.924142
-0.0203752
-0.942331
-0.507872
-1.09554
0.343959
0.751577
0.116275
-0.419017
0.302742
-0.932188
0.935192
-0.217292
1.40767
-0.190167
0.606219
0.809401
-1.57865
0.786315
-0.902311
0.115997
0.280724
-0.0345764
0.289708
-0.0274339
-1.76129
1.12941
-0.131077
0.605756
0.027174
-0.423734
0.39656
-2.73905
1.02716
-0.467116
0.867285
-0.400819
-0.0334826
-0.463497
0.496979
-1.12608
0.405511
-1.93325
1.73387
3.26113
-0.502528
-0.522228
0.485052
0.037176
0.250987
-0.228172
-0.335764
-1.72722
0.932335
0.79488
-0.325721
0.309786
-0.0669926
0.755733
-0.68874
0.79745
-0.185474
0.111175
0.235934
-0.347109
-0.60653
0.613286
0.116702
-0.0351045
1.00137
-2.1068
1.8261
0.102026
-1.2191
0.188423
1.66446
-0.0926011
-1.57186
0.236285
0.603309
-0.839594
0.786657
-1.67836
0.687991
-1.83713
1.14914
-0.0232915
-0.0130852
0.0363767
-1.71064
1.77482
-0.0641806
-0.856813
0.996241
1.15014
0.0402397
2.22398
-0.84825
-1.37573
-0.199254
-0.411181
0.610434
-0.289002
-0.66631
-0.0240023
-0.633072
-0.0332381
0.201339
-0.579224
0.377885
-0.179549
1.6876
-1.50805
-1.44669
0.35084
1.09585
0.470167
1.45993
0.0218501
0.190014
-0.211864
1.09673
0.467676
-1.56441
-0.0534191
-0.0903348
-0.651941
1.48321
-0.831272
-1.37249
0.187089
1.1059
0.497371
-1.5138
-0.00232085
-0.235285
0.237606
1.80706
-0.578466
-1.22859
0.798225
0.480229
-1.7779
0.950374
1.67525
-1.72981
-0.888476
0.0772865
0.81119
0.0382466
-0.160809
-0.208142
0.368951
-0.0776775
-0.226772
0.30445
-0.016112
0.264147
-0.248035
-0.795653
0.846207
-0.0505535
-1.07923
2.18584
-0.619849
0.576525
0.545929
-0.612921
0.646922
-1.10085
0.453924
-0.879407
-0.746599
0.158511
-0.0320032
-0.231687
-0.0343841
0.266071
1.7035
-0.889702
-0.813802
0.0819738
1.14634
-0.494176
-0.278822
-1.14531
0.234724
0.986781
0.619938
-1.60672
-0.0207283
-0.0217644
0.0424927
-0.0151902
0.733418
0.698434
-0.429538
-0.268896
2.68422
-1.8659
-0.818321
-2.72236
0.621021
0.105244
-1.11514