/*--------------------------------*- C++ -*----------------------------------*\
| =========                 |                                                 |
| \\      /  F ield         | OpenFOAM: The Open Source CFD Toolbox           |
|  \\    /   O peration     | Version:  2306                                  |
|   \\  /    A nd           | Website:  www.openfoam.com                      |
|    \\/     M anipulation  |                                                 |
\*---------------------------------------------------------------------------*/
FoamFile
{
    version     2.0;
    format      ascii;
    arch        "LSB;label=32;scalar=64";
    class       volScalarField;
    location    "9";
    object      p;
}
// * * * * * * * * * * * * * * * * * * * * * * * * * * * * * * * * * * * * * //

dimensions      [0 2 -2 0 0 0 0];

internalField   nonuniform List<scalar> 
13486
(
35.3373
31.213
15.4723
-19.7071
24.846
13.4783
23.9675
28.262
30.2977
23.5251
-30.6692
18.8907
36.285
14.3987
23.7573
24.0214
-19.8702
-57.2784
20.8974
33.5181
-15.7747
36.1176
30.9174
-3.95979
22.2392
-3.28299
-24.5422
8.39688
-1.8643
9.78565
-21.7975
19.684
0.239841
14.1305
28.2927
11.5935
13.594
32.4642
-7.43239
30.1196
19.7437
36.9142
4.25824
22.3349
22.1956
18.7476
-15.7873
-8.98371
13.7314
7.60385
27.0996
13.6528
14.7792
32.7317
-58.1368
25.0777
11.7815
12.9793
0.863351
11.2898
-30.0759
11.5145
-10.33
-15.1938
-16.9193
13.0489
-24.4701
35.1773
30.2382
19.1524
-24.0944
-53.7239
30.1811
-16.8298
12.3687
11.8673
12.1937
23.7699
-19.1687
17.2047
1.88393
31.3981
-10.8163
16.459
35.4171
25.775
3.28828
26.4422
28.7783
25.2134
14.2068
27.1755
34.7134
32.4984
30.6787
-14.1162
-25.1006
-30.3213
30.1055
-20.4777
11.4401
14.9302
-31.8396
10.6884
28.4626
-20.1332
29.0264
-8.42369
-17.4435
26.2999
30.0423
21.3219
32.7113
10.2199
38.3197
30.0475
22.5459
14.9826
30.2796
15.1158
-65.385
-30.2316
31.2227
-4.25052
29.7577
13.4275
27.0072
18.3711
16.1236
-8.54046
13.6631
-14.9956
-12.4442
-17.3449
27.6718
26.25
38.9004
26.4724
15.4624
28.6355
3.46136
15.1074
18.6583
16.9369
9.32109
-17.1754
15.944
35.6286
7.18361
-0.800449
22.8506
23.9763
11.0227
31.7461
19.1223
15.5976
24.7464
20.5186
31.2405
12.2336
9.49955
31.2374
2.98653
36.744
13.1359
12.0152
16.1531
41.8086
16.494
-17.2598
-14.3718
19.1744
24.4761
24.61
-18.2318
-37.5121
13.5436
1.5175
29.1259
18.4948
29.6424
9.68018
22.6285
-28.1011
17.4465
8.44814
0.351666
11.335
20.0034
30.94
14.1857
13.5512
12.1743
33.4568
15.3691
-30.6317
-11.1252
9.71474
34.1273
12.8221
-23.4996
18.222
32.44
23.3587
12.7198
16.5837
-18.6378
30.7527
12.3512
17.3717
10.0058
-2.24085
33.3021
29.0009
13.4513
19.6559
9.09326
25.3713
33.945
0.428715
-19.6718
7.03189
28.8466
9.31186
13.1155
35.0118
11.4827
-47.4512
20.057
1.42664
29.5045
15.0345
2.93274
37.3752
-32.8016
34.5129
13.1624
13.7684
34.7294
22.646
0.00387895
24.3615
10.0371
33.8338
-41.8903
30.8748
23.058
3.24013
-16.208
23.1768
-32.4028
38.528
29.4293
-4.89866
21.0419
-34.1511
19.0822
18.5031
21.6225
0.0251907
30.0515
-46.1719
23.6466
-34.7876
24.9178
-28.6953
19.3579
-24.003
29.3139
-60.6855
29.9866
28.6629
9.04787
17.4411
35.1102
4.04117
19.3312
-23.3325
-0.0131789
15.7363
-17.4037
28.2293
29.1699
-14.017
-29.6059
-22.4837
3.35837
15.5022
13.6431
29.3513
-30.0969
-0.7048
30.7599
27.7165
13.7936
12.1421
9.32389
17.6873
29.5331
22.3653
3.86762
-29.3575
16.0995
20.2238
15.916
22.6395
14.3006
23.1686
0.303604
14.1392
-7.80329
-17.967
15.8098
21.0097
-32.7803
26.4226
0.365921
28.7704
30.7546
18.5719
12.7623
-5.86479
28.9749
32.5742
38.9413
13.4981
26.2553
28.0618
17.6907
25.8367
26.5355
26.8387
11.8389
33.6868
23.0847
30.0838
39.1473
24.0348
23.5566
-50.2538
19.2689
32.3581
25.7235
22.8828
-29.159
-4.09739
26.3554
38.3578
0.287831
-6.89142
25.9286
17.4417
17.3893
-25.4615
29.429
17.9605
-17.3336
26.9974
-0.419319
-0.0119574
20.9715
11.3779
30.356
28.7029
9.15325
2.35946
12.829
-12.2938
33.6728
27.1012
3.45493
26.4326
13.0833
-31.8454
14.5445
27.2546
28.971
-28.3687
-31.6497
-5.72241
29.1881
26.4164
36.1676
30.3255
-12.6322
20.7071
16.2159
23.3726
-17.0555
-5.18875
33.0424
8.52328
20.8633
34.6941
34.814
14.4783
-21.3914
-31.8391
-17.6145
3.01103
-17.2232
20.765
28.8123
13.9248
23.6462
6.50267
32.3627
1.92616
26.8264
30.4688
22.9598
12.0157
7.14399
29.533
28.8904
32.9295
-28.9166
25.0904
-16.2693
22.8797
29.1055
16.7698
38.4056
23.9639
10.4811
11.8408
18.1292
29.1458
-24.5766
16.7006
35.983
28.8281
20.7057
13.6264
23.9619
3.70702
36.036
-6.77809
24.8077
34.8638
-15.6833
8.60115
-17.7028
6.99814
2.36152
32.053
32.0533
36.0241
-5.84219
15.2336
-29.145
23.7703
28.9738
7.79915
8.02189
28.5674
-31.204
-37.8219
-14.823
-15.2168
16.4334
32.7228
-19.9859
16.887
-15.196
28.2321
-3.05587
40.2858
34.9309
30.1999
27.656
11.7632
-15.7586
39.0634
19.9682
15.706
10.2436
30.1432
-22.5023
17.4454
24.7566
20.957
10.8997
30.7195
1.66308
-18.1658
24.0728
-4.15465
41.5927
24.1889
27.1951
30.3001
-35.848
16.8208
36.8581
24.3468
32.711
22.2104
19.0274
-29.0553
16.8408
3.90074
-20.7611
29.1662
29.9517
-32.8834
-0.0134211
13.0112
34.997
32.1179
19.5281
30.1678
27.2272
11.1928
24.7303
27.3154
-14.3342
35.8401
12.2393
19.0878
36.8292
26.4838
12.0496
26.0401
-35.7155
-31.184
21.7696
25.7538
31.3336
34.8064
-27.2894
23.9675
-27.1035
-13.9051
34.4072
18.7063
-28.8454
-32.5593
15.1181
22.8504
28.0152
-17.0074
8.13548
30.1777
33.4892
7.34592
30.0564
-17.1601
-31.2147
5.31626
20.5158
-28.938
30.9374
16.848
-29.9516
28.6014
32.0167
-0.577585
-27.2426
27.2707
34.3632
19.8264
35.4522
16.6756
24.1915
18.2364
30.771
8.62415
33.9843
-25.0614
21.0014
29.7331
16.9202
4.97481
29.0066
-15.2803
17.6452
32.2523
36.0841
-36.4208
25.7681
19.4151
11.6917
28.7543
25.2087
21.8098
-27.4738
15.423
35.3202
17.4495
17.064
-14.672
36.135
10.5317
9.84651
28.3386
27.2889
17.4085
20.6573
28.4577
17.6855
8.25427
20.1991
5.2582
35.6664
30.0044
26.0057
26.8959
0.308567
3.27079
37.6738
19.3696
37.7245
-44.3479
29.3246
11.8085
-16.3554
25.6562
23.0765
38.6341
-25.1606
26.1685
26.0815
-0.263315
22.9675
-36.0806
12.7788
29.9149
-27.3472
6.05583
2.17611
16.6159
16.6223
30.2486
0.0177046
37.2091
30.0551
11.798
-31.278
10.4601
19.5128
-29.7184
14.6166
-20.9813
34.484
1.21271
11.3342
-29.6379
36.2808
0.834496
1.13506
36.84
27.2043
-29.7565
6.50812
26.694
16.4186
29.6484
9.65845
-37.8069
20.1053
28.9401
19.1697
27.9901
37.0672
9.79463
-42.8913
28.9407
21.4888
12.9995
26.8091
25.2137
21.2036
-29.3868
16.7762
-29.9011
17.2981
34.3683
19.2711
17.5657
16.3971
18.6735
18.0578
29.079
12.725
29.234
29.4572
33.7564
-71.3275
10.1759
37.5583
3.71262
-30.999
30.3021
3.2578
30.5738
8.88497
28.3869
12.9213
-17.5994
-2.04412
-3.27239
-18.8531
22.4966
38.106
16.4035
-12.8223
10.962
29.2698
-60.2573
21.147
-29.3568
37.8044
-29.4993
24.0016
7.42585
23.0688
28.8124
22.4989
-3.92139
-8.79411
36.6443
28.7837
23.8277
28.8139
20.6944
27.8065
27.9282
23.1904
-14.254
18.8158
32.1705
23.3102
3.05283
28.1473
-31.5075
17.8877
12.2615
30.5345
29.6178
-44.7804
17.6076
-29.9286
-10.5741
17.605
16.9155
11.3637
28.3349
16.0194
7.04527
31.9575
-8.44397
-11.7108
-27.9197
9.82653
-42.7137
-3.1675
-36.1412
-32.138
29.6906
36.2818
14.383
-4.72254
36.8517
35.7563
-37.4069
-6.62216
30.4986
-12.7718
10.6609
-64.3057
16.1564
25.211
-18.3839
21.0073
24.2806
10.4115
-12.536
-2.0088
13.7876
28.6512
22.8581
25.6079
-41.7469
27.3232
35.3534
-28.8386
-32.223
31.432
22.3261
26.2561
-13.1214
10.732
-40.3502
13.96
29.4473
37.7925
30.8568
-0.410874
14.3884
29.0112
34.9044
18.481
30.8351
29.4353
35.4871
24.1285
-23.0179
17.2437
18.6747
35.2282
17.6429
22.672
26.3022
19.9246
19.217
14.2939
3.91917
28.1946
28.5298
24.6401
21.7606
-27.5111
12.1379
17.7248
25.2467
4.60804
14.2833
8.89118
-25.279
-29.7226
22.2989
10.4526
-16.305
-16.8535
8.60714
27.0879
-29.6494
-40.1187
30.9097
-37.1149
36.1673
-46.8443
-16.298
32.0418
34.4943
11.9927
16.4276
21.0584
29.2417
25.2479
-4.27809
16.2606
15.3675
-10.5832
28.363
11.6366
23.1472
-14.0498
30.1793
-24.4055
9.47969
17.7719
32.407
5.38259
-30.6985
-15.1594
36.0199
-65.3308
-44.5436
-31.3856
29.4087
-36.797
-5.89676
18.9288
24.5235
-9.23024
26.8512
-13.7133
26.9421
28.5041
31.8364
21.3051
18.1967
14.5083
25.4781
13.042
32.2532
25.2169
16.4915
-6.62405
21.0375
14.5909
16.1487
30.7474
20.4839
18.225
28.8784
-51.2667
27.9792
38.4077
14.229
1.40304
24.4045
9.00218
9.41052
19.5472
-16.4327
29.4389
10.179
3.60158
8.3408
-52.0534
33.2426
-29.9768
2.75377
28.9298
8.88455
34.0882
30.8158
33.673
19.0727
24.6229
19.0489
14.6898
27.2987
29.788
5.06639
16.7805
-17.8564
10.1376
-29.6898
29.695
-11.6212
-3.10963
-24.6414
6.90071
21.0319
28.9698
13.8247
12.4508
-17.1163
28.9762
38.1832
8.70762
-28.6345
22.8948
-7.89304
29.431
11.1015
-37.0829
32.2258
13.7223
37.1209
26.2738
28.8979
10.9353
33.0844
10.517
30.876
11.9963
-0.763394
13.6271
-23.9315
25.5689
-0.310661
19.8714
36.1127
28.9392
29.8244
34.5359
30.1753
32.3476
18.0969
30.5481
28.9505
29.5367
17.8696
11.3344
7.15822
11.4457
16.9189
31.4232
-18.2231
37.7386
6.75214
9.858
37.5909
34.5179
17.3119
-13.5611
30.0946
22.3711
19.9857
29.4343
-18.5799
10.9059
28.8672
34.1973
-27.3604
31.2055
32.9276
5.899
9.74072
32.8397
22.3575
14.8126
-27.9601
16.2173
4.1633
27.8741
27.0298
9.71378
-15.5486
7.81569
18.2109
15.8198
19.0666
34.6824
12.3653
39.9407
29.7193
20.6932
31.0992
-29.7501
-15.0346
-37.3666
29.4395
-22.44
-17.107
-23.9109
21.6976
23.3079
-49.6905
26.755
-10.1604
25.0968
-49.1234
-18.0856
27.8966
19.3839
33.2731
29.3126
29.4622
29.6074
17.2387
2.32911
5.48256
16.6014
-39.1655
18.7687
27.7469
-35.6189
18.894
9.14829
-1.96013
-29.0042
26.6137
22.0283
15.2561
7.05492
23.3992
7.3502
2.76819
16.9063
0.841203
31.1935
25.2475
33.2056
-18.4121
27.5173
9.13665
34.1525
17.3373
22.3108
-56.3179
13.8412
36.7252
37.3523
27.5743
24.8212
24.4997
29.2749
36.9775
26.6794
1.53421
-29.2033
18.1527
8.71152
-22.4753
28.9309
29.3672
-6.50008
21.4856
28.0761
28.9342
38.6608
-15.4715
25.8727
-17.4307
19.4212
34.3518
19.6291
28.26
-31.7802
24.5124
21.7244
39.5032
5.45983
7.2729
21.8558
17.1142
-28.8236
-17.7517
-61.9431
30.2917
12.6343
25.0522
35.7097
34.1851
16.674
-3.28974
4.25683
17.8441
31.8968
29.2282
34.287
25.1919
-32.1294
35.0474
29.0859
-2.13046
27.5769
29.1664
32.8687
-28.2402
6.51066
-0.491929
26.76
36.6005
23.9826
-7.82688
3.92824
38.7122
-29.8105
3.73211
37.2964
27.1563
1.45294
27.7823
-22.9816
25.5019
8.76001
-29.6444
-41.3122
-35.6702
15.8319
15.4331
-14.2172
-19.1064
-19.4908
26.3572
-17.3299
-32.0477
31.0253
27.7629
24.4699
-10.2037
18.2992
17.645
16.6495
39.7847
26.4216
6.61746
27.1543
12.5516
-35.5547
28.051
27.8787
29.3429
40.0918
0.778553
19.632
-5.26499
17.5323
26.6816
29.8374
10.9773
35.2189
25.0389
29.8505
-30.6069
15.5699
11.4702
30.4646
29.092
30.826
28.8966
38.0677
37.8676
13.0801
27.2061
32.5964
6.83031
34.3495
10.8673
37.5967
34.2813
15.7563
30.6231
21.9942
27.5171
14.3594
29.0017
2.90606
28.6177
23.9389
26.3334
13.4667
29.2221
15.9346
16.4624
36.9547
36.8422
26.5136
-17.4095
19.0888
19.1698
19.3791
26.1535
35.0504
-18.0031
29.5433
29.6969
23.2257
30.3929
-30.9585
-28.5858
9.06782
38.58
22.6614
7.23322
30.7378
13.2057
11.2767
21.7457
17.897
25.5328
22.9813
10.7744
25.252
27.969
26.5156
27.3662
37.9304
34.3337
32.6763
38.2779
36.7359
24.5298
11.7765
-28.4144
5.56049
36.6943
-36.3859
29.9256
29.0074
-30.1295
25.1282
30.8595
-13.3984
23.4356
24.1951
40.3568
-25.5263
22.3201
1.39161
31.5659
15.7475
-34.7637
36.4335
33.9228
29.7664
29.3936
8.73534
23.2694
-20.4741
37.7977
11.3006
39.3481
16.6804
-11.2617
-16.0952
24.6394
-17.5558
9.04175
5.45649
19.756
2.58706
19.6701
-35.7848
-3.47595
-9.23037
-18.9192
8.40291
-4.26165
8.73728
19.5339
-8.8128
-29.7671
30.2805
30.4949
32.8873
28.6279
21.9537
21.5897
41.8712
29.6637
-24.533
-38.0211
14.2552
25.593
28.6783
35.1913
4.2396
4.13731
27.8677
-2.32039
19.2453
32.0296
-18.2334
-29.5666
-19.2581
38.0416
-28.9531
26.4584
32.8752
16.335
27.7854
17.3892
-27.4873
-26.434
12.4824
24.3527
32.0737
32.5861
-5.95237
-18.6063
26.1451
-21.795
9.02651
16.5696
13.0117
7.67193
-3.46326
-34.187
-25.8322
-2.35878
35.7778
-19.6739
37.2773
-29.0153
14.5195
22.0642
-44.1167
34.5831
29.8299
31.217
8.12191
8.56651
-28.0513
34.1988
-17.3539
25.1652
-22.5008
31.4851
34.473
-27.4904
29.2843
36.5661
31.1352
30.4414
-4.47099
-14.1609
22.2331
3.77461
-2.2642
25.8446
26.74
15.8545
-29.4525
19.0015
12.5326
28.5666
27.122
9.65613
37.5367
17.3184
-4.96823
17.3423
28.5202
-5.00275
-5.04384
30.9914
9.7544
15.1491
12.5197
30.6257
28.582
27.9498
-3.13042
27.9908
30.9131
31.4181
12.784
10.2446
18.591
28.5292
4.13475
-14.342
-46.7704
0.517486
-23.5769
11.8445
4.37288
10.0214
-17.9699
7.02336
-28.6166
12.8567
4.9283
20.1392
-28.0619
29.8769
41.9126
20.1281
-7.66337
21.4061
17.0338
18.9626
3.01364
9.94349
-25.2097
16.9559
33.4848
1.10593
36.2879
2.87919
27.9097
28.1423
22.6332
-15.2498
25.2496
38.0994
-7.51238
28.602
28.3707
35.1427
16.6006
33.8718
30.8053
-16.058
31.5386
-25.7005
-24.8023
34.2171
27.1791
-3.2073
17.9886
32.8233
19.3011
-16.4669
10.0042
9.03329
25.8457
22.4488
28.9015
29.2994
28.2059
-4.94547
8.38799
13.5163
28.5315
39.3969
8.51852
-30.5216
-15.4225
30.0408
16.7189
16.5266
23.7918
-14.3943
27.7138
15.3094
19.1523
37.3462
20.9259
-86.267
-22.2583
-30.9808
2.9166
-17.7647
-2.16841
-29.5971
31.207
22.3502
7.23054
36.5031
-41.8238
-28.2748
0.502404
-25.2367
30.9418
-15.1999
19.6116
30.0538
-0.265215
12.5521
-17.2842
-24.7367
-42.6588
29.9504
-29.0069
13.1501
-19.6012
28.3824
30.3701
-29.893
32.6747
31.8154
35.6498
35.9826
31.2708
17.8627
38.6215
-19.034
29.7096
23.2243
-22.4388
31.5001
-45.4916
35.3823
21.6504
2.4885
-8.673
-10.8533
29.7811
-47.3894
-3.17018
17.0606
9.71237
-80.2872
23.5154
17.7047
27.2665
38.0257
-17.4153
-2.2879
16.7237
30.4111
25.6064
1.65489
41.6109
10.8814
12.6337
24.3922
4.48572
28.196
30.3809
31.6207
31.6817
-83.3287
25.3226
29.4812
18.6234
10.1498
13.4438
31.0227
30.9944
34.1308
-0.869385
15.4866
24.2967
23.3112
10.1632
-17.6311
26.3764
-27.9597
27.0873
29.3307
-19.4878
36.2923
-11.6599
37.6626
31.6273
-28.8171
0.422631
12.6434
22.8554
29.57
-30.4055
33.844
28.0666
24.6138
7.73946
18.6076
13.6083
24.5052
-19.1118
25.9347
-41.9699
28.5632
-11.405
23.4694
13.3951
31.9239
34.6379
23.9577
-11.1857
21.8157
16.9778
17.0784
22.7634
13.1317
2.60379
37.3276
9.98695
-34.8897
3.55716
-26.4692
19.9409
28.8141
-19.4146
16.5345
29.4919
26.2521
30.26
-31.0884
22.6928
37.46
-4.52457
28.3328
19.8711
15.2885
19.7125
18.6871
16.6561
37.8609
31.6145
4.97677
37.2775
33.245
31.7358
-20.7792
-11.2117
26.1596
1.71791
18.7091
-12.1703
3.26762
-10.1512
27.7633
21.5964
25.8666
26.5514
14.8061
27.2252
28.4855
-31.6666
30.5907
23.5829
28.7264
17.2722
19.8124
-30.5483
-17.4472
-31.0636
14.6746
28.3523
-24.7707
35.8789
-30.0738
28.2622
25.803
8.81669
23.3052
30.0958
21.7498
18.5907
28.9876
18.4776
-37.1433
34.8804
31.142
0.596462
-15.2314
24.6077
27.1713
15.753
23.1823
-5.06144
15.4182
19.7358
4.43486
28.5339
28.1652
-12.9563
21.6716
15.4094
14.848
-24.0433
31.7232
-30.3933
29.2887
-5.93753
26.8572
30.4515
22.9139
29.3158
24.033
-37.9421
4.52799
-12.4624
-43.9009
-8.055
-33.5482
18.4296
25.9399
14.6467
28.4642
0.334813
-20.1529
-1.88007
12.0755
30.3011
-26.2849
29.6505
19.1628
-24.3157
17.0487
-31.3605
26.3095
29.0277
13.5488
18.0807
-16.5564
31.8305
19.9203
19.5889
-29.3319
32.5236
23.2404
4.51451
30.2125
30.4414
32.2216
24.666
31.7134
-5.38115
12.2588
-15.2222
29.5665
23.8569
19.3781
20.2111
-13.0735
-30.4321
25.3502
15.1861
-30.1561
36.9312
-6.57908
32.1102
26.7062
-8.60077
10.9454
13.7655
14.174
16.812
17.5285
27.9597
6.51605
28.9733
-2.36957
23.2016
1.27488
22.0205
-13.9851
32.6239
37.5466
30.4507
24.9986
21.2642
24.448
-24.5648
8.031
-12.7177
18.6738
-3.27532
-28.5916
-16.4633
7.61979
28.8599
29.8588
-13.5821
19.2891
30.6617
7.70872
-1.48736
29.8368
12.108
-30.0203
7.38832
12.6274
0.700916
36.4343
-14.7425
29.6174
3.96182
7.56077
7.85513
29.8275
21.5421
28.1377
7.26471
5.33393
14.8769
23.9816
30.8025
28.5894
17.8771
-20.7697
13.8482
38.3532
0.553089
31.4555
32.6711
16.453
14.369
22.6109
-13.999
16.6092
27.0288
23.1764
29.5205
-41.578
30.0946
16.9428
34.1422
24.6461
27.1857
32.4061
26.4347
15.7627
-29.5774
19.5373
-24.1443
28.3199
21.4533
32.1454
16.5944
35.5515
17.8736
36.6936
-22.698
32.8415
13.8995
27.0904
-33.2436
28.271
23.2823
21.3145
35.7224
28.7408
17.6827
8.17105
24.5218
28.0101
12.7821
-17.7953
26.3927
12.074
32.9711
-29.2304
35.9207
18.6058
41.8761
35.8221
26.9985
26.1142
-33.9953
16.2058
37.1278
16.7022
14.7159
18.9512
37.8388
22.2413
28.4778
34.5526
7.00924
30.4695
16.5995
32.0839
12.0173
31.3939
29.9641
34.2845
11.6406
-18.8283
19.9173
-30.9542
23.1726
20.2575
6.32322
32.4198
34.8292
4.18777
22.8595
17.4029
33.3668
27.8573
29.1546
23.4792
-12.2482
-11.2443
-22.5873
29.2113
-2.21172
-17.8062
21.3325
27.0158
23.0627
7.82209
38.0393
15.9791
35.8397
22.237
36.5199
9.60679
18.4937
10.3469
11.2285
28.0939
28.6689
5.01985
-24.2086
-28.0688
-14.6193
34.8811
12.3306
15.4086
14.2797
-31.7433
21.9928
32.4376
24.7672
11.1952
11.1726
28.7944
39.4166
-31.4509
14.5615
29.8002
5.02729
21.8571
-38.0789
26.7413
-25.1562
-7.06168
18.4434
-30.8633
19.7458
14.843
-10.7737
-20.292
15.9782
25.8849
30.39
27.0009
38.7909
-30.6179
37.2547
-12.6767
36.0018
-29.8745
5.98033
38.1245
20.8913
-28.2052
29.8828
11.2998
30.9999
12.1698
-19.9811
18.0048
8.53798
5.31167
-31.361
20.3202
20.534
32.6266
-24.7324
21.0457
-2.39002
17.4682
12.5587
12.6395
4.46751
3.54203
0.494078
33.2103
18.4251
34.8156
21.3499
-26.0098
20.1543
6.12047
10.7952
26.9255
32.5376
38.7964
25.4294
26.8582
24.7317
-16.9702
38.0463
39.5628
30.0514
8.18559
-39.7085
-24.5929
29.2078
26.3862
21.6723
27.4549
-27.6986
16.4254
-32.6661
35.2801
-14.5741
16.9076
-37.4542
29.6087
23.5543
41.1734
39.5673
28.6884
18.5226
22.9953
-8.03005
21.5754
40.1263
23.8303
11.0889
27.2249
0.845039
17.5248
13.3969
11.0914
18.5738
11.8272
22.8265
12.1775
19.6189
34.2078
21.7462
30.3146
-42.0073
10.6287
37.4483
-12.8577
14.514
22.0567
21.1684
19.5801
-29.6309
20.9649
12.3522
8.45597
41.3351
-16.1756
-11.953
-11.6108
9.68902
24.8586
21.9426
-27.404
-8.67372
6.95724
-9.11806
6.92446
4.31634
19.5072
16.3734
16.6234
40.8456
16.8621
19.9214
19.5022
17.9079
-18.3039
14.4101
33.5605
29.3587
20.1405
-44.914
29.2413
30.2495
9.46506
-29.2038
-22.1395
33.4249
7.50261
27.8224
15.7849
35.724
15.36
-45.5794
-33.4321
30.2967
9.99807
27.2706
6.94626
39.9486
-28.4311
12.2006
-30.0162
22.131
-32.596
5.09013
-30.9347
17.7946
23.6334
-41.4288
6.89279
19.0117
12.991
1.02614
6.78694
27.739
-23.8579
28.6571
-34.2211
30.5038
37.8791
29.3259
-18.592
30.1462
16.5081
13.0154
20.5318
10.1588
-21.9629
12.6826
12.3536
23.5294
15.5342
10.6708
19.1695
-29.8309
23.626
28.868
10.5818
-31.3579
11.5126
14.084
-36.4925
25.5415
-4.7758
-32.5391
28.9027
-0.744617
25.1106
2.18607
-35.3112
-28.0611
-30.5558
41.025
20.4753
5.46537
21.2464
36.7694
37.4984
-48.3586
16.5889
28.8003
16.4227
12.2915
37.1975
24.3743
28.6
41.563
12.5191
22.3346
17.4507
35.0569
29.4253
30.393
32.112
24.895
8.70902
12.7226
21.5249
18.431
-17.2559
37.6819
15.6316
10.6307
12.4242
1.88014
24.0559
-39.9551
15.4588
17.3435
30.5256
29.9436
31.6141
-24.0354
34.7684
37.1928
-13.7632
25.5214
15.6818
-4.08526
15.3009
23.1159
19.508
7.49297
14.7953
39.4019
-25.5231
31.722
29.5254
33.5805
27.4443
27.4369
-30.1496
7.59626
25.229
10.9359
-28.9688
-1.83221
15.1051
-25.1391
32.3469
-43.4689
7.82459
18.3003
-17.1284
-39.6136
-18.9319
28.5196
16.4358
-0.331931
21.0098
-12.8654
21.1074
-16.1856
13.1835
30.2822
-27.5694
37.6472
12.598
39.0622
6.73992
-7.30809
17.6981
27.0861
28.5152
-5.26189
19.2568
13.7303
17.8229
26.9705
41.9322
33.5508
23.612
7.75059
25.1648
-75.7176
31.6086
-37.1821
23.2126
-28.5247
-34.1283
-19.7259
22.5455
8.40819
-22.0598
24.0373
25.7109
37.0353
38.4403
-17.9942
-22.0995
2.12179
4.87094
37.9425
27.8401
12.1177
20.9764
25.0752
-39.774
21.3582
15.006
11.1149
29.0809
-34.2118
22.5006
4.85276
6.93452
-4.35461
12.6356
-4.13143
-2.7752
31.1887
-49.2591
-43.9159
15.6218
-33.8468
39.7029
27.0953
27.9744
9.84193
24.2261
14.5576
23.9671
19.2876
-28.2639
-10.9163
37.8787
30.1009
15.2802
-16.4824
40.6459
-37.4727
-13.9293
-23.9032
25.0893
-33.6365
-37.5678
35.1266
14.7133
29.2494
20.6193
-22.2819
10.0521
8.02004
23.2591
-4.46381
15.5404
19.8791
29.7697
-31.7763
-16.8196
24.3158
10.9147
3.78899
3.93694
39.1592
24.0994
-29.9511
24.8991
18.7793
36.5907
25.5278
-13.1017
25.8176
32.3653
30.908
7.84296
27.2634
-24.5321
37.75
8.07034
29.1218
-28.3205
8.42467
12.4536
-33.1463
25.6641
19.864
-14.4929
-33.5598
31.991
-11.5371
14.0882
34.0782
25.9557
33.6434
27.8282
4.9237
3.54873
15.7932
29.9957
-4.94695
32.6116
27.6135
37.4856
-26.8199
33.2249
24.1969
37.582
-20.0232
7.60705
38.1135
-29.4737
27.3443
-25.8929
35.5238
37.2987
30.2216
-0.318394
28.6875
33.1487
1.713
21.4246
-48.1779
34.0878
-32.6694
-2.29087
-21.7674
-21.4126
32.8636
24.4227
-23.9279
24.3916
37.2654
11.145
14.2646
-21.0044
5.35903
28.2242
21.464
28.1823
29.3384
-24.149
39.8547
14.3979
34.2737
34.6272
15.2246
19.8234
28.9159
-1.35453
19.3147
28.7585
27.4841
11.2144
29.4261
-18.1489
36.2532
29.9414
22.3703
18.9004
31.2106
-26.9977
23.7583
33.5466
18.587
10.9128
33.0552
30.7814
7.13266
-17.4469
27.4589
31.3442
37.6464
-16.2687
38.805
38.8808
39.0696
-37.5665
32.5989
-28.6539
29.0037
33.8171
32.9613
31.2082
35.0872
41.1193
27.0396
-15.4326
20.0525
-7.81884
40.9662
24.4859
-21.1935
-30.6419
28.0655
34.8648
29.1732
21.3006
17.3645
34.7936
-10.273
30.8617
-31.8541
21.2454
14.7406
21.9649
25.9374
-29.2774
-29.9765
17.9181
12.1096
-30.7628
32.3041
13.5295
17.5909
29.2358
-27.7027
25.8176
13.567
-22.7483
-27.832
-14.6614
34.3355
35.3657
-36.1362
24.7197
32.8271
31.4746
4.78244
-27.093
31.0393
-16.973
33.8957
-17.4161
33.4241
23.9889
17.1996
32.2296
25.9022
33.3689
21.5375
21.5634
9.79281
-18.6804
-37.3219
7.43267
33.0844
-20.5806
-44.9413
-17.8675
34.5491
33.2636
20.6241
27.4468
34.6395
-2.57042
29.5768
0.201211
7.91628
29.4695
-46.9405
-25.0221
4.74857
-18.0062
15.4678
-29.0461
1.80687
-25.9365
-16.3704
28.0698
37.8116
39.7615
36.8151
-23.3766
30.9398
-28.5991
29.1269
34.3948
17.5239
32.8103
-15.927
21.2213
8.76849
14.3945
34.0274
9.19416
31.5018
-23.7913
12.4513
-18.2504
31.1719
31.4057
28.7762
-27.1575
29.3932
11.1039
-21.9314
-20.6892
20.8024
38.0155
-5.33672
12.7577
-33.0184
29.3755
28.2768
13.4134
23.6645
-26.4913
34.8758
33.551
-41.7102
12.9989
34.611
-50.1685
-30.0613
15.3998
33.0487
35.0396
-28.3789
26.8467
14.7594
37.4398
-27.713
-13.0128
14.3087
36.321
15.2181
10.6405
-19.3818
34.0051
25.9397
33.8246
13.9385
-3.83111
31.2205
40.5037
-18.0833
28.8613
14.9721
-24.5607
15.1796
21.1668
-31.0506
26.6196
-16.9404
24.039
-30.3252
3.50541
32.5213
35.2817
29.2743
-0.323532
-8.40277
31.7353
-25.25
23.9383
7.50584
23.7436
-31.1188
29.7561
31.7993
14.9676
30.9959
37.3138
-0.26098
27.9675
31.0204
-19.7987
23.6269
10.3258
23.9928
23.2916
25.938
-6.59544
20.8102
18.0559
-1.32806
34.4007
23.6472
5.62642
-49.8121
20.0142
29.6117
-27.6966
39.0135
-26.038
-16.6195
19.262
32.512
31.5934
33.7791
-8.72073
36.6242
-21.1622
27.6528
16.2066
-27.4046
27.768
22.9335
16.2339
26.721
-11.015
26.3245
-18.8005
-49.1275
12.1375
-13.4489
-17.9548
28.8936
37.0215
8.9564
-28.7289
33.0469
-7.98672
35.3945
23.6501
15.6545
24.2924
28.9784
24.3417
-22.5044
25.745
15.0806
19.0961
20.5862
-32.3541
-35.2701
12.5309
25.4144
17.0514
41.1084
30.9166
29.0635
35.6166
17.8707
30.525
-12.3712
-9.93624
-46.5703
28.8721
40.5156
29.1652
6.91923
34.3461
29.3444
29.6118
-5.77146
15.0792
23.9445
39.1532
24.2922
4.24715
34.1399
34.7393
30.6089
29.785
32.2246
26.3924
2.51523
-36.2195
31.0612
-18.8602
-17.2157
29.1978
-42.3906
18.5862
22.8186
30.9477
31.3522
31.6407
15.1276
33.6671
34.0319
16.3662
32.1992
30.5542
28.971
26.1406
26.4392
24.1354
14.487
32.6376
32.0899
-83.4693
29.1554
14.922
10.0706
36.8441
32.607
1.98707
-29.4955
-9.67089
33.0232
27.0798
20.0595
12.9763
17.7897
-25.6245
18.2393
-31.4577
13.1275
27.055
0.36178
-14.2724
-27.1373
35.9754
-30.9452
-10.2624
-32.7229
37.0627
-26.3557
15.5296
18.4122
-22.4727
26.4994
27.9719
26.1246
35.0083
27.4775
15.5483
-10.5665
-30.0218
3.46057
30.8628
-63.0556
-28.2221
-27.2078
-2.77209
-10.0311
-33.2056
-10.7827
18.9007
20.2401
28.6508
33.3411
0.630929
-4.54315
35.035
30.8966
-28.1244
15.5957
-8.76052
26.007
15.7664
24.2083
26.6782
-11.094
-24.9055
-26.7145
19.3567
-20.8429
-12.2888
17.1951
-24.2481
-17.318
-23.5841
-31.2491
16.3439
-6.98596
23.9839
-27.8241
28.6826
27.2121
21.8807
32.668
-29.5999
37.1729
6.0992
15.9416
5.4775
29.7795
25.0396
-17.6658
-7.56097
29.1182
31.4474
37.8589
-29.2301
-16.885
-30.943
20.2156
1.17768
-26.0343
23.3739
-22.7325
24.7183
-28.5192
27.3588
22.9064
19.5323
35.308
28.7782
10.1772
19.2137
1.24432
-15.1369
32.6982
39.7927
-16.5014
32.435
29.1083
-17.081
14.0171
32.277
31.4867
-12.81
-24.1999
-43.979
-29.132
6.37526
-24.568
8.07018
24.5898
-39.914
30.1812
-28.408
-24.5951
27.9143
7.44985
-21.7103
16.2929
26.1129
-21.4842
10.184
-24.9563
-26.198
-21.8881
38.1682
-7.79681
13.2965
-28.9288
30.6413
-18.5731
-32.5789
-9.37131
-31.0021
9.53817
31.4387
-33.4408
-25.0966
28.4089
10.495
-4.45448
-26.7394
-27.7895
26.9749
28.1333
29.0968
-13.714
35.4102
-3.67554
0.70804
14.8673
-1.275
-34.6562
-26.5805
-11.9393
15.4123
20.7759
-2.26424
13.2527
2.21116
29.4175
-29.2744
28.9746
-28.1656
23.6713
15.6908
-6.73498
-93.9692
41.9394
14.5866
-21.2766
-12.6011
2.20872
28.8084
-33.0015
-92.2676
11.9155
-28.137
-29.2932
-16.8784
-23.8103
30.9695
-31.0522
17.2544
-25.9088
14.6175
28.4856
14.985
24.4395
9.91522
33.4075
-18.172
-8.38782
34.5139
22.7036
-18.4794
13.1587
-25.1013
2.9411
11.8419
33.024
-46.8962
21.3419
-17.0309
-19.5296
-32.4859
-32.8883
-10.8659
25.5274
-2.70768
29.174
20.7797
-25.2015
35.84
-31.827
31.8852
35.1088
-22.0666
17.2961
30.4009
28.4614
27.707
-10.8537
-12.9656
-10.9912
28.934
19.1712
0.299664
-34.873
25.5899
31.1897
13.7194
-32.9967
16.2041
34.2191
2.67567
1.26374
8.12324
26.8613
18.2178
-78.2919
35.4552
32.134
-7.13735
-20.4689
32.8621
22.0906
14.9272
29.1124
8.23334
-11.1888
-15.482
-16.8504
31.6257
30.7465
20.1479
7.66001
-55.8973
3.03024
31.056
-22.5036
27.4807
33.5118
34.62
-27.6049
29.4938
28.7575
31.1543
31.9126
14.4921
32.0113
-8.90323
28.9112
23.6517
30.2977
-29.543
32.4421
32.0277
27.3893
24.3622
-8.00483
27.0551
12.8501
5.342
33.8671
33.3558
-29.7069
33.957
-13.349
-19.4374
30.8838
30.5373
-7.4457
14.1864
-16.9436
-21.846
8.5328
-41.723
-9.54217
13.0091
29.0647
39.0134
32.8473
-2.782
-30.2994
30.74
22.1925
-3.99595
-12.6674
-8.51953
2.12235
-17.7724
-20.3151
28.1886
-20.2813
21.3486
6.83816
6.27942
-60.0326
4.59368
16.3625
25.2046
25.7281
7.07576
23.9619
10.1514
-28.4969
26.4216
22.6234
19.0239
25.8335
24.5874
10.6526
21.0438
7.9346
29.2228
27.8897
36.4112
29.0632
-10.5401
12.6061
7.68575
-7.43722
14.8088
8.93417
16.8826
-25.8812
39.3828
16.1063
-3.03288
35.1887
-32.1602
9.40085
14.3464
-29.7493
-12.4902
22.6514
4.2878
29.776
13.2699
-10.0258
-72.347
-34.0186
5.0321
-15.9742
14.1712
25.8545
-28.974
-39.2331
3.39773
21.6081
1.78825
30.368
35.6424
-11.4311
30.5762
25.5217
25.0431
37.2782
-31.6922
23.5192
23.8121
21.0728
34.6507
13.9591
20.4543
-23.7334
30.3216
35.6543
-48.7056
-1.17406
-1.85579
2.79031
22.2925
-10.1793
-4.18795
-12.825
21.047
-16.8218
18.9614
20.2288
27.1028
18.1646
-14.9995
7.65677
-22.4515
-5.49777
36.7334
38.9954
33.768
40.0866
27.2632
32.5607
31.3745
29.7196
28.3417
-1.76387
30.237
12.507
-16.9637
35.0957
17.8606
2.83844
37.9328
15.8636
-29.3064
22.421
21.2893
31.8301
-18.3476
27.7822
36.3391
-31.772
-18.9006
-0.612764
26.447
-28.1012
33.1389
13.8499
31.7828
28.905
-36.7743
31.7906
8.34885
-12.1681
-14.306
-40.2378
32.2829
1.47404
28.8771
11.8779
-25.4459
17.1528
-40.0085
7.266
-13.9328
-13.8722
32.4351
18.1436
-21.1353
11.307
24.3411
19.5103
-26.6069
22.0914
-37.3132
21.9548
-20.2874
23.7854
19.0947
25.6591
19.2879
29.1901
25.2621
19.5378
-17.4982
39.9914
5.42392
-22.9775
29.2013
27.8527
-23.1486
3.42444
-29.7137
26.1384
25.1262
3.30611
14.186
12.7411
40.056
-16.8856
-34.2875
17.3134
9.46786
26.823
17.0468
29.0246
24.3657
-27.5658
25.6459
-16.6742
27.5232
21.9503
30.1408
24.8442
0.525792
2.80972
24.7265
30.4361
17.1839
16.8698
-19.7567
10.8791
9.4499
26.9492
-21.132
24.3053
-15.2498
32.2514
-25.8827
12.8446
33.4217
31.9579
22.9595
-31.2179
-7.81961
30.6799
4.13452
32.2615
22.6844
-47.5933
29.475
19.2818
19.4152
16.2437
9.65016
-0.716584
24.593
-2.51784
33.765
20.5386
40.4935
14.9837
19.0913
32.0526
17.1777
19.7219
30.2468
28.425
25.4503
-0.317982
-18.1229
29.3614
25.9493
23.5456
-23.6579
20.809
-30.7182
-24.0138
8.0691
27.5213
13.0946
26.2772
15.4071
36.8363
32.4418
20.5612
28.1565
20.2649
-17.8111
27.8276
26.7126
16.4616
22.2921
32.3149
31.0783
-2.82023
-18.6459
-1.3879
28.9074
24.2831
-37.706
30.0778
-28.718
29.226
-6.97883
29.6479
21.7909
-5.21088
21.3028
31.591
18.6888
30.2661
33.2895
18.1816
11.2864
23.5078
13.5955
35.7003
-29.4355
34.1337
31.7582
-27.2077
-6.00382
12.8259
9.92925
-28.7876
-49.4384
28.389
34.1707
30.4637
34.5164
24.7075
33.0491
21.1982
17.7732
21.7107
16.2972
17.1089
28.0476
12.4094
34.9943
18.2317
-26.5641
25.1149
34.9403
35.6772
-29.7373
25.3565
-8.78678
-16.6118
22.2093
24.8726
-35.1505
23.1536
35.9719
-14.7879
-23.2336
-28.9952
21.35
16.2926
17.7308
29.5831
30.0154
8.20033
16.7251
-0.0300486
-27.9191
28.0749
28.023
28.6891
25.6759
20.9628
26.4078
15.1047
-10.9233
23.861
28.3224
24.9266
27.304
8.62694
15.7249
14.666
29.8788
-33.2164
19.6103
32.6594
28.3237
17.1442
-28.2879
-31.4915
4.89481
24.5523
18.0701
3.69513
29.1927
25.3479
19.0968
8.68133
15.8333
23.4019
-28.5061
29.3449
24.4069
7.48997
22.1179
-11.2274
23.6565
10.9852
17.0414
27.4174
28.3444
31.6389
16.2609
22.7938
3.08314
28.6574
5.80196
27.1981
30.6586
-23.074
-26.317
-39.5987
-29.9727
16.4519
22.7918
-11.4702
28.9277
27.4205
-32.2049
-16.4322
7.78657
29.0791
27.7207
16.3149
-47.8241
33.714
28.0289
8.30533
22.9973
7.5499
24.2951
19.6445
32.5796
-6.13668
26.6722
35.429
28.4116
21.3162
22.5698
28.3045
29.1889
38.268
18.0783
30.2784
8.85841
26.1494
25.9384
-11.6557
30.186
8.38613
24.8172
-3.59697
19.9927
12.4332
12.739
22.7654
-32.6564
30.8137
12.9599
17.1455
-14.5033
22.0419
28.8884
8.6864
-11.4192
29.9554
31.2625
11.8004
28.428
26.8188
-30.6825
34.3879
30.1049
17.903