/*--------------------------------*- C++ -*----------------------------------*\
| =========                 |                                                 |
| \\      /  F ield         | OpenFOAM: The Open Source CFD Toolbox           |
|  \\    /   O peration     | Version:  2306                                  |
|   \\  /    A nd           | Website:  www.openfoam.com                      |
|    \\/     M anipulation  |                                                 |
\*---------------------------------------------------------------------------*/
FoamFile
{
    version     2.0;
    format      ascii;
    arch        "LSB;label=32;scalar=64";
    class       volVectorField;
    location    "9";
    object      U;
}
// * * * * * * * * * * * * * * * * * * * * * * * * * * * * * * * * * * * * * //

dimensions      [0 1 -1 0 0 0 0];

internalField   nonuniform List<vector> 
13486
(
(4.69433 -1.00631 1.74939e-20)
(5.19604 0.387299 8.91558e-21)
(6.22706 -0.165682 0)
(-4.85792 2.33471 -1.40203e-20)
(7.12398 -1.94557 1.24728e-20)
(6.94506 0.285096 -2.64863e-21)
(7.76427 -2.04107 -2.81227e-22)
(6.14268 -2.34443 -1.3099e-20)
(6.07538 -1.45466 0)
(5.86397 1.50789 0)
(-1.05364 1.7161 -1.06706e-20)
(7.74224 0.602057 0)
(4.33834 -1.56548 -1.70999e-20)
(6.94108 1.55191 -3.58175e-21)
(7.77552 -1.70067 8.26229e-21)
(5.77865 1.57009 -7.99977e-21)
(0.410911 -0.392119 6.59598e-21)
(4.06196 -9.43018 -5.03944e-20)
(6.8038 0.208919 2.13698e-22)
(5.13627 -0.53065 -1.84658e-20)
(-4.41246 -0.589406 -6.74558e-21)
(4.37659 -1.58991 2.20295e-20)
(5.26257 0.39418 -7.14206e-21)
(7.63651 -2.2047 0)
(6.09448 1.22133 2.97759e-21)
(7.66131 -2.06073 -4.70392e-22)
(-0.735912 0.585195 9.41866e-21)
(7.07888 -0.23667 -7.45078e-21)
(8.58354 0.798848 0)
(6.54059 -0.641848 6.26809e-21)
(-2.12238 -4.4222 -5.65894e-21)
(8.86958 -1.09895 -1.09618e-20)
(8.16829 -0.7181 1.71413e-23)
(6.20148 -0.14725 0)
(6.18728 -2.28123 0)
(0.491307 0.812045 -6.61194e-21)
(6.24932 -2.81695 1.18418e-20)
(5.00997 -2.36611 1.01931e-20)
(12.6096 0.963314 -8.86714e-22)
(6.16526 -0.958671 1.11728e-20)
(7.21616 -2.60068 0)
(3.62143 -1.76643 -1.96955e-20)
(7.86244 -0.102227 0)
(6.06759 1.03847 -1.40834e-20)
(6.10787 1.03969 5.78651e-21)
(7.64981 0.57806 8.57061e-21)
(0.0550501 1.9776 1.02366e-20)
(9.54355 -0.027611 2.03851e-21)
(6.25784 -2.62314 -9.09907e-21)
(7.38921 -0.0441264 -3.3584e-21)
(5.98228 0.0937838 1.28159e-20)
(9.94207 -1.28083 0)
(8.37832 1.31202 -1.17267e-20)
(5.22842 -2.0247 -1.46422e-20)
(0.1334 -10.547 0)
(7.09621 -1.96586 -7.70306e-21)
(6.07222 -1.51501 -4.45241e-21)
(10.4205 -0.630152 7.02737e-21)
(8.06835 -0.647679 -6.56433e-22)
(5.87117 -3.14132 0)
(-0.579903 1.05353 -1.17266e-20)
(5.69661 -2.92102 0)
(9.67068 0.82759 -2.93647e-21)
(-4.39151 -0.447359 -5.74388e-23)
(7.45502 -4.69213 0)
(6.43567 -3.02078 5.52133e-21)
(-5.41183 2.35449 -1.55869e-20)
(4.63832 -0.302863 5.78181e-21)
(6.08548 -1.51983 -6.38889e-21)
(3.56651 -0.0630617 -5.59856e-21)
(-5.13125 2.54421 1.79974e-20)
(1.3684 -9.89529 -3.40079e-21)
(6.09288 -0.551311 8.16735e-21)
(-1.50831 -0.421339 -4.98418e-21)
(6.22423 -2.94084 1.1086e-21)
(6.53839 -1.57261 1.01027e-21)
(6.05392 -2.92179 -3.61031e-21)
(7.74117 -1.76996 -3.32725e-21)
(-0.372642 2.63299 -6.76702e-21)
(2.87877 3.28062 0)
(-1.97358 4.52586 3.32508e-21)
(5.05767 0.599753 -5.68491e-22)
(10.8237 1.07006 3.11497e-22)
(6.70008 -0.0941853 -2.50764e-21)
(4.68345 -1.04156 -3.40973e-20)
(4.53551 3.70099 0)
(3.4166 5.84709 1.09894e-21)
(5.98426 0.136077 -1.99675e-20)
(5.64548 0.348662 -8.061e-21)
(5.3767 2.12293 -9.99057e-21)
(9.68912 -0.0953907 -5.42233e-21)
(6.51116 -2.10593 -7.58027e-21)
(4.86241 -1.28963 4.61931e-21)
(5.20577 -0.130678 4.8307e-22)
(5.79446 -1.95031 2.55237e-21)
(9.10968 2.85258 -2.0283e-21)
(-0.938771 0.951169 0)
(-5.11645 2.78015 1.04479e-20)
(6.18861 -0.937771 -2.13494e-20)
(0.161116 -0.104541 -1.12422e-22)
(0.678423 1.859 0)
(6.87361 1.56043 -1.45954e-21)
(-5.06238 2.5865 6.22056e-22)
(10.6985 -1.00843 -8.04708e-21)
(4.1089 3.49258 0)
(-0.235149 0.186758 -8.88677e-23)
(5.89625 0.0729188 2.4929e-23)
(12.3311 2.69448 -4.47486e-21)
(-0.0105575 2.40987 7.61994e-21)
(6.05966 -2.79752 0)
(4.88175 -2.31065 0)
(8.71257 -2.29941 -1.32727e-20)
(5.25028 -1.97598 5.09266e-23)
(6.98544 -1.26439 3.41741e-22)
(3.75755 -0.640861 0)
(4.7762 -2.28334 -9.99106e-21)
(6.01955 1.30044 0)
(6.68154 0.0112948 0)
(6.07743 -0.542155 0)
(6.37885 -2.5487 7.03444e-21)
(5.01624 -7.58236 3.28475e-20)
(-1.40013 1.31867 0)
(5.71449 -1.80563 0)
(11.5553 1.50214 1.36257e-21)
(5.88908 -2.20306 0)
(9.94955 -1.31397 0)
(6.98432 -1.05601 3.02193e-22)
(6.41814 0.192092 8.14618e-21)
(6.62405 -0.0401747 2.37749e-21)
(6.86216 -4.82934 -2.62879e-21)
(9.73285 -1.40446 1.02106e-21)
(-0.293653 1.8694 -2.575e-21)
(3.19259 -0.515382 6.16574e-21)
(-0.748679 0.235927 7.42468e-21)
(5.99337 0.0477719 -2.06493e-21)
(5.70834 0.860998 -9.93166e-21)
(2.66232 1.0971 -4.65363e-21)
(6.03519 -2.78332 0)
(6.06058 -2.61153 -2.30985e-21)
(6.25862 -1.99984 -4.5503e-21)
(7.82828 -0.248532 1.69846e-21)
(8.56916 1.41226 9.92635e-21)
(8.65876 0.00759217 0)
(3.07729 3.44371 0)
(7.50735 0.0784747 1.37941e-21)
(11.3449 -1.02244 -8.77014e-21)
(5.18822 2.22839 -4.11791e-21)
(-0.0210625 2.46199 0)
(7.55713 -0.0358939 0)
(8.50889 0.383201 0)
(6.0095 0.0628388 2.43518e-22)
(7.53098 -1.88776 0)
(0.0924276 2.10386 -3.47989e-21)
(5.00123 0.576085 -4.75721e-21)
(6.39853 0.68118 0)
(7.12473 -0.214472 0)
(5.73024 -2.61751 0)
(-0.300893 -1.63941 -9.15726e-21)
(5.49736 -2.26114 2.2423e-20)
(4.36816 -1.81965 7.97699e-21)
(7.10835 0.0536543 -3.34038e-21)
(5.52021 -2.21402 -3.38338e-20)
(10.2448 -1.80164 9.77511e-22)
(3.27088 -1.64194 8.74005e-21)
(10.0127 -0.999073 0)
(7.19703 1.54155 3.53615e-21)
(6.74791 1.4323 9.68477e-21)
(2.11362 -0.764768 -1.92047e-20)
(5.10072 2.09096 1.07869e-20)
(-0.714738 0.13239 1.99118e-21)
(-0.438719 0.780344 4.03823e-22)
(6.398 0.619429 6.05214e-21)
(5.99669 0.231131 -1.77174e-20)
(7.57525 -0.81983 5.70609e-22)
(-3.92951 2.84975 -3.32613e-21)
(-0.436417 1.50327 0)
(6.90041 2.33265 -6.55389e-21)
(8.19035 -0.183968 -1.16746e-21)
(5.90981 0.0440719 -1.99769e-20)
(8.57371 0.115514 0)
(6.31321 -1.12272 2.36266e-20)
(7.38466 -1.22002 6.92486e-22)
(7.97095 -0.621375 -1.2454e-22)
(-3.80394 2.10463 0)
(6.0739 0.445778 6.26599e-21)
(6.67717 -0.197107 3.43594e-21)
(7.84753 -0.527194 -1.00426e-22)
(6.65539 -0.414713 2.28694e-21)
(7.14056 -2.61279 0)
(4.39672 -2.11787 -1.28793e-20)
(6.16976 -2.72385 0)
(6.77189 -0.22113 0)
(10.2461 1.17843 0)
(4.8621 1.75579 -9.89359e-21)
(8.78319 1.57006 0)
(-1.64004 1.88671 -3.04583e-21)
(6.9484 -4.18122 4.83093e-21)
(6.8833 0.00693326 -1.75329e-21)
(4.2752 -2.11942 -4.34564e-21)
(7.12949 1.42101 2.89476e-21)
(-2.29712 -4.99116 6.65869e-21)
(6.42392 0.225631 -2.57851e-22)
(4.89912 -2.36558 -1.18116e-20)
(6.11841 -2.64231 4.36326e-21)
(4.33105 -1.87088 -9.61867e-21)
(9.06249 1.35924 6.47157e-21)
(1.81206 -10.8982 -9.9777e-21)
(5.82649 -0.352861 1.57494e-20)
(9.93027 0.808414 0)
(6.18961 0.301476 0)
(6.82795 -0.239223 -6.8941e-21)
(7.16694 -2.61906 1.10161e-21)
(5.16969 -0.454934 1.69698e-20)
(5.89348 0.0828177 3.65528e-23)
(6.95052 0.363774 3.05447e-21)
(4.30915 -1.21287 -2.34342e-21)
(6.69512 -0.60636 0)
(5.47593 2.04643 2.32416e-20)
(5.0819 -1.35 0)
(8.50807 1.35887 0)
(0.377319 -0.301454 -1.25002e-20)
(7.42602 -0.00896553 0)
(6.22343 -1.9784 1.0738e-20)
(7.77079 0.0779568 0)
(8.17202 2.18159 -2.27966e-21)
(4.38962 -2.0761 6.51741e-21)
(7.23064 0.666167 2.80455e-22)
(-0.0730435 -3.92855 5.74974e-21)
(5.55939 0.810733 -3.29349e-22)
(2.75751 5.77413 -6.01574e-22)
(6.34207 -1.10056 -7.57515e-21)
(4.75324 -0.496624 -8.72295e-21)
(7.94239 -0.328738 -2.20411e-21)
(3.62169 -1.76275 6.67979e-21)
(-4.40689 1.23919 0)
(3.99323 -1.95829 7.92299e-22)
(6.65111 -0.204889 -5.11263e-21)
(6.85268 -0.215735 -1.91863e-21)
(3.92105 -1.89343 2.15968e-20)
(7.73633 -0.24495 0)
(8.12305 -0.788638 0)
(5.9906 0.195352 2.73439e-20)
(7.29633 -0.729726 0)
(3.72871 -1.85611 7.40094e-21)
(10.2482 1.39947 -1.34343e-20)
(5.55331 -0.0773738 0)
(7.51389 0.0785133 -2.56003e-21)
(7.37254 -1.44436 -2.77578e-21)
(-0.043349 -0.461499 1.13036e-20)
(5.99545 0.980139 0)
(-3.95273 2.71273 -4.34258e-21)
(3.67759 -0.568017 2.34879e-21)
(4.34909 -2.13295 1.30567e-20)
(10.8337 3.43858 0)
(4.9757 1.90404 -4.39008e-21)
(-0.225322 1.19847 2.4312e-21)
(8.98904 -0.968138 8.91066e-21)
(4.76209 -1.3586 2.96123e-21)
(0.071679 -1.27984 9.58939e-21)
(8.10429 -0.839227 1.48333e-22)
(5.45353 0.314179 0)
(9.72705 0.256259 2.35025e-21)
(7.80612 -1.67369 -1.89093e-20)
(-0.331251 1.29524 -3.0355e-21)
(6.76694 -2.41147 -1.14069e-20)
(-3.67686 2.14997 0)
(6.01706 0.831822 7.72803e-21)
(-3.0501 -2.93893 -8.32959e-21)
(6.32976 -0.0643076 -9.84552e-21)
(8.1014 6.73416 0)
(4.77986 1.84167 8.04091e-21)
(5.90688 0.114379 -5.43833e-21)
(6.71737 -0.761922 0)
(7.70624 1.09253 7.40129e-21)
(4.45044 -2.12481 8.74076e-21)
(7.07834 -1.53219 1.53702e-21)
(4.91708 2.22551 0)
(1.0245 -10.3967 0)
(9.63388 4.78473 -1.14939e-21)
(5.55831 2.36605 7.65958e-21)
(0.36063 -9.73108 7.88053e-21)
(6.69321 -0.790069 -9.16882e-21)
(5.8365 0.0951773 1.17157e-20)
(9.20434 -2.5306 -3.83014e-21)
(-2.13174 1.57772 1.42227e-20)
(-0.933478 1.01063 1.43206e-20)
(7.97882 -0.120851 -2.08313e-21)
(5.84381 0.059905 -3.12632e-21)
(8.20484 2.16754 3.48404e-21)
(6.16778 -0.0681291 0)
(-4.82333 0.833135 0)
(4.28212 -5.51672 6.39882e-23)
(4.76858 -2.28386 9.60689e-21)
(5.99739 0.0625896 -2.01747e-21)
(6.31589 -0.162274 -5.49592e-21)
(6.64992 -0.319167 0)
(7.22111 -0.0935454 4.27908e-21)
(7.48856 0.993157 -6.59538e-21)
(5.81686 0.0332374 -1.07064e-20)
(7.48283 -2.11206 9.51029e-21)
(10.2957 -1.40566 -1.36814e-21)
(0.991129 -10.6277 -2.81706e-21)
(5.54216 2.23222 -6.52731e-21)
(8.7734 -1.08703 1.04061e-20)
(6.22951 -2.43405 -2.45222e-21)
(5.31651 -2.54266 0)
(1.03412 0.411988 0)
(7.08618 0.000787619 4.92316e-21)
(2.78696 6.32677 -3.28351e-22)
(6.11895 -2.68456 0)
(6.44765 4.18516 -9.65096e-21)
(-4.98301 2.17436 0)
(6.62783 2.2951 4.06758e-21)
(8.94731 -2.07118 -1.26589e-20)
(5.82985 -2.61094 0)
(5.69729 0.759438 -6.12799e-21)
(4.36329 -5.18577 2.87094e-22)
(5.64738 0.330803 -6.79826e-22)
(5.82039 -0.334744 -1.73536e-20)
(5.64216 0.507066 0)
(6.31078 -2.84333 -1.00142e-20)
(5.87026 -6.55958 -3.1864e-22)
(5.93302 0.0847772 2.52576e-21)
(5.14663 -0.0265721 -9.07541e-21)
(2.83927 1.01661 8.56191e-21)
(9.81133 -0.403669 1.05373e-20)
(7.10044 -1.45833 -3.17832e-20)
(6.73059 -0.779991 0)
(6.7592 1.06979 1.96653e-23)
(7.18943 -1.51608 -6.48281e-21)
(5.98651 0.0880937 2.88739e-20)
(6.58432 -2.12665 0)
(10.2185 0.0756381 -1.9482e-21)
(4.63782 0.551117 0)
(7.63973 -2.24541 -2.4331e-20)
(5.98853 -1.85641 -7.27997e-21)
(2.90045 -1.39203 7.75076e-21)
(7.45713 -1.87493 -1.24911e-20)
(6.03109 0.44599 0)
(8.85566 -1.0291 -2.73236e-20)
(4.94124 0.475716 -7.50453e-21)
(5.17945 -0.00841056 8.58207e-21)
(7.20974 -1.53831 2.42813e-20)
(7.95366 -0.648826 1.30087e-20)
(-3.48175 2.24082 -1.09899e-20)
(8.52876 1.14055 9.96832e-22)
(7.16285 -0.78032 0)
(3.65804 -1.40091 1.87046e-20)
(8.55364 1.37283 0)
(4.60155 -6.08892 2.52505e-22)
(7.07576 -0.389065 1.76638e-20)
(7.10619 1.19921 -7.7971e-21)
(7.70878 1.07388 6.21186e-21)
(-1.26578 1.15954 -1.12548e-20)
(5.8339 0.0413261 1.33668e-20)
(1.87865 -1.44653 0)
(-1.22876 -0.524992 -4.61032e-21)
(7.00115 -1.05166 -6.09792e-21)
(2.81574 6.51961 -4.24923e-22)
(6.73662 -2.54403 -1.01666e-22)
(7.75364 0.181752 0)
(9.98953 0.390053 6.11433e-21)
(5.51173 0.149531 1.96158e-20)
(5.89836 0.125958 1.65074e-20)
(6.68359 -0.839002 0)
(1.52325 4.77708 -1.14387e-21)
(6.40034 -0.249628 4.80173e-21)
(-0.182 1.44229 1.31146e-21)
(5.08556 -0.509747 2.34681e-21)
(6.98734 -0.931031 5.81628e-21)
(8.02967 -0.200524 -5.19403e-22)
(7.1425 -0.738634 0)
(7.8431 2.36975 -8.23977e-21)
(-3.68791 2.75269 3.99605e-21)
(6.88363 0.802031 -5.6309e-21)
(5.99395 0.0908214 1.07382e-20)
(4.68819 0.00958727 0)
(6.21034 -6.6608 -2.01161e-20)
(6.96576 -2.88659 0)
(9.04696 2.17306 -1.33161e-21)
(6.37754 -0.0983332 0)
(6.54871 -2.34363 -7.81619e-23)
(4.43842 -0.746801 -4.67977e-21)
(4.77582 1.62222 1.86133e-20)
(0.544428 1.39137 -4.8556e-21)
(5.75374 1.65878 0)
(6.70662 0.133101 -8.53333e-21)
(6.04457 0.468719 -7.59792e-21)
(0.838558 -0.253632 -3.65572e-21)
(-3.02158 -2.75159 2.31116e-22)
(5.25053 -0.505852 -2.59496e-20)
(6.83521 -0.751971 -2.07501e-21)
(6.1989 0.436309 6.163e-21)
(4.8025 -1.64578 0)
(4.47121 0.319095 9.18703e-21)
(6.1881 -2.67711 6.80498e-21)
(-5.20756 2.3137 8.25448e-21)
(-3.86843 2.73533 -1.41483e-20)
(0.513262 -0.107018 -7.11385e-21)
(7.92913 -0.140057 0)
(0.713668 -0.129037 0)
(5.93034 2.53671 0)
(6.5711 -0.355306 0)
(1.34838 -1.13462 3.54187e-21)
(7.71884 -2.26386 0)
(4.98808 4.86792 0)
(5.22856 -0.0785881 3.59686e-21)
(8.17383 -0.166341 1.19952e-21)
(7.04555 -0.701301 -1.37124e-20)
(5.27354 0.509572 3.12885e-20)
(6.00821 0.0877015 -3.88149e-21)
(6.54896 3.88421 0)
(7.10575 -0.636274 0)
(5.80034 0.0409111 1.13773e-20)
(5.96393 0.0668313 2.0187e-21)
(3.87152 1.7301 0)
(-3.8236 2.06894 1.17948e-20)
(6.73213 -2.43854 1.27953e-20)
(-1.18091 -0.349662 0)
(7.79423 -0.24621 1.20246e-20)
(5.91162 0.0746299 -1.33225e-20)
(4.03233 -5.37069 -5.40896e-21)
(3.64165 -1.36199 0)
(6.00939 0.47898 1.35831e-20)
(7.26261 0.334641 0)
(6.48438 -0.373152 0)
(6.4806 0.41243 -1.19035e-21)
(5.81768 0.107206 6.14797e-21)
(-0.555298 0.624588 -1.23331e-20)
(6.68203 1.3941 3.11809e-21)
(4.48386 -1.35594 -8.48165e-21)
(6.47426 -0.322803 1.51578e-21)
(6.22603 0.460465 4.96917e-21)
(7.8568 2.38789 2.21545e-20)
(6.95666 -2.4085 0)
(7.19 -1.32002 -1.5701e-21)
(4.4575 -0.586568 0)
(4.34068 -6.23412 2.37751e-21)
(7.54097 -0.803211 0)
(4.68619 -0.277828 1.24743e-20)
(-0.449906 0.993533 -8.81394e-21)
(6.82895 -0.592097 0)
(-1.24688 0.502823 3.42505e-22)
(7.07459 -0.681525 3.59264e-21)
(0.883864 2.74967 1.6414e-21)
(5.63746 -1.09001 2.64652e-20)
(4.41188 1.48934 -1.13394e-20)
(4.46912 -1.32738 -2.38815e-20)
(9.31196 2.07724 0)
(6.11521 -2.55449 -6.85987e-21)
(-3.34615 2.14877 -2.57363e-20)
(6.01274 0.484689 0)
(5.61054 0.374636 7.4482e-22)
(7.40472 -0.05433 7.02274e-22)
(7.53093 2.34006 0)
(5.99749 0.0276412 0)
(-4.5374 2.59157 0)
(0.957836 0.87273 1.20273e-20)
(9.4074 -2.75222 4.53635e-21)
(10.5 -1.1376 7.45211e-22)
(6.59007 2.17672 0)
(5.43417 -0.824977 1.72929e-20)
(-3.32985 4.8375 1.07232e-20)
(6.66068 1.28085 -7.6153e-21)
(-4.81004 1.43135 9.91196e-21)
(5.75697 0.304846 0)
(9.14283 0.599769 0)
(2.98556 -0.791635 -1.20567e-20)
(4.73902 -1.62717 -6.15806e-21)
(6.14617 -0.779452 0)
(5.22115 -2.46673 -1.10853e-20)
(0.594726 0.466757 3.2569e-21)
(7.64895 2.83581 4.30378e-21)
(3.19063 -1.50476 0)
(6.73564 0.305531 -6.32785e-21)
(6.26726 -2.53624 -6.99246e-21)
(7.27287 0.332475 -4.77251e-21)
(5.94339 -1.9152 0)
(-0.831806 1.1106 -2.1639e-20)
(7.35771 1.13343 7.20289e-21)
(5.99113 0.272894 2.73024e-21)
(2.93682 -1.40517 -6.21787e-21)
(7.32286 1.47915 0)
(5.24192 0.486298 -8.35849e-21)
(8.37355 0.884557 3.8807e-22)
(0.35702 -0.212097 1.62708e-21)
(6.00227 0.153272 0)
(-2.78473 -2.87782 -2.37147e-22)
(2.26131 -0.648435 0)
(5.98943 0.15214 -1.0996e-20)
(5.96863 0.180796 4.27187e-21)
(5.7448 -0.0834326 -2.20483e-21)
(-0.0545455 1.44367 0)
(6.20627 -0.139056 -3.97801e-21)
(3.8155 0.641098 2.39978e-20)
(6.87748 -2.39957 0)
(5.17257 -0.127826 1.09372e-20)
(7.46274 -2.20413 -1.09455e-20)
(6.61928 0.0398728 0)
(-2.56488 -3.31011 4.86697e-21)
(3.66258 3.53049 8.30936e-21)
(8.04793 -0.0976656 0)
(-1.05405 1.09888 1.28223e-20)
(5.59721 0.319318 0)
(5.59449 -2.57535 9.80477e-21)
(-3.54901 2.553 8.22934e-21)
(7.6621 -0.94725 1.08632e-22)
(6.99005 0.29386 5.10601e-21)
(4.45578 0.277723 4.83489e-21)
(5.64656 -1.17417 -9.78129e-21)
(5.4672 1.95492 4.11141e-21)
(5.63672 -2.55034 3.50409e-23)
(6.96252 -0.922473 5.45844e-21)
(7.31795 1.46091 -6.44227e-21)
(6.28684 -2.87176 0)
(5.99705 0.0732615 -9.523e-21)
(0.60414 0.00302411 -3.33966e-21)
(4.51387 -0.604016 0)
(6.19307 -2.84625 2.02329e-21)
(3.43312 0.0762462 0)
(4.20971 -1.39209 2.05547e-20)
(6.42797 -2.49322 0)
(1.09497 0.560333 1.17932e-20)
(7.24625 -0.347759 -1.01148e-20)
(-1.83606 -3.67816 9.66512e-21)
(-5.20393 2.93051 1.42457e-20)
(7.66991 0.138269 -1.15152e-22)
(5.21406 -2.51738 1.21804e-20)
(5.68673 -1.8004 9.95968e-21)
(4.84917 -1.30928 0)
(-2.43338 1.59204 -7.00388e-21)
(7.04323 -2.31129 -2.57017e-21)
(-2.70002 1.96005 -8.12419e-21)
(10.2623 2.56605 -8.90393e-22)
(4.79097 -1.93753 0)
(6.65015 0.00874041 -8.88586e-23)
(-3.64379 2.013 0)
(-4.61051 2.82939 5.96773e-22)
(3.45173 -5.91388 7.45874e-21)
(0.546713 -1.51704 0)
(6.45627 -1.89331 3.54428e-21)
(7.57459 -5.03332 0)
(7.54888 2.24641 0)
(5.24126 -2.49568 -1.28625e-20)
(4.70572 0.435646 7.70976e-21)
(1.39924 3.5922 0)
(5.51551 0.218201 -5.40772e-21)
(10.8734 -0.78766 1.04666e-20)
(-3.51244 2.67981 1.73679e-20)
(7.70286 3.13751 0)
(6.37576 -0.0182414 0)
(-3.21315 2.05859 -1.10001e-20)
(5.88417 -0.5712 0)
(6.58033 0.0362095 0)
(-0.716646 0.984886 -4.61717e-23)
(6.51057 -1.47025 -1.6409e-20)
(5.58665 -1.5434 8.29275e-21)
(8.05366 -1.04165 3.27347e-23)
(-2.8541 1.97705 1.48887e-20)
(5.95973 0.150611 4.86806e-21)
(4.96674 -1.37857 0)
(6.35811 1.01123 -2.80479e-21)
(4.66334 -0.948642 0)
(5.69097 -0.109909 0)
(6.00317 0.317108 0)
(6.47007 0.3973 -9.81465e-22)
(5.78931 -0.336591 7.94467e-21)
(7.97203 -0.532542 -1.99361e-21)
(5.07558 -1.40707 0)
(-1.0098 0.782388 -9.0668e-21)
(5.91101 2.38756 5.68228e-21)
(5.88048 -2.2296 1.04941e-21)
(6.17079 0.254924 5.76519e-21)
(6.95341 -1.31692 -4.28869e-21)
(6.1002 0.0668094 -7.78436e-21)
(-0.326605 0.960529 0)
(7.54308 1.02465 0)
(4.36111 1.65814 0)
(4.24792 -1.94179 -1.53351e-20)
(2.31351 -7.56776 -1.02505e-20)
(0.982417 -1.22694 0)
(6.39563 1.00389 0)
(8.73276 1.93353 6.88602e-21)
(6.01549 -0.081029 -2.3996e-21)
(5.71423 1.3015 1.08654e-20)
(6.1863 -2.63719 0)
(-3.40636 2.91209 -3.81258e-21)
(6.79583 0.141205 5.11351e-21)
(4.64916 -1.53922 -1.44737e-20)
(6.4839 0.169172 -6.60131e-21)
(6.65517 1.28479 9.53464e-21)
(8.30095 -3.256 3.45774e-21)
(4.18916 -1.91062 2.63596e-20)
(4.9859 -2.75586 -4.68745e-21)
(7.38587 -1.17393 7.5026e-22)
(5.99126 0.0302373 -2.33198e-21)
(4.69299 -2.28329 -3.57844e-21)
(3.64478 3.80515 -3.55682e-21)
(4.7716 4.68333 -5.63404e-21)
(5.12088 -2.4466 5.56811e-21)
(6.66261 0.95572 0)
(3.0628 4.40532 -9.2766e-22)
(6.45505 -0.0146684 -1.29162e-20)
(7.95264 1.49517 -8.45457e-22)
(4.56556 -1.44486 -1.30403e-20)
(5.84729 -2.16201 -1.08983e-20)
(6.57695 -0.0424102 2.65874e-20)
(8.48195 -0.236187 -1.52796e-20)
(7.60036 5.01934 -8.14531e-22)
(7.94902 -0.0322505 1.16643e-21)
(3.98542 -0.896602 -2.69621e-20)
(6.57009 -0.0204708 -1.14643e-20)
(3.95054 -1.06677 0)
(-0.702716 -2.99853 -2.42163e-20)
(6.54467 0.0214545 2.01496e-20)
(0.818162 0.32448 -1.93187e-21)
(-1.3918 -0.886033 0)
(5.61932 -2.62712 0)
(6.03226 0.91998 1.0586e-20)
(3.65019 -0.873962 1.64086e-20)
(7.96104 -3.8515 -9.28651e-21)
(6.57936 -2.32493 -7.04397e-21)
(7.12269 -1.49601 1.7483e-20)
(8.58765 1.22868 0)
(6.03424 0.986893 6.0305e-21)
(3.02592 -9.8148 -8.4539e-22)
(7.03746 2.21349 -5.93192e-21)
(6.25163 -1.04631 -1.29926e-20)
(-2.92794 2.00214 -2.40005e-20)
(6.82165 -1.44445 4.37588e-21)
(7.60134 -1.40228 -9.30657e-23)
(6.43159 2.64971 0)
(5.90361 -0.0489068 3.36667e-21)
(5.75067 -0.0865494 2.00147e-21)
(-2.82856 2.47268 -5.87876e-22)
(3.31862 -1.64738 2.37901e-20)
(6.19032 -1.05687 1.95295e-20)
(3.93675 -2.22195 -3.66702e-21)
(-3.62415 2.68931 -1.04458e-20)
(6.41662 -0.228425 3.30158e-21)
(6.51833 0.0722834 1.02953e-20)
(-2.15671 1.68795 -1.83433e-21)
(6.82472 2.1787 1.20553e-20)
(-0.385186 0.602356 -1.39321e-20)
(4.02163 -1.96202 -8.59077e-21)
(-2.72968 4.73946 0)
(6.28708 -1.40304 -3.84043e-21)
(-1.39663 1.41213 -5.37696e-21)
(4.42089 -0.824036 2.51004e-20)
(8.62543 -1.19636 0)
(10.3632 -0.906965 -3.54359e-22)
(4.07573 -1.73344 5.85877e-21)
(5.97409 0.11008 -2.08891e-20)
(-4.16079 2.45561 -1.15003e-20)
(2.20928 4.02839 1.26791e-21)
(7.07562 -0.748427 9.44601e-21)
(6.59985 0.134433 1.29521e-20)
(5.64625 -2.60094 -1.39646e-20)
(7.45253 -0.744162 2.75295e-21)
(3.51474 -6.55446 -2.65412e-20)
(6.41136 -0.00907769 1.21236e-20)
(6.4261 -0.279977 -6.51905e-21)
(6.33021 0.252073 -8.53891e-23)
(7.57123 -0.0238517 -1.49621e-20)
(3.97472 -1.78856 -1.12862e-20)
(7.36129 -0.989293 0)
(-0.845128 1.39493 1.24102e-20)
(6.36051 0.0685723 1.49968e-21)
(4.79993 -4.33427 -9.75638e-21)
(7.23745 0.031029 4.87415e-21)
(6.92891 -1.51893 -9.98524e-21)
(5.99749 0.0574652 -1.75976e-20)
(6.21727 0.702611 3.64314e-21)
(-3.58861 2.00196 -1.21236e-20)
(6.68379 -0.0493237 0)
(6.3369 -6.25888 1.02354e-20)
(6.94477 1.29197 7.99158e-21)
(4.8134 -1.89864 0)
(6.31992 0.208563 8.34794e-21)
(6.64473 1.10743 1.05712e-20)
(6.38171 -0.110953 1.17859e-24)
(7.57706 -2.92343 -5.0422e-21)
(8.26571 0.988097 0)
(5.40997 0.66823 1.60271e-20)
(5.13754 -1.88542 4.95111e-21)
(5.06647 -2.40012 1.13703e-20)
(6.34984 -0.74179 0)
(4.69511 0.391794 -2.23168e-20)
(7.78242 -4.73399 3.43736e-20)
(7.0312 3.38876 4.42571e-21)
(4.01729 -0.938407 2.63622e-20)
(8.58187 -0.235909 2.54667e-21)
(-5.20241 2.96443 1.10783e-20)
(6.01295 -0.486429 -1.29335e-20)
(7.34452 -1.06007 1.97208e-21)
(5.48199 0.133487 -1.12045e-20)
(6.99027 0.26556 0)
(5.98173 0.0688954 -8.79954e-21)
(-0.771397 -0.306287 -1.60968e-20)
(-1.51197 -0.0144273 0)
(7.26882 -2.30962 0)
(-3.16679 4.67794 0)
(0.337926 -0.377587 0)
(6.10761 0.684925 0)
(3.83932 -0.872173 0)
(5.56334 -1.12471 -3.3318e-22)
(9.96359 -1.41998 -4.2325e-21)
(7.28471 0.710583 0)
(5.39421 0.602662 2.35561e-20)
(4.71748 7.00963 -5.99561e-20)
(6.18422 0.476943 1.17951e-22)
(-1.20561 1.28916 -2.69797e-21)
(3.8508 -0.268694 -3.80615e-23)
(-4.19103 2.27687 1.03163e-20)
(6.1894 0.0538437 -7.61864e-21)
(7.30181 -0.0648412 -4.14249e-22)
(6.05118 0.663977 -7.3695e-21)
(5.66743 0.306121 -1.58947e-20)
(5.78734 2.15492 -1.01361e-20)
(9.132 2.25519 0)
(-3.87749 -1.15814 4.05533e-22)
(4.24288 -1.43214 -2.25175e-20)
(6.01898 0.0417703 -2.64652e-20)
(7.04193 -2.28874 -1.82182e-20)
(7.11814 -0.0699413 2.2666e-21)
(7.97283 -2.25097 8.70074e-21)
(6.77562 -1.21904 -1.997e-21)
(6.50663 -1.85804 -1.24883e-20)
(6.04939 0.428917 7.8752e-21)
(7.97647 4.81646 0)
(5.82456 2.20377 3.93886e-21)
(5.29501 -0.130303 -3.37482e-21)
(7.8561 -2.33824 0)
(9.98107 3.51856 0)
(5.87198 -2.70646 -3.64811e-23)
(-5.04815 2.82507 1.20407e-20)
(4.87738 -1.4645 9.51296e-21)
(9.96327 -1.73447 0)
(5.89237 -0.371282 -1.65956e-20)
(5.5247 0.318688 -2.99827e-21)
(-1.5777 0.356504 7.98341e-21)
(6.20673 0.51046 6.10649e-21)
(-4.31624 2.38952 0)
(-4.10502 -0.978009 1.43978e-21)
(6.28487 0.856809 0)
(5.64879 -0.097276 -4.21397e-21)
(9.94703 0.442013 -5.29649e-21)
(5.99056 0.0774239 -1.15429e-23)
(6.75251 1.4466 -1.71148e-20)
(7.60553 2.73777 -5.23757e-22)
(5.54369 -1.74749 2.02674e-20)
(-1.10795 -7.66 0)
(5.96152 -4.64423 -4.61507e-21)
(-3.15794 -3.36711 0)
(7.40628 0.684732 1.48174e-21)
(-2.22857 1.33887 1.62601e-20)
(7.44651 -2.29347 8.55846e-22)
(8.35052 -4.42256 -1.29314e-20)
(0.154401 1.10921 -1.38704e-20)
(4.52401 -2.11594 -1.31322e-20)
(4.36097 -1.44383 -1.32905e-20)
(6.01045 -2.81567 -2.31306e-21)
(6.1691 -4.66335 3.85393e-21)
(4.01848 -1.80556 9.23847e-21)
(4.52594 -1.52425 1.46281e-20)
(1.93848 -7.72611 1.51927e-20)
(6.88527 -4.56052 -1.77582e-21)
(5.826 -1.96131 1.07446e-20)
(0.0380169 1.15213 5.51803e-21)
(7.74783 -0.043465 1.68826e-21)
(3.27712 6.33158 5.2271e-20)
(6.72939 0.902179 -4.53348e-21)
(7.00759 -2.01434 0)
(0.435643 -0.252673 -1.45954e-20)
(6.25312 -0.0135949 -1.38369e-20)
(5.98895 0.317567 0)
(7.35071 0.631423 0)
(1.74008 -9.33316 -6.10818e-21)
(8.03219 -1.41865 -1.09981e-21)
(6.94166 0.433665 -1.15745e-20)
(6.49471 -1.43461 2.15524e-20)
(5.77429 2.1341 8.92369e-21)
(5.45538 -0.0788183 1.81803e-20)
(-2.10401 1.69972 -3.03478e-22)
(5.40445 1.29648 0)
(4.62209 -1.60611 1.41127e-20)
(-0.454961 2.46829 2.70966e-21)
(0.372673 0.938335 1.07122e-20)
(5.49314 -2.18175 3.46045e-21)
(5.54578 -2.53369 -5.14001e-21)
(6.20526 -0.0493967 9.3561e-21)
(11.9264 0.274199 2.73914e-21)
(6.48877 -0.739218 -6.86567e-21)
(-1.7748 2.0674 -9.76248e-21)
(6.91918 0.42519 8.74367e-21)
(5.84725 0.0296875 6.69364e-21)
(3.93366 -1.04685 -1.08318e-20)
(5.8683 -0.493243 1.02602e-20)
(7.60551 5.72787 0)
(6.92518 0.787434 9.87006e-21)
(5.9187 0.0615193 1.50783e-21)
(4.82627 -1.2183 -4.56204e-21)
(5.51969 4.02572 -4.66914e-21)
(5.75258 -1.92679 7.74002e-21)
(6.03013 0.00637004 2.98418e-21)
(4.4856 -0.0743237 -1.64954e-20)
(7.85736 -2.0553 0)
(8.67258 -6.03234 -1.31757e-20)
(6.51125 0.182514 8.93051e-21)
(7.52566 0.330816 0)
(4.60576 -0.331604 9.45104e-21)
(6.3054 0.544402 0)
(4.85732 3.94437 1.88785e-20)
(8.1197 -0.142337 0)
(6.22364 1.85436 0)
(7.63061 0.488692 4.24721e-21)
(6.85511 0.323827 6.75021e-21)
(7.98717 0.331327 1.79938e-21)
(5.77857 0.27455 -7.46143e-21)
(4.75926 2.32197 -5.68862e-21)
(5.99626 0.256668 -3.39919e-21)
(6.17377 0.700548 0)
(3.95489 2.69463 -1.75448e-21)
(7.07512 0.279691 -5.79299e-21)
(5.83955 0.179182 9.20218e-21)
(7.01289 -1.99182 0)
(8.0588 1.45086 -7.65658e-22)
(6.19379 3.84024 -8.39112e-22)
(8.22843 0.0930444 6.6578e-21)
(6.3203 -2.82842 0)
(0.276481 0.67512 9.29506e-21)
(6.1108 0.421468 0)
(6.57045 -0.528803 3.4869e-21)
(-0.0140905 -0.27967 0)
(8.74688 1.67926 0)
(4.99269 -3.05314 0)
(6.32162 -2.46817 0)
(-1.94478 2.31626 -1.81781e-21)
(0.788796 0.709141 -2.8185e-21)
(5.76873 -0.34404 -1.18796e-20)
(-2.07645 -3.20167 -1.21275e-20)
(4.24497 -1.86582 0)
(0.620251 -3.91208 -1.02661e-20)
(-0.287062 -0.437276 -1.12114e-20)
(5.07596 -2.40399 0)
(4.81796 -1.79995 -1.5647e-20)
(6.32106 -3.0165 1.29807e-21)
(6.69748 0.859833 1.19622e-20)
(7.38708 -2.67218 6.97855e-21)
(5.63702 0.257797 0)
(6.78316 -2.33941 0)
(9.08684 0.560518 7.02982e-22)
(4.51957 4.01722 -8.91933e-22)
(6.79486 -2.51504 5.15412e-21)
(1.70516 -8.97384 9.86939e-22)
(5.99847 0.0263679 6.51833e-22)
(6.62814 -1.40382 2.16995e-23)
(6.05315 0.432075 1.12682e-20)
(6.71066 -6.98485 4.62386e-21)
(5.97838 -1.81785 0)
(-2.07181 1.83006 0)
(7.49158 -0.679439 0)
(0.180679 -0.152072 0)
(5.53351 -1.24056 7.05806e-21)
(7.60196 -0.199044 0)
(-1.10308 1.46043 2.09948e-20)
(7.86862 -3.48633 1.08722e-22)
(4.43416 -1.55868 -2.19089e-20)
(5.398 6.17174 2.92235e-20)
(0.33449 0.596198 -6.50346e-21)
(-0.153365 1.26329 -1.07984e-20)
(6.49335 0.0706319 2.36348e-21)
(-2.21483 2.23726 -7.86353e-21)
(5.88877 -6.33509 2.54766e-21)
(7.77625 0.431991 0)
(7.5468 -1.5618 0)
(5.04784 7.69515 0)
(6.89755 -1.59385 5.36944e-21)
(6.6461 -4.50259 0)
(5.48617 1.2555 0)
(6.00244 0.0319419 0)
(5.63828 -1.53396 7.82858e-21)
(6.19281 0.445964 -1.23164e-20)
(3.84365 0.103793 0)
(5.95028 -1.17649 7.34659e-21)
(5.92679 0.447648 -9.74404e-21)
(7.01118 2.08981 1.23869e-20)
(5.16577 -2.40114 1.03652e-20)
(5.64811 1.43727 3.77462e-23)
(2.70875 3.06867 5.77295e-22)
(11.5602 4.30272 1.12966e-21)
(5.35472 1.34898 7.95117e-21)
(6.8545 0.354578 -9.16389e-21)
(6.6308 -2.45259 1.20408e-20)
(5.58126 -0.0298748 -1.10789e-20)
(6.33944 -0.00371302 0)
(4.55331 -5.05539 7.49127e-21)
(5.89271 0.104863 1.21662e-20)
(2.06044 -9.33137 2.64166e-20)
(6.74855 -1.15486 -5.77465e-21)
(3.72555 -0.933227 -1.78482e-20)
(6.87073 0.28387 1.55799e-21)
(8.43836 0.856057 -5.61402e-22)
(5.99842 0.235533 0)
(4.72235 4.58631 -2.31705e-21)
(10.2667 -2.40196 1.76684e-21)
(4.94304 1.47084 -1.36113e-20)
(-4.66539 0.878325 -1.13087e-20)
(6.04996 -0.01581 6.45608e-21)
(7.3285 -0.798527 -8.20745e-22)
(8.39251 -0.187734 -1.94941e-21)
(7.7441 -0.57485 0)
(10.7002 1.36811 0)
(4.80693 -2.3116 1.23487e-20)
(-4.28684 2.55652 1.2422e-20)
(-0.699779 5.31132 6.51623e-22)
(5.88932 0.0946119 2.42007e-20)
(4.31963 4.54617 6.86395e-21)
(4.65118 0.295622 0)
(5.51986 0.0021511 0)
(5.1708 -1.33796 -3.19626e-23)
(7.22364 0.353175 6.55902e-21)
(5.76494 1.33905 1.56025e-20)
(8.49674 -0.0265294 0)
(5.93492 -0.171677 0)
(6.54347 -2.04256 1.85117e-20)
(6.25159 -0.690392 1.0428e-20)
(0.57913 2.56112 2.8598e-21)
(6.40317 -0.0114398 0)
(9.56114 1.77214 1.919e-21)
(5.69565 -1.54637 1.25318e-21)
(-1.31901 1.56074 -7.27162e-21)
(6.10575 -0.189286 -1.39236e-20)
(9.61224 -1.08533 0)
(8.10684 -1.42849 8.17173e-22)
(6.91334 -2.77108 -8.51569e-21)
(0.86624 1.72911 0)
(2.69131 -1.29113 1.87418e-20)
(5.77228 0.165711 -7.82398e-21)
(0.15843 0.108868 1.67676e-23)
(10.1817 -0.410422 3.00753e-21)
(6.27555 5.92471 3.0586e-21)
(6.43208 0.0608003 0)
(3.69465 -1.45254 -6.19116e-23)
(5.08401 4.51437 -6.28354e-21)
(7.04959 -3.14826 -1.38056e-20)
(6.07783 0.662809 8.72667e-21)
(-0.519373 -8.45928 4.44461e-21)
(5.97841 0.00814196 -3.0784e-20)
(4.10244 -2.22856 2.12184e-21)
(11.2041 2.42102 1.47876e-20)
(5.55081 -1.44446 0)
(7.83712 -2.01866 8.80242e-21)
(3.95765 -1.85068 7.46623e-21)
(7.10354 -0.342137 -1.89522e-20)
(5.92814 0.0745481 -1.10235e-20)
(6.50601 -0.559005 -3.4942e-21)
(5.32969 -0.787264 2.47296e-20)
(7.52292 -0.019866 -1.96452e-21)
(5.51004 0.0195949 6.33164e-21)
(6.17371 -2.79855 6.0305e-21)
(8.1427 -1.02785 -2.56918e-22)
(6.90664 2.33702 9.41713e-21)
(7.74603 -3.87269 7.29816e-21)
(6.42643 -0.073742 0)
(4.35531 6.42422 0)
(2.17403 -0.769906 0)
(4.42972 -1.46139 1.67582e-20)
(6.04527 0.0569268 -1.76359e-20)
(5.4813 0.34652 0)
(4.93376 -1.264 -1.37809e-20)
(5.45728 0.281392 0)
(5.55869 -1.14847 -1.17408e-20)
(5.30314 0.0653862 9.86447e-21)
(5.92167 -1.71942 -1.18064e-20)
(6.53952 0.0591461 0)
(5.86077 -0.00212751 0)
(6.45471 0.21749 -6.0281e-21)
(7.23724 0.598506 -2.79013e-22)
(7.11458 -0.163393 -2.75953e-21)
(6.49221 4.0219 -3.83653e-22)
(9.14648 -0.320073 0)
(5.51848 -2.1246 -5.80409e-21)
(-0.926855 0.363927 0)
(3.10197 1.74158 -9.14482e-21)
(7.66797 2.691 0)
(7.3459 -0.754924 1.65436e-21)
(4.00811 -0.82203 6.99322e-21)
(4.90807 -0.733922 7.58807e-21)
(5.81681 0.0849101 5.59923e-21)
(7.81893 -3.43988 -1.3458e-20)
(6.16895 -0.784639 2.61234e-20)
(6.11691 0.687981 -1.11005e-22)
(7.21517 -2.13474 -1.05728e-20)
(6.27452 -1.56796 -6.31594e-21)
(-0.982423 -0.016146 5.48879e-21)
(7.31812 0.981953 0)
(5.94405 0.091857 1.84044e-23)
(4.99848 -1.41696 0)
(11.2183 1.01943 -9.36185e-21)
(5.57218 -2.12382 -3.09672e-21)
(5.34536 -0.703298 -8.13043e-21)
(1.27712 4.03518 1.26984e-21)
(7.40357 0.0588735 4.45593e-21)
(5.2843 -0.433575 1.6612e-20)