/*--------------------------------*- C++ -*----------------------------------*\
| =========                 |                                                 |
| \\      /  F ield         | OpenFOAM: The Open Source CFD Toolbox           |
|  \\    /   O peration     | Version:  2306                                  |
|   \\  /    A nd           | Website:  www.openfoam.com                      |
|    \\/     M anipulation  |                                                 |
\*---------------------------------------------------------------------------*/
FoamFile
{
    version     2.0;
    format      ascii;
    arch        "LSB;label=32;scalar=64";
    class       surfaceScalarField;
    location    "2.1";
    object      phi;
}
// * * * * * * * * * * * * * * * * * * * * * * * * * * * * * * * * * * * * * //

dimensions      [0 3 -1 0 0 0 0];

oriented        oriented;

internalField   nonuniform List<scalar> 
20045
(
0.992302
-1.06206
0.0697601
-2.11724
0.751722
1.36552
0.70356
4.17622
-4.87978
-0.740428
1.07318
-0.332753
-1.66302
1.591
0.0720289
-1.25075
4.45801
-3.20726
-1.94814
0.778765
1.16938
0.119208
0.844976
-0.964184
0.948746
0.812902
-1.76165
-1.66097
-0.195978
1.85694
-1.42308
-0.464362
1.88744
4.4215
-2.08793
-2.33357
0.683724
-0.7013
0.0175758
-2.52757
2.17836
0.349208
-0.588485
2.03852
-1.45003
-2.16598
0.505013
-0.053496
-0.566576
0.620072
0.741735
-0.945001
0.203267
-3.41935
4.99584
-1.57649
-1.49642
0.114647
1.38178
-1.09386
0.76669
0.327171
0.222858
0.460867
-0.256274
-1.86097
3.12251
1.67162
-4.79413
1.63699
0.423003
-2.05999
-2.18448
5.30699
0.207595
-0.269608
0.0620127
-2.71668
5.38859
-2.67191
3.2031
0.664233
-3.86733
-5.71949
3.06901
2.65047
-1.01059
1.09094
-0.0803488
2.74164
-1.97696
-0.764683
-0.743605
3.11552
-2.37191
5.53716
-2.97316
-2.56401
-1.08729
1.2065
4.13933
-2.04283
-2.09651
2.28595
0.310102
-2.59605
-0.122121
0.751836
-0.629716
-3.95571
1.97316
1.98256
1.17795
1.03187
-2.20982
0.0901678
0.830948
-0.921116
0.328252
-0.444768
0.116515
4.69074
-4.67568
-0.0150675
2.97628
-1.12177
-1.85451
1.38806
1.58821
1.97626
2.44523
0.265439
-1.46979
1.20435
2.5943
0.869499
-3.4638
2.87583
-0.589888
0.551773
3.77639
-4.32816
2.59633
-4.38237
1.78604
3.58613
-2.45445
-1.13167
-2.33056
-1.60869
3.93925
-0.199725
-0.571814
0.771539
1.2641
-0.859796
-0.404309
-1.347
-0.316022
-1.16671
4.44433
-3.27763
2.97701
0.51248
-3.48949
3.04236
-3.78597
2.61215
-2.0706
-0.54155
-1.42537
-0.548794
1.97416
0.985868
1.62628
0.803461
-2.66227
1.85881
-0.519839
-0.574023
3.40105
-1.73295
-1.6681
2.51402
0.277603
-2.79163
0.419537
-1.03736
0.617819
-1.33648
0.339384
0.997096
1.68123
-0.732487
3.27196
-3.33906
0.0671018
0.930696
-0.511159
0.44284
0.821265
-0.503531
-2.04108
2.54461
0.856714
-0.578474
-0.27824
2.67454
-0.635401
-2.03914
2.85082
-4.01753
0.132224
2.54232
0.88779
-1.47627
0.72593
0.361488
-1.08742
0.396745
-2.34797
1.95122
2.02465
2.21822
-4.24287
1.79364
-1.3775
-0.416136
2.04811
-1.24465
-5.18721
0.818122
4.36909
0.0567177
0.935584
-1.16499
1.3167
-0.151704
1.06347
-2.44251
1.37904
-3.21074
0.127923
3.08281
2.04053
0.319607
-2.36013
-1.66273
1.54897
0.113759
-2.77152
-0.372579
3.1441
1.41838
-0.269934
-1.14844
0.813494
-1.14798
0.334483
-0.31523
-1.60018
1.91541
1.12856
-1.20814
0.0795755
3.0153
0.570162
-3.58546
0.362158
-0.154563
-0.300303
1.15342
-0.853114
2.40091
-1.22296
0.0534461
-0.540937
0.487491
2.85107
1.28826
-0.895731
-1.63184
0.995753
-1.29606
-0.839836
3.81685
-0.119531
-1.04546
0.565459
-0.512013
0.855063
2.43486
-3.28992
2.00758
-3.65516
1.64758
0.991369
-0.914702
0.786526
0.128175
-0.545236
0.677134
-0.131898
2.33953
-1.77477
-0.564757
-0.969934
0.770209
2.43932
-4.94803
2.5087
-0.3155
0.617706
-0.302207
0.104153
-0.65559
0.551437
2.29641
-0.659425
3.83954
1.69763
-2.30581
1.80228
2.37815
-3.25129
0.873145
0.854123
-0.112388
-1.84994
0.42457
-1.48985
1.19425
0.295598
-1.94813
0.187961
-1.13796
0.950003
2.37711
1.20902
2.18888
-2.80988
0.620998
3.16878
0.400334
-3.56911
-4.81041
3.5147
1.29571
1.82493
-3.96528
2.14035
3.71482
-1.33771
-0.162536
-1.30726
1.41618
-0.777157
-0.639025
-0.379732
0.347309
0.0324234
2.28312
1.59611
-3.87924
2.3778
-2.30229
-0.0755159
-0.806045
0.3424
0.463645
-0.645137
-0.269565
3.70633
-1.32819
-1.2606
1.33606
-0.0754643
2.17335
-4.59287
2.41952
0.624653
-2.95521
2.15585
0.888223
-3.04408
2.71797
-2.32123
4.3765
-0.527926
-3.84857
2.36623
-2.25637
-0.109868
3.89227
-2.40441
-1.48786
-0.2822
0.871967
-0.589767
-0.365067
4.50823
-4.14317
4.18711
-0.984015
-3.31062
0.10967
3.20095
-1.86845
1.59405
0.274397
3.81611
-1.79147
0.68743
1.10621
-2.4939
3.07778
-0.583881
-3.45032
4.15388
0.0459383
-0.788468
0.74253
-0.194512
0.42645
-0.231937
-0.0689002
-0.724156
0.793057
2.36289
0.927473
-3.29036
5.58097
-2.77618
-2.80478
-0.864376
0.795476
1.42211
-2.69587
1.27376
0.403301
-0.0750482
-3.29429
-1.84114
2.6877
-0.846553
-2.65873
1.91558
0.743142
-0.0698759
-0.0729313
0.142807
1.9517
1.94057
-0.12287
-0.256862
0.633986
0.782196
-2.81406
0.320161
-2.92556
3.7018
-0.776245
-2.60284
2.96312
-0.360285
-2.14944
-1.73026
3.8797
-0.640996
1.73806
-1.09706
1.7869
-1.85813
0.0712307
4.17535
-0.339169
-3.83618
0.0184118
-2.97723
2.95882
-1.4163
3.57215
0.772649
-2.15243
1.37978
-2.35547
4.79479
-3.22217
2.13073
1.09144
0.844407
-0.777676
-0.0667307
2.09535
-4.97796
2.88261
-4.31435
1.59767
-2.26741
-1.8503
5.08039
-3.02436
-2.05603
-1.06281
1.15298
0.648927
-0.691765
0.0428379
-2.52085
-0.499798
3.02065
-3.93981
5.43987
-1.50006
3.70572
-2.86674
-0.838981
0.361851
-1.02515
0.663298
-1.3339
-1.78667
3.12057
0.587913
-2.01099
-2.11263
3.93756
-3.02096
-0.927252
3.94821
0.453653
0.109013
-0.562666
0.553754
-2.3949
-1.01401
0.00342326
3.43144
-0.262668
-0.627932
0.505812
-0.695506
0.833537
-0.138031
-1.61892
3.98181
-3.35704
2.02314
-0.104959
0.423276
-0.318317
-2.75814
0.533847
2.22429
1.03346
2.67225
5.23875
-3.1434
3.3662
-5.68948
2.32328
1.24985
-5.52699
4.27714
0.107864
-1.60429
-1.94167
2.79673
2.55789
-3.80864
2.29779
-3.59609
1.29831
-6.14452
3.50718
2.63734
-0.061021
-1.60171
0.725773
0.540588
-1.26636
2.73319
-0.84274
-1.89045
-0.594433
-3.14242
2.77735
-0.974456
-0.286142
2.56001
4.25575
-3.39953
-0.856225
-0.0325714
-0.508647
0.541218
2.60337
0.527705
-3.13107
0.629966
-1.75111
1.12115
-1.2839
3.26158
-1.97768
-1.72247
2.78595
2.24
-1.46735
-0.391861
0.983555
-0.591694
3.93149
-1.75814
0.425156
-0.0437699
-0.381387
-0.42495
-0.821848
1.2468
-0.517703
0.543688
-0.025985
4.94221
-2.98666
-1.95554
1.05532
-4.99513
-0.576259
0.0585558
-3.42103
1.09797
2.32307
5.55132
-2.4358
0.984485
-3.91004
5.72736
-2.36513
-3.36223
-0.0687082
0.522361
3.47005
-1.99544
-1.47462
-2.41565
0.547607
1.86804
-3.87853
3.89593
-0.0174085
2.00526
-5.08991
3.08465
0.574696
0.067184
-0.64188
-1.85725
2.51411
-0.656858
-0.215604
1.4329
-1.2173
-0.562057
0.246558
-0.656531
0.111295
-2.1187
-1.53645
1.46717
-3.40126
1.93408
-1.01254
1.69198
-0.679444
1.5986
1.14304
3.35632
-1.05853
-0.0357546
-0.158758
2.47899
3.07233
-1.95876
0.0562436
1.90252
1.62603
1.84403
1.4972
0.541316
-1.57132
0.558775
-1.08788
-0.0983632
1.18624
0.161331
0.683075
-3.46375
2.17985
-0.101865
-0.726146
0.828011
-3.57472
3.45693
0.117785
-1.20653
1.63999
-0.43346
-0.84972
-0.403334
1.25305
3.013
-3.308
0.295002
-3.67182
-2.4727
5.01474
-3.15176
-1.86298
-0.402388
0.369817
5.3525
-3.34724
-2.00769
3.47486
-1.87768
0.421304
1.45638
3.52381
-0.996617
-2.52719
4.2529
-1.20584
-3.04706
-1.57903
-0.298654
3.2742
-1.93743
-1.33677
-0.666949
3.1272
-2.46025
-0.322303
-3.61278
3.93509
0.670177
1.13287
-1.80305
-0.53422
-0.219635
0.753855
4.96933
-4.37414
-0.595193
-2.74382
-2.06659
2.76937
1.48638
-3.26602
-0.308693
0.615442
-1.04039
1.42491
-2.95047
1.52557
0.0157446
0.633183
-2.15658
4.4397
2.10937
2.83284
5.46598
-3.24784
-2.21814
-4.27388
3.34662
2.76066
-4.68636
1.9257
-2.48635
-0.168012
2.65436
-0.944597
-0.669019
1.61362
2.32917
-0.907065
-0.618619
0.51366
1.84849
-0.153171
-1.82379
-2.31091
3.21114
-0.900222
-0.822304
0.126798
-0.453882
0.0620218
0.484858
-4.36338
1.36293
-3.08541
0.35498
-0.968149
1.25909
-0.290939
0.116711
-0.857139
-1.99312
1.48305
0.510065
1.36333
0.976199
3.9333
-1.61648
-2.31682
1.94183
0.435974
-1.42744
2.85235
2.26704
-0.226517
-0.802459
-1.95568
4.37901
-3.71855
-0.660461
2.82412
-3.28264
1.68098
1.60166
3.1343
-3.44329
0.308988
-1.72198
1.40675
-0.494801
-0.311244
-0.486943
-2.28458
1.13062
-2.12632
0.995703
1.6483
1.62591
2.63928
-4.42759
1.7883
0.902536
-2.10301
1.20048
-3.8912
0.680461
0.0542736
1.3641
-2.19304
3.30325
-1.1102
-1.00123
1.21568
-0.214453
-1.60373
-0.344409
-0.480349
-0.866091
1.34644
0.357111
0.00826409
-0.365376
-1.25691
-0.611534
1.50843
1.78611
-3.29454
3.2413
-1.61527
0.915258
-1.79046
0.0684804
1.82094
-0.918404
-2.60444
-0.617723
1.36316
-1.38651
0.0233462
3.77507
-1.18078
-1.83274
2.98133
-1.14859
-0.446799
0.50703
-0.0602313
2.80227
-0.0690853
-1.64448
-1.30599
-1.98968
3.63158
-1.64189
2.39569
-4.41693
2.02124
2.3406
2.67414
-0.322139
0.430653
-0.108514
0.360992
-2.84734
2.49543
-3.72518
1.22975
0.205449
0.651265
-0.28531
2.47419
-1.39211
2.75504
-4.07979
5.32965
0.81736
-4.23671
-3.3713
1.84929
1.52201
2.53181
-0.402085
-2.12973
3.72349
-0.710497
-2.21231
-2.04678
-1.78683
2.47932
1.37135
-0.446337
-0.925013
1.26085
-1.1462
-2.79014
2.50483
3.66547
1.02527
-3.10866
1.27592
4.16902
-1.39965
-1.22425
1.52512
-0.300871
0.113063
-2.48384
2.37077
-3.61917
0.680285
2.93888
3.34624
-3.34624
-1.64402
3.16406
-1.52005
2.09102
1.84228
2.71738
-1.5836
-1.13378
-3.6836
3.84591
-0.162309
1.29034
-0.157012
-1.13333
1.02889
-0.439049
-0.589844
0.426501
-1.27622
1.20881
1.68353
-3.69122
-3.32945
3.88655
-0.557102
-1.13156
2.63999
-0.337372
0.177821
0.159552
-0.289259
-0.371724
0.660983
-1.48825
1.59612
5.42992
-4.32246
-1.10746
-0.29805
-2.08308
2.38113
-0.873636
0.969457
-0.0958214
0.47042
-1.09013
0.619712
-3.43895
1.22061
2.21833
0.658369
0.414811
-1.54607
0.321816
-0.383425
0.0215697
0.361855
2.69688
2.27245
0.157435
-0.494808
-0.192057
-1.15434
1.34639
-1.98053
3.15267
-1.17214
-0.101199
0.513446
-0.412247
1.6428
-0.864033
2.37007
-0.779755
-1.59031
0.0327728
-1.63295
1.02106
3.1543
1.69683
1.1647
-2.86153
1.83173
-1.62952
-0.202203
-4.05074
0.74012
-1.66862
0.700904
0.967714
1.94893
2.85407
-4.803
-2.50518
2.33717
0.273356
-3.62308
3.34972
-0.485891
0.847742
0.9138
-0.896011
-0.0177895
0.0961414
-1.18402
-1.04286
0.482035
0.560822
-2.64612
-0.774915
2.45327
0.153013
-0.170149
0.0171352
-0.452036
0.00523713
0.677502
-2.82467
2.14716
1.0458
2.06715
-3.11295
1.83255
-2.80686
3.43931
-0.632452
-2.85928
2.19233
-0.175809
-0.0937987
-1.5483
-1.11042
-0.99013
0.266714
0.723416
-3.41784
1.43731
2.66343
-2.96148
1.74695
2.42208
-1.16063
1.16015
0.000478173
1.37771
-4.85233
3.47462
0.577847
-1.05246
0.474609
1.27956
-2.92405
-2.49955
-0.103288
-1.21711
-0.119371
0.752169
-1.20234
0.450168
1.7581
-0.0672234
-0.150573
0.217797
4.6019
-2.65297
-2.00916
3.26121
-1.25205
1.0478
0.69782
-1.74562
-1.44927
0.963376
-0.817354
-0.172776
1.61718
1.1002
-0.751175
-2.50012
1.28225
0.0809086
2.46361
1.61439
0.652651
-3.64259
4.19436
0.431923
-1.81884
1.38691
-0.360373
-3.30322
3.66359
-1.14497
1.2323
-0.0873267
-1.66547
1.02448
-3.62598
3.30368
2.44163
-0.0753978
-1.70517
-0.287947
0.0382672
-1.60989
1.57162
1.62787
-3.77731
-0.502696
-1.83964
2.34234
-0.438898
1.00384
-0.564944
-2.59085
0.196111
2.39474
3.62847
-2.75898
-0.0874812
0.329204
-0.241723
-0.824469
-0.0491666
0.704677
1.41259
-2.11727
0.536287
-0.655487
0.1192
2.46077
1.35573
-3.8165
-1.35476
4.37006
0.358662
-0.00155038
-1.26143
-2.33856
3.59999
1.1642
2.54213
3.74974
-2.70394
-1.32623
0.845884
-0.827546
0.293326
-1.77741
4.53807
0.532224
-3.07088
2.53866
3.3119
-0.552894
-2.75901
-1.8676
2.76933
-0.901722
1.57545
-1.62015
-1.57696
3.19711
0.536876
-0.241124
-0.295752
-1.14152
-1.943
3.08451
-0.681058
0.391799
0.0993651
-0.169241
2.03102
-3.17253
-2.81144
-0.841526
3.65296
-0.243138
-1.91482
2.15796
0.166744
5.27132
-5.43783
0.166503
0.83461
-0.613509
-0.221101
0.0107239
-1.17135
1.0215
0.893911
-1.22995
0.285348
-3.18241
4.0478
-0.865391
-1.01646
0.914599
0.957585
1.76039
-3.66119
-1.01449
-0.142366
-0.44109
0.583455
2.12244
-0.508047
-0.78049
0.858733
-0.0782434
1.28797
-1.50357
-4.66399
2.39657
3.65428
0.803725
-0.507433
0.977853
-0.762343
1.81015
3.61273
-1.92919
-0.803181
0.022691
-0.388622
-2.40152
0.820091
0.892383
-0.846445
-3.68397
0.0648007
-0.408871
0.825003
-0.247157
-3.1509
2.3766
0.7743
2.76448
0.507477
0.707012
-0.221194
-0.485818
1.06966
-0.984407
-0.0852556
-3.22562
1.18279
-4.06807
2.07839
1.12396
0.0253185
-1.14928
-0.141331
1.12385
-0.982515
4.23293
0.00342939
-4.23636
0.728085
0.0505011
-0.778586
-0.52394
-0.965909
0.886643
-0.073149
0.0136456
0.0180559
-0.0317015
1.47932
-0.212641
-1.26668
0.207703
-0.194058
3.16088
-2.59072
-0.132687
-0.523069
0.655756
-4.10685
0.924437
0.136124
-0.536234
1.53199
0.0298092
0.123204
-0.19331
0.157556
0.931413
0.622365
-1.55378
1.62262
1.77842
1.72547
-1.29355
0.83442
-0.730267
0.254721
-1.25595
2.20257
0.249638
-2.45221
2.12281
-0.140698
-1.98212
-0.886904
-1.36946
-1.36946
-0.0178059
1.38727
1.56936
-1.71407
0.144702
4.32475
-0.0990521
-4.2257
-1.57248
0.472344
1.10014
-1.96126
2.60208
-0.640821
2.36846
2.47535
-4.84381
1.49485
-2.04364
-1.04696
1.67268
-0.625724
0.825767
0.3627
-1.18847
-4.89956
3.4341
1.46547
0.0996153
-0.0815594
-3.3721
0.560664
1.19171
-0.744978
-0.446731
1.92839
-2.43656
0.508167
-0.303084
-0.758979
0.698889
4.57244
3.27255
-0.545622
-2.72693
-3.35636
0.549497
1.34829
-2.15075
3.28179
-4.92627
1.64448
-0.381774
1.10755
0.0400197
-1.52151
1.32945
-0.616464
0.804424
-0.724798
-3.41206
4.13686
2.36002
2.99247
-2.88832
3.08565
-0.197329
1.14044
-0.388274
-2.34576
-1.02277
-0.43454
0.479031
-0.0444913
2.13121
-0.262757
-1.86845
0.190372
-0.153865
-0.0365071
-0.266287
2.19468
-3.08807
-0.339617
3.42769
-3.08917
-0.948764
4.03793
1.89169
-1.39438
-0.497311
-0.879653
0.0963565
0.783297
-0.943175
0.633716
0.309459
-3.92944
0.217386
3.71205
0.112304
0.69481
-0.807114
3.11878
-3.54213
0.42335
-2.051
3.3239
0.991062
-4.31496
0.0253415
-0.459882
0.22737
-3.11805
2.89067
2.33722
-4.69269
-3.78604
3.29816
0.487877
0.64536
-0.109073
2.84604
-1.88846
-0.17527
-1.07468
1.24995
-0.0414353
0.65388
-0.612444
-0.689079
3.48789
-2.79882
2.69595
-1.46911
-1.22683
4.02575
-3.86237
-0.163378
3.06745
-1.1816
-1.88585
0.177695
-0.852448
0.674753
-1.10367
-0.0342897
-3.93762
3.46062
0.477003
0.223199
-4.16082
-1.1261
1.79968
-0.673585
-2.14943
-2.22471
0.698694
-0.620738
-0.0779557
-3.21751
-0.889333
-0.670354
0.433248
0.237107
-0.481433
1.1114
-3.71578
3.54853
0.167249
-0.764853
-0.0700796
-0.508394
0.780641
-0.0525563
-2.39519
0.537939
0.475212
-0.596039
0.120826
-2.32412
0.603062
1.72106
1.36987
-0.0795259
-0.972397
2.48006
0.322213
1.39234
-0.403339
0.692078
-0.288739
-0.378282
2.16518
-2.3966
1.53496
0.861647
-0.181893
0.281508
5.1558
-2.79578
4.25579
-2.87808
-0.951022
-0.619131
1.57015
2.24707
-3.94424
1.69717
2.18703
-2.43017
3.73133
-1.69442
-2.03691
-0.0196114
-2.01428
-0.382321
-1.75862
3.67808
-1.91946
0.155657
-1.42305
4.78925
-4.18168
0.964167
1.66691
-0.996733
-0.375076
0.423093
0.559925
-0.0162368
-1.9219
-1.90379
5.93129
-3.08047
-1.77517
1.47026
0.30491
0.265598
0.763295
-2.57169
-1.67551
4.2472
0.947825
1.38135
2.00025e-05
-0.51236
0.51234
3.27662
-1.11389
0.16273
0.951159
2.48864
-0.286075
-1.41183
-3.95996
0.630514
-0.815684
0.0429704
0.772713
2.33154
3.39582
1.95497
-2.25199
0.297017
3.87285
0.152894
2.36214
-3.33437
0.972232
-3.23924
-0.0761321
3.31537
-3.17297
4.08406
-0.911094
0.481583
-0.00501843
-0.476565
-2.2252
4.56242
-1.13656
-0.823094
1.95965
0.173576
-3.0619
0.842352
-0.300689
-0.541663
-3.76902
4.95501
-1.18599
-0.919552
2.09361
-1.17405
4.64303
-2.04815
-2.59488
-0.0418467
-2.33559
2.37744
-0.717564
-0.178446
-1.99309
4.36155
1.44431
-3.08832
4.32313
-1.92743
-0.682049
0.549363
-3.42282
0.183577
4.64576
-2.00647
0.0147433
-5.20196
0.917126
-0.0861783
1.50278
2.03337
-3.53614
2.1971
-0.482627
-1.71447
0.872818
-3.98006
3.10724
-0.654985
0.0399406
0.615045
-0.771177
-1.85696
2.62814
1.35684
-1.10212
-0.875679
0.0805511
0.795128
0.490375
1.11949
-1.60987
0.304777
0.393917
-3.65556
4.339
-0.683436
-1.08363
-0.061346
1.75632
0.785663
-2.54198
2.17628
2.78311
-4.95939
0.59654
1.93527
-0.0990783
4.47558
-0.013595
3.13351
-3.11992
-0.102875
0.00167657
0.697559
-0.387213
-0.310346
5.62776
-4.72629
-0.901468
1.74913
1.9822
-0.453812
0.538258
-0.0844459
-1.14678
3.20356
-2.05678
0.0644032
0.556436
-0.62084
2.75157
-3.84232
1.09074
0.0140712
-2.85045
2.83638
3.29356
-0.690187
1.19627
1.00083
-1.52423
-0.0638107
1.58804
1.10425
-3.18733
0.752578
-1.94646
1.19388
0.703401
-0.30367
-0.399731
0.200454
-0.918018
-0.304572
3.24861
-2.94403
-0.783603
4.55999
3.0761
-2.46953
-0.606571
2.48859
-2.16899
-2.07189
0.619864
1.45203
0.322539
-1.90614
0.88032
-0.31451
-0.565809
0.206954
0.500058
0.594908
2.90915
-3.50406
0.799802
0.679521
0.49847
-3.58764
-1.68267
0.652116
1.03056
-1.26737
-0.902097
2.16947
1.82688
-0.895465
-3.34342
2.21186
1.25374
-0.953299
-0.300445
-1.71606
3.49502
-1.77896
-1.68973
1.7225
-1.67871
2.08333
-0.404621
-2.15655
3.6458
-1.48925
-0.0812502
0.784885
-0.703634
-1.20888
1.06754
-0.844517
-2.13367
3.47344
-1.33977
-2.12199
2.65584
1.98398
-2.00467
0.0206943
1.0229
0.45522
-1.47812
-4.92881
3.20297
1.72583
0.127167
0.81898
-0.946147
0.360481
2.73597
-3.42505
3.7427
-1.49563
-1.35629
-2.01501
-2.79781
2.78422
1.96459
-0.0490038
1.51315
0.505002
-2.01815
-1.21519
1.11114
0.104048
-0.515758
-0.145843
0.661601
-2.25342
-0.665519
2.91894
-0.0795171
1.74175
-1.66223
-2.8728
-1.04067
3.91347
-0.541405
1.5643
4.40279
1.22497
-3.43258
2.05494
1.37764
-1.53276
-0.0691575
1.60192
0.0221488
0.632125
-0.836952
0.204827
-2.27474
-3.76025
1.50682
0.481603
0.731488
-0.553793
0.705992
1.42521
-1.41003
-2.55525
0.108923
1.01964
1.37855
-1.11894
-0.259602
-2.73892
-1.99418
4.7331
-0.526443
-0.997782
-1.9833
-0.392431
2.37573
0.473243
0.690469
-1.16371
0.0830638
4.41146
-2.82488
-1.58657
0.675704
2.59685
0.420758
0.139242
-1.70033
1.56109
-3.28838
4.7611
-1.47271
-2.19168
-1.02137
3.21305
-1.72061
0.673653
-1.63798
-0.433912
4.30829
-1.88056
-2.42774
1.74045
-0.881704
-0.85875
1.51931
0.192138
-1.71145
-0.594536
0.70684
1.17926
-1.15695
-0.0223116
0.15922
-0.093657
-0.770719
-0.046116
2.55497
1.75333
-1.37269
3.34585
-1.86752
4.93653
1.36306
0.377391
-3.36157
1.16989
2.81471
-2.45372
-0.365577
-2.43975
0.478486
0.58296
-1.70906
2.82825
-2.71519
3.23628
-0.101985
-0.753388
-0.394589
-1.06361
-0.326468
1.39008
-1.07895
-0.129186
2.9557
0.534754
-3.49045
0.119475
-0.964911
0.845436
-0.0359118
1.75077
-3.43595
1.68518
3.40166
-0.282883
-4.01313
4.41652
-0.403394
0.828597
-0.489213
-4.1586
-0.77021
-1.23888
3.56588
-0.105263
1.89667
4.39758
-1.58731
-2.81027
-2.52018
-0.118572
2.63875
1.00097
1.79625
-2.79722
-2.73453
0.143676
-0.638533
-0.559592
1.19812
-1.83512
2.36734
0.500577
2.031
-2.53157
-0.552602
0.0187919
0.53381
-3.80429
0.501063
3.30323
1.79224
1.95046
-0.87376
2.14726
0.920191
-1.16176
-0.506861
3.38747
-3.9154
0.301349
-0.0321863
-0.269163
2.21984
-0.724989
2.63267
0.182805
-2.81547
3.09057
-4.95808
-0.121666
0.696362
-0.831985
1.43196
-0.599974
-2.82793
3.0553
-0.0693529
1.0148
-0.945445
-1.60564
1.23766
0.367981
-0.750474
-0.914999
-0.967827
2.31612
0.993634
0.130325
-0.536089
0.561431
-1.07696
-0.674148
0.798888
-0.731704
-0.708926
0.677141
0.0317841
0.709247
-0.82595
0.116703
-1.82796
1.19255
0.530412
-2.51371
-0.0530258
-1.00979
0.0809335
2.15468
-2.23562
1.16621
-1.26457
0.40738
-2.67989
2.27251
-0.960951
2.91397
-1.95302
0.737201
-3.04811
-1.43979
-0.0934101
-3.69263
3.07647
2.85482
-2.92948
-0.413931
-1.76395
-1.51869
-1.50357
0.637475
-0.374072
-0.0887997
0.462872
5.13619
-2.80465
3.24372
-0.748287
-0.879876
-0.526855
1.40673
-4.70935
2.26574
2.44361
-2.02707
1.56271
-0.543126
3.86702
0.567903
-0.345045
-1.27034
-1.65417
0.517611
2.31024
-1.93139
-0.378845
-0.481999
3.4377
-0.865626
1.56779
-0.702167
2.96054
-5.05685
2.25106
2.80579
0.843569
0.774057
-1.61763
2.07518
-0.800198
-1.27498
-1.96248
1.04293
-3.84558
0.0425703
1.47674
3.53327
-3.89364
1.49259
-0.666823
-1.58487
2.68912
-3.45968
2.47055
0.989131
2.95863
-4.05122
1.09259
-2.73628
2.88019
-0.143905
1.63833
-2.01662
0.0429108
0.924406
0.967283
0.692614
-3.04058
1.4051
-3.99965
2.35534
1.64431
0.890973
-3.41115
2.45996
-0.172044
-2.24361
0.462379
0.672203
4.02882
-1.35219
-2.67663
-0.502161
0.969254
-2.23663
0.539615
-3.73203
3.61346
-2.85953
1.23938
1.86669
-2.46376
1.40903
1.05473
-3.31034
1.96006
1.35028
-0.738067
0.300767
-0.739665
-3.80994
2.68521
1.12473
2.37244
-4.59764
-3.65209
-0.00346685
4.82795
-1.54616
0.639409
0.294616
-0.934025
-0.0904759
-0.541974
0.632449
-0.986722
1.76933
2.08715
-1.49668
-0.967075
0.663917
0.692919
0.866964
1.33535
-2.20231
1.37976
-0.839168
-0.0942131
-4.2355
4.32972
-1.24157
1.56878
-2.98507
-2.82912
-1.85608
4.6852
0.894957
-1.16489
-2.54284
0.786982
1.75585
-0.290382
-0.0506044
0.340986
3.57369
-4.29849
0.666049
-1.49803
1.82496
2.59722
-4.42219
-1.73743
-0.0377471
-3.10777
0.873551
2.23422
-2.88255
2.89662
1.30561
-4.59399
0.382
-0.0806512
-0.186653
-0.103729
-0.0973444
3.40925
-2.32422
2.88417
-0.559951
3.46916
0.0157657
-3.48493
-2.56562
-0.0713784
-0.896771
0.172208
3.17403
0.393103
0.113927
0.873381
3.74766
-1.65664
1.92932
-0.766247
0.250489
-3.4926
-0.223176
-3.37754
1.03582
-3.03125
0.609173
0.689324
-1.2985
3.22315
0.14964
-3.37279
-0.359453
0.354435
-1.28356
-2.78451
-2.97817
-0.46512
-1.92209
5.01265
-1.241
1.67858
-0.437575
-3.91829
1.17937
-1.03445
1.90142
-0.903527
-2.24737
-2.42057
-1.19797
1.2692
-1.15757
-1.16655
4.11533
-0.549448
2.1977
-0.949525
-1.24818
0.424039
0.559516
0.898838
3.88021
-3.60685
0.0252166
-0.835716
1.1702
-1.88493
1.94118
-1.64222
-1.92631
0.775287
0.612963
-1.38825
-3.41006
0.0638251
-0.450599
2.90405
-2.45345
-0.124871
-3.88826
-2.61938
3.14709
5.57932
-2.59761
-2.98171
-0.493003
1.19391
3.00747
-1.5945
-1.41296
0.929898
-1.02356
0.128097
0.569462
-0.711615
0.0944397
0.617175
-0.469365
1.98251
-2.22895
4.60139
-0.140397
-0.480341
-1.02446
-0.263282
1.28774
-0.179597
3.75328
0.326591
1.72989
-2.05648
-1.40558
2.11026
1.62869
1.57487
-1.29801
-0.384661
1.90501
-0.697138
-1.20788
-0.490991
0.483194
0.0077963
0.561236
-3.04541
2.48417
-3.50065
0.522487
0.809935
-1.98487
3.02069
-0.0265626
0.956461
0.435325
-1.67633
-3.67256
1.88574
-3.98509
1.20891
-1.62428
0.136024
-1.54829
-2.14664
3.69493
-2.99992
0.905065
0.20119
-1.10626
3.87255
-3.05443
2.97921
-1.97824
0.575765
1.99094
-2.5667
0.825337
-1.46387
-1.6516
-1.07844
2.73004
0.979622
-0.404384
-0.575238
-2.23536
4.92518
-2.68982
2.96074
-1.9096
-1.05114
2.84225
0.0847764
-2.92703
-2.11559
-2.94126
-1.19776
-0.0193483
1.49082
2.22399
-0.0684655
0.302601
-0.234135
-2.50319
-0.604582
2.70981
2.28603
-1.99295
2.38233
-0.389372
-1.06736
1.23009
0.0203253
1.55181
-1.57214
0.617557
-1.48318
-0.400723
-3.40922
-3.35756
1.17961
0.0741292
-0.731159
-0.282854
0.256781
2.78517
-3.04195
-1.89786
-0.497329
1.72254
1.51876
0.251459
-0.896596
1.3952
-0.763692
-0.631508
0.328178
-1.31652
0.988339
0.711393
0.928597
1.40011
3.05781
-1.40951
3.27913
-1.71035
-0.376767
-0.900391
1.27716
2.81831
0.308886
0.117768
-2.45844
1.68726
2.25927
-2.43887
-1.6421
-3.01111
4.65321
-2.30186
-2.40749
-4.3515
4.44668
-0.0951792
1.69221
-1.44446
1.11799
2.05802
0.999782
-1.31459
0.939631
0.374958
-1.09441
-2.24465
-0.955366
-1.64149
2.59686
1.91035
-0.962525
2.00595
-1.25337
2.16714
-3.4507
1.75321
-1.33021
-2.10053
3.82793
-1.7274
2.92044
1.82987
1.0949
-2.92478
4.23315
-2.3451
-1.88805
-2.67606
-2.51289
4.25958
-1.74669
1.05249
1.14521
-0.996614
0.970052
1.60637
3.03666
-0.740521
0.650045
0.1285
-0.195724
3.60714
-2.01103
1.71963
3.41655
-1.44397
0.735743
0.708232
0.812195
-1.76322
2.82922
-0.196552
1.33105
-0.691641
-2.51222
-0.485296
2.99752
0.646014
-0.135412
-0.510602
0.47623
0.35838
0.515574
-3.68854
-0.97122
1.06736
2.60977
-2.27711
-0.332664
0.577096
1.32792
-0.493034
0.27184
0.874551
0.836187
-1.71074
-1.32954
4.3719
-0.476195
-2.12735
4.32062
-2.19327
-1.06838
1.55876
0.302587
-0.855189
4.05242
-2.00841
-1.25761
0.95955
1.11563
1.04419
-1.09722
-0.620131
0.538881
-1.05569
-0.458576
0.00653993
-0.408814
-0.548502
3.01946
-2.47096
-0.118372
-0.265053
-1.43163
0.356952
-1.15256
-0.0452
-3.74347
2.48204
0.848052
0.82463
-1.93272
0.714504
1.21822
1.02215
0.294548
3.09199
1.65783
-4.74981
-0.294182
-0.0912728
0.385455
0.634866
-2.64402
3.82794
1.75137
2.91456
-2.65778
-4.29031
-0.290228
-0.362894
-0.0215556
1.72073
1.54118
1.45601
-2.99719
1.28933
-0.123122
-0.129032
-1.15419
-0.289789
-1.85427
-1.70316
2.0257
1.73511
1.52609
2.08237
-2.15333
0.0709538
0.656036
0.0211049
-0.226668
0.857497
-0.14825
2.79268
0.775156
-3.56783
2.26385
0.046388
-0.763525
0.447081
0.316444
-1.18009
0.00374017
1.17634
0.933582
2.02923
-2.96281
0.795463
1.03141
2.56953
-0.0873748
-0.882559
1.99596
1.7517
0.360109
-0.521009
0.1609
-3.80148
1.95118
3.11637
-2.49028
-0.626093
0.057896
-0.477349
0.419453
3.13792
-3.44249
2.24511
-0.334756
1.54465
1.43456
-0.392972
-0.0656042
-1.67423
0.251838
1.42239
-1.89599
-0.403223
3.99011
-2.04104
-1.94907
1.70233
-0.169489
-1.53284
1.48163
-2.51704
1.0354
-0.378986
1.83233
-0.011395
-2.25443
3.79874
-1.5443
-1.3188
-0.355429
-1.71005
1.20254
0.365251
3.55527
-0.0195559
-3.53571
-0.88369
0.58012
0.798426
0.647124
-0.108866
0.727951
0.704008
-0.827947
1.01832
0.179005
-0.113163
-0.571595
0.452064
-1.41129
1.98706
0.0520017
0.840381
0.948863
-1.06094
2.65955
-0.195899
2.27827
-0.783788
-0.362647
-0.822824
1.69737
-0.458595
3.31287
-2.85427
-2.9561
-0.416
-3.01291
4.14623
-1.13331
-0.470269
1.67281
1.05572
-0.210743
-0.0659849
-0.803515
0.869499
-2.99403
0.985621
0.32657
-0.414051
1.99515
-4.56683
1.53926
-3.87782
-2.85655
4.52817
-1.77499
1.76191
-0.925726
0.0430496
-2.26206
2.82329
-0.0132166
-0.49543
0.548447
-1.94283
-0.354224
-2.17937
2.53359
-0.991146
1.88509
5.33906
-3.56901
-1.77004
-0.728279
0.259051
0.775384
0.0729217
-0.848306
-2.86887
0.544647
0.587445
0.115956
-0.0346631
-0.389973
0.424636
1.46723
-4.48014
0.320516
1.57608
0.0790902
-1.65517
-3.72463
3.26603
0.498158
0.116327
-0.614485
1.35321
-3.48688
-0.431641
-0.0214189
0.45306
0.647019
-0.148861
-0.0428889
2.54576
-1.94922
2.12927
1.7091
-0.913635
-3.98356
1.15444
-2.40525
1.928
0.47725
2.77344
-4.41555
-1.74736
-1.04537
2.79273
0.247681
1.34637
-0.988064
0.831052
4.07066
-0.631363
-3.4393
-0.0128854
-3.47972
2.56441
0.277842
1.45199
1.55547
-0.486182
-0.0261777
0.47095
-0.968715
-1.1576
0.404805
-0.213292
-0.191513
0.0145531
-3.60438
3.58982
-0.171576
0.985745
-0.814169
1.61549
-3.69379
2.0783
-0.395934
-1.90635
-0.129659
0.254232
2.36411
-1.15497
-0.658812
1.81378
-1.24222
-1.4039
1.49236
-0.879401
1.34691
0.217261
-1.56417
-1.88721
-0.0455079
-2.60697
-0.462674
-0.0726364
0.53531
0.453309
0.98381
-1.43712
1.5011
-3.05973
1.55863
0.0531501
-1.91412
0.654411
-4.42343
-1.3992
-3.46106
4.86026
-3.40559
0.162878
3.24271
-4.47311
-2.8074
0.0711182
-0.931
0.961239
-0.030239
-4.94645
-1.24538
4.03805
1.26621
-0.643843
0.286919
-1.10974
-0.555033
1.58645
0.478481
0.261491
-1.28595
0.0599199
-0.526311
0.466391
-0.584427
0.302228
-0.33449
0.392386
-0.907943
1.75151
-3.50987
2.06761
1.44226
-0.970331
0.351712
2.07437
0.634796
0.0112183
-0.571499
-0.743091
-1.6559
-0.886938
-1.83519
0.647236
1.18796
-0.0934248
1.35489
-1.26146
-1.36437
1.69254
-0.271361
2.49566
3.59927
-3.27268
1.89888
-3.1411
1.51088
-2.04183
0.530952
0.310778
0.0184253
0.412771
0.0178817
-3.66383
2.11554
0.299829
1.4025
0.0459809
-0.659499
0.613518
-5.70829
2.25797
0.4059
-1.22775
-0.629998
-0.0917337
-0.689792
0.781526
-1.88401
0.729037
-3.64643
3.2457
4.61329
-2.78833
-0.782307
0.707701
0.0746063
-0.361681
-0.0794081
-0.466304
-3.05508
0.632244
2.42283
-0.440911
0.349638
-0.306681
1.1212
-0.814516
1.46202
0.783085
0.693301
-0.362778
-0.330522
-0.870376
0.922378
0.675038
-0.469589
1.94695
-3.15316
3.62009
0.25276
-1.99783
-0.444679
3.33094
-0.0844919
-3.24645
-0.750549
-0.600335
1.35088
1.84689
-3.76879
-1.37955
2.63058
-1.25103
-0.0476233
-0.132761
0.180384
-3.71386
3.73285
-0.018987
-1.39301
1.80039
1.76301
0.932937
3.5249
-1.31545
-2.20945
0.13507
0.569475
-0.704544
-0.717063
-1.03546
-0.0682099
-1.00723
-0.0282309
0.0570909
-1.11628
1.05919
-0.315992
3.34002
-3.02403
-3.01692
1.13507
1.88185
0.951891
3.28104
0.126576
0.0484683
-0.175045
1.93468
0.832927
-2.7676
0.087041
-0.461113
-1.4774
3.41671
-1.93931
-2.99895
0.486731
2.33168
0.946084
-2.69344
-0.0110465
-0.386248
0.397294
3.84594
-1.23132
-2.61462
1.69651
0.7189
-3.96735
2.06355
3.86634
-3.96056
-1.78068
0.438509
1.34218
-0.576186
0.4953
0.926308
-1.42161
0.501732
-0.373675
-0.128058
-0.035473
0.387199
-0.351726
1.07435
-1.19275
0.118405
-1.96897
4.13611
-0.972527
1.01079
0.467005
-0.773686
1.20527
-1.84134
0.636072
-2.00328
-1.45639
-0.68754
-0.255635
-0.332541
0.00767376
0.324867
3.81036
-2.50844
-1.30192
0.391636
2.21814
-0.770509
-0.444676
-1.90464
0.294747
1.7796
0.970896
-2.75049
0.00241951
-0.0404953
0.0380758
-0.0698486
1.13951
0.0748286
-0.209761
0.134932
4.82651
-2.03192
-2.79459
-4.2642
0.852143
1.1291
-3.00831
-0.250352
3.25866
1.29637
-2.68847
-1.33
0.793769
0.401398
0.0113728
-2.16593
4.60149
-2.43556
0.46421
0.103693
0.135943
0.630747
-0.767576
0.627179
-1.12143
1.59377
-2.68346
2.72652
-0.0430618
2.36452
-1.39172
-0.972798
1.88845
-1.17706
0.761781
0.207676
-0.756176
0.624278
-0.0754556
-1.30205
1.07058
-2.53969
-3.8029
1.54847
-0.627144
1.26086
0.442671
0.204348
-0.00383706
-0.0437863
3.05898
-3.08515
0.0261744
3.19508
-1.67783
0.653606
1.02423
0.299139
-1.13485
-1.38101
-3.11167
-0.790055
0.654644
-0.551747
-0.907001
1.45875
-2.70764
0.585647
0.851957
1.26644
-2.11839
0.562336
0.417286
-0.886195
-2.24132
5.02443
-0.103052
-2.42414
0.866633
-1.72778
0.861151
-0.839929
1.09139
-2.27352
-3.43477
-1.01048
-0.595155
2.28199
-3.66662
0.813326
2.85329
-0.0542445
-1.03304
0.0734272
-1.13376
1.06033
-3.77702
-1.91246
-0.497049
0.47563
3.35155
1.88721
1.07427
2.7008
-2.60194
-1.81499
3.17439
-0.174028
-3.00036