/*--------------------------------*- C++ -*----------------------------------*\
| =========                 |                                                 |
| \\      /  F ield         | OpenFOAM: The Open Source CFD Toolbox           |
|  \\    /   O peration     | Version:  2306                                  |
|   \\  /    A nd           | Website:  www.openfoam.com                      |
|    \\/     M anipulation  |                                                 |
\*---------------------------------------------------------------------------*/
FoamFile
{
    version     2.0;
    format      ascii;
    arch        "LSB;label=32;scalar=64";
    class       surfaceScalarField;
    location    "6.9";
    object      phi;
}
// * * * * * * * * * * * * * * * * * * * * * * * * * * * * * * * * * * * * * //

dimensions      [0 3 -1 0 0 0 0];

oriented        oriented;

internalField   nonuniform List<scalar> 
7520
(
-0.98322
0.79295
0.19027
-1.34038
-0.205884
1.54626
-0.0502772
-1.9127
1.96298
0.228261
-0.030329
-0.197932
0.214155
1.7502
-1.96436
-0.0880664
0.0948194
-0.00675297
-0.308049
2.12802
-1.81997
-0.179341
-1.98335
2.16269
-1.54184
1.49157
0.830079
-0.0901177
-0.739961
0.407513
-0.204615
-0.202898
-0.262509
-1.60496
1.86747
0.693754
-0.100477
-0.593277
-0.0975892
0.135319
-0.0377302
-2.08406
0.945746
1.13832
0.082031
1.54262
-1.62466
0.244319
-0.0711122
-0.173207
-0.114285
-0.340802
0.455087
0.034033
0.0208796
-0.0549126
-0.0394658
0.283785
-0.387991
-0.287256
0.675247
-1.06821
1.15024
-0.0322094
-0.307375
0.339584
0.136242
-0.139724
0.00348179
0.110866
-0.304646
0.19378
0.246843
-0.241438
-0.00540424
0.861406
1.13113
-1.99253
-0.035261
0.309375
-0.274114
-0.0236718
0.0577047
0.196149
-0.0318052
-0.164344
-1.14413
1.74072
-0.596592
-0.0471808
-0.0178873
0.0650681
-1.8489
2.03024
-0.181338
-0.169659
-0.0399632
0.209622
-0.317976
-1.25322
1.5712
-0.38661
0.968092
-0.581482
0.259047
-0.529176
0.270129
0.815863
-1.59049
0.774628
0.0898954
-0.310496
0.220601
-0.0440975
-0.0994972
0.143595
-0.0277083
0.255969
0.326961
-0.407493
0.0805319
0.28161
-0.0347677
2.09011
-1.57367
-0.516444
-0.566228
-0.591212
1.15744
-1.47377
1.6181
-0.14433
-0.146146
-0.0916863
0.237832
0.258362
-0.0739376
-0.184424
-1.33904
0.194908
0.267669
-0.0728439
-0.194825
1.79987
0.179081
-1.97896
-0.722872
0.268551
0.454321
-0.0175165
0.0207916
-0.00327516
1.06697
0.477076
-1.54405
0.014568
-0.102634
-0.76466
0.120872
0.643788
0.381955
-1.25776
0.875802
-0.0399414
-0.12072
0.160662
-0.114254
0.0670731
-2.19762
1.122
1.07562
1.56651
-0.734175
-0.832338
0.0193614
0.160978
-0.18034
-1.30761
0.98963
0.817346
-0.123592
0.015661
-0.0331774
0.00406611
-0.101655
1.14325
-2.3663
1.22305
0.131854
1.66802
-1.25141
0.978691
0.27272
0.307677
-0.232351
-0.0753261
-0.511007
0.892962
-0.00639005
-0.606997
0.613387
0.332109
-0.0910303
-0.241079
0.0881702
-0.256372
0.168202
0.972194
-1.55879
0.586597
0.124706
-0.109323
-0.0153827
1.6976
-0.492028
-1.20557
0.403352
-0.749148
0.345796
1.68557
-1.18723
-0.498335
-0.81987
0.0552104
-1.48654
-0.711083
1.12286
-0.677383
-0.445478
0.235514
-0.607712
0.372199
-0.366777
0.197118
-0.523931
0.409646
0.212775
-0.0166261
0.0121373
-0.0472014
0.035064
1.03259
0.665005
-1.97173
2.30022
-0.328489
0.725891
0.840623
-0.959755
1.11164
-0.151882
0.0163475
-0.066056
0.0497085
1.36587
-1.62838
0.23734
0.192185
-0.102289
0.264321
0.267483
-0.531803
0.00735454
0.0816123
-0.0889668
-0.520364
0.380722
0.139642
1.41642
-0.444227
-0.711912
0.610023
0.10189
1.09308
-1.68833
0.595252
-0.0865044
0.108586
-0.0220815
-0.0359258
0.0527074
-0.0167816
3.04449
-1.89117
-1.15332
0.524224
-0.408979
-0.574241
-1.34088
0.829876
-1.92644
1.61839
0.160811
-0.0774289
-0.0833826
0.336769
0.0707442
-0.154492
0.153353
0.0011392
-0.116062
0.150281
-0.0342193
1.95851
-1.14265
-0.0975059
0.0173597
0.0801462
-0.761866
0.373875
0.028546
-0.0406384
0.0120924
0.580165
0.542696
-0.792321
0.498257
0.294064
1.21643
-1.5186
0.30217
0.0366654
0.099577
-0.196445
-0.526427
-0.378366
0.0980133
0.280352
1.02348
-0.193398
0.610121
-0.506155
-0.103966
-0.0523949
-0.0713836
0.123778
-0.203692
0.180269
0.0234228
0.699157
-1.84158
1.14242
0.377316
-0.409526
-0.343133
-0.0441674
0.387301
-0.0220971
-0.0754088
-0.322718
-0.249534
0.572252
0.13806
0.0319955
-0.170055
-0.0636627
0.201722
-0.599963
-0.192358
-0.627462
-0.528866
1.15633
-1.19149
2.26415
-1.07266
0.398445
-0.411609
0.0131641
-1.15519
-0.185691
-0.0332308
-0.0496358
0.0828666
1.40606
-0.339089
-0.639307
0.410849
0.228457
-0.00966316
0.130231
-0.120568
0.281872
-0.0725886
-0.209283
0.224707
-2.13741
0.324649
-1.79842
-2.75499
0.86209
1.8929
-0.836391
-0.41502
-1.4576
1.42506
0.0325402
2.10411
0.237542
-2.34166
0.176983
-0.221081
0.559454
0.516345
-1.0758
-0.269144
-0.24267
0.511814
0.303195
-1.76079
-1.84292
-0.00598222
-0.00146896
0.0136063
0.0606513
-0.113909
0.0532575
0.278828
-0.31877
1.57041
-0.47733
-0.151114
0.123405
-0.0205131
0.00295169
0.0175614
0.746353
-0.409059
-0.337293
-0.433586
-1.65048
-0.0598418
-0.209302
0.0512094
-0.576032
0.524823
0.309722
0.128434
-0.438156
-1.5694
0.937571
0.63183
0.924726
-0.710571
-0.063414
0.446861
-0.383447
-0.294123
0.404989
0.50215
-0.231766
-0.270384
0.789197
-0.524876
0.232531
-0.305375
0.881341
0.34008
-1.22142
0.291969
-0.32723
-0.336563
-1.4605
1.79706
1.29201
0.652436
0.679023
-0.443509
-1.3301
0.943494
-0.670267
0.898107
-0.22784
0.0096611
-0.0335769
0.0239158
0.269805
-0.311344
0.0415385
-0.967499
1.54766
-0.266355
-0.145274
0.411628
0.420201
-0.110478
-0.836006
0.887216
0.573741
-1.06587
0.492124
-0.502277
-0.0180864
0.661225
-0.402177
0.13527
-0.0105646
-0.267516
0.228558
0.0389587
0.076575
-0.192637
-0.334762
-0.104395
0.439157
0.128107
0.204002
-0.995268
-0.563523
-0.750912
-0.818489
0.0136965
0.0421464
-0.055843
1.20317
-0.1796
-1.02357
-1.49914
0.307648
-1.17997
2.17058
-0.990606
0.349964
0.152186
-0.43405
0.497469
-0.0634192
-0.770086
0.573641
0.569773
-1.136
1.7514
-0.059976
-1.69142
-1.43205
1.87843
-0.44638
-0.021274
0.0819253
0.397706
1.52426
-1.92196
0.0334167
-0.162752
0.129335
-0.114983
1.79601
-1.68103
0.00132836
0.107147
-0.108476
-0.890831
1.24981
-0.35898
-0.12969
-0.640396
0.0757492
-0.410511
0.277725
-0.170932
-1.79815
1.96908
0.0271312
-0.00625156
-1.7066
0.711328
-0.223574
-0.223962
0.447536
0.0744494
-0.126844
0.128078
1.58618
-1.71426
-0.563078
-0.552763
1.11584
-0.493581
0.390313
0.103268
2.70419
-1.78897
-0.915217
0.44529
-1.00837
0.0456299
-0.0509495
0.00531956
0.109913
0.737689
-0.847602
0.0404965
-0.0438105
0.00331392
0.836563
0.810681
-1.64724
-0.233019
-0.478893
-0.0600759
0.167527
-0.107451
-0.913927
0.694505
0.219422
-0.0678452
0.0369835
0.0308617
1.60965
-0.406479
1.05397
-1.97208
0.918115
-2.79913
1.20939
1.58975
-1.17439
-1.62474
-0.373669
0.488721
-0.115052
0.518027
-0.324392
-0.193635
0.908167
-1.69498
0.786809
0.0455613
1.06748
-1.11304
-0.691632
0.0142489
1.14018
-0.258839
1.20989
1.32267
-2.53256
-0.18026
0.0852034
0.0950569
0.0465681
-0.960495
1.86808
-0.478781
-1.3893
0.133019
-0.0996021
0.113195
0.198078
-0.26919
1.0648
0.803285
0.170978
0.686732
-0.85771
0.350258
-0.0408826
-0.0667287
0.0381666
0.0285621
0.554008
-0.439381
-0.114627
-1.80546
0.857179
0.948285
0.443797
0.0742301
0.801159
-1.42862
0.300431
-0.00038505
-0.300046
0.132253
0.126109
-1.69159
1.64178
0.0498038
1.18252
-0.608783
0.00719275
-0.0383745
0.0311818
0.027346
-0.226144
0.198798
0.116181
-0.207211
1.71499
-0.571741
-0.0813302
0.334327
-0.252997
0.00116357
-0.0216767
0.211978
-0.416593
0.781681
-0.514198
-0.653573
0.699135
-0.196758
-0.0707579
2.12802
0.0133944
-0.0169004
0.00350601
0.0392312
0.74245
-0.195945
0.125591
0.0703538
-0.0270882
-0.00883754
0.317203
0.00975794
1.60606
-1.04661
0.411059
-0.35991
-0.0511486
0.307196
-1.19803
0.065018
-0.387736
-1.97606
1.80513
0.0481421
-0.0025122
-2.1554
0.218067
-0.227731
-0.0216292
0.0675381
-0.0459089
-0.593672
-1.21179
1.86267
1.18182
1.72405
-0.786475
-1.60496
0.208237
0.401884
0.217849
-0.210638
-0.0072108
0.174622
-0.236902
0.0622801
-1.24551
0.654295
-0.193903
-0.254315
0.448219
0.288569
-0.378686
-0.1132
-2.01742
2.13062
0.989813
0.199559
-1.50406
1.3045
0.942058
1.08818
-0.892321
1.56604
-1.16833
-0.0507432
0.376078
-0.325335
-0.892919
0.758009
0.134909
-0.210408
0.129078
-0.0813779
0.317773
-0.236395
-0.249757
-0.263079
0.512836
-0.530838
1.82285
-0.268241
-0.35674
0.624982
-0.323138
0.176992
0.253766
-1.21352
-0.0757643
0.00903564
0.00831502
-1.85043
0.967833
0.882593
0.354858
-0.455335
0.00819214
-0.016635
0.41508
1.18015
1.52404
1.65331
-0.532563
-1.12074
0.113259
-0.0430691
-0.0701897
0.735909
0.949658
0.106998
0.110851
0.614172
-2.17352
1.55935
-0.0921531
0.102569
-0.0104164
0.789864
0.626557
-0.211963
-0.0985334
0.731671
-0.560693
-0.563116
1.42452
0.149438
0.0113734
1.51134
-0.294911
0.139903
-0.132548
1.77625
-0.122942
0.099788
0.392475
0.0185834
0.0168578
0.290819
-1.74736
-0.830208
0.9645
-0.134292
0.00561906
-0.114942
1.75906
0.0404194
-1.79948
-0.699394
0.431153
0.216816
0.0650557
-0.2989
0.0665492
0.021105
-1.20834
1.54379
-1.56444
0.0206515
0.00517749
-0.263584
0.258407
-0.585571
1.37544
-0.825338
1.52449
0.0260506
-0.0208731
0.774627
-0.27637
1.96197
-0.596093
0.00421411
0.119478
-0.123692
-0.0715592
-0.0896846
0.161244
0.109797
0.00346143
-0.369032
-0.728426
-0.132244
-0.27985
0.412094
0.771992
1.49216
-1.65625
1.31968
0.101594
-0.444727
-0.878811
0.872421
-1.13741
1.32711
-0.189704
0.513334
-1.69944
1.58446
1.46167
-0.429071
1.30425
0.785865
-0.0636918
0.275381
1.26841
-1.29969
0.287678
1.01201
0.244757
-0.276562
0.431034
0.0127627
-0.207794
0.144132
-0.0760286
-1.49764
0.462517
-1.24585
0.783329
-1.48984
1.01371
0.476132
0.0462464
-0.653244
-0.206276
0.225637
0.0836094
-0.00798953
0.108834
-0.100844
-0.534969
0.471555
0.845463
0.616203
-1.43205
-0.101018
-0.102674
1.6059
-1.42365
-0.182254
-0.405396
1.92965
-1.64769
2.49127
-0.843582
-0.735162
1.04477
-0.309613
0.0676763
-1.37528
0.127488
-0.451881
-0.258146
0.41029
-0.152144
0.0194246
0.0332828
1.33068
0.707627
-1.27254
0.564912
-0.0119466
-1.54695
1.55889
-0.050872
-0.10362
-0.0051741
-0.472957
0.478131
-0.426618
1.18762
-0.761001
0.193384
-0.134893
-0.0584915
0.146061
-0.11079
-0.0352715
-1.98668
1.7808
2.32297
-0.480931
-1.84204
0.0241214
0.00924381
-0.0333652
0.00644783
0.168174
0.0994945
-0.601772
-0.852286
1.68885
0.0172753
0.0112708
1.7514
-0.981423
1.09134
0.158303
-0.158303
-0.112385
0.294758
-2.26649
2.2524
-0.935032
-1.31737
-0.996178
0.810498
0.18568
-0.0438764
-0.0529566
0.096833
1.00222
-1.2081
0.205883
-0.589934
-0.200929
0.790863
0.598983
-1.97612
1.37713
-0.0879998
-0.804919
-0.207416
0.135857
-0.184693
-0.590915
0.775608
0.752769
0.421005
-1.17377
-1.3645
-0.414074
0.66955
-0.255476
-0.64912
0.993206
-0.344087
1.45994
-1.33186
0.255956
-0.3882
0.0907969
-0.264385
0.352555
-1.28091
1.30999
-0.0290781
-1.29501
1.77602
-0.481008
-0.016484
0.127471
-0.110987
-1.58334
-0.782958
-0.0334013
0.00972949
-1.63926
0.459286
-0.358225
0.276847
-0.181208
-0.553954
-0.0157298
-0.0764233
-0.833578
2.04346
0.0435293
-0.350904
-1.52486
0.130129
1.39473
0.545888
-0.416304
-0.129584
-0.865122
0.194855
0.207931
-0.545503
0.337572
1.59597
-0.138784
-1.45719
-0.0444143
0.153753
-0.109339
-0.378843
0.592666
0.970891
-1.56356
-0.611802
1.55755
0.177412
0.684284
0.721777
-0.125061
1.58486
0.191386
-1.40011
1.38817
0.217621
-0.0716189
-0.146002
0.339703
-0.178144
-0.161559
-2.00435
0.356656
-0.140127
-0.267367
-0.603027
-0.227182
0.252165
0.824489
-0.227033
-0.597456
0.187332
0.0942787
-1.1626
1.60779
-0.445195
0.149865
-0.23955
-0.0628672
0.332673
0.244479
-0.502625
-0.10344
0.44345
-0.34001
-0.0622068
-0.0116343
0.0738411
0.805103
-0.346308
-0.458795
-0.0413249
-0.152188
0.193513
-0.280338
0.312369
-0.0320313
0.0198125
-0.319942
0.30013
0.299796
-0.0550388
0.439312
-0.124908
-0.314403
1.52234
-1.03304
-0.959489
-0.00219876
-0.086803
0.0890018
0.070748
-0.0769995
-0.266249
-0.227332
1.13446
-0.309973
-0.0236695
-1.21743
1.2411
-0.351313
-0.0270531
-0.00973959
-0.590223
0.148026
-0.00196463
0.164087
-0.162758
-1.37104
-0.0338778
-0.0772755
0.111153
1.3226
-0.982522
1.18146
1.14151
0.328963
-0.0285326
-0.141827
-1.66905
1.81088
0.774975
0.426716
-1.20169
0.144147
-1.02966
0.66956
0.360103
0.483918
0.0619701
0.0389037
0.0533824
-0.0922861
2.152
-1.15819
-0.99381
0.131617
-0.295635
0.164018
0.735878
0.373392
-1.10927
0.0692667
0.097947
-0.167214
1.71699
0.024333
-1.74132
-0.403429
0.0626272
-0.246215
0.289744
0.0359428
0.0372944
-0.0732372
-0.396681
-0.12725
0.0304496
0.0189698
-0.0494194
-0.425792
-0.67108
1.09687
1.11913
0.476841
0.994891
-1.01856
0.756886
-1.1835
-1.90341
1.79021
0.022568
-0.0939516
0.250544
-0.603665
0.353121
0.724338
0.999708
1.16219
-1.36533
0.203142
1.23048
-0.546198
-0.126245
0.0831754
0.00703402
-0.198461
0.191427
-1.67264
-0.441311
2.11396
-0.407086
0.43269
-0.0256037
0.00753872
0.150764
0.203392
1.54681
-0.136754
-0.0435063
0.639905
-1.40682
0.766911
-0.726338
-0.342747
1.06908
1.54436
-0.490391
0.642153
0.572406
-0.815076
-0.254802
0.00463603
0.250166
0.0193568
-0.183701
-0.46787
1.1755
0.00958175
0.0309148
-0.380406
-0.136935
0.517341
-0.0118975
1.01412
0.720296
-1.24916
-0.459891
-0.411715
0.509728
0.753987
-0.935194
0.0578304
-0.0404706
-0.12056
-0.148629
-1.94365
0.910609
-0.080047
0.0381739
0.0418731
-0.0332407
0.0375829
-0.00434213
0.205323
0.862152
0.188786
-0.0278074
0.0278407
-1.6849
1.65706
0.64445
-0.955275
0.310826
-0.0169983
0.0579853
-0.040987
-0.736803
1.19932
-0.119934
-0.368256
0.48819
-0.268395
0.476325
-0.943027
1.46319
-0.520167
-0.499748
0.50136
-0.00161124
2.16729
-0.0631738
0.381042
-0.272589
-0.108453
-0.532358
0.282824
-0.172172
0.214643
1.30345
0.996776
0.153767
-1.57935
1.42558
-0.802168
-0.196814
0.998982
-0.289546
0.261245
0.0283002
0.126976
-0.0927233
-0.0342526
-0.00229224
-0.159357
0.161649
-0.098465
0.0227007
-0.878693
-0.296444
-0.00820216
-0.123467
0.132502
-0.12424
0.382756
-0.258516
-0.223711
0.260163
-0.0364519
-0.0277923
0.20967
-0.181878
0.804577
-0.370756
-0.0634534
0.0162521
0.228975
-0.881252
0.652277
1.17216
-0.966836
0.0194036
-0.339172
0.319768
-0.994202
-0.694127
-1.38793
1.51978
0.848742
-0.332397
-1.33885
0.837269
0.501579
0.227674
-0.0914897
-0.136184
1.76061
-1.76061
-1.59155
0.10501
-0.561353
-0.237226
-0.621686
0.858913
0.582429
-0.540027
-0.0424022
-0.0262067
0.0500692
-0.0316841
-0.0183851
-0.000821394
0.199093
-0.198272
-0.415451
1.26218
-0.846724
0.451795
0.020781
-0.472576
0.791235
-0.723558
-1.05191
0.249744
-0.0392565
-0.208267
0.247524
0.0408504
-1.34054
-0.470871
-1.23365
0.762777
0.348741
0.0128104
0.229065
-0.241875
-0.264523
0.324057
-0.0595345
-0.225681
0.165605
-0.0822035
0.0675455
-0.0891747
0.0357173
0.100104
0.262149
-0.362253
-0.140049
-0.0584117
0.141226
0.298086
-0.138659
0.11633
0.0223294
0.0131
0.00853095
-0.021631
0.0940583
-0.063905
-0.0301533
-0.0636518
0.163993
-0.100341
-0.554314
1.33764
0.512835
-1.14281
0.629976
-0.146823
-0.079753
0.226576
-0.0611383
-2.46205
2.52318
0.874647
-0.549799
-0.324848
0.465668
-0.0433562
-0.193545
0.0300804
-0.0707188
-0.0531733
0.18479
0.276002
-0.951315
0.675313
-0.430043
-1.26154
-0.197196
0.808654
-0.611458
-0.0955409
0.0734438
0.39508
-0.266466
-0.128614
0.595997
-0.367022
-0.76395
0.476977
-0.507118
0.0301406
-0.513606
0.319703
-0.164306
0.575155
-0.290422
0.317768
-1.95338
0.0622089
-0.275122
0.519601
0.026966
-0.234382
0.166353
0.0250736
0.314014
-0.301204
-0.0804517
-1.2999
0.745582
1.99157
-0.195559
-1.79815
2.24442
-1.08815
-1.15627
-0.0758523
0.456574
-0.0768696
-0.743
0.474939
-0.398364
-0.237082
-0.01772
-0.57858
-0.398003
0.976583
0.0822856
0.25363
-0.335915
0.0380207
-0.874412
-1.98958
-0.304755
-0.313032
0.617787
0.723398
-0.0789482
-0.235897
-0.036753
0.27265
0.457766
-0.0804494
0.159475
0.0681981
2.02844
-1.42946
-0.891106
0.312526
-0.242975
-0.0488589
0.291834
-0.0429981
-0.155105
-1.053
0.500121
-0.214631
-0.285489
-0.0806109
-0.033643
0.895139
-1.15544
0.260299
-0.649653
-0.059364
1.81997
-0.325603
-0.555649
1.57519
-2.06991
0.494715
-2.1594
1.78609
0.37331
0.147522
0.102917
-0.25044
0.149044
1.16259
-0.00128522
0.841773
-0.840487
0.0151481
0.319179
0.0679425
-0.0438212
-0.0109971
-0.281641
0.292638
1.27828
-1.42011
0.0905605
0.336732
-0.347273
0.0105403
-1.50685
-0.0846962
-0.586271
-0.332992
0.330794
0.105028
0.00328518
-0.108314
-0.606566
0.300757
0.305809
-0.377667
0.326924
-1.08986
-0.489038
1.5789
-0.125935
-0.0282909
-0.0155855
-0.241711
-0.192695
0.434406
-0.371394
1.3851
-0.151367
-0.858511
-0.137667
1.23557
-0.434416
1.02532
-1.44077
-0.0190982
-0.0115554
0.0306536
1.05309
-0.596732
-1.36762
-0.333526
-0.0761391
0.409665
-0.0545079
0.198639
0.0174885
-0.402879
0.38539
0.447854
-0.0382079
0.216055
1.39
-0.14253
0.295803
-0.0632716
-0.42117
0.404535
-0.175205
0.0681995
0.107006
0.243182
-0.105784
-0.137398
-0.13807
-0.0413742
0.179445
0.356999
0.058445
-0.415444
0.0664563
0.0573222
-0.196017
-0.0675673
-0.0397051
1.1675
0.0168538
0.102551
-0.119405
0.050598
-0.1003
0.0497017
-0.0115684
-0.402512
0.41408
0.580229
0.245423
-0.659497
-0.0617122
0.349671
-0.0708426
-0.441352
0.147228
-0.126263
-0.036489
1.78892
-0.978235
0.0970985
-0.224756
0.127658
-1.58727
0.19934
-0.104665
0.0358711
0.0687941
-0.0375411
-0.0303041
-0.263326
-1.89608
0.349801
-0.0578324
-0.79343
-1.38009
-0.468635
0.088229
-0.745042
0.503331
0.945798
-0.726523
-1.38433
1.53809
-2.04699
0.374341
-0.197196
0.0613084
0.135887
0.0179394
-0.184132
-0.381838
0.565969
-0.243255
-0.00974194
-0.349188
-1.04741
1.39659
-0.615253
-1.14945
1.7647
0.595409
0.337267
-0.932676
-0.00921258
0.316966
0.160011
-0.249567
-0.253058
-0.167328
-0.101743
0.269071
0.156814
0.355
0.267497
0.127583
0.457104
-0.579877
-0.0234854
0.0368799
-0.593198
0.775277
-0.182079
-0.142029
0.419018
-1.31442
0.048297
-0.0061506
-1.18411
0.393806
0.178447
-0.953534
-0.475087
-0.156774
-0.916907
-0.314825
1.23173
-0.125418
0.600357
-0.0418601
0.852358
-0.285472
-1.01265
-0.930999
-1.24768
1.45356
0.0760851
-0.215392
0.013223
-0.061269
0.0480461
-0.621543
0.563807
0.0577358
0.672218
-0.801907
-0.0418014
-0.0382456
-1.13469
-0.204161
-0.17936
0.100132
0.0792283
0.316673
0.48843
-1.46104
-0.167592
1.62863
0.0574741
-0.197523
0.296811
-0.277788
-0.0190237
-0.229027
0.386757
0.137467
-0.182659
-0.0379411
0.2206
-1.30969
0.830912
-0.269351
0.0260962
-0.168466
-0.127169
-0.319562
0.0363526
0.0214778
-0.0210981
0.216989
-0.00867442
-0.0645628
0.312388
1.32939
-0.641081
1.94533
1.01223
0.630045
-0.830974
0.0297863
-1.49083
-0.291838
-0.316824
0.373138
-0.0563132
0.179799
0.000470308
0.0726372
0.0126464
-0.0538636
0.120937
-0.193763
1.78771
-1.59394
0.208273
-0.84867
-0.118043
-0.252805
-0.0659652
0.679926
-0.274345
0.346327
-0.0719819
-0.00317558
-1.52676
1.52993
0.62015
0.275927
0.306502
-0.553967
-0.554572
0.940984
-0.386412
0.000106699
0.0130064
0.0245764
-0.28523
1.01996
-0.734732
0.0745892
0.157533
-0.232122
-0.148916
-0.63716
0.786076
-0.268914
-0.0583157
-2.04666
-0.0290847
0.179165
-0.174951
0.0244084
-0.244139
-0.0252117
0.335875
-0.648907
2.25369
-0.94818
-1.30551
-0.126257
0.407249
0.00821687
0.288594
-0.296317
-0.2108
-0.170525
-0.0138997
-0.143414
-0.223363
-0.199619
0.843726
-0.992641
0.131822
-0.0905136
-0.0413087
-0.36352
-1.97765
1.10299
0.874661
-1.95157
1.89043
-1.15484
0.325069
0.829773
-0.0652665
0.291893
-0.226626
0.688856
0.445606
-0.0148303
0.191649
-0.0622587
-0.197593
0.0247183
-0.253602
-0.0128648
1.10123
1.15246
0.0229124
0.0152542
1.63895
-1.40141
-0.0371136
-1.39657
1.43368
1.2574
-0.0899073
-0.283237
-0.0749881
0.616873
0.0862036
-0.247081
-0.0590357
0.49007
0.749332
-1.58028
0.830944
0.0793674
2.38386
-1.43902
-0.944843
0.00782639
-0.137883
0.0849268
0.902149
0.645515
1.15042
-1.04541
1.10544
-1.72069
-1.24934
0.0358391
1.2135
-1.71243
0.196083
1.51634
0.0598558
0.0726465
2.47227
0.0144168
-2.48669
-0.781119
1.39613
-0.615011
0.0465156
0.213647
-0.888408
0.239289
-0.00109132
0.0492334
-1.33595
0.198544
0.00461103
-0.0185064
0.0138954
-0.0929737
0.219664
-0.12669
0.146177
-0.491012
0.344835
0.518088
0.446412
-0.498427
-0.108139
0.0770066
0.843586
-0.931586
-0.0636275
-0.0502813
-0.245627
0.0508018
0.607956
0.587369
-1.19532
-0.654974
0.750308
-0.0953347
0.0690224
-0.413896
0.344873
-0.940204
-1.59135
0.77741
0.813937
0.114567
0.845004
0.253528
-1.09853
-0.313716
0.215094
-0.2383
0.0232052
0.164381
-0.0350456
-0.239797
0.0039005
-0.279728
-1.5101
0.4635
-0.399501
0.783689
-0.384188
-0.651653
-0.678452
1.70573
-0.7379
-0.0995587
0.178524
-1.42081
0.0630293
-1.40557
1.34254
0.0401452
0.018709
-0.0588542
1.14895
-1.13167
-0.0172798
0.1477
-0.0174685
-0.0448095
-1.4464
0.794745
-0.597997
1.26756
-0.297474
0.509452
0.287605
0.214087
0.0290948
0.80048
-0.369327
-0.0103637
0.682582
-0.952276
0.425849
-1.73407
0.584625
1.09212
-1.0953
-1.52777
1.33401
-0.117828
-1.47261
0.207866
1.26475
0.582466
0.226189
0.0329767
-0.935624
0.698397
-0.111208
-0.127466
0.238673
-2.10137
0.498006
1.60336
0.368528
0.828222
-1.19675
0.069459
-1.31714
0.744003
0.116909
-0.860912
-0.28212
0.041574
-0.920385
-0.0796347
-0.0107487
0.0477321
1.49081
-1.46648
-0.0485384
-0.994594
-0.596753
0.633876
-0.0323465
-1.217
1.10875
-0.263744
-1.58446
-0.0205052
-0.296765
-0.924656
0.323221
-0.220248
1.90341
0.224609
0.163423
-1.21642
0.132209
-0.100213
0.209387
-0.459144
0.325375
-0.544296
0.218921
0.166412
0.0962879
-0.2627
-0.347046
0.0744574
0.273642
0.280365
-1.14097
1.16124
-0.0202731
-0.736887
1.1183
-2.0738
0.955501
-0.400923
-0.0543966
0.0852583
-1.47628
0.139502
1.33678
-0.372004
0.885338
-0.653887
0.691907
0.155737
0.962735
0.54263
-1.00252
-0.812714
-0.182026
0.994739
-0.283818
-1.33054
0.981354
-0.119796
0.123094
-0.00329813
0.0467334
-0.0877204
0.973526
-1.4414
-0.784982
-0.00526619
0.790248
-0.00659969
-0.011454
0.0180537
-1.07638
0.439219
0.0355679
0.0237463
-0.221678
0.398302
2.24131
0.230963
-0.805732
0.804447
-0.255953
0.087487
-1.24086
2.09708
-0.85622
-0.0729871
0.0615922
0.073678
0.359013
-0.0194283
0.978001
1.19258
0.649068
-0.925438
0.273961
-2.06293
-0.159907
0.126029
0.14515
-1.12767
-0.212628
-0.94281
-0.201748
0.0506341
0.778865
-0.380562
-1.49637
0.137254
1.25275
0.178001
-1.67154
0.295907
1.37563
-0.0831612
0.469918
0.837957
-1.14259
-0.289461
0.729995
-0.324236
-0.405758
0.85115
-0.293842
-0.557308
-0.171572
0.0366796
0.632819
-0.661955
0.0291359
-1.40066
1.04504
0.355618
0.481099
0.982096
0.000617862
0.10441
0.745638
-0.500216
-2.12598
0.845802
1.28018
-1.96908
1.52777
0.96255
0.747818
-1.71037
0.789503
-0.734293
1.79272
-0.596116
-1.1966
-1.02534
0.163052
-0.0798766
-0.179203
-0.101275
0.186479
-0.0330387
0.109229
-0.0761902
-0.290185
0.033813
-1.76351
-0.21984
0.0838332
-0.0948303
-0.0294144
-0.014396
0.977381
-0.507951
-0.46943
0.762455
-0.461698
-0.116553
0.123001
-0.106417
1.26861
0.0534988
-0.0133536
-0.317164
-0.759215
-1.48341
0.566506
-0.0648477
-0.0748765
0.119536
0.0875172
0.0944916
-0.0812686
-0.482939
-0.473798
0.0874353
-0.0741885
-0.0132468
0.172068
-0.790659
-0.444854
1.23551
-0.274073
0.0299342
-0.127525
1.11806
0.994182
-2.11224
-0.376161
0.97157
0.20532
-0.0819142
0.663664
-0.816504
-0.780598
1.5971
-0.93885
-0.963677
0.565674
0.296448
-0.196214
-0.100233
1.01967
-1.19927
-0.148239
1.88423
-0.765927
-0.171813
0.0992245
-0.428946
-0.713864
0.0808096
2.05161
-1.79021
-0.261396
-0.900228
-0.583184
-0.332125
0.157265
0.0630897
-1.03259
-0.201975
1.23456
0.229349
-0.142938
0.217527
-1.65511
-1.48814
0.651014
0.837123
-0.154768
-0.00458553
0.159353
0.938095
-0.56717
-0.370925
0.0997013
-0.153565
0.0741175
0.0792352
0.802412
-1.89227
0.745695
0.105455
-0.314471
-0.576636
0.327276
-0.0736467
0.142956
0.311605
-1.10226
0.025384
0.350694
-0.437204
0.172819
-0.0893899
0.0112278
0.078162
0.982557
0.810161
0.558875
0.0569661
0.631955
-0.25511
-0.376844
1.69944
-1.40353
-0.392338
-0.234979
0.139514
0.0248672
0.203474
-0.0624095
-0.299843
0.0037484
-0.123544
0.546961
-0.0527661
-1.80672
-0.0195717
-0.135196
-0.0662751
0.00500606
1.05992
-1.10178
0.86965
-0.420797
-0.448852
0.0037098
0.104876
-0.00532681
0.00993785
0.396721
0.0124747
0.0613664
0.140314
-0.486622
-2.63285
1.05243
1.58041
-0.0699632
0.00390727
-0.0377519
0.098866
0.113909
-0.261047
-0.284456
0.628033
-1.44454
0.0376765
-0.971532
2.08959
0.615833
-0.0681065
-0.547727
-0.603672
-0.490621
-0.0494062
0.0857462
-1.10513
0.511902
-0.741109
0.229206
0.101979
-0.226965
0.124986
-0.180141
1.15683
1.33445
-1.36311
1.40353
-1.98206
1.494
0.488057
1.12185
-2.09339
2.33201
-1.15186
-1.03799
-1.02744
-0.0500073
0.158841
-0.054617
-0.41834
-1.56317
0.0905561
-0.0635835
-1.30175
1.20716
-1.96892
0.761766
-0.0508557
0.227839
-0.400856
0.135145
-0.136756
1.00823
1.37563
-2.11659
0.875732
-0.156329
-0.782521
-1.36003
-0.0216293
-0.205335
1.95157
-2.01474
-0.131257
-1.07856
0.0400206
1.29059
-0.697923
-1.70886
1.77367
-0.0648064
0.460061
2.06312
0.422639
-0.0590063
-0.363633
1.72896
-0.623517
0.223938
7.5415e-05
0.735167
-0.744907
0.0862719
0.127815
0.651361
0.82339
-1.47475
-0.537119
-0.445589
1.02661
-1.07115
0.0445409
0.238439
-0.45307
-1.73358
0.732883
1.00069
1.38331
-0.234367
-0.919556
-0.140483
0.925905
-1.36032
0.274758
-0.524325
-0.303667
0.450895
-0.622475
0.438343
-1.42809
-0.646976
2.07506
-0.443294
0.501739
-0.446443
0.319193
1.09513
-1.23279
0.0583118
1.36042
-2.0015
-0.251733
-0.461547
0.211913
-1.17875
0.102717
0.690233
0.472983
0.0125906
-0.603506
-1.69739
0.313068
0.0601398
0.237126
-0.297266
0.0661911
-0.302586
1.14662
1.0978
1.23068
-0.970377
0.0782776
-0.0721735
-0.367207
0.426969
-0.432722
0.394514
-0.65598
-0.9441
2.06595
-0.271297
0.385864
-0.501127
-0.993312
1.49444
-1.43239
0.651267
-0.0637686
0.334187
0.0798931
-1.45519
-0.0696703
-0.139548
0.651451
-1.32053
-1.31232
2.05161
0.554274
-1.37276
1.00215
-0.555736
-0.212618
0.454831
-0.29482
-0.220135
0.239539
-1.55725
0.222751
-0.777323
1.12595
-2.07005
-0.800714
-0.203587
0.486411
-0.158365
-1.5505
1.06234
-1.53743
1.33729
0.661204
-1.51274
0.851532
1.33034
-0.285307
1.86747
-0.897163
-1.08289
1.98005
0.559442
1.24287
-1.01352
-0.635743
-0.852394
-0.984056
-0.998002
0.441571
-0.799356
1.4109
-0.61154
-0.128939
1.363
-1.23407
-1.01107
-0.958154
1.96923
0.918529
0.108078
0.247211
0.366475
-0.35131
0.263249
0.0880616
-0.0018745
-0.237675
0.493712
-1.39394
-0.700815
-0.376779
-0.244764
-0.136651
0.530456
-0.171241
0.784628
-1.99011
0.734642
1.25547
-0.0474397
-1.6138
1.66124
0.0256096
-0.236492
0.0382204
0.600422
-1.83651
1.83651
-0.0562101
-0.0126469
0.068857
-0.633939
1.05494
-0.145358
0.123729
-0.76006
-0.274719
0.629719
-1.36311
-0.071114
-1.26762
0.286197
1.28102
-1.24017
-1.20059
0.167998
-0.147145
0.523855
-0.37671
0.117251
0.515568
0.2172
-0.0507876
-0.960425
-1.1932
0.188723
1.00448
-1.38573
-0.421201
-0.853829
-1.21997
0.00991
-0.192569
0.154448
0.189427
-0.485745
-0.0470371
0.0383627
0.354787
-0.278825
-0.34365
-0.93543
1.39259
-0.457164
0.318946
0.198962
-0.227754
0.382018
-0.154265
-0.424979
0.1619
0.40484
-0.524246
0.119407
-1.17048
1.91303
-0.95048
-1.37966
-1.85402
0.327261
-1.58079
0.0484397
0.993182
1.15881
0.131859
-1.05652
1.21115
0.0988444
0.121274
-0.418749
0.645271
0.62072
0.168784
2.03579
-0.909836
-1.07557
-0.691525
1.7671
1.13304
-0.00520434
-1.12783
0.00813432
-0.108434
-0.184813
0.168329
0.130234
1.33583
-1.46607
-1.17564
1.0953
0.0803477
1.17564
-1.33401
0.205078
-0.255933
-0.999269
1.04084
0.0725384
-0.0398322
0.0971543
-1.67238
0.168314
1.51448
-0.853281
-0.305149
-0.0653332
0.133533
-0.413668
0.919733
0.24654
-0.0825223
0.63229
-1.36702
0.170876
-0.229368
-0.551952
-0.0557605
0.617956
-2.05672
0.509774
-0.0706501
0.418538
-0.347888
-1.03713
-0.931792
0.0618879
0.681238
0.501286
-0.887125
0.0813922
-0.105708
-0.308188
0.100497
-2.11513
1.07715
0.0659516
-0.0203254
-0.280879
0.0263423
-0.0474405
-0.0879406
-1.4278
0.642041
-1.55337
0.911329
0.0569942
0.236617
-0.293611
-5.49663e-05
-0.210584
-1.02963
1.31582
0.616216
0.355355
1.331
-1.14259
0.17743
0.0393857
1.73754
-2.00504
0.267495
0.185602
-0.378297
-0.783852
-0.0770599
0.358593
-0.434732
0.344979
-0.319906
-1.27079
0.158276
-0.0939654
-0.0643101
-1.48378
0.191312
1.29247
0.401427
-0.343953
-0.0267238
0.366403
-0.339679
1.16011
-1.19246
-0.312065
0.408353
0.61202
0.246893
-0.236734
0.315962
-0.0355022
0.108946
0.163189
0.656486
-0.819675
-0.421863
-0.0691488
-0.924279
-1.01345
1.93772
0.0953399
-0.223752
0.351409
-1.00924
1.89043
-0.0551025
0.0730419
0.0456014
0.0497552
0.135298
2.126
-1.02477
-1.21322
0.760085
-0.537334
-0.811568
2.09175
-0.0325614
0.0450361
-0.270642
0.278181
0.0034968
-0.122901
-0.280652
0.178908
-0.320595
0.47637
-0.286943
1.13539
-0.0194236
0.0457659
0.297535
-0.0684705
0.034977
0.395835
0.0942353
0.472149
-0.750974
0.199765
-0.228543
0.0287778
0.0167024
0.00200658
0.173817
0.887121
-1.06094
-0.23376
0.106294
0.480221
-0.605639
2.00752
-1.23553
1.02017
0.907313
0.0922785
0.541483
-1.12095
0.337477
-0.417926
-0.388795
1.33506
0.693381
-1.48483
1.48483
1.71544
-0.83091
1.08468
-0.0244204
1.53611
-1.51169
0.91846
1.02598
0.758907
-2.18699
0.141381
-1.13402
-1.35355
-0.213689
-1.42636
1.64005
-0.38982
-0.123786
0.0684887
1.1196
0.152331
-0.258115
-0.712007
1.47562
-0.763616
-0.172047
0.258319
-0.0195417
-0.199333
0.683251
2.64989
-1.09161
-1.55828
1.61443
-1.47493
1.12696
0.200156
0.0273462
-0.00129561
0.0222219
1.56396
0.551683
1.12905
0.47874
0.0200047
0.187616
-0.207621
-0.332967
0.205799
0.172799
-0.184322
0.0115229
0.154016
-0.206902
0.0528861
0.512736
-0.435729
0.322331
-0.46436
0.488336
-0.280099
0.0203031
-0.0219203
-0.00428639
-0.310701
0.434339
-0.123638
-0.316437
0.287379
0.0290581
2.01474
-1.64621
0.502402
-0.516086
0.0136839
-1.49081
-0.32658
0.255737
-0.98629
1.90475
0.248997
-0.314962
2.18127
-1.42237
0.237458
-0.30073
-0.149245
-0.0680274
-1.33611
0.0315742
1.60536
1.28033
-1.06841
-0.102447
0.139112
-0.0818331
-1.48261
-0.281343
0.275939
0.234799
-0.352842
-0.349344
0.277362
-0.0797879
-1.33428
1.29717
-1.45152
1.47217
-1.15371
-0.461749
0.4106
0.663867
0.370258
-0.383123
-0.0507879
0.0630293
0.336096
-0.399125
-0.342685
1.40748
-0.942219
-1.04447
-2.07643
-0.0735463
0.0697788
0.00376755
-0.00157147
1.43467