/*--------------------------------*- C++ -*----------------------------------*\
| =========                 |                                                 |
| \\      /  F ield         | OpenFOAM: The Open Source CFD Toolbox           |
|  \\    /   O peration     | Version:  2306                                  |
|   \\  /    A nd           | Website:  www.openfoam.com                      |
|    \\/     M anipulation  |                                                 |
\*---------------------------------------------------------------------------*/
FoamFile
{
    version     2.0;
    format      ascii;
    arch        "LSB;label=32;scalar=64";
    class       volVectorField;
    location    "6.9";
    object      U;
}
// * * * * * * * * * * * * * * * * * * * * * * * * * * * * * * * * * * * * * //

dimensions      [0 1 -1 0 0 0 0];

internalField   nonuniform List<vector> 
5098
(
(2.53279 1.05449 0)
(2.12933 0.0745822 -4.06122e-20)
(2.55943 0.0249657 -2.15043e-21)
(1.49074 -0.672915 7.87538e-19)
(2.53378 -0.957808 0)
(0.872445 -0.421808 0)
(2.49171 0.00470362 1.35494e-20)
(2.76316 -0.257716 2.07143e-21)
(2.74517 -0.00924234 -4.74083e-20)
(1.91053 -0.282313 1.34004e-19)
(-1.86627 -0.226678 0)
(2.15527 -0.0184291 1.79478e-19)
(2.44924 -0.41168 -9.91883e-21)
(0.921447 -0.447518 0)
(2.26462 -0.377849 1.39131e-19)
(1.92336 0.0646761 -2.65302e-22)
(-1.53489 0.24988 -4.03958e-19)
(-2.52583 0.669512 0)
(-0.270247 0.18219 3.87036e-19)
(-1.58166 0.296839 4.60622e-19)
(1.80706 0.594339 -8.43297e-20)
(1.8789 0.0638428 1.48564e-22)
(2.05949 -0.783443 0)
(0.738834 0.0421044 3.04753e-20)
(-2.41355 1.47981 0)
(1.43686 -0.58438 0)
(1.99442 0.0267061 1.36637e-19)
(1.80401 -0.760496 2.06037e-19)
(-0.343677 0.286815 -1.18415e-18)
(1.67009 -0.726265 0)
(2.40802 -0.201156 -1.14355e-19)
(0.702999 -0.338816 0)
(2.07563 0.0471142 -1.47018e-19)
(-0.732938 -0.651911 0)
(2.55995 0.381718 -4.07735e-20)
(3.56782 0.342467 1.3001e-18)
(1.82064 -0.424137 1.52919e-19)
(2.07542 -0.00156062 -1.31901e-21)
(1.31208 -0.420187 5.80664e-19)
(1.35595 -0.627394 0)
(1.49635 -0.684849 -3.70475e-19)
(0.809524 1.2147 -2.13191e-18)
(1.45236 -0.589262 0)
(2.56948 -0.157235 6.94641e-20)
(2.42605 0.71563 2.4369e-20)
(2.05857 0.077656 7.83956e-21)
(-1.80194 0.27061 1.9414e-19)
(1.05605 -0.340642 0)
(2.38265 -0.21951 0)
(1.49307 -0.640807 8.39628e-20)
(2.28678 0.14539 6.49939e-20)
(1.61842 0.489253 -5.03774e-19)
(0.234157 -0.0996028 3.36254e-21)
(2.06829 -0.0407974 1.84711e-19)
(0.93652 -0.470021 -3.52358e-19)
(1.57945 0.109458 0)
(1.8387 0.274505 -2.73122e-19)
(1.58796 -0.6534 0)
(0.829287 -0.404186 0)
(1.94045 -0.00984029 -3.85121e-20)
(1.6478 -0.317035 1.59242e-20)
(-2.02607 0.903187 -7.36153e-19)
(2.5649 0.418525 0)
(2.39032 -0.389418 0)
(0.243828 -0.0828605 1.83548e-18)
(0.798656 -0.400019 4.43094e-19)
(2.28241 0.0339132 6.63472e-21)
(2.30101 0.183107 1.18296e-20)
(2.12003 -0.226369 1.84794e-19)
(1.63081 -0.686802 2.45086e-19)
(1.88603 0.21166 1.59742e-20)
(1.02981 -0.624615 2.03213e-21)
(1.87594 -0.774039 0)
(0.286676 -0.732361 0)
(1.75157 -0.226067 3.95938e-20)
(1.09339 -0.536433 -4.02478e-19)
(1.482 -0.142162 0)
(1.49593 0.202488 4.59397e-19)
(2.52804 -0.230712 6.81777e-20)
(1.61155 0.176676 0)
(1.67607 -0.0424318 0)
(2.47384 0.871943 7.63082e-19)
(1.64672 -0.291976 5.44974e-19)
(-0.745749 -0.941219 -5.48652e-20)
(-2.39559 0.236197 7.1485e-19)
(1.51373 -0.6614 1.97999e-19)
(0.0340001 0.304048 -2.75658e-19)
(1.48749 -0.163555 -5.64567e-21)
(2.85466 -0.18285 7.54889e-20)
(1.59394 -0.325688 1.97506e-20)
(2.27191 -0.25533 -8.09573e-21)
(0.72752 -0.198182 7.67231e-19)
(2.48222 -0.0612537 -2.24943e-19)
(1.50825 -0.658676 -4.19953e-19)
(1.29202 -0.445746 1.02372e-19)
(1.1454 -0.479846 -2.09191e-20)
(1.01749 -0.510978 -3.36849e-19)
(1.4171 0.300246 3.40586e-19)
(1.7038 -0.217626 1.9553e-20)
(2.00043 -0.443597 -1.25046e-19)
(2.74811 -2.34283 -4.22405e-19)
(0.985437 -0.488451 -4.17524e-19)
(-0.21977 0.0891635 -4.11673e-20)
(2.85023 0.228658 2.11769e-20)
(1.51989 0.176445 -5.22202e-19)
(2.37813 1.15713 0)
(1.93657 0.246379 2.9025e-19)
(2.34562 0.099455 1.46177e-20)
(0.98099 -0.378915 7.93525e-20)
(-1.88575 -0.341277 0)
(1.02144 -0.491789 -9.02469e-19)
(1.12599 0.464295 5.66053e-19)
(1.91341 -0.00665593 -2.75518e-19)
(0.670161 -0.158922 1.64395e-19)
(1.75336 0.682897 1.21363e-19)
(-0.211993 -0.153705 0)
(2.77748 0.603921 2.00611e-18)
(2.65294 1.51002 0)
(1.45758 0.438497 -4.50634e-20)
(0.768626 -0.00868652 -4.68244e-19)
(1.68596 0.463991 4.13652e-19)
(1.5972 2.06696 -1.22382e-19)
(1.99522 -0.298368 -8.43754e-20)
(-0.279784 1.99027 -1.08944e-18)
(0.839671 -0.173407 -1.03281e-18)
(-1.53483 0.570844 3.11093e-20)
(2.209 -0.0282223 1.50851e-19)
(2.04634 -0.749925 -2.41165e-19)
(1.31706 -0.109856 -1.22905e-19)
(0.715166 -0.126331 -3.22311e-19)
(-1.85922 1.94802 -1.4059e-18)
(1.07904 -0.466576 -5.84684e-19)
(1.11133 -0.466569 4.89192e-19)
(2.54581 1.5363 -1.04668e-19)
(1.15107 -2.3388 -8.93487e-19)
(3.24621 -0.663021 5.47015e-19)
(1.99695 2.56124 5.56195e-19)
(1.91251 0.260546 1.97658e-19)
(0.856078 -0.420037 0)
(2.07849 -0.0459427 -5.95083e-19)
(1.56899 0.608782 -3.32827e-19)
(1.36365 -0.267579 4.73421e-20)
(1.70351 -0.772449 3.93517e-19)
(2.54041 0.0377018 -1.13953e-20)
(2.06116 0.0851133 -5.35381e-20)
(2.7329 0.502905 0)
(2.09537 -0.230686 1.92069e-19)
(2.20199 -1.20095 0)
(2.82829 -0.069633 4.46307e-19)
(1.59732 -0.729618 1.4718e-19)
(2.83679 -0.257064 -1.30849e-18)
(2.03929 0.710842 0)
(2.33134 -1.19442 1.77936e-19)
(2.07176 0.0361729 0)
(0.0175634 0.196386 -3.4811e-19)
(0.758669 -0.278229 -1.94191e-19)
(1.59108 -0.646076 -4.40111e-19)
(2.15391 -2.31259 -2.16701e-19)
(1.44252 -0.676284 -3.03402e-19)
(-0.206881 0.149252 1.25399e-18)
(1.92915 -0.398296 -4.15591e-19)
(2.29188 -0.408307 -1.8639e-19)
(0.545694 0.53486 -5.02739e-19)
(1.77714 -0.185514 -3.38157e-19)
(-2.70294 1.16034 -6.55571e-19)
(2.44928 -0.196661 -1.1539e-19)
(2.53392 -1.1815 -6.52007e-19)
(2.31477 -0.528 0)
(-2.54462 1.54206 7.77797e-19)
(1.64338 -0.542195 -4.82424e-19)
(1.12011 -0.478412 1.4889e-20)
(1.5003 -0.617652 -2.86182e-19)
(2.22131 0.654172 1.3213e-19)
(1.80275 -0.732971 3.67933e-19)
(2.62376 -0.054217 0)
(1.92114 0.00983446 0)
(1.68565 -0.290958 -2.10796e-19)
(3.38012 0.448782 -1.41671e-20)
(1.73457 -0.176874 4.70434e-19)
(0.211947 0.130292 0)
(1.71912 2.2192 0)
(3.50563 0.21739 -1.35195e-18)
(1.70544 -0.527936 5.92088e-19)
(-2.66632 1.24226 0)
(1.83761 -0.191456 0)
(2.71775 0.827256 4.4261e-19)
(1.48035 0.33036 0)
(1.85959 -0.405607 5.25949e-19)
(0.962674 -0.471107 7.80652e-19)
(-0.370396 1.21233 -3.35282e-19)
(1.0932 0.678533 0)
(1.44365 -0.22352 1.36323e-19)
(1.90058 -0.792022 0)
(1.74694 -0.244206 4.16543e-20)
(2.44905 -0.200686 1.2758e-20)
(0.562249 -0.166487 -7.99138e-19)
(3.85564 0.437294 5.45911e-19)
(3.43644 -0.554213 0)
(2.01649 0.0231846 -4.73603e-21)
(1.66839 -0.522653 -8.75453e-20)
(-2.08453 2.0795 -2.14048e-18)
(1.67543 0.400762 6.29573e-21)
(2.42811 0.721826 -7.01336e-21)
(2.31993 0.0266297 5.66541e-21)
(1.47885 0.00436042 2.1571e-19)
(0.731382 -0.286069 -1.38912e-19)
(2.74687 0.0783318 -1.99197e-20)
(1.15217 -0.526414 0)
(2.37808 -0.107357 0)
(1.2356 -0.598747 -4.07752e-19)
(1.97405 -0.16002 -1.72027e-19)
(1.70964 0.372453 3.3493e-19)
(1.54943 -0.236078 -1.37406e-19)
(2.11097 0.0851459 -1.88733e-19)
(2.20145 -0.066578 -2.96393e-19)
(-0.0157878 0.219824 -3.24136e-19)
(1.78917 -0.246416 0)
(-2.18664 0.0486452 -1.05753e-18)
(0.998847 -0.235607 1.47368e-19)
(2.01382 0.0492248 1.37166e-19)
(2.28803 -0.268592 -3.03303e-20)
(1.52677 -0.302484 0)
(2.35946 0.0885983 5.40831e-21)
(2.2848 -0.31112 1.54801e-19)
(0.347841 -0.196391 2.06074e-19)
(2.03979 -0.161028 0)
(0.334322 -0.0702504 0)
(1.97871 0.0400884 0)
(1.95526 -0.443766 0)
(1.71122 -0.670453 3.59596e-21)
(1.8185 0.467786 0)
(0.540204 -0.215337 -5.07423e-19)
(3.33257 0.432893 -8.50889e-19)
(2.01138 0.0261233 -2.98688e-21)
(2.65602 -0.0525263 -6.32357e-20)
(2.40016 -0.0403877 0)
(1.46594 1.55329 -1.90816e-19)
(-1.05598 2.36367 -1.86994e-18)
(3.22086 0.0105252 0)
(1.84829 0.00283177 3.41332e-19)
(2.0207 1.05085 -2.56615e-18)
(2.24465 0.67057 0)
(2.67977 0.0962223 0)
(1.01501 -0.223327 8.57009e-19)
(1.81052 0.51586 -4.36758e-19)
(2.29455 -0.128486 -2.01176e-19)
(1.03507 -0.491742 9.45343e-20)
(-2.15147 -0.0464465 -6.55395e-19)
(-1.57944 0.142719 0)
(2.3791 -0.123798 5.53073e-20)
(2.17101 0.851646 -9.3844e-20)
(1.81059 -0.756344 3.79565e-19)
(-0.249518 -0.318298 5.43925e-19)
(-1.49245 2.2957 1.01477e-18)
(1.93531 0.0444946 -2.53871e-19)
(-1.104 2.31655 1.7061e-18)
(1.85583 -2.16015 7.57345e-19)
(0.760482 -0.380374 -8.32566e-20)
(1.08556 -0.35926 -3.5906e-19)
(1.76585 0.0253378 1.03556e-20)
(2.71469 0.818693 6.79624e-20)
(0.338794 -0.139028 8.3393e-19)
(-2.11192 1.39824 1.10987e-18)
(1.82353 -0.78444 0)
(2.05021 0.0393139 -1.56158e-21)
(-2.36386 0.908359 3.07235e-19)
(-0.179242 0.123181 -1.46896e-18)
(-1.75025 -0.704563 0)
(1.16089 -0.388393 0)
(1.81419 0.0275116 -3.14623e-20)
(-0.311377 1.28118 4.10816e-19)
(1.84771 0.101419 -1.31294e-20)
(-0.176476 0.152618 -6.61301e-19)
(1.2212 -0.332872 0)
(1.08706 -0.417022 2.6693e-21)
(-0.202831 0.0425803 -3.3441e-21)
(0.856787 0.754894 -2.52795e-18)
(3.58006 -0.873813 0)
(2.20742 -0.681027 0)
(1.96065 -0.128557 0)
(-2.17409 1.9816 -8.0175e-19)
(2.63664 -0.189162 2.15742e-19)
(0.387531 -0.240485 -8.6341e-19)
(2.61974 -0.136863 -2.39718e-19)
(2.02816 -0.483382 -4.43981e-20)
(-0.514122 0.00241924 0)
(1.93249 0.032279 0)
(2.91374 0.276403 9.42394e-20)
(2.47892 -0.157813 9.29027e-20)
(1.70287 -0.0119305 -2.76655e-19)
(-0.138044 2.07285 0)
(-0.936739 -0.683651 5.96644e-19)
(1.03775 -0.0104699 -2.51366e-19)
(2.45742 0.593303 1.7538e-20)
(1.92366 -0.594277 3.97504e-19)
(0.866211 -0.187901 -6.35217e-20)
(2.54957 0.124952 0)
(2.40598 -0.201614 -1.02256e-19)
(2.03177 0.0597894 0)
(2.03826 0.0346142 -1.56614e-19)
(2.7831 0.454052 -7.74955e-20)
(2.69825 0.06423 1.25701e-19)
(1.533 -0.39922 5.63177e-19)
(1.90283 0.477058 2.42551e-19)
(-2.32847 1.00265 -5.01526e-19)
(1.73372 -0.702027 -2.33737e-19)
(2.54327 1.93545 -1.28445e-19)
(2.09359 0.00602657 0)
(1.75887 -0.415676 0)
(-1.84313 0.24004 0)
(2.25294 -0.258064 3.93485e-20)
(-0.44652 -0.332099 5.50384e-20)
(0.804808 -0.401985 4.62641e-19)
(1.88316 -0.0239123 -8.32169e-20)
(2.48697 -0.407771 -3.85135e-20)
(0.106273 0.109839 6.83117e-19)
(1.95042 2.37195 -4.51766e-20)
(2.36356 0.0643051 -7.57764e-21)
(2.23194 -0.149483 5.5231e-19)
(0.811052 -0.328384 0)
(2.69576 -0.23271 -8.19644e-20)
(-0.937056 -0.648821 -1.26725e-18)
(3.17661 0.0344948 -6.32225e-19)
(0.722925 -0.445965 -1.4867e-20)
(1.69792 -0.19605 1.75259e-20)
(1.29587 -0.392228 3.91052e-19)
(2.16812 0.884582 0)
(1.98378 0.104519 -9.88901e-20)
(0.994174 -0.386829 -8.38437e-19)
(1.53198 0.408725 3.85329e-20)
(1.22502 -0.595269 0)
(2.29457 -0.13428 -1.61125e-19)
(0.999817 -0.48139 2.62664e-19)
(2.25123 -0.677222 -1.06885e-19)
(1.65555 -0.691765 -3.31117e-19)
(2.30766 0.0792792 -5.63943e-20)
(2.34874 -0.352508 8.0396e-21)
(0.921306 -0.457247 5.09749e-19)
(2.101 -0.0822144 2.32716e-19)
(1.78344 -0.372457 0)
(1.72615 -0.784718 -3.72132e-19)
(1.61165 -0.68848 -1.00386e-18)
(2.59783 -0.250563 2.5578e-20)
(1.96484 0.066712 4.13282e-20)
(1.63469 1.10041 0)
(1.57431 -0.20466 0)
(2.06242 -0.0506583 -1.84024e-19)
(0.384836 0.287796 2.91167e-19)
(2.68958 1.43658 0)
(2.28338 -0.0731369 1.61856e-19)
(1.50488 -0.662832 -4.81078e-21)
(0.870418 0.380068 -6.19295e-19)
(0.807287 -0.335684 -4.48571e-19)
(-2.21814 1.98146 7.82244e-19)
(1.79662 -0.0378521 4.81893e-20)
(-2.41499 1.87388 3.00395e-18)
(3.35029 -0.550675 -5.80518e-19)
(2.1637 -0.0070452 0)
(1.34684 -0.0696311 -1.06304e-19)
(1.37184 -0.698773 0)
(1.95806 0.111022 -4.79538e-19)
(1.96307 -0.399929 0)
(2.06149 -0.0301123 -1.56937e-19)
(1.37817 -0.0909963 3.98649e-20)
(2.68976 -0.164069 -5.71663e-20)
(1.06485 -0.393514 4.73787e-19)
(1.95916 0.0856038 -3.85825e-19)
(1.98418 0.205841 -4.37885e-19)
(1.93073 -0.822351 0)
(-0.809925 2.46642 0)
(1.14203 -0.4353 -4.66696e-19)
(2.68245 -0.165258 0)
(3.43244 0.789126 -8.33533e-19)
(1.60986 -0.323885 0)
(1.05419 -0.654815 -2.72145e-21)
(-2.08401 0.820757 6.43081e-19)
(1.68869 -0.55188 7.0382e-19)
(0.364545 -0.192556 -3.23962e-20)
(2.29804 -0.497911 0)
(1.35451 -0.0811851 -3.46812e-20)
(1.77326 0.00854282 -2.42989e-19)
(-1.49506 0.537113 -5.92799e-20)
(1.93613 0.035072 -2.17342e-19)
(2.74236 0.0308238 -8.52901e-20)
(2.63584 -0.0836197 -3.49452e-20)
(3.08554 1.11569 3.09438e-19)
(2.52618 0.481125 -4.34459e-20)
(-1.2954 2.41482 -4.52242e-19)
(1.61811 -0.487572 0)
(-0.31531 0.137794 3.60517e-20)
(1.97418 0.126983 -1.71555e-19)
(2.50963 -0.260218 0)
(1.97607 0.0359538 1.44432e-19)
(1.09229 -0.52735 -3.39767e-19)
(1.64045 1.33622 1.67543e-19)
(3.57558 0.409775 0)
(1.32663 -0.632649 1.23979e-19)
(-0.288996 -0.13815 0)
(2.22775 0.0587926 4.2143e-20)
(2.49381 -0.315896 -1.92681e-19)
(0.135303 0.480496 1.22265e-18)
(1.00461 -0.0408541 0)
(1.5285 0.291005 2.35938e-19)
(2.01291 0.0587269 1.54324e-19)
(-0.154171 -0.0962217 0)
(1.65682 0.0273742 0)
(2.03516 -0.168209 0)
(-1.17435 0.573885 1.12335e-18)
(0.224443 -0.0526304 -3.7517e-20)
(2.84412 -0.0820397 0)
(2.00572 0.0241157 0)
(1.50697 -1.06837 1.10356e-19)
(-0.251133 0.643773 0)
(2.38298 0.52928 1.74091e-20)
(2.83702 1.33392 1.6576e-19)
(2.0294 0.503132 -1.26483e-21)
(1.85322 0.427041 -5.835e-21)
(0.873302 0.473498 7.12237e-19)
(2.85384 1.51797 -1.75789e-19)
(2.34821 -0.24205 7.13307e-21)
(2.09772 -0.0328945 1.57554e-19)
(1.56637 -0.153329 -2.57639e-19)
(1.43211 -0.188583 2.33003e-21)
(2.02519 0.0278378 0)
(-2.40172 1.81227 -2.88572e-18)
(0.86889 -0.206507 0)
(0.49536 -0.762194 3.24481e-20)
(1.97691 -1.10936 0)
(2.18075 -0.140233 0)
(1.23054 -0.587275 -2.77824e-19)
(2.13584 0.045524 -4.16055e-21)
(-0.26145 0.21614 -1.31574e-18)
(2.05704 0.0131352 6.07224e-21)
(1.74021 -0.675519 3.77114e-19)
(2.99988 1.2462 1.94509e-19)
(0.616297 -0.459686 1.20148e-18)
(2.59511 0.123945 1.09085e-20)
(2.0172 -0.796711 1.39515e-19)
(1.95665 0.0617391 -2.72995e-19)
(1.49569 0.568499 0)
(1.75362 -0.13938 -4.88964e-19)
(1.73612 -0.450527 3.91775e-19)
(1.99271 0.123567 -6.09581e-19)
(-1.32962 0.389437 -2.65277e-19)
(1.56499 1.34915 -1.51303e-19)
(2.78127 1.4023 2.48831e-19)
(3.42302 -0.158009 0)
(2.21495 -0.304655 0)
(0.0948678 0.212376 -4.98701e-19)
(2.06464 -0.0844513 1.00175e-19)
(-1.71366 0.100243 0)
(2.26834 -0.136027 -1.3973e-19)
(2.0069 0.0247912 -3.19637e-19)
(-1.30293 0.143615 -1.70314e-19)
(-1.57877 -0.213857 9.70497e-19)
(2.60626 -0.128662 -4.07179e-21)
(0.179122 1.44896 -4.62682e-20)
(2.3261 -0.354404 -2.97888e-19)
(1.88947 -0.41556 2.72619e-19)
(3.39169 1.1806 7.27004e-19)
(1.46424 -0.607609 3.63287e-19)
(1.66553 0.37178 1.53083e-21)
(0.955013 0.31041 5.19285e-19)
(2.04724 2.05535 0)
(1.6212 -0.462122 2.28291e-19)
(-2.46609 0.350984 0)
(0.538549 -0.236916 -2.21812e-18)
(1.84229 0.952687 0)
(-2.20996 0.966869 -1.82635e-18)
(1.55508 -0.667764 -5.08137e-19)
(1.08931 0.634946 -2.39568e-19)
(2.00028 -0.811405 0)
(-0.205638 -1.22301 0)
(3.22983 -0.052922 0)
(1.98415 0.10076 1.25208e-19)
(0.424288 0.17641 -7.86018e-19)
(-0.169373 0.399034 9.82972e-19)
(1.51178 -0.281051 -7.92518e-21)
(3.3626 1.22483 -8.31074e-19)
(2.01406 0.240534 0)
(1.18066 2.075 2.58492e-19)
(2.44929 1.4187 9.32443e-20)
(-0.693977 -0.334724 -2.3482e-19)
(1.47761 -0.68765 3.12371e-19)
(2.53031 -0.16086 4.74736e-21)
(1.10375 -0.537011 5.67512e-19)
(2.2639 0.528672 0)
(2.48294 -0.299197 1.84393e-19)
(0.755256 -0.32099 9.49363e-20)
(1.9832 -0.025131 2.71203e-20)
(3.49137 0.925488 -4.49266e-19)
(2.10417 -1.14575 0)
(2.50737 0.798064 0)
(1.93668 0.428947 0)
(0.913512 -0.285651 0)
(1.87835 0.00125822 0)
(1.36222 -0.507053 1.56672e-19)
(3.76069 1.13226 6.80524e-19)
(1.39163 -0.581629 4.32787e-19)
(2.09968 0.0622673 2.57398e-19)
(-2.58974 0.509677 0)
(1.98286 -0.820196 3.09106e-21)
(-0.3276 0.36242 0)
(-2.3018 0.19342 -1.24278e-18)
(-0.308868 0.23723 5.41989e-19)
(3.71856 0.710076 -3.76529e-19)
(1.97781 0.121595 3.0516e-19)
(2.04047 0.264365 -9.57571e-20)
(3.51015 0.501845 -4.02731e-19)
(2.55557 -0.00190239 0)
(0.684468 -0.202811 9.84341e-19)
(1.99646 0.0386405 0)
(1.51855 0.947823 1.73517e-20)
(2.47735 -0.166654 0)
(2.13019 0.21482 -1.24516e-19)
(2.07815 -0.0742706 0)
(0.844857 -0.303372 -3.1666e-19)
(-0.960344 0.99465 1.63662e-18)
(2.41322 -0.237141 -1.72579e-19)
(1.30948 0.439351 4.71624e-19)
(-1.7348 0.923694 -2.33279e-18)
(2.40303 -0.991835 0)
(0.986421 -0.193339 -1.2128e-18)
(1.30898 0.13685 -2.30598e-20)
(3.45584 0.417667 -1.04578e-18)
(1.80428 0.0020575 3.69308e-21)
(3.95384 0.358891 2.11837e-18)
(2.74262 0.941306 0)
(1.69113 -0.757981 -8.05209e-20)
(1.40991 -0.639447 0)
(2.50329 -0.240187 1.40136e-20)
(0.385073 -0.0930905 7.74488e-20)
(-2.45053 1.12418 0)
(2.42212 0.492899 0)
(1.4672 -2.37072 -6.98561e-19)
(2.44223 0.772725 0)
(1.72285 1.8811 1.22047e-19)
(2.90301 1.07445 -3.07519e-19)
(0.464105 -0.176612 -7.28906e-19)
(-1.46433 -0.0899143 -3.45622e-19)
(1.98937 0.0328907 -7.18232e-21)
(-0.130423 -0.259717 -4.4641e-21)
(-0.0974173 0.178232 -1.01999e-18)
(1.86876 0.0266103 5.23661e-19)
(-1.38023 0.208269 1.94201e-19)
(-1.9663 0.830018 0)
(2.45642 0.186081 -8.71512e-20)
(0.698018 -2.23728 8.61176e-19)
(0.325463 0.262612 8.38528e-20)
(3.4808 0.562467 8.79057e-19)
(2.78435 1.75693 0)
(1.73221 -0.480748 -3.93715e-19)
(1.84925 -0.291062 -1.53369e-21)
(1.94178 0.81754 -8.62037e-20)
(2.80167 -0.0578118 -4.40396e-19)
(-1.47754 -0.616005 2.81299e-19)
(-1.92796 1.76681 1.86699e-18)
(1.40836 -0.570554 -1.04495e-19)
(-1.72697 -0.096576 5.92588e-20)
(2.84017 -0.15073 -4.30305e-19)
(-1.61418 -0.53529 -3.1571e-19)
(2.20976 -0.968136 0)
(1.90744 -0.171228 -4.73338e-19)
(-1.20495 -0.679395 0)
(-0.328533 -0.477457 -1.19583e-19)
(-0.613004 -0.609731 2.55999e-19)
(-0.520352 -0.388482 8.15823e-19)
(1.38656 0.353221 1.27573e-20)
(-2.25762 1.30949 1.40432e-19)
(-0.891199 -0.292545 0)
(2.12453 -0.765396 3.65889e-19)
(2.1027 -0.8125 8.55981e-20)
(-1.14191 -0.424327 -7.17201e-19)
(1.78253 0.562914 0)
(1.6547 0.539391 0)
(0.147834 0.390301 0)
(1.24151 -1.32857 -6.66604e-20)
(1.8865 -0.030072 -4.65302e-19)
(1.25586 0.213849 0)
(2.64138 -2.25193 0)
(2.29049 0.204963 -1.37468e-20)
(2.42066 -0.664305 -1.20909e-19)
(2.15673 0.351194 -3.70108e-19)
(1.66911 -0.308961 -6.59989e-20)
(1.69636 0.0436953 5.33349e-20)
(1.93804 -0.0162976 -5.96305e-20)
(1.29316 0.0671827 9.22495e-20)
(1.93636 0.566339 -2.91826e-20)
(1.87548 1.28299 0)
(-0.254218 0.30389 -1.79583e-20)
(0.122067 -0.23394 0)
(0.983379 0.187229 0)
(2.99021 0.403827 -4.97895e-19)
(-2.67313 0.959803 0)
(2.52541 0.462694 0)
(1.90054 -0.12191 7.29057e-19)
(1.80288 -0.78892 0)
(2.02904 0.272883 4.46376e-19)
(3.38692 0.738845 4.46956e-19)
(3.21189 0.828777 1.56326e-19)
(1.58329 0.433877 -3.19871e-21)
(1.07879 1.43074 2.7418e-19)
(2.13995 -0.804702 4.15474e-21)
(1.92339 -0.752955 -6.12892e-21)
(1.11985 -0.414606 4.5629e-19)
(-0.572431 -0.0743825 0)
(0.917059 -0.451698 0)
(-2.79246 1.5218 -1.94801e-18)
(-1.03879 1.15209 -2.22392e-18)
(-0.0710313 -1.13737 0)
(-0.802631 -0.0567043 2.10459e-19)
(0.151095 -0.0145482 0)
(0.4132 -0.38261 1.0662e-18)
(1.07772 -0.493187 -5.91078e-19)
(3.40334 0.587679 -2.00226e-20)
(3.18176 0.9573 3.511e-19)
(1.18048 -0.382284 9.22177e-20)
(2.76761 -0.124782 2.06339e-19)
(2.29051 1.00878 0)
(2.37288 0.958664 0)
(1.03427 0.0556319 0)
(-0.445632 -0.14345 -5.09359e-19)
(1.35968 -0.512983 0)
(2.2618 0.776358 0)
(1.71437 0.0343272 0)
(2.35637 -0.366449 -6.49145e-20)
(0.79395 -0.0878005 3.22226e-19)
(1.96226 -0.744117 -2.03106e-19)
(1.05148 -1.37742 2.08994e-19)
(1.58773 -0.309908 0)
(-2.10488 1.26071 0)
(1.9244 -0.559591 -3.6254e-19)
(1.5391 0.617005 7.09761e-19)
(-2.42037 1.57448 -1.00284e-18)
(2.94272 0.153439 1.48754e-20)
(1.64969 -0.438267 4.18083e-19)
(0.951538 0.499321 -1.12427e-18)
(-0.999569 1.23122 0)
(1.18576 1.39825 -6.35723e-19)
(0.327546 0.431484 -6.93395e-19)
(3.22572 0.67101 0)
(2.19264 -0.0805425 0)
(1.94483 -0.0732915 0)
(2.02955 0.043495 -4.65175e-19)
(1.35596 0.327402 -4.83302e-19)
(1.63137 0.157894 0)
(2.51494 1.38471 1.36924e-18)
(1.72578 -0.76971 3.77744e-19)
(2.39638 -0.350672 7.58747e-20)
(-2.5569 1.12557 7.59588e-19)
(2.05482 -0.248252 0)
(2.53957 0.0959873 5.13747e-20)
(1.70024 -0.406101 0)
(0.351428 -2.16426 -8.58649e-19)
(1.66748 -0.755179 0)
(2.06963 -0.731114 4.45342e-19)
(1.55093 -0.244903 -1.20286e-22)
(2.1201 0.439439 2.90391e-21)
(2.41928 -0.368915 0)
(1.75137 -0.74632 0)
(1.53332 -0.658082 -5.31518e-19)
(2.31486 0.464158 -1.92333e-20)
(-2.08097 -0.265848 6.0713e-19)
(0.82427 -0.390502 4.63842e-19)
(1.86632 -0.0655613 0)
(1.55608 0.223937 -7.34198e-19)
(2.4038 0.0164507 -5.39228e-20)
(1.36808 -1.54252 -1.00212e-19)
(2.09921 0.623873 1.10906e-20)
(2.25654 0.753275 0)
(1.15943 -0.324413 6.49194e-19)
(0.932008 0.233866 -7.13493e-19)
(3.54427 0.898238 1.00348e-20)
(1.79617 0.276238 -8.40847e-19)
(-2.43053 1.02915 6.35222e-19)
(-0.205185 0.0556835 -1.94864e-18)
(1.60146 -0.208751 -8.16894e-22)
(2.07742 -0.00948273 -4.20089e-20)
(0.571593 0.375198 1.09019e-18)
(-0.266735 0.198988 -1.9013e-22)
(-2.54086 0.958133 1.19684e-18)
(-2.28946 -0.145491 1.31352e-18)
(1.76951 -0.0791005 7.19667e-20)
(2.37437 -0.208861 0)
(0.82765 0.292322 8.48957e-19)
(1.10634 -0.5383 2.56235e-19)
(1.63332 -0.244783 2.53104e-19)
(-0.264252 0.300234 0)
(1.55413 -0.360699 -6.73983e-20)
(1.90083 0.0781493 -3.9264e-23)
(2.04151 0.0340377 0)
(0.141027 0.157184 6.73088e-19)
(-0.825133 -1.62655 4.16024e-19)
(1.62305 -0.281891 0)
(0.993388 -0.354202 0)
(1.5145 -1.20672 -1.06777e-19)
(1.43885 -1.98439 -6.52823e-20)
(2.95704 0.382274 1.78166e-19)
(-0.317686 0.0317306 0)
(1.90708 -0.0099546 -4.09825e-19)
(2.67579 -0.994027 -1.89398e-19)
(2.13916 -0.70349 2.52096e-20)
(1.17283 -0.437019 5.73179e-19)
(-2.65521 0.963485 -1.11519e-18)
(-2.37808 0.541616 9.09887e-19)
(3.76132 0.843388 -8.69266e-21)
(3.2562 -0.98989 0)
(2.03238 0.94589 -1.06294e-18)
(1.52524 -0.609835 2.66368e-19)
(2.0366 2.11344 1.61053e-19)
(0.790663 0.654206 0)
(1.12965 -0.212156 -5.73883e-19)
(1.17148 -0.483869 -6.95673e-19)
(-2.73883 1.43593 1.37305e-18)
(0.855035 -0.104582 -1.04365e-18)
(2.17569 1.49375 0)
(-0.205964 0.430745 -6.20424e-19)
(2.30477 0.670253 0)
(-0.55702 -0.398983 -7.85422e-19)
(-0.174527 0.527202 1.37034e-18)
(-0.689123 1.94772 0)
(-2.67894 1.02988 5.13451e-19)
(1.60454 -0.101153 -1.05216e-19)
(0.72703 -0.175129 4.07017e-19)
(1.6194 -0.638791 4.819e-19)
(-2.78607 1.68727 -3.18509e-18)
(1.14483 -0.517094 0)
(2.01034 0.0343276 1.50451e-19)
(0.583475 -0.100456 0)
(2.26226 0.2469 -3.91108e-21)
(-0.691601 0.0262733 -1.1558e-18)
(0.49981 -0.182435 3.02688e-19)
(2.33738 0.766435 0)
(1.83395 -0.727597 -3.60336e-19)
(3.12893 0.0676687 1.72583e-19)
(-2.4716 0.875702 2.25255e-18)
(-0.203666 -2.19954 0)
(-2.39642 0.697423 -2.00885e-18)
(3.30082 0.807071 -1.03666e-18)
(1.59333 0.222947 9.40591e-19)
(2.23882 -0.758082 0)
(2.55951 -0.228864 4.31151e-19)
(-0.919642 -0.0623067 1.02252e-18)
(0.609564 -0.180236 -1.41427e-19)
(2.16287 -0.540475 1.38503e-19)
(-2.28513 0.796996 0)
(1.9227 -0.537875 -5.74972e-20)
(1.85117 0.309234 -1.10113e-22)
(2.48244 -0.366326 1.22989e-19)
(2.34354 0.0274136 0)
(-2.04355 1.4835 1.12491e-18)
(1.58976 -0.436852 3.12099e-23)
(1.24341 -0.352696 7.11635e-20)
(1.5169 0.536196 0)
(1.9915 -0.76229 -1.58228e-19)
(-2.68471 1.48159 2.39503e-18)
(1.65968 -0.398309 -5.2313e-19)
(-0.241185 0.176881 0)
(1.42045 -0.282721 -5.02544e-20)
(2.01663 -0.738087 1.30061e-19)
(-2.58089 1.00577 -1.2636e-18)
(1.46839 -0.290837 0)
(0.420883 -0.157275 1.46017e-18)
(1.61857 -1.36852 0)
(-1.81831 1.96701 1.59578e-18)
(1.83564 -2.24437 0)
(1.86115 -0.118594 -2.69383e-19)
(2.16415 -0.211528 -2.68223e-19)
(2.71782 1.35795 -6.85868e-19)
(1.43663 -0.969429 0)
(1.93907 -0.822648 -2.4485e-19)
(2.00471 0.0175361 0)
(2.39353 0.46615 0)
(2.03639 -0.828336 6.84806e-20)
(-2.01129 1.62732 1.09486e-18)
(0.504937 -0.0210278 1.90204e-19)
(2.09101 -0.530151 -8.37134e-20)
(1.6725 0.352449 3.0936e-19)
(-0.166079 -0.325401 -3.95378e-20)
(2.08483 0.347345 1.71492e-19)
(-0.827491 1.16855 -1.58673e-19)
(2.11164 0.757157 0)
(2.51294 0.297811 0)
(-1.39438 1.44443 0)
(-1.14549 -0.915403 1.06966e-18)
(1.14543 -0.379201 -4.02939e-19)
(1.45985 0.139253 0)
(-1.85965 0.556117 1.21255e-18)
(2.30515 -0.144118 -1.86148e-19)
(-2.21634 0.723018 -5.88896e-19)
(1.34897 -0.480282 -1.30511e-19)
(2.11482 -0.827988 0)
(0.435498 -0.19051 1.2496e-18)
(0.276965 -0.010418 -1.51302e-18)
(-0.414053 1.6921 0)
(-0.408784 0.310715 -8.25403e-19)
(1.73476 0.0352623 -1.13247e-20)
(2.7324 -0.148955 9.50329e-20)
(1.90426 0.0721962 2.7839e-19)
(2.74773 1.18172 -3.19804e-19)
(2.45757 0.225498 5.66851e-21)
(-1.3853 -0.655616 0)
(1.89112 -0.735724 0)
(-1.69188 0.656358 1.07934e-18)
(0.446623 -0.153824 0)
(1.55375 -0.31722 -6.82759e-20)
(2.11186 -0.737694 -2.32166e-19)
(0.946542 -0.437504 4.85725e-19)
(2.29089 -0.230726 -1.52437e-19)
(1.7217 0.405413 -3.07389e-19)
(1.48721 -0.59899 -2.62441e-19)
(1.57143 -0.625509 -4.85301e-19)
(1.37923 -1.82633 0)
(1.67095 -0.647057 4.58847e-19)
(2.05553 -0.0531967 0)
(2.46773 -0.391093 -5.00259e-21)
(2.0037 1.36204 2.00851e-20)
(0.977717 -0.244118 6.00335e-20)
(2.20398 -0.352002 -2.26213e-19)
(0.639647 -0.336816 -8.78032e-19)
(-0.221833 0.396516 0)
(1.06211 -2.642 -4.00565e-19)
(-0.29648 1.26883 -2.00082e-18)
(2.10356 0.564957 -1.90244e-19)
(1.77966 -0.710883 4.22386e-19)
(2.10424 0.01222 -5.25332e-21)
(0.839323 -0.0827238 3.61996e-19)
(1.77488 -0.73827 -7.84158e-20)
(0.276256 0.158591 0)
(-2.1646 0.636955 1.69537e-18)
(1.71309 -0.364021 2.77195e-19)
(2.06177 0.0437295 -1.02653e-22)
(1.14037 -0.486592 1.02102e-18)
(-0.784375 -0.439965 1.99311e-20)
(1.67874 0.646708 0)
(-1.0969 -0.832866 -3.94548e-19)
(-2.15945 1.26483 -1.57529e-19)
(1.06276 -0.308627 -7.71024e-19)
(-0.814931 -1.01329 4.06778e-19)
(2.39825 1.03698 -2.96378e-19)
(2.13473 0.454008 5.70785e-21)
(0.903875 -0.351316 3.49211e-19)
(1.76159 -0.366407 0)
(2.58847 0.200508 -1.50947e-19)
(2.46551 -0.0631119 -6.52249e-21)
(3.03107 0.994441 -3.49906e-19)
(-1.19455 -0.681396 0)
(3.5691 1.16214 2.42431e-20)
(-0.0838116 -0.221021 7.52699e-19)
(1.56743 -0.680408 1.02709e-18)
(-0.117109 -0.5286 1.34242e-20)
(-0.412343 0.75361 -4.34698e-19)
(0.456558 -0.228565 2.41891e-18)
(1.94777 -0.724736 4.16974e-19)
(2.18686 0.0329754 -3.65656e-21)
(-0.0217084 -0.336076 -5.79244e-21)
(2.8553 -0.0210809 4.82954e-20)
(0.238371 0.473378 0)
(2.03006 0.030289 0)
(2.37989 0.592871 0)
(1.7199 -0.659394 -3.98295e-19)
(2.2769 -2.34756 6.30358e-19)
(-1.17949 -0.358573 0)
(1.20721 -0.350592 -1.66767e-19)
(-0.778098 2.29633 0)
(3.7851 0.406383 0)
(-1.45305 -0.552264 0)
(1.98187 -0.00421786 0)
(0.385169 -0.148091 -4.52264e-19)
(-0.532757 0.964187 0)
(3.77537 0.113807 1.55922e-18)
(1.34033 0.0122893 0)
(1.77203 0.277869 0)
(1.92779 0.253968 2.87789e-21)
(-0.849808 1.01547 0)
(3.54676 -1.46348 0)
(-0.82896 -0.230564 0)
(2.5931 0.0406848 1.21765e-20)
(1.65077 -0.0517567 0)
(2.12941 -0.812185 -8.66876e-21)
(1.45213 -0.304034 2.74402e-21)
(0.358432 -0.216865 -4.2327e-19)
(1.97567 0.0634668 6.80728e-19)
(-0.176859 0.0280056 -5.44568e-20)
(1.05869 0.957231 -6.00987e-19)
(1.45405 0.773422 0)
(2.35472 -0.350727 7.32709e-21)
(1.61509 -0.18923 -2.47119e-19)
(1.56567 1.76034 1.54853e-19)
(1.83363 0.410532 4.40045e-19)
(0.72442 -0.241438 -7.34367e-19)
(1.46968 -0.648433 -4.04815e-19)
(2.98426 0.33331 2.29607e-19)
(0.552721 -2.52012 0)
(2.31054 -0.426036 -3.19785e-21)
(1.08978 -2.26496 4.71701e-19)
(2.69009 0.316991 -8.07648e-20)
(-2.63375 1.7353 0)
(1.86001 0.0342346 -3.10308e-19)
(2.75968 0.985898 -1.10548e-18)
(1.31986 -0.52474 5.26669e-19)
(1.20133 -0.540437 -6.36994e-19)
(1.60863 -0.742088 0)
(1.71635 -0.753731 0)
(3.60531 -0.410951 1.76154e-18)
(2.26054 -0.357183 -1.40687e-19)
(3.39471 0.461844 -5.72837e-19)
(1.74662 -0.0343054 4.07647e-20)
(1.18867 -0.320536 -1.54988e-19)
(1.64497 -0.495734 4.41387e-19)
(2.51338 0.319595 0)
(2.43062 0.311029 1.299e-20)
(0.375554 -0.211256 -1.86127e-18)
(2.71369 -1.94359 2.50767e-18)
(1.11968 -0.176778 -4.71439e-20)
(-0.778714 -0.0139637 6.88122e-19)
(3.27123 0.484404 4.7837e-19)
(2.5258 0.753778 5.92368e-20)
(2.38386 0.695349 0)
(-1.78945 -0.517296 0)
(2.18236 -0.810172 -1.78161e-21)
(1.13911 -0.237622 0)
(1.83322 -0.379347 1.84042e-19)
(1.62609 0.286706 5.34307e-19)
(1.65027 0.496984 -1.5797e-19)
(1.54209 -0.631019 1.05183e-18)
(1.84116 0.349075 2.19211e-22)
(1.42732 0.0169033 0)
(1.81791 -0.0874951 -8.61834e-21)
(-0.957785 -0.206236 -9.26914e-19)
(2.16709 0.268665 0)
(2.53515 -0.392674 0)
(1.86412 -0.746292 1.53952e-19)
(1.96464 0.593993 2.44627e-19)
(1.06751 -0.147706 0)
(3.62559 -0.918197 9.60439e-20)
(2.80188 -0.0165933 1.98542e-19)
(2.32953 0.350469 3.54899e-20)
(1.72633 0.501321 4.66232e-19)
(-1.52516 -0.163623 -5.37565e-19)
(1.26393 -0.775484 0)
(0.37986 -0.47812 -2.14264e-18)
(0.472698 -0.198058 1.09656e-18)
(1.96449 0.00399676 1.71405e-20)
(0.10596 -0.363528 -9.08739e-19)
(1.75191 -0.723218 2.99267e-20)
(2.64491 0.369666 2.12017e-19)
(1.77724 0.363187 0)
(1.96799 0.206605 3.04816e-21)
(1.81181 0.03658 9.61438e-20)
(2.09657 -0.026309 -1.62485e-19)
(2.18291 0.521994 -1.46428e-19)
(2.16519 -0.767635 0)
(-1.34316 -0.0190436 0)
(2.57757 0.00574346 0)
(2.26701 0.446679 -7.78761e-20)
(1.01932 -0.469173 7.6163e-19)
(2.39528 1.8515 -8.27667e-20)
(1.46607 -0.0655178 0)
(-1.73736 1.5956 -4.33051e-19)
(-1.41146 -0.871771 6.12208e-19)
(-1.56027 2.36342 0)
(1.95248 0.276255 -1.42645e-19)
(1.63459 0.273493 -1.77657e-19)
(3.24111 -0.0975981 -1.13561e-19)
(2.03647 0.541232 1.05651e-20)
(0.621825 -0.202346 0)
(2.16171 0.195287 -1.82834e-19)
(2.00135 -0.390651 0)
(2.04622 -0.249247 1.00171e-20)
(0.966837 0.0972095 0)
(2.21955 0.897439 1.04834e-19)
(1.64021 -0.657713 -4.69076e-19)
(2.37924 0.862565 0)
(1.80781 -0.0954582 -4.71256e-19)
(2.13783 0.673539 -3.06563e-20)
(1.88089 -0.635459 0)
(1.11132 -0.526885 0)
(0.475349 0.22563 -9.30807e-20)
(2.47144 -0.236303 -1.31323e-20)
(0.441078 -2.51164 -4.60017e-19)
(-0.0416524 -0.161125 -1.2056e-20)
(2.74006 -0.109654 -1.56214e-21)
(1.31273 0.276496 7.82747e-19)
(1.74311 0.415139 -1.99944e-21)
(2.05464 0.552225 0)
(3.36359 0.980167 4.83599e-19)
(1.65723 -0.753999 0)
(1.45878 -0.670239 -4.42271e-19)