/*--------------------------------*- C++ -*----------------------------------*\
| =========                 |                                                 |
| \\      /  F ield         | OpenFOAM: The Open Source CFD Toolbox           |
|  \\    /   O peration     | Version:  2306                                  |
|   \\  /    A nd           | Website:  www.openfoam.com                      |
|    \\/     M anipulation  |                                                 |
\*---------------------------------------------------------------------------*/
FoamFile
{
    version     2.0;
    format      ascii;
    arch        "LSB;label=32;scalar=64";
    class       surfaceScalarField;
    location    "7.8";
    object      phi;
}
// * * * * * * * * * * * * * * * * * * * * * * * * * * * * * * * * * * * * * //

dimensions      [0 3 -1 0 0 0 0];

oriented        oriented;

internalField   nonuniform List<scalar> 
20045
(
0.868561
-1.0301
0.161538
-1.73646
0.791708
0.944751
0.393031
2.95105
-3.34408
1.10476
-1.60262
0.497863
-1.68185
1.3935
0.288351
-0.85339
3.13249
-2.2791
-1.66391
0.171619
1.49229
0.070234
0.841806
-0.91204
0.87874
0.700678
-1.57942
-0.922532
-0.333474
1.25601
0.237176
-0.574247
0.33707
2.78567
-1.44371
-1.34196
0.710139
-0.691873
-0.0182657
-1.65403
1.36888
0.285158
-0.0987812
1.49436
-1.39558
-1.44618
0.523648
-0.043907
-0.188458
0.232365
0.255778
1.28237
-1.53815
-2.27624
3.263
-0.986752
-1.18242
-0.0968919
1.27931
1.79744
-1.1915
-0.605948
0.261062
0.449077
-0.428394
-1.30807
1.78927
0.71839
-2.50766
1.25517
0.0990801
-1.35425
-0.820556
2.60983
-0.284077
0.332838
-0.0487609
-1.84895
3.90193
-2.05298
0.635665
-0.382187
-0.253478
-4.28972
2.81457
1.47516
1.84353
-1.58456
-0.258968
1.83181
-1.81725
-0.0145608
-0.717749
2.21674
-1.49899
4.56846
-2.53416
-2.0343
-1.06263
1.13287
5.04234
-2.23217
-2.81017
0.258935
2.18487
-2.4438
-0.116597
0.723603
-0.607006
-3.63787
2.37844
1.25942
1.0082
0.904316
-1.91252
-0.0452819
0.992929
-0.947647
0.333293
-0.463827
0.130535
3.46191
-3.52131
0.0594035
2.03868
-0.61486
-1.42382
0.830126
1.20856
1.33297
1.4527
-0.757139
0.432771
0.324368
1.17361
-0.924901
-0.248713
2.73396
-2.47502
0.390889
2.66981
-3.0607
1.99765
-3.2925
1.29485
2.82414
-1.74308
-1.08106
-1.02398
-1.18511
2.20909
-0.169495
-0.556645
0.72614
-1.48526
1.58406
-0.098797
-1.20447
-0.477375
0.656442
2.75507
-3.41151
2.17709
0.917126
-3.09422
1.91005
-2.62779
2.85047
-2.9832
0.13273
0.339724
-0.601487
0.261763
-0.0439799
2.89445
0.247899
-2.33119
2.08329
0.807084
0.99036
-1.29925
0.068551
1.2307
0.504497
2.37135
-2.87584
-0.486703
1.44546
-0.958755
-1.05636
0.0583866
0.99797
1.51381
-0.63507
1.38674
-1.41727
0.0305385
-1.23564
0.748938
-1.65695
0.171691
-0.463562
-1.6842
2.14776
0.23927
-0.180597
-0.0586734
1.55016
1.26596
-2.81612
2.79004
-2.1336
-2.17057
3.72073
1.14462
-1.2434
0.829869
-0.759149
-0.0707191
0.0882992
-3.17434
3.08604
3.39905
2.10606
-5.5051
1.29517
-1.23052
-0.0646562
1.65004
-1.40214
-3.49551
0.407306
3.0882
-0.0467378
0.915299
-0.415514
0.696413
-0.2809
0.15645
-1.9436
1.78715
-2.375
0.0472702
2.32773
1.39714
0.489342
-1.88649
-1.19715
0.910446
0.286703
-2.09707
0.427171
1.6699
1.40226
-0.354909
-1.04735
0.704509
-1.08265
0.378138
-0.453775
-1.16637
1.62014
1.06384
-1.1579
0.0940539
1.93147
-0.985187
-0.946279
-0.29841
0.0143325
-0.160327
-1.01518
1.17551
2.06515
-1.05694
-0.00907356
-0.124511
0.133585
3.76065
1.2817
-0.644825
-1.00921
-1.41663
1.2563
-0.981282
3.15838
0.205911
-0.621425
0.065068
-0.0741416
0.537643
1.92978
-2.46742
1.40603
-3.462
2.05597
0.0727297
-0.910366
0.77104
0.139326
-0.520347
0.65508
-0.134733
1.67817
-1.82527
0.147102
-0.911322
0.741827
2.15327
-4.35205
2.19877
-0.463439
0.645611
-0.182172
0.0936655
-0.626203
0.532537
1.52493
-0.269766
3.20126
1.3672
-1.96496
1.5014
-0.99864
-2.20249
3.20113
-1.02426
1.28004
-0.209729
0.549454
-1.42322
1.13929
0.283927
-2.23184
0.210341
-1.08999
0.879651
1.64064
1.1835
1.67688
-2.39764
0.720752
2.33311
0.248547
-2.58166
-4.00024
2.76362
1.23662
-0.412032
1.31967
-0.907637
2.79972
-1.15908
0.851633
-0.418862
0.147506
0.104768
-0.252273
0.100363
-0.101314
0.000950423
1.73682
1.17659
-2.91341
1.84943
-1.56797
-0.281464
-0.370328
-0.0115176
0.381846
-0.652958
-0.257408
1.70126
-2.6999
-1.22536
1.2436
-0.0182463
1.59662
-3.25409
1.65747
0.666189
-1.69017
0.937647
1.05467
-1.99232
3.41888
-3.33058
3.19253
-0.487233
-2.7053
1.18199
-2.21887
1.03689
2.73228
-1.38622
-1.34606
-0.444351
0.411389
0.0329625
-0.253132
3.18239
-2.92926
-0.0014269
0.637092
-2.45864
0.0555997
2.40304
-1.81858
1.22818
0.590397
5.25457
-1.85552
0.257409
1.03776
-1.85106
2.16134
-0.310272
-2.66105
3.05408
0.0221406
-0.805284
0.783143
-0.188381
-0.479688
0.668069
-0.0778729
-0.678068
0.755941
1.87317
1.28022
-3.15339
3.98726
-1.98306
-2.0042
-0.820735
0.742862
1.90648
-1.75142
-0.15506
0.408959
-0.0756663
-2.72436
-1.21424
1.73612
-0.521881
-1.73868
1.32965
0.409038
-0.0152247
-0.236018
0.251242
1.6081
1.12418
0.0136282
0.0867352
-0.297272
0.444778
-1.9623
0.111242
-2.25227
2.77635
-0.524077
-2.26284
2.26587
-0.00302525
-0.170419
-4.4099
4.58032
-1.6143
1.00515
0.60915
1.03622
-1.15671
0.120488
2.9102
-0.124383
-2.78582
-0.100544
-2.22272
2.32326
-1.34067
2.27831
0.621575
-1.86489
1.24332
-2.06078
4.21405
-2.26847
1.83113
0.437341
-0.0939584
0.075631
0.0183274
1.53532
-3.2162
1.68088
-3.07861
1.22966
-2.03721
-0.790274
3.94992
-2.60024
-1.34967
-1.21272
1.16744
0.616353
-0.659692
0.0433395
0.0387951
-2.83841
2.79961
-3.2503
4.53156
-1.28126
3.20194
-2.78108
-0.420856
-0.110299
-0.494452
0.604752
-1.57804
-1.40625
2.98429
0.428003
-0.190827
1.12951
-1.54155
-2.14823
-0.650843
2.79907
0.430765
0.106742
-0.537507
0.332895
-1.54713
1.38288
0.460656
2.46771
-0.134592
-0.601208
0.484611
-0.725715
0.89939
-0.173675
-1.71614
3.58932
-3.21943
1.64138
1.32234
-1.58398
0.26164
-2.30855
0.540982
1.76757
0.619265
2.58267
3.39326
-1.85794
2.7067
-4.30406
1.59736
2.15533
-2.86496
0.709627
0.256846
-1.43926
-1.59048
2.12812
1.82969
-2.68308
1.62916
-4.27738
2.64822
-4.53179
2.19837
2.33343
-0.271047
-0.926101
0.621202
0.555897
-1.1771
1.9397
-0.790937
-1.14877
-0.168418
-2.22969
1.97656
-0.90461
-0.320747
1.83903
2.09693
-1.83515
-0.261788
-0.0404495
-0.506307
0.546757
1.80417
0.363433
-2.1676
-0.465799
-0.0930228
0.558821
-0.997489
3.35308
-2.35559
-2.22059
2.37704
1.92623
-1.30465
-0.497659
1.68523
-1.18758
2.75813
-1.16151
0.441426
-0.0354979
-0.405928
0.914818
0.29114
-1.20596
-0.499497
0.520601
-0.0211042
4.0123
-2.63026
-1.38204
0.753259
-4.00356
-0.55448
0.0549834
-2.36117
0.523478
1.83769
3.64468
-1.42795
0.666736
-2.91901
5.08653
-2.08135
-3.00518
-0.0645767
0.495341
3.22784
-2.44271
-0.785127
-1.83371
0.236901
1.59681
-2.77907
2.69592
0.0831505
1.91509
-3.1356
1.22051
-0.142357
0.0293447
0.113012
-1.42521
1.70258
-0.277366
-0.59564
-0.251255
0.846895
-0.597876
0.134437
-0.631456
0.111109
-1.5703
-1.8917
1.51018
-3.85364
2.34346
1.37715
0.351797
-1.72895
1.6035
0.228316
4.21503
-2.58587
-1.41224
1.22385
1.73297
1.91171
-1.65752
0.283238
1.37428
2.08964
1.1382
1.44065
0.0537113
0.129091
1.24806
-1.03044
-0.189945
1.22039
-0.101263
0.00730471
-3.50957
2.51208
0.271048
0.829771
-1.10082
-2.87603
2.77118
0.104853
0.331153
0.251365
-0.582518
-0.308009
-0.517205
0.825214
2.23053
-2.55204
0.32151
-2.38663
-2.14516
2.95717
-2.00595
-0.951218
-0.404227
0.363777
3.38511
-1.47002
-2.2982
3.80839
2.17943
-0.508343
-1.67108
3.50429
-1.46043
-2.04386
2.92526
-1.15997
-1.76529
1.79704
0.382385
2.74293
-1.68686
-1.05607
-0.678783
2.5013
-1.82252
1.01313
-2.13446
1.12133
0.544023
-0.404299
-0.139724
0.158375
-0.289578
0.131204
3.58528
-3.12821
-0.457069
-2.30906
-1.69118
1.50067
0.596269
-2.60871
-0.26732
-0.426169
1.34099
2.17935
-2.94719
0.76784
0.00913126
0.607222
-1.60018
3.337
1.52111
2.4912
4.36448
-2.80466
-1.55983
-2.88934
2.2385
1.72493
-2.81415
1.08922
-1.85471
-0.288288
2.143
-1.23818
-0.424675
1.66286
1.46224
0.444242
2.07037
-0.748029
1.53903
-0.631066
-1.18618
0.345248
1.94476
-2.29001
-0.878376
0.152661
-0.97934
0.481681
0.262139
-3.04121
0.322138
-2.54273
2.77275
-0.612227
0.754015
-0.141788
-0.17238
1.27714
-1.25952
0.844906
0.414614
1.50195
0.176222
-0.100835
0.0471036
0.053731
1.3223
0.52713
-0.748866
2.92822
1.75635
-0.359202
-0.77619
-1.53236
4.74581
-3.59532
-1.15048
2.68937
-3.11419
2.42231
0.691877
2.34631
-2.66289
0.31658
-1.49964
1.04587
-0.479311
0.108982
-0.847928
-1.24914
1.16947
-1.84338
0.673913
1.3114
1.43152
1.52655
-2.69188
1.16533
1.02592
-1.84824
0.822328
-2.92372
0.548725
0.127448
1.27481
-1.8418
1.79414
0.0476618
-0.578546
0.99635
-0.417804
-1.85458
0.190675
-0.42371
-0.843776
1.26749
0.428753
0.00192936
-0.430682
-0.937298
-0.881282
0.974817
1.39369
-2.3685
3.0295
-0.939857
1.23624
-1.3515
-0.148148
1.68665
-0.660738
-2.09678
-0.17169
-0.250921
0.0391154
0.211806
0.314378
0.859236
-1.69313
2.447
-0.753876
-0.473452
0.568403
-0.0949516
1.75205
0.18765
-2.29249
-0.6547
-1.70018
2.87182
-1.17164
1.40937
-2.63697
1.2276
1.27073
1.68644
0.293338
-0.238507
-0.0548318
0.428984
-2.28369
1.77099
-1.51004
-0.260951
0.148115
0.0911555
-0.411137
2.08802
-1.91168
2.23382
-0.759438
2.91477
0.503566
-2.77981
-1.8022
1.4758
0.326399
2.09147
-0.529677
-1.5618
2.86764
-0.637111
-2.09136
-3.01994
-2.43858
1.73422
-0.605975
0.736702
-0.130727
1.01821
-1.11511
-2.45947
2.04834
2.77167
0.69024
-2.53239
0.839262
2.08704
-0.586378
0.973848
-0.388152
-0.585695
0.0149761
-1.66715
1.65217
-2.68779
0.465929
2.22186
2.50473
-2.50473
-2.19418
3.00402
-0.809844
-0.11952
0.0186849
1.41603
-0.683605
-0.732421
-2.97253
3.09811
-0.12558
1.21499
-0.0811661
-1.13383
0.947959
-0.276962
-0.670997
0.475959
-0.783967
0.245658
1.66468
-3.96288
-2.36503
2.7951
-0.430073
-0.929478
1.9043
0.0664505
0.0267345
-0.0931849
0.903856
0.573205
-1.47706
-1.18176
1.43861
4.01454
-2.91472
-1.09982
-0.348962
-1.44934
1.7983
-0.87699
0.922805
-0.0458147
0.607784
-0.907465
0.299681
-1.82319
2.96877
-1.14557
-1.01708
-0.585543
0.668984
0.304864
-0.0617347
-0.0955691
0.157304
1.87512
1.71015
0.116783
-0.0503321
-0.295785
-0.566213
0.861997
-1.64925
2.58976
-0.94051
0.0866604
0.728862
-0.815522
1.3804
-1.20878
2.01066
-1.02923
-0.981437
0.246328
-1.41269
0.620247
2.28995
1.5142
0.803618
-2.31782
1.55263
-1.14899
-0.403637
-3.0357
0.577062
-0.889581
0.434118
0.455463
1.09824
2.22743
-3.32567
-2.0154
1.72711
0.214413
-2.75075
2.53634
-0.489232
0.378932
-0.187364
0.165701
0.0216622
0.167322
-1.19777
0.0794542
0.359842
-0.439296
-2.02549
-0.335675
1.82924
2.02869
-1.15925
-0.869439
-0.534594
0.0611421
0.350667
-2.01436
1.6637
0.739882
1.44588
-2.18576
1.14526
-2.07297
2.44903
-0.376063
-2.25721
1.57843
0.18552
0.147318
-1.09011
-0.648569
-0.952922
0.205528
0.747394
-2.7874
1.13815
1.8809
-2.22987
0.815552
1.27149
-1.2112
1.10952
0.101681
0.3708
-2.90804
2.53724
0.668942
-0.973655
0.304713
0.511388
-2.80388
-1.93494
-0.327901
-1.15094
0.0945809
0.496355
-0.156813
-0.339542
1.62791
0.16062
-0.117826
-0.0427943
3.13561
-2.03737
-1.33874
2.98595
-1.6472
0.879574
0.671177
-1.55075
-0.968117
0.478886
-0.852961
-0.0999612
1.07402
0.342006
-2.7359
0.533404
0.111975
-0.362896
1.74435
1.4336
0.322747
-2.60026
2.99114
0.27396
-1.07473
0.800772
-0.282434
-2.46977
2.7522
0.633525
-0.753689
0.120163
-1.0806
-0.5337
-0.840955
1.85409
2.40804
-1.22605
-0.975138
-0.284381
-0.0629278
-1.36179
1.42472
3.77985
-3.95027
-0.219144
-1.30557
1.52471
0.761065
-1.68616
0.925093
-1.86032
-0.045196
1.90551
0.359346
-1.28425
0.0226931
0.372905
-0.395598
-0.783231
-0.0937594
0.604992
1.20023
-1.80522
0.537923
-0.645034
0.107112
2.97463
1.08685
-4.06148
0.791993
1.13947
0.408288
0.0204643
-1.25908
-2.01229
3.27137
2.97848
-1.27722
2.65146
-1.91158
-1.25222
0.828512
-0.158497
0.316871
-0.990566
2.7155
0.314486
-2.24512
1.93064
0.88359
-0.578614
-0.304976
-1.2144
1.80566
-0.591266
1.12423
-1.36957
-0.9532
2.32277
0.215052
-0.143368
-0.0716834
-0.80394
-1.4833
2.28724
1.5299
-0.62604
0.25106
-0.266284
1.54566
-2.3496
-2.04887
-0.705776
2.75465
-0.0266131
-1.6195
1.64612
1.13424
3.3498
-3.50388
0.154073
0.683219
-0.24537
-0.437849
-0.0963889
-1.11481
0.742687
0.877456
-1.22429
-0.0138904
-2.39578
3.00683
-0.611049
1.13365
-0.862605
0.648756
2.77013
-2.63242
-0.888892
-0.0477865
0.0644809
-0.0166944
1.58596
-0.152356
-0.759135
0.826532
-0.067397
-0.907758
0.312118
-2.91727
0.880058
2.58876
0.543734
-0.215534
0.823318
-0.734674
1.61425
3.79314
-2.12846
-0.771014
0.0118791
-0.481839
-1.97764
0.521722
0.88721
-0.865069
-2.76958
0.0817917
-0.217818
0.753675
-0.0847331
-4.59057
0.828878
3.76169
0.927362
0.459374
0.740821
-0.278634
-0.462187
1.08214
-0.944991
-0.137153
-3.71666
1.48449
-3.21418
1.514
-0.531122
-0.369784
0.900905
-0.0537902
-0.760866
0.814657
2.87801
-0.0414542
-2.83655
0.734932
0.0623727
-0.797305
-0.497839
-0.925377
0.830034
-0.125525
0.0405194
-0.0713413
0.030822
1.4358
-0.0926704
-1.34313
-0.088007
0.128526
0.366584
-1.35177
-0.0997795
-0.528824
0.628603
-3.05523
0.659444
-0.111733
-0.137611
-1.27901
1.09007
0.93862
-0.130627
-1.28161
0.790516
0.653753
-1.44427
-1.38969
0.0904425
1.0398
-0.765843
0.800822
-0.707157
0.410176
-0.988722
1.77769
1.05547
-2.83316
1.76396
-0.333788
-1.43017
-1.47839
-0.740481
0.750013
-0.665088
-0.0849244
0.876289
-0.95676
0.0804711
3.26372
-0.0882045
-3.17552
0.118166
-0.367978
0.249811
-1.58729
2.19543
-0.608138
1.71619
1.53929
-3.25548
-0.50625
-0.095237
-1.01157
1.49151
-0.479935
0.765129
0.330566
-1.0957
-3.08582
2.02863
1.05719
-0.101623
0.0302822
-2.54812
0.499251
1.10058
-0.635936
-0.464646
1.22307
-1.6842
0.46113
-0.386817
-0.643281
0.350304
2.9995
2.48482
-0.496026
-1.9888
-2.38581
0.312842
0.999113
-1.7753
2.91075
-4.39477
1.48402
-0.386721
1.00792
-0.00507139
-0.998879
0.703094
-0.559484
0.769825
-0.831796
-2.87872
3.71051
2.22394
1.16117
-2.21459
2.37183
-0.15724
0.183836
0.312519
-1.54342
-0.492159
-0.440931
0.494525
-0.0535935
-2.14797
1.77625
0.371719
-0.460878
1.83315
-1.37227
-0.327541
1.55061
-1.35442
-0.491993
1.84641
-2.51392
-0.752961
3.26689
1.23517
-1.11126
-0.123906
-0.936499
0.0642443
0.872255
-0.121365
-0.189472
0.310836
-2.79371
0.131043
2.66266
0.0656259
0.704059
-0.769685
2.27605
-2.54809
0.272044
-1.30926
0.119027
0.64203
-0.761057
0.043311
-0.484242
-2.14918
-0.764353
2.91354
2.04715
-4.10793
-2.83829
2.48621
0.352087
0.645255
-0.107332
3.34036
-2.69161
-0.242571
-0.340212
0.582783
-0.0501474
0.647669
-0.597522
-0.251886
2.11109
-1.85921
2.11638
-0.591138
-1.52524
3.03675
-2.89672
-0.140031
1.92181
-0.65072
-1.27109
0.123189
-0.816118
0.69293
-1.02424
-0.0657519
-3.13365
2.71773
0.415919
0.114519
-3.24817
-0.802753
1.3601
-0.557345
-1.55964
-1.56857
0.754902
-0.58692
-0.167982
-2.38071
-0.674516
-0.701608
0.503991
0.197617
-0.390119
-0.0756796
-2.94948
2.81127
0.138205
-0.742035
-0.0462997
-0.134297
0.80496
-0.0700276
-1.62564
0.200422
0.610835
-0.64152
0.0306841
0.856154
-1.313
0.456849
1.37128
-0.156288
-0.678776
1.88398
-0.131929
1.08772
1.6445
-1.05976
-0.584737
-0.282891
1.31911
-2.06901
1.35957
0.709439
-0.0356312
-0.0659923
3.46337
-1.23943
2.2204
-1.8496
-0.439319
-0.4834
0.922719
1.57473
-3.6318
2.05707
1.82898
-1.8556
4.7025
-3.27906
-1.42344
-0.0224015
-1.75558
-0.313427
-1.32309
3.28177
-1.95868
0.36186
-0.919435
3.62613
-3.13002
0.749311
0.290544
0.253479
-0.3118
0.0172815
0.536485
-0.0158844
-3.44814
-1.95996
4.601
-1.81096
0.608131
0.436975
-1.04511
0.133165
0.814794
-2.26269
-1.166
3.42869
1.58649
-0.124249
-0.0201261
-0.526889
0.547015
2.46358
0.3057
-0.236124
-0.0695765
2.97474
-1.19705
-1.01819
-2.85131
0.48628
-0.795591
0.0516294
0.743962
2.04894
3.03759
-2.07273
0.300322
1.77241
2.90267
0.134083
1.93861
-2.71046
0.771843
-2.41244
0.0132305
2.39921
-2.57525
3.26754
-0.692283
0.520591
-0.0224548
-0.498136
-1.95214
3.99929
-1.19695
0.623957
0.572993
0.134701
-2.34929
2.24492
-1.415
-0.829918
-2.73543
3.56263
-0.827196
-0.666838
1.8274
-1.16056
3.48703
-1.54455
-1.94248
0.132543
-1.77361
1.64107
0.0927072
0.0729943
-1.2586
2.97479
0.646026
-2.84021
2.57502
-1.16565
-0.65345
0.553671
-2.49509
0.0826466
2.84829
-1.32173
0.109261
-3.60477
1.01365
-0.0207228
1.71861
1.67731
-3.39592
1.64048
-0.54012
-1.10036
1.09134
-3.28931
2.19798
-0.629901
0.0306167
0.599284
-0.628596
-1.58471
2.2133
1.14847
-0.738299
-0.344296
1.16407
-0.819772
0.316925
0.582373
-0.899298
0.251605
0.503298
-3.05753
3.49907
-0.441548
0.788715
-0.15519
1.42462
0.701741
-2.12636
1.06161
2.01327
-3.07488
0.662449
1.42902
-0.0130276
3.20556
-0.0539495
2.38492
-2.33097
0.170922
-0.0842619
0.0194835
0.0393479
-0.0588314
3.01729
-1.99744
-1.01985
3.16709
1.5354
-0.199594
0.210047
-0.010453
-0.689584
2.28031
-1.59073
-0.0359159
0.66071
-0.624794
1.83677
-4.13341
2.29665
-1.20112
-1.32023
2.52135
2.28305
-0.478885
0.69838
0.942099
0.375827
-0.32278
-0.0530467
0.928656
-2.37799
-0.870382
0.270577
0.599805
0.639359
-0.0935244
-0.545834
-0.149423
0.24213
-0.136415
2.01806
-1.88165
-0.556022
3.22584
2.16476
-1.8802
-0.28456
2.03315
-1.5438
-1.35149
0.5727
0.778793
0.407712
-1.09132
-1.58926
0.511394
1.07787
0.251538
0.489282
0.456336
2.1756
-2.63194
0.89035
0.545451
0.383525
-2.89745
-1.69136
0.339452
1.35191
-1.18852
-0.679529
1.86805
1.68889
-0.898371
-2.50924
1.57976
0.744017
-0.574073
-0.169944
-1.60597
3.59829
-1.99232
-1.29157
1.53789
-1.92349
1.72785
0.19564
-1.55367
3.39918
-1.84551
-0.0657901
0.759497
-0.693707
0.829226
-0.883017
-2.44061
-1.15763
2.4238
-1.26617
-1.69099
2.23197
1.4481
-1.67971
0.23161
0.551494
-0.535284
-0.0162105
-3.17722
1.88978
1.28744
-0.142405
-0.177225
0.31963
-0.782177
1.74441
-1.9963
3.4971
-1.92237
-0.204748
-1.59745
-2.12211
2.06816
1.27555
0.054094
0.864205
0.289551
-1.15376
-1.15131
1.06448
0.0868314
0.73172
0.423157
-1.15488
0.833035
0.945491
-1.77853
-0.328825
-0.733495
1.06232
-1.98843
-0.735983
2.72442
0.758554
-0.20706
1.44019
1.5771
-3.24758
1.37213
1.87545
0.890546
-1.53501
0.644467
0.0251793
0.687674
-0.849802
0.162128
1.15529
1.62171
-0.78868
0.500465
0.711323
-0.588135
-1.76276
-0.385205
0.917354
0.402316
0.0819461
0.981898
0.110719
0.632478
-0.743197
-2.22811
-1.74881
3.97693
0.160236
0.215591
-1.41114
-0.199302
1.61044
0.268206
0.792905
-1.06111
0.0154574
3.32017
-2.13713
-1.18304
0.605759
1.87906
0.29462
-0.367734
1.92984
-1.5621
-1.57717
2.57588
-0.998702
-1.57472
-0.680511
2.25523
-1.53443
0.522856
-0.884866
-0.466627
3.01915
-1.40764
-1.61151
0.180343
-0.879098
0.698755
0.877105
0.345698
-1.2228
-0.616353
0.681979
0.115038
-0.684706
0.569668
1.24234
-0.0980452
-0.722689
-0.0371086
1.68954
1.32961
-0.758567
3.13701
-0.989459
3.80402
-0.49112
0.671463
-2.37603
0.801316
2.27071
-1.84173
-0.450003
-2.05766
0.470365
0.360773
-1.16353
1.93406
-1.91908
2.51029
-0.163976
-0.634696
-0.447951
-0.41752
-0.288296
0.705817
-1.02401
-0.133889
2.32117
0.402488
-2.72366
-0.136554
-0.749826
0.88638
-0.543088
2.34316
-3.28339
0.940232
2.43739
-0.16134
-3.60014
4.20455
-0.604412
0.638123
-0.579736
-2.53872
-0.638499
-0.660091
2.76221
-0.044484
2.18717
2.84045
-1.09836
-1.74209
-1.75833
-0.123436
1.88177
0.757282
1.27725
-2.03453
-2.14241
0.282089
-0.581922
-0.111812
0.693734
-1.43718
1.75167
0.531846
1.36692
-1.89877
0.341865
0.0684961
-0.410362
-2.67094
0.332106
2.33884
1.20844
2.28866
-0.936266
1.44801
0.473802
-0.522667
-0.366914
2.78316
-3.27039
-1.0577
0.966069
0.0916352
0.158813
-0.665063
2.00857
0.0367818
-2.04535
2.73579
-3.72525
0.00530219
-0.147659
-1.05538
1.11511
-0.0597345
-2.11014
-0.0390472
-0.111297
1.01232
-0.90102
-0.3158
-0.0463219
0.362122
0.477551
-1.55815
-0.88298
1.88209
-0.699621
0.1685
-0.543014
0.586325
-0.910917
0.817894
-0.00759889
0.0369436
-0.682884
0.650056
0.0328283
0.713827
-0.79138
0.077553
-2.12448
3.39045
0.294577
-1.70571
-0.19275
-1.01997
-0.169834
1.77192
-1.60208
1.083
-1.27295
0.14169
-2.17382
2.03213
-0.574212
3.30053
-2.72632
2.56645
-2.22121
1.42931
-0.0627994
-2.77549
1.90249
2.69852
-2.10273
-0.406503
-1.00522
-2.10898
-1.41207
0.568292
0.262599
-0.0139306
-0.248668
4.56436
-2.51542
1.52392
0.247062
-0.757052
-0.53936
1.29641
-3.31288
1.59493
1.71794
-0.349213
-0.225034
-0.248021
0.367048
0.56613
-0.305068
0.00837295
-0.8053
-0.391651
0.0503614
-0.418992
0.368631
-0.377744
2.69892
1.1168
-0.112745
-1.00406
2.9337
-3.28146
1.4875
1.79396
0.392141
0.984364
-1.3765
1.07649
0.255224
-1.33172
-1.72675
1.05991
1.19807
-0.189665
1.06677
2.64051
-2.92294
1.37099
-0.605857
-1.05354
1.98219
-1.86284
1.24168
0.621159
1.73261
-4.02301
2.2904
-1.95955
2.21308
-0.253528
0.977539
-1.26043
0.0407189
0.4315
0.803667
1.3397
-4.51404
1.93398
-4.35635
2.60956
1.74678
0.656018
-2.41435
-0.791138
0.0255887
-1.8593
0.366997
1.08567
3.11113
-1.1208
-1.99033
-0.37458
0.73146
-1.91998
0.57492
-2.66245
2.53901
-2.10998
0.740412
1.33917
-2.06599
0.750842
1.31515
-2.58694
1.01483
1.57212
-1.00327
-0.517134
1.2782
-2.99433
2.138
0.856332
2.08062
-4.03277
-2.94473
-0.112792
4.29731
-1.38656
1.1599
-0.731055
-0.428849
-0.0849196
-0.523268
0.608188
0.163295
2.23463
1.52065
-0.856838
-1.20915
0.34492
0.803555
0.494974
1.19602
-1.69099
1.28692
-0.73102
-0.0895893
-2.7214
2.81098
-1.01468
0.66344
-2.00411
-2.05246
-1.35683
3.40929
0.781992
-1.1369
-2.15896
0.660218
1.49875
-0.104799
0.1629
-0.0581017
2.67227
-3.50407
-0.287885
-0.767492
3.13421
0.336484
-3.4707
-0.0349303
0.643061
-2.52703
0.745961
1.78107
-2.69564
1.49452
1.02787
-2.60504
-0.971258
-0.0864462
-0.0540682
-0.0507306
0.451171
0.432419
-1.69448
2.29022
-0.595746
2.34898
0.152628
-2.5016
-1.41463
-0.0453062
-0.56692
0.13598
2.36875
0.46384
0.104564
1.15383
-0.252075
0.132555
1.47518
1.37132
-0.639595
-2.75276
-0.196718
-3.03923
0.370795
-2.81351
0.585573
0.620234
-1.20581
2.37002
0.10473
-2.47475
-0.392928
0.370473
-1.10122
-2.11296
-2.22571
-0.437178
-1.14771
3.88349
-1.01117
1.49892
-0.487753
-3.18278
0.954668
-0.984218
1.47919
-4.18562
-0.404951
-1.35284
-0.67208
0.792568
1.54706
-0.690905
3.20309
-0.440872
1.61098
0.0803826
-1.69136
0.248163
1.43707
0.893202
2.9377
-2.72329
-0.209421
-0.71246
1.0906
-1.35216
1.6354
-1.49173
-2.38688
0.740193
0.550079
-1.29027
-2.55314
0.0484102
-0.480637
2.3258
-1.84516
0.0525687
-3.6527
-1.83082
2.19425
3.92709
-1.86298
-2.06411
-0.194244
0.628362
2.01259
-0.665765
-1.34682
0.871126
-0.969172
0.0857647
-0.0662812
-0.334433
-0.143156
0.47759
-0.271105
1.13531
-1.97296
4.05358
0.00485284
-0.591773
-0.830977
-0.361969
1.19295
-0.34415
3.01642
0.527477
-0.178949
-0.348528
-1.18914
1.79414
1.05053
1.22978
-1.54131
-0.150051
1.73157
-0.674608
-1.05696
0.0433364
-0.172001
0.128665
0.386939
-2.05716
1.67022
-2.70011
0.474397
0.71386
-2.44393
2.81473
-0.0379608
0.909087
0.497678
-1.50884
-4.99102
2.55244
-2.84286
0.859804
-1.46466
0.282901
-0.8972
-1.69424
2.59144
-2.305
-0.126912
0.305095
-0.178182
2.61061
-2.2033
2.1562
-1.39891
0.252422
1.61537
-1.86779
0.292399
-0.874321
-0.625223
-2.15975
2.78497
-1.56637
0.524857
1.04151
-2.2992
3.52512
-1.22593
2.02914
-1.82346
-0.205685
1.56321
0.0239714
-1.58719
-1.32496
-1.9565
-0.925704
-0.225234
1.33953
1.46019
-0.0236669
0.361808
-0.338141
-1.98968
-0.53735
1.7145
1.5485
-1.59916
2.01234
-0.413182
0.0426131
-0.278737
-0.0628894
0.372586
-0.309697
0.862751
0.25405
-0.291214
-2.70312
-3.2025
0.698495
0.0455224
1.44533
-0.0624536
0.260313
2.02656
-2.28687
-1.45574
-0.169897
1.01521
2.0143
0.227387
-0.880345
-0.636707
0.542195
0.0945124
0.0124779
-1.06334
1.05086
0.267203
-0.0158383
1.99881
2.57079
-1.25939
2.12016
-1.45672
-0.397981
-0.796882
1.19486
2.10929
0.392006
-0.0937539
-2.08592
1.45733
1.39407
-1.73822
-1.14074
-1.92493
3.06567
-1.6248
-1.68808
-2.91371
2.90259
0.0111225
-0.296486
-0.768618
0.480322
1.65022
0.920574
1.1384
-0.137455
-1.00094
-0.339205
-1.07807
-1.83256
-1.03719
2.86975
1.48363
0.10286
-0.142907
-0.727475
1.61433
-2.71555
1.10579
-1.00671
-2.14329
3.16112
-1.01783
1.16418
1.0648
1.15229
-2.21708
3.00611
-1.66453
-1.34157
-1.84643
-1.53464
2.49227
-0.957634
0.126787
1.48419
-0.947335
0.909374
1.2224
2.26463
-0.716298
0.631378
0.0788806
0.0817393
2.69513
-1.51854
1.52854
3.03583
-1.31624
0.742064
0.574171
0.562886
-1.0022
2.03563
-0.0270544
0.565583
0.59432
-1.77441
-0.290712
2.06512
0.619307
-0.0537971
-0.56551
0.569191
0.114028
0.370795
-2.94605
-0.930519
1.09784
1.85265
-1.75761
-0.0950332
0.571657
1.15991
-0.524918
0.246284
0.930551
0.633382
-1.56393
-1.01985
2.9299
0.707552
-1.20143
2.6294
-1.42797
-0.539236
0.856161
0.0231783
0.318687
3.07368
-1.58502
-1.02369
-0.166741
1.24323
1.00215
-1.1949
-0.600473
0.534683
-0.848792
-0.49668
-0.0379135
1.08781
-0.550811
2.30193
-1.75112
0.00423451
-0.0659692
-0.643112
0.3029
-1.08095
0.15525
-3.21807
1.95899
0.842285
0.649221
1.34111
0.480743
-1.82185
0.362775
0.333638
2.00529
1.32319
-3.32848
-0.40987
-0.0285048
0.438375
1.0975
-2.43625
2.72591
1.20118
2.19475
-1.93444
-2.52521
0.230141
0.129101
-1.36856
1.23428
0.856208
1.69925
-2.55545
1.31646
-0.23346
-0.0687246
-0.950458
-0.365777
-1.50081
-0.851803
1.25952
2.07959
0.906353
1.49584
-1.4467
-0.0491341
0.632237
0.0178187
-0.201351
0.817004
-0.103177
2.13448
0.521386
-2.65587
0.481624
-0.431262
-0.748791
0.463909
0.284882
-1.09464
-0.0480307
1.14267
0.532137
1.74914
-2.28128
0.634334
1.05455
1.86331
-0.0562983
-0.855023
-0.0431478
-0.208927
-0.346788
0.807962
-0.461174
-2.43244
1.64217
2.37365
-1.81458
-0.559072
0.0524028
-0.494375
0.441973
2.28148
-2.4179
0.927104
0.556527
1.1316
1.02459
-0.488014
-0.00866635
-0.651951
0.510276
0.141675
-1.37896
-0.428425
2.99683
-1.54022
-1.45661
1.01308
0.0342471
-1.04733
1.36776
-2.13437
0.766609
0.428381
1.50759
0.179068
0.489605
2.37035
-2.85995
-0.197918
-0.454032
-2.23237
-1.01671
0.903964
2.40679
0.0053258
-2.41211
-2.4008
-0.486431
0.59715
0.245892
-0.0358444
0.883233
0.231878
-2.04359
1.58271
0.0212135
0.417729
-0.132086
0.337997
-1.20268
1.4551
0.0217638
0.865446
0.0999949
-0.181423
1.78492
-0.0331632
1.529
-0.740447
-0.433537
-0.631262
1.56181
-0.318668
2.35094
-2.03227
-2.17441
-0.37371
-1.47903
3.83667
-2.35764
-1.01842
0.00171146
1.01903
-0.177228
-0.0472322
-0.795406
0.842638
-2.37379
0.78877
0.490036
-0.467342
1.37242
-3.63511
1.6836
-3.6959
-1.49446
2.21285
-1.32642
1.59641
-0.963023
0.0309407
-1.53623
1.92317
-0.000296387
-0.506011
0.16074
-1.272
-0.422374
-1.61445
2.03683
0.763869
2.76615
4.56544
-3.04357
-1.52187
-0.671874
0.287566
0.749108
0.0637077
-0.812816
-2.2592
0.564719
0.671903
-0.0325447
-0.0188548
-0.439481
0.458336
2.3213
-3.80033
0.289167
1.24695
0.242335
-1.48929
-2.62637
2.3077
0.485306
0.122436
-0.607742
1.39593
-2.55356
-0.482842
0.00378645
0.479056
0.630942
-0.145636
0.00139543
2.07685
-1.4144
1.58237
1.55194
-0.917604
-2.88602
0.833558
-1.75452
1.59054
0.163976
1.84444
-2.98518
-1.52048
-0.826062
2.34654
-0.117563
1.34575
-0.934769
0.853603
2.87764
-0.426916
-2.45072
-0.00405252
-2.7487
1.36634
0.196879
1.35407
0.658514
-0.526737
-0.000151756
0.501007
-0.676853
-1.16653
-0.0639078
-0.0461428
0.110051
0.0167508
-1.98371
1.96696
-0.382985
1.17086
-0.787878
1.78181
-3.62925
1.84744
-0.0554245
-1.51254
-0.0791718
-0.181733
1.79008
-1.06801
-0.547599
1.6156
-1.162
-0.863492
1.37394
-0.823862
0.495564
-0.967606
0.472042
2.58023
-1.23912
-2.45779
-0.254928
-0.30511
0.560038
0.881283
0.382608
-1.26389
0.764311
-2.53538
1.77107
0.311343
-1.61941
0.459511
-3.19494
-1.54998
-2.4114
3.96138
-2.52829
0.0955583
2.43273
-2.74485
-2.15407
0.194525
-0.980092
0.965371
0.0147213
-3.74795
-0.860893
2.99538
1.20928
-0.555525
0.362525
-0.993787
-0.421488
1.47604
0.492728
0.368378
-1.19936
0.0559879
-0.495455
0.439467
-0.344921
-0.09943
-0.341772
0.394174
-1.0365
1.42864
-2.57595
1.23272
1.34323
1.77628
0.294089
1.16584
0.676821
-0.0575134
1.31057
-0.172176
-1.39703
-0.761937
-1.62913
0.508117
1.12102
0.346774
-0.414109
0.0673356
-1.3963
1.40878
-0.328703
2.09627
0.558581
-0.031104
1.16657
-2.32857
1.18028
-1.35533
0.175047
0.422796
-0.0498913
-0.262293
0.0237864
-2.57989
1.68269
-0.106657
1.11973
0.040301
-0.63221
0.591909
-4.09727
1.43622
-0.822275
1.11342
-0.598263
-0.0514917
-0.687197
0.738689
-1.67394
0.60594
-2.85579
2.56458
4.13825
-1.00404
-0.816975
0.762021
0.0549538
0.0886345
-0.0241536
-0.501697
-5.6878
2.95248
2.73532
-0.490023
0.461518
-0.140876
1.1522
-1.01133
1.31338
-0.386277
0.159493
0.0858303
-0.245323
-0.890625
0.912389
0.165015
-0.0169004
1.58939
-3.01409
2.73708
0.165595
-2.13901
0.195404
2.48931
-0.122886
-2.36642
0.00215579
1.00466
-1.00681
1.6638
-5.11193
1.03201
-2.43207
1.40006
-0.0929915
0.0203108
0.0726807
-2.59059
2.6662
-0.075619
-1.34071
1.4824
2.01128
0.105101
2.99589
-1.10869
-1.8872
-0.3959
-0.814661
1.21056
-0.614028
-0.990939
-0.0333013
-0.940226
-0.0507123
0.303941
-0.877809
0.573867
-0.273683
2.52984
-2.25616
-2.1546
0.493322
1.66128
0.709255
2.16875
0.0315436
0.278904
-0.310448
1.631
0.697315
-2.32831
0.166581
0.0960179
-4.18359
4.17155
0.0120377
-2.06358
0.289179
1.66227
0.731461
-2.25194
-0.00635116
-0.375706
0.382057
2.76214
-0.886532
-1.87561
1.20251
0.712265
-5.27315
3.31319
2.42639
-2.51598
-1.32189
0.116579
1.20531
0.0829583
-0.45712
0.185173
0.271946
-0.0262648
-0.122559
0.148824
-0.0278907
0.41575
-0.387859
-1.33504
1.3317
0.00334175
-1.60729
3.22162
-0.922401
0.859473
0.789584
-0.93046
0.960899
-1.64146
0.680558
-1.10599
-0.756847
-0.276404
0.155039
0.121727
0.0422519
-0.163979
3.38285
-2.23735
-1.1455
0.135176
1.71747
-0.73967
-0.411642
-1.70781
0.346018
1.60467
0.894133
-2.4988
-0.0478977
-0.0229147
0.0708123
-0.0274712
1.10962
0.805548
-0.139723
-0.665825
3.65233
-2.25662
-1.39571
-3.752
0.873287
0.0724493
-2.4079
2.10661
0.301293
0.387581
-2.29927
1.09139
-1.229
-0.174272
-0.0880209
-1.01104
2.26893
-1.25788
0.491174
0.0749562
-0.267576
-0.92392
-0.733998
0.738851
-0.31463
-0.0533479
-2.05544
3.28285
-1.22741
1.72618
-1.39165
-0.334531
0.336649
-0.0694467
0.766862
0.155943
-0.733425
0.598693
-0.295613
-0.934902
1.45138
-2.04252
-2.38453
2.87413
-0.405234
0.215763
0.435137
0.195805
-0.0835205
-0.00947093
2.2416
-2.33778
0.0961835
2.98918
-1.27502
0.718083
0.556938
0.360498
-1.07296
-1.91126
-2.4533
-0.753926
0.700129
-0.503271
-0.836284
1.33956
-2.2607
0.569709
0.350803
0.762726
-1.11353
-1.04187
-0.524506
-0.323468
-1.1799
3.19318
0.421648
-2.46551
0.627984
-1.57827
0.950283
-0.838551
1.06594
-1.7664