/*--------------------------------*- C++ -*----------------------------------*\
| =========                 |                                                 |
| \\      /  F ield         | OpenFOAM: The Open Source CFD Toolbox           |
|  \\    /   O peration     | Version:  2306                                  |
|   \\  /    A nd           | Website:  www.openfoam.com                      |
|    \\/     M anipulation  |                                                 |
\*---------------------------------------------------------------------------*/
FoamFile
{
    version     2.0;
    format      ascii;
    arch        "LSB;label=32;scalar=64";
    class       volScalarField;
    location    "9.7";
    object      p;
}
// * * * * * * * * * * * * * * * * * * * * * * * * * * * * * * * * * * * * * //

dimensions      [0 2 -2 0 0 0 0];

internalField   nonuniform List<scalar> 
13486
(
1.54293
1.66422
0.00545155
-8.60666
-1.5319
0.493403
-1.56982
-0.725465
0.235778
1.35809
-2.2077
0.209439
1.58548
0.67806
-0.851419
1.40687
-2.06774
0.525734
0.18406
1.43846
-10.2066
1.53694
1.64168
-3.69714
1.25695
-3.61749
-2.35372
-0.83617
-0.00587426
-1.60008
-5.86178
0.0389075
-0.932131
-0.923938
-0.694105
-0.00417681
-0.141455
0.51717
-0.128797
0.49657
-4.80337
1.70383
-0.0355394
1.21728
1.20474
0.208609
-2.56124
-0.00681171
-0.137462
-0.23047
1.2404
-0.207325
0.318515
0.625552
-0.0658723
-1.39645
-0.389633
-0.193711
-0.936216
-0.164739
-2.39113
-0.176074
-1.08668
-10.2526
-12.887
-0.153017
-7.29548
1.80975
0.189316
-0.0966548
-7.19559
0.134631
0.705185
-1.40735
-0.185625
-0.347704
-0.184531
-0.953201
-2.51309
-0.406466
-0.00228891
1.76521
-1.18634
0.0444732
1.5373
1.77994
0.128626
1.23391
1.38867
1.55112
0.401223
-0.972704
1.32488
1.54131
0.102705
-0.00518382
-2.36723
-6.01656
0.472856
-2.24803
0.0162328
0.728446
-6.11495
-0.192696
1.91845
-2.31952
1.18697
-0.127834
-2.54765
-1.61785
-0.333366
-0.203612
0.632564
-0.308837
2.20282
-0.163287
1.27664
-0.87634
0.716995
-0.130005
0.575881
-2.31555
0.285961
-0.134378
-0.233218
-0.190799
-0.13604
0.865829
-0.838602
-11.2233
-0.189428
-2.61131
-1.98854
-1.15754
1.24253
1.42408
2.75722
-1.49803
-0.124504
-0.4847
-0.675916
0.335264
0.207569
-0.411511
-0.118491
0.349064
0.0822236
2.43976
-0.274317
-0.00302358
1.13918
-1.44055
-5.73143e-05
1.80953
0.957939
0.00180217
-2.18868
-4.71844
0.180791
-0.0584118
0.0345405
0.18962
0.664537
1.68645
-0.208258
0.500801
0.791493
2.76578
0.069013
-1.16846
-2.17404
0.960624
1.20089
-0.138288
-0.00769194
-6.03352
0.678163
-0.657342
1.16588
0.202978
0.260482
-0.274447
-0.0243473
-2.43032
0.0817963
-0.779142
-0.00037335
-1.18621
-4.4134
0.010633
-0.138498
-0.0815434
-0.223518
2.1888
-0.276957
-2.19645
-11.8169
-0.0157039
0.885423
0.540719
-5.82215
0.854013
0.522217
-3.04544
-0.0692434
-0.297262
0.0555504
0.986705
-0.208702
0.0808878
-0.980058
-6.24737
1.42693
1.19507
0.500023
-1.74339
-1.4913
1.53883
1.12156
-0.592118
-2.11536
-0.271709
-0.396018
-0.0214915
0.346091
1.22128
0.357586
-7.77967
-0.861469
0.109927
0.2589
-7.72982
-0.711643
1.7903
-7.67083
1.04807
-1.08336
-0.072034
1.08791
0.0858388
-1.07345
1.19153
-0.168439
0.852979
-0.081325
1.33152
0.146756
-2.72987
-1.19857
1.26214
-3.53883
2.25837
-0.294353
-0.137041
-0.558459
-5.67437
0.108764
-1.7727
-4.08835
-1.21811
1.49691
-0.0796502
-0.747052
-5.50985
-1.8958
-2.41394
-0.843896
-7.3307
0.721747
0.573643
1.89891
1.22095
-1.49493
0.253776
1.22575
-2.47961
-0.543486
-3.82222
-0.150696
0.108391
-4.26515
0.194582
1.22392
-1.76464
-2.27398
-2.49342
-0.529618
-0.833794
0.323196
0.75635
-7.92511
-0.0842275
-0.044203
1.24309
-1.06144
-1.14357
0.0149562
0.228034
1.19918
-3.15397
0.72141
0.0696899
0.0850883
-0.0247152
-0.119949
-2.94302
-9.26498
0.149954
0.100068
-0.141671
-1.14981
-8.87189
0.84093
-0.11506
-1.30682
1.45089
-0.0840841
1.40669
1.02408
-1.02067
-0.149883
-0.0876221
1.17543
1.57954
2.6954
0.352291
-0.554249
0.1613
0.173351
-0.680788
1.23467
-1.11065
0.483237
1.96806
-1.83522
-0.0241051
2.19274
-1.45211
1.18532
-0.0723613
-0.891352
1.58736
-0.779807
-0.0611516
-2.39092
-0.00601728
-0.0380244
2.04259
-0.627268
-0.0788971
0.113519
0.209666
0.24549
-2.35697
1.19196
-0.0616483
-1.43838
-0.123311
0.0821861
-5.66687
0.169242
0.444583
1.42521
1.22384
-1.60835
0.00119755
-1.13451
-2.85264
1.467
-0.0781565
-0.0356553
-0.00284837
0.309268
-3.23787
0.611558
1.24286
1.2282
-0.0745338
-1.1248
-1.01052
0.669942
-1.31277
1.8074
1.93447
-2.71152
-0.588766
0.692959
1.17506
-1.18813
-6.46083
1.37868
-1.40253
1.05332
1.20728
2.03217
-0.13205
-8.23125
-3.23924
-1.41747
-0.6198
-1.24222
1.27079
0.463833
-10.5055
-1.41227
0.254743
1.51835
-0.707232
0.0671766
1.62689
1.14612
0.556651
-1.19879
1.21341
1.21855
2.15827
-2.48625
-1.86083
-2.48335
0.0680503
1.17395
0.320356
2.06629
1.20634
0.223261
-1.18641
0.869269
1.239
-2.35837
0.85126
1.54775
0.483371
1.04357
0.289437
-2.32317
-2.23353
1.8445
-0.0798495
-0.117901
1.7837
-2.15935
-1.40748
-1.10889
-1.28069
0.0424251
0.823913
2.08253
1.58579
-1.13735
-0.127467
-2.38269
1.19633
1.42502
-0.230781
0.172599
1.25592
-3.34442
-6.52505
-1.98544
0.147451
0.899327
1.09891
-0.00881317
0.85212
-10.1015
1.33421
-0.0054897
2.52251
1.27065
0.584623
-0.964276
-0.00821894
-0.00356628
2.16319
-0.578109
-0.124647
0.223436
-0.0141097
-2.53008
0.229286
1.20908
-0.077104
0.377588
1.65443
-0.507718
-1.62296
1.17609
-6.22939
2.75607
1.18228
1.2482
1.19801
-5.61864
0.106543
2.36697
-2.11816
1.53578
-2.97114
0.898739
-7.25221
-0.365338
-0.0499451
-2.51833
1.43196
-0.236301
-3.67543
-0.0012365
0.45099
2.0191
0.805165
-0.561938
-0.167337
-0.0234246
0.417552
-2.12734
1.24232
-2.30978
1.79172
-0.198122
-0.0964626
1.73487
-1.37498
-0.0235928
0.142552
-6.89429
-3.79941
0.138057
-1.76598
0.345962
1.31338
-2.29971
-2.26559
-2.30136
-0.00592068
1.0741
0.886171
-2.46607
-5.80117
0.42676
-4.0243
-0.560816
-12.7485
0.191083
-0.163287
1.92789
-0.291598
1.4367
0.26691
-3.0292
0.0701799
1.03951
-2.33968
0.891813
0.0901043
-2.54866
-0.170909
0.615541
-1.42712
-2.32513
1.24683
1.2168
1.04347
1.59079
0.0970541
1.20099
0.879506
1.05913
-0.122424
1.11246
-2.35931
1.23749
-0.261148
-0.830707
-2.52258
1.14596
-2.04657
0.233994
2.03016
1.48528
-7.74381
-2.76479
1.00784
0.373835
0.52573
1.47834
-3.48134
-2.24069
0.642134
1.3748
0.794224
0.877261
-8.19613
1.51527
-4.61452
-0.254147
1.24709
-1.03132
-0.362631
1.18807
-0.780831
0.143628
0.154829
1.01444
-0.151009
1.46595
-0.140428
0.222555
0.25048
0.390121
-0.47691
2.0167
0.91325
1.98381
-7.5749
0.841907
-0.00995446
-1.46005
-1.885
1.24996
2.19771
-12.2014
-1.39868
-0.646599
-0.747793
1.24787
0.41888
0.576173
0.360081
-2.32907
-2.36404
-2.46344
0.882064
-1.19824
1.17781
-0.00573035
1.75756
0.415172
-0.0805097
-3.05589
-0.957685
0.942234
-2.20459
0.748259
-2.44029
1.01519
-0.000563693
-0.411362
-3.40074
1.78763
-0.00423565
0.733759
1.67747
1.24321
-2.57501
-0.244283
0.0246359
0.718036
-0.37083
-0.160124
-9.07355
1.00442
0.535317
0.92697
0.37193
1.73537
-0.22646
-6.74275
1.15067
0.144834
0.426327
-0.550938
1.2135
1.0973
-2.52518
0.0905916
-0.0777353
0.206056
1.07422
0.937399
0.167194
0.0598387
-5.43479
-0.345489
1.56332
-0.115705
-0.457091
0.448309
1.91549
0.720471
0.426629
1.98349
-0.0315101
-3.47983
0.803796
-1.85544
1.42993
-0.115065
1.23895
-11.3951
-1.21048
-5.238
-0.00392158
-1.82645
1.17194
2.1103
-1.9441
-0.146781
0.311155
1.59511
0.471206
1.06715
-3.11654
2.24296
-2.5547
0.141347
-0.296622
1.2023
1.38159
1.3513
-0.840625
-10.2902
1.68222
1.27203
-2.30667
0.527287
-4.36915
-0.127361
-0.56145
1.16593
-1.13702
-0.484555
1.47488
-1.16575
-0.172442
-0.852009
-3.81672
-1.98266
-0.141512
0.958944
1.4632
-7.057
0.100215
-2.65013
-10.529
0.144114
-1.21257
0.445767
1.23888
0.774502
0.149799
0.503545
-1.91938
-10.3371
-0.794819
0.209382
-6.82143
-5.5204
-0.0826315
-5.29375
-0.405744
1.60366
-0.132139
-10.018
1.68491
1.47624
-7.23872
-11.09
0.0507262
-2.60353
-0.135109
0.397985
0.767208
-1.43353
-1.68804
1.10355
1.20512
0.258277
-5.69945
-1.78936
0.532391
-0.126884
1.38231
0.185993
-6.37309
1.60905
1.38642
-2.43386
-5.28279
0.244771
-3.31878
0.273913
-0.117189
-1.48033
-6.01984
0.556255
1.17598
2.00573
0.90656
0.409154
0.604636
1.17508
1.38887
1.10638
0.16592
0.983549
1.95341
-1.24421
-0.0897782
0.783126
-0.75172
1.8406
0.111943
1.26928
0.2066
-0.502829
0.192328
0.560558
-0.343688
1.32308
1.80557
1.20687
1.12898
-1.31487
0.369676
-1.11217
-1.36135
-0.222627
0.748523
-0.120967
-7.153
-2.65188
1.12749
-1.36768
-1.19346
-1.22615
-5.25938
-1.14665
-2.21592
-6.94948
1.06991
-7.2638
1.50771
-7.9414
-1.21567
0.400033
1.12174
-0.201052
0.78199
-3.97734
1.38265
-1.76001
-0.824051
-0.294894
-0.123035
-5.30811
1.24976
-0.473931
1.16461
-0.0833848
0.0336311
-2.37132
-0.146396
-0.0614197
0.831905
-0.564002
-2.22358
-8.83249
1.5106
0.536943
-7.17061
-2.22963
0.975221
-5.37188
-0.0869582
0.188563
-0.796537
0.314206
-0.599543
-12.4592
1.59179
1.25185
0.565707
1.07754
-0.101467
-2.08489
1.26277
0.602191
0.459041
1.46909
-0.462124
-0.134019
-0.688259
0.589807
-0.121376
1.31862
1.03033
0.322544
1.20863
0.335201
-0.07604
2.14829
0.558181
-0.543842
1.20342
0.19148
-0.13312
-0.78634
-10.1974
0.942724
-0.210648
-0.0342956
-0.121357
0.755823
0.698183
-2.61723
0.000889334
1.20421
0.209717
1.94854
1.37247
1.06899
0.187826
1.42393
0.182301
-0.0500225
-0.871968
0.533945
-10.4089
-0.836644
-1.65574
-3.05905
-3.34316
0.818129
-0.307722
-1.73561
-7.49143
-10.4286
-0.0744531
1.2852
-0.0329006
0.438698
-1.28872
1.21551
2.00458
0.228473
-1.68018
1.19258
-1.50177
0.864936
-0.0677163
-0.0910469
0.715606
-0.249067
1.74431
0.165537
1.18487
-1.29229
1.21663
-0.139116
1.3951
-0.195384
-1.33159
0.700544
-11.8784
0.193784
0.22223
-6.82634
1.55817
1.21919
1.48937
1.28491
1.48032
0.849566
-1.12361
0.172002
1.23891
1.14814
-0.76778
0.350192
-0.508564
0.419139
0.24274
0.253352
-1.19026
2.56952
0.128073
-0.192037
2.0304
1.51031
-0.845966
-10.2147
0.566072
1.1634
-4.73129
-0.00466342
-1.1189
0.334666
1.18628
1.15648
-0.0991104
0.200196
1.21437
-0.000642166
0.0700648
1.36646
0.118462
-0.131119
-2.24536
0.0390592
-0.326507
1.33603
1.74841
-0.122845
-2.60904
-2.23121
0.191522
-0.135513
0.188862
1.79782
-0.176524
2.38619
0.843574
0.197797
1.00231
-2.55075
-1.50179
-5.31409
0.954825
-0.109024
-1.06366
-5.48375
1.09534
1.26078
-0.0733572
-1.38285
-3.07371
-0.90025
0.545275
-0.0774706
0.158003
0.182603
0.969993
1.21473
1.45499
0.457999
-0.854517
-1.07011
-0.514172
0.0745935
-8.50187
1.15191
0.127692
-6.2413
-0.106375
-0.121062
0.777568
-3.34257
0.193435
1.22986
-0.0188057
-2.40368
-0.0600161
-0.179887
-2.03903
0.242326
0.211953
0.207092
1.21385
0.705195
-1.13199
1.24159
-0.139163
1.38725
0.938514
1.12931
0.724896
0.55969
1.76798
2.42351
0.396895
-2.00001
1.23165
-0.0866483
1.77026
-0.881302
-0.964991
-3.13711
0.220308
0.332435
-1.68032
1.2053
0.793049
0.301802
-3.62057
-0.853658
0.516835
2.11897
0.109041
1.28403
-1.47835
1.31204
1.76621
-0.604164
-0.229888
-6.04655
1.64684
0.153511
2.32148
0.0586093
-0.568957
1.10303
0.240467
-2.35275
-1.14382
0.71469
1.44208
-0.0132082
-1.80142
1.49672
1.42039
-0.325061
-0.782187
0.0306127
0.908162
0.358554
0.697895
1.07271
0.175774
-2.12545
1.24538
-0.372255
-0.740606
-0.65943
1.39369
0.692374
-1.6318
-10.4587
0.000824812
1.25389
1.60627
0.144366
0.763801
-0.347609
2.14891
-2.42717
-0.62878
1.79029
1.24112
0.356159
-0.0144003
-7.87765
-0.812003
-4.18557
-2.44509
-0.0822281
-5.01469
0.659716
-2.14042
-2.41492
-1.86839
-0.808398
-2.30608
-1.31252
-3.34732
2.04496
1.33942
-2.26342
-2.95198
0.147178
0.894251
-0.826738
2.37202
-1.00694
-0.388111
1.24653
-2.30047
-5.00086
-0.823447
-0.930058
0.801262
2.48099
-0.00523686
-0.573564
-3.96953
0.0908066
-0.831394
-0.306614
0.333169
1.26107
1.44602
1.22058
-6.74956
-0.298871
-0.133199
0.122668
1.16521
0.0168745
1.27487
2.25745
1.90851
-2.1929
1.2457
1.38302
-0.373413
1.00218
-0.140409
1.86204
0.964627
0.668114
1.40893
1.14455
-0.6289
-0.120193
1.45633
-0.980825
0.241232
-1.30708
-1.37633
0.47638
0.886484
-0.129001
0.268149
1.71485
1.69219
-0.522134
-1.13383
0.184548
-5.50688
-0.486749
1.41053
1.31306
-1.11405
1.16323
0.121922
0.0601667
0.148747
-3.55061
-6.1896
-0.118709
2.48054
-0.689176
0.0199027
1.59839
0.463034
-0.327945
1.10916
0.227821
1.26009
-2.98213
-1.22943
0.167247
-0.63495
-1.05534
-0.769327
2.06225
1.50299
0.577717
2.47799
1.60592
-0.734421
-0.155092
-0.102539
0.0381822
1.7369
-6.21657
0.576941
-0.013672
-2.63958
-0.829135
0.98142
-9.98913
0.06892
1.38182
2.50503
-2.34942
0.109542
0.33034
0.25712
0.00432513
-7.66341
1.64777
0.970619
0.176779
0.948416
-2.70558
-2.58194
-2.5056
1.90344
-0.296305
2.29922
-7.24916
0.72886
-1.5925
-2.20831
-1.32931
0.491806
-0.170969
0.983072
0.150443
0.969494
-7.00113
-0.000883632
-7.32799
-1.1291
-0.694078
-0.917817
0.135223
-0.363797
-10.4238
-2.34973
-0.0680114
0.00664768
2.07935
1.23153
0.0098047
0.141855
2.87715
0.549235
-2.38794
-0.0100433
0.588532
1.27437
0.277896
1.26632
-0.375866
-0.424432
-0.941368
-0.000499684
0.189534
1.66022
-1.14967
-2.48128
-2.34332
1.94663
-5.91257
0.193038
1.12568
-8.19408
-0.298755
-0.114613
-2.27043
-2.31229
-0.0922504
1.23056
0.56131
1.1113
-0.737802
-1.17386
-1.52632
-2.53068
-2.04682
-0.842376
0.40965
-5.79241
0.0684688
-5.97742
-2.34076
-2.84397
1.47084
-9.82025
1.98631
-2.35396
-1.78217
-0.140606
0.488959
1.16005
-0.318245
1.73199
0.176497
-3.77438
-2.19758
0.934183
-1.10406
1.21732
-0.084278
1.8667
1.29624
-0.0901777
0.969163
1.74131
0.360836
0.961894
-0.721877
-2.63056
-0.0183038
-1.79447
-0.150552
-1.07045
-1.36838
0.0138922
-2.1582
0.191165
-0.134657
-0.592689
-1.09251
-0.953317
1.85301
0.0728462
-0.00467495
0.220854
1.23612
-10.3089
-0.0108682
0.442866
0.271495
-0.055926
0.403433
-0.0441875
1.23174
1.24218
0.0498151
1.31716
1.35332
0.596016
-1.97083
-0.182851
0.946721
0.115207
-0.33793
-2.69506
-7.49586
-0.575972
-8.01429
0.028318
-0.157198
-0.427584
-1.12349
-0.234423
-3.48546
-0.123527
-6.31497
1.01161
-2.34088
1.23961
2.80868
1.05588
-7.10752
1.11141
0.831609
0.185529
-0.0190488
-2.02823
-8.3409
0.109316
1.0036
-0.00277623
1.6488
-0.00527848
1.24203
-0.470145
0.00460796
-1.78422
-2.03641
2.4185
-10.2418
1.26196
1.23132
1.25453
0.108215
0.965193
0.0204607
-1.49942
0.254746
-2.34875
-2.80233
0.99087
1.24152
-0.826712
0.979288
1.39757
-4.88055
-12.5736
-0.428194
-0.129927
1.40221
1.12632
1.43454
-0.301824
0.371149
-1.10873
-0.733779
-2.1785
1.44531
2.25766
-2.24251
-2.27509
-1.9309
-0.239767
0.0834698
0.0925531
-2.37691
0.43165
-0.294218
-8.73816
0.0438993
2.54062
1.08378
0.509618
-6.77468
-4.44886
-2.70967
-1.61975
-2.61771
-2.53797
1.59208
1.12571
-1.04656
2.30067
-0.0112908
-2.21461
-7.25038
-2.7774
0.40027
-1.12207
0.976036
0.204405
0.0740956
-1.86921
-3.24418
-2.40461
-7.34285
1.45315
-3.27187
-0.125566
-2.37992
1.23372
0.995671
-5.7006
1.16356
0.780599
1.43661
1.77694
0.382227
0.213215
2.52179
-2.43237
-0.061793
-2.43223
-4.82513
1.63128
-7.07109
1.9816
1.09376
-0.418789
-3.15791
-2.88839
1.37633
-7.90329
-9.72704
0.0425814
0.381771
0.455425
1.17532
0.79091
-0.488621
1.94492
-1.19616
-3.2758
0.881641
-0.100614
1.37867
-4.55606
2.78114
-0.138042
-0.147828
1.40691
-0.237745
1.24118
0.323501
0.71251
0.306329
0.639707
-0.769202
0.480464
0.182083
-9.20276
-0.0334503
0.221966
1.00808
1.02354
-10.6443
-0.00584865
-2.37034
1.16136
0.484477
-4.79099
1.30951
-7.32737
1.24042
1.27114
-1.98684
1.54582
-10.5032
2.39653
0.485557
-3.92041
-0.00434619
-0.163117
1.39474
1.37303
-4.77663
1.07218
1.34035
-1.98529
-0.102355
0.171439
0.614495
-2.07409
-2.14349
-1.24854
-7.06876
1.22474
-2.85671
-4.62312
-2.25523
1.45145
1.12199
1.49232
-2.94313
1.10551
-0.344285
0.0551029
1.13438
-10.4832
-10.7778
1.93178
0.30071
-0.800616
-0.998005
-2.6654
-6.36301
1.27811
-2.06318
-1.10438
1.38733
-0.502096
1.09729
-3.26679
0.0976812
2.18085
-1.16062
1.44622
0.0890028
-7.28926
0.972124
0.182874
0.794055
2.17508
0.621405
0.24079
2.32972
0.988716
1.54189
-2.55083
-2.88433
-1.71255
-0.507419
-5.3588
-0.215131
-0.308467
-0.386965
-0.0645914
0.150537
-1.00984
-0.579037
-7.85685
-1.08406
1.54961
-2.23655
-0.0933956
1.17923
1.22294
-0.351753
-0.0779361
-5.64017
-1.70851
-3.63906
-1.20425
1.5573
-4.47017
1.4094
-2.61121
1.24074
-1.57418
-0.119309
-2.41906
0.730121
1.15443
0.865158
0.110849
1.03378
0.255382
1.17619
1.82957
-5.07491
-0.461917
-3.96529
1.32065
0.713886
-2.73476
-0.664259
0.636396
-0.5018
0.011982
0.273148
-0.833315
0.729862
1.15864
0.689657
-0.121091
-5.79278
1.63477
-4.65422
0.885235
-0.00318044
1.25763
0.795282
1.15238
0.21439
-3.32935
-7.06932
-0.099105
-2.1422
-6.75169
-9.99388
0.473853
-8.53802
1.29815
0.595141
1.23602
-4.51173
0.29638
-0.900139
-0.13439
0.777889
-2.31918
0.520292
0.191189
-8.7358
-6.62838
-4.49361
0.214731
1.31573
-0.118455
0.217061
-1.50315
0.344238
-1.37669
0.081414
-2.42851
1.1647
0.112125
-0.073998
1.05009
0.367957
0.883138
1.47494
1.83021
-1.21884
-0.102544
-4.11993
-0.372784
1.17415
0.190503
-3.82539
-4.30663
-3.32471
-0.687224
-0.0329011
-4.07832
2.45056
-0.843705
0.682098
0.0829252
-10.295
-0.18116
-0.0339297
-0.246793
0.776748
0.221439
1.30664
-0.104862
1.18597
-0.971203
-2.95261
-10.8049
-0.278136
-4.24826
0.573388
2.12798
1.12085
-1.9429
-3.73969
1.3884
-2.36725
-1.35641
0.0353483
-0.457598
-6.16054
-3.8443
-4.89862
-1.02215
0.112593
-0.229434
-0.361381
0.186779
1.28783
-0.384686
-0.682518
1.35983
-0.164502
-2.18758
-0.0923579
0.390542
-0.00460677
2.3602
0.028616
-0.0775913
-0.250665
0.0205924
-0.352947
0.306427
-0.244773
-0.283668
0.0917374
-0.666399
-0.021128
-1.28967
1.41291
0.30991
0.843365
-3.40879
-0.98642
2.1868
-10.8202
0.68955
0.571999
0.88425
-0.231376
0.117921
-2.1954
1.17002
1.30314
1.24691
0.536859
-6.36497
1.34161
0.787958
1.77856
-1.04466
1.32951
1.34143
1.30001
0.30723
-2.52609
0.959331
-2.75138
-0.770373
1.09984
0.898879
0.716415
1.43375
0.220093
1.64112
0.410544
0.693158
0.567247
0.0941429
0.0463057
1.23277
-0.0248002
1.13337
2.32798
1.27467
0.260506
-0.654948
0.102843
1.2429
-0.135876
-1.49164
0.251703
-0.0177448
1.25597
-5.35946
1.51143
0.90446
2.92209
1.91018
-1.14517
-1.65449
-0.275946
0.687857
1.90219
0.0598638
0.589801
-0.377374
2.59154
1.20115
0.0674594
2.4661
-0.0358399
0.994035
-1.03104
0.605153
-0.33958
0.272148
0.713369
0.977656
-0.175974
-2.43681
0.185772
-4.16386
-0.07789
-4.38835
0.0301436
1.93375
1.39811
-0.0822802
-2.63113
-0.826604
0.755918
0.292154
0.211063
1.16645
-3.19869
-2.25508
-9.29935
1.27331
-0.961277
-1.75235
1.31552
-0.471885
0.108031
-0.57312
2.22843
-9.71105
1.41193
-3.18483
2.40152
-2.19436
0.11672
-0.138246
-0.135393
0.365146
1.20939
0.37299
-1.508
0.422314
-2.09687
1.16974
0.474756
0.62645
-10.1096
-1.21749
-3.38803
0.576503
-1.50532
-0.0903222
-0.28586
1.21968
2.28487
-4.02107
-0.0287747
0.125969
-0.705573
1.11361
-0.0768903
-1.28805
-1.34898
-3.17543
1.0244
-7.21407
-1.01472
0.111728
-0.276403
-12.5967
0.777781
1.22333
0.844488
1.24024
2.12496
-2.32247
2.53032
-1.64948
2.29863
-5.19525
-0.16637
1.97627
1.06513
-10.4158
-0.216164
-0.184682
0.13724
-10.4023
-2.29033
0.205979
-1.22183
-1.82697
-0.00807776
-0.628338
1.03076
0.567704
-6.34702
1.06169
-0.926969
0.235132
-9.63253
-0.130378
0.763081
-10.4129
-0.579293
2.17081
-0.0896378
2.21246
0.157238
-2.33075
1.06392
-0.00566356
-0.147891
1.2383
1.05335
2.45651
1.25273
1.4295
-1.38481
-1.20535
2.37807
2.30159
1.36073
0.0846323
-5.96299
-2.74444
0.255018
-0.890426
-0.0960979
1.72166
-5.53916
-0.117579
-2.06635
2.28065
0.711381
0.746719
-7.38257
-0.121393
1.46737
2.70994
2.52714
0.435816
1.07941
-0.708048
-1.46529
1.21723
2.57872
-1.65146
-0.155134
-0.699154
-0.00757364
0.250427
0.457919
0.285221
0.176831
0.409468
0.16845
-0.177889
0.982521
1.24932
-3.6064
0.852493
-7.204
0.201937
1.82353
-0.809535
0.373211
-3.17951
1.09147
1.13204
-5.12188
-3.89751
-0.0807945
0.484855
2.80289
-1.58451
-0.338886
-8.14177
0.342482
-2.64929
-3.30921
-6.15745
-0.451023
-0.0811823
-1.21191
0.0461
-1.64434
1.10662
-0.0207033
0.718031
2.68936
0.808013
0.1887
-1.09978
0.823563
-1.08862
-1.28951
1.8414
0.982116
0.186659
-1.04828
0.692476
0.969862
-0.827936
-3.64837
0.0149129
1.87088
-0.58632
1.24226
0.660298
1.56538
0.259351
-7.2733
0.694593
1.15804
-0.854654
1.29723
-0.0298871
2.4097
-6.81158
0.372948
-2.21361
1.25122
-5.35838
-0.299801
-6.6049
0.157381
-2.68971
-6.86473
-10.3828
-0.330881
0.40919
-5.70885
0.0151086
0.355085
-2.81381
0.06203
-6.44431
1.1417
2.28783
-0.208392
-1.07139
0.0738048
0.11291
0.357113
-0.393536
0.158901
-2.40907
0.0432203
-2.54118
-2.72702
0.693105
0.459169
-5.79745
0.0991112
0.149024
1.22948
0.38015
-4.76777
0.376773
-0.140906
-1.43078
-0.31444
-0.562568
-4.68757
1.54466
-5.75958
-2.01388
-0.881162
-0.386471
-2.33109
-2.36481
2.92196
-0.0366497
-0.926943
1.26704
2.28782
1.83
-7.60177
-1.02449
1.19489
-0.11661
0.0584876
2.28921
0.0572487
-0.680061
2.87979
0.522488
-3.08148
0.808592
1.7638
1.22194
0.0575742
1.89263
1.20947
-0.718832
-0.104798
1.08415
0.229031
-1.41721
2.10605
0.840426
0.382924
-0.176237
-4.58937
-0.237682
-7.39871
-1.25877
0.272423
0.30711
1.32362
0.329825
-2.37409
1.92326
2.00385
-0.155249
0.124084
-0.469584
-0.055136
0.291898
1.19266
-7.09054
-0.373129
0.916498
2.32632
-2.34888
0.581671
0.939795
0.809806
-0.786221
0.229166
-1.5648
-0.556879
-1.94492
-0.183376
-2.48378
-0.791019
-0.0343952
-7.65782
1.0171
-7.25086
-0.108601
0.925132
-1.10124
-6.82701
-2.09366
0.508714
-0.965896
0.0845124
1.11295
-6.4863
-0.0163424
-0.233152
-0.42717
1.07391
-2.25954
2.3141
-0.133584
2.59567
-0.00179268
0.050175
0.119931
1.25431
0.00720865
-1.55428
-0.434038
0.611633
0.136656
-0.421163
2.94361
0.820143
-0.791872
-0.545745
-0.665705
0.232634
0.321976
-1.85335
1.20227
-8.55926
-7.27594
-1.07844
-3.13338
-0.676311
-1.1338
1.18164
0.0999478
1.85533
2.3971
-1.68207
-2.38532
0.409174
-0.175126
1.93608
-2.51038
0.534764
1.05733
1.21529
-6.75664
-1.98452
0.266059
-0.179642
-0.433249
-5.74867
-2.80016
0.26086
-0.0272304
-1.18636
0.49234
-1.23085
-0.983056
0.40433
-8.13628
-7.29243
-1.85542
0.612757
2.41423
-1.23065
1.24271
-4.50193
-0.171758
0.581126
-0.675561
0.953597
-6.26965
-3.01236
1.91055
1.04856
0.665658
-1.09796
2.58473
-6.33703
-2.65183
-8.9894
-1.25559
-5.1762
-6.71346
1.68644
0.627995
0.0519214
1.03204
-8.51497
0.515774
0.0907844
0.155991
-1.41947
0.68222
1.02657
0.50259
-4.30274
-2.27204
-2.76849
-2.14489
-0.302617
-0.263967
2.46775
1.20968
-4.02958
-1.39513
0.886964
1.76698
-0.613659
-2.72558
-1.20511
1.45358
0.0646114
-1.32876
1.30466
-1.7071
1.87354
-0.686718
1.36392
-2.31628
-1.16959
-0.163534
-7.98953
-1.60688
0.989507
-2.28517
-4.68108
0.742762
-1.52029
0.535863
1.4519
1.2262
1.39861
1.2423
-0.672712
-0.0331996
0.698122
0.240937
-0.00382359
0.719072
-0.965642
1.93124
-7.14085
1.34361
-2.35034
2.27126
-8.83713
0.0260123
2.13256
-6.93571
-1.155
-2.32337
1.33994
2.12818
1.14031
-0.600115
1.22448
1.019
-5.14563
1.18865
-7.79226
1.18053
-6.72525
-9.92403
-2.51433
-2.60692
0.99387
-2.0322
-2.72653
-0.11804
2.0717
0.447251
0.650106
-2.66996
-0.215135
-0.851412
-1.09316
1.23517
0.339256
-2.57999
2.52687
-0.234764
1.83657
1.0833
-0.0195476
-0.0662027
-0.13337
-0.718104
-1.46725
-0.383079
-0.44233
0.393646
0.301053
-9.89053
2.44909
1.3978
-0.146328
-5.58882
0.146143
-4.57275
1.28378
0.866811
0.176367
-0.132995
0.891523
0.415686
-0.32001
-1.17003
-0.97591
0.491578
1.88836
-1.6404
2.12213
2.67554
2.23797
-2.95634
0.97302
-2.3095
1.16721
0.870103
1.46515
0.507655
1.293
2.67907
1.31087
-1.94879
-4.60382
-3.07853
2.67201
-0.0548255
-1.91602
-4.98244
1.49946
1.95372
0.689426
-0.0794436
-0.369845
1.70734
-0.457762
0.244979
-4.86227
1.07418
-0.121652
-3.44678
0.010397
-2.45446
-2.59541
-7.74025
-1.93553
-0.515007
0.952649
0.57455
0.185975
0.371958
0.366836
-1.75097
-0.152745
0.387027
-2.30509
-2.35742
1.23065
1.73549
-6.58787
1.59763
1.2923
1.97287
-0.0688714
-9.39186
0.516916
-1.27321
1.44576
0.130089
1.39217
1.28987
0.813159
1.41684
0.198947
1.05927
-0.0647957
1.08486
-0.816545
-1.0936
-1.04055
-0.120889
1.03023
-6.70273
-7.67513
-6.22584
2.17036
0.923679
1.10015
-0.356814
1.62225
-0.902248
0.305884
0.154
-0.692135
0.344608
-7.48399
-2.35689
-0.202026
-1.87269
-1.15215
-4.30617
0.124609
-2.74959
-1.24455
0.0288486
2.08943
2.38708
1.84606
-6.95753
0.261904
-2.27625
0.39882
1.88628
0.866484
1.00941
-5.60602
0.00963515
-0.89228
0.589521
1.19165
0.238205
0.513573
-2.44582
0.466407
-2.13997
1.16854
0.531507
1.21413
-2.26977
0.378256
-10.1966
-2.74955
-2.69023
-0.0209416
1.96295
-1.36595
-3.87347
-4.83315
0.807588
1.23384
-0.220604
1.16792
-2.32034
1.67052
2.11723
-7.17615
0.496756
1.35208
-8.00553
-2.53267
0.672468
1.33761
1.45612
-2.35629
-1.16424
0.69812
2.06413
-2.48552
-11.6754
0.555002
1.68189
0.652219
-0.886448
-2.19127
1.01139
1.22762
1.14706
0.527042
-1.1018
0.541614
2.60746
-1.09842
-0.598795
0.626564
-2.36035
0.657577
0.0490569
-4.19976
-1.29527
-9.69334
1.18241
-5.30177
-2.1075
0.990733
1.29163
0.406541
-0.635544
-10.2658
0.309678
-2.36893
-1.59546
-0.49579
-0.0822732
-2.21456
1.56859
0.394786
0.640549
0.0823985
1.80218
-6.38805
-0.786485
1.12534
-2.55327
1.22578
0.221882
-0.192084
-2.36487
1.2655
-0.00843684
0.0501157
-0.801548
-0.521402
1.03466
-2.2069
0.61313
-8.64661
-1.58796
1.13471
-2.47646
2.20631
-2.33866
-2.25486
-6.08334
1.40916
0.439583
0.85488
-3.10598
1.62952
-2.98828
-1.0199
0.188141
0.740023
1.29142
0.00268764
-0.815411
-0.443779
-2.81671
1.2315
-1.91205
-7.92381
0.00296412
-0.275742
0.278267
-0.308645
1.82936
0.0778558
-2.30539
0.912186
-0.551632
1.41122
-2.58727
0.688178
1.46903
1.26426
-0.0810939
-3.2075
-2.15206
0.61828
0.973387
1.08042
0.531329
-5.21241
-0.21417
-1.89822
0.901503
2.75443
0.291753
1.1306
1.3721
0.891317
1.27551
-4.95836
-2.9987
-8.079
1.19952
2.63816
0.429883
-0.0210204
1.10887
-0.443881
-0.283928
0.0587545
0.653929
0.0880146
2.20422
-3.55851
-1.90386
2.3863
1.12373
-0.0395698
0.588733
0.96612
0.212956
-10.376
-6.57301
0.548983
-1.30967
-1.0706
0.969629
-7.86218
-5.94229
-2.73038
0.14575
0.199588
0.455433
0.727485
0.911731
0.941279
0.198823
0.516117
0.348104
1.90005
1.52513
-1.49587
-0.133783
-0.234676
1.28591
0.412088
0.65157
-0.339546
0.703792
-0.120118
1.82556
0.634415
-0.0102712
-2.50843
0.643847
0.664825
-0.857992
1.14812
-0.121334
0.153999
-9.81966
0.199989
-3.36545
0.437891
-1.26831
-5.04189
-1.25055
-2.25748
1.45577
-4.34645
-2.14314
-3.63346
1.92443
-5.83289
0.300185
0.942221
-2.7756
1.52774
1.24532
-1.07668
1.20918
0.28244
0.663346
-2.93326
-2.65359
-0.0366278
1.57497
0.78037
-2.32222
-2.40736
-8.78276
-2.46441
-3.92519
-0.61527
-0.716962
1.01371
1.21085
0.739547
-7.59686
0.0491973
1.26966
0.943614
-2.36814
0.809558
-3.11279
-0.526633
0.207355
0.102039
1.23723
-1.11987
-6.67111
-8.30038
0.995272
-4.5717
-2.54248
0.0630414
-9.52119
-1.65592
-2.80252
-3.172
0.0638492
-3.14477
-0.0682137
-2.31308
1.26572
1.25367
-0.345223
1.44849
-4.35296
1.76505
-2.15113
0.709539
-0.117893
0.613658
0.115305
-1.15488
-3.15143
1.28521
1.57025
1.93052
-2.40811
-1.48416
-5.70439
-0.654966
-0.00712554
-2.33012
-2.27096
-2.4298
0.117465
-2.27918
-1.13193
-2.79055
-0.32001
1.66751
0.161583
0.415976
-0.0946335
-0.537602
-1.81908
1.8678
2.34916
-1.75157
0.516221
0.64018
-0.00522562
-9.78247
1.39345
1.54119
-0.54952
-5.1535
-7.74058
-5.13261
-0.0255693
-2.46382
0.145513
1.36865
-0.0992762
1.40298
-2.18334
-2.76823
1.28754
0.0752396
-2.59628
0.76948
1.49194
-2.67644
0.278166
-2.64622
-2.33614
-2.48734
1.98038
-3.10578
0.521299
-2.27199
0.917856
-2.38434
-2.2766
-0.468886
-2.25664
-0.781285
0.625405
-0.0301063
-2.3576
0.392607
0.00961835
-9.53701
0.69925
-2.24131
-0.81227
-0.229207
1.14606
-2.71153
1.30436
-9.64469
-0.0042969
-0.0209651
-0.76965
-6.12572
-2.29905
-3.74493
0.329917
1.05678
0.0743866
0.552268
-0.797934
0.0573794
-2.85369
1.30855
-0.264628
1.17102
-1.28629
-4.4183
0.420294
2.96145
-9.38501
-2.71868
-2.3742
-1.42258
1.21229
-0.00413031
0.586262
-0.478397
-2.07783
-2.4198
-1.23552
-2.40107
0.0829521
-2.2914
0.764283
-2.45672
0.574666
0.408697
-0.0259311
-1.48835
0.122812
0.820086
-1.9323
-7.6416
1.0441
-0.182497
-2.19269
0.520054
0.263006
-0.89153
0.394214
0.949602
-7.38684
1.13196
-1.29895
0.145726
-2.01429
-1.91021
-2.6031
-1.71075
-5.91732
1.05994
1.12316
-2.25008
1.46107
-5.70873
1.50046
1.26769
-2.76897
0.916088
0.890966
1.24823
-0.912012
-5.71401
-1.16168
-0.807253
1.18892
0.943606
-1.55459
0.240335
-1.06269
1.5627
0.586931
0.341325
0.754089
1.06535
-0.406701
-0.486892
-0.110961
1.23891
1.01339
0.104911
1.33586
1.35457
0.0452579
-6.91662
0.87346
1.14089
0.660242
-0.519253
-3.50738
-2.74885
-0.181986
-6.3241
1.50661
0.0759896
-0.489662
-0.55867
0.315838
-2.50486
0.380428
-7.30126
-1.19382
0.864929
1.08083
-8.95316
0.938773
-0.315695
0.141689
0.359884
0.661843
0.45402
-0.00734074
1.25524
1.35033
1.11714
-2.49668
1.24281
0.930335
1.24115
1.31162
-9.0149
-0.567533
-0.105233
-1.0095
0.899414
2.08654
-9.56263
2.31133
-5.64453
-1.1881
0.525272
0.923869
-0.540978
0.549071
-1.50792
-8.20201
0.296049
-6.95148
-0.421777
0.532456
0.250851
2.50323
0.620306
-8.54941
-8.48122
0.266371
1.12177
-10.4729
-3.1694
-11.094
-0.41562
-1.26811
-1.06856
1.23498
0.333368
1.15298
-0.401203
-0.324873
-0.442703
-0.0775719
0.308602
-1.14464
1.579
-2.00739
-2.50885
0.641103
-3.34292
0.0614202
1.14164
-0.341425
-1.95219
1.34877
-0.170821
1.11498
-1.07959
1.06423
0.317543
1.61782
1.14958
-6.48419
0.482675
-0.619278
-11.1037
-0.118658
-0.112994
-1.72456
-9.81604
2.56812
0.0230114
-0.659085
1.29431
-4.39485
0.280002
-8.24631
-2.50992
-2.79833
-2.64724
-0.272149
-0.102779
-3.00036
-7.26302
0.645959
-10.148
-0.376961
-5.31329
0.129721
1.26777
-6.36048
-6.47385
-0.345839
0.0533243
-1.08651
1.02439
1.37092
-11.6357
1.05201
-0.539428
1.2092
1.90748
-3.66136
1.21623
0.116322
1.08754
1.13134
0.676702
-0.651542
-3.81199
0.898349
1.36603
-8.55613
0.0145291
-2.0264
-1.42689
1.14538
-8.56009
-0.672267
-12.3142
1.11208
-1.19483
0.183816
0.056986
1.28938
0.194233
-1.81734
0.216367
-0.103485
-3.76471
1.64225
2.16013
0.920442
2.64016
1.46355
2.08729
0.201336
-0.267846
1.68289
-4.0847
0.558582
0.459362
-1.26923
1.50531
-0.819698
-0.7553
2.15932
0.712295
-3.68983
1.13346
1.07809
1.36083
-1.71835
1.3005
2.22347
-4.06245
-1.21833
-0.621167
0.166914
-2.29648
0.757645
0.523098
1.46551
1.17937
-5.94553
0.806146
-0.197921
-2.60994
-2.21174
-7.46538
0.517352
-1.56011
1.27446
-0.204017
-2.34856