/*--------------------------------*- C++ -*----------------------------------*\
| =========                 |                                                 |
| \\      /  F ield         | OpenFOAM: The Open Source CFD Toolbox           |
|  \\    /   O peration     | Version:  2306                                  |
|   \\  /    A nd           | Website:  www.openfoam.com                      |
|    \\/     M anipulation  |                                                 |
\*---------------------------------------------------------------------------*/
FoamFile
{
    version     2.0;
    format      ascii;
    arch        "LSB;label=32;scalar=64";
    class       surfaceScalarField;
    location    "9.7";
    object      phi;
}
// * * * * * * * * * * * * * * * * * * * * * * * * * * * * * * * * * * * * * //

dimensions      [0 3 -1 0 0 0 0];

oriented        oriented;

internalField   nonuniform List<scalar> 
20045
(
0.274769
-0.315282
0.0405128
-0.5623
0.23161
0.330691
0.181368
1.01518
-1.19655
0.0812081
-0.0669902
-0.0142179
-0.529373
0.422029
0.107344
-0.299546
1.09198
-0.792433
-0.432714
0.0183627
0.414351
0.0189284
0.27183
-0.290758
0.283974
0.217011
-0.500985
-0.355924
-0.0820388
0.437963
-0.123083
-0.0414809
0.164564
1.05378
-0.506931
-0.546851
0.214701
-0.211025
-0.00367632
-0.587912
0.501417
0.0864949
-0.0340382
0.442402
-0.408364
-0.507858
0.151934
-0.0135839
-0.101793
0.115377
-0.0161699
-0.0638465
0.0800165
-0.767345
1.13323
-0.365883
-0.392849
-0.00479742
0.397647
-0.325488
0.305078
0.0204104
0.0770864
0.137615
-0.110008
-0.452292
0.958015
0.108932
-1.06695
0.412316
0.0682422
-0.480558
-0.229088
1.1871
0.041758
-0.0401553
-0.00160269
-0.744521
1.45231
-0.70779
0.750257
0.211006
-0.961263
-1.59741
0.922286
0.675127
0.255888
0.357261
-0.613149
0.580327
-0.49005
-0.0902771
-0.165033
0.748921
-0.583888
1.4427
-0.810307
-0.632391
-0.340919
0.359847
0.939752
-0.448529
-0.491223
0.530354
0.197853
-0.728207
-0.0342691
0.218017
-0.183748
-1.10982
0.56169
0.548133
0.313971
0.296351
-0.610322
-0.0481737
0.353332
-0.305159
0.0802111
-0.115351
0.0351398
1.05761
-1.05889
0.00127908
0.706906
-0.23837
-0.468536
0.309215
0.397691
0.472428
0.581354
-0.10158
-0.154795
0.256375
0.676899
0.165628
-0.842527
0.778073
-0.247718
0.134188
0.949382
-1.08357
0.665339
-1.09945
0.434116
1.00042
-0.708873
-0.291546
-0.537536
-0.353295
0.890831
-0.0548398
-0.174375
0.229214
0.0980921
-0.214257
0.116165
-0.36828
-0.161093
0.265697
0.804579
-1.07028
0.852599
0.131827
-0.984427
0.75975
-0.924783
0.868752
-0.712861
-0.155891
-0.234239
-0.094247
0.328486
0.208126
0.660626
0.222231
-0.798456
0.576226
-0.290584
-0.0349043
0.197534
0.132825
-0.33036
0.570702
0.230394
-0.801096
0.0177712
0.00108059
-0.0188518
-0.348471
0.047361
0.30111
0.481509
-0.197535
0.722251
-0.735467
0.0132162
-0.0381017
0.0558729
0.159611
-0.0615193
-0.134821
-0.560779
0.6956
0.103347
-0.0998531
-0.00349382
0.61701
0.0298544
-0.646865
0.960036
-0.694339
-0.157128
0.774138
0.330192
-0.36423
0.306416
-0.0355246
-0.270892
0.00710482
-0.640396
0.633291
0.501757
0.546046
-1.0478
0.441297
-0.384003
-0.0572941
0.595079
-0.372848
-1.30284
0.205667
1.09717
-0.00479167
0.279561
-0.193713
0.259117
-0.0654045
0.230929
-0.646333
0.415404
-0.792822
0.0185485
0.774273
0.491641
0.125831
-0.617472
-0.40814
0.341757
0.0663822
-0.589917
-0.0424309
0.632348
0.448714
-0.120182
-0.328532
0.224604
-0.334546
0.109943
-0.120694
-0.402539
0.523233
0.334851
-0.366958
0.0321072
0.771418
0.099548
-0.870966
0.0242192
0.0175388
-0.0805543
0.163751
-0.0831969
0.663287
-0.349315
0.00177155
-0.107142
0.105371
0.63794
0.301812
-0.216326
-0.371586
0.180209
-0.260764
-0.216257
1.06886
0.036489
-0.230202
0.109
-0.107229
0.206445
0.630595
-0.837039
0.55498
-1.02726
0.472285
0.204836
-0.274981
0.233271
0.0417101
-0.128773
0.166111
-0.0373383
0.461579
-0.458638
-0.00294102
-0.287452
0.232613
0.790097
-1.48103
0.690937
-0.125374
0.190635
-0.0652606
0.026222
-0.157767
0.131545
0.538676
-0.12636
0.97771
0.464988
-0.629468
0.494647
0.536377
-0.840798
0.304421
0.12217
-0.13834
-0.287542
0.0533028
-0.449671
0.358382
0.0912897
-0.554843
0.0695867
-0.347745
0.278158
0.679042
0.321377
0.539392
-0.762926
0.223534
0.798271
0.0836598
-0.881931
-1.07717
0.739744
0.337427
-0.119272
-0.508632
0.627904
1.03059
-0.351549
0.197819
-0.352614
0.119453
-0.0116507
-0.107802
-0.0295167
0.0226761
0.00684053
0.578186
0.393719
-0.971905
0.609188
-0.547031
-0.0621566
-0.148009
0.0465139
0.101495
-0.200515
-0.0744665
0.931036
-0.394659
-0.392079
0.392138
-5.85045e-05
0.533006
-1.13621
0.603203
0.124036
-0.661572
0.449546
0.232133
-0.681679
0.759849
-0.752744
0.960463
-0.131442
-0.829021
0.437121
-0.594969
0.157848
0.890476
-0.518582
-0.371894
-0.137081
0.174607
-0.0375256
-0.0912051
1.12059
-1.02938
1.0515
-0.301239
-0.819412
0.017947
0.801465
-0.541909
0.353215
0.188694
0.93916
-0.437403
0.122181
0.319116
-0.624114
0.748011
-0.123897
-0.888291
1.06966
0.00411959
-0.222924
0.218804
-0.292828
-0.127066
0.419894
-0.0253266
-0.214606
0.239933
0.658948
0.11553
-0.774477
1.37179
-0.696672
-0.675122
-0.260473
0.235146
0.283579
-0.470257
0.186678
0.0949362
-0.0147251
-0.92513
-0.428847
0.628679
-0.199832
-0.620716
0.459894
0.160822
-0.00743672
-0.0533406
0.0607773
0.48291
0.407566
-0.0130993
-0.0164174
-0.0375722
0.157025
-0.679055
0.0549403
-0.749011
0.926032
-0.177021
-0.700763
0.729718
-0.0289554
-0.515023
-0.434658
0.949681
0.0952737
0.370069
-0.465343
0.397946
-0.42021
0.022264
1.02868
-0.0777575
-0.950926
-0.00817344
-0.761135
0.769308
-0.354442
0.803987
0.192867
-0.593608
0.400741
-0.645115
1.43521
-0.754983
0.552566
0.202417
-0.0405088
0.0463831
-0.00587429
0.527826
-1.23058
0.702752
-1.13762
0.393096
-0.53475
-0.532658
1.43551
-0.863366
-0.572141
-0.405931
0.357757
0.156843
-0.166604
0.0097614
-0.566805
-0.222504
0.789308
-0.972266
1.37223
-0.399962
1.05695
-0.819061
-0.237892
0.0139509
-0.199802
0.185851
-0.393808
-0.507372
0.90118
-0.0101043
-0.112979
-0.470713
0.351441
-0.718772
-0.219222
0.937994
0.109198
0.029217
-0.138415
0.130969
-0.559815
-0.321538
0.577425
0.847523
-0.0492525
-0.167476
0.133207
-0.198852
0.257967
-0.059115
-0.263565
0.922513
-0.98169
0.587882
-0.180273
0.00253772
0.177736
-0.751775
0.157959
0.593816
0.299538
0.757415
1.298
-0.770174
0.90229
-1.55877
0.656485
0.852251
-1.41487
0.562622
0.0608058
-0.453655
-0.514204
0.720649
0.630738
-0.930284
0.759743
-1.18089
0.421142
-1.68726
0.915277
0.771986
-0.0551153
-0.353024
0.199717
0.167245
-0.366962
0.682869
-0.251501
-0.431368
-0.120726
-0.78132
0.690115
-0.284949
-0.10713
0.653022
0.962993
-0.731615
-0.231378
-0.0124799
-0.149591
0.162071
0.630203
0.130163
-0.760366
-0.35814
-0.287096
0.645236
-0.427368
1.01813
-0.590764
-0.507426
0.738355
0.614727
-0.42186
-0.028622
0.482734
-0.454111
0.969695
-0.436688
0.110623
-0.00883695
-0.101786
-0.244563
-0.186767
0.43133
-0.126127
0.131049
-0.00492247
1.43949
-0.870111
-0.569384
0.255809
-1.22808
-0.138226
0.0120991
-0.816303
0.229209
0.587094
1.33265
-0.583728
0.225362
-0.974374
1.64042
-0.720959
-0.919456
-0.0147195
0.123917
0.958719
-0.564356
-0.394363
-0.620296
0.109901
0.510395
-0.895238
0.886455
0.008783
0.729388
-1.36076
0.631367
0.0391386
-0.00154462
-0.037594
-0.470095
0.595823
-0.125729
0.00526532
0.204943
-0.210208
-0.175433
0.0500586
-0.151818
0.0230451
-0.587312
-0.439952
0.38769
-1.02
0.63231
-0.484135
0.43665
0.047485
0.402955
0.177372
1.12304
-0.363293
-0.482932
0.190104
0.563068
0.769581
-0.528336
0.0587095
0.469626
0.457915
0.500804
0.414129
0.0282729
-0.489148
0.0050129
-0.321283
-0.0726601
0.393943
0.00744897
-0.0479577
-1.07133
0.643961
0.534053
-0.68714
0.153087
-0.965815
0.936902
0.028913
-0.395056
0.368708
0.0263485
-0.15371
-0.141988
0.295698
0.758134
-0.847627
0.0894928
-0.954557
-0.732706
1.17695
-0.735081
-0.441872
-0.111492
0.0990119
1.4283
-0.698912
-0.64211
1.0298
-0.532037
0.285459
0.246578
0.996743
-0.299803
-0.69694
1.00604
-0.330518
-0.675526
-0.27107
-0.260967
0.881079
-0.541335
-0.339744
-0.19632
0.817765
-0.621445
-0.161894
-0.503649
0.665543
0.0610303
0.18694
-0.24797
-0.130122
-0.022423
0.152545
1.23322
-1.08964
-0.143578
-0.574737
-0.502434
0.594175
0.368818
-0.886965
-0.0788492
0.154946
-0.399509
0.365672
-0.811389
0.445718
0.00282255
0.15402
-0.533809
1.112
0.606529
0.832966
1.57637
-0.933479
-0.642892
-0.794267
0.575046
0.64411
-1.11187
0.467758
-0.630865
-0.0684307
0.699296
-0.405167
-0.0793
0.484467
0.433223
-0.149643
-0.0845383
-0.0957351
0.487463
-0.110039
-0.380011
-0.554403
0.844941
-0.290538
-0.238827
0.0399751
-0.395785
0.367163
0.0969348
-0.992173
0.308488
-0.815914
0.211268
-0.171719
0.227623
-0.0559034
0.000885929
0.0803222
-0.453714
0.327034
0.12668
0.355964
0.105615
0.553278
-0.336771
-0.216507
0.464795
0.144392
-0.434735
0.800406
0.582276
-0.0906345
-0.235005
-0.516771
1.33512
-1.13796
-0.197167
0.768555
-0.914773
0.46005
0.454722
0.800652
-0.886157
0.0855048
-0.475529
0.354835
-0.139766
-0.00824317
-0.135289
-0.454628
0.36623
-0.576563
0.210333
0.422364
0.458714
0.617656
-1.06975
0.452096
0.32072
-0.575585
0.254866
-0.974921
0.182099
0.0487463
0.399968
-0.452768
0.641302
-0.188534
-0.222055
0.321781
-0.0997264
-0.527495
0.0947806
-0.128801
-0.272902
0.401704
0.10896
0.000578299
-0.109538
-0.266037
-0.275871
0.341019
0.458814
-0.799834
0.891994
-0.434079
0.263795
-0.454325
-0.0212037
0.522586
-0.201867
-0.656692
-0.0982911
0.110447
-0.0878967
-0.0225501
0.936356
-0.259457
-0.526426
0.779494
-0.253068
-0.139183
0.166752
-0.0275695
0.653211
0.0296574
-0.434915
-0.376474
-0.550572
0.950253
-0.399681
0.55325
-1.05446
0.501208
0.560135
0.616819
-0.0266588
0.0208755
0.00578328
0.11593
-0.746795
0.597542
-0.898694
0.301152
0.0573131
0.0460338
-0.124015
0.663407
-0.426254
0.734742
-0.562979
1.41523
0.170613
-0.937958
-0.679717
0.369882
0.309835
0.676722
-0.143605
-0.533117
0.954538
-0.196404
-0.682135
-0.506142
-0.427188
0.706261
0.0571265
0.174014
-0.23114
0.334758
-0.339555
-0.777607
0.653592
0.826322
0.231289
-0.813982
0.287556
0.957122
-0.362948
-0.235482
0.23156
0.00392229
0.0166236
-0.591919
0.575295
-0.896274
0.15685
0.739424
0.73419
-0.73419
-0.451467
0.875657
-0.42419
0.214029
0.339249
0.579426
-0.295196
-0.28423
-0.998432
1.04263
-0.0442012
0.382664
-0.0171388
-0.365525
0.293453
-0.0996294
-0.193824
0.135152
-0.288862
0.254946
0.460478
-1.10259
-0.831985
0.981623
-0.149638
-0.302181
0.6432
0.022023
0.0151424
-0.0371654
0.512223
-0.465508
-0.0467152
-0.392233
0.453039
1.47421
-1.11772
-0.356493
-0.106779
-0.499342
0.60612
-0.269123
0.286984
-0.0178607
0.166869
-0.291036
0.124167
-0.849866
0.369849
0.480017
-0.046071
-0.0209192
-0.246187
0.0107045
-0.0347917
-0.051965
0.0867567
0.668008
0.565212
0.0641033
-0.0420803
-0.0713619
-0.234731
0.306093
-0.542425
0.850446
-0.30802
0.121316
0.184801
-0.306117
0.367706
-0.349343
0.648555
-0.269242
-0.379313
0.0486071
-0.451146
0.251313
0.77737
0.479623
0.271129
-0.750752
0.495532
-0.396616
-0.098916
-1.01294
0.193531
-0.349616
0.152717
0.196899
0.448103
0.788387
-1.23649
-0.658418
0.589987
0.0502895
-0.922081
0.871791
-0.150033
0.163983
-0.0396178
0.0454351
-0.00581729
0.0648451
-0.386128
-0.0358066
0.108343
-0.072536
-0.661801
-0.154503
0.622421
0.28046
-0.16322
-0.11724
-0.155248
0.0160652
0.134355
-0.683503
0.549148
0.258949
0.504331
-0.763279
0.502027
-0.699942
0.839271
-0.139329
-0.742586
0.546265
-0.0124635
-0.0276918
-0.372868
-0.247848
-0.292737
0.0672506
0.225487
-0.923394
0.380969
0.642061
-0.74884
0.440829
0.516294
-0.393104
0.344786
0.048318
0.165468
-1.18265
1.01718
0.191002
-0.299972
0.108971
0.368862
-0.803777
-0.621079
-0.0796835
-0.353201
0.00473053
0.185673
-0.1764
-0.00927294
0.519657
0.00790922
-0.0232552
0.015346
1.18326
-0.735156
-0.499758
0.864462
-0.364704
0.288357
0.201858
-0.490215
-0.343329
0.193297
-0.256295
-0.0364421
0.407116
0.17231
-0.267798
-0.572999
0.0609942
0.0494525
0.593169
0.447964
0.134311
-0.930302
1.06449
0.110001
-0.410797
0.300796
-0.0907526
-0.825636
0.916388
-0.0175413
0.0189748
-0.00143353
-0.460058
0.555332
-0.553574
0.39168
0.650711
-0.21359
-0.373996
-0.0797182
-0.00449814
-0.442516
0.447014
0.405476
-0.920498
-0.10072
-0.447551
0.548271
-0.0485936
0.0866673
-0.0380737
-0.636656
0.014072
0.622584
0.882437
-0.716808
-0.00162617
0.104846
-0.103219
-0.243269
-0.0258546
0.18609
0.394393
-0.580483
0.13549
-0.165209
0.0297194
0.544596
0.310398
-0.854994
-0.301871
1.07329
0.103113
0.00584666
-0.30565
-0.624888
0.930538
0.355439
0.575597
0.923906
-0.664957
-0.394701
0.2659
-0.150649
0.0205266
-0.435781
1.07989
0.109335
-0.7505
0.641165
0.810051
-0.127954
-0.682097
-0.444622
0.649899
-0.205276
0.385524
-0.442149
-0.358579
0.800728
0.111803
-0.0811887
-0.0306144
-0.268737
-0.494635
0.763372
0.0360001
0.476223
0.0622312
-0.0696679
0.514634
-0.783372
-0.688647
-0.229548
0.918195
-0.0378534
-0.516171
0.554025
-0.119079
1.16536
-1.19103
0.0256702
0.218228
-0.109927
-0.108301
-0.0468305
-0.346274
0.255247
0.267986
-0.362366
-0.042801
-0.807489
1.00779
-0.200297
-0.0607389
0.594792
0.179966
0.579884
-0.798387
-0.260503
-0.00524513
-0.0930591
0.0983042
0.534581
-0.0866162
-0.234762
0.255366
-0.0206033
0.271893
-0.266627
-1.20266
0.66791
0.901489
0.190489
-0.0965225
0.263391
-0.224133
0.51249
1.0717
-0.611223
-0.238808
0.00404613
-0.146945
-0.630662
0.184056
0.272704
-0.268584
-0.922557
0.0262833
-0.0733789
0.233997
-0.0429951
-0.740674
0.44901
0.291664
0.605223
0.117028
0.222417
-0.0799781
-0.142439
0.349348
-0.300869
-0.0484793
-0.6967
0.248171
-1.06356
0.512992
0.687537
-0.555061
-0.132476
-0.00394417
0.0248712
-0.020927
0.946788
-0.00704092
-0.939747
0.200593
0.0143665
-0.21496
-0.160175
-0.289496
0.256765
-0.0321611
-0.0369479
0.0351698
0.00177803
0.447425
-0.00823041
-0.439195
-0.0052129
-0.031735
0.759268
-0.65972
-0.0313937
-0.164085
0.195478
-1.00484
0.197352
0.00676521
-0.126287
0.306497
0.130305
0.150155
-0.143691
-0.339241
0.243885
0.213164
-0.457049
0.227407
-0.0298729
0.391677
-0.281676
0.231647
-0.205425
0.104602
-0.326658
0.532445
0.220063
-0.752508
0.567443
-0.0768969
-0.490546
-0.354943
-0.240026
-0.250666
0.0609916
0.189674
0.345151
-0.367819
0.0226682
1.10806
-0.0434715
-1.06459
-0.0941045
0.0742049
0.0198997
-0.523274
0.707309
-0.184035
0.591198
0.619955
-1.21115
0.293291
-0.387538
-0.325272
0.473435
-0.148163
0.237012
0.110521
-0.347534
-1.13755
0.841101
0.296449
0.0318514
0.00331842
-0.849896
0.161249
0.341806
-0.203224
-0.138582
0.443204
-0.583589
0.140384
-0.110204
-0.205078
0.16685
0.998514
0.828155
-0.161303
-0.666852
-0.815838
0.115896
0.343954
-0.578959
0.918897
-1.39956
0.480666
-0.116565
0.316283
-0.00243962
-0.354454
0.283092
-0.176259
0.245846
-0.189456
-0.87424
1.0637
0.793073
0.635228
-0.75178
0.785148
-0.0333678
0.160154
0.0255194
-0.551733
-0.208177
-0.13102
0.147024
-0.0160038
-0.0866759
0.412447
-0.325771
-0.233004
0.461119
-0.228115
-0.0886631
0.531867
-0.691734
-0.0445475
0.736281
-0.740316
-0.254161
0.994477
0.438604
-0.359313
-0.0792908
-0.262832
0.00725825
0.255574
0.055692
0.0273207
-0.0830127
-0.982328
0.0449097
0.937418
0.0236996
0.215362
-0.239062
0.788203
-0.881143
0.0929408
-0.473588
-0.204379
0.825113
-0.620734
0.0146586
-0.145679
-0.0625573
-1.06254
1.1251
0.751202
-1.39632
-0.946921
0.827322
0.119598
0.157825
-0.0223358
0.806536
-0.626571
-0.0646132
-0.167863
0.232476
-0.0140918
0.166918
-0.152826
-0.143607
0.842478
-0.698872
0.697492
-0.320673
-0.376819
1.02974
-0.971129
-0.0586122
0.702524
-0.24706
-0.455464
0.0422362
-0.252288
0.210051
-0.32404
-0.0237049
-0.928532
0.807877
0.120655
0.046481
-0.975013
-0.314147
0.42951
-0.115363
-0.530705
-0.558937
0.222126
-0.18033
-0.041796
-0.783705
-0.221137
-0.208268
0.14644
0.0618283
-0.611122
0.252982
-0.90596
0.878547
0.0274121
-0.152103
-0.0372086
-0.0626445
0.224301
-0.0237079
-0.567504
0.0974091
0.170868
-0.187104
0.0162357
0.249584
0.0626105
-0.312195
0.442162
-0.0594978
-0.209356
0.642448
0.0107636
0.357453
-0.0949719
-0.0280309
0.123003
-0.0859333
0.48388
-0.65582
0.437956
0.217864
0.0382971
-0.00644569
1.41256
-0.619484
0.969519
-0.804051
-0.192245
-0.154455
0.3467
0.6509
-1.17871
0.527809
0.587139
-0.624993
0.915718
-0.421261
-0.494457
-0.00472788
-0.562403
-0.0934168
-0.531954
0.902537
-0.370583
-0.0191056
-0.402817
1.30511
-1.05378
0.270075
0.171347
-0.110316
-0.0931768
0.103755
0.134593
-0.0035441
-0.484008
-0.463617
1.48964
-0.529601
-0.441528
0.273529
0.167999
0.0523201
0.241133
-0.644664
-0.481828
1.12649
0.175437
0.257785
-0.00683334
-0.159184
0.166017
0.822188
-0.00415167
0.0254871
-0.0213354
0.741632
-0.209187
-0.334359
-0.99985
0.167864
-0.246027
0.0155425
0.230484
0.687985
0.95243
-0.21797
-0.209717
0.427687
0.970548
0.0591929
0.643076
-0.901958
0.258881
-0.8199
0.00188874
0.818011
-0.76858
0.996196
-0.227616
0.156237
-0.00779387
-0.148443
-0.595518
1.34672
-0.048759
-0.545732
0.594491
0.0233615
-0.775142
0.367699
-0.231872
-0.135827
-0.926386
1.21037
-0.28398
-0.205305
0.573162
-0.367857
1.16309
-0.515047
-0.648048
0.0216901
-0.591772
0.570082
0.0401639
0.00527121
-0.49589
1.08709
0.401437
-0.852905
1.03633
-0.483081
-0.203543
0.172149
-0.846542
0.0266418
1.12602
-0.508365
-0.000801349
-1.30204
0.334843
0.0184891
0.447547
0.594099
-1.04165
0.548194
-0.154381
-0.393813
0.436332
-0.879142
0.442811
-0.160586
0.00879419
0.151792
-0.198467
-0.516508
0.714975
0.365837
-0.261235
-0.0782212
-0.0788954
0.157117
0.107304
0.23871
-0.346014
0.0798131
0.142313
-0.924561
1.07668
-0.152118
-0.0259726
0.00843139
0.474423
0.216559
-0.690982
0.403849
0.803835
-1.20768
0.191409
0.485313
-0.018333
0.978796
-0.0113111
0.792627
-0.781316
0.187336
-0.06602
0.0699679
-0.020097
-0.0498709
1.41945
-0.9057
-0.513751
0.435779
0.479939
-0.107128
0.100371
0.00675653
-0.253865
0.778159
-0.524293
-0.00208049
0.188402
-0.186322
0.869404
-1.25257
0.383168
-0.16541
-0.53947
0.70488
0.800045
-0.169842
0.263122
0.285072
-0.485744
0.146871
0.338872
0.30148
-0.800822
0.227155
-0.434701
0.207546
0.197498
-0.0493991
-0.148099
0.00568975
0.0344742
-0.0561778
0.540774
-0.484596
-0.195083
1.14446
0.741382
-0.622939
-0.118443
0.655053
-0.529222
-0.477442
0.170638
0.306804
0.132932
-0.428128
0.269567
-0.283919
0.0143523
0.0727538
0.149663
0.141957
0.733577
-0.875534
0.291241
0.156184
0.116418
-0.856735
-0.481865
0.0287628
0.453102
-0.376748
-0.215579
0.592327
0.532355
-0.28847
-0.838355
0.536174
0.221054
-0.176516
-0.0445375
-0.47136
1.02811
-0.556752
-0.435047
0.483654
-0.522725
0.452597
0.0701276
-0.594965
1.02842
-0.433454
-0.0192399
0.234973
-0.215733
-0.0918115
0.0878674
-0.311481
-0.596996
0.958659
-0.361663
-0.565985
0.723943
0.492956
-0.538208
0.0452521
0.133803
0.456571
-0.590374
-1.21801
0.779511
0.438497
0.00791651
-0.0328776
0.0249611
-0.0210174
0.679306
-0.822913
1.12355
-0.472653
-0.260133
-0.419583
-0.705441
0.69413
0.457861
0.0020332
0.336538
0.103304
-0.439841
-0.36451
0.333485
0.0310244
-0.362088
0.48134
-0.119252
-0.181365
-0.221392
0.402757
0.260588
0.418422
-0.679009
-0.695033
-0.259379
0.954412
-0.405266
0.539069
0.74793
0.671522
-0.949101
0.567021
0.38208
-0.547788
0.185802
0.361987
0.00552457
0.205266
-0.257093
0.0518263
-0.494427
-0.591495
0.41013
0.149404
0.218914
-0.176678
-0.359077
0.272402
0.249242
-0.757873
0.0214702
0.31338
0.21584
0.015576
-0.231416
-0.689497
-0.531799
1.2213
-0.315262
-0.170482
-0.484694
-0.0840702
0.568764
0.0702386
0.26074
-0.330978
0.00467517
1.12794
-0.739772
-0.388172
0.196432
0.631723
0.105012
-0.159061
-0.238294
0.397354
-0.763804
1.01845
-0.254643
-0.541714
-0.243364
0.785078
-0.487863
0.162591
-0.345861
-0.13158
0.819623
-0.414713
-0.40491
0.475023
-0.0338928
-0.44113
0.333329
0.0838316
-0.417161
-0.186882
0.210582
-0.000903529
-0.0487551
0.0496586
-0.111138
-0.0328343
-0.227639
-0.00486482
0.4282
0.391423
-0.374543
0.936233
-0.470764
1.39305
0.478325
-0.00330151
-0.822972
0.281258
0.745502
-0.629572
-0.128455
-0.663224
0.13995
0.0937367
-0.407883
0.681372
-0.664748
0.837381
-0.0367288
-0.204256
-0.13029
-0.203365
-0.0789598
0.282325
-0.321597
-0.0453607
0.725368
0.154154
-0.879522
-0.0136832
-0.248677
0.262361
-0.155019
0.486097
-0.952783
0.466686
0.84667
-0.0584677
-1.11872
1.23993
-0.121208
0.211693
-0.164332
-1.0151
-0.202911
-0.267979
0.82959
-0.0217128
0.600342
1.05932
-0.387773
-0.671552
-0.61079
-0.038236
0.649026
0.259611
0.43926
-0.698871
-0.705083
0.0684268
-0.176834
-0.0871871
0.264021
-0.477111
0.586446
0.156325
0.47997
-0.636295
0.160863
-0.202308
0.0414456
-0.930676
0.117259
0.813417
0.53459
0.588963
-0.298041
0.515017
0.187506
-0.231832
-0.117784
0.871658
-1.0031
0.476572
-0.0221304
-0.454441
0.4291
-0.135809
0.670063
0.0216237
-0.691687
0.899428
-1.37019
-0.00349269
0.0426313
-0.192703
0.339921
-0.147219
-1.09784
1.03528
-0.0404076
0.32695
-0.286543
-0.0190064
0.0771438
-0.0581374
-0.50918
0.0491219
-0.272519
0.616474
0.132765
0.554772
-0.165335
0.179994
-0.713546
0.42645
0.0567796
-0.0583242
-0.204933
0.195651
0.00928188
0.220664
-0.246228
0.0255643
-0.537049
0.566904
0.115963
-0.600657
-0.0878688
-0.318062
-0.0199695
0.569953
-0.549983
0.34031
-0.41297
0.0890887
-0.705726
0.616637
-0.196632
0.830256
-0.633623
0.267414
-0.821817
-0.430131
-0.0225046
-0.924416
0.533405
0.956233
-0.711654
-0.126701
-0.495536
-0.419236
-0.447883
0.17498
-0.0461598
-0.0489605
0.0951204
1.46046
-0.772472
0.773261
-0.175719
-0.247537
-0.163044
0.410581
-1.17021
0.570587
0.59962
-0.244082
0.202601
-0.68476
0.480381
0.172926
-0.0958391
-0.248185
-0.53865
0.489891
0.224267
-0.216041
-0.00822582
-0.117796
0.843164
-0.348463
0.393592
-0.0451292
0.828912
-1.22078
0.546604
0.674177
0.125275
0.290805
-0.416079
0.550207
-0.125876
-0.424331
-0.541879
0.336575
-0.337887
-0.0271878
0.360517
0.88296
-0.973712
0.433775
-0.196762
-0.366098
0.667578
-0.778805
0.550149
0.228656
0.891064
-1.30613
0.415067
-0.664367
0.733428
-0.0690607
0.371411
-0.457344
0.0130842
0.184926
0.253678
0.294113
-0.934509
0.409431
-1.20606
0.754608
0.451447
0.223526
-0.834316
0.577143
-0.0173468
-0.602949
0.136932
0.204478
1.03574
-0.359869
-0.675875
0.0957648
0.23308
-0.609828
0.168787
-0.92227
0.884034
-0.725064
0.282915
0.448922
-0.649108
0.30624
0.342869
-0.913057
0.544175
0.368882
-0.187924
0.0943804
-0.142974
-1.02572
0.71889
0.306832
0.744579
-1.3401
-0.914419
-0.0101422
1.3754
-0.456498
0.0730611
0.127886
-0.200947
-0.0243415
-0.146914
0.171255
0.00376484
0.433018
0.52154
-0.340238
-0.30887
0.137981
0.227856
0.194264
0.372252
-0.566515
0.402374
-0.235129
-0.0315987
-0.999682
1.03128
-0.322932
0.328426
-0.682868
-0.583567
-0.427408
1.01098
0.241963
-0.362146
-0.696495
0.206976
0.48952
0.00937944
0.0253259
-0.0347054
0.700627
-0.890083
0.121634
-0.314336
0.786173
0.614957
-1.40113
-0.371667
-0.0698613
-0.834172
0.234224
0.599949
-0.773992
0.608582
0.220296
-0.9841
0.0323541
0.444218
0.00591891
0.00346053
-0.0272135
0.837265
-0.57896
0.752919
-0.173958
0.763555
0.00336427
-0.76692
-0.495199
-0.0108182
-0.160901
0.0615576
0.672632
0.135947
0.0308052
0.308317
0.558676
-0.344648
0.487517
0.00852855
-0.370616
-0.854191
-0.0517687
-0.79552
0.276415
-0.840771
0.177906
0.201738
-0.379644
0.76433
0.0513415
-0.815671
-0.112888
0.105094
-0.354575
-0.708989
-0.757341
-0.128815
-0.508844
1.40827
-0.334109
0.475282
-0.141173
-0.968553
0.279056
-0.299416
0.49368
-0.334599
-0.406075
-0.574482
-0.262569
0.284833
-0.152276
0.40186
0.951477
-0.121887
0.594268
-0.189725
-0.404543
-0.0565818
0.539315
0.272517
0.994522
-0.944232
-0.0353802
-0.228344
0.338287
-0.462243
0.520953
-0.47167
-0.603367
0.239102
0.170175
-0.409277
-0.769263
0.035073
-0.135006
0.763473
-0.628466
-0.0196542
-1.09907
-0.636612
0.766775
1.43247
-0.659617
-0.77285
-0.0993671
0.252084
0.658249
-0.313687
-0.344563
0.274577
-0.307412
0.0291272
0.0408407
-0.148445
-0.00457569
0.15302
-0.0967005
0.433238
-0.590867
1.33545
-0.0113965
-0.168934
-0.271494
-0.0991274
0.370621
-0.0321052
0.732732
0.810402
-0.191378
-0.619024
-0.391877
0.577967
0.375298
0.402861
-0.50494
0.0230755
0.550917
-0.217697
-0.333221
-0.0494258
0.0341286
0.0152972
0.138822
-0.728504
0.589683
-0.898786
0.141444
0.225241
-0.564385
0.8408
-0.0141642
0.288742
0.139858
-0.473968
-0.867165
0.439977
-1.00003
0.30336
-0.460707
0.0684741
-0.351489
-0.547701
0.899191
-0.795503
-0.0187293
-0.0473867
0.066116
0.972868
-0.767201
0.742115
-0.482505
0.111158
0.522656
-0.633814
0.143752
-0.320586
-0.482504
-0.339809
0.822313
0.113418
-0.4453
0.331882
-0.7608
1.3828
-0.622
0.643948
-0.47269
-0.171258
0.585673
0.0225919
-0.608265
-0.505938
-0.714843
-0.306676
-0.0465251
0.401825
0.628766
-0.00833559
0.101955
-0.0936192
-0.670195
-0.163978
0.602001
0.531226
-0.529708
0.64682
-0.117113
-0.040775
0.0662621
-0.0528446
0.227333
-0.174488
0.0627385
-0.411201
-0.114988
-0.910734
-0.938929
0.205391
0.0156633
0.332078
-0.653615
0.0865014
0.678271
-0.764772
-0.48012
-0.0873838
0.4708
0.421194
0.0681501
-0.268665
0.0159323
0.0833876
-0.09932
0.0023607
-0.324525
0.322165
0.0546321
0.314076
0.380121
0.827135
-0.40477
0.749008
-0.420582
-0.117456
-0.256744
0.374201
0.715256
0.102509
-0.00362708
-0.672529
0.474062
0.197353
-0.229458
-0.372928
-0.760723
1.13365
-0.567699
-0.602508
-1.04751
1.07706
-0.0295447
0.194476
-0.295274
0.216314
0.535295
0.29184
-0.159108
0.637057
-0.477949
-0.256167
-0.4793
-0.288295
-0.504689
0.792984
0.411754
-0.236316
0.455809
-0.228654
0.549442
-0.904016
0.402379
-0.334137
-0.434854
0.882912
-0.448058
0.651756
0.391618
0.326717
-0.718336
1.05059
-0.578151
-0.47244
-0.778798
-0.574474
1.00674
-0.432265
0.231215
0.363054
-0.300953
0.286789
0.408284
0.75481
-0.21703
0.192689
0.0196102
-0.011701
0.898684
-0.504965
0.506655
0.953802
-0.413087
0.224179
0.188908
0.191184
-0.38343
0.690467
-0.020404
0.288258
-0.215197
-0.614412
-0.109353
0.723764
0.190196
-0.0228441
-0.167352
0.15787
0.0603576
0.124703
-0.893283
-0.293378
0.358223
0.630632
-0.581428
-0.0492032
0.184952
0.365965
-0.156194
0.0762162
0.301084
0.19137
-0.492454
-0.309867
1.06962
-0.161172
-0.50871
1.0287
-0.519986
-0.224505
0.331809
0.237587
-0.0767244
1.05608
-0.546584
-0.340381
0.181664
0.368543
0.308741
-0.39661
-0.17446
0.15522
-0.280318
-0.145084
-0.0101643
0.111241
-0.166742
0.766919
-0.600177
0.0344841
-0.0692758
-0.254271
0.0864079
-0.330445
0.0237686
-0.869111
0.563461
0.270759
0.202677
-0.247756
0.478704
-0.230948
0.188528
0.0705889
0.731516
0.423078
-1.15459
-0.113713
-0.0116138
0.125327
0.203992
-0.70375
0.980666
0.451801
0.734832
-0.648331
-1.01026
-0.0331103
-0.0202986
0.043949
0.423838
0.374989
0.343199
-0.718187
0.428593
-0.0882837
-0.0268009
-0.309913
-0.103174
-0.534143
-0.345806
0.478738
0.476699
0.387763
0.511019
-0.510956
-6.28406e-05
0.189596
0.0060549
-0.0615304
0.254594
-0.0339307
0.659586
0.153039
-0.812624
0.286395
-0.0621282
-0.231055
0.142611
0.0884446
-0.34495
-0.0199441
0.364894
0.213421
0.548177
-0.761597
0.194216
0.338139
0.635084
-0.0194277
-0.268025
0.213154
0.345523
-0.0154853
0.0733362
-0.0578509
-1.00725
0.474594
0.789694
-0.608911
-0.180784
0.0136514
-0.137063
0.123411
0.726289
-0.782467
0.519225
-0.107471
0.394125
0.34799
-0.139704
-0.00537983
-0.078517
0.028947
0.0495699
-0.468201
-0.121725
0.999347
-0.513359
-0.485988
0.402702
0.0114716
-0.414174
0.432659
-0.680247
0.247588
-0.0449904
0.464774
0.0578121
-0.536388
1.24712
-0.710733
-0.0636045
-0.0149125
-0.478301
0.401569
-0.0079768
0.655445
0.00349963
-0.658945
-0.361508
-0.0442042
0.260045
0.117833
-0.0174614
0.14166
0.198261
-0.507462
0.274458
0.0121383
-0.041244
-0.0830233
0.119512
-0.382828
0.493986
-0.000954917
0.273659
0.189946
-0.157803
0.560758
-0.0298846
0.540903
-0.150339
-0.122048
-0.189403
0.490488
-0.114
0.828249
-0.714249
-0.729222
-0.120673
-0.812458
1.31145
-0.498993
0.00728154
0.394287
0.325786
-0.0539561
-0.0142826
-0.253582
0.267864
-0.795805
0.249221
0.131336
-0.132962
0.568602
-1.21327
0.42578
-1.05067
-0.826682
0.935614
-0.451067
0.499805
-0.308435
0.00933893
-0.540919
0.679741
0.00124045
-0.150831
0.0919691
-0.451282
-0.113572
-0.551894
0.665466
-0.6158
0.609904
1.37538
-0.903047
-0.472336
-0.208781
0.076246
0.217922
0.0199491
-0.237871
-0.744188
0.165228
0.192618
0.00488031
-0.00464773
-0.126037
0.130685
0.556321
-1.36878
0.0929659
0.414577
0.0547331
-0.46931
-0.925504
0.811504
0.139436
0.0372051
-0.176641
0.36799
-0.964986
-0.14349
0.00113575
0.142354
0.178729
-0.0392936
-0.000704746
0.677697
-0.486288
0.531623
0.490099
-0.295882
-0.819519
0.235951
-0.597918
0.511326
0.0865919
0.708752
-1.08168
-0.489616
-0.264603
0.75422
-0.042926
0.396141
-0.298348
0.281209
1.01659
-0.148609
-0.867979
-0.0125433
-0.841648
0.538555
0.0471184
0.341572
0.316678
-0.158648
-0.000535741
0.140234
-0.210482
-0.366081
0.0342616
-0.0306701
-0.00359154
0.0127886
-0.570202
0.557414
-0.173474
0.401009
-0.227535
0.503966
-1.11153
0.607563
-0.0548566
-0.492174
-0.0279064
0.0110064
0.610496
-0.34534
-0.16865
0.51399
-0.345159
-0.316641
0.435643
-0.265468
0.227752
0.146515
-0.374267
0.113154
-0.36091
-0.770799
-0.0988741
-0.065708
0.164582
0.228506
0.123846
-0.352352
0.352253
-0.75533
0.403077
0.0649096
-0.517202
0.149626
-1.07601
-0.623641
-0.737513
1.36115
-0.840922
0.0283125
0.812609
-1.06044
-0.714247
0.0498805
-0.323125
0.305248
0.0178766
-1.37221
-0.290597
0.950183
0.385437
-0.172273
0.120614
-0.310018
-0.12581
0.463949
0.146606
0.100803
-0.372297
0.0146514
-0.121772
0.107121
-0.150448
0.013367
-0.0817249
0.0953762
-0.308904
0.434179
-0.973791
0.582236
0.391555
0.076058
-0.160596
0.448455
0.202373
-0.0121766
0.452106
-0.611214
-0.459381
-0.237115
-0.517889
0.158118
0.359771
-0.0496149
0.174566
-0.124951
-0.428074
0.430435
-0.0849546
0.678771
0.90377
-0.0933679
0.431917
-0.777076
0.383893
-0.4797
0.0958076
0.115438
-0.0105927
0.0211205
-0.000244951
-0.889439
0.53795
0.0158185
0.386883
0.0129209
-0.190074
0.177153
-1.45075
0.562454
0.31681
-0.503577
-0.184339
-0.0177381
-0.213596
0.231334
-0.532428
0.187089
-0.991532
0.876544
1.48605
-0.699877
-0.223669
0.211795
0.0118734
-0.0655552
-0.0275039
-0.148138
-0.647303
0.251338
0.395965
-0.141159
0.129545
0.0444552
0.317646
-0.362101
0.296824
0.222401
0.120685
-0.0484753
-0.0722093
-0.290306
0.289351
0.0866501
-0.0293369
0.381169
-0.894768
0.930717
0.0398317
-0.576685
-0.0696478
0.843274
-0.044266
-0.799008