/*--------------------------------*- C++ -*----------------------------------*\
| =========                 |                                                 |
| \\      /  F ield         | OpenFOAM: The Open Source CFD Toolbox           |
|  \\    /   O peration     | Version:  2306                                  |
|   \\  /    A nd           | Website:  www.openfoam.com                      |
|    \\/     M anipulation  |                                                 |
\*---------------------------------------------------------------------------*/
FoamFile
{
    version     2.0;
    format      ascii;
    arch        "LSB;label=32;scalar=64";
    class       volVectorField;
    location    "9.7";
    object      U;
}
// * * * * * * * * * * * * * * * * * * * * * * * * * * * * * * * * * * * * * //

dimensions      [0 1 -1 0 0 0 0];

internalField   nonuniform List<vector> 
13486
(
(1.60331 -0.320025 3.73891e-19)
(1.72585 0.148897 2.37451e-19)
(2.68282 0.017329 0)
(0.397622 -0.415574 -2.83948e-18)
(2.6959 -0.136443 -3.74691e-19)
(2.38906 0.166949 -4.86443e-20)
(2.51353 0.567041 -3.40851e-20)
(2.34444 -0.726691 1.53636e-19)
(2.1443 -0.350678 0)
(1.9031 0.577243 0)
(-0.114254 1.1946 -3.78368e-19)
(2.35768 -0.0676023 0)
(1.47211 -0.519307 -3.58687e-19)
(2.26634 0.672588 -8.349e-20)
(2.40811 0.211683 -1.35787e-19)
(1.87297 0.564318 -2.32999e-19)
(1.19089 -0.57048 3.42592e-19)
(-0.204521 -0.325712 2.48095e-19)
(2.05794 -0.00638183 9.84516e-22)
(1.74479 -0.136991 -3.94229e-19)
(-2.11126 1.16621 -1.46371e-18)
(1.49283 -0.537035 4.63426e-19)
(1.74078 0.141312 -1.89716e-19)
(4.04798 0.678502 0)
(1.96986 0.469132 8.27915e-20)
(3.95343 0.541211 -3.55744e-19)
(0.316489 -0.0892955 4.29262e-19)
(3.24092 -0.154684 3.71428e-19)
(1.96944 0.241487 0)
(3.2915 -0.342547 -4.88471e-19)
(-2.92461 2.08059 -8.02073e-19)
(2.07832 0.101718 -8.5867e-22)
(3.17745 0.353265 1.87221e-19)
(2.53755 -0.238035 0)
(2.34989 -0.68694 0)
(1.60163 0.0189407 4.07709e-21)
(1.63528 -0.138388 -6.11604e-20)
(1.7038 -0.789794 7.83591e-20)
(1.94342 -0.2538 -1.00468e-20)
(2.11272 -0.213765 8.92837e-20)
(3.58509 -0.486291 0)
(1.03571 -0.514617 -4.37745e-19)
(1.9675 -0.00410125 0)
(1.99471 0.388124 -3.81368e-19)
(2.00465 0.388966 1.57421e-19)
(2.35847 -0.0681794 4.65983e-20)
(-1.5705 -1.02375 8.18034e-19)
(1.92676 0.226011 1.02308e-21)
(1.62108 -0.122995 4.63085e-20)
(2.77861 0.0765093 4.63751e-20)
(1.9994 0.00382086 2.93384e-19)
(2.01309 -0.0591785 0)
(2.24234 -0.21319 -1.24479e-19)
(1.85373 -0.66976 -1.36475e-19)
(-0.387608 -0.697561 0)
(2.64431 -0.169805 1.95342e-19)
(2.62228 -0.300318 7.12664e-20)
(2.04556 -0.126532 -5.69503e-20)
(3.17379 0.384974 2.56112e-19)
(1.6808 -0.266171 0)
(-0.553474 2.14037 -4.44572e-19)
(1.68456 -0.271012 0)
(3.3401 0.494907 -1.74387e-19)
(-2.03341 1.26043 -1.84251e-20)
(1.24631 -0.393377 0)
(1.62133 -0.166089 -3.17136e-20)
(0.0695613 -0.281412 -2.23134e-18)
(1.55338 -0.0786256 1.49145e-19)
(2.1498 -0.371481 -2.12616e-20)
(1.48434 0.0119579 1.49742e-20)
(0.247072 -0.33342 2.56949e-18)
(-0.352886 -0.59026 4.75849e-21)
(2.09648 -0.113446 9.27595e-20)
(-0.53407 0.546591 -1.98714e-19)
(1.57886 -0.234705 -7.51533e-21)
(2.60414 -0.158675 -1.56417e-20)
(1.54323 -0.218555 2.87308e-20)
(2.43179 0.236145 6.16473e-20)
(-1.37119 -1.01121 -4.20588e-19)
(2.03245 -1.02693 0)
(1.88307 0.0435242 -2.89823e-22)
(1.66623 0.220318 -1.56033e-20)
(3.0705 0.279991 -6.26604e-20)
(2.72976 -0.00665806 -3.18028e-21)
(1.59875 -0.328487 -7.29902e-19)
(1.30131 1.18484 0)
(1.58994 -0.481911 2.69296e-20)
(2.00068 0.0113072 -4.64786e-19)
(1.90205 0.107899 -1.93822e-19)
(1.73738 0.767371 -3.06845e-19)
(1.96024 -0.0786243 -6.53005e-20)
(2.49137 -0.507308 1.22331e-19)
(1.67115 -0.407032 8.60842e-20)
(1.74701 -0.0221364 1.13792e-20)
(2.10112 -0.594999 5.4742e-21)
(1.90489 0.18087 -4.03168e-22)
(0.33271 -0.0963952 0)
(-1.48525 0.242146 9.28228e-19)
(2.12342 -0.204508 -1.71569e-19)
(1.10595 -0.566401 2.57437e-21)
(1.75471 0.0264509 0)
(2.2452 0.665923 -3.42842e-20)
(-1.91893 0.371164 -2.4457e-20)
(2.02547 -0.103829 6.66602e-20)
(1.25512 1.11904 0)
(0.907346 -0.579035 3.94901e-21)
(2.01175 0.0198461 -1.1507e-21)
(1.95527 -0.292748 -2.10408e-20)
(-1.39758 -0.974391 5.42415e-19)
(2.30746 -0.976536 0)
(1.5772 -0.740407 0)
(2.00556 0.376232 6.5282e-20)
(1.86382 -0.649557 4.44042e-21)
(2.85444 0.316475 -5.39997e-21)
(1.2448 -0.20724 0)
(1.4909 -0.724838 3.10704e-20)
(1.96126 0.483252 0)
(2.7104 -0.218383 0)
(2.08983 -0.112603 0)
(1.61595 -0.0525464 -3.1156e-20)
(0.00396075 -0.506973 -1.17084e-19)
(-0.610805 1.9581 0)
(2.05649 -0.537714 0)
(1.95767 -0.256379 3.32158e-20)
(2.18485 -0.698225 0)
(2.01588 -0.0557407 0)
(2.31165 -0.111155 -6.32537e-22)
(2.15407 0.0545314 1.92687e-19)
(2.06132 -0.15024 -6.26439e-20)
(2.17774 -1.38297 -1.26293e-18)
(1.96529 -0.0398185 -7.16385e-21)
(-1.65971 -1.18255 -2.1308e-19)
(0.450982 0.819892 4.6254e-19)
(-0.188907 0.146591 2.352e-19)
(2.00015 0.000432421 -4.62776e-20)
(1.88418 0.286736 -2.67574e-19)
(0.835064 0.419206 -1.60569e-19)
(2.3059 -0.939527 0)
(1.61378 -0.0356951 9.2044e-21)
(2.32778 -0.522321 2.92049e-20)
(3.01988 0.276493 -1.90337e-19)
(2.21311 -0.211968 1.07832e-19)
(2.15545 -0.0469299 0)
(2.0846 -0.967231 0)
(2.10874 0.0134242 -7.57902e-21)
(2.41483 0.495702 6.97403e-20)
(1.91091 -0.29882 -9.63092e-21)
(0.501596 1.07823 0)
(2.78449 0.123396 0)
(1.98571 0.229231 0)
(2.00633 0.00474218 6.06216e-21)
(2.60777 0.182349 0)
(1.86638 0.0311454 3.04187e-22)
(1.63997 0.215844 -1.35732e-19)
(2.12672 0.260688 0)
(2.89357 0.022525 0)
(2.24608 -0.93961 0)
(1.7769 2.80724 9.34947e-19)
(1.99128 -0.765821 6.75816e-20)
(1.79591 -0.200549 -2.03403e-20)
(2.6779 0.0519203 -9.45537e-21)
(2.00018 -0.736724 -9.4227e-20)
(1.59659 -0.0496664 1.121e-19)
(0.930782 -0.443977 1.88308e-19)
(2.0562 -0.0780703 0)
(2.36017 0.68786 6.90844e-20)
(2.21591 0.598595 2.33667e-19)
(0.685327 -0.283623 -6.04662e-19)
(1.88378 -0.294337 2.27637e-20)
(-0.201533 0.173649 6.41365e-20)
(0.444681 0.810325 3.34539e-20)
(2.12212 0.235643 1.51122e-19)
(1.99685 0.0363443 -4.34641e-19)
(2.29987 0.0013449 -1.93256e-21)
(1.86282 0.0901251 -1.1298e-21)
(-2.26984 2.02405 0)
(2.19859 0.924583 -1.63505e-19)
(3.02161 0.378447 2.28908e-19)
(2.02051 0.0225504 -3.99006e-19)
(2.17736 -0.0629233 0)
(2.18058 -0.236075 9.6272e-20)
(2.82042 0.32887 -9.56603e-21)
(2.2493 0.0133552 4.11694e-21)
(0.407488 -0.207118 0)
(2.57924 -0.0920746 1.37094e-20)
(2.93211 -0.133329 -1.63724e-19)
(2.1349 0.228702 2.15485e-22)
(3.0996 -0.333404 -1.17659e-19)
(3.47878 -0.458969 0)
(1.34548 -0.640854 2.8423e-21)
(1.59856 -0.0941507 0)
(2.59743 0.047591 0)
(2.10859 -0.203039 0)
(1.3396 0.554346 -3.18263e-19)
(2.17702 -0.261372 0)
(0.0521859 0.701931 -1.02658e-19)
(1.5808 -1.1872 2.79614e-18)
(2.638 0.0222614 1.91798e-22)
(1.28723 -0.6326 -5.21743e-20)
(2.34849 0.652101 6.21693e-20)
(-3.12875 1.89876 7.85528e-19)
(2.16257 0.0731516 -6.05224e-21)
(1.58317 -0.755441 -9.06452e-20)
(2.53219 -0.949483 -2.90577e-19)
(1.76689 -0.191614 2.50918e-20)
(2.21714 -0.248037 -5.79183e-20)
(-0.692576 0.0506898 1.29836e-20)
(2.00928 -0.08109 2.50384e-19)
(2.08585 -0.206363 0)
(2.60087 -0.0763909 0)
(3.32306 -0.227403 3.24957e-19)
(4.24623 0.0522016 1.20262e-18)
(1.76049 -0.125509 3.60606e-19)
(2.00378 0.0188208 -9.29806e-22)
(2.38293 0.199212 5.6034e-20)
(2.83813 -1.32966 1.07992e-19)
(3.26211 -0.257386 0)
(1.74431 0.75461 6.98711e-19)
(1.76502 -0.415027 0)
(2.86886 0.842186 0)
(1.04042 -0.611124 -6.36945e-19)
(2.81426 0.165442 0)
(2.29727 -0.51978 -7.91767e-20)
(2.61528 0.0605541 0)
(2.27176 -0.306222 -2.67426e-20)
(1.44687 -0.682637 1.09803e-19)
(2.46851 0.366692 4.33347e-21)
(-3.15688 1.44882 4.75227e-19)
(2.554 -0.863719 1.83715e-20)
(1.63887 -0.479609 -2.87853e-21)
(2.18313 -0.224387 -3.30282e-20)
(3.91108 1.49591 2.04581e-18)
(3.04575 0.309724 2.3706e-19)
(1.064 -0.521104 1.543e-19)
(-2.89898 0.860883 0)
(1.24834 -0.605855 1.13365e-20)
(2.97398 -0.35213 2.17563e-19)
(2.6242 0.0414441 5.01405e-21)
(1.10649 -0.532602 3.19865e-19)
(2.27713 -0.00951011 0)
(3.24678 0.431986 0)
(1.99976 0.02466 6.6564e-19)
(2.75749 0.171516 0)
(1.11097 -0.549566 8.91639e-20)
(1.87563 -0.302311 -1.46944e-20)
(1.88646 -4.794e-05 0)
(2.12612 0.00459556 -8.31838e-21)
(3.81421 -0.0797206 1.03629e-18)
(-0.391303 0.246958 4.00969e-19)
(1.97151 0.36144 0)
(-1.63309 1.135 -2.42873e-19)
(1.21348 -0.182588 6.678e-20)
(1.30523 -0.632961 -6.25435e-20)
(1.97074 -0.297685 0)
(2.31927 -0.831477 5.72713e-20)
(-1.9577 2.24591 1.92594e-19)
(2.05765 0.081207 3.05566e-20)
(2.79822 -1.4253 -1.36913e-19)
(2.262 2.38524 -9.39886e-19)
(3.29643 0.387212 2.14473e-19)
(1.82706 0.113884 0)
(1.86328 -0.295931 -1.44575e-21)
(2.36418 0.21922 3.03292e-19)
(-2.05237 2.10669 -2.36885e-19)
(2.75207 -0.587792 4.16151e-19)
(0.434572 -0.220806 0)
(2.58257 -0.813523 -1.5666e-19)
(-3.22758 2.01199 -1.35225e-18)
(2.22299 -0.000948177 -1.19038e-19)
(0.782504 -0.783913 0)
(1.53121 0.642384 2.52729e-19)
(2.00048 0.02083 -1.15119e-19)
(3.29019 -0.271217 0)
(2.33301 -0.147855 5.27002e-20)
(1.37398 -0.661659 1.4251e-19)
(3.78533 -0.20401 -5.83455e-19)
(2.32489 -0.756718 0)
(0.0558647 -1.51017 0)
(1.99085 -0.343215 -2.47264e-20)
(2.0026 -0.29486 2.32307e-20)
(-0.0602262 -1.75288 1.00675e-18)
(2.23704 -0.113908 -3.20325e-20)
(1.98558 0.0243758 2.43129e-19)
(2.17235 1.06767 -2.46468e-19)
(-0.568034 1.67693 5.35989e-19)
(1.28333 -0.283694 7.70191e-19)
(2.95426 0.351003 1.56406e-19)
(2.01697 -0.181226 8.21207e-20)
(2.36418 -0.303677 4.09664e-20)
(2.18204 0.0101565 0)
(-2.81577 0.79863 0)
(1.76821 -0.253422 1.52565e-20)
(1.52177 -0.720432 -9.81123e-22)
(1.99993 0.00388057 -4.50943e-20)
(3.07234 -0.352455 2.04694e-19)
(3.04671 -0.352006 0)
(2.15932 -0.0137985 5.80335e-21)
(2.38175 -0.130246 -4.28962e-20)
(1.98644 0.0144306 -2.18058e-19)
(3.09119 0.421537 -6.34603e-19)
(1.53617 -0.102152 -1.31172e-19)
(-0.731815 0.110512 2.89109e-20)
(2.05245 -0.287238 -1.99553e-20)
(2.11233 0.110704 8.91519e-21)
(1.6513 -0.0662241 9.80859e-21)
(2.17551 -0.942303 0)
(3.92652 1.34205 0)
(2.12175 -0.00503074 1.52779e-20)
(1.6469 -0.511659 -1.97262e-20)
(1.61193 -0.112454 0)
(1.63079 1.16249 -4.35973e-19)
(0.711726 -0.5288 0)
(2.123 0.884826 1.11336e-19)
(1.98239 0.346121 2.02859e-20)
(0.102945 2.15249 0)
(1.87317 0.280502 -1.7033e-19)
(1.75628 -0.244456 -2.26558e-20)
(1.89093 0.10288 -1.6661e-20)
(1.99638 -0.0772017 -2.87576e-19)
(2.70606 -0.805331 0)
(1.60055 -0.154142 5.79408e-20)
(1.78259 -0.237487 6.38917e-22)
(2.0231 0.0230025 5.092e-20)
(1.73449 0.0181077 -2.2005e-19)
(0.910396 0.39852 2.87201e-19)
(1.98163 -0.039315 1.49377e-19)
(2.40781 -0.113794 3.43726e-19)
(2.25114 -0.116544 0)
(2.48383 -0.149859 -1.05477e-22)
(2.44185 -0.0790199 1.11331e-19)
(2.00055 0.00371456 6.72387e-19)
(2.54143 -0.482329 0)
(1.87551 -0.110659 -5.03454e-20)
(1.5262 0.197819 0)
(2.59842 0.589423 9.10774e-19)
(2.17119 -0.51952 8.15285e-21)
(0.87095 -0.419121 2.05815e-19)
(2.62213 0.152903 3.52215e-19)
(2.00154 0.116332 0)
(1.84962 -0.294767 -2.09016e-20)
(2.63772 -0.811071 1.69781e-19)
(1.73574 0.0221721 2.078e-19)
(2.47051 -0.0623183 -3.46098e-19)
(2.25625 0.0200413 -1.36084e-20)
(-0.278117 0.667612 -4.2669e-19)
(1.93111 0.209223 1.15519e-22)
(2.29531 -0.0438068 0)
(1.22202 -0.4736 4.76647e-19)
(2.88451 0.831737 0)
(1.77389 -0.247034 -6.71779e-22)
(2.30863 -0.0233812 4.09794e-20)
(2.43037 -0.161298 -4.65118e-20)
(2.34749 -0.141982 4.45882e-20)
(0.238957 -0.10923 -4.96307e-19)
(1.99259 0.0171674 2.70402e-19)
(1.76961 0.0238241 0)
(-0.418515 0.633435 -1.92352e-19)
(2.30508 -0.0971937 1.14189e-20)
(1.68153 -0.489902 8.11529e-21)
(4.09311 -0.255335 9.12193e-19)
(2.25251 -0.0126241 0)
(2.00069 -0.155358 1.27025e-19)
(1.85788 0.0586451 4.56524e-19)
(1.99793 0.0234111 3.52176e-19)
(3.31648 -0.352732 0)
(1.86568 0.0195358 -3.04982e-23)
(3.1136 -0.348271 -2.04347e-19)
(-1.32455 -0.872537 1.09987e-19)
(1.72805 -0.145055 5.01977e-20)
(2.30369 -0.0899698 -1.08573e-20)
(2.0169 0.00681712 2.56252e-21)
(2.293 -0.0618162 0)
(2.30603 -0.326874 -9.45674e-20)
(-1.55568 1.35193 1.9742e-19)
(2.32721 0.383166 -1.16918e-19)
(1.99894 0.00450588 2.44123e-19)
(1.39941 0.0273171 0)
(1.80567 -0.254123 -2.49003e-20)
(0.273272 2.0706 0)
(2.85317 1.27583 -1.0149e-19)
(2.23664 -0.018301 0)
(2.56982 -0.62869 -1.13431e-20)
(1.49274 -0.234847 -1.13961e-19)
(1.52228 0.590258 5.75462e-19)
(-1.63438 -0.959331 -5.32932e-19)
(2.38549 -0.743863 0)
(2.31688 0.0538676 -1.84992e-19)
(2.00523 0.122635 -1.90622e-19)
(0.272521 -0.348327 -1.1994e-19)
(-1.68306 2.78762 1.52261e-19)
(1.7837 -0.132262 -5.34452e-19)
(3.26307 -0.203894 1.88295e-19)
(2.05793 0.138593 1.5545e-19)
(1.66177 -0.539916 0)
(1.47386 0.132353 2.66429e-19)
(1.58918 -0.00702629 -2.98307e-20)
(0.538411 -0.446987 1.5985e-18)
(-1.47447 1.17061 -7.04998e-19)
(0.493956 -0.529156 -2.80037e-19)
(2.99325 0.326 0)
(0.233151 -0.437825 0)
(1.85455 0.935098 0)
(2.21384 -0.0564239 0)
(3.75186 0.324639 -1.30935e-18)
(2.44968 0.575414 0)
(1.40886 -0.412464 0)
(1.76872 -0.00142986 8.27001e-20)
(3.03845 0.395083 -2.37565e-19)
(2.2777 -0.0667274 -1.45507e-20)
(1.75492 0.181013 8.2735e-19)
(2.00354 0.00760486 -9.67344e-20)
(2.00416 1.39085 0)
(3.20027 -0.0900468 0)
(1.97869 0.0143078 2.33653e-19)
(2.0358 0.0426992 4.24159e-20)
(1.35907 0.589196 0)
(0.370768 -0.195292 4.80389e-19)
(2.74099 -0.619506 -4.69127e-19)
(0.0478483 0.636923 0)
(2.28306 -0.00808957 1.63276e-20)
(2.01518 0.0175728 -2.702e-19)
(1.00201 0.779585 -7.86441e-20)
(1.21438 -0.463486 0)
(1.99404 0.126081 3.4048e-19)
(2.54515 0.243082 0)
(3.11879 -0.336539 0)
(2.16258 0.164069 -2.86173e-20)
(1.97825 0.0261442 1.31e-19)
(0.413814 -0.0936343 -5.55801e-19)
(2.1853 0.584273 7.91098e-20)
(1.53488 -0.444143 -1.7581e-19)
(2.22213 -0.0492461 1.31089e-20)
(2.06114 0.136081 1.24992e-19)
(2.43133 -0.327508 2.33244e-19)
(2.90295 -0.509668 0)
(3.6822 0.0524379 4.24244e-19)
(1.49372 -0.17938 0)
(1.77801 -0.254759 1.37512e-20)
(2.29523 -0.0122408 0)
(1.57563 -0.0634671 3.16781e-19)
(-1.27306 -0.876875 -5.80869e-19)
(3.2315 -0.203678 0)
(-0.183458 0.0850951 1.0262e-20)
(3.22768 -0.098519 -3.53323e-19)
(1.67218 -0.341545 1.35581e-20)
(1.95531 -0.291781 3.37785e-19)
(1.42683 0.559007 -3.6619e-19)
(1.52137 -0.436343 -5.22797e-19)
(2.97862 1.26398 0)
(1.61976 -0.0651697 2.77506e-20)
(-0.323013 0.79162 -1.01273e-18)
(1.99701 0.13085 0)
(1.87998 0.116252 1.81398e-20)
(2.92579 0.0399282 -1.04877e-20)
(2.42201 1.03821 0)
(2.00442 0.00850531 0)
(-0.104428 0.12081 0)
(-2.15883 2.0469 1.0375e-18)
(2.29297 1.41488 2.93185e-19)
(2.56311 0.602733 -3.35816e-20)
(2.10233 0.845959 0)
(1.87182 -0.224165 2.91227e-19)
(1.84749 0.0871126 2.30966e-21)
(2.18946 0.538676 -1.87912e-19)
(-0.747742 0.208908 3.05021e-18)
(1.93714 0.0783832 0)
(1.94387 0.229903 0)
(0.964092 -0.274754 -3.63722e-19)
(1.6318 -0.533283 -1.10672e-19)
(2.10318 -0.159052 0)
(1.70931 -0.797538 1.84463e-19)
(1.76369 0.0260031 -1.49866e-21)
(1.91395 0.163267 5.80506e-22)
(0.96794 -0.464831 0)
(2.07289 -0.0979218 9.43586e-20)
(1.61597 -0.0226213 2.59813e-20)
(2.54509 0.219804 -5.41521e-20)
(2.15981 -0.55034 0)
(1.31146 -0.314979 -1.16941e-18)
(2.39179 -0.150652 4.67818e-20)
(1.99743 0.0386137 6.64608e-20)
(1.7273 0.0233925 1.09905e-20)
(2.42344 0.691476 0)
(1.73667 0.180838 -2.20136e-19)
(2.89077 0.614797 -6.7386e-20)
(0.738196 -0.580986 6.49582e-20)
(2.00346 0.0181629 0)
(-1.86905 2.46322 -1.60553e-19)
(0.733371 -0.259966 0)
(2.00213 0.0188807 -2.67786e-19)
(1.99517 0.0174499 9.84078e-20)
(1.96031 -0.0118969 -4.49863e-20)
(-2.1171 2.05056 0)
(2.22694 0.0100297 -1.26509e-20)
(1.22754 0.223243 7.59135e-19)
(2.83074 -0.516061 0)
(1.74992 -0.0119123 2.54266e-19)
(3.07017 0.272988 7.22611e-19)
(2.17677 -0.0229574 0)
(-3.20944 1.83504 5.90206e-19)
(2.05961 -0.921359 -8.81991e-20)
(2.04124 0.00114569 0)
(0.765598 -0.494508 7.33774e-19)
(1.8724 0.108801 0)
(2.00501 -0.881393 -3.7426e-20)
(-1.85771 1.26235 4.43123e-19)
(2.1253 0.25562 -2.31683e-22)
(2.41043 0.164028 8.51788e-20)
(1.47555 0.115495 1.38094e-19)
(1.94929 -0.313341 -1.21924e-19)
(2.3838 -0.675453 -5.95105e-20)
(2.03598 -0.878737 5.00016e-21)
(2.28515 -0.0994502 6.41553e-22)
(2.4069 0.69416 -1.21203e-19)
(2.47298 -1.00289 0)
(1.99916 0.00206082 -2.16574e-19)
(0.187981 0.72233 -2.60371e-19)
(1.52272 -0.190632 0)
(1.46705 -0.0180675 -1.47309e-20)
(1.44677 0.00831874 0)
(1.41779 -0.466666 4.63483e-19)
(2.55024 -0.759659 0)
(1.62386 0.00407533 -9.62098e-21)
(2.32766 -0.0357356 -2.4611e-20)
(-3.34022 1.68566 9.8372e-19)
(-0.314934 0.194696 8.4415e-19)
(2.17025 0.00127042 -3.61348e-22)
(1.87844 -0.860365 -3.91563e-19)
(2.03366 -0.534091 5.76414e-20)
(1.67169 -0.407722 0)
(0.323506 -0.204918 -2.78446e-19)
(2.90041 -0.35764 9.22083e-20)
(0.335931 -0.227417 -3.2546e-19)
(1.91354 0.190295 -3.67388e-22)
(1.65816 -0.655018 0)
(2.19546 -0.0304782 -2.09659e-21)
(0.398585 -0.205428 0)
(-2.09161 0.527031 -1.66059e-20)
(0.957472 0.720517 8.39294e-20)
(2.19866 2.33875 0)
(2.37413 -0.431117 -3.20468e-20)
(1.03263 -0.451447 0)
(2.44107 0.975474 0)
(1.7739 -0.817664 4.74596e-20)
(1.55352 0.178117 2.16872e-19)
(1.69172 -1.25004 0)
(1.85918 0.0797276 -1.29688e-19)
(2.39218 0.416426 -8.69902e-20)
(-1.45288 1.46983 8.26885e-19)
(2.36266 1.24528 0)
(2.1656 -0.051555 0)
(-0.146775 0.607894 -4.31203e-19)
(2.01322 -0.128244 0)
(2.63004 -0.0202821 0)
(-0.777064 2.37744 -3.8453e-21)
(2.29104 -0.273825 3.99011e-20)
(1.96562 -0.446954 7.55085e-20)
(3.39768 0.413947 3.2566e-20)
(0.341575 -0.190316 5.9335e-19)
(1.9961 0.0149229 1.10638e-19)
(1.70756 -0.433016 0)
(2.09026 0.391717 -7.3119e-20)
(1.58628 -0.303952 0)
(2.34752 0.0177694 0)
(1.99493 0.0550803 0)
(2.15238 0.144802 -2.33871e-20)
(1.98157 -0.0780625 1.35439e-19)
(2.69941 0.152772 1.37234e-20)
(1.75814 -0.42814 0)
(0.215929 -0.0763397 -4.06246e-19)
(1.89062 0.880753 1.64214e-19)
(2.18574 -0.709702 -5.27819e-21)
(2.27293 -0.222911 -1.43816e-19)
(3.71646 -0.250098 1.00422e-18)
(2.0679 0.0621166 -1.52292e-19)
(-1.25242 -0.779575 0)
(2.3661 -0.135001 0)
(1.45459 0.578617 0)
(1.41246 -0.644229 -3.02922e-19)
(-1.89573 0.24929 -1.30055e-18)
(2.0917 1.91634 0)
(2.1114 0.405427 0)
(2.22366 -0.304171 1.14801e-19)
(1.98712 -0.0170062 -2.15165e-20)
(1.84897 0.471475 3.15809e-19)
(2.62952 -0.945773 0)
(0.585447 -0.2502 -1.52223e-19)
(2.35159 0.0643644 1.05294e-19)
(1.59501 -0.499993 -2.76578e-19)
(2.1997 0.0512844 -1.49773e-19)
(2.18155 0.544311 2.4534e-19)
(2.892 1.24983 9.77106e-19)
(1.406 -0.651813 5.33058e-19)
(3.21213 -2.15707 1.01031e-18)
(2.84594 0.255542 -9.76386e-21)
(2.00156 0.00340027 -5.11747e-20)
(1.58435 -0.70866 7.32503e-20)
(2.08701 -0.857185 3.75178e-20)
(1.43144 1.53153 -1.51022e-19)
(1.698 -0.784041 -7.65055e-20)
(2.50453 -0.136492 0)
(1.53736 -0.42544 -7.89197e-21)
(2.19256 -0.0506166 -3.22822e-19)
(2.66598 0.801041 1.64055e-20)
(1.56319 -0.469042 -2.63173e-19)
(2.15593 -0.681416 1.87298e-20)
(1.93531 -0.00469947 1.18339e-19)
(2.37639 -0.0379012 -6.75573e-20)
(1.26067 -0.404022 -9.45328e-20)
(2.93298 0.350357 -8.71216e-20)
(1.33436 -0.287509 -7.00377e-19)
(2.11063 -0.0367753 -2.72769e-19)
(1.32582 -0.349799 0)
(-3.38313 1.50719 -1.97634e-18)
(1.94481 0.0369487 2.92812e-19)
(1.43313 0.00259031 3.38994e-22)
(-0.574553 0.54676 0)
(2.15357 -0.916337 0)
(1.98025 0.332753 2.84679e-19)
(1.20997 -0.295965 4.50361e-19)
(0.3147 1.40431 -2.22973e-18)
(2.59878 -0.610674 1.70936e-19)
(2.43394 -0.110921 -1.95602e-19)
(2.94527 0.801497 0)
(1.98144 0.367075 1.63205e-19)
(-0.425303 -0.13394 -2.54308e-20)
(2.24587 0.935646 -1.34477e-19)
(2.15514 -0.222812 -8.39048e-20)
(0.404241 -0.232766 -9.6546e-19)
(3.67142 -0.343799 -9.23167e-19)
(3.69874 0.0353816 1.99231e-19)
(2.04277 1.00471 0)
(2.89614 -0.679169 -1.29451e-19)
(1.97147 -0.0118309 3.91664e-20)
(1.86704 0.0596883 -1.04366e-21)
(0.965895 -0.470525 5.32051e-19)
(2.13273 -0.227245 1.28629e-19)
(1.81583 -0.228482 1.35644e-20)
(-1.4126 1.30048 -4.82886e-19)
(2.75055 -0.230668 -1.62435e-19)
(2.24435 -0.0334943 2.4419e-19)
(-0.366936 1.38921 -6.69433e-20)
(2.17559 0.876785 3.04455e-19)
(0.95217 -0.509469 -7.95785e-19)
(1.14098 -0.555067 -1.22354e-19)
(1.89528 0.0509768 0)
(2.70096 -0.0984331 7.38401e-20)
(-1.28745 2.40983 -3.34804e-19)
(1.49139 -0.258473 6.05499e-19)
(2.25483 0.191473 0)
(1.58327 -0.212017 1.39922e-19)
(1.37393 -0.594298 1.29655e-19)
(1.99864 0.00933753 -4.77875e-19)
(0.104267 0.115388 -4.78302e-19)
(1.69265 -1.19291 -1.91321e-20)
(2.28355 -0.0633299 7.94867e-21)
(2.27603 0.0570135 2.77792e-19)
(2.04176 -0.893374 9.33246e-20)
(2.7335 0.170287 -2.33383e-20)
(-1.81336 0.441532 -3.28822e-18)
(2.10357 -0.0499589 3.02946e-19)
(2.21785 -0.0437734 -5.94249e-20)
(2.1175 0.0711231 -3.7237e-21)
(2.15139 -0.0193171 -1.04742e-19)
(1.31214 -0.600151 -2.51269e-19)
(2.8036 0.270121 0)
(-2.83498 1.71845 9.71264e-19)
(2.13234 0.0675921 2.9587e-20)
(1.25793 0.778372 -5.40567e-20)
(2.38005 0.0439101 8.42217e-20)
(2.40893 -0.180882 9.48595e-20)
(2.00034 0.00609105 -4.21472e-19)
(2.05177 0.247851 9.40671e-20)
(0.371884 -0.182501 -4.94002e-19)
(2.66916 -0.0157036 0)
(1.80917 -0.258642 1.33195e-20)
(2.44726 -0.179205 4.76101e-20)
(1.66787 -0.639318 0)
(2.1115 0.0508749 2.01842e-19)
(2.49391 -0.159786 5.24402e-20)
(2.63387 -0.00550307 2.22431e-24)
(3.73616 -0.521829 7.36174e-19)
(2.28471 -0.245088 0)
(1.80127 0.222195 4.25465e-19)
(1.88098 -0.264796 -2.29038e-20)
(1.62563 -0.76541 -7.89723e-20)
(2.16075 -0.142238 0)
(1.55343 0.142007 -6.22325e-19)
(0.250591 -0.474148 -1.50462e-19)
(2.16265 1.26689 8.06246e-20)
(1.34567 -0.310361 6.76664e-19)
(2.1984 0.0103203 -1.14385e-20)
(-0.259879 0.234383 6.09267e-19)
(2.06739 -0.107382 -1.70742e-19)
(3.53648 0.10501 -5.07734e-19)
(1.85173 0.0596361 -2.65545e-19)
(1.96264 0.0192496 0)
(2.005 0.0103512 -1.91075e-19)
(2.31065 0.524739 6.32142e-18)
(-0.31614 0.447181 0)
(3.98955 0.307523 0)
(1.86778 0.0588706 0)
(0.967876 -0.594033 0)
(2.01489 0.235166 0)
(1.27392 -0.285026 0)
(3.02655 -1.22863 -1.04117e-20)
(2.7242 0.785675 -2.10236e-21)
(2.49044 0.394725 0)
(1.78347 0.220007 6.40639e-19)
(0.83049 -0.960139 2.1584e-19)
(2.04936 0.139908 3.22792e-21)
(-1.12093 2.45131 -1.33484e-19)
(1.26259 -0.0849231 2.54532e-21)
(0.343345 -0.155949 4.30111e-19)
(1.64001 0.00866015 -2.3166e-20)
(2.8271 0.0800571 9.18686e-21)
(1.99841 0.215743 -1.91322e-19)
(1.90467 0.0943849 -3.77859e-19)
(1.84863 0.800246 -3.0583e-19)
(2.85684 1.21104 0)
(-1.74541 1.64541 6.88059e-19)
(1.44353 -0.48415 -5.07255e-19)
(2.01269 0.020974 -5.82371e-19)
(2.90329 -0.389829 8.54137e-19)
(2.02406 -0.0117531 2.03909e-20)
(3.46989 0.391861 -9.59239e-19)
(2.29888 -0.165013 5.42798e-21)
(2.37778 -0.410037 1.12391e-19)
(2.0078 0.109538 1.98486e-19)
(1.58351 1.04381 0)
(2.34049 -0.596597 -5.02134e-20)
(1.78838 -0.0206792 -7.96322e-20)
(2.34529 0.558507 0)
(2.0226 -0.302071 0)
(2.16423 -0.936306 -7.60467e-21)
(-0.698153 0.36404 6.81496e-19)
(2.97352 -1.35274 -5.70442e-19)
(1.89662 -0.0507391 0)
(2.02237 -0.0756384 -2.60563e-19)
(1.85101 0.112377 -7.29637e-20)
(-3.28303 1.48449 6.02274e-19)
(2.55619 -0.0936374 1.71922e-20)
(0.277049 -0.108904 0)
(-1.711 1.46887 7.39688e-19)
(2.53599 -0.130606 0)
(2.87852 -0.738837 1.41348e-19)
(1.9641 -0.143959 -8.5973e-20)
(2.00402 0.00679752 3.91055e-22)
(2.22319 0.612146 -4.15166e-19)
(2.37607 1.14854 -2.00395e-20)
(1.97681 -0.522472 1.46084e-19)
(-1.59556 1.53333 0)
(0.952379 -1.54171 -2.75475e-18)
(0.926829 -1.92391 0)
(2.54557 0.399614 1.38964e-20)
(-3.26605 1.43426 1.30666e-18)
(4.31889 0.223651 1.09333e-18)
(1.83229 -0.261581 -1.38273e-20)
(-1.71609 2.36936 -1.10955e-18)
(1.41607 -0.686707 9.12614e-20)
(1.48456 -0.485899 -2.80839e-19)
(1.58622 -0.0243717 1.0558e-20)
(1.608 -1.62532 2.25976e-18)
(1.35422 -0.616135 2.07882e-19)
(1.5406 -0.503719 2.95414e-19)
(-2.16009 0.572082 1.47115e-18)
(2.53808 -1.13426 -1.30326e-18)
(2.12176 -0.59119 5.82379e-21)
(-1.63396 -0.861607 4.98109e-19)
(2.5279 0.0455341 -1.06361e-20)
(0.803183 -1.03888 -1.77286e-19)
(2.24195 0.389579 -1.09347e-19)
(2.66123 -0.208631 0)
(0.812369 -0.560121 -6.28755e-19)
(2.10158 -0.0462379 -3.64775e-19)
(1.9926 0.0608534 0)
(2.52256 0.376007 0)
(-0.0289247 -1.66078 -1.44158e-18)
(3.566 0.535469 -3.71747e-19)
(2.36646 0.226911 -2.26161e-19)
(2.28135 -0.268679 -5.5408e-20)
(1.84259 0.77438 2.63132e-19)
(1.37783 -0.0210633 6.30158e-20)
(-3.06581 1.52561 -1.82546e-20)
(1.76441 0.459079 0)
(1.57352 -0.53043 2.71783e-19)
(-0.276627 0.164021 1.15189e-19)
(-1.78573 2.26981 8.60453e-19)
(1.98751 -0.719304 1.14821e-20)
(2.36681 -1.00799 3.41094e-19)
(1.56025 -0.0136028 4.37379e-20)
(1.92156 -0.252221 1.00788e-20)
(3.23799 -0.406941 4.95334e-19)
(-2.89474 1.52447 -7.16849e-19)
(2.351 0.215877 1.7007e-19)
(2.00104 0.0143533 1.32315e-19)
(1.31661 -0.341209 -2.77309e-19)
(2.01911 -0.107018 1.53028e-19)
(1.13688 -0.413399 0)
(2.32654 0.375691 2.07063e-19)
(2.02126 0.0242011 2.99998e-20)
(1.6489 -0.382287 -9.06e-20)
(1.6267 1.41786 -1.27892e-19)
(2.08214 -0.585482 2.64091e-20)
(2.14405 0.0301457 4.93203e-20)
(1.49036 -0.0096069 -4.47756e-19)
(2.40789 0.512799 0)
(1.82399 -0.237158 -2.90194e-20)
(2.21185 0.0729505 2.03199e-19)
(2.49512 -0.250304 0)
(1.52859 -0.0957281 2.44987e-19)
(2.56596 -0.0959031 0)
(1.53702 1.40424 5.28108e-19)
(2.31217 -0.0190296 0)
(2.33883 -0.657445 0)
(2.39882 -0.0441566 2.12129e-20)
(2.34869 0.169274 1.34641e-19)
(2.85283 0.431038 -9.13736e-20)
(1.94337 0.0659245 -1.74725e-19)
(1.51032 0.88074 -1.80285e-19)
(1.99584 0.0424426 -8.36747e-20)
(2.03552 0.244661 0)
(-0.893555 -1.17101 -3.10652e-20)
(2.45778 0.166007 -9.06538e-20)
(2.80374 -0.742033 -2.81834e-19)
(2.63545 -0.203586 0)
(2.69856 0.792826 3.79039e-20)
(1.90251 1.36773 -2.1823e-20)
(2.49289 0.0354281 -4.48466e-20)
(-0.00906007 2.55837 0)
(-0.640966 2.44056 3.93574e-19)
(2.02357 0.111179 0)
(3.18544 -0.329288 -2.33734e-19)
(-0.335246 0.207508 0)
(1.72327 -0.218677 0)
(3.02784 -2.13763 0)
(2.47091 -0.769665 0)
(0.380693 0.3298 -6.75182e-20)
(-2.29384 2.00324 -2.38153e-19)
(1.9733 -0.0692675 -2.04197e-19)
(-3.55901 1.6194 -1.24632e-18)
(1.43652 -0.639666 0)
(-3.09388 1.35164 -8.67909e-19)
(-0.486741 0.292442 -3.96064e-19)
(1.73391 -0.801308 0)
(1.6669 -0.600981 -2.49252e-19)
(1.57344 -0.261299 -1.0287e-20)
(2.23239 0.371372 2.84092e-19)
(3.36254 -0.584582 -5.95708e-19)
(1.8995 0.0816719 0)
(2.72673 -0.545675 0)
(3.07154 0.554038 6.72375e-20)
(2.07523 -0.760201 7.90751e-21)
(1.65822 -0.0806802 -1.99709e-20)
(0.103997 -1.78795 4.11761e-20)
(2.00031 0.00275519 1.42765e-20)
(2.76365 -0.0270256 4.19119e-21)
(2.0081 0.109261 2.83935e-19)
(1.79652 -0.236205 1.42744e-20)
(2.16025 -0.497615 0)
(0.808178 -0.0883189 0)
(2.7288 0.164118 0)
(1.63921 0.0224441 0)
(1.9258 -0.347088 9.17993e-20)
(2.95268 0.177841 0)
(-0.372612 1.54359 7.52216e-19)
(2.47145 1.36735 1.20114e-19)
(1.51201 -0.520999 -4.49518e-19)
(0.741274 -0.858357 -1.13699e-19)
(-2.75806 1.70886 -5.03974e-19)
(-0.302299 1.36125 -3.75032e-19)
(1.89632 0.0517826 3.92608e-20)
(-2.59202 1.61288 -5.50308e-19)
(1.78259 -0.23323 2.31414e-20)
(2.44953 -0.0339732 0)
(2.43675 0.086106 0)
(1.32806 -0.701493 0)
(2.42204 -0.201209 -5.68e-20)
(1.94688 -0.720416 0)
(1.7788 0.469416 0)
(2.0025 0.00504663 0)
(1.98736 -0.452521 7.06755e-20)
(2.05023 0.142291 -3.10793e-19)
(1.53421 0.0325971 0)
(3.17634 -1.10868 -4.77244e-19)
(1.97488 0.102273 -2.40042e-19)
(2.26028 0.868395 2.77435e-19)
(1.76846 -0.812495 7.12929e-20)
(1.84184 0.522233 3.17645e-21)
(2.0541 -1.08773 -8.63875e-21)
(1.96983 -0.332673 2.4398e-20)
(2.43008 -0.850337 -1.25716e-19)
(2.32899 0.172832 -1.81043e-19)
(1.64625 -0.0568138 -4.54628e-20)
(1.89665 0.00400266 -2.36766e-19)
(2.11001 -0.0485128 0)
(1.18228 0.71361 3.87008e-20)
(2.0019 0.0202149 2.5514e-19)
(-0.286983 -0.451122 -1.0453e-19)
(2.28725 -0.162876 7.88222e-21)
(1.23862 -0.311844 -4.91544e-19)
(2.34828 0.15486 3.05098e-20)
(2.90213 0.649507 9.67479e-20)
(1.99527 0.0368947 0)
(1.45742 -0.396826 -2.58775e-20)
(1.89152 -0.103888 -1.17649e-20)
(2.4834 -0.865837 2.75418e-19)
(-1.29184 0.43514 -3.44486e-18)
(2.12969 0.0307565 1.02469e-19)
(2.80831 0.210954 8.60132e-21)
(2.26914 0.0171679 8.57498e-21)
(2.67577 0.172411 0)
(0.682583 -0.431904 0)
(1.57213 -0.746593 1.27382e-19)
(0.0972655 0.0906066 5.14579e-19)
(1.88752 0.0308295 1.06158e-22)
(2.00379 0.0227618 5.02152e-19)
(1.45749 -0.405105 8.22044e-20)
(1.53131 0.125502 0)
(1.87218 0.0134353 0)
(1.79007 -0.414935 -9.17013e-21)
(2.32021 -0.014675 3.21506e-20)
(1.87592 0.515386 4.48692e-19)
(2.19271 -0.0474048 0)
(2.12834 0.00749132 0)
(2.46402 -0.464952 -3.00909e-19)
(2.13644 -0.139575 9.65382e-20)
(0.388841 -0.334339 -7.36427e-19)
(1.77741 -0.130576 0)
(1.41861 -0.272276 1.08787e-19)
(3.75655 -1.00762 -2.12274e-19)
(-1.3204 2.28929 -3.7237e-19)
(2.11848 -0.0297983 -1.93967e-19)
(3.07162 0.745345 0)
(3.57759 0.545855 3.06746e-19)
(0.355538 2.46568 -1.25068e-18)
(0.0735256 -0.21316 0)
(1.68235 0.0229995 -3.36746e-20)
(1.95667 0.0436684 -1.72488e-19)
(1.61437 0.018561 -1.85397e-23)
(1.91833 -0.0619498 4.8496e-20)
(1.19704 1.03714 1.48742e-19)
(1.87663 0.0438885 0)
(1.23657 -0.495553 -6.76317e-21)
(1.40897 -0.401262 -7.67496e-20)
(0.474005 2.1957 -3.94448e-19)
(2.00543 0.219399 2.27053e-19)
(-1.39778 1.52098 3.39155e-19)
(2.08507 0.0264703 -4.50375e-19)
(1.78091 -0.22425 -6.09751e-21)
(1.8915 -0.305096 1.61578e-20)
(1.93818 -0.419038 0)
(1.72446 0.0259548 -7.49423e-20)
(1.28179 -0.604069 1.65463e-19)
(2.29849 -0.0362608 -6.05665e-20)
(2.02104 0.0241855 -2.25438e-19)
(3.15887 -0.364511 2.01957e-19)
(1.81738 -0.222055 4.56624e-19)
(2.41715 0.0381952 1.29705e-20)
(1.85664 0.0191016 1.44881e-19)
(1.46517 -0.0488246 -5.07251e-20)
(3.35282 0.457413 -3.51557e-19)
(2.18507 0.950023 2.31715e-19)
(0.592442 1.45711 1.77111e-18)
(1.86146 -0.00888231 0)
(1.4834 -0.610935 0)
(3.5624 1.42084 0)
(1.50694 -0.490791 3.5666e-19)
(2.16438 0.0647421 -3.68523e-19)
(1.83631 0.123049 0)
(1.69522 -0.391687 -2.50742e-19)
(1.83554 0.0979738 0)
(1.93166 -0.316735 -1.49582e-19)
(2.78643 -0.783542 -3.1932e-19)
(2.12 -0.473384 -2.1341e-20)
(1.95216 0.0440252 0)
(2.01105 0.00995652 0)
(2.55558 -0.266854 1.31889e-19)
(2.47469 0.337376 -4.32285e-21)
(2.93099 0.00204492 9.80933e-20)
(2.0193 1.45891 -9.87403e-21)
(2.07057 -0.0263574 0)
(1.997 -0.698345 -1.49373e-20)
(-0.241467 0.449825 0)
(0.951154 0.617283 -3.12182e-19)