/*--------------------------------*- C++ -*----------------------------------*\
| =========                 |                                                 |
| \\      /  F ield         | OpenFOAM: The Open Source CFD Toolbox           |
|  \\    /   O peration     | Version:  2306                                  |
|   \\  /    A nd           | Website:  www.openfoam.com                      |
|    \\/     M anipulation  |                                                 |
\*---------------------------------------------------------------------------*/
FoamFile
{
    version     2.0;
    format      ascii;
    arch        "LSB;label=32;scalar=64";
    class       volScalarField;
    location    "3";
    object      p;
}
// * * * * * * * * * * * * * * * * * * * * * * * * * * * * * * * * * * * * * //

dimensions      [0 2 -2 0 0 0 0];

internalField   nonuniform List<scalar> 
13486
(
61.4548
49.6992
17.3041
-0.28354
30.1721
2.77789
20.5703
42.0152
47.2056
27.7215
-220.206
25.7651
64.3443
2.01992
25.3442
29.043
-117.967
-51.2911
27.853
56.2695
-4.60901
63.8747
48.8917
-33.5411
24.3576
-22.9947
-128.44
3.59174
0.59978
11.9696
-16.1532
20.3606
-23.844
21.5958
42.0392
0.171178
-0.28547
53.8284
-113.389
46.6114
18.7283
66.4872
2.87307
24.9321
24.4595
25.667
-83.8654
0.988323
-0.380607
-7.25979
38.2136
-30.1724
21.629
54.4421
-90.1464
31.1444
4.10521
-51.0235
-21.8141
0.307607
-249.283
0.712562
-64.6618
-5.42342
-62.0909
-0.12286
-6.26678
60.9365
47.0536
-6.86154
-5.62847
-102.116
46.824
-118.927
0.533468
5.68344
1.36753
24.9259
-87.4739
-88.8017
0.159895
49.9408
-66.9096
19.3447
61.7167
30.138
2.95324
36.5321
42.8438
32.2025
15.7868
38.3877
59.798
53.3684
48.605
-0.147536
-134.086
-23.7999
46.5722
-119.567
0.367264
3.81364
-26.5229
-39.9086
40.9813
-117.975
43.5058
-166.592
-89.7323
37.3673
47.2494
17.2028
54.3949
3.0374
69.6295
47.0554
25.1234
23.4791
47.0734
-0.0590353
-52.7256
-248.064
50.0927
-137.849
46.1066
-30.2324
37.8221
15.1037
24.2836
-52.5264
-25.4532
-85.1794
-92.7563
-104.509
39.6999
35.8532
68.9379
37.7477
-0.134456
42.7307
-17.0316
22.3717
22.9757
-83.1607
5.66245
-72.2922
26.9267
64.6964
-8.56602
-0.0204495
26.7305
24.8006
0.0742251
51.1031
16.6047
17.2743
32.6956
23.817
50.3964
7.65788
-4.75332
50.359
1.3581
65.7422
-34.8691
-4.67112
7.40479
79.4387
26.8907
-104.218
-104.859
16.7997
31.0921
31.9398
0.264806
-125.571
-1.49402
-24.357
43.7736
23.2708
45.2338
3.45634
28.2376
-171.088
22.73
3.11673
-0.527307
14.8547
18.9933
49.6895
-0.0899607
12.3286
-92.7964
56.0779
-111.087
-212.606
-83.8275
-3.53363
57.9867
-1.94921
-19.8934
14.689
53.788
30.1431
7.48906
-96.2644
-47.5881
48.4372
-106.098
22.3339
9.88652
-25.4142
55.6457
43.455
2.83722
5.47502
9.5195
32.8006
57.6718
-39.2531
-118.678
-9.02226
43.3322
-4.70417
21.9615
60.8754
-3.20655
-48.2098
7.72107
2.82392
44.8408
-22.8163
-18.4141
67.7862
-19.5993
59.3025
20.4712
12.8315
59.8107
29.6463
-23.4893
30.8085
4.87192
57.5313
-127.749
48.7433
30.9373
-5.9706
-100.465
27.2937
-97.3095
70.2183
45.3373
-193.699
-49.2511
-149.763
20.0236
-16.8661
16.2229
-22.5004
46.4418
-95.7014
25.0626
-144.541
32.3069
-174.873
1.17695
-16.288
44.4787
-43.1823
45.2367
42.5038
8.60392
24.8182
61.116
-4.46207
-47.0478
-181.682
-260.17
26.7341
-167.174
41.3851
43.9816
-64.8426
-243.874
-118.192
-19.0777
22.1339
22.4637
44.5577
-15.0183
-7.42346
49.1524
39.9169
22.572
17.7243
-4.22531
25.1373
44.9835
18.6121
0.783277
-48.1097
27.7033
21.0215
-0.877033
26.8218
6.31758
31.3694
-10.6565
0.0741459
-66.3501
1.76981
5.02954
16.6424
-156.117
36.3319
-5.69982
42.8615
48.4677
0.352524
-0.0606453
-12.59
43.3533
53.5605
70.734
15.0749
34.9074
40.9243
25.3546
33.4348
36.72
37.3922
12.753
56.519
17.7172
46.7992
72.69
25.561
28.5983
-84.0463
7.03785
52.957
32.8484
28.4907
-188.57
-0.123664
36.3486
70.2062
-39.431
-9.37686
36.0026
25.34
24.9262
-143.634
44.6872
-0.139444
-127.808
37.659
-24.4168
-19.695
27.9402
15.0895
47.3085
42.6284
10.2617
0.0769498
20.0671
-84.7893
56.6224
37.9618
2.44722
36.7128
22.4082
-119.127
4.21791
38.6328
43.1216
-24.7241
-147.814
-64.0101
44.293
36.5616
63.7544
46.5679
-82.37
-34.4125
9.75241
28.0976
-115.028
-4.46598
54.9092
5.85103
21.4116
59.8631
59.6655
0.421304
-1.26201
-110.071
-116.42
-19.5241
-114.869
18.9681
43.1211
5.00607
20.0881
19.2563
52.893
-22.9601
37.7668
47.6915
27.0219
-6.83498
0.98172
44.9761
42.9939
53.6141
-165.199
32.8174
-112.866
29.9259
43.7319
-4.27961
70.3316
29.6764
-4.49425
17.5002
14.3274
43.8815
-126.914
9.04708
63.4331
43.1343
20.9663
23.1242
29.5118
-10.4988
63.3883
-11.7019
32.4472
60.0424
-104.342
7.60321
-100.908
0.803285
14.1633
52.1509
51.4256
63.5276
-65.2119
-0.326779
-193.059
29.17
43.4301
-6.2175
-17.9316
42.0387
-84.4313
-123.563
-68.9667
-68.4453
6.77846
54.0063
0.29185
9.61335
-0.15248
41.4198
-0.353539
75.4328
60.5351
46.8371
40.7098
0.507181
0.772488
72.3952
-0.361613
0.0518092
-4.63395
47.0291
-116.404
25.0925
31.8912
-0.377899
-7.40914
48.32
-32.2035
-117.691
29.9633
-4.86232
78.8183
30.3636
38.4786
47.1416
-130.381
20.8236
65.1022
30.5281
53.9317
19.7141
16.6241
-19.7973
-104.785
3.04114
-118.186
44.0291
46.8879
-97.8979
1.10469
1.81161
60.1965
52.4426
-39.8626
47.4622
38.3769
-6.78358
32.7927
38.7995
-94.9045
62.8269
1.13858
-6.6842
65.8076
37.0841
0.0791363
36.4621
-27.7207
-66.421
29.0585
35.5326
50.409
60.0802
-175.353
28.6093
-176.024
0.561341
59.1002
16.4548
-169.344
-33.2523
-2.91663
19.3797
40.6961
-63.6349
-17.7642
47.4362
56.0002
-114.988
46.4655
-72.3508
-141.727
-27.3778
20.4302
-202.832
48.9237
20.8339
-256.628
42.1833
52.2272
-22.5761
-174.608
38.6708
58.8366
18.139
61.7875
20.4203
30.3216
14.6391
48.413
4.34954
57.7751
-135.794
19.8922
46.0737
23.881
-1.38896
43.398
-105.746
25.0246
52.2871
63.8331
-65.3074
6.80942
16.8846
19.3945
43.0742
32.6764
25.2788
-178.33
7.87717
61.6197
12.8226
10.0971
-62.6635
64.0205
-47.8178
3.30627
41.4678
39.1688
-93.6864
15.9741
42.9809
25.0411
24.7921
19.6981
-24.5598
62.5905
46.7973
37.2164
37.7502
8.93695
-19.9821
67.931
17.5306
68.1584
-42.8651
44.6
0.258782
-121.722
35.7037
27.0322
70.6474
-71.6821
35.8181
34.2329
-41.8397
26.6553
-39.9036
-3.67455
45.9558
-175.907
1.72096
-10.0636
7.0458
25.574
46.9924
0.170319
67.3297
46.4509
5.01353
-135.785
10.4199
18.0321
-237.927
1.75985
-119.41
59.1744
0.0165634
4.16115
-238.985
64.1116
-0.728284
2.31312
66.0461
38.5114
-155.836
-102.908
37.3513
10.2597
46.0344
4.66845
-70.4953
19.4877
43.483
17.0498
40.8481
66.7865
3.79898
-79.7522
43.2777
-0.9711
2.2386
36.6296
33.0092
22.1582
-158.426
20.7489
-25.5278
25.4402
58.9849
17.3685
25.4774
19.5635
15.5385
-69.82
43.8109
6.48127
44.8095
44.7642
56.8089
-47.8728
-11.8044
67.6397
2.13737
-81.1856
47.1031
-9.06855
47.9451
5.39293
41.6371
0.0701396
-114.353
-25.475
0.141229
-118.998
25.6418
69.1171
13.7608
-63.5459
-4.71125
44.0539
-65.6814
22.0829
-254.354
68.115
-154.019
32.5394
-7.06265
27.2172
43.015
24.1581
-57.2408
-2.34168
65.2755
42.5485
28.0888
43.1897
13.8194
39.8791
40.3374
27.6403
-90.0692
-53.0319
52.4456
18.4399
-200.457
42.0009
-65.6698
0.0811293
-18.1117
47.792
45.2208
-54.2203
23.2859
-143.183
-2.99351
24.5211
20.0513
14.7659
41.483
6.91942
-21.3782
52.1376
-18.4392
-82.7429
-290.643
-7.60559
-52.4544
-22.8802
-41.7337
-180.258
46.2951
64.284
0.296823
-74.7437
66.1143
62.8346
-64.0704
-44.2089
48.1214
-89.9707
6.95453
-87.1912
8.41689
31.8499
-118.742
21.6332
30.6116
-5.90291
-107.635
-27.0528
3.30641
42.3607
25.255
35.5179
-66.7876
38.4899
61.7222
-133.554
-171.516
50.8658
26.5699
36.4076
-112.519
15.0229
-70.5132
3.88885
44.7308
68.3298
48.6805
9.21719
3.9675
43.4642
60.3213
11.2272
49.0537
44.6077
61.7208
19.5625
-25.7771
12.2791
20.1458
61.0826
23.6398
23.0323
36.8159
-47.3691
26.0403
4.7635
-22.0167
41.309
42.6096
31.6241
23.6472
-92.3651
-0.121573
14.8311
31.8125
-26.4682
-0.627066
5.51205
-133.9
-253.249
25.2896
13.5628
-99.99
-75.1349
-55.7175
38.823
-194.316
-112.898
48.8238
-27.5365
64.0539
-52.1165
-102.659
52.6361
59.3408
1.92218
9.25592
21.5796
44.1769
33.1463
-46.3796
-124.679
-0.862219
-155.385
41.549
5.40268
27.4928
-17.5878
47.0349
-132.51
4.82787
-0.0743678
53.2149
-11.1958
-227.32
-58.5793
63.5631
-54.5693
-81.7917
-185.424
44.564
-97.578
-11.2377
25.7052
28.6152
-25.5409
36.7026
-71.0649
37.356
41.8967
51.6875
22.5182
-10.5393
18.5483
33.8304
-2.84471
53.1965
32.5142
-80.3272
-239.726
-14.9029
5.45185
-0.588194
48.3871
20.3294
4.80516
43.1342
-63.521
40.3078
70.021
4.72843
-33.3961
30.818
23.6108
-21.3415
-19.6039
-1.73051
44.7641
4.32246
2.29347
4.03557
-25.5553
55.7951
-146.389
0.0603955
43.3081
22.461
57.7305
48.582
56.8796
25.8809
31.1535
24.0009
15.0175
38.6751
45.7059
-14.2938
23.5178
-85.2823
5.08203
-229.788
45.4742
-58.8698
-30.301
-124.01
-18.9924
-0.420045
43.4183
0.42333
13.2987
-97.4178
43.1732
69.7325
22.2754
-142.844
26.7395
-21.0475
44.6827
6.04529
-135.824
52.7725
-10.309
66.8535
36.905
43.1297
14.5142
55.113
7.1854
48.7031
1.05778
-23.3054
-1.48207
-72.6321
36.1734
-10.6608
-12.59
63.8199
43.054
45.8429
59.2962
46.8247
53.1186
20.527
48.0642
43.0453
44.9703
15.1181
-3.33899
-4.82713
-8.27949
19.5124
50.809
-116.779
70.0153
-22.3215
4.25139
67.7014
59.102
22.1606
-55.725
46.537
25.3136
10.1897
44.7896
-109.949
-6.00434
43.043
58.358
-124.148
50.2104
54.5899
0.0665256
-4.42498
54.3166
29.5567
-0.273778
-190.455
19.3863
-20.8353
40.408
36.9701
-2.41208
-29.7207
5.89628
19.9542
-18.7769
25.8316
59.4979
-23.4335
74.6106
45.5767
27.5321
49.3856
-158.796
-97.3976
-85.5808
44.731
-133.904
-104.655
-28.0698
23.6606
27.7079
-62.3629
37.9447
-84.1009
30.6199
-39.262
-17.5925
40.5083
24.5587
55.7441
44.3537
44.8821
45.1781
22.3911
-15.964
-11.6533
20.0582
-68.8636
10.8259
40.1094
-30.3383
-7.31372
-2.16739
-3.79173
-252.655
37.5738
23.9287
14.5303
3.90473
29.8302
-9.46043
-11.7152
24.9531
2.60213
50.1531
33.2124
55.7719
-103.243
39.352
4.57215
58.0995
9.12008
25.2867
-20.9481
2.76971
65.4475
66.8247
40.8325
32.2582
31.1891
44.2826
66.2234
36.4404
-19.978
-247.853
25.2958
-16.3953
-86.9758
43.1299
44.6225
-11.9486
22.4781
41.5463
43.4712
71.0272
-68.4075
34.8508
-117.474
11.1829
58.5478
1.28256
41.1453
-64.4408
27.6636
28.9287
73.3638
14.0885
-4.10255
24.0838
24.9325
-198.306
-106.277
-47.9962
47.1153
12.7609
32.2907
62.6992
58.2111
-83.5059
-55.2818
10.3666
12.8004
52.2469
44.3466
58.7665
34.7033
-190.342
60.8649
44.0502
-41.7647
39.2569
43.9961
54.8095
-134.771
1.6013
1.90233
37.3247
65.503
32.4284
-4.17505
-20.6463
71.1398
-149.821
-17.0151
67.3872
38.3715
8.19496
39.9701
-3.70291
32.1212
-0.4425
-154.58
-57.9384
-103.636
8.94656
10.1434
-95.6478
-118.138
-80.4154
15.2285
-116.112
-104.917
48.4166
40.0885
32.3507
-86.589
18.828
12.192
26.3095
74.1463
35.6316
-9.29911
38.3786
16.9946
-112.179
41.391
41.2556
44.5699
74.7079
1.87129
-0.89077
-29.374
23.0348
36.3389
46.5683
-5.47631
61.3486
32.1064
45.8814
-23.5004
-126.805
8.44791
47.8715
43.6854
49.1195
43.2197
68.8371
69.0413
17.4519
38.5302
53.6253
-8.29235
58.852
-19.2892
68.1612
58.5982
8.72788
48.0991
24.2314
39.066
14.7409
43.4505
-15.0211
42.421
24.7629
36.554
3.20871
44.2748
-18.2785
19.3234
66.3142
66.0442
35.7127
-103.185
25.7535
17.1012
-27.5067
35.5563
60.8572
-104.815
44.9886
45.4041
30.4876
47.6056
-195.725
-74.9058
-2.85665
70.3924
20.9899
11.5489
48.3996
2.92423
4.79594
23.7083
25.057
33.8697
28.2794
13.9698
34.5357
40.6399
35.9216
38.6405
68.6413
58.5785
54.3712
68.581
65.9446
28.785
-22.6422
-62.0327
-25.9231
65.381
-40.0599
46.0928
43.3679
-157.952
30.7442
48.7331
-50.2814
31.0581
29.8503
75.6108
-144.893
29.3831
7.32464
51.335
17.6173
-23.1653
64.6817
57.7496
45.6059
44.6052
14.3172
27.664
-120.708
68.7472
1.78349
72.8648
8.57397
-2.93926
-108.681
32.3351
-128.036
11.6764
-236.969
18.7705
12.0291
18.4093
-29.1713
0.0758974
-105.778
-105.241
2.54216
-49.2991
18.4632
-17.5483
1.76286
-251.121
47.6198
48.1917
54.0843
42.2717
27.0398
28.725
79.1348
45.3715
-132.795
0.243643
3.92483
34.091
42.6098
61.1273
-18.4936
-18.4266
41.1647
0.0533264
25.8997
52.0245
-107.945
-180.382
-121.728
69.622
-19.1084
37.1706
54.47
8.58576
39.7425
-13.3529
-178.582
-162.943
5.97647
30.7363
52.519
53.6221
-50.7773
-103.531
36.1815
-95.488
11.1201
20.2557
16.1506
-38.1872
-28.8964
-35.4384
-152.34
-25.2109
62.9439
-4.06174
66.7936
-210.797
-115.404
25.1943
-49.1208
59.5679
46.5847
49.9076
24.1594
-6.67002
-186.443
58.2649
-93.5777
32.9951
-26.8681
50.1465
59.1241
-39.9402
44.4213
64.9818
49.7152
47.5164
-58.7255
-23.5864
27.369
-7.16938
-293.855
33.6361
38.2278
17.9409
-200.004
25.8855
5.77763
42.7596
38.6507
8.13195
67.9998
22.0318
0.929874
25.2695
41.9779
-48.1959
0.330338
49.218
-10.5987
15.9399
0.663779
48.5396
42.1571
40.4971
-57.1443
40.7333
48.8489
50.3868
19.1572
4.96464
14.9163
42.0485
-19.8505
-100.945
-74.5393
-37.1893
-4.15174
0.387424
-190.056
3.15501
-110.178
-9.84328
-250.284
5.82297
-32.5969
19.5218
-187.01
45.9666
79.7472
18.9909
-119.035
22.6883
10.8945
25.6698
1.50344
13.8837
-112.004
21.2347
56.3687
0.48136
64.2505
1.44705
40.3667
40.959
28.5741
-106.279
34.8398
69.0157
0.233609
42.1192
41.698
61.173
20.8138
57.6153
49.1514
-110.517
51.2186
-150.129
-129.797
58.6249
38.4325
-44.9514
11.7592
54.2835
16.2783
-64.6232
3.53266
4.63281
34.7643
25.7149
43.1594
44.6543
41.616
-61.5954
1.2922
19.5441
42.3152
73.2436
8.97746
-131.739
-99.1555
47.13
20.2742
20.2796
28.3847
-31.2951
39.4678
-0.666853
15.3383
67.2807
21.4327
-89.8304
-15.784
-47.4666
-9.64461
-117.936
-24.9266
-191.571
49.7047
25.435
-0.53969
64.0501
0.323596
-195.542
-112.132
-137.188
49.0896
-95.7134
18.1711
46.4674
0.348589
20.69
-224.001
-137.723
-39.7735
46.1794
-254.84
-12.7123
-119.961
41.7461
47.3554
-22.6186
53.8909
51.5008
62.5531
63.2296
50.1295
25.1827
70.2695
-118.042
45.6487
19.2868
-131.442
50.4907
-64.8633
61.3348
23.61
-29.3732
-88.5339
-79.0184
45.679
-76.0147
-65.4588
26.3449
-13.6916
-68.6147
28.5244
13.7135
38.0399
69.5635
-110.827
-24.4673
6.17805
48.1831
34.1142
-12.6397
79.0291
-25.8568
5.11466
30.3332
-26.1399
41.1748
47.392
50.9094
51.7766
-54.4846
31.557
44.8639
25.2902
-18.0942
-0.167579
49.5219
49.0775
58.3283
-2.87081
17.0613
30.9958
28.0067
13.6876
-80.7285
36.3505
-79.6511
38.1786
44.4435
-118.059
64.4184
-51.487
67.8228
51.0758
-241.48
1.60251
0.69231
24.9436
45.1049
-206.55
57.4031
40.942
30.9241
3.8524
25.0517
-0.0934362
31.3093
-119.881
34.43
-39.5185
42.2429
-95.1953
-1.61025
14.6608
51.7242
59.8564
28.2695
-101.533
23.9824
-129.902
21.3429
26.5137
-18.1715
-1.08154
67.0194
-9.99277
-278.175
-12.8505
-147.767
-12.8281
42.6113
-120.558
23.9401
44.927
34.8485
47.0364
-90.8592
29.8521
67.1145
-59.7793
41.4855
22.6716
-2.16772
18.604
25.4472
7.55328
68.333
50.9872
18.2822
66.5768
55.6275
51.1799
-94.1646
-92.5809
36.3058
-33.2479
11.8442
-62.5866
-29.7096
-57.7371
39.7908
28.7371
33.5391
35.8152
6.02047
39.1602
41.9545
-169.56
48.5989
28.7097
42.5236
-123.392
-0.552137
-26.91
-117.876
-72.7898
25.1391
41.5926
-139.608
63.1404
-153.055
41.3116
34.861
-2.39397
17.6747
46.5741
23.4131
15.4643
43.3012
13.0948
-62.2934
60.4028
49.5228
-15.5374
-66.9107
5.39898
38.4994
7.73671
28.1706
-48.3912
7.96125
-4.7796
11.0307
42.2281
41.9576
-6.12889
23.1916
6.75822
-10.4507
-147.455
51.1469
-41.1318
44.372
-0.296689
37.5851
47.5325
26.9268
44.2571
18.3261
-31.5107
-4.76637
-93.8226
-69.9393
-39.5874
-31.7418
-19.396
34.9891
5.8659
41.8306
-4.69551
-27.3793
-46.6436
-19.1137
47.1934
-161.301
45.3297
26.0424
-103.132
10.9909
-47.0843
37.4148
42.9362
-10.0003
25.2416
-105.299
52.0522
6.53257
21.6232
-183.834
53.4395
31.0149
0.743591
46.8984
47.5534
52.6384
29.7761
51.115
-63.0374
5.97749
-203.609
45.809
29.4816
26.2573
13.9633
-59.2767
-203.076
31.7696
16.0669
-217.015
66.4802
-66.889
52.4411
37.4958
-71.8931
-26.5184
12.3177
-165.15
11.0245
25.2777
40.6412
-2.99797
43.3424
-48.2969
28.9348
-1.12773
18.0713
-66.8034
54.2748
67.4369
47.5713
32.9376
19.2259
30.653
-129.797
-4.76825
-27.8477
-43.1436
-21.5706
-241.209
-71.5374
1.10747
42.9378
46.4995
-67.7588
26.0279
48.1577
-4.61064
-39.7147
45.8437
-25.1235
-234.708
3.65117
1.35414
1.1337
64.3239
-28.25
45.3667
-27.1379
-13.6102
-4.03986
45.7359
19.2045
40.8015
-19.6501
-9.92673
14.4793
17.4192
48.6018
42.4467
13.657
-140.706
22.3587
69.7641
4.3442
50.4126
54.3621
7.15252
-10.5676
30.0192
-100.156
4.69694
38.0883
27.3717
44.9772
-87.6635
46.5963
11.1873
57.9323
18.8993
38.4521
53.0829
36.5146
22.4478
-160.713
18.059
-131.114
42.1695
22.8724
52.4085
10.6944
62.2771
25.2116
65.7301
-32.3193
54.7429
2.79084
38.4502
-122.232
41.4011
29.7019
22.1424
62.1976
42.7903
23.6686
1.36372
33.1926
40.6128
-15.9533
-117.464
37.7069
11.8861
54.7384
-25.4927
63.278
15.5476
79.2218
62.6826
38.4433
36.3979
-134.731
9.86375
66.4563
25.9619
6.01323
-102.138
67.302
24.711
41.872
56.0772
-14.4961
47.6246
26.372
52.4463
5.68366
50.6932
46.1682
58.6843
-23.6667
-86.3384
26.9744
-51.7647
28.9901
19.6604
15.2344
52.9198
60.0807
1.65683
24.0994
21.5021
56.2263
40.6406
43.8196
28.4637
-257.105
-90.5766
-8.27993
44.0761
-48.2196
-39.7809
19.0207
37.3036
30.6668
-1.80707
68.8464
0.563392
63.1605
23.2764
64.877
13.3999
14.5822
-0.296862
7.9667
41.3428
42.4823
16.3768
-53.7506
-42.0177
-30.8376
60.4284
-2.9164
7.99244
-3.72229
-90.1066
25.2242
53.5994
29.676
4.98652
1.73661
42.8735
73.1787
-59.5771
12.7451
45.725
-10.5184
24.0113
-38.9667
37.8299
-72.2274
-81.729
12.1076
-76.0372
-60.9011
27.4031
-58.9156
-70.5524
7.33441
35.1605
47.3682
37.9904
71.7946
-239.366
66.4207
-96.5845
63.25
-199.663
-16.2253
69.6866
21.3875
-77.6241
46.345
-10.0206
49.6616
-1.00634
-122.31
25.1617
4.3258
-2.45617
0.268457
-35.5396
20.5397
54.2545
-146.142
21.9209
-46.5381
19.5416
4.58276
-15.1063
-1.64335
2.22144
-36.729
54.3855
-9.97801
59.3754
28.3779
-154.293
19.0838
-22.4909
0.0410177
37.706
53.5388
70.8614
33.6586
37.7126
29.1281
-109.967
68.7288
73.6265
46.4243
-13.0733
-85.3849
-134.468
43.9949
35.4074
24.7173
38.2705
-25.3888
-8.51629
-162.562
60.6878
-3.84549
11.4926
-29.8772
45.4484
26.1594
77.7061
73.2878
42.7989
12.1623
20.2948
-74.7987
22.3729
74.7269
7.97998
-0.281056
38.1628
0.578739
24.7544
3.25272
-1.61383
25.241
19.3441
30.4349
1.01008
18.0005
58.3535
25.1872
47.1945
-39.3186
-2.52417
67.7647
-61.558
7.65857
21.7417
22.0551
15.7224
-29.803
19.6051
7.23239
12.9172
78.1285
-107.626
-63.7643
-42.2064
-13.0003
23.6171
22.1449
-15.9456
-53.9378
0.80592
-62.823
-19.6419
-7.08819
15.8852
17.8751
10.7776
77.0902
10.5143
26.7575
-77.2653
14.3166
-98.2565
23.1857
56.3704
44.4886
27.0823
-126.989
44.3492
47.0082
-5.90572
-247.073
-34.252
55.8304
-3.10982
40.1516
8.90311
62.6427
24.5026
-49.817
-16.2943
47.1093
8.06469
38.7162
-15.0856
74.5224
-14.9671
0.122576
-199.824
23.9833
-38.2083
-16.2603
-22.3985
24.4613
29.6076
-99.1851
0.783886
-21.3177
16.5158
-12.7048
-19.5919
40.1354
-128.33
42.3039
-30.5311
47.6888
68.3236
44.6165
-106.194
46.8869
20.5984
9.71339
-16.0295
-3.52599
-115.89
22.1232
13.5679
29.9598
7.26977
-10.8612
8.38316
-114.077
31.9318
42.868
-12.5136
-41.8014
-3.95668
0.594399
-113.849
33.3299
-59.1911
-50.5531
43.0743
-4.10076
33.7111
-18.3335
-137.458
-188.938
-236.855
76.5714
22.1768
-6.33243
20.6008
65.2979
67.9917
-60.8171
26.9188
42.855
-8.99287
22.4357
66.3208
32.6636
43.125
79.0898
-2.72964
23.3917
12.6186
60.5706
44.6544
47.7565
52.3493
32.3168
2.77003
10.4222
23.2089
25.3076
-116.514
67.9188
2.27747
-9.47451
1.09411
-6.89055
29.7723
-32.4804
25.0767
23.2087
47.85
46.1395
51.3171
-122.244
59.6819
66.5627
-65.8466
35.2782
-76.7832
-105.488
8.71763
27.3833
-23.696
-5.20484
-2.24629
72.9257
-148.425
51.3331
45.0286
56.8199
38.9681
39.6299
-87.5662
2.51899
33.8195
-60.3104
-135.666
-42.7374
16.3343
-7.63745
52.9699
-92.3532
-6.99209
14.1982
-97.883
-40.1227
-122.354
42.5267
25.1228
-0.017481
21.6365
-55.8259
24.6057
-72.5154
-77.5492
47.0698
-181.176
67.6605
0.817356
71.6742
0.0999148
-22.1799
23.8602
38.1847
41.935
-60.0891
-69.7041
0.662294
23.2464
37.157
80.0713
56.843
23.6128
-1.65909
31.1503
-100.456
51.3114
-173.839
27.6376
-15.9067
-22.4378
-106.156
26.791
2.75013
-123.272
29.9852
35.51
66.2709
69.8388
-118.484
-113.937
12.0862
-24.6062
69.1312
13.2088
-5.18318
21.7388
32.7686
-47.5224
8.81199
24.4608
-16.8758
44.1986
-39.4087
22.4538
18.9962
-16.199
-54.4272
-1.56774
-54.6725
-47.8207
49.8125
-70.3886
-42.5006
15.5355
-40.4183
73.7501
39.175
40.6176
-30.9142
30.5327
5.87445
26.5575
17.3365
-15.965
-90.4485
69.1859
46.5791
6.82742
-105.365
76.4194
-41.2528
-100.159
-10.7508
30.7759
-46.6551
-33.3296
60.807
5.05304
44.0661
20.7866
-2.94685
-7.16008
20.6002
31.4062
-57.8506
7.70097
18.4496
45.6443
-54.3093
-113.614
12.2062
15.8716
-28.5546
-25.97
72.1072
30.115
-224.947
29.8859
16.0109
65.0391
32.4198
-91.6944
33.6416
52.9172
49.9029
4.24863
38.6997
-62.678
68.7765
2.65885
43.8517
-196.476
6.46009
0.772682
-19.2381
34.3087
18.7841
-100.816
-60.5222
52.0881
-27.4865
4.95882
57.8807
35.1163
56.6146
40.1796
-11.6016
0.311091
8.34617
46.277
-0.246491
53.9833
40.1693
67.4938
-10.4031
55.4186
30.7565
67.4777
-1.21197
-14.0533
69.098
-15.521
39.6165
-154.032
62.3464
66.7575
46.9024
-44.9118
42.443
55.3461
-12.8571
22.3574
-52.0576
58.0537
-24.0531
0.0450841
-116.945
-117.845
54.5103
30.0817
-114.934
31.532
66.6998
-8.09521
2.28173
-118.646
-17.833
42.3659
-37.2156
41.1853
44.3912
-109.03
73.9783
-2.93519
58.3338
59.6218
14.0329
-0.196169
43.0907
-40.3096
-1.99881
42.9102
38.7862
-5.14614
44.6139
-4.27458
63.8828
46.1349
26.0109
15.4132
50.3865
-28.73
28.9044
56.7056
25.1685
1.07708
55.174
48.5721
-7.77387
-106.739
39.5635
50.2606
68.2507
-117.019
71.6057
71.5044
72.0579
-144.997
53.7554
-204.275
43.4189
57.4488
54.6527
49.8046
61.0005
77.6319
38.1304
-98.3761
15.6474
-94.1162
77.0393
32.054
-51.2875
-35.7567
41.3849
59.9111
44.2131
23.8061
-99.3998
59.8273
-59.8693
48.9676
-43.4297
22.4311
-10.4979
25.3357
35.622
-171.72
-167.662
-12.8083
18.0405
-253.469
52.8495
0.707681
25.3654
44.1411
-104.992
35.8578
0.644044
-87.729
-188.196
-99.6969
58.7423
61.4756
-33.5246
29.6578
54.2881
49.7035
1.24954
-102.391
49.2984
-115.193
57.3264
-74.3268
55.991
29.5792
11.9003
52.5896
36.2111
55.9578
25.0403
23.3286
8.21678
-106.154
-146.353
-174.853
55.1248
-99.5788
-47.9121
-79.1553
58.8929
55.7969
20.1643
38.6436
59.4076
-45.823
45.0526
-24.8749
0.99543
44.7474
-52.9708
-139.399
-23.5365
-120.615
26.5629
-226.568
-37.9758
-132.532
-105.783
40.7392
68.2753
73.9502
65.6288
-115.632
49.2124
-209.17
43.8708
58.6453
12.1755
54.3741
-70.9581
25.131
5.12117
4.96225
57.8688
-13.9877
50.7177
-125.228
-1.42456
-120.89
49.6134
50.4352
42.6753
-170.736
44.5714
-20.3426
-113.496
-114.041
23.2573
69.2134
-58.2637
-23.4349
-51.8936
44.5813
41.4418
-7.09218
28.8718
-159.453
60.0633
56.3597
-45.0617
0.371869
59.4748
-58.2611
-247.025
7.40885
54.9099
60.6877
-186.919
37.7865
3.62402
67.182
-121.984
-42.9825
5.10445
64.3303
7.16511
11.2429
-37.8921
57.9606
35.0589
57.2657
4.07392
-51.4083
49.8386
75.8946
-108.783
43.8009
6.47199
-99.1645
6.73385
25.9747
-53.366
37.4182
-0.819348
29.9995
-37.4943
-4.50117
53.4839
61.546
44.2648
-37.3911
-45.0275
51.7834
-145.266
25.5646
-3.55768
30.4027
-143.525
45.4692
51.8225
5.95184
49.6873
67.338
-131.851
41.0644
49.229
-117.383
28.7198
-5.20644
29.9072
25.297
35.1007
0.592969
24.7522
17.9695
-47.0873
59.0559
26.6969
2.02434
-67.933
-12.7954
45.1781
-162.783
71.9693
-157.309
-105.388
-6.57119
53.3998
51.0385
57.2701
-88.7832
65.4125
-103.435
40.6577
26.3307
-92.1991
40.0971
29.2035
22.4732
36.3848
-91.3603
36.1952
-118.842
-62.9208
-0.0900729
-63.3833
-74.3228
43.2539
66.2549
20.915
-208.817
55.1186
-52.9529
61.8248
28.9871
8.19455
29.4813
43.4413
31.6189
-35.6233
21.1614
6.90056
16.2889
20.2705
-108.367
-57.7324
6.67925
35.1192
8.53589
77.4924
49.0826
43.5652
62.5389
13.0944
47.7752
-58.1365
-76.1591
-84.1044
42.9709
76.1613
43.9967
-16.5795
58.903
45.1625
45.7001
-2.55051
6.10046
32.0598
72.554
18.5614
-3.90839
52.3503
59.9977
48.6997
45.7211
52.6171
37.5431
-6.83341
-133.982
49.3457
-130.872
-105.5
44.1637
-101.561
16.8682
24.4797
49.4597
50.6779
51.1501
4.72974
57.0404
58.0749
12.5706
52.9282
47.9163
41.3847
35.2978
37.0293
30.7968
3.6006
53.7503
52.7674
-55.8408
44.2043
4.14624
-3.00431
65.7071
54.0648
0.736829
-197.148
0.0714412
55.3128
37.7194
17.5406
-11.9498
24.3879
-82.4457
25.2514
-88.9235
2.37998
38.8985
-185.434
-65.78
-169.773
63.5366
-47.8375
-86.94
-111.839
66.2517
-90.4908
18.3714
14.3056
-121.533
36.2101
40.5948
34.5723
60.7758
39.8533
8.00722
-99.2529
-182.038
2.35855
48.7164
-26.8746
-194.302
-115.479
-71.5566
-90.2823
-91.493
-63.1702
17.4367
19.8009
42.4323
56.1618
-93.309
-79.485
60.8545
48.8067
-182.275
4.81387
-103.716
34.0544
25.554
32.5862
36.9741
-28.4807
-81.9516
-74.8302
16.8886
-102.084
-96.1295
21.7356
-91.5114
-118.015
-122.198
-158.919
19.6446
-81.8373
31.0334
-185.576
42.6494
38.5308
19.4722
53.8162
-221.107
66.9899
2.92251
8.97291
-21.9472
45.7089
34.2521
-103.645
-90.8369
43.823
50.3403
68.8439
-209.13
-115.849
-183.123
4.86136
1.85409
-155.218
25.2979
-115.563
33.663
-205.647
39.9706
14.2649
-7.37234
61.3585
42.7691
-12.2818
-5.05539
-33.1642
-100.888
53.8637
74.3112
-117.696
53.7299
43.967
0.411144
10.9833
52.708
50.4782
-67.4417
-93.3683
-93.5812
-202.87
-20.0015
-134.879
-16.2928
31.0874
-190.262
46.8403
-195.009
-123.419
40.4898
-17.3875
-118.615
9.04757
35.2426
-119.173
-7.35631
-114.22
-158.549
-114.104
70.0192
-88.8482
1.47509
-220.758
48.126
-116.441
-158.186
-56.9578
-222.075
5.34671
50.4146
0.674081
-140.916
42.1005
0.166899
-39.2518
-93.9699
-174.265
37.4079
40.7437
43.7094
-80.4243
61.9942
-67.2565
0.130925
13.9768
-47.6589
-149.096
-160.464
-54.9009
18.4221
21.1107
-17.1825
0.0717408
-19.1181
44.6106
-239.787
42.8672
-115.77
28.9336
27.0046
-7.88833
-92.5051
80.3836
8.05051
-117.091
-78.2369
-14.1054
42.7682
-39.0944
-64.2526
4.84039
-107.552
-201.027
-109.012
-126.333
49.7601
-151.055
12.4048
-107.242
6.0508
42.2839
13.4585
27.9633
-3.93403
56.3328
-119.818
-45.1995
59.2836
26.4154
-120.034
0.151412
-95.1589
-16.1062
-1.99765
54.9979
-66.8841
22.3603
-115.434
-81.3132
-176.114
-149.609
-90.6956
33.9918
-139.225
43.9916
20.7334
-132.224
68.1375
-175.47
51.5707
60.9994
-117.673
10.4578
47.4469
41.7904
40.328
-50.3665
-60.8989
-57.0892
43.1532
16.9925
-19.3451
-119.172
32.6105
49.6472
1.52674
-39.6796
8.89254
58.5645
-30.8107
-35.1331
-6.44829
37.5887
12.3152
-123.728
62.1472
52.2975
-44.8812
-86.4072
54.5743
24.5666
5.18667
44.4925
4.37034
-55.3541
-67.6289
-73.9276
50.8807
48.9247
-0.979061
-2.71686
-103.246
-6.39566
49.4291
-104.243
40.3897
56.6136
59.6395
-77.3308
44.8948
42.8399
50.0939
52.2874
3.48328
52.4273
0.232931
43.2656
28.2998
47.1221
-166.324
53.204
52.0494
38.9879
30.5606
-37.6591
37.365
6.7418
-7.06407
57.6737
55.3985
-106.077
55.2243
-57.8683
-119.605
48.8202
47.8055
-50.1448
4.97468
-116.091
-95.4245
-17.1519
-43.376
-54.2462
-0.904137
43.5935
71.5925
54.8837
-76.6084
-15.2652
48.5594
24.9047
-0.84279
-59.6225
-44.2566
-33.9816
-120.43
-105.752
41.1712
-45.0836
22.3683
1.98445
1.8584
-134.76
3.45262
19.856
30.9329
33.766
3.98703
31.9901
-21.6228
-247.003
36.7816
26.1106
-10.8229
12.9609
31.1706
-25.0528
21.4647
2.60986
44.0723
40.8094
64.6847
43.6108
-50.4582
-1.41455
-0.788215
-50.4472
-9.76638
-4.93155
-80.6098
-92.5392
72.4595
18.7655
-19.447
61.2815
-57.6526
-12.8686
-9.11851
-171.64
-88.909
22.7797
-24.6056
45.9628
-65.8444
-46.0903
-35.1393
-67.6508
-15.2408
-13.8706
27.0216
34.909
-18.3429
-43.953
-27.3939
27.0798
-17.8341
47.3468
62.606
-56.1816
47.8912
32.6346
32.8962
66.919
-71.2871
28.4546
32.009
21.9094
59.8724
-0.010774
6.71998
-31.182
47.2255
62.7627
-72.5044
-91.5041
-25.7817
-12.1613
25.1637
-43.0082
-45.2625
-48.9902
21.5266
-113.339
25.4782
23.4339
38.2982
25.1309
-95.6086
18.1707
-59.0332
-215.591
65.8773
72.1962
57.318
74.5907
38.4192
50.2634
50.8912
46.11
41.1775
-21.8235
46.9351
-1.04275
-115.482
60.8282
19.3733
-17.7041
68.5522
8.20408
-238.365
25.5742
22.5597
51.4562
-81.0372
40.1662
63.9808
-60.6594
-117.9
-36.9711
37.2934
-194.527
55.5668
4.11349
51.3151
43.1317
-46.0829
51.4261
-5.51077
-99.0703
-97.8607
-111.714
53.2223
-15.7401
42.7701
-4.32217
-146.349
25.5536
-152.696
-21.0616
-50.9388
-88.9774
53.4106
14.387
-114.963
-5.92766
30.4292
26.2264
-115.909
24.3805
-62.9101
24.2841
-118.663
28.8528
16.6616
35.0667
-45.733
44.222
34.7439
17.7409
-118.649
74.565
-14.974
-111.21
44.2596
40.7419
-120.558
-14.8119
-147.171
34.5841
31.2221
-11.5348
5.11072
1.70299
74.8974
-33.6778
-63.279
25.2298
6.63813
37.0557
23.9362
43.6166
30.42
-183.219
35.6342
-114.416
40.3784
29.343
46.7066
32.0758
1.38281
0.639204
29.814
47.4928
11.3552
20.5231
-114.235
-8.7684
-4.64736
37.8234
-110.936
30.314
-81.6296
53.2346
-151.564
0.201903
56.1263
51.879
25.9307
-96.5175
-87.229
48.2001
-12.8926
52.6922
26.3587
-26.0588
44.8459
22.2259
17.5075
23.1518
10.3635
-15.9608
31.2512
-7.02723
57.08
27.4748
75.5951
6.89761
16.9541
52.1095
12.3521
26.54
47.0033
41.8037
34.546
-19.9802
-79.0057
44.5495
35.7152
24.076
-130.083
-28.2582
-170.839
-129.616
5.47522
39.3544
9.14265
36.1016
5.66488
65.3195
53.0599
20.5285
40.8179
19.7413
-116.932
39.8193
38.0795
9.65344
28.1445
52.8412
49.3631
-323.128
-86.8011
-43.1929
43.0685
28.3179
-23.1232
46.503
-218.898
44.1852
-59.0843
45.3462
23.9326
-287.876
22.5817
50.8077
-38.8443
47.0421
55.9789
25.2612
14.71
28.0467
21.6954
62.5659
-102.974
58.1232
51.4254
-164.975
-45.0044
0.907697
11.2283
-217.032
-57.7625
41.5786
58.0751
47.6562
59.1842
31.7102
55.0207
22.2212
24.5112
23.5835
17.8599
11.2318
41.0762
5.09736
60.3169
23.1303
-100.026
32.8213
60.4109
62.3266
-239.529
32.6904
-43.1306
-104.34
24.9807
14.7848
-43.0291
26.559
62.6828
-97.4849
-86.6714
-217.344
22.6868
21.0263
13.3513
45.0415
46.5051
5.11179
25.5319
-2.91467
-178.002
40.9344
40.6262
42.738
32.7581
16.3437
35.3594
15.5081
-58.1528
26.7959
41.6599
33.2806
39.288
-9.97107
23.9821
-0.562831
45.983
-140.862
26.5323
54.0369
41.6856
-7.3838
-187.112
-145.496
-2.7325
31.1527
24.4837
-7.43077
43.9799
33.1301
-48.4977
3.61825
6.04351
25.416
-86.825
44.562
32.1136
4.06964
24.707
-48.7281
28.8983
0.952726
21.6881
38.2281
41.8928
50.9295
18.9286
26.4909
-116.868
42.5618
-1.28687
37.9678
48.1719
-4.36861
-8.9053
-69.737
-122.434
10.1172
27.7058