/*--------------------------------*- C++ -*----------------------------------*\
| =========                 |                                                 |
| \\      /  F ield         | OpenFOAM: The Open Source CFD Toolbox           |
|  \\    /   O peration     | Version:  2306                                  |
|   \\  /    A nd           | Website:  www.openfoam.com                      |
|    \\/     M anipulation  |                                                 |
\*---------------------------------------------------------------------------*/
FoamFile
{
    version     2.0;
    format      ascii;
    arch        "LSB;label=32;scalar=64";
    class       surfaceScalarField;
    location    "3";
    object      phi;
}
// * * * * * * * * * * * * * * * * * * * * * * * * * * * * * * * * * * * * * //

dimensions      [0 3 -1 0 0 0 0];

oriented        oriented;

internalField   nonuniform List<scalar> 
20045
(
1.33641
-1.53839
0.201981
-2.79761
1.16173
1.63588
0.457266
4.71202
-5.16929
0.392387
-0.267739
-0.124648
-2.25754
2.19411
0.0634311
-1.24823
5.10614
-3.85792
-2.71127
1.16951
1.54176
0.175253
1.1542
-1.32946
1.24156
1.16362
-2.40518
-1.77081
-0.503723
2.27453
-0.820098
0.27734
0.542758
5.35492
-2.89688
-2.45803
1.02832
-1.01484
-0.0134835
-3.06038
2.40025
0.66013
-0.850732
2.85405
-2.00331
-2.62188
0.851076
0.0205635
-0.39331
0.372747
5.34562
-3.72538
-1.62023
-4.28551
6.09184
-1.80633
-1.88642
-0.0639684
1.95039
0.680535
-0.988993
0.308458
0.368908
0.659415
-0.545282
-2.25232
1.01412
2.49116
-3.50528
2.18382
0.252796
-2.43661
-2.6026
3.61672
-0.809477
1.02529
-0.21581
-2.46583
4.94172
-2.47589
3.98527
-0.114267
-3.871
-4.43658
2.84117
1.59541
-1.65986
-0.455248
2.11511
3.91073
-2.95392
-0.956817
-1.96813
3.4819
-1.51378
6.02982
-3.90873
-2.12109
-1.4883
1.66356
4.6436
-2.29346
-2.35014
2.74564
1.68506
-4.4307
-0.181743
1.0682
-0.88646
-9.37576
8.87367
0.502083
1.68871
1.30504
-2.99375
0.151017
1.08263
-1.23365
0.514594
-0.706798
0.192204
6.96899
-6.94571
-0.0232788
3.58447
-1.15233
-2.43214
1.51004
2.07443
2.7558
2.59912
-0.29788
0.407157
-0.109277
2.07151
1.72876
-3.80027
4.75204
-2.0064
0.291249
4.10632
-4.39757
3.2577
-5.50142
2.24371
8.66129
-4.07534
-4.58595
-2.06027
-2.80152
4.86179
-0.223875
-0.834471
1.05835
5.29779
-1.65791
-3.63988
-1.85748
-0.400061
1.39807
2.45771
-3.85578
5.06412
4.41324
-9.47737
1.8329
-3.80103
4.48789
-3.94834
-0.53955
-0.575337
0.567637
0.00770022
0.805174
3.68272
1.76711
-4.06854
2.30143
1.16269
-0.482159
3.28626
-1.08655
-2.19971
2.93162
1.81534
-4.74696
0.184858
0.0999313
-0.284789
-1.7118
0.22339
1.48841
2.27824
-1.03667
3.74255
-3.91949
0.176941
0.062278
0.12258
-0.94122
6.23901
-0.78984
-2.61323
3.40307
0.154368
-0.621481
0.467113
3.43444
0.375152
-3.80959
3.16258
-1.76451
-1.2349
4.66934
1.208
-2.05873
-0.196101
-0.424068
0.620168
6.62634
-2.47612
-4.15023
2.18601
2.52593
-4.71194
2.22433
-1.93626
-0.288068
3.46646
-1.69935
-5.40212
0.706251
4.69587
-0.0253434
1.36175
-1.09629
1.51874
-0.422447
2.66545
-1.01691
-1.64853
-4.00285
0.155738
3.84711
2.44697
0.600975
-3.04795
-2.16319
1.76553
0.397661
-4.33073
0.00981047
4.32092
1.9429
-0.346597
-1.59631
1.0687
-1.61952
0.550825
-0.606523
-1.97072
2.57724
1.59694
-1.68472
0.0877754
2.72565
1.21177
-3.93742
-1.04743
0.237957
-0.590063
0.296764
0.293299
3.24486
-1.55614
0.188125
-0.420665
0.23254
3.17241
1.47118
-1.28063
-1.77975
-0.514666
-0.0753967
-4.31722
9.38134
0.14386
-1.24015
0.159669
0.0284563
1.00426
3.08106
-4.08532
0.643662
-8.24479
7.60112
-0.49398
-1.23066
1.05505
0.17561
-0.764829
0.949408
-0.184578
3.50151
-2.58459
-0.916921
-1.33163
1.10775
3.90074
-5.11782
1.21707
-0.619124
0.960791
-0.341667
0.143409
-0.918575
0.775166
2.74613
-0.562313
5.18996
0.839857
-3.11771
2.32787
2.87636
-5.18771
2.31135
2.73671
2.60891
-0.380029
-0.195308
-2.09044
1.71512
0.375324
-8.7321
0.254912
-1.56766
1.31275
3.70241
4.95888
2.96514
-3.79908
0.833938
3.92772
0.42258
-4.3503
-6.45481
5.71117
0.743642
1.32679
-2.73782
1.41102
8.56641
-4.864
0.061905
0.345252
0.656719
-0.832539
0.17582
-0.464091
0.313195
0.150896
2.85605
2.0042
-4.86025
3.10284
-2.77555
-0.327284
-0.760592
0.163706
0.596886
-0.866928
-0.363731
5.69828
-2.82191
-1.73633
1.85851
-0.122182
2.86724
-4.76303
1.89579
1.73144
-3.79171
2.45001
1.71723
-4.16724
2.09346
4.53288
6.16862
-0.844278
-5.32434
1.3367
-3.74766
2.41096
3.85544
-3.11409
-0.741346
-0.653061
0.952301
-0.29924
0.0648917
4.56876
-4.63366
4.11025
-0.124978
-4.1177
0.132504
3.98519
-2.56727
2.23043
0.336841
4.24119
-2.05518
0.617623
1.60671
-3.17513
3.71521
-0.540082
-3.84605
4.30332
0.0621914
-1.10657
1.04438
0.708031
-1.14381
0.435783
-0.0827045
-1.00654
1.08925
2.61839
0.949293
-3.56769
6.25225
-2.90818
-3.34407
-1.18581
1.10311
3.27021
-4.6929
1.42269
0.638178
-0.123584
-8.39255
-2.38372
3.11533
-0.731605
-3.11438
2.46683
0.647549
-0.0688523
-0.229193
0.298045
1.16798
2.68746
-0.267536
-0.196555
0.0780602
0.578659
-3.37234
0.197215
-3.70653
4.67952
-0.972984
-3.54651
3.99387
-0.447367
-2.63236
-1.68168
4.31405
-1.7656
-0.0654513
1.83105
1.90122
-2.25765
0.356431
3.67038
0.558951
-4.22933
-0.0500817
-3.69497
3.74506
-2.29556
4.74557
1.10143
-2.92969
1.82826
-1.55411
5.45486
-4.32261
2.99649
1.32611
1.19322
-1.40325
0.210037
2.03
-5.01088
2.98088
-4.01892
1.5531
-4.01395
-1.13377
4.50358
-3.18752
-1.31605
-1.41459
1.5656
0.907843
-0.96895
0.0611066
-3.00937
-1.84798
4.85735
-4.35089
6.43976
-2.08888
9.88582
-9.13667
-0.749154
0.08227
-1.13948
1.05721
-3.56544
-5.76208
9.32752
0.160691
-0.980789
-2.48946
3.81625
-3.22107
-1.04199
4.26306
0.659615
0.163413
-0.823028
0.344837
-2.72856
0.479555
-2.13942
4.15967
-0.231951
-0.895353
0.71361
-0.984083
1.17233
-0.188242
-1.67667
4.29506
-9.4333
5.86786
3.0842
0.147842
-3.23205
-3.63545
0.836104
2.79934
0.737922
9.1479
5.37402
-3.34402
3.39252
-5.25698
1.86446
0.229913
-3.25562
3.02571
0.327359
-2.21378
-2.50415
3.50841
3.15065
-4.39888
-2.17795
0.259139
1.91881
-4.99728
2.50194
2.49535
-0.376535
-1.78666
0.927481
0.833554
-1.76104
3.08248
-0.758924
-2.32356
-0.400101
-3.12149
3.18638
-1.36228
-0.374045
3.03117
4.38791
-4.48579
0.0978778
-0.0629882
-0.758966
0.821954
3.21451
0.352898
-3.56741
2.57168
-0.918214
-1.65347
4.48427
-0.841092
-3.64318
2.60953
0.0559195
3.03629
-1.93485
-0.744486
1.45562
-0.711135
3.96382
-1.09658
0.672182
-0.0610057
-0.611177
1.30316
-0.862929
-0.440228
-0.77152
0.799861
-0.0283406
4.71294
-3.61699
-1.09595
1.52739
-5.87828
-0.855502
0.0839816
-4.44586
1.27458
3.17128
4.8051
-1.3232
1.19816
-4.90469
7.9778
-3.99636
-3.98143
-0.101825
0.76144
4.73171
-7.95009
3.21838
-3.01604
0.515328
2.50071
-4.99517
4.92418
0.0709958
0.949751
-3.24242
2.29267
0.26711
-0.293339
0.0262293
-2.4207
3.00167
-0.58097
-0.770384
1.03468
-0.2643
-0.890335
0.271212
-0.926389
0.16156
-1.50067
-6.74412
6.82999
-2.20726
-4.62273
2.26235
-1.08591
-1.17644
2.51069
1.40005
-1.35904
-0.81891
-0.231406
0.939437
2.94501
1.86009
-2.62148
0.28864
2.33284
6.45227
-1.72056
2.08384
0.770206
1.22403
1.03832
-1.50331
-0.108089
1.6114
-0.197592
1.39081
-0.341709
4.82598
-2.03425
1.745
0.289251
-4.57968
4.3825
0.197182
0.296528
4.2225
-4.51903
-0.790282
-0.763439
1.55372
3.74935
-4.16586
0.416505
-2.8647
-2.13258
5.81249
-4.25296
-1.55953
-0.616445
0.553457
3.62444
-2.67469
3.6572
3.17278
-4.16205
0.321841
3.84021
8.51718
-4.88177
-3.63541
3.98131
-0.321106
-3.6602
-3.55645
-0.605601
4.38499
-2.54211
-1.84288
-0.955844
4.00273
-3.04688
2.77589
-3.86491
1.08902
0.459143
0.248126
-0.707269
0.81204
-0.440615
-0.371425
5.40232
-4.23857
-1.16375
-3.12043
-3.33438
3.95093
0.436976
-4.13286
-0.446821
0.504669
0.798488
2.86361
-3.93956
1.07595
0.0214884
0.886355
-2.69106
5.5471
0.907985
3.80495
4.99387
-3.5968
-1.39707
-4.54182
3.49983
3.80408
-5.43157
1.62749
-3.08935
-0.344449
3.4338
-1.24029
-0.937368
2.17766
4.28772
-1.01751
0.159348
2.92485
0.867212
-0.378691
-2.57523
-3.01233
5.27772
-2.26539
-1.16728
0.183199
-0.488942
-0.255544
0.530252
-5.52543
1.4354
1.17413
1.74267
-1.44897
1.87842
-0.429452
0.0802535
0.312133
-2.42106
1.57213
0.848924
2.05011
1.4514
-0.0600311
2.32642
-2.26639
2.35806
0.744779
-1.01935
3.88296
2.88824
-0.441267
-1.19337
-2.44207
4.55761
-0.697584
-3.86003
4.61668
-4.48023
3.85397
0.62626
3.90079
-4.3327
0.431914
-2.35676
1.75024
-0.714985
-0.045607
-1.12451
-3.20622
1.52174
-2.888
1.36626
2.23547
2.14952
3.39211
-4.75791
1.3658
1.21873
-2.85771
1.63899
-4.85572
0.852866
0.0555625
1.88734
-3.71554
4.76851
-1.05297
-1.10406
1.62643
-0.52237
-2.17531
-0.535965
-0.710644
-1.17719
1.88784
0.599974
0.00962303
-0.609597
-1.75935
-0.807921
1.76046
2.2757
-4.03616
3.68163
2.77064
4.2159
-2.24727
-0.109498
2.47794
-1.25922
-3.57618
-0.746429
0.849844
-1.31032
0.460478
3.79897
-1.72747
-2.44394
3.96706
-1.52312
-0.710779
0.829544
-0.118765
3.40241
-0.319926
-3.5572
-0.382361
-2.63796
4.80983
-2.17187
3.20914
-4.89345
1.68431
2.0569
3.75559
0.923121
-1.10393
0.180812
0.57773
-3.66708
3.02541
-4.60689
1.58148
0.364267
-0.209899
-0.394128
3.35926
2.70385
-1.26845
-2.58986
2.81977
0.864157
-5.14966
-4.66348
3.24985
1.41363
3.34718
-0.706471
-2.64071
4.6809
-0.931551
-1.93464
-2.24922
-1.98726
1.37688
-0.0495206
0.135707
-0.0861862
1.62454
-1.68851
-3.77548
3.38135
5.4829
1.48609
-4.14426
1.70031
4.35611
-0.405176
0.0551051
0.879615
-0.93472
-0.151459
-2.78704
2.9385
-4.50283
0.835474
3.66735
4.24619
-4.24619
-4.70546
3.93326
0.772202
2.70456
-2.76459
3.00971
-1.93092
-1.07879
-4.72998
4.89941
-0.16942
1.78212
-0.235318
-1.5468
1.43513
-0.488126
-0.947009
0.717036
-1.50732
0.0123844
7.19195
-3.53475
-3.96789
4.7285
-0.760612
-1.48833
3.24879
0.517178
-0.00640067
-0.510777
-1.39011
1.48333
-0.0932153
-1.88345
2.21081
4.61111
-3.62217
-0.988941
-0.525865
-2.5047
3.03057
-1.28903
1.35895
-0.0699243
0.841305
-1.46367
0.622369
-5.23763
2.7177
2.51993
-0.31228
0.0445412
-0.65034
0.705445
0.0717645
-0.524211
0.452446
2.27039
3.13193
0.462163
0.0550153
-0.509323
-1.16054
1.66986
-2.55669
4.13142
-1.57473
-0.20416
0.733472
-0.529313
2.31668
-1.14716
2.32719
1.53239
-3.85958
0.258009
-2.22873
0.150339
3.52004
2.25393
1.56489
-3.81882
2.47067
-1.98202
-0.488641
-5.04942
0.931722
-1.86542
0.926927
0.938497
1.74057
2.49018
-4.23076
-3.21902
2.87457
0.342178
-4.5348
4.19262
-0.715974
0.798244
1.222
-1.47538
0.253379
0.114357
-1.61767
0.0237847
0.30204
-0.325825
-3.53799
-0.907874
3.03098
1.21804
0.64966
-1.8677
-0.764572
0.0537925
0.721695
-3.46016
2.73846
0.840199
2.58383
-3.42402
0.906774
-3.519
4.15366
-0.634663
-3.63768
2.68184
0.765788
0.259499
-1.99753
-1.11685
-1.40784
0.323895
1.08394
-4.46956
1.91287
3.22733
-3.7532
0.716595
3.63951
-1.57112
1.59819
-0.0270734
1.69807
-3.83569
2.13762
0.939958
-1.4742
0.534241
0.198593
-3.75579
-3.37272
-0.173786
-1.74874
0.0369477
0.505459
-0.02517
-0.480289
1.74641
-0.0224714
-0.222205
0.244677
3.91373
-2.17315
-1.03529
2.08902
-1.05372
1.31994
1.06812
-2.38805
-1.71997
1.00399
-1.23141
-0.176425
1.59599
1.41372
-2.13198
-3.05574
1.37134
-0.5215
2.99739
2.21259
0.675654
-4.0446
4.33585
0.228545
-1.92331
1.69476
-0.447072
-4.1237
4.57077
-0.863899
0.826822
0.037077
0.902817
-2.66842
-1.23535
4.01124
3.93333
-2.59663
-1.8329
-0.588157
-0.0806074
-2.11499
2.1956
1.63791
-4.27027
-0.312882
-2.37205
2.68493
-0.287579
-0.437291
0.72487
-3.17681
0.103494
3.07332
4.11365
-2.38489
-0.0420769
0.553554
-0.511477
-1.15657
-0.132459
1.03658
1.80159
-2.83817
0.756735
-0.920814
0.164078
2.7791
1.573
-4.35209
-1.87788
4.60353
0.589953
0.0100208
-1.82738
-6.00379
7.83117
2.59118
3.10709
4.14489
-3.30469
-1.87932
1.16868
0.18332
0.62872
-1.36055
5.16463
0.642618
-3.81491
3.17229
4.26114
-0.662268
-3.59887
-1.89557
3.24567
-1.3501
1.92538
-1.51657
-2.2796
3.79617
0.479947
-0.516786
0.0368386
-1.40763
-2.42449
3.83212
-0.0408675
-1.34925
0.274627
-0.34348
2.54886
-3.95649
-3.49946
-1.07401
4.57347
-0.156417
-2.53848
2.6949
1.15858
5.52064
-5.76506
0.24442
1.14313
-0.575553
-0.567576
0.0417518
-1.61287
1.25014
1.3271
-1.67849
0.438199
-3.93047
4.96073
-1.03026
-0.941176
-1.09308
7.403
-5.30954
-5.35298
-1.59273
-0.393715
0.558431
-0.164716
2.64849
-0.435902
-1.0745
1.18292
-0.108422
-0.0908948
-0.679489
-5.52346
1.50951
4.34871
0.757437
-0.474955
1.31626
-1.15475
2.47469
3.90191
3.29004
-1.11024
0.0357456
-0.52409
-3.25139
1.21975
1.19334
-1.13114
-4.59052
0.0876931
0.101845
1.14666
-0.206704
-4.78067
2.41182
2.36885
3.18682
0.555726
1.07087
-0.382893
-0.687978
1.45961
-1.35843
-0.101179
-3.601
1.30754
-5.34619
2.70823
-1.25649
2.19653
-0.940041
-0.265206
0.730005
-0.4648
5.29902
-0.0843819
-5.21464
1.02222
0.0748822
-1.0971
-0.697415
-1.39303
1.23997
-0.171279
1.26356
-1.23371
-0.029849
2.0384
-0.316444
-1.72195
0.0339242
1.22964
3.59275
-2.38098
-0.138914
-0.77897
0.917884
-5.05741
1.12694
-0.181254
-0.71696
0.202294
-1.06427
2.28231
0.077568
-0.308974
1.30738
0.823471
-2.13085
2.17192
1.11434
1.85707
-1.62852
1.15209
-1.00868
0.528643
-1.6327
3.09421
-5.04673
1.95252
2.81005
-0.379942
-2.43011
-2.68023
-1.06743
-0.237199
-0.801762
1.03896
1.63946
-2.00178
0.362324
5.38953
-0.119538
-5.26999
-1.11114
-0.275999
1.38714
-2.48088
3.44389
-0.963005
2.56626
2.60909
-5.17534
0.3968
0.170836
-1.38191
2.27938
-0.897476
1.18767
0.453084
-1.64076
-4.2268
2.01135
2.21545
-1.06854
-0.165177
-4.22143
0.721973
1.64642
-0.959646
-0.686772
2.1513
-2.94756
0.796258
-0.535371
-1.00302
0.640067
4.88057
4.11559
-0.719941
-3.39565
-4.04025
0.52125
1.6136
-2.80697
4.19698
-7.01092
2.81394
-0.577353
1.50483
-0.124313
-1.88055
1.37123
-0.851647
1.10656
0.0672971
-5.77314
5.70585
1.46071
2.16374
-3.60602
3.85424
-0.248228
0.18475
0.320708
-3.37467
-1.00293
-0.66023
0.739089
-0.0788587
3.33595
-2.60242
-0.733533
0.128855
0.505179
-0.634034
-0.574209
2.72551
-3.0197
-1.63718
4.65687
-4.00548
-1.23256
5.23804
2.24369
-1.89129
-0.352394
-1.23796
0.138773
1.09919
-1.29365
0.151648
1.142
-4.68499
0.185594
4.49939
0.10615
1.03159
-1.13774
3.84247
-4.29169
0.449222
-2.31041
3.83309
-0.127416
-3.70567
0.0593041
-0.719534
1.62765
-1.80228
0.174634
4.07513
-5.62925
-4.72813
4.11598
0.612151
0.915537
-0.158801
1.18391
6.21909
-0.430614
-0.942117
1.37273
-0.0593476
0.918751
-0.859403
-1.31776
3.98495
-2.66719
1.85523
-2.73857
0.883342
5.01039
-4.8092
-0.201189
3.68721
-1.66985
-2.01735
0.197168
-1.20597
1.0088
-1.52745
-0.0402115
-5.23079
4.6005
0.630289
0.275884
-5.50667
0.38325
3.45545
-3.8387
-2.67253
-1.56604
1.087
-0.885501
-0.201502
-3.95545
-1.10195
-1.02587
0.707988
0.317886
2.13326
0.438425
-4.73771
4.49184
0.245874
-0.821909
-0.609429
-0.0120524
1.09343
-0.0712095
-2.85746
0.436754
0.848618
-0.952448
0.103831
-3.7664
1.93486
1.83153
1.86991
-0.0877935
-1.33597
2.78363
0.618775
1.84934
0.740017
2.99317
-3.73319
-0.68999
2.59121
-3.2815
2.03967
1.24183
-1.19345
0.124915
3.46876
-2.00805
3.18209
-1.48402
-0.84857
-0.960837
1.80941
-1.22927
-2.61581
3.84508
2.88682
-3.04324
4.13742
-1.78178
-2.35564
-0.0346161
-2.7033
-0.578207
-1.95253
4.0606
-2.10807
0.642416
-1.10154
4.49406
-5.17869
1.22323
0.740771
-0.281628
-0.68552
-0.234047
0.827539
-0.0276774
-2.02287
-2.1661
4.14602
-0.983435
0.627041
0.022282
-0.649323
0.258112
1.17702
-3.99615
-2.16747
6.16362
2.79345
1.49427
-0.0191297
-0.785234
0.804364
4.09318
-1.04576
-0.247783
1.29354
-1.84493
4.93914
-1.89033
-4.80126
0.833367
-1.12024
0.057794
1.06245
3.84918
4.12862
3.56235
-1.59818
-1.96416
4.81226
0.198131
3.0432
-4.34611
1.30292
-4.04023
-0.00242741
4.04265
-4.12886
5.34352
-1.21466
0.765475
-0.0222916
-0.743184
-1.80941
5.88454
-1.41726
2.10194
-0.684682
0.227274
-3.83329
1.80288
0.261289
-2.06417
-4.51258
5.82199
-1.30941
-1.2822
2.8414
-1.55921
5.80879
-2.55968
-3.2491
0.16051
-3.01789
2.85738
-1.3154
-0.159982
-2.05928
4.62553
-0.810319
-3.89514
4.62922
-1.42008
-0.955724
0.81681
-4.19801
0.157784
4.98687
-1.59476
0.127667
-5.52979
1.21725
-0.134619
2.86345
6.32993
-9.19338
2.79958
-0.785276
-2.01431
1.74767
-3.98082
2.23315
-0.917834
0.0537067
0.864127
-1.1052
-2.41287
3.51807
1.81685
-1.28821
-5.40957
3.27125
2.13832
0.724063
1.13186
-1.85592
0.401878
0.685126
-5.64778
6.66314
-1.01537
-0.616605
-0.247294
2.20935
1.14317
-3.35252
2.32712
1.64353
-3.97065
0.94205
2.40513
-0.120071
6.28869
-0.0233167
3.91995
-3.89663
-0.194452
-0.00970764
0.428957
0.0308688
-0.459826
3.39103
-3.55668
0.165654
1.85804
2.27938
-0.515667
0.387022
0.128645
-1.2631
3.92605
-2.66296
0.00403142
0.931452
-0.935483
-1.06541
-0.527442
1.59285
-2.49874
-1.49117
3.98991
3.74349
-0.528983
1.33914
1.46045
0.0273185
-4.95616
4.92885
1.51016
-4.01486
-0.323613
0.453713
-0.1301
1.00426
-0.260756
-0.743505
-0.131922
-1.18348
-0.323064
4.25249
-3.92942
-0.537118
4.64344
3.73455
-3.14668
-0.587871
3.23699
-2.63601
-2.53093
1.00188
1.52905
0.0693119
-2.00023
-0.841149
1.12091
-0.279763
0.348636
0.722235
0.745516
3.63115
-4.37666
1.0801
0.958296
0.679295
-4.68478
-2.28703
0.951451
1.33557
-1.65423
-1.27223
2.92646
2.50075
-1.19337
-4.2036
2.71527
1.83959
-1.37616
-0.46343
-8.15083
4.46145
3.68937
-2.12242
2.38043
-2.29476
2.95888
-0.664126
-3.15441
9.24176
-6.08735
-0.109921
1.06923
-0.959307
-0.662179
0.396973
-0.806268
-2.88387
7.39578
-4.51191
-2.68146
3.51757
2.44377
-2.66309
0.219325
1.19722
-1.9221
0.724881
-4.95653
3.37659
1.57994
-0.147804
1.17601
-1.02821
0.321544
2.58636
-3.90412
1.74988
-2.97915
-1.3372
-3.32628
-3.50515
3.48183
2.29481
0.172023
1.56124
0.766352
-2.3276
-1.69772
1.60241
0.0953085
2.23772
-2.40006
0.16234
-1.91492
-1.52418
3.4391
-3.94978
2.61142
1.33836
-3.60736
-0.878167
4.48552
1.58637
-0.389142
3.19236
0.198673
-4.7511
-0.232453
4.98356
2.3023
-1.31924
-0.983055
0.0315739
0.982329
-1.23537
0.253039
-2.64645
-3.01431
1.09939
0.746346
1.04512
-0.847949
2.98116
0.354788
-1.10254
-1.63528
0.179575
1.41737
0.152053
0.253329
-0.405382
-3.5205
-2.82756
6.34806
4.456
-4.42868
-2.50919
-0.26214
2.77133
0.682854
0.920293
-1.60315
-0.0357197
5.51757
-3.52556
-1.99201
0.904104
3.21148
0.136137
0.662869
-3.38433
2.72146
-1.35527
3.72787
-2.3726
-2.76517
-0.999205
3.76438
-2.34255
0.960645
-1.74956
-0.781373
5.84402
-2.5405
-3.30353
0.11287
-1.54248
1.42961
1.66986
0.465652
-2.13551
-0.895773
1.00192
1.1052
-0.662677
-0.442524
1.21639
-0.109048
-1.07676
-0.0656391
3.51402
2.33
2.03783
6.83585
-0.974244
3.81541
-0.879002
0.991872
-3.99317
1.228
3.62843
-3.0507
-0.623996
-3.23081
0.749925
3.75521
-3.37196
3.2437
-3.39516
4.08178
-0.180991
-0.974418
-0.645103
-0.985065
-0.546945
1.53201
-1.53673
-0.147985
3.7279
0.63394
-4.36184
-0.0721564
-1.22285
1.29501
0.0219199
5.1971
-5.01647
-0.18063
4.10133
-0.258867
-7.4911
6.4791
1.012
1.04188
-0.818489
-4.38021
-0.576314
-1.41568
4.73981
-0.139315
-4.24892
5.28998
-2.16502
-3.12497
-2.85733
-0.313545
3.17087
0.512702
2.41234
-2.92505
-3.48265
0.305836
-0.947179
-0.40016
1.34734
-2.35247
2.99509
0.833754
2.39522
-3.22897
-2.16648
0.966556
1.19993
-4.29572
0.381107
3.91462
-2.38315
4.13303
-1.17462
2.38405
1.30316
-1.11203
-0.753398
4.59595
-5.44022
-0.725266
-2.5638
3.28907
-0.60425
1.00105
3.35659
0.137697
-3.49429
3.12353
-4.09777
0.0951443
0.171966
-2.31627
3.57007
-1.2538
-0.415135
2.04279
-0.0819983
1.38893
-1.30693
-1.1166
0.81199
0.304609
2.3711
-1.46828
-1.36641
2.98
0.820462
-2.07695
-0.809418
0.868722
1.98649
-2.90471
0.0646658
-0.358005
-0.994973
0.956926
0.0380467
1.05259
-1.16129
0.108703
-3.02874
3.40389
0.424434
-2.93362
-0.049971
-1.36461
-0.0890845
2.8233
-2.73422
1.61752
-1.72561
1.26929
-3.55442
2.28513
-7.26945
0.954649
6.3148
2.14016
-5.15249
-2.89358
-0.120079
-4.60805
1.02108
3.12494
-3.61229
-0.591304
-0.354942
-4.12529
-2.10461
0.927422
1.06487
-0.17552
-0.889354
7.23367
-3.38449
3.90841
-0.883007
-1.13056
-0.841044
1.9716
-4.7331
1.88014
2.85296
-0.467885
0.745225
0.134367
3.69872
0.827183
-0.458275
-4.65964
0.933668
-2.35093
1.13071
-0.00693498
-1.12377
-0.611812
4.33971
1.29034
-0.0810121
-1.20932
4.05257
-6.01331
2.88281
3.1305
1.17307
1.05299
-2.22606
1.67951
-4.71828
3.03877
-2.66311
1.38092
-3.57601
-0.198421
1.86828
4.41998
-4.86705
2.06809
-0.880415
-1.83897
3.34912
-4.33889
3.02703
1.31186
-0.169497
-1.46718
1.63668
-3.36986
3.64854
-0.278672
1.74893
-2.43892
0.0732297
0.884215
1.35947
-4.46135
1.98524
7.01651
-3.76502
-2.78803
6.55305
1.17891
-4.03623
3.14574
-0.0660379
-2.95
0.580332
2.45254
5.07993
-1.74033
-3.33961
-4.6666
1.35098
-3.00521
0.852649
-4.49127
4.17772
-3.25501
1.73843
2.32705
-2.18887
2.72846
-0.539586
-7.04858
2.26909
4.7795
-4.60611
-0.794757
0.507178
-4.80118
3.41667
1.38452
4.12128
-5.93069
-5.55001
-0.0977685
7.00005
-2.80306
4.49847
-0.366378
-4.1321
-0.118139
-0.788191
0.906329
-1.19357
1.99196
2.57578
-3.37996
1.19109
0.687187
1.12966
0.935167
1.83741
-2.77257
1.93015
-1.0966
-0.310061
-4.94629
5.25636
-1.73767
1.72493
-4.02049
-3.09031
-2.28179
5.3721
1.25092
-1.59752
-3.42746
1.14331
2.28415
0.161828
0.275719
-0.437546
6.27905
-6.21175
1.0097
-3.32596
1.18371
1.37391
-2.55762
0.13118
0.495861
-4.02198
1.20301
2.81897
-3.99214
1.4934
2.38309
-3.73837
3.10197
-3.82724
0.275999
-0.114171
-0.122585
4.38373
-2.86601
3.69726
-0.83125
4.00726
0.0193022
-4.02656
-3.70573
-0.0915666
-1.3574
0.217334
4.02886
0.660205
0.16934
-1.05277
0.201257
2.5033
2.47145
0.185416
2.0523
-4.41824
-0.319468
-3.6292
-3.51396
-4.43613
0.921672
0.89781
-1.81948
7.92571
-1.05707
-6.86864
-0.577123
0.554832
-1.68517
-3.66102
-3.70736
-0.625342
-1.10826
4.23179
-1.58508
2.30884
-0.723765
-5.22473
1.70423
-1.48553
2.4207
-2.53149
-2.24918
-1.28179
-1.25158
1.60801
-2.63141
-1.13499
5.49986
-0.760042
0.479445
-3.66741
3.18797
0.609384
0.846237
1.30622
4.79761
-4.45543
-0.177712
-1.08205
1.63288
-2.29075
2.57939
-2.28531
-3.08073
1.04057
0.894976
-1.93555
-4.31881
0.0726245
-0.677528
3.71362
-3.03609
-2.32006
-5.17104
-3.224
3.5769
5.47434
-2.38677
-3.08756
-0.385263
1.31219
4.30579
-2.00842
-2.29737
1.29685
-1.4059
0.176441
0.252516
-0.660367
-0.102877
0.763244
-0.705763
2.26701
-2.15609
6.27737
-0.0677873
-0.817714
-1.31329
-0.50086
1.81415
0.326867
5.95218
-0.247128
1.97691
-1.72979
-1.80517
2.84175
1.8705
2.05555
-1.73293
-0.554094
2.56891
-0.906527
-1.66238
-0.273463
0.331635
-0.0581719
0.358277
-3.44985
3.09158
-4.40683
0.699467
1.06907
-8.51096
4.997
-0.0173602
1.31421
0.738305
-2.32338
-4.08688
2.09962
-4.3672
1.45903
-2.25673
0.373274
-1.87063
-2.92753
4.79815
-4.90372
0.440449
0.899955
-1.3404
4.03125
-3.325
3.21545
-2.70275
0.602157
2.58424
-3.18639
0.707046
-1.65423
-1.78746
-2.66793
4.45539
-0.332191
2.3203
-1.98811
-1.56695
3.34076
-1.77381
4.2588
-3.00474
-1.25406
3.30381
0.265434
-3.56925
-2.31173
-3.70158
-1.51689
-0.231854
5.201
3.36541
-0.0727283
0.51711
-0.444382
-3.16403
-0.857949
3.18607
2.90577
-2.52829
3.1633
-0.63501
-1.27345
1.02567
0.544948
1.85089
-2.39583
1.08454
0.205795
-0.471904
-4.32928
-6.47313
1.84637
-0.00678595
-1.96086
2.44041
0.370308
3.43467
-3.80498
-2.46082
-0.396636
-1.65151
5.33314
0.349076
-1.216
0.0405053
-0.203481
0.162976
0.460679
-1.80417
1.34349
5.13749
-0.914992
3.57832
4.07723
-1.84176
4.3051
-2.58017
-0.608237
-1.18998
1.79822
3.49932
0.503407
-0.0146058
-3.30936
2.20415
5.73086
-5.40399
-2.21317
-1.92084
4.13401
-2.69662
-2.03648
-4.63712
4.64338
-0.00626159
0.959927
-1.61558
1.06863
2.76116
1.31607
-0.833434
-1.53522
2.36865
-1.46587
-2.45362
-2.28415
-1.91529
4.19944
4.35546
-1.56201
-0.928595
0.604982
2.83905
-4.52423
1.99179
-1.73899
-2.40842
3.86699
-1.45857
1.90181
2.35984
1.5829
-3.94274
4.6221
-2.83812
-1.78398
-1.50856
-3.52204
4.72516
-1.20312
2.98478
-2.50534
-1.37585
1.35849
1.99182
3.81697
-1.05453
0.93639
0.209378
-0.231849
4.51076
-2.50656
2.97309
4.26057
-2.01603
1.11512
0.900904
1.11114
-1.95971
3.48748
-0.130887
4.75596
-0.257487
-3.12313
-0.323434
3.44656
0.916912
-0.116807
-0.800104
0.836888
0.306241
0.672579
-4.80143
-1.33728
1.45163
3.22477
-2.92784
-0.296934
0.74865
1.82026
-0.758839
0.375946
1.16399
1.17214
-2.33614
-2.14907
3.98197
0.475995
-2.01155
5.0112
-2.99965
-1.06796
1.79202
-0.96749
-1.19899
5.01494
-2.49121
-1.64164
4.3167
-2.6372
1.42102
-1.47099
-0.84965
0.739729
-1.42637
-0.741019
-0.0235528
2.44215
-0.785329
3.81068
-3.02535
0.445186
-0.373421
-1.50995
0.567833
-1.64763
0.130745
-7.66802
5.84065
1.10955
1.16983
-1.26643
-1.64352
2.90995
0.935834
0.582907
3.7449
2.35549
-6.10039
-0.553667
-0.0905723
0.644239
0.0733956
-1.10869
3.58024
1.8941
3.66122
-3.29091
-4.88258
0.260204
-0.0970219
-2.67286
2.10358
1.27856
1.84219
-3.12075
1.76094
-0.143418
-0.122026
-1.49522
-0.520802
-6.56985
-2.08969
2.159
1.61514
0.473882
2.64567
-2.51981
-0.125859
0.916419
0.0405072
-0.347488
1.19838
-0.145785
3.71173
0.959699
-4.67143
-0.416995
1.5477
-1.09588
0.679715
0.416165
-1.64505
0.0225366
1.62252
1.74026
1.95702
-3.69728
1.12065
1.3801
3.1479
-0.0597563
-1.27187
3.01384
-2.81258
-0.641241
0.699488
-0.0582461
-4.17573
3.04196
3.90116
-3.0878
-0.813357
0.0808746
-0.743369
0.662494
4.07404
-4.39711
4.31637
0.0390893
1.09957
2.11588
-0.687959
-0.0530603
-0.779459
-0.270974
1.05043
-2.49264
-0.638129
4.99623
-2.55476
-2.44146
4.82647
-3.29472
-1.53175
1.94898
-3.38417
1.43519
-0.212349
2.50463
-0.0266922
-1.36762
1.6105
-0.24288
-1.05062
0.27116
-6.40262
-0.924387
0.843375
4.2351
0.0308759
-4.26598
-0.696939
-0.418648
0.570701
0.451802
-0.0647804
1.63852
1.93155
-1.28823
1.41708
-0.0620482
0.384343
-0.437133
0.580993
-1.86338
2.46553
0.0746938
1.11864
0.176212
-1.34216
3.85284
-0.0160017
2.66167
-0.500583
-0.626395
-1.15957
2.32357
-0.905612
3.62374
-2.71812
-3.69468
-0.526756
-0.803514
1.88827
-1.08476
-0.943302
0.0189145
1.45284
-0.298631
-0.0916828
-1.10449
1.19617
-3.75215
1.26094
0.657334
-0.69941
2.61411
-6.61027
2.13098
-8.13477
-0.748308
3.23947
-1.63429
2.3988
-1.22665
0.0626779
-2.82967
3.18795
0.000331615
-0.759297
0.407946
-2.29924
-0.567397
-2.68488
3.25227
1.25536
-6.08554
6.94307
-4.40548
-2.53758
-1.06404
0.386804
1.07385
0.104739
-1.17859
-3.65602
0.79001
0.969526
0.0347343
-0.042804
-0.634572
0.677376
1.79267
-2.59619
0.398501
2.00014
0.301884
-2.30203
-4.03165
3.12603
0.729888
0.18692
-0.916807
4.67283
-7.5567
-0.701309
-0.0130753
0.714385
0.954153
-0.224266
0.0435155
3.33714
-2.39509
2.70426
2.3326
-1.21195
-4.57946
1.48915
-2.9811
2.5515
0.429607
1.89424
-4.10741
-2.2796
-1.46311
3.74271
0.376633
1.85379
-1.3651
1.12979
4.71951
-0.604047
-4.11547
0.00473307
-4.42298
2.93426
0.369553
2.4217
1.8841
-0.770615
-0.0146192
0.747036
-1.34196
-1.54604
0.38222
-0.365551
-0.0166692
0.119961
-3.96437
3.84441
-0.180712
1.28339
-1.10268
-0.553211
-6.59074
7.14396
-0.267211
-2.50834
-0.124976
0.160015
2.9509
-1.53028
-0.949209
2.47949
-1.75759
-1.78039
2.06646
-1.17149
0.638246
-0.887774
0.249528
-3.03728
1.77084
-4.07162
-0.516972
-0.347822
0.864795
0.589346
1.45217
-2.04151
0.703975
-2.28685
1.58288
0.324916
-2.57724
0.684625
-5.1972
-2.89364
-1.74819
4.64183
-4.2362
0.197325
4.03888
-5.38622
-3.55095
0.181089
-1.25165
1.29655
-0.0448924
-4.29579
-1.5766
5.28833
1.72842
-0.904949
0.371154
-1.53073
-0.791831
2.17193
0.729949
0.513655
-1.82694
0.0881346
-0.754227
0.666092
-0.725084
0.0720229
-0.530664
0.611539
-1.24263
2.4157
-7.88369
2.90392
4.97977
-3.89314
4.05249
2.40581
0.968065
-0.051153
-2.64534
1.81191
-2.14393
-1.28353
-2.50426
0.928141
1.57612
0.442667
0.781475
-1.22414
-1.85974
2.32042
-0.497607
3.29695
3.03517
-3.2823
2.38492
-4.14251
2.02913
-2.43877
0.409644
0.581553
-0.0279989
-1.02872
-0.0752172
-4.78554
2.91491
3.55523
1.27124
0.0725564
-0.926138
0.853582
-6.06702
2.22097
-1.35487
0.491944
-0.886731
-0.0657106
-1.01643
1.08214
-2.5795
1.04922
-4.56364
4.09174
2.2819
-1.09819
-1.10455
0.999247
0.105298
0.0911983
0.467233
-0.744113
-4.51276
2.35229
2.16047
-0.730237
0.639665
-0.474161
1.54077
-1.06661
3.78177
0.534597
0.712412
-0.576725
-0.135687
-1.1853
1.25999
0.243058
0.121209
3.43131
-8.03618
4.50002
0.312243
1.39607
-2.41299
4.15771
-0.174867
-3.98285
-0.857138
1.05773
-0.200595
2.11657
-4.13944
-1.70051
4.33113
-2.63063
-0.0558871
-0.281132
0.337019
-3.50391
3.56052
-0.0566154
-1.46567
2.73496
-0.204765
2.05999
8.60435
-3.65576
-4.94859
0.112422
-0.634055
0.521633
-0.131903
-1.42727
-0.100182
-1.40033
-0.0269413
0.333014
-1.55437
1.22136
-0.396485
4.16395
-3.76747
-4.08493
1.38057
2.70436
1.31087
3.98815
0.132496
0.293263
-0.425758
2.50292
1.19954
-3.70246
0.491415
0.573459
-1.35014
3.77055
-2.42042
-3.46245
0.339325
2.86321
1.31436
-3.59396
-0.00842153
-0.586248
0.594669
3.89423
-0.825445
-3.06878
1.2217
0.977545
-4.38397
2.21787
4.33368
-4.64374
-2.21289
0.337721
1.87517
-0.462573
-0.25545
1.22055
-0.965099
-0.360187
0.301714
0.0584727
-0.0509209
0.622729
-0.571808
0.00320649
-0.166547
0.163341
-2.57501
5.41406
-1.4113
1.33069
0.607545
-1.08171
1.6947
-2.5016
0.806892
-2.19264
-2.14625
-1.3558
0.0621523
1.19332
-0.0521315
-1.14119
4.08379
-2.35003
-1.73376
0.364325
2.86045
-1.11536
-0.582363
-2.63632
0.521322
1.43647
2.12322
-3.55969
-0.0117866
-0.116011
0.127797
-0.10879
1.5684
-0.146011
0.718571
-0.572559
3.22351
-1.6292
-1.59431
-5.49088
-0.282267
0.994634
-0.85257
-1.24971
2.10228
1.22092
1.48292
-0.0237134
-0.693247
-1.1359
0.107188
-2.68852
3.39406
-0.705539
0.710172
0.117011
-0.927587
-0.0614059
-1.10157
1.03378
-1.22459
0.948592
2.77055
-1.94259
-0.827968
3.3073
-2.03721
-1.27008
3.34411
1.79338
1.13118
0.227772
-1.04367
0.859091
-0.326485
-1.60978
-1.06873
-1.66984
-1.61388
0.246257
-1.16625
1.3179
0.659086
0.295068
0.0793044
-0.135192
3.80624
-3.86534
0.0590984
4.38678
-2.16237
1.0468
1.11557
0.524601
-1.60666
-5.24892
-3.92971
-1.12107
1.00427
-0.811067
-1.2107
2.02177
-3.57089
0.889423
1.22303
1.22803
-2.45107
1.07078
-1.40297
-1.08844
-2.20222
3.84575
1.49306
-5.12847
1.21081
-2.3567
1.14589
-1.14905
1.49813
-2.57057
-3.49645
-0.596247
-0.520352
2.97826
-3.83934
1.61212
2.22722
-0.0624451
-1.42586
0.0828882
-1.54826
1.46537
-3.35949
-1.89749
-0.775087
0.762012
3.47099
1.90303
0.593603
3.20537
-3.53635
-1.35709
3.97159
-0.221482
-3.75011
2.02023
-3.12277
4.59957
-2.45898
-2.14059
1.37051
0.931808
-2.30232
-1.90388
3.18391
-1.28003
-6.2583
3.17667
3.08162
0.0529847
1.09534
3.57511
-2.47822
-2.9272
5.40542
-1.5155
2.73643
-3.19746
-0.285195
2.35274
-0.773516
2.31766
-1.54414
-0.658576
2.45125
-6.15246
0.206788
-2.8666
2.65981
1.85657
-3.21644
1.35987
3.08971
-1.99014