/*--------------------------------*- C++ -*----------------------------------*\
| =========                 |                                                 |
| \\      /  F ield         | OpenFOAM: The Open Source CFD Toolbox           |
|  \\    /   O peration     | Version:  2306                                  |
|   \\  /    A nd           | Website:  www.openfoam.com                      |
|    \\/     M anipulation  |                                                 |
\*---------------------------------------------------------------------------*/
FoamFile
{
    version     2.0;
    format      ascii;
    arch        "LSB;label=32;scalar=64";
    class       volVectorField;
    location    "3";
    object      U;
}
// * * * * * * * * * * * * * * * * * * * * * * * * * * * * * * * * * * * * * //

dimensions      [0 1 -1 0 0 0 0];

internalField   nonuniform List<vector> 
13486
(
(7.78721 -1.57193 3.04598e-20)
(8.60794 0.704153 1.41535e-20)
(11.5943 -0.382763 0)
(2.16594 -3.12987 -5.47209e-22)
(12.1209 -2.83934 1.50396e-20)
(11.3673 0.367909 -5.52719e-22)
(13.0675 -2.11888 -2.89073e-22)
(10.3042 -3.77737 -1.95586e-20)
(10.1569 -2.26989 0)
(9.90249 2.53816 0)
(1.99471 4.96409 -7.40567e-20)
(12.1368 0.653995 0)
(7.06515 -2.48036 -3.02779e-20)
(11.714 2.44868 -3.32309e-22)
(12.9717 -1.90656 8.65763e-21)
(9.77437 2.69164 -9.92185e-21)
(4.41438 -2.14996 3.9311e-20)
(17.2425 -2.72626 -5.01194e-20)
(11.0334 0.203283 2.84552e-22)
(8.51247 -0.839095 -3.09381e-20)
(4.05854 -6.88112 -1.81919e-21)
(7.13609 -2.52794 3.9008e-20)
(8.75764 0.702262 -1.13378e-20)
(11.5393 -5.10625 0)
(10.2304 2.03621 3.24631e-21)
(12.0558 -4.85701 -4.17962e-21)
(-6.09756 6.56584 4.89356e-20)
(10.9305 -0.234292 -2.89827e-21)
(7.93382 -1.1821 0)
(9.25715 -0.402113 8.16788e-21)
(6.6343 -8.63981 -4.09046e-21)
(13.6575 -0.547559 -1.13697e-20)
(12.8222 -1.79343 1.05243e-20)
(11.337 0.952105 0)
(10.4004 -3.65542 0)
(7.95642 0.075186 -6.78335e-23)
(9.72814 -1.99336 -2.63123e-22)
(8.34492 -3.9411 1.69008e-20)
(13.3656 -12.444 -1.92428e-20)
(10.2169 -1.46774 1.72872e-20)
(12.3569 -4.25859 0)
(6.57048 -3.12155 -3.55058e-20)
(12.721 0.0166433 0)
(10.1251 1.71974 -1.57668e-20)
(10.2207 1.71502 6.4228e-21)
(11.8878 0.635409 1.17213e-20)
(-0.715631 2.03658 5.6087e-20)
(8.23927 -1.17116 -1.24601e-22)
(9.75987 -1.79822 2.21077e-22)
(11.591 -0.22169 3.04409e-21)
(9.94312 0.142437 1.81204e-20)
(16.4058 -5.30529 0)
(12.2378 1.52822 -1.71517e-20)
(8.61881 -3.30787 -2.43514e-20)
(16.3638 -7.14325 0)
(12.0453 -2.899 -9.64495e-21)
(9.11418 -1.68591 -1.71318e-21)
(17.8302 -6.75901 -2.70197e-20)
(12.4482 -1.81754 1.11565e-20)
(9.1097 -2.27631 0)
(3.3764 2.14683 -9.4469e-20)
(8.45875 -2.11604 0)
(15.7945 -0.662998 -1.94573e-20)
(4.79948 -7.21419 -1.83495e-23)
(6.88095 -9.7837 0)
(9.64135 -2.00452 -1.01113e-22)
(0.110639 -2.12627 -3.80521e-21)
(7.69013 -0.411785 1.00217e-20)
(10.1422 -2.38613 -9.97427e-21)
(7.74052 0.33506 2.096e-21)
(-0.117023 -1.38455 4.39394e-21)
(18.5963 -5.20562 -5.39047e-21)
(10.0948 -0.870345 1.26469e-20)
(-5.76791 -1.04198 -3.59431e-20)
(9.10214 -1.83666 -1.77555e-23)
(7.5299 -1.58032 4.22345e-22)
(9.22698 -1.77465 -3.41374e-22)
(12.9861 -2.01682 -3.51634e-21)
(0.396778 3.40071 -3.07506e-20)
(0.0151159 15.9252 0)
(8.42282 0.0177732 5.88641e-23)
(8.47477 1.13021 -9.07837e-22)
(16.7435 -0.795191 -3.23071e-22)
(11.3048 -0.324119 -2.9758e-21)
(7.75454 -1.6106 -5.93847e-20)
(8.00698 6.55105 0)
(2.29334 3.52921 1.30811e-21)
(9.97268 0.226519 -2.76076e-20)
(9.38798 0.604728 -1.19631e-20)
(9.06877 3.68045 -1.20658e-20)
(13.9773 0.73064 -5.73116e-21)
(10.9892 -3.2893 -1.06701e-20)
(8.0481 -2.05583 7.94443e-21)
(8.6869 -0.154579 7.9522e-22)
(9.6552 -3.14003 4.05216e-21)
(8.28322 -0.647269 3.48507e-23)
(-7.25325 6.52913 0)
(-1.59302 -3.93557 9.39788e-21)
(10.2525 -1.43987 -3.30167e-20)
(3.79355 -0.990924 5.01673e-22)
(8.57643 0.0534926 0)
(11.603 2.48998 -2.97442e-22)
(-1.93019 -3.96027 2.48892e-21)
(16.6009 -6.43434 3.08964e-20)
(7.0357 6.09338 0)
(2.1072 1.12178 4.36264e-22)
(9.7561 0.0913304 7.34204e-23)
(12.2357 -11.9173 -5.76139e-20)
(-0.58766 4.12499 3.94202e-20)
(10.4616 -4.78707 0)
(8.81213 -4.12982 0)
(14.2653 -1.66667 -1.07429e-20)
(8.67559 -3.21823 1.3895e-22)
(9.96987 -1.09731 1.11784e-22)
(6.24721 -0.942697 0)
(8.60421 -4.04788 -1.55586e-20)
(10.1142 2.15795 0)
(11.4419 1.21713 0)
(10.0713 -0.836065 0)
(9.76581 -1.34891 -1.41977e-23)
(17.9122 -3.42665 2.7313e-20)
(0.709061 3.43228 0)
(9.5019 -2.88971 0)
(15.7157 -12.117 6.37445e-20)
(9.85887 -3.58363 0)
(16.808 -5.28276 0)
(11.5033 -1.46328 4.25379e-22)
(10.579 0.298793 6.79645e-21)
(12.3892 0.829114 3.47667e-21)
(5.80912 -8.47369 -1.9285e-20)
(15.6783 -4.98515 -1.91809e-21)
(0.303708 2.20603 -1.40791e-20)
(8.02115 -2.8881 4.54734e-20)
(-3.43985 1.8005 4.43562e-20)
(9.98583 0.0755936 -2.96187e-21)
(9.57241 1.49374 -1.3533e-20)
(4.66153 2.04992 -8.42566e-21)
(9.88591 -4.38981 0)
(9.76245 -1.21322 6.29353e-24)
(10.5097 -3.14792 -6.83012e-21)
(12.347 -0.952462 -9.75641e-21)
(12.9111 1.70596 1.46246e-20)
(13.0825 0.326361 0)
(3.16663 15.2676 0)
(13.4918 0.0257817 8.48119e-22)
(16.7951 -2.70418 -3.76226e-20)
(8.77235 1.64616 -6.84047e-21)
(-1.51368 4.35633 0)
(12.0125 -0.289984 0)
(7.97212 -0.963441 0)
(9.93633 0.0721695 2.84189e-22)
(12.8687 -2.36678 0)
(8.47349 0.0452114 -6.16059e-23)
(8.32634 1.0223 -7.66318e-21)
(10.6288 1.08201 0)
(11.5719 -0.440583 0)
(10.3159 -4.58031 0)
(5.67167 -2.05378 -8.65711e-21)
(9.0949 -3.69994 3.61929e-20)
(8.0071 -1.89523 4.83037e-21)
(11.5236 0.0371779 1.58247e-21)
(9.14919 -3.62029 -5.45015e-20)
(15.7508 0.610777 2.66902e-22)
(5.8481 -2.95701 1.56245e-20)
(17.5141 -5.37043 0)
(12.119 2.41074 -1.73373e-21)
(11.3276 2.28158 4.29004e-21)
(3.24989 -1.08732 -3.65171e-20)
(8.6033 1.44944 1.77231e-20)
(-3.08647 1.97931 1.20248e-20)
(-0.513314 1.44963 4.42019e-22)
(10.596 0.95968 5.40543e-21)
(10.0487 0.340956 -2.24599e-20)
(12.2362 -0.936748 7.37427e-22)
(8.41695 -0.108149 7.62135e-23)
(2.5901 -12.1657 0)
(11.7178 3.84298 7.1683e-22)
(12.9762 -1.01685 1.60092e-20)
(9.84813 0.0416832 -3.00098e-20)
(12.8416 0.409583 0)
(10.522 -1.72494 3.59939e-20)
(10.4955 -0.980344 2.2503e-22)
(12.6591 -0.589219 -2.14164e-22)
(-12.5174 6.09849 0)
(10.7042 0.107414 8.14102e-21)
(10.3294 -0.223749 1.36154e-21)
(10.3177 -2.13423 -1.39676e-22)
(10.1707 0.435985 2.97526e-21)
(12.2496 -4.38979 0)
(7.96481 -3.84426 -2.06347e-20)
(9.71148 -1.57649 0)
(12.4322 -0.340818 0)
(21.1009 -7.39007 0)
(9.72572 3.58378 -1.63855e-20)
(21.1337 -1.87191 0)
(-0.989512 6.07535 -2.24574e-20)
(7.6236 -14.3136 3.3711e-20)
(11.2157 0.0163182 7.05817e-22)
(7.66033 -3.7546 -7.38263e-21)
(11.9859 2.16926 -5.52429e-23)
(6.80041 -9.66022 6.75782e-21)
(10.6119 0.342849 -2.09097e-22)
(8.31769 -4.0092 -1.95849e-20)
(11.6935 -4.81476 5.39859e-21)
(8.1481 -1.90772 -5.76826e-21)
(22.7474 -1.86222 -3.38375e-20)
(13.6206 -7.2931 -2.02886e-20)
(9.64937 -0.549082 2.48398e-20)
(20.4537 -7.87372 0)
(10.8177 -0.057799 0)
(10.5702 -0.060197 -6.84004e-21)
(10.752 -7.01498 9.30205e-21)
(8.56186 -0.688685 2.84209e-20)
(9.74088 0.123364 8.94707e-23)
(11.3828 0.50909 6.37408e-22)
(0.134548 4.46554 8.62352e-22)
(9.76077 -0.635488 0)
(9.26402 3.4526 2.97533e-20)
(8.38436 -2.16137 0)
(14.5118 1.53986 0)
(4.20911 -1.32715 -7.47968e-20)
(11.758 -0.265548 0)
(10.4279 -3.13411 1.60812e-20)
(12.5911 0.0401957 0)
(11.9877 2.37409 -3.54133e-21)
(7.40745 -3.48009 1.13424e-20)
(11.9531 0.887129 -8.04492e-23)
(5.56516 -12.7144 5.67986e-21)
(4.89386 7.88646 -4.69275e-21)
(1.29989 8.36752 -2.59595e-21)
(10.5196 -1.68127 -1.15366e-20)
(10.6895 -5.16698 6.84779e-21)
(12.3481 -1.046 1.22551e-20)
(6.4425 -3.04715 1.20821e-20)
(1.06696 -7.32345 0)
(7.04843 -3.4429 1.36041e-21)
(10.4335 1.13422 -7.97338e-21)
(12.276 -0.324391 -1.7893e-21)
(7.24058 -3.47257 3.72117e-20)
(12.2779 -0.226227 0)
(12.4075 -2.09288 0)
(10.0273 0.283045 3.4597e-20)
(12.9115 -0.372438 0)
(6.86359 -3.41256 1.26e-20)
(8.0321 -14.0563 -4.50344e-20)
(9.24058 -0.115661 0)
(12.2308 0.0829909 -3.42508e-21)
(9.17745 -3.10329 4.64569e-21)
(-2.32676 -0.825964 7.06338e-20)
(10.0079 1.63578 0)
(-6.47322 -1.53399 -1.06692e-20)
(6.13761 -0.826163 4.2778e-21)
(8.09673 -3.95316 2.00408e-20)
(15.4138 -11.5407 0)
(7.29094 13.5085 1.17567e-20)
(1.89829 -10.5859 1.03487e-20)
(13.8105 -0.472443 9.25531e-21)
(0.758727 5.77418 -1.08967e-21)
(6.02635 -2.6653 9.06566e-21)
(12.4387 -2.00173 7.71461e-21)
(9.05856 0.56392 0)
(5.05339 -12.5903 -5.45911e-22)
(12.9829 -1.87208 -2.00055e-20)
(1.69378 -10.5614 -1.29227e-20)
(11.4509 -3.84914 -1.48585e-20)
(-12.2916 6.19178 0)
(7.83064 8.21181 -1.7044e-21)
(5.47274 -9.31313 -5.13606e-21)
(10.3673 -0.117127 -1.49387e-20)
(12.8712 6.55705 0)
(8.11254 3.33852 1.22737e-20)
(9.87165 0.149607 -8.08802e-21)
(9.66851 -0.568435 0)
(11.8446 1.14781 1.04866e-20)
(7.73433 -3.66886 1.52097e-20)
(9.88421 -2.40024 -2.51163e-21)
(6.67812 13.6634 0)
(7.18288 -14.0818 0)
(16.382 -9.62139 -8.73557e-20)
(9.23737 1.9695 1.30904e-20)
(8.93969 -14.1571 8.95967e-20)
(11.0189 -1.14832 -1.34807e-20)
(9.73439 0.138292 1.7696e-20)
(14.5862 -4.94945 -1.77751e-20)
(-3.85292 4.24416 1.18201e-19)
(-1.73639 5.18754 7.46746e-20)
(12.5578 -0.715851 1.22869e-20)
(12.5905 1.38087 -4.57167e-21)
(12.8432 2.48383 5.85912e-21)
(10.1883 -0.121674 0)
(1.68574 -7.01054 0)
(7.36982 -3.75418 2.38878e-21)
(8.50688 -3.98905 1.54058e-20)
(9.99099 0.084543 -2.90586e-21)
(10.3318 1.23011 -8.63047e-21)
(10.2694 0.898911 0)
(11.3862 -0.115142 -1.62885e-21)
(11.6815 1.05671 -9.43208e-21)
(9.75917 0.0558151 -1.62576e-20)
(13.0944 -3.06762 8.19651e-21)
(15.6717 1.12417 -3.83344e-22)
(15.0259 -7.05772 1.62832e-21)
(9.00569 1.91994 -1.11556e-20)
(13.6682 -0.65956 1.08891e-20)
(10.1196 -1.42644 1.61074e-22)
(10.0043 -4.92641 0)
(1.63107 -2.48153 0)
(11.2278 0.00659814 6.66383e-21)
(-1.7558 3.59676 1.44362e-21)
(9.67702 -1.73552 0)
(11.2202 6.83051 -6.44712e-20)
(1.65211 -2.10519 0)
(11.2292 3.81805 1.48119e-21)
(14.1286 -1.6504 -1.01666e-20)
(15.1132 -3.81263 0)
(9.5411 1.24308 -8.25831e-21)
(8.04973 -3.56243 -3.19569e-21)
(9.39605 0.555714 -1.01608e-21)
(9.64615 -0.525958 -2.72812e-20)
(6.44892 7.80195 0)
(9.48308 -1.87123 8.37268e-23)
(7.39609 -5.08228 1.70364e-22)
(9.8952 0.121671 3.78015e-21)
(8.59409 0.0439185 -1.48888e-20)
(4.7335 1.90479 1.56616e-20)
(14.154 0.341348 1.17097e-20)
(11.7747 -2.02867 -4.2127e-20)
(11.0896 -1.13224 0)
(10.8845 0.902313 -1.46013e-22)
(11.9399 -2.05318 -8.21007e-21)
(9.97495 0.099953 3.99357e-20)
(11.1303 -3.32119 0)
(14.4117 1.03744 -2.17531e-21)
(7.72532 1.04412 0)
(13.5956 -2.65549 -1.97804e-20)
(10.0123 -2.95374 -1.1277e-20)
(4.93841 -2.24342 1.44084e-20)
(12.7633 -2.46032 -1.35728e-20)
(10.042 0.682113 0)
(6.41271 -12.275 -4.71309e-20)
(7.70242 7.82437 -5.17634e-21)
(8.65198 0.0498767 1.40794e-20)
(12.0836 -2.09171 3.11813e-20)
(12.6113 -0.585504 1.62482e-20)
(-11.0645 3.95788 -7.05801e-20)
(8.06472 -0.943154 1.5816e-22)
(11.7254 -1.02812 0)
(6.11949 -2.18888 3.42196e-20)
(14.6116 1.46172 0)
(7.70124 -4.26016 -5.18879e-23)
(11.528 -0.512812 2.46003e-20)
(11.2908 1.14836 -1.13981e-20)
(11.9574 1.17851 8.97619e-21)
(-8.67099 6.84998 -6.35354e-20)
(9.75051 0.0651863 2.03296e-20)
(9.01529 0.0654448 0)
(-3.0096 0.0452272 -3.43441e-20)
(11.523 -1.44453 -8.52369e-21)
(-3.36486 8.87593 -5.77452e-21)
(6.91334 -4.14758 6.00749e-21)
(12.5752 0.171567 0)
(13.95 1.14331 8.11907e-21)
(9.20143 0.269818 3.05883e-20)
(9.82313 0.187376 2.44935e-20)
(9.20091 -0.499301 0)
(8.47033 0.0405049 -1.93615e-23)
(10.021 0.796485 7.48852e-21)
(-0.792266 0.0889405 8.16319e-21)
(8.49265 -0.784788 3.9432e-21)
(11.4881 -1.26805 8.12992e-21)
(13.5718 0.0580022 -3.58193e-22)
(11.6531 -0.980283 0)
(11.657 2.48948 -1.39536e-20)
(-7.424 -1.95026 1.43381e-20)
(11.4056 1.19826 -1.32845e-21)
(9.96015 0.129332 1.52367e-20)
(8.30877 0.0155825 0)
(6.90291 -7.06513 -1.70932e-20)
(17.3069 -5.42042 0)
(15.9697 3.32944 -1.38602e-20)
(10.4377 -0.165674 0)
(11.0898 -3.7157 -2.53464e-22)
(7.29445 -1.13134 -8.25974e-21)
(8.39199 2.86765 2.89139e-20)
(-0.587578 -0.0714916 -3.25197e-20)
(9.2569 12.2269 0)
(11.1352 0.224654 -5.35096e-21)
(10.0664 0.738175 -9.09447e-21)
(4.49955 -1.75793 -2.47328e-20)
(6.25935 -7.28699 2.31194e-22)
(8.69982 -0.801011 -4.30556e-20)
(10.0996 -0.706764 -1.17881e-21)
(10.2476 0.652726 6.46377e-21)
(7.87119 -2.64445 0)
(7.39987 0.616449 1.5775e-20)
(9.57958 -1.06418 1.72143e-22)
(0.851664 -2.30633 3.23685e-22)
(-7.8153 -0.745876 -4.67439e-20)
(4.8802 -1.84707 -4.74632e-20)
(12.6348 -0.824981 0)
(4.72181 -1.94781 0)
(10.3808 4.39875 0)
(10.8557 -0.534742 0)
(3.38974 -3.43254 6.98258e-22)
(13.4247 -2.47508 0)
(7.70101 5.21872 0)
(8.7509 -0.0553562 5.87131e-21)
(12.8644 -0.950077 -1.64492e-20)
(11.5126 -0.944804 -1.92912e-20)
(8.73596 0.887692 4.89608e-20)
(10.0444 0.163423 -4.58905e-21)
(11.2807 6.47023 0)
(10.5555 -0.924965 0)
(9.66858 0.0598691 1.73073e-20)
(9.91128 0.0681221 3.00372e-21)
(5.92815 2.89995 0)
(-12.6253 5.64858 6.5445e-20)
(11.4604 -3.87501 1.66675e-20)
(-4.28938 1.83328 0)
(12.3826 -0.210856 1.573e-20)
(9.91581 0.112575 -1.99974e-20)
(10.5941 -4.16881 1.7866e-21)
(6.12081 -2.12932 0)
(9.96185 0.749851 1.68905e-20)
(11.8702 0.350476 0)
(9.87183 0.402829 0)
(10.7428 0.63944 -9.54724e-22)
(9.68261 0.155935 9.23015e-21)
(-5.38289 5.66811 -6.41018e-20)
(11.2241 2.24937 1.84516e-21)
(7.31494 -2.11644 -1.4909e-20)
(10.6853 -0.477812 2.27304e-21)
(10.326 0.733414 5.06921e-21)
(12.3602 2.64339 3.78991e-20)
(11.8783 -3.8313 0)
(10.6704 -2.91725 2.71133e-21)
(7.35509 -0.873652 0)
(6.8468 -4.55865 3.66717e-21)
(12.196 -0.953021 0)
(7.78777 -0.374251 2.14376e-20)
(-3.59493 1.38182 -5.88771e-20)
(10.2124 -0.684747 0)
(-0.392225 2.32482 1.97347e-21)
(10.7331 -0.932969 -2.39819e-22)
(3.41052 -0.959286 7.23777e-21)
(9.40156 -1.73662 4.31441e-20)
(7.37527 2.48288 -1.79698e-20)
(7.3039 -2.09194 -4.21918e-20)
(16.7258 3.07473 0)
(9.83237 -1.42799 1.62952e-22)
(-9.83729 4.17655 -1.73554e-19)
(9.96349 0.768904 0)
(9.32553 0.630416 1.11319e-21)
(11.7367 -0.2048 -6.13038e-22)
(12.9178 3.77338 0)
(10.004 0.0280504 0)
(-7.68544 2.49369 0)
(3.52385 -12.728 4.07008e-20)
(13.4378 -5.85123 2.1054e-20)
(15.6969 -2.72666 1.93451e-21)
(11.2322 3.5949 0)
(9.04941 -1.3173 2.85014e-20)
(8.47906 -0.139085 -1.56198e-22)
(11.1821 2.07708 -3.93649e-21)
(3.53427 -4.89702 6.21062e-22)
(9.597 0.472233 0)
(8.12082 -0.883142 0)
(5.00992 -1.1912 -2.25841e-20)
(7.75816 -2.59983 -1.06825e-20)
(10.1866 -1.18302 0)
(9.66886 -4.49047 -1.62454e-20)
(8.96361 0.0454468 8.91595e-23)
(8.03461 -0.551641 -1.51109e-22)
(5.35588 -2.39461 0)
(17.4416 1.17685 -1.52701e-22)
(9.76553 -1.13804 -1.88843e-24)
(11.8109 0.328492 1.8206e-21)
(9.90919 -3.06065 0)
(-2.65215 5.86133 -1.13116e-19)
(11.5695 1.15953 1.03008e-20)
(9.97967 0.441911 3.53567e-21)
(9.03651 0.120744 7.34514e-23)
(12.2965 2.2297 0)
(8.685 0.877003 -1.30449e-20)
(13.8842 0.531197 -8.46142e-21)
(4.73793 -1.91187 1.02371e-20)
(9.93981 0.222674 0)
(6.05331 -7.24033 -2.37204e-22)
(3.65434 -0.890932 0)
(10.0406 0.231448 -1.38276e-20)
(9.95917 0.272479 6.02174e-21)
(9.58781 -0.111358 -3.39063e-21)
(0.993304 -9.37792 0)
(11.4392 -0.156552 -4.95845e-21)
(6.49533 1.2453 4.24854e-20)
(11.6834 -3.78458 0)
(8.63643 -0.148828 1.80252e-20)
(13.1947 -3.07574 -9.42987e-21)
(10.6459 0.0449554 0)
(5.05356 -9.29328 3.2074e-21)
(1.77179 17.0233 -4.83185e-20)
(13.5634 0.0471137 0)
(-0.0556497 4.05921 7.29828e-20)
(9.29464 0.550137 0)
(9.16366 -4.18678 1.53659e-20)
(-5.7143 -2.76296 2.63234e-20)
(9.63973 -1.64298 1.5149e-22)
(11.456 0.412549 4.83677e-22)
(7.36145 0.56421 8.35099e-21)
(9.43047 -1.8736 -1.58676e-20)
(8.6907 13.1841 -5.82431e-21)
(9.35644 -4.16631 1.09996e-22)
(11.4441 -1.27684 7.71483e-21)
(12.3465 2.18469 3.9036e-21)
(11.1654 -4.98983 0)
(10.0024 0.112641 -1.35086e-20)
(3.056 0.248419 -2.14134e-20)
(7.4489 -0.895451 0)
(9.38666 -1.21821 1.73216e-22)
(7.81876 0.320063 0)
(6.86496 -2.18293 3.6678e-20)
(10.8553 -4.01167 0)
(8.4202 0.0484158 9.11259e-23)
(11.7189 -0.465474 -1.40995e-20)
(5.37185 -10.5005 7.46344e-21)
(-6.60791 1.43744 2.9328e-20)
(12.464 0.137038 -1.53825e-22)
(9.99741 -4.74358 1.66999e-20)
(9.43878 -2.88919 1.60738e-20)
(8.01871 -2.07525 0)
(-11.7488 6.28176 -4.47984e-20)
(12.0402 -3.64534 -3.32349e-21)
(-12.3284 7.69258 -5.33667e-20)
(8.1238 -0.707013 1.66353e-23)
(7.83709 -3.15307 0)
(11.007 0.0487995 -7.93096e-23)
(-12.2557 5.91956 0)
(-1.69709 -5.25003 2.25646e-21)
(11.1145 -4.09716 -1.70821e-21)
(4.10422 0.15546 0)
(10.8629 -2.91919 5.18081e-21)
(7.30429 -10.3786 0)
(12.9046 3.54437 0)
(8.86311 -4.21459 -2.01626e-20)
(7.80451 0.804559 1.29328e-20)
(1.87816 15.6215 0)
(9.18669 0.369489 -8.34872e-21)
(16.2383 -2.34582 4.29713e-20)
(-8.2231 -1.34851 7.95506e-20)
(13.3065 5.26637 0)
(10.5858 -0.00399976 0)
(-9.72366 5.08278 -7.87602e-20)
(9.76217 -0.893691 0)
(11.247 -0.134792 0)
(3.46289 0.0412434 1.09614e-21)
(10.8416 -2.19449 -2.42196e-20)
(9.28073 -2.46545 1.34964e-20)
(12.0856 -2.47156 1.104e-21)
(-12.2581 7.19275 9.55869e-20)
(9.90444 0.217059 6.92325e-21)
(8.20926 -2.20362 0)
(10.6174 1.62104 -2.61068e-21)
(7.731 -1.464 0)
(10.4644 -0.160274 0)
(10.0213 0.482164 0)
(10.6552 0.618973 -7.83241e-22)
(9.6385 -0.523584 1.2533e-20)
(13.6168 -0.1923 -1.02942e-21)
(8.37204 -2.25861 0)
(-7.11127 5.91644 -4.81748e-20)
(10.0163 4.0753 4.9358e-21)
(9.83501 -3.61599 1.6202e-21)
(12.8995 2.10621 7.57639e-21)
(9.05952 -2.66041 2.84921e-22)
(9.97137 0.0676595 -1.1655e-20)
(-3.94393 0.769785 0)
(11.8316 1.071 0)
(7.11094 2.99682 0)
(7.09432 -3.20083 -2.71334e-20)
(7.64792 -13.3914 -2.70355e-20)
(3.48078 1.33828 0)
(10.7041 1.61416 0)
(12.9143 2.23765 1.13292e-20)
(9.88543 -0.119261 -3.5874e-21)
(9.64764 2.18391 1.41117e-20)
(11.9993 -4.87835 0)
(-8.38857 8.185 -2.43318e-20)
(11.2529 0.235066 2.47528e-21)
(7.60083 -2.44592 -2.52607e-20)
(10.6706 0.256376 -4.76354e-21)
(11.1387 2.0467 6.11427e-21)
(11.626 -8.95238 1.39977e-20)
(6.99111 -3.14034 4.67573e-20)
(0.387062 -4.74337 1.85508e-20)
(11.6212 -1.01981 2.7432e-22)
(9.9616 0.0300232 -3.40809e-21)
(8.73983 -4.26496 -4.9838e-21)
(3.63484 16.5402 2.31891e-20)
(8.70398 8.41614 -5.35125e-21)
(9.40533 -4.41206 8.38254e-21)
(11.34 0.693844 0)
(4.54947 4.96524 -2.36361e-21)
(10.7013 0.00551008 -1.25594e-20)
(13.4707 2.05727 4.43452e-21)
(7.45347 -2.27559 -2.29011e-20)
(9.77303 -3.5103 -1.70672e-20)
(10.8992 -0.0797437 3.7778e-20)
(13.6531 -0.269689 -2.171e-20)
(11.4689 5.9447 -5.5842e-21)
(12.7308 -0.676378 -6.21147e-21)
(6.52262 -1.3669 -4.85843e-20)
(10.6888 0.00970328 -1.04885e-20)
(6.48984 -1.62783 0)
(5.54676 -12.0805 -2.29244e-20)
(11.0144 0.000867365 3.06192e-20)
(7.49008 0.0562131 -4.23884e-23)
(-4.99879 -1.44165 0)
(10.0548 -4.57448 0)
(10.0727 1.5041 1.24927e-20)
(6.11672 -1.32639 2.99579e-20)
(9.04375 -11.1305 -2.72255e-20)
(11.0993 -3.704 -9.73538e-21)
(11.882 -2.06832 2.31301e-20)
(14.6419 1.24853 0)
(10.0915 1.62916 6.88299e-21)
(15.5221 -5.59002 -3.64356e-21)
(11.9992 3.58198 1.49198e-21)
(10.4434 -1.60879 -2.00257e-20)
(-11.9426 6.57711 -1.53975e-19)
(9.3295 -2.09101 5.41524e-22)
(9.90553 -2.83897 2.26538e-21)
(10.9491 4.49118 0)
(7.69483 4.1075 5.49838e-21)
(9.63493 -0.113566 3.11178e-21)
(8.46663 -0.0243664 6.65053e-23)
(5.82217 -2.87878 4.30031e-20)
(10.2793 -1.62501 3.01335e-20)
(7.8712 -1.9905 -1.47822e-21)
(-9.2425 -0.867051 -4.50692e-20)
(10.2412 -0.00905055 3.13284e-21)
(10.7882 0.0918519 9.38812e-21)
(-2.47226 4.56021 -1.48814e-20)
(11.6154 3.55859 1.96496e-21)
(0.673125 2.70265 -7.92989e-20)
(7.36516 -3.56241 -1.47597e-20)
(8.37964 -0.00692512 0)
(8.36395 -1.60229 -1.60086e-21)
(-1.08326 -4.96185 -4.24963e-20)
(7.27574 -1.25369 4.42906e-20)
(12.4636 -0.0416179 0)
(15.2379 1.17486 -4.85233e-22)
(6.78252 -2.79487 1.05084e-20)
(9.97483 0.168125 -2.95244e-20)
(-11.3509 4.35794 -5.81054e-20)
(1.32774 15.9223 -1.53377e-20)
(11.593 -0.99496 1.32568e-20)
(10.8191 0.197981 7.94496e-21)
(9.24405 -4.21888 -2.15803e-20)
(13.5369 -0.374227 1.27134e-21)
(6.84682 -12.8666 -4.99925e-20)
(10.5255 0.00266953 1.1784e-20)
(10.608 -0.409389 -9.78838e-21)
(10.435 0.385567 -2.33071e-22)
(12.4017 -0.0931703 -2.20251e-20)
(6.64266 -2.86901 -2.02901e-20)
(11.6062 -0.806271 0)
(2.36625 -11.8782 2.29222e-20)
(10.6098 0.0747515 2.24235e-21)
(9.71431 -4.38543 -8.3123e-22)
(12.0849 0.0346247 1.04709e-21)
(11.5638 -2.20176 -1.37565e-20)
(9.98415 0.118778 -2.30775e-20)
(10.356 1.13326 3.83644e-21)
(-11.9026 5.49735 -6.72706e-20)
(11.226 -0.22846 0)
(5.84599 -7.45984 8.82563e-21)
(10.973 1.18841 1.16824e-20)
(7.85963 -3.08149 0)
(10.4475 0.320725 7.47512e-21)
(10.9373 0.895028 1.53504e-20)
(11.2311 -0.26781 1.41173e-24)
(13.054 -4.98416 -4.18224e-21)
(22.108 0.271231 0)
(8.99417 1.22722 2.40172e-20)
(8.24802 -1.74983 2.39713e-21)
(9.16889 -4.27423 1.75908e-20)
(10.5059 -1.13467 0)
(7.7147 0.748812 -3.74254e-20)
(18.2281 -2.2045 2.27535e-20)
(12.0558 5.72881 -7.72983e-21)
(6.54581 -1.41279 4.75303e-20)
(13.8139 0.0750305 1.54556e-21)
(-7.52468 2.17342 2.73573e-20)
(9.98126 -0.774496 -2.01272e-20)
(10.8383 -2.52889 -4.53927e-21)
(9.17775 0.27622 -1.75406e-20)
(12.4823 0.0125391 0)
(9.93976 0.0853055 -1.29199e-20)
(-2.44699 -0.696522 -3.03478e-21)
(-2.32313 1.86068 0)
(9.93261 -5.44916 0)
(8.44715 -0.0257317 0)
(4.60005 -2.18047 0)
(10.1762 1.09171 0)
(6.34429 -1.31921 0)
(1.88981 3.49588 1.39596e-21)
(15.3247 -3.32093 -1.96987e-20)
(12.0314 0.927696 0)
(9.32472 1.02776 3.56059e-20)
(14.1321 9.93677 -6.87278e-20)
(10.3193 0.768254 2.95459e-22)
(0.740839 -3.21837 -2.36147e-20)
(6.38169 -0.341634 -1.0371e-22)
(-11.8905 5.3521 5.22583e-20)
(10.5014 0.0666784 -1.03127e-20)
(11.5296 -0.276078 3.99049e-22)
(10.0609 1.06746 -8.64744e-21)
(9.43889 0.492952 -2.38498e-20)
(9.80094 3.67478 -1.09841e-20)
(16.2971 3.4429 0)
(5.55604 -6.80934 6.42258e-23)
(6.92664 -2.25126 -4.01675e-20)
(10.0396 0.0502862 -3.91112e-20)
(12.0307 -3.57238 -2.15772e-20)
(11.8605 -0.113756 3.39591e-21)
(14.0515 -3.70909 5.08774e-21)
(11.2274 -1.76701 -2.84932e-21)
(10.9468 -2.87422 -1.81087e-20)
(10.0828 0.663721 9.42654e-21)
(14.6419 8.53521 0)
(10.5301 13.7874 -8.95612e-21)
(8.79511 -0.165284 -5.40481e-21)
(13.708 -2.38228 0)
(17.8419 -8.74286 0)
(9.64984 -4.33795 -5.9988e-23)
(-6.26501 1.3606 2.60517e-20)
(1.12548 2.7221 2.34417e-21)
(14.0622 -4.27998 0)
(9.78069 -0.583879 -2.59396e-20)
(9.17904 0.567466 -4.58235e-21)
(2.53186 -11.0545 1.17577e-20)
(10.5889 0.276494 8.0471e-21)
(-11.2639 4.98719 0)
(4.75287 -6.94892 3.97092e-22)
(10.914 0.647061 0)
(7.18808 4.82706 -4.30192e-21)
(13.9802 1.12262 -6.7679e-21)
(10.0648 0.111758 -3.26823e-23)
(11.3689 2.32577 -7.55907e-21)
(13.0736 4.4701 -1.60662e-21)
(9.19289 -2.81105 3.29821e-20)
(8.61458 -7.41639 0)
(5.9678 -12.959 -4.30855e-20)
(10.7442 6.88537 0)
(12.2012 0.83921 -1.27329e-21)
(1.87712 -10.4264 1.84313e-20)
(12.0797 -6.36986 9.11787e-21)
(6.0851 -9.37039 -1.40174e-20)
(3.24308 -11.3843 -7.83226e-20)
(8.26458 -3.85396 -2.03169e-20)
(7.08164 -2.26899 -2.35196e-20)
(9.61182 -1.15154 -5.73709e-23)
(5.9862 -9.36477 3.49028e-20)
(6.68078 -2.92083 1.66245e-20)
(7.36551 -2.41982 2.56898e-20)
(7.69499 -11.9663 2.71902e-20)
(3.9406 -9.12165 -1.13521e-20)
(9.70362 -3.15015 1.69141e-20)
(-3.20258 0.328652 3.79153e-20)
(13.2452 -0.0500948 1.09434e-21)
(16.175 10.5354 6.50746e-20)
(11.1793 1.40592 -2.64668e-21)
(11.9113 -2.99899 0)
(4.36174 -1.89145 -9.41404e-20)
(10.4225 0.00233446 -1.42495e-20)
(9.97842 0.467452 0)
(12.1431 0.778864 0)
(8.18686 -14.2523 -6.87504e-20)
(12.3343 -3.38063 -1.22565e-20)
(11.3918 0.607996 -2.91185e-21)
(10.8215 -2.14918 3.18257e-20)
(9.84501 3.67192 9.87605e-21)
(9.82083 -0.0517443 2.53904e-20)
(1.43774 -10.7848 -2.9389e-21)
(9.07516 2.20369 0)
(7.52711 -2.5601 2.4633e-20)
(4.13895 5.36349 1.22343e-20)
(2.43808 -10.4311 5.84477e-20)
(9.10084 -3.56942 5.58871e-21)
(10.3748 -4.82859 -6.35967e-21)
(10.6394 -0.0597668 1.31265e-20)
(13.4157 -12.8645 1.6777e-20)
(8.9119 0.00175104 -9.12404e-21)
(0.468382 -9.52434 -1.62699e-20)
(11.3633 0.593966 2.27031e-21)
(9.74424 0.0446766 1.01808e-20)
(6.4715 -1.61011 -1.95501e-20)
(9.71624 -0.767025 1.61976e-20)
(11.0067 6.51883 0)
(11.518 1.18013 2.69769e-21)
(9.86906 0.058716 2.26572e-21)
(7.98601 -1.91933 -7.90871e-21)
(9.55173 6.71224 -2.27219e-21)
(9.56758 -3.10167 1.23681e-20)
(9.76559 -0.00906146 4.5245e-21)
(7.34391 -0.0492667 -2.86562e-20)
(13.2459 -2.18849 0)
(7.26179 -7.89836 -1.70753e-20)
(10.7261 0.274219 6.45324e-21)
(15.0576 3.16859 0)
(7.62995 -0.465137 1.64851e-20)
(10.7396 0.215108 0)
(8.39757 6.89057 1.96582e-20)
(13.1149 -0.19686 0)
(11.2063 13.1664 0)
(11.9979 0.480319 5.76402e-21)
(11.2593 0.478639 2.44759e-21)
(13.1931 -0.0720186 -1.17575e-20)
(9.6532 0.436719 -1.08957e-20)
(7.92061 3.84425 -8.3039e-21)
(10.0573 0.367737 -4.31421e-21)
(10.3123 1.11833 0)
(11.3559 -0.382249 -6.42293e-21)
(11.5661 0.382496 -1.22184e-22)
(8.25661 6.13691 1.05373e-20)
(11.909 -2.98035 0)
(13.7126 1.9466 6.96682e-21)
(10.4409 6.49155 -4.41384e-23)
(13.3165 -0.0231204 4.11491e-21)
(11.8526 -12.488 0)
(5.62725 -0.595399 7.93804e-20)
(10.239 0.631091 0)
(9.61855 -0.130903 4.55362e-21)
(-1.67841 -0.675665 0)
(15.7497 -0.480366 0)
(1.89077 -9.09865 0)
(10.6375 -3.97834 0)
(-2.38347 7.51679 -1.15926e-20)
(3.90445 -13.1029 -8.51431e-21)
(9.59941 -0.521845 -1.87299e-20)
(5.20024 -10.7697 -8.87522e-21)
(7.06761 -3.04738 0)
(6.37529 -12.979 -1.11927e-20)
(-2.77693 -1.0482 -7.00515e-20)
(8.46337 -4.00091 0)
(7.87102 -2.9025 -2.69297e-20)
(8.73269 -1.84892 1.37147e-22)
(11.1242 1.33016 6.65934e-21)
(12.724 -4.41541 7.22461e-21)
(9.3919 0.424002 0)
(11.5135 -3.70721 0)
(14.668 -0.322246 7.38188e-21)
(4.23248 18.5825 8.52513e-21)
(10.1369 -1.63719 -2.86581e-22)
(5.12686 -14.3624 -1.31554e-20)
(9.98496 0.0520009 9.55877e-22)
(7.80848 -1.53996 -1.14307e-22)
(10.073 0.655658 1.34481e-20)
(7.86902 -5.76181 6.02643e-21)
(9.98066 -2.8928 0)
(-5.95263 7.39669 0)
(13.1453 -0.28309 0)
(8.36858 0.104824 0)
(9.17877 -1.99998 1.16159e-20)
(11.8756 -0.613313 0)
(0.927546 3.74107 1.58139e-19)
(10.492 -9.70487 -4.52077e-22)
(7.22505 -2.47043 -3.86377e-20)
(15.7139 8.26772 2.69407e-20)
(3.6222 -12.4486 -1.29414e-20)
(5.83282 2.82922 -6.78048e-20)
(11.0042 0.0809443 3.58574e-21)
(-0.942373 -9.35442 -2.18789e-20)
(7.99755 -4.62464 5.91552e-21)
(12.1546 0.409016 0)
(12.5917 -1.9252 0)
(7.19995 9.94541 0)
(11.4808 -2.32091 7.33784e-21)
(8.09938 -10.2799 0)
(9.17006 2.14219 0)
(10.0306 0.056121 0)
(9.37328 -2.45549 1.26745e-20)
(10.3536 0.671903 -1.29463e-20)
(8.08596 0.329031 0)
(3.84631 1.56714 8.29431e-21)
(9.86761 0.739556 -1.28936e-20)
(11.9169 3.38128 -3.5225e-21)
(8.57651 -3.98503 1.71025e-20)
(9.49684 2.49016 9.9298e-23)
(2.66159 14.835 -3.07452e-21)
(11.6434 -10.2185 8.58543e-20)
(7.07153 10.8364 -1.02327e-20)
(11.2825 0.513434 -3.19375e-21)
(10.0704 -1.38131 -3.95762e-22)
(9.30365 0.00282161 -1.74036e-20)
(10.4338 0.0109769 0)
(10.8308 -4.38087 7.40117e-22)
(9.80664 0.157503 1.81421e-20)
(17.9359 -5.26953 2.75298e-20)
(11.1787 -1.67143 -8.27998e-21)
(6.21798 -1.43046 -3.2587e-20)
(11.2578 0.41664 5.18604e-22)
(14.0955 0.671415 1.22406e-20)
(10.0578 0.360655 0)
(6.35148 4.56877 -5.96824e-21)
(13.8949 -5.58892 -4.11052e-21)
(6.6802 10.431 7.3303e-21)
(3.16 -5.90423 -7.08635e-22)
(10.0407 -0.0544944 9.82519e-21)
(12.6809 -0.690529 -3.56686e-22)
(13.4589 0.0281019 -1.14899e-21)
(13.3206 -0.214015 0)
(16.0923 1.50131 0)
(8.15988 -3.91055 2.07691e-20)
(-11.4688 4.13081 6.27653e-20)
(8.49364 0.0339447 1.06499e-23)
(9.84541 0.145738 3.62409e-20)
(6.72313 5.01661 1.75272e-20)
(7.59867 0.559035 0)
(9.17813 0.0150635 0)
(8.54479 -2.14093 -7.81459e-23)
(11.7515 0.317652 8.87713e-21)
(9.70158 2.24125 1.92629e-20)
(12.9705 0.227619 0)
(11.3542 -0.276028 0)
(11.053 -3.17224 2.61904e-20)
(10.3522 -1.05373 1.60318e-20)
(5.39409 -5.72825 -1.50578e-21)
(13.1427 0.985493 0)
(17.2058 -0.688911 9.93429e-21)
(6.1623 -2.01776 5.75759e-22)
(-1.71335 -3.08792 -5.66425e-20)
(10.1103 -0.296501 -2.13378e-20)
(14.8384 -2.74145 0)
(12.5476 -3.32604 9.67483e-21)
(14.3475 -13.9197 -4.28245e-20)
(2.91731 -2.8252 0)
(8.90169 0.113607 -3.49631e-22)
(9.60522 0.238257 -1.17514e-20)
(8.87485 0.101465 4.09681e-25)
(14.3407 0.532455 3.11129e-21)
(11.1975 11.4225 1.99224e-20)
(10.7687 0.0633263 0)
(6.19786 -2.27695 -1.78446e-22)
(7.48533 5.0698 -1.59377e-20)
(16.655 -5.49559 -6.74955e-20)
(10.1318 1.05532 1.02401e-20)
(9.53679 -6.94752 1.10915e-20)
(9.73915 -0.00894794 -4.67494e-20)
(7.98546 -2.10359 1.20229e-21)
(6.13196 -13.2721 4.957e-20)
(9.21606 -2.29598 0)
(15.4548 -3.4317 -6.54208e-21)
(6.58144 -3.0075 1.34162e-20)
(11.5573 -0.470537 -2.66848e-20)
(9.88356 0.0865892 -1.64448e-20)
(9.72652 0.388 -4.665e-21)
(8.84657 -1.25623 4.11448e-20)
(13.0215 -0.062171 -1.32716e-21)
(9.18826 0.0789087 9.94934e-21)
(9.21282 -1.26043 5.62168e-22)
(12.2976 -2.42214 -1.26027e-20)
(11.8336 3.83979 -2.47913e-21)
(9.89203 -12.6423 2.1291e-20)
(10.7221 -0.0918338 0)
(3.82465 8.58727 0)
(8.63199 -2.59859 0)
(7.21072 -2.30945 2.96263e-20)
(9.79386 0.066553 -2.62626e-20)
(9.10205 0.584221 0)
(8.15586 -2.01061 -2.36462e-20)
(9.09453 0.485478 0)
(9.23668 -1.81851 -1.92302e-20)
(6.71997 4.91999 1.13157e-20)
(9.88416 -2.72362 -1.84935e-20)
(10.9021 0.0666513 0)
(9.71291 -0.0246137 0)
(14.1903 2.95043 -5.76234e-21)
(11.9735 0.765225 8.00365e-23)
(11.1215 -0.378382 2.12265e-21)
(10.8865 6.76975 -9.70348e-22)
(13.5361 0.247561 0)
(9.16731 -3.46596 -9.31794e-21)
(-3.74828 2.362 0)
(4.50434 2.55832 -1.58887e-20)
(13.1719 4.43971 0)
(12.4882 -0.554296 8.12415e-22)
(6.50795 -1.22613 1.26036e-20)
(8.16734 -1.15423 1.29911e-20)
(14.1895 1.29534 6.79472e-21)
(10.6169 -10.138 -5.3588e-20)
(10.2278 -1.21844 4.03465e-20)
(10.2028 1.0993 -2.99058e-22)
(13.284 -3.47246 -6.15521e-21)
(10.4612 -2.42684 -9.58169e-21)
(-1.46219 2.86049 3.26681e-20)
(12.1706 1.36166 0)
(9.91125 0.138642 5.18069e-23)
(8.26213 -2.27659 0)
(10.8746 -13.4864 -4.82872e-20)
(9.26356 -3.46442 -4.91569e-21)
(8.87664 -1.11358 -1.35401e-20)
(8.46496 0.0413118 2.14966e-23)
(11.6419 -0.0127175 -2.11094e-21)
(8.75577 -0.656818 2.75423e-20)
(12.4176 -0.0101965 -1.1333e-20)
(9.82402 -1.58078 0)
(-8.82946 7.49258 0)
(11.3863 -0.362245 3.93114e-21)
(12.9967 -0.0367353 0)
(9.67468 0.566251 -5.91812e-21)
(7.95293 4.11982 -1.26522e-20)