/*--------------------------------*- C++ -*----------------------------------*\
| =========                 |                                                 |
| \\      /  F ield         | OpenFOAM: The Open Source CFD Toolbox           |
|  \\    /   O peration     | Version:  2306                                  |
|   \\  /    A nd           | Website:  www.openfoam.com                      |
|    \\/     M anipulation  |                                                 |
\*---------------------------------------------------------------------------*/
FoamFile
{
    version     2.0;
    format      ascii;
    arch        "LSB;label=32;scalar=64";
    class       volVectorField;
    location    "5.2";
    object      U;
}
// * * * * * * * * * * * * * * * * * * * * * * * * * * * * * * * * * * * * * //

dimensions      [0 1 -1 0 0 0 0];

internalField   nonuniform List<vector> 
13486
(
(4.76919 -1.04212 1.02937e-20)
(5.24159 0.369099 4.77025e-21)
(6.74583 -0.207222 0)
(-0.182102 -0.41006 -8.22731e-21)
(7.32424 -1.8241 4.80693e-21)
(6.84486 0.220538 -4.14444e-23)
(7.88105 -1.58982 -3.11761e-22)
(6.29202 -2.36324 -6.2785e-21)
(6.16524 -1.45246 0)
(5.90397 1.43888 0)
(-0.95939 1.84614 -1.92669e-20)
(7.56799 0.501587 0)
(4.41937 -1.61015 -1.02085e-20)
(6.96839 1.40936 -8.7812e-24)
(7.88313 -1.36111 2.83189e-21)
(5.82506 1.50734 -3.31731e-21)
(0.142418 0.116508 1.14615e-20)
(10.9178 -2.261 -4.57666e-20)
(6.63405 0.171962 7.89582e-23)
(5.19296 -0.544347 -1.04312e-20)
(1.40119 -2.54705 -3.85709e-21)
(4.45785 -1.63494 1.31515e-20)
(5.30479 0.375328 -3.82133e-21)
(6.65842 -2.35814 0)
(6.11232 1.15395 1.06256e-21)
(6.94744 -2.04818 -1.62384e-21)
(-2.37662 1.81021 1.5229e-20)
(6.84735 -0.137238 8.47436e-22)
(5.13108 -0.519115 0)
(6.15196 -0.122827 1.66342e-21)
(2.95905 -6.10328 -3.65511e-21)
(8.56329 -0.612686 -3.188e-21)
(7.56395 -0.812937 4.11486e-21)
(6.51907 0.144714 0)
(6.33583 -2.2936 0)
(4.73379 0.0762076 -2.36593e-23)
(6.34535 -1.85422 -2.32328e-22)
(5.10945 -2.4097 5.58583e-21)
(13.7048 -2.25365 -9.96487e-21)
(6.21755 -0.950016 5.73564e-21)
(7.54067 -2.62641 0)
(3.71762 -1.81422 -1.19345e-20)
(7.28408 0.0384852 0)
(6.08581 0.982209 -5.15326e-21)
(6.12264 0.978885 2.09288e-21)
(7.44887 0.483764 2.86941e-21)
(0.768399 0.299667 1.92124e-20)
(5.25761 -0.482641 -4.06453e-23)
(6.4003 -1.66137 1.86897e-22)
(7.13498 -0.0928168 1.59554e-21)
(5.98328 0.0850773 6.05363e-21)
(10.9899 -2.25422 0)
(7.89444 1.06277 -2.92856e-21)
(5.32903 -2.05841 -8.08511e-21)
(10.0076 -4.40828 0)
(7.28321 -1.8517 -3.08091e-21)
(5.40427 -1.06352 -6.11393e-22)
(12.3929 -1.77796 -9.13333e-21)
(7.52645 -0.810663 4.4978e-21)
(5.33775 -2.25591 0)
(-1.22463 0.640581 -2.40858e-20)
(5.10109 -2.04872 0)
(9.00242 -0.228807 -6.63852e-21)
(1.68395 -2.79896 -4.02461e-23)
(3.45823 -3.8738 0)
(6.08203 -1.89976 -9.57098e-23)
(-0.578199 -0.08472 -8.80966e-21)
(4.70001 -0.332553 3.39759e-21)
(6.17444 -1.51847 -3.29089e-21)
(3.97055 0.37577 1.35817e-21)
(-0.652558 -0.0188232 1.01723e-20)
(11.2053 -3.22007 -3.79842e-21)
(6.11455 -0.540935 4.21028e-21)
(-2.08764 0.203976 -1.05862e-20)
(5.65368 -1.74265 -4.09316e-23)
(4.69598 -0.889452 1.32856e-22)
(5.74641 -1.6704 -1.15439e-22)
(7.87603 -1.42336 -1.15681e-21)
(0.901868 0.821192 -1.01741e-20)
(1.19583 6.75871 0)
(5.27851 0.0175744 3.73438e-23)
(5.10182 0.571744 -3.07706e-22)
(9.65037 -0.214289 -1.45008e-22)
(6.73756 -0.170065 -7.81166e-22)
(4.75945 -1.07649 -2.00605e-20)
(4.62182 3.62689 0)
(2.38708 5.93154 -4.24352e-21)
(5.98981 0.124263 -9.19054e-21)
(5.67364 0.330148 -4.00878e-21)
(5.4394 2.05022 -4.0208e-21)
(8.98844 0.220546 -8.55168e-22)
(6.66564 -2.07926 -3.42781e-21)
(4.94768 -1.3254 2.67316e-21)
(5.25089 -0.139347 2.68228e-22)
(5.90999 -1.96995 1.33153e-21)
(5.21603 -0.38708 2.36386e-23)
(-2.91793 2.12787 0)
(-0.311869 -0.734891 5.47987e-21)
(6.23733 -0.928186 -1.09596e-20)
(-0.725334 0.820209 -7.59352e-23)
(5.16652 0.0294652 0)
(6.89065 1.4233 -5.33179e-23)
(-0.0430641 -0.931646 1.83343e-22)
(12.1256 -2.42517 1.09698e-20)
(4.19329 3.42566 0)
(-0.976734 1.1572 -8.83004e-23)
(5.90493 0.0611584 2.2888e-23)
(13.2592 0.687812 -3.0744e-20)
(1.04159 0.606433 1.30173e-20)
(6.24645 -2.86345 0)
(5.01003 -2.36197 0)
(8.76058 -1.45606 -3.54995e-21)
(5.3537 -2.01038 5.21198e-23)
(5.64202 -0.765791 4.43004e-23)
(3.83989 -0.687074 0)
(4.90311 -2.33562 -5.07292e-21)
(6.04392 1.23434 0)
(6.82858 0.374455 0)
(6.09864 -0.531517 0)
(6.46738 -1.1876 2.56106e-23)
(11.5762 -2.20818 2.4619e-20)
(-1.49866 1.2164 0)
(5.81926 -1.82468 0)
(12.9537 -1.5986 2.87119e-20)
(6.01995 -2.22715 0)
(11.4203 -2.0296 0)
(7.01166 -0.97283 1.38359e-22)
(6.36642 0.167993 2.08564e-21)
(7.04593 0.216358 1.05381e-21)
(2.00212 -5.26847 -3.0861e-21)
(10.5867 -2.43903 -7.79439e-22)
(0.588682 0.0231031 -4.87672e-21)
(5.71009 0.0351923 1.70658e-20)
(-0.96288 0.445926 1.4973e-20)
(5.99361 0.043695 -9.92705e-22)
(5.72968 0.821789 -4.50718e-21)
(2.72863 1.03914 -2.93556e-21)
(6.17687 -2.81249 0)
(6.48998 -1.00493 -5.9803e-24)
(6.38781 -1.99196 -2.21776e-21)
(7.44953 -0.376288 -4.02889e-21)
(8.17415 1.16058 2.46494e-21)
(8.26413 0.122304 0)
(2.07594 7.12418 0)
(7.82686 0.0325563 2.87863e-22)
(9.8435 -1.02994 -1.25944e-20)
(5.38542 1.78311 -1.28571e-21)
(0.132214 2.36367 0)
(7.26838 -0.115896 0)
(5.13656 -0.597738 0)
(6.00713 0.0567236 9.31436e-23)
(7.7559 -1.61148 0)
(5.22711 0.0272058 -3.90829e-23)
(5.04873 0.550775 -2.59105e-21)
(6.38223 0.624702 0)
(6.93545 -0.241734 0)
(5.95404 -2.68253 0)
(2.69402 -2.31447 -2.74294e-21)
(5.60978 -2.29371 1.18907e-20)
(3.82746 -1.27982 9.03674e-22)
(6.85464 0.0370208 8.75535e-22)
(5.63349 -2.2468 -1.78975e-20)
(10.0788 -0.562732 -1.09948e-21)
(3.3537 -1.68685 5.25615e-21)
(11.8039 -1.75188 0)
(7.2197 1.37495 -7.48292e-22)
(6.75718 1.30623 1.18108e-21)
(2.20541 -0.814493 -1.2568e-20)
(5.14 1.62696 3.37703e-21)
(-0.885577 0.261428 4.05693e-21)
(3.14498 0.622581 -6.42916e-22)
(6.37772 0.565838 1.69651e-21)
(6.00109 0.206741 -7.42781e-21)
(7.52718 -0.670603 2.32683e-22)
(5.31105 -0.106543 2.8686e-23)
(1.2439 -4.81687 0)
(6.97716 2.19955 4.10552e-22)
(7.80303 -0.4367 6.1345e-21)
(5.92475 0.0370183 -1.00606e-20)
(8.13819 0.190726 0)
(6.37561 -1.10581 1.18873e-20)
(5.69731 -0.702507 8.36148e-23)
(7.83881 -0.445965 -1.01236e-22)
(-4.19291 2.02834 0)
(6.30916 0.248907 2.05917e-21)
(6.3953 -0.106801 -3.76353e-22)
(5.7333 -0.971319 -4.56944e-23)
(6.44388 -0.0911099 5.48573e-22)
(7.48105 -2.63715 0)
(4.50894 -2.16816 -6.74234e-21)
(6.36936 -1.42264 0)
(7.16569 -0.190184 0)
(12.9434 0.980599 0)
(4.91508 1.70328 -5.61232e-21)
(11.1737 2.73514 0)
(-1.39183 2.5941 -5.39365e-21)
(2.76631 -5.93951 6.3373e-21)
(6.68268 -0.00632146 4.37046e-22)
(4.36949 -2.16393 -2.47314e-21)
(7.13028 1.25333 -1.31146e-22)
(3.07458 -6.43764 4.83943e-21)
(6.37923 0.195966 -6.38177e-23)
(4.99938 -2.41063 -6.47278e-21)
(6.46815 -2.72581 1.51531e-21)
(3.83578 -1.32595 -1.04077e-21)
(11.0029 1.97599 -2.76811e-21)
(9.28362 -7.33342 -1.66809e-20)
(5.85067 -0.341085 8.31086e-21)
(12.7663 0.198529 0)
(6.38918 0.113469 0)
(6.63265 -0.057137 -9.18646e-22)
(6.36374 -2.34552 3.3701e-21)
(5.22329 -0.465286 9.58146e-21)
(5.89813 0.0719008 3.44313e-23)
(6.84477 0.287911 4.77947e-23)
(0.456124 -1.20306 -4.23285e-22)
(6.30691 -0.28296 0)
(5.54406 1.97514 9.96501e-21)
(5.17579 -1.38249 0)
(8.52967 0.92822 0)
(-0.325489 0.466363 -2.18514e-20)
(7.10286 -0.0937799 0)
(6.34744 -1.97401 5.21395e-21)
(7.63562 0.0463527 0)
(7.76602 1.73727 -5.79729e-22)
(4.48093 -2.12106 3.80458e-21)
(7.13812 0.5314 -4.66558e-23)
(4.09813 -4.66522 2.57044e-21)
(1.92313 2.20028 -1.0221e-21)
(1.38413 5.32062 -1.02218e-21)
(6.39914 -1.07985 -3.81082e-21)
(6.49123 -1.26569 3.12143e-21)
(7.46245 -0.499821 5.06751e-21)
(3.71807 -1.81246 4.07529e-21)
(1.38688 -2.14757 0)
(4.07892 -1.99977 4.56355e-22)
(6.51467 0.197522 -1.89266e-21)
(7.07576 -0.18603 -5.50924e-22)
(4.01249 -1.9369 1.24905e-20)
(7.59878 -0.166571 0)
(7.47271 -1.02316 0)
(5.99595 0.174947 1.14391e-20)
(7.45014 -0.308259 0)
(3.81502 -1.89849 4.20023e-21)
(7.90658 -2.58801 -3.62899e-20)
(5.58293 -0.0760872 0)
(7.42703 0.082928 -1.02764e-21)
(6.7087 -1.36844 3.27162e-21)
(-0.495083 -0.032028 2.41343e-20)
(6.01241 0.92901 0)
(-1.22515 -0.876157 -3.00497e-21)
(3.76214 -0.614588 1.46322e-21)
(4.47848 -2.19183 6.51708e-21)
(12.3511 1.89729 0)
(3.44828 4.53757 -4.35552e-22)
(0.628952 -4.58338 2.09099e-21)
(8.61119 -0.530218 2.40197e-21)
(0.878024 -1.68273 5.34877e-22)
(3.13098 -2.07715 2.87242e-21)
(7.43065 -0.921109 3.08084e-21)
(5.48542 0.301829 0)
(3.91239 -3.52684 1.3426e-21)
(7.90814 -1.33707 -6.54317e-21)
(0.594157 -4.50994 -2.61089e-21)
(6.96771 -2.39303 -4.5807e-21)
(-3.9686 1.9826 0)
(3.78272 1.53813 3.601e-21)
(2.73258 -4.9035 -5.02695e-21)
(6.34523 -0.0606491 -4.95649e-21)
(9.94827 5.07896 0)
(4.85736 1.78623 4.19952e-21)
(5.91486 0.10014 -2.7109e-21)
(6.26631 -0.451561 0)
(7.45629 0.880195 2.30505e-21)
(4.54709 -2.17157 5.09382e-21)
(6.56023 -1.1676 -1.82247e-21)
(3.23768 4.44696 0)
(-0.650214 -9.44965 0)
(10.9741 5.24202 -2.59068e-20)
(5.76731 1.92212 2.38024e-21)
(1.04678 -10.2839 3.7998e-20)
(6.71217 -0.752841 -4.42772e-21)
(5.85239 0.0838913 5.92864e-21)
(8.65294 -2.70145 -5.57652e-21)
(-2.52544 1.44985 2.66637e-20)
(-1.78702 1.88723 2.3273e-20)
(7.58389 -0.30608 4.95963e-21)
(6.76995 0.40325 -1.38572e-21)
(8.01295 1.77923 7.35821e-22)
(6.16524 -0.0633064 0)
(1.36907 -2.19055 0)
(3.40099 -4.5075 3.3574e-21)
(4.88711 -2.3317 5.03351e-21)
(5.99634 0.0563185 -9.7327e-22)
(6.32993 0.301841 -2.19897e-21)
(6.49404 0.243324 0)
(6.92855 -0.100658 -9.95088e-22)
(7.30691 0.809645 -2.09846e-21)
(5.83568 0.0283878 -5.4467e-21)
(7.84998 -1.92185 2.66022e-21)
(9.66303 -0.0791728 1.29962e-21)
(9.44672 -6.67387 6.15608e-22)
(5.50773 1.83184 -2.02839e-21)
(8.48972 -0.651692 3.00663e-21)
(6.86004 -1.27921 9.41059e-23)
(5.57411 -2.67194 0)
(1.91518 -0.702202 0)
(6.96006 0.0161771 2.01139e-21)
(2.76458 6.71161 4.53223e-21)
(6.32557 -1.5978 0)
(6.58641 4.17166 -2.27903e-20)
(-0.303055 -0.0994877 0)
(6.69679 2.17619 4.37611e-22)
(8.70763 -1.33412 -3.2494e-21)
(8.30333 -1.88016 0)
(5.72262 0.725035 -2.74783e-21)
(3.6432 -4.29434 -4.56804e-21)
(5.67262 0.313152 -3.40856e-22)
(5.84375 -0.324067 -9.13018e-21)
(3.79266 1.71872 0)
(6.07543 -1.75963 1.415e-22)
(4.1592 -5.98942 1.27833e-22)
(5.94677 0.0760056 1.26758e-21)
(5.19296 -0.0372521 -5.02309e-21)
(2.92111 0.940689 5.39701e-21)
(9.05356 -0.0486458 1.56446e-21)
(7.18441 -1.33711 -1.36401e-20)
(6.74712 -0.742105 0)
(6.70093 0.825046 -9.20055e-24)
(7.28336 -1.36858 -2.6622e-21)
(5.98711 0.0795015 1.33019e-20)
(6.74966 -2.10068 0)
(9.28859 0.328974 4.32232e-23)
(4.69355 0.521715 0)
(8.10671 -1.85195 -7.26748e-21)
(6.09762 -1.86318 -3.6921e-21)
(2.99185 -1.43917 4.88141e-21)
(7.68897 -1.63434 -4.43691e-21)
(6.03256 0.403801 0)
(5.53128 -5.10989 -5.06242e-20)
(2.7525 1.69141 -4.31123e-21)
(5.22095 -0.0184506 4.75003e-21)
(7.32415 -1.3868 1.00958e-20)
(7.80554 -0.465878 4.88617e-21)
(-3.2131 0.888798 -1.4962e-20)
(5.27943 -0.505112 2.72811e-25)
(7.16273 -0.695031 0)
(3.75098 -1.44991 1.15995e-20)
(8.51046 0.883088 0)
(3.46187 -5.24968 -1.57977e-22)
(7.07556 -0.339506 7.86381e-21)
(7.02767 0.954077 -2.50436e-21)
(7.52124 0.890962 1.91199e-21)
(-3.17523 2.22632 -1.82325e-20)
(5.85799 0.036722 6.81105e-21)
(5.42134 0.0892703 0)
(-1.32313 -0.0778686 -9.60169e-21)
(7.03135 -0.961916 -2.77552e-21)
(0.603876 5.46078 -3.86002e-21)
(4.52559 -1.74814 2.29661e-21)
(7.68497 0.15915 0)
(9.08599 0.52942 3.62773e-22)
(5.54185 0.141446 1.02789e-20)
(5.90831 0.112867 8.20745e-21)
(6.10036 -0.623979 0)
(5.20308 0.0235524 -1.8016e-23)
(6.292 0.216621 1.77757e-21)
(0.70596 -0.313526 2.69137e-21)
(5.14617 -0.524335 1.33082e-21)
(7.01386 -0.850593 2.64733e-21)
(7.82797 0.0891861 -1.23168e-22)
(7.12656 -0.662185 0)
(7.55441 1.88819 -1.78508e-21)
(-1.53279 -0.700841 3.40228e-21)
(6.83936 0.694823 -2.0395e-22)
(5.99045 0.0817211 5.09499e-21)
(4.69392 0.00874582 0)
(3.84638 -7.38886 -2.5411e-20)
(9.59398 -2.57351 0)
(9.37983 1.87218 -4.64188e-21)
(6.39041 -0.0938403 0)
(6.72979 -2.3359 -8.71485e-23)
(4.50457 -0.784771 -2.80088e-21)
(4.85372 1.57376 9.83162e-21)
(0.725725 -0.212089 -1.15515e-20)
(4.09624 3.75136 0)
(6.70805 0.114865 -1.50664e-21)
(6.04247 0.425594 -2.98538e-21)
(0.544782 -0.304189 -7.39041e-21)
(2.86947 -5.3049 3.40816e-22)
(5.30218 -0.514802 -1.45019e-20)
(6.46055 -0.519246 2.30327e-22)
(6.18464 0.392035 2.089e-21)
(4.88887 -1.68433 0)
(4.5306 0.288055 5.38141e-21)
(6.20459 -0.928537 1.12392e-22)
(-0.500492 -0.180409 4.82509e-21)
(-1.51973 -0.483591 -1.13914e-20)
(0.390424 -0.219548 -1.37969e-20)
(7.60267 -0.312241 0)
(0.403317 -0.260027 0)
(6.01423 2.44716 0)
(6.54456 -0.340119 0)
(1.67055 -1.39268 -3.16968e-22)
(8.05253 -1.81785 0)
(5.33349 4.28079 0)
(5.2726 -0.0844336 1.97978e-21)
(7.69021 -0.389829 -6.30297e-21)
(7.03321 -0.63577 -6.24497e-21)
(5.31345 0.488743 1.64691e-20)
(6.00793 0.0804029 -1.50897e-21)
(6.68436 3.79024 0)
(6.67232 -0.456847 0)
(5.81784 0.0363175 5.80114e-21)
(5.93715 0.0641202 1.01126e-21)
(3.87564 1.65092 0)
(-4.10458 1.90335 1.46739e-20)
(6.94092 -2.42792 5.13826e-21)
(-0.180202 0.769762 0)
(7.64973 -0.166103 4.70287e-21)
(5.92913 0.0657475 -6.70279e-21)
(7.18829 -3.8761 -1.35434e-22)
(3.73496 -1.41127 0)
(6.00792 0.435265 5.57157e-21)
(7.12357 0.221666 0)
(6.2029 0.0986944 0)
(6.44843 0.370434 -2.91384e-22)
(5.83417 0.0948047 3.09448e-21)
(-2.51802 1.85497 -1.99391e-20)
(6.69404 1.2817 5.44099e-22)
(4.56126 -1.39879 -5.02591e-21)
(6.47411 -0.309914 7.51664e-22)
(6.20923 0.415046 1.62742e-21)
(7.69258 1.92374 5.21492e-21)
(7.19444 -2.38293 0)
(6.43106 -1.37045 1.60552e-21)
(4.52079 -0.621934 0)
(3.03958 -5.40326 5.17554e-21)
(7.49025 -0.665757 0)
(4.74508 -0.305399 7.26585e-21)
(-0.694852 0.535935 -1.77321e-20)
(6.27024 -0.299835 0)
(-1.29819 0.237029 6.7481e-22)
(6.55655 -0.549918 -1.22428e-21)
(0.880939 2.33372 -3.1455e-21)
(5.70405 -1.10462 1.44087e-20)
(4.48611 1.4442 -6.15359e-21)
(4.54637 -1.37004 -1.42525e-20)
(9.54 1.74965 0)
(6.57292 -1.24809 6.40049e-23)
(-3.03271 0.759017 -3.61499e-20)
(6.01299 0.441839 0)
(5.63751 0.357225 3.73443e-22)
(7.01792 -0.0771801 -3.3007e-22)
(7.62995 2.14318 0)
(6.00142 0.0247461 0)
(-2.65002 0.976228 0)
(1.66095 -5.30193 8.56416e-21)
(8.55959 -3.08159 6.60469e-21)
(9.27944 -1.28573 6.25086e-22)
(6.65113 2.05572 0)
(5.49031 -0.837472 9.56994e-21)
(5.35497 -0.093709 -5.94917e-23)
(6.66785 1.17621 -1.12434e-21)
(0.615906 -1.32806 6.59494e-21)
(5.77754 0.279989 0)
(5.05051 -0.542535 0)
(3.08439 -0.842916 -7.72246e-21)
(4.82288 -1.66748 -3.58925e-21)
(6.18386 -0.768653 0)
(5.3928 -2.53553 -5.14563e-21)
(5.32755 0.0416439 5.22795e-23)
(5.17404 -0.329793 -2.6514e-23)
(3.28663 -1.55436 0)
(8.55074 0.925355 -2.03735e-21)
(6.43037 -0.94281 -3.73519e-23)
(7.10459 0.22188 1.04265e-21)
(6.05285 -1.92532 0)
(-1.79707 1.96347 -3.50939e-20)
(7.22115 0.910755 2.29175e-21)
(5.9929 0.243734 1.17518e-21)
(5.54725 0.0999142 6.34146e-23)
(7.33185 1.28634 0)
(5.2812 0.464284 -4.38094e-21)
(8.24944 0.430937 -3.07341e-21)
(0.348162 -0.158463 2.98248e-21)
(5.99573 0.137714 0)
(2.55577 -4.96246 -3.49692e-22)
(2.35191 -0.696048 0)
(5.99634 0.136806 -4.56634e-21)
(5.97254 0.162196 2.01216e-21)
(5.76664 -0.0789057 -1.13523e-21)
(0.733906 -4.23972 0)
(6.47024 -0.149749 -1.24333e-21)
(3.89001 0.593744 1.46049e-20)
(7.09828 -2.3677 0)
(5.21998 -0.137287 6.08227e-21)
(7.85247 -2.00911 -3.06072e-21)
(6.52194 0.042482 0)
(2.73738 -4.66152 2.67126e-21)
(2.07969 7.24815 -5.05071e-21)
(7.84455 0.0758359 0)
(-1.23284 1.67568 2.13056e-20)
(5.62386 0.304437 0)
(5.71012 -2.6181 4.99008e-21)
(-0.96509 -1.13653 6.32421e-21)
(5.64574 -0.829329 4.25102e-23)
(6.87466 0.23027 -1.49528e-22)
(4.51496 0.246354 2.84605e-21)
(5.71626 -1.18821 -5.29906e-21)
(3.60318 3.47574 1.67651e-21)
(5.75732 -2.59061 3.64285e-23)
(6.98342 -0.85006 2.51225e-21)
(7.31637 1.26624 1.63344e-21)
(6.53032 -2.9484 0)
(5.99596 0.0664544 -4.51699e-21)
(3.90066 -0.634435 -8.29403e-21)
(4.57875 -0.639907 0)
(5.87505 -1.06965 8.08783e-23)
(4.05006 0.35031 0)
(4.2895 -1.43787 1.24038e-20)
(6.60787 -2.50267 0)
(5.00381 0.0184613 1.8545e-23)
(7.18536 -0.306468 -4.50241e-21)
(3.02651 -4.78407 5.24231e-21)
(-2.2501 0.691153 9.91633e-21)
(7.59662 0.134267 -4.39554e-23)
(5.45183 -2.61586 5.15655e-21)
(5.78884 -1.82004 5.31205e-21)
(4.93479 -1.34484 0)
(-3.85622 2.07532 -1.08176e-20)
(7.27767 -2.26991 -1.03616e-21)
(-3.93198 2.35548 -1.26858e-20)
(5.22273 -0.411393 1.62308e-23)
(4.87746 -1.97653 0)
(6.66076 0.00110054 -2.44326e-23)
(-3.89143 1.85669 0)
(0.172411 -1.16647 1.66146e-22)
(7.59409 -4.14548 5.51232e-22)
(2.6682 -1.64112 0)
(6.58848 -1.86208 1.67921e-21)
(3.69321 -4.43653 0)
(7.65489 2.04425 0)
(5.3607 -2.545 -6.55441e-21)
(4.76038 0.408239 4.39079e-21)
(1.16065 6.31169 0)
(5.54222 0.206956 -2.80496e-21)
(9.5285 -0.96912 1.43223e-20)
(-1.81459 -0.743199 1.67818e-20)
(7.86187 2.9782 0)
(6.39212 -0.0246435 0)
(-3.05603 1.02829 -1.63462e-20)
(5.91688 -0.563048 0)
(6.70516 -0.0333343 0)
(-0.697828 -0.141089 -8.61115e-22)
(6.60187 -1.42593 -7.92988e-21)
(5.67624 -1.56161 4.48362e-21)
(7.25705 -1.10841 4.39042e-22)
(-3.96396 2.24342 2.26516e-20)
(5.96443 0.134187 2.31535e-21)
(5.05709 -1.41233 0)
(6.35721 0.938672 -8.28953e-22)
(4.73677 -0.984 0)
(5.93535 -0.102412 0)
(6.00212 0.283839 0)
(6.41882 0.355732 -2.38192e-22)
(5.81986 -0.326759 4.2008e-21)
(8.01295 -0.13357 -3.32682e-22)
(5.16904 -1.43939 0)
(-2.74282 1.77918 -1.45991e-20)
(5.97419 2.29768 1.62476e-21)
(6.01233 -2.25247 5.26356e-22)
(6.75539 0.656024 2.55914e-21)
(6.099 -1.12036 1.77781e-21)
(6.10767 0.0654348 -3.90975e-21)
(-0.801733 0.566553 0)
(7.39184 0.830183 0)
(4.40397 1.59158 0)
(4.34049 -1.9891 -9.12975e-21)
(3.60586 -10.0085 -1.05295e-20)
(1.69685 -0.430641 0)
(6.39844 0.930918 0)
(8.30577 1.5403 1.00447e-21)
(6.0129 -0.0788176 -1.18538e-21)
(5.7512 1.24643 4.70873e-21)
(6.58407 -2.73693 0)
(-3.01969 2.69358 -6.20174e-21)
(6.79161 0.123171 6.02912e-22)
(4.73062 -1.58093 -8.49632e-21)
(6.43366 0.142654 -1.40196e-21)
(6.65641 1.17038 1.83549e-21)
(6.16936 -3.99301 3.85972e-21)
(4.28045 -1.95729 1.57288e-20)
(-1.88262 -4.75502 4.4344e-21)
(6.18801 -0.593589 9.46018e-23)
(5.99011 0.0275594 -1.14564e-21)
(4.86056 -2.3562 -1.5798e-21)
(2.49542 7.27168 2.89919e-21)
(4.85561 4.60262 -1.98379e-21)
(5.27863 -2.50889 2.6649e-21)
(6.77789 0.695517 0)
(3.06622 4.16413 2.84385e-22)
(6.46946 -0.0213203 -4.01139e-21)
(8.01449 1.20299 1.60599e-21)
(4.64475 -1.4871 -7.71519e-21)
(5.97568 -2.1835 -5.5722e-21)
(6.54149 -0.0326272 1.20424e-20)
(8.44099 -0.221064 -6.92069e-21)
(7.73352 4.2048 2.40513e-21)
(7.64307 -0.246271 -2.54602e-21)
(4.06268 -0.941836 -1.65391e-20)
(6.51379 -0.027181 -3.30851e-21)
(4.03232 -1.11382 0)
(3.69771 -4.12652 -1.06939e-20)
(6.56484 0.0244228 1.01936e-20)
(4.35497 0.0558145 -2.82548e-23)
(-1.69236 -0.268174 0)
(5.82239 -2.68802 0)
(6.04326 0.8682 4.09989e-21)
(3.73869 -0.923139 1.02174e-20)
(4.83739 -4.90508 -7.03332e-21)
(6.76213 -2.31861 -3.06707e-21)
(7.2257 -1.36583 7.48772e-21)
(8.61016 0.768112 0)
(6.04832 0.933287 2.25334e-21)
(10.2788 -5.03981 -2.63662e-21)
(7.102 2.05298 6.72228e-22)
(6.31165 -1.03258 -6.63472e-21)
(-4.00619 2.23934 -3.62499e-20)
(6.0032 -1.03604 -1.52632e-21)
(7.24195 -1.3931 9.77906e-22)
(6.51248 2.54566 0)
(5.90696 1.50012 1.85099e-21)
(5.77332 -0.0811536 1.04338e-21)
(5.31339 -0.0207861 2.62672e-23)
(3.40362 -1.69319 1.44529e-20)
(6.24643 -1.04707 9.98522e-21)
(3.67573 -1.68307 4.82569e-23)
(-1.94744 -0.387223 -9.95409e-21)
(6.26371 -0.0689994 3.63858e-22)
(6.52224 0.0642186 2.96201e-21)
(-2.39722 1.08135 -3.36093e-21)
(6.88809 2.04108 3.78403e-22)
(-1.2815 1.45344 -2.31495e-20)
(4.1137 -2.00591 -4.94501e-21)
(5.24656 -0.00795054 0)
(5.27448 -1.01842 -5.01282e-22)
(-1.46512 -2.61812 -8.51268e-21)
(4.48767 -0.863186 1.50083e-20)
(7.04847 -0.503378 0)
(9.76296 0.0617619 -2.35744e-21)
(4.1663 -1.78123 3.54352e-21)
(5.97955 0.0994602 -9.86353e-21)
(-3.49588 1.28083 -1.28947e-20)
(2.01836 5.90944 -3.71124e-21)
(7.07395 -0.676688 4.28882e-21)
(6.53768 0.107424 2.21522e-21)
(5.76459 -2.64349 -6.9806e-21)
(7.86763 -0.261926 3.99536e-22)
(3.7621 -7.46028 -1.71539e-20)
(6.39367 -0.0169172 3.76238e-21)
(6.42565 -0.270287 -3.23568e-21)
(6.2878 0.22066 -7.9138e-23)
(7.54248 -0.0152516 -7.13017e-21)
(4.06743 -1.83684 -6.83302e-21)
(6.22954 -0.546245 0)
(2.10492 -4.2932 5.86193e-21)
(6.37384 0.067164 7.51117e-22)
(6.67726 -3.18248 -1.19141e-21)
(7.16468 -0.00747191 5.95978e-23)
(7.0344 -1.42777 -4.46753e-21)
(5.99586 0.0533806 -7.68702e-21)
(6.20998 0.652685 1.23751e-21)
(-3.80128 1.71209 -1.50829e-20)
(6.71729 -0.100422 0)
(3.02327 -7.02733 1.32713e-20)
(6.8057 1.01889 2.56682e-21)
(4.89922 -1.9375 0)
(6.2959 0.182506 2.3397e-21)
(6.64774 0.841187 3.47965e-21)
(6.59474 -0.152566 3.66337e-25)
(7.87449 -2.95554 -9.10934e-22)
(10.3064 1.63889 0)
(5.44245 0.640649 8.06855e-21)
(4.47168 -1.40055 5.84871e-22)
(5.20483 -2.45371 5.68308e-21)
(6.37477 -0.724886 0)
(4.74687 0.364837 -1.27035e-20)
(11.9592 -0.697463 1.93161e-20)
(7.16153 3.26369 -2.90703e-21)
(4.09392 -0.983916 1.61766e-20)
(8.14436 0.0596485 5.86024e-22)
(-2.57801 0.834409 8.28101e-21)
(6.03628 -0.477407 -6.71585e-21)
(6.65059 -1.10854 -2.55087e-21)
(5.51223 0.127395 -5.90336e-21)
(7.12211 0.039345 0)
(5.9808 0.0618581 -4.34133e-21)
(-0.586763 -0.721258 1.69151e-21)
(-1.18702 0.635421 0)
(6.24136 -2.48251 0)
(5.3075 -0.0172758 0)
(0.271204 -0.170539 0)
(6.10441 0.635086 0)
(3.92184 -0.919156 0)
(1.93824 -1.44303 2.84222e-22)
(9.10807 -1.58234 -6.63637e-21)
(7.19248 0.551404 0)
(5.42396 0.577655 1.19962e-20)
(9.0727 6.21294 -4.83788e-20)
(6.17846 0.432143 1.08558e-22)
(-1.18963 -2.11146 -5.05164e-21)
(3.9283 -0.311505 -3.60681e-23)
(-3.9508 1.76578 1.19123e-20)
(6.07173 0.0569806 -3.1683e-21)
(7.03108 -0.115829 2.14937e-22)
(6.05253 0.616933 -2.83093e-21)
(5.68983 0.287104 -7.99432e-21)
(5.84949 2.06788 -3.71455e-21)
(9.25704 1.89703 0)
(1.83694 -3.13374 8.76434e-22)
(4.32348 -1.478 -1.3583e-20)
(6.01794 0.041131 -1.32032e-20)
(7.28466 -2.23244 -6.64606e-21)
(7.11134 -0.0680191 1.11643e-21)
(8.42289 -2.11743 1.64669e-21)
(6.83474 -1.15273 -9.30694e-22)
(6.63618 -1.82708 -5.87818e-21)
(6.0486 0.386652 3.09432e-21)
(8.58433 4.82277 0)
(4.61804 4.18118 1.3093e-21)
(5.33772 -0.136121 -1.81674e-21)
(8.25217 -1.79059 0)
(12.0151 3.40498 0)
(6.00299 -2.7463 -3.53806e-23)
(-2.00863 0.50179 8.42966e-21)
(2.27389 -1.70681 4.46087e-21)
(10.1125 -2.92582 0)
(5.91096 -0.359381 -8.67504e-21)
(5.55314 0.305901 -1.54013e-21)
(2.86337 -3.57747 3.37562e-21)
(6.33592 0.332258 2.01303e-21)
(-3.68417 1.59818 0)
(1.4314 -2.83565 1.30511e-21)
(6.56014 0.661619 0)
(5.43787 1.55927 -2.14296e-21)
(9.09004 0.522201 -7.79218e-22)
(5.99987 0.0694801 -1.07131e-23)
(6.76659 1.32425 -2.08372e-21)
(7.74015 2.56074 -5.46634e-22)
(5.64606 -1.7709 1.093e-20)
(4.1632 -8.35628 0)
(1.05607 -8.03173 -9.90639e-21)
(1.99236 3.2904 0)
(7.29789 0.508304 -5.59899e-22)
(2.61869 -3.30421 7.00592e-21)
(7.09782 -2.62478 3.87255e-21)
(4.21159 -6.88448 -1.92995e-20)
(0.539939 -4.85192 -1.55873e-20)
(4.65701 -2.17251 -6.56371e-21)
(4.43861 -1.48806 -7.93886e-21)
(6.28484 -0.985236 -3.84188e-23)
(1.01558 -8.7789 8.01076e-21)
(4.10921 -1.85352 5.59962e-21)
(4.60393 -1.56661 8.65458e-21)
(3.24784 -8.92623 1.20155e-20)
(2.85181 -3.09291 -2.72908e-21)
(5.94149 -1.97837 5.54467e-21)
(-0.076638 0.193862 1.26627e-20)
(7.77374 -0.0400846 3.64327e-22)
(9.53601 6.53121 4.4733e-20)
(6.6984 0.805536 -7.4878e-22)
(7.20207 -1.91558 0)
(0.451143 -0.195881 -2.71843e-20)
(6.27304 -0.0175224 -4.65636e-21)
(5.99188 0.284448 0)
(7.24269 0.479823 0)
(0.535212 -9.80826 -3.22613e-20)
(7.44876 -1.43724 -4.65139e-21)
(6.8466 0.351039 -3.92198e-22)
(6.58583 -1.39224 1.04188e-20)
(5.83139 2.05044 3.29832e-21)
(5.4244 -0.0775848 7.98739e-21)
(2.07787 -3.55063 -1.6348e-22)
(5.44521 1.24993 0)
(4.70211 -1.6471 8.2854e-21)
(1.23267 2.52077 3.56138e-21)
(0.340068 -4.55023 1.15971e-20)
(5.60335 -2.21207 1.83777e-21)
(5.82521 -2.66209 -1.78508e-21)
(6.12292 -0.0462916 4.14525e-21)
(12.2775 -3.79878 1.24182e-20)
(5.91498 -0.00589812 -1.74618e-21)
(1.75979 -3.33414 -4.68673e-21)
(6.83865 0.346143 3.1836e-22)
(5.86493 0.0235007 3.41113e-21)
(4.01466 -1.09347 -6.65144e-21)
(5.90139 -0.483935 5.41769e-21)
(7.52526 4.45146 0)
(6.8733 0.678182 4.74034e-22)
(5.93112 0.0527043 7.59323e-22)
(4.90924 -1.2527 -2.66438e-21)
(5.60144 3.95126 -8.68736e-22)
(5.86576 -1.94681 4.0699e-21)
(6.04187 0.00802722 1.5106e-21)
(4.54228 -0.104988 -9.74151e-21)
(8.04456 -1.61652 0)
(5.46016 -7.45015 -2.37005e-20)
(6.46465 0.155173 1.89869e-21)
(8.22206 1.08036 0)
(4.66518 -0.362087 5.59999e-21)
(6.42785 0.327661 0)
(4.92549 3.85231 7.12066e-21)
(8.07547 -0.129818 0)
(4.9958 3.83834 0)
(7.46862 0.406706 1.454e-21)
(6.75954 0.263308 5.24005e-22)
(7.78098 0.0579746 -4.4545e-21)
(5.79669 0.250172 -3.64382e-21)
(4.83199 2.24875 -2.84177e-21)
(6.005 0.227634 -1.42664e-21)
(6.17222 0.65095 0)
(6.15557 -0.0584657 -2.09e-21)
(6.95146 0.210823 3.52396e-22)
(5.60566 1.72131 4.97788e-21)
(7.20489 -1.89556 0)
(8.05803 1.13533 2.49533e-21)
(6.29397 3.75313 -1.93622e-23)
(7.91111 0.00976117 1.3753e-21)
(5.26832 -6.68746 0)
(-0.422223 -0.403436 1.97538e-20)
(6.10313 0.377093 0)
(6.13114 -0.174998 8.99688e-22)
(-0.405303 -0.012925 0)
(8.82302 -0.0434241 0)
(-1.52601 -7.72995 0)
(6.48884 -2.48245 0)
(-1.43331 2.89227 -2.96949e-21)
(1.9497 -5.14792 -1.81602e-21)
(5.80064 -0.332503 -6.27789e-21)
(3.30474 -4.53898 -6.06732e-21)
(4.33535 -1.91262 0)
(3.92462 -4.32562 -4.83118e-21)
(-0.8802 0.0662332 -2.39371e-20)
(5.1778 -2.44801 0)
(4.9034 -1.83856 -9.02237e-21)
(5.42586 -1.74197 3.41681e-23)
(6.67141 0.765878 1.85691e-21)
(7.66784 -2.69428 1.99147e-21)
(5.65898 0.240705 0)
(6.98567 -2.31623 0)
(8.66071 -0.0293618 2.57178e-21)
(3.34324 7.41308 7.74033e-22)
(6.86473 -1.49946 -1.58803e-22)
(0.947103 -10.0407 -2.89915e-21)
(5.99817 0.024691 3.21459e-22)
(4.76537 -0.844894 -2.81504e-23)
(6.04764 0.388526 4.41509e-21)
(5.00809 -6.89702 8.39179e-21)
(6.08215 -1.82382 0)
(-2.77884 2.33262 0)
(7.70652 -0.228463 0)
(4.9632 0.118805 0)
(5.60436 -1.26118 3.88103e-21)
(7.23403 -0.268042 0)
(-1.14887 2.02353 4.01542e-20)
(5.92502 -4.1503 -1.56235e-22)
(4.51487 -1.60259 -1.30269e-20)
(9.59076 5.5122 2.04742e-20)
(2.3464 -4.63307 -3.23075e-21)
(1.1694 2.33432 -1.94584e-20)
(6.51643 0.0744668 1.19984e-21)
(0.718953 -3.17474 -4.92464e-21)
(4.55788 -5.76559 7.88368e-21)
(7.62936 0.346747 0)
(7.64895 -1.32053 0)
(6.29497 7.98499 0)
(7.0056 -1.50402 2.37999e-21)
(3.93369 -3.59178 0)
(5.52773 1.20349 0)
(6.00367 0.0301776 0)
(5.72538 -1.55213 4.21556e-21)
(6.17877 0.401191 -4.18618e-21)
(3.79904 0.376712 0)
(3.63091 -0.935681 4.39042e-21)
(5.93496 0.408193 -4.28489e-21)
(7.08329 1.94028 -1.57176e-21)
(5.26756 -2.44413 5.64985e-21)
(5.68974 1.38092 3.4172e-23)
(1.94028 5.69641 -6.14613e-22)
(11.4613 4.23859 2.54621e-20)
(2.62249 3.43557 2.554e-21)
(6.77491 0.293324 -6.59692e-22)
(6.77621 -1.21457 -1.7154e-22)
(5.61041 -0.0278793 -5.84637e-21)
(6.32606 -0.0121223 0)
(7.69314 -3.53082 9.108e-22)
(5.9007 0.0934296 6.07908e-21)
(10.8394 -3.89092 2.43451e-20)
(6.80411 -1.09612 -2.70806e-21)
(3.81236 -0.981419 -1.1114e-20)
(6.78163 0.230255 1.00792e-22)
(8.23797 0.450519 4.44616e-21)
(6.00398 0.208772 0)
(4.33566 3.73272 9.55667e-23)
(10.7369 -3.76293 -2.65498e-21)
(2.38645 3.18453 -4.38505e-21)
(0.685242 -1.49625 -7.52477e-21)
(6.06529 -0.0112884 3.27452e-21)
(6.96798 -0.450933 -1.08292e-22)
(7.98433 0.0471245 -4.45542e-22)
(7.84992 -0.156285 0)
(11.6412 1.94936 0)
(4.90441 -2.35606 6.91562e-21)
(-3.55275 1.38217 1.39281e-20)
(5.25027 0.0366191 4.21586e-24)
(5.90552 0.0831441 1.21376e-20)
(4.7123 4.16428 -5.01547e-22)
(4.70323 0.268397 0)
(5.54894 -2.07308e-05 0)
(5.26059 -1.36828 -3.40482e-23)
(7.14232 0.287691 2.26649e-21)
(5.8024 1.27766 6.39353e-21)
(8.15955 0.0868129 0)
(6.31511 -0.196614 0)
(6.69426 -2.01424 8.40006e-21)
(6.27652 -0.677125 5.32396e-21)
(0.663024 0.704934 -5.99913e-22)
(7.16038 0.307144 0)
(9.60918 -0.224714 3.24937e-21)
(5.25816 -0.575089 -2.44605e-22)
(-1.58165 -1.79705 -1.10979e-20)
(6.1113 -0.178649 -7.11044e-21)
(8.69051 -1.14332 0)
(7.74193 -1.6124 3.68234e-21)
(6.30681 -6.6755 -1.11293e-20)
(-0.2425 0.708691 0)
(5.3927 0.118684 -2.5878e-22)
(5.79038 0.150347 -3.93901e-21)
(5.13359 0.0783334 2.07339e-25)
(9.26324 0.015144 3.07963e-22)
(6.78481 6.23999 7.09512e-21)
(6.43424 0.0603879 0)
(3.78778 -1.50166 -6.32648e-23)
(4.95691 4.12298 3.96179e-22)
(9.11797 -3.11828 -2.21291e-20)
(6.08192 0.614938 3.35227e-21)
(5.36831 -8.15028 6.82653e-21)
(5.98876 0.00992986 -1.55675e-20)
(3.58837 -1.59658 1.77598e-22)
(6.34972 -1.24936 3.99454e-20)
(5.63434 -1.46224 0)
(9.21067 -1.59122 -9.12685e-22)
(4.05094 -1.90004 4.52174e-21)
(7.07956 -0.301823 -8.58253e-21)
(5.93964 0.0642819 -5.51454e-21)
(6.39286 -0.0372026 -7.34523e-22)
(5.38723 -0.80212 1.38251e-20)
(7.60012 -0.0362343 -4.32613e-22)
(5.54156 0.0180588 3.34527e-21)
(5.80438 -1.11778 2.54482e-22)
(7.46861 -1.09158 -5.03057e-21)
(6.9891 2.19137 -1.10355e-21)
(4.68306 -5.12642 5.50597e-21)
(6.38429 -0.0603615 0)
(4.22921 6.81182 0)
(4.00745 -0.838144 0)
(4.50754 -1.50515 9.99713e-21)
(6.05135 0.054512 -8.83708e-21)
(5.51036 0.333316 0)
(5.02109 -1.29659 -7.95235e-21)
(5.48274 0.268417 0)
(5.6259 -1.16575 -6.41669e-21)
(4.33124 1.33327 5.52885e-21)
(6.02062 -1.72549 -6.0804e-21)
(6.53972 0.0578638 0)
(5.87812 -0.00565995 0)
(7.51233 0.889391 -2.46853e-21)
(7.13272 0.45741 4.6416e-23)
(6.80901 -0.15635 1.37012e-21)
(6.60211 3.93003 -3.86098e-22)
(8.60077 -0.0499979 0)
(5.63235 -2.1561 -3.06169e-21)
(-1.31929 0.573093 0)
(3.17392 1.70772 -5.50444e-21)
(7.78591 2.5072 0)
(6.9039 -0.410518 2.38947e-22)
(4.08225 -0.866376 4.29178e-21)
(4.98284 -0.763206 4.38676e-21)
(7.37484 0.322594 2.40047e-21)
(5.14032 -4.08246 -1.37392e-20)
(6.20247 -0.774669 1.3409e-20)
(6.11686 0.639171 -1.04602e-22)
(7.83552 -2.05362 -1.95634e-21)
(6.37058 -1.54902 -3.14196e-21)
(-1.78743 0.761456 1.07165e-20)
(7.25553 0.802407 0)
(5.95536 0.083124 1.68349e-23)
(5.08987 -1.45173 0)
(10.4169 -3.65593 -3.50078e-20)
(5.68831 -2.15216 -1.61056e-21)
(5.39889 -0.715715 -4.54714e-21)
(5.12793 0.027083 2.00013e-23)