/*--------------------------------*- C++ -*----------------------------------*\
| =========                 |                                                 |
| \\      /  F ield         | OpenFOAM: The Open Source CFD Toolbox           |
|  \\    /   O peration     | Version:  2306                                  |
|   \\  /    A nd           | Website:  www.openfoam.com                      |
|    \\/     M anipulation  |                                                 |
\*---------------------------------------------------------------------------*/
FoamFile
{
    version     2.0;
    format      ascii;
    arch        "LSB;label=32;scalar=64";
    class       volVectorField;
    location    "7.9";
    object      U;
}
// * * * * * * * * * * * * * * * * * * * * * * * * * * * * * * * * * * * * * //

dimensions      [0 1 -1 0 0 0 0];

internalField   nonuniform List<vector> 
13486
(
(5.17023 -1.24471 1.05876e-20)
(5.32928 0.0193988 6.32905e-21)
(7.4723 -0.101346 0)
(12.492 -5.50459 -5.07722e-20)
(8.63076 -0.77501 -1.41507e-21)
(6.80395 0.432296 -2.54387e-21)
(9.61025 1.11552 6.7586e-23)
(7.3162 -2.38325 -2.53496e-21)
(6.7571 -1.24424 0)
(5.51134 1.11654 0)
(-3.01214 1.20597 -6.45074e-21)
(6.28652 0.188432 0)
(4.86732 -1.79176 -1.01835e-20)
(6.28681 1.60448 -3.94682e-21)
(8.34358 0.695016 -4.91118e-22)
(5.44935 1.13379 -6.90095e-21)
(2.66308 -0.435631 4.46089e-21)
(2.42828 6.44367 -5.36124e-21)
(5.77804 0.0529032 1.10626e-22)
(5.50081 -0.737704 -1.13402e-20)
(11.6574 -2.51903 -3.11743e-20)
(4.9102 -1.82388 1.31193e-20)
(5.36307 0.00233057 -5.07004e-21)
(8.73479 -0.409886 0)
(5.76425 0.925023 2.58445e-21)
(8.62476 -0.420061 7.47898e-22)
(-2.465 1.28375 2.78652e-21)
(8.71562 -0.000990975 -4.21099e-21)
(0.759309 0.75339 0)
(8.86011 -0.06857 2.46129e-21)
(7.50671 4.1223 -3.048e-20)
(7.08296 1.60976 -2.43481e-21)
(9.18867 0.42334 5.86023e-22)
(8.07331 -0.533021 0)
(7.34414 -2.26371 0)
(7.21734 0.871561 -8.81057e-21)
(5.40457 -3.97724 -2.12911e-21)
(5.73117 -2.64828 4.46967e-21)
(5.92723 -2.27335 1.18822e-21)
(6.63844 -0.768275 4.94366e-21)
(10.4343 -2.46757 0)
(4.25623 -2.05481 -1.20647e-20)
(6.62596 -0.130553 0)
(5.82919 0.772537 -1.19662e-20)
(5.82451 0.788963 4.91503e-21)
(6.19455 0.174964 5.20786e-21)
(-3.71439 2.51333 1.06795e-20)
(1.84104 3.5619 -1.67635e-21)
(5.13582 -4.2746 1.74707e-21)
(7.97405 0.268289 -3.09024e-21)
(5.98752 0.0015933 8.87605e-21)
(5.87743 -0.623276 0)
(5.6114 0.563192 -9.29953e-21)
(5.90845 -2.17051 -6.71988e-21)
(1.11333 7.08337 0)
(8.44251 -0.953381 3.0514e-22)
(8.36939 -1.23188 -1.82162e-21)
(6.46618 -1.22282 5.30208e-21)
(8.91238 0.42067 -1.35957e-22)
(5.70873 -2.86212 0)
(-3.63285 -0.544501 -7.97276e-21)
(5.62764 -2.22294 0)
(9.71502 3.57308 -5.05918e-21)
(11.5914 -2.42037 -3.534e-22)
(-5.53563 2.48775 0)
(5.68347 -3.60713 -2.42548e-22)
(10.48 -5.56702 -4.39072e-20)
(4.9886 -0.633027 3.84031e-21)
(6.76364 -1.32085 -2.4437e-21)
(2.95936 0.10302 -3.17522e-21)
(12.2422 -5.90866 5.06999e-20)
(1.53024 7.01465 -4.01187e-22)
(6.4395 -0.481756 4.05837e-21)
(-0.504932 0.397198 3.942e-22)
(5.72975 -2.96905 -1.32207e-22)
(7.80954 -1.1405 4.60477e-22)
(6.40239 -3.29519 7.45928e-22)
(8.47014 0.697404 2.60751e-22)
(-3.54546 3.47967 -6.42112e-21)
(10.6324 -5.28866 0)
(8.39527 2.75219 4.96412e-21)
(5.16366 0.157323 -4.1289e-22)
(7.75409 3.38673 1.50833e-21)
(7.60106 -0.3099 -1.79019e-21)
(5.17253 -1.26123 -2.05876e-20)
(4.10407 2.30392 0)
(4.77439 -3.49468 4.63397e-21)
(5.98916 0.0311762 -1.41813e-20)
(5.73893 0.0222651 -5.65215e-21)
(5.0107 1.51448 -9.13423e-21)
(6.15098 1.78129 -2.88139e-21)
(7.78639 -1.78245 -9.09258e-22)
(5.38622 -1.47914 2.62765e-21)
(5.45673 -0.410701 3.14127e-22)
(6.62582 -1.94936 9.3784e-22)
(3.50155 5.07419 1.50453e-23)
(-2.67306 1.11253 0)
(8.83772 -6.26749 2.25649e-20)
(6.63385 -0.727059 -9.49087e-21)
(2.05744 0.29714 5.71104e-22)
(9.5968 1.12009 0)
(6.27784 1.57084 -1.55976e-21)
(8.17635 -7.184 1.02102e-21)
(5.89471 -1.00794 -6.31953e-21)
(3.84094 2.05885 0)
(1.56125 0.361355 4.47824e-22)
(6.0274 -0.095678 -1.37594e-23)
(6.31996 -2.36776 2.6658e-21)
(-3.52455 3.13229 8.24205e-21)
(7.57614 -3.3222 0)
(6.02802 -2.77813 0)
(7.9424 2.28303 1.20895e-21)
(5.94015 -2.12406 8.76654e-23)
(8.38201 1.1555 1.98381e-22)
(4.22492 -1.04494 0)
(5.92101 -2.76713 -2.95597e-21)
(5.69794 0.987404 0)
(8.59476 -0.543161 0)
(6.43163 -0.465142 0)
(3.25226 -4.13235 -3.86926e-21)
(2.46379 6.31229 1.08541e-21)
(-3.74335 -0.23115 0)
(6.47542 -1.79532 0)
(7.03069 -1.79948 -3.80553e-21)
(6.85698 -2.27582 0)
(5.94527 -0.876307 0)
(7.30557 -0.332533 9.20635e-23)
(6.27167 0.163006 7.02196e-21)
(7.92328 -0.696425 1.03301e-21)
(-2.58694 3.38827 -1.07353e-21)
(5.54253 -0.532027 7.77549e-22)
(-3.35156 2.54057 -2.72006e-21)
(0.180295 0.722085 -2.92786e-21)
(0.282794 -1.02233 -9.53418e-22)
(5.99577 -0.00230214 -1.40285e-21)
(5.61188 0.492169 -7.72263e-21)
(3.07489 0.469858 -3.65833e-21)
(7.49653 -3.18109 0)
(3.34422 -5.14499 1.70133e-21)
(7.28824 -1.79473 -1.15521e-21)
(8.5514 0.618139 1.26615e-21)
(5.63316 0.688695 7.97003e-21)
(6.45167 1.034 0)
(9.867 -4.81655 0)
(6.99572 -0.0594854 7.49261e-22)
(9.67926 0.23895 -1.51432e-20)
(5.58434 -1.36142 -3.27767e-21)
(1.66109 1.23008 0)
(7.93173 0.375901 0)
(1.24212 -0.177632 0)
(6.00394 0.0108753 1.9128e-22)
(8.93995 0.277723 0)
(9.52638 2.26889 -5.19538e-21)
(5.10135 0.151242 -3.50779e-21)
(6.17473 0.589474 0)
(8.46543 -0.286806 0)
(7.65626 -3.2247 0)
(4.41113 2.18799 1.94084e-20)
(6.31187 -2.42966 8.54149e-21)
(6.70986 -2.20065 5.53037e-21)
(7.4095 0.14961 -3.22244e-21)
(6.33206 -2.37748 -1.2753e-20)
(5.89037 3.17666 1.5435e-21)
(3.83518 -1.9234 5.26019e-21)
(6.21478 -0.942239 0)
(6.51618 1.71168 4.22117e-21)
(6.21319 1.40136 9.79149e-21)
(2.88599 -1.32473 -1.39673e-20)
(5.49989 -1.42035 8.47779e-21)
(0.538625 -1.04852 -2.02327e-22)
(-0.388648 1.33488 4.61425e-22)
(6.16142 0.521099 5.25086e-21)
(5.99364 0.0657363 -1.33753e-20)
(7.32445 0.274024 1.54085e-22)
(8.04526 4.50719 2.33226e-21)
(-5.151 -7.40472 0)
(6.01628 2.13869 -7.84459e-21)
(8.78329 0.88209 -8.15044e-22)
(6.04935 -0.105038 -1.25918e-20)
(6.41082 0.924928 0)
(6.83858 -0.824072 9.22702e-21)
(8.44731 1.13189 4.27701e-22)
(7.16471 0.589687 1.29385e-23)
(-0.444388 -0.276106 0)
(6.63213 -0.607135 4.32027e-21)
(7.93915 0.0601893 1.93783e-21)
(6.00873 -0.659746 -1.0697e-21)
(8.63332 -0.245416 9.41339e-22)
(10.3736 -2.4004 0)
(5.40892 -2.57289 -4.47208e-21)
(5.58038 -5.02779 0)
(8.12468 0.103073 0)
(6.68621 -1.52111 0)
(4.28544 0.890344 -7.89146e-21)
(7.34492 -1.62669 0)
(-3.0951 1.28096 -1.55848e-21)
(-5.23509 4.73155 1.98785e-22)
(7.49865 0.0817224 -1.63236e-21)
(5.03053 -2.46272 -2.17054e-21)
(6.51069 1.61872 3.18936e-21)
(6.97855 4.71992 3.20497e-20)
(6.29172 0.206397 -2.23617e-22)
(5.65545 -2.68262 -5.17941e-21)
(8.81668 -3.35727 -2.01558e-21)
(6.3014 -2.32443 -6.66581e-21)
(7.17311 -1.53216 2.61638e-21)
(3.37822 8.83682 -8.72292e-21)
(6.15854 -0.410449 8.80121e-21)
(6.99107 -1.48702 0)
(6.4928 -0.529876 0)
(8.75249 -0.179733 -3.39186e-21)
(7.82398 0.348975 -4.91798e-21)
(5.54333 -0.668613 1.0418e-20)
(6.00388 -0.0783958 -1.28668e-23)
(6.85188 0.513546 2.93365e-21)
(12.0314 -1.04918 1.75632e-21)
(8.73226 -0.0239562 0)
(5.02968 1.45662 2.06179e-20)
(5.64206 -1.48427 0)
(7.56848 2.72422 0)
(2.1145 -0.524921 -8.21308e-21)
(7.94206 0.454505 0)
(7.22356 -1.80306 2.60449e-21)
(7.86996 0.221332 0)
(5.22565 0.315719 -1.95685e-21)
(4.97087 -2.33038 3.58429e-21)
(6.9971 0.992115 2.94051e-22)
(-1.53166 -0.50682 1.8061e-20)
(8.54873 -1.66973 4.63065e-22)
(4.54638 -3.36956 -1.05055e-22)
(6.85051 -0.784258 -2.98938e-21)
(12.1411 0.255175 3.04272e-20)
(8.63762 0.585827 -1.66938e-21)
(4.22714 -2.04224 4.15993e-21)
(7.78769 -5.30449 0)
(4.6648 -2.2679 4.13335e-22)
(8.6039 -0.409314 -1.82688e-21)
(8.50817 0.142125 -1.4101e-21)
(4.6538 -2.2263 1.14474e-20)
(6.90675 0.361852 0)
(8.99611 0.21123 0)
(5.98787 0.0596491 2.06613e-20)
(8.85647 0.878103 0)
(4.465 -2.20079 3.67546e-21)
(6.11713 -2.25959 2.77945e-21)
(5.78382 -0.312894 0)
(6.78293 0.148119 -1.11817e-21)
(8.44826 0.18384 -3.53508e-21)
(1.71013 -0.927877 5.87882e-22)
(5.78645 0.691824 0)
(2.40316 -6.29936 -3.60557e-21)
(4.15254 -0.986919 1.62272e-21)
(5.53951 -2.68368 3.51566e-21)
(7.01135 -2.14751 0)
(9.08478 -2.86227 8.78337e-22)
(-5.38006 -7.70684 3.2494e-21)
(7.01128 1.5896 2.46734e-21)
(13.9135 -1.33701 -2.21936e-21)
(7.72831 1.72526 -2.03208e-20)
(9.13212 0.340953 3.76733e-22)
(5.55543 -0.0181667 0)
(6.17939 -2.41941 -1.57888e-22)
(8.33471 0.720224 9.72237e-22)
(-5.18109 -7.59603 -4.05744e-21)
(8.5363 -2.15817 1.65003e-21)
(-0.937279 -0.448402 0)
(9.60874 -1.8572 -5.2686e-22)
(7.70315 1.62962 -4.28283e-20)
(6.5704 -0.0430394 -5.15435e-21)
(0.986962 2.28579 0)
(4.72204 1.11578 6.67729e-21)
(5.99571 -0.05908 -3.54368e-21)
(8.69154 0.0240802 0)
(6.0314 0.172883 5.06527e-21)
(5.08617 -2.40598 4.7703e-21)
(8.69074 0.387344 2.00677e-21)
(9.18644 -2.92374 0)
(-2.38271 8.02058 0)
(6.97629 -2.22834 2.37114e-21)
(5.49588 -1.24119 6.35513e-21)
(-2.61406 7.86724 1.27088e-20)
(6.96783 -0.374684 -3.5241e-21)
(5.97842 -0.11973 7.53303e-21)
(8.19302 -1.47384 -3.67175e-21)
(-3.74901 -0.569159 7.03707e-21)
(-0.0697264 2.68336 4.94064e-21)
(8.52621 0.807192 -1.89897e-21)
(7.39955 -0.725272 -1.35837e-21)
(5.45771 0.279169 3.46506e-21)
(6.43445 -0.0520339 0)
(9.27872 -5.0841 0)
(5.58433 -2.33632 -2.54219e-21)
(5.83631 -2.71516 3.35247e-21)
(6.00137 0.00368504 -1.36355e-21)
(8.52733 -0.444807 -2.07421e-21)
(8.64712 -0.331033 0)
(7.2964 -0.0101877 3.99345e-21)
(5.92956 0.0736078 -4.60964e-21)
(5.99612 -0.162024 -6.7935e-21)
(10.3166 -0.0503483 -7.29564e-21)
(5.72148 3.23815 -1.75012e-21)
(3.00674 9.1451 6.51814e-22)
(5.48484 -1.27773 -5.41562e-21)
(7.21352 1.47726 2.5337e-21)
(4.26312 -3.80363 -4.56206e-22)
(7.59339 -3.59905 0)
(8.49235 0.103629 0)
(6.21287 0.0781874 2.06563e-21)
(4.45408 -3.82381 -3.75738e-21)
(4.65858 -3.67342 0)
(5.00195 3.65995 3.90318e-21)
(10.4036 -4.68577 0)
(5.83858 2.00953 4.48073e-21)
(7.8595 2.25692 3.92209e-22)
(-0.83905 -0.117433 0)
(5.59587 0.412191 -4.86202e-21)
(6.32593 -2.87316 3.68837e-21)
(5.69839 0.0105805 -4.78152e-22)
(6.11485 -0.40604 -9.88373e-21)
(9.72516 -1.60071 0)
(5.26239 -3.31294 4.13773e-22)
(5.77188 -2.32785 -2.96833e-22)
(6.04739 -0.0492958 1.60003e-21)
(5.42021 -0.326216 -6.02256e-21)
(3.32856 0.208273 6.649e-21)
(6.2519 1.78095 6.15519e-21)
(7.7723 -0.449284 -5.09579e-21)
(7.00272 -0.353205 0)
(6.08465 -0.364252 -6.02778e-23)
(7.90266 -0.340972 -4.57061e-22)
(5.99269 -0.0116312 2.04848e-20)
(7.90187 -1.76967 0)
(5.90657 2.02134 -1.50834e-21)
(4.81687 0.0723181 0)
(9.65537 1.32354 1.3018e-20)
(6.82934 -1.75433 -2.36363e-21)
(3.47566 -1.68307 5.18263e-21)
(8.90159 0.0452442 2.1763e-21)
(5.95242 0.231613 0)
(5.9511 -2.28029 4.66811e-21)
(9.49955 -1.52475 1.82237e-22)
(5.41046 -0.314323 5.69518e-21)
(7.98528 -0.332015 2.63332e-21)
(7.12696 0.629267 4.06739e-21)
(-1.74157 -1.92501 -3.47989e-22)
(1.77511 3.04211 8.56615e-22)
(7.19484 -0.0510651 0)
(4.19296 -1.68485 1.21615e-20)
(7.58919 2.80281 0)
(6.23385 -2.57511 7.14984e-23)
(6.90323 0.0347276 6.63232e-21)
(5.94479 -0.180034 -5.69589e-21)
(5.8355 0.186051 4.43227e-21)
(-2.43001 1.05849 -2.93764e-21)
(6.00478 -0.143373 8.44803e-21)
(2.44268 1.56419 0)
(-0.82274 0.116117 8.90275e-22)
(7.28949 -0.288227 -1.85455e-21)
(4.96444 -3.61229 1.98313e-21)
(7.83454 0.914443 -3.20861e-21)
(6.90483 0.051299 0)
(5.75239 1.67441 5.35497e-21)
(5.6687 -0.157809 1.31572e-20)
(5.99111 -0.0651635 1.07931e-20)
(8.82107 0.0793687 0)
(10.7198 1.4488 -8.66339e-22)
(8.62144 -0.327261 1.71579e-21)
(-3.41466 1.83125 9.53141e-22)
(5.46002 -0.731091 1.44496e-21)
(7.25918 -0.233339 1.76891e-21)
(6.83816 -0.0865225 -4.29386e-22)
(7.17686 -0.0861612 0)
(5.13458 0.110739 -8.23796e-21)
(1.23086 -5.60605 1.72955e-21)
(6.57126 0.942782 -5.63214e-21)
(6.00641 -0.00314647 7.38211e-21)
(4.74788 0.00579018 0)
(6.09019 -2.5395 5.42547e-21)
(-0.954808 -0.557844 0)
(6.8427 2.98423 1.69332e-21)
(6.62258 -0.0678175 0)
(8.01036 -2.17004 -2.09197e-22)
(4.8848 -1.04732 -2.99508e-21)
(4.77858 0.955622 1.51483e-20)
(-3.55633 1.89072 -4.91779e-21)
(8.76599 -2.42575 0)
(6.46548 0.129075 -7.64779e-21)
(5.96485 0.24085 -5.97993e-21)
(1.92476 -1.17415 -1.76476e-21)
(11.3921 2.71532 3.99732e-21)
(5.61 -0.696317 -1.57265e-20)
(8.61987 0.0229598 -1.08566e-21)
(6.05294 0.297131 5.07855e-21)
(5.37263 -1.82414 0)
(4.70195 -0.144666 6.62972e-21)
(3.79862 -5.67862 -1.15555e-20)
(10.7901 -5.31885 2.88977e-20)
(1.36648 -5.70228 -8.1245e-21)
(1.93887 -1.12245 -4.64823e-21)
(8.57347 0.799279 0)
(1.70548 -1.01308 0)
(5.28669 1.96585 0)
(6.78423 -0.191154 0)
(9.58139 -1.48663 -1.4464e-20)
(9.1536 1.43102 0)
(3.83667 -1.74165 0)
(5.50233 -0.350997 2.33164e-21)
(8.78085 0.869205 8.3744e-22)
(7.11321 -0.133217 -4.75564e-21)
(5.35358 0.111619 2.25412e-20)
(6.00163 0.0402633 -3.02576e-21)
(5.29217 3.08383 0)
(8.54012 0.0833366 0)
(5.97369 -0.160224 7.24413e-21)
(6.02721 0.0357444 1.28713e-21)
(3.81191 0.818525 0)
(0.0225029 -0.838814 -9.32427e-22)
(8.45424 -2.23018 -1.85089e-21)
(-1.11417 1.27527 0)
(6.90333 0.385084 4.60995e-21)
(6.04951 -0.0814915 -8.45188e-21)
(8.18233 6.04484 5.65428e-21)
(4.17561 -1.6643 0)
(5.9412 0.246238 1.05289e-20)
(7.22012 0.670602 0)
(8.6351 -0.228478 0)
(6.29491 0.372285 -1.04459e-21)
(5.95733 -0.11445 4.00679e-21)
(-2.70814 1.44694 -3.65021e-21)
(6.18461 1.3313 3.06112e-21)
(5.00464 -1.58403 -5.02574e-21)
(6.71232 -0.176819 7.04203e-22)
(6.09958 0.326493 4.12898e-21)
(5.35702 0.0388718 2.21516e-20)
(8.87554 -1.92796 0)
(8.77545 0.0899249 -1.42472e-21)
(4.86438 -0.901451 0)
(5.4999 -2.28412 -2.71347e-21)
(7.30931 0.201795 0)
(5.03559 -0.603883 8.29641e-21)
(-1.8219 0.181197 -7.97965e-21)
(8.66812 0.00406343 0)
(-0.998537 -0.857517 -3.31943e-23)
(8.58132 0.0381847 2.13691e-21)
(5.15241 -2.2963 5.98684e-21)
(6.17196 -1.07948 1.32649e-20)
(4.46483 0.859363 -9.31317e-21)
(4.97839 -1.56298 -1.44849e-20)
(6.8032 3.16226 0)
(4.5955 -4.84738 2.04412e-21)
(-1.96712 -2.18299 -2.55735e-21)
(5.94361 0.242469 0)
(5.6892 0.0293079 5.23866e-22)
(7.63084 0.15971 6.33753e-22)
(6.42556 2.48054 0)
(6.00103 -0.00631974 0)
(4.52056 -3.58167 0)
(-4.20988 -6.37552 1.71236e-20)
(7.40203 -1.77225 4.34863e-21)
(9.31609 0.195258 1.00716e-21)
(5.82561 1.91009 0)
(5.87928 -0.922081 9.61407e-21)
(7.79647 4.93905 -4.74542e-21)
(6.20238 1.2269 -7.50095e-21)
(12.875 -4.23136 5.22376e-20)
(5.82803 0.00544136 0)
(2.14909 3.11452 0)
(3.53837 -1.24895 -8.47217e-21)
(5.29547 -1.82256 -3.45615e-21)
(6.55814 -0.616513 0)
(6.72396 -3.08204 -1.39689e-21)
(8.06479 0.909152 5.22493e-21)
(1.38377 2.71041 9.63049e-22)
(3.75252 -1.78901 0)
(7.34358 -0.733187 -1.18248e-21)
(3.05384 -5.45546 6.95984e-21)
(7.28762 0.660583 -4.83601e-21)
(6.80454 -1.84556 0)
(0.516227 2.50514 -7.86794e-21)
(6.02366 -0.0386614 5.03424e-21)
(5.97829 0.0962575 2.03752e-21)
(0.891709 0.639639 -4.28255e-21)
(6.66556 1.75869 0)
(5.33987 0.10439 -6.0118e-21)
(8.09577 2.23904 1.25217e-21)
(2.32151 -1.05958 9.19471e-22)
(5.99138 0.0407224 0)
(10.6804 2.68358 -4.10199e-21)
(2.92306 -1.18413 0)
(5.99496 0.0496661 -8.33052e-21)
(5.97971 0.00173191 2.97229e-21)
(5.97516 -0.261505 -1.39738e-21)
(-3.08444 -7.3218 0)
(6.74337 -0.238777 -2.80241e-21)
(4.07075 0.0217347 1.79089e-20)
(8.79545 -2.03891 0)
(5.46563 -0.39694 7.05238e-21)
(10.1256 -0.323283 8.40537e-21)
(6.57086 0.0293504 0)
(6.9918 0.83385 2.11271e-20)
(9.65742 -4.71901 -3.95928e-21)
(6.85937 -0.0933549 0)
(1.07774 1.68981 9.13135e-21)
(5.66259 -0.00281316 0)
(6.52772 -2.89857 2.9173e-21)
(1.9304 -6.61062 5.75172e-21)
(5.5763 -0.132817 1.07702e-21)
(6.89892 0.423165 4.9662e-21)
(4.7132 -0.187244 3.44047e-21)
(6.15932 -1.14625 -4.84278e-21)
(9.2217 -2.45132 5.72671e-23)
(6.53936 -2.81574 8.24235e-23)
(7.23688 -0.280799 1.78907e-21)
(6.62446 1.76075 -7.83658e-21)
(8.10014 -3.4129 0)
(6.00055 -0.0114299 -6.5485e-21)
(-0.386856 1.14352 1.56666e-21)
(4.93461 -0.915782 0)
(7.98942 -5.30544 -6.63524e-21)
(2.81031 -0.557157 0)
(4.71722 -1.6435 1.26701e-20)
(7.87096 -2.51479 0)
(8.6921 0.176882 1.51724e-20)
(7.09329 0.00512742 -3.82159e-21)
(4.57545 1.72681 4.04664e-20)
(6.08747 -4.45776 1.00578e-20)
(6.88337 0.135724 -5.2472e-23)
(7.16719 -3.32779 -8.09979e-22)
(6.43534 -1.80402 4.11555e-21)
(5.38187 -1.47847 0)
(-1.61238 0.610654 -8.07227e-22)
(8.98476 -1.77573 2.75167e-22)
(-1.8252 0.614556 -1.0298e-21)
(1.25596 2.66697 9.43814e-23)
(5.38079 -2.13668 0)
(6.56897 -0.00990613 -7.498e-23)
(-0.45995 -0.936947 0)
(7.24849 -6.31568 9.21845e-22)
(7.9024 5.83559 -7.6992e-21)
(10.2428 3.44922 0)
(7.49757 -1.50979 7.68673e-22)
(-4.63212 2.55494 0)
(6.43747 2.43747 0)
(6.22919 -2.89187 -3.85007e-21)
(4.88352 -0.0195439 5.55111e-21)
(5.38264 -3.80519 0)
(5.65562 -0.102238 -3.70474e-21)
(8.86525 0.721144 1.83392e-20)
(-0.0701882 -5.19965 6.02984e-21)
(6.22953 2.92509 0)
(6.3476 -0.0369361 0)
(-2.38405 -1.35094 -1.66032e-21)
(6.2273 -0.56419 0)
(6.66378 -0.310282 0)
(-3.82462 -1.07421 -6.3617e-22)
(7.22267 -1.00514 -4.94681e-21)
(6.24802 -1.54279 3.75682e-21)
(9.03297 0.18164 5.54871e-23)
(-1.59528 0.496171 1.1934e-21)
(5.98146 -0.00512467 3.35574e-21)
(5.50589 -1.52151 0)
(6.0442 0.861812 -2.47743e-21)
(5.13454 -1.19114 0)
(6.30472 -0.0111933 0)
(5.98167 0.125015 0)
(6.30387 0.351731 -8.58008e-22)
(6.1092 -0.429868 4.52887e-21)
(8.7796 0.608508 -1.32391e-21)
(5.63026 -1.52794 0)
(-2.32951 0.970007 -2.39847e-21)
(5.31116 1.85028 5.6503e-21)
(6.85822 -2.29269 2.9385e-22)
(7.94951 -1.05552 2.11122e-21)
(8.66928 0.213213 -3.67475e-21)
(6.20923 0.0432766 -4.84911e-21)
(-1.67105 0.191237 0)
(6.08625 0.0503865 0)
(4.29253 0.909181 0)
(4.78235 -2.17153 -8.95815e-21)
(-3.81129 7.94746 -2.40658e-20)
(10.285 3.67493 0)
(6.08007 0.868035 0)
(5.29261 0.679106 7.19857e-21)
(6.26089 -0.0235748 -1.1372e-21)
(5.45844 0.89918 9.10075e-21)
(9.2755 -3.44252 0)
(-2.84739 1.05246 -1.20828e-21)
(6.55354 0.148966 4.69399e-21)
(5.18912 -1.74279 -8.28206e-21)
(6.32925 0.166332 -5.8312e-21)
(6.17554 1.24374 9.18722e-21)
(2.03741 -1.69948 -1.71773e-21)
(4.726 -2.14797 1.54871e-20)
(5.50948 3.38259 4.90887e-21)
(8.48147 1.19608 4.22323e-22)
(6.00415 -0.00547076 -1.54085e-21)
(6.20527 -2.93747 -1.66176e-22)
(9.0627 -4.24877 2.16253e-21)
(3.92821 3.09307 -6.05866e-21)
(6.51495 -3.00609 9.70877e-22)
(6.62419 -0.535584 0)
(4.16297 -2.41492 -1.31172e-21)
(6.41085 -0.0334613 -1.07514e-20)
(7.11025 2.26599 -1.68896e-21)
(5.09423 -1.65481 -7.65091e-21)
(6.7792 -2.20918 -3.48958e-21)
(6.38366 0.0524519 1.06599e-20)
(8.3541 -0.0926826 -6.12617e-21)
(3.62495 -0.311623 -6.92445e-21)
(8.47742 0.918659 1.02334e-21)
(4.46242 -1.22204 -1.77365e-20)
(6.51628 -0.0370394 -9.66357e-21)
(4.45937 -1.38743 0)
(0.837398 -0.317734 -7.72178e-20)
(6.73128 0.0223163 1.13009e-20)
(6.69627 0.709001 -2.88425e-21)
(-0.416555 0.34949 0)
(7.3721 -3.20168 0)
(5.80629 0.649259 8.75609e-21)
(4.15423 -1.25072 1.10428e-20)
(-5.74524 -2.32066 -4.7937e-21)
(8.0661 -2.13734 -1.09565e-22)
(7.84071 -0.42028 2.71075e-21)
(7.72228 2.73358 0)
(5.78252 0.709738 5.0893e-21)
(3.0203 7.52488 -5.13444e-22)
(6.10274 2.13741 -7.17107e-21)
(6.74146 -0.790283 -5.47418e-21)
(-1.59938 0.523814 -1.63174e-21)
(8.78082 0.349121 3.50659e-21)
(8.49436 0.072882 -5.61743e-22)
(5.60586 2.19923 0)
(9.34472 -0.883646 3.74368e-22)
(5.99081 -0.257003 1.23318e-21)
(8.62013 3.55456 3.76393e-21)
(3.87559 -1.91954 1.46604e-20)
(6.69701 -0.839903 8.26937e-21)
(5.95999 -2.25273 -2.74111e-21)
(0.581155 -5.11866 -2.52191e-21)
(7.98868 0.0245781 1.67844e-21)
(6.45272 0.0618999 8.68346e-21)
(-3.79955 -0.433171 -8.56213e-22)
(5.97362 2.00543 1.35786e-20)
(1.6162 1.25706 -9.92162e-21)
(4.7617 -2.29743 -4.47102e-21)
(10.2015 3.36708 0)
(7.80377 -0.765726 -1.72484e-21)
(-4.07954 -4.60666 -3.50763e-21)
(4.86669 -1.10854 1.59556e-20)
(7.12512 0.0306286 0)
(5.35674 3.05695 2.43119e-21)
(4.60094 -1.96865 3.57884e-21)
(5.99253 0.00984953 -1.44735e-20)
(0.188551 -2.24996 4.85905e-22)
(6.65408 -5.31142 -4.57351e-21)
(7.14773 -0.117048 3.25116e-21)
(6.49606 0.167051 1.1632e-20)
(6.62603 -2.9375 -3.65916e-21)
(8.82231 0.866608 1.68003e-21)
(-5.8136 5.64542 -5.24627e-20)
(6.38637 -0.0289452 1.00911e-20)
(6.6726 -0.168611 -3.07699e-21)
(6.21739 0.203685 -3.84107e-23)
(7.53564 0.0883318 -6.49956e-21)
(4.49926 -2.02429 -6.90272e-21)
(8.53075 1.1321 0)
(-2.71606 -6.76673 2.66482e-20)
(6.43043 0.0464351 9.37049e-22)
(8.30004 5.16128 6.76201e-21)
(7.12501 0.139422 4.62361e-21)
(7.70744 -0.676135 -1.93041e-21)
(6.00152 0.0276235 -1.29151e-20)
(6.02865 0.517337 3.05545e-21)
(0.425015 -0.862291 9.58405e-22)
(7.17188 -0.294922 0)
(5.65345 -2.38235 -2.78332e-21)
(5.96323 -0.284508 5.83797e-21)
(5.40404 -2.09631 0)
(6.20162 0.152832 7.10783e-21)
(6.30145 -0.48601 7.66504e-21)
(6.80019 -0.338094 8.504e-25)
(10.6612 -2.84989 7.20061e-21)
(7.45053 -1.4067 0)
(5.43412 0.278182 1.186e-20)
(6.9294 -2.21656 2.83008e-21)
(6.29387 -2.88752 2.93966e-21)
(6.71132 -0.517064 0)
(4.88401 -0.0602197 -1.59745e-20)
(2.02991 4.17622 -9.38969e-22)
(5.76046 2.88241 7.41157e-21)
(4.49967 -1.26235 1.72943e-20)
(7.39931 -0.149639 1.92927e-21)
(4.95538 -4.02521 5.56163e-21)
(6.37624 -0.464284 -6.7243e-21)
(8.78619 0.0843778 1.58451e-21)
(5.66443 -0.14534 -7.5592e-21)
(6.7496 -0.0475797 0)
(6.00793 -0.0147181 -5.77412e-21)
(1.31643 -0.0870011 6.61525e-20)
(-0.545409 -0.598016 0)
(8.04617 -0.0184043 0)
(8.40433 3.85285 0)
(2.49095 -1.04014 0)
(5.94801 0.454017 0)
(4.33119 -1.22195 0)
(11.3703 -0.469795 5.5993e-22)
(9.56263 -0.29671 -7.01213e-21)
(7.03538 1.08946 0)
(5.41529 0.205863 1.74874e-20)
(0.171826 1.86549 1.80975e-21)
(6.05794 0.320868 5.86061e-23)
(-4.3805 -3.51614 -1.57544e-21)
(4.25633 -0.723836 4.08662e-23)
(0.454813 -1.54768 -8.11109e-22)
(5.53851 0.0750801 -3.24029e-21)
(7.81019 0.258134 -3.61967e-22)
(5.9212 0.408226 -5.95839e-21)
(5.74816 -0.0143486 -1.10259e-20)
(5.26485 1.61793 -9.53496e-21)
(6.82575 3.02708 0)
(11.9076 -1.3925 1.05404e-20)
(4.76775 -1.68633 -1.38675e-20)
(6.01905 0.0176283 -1.71788e-20)
(9.05982 -1.60255 5.4306e-21)
(7.30038 -0.0127974 1.0845e-21)
(11.1276 -0.720979 -1.15734e-20)
(7.27634 -0.573245 -5.84374e-22)
(7.52149 -1.48026 -2.65786e-21)
(5.97685 0.223693 6.19816e-21)
(5.5658 3.78702 0)
(8.74949 -2.33414 3.5549e-22)
(5.56026 -0.39932 -2.23606e-21)
(9.02458 1.7721 0)
(7.33714 -2.02706 0)
(7.04385 -3.0772 -8.54991e-23)
(5.49531 -4.97381 8.26046e-21)
(12.3134 -0.574721 -5.40237e-21)
(4.77836 -0.795209 0)
(6.21517 -0.414035 -9.20315e-21)
(5.61047 -0.00745627 -2.08312e-21)
(0.765933 -5.73868 1.87193e-20)
(6.47457 -0.5151 4.22704e-21)
(1.21436 -1.98798 0)
(11.6019 -1.23998 1.25708e-20)
(6.0438 -0.457874 0)
(9.49925 -0.885688 -2.22425e-22)
(5.80287 1.71673 -3.75849e-21)
(6.00602 -0.00899944 2.46215e-24)
(6.21558 1.4169 -1.73309e-20)
(6.28164 2.68515 -2.41663e-22)
(6.24444 -1.78329 8.78911e-21)
(6.25127 6.22984 0)
(-4.76594 5.26909 -4.99609e-21)
(-1.92678 5.57032 0)
(7.18352 1.14414 1.64816e-21)
(1.41644 -6.03019 4.35543e-20)
(8.4456 0.00143666 -3.80624e-21)
(6.0797 -2.30845 2.99346e-21)
(-6.00333 -6.48197 -1.42209e-20)
(5.7315 -2.64661 -3.39519e-21)
(4.87729 -1.68183 -7.99737e-21)
(4.27661 -6.26334 3.62638e-21)
(-3.04193 4.3599 4.09388e-21)
(4.53681 -2.04299 5.6671e-21)
(5.03694 -1.73258 8.58249e-21)
(-4.47293 7.85501 3.64657e-20)
(-2.72641 3.59302 9.91484e-22)
(6.67863 -1.94858 3.73935e-21)
(-3.20151 1.15799 4.59508e-21)
(8.68756 0.151284 9.00747e-22)
(-0.670764 3.09915 -7.96478e-22)
(6.38983 0.949447 -4.26679e-21)
(8.48005 -1.02641 0)
(2.11585 -1.22281 -9.8459e-21)
(6.2259 -0.0303481 -1.13868e-20)
(5.96853 0.111267 0)
(7.13332 1.03381 0)
(-3.0925 8.85003 -1.23664e-20)
(9.10905 -0.218551 -7.82531e-22)
(6.77135 0.59504 -1.11609e-20)
(7.20155 -0.96897 6.47092e-21)
(5.29247 1.59071 8.22064e-21)
(4.93738 -0.0706715 7.23518e-21)
(-0.088082 -6.66213 1.14531e-21)
(5.25204 0.808121 0)
(5.15171 -1.80444 8.08226e-21)
(-2.02284 3.80892 1.89129e-21)
(-4.38845 -6.78891 1.13682e-20)
(6.27989 -2.3196 1.33255e-21)
(8.00156 -3.58362 2.3744e-21)
(5.72093 -0.0181346 3.77761e-21)
(6.64185 -2.04053 -1.32762e-21)
(8.82834 -0.0287268 -2.70044e-21)
(0.837066 -7.61524 -2.07865e-20)
(6.73249 0.56436 8.41721e-21)
(6.01821 -0.151938 4.19128e-21)
(4.42521 -1.36581 -7.09083e-21)
(6.24444 -0.503829 5.54036e-21)
(3.17494 -0.267341 0)
(6.60574 0.942625 9.73804e-21)
(6.0439 -0.0827998 9.48257e-22)
(5.33711 -1.39891 -2.66375e-21)
(4.50635 2.87918 -5.69955e-21)
(6.57373 -1.93263 2.95754e-21)
(6.26922 -0.0104165 1.73884e-21)
(4.77369 -0.4667 -1.13038e-20)
(9.25599 1.41045 0)
(6.13827 -2.26506 5.3062e-21)
(6.34982 0.191505 7.88383e-21)
(8.60688 -1.19227 0)
(4.92938 -0.669859 6.29634e-21)
(6.3675 -0.523616 0)
(4.09971 2.6967 1.98341e-20)
(7.91663 -0.00519181 0)
(8.41742 -2.33595 0)
(6.45148 0.0822724 2.49089e-21)
(6.75673 0.434066 6.3636e-21)
(8.17722 1.30635 2.29897e-21)
(5.85283 -0.00871948 -5.18812e-21)
(4.43423 1.52261 -4.99966e-21)
(5.98302 0.0667178 -2.57282e-21)
(5.99253 0.485009 0)
(-3.42103 2.98577 -2.38231e-21)
(7.01479 0.450396 -5.68119e-21)
(9.4801 -1.21186 4.59118e-22)
(8.51244 -1.06039 0)
(7.19008 2.25489 -2.08757e-21)
(5.12159 2.9731 -1.07393e-21)
(8.49986 0.0233926 3.98753e-21)
(-5.03812 -4.50767 0)
(-3.70769 -1.5327 6.54267e-21)
(6.03102 0.245974 0)
(8.75772 -0.115788 1.37093e-21)
(1.73758 -0.923361 0)
(4.03621 3.17859 0)
(4.67236 3.89676 0)
(7.66169 -2.51606 0)
(-2.92186 1.62447 -9.04328e-22)
(-6.08951 -7.041 -4.29254e-21)
(6.10729 -0.419708 -6.78858e-21)
(4.37446 0.676154 -4.70076e-20)
(4.77873 -2.09753 0)
(-2.37427 1.09006 -3.09347e-20)
(1.00811 -0.571364 -5.83105e-22)
(5.83375 -2.70044 0)
(5.39527 -1.98751 -8.37888e-21)
(6.32286 -2.95565 6.6225e-23)
(6.36918 0.891028 1.13382e-20)
(10.0487 -2.5057 -5.55562e-21)
(5.74928 -0.058575 0)
(8.41374 -1.97129 0)
(9.41832 2.62874 8.71601e-22)
(8.45041 -3.62566 9.77482e-23)
(3.2345 -2.96725 2.85228e-22)
(-2.6698 8.10258 -3.79355e-22)
(6.00101 0.00176044 4.28823e-22)
(7.68988 -0.523402 -3.64518e-22)
(5.98462 0.221835 8.85047e-21)
(6.0546 -2.34993 -2.71143e-21)
(6.80613 -1.7019 0)
(-2.4948 1.2791 0)
(8.80555 0.73349 0)
(2.09181 1.73659 0)
(6.08209 -1.26468 3.54942e-21)
(8.29221 0.442596 0)
(-3.33174 0.878787 1.29807e-20)
(0.341916 -0.992898 -2.95969e-22)
(4.96577 -1.7761 -1.29414e-20)
(0.657439 2.91646 -1.72032e-21)
(-3.31328 -6.69185 -1.37739e-20)
(-2.94879 2.03764 -7.59264e-21)
(6.64894 0.0605121 1.37391e-21)
(-0.803628 -7.13005 -1.1658e-20)
(5.89276 -2.81967 -3.74045e-21)
(6.56918 0.00953883 0)
(8.16754 0.210166 0)
(0.855904 -2.19449 0)
(7.73383 -0.760581 9.33647e-22)
(-3.93817 2.7395 0)
(5.26875 0.802186 0)
(5.99887 0.00459417 0)
(6.28342 -1.52504 3.56795e-21)
(6.06696 0.293768 -1.01453e-20)
(3.65394 -0.0918205 0)
(10.6251 -0.171258 -1.40533e-21)
(5.90848 0.18788 -7.26448e-21)
(6.1542 2.0513 1.50028e-20)
(5.88464 -2.66619 4.44308e-21)
(5.39474 0.987833 6.8199e-23)
(10.5954 -5.27752 -8.13174e-22)
(6.48275 -2.35066 -2.33035e-21)
(8.83633 -2.22026 -1.52154e-21)
(6.6785 0.462501 -8.65308e-21)
(3.17266 -4.0638 -2.67881e-21)
(5.81122 -0.247448 -7.08603e-21)
(6.32654 -0.022826 0)
(8.08648 4.89011 -4.99802e-21)
(5.99792 -0.073793 7.88513e-21)
(2.17502 6.61181 2.97743e-21)
(7.23482 -0.570061 -1.78985e-21)
(4.22128 -1.29256 -1.20124e-20)
(6.70945 0.386751 1.47337e-21)
(8.0584 2.25763 -1.81143e-21)
(5.99106 0.0753746 0)
(4.09745 -1.87031 -3.36702e-21)
(5.41211 -1.58574 1.70263e-21)
(9.82983 -2.46171 2.58785e-21)
(11.6135 -3.73376 -5.96123e-20)
(6.27706 -0.0452618 3.7072e-21)
(8.71113 1.12187 -4.471e-22)
(7.42765 -0.0917268 -1.45813e-21)
(8.59601 0.615313 0)
(2.79759 3.11498 0)
(5.5016 -2.5973 5.86362e-21)
(0.922764 -2.08124 -5.24831e-22)
(9.50362 2.20641 1.01303e-21)
(6.00852 -0.0799158 1.55632e-20)
(4.1506 -1.96375 1.01936e-20)
(4.86058 -0.139594 0)
(5.74099 -0.262251 0)
(5.71804 -1.44698 -1.19481e-22)
(6.21631 0.0149931 3.84196e-21)
(5.46844 0.956412 1.33195e-20)
(6.52083 0.860319 0)
(6.76913 0.0639106 0)
(7.72654 -1.66091 2.23121e-21)
(6.62686 -0.504146 4.84002e-21)
(1.11269 -0.427885 -9.26015e-21)
(7.16917 -0.745982 0)
(1.05568 3.27415 2.53674e-21)
(9.73408 0.810171 4.37961e-22)
(-3.91213 -4.26654 -3.63997e-21)
(6.37884 -0.186554 -7.53271e-21)
(10.8867 0.0791503 0)
(9.12696 -0.188213 5.10457e-22)
(-4.27852 -3.14241 -5.75247e-21)
(0.208223 1.33156 0)
(0.514578 0.571502 1.22548e-20)
(5.89618 -0.0973023 -5.19431e-21)
(4.58984 0.748118 2.87302e-23)
(6.11217 2.02199 1.62937e-21)
(4.63968 4.34639 -1.0524e-21)
(6.50183 0.0491811 0)
(4.23096 -1.73569 -9.76071e-23)
(3.71359 -1.68534 -9.29773e-21)
(-0.600107 -0.904032 -1.36057e-20)
(5.92094 0.427656 7.05568e-21)
(6.14049 6.54517 2.4638e-20)
(6.24324 0.00529209 -1.7317e-20)
(6.6862 -2.33643 1.47498e-21)
(6.24759 -2.39105 -3.05943e-21)
(6.17254 -1.44472 0)
(5.5128 -0.0592226 5.86e-21)
(4.47508 -2.0904 4.56568e-21)
(6.98481 0.0176523 -7.33154e-21)
(6.03821 -0.0684726 -7.03998e-21)
(8.72737 -0.133003 -1.35329e-21)
(5.74161 -0.899875 1.4202e-20)
(8.1476 0.0859208 -1.02632e-21)
(5.70847 -0.226018 4.17341e-21)
(7.782 -6.00241 -9.6917e-21)
(9.01736 0.0725364 -6.17433e-22)
(5.96775 2.17902 1.15921e-20)
(-6.18875 -2.42964 3.79528e-21)
(6.16108 0.0273424 0)
(2.23872 -3.68375 0)
(11.3454 0.267858 0)
(4.93687 -1.68828 1.00435e-20)
(6.09429 0.0296703 -1.12201e-20)
(5.58285 -0.00602872 0)
(5.45372 -1.41612 -7.77476e-21)
(5.58671 -0.0611071 0)
(6.08841 -1.15229 -5.89963e-21)
(9.50784 -1.11302 -5.22592e-22)
(6.70204 -1.59731 -4.24644e-21)
(6.59038 0.0481989 0)
(6.04755 -0.168076 0)
(8.2542 -1.12087 -1.76237e-21)
(7.0295 0.933321 -2.9254e-22)
(7.91246 0.137981 -2.09243e-21)
(5.25385 3.19251 -2.9168e-22)
(6.46106 1.41746 0)
(6.31077 -2.26049 -2.17968e-21)
(-0.98372 -1.07447 0)
(3.12352 0.825839 -7.43565e-21)
(6.31799 2.66184 0)
(8.69151 1.05475 8.94903e-22)
(4.4663 -1.16741 4.61856e-21)
(5.32802 -0.954818 4.6227e-21)
(6.31013 -0.784767 2.1949e-21)
(-0.109812 -0.356887 1.15998e-20)
(6.57516 -0.626521 1.20863e-20)
(5.94935 0.464352 -6.18822e-23)
(11.2465 -0.517845 1.42117e-20)
(6.99369 -1.25442 -2.07476e-21)
(-1.43889 -1.50573 -5.61721e-22)
(6.93517 1.36913 0)
(6.04041 -0.0341172 -7.55597e-24)
(5.55463 -1.57459 0)
(6.26062 -2.04835 3.04018e-21)
(6.39338 -2.23305 -1.09882e-21)
(5.77424 -0.83529 -4.6232e-21)
(10.1867 1.19117 9.61916e-22)