/*--------------------------------*- C++ -*----------------------------------*\
| =========                 |                                                 |
| \\      /  F ield         | OpenFOAM: The Open Source CFD Toolbox           |
|  \\    /   O peration     | Version:  2306                                  |
|   \\  /    A nd           | Website:  www.openfoam.com                      |
|    \\/     M anipulation  |                                                 |
\*---------------------------------------------------------------------------*/
FoamFile
{
    version     2.0;
    format      ascii;
    arch        "LSB;label=32;scalar=64";
    class       volScalarField;
    location    "3.3";
    object      p;
}
// * * * * * * * * * * * * * * * * * * * * * * * * * * * * * * * * * * * * * //

dimensions      [0 2 -2 0 0 0 0];

internalField   nonuniform List<scalar> 
13486
(
25.0262
24.3055
7.61957
-65.4244
-11.2825
6.36455
-25.9256
0.901684
10.2202
19.1411
-13.2465
8.61667
25.8433
8.64685
-11.5117
19.6547
-10.4557
-55.8238
7.46983
23.1894
-94.1075
25.3997
23.9722
-70.6954
16.8676
-66.5834
-18.7388
-1.84638
0.432572
3.25935
-152.573
-5.09911
-13.8793
3.01184
1.0886
0.990678
4.14457
14.5764
-1.44529
12.2316
-35.9092
27.1548
2.36005
16.5384
16.4717
8.89814
-19.5793
1.23291
4.12138
-1.06363
18.2824
0.271415
8.95914
15.6095
-79.368
-9.67605
3.88669
0.0765355
-15.0378
4.24107
-11.8797
4.23051
-5.14979
-97.9098
-87.435
4.2129
-59.78
27.4489
9.8457
3.6209
-58.1785
-64.069
14.7501
-45.7342
4.15274
3.51291
4.06287
-12.7997
-12.529
-157.158
0.578217
25.4924
-4.66822
8.33742
25.0052
27.1373
-14.6196
17.9993
20.6546
22.6087
-0.784048
-2.58852
22.6856
23.6089
9.61042
0.995373
-18.9016
-52.4308
12.337
-12.9685
0.962119
9.24319
-55.387
0.374189
29.9266
-13.9662
18.6438
-3.62913
-14.2034
-6.64841
6.37289
-16.1426
15.6129
3.34527
32.4678
6.75369
17.3595
3.6932
14.9354
4.04093
-49.5463
-10.4625
11.6057
-2.71312
6.16279
0.688377
3.90379
11.3958
3.83482
-45.0913
0.781121
-17.3409
-52.0144
-27.9293
18.4552
20.0771
39.3337
-5.98728
3.95291
2.92364
-7.4769
9.51928
3.09758
-134.696
3.98313
-10.2464
11.5499
40.3196
-1.76108
-0.441757
15.4763
-16.8114
0.499951
26.0852
12.5209
7.56503
-13.0201
-42.6706
10.8496
4.42394
1.37616
10.8603
-11.0046
26.5196
0.0789797
5.81036
10.3899
39.4603
11.2161
-27.7254
-54.3425
12.5146
16.7391
1.44148
0.821378
-42.9433
8.87337
-8.27156
18.4999
3.6124
9.91186
3.40947
1.22603
-11.7852
9.74179
-1.92009
-2.00506
2.26488
-36.2971
9.52476
4.07758
5.92029
-2.5534
31.7893
-4.55282
-13.69
-61.9626
1.33967
18.9428
6.59168
-167.617
11.2112
14.5098
-18.1776
5.01677
-4.35925
-80.8688
17.7227
-2.3091
9.59565
-0.0814516
-46.8867
22.9445
18.68
6.17478
3.54156
0.14699
22.6001
20.5311
-7.8887
-11.2237
-1.88528
3.7419
1.14981
11.6012
22.0144
4.2224
-164.732
-12.7607
-15.1232
9.78066
-71.4429
-8.48691
28.3347
-82.4582
20.3769
3.3444
6.1838
20.8827
4.45154
-17.7921
16.6913
3.78225
18.484
-3.50403
20.9266
6.3729
-17.7702
-32.3126
17.3247
-25.2592
33.0528
4.91929
-5.57661
-48.3623
-35.1515
-3.97364
18.2073
-38.1168
-17.2903
22.2814
-1.41546
-11.2028
-35.5541
-12.0838
-11.7509
-8.66474
-146.983
14.9126
-15.4668
27.5368
18.7896
-0.651394
9.91877
22.1824
-16.0247
-34.4647
-99.2842
-8.76426
12.5904
-100.54
8.2507
19.1172
-53.3118
-8.81886
-19.9764
-6.0436
3.26592
12.1015
15.1344
-84.1075
3.62153
8.95785
18.4288
3.79993
3.0072
0.962732
10.6875
19.0763
-32.0295
-12.0498
-85.9123
12.1643
-5.27967
4.08527
-20.4613
-78.5238
6.31034
-26.4624
4.09261
-11.3823
-66.0295
11.6158
-15.0653
-23.9874
20.3636
3.56123
20.8219
18.0651
-1.20469
4.1443
3.14486
18.4846
24.0924
38.5381
-1.10399
-1.60396
7.86443
11.4815
-3.3266
18.0837
-4.02879
-2.82298
28.571
-25.7774
8.01063
32.8926
-15.7715
16.4
-1.67396
-4.90849
24.0214
-4.51477
1.06479
-12.0557
1.23143
4.30379
31.0159
-8.22077
3.19721
6.08024
11.6015
10.4411
-19.0452
18.9539
2.66597
-39.5676
3.93744
-23.4899
-36.6196
7.23973
1.75323
21.6744
18.8206
1.47052
0.12469
3.59085
-26.7012
23.5103
4.3074
1.87474
4.76763
12.6842
-21.5786
7.7682
18.287
18.4855
2.04482
-25.5543
-16.6524
14.3294
-6.01411
27.7251
27.8584
-28.0057
-26.6979
9.10441
16.2486
-19.0695
-108.969
22.3141
-1.82413
13.9453
21.6736
29.6213
3.92152
-64.7969
-21.7603
-13.7031
-6.71569
-17.6979
18.1477
11.5751
-74.0435
-24.5118
10.2092
23.403
-8.42002
5.7724
23.8676
15.5607
10.4742
-4.15379
19.2223
18.4663
31.2177
-12.47
-11.4464
-65.7959
4.33026
18.5554
-55.968
31.243
16.7989
2.95547
2.96381
11.2639
19.2741
-18.8689
10.9872
25.4577
11.7714
13.7751
13.1557
-16.1087
-18.3583
28.0832
3.23951
1.68339
27.0465
-34.1319
-1.14141
-25.0818
-4.49378
-0.53748
16.5897
30.2725
25.7133
-17.6597
4.08462
-11.3052
16.6308
21.0631
-1.21403
2.21276
18.6255
-24.2135
-47.5592
-65.4509
-12.4856
12.1223
19.6315
0.979688
11.0264
-78.5133
19.8181
0.862171
36.329
22.3443
13.2668
-1.41182
1.56323
1.01222
32.651
2.78297
3.9612
2.67076
8.11762
-19.9141
10.8076
17.0705
3.36876
4.34931
24.0886
-5.7199
-11.1529
16.4456
-116.981
39.1101
16.544
18.3677
19.4373
-39.348
9.10867
33.9237
-14.7856
23.7114
-29.7838
11.9289
-143.341
-148.5
2.51841
-16.7055
21.2162
6.45175
-25.9841
-4.71251
5.7594
29.5704
16.6201
-21.2479
7.14277
4.76032
4.74874
-12.553
18.3081
-63.9522
27.5482
3.95203
3.52425
27.4757
-5.90997
0.98314
6.51888
-162.489
-29.3817
6.39218
-8.87129
12.025
22.721
-13.5366
-17.077
-14.8491
1.15433
20.4074
11.4292
-12.9285
-53.6423
-56.5876
-45.4464
1.27246
-91.104
2.08725
7.12988
28.0961
-136.511
21.675
-8.25461
-18.0012
0.00553843
13.4175
-10.2046
16.7984
9.06428
-11.8735
5.12527
14.6875
-22.1282
-13.0515
18.3975
21.5342
13.7811
25.4632
8.92061
16.6262
11.2794
18.1434
3.49221
20.4743
-19.1748
18.1753
6.00584
3.92598
-10.6724
18.0811
-34.8469
10.1349
29.6946
24.8612
-227.612
-50.261
13.3891
9.80769
12.4268
20.4466
-24.4162
-14.4955
8.26679
23.4851
10.4636
11.2576
-106.946
25.0644
19.3997
3.75975
18.5687
-2.79778
-121.418
23.8806
1.15538
11.1225
1.1692
13.0917
-2.30415
24.5427
7.06923
7.25702
7.99901
12.3787
-5.79204
30.4737
12.2009
30.1289
-164.19
16.1057
1.35945
-41.6088
-9.12843
17.1103
32.5399
-94.0682
-6.89945
-2.63532
-9.05049
17.1848
-72.2571
7.76576
11.0397
-12.8876
-4.42728
-22.7128
13.1415
8.25075
19.2985
0.732065
27.8852
11.5093
4.59448
-19.1038
0.317712
12.4173
-9.51945
9.96656
-16.1035
20.1984
0.119633
4.07039
-12.7492
27.7063
1.07088
-8.81339
27.0034
18.2774
-14.3551
-141.326
5.23848
9.35782
5.27443
3.69699
-207.651
12.9796
12.3986
12.175
10.0633
27.577
3.33288
-74.1588
18.0657
-44.9011
5.63091
-0.599253
17.2255
14.6592
-13.46
9.04496
2.0573
11.7822
20.347
12.2614
11.6798
8.4731
-41.3963
-3.53796
22.6618
4.70728
3.90982
11.5826
28.0205
-37.1902
7.12051
30.0907
1.78132
-25.6254
15.4562
-17.4351
21.8227
3.94468
18.5678
-80.6555
-29.7823
-66.1884
0.572687
-10.2055
15.8855
31.4288
22.8478
-18.3114
3.6858
23.0006
-24.4521
14.187
-11.6813
32.6202
-13.5015
6.67458
-1.6635
16.4026
20.6057
19.5714
-13.5957
-97.9361
26.9642
18.6874
-17.5327
12.7089
-43.1252
4.58028
1.08641
16.0421
-22.4802
-16.6179
22.8496
-22.795
-6.67705
0.180314
-29.9057
18.434
2.41366
17.1606
21.7422
-98.9338
10.0511
-15.1796
-93.1988
10.8963
6.93978
1.49513
18.5464
10.3559
1.70108
13.9334
-144.018
-76.7487
-54.843
2.54261
-86.3306
-67.2579
1.1738
-27.4595
5.27377
26.1123
3.91315
-62.2367
27.0076
24.6714
-233.38
-40.3563
9.08767
-42.1794
4.43
-27.0452
9.64446
-9.70137
-10.2634
13.9246
16.7743
3.07893
-102.07
-33.259
6.69772
5.56851
19.7017
6.89768
-70.8862
22.7594
23.4925
-10.886
-28.1729
11.5326
-23.536
8.04263
-1.84921
2.93178
-65.0036
6.90531
18.843
30.4415
16.8186
10.3861
7.63887
18.5186
23.3178
20.0632
10.2077
17.1216
29.1176
-22.8096
2.10764
10.2532
3.12965
27.6636
10.1646
24.579
7.5622
-26.529
8.63664
7.1592
-4.14625
19.6823
27.69
17.0232
15.2094
4.57425
4.79084
5.50249
-10.0576
-3.11201
13.4796
3.85713
-53.5334
-13.9166
15.2672
2.56285
-32.6486
-0.0536745
17.4814
-3.59711
-16.8825
-60.714
18.3423
-158.879
25.1318
-174.854
-35.4197
13.251
20.8456
4.09099
9.8902
-31.6962
20.7477
-10.4508
-7.79923
-95.6618
4.11925
-96.3272
18.5735
3.80076
15.9658
2.87913
8.47904
-19.7492
3.68735
2.60765
16.98
-4.71371
-12.519
-89.8215
25.1468
-17.2327
-85.0846
-14.1992
16.9687
-41.9971
3.26414
8.97228
-7.96742
-22.7172
-1.00118
-59.1583
22.5094
18.6136
14.3359
14.3821
3.70141
27.6758
17.9056
7.91776
13.8699
20.7198
-145.631
-7.67422
-25.2245
7.51244
4.09149
20.7965
13.3775
-44.7324
18.787
-64.1585
5.14511
31.997
7.12794
-5.95615
16.6501
8.00461
2.60989
-19.3816
-81.258
16.8809
3.82086
1.98478
3.35618
-2.24868
16.7172
-15.1486
0.267071
18.7888
8.93686
28.4015
21.2717
19.8894
8.60131
20.1544
3.66986
7.03931
-1.81384
12.6666
-72.3237
3.63055
1.30356
26.6434
-13.1905
15.6906
-18.8146
-35.9957
-59.5213
-75.0617
3.25156
19.6367
2.31799
-3.36019
-26.5258
18.4387
30.565
9.27586
-31.9272
16.2735
-123.151
16.3518
4.66312
-2.92008
15.6607
-1.92697
27.605
6.77656
18.5237
2.55545
20.9013
4.41828
21.4778
3.94184
-21.5209
9.16064
-83.4488
6.61946
-24.7524
-57.1375
25.6341
18.4302
22.1171
22.285
22.1872
17.2361
5.44125
9.87932
18.5286
18.6288
3.18199
4.15155
-2.79545
10.5414
0.348312
11.5614
-28.1272
38.5446
1.02711
3.51341
30.5317
24.3295
4.30378
-87.8265
13.1058
15.8074
-43.9663
7.42159
-25.2518
3.84366
18.4997
20.9714
-2.75271
10.9124
20.7443
0.310063
1.64414
22.112
5.4221
4.09896
-12.4099
8.36726
-3.84491
19.6609
25.8269
4.12237
-161.904
2.91366
-2.19338
2.35623
8.81466
27.0914
1.36002
34.9386
15.9304
7.73244
17.9639
-14.2267
-32.9018
-44.596
17.0074
-2.50497
-26.9121
-183.148
14.5423
17.2352
-0.177114
-5.34343
-40.4881
-7.10464
-7.7317
2.67109
7.70566
4.32746
18.7757
19.133
21.6389
11.7747
4.23055
-13.7909
-4.34225
8.73964
-217.714
19.7449
7.31705
-194.985
3.71758
4.1266
-10.8929
-14.0432
7.30768
16.6459
4.92742
-2.13371
1.91607
-1.24217
-18.7752
11.4255
-22.5022
10.9446
17.274
16.7203
-27.2987
18.3618
3.569
23.0006
14.1752
15.2874
-16.5293
6.93052
27.6309
34.6647
10.0225
-12.7573
17.2775
6.76606
27.8217
-3.25112
-11.4407
-11.9833
9.70603
5.44307
3.39859
18.3763
15.4391
-17.6032
-27.9508
-0.199085
12.2162
31.868
-15.5412
18.2651
-15.019
24.9582
26.6227
3.43048
4.02084
-230.168
27.03
6.80033
34.0625
-0.310717
-2.80196
14.7005
11.2185
-11.3693
-25.1642
-38.3964
21.8196
4.82028
-11.2479
24.815
23.3178
-4.19997
-13.1173
0.484503
11.5643
12.795
14.4978
20.2854
6.86348
-13.9885
22.2817
4.36388
-7.35898
-0.200792
20.8703
16.1423
-32.2685
-75.4186
-5.02092
18.2563
26.2649
6.44213
-6.78763
-4.59514
32.104
-14.0843
-6.72147
28.0599
18.2716
9.89062
5.62794
-63.1412
-5.18493
35.7051
-15.3001
0.298492
-37.0841
8.71541
27.0372
-43.4381
-9.82121
2.80403
-42.1679
-15.0458
-24.2634
32.7615
19.6331
-13.4146
-41.1978
-4.23324
11.4032
4.10582
34.7093
-4.66949
-2.61754
18.3301
20.0239
-33.3907
0.0390886
-0.763498
15.5331
35.8875
-0.38878
2.39217
-93.6814
9.93708
-3.05574
5.92394
3.90937
22.4884
20.1355
19.4022
-172.392
-127.865
4.84034
9.46699
18.48
9.11878
19.4898
32.8482
29.6292
21.7164
18.3301
22.2123
-2.60217
19.938
2.49877
28.9541
19.6753
8.61804
21.6072
15.4734
0.160059
6.42387
21.4201
-11.138
8.92123
-15.6863
-6.35308
6.17804
16.3081
2.31708
0.864831
27.3366
26.8429
-0.945999
-26.4682
8.63395
-43.6855
-4.51931
19.8293
22.7954
-26.109
18.773
8.83034
4.21368
9.57631
-15.5703
-220.591
4.08531
35.5635
-15.0168
2.15431
23.5737
5.85757
3.85129
14.5616
9.77431
17.8493
-20.5878
1.81275
6.95792
0.916467
-4.43827
-1.17313
30.9666
24.1601
15.1684
41.199
26.6371
-7.35429
1.9076
-91.1207
0.332748
27.3697
-214.678
13.143
6.83767
-15.1297
-6.50089
17.738
-73.4336
4.70443
19.0244
36.2365
-18.6199
5.07361
9.26756
11.7097
7.62444
-94.6605
26.5375
19.2049
9.28397
16.9346
24.738
-18.8218
-17.661
29.4618
3.88606
33.7876
-61.755
-2.66113
-54.699
-13.2368
-32.8014
-0.231654
-7.47148
12.6313
-17.6487
12.6108
-74.5515
0.225915
-99.6899
-28.2596
-1.84649
-7.01106
0.703518
-0.410747
-76.7694
-10.1106
7.97952
8.7326
29.9772
18.5447
1.2145
6.60883
40.7765
12.7905
-20.4351
1.24424
7.34535
17.9966
9.34463
22.3414
-4.65078
-4.75507
-0.91769
0.240983
8.6067
24.6917
-27.1254
-12.3396
-16.8878
30.0453
-51.0806
7.25583
19.9867
-61.4902
2.76605
3.24617
-14.5491
-16.5231
4.56171
17.1891
14.4312
19.6441
-7.33475
-27.9454
-7.18904
-8.91011
5.72506
3.85973
0.883397
29.1089
-33.8898
-56.1171
-17.9512
-55.6262
24.5287
-91.9619
29.9495
-10.6707
-29.8929
-3.09072
-13.4215
21.2646
5.91528
25.2612
1.65865
33.9841
-14.0153
19.3098
-26.0965
17.2883
2.18053
26.7464
22.3399
1.51353
16.9016
27.3572
11.9862
17.1793
-12.3956
-167.969
0.916959
-13.8857
-11.8982
-6.28286
-5.00829
7.77986
-15.8552
8.88224
4.62847
2.11561
-3.2548
-0.684959
28.8851
9.2933
1.34136
11.313
18.5508
-24.7415
1.0594
12.5334
2.89059
7.15838
5.25261
8.46626
18.5531
18.4776
-32.5139
19.5432
21.1494
14.2244
17.5102
3.77749
12.2903
7.5412
-4.24874
-73.5688
-96.6339
-7.07396
-64.3348
0.908277
-5.25283
3.69841
-24.5221
-1.67777
-16.8165
4.73665
23.4319
13.2378
-11.8714
19.6656
39.8042
13.9438
-84.5399
14.8783
10.5353
8.61571
0.797796
9.36271
-62.8792
9.18093
19.2598
-7.20942
26.4296
0.592973
18.4581
2.1144
1.83389
-54.4196
-10.4658
34.6982
-70.8371
18.6219
18.7113
22.352
8.84122
19.1488
9.18861
-50.6306
11.6469
-18.4019
-24.8802
19.7204
18.2949
-7.20064
14.1148
22.4476
-38.5035
-71.4329
3.96379
3.58421
19.7201
15.2425
21.1836
5.00032
9.98758
-16.7164
-2.0553
23.4781
21.1777
33.5533
6.81665
-7.31603
-64.0822
6.60311
8.83198
8.84515
-17.4803
-78.9861
2.89345
-68.2391
-13.328
37.6548
13.8599
-35.8088
-142.932
-37.0497
-22.0702
-14.5356
-47.3746
-12.4698
23.7236
15.1389
-4.40773
33.0921
1.31072
-11.3969
-51.1494
-24.9678
12.1628
-23.5348
12.667
9.69655
-11.4666
16.0765
-83.6807
-21.4662
-177.022
21.7762
-14.7195
3.28038
-14.6379
18.759
17.5675
-49.0562
20.1969
16.1979
24.1554
27.465
12.2581
10.5425
36.1018
-16.3137
7.05035
-30.8113
-50.2674
24.1925
-90.4757
29.1668
14.7293
-4.84897
-51.5659
-24.8431
20.9356
-107.909
-28.306
10.6066
5.9622
-44.7285
16.1106
10.4985
0.816848
30.0626
-29.9373
-59.2759
18.5569
7.98658
19.3685
-21.2371
39.5767
2.23876
4.64189
19.3831
-3.23368
18.5236
11.0143
15.4319
12.2316
-35.0881
-5.28747
11.9457
9.04312
-82.2421
1.84722
11.0615
18.0127
19.771
-73.6767
7.55709
-15.0215
15.8349
2.1331
-75.8753
18.7495
-189.566
18.2622
19.6785
-10.5673
25.5266
-61.083
34.351
13.6141
-17.6651
-1.19261
4.13145
20.2364
20.8175
-22.3724
19.9962
19.8018
-13.2139
3.22495
9.1089
7.7027
-13.8523
-12.65
-6.74994
-184.023
18.7521
-64.3458
-56.342
26.743
22.543
20.9927
21.4472
-58.8171
14.8706
-18.6119
8.9111
15.4221
-74.9953
-80.6134
29.5212
3.29272
-54.8979
-10.3723
-24.936
-73.7753
18.6906
-11.6395
6.5618
20.952
-1.27693
18.5165
-22.9888
4.7934
31.9306
-16.5256
21.0328
-1.12444
-68.6031
12.5964
8.70992
18.2329
32.0271
14.6266
4.4857
33.5301
18.8815
23.3752
-9.85041
-70.7479
-7.81473
-6.32729
-55.7128
-9.38676
-4.46136
-9.79262
5.07389
6.88756
-5.93815
-1.31919
-69.2512
-2.92741
22.1283
-12.8465
8.25245
16.201
18.5093
-29.7076
3.30995
-49.5319
-15.593
-27.4084
5.95549
22.1808
-44.51
24.2399
-14.7028
18.5526
-8.32276
4.2053
-32.2178
14.8358
15.6245
11.5224
7.87542
14.4716
-73.548
21.5653
26.2111
-31.7667
-30.7256
-54.8496
19.1632
9.00306
-18.4705
-8.35951
8.23637
4.44554
2.28719
9.20492
0.222977
-2.00903
15.6247
8.68788
3.37101
-47.9687
24.2127
-37.657
16.3735
0.567623
18.3277
15.6396
15.7341
9.13582
-45.9673
-82.6438
3.83765
-44.4107
-80.1501
-55.1179
-9.53097
-71.9712
18.3235
7.48764
18.5545
-103.377
-78.6197
-10.0101
2.68292
15.6345
-17.2242
12.459
8.54946
-69.4173
-56.9295
-37.645
7.38092
18.8837
3.59062
10.0306
-35.6657
12.569
-52.3896
-2.30711
-12.1256
20.1456
5.49867
3.23112
18.0195
11.4597
17.2797
25.6427
26.3437
-17.6389
4.63256
-80.4404
5.07909
16.2423
8.38527
-38.6106
-96.3268
-14.3267
-4.66742
6.83773
-16.9564
35.7796
-15.4955
15.4456
5.81312
-40.5958
0.604119
5.17873
-99.0551
9.8632
11.1462
19.407
3.97796
18.605
-10.6267
-19.0204
-84.3866
-15.6924
-94.3123
15.0719
31.5065
18.8093
-11.8654
-32.8577
19.1415
-19.3115
-86.65
-12.6377
-5.58511
-61.8522
-18.9424
-84.0955
-3.36412
7.77671
6.43708
-4.05328
8.55107
20.3764
-1.79361
-7.19395
20.8147
1.39007
-10.9333
3.10977
5.20465
-9.44724
33.7318
-8.51803
6.96794
-3.80621
-0.0160431
-1.73536
10.4638
-13.2655
3.37773
0.374621
-5.47681
5.33956
-28.7348
21.7286
9.60964
11.0225
-116.09
3.29683
32.2836
-79.0044
15.115
15.1483
11.8882
-1.39817
5.43231
-69.3107
25.9424
18.9541
16.9878
12.5855
-62.8614
20.7811
10.0636
26.634
-26.2319
19.3676
21.7213
18.6978
8.77317
-13.5223
12.5024
-26.0599
0.611473
14.743
17.3515
9.36081
24.0157
10.3213
26.5864
-3.32228
16.1601
7.04327
6.17589
-17.7306
18.6515
1.91306
15.2911
33.6929
19.4212
6.94145
-1.87353
5.33893
18.489
2.83261
-12.1077
7.6814
4.52288
21.165
-45.217
25.0382
11.6478
40.783
28.6264
-3.80523
-7.54233
-18.8216
9.12197
29.2082
11.129
7.60073
-16.462
37.3871
16.2718
7.01826
34.665
-0.673343
17.5566
5.11091
14.8481
3.67006
11.6378
14.575
19.7356
0.351428
-7.76329
8.22402
-33.4973
0.999881
-34.0141
1.89269
27.8798
23.3369
3.50988
-23.0805
4.38569
17.1719
8.923
8.95915
15.9922
-69.3826
-44.5204
-95.5041
19.6275
-10.4771
-150.182
21.7786
0.49463
5.39729
-2.23636
32.553
-72.4674
24.2493
-25.4174
34.789
13.1875
-12.004
4.16002
4.65849
9.95404
18.5836
12.1604
-138.883
-11.3961
-158.663
21.5713
5.79354
8.21199
-70.2802
-100.456
-24.3578
14.9124
-12.0125
4.44244
3.93164
18.8439
33.7203
-32.0879
4.87536
8.83333
-91.59
14.6552
1.21349
-4.97116
-119.619
-42.2415
17.9208
-214.931
-47.7522
10.3294
-13.7179
-89.4
9.88704
17.842
15.9892
18.1733
32.046
-13.2191
36.1946
-34.5125
33.2095
-26.1944
-1.95928
30.3324
14.2003
-164.686
5.96026
-0.0995457
10.1923
-88.0221
-14.471
10.3141
-2.66914
-9.8267
1.02369
-39.5078
13.5588
15.0496
-47.5186
13.9381
-8.69493
-0.660559
-76.8092
2.96077
-21.1069
-85.1307
-6.95619
30.9952
3.7792
31.9662
6.51355
-17.6524
14.0532
-1.11887
4.37358
18.1777
19.053
35.2216
17.7771
20.4925
-11.5164
-29.731
34.1404
34.0027
20.8736
0.813755
-55.8997
-25.7093
9.45054
-3.9818
-2.62015
24.7021
-198.551
3.58115
-12.216
32.6497
-2.44642
9.95839
-91.7382
6.65342
24.2713
38.5758
36.1923
11.2149
14.9178
-16.2852
-22.0844
16.834
36.826
-47.5612
4.07175
-0.845785
0.547021
9.98226
6.1012
3.42843
8.95721
9.132
6.80906
3.91569
12.8961
21.7515
-25.3767
16.1064
-100.349
2.88481
28.5202
-34.2139
-14.8009
-28.5656
14.5436
15.9485
-43.9708
-30.8494
4.86661
3.82168
39.6195
-50.2077
-6.7897
-92.2487
3.99819
-47.5101
-28.0359
-51.1995
-11.738
3.31657
-6.16818
-0.227502
-11.6102
15.5813
5.37807
9.48503
38.3792
10.2586
8.13412
-49.2321
10.7521
-25.0887
8.16786
27.2814
17.2046
8.23353
-93.6606
14.6161
17.2343
-84.5544
-14.8515
-7.52614
27.421
-2.49539
18.4415
8.65257
25.4435
12.7846
-107.646
-6.15634
19.0818
-0.160456
19.0138
-0.777991
35.1842
-59.9155
4.79175
-16.3436
17.0673
-49.0723
-3.60589
-59.9566
10.517
-17.5937
-65.8318
-74.22
-0.475784
3.11427
-15.8708
-0.47253
9.70562
-24.0384
7.12396
-62.4552
18.982
33.1219
5.65662
-24.0108
8.74626
8.85427
-11.39
0.309043
2.26642
-17.0693
4.2222
30.3636
-17.5797
8.72959
6.7769
-60.2271
-21.3286
6.59525
18.4934
9.54419
-40.2768
4.41647
3.88521
-102.274
-0.108919
-11.7468
-40.8062
22.3307
-101.54
-11.4024
-10.5314
-16.6397
-11.3594
-14.7094
40.8947
-3.74061
-6.6762
18.0529
32.971
28.6495
-117.624
5.00079
18.5267
3.48959
4.78337
32.9
4.54686
1.77248
40.663
6.22535
-25.1726
10.4875
26.7887
19.2751
8.90286
27.3459
17.1553
3.59457
5.3891
14.5386
8.73796
-18.321
31.1924
15.1092
4.72325
3.85557
-13.262
-1.20088
-102.821
8.56232
6.76034
10.9871
20.5195
12.2853
-17.7604
28.4814
30.0759
-6.84987
6.12314
-139.336
-102.5
-16.1046
16.2599
-65.6605
-1.90354
19.1684
34.0533
-18.4503
14.3183
16.7275
17.8197
-1.01866
8.01563
-118.01
3.58685
-10.9042
-0.116024
-12.8123
-7.90843
7.29855
-64.8595
18.6613
-75.5432
3.82685
11.921
-24.5015
-80.7269
-14.3481
11.8108
4.39255
-11.4567
13.9351
-114.405
-1.11653
-3.22394
-152.887
18.2451
-13.3952
33.346
3.74613
36.948
0.434365
-13.4087
9.3551
18.4037
6.54187
-14.2119
-22.0337
7.52667
9.75681
0.732565
41.7057
17.8247
-13.778
-2.29484
-4.77051
-66.2853
12.1867
-97.9965
16.412
-111.607
-74.9546
-29.9631
-22.5325
3.81051
-33.838
16.4329
5.83732
28.6238
34.5006
-12.0043
-16.7865
12.8367
-2.74283
29.869
-40.1898
6.6133
13.8849
17.2576
-220.706
-59.6492
13.2035
-0.177632
3.89144
-224.477
-25.5789
5.03406
-0.591969
-11.0319
5.98
-11.2062
-9.4006
12.3669
-122.015
-110.329
17.3418
-64.2491
35.0307
-3.66763
18.6495
29.7599
-0.109258
7.35115
-9.03279
12.3472
-53.4722
-67.5571
29.605
17.9476
8.37886
-32.0241
37.1749
-66.3778
-63.8965
-105.839
-9.22731
-46.216
-190.157
26.2943
7.88578
7.588
13.6149
-67.959
-66.5723
1.09637
6.5009
-14.1442
8.60017
13.6379
12.3019
-35.707
-51.7499
-41.2648
17.5759
-4.08101
-3.65273
35.4584
16.7888
-16.4856
-11.0539
11.7523
27.6156
-3.62765
-73.6274
-7.40601
22.794
9.88576
-2.84191
19.1124
-138.301
29.2583
3.6258
20.51
-10.5845
-1.60829
3.91423
-98.1841
-8.83362
12.9893
-69.0117
-40.0653
16.1055
-141.527
6.80316
23.5123
17.6499
22.7831
18.437
-5.90763
2.31672
8.86233
10.0178
0.720787
16.1209
-1.52168
29.5302
-60.8132
22.101
-15.1598
32.8744
-68.7669
0.040219
31.6639
-61.1681
-3.00124
-18.7598
23.4229
31.3294
18.8502
-9.3118
18.5226
19.1401
-10.1126
15.7937
-147.199
21.0648
-64.603
-94.8205
-18.0003
-19.4741
18.7248
-14.1992
-17.204
1.5601
30.7335
5.50787
8.05058
-20.2644
-2.60872
0.373859
-35.0468
18.6125
10.3775
-10.5752
36.2896
-2.36426
27.3976
20.722
5.29553
2.77574
5.7557
-7.19663
17.6928
3.61059
1.41742
4.37882
10.1458
-86.5458
35.8004
21.2484
-2.47607
-46.7925
10.5847
-207.322
17.6854
18.0783
8.86254
3.64248
17.8853
12.088
-2.1207
-27.6617
-1.9267
13.2819
29.2164
-54.7188
32.0394
38.4482
33.0834
-111.385
18.3966
-10.5531
18.4124
18.4614
23.2238
13.2633
22.6551
38.1511
19.0748
-66.8297
-38.8937
-55.9566
38.2366
2.49257
-155.437
-42.8105
21.7416
28.7759
14.561
-3.49385
-12.1054
26.1713
-6.73939
10.9282
-42.5324
14.1229
3.44773
-25.4559
4.62164
-13.085
-13.9592
-87.2194
11.3434
-56.0087
17.9971
7.11361
11.3985
10.6401
-18.6937
-8.39412
3.91919
-21.0374
-12.5471
-74.9554
21.6332
26.8452
-68.0152
25.0121
21.43
28.3061
3.49145
-73.8822
13.2051
-23.3413
23.3522
-23.8564
22.6314
17.8358
10.3199
22.4276
7.20714
19.6069
-1.74066
14.5415
-0.111786
-23.5666
-11.5203
-114.972
19.2095
-68.7223
-194.753
-84.9325
31.2387
18.399
14.7807
2.08303
25.4519
-8.43545
10.3314
-62.2171
-2.06214
10.5664
-121.982
-19.2724
-2.7883
-16.2095
6.79996
-20.2057
-70.0002
-22.4543
-33.4327
6.29153
31.1498
34.8778
28.4681
-58.9405
11.0475
-9.40823
10.8446
27.8906
11.0471
18.9127
-95.9423
-0.164068
-1.41465
7.36772
21.1325
3.17171
13.599
-21.3497
5.52451
-18.0161
19.5231
13.7219
18.4707
-16.39
10.8143
-78.4666
-19.6012
-20.4408
-2.80331
30.1482
-11.4451
27.6033
-41.9419
15.7268
18.6786
-1.86309
16.0954
-20.8298
26.0009
30.6311
-199.891
6.02436
22.8589
-143.405
-14.8992
8.4065
21.955
24.0339
-11.481
-4.20669
8.78938
30.761
-9.35483
-60.9437
7.15417
26.7007
8.11888
0.547721
-166.928
19.6127
17.645
20.6579
6.7633
-8.70142
13.556
37.1987
-23.345
2.6363
7.91326
-4.92843
8.2481
1.43006
-34.2825
-5.27495
-76.5767
16.4144
-210.258
-16.7387
18.447
22.7425
11.0404
-7.07429
-48.7441
12.2874
-21.0195
-16.6581
-2.08766
1.65767
-9.64495
22.8374
12.9402
8.08178
9.81907
28.3244
-56.5978
0.00153397
19.1085
-19.0237
16.8629
2.8946
-0.523846
-20.559
18.1648
0.744241
0.235846
4.66426
-6.11519
20.1772
-18.5832
-11.7058
-148.089
-6.45938
18.5265
-23.3181
32.8205
-17.4886
-27.3446
-56.0516
22.4134
13.2959
18.3114
-53.0457
26.4614
-54.6277
-1.61068
13.257
-8.77107
19.1516
2.32149
4.08802
0.057056
-52.8427
17.9549
-10.999
-128.527
0.346709
-24.4091
-17.8759
4.26523
28.3898
2.15453
-9.47488
18.0512
-8.17471
23.8074
-17.5718
8.58703
20.8318
19.4024
2.02552
-189.411
-43.6042
7.97307
12.7981
14.3916
-11.282
-47.2102
3.86789
-9.69794
13.4077
39.0803
11.275
18.0375
23.6833
11.4683
20.2795
-113.636
-21.5958
-101.07
18.3936
37.7396
11.2059
-0.549215
20.6319
4.27321
5.73698
-8.20609
8.24777
4.97111
32.9481
-44.5726
-12.9675
34.4844
21.1395
8.61377
13.2287
18.094
7.44096
-74.9265
-47.9528
13.5282
-33.6995
-23.4883
17.0732
-79.0011
-46.5528
-22.9643
10.1976
11.0218
13.337
9.14471
18.5777
19.1556
-12.6905
14.2117
11.3185
28.1147
21.4841
-6.42266
0.857463
-2.56343
21.2797
13.4005
-20.5763
4.65427
8.79204
4.07965
28.2706
15.4949
0.771098
-11.5287
3.81598
16.2156
-2.42902
16.0305
3.32256
10.4733
-163.17
9.89529
-24.7916
5.85618
-4.06971
-58.1959
-43.3143
-17.4933
24.656
-35.2424
-36.8381
-24.5857
29.3232
-185.578
0.205288
12.1582
-22.2531
21.6638
18.6887
-5.81692
21.9429
8.60683
8.5028
-68.3393
-12.9243
1.52421
23.4289
-22.8986
-11.5236
-7.10119
-25.5904
-46.1418
-29.1783
-5.1955
2.39766
13.2882
18.5575
17.1082
-36.0157
-104.46
22.4413
17.2167
-11.8257
10.7924
-58.542
-1.93448
13.5907
5.29336
18.0439
-131.292
-184.222
-180.812
13.1463
-60.6417
-66.6021
9.17125
-75.9681
-20.0249
-23.0541
-16.9615
8.59767
-41.0784
2.14233
-12.6377
19.3046
18.4509
-13.456
22.8457
-20.2861
27.9156
-4.92733
8.8917
-2.12031
13.5205
5.72606
-27.4442
-32.9042
19.7237
23.4976
29.7302
-10.1556
-25.338
-31.985
5.72082
-0.13457
-18.5664
-20.1764
-18.1627
5.60514
-10.2969
-2.67419
-35.8116
-2.30374
26.121
8.21991
5.91361
3.88787
-6.07353
-63.1434
27.3058
34.5721
-43.7312
14.4849
13.9308
1.05917
-81.4382
22.1447
23.2475
-4.43164
-168.803
-85.296
-27.7807
-1.01668
-22.7649
1.29904
19.0673
-45.6446
21.4098
-12.1575
-19.7076
19.1755
0.304074
-19.2675
9.64531
21.096
-19.6665
3.06455
-13.3251
-17.9808
-18.17
30.3816
-32.6148
6.35936
-8.70065
16.9011
-19.6073
-104.691
-8.86773
-16.0201
-0.719135
14.5321
2.34429
-18.923
10.4935
0.491769
-16.6624
-13.0194
-18.9792
-2.01572
3.86671
18.2648
-13.1104
23.0633
-10.8769
1.1961
5.08456
-11.2765
-36.2252
-18.9521
-99.1706
1.64974
13.702
-20.5706
6.68773
-9.91472
7.95294
-19.1718
18.8631
-26.814
16.1045
7.57476
-128.155
-37.2174
42.27
-63.9596
-19.4822
-3.64764
-17.1963
18.4525
-4.14259
-24.9331
4.09428
-1.62211
-11.3854
-33.0589
-20.5917
9.88066
-10.7387
10.169
-6.37328
7.41281
10.8173
5.02051
-13.5811
1.91042
17.6152
-13.0601
-86.8739
20.3764
-3.04203
-14.8937
6.39858
-22.2518
-10.3825
4.68936
18.3998
-101.425
15.1546
-19.0737
-23.3222
-13.2613
-10.2353
-53.0683
-9.53876
-61.706
17.6742
14.929
-41.6036
38.1696
-31.5984
23.0198
22.2417
-22.4473
11.8874
16.5763
18.5873
-1.06816
-122.755
-45.3114
-35.5114
18.3027
12.2902
-22.7586
-12.392
-6.9165
23.3782
7.18312
-80.1646
9.53926
20.1968
-4.99967
-6.36635
3.84043
18.1249
13.9177
-55.2043
23.2723
21.7173
-22.8919
-74.3824
17.6385
15.4058
8.2438
3.45646
24.8341
-75.1001
-24.9975
-85.7171
22.9558
9.49846
2.48684
-2.25894
-30.1751
-101.608
12.1226
-61.4834
-2.50273
18.056
20.7609
-179.568
16.7441
4.0567
10.3563
12.8561
8.16812
13.5731
0.859808
19.322
18.8878
18.6705
-13.4309
20.8137
17.6661
18.3233
18.1524
-65.8178
-0.351635
4.74536
-7.5422
18.7232
29.9593
-71.6327
36.2316
-100.55
-27.022
13.1759
16.8521
-10.8931
6.93795
-20.0244
-73.1962
3.84875
-90.9275
-13.3898
6.54722
9.30941
35.8536
15.7366
-39.3985
-100.577
10.8821
14.8889
-91.9625
-73.9823
-41.2702
-5.89906
-31.8866
-22.8271
18.5845
-23.0462
14.2834
3.57108
3.67468
-72.9481
2.95431
2.73054
-8.44703
22.4979
-2.89691
-14.6217
25.3421
-18.9423
5.44793
15.4628
-1.40503
-46.8392
18.7874
0.54169
15.0361
-3.02325
17.7185
9.18448
26.2502
18.2884
-111.427
5.88135
-2.47548
-31.4205
3.52591
3.99998
-16.4231
-72.1973
36.5764
7.97765
-109.253
22.7233
-37.2633
2.97156
-60.7752
-13.5054
-44.4211
-24.3646
-3.27746
6.99661
9.17646
-113.095
-18.5204
-177.004
-4.05729
-150.759
11.1571
18.1748
-55.4619
-71.8123
-4.19037
2.45008
-13.8533
17.8658
23.7018
-40.4965
18.1306
-2.65201
17.2115
29.215
-28.3087
16.6895
5.59601
13.9087
21.0399
8.88414
5.90315
-191.313
16.646
23.7689
-130.455
-114.17
-35.1577
-15.2111
15.4905
-80.2402
-8.182
-60.7942
14.9435
-24.8458
8.87159
-0.888598
18.8468
10.0179
-60.9901
3.85018
0.498574
-66.7068
26.6595
32.5341
18.7014
37.5353
20.6935
37.6913
11.1761
5.78228
24.0964
-63.2273
13.0951
5.5429
-33.6009
24.5669
4.40757
-8.75343
31.8377
9.05602
-14.3247
15.3067
14.1529
21.6666
1.14326
19.2565
32.0848
-33.4573
-27.637
-7.14227
6.93827
-11.5539
16.9287
6.64534
22.6392
18.4352
-59.4375
16.4231
-0.39845
-74.6639
-71.7954
-64.0819
14.2993
-19.8027
18.6579
-1.25302
-19.9679
10.8756
-90.3319
2.54964
-65.2806
-32.5939
16.0164
11.2346
-15.87
4.75274
18.6712
8.29791
-61.3349
15.9099
-5.08354
14.9008
-17.3652
18.702
12.3699
-9.46372
-2.63265
14.0673
6.06377
12.8605
-16.6303
36.0243
-3.41324
-16.0825
14.3228
9.46178
-20.9029
-8.76517
-14.4061
-5.26325
-4.06565
-12.6742
6.94103
5.28422
38.1081
-19.2838
-42.865
9.87609
-0.863002
-3.19798
6.20198
11.0286
18.9654
-13.5152
6.36874
-26.5869
-2.03861
6.62844
10.2423
17.5028
-0.113546
0.544273
-5.46122
18.0544
-14.4627
8.40258
-17.5219
4.86406
1.27305
20.6468
-17.7574
-1.14509
-13.9315
13.9336
-21.9095
5.91001
19.5178
17.0224
19.2834
-22.8763
-46.8569
18.4488
-86.9216
20.9916
15.366
-2.57834
17.2025
-0.668438
12.6958
9.11298
0.692934
-52.2383
18.5206
-111.524
20.7266
7.7408
38.3976
7.82312
12.0071
18.238
10.1041
8.24275
17.8111
3.12295
4.24499
-27.5764
-0.0831995
12.0662
4.93971
-12.9373
-53.2651
-38.4841
-15.5249
-22.628
-1.48186
18.5701
4.81107
17.9532
9.2693
32.2053
29.0652
13.8297
4.55598
13.5664
-17.9103
21.2703
7.49168
9.76215
2.29386
19.6364
14.1154
-23.9089
-72.6547
-8.38252
6.84612
-6.68253
-3.10254
18.5815
-23.0472
5.86445
-8.59999
13.3078
14.7463
-29.576
14.2547
15.9482
-1.64135
11.1373
17.4359
10.0465
31.189
18.5548
11.0052
25.6288
-13.08
21.7833
14.6819
-20.7732
-34.3445
3.78169
1.21736
-9.52708
-173.733
18.5722
24.3315
21.0849
22.8443
17.3273
20.5488
14.4646
10.7558
14.9604
5.61728
10.4735
10.347
4.50839
28.4528
4.62087
-1.04257
17.8427
24.0095
27.8615
-17.6117
-0.931666
-106.754
-33.2227
15.0907
-32.6418
-54.0818
18.592
32.3655
-31.723
-15.5104
-9.20499
14.2186
8.23532
10.75
8.91935
8.50808
-71.3511
10.046
-38.369
-12.0804
19.29
18.4953
21.0322
-6.31954
-36.478
-3.52682
6.65574
-27.4204
-7.78695
8.68882
3.53041
-2.85495
1.02643
6.50315
4.092
14.2158
-7.02839
8.26269
16.7501
1.94736
3.68442
-15.6657
-18.2978
-14.0127
18.2547
8.93681
-98.4123
18.3018
19.9704
-2.80196
-1.65124
-2.80479
-8.70588
-82.5998
6.04418
3.0094
-3.22726
14.8877
-110.856
16.2137
3.806
4.21935
24.334
11.1935
15.1386