/*--------------------------------*- C++ -*----------------------------------*\
| =========                 |                                                 |
| \\      /  F ield         | OpenFOAM: The Open Source CFD Toolbox           |
|  \\    /   O peration     | Version:  2306                                  |
|   \\  /    A nd           | Website:  www.openfoam.com                      |
|    \\/     M anipulation  |                                                 |
\*---------------------------------------------------------------------------*/
FoamFile
{
    version     2.0;
    format      ascii;
    arch        "LSB;label=32;scalar=64";
    class       surfaceScalarField;
    location    "3.3";
    object      phi;
}
// * * * * * * * * * * * * * * * * * * * * * * * * * * * * * * * * * * * * * //

dimensions      [0 3 -1 0 0 0 0];

oriented        oriented;

internalField   nonuniform List<scalar> 
20045
(
1.15503
-1.38275
0.227726
-2.34638
1.09167
1.25471
0.458191
3.89813
-4.35632
1.14835
-1.38772
0.239373
-2.15264
1.89738
0.255259
-1.03452
4.01451
-2.97998
-2.38001
0.569335
1.81067
0.121474
1.07705
-1.19853
1.13096
0.967969
-2.09893
-1.18921
-0.510814
1.70002
-0.213322
-0.199988
0.41331
3.8199
-2.07684
-1.74305
0.948502
-0.920647
-0.0278551
-2.23972
1.73825
0.501464
-0.344939
2.21238
-1.86744
-1.94805
0.758848
-0.231726
-0.191752
0.423478
2.05131
1.61394
-3.66525
-3.18571
4.50003
-1.31432
-1.56495
-0.161632
1.72658
1.883
-1.8466
-0.0364051
0.351468
0.597035
-0.607608
-1.73877
2.90553
0.508045
-3.41358
1.74096
0.0592414
-1.8002
-0.963018
3.86855
0.578129
-0.522353
-0.0557765
-2.35489
5.11682
-2.76193
1.67779
0.469471
-2.14726
-5.48848
3.71887
1.76961
-0.229709
-1.68748
1.91719
2.78167
-2.61644
-0.165227
-0.320802
2.53747
-2.21667
6.32511
-3.76223
-2.56288
-1.37232
1.49379
3.64831
-1.79706
-1.85125
2.29603
1.05246
-3.34849
-0.157513
0.957677
-0.800164
-5.81135
3.80171
2.00964
1.40601
1.16421
-2.57022
0.0251966
1.16656
-1.19175
0.454553
-0.631936
0.177383
5.49573
-5.40053
-0.095206
2.72375
-0.768181
-1.95557
1.06214
1.66161
1.92904
1.89086
0.292507
-1.02108
0.728569
1.5928
0.686881
-2.27968
3.59725
-1.30122
0.536855
3.3473
-3.88416
2.65423
-4.39211
1.73788
5.26265
-3.1269
-2.13575
-1.13804
-1.89769
3.03573
-0.21229
-0.740479
0.952769
-1.63689
3.13832
-1.50144
-1.62061
-0.532027
0.830637
2.07277
-2.9034
3.77264
1.47104
-5.24369
2.92648
-3.24728
3.70246
-3.0884
-0.614062
-0.00243853
-0.27167
0.274108
0.889831
2.81263
0.620049
-2.19878
1.57873
1.70827
0.174728
0.484995
-2.60606
2.12106
2.4991
1.1742
-3.6733
-0.28725
1.15712
-0.869871
-1.40593
0.0546567
1.35128
2.0026
-0.871645
3.18215
-3.27455
0.0924003
-0.992807
0.705557
-3.54005
1.90316
-0.666437
-2.2245
2.89093
0.675383
-0.421227
-0.254156
2.87396
0.10956
-2.98352
2.60496
-1.77432
-0.799803
3.67376
1.40306
-1.74799
0.446418
0.365183
-0.811601
4.62824
-5.70215
1.07391
1.72959
1.93757
-3.66716
1.72646
-1.67076
-0.0557087
1.67353
-1.05348
-4.51953
0.543403
3.97613
-0.0721532
1.22718
-0.567977
0.977669
-0.409692
-1.87854
-0.638882
2.51742
-3.17458
0.0718312
3.10274
1.8564
0.682844
-2.53924
-1.65979
1.22893
0.430865
-3.29218
0.706016
2.58616
1.80946
-0.404502
-1.40496
0.931625
-1.44685
0.51522
-0.637491
-1.53391
2.1714
1.41495
-1.51871
0.103752
2.23029
0.442185
-2.67247
0.355781
0.222348
-0.217076
-0.811635
1.02871
2.77878
-1.37277
-0.223835
-0.150899
0.374733
2.49751
1.1508
-0.957887
-1.28183
-1.32564
1.10857
-1.82229
5.59493
0.329915
-0.897892
0.203738
-0.427573
0.704094
2.57978
-3.28387
2.04059
-5.52743
3.48684
0.738925
-1.15629
0.984039
0.172254
-0.698531
0.872115
-0.173585
2.64409
-2.56102
-0.0830675
-1.19734
0.985054
3.47539
-4.75313
1.27774
-0.625456
0.866308
-0.240852
0.128655
-0.841762
0.713107
2.0421
-0.301146
4.8414
1.48372
-2.65221
1.98577
2.2721
-3.87007
1.59797
-1.9042
3.95551
-0.132563
0.130125
-1.8744
1.51831
0.356091
-3.77075
0.256201
-1.42158
1.16537
3.01384
2.24881
2.34856
-3.23822
0.889663
3.09238
0.309823
-3.40221
-6.04341
4.73821
1.3052
2.48038
-0.364754
-2.11563
5.31198
-2.29814
-0.300967
-0.720109
1.22358
-0.577367
-0.64621
-0.157571
0.151369
0.00620135
2.3096
1.57681
-3.88641
2.50736
-2.08542
-0.421935
-0.483714
-0.0266663
0.510381
-0.823238
-0.333056
4.24952
-1.97742
-1.59063
1.64983
-0.0592033
1.75716
-4.00613
2.24896
1.21457
-2.35262
1.30247
1.60337
-2.90584
6.44788
-1.81964
4.82899
-0.6465
-4.18249
1.76577
-1.92429
0.158521
2.64751
-1.36935
-1.27816
-0.631493
0.575593
0.0558999
-0.390445
4.10655
-3.7161
2.42847
-0.750687
-3.27516
0.0776428
3.19752
-2.39984
1.79113
0.608711
3.32142
-1.59183
0.313396
1.41307
-2.49833
2.8566
-0.358267
-3.25442
3.71261
0.0397034
-1.0416
1.00189
0.462999
-0.964122
0.501123
-0.0892633
-0.896344
0.985608
2.13955
0.780503
-2.92005
5.06335
-2.48272
-2.58063
-1.07118
0.981914
3.18553
-3.05762
-0.127905
0.560721
-0.106168
-4.94919
-1.72666
2.26872
-0.542057
-2.28813
1.84483
0.443303
-0.0273016
-0.30248
0.329781
1.61579
1.03172
-0.0574291
-0.100142
0.40198
0.821597
-2.58565
0.0873153
-3.00968
3.71788
-0.708208
-3.07337
3.16487
-0.0914929
-1.91429
-1.38352
3.2978
-1.4424
0.07597
1.36643
1.32941
-1.6184
0.288995
3.66484
-0.42068
-3.24415
-0.144059
-2.94861
3.09267
-1.96821
3.27069
0.878628
-2.51295
1.63432
-1.59092
5.0663
-3.22165
2.54096
0.680692
-0.372643
0.387381
-0.0147379
2.04033
-4.20237
2.16204
-4.05937
1.70448
-2.30011
-2.69349
5.20332
-3.63861
-1.56471
-1.46028
1.48548
0.830029
-0.887303
0.0572741
-2.46066
-1.20977
3.67044
-3.66182
5.29654
-1.63472
5.34253
-4.74917
-0.59336
-0.161001
-0.651111
0.812111
-2.75291
-2.32389
5.07679
0.144711
-0.358033
2.1531
0.327276
-2.72014
-0.806307
3.52645
0.587911
0.142351
-0.730262
0.273423
-2.00009
1.67719
-1.9069
3.24462
-0.152239
-0.804136
0.646623
-0.940016
1.14844
-0.208425
-1.33444
3.47399
-5.45974
2.70684
2.86973
-1.8782
-0.991527
-3.09055
0.762488
2.32806
0.936695
4.40584
4.50553
-2.4652
3.70078
-5.65963
1.95885
-0.224589
-1.7762
2.00078
0.374444
-1.93939
-2.11316
2.81726
2.41124
-3.44577
-2.10695
-2.48797
4.59491
-5.96735
2.80758
3.15977
-0.42715
-1.23264
0.814408
0.755425
-1.56983
2.23935
-0.671593
-1.56776
-0.382624
-2.82128
2.43084
-1.20357
-0.387057
2.34321
2.58501
-2.63015
0.0451445
-0.051113
-0.675458
0.726571
2.38006
0.367836
-2.7479
1.99583
-0.756037
-1.2398
1.36959
4.11181
-5.4814
-3.35293
1.47439
2.59609
-1.71746
-0.555395
1.68684
-1.13144
3.41377
-1.6566
0.600164
-0.0460392
-0.554125
1.83153
-0.219404
-1.61213
-0.677032
0.706983
-0.0299506
5.38958
-3.80961
-1.57997
1.17072
-4.83254
-0.752848
0.0758155
-3.30664
0.75055
2.55609
4.85663
-2.31915
0.890985
-3.90066
6.4481
-3.19068
-3.25742
-0.0894775
0.677388
4.68233
-3.97195
-0.710381
-2.43004
0.277795
2.15225
-3.85611
3.7387
0.117415
2.56574
-4.80927
2.24353
0.309403
0.073071
-0.382474
-1.9494
2.26792
-0.318521
-0.247969
-0.484978
0.732946
-0.805812
0.180356
-0.849478
0.150947
-2.26305
-3.26439
4.91365
-7.07115
2.1575
1.65992
-0.38567
-1.27425
2.32047
0.461199
0.718778
-2.82573
-0.0465894
0.509589
1.83047
3.02616
-2.24476
0.412948
1.83182
3.22208
1.46025
1.94465
0.267728
0.939695
0.720225
-1.35629
-0.18883
1.54512
-0.0386461
-0.333997
-4.14092
5.51051
-1.89856
2.52217
-0.62361
-3.85128
3.6827
0.168571
2.12181
0.414324
-2.53613
-0.405013
-0.742444
1.14746
2.97191
-3.39246
0.420547
-3.09041
-2.87694
3.93915
-2.84737
-1.09177
-0.539343
0.48823
5.06018
-2.49443
-2.60311
7.51677
3.51361
-1.84353
-1.67008
5.82724
-2.80794
-3.0193
2.91965
-1.07872
-1.84094
1.84979
1.66382
3.70039
-2.22791
-1.47247
-0.916975
3.34458
-2.42761
-0.960139
-1.34443
2.30456
0.0265806
-0.02946
0.0028794
-0.630783
0.0716043
0.559178
4.30536
-3.86841
-0.43695
-3.26409
-2.77932
2.22465
0.360358
-3.46986
-0.381411
-0.0780031
1.90954
2.0706
-3.52567
1.45507
0.0161671
0.813862
-2.13781
4.44741
1.64421
3.74537
5.76724
-3.95379
-1.81345
-3.84688
3.04058
2.44945
-3.75154
1.30209
-2.45102
-0.407995
2.85901
-1.42705
-0.707915
2.13497
2.644
0.541527
2.75336
0.116363
1.5503
-0.807421
-1.80902
-2.38327
3.87388
-1.4906
-1.12307
0.183058
-0.94975
0.394355
0.353837
-4.20995
-1.96167
-1.39126
1.13658
-0.98556
1.24608
-0.260517
-0.0754399
1.22379
-1.7469
1.08692
0.659982
2.11098
0.533107
0.686167
-0.363277
-0.32289
1.7646
0.742762
-1.32983
3.40043
2.36001
-0.503608
-1.07551
-2.01504
7.68395
-4.08732
-3.59663
3.55156
-4.09297
2.59965
1.49332
3.11635
-3.53957
0.423215
-2.01637
1.37888
-0.644564
0.160849
-1.33452
-1.95766
1.49421
-2.49297
0.998762
1.80806
1.89233
2.0039
-3.43641
1.43251
1.27726
-2.49268
1.21542
-3.89597
0.721398
0.120278
1.68918
-2.98937
2.89367
0.0957033
-0.75637
1.34424
-0.587873
-2.30263
-0.0773735
-0.591862
-1.08699
1.67886
0.579913
0.00256049
-0.582473
-1.38621
-1.01364
1.28725
1.87486
-3.16211
4.1633
-0.94122
3.54303
-1.78863
-0.227746
2.24109
-0.963833
-2.91363
-0.308021
-0.347203
0.37196
-0.0247574
2.45149
-0.858694
-2.23085
3.33133
-1.10048
-0.636015
0.763817
-0.127802
2.3148
-0.0754505
-2.50703
-1.01865
-2.29094
3.93331
-1.64237
1.93671
-3.41161
1.47489
1.51474
2.42441
-0.419807
0.2697
0.150108
0.593224
-3.04424
2.30369
-3.54483
1.24114
0.17079
0.504592
-0.485304
2.83386
-3.64375
1.68208
-2.67354
2.44895
0.639627
-3.82534
-2.81469
2.47912
0.335566
2.81076
-0.745046
-2.06571
3.81578
-0.84387
-2.6809
-1.79953
-1.54774
1.95763
1.04385
-0.486859
-0.55699
1.34951
-1.51114
-3.2866
2.8013
4.23545
1.26029
-3.44951
1.21866
2.57678
-0.352131
0.731422
-0.564449
-0.166974
-0.0977908
-2.11757
2.21536
-3.58664
0.628325
2.95831
3.3838
-3.3838
-2.82831
3.89569
-1.06738
0.110315
0.575852
2.07903
-1.24851
-0.830527
-3.97823
4.1248
-0.146575
1.60237
-0.151145
-1.45123
1.26651
-0.358483
-0.908027
0.679899
-1.08491
0.742883
4.81297
-7.41608
-3.09716
3.69098
-0.593817
-1.25715
2.5444
-0.295754
0.0692341
0.22652
-0.608355
1.85239
-1.24404
-1.56569
1.94014
5.33974
-3.81123
-1.5285
-0.497847
-1.90854
2.40639
-1.17024
1.22356
-0.0533286
0.833319
-1.22202
0.388701
-3.93275
1.99041
1.94235
-0.968284
-0.419434
0.698857
0.0325653
-0.223805
0.161156
0.0626483
2.45464
1.85072
-0.072186
-0.223568
-0.472051
-0.726754
1.19881
-2.18166
3.47205
-1.29039
-0.0305228
0.865263
-0.83474
2.00409
-1.43476
0.946159
-0.462394
-0.483766
0.367143
-1.90105
1.01312
2.65171
2.00494
1.15245
-3.15739
2.1006
-1.52648
-0.574115
-4.04215
0.766986
-1.24591
0.658187
0.587723
1.3395
3.07464
-4.41414
-2.69927
2.29127
0.289699
-3.649
3.3593
-0.662511
0.501511
-0.421048
0.453461
-0.0324127
0.171449
-1.52774
-0.963771
0.683291
0.28048
-2.80994
-0.496697
2.43572
3.05707
-1.08456
-1.97252
-0.718863
0.0828476
0.450501
-2.67751
2.22701
0.865816
1.88239
-2.74821
1.24953
-2.77067
3.22346
-0.452796
-3.01215
2.09517
-0.161598
-0.360754
-1.50634
-0.781792
-1.27035
0.269789
1.00056
-3.74497
1.5633
2.49327
-2.99112
0.677062
1.89972
-1.52741
1.45971
0.0676942
0.529684
-4.301
3.77132
0.909997
-1.30695
0.396956
1.03035
-3.53738
-2.6945
-0.378869
-1.55537
0.149436
0.533033
-0.737115
0.204081
2.24933
0.0605374
-0.156698
0.0961605
4.18937
-2.84986
-0.730539
2.94724
-2.2167
1.1473
0.924858
-2.07216
-1.32436
0.661846
-1.14265
-0.127705
1.20638
0.872655
-1.41357
-2.4565
-0.340465
-0.00673767
2.32536
1.95027
0.409741
-3.28067
3.81753
0.178241
-1.35142
1.17317
-0.37312
-3.29113
3.66425
0.580715
-0.654931
0.0742163
0.0576589
-1.50005
-1.66935
0.709213
1.9284
-0.162632
-1.26494
-0.481954
-0.113297
-1.80015
1.91345
1.33842
-3.2527
-0.175275
-1.80294
1.97822
0.180237
-1.45227
1.27203
-2.4879
-0.0700863
2.55799
2.18794
-1.50105
0.0239703
0.512755
-0.536726
-1.03998
-0.130256
0.857202
1.56745
-2.42465
0.705076
-0.850497
0.145421
2.18238
1.21757
-3.39995
-1.0271
3.25739
0.554574
0.0253391
-2.09321
-3.10151
5.19472
1.84552
2.404
3.34475
-2.47893
-1.66557
1.07371
-0.486678
-0.144105
-1.12968
3.57913
0.425556
-2.99748
2.57192
3.21255
-0.423764
-2.78878
-1.41725
2.36194
-0.944691
1.49299
-1.36512
-1.34081
2.70593
0.208964
0.0228484
-0.231813
-1.07859
-1.97022
3.0488
1.25665
-1.865
0.324028
-0.351329
2.05918
-3.13777
-2.74296
-0.928746
3.67171
0.00738908
-2.18865
2.18127
1.01566
4.52638
-4.74681
0.220425
0.932586
-0.322709
-0.609877
-0.0625178
-1.46489
0.976941
1.19446
-1.59191
0.164859
-3.14932
3.94662
-0.7973
0.0335967
-1.93216
3.96647
2.48141
-4.22313
-1.17739
0.273885
-0.46355
0.189664
2.12522
-0.17495
-0.98536
1.07954
-0.0941789
-0.819116
0.571147
-5.49877
3.19866
3.36477
0.649742
-0.273341
1.10666
-1.00356
2.15086
7.31732
-2.50435
-1.00942
0.0240556
-0.586334
-2.70027
0.851473
1.12333
-1.08363
-3.68703
0.100399
-0.561791
1.00952
-0.0995269
-3.65315
1.86346
1.78968
2.68811
0.494034
0.989287
-0.375362
-0.613925
1.37584
-1.2347
-0.141145
-2.83467
1.03761
-4.38257
2.09163
-1.88112
2.03606
-0.154938
-0.00875694
-0.641558
0.650315
3.99155
-0.0870781
-3.90447
0.957058
0.0792456
-1.0363
-0.640823
-1.23358
1.10744
-0.175812
-0.193779
0.150253
0.0435253
1.87451
-0.18912
-1.68539
-0.0459958
-0.147783
2.18281
-1.74062
-0.12999
-0.701325
0.831314
-4.02652
0.877207
-0.0336669
-0.156133
-1.16951
0.679976
2.3771
0.228924
-0.275514
1.09231
0.809613
-1.90192
-1.85623
2.34122
1.31619
-1.13795
1.05557
-0.926911
0.570751
-1.32712
1.38923
-3.00281
1.61357
2.3766
-0.480458
-1.89614
-0.865839
-1.05845
0.635927
-0.241848
-0.394079
1.12007
-1.3618
0.241735
4.31196
-0.110232
-4.20173
0.358346
-0.0384999
-0.319846
-2.08963
2.93783
-0.848198
2.23208
2.02016
-4.25224
-0.162703
-0.108967
-1.29133
1.99074
-0.69941
1.03917
0.416655
-1.45583
-4.07827
3.30167
0.776593
0.112828
0.0374258
-3.39664
0.653678
1.46767
-0.838004
-0.629669
1.56731
-2.24213
0.674821
-0.529229
-0.853523
0.481766
4.04462
3.31112
-0.660392
-2.65073
-3.13601
0.365342
1.29462
-2.37013
3.41086
-5.64358
2.23272
-0.524197
1.33861
-0.0640261
-1.38544
0.913391
-0.748118
1.00432
-0.701311
-4.59417
5.29548
2.81059
2.24959
-2.92547
3.13914
-0.213665
0.704105
-0.171072
-2.2368
-0.644458
-0.588421
0.659885
-0.0714639
0.07336
0.208369
-0.281729
0.316476
1.17754
-1.49402
-0.524407
2.09172
-1.56583
-1.12239
2.68823
-3.36966
-1.02569
4.39535
1.65539
-1.53807
-0.117319
-1.20208
0.106787
1.0953
0.284575
0.355831
-0.640406
-3.65857
0.152005
3.50656
0.0822645
0.941517
-1.02378
3.01141
-3.35435
0.342944
-1.68162
1.06523
-2.02201
0.956775
0.0586445
-0.647066
-1.06798
0.749193
0.318788
3.37453
-4.96544
-3.783
3.30837
0.47463
0.85087
-0.145794
6.64062
-2.67415
-0.370278
-0.467648
0.837926
-0.0605969
0.851641
-0.791044
-0.411309
2.64278
-2.23147
1.25963
0.673256
-1.93288
4.00598
-3.82895
-0.17703
2.586
-1.08291
-1.50309
0.158971
-1.08657
0.927597
-1.35646
-0.0651173
-4.29661
3.73484
0.561778
0.173162
-4.46978
0.0726971
1.24349
-1.31619
-1.81898
-2.04943
1.01128
-0.782138
-0.229137
-3.13312
-0.893402
-0.936109
0.675475
0.260634
1.90928
0.086549
-3.94537
3.74067
0.204698
-0.652289
-0.0111769
-0.41005
1.03715
-0.0800898
-2.16317
0.213774
0.821242
-0.861931
0.0406889
-0.520353
-2.02248
2.54283
1.7563
-0.153924
-0.998472
2.03896
0.275835
1.49974
3.05518
-0.849641
-2.20553
-0.512718
1.84212
-2.80094
1.79717
1.00377
0.220099
-0.107271
4.89583
-2.08524
3.60068
-3.07099
-0.521578
-0.74449
1.26607
0.7334
-4.4753
3.7419
2.45555
-2.44816
3.21396
-1.42471
-1.78926
-0.031772
-2.34135
-0.45959
-1.72137
3.44881
-1.72744
0.071478
-1.14226
4.84304
-4.11942
0.986296
0.142158
-0.115577
-0.531484
0.477624
0.729657
-0.0226745
-1.67832
-1.62915
3.85647
-1.25151
0.496707
0.0265219
-0.523229
0.168304
1.09821
-3.59851
-1.97154
5.57005
2.88541
-0.24141
-0.0299928
-0.702632
0.732625
3.28256
0.418659
-0.0669251
-0.351734
-1.1126
2.50183
-1.44457
-3.75509
0.657932
-1.03047
0.0592792
0.971189
3.06149
3.38661
0.658093
-1.4389
0.78081
3.82832
0.177662
2.57415
-3.64063
1.06648
-3.20654
0.0401853
3.16635
-3.46346
4.42847
-0.965011
0.698393
-0.032563
-0.66583
-1.72899
5.10351
-1.26197
2.04573
-0.783752
0.187561
-3.11304
3.5565
-1.65334
-1.90316
-3.53812
4.59562
-1.05751
-0.969995
2.46338
-1.49338
4.64608
-2.05471
-2.59137
0.230846
-2.40312
2.17228
0.369061
0.0843993
-1.63013
3.86222
1.06078
-3.88909
3.26903
-1.33232
-0.865291
0.735302
-3.29988
0.0933449
3.55083
-1.54693
0.148787
-4.66832
1.2394
-0.0728464
2.89671
2.73483
-5.63154
2.21872
-0.759567
-1.45915
1.41841
-3.21415
1.79574
-0.840121
0.0448562
0.795265
-0.887695
-2.0922
2.97989
1.54867
-0.977919
-1.76994
3.62701
-1.85706
0.51825
0.74272
-1.26097
0.332255
0.679021
-4.40729
5.28378
-0.876485
0.64164
-0.0609255
1.8682
0.981312
-2.84951
1.33173
3.07675
-4.40848
0.917618
1.89314
-0.116558
4.94555
-0.0628489
3.17034
-3.10749
0.0134614
-0.0439842
0.423885
-0.22352
-0.200365
2.78792
-2.61715
-0.170773
1.48963
1.72433
-0.125466
0.295446
-0.16998
-0.891139
3.043
-2.15186
-0.0518054
0.886666
-0.83486
-0.69924
-2.78702
3.48626
-0.0425936
-2.02334
2.06594
2.88137
-0.50131
0.916425
1.30229
2.25474
-2.89357
0.638836
1.27419
-3.18273
-0.408937
0.232171
0.176766
0.860994
-0.118886
-0.742108
-0.0685679
0.437629
-0.198939
3.05237
-2.85343
-0.759447
4.10675
2.88958
-2.54015
-0.349434
2.74077
-2.05792
-1.85309
0.834463
1.01862
0.171288
-1.41979
-1.88353
1.44836
0.435174
0.33862
0.650667
0.608443
2.90605
-3.51449
1.09229
0.782219
0.539742
-3.9094
-2.17256
0.625438
1.54712
-1.53738
-0.977452
2.51483
2.22756
-1.13525
-3.35861
2.10146
1.22756
-0.932124
-0.295433
-4.18804
6.79716
-2.60912
-1.70871
2.07585
-2.46189
2.54007
-0.0781725
-2.32431
5.61192
-3.2876
-0.0933096
0.984434
-0.891124
0.66945
-0.678207
-3.1872
-2.59998
4.74054
-2.14056
-2.23115
2.99363
1.93543
-2.2733
0.33787
0.790505
-1.99551
1.20501
-4.14487
2.46219
1.68268
-0.0491503
-0.394169
0.44332
-0.17526
2.28
-2.69131
4.1455
-3.4121
-0.247507
-2.56718
-2.82984
2.76699
1.67987
0.164961
1.08317
0.519853
-1.60303
-1.51892
1.41981
0.0991151
3.09324
-1.2579
-1.83534
-1.21349
2.35635
-1.14286
-3.03489
-0.839103
3.87399
-2.61992
-0.809409
3.42933
1.89498
-1.10447
2.22673
0.561187
-4.47223
1.89203
2.58021
1.17849
-1.2522
0.0737108
0.031994
0.922262
-1.13446
0.2122
-2.08723
0.619978
-1.83347
0.6684
0.947581
-0.78861
-0.0807893
0.154149
-2.32147
1.95672
0.131233
1.28372
0.90076
-0.826345
-0.0744149
-2.87289
-2.25587
5.12876
3.00629
-0.751554
-1.92224
-0.176942
2.09918
0.450481
0.966871
-1.41735
0.0834977
4.41075
-2.83275
-1.578
0.812368
2.49875
0.261447
0.561219
1.46412
-2.02534
-3.03015
3.61663
-0.586485
-2.10299
-0.812626
2.91562
-2.04607
0.754737
-1.16096
-0.692127
4.44217
-1.98717
-2.455
-0.574986
-1.15548
1.73047
1.14286
0.506026
-1.64889
-0.824689
0.906954
-0.0890155
-0.223888
0.312904
0.792816
-0.11405
-0.957127
-0.0536425
2.58986
1.85231
-0.925899
4.72761
-1.11713
4.836
-1.35935
0.784362
-3.09168
0.988687
3.02483
-2.4316
-0.603854
-2.7582
0.668568
1.06796
-0.995267
2.46795
-2.56574
3.33332
-0.216969
-0.839594
-0.607251
-0.556248
-0.434539
0.990787
-1.36254
-0.156167
3.09941
0.513905
-3.61332
-0.202347
-1.00035
1.2027
-0.4578
2.97818
-4.45579
1.47761
3.19955
-0.188135
-5.58737
5.94895
-0.36158
0.848603
-0.793946
-3.31307
-0.831795
-0.926525
3.80465
-0.0698155
3.12928
3.87288
-1.56509
-2.30779
-2.23818
-0.218897
2.45708
0.88032
1.53676
-2.41708
-2.8709
0.382998
-0.810817
-0.127725
0.938542
-1.92979
2.35535
0.76054
1.79727
-2.55781
-0.680726
0.173435
0.507291
-3.40533
0.378588
3.02674
-0.168925
4.31443
-1.17013
1.75707
0.828931
-0.681887
-0.564022
3.74293
-4.38943
-1.71603
1.34868
0.367347
0.254476
-0.41718
2.69865
0.0294062
-2.72805
3.72143
-4.83855
-0.0784061
0.387809
-1.03719
1.55206
-0.514867
0.163488
-1.23147
-0.113953
1.29648
-1.18253
-0.189971
0.242447
-0.0524761
1.58003
-1.52237
-1.2115
2.50612
0.129592
-2.01071
-0.724539
0.783183
1.07957
-1.83561
0.492729
-0.419658
-0.899984
0.859767
0.0402167
0.949729
-1.0491
0.0993716
-2.43571
2.54527
0.300957
-2.2232
-0.161998
-1.29828
-0.255925
2.38515
-2.12922
1.44028
-1.62911
0.323106
-2.21208
1.88897
-2.37386
6.73934
-4.36548
1.39825
-3.78152
2.41101
-0.0866445
-3.69636
1.10791
2.74856
-2.7995
-0.559108
-1.5746
-2.51837
-1.8712
0.784208
-0.381117
-0.397392
0.77851
5.82784
-2.76635
3.0261
-0.722407
-0.989699
-0.740499
1.7302
-4.18762
2.14562
2.042
-0.303136
0.103147
2.18156
-1.11633
0.754909
-0.403441
-0.771764
0.574404
-1.83638
0.255438
-0.451095
0.195657
-0.492511
3.59192
1.42396
-0.714492
-0.709466
3.63
-4.42808
2.05958
2.36851
0.697094
1.2016
-1.89869
-0.979122
-0.548814
1.52794
-2.31874
1.34874
-0.452955
-0.301733
1.44459
3.52453
-3.89765
1.82751
-0.788339
-1.38458
2.65878
-3.46637
2.45648
1.00989
-0.191249
-3.29988
3.49113
-2.61256
2.96095
-0.348389
1.24071
-1.75343
0.0576932
0.534002
1.12139
-2.69187
-3.01028
3.56419
-8.05037
2.54876
5.50162
0.896016
-3.1342
2.46031
0.0662238
-2.49627
0.483009
2.47195
4.12996
-1.48591
-2.64405
-1.92611
1.04355
-2.58093
0.769437
-3.48479
3.26589
-2.4145
1.04938
1.78809
-1.27587
-0.0412778
1.31715
-4.57583
2.2835
2.29233
-3.93856
-1.12003
1.30026
-3.9666
2.84874
1.11787
3.32392
-5.05291
-4.41672
0.0094253
5.64074
-2.22989
3.15912
-1.96512
-1.194
-0.112482
-0.699998
0.81248
0.369509
1.52189
2.01679
-0.23083
-1.04504
0.446429
1.10224
0.625827
1.62186
-2.24769
1.71745
-0.96202
-0.165841
-3.67075
3.83659
-1.41405
0.915245
-2.88346
-2.59004
-1.85021
4.44025
1.06651
-1.47101
-2.90801
0.929288
1.97872
-0.149243
0.532151
-0.382908
4.84224
-5.54355
0.475701
-1.51289
2.33878
0.937449
-3.27623
0.241916
0.254791
-3.39078
1.03111
2.35968
-2.27112
2.22853
0.454584
-3.48473
-1.4131
-0.30293
-0.0233177
-0.125925
-0.144885
3.35743
-2.25423
3.06018
-0.805945
3.14251
0.0107476
-3.15325
-2.28336
-0.0628847
-0.922675
0.171519
3.21228
0.623891
0.139926
0.71533
0.540769
-0.430454
1.99844
2.51188
0.581359
-3.66432
-0.281049
-3.05582
0.233946
-4.2059
0.805835
0.803817
-1.60965
4.47372
-0.033386
-4.44033
-0.528317
0.495754
-1.47053
-2.91204
-2.95834
-0.581221
-1.31522
5.03665
-1.33421
2.00806
-0.673848
-4.20385
1.33096
-1.34436
1.97018
-1.86385
-1.78929
-2.2478
-0.856311
1.14531
2.1844
-2.70475
4.42589
-0.621242
-0.101576
0.652033
-0.550457
0.507405
1.17943
1.19205
3.89715
-3.60745
-0.309337
-0.941221
1.45644
-1.79525
2.20819
-1.99326
-4.25624
0.955392
0.758508
-1.7139
-3.44106
0.057266
-0.661757
3.10735
-2.4456
-0.555884
-5.03149
-2.40789
2.77573
5.06947
-2.48273
-2.58675
-0.21977
0.877956
3.02711
-1.02243
-2.00468
1.1539
-1.26795
0.116688
0.307197
-0.413835
-0.192647
0.606482
-0.483377
1.56655
-1.88038
5.2043
0.0141613
-0.7963
-1.0993
-0.501077
1.60038
-0.119811
4.96205
-3.1857
1.26877
1.91693
-1.56079
2.41799
1.37141
1.67159
-1.81116
-0.361396
2.27903
-0.853746
-1.42528
-0.258241
0.223749
0.0344926
0.354672
-2.60124
2.24657
-3.58809
0.629743
0.943476
-3.92561
4.15956
-0.0336302
1.18753
0.694607
-2.02882
-3.21699
1.66924
-3.57027
1.08755
-1.97649
0.410803
-1.25482
-2.35676
3.61158
-3.66628
0.11998
-0.536112
0.416132
3.38195
-2.83854
2.58001
-1.69969
0.325075
2.16719
-2.49226
0.363259
-1.17408
-1.85124
-1.75877
3.61001
-2.4898
2.50997
-0.0201695
-2.68626
4.54243
-1.85617
3.07518
-2.70565
-0.369529
2.64163
0.139542
-2.78117
-1.74158
-2.6865
-1.23201
-0.323363
2.48031
2.83167
-0.037722
0.490021
-0.452299
-2.63763
-0.753151
2.34307
2.15696
-2.11732
2.70468
-0.587353
0.342215
-0.40914
0.0858042
1.39088
-1.47668
0.555657
0.868301
-0.368174
-3.59843
-4.85151
1.22678
0.000771685
-0.631372
2.30856
0.359252
2.69712
-3.05637
-1.98377
-0.179404
1.29149
2.87181
0.306016
-1.12925
1.10896
-0.836434
-0.272528
0.151012
-1.48748
1.33647
1.90643
-1.4921
2.32109
3.46204
-1.65398
3.02676
-2.11151
-0.54734
-1.04841
1.59575
2.80651
0.538075
-0.148081
-2.81168
1.92398
4.11401
-4.23383
-1.13192
-2.93899
4.07092
-1.95484
-2.23278
-3.85734
3.83971
0.0176298
0.866462
-1.06915
0.634609
2.25938
1.20267
0.232049
-1.82742
1.59537
-1.13833
-2.13622
-1.49775
-1.93345
3.4312
2.77504
0.110371
-0.105836
-0.303101
2.23037
-3.7009
1.45007
-1.39083
-2.02772
2.90124
-0.873515
2.20956
1.56434
1.53759
-3.10193
3.75503
-2.05952
-1.69551
-2.96927
-2.18057
3.20997
-1.0294
-1.0619
0.960324
-1.239
1.20537
1.62454
3.02154
-0.947576
0.835095
0.108302
-0.0477648
3.5968
-2.01999
2.36176
3.46608
-1.76315
1.00584
0.75731
0.83193
-1.35351
2.71534
-0.0166942
1.07062
2.0885
-2.36527
-0.274972
2.64024
0.824882
-0.0656106
-0.759271
0.785975
0.146611
0.521557
-3.98502
-1.21473
1.38618
2.47597
-2.36474
-0.111224
0.716313
1.56272
-0.699995
0.324633
1.15852
0.913874
-2.07239
-0.870714
3.79719
0.258693
-1.48949
3.53853
-2.04904
-0.697899
1.21615
-0.0312879
-0.649438
4.06867
-2.08674
-1.38312
-0.0491077
-0.930014
1.30197
-1.46397
-0.782659
0.689349
-1.17082
-0.669175
-0.0496884
-0.0949403
-0.74365
3.07804
-2.33439
-0.218113
-0.0056919
-0.929646
0.461998
-1.4641
0.232097
-5.26296
3.16975
1.06216
0.928584
1.14482
-0.478517
-0.666304
0.484924
0.492745
2.75135
1.84686
-4.59821
-0.5537
-0.0430735
0.596773
1.82487
-2.55541
3.60737
1.46211
2.93544
-2.57619
-3.31026
0.0178808
-0.141553
-3.67414
1.63156
0.905531
1.76503
-2.67056
1.67782
-0.237539
-0.086005
-1.2583
-0.504856
-2.56303
-1.37641
1.5477
2.50219
0.445048
2.03057
-1.88706
-0.143512
0.831383
0.0283843
-0.295525
1.08095
-0.13122
2.9587
0.717655
-3.67636
0.566293
-0.310856
-0.995158
0.617885
0.377273
-1.45642
-0.0293827
1.4858
0.747712
1.69496
-2.44268
0.901297
1.32627
2.48484
-0.0632236
-1.13412
-0.0657373
0.606506
-0.830712
1.49335
-0.662634
-5.24846
2.55497
3.162
-2.42397
-0.738039
0.070042
-0.662621
0.592579
3.163
-3.36194
1.5776
1.19744
1.37662
1.20338
-0.657373
-0.0118017
-0.364472
0.342346
0.0221256
-1.55149
-0.574356
3.99491
-2.05057
-1.94435
0.716911
-0.906342
0.189432
1.78389
-2.8809
1.09702
0.188838
2.09204
0.149058
0.304117
0.571443
-0.87556
-0.0302157
-0.334256
-3.18074
-1.27797
0.563473
3.24513
0.0167899
-3.26192
-2.97827
0.343985
0.556774
0.290936
0.00450983
0.925352
0.626707
-1.94564
2.26212
0.0889704
0.213879
-0.187877
0.517792
-1.61415
1.93923
0.0446209
1.07871
0.622103
-0.407689
2.72816
0.0381003
1.99247
-0.80534
-0.591422
-0.909276
2.06779
-0.308359
2.92686
-2.6185
-2.90989
-0.486754
-1.18658
3.66755
-2.48097
-0.692057
-0.585908
1.32626
-0.249206
-0.0727301
-1.02214
1.09487
-3.14954
1.0628
0.666486
-0.642516
2.14909
-5.7476
2.45715
-5.55867
-2.50852
3.01657
-1.74018
2.12243
-1.20855
0.049071
-2.06814
2.42281
-0.00261399
-0.672844
0.160568
-1.69864
-0.589824
-2.1366
2.72643
2.06966
4.26676
5.59986
-3.59097
-2.00889
-0.915809
0.384713
0.984045
0.0891253
-1.07317
-3.01571
0.761483
0.907717
-0.0467238
-0.0233878
-0.591383
0.61477
2.73056
-3.91714
0.372668
1.65453
0.356106
-2.01064
-3.3471
3.03874
0.649008
0.160323
-0.809331
2.24104
-4.84102
-0.650502
0.00845696
0.642045
0.844379
-0.195372
0.0324128
2.78335
-1.86573
2.13196
2.06015
-1.15885
-3.77094
1.18091
-2.32943
2.13792
0.191504
2.71169
-3.84361
-1.99947
-1.16412
3.1636
0.0242386
1.76689
-1.23091
1.07977
3.71002
-0.511564
-3.19846
0.0105819
-3.6749
2.42832
0.213312
2.0707
0.956409
-0.706361
0.00372853
0.673136
-0.994658
-1.49831
0.228359
-0.17536
-0.0529991
0.0489885
-2.79371
2.74472
-0.352118
1.39035
-1.03823
2.54223
-5.78081
3.23858
-0.0350538
-2.05037
-0.0984627
0.0716613
2.36307
-1.38754
-0.768365
2.15591
-1.58268
-1.22726
1.82579
-1.06728
-0.0789081
-0.502428
0.581336
1.22657
-0.0817534
-3.349
-0.345374
-0.424587
0.769961
1.01115
0.778849
-1.79
0.564354
-2.63042
2.06606
0.454219
-2.19299
0.585016
-4.12313
-2.0746
-1.98414
4.05874
-3.37041
0.129749
3.24066
-3.72629
-2.87809
0.265532
-1.21948
1.22568
-0.00620181
-4.95383
-1.18957
4.14827
1.57297
-0.763362
0.422613
-1.33189
-0.616345
1.94261
0.657528
0.510781
-1.61008
0.0767455
-0.67855
0.601805
-0.480476
-0.151016
-0.465511
0.535553
-1.30499
2.00209
-4.94893
2.56766
2.38127
1.04525
1.70812
1.63992
0.9061
-0.0812179
-1.5173
1.74935
-1.84279
-1.06522
-2.17742
0.730024
1.4474
0.0809806
-0.456076
0.375095
-1.80088
1.95189
-0.483026
2.81108
-1.60509
-1.58061
1.64819
-3.23086
1.62523
-1.8035
0.17827
0.575233
-0.062478
0.284683
-0.0149838
-3.60627
2.35145
0.5668
0.15011
0.0582567
-0.835194
0.776937
-5.16176
1.90734
-1.82247
1.60306
-0.795842
-0.0621312
-0.913001
0.975132
-2.23609
0.848541
-3.76961
3.40144
3.61353
-1.27474
-1.0501
0.96748
0.0826155
-0.0121671
-0.451383
-0.67389
-3.55724
1.85628
1.70096
-0.666433
0.62336
-0.333134
1.49369
-1.16055
2.41279
-0.835193
0.502359
-0.0649908
-0.437368
-1.1254
1.17002
0.475652
-0.304862
2.64616
-5.13225
3.59969
0.228631
-1.88998
1.25109
3.31058
-0.178566
-3.13201
-0.266233
1.61573
-1.34949
1.56549
-3.24381
0.977686
-2.19691
1.21922
-0.15756
-0.0350538
0.192614
-3.71674
3.85076
-0.134019
-1.23836
1.56146
2.25101
-0.991387
5.24924
-2.44499
-2.80425
-0.182275
-1.16178
1.34405
-0.162023
-1.2923
-0.0641631
-1.24437
-0.0479239
0.428588
-1.18393
0.755344
-0.358513
3.36518
-3.00667
-3.06522
0.739668
2.32556
1.01642
2.97513
0.0498322
0.372045
-0.421877
2.1534
0.979655
-3.13306
0.273618
-0.654735
-1.1087
2.86566
-1.75696
-2.65209
0.286827
2.2173
1.0366
-3.03607
-0.0112439
-0.509494
0.520738
3.37351
-1.12226
-2.25125
1.55453
0.911704
-3.4272
1.79805
3.23856
-3.4044
-1.76341
0.127359
1.63605
-0.316913
-0.167254
-0.240979
0.408233
0.395202
-0.53142
0.136218
-0.0365701
0.567436
-0.530866
-1.08144
1.04583
0.0356097
-2.1644
4.39477
-1.25048
1.13718
0.79813
-1.13126
1.35574
-2.19049
0.83475
-1.86456
-1.60181
0.55244
-0.267865
-0.160539
0.0108439
0.149695
3.36781
-1.90864
-1.45917
0.162879
2.31309
-0.987949
-0.530975
-2.29231
0.492156
1.52764
0.844961
-2.37261
-0.0471822
-0.035903
0.0830853
-0.0625308
1.43837
0.20825
-0.486956
0.278706
4.45506
-2.58816
-1.86691
-5.27654
0.682364
0.0189833
0.0165732
0.853764
-0.870337
-2.03865
-1.60509
1.13782
-1.29395
0.193132
0.0915516
-0.881061
3.42621
-2.54515
0.657425
0.0974836
-1.12714
-0.719451
-0.98029
0.994451
0.222363
-0.260863
3.343
0.246415
-3.58942
2.51315
-1.90766
-0.605486
-0.0482272
1.95466
1.02243
0.201131
-0.961387
0.787802
-0.429695
-1.24106
1.79403
-1.12077
-1.31633
1.62044
0.565103
-0.209272
0.580268
0.264112
-0.0844711
-0.0730889
2.99523
-3.11516
0.119937
4.03896
-1.72514
0.996666
0.728479
0.494386
-1.43561
-2.56376
-3.25571
-1.00495
0.939339
-0.693183
-1.09013
1.78331
-3.02915
0.798004
0.75032
0.897366
-1.64769
-0.608112
-1.88169
-0.524263
-1.52548
4.60222
1.28611
-4.30541
0.919943
-2.09538
1.17544
-1.07271
1.37872
-2.18032
-2.98143
-0.276019
0.086048
2.1313
-3.0794
1.31872
1.76068
-0.0976097
-1.27471
0.129253
-1.44177
1.31252
-3.4868
-2.17283
-0.693836
0.702293
2.66787
1.83766
0.811054
1.64044
-2.21069
-1.20092
3.2058
-0.22114
-2.98466
-1.7941
-0.527369
2.59693
-1.37623
-1.22071
1.21933
0.785688
-2.00502
-1.43722