/*--------------------------------*- C++ -*----------------------------------*\
| =========                 |                                                 |
| \\      /  F ield         | OpenFOAM: The Open Source CFD Toolbox           |
|  \\    /   O peration     | Version:  2306                                  |
|   \\  /    A nd           | Website:  www.openfoam.com                      |
|    \\/     M anipulation  |                                                 |
\*---------------------------------------------------------------------------*/
FoamFile
{
    version     2.0;
    format      ascii;
    arch        "LSB;label=32;scalar=64";
    class       volVectorField;
    location    "3.3";
    object      U;
}
// * * * * * * * * * * * * * * * * * * * * * * * * * * * * * * * * * * * * * //

dimensions      [0 1 -1 0 0 0 0];

internalField   nonuniform List<vector> 
13486
(
(6.8676 -1.68449 1.23732e-20)
(7.15111 -0.0386555 6.92955e-21)
(9.67277 -0.201423 0)
(10.4781 -5.88158 -4.58068e-20)
(11.2114 -1.50859 -5.86829e-21)
(8.84799 0.441612 -1.23204e-21)
(12.8147 0.344512 6.1294e-22)
(9.4839 -3.23197 -6.45532e-22)
(8.91344 -1.77108 0)
(7.50669 1.33959 0)
(-0.945454 2.24408 -4.88673e-21)
(8.63566 0.422013 0)
(6.42896 -2.3757 -1.2093e-20)
(8.54329 1.70839 -2.17425e-21)
(11.3347 0.194984 -4.13728e-21)
(7.41183 1.37655 -6.62126e-21)
(2.86983 -2.82876 3.69237e-21)
(8.48199 11.3881 -5.73265e-20)
(8.08172 0.166316 7.82958e-23)
(7.33195 -1.04381 -1.27587e-20)
(11.7547 -7.70751 -2.95605e-20)
(6.48795 -2.41869 1.55796e-20)
(7.20606 -0.0602114 -5.55102e-21)
(13.3958 0.874604 0)
(7.81435 1.07192 2.25374e-21)
(13.2118 0.996713 -1.21059e-20)
(4.54237 -0.896809 7.21277e-21)
(11.2655 0.188742 1.73795e-21)
(4.35228 0.484016 0)
(11.4524 -0.0547112 2.22185e-21)
(12.3099 -3.51431 -3.77412e-20)
(10.1732 1.86658 2.85214e-21)
(11.4968 2.04744 5.38442e-21)
(11.5304 0.0414017 0)
(9.51867 -3.08796 0)
(6.23358 0.0806524 -5.50962e-22)
(7.46497 -0.956752 3.60894e-21)
(7.54757 -3.50358 4.56726e-21)
(9.73769 -3.48055 -3.20117e-22)
(8.81662 -1.14285 4.55744e-21)
(12.8351 -3.50695 0)
(5.82185 -2.79832 -1.45641e-20)
(9.87347 0.222089 0)
(7.84986 0.878525 -1.04577e-20)
(7.87895 0.885692 4.26754e-21)
(8.50012 0.42547 4.05484e-21)
(-0.411675 -5.63528 1.32939e-20)
(4.92895 0.0546895 -3.95851e-22)
(7.43137 -0.89719 -2.75298e-21)
(10.1635 0.430154 4.09653e-22)
(7.99361 0.0240401 8.62261e-21)
(10.3006 -1.61316 0)
(7.71683 1.26498 -7.1053e-21)
(7.73797 -2.89034 -6.98535e-21)
(6.80259 11.976 0)
(11.0201 -1.67042 2.74337e-21)
(7.06883 -0.887982 -1.45733e-21)
(10.4804 -2.19609 1.309e-22)
(11.3694 2.10248 7.12418e-21)
(7.15787 -1.20194 0)
(-1.52544 0.679029 -4.84475e-21)
(7.16467 -1.15824 0)
(8.99233 1.12814 -1.76793e-21)
(12.4499 -7.34829 -3.54208e-22)
(-10.3281 -6.27325 0)
(7.426 -1.05368 1.7856e-21)
(8.69018 -5.39137 -3.78431e-20)
(6.65994 -0.886026 4.52934e-21)
(8.90985 -1.87444 -2.12432e-21)
(6.50037 0.155619 -1.08256e-21)
(9.62703 -5.31508 4.36984e-20)
(6.66631 11.7053 -3.46298e-21)
(8.58185 -0.727353 3.9288e-21)
(-1.45866 4.95559 -1.25182e-20)
(7.35966 -1.09537 3.80692e-22)
(6.62004 -0.751202 3.15023e-22)
(7.23972 -1.05077 -1.20687e-21)
(11.444 0.121356 1.71001e-21)
(-0.595722 -5.01814 -3.69063e-21)
(13.4595 5.44383 0)
(6.53267 0.0763961 2.72906e-22)
(6.91778 0.153078 -4.59081e-22)
(8.73563 0.837732 -5.6202e-22)
(9.59805 -0.357056 -1.28358e-21)
(6.86902 -1.69542 -2.40602e-20)
(5.80859 3.26274 0)
(2.16963 -6.33578 -6.71392e-21)
(7.95931 0.0677279 -1.35999e-20)
(7.70514 -0.000938904 -5.77811e-21)
(6.86812 1.91379 -8.91337e-21)
(9.06954 2.74349 7.69223e-22)
(10.1091 -2.55841 6.09106e-22)
(7.13558 -1.985 2.99985e-21)
(7.28851 -0.617023 3.50476e-22)
(8.68132 -2.65717 8.22342e-22)
(5.66818 0.261113 1.56811e-22)
(4.70037 -1.06923 0)
(7.55025 -5.86191 1.72435e-20)
(8.82512 -1.09447 -8.76314e-21)
(1.97351 -2.72067 3.26096e-23)
(6.75901 0.0419462 0)
(8.49688 1.70566 -8.91429e-22)
(7.48942 -6.73723 4.16986e-22)
(10.2711 -1.98289 -2.13128e-22)
(5.48442 2.92124 0)
(1.47886 -3.43052 2.68194e-22)
(8.00332 -0.136676 -9.77522e-24)
(9.9982 -4.07238 -1.35005e-21)
(-1.07917 -4.92973 6.60792e-21)
(9.76676 -4.32992 0)
(8.01634 -3.72137 0)
(11.3953 2.03231 9.74881e-21)
(7.78203 -2.8245 1.33102e-22)
(9.45962 -0.702524 1.19116e-22)
(5.62786 -1.36622 0)
(7.93984 -3.71976 -2.09869e-21)
(7.73859 1.15966 0)
(11.8585 0.0107782 0)
(8.55397 -0.698233 0)
(7.36586 -0.694458 1.90731e-21)
(7.76473 11.6429 2.14512e-20)
(-0.930255 0.931473 0)
(8.50664 -2.45028 0)
(9.92667 -3.47426 1.18747e-21)
(8.93014 -3.06757 0)
(10.4428 -1.57662 0)
(9.79014 -0.668858 4.72948e-23)
(8.29913 0.174615 5.06189e-21)
(11.7292 -0.163292 5.29387e-22)
(-6.8074 -1.93419 -1.40095e-20)
(9.96625 -1.31174 8.45236e-23)
(-0.41843 -5.36852 -3.10263e-21)
(6.19159 3.44662 2.4545e-20)
(-0.925688 1.25907 1.20108e-20)
(7.99738 0.00842413 -1.37673e-21)
(7.52366 0.58373 -7.56225e-21)
(4.03764 0.62591 -4.65931e-21)
(9.43012 -4.06626 0)
(7.31431 -0.627896 -5.86554e-22)
(9.51658 -2.51694 -6.08306e-22)
(10.6655 1.43931 -4.44942e-21)
(7.97213 1.55294 6.15185e-21)
(9.16678 1.46913 0)
(15.1738 3.14179 0)
(10.6324 0.0551966 5.83182e-22)
(7.05206 3.66315 -5.55449e-21)
(5.60395 -1.38267 -2.89652e-21)
(1.97626 1.59611 0)
(10.3316 0.637865 0)
(4.6003 0.697655 0)
(7.96724 0.0235557 1.6496e-22)
(11.797 -0.449728 0)
(6.63653 0.0721002 -2.85616e-22)
(6.84147 0.137268 -3.93176e-21)
(8.21878 0.634139 0)
(10.0012 -0.265825 0)
(9.60669 -4.13763 0)
(3.07331 -1.81077 1.75214e-20)
(8.21376 -3.23042 7.86635e-21)
(6.63702 -1.58046 3.01748e-21)
(9.15379 0.231437 -5.3007e-22)
(8.25262 -3.16797 -1.16447e-20)
(10.0317 4.70674 -3.67826e-21)
(5.1744 -2.61807 6.2681e-21)
(10.7056 -1.83509 0)
(8.79747 1.78695 1.61202e-21)
(8.36425 1.51011 6.24775e-21)
(3.6339 -1.59357 -1.81859e-20)
(5.46623 -1.46656 7.33886e-21)
(-0.842286 1.18286 3.29009e-21)
(6.04021 2.67947 2.5675e-21)
(8.19982 0.552754 3.96802e-21)
(8.04096 0.100272 -1.21274e-20)
(9.99619 0.12989 2.32423e-23)
(6.46514 0.123445 2.285e-22)
(0.268807 -8.48242 0)
(8.3666 2.52925 -4.36133e-21)
(10.3528 1.80146 5.65024e-21)
(8.02236 -0.161058 -1.26885e-20)
(9.04807 1.34342 0)
(9.12526 -1.22879 7.74246e-21)
(9.61791 -0.577783 2.407e-22)
(9.86294 0.602092 -2.73603e-23)
(2.92162 -2.09982 0)
(8.67289 -0.850193 3.47338e-21)
(10.6901 0.141875 -7.69116e-22)
(9.97827 1.69045 1.8542e-21)
(11.5687 0.230547 4.05938e-22)
(12.8759 -3.42459 0)
(7.2873 -3.49221 -3.86638e-21)
(7.36775 -0.815174 0)
(10.2125 -0.094202 0)
(11.0837 -2.86193 0)
(5.92906 1.29055 -9.31395e-21)
(11.7172 -2.91015 0)
(-0.878794 2.35703 -1.1928e-21)
(-9.64922 -2.52776 2.63432e-20)
(9.17875 0.17129 -2.15413e-22)
(6.82165 -3.31726 -2.39207e-21)
(8.76465 1.64959 1.59372e-21)
(11.6332 -5.19055 4.92989e-20)
(8.30392 0.222924 -1.58761e-22)
(7.50858 -3.57476 -5.29257e-21)
(11.7118 -4.60036 -4.03324e-21)
(6.47235 -1.43029 -3.68873e-21)
(11.8837 -2.6429 -1.44044e-21)
(8.08219 6.6005 -3.5278e-20)
(8.17132 -0.620902 9.06413e-21)
(10.9323 -2.82064 0)
(8.93601 -0.801287 0)
(11.3468 0.113183 -7.82838e-23)
(4.10092 -5.21684 1.70142e-20)
(7.39651 -0.948297 1.17158e-20)
(7.92829 -0.109621 8.57161e-25)
(8.87596 0.523168 1.42082e-21)
(10.7356 6.37129 -1.44555e-21)
(11.6237 0.0501202 0)
(6.9565 1.84168 2.05765e-20)
(7.46022 -2.00657 0)
(10.0702 1.86171 0)
(1.77526 -2.67671 -6.84684e-21)
(9.97964 0.704888 0)
(9.43855 -2.51971 1.25762e-21)
(10.3204 0.274749 0)
(6.81074 1.30158 -1.70018e-21)
(6.58131 -3.05701 4.13005e-21)
(9.08502 0.98645 1.02929e-22)
(4.92159 -9.80171 2.0719e-20)
(16.4673 2.45615 -3.97014e-21)
(2.41017 -6.50385 -2.26588e-21)
(9.10482 -1.17236 -2.5223e-21)
(12.1805 -0.529487 4.02175e-20)
(10.7158 1.53278 5.50911e-21)
(5.76139 -2.78804 5.05526e-21)
(9.39948 -9.09617 0)
(6.23215 -3.00816 4.65762e-22)
(11.7462 0.219792 -1.36213e-21)
(10.1137 -0.113033 -8.68155e-22)
(6.37051 -3.02698 1.29915e-20)
(9.48618 0.396728 0)
(11.5399 2.57808 0)
(7.98358 0.106517 1.87129e-20)
(10.5627 -0.166929 0)
(6.10294 -3.01306 4.05919e-21)
(8.6148 -4.20822 -1.09124e-21)
(7.70988 -0.500749 0)
(9.34788 0.187331 -7.20169e-22)
(14.212 -0.550612 1.4021e-20)
(-3.3162 2.76153 2.35486e-20)
(7.79354 0.789356 0)
(4.02575 -4.52053 -3.87433e-21)
(5.53699 -1.28503 2.02202e-21)
(7.47831 -3.63496 2.13358e-21)
(10.1961 -4.08374 0)
(17.7573 1.04084 1.1833e-20)
(-0.728561 -8.26874 2.4927e-21)
(10.3459 1.86135 -1.96281e-21)
(8.17561 5.88934 1.82663e-21)
(4.2081 -1.58195 -1.83482e-20)
(11.8693 2.17579 6.6463e-21)
(7.46045 -0.0711113 0)
(8.44361 -4.10433 1.25186e-22)
(11.3517 0.23306 9.15517e-21)
(-0.333628 -7.65859 -3.11255e-21)
(10.9625 -3.04385 5.35784e-21)
(2.80226 -2.29819 0)
(15.1522 1.91631 -3.74877e-21)
(12.2261 -6.00786 -4.90129e-20)
(8.748 -0.113673 -4.94809e-21)
(2.69214 7.84307 0)
(6.63174 1.52703 7.47239e-21)
(7.96043 -0.0594566 -3.5632e-21)
(11.5726 0.159263 0)
(8.06685 0.55485 4.21301e-21)
(6.78801 -3.17888 5.49443e-21)
(13.0409 -0.671562 -7.79087e-21)
(16.1191 -0.696349 0)
(0.468258 11.3817 0)
(10.5694 -4.56636 -2.87324e-21)
(5.66041 -1.25182 5.96953e-21)
(0.0322964 9.68562 4.37075e-20)
(9.32512 -0.652126 -2.70219e-21)
(7.97457 -0.166391 7.66256e-21)
(5.06262 4.27134 -1.58706e-20)
(-0.265329 0.137761 4.51646e-21)
(4.52914 -2.44356 1.2699e-20)
(10.2952 1.42255 3.7183e-21)
(11.3363 -0.02357 -6.9612e-22)
(7.73765 1.267 3.24308e-21)
(8.52938 -0.110619 0)
(9.78582 -8.37281 0)
(7.0333 -2.2 -1.30546e-21)
(7.82878 -3.6504 2.9121e-21)
(8.00131 0.0215621 -1.34124e-21)
(11.528 0.126388 -1.48335e-21)
(11.6447 0.223505 0)
(9.99242 0.004688 6.61616e-22)
(8.02607 0.369288 -4.03745e-21)
(7.95357 -0.254303 -6.92914e-21)
(13.1612 -1.15393 -1.31558e-20)
(9.53289 4.04865 4.4869e-21)
(8.64029 8.07405 2.04759e-22)
(5.72866 -1.31667 -5.08704e-21)
(10.5014 1.57866 -2.4109e-21)
(7.49478 -0.686 -6.62032e-22)
(9.50105 -4.59053 0)
(8.26974 -0.204284 0)
(8.54639 0.124738 1.3336e-21)
(1.81102 -7.48659 7.8033e-21)
(7.41883 -0.857931 0)
(7.48526 4.90847 -1.4708e-20)
(9.64957 -5.30147 0)
(8.08806 2.41091 3.09917e-21)
(11.6742 2.14947 9.03367e-21)
(-0.434568 2.72062 0)
(7.55671 0.466604 -4.75889e-21)
(7.40413 -2.15893 1.93607e-21)
(7.64445 -0.0294669 -4.93168e-22)
(8.14702 -0.615727 -1.01789e-20)
(13.9425 2.50145 0)
(7.41587 -0.977994 -3.22254e-21)
(7.59444 -2.34067 -1.83867e-24)
(8.04974 -0.0545497 1.60726e-21)
(7.21844 -0.504803 -6.7244e-21)
(4.41333 0.242841 8.4696e-21)
(9.60076 2.44431 -8.24538e-22)
(10.3535 -0.930425 2.20666e-21)
(9.37549 -0.613478 0)
(7.95833 -0.320397 -1.10291e-22)
(10.5224 -0.843818 1.37776e-21)
(8.00791 0.0141565 1.96534e-20)
(10.2701 -2.54768 0)
(9.04151 3.1993 6.85609e-22)
(6.48353 0.0586001 0)
(12.6434 0.35783 2.67496e-20)
(8.97021 -2.42728 -1.81304e-21)
(4.66911 -2.23681 6.54888e-21)
(11.7407 -0.675126 7.50363e-21)
(7.97868 0.279703 0)
(8.18795 -3.90283 -7.49769e-22)
(14.1392 2.32382 3.60089e-22)
(7.21389 -0.493691 6.35885e-21)
(10.6751 -0.850558 -3.78708e-21)
(9.88215 0.636053 7.06031e-22)
(2.2835 -2.11644 -4.43032e-21)
(5.11551 0.201766 -6.78465e-23)
(9.74364 -0.271067 0)
(5.5674 -2.21807 1.50777e-20)
(10.0544 1.76403 0)
(7.48879 -2.3447 3.85633e-23)
(9.42233 -0.048729 4.2108e-21)
(7.8548 0.0212992 -5.24909e-21)
(8.00103 0.610446 3.83229e-21)
(3.5265 -0.973034 -8.33022e-21)
(7.98463 -0.22134 8.62195e-21)
(6.94718 -0.0294859 0)
(-1.88586 4.00824 -1.04497e-20)
(9.78744 -0.620573 -9.28417e-22)
(2.66624 -7.83835 -6.22384e-21)
(9.02835 -5.72894 1.16701e-20)
(9.4278 0.133999 0)
(9.02688 2.73687 1.02594e-21)
(7.56235 -0.278862 1.39809e-20)
(7.97354 -0.0650506 1.08345e-20)
(11.4778 0.0557796 0)
(6.69627 0.0887145 -6.02041e-23)
(11.4811 0.151713 1.2793e-21)
(1.36648 -5.36951 3.5962e-21)
(7.27782 -1.02773 1.63157e-21)
(9.74893 -0.528042 8.85534e-22)
(10.7004 0.204757 -2.69355e-22)
(9.70007 -0.299479 0)
(6.51077 0.984855 -7.82114e-21)
(3.36656 -3.95345 2.72022e-21)
(8.70151 0.976743 -2.96828e-21)
(7.99732 0.0191838 7.20125e-21)
(6.55128 0.00967695 0)
(7.63764 -2.87297 1.40882e-21)
(0.10546 2.78332 0)
(10.8362 3.01417 -3.54648e-21)
(8.81078 -0.140891 0)
(10.299 -3.02598 -3.0107e-22)
(6.49073 -1.41678 -3.5803e-21)
(6.83964 1.29278 1.69982e-20)
(1.542 -5.58376 -1.06626e-20)
(17.1168 0.379232 0)
(8.63891 0.125443 -4.86648e-21)
(7.97956 0.288976 -5.26884e-21)
(-2.31164 -0.216846 -4.9538e-21)
(14.7906 -3.67828 5.59908e-21)
(7.49006 -1.00145 -1.74596e-20)
(11.5691 0.199541 8.33208e-22)
(8.04705 0.327335 4.14189e-21)
(7.09407 -2.43031 0)
(6.29877 -0.22593 7.8733e-21)
(7.23959 -0.660872 1.80677e-21)
(9.35379 -5.52759 2.60625e-20)
(3.50787 -4.10009 -1.06407e-20)
(-1.49167 -1.28495 -5.82757e-21)
(10.4419 1.54591 0)
(-2.47749 -0.591727 0)
(7.34621 2.47594 0)
(9.077 -0.33572 0)
(9.86446 -2.31954 -2.03321e-20)
(12.4618 0.631284 0)
(1.88714 -0.605111 0)
(7.33304 -0.54058 2.57836e-21)
(10.4204 1.79654 -5.8056e-21)
(9.58704 -0.341682 -2.89221e-21)
(7.1679 0.0819136 2.44277e-20)
(8.01034 0.0641452 -2.63199e-21)
(7.63243 4.04132 0)
(11.5025 0.402312 0)
(7.96901 -0.245419 7.41164e-21)
(7.97764 0.0399482 1.288e-21)
(4.74957 1.02459 0)
(3.18475 -2.19029 5.24778e-21)
(10.7789 -3.11497 -6.01012e-21)
(4.82279 1.33594 0)
(9.52772 0.444889 2.19631e-21)
(8.09968 -0.111579 -8.5192e-21)
(13.2694 4.39399 2.06088e-20)
(5.54807 -2.18261 0)
(7.92631 0.295548 9.5188e-21)
(9.27816 0.70975 0)
(11.4648 0.153257 0)
(8.35972 0.392494 -7.43954e-22)
(7.94285 -0.16044 4.0708e-21)
(5.26848 -1.17029 -9.45236e-21)
(8.33435 1.45134 2.09857e-21)
(6.6273 -2.09705 -5.91654e-21)
(8.9708 -0.304167 6.30297e-22)
(8.13665 0.374408 3.31447e-21)
(7.37835 0.870938 2.16897e-20)
(11.2967 -2.8621 0)
(13.4301 0.364831 6.68261e-21)
(6.47763 -1.22967 0)
(7.19393 -2.40912 -1.11956e-21)
(9.97922 0.0526868 0)
(6.72901 -0.851636 9.70494e-21)
(-3.3562 -5.15852 -1.72061e-20)
(11.6383 0.117623 0)
(-0.881241 0.203627 4.91071e-22)
(11.6493 0.400459 -3.12713e-21)
(4.83595 -3.6056 -4.87961e-22)
(8.17239 -1.50805 1.37842e-20)
(6.22561 1.15632 -1.07009e-20)
(6.5943 -2.07893 -1.71981e-20)
(11.2455 2.83503 0)
(7.37838 -0.703932 -1.80294e-21)
(2.09001 -1.92881 -1.00181e-20)
(7.94746 0.293854 0)
(7.62778 -0.00232226 5.40312e-22)
(9.52019 0.28152 -1.03991e-22)
(9.05179 2.70288 0)
(7.98371 -0.0110942 0)
(5.27912 -3.1873 0)
(-0.0869727 -8.84835 1.57847e-20)
(5.94459 6.0039 1.87951e-20)
(7.61373 3.62962 -2.21606e-22)
(8.0844 2.26732 0)
(7.80662 -1.30114 1.03984e-20)
(6.48426 0.0730504 -5.06039e-22)
(8.35627 1.34495 -4.881e-21)
(11.054 -6.45783 4.99959e-20)
(7.79093 0.000743916 0)
(4.769 0.0312452 0)
(4.79249 -1.5897 -1.08449e-20)
(6.99288 -2.41952 -3.97419e-21)
(8.72622 -0.928009 0)
(8.835 -4.07249 6.0626e-22)
(7.01325 0.0541954 4.08955e-22)
(5.80899 0.389819 -2.71108e-22)
(5.04152 -2.3721 0)
(11.1658 -1.26771 -9.95291e-22)
(7.31944 -0.60779 -1.70496e-21)
(9.27678 0.695103 -1.35296e-21)
(8.92563 -2.54186 0)
(4.34348 -2.78888 -1.94397e-20)
(8.00626 0.210506 4.40934e-21)
(7.99116 0.162412 1.87747e-21)
(6.8914 -0.0444919 -9.72514e-22)
(8.92956 1.77049 0)
(7.1569 0.0698108 -6.49136e-21)
(9.61056 1.56342 -1.50659e-21)
(-0.310918 -1.7172 6.94623e-22)
(7.96203 0.0712381 0)
(14.1431 -3.78458 -5.74493e-21)
(3.76792 -1.42422 0)
(7.99774 0.0942361 -7.51587e-21)
(7.95038 0.0317445 2.88918e-21)
(7.99058 -0.416706 -1.43776e-21)
(1.10156 -8.96677 0)
(9.36229 -0.218344 -2.15627e-21)
(5.5151 0.0261321 2.20656e-20)
(11.2816 -2.90948 0)
(7.28307 -0.60106 7.87276e-21)
(12.8191 -1.25503 1.51514e-20)
(8.55883 0.00663975 0)
(11.113 -7.03091 2.25594e-20)
(16.3522 0.447522 -6.58559e-20)
(10.7407 0.175281 0)
(1.21195 -3.5403 1.00684e-20)
(7.61044 -0.0403553 0)
(8.44083 -3.80032 2.1339e-21)
(3.89212 -4.6858 6.34211e-21)
(9.78355 1.24369 -1.86882e-21)
(8.93702 0.426568 2.19929e-21)
(6.31355 -0.271668 4.09682e-21)
(8.17224 -1.60241 -4.97983e-21)
(15.9667 -0.912097 -3.6344e-21)
(8.52283 -3.72274 1.24233e-22)
(9.70318 -0.575693 1.04337e-21)
(8.94117 1.74588 -2.78424e-21)
(10.4777 -4.49044 0)
(8.00074 0.0116325 -6.38731e-21)
(5.6365 2.44546 -1.3022e-20)
(6.57232 -1.24883 0)
(7.10741 -0.818735 6.44993e-22)
(6.5737 0.122322 0)
(6.22917 -2.17812 1.52404e-20)
(10.0721 -3.40565 0)
(6.64915 0.0442705 9.44752e-22)
(9.58024 -0.0788409 -2.44614e-21)
(9.31682 -7.41389 4.89028e-20)
(5.80555 -3.68086 1.37636e-20)
(9.438 0.20847 -3.43098e-23)
(9.59506 -4.4786 -4.29279e-21)
(8.45914 -2.46238 3.93407e-21)
(7.12346 -1.9817 0)
(1.30376 -1.12188 -3.56111e-21)
(11.4888 -2.65705 1.12995e-21)
(1.49079 -1.3033 -4.19182e-21)
(5.37495 0.225998 1.40883e-22)
(7.0858 -2.80988 0)
(8.69647 -0.00318638 -5.51438e-23)
(3.31621 -2.40874 0)
(7.22584 -6.39005 1.90584e-22)
(14.6091 5.80086 -2.61613e-20)
(2.47989 -1.12154 0)
(9.7874 -2.19547 2.43421e-22)
(-10.5042 -3.68476 0)
(9.02763 2.6011 0)
(8.19894 -3.85427 -2.8274e-21)
(6.53981 -0.0763399 6.4344e-21)
(0.823424 11.0104 0)
(7.55454 -0.196269 -3.91625e-21)
(7.35094 3.09362 4.56117e-21)
(2.70144 -3.68175 1.0054e-20)
(9.07589 3.57919 0)
(8.39054 -0.0324504 0)
(2.00706 -1.74548 -3.95994e-21)
(8.29348 -0.838806 0)
(9.14368 -0.390261 0)
(-1.84064 0.425507 -4.2248e-22)
(9.54056 -1.54011 -3.08567e-21)
(8.24842 -2.11979 3.77025e-21)
(12.2585 2.39504 1.04656e-21)
(1.34114 -1.08306 7.08074e-21)
(7.99714 0.0284652 3.27852e-21)
(7.2845 -2.04904 0)
(8.12186 0.943503 -1.95263e-21)
(6.82359 -1.61303 0)
(8.66752 -0.178656 0)
(7.96878 0.18891 0)
(8.3277 0.371159 -6.07377e-22)
(8.11389 -0.651824 4.68853e-21)
(10.9113 -0.09987 -8.17223e-22)
(7.4465 -2.06851 0)
(3.80093 -0.909214 -6.95789e-21)
(7.33043 2.3281 4.84828e-21)
(8.9369 -3.09393 1.9476e-22)
(11.699 -0.149497 1.3404e-21)
(13.6023 -0.969868 6.21653e-21)
(8.19223 0.0435779 -4.84702e-21)
(-3.50097 -3.9506 0)
(8.15319 0.372777 0)
(5.73398 1.20252 0)
(6.33172 -2.88014 -1.05797e-20)
(-1.29955 -1.18789 -7.85901e-20)
(10.8776 0.0181452 0)
(8.15908 0.952231 0)
(7.34762 1.84211 5.50817e-21)
(8.33708 -0.0678191 -1.02092e-21)
(7.41131 1.07521 8.87417e-21)
(12.1888 -4.68238 0)
(4.91583 -0.768346 -2.16553e-21)
(8.73492 0.149058 2.70326e-21)
(6.86186 -2.31561 -9.62076e-21)
(8.37936 0.180576 -3.94468e-21)
(8.2842 1.33095 6.38831e-21)
(-4.51184 -6.41113 2.26219e-20)
(6.24867 -2.84461 1.83532e-20)
(0.893922 3.52726 -1.05452e-20)
(10.2599 -0.390692 2.81128e-22)
(7.98828 -0.00589887 -1.52951e-21)
(8.22536 -3.93804 6.86514e-22)
(16.5927 -2.06026 3.38396e-20)
(5.73591 4.33339 -6.16193e-21)
(8.5839 -3.98537 1.46004e-22)
(7.96762 -0.510351 0)
(2.14637 -4.18763 -1.02383e-22)
(8.46935 -0.0253157 -8.35643e-21)
(9.49891 1.95199 4.77774e-22)
(6.74026 -2.1954 -8.98625e-21)
(8.8426 -2.9866 -2.71628e-21)
(8.7631 0.0450705 7.60145e-21)
(11.279 -0.114619 -4.36842e-21)
(4.2838 1.85145 -6.20213e-21)
(10.2474 1.50949 -1.8921e-21)
(5.9075 -1.62761 -2.17478e-20)
(8.57336 -0.0382505 -7.26002e-21)
(5.8851 -1.82891 0)
(5.26502 -9.33215 -8.45833e-20)
(9.06325 -0.0130938 1.11303e-20)
(5.87171 0.0552033 -2.20405e-22)
(-1.62407 4.04994 0)
(9.33654 -4.12967 0)
(7.84132 0.732947 7.83846e-21)
(5.52041 -1.62996 1.37418e-20)
(-9.63312 -8.02419 -3.36857e-20)
(10.4076 -2.98308 1.616e-21)
(10.4544 -0.912391 -1.3537e-21)
(10.1337 1.73485 0)
(7.81928 0.79509 4.49191e-21)
(8.46787 8.68061 -2.20834e-21)
(8.5549 2.44675 -3.60303e-21)
(9.0142 -1.18396 -4.89356e-21)
(1.79095 -1.82367 -1.11205e-20)
(12.5866 -0.924565 -5.3865e-21)
(14.7819 0.597551 5.71826e-21)
(7.81907 2.76028 0)
(12.0528 1.24999 1.64732e-21)
(7.9514 -0.411748 1.28063e-21)
(6.56836 0.0860428 2.86602e-22)
(5.21329 -2.61379 1.77616e-20)
(8.89587 -1.23794 7.42734e-21)
(6.57021 -1.51094 -1.51832e-21)
(3.08583 -3.73739 -6.18292e-21)
(11.0341 0.0873194 -5.95876e-23)
(8.51262 0.0657935 6.51197e-21)
(-0.129582 0.853342 -5.68562e-22)
(8.33139 2.33333 8.28883e-21)
(1.9302 -3.37273 -1.094e-20)
(6.50613 -3.1191 -5.04271e-21)
(6.61434 0.179504 0)
(7.41531 -0.706059 -1.31532e-21)
(-1.11941 -2.86367 -2.65948e-21)
(6.46581 -1.49437 1.90468e-20)
(11.033 0.130353 0)
(9.06554 4.99809 -3.6435e-21)
(6.0843 -2.62538 4.31413e-21)
(7.96964 0.0293099 -1.40585e-20)
(3.19143 -2.37884 -5.68577e-21)
(-0.951581 7.52486 -2.20646e-20)
(9.64952 -0.340119 1.94175e-21)
(8.49399 0.180328 7.32895e-21)
(8.54529 -3.8429 -2.24673e-21)
(10.844 -0.195357 1.03994e-21)
(-5.05278 -3.63382 -1.40943e-19)
(8.44232 -0.0355964 7.83963e-21)
(8.90815 -0.281019 -2.78248e-21)
(8.2502 0.231168 -7.97259e-23)
(10.2362 0.0369971 -5.40385e-21)
(5.96212 -2.6943 -8.33154e-21)
(10.2403 -0.302605 0)
(3.1349 -9.91818 2.2653e-20)
(8.52993 0.0434964 9.36069e-22)
(13.7264 3.85676 2.1886e-20)
(9.40716 0.128925 2.17976e-21)
(10.2214 -1.18707 -5.25648e-25)
(7.99471 0.0609725 -1.19753e-20)
(8.07568 0.581679 2.52597e-21)
(3.74965 -2.25681 -5.39392e-21)
(9.32789 -0.371769 0)
(7.69923 -3.04017 -7.20304e-22)
(7.70634 -0.151939 5.38001e-21)
(7.1141 -2.76272 0)
(8.22526 0.165474 5.30677e-21)
(7.81219 -0.473565 7.06613e-21)
(9.36265 -0.359787 6.1487e-25)
(13.1538 -3.94625 1.16295e-20)
(12.0615 -2.24427 0)
(7.32194 0.311628 1.2437e-20)
(6.71213 -1.32545 1.82791e-21)
(8.34434 -3.85341 1.79003e-21)
(8.95538 -0.795384 0)
(6.55021 -0.11693 -1.8488e-20)
(7.20592 11.0292 1.60877e-20)
(8.25156 3.64392 2.75399e-21)
(5.95614 -1.67464 2.12114e-20)
(10.8142 0.285693 1.31459e-21)
(5.23862 -3.39136 9.49276e-21)
(8.4879 -0.701767 -6.65895e-21)
(13.0272 0.92497 -8.75614e-21)
(7.55677 -0.261642 -8.07667e-21)
(9.78206 0.0810312 0)
(7.9807 -0.0108776 -5.74539e-21)
(-0.944654 -0.311197 9.34924e-20)
(-0.61803 3.10266 0)
(9.68744 -3.93325 0)
(6.56016 0.0937451 0)
(0.882039 -2.05123 0)
(7.98714 0.527374 0)
(5.73144 -1.61101 0)
(9.5914 3.46153 1.16469e-21)
(8.07252 4.27567 -5.03211e-21)
(9.10326 1.04046 0)
(7.35669 0.202343 1.8528e-20)
(2.22336 8.81195 -2.31096e-20)
(8.08921 0.371141 1.16608e-22)
(-1.63072 -1.60241 -1.04744e-21)
(5.68877 -0.952143 4.49512e-23)
(3.42189 -2.36039 4.88414e-21)
(7.80037 0.0862916 -2.12273e-21)
(9.98409 0.470892 1.0217e-22)
(7.93561 0.480018 -5.23902e-21)
(7.69196 -0.0536245 -1.13704e-20)
(7.25181 2.00353 -8.90551e-21)
(10.8545 2.90136 0)
(13.0574 -6.51215 1.29341e-20)
(6.29474 -2.23286 -1.66725e-20)
(8.04853 0.0270288 -1.71817e-20)
(11.5726 -2.48797 1.30359e-20)
(9.85886 -0.0529158 9.83055e-22)
(13.7674 -1.68837 -1.86628e-20)
(9.69174 -0.984377 -3.04853e-22)
(9.83429 -2.1681 -7.20457e-22)
(8.00746 0.265411 5.46118e-21)
(9.47965 5.91206 0)
(15.3206 -2.05983 -3.10367e-21)
(7.41622 -0.601457 -2.43243e-21)
(12.2805 0.999787 0)
(10.8109 -3.96938 0)
(9.00224 -3.98229 -1.22985e-22)
(5.39452 -3.74666 1.11053e-20)
(8.15099 5.04955 1.19533e-20)
(9.25737 -1.06893 0)
(8.26816 -0.625876 -9.34627e-21)
(7.53995 -0.0479973 -2.18957e-21)
(5.28298 -11.1563 1.53693e-20)
(8.49226 -0.728899 3.48201e-21)
(3.83588 -2.52442 0)
(12.262 -6.953 1.41459e-20)
(8.43217 -0.581949 0)
(12.4776 1.57558 -1.53034e-21)
(8.59653 2.78731 -7.02841e-22)
(8.05064 0.0130319 5.45834e-25)
(8.38509 1.53404 -1.10668e-20)
(9.05152 3.10682 -5.62097e-22)
(8.21343 -2.42008 8.67354e-21)
(15.4111 3.00063 0)
(-8.19721 -0.257084 -3.81698e-20)
(1.207 12.8589 0)
(9.21366 1.07551 3.40692e-22)
(6.40205 -9.91148 3.41536e-20)
(7.66137 -3.68557 2.66123e-20)
(8.09734 -3.27584 4.15736e-22)
(-2.38007 -6.60585 -1.16262e-20)
(7.66329 -3.55409 -2.06744e-21)
(6.45149 -2.22867 -9.50516e-21)
(7.2474 -0.646823 -6.27925e-22)
(-6.99149 1.35093 3.13394e-20)
(6.00047 -2.72479 6.84928e-21)
(6.66621 -2.30749 1.00805e-20)
(-0.782219 0.510746 1.02551e-19)
(-7.476 -4.88759 -1.00427e-20)
(8.74502 -2.6577 3.12253e-21)
(-0.314939 -5.47042 1.74782e-20)
(10.7731 0.0268842 7.04424e-22)
(1.89053 8.48853 2.16622e-20)
(8.49203 0.977064 -2.75803e-21)
(11.0314 -1.75244 0)
(0.602699 -1.59686 -8.20116e-21)
(8.29735 -0.0240752 -9.17466e-21)
(7.95144 0.142814 0)
(9.19777 1.02952 0)
(-1.21956 7.93786 -5.22991e-20)
(12.8179 3.29966 -1.47908e-20)
(8.81725 0.601606 -5.66075e-21)
(9.52075 -1.49673 4.02435e-21)
(7.29155 2.00236 7.62327e-21)
(7.38406 -0.0284311 4.85672e-21)
(4.95299 -9.71445 -1.31901e-22)
(7.06925 0.976966 0)
(6.81186 -2.39986 9.39086e-21)
(-2.08886 0.617149 9.682e-22)
(-1.03057 -6.31374 9.26738e-21)
(8.19162 -3.1006 1.235e-21)
(9.98626 -4.57521 4.75126e-21)
(8.16575 -0.0193123 2.6552e-21)
(9.4284 -3.50336 1.68959e-22)
(11.4488 0.27349 -1.96809e-21)
(4.89053 -10.1038 -1.50898e-20)
(8.79649 0.576794 4.28717e-21)
(7.99593 -0.238516 4.26785e-21)
(5.84689 -1.80759 -8.70409e-21)
(8.29519 -0.757878 5.65638e-21)
(3.39551 2.03196 0)
(8.694 0.927267 5.20512e-21)
(8.00766 -0.112612 9.55127e-22)
(7.0741 -1.87503 -3.08246e-21)
(6.43157 3.90118 -5.12581e-21)
(8.61191 -2.63376 2.68079e-21)
(8.20657 -0.0379244 1.729e-21)
(6.39327 -0.658655 -1.34369e-20)
(12.4573 0.622575 0)
(8.11156 -2.88965 1.40349e-21)
(8.35753 0.203571 5.32993e-21)
(12.7328 -0.542653 0)
(6.59181 -0.937761 7.48107e-21)
(8.59666 -0.769915 0)
(5.78171 3.7208 2.04037e-20)
(10.7352 -0.0385097 0)
(16.7645 -1.09456 0)
(8.7785 0.245551 1.90159e-21)
(8.76823 0.433465 3.44922e-21)
(9.96453 1.47851 -2.24101e-21)
(7.84996 -0.00976978 -5.20916e-21)
(6.11417 2.01174 -5.52089e-21)
(8.0673 0.0976801 -2.33875e-21)
(8.02022 0.559328 0)
(3.07515 -1.47183 2.43464e-22)
(9.05292 0.459671 -2.35754e-21)
(12.7509 1.65425 2.76336e-21)
(11.0487 -1.79662 0)
(9.71245 1.93687 1.02519e-21)
(7.24635 3.93704 -8.01658e-22)
(10.9501 0.0602835 2.91125e-21)
(-6.70644 -4.29777 0)
(-2.29092 0.0535981 3.96931e-21)
(8.08141 0.283428 0)
(11.5053 0.0701067 8.20335e-22)
(-2.68349 2.4093 0)
(7.87144 -0.156125 0)
(-0.461546 4.07216 0)
(9.83727 -3.40392 0)
(0.138477 2.12522 -1.1292e-21)
(-0.669586 -9.44754 -3.93631e-21)
(8.14132 -0.645716 -7.02842e-21)
(8.82668 -8.3032 -5.05244e-20)
(6.32968 -2.78394 0)
(2.69309 -8.93513 -4.12734e-20)
(-3.67073 2.95887 -2.33554e-20)
(7.68223 -3.57441 0)
(7.11049 -2.62825 -9.46573e-21)
(7.26705 -1.08763 4.39548e-22)
(8.46457 0.922475 7.20796e-21)
(12.4247 -3.54886 -9.803e-21)
(7.67726 -0.117028 0)
(10.8001 -2.86635 0)
(9.55553 1.52559 1.041e-21)
(16.639 -5.25904 5.71518e-21)
(7.55342 -0.764583 1.35209e-21)
(-1.81374 11.6554 4.64317e-21)
(8.00091 0.016467 4.26481e-22)
(7.03906 -0.65053 -5.80594e-23)
(7.97888 0.263523 7.77651e-21)
(7.67798 -2.48781 -9.46989e-22)
(8.94059 -2.36724 0)
(5.87397 -1.17009 0)
(10.6775 -0.129637 0)
(6.46854 0.0204206 0)
(8.06027 -1.7579 3.73669e-21)
(10.5263 0.93844 0)
(-1.30708 1.78526 8.46732e-21)
(-7.97167 -4.12164 -2.04385e-21)
(6.56863 -2.35674 -1.52866e-20)
(3.61503 7.75258 9.07132e-21)
(1.82095 -11.4111 -1.07223e-20)
(-1.86588 2.28742 -4.85427e-21)
(8.97625 0.0467018 1.36719e-21)
(3.37088 -7.79608 -8.56351e-21)
(7.59344 -2.29189 -1.72258e-21)
(8.89285 0.146831 0)
(11.0246 -0.293246 0)
(-2.0449 5.4843 0)
(10.223 -1.30269 -1.61715e-22)
(-8.51151 -2.18834 0)
(7.15305 0.969921 0)
(8.00751 0.0196212 0)
(8.30324 -2.10633 3.55788e-21)
(8.15512 0.329445 -8.29072e-21)
(6.66915 0.169682 0)
(9.94738 2.73724 1.09307e-20)
(7.88802 0.244305 -6.82345e-21)
(8.532 2.31469 7.34301e-21)
(7.72484 -3.52181 4.46787e-21)
(7.34124 1.21754 1.13265e-22)
(12.5611 7.55157 -5.81634e-21)
(10.4169 -4.75177 2.82385e-21)
(16.9816 1.8742 -1.28283e-20)
(8.73399 0.470137 -4.64255e-21)
(7.47291 -0.661196 3.05609e-21)
(7.76216 -0.380401 -7.5048e-21)
(8.3762 -0.0258759 0)
(13.5012 5.10191 -1.61636e-20)
(7.9377 -0.0843835 7.9394e-21)
(7.4129 10.7306 2.86328e-20)
(9.65254 -0.962886 -1.03582e-21)
(5.60588 -1.6949 -1.49487e-20)
(8.75105 0.387251 7.80388e-22)
(10.0596 1.60367 2.17949e-21)
(8.00533 0.111719 0)
(2.50699 -2.64582 -2.19448e-21)
(9.33955 -1.6183 4.2159e-22)
(15.0006 2.34592 1.23507e-20)
(10.6979 -7.24372 -5.70518e-20)
(8.32489 -0.103346 3.68356e-21)
(10.7233 -0.23768 -2.97191e-22)
(10.801 0.214191 -1.00332e-21)
(10.7898 -0.0875066 0)
(6.29494 6.87082 0)
(7.30762 -3.44687 6.28312e-21)
(3.63918 -2.48085 6.14115e-21)
(6.63934 0.0873601 4.89489e-23)
(7.98779 -0.110747 1.56952e-20)
(2.29341 -2.21797 6.89504e-21)
(6.51324 -0.234081 0)
(7.66384 -0.415394 0)
(7.57015 -1.96295 -1.66552e-22)
(8.5919 0.0977835 2.91294e-21)
(7.42805 1.13671 1.26184e-20)
(9.23027 1.19355 0)
(9.37203 -0.135958 0)
(10.0714 -2.40676 -1.46968e-21)
(8.82617 -0.770039 4.50875e-21)
(4.22452 -0.774685 -1.31054e-20)
(11.4753 -0.28025 0)
(7.23066 -0.789868 8.66616e-23)
(8.86671 -1.5491 3.08872e-21)
(-0.632332 -3.0869 -2.86965e-21)
(8.50155 -0.313829 -7.41127e-21)
(9.36078 4.23539 0)
(13.0598 2.97111 1.1902e-20)
(-6.50967 -5.05056 -2.10161e-20)
(-0.116318 1.09406 0)
(6.78526 -0.024291 2.94596e-21)
(7.85035 -0.154042 -5.30147e-21)
(6.96844 0.0574679 2.65223e-24)
(9.56564 2.88258 -9.03958e-22)
(7.72278 7.50891 4.79049e-21)
(8.65567 0.0509959 0)
(5.61671 -2.28882 -1.57197e-22)
(1.95001 -1.21192 -6.69448e-21)
(-0.735632 2.74666 -1.55686e-20)
(7.96658 0.481533 6.20387e-21)
(13.1426 2.72733 6.04193e-20)
(8.20144 -0.0279765 -1.70529e-20)
(6.90658 -1.64298 8.641e-22)
(8.92256 -4.38277 1.20116e-21)
(8.16685 -1.98987 0)
(9.76586 -0.742567 -1.04335e-21)
(5.92186 -2.79018 5.49782e-21)
(9.46473 -0.0777134 -4.97589e-21)
(8.00752 -0.0971324 -7.06531e-21)
(11.5383 0.222235 -8.0717e-22)
(7.64881 -1.25709 1.56401e-20)
(10.4406 0.0130406 -8.22016e-22)
(7.63027 -0.359624 4.45257e-21)
(7.14424 -0.850846 2.00516e-21)
(11.9025 2.67226 -1.09784e-20)
(8.3496 2.53443 6.01955e-21)
(-9.20245 -8.53062 2.65065e-20)
(8.523 0.0432208 0)
(-1.62109 -0.80214 0)
(12.0614 -0.303956 0)
(6.53487 -2.24293 1.19162e-20)
(8.05039 0.0293534 -1.12204e-20)
(7.48517 -0.0531974 0)
(7.22538 -1.91164 -8.84143e-21)
(7.47514 -0.13862 0)
(8.05979 -1.59458 -6.17387e-21)
(13.0262 1.78577 4.13175e-21)
(8.81806 -2.22468 -3.58116e-21)
(8.75203 0.0517028 0)
(8.0454 -0.256984 0)
(11.7635 -0.339436 -1.14121e-21)
(9.124 0.915736 -1.024e-22)
(10.3873 0.378508 1.14613e-21)
(7.46704 4.22083 -5.84161e-22)
(9.38734 1.90608 0)
(8.24915 -3.02439 -1.97266e-21)
(-1.44864 3.0241 0)
(3.98416 1.12643 -9.25622e-21)
(9.05716 3.10711 0)
(10.5107 -0.179893 5.98661e-22)
(5.92216 -1.54904 5.66667e-21)
(7.08961 -1.31475 5.31473e-21)
(11.0185 -0.100676 1.33909e-21)
(-7.42146 -7.06547 -8.25648e-20)
(8.75162 -0.946629 1.13284e-20)
(7.96467 0.530676 -1.17383e-22)
(13.8645 -1.88025 2.28744e-20)
(9.20558 -1.81934 -1.52528e-21)
(-0.738837 2.28009 7.61819e-21)
(9.05619 1.35855 0)
(8.03969 -0.0282168 -6.16821e-25)
(7.34719 -2.12052 0)
(9.07477 -3.88345 -9.86653e-22)
(8.34547 -2.99848 -9.45063e-22)
(7.68807 -1.16316 -5.08576e-21)
(6.65773 0.055363 6.68406e-23)
(9.66408 0.30754 7.07089e-22)
(7.53391 -0.894669 1.12023e-20)
(9.41687 0.409716 -2.04582e-21)
(7.44293 -0.775678 0)