/*--------------------------------*- C++ -*----------------------------------*\
| =========                 |                                                 |
| \\      /  F ield         | OpenFOAM: The Open Source CFD Toolbox           |
|  \\    /   O peration     | Version:  2306                                  |
|   \\  /    A nd           | Website:  www.openfoam.com                      |
|    \\/     M anipulation  |                                                 |
\*---------------------------------------------------------------------------*/
FoamFile
{
    version     2.0;
    format      ascii;
    arch        "LSB;label=32;scalar=64";
    class       volScalarField;
    location    "8.2";
    object      p;
}
// * * * * * * * * * * * * * * * * * * * * * * * * * * * * * * * * * * * * * //

dimensions      [0 2 -2 0 0 0 0];

internalField   nonuniform List<scalar> 
13486
(
2.19204
1.93791
-0.00468234
-4.64699
-0.0155839
0.0248527
-0.369487
0.675775
1.18704
1.13012
-4.96729
0.359003
2.28884
0.132123
0.0796566
1.21056
-4.15851
0.473991
0.451803
1.99964
-3.92466
2.25104
1.90505
-4.42552
1.06207
-4.04296
-4.1799
-1.31128
0.000460636
-1.58873
-3.19997
0.337363
-2.11579
-1.04287
0.686429
0.0024356
-0.145233
1.52185
-0.212474
1.27857
-1.25709
2.39626
0.0117541
1.04415
1.0151
0.343753
-4.03732
0.000636625
-0.136263
-0.889105
1.42875
-0.262305
0.343442
1.58018
0.245554
0.0751604
-0.300559
-0.257506
-2.0366
-0.295962
-6.04169
-0.276709
-2.20196
-3.73162
-8.26164
-0.16855
-5.05228
2.29847
1.16388
-0.123018
-5.08108
0.337025
1.36242
-3.00441
-0.214879
-0.294409
-0.185798
0.0331343
-4.08637
-0.313545
0.00113825
1.99194
-2.22074
0.0374713
2.1959
1.25699
0.0232079
1.37598
1.61427
1.25778
0.422263
0.463579
2.04341
1.97476
1.18759
0.00010562
-4.18744
-5.77753
1.25202
-4.22969
0.0217516
0.210818
-5.89249
-0.253352
1.42982
-4.28622
1.54108
-0.213122
-4.15237
0.207473
0.959509
0.213635
1.58143
-0.0456061
2.71311
1.06708
1.07238
-0.973695
1.37645
-0.104801
0.476593
-5.79865
1.30413
-0.217455
0.982638
-0.248068
0.718217
0.602349
-0.88509
-5.90066
-0.243972
-3.90025
-3.51714
-2.74364
1.47593
1.4398
2.90032
0.27361
-0.0971047
0.778508
-1.58763
0.345575
0.40094
-0.330585
-0.0249412
-2.56416
0.0872611
2.01732
-0.970389
0.000449275
1.07611
-0.157068
0.00303766
2.03425
0.697077
-0.012518
-0.0873336
-1.64255
1.27686
-0.212897
-0.568525
1.28015
0.538485
2.38463
-0.265347
-0.11202
0.329967
3.18644
0.0888029
-2.74447
-3.59504
0.707062
1.22441
0.517534
-0.00299863
-10.3
0.0156503
-1.7195
1.53408
0.405527
1.12317
-0.0369925
0.451966
-4.81349
0.094248
-1.26782
0.0004924
-1.33672
-1.11908
1.1828
-0.121417
-0.0579775
-0.289174
2.21746
-0.333756
-4.77269
-6.57256
-0.630092
1.78643
-0.0439623
-3.30567
0.58213
1.52685
-0.491223
-0.272368
-0.349096
0.19689
1.55437
-0.275443
0.0939188
-1.31541
-4.52236
1.97678
1.54431
0.0303681
-1.00797
-1.58669
1.27319
1.8866
-1.55098
-4.20296
-0.981777
0.832972
-0.638336
0.292971
2.0303
-0.213813
-6.96825
-0.661817
0.00442115
1.10956
-2.41205
-1.66165
2.46191
-5.55661
1.90556
-1.17057
-0.0545282
1.93528
0.516483
-2.25259
1.2059
-0.0270835
1.76298
-0.174926
1.747
0.560459
-2.68565
-2.67999
1.12999
-6.70189
2.75442
0.985548
-0.221148
-0.474507
-10.7722
0.357084
-0.977926
-1.50401
-2.31455
1.76692
-0.173599
0.111366
-10.327
-0.0280852
-4.78873
-0.67249
-3.93356
1.27625
0.373845
1.81534
1.53184
-1.62673
0.311987
2.03444
-2.45916
-0.476608
-1.1683
-0.233258
0.0913007
-1.33881
0.967805
1.5661
-5.31284
-5.63274
-4.1713
-1.41328
-0.908856
0.277949
1.30139
-5.34578
-0.198794
1.14646
1.48616
-1.12323
-1.25267
-0.591585
0.284785
1.57747
-0.882748
0.558781
0.247972
0.0928552
0.328285
-0.117494
-0.442544
-2.5149
0.585781
-0.00706563
-0.128916
-2.78087
-4.49956
0.251013
0.255413
-5.41943
1.46893
-0.204001
1.62356
1.57445
-0.800646
-0.1551
-0.182653
1.53011
1.99851
2.85907
0.414114
0.477078
0.935977
0.194362
0.379604
1.38374
0.384169
0.444756
2.24091
-0.472856
1.07588
2.77192
-0.130479
1.14153
-0.167074
-0.724721
1.98824
0.321046
0.449899
-5.31274
-3.04417e-05
0.704423
2.64914
-1.58565
-0.187027
0.737676
0.235006
0.297263
-4.21058
1.56638
-0.0409258
-3.07373
0.704366
-0.0242255
-4.03442
0.45644
0.417981
1.75654
1.53574
-1.6356
0.00227238
-1.21183
-3.75921
2.02558
0.730055
0.00686362
0.729995
0.258008
-6.782
0.143373
1.45129
1.57689
-0.169603
-5.26011
-2.29148
1.24412
0.301774
2.37896
1.89184
-3.86542
-0.515369
0.338651
1.12016
-3.5078
-2.32867
1.93508
-1.66258
0.887203
1.99156
2.35838
-0.0817726
-4.80783
-6.62301
-3.80547
-1.5375
-3.59992
0.811304
1.12732
-2.52253
-0.277461
0.137614
1.94562
-1.73602
0.795402
1.85444
1.09077
-0.429687
-1.63787
1.58589
1.56267
2.15642
-4.96065
0.00461946
-3.72715
0.526528
1.53728
0.511146
2.6644
1.18039
-0.371452
-1.29624
0.584979
1.57071
-4.1759
0.421095
2.24286
1.1372
0.871885
0.243127
-0.269412
-2.58499
2.38583
-0.183243
0.555229
2.26355
-4.15046
-1.59844
-2.72607
-1.70478
-0.0474076
1.59306
2.05847
2.26673
-2.40903
-0.111729
-5.38204
1.15945
1.65017
-0.878996
-0.70016
1.56071
-5.93322
-10.9802
-5.68114
-2.72208
0.351395
1.77269
-0.00349651
0.437025
-4.05943
1.55472
0.000875381
2.99777
2.03983
1.31756
0.574318
0.000469474
-0.00017084
2.75002
-0.553675
-0.0902091
-0.367111
1.09
-4.17352
0.273941
1.244
-0.0593959
-0.27272
1.89727
-1.45683
-3.97221
1.17396
-2.42004
3.17514
1.19018
1.44197
1.63713
-10.069
0.121101
2.63959
-0.163088
1.9888
-0.779295
0.663069
-4.27118
-0.312455
0.00582023
-4.34044
1.6742
1.01662
-6.98425
0.00115771
-0.0345573
2.36826
1.5899
-0.508037
1.06014
0.776569
-0.227476
-0.0672285
1.45539
-3.6407
2.34731
-0.0861438
-0.118344
2.39554
0.2987
-0.0159863
0.761054
-4.82797
-6.01424
0.490393
0.130791
1.34278
2.0429
-4.41189
-0.256588
-4.39242
-0.00117781
1.91132
0.655565
-4.93868
-6.15802
0.575861
-1.55688
0.684067
-8.09715
-0.653163
1.06593
2.21016
-0.159896
1.73902
-2.37366
-6.70077
-0.949079
0.862757
-5.19726
1.52649
0.101419
-6.50118
0.86277
1.50781
-2.54341
-4.45208
1.44448
1.96749
0.77545
2.22353
0.106047
1.20581
0.604704
1.60256
-0.0101521
1.88798
-4.19646
0.785507
0.970256
-0.831071
-2.38597
1.51827
-4.05592
0.295967
2.01995
2.22852
-5.34681
-0.939785
0.719392
0.330416
1.14502
1.36955
-0.682936
-4.22969
0.262107
2.11455
0.493442
0.468105
-9.35054
2.24998
-1.84785
-0.0395901
1.53538
0.540833
-0.320488
0.203683
0.683849
0.1619
0.0601414
0.828306
-1.0115
2.1819
1.04054
0.834256
0.866239
0.261271
-1.36302
2.58591
0.693149
2.57675
-6.49534
1.34526
-0.00186781
-3.03795
0.0672354
1.1211
2.73799
-11.8085
0.241398
0.419036
-1.73057
1.09659
0.423632
-0.116832
1.1897
-4.48983
-2.23453
-2.80027
0.250483
-0.988628
1.61989
-0.00150453
2.43739
1.23463
-0.280579
-6.64285
-1.29916
0.729969
-5.32463
0.128315
-4.28705
1.88115
0.000388177
-0.220333
-8.14641
2.37602
0.000852741
0.55431
2.37108
1.4427
-5.39355
-0.157656
0.762292
0.375146
0.932002
-0.0217559
-6.79089
0.81486
1.17351
0.694278
1.01533
2.41727
-0.0343592
-9.26899
1.51972
0.497567
-0.0555368
0.532021
1.2852
0.923391
-5.07341
0.100909
-0.170653
0.222287
1.90898
0.711559
0.182907
0.0581555
-1.45865
-0.385976
1.70723
-0.726728
0.880539
1.18768
2.22448
0.521316
-0.515034
2.56405
0.0041427
-5.99221
1.43455
-2.38795
1.77506
-0.0219729
1.53111
-2.56489
-2.82911
-4.81329
-0.00105427
-4.07769
1.05458
2.66084
-1.17072
-3.01004
-0.282965
1.74527
0.317923
0.912577
-7.673
2.69346
-5.16933
0.620791
-0.969685
1.11566
1.62149
0.972283
-2.08179
-3.24659
2.3574
1.59259
-0.298932
1.14154
-1.39635
0.795506
0.667267
1.10422
-2.74865
-0.467781
1.91556
-0.211749
-0.251243
0.635616
-6.10083
-1.14362
-0.199251
1.5286
1.72264
-7.74858
0.117018
-5.40662
-3.46614
0.165665
-0.969614
0.42369
1.52725
0.292067
-0.788589
1.45652
-1.25219
-5.00641
-0.0782947
-0.428313
-7.44924
-4.48851
-0.172427
-10.7407
0.913327
2.29431
-0.0885723
-4.65624
2.37845
2.1952
-4.93849
-5.88708
1.14765
-3.97626
-0.0450643
0.29397
0.365852
0.0974777
-3.99984
0.944191
1.21337
-0.353695
-2.15694
-2.99013
0.0667128
0.886553
1.04607
0.763235
-8.11498
1.56845
2.12766
-3.97777
-10.543
1.31646
-0.617829
0.82496
-0.202935
-1.49817
-8.10207
0.105413
1.55797
2.59001
1.52757
0.26817
0.138495
1.5326
2.08709
0.205666
1.22818
1.44105
2.37546
-0.223722
-0.17628
0.472691
-0.723593
2.32488
0.13185
0.420897
0.811833
-0.472187
0.341694
0.121399
-1.23712
1.54738
1.49866
1.23344
0.976833
-2.08452
-0.150529
-0.890086
0.125535
-1.10186
-0.162069
-0.0261792
-12.817
-6.77374
1.02647
-1.45799
-2.67892
-1.95562
-2.01314
0.429665
-4.42403
-11.0519
1.61769
-5.18869
2.24272
-7.04894
-2.70522
1.4418
1.93851
-0.238573
0.393273
-0.952364
1.65146
0.0309595
-1.98448
-0.299001
-0.123985
-1.8228
1.54062
-0.18301
1.10495
-0.178556
1.10813
-4.1648
-0.0199424
-0.0413586
1.62639
-1.32588
-5.26012
-9.75157
2.22881
0.358403
-9.68062
-4.71295
1.43939
-8.53718
-0.185338
0.32671
0.199393
0.17378
0.517987
-7.57017
1.52088
1.55153
1.46594
0.928953
-0.141247
-1.32071
1.3231
-0.0579118
1.48136
1.335
-0.33217
-0.218803
-0.560172
0.161529
-0.111222
1.73028
0.851204
0.590918
1.5422
0.40366
0.826866
2.70011
0.121076
-1.49825
1.22368
0.098976
-0.197119
-0.610562
-4.02393
1.4205
-0.0364641
0.00410565
-0.00707746
0.50841
1.65219
-5.4625
0.00263645
1.545
0.108294
2.27542
1.76774
1.84148
0.349601
1.25899
0.411661
-0.0577667
0.509036
1.25358
-2.60396
-0.843741
-2.04886
-2.04997
-7.97342
1.37384
-2.83357
-3.09998
-12.7468
-2.4667
-0.055986
1.58555
-0.0184826
0.435207
-2.92929
1.56796
2.61994
0.121669
-5.92962
1.0924
-0.980484
1.35973
-0.255924
-0.182901
1.56836
-0.289644
2.42578
0.794579
1.53071
-1.39988
1.86025
-0.0511937
1.78372
-0.0960318
-2.48742
0.0351443
-11.8632
0.789562
0.0981309
-2.33282
2.25767
1.56613
1.74762
2.00799
1.76588
1.62942
-0.876567
1.1973
1.58332
1.54973
-0.745012
-0.219527
-1.13381
-0.663516
0.39483
1.31821
-2.83385
2.5642
-0.80169
-0.0319036
2.58551
2.11085
-0.834589
-9.00372
1.29492
1.03479
-1.47321
1.01553
-2.76353
-0.280639
1.52996
1.92541
-0.188953
1.27912
1.84563
0.00174394
-0.530017
1.91228
0.521829
-0.119048
-4.32545
0.0297212
-1.20601
1.53449
1.44599
-0.210408
-1.68583
-2.01281
0.378999
-0.179561
0.335208
2.25659
-0.232336
2.9116
1.39085
0.443642
1.59188
-5.52474
-3.13907
-8.16455
1.42326
-0.196955
-2.66596
-3.15397
0.976452
1.14962
-0.167229
0.333898
-3.7649
0.210857
0.351378
-0.174089
0.915967
0.415887
1.7639
1.57108
1.70326
1.20496
-0.844998
-1.96925
-1.28102
0.0778701
-6.19469
0.342565
0.88791
-4.51809
-0.136317
-0.238711
0.568937
-8.12095
0.824056
1.0228
-0.100551
-2.16148
0.48858
-0.883472
-2.55032
0.262495
0.0903422
1.27877
1.28638
1.65623
-2.74542
1.46547
-0.0152525
2.02815
0.312851
1.02752
0.480237
0.0809917
2.40564
2.70699
1.03733
-0.0534995
1.23172
0.960983
2.42433
0.4249
-1.96943
-7.68059
0.307159
-0.673807
-2.21857
1.55764
1.32452
0.162165
-0.828668
0.637719
1.16393
2.70489
-2.91664
1.36301
-3.88898
0.317193
2.21608
-0.572367
0.812435
-3.79763
1.00494
0.482671
2.85704
-0.0240788
-1.17978
0.991158
0.274108
-5.18187
-2.7761
0.527472
1.75965
-0.0867146
-0.00302305
2.20155
2.04599
-0.370825
-1.96978
-0.0587619
0.571812
1.41242
1.2639
1.90057
0.722481
-4.72197
2.0375
0.862056
-1.82294
0.598784
1.6499
1.62107
-5.85856
-2.82542
0.00070267
1.41684
2.32114
0.624321
0.548979
-1.23329
2.7244
-4.08482
-1.52562
2.46125
1.43953
0.216068
0.8471
-4.92481
0.286232
-2.07319
-4.17607
-0.172935
-8.57167
0.296276
-1.29652
-4.02133
-4.08422
-1.79235
-0.801322
-3.68523
-6.56702
1.62545
1.52685
-0.137942
-3.80022
0.364218
0.545252
-0.855918
2.89679
0.357227
-1.10689
1.44091
-1.57942
-8.86406
0.621184
0.585613
1.32547
2.95934
0.00222144
-0.554728
-4.86169
0.105379
0.434395
0.971074
-0.27588
2.05963
1.33619
1.61272
-4.36629
-0.291918
-0.0561409
1.17041
1.5316
1.18315
1.57426
2.72139
2.55142
-1.5807
1.44599
1.89994
-1.07258
1.87095
-0.200715
2.51283
1.84351
0.299183
1.76907
1.00109
0.599038
-0.127565
1.66694
-1.85381
1.02385
-0.107382
0.275415
0.0111799
1.36791
-0.172794
0.40088
2.39813
2.38585
0.515991
-2.74158
0.339469
-1.50143
-0.495523
1.44058
2.0673
-2.73433
1.55795
1.0785
0.544577
1.1719
-8.04215
-3.79011
-0.220865
2.83141
0.0490161
-0.062052
1.865
6.77107e-05
-0.176445
0.990623
0.309573
1.32813
-0.481321
-1.38271
0.705416
0.647628
0.34116
0.538817
2.62585
2.09222
1.56728
2.1557
2.32064
0.22744
-0.214071
0.190023
-0.964795
2.38801
-4.57916
1.28531
0.962415
-5.94696
0.24532
1.56104
-8.49239
0.558657
1.24992
2.99188
-4.22319
0.514975
0.19327
1.34253
-0.0111423
-5.65947
2.32681
1.82653
1.10765
1.41577
-1.85692
-0.278605
-4.41219
2.54576
-0.0857658
2.83498
-2.06008
0.517007
-3.19712
-0.112634
-2.97523
0.439051
-0.250074
0.784588
0.0409742
0.762358
-6.11545
8.8177e-05
-3.0085
-2.74687
-1.19423
-2.04927
0.0491594
-0.382935
-3.70012
-5.90814
1.09231
1.13974
2.1659
1.54639
0.434212
0.471857
3.2191
1.24746
-4.15101
-0.00375908
0.127946
1.34003
1.04554
2.06513
-1.24083
-1.28939
0.581946
0.000731048
0.35554
1.98922
-2.76055
-5.68991
-4.44614
2.58237
-5.64484
0.814441
1.7992
-2.2426
0.739656
-0.157093
-4.22921
-4.29709
-0.392177
1.22193
1.49437
1.76891
-2.05905
-2.79112
0.21882
-4.16293
-1.79968
-0.852075
0.419171
-2.40499
-0.0385128
-6.30182
-4.24209
-3.71909
2.19914
-4.1737
2.54291
-5.45212
-0.701565
0.351096
0.311448
1.96033
0.968704
1.94418
0.0777969
-1.99287
-4.26143
1.82155
-2.72487
1.27711
-0.174966
2.02542
2.00764
-0.176255
1.42765
2.37938
1.32293
1.52074
-2.03994
-1.71117
0.435736
-2.26169
-0.233455
0.264957
0.334098
0.000287592
-4.4431
0.334532
-1.09687
0.746433
0.438398
-1.32929
2.50347
0.0832251
-0.000665938
0.248976
1.54007
-5.17745
0.00122296
1.33618
-0.411818
-0.065461
-0.105398
1.14489
1.54212
1.49909
-0.0557686
1.53239
1.7622
1.43681
-1.46664
-0.0338039
0.645122
0.965984
-1.20734
-3.78521
-9.39144
-1.52709
-4.91308
0.0342448
-0.237875
-0.0615847
-2.7857
-0.9505
-8.47326
-0.866591
-2.70263
0.81778
-4.54044
1.62277
3.21299
0.812581
-2.71691
0.944301
0.475733
0.33999
0.0100245
-1.72161
-13.1927
0.131388
1.79573
0.00294747
2.31514
0.0178091
1.49657
0.717217
0.468172
-3.47141
-0.00790457
2.77459
-3.76546
1.56921
1.51835
2.05365
0.136982
1.81828
1.18349
-3.08156
1.33921
-4.20327
-4.17498
1.86066
1.44065
-1.92999
0.464425
1.92428
-1.31707
-9.59984
-0.0522242
-0.0138302
1.39938
1.03696
1.64461
0.913715
1.04559
-2.3226
-1.24443
-1.46287
1.62603
2.81769
-1.93772
-3.79741
-3.4525
1.01648
0.0898916
0.10067
-0.310913
0.394221
0.721809
-2.40262
0.318646
2.59732
0.919808
0.427632
-3.47028
-6.032
-2.861
-4.02619
-3.52963
-5.98371
1.89752
1.03468
-1.54478
2.59258
-0.00346566
-4.3982
-2.68221
-4.17475
1.31513
-2.73904
0.760456
1.15146
-0.0259147
-1.45763
-0.809722
-4.13603
-5.96317
1.74025
-8.03131
-0.180818
-4.41026
1.52019
1.52899
-5.77677
1.80129
1.5523
2.17169
2.34542
1.34598
0.273987
2.84707
-4.49106
1.03243
-0.689902
-9.95416
1.93995
-8.3723
2.39172
0.958112
-1.33462
-3.86558
-3.56909
1.68768
-9.75917
-4.39949
0.0957048
-0.548822
0.420373
1.14495
0.512393
0.599862
2.58
-2.7897
-3.78429
-0.168536
1.1045
1.37161
-3.42589
3.17879
-0.203515
-1.18514
1.27353
-1.10598
1.51796
1.22856
1.50383
1.37653
0.475885
0.285027
1.20347
0.312451
-2.47064
-0.0201414
1.25583
1.58588
1.86685
-3.03689
-0.0181122
-0.173046
1.12566
0.422479
-8.59295
1.41537
-4.31229
1.42949
1.60393
-4.12083
2.27074
-8.11817
2.73319
1.41084
-9.1862
0.00297068
-0.176652
1.00686
1.67001
-10.3747
1.86154
1.5497
-0.100447
-0.00344204
0.286536
0.0464674
-0.124181
-4.30452
0.227263
-5.52581
1.52778
-3.89296
-1.72738
-1.44251
1.88407
1.9597
1.14682
-3.91685
0.980789
-0.375668
0.0558509
1.06369
-2.49282
-2.81905
2.52235
-0.379707
-0.0451373
-1.80975
-4.12509
-2.23591
1.60089
-4.22792
-0.960981
1.67119
0.492327
1.57333
-5.93377
0.523451
2.63664
-2.31046
1.61245
0.378216
-2.25462
0.769969
0.322818
-0.366013
2.67006
1.46364
0.123421
2.67376
1.7692
1.91143
-4.19479
-3.87172
0.15366
-1.44402
-1.95828
-2.45742
-1.18182
-2.35728
0.816881
0.470698
0.281337
0.499012
-2.28595
0.457484
1.67307
-4.13069
1.11401
1.15081
1.54803
-0.375702
-0.0585126
-5.86229
-4.11044
-5.97383
-1.10419
1.66509
-9.73763
2.17108
-5.73571
1.52273
0.144842
-0.241974
-0.718729
1.37196
0.975423
0.607192
1.004
0.560929
0.368432
1.99711
1.98574
-3.77401
-3.94141
-1.48097
1.47566
0.311004
-0.342319
-2.0331
0.257982
-0.485439
-0.0737597
1.02906
0.641871
0.507667
0.972776
0.268509
-0.168996
-11.6179
1.96061
-5.88296
1.36506
0.00107916
1.4261
1.43716
1.08428
1.07358
-1.23313
-6.27294
-0.226832
-3.56921
-8.60358
-7.31419
0.295371
-2.57903
1.38115
0.17743
1.53459
-1.794
0.307519
-1.894
-0.195675
1.40645
-4.28135
1.23448
0.353976
-12.8803
-1.95966
-6.12566
0.837589
1.6415
-0.171304
0.296374
-3.14896
1.40499
-0.5117
0.368708
-5.39807
1.78936
0.569662
-0.0281632
1.54516
1.25106
1.63426
0.783939
2.03341
-2.42101
-0.503619
-1.2102
0.933202
1.16569
0.370554
-1.18067
-6.9967
-7.71635
0.323768
-0.0529021
-9.18378
2.59251
-2.2295
1.53832
0.793653
-4.89263
-0.229009
-0.121708
-0.273726
0.443282
0.261293
1.52502
-0.244483
1.53712
-1.9629
-0.45032
-2.80325
0.183927
-7.35958
1.56324
2.62211
1.59975
-0.0153089
-0.952544
1.27744
-4.16941
-0.72385
-0.0674158
-0.472175
-4.80287
-9.10319
-8.21231
-1.48963
0.992011
0.994624
-2.12935
0.353521
1.70916
-0.998472
-1.7729
1.68388
-0.22336
-5.21759
-0.000762921
-0.107126
0.00272248
2.5978
-0.0732134
1.01157
-1.1077
-0.70303
-0.959576
1.15935
0.208636
0.782517
-0.725692
-1.40581
-0.111842
-0.279336
1.78648
1.05089
0.544201
-1.08596
-1.09729
2.71095
-3.0144
1.47762
1.56014
0.349862
-0.275075
0.538768
-3.57018
-0.172867
1.45524
1.13758
1.22947
-9.39281
1.69251
0.45653
2.20901
-0.173096
1.47866
1.8655
1.4122
0.352853
-5.23321
0.745666
-4.11894
0.689079
0.946092
1.63506
0.380524
2.16524
0.285039
2.34602
0.247825
1.61668
0.086315
0.829834
-3.57424
1.51299
0.501217
0.925108
2.48772
1.56314
0.383192
-1.16937
0.649051
1.50553
-0.192269
-3.86824
0.870514
-0.098368
1.86932
-5.7399
2.22468
0.644744
3.25549
2.39225
0.41476
0.17946
-4.00359
0.335264
2.49069
0.0937939
0.17362
-0.402597
2.72042
1.03347
0.938949
2.41303
-0.776125
1.53788
-0.919764
1.50765
-0.221598
1.32055
1.353
1.85298
-0.224085
-3.81822
0.395204
-6.02081
0.462278
-1.13734
-0.0500638
2.1208
2.08614
0.00695311
-0.518623
-0.80996
1.69089
0.982852
1.05968
1.13947
-0.79595
-3.59055
-4.42709
1.59653
-1.96123
-1.01928
0.623918
0.580545
0.551151
-1.13175
2.70879
-2.52687
2.17154
-0.691675
2.57483
-1.76395
0.34238
-0.283748
-0.0524639
1.03344
1.52938
0.276445
-0.725572
0.259924
-1.34816
1.99118
-0.111458
0.247447
-2.639
-0.276197
-0.641713
1.53417
-0.0263814
-0.343158
-0.0985572
1.54139
2.83323
-6.13447
-0.129959
1.09479
-0.441584
1.0014
-0.169227
0.352632
-0.478384
-3.80337
0.197049
-4.39871
-0.573626
0.0783596
-2.65067
-10.4005
0.337265
1.32753
1.45971
1.42713
2.72009
-5.8287
2.69179
-3.21065
2.5213
-10.994
-0.952404
2.60172
0.885212
-7.13988
1.03733
-0.230328
1.23837
-2.62944
-4.33944
0.274262
-1.5712
-2.12286
-0.00289315
-0.512586
0.855301
1.55553
-12.2517
0.912623
-1.92306
0.389775
-2.60998
-0.187411
0.627097
-2.59548
-1.53758
2.23268
-0.1266
2.38594
0.474157
-4.2555
0.814539
-0.829398
-0.30437
1.41465
1.73961
2.85174
1.31674
1.48187
0.00597431
-2.76895
2.75873
2.849
1.69979
-0.624948
-8.8776
-4.11214
1.08366
0.383453
0.357943
1.56333
-3.53199
-0.162423
-4.13198
2.46661
0.497233
0.426789
-6.04413
1.0003
0.835528
3.1287
2.93749
1.10468
0.578834
0.0197365
-2.7832
0.941136
3.00493
-0.450398
-0.281801
0.543301
0.00274715
0.331178
-0.00546036
-0.23667
0.304803
0.349732
0.558272
-0.0775449
0.750935
1.96641
-0.736477
1.45544
-6.70937
-0.352323
2.48431
-4.02146
0.445111
-0.753419
0.919878
0.677993
-5.77578
-0.979821
-0.341454
0.415202
3.17782
-3.36882
-2.22797
-8.3582
-0.444047
-0.857942
-0.78113
-5.44512
-2.39112
-0.0296976
-2.27204
-0.750512
-2.1424
0.665037
-0.0791632
0.38405
3.09178
0.447315
0.394715
-0.579516
0.553453
-2.71207
-1.15753
2.17571
1.42962
0.400885
-0.127961
1.25165
1.50641
-0.470341
-8.66827
-0.0883188
2.18199
-1.17184
1.49088
0.295662
2.23097
0.237329
-7.46156
0.464849
1.61114
-1.26856
1.46944
-0.773969
2.92223
-5.44399
-0.142029
-4.55087
1.01625
-6.28499
-1.11816
-5.74579
0.193163
-0.337773
-10.454
-2.67552
-0.357251
0.408321
-3.84058
-0.78183
0.991459
-4.22071
0.950089
-6.15101
1.61681
2.71674
0.94084
-2.71264
1.1185
0.141266
0.429616
-0.403688
-0.415482
-4.18443
-0.00232795
-1.68716
-0.367558
0.287203
-0.412044
-2.04798
-3.66493
0.604648
1.56832
-0.787486
-6.09403
-0.208853
-0.080498
-0.309081
0.507572
-1.93631
-6.39104
1.69792
-2.04448
-0.0158592
-1.83931
-3.8495
-4.517
-6.01838
3.16931
0.335336
-1.57908
0.851083
2.61334
2.49083
-8.37277
-0.940467
1.53042
-0.158773
0.0128446
2.6595
0.617729
0.739531
3.19488
-0.0578498
-0.669022
0.497312
2.27384
1.58386
1.14281
2.07647
1.24962
-0.041767
-0.0607934
0.948325
0.358269
-3.82152
2.62915
-0.0934411
-0.339527
-0.069181
-3.27876
0.430686
-6.23338
-1.07924
0.385634
1.23802
1.67203
1.36305
-4.17902
2.31264
2.54457
-2.32885
0.716681
-0.307496
-0.0393801
0.415577
1.11966
-2.42762
-0.999838
-0.256331
2.85075
-4.19391
1.46127
1.42748
1.7292
0.540028
0.92506
-0.49381
-0.0237029
0.027589
-0.251668
-4.07235
-1.82223
-0.0479772
-5.08448
1.70472
-10.3497
-0.179789
0.617709
-2.72703
-6.68141
-4.32738
1.13766
-0.90547
-0.0182016
0.954198
-8.3505
0.380676
-2.03363
-0.302503
1.56403
-4.27345
2.70164
-0.0603371
2.91268
6.02314e-05
-0.0522116
0.193075
1.43966
0.917806
-2.49542
-0.435067
0.0751404
0.185847
0.59739
3.2187
1.73747
0.0573034
-1.10141
0.313418
0.34882
1.36257
-0.364652
1.12975
-4.73825
-5.80875
-2.69212
-0.556739
-0.0342918
-2.75404
1.18434
0.715201
2.46688
2.79692
-4.05839
-4.18102
0.304963
-1.00978
2.56996
-0.898205
-0.136933
0.905589
1.2681
-5.18052
-0.611176
0.234935
-0.225445
0.849298
-4.05199
-0.610333
0.139152
-0.778123
-2.17621
-0.0620662
-2.22463
-1.98944
1.34529
-9.36223
-6.93096
-1.22645
0.514127
2.91138
0.409555
1.49577
-1.91473
0.477525
0.168331
0.182136
0.723648
-5.53219
-3.89619
2.55464
1.53635
0.257415
-2.80568
3.04217
-6.64422
-3.82525
-4.42263
0.0989677
-6.51076
-4.97962
2.2369
0.184807
1.01222
0.860134
-4.75898
0.51818
0.0184599
0.5903
-2.41344
0.289386
0.770885
1.23952
-6.25929
-3.64083
-0.996544
-1.6693
-1.18976
-1.12341
2.88223
1.20032
-9.23137
0.0229074
0.639347
2.39229
0.374347
-3.78253
0.231087
1.91708
1.21606
-1.65373
1.47055
-0.737638
2.52592
-0.0324419
1.6347
-4.58115
-1.48819
-0.0858141
-5.38264
0.114306
0.780708
-3.67415
-6.78049
1.54784
-0.972768
0.107576
2.04823
1.34063
1.98931
1.49183
-1.44985
0.00972516
0.318883
1.15577
-0.00118892
1.60459
0.526875
2.53408
-5.24138
1.931
-0.184769
2.68398
-4.61533
-0.700427
2.66946
-5.50869
0.459114
-4.17653
2.11846
2.60539
1.5981
-1.71108
1.54512
1.77315
-3.46814
0.973675
-7.49807
1.92695
-5.86924
-2.76327
-4.214
-4.30491
1.73882
-0.137099
-4.32066
0.508613
2.58085
-0.26671
0.138995
-4.41526
-1.03135
0.644843
-0.635419
1.50848
1.12984
-4.20019
2.95587
-0.27687
2.23617
1.92949
-0.129884
-0.0450195
0.90908
-1.7602
-0.90714
0.819934
0.648688
-0.199878
1.12093
-4.20561
2.5063
1.71027
0.364581
-1.60461
1.26797
-3.04939
1.18943
1.75203
0.305656
-0.0449264
1.71441
1.30633
-1.00962
-2.76246
0.505105
1.38989
2.5291
-3.1247
2.71585
2.88215
2.78808
-0.837309
1.70487
-4.96167
1.52732
1.77389
1.96462
1.38283
2.06141
3.11536
1.45767
-3.36939
-1.27203
-3.93427
3.09398
0.552664
-1.03712
-5.92964
1.61054
2.33527
1.24737
0.348366
-0.401529
2.2275
-2.22172
1.24869
-6.22129
0.934448
-0.171913
-0.689298
0.698603
-5.28521
-5.9504
-2.44271
-1.5474
-0.0135141
1.67076
0.0432106
0.208703
1.13547
-3.29689
0.124799
-0.0865116
-3.27289
-4.40073
-3.60827
1.97045
2.27935
-6.30775
1.07785
1.87531
2.02492
0.00915475
-13.808
1.37023
-3.57464
2.02992
-3.36533
1.9717
1.21136
0.496012
1.88828
0.787812
1.80954
0.374049
0.952668
-1.24475
-2.72825
-3.71489
-0.184438
1.77257
-11.0096
-6.44901
-9.74356
2.36635
1.74436
0.856832
0.665863
2.16969
-1.93472
1.13507
0.0411558
-1.2062
1.14439
-7.7285
-4.17007
-1.03688
-4.23101
-1.04309
-9.80846
0.0153418
-4.20336
-2.75102
0.887444
2.62783
2.89883
2.44635
-12.0291
1.26819
-4.72633
1.1371
2.26951
0.53163
1.73914
-8.51897
0.395303
-1.33021
0.15621
1.92649
-0.557575
1.41375
-4.15005
-0.0762228
-4.39106
1.68619
1.40924
1.54553
-4.18613
1.15094
-2.56306
-4.39594
-4.47454
0.359227
2.58711
-2.33403
-1.75557
-6.55952
1.32467
1.51321
-0.264288
1.14878
-4.14857
2.21045
2.24465
-5.6826
-0.019349
2.04573
-8.15829
-6.52568
0.278157
1.91405
2.12806
-4.64841
0.38683
0.189001
2.58769
-4.04303
-7.95594
0.12355
2.3342
0.256439
-1.28226
-1.36252
1.84953
1.34314
1.88759
0.0769129
-2.10823
1.39765
3.04937
-2.76617
0.788021
0.215406
-3.84802
0.249643
0.421887
-6.06218
0.330761
-4.27334
1.18571
-3.55596
-2.37864
1.70623
2.08053
1.15377
-1.64827
-6.85387
1.37614
-4.14099
-0.180703
-1.07551
0.498079
-3.8268
1.7801
1.40506
0.21508
1.22346
2.46344
-2.18022
0.623471
1.64914
-4.49913
1.16688
-0.382496
0.451638
-0.401396
1.35582
0.000714305
0.399206
-0.761715
-1.93602
1.89212
-0.305754
0.533206
-9.08355
-0.874682
1.5482
-4.13798
2.7686
-4.22494
-4.32194
-2.02607
1.90815
1.38668
1.76187
-3.82998
2.33375
-7.35176
0.531238
0.158259
-2.31669
1.50404
0.490975
-0.85166
0.566369
-3.86599
1.36336
-4.16841
-8.65253
0.00672371
-3.28836
-3.02887
0.860537
2.4525
0.0143966
-4.95601
1.72242
-2.19072
2.13808
-0.295564
0.308811
1.21768
1.57472
0.523548
-2.13904
-0.738178
0.218771
0.68984
0.856658
-2.73377
-6.97427
-0.180708
0.0476088
0.305167
3.13263
1.27372
1.51076
2.14079
0.564386
1.69292
-7.27478
-3.5022
-10.5202
1.54539
3.04367
1.15304
-0.773881
1.9203
0.884357
0.946221
-0.0399657
0.228994
0.604172
2.77754
-1.27873
-2.25355
2.34046
1.95705
1.14336
1.27653
1.67001
0.82889
-2.79908
-11.5161
1.38443
-2.98585
-2.70401
1.41099
-11.5049
-1.66932
-0.538472
1.23384
1.3012
1.40361
0.242089
1.77744
1.82397
0.371011
1.48919
1.25764
1.64797
1.44101
0.262243
0.492591
-0.276442
1.85722
1.44684
0.465631
0.874468
0.217385
-0.198508
2.43738
1.57229
0.00503142
-5.99711
0.449493
1.6267
0.475831
0.74557
-0.176852
0.193016
-6.24228
0.287823
-6.17655
-0.0426219
0.397749
-1.53641
-4.82613
-4.18298
2.2031
-5.99467
-3.47011
-7.19413
2.49808
-3.11582
0.40564
0.628419
-4.29168
1.46939
1.49657
0.301438
2.01959
0.955227
0.279697
-3.84567
-6.26544
0.00406157
1.86119
0.544777
-4.60289
-3.9228
-3.69028
-3.6878
-7.10862
-2.14791
-0.68807
0.824963
1.52996
1.68178
-2.88201
0.0068502
2.04775
1.54889
-4.68247
0.249352
-3.91543
0.456909
0.171757
0.627218
1.40563
-0.696528
-3.62942
-4.8955
0.71732
-9.02087
-3.75878
0.0683292
-12.9836
-4.05769
-4.28373
-7.08565
0.0629115
-3.82192
0.516149
-4.43172
1.55442
1.44844
0.17658
1.93958
-9.81233
2.43697
-2.13658
0.3444
-0.930663
1.28692
0.689541
-2.75352
-3.66959
1.59645
1.9084
2.56304
-5.72169
-3.83043
-11.5353
-0.615807
0.00445915
-4.18144
-0.381325
-4.18722
0.67224
-4.7398
0.46785
-0.925793
-0.345259
2.2443
1.00587
-0.447433
-0.11371
-1.50181
-3.32726
2.11593
2.88586
-3.37901
1.51893
1.22061
-0.00104764
-2.51169
1.88266
1.89233
-2.11649
-2.51256
-10.8306
-11.0277
-0.81582
-4.11635
-0.62547
1.27678
0.106388
1.73018
-4.36088
-4.26825
1.51185
-0.691233
-4.24076
0.388204
1.43028
-4.33924
-0.350867
-4.24537
-4.23985
-4.19056
2.60841
-3.64841
0.0261567
-5.18599
1.51389
-4.48906
-0.556564
-2.25544
-5.73448
-1.23662
1.44975
-0.00907002
-4.17764
1.06782
0.0134632
-5.51093
-2.63952
-4.17775
0.481526
0.797469
1.52064
-3.47588
2.09241
-4.46462
0.00228332
-0.112031
-1.84883
-11.353
-4.14751
-6.40232
0.407479
0.889954
-0.0292954
0.0217386
-1.77312
1.0301
-7.35849
1.63316
-4.24497
1.15422
-1.06708
-2.07539
0.377284
3.15917
-2.37111
-4.42614
-2.56521
-2.23545
1.54792
-0.105046
0.421711
-0.572938
-3.42132
-5.70732
-2.78835
-4.16024
1.22517
-3.99138
0.459342
-4.01005
0.163496
1.07648
-0.145167
-0.0515906
-0.465305
1.72083
-4.24739
-6.66527
1.90211
0.360106
-4.39838
-0.0083956
-3.49738
-1.79597
-0.153549
1.73355
-8.71374
0.940436
-3.66518
-3.53856
-4.41332
-3.85872
-3.7789
0.0864266
-1.95626
1.46909
0.891247
-6.73606
0.250296
-11.3323
1.90341
2.06575
-4.36142
0.489248
1.47878
1.54572
0.550886
-6.97688
-4.42123
-3.66935
1.54565
0.70542
-2.50236
-3.10907
0.231309
1.8846
0.0787034
0.384635
0.370411
1.891
-1.30728
-1.4104
-0.17634
1.41669
0.548981
0.299663
2.11413
1.85134
-0.0602001
-10.5859
1.68776
1.0103
0.211635
0.837837
-2.13873
-5.59921
-3.52984
-9.27627
1.88941
1.18927
-0.472736
-1.1302
0.255946
-1.21908
1.31956
-11.7971
0.442043
1.74639
1.92635
-5.69118
1.42374
0.84272
1.26322
1.41171
0.177348
1.44853
-0.0023392
1.56439
1.16443
1.58797
-5.4736
1.82012
1.63632
1.45741
1.24975
-6.85116
0.551298
-0.545666
-1.6652
1.79441
2.23875
-13.9556
2.0847
-8.04356
-2.86866
1.35779
1.50827
-2.30528
0.118328
-3.90525
-12.1712
-0.61186
-6.94788
-2.5251
-0.0275276
1.06853
2.87437
1.595
-3.51202
-4.95578
1.24706
1.02644
-3.00196
-6.19863
-7.17934
-1.33475
-2.88557
-2.72253
1.51019
0.198741
1.00323
-0.0178874
-0.0124484
0.128092
-0.00796902
0.403177
0.137956
1.38032
-1.99446
-0.254516
-1.5506
-8.26484
0.760303
1.06224
-0.362436
-0.556719
1.27339
-0.218692
0.896266
-1.50305
1.47406
1.00066
2.31112
1.52073
-7.67512
-0.068388
-1.17047
-6.58743
-0.168645
-0.186195
-0.759368
-13.4793
2.93331
0.0117929
-0.436964
2.07228
-6.40751
-0.457443
-2.60398
-5.69504
-3.88348
-0.571173
-1.12923
1.02118
-1.2075
-7.66687
0.431806
-7.38762
-1.19429
-2.80573
0.0835023
1.34986
-5.58392
-6.85264
-1.23318
0.445448
-2.03869
1.54281
2.14214
-6.80159
1.57647
0.403357
1.2687
2.50848
-6.17072
1.15651
0.609269
0.940759
1.96403
0.0576376
-0.612625
-2.55209
1.47453
2.13904
-9.63843
0.000536465
-3.12077
-2.16057
1.03191
-7.18768
-1.96827
-8.19838
0.901238
-3.40694
0.326069
0.381419
1.45412
0.275072
-3.27802
0.107636
-0.188689
-1.00684
2.34781
2.74603
1.79249
3.02472
1.5429
1.32151
1.30496
0.976495
1.65728
-4.10761
1.30735
-0.0787606
-2.84582
2.15533
-0.78493
-1.69934
2.66865
0.32199
-8.69088
1.04327
0.93989
1.83189
-2.04072
1.50975
2.55788
-6.24606
-2.8868
-1.67029
0.814693
-4.45637
1.6701
0.0748149
1.87766
1.52874
-6.78798
1.56049
-0.829685
-3.72573
-3.52344
-11.6315
1.49895
-2.39949
1.60172
-0.248745
-4.15648
0.0967139
-0.162824
-0.759398
-8.52161
-4.00887
1.59338
0.5774
-4.23342
-0.226102
1.2513
0.366311
-13.6725
1.0178
-0.113615
1.00045
-4.45459
1.19283
0.682678
0.0821445
-0.428999
1.23333
0.706658
0.745231
-4.3011
2.9647
-1.12008
-4.35914
1.24016
1.00558
-4.16306
-1.70549
-5.29739
0.316712
0.343018
-2.03586
0.097647
-0.0988683