/*--------------------------------*- C++ -*----------------------------------*\
| =========                 |                                                 |
| \\      /  F ield         | OpenFOAM: The Open Source CFD Toolbox           |
|  \\    /   O peration     | Version:  2306                                  |
|   \\  /    A nd           | Website:  www.openfoam.com                      |
|    \\/     M anipulation  |                                                 |
\*---------------------------------------------------------------------------*/
FoamFile
{
    version     2.0;
    format      ascii;
    arch        "LSB;label=32;scalar=64";
    class       surfaceScalarField;
    location    "8.2";
    object      phi;
}
// * * * * * * * * * * * * * * * * * * * * * * * * * * * * * * * * * * * * * //

dimensions      [0 3 -1 0 0 0 0];

oriented        oriented;

internalField   nonuniform List<scalar> 
20045
(
0.25258
-0.277967
0.0253873
-0.53769
0.197303
0.340386
0.197922
1.0185
-1.21642
-0.223697
0.299989
-0.0762916
-0.448948
0.40957
0.0393775
-0.313655
1.13356
-0.819904
-0.479998
0.15344
0.326559
0.0287524
0.227818
-0.256571
0.248474
0.210122
-0.458596
-0.403814
-0.0530654
0.45688
-0.236781
-0.161176
0.397958
1.11299
-0.532076
-0.580913
0.18406
-0.184344
0.000283781
-0.622593
0.544852
0.0777415
-0.120746
0.499448
-0.378702
-0.532538
0.128724
0.0248778
-0.105535
0.080657
0.180646
-0.25627
0.0756231
-0.809508
1.19497
-0.385464
-0.378993
0.0195811
0.359411
-0.340873
0.275413
0.0654598
0.0632902
0.12077
-0.0741463
-0.463543
0.664303
0.511694
-1.176
0.406464
0.103669
-0.510133
-0.549052
1.21335
0.0471768
-0.0521992
0.0050224
-0.738742
1.38732
-0.648581
0.824715
0.163818
-0.988533
-1.41755
0.769223
0.648329
-0.188438
0.341408
-0.15297
0.670781
-0.497807
-0.172974
-0.302955
0.846441
-0.543486
1.29244
-0.745352
-0.547092
-0.291173
0.319925
0.995977
-0.479176
-0.516801
0.597154
0.0782824
-0.675437
-0.0303437
0.189437
-0.159093
-1.0267
0.502984
0.523715
0.304269
0.268605
-0.572874
0.00670238
0.237509
-0.244211
0.0666659
-0.0958784
0.0292125
1.06524
-1.06623
0.000984166
0.734887
-0.272242
-0.462645
0.341589
0.393298
0.50084
0.612149
-0.0842481
-0.0392166
0.123465
0.659446
0.228459
-0.887905
0.748366
-0.151212
0.109234
0.991251
-1.10048
0.654745
-1.09959
0.444849
0.926197
-0.656518
-0.269679
-0.585401
-0.404723
0.990124
-0.0474169
-0.155094
0.202511
0.347679
-0.264265
-0.0834144
-0.349673
-0.0992752
-0.297237
1.12179
-0.824549
0.786582
0.110873
-0.897455
0.682761
-0.985717
0.697978
-0.529522
-0.168456
-0.276263
-0.14572
0.421983
0.272098
0.42588
0.191696
-0.851072
0.659376
-0.212828
-0.128045
0.802017
-0.162406
-0.639612
0.660664
0.0715579
-0.732222
0.0945412
-0.288384
0.193843
-0.336094
0.0727562
0.263338
0.437278
-0.188803
0.768001
-0.78154
0.0135384
0.229434
-0.134893
0.149476
0.198204
-0.129663
-0.533241
0.662904
0.0602893
-0.0970582
0.0367688
0.706854
-0.169193
-0.53766
0.724501
-1.02174
0.0330342
0.673819
0.252195
-0.372941
0.135689
-0.0748058
-0.0608829
0.12433
-0.625683
0.501353
0.515803
0.574883
-1.09069
0.446817
-0.354605
-0.0922113
0.634061
-0.442364
-1.33977
0.226023
1.11375
0.00659981
0.24598
-0.252594
0.292839
-0.0402449
0.287572
-0.650423
0.362851
-0.800466
0.0308322
0.769634
0.511224
0.0870171
-0.598241
-0.414428
0.37682
0.0376079
-0.676997
-0.0920398
0.769037
0.382252
-0.079438
-0.302814
0.205779
-0.297723
0.0919432
-0.0892676
-0.405203
0.494471
0.301462
-0.323018
0.021556
0.766812
0.151082
-0.917894
0.0470022
0.000174587
-0.0435152
0.301472
-0.257957
0.624687
-0.320418
0.0538558
-0.131906
0.0780505
0.674909
0.321069
-0.217302
-0.405292
0.316982
-0.360497
-0.193529
0.980111
0.00498156
-0.257576
0.139822
-0.0859663
0.224441
0.609993
-0.834434
0.531727
-0.949929
0.418202
0.0514406
-0.222774
0.192551
0.030223
-0.105004
0.134472
-0.0294674
0.56221
-0.450742
-0.111468
-0.254484
0.207067
0.625113
-1.2599
0.634787
-0.0924978
0.162926
-0.0704283
0.023184
-0.129636
0.106452
0.568647
-0.162183
0.901088
0.391356
-0.598252
0.468589
0.614706
-0.843189
0.228482
0.233585
-0.0529383
-0.410815
0.134552
-0.398912
0.322462
0.0764501
-0.494972
0.0532162
-0.302961
0.249744
0.633123
0.293074
0.5518
-0.727358
0.175558
0.81002
0.0928749
-0.902895
-0.995243
0.719557
0.275686
0.0873827
-0.880836
0.793453
0.960875
-0.327752
0.159044
-0.19826
0.084618
-0.0294046
-0.0552134
-0.034576
0.0262152
0.00836084
0.572281
0.39957
-0.971851
0.597861
-0.570562
-0.0272992
-0.167389
0.0917936
0.0755955
-0.160636
-0.0621384
0.959946
-0.345239
-0.338984
0.354307
-0.0153238
0.615616
-1.18886
0.573239
0.15928
-0.74468
0.530995
0.227811
-0.758806
0.716207
-0.591877
0.958436
-0.134334
-0.824102
0.572611
-0.803804
0.231193
0.980656
-0.646284
-0.334372
-0.127629
0.216952
-0.0893232
-0.0574248
1.13391
-1.07649
1.07078
-0.246069
-0.824136
0.0246896
0.799446
-0.492407
0.392717
0.09969
0.978529
-0.462726
0.159341
0.287476
-0.628148
0.773624
-0.145476
-0.887308
1.08523
0.00881551
-0.169193
0.160378
-0.103296
0.114013
-0.0107175
-0.0184775
-0.191164
0.209641
0.606425
0.231852
-0.838278
1.4049
-0.706319
-0.698582
-0.228209
0.209732
0.337156
-0.641853
0.304697
0.0786257
-0.0119598
-0.850046
-0.44958
0.674606
-0.225026
-0.660404
0.474649
0.185755
-0.0111145
-0.0296383
0.0407528
0.447171
0.533485
-0.0164961
-0.0180799
-0.0105547
0.0951727
-0.704734
0.0765859
-0.736967
0.930505
-0.193538
-0.672112
0.747643
-0.0755307
-0.557473
-0.437023
0.994496
-0.0370987
0.39873
-0.361632
0.444318
-0.451904
0.0075859
1.04347
-0.0187008
-1.02477
0.0101187
-0.760504
0.750386
-0.360932
0.891927
0.194321
-0.557296
0.362976
-0.591537
1.21665
-0.804719
0.54747
0.257249
0.067044
-0.060308
-0.00673604
0.524229
-1.26141
0.737182
-1.08703
0.348285
-0.584157
-0.466028
1.30387
-0.765471
-0.5384
-0.30075
0.307452
0.129914
-0.137533
0.00761878
-0.655896
-0.128852
0.784748
-0.953658
1.33456
-0.380905
0.964858
-0.733393
-0.231465
0.0690944
-0.23736
0.168265
-0.329376
-0.478354
0.80773
0.167547
-0.404328
-0.707417
0.7948
-0.722623
-0.228986
0.951608
0.0923873
0.0251598
-0.117547
0.151437
-0.601017
-0.316137
0.1277
0.869964
-0.0599445
-0.143462
0.113119
-0.146663
0.182705
-0.0360427
-0.416021
1.02245
-0.873262
0.543885
-0.0849323
0.133435
-0.0485025
-0.714728
0.140185
0.574543
0.283149
0.681709
1.33015
-0.805922
0.827003
-1.4555
0.628502
0.445962
-1.33797
0.892009
0.0364841
-0.415477
-0.493321
0.717762
0.653008
-0.966663
0.547079
-0.935707
0.388628
-1.52312
0.873761
0.649362
-0.0212378
-0.393191
0.183302
0.145906
-0.329208
0.729925
-0.261583
-0.468342
-0.107028
-0.78979
0.732365
-0.258298
-0.0806854
0.682278
1.05399
-0.836387
-0.217607
-0.0106224
-0.12919
0.139812
0.661107
0.137668
-0.798775
0.0307643
-0.376458
0.345694
-0.290655
0.834977
-0.544322
-0.44093
0.728501
0.579037
-0.384717
-0.0818336
0.272686
-0.190852
1.01207
-0.396458
0.0921413
-0.00802917
-0.0841121
-0.204309
-0.184141
0.38845
-0.106759
0.110896
-0.00413758
1.28981
-0.785393
-0.504418
0.248752
-1.20241
-0.116768
0.0100094
-0.858487
0.263321
0.595165
1.37073
-0.524289
0.242088
-0.979054
1.46204
-0.61021
-0.851827
-0.0122456
0.104633
0.895347
-0.507145
-0.388202
-0.613148
0.133329
0.479819
-0.923469
0.922373
0.00109586
0.466452
-1.16866
0.702209
0.0306137
-0.0286909
-0.0019228
-0.463884
0.622432
-0.158548
-0.00813518
0.341692
-0.333557
-0.148438
0.0559399
-0.12252
0.0175156
-0.562769
-0.38716
0.408291
-0.893911
0.485621
-0.365436
0.421436
-0.0559993
0.403072
0.267709
0.870105
-0.323026
-0.102901
-0.000394251
0.692191
0.678539
-0.497956
0.0225672
0.475389
0.41236
0.482987
0.388753
0.110695
-0.44008
0.0746439
-0.288768
-0.0353112
0.324079
0.0209682
0.0460758
-0.885137
0.594482
0.113757
-0.329137
0.21538
-0.939668
0.908794
0.0308737
-0.341291
0.446978
-0.105687
-0.203617
-0.111705
0.315322
0.763574
-0.833988
0.0704144
-0.919413
-0.60371
1.26396
-0.79909
-0.464871
-0.0950872
0.0844648
1.25657
-0.790114
-0.506029
0.91432
-0.592788
0.133121
0.459667
0.914302
-0.247665
-0.666637
1.08943
-0.286813
-0.802612
-0.510645
-0.0821435
0.84466
-0.502096
-0.342564
-0.167797
0.791206
-0.623409
0.219345
-0.906339
0.686994
0.181049
0.225196
-0.406245
-0.0736958
-0.0117277
0.0854235
1.30345
-1.11395
-0.189495
-0.51844
-0.476803
0.690465
0.363529
-0.861593
-0.0780752
0.144369
-0.348678
0.353018
-0.750656
0.397637
0.00356927
0.126345
-0.538065
1.11035
0.534584
0.755227
1.42362
-0.837011
-0.586614
-0.807125
0.578139
0.700985
-1.18399
0.483008
-0.628829
-0.0456075
0.674436
-0.280182
-0.146966
0.427147
0.556846
-0.21969
-0.201691
0.116759
0.443141
-0.0534489
-0.444358
-0.602608
0.833558
-0.230951
-0.170819
0.0241567
-0.138976
0.0571428
0.108754
-1.03222
0.354102
-0.795032
0.0924695
-0.179021
0.242575
-0.0635539
0.0159854
-0.239683
-0.485186
0.367748
0.117438
0.345424
0.216786
0.579229
-0.223934
-0.355296
0.485268
0.112593
-0.380134
0.733153
0.573075
-0.0618515
-0.211839
-0.502889
1.15452
-0.946455
-0.20807
0.738946
-0.84392
0.421364
0.422556
0.800304
-0.870557
0.0702528
-0.442377
0.35311
-0.116625
-0.0507645
-0.120177
-0.556819
0.305886
-0.547562
0.241676
0.421235
0.423425
0.675911
-1.12021
0.444302
0.251916
-0.542791
0.290875
-0.973184
0.172718
0.0213911
0.360861
-0.530135
0.80338
-0.273245
-0.246598
0.306509
-0.0599104
-0.439696
-0.0403023
-0.126463
-0.233564
0.360026
0.0860394
0.000790492
-0.0868299
-0.306645
-0.185762
0.369086
0.447187
-0.816273
0.834996
-0.422636
0.269388
-0.449501
0.00712347
0.476402
-0.224486
-0.662747
-0.141972
0.325086
-0.329384
0.00429768
0.965286
-0.30584
-0.476802
0.757683
-0.280882
-0.117765
0.137984
-0.0202188
0.706938
0.0229871
-0.409505
-0.341151
-0.52065
0.937868
-0.417218
0.610557
-1.1163
0.505739
0.585772
0.67819
-0.0469693
0.0441996
0.00276975
0.093983
-0.722812
0.633735
-0.952268
0.318532
0.0634778
-0.00318848
-0.08824
0.64004
-0.362172
0.716274
-0.80051
1.24647
0.183532
-0.99304
-0.826626
0.446746
0.37988
0.645476
-0.109657
-0.535819
0.940096
-0.176522
-0.543791
-0.521217
-0.451989
0.638232
0.0240757
0.202145
-0.226221
0.320603
-0.301022
-0.730138
0.641898
0.836602
0.22864
-0.794037
0.317235
1.04332
-0.352858
-0.338686
0.373774
-0.0350872
0.0284859
-0.626614
0.598128
-0.900726
0.166195
0.734531
0.728283
-0.728283
-0.41384
0.814601
-0.400761
0.370812
0.208417
0.639728
-0.337951
-0.301777
-0.970669
1.01025
-0.0395821
0.342693
-0.0360936
-0.306599
0.264165
-0.104832
-0.159332
0.110965
-0.314582
0.183119
0.460524
-0.966554
-0.857922
1.00849
-0.150564
-0.286577
0.655663
0.10039
0.0113587
-0.111749
0.0117723
-0.195999
0.184227
-0.378527
0.415011
1.34385
-1.07797
-0.265881
-0.0861072
-0.52215
0.608258
-0.23501
0.254453
-0.0194427
0.129133
-0.275964
0.14683
-0.890045
0.320482
0.569563
0.202905
0.0970846
-0.394828
0.0561413
-0.00339961
-0.120012
0.123412
0.655084
0.648366
0.119105
-0.0187146
-0.0461434
-0.277965
0.324108
-0.514612
0.818047
-0.303434
0.0100815
0.109035
-0.119116
0.40661
-0.25317
0.641983
-0.216659
-0.425325
0.0170199
-0.422223
0.200753
0.842713
0.442275
0.292645
-0.734919
0.467318
-0.406403
-0.0609156
-1.01278
0.188643
-0.399736
0.163312
0.236425
0.500395
0.693793
-1.19419
-0.634629
0.589022
0.0460042
-0.916156
0.870152
-0.127236
0.19633
0.0813278
-0.0806645
-0.000663313
0.0331899
-0.321958
0.0135992
0.022605
-0.0362042
-0.674443
-0.184044
0.620112
0.0828517
-0.0546102
-0.0282415
-0.125637
0.00787151
0.163379
-0.703353
0.539974
0.261995
0.531964
-0.793959
0.46686
-0.7084
0.865338
-0.156938
-0.723138
0.555342
-0.0303069
-0.0218923
-0.382512
-0.277891
-0.258795
0.0649652
0.19383
-0.891627
0.377015
0.663977
-0.750084
0.434211
0.609113
-0.319147
0.308598
0.0105492
0.368997
-1.16199
0.792994
0.154988
-0.268938
0.11395
0.337331
-0.746836
-0.632212
-0.0399004
-0.315598
-0.0204964
0.091886
-0.106118
0.0142323
0.42444
0.0059303
-0.02432
0.0183897
1.13434
-0.633941
-0.533203
0.865552
-0.332349
0.266333
0.18369
-0.450023
-0.355796
0.22856
-0.219106
-0.0396894
0.431071
0.208657
-0.1947
-0.648488
0.298438
0.0266481
0.610566
0.413643
0.159432
-0.960715
1.06995
0.126858
-0.456423
0.329565
-0.087188
-0.827288
0.914476
-0.216235
0.236501
-0.020266
-0.411874
0.374775
-0.559355
0.7787
0.887774
-0.315163
-0.419201
-0.0659852
0.00592001
-0.415231
0.409311
0.410924
-0.968396
-0.128046
-0.458636
0.586682
-0.0982533
0.295556
-0.197303
-0.647833
0.0447197
0.603114
0.930956
-0.702497
-0.0136981
0.0848654
-0.0711674
-0.215958
-0.0190515
0.181041
0.366548
-0.547589
0.104789
-0.13096
0.0261702
0.579049
0.331724
-0.910773
-0.351581
1.11839
0.0828658
0.00317361
-0.278382
-0.59984
0.878222
0.303229
0.656717
0.958082
-0.696087
-0.355468
0.229005
-0.108083
0.0343875
-0.446027
1.14701
0.129882
-0.762969
0.633086
0.857629
-0.142408
-0.715221
-0.484783
0.695714
-0.210931
0.393172
-0.461211
-0.397582
0.858794
0.12578
-0.133119
0.00733959
-0.280606
-0.487605
0.768211
-0.193518
0.20529
0.0362426
-0.0473571
0.507963
-0.788569
-0.702141
-0.212855
0.914997
-0.0590263
-0.486381
0.545408
-0.0413498
1.20539
-1.22662
0.0212317
0.206798
-0.138093
-0.0687051
-0.00837666
-0.310771
0.257131
0.23734
-0.324637
0.0444555
-0.815338
1.02332
-0.207986
-0.235485
0.349242
0.26761
0.448597
-0.811101
-0.255126
-0.0731822
-0.0584355
0.131618
0.533446
-0.119803
-0.20088
0.220638
-0.0197586
0.365823
-0.373958
-1.18959
0.605437
0.935662
0.197897
-0.119656
0.248789
-0.203666
0.469999
0.945431
-0.484907
-0.20729
0.00640985
-0.112744
-0.617394
0.189823
0.220487
-0.211672
-0.919799
0.0190728
0.00304453
0.211001
-0.0560127
-0.821356
0.609966
0.21139
0.647857
0.120144
0.189659
-0.0634949
-0.126164
0.290003
-0.264089
-0.0259138
-0.743396
0.26422
-1.04674
0.526092
0.387801
-0.120189
-0.267612
-0.0156642
0.223262
-0.207598
0.993468
-0.00306459
-0.990404
0.154473
0.00937398
-0.163847
-0.13867
-0.260241
0.228571
-0.0227914
-0.0215164
0.0234593
-0.0019429
0.394648
-0.0440504
-0.350598
0.0107357
-0.0322521
0.810844
-0.659762
-0.0288749
-0.143305
0.17218
-1.0194
0.204058
0.0210198
-0.105355
0.422337
0.0469512
0.0359004
-0.0267923
-0.0761091
0.240047
0.16952
-0.409566
0.589447
0.21257
0.431047
-0.304188
0.196483
-0.173299
0.0716794
-0.318278
0.594407
0.0658069
-0.660214
0.539363
-0.042883
-0.49648
-0.46997
-0.333834
-0.361272
0.0330746
0.328197
0.389008
-0.411124
0.0221162
1.1123
-0.0413276
-1.07097
-0.360569
0.10515
0.255419
-0.500857
0.66964
-0.168783
0.590624
0.651332
-1.24196
0.309722
-0.455442
-0.279692
0.43781
-0.158118
0.216024
0.0969149
-0.312939
-1.19553
0.741704
0.453821
0.0221442
0.00131506
-0.8456
0.143459
0.305588
-0.186695
-0.118892
0.479626
-0.606523
0.126896
-0.087019
-0.190948
0.182839
1.02255
0.821492
-0.141053
-0.680439
-0.842556
0.134156
0.340239
-0.552078
0.828216
-1.26251
0.434293
-0.101326
0.284629
3.2873e-05
-0.373838
0.327694
-0.16082
0.214036
-0.145724
-0.815039
0.960763
0.565097
0.69147
-0.746167
0.775615
-0.0294481
0.100928
-0.00904244
-0.598222
-0.244831
-0.112752
0.126062
-0.0133099
0.472144
-0.0778927
-0.394251
-0.0235536
0.179142
-0.155588
-0.0671673
0.546794
-0.768907
-0.0830464
0.851954
-0.719395
-0.252461
0.971856
0.463711
-0.346913
-0.116798
-0.189064
0.0160484
0.173016
-0.0978829
0.0698804
0.0280025
-1.01337
0.0484802
0.964887
0.025098
0.187015
-0.212113
0.803033
-0.903885
0.100853
-0.510558
0.583408
0.422261
-1.00567
0.0115648
-0.124317
-0.0485956
-0.781698
0.830293
0.604065
-1.1956
-0.947863
0.824524
0.123339
0.121781
-0.0169917
0.746281
-0.478671
-0.0487799
-0.225909
0.274688
-0.00959035
0.131675
-0.122085
-0.182468
0.889839
-0.70737
0.704782
-0.383269
-0.321513
1.03529
-0.97909
-0.056196
0.758172
-0.268561
-0.48961
0.0423663
-0.223507
0.181141
-0.290453
-0.0125076
-0.927029
0.812806
0.114223
0.052757
-0.979786
-0.277377
0.448797
-0.17142
-0.580111
-0.533844
0.187219
-0.16061
-0.0266089
-0.79745
-0.221946
-0.177435
0.119367
0.0580678
-0.230912
0.261677
-0.883695
0.856127
0.0275683
-0.164347
-0.0793899
-0.0176683
0.168739
-0.0142659
-0.593086
0.129202
0.133087
-0.15717
0.0240832
-0.581677
0.398437
0.18324
0.371366
-0.0286729
-0.236905
0.68319
0.0237474
0.35019
-0.133338
0.170746
-0.0374084
-0.0790518
0.52337
-0.618209
0.401219
0.216989
0.00628678
0.0158574
1.22811
-0.663016
0.99462
-0.625623
-0.234006
-0.14815
0.382156
0.538416
-1.00503
0.466612
0.556383
-0.615409
0.954413
-0.431238
-0.523175
-0.00373712
-0.522805
-0.0954043
-0.425574
0.909605
-0.484031
0.0125016
-0.375907
1.20291
-1.06557
0.268125
0.373804
-0.192755
-0.0841561
0.0666398
0.113901
-0.00300437
-0.492267
-0.491108
1.5173
-0.792801
-0.468967
0.342892
0.126074
0.0596403
0.204524
-0.658401
-0.420634
1.07903
0.219797
0.337049
-0.00434232
-0.136718
0.14106
0.820941
-0.221777
0.0501508
0.171626
0.666977
-0.0725701
-0.351762
-1.02617
0.16825
-0.20948
0.0106083
0.198871
0.599371
0.862666
0.41585
-0.433374
0.017524
0.980339
0.054947
0.615382
-0.87215
0.256768
-0.827605
-0.010726
0.838331
-0.753896
0.984537
-0.230641
0.131909
-0.00551318
-0.126396
-0.555888
1.15995
-0.166796
-0.354724
0.52152
0.0208497
-0.767016
0.278443
-0.112014
-0.166429
-0.956903
1.24947
-0.292563
-0.227268
0.540358
-0.31309
1.16204
-0.512249
-0.64979
-0.00506236
-0.590253
0.595316
-0.071471
-0.00919343
-0.520528
1.11115
0.381078
-0.794918
1.09266
-0.482098
-0.179479
0.150604
-0.864593
0.0369875
1.17893
-0.503017
-0.0127719
-1.327
0.24937
-0.0118612
0.372643
0.551108
-0.923751
0.544367
-0.12697
-0.417397
0.296981
-1.02579
0.72881
-0.130692
0.00894894
0.121743
-0.198141
-0.484092
0.682233
0.344646
-0.272966
-0.22939
0.0106153
0.218775
0.111645
0.277123
-0.388768
0.0752173
0.112001
-0.899211
1.05028
-0.151073
-0.224766
0.00853014
0.453495
0.203648
-0.657143
0.562724
0.62577
-1.18849
0.159431
0.486045
-0.0164986
0.974935
-0.000976249
0.786033
-0.785057
0.0244918
-0.0144103
0.064126
-0.00851573
-0.0556103
1.33756
-1.10693
-0.230627
0.446102
0.50831
-0.136086
0.0875442
0.0485422
-0.281581
0.797632
-0.516051
0.00950062
0.152327
-0.161827
0.664717
-0.996509
0.331792
-0.314633
-0.646613
0.961246
0.840744
-0.179636
0.29061
0.253757
-0.422035
-0.00458396
0.426619
0.283238
-0.805389
0.203466
-0.477867
0.2744
0.179523
-0.0684695
-0.111054
0.0395176
-0.110989
-0.0646054
0.586307
-0.521702
-0.173651
1.1649
0.763017
-0.616523
-0.146495
0.626033
-0.539016
-0.50364
0.15261
0.35103
0.129691
-0.467642
0.291545
-0.162412
-0.129133
0.0585975
0.131061
0.138553
0.734801
-0.873354
0.224627
0.170021
0.119798
-0.839193
-0.440786
0.132406
0.30838
-0.330823
-0.22918
0.560002
0.480032
-0.239986
-0.83866
0.552082
0.23893
-0.19168
-0.0472502
-0.469842
0.911348
-0.441506
-0.428975
0.445995
-0.452229
0.510107
-0.0578788
-0.572354
0.947064
-0.37471
-0.0195644
0.199752
-0.180188
-0.295772
0.280107
-0.27099
-0.560323
0.894576
-0.334253
-0.548067
0.688252
0.497391
-0.510038
0.0126467
0.185428
0.244471
-0.429899
-1.24718
0.816555
0.430624
0.0296127
0.100668
-0.130281
0.0787164
0.688047
-0.870515
0.949143
-0.410727
-0.336757
-0.489869
-0.699152
0.698176
0.488434
-0.0137846
0.377237
0.110845
-0.488082
-0.32456
0.299219
0.025341
-0.248046
0.0709622
0.177084
-0.330756
-0.408258
0.739013
-0.00470609
0.466083
-0.461377
-0.732632
-0.271771
1.0044
-0.256541
0.441969
1.0012
0.336357
-0.884938
0.537948
0.346989
-0.462096
0.0919782
0.370118
0.00377997
0.172653
-0.222129
0.0494757
-0.586816
-0.913708
0.582952
0.127567
0.192672
-0.150306
0.154627
0.317516
-0.0233862
-0.85745
0.0273816
0.274081
0.179123
-0.00179076
-0.177332
-0.644294
-0.504267
1.14856
-0.156048
-0.265988
-0.496194
-0.101435
0.597629
0.109609
0.195949
-0.305558
-0.0103067
1.13031
-0.73898
-0.391332
0.174578
0.646914
0.108112
0.090539
-0.552528
0.461989
-0.617016
1.07237
-0.455353
-0.557807
-0.25831
0.816116
-0.450978
0.171286
-0.394934
-0.108707
0.855079
-0.423203
-0.431876
0.437371
-0.115717
-0.321654
0.372675
0.052504
-0.425179
-0.160815
0.185913
0.177665
-0.279597
0.101933
-0.0406605
-0.0247098
-0.203499
-0.0063588
0.453255
0.401824
-0.366286
0.86927
-0.462856
1.23208
0.405139
0.0322318
-0.853103
0.295296
0.721694
-0.627711
-0.102217
-0.628225
0.127368
0.15091
-0.428287
0.717995
-0.689509
0.822036
-0.0217312
-0.189406
-0.108316
-0.261055
-0.0666079
0.327663
-0.289077
-0.0339417
0.707944
0.152548
-0.860492
0.018642
-0.24306
0.224418
-0.0456189
0.441835
-0.885281
0.443446
0.869909
-0.0668764
-1.02133
1.09905
-0.07772
0.205571
-0.132814
-1.05639
-0.19079
-0.309835
0.840043
-0.0272364
0.475589
1.10729
-0.404228
-0.703066
-0.636257
-0.0351098
0.671367
0.248665
0.483323
-0.731988
-0.687348
0.0395146
-0.161176
-0.132892
0.294068
-0.466533
0.596415
0.130644
0.507282
-0.637926
0.118702
-0.00979537
-0.108907
-0.965992
0.120074
0.845918
0.418691
0.530452
-0.240064
0.551886
0.206285
-0.282714
-0.117022
0.816885
-0.95122
0.336222
-0.253153
-0.0830689
0.471467
-0.161744
0.665361
0.0420246
-0.707385
0.775436
-1.23829
0.00574142
0.0248723
-0.247132
0.339507
-0.0923746
-0.845595
0.796999
-0.0215756
0.274741
-0.253165
-0.308883
0.191552
0.117331
-0.307565
-0.104309
-0.249747
0.589987
0.220881
0.16692
-0.14295
0.154514
-0.336372
-0.0400863
0.0186098
-0.0473007
-0.176926
0.170019
0.00690701
0.193158
-0.217586
0.0244274
-0.492724
0.323531
0.134655
-0.630848
-0.0313394
-0.269411
0.0151597
0.543674
-0.558834
0.309106
-0.344417
0.107416
-0.771758
0.664342
-0.26215
0.762706
-0.500556
0.189182
-0.791789
-0.420106
-0.0245799
-0.923283
0.785938
0.731364
-0.732557
-0.106103
-0.461756
-0.382164
-0.40144
0.167876
-0.0500385
-0.00755209
0.0575906
1.31144
-0.712067
0.822598
-0.188863
-0.227374
-0.146202
0.373577
-1.19737
0.540081
0.65729
-0.44436
0.283184
-0.355885
0.939293
0.150603
-0.0873131
-0.345875
-0.423156
0.25636
0.387902
-0.397486
0.00958327
-0.115944
0.823888
-0.311572
0.410696
-0.0991244
0.758696
-1.27314
0.572807
0.700328
0.192057
0.219867
-0.411924
0.550925
-0.208377
-0.342548
-0.508023
0.280755
-0.869823
0.00733781
0.365337
0.885126
-0.972314
0.391593
-0.175568
-0.388777
0.672015
-0.815937
0.579919
0.236018
0.708654
-1.04569
0.337032
-0.68149
0.723357
-0.0418675
0.411515
-0.490567
0.0125106
0.223629
0.240082
0.17152
-0.797203
0.351533
-1.05522
0.597892
0.457333
0.227641
-0.863898
0.638858
-0.0384951
-0.574653
0.133207
0.223833
1.01987
-0.340812
-0.679059
-0.106794
0.245589
-0.576412
0.142588
-0.952262
0.917152
-0.773422
0.312211
0.463972
-0.64747
0.356612
0.290858
-0.846344
0.514039
0.332306
-0.220248
0.134359
-0.232612
-1.00518
0.7012
0.303981
0.613164
-1.16905
-0.886637
-0.0125736
1.23565
-0.407434
0.166691
0.100115
-0.266806
-0.0205594
-0.126264
0.146824
-0.192164
0.457312
0.52655
-0.389654
-0.257816
0.160011
0.184634
0.215996
0.34197
-0.557966
0.3611
-0.215194
-0.0357171
-1.04657
1.08229
-0.308909
0.384951
-0.745883
-0.581392
-0.423446
1.00484
0.232649
-0.312087
-0.661856
0.203597
0.458259
-0.0306712
-0.0556853
0.0863565
0.698478
-0.844201
0.0358939
-0.283026
0.542564
0.55329
-1.09585
-0.438128
-0.0308385
-0.804796
0.224363
0.580433
-0.971054
0.656421
0.445221
-1.06224
0.369644
-0.0334218
-0.0341777
0.00350653
-0.0246866
0.882316
-0.585204
0.732317
-0.147113
0.820683
0.00239297
-0.823076
-0.622174
-0.0116171
-0.167404
0.0634357
0.664848
0.110378
0.0276058
0.252329
0.557445
-0.186633
0.481437
-0.235662
-0.0123839
-0.833256
-0.0504392
-0.841595
0.277699
-0.784843
0.161652
0.181341
-0.342994
0.772976
0.0487788
-0.821754
-0.0943352
0.0888221
-0.334485
-0.712256
-0.757859
-0.112698
-0.489328
1.26476
-0.319067
0.4379
-0.118832
-0.92108
0.276785
-0.268121
0.484117
-0.243572
-0.577784
-0.503334
-0.296615
0.304201
-0.567897
-0.0137796
0.961676
-0.121634
0.578383
-0.248149
-0.330234
0.0728852
0.199801
0.237619
0.987319
-0.941314
-0.000564851
-0.210676
0.302619
-0.468303
0.49087
-0.43104
-0.527764
0.206224
0.162184
-0.368408
-0.765098
0.0368145
-0.114837
0.7391
-0.624263
-0.0558659
-0.965464
-0.665994
0.803662
1.43533
-0.635065
-0.800268
-0.127483
0.290795
0.746201
-0.389886
-0.356315
0.245539
-0.270249
0.0311626
0.0329634
-0.183529
0.0383754
0.145154
-0.10243
0.479667
-0.556639
1.1698
-0.0255375
-0.135072
-0.258126
-0.0760635
0.33419
-0.0191005
0.717578
0.344199
0.281084
-0.625283
-0.3662
0.547241
0.403597
0.394035
-0.371281
-0.0695047
0.496809
-0.184867
-0.311942
-0.0505276
0.0358794
0.0146482
0.150176
-0.772721
0.622545
-0.884997
0.127138
0.204261
-0.505662
0.783361
-0.00745764
0.252997
0.115643
-0.434711
-0.911346
0.459357
-1.03009
0.323776
-0.423471
0.0449443
-0.381884
-0.553828
0.935712
-0.77734
0.128681
0.0300278
-0.158709
1.0006
-0.774581
0.780816
-0.532151
0.141367
0.501187
-0.642554
0.189622
-0.350798
-0.443541
-0.265356
0.708897
0.29953
-0.216077
-0.0834536
-0.556948
1.19457
-0.637625
0.730843
-0.480808
-0.250034
0.628965
0.0222242
-0.651189
-0.526792
-0.746343
-0.299116
-0.0164812
0.370362
0.590513
-0.0117134
0.0808701
-0.0691568
-0.650247
-0.154549
0.63911
0.555862
-0.509199
0.610688
-0.101489
-0.246278
0.296429
-0.0285391
0.254439
-0.2259
0.0922287
-0.4038
-0.115985
-0.889195
-0.871948
0.224267
0.0146631
-0.0995267
-0.216611
0.0710751
0.692636
-0.763711
-0.473809
-0.119277
0.452687
0.382309
0.0628073
-0.223443
0.0221507
0.184821
-0.206972
0.0633805
-0.331985
0.268604
0.183576
0.263401
0.352845
0.790709
-0.369474
0.819269
-0.434318
-0.102354
-0.234207
0.336561
0.712241
0.0789654
0.0234081
-0.639241
0.441099
0.254017
-0.273117
-0.478041
-0.673093
1.15113
-0.615746
-0.581626
-1.07036
1.10949
-0.0391335
0.337957
-0.334419
0.267811
0.527942
0.262768
-0.315344
0.332954
-0.0176106
-0.268508
-0.513032
-0.227135
-0.43774
0.664875
0.450451
-0.230654
0.479366
-0.275899
0.55729
-0.891775
0.434874
-0.331205
-0.489705
0.936004
-0.446298
0.671165
0.44678
0.293059
-0.739839
1.09131
-0.618618
-0.472689
-0.599267
-0.636999
1.07501
-0.438009
0.281004
0.297379
-0.264382
0.256924
0.401829
0.760209
-0.188616
0.168057
0.0211766
-0.0152463
0.901037
-0.501467
0.448386
0.863052
-0.37709
0.196668
0.180422
0.195195
-0.429202
0.707557
-0.0421967
0.359486
-0.192794
-0.637875
-0.12225
0.760125
0.168083
-0.0287198
-0.139363
0.124436
0.0823624
0.128956
-0.882852
-0.259297
0.292487
0.649413
-0.572538
-0.0768748
0.153828
0.342981
-0.132274
0.0687796
0.240659
0.207716
-0.448376
-0.419674
1.10244
-0.134974
-0.533256
1.08921
-0.555957
-0.262464
0.37411
0.0857676
0.0329346
1.05075
-0.530293
-0.3313
0.250287
0.300638
0.275407
-0.306746
-0.145162
0.125598
-0.276245
-0.121541
-0.00409577
0.241161
-0.14042
0.761124
-0.620705
0.111187
-0.114586
-0.302117
0.0762086
-0.295347
-0.00376946
-0.846498
0.568116
0.227077
0.210733
-0.446811
0.183037
0.263774
0.248995
0.0438444
0.767169
0.424421
-1.19159
-0.085498
-0.0166974
0.102195
0.158984
-0.692187
0.952193
0.48314
0.733414
-0.662338
-1.08303
-0.0621314
-0.0193649
0.0041946
0.429705
0.384848
0.391314
-0.776162
0.353209
-0.0441024
-0.0296772
-0.29486
-0.0822301
-0.500619
-0.387724
0.517414
0.454229
0.411323
0.522243
-0.539735
0.0174924
0.163353
0.0066658
-0.0618745
0.225255
-0.0320973
0.670705
0.16447
-0.835175
0.453779
-0.0658768
-0.20243
0.123373
0.0790569
-0.31207
-0.0038331
0.315903
0.243576
0.582238
-0.825814
0.2016
0.278433
0.641193
-0.0168693
-0.237615
0.399532
0.157913
0.117665
-0.188832
0.0711667
-0.965035
0.499007
0.781282
-0.619612
-0.16167
0.0116909
-0.116057
0.104366
0.749563
-0.814168
0.525358
-0.0749072
0.385717
0.395098
-0.110739
-0.0108023
-0.344047
0.134105
0.209941
-0.533771
-0.102364
0.998929
-0.511364
-0.487564
0.45835
-0.0473602
-0.41099
0.386592
-0.648027
0.261436
-0.0854793
0.464069
0.012333
-0.448271
0.934102
-0.485831
-0.204357
-0.13969
-0.432251
0.383906
0.0267902
0.683944
0.00275888
-0.686703
-0.287856
-0.0156666
0.194789
0.111619
-0.0240747
0.247015
0.0924922
-0.310099
0.286546
-0.00090688
-0.0531354
-0.119523
0.124505
-0.357846
0.499213
0.0087922
0.211695
0.224296
-0.248135
0.651207
-0.0491685
0.571411
-0.124644
-0.0972113
-0.205152
0.445811
-0.157158
0.865968
-0.70881
-0.740064
-0.105537
-0.704367
1.05846
-0.354096
-0.0496899
0.433596
0.282523
-0.0547045
-0.017126
-0.213784
0.230911
-0.774158
0.243865
0.0949599
-0.108658
0.502005
-1.16041
0.368368
-0.968208
-0.638175
1.14987
-0.444855
0.459369
-0.251652
0.0111588
-0.569028
0.719204
0.000671363
-0.129861
0.130137
-0.47705
-0.0900452
-0.551134
0.64118
-0.355675
0.48413
1.3013
-0.853941
-0.447359
-0.195216
0.061531
0.184979
0.018963
-0.203942
-0.725411
0.140208
0.158359
0.0211643
-0.00538176
-0.103887
0.109268
0.422945
-1.12731
0.080877
0.401587
0.0311863
-0.432773
-0.960264
0.803106
0.119996
0.0324322
-0.152428
0.334156
-0.894479
-0.119168
-0.00143695
0.120605
0.15367
-0.0336742
-0.00488142
0.65084
-0.491409
0.53424
0.447394
-0.245794
-0.815759
0.234367
-0.60344
0.487358
0.116081
0.629562
-1.1076
-0.45311
-0.268933
0.722044
0.0369297
0.355787
-0.264722
0.228629
1.05117
-0.154058
-0.897112
-0.0118086
-0.821448
0.576003
0.0529621
0.361931
0.38427
-0.133789
-0.00292819
0.118035
-0.237413
-0.310149
0.0382365
-0.0336149
-0.00462166
0.0169522
-0.632895
0.615943
-0.0735641
0.27998
-0.206416
0.406152
-0.971069
0.564917
-0.0921666
-0.478396
-0.0289437
0.0139165
0.606857
-0.306444
-0.168679
0.475123
-0.327954
-0.346489
0.393722
-0.231538
0.318172
0.110065
-0.428237
-0.43401
-0.0128008
-0.670676
-0.112529
-0.0280171
0.140546
0.142354
0.221072
-0.363426
0.377076
-0.775267
0.398191
0.0243705
-0.487914
0.152501
-1.1094
-0.354738
-0.887294
1.24203
-0.84589
0.0353015
0.810589
-1.13148
-0.704442
0.0229523
-0.250963
0.251545
-0.000581343
-1.2548
-0.303558
0.974264
0.33698
-0.16746
0.0839404
-0.289092
-0.139112
0.417545
0.125718
0.0778847
-0.336011
0.0128237
-0.102233
0.0894097
-0.188329
0.0607001
-0.0679401
0.079631
-0.250472
0.442529
-0.903032
0.544733
0.3583
-0.250851
0.0491601
0.499853
0.17125
-0.00316745
-0.0396828
-0.275661
-0.432227
-0.22963
-0.480834
0.165074
0.31576
-0.042909
0.343182
-0.300273
-0.366032
0.429412
-0.0693715
0.643914
1.0627
-0.7185
0.468633
-0.796587
0.374817
-0.506498
0.131681
0.0868322
-0.00196673
0.0453534
-0.00115389
-0.926874
0.54499
0.0762881
0.382062
0.0127172
-0.16479
0.152073
-1.47485
0.587545
0.211719
-0.39586
-0.163532
-0.0171806
-0.187647
0.204827
-0.493416
0.186973
-0.972576
0.856591
1.17151
-0.628949
-0.165644
0.151337
0.0143064
-0.11768
0.0592449
-0.12455
-0.800522
0.181772
0.61875
-0.116588
0.0998909
-0.0431829
0.268328
-0.225145
0.323806
0.201552
0.13233
-0.129289
-0.00304105
-0.2329
0.241692
0.0675473
-0.00406943
0.466623
-0.820019
0.936719
0.0436201
-0.534689
-0.115734
0.849175
-0.0335841
-0.815591
-0.159142