/*--------------------------------*- C++ -*----------------------------------*\
| =========                 |                                                 |
| \\      /  F ield         | OpenFOAM: The Open Source CFD Toolbox           |
|  \\    /   O peration     | Version:  2306                                  |
|   \\  /    A nd           | Website:  www.openfoam.com                      |
|    \\/     M anipulation  |                                                 |
\*---------------------------------------------------------------------------*/
FoamFile
{
    version     2.0;
    format      ascii;
    arch        "LSB;label=32;scalar=64";
    class       volVectorField;
    location    "7.5";
    object      U;
}
// * * * * * * * * * * * * * * * * * * * * * * * * * * * * * * * * * * * * * //

dimensions      [0 1 -1 0 0 0 0];

internalField   nonuniform List<vector> 
5098
(
(2.53882 1.07336 0)
(2.12317 0.104455 -4.71166e-20)
(2.55579 -0.00823925 -1.93848e-21)
(1.51633 -0.679072 7.19511e-19)
(2.7437 -1.08495 0)
(0.892111 -0.429026 0)
(2.51531 0.00865172 3.15631e-20)
(2.82083 -0.27053 2.11082e-21)
(2.72975 -0.0284868 -4.15256e-20)
(1.88619 -0.283603 1.69532e-19)
(-2.24833 0.211543 0)
(2.12236 -0.0286659 1.58103e-19)
(2.40111 -0.299632 -4.78647e-21)
(0.926332 -0.44882 0)
(2.34099 -0.424281 1.50422e-19)
(1.8827 0.0778946 -5.61376e-22)
(-1.9702 0.598421 -6.08236e-19)
(-2.66445 1.18444 0)
(-0.259433 0.196381 3.43385e-19)
(-2.00935 0.623204 6.94377e-19)
(1.81612 0.580036 -8.59056e-20)
(1.85945 0.0639613 -1.62178e-21)
(2.09954 -0.782055 0)
(0.746709 0.0393806 2.9792e-20)
(-1.83829 1.23586 0)
(1.46177 -0.582629 0)
(1.9831 0.0242868 1.34588e-19)
(1.83142 -0.770959 1.7129e-19)
(-0.353291 0.272134 -1.05207e-18)
(1.73594 -0.743972 0)
(2.39624 -0.181282 -1.00471e-19)
(0.708086 -0.341939 0)
(2.06682 0.0432182 -1.39972e-19)
(-1.39906 -0.221675 0)
(2.54165 0.392386 -3.15494e-20)
(3.6741 0.446582 1.20829e-18)
(1.84022 -0.446882 1.35878e-19)
(2.06325 -0.0109853 -2.80434e-21)
(1.32701 -0.431916 5.50216e-19)
(1.39526 -0.641731 0)
(1.52358 -0.693562 -3.3572e-19)
(0.635781 1.46867 -1.86015e-18)
(1.47789 -0.586539 0)
(2.58028 -0.177235 6.99459e-20)
(2.43056 0.726597 6.16636e-21)
(2.04415 0.0679461 8.24094e-21)
(-2.20113 0.665352 2.65109e-19)
(1.07176 -0.356056 0)
(2.36324 -0.207972 0)
(1.51998 -0.643652 7.68327e-20)
(2.24664 0.132103 7.87622e-20)
(1.5896 0.487831 -4.98161e-19)
(0.33473 -0.174881 1.47088e-21)
(2.07707 -0.0368617 1.6929e-19)
(0.954662 -0.476221 -3.29246e-19)
(1.54841 0.137878 0)
(1.82407 0.29641 -2.67963e-19)
(1.61567 -0.661774 0)
(0.835843 -0.408971 0)
(1.9463 -0.0129229 -4.06168e-20)
(1.65043 -0.361654 4.62811e-21)
(-2.19609 1.07186 -9.19541e-19)
(2.51204 0.42747 0)
(2.33789 -0.273249 0)
(0.368742 -0.183026 1.69897e-18)
(0.803364 -0.401871 4.21233e-19)
(2.33831 0.0180258 5.08714e-21)
(2.30796 0.173489 1.58206e-20)
(2.13921 -0.232541 1.59288e-19)
(1.66 -0.700224 2.17817e-19)
(1.89207 0.226996 1.39476e-20)
(1.00081 -0.783695 9.95498e-21)
(1.90691 -0.781074 0)
(-0.282743 -0.627297 0)
(1.78274 -0.260546 3.81666e-20)
(1.12093 -0.548455 -3.69349e-19)
(1.56054 -0.193697 0)
(1.499 0.227744 4.46915e-19)
(2.49101 -0.258799 7.41174e-20)
(1.60642 0.188454 0)
(1.69448 -0.0691743 0)
(2.13426 1.10126 6.15517e-19)
(1.679 -0.301873 5.06473e-19)
(-1.32289 -0.496732 -9.61511e-20)
(-2.50399 0.798619 7.52092e-19)
(1.57897 -0.680372 4.64646e-20)
(0.0615558 0.284143 -2.72351e-19)
(1.57595 -0.212383 -3.39411e-21)
(2.93625 -0.165153 7.86743e-20)
(1.55737 -0.33185 8.43801e-21)
(2.27941 -0.215253 -6.67184e-21)
(0.943608 -0.277682 7.12791e-19)
(2.4889 -0.0835382 -1.99437e-19)
(1.5352 -0.663375 -3.83551e-19)
(1.31164 -0.459039 9.69197e-20)
(0.891359 -0.620665 -5.13201e-20)
(1.04576 -0.52473 -2.98006e-19)
(1.43803 0.302144 3.32434e-19)
(1.71941 -0.250199 1.71693e-20)
(2.0118 -0.454385 -1.02348e-19)
(3.09718 -2.2184 -6.10335e-19)
(1.00702 -0.497031 -3.87953e-19)
(-0.339401 0.306722 -1.86965e-19)
(2.70674 0.041027 1.32196e-20)
(1.51103 0.199746 -5.08022e-19)
(2.39415 1.16681 0)
(1.92489 0.284724 2.85488e-19)
(2.34873 0.102442 2.57095e-20)
(1.00208 -0.398491 7.62734e-20)
(-2.26801 0.200112 0)
(1.05041 -0.505257 -8.10449e-19)
(1.05518 0.438396 5.01149e-19)
(1.94815 -0.0132336 -2.54498e-19)
(0.86881 -0.117041 1.56327e-19)
(1.75857 0.657108 1.23675e-19)
(-0.311549 -0.0163259 0)
(2.48561 0.866186 1.72695e-18)
(2.60549 1.48198 0)
(1.22413 0.134128 -7.53707e-20)
(0.77826 -0.0143232 -4.56605e-19)
(1.65364 0.469363 4.09051e-19)
(1.54795 2.00686 -1.70009e-19)
(1.96278 -0.305074 -1.07153e-19)
(-0.513987 2.30047 -9.12423e-19)
(0.779145 -0.32343 -9.68124e-19)
(-1.87628 0.787643 5.81618e-20)
(2.22901 -0.029325 1.37821e-19)
(2.081 -0.746905 -1.60991e-19)
(1.34196 -0.11368 -1.17663e-19)
(0.928547 -0.112353 -3.04819e-19)
(-1.83796 2.20347 -1.21921e-18)
(1.09171 -0.47829 -5.58294e-19)
(1.12567 -0.479443 4.66895e-19)
(2.50433 1.50278 -8.53967e-20)
(1.07517 -2.5386 -1.44641e-18)
(3.41437 -0.602029 5.82927e-19)
(1.93582 2.48087 4.55087e-19)
(1.90117 0.290117 1.96295e-19)
(0.863025 -0.42169 0)
(2.0957 -0.0369383 -5.46835e-19)
(1.562 0.582389 -3.30653e-19)
(1.63458 -0.236337 1.54945e-19)
(1.73604 -0.785708 3.14608e-19)
(2.52482 -0.0314405 -1.05621e-20)
(2.03237 0.0576702 -5.56891e-20)
(2.95361 0.203252 0)
(2.11126 -0.238679 1.69016e-19)
(2.38088 -1.44141 0)
(2.84844 -0.0515071 4.46773e-19)
(1.63675 -0.743734 1.06088e-19)
(2.62017 0.400497 -1.22622e-18)
(1.84675 0.778117 0)
(2.55416 -1.41963 2.23473e-19)
(2.05311 0.0452898 0)
(0.0491821 0.1789 -3.42572e-19)
(0.785054 -0.298577 -1.88262e-19)
(1.62079 -0.654846 -3.9497e-19)
(2.28861 -2.29776 -3.18408e-19)
(1.47082 -0.687268 -2.76177e-19)
(-0.191021 0.136948 1.11609e-18)
(1.93465 -0.424697 -3.61937e-19)
(2.36547 -0.415017 -2.02286e-19)
(0.522261 0.576957 -4.40494e-19)
(1.80118 -0.194553 -3.13278e-19)
(-2.62263 1.46878 -6.38195e-19)
(2.43046 -0.188225 -1.03343e-19)
(2.76208 -1.34536 -8.31299e-19)
(2.33904 -0.477241 0)
(-2.11631 1.44354 6.96518e-19)
(1.66431 -0.53995 -4.36473e-19)
(0.870111 -0.655959 3.65342e-20)
(1.5282 -0.61845 -2.62227e-19)
(2.22692 0.57425 1.52852e-19)
(1.82785 -0.743202 3.03137e-19)
(2.63124 -0.0243387 0)
(1.93812 0.00762588 0)
(1.69112 -0.292733 -1.94566e-19)
(3.38232 0.516489 -1.68378e-20)
(1.74698 -0.131774 4.40945e-19)
(0.243018 0.113976 0)
(1.67311 2.15442 0)
(3.08312 0.554241 -1.17351e-18)
(1.72198 -0.53428 5.26856e-19)
(-2.56311 1.55643 0)
(1.84247 -0.192995 0)
(2.69193 0.875429 3.66523e-19)
(1.48876 0.344298 0)
(1.8706 -0.430196 4.6332e-19)
(0.988856 -0.482754 7.12968e-19)
(0.0984079 0.481372 -3.18485e-19)
(1.02069 0.657054 0)
(1.52192 -0.167535 1.42205e-19)
(1.93286 -0.800559 0)
(1.75887 -0.270984 4.00037e-20)
(2.43496 -0.179994 1.13644e-20)
(0.782895 -0.197061 -7.52147e-19)
(3.5266 0.500699 4.5532e-19)
(3.61416 -0.431796 0)
(2.03121 0.0315809 -3.76853e-21)
(1.69012 -0.520972 -7.76332e-20)
(-1.86864 2.17506 -1.78866e-18)
(1.65472 0.410317 6.21041e-21)
(2.4573 0.713032 -1.73797e-20)
(2.33227 0.0274496 6.13942e-21)
(1.50539 -0.00716576 1.97384e-19)
(0.756652 -0.304328 -1.34458e-19)
(2.72929 0.107422 -1.79966e-20)
(1.15857 -0.527549 0)
(2.38032 -0.0885545 0)
(1.27016 -0.613218 -3.10385e-19)
(1.95016 -0.149253 -1.58665e-19)
(1.6983 0.352629 3.30611e-19)
(1.66519 -0.162414 -1.41788e-19)
(2.05876 0.105011 -2.02695e-19)
(2.24367 -0.077911 -3.12347e-19)
(-0.073946 0.210426 -2.86839e-19)
(1.80961 -0.283769 0)
(-2.48414 0.618693 -1.29188e-18)
(1.01607 -0.34263 1.36784e-19)
(2.00958 0.0551258 1.41608e-19)
(2.29605 -0.226335 -2.49193e-20)
(1.56511 -0.307331 0)
(2.44462 0.0987357 2.47948e-21)
(2.28668 -0.268848 1.24041e-19)
(0.350991 -0.134641 1.9517e-19)
(2.02757 -0.153951 0)
(0.367704 -0.0859081 0)
(1.97383 0.019141 0)
(1.96903 -0.46411 0)
(1.80901 -0.684938 -7.65123e-21)
(1.79822 0.488014 0)
(0.569704 -0.234887 -4.94227e-19)
(2.93181 0.610128 -7.26765e-19)
(1.98579 0.0347971 -9.46028e-22)
(2.65695 -0.0465356 -5.9416e-20)
(2.39333 -0.0472435 0)
(1.42391 1.52136 -2.07909e-19)
(-0.880569 2.26542 -1.59613e-18)
(3.26339 0.149799 0)
(1.85998 -0.0132116 3.22874e-19)
(1.77306 1.26855 -2.06411e-18)
(2.25106 0.593814 0)
(2.68933 0.0447787 0)
(1.01639 -0.225913 8.28995e-19)
(1.76646 0.533525 -4.39719e-19)
(2.29838 -0.119746 -1.75681e-19)
(1.04076 -0.491956 8.95015e-20)
(-2.46999 0.391745 -8.22348e-19)
(-2.03167 0.462813 0)
(2.39728 -0.109031 4.85772e-20)
(2.17474 0.843717 -1.21516e-19)
(1.83984 -0.765125 3.07115e-19)
(-0.410773 -0.149147 4.71902e-19)
(-1.33518 2.3074 8.45084e-19)
(1.96988 0.0352304 -2.39576e-19)
(-0.950603 2.15646 1.46304e-18)
(2.08958 -2.50194 1.22837e-18)
(0.467276 -0.304694 -1.13007e-19)
(1.10447 -0.37842 -3.44463e-19)
(1.72619 0.0381508 1.45547e-20)
(2.68709 0.888458 5.48899e-20)
(0.374658 -0.215803 7.78078e-19)
(-1.43018 1.03438 9.70369e-19)
(1.85497 -0.794192 0)
(2.0652 0.0282169 -1.45957e-21)
(-2.52211 1.16917 3.52114e-19)
(-0.163958 0.113735 -1.30779e-18)
(-2.18872 -0.182756 0)
(0.96781 -0.488279 0)
(1.83715 -0.0122616 -2.98302e-20)
(0.116775 0.511292 3.91877e-19)
(1.84316 0.0820153 -3.05847e-20)
(-0.188267 0.140867 -5.89115e-19)
(1.08691 -0.415915 0)
(1.10578 -0.436495 2.50473e-21)
(-0.492039 0.349097 -1.16315e-19)
(0.853552 1.32344 -2.25928e-18)
(3.0853 -0.24855 0)
(2.24967 -0.658062 0)
(1.93069 -0.106657 0)
(-2.0829 2.17054 -6.85021e-19)
(2.70589 -0.202178 2.20147e-19)
(0.389282 -0.179917 -8.18168e-19)
(2.69089 -0.188574 -2.44606e-19)
(2.26284 -0.433327 -1.45365e-19)
(-0.973672 0.350862 0)
(1.94132 0.0411962 0)
(2.89272 0.0517477 1.08127e-19)
(2.46005 -0.167082 8.32615e-20)
(1.64234 -0.013082 -2.44632e-19)
(-0.366283 2.36773 0)
(-1.08478 -0.798334 5.58345e-19)
(1.01716 -0.0105912 -2.43906e-19)
(2.44124 0.552111 4.85062e-22)
(1.92883 -0.592756 3.26628e-19)
(0.83337 -0.18928 -8.74851e-20)
(2.58048 0.151371 0)
(2.40303 -0.183893 -9.12717e-20)
(2.02776 0.0372095 0)
(2.07841 0.0375728 -1.47023e-19)
(2.8133 0.119449 -9.10487e-20)
(2.7384 0.0958872 1.155e-19)
(1.5561 -0.397094 5.25615e-19)
(1.85513 0.485345 2.4467e-19)
(-2.48537 1.22995 -5.75114e-19)
(1.75989 -0.715521 -2.00295e-19)
(2.47397 1.88338 -1.08065e-19)
(2.066 0.00377086 0)
(1.77948 -0.424301 0)
(-2.23783 0.588462 0)
(2.26917 -0.226679 3.29693e-20)
(-0.575968 -0.182067 4.80501e-20)
(0.824772 -0.410485 4.29982e-19)
(1.8999 -0.0318946 -8.95873e-20)
(2.4411 -0.289637 -1.03943e-20)
(0.134997 0.0929398 6.72759e-19)
(1.89781 2.3036 -2.72647e-20)
(2.43255 0.0996034 -1.60038e-21)
(2.23443 -0.133728 4.88548e-19)
(0.833992 -0.346395 0)
(2.64958 -0.259691 -8.8978e-20)
(-1.07765 -0.779562 -1.15173e-18)
(3.23997 0.140072 -6.11131e-19)
(0.515567 -0.541468 -2.19344e-20)
(1.77409 -0.231097 1.65596e-20)
(1.30647 -0.400207 3.72562e-19)
(2.16539 0.900548 0)
(1.98874 0.0922486 -9.67933e-20)
(1.01422 -0.404958 -8.05163e-19)
(1.33138 0.190719 6.64251e-20)
(1.25524 -0.609903 0)
(2.30258 -0.123562 -1.42823e-19)
(1.00604 -0.482016 2.48221e-19)
(2.30161 -0.656652 -3.46725e-20)
(1.6838 -0.704178 -2.91484e-19)
(2.2975 0.0902739 -7.06495e-20)
(2.33211 -0.277711 3.94189e-21)
(0.946333 -0.468713 4.68195e-19)
(2.12961 -0.0604855 2.05601e-19)
(1.80479 -0.378117 0)
(1.75907 -0.798377 -2.97088e-19)
(1.64059 -0.699982 -8.93765e-19)
(2.54373 -0.254821 2.602e-20)
(1.97298 0.0425403 4.01955e-20)
(1.56409 1.06654 0)
(1.64537 -0.239386 0)
(2.08511 -0.0356762 -1.69177e-19)
(0.355251 0.277591 2.59405e-19)
(2.65224 1.41025 0)
(2.27384 -0.0823876 1.44385e-19)
(1.58377 -0.68724 -5.79354e-21)
(0.870741 0.383258 -6.09229e-19)
(0.828994 -0.351805 -4.33323e-19)
(-2.0235 2.1136 6.56533e-19)
(1.82102 -0.0549682 5.07915e-20)
(-2.22032 2.02049 2.59866e-18)
(3.53404 -0.359329 -6.46227e-19)
(2.12864 -0.0014417 0)
(1.37362 -0.0844676 -1.01931e-19)
(1.40921 -0.815461 0)
(1.95939 0.105776 -4.67492e-19)
(1.97748 -0.428507 0)
(2.04728 -0.0137349 -1.38774e-19)
(1.48229 -0.210018 3.69237e-20)
(2.68876 -0.170506 -5.78023e-20)
(1.08379 -0.412917 4.5449e-19)
(1.96715 0.0621476 -3.73536e-19)
(2.03289 0.222701 -4.43293e-19)
(1.98925 -0.835263 0)
(-0.765223 2.48565 0)
(1.16056 -0.453127 -4.45445e-19)
(2.67182 -0.20537 0)
(3.45453 0.855676 -7.79517e-19)
(1.60537 -0.304757 0)
(1.01675 -0.838906 -1.33302e-20)
(-2.31755 1.04777 8.03135e-19)
(1.70807 -0.555626 6.28488e-19)
(0.136697 0.0418023 -3.36083e-20)
(2.31898 -0.455815 0)
(1.4709 -0.239885 -3.76177e-20)
(1.74552 0.00517489 -2.24526e-19)
(-1.88903 0.795938 -8.83907e-20)
(1.93891 0.0477016 -2.07287e-19)
(2.7794 0.0440006 -7.7945e-20)
(2.62932 -0.10076 -3.34392e-20)
(3.03385 1.1257 2.71097e-19)
(2.46659 0.49738 -2.28183e-20)
(-1.16931 2.37539 -3.75925e-19)
(1.64295 -0.480155 0)
(-0.5382 0.411042 2.00209e-19)
(1.97986 0.115334 -1.69153e-19)
(2.45349 -0.257089 0)
(1.98773 0.0439632 1.41003e-19)
(1.12216 -0.54121 -3.06184e-19)
(1.59469 1.31651 1.80818e-19)
(3.43424 0.367793 0)
(1.35073 -0.639978 1.14555e-19)
(-0.846041 -0.14051 0)
(2.20002 0.0423861 4.61516e-20)
(2.60721 -0.347363 -2.12144e-19)
(0.241649 0.651036 1.10557e-18)
(0.982257 -0.0351258 0)
(1.53342 0.32009 2.31014e-19)
(1.98544 0.0605215 1.50408e-19)
(-0.252599 -0.00293868 0)
(1.6423 0.0282086 0)
(2.01172 -0.151673 0)
(-1.02267 0.521936 1.21367e-18)
(0.195112 0.077178 -4.07929e-20)
(2.89579 -0.00561941 0)
(2.00902 0.010805 0)
(1.56069 -1.42537 1.69494e-19)
(0.26423 0.0217401 0)
(2.36449 0.475254 2.72601e-20)
(2.79851 1.31482 1.40105e-19)
(2.00521 0.694961 -1.49007e-20)
(1.80776 0.447799 -4.96318e-21)
(0.873563 0.475588 7.00594e-19)
(2.80351 1.49384 -1.53e-19)
(2.33497 -0.220668 6.00831e-21)
(2.1071 -0.0537368 1.45919e-19)
(1.59058 -0.133675 -2.44594e-19)
(1.3657 -0.235627 1.58225e-21)
(2.01859 0.0390379 0)
(-2.25282 2.00542 -2.50227e-18)
(0.989445 -0.303405 0)
(-0.026631 -0.810871 1.39269e-20)
(2.12144 -1.31996 0)
(2.16357 -0.204857 0)
(1.26165 -0.601664 -2.30613e-19)
(2.16693 0.025375 -1.93676e-21)
(-0.264178 0.193524 -1.17081e-18)
(2.07729 0.0136942 4.83177e-21)
(1.76741 -0.69 3.23849e-19)
(2.9588 1.23094 1.68258e-19)
(0.404419 -0.55252 1.06866e-18)
(2.63717 0.0930057 6.26513e-21)
(2.0561 -0.800771 9.04672e-20)
(1.95722 0.0584278 -2.72409e-19)
(1.15487 0.327433 0)
(1.77254 -0.0818854 -4.57905e-19)
(1.76178 -0.460951 3.48485e-19)
(2.0013 0.142533 -6.11561e-19)
(-1.81549 0.715613 -4.46846e-19)
(1.52256 1.32279 -1.55537e-19)
(2.7393 1.38468 2.12648e-19)
(3.50425 -0.0163478 0)
(2.30044 -0.378666 0)
(0.0429842 0.168214 -4.41404e-19)
(2.0973 -0.0649954 9.12661e-20)
(-2.13552 0.528569 0)
(2.25825 -0.135471 -1.23202e-19)
(2.00535 0.0208952 -3.10809e-19)
(-1.7756 0.528732 -2.80761e-19)
(-2.0579 0.253615 1.42634e-18)
(2.57613 -0.123927 -3.54062e-21)
(0.0987466 1.84244 -4.81943e-20)
(2.31457 -0.289127 -2.18948e-19)
(1.90726 -0.4461 2.35132e-19)
(3.35652 1.21323 6.47111e-19)
(1.4908 -0.606592 3.35093e-19)
(1.4715 0.31244 3.36461e-21)
(0.960116 0.314213 5.101e-19)
(1.98954 2.00369 0)
(1.64478 -0.453192 2.0914e-19)
(-2.54733 0.835785 0)
(0.688081 -0.12618 -2.10441e-18)
(1.57264 1.24558 0)
(-2.32696 1.13366 -2.15691e-18)
(1.58364 -0.675547 -4.58083e-19)
(0.951885 0.595743 -2.07841e-19)
(2.05861 -0.818061 0)
(-0.795216 -0.941029 0)
(3.31452 0.0337952 0)
(1.98572 0.0982681 1.21308e-19)
(0.0999717 -0.3274 -7.62307e-19)
(-0.138656 0.360539 8.68641e-19)
(1.55414 -0.286282 -8.15738e-21)
(3.29158 1.24118 -7.42478e-19)
(2.03407 0.32692 0)
(1.15358 2.01677 2.83996e-19)
(2.41359 1.39724 6.84288e-20)
(-1.03092 -0.38301 -2.34861e-19)
(1.5138 -0.7018 2.37321e-19)
(2.49584 -0.200393 4.99763e-21)
(1.13271 -0.55096 4.94391e-19)
(2.31005 0.479075 0)
(2.59286 -0.339901 1.97889e-19)
(0.504651 -0.313059 1.30638e-19)
(1.97481 -0.0128628 2.37121e-20)
(3.47992 1.00809 -4.11964e-19)
(2.29474 -1.34555 0)
(2.52753 0.860093 0)
(1.53664 0.274977 0)
(0.989464 -0.387976 0)
(1.84242 0.0119693 0)
(1.38388 -0.513762 1.47433e-19)
(3.69383 1.19307 6.19511e-19)
(1.41318 -0.580005 4.03029e-19)
(2.07642 0.0544689 2.47368e-19)
(-2.63119 0.969644 0)
(2.02503 -0.827111 3.09963e-21)
(-0.314365 0.387231 0)
(-2.47193 0.817717 -1.34279e-18)
(-0.296011 0.238782 4.81733e-19)
(3.58385 0.829862 -3.59756e-19)
(1.99767 0.129827 3.06604e-19)
(2.0487 0.29655 -1.00608e-19)
(3.42735 0.572747 -3.54471e-19)
(2.58029 0.00106224 0)
(0.505678 -0.357827 9.23871e-19)
(1.99052 0.00106846 0)
(1.49916 0.923839 1.6627e-20)
(2.44597 -0.16236 0)
(2.09414 0.264773 -1.31926e-19)
(2.06831 -0.0639512 0)
(0.869051 -0.323253 -3.06198e-19)
(-0.251875 0.446453 1.44982e-18)
(2.44538 -0.242036 -1.80156e-19)
(1.33347 0.416542 4.63522e-19)
(-1.45477 0.81684 -2.50703e-18)
(2.58594 -1.16763 0)
(0.984627 -0.19401 -1.1733e-18)
(1.2776 -0.165977 -2.55536e-20)
(3.47388 0.460831 -9.99713e-19)
(1.78467 0.0215262 1.1697e-21)
(3.59114 0.481008 1.81194e-18)
(2.54747 0.947175 0)
(1.72214 -0.77068 -6.67719e-20)
(1.46962 -0.66071 0)
(2.4783 -0.229637 1.34339e-20)
(0.418847 -0.111603 7.58499e-20)
(-2.4356 1.56524 0)
(2.39053 0.458892 0)
(1.42305 -2.37419 -1.06738e-18)
(2.47586 0.813167 0)
(1.67139 1.83233 1.64849e-19)
(2.86163 1.08097 -2.67909e-19)
(0.606632 -0.135971 -6.88732e-19)
(-1.93569 0.321588 -5.33203e-19)
(1.99107 0.029161 -6.49493e-21)
(-0.585783 0.00190742 -3.20848e-20)
(0.249133 -0.0881704 -9.15697e-19)
(1.89091 -0.0257347 4.94491e-19)
(-1.8479 0.547541 3.20375e-19)
(-2.09213 0.988437 0)
(2.48323 0.190971 -6.27955e-20)
(0.445586 -2.16591 1.32919e-18)
(0.353185 0.250038 8.24212e-20)
(3.50211 0.616243 8.22681e-19)
(2.71196 1.7179 0)
(1.75498 -0.493809 -3.50495e-19)
(1.82613 -0.3374 -7.28952e-22)
(1.75675 0.800106 -7.58366e-20)
(2.8665 -0.0369509 -4.42469e-19)
(-1.98384 -0.0507834 3.9826e-19)
(-2.05914 2.12487 1.61604e-18)
(1.43128 -0.568764 -9.74655e-20)
(-2.16991 0.283645 5.23466e-20)
(2.91619 -0.162512 -4.41799e-19)
(-2.06858 -0.0978074 -4.47128e-19)
(2.34796 -1.11112 0)
(1.86548 -0.143174 -4.3903e-19)
(-1.15367 -0.600258 0)
(-0.868329 -0.195453 -2.94431e-19)
(-0.67304 -0.342634 2.41761e-19)
(-0.661589 -0.311149 7.179e-19)
(1.21086 -0.0483748 1.98256e-20)
(-1.754 1.11159 1.30026e-19)
(-0.885711 -0.0863225 0)
(2.16941 -0.759983 2.08051e-19)
(2.16556 -0.813439 2.11097e-20)
(-1.08265 -0.300215 -6.39625e-19)
(1.75177 0.562177 0)
(1.63724 0.53298 0)
(0.170104 0.368597 0)
(1.25804 -1.80675 -1.20929e-19)
(1.90285 -0.0418279 -4.3895e-19)
(1.28393 0.179723 0)
(2.86311 -1.98942 0)
(2.27162 0.204754 -1.8385e-20)
(2.16218 0.131256 -9.50596e-20)
(2.06849 0.304094 -3.97435e-19)
(1.90615 -0.221367 -2.41202e-19)
(1.66641 0.0470236 6.25551e-20)
(1.97783 -0.0346029 -6.22946e-20)
(1.32827 -0.219468 9.06281e-20)
(1.93607 0.572669 -2.97528e-20)
(1.83422 1.2714 0)
(0.186874 -0.051732 -8.31752e-21)
(-0.0722967 -0.44305 0)
(0.978047 0.183947 0)
(2.96783 0.372961 -4.54036e-19)
(-2.6624 1.40737 0)
(2.46801 0.466881 0)
(1.87273 -0.103044 6.76971e-19)
(1.84593 -0.799762 0)
(2.03611 0.222703 4.54185e-19)
(3.40011 0.776357 4.1022e-19)
(3.18898 0.840785 1.42642e-19)
(1.36401 0.305477 -5.96458e-21)
(1.05654 1.39467 2.77356e-19)
(2.19172 -0.802723 1.49612e-21)
(2.01956 -0.764833 3.18672e-21)
(1.13815 -0.433041 4.36741e-19)
(-1.03229 0.241641 0)
(0.922551 -0.453143 0)
(-2.59859 1.64615 -1.80638e-18)
(-0.335664 0.588671 -1.95268e-18)
(-0.597071 -0.990134 0)
(-1.3136 0.294258 4.50029e-19)
(0.317966 -0.181774 0)
(0.183973 -0.534681 9.67931e-19)
(1.08528 -0.497854 -5.62696e-19)
(3.45927 0.642005 -1.87477e-20)
(3.1394 0.991143 3.16206e-19)
(1.19601 -0.397002 8.81014e-20)
(2.85627 -0.0898977 2.07423e-19)
(2.31774 1.02324 0)
(2.40833 0.987287 0)
(1.01634 0.0500132 0)
(-0.550604 0.00279436 -4.55344e-19)
(1.38085 -0.515855 0)
(2.2752 0.730003 0)
(1.66982 0.048404 0)
(2.2816 -0.259319 -4.8945e-20)
(0.942261 -0.0895582 3.0777e-19)
(1.99302 -0.745427 -1.48779e-19)
(1.02384 -1.83347 3.73068e-19)
(1.64075 -0.302928 0)
(-2.14619 1.70295 0)
(1.92711 -0.558574 -2.97824e-19)
(1.53736 0.59029 7.04918e-19)
(-1.899 1.37901 -8.73618e-19)
(2.7207 -0.0773448 9.44092e-21)
(1.68268 -0.438471 3.80522e-19)
(0.951032 0.499679 -1.10915e-18)
(-0.267594 0.597562 0)
(1.15523 1.37196 -6.44276e-19)
(0.347303 0.410585 -6.83131e-19)
(3.22657 0.685689 0)
(2.2038 -0.0535379 0)
(2.0198 -0.0598846 0)
(2.02843 0.0543559 -4.49382e-19)
(1.38753 0.309581 -4.73732e-19)
(1.62022 0.155264 0)
(2.4129 1.36122 1.2204e-18)
(1.75629 -0.782882 3.14849e-19)
(2.36124 -0.284481 5.9728e-20)
(-2.59331 1.33991 8.01336e-19)
(2.08523 -0.256076 0)
(2.49294 0.1078 3.34951e-20)
(1.72852 -0.406667 0)
(0.00320042 -1.99286 -1.3205e-18)
(1.69744 -0.769392 0)
(2.10422 -0.725016 2.97692e-19)
(1.86864 -0.159118 -2.47471e-22)
(2.16544 0.601719 2.1568e-20)
(2.38311 -0.294859 0)
(1.77835 -0.758299 0)
(1.562 -0.664606 -4.83657e-19)
(2.34586 0.438131 -3.01161e-20)
(-2.34766 0.371079 6.89374e-19)
(0.832879 -0.397293 4.45005e-19)
(1.89435 -0.0587051 0)
(1.54442 0.248773 -7.16527e-19)
(2.41427 0.0259364 -6.32444e-20)
(1.39043 -1.95989 -1.77012e-19)
(2.13178 0.825723 4.89323e-20)
(2.369 0.754192 0)
(1.16451 -0.329009 6.23268e-19)
(0.931525 0.235324 -6.98836e-19)
(3.47198 0.966253 9.32787e-21)
(1.7897 0.231509 -8.24199e-19)
(-2.55984 1.2766 6.94423e-19)
(-0.101824 0.34641 -1.76617e-18)
(1.9215 -0.0455758 1.82825e-19)
(2.07675 -0.0381972 -3.91569e-20)
(0.473071 0.318772 9.56227e-19)
(-0.253049 0.190622 -5.59341e-22)
(-2.62778 1.28323 1.29866e-18)
(-2.432 0.455179 1.42179e-18)
(1.81662 -0.0746566 7.51825e-20)
(2.35253 -0.195423 0)
(0.725169 0.195407 7.69138e-19)
(1.13579 -0.552517 2.20856e-19)
(1.65189 -0.225616 2.37561e-19)
(-0.259302 0.304521 0)
(1.5857 -0.363095 -6.28075e-20)
(1.864 0.096855 -3.28792e-22)
(2.07238 0.0395913 0)
(0.363823 -0.153678 6.24923e-19)
(-1.30203 -1.14891 5.06435e-19)
(1.65785 -0.288619 0)
(1.01464 -0.37492 0)
(1.56609 -1.60351 -1.64006e-19)
(1.52965 -2.31302 -1.07404e-19)
(2.91037 0.359102 1.62469e-19)
(-0.37122 0.121801 0)
(1.90892 -0.0126023 -3.75795e-19)
(2.90502 -1.07219 -2.26856e-19)
(2.17766 -0.689815 1.385e-20)
(1.19141 -0.454578 5.46654e-19)
(-2.65757 1.33632 -1.13433e-18)
(-2.50705 1.09407 9.14086e-19)
(3.76114 0.953962 -8.07971e-21)
(3.21656 -0.122927 0)
(1.97115 0.930476 -9.43982e-19)
(1.55365 -0.611375 2.44054e-19)
(1.97704 2.05349 1.36977e-19)
(0.78805 0.650359 0)
(1.11343 -0.196636 -5.53971e-19)
(1.18572 -0.494507 -6.61996e-19)
(-2.57053 1.67264 1.298e-18)
(0.842272 -0.210562 -9.96446e-19)
(2.10917 1.45863 0)
(-0.17393 0.439318 -5.47777e-19)
(2.32083 0.555011 0)
(-0.709891 -0.66207 -7.35371e-19)
(-0.0885951 0.653236 1.20312e-18)
(-0.448344 1.46934 0)
(-2.59523 1.42208 5.00781e-19)
(1.6054 -0.0810897 -9.99384e-20)
(0.933386 -0.201488 3.8199e-19)
(1.64852 -0.649411 4.32152e-19)
(-2.48594 1.68792 -2.88319e-18)
(1.15229 -0.519823 0)
(2.00706 0.0440703 1.46353e-19)
(0.602999 0.0645003 0)
(2.25314 0.229312 -4.74216e-21)
(-0.740667 0.186084 -1.03457e-18)
(0.529131 -0.201207 2.95315e-19)
(2.47501 0.55147 0)
(1.85863 -0.73642 -2.972e-19)
(3.206 0.19478 1.66239e-19)
(-2.51315 1.3669 2.1772e-18)
(-0.51363 -1.41042 0)
(-2.45615 1.20058 -1.94344e-18)
(3.1491 0.916191 -9.42549e-19)
(1.59955 0.241619 9.18398e-19)
(2.35285 -0.852838 0)
(2.62745 -0.235837 4.58484e-19)
(-0.736365 0.135985 9.25295e-19)
(0.861859 -0.104414 -1.39446e-19)
(2.16499 -0.510206 9.7099e-20)
(-2.49758 1.11418 0)
(1.99462 -0.595462 -6.44482e-20)
(1.74821 0.363659 -6.82377e-22)
(2.4158 -0.302415 1.02537e-19)
(2.35849 0.0247932 0)
(-2.21969 1.91879 1.01355e-18)
(1.62146 -0.433025 5.28089e-22)
(1.24985 -0.356823 6.79034e-20)
(1.36165 0.577768 0)
(2.02347 -0.763666 -1.08308e-19)
(-2.49311 1.66433 2.20191e-18)
(1.69631 -0.399892 -4.76878e-19)
(-0.252671 0.154395 0)
(1.36474 -0.305295 -7.56391e-20)
(2.04929 -0.736695 9.27445e-20)
(-2.60755 1.30696 -1.33827e-18)
(1.51894 -0.305023 0)
(0.600841 -0.187845 1.37313e-18)
(1.8402 -1.80346 0)
(-1.84488 2.22652 1.33878e-18)
(1.94083 -2.44851 0)
(1.86576 -0.0933583 -2.51191e-19)
(2.19358 -0.209619 -2.34228e-19)
(2.64079 1.34248 -6.11085e-19)
(1.42225 -1.18827 0)
(1.98103 -0.831995 -1.62164e-19)
(1.99868 0.0228854 0)
(2.37635 0.478982 0)
(2.10231 -0.837033 1.43491e-20)
(-2.04106 1.98807 9.68888e-19)
(0.531811 -0.0350618 1.86094e-19)
(2.09201 -0.506273 -6.2657e-20)
(1.6894 0.333617 3.03454e-19)
(-0.648945 -0.0406884 -1.37593e-19)
(2.0502 0.335141 1.84202e-19)
(-0.0716386 0.449821 -1.43395e-19)
(1.87023 1.07425 0)
(2.50141 0.306683 0)
(-0.594429 0.86838 0)
(-1.68365 -0.53111 1.64791e-18)
(1.1621 -0.396399 -3.86166e-19)
(1.47064 0.138551 0)
(-2.2017 0.853765 1.64876e-18)
(2.32077 -0.137931 -1.62031e-19)
(-2.45886 1.0168 -7.17247e-19)
(1.36844 -0.487351 -1.22791e-19)
(2.16983 -0.830294 0)
(0.568676 -0.144297 1.18198e-18)
(0.417617 -0.236839 -1.4122e-18)
(-0.10469 0.88256 0)
(-0.382402 0.369645 -7.32441e-19)
(1.68443 0.0331826 -1.59164e-20)
(2.75106 -0.136314 9.59137e-20)
(1.93119 0.0424284 2.65508e-19)
(2.71715 1.18237 -2.71978e-19)
(2.44174 0.250733 2.44928e-21)
(-1.43265 -0.779048 0)
(1.91659 -0.740126 0)
(-2.06577 0.909068 1.55116e-18)
(0.266168 -0.360207 0)
(1.59528 -0.327568 -6.37427e-20)
(2.15133 -0.730975 -1.35026e-19)
(0.955468 -0.444857 4.64956e-19)
(2.35344 -0.233591 -1.6723e-19)
(1.72663 0.360815 -3.03428e-19)
(1.51464 -0.597601 -2.42071e-19)
(1.6005 -0.631806 -4.40634e-19)
(1.49289 -2.21466 0)
(1.69926 -0.660708 4.06084e-19)
(2.09803 -0.100928 0)
(2.3999 -0.298969 -3.4615e-21)
(1.9523 1.34437 2.58881e-20)
(0.876084 -0.28609 9.0372e-20)
(2.2197 -0.326979 -1.80047e-19)
(0.457871 -0.488133 -8.00118e-19)
(0.196418 -0.0218577 0)
(1.00242 -2.41808 -5.43518e-19)
(-0.445222 1.88837 -1.79386e-18)
(2.08211 0.561046 -2.01883e-19)
(1.80454 -0.722334 3.55981e-19)
(2.12086 0.019873 -5.69285e-21)
(0.907609 -0.156285 3.48426e-19)
(1.85409 -0.754826 6.27384e-21)
(0.307893 0.14489 0)
(-2.43925 0.979736 2.09644e-18)
(1.74302 -0.367807 2.53363e-19)
(2.08026 0.0410069 -1.0868e-22)
(1.15282 -0.496764 9.71967e-19)
(-0.877786 -0.392199 2.82103e-20)
(1.67021 0.635727 0)
(-1.6746 -0.297076 -6.26016e-19)
(-2.288 1.73254 -1.43549e-19)
(1.07436 -0.319566 -7.42587e-19)
(-1.46744 -0.521822 6.74899e-19)
(2.30702 1.02461 -2.60708e-19)
(2.11277 0.552496 4.50281e-21)
(0.926134 -0.370078 3.36481e-19)
(1.76787 -0.35847 0)
(2.58513 0.187667 -1.31978e-19)
(2.52886 -0.0519397 -6.6468e-21)
(2.98222 0.997785 -3.11405e-19)
(-1.19559 -0.896948 0)
(3.53143 1.21615 1.75773e-20)
(-0.304322 -0.460212 7.05255e-19)
(1.59758 -0.690286 9.26499e-19)
(0.0312978 -0.320729 1.32722e-20)
(-0.735542 0.000257255 -4.18362e-19)
(0.565955 -0.141084 2.28598e-18)
(1.97488 -0.724127 3.19878e-19)
(2.23013 0.037655 -3.41969e-21)
(-0.210112 -0.186015 -5.55671e-21)
(2.87767 0.0319831 4.87373e-20)
(0.371591 0.616456 0)
(2.01234 0.0377769 0)
(2.38416 0.50236 0)
(1.74738 -0.67454 -3.46461e-19)
(2.57265 -2.48867 9.52044e-19)
(-1.18977 -0.261832 0)
(1.21624 -0.356697 -1.59788e-19)
(-0.769423 2.18555 0)
(3.72042 0.496853 0)
(-1.4066 -0.518643 0)
(1.94823 0.00887084 0)
(0.537099 -0.162792 -4.2484e-19)
(0.144868 0.208773 0)
(3.42123 0.420469 1.42663e-18)
(1.28957 0.0206474 0)
(1.65899 0.295952 0)
(1.93417 0.218419 2.88255e-21)
(-0.1724 0.445705 0)
(3.66985 -0.827208 0)
(-0.899956 -0.0591831 0)
(2.62143 -0.0140197 1.27589e-20)
(1.70162 -0.194772 0)
(2.20398 -0.811677 -5.88012e-22)
(1.33001 -0.308704 1.38698e-21)
(0.309084 -0.164654 -3.99383e-19)
(1.97597 0.0533402 6.63925e-19)
(-0.204328 0.0100711 -1.6766e-19)
(1.04364 0.941423 -5.97022e-19)
(1.44193 0.747157 0)
(2.33716 -0.282455 3.49828e-21)
(1.64275 -0.162776 -2.31957e-19)
(1.52496 1.71427 1.60638e-19)
(1.82806 0.413938 4.41048e-19)
(0.750059 -0.260897 -7.13469e-19)
(1.49472 -0.650456 -3.72136e-19)
(2.74821 0.70916 2.00786e-19)
(0.328531 -1.75368 0)
(2.44906 -0.269885 -6.92925e-20)
(0.749329 -1.68299 6.39974e-19)
(2.70065 0.373866 -6.74607e-20)
(-2.19806 1.61431 0)
(1.86391 0.0457282 -2.96986e-19)
(2.63203 1.02295 -9.8154e-19)
(1.33904 -0.529561 4.96015e-19)
(1.20934 -0.541246 -6.02813e-19)
(1.63893 -0.756928 0)
(1.74455 -0.767423 0)
(3.37609 0.142966 1.71626e-18)
(2.26364 -0.312801 -1.0324e-19)
(3.42978 0.549976 -5.28506e-19)
(1.75124 -0.0165714 4.4594e-20)
(1.19072 -0.319446 -1.48924e-19)
(1.66569 -0.488996 3.99253e-19)
(2.5036 0.337652 0)
(2.40475 0.354708 1.64083e-21)
(0.492153 -0.243577 -1.75903e-18)
(2.55355 -1.07519 2.89243e-18)
(1.36843 -0.158477 -1.61791e-19)
(-0.83217 0.163323 6.19514e-19)
(3.25669 0.532072 4.41359e-19)
(2.54251 0.847985 3.88318e-20)
(2.37719 0.610875 0)
(-2.22231 0.141223 0)
(2.24235 -0.805264 2.46411e-21)
(1.12732 -0.225313 0)
(1.82925 -0.381676 1.63953e-19)
(1.63519 0.296254 5.23645e-19)
(1.61765 0.501521 -1.5674e-19)
(1.57103 -0.635315 9.55969e-19)
(1.68133 0.447466 6.62919e-22)
(1.36342 -0.00961284 0)
(1.85965 -0.0804142 -9.31058e-21)
(-0.956712 -0.0560187 -8.64719e-19)
(2.17764 0.298088 0)
(2.43117 -0.316492 0)
(1.89045 -0.754512 1.22488e-19)
(1.93096 0.572017 2.50076e-19)
(1.04581 -0.136198 0)
(3.93006 -0.686637 1.27229e-19)
(2.8564 0.0115431 1.90923e-19)
(2.35599 0.367873 4.49261e-20)
(1.73181 0.470917 4.63677e-19)
(-1.99657 0.174382 -7.95284e-19)
(1.28877 -0.905845 0)
(0.164663 -0.588686 -1.90507e-18)
(0.498577 -0.213874 1.06795e-18)
(1.95109 0.0289665 1.65122e-20)
(-0.0984395 -0.531258 -8.25965e-19)
(1.77735 -0.735809 2.55165e-20)
(2.64757 0.426281 1.74091e-19)
(1.39365 0.818595 0)
(1.97689 0.156907 2.74093e-21)
(1.81423 0.0203246 9.18096e-20)
(2.06789 -0.0310395 -1.41682e-19)
(2.18459 0.537838 -1.69378e-19)
(2.21435 -0.759153 0)
(-1.83561 0.335071 0)
(2.58899 0.019903 0)
(2.32806 0.441709 -9.36388e-20)
(1.02677 -0.475165 7.27317e-19)
(2.33383 1.80018 -6.60277e-20)
(1.50188 -0.0749584 0)
(-0.962427 1.11263 -3.64367e-19)
(-1.93388 -0.4056 8.48456e-19)
(-1.45374 2.4038 0)
(1.90789 0.288202 -1.41921e-19)
(1.64588 0.274562 -1.73938e-19)
(3.29027 -0.0510934 -1.14035e-19)
(2.03388 0.739354 4.01362e-20)
(0.649888 -0.221872 0)
(2.15892 0.185207 -1.98368e-19)
(2.01069 -0.405363 0)
(2.06325 -0.239796 1.06156e-20)
(0.955869 0.0975551 0)
(2.23726 0.885027 1.35749e-19)
(1.66974 -0.670131 -4.15646e-19)
(2.42978 0.881689 0)
(1.82684 -0.0578768 -4.42768e-19)
(2.21595 0.790132 -9.81522e-20)
(1.93884 -0.694349 0)
(1.12123 -0.52682 0)
(0.494007 0.217705 -9.14883e-20)
(2.4327 -0.225286 -1.19451e-20)
(0.169339 -2.18292 -6.78812e-19)
(-0.420005 0.0954404 3.80586e-20)
(2.83093 -0.100076 -2.98271e-21)
(1.08343 0.42327 7.11229e-19)
(1.73829 0.411687 -1.97843e-21)
(2.04808 0.581439 0)
(3.32403 1.00998 4.35298e-19)
(1.68809 -0.76818 0)
(1.48367 -0.676164 -4.04357e-19)