/*--------------------------------*- C++ -*----------------------------------*\
| =========                 |                                                 |
| \\      /  F ield         | OpenFOAM: The Open Source CFD Toolbox           |
|  \\    /   O peration     | Version:  2306                                  |
|   \\  /    A nd           | Website:  www.openfoam.com                      |
|    \\/     M anipulation  |                                                 |
\*---------------------------------------------------------------------------*/
FoamFile
{
    version     2.0;
    format      ascii;
    arch        "LSB;label=32;scalar=64";
    class       volVectorField;
    location    "4.4";
    object      U;
}
// * * * * * * * * * * * * * * * * * * * * * * * * * * * * * * * * * * * * * //

dimensions      [0 1 -1 0 0 0 0];

internalField   nonuniform List<vector> 
13486
(
(8.45588 -1.84689 2.53318e-20)
(8.75584 0.249477 1.5437e-20)
(13.2601 -0.0200038 0)
(17.5881 -5.34163 -2.04394e-19)
(14.184 -0.0991666 -9.68346e-21)
(11.5202 0.93253 -5.61224e-21)
(13.7753 4.40372 -5.94191e-22)
(12.2685 -3.71489 -2.02097e-22)
(11.1179 -1.73616 0)
(9.13823 2.14483 0)
(-5.52291 1.74253 -1.54884e-20)
(10.4128 -0.350455 0)
(7.93469 -2.75738 -2.44168e-20)
(10.4546 3.02269 -9.46179e-21)
(12.5635 2.1315 -1.4587e-21)
(9.03441 2.19629 -1.68549e-20)
(9.77219 -3.0728 1.44302e-20)
(-2.06671 6.33859 5.4743e-21)
(9.84797 -0.0315245 2.5007e-22)
(9.01457 -1.01566 -2.70324e-20)
(13.2 9.01998 -9.61856e-20)
(8.01642 -2.82185 3.14573e-20)
(8.83029 0.190952 -1.2366e-20)
(18.7835 0.27508 0)
(9.59191 1.80944 6.26134e-21)
(19.8288 -0.400589 -1.57303e-20)
(0.943988 -0.863158 8.65864e-21)
(15.6794 -0.342112 1.50467e-20)
(12.4738 -5.75142 0)
(15.6685 -1.84504 -2.02181e-20)
(0.927389 15.5426 -6.46232e-20)
(10.1212 2.17432 -9.34781e-21)
(17.0396 1.71243 1.3155e-20)
(12.9306 -1.47308 0)
(12.3894 -3.41293 0)
(9.03275 -1.22922 -1.22841e-20)
(7.14591 12.2837 -1.21628e-19)
(9.51827 -4.33754 9.16078e-21)
(7.23822 -5.56375 -1.13999e-21)
(10.8465 -1.02464 1.05029e-20)
(18.4141 -1.06001 0)
(7.29606 -3.48438 -2.93459e-20)
(11.8979 -0.232001 0)
(9.74529 1.52714 -2.8981e-20)
(9.68276 1.55929 1.18926e-20)
(10.5097 -0.330657 1.18407e-20)
(-3.17599 2.61712 3.45174e-20)
(12.5457 -9.35435 -2.04627e-21)
(8.43145 13.0047 9.25019e-20)
(14.1677 0.703512 -1.81016e-21)
(9.97176 -0.00190619 2.10363e-20)
(5.87381 -2.85339 0)
(9.20337 -0.643097 -2.37701e-20)
(9.65576 -3.40874 -1.4153e-20)
(-2.52999 6.88808 0)
(13.8663 -0.6 4.35533e-21)
(12.8913 -0.231927 -3.01989e-21)
(9.4172 -4.05848 9.23724e-22)
(17.0712 1.80503 1.55067e-20)
(19.6025 0.819464 0)
(-7.49086 -0.685527 -2.32545e-20)
(18.1245 1.33913 0)
(7.68111 7.75222 -6.04934e-21)
(10.366 6.75041 -9.90057e-22)
(-3.84373 7.1486 0)
(9.97622 10.094 -5.70735e-20)
(17.2574 -5.17771 -2.18502e-19)
(8.17467 -0.796836 9.40367e-21)
(11.1216 -1.87524 -4.66213e-21)
(2.13867 1.45915 -2.29581e-21)
(19.8841 -8.10911 2.52292e-19)
(-0.0747189 6.61683 -3.28118e-22)
(10.5462 -0.641632 9.02436e-21)
(-0.910552 -0.551988 -4.50244e-22)
(14.0361 8.56977 -9.22923e-21)
(12.9254 -0.16162 8.032e-22)
(16.2901 9.43808 1.92171e-20)
(12.8603 2.13784 9.09349e-22)
(-2.71617 5.0343 -1.87865e-20)
(12.4158 -6.82115 0)
(8.21864 -3.35796 6.40998e-21)
(8.57435 0.528677 -1.01212e-21)
(1.82095 6.30656 4.61992e-21)
(13.6805 -0.463073 -2.97123e-21)
(8.46441 -1.85504 -4.92436e-20)
(6.89688 4.37344 0)
(9.60025 -4.93235 3.71522e-21)
(9.9494 0.0806366 -3.37571e-20)
(9.49835 0.161213 -1.35692e-20)
(8.32473 2.92423 -2.23521e-20)
(8.73546 1.46518 -1.03859e-20)
(13.2267 -2.44812 1.1286e-21)
(8.81002 -2.25127 6.15072e-21)
(8.98907 -0.483296 7.5661e-22)
(11.0273 -2.97116 1.6829e-21)
(8.85455 -10.6051 -1.51719e-21)
(0.892935 -2.96707 0)
(18.4108 -6.55802 1.44266e-19)
(10.8679 -0.953053 -2.0174e-20)
(8.36522 -1.93796 1.46668e-21)
(8.81984 -1.59745 0)
(10.4382 2.97508 -3.74437e-21)
(16.3733 -4.47036 8.38708e-21)
(5.84751 -2.85298 -7.34268e-22)
(6.35121 3.9918 0)
(7.32196 -1.02781 1.36265e-21)
(10.0245 -0.166886 -3.829e-23)
(9.08536 -5.55285 -1.64251e-21)
(-2.71537 4.70963 2.54677e-20)
(13.1147 -6.00014 0)
(10.6547 -4.83456 0)
(10.6503 3.92481 -3.08145e-21)
(9.73074 -3.32179 2.6817e-22)
(13.0249 2.05297 5.37723e-22)
(6.83403 -1.45191 0)
(10.6595 -4.9435 -3.84803e-21)
(9.44613 1.89986 0)
(13.9179 -1.48005 0)
(10.5467 -0.608516 0)
(3.78084 12.2689 -3.23074e-20)
(-1.79976 2.7966 -5.702e-21)
(-6.90026 -0.711864 0)
(10.7332 -2.71213 0)
(10.5955 -5.73023 2.7567e-21)
(11.4737 -3.57764 0)
(6.19434 -2.76387 0)
(11.6719 -0.187718 1.76978e-22)
(10.4442 0.346886 1.64373e-20)
(12.3642 -1.45237 -7.13069e-22)
(5.64318 2.19377 -3.28374e-20)
(5.24686 -2.68642 8.33865e-23)
(-3.0843 3.27013 -8.49908e-21)
(0.381491 -1.18452 -4.57379e-23)
(0.408617 -1.15618 -1.6519e-22)
(9.98756 -0.0112943 -3.32056e-21)
(9.29974 1.04578 -1.87577e-20)
(4.74655 0.918958 -9.32385e-21)
(12.6997 -4.78009 0)
(5.53495 11.9455 7.80077e-21)
(12.1682 -2.57357 -1.28457e-21)
(15.5783 1.81333 -8.29021e-21)
(9.35934 -0.60518 2.03406e-20)
(9.7632 0.810053 0)
(11.4319 -6.03209 0)
(12.1772 -0.126641 1.4175e-21)
(3.15329 3.47264 -4.27815e-20)
(10.0492 -2.52626 -5.0173e-21)
(1.66031 2.80375 0)
(13.9496 1.00409 0)
(13.3402 -5.60629 0)
(10.0346 -0.0178693 4.53883e-22)
(13.9455 1.66898 0)
(6.91681 -2.13839 -6.70849e-21)
(8.38905 0.488325 -8.63795e-21)
(10.3029 1.17911 0)
(14.7797 -0.121344 0)
(14.5802 -5.59008 0)
(15.7798 13.0165 5.49624e-20)
(10.4336 -3.83722 1.56761e-20)
(13.3716 -2.87549 -1.37995e-21)
(12.6053 0.387625 -4.80225e-21)
(10.4332 -3.78783 -2.31523e-20)
(6.94356 3.25835 8.98372e-21)
(6.55445 -3.2858 1.27164e-20)
(7.27929 -3.23761 0)
(10.8246 3.24982 1.01338e-20)
(10.3279 2.67163 2.35045e-20)
(4.34302 -1.50792 -3.56166e-20)
(10.1671 -2.52436 1.26441e-20)
(0.564301 -1.28972 -3.33422e-23)
(0.122963 -1.43378 8.51797e-22)
(10.259 1.0323 1.24712e-20)
(10.0727 0.0986693 -3.18293e-20)
(11.4606 0.648806 3.3293e-22)
(6.41519 -8.69183 1.31342e-21)
(-12.539 0.122041 0)
(10.0078 3.90564 -1.86163e-20)
(15.9148 2.78176 9.55782e-21)
(10.0531 -0.181223 -2.95218e-20)
(9.72305 0.630222 0)
(11.1843 -1.10191 1.84353e-20)
(12.6186 1.72841 1.22752e-21)
(11.0973 0.886951 1.73111e-22)
(8.45149 -5.60553 0)
(12.3893 -1.37356 7.36462e-21)
(14.0969 -0.145396 -6.70662e-21)
(11.4154 -1.60766 -1.51374e-21)
(14.8595 -1.62103 -4.10591e-21)
(20.7394 -3.20637 0)
(9.74774 -4.6449 -7.29817e-21)
(7.48565 13.978 0)
(13.5602 0.470402 0)
(7.05236 -3.1006 0)
(7.94036 2.23406 -1.95984e-20)
(11.2345 -3.76709 0)
(-5.67023 1.93559 -4.3865e-21)
(0.683515 4.4523 7.4427e-20)
(12.7613 0.289822 -2.04255e-21)
(8.70845 -4.17105 -4.7796e-21)
(10.8095 3.08839 7.65095e-21)
(0.0384207 13.3868 6.43759e-20)
(10.5113 0.432882 -5.22645e-22)
(9.54103 -4.45763 -1.06158e-20)
(14.5968 -3.62496 -1.23275e-20)
(13.2469 -2.64511 1.54004e-21)
(8.64614 -2.71861 -4.88917e-23)
(-1.06274 8.99062 -4.88348e-21)
(10.1549 -0.521225 2.02487e-20)
(9.95803 -2.81317 0)
(12.3881 -1.27259 0)
(15.5278 -0.611207 1.16341e-20)
(19.634 -1.89556 3.87769e-20)
(9.10261 -0.882322 2.48311e-20)
(9.95628 -0.112553 -4.0895e-23)
(11.6194 1.1085 6.47214e-21)
(15.199 -6.28741 5.73449e-21)
(15.2773 -1.43494 0)
(8.18899 2.67532 5.06129e-20)
(9.26431 -2.25168 0)
(11.9865 5.07606 0)
(8.2021 -2.1716 -2.66284e-20)
(14.1189 1.18137 0)
(12.0669 -2.61508 2.59175e-21)
(13.7928 0.467472 0)
(8.89919 -1.51674 -4.83834e-21)
(8.20334 -3.73832 8.33926e-21)
(11.7926 2.07498 6.59214e-22)
(-7.53635 13.9256 4.35024e-20)
(11.0282 -3.82694 1.07597e-21)
(9.82609 -4.901 -6.52011e-22)
(11.1909 -0.979333 -6.01891e-21)
(24.0396 7.43417 1.18563e-19)
(15.8048 1.90978 1.00723e-20)
(7.15758 -3.43539 1.01659e-20)
(10.1138 5.06906 0)
(7.97702 -3.81089 9.3322e-22)
(13.7869 -1.75218 6.83494e-21)
(13.9434 0.434077 -1.97433e-21)
(8.20429 -3.86382 2.60691e-20)
(10.9635 0.423819 0)
(17.3879 1.66272 0)
(9.96438 0.10436 4.91635e-20)
(13.3333 0.753807 0)
(8.02913 -3.92265 8.13592e-21)
(8.87721 -5.36007 -2.70328e-21)
(9.56986 -0.398801 0)
(11.1201 0.113694 -2.54137e-21)
(18.1912 -1.18745 4.49154e-20)
(1.96243 -1.80686 8.15856e-22)
(9.63229 1.38261 0)
(9.20833 -9.95986 -5.18073e-20)
(6.71986 -1.35976 4.06063e-21)
(10.294 -4.97368 3.80093e-21)
(9.67947 -5.19167 0)
(10.9102 -4.49353 3.60697e-21)
(-18.6489 -2.67283 2.29842e-20)
(9.8379 2.0719 9.46536e-21)
(14.8654 -6.41404 -7.24652e-21)
(12.2083 9.9006 -5.75318e-20)
(17.3455 1.48493 1.39058e-20)
(9.14751 0.151895 0)
(9.98582 -5.99592 -1.92265e-22)
(12.5713 2.10379 2.95209e-21)
(-11.5991 -2.41691 -2.86978e-20)
(14.4139 -3.05506 1.44804e-20)
(5.3502 -4.45048 0)
(12.8742 -4.61835 -7.74036e-21)
(4.46475 13.1369 -9.48773e-20)
(10.6042 -0.0721673 -1.16732e-20)
(2.59564 -4.20441 0)
(7.76985 2.36421 1.6577e-20)
(10.0038 -0.10947 -8.36202e-21)
(16.3257 -1.37058 0)
(10.1073 -0.80391 1.18193e-20)
(8.45495 -3.91206 1.10584e-20)
(17.5511 -1.51627 -2.49699e-20)
(11.4713 -4.60365 0)
(0.515537 2.595 0)
(9.00058 -3.81203 -1.30603e-21)
(9.76776 -2.34444 1.03816e-20)
(-0.69509 1.44845 6.05934e-20)
(11.245 -0.388291 -7.27189e-21)
(9.94923 -0.161554 1.77713e-20)
(8.17764 2.18936 -2.25954e-20)
(-5.93128 -1.47322 2.87305e-20)
(5.83609 0.841667 1.88509e-20)
(15.2556 2.41936 3.77211e-21)
(11.7495 -1.70571 9.37648e-22)
(10.2234 -1.66077 8.19314e-21)
(10.5532 -0.0738299 0)
(11.7552 4.37426 0)
(13.0597 -6.2592 1.08686e-20)
(10.4325 -4.75689 5.51022e-21)
(10.002 0.00732891 -3.22282e-21)
(13.6515 -1.47288 5.59057e-21)
(14.4569 -1.77517 0)
(12.8533 0.0142238 5.29899e-21)
(10.5524 -0.805228 -1.017e-20)
(9.94285 -0.209224 -1.59957e-20)
(16.6642 2.74087 -2.47242e-20)
(6.89074 2.98984 -1.06116e-20)
(-0.551649 8.62741 2.38694e-21)
(9.96065 -2.31295 -8.8471e-21)
(10.229 2.11214 9.48842e-21)
(2.1678 11.1185 1.84439e-20)
(14.813 -8.79089 0)
(21.9659 11.3153 0)
(9.92992 0.0688013 4.70768e-21)
(9.53431 -5.05594 -2.45846e-21)
(5.87336 13.0752 0)
(8.51779 6.41135 4.83887e-21)
(13.7634 -2.3001 0)
(9.72015 3.69518 1.0683e-20)
(10.5657 3.87402 -5.7258e-21)
(-5.22656 5.51002 0)
(9.35369 0.871383 -1.18457e-20)
(12.7977 -6.97352 -1.53332e-20)
(9.40623 0.13696 -1.1505e-21)
(10.0642 -0.535151 -2.28494e-20)
(13.5957 -4.51549 0)
(13.737 12.754 1.01572e-19)
(12.5193 -7.36504 1.44389e-21)
(10.0769 -0.0765568 3.75188e-21)
(8.95253 -0.32061 -1.45668e-20)
(5.10569 0.66378 1.69545e-20)
(8.72034 1.66328 2.17825e-20)
(12.4752 -0.134872 -4.79021e-21)
(11.3094 -0.361534 0)
(10.9771 -1.34677 -2.75286e-23)
(12.6286 0.13326 7.38172e-22)
(10.0527 -0.0457027 4.87635e-20)
(13.3297 -2.25858 0)
(8.06119 1.5617 -5.91142e-21)
(7.88021 0.387423 0)
(14.109 4.1648 3.22503e-20)
(11.3301 -2.60452 -3.77545e-21)
(5.87769 -2.85253 1.30401e-20)
(13.8948 1.59697 9.34015e-21)
(9.88598 0.411844 0)
(9.01817 -5.62255 -5.94191e-21)
(12.6993 -4.09626 8.31305e-21)
(8.91506 -0.323523 1.37748e-20)
(12.7833 0.148488 2.30492e-22)
(10.9562 0.930378 1.00424e-20)
(0.363919 -6.04373 -3.30724e-20)
(11.3044 -9.37718 1.20391e-21)
(11.5013 0.142988 0)
(6.64658 -2.56964 3.02149e-20)
(12.1523 5.23973 0)
(12.4417 -7.54059 -1.98221e-21)
(10.9344 0.128192 1.44555e-20)
(10.7128 -1.26418 -1.18069e-20)
(10.3626 -0.749454 1.01205e-20)
(2.06035 -2.80728 -1.15828e-20)
(9.98997 -0.183148 1.9878e-20)
(20.3845 2.37143 0)
(-0.94119 -1.17967 -1.76231e-22)
(11.6663 -0.0884851 -3.53701e-21)
(9.84246 -4.88583 8.14213e-22)
(18.2694 -2.04173 3.19277e-20)
(11.4159 -0.0385043 0)
(8.23513 0.940111 1.76705e-20)
(9.37479 -0.123647 3.15853e-20)
(9.96442 -0.116256 2.54716e-20)
(16.2769 -1.79148 0)
(6.44701 -0.664369 -8.22684e-22)
(14.0011 -1.36193 -6.41931e-21)
(-3.31715 1.11454 4.94551e-21)
(8.98666 -0.987938 3.44739e-21)
(11.6453 -0.078886 3.37362e-21)
(12.3169 -0.230048 -9.99632e-22)
(11.4006 0.0602389 0)
(8.94845 -1.85 -1.92198e-20)
(7.16193 -13.225 3.91063e-20)
(11.0293 1.88701 -1.32104e-20)
(10.0371 -0.00944626 1.7471e-20)
(8.34031 0.0122789 0)
(9.74061 -7.48677 -1.37792e-20)
(-3.43901 5.44867 0)
(11.3923 4.98552 3.44305e-21)
(10.6703 -0.0994816 0)
(13.6471 -2.93747 -6.72416e-22)
(7.99551 -1.48916 -7.30687e-21)
(7.72972 1.78328 3.76044e-20)
(-3.4258 1.61932 -1.63098e-20)
(11.7215 -4.44326 0)
(10.6748 0.285979 -1.75767e-20)
(9.92439 0.436924 -1.42942e-20)
(6.77439 -4.77113 -6.14158e-21)
(3.04813 9.24786 1.09773e-20)
(9.20303 -0.960543 -3.72525e-20)
(15.9612 -1.04651 7.71204e-21)
(10.0663 0.548734 1.20677e-20)
(8.785 -2.82696 0)
(7.6475 -0.0100152 1.64771e-20)
(4.07001 11.6623 -2.18375e-20)
(15.3999 -3.68617 1.17557e-19)
(5.97979 -10.8722 -1.54491e-19)
(8.04744 -4.40719 -1.66665e-20)
(15.4545 2.27758 0)
(7.13317 -4.26122 0)
(8.91306 3.67108 0)
(11.1746 -0.23317 0)
(21.6793 9.92703 -5.42083e-20)
(13.4055 3.97349 0)
(8.53552 -4.05371 0)
(9.08594 -0.372445 5.60324e-21)
(15.8306 2.71778 -9.82101e-21)
(11.3439 -0.0256457 -9.90435e-21)
(8.72378 0.377488 5.50776e-20)
(9.9737 0.102679 -7.16346e-21)
(8.85701 5.44911 0)
(15.7919 -0.513403 0)
(9.94102 -0.199925 1.70765e-20)
(10.2327 0.0254905 3.00888e-21)
(5.04317 1.43235 0)
(9.06223 -6.30725 4.2565e-20)
(15.0234 -3.08509 -1.62437e-20)
(-1.92055 -5.55489 0)
(10.8397 0.451361 1.0864e-20)
(10.0721 -0.110396 -1.98447e-20)
(6.80233 8.4961 5.32061e-22)
(6.64023 -2.53479 0)
(9.91944 0.449416 2.52058e-20)
(12.2528 1.48015 0)
(14.3103 -1.35855 0)
(10.4796 0.76178 -2.45775e-21)
(9.903 -0.148737 9.4722e-21)
(0.727038 -1.29927 -1.13355e-20)
(10.2869 2.53805 7.36275e-21)
(8.14462 -2.3834 -1.19963e-20)
(10.9073 -0.196825 1.55019e-21)
(10.1359 0.640767 9.80786e-21)
(10.115 -2.0385 4.98832e-20)
(15.2377 -2.39542 0)
(17.5982 -0.69089 1.97107e-20)
(7.96023 -1.2459 0)
(12.8479 -6.35828 1.07838e-20)
(11.4128 0.510525 0)
(8.24228 -0.765823 2.02742e-20)
(0.0705035 -1.81688 -3.11202e-20)
(15.1401 -0.995337 0)
(-0.534985 -1.63776 3.1038e-23)
(15.6411 -0.615421 -1.51879e-20)
(10.0681 -4.33331 3.22336e-21)
(10.1489 -1.5491 2.93794e-20)
(7.27936 1.74075 -2.32166e-20)
(8.10807 -2.37094 -3.48605e-20)
(11.0321 5.17132 0)
(4.9253 12.8402 3.24638e-20)
(-0.0402603 -6.202 -8.11817e-20)
(9.89143 0.442242 0)
(9.39665 0.170792 1.26047e-21)
(13.3338 0.43883 2.66291e-22)
(10.6749 4.50131 0)
(9.99848 -0.0241164 0)
(17.1115 -10.9996 0)
(-17.7554 2.90002 1.08645e-19)
(6.52909 2.90034 2.67599e-20)
(8.07074 3.14333 1.61882e-22)
(9.63638 3.50051 0)
(9.65617 -1.33718 2.21525e-20)
(7.48853 -8.86836 2.3707e-22)
(10.3163 2.35927 -1.79901e-20)
(14.944 0.863365 1.75177e-19)
(9.70676 0.0559753 0)
(12.8859 -8.07852 0)
(5.56746 -1.64446 -2.14524e-20)
(8.61251 -2.80783 -8.06975e-21)
(10.7073 -0.801715 0)
(11.9466 -5.43652 2.83774e-21)
(14.1722 -4.57426 6.68544e-21)
(7.81974 -9.57606 2.50828e-21)
(6.22458 -2.9607 0)
(10.1457 -1.12252 1.86997e-21)
(3.53998 11.775 2.0163e-20)
(12.4955 1.47588 -9.68559e-21)
(11.3057 -2.76745 0)
(6.61837 0.154649 -2.93422e-20)
(10.4238 -1.0316 1.11066e-20)
(9.9833 0.179748 4.85119e-21)
(15.3288 7.7476 3.78373e-22)
(11.0836 3.34236 0)
(8.75372 0.400277 -1.46885e-20)
(13.3243 4.93275 3.99384e-21)
(8.71593 -4.14378 2.58117e-21)
(9.92974 0.0713257 0)
(3.80251 7.16639 -1.12658e-20)
(4.86694 -1.40554 0)
(9.99282 0.0793616 -1.97933e-20)
(9.95495 -0.0103932 7.05386e-21)
(9.88393 -0.319318 -3.30344e-21)
(-14.6405 -1.03019 0)
(12.8538 -0.360043 -5.10216e-21)
(6.68021 0.353651 4.49946e-20)
(14.9811 -2.13038 0)
(9.01765 -0.446107 1.6953e-20)
(16.076 2.15888 2.84723e-20)
(10.8328 0.050775 0)
(2.38513 10.0217 4.74764e-20)
(12.1292 -6.56363 -6.71438e-21)
(12.266 -0.234047 0)
(6.03392 0.407722 2.77544e-20)
(9.33279 0.147183 0)
(10.8827 -4.80114 3.86091e-21)
(7.37679 -9.68067 9.45611e-20)
(11.2287 -1.72173 1.54705e-21)
(11.7181 0.917728 1.07253e-20)
(7.65907 -0.0631403 8.53923e-21)
(10.0995 -1.65374 -1.06465e-20)
(12.5629 -4.8201 -3.2531e-21)
(11.0001 -4.54776 2.69121e-22)
(11.6155 -0.177819 3.53662e-21)
(10.9994 3.33646 -1.88094e-20)
(14.3404 -5.6846 0)
(9.99033 -0.0337262 -1.5498e-20)
(-1.46774 -4.63512 2.94208e-22)
(8.08732 -1.26711 0)
(7.55251 10.5729 -4.08633e-21)
(2.05507 0.765993 0)
(7.67115 -2.50061 3.07531e-20)
(13.5939 -3.72762 0)
(8.9376 -0.801049 2.13519e-20)
(11.3236 0.0718773 -8.33887e-21)
(-1.42539 13.1929 8.54011e-20)
(21.3546 -10.8796 1.62915e-19)
(11.2994 0.0632318 -1.21501e-22)
(12.5484 -5.66062 -1.19952e-20)
(10.6604 -2.75449 8.11906e-21)
(8.80408 -2.22882 0)
(4.29221 -3.83713 -1.05404e-20)
(15.5234 -1.83423 3.56349e-21)
(4.12503 -3.38084 -1.19616e-20)
(8.71379 -10.3909 -6.20067e-22)
(8.78912 -3.35678 0)
(10.954 0.0341161 -1.76253e-22)
(7.17012 -5.30924 0)
(15.4241 -6.1186 1.14285e-20)
(7.14251 8.63273 -2.02029e-21)
(14.8233 11.1068 0)
(12.476 -1.97659 6.58749e-22)
(-4.42764 7.17152 0)
(10.755 4.42936 0)
(10.4815 -4.85326 -5.1794e-21)
(7.93721 0.18407 1.37285e-20)
(11.7664 -8.60166 0)
(9.37464 -0.036719 -8.91718e-21)
(4.28416 3.75755 4.78195e-20)
(2.89835 -12.6113 1.46535e-19)
(10.3399 5.15498 0)
(10.6475 -0.0309059 0)
(-3.58583 -4.83651 -3.12762e-20)
(10.2003 -0.752993 0)
(12.3262 -0.627962 0)
(-8.35575 -1.04431 4.91295e-22)
(11.8205 -1.22591 -8.24673e-21)
(10.3008 -2.3093 7.8916e-21)
(17.7546 1.1713 2.12222e-21)
(4.74227 -3.58289 2.5835e-20)
(9.99984 -0.0209078 7.96117e-21)
(9.014 -2.30487 0)
(10.0452 1.68166 -5.95273e-21)
(8.40313 -1.74328 0)
(11.7565 -0.102107 0)
(9.98357 0.217705 0)
(10.5354 0.724939 -2.01192e-21)
(10.0784 -0.572487 1.04527e-20)
(13.1215 0.493975 -3.01929e-21)
(9.25009 -2.32638 0)
(1.25403 -2.84762 -8.27041e-21)
(8.84232 3.4353 1.36281e-20)
(11.4106 -3.55012 3.61918e-22)
(11.9673 -2.18952 -2.33541e-21)
(17.7252 -1.5736 4.31706e-20)
(10.1096 0.0319398 -1.13185e-20)
(0.449074 -2.11738 0)
(10.3305 -0.855236 0)
(6.45383 1.79386 0)
(7.79047 -3.4379 -2.13624e-20)
(-11.093 16.9896 -5.44528e-20)
(14.118 10.2442 0)
(10.144 1.70545 0)
(9.3059 -1.03979 1.92136e-20)
(10.2305 -0.0181763 -2.52015e-21)
(9.04284 1.74567 2.22693e-20)
(15.5078 -3.22142 0)
(-2.21738 1.15701 -3.88796e-21)
(10.8582 0.321656 1.05884e-20)
(8.43989 -2.66998 -1.95031e-20)
(10.499 0.360968 -1.35412e-20)
(10.2701 2.3946 2.20588e-20)
(4.16595 2.82104 2.63757e-20)
(7.67985 -3.41052 3.70095e-20)
(17.1626 -8.16539 4.48962e-20)
(13.3128 1.52853 1.13158e-21)
(10.0152 -0.0195364 -3.62674e-21)
(11.5774 -5.55618 1.90144e-21)
(10.4694 -5.42832 3.01232e-21)
(6.54681 5.59005 -1.44061e-20)
(11.5769 -5.24791 -3.57e-22)
(12.3582 -1.50218 0)
(9.40738 -4.49467 -1.46571e-21)
(10.755 -0.0176386 -2.52617e-20)
(11.6874 4.27234 -4.28056e-21)
(8.28339 -2.50929 -1.8202e-20)
(11.3254 -3.42354 -5.31763e-21)
(10.4606 0.0723748 2.35813e-20)
(13.2268 -0.0558445 -1.35516e-20)
(6.70199 -3.78795 -1.5375e-20)
(15.0789 2.50414 -2.39322e-21)
(7.2316 -1.76589 -4.38663e-20)
(10.7569 0.00670349 -2.26442e-20)
(7.23871 -2.04225 0)
(-7.66536 15.5565 -1.92165e-19)
(11.2303 0.0211795 2.5906e-20)
(9.46316 -2.17353 -3.60765e-21)
(-0.730053 -1.93047 0)
(13.8791 -5.74913 0)
(9.64439 1.28786 2.1197e-20)
(6.69682 -1.7958 2.75674e-20)
(-10.4922 8.02536 -5.364e-20)
(13.8138 -2.96848 4.09542e-21)
(12.5815 -0.0312706 2.33983e-21)
(12.1269 5.2707 0)
(9.60778 1.39965 1.23322e-20)
(0.260077 8.08267 -4.1607e-22)
(10.0508 3.88922 -1.70323e-20)
(11.0373 -1.06684 -1.13265e-20)
(4.85899 -4.49369 -4.38531e-20)
(16.8909 -1.81812 -3.98533e-20)
(18.0603 -0.754262 9.82522e-21)
(9.31824 4.02722 0)
(14.0159 -3.57388 -5.24874e-21)
(9.9053 -0.321302 2.8979e-21)
(7.45482 -5.28188 4.51683e-21)
(6.53762 -3.2405 3.57247e-20)
(10.9624 -1.09956 1.71511e-20)
(13.3945 -3.08074 2.18722e-21)
(3.73693 -12.873 -8.65825e-20)
(13.8582 -0.607989 -5.95288e-21)
(10.8139 0.0947203 2.03397e-20)
(-5.71425 -1.41097 -3.49214e-21)
(9.85587 3.65992 3.23831e-20)
(7.29369 -0.616507 -3.01564e-20)
(8.3654 -3.95855 -1.00908e-20)
(6.04249 -1.31468 0)
(13.2164 0.449255 -2.95573e-21)
(-10.6261 -4.77859 -2.81675e-20)
(7.94931 -1.58123 3.88594e-20)
(11.9219 -0.992643 0)
(6.39346 2.32575 1.19232e-20)
(7.49328 -3.09386 8.68755e-21)
(9.99494 0.0137525 -3.43114e-20)
(7.77128 -8.20709 -5.55981e-20)
(11.423 -8.37228 -2.67164e-21)
(11.4329 0.0326256 6.76804e-21)
(10.8574 0.370499 2.66869e-20)
(11.0559 -4.86887 -3.70671e-21)
(13.2364 0.78632 4.0944e-21)
(-12.5462 16.1426 -1.28843e-19)
(10.5669 -0.00643771 2.371e-20)
(10.8691 -0.196027 -6.80877e-21)
(10.3962 0.418671 -1.17476e-22)
(12.1755 0.0772741 -1.44545e-20)
(7.22043 -3.16938 -1.67772e-20)
(12.955 1.32475 0)
(-12.7056 5.23565 1.28191e-19)
(10.7437 0.0366159 2.19054e-21)
(7.60778 8.03612 1.92113e-21)
(12.1004 0.350681 9.91221e-21)
(12.506 -0.488606 -2.01041e-21)
(9.95174 0.0654182 -3.06326e-20)
(10.0101 1.02374 7.32188e-21)
(8.40324 -6.02519 -4.37507e-20)
(13.0392 -0.559671 0)
(11.2694 -6.57716 7.39286e-21)
(10.7886 -1.40624 1.21014e-20)
(8.81845 -3.30011 0)
(10.3209 0.308691 1.67023e-20)
(11.6834 -1.51633 1.5024e-20)
(12.6567 -0.468716 1.4273e-24)
(20.9109 -5.60187 3.54848e-20)
(9.37028 -2.5345 0)
(9.15076 0.760572 2.89114e-20)
(13.7583 -1.82687 -6.83236e-22)
(11.0743 -4.98879 2.87949e-21)
(10.9327 -0.653432 0)
(7.89282 0.140425 -3.94578e-20)
(-0.112836 2.64869 -8.20694e-21)
(9.57633 5.10932 1.67766e-20)
(7.30377 -1.81735 4.27592e-20)
(12.7028 -0.284769 4.44983e-21)
(19.8809 -10.8619 1.18063e-19)
(10.4796 -0.623956 -1.51466e-20)
(17.4292 -0.165157 -2.43716e-20)
(9.37368 -0.059373 -1.81758e-20)
(11.815 -0.109744 0)
(10.013 -0.0449124 -1.35814e-20)
(16.7441 -5.14804 2.53452e-19)
(-0.669292 -0.933425 0)
(17.9785 -0.648851 0)
(7.15881 -4.74423 0)
(8.83025 -3.647 0)
(9.87262 0.885711 0)
(7.01417 -1.75458 0)
(15.7745 -5.71314 -1.43749e-22)
(10.7386 2.68897 -2.38796e-20)
(11.8822 2.24597 0)
(9.2626 0.544375 4.26594e-20)
(4.27699 -6.7538 1.00493e-20)
(10.0894 0.624472 1.47871e-22)
(-9.57778 -3.36784 -9.04326e-21)
(6.91587 -0.947721 1.22676e-22)
(9.76191 -7.18535 4.45276e-20)
(9.50827 0.0687321 -7.27973e-21)
(13.8321 0.686781 -1.52116e-23)
(9.86329 0.799114 -1.43161e-20)
(9.5558 0.0725542 -2.64791e-20)
(8.77542 3.05683 -2.31137e-20)
(10.8356 4.95313 0)
(8.81948 5.65841 3.00559e-20)
(7.77864 -2.57926 -3.36456e-20)
(10.0117 0.014328 -4.02245e-20)
(15.4776 -1.54589 2.8553e-20)
(12.0253 -0.0113071 2.42007e-21)
(18.2683 4.64846 -3.94582e-20)
(11.7638 -0.5016 -1.03065e-21)
(12.4953 -1.94896 -2.18738e-21)
(9.94008 0.394433 1.48161e-20)
(9.21265 6.66378 0)
(12.3533 -4.69481 -2.32e-21)
(9.14721 -0.475626 -5.39046e-21)
(12.4993 4.48428 0)
(10.5813 -5.03535 0)
(11.9519 -5.05551 -1.83587e-22)
(17.9989 -10.3404 1.38638e-19)
(14.9281 -5.73499 -2.80044e-20)
(3.06657 -3.57114 0)
(10.2462 -0.555189 -2.10845e-20)
(9.24714 0.16217 -5.01959e-21)
(-6.62297 8.41048 8.5323e-20)
(11.6998 -1.24111 7.70329e-21)
(11.2862 -8.44271 0)
(9.96293 6.60712 3.498e-20)
(11.6359 -1.41779 0)
(14.2227 -3.71271 6.2424e-21)
(8.29317 1.07571 -1.24114e-20)
(10.0377 -0.0236013 6.06804e-24)
(10.3399 2.69804 -4.16123e-20)
(10.3954 4.78094 -6.7309e-22)
(10.325 -2.71902 1.78834e-20)
(1.10192 17.5326 0)
(-0.639647 4.9226 -8.51744e-20)
(7.75029 -9.52324 0)
(12.1585 2.4051 3.63869e-21)
(-4.35024 7.38231 1.9313e-19)
(21.4016 -1.55789 3.86604e-20)
(10.4933 -6.77896 -6.27967e-21)
(-15.5173 -3.31037 -1.02927e-19)
(10.4873 -4.83677 -3.32577e-21)
(7.93361 -2.56509 -1.92218e-20)
(6.52074 11.8986 7.78095e-21)
(4.35686 2.26462 6.92014e-20)
(7.28953 -3.22098 1.37886e-20)
(8.17107 -2.65672 2.04185e-20)
(-10.8669 14.9608 7.01422e-20)
(6.74548 1.53253 -3.58147e-20)
(11.1309 -2.97225 6.36711e-21)
(-2.33807 -0.934381 1.86699e-20)
(13.6707 0.121988 1.77018e-21)
(4.26326 -6.48546 -7.24131e-21)
(10.6943 1.88467 -1.01075e-20)
(14.0364 -0.678977 0)
(8.78598 -4.08445 -3.31156e-20)
(10.3484 -0.0232604 -2.67613e-20)
(9.90937 0.185602 0)
(12.0377 2.19606 0)
(-2.01254 6.7719 -7.30581e-20)
(19.3577 0.720341 -2.54632e-20)
(11.4082 1.25781 -2.51641e-20)
(11.7838 -1.18766 1.06987e-20)
(8.81871 3.01965 2.00018e-20)
(8.9377 -0.00185089 1.60831e-20)
(-5.96356 4.38617 8.10051e-21)
(8.70756 1.59985 0)
(8.35951 -2.78025 1.90393e-20)
(-3.61225 8.79194 4.58725e-21)
(-15.337 -2.94747 8.18357e-20)
(10.3725 -3.65537 2.4629e-21)
(16.4063 -9.05208 1.45223e-20)
(9.84703 -0.00333926 8.44939e-21)
(9.35044 -6.39877 1.47186e-21)
(16.1563 -1.96467 2.03228e-20)
(-8.17308 4.38683 -1.26959e-19)
(11.3328 1.18984 1.89759e-20)
(9.99101 -0.205805 9.84267e-21)
(7.16778 -2.01316 -1.75353e-20)
(10.2861 -0.661707 1.26098e-20)
(6.59422 -4.04715 0)
(11.0889 1.90662 2.27195e-20)
(10.0553 -0.157336 2.22195e-21)
(8.72886 -2.09452 -6.30464e-21)
(7.63033 5.12353 -1.32657e-20)
(10.9151 -2.97898 5.49082e-21)
(10.0935 -0.031227 4.01632e-21)
(7.8455 -0.530792 -2.78832e-20)
(12.9344 3.92849 0)
(9.99952 -6.94107 -1.69099e-20)
(10.6127 0.413157 1.83073e-20)
(12.6795 -2.18662 0)
(8.05615 -0.875258 1.54505e-20)
(11.9386 -1.31514 0)
(6.91588 4.90966 4.75534e-20)
(12.6076 0.00630552 0)
(12.4518 -4.84838 0)
(10.809 -0.313882 5.60648e-21)
(11.4486 0.942686 1.43568e-20)
(14.1428 3.22935 3.07583e-21)
(9.74137 0.0535937 -1.23996e-20)
(7.25722 2.77315 -1.2394e-20)
(10.0871 0.0985615 -6.1314e-21)
(9.94896 0.953905 0)
(-4.72835 8.75637 -3.06803e-21)
(11.9552 0.989452 -1.21108e-20)
(13.7289 -4.11914 -1.21096e-20)
(14.0986 -0.694573 0)
(11.7834 4.29911 -5.50315e-21)
(8.55125 5.30445 -2.48633e-21)
(13.6357 -0.0110826 8.12279e-21)
(-13.8547 3.46721 0)
(-8.35132 -0.753128 2.19928e-20)
(10.1113 0.436037 0)
(14.873 -1.75161 -9.40142e-21)
(2.56038 -1.73885 0)
(-1.57881 5.96449 0)
(16.9378 -7.37247 0)
(13.1838 -3.87018 0)
(-3.94693 2.99546 -1.8788e-21)
(-16.2148 3.77051 -2.58387e-20)
(10.0763 -0.536053 -1.56786e-20)
(-1.46751 15.2975 -1.08037e-19)
(7.84934 -3.32388 0)
(-13.5962 17.5652 -6.89145e-20)
(1.45894 -1.55025 -8.09221e-22)
(9.71231 -4.42426 0)
(8.77661 -3.0962 -1.9171e-20)
(16.4886 7.47696 -6.69491e-21)
(10.6365 1.77701 2.688e-20)
(18.614 -2.19097 -2.85809e-20)
(9.54423 0.00259055 0)
(14.2866 -2.55494 0)
(15.6293 6.86221 1.03887e-21)
(11.1965 -5.50844 5.81556e-22)
(1.72701 12.8984 -3.16253e-20)
(0.0754604 2.63479 7.08975e-23)
(9.99415 0.00175495 1.0083e-21)
(13.0915 0.719367 -8.46915e-22)
(9.93932 0.383722 2.11085e-20)
(10.2551 -8.29797 1.08765e-20)
(11.3071 -2.51429 0)
(1.98125 -0.849446 0)
(13.262 0.633632 0)
(18.1748 1.72249 0)
(9.98356 -1.8894 7.86095e-21)
(15.0242 1.18722 0)
(-6.7493 1.31309 3.53949e-20)
(2.22397 4.15246 -7.44388e-23)
(8.09655 -2.72707 -3.08888e-20)
(2.95836 -4.46291 -6.41712e-21)
(-14.2765 8.67792 -7.29889e-20)
(-5.09041 4.24267 -1.7856e-20)
(11.1712 0.0695206 3.16371e-21)
(-7.5537 -1.23865 -9.89732e-20)
(11.2118 -8.46072 1.95116e-20)
(11.1157 -0.306867 0)
(12.6776 1.16331 0)
(7.90631 -6.29303 0)
(12.559 -0.649859 7.46988e-22)
(1.2011 4.22114 0)
(8.73694 1.61949 0)
(9.99946 0.00666605 0)
(10.3376 -2.2934 7.53347e-21)
(10.0629 0.536387 -2.41136e-20)
(0.71728 0.445541 0)
(16.1536 -5.24333 -2.19921e-20)
(9.76358 0.369405 -1.73685e-20)
(10.2243 3.75722 3.56592e-20)
(9.81699 -4.33655 8.95933e-21)
(8.94896 1.96685 1.67513e-22)
(12.2569 -6.71461 -7.95e-22)
(7.95744 -4.20188 1.28357e-21)
(10.7274 -4.0501 -7.53146e-21)
(11.2428 0.972105 -1.94677e-20)
(2.41572 11.9742 -4.91565e-20)
(9.62502 -0.233034 -1.68396e-20)
(10.4813 0.00233401 0)
(8.70369 8.22229 -1.41787e-21)
(9.95479 -0.121295 1.8592e-20)
(-2.21817 7.35263 -4.41057e-22)
(11.7258 -0.591579 -3.28048e-21)
(6.79967 -1.87378 -2.99887e-20)
(11.3378 0.828338 3.29939e-21)
(13.0878 4.8045 -5.77748e-21)
(9.98794 0.132429 0)
(8.84849 -4.04113 -4.90904e-21)
(5.64574 -6.13602 -1.83904e-21)
(12.6648 -5.18187 1.48212e-20)
(15.9843 4.77684 -1.99927e-19)
(10.369 -0.0692213 8.5527e-21)
(13.3709 1.16241 -1.15604e-21)
(12.4368 -0.2575 -3.33906e-21)
(13.0606 0.478993 0)
(2.03248 -0.126006 0)
(9.22099 -4.26615 1.26144e-20)
(8.90822 -9.19263 6.00488e-20)
(7.36985 -2.08181 8.26559e-22)
(10.0063 -0.131416 3.66389e-20)
(9.12517 -4.09543 1.52704e-20)
(7.87894 -0.0175545 0)
(9.4916 -0.296508 0)
(9.38383 -2.17724 -3.6675e-22)
(10.8089 -0.205138 8.46846e-21)
(9.05008 1.84766 3.25139e-20)
(10.0846 0.681333 0)
(12.486 0.234273 0)
(12.8337 -2.14802 -3.16782e-21)
(10.8214 -0.642737 1.05313e-20)
(1.28203 -1.72757 -3.36316e-20)
(10.8607 -1.43086 0)
(-4.14822 7.59778 2.459e-21)
(17.5172 -4.09668 -8.21513e-21)
(-9.47207 -5.93127 -3.37048e-20)
(10.4881 -0.243458 -1.71535e-20)
(15.5214 2.68797 0)
(19.7199 0.927548 2.04784e-20)
(-12.4047 3.9812 -4.28925e-20)
(-0.693985 -0.265272 0)
(13.8759 8.08791 6.6226e-21)
(9.7999 -0.126856 -1.23403e-20)
(18.0426 -3.07681 7.77588e-24)
(8.36375 1.78652 6.39748e-21)
(8.01325 7.62285 -1.32791e-21)
(10.9505 0.04543 0)
(6.73417 -2.66348 -2.9623e-22)
(8.06979 -3.69887 -1.44065e-20)
(-4.74252 5.42764 -4.13328e-20)
(9.86271 0.84286 1.69527e-20)
(0.552167 14.7607 3.81196e-20)
(10.1092 -0.0107367 -3.97202e-20)
(13.3515 -3.09811 -2.87437e-22)
(9.61096 -5.68553 2.97557e-21)
(10.1646 -2.14232 0)
(5.46731 -1.18174 3.81329e-21)
(7.08288 -3.28083 1.10819e-20)
(11.1205 0.0711159 -1.59001e-20)
(10.0512 -0.144289 -1.65283e-20)
(15.876 -1.75858 7.65782e-21)
(9.40919 -1.27392 3.31626e-20)
(13.0266 0.0806509 -1.96286e-21)
(9.42904 -0.193255 9.98919e-21)
(9.2246 10.8371 -1.53818e-20)
(18.0525 1.38123 -2.28842e-20)
(9.91058 3.96644 2.74589e-20)
(-11.1213 8.35979 4.22578e-20)
(10.1707 0.0740481 0)
(8.83001 -5.93099 0)
(16.7125 7.68074 0)
(8.02104 -2.57785 2.4101e-20)
(9.78163 0.0143862 -2.62199e-20)
(9.22083 0.14181 0)
(8.92643 -2.13044 -1.81402e-20)
(9.24545 0.0575491 0)
(9.98997 -1.6462 -1.31234e-20)
(13.2108 -3.92157 -1.48314e-20)
(11.0982 -2.33688 -7.56357e-21)
(11.0585 0.0452553 0)
(10.0454 -0.233105 0)
(12.471 -2.44731 2.46059e-21)
(11.8268 1.95309 -6.55833e-22)
(14.151 0.340951 2.96891e-21)
(8.75713 5.64392 -7.65838e-22)
(9.39511 1.36777 0)
(10.3821 -3.5671 -3.94145e-21)
(-1.0951 -1.43994 0)
(5.17015 1.7933 -1.87345e-20)
(10.483 4.7717 0)
(13.1882 1.01887 2.19983e-21)
(7.23952 -1.665 1.14335e-20)
(8.72266 -1.3549 1.1039e-20)
(10.1501 -1.84919 -1.45514e-21)
(3.79779 4.10659 -1.2025e-19)
(10.7625 -0.829348 2.6181e-20)
(9.89371 0.913779 -1.66615e-22)
(18.3394 3.03023 4.95726e-20)
(11.4842 -1.70146 -3.55583e-21)
(-1.61437 -1.8557 5.23953e-22)
(11.6014 2.74617 0)
(10.0635 -0.0620977 -2.26554e-23)
(9.10239 -2.41088 0)
(9.33227 -6.04095 -2.85417e-21)
(10.6715 -3.51745 -1.87612e-21)
(9.47995 -1.16231 -1.07726e-20)
(6.94331 -1.15812 9.13364e-22)
(13.1555 0.610113 6.40593e-21)
(9.25761 -0.814637 2.39214e-20)
(10.8305 0.287132 -8.41582e-21)
(3.30228 13.2871 0)
(-3.18326 -0.473133 0)
(13.1925 -0.567087 3.9251e-21)
(14.0323 3.20109 0)
(9.65365 0.12017 -6.89083e-21)
(7.76846 3.21923 -2.00032e-20)