/*--------------------------------*- C++ -*----------------------------------*\
| =========                 |                                                 |
| \\      /  F ield         | OpenFOAM: The Open Source CFD Toolbox           |
|  \\    /   O peration     | Version:  2306                                  |
|   \\  /    A nd           | Website:  www.openfoam.com                      |
|    \\/     M anipulation  |                                                 |
\*---------------------------------------------------------------------------*/
FoamFile
{
    version     2.0;
    format      ascii;
    arch        "LSB;label=32;scalar=64";
    class       volScalarField;
    location    "4.8";
    object      p;
}
// * * * * * * * * * * * * * * * * * * * * * * * * * * * * * * * * * * * * * //

dimensions      [0 2 -2 0 0 0 0];

internalField   nonuniform List<scalar> 
13486
(
5.8445
5.7935
-0.112167
-16.6608
-5.1884
0.404892
-6.3492
-1.90042
1.13362
3.67694
-8.26636
0.351112
6.13857
0.630847
-3.46778
3.94502
-8.67219
2.21365
0.298784
5.31818
-21.7619
5.95895
5.66688
-18.5041
3.4402
-17.8204
-10.1216
-3.95776
-0.0183301
-6.32412
-20.8588
-0.542534
-4.28824
-3.23006
-1.81627
-0.0167074
-0.632182
2.39031
-0.515901
1.91391
-13.7844
6.61057
-0.131685
3.32005
3.22249
0.344707
-16.3399
-0.0182463
-0.607793
-2.13959
3.89441
-0.744425
0.667203
2.69674
0.490511
-4.63301
-2.08499
-0.710106
-4.42223
-0.812197
-10.224
-0.851164
-4.7313
-22.3274
-57.2932
-0.699441
-15.9578
6.6841
0.968781
-0.449142
-15.731
1.16637
2.54883
-11.7321
-0.874093
-1.80908
-0.846139
-3.81198
-13.6815
-1.30102
-0.00941567
6.0834
-4.72666
-0.0402364
5.84047
4.70614
0.297879
3.7947
4.56458
4.29894
0.813981
-2.87847
5.10655
5.52425
0.817531
-0.0110681
-10.334
-16.7127
1.80614
-9.64838
0.0210034
0.844597
-17.7667
-0.707509
5.23338
-10.0932
3.97536
-0.503163
-14.8836
-4.6572
-0.533379
-1.4857
2.71893
-1.18648
8.26814
0.0528451
3.4988
-3.13832
2.60336
-0.554521
2.27991
-9.41729
1.44037
-0.524313
-0.299119
-0.694584
-0.547279
1.96217
-2.89877
-47.3113
-0.685223
-17.3648
-15.4518
-9.50427
3.95285
4.44259
9.89778
-4.26933
-0.523897
-1.22907
-3.72641
0.727488
0.188593
-1.34645
-0.446992
2.18739
-0.0483914
7.54526
-2.31733
-0.0114213
3.13739
-5.34312
0.00243214
6.25481
2.25445
-0.129897
-6.34364
-21.9814
1.18487
-0.377309
-1.26682
1.19579
1.90262
6.51666
-0.747937
-0.162137
1.19644
10.43
-0.0475166
-9.63157
-16.8927
2.28221
3.53716
-0.820229
-0.0271718
-28.8942
0.364991
-3.61567
3.90934
0.193161
1.0677
-1.03148
-0.51959
-9.38761
0.0418695
-3.77159
0.00196923
-4.55028
-12.8142
0.614712
-0.601861
-0.40408
-0.797585
7.40172
-0.975741
-7.99196
-50.1055
-1.57184
3.68581
0.0499397
-21.0463
1.90148
2.40451
-8.87552
-0.406843
-1.04022
0.453288
3.54598
-0.735249
0.0300643
-4.07235
-30.4135
5.24977
4.00058
0.425531
-6.15448
-5.96619
4.35076
4.37137
-4.98664
-8.92211
-2.33751
-0.925537
-1.54546
0.813272
4.89023
-0.317128
-31.6092
-2.90063
0.236762
1.04135
-22.5882
-3.81504
6.93349
-21.2439
4.22764
-3.94913
-0.347825
4.37159
-0.0754879
-4.8782
3.47584
-0.64888
3.57528
-0.374824
4.66885
0.160489
-12.3835
-10.2418
3.56754
-14.5035
8.46458
-0.419898
-0.531933
-1.87445
-28.4459
-0.276433
-6.13618
-19.3849
-5.58731
5.07895
-0.375686
-3.12747
-27.108
-5.72159
-9.36248
-2.85611
-22.3616
2.64569
1.93368
6.04731
4.01556
-6.0759
0.49515
4.90714
-10.7163
-1.83806
-12.9887
-0.575412
-0.0252021
-14.9081
0.692589
4.09465
-10.459
-9.03479
-11.0513
-3.17362
-2.9496
0.740163
2.75439
-20.6693
-0.437366
0.420165
3.96713
-3.83902
-4.27766
-1.47719
0.422914
4.05083
-10.6052
2.19376
0.641547
-0.0538603
-0.758663
-0.518102
-8.59024
-24.6473
0.234713
0.220827
-0.619615
-8.62654
-16.6681
1.10947
-1.11207
-9.07641
4.55524
-0.451522
4.62747
3.67058
-3.57003
-0.674528
-0.438654
3.91072
5.65931
9.67648
0.628617
-1.96289
0.545855
0.289895
-2.47075
3.81243
-3.40569
1.11961
6.96343
-7.20563
0.347882
8.38835
-5.30014
3.36776
-0.351642
-3.07127
5.66146
-2.85434
-0.64786
-9.68063
-0.0176019
-0.276279
7.80874
-4.9713
-0.421611
0.156346
0.397542
0.47628
-10.3474
4.0134
-0.214243
-11.9001
-0.550146
0.161297
-26.8901
0.268113
0.99364
4.89156
4.03581
-6.42716
0.00451672
-4.19969
-20.4578
5.42028
-0.380998
-0.132223
-0.129648
0.730459
-14.0648
0.667621
3.93339
3.97127
-0.388565
-8.63677
-8.26591
2.42592
-3.85884
6.78881
6.24952
-19.4235
-1.99692
1.28842
3.30665
-7.12065
-19.8911
5.06685
-5.92219
2.73971
4.74347
7.27388
-0.540092
-16.2939
-13.5334
-6.92291
-3.52097
-7.08054
2.9892
1.62265
-26.0607
-5.69808
0.686074
5.41619
-3.84316
0.138859
5.54336
3.18848
-0.725293
-5.31627
4.09437
3.94503
7.24922
-9.42411
-5.57553
-19.3956
-0.124636
3.93523
1.48503
7.89285
3.48451
-0.716402
-4.4892
1.92695
4.14448
-10.126
1.51123
5.94212
1.70513
2.70761
0.665089
-7.12886
-10.04
6.90015
-0.422222
-0.688753
6.55989
-15.7141
-5.77999
-9.03867
-5.65943
-0.0102586
3.19099
6.9245
6.07985
-8.94476
-0.550269
-9.85689
3.42588
4.72166
-2.13915
-2.19583
4.01416
-11.4211
-31.7714
-12.6177
1.11101
1.40625
4.13776
-0.0307409
1.57178
-19.6767
4.35214
-0.015349
9.52993
4.98654
2.19581
-2.54719
-0.0401534
-0.00968558
8.26895
-1.92871
-0.516465
-0.655607
0.39548
-11.2741
0.431126
3.57366
-0.296575
-0.645243
5.68608
-3.94734
-7.15367
3.36265
-19.4164
10.3874
3.40522
3.93756
4.17926
-27.1014
0.109075
8.52389
-6.45982
5.54468
-9.91967
2.139
-23.1208
-1.20533
-0.171535
-11.1509
4.78388
-0.197787
-15.7162
-0.0051092
0.238202
7.25689
3.13481
-1.90743
0.0289716
-0.144833
-0.511056
-6.12243
3.93412
-18.1645
6.70119
-0.806844
-0.434097
6.66308
-3.9462
-0.0487752
0.267855
-24.8623
-12.3446
0.198697
-5.08391
1.64391
5.07295
-9.04361
-7.04991
-9.103
-0.0166194
4.32641
2.13524
-9.42987
-18.2279
2.08444
-18.3326
-1.58008
-55.1035
-2.06339
0.0461343
6.81157
-0.835536
4.89333
2.00541
-13.5049
-2.80144
2.61186
-9.85685
3.24979
0.0758948
-11.5505
-0.377251
2.55938
-6.56796
-9.12594
3.9379
4.71918
2.53132
6.01663
0.0858791
3.5372
1.99192
3.80744
-0.454393
4.34202
-10.284
2.8627
-0.385204
-2.85477
-10.6816
3.80004
-15.5537
0.437338
6.701
5.80704
-32.3869
-13.01
2.35897
0.888984
1.90818
4.41837
-10.0399
-9.04065
1.08517
5.36171
1.67577
1.67179
-46.4268
5.92179
-16.7316
-0.969852
3.99618
-2.80886
-1.20025
1.7711
-1.95753
0.192135
0.352126
2.56161
-3.2167
5.66492
0.0166474
0.473381
0.613398
1.17952
-2.9662
7.61491
2.23426
7.53274
-29.8348
2.99227
-0.0317442
-12.1895
-5.45295
3.54511
8.31077
-62.5152
-4.19595
-2.30057
-5.47849
3.46832
1.88291
-0.146684
1.44583
-9.16832
-9.93234
-11.4894
1.12923
-4.32555
4.097
-0.021078
6.8022
1.65983
-0.46326
-13.3365
-3.8633
2.33244
-8.33447
0.706802
-10.699
4.11616
-0.00226547
-2.01319
-17.0358
6.7378
-0.0244276
2.20917
6.5007
3.92697
-9.43391
-0.698982
-0.0128743
1.37416
-0.647538
-0.609265
-38.0122
2.53603
1.91051
2.21248
1.19471
6.72592
-0.861036
-29.8171
3.80717
0.306451
0.163646
-1.88794
3.64834
2.90642
-9.45907
0.0795108
-0.388441
0.389066
4.31818
2.26027
0.267661
0.0146851
-15.4408
-1.18549
5.15068
-0.587804
-0.911676
1.66732
6.79296
2.6043
-1.16648
7.49983
-0.128176
-11.7646
2.91768
-8.21354
4.94063
-0.421531
3.97799
-27.3864
-10.1608
-26.4132
-0.0157367
-7.7028
3.25646
7.96215
-7.06465
-0.166311
-0.535189
5.29082
1.67999
2.79541
-15.3872
8.32735
-9.51535
0.266669
-2.37724
3.43079
4.56506
3.39733
-7.33998
-23.4134
6.45385
4.05279
-7.25783
1.9492
-14.3043
-0.394939
-1.61319
3.27001
-8.83413
-1.64562
5.25831
-5.10487
-0.641891
-2.18288
-12.8443
-7.12508
-0.555657
3.44418
4.94496
-27.9033
0.0936145
-9.56479
-22.9387
0.193543
-4.3659
1.00014
3.97443
1.05338
-2.38282
2.19728
-9.28186
-41.4163
-1.73041
-0.95733
-26.0426
-27.2239
-0.398233
-27.2776
-0.74324
6.16489
-0.546397
-39.9322
6.53321
5.70861
-30.0244
-47.7741
0.62951
-20.569
-0.527098
1.50245
1.33663
-4.57297
-7.24445
2.80409
3.5572
-0.734969
-21.6737
-8.24137
0.506211
-0.236302
3.62469
0.428633
-26.0749
5.0335
5.41538
-9.44917
-26.9094
1.35809
-9.58543
0.591277
-0.480555
-5.76791
-24.8907
0.632105
3.96378
7.58945
3.30311
1.24564
0.650886
3.9199
5.33988
1.61247
1.02386
3.37688
7.11499
-5.26373
-0.425961
1.61809
-2.54744
6.79474
0.131835
2.34709
0.409922
-1.71182
0.296187
0.658152
-2.83845
4.31349
5.25019
3.56438
3.02679
-4.69304
-0.0932093
-3.96049
-4.37615
-3.55955
0.155336
-0.453268
-40.1592
-12.4618
3.11256
-5.32048
-10.1583
-4.38685
-19.4719
-3.22499
-8.31756
-33.3787
3.86155
-25.854
5.89306
-33.1168
-10.4529
1.95356
4.45965
-0.958315
1.43128
-11.6499
4.62493
-5.38656
-4.45023
-1.00223
-0.536706
-19.4354
4.00102
-2.23948
3.28659
-0.418667
0.534878
-10.2889
-0.55671
-0.204338
3.25129
-3.28643
-8.45401
-50.8185
5.84845
1.8741
-32.1174
-8.50625
3.33963
-23.9793
-0.441656
0.328628
-3.06174
0.996755
-2.02254
-55.2061
4.88397
4.00342
2.35967
2.84349
-0.4539
-7.71824
3.84921
0.0371786
2.17351
4.32792
-1.47551
-0.522495
-2.32822
0.771966
-0.521604
4.61139
2.59587
1.26218
4.02016
1.67419
-0.208978
8.12676
0.663836
-4.16418
3.54697
0.450231
-0.535984
-2.64966
-20.6942
3.28545
-0.813881
-0.129535
-0.452948
2.4136
2.99122
-9.48214
0.0020263
4.02074
0.523838
6.95906
4.80905
4.16448
0.343699
4.0965
0.132778
-0.288748
-2.55487
1.97281
-27.7512
-2.86252
-7.02878
-12.5342
-16.5585
2.8999
-0.935564
-8.04483
-42.4851
-28.6451
-0.27651
4.27836
-0.124732
0.946114
-9.05683
3.9419
7.6722
0.569412
-11.5322
3.35932
-7.2491
3.08082
-0.398484
-0.398691
2.89912
-0.879795
6.75457
0.365949
3.93053
-4.97756
4.55508
-0.538125
4.89346
-0.809683
-6.12657
0.480169
-62.7657
0.3942
0.656502
-22.2793
5.98912
3.94942
5.04394
4.9511
5.03751
3.3066
-3.97727
0.993
3.99105
3.89004
-2.62717
-0.309551
-3.08675
-1.48011
0.251522
1.38014
-9.98632
8.80556
-2.47583
-0.738037
7.65607
5.64612
-2.88023
-56.2161
2.11403
3.19426
-14.9986
0.291967
-9.37937
-0.596531
3.92398
4.50125
-0.42278
1.20366
4.5247
0.00321043
-1.11594
4.99979
0.0568534
-0.570101
-8.93801
-0.0646068
-2.73379
4.33829
5.07569
-0.594245
-11.7812
-9.18914
0.0533956
-0.558941
0.311695
6.56724
-0.648086
9.08273
2.98565
0.322767
3.63406
-9.63535
-12.0614
-23.0122
3.32457
-0.453945
-8.48522
-20.3663
2.94499
3.61749
-0.360248
-3.89085
-22.5193
-3.36465
1.81244
-0.408634
0.499334
0.15563
3.80129
4.07356
4.89032
1.71248
-2.88667
-4.89975
-3.12557
0.0419083
-35.9768
1.90677
0.368509
-24.6041
-0.471182
-0.582297
2.42646
-16.9049
0.45819
3.31768
-0.349926
-10.0262
-0.593236
-2.06731
-9.15517
0.484418
0.610183
1.22287
3.64279
3.01453
-9.16028
3.9383
-0.522321
5.24372
1.38868
3.11375
2.3451
0.502913
6.762
8.77732
1.31192
-5.95
3.62665
0.0141903
6.8067
-2.79802
-4.57192
-15.473
0.394412
-1.63576
-7.11707
3.92339
2.85473
0.938903
-10.7708
-2.18765
1.83785
8.08787
0.851087
3.96984
-7.33365
2.10374
6.41912
-2.03861
-0.578411
-24.91
3.93138
0.219285
8.83424
0.0528574
-3.26434
2.98757
0.468785
-9.77476
-9.58831
2.65124
4.9378
-0.233447
-5.54351
5.76411
5.3401
-1.12712
-7.02444
-0.0599959
1.96489
1.81561
2.54241
4.28402
0.449006
-8.07682
4.89706
-0.825186
-4.39773
-1.96609
4.64775
2.93055
-11.468
-26.9014
0.0087308
3.94103
6.24751
0.258097
2.28764
-2.73672
8.192
-9.61839
-3.57678
6.9295
3.91398
1.07204
-0.0141825
-16.3919
-3.00851
-15.9861
-10.0909
-0.394602
-22.9835
1.18222
-7.85942
-19.2687
-7.79271
-2.00767
-10.6837
-6.82324
-13.61
5.9948
4.33253
-6.52557
-22.0925
-0.144302
1.89033
-2.84594
9.01636
-3.22285
-2.70291
3.93757
-8.79455
-23.4657
-2.22015
-2.44663
2.87446
9.35648
-0.0242546
-1.91433
-20.3459
0.0731494
-2.66511
-0.432675
-0.574215
5.02274
4.29868
4.17564
-23.34
-1.01107
-0.537981
0.837667
3.90091
0.649069
4.23285
8.40957
7.34754
-8.43495
3.94316
5.01985
-2.6595
4.06444
-0.551198
7.17685
3.93864
1.18884
4.88685
3.09796
-1.89751
-0.368422
4.82139
-4.57332
0.903363
-4.9306
-4.03888
0.374757
3.17213
-0.532909
0.358098
6.63244
6.58032
-1.82242
-9.35159
0.343476
-15.6478
-1.64802
4.39414
5.13354
-9.1499
3.93727
0.659416
-0.130422
0.89493
-17.418
-25.4803
-0.573172
9.09269
-3.17817
-0.102137
5.47751
0.348964
-1.55866
2.9358
0.415057
3.84377
-8.66433
-4.75914
0.358365
-1.81425
-3.41958
-2.33598
7.78052
5.59939
2.58137
7.89689
6.24611
-2.85134
-0.595211
0.0920074
-2.93537
6.65959
-25.2733
2.12218
0.152271
-10.5792
-3.10208
3.5417
-53.0892
-0.0850812
4.02419
9.48093
-10.2386
0.0106034
0.967423
1.48646
-0.138485
-22.2891
6.32515
3.93032
0.843555
3.31566
-10.761
-7.5001
-11.1543
7.32557
-1.18912
8.73593
-19.824
2.05868
-14.2539
-6.40026
-11.1363
1.15512
-0.637726
2.47253
0.383922
2.39979
-21.705
-0.00190144
-28.204
-9.00969
-3.46481
-4.79372
0.279578
-1.22205
-20.3989
-9.72774
0.281636
0.532546
7.07936
3.9748
-0.432669
0.196896
10.6939
2.00688
-10.4505
-0.0331675
0.636235
3.91037
1.03385
5.04865
-2.71343
-2.83642
-2.47475
-0.000734666
0.342322
5.84251
-9.52952
-10.2074
-10.5146
7.49149
-15.5895
0.428167
4.24228
-21.7273
-0.867031
-0.489827
-9.3631
-9.58554
-0.507752
3.60745
2.40216
4.15962
-3.44719
-9.29968
-4.46643
-11.7449
-8.20783
-2.92378
0.868024
-22.3504
0.126542
-19.3593
-10.1578
-14.004
5.72284
-21.4009
7.47684
-10.0243
-5.47664
-1.02762
1.65212
4.57351
-0.483882
5.92777
0.41158
-14.4588
-8.31932
3.83132
-8.87999
3.64235
-0.411211
6.39452
4.98148
-0.422944
3.36855
6.6496
1.62072
3.43832
-6.84056
-11.9577
-0.521945
-7.90769
-0.571808
-3.49988
-3.84887
-0.125845
-7.86537
0.296303
-0.688942
-1.491
-3.15131
-4.11332
7.1426
0.0125651
-0.0114907
0.4254
3.97664
-43.998
-0.0363401
1.88107
-1.09611
-0.244995
0.0341714
0.425355
3.97217
3.9669
0.0689004
4.28051
4.74547
2.38659
-7.52155
-0.708401
2.14177
0.493451
-2.67538
-21.513
-33.0315
-4.40803
-17.0541
0.0581299
-0.589351
-1.64222
-9.51476
-2.23961
-18.0369
-0.637475
-25.017
2.58193
-9.47821
4.23825
10.5843
2.62314
-26.9663
2.95621
1.6794
0.337099
-0.103637
-8.03887
-46.8996
0.121754
3.92834
-0.0123183
6.31743
-0.0722598
3.95275
-1.31497
-0.39412
-16.0746
-5.90967
8.87018
-19.81
4.02784
4.00407
4.99227
0.118991
3.89867
0.663265
-13.3406
1.47429
-10.343
-12.8594
4.03571
3.91649
-4.71915
1.75402
5.09125
-14.1742
-62.9734
-1.59562
-0.486275
4.32865
3.06006
4.73049
-0.552477
1.28095
-8.72488
-3.66609
-8.21638
4.73058
8.64093
-9.12302
-8.11994
-17.3353
-0.20891
0.0610164
0.0775365
-7.38904
1.76981
-0.915765
-23.7659
-0.540306
8.8233
2.73779
2.05023
-21.4489
-14.0508
-12.7079
-7.60872
-12.7751
-10.9231
5.52559
3.06793
-4.76633
8.28593
-0.0372716
-8.63345
-27.4709
-12.7589
1.73943
-8.81765
2.42023
0.9872
0.121512
-7.15002
-10.0305
-10.6131
-28.3685
4.93855
-16.5477
-0.52135
-10.5517
4.02039
3.52916
-15.5817
4.33463
3.01709
5.60056
6.65945
1.70071
0.39784
9.20603
-11.1138
0.19567
-8.9742
-28.9792
5.70983
-29.3422
7.17728
2.92785
-3.58454
-22.9096
-19.9004
4.65736
-35.3273
-39.4116
-0.0231381
-1.32822
1.95521
3.38932
1.7686
-1.60409
7.48277
-10.0026
-16.1946
0.477389
0.249892
4.22037
-21.2483
10.4209
-0.546809
-0.761584
4.11452
-3.49235
3.98261
1.41078
2.76459
1.6524
2.36055
-2.88869
1.77124
0.338126
-24.2669
-0.112985
1.18816
3.65049
4.12213
-25.2751
-0.126082
-6.89184
3.30324
1.13034
-29.8287
4.12833
-30.121
3.89868
4.27051
-8.26241
6.02573
-54.037
8.76736
2.05898
-20.5414
-0.0186996
-0.746845
3.53306
4.62503
-25.0251
4.20076
4.36549
-6.11606
-0.383654
0.322179
0.361685
-6.2543
-9.27936
-3.85384
-27.7393
4.0156
-21.3279
-17.8493
-8.44345
5.14446
4.51718
3.97494
-21.3422
3.00004
-1.19381
-0.0303629
3.10498
-26.7501
-27.2517
7.31091
-0.993865
-1.64745
-4.67853
-12.2788
-23.1313
4.06823
-8.7654
-3.95835
4.66417
-1.80507
3.83201
-11.1194
-0.0287751
8.08377
-8.71241
4.71477
-0.293645
-21.0568
2.43786
0.332394
0.060413
8.13289
2.49013
0.660306
8.50367
3.85313
5.42426
-12.5972
-22.2269
-4.95603
-4.0648
-19.6585
-0.406432
-3.45337
-1.32662
-0.191318
0.203325
-3.35776
-1.99532
-21.5545
-3.07417
5.07905
-8.17741
0.271014
3.41027
3.95944
-1.21395
-0.301745
-16.0597
-8.24061
-11.9041
-4.40547
5.07885
-26.7803
5.52892
-9.97839
3.97763
-4.76272
-0.581776
-9.0894
2.63548
3.10385
1.98634
0.531579
2.04814
1.43933
4.71686
6.23835
-24.0605
-2.58839
-15.523
4.20597
1.18187
-7.99346
-3.10894
1.07749
-1.71946
-0.128791
0.997246
-2.14802
2.07966
3.09732
1.05519
-0.507961
-33.8407
5.74494
-13.7902
3.17229
-0.0112203
3.97092
2.89407
3.23883
0.882695
-13.5813
-22.763
-0.515099
-16.3084
-28.547
-50.4916
1.56814
-26.9783
4.05607
0.838244
3.97602
-16.8231
1.20469
-6.00354
-0.542077
2.81101
-9.79009
1.9152
0.307728
-49.6084
-18.5613
-14.6984
0.491265
4.157
-0.504391
0.393755
-12.1598
1.76704
-6.70682
-0.344639
-9.76516
4.3165
0.0731672
-0.268398
3.67914
1.55358
3.39989
3.36242
6.30126
-9.25403
-0.545538
-14.0342
-0.659186
3.367
0.31397
-12.6305
-25.7411
-16.2053
-2.5963
-0.254338
-20.9343
8.62388
-7.5865
2.75668
0.171155
-41.952
-0.663557
-0.371274
-0.846871
1.55648
0.418125
4.23964
-0.540935
3.95601
-6.19751
-8.63097
-26.7143
-1.77395
-26.1114
2.57588
7.93537
3.92464
-5.75578
-11.413
4.07669
-10.1817
-6.51506
0.00785364
-1.55047
-30.6878
-20.25
-30.1257
-4.62911
0.522379
-0.255582
-0.768578
0.354285
4.50566
-2.78056
-4.01999
4.6105
-0.61931
-8.0174
-0.34412
-0.0141476
-0.0164125
8.44009
-0.0202455
0.11314
-3.16182
-1.68904
-2.71532
1.25007
-1.60128
-0.753206
-2.21971
-3.59446
-0.336484
-5.58692
4.93734
1.12363
1.79965
-11.837
-3.47636
8.23127
-25.7088
2.67272
2.57144
1.37387
-0.818115
0.0678748
-19.3157
1.33441
4.12944
3.57075
1.95313
-28.6844
4.58475
1.60073
6.43139
-4.73867
4.23796
4.86514
4.08334
0.619533
-9.24172
2.35357
-12.685
-1.92257
2.94022
3.43756
1.401
5.58238
0.407629
6.37654
1.33452
2.92825
0.497945
0.247449
-0.683709
3.98948
-0.457323
2.95652
8.1666
4.2136
0.456023
-3.37965
0.108916
3.96274
-0.543804
-6.87242
0.620646
-0.244135
4.66427
-14.5917
5.82914
2.10738
10.8637
7.04342
-3.291
-4.78138
-2.49108
1.28111
7.18395
-0.0502399
0.828912
-1.2968
9.16854
3.29395
0.333167
8.411
-1.80578
3.5396
-3.66954
2.52636
-1.69436
1.44193
2.5745
3.98954
-0.657207
-13.1877
0.350758
-12.9689
-0.687008
-12.8577
-0.0553623
6.69318
5.3602
-0.265818
-8.38538
-2.84198
3.20727
1.00361
0.862537
3.33681
-9.70232
-16.7294
-21.5087
4.26316
-6.47507
-7.89687
2.75602
-1.62423
0.0381044
-3.27003
8.32378
-29.6064
5.53587
-9.76444
8.48155
-8.70085
-0.301421
-0.666497
-0.549269
1.24253
3.96633
1.07818
-6.4689
1.39645
-9.627
4.69011
-0.16572
1.06033
-27.885
-3.68275
-9.82855
2.51952
-5.22209
-0.497922
-1.18239
4.04461
8.71485
-13.4412
-0.349106
0.691237
-3.42294
2.96055
-0.37966
-3.65583
-4.91456
-22.1832
1.35256
-29.7129
-3.31885
0.104678
-0.775525
-64.3093
1.24033
3.70517
3.0581
3.89969
8.13759
-9.78115
8.9725
-12.9046
8.15783
-27.3244
-2.18072
7.58909
2.78243
-43.4461
-0.154165
-0.665224
1.00949
-25.7943
-10.0172
0.383537
-5.25806
-7.95862
-0.0243239
-2.11187
2.6545
2.55351
-36.2869
2.7722
-5.90951
0.213264
-28.5109
-0.533394
2.50283
-27.2168
-4.34943
7.38474
-0.412292
7.71553
0.201998
-9.9752
2.63882
-2.55585
-0.721551
3.86345
3.97223
9.06989
3.81093
4.49517
-4.91152
-10.12
8.7453
8.78582
4.63918
-1.56228
-26.4431
-12.6763
1.00996
-2.88183
-0.893205
5.25148
-21.5577
-0.500185
-7.28695
8.01325
2.02789
1.52056
-23.1474
0.00829528
3.4545
10.1808
9.38952
1.51028
2.16117
-3.33672
-10.9705
3.14184
9.64487
-8.64473
-0.759609
-2.16182
-0.0337766
0.47658
0.300686
-0.257684
0.330664
0.99617
0.217288
-0.713291
2.401
4.79938
-10.3564
3.07316
-25.4173
-0.545082
7.04438
-4.14648
0.690999
-10.0296
2.88786
2.4466
-14.2538
-11.6813
-0.445406
1.13513
10.4602
-14.1034
-0.891519
-45.164
-1.35412
-13.0174
-10.2947
-15.1081
-1.68633
-0.295438
-5.62932
-2.27604
-7.30899
2.38565
-0.388914
1.40427
10.0462
1.59452
0.313057
-3.56079
1.86554
-8.86093
-4.76137
6.54706
3.41163
0.361068
-2.66133
2.51091
3.43588
-4.0274
-18.8072
-0.0702166
6.61712
-3.3332
3.95559
1.17539
5.96932
0.569028
-28.3312
2.09005
4.033
-3.60694
4.13082
-1.84381
9.13242
-17.0144
-0.055567
-8.30438
3.33892
-17.5839
-2.4881
-18.3737
0.242003
-7.83141
-32.1327
-28.8251
-1.11057
0.87508
-26.479
-2.37129
1.0095
-12.8386
0.334747
-20.03
4.00074
8.46681
-0.291792
-8.92529
0.633963
0.13522
0.614051
-1.32742
-0.698226
-10.4059
-0.00188188
-9.80244
-7.94224
1.09347
-0.923236
-19.7686
-0.706184
0.268246
3.96486
-1.78637
-15.2851
-0.364367
-0.571642
-4.1896
-1.30634
-5.92104
-16.3827
5.08603
-19.1438
-5.8458
-4.24392
-2.42121
-9.5804
-10.4176
10.6891
-0.779901
-4.41362
3.02026
8.29612
7.06907
-31.8913
-3.65552
3.93653
-0.498586
0.0413991
8.38485
-0.0590756
-1.63588
10.6424
-3.85583e-05
-9.57024
1.67142
6.52912
4.10881
0.639862
6.53086
3.58263
-2.26151
-0.445136
2.89477
0.411147
-7.66134
7.9095
0.423157
-0.89903
-0.694484
-21.0149
-1.19086
-24.4134
-4.60265
0.484293
1.39429
4.5057
1.64386
-10.0675
6.95935
7.52371
-0.0866943
0.167731
-1.48249
-0.107182
0.368481
3.42297
-24.0184
-2.72106
0.429638
8.81485
-10.3093
2.3862
3.28436
3.41637
-2.35959
0.744069
-5.3148
-1.63006
-5.61616
-0.681704
-10.0576
-5.02255
-0.187799
-17.2635
3.82761
-33.4175
-0.506077
2.0694
-8.82625
-23.5175
-9.22259
1.71098
-3.42899
0.154607
2.82348
-37.4776
-0.61693
-0.144026
-1.35951
3.76287
-9.21328
8.50444
-0.523559
9.4895
-0.00477972
0.0511776
0.180211
3.96427
0.145359
-8.97977
-1.4785
0.429366
0.158557
-1.46176
10.8111
3.46539
-3.38035
-3.15069
-2.56503
1.40163
1.62093
-5.30456
3.46267
-22.5881
-21.1036
-8.69348
-9.07128
-2.06976
-8.8922
3.42225
0.0781253
7.06134
8.84641
-7.49943
-10.185
1.15687
-2.92664
7.43844
-11.0531
-0.221208
2.76347
3.62
-27.7042
-10.0333
0.580459
-0.651095
-0.960023
-23.6475
-8.94871
0.729097
-1.96937
-6.8536
0.0323952
-7.73234
-5.96845
1.76597
-35.89
-26.9088
-6.82699
2.52943
9.11292
-3.41903
4.00033
-16.5491
-0.95289
0.836526
-2.78036
2.32009
-15.9214
-22.9754
7.35817
3.66221
1.01368
-9.40113
9.74644
-21.7117
-19.9434
-22.1939
-4.371
-18.0371
-25.754
6.25704
0.793691
0.388668
2.6583
-17.5502
2.62984
0.14883
0.254562
-8.9935
1.14094
2.48998
1.87446
-14.8155
-17.1836
-11.2896
-8.39706
-3.75026
-3.13998
9.15285
3.54894
-20.9138
-4.87577
2.07363
6.72795
-2.30883
-22.4817
-3.78746
5.21481
0.830919
-5.71497
4.15216
-6.84416
7.22661
-2.03645
4.55229
-9.87956
-4.9147
-0.667138
-22.7992
-4.91953
2.48584
-20.0561
-17.7264
2.89856
-7.05661
0.682924
5.40821
3.74288
5.19926
3.96029
-3.65041
-0.121837
1.24865
1.08125
-0.0126574
2.96393
-2.71826
7.35547
-16.7487
4.97558
-6.83771
8.37572
-17.3434
-1.72285
8.03509
-17.8653
-3.15125
-10.0219
5.29128
7.90649
3.97057
-5.9592
3.96401
3.91647
-23.5223
3.15635
-31.9861
4.57819
-19.4802
-24.526
-11.0852
-11.6147
3.8099
-6.30007
-12.1534
-0.762405
7.74219
-0.680593
0.637574
-11.9434
-2.38885
-2.20627
-3.60498
3.98183
1.29593
-11.039
9.43266
-0.815363
6.62938
4.36994
-0.302407
-0.234202
-0.226811
-4.52618
-5.08788
-0.914953
-1.37512
-0.372168
1.17595
-20.7774
8.48755
4.74589
-1.01996
-16.0883
1.10562
-19.1496
3.72208
3.56434
0.340307
-0.499024
3.54526
1.76865
-2.46957
-9.73404
-2.78588
2.06857
7.26323
-14.3488
8.11409
9.63807
8.51127
-9.72496
3.7224
-9.80323
3.88717
3.63445
5.31111
2.1063
5.07722
10.1007
4.15574
-16.8554
-13.7402
-22.0369
10.0205
-0.501467
-8.42205
-14.9421
4.86043
7.05883
2.52087
-0.867387
-1.2653
6.31498
-1.59154
1.23867
-16.1125
2.82775
-0.510275
-9.90934
-0.160294
-9.43413
-10.6749
-26.8967
-7.48813
-1.03473
3.62238
0.354034
0.327015
1.39916
0.810375
-5.08891
-0.62719
1.19718
-9.44455
-20.0627
4.76068
6.44233
-21.1698
4.14821
4.7656
6.58724
-0.234906
-51.1992
2.10413
-8.21092
5.36782
0.557555
5.16098
3.76977
1.69092
5.08184
0.464506
4.07054
-0.774388
2.90255
-3.47805
-9.10809
-3.71717
-0.430646
3.93618
-39.9831
-32.0257
-37.842
7.5789
3.66251
2.7722
-1.18913
6.00208
-5.47441
1.20156
0.452618
-3.53389
1.32466
-30.2133
-10.2711
-2.86144
-8.72349
-4.17796
-22.7776
0.353067
-12.5546
-10.5917
0.157779
7.86776
9.0277
6.98984
-40.4161
1.30632
-9.24701
1.47483
6.81271
1.83214
3.85535
-33.7242
-0.505657
-4.06663
0.766145
4.59933
-1.71991
2.1471
-10.8981
0.0246975
-10.0454
4.17615
2.20134
3.94222
-9.40535
1.43011
-28.5726
-12.4613
-12.2311
-0.678896
7.51184
-7.69282
-14.2432
-17.3602
2.88975
3.99828
-0.770733
3.32984
-9.87273
6.18421
7.27744
-29.1916
0.207138
5.18365
-33.8599
-11.7835
1.11879
4.93402
5.56275
-9.54059
-3.40168
0.770039
7.73966
-9.95751
-57.1423
0.690316
6.42904
1.07393
-3.45455
-9.99874
4.05136
3.75919
4.41899
0.54549
-6.36326
2.20565
9.80238
-9.30969
-1.3785
0.936431
-9.73901
1.01401
-0.326221
-13.4025
-3.7487
-18.562
3.43363
-21.5428
-9.15674
3.77016
5.11612
1.51538
-4.21337
-50.3459
1.65155
-10.3719
-5.69625
-3.07282
-0.654226
-7.75567
5.28466
1.86981
0.885923
0.876879
6.95597
-23.4369
-2.14452
4.02659
-11.5651
3.55987
-0.784271
-1.02937
-7.62448
3.89088
-0.0283837
-0.365366
-2.76625
-5.81813
4.19076
-7.09838
1.71447
-38.1362
-5.37968
3.86277
-11.003
8.40816
-10.2867
-13.7712
-19.136
5.09819
1.90137
3.56002
-23.1385
6.32341
-19.7521
-2.7404
0.331691
3.74652
4.16665
-0.372405
-2.72299
-1.5504
-20.1042
3.76985
-8.13
-33.9401
0.0162912
-0.928197
1.55281
-0.678436
6.986
0.102805
-9.75295
3.60676
-2.26893
5.47735
-7.54246
1.22751
4.12588
4.2103
-0.627547
-14.266
-9.35696
0.95854
2.25251
2.75583
2.28867
-19.7526
-1.03134
-5.51007
1.28557
10.2601
1.38489
3.7635
5.39327
1.92959
4.44671
-29.0019
-20.4722
-37.0626
3.90861
9.83871
1.5777
-2.00857
4.38811
-0.880347
-0.472419
0.0722081
0.920637
0.0284717
8.42471
-16.0353
-8.30918
8.11564
4.51712
0.456074
2.14473
3.65121
0.447777
-26.3678
-32.8378
2.19746
-10.9686
-8.78395
3.40394
-37.4868
-16.7387
-8.59118
1.01314
1.2834
1.98037
0.940702
3.70215
3.8643
-0.00248964
2.29913
1.52637
5.66718
4.63647
-4.26655
-0.817452
-0.817062
4.72124
1.99902
2.31488
-0.732626
0.872978
-0.574175
6.93712
2.7161
-0.0391149
-10.9904
1.75398
2.874
-2.66975
2.62785
-0.510372
0.235805
-40.4446
0.376974
-12.108
0.203152
-3.50923
-17.4689
-7.3642
-9.18739
5.69636
-13.1437
-15.7631
-16.182
7.25045
-23.5821
0.476033
2.10414
-12.5524
4.70683
4.01326
-3.41313
4.82649
0.931805
1.1358
-23.1184
-11.6917
-0.127648
5.4139
2.71493
-9.7101
-9.29572
-35.061
-17.7455
-16.6808
-2.15853
-2.40874
2.58396
3.96155
3.14972
-29.2706
0.194144
4.99184
3.42613
-9.42916
1.04302
-22.8003
-1.93339
0.409426
0.0918953
3.86063
-5.17217
-26.9629
-34.0834
2.32878
-28.4928
-21.6921
-0.0100538
-53.5582
-8.70357
-12.7645
-14.7794
0.022017
-21.528
-0.595573
-9.41123
4.17715
3.97163
-1.99613
5.24176
-22.8481
6.82382
-9.07998
1.32584
-2.62804
2.22435
0.149105
-9.40987
-21.6653
4.2953
5.48814
7.40944
-10.431
-9.28721
-29.7617
-2.32123
-0.030694
-10.154
-7.41744
-10.5814
0.158706
-9.6424
-3.08943
-10.5949
-1.06687
6.22862
0.667581
-1.09068
-0.421903
-3.98905
-16.2668
6.51949
8.96245
-13.8828
2.36713
2.31991
-0.0142067
-25.3207
5.01835
5.38889
-1.50393
-20.4451
-36.0672
-27.2775
-2.3666
-11.0721
-1.86409
4.02385
0.0692683
4.79184
-8.12607
-12.5248
4.16775
-2.02097
-11.5897
1.42599
4.55799
-11.9582
-0.791073
-11.4627
-10.1932
-10.9368
7.61765
-21.7085
0.363698
-9.37337
3.32228
-11.2859
-7.05513
-1.73503
-9.76627
-3.59984
2.46754
-0.102437
-10.3285
1.35329
0.0351433
-44.1736
3.26316
-8.92604
-2.53726
-0.606008
3.83284
-17.4925
5.1718
-39.8089
-0.0147215
-0.324424
-6.62791
-31.0258
-9.65821
-22.1048
0.597402
2.68596
0.127288
0.302161
-3.98718
0.428356
-14.3622
4.12565
-2.94313
3.35858
-4.69686
-16.0115
1.79074
10.7497
-23.3621
-12.238
-11.9874
-6.33814
3.93728
-0.133872
2.12605
-2.73951
-7.28976
-10.398
-10.4015
-10.5278
0.897444
-8.44361
1.6047
-9.97264
0.839306
1.40557
-0.283619
-5.23776
-0.879602
3.40233
-8.6034
-40.4814
4.21468
-1.13419
-9.8786
0.20696
0.144739
-4.27124
-0.108293
3.70609
-31.4072
3.00812
-7.54399
0.0228536
-7.4631
-6.43522
-18.7895
-5.1365
-21.3437
3.62146
2.87535
-15.309
1.94829
-29.5479
5.30746
5.05328
-12.4981
1.75135
3.20551
3.99629
-2.56415
-32.2439
-6.2731
-3.81104
3.88609
2.2703
-7.02483
0.715511
-3.60311
5.42861
0.478637
1.55571
1.37347
4.24422
-3.71118
-4.09736
-0.513504
3.881
1.98795
1.07287
5.27367
4.87198
0.0481026
-41.5387
3.46357
3.11799
0.876352
-1.11326
-14.2788
-15.5828
-0.811579
-38.0623
5.29971
0.782727
-1.655
-3.25663
1.26741
-11.0287
1.67893
-42.9815
-3.28695
3.54802
4.36117
-36.984
3.2764
-0.734453
1.08927
1.81986
0.768245
2.08863
-0.0245545
4.17144
3.80215
3.89827
-9.66645
4.556
3.51177
3.92499
3.87342
-46.0431
-1.87886
-0.554995
-4.73227
3.7194
7.18799
-51.1875
7.45468
-33.1815
-10.0376
2.10255
3.33066
-2.1971
0.690303
-8.45468
-47.7633
-1.67189
-24.977
-1.52994
0.110498
0.983308
9.21183
2.732
-33.6878
-22.1199
1.28547
3.02018
-24.4149
-18.9634
-53.4437
-4.24388
-10.632
-8.97146
3.97689
1.09883
2.9439
-1.18781
-0.956272
-0.552614
-0.265172
0.537358
-4.06614
4.63744
-8.386
-7.26324
-3.58736
-17.34
0.0662026
3.18863
-1.14427
-9.81321
3.97837
-0.642056
2.87302
-4.78252
3.64328
1.09429
6.23342
3.83462
-36.8245
0.0215157
-3.40932
-51.4118
-0.502718
-0.531085
-5.50171
-53.908
9.46607
-0.116111
-3.19356
5.07855
-15.6892
-1.31589
-25.5557
-10.1009
-22.1491
-8.61354
-3.02827
0.0811027
-10.0594
-40.5452
2.17463
-42.5274
-2.73004
-18.7627
0.147011
3.88938
-16.4888
-22.8785
-3.35281
-0.271726
-5.03552
3.61704
5.40356
-52.7203
3.73658
-2.07416
3.62421
7.24678
-12.8171
3.52661
0.125562
2.81923
4.562
0.419768
-2.30297
-16.2709
3.21736
5.39567
-38.1982
0.106649
-9.4558
-6.36126
3.16634
-45.1007
-3.3468
-58.7581
2.89055
-8.27742
0.33382
-0.385773
4.08577
0.369696
-15.5813
0.564056
-0.455597
-11.9639
6.38911
8.26024
3.75844
9.79914
4.661
5.0019
1.30469
-0.336507
5.31037
-20.0008
2.11296
0.0302806
-10.6935
5.70739
-2.8099
-3.87744
8.09476
1.1937
-18.9503
3.14703
2.83338
4.85225
-7.34373
4.20107
8.05027
-14.0818
-10.2701
-3.8431
0.406337
-9.64298
3.17057
0.547236
5.16609
3.90299
-21.0967
3.09188
-1.98769
-21.6027
-18.7216
-36.1157
2.33503
-6.95842
4.051
-0.720134
-10.219
-0.00382277
-3.10734
-2.11156
-58.0265
-19.3558
2.97974
1.90759
-10.6314
-0.506538
3.92907
0.348938
-47.4937
3.22652
-0.15156
3.04595
-11.5583
3.85804
2.18381
-5.3354
-1.36333
2.30975
0.188383
2.38924
-9.53359
9.41132
-2.55259
-12.2578
2.41541
1.1378
-10.8608
-4.11899
-9.50984
-3.25877
-2.31973
-5.87829
0.633993
-0.0215509
9.88699
1.18224
-18.9851
-0.0173179
-3.75275
-3.09035
-3.98498
1.52762
3.9766
-9.37558
0.271284
-9.17925
-2.82841
0.172924
1.15516
3.73175
-0.0244891
-0.0417989
-2.44502
3.71376
0.00903307
-0.0756534
-11.9838
-0.663245
-1.07855
4.60905
-12.3416
-1.2556
-16.5912
2.17739
-10.3766
0.226545
4.04871
3.29408
3.59842
-11.485
-21.47
3.83249
-1.66834
4.6247
3.16971
2.1616
3.42103
-0.134058
2.31084
0.581529
-5.15412
-20.4106
3.94485
-15.0481
4.42708
0.36223
9.97485
0.960676
2.22565
3.70514
1.59416
0.323944
3.60288
-1.037