/*--------------------------------*- C++ -*----------------------------------*\
| =========                 |                                                 |
| \\      /  F ield         | OpenFOAM: The Open Source CFD Toolbox           |
|  \\    /   O peration     | Version:  2306                                  |
|   \\  /    A nd           | Website:  www.openfoam.com                      |
|    \\/     M anipulation  |                                                 |
\*---------------------------------------------------------------------------*/
FoamFile
{
    version     2.0;
    format      ascii;
    arch        "LSB;label=32;scalar=64";
    class       surfaceScalarField;
    location    "8.3";
    object      phi;
}
// * * * * * * * * * * * * * * * * * * * * * * * * * * * * * * * * * * * * * //

dimensions      [0 3 -1 0 0 0 0];

oriented        oriented;

internalField   nonuniform List<scalar> 
20045
(
0.868786
-1.04583
0.177042
-1.76279
0.81977
0.943023
0.293213
2.73974
-3.03295
0.932446
-1.05892
0.126474
-1.61733
1.43595
0.181384
-0.768738
3.01282
-2.24409
-1.80271
0.463569
1.33914
0.0931847
0.812605
-0.90579
0.849606
0.737416
-1.58702
-0.888479
-0.390182
1.27866
-0.210922
-0.272511
0.483433
2.8631
-1.60092
-1.26218
0.722713
-0.697819
-0.024894
-1.68062
1.29477
0.385848
-0.285517
1.69286
-1.40734
-1.4624
0.573921
0.0474239
-0.0687138
0.0212899
1.65782
0.725767
-2.38359
-2.35739
3.32223
-0.964839
-1.17475
-0.127792
1.30254
1.25965
-1.33134
0.071693
0.270915
0.451797
-0.455175
-1.30762
1.22887
1.77356
-3.00243
1.30627
0.0424528
-1.34872
-1.78858
3.01745
-0.218905
0.272742
-0.0538368
-1.71745
3.64177
-1.92432
1.0423
1.46278
-2.50508
-3.77387
2.58346
1.19041
-0.908557
-0.849202
1.75776
2.15759
-2.00054
-0.157054
-0.547039
2.10084
-1.5538
4.4221
-2.59195
-1.83014
-1.03508
1.12826
3.1497
-0.991489
-2.15821
0.810741
1.76883
-2.57957
-0.118405
0.722808
-0.604403
-4.33118
2.80522
1.52596
1.06502
0.87239
-1.93741
0.0207014
0.874856
-0.895557
0.333142
-0.467016
0.133875
3.86848
-3.91306
0.0445798
2.04272
-0.579962
-1.46276
0.79921
1.24351
1.49201
1.37109
0.18704
-0.210623
0.0235829
3.25932
-1.4416
-1.81772
2.81084
-2.0001
0.357929
2.5144
-2.87233
1.99271
-3.29505
1.30234
3.66715
-2.25357
-1.41357
-0.798957
-1.54675
2.34571
-0.158103
-0.564859
0.722962
-0.603578
1.95302
-1.34944
-1.22643
-0.390901
1.56372
1.86934
-3.43307
2.78782
1.08735
-3.87517
1.94211
-2.48915
2.94362
-2.94053
-0.00309623
-0.068992
-0.307616
0.376608
0.0921996
2.85142
0.115242
-1.5893
1.47406
1.31978
-0.0601272
0.953177
-1.68721
0.734032
0.977396
2.00799
-2.98539
-0.127869
0.833907
-0.706038
-1.05763
0.0368469
1.02078
1.51277
-0.663164
1.75354
-1.81387
0.0603231
-0.677595
0.549727
-2.18229
1.57871
-0.507891
-1.67017
2.17806
0.2428
-0.257685
0.0148854
1.61235
1.16688
-2.77922
3.15258
-1.58886
-1.78654
3.39889
1.04122
-1.32674
-0.393244
0.0195154
0.373729
2.74572
-3.34703
0.601312
3.06507
0.479838
-3.5449
1.30172
-1.2607
-0.0410171
1.09318
-0.977936
-3.24247
0.376412
2.86605
-0.0607347
0.92952
-0.409295
0.721649
-0.312354
-0.747989
-0.697889
1.44588
-2.37951
0.052865
2.32664
1.39861
0.501753
-1.90037
-1.25223
0.920139
0.332091
-2.56866
0.525874
2.04279
1.35994
-0.299885
-1.06005
0.699763
-1.09493
0.395167
-0.48036
-1.15604
1.6364
1.07084
-1.14681
0.0759734
3.70576
-2.83125
-0.874515
-0.293001
0.074096
-0.384384
-0.375848
0.760232
2.09641
-1.0314
0.0801783
-0.115849
0.0356706
2.88823
0.261468
-0.726132
-0.95449
-0.98993
0.605546
-1.23384
4.02165
0.243914
-0.653209
0.117214
-0.0370356
0.537196
1.92817
-2.46537
1.58933
-4.1439
2.55457
-0.206204
-0.874995
0.745875
0.12912
-0.504232
0.632774
-0.128542
2.05327
-1.94131
-0.11196
-0.907319
0.749217
3.50417
-4.10084
0.596662
-0.479058
0.658431
-0.179373
0.0939804
-0.608091
0.51411
1.53057
-0.224307
3.32226
1.09984
-2.00121
1.49332
0.377677
-2.80468
2.427
-1.19946
2.85728
-0.372924
0.303931
-1.4151
1.14868
0.26642
-2.74185
0.191961
-1.0739
0.881935
2.11013
1.55701
1.78159
-2.44667
0.665085
2.32684
0.230775
-2.55762
-4.10987
3.09664
1.01322
1.76014
-0.689263
-1.07088
3.64263
-1.5325
-0.15628
-0.0543432
0.705754
-0.481736
-0.224018
-0.0891718
0.0547675
0.0344043
1.73259
1.18206
-2.91465
1.88299
-1.57148
-0.311513
-0.366398
-0.0257708
0.392169
-0.624094
-0.250901
2.97419
-2.59651
-1.19817
1.24597
-0.0477975
1.44718
-3.0444
1.59723
1.03481
-1.83376
0.993941
1.24072
-2.23466
3.80481
-1.05909
3.72733
-0.538102
-3.18923
1.6178
-1.63966
0.0218616
2.17978
-1.22941
-0.950369
-0.473791
0.42427
0.0495209
-0.221143
3.00533
-2.78419
2.53364
-1.49133
-2.45897
0.055499
2.40347
-1.80792
1.36623
0.441686
3.62528
-0.56021
0.233222
1.0685
-1.8759
2.14724
-0.271341
-2.42768
2.7209
0.0306592
-0.76239
0.73173
0.670932
-1.2907
0.619772
-0.0673538
-0.680972
0.748325
1.73033
1.02299
-2.75333
3.79317
-1.86748
-1.92568
-0.812746
0.745392
2.51894
-2.50258
-0.0163665
0.407944
-0.0748026
-3.48741
-1.30283
1.69597
-0.393145
-1.71739
1.39066
0.32673
-0.0190997
-0.238654
0.257754
1.21082
0.968955
-0.0567249
-0.032447
0.333238
0.372515
-1.94457
0.0686759
-2.2547
2.77851
-0.523808
-2.32665
2.40531
-0.0786587
1.89529
-3.27106
1.37576
-1.66084
0.902639
0.758198
0.982866
-1.21619
0.233327
2.75318
-0.214777
-2.5384
-0.100868
-2.22084
2.32171
-1.54096
2.5349
0.669374
-1.89383
1.22446
-0.406129
3.9103
-2.46295
1.93944
0.523505
0.267534
-0.329834
0.0623001
1.33758
-2.88489
1.54731
-2.88842
1.17097
-1.64427
-1.78004
3.63174
-2.50936
-1.12238
-1.09977
1.12047
0.600855
-0.642174
0.0413198
-0.732338
-2.09049
2.82283
-2.67943
3.89859
-1.21916
4.00553
-3.50973
-0.495799
-0.143178
-0.478432
0.62161
-1.97211
-1.74689
3.719
0.284042
-0.494964
1.01873
0.741413
-2.01876
-0.62747
2.64623
0.423963
0.107138
-0.531102
0.191928
-1.49476
0.763132
-1.67169
2.44038
-0.113539
-0.59761
0.479205
-0.682438
0.835501
-0.153064
-1.51434
3.24467
-3.97502
2.00291
2.8494
-1.95595
-0.893454
-2.32639
0.575087
1.7513
0.763713
3.24182
3.08931
-1.75173
2.5743
-3.99298
1.41868
0.464469
-2.28324
1.81877
0.285459
-1.4602
-1.59045
2.12765
1.81921
-2.58795
-1.14208
-1.93294
3.07502
-4.09665
1.93722
2.15943
-0.327192
-0.925039
0.611106
0.57612
-1.18723
1.63942
-0.490504
-1.14891
-0.0684249
-2.08159
1.86044
-0.909548
-0.288625
1.7744
1.9212
-2.06545
0.144247
-0.042552
-0.510655
0.553207
1.79078
0.265078
-2.05586
1.76907
-1.45061
-0.318462
0.632773
3.20877
-3.84154
-2.54576
1.79778
1.9582
-1.28882
-0.277039
1.06781
-0.790773
2.59647
-1.14929
0.444114
-0.0335199
-0.410594
1.4254
-0.499788
-0.92561
-0.4943
0.514145
-0.0198444
3.78118
-2.64515
-1.13603
0.8488
-3.52823
-0.548103
0.0538033
-2.50761
0.557442
1.95017
3.65334
-1.55251
0.665417
-2.92012
5.46677
-3.67279
-1.79398
-0.0636874
0.487651
3.67393
-3.00588
-0.668052
-1.82735
0.213479
1.61387
-2.89008
2.78214
0.107938
1.32335
-2.86097
1.53762
0.0684343
-0.00687928
-0.0615551
-1.4591
1.70268
-0.24358
-0.524004
0.21157
0.312434
-0.611589
0.132531
-0.609568
0.105337
-1.80544
-2.33845
3.31328
-5.09705
1.78377
1.11951
0.254252
-1.37376
1.78556
0.372032
0.525286
-1.66737
-0.00501992
0.675952
1.69936
1.95399
-1.68105
0.304619
1.37643
2.50356
1.17037
1.46641
0.226447
0.145218
0.974293
-1.02382
-0.137681
1.1615
-0.0739064
0.34144
-3.04162
3.6744
-1.68791
1.80841
-0.120504
-2.8959
2.77745
0.118446
1.42443
0.800718
-2.22515
-0.284014
-0.559294
0.843309
2.23128
-2.55157
0.32029
-2.16049
-1.93616
2.95883
-2.22512
-0.733705
-0.406152
0.3636
2.99921
-1.67586
-2.14521
5.45848
2.02794
-0.937986
-1.08996
4.36263
-1.97861
-2.38402
2.27184
-0.712972
-1.55887
1.21354
0.814403
2.7948
-1.68014
-1.11466
-0.68144
2.50386
-1.82242
-0.0167731
-1.65596
1.67273
0.40585
-0.024832
-0.381018
0.158973
-0.0660467
-0.0929259
3.29745
-2.90147
-0.395979
-2.24689
-1.86298
1.79373
0.127472
-2.61434
-0.281564
0.156587
1.26881
2.06094
-3.08424
1.0233
0.0115279
0.589327
-1.60299
3.33558
1.19071
2.59047
4.04397
-2.7434
-1.30057
-2.72932
2.10185
1.92509
-2.7912
0.866106
-1.85129
-0.294992
2.14628
-1.04514
-0.543442
1.58858
2.16241
0.356535
2.8036
0.045803
1.04243
-0.598963
-1.40158
-0.765302
2.67614
-1.91083
-0.815357
0.132919
-0.706053
0.429014
0.248279
-3.13836
-0.667929
-1.87783
2.0785
-0.73002
0.937109
-0.207089
-0.0352034
0.967649
-1.31347
0.805383
0.508083
1.60323
0.45004
0.766108
-0.115943
-0.650165
1.32664
0.556349
-0.946979
3.00792
1.76984
-0.371223
-0.808438
-1.51795
5.46205
-3.05804
-2.40401
2.74623
-3.29143
2.34038
0.951054
2.3447
-2.66001
0.315313
-1.52077
1.04041
-0.495236
0.128838
-1.02231
-1.54635
1.11775
-1.88329
0.765541
1.36859
1.4262
1.62161
-2.5034
0.881789
0.950748
-1.88168
0.930928
-2.92324
0.543729
0.0875687
1.27237
-2.33186
2.2959
0.0359638
-0.567332
1.01469
-0.447359
-1.70226
-0.100444
-0.450664
-0.81652
1.26718
0.440341
0.000267617
-0.440608
-1.05852
-0.749398
0.959457
1.40842
-2.36788
3.29195
-0.788388
2.42042
-1.34918
-0.171595
1.68486
-0.734112
-2.22284
-0.240104
0.156773
-0.34146
0.184687
2.01978
1.23954
-1.6825
2.51532
-0.832817
-0.482412
0.582465
-0.100053
1.69039
-0.0509721
-2.36645
-0.717786
-1.72979
2.97077
-1.24098
1.55891
-2.51858
0.959672
1.03069
1.92814
0.260253
-0.319347
0.0590936
0.433904
-2.28519
0.168448
0.242373
-0.410821
0.135291
0.107509
-0.361624
2.14321
-2.84039
2.17246
-1.61924
2.08371
0.463294
-2.82068
-2.2182
1.95489
0.263316
2.11216
-0.550779
-1.56138
2.86759
-0.636315
-1.83665
-3.22434
-0.805023
1.39881
0.565117
-0.176102
-0.389016
1.01438
-1.14218
-2.48006
2.11844
3.02727
0.84121
-2.60742
0.92492
1.93393
-0.140196
0.443963
0.076899
-0.520862
-0.0803571
-1.58594
1.66629
-2.68969
0.47056
2.21913
2.50177
-2.50177
-2.36569
3.22233
-0.856641
0.65472
0.111388
1.5085
-0.932411
-0.576093
-2.99446
3.11017
-0.115716
1.20977
-0.117148
-1.09263
0.957148
-0.266951
-0.690197
0.511649
-0.795663
0.408838
3.16597
-5.31118
-2.31929
2.76351
-0.444211
-0.945173
1.90463
0.0842367
0.0120732
-0.0963099
-0.876807
1.55036
-0.673554
-1.17373
1.45919
3.67015
-2.67837
-0.991776
-0.37682
-1.43323
1.81005
-0.889824
0.925503
-0.0356782
0.634971
-0.923382
0.288411
-2.98975
3.12737
-0.137616
-0.779857
-0.279063
0.0953656
0.348597
-0.00100465
-0.127843
0.128848
1.78523
1.51222
0.12461
-0.0403738
-0.364244
-0.538
0.902244
-1.64485
2.61764
-0.97279
-0.00984023
0.602959
-0.593118
1.52989
-1.06632
0.829353
0.0527645
-0.882117
0.275653
-1.43169
0.670592
2.08259
1.5139
0.874786
-2.38868
1.58291
-1.1518
-0.431116
-3.035
0.576031
-0.941063
0.508968
0.432095
1.05171
2.07013
-3.12184
-2.01924
1.72425
0.213171
-2.74651
2.53333
-0.525226
0.382049
0.255151
-0.32301
0.0678584
0.126441
-1.15026
-0.477151
0.243213
0.233938
-2.13826
-0.369348
1.8273
2.1712
-0.664712
-1.50649
-0.549316
0.0669044
0.33356
-2.01127
1.67771
0.626393
1.42829
-2.05469
0.888345
-2.07994
2.42104
-0.341097
-2.25891
1.57747
0.192456
0.080286
-1.13566
-0.581736
-0.960489
0.198583
0.761906
-2.82184
1.177
1.86499
-2.24181
0.345498
1.58843
-1.14641
1.09952
0.0468875
0.762692
-2.8918
2.12911
0.691146
-0.987306
0.296159
0.663608
-3.03006
-2.04606
-0.280594
-1.17373
0.1161
0.0837995
-0.287259
0.203459
1.50966
0.047923
-0.0818437
0.0339207
2.93043
-1.87872
-0.690933
2.80044
-2.10951
0.859886
0.705664
-1.56555
-1.00132
0.476092
-0.869799
-0.0906906
0.835446
0.673058
-2.1711
-0.633578
0.43514
-0.278368
1.74199
1.45505
0.314789
-2.47402
2.83195
0.11324
-0.996208
0.882968
-0.278927
-2.47085
2.74978
0.0149774
-0.0909999
0.0760226
-0.719218
-0.941619
-1.2991
1.28232
1.66174
-0.0439411
-0.940868
-0.372598
-0.0920461
-1.35408
1.44612
2.74856
-0.853268
-0.124379
-1.35558
1.47996
0.0267205
-1.06008
1.03336
-1.86357
-0.0505916
1.91416
1.35363
-2.79523
0.0239645
0.385204
-0.409169
-0.785646
-0.104179
0.649918
1.17934
-1.82926
0.511001
-0.61823
0.107229
2.06022
0.0725705
-2.13279
2.37618
1.32958
0.416556
0.023785
-1.78682
-2.08841
3.87523
2.75679
0.217399
2.50069
-1.8743
-1.25883
0.808166
0.0509376
0.108035
-0.725806
2.6509
0.310162
-2.24528
1.93511
-0.309821
0.768263
-0.458442
-1.04733
1.76601
-0.718687
1.12774
-1.03304
-0.998143
2.03119
0.110453
-0.144242
0.0337888
-0.804578
-1.48451
2.28909
0.587901
-1.46471
0.254246
-0.273346
1.54526
-2.34984
-2.05374
-0.701412
2.75515
-0.00565567
-1.63386
1.63952
1.04786
3.07906
-3.23154
0.152481
0.701385
-0.23612
-0.465265
-0.0421307
-1.10427
0.734912
0.901488
-1.18666
0.141518
-2.38547
2.98316
-0.59769
-0.525596
-1.16231
2.55664
1.24817
-2.96544
-0.947614
-0.11372
0.0323738
0.0813464
1.59483
-0.13978
-0.746938
0.817264
-0.0703261
-0.420395
-0.103609
-3.8601
2.21582
2.53273
0.480097
-0.201983
0.836954
-0.763785
1.62367
5.00344
-1.83747
-0.764517
0.0175785
-0.438569
-2.04149
0.648649
0.851057
-0.820398
-2.7666
0.0769092
-0.143913
0.76214
-0.0709931
-3.43122
0.481097
2.95012
1.37983
0.373713
0.753919
-0.289322
-0.464596
1.03837
-0.933498
-0.10487
-2.37126
1.37977
-3.31245
1.58266
-0.861882
1.67407
-0.812184
-0.116835
-0.117493
0.234329
2.96504
-0.0735991
-2.89144
0.699931
0.0553974
-0.755329
-0.480936
-0.934168
0.838637
-0.138874
0.329239
-0.325259
-0.00398065
1.40948
-0.146602
-1.26288
-0.00478593
0.334025
0.0120956
-2.84335
-0.0937416
-0.536457
0.630199
-3.0334
0.647932
-0.074683
-0.411813
-0.578117
0.331676
1.83952
0.081395
-0.086415
0.828197
0.607535
-1.43573
-0.761205
1.71438
0.970057
-0.856817
0.788965
-0.694985
0.434759
-1.00209
1.61961
-2.43326
0.813645
1.78207
-0.352604
-1.42946
-0.593027
-1.04664
0.218353
-0.46407
0.245717
0.820127
-1.02064
0.200513
3.2562
-0.0901703
-3.16603
-0.288841
-0.19901
0.48785
-1.57269
2.21286
-0.640178
1.59963
1.43838
-3.03801
-0.00476118
-0.302855
-0.971552
1.50266
-0.531112
0.787655
0.310066
-1.09772
-3.20923
2.11309
1.09613
-0.28643
-0.0388288
-2.54842
0.49468
1.1102
-0.62891
-0.481293
1.17725
-1.68299
0.505742
-0.4039
-0.641928
0.313557
2.7655
2.49244
-0.505645
-1.9868
-2.35554
0.275592
0.97461
-1.78305
3.12718
-5.25129
2.12411
-0.399596
1.0107
-0.0327475
-1.0419
0.677652
-0.566965
0.758925
-0.628354
-3.11071
3.73907
1.66997
1.32924
-2.21029
2.36721
-0.156918
0.239
-0.155201
-1.76051
-0.48967
-0.446854
0.502982
-0.0561284
1.04359
0.440914
-1.4845
0.284227
0.660575
-0.944802
-0.391451
1.5687
-1.17933
-0.964736
2.14406
-2.52954
-0.771685
3.30122
1.24006
-1.15469
-0.0853779
-0.875165
0.0767855
0.798379
-0.402932
0.0311444
0.371788
-2.73795
0.10883
2.62912
0.0573089
0.716058
-0.773367
2.2636
-2.51708
0.253486
-1.26004
2.24393
-1.14975
-1.09417
0.0477078
-0.494562
-0.650286
0.300643
0.349643
3.55192
-3.95805
-2.83975
2.48424
0.35551
0.612907
-0.101906
4.25043
-1.6938
-0.280821
-0.337549
0.61837
-0.0447795
0.619345
-0.574566
-0.447764
2.03174
-1.58398
0.780577
0.0594888
-0.840065
3.02783
-2.88571
-0.14212
1.92201
-0.817092
-1.10492
0.114927
-0.821187
0.70626
-1.02678
-0.0471198
-3.22504
2.80315
0.421894
0.119735
-3.34477
0.272348
1.06644
-1.33879
-1.42327
-1.4782
0.770844
-0.594153
-0.176691
-2.36017
-0.673234
-0.713424
0.516462
0.196962
1.11027
0.658805
-2.95742
2.81184
0.145576
-0.311038
-0.115512
-0.142173
0.759725
-0.0597932
-1.62361
0.164509
0.627869
-0.654643
0.0267741
-1.0935
-0.657468
1.75096
1.32247
-0.112696
-0.763926
1.50155
0.188838
1.12272
2.17351
-0.439503
-1.73401
-0.397042
1.37991
-2.1102
1.34811
0.762096
-0.310672
0.0242418
2.93407
-1.2641
2.39081
-1.62812
-0.376673
-0.571211
0.947884
0.63835
-3.26709
2.62874
1.84305
-1.84871
2.26006
-2.3469
0.0868395
-0.0229025
-1.7601
-0.350103
-1.27384
3.14778
-1.87394
0.295252
-0.82694
3.40124
-3.1117
0.751534
0.441154
-0.0353045
-0.41081
0.00349372
0.530124
-0.0159794
-3.36555
0.218576
3.89807
-0.745489
0.207146
0.424957
-0.632103
0.123255
0.833894
-2.256
-1.68175
3.93775
2.25657
-0.0941564
-0.0245201
-0.534769
0.559289
2.46327
-0.164302
-0.133499
0.2978
-0.646052
2.26566
-1.09352
-2.81566
0.496365
-0.780717
0.0458307
0.734886
3.41687
2.04991
1.03591
-1.83646
0.800547
2.88846
0.139372
1.94097
-2.74202
0.801057
-2.40821
0.0334626
2.37474
-2.6157
3.33417
-0.718468
0.534156
-0.0266014
-0.507555
-0.263556
3.81548
-1.54682
1.19378
0.353047
0.134927
-2.34522
2.68691
-1.14467
-1.54223
-2.67905
3.46284
-0.78379
-0.742318
1.86009
-1.11778
3.48743
-1.54318
-1.94425
0.169788
-1.79814
1.62836
-0.302264
-0.0207453
-1.18491
2.78455
0.763418
-3.12911
2.4074
-0.848492
-0.655585
0.561843
-2.47455
0.066347
2.64473
-1.02312
0.119532
-3.362
0.926961
-0.0521049
2.09875
2.00386
-4.10261
1.657
-0.563202
-1.0938
1.07102
-3.07996
2.00893
-0.609802
0.032908
0.576894
-0.674607
-1.57394
2.24855
1.17049
-0.735727
-1.56898
2.83437
-1.26539
0.403842
0.544786
-0.948628
0.25123
0.519614
-3.35536
3.89959
-0.544227
0.176714
-0.161737
1.40303
0.741017
-2.14405
1.27181
1.75061
-3.02242
0.684147
1.42801
-0.0474123
3.77474
-0.0476846
2.38144
-2.33375
0.0435422
-0.0533824
0.169178
-0.0101796
-0.158999
2.4964
-2.60626
0.109859
2.56891
-0.30885
-0.128545
0.048603
0.0799424
-0.669213
2.28383
-1.61462
-0.0425684
0.6773
-0.634731
-0.376538
-2.41525
2.79179
-0.151594
-1.67317
1.82476
2.15604
-0.365256
0.686299
0.9707
1.39042
-2.25147
0.861052
0.95463
-2.38786
-0.449184
-0.0190753
0.468259
0.651316
-0.0848402
-0.566476
-0.0779739
-0.22429
-0.12848
2.08385
-1.95537
-0.51478
3.02918
2.16484
-1.90108
-0.263759
2.0472
-1.54544
-1.39216
0.634569
0.757586
0.0771546
-1.00957
-1.33202
1.19251
0.139516
0.260766
0.493152
0.453746
2.17723
-2.63098
0.816821
0.592657
0.395319
-2.92485
-1.62145
0.463895
1.15755
-1.15486
-0.743031
1.89789
1.6814
-0.853204
-2.52014
1.57497
0.906691
-0.713274
-0.193417
-2.7539
4.62407
-1.87016
-1.28566
1.56132
-1.84022
1.94479
-0.104571
-1.81341
4.13743
-2.32402
-0.0705682
0.745745
-0.675177
0.169567
-0.286402
-2.30948
-1.63356
3.12938
-1.49582
-1.67535
2.25044
1.45309
-1.70094
0.247847
1.04794
-1.22608
0.178139
-2.84268
1.76119
1.0815
-0.0811284
0.239501
-0.158373
-0.0122461
1.49888
-1.94665
3.07306
-2.43471
-0.202305
-2.0159
-2.11776
2.07007
1.26021
0.130458
0.794598
0.405044
-1.19964
-1.14718
1.0754
0.0717788
2.36443
-1.24068
-1.12375
-1.28589
1.4795
-0.193609
-2.16396
-0.223359
2.38732
-1.9764
-0.594333
2.57073
1.20775
-0.159808
2.19183
0.304572
-3.46185
1.39401
2.06784
0.666921
-1.16119
0.494273
0.022972
0.705307
-0.862472
0.157165
-0.232968
-0.0206149
-1.26528
0.509636
0.717155
-0.602228
-0.126205
1.16979
-1.21203
0.522766
0.102141
0.968695
0.498923
-0.453414
-0.0455098
-2.33621
-1.89529
4.23151
2.26538
-0.874961
-1.44328
-0.129434
1.57271
0.351592
0.719524
-1.07112
-0.0180922
3.31791
-2.13685
-1.18106
0.616332
1.87611
0.17964
-0.156574
1.27502
-1.11845
-1.8361
3.02498
-1.18888
-1.58705
-0.60271
2.18976
-1.5444
0.572848
-0.864425
-0.527731
3.14447
-1.46326
-1.68121
0.341835
-1.33266
0.990827
0.859853
0.382761
-1.24261
-0.628977
0.686286
0.748454
-0.613531
-0.134922
0.921173
-0.0855545
-0.727192
-0.0396636
1.77118
1.37329
-0.755587
3.56081
-0.778552
3.36201
-0.513893
0.855728
-2.32262
0.735567
2.27307
-1.83916
-0.462194
-2.07767
0.504983
1.21768
-0.94533
1.84857
-1.92893
2.50819
-0.163494
-0.628991
-0.465939
-0.410617
-0.33264
0.743258
-1.03152
-0.115295
2.32497
0.396059
-2.72103
-0.157944
-0.752282
0.910226
-0.310332
2.41347
-3.45592
1.04245
2.40377
-0.140175
-3.8589
4.32057
-0.461674
0.638226
-0.60138
-2.34738
-0.495308
-0.691439
2.85438
-0.0512381
2.24953
2.90391
-1.20393
-1.69997
-1.68275
-0.169632
1.85238
0.638122
1.17866
-1.81678
-2.15004
0.286469
-0.61987
-0.0873198
0.70719
-1.44153
1.7517
0.568581
1.34997
-1.91855
-0.638329
0.792556
-0.154227
-2.55265
0.273293
2.27936
0.070189
3.00287
-0.874837
1.30053
0.621481
-0.505696
-0.435367
3.19701
-3.73511
-1.18772
0.449674
0.738047
0.326934
-0.331695
2.02267
0.0178866
-2.04056
2.57386
-3.35241
-0.00701614
0.0754505
-0.562445
0.725743
-0.163298
-0.175383
-0.474903
-0.0848416
0.978736
-0.893895
-0.493033
0.257255
0.235777
1.03353
-1.75275
-0.908771
1.88338
0.57737
-1.43925
-0.549844
0.597552
0.0186596
-1.46927
0.134409
-0.141288
-0.678742
0.64868
0.0300623
0.724603
-0.794794
0.0701911
-2.00987
3.17675
0.224468
-1.66775
-0.12198
-0.977786
-0.181536
1.78594
-1.60441
1.08838
-1.22606
0.130481
-1.68665
1.55617
-1.57274
4.65224
-3.07949
1.996
-2.7613
1.05697
-0.0651737
-2.77458
0.80274
3.09533
-2.09636
-0.423781
-1.14153
-2.1499
-1.41137
0.594854
0.314585
-0.0425752
-0.27201
5.20927
-1.79241
-0.139229
0.307677
-0.741968
-0.563539
1.30551
-3.11838
1.51086
1.60752
-0.504659
0.232148
1.21112
1.0328
0.572578
-0.301663
-0.827042
-0.350113
-1.19671
0.588582
-0.468881
-0.119701
-0.37321
2.69818
1.03642
0.0646341
-1.10105
3.00398
-3.30878
1.56888
1.7399
0.542983
0.894322
-1.4373
-0.340558
-1.1118
1.45236
-1.75108
1.00877
-0.668478
-0.230034
1.08989
2.64271
-2.92164
1.37874
-0.591085
-1.03488
1.98951
-2.04845
1.3636
0.684848
-0.0587614
-2.6286
2.68736
-1.95842
2.22403
-0.265603
0.914271
-1.31131
0.0440663
0.396411
0.843653
-1.61292
-1.73411
2.55718
-5.87739
2.12931
3.74808
0.677228
-2.35998
0.505037
0.0447154
-1.87206
0.370488
2.02219
3.11065
-1.12019
-1.99046
-1.45652
0.792708
-1.94756
0.585301
-2.62306
2.45343
-1.79172
0.758674
1.33697
-0.871962
0.338536
0.533426
-3.30952
1.50084
1.80868
-2.66862
-0.913289
0.94001
-2.98667
2.13913
0.847539
3.6933
-3.95685
-3.32893
-0.0264281
5.15336
-2.02618
2.59977
-1.5573
-1.04247
-0.082442
-0.522524
0.604966
-0.24543
0.400937
1.5202
-0.613159
-0.258803
0.33325
0.837236
0.474422
1.21422
-1.68864
1.299
-0.722879
-0.147987
-2.70428
2.85227
-1.06599
0.682729
-2.22369
-1.80265
-1.30136
3.10402
0.808215
-1.1081
-2.19234
0.705289
1.48705
-0.119068
0.529003
-0.409935
3.05359
-3.68195
0.16748
-0.729925
2.19968
0.121614
-2.32129
-0.206237
0.413383
-2.5446
0.770957
1.77365
-1.86244
1.71084
1.22409
-3.06018
-0.317479
-0.870242
-0.0310261
-0.0880419
-0.478531
0.16871
-1.69592
2.29543
-0.599518
0.374786
0.302865
-0.677651
-1.80599
-0.0358841
-0.694136
0.136158
2.36561
0.477835
0.10463
0.216194
0.832725
-0.178005
1.49563
1.72535
0.639087
-2.75275
-0.204662
-2.78818
0.264654
-3.27053
0.611988
0.60209
-1.21408
2.70791
0.127366
-2.83528
-0.402816
0.376215
-1.11385
-2.1986
-2.22431
-0.435706
-0.933961
3.50782
-0.997904
1.51253
-0.514622
-3.33547
0.999256
-1.00713
1.48155
-2.90823
-0.522987
-1.50987
-0.633276
0.866603
0.481422
-1.57492
3.31277
-0.458384
-0.205402
-0.305861
0.511263
0.422738
0.645073
0.90389
2.93425
-2.72107
-0.227953
-0.706389
1.10156
-1.35051
1.65513
-1.50575
-2.98785
0.717041
0.575753
-1.29279
-2.55053
0.0487631
-0.486819
2.32802
-1.8412
-0.228671
-3.63023
-1.81355
2.07862
3.68962
-1.75467
-1.93495
-0.155382
0.664349
2.35374
-0.799528
-1.55421
0.874833
-0.960388
0.100107
0.0690714
-0.318184
-0.15349
0.471673
-0.375231
1.16983
-0.389405
4.0827
0.0148033
-0.608956
-0.826212
-0.382765
1.20898
-0.178359
3.23195
-1.07089
1.06474
0.00615245
-1.17378
1.8237
1.03059
1.25324
-1.3362
-0.28525
1.72032
-0.641056
-1.07927
-0.116078
0.0635833
0.0524951
0.254718
-1.94145
1.68673
-2.69712
0.472809
0.710608
-2.90566
3.17031
-0.0241308
0.898964
0.530781
-1.52868
-3.44506
2.64004
-2.70201
0.834524
-1.48619
0.312452
-0.937667
-1.80223
2.73989
-2.72407
0.121034
0.299914
-0.420948
2.39419
-2.01778
1.9494
-1.31128
0.248009
1.62497
-1.87298
0.266136
-0.886007
-1.06323
-1.96078
3.02401
-1.3692
1.66904
-0.299834
-1.75581
2.85907
-1.10327
2.38057
-2.06646
-0.314109
1.57843
0.0580088
-1.63644
-1.27449
-2.0343
-0.926114
-0.247615
1.71483
1.9278
-0.0231146
0.370782
-0.347667
-1.9841
-0.560506
1.70305
1.61918
-1.58881
2.03358
-0.44476
-0.307801
0.174302
0.19953
0.973005
-1.17253
0.940701
0.0957177
-0.284765
-2.70191
-3.66125
0.936664
-0.0299731
-1.01705
1.78019
0.275412
2.01645
-2.29187
-1.4853
-0.138309
0.974311
2.31764
0.230621
-0.854715
0.662228
-0.435583
-0.226645
0.127035
-1.12913
1.0021
1.98436
-1.18364
2.0808
2.61291
-1.24432
2.32313
-1.6404
-0.418705
-0.787375
1.20608
2.10847
0.395384
-0.106112
-2.11943
1.44482
2.39042
-2.56878
-1.07861
-1.91495
2.99356
-1.52175
-1.59663
-2.64893
2.62972
0.0192162
1.47683
-0.804732
0.472092
1.70979
0.903122
-0.644723
-0.723406
1.36813
-0.555292
-1.25858
-1.74962
-1.20148
2.9511
2.26487
-0.00830256
0.112291
-0.561475
1.68048
-2.79433
1.0841
-1.04165
-1.93915
2.79219
-0.853046
1.17826
1.19204
1.17061
-2.36266
2.82395
-1.58099
-1.24296
-1.61999
-1.75811
2.40016
-0.642054
0.0177212
-0.223123
-0.9376
0.913469
1.21912
2.2683
-0.715928
0.633486
0.0833966
-0.0354736
2.69717
-1.51511
2.53429
2.67498
-1.33002
0.763061
0.566958
0.632273
-1.00895
2.03064
-0.00797531
1.16082
1.43895
-1.77727
-0.199251
1.97652
0.624673
-0.0451837
-0.579489
0.595166
0.106219
0.384163
-2.99986
-0.917866
1.04431
1.85151
-1.77079
-0.0807187
0.537332
1.18299
-0.53452
0.245198
0.867211
0.697692
-1.5649
-0.914654
2.85677
0.405881
-1.03083
2.61661
-1.58578
-0.513684
0.917526
-0.507476
-0.130854
3.0704
-1.5778
-1.03654
0.709059
-1.04962
0.979194
-1.10117
-0.586829
0.51626
-0.880874
-0.507249
-0.0420674
-0.0114233
-0.561569
2.31321
-1.75164
0.132398
-0.133403
-0.678524
0.340975
-1.10423
0.178116
-3.79211
2.00529
0.798593
0.704072
-0.490966
0.623752
-0.132786
0.353917
0.367732
2.03898
1.43371
-3.47269
-0.423328
-0.0268344
0.450162
1.7337
-2.42464
2.55843
1.13119
2.20185
-1.92643
-2.48391
0.1463
-0.0159717
-2.76844
1.23129
0.701143
1.65312
-2.35426
1.26164
-0.173263
-0.0592807
-0.944285
-0.385734
-1.87627
-1.03276
1.10991
2.35577
0.444672
1.52587
-1.41703
-0.108839
0.627316
0.0213641
-0.217003
0.819372
-0.0947693
2.21288
0.531246
-2.74412
0.559842
0.0287408
-0.754549
0.473026
0.281523
-1.10057
-0.0185115
1.11908
0.510416
1.34833
-1.85875
0.684756
0.996645
1.86566
-0.0446112
-0.862708
0.689192
0.143533
-0.777071
1.28143
-0.50436
-3.32965
1.54961
2.3753
-1.8171
-0.558199
0.0511225
-0.50049
0.449368
2.37134
-2.49982
1.39266
0.872211
1.01518
0.934218
-0.502285
-0.00496334
-0.658709
0.0323528
0.626356
-1.25918
-0.436336
2.99734
-1.53873
-1.45861
1.20643
-0.956075
-0.250352
1.3411
-2.17607
0.834975
0.0540502
1.58154
0.103322
0.628139
0.676049
-1.30419
-0.5611
-0.0976096
-2.48754
-0.758514
0.823149
2.33669
0.0182001
-2.35489
-2.47401
0.256814
0.242109
0.0639247
-0.0153217
0.766317
-0.040574
-1.34786
1.63209
-0.00323247
0.306935
-0.126721
0.370635
-1.21296
1.46097
0.0342018
0.816855
0.486126
-0.342756
2.12832
0.030569
1.4953
-0.585306
-0.446442
-0.694484
1.56169
-0.304567
2.21436
-1.9098
-2.18032
-0.368099
-0.624854
2.69453
-2.06967
-0.959814
0.2013
1.00163
-0.189023
-0.0551917
-0.774165
0.829357
-2.37692
0.79912
0.507036
-0.483072
1.97968
-4.23567
2.01692
-4.10533
-0.865247
2.63881
-1.1237
1.60258
-0.904892
0.0365479
-1.55661
1.81133
0.00265137
-0.513307
0.119072
-1.27376
-0.43317
-1.6088
2.04197
1.14847
2.67769
4.4231
-2.88517
-1.53794
-0.694334
0.287354
0.737968
0.0668796
-0.804847
-2.2633
0.567387
0.691111
-0.039795
-0.0160791
-0.451847
0.467926
2.12714
-2.75199
0.282947
1.2408
0.270994
-1.51179
-2.49055
2.18599
0.485447
0.125545
-0.610992
1.67424
-3.3078
-0.496872
0.0080559
0.488816
0.630815
-0.145368
0.0255533
2.0932
-1.40905
1.59917
1.55587
-0.871109
-2.59902
0.796362
-1.7606
1.60849
0.152103
1.79313
-2.87174
-1.50845
-0.8808
2.38925
0.0359696
1.33026
-0.929478
0.81233
2.78242
-0.379871
-2.40255
0.00224136
-2.755
1.42818
0.150252
1.60885
0.744888
-0.539351
0.00458191
0.51009
-0.762727
-1.12056
0.0969339
-0.128241
0.031307
0.0399408
-1.80914
1.7692
-0.272657
1.04509
-0.772437
1.87648
-4.14812
2.27163
-0.0329279
-1.53855
-0.0695873
0.0150902
1.78625
-1.0424
-0.586891
1.62929
-1.20967
-0.92859
1.3769
-0.801151
0.46789
-0.614207
0.146317
0.253522
-0.744488
-2.81285
-0.255112
-0.325455
0.580567
0.736228
0.626329
-1.36256
0.378273
-2.26005
1.88178
0.338853
-1.64647
0.432576
-3.11162
-2.57903
-1.29468
3.8737
-2.52688
0.0924448
2.43444
-2.79133
-2.1634
0.204981
-0.919377
0.925421
-0.00604373
-3.44332
-0.892542
3.10542
1.18602
-0.578489
0.31393
-1.00841
-0.469579
1.46622
0.500608
0.390826
-1.21704
0.056511
-0.485668
0.429157
-0.351688
-0.122103
-0.341496
0.392619
-0.97795
1.52093
-3.37793
1.68754
1.69039
1.1071
1.69651
1.22517
0.691159
-0.0664861
-1.27799
0.633266
-1.386
-0.806343
-1.64366
0.555508
1.08815
0.226013
0.0574317
-0.283445
-1.34979
1.47683
-0.365119
2.11642
0.285098
-1.35599
1.24345
-2.45312
1.22324
-1.35631
0.133074
0.436363
-0.0511594
-0.294394
-0.0249531
-2.73529
1.79762
0.85417
0.352257
0.0435802
-0.62975
0.58617
-3.73378
1.3061
-1.29369
0.793897
-0.601706
-0.0427814
-0.696425
0.739207
-1.69028
0.647881
-2.84857
2.56381
2.70674
-0.507057
-0.766127
0.705239
0.0608878
-0.168278
0.200652
-0.512951
-3.62871
2.80888
0.819829
-0.502661
0.475827
-0.231078
1.09794
-0.86686
2.02304
-0.630381
0.315328
-0.219137
-0.0961912
-0.849815
0.884017
0.178966
-0.0436749
2.09359
-3.79202
2.72734
0.161122
-1.02047
0.322582
2.48682
-0.138958
-2.34786
-0.542181
1.18602
-0.643835
-0.803993
-2.56156
-0.093729
-1.0391
1.13283
-0.0461715
-0.0431599
0.0893315
-2.41725
2.49541
-0.0781574
-0.982205
1.11269
1.29092
-0.510339
3.73793
-1.52412
-2.21381
-0.105985
-0.987847
1.09383
-0.397755
-0.976837
-0.0499385
-0.942355
-0.0344821
0.331715
-0.89104
0.559324
-0.26928
2.5256
-2.25632
-2.34685
0.571103
1.77574
0.770528
2.19451
0.0349013
0.289101
-0.324002
1.62203
0.741148
-2.36318
0.151566
0.163019
-3.31753
1.40456
1.91296
-1.98623
0.208963
1.66246
0.783054
-2.2915
-0.00537462
-0.371074
0.376448
2.54272
-0.815662
-1.72706
1.11945
0.690553
-3.04875
3.26733
2.32676
-2.47475
-1.32444
0.0941697
1.23027
-0.144213
-0.220387
0.389117
-0.16873
0.0271306
0.158708
-0.185838
-0.0260958
0.420978
-0.394882
-0.741667
0.637756
0.103911
-1.6412
3.32168
-0.946273
0.854227
0.600278
-0.831356
1.02842
-1.65232
0.6239
-1.11929
-0.929155
-0.433341
0.0304091
0.331637
-0.0137631
-0.317874
3.13225
-2.04505
-1.0872
0.118938
1.73257
-0.749025
-0.398152
-1.73076
0.376685
1.33429
0.512415
-1.84671
-0.0289343
-0.0514241
0.0803584
-0.0485693
1.08694
-0.366464
0.576097
-0.209633
2.9502
-1.80026
-1.14994
-3.72862
0.617913
0.0268888
-0.308034
0.420758
-0.112724
-0.787599
-2.05279
0.546937
-0.95875
-0.323655
0.0292615
-1.7296
2.81455
-1.08496
0.502237
0.0703409
-0.903442
-0.427901
-0.743998
0.758802
-0.489402
0.290392
1.72025
0.219861
-1.94011
1.92313
-1.44827
-0.474862
0.426315
1.55804
0.77838
0.147123
-0.718639
0.590097
-0.32212
-0.938583
0.625624
-0.566135
-1.03417
1.66231
-0.433233
0.464377
0.436909
0.193906
0.0152935
-0.061465
2.24379
-2.34021
0.0964109
3.17689
-1.29366
0.751209
0.542448
0.379632
-1.08602
-2.06191
-2.45251
-0.760569
0.715385
-0.527284
-0.818455
1.34574
-2.27615
0.6008
0.597824
0.624631
-1.22245
-0.136609
-1.23259
-0.407407