/*--------------------------------*- C++ -*----------------------------------*\
| =========                 |                                                 |
| \\      /  F ield         | OpenFOAM: The Open Source CFD Toolbox           |
|  \\    /   O peration     | Version:  2306                                  |
|   \\  /    A nd           | Website:  www.openfoam.com                      |
|    \\/     M anipulation  |                                                 |
\*---------------------------------------------------------------------------*/
FoamFile
{
    version     2.0;
    format      ascii;
    arch        "LSB;label=32;scalar=64";
    class       volVectorField;
    location    "2.7";
    object      U;
}
// * * * * * * * * * * * * * * * * * * * * * * * * * * * * * * * * * * * * * //

dimensions      [0 1 -1 0 0 0 0];

internalField   nonuniform List<vector> 
5098
(
(2.59751 0.776237 0)
(2.21278 0.0110796 -2.83893e-20)
(2.11438 0.0814549 -2.69641e-21)
(1.61579 -0.729319 7.13571e-19)
(1.81877 -0.353758 0)
(0.93829 -0.454985 0)
(2.2768 0.00316637 3.29732e-20)
(2.11857 -0.205132 6.90754e-22)
(2.3449 0.027257 -5.50981e-20)
(2.38919 -0.393062 -2.39236e-20)
(1.54817 -0.74479 0)
(2.33264 -0.0802772 1.65598e-19)
(2.56243 -0.421202 -8.0166e-21)
(1.00472 -0.49257 0)
(1.93038 -0.0825059 3.64592e-20)
(1.99428 -0.0221687 1.35121e-21)
(1.24036 -0.644341 -6.89502e-20)
(1.48632 -0.752194 0)
(-0.56708 -0.163135 5.70194e-19)
(1.11347 -0.573478 7.7839e-20)
(1.86283 0.481902 -7.1049e-20)
(1.92481 0.033173 3.79786e-21)
(2.17125 -0.83756 0)
(0.860169 -0.0522516 2.7284e-20)
(0.818946 -0.393294 0)
(1.55095 -0.631856 0)
(1.95473 -0.0489427 1.18764e-19)
(1.9239 -0.819697 1.86644e-19)
(-0.26937 0.263642 -1.72299e-18)
(1.78754 -0.78232 0)
(2.43408 -0.14054 -1.00224e-19)
(0.776657 -0.378814 0)
(1.90844 0.130768 -1.29953e-19)
(1.4319 -0.737012 0)
(2.43169 0.149323 -3.37523e-20)
(3.14192 -0.440577 1.16193e-18)
(1.92123 -0.482132 1.38437e-19)
(1.99515 0.0222324 -3.40022e-21)
(1.4109 -0.485444 5.22752e-19)
(1.4613 -0.676879 0)
(1.62478 -0.742674 -3.35699e-19)
(1.69611 -1.26245 -2.28776e-19)
(1.56806 -0.637912 0)
(2.50109 0.293912 4.72298e-20)
(2.4495 0.522887 3.99145e-20)
(2.06748 0.0598873 7.00961e-21)
(1.31895 -0.665462 2.57787e-20)
(1.17149 -0.40703 0)
(2.45276 -0.148969 0)
(1.61789 -0.693372 7.6083e-20)
(2.27675 0.114854 4.95246e-20)
(1.69722 0.353576 -4.35114e-19)
(-0.415527 0.0477582 -1.48418e-20)
(2.11861 -0.110262 1.67672e-19)
(1.00348 -0.503294 -3.17961e-19)
(1.61536 0.0851808 0)
(1.87394 0.307945 -2.34252e-19)
(1.71941 -0.712742 0)
(0.919084 -0.453348 0)
(1.94729 0.0573804 -1.35287e-21)
(1.80042 0.221179 -2.14627e-20)
(0.643452 -0.316256 -8.57806e-20)
(2.47094 0.208757 0)
(2.53767 -0.419968 0)
(-0.48123 -0.0954039 6.33168e-19)
(0.867603 -0.436854 3.98142e-19)
(2.0019 0.0192402 6.89591e-21)
(2.27367 0.0838499 9.26403e-21)
(2.14127 -0.249431 1.68383e-19)
(1.75838 -0.745696 2.22296e-19)
(1.90321 0.227957 1.6063e-20)
(1.10825 -0.289369 -1.73639e-20)
(1.99468 -0.831277 0)
(1.47271 -0.666439 0)
(1.88331 0.0670416 -9.92821e-21)
(1.18079 -0.578553 -3.64374e-19)
(1.93113 0.129477 0)
(1.56643 0.158995 4.06491e-19)
(2.73105 0.057605 1.78703e-20)
(1.6648 0.172963 0)
(1.78145 -0.0414128 0)
(2.35378 -1.27311 2.42976e-19)
(1.74351 -0.328468 4.8885e-19)
(1.50254 -0.734682 -1.04765e-20)
(1.45249 -0.769017 4.65454e-20)
(1.61753 -0.711131 1.72382e-19)
(0.181859 0.153633 -2.51915e-19)
(1.95579 0.0336167 1.40143e-21)
(2.38045 -0.205282 3.39377e-20)
(1.81439 0.29413 -1.91515e-20)
(2.3243 -0.24776 -7.25082e-21)
(-2.44645 1.33021 1.21865e-18)
(2.40563 -0.114339 -2.00935e-19)
(1.63496 -0.713131 -3.80537e-19)
(1.39793 -0.514137 9.21942e-20)
(0.884224 -0.739046 1.20655e-19)
(1.09902 -0.550908 -3.0533e-19)
(1.58151 0.196714 2.99897e-19)
(1.80535 0.143933 -8.09798e-21)
(2.09215 -0.499754 -1.13336e-19)
(1.73177 -0.621021 -3.96248e-20)
(1.06154 -0.524116 -3.77492e-19)
(-0.00940656 -0.0776864 -1.94766e-20)
(2.08883 0.0917724 -2.13638e-20)
(1.59633 0.130965 -4.62058e-19)
(2.43146 0.954651 0)
(1.91485 0.273591 2.47218e-19)
(2.0808 0.0500955 1.46723e-20)
(1.11465 -0.454252 7.12403e-20)
(1.55553 -0.752267 0)
(1.10442 -0.531764 -8.1883e-19)
(2.24213 0.694468 8.35356e-19)
(1.93228 0.0146035 -2.47563e-19)
(-2.12515 0.516248 2.22301e-19)
(1.85959 0.57395 1.01292e-19)
(0.160911 0.0181222 0)
(2.22561 -1.18605 3.7971e-19)
(2.78609 1.16868 0)
(2.00007 0.0854418 1.9558e-20)
(0.899778 -0.0999392 -4.19375e-19)
(1.73757 0.349089 3.57318e-19)
(1.65503 1.7812 -1.01921e-19)
(2.39252 -0.391973 1.85646e-20)
(1.38262 -1.66688 -2.37604e-19)
(-2.17615 1.00641 -1.93139e-18)
(0.607395 -0.306993 8.64908e-21)
(2.17727 -0.130064 1.44429e-19)
(2.15306 -0.802556 -2.17476e-19)
(1.41991 -0.1951 -1.09918e-19)
(-2.22982 0.692309 -4.87801e-19)
(1.03869 -1.02329 -1.10131e-19)
(1.20693 -0.538201 -5.25275e-19)
(1.23522 -0.537323 4.3982e-19)
(2.66297 1.23848 -1.31014e-19)
(1.57618 -0.595076 -1.08472e-19)
(2.16074 -0.522272 1.56928e-19)
(2.08506 2.2506 5.00074e-19)
(1.911 0.270236 1.67854e-19)
(0.926321 -0.456744 0)
(2.11352 -0.0892197 -5.33478e-19)
(1.61205 0.467134 -2.89932e-19)
(1.38315 -0.337094 4.41882e-20)
(1.83407 -0.834637 3.55604e-19)
(2.27707 0.0722923 -1.48751e-20)
(2.01063 0.00293865 -4.56454e-20)
(2.04323 0.0864005 0)
(2.14095 -0.269615 1.74146e-19)
(1.74156 -0.351436 0)
(2.45226 -0.147132 2.40678e-19)
(1.72135 -0.788389 1.32731e-19)
(1.89945 -0.98391 -1.10045e-19)
(2.82282 0.535713 0)
(1.76072 -0.37745 3.46791e-20)
(2.01488 -0.0304114 0)
(0.168444 0.0756847 -3.14503e-19)
(0.896221 -0.359982 -1.74109e-19)
(1.71985 -0.701315 -3.98907e-19)
(1.72065 -0.61087 -2.75525e-20)
(1.56893 -0.734884 -2.74813e-19)
(-0.23021 -0.0427339 1.74829e-18)
(2.00992 -0.455 -3.75837e-19)
(1.9117 -0.11018 -4.92429e-20)
(2.59804 0.450171 -5.14091e-19)
(1.81714 -0.186704 -3.04503e-19)
(1.43199 -0.706487 -4.38928e-20)
(2.50628 -0.0697417 -9.34961e-20)
(1.80751 -0.36943 -1.20576e-19)
(2.4171 -0.579732 0)
(1.03512 -0.51106 5.41772e-20)
(1.75714 -0.586701 -4.36125e-19)
(0.815721 -0.634339 -8.51726e-20)
(1.62348 -0.664994 -2.59334e-19)
(2.17909 0.493774 8.95746e-20)
(1.91683 -0.791758 3.33266e-19)
(2.44376 0.0121177 0)
(1.93226 0.0199583 0)
(1.78577 -0.327491 -1.8939e-19)
(3.02997 -0.378505 -6.11585e-20)
(1.79888 -0.189551 4.20363e-19)
(0.36454 0.0127044 0)
(2.00128 2.34972 0)
(2.24512 -1.03129 -3.24198e-19)
(1.80075 -0.587339 5.36076e-19)
(1.41756 -0.691246 0)
(1.90358 -0.22997 0)
(2.66284 0.505402 4.91219e-19)
(1.57652 0.224692 0)
(1.95454 -0.465178 4.7553e-19)
(1.03769 -0.507764 7.07349e-19)
(-0.225754 -1.56991 -3.81715e-19)
(2.57011 0.924485 0)
(1.61046 -0.259685 1.14117e-19)
(2.01652 -0.847134 0)
(1.78494 0.0343417 -9.26357e-21)
(2.49439 -0.0734108 1.0459e-20)
(-2.39499 1.15267 -1.18118e-18)
(2.59239 -1.05674 2.58354e-19)
(2.18573 -0.531002 0)
(2.05196 0.00549152 -2.44218e-21)
(1.7763 -0.572986 -7.91826e-20)
(0.885617 -0.902617 -1.90301e-19)
(1.69602 0.307746 5.44381e-21)
(2.43683 0.555731 8.06174e-21)
(2.17925 -0.0169647 4.45398e-21)
(1.63157 0.0635325 1.91487e-19)
(0.860728 -0.360984 -1.24638e-19)
(2.57917 -0.0219436 -1.08687e-20)
(1.26712 -0.590273 0)
(2.18837 -0.102388 0)
(1.33143 -0.645341 -3.66979e-19)
(2.01977 -0.18563 -1.54946e-19)
(1.69131 0.284241 2.90318e-19)
(1.70797 -0.326333 -1.16446e-19)
(2.13408 0.0540408 -1.53179e-19)
(2.04415 -0.0658946 -1.13809e-19)
(1.23837 0.161325 -4.48137e-19)
(1.8692 0.0938033 0)
(1.5458 -0.749961 -8.85305e-20)
(-2.31212 1.39243 2.55338e-19)
(2.03549 0.0209485 1.1183e-19)
(2.36208 -0.2804 -2.68695e-20)
(1.64957 -0.356305 0)
(2.04625 0.0599538 1.61647e-20)
(2.34951 -0.296238 1.38022e-19)
(-1.77928 0.486427 1.94866e-19)
(2.05705 -0.194123 0)
(0.472256 -0.144173 0)
(1.9409 0.0557376 0)
(2.05587 -0.50705 0)
(1.81564 -0.71984 2.97011e-21)
(1.8495 0.402223 0)
(0.660752 -0.289077 -4.54899e-19)
(2.4721 -1.03541 -2.49671e-19)
(2.01133 0.00330289 -2.7825e-21)
(2.44504 0.0708447 -6.15093e-20)
(2.26666 -0.000156038 0)
(1.53981 1.36774 -1.55136e-19)
(0.325513 -1.4609 -7.3356e-19)
(2.56344 -0.38899 0)
(1.82545 -0.0319699 3.00929e-19)
(2.2755 -1.49301 -8.13885e-19)
(2.2338 0.584624 0)
(2.12186 0.0187256 0)
(1.10603 -0.289116 7.67544e-19)
(1.83531 0.433471 -3.7102e-19)
(2.30723 -0.149238 -1.74796e-19)
(1.12784 -0.542683 8.49711e-20)
(1.5516 -0.742191 -6.62518e-20)
(1.41534 -0.72306 0)
(2.27329 -0.113768 4.91283e-20)
(2.263 0.694613 -4.5686e-20)
(1.92991 -0.815858 3.43527e-19)
(-1.00996 1.43537 8.44192e-19)
(0.572376 -1.19397 1.7718e-19)
(1.96134 -0.0100687 -2.26336e-19)
(0.42579 -1.6759 7.38324e-19)
(1.60054 -0.530175 9.40118e-20)
(1.40782 -0.541845 1.096e-20)
(1.20239 -0.426425 -3.22559e-19)
(1.91574 0.065452 -1.03258e-20)
(2.68604 0.457039 7.21617e-20)
(-0.794228 0.0177618 3.94623e-19)
(0.750598 -0.365693 8.35148e-20)
(1.94643 -0.84344 0)
(1.96556 -0.0433063 -8.22276e-22)
(1.11258 -0.526154 3.03092e-20)
(-0.0800178 -0.058242 -2.05308e-18)
(1.52324 -0.740434 0)
(1.08013 -1.2191 0)
(1.85146 -0.0104615 -2.79293e-20)
(-0.25693 -1.15501 4.72151e-19)
(1.93993 0.066113 -3.195e-20)
(-0.0118029 -0.0758126 -9.35171e-19)
(1.75376 -0.861142 0)
(1.21541 -0.489347 2.33999e-21)
(0.350767 -0.23512 8.92412e-21)
(1.644 -1.19299 -1.87629e-19)
(1.95098 -0.881057 0)
(2.31036 -0.735386 0)
(1.99099 -0.161947 0)
(1.04978 -0.931913 -6.40174e-20)
(2.06986 -0.10376 7.08723e-20)
(-1.63757 0.343861 -7.73007e-19)
(2.07942 -0.14239 -7.87818e-20)
(2.12861 -0.56965 -4.14667e-20)
(1.10588 -0.668975 0)
(1.91766 0.0349004 0)
(2.06768 0.0959598 -5.69967e-20)
(2.47615 -0.0432015 7.51623e-20)
(1.8786 -0.0230635 -2.51619e-19)
(1.62191 -1.68482 0)
(0.0164844 1.14436 1.2865e-18)
(1.09986 -0.0816667 -2.25499e-19)
(2.40889 0.463591 2.94791e-20)
(2.02322 -0.64766 3.59921e-19)
(1.76963 -0.316414 2.33975e-22)
(2.37825 -0.0107126 0)
(2.47855 -0.132264 -9.06435e-20)
(2.02305 0.0646649 0)
(2.02741 0.0347624 -1.4539e-19)
(2.04333 0.0786228 4.64069e-20)
(2.36795 0.0367834 7.49366e-20)
(1.66201 -0.455667 5.07899e-19)
(1.90658 0.395492 2.03292e-19)
(0.948491 -0.456289 -4.82573e-20)
(1.85333 -0.762507 -2.11694e-19)
(2.66205 1.69342 -1.51869e-19)
(2.06622 -0.0118453 0)
(1.87102 -0.474161 0)
(1.42349 -0.709198 0)
(2.29511 -0.263789 3.52494e-20)
(-0.743759 1.68236 8.85676e-20)
(0.861198 -0.42876 4.17991e-19)
(1.9166 0.0206854 2.05845e-21)
(2.59666 -0.42372 -3.07109e-20)
(0.236119 0.00644132 6.17419e-19)
(1.97426 2.16266 -5.27971e-20)
(2.13123 0.0343557 -1.46688e-20)
(2.24547 -0.128137 5.06985e-19)
(0.94155 -0.403854 0)
(2.72444 0.0597993 -2.02397e-20)
(0.129379 1.54401 -2.459e-18)
(2.52657 -0.190645 -2.98378e-19)
(-2.13233 1.68865 -4.55182e-20)
(1.92025 0.0933996 -5.75221e-21)
(1.39471 -0.453146 3.51889e-19)
(2.23848 0.68421 0)
(1.99732 0.0856237 -8.60835e-20)
(1.12244 -0.459195 -7.53268e-19)
(1.9832 0.0912407 -1.79766e-20)
(1.32847 -0.64374 0)
(2.24038 -0.112332 -1.49828e-19)
(1.08579 -0.528177 2.36386e-19)
(2.35256 -0.732565 -9.50411e-20)
(1.78346 -0.752198 -3.00625e-19)
(2.37827 0.0960895 -4.68728e-20)
(2.45596 -0.359661 8.98879e-21)
(0.990666 -0.490834 4.61167e-19)
(2.12413 -0.0768622 2.12099e-19)
(1.879 -0.436594 0)
(1.85212 -0.84396 -3.3652e-19)
(1.74 -0.746827 -9.088e-19)
(2.67553 -0.0363982 1.38011e-20)
(2.00195 0.0015282 3.62055e-20)
(2.83151 1.4887 0)
(1.79382 0.0865669 0)
(2.00418 -0.163913 -1.7035e-19)
(1.08939 0.604127 4.22678e-19)
(2.78636 1.09125 0)
(2.33941 -0.0558469 1.47103e-19)
(1.60504 -0.711998 -4.03583e-21)
(0.952386 0.284155 -5.53524e-19)
(0.929279 -0.404208 -4.0235e-19)
(0.940984 -0.896732 6.6581e-20)
(1.89938 -0.0130632 1.72327e-21)
(1.0749 -0.814025 2.12709e-19)
(2.1394 -0.479568 -1.30352e-19)
(2.18083 0.0796167 0)
(1.44116 -0.166705 -9.47833e-20)
(1.17172 -0.131887 0)
(2.00062 0.10233 -4.21239e-19)
(2.04736 -0.450257 0)
(2.24498 0.0257019 -1.35756e-19)
(1.96335 0.0839537 -1.87638e-20)
(2.48454 0.272309 -4.50601e-20)
(1.18967 -0.464327 4.25569e-19)
(1.94495 0.0250784 -3.40637e-19)
(1.94117 0.259633 -3.9177e-19)
(2.06299 -0.884098 0)
(0.62086 -1.8399 0)
(1.26659 -0.506488 -4.19719e-19)
(2.62683 0.304207 0)
(3.29757 0.121027 -8.69571e-19)
(1.8729 0.128953 0)
(1.12332 -0.393289 2.32587e-20)
(0.831585 -0.40367 7.57396e-20)
(1.79066 -0.606476 6.366e-19)
(1.21495 -0.489141 -1.60726e-20)
(2.39197 -0.544159 0)
(1.99172 0.0742219 1.58719e-20)
(1.92351 0.0174321 -2.19749e-19)
(0.648773 -0.33505 -1.02231e-20)
(1.93942 0.0459966 -1.91352e-19)
(2.29228 0.0192614 -5.11069e-20)
(2.3173 0.224892 -3.9571e-20)
(3.18455 0.62893 3.44372e-19)
(2.42536 0.263129 -4.47005e-20)
(0.36548 -1.4589 -9.38891e-20)
(1.74495 -0.524473 0)
(0.0698822 -0.148751 1.43763e-20)
(2.00283 0.105522 -1.47675e-19)
(2.64009 -0.106566 0)
(1.99185 0.0474821 1.28568e-19)
(1.17888 -0.56922 -3.07691e-19)
(1.6901 1.16641 1.32767e-19)
(3.10889 -1.14554 0)
(1.43926 -0.684491 1.12165e-19)
(3.69766 -1.47477 0)
(1.98874 0.0407362 3.45267e-20)
(2.06877 -0.148702 -5.79887e-20)
(1.14605 0.686633 1.19288e-18)
(1.06888 -0.110208 0)
(1.61954 0.226595 2.06218e-19)
(1.90134 0.0808555 1.38181e-19)
(0.355486 -0.142663 0)
(1.78553 0.0635256 0)
(2.01191 -0.224285 0)
(0.157559 -0.0749194 1.00126e-19)
(0.730574 -0.214113 -2.98155e-20)
(2.33529 -0.19877 0)
(1.95815 -0.0225913 0)
(1.45433 -0.35783 3.78225e-20)
(-0.527338 -0.52364 0)
(2.38982 0.397811 8.4662e-21)
(2.91536 0.917699 1.90621e-19)
(2.01948 0.0526871 1.06435e-20)
(1.86339 0.403659 -5.04594e-21)
(0.958075 0.358411 6.36467e-19)
(2.99202 1.13141 -2.08057e-19)
(2.41825 -0.198607 6.18696e-21)
(2.07368 -0.113441 1.41438e-19)
(1.64338 -0.217811 -2.29634e-19)
(1.93851 0.762767 -2.52321e-21)
(2.04189 0.0936121 0)
(1.11966 -0.842684 -2.06379e-19)
(-2.46811 1.13755 0)
(1.13123 -0.601554 -3.72367e-20)
(1.69716 -0.313752 0)
(2.62227 0.481773 0)
(1.33088 -0.636472 -2.51484e-19)
(2.0817 0.0678078 -1.32669e-20)
(-0.272647 0.277914 -1.84755e-18)
(2.0949 -0.0189417 3.13125e-21)
(1.85692 -0.737265 3.41786e-19)
(3.06188 0.783083 2.19603e-19)
(-2.17339 2.01707 2.21642e-18)
(2.04007 -0.00214797 3.1034e-20)
(2.13078 -0.851193 1.25252e-19)
(1.88209 0.0191462 -2.38955e-19)
(3.34457 -1.42722 0)
(1.81513 -0.170614 -4.36958e-19)
(1.84091 -0.510879 3.54857e-19)
(2.02257 0.180128 -5.31513e-19)
(0.946438 -0.498064 -5.6172e-20)
(1.62246 1.17416 -1.27982e-19)
(2.9011 1.02654 2.92644e-19)
(2.42101 -0.61287 0)
(1.87345 -0.052291 0)
(1.59298 0.676688 -7.41171e-19)
(2.05579 -0.0739842 8.96032e-20)
(1.45045 -0.725146 0)
(2.30919 -0.133706 -1.27228e-19)
(1.99078 0.036496 -2.83657e-19)
(1.22916 -0.659919 -3.49457e-20)
(1.53459 -0.752937 1.37828e-19)
(2.38803 0.206196 -4.02537e-21)
(1.60761 -1.29126 8.87299e-21)
(2.43346 -0.355834 -2.61757e-19)
(1.97651 -0.473362 2.46654e-19)
(3.36151 0.58701 7.74675e-19)
(1.58372 -0.656201 3.28656e-19)
(1.99832 0.0336785 -1.62991e-21)
(1.02756 0.215685 4.63395e-19)
(2.12383 2.08651 0)
(1.74303 -0.497674 2.06092e-19)
(1.52619 -0.748587 0)
(-1.83438 0.277845 -2.61744e-18)
(1.89852 -1.21876 0)
(0.626928 -0.289018 -1.89463e-19)
(1.6844 -0.725727 -4.60731e-19)
(2.94423 0.694114 -3.56334e-19)
(2.1218 -0.87018 0)
(1.44978 -0.66379 0)
(2.53211 -0.424283 0)
(1.98622 0.0279443 1.14219e-19)
(3.44801 -1.56437 -1.91868e-18)
(0.106672 -0.0718565 1.32622e-18)
(1.62995 -0.334199 -6.92461e-21)
(3.45887 0.613217 -8.47902e-19)
(2.14273 0.208274 0)
(1.28117 1.8029 2.33788e-19)
(2.55851 1.11861 1.28805e-19)
(2.43621 -1.3284 -5.78346e-19)
(1.59851 -0.744685 2.80878e-19)
(2.74137 0.382372 -8.16218e-22)
(1.19616 -0.581291 5.14876e-19)
(2.19355 0.394834 0)
(1.93293 -0.22682 5.14786e-20)
(1.56535 -0.603432 -3.21954e-20)
(1.83556 0.0356755 2.49663e-20)
(3.33343 0.278702 -4.55126e-19)
(1.70905 -0.325184 0)
(2.49798 0.594718 0)
(2.95587 -1.48375 0)
(-2.58788 1.63409 0)
(1.98008 -0.0128673 0)
(1.46461 -0.56919 1.41329e-19)
(3.84295 0.334408 6.69636e-19)
(1.50706 -0.635039 3.90997e-19)
(1.95155 0.0778917 2.3163e-19)
(1.50184 -0.7441 0)
(2.10394 -0.878292 2.70579e-21)
(-0.496846 -0.459616 0)
(1.47122 -0.765052 -8.63791e-20)
(-0.511868 -0.0267391 7.60866e-19)
(3.99706 0.0269182 -4.16514e-19)
(1.99067 0.10643 2.70689e-19)
(2.07786 0.0326138 -8.05189e-20)
(3.08982 -0.744347 -3.29952e-19)
(2.28355 0.0127939 0)
(-1.87401 1.1573 1.82563e-18)
(2.03723 -0.0104106 0)
(1.56797 0.808747 1.60096e-20)
(2.52309 -0.00309918 0)
(2.10732 0.210237 -9.9216e-20)
(2.06727 -0.0691757 0)
(0.982532 -0.384628 -2.83704e-19)
(0.225445 -0.468432 2.70518e-19)
(2.00214 -0.0825739 -5.42061e-20)
(1.36699 0.343619 4.16922e-19)
(0.287563 -0.140127 -2.05134e-19)
(1.84559 -0.325029 0)
(1.07489 -0.262029 -1.08601e-18)
(2.00133 0.0912522 7.89885e-21)
(3.63024 -0.484904 -1.18276e-18)
(1.89241 0.0353159 3.44047e-21)
(2.3126 -1.05695 5.80327e-19)
(4.02475 0.384507 0)
(1.82003 -0.819822 -7.29559e-20)
(1.50878 -0.687008 0)
(2.63312 -0.0811277 9.86848e-21)
(0.52532 -0.174427 6.96629e-20)
(1.33373 -0.798326 0)
(2.37825 0.405031 0)
(1.61397 -0.62139 -6.84909e-20)
(2.43854 0.582873 0)
(1.79435 1.6403 9.43261e-20)
(2.96734 0.623528 -3.4412e-19)
(-2.21788 0.779817 -8.58649e-19)
(1.44191 -0.739107 -5.69638e-20)
(1.8871 0.0691754 -4.13387e-21)
(1.1792 -0.682401 -1.72774e-21)
(-0.0119666 -0.239071 -1.95608e-19)
(1.9073 -0.0399235 4.67853e-19)
(1.16227 -0.612429 3.96799e-20)
(0.458348 -0.220289 0)
(2.28042 -0.022993 -5.90233e-20)
(1.5547 -0.622163 9.29371e-20)
(0.493702 0.125315 7.56265e-20)
(3.53138 -0.230608 9.1794e-19)
(2.93005 1.42254 0)
(1.83336 -0.544407 -3.56487e-19)
(1.97414 0.24486 2.06764e-21)
(3.59704 0.55042 -9.92499e-20)
(2.43889 -0.0606646 -2.06871e-19)
(1.53918 -0.747103 3.49728e-20)
(1.15314 -1.00821 1.44074e-19)
(1.52029 -0.621424 -9.43375e-20)
(1.53291 -0.758542 2.12464e-21)
(2.34398 -0.182528 -1.79824e-19)
(1.54084 -0.75454 -3.91799e-20)
(1.80351 -0.330205 0)
(1.89668 -0.202925 -4.25606e-19)
(0.381068 1.48724 0)
(1.38558 -0.727934 -3.8811e-20)
(1.86957 0.894151 3.34992e-19)
(-1.24385 1.9649 1.36569e-18)
(2.00398 0.085093 -4.76341e-21)
(0.695899 -0.330324 1.06452e-20)
(-0.93682 1.71731 0)
(2.2337 -0.820155 3.28451e-19)
(2.22406 -0.871782 7.59723e-20)
(-0.515529 1.85613 -1.15468e-18)
(1.84245 0.489139 0)
(1.68984 0.433122 0)
(0.282583 0.238909 0)
(1.47384 -0.484559 -3.13218e-20)
(1.93983 -0.042174 -4.14371e-19)
(1.38002 0.124823 0)
(1.77289 -0.627173 0)
(2.20758 0.113085 -1.0768e-20)
(1.83111 -0.948891 4.21066e-21)
(2.07737 0.341854 -3.03722e-19)
(1.73802 -0.401453 -6.71957e-20)
(1.81195 -0.00523607 4.96594e-20)
(1.99208 0.0248907 -5.24189e-21)
(2.00191 0.0769779 -2.84204e-20)
(1.97445 0.451362 -2.37379e-20)
(1.9454 1.10375 0)
(0.0867271 -0.267965 1.52391e-20)
(-1.17058 0.934387 0)
(1.0542 0.100036 0)
(2.7314 0.0247367 -4.02125e-19)
(1.43211 -0.754394 0)
(2.4471 0.216914 0)
(1.95367 -0.13813 6.53369e-19)
(1.92746 -0.847432 0)
(2.0586 0.391764 3.89182e-19)
(3.33904 0.0544876 4.53167e-19)
(3.16749 0.235415 1.48246e-19)
(1.99333 0.0755835 1.94609e-21)
(1.21951 1.18884 2.33355e-19)
(2.25598 -0.8622 3.69944e-21)
(2.04226 -0.811635 -5.23179e-21)
(1.24174 -0.484106 4.10067e-19)
(1.21489 -0.715181 0)
(0.9958 -0.494616 0)
(1.25839 -0.606474 -1.37338e-19)
(0.283495 -0.457789 -3.56688e-19)
(1.462 -0.694144 0)
(1.19182 -0.68033 7.08297e-20)
(-0.228257 -0.137508 0)
(-1.84358 1.55943 2.13224e-18)
(1.19161 -0.557275 -5.31381e-19)
(3.24393 -0.132978 -1.96052e-20)
(3.16287 0.415321 3.64976e-19)
(1.28964 -0.443503 8.29876e-20)
(2.25887 -0.0955291 8.44238e-20)
(2.32914 0.86696 0)
(2.40413 0.727776 0)
(1.10833 -0.0209462 0)
(-0.182333 0.467155 -7.79493e-19)
(1.46667 -0.574656 0)
(2.27067 0.64048 0)
(1.98242 -0.0405918 0)
(2.51513 -0.425993 -4.80293e-20)
(-1.87682 0.324683 5.36019e-19)
(2.07176 -0.797481 -1.83416e-19)
(1.46868 -0.503322 7.47768e-20)
(1.87601 0.247163 0)
(1.27314 -0.880816 0)
(2.02254 -0.611653 -3.28309e-19)
(1.57553 0.482327 6.18722e-19)
(0.946124 -0.490046 -7.33165e-20)
(2.08275 0.120617 -9.70834e-21)
(1.75522 -0.486191 3.77706e-19)
(1.03236 0.390402 -1.00096e-18)
(0.173299 -0.562708 0)
(1.27415 1.25928 -5.5585e-19)
(0.465089 0.253645 -6.26514e-19)
(3.13758 -0.00537579 0)
(2.44794 -0.10795 0)
(1.76561 -0.0447297 0)
(2.01306 0.0247662 -4.16755e-19)
(1.50382 0.224631 -4.26581e-19)
(1.67011 0.139734 0)
(3.71663 1.26627 1.76811e-18)
(1.85373 -0.830601 3.42148e-19)
(2.55596 -0.335818 6.21649e-20)
(1.15478 -0.541467 6.14112e-20)
(2.06881 -0.267056 0)
(2.39808 0.00442246 3.15581e-20)
(1.80464 -0.46166 0)
(1.54713 -0.647136 -9.00118e-20)
(1.79458 -0.814824 0)
(2.17668 -0.783446 4.01762e-19)
(1.62388 -0.331896 -1.51143e-21)
(2.03291 0.0607035 -1.28619e-20)
(2.53472 -0.365603 0)
(1.87416 -0.806093 0)
(1.66066 -0.713088 -4.81772e-19)
(2.28448 0.300532 -9.35114e-21)
(1.49858 -0.749153 4.18896e-20)
(0.918842 -0.441493 4.16338e-19)
(1.92559 -0.113685 0)
(1.61413 0.197564 -6.42096e-19)
(2.24337 0.000740353 -5.02069e-20)
(1.51144 -0.465952 -3.01249e-20)
(2.02285 0.0479466 -1.69252e-20)
(2.03626 0.0637428 0)
(1.25404 -0.373712 5.8291e-19)
(1.00735 0.144065 -6.37734e-19)
(3.68173 0.230901 1.01423e-20)
(1.81308 0.210805 -7.27048e-19)
(1.17862 -0.55603 5.51781e-20)
(1.5938 0.538652 -1.96707e-18)
(1.75634 -0.273112 2.30042e-20)
(2.06575 -0.0607641 -3.85076e-20)
(2.29684 0.271985 1.46805e-18)
(-0.433856 0.0475535 8.46488e-21)
(1.42516 -0.668453 1.01042e-19)
(1.48655 -0.75847 8.9381e-20)
(1.81926 0.0545274 6.32541e-21)
(2.42315 -0.189963 0)
(3.8474 -1.3387 1.75421e-18)
(1.19683 -0.58287 2.32626e-19)
(1.75014 -0.270104 2.26921e-19)
(-0.800741 -0.09121 0)
(1.6886 -0.417749 -6.06732e-20)
(1.953 0.0215676 1.98519e-21)
(1.94603 0.0229874 0)
(-0.552201 -0.423472 2.57257e-19)
(1.53882 -0.744033 2.58485e-20)
(1.90224 0.233632 0)
(1.1222 -0.427331 0)
(1.54029 -0.36727 -3.65849e-20)
(1.57001 -0.502531 -9.24382e-21)
(2.66746 -0.000121452 1.45408e-19)
(0.274663 -0.170354 0)
(2.05746 0.0216346 -3.69163e-19)
(1.89887 -0.37473 -3.87275e-20)
(2.24349 -0.756758 2.2662e-20)
(1.29278 -0.507331 5.15838e-19)
(1.48289 -0.720301 -7.98775e-20)
(1.42529 -0.781468 5.43158e-20)
(3.67165 0.0872922 -8.78441e-21)
(1.89915 -0.843643 0)
(2.87773 0.657468 -1.37589e-18)
(1.64815 -0.657137 2.41316e-19)
(2.12157 1.8434 1.68244e-19)
(0.893583 0.534561 0)
(1.21203 -0.259082 -5.15219e-19)
(1.29563 -0.556454 -6.25948e-19)
(1.37891 -0.70064 9.5697e-20)
(-1.96222 0.815096 -1.78001e-18)
(2.65891 1.66454 0)
(-0.45235 -0.274546 -8.34343e-19)
(2.28503 0.501677 0)
(-0.15339 0.525484 -1.75365e-18)
(0.136006 0.232156 1.33329e-18)
(0.389479 -1.97903 0)
(1.40721 -0.750111 3.45029e-20)
(1.66043 -0.155341 -9.35164e-20)
(-2.38402 0.916312 5.65986e-19)
(1.74462 -0.695128 4.36775e-19)
(1.14543 -0.568447 -2.24407e-19)
(1.26195 -0.583332 0)
(2.02223 0.0963456 1.29951e-19)
(3.17395 0.285233 0)
(2.20092 0.110454 -3.12558e-21)
(-0.376711 0.707332 -1.6663e-18)
(0.620993 -0.255704 2.71158e-19)
(2.04564 0.0955117 0)
(1.94442 -0.784962 -3.26439e-19)
(2.51865 -0.296028 8.57057e-20)
(1.37066 -0.799285 1.3729e-19)
(1.52921 -0.725595 0)
(1.39835 -0.784384 -1.22155e-19)
(3.63688 0.354607 -1.01929e-18)
(1.62939 0.193275 8.22446e-19)
(1.79902 -0.258413 0)
(2.11698 -0.02028 1.44584e-19)
(0.342889 1.41849 1.07619e-18)
(-1.80039 0.246211 -3.11731e-19)
(2.25093 -0.587013 1.25219e-19)
(1.2618 -0.598837 0)
(1.72959 -0.0762737 -1.01395e-20)
(2.00401 0.0533819 8.06012e-22)
(2.60207 -0.347935 9.40863e-20)
(2.24115 0.0390348 0)
(1.2506 -0.929239 7.14302e-20)
(1.72643 -0.474289 -4.82177e-22)
(1.34348 -0.404783 6.40344e-20)
(3.63017 0.27164 0)
(2.09904 -0.813992 -1.42692e-19)
(1.31503 -0.677363 1.62487e-19)
(1.76134 -0.450355 -4.72404e-19)
(0.183274 0.0900644 0)
(2.33387 -0.604276 2.04768e-19)
(2.12346 -0.789995 1.17433e-19)
(1.35106 -0.632718 -1.02438e-19)
(1.88202 0.22251 0)
(-2.27864 0.954149 1.9576e-18)
(1.55697 -0.424725 0)
(1.0077 -1.0913 1.5319e-19)
(1.65836 -0.54439 0)
(1.93183 -0.149112 -2.4073e-19)
(2.15433 -0.231156 -2.43819e-19)
(3.27943 1.04109 -8.96747e-19)
(1.43336 -0.301301 0)
(2.06658 -0.882811 -2.20085e-19)
(2.0467 0.0540691 0)
(2.33976 0.346812 0)
(2.16739 -0.889912 6.0139e-20)
(1.17843 -0.950709 7.35554e-20)
(0.664709 -0.127477 1.7072e-19)
(2.17742 -0.5883 -7.57268e-20)
(1.67434 0.288886 2.69286e-19)
(1.28476 -0.717133 -1.76343e-20)
(2.02383 0.211597 1.4277e-19)
(-0.0492597 -0.63672 -4.48726e-20)
(1.82187 -1.17331 0)
(2.34892 0.0937009 0)
(0.440322 -0.557457 0)
(1.503 -0.728897 1.44306e-19)
(1.25811 -0.44274 -3.62223e-19)
(1.55111 0.0540259 0)
(0.874199 -0.438555 1.68186e-19)
(2.30711 -0.156199 -1.65788e-19)
(1.15404 -0.556663 -6.27744e-20)
(1.44932 -0.54388 -1.17619e-19)
(2.23633 -0.886216 0)
(-1.99901 0.607546 1.43475e-18)
(-0.812104 -0.15952 -7.49862e-19)
(0.178911 -1.74238 0)
(-0.577933 -0.0559864 -1.15423e-18)
(2.01502 0.0230777 1.12933e-20)
(2.37572 0.269219 9.03131e-20)
(1.96576 0.041962 2.45097e-19)
(2.83057 0.797998 -3.72281e-19)
(2.3662 0.139183 4.28581e-21)
(1.31887 1.141 0)
(2.00046 -0.789942 0)
(0.714678 -0.360128 1.65779e-19)
(-1.54743 0.807441 0)
(1.68392 -0.382929 -6.13749e-20)
(2.21598 -0.791471 -2.08785e-19)
(1.05661 -0.497929 4.36643e-19)
(1.9536 -0.0552693 -5.4119e-20)
(1.73083 0.32344 -2.66484e-19)
(1.60599 -0.643794 -2.37446e-19)
(1.69661 -0.677413 -4.39811e-19)
(1.54659 -0.508787 0)
(1.79287 -0.706836 4.15888e-19)
(1.94027 -0.0478181 0)
(2.58913 -0.382275 -7.15364e-21)
(2.07382 1.16914 1.02404e-20)
(2.0712 -0.892678 -2.4451e-19)
(2.28534 -0.378073 -2.04884e-19)
(-1.97691 1.39459 -1.60979e-18)
(-0.031197 -0.357887 0)
(1.60946 -0.700631 -2.70211e-20)
(1.5023 -1.15673 -1.47317e-19)
(2.15953 0.428844 -1.48051e-19)
(1.89428 -0.770974 3.82658e-19)
(2.18881 0.0770349 -4.12999e-21)
(-2.17875 0.683362 7.15609e-19)
(1.89439 -0.794199 -6.68867e-20)
(0.449652 0.0438364 0)
(1.26227 -0.612396 1.84258e-19)
(1.82353 -0.413439 2.50313e-19)
(2.05093 0.035368 -2.07022e-23)
(1.2674 -0.559046 9.18571e-19)
(-0.47119 1.83154 -7.67487e-21)
(1.71744 0.574984 0)
(1.5213 -0.743912 -5.88991e-20)
(1.2891 -0.862795 -9.36376e-21)
(1.17126 -0.371675 -6.91576e-19)
(1.47198 -0.71568 6.4648e-20)
(3.22214 0.599489 -3.87436e-19)
(2.19303 0.30262 4.82441e-21)
(1.03571 -0.426261 3.13489e-19)
(1.86971 -0.42871 0)
(2.44131 0.0842697 -1.05869e-19)
(2.20566 -0.0137893 -2.93478e-21)
(3.06041 0.492809 -3.6873e-19)
(2.30884 0.0506165 0)
(3.42286 0.465803 3.65257e-20)
(-0.569732 0.565956 1.68331e-18)
(1.695 -0.737156 9.32289e-19)
(2.35441 0.442043 2.15365e-20)
(3.1096 -1.55626 -9.98538e-19)
(-1.80337 0.368938 2.75264e-18)
(2.05472 -0.777743 3.76924e-19)
(2.09382 -0.00886291 -3.88749e-21)
(-0.878018 1.30215 1.60224e-21)
(2.36715 -0.128741 2.39067e-20)
(1.47421 0.263871 0)
(2.00685 0.0635126 0)
(2.35337 0.429624 0)
(1.8373 -0.719605 -3.60677e-19)
(1.67549 -0.599009 6.10991e-20)
(-0.298155 1.7256 0)
(1.30754 -0.4014 -1.49998e-19)
(0.823587 -2.0218 0)
(2.76164 -0.846681 0)
(0.453128 1.61 0)
(1.92373 0.0301345 0)
(-2.18241 0.88289 -6.11447e-19)
(-0.306837 -0.667702 0)
(2.17365 -0.994964 2.49475e-19)
(1.7232 0.00253914 0)
(1.98762 0.0429894 0)
(1.94946 0.172607 1.24193e-21)
(0.00439131 -0.510736 0)
(1.90254 -0.690053 0)
(-0.481063 1.26264 0)
(2.17141 0.0109815 2.30879e-20)
(2.08519 0.256519 0)
(2.25821 -0.874779 -7.58305e-21)
(1.6105 0.844823 -7.38935e-21)
(-1.5383 0.399157 -3.11403e-19)
(2.0054 0.0515315 5.99112e-19)
(-0.222874 -0.0189411 -4.77843e-20)
(1.1196 0.799099 -5.32457e-19)
(1.50468 0.656333 0)
(2.47012 -0.341966 8.1587e-21)
(1.71835 -0.22367 -2.21548e-19)
(1.66994 1.53261 1.30145e-19)
(1.85452 0.365065 3.69666e-19)
(0.862167 -0.324861 -6.58044e-19)
(1.59373 -0.701506 -3.6638e-19)
(1.99347 -1.11591 3.39546e-20)
(1.56019 -0.739222 0)
(2.486 -0.494157 -1.07867e-20)
(1.61032 -0.713889 3.18746e-20)
(2.55837 0.177492 -6.45808e-20)
(1.06009 -0.546311 0)
(1.86403 0.0594095 -2.73639e-19)
(3.23928 0.583009 -1.10234e-18)
(1.43122 -0.590385 4.74519e-19)
(1.31962 -0.605977 -5.73398e-19)
(1.73761 -0.80225 0)
(1.84231 -0.812939 0)
(2.0326 -0.900084 2.22258e-19)
(2.36213 -0.379675 -1.25548e-19)
(3.08554 -0.201261 -4.90492e-19)
(1.89023 0.0366725 7.85442e-22)
(1.28575 -0.367323 -1.39227e-19)
(1.75629 -0.541885 3.99018e-19)
(2.39761 0.178497 0)
(2.3523 0.237251 1.09812e-20)
(-1.2339 -0.267271 -1.45417e-18)
(1.77544 -0.7475 1.61335e-19)
(1.12725 -0.252249 -4.33302e-20)
(-0.657512 1.1578 9.33961e-19)
(2.9843 -0.115103 4.09552e-19)
(2.5294 0.486388 7.16373e-20)
(2.38345 0.485758 0)
(1.51841 -0.73525 0)
(2.30086 -0.868702 -1.02679e-21)
(1.22599 -0.28512 0)
(1.90364 -0.440804 1.66723e-19)
(1.66311 0.239946 4.65388e-19)
(1.73399 0.411484 -1.36625e-19)
(1.66926 -0.681888 9.53338e-19)
(2.01809 0.04276 -3.87145e-22)
(1.84559 0.0236747 0)
(1.94507 0.0444741 -2.92365e-21)
(0.732218 1.41663 -1.1619e-18)
(2.0792 0.165557 0)
(2.69044 -0.407548 0)
(1.97395 -0.801845 1.39152e-19)
(1.93069 0.492949 2.00482e-19)
(1.14139 -0.205225 0)
(2.06827 -0.57119 4.84555e-22)
(2.28324 -0.120222 1.14193e-19)
(2.26623 0.219014 2.75191e-20)
(1.8122 0.454764 3.96784e-19)
(1.51427 -0.765934 -7.54314e-20)
(1.32413 -0.207003 0)
(-1.72634 1.67404 -4.05088e-18)
(0.572306 -0.25622 9.83848e-19)
(2.09639 -0.0223584 1.56843e-20)
(-1.22112 1.22863 -1.81836e-18)
(1.87136 -0.782991 2.71289e-20)
(2.49213 0.225324 1.70638e-19)
(1.78507 -1.08941 0)
(1.93041 0.127167 2.49773e-21)
(1.82553 0.0147584 8.5588e-20)
(2.27224 -0.0338779 -1.4275e-19)
(2.1749 0.369235 -9.92868e-20)
(2.27396 -0.822109 0)
(1.41638 -0.742677 0)
(2.35276 0.0219387 0)
(2.26484 0.330831 -5.36808e-20)
(1.13389 -0.533233 6.84856e-19)
(2.53237 1.58227 -1.06658e-19)
(1.54352 -0.169939 0)
(0.633016 -0.542919 -4.09595e-20)
(1.52162 -0.734164 6.53964e-20)
(0.533241 -1.30695 0)
(1.90696 0.284768 -1.21585e-19)
(1.66665 0.225523 -1.55549e-19)
(2.38073 -0.380344 -4.42291e-20)
(2.02104 0.0570639 -1.23845e-20)
(0.756433 -0.285439 0)
(2.12922 0.185718 -1.50572e-19)
(2.07828 -0.44161 0)
(2.05835 -0.278574 9.67135e-21)
(1.02808 0.02505 0)
(2.26956 0.778294 5.10248e-20)
(1.76757 -0.716177 -4.25168e-19)
(2.38112 0.675848 0)
(1.87458 -0.142195 -4.17413e-19)
(2.02875 0.0721608 1.75962e-20)
(1.71492 -0.104062 0)
(1.20547 -0.576492 0)
(0.623081 0.103011 -8.3947e-20)
(2.55591 -0.0895436 -1.06212e-20)
(1.55058 -0.686709 -3.81822e-20)
(0.910641 -0.521439 -1.48176e-20)
(2.20301 -0.124444 4.78535e-21)
(2.48083 0.550841 8.19229e-19)
(1.79817 0.384455 -1.7251e-21)
(2.08722 0.43526 0)
(3.42241 0.330358 4.83084e-19)
(1.78614 -0.814847 0)
(1.58459 -0.727025 -4.00653e-19)
(1.88089 -0.81698 -4.88454e-19)