/*--------------------------------*- C++ -*----------------------------------*\
| =========                 |                                                 |
| \\      /  F ield         | OpenFOAM: The Open Source CFD Toolbox           |
|  \\    /   O peration     | Version:  2306                                  |
|   \\  /    A nd           | Website:  www.openfoam.com                      |
|    \\/     M anipulation  |                                                 |
\*---------------------------------------------------------------------------*/
FoamFile
{
    version     2.0;
    format      ascii;
    arch        "LSB;label=32;scalar=64";
    class       volScalarField;
    location    "5.5";
    object      p;
}
// * * * * * * * * * * * * * * * * * * * * * * * * * * * * * * * * * * * * * //

dimensions      [0 2 -2 0 0 0 0];

internalField   nonuniform List<scalar> 
13486
(
2.51945
2.02168
0.101368
-0.259865
0.861191
-0.222028
0.403098
1.44743
1.72566
0.909331
-12.1261
0.428391
2.65645
-0.261662
0.67605
1.0085
-5.26724
0.107799
0.598299
2.26993
-0.168737
2.62594
1.98263
-2.24984
0.864725
-2.04217
-6.43889
-1.01367
0.0025004
-0.877171
-0.122457
0.50078
-1.99028
-0.61706
1.45041
0.0172243
0.0101484
2.07643
-0.114912
1.71779
0.306617
2.75723
0.0359589
0.865023
0.825734
0.403691
-4.30053
0.00563373
0.00981445
-0.971873
1.47935
-0.132596
0.316182
2.10796
0.0469873
0.925308
0.0609549
-0.136201
-1.88775
0.0231881
-12.4045
0.024714
-3.31269
-0.150053
-1.09159
0.0143002
-0.367884
2.51535
1.71595
-0.0251666
-0.373604
0.063637
1.7206
-4.86734
0.0230328
0.0619945
0.0227356
0.661885
-4.99225
-0.222178
0.00698416
2.04479
-3.42495
0.106356
2.53035
0.867282
-0.23291
1.39976
1.67874
0.995035
0.376622
1.26411
2.42156
2.16163
1.79571
0.00412907
-6.60949
-0.599152
1.6908
-5.27752
0.0311908
-0.166325
-0.614638
-0.131232
1.05715
-5.20561
1.6926
-0.124678
-4.79525
1.15516
1.6663
0.402632
2.10628
0.0534427
2.94771
1.74251
0.868277
-0.575556
1.73649
0.0106416
0.106227
-11.9971
1.87407
-0.122166
1.66074
-0.120976
1.22871
0.414087
-0.506754
-0.856247
-0.11646
-3.82247
-5.44795
-4.40142
1.55312
1.37167
2.91004
1.19873
0.0109534
1.48743
-1.56615
0.311671
0.500756
-0.226652
0.0530108
-4.84142
-0.182871
1.70849
-1.05602
0.000772051
0.98524
0.639978
0.00737199
2.08548
0.490638
0.096065
0.96888
0.10001
1.88704
-0.0494295
-0.72817
1.88756
0.283561
2.7492
-0.137489
-0.538099
-0.0104139
3.37145
-0.195929
-4.39332
-5.50851
0.505916
1.17656
0.925301
0.00508051
-2.9713
-0.487735
-1.83855
1.69545
0.511032
1.61604
0.0542438
0.747642
-5.66993
0.0901778
-1.01266
9.38288e-05
-0.810981
0.373689
1.82823
0.011951
0.0864096
-0.164518
2.15219
-0.196969
-11.7545
-0.892468
-0.76596
2.28016
-0.448123
-0.140239
0.390803
2.08084
0.730113
-0.0287908
-0.203323
0.0793654
1.84494
-0.152217
0.102522
-0.908406
-1.48342
2.23981
1.69187
-0.221306
-0.433544
-0.922489
1.02668
2.298
-2.14776
-5.25176
-1.08051
1.52423
-0.775879
0.197184
2.46665
-0.525685
-0.54981
-0.351716
-0.240655
1.59642
-0.0691848
-1.6393
2.81011
-0.405226
2.372
-0.688025
0.0894452
2.3956
0.777055
-2.00422
1.15487
0.0587871
2.26185
-0.110001
1.93079
0.809316
-1.34718
-4.32121
0.975835
-2.33535
2.9798
1.68536
-0.132036
-0.27722
-4.25656
0.485942
-0.415573
0.117845
-1.92291
1.85405
-0.101066
0.661964
-3.86667
0.967803
-5.85401
-0.35763
-0.16663
1.59424
0.0591243
1.68345
1.65583
-0.957786
0.315758
2.4706
-1.26345
-0.278017
-0.177136
-0.146569
-0.12099
-0.20797
1.41665
1.71014
-4.34909
-10.8926
-5.62703
-1.5105
-0.53066
0.189898
1.60964
-0.355468
-0.031589
1.8011
1.56883
-0.653188
-0.744359
-0.732348
0.285348
1.74398
0.379431
0.269589
0.0798355
-0.154368
0.531107
0.00421131
0.759258
-0.0960112
0.8454
-0.214623
0.011936
-4.32057
-0.238141
-0.205118
0.404695
-11.2137
1.40127
-0.0308405
1.68194
1.85291
-0.411845
0.0135173
-0.0394917
1.68344
2.17565
2.88032
0.39933
1.09887
1.38724
0.156303
1.0207
1.41123
1.21189
0.345972
2.31826
0.39706
1.69657
3.05784
0.681248
1.054
-0.0999477
-0.383367
2.15422
0.986046
0.767027
-6.24482
0.00404303
1.14985
2.95339
-2.15948
-0.0427425
1.10857
0.204804
0.295585
-6.83655
1.73127
0.00512243
-5.01662
1.20157
-0.221216
-1.415
0.614628
0.347524
1.88348
1.66118
-0.916253
0.0036053
-0.709436
-3.39787
2.29304
1.2139
0.0283924
1.1686
0.161483
-3.04769
-0.153859
1.51332
1.72349
-0.0651333
-10.8124
-3.3701
1.57662
1.18116
2.65176
1.78352
-3.72015
-0.294748
0.123044
1.02593
-5.25745
-0.0361149
2.20355
-1.04242
0.735607
2.41318
2.46879
0.01612
-0.293397
-2.86328
-5.27775
-1.58556
-5.27925
0.440366
1.50462
-0.163787
0.440735
-0.0643013
2.12973
-1.77792
1.22799
1.91022
1.0034
-1.17917
-1.13855
1.74772
1.70732
2.07493
-5.19087
0.993509
-5.45289
0.803841
1.69603
0.217723
2.9629
1.10145
-0.632896
-0.770014
0.379475
1.70768
-6.35378
0.0978191
2.60335
1.50896
0.717729
0.152853
0.814081
-1.49499
2.63713
-0.0431184
0.969986
2.47485
-5.27074
-0.975226
-4.39649
-1.15637
-0.726703
2.01019
1.9637
2.61762
-3.45789
0.0090389
-6.57296
1.07466
1.7122
-0.952183
-1.3489
1.68139
-2.09956
-2.98019
-4.73514
-4.48815
-0.0754002
2.12154
0.00414475
0.126271
-0.182653
1.6188
0.00526808
3.21572
2.45182
1.7252
1.39753
0.0184873
0.00332386
3.04094
-0.303431
0.0129305
-0.620976
1.71217
-5.5766
0.263879
1.20286
0.00575322
-0.704403
1.96129
-1.93973
-5.27492
1.11434
-0.051609
3.35948
1.13508
1.49543
1.83849
-3.34352
0.146715
2.71873
0.877769
2.18748
0.433376
0.490028
-0.203484
-0.220839
0.0352071
-5.30982
1.74533
1.70511
-2.38977
0.00212489
-0.278953
2.49302
2.01701
-0.292655
1.73632
1.25373
-0.667191
0.979251
1.51982
-5.46075
2.60775
0.0253077
-0.0198053
2.73437
1.19612
0.00176948
1.12866
-0.274222
-1.54545
0.695556
1.10761
1.90053
2.42817
-6.93725
0.804365
-7.08156
0.0031499
2.36651
0.48537
-5.42021
-0.71433
0.213308
0.111589
1.39236
-0.993735
-1.27885
1.74157
2.29428
-0.173045
1.84726
-4.79286
-3.79026
-1.75017
0.717497
-7.2121
1.8605
0.132937
-12.2017
1.46023
2.00333
-1.96115
-6.72756
1.50053
2.36816
0.551095
2.53942
0.138546
1.1478
0.40491
1.8754
0.0496453
2.30591
-6.65476
0.417838
1.65566
-0.468133
-1.18934
1.6799
-5.33502
0.300816
1.93205
2.62264
-0.388151
0.109051
0.485439
0.246627
1.50771
1.21855
0.624027
-8.49718
0.040182
2.50775
0.292152
0.158486
-2.62351
2.63904
-0.535817
0.0571957
1.64623
1.37782
-0.223405
-0.484234
1.4736
0.113435
-0.241156
0.67625
-1.5721
2.55808
1.70047
1.18521
1.21776
0.0521944
-1.51398
2.85994
0.527945
2.86908
-0.468562
1.61421
0.0133806
-4.88146
1.06659
0.970276
2.9951
-1.78383
1.13533
1.06152
-2.30303
0.930607
0.107476
-0.636019
1.66019
-6.68722
-1.12909
-1.55132
-0.238638
-0.508213
1.82479
0.00542085
2.79076
1.69756
-0.0255739
-3.48997
-0.895967
0.568607
-10.8932
-0.343999
-5.27117
2.35347
0.00124875
0.0632099
-8.40278
2.66101
0.00427401
0.272846
2.73339
1.49883
-4.50034
-0.175978
1.20248
0.160557
1.64529
0.0556024
-0.558956
0.662319
1.53491
0.51716
1.38355
2.77224
0.0560168
-1.50605
1.67844
0.21913
-0.282583
1.17507
1.26725
0.757458
-4.85361
0.132873
-0.0659788
0.181449
2.36277
0.537989
0.132541
0.114296
0.219305
-0.223463
1.71431
0.0291938
1.61037
1.60515
2.32584
0.127184
-1.2428
2.84613
0.0223292
-1.90493
1.77107
-1.51536
1.91033
0.0494714
1.64459
-0.160778
-4.68913
-1.82456
0.00399645
-5.26532
0.919026
2.92454
-0.49428
-4.2106
-0.603681
1.75509
0.0212339
0.766996
-9.79066
2.88446
-4.6673
0.901058
-1.02547
0.99732
1.69409
0.654236
-3.11507
-0.105825
2.70488
1.72277
0.76904
1.50655
0.184917
1.33912
1.36912
1.00688
-4.30045
-0.275412
2.10974
0.399687
-0.152254
1.43788
-1.5368
-0.474589
-0.0780938
1.82155
1.80389
-0.888015
0.107085
-4.09427
-0.124593
0.126671
-0.493071
0.35222
1.63822
-0.0634573
-1.50583
1.98732
0.0163007
-0.619411
-0.105599
-0.755905
-0.865791
-1.62167
-0.0766451
-5.52408
1.63413
2.65214
0.0146719
-0.635338
2.74066
2.57324
-0.349212
-0.938285
1.76384
-4.40209
0.0567948
0.00790466
0.0856222
0.96948
-5.27393
0.805569
1.15622
-0.670373
-0.27706
-2.14189
-0.194803
1.47174
0.755804
1.0949
-1.16866
1.45955
2.52185
-9.27126
-4.97913
1.91267
0.658475
1.13199
-0.109953
-0.844615
-1.30219
-0.149733
1.72823
2.87557
1.85282
0.049298
-0.152408
1.68819
2.45161
-0.442102
1.82334
1.66468
2.54645
0.432818
-0.0632151
0.265738
-0.400204
2.53778
0.109817
-0.181398
1.16145
-0.277225
0.411819
-0.124774
-1.57291
1.61348
1.23483
1.18809
0.823904
-4.87035
-0.394968
-0.455985
0.975114
-1.66888
-0.845562
0.053399
-5.77037
-12.4627
0.908238
-0.853653
-4.27537
-3.88877
-0.539268
1.28374
-10.8415
-2.57478
1.89287
-0.307609
2.63201
-0.549028
-4.39178
2.01665
2.381
0.025998
0.121168
0.457724
1.74194
0.996163
-2.64483
-0.214765
0.00287496
-0.258945
1.65255
0.0605622
1.00996
-0.0487161
1.71468
-6.60151
0.0539699
0.00212225
2.0589
-1.28879
-12.354
-2.54537
2.60616
0.0458353
-1.5323
-12.836
1.66639
-2.04716
-0.037017
0.386085
0.819344
-0.055766
1.17912
-1.05125
1.39512
1.66947
1.96671
0.785423
-0.0328015
-0.556668
1.29313
-0.549749
2.04592
1.16879
-0.228396
-0.134628
-0.311957
-0.0845272
0.00689468
1.91237
0.702993
0.237596
1.68164
0.088611
1.35765
2.96445
-0.121532
-1.99894
1.17382
-0.143579
-0.0771648
-0.330766
-0.178371
1.66317
0.05698
0.0229192
0.0477786
0.153498
2.17579
-4.14181
0.00527516
1.68866
-0.116152
2.38687
1.9365
2.25825
0.425462
1.07533
0.53652
0.0742242
1.28642
1.65612
-0.115922
-0.476764
-3.5663
-0.810016
-7.81625
1.67182
-3.84209
-2.30284
-5.21157
-0.108428
0.00565937
1.70043
0.0112315
0.362924
-4.51544
1.71706
2.93014
-0.076069
-10.0868
0.966326
0.0276508
1.61755
-0.0429139
-0.113534
2.03963
-0.14442
2.78073
1.16658
1.677
-0.826759
2.18819
0.0565405
1.94746
0.0248899
-2.0019
-0.479928
-2.00283
1.13363
-0.104661
-0.0141565
2.62126
1.71204
1.82719
2.39006
1.86188
2.05248
-0.444715
1.77513
1.7274
1.734
-0.414913
-0.521862
-1.05711
-1.49214
0.459703
1.91105
-4.76088
2.48705
-1.50675
0.0578034
2.84966
2.40622
-0.471137
-1.94352
1.7017
0.892856
0.165835
1.5992
-4.65146
-0.64679
1.67513
2.33827
-0.108916
1.88064
2.16524
0.00561757
-0.706707
2.17455
0.761454
0.00924916
-8.33848
0.103361
-1.51949
1.5836
1.18207
0.00103176
-0.0426587
-1.00649
0.464238
-0.0649356
0.402235
2.45381
-0.107053
3.16354
1.68212
0.57714
1.89394
-4.59392
-5.09105
-1.78773
1.65815
-0.112418
-4.20221
-0.131604
0.853371
1.00948
-0.0914992
1.23671
-3.27946
0.891606
0.0480628
-0.0552754
1.35935
0.544158
2.19548
1.72449
1.77738
1.62604
-0.478391
-1.64486
-1.27876
0.119836
-0.480136
-0.250641
1.33432
-0.248401
-0.0340935
0.0034284
0.263058
-9.96489
1.1928
0.819815
-0.118833
-1.06129
0.826192
-1.03377
-1.56144
0.232241
-0.116251
1.87694
1.26927
2.17847
-4.4081
1.5377
0.0514789
2.35237
-0.1736
0.908452
0.127618
-0.207624
2.72825
2.79372
1.4026
0.96451
1.16686
1.56111
2.75962
1.1767
-1.77331
-9.09805
0.332781
-1.45617
-4.23764
1.70583
1.62012
-0.0655852
0.512226
1.44102
1.53087
2.99546
-4.56302
1.34304
-5.28687
-0.371487
2.40818
-0.31212
1.41842
-0.254987
0.541753
0.676215
3.11541
-0.814803
-1.06856
0.871305
0.255441
-6.85286
-4.64525
0.127686
1.87709
-0.567895
0.967374
2.56957
2.35978
-0.215923
-2.92626
-0.838236
0.317977
1.99488
1.58934
2.35046
1.04024
-13.077
2.46273
1.55404
-2.39809
1.31735
1.73177
2.13419
-9.63402
-0.104114
-0.000350753
1.45071
2.69676
0.905971
0.274925
-1.52353
3.00793
-10.4198
-1.53605
2.8092
1.49527
0.00958041
1.35412
-0.321502
0.951938
-0.67425
-10.667
-0.0845764
-2.41124
0.0826914
-0.53558
-4.86348
-5.26571
-4.29531
0.176025
-5.2761
-2.54514
1.30888
1.56887
0.935357
-3.51087
0.464415
0.283013
-0.485169
3.14789
1.13727
-1.14281
1.49478
-0.67502
-2.71559
1.41226
1.40219
1.61659
3.17861
0.00589184
-0.305121
-2.30508
0.0916624
1.16955
1.67232
-0.632249
2.48959
1.18543
1.78702
-0.218535
-0.214336
0.0635595
1.76087
1.69251
1.82615
1.68984
2.92241
2.88075
-0.699042
1.50276
2.14384
-1.10204
2.34437
-0.0807089
2.84746
2.32292
0.0790927
1.91491
0.851564
1.30527
0.031028
1.71962
-1.58205
1.47565
0.64371
1.17041
-0.222764
1.61274
-0.0590521
0.450995
2.75362
2.74804
1.13891
-4.46429
0.408606
0.1861
-0.283919
1.38132
2.46978
-4.46875
1.73709
1.62436
0.836837
1.74973
-5.92082
-0.267297
-0.000693258
2.96028
0.511259
-1.08865
1.94558
-0.226515
0.0642314
0.870234
0.329692
1.30286
0.731749
-0.838178
1.01907
1.37448
1.13658
1.2827
2.89727
2.38052
2.11202
1.89586
2.69662
0.825012
-0.0930407
0.0621937
-1.74525
2.71971
-0.260862
1.67956
1.52421
-4.42175
0.901516
1.85906
-1.8591
0.852974
1.08814
3.2179
-6.85828
0.757597
-0.00839981
1.94321
0.0931563
-0.416904
2.67663
2.29412
1.63855
1.64994
-0.763741
0.851999
-5.29133
2.87457
0.0300624
3.09297
-0.0344104
0.275439
-5.21226
0.948742
-4.94511
0.340665
-0.155809
0.628169
-0.197227
0.598165
-0.561486
0.00304302
-0.3881
-4.35658
-1.0082
-2.74248
-0.323159
-0.210004
-0.151779
-11.3243
1.74056
1.77309
2.13375
1.67444
0.695109
0.663489
3.35379
1.63741
-6.64531
0.0061308
-0.152364
1.31219
1.48751
2.4948
-1.45946
-1.46131
1.40095
0.00254149
0.434195
2.10722
-4.53538
-5.63462
-5.20487
2.90707
-0.585548
1.17565
2.14813
-0.0906512
1.34798
-0.0454087
-8.20255
-7.07215
0.000323105
1.15138
2.01351
2.10692
-2.90156
-4.44291
1.14483
-5.89001
-0.897347
-0.481648
0.370963
-0.637842
-0.202738
-0.727293
-7.00491
-2.12932
2.58402
-0.191121
2.80739
-7.49912
-0.293653
0.655325
0.0205524
2.39201
1.6729
1.98822
-0.200246
-0.684661
-8.95978
2.30645
-4.34548
1.25152
-0.0602528
2.0355
2.38195
-0.0713576
1.65467
2.70165
1.86225
1.80781
-3.19137
-0.0422437
0.716363
-1.42202
-0.154463
1.04427
1.23375
0.0951086
-10.5653
0.400871
0.0381327
1.49027
1.27662
-0.947855
2.83791
0.097405
0.00177614
0.223391
1.66091
-0.895111
0.00830314
1.83716
-0.849465
0.0720594
-0.353401
1.7992
1.66716
1.59051
-0.200097
1.59332
1.9404
1.90323
-0.671664
0.0601142
0.409181
1.46019
-1.47896
-5.00321
-1.29656
-2.07202
-0.317603
0.0443328
-0.140915
0.0537873
-4.74887
-1.08009
-10.7778
0.0320983
-0.691766
0.652999
-6.78476
1.79124
3.38773
0.604077
-0.388963
0.782094
0.220793
0.407976
0.0221455
-0.842067
-4.48965
0.155135
2.22548
0.00416067
2.65636
0.0250492
1.58704
1.39758
0.755063
-5.38189
1.02041
2.90596
-0.1541
1.69104
1.62836
2.4839
0.15831
2.2845
1.82562
-5.11078
1.93969
-7.11945
-7.62851
2.33489
1.49728
-2.54461
0.0587002
2.17373
0.26306
-1.55635
0.0526097
0.0520614
1.32003
0.932071
1.69817
1.59531
1.43344
-3.27006
-1.02166
-0.626625
1.66023
3.09264
-0.944813
-9.65379
-5.28501
1.7059
0.126968
0.136914
0.781432
0.11976
1.31994
-0.0942996
0.404708
2.55449
0.778914
0.0807332
-0.139134
-1.0738
-1.49243
-5.26572
-2.08256
-5.8304
2.00305
0.928206
-1.13892
2.68226
0.00603703
-8.80926
-0.445129
-8.10157
1.82895
-4.29578
0.586682
1.68862
-0.323272
-0.689467
-0.181464
-6.97023
-0.397193
1.83847
-10.7416
-0.0585175
-5.21802
1.63036
1.79937
-0.636768
2.12564
1.97216
2.56128
2.61569
1.88507
0.276698
2.96059
-5.24606
1.6522
0.371369
-7.05363
2.04612
-1.083
2.55603
0.820847
-1.79401
-3.50512
-2.99441
1.80448
-1.29817
-0.719325
-0.206342
-1.26959
0.080995
1.06772
0.324081
1.24118
2.90409
-4.55674
-1.99448
-0.924126
1.76866
1.29046
-1.32946
3.34759
-0.0840498
0.0380817
1.10966
-1.64905
1.62209
1.73996
1.93711
1.9682
0.102502
0.928618
1.61063
0.36516
-0.14082
0.00653727
1.8354
1.88084
2.32637
-0.110674
0.0896017
0.917568
1.04835
0.325467
-4.54611
1.41032
-0.346455
1.48111
1.73941
-5.26549
2.65321
-1.65492
2.85149
1.92647
-9.29936
0.00523425
0.0169802
0.683381
1.77809
-6.97113
2.28853
1.6063
0.907249
0.0430264
0.331653
-0.355959
0.909008
-5.20485
1.06793
-0.350868
1.64788
-4.8727
0.0717975
-0.599419
2.07468
2.41322
0.850646
-4.55944
0.84909
-0.231005
0.0820523
0.969024
-0.101595
-0.0797156
2.81125
-0.823704
-0.090226
-1.50627
-8.78506
0.0162613
1.73219
-5.23619
-0.51004
1.77066
1.09359
1.80449
-2.29658
0.78042
2.83001
-3.13994
1.63728
0.542697
-0.0577667
0.610527
0.383627
-1.18897
2.89152
1.93025
-0.0981458
2.79564
2.19191
2.05905
-5.52481
-4.757
1.11892
-1.95063
0.0277237
-3.81715
-1.70003
-3.49521
1.33653
0.659106
1.03916
1.14238
-0.0810986
1.29783
1.66722
-11.835
1.77807
1.07393
1.682
-0.232555
0.00585283
-0.667705
-5.26333
-1.72354
-0.59558
1.64966
-7.74301
2.57628
-4.30252
1.62998
1.07375
0.00277436
0.335398
1.72011
0.800302
0.42598
1.51997
0.183574
0.0877823
2.44099
1.99447
-1.41574
-4.69461
0.0984163
1.49988
0.0464003
0.819464
-2.82979
0.0367769
-0.264866
-0.842594
1.46505
1.44014
0.261525
0.792595
-0.00547718
-0.0489453
-6.55451
2.07757
-0.949406
1.60809
0.00341528
1.46214
1.78052
0.9854
1.56731
0.128088
-0.57751
-0.0141341
-5.31238
-1.22309
-1.55529
0.0138361
-0.00158247
1.36269
-0.0600663
1.65211
0.00180818
0.102795
-2.46673
-0.0764365
1.74421
-7.10998
1.63486
0.433359
-4.01886
-0.00246846
-1.07491
1.1987
1.77457
-0.0474633
0.314984
-5.21689
1.9903
0.136401
0.530308
-5.90293
2.10545
0.841841
0.0151945
1.7903
1.74928
2.03857
0.285246
2.07046
-3.3359
0.0116267
-0.215428
1.64751
1.10312
0.460757
0.257241
-3.47494
-6.2878
0.940772
0.0903088
-7.01087
2.59757
-3.47821
2.01205
1.21539
-0.729428
-0.0996015
-0.188435
-0.204588
0.221248
0.245999
1.58851
-0.00562171
1.68776
-2.54117
0.752124
-0.073041
0.422513
-3.85514
2.10841
2.8417
1.83119
0.99276
0.422442
1.12899
-6.41314
0.0803663
-0.24208
-0.273257
-1.58941
-10.0141
-4.06164
-1.09221
1.50094
1.67561
-3.96225
0.43326
1.89817
-0.972476
-2.32035
1.80958
-0.101046
-11.3676
0.0409814
-0.330918
0.00548112
2.6563
-0.260487
1.6297
-1.60602
-1.04764
-0.942309
1.6451
0.450061
1.40246
-1.30037
-1.29152
-0.157751
0.337707
1.94005
1.47712
0.332455
-0.138382
-0.646937
2.956
-0.102723
1.91012
2.10559
-0.0638278
-0.133332
0.789438
-5.19858
-1.06758
1.47908
0.999729
1.61746
-1.77325
1.83503
0.2332
2.3887
0.34138
1.49793
2.1148
1.41095
0.343244
-4.75123
0.578171
-7.00209
1.47695
0.794412
2.02968
0.171502
2.55255
0.292027
2.7153
-0.0154504
2.1274
-0.207786
1.26521
-9.08133
1.61916
0.823755
0.732608
2.50085
1.67156
0.433337
-1.00816
0.973143
1.60074
-0.0714291
-5.28005
1.22211
-0.47632
2.17666
-0.705119
2.59817
0.45201
3.38605
2.60307
1.26567
1.13351
-9.92624
0.122351
2.77709
-0.177526
-0.0614266
-0.243212
2.71829
0.860929
1.44606
2.30851
-1.10323
1.81478
-0.495179
2.00917
0.0639108
1.90559
1.70106
2.33057
-0.098582
-4.72262
0.504014
-1.23825
0.796397
0.352394
-1.11548
2.14749
2.44361
0.0257613
0.61902
-0.45781
2.20428
1.3824
1.54802
1.06678
-0.195848
-4.96161
-0.222083
1.72574
-2.53885
-0.0118328
0.111003
1.20501
0.816516
-1.01458
2.9214
-0.0223618
2.57579
0.561888
2.59714
-0.826039
0.397772
0.0123028
0.0600708
1.41832
1.65936
0.0802759
-0.00887651
-0.009826
-0.0182236
2.43551
-0.497062
0.029054
-0.0621041
-0.0129955
0.644175
2.06563
0.836596
-0.00820935
0.029412
1.67257
3.10018
-1.3602
-0.146608
1.64557
0.085811
0.884317
-0.0750034
1.23419
-0.00852225
-3.10051
-0.415628
-0.331519
-0.296006
-0.259321
-3.76361
-1.64999
0.0191803
1.32798
1.7853
1.47644
3.01747
-12.9282
2.70885
-4.94987
2.57002
-6.921
-1.25073
2.91926
0.721073
-0.653006
1.72418
-0.0958372
1.85275
-0.167981
-5.23481
0.282568
-1.04898
-1.27085
0.00535325
-0.292066
0.701054
2.10107
-6.52109
0.776051
-2.49902
0.451624
-0.0444719
-0.0654928
0.237142
-0.0489605
-2.07236
2.18776
-0.0210936
2.40495
0.660544
-7.00126
0.60044
-1.38068
0.0167216
1.45815
2.09828
3.0099
1.2894
1.436
0.827417
-4.45444
2.90591
3.11573
1.83471
-1.00204
-1.74666
-7.39853
1.5593
1.12655
0.635641
1.38362
-0.164444
-0.043542
-12.2022
2.49391
0.247154
0.221271
-0.498964
1.63479
0.367304
3.31138
3.1079
1.48725
0.180405
0.476252
-3.89069
0.692295
3.18836
0.183679
0.0189385
1.26002
0.00685029
0.351284
-0.23055
-0.443389
0.358474
0.251053
0.792207
0.022964
0.562252
2.34496
0.592637
1.77348
-0.61694
-0.544487
2.82565
-4.18959
0.314354
0.501022
0.756476
0.310798
-0.776424
0.421236
-0.00729175
0.316309
3.33127
-5.40075
-3.82605
-2.27486
-1.03087
0.164761
0.500046
-0.531338
-3.3575
0.0165927
-3.1876
-1.27782
-1.39184
0.30687
-0.121766
0.175737
3.26159
0.19368
0.501563
-0.291477
0.368322
-4.37263
-0.61426
2.29325
1.64664
0.51512
-0.0214836
1.57711
1.7806
0.0955292
-9.28007
-0.229888
2.28585
-1.05086
1.5779
0.0812797
2.57079
0.174683
-0.753284
0.157517
1.82525
-0.937438
1.50555
-1.11689
3.16434
-0.461979
-0.38104
-11.3854
0.792988
-0.82255
-1.33506
-0.534909
0.179285
0.815885
-2.16688
-0.0788006
-0.192353
0.360388
-1.29685
-1.30014
1.35014
-7.1712
1.46571
-0.629088
1.84453
2.8937
1.59094
-4.49657
1.70959
0.162222
0.334576
-0.221782
-0.609568
-5.40107
-1.6459
-0.693842
0.795567
0.0250719
-1.08295
0.0098705
-8.44089
0.87443
1.70979
-1.67651
-0.958444
-0.552529
0.0186441
-0.0343431
1.01236
-3.1252
-1.08529
1.71153
-0.0150078
1.00846
-1.69187
-10.4487
-7.13424
-13.2378
3.2435
0.553686
-1.27573
0.507317
2.72331
2.83228
-0.917966
-0.512551
1.6716
-0.041182
-1.49129
2.79818
0.953583
1.50994
3.31277
-0.452345
0.562096
0.285566
2.50555
1.73981
1.75355
2.10154
1.2123
0.043658
0.081859
0.812827
0.41209
-5.31566
2.87139
-0.785839
-0.862928
0.0228989
-1.22972
0.84823
-0.514238
-0.561682
0.427793
1.76351
1.81445
1.93874
-6.11641
2.46478
2.79753
-4.0055
1.0669
-0.218531
-0.138511
0.316506
1.01085
0.00289254
-0.986039
-1.0764
3.10035
-7.18383
1.95024
1.67607
2.23355
1.29327
1.33009
-0.0250776
0.0375513
1.03872
-0.132899
-9.5665
-2.38719
0.076144
-0.35676
2.06554
-1.83306
-0.022306
0.381106
-4.34166
-0.689624
-5.20443
1.49506
-0.499563
-0.280101
0.815809
-2.96032
0.620811
-4.20561
-0.218355
1.80465
-8.13802
2.85197
0.0194018
3.0224
0.00449399
-0.260213
0.222158
1.4863
1.44766
-2.99196
-0.259977
-0.295248
0.202083
1.20425
3.31105
2.24071
0.594434
-0.996372
0.915237
0.059976
1.94182
-0.0698765
1.0205
-0.264288
-0.480343
-4.26464
0.684604
0.0412017
-4.33679
1.12817
1.0806
2.77156
2.95702
-5.26002
-5.38977
0.0947773
-1.50573
2.89299
0.159843
-0.631107
0.767104
1.2385
-0.320383
0.141838
0.161993
-0.0908056
1.56348
-0.220088
0.562871
-0.0760988
-1.15573
-2.76072
-0.414983
-2.78655
-2.57287
1.87221
-1.09668
-0.630703
-0.540487
0.128897
3.1421
1.28327
1.58464
-0.576767
0.881366
-0.0599047
0.719722
0.543559
-0.522558
-4.37225
2.88501
1.77676
0.00158181
-4.85551
3.24866
-0.763074
-5.28758
-0.221181
0.896421
-0.958805
-0.289817
2.49535
-0.0914991
1.56341
0.707959
-0.281128
0.187542
-0.720377
0.848449
-2.95659
0.0444556
0.557692
1.65294
-1.21677
-5.45617
0.165943
-0.771127
-1.74146
-1.6024
3.05376
1.13224
-7.74874
0.853269
0.46043
2.70541
0.977051
-4.7317
1.05165
2.12549
1.85055
-1.07495
1.50241
-0.0215386
2.86182
0.038734
1.72715
-7.7652
-0.988983
0.0215409
-0.359977
1.04796
0.60912
-5.15987
-1.27212
1.98845
0.0162566
-0.122093
2.3424
1.34765
2.28028
1.57916
-1.35205
0.0200399
0.0815564
1.67578
0.00176126
2.09521
1.34372
2.8333
-0.406034
2.22019
0.903863
2.84966
-0.254873
-1.05943
2.92333
-0.46404
1.31819
-7.65037
2.53527
2.81264
1.81542
-2.56667
1.67639
2.17735
-1.2117
0.768936
-0.652792
2.32578
-0.541111
-0.0654536
-5.38613
-5.44644
2.13709
0.875521
-7.18226
0.89859
2.81139
-0.791488
-0.215412
-5.57184
-1.34146
1.44885
-0.316938
1.61015
1.58117
-6.98747
3.13959
-0.13153
2.39492
2.38892
-0.0470021
0.00529223
1.50755
-2.3131
-0.415886
1.50071
1.28827
-0.563195
1.58962
-0.200411
2.46314
1.8266
0.682936
0.132601
1.8882
-0.135437
1.0587
2.23763
0.358918
0.0208661
2.16565
1.80674
-1.06372
-4.49736
1.31963
1.89157
2.85686
-5.02646
3.01191
2.92882
3.05513
-0.120356
2.09525
-7.47938
1.68379
2.26918
2.19473
1.87163
2.47272
3.31022
1.47801
-5.16584
0.275045
-4.01529
3.27728
0.927616
-0.0246574
-0.844594
1.59874
2.48089
1.57229
0.607704
-0.239936
2.46607
-3.52582
1.81328
-0.954192
0.801985
-0.051182
0.611215
1.11163
-5.289
-4.85352
-0.0175836
-0.737076
-0.0963604
2.05286
-0.311458
0.174275
1.57046
-7.62957
1.09786
0.0195447
-6.30455
-7.51323
-5.10666
2.36406
2.53282
-0.646628
0.681887
2.16263
1.97191
0.0263536
-3.57274
1.84669
-5.36272
2.31592
-5.16566
2.25487
1.09045
0.277101
2.10199
1.1284
2.21113
0.642755
0.820368
-0.936891
-4.52595
-11.4441
-0.180664
2.1684
-4.74014
-0.454989
-4.18345
2.3983
2.19338
0.642426
1.2705
2.42744
-2.51959
1.60837
-0.143083
-1.01655
1.60032
-0.764676
-6.91535
-1.4943
-5.22744
-0.560846
-8.52846
-0.154106
-8.46744
-4.43014
1.39049
2.88119
3.13951
2.74125
-5.27717
1.83334
-8.49994
1.55745
2.41828
0.28544
2.12754
-3.69206
0.629005
-0.99244
-0.0944545
2.3175
-1.1338
1.91572
-6.26246
-0.403115
-5.21789
1.93781
1.89865
1.68303
-8.26858
1.59068
-0.0820308
-6.34148
-5.69948
0.585814
2.90277
-2.89374
-0.565801
-1.09876
1.61278
1.61831
-0.124116
1.08077
-8.19799
2.46232
2.23576
-0.367138
-0.327061
2.40777
-0.774279
-13.0197
0.035892
2.19612
2.47372
-6.65656
1.23663
-0.172864
2.82926
-8.43094
-1.38223
-0.11294
2.66576
0.0192786
-0.911761
-0.0303683
2.30634
1.3505
2.28268
-0.165115
-2.70761
1.87465
3.24509
-4.71198
1.54323
-0.0275856
-6.64086
-0.00276408
0.646678
-1.21931
1.21152
-0.203661
1.13012
-0.170316
-1.36762
2.08587
2.50421
1.57803
-2.16658
-1.37044
1.96683
-7.35077
0.67699
-0.999927
0.855957
-10.5564
1.8284
1.96781
-0.0484691
1.85465
2.80485
-0.394315
1.40315
1.90702
-5.34139
1.0645
-0.657309
0.852803
0.675007
1.34403
0.00624968
0.607743
-0.421099
-3.14501
2.35882
0.734851
0.269677
-0.916897
-0.384391
1.73982
-9.38368
3.04383
-7.30308
-5.23281
-0.00908981
2.13973
1.9148
2.25886
-3.58276
2.70294
-6.79856
1.36484
0.0735074
-6.48536
1.56532
0.791001
-0.476736
1.17157
-4.57784
1.3807
-5.24651
-0.92354
0.0128926
-4.25245
-5.06684
1.52385
2.76588
-0.91492
-7.94552
2.16525
-3.1488
2.52229
0.838455
0.0738672
0.979909
1.69716
0.898705
-0.0765305
0.182015
-0.0105617
0.463475
0.658824
-7.91262
-1.13475
0.0743534
1.04938
-0.156992
3.28711
1.82576
1.67746
2.55115
0.318245
1.87947
-3.19978
-2.7012
-1.53198
1.69252
3.21399
1.56364
-1.16852
2.35967
1.61106
1.63249
-0.308786
-0.0387436
0.912015
3.06031
0.140589
-1.35397
2.23824
2.40886
1.79648
1.65908
2.04265
1.18523
-0.112576
-3.5122
1.84965
-5.03531
-4.40082
1.62315
-2.14766
0.109228
0.622476
1.84201
1.91138
1.93197
-0.103738
2.25184
2.30615
0.367018
2.03009
1.77035
1.41789
1.30559
1.18578
0.881503
-0.131979
2.13741
2.01936
0.100859
1.55738
-0.125573
-0.00249366
2.74135
2.09212
0.0116473
-6.38378
0.250818
2.15611
1.23465
0.413429
-0.0533473
0.186697
-0.56624
0.311817
-2.1263
-0.274882
1.27855
-0.306283
-4.4821
-8.42929
2.6
-1.15177
-4.6923
-2.7955
2.77371
-0.246255
0.431841
0.384788
-6.26574
1.35008
1.58454
1.09257
2.45702
1.34533
0.0489752
-4.37883
-5.45392
0.0244062
1.95511
0.147266
-7.38155
-7.99365
-0.631536
-4.76877
-2.15975
-3.54669
-0.379578
0.664101
1.65992
2.19881
-0.500249
-0.128792
2.46493
1.86326
-6.32023
-0.177947
-3.95368
1.05377
0.0961963
0.94093
1.44396
0.0289839
-0.301237
-0.417357
0.492469
-6.12023
-4.88294
0.0832899
-3.41497
-5.30791
-7.10845
-4.3746
0.115038
-3.19189
0.876749
-7.22557
1.66295
1.50117
0.475974
2.16515
-7.78488
2.78533
-1.13237
0.11643
-1.40484
1.66011
1.02971
-4.43647
-2.72113
1.71767
2.03513
2.88494
-7.28079
-5.41062
-6.1352
-0.337527
0.00623083
-7.54848
0.670086
-5.55481
1.00085
-8.08211
1.32269
0.245639
-0.18108
2.52153
1.49445
-1.10995
-0.0172273
-1.98647
-5.23603
2.1803
3.14557
-5.43383
2.07323
1.56039
0.00343652
-0.0844369
2.10841
2.0283
-3.80774
-0.210533
-1.82253
-7.58534
-1.30104
-6.95825
-1.14635
1.14231
-0.0662784
1.8554
-9.14695
-7.51798
1.58059
-1.18061
-5.49139
0.126713
1.30995
-5.61434
-0.709282
-7.41509
-7.23433
-5.41125
2.92791
-2.82977
-0.26568
-8.80854
1.82467
-5.24209
-0.0830306
-3.37589
-13.532
-0.974817
1.90531
0.010861
-6.9091
1.45497
0.0210102
-1.13985
-6.65154
-9.10294
1.22412
1.39614
1.68774
-3.16324
2.51545
-0.787595
0.00391109
-0.0725422
-2.61917
-4.1876
-8.10169
-3.38822
0.415226
0.745816
-0.245453
-0.323987
-1.69835
1.58706
-12.5968
1.76511
-8.54334
1.08735
-0.545733
-0.0336546
0.0572471
3.20598
-0.158669
-5.80271
-2.88705
-1.65316
1.68814
-0.205483
0.0768256
0.0519602
-7.59176
-6.76964
-4.48335
-6.32155
1.85561
-10.8671
0.258934
-7.19639
-0.0651372
1.46112
-0.018157
0.794806
-0.656379
2.21565
-5.21856
-1.88284
2.36859
0.700475
-5.17157
-0.339314
-7.00147
-1.60554
-0.449801
2.15862
-1.08945
0.758559
-5.32349
-5.7616
-12.775
-11.6647
-4.90858
1.04407
-0.344225
1.65559
0.681167
-8.85309
-0.561507
-5.52029
2.07294
2.49512
-6.18956
0.161221
1.78678
1.66264
1.35525
-2.60608
-4.10805
-3.86265
1.6955
0.519885
-1.82684
-8.7865
0.993436
2.00083
-0.253083
0.104403
0.11178
2.33959
-1.80684
-1.94577
-0.0215193
1.46053
0.179589
0.035898
2.53087
2.08298
-0.211995
-4.20839
2.13325
0.87008
-0.0827891
1.57839
-0.795709
-3.54906
-4.68291
-3.73611
2.04666
1.81141
-0.254806
-1.02235
-0.0111555
0.0396166
1.84636
-4.6929
1.30783
2.23036
2.38559
-0.484309
1.67049
1.50228
1.88366
1.99358
-0.153194
2.00182
0.0057062
1.68611
0.96857
1.81484
-5.01625
2.10468
2.01129
1.52442
1.13822
-1.63042
1.21098
0.0192396
-1.31459
2.28398
2.24436
-3.29825
1.88448
-3.28866
-4.91067
1.82229
1.8122
-3.12422
-0.114094
-5.3465
-4.11174
-1.31018
-0.713597
-3.46618
-0.401556
1.53861
3.0173
2.13195
-0.564732
-0.299287
1.79928
0.919164
-0.0854381
-3.69812
-1.29921
-1.90466
-4.7655
-4.54797
1.6127
-0.0442446
0.868946
0.0334391
0.0320761
0.00349634
0.0342553
0.425616
0.901974
1.17422
-1.07256
0.865167
-2.96857
-11.4416
1.17666
0.957435
-0.192966
0.140609
1.15103
-0.0923016
0.69805
-1.06662
1.66051
1.39472
2.6712
1.68502
-2.61563
-0.412728
-1.02816
-1.14442
-0.0464356
-0.0126859
-0.322277
-3.23584
3.07378
0.0984083
0.0644326
2.48868
-1.22757
-0.974654
-0.0730202
-5.19385
-4.13775
0.564577
-1.5666
1.65612
-0.410814
-2.30902
0.0899647
-0.654812
-1.34074
-0.0885382
-0.1939
1.33299
-0.523174
-0.786894
-1.69217
0.682709
-1.71951
1.80347
2.55351
-1.08233
1.83818
0.98069
1.24271
2.80566
-1.70949
1.05436
0.902698
0.806178
2.4149
-0.40549
-0.335212
-0.0943016
1.77546
2.55096
-1.08804
-0.128182
-2.08825
-1.56217
0.902137
-1.8435
-2.66114
-1.3017
0.708652
-5.34442
0.387429
0.570708
1.48681
0.294096
-5.11153
-0.129073
-0.0876105
-0.23384
2.71737
3.03644
2.26973
3.18032
1.51296
0.797243
1.91511
1.66698
1.55553
-1.89009
1.72478
-0.397468
-4.62877
2.48481
-0.437861
-1.63637
2.90129
0.0685358
-8.49169
0.931948
0.8094
2.04726
-3.44468
1.56805
2.67308
-1.36648
-4.89993
-2.17223
1.19604
-7.80948
2.17308
-0.164093
2.05509
1.67862
-0.87121
1.96917
-0.917622
-4.92601
-5.15604
-2.53865
2.04431
-1.72081
1.73539
-0.108776
-7.30551
-0.185044
-0.0380391
-1.51461
-1.56472
-4.23
2.07128
0.377058
-5.28926
-0.63872
1.11766
0.459041
-4.30389
0.85394
-0.180007
0.876649
-5.37511
1.01871
0.484575
1.074
-0.245848
1.56899
1.04824
0.55242
-5.22432
3.17266
-1.30052
-6.59537
1.57264
1.38997