/*--------------------------------*- C++ -*----------------------------------*\
| =========                 |                                                 |
| \\      /  F ield         | OpenFOAM: The Open Source CFD Toolbox           |
|  \\    /   O peration     | Version:  2306                                  |
|   \\  /    A nd           | Website:  www.openfoam.com                      |
|    \\/     M anipulation  |                                                 |
\*---------------------------------------------------------------------------*/
FoamFile
{
    version     2.0;
    format      ascii;
    arch        "LSB;label=32;scalar=64";
    class       volVectorField;
    location    "3.5";
    object      U;
}
// * * * * * * * * * * * * * * * * * * * * * * * * * * * * * * * * * * * * * //

dimensions      [0 1 -1 0 0 0 0];

internalField   nonuniform List<vector> 
5098
(
(2.61857 0.841326 0)
(2.1476 0.0296339 -3.06182e-20)
(2.27124 0.0665563 -2.65298e-21)
(1.57609 -0.712579 7.44748e-19)
(1.93854 -0.450218 0)
(0.912726 -0.441444 0)
(2.30735 0.0125691 -1.00313e-20)
(2.28447 -0.183377 1.07964e-21)
(2.39484 0.0752355 -5.37668e-20)
(2.11606 -0.264926 9.79063e-20)
(1.29397 -0.730884 0)
(2.24355 0.000170299 1.64933e-19)
(2.51575 -0.431373 -8.80228e-21)
(0.961862 -0.468462 0)
(1.88269 -0.199718 6.00281e-20)
(1.93655 0.0296518 8.51124e-22)
(1.15278 -0.558672 -4.67299e-20)
(0.98394 -0.804948 0)
(-0.537623 0.0131346 5.44893e-19)
(1.01887 -0.493159 5.27654e-20)
(1.8265 0.528588 -7.14304e-20)
(1.94472 -0.00156734 4.62644e-21)
(2.1435 -0.833926 0)
(0.784803 0.0152358 2.8481e-20)
(0.220666 -0.249862 0)
(1.51774 -0.608561 0)
(1.97553 0.018354 1.21702e-19)
(1.89049 -0.79906 1.96033e-19)
(-0.256744 0.37892 -1.64594e-18)
(1.72258 -0.756213 0)
(2.42055 -0.158199 -1.05411e-19)
(0.738069 -0.359178 0)
(1.95741 -0.0515959 -1.37128e-19)
(1.39223 -0.690556 0)
(2.45319 0.241286 -4.40171e-20)
(3.27673 -0.293362 1.4265e-18)
(1.91345 -0.473166 1.44284e-19)
(1.99685 -0.0722248 -1.89091e-21)
(1.37679 -0.453129 5.44792e-19)
(1.4127 -0.656355 0)
(1.58338 -0.725987 -3.50427e-19)
(1.71568 -2.01956 -4.97394e-19)
(1.53344 -0.616026 0)
(2.75085 0.153406 2.52505e-20)
(2.44208 0.508064 4.86596e-20)
(2.09445 0.00362919 5.84689e-21)
(1.20616 -0.58572 1.70805e-20)
(1.11249 -0.381034 0)
(2.42891 -0.206287 0)
(1.57872 -0.676976 7.93776e-20)
(2.23549 0.145481 4.09635e-20)
(1.64803 0.485608 -4.44801e-19)
(-1.73531 0.741697 -3.09233e-20)
(2.09387 -0.039821 1.68449e-19)
(0.977047 -0.489074 -3.32198e-19)
(1.62117 0.078185 0)
(1.91183 0.241504 -2.40053e-19)
(1.67169 -0.69664 0)
(0.875166 -0.432225 0)
(1.94498 -0.000827381 -1.39317e-20)
(1.5157 0.339532 2.23649e-20)
(0.58723 -0.284984 -5.56426e-20)
(2.46717 0.279137 0)
(2.48427 -0.411527 0)
(-1.82618 0.670514 1.83882e-18)
(0.828729 -0.415784 4.14987e-19)
(2.07261 0.0455709 5.49613e-21)
(2.30929 0.156454 5.10363e-21)
(2.11891 -0.278576 1.75053e-19)
(1.7101 -0.728468 2.32175e-19)
(1.90743 0.190724 1.49337e-20)
(1.49838 -0.478521 -2.16477e-20)
(1.9652 -0.817251 0)
(1.39544 -0.557637 0)
(1.7541 0.0900884 6.92478e-21)
(1.14878 -0.56373 -3.80565e-19)
(1.88531 0.14294 0)
(1.55578 0.197515 4.18102e-19)
(2.74525 -0.233468 4.09678e-20)
(1.6478 0.145798 0)
(1.76756 -0.00591128 0)
(3.07333 -1.74659 4.76771e-19)
(1.71907 -0.329067 5.09552e-19)
(1.40836 -0.700667 -8.20423e-21)
(1.01765 -0.903854 4.12922e-20)
(1.55932 -0.68728 1.94468e-19)
(0.111243 0.238973 -2.60081e-19)
(1.87237 0.194211 1.15146e-21)
(2.32615 -0.217782 3.86812e-20)
(1.56809 0.303598 -2.03821e-21)
(2.30764 -0.27156 -7.5868e-21)
(-1.7441 1.40114 1.16361e-18)
(2.39527 -0.0215192 -2.02795e-19)
(1.59516 -0.696798 -3.97098e-19)
(1.35718 -0.479604 9.61572e-20)
(1.48222 -0.568126 4.92686e-20)
(1.06455 -0.534763 -3.19073e-19)
(1.45964 0.287091 3.09153e-19)
(1.76878 0.0911111 1.44568e-21)
(2.06464 -0.518878 -1.18224e-19)
(1.73401 -0.788291 -5.55346e-20)
(1.03331 -0.510275 -3.94306e-19)
(-0.0377774 -0.0635253 -1.26843e-20)
(2.14903 0.160767 -1.86814e-20)
(1.55123 0.172525 -4.75228e-19)
(2.43856 1.00603 0)
(1.94064 0.21399 2.54521e-19)
(2.22428 0.123116 3.85385e-21)
(1.06703 -0.436834 7.4256e-20)
(1.25806 -0.725933 0)
(1.07225 -0.517177 -8.54873e-19)
(1.84783 0.739441 8.1277e-19)
(1.87181 0.00350128 -2.52643e-19)
(-2.24804 1.49875 2.83786e-19)
(1.76503 0.618806 1.02086e-19)
(0.523296 -0.237264 0)
(2.78985 -1.64259 6.82003e-19)
(2.78682 1.31707 0)
(1.99309 0.127756 1.17668e-20)
(0.816268 -0.0328658 -4.37831e-19)
(1.69969 0.454353 3.65201e-19)
(1.65723 1.92168 -5.9475e-20)
(2.08211 -0.304966 -6.256e-20)
(1.04292 -2.17138 -6.46438e-19)
(-1.79953 1.72461 -1.65087e-18)
(0.530389 -0.255609 6.25062e-21)
(2.10487 -0.0226537 1.38348e-19)
(2.12432 -0.799058 -2.31502e-19)
(1.41409 -0.183398 -1.1429e-19)
(-2.38282 1.54049 -5.42136e-19)
(0.0973565 -1.16694 -2.49824e-19)
(1.15493 -0.517084 -5.47153e-19)
(1.18252 -0.514801 4.58225e-19)
(2.6659 1.367 -1.38269e-19)
(1.62204 -0.672575 -1.41549e-19)
(2.32543 -0.594507 2.2218e-19)
(2.09722 2.43378 6.2023e-19)
(1.92415 0.21736 1.7246e-19)
(0.890438 -0.436202 0)
(2.08686 -0.0909413 -5.47272e-19)
(1.63158 0.573862 -2.94232e-19)
(1.31682 -0.308561 3.12545e-20)
(1.79029 -0.814195 3.74896e-19)
(2.31849 0.00662851 -1.34463e-20)
(2.04228 0.0831674 -3.92061e-20)
(2.07584 0.116612 0)
(2.11783 -0.277542 1.81176e-19)
(1.80447 -0.498228 0)
(2.45278 -0.0695942 2.92668e-19)
(1.66991 -0.766762 1.40877e-19)
(2.09732 -1.46561 -1.85864e-19)
(2.5368 0.401493 0)
(1.8166 -0.519682 5.17127e-20)
(1.98107 0.0497597 0)
(0.100639 0.140011 -3.27148e-19)
(0.851069 -0.335794 -1.81823e-19)
(1.6707 -0.687077 -4.16468e-19)
(1.71951 -0.744467 -3.99999e-20)
(1.52598 -0.716958 -2.86954e-19)
(-0.373548 0.112857 1.67552e-18)
(1.98026 -0.452684 -3.92424e-19)
(1.90202 -0.196688 -8.3054e-20)
(1.88271 0.158548 -5.09515e-19)
(1.84597 -0.20435 -3.14237e-19)
(0.73755 -0.70283 -4.11555e-20)
(2.51406 -0.143213 -1.02572e-19)
(1.88602 -0.503194 -1.801e-19)
(2.36804 -0.583829 0)
(0.235654 -0.320949 7.64191e-20)
(1.72033 -0.572569 -4.55471e-19)
(1.63241 -0.504124 -3.49303e-20)
(1.58462 -0.649281 -2.70428e-19)
(2.26674 0.612596 8.39848e-20)
(1.88608 -0.767895 3.5012e-19)
(2.5778 -0.0259915 0)
(1.95057 -0.0114188 0)
(1.71814 -0.297034 -1.97287e-19)
(3.21888 -0.231002 -7.23499e-20)
(1.78295 -0.165927 4.35553e-19)
(0.302546 0.0793302 0)
(1.93053 2.35571 0)
(2.64427 -1.30316 -5.21334e-19)
(1.79008 -0.5699 5.59874e-19)
(0.683681 -0.640245 0)
(1.85818 -0.193816 0)
(2.75975 0.648762 5.60568e-19)
(1.5165 0.309911 0)
(1.91694 -0.447436 4.95854e-19)
(1.01011 -0.494818 7.38611e-19)
(-0.926267 -0.0677569 -6.73907e-19)
(2.10754 0.896269 0)
(1.58539 -0.265087 8.68992e-20)
(1.98876 -0.834999 0)
(1.73828 0.0796796 6.72406e-21)
(2.48456 -0.173484 1.13521e-20)
(-2.05492 1.52903 -1.27591e-18)
(3.22454 -1.18032 3.96216e-19)
(2.39674 -0.640318 0)
(1.96507 -0.0166147 -5.31641e-21)
(1.74638 -0.557851 -8.26054e-20)
(-0.213107 -0.864879 -4.97686e-19)
(1.68456 0.394193 5.59095e-21)
(2.49528 0.53155 1.18355e-20)
(2.2218 0.0274595 4.06897e-21)
(1.60997 -0.0885085 1.98603e-19)
(0.821542 -0.34188 -1.30062e-19)
(2.50081 -0.0359152 -1.53313e-20)
(1.2139 -0.559034 0)
(2.23551 -0.0308639 0)
(1.28726 -0.625519 -3.88742e-19)
(1.96124 -0.177088 -1.59986e-19)
(1.72933 0.363357 2.9683e-19)
(1.69137 -0.270041 -8.74565e-20)
(2.00575 0.0818097 -1.38227e-19)
(2.09578 -0.0482166 -1.54044e-19)
(0.911105 0.290696 -4.57979e-19)
(1.76345 0.0246591 0)
(1.20441 -0.747614 -6.91409e-20)
(-1.90241 1.78101 2.21258e-19)
(1.93934 0.0365248 1.08518e-19)
(2.33154 -0.280397 -2.8393e-20)
(1.62307 -0.360225 0)
(2.00889 -0.0157556 1.37021e-20)
(2.3381 -0.326014 1.45778e-19)
(-2.31801 1.22559 3.24925e-19)
(2.05465 -0.192471 0)
(0.425914 -0.113316 0)
(2.00615 0.0401553 0)
(2.02501 -0.518327 0)
(1.74502 -0.694502 4.32825e-21)
(1.84009 0.439374 0)
(0.627676 -0.268604 -4.7526e-19)
(3.02196 -1.25477 -3.86939e-19)
(2.08526 -0.00772022 -6.9396e-21)
(2.57358 0.000800348 -6.46304e-20)
(2.36804 0.0637983 0)
(1.50942 1.4484 -1.47045e-19)
(-0.984246 -0.879675 -1.97856e-18)
(2.74561 -0.417157 0)
(1.87651 0.000795253 3.12339e-19)
(2.8972 -2.01496 -1.6548e-18)
(2.26073 0.633899 0)
(2.1599 0.0927137 0)
(1.04865 -0.238956 8.01593e-19)
(1.78791 0.492725 -3.72477e-19)
(2.34795 -0.105883 -1.91835e-19)
(1.08183 -0.515386 8.86446e-20)
(1.22794 -0.730202 -4.71591e-20)
(1.29729 -0.636274 0)
(2.36423 -0.10687 5.1565e-20)
(2.22079 0.754493 -4.02861e-20)
(1.89731 -0.797021 3.61557e-19)
(0.121371 0.115828 7.77185e-19)
(-0.59467 -0.917016 5.56398e-19)
(2.01187 0.05068 -2.28011e-19)
(-0.562451 -1.146 1.93974e-18)
(1.66333 -0.638764 1.23478e-19)
(1.29874 -0.436208 -4.10862e-20)
(1.14234 -0.402901 -3.36204e-19)
(1.92369 -0.000925778 2.60318e-21)
(2.75294 0.635161 8.23814e-20)
(-2.05553 0.845204 9.83546e-19)
(0.0219062 -0.163982 1.49764e-19)
(1.91217 -0.827968 0)
(2.02877 0.0240483 -1.77427e-21)
(0.92118 -0.477396 1.98623e-20)
(-0.264621 0.0637869 -1.95229e-18)
(1.28385 -0.775831 0)
(1.2987 -0.491321 0)
(1.82988 0.0127172 -2.88516e-20)
(-1.57742 0.188969 8.26568e-19)
(1.93049 0.0589713 9.72018e-21)
(-0.0966921 0.163097 -8.79352e-19)
(1.80629 -0.475641 0)
(1.16044 -0.471308 2.29943e-21)
(0.20275 -0.171441 9.01512e-21)
(1.58665 -1.90897 -3.6163e-19)
(2.07661 -1.18064 0)
(2.26871 -0.737225 0)
(1.93354 -0.11503 0)
(0.127746 -1.04357 -1.49855e-19)
(2.19225 -0.0636312 1.13449e-19)
(-2.434 1.19983 -1.32083e-18)
(2.1807 -0.0821346 -1.26077e-19)
(2.02566 -0.534982 -2.9318e-20)
(0.97824 -0.533965 0)
(1.99757 0.0280586 0)
(2.11331 0.145352 -5.22599e-20)
(2.49644 -0.103768 8.2572e-20)
(1.88903 0.0236252 -2.56109e-19)
(1.43627 -2.13655 0)
(-0.379829 1.95664 8.82492e-19)
(1.08688 -0.0379968 -2.34601e-19)
(2.41686 0.412676 4.56259e-20)
(1.9912 -0.630972 3.7601e-19)
(1.38036 -0.176828 -4.25606e-20)
(2.43661 0.167134 0)
(2.46304 -0.175062 -9.11614e-20)
(2.013 0.0222132 0)
(1.9464 0.0732988 -1.37164e-19)
(2.11707 0.153159 4.23181e-20)
(2.47425 -0.0273981 1.05646e-19)
(1.61398 -0.436061 5.28114e-19)
(1.826 0.43943 2.08801e-19)
(0.820741 -0.418212 -3.16602e-20)
(1.81228 -0.737438 -2.21754e-19)
(2.64702 1.79993 -1.59596e-19)
(2.0322 0.0146419 0)
(1.85546 -0.445619 0)
(1.26048 -0.626854 0)
(2.29496 -0.267526 3.72195e-20)
(-0.232376 0.720236 7.61446e-20)
(0.839295 -0.417921 4.36711e-19)
(1.91133 0.00617658 -2.36177e-20)
(2.56204 -0.428578 -3.47229e-20)
(0.180556 0.0624364 6.42093e-19)
(1.99449 2.28149 -6.71741e-20)
(2.13765 0.0294747 -1.22396e-20)
(2.27863 -0.15189 5.10219e-19)
(0.901358 -0.385434 0)
(2.78201 -0.134981 -3.55505e-20)
(-0.443402 2.09913 -1.70736e-18)
(2.63934 -0.244041 -3.90147e-19)
(-0.930933 1.21838 -2.79833e-20)
(1.79693 0.117048 9.67911e-22)
(1.35955 -0.425247 3.66745e-19)
(2.19607 0.755794 0)
(1.93423 0.0907088 -8.81347e-20)
(1.07543 -0.442742 -7.84917e-19)
(2.00124 0.101589 -1.06828e-20)
(1.28713 -0.625487 0)
(2.24328 -0.142813 -1.45746e-19)
(1.04211 -0.502617 2.46595e-19)
(2.31044 -0.733506 -1.05529e-19)
(1.73616 -0.732794 -3.14104e-19)
(2.22045 0.0515878 -4.07154e-20)
(2.40472 -0.367033 8.17469e-21)
(0.964983 -0.478601 4.8177e-19)
(2.21152 -0.1002 2.16821e-19)
(1.85269 -0.387181 0)
(1.81154 -0.825951 -3.54736e-19)
(1.69402 -0.730623 -9.4969e-19)
(2.64944 -0.187692 1.9784e-20)
(2.01349 0.0751017 3.70134e-20)
(2.43753 1.39387 0)
(1.84763 0.170729 0)
(2.07963 -0.0150098 -1.72883e-19)
(0.816789 0.500464 3.91735e-19)
(2.79139 1.23876 0)
(2.41498 -0.0250875 1.43895e-19)
(1.54042 -0.684679 -4.21237e-21)
(0.917675 0.339835 -5.74719e-19)
(0.891418 -0.388007 -4.19754e-19)
(-0.0563042 -0.940071 1.66915e-19)
(1.85358 0.0430343 1.75003e-20)
(0.104483 -0.836258 4.25125e-19)
(2.305 -0.582256 -1.84561e-19)
(2.33989 0.000377639 0)
(1.43981 -0.143626 -9.84575e-20)
(1.34259 -0.427966 0)
(1.98071 0.115462 -4.24375e-19)
(2.02689 -0.473163 0)
(2.2824 -0.0524289 -1.53658e-19)
(1.92297 0.189103 -7.73787e-21)
(2.77089 0.143895 -1.41517e-20)
(1.13414 -0.445165 4.4355e-19)
(1.93255 0.124028 -3.44516e-19)
(1.96975 0.0782161 -3.56141e-19)
(2.00315 -0.862472 0)
(-0.457217 -1.34057 0)
(1.21005 -0.48522 -4.37236e-19)
(2.85284 0.0560101 0)
(3.29593 0.237719 -9.127e-19)
(1.69838 0.33223 0)
(1.45086 -0.491189 2.89735e-20)
(0.755331 -0.364946 4.91202e-20)
(1.76957 -0.590141 6.65061e-19)
(0.818334 -0.363476 -2.27211e-20)
(2.35105 -0.552796 0)
(1.91143 0.175077 7.79746e-21)
(1.89744 0.00644646 -2.20464e-19)
(0.562289 -0.274806 -6.85547e-21)
(1.97702 0.0291826 -1.9443e-19)
(2.44244 -0.0898778 -6.65887e-20)
(2.48915 0.188601 -3.28704e-20)
(3.20087 0.791386 3.63725e-19)
(2.44626 0.368492 -6.59556e-20)
(-0.651945 -1.32267 -2.91176e-19)
(1.69732 -0.506657 0)
(-0.00739747 -0.0693557 7.7644e-21)
(1.98811 0.136314 -1.4921e-19)
(2.54967 -0.23064 0)
(2.00289 0.056003 1.28805e-19)
(1.14537 -0.554177 -3.21432e-19)
(1.67962 1.24497 1.2876e-19)
(3.69987 -0.877044 0)
(1.40107 -0.666734 1.17149e-19)
(3.21407 -0.274511 0)
(2.2486 0.0610725 3.16036e-20)
(2.1023 -0.170183 -8.84965e-20)
(0.323053 -0.1137 9.84091e-19)
(1.04876 -0.0599213 0)
(1.56495 0.272123 2.12975e-19)
(1.94364 0.0393496 1.35304e-19)
(0.54877 -0.277857 0)
(1.72919 -0.0161196 0)
(2.0237 -0.167606 0)
(0.135341 -0.0664747 7.00107e-20)
(0.419999 -0.134561 -2.40602e-20)
(2.44802 -0.115295 0)
(1.98 0.0394801 0)
(1.55687 -0.499935 6.11899e-20)
(-1.85776 0.349137 0)
(2.41446 0.390321 -1.09431e-21)
(2.92678 1.09372 2.05014e-19)
(2.03937 0.0787209 8.70301e-21)
(1.83131 0.429746 -3.67099e-21)
(0.931446 0.413389 6.61003e-19)
(2.99049 1.29543 -2.16741e-19)
(2.39459 -0.239917 6.66925e-21)
(2.03673 -0.0389308 1.48621e-19)
(1.60906 -0.177015 -2.38944e-19)
(1.86908 0.47171 -2.30067e-20)
(1.99923 -0.00145916 0)
(0.206353 -0.917858 -4.09543e-19)
(-1.89462 1.52598 0)
(1.30404 -0.582691 4.00267e-21)
(1.74186 -0.440475 0)
(2.85611 0.152736 0)
(1.28899 -0.616223 -2.64205e-19)
(2.0534 -0.0038762 -4.88549e-21)
(-0.349059 0.382483 -1.77181e-18)
(2.06177 0.0146669 6.81647e-21)
(1.81614 -0.710374 3.57959e-19)
(3.08304 0.976485 2.3593e-19)
(-1.05172 1.42945 1.67458e-18)
(2.10416 0.02993 2.44223e-20)
(2.10155 -0.844777 1.33837e-19)
(2.01038 0.0187908 -2.35668e-19)
(4.03925 -1.07838 0)
(1.81405 -0.128666 -4.52809e-19)
(1.83637 -0.487714 3.70189e-19)
(2.03144 0.149753 -4.99214e-19)
(0.833934 -0.406194 -3.82004e-20)
(1.60031 1.24057 -1.28714e-19)
(2.8963 1.17561 3.08731e-19)
(2.67065 -0.631562 0)
(1.92152 -0.174923 0)
(1.1654 0.640047 -7.19519e-19)
(2.13662 -0.146427 9.18147e-20)
(1.31119 -0.647262 0)
(2.2933 -0.117783 -1.29513e-19)
(2.0296 -0.00262412 -2.81392e-19)
(1.13872 -0.563485 -2.41275e-20)
(1.34163 -0.694583 1.00199e-19)
(2.53835 0.196324 -4.74061e-21)
(1.5079 -2.01713 3.01451e-20)
(2.38318 -0.374403 -2.78661e-19)
(1.96499 -0.477185 2.57208e-19)
(3.3524 0.793652 8.11963e-19)
(1.54868 -0.636293 3.42849e-19)
(1.97869 0.107133 -9.97201e-22)
(1.00953 0.248559 4.80992e-19)
(2.14269 2.10265 0)
(1.70629 -0.47637 2.14858e-19)
(1.1265 -0.778957 0)
(-2.36039 1.19571 -3.72528e-18)
(2.27363 -1.94699 0)
(0.571432 -0.266248 -1.23559e-19)
(1.64053 -0.709854 -4.80854e-19)
(2.59364 0.714168 -3.88142e-19)
(2.07002 -0.853483 0)
(1.45685 -0.647265 0)
(2.63848 -0.425603 0)
(2.01763 0.124868 1.10941e-19)
(3.62331 -0.607457 -2.62502e-18)
(-0.120234 0.133626 1.37502e-18)
(1.6022 -0.333645 -7.32812e-21)
(3.50228 0.768447 -8.92482e-19)
(2.00191 0.164708 0)
(1.23683 1.9468 2.11243e-19)
(2.56498 1.24262 1.3698e-19)
(2.56774 0.113309 -5.84187e-19)
(1.54754 -0.722612 2.97685e-19)
(2.96939 0.0325018 -4.03477e-21)
(1.15744 -0.563246 5.38302e-19)
(2.22775 0.497819 0)
(2.1125 -0.0976165 8.67721e-20)
(1.36176 -0.420019 3.92248e-20)
(1.97899 -0.0652806 2.89034e-20)
(3.30753 0.446343 -4.75311e-19)
(1.75312 -0.470902 0)
(2.59716 0.622336 0)
(3.55232 -1.21608 0)
(-1.23825 1.1554 0)
(1.89608 0.0216447 0)
(1.43346 -0.534199 1.47336e-19)
(3.73326 0.592537 6.30258e-19)
(1.4718 -0.608182 4.08051e-19)
(2.0366 0.021203 2.31877e-19)
(1.01206 -0.782312 0)
(2.06796 -0.868372 2.87498e-21)
(-0.563363 -0.119463 0)
(1.10829 -0.897147 -7.26093e-20)
(-0.579 0.0784968 7.33635e-19)
(4.09037 0.250084 -3.91474e-19)
(1.9489 0.0780812 2.51763e-19)
(1.99394 0.20426 -7.54742e-20)
(3.65965 -0.694326 -4.51488e-19)
(2.37282 -0.0383612 0)
(-1.82409 1.98475 1.56689e-18)
(1.99705 0.0323007 0)
(1.57273 0.885934 1.68764e-20)
(2.50325 -0.109805 0)
(2.09112 0.216203 -9.72229e-20)
(2.1061 -0.125609 0)
(0.935485 -0.359711 -2.96286e-19)
(-1.26603 0.154213 9.27322e-19)
(2.00306 -0.103751 -8.69366e-20)
(1.35709 0.370946 4.26984e-19)
(0.246137 -0.125478 -1.44331e-19)
(1.90087 -0.425459 0)
(1.02334 -0.210634 -1.1343e-18)
(1.96624 0.129445 5.65101e-21)
(3.79797 0.0417961 -1.3256e-18)
(1.91363 -0.0102228 8.58042e-21)
(2.78583 -1.26727 9.30477e-19)
(3.67175 0.460218 0)
(1.77706 -0.798626 -7.66313e-20)
(1.45336 -0.66316 0)
(2.56471 -0.190933 1.07788e-20)
(0.480157 -0.142604 7.27173e-20)
(0.668885 -0.9607 0)
(2.42002 0.388931 0)
(1.63246 -0.704418 -8.11597e-20)
(2.54876 0.561303 0)
(1.774 1.75417 5.95732e-20)
(3.02715 0.79348 -3.66219e-19)
(-2.43515 1.44602 -1.13156e-18)
(1.34601 -0.658499 -4.07552e-20)
(1.98919 0.0512791 -8.15579e-21)
(1.02258 -0.586965 -9.93921e-22)
(-1.4955 0.461656 -6.74225e-19)
(1.85163 0.00535983 4.80157e-19)
(1.06135 -0.52004 2.73983e-20)
(0.422653 -0.202123 0)
(2.39421 0.16596 -8.6131e-20)
(1.53964 -0.695751 1.00923e-19)
(0.414067 0.217895 7.86308e-20)
(3.59937 0.232254 9.63965e-19)
(2.91006 1.55703 0)
(1.83573 -0.525197 -3.71944e-19)
(1.89877 0.461094 7.58508e-22)
(3.33352 0.585393 -1.04886e-19)
(2.48205 -0.132321 -2.81894e-19)
(1.34456 -0.72274 2.67687e-20)
(0.440739 -1.34344 3.28519e-19)
(1.48711 -0.594535 -9.84465e-20)
(1.31593 -0.689881 8.75301e-22)
(2.33674 -0.200465 -2.25037e-19)
(1.31717 -0.724654 -2.99915e-20)
(1.80566 -0.382259 0)
(1.91482 -0.168084 -4.37528e-19)
(-0.267268 1.74019 0)
(1.36779 -0.679616 -2.75209e-20)
(0.548647 1.00545 2.26967e-19)
(-0.596695 1.07803 1.08959e-18)
(1.97583 0.135429 -2.93394e-21)
(0.211011 -0.183971 1.32613e-20)
(-0.448031 0.552278 0)
(2.20037 -0.817523 3.53581e-19)
(2.17139 -0.856582 8.48291e-20)
(-0.632954 1.32967 -9.00607e-19)
(1.75841 0.521016 0)
(1.68144 0.520622 0)
(0.214814 0.330581 0)
(1.55957 -0.528618 -3.55479e-20)
(1.89011 -0.030729 -4.28356e-19)
(1.33535 0.161568 0)
(1.75949 -0.814573 0)
(2.32388 0.223408 -5.93071e-21)
(1.97172 -1.40883 3.73544e-21)
(2.16153 0.310073 -2.8264e-19)
(1.65416 -0.365999 -4.14113e-20)
(1.7969 0.0526888 3.77275e-20)
(1.95118 0.0368669 -2.14505e-20)
(1.94 0.179804 -1.75277e-20)
(2.0182 0.559766 -2.38498e-20)
(1.93373 1.18247 0)
(-1.24614 0.341181 4.48434e-20)
(-1.36912 1.97936 0)
(1.03429 0.134512 0)
(2.87521 0.119678 -4.67325e-19)
(0.840297 -0.842815 0)
(2.48579 0.30512 0)
(1.89457 -0.128255 6.73696e-19)
(1.88061 -0.830625 0)
(2.03071 0.257219 3.62412e-19)
(3.38282 0.351984 4.73091e-19)
(3.16932 0.370762 1.61562e-19)
(1.99566 0.11748 1.09901e-21)
(1.15827 1.30435 2.39375e-19)
(2.21591 -0.854741 4.07889e-21)
(1.96875 -0.784626 -6.42531e-21)
(1.18424 -0.463327 4.27348e-19)
(1.10417 -0.594144 0)
(0.953253 -0.470662 0)
(0.475649 -0.507298 -1.58739e-19)
(-1.112 0.0749325 -1.23721e-18)
(1.42909 -0.658556 0)
(1.07769 -0.560004 5.05667e-20)
(-1.54647 0.566656 0)
(-1.60253 1.98942 1.60111e-18)
(1.13962 -0.530077 -5.53597e-19)
(3.36105 0.121982 -2.21427e-20)
(3.12259 0.547654 3.84504e-19)
(1.23124 -0.420239 8.64803e-20)
(2.45318 -0.130381 1.26622e-19)
(2.32789 0.872164 0)
(2.47206 0.770655 0)
(1.09905 0.0175932 0)
(0.300571 -0.213029 -7.50803e-19)
(1.43239 -0.540271 0)
(2.33084 0.680358 0)
(2.03291 0.0364385 0)
(2.46618 -0.383086 -5.45249e-20)
(-2.12606 1.71303 5.63985e-19)
(2.04546 -0.789382 -1.94082e-19)
(1.50667 -0.570259 9.3234e-20)
(1.64215 0.280813 0)
(0.624335 -1.16841 0)
(1.98918 -0.598691 -3.42984e-19)
(1.59454 0.577697 6.28823e-19)
(0.0472173 -0.262438 -1.32006e-19)
(2.10377 0.175919 -8.30765e-21)
(1.74688 -0.457983 3.93275e-19)
(1.01528 0.425935 -1.03746e-18)
(-1.25725 -0.0466336 0)
(1.23409 1.31261 -5.61225e-19)
(0.396827 0.373077 -6.50064e-19)
(3.16643 0.189472 0)
(2.27762 -0.0144568 0)
(1.71828 0.0194598 0)
(2.05318 0.0206625 -4.14518e-19)
(1.39941 0.305921 -4.38454e-19)
(1.6871 0.144671 0)
(3.43159 1.37334 1.77312e-18)
(1.81375 -0.810883 3.59287e-19)
(2.48668 -0.346623 6.81186e-20)
(0.845046 -0.488661 4.45037e-20)
(2.07033 -0.288699 0)
(2.42566 0.0840923 5.52492e-20)
(1.80203 -0.426859 0)
(1.50264 -0.713359 -9.85938e-20)
(1.75251 -0.794619 0)
(2.14415 -0.781507 4.27638e-19)
(1.51309 -0.30053 5.98493e-23)
(2.03225 0.0650077 -1.00064e-20)
(2.48887 -0.370768 0)
(1.83589 -0.784259 0)
(1.61858 -0.698195 -5.02613e-19)
(2.32565 0.348148 1.20859e-21)
(1.20456 -0.845453 3.65091e-20)
(0.877188 -0.422821 4.33808e-19)
(1.92138 -0.0653097 0)
(1.59728 0.212295 -6.65574e-19)
(2.23951 0.0290048 -3.81437e-20)
(1.56976 -0.540459 -4.0065e-20)
(2.05013 0.10855 -1.29715e-20)
(2.05977 0.122412 0)
(1.19538 -0.350455 6.07995e-19)
(0.974023 0.191867 -6.63963e-19)
(3.73694 0.418505 1.03686e-20)
(1.8599 0.260045 -7.49342e-19)
(0.929029 -0.506424 3.78443e-20)
(0.207931 0.253919 -1.55635e-18)
(1.59431 -0.284408 -1.11198e-20)
(2.05001 -0.0521428 -3.89797e-20)
(1.83717 0.444095 1.54942e-18)
(-0.527242 0.123705 1.03212e-20)
(0.946715 -0.615761 7.138e-20)
(1.13035 -0.856349 7.66549e-20)
(1.78042 -0.0442352 2.58865e-20)
(2.3822 -0.195542 0)
(4.09451 -0.652489 2.45402e-18)
(1.15836 -0.564247 2.43339e-19)
(1.65526 -0.228171 2.35571e-19)
(-0.712295 0.048634 0)
(1.65052 -0.403644 -6.30897e-20)
(2.01142 0.0077574 1.18415e-21)
(1.92866 0.0869115 0)
(-1.90988 0.51895 7.17897e-19)
(1.41403 -0.90966 2.61618e-20)
(1.74449 0.33707 0)
(1.06829 -0.404663 0)
(1.61428 -0.503815 -5.91924e-20)
(1.6226 -0.609356 -1.26829e-20)
(2.78366 0.118032 1.67721e-19)
(0.31196 -0.319609 0)
(2.00942 -0.0178316 -3.77535e-19)
(1.99629 -0.487165 -5.92998e-20)
(2.20639 -0.756977 2.4449e-20)
(1.23643 -0.482938 5.37504e-19)
(0.878634 -0.719582 -6.56756e-20)
(0.985348 -0.967109 5.56173e-20)
(3.61307 0.380036 -8.97972e-21)
(1.93691 -1.16489 0)
(2.58418 0.869813 -1.41483e-18)
(1.60644 -0.643358 2.51659e-19)
(2.10941 1.97597 1.86636e-19)
(0.851605 0.599155 0)
(1.17411 -0.234027 -5.36883e-19)
(1.24238 -0.5292 -6.52117e-19)
(0.571255 -0.67186 9.85389e-20)
(-2.01801 1.86043 -1.74081e-18)
(2.52747 1.63657 0)
(-0.447536 -0.129573 -8.68185e-19)
(2.30504 0.595319 0)
(-0.596654 1.8458 -1.35125e-18)
(0.0165966 -0.40656 1.51226e-18)
(-0.424247 -0.829857 0)
(0.70956 -0.802516 3.22772e-20)
(1.63754 -0.115478 -9.74305e-20)
(-2.14414 1.49739 6.64139e-19)
(1.69582 -0.679492 4.56057e-19)
(0.308592 -0.430147 -2.99397e-19)
(1.20898 -0.55266 0)
(2.01833 0.00800592 1.33455e-19)
(1.91164 0.301544 0)
(2.27418 0.206168 -2.20654e-21)
(-0.423257 -0.102938 -1.62818e-18)
(0.585057 -0.232058 2.83386e-19)
(2.05332 0.126693 0)
(1.91676 -0.762693 -3.42909e-19)
(2.64355 -0.360199 1.10777e-19)
(0.830992 -1.01898 1.47973e-19)
(1.44239 -0.857805 0)
(0.863404 -0.959952 -1.31563e-19)
(3.54281 0.506497 -9.69187e-19)
(1.64965 0.210326 8.51908e-19)
(1.8525 -0.325801 0)
(2.09036 -0.157256 2.15351e-19)
(-0.323905 0.52731 9.69166e-19)
(-2.32876 1.42375 -3.49184e-19)
(2.20085 -0.586268 1.32899e-19)
(1.04498 -0.541192 0)
(1.71831 -0.145499 -2.54861e-20)
(2.00546 0.0538923 4.71162e-22)
(2.54608 -0.357437 1.03379e-19)
(2.19688 0.029302 0)
(0.639217 -1.28545 1.23234e-19)
(1.67553 -0.455827 -6.77511e-22)
(1.29893 -0.384036 6.6738e-20)
(2.89131 0.209517 0)
(2.07368 -0.807706 -1.5164e-19)
(0.449816 -0.600765 1.97601e-19)
(1.76675 -0.416791 -4.91691e-19)
(0.0633018 0.293194 0)
(1.55171 -0.446537 1.46965e-20)
(2.09484 -0.785522 1.24433e-19)
(0.875658 -0.566313 -7.45955e-20)
(1.78455 0.461286 0)
(-1.93057 1.21819 2.25152e-18)
(1.60476 -0.508757 0)
(0.141914 -1.30618 4.18807e-19)
(1.67748 -0.648411 0)
(1.87119 -0.0870155 -2.48913e-19)
(2.18842 -0.236822 -2.52856e-19)
(3.12925 1.24409 -8.93856e-19)
(1.56093 -0.461039 0)
(2.02662 -0.869758 -2.34858e-19)
(2.04368 -0.00856297 0)
(2.32666 0.374042 0)
(2.10691 -0.869644 6.76845e-20)
(0.371222 -1.17918 1.36161e-19)
(0.593167 -0.0672144 1.78195e-19)
(2.12813 -0.581855 -7.98632e-20)
(1.70153 0.318003 2.7615e-19)
(1.18337 -0.642578 -1.11465e-20)
(2.11859 0.400199 1.3197e-19)
(-1.46974 -0.00175742 -1.37804e-19)
(1.97329 -1.84034 0)
(2.42756 0.177869 0)
(-0.977582 -0.085766 0)
(1.35743 -0.727008 1.17557e-19)
(1.19626 -0.419652 -3.77598e-19)
(1.50028 0.123867 0)
(0.796332 -0.382762 1.10418e-19)
(2.30338 -0.159218 -1.74537e-19)
(0.996282 -0.501922 -4.08511e-20)
(1.41773 -0.508763 -1.22658e-19)
(2.19431 -0.876552 0)
(-2.3064 1.33044 1.88515e-18)
(-2.05791 0.590438 -1.82238e-18)
(-0.815232 -0.440244 0)
(-0.799289 -0.116015 -1.11548e-18)
(2.01757 0.00346357 -2.84714e-21)
(2.66053 0.207122 3.72169e-20)
(1.98375 0.0301627 2.49041e-19)
(2.83553 0.940099 -3.9613e-19)
(2.35614 0.117123 8.15992e-21)
(0.337576 1.57511 0)
(1.97539 -0.774738 0)
(0.634288 -0.301915 1.10145e-19)
(-1.43691 1.82894 0)
(1.65001 -0.377959 -6.39415e-20)
(2.18347 -0.789533 -2.24372e-19)
(1.00889 -0.476662 4.54688e-19)
(2.01817 -0.0832501 -7.51672e-20)
(1.76459 0.399832 -2.72441e-19)
(1.56929 -0.626892 -2.47689e-19)
(1.64993 -0.6644 -4.58853e-19)
(1.6064 -0.592036 0)
(1.74549 -0.686977 4.34631e-19)
(1.97718 -0.0460569 0)
(2.53307 -0.39393 -5.41218e-21)
(2.07243 1.25735 8.15967e-21)
(1.68656 -0.468307 -1.75486e-20)
(2.27376 -0.398968 -2.15288e-19)
(-1.42154 1.78182 -1.29099e-18)
(-1.48765 0.292311 0)
(1.58872 -0.832308 -3.32298e-20)
(1.18703 -1.77784 -3.01364e-19)
(2.2119 0.550125 -1.46311e-19)
(1.86029 -0.744941 4.01267e-19)
(2.11153 -0.00843945 -3.77301e-21)
(-2.09267 1.65007 6.12324e-19)
(1.82501 -0.768017 -7.86484e-20)
(0.372745 0.111706 0)
(1.09333 -0.549705 1.19972e-19)
(1.80413 -0.388314 2.59944e-19)
(1.96199 -0.00832271 -2.09245e-22)
(1.21346 -0.53414 9.56831e-19)
(-0.422549 1.41652 -3.65739e-20)
(1.69024 0.599198 0)
(1.37789 -0.714331 -4.70895e-20)
(0.678739 -1.14431 -1.265e-20)
(1.1086 -0.340358 -7.21758e-19)
(1.37464 -0.697959 5.36834e-20)
(3.06738 0.72855 -4.05792e-19)
(2.15767 0.407915 9.16259e-21)
(0.990922 -0.407679 3.26873e-19)
(1.80949 -0.369251 0)
(2.42316 0.121445 -1.39848e-19)
(2.17955 0.0135758 -3.81584e-21)
(3.12804 0.685397 -3.91445e-19)
(1.08151 1.13635 0)
(3.41075 0.695069 3.94912e-20)
(-0.774606 1.80515 1.30313e-18)
(1.65161 -0.721899 9.72672e-19)
(1.23597 0.859561 1.43923e-20)
(3.1317 -0.312747 -1.36785e-18)
(-2.37843 1.37892 3.97983e-18)
(2.03023 -0.767993 3.97578e-19)
(2.07617 0.00392812 -4.43835e-21)
(0.164084 0.116958 -7.87821e-22)
(2.48442 -0.112875 3.16649e-20)
(0.551955 0.0450269 0)
(2.04561 0.019849 0)
(2.36424 0.464274 0)
(1.79451 -0.695195 -3.77422e-19)
(1.70308 -0.701306 8.19561e-20)
(-0.422981 0.8641 0)
(1.25229 -0.380554 -1.56311e-19)
(0.0528264 -1.47338 0)
(3.12493 -0.743046 0)
(-0.170293 1.3557 0)
(1.99288 0.0204426 0)
(-2.05879 1.41943 -7.14577e-19)
(-1.63218 0.0976727 0)
(2.48847 -1.32237 4.11822e-19)
(1.69455 -0.046174 0)
(1.99444 0.0559094 0)
(1.96719 0.196485 2.6516e-21)
(-1.45747 0.143018 0)
(1.9065 -0.934373 0)
(-0.268252 0.255996 0)
(2.25312 0.0440571 2.14271e-20)
(2.15107 0.480089 0)
(2.19597 -0.855477 -8.67282e-21)
(1.04979 0.11751 -5.09081e-20)
(-2.29913 1.07498 -5.82426e-19)
(2.04021 0.055012 6.01152e-19)
(-0.181159 -0.00632674 -3.29292e-20)
(1.10582 0.85598 -5.48597e-19)
(1.52739 0.695044 0)
(2.41997 -0.359675 8.36996e-21)
(1.65598 -0.186313 -2.29999e-19)
(1.62643 1.62812 1.29894e-19)
(1.79464 0.402663 3.79988e-19)
(0.811163 -0.294487 -6.87444e-19)
(1.5564 -0.683172 -3.82469e-19)
(2.29151 -1.69287 6.0655e-20)
(1.50209 -0.917088 0)
(2.36286 -0.495312 1.69519e-21)
(1.58353 -0.87878 3.91951e-20)
(2.56772 0.22904 -7.97458e-20)
(0.121977 -0.351732 0)
(1.90292 0.0598212 -2.8199e-19)
(3.18314 0.595203 -1.11913e-18)
(1.39018 -0.555658 4.95142e-19)
(1.26769 -0.573396 -5.97921e-19)
(1.692 -0.781251 0)
(1.80043 -0.791895 0)
(2.20981 -1.19249 3.50311e-19)
(2.3238 -0.393631 -1.33493e-19)
(3.19679 -0.0606645 -5.76677e-19)
(1.84466 0.0177151 1.1326e-20)
(1.23521 -0.349797 -1.45165e-19)
(1.72824 -0.521985 4.16708e-19)
(2.4544 0.233614 0)
(2.32537 0.227001 2.72227e-20)
(-2.28506 0.919347 -2.82348e-18)
(1.76125 -0.998693 2.28964e-19)
(1.07235 -0.212371 -2.90592e-20)
(-0.471626 -0.0185087 9.11767e-19)
(3.12724 -0.00511767 4.8155e-19)
(2.56623 0.581315 8.84448e-20)
(2.40915 0.501793 0)
(1.27809 -0.79156 0)
(2.25728 -0.860316 -1.63578e-21)
(1.18292 -0.260943 0)
(1.8762 -0.38859 1.72948e-19)
(1.66427 0.266407 4.81321e-19)
(1.67885 0.491168 -1.38703e-19)
(1.6247 -0.66823 9.94595e-19)
(1.99787 0.0833951 -3.32671e-22)
(1.73519 0.0339345 0)
(1.90045 -0.0183589 -4.24063e-21)
(-0.131096 1.05126 -8.20514e-19)
(2.16538 0.172318 0)
(2.63259 -0.386077 0)
(1.9485 -0.782773 1.46633e-19)
(1.94344 0.547109 2.03146e-19)
(1.11574 -0.16696 0)
(2.18135 -0.724889 1.5969e-21)
(2.35394 0.00671544 1.29278e-19)
(2.29778 0.26041 1.35654e-20)
(1.74915 0.496708 4.0816e-19)
(1.35938 -0.694731 -5.59459e-20)
(1.46772 -0.426578 0)
(-1.06525 1.70291 -3.02843e-18)
(0.546175 -0.241226 1.02761e-18)
(2.03394 0.0077215 1.5487e-20)
(-1.06391 1.92898 -1.36649e-18)
(1.8332 -0.758497 2.84278e-20)
(2.53776 0.260967 2.14498e-19)
(1.99407 -1.74185 0)
(2.01886 0.143409 8.53352e-22)
(1.85183 0.0387508 8.77603e-20)
(2.24378 0.0113712 -1.56298e-19)
(2.1861 0.499251 -9.30667e-20)
(2.24028 -0.819848 0)
(1.32722 -0.653245 0)
(2.3731 -0.0106293 0)
(2.27837 0.365172 -3.83979e-20)
(1.08224 -0.508563 7.13111e-19)
(2.50832 1.69482 -1.11878e-19)
(1.5102 -0.129476 0)
(-0.721901 -0.103598 -1.21636e-19)
(1.33111 -0.748007 5.34327e-20)
(-0.548763 -1.1029 0)
(1.9447 0.238666 -1.24059e-19)
(1.68462 0.25345 -1.6072e-19)
(2.52134 -0.410229 -5.95276e-20)
(2.04051 0.100006 -9.63997e-21)
(0.711052 -0.256757 0)
(2.15014 0.108091 -1.34502e-19)
(2.04473 -0.455762 0)
(2.04695 -0.267514 8.44709e-21)
(0.998875 0.0658103 0)
(2.23316 0.799623 4.49969e-20)
(1.71633 -0.699006 -4.44291e-19)
(2.52844 0.674279 0)
(1.83553 -0.0973224 -4.37101e-19)
(2.05053 0.114652 1.5058e-20)
(1.71024 -0.236826 0)
(1.16371 -0.550822 0)
(0.545095 0.189759 -8.72765e-20)
(2.54473 -0.185414 -1.10209e-20)
(1.50583 -0.795187 -4.4225e-20)
(0.698614 -0.439459 -1.41652e-20)
(2.44232 -0.148436 2.45333e-21)
(1.87724 0.440112 6.2304e-19)
(1.73496 0.419763 -1.76138e-21)
(2.16303 0.531514 0)
(3.46191 0.543436 5.07841e-19)
(1.7416 -0.79349 0)