/*--------------------------------*- C++ -*----------------------------------*\
| =========                 |                                                 |
| \\      /  F ield         | OpenFOAM: The Open Source CFD Toolbox           |
|  \\    /   O peration     | Version:  2306                                  |
|   \\  /    A nd           | Website:  www.openfoam.com                      |
|    \\/     M anipulation  |                                                 |
\*---------------------------------------------------------------------------*/
FoamFile
{
    version     2.0;
    format      ascii;
    arch        "LSB;label=32;scalar=64";
    class       volScalarField;
    location    "8.4";
    object      p;
}
// * * * * * * * * * * * * * * * * * * * * * * * * * * * * * * * * * * * * * //

dimensions      [0 2 -2 0 0 0 0];

internalField   nonuniform List<scalar> 
5098
(
-0.0725893
0.700165
0.162242
1.33171
-2.58832
1.6546
0.288377
-1.30053
0.166111
0.707486
-6.12481
0.463182
-0.299987
2.05661
-0.820698
-0.0286148
-4.96761
-6.62285
-2.61065
-5.02802
1.54435
-0.0258827
-0.354774
2.85931
-4.46814
1.57487
1.31209
0.492728
-2.61089
-0.939384
0.356339
2.29616
1.34654
-3.70039
-0.0456688
-1.84517
0.886452
1.20158
1.94983
-0.0772369
1.27468
-7.07791
1.53114
0.261757
0.217735
0.773202
-5.36171
2.36461
0.340596
1.3923
0.455602
1.842
-3.59089
1.02555
1.66497
1.9155
1.51739
1.15691
2.306
-0.308255
0.0218057
-5.42356
-0.043729
-0.147064
-3.59544
2.09196
0.00432116
0.382187
0.632352
1.01695
1.4894
0.107179
0.204894
-0.449011
-0.169824
1.3878
-0.12879
2.00426
0.400347
1.85464
-0.349782
-2.97111
1.44496
-4.11218
-6.93316
-1.07151
3.1956
-0.140583
-1.34222
0.0064157
0.311213
-3.48227
0.469796
1.33659
1.95814
0.403174
0.973131
2.09208
-0.154033
0.41673
-8.9411
1.57468
-2.83421
-0.0715289
1.99039
0.12163
1.41437
0.322777
2.41395
-6.0794
1.16342
-2.3982
1.17498
-3.68839
1.48552
-2.62278
-3.94625
-0.620039
-0.338921
2.81809
1.79464
0.737766
0.605929
-4.70759
-3.57521
-5.01755
0.947232
-0.261266
2.12053
-3.70362
-5.10736
2.21164
2.17064
-0.431989
-6.60529
-2.88337
-0.601748
1.3812
1.96055
1.00629
1.88699
-3.63467
0.346074
0.177469
0.787835
-0.184738
0.701866
-2.41025
-1.04479
-0.0517026
-8.10078
-3.52686
-2.92892
1.33442
3.21342
2.70187
1.16595
-8.00863
1.2807
-2.65723
0.724566
-0.933167
-3.44082
1.32959
-5.7227
0.35215
-3.02197
-0.713378
-4.5054
1.18837
0.372584
1.40293
0.668567
0.5164
0.39003
0.872858
1.3995
-1.82573
1.46787
3.17921
-1.61111
-3.83733
1.03853
-5.48785
1.29276
-0.372607
2.03265
0.858844
1.34895
-3.76734
-2.50587
0.468311
0.120297
-0.178964
0.349419
-3.57563
-1.81778
-2.8416
0.0114549
1.13214
-4.2806
1.79852
0.223255
0.685771
1.00238
2.69452
-0.536305
2.0024
0.574515
0.0930089
1.13657
1.7562
0.305746
0.744577
-1.03463
-2.57037
-0.200183
-6.65959
-3.48464
0.923866
0.283761
1.64194
-0.0499453
0.22949
-3.59688
1.00018
3.0718
1.36189
0.528259
-1.84396
1.5787
2.88272
-2.20436
-0.00216564
0.266598
0.299016
1.40707
-3.54906
-1.81706
1.47139
-2.95171
0.634187
0.0019545
2.50082
1.46019
0.4774
1.9933
-6.35186
-5.11744
0.452975
0.721963
0.405749
-2.61289
-3.79169
1.37634
-3.53416
-6.22176
0.778446
2.31054
-0.125594
-0.398116
-3.60644
-4.25336
0.228847
-0.00938607
-5.59852
-2.65886
-6.61034
0.51284
1.5027
-3.70336
0.209474
-2.64138
0.517932
2.26195
-2.38366
-7.69557
-8.0662
-0.722757
1.15046
-4.97464
-1.10287
-3.61691
-1.19734
-3.2506
-3.44314
1.38528
-0.0816195
0.35256
0.487273
-4.83124
-3.41895
2.551
0.260317
0.418593
0.778132
-0.121387
0.356884
1.28394
1.31673
-0.149816
-0.552345
1.56069
1.42117
-5.52805
0.74176
-0.790606
0.892814
1.05739
-5.43941
0.352953
-2.71517
1.60105
-0.277454
-0.412392
3.1846
-0.52215
-0.0338633
0.594974
2.60693
0.370007
-3.30403
-1.66181
-2.97825
-0.151344
1.99983
0.786308
1.32914
2.37457
-0.292197
0.974274
0.571695
1.9649
-0.913638
0.95305
0.419707
0.0145919
1.42251
0.782357
1.08198
0.28199
1.06281
0.396652
1.39308
-2.55184
-0.13256
0.926806
-2.7134
-0.624491
0.444155
-1.42638
2.74306
2.56927
-4.49669
-0.30426
-4.802
-3.16248
0.389457
2.08917
0.0641909
1.37196
0.617137
0.589837
-0.155954
0.22549
2.302
1.40047
1.06423
-0.872129
-3.60239
2.17755
0.28647
-2.04587
-0.0376288
0.0955526
-5.48209
1.06762
0.511316
-0.558356
-0.174683
1.05771
-4.94367
1.41591
-0.570061
0.181491
-1.3292
0.0489987
-3.63581
1.2829
-3.25781
1.30992
0.383685
1.38671
1.18052
1.34893
-1.4045
1.43692
-2.59491
0.668493
-1.18029
-3.67029
2.58907
1.96626
1.36793
-2.62071
0.633349
0.969747
-5.33407
0.431328
-1.17113
1.35992
-1.34846
-3.5642
0.337152
-0.830513
-0.682647
1.41085
2.72978
-1.08109
0.315265
0.998543
1.77416
0.217062
0.939997
-4.98965
-3.51821
-0.175323
-1.85013
0.242948
0.52543
0.001327
-2.63783
0.00481218
0.76281
-1.10839
-2.95868
0.0149539
-0.287094
1.21621
-0.962847
1.46098
1.02621
1.13775
-4.77602
1.54285
-0.824606
-2.34324
-0.773993
-2.56453
0.94319
-5.3859
0.528762
1.37847
-4.70686
-5.49794
0.181206
-6.8712
0.020022
0.758105
-1.84753
1.48887
-0.271671
2.68453
-1.36525
1.30624
-6.56513
-3.6673
-6.07177
-5.4766
1.22004
-2.57823
-0.959182
-2.71256
-1.78992
1.30475
-1.61692
-2.63053
1.69366
-2.00908
0.977649
1.13473
-0.128232
-3.04993
0.113325
0.281617
0.868078
0.583429
-1.06448
0.819964
1.10398
-2.03809
-2.33915
0.0142151
-1.10654
-3.26339
0.00347736
1.78734
-2.72316
1.6622
1.37271
-6.42101
-0.350243
-2.66994
-7.23863
-2.65448
-3.14023
1.1586
1.00931
-1.64698
-0.0892744
-3.51386
1.36363
1.7819
0.350312
0.865686
0.926718
2.60976
-3.65698
-0.950366
2.25097
-5.33106
-2.08455
2.55102
-0.226674
-2.45874
-0.000781293
-3.08592
-3.24581
0.489351
-0.849331
0.371272
3.0418
-6.17922
0.294356
-7.69584
0.161682
0.686099
-0.878767
-3.63121
-5.04347
1.31191
-1.98968
-3.63185
1.43947
-4.80287
-5.42212
-0.0134224
-7.07893
3.11147
-2.28824
-1.00347
1.00393
0.00569421
-2.85175
-1.05528
-5.67048
-5.57191
1.64208
-5.55322
-1.34797
-5.74362
-1.72372
1.26013
-3.48899
-2.45029
-4.09194
-2.78001
-0.275003
-4.55028
-2.82773
-0.609462
-1.17396
-3.13329
1.48129
1.83325
3.1345
-2.11368
1.39574
2.29606
-9.13557
0.417065
-9.17278
0.883873
-3.28956
0.530828
-0.419273
-0.191749
1.2113
1.00791
-3.64601
-3.5478
2.64347
-0.957757
-6.34751
0.0854143
1.27176
-0.307717
1.05614
-1.8926
-1.66401
-0.336954
2.1485
-0.867142
-1.75674
2.22246
-3.46338
2.02883
-5.01087
-3.67028
-2.41195
-3.99989
-3.6048
-3.26614
2.11351
-1.8645
-1.62155
2.17874
-1.09796
0.365731
0.260323
2.57512
-2.65486
1.78064
0.585749
-0.141333
0.0361123
-3.7794
0.0170805
-2.24942
-0.0281518
-6.08629
0.461257
1.97308
-4.26156
-0.0650719
1.24878
2.6413
-3.63206
1.87419
3.10986
-1.66285
0.543118
-1.06798
1.42733
2.17675
1.83448
-2.48456
0.554077
0.119513
-5.50197
0.74032
-0.0214551
1.20184
-7.13411
0.67175
-0.308359
-3.08163
-0.585194
0.0468188
0.643395
1.28653
0.440399
-7.29113
2.33463
1.31816
1.9516
0.460211
-2.92633
-0.904431
-0.768785
2.26226
2.69233
-2.45145
1.60948
-5.61158
-3.95205
-2.01051
1.11937
-2.63365
-2.65002
-5.78531
-7.021
-0.477763
0.341171
-1.44284
0.779205
1.55572
-2.63741
1.5406
-0.0275877
1.35503
-3.58291
-9.40884
-0.0194174
2.42162
-1.80045
-4.70329
-0.860304
-2.67565
0.971119
-2.6819
-0.507845
2.13552
-6.0643
-7.03436
-2.653
-9.04487
-2.64191
1.35875
-0.126727
2.73045
2.37956
2.09017
-5.3268
-3.7126
-2.55046
-2.68658
0.471522
-3.56068
-3.28812
-3.69312
-6.01734
1.74348
-3.6304
1.10939
-4.6802
2.04259
1.3362
-4.17317
0.483202
-2.78349
2.92275
-0.622434
0.441294
-1.51379
-6.58852
-9.23732
-6.64144
-3.15926
1.86757
-1.49109
-1.02877
-3.49276
-3.71887
-0.137335
-5.67583
-0.540613
-0.216968
0.153103
0.581602
-6.14746
1.39028
2.11524
-3.74115
-0.0992116
-5.11909
1.2657
-2.65123
0.556916
-0.144322
-5.63065
0.0175381
-3.57774
-2.59195
-4.78681
-6.67238
1.32142
0.614671
-2.46614
-0.833404
-0.268188
1.30058
0.280727
-1.12743
-5.77264
3.00536
0.0676893
1.76999
-1.83937
0.93333
-3.59938
-6.99627
0.0321224
-3.71111
-5.28986
2.22387
2.04375
-5.271
0.457998
-5.60765
1.8353
-0.832147
-3.61042
-3.59557
-3.74929
-2.69165
-0.108372
0.219105
1.41253
-0.603396
0.123684
-3.81466
0.264998
-5.12235
-3.61468
1.5742
-0.469382
2.27534
-0.874305
1.70672
1.45233
1.23762
-3.94454
0.975352
-0.612001
-0.0121999
0.796291
0.594365
0.186847
-3.32693
-3.61121
-9.91397
-7.56198
0.971093
0.609972
0.697539
-3.71187
-1.369
3.1469
-5.67251
1.22739
0.0105342
2.1263
-2.98072
1.60487
-5.00056
-6.31107
2.38732
-4.30867
-2.68326
0.930099
2.50062
1.16827
-0.216665
-1.04923
-1.16951
-3.90325
-2.08605
-3.63606
1.17254
-4.21805
-2.27931
-3.63491
0.108271
0.0198784
-2.58468
-1.10022
-3.56151
1.13085
0.402815
0.837738
-7.78575
-3.044
2.17394
-3.59569
-1.92845
-3.43406
0.236637
-3.59218
-3.55584
-4.73688
-0.439553
-0.177674
1.36158
-3.6071
-8.71279
-2.77252
0.0905778
0.0450315
-1.38007
0.232176
-3.61192
1.36631
-4.03083
2.47694
2.05568
0.0824676
1.61254
1.00888
1.44294
2.75239
1.43199
-5.97954
-10.4132
-1.89223
-10.5695
-0.375177
-4.39328
1.50698
-3.03232
1.83826
1.96399
0.728445
0.693125
-6.8823
0.0425841
-1.7783
-0.284032
2.22252
1.2154
0.0401606
0.225336
-3.60433
-10.8844
-3.77813
-2.86818
-1.61358
-0.0249447
0.319626
-7.07574
-1.03351
2.3428
1.01654
1.84112
1.76199
1.29672
-0.298636
-0.599379
-0.838114
-3.67805
0.733244
0.171913
0.324513
1.23671
2.4852
-4.4895
-0.761494
0.36179
1.58919
-5.20741
-0.182304
-3.08149
2.86958
1.37883
-3.38167
0.666103
-0.260907
-7.94267
1.36432
1.53599
0.521531
0.779854
-0.75204
-4.80614
0.103552
0.489594
2.2064
-0.445537
1.96802
-3.77509
-6.04633
-3.82648
1.31339
1.82655
-2.13973
-0.852261
2.84936
0.682186
0.57867
0.737152
2.65504
0.573003
1.03637
0.24594
1.43118
-0.939787
-0.557563
1.83783
3.04766
0.3557
-8.99823
-1.09913
-1.07788
-3.97919
1.70341
1.0364
-1.88088
0.604654
1.37228
0.567194
0.911435
0.0489873
1.61183
1.87862
-2.05334
2.65794
1.31514
-0.497185
0.0112195
-0.406276
-0.0423035
0.875957
0.62417
1.35955
1.31284
0.875734
-8.39179
-9.9683
1.39427
0.677541
2.01947
-1.40882
1.10076
1.26463
0.38835
1.46815
1.77932
-0.0527218
-0.0181039
0.738324
1.65448
-1.96543
-0.921141
-1.24203
1.79975
0.358258
1.41607
2.55906
-4.82441
2.46435
2.80917
-0.891263
-1.3508
-2.35806
3.09383
-2.52883
1.4884
2.63821
0.87307
-3.6074
1.08316
0.666145
2.83639
0.157588
0.721511
2.94785
2.18089
0.0113811
2.90545
2.13159
0.11011
-5.5929
-4.04793
0.00960597
0.207677
1.24055
2.0733
-2.69379
-0.279339
1.17695
0.122956
2.24696
-2.08281
2.6354
-2.3739
-5.8474
0.356821
-1.53504
1.89945
-0.32227
0.725537
-5.75261
2.08993
0.898311
1.49461
1.35836
-8.31753
0.0966162
-0.251875
-0.333064
0.300475
2.28685
1.12571
-0.0312467
0.306774
-0.0325816
-5.39476
2.04803
0.108459
1.52482
-0.453782
-1.60354
-6.35699
0.347478
0.313708
2.5489
-0.159465
0.67993
-5.99929
-8.05701
1.93019
2.37092
-5.08436
1.85383
0.878116
-5.80224
0.47052
-0.240488
3.04645
-0.775996
-1.709
1.54321
-3.94385
1.89476
-3.64765
-5.21686
-0.0765054
-3.414
-3.57778
-1.1892
1.10529
-0.280791
-3.60204
0.00886383
0.311476
-1.51788
1.14083
2.33621
1.30912
1.29926
-4.76948
-5.06433
0.146426
0.791573
-1.78414
0.0117777
-0.0247698
0.00181791
0.681139
1.45204
0.77085
0.91456
1.22917
-0.11889
-0.933222
-2.98341
0.212695
-1.79407
2.85629
1.20411
0.842302
-4.46762
-0.998338
-0.0467099
-0.235023
-6.37359
-2.55773
-0.71007
-1.19683
1.12234
-1.05009
-0.140315
1.22128
-3.59019
-0.0384812
2.29938
-1.71983
-1.5471
0.0734298
1.48856
-7.83535
0.336241
-10.5053
-0.0325733
-4.92758
-4.02831
1.40017
-4.76723
-0.0332852
-0.444802
-5.56023
-7.76637
-1.57634
1.39014
0.232779
-5.50101
2.25366
-3.62216
1.38472
-0.160422
-2.33301
-1.13933
-1.56388
-3.82716
0.781112
1.41796
1.27114
0.14278
-3.91244
2.00767
-7.50885
-1.69056
0.00800415
-4.45602
-0.202947
0.0430218
1.92139
-3.68619
-2.66908
-9.09445
1.18694
1.23458
-6.89502
0.63416
-0.0441598
-0.443502
0.338036
0.561399
0.156334
-2.16648
-6.54482
2.31796
0.0231461
-0.0306529
0.142091
0.00955967
1.27389
-5.83875
-0.770998
-5.62228
1.22338
-0.178472
-0.0639867
0.443855
0.00811315
0.380505
0.0779905
1.31668
-0.302095
-1.9897
0.786058
1.4832
-0.137633
0.945806
0.959
1.51575
1.59424
1.18627
0.795476
2.58979
0.776989
-1.53078
0.153282
-4.98557
0.270748
-0.202315
0.829914
0.0218526
2.56612
0.182828
0.296947
-3.81566
0.28612
-4.12229
-0.00954914
-3.64462
0.842188
-3.80449
1.0167
1.01791
1.47127
-4.4847
1.74513
-3.73278
1.09868
1.50943
0.734598
-4.94582
-2.03531
-5.27525
1.19304
-6.92639
-2.68601
1.32375
0.044823
-0.109591
1.41449
1.56967
-0.99721
2.24167
-0.871242
-1.42051
-1.89831
-1.20215
-0.131544
-0.616425
-2.36051
2.45606
0.00310392
0.782766
-1.61283
-7.59762
1.72655
1.80874
0.00736573
-0.0987061
1.43854
-3.23051
0.532248
1.40055
-0.645396
-0.734825
-0.0843006
-0.270074
2.5109
-3.80211
1.25159
-0.187397
-0.629612
2.70128
1.05847
0.212989
1.74597
-9.41932
1.45053
1.52041
0.359619
1.39515
0.60697
1.22456
1.46302
-0.554605
1.57292
-1.94215
-0.589085
-0.000319992
-2.71587
1.89245
-3.59437
-3.33034
0.218145
-0.292506
0.0767555
-3.59246
1.01133
0.289754
0.926076
1.13144
0.208938
-1.49844
0.130336
-9.79279
1.55176
-0.388814
-3.59895
-1.79815
-4.36237
1.38505
-3.67205
-3.88559
1.37384
-3.77814
1.35872
1.16572
-3.54591
-3.86723
1.48987
2.06484
-1.87302
1.30435
-3.44109
-1.26559
-3.97737
0.345431
-1.06631
-3.80179
2.75858
-0.665615
-3.31025
0.0108845
-0.965671
1.48096
0.0329039
-2.25034
-3.68398
-5.35571
-9.67573
-3.59486
0.0432071
2.10172
-0.112236
-7.38261
0.0139764
-3.57267
2.07031
2.79803
-3.59061
0.159075
0.841082
-3.59857
0.336592
2.45487
-2.19813
-2.69288
1.25696
1.31067
1.21433
-1.10448
0.143541
0.00320121
-0.215972
-1.37827
-0.396902
1.34506
-0.686582
0.331215
0.394804
1.37283
1.04125
-0.40714
0.920594
1.39266
1.21089
0.565558
2.526
-1.31091
2.3488
-0.148389
2.24825
3.02177
-0.993761
0.140684
0.611025
1.39402
-2.53453
0.893242
0.257545
-0.259426
0.937797
1.8395
1.03293
1.11163
0.908363
-0.0621545
-5.37734
2.90168
-3.65739
0.419924
-5.40596
-0.807391
-3.88341
1.36217
1.12487
1.02743
1.24791
-1.47649
-0.270723
1.36452
0.588379
-0.469563
-2.08363
0.313806
-1.85724
0.353846
1.3477
2.75267
1.37766
1.57727
1.46375
0.994079
2.58124
1.10626
1.39908
0.47247
-7.03388
-0.561625
0.601279
0.141022
2.93869
-1.24497
0.455573
0.00159368
-0.618181
2.74985
1.03373
-0.187115
-6.47168
0.310959
-1.26802
-0.199558
1.69518
1.68523
0.482384
1.66922
0.118631
2.30048
-3.04833
0.470942
0.579243
0.367103
0.278734
2.06588
0.582617
0.130726
1.38408
0.629035
-6.96431
1.44925
2.13989
-0.574437
-4.37884
-3.61712
-2.74359
-0.866865
-3.8546
-0.254625
1.34574
0.174934
-0.319377
0.969621
-1.31992
-0.838851
-0.600987
-2.85665
-4.58963
0.216273
-3.62048
-3.54687
1.1248
1.37453
1.57896
-5.20152
0.821547
-1.15434
1.40928
2.33883
-4.65674
0.0143097
-0.15805
2.23593
0.740486
-5.8975
-0.904835
-2.76296
-0.112824
0.0570148
2.51566
-0.180394
0.000290324
0.859479
-0.0805314
0.00579815
1.05893
0.231485
0.030016
-3.34973
-4.00739
0.838986
-3.53101
-0.177858
-0.467768
-3.41943
1.47481
1.11727
2.71509
0.364687
2.54343
-0.221245
1.71478
-3.09276
-1.00794
-7.62686
1.99092
0.34186
0.3355
0.343876
-2.95267
-6.99362
0.0088051
-0.0919591
-0.187676
-0.426552
-0.259986
0.128085
1.09736
1.63235
-3.08917
0.0384298
0.136598
-0.378885
-0.20913
1.41402
-0.0276249
0.979138
-0.490166
-0.129827
1.7418
-3.13615
-0.0367908
0.00168337
-0.0701688
-1.60132
1.66077
-2.22923
-0.153435
-0.178987
-3.96781
-1.54651
-0.200267
2.2054
1.76567
0.00581168
-2.48559
-10.1336
1.30059
-0.0696663
-0.49166
0.00327736
0.408979
0.0511175
-0.140762
-1.62703
0.00632148
0.83705
-0.564002
0.859254
-1.4762
-2.05543
0.667587
0.790234
0.0496525
0.172956
1.22608
0.531317
-0.6278
-0.772681
-0.247495
-6.5755
-0.157283
1.27472
-3.33234
-0.413239
0.0347068
-0.00714924
-0.893081
-0.160249
-0.181479
-0.0733112
1.85275
1.1464
-2.71535
-0.148707
-4.28478
-5.8223
0.364157
-0.20988
1.7613
-0.464979
1.25773
1.18961
-0.59981
-2.52764
-8.37583
-2.6256
-4.39844
1.45236
-0.195813
0.185453
-3.60817
1.33853
-0.155751
1.54689
-0.034549
0.025295
1.86496
0.0148704
-0.0223968
-2.46068
1.77417
0.284277
1.35916
1.37335
-9.4332
-0.0970971
1.42028
-3.01783
1.70364
-3.02538
1.62288
-3.72183
-0.164021
-0.00176796
1.31455
1.53906
-1.97245
1.31304
0.822417
-0.220448
1.96053
0.764211
-4.99406
1.39187
-0.156934
-0.0519754
-1.63891
-5.91703
-0.155337
-3.71474
0.00176719
1.32888
1.24215
-0.214398
-0.144492
0.859245
-0.084393
1.3861
-5.5059
0.00822632
-0.904202
-2.35827
-0.763554
-3.73782
0.455687
-1.65776
-0.157906
-2.73083
0.952469
-0.205189
-5.15952
-0.224685
0.346565
2.1729
-1.55748
0.0048771
0.0489787
0.335209
-0.319082
-2.19761
-1.94929
0.67426
-0.0978912
0.45827
1.4791
0.000328118
-0.158855
-1.55173
-0.140712
-0.0268673
-1.0689
1.42066
-0.625688
0.00874306
-0.794286
-5.41231
-0.0640214
-0.136997
-0.216254
-5.81252
0.120592
0.0691204
-0.20363
-0.22871
0.0129757
0.00949283
-7.04613
-1.34249
-4.37489
0.711824
-0.153031
-0.296299
0.861844
0.912907
-0.146274
0.012137
0.91357
0.380925
0.00859418
-4.13374
-0.0214242
0.551436
-0.229543
-5.59455
0.00843594
0.693584
0.0510187
1.09042
1.01386
-0.214938
0.632759
1.36978
-0.211648
-5.50988
-0.132098
-1.7671
1.54267
1.38269
-0.00387191
-0.0582954
-0.165021
-0.189106
-0.0390252
-0.15754
-5.45942
-0.0336427
1.37316
0.151317
-0.161658
1.39691
-0.177435
2.32297
-0.16517
0.133602
0.100675
-0.187055
1.72756
-0.124039
-0.0344997
-10.6182
-0.0278178
1.15247
0.767762
-0.152197
1.43006
-0.421396
0.467189
1.55441
-0.431077
1.00368
-0.210101
0.437628
-0.312996
0.445787
-1.79078
-8.11114
-0.220955
1.47505
0.724099
0.634373
0.914239
0.0040557
-0.0809114
-0.151956
0.204323
0.00842131
-8.04984
-0.0444406
-0.00452558
-0.0927214
-0.168449
-0.482167
-4.64304
2.26365
-7.92131
-3.59616
2.18776
0.010177
-0.0723307
-0.110963
-0.14922
0.609503
-0.13399
-0.12203
-2.68116
-11.0246
0.429278
1.41671
-0.12824
-0.0555903
-0.188726
0.00499727
-0.0747771
-0.133066
-0.14353
-0.0997985
1.41352
-6.2709
-4.51568
0.841493
-0.219953
-2.69254
-0.144008
-7.53334
-0.0335695
0.927063
-2.67467
1.63457
-0.256672
-0.137956
-3.60313
-0.19028
-0.276979
-0.152243
-5.35705
-4.41426
2.1785
-5.80986
-1.70836
-0.00135657
-1.6965
-0.0343955
-0.139672
-3.73603
0.004338
-0.124765
-0.310772
-0.179472
-0.0248194
1.774
0.353837
-0.0113308
-0.105687
-0.105442
-5.56889
-0.319751
-2.15931
-0.158365
-0.31749
1.61163
0.0906549
1.42104
-0.0127663
0.0276353
-0.0349986
0.00301534
0.0124824
-2.63986
-7.17349
-0.618627
0.521042
0.656731
0.798861
-0.0599873
-0.0793144
-0.0257278
1.48562
-0.132928
0.224268
0.520922
0.00465516
-0.135619
-1.47038
-0.1136
0.0086054
-0.226033
1.42798
0.00668117
0.366643
-0.0305071
1.04843
-0.0548729
-0.149558
0.010408
-0.0377395
-3.5738
-0.142502
-0.124038
-0.403749
-0.0370507
1.235
-0.0469039
-0.658675
-0.168847
-0.159027
0.31153
-0.044385
-0.143781
-4.77642
-3.62185
-0.0976035
1.73349
1.46674
0.00558597
-0.152002
-1.5895
0.00911768
0.324747
-1.7356
-0.0333594
1.70285
0.342359
0.0166125
-0.0155223
-3.35533
1.39023
-0.0977417
0.00988753
-0.0091997
-3.7679
0.0714724
-0.0261832
-4.28621
0.857494
0.632802
-0.303097
0.0949566
-0.0113262
1.39631
-0.0237317
0.0127622
-0.0343294
-0.00135545
-3.60848
-0.0868125
-0.0703969
-0.00186487
-0.142343
0.0128091
0.0884441
-0.00534945
-0.0157685
-0.40444
-0.361945
-0.0708015
0.0156221
2.76131
-0.0990001
0.0374375
-0.00167301
-0.0795376
-0.0559344
-0.0823499
0.0292975
0.306676
-0.0188689
-0.0795978
-0.0455412
-0.00692732
1.42183
-0.00756645
-0.08939
0.0345933
0.0124492
0.0119574
0.0538582
-0.113235
1.16974
-0.174712
-1.45862
0.825764
-0.0363118
-0.015941
-0.030943
-0.0432383
-3.58928
-2.36798
0.190124
-0.0783797
-0.0314697
0.0132532
-2.52771
1.45303
1.28177
-0.0181923
-0.455995
-0.126858
-0.0462127
1.4055
-0.00720107
-0.204852
1.54168
-0.0636579
1.51568
-0.0201792
-0.0555865
-0.0879744
0.00491696
-0.0046231
1.74306
-0.158419
0.00140616
-0.555948
-0.591674
0.917897
1.76878
0.00663856
-0.432684
-0.0666155
0.0119915
-0.000167175
0.791525
-3.69842
-0.000858642
-0.00855268
-0.118141
-0.115497
-0.103102
-0.0416921
-1.12751
0.00217672
0.00804887
-0.59426
1.46047
-2.06962
0.0139074
-0.123423
1.17318
1.32669
0.0154272
0.00138201
-3.82128
-5.43888
0.00485461
-0.00379634
-0.0151516
-0.0319623
0.000436137
-3.71158
0.00365409
0.0171678
-0.00754856
1.77801
-0.012823
-0.0752351
-0.0814667
-4.57676
-0.00994302
1.16077
0.0207765
1.40831
-0.0158296
-3.67776
0.0129317
-0.0666445
-0.114587
-0.35356
-0.244346
0.00583843
0.00619375
-0.0845884
-0.00838014
-0.0108683
-0.0671952
0.0141926
0.013113
-0.0827101
1.43286
0.000574599
-0.652145
1.48118
-0.0241267
-0.0761995
-1.32573
0.749801
-0.0410944
-9.85815
0.00307265
-0.00143188
-3.24226
0.0226209
-0.0200499
-0.292701
-0.00936712
-0.127502
-2.29397
-0.00491391
-3.8615
-0.205024
0.00910458
-2.64802
-1.99019
0.0125216
-0.00426822
-0.0115892
0.140177
-0.0472367
-0.0529074
0.549642
0.00674902
0.00319571
0.00694942
-5.70776
-0.0238107
0.00194929
-0.0338566
-0.129362
-0.1669
-0.0689962
-0.00804171
-5.82088
2.20962
-0.00569823
-0.028507
-0.000890802
-5.2691
1.53157
-0.168677
0.126986
0.00153755
1.57784
-0.0203621
0.359992
-0.068799
0.00723217
-0.00146492
-0.0864501
-2.63712
-0.656009
0.260199
0.477878
-0.00249409
-0.00702305
-0.163745
1.11509
-0.131038
0.0107995
-0.0251537
-0.154412
1.4519
-0.192836
0.0122003
0.010512
-0.0585571
-0.027068
0.00169296
1.09348
0.209206
2.1501
-0.00433159
-5.58116
-0.348598
2.49811
0.0192646
-0.0476898
0.00315915
-0.0267103
-0.533837
1.3899
-0.346213
-0.166475
-0.0386143
-3.59389
-0.0502106
-0.0474494
-0.00175074
3.0365
1.0795
1.65775
-0.0964244
1.41144
-0.0140566
-9.68966
-3.64667
1.50764
-3.85279
-3.72771
0.00260438
0.174369
-0.242708
-0.0491278
-1.18664
-0.292003
-1.50194
0.893598
-4.04113
-0.0778607
1.32553
-0.156123
-0.955264
0.00910728
0.0100882
-0.00341693
1.6151
-0.0282846
-7.08938
-0.00863199
-2.73124
0.00392079
-0.258806
-0.183559
2.23872
-4.00886
-0.358596
-0.609668
0.00807786
0.000695476
1.13511
1.45225
-0.109993
-0.180675
-3.89289
-0.1727
-0.411878
2.67477
0.96503
0.200586
-0.163856
-0.817536
-0.0380674
0.649059
-0.0127673
-0.514776
-0.0302919
0.852858
1.39596
0.875248
-3.56652
0.592397
-0.351416
-0.00643659
-4.27727
-0.0959072
-0.251569
1.31144
-0.0832207
-3.87679
-0.0309721
2.15065
-1.35299
-0.343413
-0.503008
-1.16169
0.00116492
-2.77521
2.53052
-0.14742
-4.69909
-3.76494
-0.806818
-0.0456804
0.599542
-0.589393
-0.129087
-1.38552
-3.54782
1.48649
-0.109138
0.0348547
-0.370845
-0.250623
-0.175086
-3.56517
-0.0340784
-2.97142
2.79073
-0.0442698
-3.63581
2.44349
0.00351862
-0.0493945
-0.342341
0.00488164
1.65994
-5.1454
1.37815
1.39713
-0.111087
-0.615808
1.38122
0.983198
-0.0489119
-0.856908
-5.13172
-4.18455
1.4484
-0.0729046
-1.49981
-3.59647
0.0596622
-1.89659
-0.141226
-0.282353
1.44848
-0.540198
-0.124619
-3.82213
-0.013017
-0.00375868
0.00485184
-3.67436
-10.3402
-0.00124922
-0.0955632
0.0450231
-0.909351
-0.0502153
2.66008
-0.0428806
-4.34481
0.303035
-0.00298276
0.893078
-0.170483
1.39762
-0.0339083
1.04384
-3.20712
-0.101431
1.88992
-2.73161
-4.46956
1.71883
0.708731
-0.158558
-0.158977
1.4063
0.99038
-0.00672922
1.08049
2.5096
-0.101153
1.15135
-1.25109
-0.094106
2.03965
-3.2215
0.224995
-0.115813
1.42929
-0.962407
1.19381
1.07008
1.31204
-3.77926
-0.111596
-0.197276
-0.0121193
-0.0209121
-10.2954
-5.45933
-0.0790768
-0.00802137
-5.07191
-0.0701492
-0.491369
-1.18527
1.41824
1.63964
1.51994
-0.0581466
0.0650727
-0.213087
0.639941
-0.0465121
-0.0844762
2.5603
-0.00547585
-0.0995695
0.0976903
-3.77564
1.78708
-0.0944516
-0.7267
-3.20173
0.0544523
0.653793
-1.54863
-4.05743
0.254575
0.00569095
0.544626
1.40197
-5.3412
-6.40387
0.0866152
0.937993
-0.55114
0.00218851
-0.0983411
-0.0043778
0.411631
0.497852
-0.106974
3.01557
1.98664
-0.181799
-0.0769404
-3.85053
2.28349
0.562172
0.236962
2.78875
-0.0117321
0.707559
0.76899
2.53005
0.182132
-3.93457
1.10378
-3.31624
0.000587799
-0.907833
0.118057
-4.69895
2.4855
0.115424
-0.064943
0.0483409
-1.45901
0.476675
2.80288
-0.0674718
-0.111692
-0.306048
1.2055
-0.333096
0.26426
0.66767
0.911224
-0.190775
-0.252924
-6.80642
0.0856318
0.347225
0.570499
-0.15317
2.3868
-0.106985
-0.15351
1.46466
0.00617722
0.00259057
0.0523454
-0.251903
0.954849
-0.00601803
0.420666
-1.64664
-0.0887093
0.449441
-6.74177
-0.170189
0.0730589
-0.0784511
-0.0693405
0.386016
-0.0219996
-0.0404014
0.00252143
-0.0919848
-0.166288
-0.453169
-3.26427
-0.0586907
-0.325838
0.314591
-0.0603601
0.271318
-0.749753
-4.96755
-0.0921022
1.45145
-0.544674
-0.143188
0.0656025
-0.438958
1.88921
-0.0874731
-0.809353
0.132626
3.04661
2.70903
-0.157557
-0.0284148
-2.58419
0.00304357
1.3318
1.42313
1.12877
-0.0473811
-0.000908993
0.0396314
2.23574
0.132977
0.357458
0.331774
-5.00593
0.175255
-0.00673095
1.35023
2.07803
-0.412259
-3.95027
-0.166122
1.2769
1.86782
-0.237029
0.21826
-0.719411
2.71377
-0.00112199
-0.178537
0.460228
0.0394732
-0.000835496
0.000658303
1.39722
-0.00140918
0.00064816
-0.30822
-2.56147
-0.137877
0.00295341
2.0056
0.930171
1.35719
0.0605219
-4.04028
2.93126
-0.121549
0.0473358
0.882483
-0.533241
0.765258
1.34147
1.34878
-0.00138186
-6.4954
-1.21428
1.3958
-0.689232
0.00805726
-0.226318
1.25099
0.545087
0.0142885
-0.124905
0.61027
-0.35071
0.00870226
0.0689211
-0.0562755
-0.572936
-0.159917
1.21002
2.30708
-2.3486
1.867
0.527992
-1.36905
0.000416053
-5.92276
0.835373
-3.25403
0.15147
0.0929065
-0.0282601
-0.0912392
0.205642
2.99997
0.00318221
1.54502
1.14017
-0.171421
-0.0267042
0.00884045
-0.479209
-0.133471
-2.93927
-0.137154
0.384986
-0.0584715
-0.450584
1.74683
0.543723
0.303624
0.170634
-2.94998
0.066675
0.0990228
0.160551
0.675802
0.0872371
-1.52611
1.79989
1.39421
-0.728294
0.425617
-0.00210072
0.891368
1.39884
1.52641
-1.5791
-4.06675
-2.56371
0.0122515
1.40236
-1.59873
1.75643
0.00900513
0.352164
-5.8697
-2.64708
1.41692
-0.519752
1.4345
0.536851
0.135035
0.0615185
-0.491229
-3.81665
0.320423
-0.535419
1.38761
0.309302
1.7463
1.81205
-0.135988
1.67787
0.104893
0.00217282
0.804466
1.7412
-0.586403
-0.379719
1.41959
0.663098
0.141742
1.66619
0.969557
1.58256
-0.165742
-0.264671
0.0575115
-3.55339
0.499473
0.455607
0.913216
-5.42164
1.58992
-0.00130625
-0.839542
0.548243
1.48826
0.320866
1.25813
-0.00571907
-3.69311
-0.655213
-0.118924
-2.81778
1.02118
1.04598
-4.98818
-0.663762
0.217607
-0.0258675
-0.0302812
1.70524
2.1087
0.188524
0.344159
0.272655
0.27491
0.748141
0.000212873
1.25704
-3.06856
-0.103837
-1.17228
-1.0837
0.273243
1.57722
1.32735
0.386408
-0.0523442
-0.0177212
1.40073
1.39008
1.12912
-1.14494
1.74418
1.10594
1.44125
0.526704
0.0827257
0.119806
0.887793
1.03866
-8.76254
1.46129
-0.3446
0.344948
1.34157
-0.626677
-7.6512
2.23321
2.04677
0.0914744
0.722951
0.701266
1.10064
0.0786744
0.075255
-0.17854
-0.234711
-0.975175
-2.14415
-0.925755
-1.11016
-0.309252
1.40238
2.24639
0.10444
1.41903
0.144172
3.21952
-1.29997
1.50192
0.0855641
-2.65422
-5.96883
3.22862
0.203244
-0.172928
3.18594
0.292265
-3.30846
1.06354
3.1352
0.317385
3.06592
1.0128
0.0920037
-5.50924
2.9287
-0.252562
-0.138915
-2.76476
0.51491
-0.0656879
1.35658
2.72338
-0.00153991
0.326209
1.53565
0.652735
1.16904
1.32767
-0.612526
-4.93081
-2.82521
2.65365
0.311054
-5.02867
0.209435
0.0984015
2.59123
0.402127
0.181959
-5.1855
2.52469
-2.99153
-5.28935
2.45979
1.59126
-5.34698
-1.81417
-5.5365
0.88165
1.72644
-5.49783
2.35517
1.40497
0.182182
-5.40767
1.6166
0.660422
0.259253
-1.18278
-4.29388
1.42154
1.40174
-4.19278
1.28533
0.466687
-1.15175
-3.50776
2.17294
-0.157185
1.34211
-2.67936
-5.30333
-5.24669
-5.14109
-5.01514
-4.87076
-4.71583
-0.804791
-4.51697
-4.09645
2.09607
2.1158
0.0239231
1.08697
0.237465
1.19966
-3.98927
2.06957
0.000470117
-3.90289
1.53847
-3.83128
-3.82062
-0.0249302
1.94794
1.35907
1.04942
0.830318
1.43363
-1.86367
-3.75757
1.90096
-3.7061
0.0759955
-1.32847
-3.60328
1.41702
1.84477
-0.163468
1.57019
0.00674395
1.28814
-3.66939
-0.77891
0.143036
1.78913
-0.831294
-2.65418
1.73355
-2.38908
-1.0722
-1.0222
-3.5953
1.68321
1.08188
0.359709
1.42524
0.413312
-0.0914094
-0.0684683
-3.59864
-4.21651
1.62071
0.385743
-0.0230769
1.49996
0.366813
-7.94068
-1.06889
-3.60674
1.57037
-5.41152
1.18538
-0.49403
0.0166472
-3.6161
1.51071
1.0558
-4.48312
1.44532
-3.62498
-0.195776
-0.624175
-2.64686
-2.89296
1.39588
-3.62269
1.3157
-3.63087
-4.6615
1.12567
-0.00304992
1.03865
-0.0494293
1.25119
-3.58691
-0.397964
2.45139
1.50012
-3.61168
-10.6972
1.19478
-3.67745
-4.89181
1.41201
-3.53657
1.40202
1.13724
-0.0573442
0.439902
-0.992171
1.41156
1.18225
0.100577
-1.89566
-3.44433
-2.65332
1.06218
0.278611
-1.74118
-0.32598
-3.54096
-2.01749
-1.95203
0.919442
1.00024
2.0733
1.00042
2.2266
1.37586
-3.17216
-0.225495
0.544305
-5.90354
0.952543
-0.0410016
0.0426153
1.03428
1.30336
-0.229899
-2.99917
-5.39351
0.865519
-3.55058
-0.195117
1.42422
1.52729
0.483141
2.46772
-9.2949
0.658961
0.274987
-2.82075
0.424689
-1.71045
0.781899
1.69753
1.50824
1.14543
-2.65699
0.697774
0.60139
0.532115
0.429447
0.343081
0.229396
-2.52083
0.628856
0.130345
1.38411
-0.0901114
-4.18871
2.29812
-2.53757
-0.493453
-4.842
1.23246
-2.56572
1.75362
-2.48477
0.365043
-2.48759
-5.13719
-2.53668
1.39944
-0.718116
-1.38938
-2.58635
-3.66155
-7.99623
1.44254
-2.62221
-2.65738
1.45331
1.46741
-1.1065
-9.4628
1.57638
0.293826
-6.17758
0.358318
0.824137
1.655
-2.07237
0.215741
-8.72147
1.66253
-4.83087
-1.55697
-5.33872
1.03683
1.32235
0.419212
-3.62185
0.878881
1.64275
0.47744
-3.82959
1.30664
0.375924
0.751713
-0.48901
1.31992
-2.5523
-0.00510279
0.00318658
0.891941
-1.95409
1.92843
0.625012
-1.38532
0.789525
-2.67637
1.77592
1.48118
1.45364
1.54369
0.227558
0.267634
-1.25891
-1.36667
-0.717185
-0.410506
0.271744
1.27377
-2.467
-0.402099
2.70941
0.00047081
0.986528
1.01709
-5.69509
-0.0644603
0.299735
0.0824255
0.887502
0.87475
1.38231
1.40413
1.21789
0.3087
1.64911
-2.66419
-0.00575545
-1.21532
-4.13084
-0.3086
-1.66958
1.30679
-5.43867
1.23188
-0.896626
-4.30622
0.299066
-1.8637
-1.41521
-3.9832
0.26164
1.5391
-0.0767866
-0.784442
-0.025079
0.711102
0.169589
-6.40345
-0.0135427
0.806973
0.370103
-3.86234
1.25044
0.479873
1.26084
-4.65251
0.193461
-0.0455792
0.00978582
0.496789
-5.00035
0.525057
-0.0144981
0.00427471
1.07189
1.98347
0.166034
-3.00054
1.40841
-1.45003
1.30496
-0.0761845
-0.00769183
0.632853
-3.51997
0.00585346
-0.836789
-6.06242
-3.60504
1.33804
-0.285747
1.29964
-0.584436
-0.00373551
2.17337
1.91867
-5.37401
0.749074
-5.73576
-1.41394
1.60175
-1.50563
0.560864
-2.08882
-0.20623
-1.86929