/*--------------------------------*- C++ -*----------------------------------*\
| =========                 |                                                 |
| \\      /  F ield         | OpenFOAM: The Open Source CFD Toolbox           |
|  \\    /   O peration     | Version:  2306                                  |
|   \\  /    A nd           | Website:  www.openfoam.com                      |
|    \\/     M anipulation  |                                                 |
\*---------------------------------------------------------------------------*/
FoamFile
{
    version     2.0;
    format      ascii;
    arch        "LSB;label=32;scalar=64";
    class       volVectorField;
    location    "6.7";
    object      U;
}
// * * * * * * * * * * * * * * * * * * * * * * * * * * * * * * * * * * * * * //

dimensions      [0 1 -1 0 0 0 0];

internalField   nonuniform List<vector> 
5098
(
(2.54473 1.06155 0)
(2.11612 0.0804082 -4.059e-20)
(2.56194 0.00223994 -2.25976e-21)
(1.48742 -0.67043 8.05504e-19)
(2.47154 -0.926131 0)
(0.867237 -0.419533 0)
(2.48435 0.0116884 1.23979e-20)
(2.7089 -0.236276 2.01971e-21)
(2.75163 -0.0152726 -4.80268e-20)
(1.92115 -0.285669 1.30388e-19)
(-1.68695 -0.399906 0)
(2.15794 -0.0111831 1.8497e-19)
(2.4575 -0.425684 -1.11504e-20)
(0.921258 -0.448762 0)
(2.22895 -0.345532 1.33958e-19)
(1.9416 0.0522875 -8.19585e-23)
(-1.36716 0.124434 -3.34035e-19)
(-2.38644 0.464715 0)
(-0.282347 0.174712 3.97089e-19)
(-1.42546 0.183631 3.80728e-19)
(1.81075 0.580264 -8.42858e-20)
(1.88475 0.0582931 6.51334e-22)
(2.05669 -0.783904 0)
(0.736229 0.0456872 3.07176e-20)
(-2.50548 1.50476 0)
(1.43105 -0.582696 0)
(1.99221 0.0305349 1.37896e-19)
(1.80112 -0.759152 2.14538e-19)
(-0.339165 0.295273 -1.21388e-18)
(1.66159 -0.725359 0)
(2.40651 -0.200962 -1.18735e-19)
(0.70482 -0.340099 0)
(2.06283 0.0534589 -1.48747e-19)
(-0.518684 -0.738129 0)
(2.54716 0.366423 -4.17067e-20)
(3.56469 0.312555 1.32459e-18)
(1.82317 -0.41394 1.57174e-19)
(2.07316 0.00377769 -1.35412e-21)
(1.30754 -0.42114 5.89066e-19)
(1.35245 -0.626448 0)
(1.49269 -0.682235 -3.79591e-19)
(0.828393 0.98383 -2.23401e-18)
(1.44648 -0.587051 0)
(2.55676 -0.171588 7.28238e-20)
(2.42352 0.666414 2.48242e-20)
(2.07048 0.062354 7.85455e-21)
(-1.63999 0.130357 1.67819e-19)
(1.05195 -0.333012 0)
(2.38053 -0.225953 0)
(1.4894 -0.637606 8.58473e-20)
(2.29155 0.156274 6.49369e-20)
(1.61253 0.49567 -5.05782e-19)
(0.14385 -0.022629 3.04451e-21)
(2.07249 -0.0448424 1.8802e-19)
(0.931557 -0.467825 -3.58405e-19)
(1.59856 0.115656 0)
(1.84358 0.282461 -2.74361e-19)
(1.58671 -0.651343 0)
(0.831622 -0.405732 0)
(1.93895 -0.00976469 -3.78762e-20)
(1.63923 -0.317499 1.99688e-20)
(-1.95846 0.847086 -6.5776e-19)
(2.54934 0.38951 0)
(2.40173 -0.402763 0)
(0.152155 0.00914067 1.90118e-18)
(0.79849 -0.400663 4.49058e-19)
(2.26536 0.0353259 6.86604e-21)
(2.29298 0.175303 1.14195e-20)
(2.11839 -0.230501 1.90814e-19)
(1.62952 -0.685199 2.52088e-19)
(1.87801 0.224914 1.5736e-20)
(1.0805 -0.571916 -4.06032e-22)
(1.87262 -0.772645 0)
(0.448794 -0.73869 0)
(1.73707 -0.20952 4.006e-20)
(1.08839 -0.533662 -4.11239e-19)
(1.46491 -0.113245 0)
(1.48467 0.207725 4.63081e-19)
(2.53263 -0.221036 6.89184e-20)
(1.62115 0.171426 0)
(1.67707 -0.0418478 0)
(2.68964 0.719824 8.20495e-19)
(1.64008 -0.290844 5.54689e-19)
(-0.549003 -0.945513 -4.27262e-20)
(-2.26632 0.0355485 6.85833e-19)
(1.50497 -0.660002 2.32497e-19)
(0.0241838 0.31121 -2.76776e-19)
(1.46483 -0.12273 -5.8404e-21)
(2.83868 -0.166487 7.38215e-20)
(1.59504 -0.337939 2.39263e-20)
(2.26717 -0.262205 -8.45695e-21)
(0.665048 -0.191719 7.85706e-19)
(2.47929 -0.0584598 -2.30598e-19)
(1.50501 -0.655819 -4.29565e-19)
(1.28724 -0.447937 1.0385e-19)
(1.20876 -0.448351 -1.53059e-20)
(1.01388 -0.509096 -3.46807e-19)
(1.40477 0.306492 3.42693e-19)
(1.68933 -0.200881 2.05057e-20)
(2.00525 -0.450116 -1.30526e-19)
(2.6131 -2.29418 -3.6701e-19)
(0.980319 -0.485821 -4.25311e-19)
(-0.168016 0.0333636 -1.25151e-20)
(2.83077 0.304784 1.97743e-20)
(1.51663 0.189528 -5.26398e-19)
(2.38566 1.1662 0)
(1.91882 0.251915 2.91916e-19)
(2.34486 0.10307 1.29531e-20)
(0.979834 -0.375132 8.02914e-20)
(-1.70677 -0.544516 0)
(1.01716 -0.489561 -9.26415e-19)
(1.1473 0.48033 5.81573e-19)
(1.89254 0.00175471 -2.79828e-19)
(0.624581 -0.197279 1.67811e-19)
(1.75537 0.667763 1.21116e-19)
(-0.160541 -0.188712 0)
(2.94066 0.460646 2.1157e-18)
(2.66074 1.51376 0)
(1.54343 0.479608 -3.48465e-20)
(0.764697 -0.0041623 -4.7219e-19)
(1.68505 0.471437 4.153e-19)
(1.60252 2.08246 -1.09962e-19)
(2.00513 -0.298558 -8.19082e-20)
(-0.33569 1.89068 -1.15584e-18)
(0.828521 -0.140595 -1.05206e-18)
(-1.41331 0.494126 2.23662e-20)
(2.19398 -0.0349836 1.54357e-19)
(2.04464 -0.749619 -2.60085e-19)
(1.31463 -0.117435 -1.24232e-19)
(0.65435 -0.157757 -3.29194e-19)
(-1.8319 1.82103 -1.43049e-18)
(1.08045 -0.468128 -5.92209e-19)
(1.11167 -0.468074 4.95542e-19)
(2.55193 1.54236 -1.08689e-19)
(1.16465 -2.23243 -7.5251e-19)
(3.21264 -0.733319 5.33658e-19)
(2.00579 2.57873 5.8209e-19)
(1.91305 0.257044 1.98485e-19)
(0.853828 -0.419808 0)
(2.06411 -0.0506414 -6.05077e-19)
(1.57321 0.612656 -3.33955e-19)
(1.30683 -0.276025 2.46552e-20)
(1.70015 -0.770626 4.12668e-19)
(2.544 0.0397589 -1.18851e-20)
(2.06395 0.088071 -5.44456e-20)
(2.62151 0.527273 0)
(2.09481 -0.232076 1.9703e-19)
(2.1422 -1.15699 0)
(2.80139 -0.073033 4.50875e-19)
(1.5941 -0.728704 1.57009e-19)
(2.882 -0.572092 -1.29007e-18)
(2.11762 0.651871 0)
(2.25579 -1.16954 1.61944e-19)
(2.08485 0.037542 0)
(0.00510517 0.202968 -3.50156e-19)
(0.753799 -0.27181 -1.96145e-19)
(1.58892 -0.642728 -4.51871e-19)
(2.08528 -2.27013 -1.87707e-19)
(1.43819 -0.67361 -3.10581e-19)
(-0.219072 0.154667 1.28395e-18)
(1.92636 -0.39268 -4.2873e-19)
(2.26525 -0.378675 -1.80384e-19)
(0.556736 0.490652 -5.1601e-19)
(1.77583 -0.177767 -3.44528e-19)
(-2.67691 1.05904 -6.48317e-19)
(2.46226 -0.192824 -1.19552e-19)
(2.46167 -1.12917 -5.91463e-19)
(2.31502 -0.548868 0)
(-2.6228 1.5618 7.93744e-19)
(1.64406 -0.536908 -4.94404e-19)
(1.19971 -0.438922 1.09066e-20)
(1.49614 -0.613831 -2.925e-19)
(2.21123 0.677555 1.32228e-19)
(1.80122 -0.732661 3.83675e-19)
(2.62678 -0.0550902 0)
(1.9173 0.0100206 0)
(1.68599 -0.294212 -2.15007e-19)
(3.42055 0.408695 -1.30693e-20)
(1.72754 -0.163549 4.77214e-19)
(0.201166 0.136097 0)
(1.72405 2.22677 0)
(3.65001 0.0139393 -1.40437e-18)
(1.71143 -0.524774 6.08773e-19)
(-2.65678 1.14988 0)
(1.82809 -0.174254 0)
(2.7381 0.851734 4.55889e-19)
(1.46797 0.336627 0)
(1.85689 -0.395211 5.41564e-19)
(0.95798 -0.468624 7.98529e-19)
(-0.540174 1.50115 -3.4716e-19)
(1.11955 0.687591 0)
(1.44183 -0.231947 1.42261e-19)
(1.89691 -0.790015 0)
(1.73805 -0.231886 4.15331e-20)
(2.45444 -0.206424 1.31502e-20)
(0.521693 -0.176862 -8.16656e-19)
(3.98129 0.395863 5.7863e-19)
(3.40325 -0.659244 0)
(2.01445 0.0198255 -5.08937e-21)
(1.67093 -0.517222 -8.99845e-20)
(-2.08218 1.98106 -2.21928e-18)
(1.67529 0.394236 6.32095e-21)
(2.43963 0.677763 -7.04144e-21)
(2.31601 0.0284598 5.69638e-21)
(1.46948 0.00653631 2.19929e-19)
(0.727948 -0.281403 -1.4037e-19)
(2.73985 0.0751107 -1.9637e-20)
(1.152 -0.528852 0)
(2.36272 -0.12085 0)
(1.23256 -0.597558 -4.31188e-19)
(1.97527 -0.160878 -1.75444e-19)
(1.72035 0.357352 3.36487e-19)
(1.5397 -0.248262 -1.43473e-19)
(2.1172 0.0748394 -1.88718e-19)
(2.19 -0.0613508 -2.92685e-19)
(0.0117831 0.224756 -3.33496e-19)
(1.7829 -0.233632 0)
(-2.01416 -0.169684 -9.64264e-19)
(0.95995 -0.212777 1.50573e-19)
(2.01004 0.0456511 1.38127e-19)
(2.28739 -0.274619 -3.17216e-20)
(1.52174 -0.30529 0)
(2.34268 0.0733073 6.60032e-21)
(2.29004 -0.321534 1.6254e-19)
(0.371338 -0.204404 2.10791e-19)
(2.03577 -0.156596 0)
(0.324068 -0.0641009 0)
(1.98305 0.0407633 0)
(1.9634 -0.451286 0)
(1.69385 -0.669638 6.08827e-21)
(1.80425 0.474603 0)
(0.534167 -0.209628 -5.12025e-19)
(3.49465 0.325968 -8.89042e-19)
(2.01945 0.0194435 -3.30594e-21)
(2.65546 -0.0527183 -6.55351e-20)
(2.40778 -0.0438594 0)
(1.46898 1.56804 -1.86693e-19)
(-1.10079 2.27097 -1.98894e-18)
(3.2058 0.0131803 0)
(1.83229 0.0224582 3.46068e-19)
(2.17369 0.928562 -2.7659e-18)
(2.22837 0.663409 0)
(2.66509 0.0987701 0)
(1.01106 -0.215216 8.65718e-19)
(1.80832 0.522796 -4.37905e-19)
(2.28914 -0.137317 -2.06691e-19)
(1.03419 -0.49309 9.58754e-20)
(-2.02595 -0.201106 -5.90404e-19)
(-1.40429 0.0236212 0)
(2.3698 -0.132182 5.71943e-20)
(2.15651 0.837819 -9.31198e-20)
(1.80724 -0.75502 3.97179e-19)
(-0.18344 -0.369391 5.63503e-19)
(-1.52767 2.16047 1.07074e-18)
(1.92634 0.0497317 -2.57869e-19)
(-1.13915 2.24858 1.81588e-18)
(1.75335 -2.04464 6.37847e-19)
(0.836792 -0.387346 -8.12855e-20)
(1.08165 -0.35243 -3.63426e-19)
(1.77989 0.0266434 8.95175e-21)
(2.72709 0.847794 6.91841e-20)
(0.268621 -0.0875142 8.57062e-19)
(-2.23787 1.43652 1.14878e-18)
(1.82022 -0.782668 0)
(2.04575 0.0397886 -1.57325e-21)
(-2.30063 0.819887 2.84801e-19)
(-0.189082 0.126633 -1.50375e-18)
(-1.58229 -0.897727 0)
(1.20332 -0.36829 0)
(1.81021 0.0473265 -3.19176e-20)
(-0.461683 1.54213 4.24633e-19)
(1.85294 0.0995037 -1.20135e-20)
(-0.171589 0.161362 -6.76339e-19)
(1.25341 -0.316836 0)
(1.08587 -0.415012 2.70254e-21)
(-0.118089 -0.0180656 1.90322e-20)
(0.899003 0.361012 -2.57221e-18)
(3.66478 -1.15759 0)
(2.20697 -0.688626 0)
(1.97239 -0.134237 0)
(-2.12185 1.88975 -8.2129e-19)
(2.61633 -0.195657 2.12345e-19)
(0.393577 -0.226675 -8.83387e-19)
(2.61217 -0.145084 -2.35924e-19)
(1.97858 -0.496327 -2.31206e-20)
(-0.367808 -0.100627 0)
(1.92495 0.0311939 0)
(2.83826 0.357301 7.30953e-20)
(2.4822 -0.167227 9.6317e-20)
(1.7177 -0.00971111 -2.83872e-19)
(-0.179081 1.98635 0)
(-0.88284 -0.613969 6.05503e-19)
(1.04721 -0.0160037 -2.53691e-19)
(2.45361 0.530821 1.91598e-20)
(1.9232 -0.597329 4.14455e-19)
(0.875215 -0.192388 -6.09697e-20)
(2.54945 0.132805 0)
(2.41085 -0.197906 -1.05451e-19)
(2.02342 0.0584935 0)
(2.03622 0.0365572 -1.5752e-19)
(2.69725 0.4969 -5.96474e-20)
(2.68233 0.0662511 1.25819e-19)
(1.53048 -0.404359 5.73123e-19)
(1.89315 0.490139 2.43164e-19)
(-2.27039 0.93389 -4.64773e-19)
(1.73273 -0.701882 -2.42021e-19)
(2.55167 1.94154 -1.3296e-19)
(2.10685 0.00766288 0)
(1.7604 -0.403315 0)
(-1.67732 0.11982 0)
(2.24832 -0.266802 4.09372e-20)
(-0.378145 -0.388657 5.69802e-20)
(0.799753 -0.39954 4.71238e-19)
(1.88026 -0.0266273 -8.14501e-20)
(2.49483 -0.422888 -4.4894e-20)
(0.0951341 0.116719 6.86797e-19)
(1.95704 2.38525 -4.94185e-20)
(2.33664 0.0437992 -9.01041e-21)
(2.22717 -0.15009 5.66737e-19)
(0.809093 -0.324255 0)
(2.70478 -0.226786 -8.31065e-20)
(-0.857705 -0.57387 -1.29532e-18)
(3.17655 0.0319548 -6.32362e-19)
(0.78892 -0.404046 -1.26427e-20)
(1.66908 -0.179944 1.77418e-20)
(1.29203 -0.391289 3.96298e-19)
(2.16131 0.88176 0)
(1.97921 0.106955 -9.95394e-20)
(0.993639 -0.384231 -8.48513e-19)
(1.59897 0.430448 2.96456e-20)
(1.22126 -0.593182 0)
(2.29671 -0.12964 -1.64905e-19)
(0.998215 -0.482012 2.66479e-19)
(2.24956 -0.685477 -1.23165e-19)
(1.65433 -0.69082 -3.41221e-19)
(2.31432 0.0802768 -5.65918e-20)
(2.35256 -0.362573 8.84702e-21)
(0.91638 -0.454569 5.20733e-19)
(2.10058 -0.0792164 2.38017e-19)
(1.77894 -0.356639 0)
(1.72264 -0.78255 -3.9034e-19)
(1.61015 -0.68676 -1.03213e-18)
(2.60341 -0.240153 2.61863e-20)
(1.96858 0.0723777 4.16171e-20)
(1.65287 1.10641 0)
(1.55848 -0.178026 0)
(2.05581 -0.0628954 -1.8745e-19)
(0.394358 0.291466 2.97624e-19)
(2.6921 1.44031 0)
(2.29186 -0.0690743 1.65784e-19)
(1.49207 -0.660032 -4.62232e-21)
(0.873722 0.378703 -6.23715e-19)
(0.806171 -0.332711 -4.53485e-19)
(-2.19776 1.89867 8.09701e-19)
(1.79111 -0.0325976 4.7394e-20)
(-2.38221 1.80781 3.06923e-18)
(3.29063 -0.617827 -5.53686e-19)
(2.17774 -0.0113061 0)
(1.34249 -0.0776574 -1.07407e-19)
(1.38038 -0.642332 0)
(1.96122 0.113695 -4.82647e-19)
(1.95935 -0.40038 0)
(2.07323 -0.0375503 -1.61766e-19)
(1.37104 -0.0206074 3.94516e-20)
(2.69201 -0.170015 -5.97222e-20)
(1.06298 -0.389931 4.79554e-19)
(1.96427 0.0764414 -3.89292e-19)
(1.98711 0.195538 -4.37871e-19)
(1.92512 -0.822962 0)
(-0.827169 2.3798 0)
(1.14062 -0.434578 -4.72755e-19)
(2.68201 -0.167723 0)
(3.42258 0.736037 -8.35413e-19)
(1.61362 -0.323081 0)
(1.11695 -0.596853 5.43741e-22)
(-1.99522 0.746239 5.74678e-19)
(1.69073 -0.547163 7.23094e-19)
(0.43501 -0.227141 -3.41433e-20)
(2.29597 -0.516675 0)
(1.35425 -0.00711163 -3.234e-20)
(1.78276 0.0125331 -2.46847e-19)
(-1.35958 0.4429 -4.89641e-20)
(1.93036 0.046053 -2.19495e-19)
(2.71999 0.0227954 -8.49628e-20)
(2.63921 -0.0770183 -3.55508e-20)
(3.08188 1.10287 3.16415e-19)
(2.52812 0.473858 -4.67126e-20)
(-1.32202 2.28777 -4.77496e-19)
(1.61751 -0.482609 0)
(-0.241101 0.06386 4.51866e-21)
(1.97325 0.126966 -1.7202e-19)
(2.52093 -0.259924 0)
(1.97441 0.0249673 1.45518e-19)
(1.08783 -0.524957 -3.48534e-19)
(1.6449 1.35178 1.65218e-19)
(3.63689 0.445566 0)
(1.32193 -0.629946 1.26471e-19)
(-0.140985 -0.0789018 0)
(2.2278 0.066002 4.22351e-20)
(2.47001 -0.306467 -1.87961e-19)
(0.100274 0.368119 1.23169e-18)
(1.0114 -0.0447509 0)
(1.51901 0.295922 2.37618e-19)
(2.02149 0.0465866 1.5494e-19)
(-0.0973883 -0.124513 0)
(1.66313 0.0266481 0)
(2.03713 -0.169389 0)
(-1.19822 0.580997 1.06557e-18)
(0.250595 -0.0748474 -3.90713e-20)
(2.83003 -0.0600268 0)
(2.00232 0.0375009 0)
(1.49455 -1.01849 1.01246e-19)
(-0.483766 0.884181 0)
(2.402 0.510388 1.61984e-20)
(2.83507 1.33617 1.70587e-19)
(2.03572 0.449133 1.00263e-21)
(1.85717 0.435698 -5.84917e-21)
(0.875561 0.471863 7.17337e-19)
(2.85971 1.51774 -1.80308e-19)
(2.35126 -0.245182 7.44164e-21)
(2.10358 -0.0332581 1.59991e-19)
(1.55783 -0.157095 -2.61003e-19)
(1.45865 -0.180259 2.40392e-21)
(2.02574 0.0259124 0)
(-2.34096 1.73122 -2.94815e-18)
(0.816896 -0.199734 0)
(0.643876 -0.739289 4.00045e-20)
(1.9577 -1.03269 0)
(2.17484 -0.148991 0)
(1.22744 -0.585745 -2.89419e-19)
(2.12328 0.0532209 -5.72898e-21)
(-0.264087 0.229932 -1.34733e-18)
(2.05664 0.0168715 6.52528e-21)
(1.7397 -0.675434 3.90344e-19)
(2.99167 1.24803 1.99598e-19)
(0.689552 -0.419787 1.23988e-18)
(2.58047 0.11491 1.27587e-20)
(2.01415 -0.795994 1.51097e-19)
(1.95369 0.0623617 -2.74443e-19)
(1.62696 0.640478 0)
(1.74279 -0.132362 -4.9615e-19)
(1.73856 -0.440567 4.02856e-19)
(1.99178 0.126593 -6.14344e-19)
(-1.16257 0.279284 -2.07846e-19)
(1.5693 1.36337 -1.50743e-19)
(2.78698 1.40016 2.56173e-19)
(3.38071 -0.205154 0)
(2.19076 -0.285562 0)
(0.122714 0.241825 -5.12434e-19)
(2.06128 -0.0908576 1.01964e-19)
(-1.54467 -0.0538216 0)
(2.26418 -0.138109 -1.43665e-19)
(2.00414 0.0142046 -3.21477e-19)
(-1.12354 0.0171709 -1.35112e-19)
(-1.38543 -0.376066 8.16397e-19)
(2.60997 -0.12457 -4.67971e-21)
(0.150599 1.25109 -3.97872e-20)
(2.32876 -0.366363 -3.18266e-19)
(1.88877 -0.408705 2.81867e-19)
(3.38127 1.161 7.39951e-19)
(1.45894 -0.604788 3.70741e-19)
(1.72476 0.352339 1.11167e-21)
(0.962524 0.307615 5.23118e-19)
(2.05461 2.05948 0)
(1.62203 -0.459249 2.33222e-19)
(-2.36101 0.163072 0)
(0.512974 -0.245043 -2.26522e-18)
(1.99173 0.682653 0)
(-2.15796 0.914292 -1.67089e-18)
(1.55273 -0.665454 -5.21194e-19)
(1.1502 0.658121 -2.49845e-19)
(1.99499 -0.813677 0)
(0.010859 -1.25495 0)
(3.23296 -0.0503636 0)
(1.98453 0.0994459 1.25892e-19)
(0.576687 0.376381 -8.24132e-19)
(-0.186652 0.402752 1.012e-18)
(1.5048 -0.281182 -7.85243e-21)
(3.36644 1.20186 -8.43884e-19)
(2.03153 0.231276 0)
(1.18062 2.09207 2.51734e-19)
(2.45437 1.42492 9.75676e-20)
(-0.633919 -0.0606481 -2.27358e-19)
(1.47476 -0.686589 3.30423e-19)
(2.52366 -0.155995 5.12141e-21)
(1.10036 -0.535249 5.86007e-19)
(2.27796 0.565967 0)
(2.44842 -0.328966 1.78102e-19)
(0.822506 -0.318635 9.17065e-20)
(1.97255 -0.0304093 2.82464e-20)
(3.46902 0.8813 -4.51608e-19)
(2.05963 -1.07819 0)
(2.52568 0.793247 0)
(2.0928 0.48616 0)
(0.866172 -0.259801 0)
(1.88129 0.00363566 0)
(1.35641 -0.510111 1.59134e-19)
(3.75361 1.09503 6.8176e-19)
(1.38593 -0.581018 4.40634e-19)
(2.0913 0.0639129 2.60385e-19)
(-2.51184 0.331941 0)
(1.97969 -0.820191 3.11609e-21)
(-0.340527 0.35393 0)
(-2.14989 -0.0313666 -1.18243e-18)
(-0.320505 0.2313 5.55417e-19)
(3.7536 0.666544 -3.71137e-19)
(1.98316 0.136311 3.07986e-19)
(2.05507 0.292462 -9.60136e-20)
(3.62741 0.485994 -4.20914e-19)
(2.54403 -0.00409502 0)
(0.724318 -0.155413 1.00232e-18)
(2.00265 0.0325534 0)
(1.53511 0.949175 1.76881e-20)
(2.47921 -0.177138 0)
(2.11658 0.191853 -1.25296e-19)
(2.08422 -0.0799925 0)
(0.840853 -0.29679 -3.20022e-19)
(-1.2127 1.13453 1.72125e-18)
(2.40121 -0.234939 -1.71044e-19)
(1.31112 0.438091 4.73991e-19)
(-1.78272 0.938357 -2.21719e-18)
(2.35214 -0.964646 0)
(0.983551 -0.187175 -1.22508e-18)
(1.36874 0.221453 -2.01958e-20)
(3.44443 0.425839 -1.04898e-18)
(1.81089 -0.00391764 4.08756e-21)
(4.0718 0.258336 2.21472e-18)
(2.80063 0.927555 0)
(1.68761 -0.756173 -8.38936e-20)
(1.40217 -0.637389 0)
(2.50232 -0.235375 1.43945e-20)
(0.375183 -0.0859075 7.80253e-20)
(-2.33454 0.979532 0)
(2.43194 0.459821 0)
(1.45961 -2.32729 -5.94732e-19)
(2.46465 0.748917 0)
(1.72767 1.89541 1.11062e-19)
(2.90009 1.07355 -3.14927e-19)
(0.451279 -0.202563 -7.44431e-19)
(-1.27701 -0.217672 -2.83841e-19)
(1.98733 0.0364163 -7.61815e-21)
(-0.00366105 -0.317272 1.12831e-21)
(-0.315608 0.317522 -1.06481e-18)
(1.85769 0.0319609 5.30595e-19)
(-1.21035 0.104257 1.54025e-19)
(-1.91262 0.780201 0)
(2.46453 0.200684 -8.9866e-20)
(0.762705 -2.22249 7.26922e-19)
(0.315275 0.267704 8.43808e-20)
(3.45027 0.553438 8.80935e-19)
(2.79263 1.75783 0)
(1.73754 -0.474869 -4.04793e-19)
(1.84216 -0.314471 -1.89524e-21)
(2.02016 0.825155 -8.88308e-20)
(2.75607 -0.062963 -4.40442e-19)
(-1.253 -0.819056 2.41114e-19)
(-1.87081 1.64415 1.90135e-18)
(1.40231 -0.57004 -1.06347e-19)
(-1.54786 -0.209493 5.67307e-20)
(2.83517 -0.15656 -4.22059e-19)
(-1.41966 -0.656793 -2.70567e-19)
(2.16352 -0.919931 0)
(1.91539 -0.172072 -4.81135e-19)
(-1.21588 -0.669574 0)
(-0.17813 -0.532681 -8.02291e-20)
(-0.62327 -0.669533 2.5222e-19)
(-0.435002 -0.433874 8.4295e-19)
(1.48073 0.426446 9.95062e-21)
(-2.35302 1.33895 1.42207e-19)
(-0.824724 -0.366721 0)
(2.12233 -0.768125 4.02659e-19)
(2.0968 -0.816608 1.00272e-19)
(-1.09939 -0.466185 -7.34697e-19)
(1.76812 0.573274 0)
(1.6544 0.548678 0)
(0.13907 0.398047 0)
(1.20345 -1.18291 -5.89431e-20)
(1.86971 -0.0263167 -4.71582e-19)
(1.25995 0.226109 0)
(2.54555 -2.24534 0)
(2.30144 0.201 -1.32703e-20)
(2.53094 -1.00828 -1.22772e-19)
(2.16744 0.320266 -3.68194e-19)
(1.61909 -0.328953 -3.09215e-20)
(1.70332 0.0393451 5.3675e-20)
(1.93219 -0.00971617 -5.75081e-20)
(1.34064 0.166733 8.21198e-20)
(1.94414 0.587133 -2.8951e-20)
(1.87756 1.29888 0)
(-0.479575 0.461469 -2.15029e-20)
(0.184114 -0.164855 0)
(0.993649 0.182774 0)
(2.97414 0.357278 -5.00462e-19)
(-2.5528 0.794312 0)
(2.52022 0.428681 0)
(1.919 -0.127284 7.40704e-19)
(1.79975 -0.788986 0)
(2.00614 0.241504 4.47286e-19)
(3.35579 0.71702 4.49211e-19)
(3.21257 0.792537 1.57013e-19)
(1.65631 0.429219 -2.39907e-21)
(1.07742 1.44269 2.74182e-19)
(2.1366 -0.808558 4.76376e-21)
(1.90767 -0.753487 -8.21196e-21)
(1.11798 -0.41246 4.6203e-19)
(-0.423844 -0.166126 0)
(0.916272 -0.452418 0)
(-2.83028 1.50916 -1.96228e-18)
(-1.28094 1.27678 -2.34479e-18)
(0.133876 -1.12871 0)
(-0.624669 -0.157458 1.49265e-19)
(0.0280966 0.10248 0)
(0.490993 -0.322021 1.09407e-18)
(1.07881 -0.49576 -5.98948e-19)
(3.38596 0.548372 -2.01231e-20)
(3.16883 0.927967 3.5496e-19)
(1.17665 -0.377837 9.3405e-20)
(2.75428 -0.132138 2.06415e-19)
(2.28732 1.00365 0)
(2.38521 0.957086 0)
(1.04648 0.0492132 0)
(-0.384046 -0.183497 -5.232e-19)
(1.35385 -0.515624 0)
(2.24538 0.751093 0)
(1.73365 0.0260998 0)
(2.37127 -0.380052 -6.96312e-20)
(0.725644 -0.115143 3.28329e-19)
(1.95971 -0.742845 -2.16089e-19)
(1.03806 -1.23975 1.80282e-19)
(1.57639 -0.314102 0)
(-2.01383 1.11001 0)
(1.92751 -0.565971 -3.78028e-19)
(1.54513 0.61876 7.12319e-19)
(-2.51192 1.59493 -1.03833e-18)
(2.9471 0.27139 1.54427e-20)
(1.6487 -0.430044 4.27618e-19)
(0.956132 0.496869 -1.13174e-18)
(-1.26312 1.39202 0)
(1.18783 1.41012 -6.34937e-19)
(0.319136 0.439117 -6.97223e-19)
(3.2547 0.618689 0)
(2.19042 -0.0859736 0)
(1.92444 -0.0728774 0)
(2.03388 0.035159 -4.69277e-19)
(1.34977 0.334065 -4.85838e-19)
(1.64909 0.144683 0)
(2.54372 1.38873 1.40258e-18)
(1.72202 -0.76761 3.93177e-19)
(2.40487 -0.354103 8.03921e-20)
(-2.54856 1.06548 7.28911e-19)
(2.0587 -0.246283 0)
(2.55394 0.0902721 5.21212e-20)
(1.6979 -0.396148 0)
(0.466676 -2.17349 -7.2536e-19)
(1.66389 -0.753096 0)
(2.0686 -0.73144 4.80183e-19)
(1.48777 -0.265015 -3.73845e-22)
(2.10723 0.39497 -1.91855e-22)
(2.42987 -0.374365 0)
(1.7489 -0.745175 0)
(1.53059 -0.654893 -5.44117e-19)
(2.34278 0.475683 -1.78942e-20)
(-1.93741 -0.467366 5.66934e-19)
(0.826544 -0.391783 4.69489e-19)
(1.88234 -0.0721619 0)
(1.55446 0.220739 -7.39895e-19)
(2.39368 0.0120741 -5.42667e-20)
(1.37108 -1.36264 -8.53077e-20)
(2.09184 0.556903 4.86422e-21)
(2.21496 0.678572 0)
(1.1548 -0.31558 6.5687e-19)
(0.938474 0.231749 -7.19274e-19)
(3.54378 0.859998 1.00183e-20)
(1.79328 0.288808 -8.46109e-19)
(-2.39113 0.948782 6.00535e-19)
(-0.231392 -0.0844416 -1.95396e-18)
(1.54638 -0.239027 -3.47572e-20)
(2.06093 -0.00645732 -4.28202e-20)
(0.614654 0.399574 1.12765e-18)
(-0.280032 0.200427 1.38961e-22)
(-2.5054 0.838938 1.13623e-18)
(-2.15395 -0.35014 1.24722e-18)
(1.7631 -0.0636855 6.94033e-20)
(2.37234 -0.211944 0)
(0.904621 0.378422 8.99944e-19)
(1.10299 -0.536582 2.65111e-19)
(1.63371 -0.240681 2.57056e-19)
(-0.278819 0.292495 0)
(1.55057 -0.366003 -6.85908e-20)
(1.9083 0.0781421 3.58344e-24)
(2.03711 0.0308019 0)
(-0.0376622 0.349438 6.96562e-19)
(-0.675533 -1.74174 3.77241e-19)
(1.61094 -0.286393 0)
(0.990179 -0.347787 0)
(1.52572 -1.11371 -9.7959e-20)
(1.42002 -1.85091 -5.49312e-20)
(2.94045 0.366072 1.79038e-19)
(-0.297573 -0.0233517 0)
(1.90751 -0.0143927 -4.17872e-19)
(2.60982 -0.946861 -1.77162e-19)
(2.13857 -0.70664 2.7842e-20)
(1.17086 -0.436939 5.80718e-19)
(-2.60144 0.819923 -1.08784e-18)
(-2.21842 0.349856 8.83679e-19)
(3.73515 0.797355 -8.6783e-21)
(3.21052 -1.24925 0)
(2.04834 0.946173 -1.09203e-18)
(1.52114 -0.605246 2.7225e-19)
(2.04304 2.12638 1.66635e-19)
(0.790684 0.655618 0)
(1.13017 -0.210369 -5.79696e-19)
(1.17108 -0.486368 -7.05024e-19)
(-2.73578 1.37751 1.37432e-18)
(0.822779 -0.0899518 -1.0616e-18)
(2.18539 1.49603 0)
(-0.232009 0.422287 -6.3903e-19)
(2.31829 0.660407 0)
(-0.492428 -0.268732 -8.00666e-19)
(-0.177012 0.465166 1.41126e-18)
(-0.7374 2.04644 0)
(-2.60589 0.907671 5.07509e-19)
(1.60176 -0.110024 -1.0657e-19)
(0.673405 -0.189685 4.16592e-19)
(1.61724 -0.635377 4.94834e-19)
(-2.83497 1.68708 -3.237e-18)
(1.14505 -0.519893 0)
(2.00429 0.0223205 1.51719e-19)
(0.531251 -0.164757 0)
(2.27914 0.241386 -3.89701e-21)
(-0.691983 -0.0559313 -1.18299e-18)
(0.492861 -0.176142 3.05267e-19)
(2.28925 0.71639 0)
(1.83233 -0.727136 -3.75681e-19)
(3.13026 0.0508721 1.73016e-19)
(-2.31736 0.714792 2.21593e-18)
(-0.082761 -2.37123 0)
(-2.26511 0.527152 -1.97571e-18)
(3.33866 0.76055 -1.03937e-18)
(1.59646 0.212488 9.47815e-19)
(2.20148 -0.700623 0)
(2.53857 -0.232269 4.2973e-19)
(-1.03238 -0.200521 1.037e-18)
(0.545874 -0.206486 -1.42665e-19)
(2.16211 -0.541712 1.48079e-19)
(-2.20406 0.684276 0)
(1.8936 -0.51933 -5.54746e-20)
(1.87012 0.290345 3.27515e-24)
(2.4961 -0.373033 1.29904e-19)
(2.34014 0.0241105 0)
(-1.94014 1.34803 1.12596e-18)
(1.58706 -0.43517 -2.27907e-22)
(1.24005 -0.347748 7.20943e-20)
(1.55454 0.500894 0)
(1.98904 -0.761088 -1.7007e-19)
(-2.69656 1.44245 2.41863e-18)
(1.65695 -0.391488 -5.34866e-19)
(-0.234051 0.192222 0)
(1.42877 -0.273508 -4.68384e-20)
(2.01461 -0.736765 1.38944e-19)
(-2.56545 0.907736 -1.2115e-18)
(1.46838 -0.280955 0)
(0.396925 -0.164887 1.49205e-18)
(1.60214 -1.23151 0)
(-1.80913 1.85259 1.64812e-18)
(1.78875 -2.14756 0)
(1.88311 -0.122071 -2.73507e-19)
(2.14573 -0.212585 -2.77076e-19)
(2.73369 1.35678 -7.02394e-19)
(1.42602 -0.930472 0)
(1.93569 -0.822164 -2.64427e-19)
(2.00946 0.016223 0)
(2.41431 0.45672 0)
(2.02945 -0.830205 8.0787e-20)
(-1.94045 1.48582 1.10306e-18)
(0.496297 -0.0139423 1.9167e-19)
(2.09541 -0.531734 -8.86507e-20)
(1.67529 0.333052 3.11311e-19)
(-0.0347521 -0.384423 -1.81217e-20)
(2.10822 0.367111 1.71097e-19)
(-1.10624 1.38599 -1.66008e-19)
(2.20424 0.412933 0)
(2.5099 0.301506 0)
(-1.62817 1.54419 0)
(-0.961296 -0.985087 8.93006e-19)
(1.14178 -0.373788 -4.07901e-19)
(1.45416 0.162385 0)
(-1.74002 0.452413 1.04391e-18)
(2.29909 -0.149212 -1.92536e-19)
(-2.11249 0.623581 -5.32491e-19)
(1.3437 -0.483911 -1.32567e-19)
(2.11059 -0.830642 0)
(0.435152 -0.21474 1.27618e-18)
(0.123478 0.147519 -1.554e-18)
(-0.522172 1.95809 0)
(-0.427307 0.290752 -8.46027e-19)
(1.74689 0.0389083 -9.78952e-21)
(2.72542 -0.142311 9.77765e-20)
(1.90325 0.0762605 2.81148e-19)
(2.74841 1.18138 -3.29182e-19)
(2.4557 0.238733 5.86508e-21)
(-1.35279 -0.556429 0)
(1.88917 -0.734908 0)
(-1.5647 0.562266 9.0594e-19)
(0.493242 -0.092486 0)
(1.54731 -0.320988 -6.94664e-20)
(2.11057 -0.738899 -2.54823e-19)
(0.94881 -0.439257 4.91816e-19)
(2.27623 -0.22296 -1.52236e-19)
(1.73609 0.391144 -3.08825e-19)
(1.48207 -0.595244 -2.67824e-19)
(1.56831 -0.620926 -4.9704e-19)
(1.35739 -1.62881 0)
(1.66953 -0.644905 4.72346e-19)
(2.03171 -0.0597236 0)
(2.48061 -0.399525 -5.3571e-21)
(2.00717 1.37842 1.89388e-20)
(0.999688 -0.234038 5.59515e-20)
(2.20063 -0.368531 -2.37413e-19)
(0.692711 -0.278092 -8.99645e-19)
(-0.444635 0.578945 0)
(1.08699 -2.6465 -3.55107e-19)
(-0.352323 0.940008 -2.04477e-18)
(2.12144 0.593055 -1.8801e-19)
(1.77848 -0.710886 4.38663e-19)
(2.10159 0.0162517 -5.28204e-21)
(0.788175 -0.0905219 3.66518e-19)
(1.76318 -0.737659 -9.75149e-20)
(0.265077 0.164049 0)
(-2.04852 0.515406 1.52301e-18)
(1.70652 -0.354466 2.83251e-19)
(2.05231 0.043238 -1.17344e-22)
(1.14111 -0.488814 1.03467e-18)
(-0.700673 -0.470692 1.29461e-20)
(1.67947 0.650157 0)
(-0.891947 -0.963784 -3.24723e-19)
(-2.03378 1.11563 -1.57291e-19)
(1.05782 -0.29954 -7.79583e-19)
(-0.594262 -1.09247 3.24697e-19)
(2.43507 1.02772 -3.05954e-19)
(2.148 0.518205 5.46862e-21)
(0.902106 -0.346896 3.53201e-19)
(1.76188 -0.356441 0)
(2.5754 0.175724 -1.53715e-19)
(2.44654 -0.055124 -6.53818e-21)
(3.02408 0.992794 -3.55028e-19)
(-1.19734 -0.602457 0)
(3.55424 1.13183 2.73319e-20)
(-0.00783097 -0.116578 7.6725e-19)
(1.56488 -0.677695 1.05338e-18)
(-0.198974 -0.567411 1.3087e-20)
(-0.231515 0.874751 -4.44271e-19)
(0.453598 -0.238565 2.4711e-18)
(1.94577 -0.724058 4.40231e-19)
(2.17149 0.026815 -3.9439e-21)
(0.042117 -0.386057 -5.86178e-21)
(2.83252 -0.0474989 4.88417e-20)
(0.198529 0.404024 0)
(2.0301 0.0325333 0)
(2.38308 0.560812 0)
(1.71874 -0.658503 -4.11294e-19)
(2.15998 -2.24552 5.40809e-19)
(-1.07974 -0.384175 0)
(1.20291 -0.343989 -1.68795e-19)
(-0.778537 2.25558 0)
(3.86264 0.380781 0)
(-1.39516 -0.5128 0)
(1.99684 -0.00210673 0)
(0.372397 -0.163823 -4.62231e-19)
(-0.821354 1.24138 0)
(3.88251 -0.0699194 1.57741e-18)
(1.35661 0.0073256 0)
(1.79833 0.272003 0)
(1.93152 0.227671 2.74721e-21)
(-1.09256 1.17049 0)
(3.44446 -1.58255 0)
(-0.740763 -0.285787 0)
(2.58322 0.0688642 1.37957e-20)
(1.68024 -0.096911 0)
(2.12061 -0.816483 -1.04956e-20)
(1.49727 -0.30242 3.08806e-21)
(0.366538 -0.20747 -4.34073e-19)
(1.97979 0.0616802 6.85246e-19)
(-0.165918 0.00585714 -3.12108e-20)
(1.06196 0.960859 -6.04279e-19)
(1.46808 0.771449 0)
(2.35993 -0.354888 8.2286e-21)
(1.61538 -0.187895 -2.50978e-19)
(1.56725 1.77696 1.53569e-19)
(1.84869 0.400033 4.40944e-19)
(0.71847 -0.234252 -7.41354e-19)
(1.46561 -0.645762 -4.1346e-19)
(3.07529 0.0909725 2.39249e-19)
(0.627243 -2.64382 0)
(2.28455 -0.454553 9.38892e-21)
(1.19597 -2.40042 4.18193e-19)
(2.67642 0.32607 -8.10627e-20)
(-2.69663 1.73543 0)
(1.85323 0.0532197 -3.13841e-19)
(2.80628 0.954714 -1.12574e-18)
(1.31489 -0.527341 5.34768e-19)
(1.20051 -0.543041 -6.46132e-19)
(1.60506 -0.73994 0)
(1.71362 -0.752221 0)
(3.64602 -0.66091 1.72837e-18)
(2.26034 -0.377615 -1.4965e-19)
(3.42709 0.412525 -5.81274e-19)
(1.74332 -0.0329864 3.97654e-20)
(1.18543 -0.313305 -1.56785e-19)
(1.6477 -0.490152 4.52344e-19)
(2.51062 0.314882 0)
(2.43317 0.320444 1.4391e-20)
(0.335235 -0.112142 -1.90714e-18)
(2.75809 -2.12768 2.30903e-18)
(1.0652 -0.184912 -2.36624e-20)
(-0.76406 -0.109625 7.03001e-19)
(3.30557 0.436086 4.85429e-19)
(2.55071 0.762726 6.07112e-20)
(2.38561 0.645917 0)
(-1.62079 -0.747221 0)
(2.17754 -0.815235 -2.75762e-21)
(1.13829 -0.233508 0)
(1.83448 -0.36504 1.89001e-19)
(1.63058 0.274267 5.37837e-19)
(1.65563 0.504328 -1.58377e-19)
(1.53908 -0.627041 1.07704e-18)
(1.87237 0.322825 1.31427e-22)
(1.45099 0.0225455 0)
(1.80467 -0.0905295 -8.59679e-21)
(-0.952599 -0.296084 -9.1851e-19)
(2.15608 0.297678 0)
(2.55381 -0.401487 0)
(1.86207 -0.74542 1.61536e-19)
(1.97395 0.602384 2.43631e-19)
(1.07172 -0.149657 0)
(3.54127 -1.01356 8.64329e-20)
(2.7865 -0.0178126 2.03143e-19)
(2.34965 0.349255 3.41539e-20)
(1.74314 0.491311 4.67488e-19)
(-1.3302 -0.285377 -4.51347e-19)
(1.26503 -0.7315 0)
(0.458531 -0.423848 -2.21207e-18)
(0.467919 -0.194104 1.10654e-18)
(1.97095 0.00419509 1.73148e-20)
(0.192461 -0.294709 -9.32169e-19)
(1.75076 -0.722995 3.10181e-20)
(2.63488 0.354602 2.14299e-19)
(1.91466 0.00181789 0)
(1.96524 0.206311 2.95423e-21)
(1.8102 0.0483229 9.74563e-20)
(2.10606 -0.0226298 -1.67873e-19)
(2.17025 0.592699 -1.46526e-19)
(2.1624 -0.771573 0)
(-1.15715 -0.131875 0)
(2.56948 -0.0056007 0)
(2.28957 0.463554 -7.64526e-20)
(1.02134 -0.471414 7.71436e-19)
(2.40286 1.85982 -8.63884e-20)
(1.44948 -0.0718464 0)
(-1.92001 1.6316 -4.58622e-19)
(-1.21973 -0.990212 5.30015e-19)
(-1.57469 2.22021 0)
(1.93701 0.277722 -1.43738e-19)
(1.64442 0.257658 -1.79e-19)
(3.21858 -0.154369 -1.11507e-19)
(2.0378 0.48571 5.28858e-21)
(0.615203 -0.195339 0)
(2.15492 0.203106 -1.82532e-19)
(1.99579 -0.389939 0)
(2.05083 -0.252393 9.90159e-21)
(0.974446 0.0932357 0)
(2.20022 0.88072 1.0402e-19)
(1.63889 -0.655432 -4.82763e-19)
(2.39148 0.842018 0)
(1.8174 -0.115873 -4.78276e-19)
(2.11661 0.600736 -1.85731e-20)
(1.86706 -0.607197 0)
(1.10794 -0.526732 0)
(0.46854 0.230101 -9.36678e-20)
(2.47708 -0.235516 -1.36611e-20)
(0.522056 -2.52737 -3.97107e-19)
(0.06418 -0.211912 -2.4073e-20)
(2.72212 -0.115298 -2.49289e-21)
(1.39723 0.213082 7.81293e-19)
(1.75364 0.409604 -2.00868e-21)
(2.06777 0.575195 0)
(3.34746 0.953799 4.88807e-19)
(1.6536 -0.751927 0)
(1.45477 -0.66764 -4.52284e-19)