/*--------------------------------*- C++ -*----------------------------------*\
| =========                 |                                                 |
| \\      /  F ield         | OpenFOAM: The Open Source CFD Toolbox           |
|  \\    /   O peration     | Version:  2306                                  |
|   \\  /    A nd           | Website:  www.openfoam.com                      |
|    \\/     M anipulation  |                                                 |
\*---------------------------------------------------------------------------*/
FoamFile
{
    version     2.0;
    format      ascii;
    arch        "LSB;label=32;scalar=64";
    class       volScalarField;
    location    "2.9";
    object      p;
}
// * * * * * * * * * * * * * * * * * * * * * * * * * * * * * * * * * * * * * //

dimensions      [0 2 -2 0 0 0 0];

internalField   nonuniform List<scalar> 
13486
(
9.70271
7.77739
0.269779
-1.80174
3.2284
-1.23435
1.39554
5.60494
6.62587
3.27633
-51.8929
1.48092
10.2784
-1.30232
2.5101
3.69898
-20.9506
0.17298
2.0879
8.74618
-1.3005
10.1578
7.60964
-10.1425
3.18068
-9.18538
-24.2541
-4.29278
0.00614406
-3.75953
-0.981265
1.77381
-8.51538
-2.63285
5.61447
-0.000771614
-0.0776395
8.04577
-0.641661
6.57468
1.26228
10.6897
0.0878421
3.12021
2.94122
1.37229
-15.8064
0.0115421
-0.0768985
-4.2624
5.50709
-0.690018
1.06912
8.13827
-0.0434665
3.52068
0.143216
-0.711914
-8.05132
-0.0491467
-54.9425
-0.0297633
-12.0432
-1.20631
-5.1706
-0.0601621
-2.3569
9.70589
6.58225
-0.233766
-2.38617
0.0214829
6.57002
-22.2233
-0.021678
0.156919
-0.0169912
2.46149
-18.7317
-1.05258
-0.0056571
7.83553
-12.3365
0.263208
9.74982
3.12363
-0.879495
5.17593
6.33034
3.67777
1.21525
4.87197
9.33112
8.30563
6.9182
0.00986139
-25.3078
-3.52131
6.45866
-20.8181
0.0149606
-0.964004
-3.59286
-0.696456
3.7456
-20.4414
6.41869
-0.67852
-17.9349
4.4924
6.45145
1.42301
8.13362
0.145186
11.3737
6.74905
3.19613
-2.4863
6.63931
-0.0499391
0.162623
-52.3005
7.22057
-0.660293
6.39661
-0.646649
4.63533
1.27692
-2.20964
-4.00189
-0.632466
-13.3132
-27.253
-17.0677
5.78053
5.17302
11.2685
4.66533
-0.0578003
5.72554
-6.68705
1.09471
1.72829
-1.07161
0.141672
-20.587
-0.61631
6.5748
-4.57011
0.00429427
3.47806
2.35554
-0.000614579
7.99821
1.60637
0.25217
3.78415
-0.0334047
7.29893
-0.672857
-3.28913
7.29088
0.820464
10.6311
-0.716607
-2.43511
-0.366955
13.0876
-0.658554
-17.1154
-27.0142
1.66612
4.28525
3.41308
0.0123045
-14.5615
-2.05024
-7.76995
6.42734
1.78264
6.15933
0.161227
2.74355
-25.1549
0.170338
-4.2802
-0.000684631
-3.42798
1.52063
7.06526
-0.0521901
0.231112
-0.812427
8.20172
-0.948179
-50.1696
-4.2253
-3.57401
8.84589
-2.09569
-1.06175
1.17375
8.05671
2.80781
-0.512931
-0.971539
0.0636595
7.0674
-0.774573
0.213199
-3.77261
-6.54064
8.61778
6.41791
-1.2255
-1.94709
-3.92074
3.8554
8.85907
-8.78359
-20.8888
-4.70732
5.87348
-3.56863
0.614813
9.57502
-2.42669
-3.0114
-1.57427
-0.937814
6.07934
-0.830363
-6.98857
10.9049
-2.52662
9.17933
-2.91592
0.236201
9.26765
2.83193
-8.65105
4.18996
0.180065
8.77916
-0.646257
7.38973
2.89193
-5.88986
-17.2916
3.57212
-11.3315
11.4956
6.49994
-0.704595
-1.28511
-20.272
1.70116
-1.86407
0.0301781
-8.32658
7.05958
-0.615345
2.43964
-18.2976
3.74888
-25.8466
-1.61131
-1.22061
6.15851
0.0398016
6.37367
6.22972
-4.08428
1.0544
9.58956
-5.47669
-1.28626
-0.954332
-0.760813
-0.500278
-1.09799
5.38703
6.4724
-20.5526
-46.7571
-21.8309
-6.30412
-2.32778
0.572047
6.20093
-2.28493
-0.360706
6.96011
5.8465
-2.78162
-3.15201
-3.45996
0.930073
6.61245
1.34067
0.743195
0.0692887
-0.582843
1.90039
-0.0905249
2.88435
-0.742828
3.09441
-0.923783
-0.0589297
-15.5095
-1.68514
-0.955347
1.42483
-53.7006
5.29314
-0.373152
6.35014
7.09913
-1.84448
-0.0643271
-0.365136
6.34296
8.37268
11.1762
1.31909
4.16497
5.25663
0.435757
3.84024
5.23214
4.62431
1.04559
8.92547
1.36062
6.53336
11.8662
2.53515
3.79382
-0.618622
-1.71723
8.28343
3.68261
2.81924
-27.7709
0.00681066
4.33966
11.4412
-8.75435
-0.421499
4.10237
0.619763
0.971225
-26.6608
6.56216
-0.0144935
-23.4828
4.50676
-0.944451
-6.22661
2.18255
1.079
7.18444
6.26309
-3.92393
0.0101475
-3.00927
-11.6339
8.83696
4.55654
0.0866695
4.41922
0.501471
-14.5179
-0.951911
5.63561
6.3793
-0.497581
-51.2861
-14.5471
6.04808
4.57448
10.2243
6.75693
-13.1636
-1.35125
0.154615
3.67401
-21.6975
-0.64473
8.47101
-4.48238
2.54193
9.31595
9.48958
-0.0111
-1.96913
-13.6477
-21.6387
-6.64446
-21.8322
1.63682
5.71748
-0.867232
1.56168
-0.412028
8.16626
-7.50875
4.64023
7.31121
3.56128
-4.4058
-4.89411
6.63317
6.33654
7.91749
-23.0551
3.8519
-26.4561
2.94856
6.42828
0.696169
11.4789
3.99932
-2.90752
-3.27352
1.14367
6.46881
-24.012
0.103329
10.0419
5.7544
2.48009
0.443109
3.14899
-6.57359
10.1763
-0.411028
3.6147
9.53997
-21.0805
-4.16072
-16.9322
-4.98311
-2.36017
7.72294
7.54092
10.1024
-14.9833
-0.0664383
-29.0856
3.88915
6.48179
-4.19096
-5.74016
6.21271
-10.2208
-14.6936
-22.9389
-18.9535
-0.469708
8.15469
0.00361468
0.225473
-1.38509
6.10106
0.0166461
12.4575
9.47726
6.60156
5.42534
0.000243305
0.00445124
11.7899
-1.32228
-0.039961
-2.83266
6.59586
-21.7522
0.853124
4.39612
-0.0554911
-3.08457
7.52871
-8.06535
-21.4119
4.00745
-0.713929
13.0368
4.11699
5.55931
7.03014
-16.1999
0.456513
10.4776
3.406
8.42231
1.56394
1.59081
-1.3945
-1.05241
0.116986
-20.7513
6.62775
6.60917
-11.5996
0.00396538
-1.46131
9.58772
7.74646
-1.3397
6.72558
4.73727
-2.92807
3.84073
5.66216
-27.0474
10.0531
0.0108324
-0.207841
10.5753
4.66454
-0.00828569
4.18383
-1.71424
-7.76352
2.55781
4.3129
7.31968
9.3589
-29.002
3.07934
-29.6482
0.00567727
9.16466
1.6073
-24.1406
-4.07336
0.665454
0.00367489
5.34786
-4.71614
-5.44019
6.7451
8.82472
-0.855581
7.03721
-19.8976
-17.6753
-6.97637
2.35936
-31.248
7.12046
0.355942
-54.5793
5.59541
7.71588
-8.36065
-28.2151
5.57836
9.12666
1.87643
9.78607
0.39426
4.19666
1.2631
7.19663
0.154517
8.88664
-25.5342
1.49997
6.37699
-2.04684
-5.14231
6.31369
-21.5648
0.995273
7.39699
10.1615
-2.03172
-0.0441493
1.60594
0.884793
5.75591
4.57935
2.45585
-34.6663
-0.163904
9.69623
0.8101
0.361493
-12.6606
10.2301
-2.43896
0.167398
6.10821
5.29896
-1.06551
-1.62919
5.72163
0.249436
-0.90333
2.25188
-6.6804
9.87753
6.55337
4.34258
4.52566
0.177563
-6.30581
11.036
1.78581
11.0877
-2.61945
6.21119
0.0115992
-22.1948
4.15535
3.56518
11.5786
-8.6724
4.37824
4.01138
-9.35564
3.38067
0.180638
-2.74232
6.35671
-28.0256
-4.87994
-6.86233
-1.07931
-2.24594
6.96844
0.000702942
10.8195
6.51054
-0.472282
-16.3398
-3.66953
1.90309
-46.2886
-1.51151
-20.6867
9.11381
-0.000354266
0.173589
-38.0476
10.264
0.00889186
0.659254
10.5924
5.58746
-20.3414
-0.867513
4.54897
0.303363
6.37692
0.169375
-2.85107
2.21515
5.85054
1.68106
5.23491
10.7532
0.170361
-7.84688
6.29623
0.682034
-1.53443
4.43481
4.65816
2.67922
-21.6286
0.372142
-0.488154
0.528092
9.14602
1.76963
0.338628
0.291252
0.888014
-1.04944
6.50742
-0.0973984
6.26162
6.13153
8.92849
0.224678
-4.79085
10.986
0.0183672
-9.36382
6.77815
-6.61301
7.30491
0.153608
6.10823
-0.864656
-20.0349
-8.23548
0.00757227
-21.197
3.32417
11.2886
-2.20881
-17.8892
-2.75209
6.68386
-0.094502
2.65691
-43.8806
11.1278
-20.8774
3.36816
-4.48121
3.64576
6.40243
2.35657
-13.3687
-0.991318
10.4462
6.31981
2.91824
5.7591
0.518754
5.0924
5.25326
3.59978
-15.7135
-1.27827
8.08976
1.37937
-0.777142
5.60076
-7.7237
-2.12352
-0.480949
6.98236
6.87016
-4.78863
0.226985
-18.6199
-1.08438
0.292316
-2.17733
1.091
6.06424
-0.607325
-6.14323
7.65354
-0.281498
-2.9089
-0.602401
-3.38098
-4.71674
-7.19242
-0.51926
-25.9131
6.35443
10.241
-0.0231403
-2.93738
10.6224
9.93711
-1.85712
-4.33344
6.79271
-16.7491
0.200051
-0.163551
0.0190579
3.74086
-21.4005
2.65364
4.2387
-3.02694
-1.4142
-9.29309
-1.11777
5.63448
2.77912
4.09655
-6.23599
5.52824
9.75755
-37.2429
-23.358
7.37188
2.59342
4.0609
-0.628408
-3.60715
-6.8513
-0.931819
6.55136
11.096
7.10121
0.1383
-0.96148
6.37529
9.45358
-1.53118
7.01988
6.37726
9.78822
1.52722
-0.455568
0.68612
-1.74819
9.79087
0.245149
-0.495472
4.24799
-1.27962
1.39323
-0.857535
-6.67585
6.08098
4.59443
4.34633
2.9149
-17.7448
-1.93277
-2.02625
3.75407
-7.11336
-3.16088
0.138119
-28.5963
-56.5781
3.24695
-3.62535
-16.9535
-13.2245
-2.4613
4.99481
-45.0949
-12.8862
7.26806
-1.89452
10.2024
-2.97344
-17.7275
7.79353
9.20099
-0.00873036
0.174156
1.83255
6.6061
3.83706
-10.523
-1.0391
-0.0997616
-1.31701
6.12506
0.160136
3.62333
-0.410436
6.60282
-25.7141
0.171905
-0.0121105
7.90917
-5.53345
-53.3893
-12.0831
10.0709
-0.00495567
-7.94138
-55.4667
6.38606
-10.163
-0.361622
1.32253
3.09442
-0.366149
4.45735
-4.97296
5.23294
6.17345
7.55883
2.74157
-0.300494
-2.46769
4.78544
-2.40379
7.91836
4.37171
-1.08274
-0.709211
-1.42765
-0.687473
-0.0799211
7.31639
2.33817
0.776288
6.35976
0.108553
5.16849
11.4555
-0.860001
-8.26471
4.29027
-0.642795
-0.468007
-1.50191
-1.37278
6.37722
0.170653
0.0356064
0.143448
0.306003
8.40884
-18.8261
0.012291
6.39289
-0.594694
9.17955
7.42081
8.69685
1.49458
3.99199
1.89157
0.197626
4.96145
6.32204
-0.939684
-2.07467
-11.491
-3.56143
-35.53
6.40777
-16.1606
-10.0055
-26.0191
-0.907602
-0.0274322
6.43754
-0.0109536
1.14174
-16.0494
6.36982
11.3527
-0.487227
-48.6492
3.51165
-0.216028
6.26262
-0.611137
-0.656419
7.85322
-0.756514
10.7807
4.34156
6.3216
-3.51656
8.42062
0.188743
7.46714
0.0147332
-8.58195
-1.92922
-9.83712
4.17179
-0.571036
-0.634639
10.1138
6.35005
6.96453
9.20715
7.09604
7.88902
-1.9842
6.82861
6.38666
6.58216
-1.8042
-2.40865
-4.61378
-5.63127
1.56184
7.36343
-20.4059
9.53554
-6.23655
0.170665
10.9982
9.26589
-2.03452
-8.47017
6.50264
3.20562
0.473409
6.14499
-19.3981
-2.90776
6.31218
9.00901
-0.632951
7.25355
8.32589
0.00314931
-3.183
8.35358
2.77814
-0.0741536
-34.3703
0.249703
-6.4636
5.96764
4.44737
-0.152716
-0.53544
-4.35972
1.58687
-0.417584
1.35998
9.44194
-0.58892
12.2741
6.44332
1.96644
7.26107
-20.7679
-23.6352
-8.99873
6.35928
-0.642797
-15.5112
-0.994877
2.99117
3.72041
-0.589657
4.81746
-11.3819
3.31755
0.0209452
-0.454285
5.13315
1.92527
8.45092
6.53213
6.75891
6.21086
-2.05599
-7.02002
-5.48696
0.355738
-2.48246
-0.878358
5.01924
-1.5309
-0.243493
-0.152356
0.593164
-45.1458
4.42613
2.98279
-1.11862
-4.5999
3.0531
-4.52268
-6.85521
0.740391
-0.596173
7.24088
4.65995
8.41857
-16.7997
5.72147
0.161247
9.08449
-0.772903
3.24854
0.232694
-1.17744
10.5491
10.7845
5.32074
3.76058
4.27032
6.00487
10.6818
4.49207
-7.57432
-40.8729
1.11452
-5.53508
-14.6593
6.35564
6.22244
-0.385045
2.00632
5.60492
5.82914
11.6068
-19.3859
5.00402
-21.7237
-1.33808
9.25195
-1.37609
5.44719
-1.40577
1.84545
2.43161
12.0809
-2.38108
-4.62823
3.06569
0.823236
-29.8834
-19.3694
0.230181
7.15875
-4.24967
3.73256
9.91686
9.09857
-1.02812
-12.4344
-3.0431
0.97773
7.71299
6.10819
9.08345
3.87291
-57.2731
9.51088
5.98724
-9.65633
5.04748
6.56839
8.24496
-45.7607
-0.934256
0.00170704
5.40151
10.4534
3.37068
0.536666
-6.44874
11.6533
-42.8255
-6.52237
10.8989
5.56777
-0.0870251
5.15561
-2.13246
3.54083
-2.95106
-43.9661
-0.550474
-11.8336
0.0186845
-2.37722
-18.9472
-21.1546
-15.1659
0.325929
-21.6388
-12.2711
4.97797
5.90225
3.67056
-12.2613
1.61723
0.842001
-2.11969
12.2062
4.32839
-4.964
5.56935
-2.95041
-13.2843
5.46556
5.45964
6.21278
12.3029
0.0196875
-1.34692
-10.4381
0.17853
4.46409
6.48333
-2.8644
9.65603
4.44866
6.79877
-1.45745
-1.03549
0.218181
6.7776
6.41776
7.06821
6.38154
11.2816
11.1721
-3.05362
5.60304
8.23429
-4.80735
9.0688
-0.4874
11.0426
8.99474
-0.00882745
7.32632
3.03356
4.99844
0.144462
6.51231
-6.75154
5.62472
2.36463
4.53467
-1.247
6.29243
-0.379815
1.53915
10.6692
10.6679
4.31584
-17.6416
1.45393
0.766364
-1.28783
5.19314
9.54506
-17.603
6.58607
6.20672
3.08173
6.72848
-27.1171
-1.44858
-0.167356
11.4092
1.83989
-4.77463
7.43528
-1.26469
0.175567
2.99499
1.10949
4.82159
2.87999
-3.55112
3.78603
5.28362
4.2938
4.90886
11.1771
9.16073
8.16417
7.24118
10.4569
3.1096
-0.5332
-0.000251552
-7.04248
10.5168
-1.56593
6.41002
5.82418
-20.1403
3.36202
7.12635
-8.35714
3.14665
4.0619
12.4722
-26.8521
2.74725
-0.171738
7.52778
0.236739
-2.57136
10.3362
8.87157
6.26183
6.35387
-3.33977
3.30102
-20.6128
11.147
0.0495596
11.9845
-0.188157
0.465355
-22.2778
3.72106
-22.6563
1.01159
-0.79953
2.11512
-0.773901
1.98541
-3.30115
0.0056772
-1.90505
-16.2001
-4.14889
-10.8409
-0.947863
-0.990875
-1.19589
-49.2365
6.71693
6.84186
8.17853
6.23185
2.52701
2.41504
12.9761
6.24879
-25.9908
0.016198
-0.964467
4.87402
5.67015
9.68112
-6.14346
-6.13754
5.45548
0.00889866
1.52566
8.10036
-18.3135
-25.1515
-20.1855
11.2774
-3.40457
4.34674
8.26782
-0.540044
5.16761
-0.350984
-33.4615
-28.8442
-0.305472
4.20503
7.75838
8.09773
-11.4148
-16.6092
4.43716
-22.4881
-3.89856
-2.11162
1.1873
-2.87193
-0.903847
-4.14093
-27.8228
-9.533
9.99751
-1.42876
10.829
-32.59
-1.36723
2.38945
-0.0925319
9.23041
6.47427
7.61596
-0.753286
-3.0022
-36.7024
8.92995
-16.1913
4.58139
-0.45502
7.84242
9.17773
-0.484869
6.36598
10.4391
7.14557
6.92553
-13.379
-0.551526
2.61785
-6.18775
-0.803072
4.00097
4.81083
0.23459
-43.8135
1.34169
-0.038598
5.76445
4.93484
-3.94549
11.0054
0.196873
-0.00815621
0.699011
6.16991
-4.097
0.0149519
7.0647
-3.69557
0.193836
-1.76347
6.95214
6.20872
5.91967
-0.907216
6.00292
7.43202
7.30025
-2.93403
0.186212
1.31095
5.56967
-6.24116
-23.4237
-6.74529
-8.4043
-2.10993
0.0407168
-0.736389
0.156518
-20.3974
-4.71084
-49.9747
-0.0730108
-3.09417
2.25498
-28.7942
6.8157
13.1605
2.07297
-1.88148
2.76654
0.587949
1.45406
0.058867
-3.66714
-22.7845
0.487984
8.56685
0.0179683
10.2609
0.023436
5.89643
5.36304
2.77008
-22.7062
3.97726
11.2114
-1.2013
6.23336
6.10324
9.63206
0.487968
8.8294
7.06926
-21.8022
7.5156
-28.1734
-30.1775
9.04223
5.57184
-10.1582
0.044946
8.35183
1.04634
-7.4806
0.140591
0.15952
4.9677
3.25398
6.41961
6.16044
5.44805
-14.1028
-4.35228
-2.75083
6.27751
12.014
-4.10453
-39.2673
-22.5697
6.6119
0.364554
0.368143
2.99972
0.224641
5.02921
-0.829816
1.43426
9.82709
2.54925
0.0842197
-1.07718
-5.66658
-6.59449
-21.4214
-9.27889
-26.0466
7.67131
3.24685
-4.88807
10.3284
0.0186014
-36.4457
-2.10081
-32.3413
7.03302
-15.6616
1.98151
6.46536
-1.15783
-3.00762
-0.954015
-27.3162
-2.25629
7.00564
-49.1593
-0.382198
-20.3186
6.11106
6.88237
-3.68706
8.16979
7.56782
9.91018
10.0783
7.22801
0.897673
11.4024
-20.3339
6.3689
1.25613
-34.6757
7.86808
-5.71065
9.81866
2.89082
-7.49666
-14.0199
-9.39722
6.85345
-6.73275
-3.3196
-0.646671
-4.94375
0.0844539
3.86421
1.00962
4.71287
11.2652
-18.8211
-8.94807
-3.38811
6.84744
4.83584
-5.81563
12.9708
-0.495038
-0.0209425
4.14787
-7.01536
6.03668
6.67201
7.42235
7.62168
0.15414
3.45464
6.14886
1.28647
-0.963143
-0.000276946
7.05669
7.22403
8.99778
-0.97121
0.240083
3.561
3.77678
0.977789
-22.4615
5.29584
-1.78739
5.50617
6.59481
-21.0129
10.2808
-7.66391
11.0156
7.38826
-42.8302
-0.000119464
-0.0489313
2.48054
6.7574
-32.6332
8.82057
6.05583
3.50618
0.141263
1.18532
-1.68127
3.53536
-20.4933
4.13906
-2.0094
6.18626
-22.875
-0.238755
-2.64129
7.93872
9.3478
3.11644
-20.5495
3.01306
-1.1024
0.119249
3.40155
-0.844874
-0.853816
10.8518
-3.56967
-0.548854
-6.43284
-35.2573
-0.304685
6.35744
-20.7124
-2.24063
6.72609
4.14374
6.88968
-11.1494
2.83367
10.9115
-13.4058
6.18966
1.92411
-0.688989
2.04543
1.34235
-4.18813
11.1629
7.40499
-0.462836
10.7883
8.43287
7.88136
-20.9776
-22.0024
4.34645
-8.01246
-0.333674
-15.4036
-6.99364
-14.0165
5.08563
2.35449
3.95789
4.32234
-0.690659
5.03127
6.33478
-50.2386
6.88133
3.90097
6.26521
-1.10177
-0.0487402
-3.83658
-21.3716
-8.55898
-2.58956
6.25426
-37.9697
9.97763
-19.5897
6.04975
4.134
-0.164921
1.11003
6.57049
2.87986
1.34748
5.80195
0.531893
0.107069
9.46525
7.67044
-6.18699
-21.0692
-0.0179362
5.62468
-0.13652
3.10889
-11.3069
-0.15689
-1.1914
-4.10069
5.57878
5.59912
0.424404
2.84117
-0.348115
-0.3524
-32.0401
7.99301
-5.08889
6.2912
0.0103819
5.46719
6.81762
3.53891
5.97454
0.168651
-3.36132
-0.272147
-25.1665
-6.51065
-7.14289
-0.0820471
-0.682867
5.11376
-0.593755
6.14773
-0.448226
0.150932
-10.008
-0.465794
6.6692
-28.8091
6.24093
1.47657
-20.4745
-0.0871848
-5.70378
4.43169
6.46153
-0.335466
1.04854
-24.5667
7.69333
0.214034
1.88046
-26.3212
8.08677
3.08265
0.0101861
6.83202
6.70627
7.83336
1.16993
7.94161
-14.4069
-0.223521
-1.11889
6.38075
3.97299
1.58602
0.833366
-16.0763
-28.5888
3.50936
0.205296
-32.0318
9.97685
-14.6242
7.73204
4.58133
-3.37721
-0.551858
-1.73651
-0.997243
0.537887
0.785404
5.98329
-0.226984
6.38549
-10.2172
2.90614
-0.828864
1.49025
-18.1428
8.1591
10.9594
6.98749
3.86421
1.60745
4.20859
-24.613
-0.047781
-1.07703
-1.24613
-7.04458
-46.4631
-19.6014
-4.6696
5.73139
6.46625
-15.5064
1.5256
7.26523
-4.36679
-9.38227
6.88176
-0.557313
-48.3638
0.127643
-1.7811
0.0220824
10.2246
-1.14049
6.27457
-6.63864
-4.52187
-4.26994
6.28238
1.5834
5.38858
-5.46365
-5.5409
-1.43721
1.13216
7.43646
5.6287
0.935533
-0.800964
-2.74486
11.4121
-0.945305
7.31993
8.15166
-0.454869
-0.703475
2.87111
-22.1798
-3.33798
5.52923
3.68095
6.17296
-9.18822
6.97792
0.594167
9.16972
1.14616
5.62687
8.11637
5.2811
1.16415
-21.3936
1.91674
-27.3617
5.73607
2.81549
7.79469
0.368267
9.87398
0.950901
10.5259
-0.192992
8.21855
-1.18602
4.7815
-40.818
6.05443
3.04118
2.58766
9.6093
6.30641
1.51181
-4.1989
3.63843
5.94262
-0.447273
-21.5784
4.54784
-3.7853
8.37061
-3.98714
10.0268
1.44743
13.109
10.0214
4.90227
4.40095
-45.3831
0.154461
10.7107
-0.617842
-0.570017
-1.14175
10.4512
3.12623
5.51836
8.94819
-4.70362
6.95439
-2.16883
7.73625
0.174426
7.35026
6.50043
9.03197
-0.523001
-17.315
1.77638
-6.41076
2.9361
1.41036
-4.03665
8.26086
9.42295
0.0844374
2.36379
-2.00387
8.53209
5.25702
5.90417
3.84776
-1.00306
-23.1503
-1.58366
6.54386
-10.3293
-0.351285
0.497729
4.54476
2.97122
-4.38239
11.2819
-0.604009
9.9741
2.17015
9.98168
-3.59962
1.41487
-0.10916
0.200416
5.37702
6.22417
0.468442
-0.312734
-0.158884
-0.410014
9.44329
-2.33927
-0.174872
-0.739658
-0.302783
2.53604
7.97854
3.09616
-0.359614
0.0446125
6.32532
12.0273
-6.95802
-1.39002
6.28865
0.0103855
3.04475
-0.51676
4.8123
-0.297499
-11.4414
-1.5699
-1.73355
-1.37079
-0.748463
-15.5924
-7.91611
-0.236138
4.88078
6.84164
5.49052
11.7054
-57.5818
10.4239
-22.9571
9.86904
-32.7128
-5.28195
11.3201
2.53327
-3.1852
6.63761
-0.580605
7.15881
-1.10279
-20.4511
0.930236
-4.50005
-5.51239
0.003004
-1.34438
2.41761
8.13557
-31.9589
2.65439
-10.0642
1.53046
-0.667214
-0.409586
0.847283
-0.730374
-8.44554
8.36514
-0.261297
9.22232
2.3367
-27.9406
2.06667
-5.83002
-0.0866218
5.40949
8.0637
11.5999
4.77347
5.40457
3.05782
-18.2006
11.2071
12.0937
6.98344
-4.32466
-9.02395
-29.1131
5.94625
4.30359
2.31109
5.24192
-1.13629
-0.312295
-52.5074
9.57169
0.397955
0.563416
-2.96401
6.30627
1.48399
12.8316
11.9931
5.63455
0.562927
1.68911
-17.155
2.49769
12.3263
0.44968
-0.0709863
4.81968
0.0136113
1.19491
-1.3134
-2.11942
1.28332
0.877496
2.75981
0.00204604
1.89038
9.03023
2.36858
6.79604
-3.48902
-2.49107
10.9621
-18.8402
1.13391
1.89587
2.67185
1.0469
-4.31855
1.63049
-0.353819
0.957076
12.8969
-22.7608
-15.1354
-10.543
-4.44765
0.200454
1.9041
-3.12934
-13.6306
0.0160856
-11.8043
-5.41958
-6.03442
1.02838
-0.976344
0.375823
12.6145
0.47566
1.73127
-1.35075
1.15482
-16.7735
-2.6688
8.80536
6.34364
1.79209
-0.325758
6.07815
6.80935
0.0381615
-42.2732
-1.07448
8.76799
-4.53806
5.8635
-0.00184988
9.91188
0.529903
-4.10906
0.299513
6.97006
-3.86753
5.64426
-4.77722
12.2593
-2.8418
-1.88872
-47.8944
2.88713
-4.60049
-5.6671
-3.20482
0.530486
3.18428
-11.0743
-0.842807
-0.930634
1.14751
-5.77355
-5.52053
5.04222
-28.3157
5.59678
-3.667
7.03916
11.1613
6.14091
-18.0648
6.57486
0.50889
1.1783
-1.03011
-2.72904
-21.0331
-4.79335
-3.03906
3.12659
-0.24579
-4.26121
-0.403614
-37.8073
3.23025
6.32544
-6.34753
-5.17758
-2.54469
-0.00639348
-0.388321
3.80015
-11.9227
-5.8105
6.48758
-0.539623
3.93917
-7.22049
-47.6138
-30.1238
-59.7528
12.5619
1.98925
-5.47237
1.79864
10.4938
10.9871
-4.89424
-2.24645
6.28898
-0.302788
-3.44191
10.7982
3.55965
5.87275
12.7976
-2.13028
2.15529
0.757598
9.65716
6.59402
6.75203
8.08666
4.42937
0.121571
0.24299
2.86119
1.42325
-22.1168
11.0841
-3.01187
-3.66116
0.0233266
-5.4213
3.15898
-3.00838
-2.46098
1.49401
6.77818
6.89571
7.47668
-23.3115
9.48912
10.7912
-15.9728
3.92878
-1.04045
-0.712492
1.15785
3.69979
-0.556633
-4.40633
-3.85471
12.0042
-28.4056
7.48711
6.44266
8.66182
4.96298
5.04387
-0.360149
0.0974214
4.05087
-0.697588
-38.7157
-9.63043
0.204512
-2.31427
7.93243
-9.44136
-0.244052
1.20954
-16.0734
-3.9036
-20.4115
5.6308
-2.1939
-1.05206
2.68229
-14.2367
2.2447
-16.2769
-1.04196
6.89338
-33.32
11.0002
-0.00495073
11.6444
0.00797907
-1.09519
0.814579
5.53862
5.52425
-11.7265
-1.21614
-1.49232
0.627857
4.5508
12.7688
8.69834
2.16181
-4.30358
3.41525
0.015757
7.48648
-0.520458
3.74491
-1.77625
-2.90356
-15.8791
2.71442
0.117358
-15.8795
4.08745
3.97991
10.7143
11.399
-21.278
-20.996
0.539225
-6.28913
11.2146
0.292883
-2.72781
2.6344
4.52714
-1.83202
0.228805
0.476458
-0.555181
6.04161
-1.35658
2.13514
-0.43553
-4.92689
-10.8534
-1.97987
-11.2152
-10.2766
7.18499
-5.73063
-3.52151
-2.40503
0.259137
12.1575
4.99876
5.93474
-2.60611
3.27238
-0.562827
2.66376
1.8119
-3.12136
-19.2806
11.1907
6.78093
-0.345006
-20.1014
12.5841
-4.30921
-25.4781
-1.56735
3.34531
-5.23893
-1.74345
9.59344
-0.721476
5.97198
2.43464
-1.92571
0.526167
-1.70056
3.09918
-11.9921
-0.153071
1.88097
6.31187
-6.37125
-26.0445
0.368493
-3.3606
-7.35152
-6.64785
11.7765
4.14547
-35.7097
3.15772
1.47815
10.4495
3.66255
-20.1819
4.06218
8.1581
7.16808
-4.63003
5.62373
-0.357377
11.1021
0.0993243
6.54281
-32.7612
-4.1928
0.0107508
-2.24773
4.02424
2.07619
-21.5595
-6.70506
7.61807
-0.256745
-0.785919
9.01202
4.96756
8.77762
5.87261
-5.80503
0.0794255
0.0119056
6.40928
-0.00162833
8.08207
5.19288
10.9602
-2.5596
8.54065
3.54439
10.9913
-1.77463
-4.56983
11.2854
-2.85423
5.14028
-30.4686
9.82582
10.8426
6.93021
-10.8363
6.24908
8.35884
-5.39163
2.7645
-3.52786
8.96503
-3.2422
-0.799737
-21.2008
-21.2418
8.20484
3.37475
-28.4019
3.31248
10.8448
-3.40064
-1.16688
-21.5938
-5.68637
5.60358
-1.45591
6.00956
6.03226
-27.2946
12.1268
-0.737087
9.21109
9.25321
-0.638227
-0.0171582
5.77151
-9.362
-1.86693
5.78421
4.92702
-2.57713
6.06092
-1.48359
9.51674
6.93942
2.49285
0.488953
7.31652
-0.948994
3.90836
8.65377
1.29382
0.0148666
8.34565
6.94396
-4.62697
-18.1589
5.09654
7.26877
11.0761
-22.259
11.6755
11.3344
11.8349
-0.726286
8.05068
-32.0356
6.35633
8.80639
8.42646
7.19437
9.56409
12.8353
5.53385
-23.2385
1.03145
-17.8202
12.6849
3.43875
-0.392448
-4.67771
6.05498
9.55006
6.07488
2.20519
-1.12274
9.49666
-13.9837
6.96834
-5.18829
2.77108
-0.363131
2.44581
4.15058
-23.8774
-21.9239
-0.574617
-3.21131
-0.561466
7.88277
-1.55053
0.506738
5.99386
-33.5197
4.2591
-0.00995762
-27.434
-31.407
-22.6035
9.10938
9.74076
-3.74745
2.64361
8.31656
7.54021
0.0770519
-18.501
7.08848
-22.6569
8.90998
-22.473
8.68342
4.02961
0.748037
8.06706
4.17533
8.49147
2.33414
2.88492
-3.83438
-18.2844
-50.5973
-0.895895
8.31571
-23.5433
-2.48429
-20.6366
9.18624
8.45015
2.23242
4.81096
9.33005
-10.0754
6.12677
-0.721261
-4.29551
6.10354
-4.14556
-27.1581
-6.24832
-20.9164
-2.44523
-39.6861
-0.732273
-34.108
-18.125
5.30014
11.1221
12.1504
10.5803
-26.2509
7.0446
-35.8719
5.94939
9.31728
0.839713
8.16814
-17.8263
2.27134
-4.16913
-0.72036
8.92744
-4.85317
7.35545
-24.4442
-1.9468
-20.4571
7.42977
7.29642
6.27497
-33.533
6.06974
-0.832759
-24.8207
-22.0387
2.11314
11.2389
-11.2675
-2.54308
-5.89503
6.19014
6.06582
-0.682937
3.87935
-32.9111
9.46933
8.56354
-2.07131
-1.63695
9.28229
-4.11848
-59.4597
-0.187026
8.44515
9.54356
-28.5271
4.78001
-1.01609
10.9171
-33.5088
-6.46043
-0.78507
10.2961
-0.227699
-3.65733
-0.445956
8.90784
4.98386
8.78234
-1.02667
-10.7029
7.19888
12.5625
-20.0167
5.99852
-0.437363
-25.6648
-0.345731
2.33
-6.33329
4.70386
-1.49048
4.09764
-1.1389
-5.96571
8.01463
9.70498
6.02729
-8.84677
-6.27674
7.61208
-29.0102
2.5316
-4.37565
3.16691
-43.7445
6.97376
7.59185
-0.553537
7.1821
10.8749
-1.86981
5.42624
7.31447
-20.6508
3.90735
-3.00607
3.17487
2.56711
4.98745
0.00566997
2.18199
-1.83362
-11.8584
9.13281
2.78549
0.894864
-4.77621
-1.73317
6.62494
-38.0485
11.7964
-29.2193
-20.7612
-0.398748
8.21875
7.3391
8.74767
-13.8706
10.4722
-33.2906
5.31433
0.070312
-27.2144
5.88037
2.91867
-2.09634
4.43873
-20.6204
5.10365
-20.9534
-4.88837
0.0276479
-18.3766
-21.694
5.87018
10.6999
-2.21873
-33.8736
8.34202
-12.5855
9.7452
3.28552
-0.0135702
3.66654
6.41097
3.31266
-0.674757
0.417599
-0.382839
1.50573
2.29919
-34.2554
-6.04808
0.215674
4.08578
-0.771087
12.7098
7.01167
6.33608
9.87876
0.972586
7.18344
-14.9348
-7.95406
-7.87492
6.31437
12.4194
5.96787
-4.97047
9.10571
6.25214
6.29269
-1.23232
-0.512562
3.38677
11.8723
0.38159
-5.89024
8.69511
9.33261
6.95444
6.33102
7.84159
4.33457
-0.948208
-17.2122
7.09395
-23.0711
-17.2048
6.28709
-10.9751
0.454941
2.38629
7.11003
7.40575
7.41666
-0.738494
8.6995
8.93357
1.31352
7.83703
6.80185
5.25818
4.91336
4.61725
3.26922
-0.732173
8.21286
7.80971
0.15391
5.99641
-0.816239
-0.163857
10.5893
8.07904
0.0194365
-28.36
0.404201
8.33229
4.70827
1.446
-0.360842
0.551165
-2.7732
1.05915
-10.385
-1.49086
4.98677
-1.48688
-20.894
-34.1881
10.0709
-6.00875
-21.6253
-13.5649
10.6951
-1.33731
1.4781
1.21976
-24.5616
5.10365
5.93707
4.19471
9.52384
5.10426
-0.139475
-18.5736
-24.5431
0.0933324
7.46497
0.288549
-31.254
-31.6567
-2.91674
-22.0037
-10.6337
-13.7608
-1.66937
2.28363
6.22395
8.50675
-2.33346
-0.669573
9.53116
7.14396
-27.4295
-0.915114
-17.1857
3.98016
0.156595
3.50174
5.35277
-0.189029
-1.57648
-2.10033
1.61729
-30.2189
-20.1877
0.133349
-17.5385
-21.8944
-28.1323
-20.2382
0.314871
-12.1019
3.2316
-30.3112
6.2719
5.60008
1.69588
8.31702
-36.1392
10.7988
-4.89116
0.16075
-5.88794
6.33418
3.80507
-17.284
-8.71173
6.51289
7.7984
11.1795
-31.947
-22.8111
-29.1245
-1.46603
0.0161009
-30.0601
2.53753
-21.483
3.71552
-34.2221
5.15647
0.72722
-0.889351
9.70355
5.70173
-4.41499
-0.182197
-8.2258
-22.6627
8.37149
12.2138
-26.5984
8.02258
5.96764
0.00569369
-0.73174
8.09219
7.759
-14.7639
-1.16938
-9.37573
-36.008
-5.49357
-27.2929
-4.87874
4.23676
-0.432911
7.06126
-37.6942
-29.9315
5.94431
-5.01617
-21.4812
0.203324
4.93664
-21.8365
-3.18452
-29.2568
-29.0244
-21.2193
11.3618
-9.30412
-1.39203
-37.5697
6.99452
-20.393
-0.580808
-13.465
-61.2156
-4.06373
7.29708
0.0102662
-27.0411
5.5207
0.0475368
-5.17654
-28.2532
-37.0506
4.67827
5.35599
6.38798
-9.76407
9.7528
-3.60835
0.0037855
-0.819382
-11.1278
-20.2055
-32.5757
-15.601
1.41316
2.48965
-1.01006
-1.59555
-7.24205
6.06626
-59.1202
6.42535
-38.9838
3.91584
-2.39277
-0.590206
0.0064259
12.4165
-0.408147
-22.5138
-8.26064
-7.07237
6.29176
-1.05053
0.0765977
0.103161
-30.1322
-29.9381
-18.6709
-24.6171
7.20142
-45.2626
0.734891
-28.1096
-0.553374
5.52805
-0.460068
2.95491
-2.94761
8.56901
-20.7467
-8.59807
9.16316
2.56322
-20.1249
-1.69072
-30.8654
-6.86162
-2.10858
8.30331
-5.75057
2.71788
-22.261
-25.328
-55.7629
-50.0968
-22.8198
4.02798
-1.65888
6.37316
2.3912
-42.9728
-2.81315
-26.1013
7.92972
9.68251
-24.2191
0.383868
6.84517
6.16298
5.23386
-12.1085
-18.7284
-17.105
6.33496
1.72368
-7.81265
-38.8766
3.762
7.65494
-1.31244
0.167819
0.141353
9.03509
-7.40574
-7.88549
-0.239964
5.42373
0.489049
-0.0732145
9.80799
7.98759
-0.952015
-20.9299
8.21802
3.11415
-0.654297
6.13677
-3.50148
-16.3454
-20.5184
-18.2983
7.83091
6.99535
-1.14417
-4.4408
-0.215875
-0.251126
7.09082
-23.4528
5.08809
8.62226
9.24094
-2.41607
6.41931
5.77834
7.30167
7.71067
-0.915498
7.72949
-0.00369616
6.37443
3.57585
6.91641
-22.602
8.07769
7.71629
5.66964
4.21565
-7.44668
4.59165
-0.177345
-5.6317
8.84957
8.5877
-17.0634
7.27983
-15.6781
-21.7917
6.98885
6.94141
-12.7225
-0.792148
-22.3257
-20.7608
-5.23302
-3.9823
-14.27
-1.93306
5.86997
11.6236
8.24906
-2.6269
-1.95917
6.91045
3.17527
-0.892386
-17.2209
-6.0008
-7.90709
-21.0398
-18.788
6.02543
-0.302675
2.83076
0.0812451
0.0896411
-0.210866
0.0929781
1.45178
3.35695
4.41826
-4.62718
3.38423
-12.7119
-53.6541
4.42017
3.43134
-0.915519
0.214024
4.26713
-0.529099
2.45016
-4.55221
6.3845
5.31429
10.3218
6.35948
-12.2885
-1.97794
-4.41104
-5.25337
-0.327925
-0.210126
-1.48573
-16.745
11.8466
0.225082
-0.0497636
9.61598
-6.45461
-4.16531
-0.903945
-23.284
-15.6093
2.12212
-6.5688
6.38392
-1.88144
-10.6678
0.136285
-3.23399
-5.70645
-0.825337
-0.606954
4.94114
-3.14976
-4.42872
-7.06502
2.46638
-7.36048
6.89074
9.89835
-5.01069
7.03059
3.67406
4.5742
10.8438
-8.5038
3.87192
3.33767
2.70962
9.37012
-1.82332
-1.46518
-0.766992
6.80132
9.89531
-5.65449
-0.667761
-9.14922
-6.71741
3.24271
-8.45717
-10.7225
-6.10783
2.50074
-22.5839
1.36185
2.04007
5.56816
0.999833
-23.3578
-0.547122
-0.544164
-1.16796
10.5412
11.7762
8.7797
12.2774
5.69573
2.1609
7.42718
6.45688
5.8687
-8.51952
6.59918
-1.92123
-20.0772
9.5771
-1.91132
-6.98939
11.1978
-0.0748946
-38.8134
3.33071
2.7824
7.84317
-10.6382
5.89848
10.2938
-7.01834
-21.7706
-8.81996
4.48024
-32.7122
8.40131
-1.00572
7.8528
6.31521
-4.81912
7.55475
-3.99552
-22.06
-23.6406
-12.7728
7.90486
-7.38674
6.35572
-0.646302
-28.8579
-0.647028
-0.392502
-5.98863
-7.43199
-15.7898
7.98912
1.14782
-20.9105
-2.85371
4.13393
1.61314
-22.0257
3.10076
-0.943748
3.12205
-20.8263
3.78276
1.54999
4.18271
-1.1437
6.01503
3.87148
1.84919
-20.8249
12.2742
-5.54986
-25.8506
6.02914
5.27497
-23.0618
-6.59179
-19.5328
4.17171
3.43049
-6.49177
-0.827268
-1.77724
12.1261
-0.294543
-6.81987
-0.788524
-3.96033
4.52764
-2.18006
5.88214
4.10205
-31.3115
4.03712
-22.9766
5.29098
2.53824
6.51319
4.48688
0.00951439
0.0134899
3.22329
6.96244
1.2556
0.0752942
-21.065
-3.28773
-3.03673
5.54353
-22.8501
3.24131
-11.9739
7.91529
-30.994
-1.6058
8.53363
7.66288
2.89201
-11.4706
-15.4414
7.09927
0.0886094
8.0013
3.45077
0.216822
6.45286
1.83609
1.75811
1.18364
-3.76149
-6.70445
4.29984
-0.457575
8.73318
1.93975
12.3343
-0.378504
1.69981
7.75281
0.718789
1.65017
6.83447
5.53362
3.92831
-8.25749
-0.585305
6.08349
4.12029
2.28845
-29.3999
-1.45346
-21.7837
-25.65
-4.38081
5.72083
-0.701721
5.13591
-0.546714
10.6023
7.93022
2.39821
5.30752
2.22283
-20.4854
5.87315
4.70202
0.307682
2.66744
7.95139
7.10986
-0.825222
-23.029
-9.65976
5.74675
2.97531
0.252597
6.81997
-39.6871