/*--------------------------------*- C++ -*----------------------------------*\
| =========                 |                                                 |
| \\      /  F ield         | OpenFOAM: The Open Source CFD Toolbox           |
|  \\    /   O peration     | Version:  2306                                  |
|   \\  /    A nd           | Website:  www.openfoam.com                      |
|    \\/     M anipulation  |                                                 |
\*---------------------------------------------------------------------------*/
FoamFile
{
    version     2.0;
    format      ascii;
    arch        "LSB;label=32;scalar=64";
    class       volScalarField;
    location    "3.9";
    object      p;
}
// * * * * * * * * * * * * * * * * * * * * * * * * * * * * * * * * * * * * * //

dimensions      [0 2 -2 0 0 0 0];

internalField   nonuniform List<scalar> 
13486
(
37.4352
30.3766
6.06768
-35.0034
19.6687
-0.567668
13.7696
26.2956
28.8633
17.5891
-76.6086
7.83221
39.1254
1.96541
14.792
18.4993
-67.5
-134.649
10.9029
34.2782
-31.1882
38.8456
29.8732
-32.1749
15.1727
-30.0353
-71.6289
-9.4752
0.25893
-5.71339
-54.1732
6.29617
-25.8003
0.682459
26.3
0.402341
-0.766429
33.0752
-73.239
28.2038
14.3626
40.2187
1.69179
15.2967
15.0624
7.6764
-66.5704
0.388095
-0.676131
-11.3455
23.1009
-7.2272
0.773044
33.3584
-151.72
20.1111
1.99903
-10.9511
-23.5805
-2.90887
-73.5692
-1.83126
-51.1236
-30.5766
-58.257
-0.885379
-44.4925
37.141
28.8056
-5.04982
-44.0591
-149.486
28.2391
-45.6385
-0.796292
1.75595
0.527665
14.9275
-73.9773
5.33231
0.229085
30.7462
-53.1143
6.44192
37.5833
22.7375
-14.4255
22.0197
26.0666
20.8887
-2.22303
24.2252
36.4355
32.5104
29.9265
0.300747
-71.4177
-57.4546
28.1682
-70.0573
0.467644
2.87933
-58.9565
-15.1334
27.5732
-70.7961
26.3632
-75.2704
-66.5602
23.7458
29.4383
6.50126
33.3198
2.688
42.4122
29.1461
15.7903
1.47938
28.4248
0.632921
-144.667
-73.5165
30.7473
-63.7849
28.5766
-9.33491
22.2104
8.08217
3.53945
-38.0518
-8.22278
-64.2735
-36.3967
-46.6758
24.0427
21.9388
43.9807
23.9741
0.638062
26.5651
-19.2113
1.37954
5.87862
1.72397
2.75773
-62.4741
3.90668
39.8963
-12.1352
0.440357
15.8074
16.4331
0.197091
31.3563
9.52162
6.07992
21.2696
13.7187
31.0327
-1.87695
-8.02283
31.0091
-21.0992
39.7946
-9.00142
-2.19572
4.79849
48.1778
4.76713
-46.6982
-42.0105
9.60034
18.6304
17.009
0.338826
-78.6854
1.2416
-22.9983
26.5195
5.94273
27.4209
2.42689
13.0326
-70.6865
7.00735
-9.44369
-0.178294
-3.79981
14.9945
30.7261
0.104154
4.86384
-13.5457
34.6195
-4.66859
-74.5723
-49.9425
-7.71907
35.641
-0.86896
-57.8187
7.80089
33.0352
19.8174
-0.216739
-0.448225
-77.6849
29.3571
-13.5559
6.98767
-6.49397
-27.8825
33.8898
26.3139
-0.626284
13.7195
-7.2952
21.1133
35.165
-23.2115
-67.8514
-12.427
26.8888
-8.35358
-1.03746
37.1274
-3.98024
-116.85
18.3072
-23.6941
27.1304
1.82276
-20.1707
41.0213
-60.0157
36.2987
-0.789058
5.19692
36.6524
13.4718
-25.5978
18.445
2.55739
35.2917
-171.459
29.6445
14.3627
-16.6911
-49.1887
16.7155
-69.0464
42.779
28.0341
-67.7921
15.8264
-72.9602
5.48639
11.2047
16.2827
-25.1077
28.3234
-182.47
14.3062
-73.6477
21.0947
-70.9798
9.53245
-53.4284
26.6472
-84.4643
28.7538
25.7632
-8.30324
5.47227
37.296
-16.8832
10.6041
-76.132
-47.9269
3.42367
-64.9115
24.4853
26.649
-51.3479
-72.8533
-73.1947
-19.5109
2.81301
-0.50341
26.7297
-55.7638
-39.6355
30.4526
24.1533
0.38404
-1.91538
-8.30951
6.15391
27.2699
15.5593
-21.8893
-90.2231
4.82033
7.20389
-0.435833
18.1365
17.5675
14.7634
-20.8317
0.0253312
-28.6821
-31.836
5.03072
6.21162
-84.4389
22.2658
-34.7619
26.0967
29.3717
8.9854
-0.514034
-60.0927
26.2553
32.656
43.8524
-2.76915
21.077
24.1526
6.64794
20.2316
22.1798
23.7103
-6.68136
34.6757
13.134
28.8402
43.8993
16.7939
17.1139
-191.258
10.5678
32.2894
20.0664
13.4885
-70.9172
0.270144
20.6463
42.5526
-23.6836
-57.9352
19.7768
5.9651
5.49173
-71.7231
27.0776
0.526452
-45.6623
22.0799
-27.1182
-23.6055
11.101
-5.99752
28.8134
25.8315
-6.71418
0.101745
-1.07183
-58.7702
34.522
22.2155
1.33142
20.833
-1.02249
-69.7039
1.58564
23.3795
26.1604
-121.205
-82.5845
-29.5114
26.445
23.3649
38.8146
29.4506
-57.6716
15.3373
4.24722
16.8023
-54.362
-20.824
33.4328
-9.11339
12.4601
36.4882
36.5682
1.15048
-38.5805
-69.5281
-57.6934
-20.1956
-55.5317
13.6821
25.5583
9.15781
13.8791
-9.93243
32.2629
-22.0825
21.616
29.1511
15.9994
0.554866
-11.5651
27.2737
26.0776
33.7117
-70.6343
21.4325
-39.9881
13.8772
26.4878
-7.46117
42.6411
17.8198
-5.98983
-2.71529
7.69809
26.6139
-71.182
5.77352
38.5837
25.5565
12.1687
0.0773048
19.5833
-17.086
38.6049
-60.3403
17.4375
36.6131
-56.1702
-9.04776
-46.4535
-11.8923
-20.924
31.7793
32.6793
38.642
-29.9783
0.148815
-70.9786
17.4965
26.4567
-10.9927
-8.00533
25.4995
-67.0633
-80.6678
-53.618
-58.2996
6.03756
32.8938
0.36542
5.9966
-27.6814
25.1409
0.622912
45.7585
36.8825
28.3035
25.529
0.722417
0.293696
43.7644
6.01016
0.886005
-6.45553
28.9827
-74.5949
5.80062
19.1482
0.482143
-4.27151
29.5578
-22.1874
-60.4578
17.9321
-19.6162
47.8505
18.154
23.282
28.6089
-75.1896
6.50033
40.1139
20.1311
32.8714
15.1437
9.08928
-62.9356
3.44875
1.67201
-74.2155
26.8091
29.0667
-69.4542
0.322766
-1.43346
36.8572
31.9439
13.2602
29.3892
22.4785
-3.68727
21.266
23.4774
-41.1776
38.2728
1.26499
-5.01124
39.9924
23.6665
0.252091
20.0783
-82.7612
-65.1227
12.3848
22.7669
30.9234
36.6143
-71.7181
19.4372
-71.8582
0.584959
36.0921
8.79969
-70.7543
-62.2288
-9.79034
15.4915
25.3146
-60.5049
-7.85431
29.3594
34.3389
-10.2816
28.2992
-64.1692
-70.0745
-11.4911
11.6767
-71.1832
29.6631
6.61159
-72.4485
25.789
31.9293
-26.2512
-71.5885
23.4098
35.8672
10.9137
37.6299
6.32542
18.1564
7.8636
29.3697
2.43243
35.2405
-71.525
13.9336
28.5655
4.72007
-14.5813
26.2602
-55.0397
5.89731
32.5723
38.8172
-115.271
19.8813
10.219
-3.44043
25.4871
20.4235
17.2466
-74.747
2.85139
37.5143
6.468
6.32805
-50.873
38.9067
-3.34749
2.38338
25.1423
24.6911
8.0425
15.7773
26.9331
7.04513
-6.01628
11.1545
-14.0309
38.0889
28.9484
20.5055
21.1862
-17.3741
-19.5986
41.3438
9.7153
41.4431
-110.822
26.7901
0.568599
-46.2804
22.8836
16.5229
42.9592
-75.2208
22.9222
20.7748
-24.5596
16.3671
-101.837
-0.185063
27.8521
-71.6636
-12.3242
-20.6144
6.69906
6.96105
28.5136
0.257434
40.739
28.152
-2.74137
-69.848
-5.57025
10.0252
-73.0029
2.9516
-72.6707
36.2846
0.0370972
2.05223
-70.1726
39.0163
0.271191
-26.4652
40.0786
23.2675
-70.1181
-15.5696
21.3641
4.63844
28.6427
2.82886
-121.065
11.0105
25.815
9.44851
23.7536
40.4704
2.81783
-89.6399
26.171
-0.316181
-1.49704
22.3677
19.8922
13.1599
-70.5169
6.58665
-120.749
5.76681
36.0153
9.63169
6.53043
6.40624
12.6305
2.27264
26.7696
0.220673
27.8765
26.8651
34.7551
-130.955
-3.20046
41.1544
1.27483
-66.3844
28.4578
-18.4043
29.1935
2.71236
25.2432
4.21047
-47.7431
-28.716
0.231827
-63.5704
15.3728
42.0618
10.1294
-51.9343
-4.91002
27.0745
-84.295
12.9354
-70.1756
41.5626
-70.1466
16.0348
-11.7502
16.3587
26.1816
16.3767
-27.1798
-21.167
39.6782
25.8406
19.064
25.6012
17.0968
23.9355
25.0863
16.4765
-41.7073
9.39841
31.9406
12.0065
-40.1992
26.3514
-65.4468
8.36757
-12.4043
28.9244
27.5761
-93.3887
7.11324
-69.7274
-24.2088
6.83143
7.81786
-5.88516
25.1528
4.62868
-9.08747
31.9319
-34.8595
-49.0621
-83.2074
-7.03764
-86.3699
-28.2655
-145.637
-70.6149
28.8486
39.0896
0.941087
-32.4051
40.0911
38.2361
-117.637
-38.005
29.639
-53.95
3.22377
-98.5364
4.4614
20.6033
-61.5682
12.5076
18.3295
-5.86101
-46.6029
-28.8478
0.0177731
25.8409
16.8868
19.0655
-84.5668
23.9931
37.5814
-86.5984
-70.9215
31.2923
18.1504
19.7708
-92.7202
-4.95549
-81.9361
0.355218
27.1103
41.5557
29.4945
-17.8193
1.26859
26.3257
36.7489
11.725
30.1655
26.9171
37.6723
13.0897
-106.978
6.10397
6.39261
37.2281
7.11563
18.3215
20.2703
14.0441
8.54597
0.871355
-18.3045
25.0653
26.7527
18.9453
14.1203
-91.5241
-3.01771
8.32461
20.5322
-15.2147
4.2309
2.79114
-62.149
-71.7904
14.9429
-5.27254
-49.1205
-69.6922
-4.85819
24.5682
-75.4775
-85.4202
29.6359
-84.9847
38.9455
-121.483
-49.2435
32.3763
36.2058
0.813017
4.93524
16.6492
26.8827
21.4689
-35.3029
5.5931
-0.554507
-39.6519
25.184
2.12585
16.3877
-82.2163
28.9489
-71.8022
2.58917
0.581862
32.4551
-15.5325
-75.3793
-52.7384
38.671
-90.5589
-95.7287
-81.2792
26.8671
-75.9655
-57.4694
8.35272
17.0144
-32.9791
22.5572
-51.7091
23.3757
25.4019
31.5967
13.2192
-7.27063
7.00312
20.4161
0.208425
32.6969
20.4323
-1.8743
-63.5868
18.4778
1.42693
0.0930215
29.4295
11.6218
-4.73977
26.1342
-125.352
24.1883
42.5788
0.767583
-22.5217
18.4957
-6.26513
-20.4228
9.58904
-29.6592
26.9902
2.78282
1.3348
2.27659
-80.4982
34.2646
-69.9004
0.124239
26.2252
-4.21855
35.3409
29.5567
34.6798
8.69196
19.4714
6.90012
5.87393
24.3188
27.5046
1.57716
4.46927
-70.6341
-0.908482
-70.2665
27.3757
-49.0792
-30.2311
-63.7399
2.34318
0.454554
26.3534
0.905356
-5.67371
-45.8494
26.1818
42.2658
-5.06496
-77.9929
16.0563
-29.9671
26.9024
-4.10089
-159.862
32.2272
1.85065
40.5135
20.4597
26.1241
-4.342
33.5379
3.31601
29.6523
1.22254
-26.7885
1.52678
-70.1901
19.6086
-19.8354
14.2173
38.8084
26.0855
27.9486
36.1455
28.5312
32.3554
9.57081
29.5129
26.114
27.2454
5.26775
-4.33337
-12.0518
-0.038781
2.63142
31.2543
-46.8298
42.293
-9.66972
2.58782
41.2098
36.0172
4.44906
-49.7223
28.1003
15.1584
13.3783
27.4235
-46.7527
-4.75404
26.0696
35.5862
-132.582
30.9001
33.2444
0.164013
-7.64629
33.0793
13.0727
0.06449
-73.1146
6.39526
-17.8575
24.5339
24.232
-9.71484
-52.4168
-9.44737
4.04519
-12.7157
8.49792
36.2934
-9.65221
45.1728
27.4342
10.5873
29.9705
-70.1433
-41.5992
-76.3751
26.9829
-119.122
-47.1428
-61.7282
13.8329
16.8991
-180.62
24.2532
-50.6444
18.7476
-71.7724
-91.0598
23.7905
7.4559
33.9974
26.894
27.3271
27.1651
4.2891
-20.8715
-15.3363
6.55426
-124.124
11.7684
23.5011
-93.0927
-5.55784
-9.56216
-28.7922
-69.0656
21.0305
14.8747
2.94981
-10.2703
14.5808
-11.8662
-19.255
4.89159
-18.941
30.8553
19.9597
34.2247
-47.6726
23.8035
2.56583
35.399
7.90424
14.9752
-85.2162
0.237196
39.7962
41.015
23.5483
21.0984
18.7708
27.1559
40.2466
22.8422
-22.8422
-69.7525
6.84729
-5.37545
-86.3826
26.1233
26.7887
-28.5405
16.2597
26.1085
25.8102
43.0602
-57.5717
21.1001
-57.4217
14.7921
35.7184
5.99877
25.1637
-102.387
21.2467
12.1679
44.4606
-11.386
-11.9245
14.1137
5.16812
-71.0687
-46.2451
-119.096
28.7071
-2.52123
21.0911
38.151
35.4556
-0.276796
-26.449
-16.4218
7.44148
32.1455
26.4877
35.8685
18.1793
-82.1262
37.1066
27.326
-30.5754
24.4729
26.7666
33.5563
-76.5725
-2.3896
0.123822
22.5532
39.7124
15.9854
-35.7013
-18.334
43.1395
-85.4139
-18.7859
40.7932
23.191
-16.4985
23.7682
-41.5628
19.5899
-6.73522
-82.5215
-165.309
-73.8573
3.57955
5.52998
-55.3098
-64.853
-74.926
18.7617
-56.4278
-68.8097
31.6508
24.3583
21.0264
-51.2029
4.0178
7.11481
4.22331
44.9245
22.5198
-13.2364
23.2037
2.35133
-74.0352
25.9965
25.9128
26.7391
45.3781
-0.073027
5.91272
-33.9028
7.04913
22.7206
28.9339
-4.71491
37.4216
20.0731
27.8289
-70.4391
0.9742
3.64216
29.4236
26.4628
30.3938
26.2191
41.9965
41.792
1.85495
23.2978
32.6504
-12.801
36.0491
-15.5286
41.3046
35.9377
3.46968
29.2669
14.5254
24.2645
5.29157
26.5228
-19.7628
25.272
15.92
23.2933
-0.651416
26.6117
-11.5437
1.95008
40.2466
40.0201
21.6277
-47.2686
8.79238
15.6
7.5109
21.7635
37.0723
-48.0008
27.2646
27.7139
14.5058
29.2251
-70.912
-98.462
-10.79
42.9591
11.1931
-13.7645
29.5464
-1.0484
2.0312
13.8602
6.29235
20.4816
18.8412
-4.70786
18.0967
25.3247
22.717
24.1912
41.7666
35.697
33.3958
42.8816
40.0157
16.933
-12.7042
-91.3776
-11.3306
39.7541
-100.362
27.7676
26.4297
-70.1175
18.6628
29.5258
-47.5225
14.9521
18.5807
45.8475
-71.6793
12.9889
-13.9822
31.6176
6.15961
-64.985
39.3338
35.2784
27.7967
26.8962
-6.33862
18.6661
-72.2011
41.6359
1.51193
44.1885
13.8022
-37.6573
-48.3026
21.2305
-45.6772
-8.97257
-32.2872
10.4813
-20.1617
10.3224
-67.1104
0.0864269
-39.7481
-48.811
-9.29577
-35.4218
-7.09361
2.37993
-16.2292
-72.5826
29.4137
29.7275
33.5654
25.6313
11.689
12.0308
48.3558
27.2511
-72.5614
0.414177
0.965728
20.605
25.3631
37.3001
-17.7702
-17.9683
25.8875
0.0939383
8.84662
31.7565
-48.3246
-70.5759
-67.5652
42.0812
-54.6989
20.6953
33.1754
10.3334
24.2333
-10.1767
-73.677
-71.713
-0.688616
18.5135
32.1365
32.6474
-39.0745
-47.8763
23.176
-79.1461
-6.2363
4.14058
-3.19913
-5.71202
-28.3687
-64.7236
-71.8835
-28.8051
38.297
-35.4942
40.6564
-71.0607
0.384762
11.2855
-66.9302
36.32
28.9166
30.4675
-2.18812
-8.42459
-74.3979
35.7624
-45.8783
19.8253
-107.458
30.983
36.0321
-125.964
26.7632
39.5223
30.451
28.7562
-27.8291
-46.6842
12.1919
-17.5951
-55.0981
21.2248
24.2668
6.20637
-75.523
8.36837
0.425223
26.6851
24.4513
-7.12494
41.2208
7.03232
0.350747
5.82181
25.4492
-27.5382
0.567736
30.0494
-6.38791
6.00333
-2.32122
30.0549
25.5603
24.5092
-30.1403
24.7202
29.7229
30.728
1.18695
2.96192
8.71576
25.2071
-17.9242
-41.7103
-101.815
-23.8145
-42.8023
0.562684
-40.4198
2.11721
-50.3254
-12.462
-68.177
0.61814
-8.47508
11.1944
-71.3789
27.9036
48.3523
11.3811
-39.4172
13.4961
5.96024
8.65823
0.905534
-4.83678
-63.0294
6.5451
34.3756
-0.0788351
39.0674
0.934503
24.4373
25.3784
13.1152
-48.5803
22.3256
42.1573
-14.768
25.5559
25.2592
37.2977
6.02222
35.1862
30.3732
-47.8606
31.5589
-73.0709
-78.9833
35.8668
23.2326
-32.7342
8.66424
33.0511
13.037
-59.2319
2.14197
2.4994
21.2635
15.1369
26.3221
27.684
24.3676
-29.2124
-9.81095
3.42016
25.7633
44.3127
-7.49191
-91.4016
-48.0352
29.2716
6.54842
6.13553
19.342
-61.2415
23.9931
8.00164
3.11517
41.3923
12.3751
-155.305
-49.8854
-62.6173
-17.973
-59.1059
-28.7186
-70.7238
30.3354
14.9554
-11.504
39.5073
0.449862
-72.7486
-22.0868
-77.8267
30
-42.0089
10.2649
28.3891
-21.8882
0.804708
-62.0271
-74.05
-106.611
28.1411
-69.676
-12.8291
-69.9733
25.2805
28.6502
-56.7914
32.7992
31.3654
38.0681
38.5023
30.7088
6.61259
43.0833
-68.9836
28.131
14.7436
-61.7697
30.8489
-96.0922
37.4799
13.8299
-20.6174
-44.0415
-57.5816
27.7998
-106.987
-33.6781
5.79031
-4.10065
-159.509
16.9938
7.01025
23.286
42.0714
-47.7186
-27.5025
9.01276
29.807
20.8421
-19.5468
47.9204
-19.9027
0.683345
18.9542
-15.6557
24.9231
28.9136
31.0174
31.855
-139.378
19.066
26.9073
8.11434
-5.03466
0.33644
30.4089
29.7776
35.6208
-5.86202
6.07107
20.5403
16.6097
-8.41395
-55.9969
22.0014
-92.4035
23.0766
26.9673
-66.1773
39.1517
-48.6635
41.4497
31.2454
-68.0505
0.323594
-0.290167
17.0309
27.4424
-69.3137
35.0129
24.8676
20.4622
2.10109
8.19966
0.566155
20.4855
-66.8658
21.9277
-109.282
25.586
-38.2284
18.2765
3.73131
31.5042
36.5733
18.8633
-36.8385
14.1151
6.44965
6.8819
15.6621
3.47679
-4.32904
40.7678
-5.89022
-95.3905
-18.4023
-76.3309
14.1565
25.8796
-66.0186
6.15942
27.3303
20.9303
28.4935
-67.4646
13.587
40.9589
-29.7352
25.3573
7.36074
6.47847
10.3799
8.31241
9.07139
41.6515
31.1028
-13.3634
40.7658
33.9242
31.2114
-76.4845
-39.2343
23.354
-21.6425
12.7481
-51.5465
-18.3465
-47.6759
23.7251
12.0015
21.1076
21.8307
12.6454
24.739
25.7416
-86.2124
30.1531
17.1176
25.7892
7.61389
0.426729
-58.1146
-59.0765
-65.6633
2.48211
25.5459
-64.8211
38.4505
-69.9971
25.0226
22.3646
-11.1772
14.4345
28.0797
14.2033
8.37527
26.1987
9.43493
-114.422
36.883
30.4077
-21.6539
-55.0213
14.2124
23.3405
3.65996
18.8427
-37.5171
2.88457
5.1307
-18.163
25.0599
26.3086
-38.9894
14.0983
3.09553
-9.18215
-63.4117
31.2191
-60.6041
26.6859
0.265277
22.717
28.7494
15.9856
26.7627
13.2435
-73.208
-23.1638
-35.9409
-91.993
-37.6122
-54.8527
13.2135
21.2013
1.5076
25.3594
-12.3345
-70.421
-28.2749
-16.4183
28.4826
-71.9449
27.2293
8.58563
-61.5498
13.5153
-62.9748
20.7782
26.1401
-11.8216
6.84963
-41.803
32.0357
11.1041
6.60176
-70.7892
32.5229
14.6353
1.22708
28.3963
28.9825
32.0678
21.3171
31.3323
-30.0586
-1.0337
-61.4235
28.4405
17.5561
8.86463
12.2464
-47.0162
-70.6358
18.9973
5.94022
-69.7442
40.5763
-30.6951
32.0205
21.3414
-35.6106
-6.40727
1.05079
-0.00610009
5.38171
6.09
24.6556
-16.9756
26.2692
-29.5391
19.3653
-7.68979
7.5677
-47.6972
33.3216
41.124
28.8386
21.3488
16.3858
19.0071
-71.1909
-3.3257
-48.417
6.17513
-30.6228
-68.4493
-53.9054
-11.0191
25.9124
28.7993
-57.5185
9.02858
29.2626
-11.2801
-29.2446
27.8844
-11.004
-74.0213
1.97505
-2.21587
0.306042
39.4579
-48.1155
27.9385
-17.0627
-11.1496
-11.0627
27.7493
8.09655
24.9976
-10.0028
-15.5781
2.73407
11.8518
29.5866
25.1675
7.27254
-81.8033
0.447048
42.4721
-7.71276
30.7074
33.387
5.91567
0.586726
13.5632
-45.9632
12.3342
23.0741
16.6406
26.9694
-86.9438
28.3268
5.61056
35.3598
11.3834
23.359
32.3166
22.0786
2.32261
-70.3066
10.0961
-77.4368
26.4709
13.5428
31.9132
4.88297
37.9068
6.55879
39.8533
-48.3338
33.502
0.382694
22.1696
-88.1897
25.0852
14.3902
13.4578
38.32
25.9517
5.0712
-9.83783
17.003
24.6017
-12.9401
-58.8117
20.9728
-3.2169
33.3201
-57.1159
38.4971
8.49496
48.314
38.2261
24.3408
23.2724
-89.5209
4.26016
40.4347
4.8517
1.61189
8.66292
42.2061
15.0688
25.138
36.6069
-12.2658
28.8314
5.73968
32.0605
2.11438
31.1593
27.8141
35.958
-8.59257
-74.2808
9.85628
-63.222
14.0326
15.5689
-14.2208
32.6085
36.6106
1.07549
17.4639
5.23729
34.4837
23.6651
26.4292
16.9103
-48.2145
-36.6989
-42.1048
26.7507
-28.4156
-60.1603
15.6478
22.6937
14.3216
-10.874
41.9574
5.49631
38.4404
17.1056
39.743
-5.91206
1.90896
-5.56545
3.50472
24.1569
25.7403
-11.9016
-77.1157
-50.5161
-46.9702
36.9023
-2.04388
2.8706
3.09273
-106.497
17.4682
32.8396
19.3183
-3.67624
1.39352
25.9892
44.3201
-64.6083
1.74869
27.9485
-11.4963
14.0561
-152.679
24.0687
-78.4296
-43.3288
10.9482
-98.0306
6.5007
2.04594
-49.0473
-61.9589
4.36798
21.1218
28.6384
22.9341
43.3416
-74.6616
41.0135
-37.5116
38.791
-68.163
-14.2945
42.1954
12.5722
-95.4459
28.7354
3.15949
30.5953
3.82071
-69.2335
6.90421
-9.13776
-14.2777
0.346907
15.8132
11.8659
33.3044
-62.8474
12.684
-30.0716
3.17805
2.61515
-12.9949
-27.3365
-4.29419
-24.0773
34.1032
-7.90341
36.7512
11.5416
-71.7061
11.4584
-12.3296
-4.55361
22.8061
32.5874
43.2893
20.3229
22.9799
18.835
-47.7598
42.0132
44.5704
28.2433
-9.77756
-82.0767
-77.5978
26.5004
22.1579
10.5303
24.5066
-75.0711
-8.19946
-88.8731
37.4842
-38.3053
5.49509
-71.7776
28.0331
19.282
47.2056
44.5733
25.3049
9.68702
11.3361
-33.5409
14.2634
45.4795
15.4534
-4.10037
23.7333
0.348969
5.65585
-0.772836
-4.86778
8.31182
-4.11682
13.8559
1.30226
10.3514
35.5598
17.2985
28.5036
-85.4922
-5.82736
41.057
-50.7315
-5.60927
16.5176
13.0727
11.376
-58.1642
14.6589
-1.30692
-8.7802
47.5241
-49.5977
-53.2585
-43.8056
-5.30337
17.466
16.9154
-51.8746
-44.7913
1.24728
-48.1887
-10.9872
-16.2784
11.1291
4.77997
4.94163
46.7244
5.61957
9.55946
6.89555
7.36559
-48.7659
2.42632
34.4235
26.8403
10.0108
-133.758
26.4997
28.421
-3.83849
-69.3464
-66.4999
34.1825
-11.5042
24.301
3.56454
38.1231
2.8684
-95.7673
-55.1166
28.579
-6.73866
23.4725
-12.343
45.173
-52.2406
-2.94473
-77.1182
15.1322
-62.8154
-16.1152
-56.7296
7.03901
19.7067
-88.0328
0.129891
1.43896
-3.12098
-22.3244
-11.4106
23.132
-79.0905
25.5124
-64.0183
28.9336
41.7114
27.5592
-50.0576
28.8113
5.78544
-5.91059
2.8597
-6.69976
-73.3042
-2.40713
2.57092
19.7071
3.22936
-2.72322
19.9214
-82.5106
15.3772
26.0022
-1.41273
-62.088
-3.8021
1.15757
-106.458
19.0375
-27.0699
-64.9462
26.431
-14.9556
21.894
-21.5279
-90.2509
-71.5846
-74.9811
47.1366
8.04684
-15.1209
14.2148
39.9211
41.1655
-106.864
5.47404
25.9597
-7.5373
-2.42683
40.5857
16.7061
26.9368
47.9384
-1.48701
17.251
6.4767
36.9324
27.0914
29.401
32.1
19.3783
1.70823
4.32633
13.5954
6.95848
-56.3763
41.3619
6.48807
-4.13966
1.37254
-18.7289
15.6945
-78.2803
3.92974
4.44463
29.2467
28.0525
31.526
-69.8779
36.4672
40.5288
-57.7417
18.9281
1.28325
-36.29
-4.40247
16.4004
13.5415
-11.6127
7.23565
44.2635
-73.6374
31.3588
27.137
34.8316
24.417
22.8646
-100.963
1.47255
21.9685
-20.3788
-84.4833
-29.385
5.95358
-45.2855
32.2421
-94.0374
-18.9633
8.18807
-44.1524
-77.1643
-64.8668
25.0023
5.28748
-24.7484
12.5176
-46.6891
9.72479
-62.4856
-5.07985
28.527
-73.5504
41.3166
1.34843
43.8507
0.18599
-34.2551
7.54579
23.1012
25.3062
-36.2081
12.1561
0.539737
7.45989
22.4928
48.5368
34.8205
13.6062
-10.8051
18.4949
-166.466
31.5369
-104.891
16.5827
-54.5043
-63.2784
-52.903
18.1504
1.69327
-52.7155
17.8856
19.3212
40.3011
42.6691
-60.5233
-72.74
-15.9134
-15.248
41.8764
16.0645
-1.51656
12.573
19.6755
-110.927
14.3182
2.03599
-0.100903
27.5017
-97.4442
16.8776
-13.8445
-12.1726
-34.0991
-1.55217
-32.7135
-31.3207
30.494
-114.031
-91.3212
6.32961
-99.9041
44.78
24.7835
24.5923
-1.41762
16.1037
1.34985
15.1976
9.70811
-52.6559
-41.42
41.8128
28.192
2.73132
-50.8105
46.3359
-71.9515
-36.7272
-45.3794
19.5896
-65.5589
-96.9074
37.0531
1.77388
26.8618
11.9933
-39.563
-16.734
-10.7846
14.7891
-33.0508
3.16827
10.9436
27.4865
-64.2237
-37.7145
13.1927
-2.54571
-16.938
-17.4443
43.8707
18.0496
-69.7679
19.3261
8.7296
39.5591
19.3354
-45.0774
21.5155
32.2528
30.748
-9.85017
23.4587
-83.2552
41.602
1.62104
26.6656
-71.7462
-8.82194
1.14908
-63.9841
22.1017
10.7102
-47.333
-67.213
31.7343
-39.0686
0.510692
35.2548
21.1543
34.4959
24.3177
-16.2911
1.0191
3.57681
28.2036
0.0688279
32.9968
25.2951
41.0471
-48.5943
33.7578
20.455
41.2244
-35.0728
-10.9634
42.0744
-53.7658
25.0692
-75.4341
37.9683
40.7141
28.4377
-22.0043
25.7314
33.7325
-17.339
13.7585
-114.977
35.391
-60.3367
-13.1967
-74.8484
-75.4039
33.2149
20.0671
-80.2936
16.5493
40.6445
-3.12809
1.41356
-74.5339
-15.5023
26.5465
12.5923
24.9324
26.6991
-80.9892
45.0005
4.66975
35.6033
36.4723
3.58009
0.507344
26.4098
-28.7235
11.2507
26.6199
23.7615
-4.13481
26.9033
-33.566
39.4116
28.0861
11.9776
14.7375
31.0791
-76.6946
17.668
34.6712
8.25172
1.44425
33.6711
29.6479
-12.2371
-47.185
24.9329
30.7084
41.3907
-46.9452
43.3213
43.8033
43.7152
-99.1155
32.7363
-71.3355
26.3085
35.2266
33.3011
30.4084
37.1624
47.086
23.0986
-45.8905
14.8314
-39.4364
46.854
16.7998
-66.7174
-60.0854
25.1273
36.6111
26.4003
9.68191
5.07741
36.4693
-49.4506
30.0351
-62.8198
13.0265
-10.2816
17.563
19.8009
-70.4594
-70.2648
17.5321
-0.0707014
-81.3957
32.184
0.077987
6.46455
26.4634
-80.0919
22.9156
1.11987
-70.9838
-72.1403
-45.0341
35.8081
37.466
-67.7667
20.9901
33.0511
31.2021
1.14535
-66.9649
30.057
-54.2799
34.9328
-60.8704
34.1041
18.0511
6.07628
32.0292
19.6731
34.1084
10.4683
13.6463
-6.9663
-49.4476
-96.6932
-15.2021
33.5966
-59.9787
-128.537
-52.9902
36.2615
34.0463
12.3685
23.4762
36.2154
-31.0539
27.2238
-23.8567
-10.1981
26.9607
-104.296
-73.4197
-16.0696
-60.8527
4.13749
-68.4711
-21.2119
-80.6375
-49.0908
24.3125
41.5753
44.8546
39.9262
-62.9387
30.1947
-71.9295
26.222
35.8164
6.80341
33.1139
-52.7824
10.0509
-8.8074
1.11433
35.2689
-6.42079
30.9954
-71.6633
-2.09516
-63.93
30.1297
30.7967
25.8675
-75.2452
26.7796
1.41924
-76.2233
-74.0604
8.74574
41.9769
-36.3541
0.275036
-65.7867
26.7815
25.0954
4.13405
17.2159
-76.9558
36.611
34.6405
-112.475
-1.19528
36.2473
-119.328
-73.831
2.90106
33.4438
36.9732
-71.24
23.9995
2.43338
40.9354
-86.335
-45.8894
0.880407
39.1202
2.5305
-5.1471
-59.1527
35.3851
21.1221
34.9043
0.23052
-33.7283
30.3992
46.1045
-44.7461
27.3411
2.12619
-85.3439
2.54595
10.2393
-63.3166
23.7634
-29.7904
17.8895
-81.9949
-17.7679
32.5724
37.5188
26.5183
-26.4615
-38.2513
31.8739
-75.3601
17.0257
-11.4627
15.2723
-91.1028
27.8536
31.8092
2.18588
30.6729
40.8465
-25.6275
25.7384
29.8727
-71.2202
17.3145
-6.26494
15.5825
17.8802
21.2075
0.378785
9.32134
5.46255
-20.442
36.1247
18.4854
-22.1255
-125.063
10.3387
27.3617
-75.7355
43.6386
-72.9927
-60.9389
11.407
32.516
31.2373
35.1086
-45.0944
39.7255
-62.3007
25.5887
4.65187
-81.4854
24.3146
13.7427
3.52962
21.9682
-35.46
21.8214
-64.2374
-113.895
3.23967e-05
-52.3889
-63.2609
26.7753
40.2839
-8.82471
-71.4572
33.6275
-43.167
37.6323
19.5444
3.30944
19.1308
26.3553
16.4704
-66.1333
12.504
2.26944
9.57327
12.1901
-88.5427
-69.9629
2.01809
22.4547
7.27425
47.0876
30.0836
26.3505
38.0738
7.45757
29.0279
-44.9786
-57.5483
-104.391
26.031
46.1247
26.2912
-12.1093
35.9348
28.1154
28.3378
-31.31
2.41086
15.9152
43.8982
16.2903
-16.5111
36.1001
36.6661
30.1076
27.4843
32.0312
20.8556
-0.619492
-77.1904
30.0607
-46.9476
-45.303
26.6117
-93.1792
15.5176
17.6194
30.4488
31.2454
31.3162
3.00026
34.8486
35.5438
-1.22635
32.4475
29.2559
27.4117
22.0077
23.7406
16.011
3.40369
32.722
32.437
-127.137
27.4043
2.57297
-9.18446
39.9716
33.1047
0.485438
-70.7485
-31.0696
33.9445
23.685
11.9758
-13.3541
7.11473
-89.2217
7.32972
-67.3357
-1.28231
24.6881
-20.8436
-53.0848
-76.2295
38.6568
-62.4364
-34.6176
-70.0411
40.3167
-88.8234
0.230363
8.4119
-78.5071
22.5227
24.5959
21.9354
37.0908
22.9594
3.11757
-42.3805
-70.6564
1.3484
29.7508
-110.38
-71.6011
-87.6879
-27.9473
-38.1596
-69.6797
-51.5993
6.94591
11.3586
25.7024
34.4657
-21.5705
-32.3234
37.0794
29.5787
-71.0473
4.4288
-38.8434
20.3704
3.48858
16.3873
22.3916
-43.4642
-83.9139
-85.5583
10.0517
-60.6049
-45.7816
6.89833
-66.65
-57.9397
-78.0264
-70.6442
6.40815
-42.0086
15.7834
-71.7156
25.851
23.3163
8.80278
32.7836
-68.6591
40.622
-12.267
3.81345
-14.5122
27.4681
18.0204
-46.5591
-49.3758
26.6138
30.7259
41.7334
-71.0753
-55.2887
-69.1916
5.6197
0.155156
-74.6543
17.7378
-72.0216
17.4164
-71.7444
25.1861
12.6071
3.90761
37.3731
25.6863
-3.7363
-3.38004
-23.085
-46.0196
33.0269
44.9643
-40.7512
32.9912
26.204
0.325479
15.9578
32.0992
30.7769
-55.2244
-81.087
-96.8573
-67.8224
-12.5868
-74.2798
-8.91174
19.203
-86.8468
28.5102
-73.8681
-80.2823
24.5581
-10.3908
-76.3346
4.61077
21.857
-76.7159
-6.18173
-80.612
-72.4341
-74.5772
42.2892
-49.6093
-0.72369
-71.7284
29.1276
-66.5991
-103.917
-46.3715
-77.4616
-7.68356
30.7285
0.767667
-73.1041
24.7678
0.225025
-31.6447
-79.773
-76.3537
23.3882
24.854
26.4562
-67.0653
37.7786
-30.4276
-0.0325084
3.28884
-24.2815
-74.4613
-76.5159
-45.7939
0.0926251
12.1401
-24.7609
-0.473445
-21.4816
27.2261
-72.2195
26.0852
-77.742
17.2312
4.83695
-24.2729
-161.374
48.5751
6.939
-76.6407
-62.8535
-20.9512
25.9211
-90.7081
-138.581
1.90395
-92.7958
-70.925
-48.4762
-71.5614
30.7027
-88.0818
6.11339
-85.9784
1.43308
24.9013
3.71209
18.3192
-7.14165
34.4613
-62.6204
-39.3722
36.2959
12.6022
-65.4494
-0.789759
-74.3908
-19.9514
-3.40058
33.5413
-102.371
13.4817
-54.8801
-65.1028
-87.0582
-93.1629
-38.906
22.0542
-27.9524
26.5896
12.6078
-71.3105
39.5069
-70.4244
31.4486
37.2018
-77.1508
6.93051
28.6778
25.3406
25.3509
-43.1822
-49.876
-47.6294
26.1267
9.51934
-24.3317
-92.3832
20.5384
30.2964
0.28347
-96.3592
4.44847
35.7398
-19.5981
-22.1973
-18.5919
22.7129
8.88698
-171.816
37.8418
31.8382
-35.058
-57.6274
33.2956
14.6529
2.28336
27.7543
-7.19723
-45.0475
-55.5798
-53.8626
31.0111
30.152
5.49138
-11.2532
-93.8033
-9.87364
30.2454
-59.339
25.5075
34.6068
36.4754
-92.8413
27.0637
26.4881
30.9219
32.1656
1.75754
32.1623
0.322799
26.2326
17.7485
28.56
-70.3692
32.3852
31.6793
23.5893
18.6637
-37.9348
22.9693
0.794121
-15.1916
35.3195
34.2111
-72.255
36.2693
-47.6035
-49.7449
29.722
28.9257
-42.1169
0.674299
-56.0105
-58.659
-6.46736
-83.3259
-46.2679
-0.846435
26.1991
43.6255
33.687
-27.6879
-56.2108
29.7578
14.623
-15.1991
-48.4429
-41.3901
-19.795
-47.9447
-50.7491
24.9327
-47.952
13.0319
1.39734
1.27456
-155.754
1.94484
2.07307
19.5152
21.6266
-11.073
20.5987
4.57247
-69.4851
20.7617
15.4731
3.05391
17.2068
19.1469
-8.01847
13.0235
-10.4708
26.6389
23.7523
39.3242
26.3969
-44.0846
-1.7246
-10.8617
-41.9908
-10.3005
-13.3831
3.75689
-70.2537
44.2579
6.40026
-23.2076
37.3393
-64.7729
-6.43797
5.11294
-70.4424
-51.9194
16.6943
-17.0289
28.361
6.91788
-42.3693
-101.287
-107.254
-16.2394
-44.2406
1.85703
21.0715
-54.2142
-76.0592
-18.7401
11.2493
-21.9823
28.6609
38.1115
-45.961
29.0351
19.2161
19.6508
40.6993
-66.1623
17.1154
15.6927
12.6711
36.5611
1.67536
6.09378
-65.9929
28.5323
38.1749
-117.219
-26.9137
-28.52
-20.0957
14.9835
-41.9109
-35.2758
-47.8736
12.9888
-52.9971
8.53089
8.1528
23.1794
7.32265
-44.971
-4.49248
-116.932
-40.9334
39.9456
43.6514
35.0343
45.4724
23.5911
34.4615
31.3589
28.61
25.7166
-28.2952
28.3827
-2.0555
-47.5682
37.0548
5.12939
-20.3095
41.7637
3.80291
-69.2284
15.1301
13.0933
31.3239
-73.1703
24.3536
39.1756
-65.0678
-48.4264
-27.1428
20.822
-71.8759
34.0005
0.0789926
31.2592
26.1308
-70.9169
31.2926
-10.1165
-41.8785
-43.5401
-87.0663
32.6357
-22.2854
25.9585
3.29929
-74.857
5.90555
-126.578
-8.32106
-52.3638
-56.8975
32.6248
7.69419
-73.8205
-3.72545
18.746
9.251
-64.8468
14.7839
-97.3119
14.3243
-73.6166
17.9162
9.43255
22.6895
5.6842
26.3924
18.4311
10.2249
-61.3917
45.2572
-15.4939
-78.5238
26.4295
23.6705
-71.6637
-19.1735
-69.9359
21.7929
18.3119
-18.8131
0.661343
-2.13473
45.4338
-42.8955
-68.4523
6.08996
-7.33798
23.3325
6.89009
26.0039
18.8388
-72.0826
19.268
-53.511
25.3998
12.6342
28.4981
19.3427
0.389694
0.35128
17.3191
28.7891
-0.0845513
6.72524
-71.6503
-3.74772
-7.97417
23.143
-75.2251
16.2584
-66.5007
32.705
-76.34
-1.53298
34.2156
31.5834
16.8579
-67.8746
-40.0949
29.2272
-11.8814
32.0629
15.5204
-69.4216
27.0666
6.3617
9.98451
3.2637
-6.15467
-23.5518
19.1062
-19.4638
34.7876
10.5007
46.1067
2.11446
9.32416
31.7068
6.03
9.31707
28.4437
25.8605
18.7886
-25.527
-103.893
26.6613
19.79
13.6304
-61.023
11.5968
-70.6117
-73.5106
-9.47076
23.8313
0.793987
21.7356
3.36757
39.974
32.7946
11.987
24.7805
11.4815
-63.5198
24.515
21.4489
4.87702
12.5036
32.1583
30.032
-44.3583
-56.0956
-27.9525
26.1906
16.1819
-58.7619
28.1846
-67.1417
27.2293
-42.1313
27.2141
14.0451
-44.6101
13.1809
30.9215
3.10296
28.6417
34.2376
7.13815
-0.0660918
17.4876
-0.812869
38.0834
-83.837
35.4168
31.3964
-77.1096
-37.8533
1.40078
-5.76537
-71.8943
-129.581
25.2223
35.4038
28.9683
36.0689
19.0982
33.4876
13.0945
7.12204
13.9859
4.58094
6.03431
23.8889
0.556955
36.826
5.45359
-89.4477
19.8274
36.8043
37.9839
-73.0063
18.6587
-39.0534
-48.5207
14.7539
9.60964
-66.7744
16.9136
38.6057
-56.7306
-73.1086
-71.4387
13.2128
5.29962
6.9584
27.4179
28.5636
0.303472
4.99767
-19.5173
-71.3741
24.8313
24.6249
25.9899
20.4878
15.3561
22.0557
5.66275
-47.6233
15.0097
24.6456
17.7418
24.8867
-9.29411
5.03357
-0.560258
27.6625
-94.3695
9.37744
32.9923
25.9566
-6.59735
-75.0719
-70.3359
-14.6024
18.9962
7.60901
-10.0019
26.6272
20.4905
8.95712
-9.04783
5.1037
13.7595
-71.3194
27.475
16.6717
-10.2443
14.5145
-43.9392
17.2367
1.34985
3.4586
24.3873
24.5774
31.062
6.41752
15.8451
-16.4189
25.8402
-13.1457
23.5795