/*--------------------------------*- C++ -*----------------------------------*\
| =========                 |                                                 |
| \\      /  F ield         | OpenFOAM: The Open Source CFD Toolbox           |
|  \\    /   O peration     | Version:  2306                                  |
|   \\  /    A nd           | Website:  www.openfoam.com                      |
|    \\/     M anipulation  |                                                 |
\*---------------------------------------------------------------------------*/
FoamFile
{
    version     2.0;
    format      ascii;
    arch        "LSB;label=32;scalar=64";
    class       surfaceScalarField;
    location    "0.1";
    object      phi;
}
// * * * * * * * * * * * * * * * * * * * * * * * * * * * * * * * * * * * * * //

dimensions      [0 3 -1 0 0 0 0];

oriented        oriented;

internalField   nonuniform List<scalar> 
7520
(
-0.941651
0.569785
0.371865
-1.34372
-0.195666
1.53939
-0.033796
-1.55678
1.59057
0.277098
-0.0419368
-0.235161
-0.368069
1.46897
-1.1009
-0.163029
0.179438
-0.0164085
-0.233094
2.05415
-1.82106
0.00267299
-1.52816
1.52548
-1.21335
1.17955
0.615289
0.210629
-0.825918
-0.22359
0.0285963
0.194993
-0.181029
-1.78569
1.96672
0.501001
0.161998
-0.662999
-0.164029
0.218458
-0.0544294
-1.80998
1.02515
0.784835
0.151248
1.62622
-1.77747
-0.137439
0.0400431
0.0973956
0.0341681
0.205992
-0.24016
-0.374126
-0.0494387
0.423565
0.0215247
-0.158963
-0.534731
-0.158149
0.69288
-1.12438
1.27563
-0.0629902
-0.37672
0.43971
0.210715
-0.186649
-0.0240663
-0.0314679
0.161445
-0.129977
0.294148
-0.292019
-0.00212876
0.835694
1.1377
-1.9734
-0.0452064
0.376667
-0.331461
0.146993
-0.521119
0.353983
-0.0588214
-0.295162
-0.873347
1.53876
-0.665412
-0.0848267
-0.0404176
0.125244
-1.75649
1.98163
-0.225137
-0.0188922
0.254763
-0.235871
-0.104254
-1.17074
1.275
-0.520327
0.694393
-0.174066
0.281442
-0.613081
0.331638
0.802147
-1.60065
0.798502
0.101631
-0.378034
0.276403
-0.0769851
-0.19292
0.269905
-0.0235698
0.300668
0.561098
-0.132261
-0.428837
0.327326
-0.0331776
1.66603
-1.14176
-0.524267
-0.296316
-0.704749
1.00107
-1.55322
1.66247
-0.109246
0.0702151
0.0574201
-0.127635
0.335217
-0.100928
-0.234289
-1.27252
0.399176
0.327052
-0.0925897
-0.234462
1.70088
0.128728
-1.82961
-0.706857
0.165476
0.541381
-0.147176
0.158437
-0.0112613
1.0842
0.473526
-1.55773
0.0216763
-0.184705
-0.783249
0.0650568
0.718192
0.284595
-1.23466
0.950061
-0.06003
-0.116971
0.177001
-0.18612
0.101294
-2.36935
1.12489
1.24446
1.81511
-1.17178
-0.643334
-0.0105141
-0.0817038
0.0922179
-1.04944
0.94519
0.813143
-0.312142
0.0421791
-0.189355
0.00979616
-0.173825
1.09866
-2.1819
1.08324
0.208202
1.49268
-1.34224
1.00551
0.33673
0.366592
-0.275352
-0.0912403
-0.592761
0.877356
0.746143
-1.29275
0.546608
0.397018
-0.106372
-0.290646
0.693205
-0.382462
-0.310744
0.85901
-1.72474
0.865728
0.211823
-0.188697
-0.0231259
2.31201
-0.780602
-1.53141
0.526239
-0.860797
0.334557
1.33565
-1.13607
-0.199584
-0.930379
0.14713
-1.56357
-0.805778
0.676387
-0.0806617
-0.595725
0.272252
-0.710461
0.438209
0.254901
-0.273793
0.290871
-0.256703
0.393361
-0.0393776
0.0656608
-0.0596622
-0.00599861
1.30926
1.00275
-1.44268
1.6752
-0.232513
1.1396
0.675512
-1.06279
1.10387
-0.0410821
-0.0227095
-0.166902
0.189612
1.34448
-1.52551
0.285115
0.223071
-0.12144
0.9518
0.00512885
-0.956929
0.0143984
0.165458
-0.179856
-0.607028
0.374827
0.232201
1.63048
-0.771473
-0.83219
0.662908
0.169282
0.905781
-0.745328
-0.160453
-0.15655
0.193268
-0.0367176
0.431973
-0.148219
-0.283755
2.09464
-1.38458
-0.710058
0.591296
-0.550282
-0.391368
-1.34061
0.747847
-1.79142
1.55833
0.213738
-0.102875
-0.110863
-0.221865
-0.00172507
-0.26956
0.266723
0.00283711
-0.695479
0.531045
0.164434
1.90995
-1.1078
-0.31906
0.0879251
0.231135
-0.82135
0.286619
-0.231305
-0.0268875
0.258192
0.121874
0.554514
-0.648108
0.180678
0.46743
1.12454
-2.02486
0.900317
0.0786708
0.132045
-0.0834034
-0.623454
-0.284056
-0.0297805
0.313837
1.05245
-0.43716
0.0127081
0.350406
-0.363114
-0.0556697
-0.240124
0.295794
0.109626
-0.0974174
-0.0122082
0.682522
-1.76568
1.08316
0.437541
-0.500531
-0.352969
-0.108044
0.461013
-0.131496
-0.187564
0.0741358
0.277843
-0.351979
0.180019
0.0430547
-0.223074
-0.0770701
0.257089
-0.633903
-0.0142052
0.477359
-0.766796
0.289437
-0.768924
1.32748
-0.558555
0.27884
-0.360731
0.0818917
-1.08129
-0.259322
-0.0547525
-0.102111
0.156863
1.4353
-0.351094
-0.63154
0.498364
0.133176
-0.304677
0.610908
-0.306231
0.358036
-0.092609
-0.265427
0.224579
-1.78136
0.272136
-1.82536
-2.00474
0.891775
1.11297
-0.864686
-0.477551
-1.30157
0.776163
0.525404
1.5949
0.305125
-1.90002
0.249193
-0.326178
0.317811
0.364853
-0.682664
-0.105502
-0.582584
0.688085
-0.204894
-1.09667
-1.79324
0.0367514
0.0576082
0.00805264
0.0916903
-0.174224
0.0825338
0.324157
-0.384187
0.561187
0.344594
-0.186056
0.162486
0.221077
-0.00673783
-0.214339
0.838985
-0.438111
-0.400873
-0.60425
-1.20573
0.301798
-0.4073
0.0985869
-0.682294
0.583707
-0.160491
-0.0495551
0.210046
-1.37065
0.673642
0.69701
0.362317
-0.730386
-0.198084
0.598936
-0.400852
0.166518
-0.197986
0.608934
-0.275175
-0.33376
1.30554
-0.35374
0.260757
-0.353347
0.979042
0.115261
-1.0943
0.349841
-0.395047
-0.361584
-1.28478
1.64636
1.27417
0.67027
0.766749
-0.494497
-0.91897
0.398643
-0.735909
1.02555
-0.289643
-0.0420988
-0.0238803
0.065979
0.283712
-0.368569
0.0848572
-0.649616
0.77149
-0.300237
-0.186992
0.487229
-0.206007
0.0455158
-0.874158
0.972745
0.229171
-0.824971
0.595801
-0.488493
-0.118535
0.755727
-0.474285
0.232968
-0.0211451
0.20878
0.0939745
-0.302755
-0.276787
-0.418692
-0.688836
-0.0575619
0.746398
0.146455
0.250563
-0.836188
-0.88855
-0.797145
-0.573507
-0.00470745
0.194665
-0.189957
0.821778
-0.32714
-0.494638
-0.883388
0.114464
-1.14186
2.10271
-0.960845
0.412133
0.196802
0.281164
-0.235281
-0.0458829
-0.733459
0.650056
0.696571
-0.992887
1.80387
-0.0529104
-1.75096
-1.7901
2.27764
-0.487549
-0.0330483
0.124739
0.402426
1.22715
-1.62957
0.0483141
-0.212336
0.164022
-0.170644
1.75513
-1.58448
0.00539191
0.209481
-0.214873
-0.928305
1.31773
-0.389423
-0.00749025
-0.725969
-0.148298
-0.540538
0.31875
-0.221091
-1.7045
1.92559
-0.514746
0.465308
-1.8208
0.984611
0.184716
0.0680428
-0.252759
0.212604
-0.268274
0.128158
1.5924
-1.72056
-0.418402
-0.684607
1.10301
-0.576599
0.447815
0.128784
2.30968
-1.47125
-0.838423
0.569891
-0.988292
0.221025
-0.238123
0.0170981
0.107946
0.792755
-0.900701
0.100607
-0.105426
0.00481854
0.837969
0.84773
-1.6857
-0.291329
-0.540862
-0.144629
0.381483
-0.236854
-0.993509
0.666966
0.326543
-0.130728
0.0719385
0.058789
0.781413
0.0403649
1.12348
-2.09564
0.972157
-2.36769
1.04912
1.31857
-1.00598
-1.3617
-0.403779
0.405293
-0.00151347
-0.298784
0.369725
-0.0709413
0.441982
-1.064
0.622023
-0.00577666
1.1126
-1.10682
-0.534714
0.454053
1.04165
-0.0626046
1.01889
0.995167
-2.01406
-0.245434
0.123134
0.1223
-0.111706
-0.881803
1.74454
-0.380285
-1.36426
0.197166
-0.148852
-0.0371483
-0.125975
0.166018
0.905794
0.83875
0.345771
0.474869
-0.82064
0.41165
-0.0349824
0.0642522
0.215583
-0.279835
-0.263216
0.337389
-0.0741737
-1.81527
0.909712
0.905556
-0.0223526
-0.276431
0.973906
-0.496547
0.888442
-0.347934
-0.540508
0.169554
0.165663
-1.94919
1.90316
0.0460275
0.954357
-0.725186
0.00513109
-0.182792
0.177661
0.0176309
0.135858
-0.153489
0.157556
-0.263929
1.65279
-0.554129
0.0408389
-0.16497
0.124131
-0.0242527
0.245329
-0.267637
0.296233
0.977655
-0.972526
-0.730624
0.724848
0.315673
-0.106893
2.05415
-0.14112
0.22471
-0.0835899
-0.270487
1.24814
-0.248803
0.159692
0.089111
0.122549
0.309425
0.134565
0.426532
0.840785
-0.522974
0.547387
-0.42168
-0.125708
0.32383
-1.25213
-0.122953
0.197089
-1.61522
1.39413
0.205467
0.0155583
-1.61255
0.194406
-0.499084
0.210294
-0.230953
0.0206584
-0.639207
-1.17606
1.1041
0.990543
1.45591
-0.782266
-1.78569
0.416634
-0.403926
-0.375628
0.0225616
0.353067
0.196354
-0.321803
0.125449
-1.19894
0.494187
-0.257623
-0.265924
0.523547
0.758189
-0.54756
-0.127902
-1.71486
1.84276
0.741613
0.208894
-1.49374
1.28484
0.937709
1.04392
-0.900647
1.32037
-0.917942
-0.0654607
0.466805
-0.401344
-0.853195
0.846288
0.00690681
0.100791
-0.0599519
-0.114472
0.380282
-0.26581
-0.428212
-0.0828429
0.511055
-0.473259
1.74743
-0.327696
-0.416481
0.744177
0.178523
-0.108308
0.166588
-1.22937
0.357304
-0.293051
0.0228876
-1.96458
1.06966
0.894916
0.490388
-0.32839
0.0155094
-0.143669
0.422509
0.96378
1.3459
1.55973
-0.461756
-1.09797
0.168073
-0.0620763
-0.105997
0.743693
0.591962
-0.40261
0.0269822
0.481129
-1.46267
0.981545
-0.210258
0.243957
-0.0336986
0.723054
0.907429
-0.265535
-0.112498
0.790038
-0.444267
-0.578477
1.41417
0.194693
0.0190455
1.89057
-0.766029
0.209777
-0.195379
1.74272
-0.182986
0.142414
0.470756
0.0766311
0.0412818
0.325311
-1.6627
-0.924225
0.88147
0.0427545
0.0138221
-0.202519
1.76822
0.00943145
-1.77765
-0.8012
0.473503
0.282166
0.0758708
-0.35225
0.0768981
-0.161029
-0.975041
1.52479
-1.5816
0.0568146
0.401366
-0.625897
0.224531
-1.00596
1.72902
-0.851379
1.5339
0.541439
-0.140072
0.664395
-0.483717
1.84589
-0.501413
-0.00821329
0.265992
-0.257778
-0.160755
-0.0294404
0.190196
0.159465
0.00860772
0.158211
-0.839684
0.149353
0.0979275
-0.247281
0.622223
0.705256
-1.7639
1.40232
0.179251
-0.53222
-0.552709
1.29885
-1.10934
1.3357
-0.226352
0.547656
-2.00507
1.83443
2.14092
-0.831662
0.881698
0.784328
-0.0792496
0.238702
1.28609
-1.42826
0.347299
1.08096
0.341456
-0.400277
-0.372317
0.349964
-0.262099
0.185029
0.0841115
-1.22587
0.587035
-0.863005
0.27597
-1.77695
0.871981
0.904968
-0.560701
-0.732049
0.103643
-0.114157
0.111896
-0.458478
0.656039
-0.197561
-0.655388
0.457304
1.21427
0.926657
-1.7901
0.0549526
0.054673
1.62806
-1.38489
-0.243171
-0.377647
1.60479
-1.18129
1.92053
-0.739234
-0.77004
0.769863
0.000176784
0.23032
-1.27976
0.158636
0.21109
-0.310703
0.481022
-0.170319
0.162827
-0.311046
1.3466
0.403839
-1.01231
0.608474
-0.00391494
-1.53629
1.5402
-0.0783048
-0.191255
0.123593
-0.492184
0.368591
-0.513808
0.861071
-0.347263
0.252817
-0.171829
-0.0809872
-0.23344
0.619483
-0.386043
-1.88867
1.69301
1.85374
-0.492478
-1.36126
0.463846
-0.578511
0.114666
-0.0243085
0.220663
0.210404
-0.698897
-0.848202
1.68617
-0.267918
0.0366129
1.80387
-1.01685
1.12479
-0.0925459
0.0925459
-0.51604
0.233533
-1.67622
2.22481
-0.952941
-1.27187
-0.484625
1.05411
-0.569482
-0.0258941
0.228587
-0.202693
1.09416
-1.08567
-0.00849698
-0.292907
-0.426804
0.719711
0.937302
-1.94504
1.00774
0.0307233
-0.883918
-0.278994
0.118239
-0.371488
-0.369764
0.741252
0.597719
0.53732
-1.13504
-1.29216
-0.424546
0.758838
-0.334292
-0.639087
1.34606
-0.706976
1.46491
-1.33675
-0.0660119
0.215365
0.189895
0.402775
0.29043
-1.24073
0.726127
0.514605
-1.25473
1.56827
-0.313534
-0.0267733
0.233515
-0.206742
-1.44468
-0.737217
0.279847
-0.132854
-1.65765
0.515794
-0.436772
0.3223
-0.440237
-0.329803
0.0539324
-0.264191
-0.587789
1.60668
0.0717026
-0.448422
-1.53971
0.136278
1.40343
0.438322
-0.621858
0.183536
-0.954596
0.218686
0.259412
-0.634052
0.37464
1.61944
-0.155243
-1.4642
0.0335046
-0.0856994
0.0521948
-0.280186
0.446442
0.507005
-0.953446
-0.348169
1.37331
0.0162985
0.713944
0.721351
0.0525479
1.47534
0.267377
-1.37661
1.37269
-0.1309
0.0575555
0.0733446
-0.211605
0.0685324
0.143072
-1.60625
0.424955
-0.358213
0.225952
-0.537519
-0.386706
0.317616
0.763733
-0.494251
-0.269482
0.210061
0.117264
-1.01192
1.88001
-0.868088
0.231736
-0.261176
-0.148331
0.432043
0.287503
-0.598206
0.00510623
-0.219182
0.214076
-0.22998
-0.0458501
0.27583
0.622819
-0.603673
-0.0191457
0.0224604
0.0804698
-0.10293
-0.330741
0.353435
-0.0226934
0.462232
-0.57357
0.111338
0.445175
-0.103719
-0.346428
0.595504
-0.249076
0.92311
-1.0162
-0.957198
-0.336857
-0.148371
0.485228
0.0386748
0.426633
-0.328269
-0.24833
0.731877
0.0318559
0.065162
-1.24419
1.17902
-0.316778
0.0327212
-0.206219
-0.427684
-0.331931
0.0984908
0.244648
-0.239256
-1.17062
-0.0598716
-0.153156
0.213028
1.13734
-1.02208
1.06966
0.784078
0.439859
0.448582
-0.192968
-1.58674
1.77971
0.251405
0.571383
-0.822788
-0.464568
-0.93888
0.392223
0.546657
0.670666
-0.232343
0.0509304
0.163729
-0.214659
2.20707
-1.19517
-1.0119
0.154816
-0.35841
0.203594
0.207222
0.533051
-0.740273
0.0814427
0.121168
-0.202611
1.61204
0.0636613
-1.6757
0.217781
-0.0117886
-0.304777
0.37648
-0.371733
0.013702
0.358031
0.27319
0.0176813
-0.273109
-0.0518318
0.324941
-0.562069
-0.236968
0.799037
1.11808
0.501362
1.04827
-0.983103
0.265974
-0.779782
-1.82845
1.70055
0.0451976
-0.285322
0.360556
-0.619609
0.259054
0.731377
0.724531
1.19985
-1.29555
0.0956946
1.2954
-0.581459
-0.181627
0.119551
-0.081417
0.233928
-0.152511
-1.49961
-0.231891
1.7315
-0.375983
0.503143
-0.127161
-0.00130958
-0.0912363
0.611513
0.857456
-0.178945
-0.0664887
1.14622
-2.08174
0.935521
-0.729078
0.0650693
0.664009
1.66071
-0.537231
0.131797
0.174544
-0.757128
-0.31412
0.0137098
0.30041
0.0468512
-0.342013
-0.625752
1.02959
0.0301611
0.070446
0.235101
0.0468702
-0.281971
0.196995
0.897167
-0.324277
-0.442519
-0.242309
-0.44353
0.41375
0.401974
-0.842211
0.243699
-0.155773
0.064794
0.101224
-1.94497
0.928768
0.438964
-0.134032
-0.304932
0.229831
-0.150489
-0.0793418
0.250993
0.861602
-0.0979657
0.0162619
-0.0511308
-1.46227
1.5134
-0.36054
-0.302917
0.663457
-0.0930742
0.10358
-0.0105054
-0.216537
0.803572
-0.33568
-0.187104
0.522784
-0.302193
0.561605
-0.811796
1.68134
-0.869543
-0.629183
0.212479
0.416703
1.62856
-0.0336605
-0.263526
0.0918219
0.171704
0.315166
-0.0373231
-0.210576
-0.159057
0.997109
0.678087
0.575783
-1.38286
0.807078
-0.820759
-0.211249
1.03201
0.157125
-0.461381
0.304256
-0.275613
0.401497
-0.125884
0.395186
0.100885
-0.496071
0.0370288
0.320275
-0.878638
0.165035
-0.00358949
0.0295954
-0.322647
-0.200647
0.488021
-0.287374
-0.306997
0.390922
-0.0839257
0.322732
-0.393161
0.0704287
0.734582
-0.466064
-0.0134636
-0.0461986
-0.647939
-0.351926
0.999865
1.21727
-0.966276
-0.070175
-0.350162
0.420337
-0.216169
-0.529159
-1.22676
1.43496
0.612881
-0.248028
-1.23381
0.88359
0.350216
0.38504
0.0413262
-0.426366
1.79369
-1.79369
-1.71738
0.15381
-0.867473
-0.078013
-0.719676
0.797689
0.49344
-0.599903
0.106462
0.148414
0.282379
0.0566629
-0.339042
-0.0641017
0.273189
-0.209087
-0.54674
1.05197
-0.50523
-0.234063
-0.011297
0.24536
0.759508
-0.529188
-1.10299
0.282227
-0.0649214
-0.290215
0.355136
-0.0672987
-1.36096
-0.611601
-0.897161
0.28556
0.878644
-0.0810449
0.254399
-0.173354
-0.32525
0.440577
-0.115326
-0.394037
0.249408
-0.102406
-0.0151878
0.225482
0.0696057
-0.0247498
-0.143784
0.168534
0.185429
0.048499
-0.478638
0.132209
0.169765
-0.0595613
-0.110204
0.066915
0.0972953
-0.16421
0.301219
-0.328706
0.027487
-0.0849579
0.215423
-0.130465
-0.637317
0.913287
0.660737
-0.807826
0.147089
-0.186983
-0.100269
0.287252
-0.00117405
-1.86209
1.86327
0.766449
-0.644916
-0.121534
0.216167
-0.115138
-0.206666
-0.283675
0.256787
-0.055691
0.210507
0.407379
-0.873197
0.465818
-0.452693
-1.4965
-0.420498
0.745358
-0.32486
-0.238525
0.107029
0.481763
-0.333988
-0.147775
0.0395592
-0.687498
-0.637347
-0.268172
0.335397
-0.0672254
-0.623702
0.366079
-0.0626526
0.561016
0.173775
-0.156144
-1.37863
-0.00595146
-0.330134
0.617636
-0.0516181
-0.227376
-0.249714
0.0972037
0.26166
-0.342705
-0.106538
-0.926667
0.289349
1.86621
-0.11108
-1.7045
2.19062
-1.06496
-1.12567
-0.184966
0.559793
-0.181122
-0.749256
0.223513
-0.500299
-0.286585
-0.0275343
-0.367202
-0.531535
0.898737
-0.0391649
-0.121783
0.160948
0.0723376
-0.937023
-1.76599
-0.348687
-0.367547
0.716234
0.10139
-0.46193
-0.294751
-0.0474929
0.342244
0.581495
-0.143954
0.0614726
0.323567
1.92964
-0.992342
-0.836442
0.46924
-0.288455
-0.0705398
0.358995
-0.0456257
0.0197131
-1.10538
-0.278296
0.0252824
0.253014
-0.135607
-0.0505135
0.922283
-1.22149
0.299208
-0.650392
-0.0273701
1.82106
0.52782
-0.879747
1.08956
-1.9832
0.893635
-1.92999
1.14162
0.788371
0.199214
0.123726
-0.32294
0.167634
0.778605
0.114635
0.809059
-0.923694
-0.00946846
-0.155502
0.0257213
0.438125
0.21922
-0.484065
0.264846
1.26694
-1.45991
0.500906
-0.163274
0.175841
-0.0125665
-1.53045
-0.18693
-0.674803
-0.647789
0.310932
0.200813
0.00299517
-0.203808
-0.695913
0.354014
0.341899
-0.441488
0.376027
-1.07867
-0.577174
1.65584
-0.181205
-0.202386
0.176491
0.487261
-0.439087
-0.0481732
-0.809944
1.68192
-0.203803
-1.05383
0.569206
0.519193
0.454713
0.616103
-1.16284
0.0113602
0.228144
-0.239504
1.42627
-0.0680556
-1.03285
-0.380848
-0.151048
0.531896
-0.0662646
0.251293
-0.0052001
0.196987
-0.191787
-0.259612
0.00290895
0.292513
0.548272
-0.557271
0.343502
-0.0827446
-0.455596
0.311926
-0.185955
0.00839455
0.177561
0.30962
-0.113105
-0.196515
-0.172131
-0.0561855
0.228317
-0.194669
-0.000483467
0.195152
0.240902
0.0548915
-0.312942
-0.312956
0.440335
1.15705
0.312474
-0.38051
0.0680365
0.276713
0.234975
-0.511688
-0.349333
0.417139
-0.0678067
-0.283618
0.321547
-0.746093
-0.192271
0.411612
-0.0874554
0.212417
-0.0458993
-0.160993
-0.0513424
1.79878
-0.951047
0.428427
-0.55651
0.128084
-1.53708
0.310319
0.323147
-0.0094973
-0.31365
-0.0645384
-0.0661891
-0.834106
-1.09588
0.435053
-0.085212
-0.657104
-0.80557
0.270909
-0.0358079
0.213185
0.274076
0.707596
-0.831515
-0.803977
1.37976
-1.66495
0.165338
0.448898
-0.00782073
-0.441077
0.00115483
-0.280419
-0.389086
0.669506
0.125742
-0.00161048
-0.75159
-0.670059
1.42165
-0.932422
-0.958709
1.89113
0.352508
0.509377
-0.861885
0.010184
-0.281843
0.0136715
-0.292081
-0.306125
-0.210068
-0.115876
0.325945
0.530789
0.157296
0.298964
0.1828
-0.219418
-0.678821
0.356685
-0.497805
-0.68506
1.21063
-0.525567
-0.201567
-0.202439
-1.62174
0.22225
-0.0275858
-0.526011
-0.0787021
-0.273277
-0.87736
0.380813
-0.180703
-0.959439
-0.265569
1.22501
-0.443309
0.666821
0.652919
0.401188
-0.369698
-0.977444
-0.967522
-1.19582
1.18732
0.138178
0.0333231
0.0504104
-0.127135
0.0767249
-0.747444
0.622351
0.125093
0.775784
-0.783274
0.475739
-0.0367745
-1.15092
-0.0828823
0.175244
-0.233763
0.0585192
0.493092
0.129727
-1.33587
0.00903134
1.32684
0.0506656
0.134763
-0.140768
0.339699
-0.198931
-0.289389
0.498201
0.0930954
0.0938089
0.0213381
-0.115147
-1.23788
0.85759
0.134836
-0.00909419
-0.202718
-0.155692
-0.42897
0.143106
0.100592
-0.197254
-0.255358
-0.0209213
0.378952
0.406704
1.49646
-0.613987
1.49568
0.988854
0.337002
-0.763806
-0.0851247
-1.25075
0.55231
-0.367999
0.454042
-0.0860426
-0.097702
0.00028461
0.327576
0.00632772
-0.075713
0.177007
-0.0462311
1.48834
-1.44211
0.0880525
-0.814022
-0.143286
-0.297876
-0.0863107
-0.360554
-0.320372
0.421512
-0.10114
0.0195439
-1.50032
1.48077
0.392644
0.119622
0.373818
-0.955547
-0.516396
1.00469
-0.488291
0.0158969
0.0744706
-0.22496
-0.626551
0.392911
0.23364
0.417839
-0.4782
0.060361
-0.243885
-0.49361
0.737496
-0.309742
-0.0853048
-1.94158
0.0023767
0.287436
-0.29565
0.0796993
0.131287
0.00354857
0.376041
-0.743588
2.13923
-0.922094
-1.21714
0.359761
0.508817
0.122035
-0.262803
0.244151
0.0912463
-0.223697
-0.0105918
-0.182029
0.43693
-0.517845
0.788195
-1.03208
0.17845
-0.12145
-0.057
-0.425159
-1.66939
0.832171
0.837215
-1.72987
1.7287
-0.999128
0.532213
0.466915
-0.415866
-0.128296
0.544161
0.162051
0.569826
0.369137
0.236464
0.529312
0.471111
0.0972563
-0.293701
-0.0402869
0.991943
1.14729
0.266641
-0.0510578
1.25323
-0.948104
0.00324105
-1.44644
1.4432
1.00194
0.155113
-0.336763
-0.100009
-0.316173
-0.363565
-0.310338
-0.293339
-0.0789776
0.242446
-0.927084
0.684638
-0.390952
2.27254
-1.45342
-0.819128
0.066477
0.173137
0.0554495
0.554725
0.216764
1.77658
-1.62277
0.979264
-1.91169
-1.17563
-0.0692926
1.24492
-0.844493
0.386612
0.457881
-0.325434
0.00278729
1.91377
0.0423345
-1.9561
-0.958401
1.59154
-0.633143
0.1066
0.284322
-1.26807
0.628982
-0.0195061
0.224973
-1.35359
0.244247
0.245441
-0.0580989
-0.187342
-0.193932
0.23444
-0.040508
0.0390973
-0.436762
0.397665
0.624603
0.256867
-0.542429
-0.153484
-0.0382376
0.906729
-0.876006
-0.0907171
-0.0835071
-0.299747
0.0652846
0.216502
0.552937
-0.76944
0.193849
0.379424
-0.573272
0.335339
-0.53591
0.200571
-0.432702
-1.27725
0.491314
0.785933
-0.0242104
0.852184
0.309258
-1.16144
-0.544649
0.258297
-0.294479
0.0361821
0.20963
-0.0456082
-0.298037
0.00328579
-0.335948
-0.771228
0.248253
-0.529395
0.806853
-0.277458
-0.666803
-0.252167
1.9087
-0.839033
-0.111123
0.205847
-1.16171
-0.0650551
-1.1891
1.25415
0.164884
0.0850556
-0.24994
0.773077
-0.390975
-0.382102
0.447978
0.16293
-0.00228706
-0.995323
0.32852
-0.690421
1.08264
0.0534192
-0.321056
0.356651
0.270388
0.0392325
0.897917
-0.424413
0.096556
0.679228
-0.951456
0.328002
-1.88238
0.923674
1.62252
-1.60297
-1.6937
1.64746
0.0579459
-1.44274
0.305946
1.13679
0.324602
0.420757
0.0670537
-0.861175
0.783162
-0.167036
-0.138532
0.305568
-1.13776
0.457581
0.680182
0.303809
0.68639
-0.990199
-0.0766421
-1.11918
0.863403
-0.0249261
-0.838477
0.207866
0.702234
-1.25494
-0.274773
-0.0275839
0.0995224
1.69536
-1.6317
-0.311555
-0.932885
-0.344363
0.627657
0.0556117
-1.23124
1.1813
-0.32912
-1.83443
0.0487429
-0.127352
-0.96695
0.372695
0.15878
1.82845
0.225705
-0.0378171
-1.06756
0.184605
-0.141551
0.0454332
-0.473645
0.327925
-0.617515
0.28959
-0.183611
0.0100445
0.173567
0.306491
-0.214669
0.0203311
-0.283547
-1.06545
1.17212
-0.106663
-0.734959
0.709818
-1.29723
0.587415
-0.855475
-0.0818373
0.140626
-1.3884
0.0690628
1.31934
-0.448177
0.995834
-0.694624
0.766961
0.158051
0.882248
0.664714
-0.907023
-0.820857
-0.226567
1.04742
-0.841582
-1.3352
0.583605
-0.170793
0.171157
-0.000363848
0.110021
-0.120526
0.657606
-1.28336
0.234283
-0.592609
0.358326
-0.2349
0.541544
-0.306644
-1.02715
0.533537
0.0556586
0.0333984
-0.26856
0.423632
1.77719
0.13658
-0.783123
0.897758
-0.306826
0.104108
-0.711721
1.39996
-0.688234
-0.0990932
0.0899796
0.142988
0.440998
-0.00128746
0.912339
1.19037
0.40566
-0.889377
0.321804
-1.79306
-0.240658
0.180786
-0.0164237
-1.00566
-0.277288
-0.944203
-0.263089
0.0770331
0.860896
-0.437264
-0.55198
-0.198904
0.747176
0.229691
-1.66073
0.265049
1.39568
-0.020343
0.518544
0.430383
-1.46689
-0.323209
0.816809
-0.350265
-0.466544
0.972419
-0.394825
-0.577594
-0.231205
0.0593752
0.710755
-0.684968
-0.025787
-1.68758
0.799383
0.888196
0.891003
0.790336
0.0027216
0.198092
0.857652
-0.536106
-1.32321
0.594536
0.728669
-1.92559
1.6937
0.539819
0.682058
-1.22188
0.87152
-0.72439
1.50535
-0.636789
-0.868562
-1.09814
0.224645
-0.105094
0.0686329
-0.109053
0.232187
-0.062051
0.164742
-0.102691
0.0439074
-0.426369
-1.27203
-0.256131
0.422063
-0.202843
-0.050819
-0.0546067
0.715097
-0.0979347
-0.617162
0.851658
-0.497643
-0.176545
0.152237
-0.0281001
1.22795
0.232349
-0.067465
-0.176179
-0.850969
-1.46658
0.507138
-0.0520039
-0.134645
0.160341
0.107492
0.163635
-0.113225
-0.560949
-0.946228
0.143888
-0.110686
-0.0332026
0.220988
-0.727335
-0.794237
1.52157
0.140465
-0.00917812
0.113446
1.0018
0.969663
-1.97146
-0.530591
0.883098
0.279769
-0.117283
0.170448
-1.02756
-0.649853
1.67741
-0.895855
-0.898711
0.367175
0.312366
-0.0871861
-0.22518
0.347658
-0.674798
-0.237573
1.14366
-0.433843
-0.242089
0.14948
-0.176192
-0.631634
-0.0196697
1.83737
-1.70055
-0.13682
-0.913919
-0.552658
0.166373
0.195108
0.084749
-1.01406
-0.274865
1.28893
0.273067
0.385979
0.0318603
-1.5474
-2.182
0.815179
1.36682
-0.281482
-0.00776656
0.289249
0.975533
-0.668569
-0.306964
0.133963
-0.209676
0.109169
0.157554
0.917174
-1.99584
0.778878
0.19354
-0.456227
-0.380215
-0.154138
0.0323546
0.176974
0.634856
-1.36219
0.0447894
0.422015
-0.360558
0.763334
-0.458566
0.354329
0.104237
0.682336
0.823015
0.41926
0.0536269
0.559911
-0.826771
0.26686
2.00507
-1.74002
0.18442
-0.627194
0.175131
0.0344988
0.118434
0.0197645
0.14877
0.00372336
-0.174517
0.660843
0.0182594
-1.69007
-0.033524
-0.247958
-0.098255
-0.0288802
1.2335
-0.580577
0.72637
-0.618743
-0.107627
0.0115173
0.18175
0.231207
0.0142342
0.399653
0.0414491
0.234381
-0.253939
-0.349735
-1.91722
0.887884
1.02933
-0.202382
0.0354797
-0.0606256
0.157472
0.23589
-0.299753
-0.334299
0.452278
-1.47984
-0.158045
-0.957232
1.95903
0.665645
-0.253441
-0.412204
-0.750072
-0.393103
-0.2068
0.115443
-1.13475
0.347591
-0.696394
0.348803
-0.116767
0.214287
-0.0975193
0.091099
0.96946
0.951065
-1.73059
1.74002
-1.48198
0.813688
0.668293
1.0012
-1.95844
2.00424
-1.04046
-0.994359
-0.965336
0.368188
0.28785
-0.182295
-0.309889
-1.4494
0.00665744
0.0209948
-1.31654
1.19381
-1.91788
0.724077
-0.0745458
0.323739
-0.597154
0.532985
-0.116282
0.860352
1.41219
-1.421
0.709277
-0.0374329
-0.858422
-1.3537
0.0625292
0.151758
1.72987
-1.76353
-0.0468943
-1.36852
-0.00140101
0.730943
-0.284501
-1.49792
1.68621
-0.188283
0.274918
1.58835
0.396607
0.085369
-0.481976
1.89225
-0.912991
0.277974
0.218671
0.517511
-0.72373
0.114489
0.155898
0.155694
0.661109
-0.816803
-0.641107
-0.274108
1.08297
-1.03937
-0.0435986
-0.27572
0.301002
-1.4492
0.732259
0.716945
0.488103
0.284975
-0.796576
0.0764773
0.993998
-0.539285
0.320359
-0.612439
0.170725
-0.216625
-0.700514
0.420095
-0.982156
-0.915328
1.89748
0.236748
-0.237232
0.292233
-0.274551
1.18048
-0.611271
0.163635
0.960775
-1.57476
0.123251
0.1238
0.245077
-1.21135
-0.0659913
0.635777
0.074494
0.251504
-0.621268
-1.4252
0.621223
0.299681
-0.415168
0.115487
0.0816177
-0.347428
1.11715
1.07347
1.27304
-0.973835
-0.0924395
0.178114
0.159275
0.507176
0.287962
-0.285053
-0.670443
-0.9551
1.9563
0.161987
-0.186198
-0.850401
-1.02621
1.87661
-1.53801
0.579611
-0.0837548
-0.389119
0.321312
-1.49156
-0.0481457
-0.281673
0.629265
-1.02962
-0.887601
1.83737
0.652601
-1.22611
0.955387
-0.69852
-0.148727
-0.330394
0.344066
-0.319295
0.24912
-1.70156
0.343835
-0.86023
1.00169
-1.95679
-0.854268
0.297687
-0.33501
-0.030975
-1.46695
0.931011
-0.550198
1.33009
0.909925
-1.72983
0.819903
1.69874
-0.899362
1.96672
-0.95029
-0.974152
1.92444
0.310645
1.27684
-1.00377
-0.820537
-1.36146
-0.992327
-0.489654
0.460023
-0.768262
1.77603
-1.00777
-0.137503
1.3804
-1.2429
-0.975906
-0.972155
1.94806
0.884027
0.198939
0.315224
0.391651
-0.734577
0.205932
0.528645
0.0733907
-0.334567
0.486444
-1.40036
-0.705973
-0.428362
-0.319082
0.278819
-0.357521
-0.742474
1.28908
-1.92675
0.94456
0.982189
-0.0256981
-1.65018
1.67588
0.237961
-0.31771
0.108623
0.368147
-1.84614
1.84614
-0.489304
0.0611632
0.428141
-0.466668
1.00399
0.196408
-0.133878
-0.730335
-0.470628
0.627924
-1.73059
0.154577
-1.30727
0.290422
1.22319
-1.29049
-1.2516
0.237535
0.307699
-0.340471
0.032772
0.177056
0.533698
-0.204772
0.0211609
-0.983438
-1.19116
0.119594
1.07157
-1.38174
0.15767
-0.430757
-0.866476
-0.00744981
0.101259
0.201464
-0.0737384
0.317889
0.259503
-0.280425
0.416484
-0.386703
-0.313811
-0.834143
1.6856
-0.851453
0.357161
0.260147
-0.227097
0.466047
-0.238951
-0.383578
0.300735
0.280381
-0.599015
0.318634
-0.73579
1.33031
-0.790495
-1.60562
-1.69972
0.199409
-1.06038
0.0675872
0.989312
1.21776
-0.0107392
-0.956211
1.23551
-0.509383
-0.263692
0.317112
0.654545
0.614053
0.257468
1.94867
-0.946981
-0.974186
-0.91915
1.89334
1.17721
-0.0786626
-1.09855
-0.144296
0.379271
-0.259759
0.232986
0.184366
1.29075
-1.47512
-1.61649
1.60297
0.0135173
1.61649
-1.64746
0.258021
-0.332566
-0.585893
1.28813
0.103195
-0.254794
0.309686
-1.65285
0.159108
1.75472
-0.844794
-0.505209
-0.156138
0.164532
-0.489185
0.833979
0.29932
-0.0957263
0.758692
-0.525052
0.203275
-0.284262
-0.636854
-0.0736073
0.563065
-2.04158
0.505289
-0.0953605
0.508225
-0.412864
-0.950884
-0.967
0.137847
0.326636
0.627721
-0.941516
0.158393
-0.359348
-0.176562
0.153623
-1.97284
0.978484
-0.293172
-0.147045
-0.19566
0.00832893
-0.205583
-0.217344
-1.3158
0.839062
-1.61207
0.773008
0.0815303
0.300284
-0.381814
-0.424014
0.446576
-1.03534
1.32577
0.368575
0.514523
1.32741
-1.46689
0.224258
0.057908
1.71422
-1.94544
0.231216
-0.333729
-0.105358
-0.875197
0.0367199
0.395716
-0.546764
-0.191022
0.288226
-0.826463
-0.100053
0.105904
-0.00585151
-1.50517
0.234427
1.27075
-0.215698
0.266363
-0.0518038
-0.169339
0.221143
1.19328
-1.13767
0.215645
-0.2056
0.665264
0.132425
0.255984
-0.197464
-0.24351
0.350539
0.236543
0.676632
-0.913174
-0.495551
0.0587886
-0.931323
-0.976922
1.90825
-0.0274437
-0.444844
0.572928
-0.717827
1.7287
-0.274826
0.275981
0.0740251
0.110216
-0.0983541
1.97804
-0.986098
-1.27826
0.882129
-0.538294
-0.585106
1.31378
-0.226795
0.268244
0.135358
-0.136667
-0.339518
0.407554
-0.341368
0.225491
-0.155984
-0.379375
0.305636
1.0172
0.24908
-0.240751
0.241442
0.012957
0.0571192
-0.413181
0.334204
0.480901
-0.867605
0.24625
-0.287356
0.0411061
0.297713
-0.212657
0.372337
0.630756
-1.00309
-0.303579
0.165047
0.126183
-0.569491
1.24776
-0.625542
1.01312
0.993561
0.0242004
0.475291
-1.00318
0.380067
-0.524021
-0.0994201
0.995837
0.933807
-1.73212
1.73212
1.4146
-0.891609
1.0582
-0.0253641
1.52402
-1.49866
0.938728
1.00572
0.925195
-1.90735
0.0192021
-1.05128
-1.32081
-0.20077
-1.44728
1.64805
-0.450422
-0.17328
0.102465
0.673211
0.215098
-0.328203
-0.968615
1.82168
-0.853063
-0.195888
0.310378
0.0117655
0.154351
0.516315
2.09328
-0.811375
-1.2819
1.53865
-1.46959
1.08151
0.254187
0.298544
0.242895
0.0149769
1.57742
0.487242
0.995355
0.884658
0.0308808
0.235449
-0.26633
-0.402903
0.247211
0.213555
-0.234374
0.0208189
0.191333
-0.267624
0.0762915
0.436816
-0.475054
0.372292
-0.57386
-0.0182698
0.434904
0.0529493
0.184576
-0.0361616
-0.874001
0.434802
0.439199
0.15661
-0.140804
-0.015806
1.76353
-1.45972
-0.428878
0.121441
0.307437
-1.69536
-0.392723
0.305267
-0.97229
1.91102
0.285847
-0.372157
1.91248
-0.987288
0.276496
-0.35924
-0.204101
-0.853755
-1.26574
-0.368932
1.35462
1.30039
-1.05531
-0.116979
0.195649
-0.107314
-1.47429
-0.331521
0.329392
0.277464
-0.420749
-0.413543
0.312403
-0.125318
-1.32516
1.3284
-1.42292
1.47974
-1.157
-0.578429
0.452721
0.739938
0.429794
-0.470081
-0.097741
0.165571
0.372188
-0.537759
-0.389443
1.29524
-0.977216
-0.961285
-1.90767
-0.13396
0.123137
0.0108237
0.0348649
1.41349
-1.44835
0.82543
-0.577176
0.35244
-0.438483
1.48483
-0.811617
0.8641
0.891936
-1.75604
0.255359
0.0439609
0.697298
-0.188481
0.246696
-0.860002
0.0459807
-1.47671
0.68247
-0.387067