/*--------------------------------*- C++ -*----------------------------------*\
| =========                 |                                                 |
| \\      /  F ield         | OpenFOAM: The Open Source CFD Toolbox           |
|  \\    /   O peration     | Version:  2306                                  |
|   \\  /    A nd           | Website:  www.openfoam.com                      |
|    \\/     M anipulation  |                                                 |
\*---------------------------------------------------------------------------*/
FoamFile
{
    version     2.0;
    format      ascii;
    arch        "LSB;label=32;scalar=64";
    class       volScalarField;
    location    "8.6";
    object      p;
}
// * * * * * * * * * * * * * * * * * * * * * * * * * * * * * * * * * * * * * //

dimensions      [0 2 -2 0 0 0 0];

internalField   nonuniform List<scalar> 
13486
(
1.98263
1.8236
-0.0136661
-4.88442
-0.463482
0.104918
-0.754264
0.265837
0.890334
1.13493
-4.14032
0.294948
2.06596
0.215469
-0.223802
1.20797
-3.68883
0.565725
0.353867
1.81182
-4.57845
2.02502
1.79331
-4.51352
1.06228
-4.15856
-3.71595
-1.22281
-0.00125221
-1.61381
-3.97154
0.227058
-1.87554
-1.02745
0.281265
0.000436316
-0.161303
1.21569
-0.192558
1.02692
-2.09547
2.17767
0.0016086
1.04011
1.01495
0.28426
-3.66252
-0.000198638
-0.152251
-0.757588
1.33456
-0.24947
0.317213
1.28641
0.241278
-0.360788
-0.496734
-0.242921
-1.81717
-0.284503
-4.99893
-0.284748
-1.7826
-4.43393
-9.6587
-0.187521
-5.17715
2.13148
0.860998
-0.122482
-5.18528
0.371891
1.14461
-2.70778
-0.246699
-0.480106
-0.218896
-0.285122
-3.72591
-0.306586
6.02614e-05
1.88958
-1.78687
0.0298512
1.98392
1.31883
0.0530773
1.29396
1.51107
1.2733
0.402028
0.0434245
1.81417
1.8198
0.857501
-0.00157989
-3.71177
-5.72871
1.00104
-3.79592
0.0200785
0.287618
-5.8763
-0.239253
1.48687
-3.868
1.40374
-0.191505
-3.77256
-0.297731
0.578644
0.0808183
1.28893
-0.103939
2.54453
0.702136
1.07412
-0.959913
1.15807
-0.122162
0.571472
-4.79549
0.991274
-0.197494
0.619521
-0.234817
0.444268
0.627723
-0.882237
-7.35237
-0.232002
-3.5455
-3.24944
-2.45221
1.37009
1.38913
2.82292
-0.219822
-0.113348
0.4021
-1.40048
0.323434
0.320914
-0.322536
-0.0524079
-1.7331
0.041531
2.05861
-0.829762
-0.000888115
1.04774
-0.555428
0.00207626
1.93237
0.718861
-0.0202877
-0.649929
-2.56455
0.945849
-0.150157
-0.451013
0.950495
0.597325
2.16442
-0.251685
-0.0110855
0.394891
3.04603
0.0428459
-2.45439
-3.33996
0.727212
1.1734
0.297591
-0.00378865
-9.53554
0.11772
-1.48951
1.393
0.322755
0.849508
-0.0878934
0.2847
-4.11312
0.0828
-1.17441
0.000382798
-1.32192
-1.91526
0.832946
-0.140404
-0.0791652
-0.272306
2.16119
-0.317803
-3.98112
-8.01589
-0.509807
1.50778
0.0511732
-4.05682
0.609596
1.22084
-1.14388
-0.179166
-0.334233
0.199442
1.36134
-0.258583
0.0809644
-1.25972
-5.16432
1.79152
1.40828
0.110291
-1.12103
-1.58993
1.28328
1.64407
-1.35277
-3.74173
-0.83686
0.465044
-0.517666
0.295661
1.77737
-0.110099
-7.65634
-0.682626
0.0342723
0.838946
-3.62188
-1.46524
2.24924
-5.89225
1.63915
-1.16424
-0.0749799
1.67166
0.366321
-2.02579
1.15738
-0.0658399
1.48197
-0.151122
1.59482
0.417267
-2.77993
-2.37874
1.11603
-6.0062
2.58985
0.608175
-0.199674
-0.472745
-9.73489
0.262508
-1.09706
-2.32316
-2.1199
1.6526
-0.149994
-0.171395
-9.34898
-0.549282
-4.09816
-0.690824
-4.63841
1.08472
0.455092
1.7841
1.40577
-1.62501
0.276331
1.78162
-2.53252
-0.473844
-1.72209
-0.211667
0.045549
-1.94063
0.718069
1.43211
-4.67456
-4.65461
-3.74883
-1.22511
-0.901978
0.278751
1.11228
-5.68795
-0.166489
0.79195
1.3778
-1.12025
-1.24366
-0.473045
0.249923
1.43402
-1.51441
0.635901
0.254368
0.0441538
0.200484
-0.128841
-1.0844
-3.84339
0.436653
0.0238027
-0.148146
-2.48373
-4.75548
0.336298
0.139572
-4.36728
1.41759
-0.169133
1.52254
1.38602
-0.830873
-0.174364
-0.15919
1.39275
1.84757
2.77665
0.380582
0.153171
0.685609
0.171833
0.0474609
1.30003
-0.0495681
0.447201
2.12826
-0.901578
0.740593
2.58716
-0.53758
1.10754
-0.142712
-0.743652
1.84155
-0.0222435
0.272397
-4.41532
-0.00115638
0.462202
2.45544
-1.38114
-0.156901
0.529961
0.210361
0.26372
-3.71342
1.42388
-0.0472594
-2.77715
0.437255
0.00704093
-4.55875
0.352835
0.408831
1.62651
1.40945
-1.65506
0.00176119
-1.20803
-3.46919
1.83853
0.469026
-0.0016187
0.4905
0.264049
-5.95186
0.217382
1.35206
1.441
-0.145594
-4.22929
-2.06371
1.0471
-0.160378
2.19146
1.85147
-3.52979
-0.514407
0.388656
1.08921
-2.91483
-3.04401
1.74778
-1.63735
0.885828
1.74502
2.23321
-0.101878
-4.99916
-5.82721
-3.22351
-1.34343
-3.00179
0.863828
0.907559
-3.93244
-0.638314
0.166251
1.79198
-1.51834
0.557491
1.75177
1.06045
-0.267773
-1.57315
1.44395
1.42794
2.10694
-4.23275
-0.514687
-3.47849
0.368088
1.39743
0.675366
2.47302
1.14185
-0.257684
-1.28844
0.614804
1.43946
-3.72195
0.478622
2.02187
0.919904
0.872066
0.247564
-0.833763
-2.58798
2.20634
-0.155729
0.331125
2.09852
-3.62958
-1.5839
-2.43195
-1.64624
-0.0210757
1.3469
2.01388
2.04956
-2.18055
-0.127559
-4.46554
1.12365
1.54713
-0.749973
-0.551029
1.43625
-5.24997
-10.2239
-4.97036
-1.94558
0.427846
1.55358
-0.004591
0.492064
-4.56446
1.45259
0.000920067
2.84147
1.79749
1.07926
0.133657
-0.00159481
-0.00120083
2.56304
-0.555472
-0.107267
-0.254399
0.753762
-3.77063
0.243325
1.19006
-0.0665934
-0.160646
1.79097
-1.24123
-3.41715
1.12952
-3.15205
3.03478
1.14302
1.34644
1.47843
-9.20844
0.106771
2.52925
-0.705378
1.82907
-1.38826
0.681179
-4.97842
-0.301111
-0.00707927
-3.97521
1.56719
0.645513
-6.28183
0.000842588
0.0501533
2.23748
1.33955
-0.505015
0.695479
0.517965
-0.118137
-0.623521
1.35494
-3.39396
2.16402
-0.123176
-0.118541
2.1848
-0.176105
-0.0180279
0.554813
-5.55737
-5.45775
0.365704
-0.389815
1.03557
1.81099
-3.84009
-0.807661
-3.82722
-0.00154989
1.64986
0.672198
-4.21831
-6.0798
0.733323
-2.38671
0.310134
-9.52058
-0.508787
0.701064
2.09488
-0.147769
1.61665
-1.57776
-5.79159
-0.77514
0.864876
-4.30728
1.31563
0.0883336
-5.38771
0.543015
1.22869
-2.36209
-3.87435
1.34781
1.72952
0.7959
2.01873
0.0935236
1.15977
0.632303
1.41623
-0.0361627
1.64285
-3.71154
0.837351
0.603364
-0.834859
-2.47768
1.37608
-3.52299
0.258613
1.97193
1.99478
-6.46431
-1.48966
0.744993
0.326991
0.935875
1.34765
-1.38109
-3.7134
0.319236
1.88034
0.528954
0.521161
-9.68207
2.0186
-2.25712
-0.0893322
1.41536
0.0929717
-0.308203
0.360641
0.260402
0.141825
0.0809013
0.832966
-0.84801
1.95465
0.686223
0.63126
0.662146
0.305826
-1.17135
2.40118
0.707064
2.38562
-7.1957
1.1677
-0.0036346
-2.73661
-0.465277
1.10672
2.56231
-12.9212
-0.227207
0.0856971
-1.51482
1.08712
0.499323
-0.00701926
0.925308
-3.8969
-2.31621
-2.82638
0.342083
-1.02583
1.46036
-0.00237004
2.22235
0.972845
-0.191263
-5.76116
-1.24191
0.74196
-4.40246
0.221305
-3.90219
1.61221
-0.000158511
-0.404458
-6.88054
2.18413
0.000845755
0.62708
2.15164
1.34575
-4.5298
-0.140445
0.521425
0.422064
0.548214
-0.0572834
-7.95497
0.820508
0.960146
0.711076
0.801998
2.20139
-0.0791588
-9.03958
1.37851
0.533259
0.0292765
0.196016
1.22173
0.923227
-4.29443
0.087678
-0.147271
0.20039
1.64811
0.726644
0.161445
0.048915
-2.36896
-0.372931
1.62478
-0.324216
0.488046
0.947351
2.10258
0.631037
-0.359735
2.37616
-0.00319874
-5.34556
1.22444
-2.33937
1.6416
-0.0480264
1.40999
-4.02794
-2.53755
-5.23698
-0.0012158
-3.56097
1.03864
2.4814
-1.29609
-2.31117
-0.173605
1.6613
0.397431
0.907891
-6.43012
2.53974
-4.37472
0.459275
-0.835149
1.09221
1.51463
1.00805
-1.86006
-4.05402
2.14284
1.46405
-0.852712
0.933298
-2.19241
0.504182
0.297145
1.07503
-2.45418
-0.459298
1.75805
-0.521017
-0.231032
0.206022
-5.5477
-1.27646
-0.188356
1.33485
1.61147
-7.92756
0.102267
-4.56728
-4.22625
0.145209
-1.01175
0.415081
1.40696
0.361055
-0.629229
1.16141
-1.6527
-6.45156
-0.118216
-0.307144
-7.5732
-4.98224
-0.150875
-9.49166
0.525514
2.07507
-0.108118
-6.0681
2.15919
1.96735
-5.98789
-7.29477
0.814019
-3.58125
-0.0764746
0.37146
0.421953
-0.351598
-3.45951
0.941735
1.16653
-0.239077
-3.02558
-2.82342
0.144618
0.572491
1.07297
0.571664
-7.99925
1.52881
1.89312
-3.6772
-9.36009
0.99189
-1.29916
0.640464
-0.182106
-1.51384
-7.88633
0.179845
1.41343
2.40143
1.32039
0.315082
0.212591
1.3944
1.8633
0.346616
0.904003
1.27609
2.22665
-0.553253
-0.156272
0.5108
-0.727596
2.15944
0.115368
0.549845
0.610726
-0.465059
0.278488
0.192794
-1.03906
1.44424
1.51555
1.18173
0.969504
-1.78322
-0.0566473
-0.925593
-0.312329
-0.932548
-0.0164352
-0.0536068
-11.9378
-5.62009
1.00803
-1.45835
-2.38314
-1.528
-2.50517
-0.02293
-3.74869
-10.4488
1.43047
-5.90262
2.01121
-7.82017
-2.40373
1.12612
1.68271
-0.279622
0.446657
-1.70095
1.53733
-0.472971
-1.66836
-0.282047
-0.135418
-2.61315
1.41994
-0.360699
1.07529
-0.155134
0.779484
-3.71073
-0.0518844
-0.0470187
1.37375
-1.17363
-4.36525
-10.1955
2.00152
0.440609
-9.51178
-3.98282
1.27253
-8.0347
-0.160457
0.268957
-0.118809
0.225932
0.172993
-8.96977
1.48797
1.42839
1.18458
0.922671
-0.137184
-1.45257
1.26238
0.0457297
1.17066
1.31841
-0.330052
-0.197479
-0.567986
0.229953
-0.124289
1.57906
0.854034
0.669042
1.4104
0.465059
0.541143
2.52109
0.192334
-1.28273
1.17365
0.113657
-0.184715
-0.626552
-4.59334
1.25014
-0.0817029
-0.00287914
-0.0325089
0.600851
1.35985
-4.60282
0.00223699
1.41142
0.128395
2.14969
1.62149
1.59671
0.283874
1.24966
0.320604
-0.0689744
0.10114
1.01879
-3.82331
-0.84685
-1.69616
-2.26469
-6.74442
1.18263
-2.21446
-2.90073
-12.059
-3.79676
-0.0631218
1.46285
-0.021811
0.426214
-2.6298
1.43117
2.42361
0.14398
-4.91598
1.07215
-1.30723
1.18428
-0.178412
-0.159291
1.2998
-0.280362
2.21006
0.585581
1.39567
-1.39516
1.64946
-0.0830608
1.63934
-0.134087
-2.28962
0.136654
-12.8723
0.591
0.138766
-3.52106
2.03576
1.43084
1.63679
1.77739
1.64757
1.38066
-0.914098
0.881766
1.44855
1.40008
-0.748015
-0.11542
-1.01107
-0.48184
0.328695
0.995223
-2.54075
2.51613
-0.643072
-0.0730796
2.40429
1.91362
-0.840327
-9.93448
1.05753
1.02159
-2.31195
0.699562
-2.47147
-0.169761
1.39542
1.6825
-0.166721
0.95205
1.638
0.00138991
-0.413064
1.72751
0.380314
-0.135304
-3.76251
0.0231188
-1.01274
1.43843
1.46247
-0.195931
-2.1916
-2.09599
0.304415
-0.172917
0.27453
2.09697
-0.220575
2.74177
1.20187
0.352114
1.39336
-4.62714
-2.87261
-7.72703
1.25529
-0.17519
-2.37409
-3.89555
0.963161
1.13111
-0.14338
-0.147787
-3.56937
-0.138003
0.426416
-0.149645
0.669937
0.324054
1.51272
1.43365
1.59482
0.962671
-0.850465
-1.80265
-1.12657
0.0668885
-7.32677
0.465151
0.641153
-5.30999
-0.13497
-0.211056
0.651883
-6.83432
0.615247
1.02637
-0.0773465
-2.25876
0.301113
-0.739856
-2.5174
0.239256
0.128267
0.953252
1.22256
1.3646
-2.45139
1.36204
-0.0456845
1.81973
0.402372
1.00908
0.570102
0.159783
2.20083
2.59448
0.824736
-0.589261
1.18635
0.637862
2.21542
0.0335709
-1.7712
-6.44615
0.262963
-0.505428
-1.94771
1.42086
1.13904
0.211301
-1.53536
0.207462
0.948207
2.51712
-2.13593
1.29739
-3.29852
0.476309
2.0583
-0.575952
0.489686
-4.7942
1.09097
0.363986
2.68383
0.000872662
-1.06105
0.97598
0.246732
-4.30067
-2.48409
0.640106
1.63342
-0.0568131
-0.508397
1.97746
1.84156
-0.357146
-1.75574
-0.0306699
0.610511
1.09338
1.06942
1.64149
0.540356
-3.96066
1.78928
0.492839
-1.54557
0.221161
1.53912
1.33377
-4.87024
-3.90378
0.0015614
1.32967
2.09588
0.462461
0.628236
-1.03817
2.53949
-3.69386
-1.34033
2.24869
1.34287
0.261012
0.572501
-5.10219
-0.0569722
-2.42606
-3.73732
-0.151046
-7.93296
0.349419
-1.43728
-3.57052
-3.57649
-1.31792
-1.25291
-3.09492
-5.8283
1.66313
1.43358
-0.708143
-3.53893
0.281394
0.586892
-0.855534
2.72691
-0.0481373
-0.962405
1.34533
-1.71992
-8.13775
0.200837
0.149012
1.14195
2.80167
0.00183443
-0.555189
-5.00533
0.0928008
0.0521989
0.593611
-0.165489
1.80965
1.31486
1.46583
-5.0675
-0.27531
-0.0869301
0.849003
1.3909
0.834705
1.45157
2.5646
2.34716
-1.70571
1.34888
1.72264
-0.933142
1.60137
-0.188959
2.30598
1.57116
0.35331
1.63167
0.991564
0.228381
-0.139475
1.56789
-1.68917
0.771745
-0.483536
-0.195766
0.090987
1.19596
-0.166769
0.34084
2.18162
2.16675
0.190783
-2.44957
0.276311
-2.4102
-0.487141
1.38657
1.82906
-2.44078
1.41011
0.780106
0.377914
0.856714
-6.91879
-4.82937
-0.198991
2.70373
-0.194508
-0.0351447
1.75236
0.0799305
-0.305445
0.976926
0.26636
1.26541
-1.1244
-1.36856
0.52576
0.2644
-0.0721781
0.148706
2.44292
1.89763
1.26537
2.17864
2.09534
-0.0806027
-0.201811
0.161687
-0.793026
2.17965
-5.40243
1.05343
0.658449
-5.01791
-0.0918701
1.365
-9.36383
0.390648
1.23438
2.83268
-3.71948
0.371894
0.235188
1.01496
-0.0173429
-6.0331
2.1109
1.55953
0.815959
1.24812
-2.03572
-0.881215
-4.02627
2.34156
-0.140328
2.66138
-3.17005
0.585016
-2.79799
-0.67634
-2.6805
0.442344
-0.229431
0.792776
0.0724677
0.772901
-6.30698
-0.00034992
-4.13968
-2.45034
-1.09421
-1.72892
0.0680633
-0.374788
-4.21671
-4.88785
0.743563
0.797884
2.09671
1.41917
0.282566
0.353495
3.09767
1.01826
-3.70023
-0.00443714
0.202253
1.27795
0.797535
1.81522
-1.05318
-1.10346
0.143812
0.000602257
0.289365
1.8609
-2.46836
-4.74748
-3.98936
2.38037
-5.55593
0.608567
1.58016
-3.44313
0.417252
-0.151943
-3.71306
-3.76791
-0.225237
1.17888
1.20462
1.55394
-1.67699
-2.49628
-0.271259
-3.82239
-1.87748
-0.8543
0.400756
-2.96506
-0.00604546
-6.25832
-3.73054
-3.70485
1.96873
-4.77823
2.36079
-4.51999
-0.833276
0.179125
0.384282
1.70931
0.589263
1.84536
0.100482
-2.29877
-3.69003
1.54683
-2.42887
1.21646
-0.153441
1.93965
1.77997
-0.156145
1.26238
2.17424
1.02458
1.32981
-1.80909
-2.2148
0.275189
-2.22108
-0.21066
-0.136762
-0.145463
-0.00629658
-3.75464
0.274105
-0.505587
0.351497
-0.00368509
-1.26501
2.29646
0.0720949
-0.0018621
0.223563
1.41572
-6.51946
-0.000531038
1.05536
-0.289888
-0.0756642
-0.0145866
0.790693
1.41612
1.38713
-0.0243849
1.43176
1.61197
1.17056
-1.569
-0.0748841
0.675765
0.694999
-1.01673
-3.54237
-9.42027
-1.31783
-5.12854
0.0323216
-0.217671
-0.139287
-2.49601
-0.803946
-7.14038
-0.391185
-3.34382
0.82394
-3.90415
1.47837
3.0769
0.827549
-3.77212
0.940795
0.521096
0.277263
0.00505174
-1.80553
-12.7353
0.11456
1.54556
0.00229991
2.10218
0.0133291
1.38516
0.357537
0.305047
-3.01673
-0.555885
2.64509
-4.20401
1.44414
1.39859
1.80351
0.117763
1.55196
0.835686
-2.70274
1.01183
-3.70845
-3.83341
1.59073
1.34391
-1.63736
0.533003
1.74456
-2.15625
-10.776
-0.122251
-0.0427423
1.35353
1.01573
1.54549
0.549453
0.82295
-2.09918
-1.14702
-1.59598
1.5344
2.63794
-2.03159
-3.48806
-3.05426
0.64469
0.078132
0.0889366
-0.877771
0.479211
0.404916
-3.70498
0.232296
2.5361
0.918383
0.514414
-4.20414
-5.66015
-2.93027
-3.44887
-3.49101
-5.01054
1.77503
1.01398
-1.46296
2.47732
-0.0051061
-3.77802
-3.67496
-3.80297
1.02862
-2.44365
0.772423
0.855765
0.00254347
-1.54566
-1.1907
-3.67641
-6.70592
1.62169
-6.74133
-0.171633
-3.98062
1.40064
1.34467
-5.64319
1.59167
1.30522
1.93924
2.1585
1.04754
0.238561
2.72569
-4.04709
0.698228
-1.20866
-9.02626
1.81672
-8.45135
2.24509
0.948462
-1.13094
-3.71287
-3.33173
1.56254
-9.86779
-5.7138
0.0557861
-0.395021
0.49982
1.10819
0.542066
0.263488
2.37815
-2.49939
-3.85809
0.00415047
0.745718
1.32693
-3.7737
3.04372
-0.190081
-0.59418
1.25788
-0.935134
1.40075
0.94416
1.25139
1.05306
0.575429
-0.0467624
0.967606
0.258034
-3.79842
-0.0236698
0.93893
1.39055
1.60341
-3.93921
-0.026217
-0.754315
1.09032
0.424128
-8.12893
1.34294
-5.50152
1.33534
1.47268
-3.63831
2.04234
-9.11906
2.60826
1.12291
-7.81742
0.00246538
-0.198906
1.04352
1.54856
-9.00455
1.61265
1.45078
-0.624891
-0.0243035
0.237484
0.135799
-0.664298
-3.82926
-0.207847
-6.34822
1.40377
-3.67501
-2.6198
-1.58767
1.72834
1.69891
1.17377
-3.71537
0.968318
-0.360202
0.0503472
1.03733
-4.01643
-3.85048
2.33135
-0.259929
-0.0915
-1.66028
-3.68734
-3.43901
1.47178
-3.74935
-0.987755
1.5531
0.178381
1.40423
-5.20878
0.374109
2.4811
-2.09019
1.5246
0.26811
-3.39278
0.779231
0.264443
-0.170911
2.50508
1.19709
0.153807
2.54656
1.52149
1.77231
-3.84254
-3.65486
-0.360598
-1.23698
-2.95909
-1.82925
-1.00179
-1.81025
0.536819
0.354979
-0.109327
0.163643
-3.46911
0.0129523
1.59572
-3.6013
0.754916
1.11358
1.41819
-0.36057
-0.0664265
-5.73543
-3.53286
-5.37171
-1.12859
1.59146
-8.66901
1.93212
-4.82443
1.4041
-0.341946
-0.210293
-1.23274
1.15838
0.974016
0.631254
0.721696
0.620699
0.418992
1.74081
1.90055
-4.20098
-3.18217
-2.26161
1.39059
0.369507
-0.962115
-1.65298
0.314893
-0.484824
-0.0466101
0.784368
0.214924
0.572045
0.972655
0.331329
-0.162315
-10.5443
1.8329
-5.57248
1.19339
0.00115714
1.33748
1.22405
1.05711
0.800585
-1.90728
-6.50316
-0.18907
-3.32395
-8.52385
-8.37288
0.363836
-4.04399
1.31445
0.243983
1.41158
-2.39853
0.36156
-1.66425
-0.184072
1.19667
-3.75655
1.00113
0.287344
-12.6902
-3.00146
-5.76711
0.630437
1.51171
-0.163488
0.254526
-2.87922
1.08426
-0.717707
0.259216
-4.4926
1.58306
0.412514
-0.038518
1.37099
0.972511
1.39319
0.879911
1.93697
-2.19641
-0.262322
-1.74112
0.54872
1.12294
0.298638
-1.90164
-6.75151
-6.59465
0.00456533
-0.0593718
-7.89422
2.51252
-1.98859
1.26857
0.560866
-6.29314
-0.219412
-0.087223
-0.253757
0.486679
0.232536
1.42353
-0.201525
1.40061
-1.72485
-1.09293
-3.78967
0.0323541
-6.99502
1.26119
2.45683
1.4301
-0.54642
-1.66636
1.25711
-3.72015
-0.965783
-0.0383459
-0.462719
-5.43766
-7.72992
-7.88347
-1.41196
0.713335
0.629766
-1.52784
0.286914
1.55553
-0.87755
-1.49665
1.55534
-0.210733
-4.31849
-0.0197336
-0.0181691
0.00201045
2.49557
-0.0448226
0.678515
-0.931505
-0.557798
-0.839951
0.888387
0.0593535
0.453346
-0.580232
-1.26103
-0.0808851
-0.599842
1.64589
0.81023
0.577921
-1.61699
-1.08485
2.53883
-3.93693
1.22573
1.25832
0.42448
-0.265419
0.392407
-3.20779
0.0591959
1.37098
1.1189
1.0019
-9.0052
1.55701
0.499143
2.05592
-0.448465
1.39522
1.68606
1.33816
0.319709
-4.40467
0.757659
-3.78029
0.266751
0.940589
1.39796
0.425895
1.93363
0.24768
2.12359
0.309823
1.33051
0.164801
0.589896
-2.6122
1.39503
0.320835
0.930526
2.40271
1.44329
0.325694
-1.06661
0.465332
1.39203
-0.182091
-3.29735
0.666049
-0.0640754
1.6666
-5.53976
1.99876
0.668251
3.13657
2.22772
-0.0344277
-0.32838
-3.00601
0.384818
2.29995
0.0502924
0.240083
-0.388751
2.64492
1.02868
0.66225
2.37501
-0.624525
1.35091
-0.939994
1.22587
-0.376601
1.00097
1.13994
1.58154
-0.214039
-3.50462
0.315631
-5.5504
0.276598
-1.92638
-0.025486
2.02848
1.86502
-0.00244181
-1.10254
-0.815629
1.40338
0.756207
0.789527
1.10183
-1.1441
-3.35632
-5.00365
1.4678
-1.73379
-1.40819
0.721923
0.253064
0.398213
-1.02315
2.54778
-4.12498
1.93302
-1.34431
2.48713
-1.87095
0.270372
-0.251584
-0.0836938
0.812639
1.40105
0.308405
-1.05659
0.325505
-1.78758
1.73468
-0.0126723
0.304716
-4.1886
-0.487323
-1.32846
1.23874
-0.466359
-0.217085
-0.15725
1.41261
2.65653
-5.63767
-0.0876272
0.793298
-0.585783
0.986097
-0.145916
-0.114584
-0.744757
-3.67191
0.324228
-5.54344
-0.624524
0.0535573
-2.03974
-11.6058
0.399507
1.25539
1.25379
1.33336
2.53038
-4.81969
2.60844
-2.9543
2.42211
-9.61587
-0.786399
2.40255
0.886685
-8.46929
0.666659
-0.22106
0.905463
-4.03327
-3.90135
0.236822
-1.52302
-2.11169
-0.00374763
-0.516456
0.856731
1.25373
-11.1866
0.907498
-1.67979
0.324678
-4.1724
-0.177247
0.743326
-3.61809
-1.32335
2.16664
-0.123007
2.29819
0.359072
-3.73857
0.830565
-0.677965
-0.27211
1.32347
1.51661
2.71319
1.2551
1.4223
-0.411978
-2.4804
2.62286
2.67275
1.56734
-0.486545
-8.49679
-3.75238
0.819116
-0.00171003
0.197705
1.54942
-4.29091
-0.157117
-3.53661
2.37573
0.558295
0.467813
-6.37323
0.659096
0.920156
2.9877
2.79618
0.883665
0.642839
-0.220821
-2.54831
0.958963
2.86057
-0.686607
-0.265112
0.168365
0.00013324
0.288438
0.0742907
-0.139752
0.251725
0.350087
0.422151
-0.10938
0.765781
1.73691
-1.44598
1.2527
-7.01775
-0.246743
2.27457
-3.3798
0.442364
-1.40015
0.919232
0.732211
-5.53496
-1.71417
-0.205719
0.417596
3.04809
-2.89218
-1.63373
-8.87273
-0.312967
-1.38989
-1.44459
-5.39334
-1.87365
-0.0412613
-1.89203
-0.604283
-2.0882
0.717442
-0.0496991
0.429192
2.95429
0.49436
0.316122
-0.64011
0.580862
-2.41751
-1.18893
2.0475
1.26743
0.320124
-0.27328
1.05893
1.32109
-0.623323
-7.34609
-0.0583271
2.059
-1.05913
1.38113
0.348845
2.01744
0.230602
-7.77083
0.537481
1.44855
-1.19097
1.37997
-0.62222
2.75589
-5.52073
-0.0489137
-3.83203
1.02473
-6.11028
-0.943719
-5.8177
0.167845
-0.952044
-9.9767
-3.88596
-0.34804
0.389993
-4.36264
-0.633366
0.780024
-3.92446
0.669001
-6.20503
1.44823
2.56865
0.592518
-2.4207
0.797367
0.122134
0.417151
-0.397505
-0.304553
-3.75813
0.014535
-1.85443
-0.983931
0.347068
-0.270038
-3.07963
-2.68734
0.449645
1.43492
-0.588376
-5.80228
-0.104113
-0.103057
-0.53342
0.240802
-1.69343
-6.06468
1.61309
-2.72787
-0.559418
-1.64845
-2.91662
-3.88753
-4.97753
3.06964
0.200855
-1.46187
0.895531
2.49017
2.28118
-8.67662
-0.956836
1.39801
-0.154038
0.0258238
2.5255
0.428662
0.326326
3.07948
0.0376915
-1.3082
0.534649
2.1011
1.44509
0.811504
1.98481
1.19408
-0.107267
-0.0859665
0.938919
0.300857
-3.22108
2.45632
0.0561413
-0.218951
-0.0994925
-3.63257
0.206642
-6.60075
-1.11558
0.330895
0.946879
1.53702
1.04775
-3.7364
2.17106
2.36649
-1.67891
0.519196
-0.30741
-0.00837214
0.396603
1.0933
-3.71148
-0.876279
-0.059171
2.68031
-3.70147
1.18501
1.25422
1.44573
0.144948
0.697013
-0.780492
-0.0662579
-0.510157
-0.2358
-3.73543
-1.56517
-0.0559921
-5.27185
1.48098
-10.0453
-0.167545
0.650371
-2.42996
-6.84715
-3.82545
0.92597
-0.916905
0.0107717
0.951506
-8.4422
0.237332
-1.39748
-0.298042
1.39109
-3.73542
2.56365
-0.0813806
2.79391
0.000280257
-0.0214115
0.156754
1.34669
0.630605
-2.2388
-0.423946
0.160027
0.157114
0.278587
3.11273
1.45451
-0.21986
-0.992888
0.0021267
0.3999
1.04572
-0.606481
1.10319
-5.31556
-6.05222
-2.39786
-1.21648
-0.0912396
-2.45741
1.13877
0.510185
2.26947
2.65667
-3.49836
-3.74264
0.332096
-0.842134
2.36821
-1.40215
-0.0293613
0.90105
1.20922
-6.05184
-0.862935
0.2315
-0.215982
0.468732
-4.85816
-1.21147
0.171342
-0.626621
-1.91476
0.0312468
-1.98488
-1.73245
1.05251
-9.6669
-7.28682
-1.33511
0.626983
2.74863
-0.0563566
1.38493
-2.30085
0.259493
0.234792
-0.097217
0.739441
-5.50674
-3.69601
2.35012
1.36391
0.318993
-2.38006
2.89082
-6.67239
-3.58965
-5.03408
-0.308956
-6.28405
-5.77341
2.05375
0.254255
0.712488
0.860624
-5.03781
0.684907
0.0365579
0.441288
-2.17571
0.347851
0.78928
1
-5.84502
-3.39156
-1.55397
-1.77821
-1.01319
-0.944304
2.7393
1.15768
-7.89817
-0.40094
0.660591
2.1906
0.0615301
-3.51
-0.193281
1.75391
0.871495
-1.61479
1.38261
-1.10021
2.3189
-0.0843411
1.51993
-3.89057
-1.443
-0.114757
-5.84239
-0.373597
0.790719
-3.28982
-6.41051
1.29199
-1.29461
0.17797
1.85125
1.26582
1.79327
1.38184
-1.2963
0.00419766
0.374351
0.868471
-0.00069764
1.32802
0.0945383
2.33976
-5.35677
1.73553
-0.762699
2.53966
-4.90039
-0.555584
2.49356
-5.62072
0.000180339
-3.6704
1.87438
2.44421
1.43399
-1.50874
1.41648
1.53241
-3.90546
0.979741
-8.06811
1.6895
-5.97565
-3.64351
-3.83742
-3.97199
1.50022
-0.662969
-3.97843
0.297119
2.41115
-0.149909
0.218316
-4.08741
-0.85705
0.214091
-0.691827
1.39236
0.875681
-3.87591
2.81022
-0.26814
2.09186
1.66618
-0.10908
-0.0523167
0.587569
-1.50073
-0.992048
0.457657
0.312251
-0.0954034
0.858913
-4.76009
2.4445
1.58497
0.186436
-2.52574
0.930884
-3.78277
1.16653
1.47695
0.252162
-0.0652855
1.45508
1.02601
-0.872086
-2.472
0.0751746
1.10822
2.3249
-2.80527
2.52644
2.78912
2.6103
-1.27845
1.46933
-4.12694
1.38836
1.49454
1.79233
1.10703
1.81943
2.96991
1.3748
-3.04599
-2.08253
-3.75668
2.95183
0.347417
-1.45336
-5.67989
1.53624
2.19622
1.05489
0.196155
-0.386836
2.05192
-1.69
0.939054
-5.94669
0.926743
-0.164685
-1.38254
0.472161
-4.41427
-5.00546
-3.85991
-1.6359
-0.023204
1.43858
0.129186
0.185287
0.888701
-2.34071
-0.392498
-0.112319
-2.31621
-3.82117
-3.30213
1.73527
2.09821
-6.39781
1.13913
1.68058
1.96322
-0.00100678
-13.686
1.10011
-2.97851
1.83589
-2.50454
1.77856
1.18472
0.534775
1.72275
0.592316
1.57019
0.2181
0.942439
-1.16273
-2.43602
-2.94384
-0.157531
1.53507
-10.5486
-7.30043
-9.44562
2.27298
1.48612
0.870722
0.3468
1.98669
-1.66872
0.87056
0.0802429
-1.10536
0.887828
-8.10185
-3.69781
-0.86452
-3.67551
-1.06717
-8.404
0.0531176
-3.82714
-2.45875
0.613888
2.45116
2.73239
2.25195
-11.3684
0.958031
-3.96218
0.897052
2.12922
0.571682
1.50447
-8.32534
0.255256
-1.25166
0.225988
1.69201
-0.421463
1.13191
-3.70998
0.0171566
-3.87229
1.50726
1.13299
1.41407
-3.6781
0.901716
-4.08288
-4.08032
-4.13135
0.221333
2.38814
-2.06536
-2.07621
-6.25114
1.14311
1.3954
-0.256231
1.10884
-3.62839
2.02975
2.16684
-6.54271
0.0686045
1.82289
-8.68935
-5.40523
0.337412
1.72132
1.91164
-3.96668
-0.060177
0.265706
2.41432
-3.74524
-9.17231
0.194225
2.125
0.316828
-1.21239
-1.8317
1.58748
1.26816
1.65139
0.152048
-1.8402
1.12696
2.90183
-2.47765
0.382807
0.279421
-3.58391
0.311645
0.286064
-5.60843
-0.134107
-4.69605
1.13998
-4.33616
-2.38687
1.47495
1.83332
0.911308
-1.40342
-8.02961
1.05356
-3.65736
-0.610887
-0.962526
0.301184
-3.44129
1.68118
1.09558
0.28092
0.881286
2.25319
-3.00413
0.210935
1.46807
-4.0986
1.13647
-0.267798
0.235073
-0.952073
1.28743
-1.35758e-05
0.270403
-0.769739
-1.68421
1.62557
-0.840746
0.588326
-9.66714
-0.976836
1.39545
-3.62128
2.58757
-3.7208
-3.81737
-3.05062
1.73557
1.09316
1.48177
-3.64907
2.11116
-6.47039
0.0860554
0.146549
-1.39879
1.40412
0.321358
-0.851496
0.249125
-3.65923
1.2839
-3.65767
-9.03772
0.0057278
-2.59776
-2.16778
0.506741
2.25179
0.0305225
-4.1207
1.46647
-1.7325
1.9075
-0.898045
0.364672
1.22611
1.44913
0.318885
-2.73504
-1.18507
0.280934
0.715768
0.866843
-1.8262
-6.71415
-0.238133
-0.48466
0.390182
3.0015
0.969804
1.36642
1.89952
0.60213
1.54024
-7.17516
-3.31925
-10.5094
1.41008
2.90483
0.917252
-0.623228
1.66594
0.493896
0.579148
-0.0122319
0.294072
0.428979
2.59407
-2.02921
-2.23852
2.30074
1.69718
0.790289
1.0502
1.44165
0.624441
-3.8738
-10.6221
1.11921
-2.69134
-2.41063
1.25023
-11.189
-2.62677
-1.13734
0.903718
0.969306
1.10967
0.31382
1.50753
1.55049
0.32131
1.18954
0.972154
1.65277
1.41354
-0.229566
0.281427
-0.267976
1.66536
1.13271
0.56249
0.510211
0.290375
-0.186723
2.2397
1.28209
0.0013225
-5.00929
0.496264
1.33203
0.0791099
0.789733
-0.168041
0.167099
-7.59445
0.244708
-5.47389
0.0412991
-0.07254
-2.14347
-4.13254
-3.67161
1.96801
-5.56154
-3.23787
-6.41824
2.31126
-4.11685
0.355149
0.661494
-4.01336
1.43594
1.38613
-0.108407
1.76619
0.733693
0.337295
-3.61738
-5.28056
-0.00432389
1.74346
0.657113
-3.91115
-3.65512
-4.87778
-3.46493
-6.46568
-1.64131
-0.691095
0.829947
1.4018
1.39244
-3.90657
0.0449106
1.80313
1.34609
-3.99546
0.33051
-3.74387
0.14572
0.165165
0.450143
1.31689
-0.950711
-4.72774
-6.17073
0.741243
-8.26009
-3.41653
0.0607766
-13.1077
-3.46815
-3.98501
-6.12738
0.0528159
-3.6827
0.317918
-3.83783
1.43439
1.35301
0.00314619
1.7694
-8.43086
2.22375
-2.18918
0.396745
-0.768361
1.06462
0.498172
-2.46094
-3.5464
1.47101
1.77734
2.36152
-4.75131
-3.23195
-10.2231
-0.621227
0.00293225
-3.68756
-0.916723
-3.74707
0.486797
-3.9738
0.0114698
-1.49031
-0.335873
2.05423
0.736782
-0.305955
-0.114852
-1.27879
-2.9518
2.0085
2.71283
-3.10317
1.21321
1.02195
-0.00187544
-3.89739
1.71233
1.75774
-1.56216
-3.40904
-10.6116
-9.61785
-0.663731
-3.6648
-0.487717
1.25229
0.139926
1.60105
-3.74107
-3.94994
1.40874
-0.548762
-3.89738
0.440657
1.39767
-4.0281
-0.234605
-3.91115
-3.7301
-3.78879
2.40876
-3.49753
0.109662
-4.29479
1.31295
-4.02194
-0.888165
-1.74582
-4.73872
-1.14664
1.1881
-0.0134199
-3.70277
0.844962
0.0121849
-6.70761
-1.69773
-3.62524
0.0938491
0.478736
1.37782
-3.2164
1.84553
-5.73655
0.00152874
-0.0998948
-1.64286
-10.3158
-3.65074
-6.15987
0.365363
0.889434
0.000440139
0.108589
-1.57408
0.727208
-6.12382
1.50359
-3.23429
1.11379
-1.10904
-2.69406
0.456683
3.07132
-3.66299
-4.11181
-2.28152
-2.10783
1.4153
-0.0774869
0.514354
-0.941548
-3.19337
-4.74502
-2.49995
-3.71626
0.882827
-3.57188
0.496328
-3.72272
0.229622
0.855786
-0.125197
-0.481097
-0.351077
1.44167
-3.71333
-7.37686
1.63559
0.172135
-3.90247
0.0798212
-2.5392
-1.61978
-0.0549958
1.48455
-8.8507
0.942463
-3.06285
-2.61594
-3.71075
-3.3045
-3.55512
-0.416852
-2.72642
1.31711
0.902049
-5.72517
0.455256
-10.0847
1.7559
1.81601
-4.07512
0.54402
1.28007
1.42327
0.125601
-7.20148
-3.82099
-3.09631
1.40761
0.723083
-2.3587
-2.20045
-0.160569
1.75787
0.16042
0.442069
0.423898
1.63251
-1.11439
-1.2132
-0.166675
1.32545
0.607773
0.343123
1.87006
1.67878
-0.0287737
-10.3305
1.43041
0.998277
0.280317
0.440114
-2.40256
-5.24726
-2.75676
-9.13051
1.7467
0.852732
-0.472223
-1.01915
0.327433
-1.63434
1.02694
-11.3436
-0.0210351
1.4721
1.66314
-6.98595
1.25136
0.491287
0.926142
1.0931
0.251952
1.14336
-0.0038924
1.43899
1.16098
1.42017
-4.57039
1.62644
1.40724
1.35609
1.21879
-7.80081
0.206475
-0.273323
-1.55049
1.51759
2.15496
-13.8505
2.08276
-7.96754
-2.57689
1.09311
1.3104
-1.83916
0.189146
-3.30579
-11.9545
-0.46057
-7.1477
-1.98237
0.0646364
0.806876
2.742
1.29685
-4.69768
-5.46057
0.943281
1.00669
-3.86505
-5.78701
-8.43888
-1.14916
-2.5926
-2.43314
1.39345
0.256762
0.997973
-0.0501884
-0.0393145
0.0932138
-0.0243608
0.355041
-0.252708
1.37667
-2.03838
-0.849963
-1.15118
-6.94327
0.530846
1.03818
-0.354617
-0.930321
1.24518
-0.208748
0.904519
-1.43539
1.32199
0.776069
2.09126
1.37875
-7.93709
0.0250509
-1.06337
-7.93636
-0.161899
-0.174899
-0.884731
-13.6303
2.80299
0.00470944
-0.600307
1.82801
-6.0077
-0.330285
-4.00411
-4.76131
-3.55659
-1.14884
-0.946395
0.679542
-1.45029
-8.12733
0.520802
-8.64686
-1.02228
-3.50203
0.0630692
1.2835
-5.58281
-6.91071
-1.04096
0.304445
-1.86114
1.36234
1.90037
-8.21861
1.39487
0.102598
1.20854
2.31437
-5.56928
1.12648
0.441615
0.934929
1.70449
0.152437
-0.617763
-3.18572
1.27866
1.89693
-10.0478
0.0367726
-2.99517
-2.05087
1.01604
-7.98253
-1.61953
-9.48173
0.907913
-2.82717
0.267016
0.260435
1.36643
0.234824
-2.96611
0.133367
-0.168827
-1.42054
2.12527
2.55915
1.52114
2.89075
1.4766
1.43253
0.972643
0.606637
1.61451
-4.31859
1.06482
0.0144987
-2.5553
1.94519
-0.79265
-1.50659
2.49982
0.37821
-7.38165
1.02199
0.931737
1.66603
-1.69541
1.41065
2.43205
-5.76163
-2.59366
-1.4123
0.600567
-3.82647
1.38732
0.149762
1.72688
1.39268
-6.71846
1.3181
-0.704063
-3.4555
-3.2264
-11.105
1.19746
-2.27632
1.47138
-0.239677
-3.67478
0.0656907
-0.318696
-0.596087
-9.60008
-3.61534
1.32228
0.60702
-3.84347
-0.118043
1.22729
0.295542
-13.2153
1.01157
-0.0849202
0.985042
-4.08283
1.18279
0.703943
-0.445929
-0.419289
1.03342