/*--------------------------------*- C++ -*----------------------------------*\
| =========                 |                                                 |
| \\      /  F ield         | OpenFOAM: The Open Source CFD Toolbox           |
|  \\    /   O peration     | Version:  2306                                  |
|   \\  /    A nd           | Website:  www.openfoam.com                      |
|    \\/     M anipulation  |                                                 |
\*---------------------------------------------------------------------------*/
FoamFile
{
    version     2.0;
    format      ascii;
    arch        "LSB;label=32;scalar=64";
    class       surfaceScalarField;
    location    "8.6";
    object      phi;
}
// * * * * * * * * * * * * * * * * * * * * * * * * * * * * * * * * * * * * * //

dimensions      [0 3 -1 0 0 0 0];

oriented        oriented;

internalField   nonuniform List<scalar> 
20045
(
0.256383
-0.284754
0.0283711
-0.54201
0.203359
0.338651
0.193713
1.02132
-1.21504
-0.225012
0.302761
-0.0777496
-0.46417
0.412066
0.0521036
-0.312241
1.12671
-0.81447
-0.46922
0.12477
0.34445
0.0276611
0.236259
-0.26392
0.255749
0.2107
-0.466449
-0.395087
-0.0581917
0.453279
-0.23231
-0.139731
0.37204
1.103
-0.527557
-0.57544
0.189489
-0.189071
-0.000418442
-0.615809
0.53708
0.0787294
-0.103803
0.487657
-0.383855
-0.527929
0.132842
0.0170126
-0.114983
0.09797
0.131011
-0.235342
0.104331
-0.800191
1.18241
-0.38222
-0.381637
0.0153288
0.366308
-0.391788
0.321751
0.0700374
0.0657328
0.123756
-0.0804509
-0.461559
0.758499
0.450086
-1.20858
0.407164
0.0975825
-0.504746
-0.510965
1.26946
0.0386944
-0.0433967
0.00470235
-0.746834
1.41103
-0.664194
0.811359
0.173211
-0.98457
-1.46478
0.799063
0.665713
-0.130163
0.37585
-0.245686
0.65055
-0.494261
-0.156289
-0.266702
0.831145
-0.564443
1.32811
-0.760824
-0.567286
-0.300679
0.32834
0.981267
-0.471198
-0.510069
0.563611
0.112239
-0.67585
-0.0310234
0.194673
-0.16365
-1.04482
0.516566
0.528252
0.305515
0.274013
-0.579527
-0.00358161
0.259135
-0.255553
0.0692311
-0.0995574
0.0303262
1.06343
-1.06468
0.00124929
0.729629
-0.265974
-0.463655
0.335688
0.393941
0.495408
0.60759
-0.0699227
-0.0917232
0.161646
0.663564
0.215883
-0.879447
0.73889
-0.175279
0.116428
0.984975
-1.1014
0.656981
-1.09958
0.442604
0.942969
-0.668058
-0.274911
-0.577555
-0.393864
0.97142
-0.0492297
-0.158001
0.207231
0.318147
-0.28967
-0.0284776
-0.353143
-0.111027
-0.192191
1.14521
-0.953022
0.801198
0.115806
-0.917003
0.71403
-0.980732
0.725468
-0.600829
-0.124639
-0.284426
-0.13357
0.417996
0.212687
0.512781
0.18625
-0.82506
0.63881
-0.261168
-0.13062
0.713185
-0.109543
-0.603643
0.612543
0.120848
-0.733391
0.089885
-0.292024
0.202139
-0.338214
0.0682658
0.269948
0.445445
-0.189696
0.752757
-0.766136
0.0133797
0.225817
-0.135932
0.187359
0.130788
-0.130242
-0.538727
0.668969
0.0678573
-0.0963026
0.0284453
0.63535
-0.0904904
-0.544859
0.812915
-1.00511
-0.0222897
0.657639
0.267012
-0.370815
0.159157
-0.0440195
-0.115138
0.100133
-0.626731
0.526598
0.512203
0.568584
-1.08079
0.44575
-0.360006
-0.0857446
0.606455
-0.420205
-1.33451
0.221972
1.11253
0.00438662
0.251996
-0.241858
0.286734
-0.0448759
0.274887
-0.645338
0.37045
-0.798831
0.0282036
0.770627
0.507694
0.0941152
-0.601809
-0.413186
0.370442
0.0427441
-0.656771
-0.0843265
0.741097
0.394137
-0.0862283
-0.307909
0.209301
-0.304119
0.0948183
-0.0951086
-0.40469
0.499799
0.307018
-0.331495
0.0244766
0.76959
0.139135
-0.908725
0.0432069
-0.00451251
-0.028198
0.301884
-0.273686
0.631543
-0.326028
0.0443906
-0.13785
0.0934593
0.665241
0.316026
-0.216572
-0.399237
0.342474
-0.370672
-0.198639
0.999836
0.0105198
-0.252378
0.145713
-0.101323
0.221025
0.613906
-0.834932
0.536725
-0.966542
0.429816
0.0892347
-0.23216
0.19991
0.0322508
-0.1094
0.140265
-0.0308651
0.536841
-0.44927
-0.0875717
-0.260243
0.211014
0.637855
-1.31978
0.681928
-0.0984518
0.168003
-0.0695515
0.0237695
-0.134851
0.111081
0.563045
-0.155882
0.917462
0.410648
-0.603772
0.47353
0.588781
-0.828149
0.239368
0.224927
-0.0939163
-0.400759
0.116333
-0.409188
0.329227
0.0799606
-0.508093
0.0565013
-0.311576
0.255075
0.642722
0.300248
0.548428
-0.733428
0.185001
0.807592
0.0915026
-0.899094
-1.00743
0.718264
0.28917
0.0499292
-0.831249
0.78132
0.977536
-0.334814
0.157293
-0.249016
0.0930928
-0.0295187
-0.0635741
-0.0365187
0.0279366
0.00858207
0.573597
0.398253
-0.97185
0.599761
-0.566184
-0.0335768
-0.163784
0.0835366
0.0802469
-0.167767
-0.0643931
0.938877
-0.350096
-0.348392
0.361157
-0.0127647
0.596505
-1.18404
0.587535
0.151494
-0.72905
0.513578
0.228192
-0.74177
0.723974
-0.623841
0.958073
-0.135649
-0.822424
0.552678
-0.728126
0.175449
0.97783
-0.637219
-0.340611
-0.12916
0.209252
-0.0800923
-0.0670375
1.13722
-1.07018
1.06872
-0.257365
-0.823088
0.0232456
0.799842
-0.501988
0.384878
0.11711
0.968305
-0.456102
0.152388
0.293363
-0.626992
0.768913
-0.141921
-0.89105
1.08476
0.00798973
-0.178811
0.170821
-0.121371
0.0432776
0.0780933
-0.0202022
-0.195474
0.215676
0.638571
0.178482
-0.817053
1.403
-0.70721
-0.695787
-0.234494
0.214292
0.32042
-0.612233
0.291813
0.0817311
-0.0125
-0.866697
-0.445045
0.66599
-0.220945
-0.652755
0.471348
0.181406
-0.0104753
-0.0339897
0.0444651
0.447259
0.53057
-0.0165801
-0.0199386
-0.00865402
0.101747
-0.700112
0.0731191
-0.739275
0.929629
-0.190354
-0.675456
0.743532
-0.0680756
-0.547443
-0.436901
0.984344
0.0346051
0.381217
-0.415822
0.435815
-0.44568
0.00986482
1.05169
-0.0392924
-1.0124
0.00679121
-0.760817
0.754026
-0.360166
0.873745
0.193883
-0.563805
0.369922
-0.623387
1.26124
-0.794975
0.547026
0.247949
0.0170252
-0.00975039
-0.0072748
0.524218
-1.25328
0.729061
-1.10483
0.357998
-0.574705
-0.479528
1.34004
-0.786706
-0.553331
-0.32004
0.316458
0.134913
-0.14293
0.00801695
-0.619766
-0.148639
0.768405
-0.963669
1.35154
-0.38787
0.984489
-0.750665
-0.233824
0.0592005
-0.230457
0.171256
-0.342019
-0.48504
0.827059
0.13176
-0.36407
-0.664228
0.714157
-0.725114
-0.227707
0.952821
0.0954656
0.025894
-0.12136
0.148423
-0.593468
-0.343371
0.213208
0.865956
-0.0583647
-0.147839
0.116816
-0.156189
0.196335
-0.0401463
-0.324868
0.963439
-0.895682
0.553663
-0.147743
0.139382
0.00836179
-0.721863
0.143553
0.57831
0.287592
0.696897
1.32312
-0.798906
0.845251
-1.48816
0.642904
0.539757
-1.43371
0.893955
0.0408238
-0.422461
-0.497274
0.7183
0.64844
-0.960681
0.592058
-0.98039
0.388332
-1.56928
0.894271
0.675007
-0.0272782
-0.385908
0.186607
0.149257
-0.335865
0.719379
-0.259367
-0.460012
-0.120837
-0.792306
0.725269
-0.263012
-0.0853806
0.677882
1.03812
-0.816274
-0.221844
-0.0109886
-0.132874
0.143863
0.654982
0.137018
-0.791999
-0.0658038
-0.34718
0.412984
-0.329188
0.875943
-0.546755
-0.452082
0.726969
0.58572
-0.391836
-0.0873792
0.327735
-0.240356
1.0096
-0.413092
0.0956253
-0.00816836
-0.0874569
-0.250742
-0.166723
0.417465
-0.110311
0.114577
-0.00426602
1.32744
-0.80516
-0.522276
0.250798
-1.21447
-0.120706
0.0103952
-0.849515
0.256559
0.592955
1.38184
-0.550695
0.238785
-0.978061
1.5099
-0.631232
-0.878672
-0.0127043
0.10817
0.911299
-0.519929
-0.39137
-0.614659
0.129227
0.485432
-0.918937
0.915726
0.00321113
0.518312
-1.22307
0.704757
0.0361874
-0.0240143
-0.0121732
-0.464945
0.617384
-0.152439
0.0190339
0.31818
-0.337214
-0.153415
0.0549628
-0.127941
0.0185413
-0.568944
-0.397598
0.401856
-0.917407
0.51555
-0.440166
0.43747
0.0026967
0.401145
0.249405
0.917556
-0.325498
-0.193074
0.0717034
0.669026
0.712814
-0.503546
0.0291661
0.47438
0.422347
0.488952
0.392828
0.094829
-0.472775
0.0326088
-0.295501
-0.0418958
0.337397
0.01895
-0.00192477
-0.928033
0.598845
0.192119
-0.412126
0.220007
-0.94447
0.914279
0.0301915
-0.347793
0.428369
-0.0805758
-0.194623
-0.117152
0.311775
0.762772
-0.836564
0.0737912
-0.937438
-0.631841
1.24886
-0.787368
-0.461489
-0.0981046
0.087116
1.30656
-0.788243
-0.533985
0.935841
-0.666406
0.200582
0.465824
0.932325
-0.257809
-0.674516
1.0907
-0.302837
-0.787859
-0.511857
-0.154549
0.85163
-0.509846
-0.341784
-0.172963
0.796116
-0.623153
0.0846437
-0.78432
0.699676
0.155347
0.236298
-0.391645
-0.0900728
-0.0232133
0.113286
1.29305
-1.11672
-0.176326
-0.526607
-0.480827
0.670306
0.367812
-0.866474
-0.0779964
0.13738
-0.388122
0.358935
-0.774167
0.415232
0.0034523
0.131461
-0.537168
1.11077
0.55367
0.773766
1.46346
-0.858785
-0.604678
-0.80951
0.581803
0.691247
-1.17239
0.481142
-0.62921
-0.0498327
0.679042
-0.304711
-0.13407
0.438781
0.548771
-0.228351
-0.222503
0.0747593
0.453478
-0.0641524
-0.430108
-0.581107
0.823977
-0.24287
-0.183105
0.0269156
-0.182878
0.0954983
0.106281
-1.02522
0.344792
-0.796874
0.119124
-0.177609
0.239493
-0.061884
0.0147021
-0.239714
-0.479028
0.360342
0.118686
0.343998
0.192843
0.609642
-0.287746
-0.321896
0.481445
0.118316
-0.404851
0.763787
0.57476
-0.0670658
-0.216383
-0.50548
1.18781
-0.990495
-0.197311
0.724782
-0.86635
0.434918
0.431432
0.800421
-0.873451
0.0730295
-0.448441
0.353333
-0.120773
-0.0430107
-0.121357
-0.535414
0.317711
-0.553277
0.235567
0.421248
0.430382
0.667041
-1.113
0.44596
0.265304
-0.549165
0.283861
-0.973539
0.174709
0.0258504
0.368287
-0.510642
0.770114
-0.259471
-0.242248
0.309265
-0.067017
-0.457378
-0.0118417
-0.126173
-0.241477
0.367651
0.0903501
0.000752258
-0.0911024
-0.298857
-0.203131
0.36385
0.449395
-0.813245
0.849946
-0.427599
0.259772
-0.450393
0.0019519
0.485386
-0.220082
-0.660412
-0.134563
0.302395
-0.29196
-0.0104357
0.959409
-0.295845
-0.485279
0.760729
-0.275451
-0.121632
0.143186
-0.0215537
0.694347
0.0250327
-0.417158
-0.357009
-0.524519
0.938741
-0.414221
0.600825
-1.10732
0.506495
0.582112
0.666745
-0.0410606
0.0445172
-0.00345658
0.0981015
-0.727311
0.624829
-0.937137
0.312309
0.061061
0.00679631
-0.095343
0.643771
-0.372632
0.717425
-0.813631
1.35339
0.181213
-0.981405
-0.79734
0.429371
0.367969
0.651387
-0.115867
-0.53552
0.942882
-0.18011
-0.570505
-0.51855
-0.444925
0.658303
0.0621878
0.197272
-0.25946
0.323292
-0.307963
-0.739402
0.644059
0.835247
0.228181
-0.797282
0.312004
1.02716
-0.356854
-0.351883
0.358211
-0.00632765
0.027536
-0.620786
0.59325
-0.899768
0.16429
0.735478
0.72941
-0.72941
-0.4226
0.832618
-0.410019
0.328836
0.280807
0.628665
-0.330636
-0.29803
-0.976004
1.01667
-0.0406666
0.351317
-0.0334704
-0.317846
0.269406
-0.10383
-0.165576
0.115291
-0.309913
0.219481
0.458111
-0.992095
-0.853311
1.00337
-0.150057
-0.289429
0.653279
0.0849207
0.0137709
-0.0986916
0.067011
-0.27702
0.210009
-0.381093
0.421917
1.38206
-1.09707
-0.284994
-0.0894686
-0.518134
0.607602
-0.241383
0.260339
-0.0189561
0.135683
-0.278727
0.143044
-0.865736
0.318614
0.547122
0.208169
0.0945922
-0.387055
0.0351722
-0.013133
-0.10945
0.122583
0.665539
0.627508
0.112711
-0.0277905
-0.0504091
-0.270148
0.320557
-0.520388
0.82441
-0.304022
0.02377
0.125652
-0.149422
0.397454
-0.272684
0.646045
-0.229826
-0.416219
0.0227317
-0.427422
0.220586
0.831102
0.448518
0.288951
-0.737469
0.472227
-0.404675
-0.0675529
-1.01288
0.189794
-0.390333
0.161094
0.229238
0.495331
0.718602
-1.21393
-0.63917
0.589338
0.0468184
-0.91736
0.870542
-0.131368
0.190569
0.0289771
-0.024313
-0.0046641
0.0387555
-0.334257
-0.00229069
0.0374974
-0.0352067
-0.6705
-0.179014
0.620697
0.15942
-0.0667945
-0.0926254
-0.130996
0.00936417
0.157825
-0.69948
0.541655
0.263608
0.525741
-0.789349
0.481252
-0.706461
0.860588
-0.154127
-0.726693
0.55373
-0.0248335
-0.0185633
-0.380342
-0.272413
-0.264919
0.0654209
0.199498
-0.897945
0.377557
0.66016
-0.749629
0.439485
0.587675
-0.33328
0.315776
0.0175037
0.338111
-1.18426
0.846147
0.161393
-0.274487
0.113094
0.348691
-0.765849
-0.629291
-0.0461653
-0.322215
-0.0159993
0.109465
-0.132621
0.0231564
0.444627
0.00466646
-0.0240189
0.0193524
1.15553
-0.660197
-0.528269
0.861454
-0.333184
0.270082
0.18723
-0.457312
-0.353443
0.222075
-0.225807
-0.0391117
0.425505
0.20316
-0.208649
-0.619499
0.256545
0.0458501
0.60722
0.419916
0.154843
-0.95806
1.07449
0.123893
-0.448001
0.324107
-0.0880017
-0.826918
0.91492
-0.17685
0.195951
-0.0191007
-0.428984
0.463589
-0.56252
0.647163
0.811652
-0.258975
-0.410984
-0.0680442
0.00431783
-0.420557
0.41624
0.409983
-0.957426
-0.123381
-0.456168
0.579549
-0.108015
0.32534
-0.217325
-0.645845
0.0392309
0.606615
0.922283
-0.7064
-0.0116327
0.0885041
-0.0768715
-0.22095
-0.0204333
0.181687
0.371742
-0.553429
0.110316
-0.137163
0.0268474
0.570092
0.326853
-0.896945
-0.340555
1.11014
0.0866861
0.00366401
-0.283644
-0.604348
0.887991
0.305763
0.633114
0.953419
-0.68981
-0.362482
0.236309
-0.135619
0.045546
-0.445285
1.13653
0.125844
-0.760599
0.634755
0.844102
-0.139703
-0.704399
-0.477854
0.686909
-0.209055
0.391777
-0.459023
-0.386191
0.845214
0.132095
-0.128213
-0.00388266
-0.278156
-0.489042
0.767199
-0.208596
0.275607
0.0409214
-0.0513967
0.509312
-0.787468
-0.699577
-0.216064
0.91564
-0.0550568
-0.492003
0.547059
-0.0915578
1.19961
-1.22195
0.0223394
0.208943
-0.133157
-0.0757858
-0.0153299
-0.31795
0.256808
0.242991
-0.332066
0.0273551
-0.813915
1.0206
-0.206681
-0.216314
0.408433
0.251449
0.472525
-0.807085
-0.257593
-0.0617381
-0.0768711
0.138609
0.533646
-0.11373
-0.207256
0.227221
-0.0199648
0.37539
-0.356356
-1.1924
0.617699
0.929107
0.197603
-0.115805
0.251488
-0.207469
0.47755
0.969728
-0.511617
-0.213306
0.00605018
-0.119226
-0.620175
0.188135
0.229909
-0.221919
-0.920426
0.0206584
-0.0109447
0.21513
-0.0537368
-0.778905
0.576798
0.202107
0.634452
0.118304
0.195454
-0.0664053
-0.129049
0.30117
-0.271689
-0.0294812
-0.731048
0.25985
-1.04865
0.524135
0.455313
-0.203952
-0.251361
-0.00535123
0.190272
-0.184921
0.983821
-0.00412629
-0.979694
0.162782
0.0102241
-0.173006
-0.143299
-0.265889
0.233497
-0.0241963
-0.0347269
0.0356163
-0.000889427
0.405216
-0.037858
-0.367358
0.00627821
-0.0410051
0.799526
-0.660391
-0.0292072
-0.146992
0.176199
-1.01687
0.202955
0.0192267
-0.0860539
0.428528
0.0760419
0.083378
-0.0419043
-0.15117
0.241204
0.177007
-0.418211
0.541705
0.17148
0.423691
-0.299797
0.202988
-0.179219
0.0775879
-0.319835
0.580791
0.0945677
-0.675359
0.544654
-0.0490896
-0.495564
-0.416841
-0.311286
-0.364113
0.0590105
0.305103
0.380933
-0.402904
0.0219705
1.11137
-0.0416773
-1.0697
-0.324036
0.117613
0.206423
-0.505248
0.676749
-0.171501
0.592483
0.643539
-1.23602
0.321164
-0.454734
-0.287444
0.444061
-0.156618
0.219542
0.0995672
-0.319109
-1.20083
0.778836
0.421993
0.0326025
0.00301382
-0.84646
0.146883
0.312003
-0.189899
-0.122104
0.47309
-0.602118
0.129029
-0.091434
-0.19332
0.179531
1.02008
0.8227
-0.144773
-0.677927
-0.837728
0.131267
0.340894
-0.557277
0.855247
-1.29898
0.443732
-0.103843
0.29045
0.00214632
-0.370035
0.319626
-0.163938
0.220439
-0.153681
-0.825684
0.979365
0.610433
0.696123
-0.747194
0.777301
-0.0301077
0.122431
-0.0129659
-0.590277
-0.238152
-0.116074
0.129901
-0.0138275
0.382648
0.0189295
-0.401578
-0.0649519
0.280116
-0.215164
-0.0706419
0.543731
-0.755694
-0.0743819
0.830076
-0.722744
-0.252185
0.97493
0.459137
-0.349016
-0.110122
-0.202454
0.0145954
0.187858
-0.0164293
0.0461317
-0.0297024
-1.00794
0.0481117
0.959825
0.0248134
0.192234
-0.217047
0.800155
-0.899768
0.0996132
-0.503722
0.419756
0.514668
-0.934425
0.0121717
-0.128245
-0.0277429
-0.861466
0.889209
0.620491
-1.24388
-0.947608
0.82513
0.122478
0.128303
-0.0179867
0.757694
-0.506245
-0.0516621
-0.215148
0.26681
-0.0103556
0.138047
-0.127691
-0.176575
0.883117
-0.706542
0.697621
-0.365615
-0.332006
1.0342
-0.977565
-0.0566349
0.746713
-0.263654
-0.483059
0.0423924
-0.22875
0.186358
-0.296413
-0.0151633
-0.925679
0.81145
0.114229
0.0519796
-0.977659
-0.277779
0.447775
-0.169997
-0.569057
-0.547663
0.193565
-0.16419
-0.0293743
-0.794998
-0.221872
-0.182983
0.12429
0.058693
-0.316555
0.250752
-0.887045
0.85972
0.0273258
-0.160956
-0.0702731
-0.0260295
0.178695
-0.0159131
-0.588248
0.123303
0.139875
-0.162594
0.0227184
-0.430097
0.350321
0.079776
0.385049
-0.0337321
-0.231454
0.673509
0.0208377
0.351411
-0.161981
0.140776
0.0212051
-0.0799113
0.515726
-0.625069
0.408142
0.216927
0.0281216
0.0044809
1.2789
-0.668467
1.00852
-0.670411
-0.226556
-0.148879
0.375434
0.568514
-1.04343
0.474912
0.562144
-0.617201
0.946398
-0.428537
-0.517861
-0.0039321
-0.530277
-0.094792
-0.49377
0.9237
-0.42993
-0.00590246
-0.387373
1.23262
-1.06331
0.268309
0.350252
-0.194905
-0.0853377
0.0839752
0.117682
-0.00310537
-0.492083
-0.483191
1.61368
-0.800762
-0.485551
0.328737
0.156815
0.0582061
0.2112
-0.653683
-0.433467
1.08715
0.209105
0.339666
-0.0048119
-0.14078
0.145591
0.821271
-0.170105
0.0549528
0.115153
0.679746
-0.0989547
-0.348764
-1.0212
0.167893
-0.216297
0.0114435
0.204853
0.616058
0.893846
0.301894
-0.405596
0.103701
0.978442
0.0557581
0.621049
-0.877991
0.256942
-0.826024
-0.00868466
0.834709
-0.755511
0.985642
-0.230131
0.136361
-0.00594292
-0.130418
-0.57872
1.19921
-0.102416
-0.430407
0.532823
0.0213105
-0.768504
0.343368
-0.141094
-0.202274
-0.951777
1.2435
-0.291722
-0.222948
0.546583
-0.323636
1.16229
-0.512937
-0.64935
-0.000642018
-0.590114
0.590756
-0.0217716
-0.00254142
-0.51498
1.10746
0.388122
-0.810722
1.08517
-0.484345
-0.183645
0.154438
-0.861272
0.0352476
1.17206
-0.505016
-0.0106692
-1.32384
0.265332
-0.00619678
0.386873
0.561453
-0.948326
0.544949
-0.131903
-0.413045
0.315337
-0.962658
0.647322
-0.136179
0.00895522
0.127224
-0.19768
-0.49003
0.68771
0.348485
-0.270897
-0.195709
-0.0198082
0.215517
0.110528
0.27011
-0.380638
0.0759949
0.11757
-0.904649
1.05633
-0.151686
-0.195139
0.0182883
0.457592
0.205567
-0.663159
0.540389
0.670088
-1.21048
0.165329
0.486058
-0.0164936
0.974567
-0.00307331
0.787337
-0.784264
0.0430872
-0.0193171
0.0667657
-0.0122387
-0.054527
1.43976
-1.1447
-0.295065
0.443567
0.502831
-0.138821
0.0988154
0.0400053
-0.276555
0.79396
-0.517406
0.00743282
0.158872
-0.166305
0.70845
-1.04473
0.336279
-0.25239
-0.639666
0.892056
0.833593
-0.178611
0.28566
0.259289
-0.430245
0.0249741
0.405271
0.286237
-0.804371
0.227209
-0.485465
0.258256
0.182856
-0.0649708
-0.117886
0.0351051
-0.0568767
-0.0629866
0.577269
-0.514283
-0.180337
1.16531
0.758913
-0.617599
-0.141314
0.631358
-0.537243
-0.498613
0.155679
0.342934
0.129507
-0.460142
0.350103
-0.210586
-0.139517
0.0610927
0.134362
0.139266
0.734571
-0.873838
0.237327
0.167889
0.118817
-0.841562
-0.450963
0.113345
0.337617
-0.339146
-0.226474
0.565619
0.489516
-0.248311
-0.838616
0.549187
0.235351
-0.1885
-0.0468514
-0.470601
0.934667
-0.464066
-0.430157
0.452888
-0.465757
0.495423
-0.0296663
-0.578676
0.964699
-0.386023
-0.0195749
0.206231
-0.186656
-0.278083
0.272732
-0.27194
-0.566816
0.906835
-0.340019
-0.551713
0.695266
0.496509
-0.515182
0.0186728
0.140645
0.318614
-0.45926
-1.24079
0.80922
0.431573
0.0290189
0.0509803
-0.0799991
0.0889348
0.686465
-0.86304
0.988615
-0.420101
-0.323932
-0.473409
-0.700515
0.697441
0.482608
-0.0112597
0.369755
0.109202
-0.478957
-0.332729
0.306093
0.026636
-0.337608
0.168364
0.169244
-0.315892
-0.380884
0.696776
0.0570221
0.460003
-0.517025
-0.724698
-0.270911
0.99561
-0.314724
0.455369
1.02524
0.41452
-0.902123
0.547646
0.354477
-0.523171
0.146398
0.376773
0.00408572
0.178429
-0.228339
0.0499094
-0.559973
-0.889531
0.573639
0.131549
0.197391
-0.154999
0.0584908
0.324157
0.0134068
-0.844656
0.0254314
0.281587
0.20761
-0.0185353
-0.189075
-0.656716
-0.510945
1.16766
-0.185451
-0.244795
-0.493653
-0.0987688
0.592422
0.102291
0.208132
-0.310423
-0.00672533
1.12983
-0.739052
-0.39078
0.178734
0.643966
0.108894
0.0188614
-0.536128
0.517266
-0.667512
1.08457
-0.417063
-0.554303
-0.256589
0.810893
-0.457402
0.169958
-0.385946
-0.112667
0.848051
-0.422263
-0.425789
0.427562
-0.056701
-0.370861
0.365565
0.058111
-0.423676
-0.165525
0.190338
0.132242
-0.195669
0.0634265
-0.0857013
-0.0269976
-0.207497
-0.00611827
0.447997
0.400054
-0.368129
0.884695
-0.473809
1.27287
0.433504
-0.00594234
-0.847814
0.29351
0.726252
-0.62815
-0.106988
-0.634445
0.129196
0.144291
-0.422069
0.711742
-0.684206
0.825014
-0.0245928
-0.192088
-0.112031
-0.250475
-0.0687699
0.319245
-0.294617
-0.0368776
0.710681
0.153062
-0.863743
0.0129399
-0.244121
0.231181
-0.068303
0.453846
-0.90403
0.450184
0.865686
-0.0655306
-1.04095
1.1259
-0.0849537
0.206622
-0.138357
-1.04881
-0.191984
-0.302137
0.838756
-0.0273067
0.499127
1.09775
-0.400596
-0.697156
-0.632229
-0.0349415
0.66717
0.255497
0.472272
-0.727769
-0.690637
0.0447918
-0.163987
-0.124563
0.28855
-0.468704
0.594548
0.134951
0.502494
-0.637444
0.155455
-0.0688181
-0.086637
-0.960602
0.120699
0.839904
0.452322
0.536293
-0.250852
0.544585
0.202128
-0.27342
-0.116913
0.828353
-0.964002
0.400986
-0.177685
-0.223301
0.479617
-0.158453
0.666121
0.0383177
-0.704439
0.801065
-1.27487
0.00345323
0.0327342
-0.213445
0.312159
-0.0987141
-0.917749
0.890006
-0.0244781
0.284783
-0.260305
-0.232025
0.166679
0.0653461
-0.393516
-0.0354675
-0.254073
0.594967
0.205249
0.250064
-0.146999
0.15917
-0.418466
0.0712858
0.0283836
-0.0523979
-0.182115
0.17474
0.00737517
0.198176
-0.222615
0.0244392
-0.46474
0.374249
0.1317
-0.625353
-0.0416483
-0.278391
0.00871253
0.548478
-0.557191
0.315739
-0.357634
0.0963225
-0.752165
0.655843
-0.252221
0.775859
-0.523638
0.207284
-0.788391
-0.492995
-0.024092
-0.923516
0.818014
0.795663
-0.728753
-0.109863
-0.472818
-0.393532
-0.410093
0.168615
-0.0467577
-0.0117847
0.0585423
1.35011
-0.734053
0.809001
-0.184173
-0.230952
-0.149334
0.380286
-1.19866
0.552138
0.646523
-0.42523
0.285499
-0.43838
0.858136
0.154584
-0.0888515
-0.322819
-0.447317
0.344901
0.378335
-0.385692
0.00735735
-0.11639
0.827071
-0.356991
0.408582
-0.0515912
0.783609
-1.26369
0.568344
0.695349
0.17951
0.233062
-0.412572
0.547448
-0.191803
-0.355644
-0.514109
0.291161
-0.77377
0.00125047
0.364315
0.884655
-0.972657
0.399009
-0.179467
-0.384746
0.670982
-0.803615
0.5696
0.234015
0.750994
-1.09735
0.346359
-0.67824
0.725168
-0.0469284
0.404195
-0.484107
0.0125579
0.216661
0.242476
0.197282
-0.824012
0.363381
-1.08288
0.632427
0.450449
0.226476
-0.858705
0.615327
-0.0349415
-0.579718
0.133808
0.276573
1.02287
-0.344327
-0.678548
-0.0479827
0.242929
-0.582075
0.147308
-0.946517
0.911576
-0.762891
0.303868
0.460925
-0.645943
0.340989
0.304954
-0.860039
0.518277
0.341762
-0.206933
0.157241
-0.265256
-1.00932
0.704549
0.304771
0.633848
-1.21257
-0.892801
-0.0118486
1.27034
-0.415091
0.142572
0.108771
-0.251343
-0.0212743
-0.129999
0.151273
-0.141087
0.449755
0.525601
-0.375821
-0.270122
0.156244
0.192241
0.212177
0.347488
-0.559664
0.368408
-0.219151
-0.0359675
-1.03741
1.07338
-0.311268
0.371977
-0.732143
-0.583612
-0.425108
1.00872
0.234634
-0.320863
-0.668644
0.20441
0.464234
0.0118101
-0.0625956
0.0507855
0.692919
-0.8466
0.0569239
-0.270369
0.579027
0.580627
-1.15965
-0.432096
-0.0534551
-0.810628
0.226225
0.584403
-0.925838
0.673448
0.401886
-1.0694
0.267082
0.133904
-0.00695695
0.018767
-0.0244648
0.868567
-0.584105
0.736183
-0.152078
0.805755
0.00267139
-0.808426
-0.594969
-0.0115632
-0.166046
0.0631315
0.666279
0.114996
0.0281893
0.270224
0.592478
-0.263642
0.482358
-0.240702
-0.0969066
-0.836532
-0.0505138
-0.818638
0.278189
-0.798118
0.164405
0.185038
-0.349443
0.771066
0.0479798
-0.819045
-0.0977771
0.0918342
-0.33748
-0.711174
-0.757873
-0.115578
-0.501901
1.30297
-0.322137
0.444922
-0.122786
-0.933603
0.276887
-0.273835
0.486012
-0.2431
-0.535804
-0.531803
-0.290429
0.300294
-0.504957
0.0748602
0.960249
-0.121492
0.57973
-0.235138
-0.344592
0.0593369
0.268398
0.24385
0.988712
-0.941894
-0.00703708
-0.213987
0.308805
-0.467269
0.496435
-0.43842
-0.538172
0.212925
0.16292
-0.375845
-0.765917
0.036507
-0.118699
0.743778
-0.625079
-0.0478044
-0.993146
-0.660248
0.797266
1.44411
-0.644745
-0.799361
-0.12249
0.283584
0.727195
-0.374779
-0.352415
0.250213
-0.277211
0.0304559
0.0363098
-0.177282
0.0305467
0.146736
-0.101176
0.470931
-0.575586
1.20943
-0.0229469
-0.141243
-0.260507
-0.0801429
0.34065
-0.0209601
0.713879
0.43577
0.193739
-0.629509
-0.370953
0.55264
0.398589
0.395372
-0.397307
-0.0536558
0.506429
-0.190977
-0.315452
-0.0518204
0.037717
0.0141034
0.148941
-0.764577
0.615636
-0.88766
0.129787
0.20816
-0.519323
0.797512
-0.00966087
0.259874
0.119692
-0.441828
-0.899916
0.454991
-1.02666
0.319453
-0.43039
0.0492977
-0.375194
-0.55512
0.930313
-0.768139
0.0840093
-0.0144887
-0.0695207
0.996411
-0.77444
0.775165
-0.519668
0.135978
0.505046
-0.641024
0.18127
-0.345257
-0.443464
-0.298333
0.741797
0.315694
-0.300458
-0.0152358
-0.596096
1.2447
-0.648605
0.711776
-0.477458
-0.234318
0.617772
0.021956
-0.639728
-0.522908
-0.740785
-0.300454
-0.0217606
0.378461
0.599075
-0.0111261
0.0847343
-0.0736081
-0.654152
-0.156476
0.632269
0.550142
-0.513147
0.617018
-0.103871
-0.204288
0.259241
-0.0313827
0.250022
-0.218639
0.0513684
-0.408359
-0.116091
-0.89323
-0.887451
0.220146
0.0152051
-0.0310959
-0.312275
0.0739639
0.689948
-0.763912
-0.474724
-0.113525
0.459601
0.390344
0.0638271
-0.231594
0.0431078
0.160924
-0.204032
0.0518829
-0.330706
0.278823
0.159009
0.269359
0.359801
0.79748
-0.376232
0.804443
-0.432466
-0.104669
-0.238621
0.34329
0.713004
0.0831129
0.0184646
-0.645107
0.447426
0.235423
-0.256383
-0.457015
-0.703947
1.16096
-0.606826
-0.591836
-1.06726
1.10533
-0.0380742
0.320824
-0.327126
0.258356
0.529174
0.268305
-0.305094
0.408987
-0.103893
-0.264193
-0.501943
-0.262307
-0.449308
0.711615
0.458415
-0.24931
0.495183
-0.267974
0.556389
-0.893869
0.429027
-0.331444
-0.48561
0.902143
-0.416532
0.682804
0.437219
0.297691
-0.73491
1.08612
-0.610173
-0.475947
-0.64387
-0.625474
1.06448
-0.439003
0.269131
0.310599
-0.27127
0.261609
0.403306
0.758982
-0.193791
0.172516
0.0210715
-0.016405
0.900513
-0.50226
0.458768
0.891343
-0.383607
0.201715
0.181893
0.194124
-0.42068
0.704373
-0.0382516
0.343128
-0.200556
-0.632869
-0.121089
0.753959
0.172032
-0.0275617
-0.14447
0.130517
0.0784266
0.128264
-0.883774
-0.265927
0.304682
0.64594
-0.574237
-0.0717034
0.159486
0.346942
-0.13651
0.0701047
0.251549
0.204954
-0.456503
-0.393932
1.10796
-0.156728
-0.529884
1.07911
-0.549227
-0.25555
0.366077
0.139245
0.0162101
1.05184
-0.533678
-0.332795
0.235586
0.311862
0.281469
-0.323117
-0.150516
0.130941
-0.276896
-0.125797
-0.00519924
0.171986
-0.145249
0.762217
-0.616968
0.0987901
-0.111923
-0.293347
0.0781989
-0.301496
0.00104231
-0.848739
0.565095
0.234487
0.209575
-0.438324
0.25872
0.179604
0.237934
0.0488005
0.759831
0.425756
-1.18559
-0.0905925
-0.015814
0.106406
0.161919
-0.690188
0.964209
0.479897
0.733636
-0.659672
-1.07076
-0.0674905
-0.0213644
0.0292179
0.428787
0.390825
0.375038
-0.765863
0.36764
-0.0519019
-0.0292525
-0.297566
-0.0860412
-0.508809
-0.380117
0.509624
0.448676
0.412778
0.519806
-0.534448
0.0146418
0.168234
0.00650595
-0.061725
0.230329
-0.0321532
0.669428
0.162544
-0.831972
0.450743
-0.0724078
-0.207504
0.126897
0.0806064
-0.317771
-0.00691341
0.324685
0.231662
0.576567
-0.808229
0.20072
0.288796
0.64007
-0.01755
-0.242693
0.345704
0.246774
0.104987
-0.194402
0.0894145
-0.973874
0.494346
0.782927
-0.617559
-0.165368
0.0120396
-0.119944
0.107905
0.745786
-0.808772
0.545453
-0.0870376
0.392571
0.382594
-0.115977
-0.00981971
-0.262064
0.0895069
0.172557
-0.518501
-0.105945
0.999051
-0.51186
-0.487191
0.448783
-0.039279
-0.409505
0.394722
-0.653596
0.258874
-0.0838551
0.464235
0.0211507
-0.483876
1.00669
-0.522815
-0.159968
-0.102096
-0.442522
0.420995
-0.012413
0.679809
0.00274486
-0.682554
-0.293736
-0.00700628
0.214616
0.123716
-0.0249008
0.206123
0.106036
-0.379079
0.314127
0.00326129
-0.0688751
-0.113018
0.123538
-0.362305
0.498284
0.00703892
0.22287
0.24038
-0.229942
0.631086
-0.0460695
0.565876
-0.128336
-0.101719
-0.202491
0.45404
-0.146664
0.861346
-0.714682
-0.737907
-0.108552
-0.738589
1.11206
-0.373467
-0.00530806
0.426303
0.291462
-0.0552033
-0.0167352
-0.221133
0.237868
-0.778115
0.244436
0.101438
-0.113071
0.517515
-1.1712
0.379712
-0.98406
-0.717041
1.16713
-0.444059
0.466836
-0.261883
0.010924
-0.563087
0.712028
0.000822211
-0.133696
0.123355
-0.472371
-0.0942137
-0.551469
0.645683
-0.420267
0.505474
1.3229
-0.869303
-0.453595
-0.197167
0.0641968
0.19107
0.0191722
-0.210242
-0.728926
0.144821
0.164649
0.0182076
-0.00524845
-0.107971
0.113219
0.444681
-1.18327
0.0833637
0.404086
0.0355346
-0.43962
-0.956883
0.81022
0.123511
0.0332971
-0.156808
0.342579
-0.909396
-0.123596
-0.000974818
0.124571
0.158205
-0.034694
-0.00456929
0.655817
-0.490488
0.533539
0.455168
-0.254448
-0.818393
0.234781
-0.602459
0.491721
0.110738
0.655489
-1.1125
-0.459948
-0.267806
0.727754
0.0213858
0.363492
-0.271994
0.238524
1.04597
-0.153916
-0.892057
-0.0121832
-0.824348
0.565231
0.0525407
0.356226
0.370969
-0.138286
-0.00249321
0.12216
-0.2321
-0.321177
0.0394801
-0.0336562
-0.00582389
0.0157105
-0.619625
0.603915
-0.091111
0.302417
-0.211306
0.42435
-0.999651
0.575301
-0.0855114
-0.480673
-0.028716
0.0154612
0.607552
-0.313714
-0.168254
0.481968
-0.328945
-0.341556
0.401145
-0.238225
0.291967
0.141268
-0.433235
-0.34474
-0.0935842
-0.705771
-0.109983
-0.0350324
0.145015
0.159456
0.200535
-0.35999
0.37941
-0.769201
0.389791
0.0314314
-0.492991
0.152662
-1.10444
-0.420545
-0.906172
1.32672
-0.844906
0.0339232
0.810983
-1.12016
-0.706227
0.0279868
-0.263943
0.26128
0.00266288
-1.28861
-0.301716
0.971144
0.345655
-0.168649
0.0905261
-0.293017
-0.137279
0.426075
0.129498
0.0819624
-0.34247
0.0131384
-0.105835
0.0926967
-0.181186
0.0520261
-0.0705609
0.0826005
-0.261115
0.440625
-0.919022
0.552591
0.366431
-0.20757
-0.0149328
0.490135
0.17684
-0.00480799
0.0537589
-0.358853
-0.437417
-0.231227
-0.487206
0.163869
0.323337
-0.0592532
0.331743
-0.27249
-0.377749
0.429632
-0.0719981
0.650308
1.02838
-0.592612
0.462233
-0.791178
0.376254
-0.501598
0.125344
0.091991
-0.00348684
0.0439127
0.000604417
-0.920429
0.545236
0.0656394
0.383144
0.0127325
-0.169477
0.156744
-1.47363
0.582579
0.261132
-0.427855
-0.167246
-0.0170701
-0.192286
0.209356
-0.500241
0.186527
-0.976282
0.860191
1.23693
-0.657901
-0.176056
0.162201
0.0138552
-0.114524
0.0376526
-0.128845
-0.738905
0.150889
0.588016
-0.121044
0.10523
-0.0317018
0.282189
-0.250488
0.327989
0.217464
0.131292
-0.117151
-0.0141419
-0.243178
0.250217
0.0711901
-0.0101291
0.446182
-0.836485
0.935412
0.0430298
-0.54051
-0.104827
0.847894
-0.0354314
-0.812463
-0.137081
-0.284125
0.421206
0.464499
-0.956581