/*--------------------------------*- C++ -*----------------------------------*\
| =========                 |                                                 |
| \\      /  F ield         | OpenFOAM: The Open Source CFD Toolbox           |
|  \\    /   O peration     | Version:  2306                                  |
|   \\  /    A nd           | Website:  www.openfoam.com                      |
|    \\/     M anipulation  |                                                 |
\*---------------------------------------------------------------------------*/
FoamFile
{
    version     2.0;
    format      ascii;
    arch        "LSB;label=32;scalar=64";
    class       volVectorField;
    location    "8.6";
    object      U;
}
// * * * * * * * * * * * * * * * * * * * * * * * * * * * * * * * * * * * * * //

dimensions      [0 1 -1 0 0 0 0];

internalField   nonuniform List<vector> 
13486
(
(1.46908 -0.242405 4.81579e-19)
(1.67612 0.249776 2.59767e-19)
(2.70666 0.0307448 0)
(-2.14219 1.05669 -1.6339e-18)
(2.43946 -0.35923 -1.14787e-19)
(2.46119 0.177479 -1.05511e-20)
(2.47326 0.0230214 -1.75144e-20)
(2.07947 -0.71202 -6.7017e-20)
(1.98661 -0.364058 0)
(1.9538 0.716631 0)
(-0.683517 2.40474 -6.94665e-19)
(2.46868 -0.0751317 0)
(1.31588 -0.439579 -4.70038e-19)
(2.38343 0.763126 -2.43798e-20)
(2.38226 -0.107834 -3.48641e-20)
(1.91518 0.70562 -2.01678e-19)
(1.25954 -0.413237 5.963e-19)
(0.270987 -0.71861 2.71368e-19)
(2.14691 -0.0120739 1.81292e-21)
(1.6425 -0.069956 -4.95611e-19)
(-2.54438 0.756075 -7.42616e-19)
(1.33649 -0.456487 6.06596e-19)
(1.69574 0.243733 -2.07615e-19)
(4.32059 -0.364861 0)
(2.01386 0.579295 6.9494e-20)
(4.22855 -0.394053 -3.91234e-19)
(0.286442 -0.192847 6.77663e-19)
(3.11441 -0.204107 5.43986e-19)
(2.01527 0.150363 0)
(3.00371 -0.46264 -4.90756e-19)
(-2.30985 0.17289 -5.18178e-19)
(2.27993 -0.108447 -5.71464e-20)
(3.34256 0.129569 3.86463e-19)
(2.35588 -0.183539 0)
(2.08677 -0.681444 0)
(1.67043 0.0146677 2.65121e-21)
(1.55199 0.0132406 -6.91294e-20)
(1.51523 -0.708296 1.837e-19)
(1.8375 -0.20563 -1.48863e-20)
(2.00217 -0.223013 1.86725e-19)
(2.80533 -0.692212 0)
(0.897214 -0.444869 -5.57363e-19)
(1.97978 -0.00520596 0)
(2.03399 0.482326 -3.25393e-19)
(2.05002 0.482382 1.34152e-19)
(2.46961 -0.0768087 6.38662e-20)
(-1.04026 -0.665239 1.17061e-18)
(1.9862 0.146225 1.14734e-22)
(1.55968 0.030997 5.20784e-20)
(2.84449 0.0391046 1.60263e-19)
(1.99953 0.0196478 3.1694e-19)
(1.9021 -0.0519554 0)
(2.4478 -0.191996 -1.23361e-19)
(1.67705 -0.610129 -2.79522e-19)
(0.229521 -1.0549 0)
(2.39848 -0.373456 4.66282e-20)
(2.75607 0.5574 1.04662e-19)
(1.90695 -0.105857 -7.10827e-20)
(3.33425 0.163096 4.80231e-19)
(1.41054 -0.197266 0)
(-0.850073 2.67682 -9.25831e-19)
(1.38602 -0.167324 0)
(3.50748 0.632786 -2.77075e-19)
(-2.51463 0.756817 -8.17128e-21)
(2.08266 -2.07458 0)
(1.51253 0.00590759 -3.7521e-20)
(-2.38589 1.17638 -1.59675e-18)
(1.44708 0.0170869 1.75249e-19)
(1.98659 -0.385614 -9.18393e-20)
(1.5494 0.0121123 1.89879e-20)
(-2.14975 1.10021 1.82576e-18)
(0.259117 -0.962923 1.01397e-20)
(2.01493 -0.110342 1.5267e-19)
(-0.658411 0.216376 -3.8373e-19)
(1.3973 0.0263708 -1.0147e-20)
(2.8012 0.505992 -2.07575e-20)
(1.3894 0.0639952 3.20962e-20)
(2.39395 -0.105667 1.74819e-20)
(-0.794446 -0.362295 -6.26455e-19)
(1.90557 -0.718735 0)
(1.94137 0.0331708 2.75531e-22)
(1.61748 0.341254 -1.67816e-20)
(3.20104 0.529309 -3.44552e-20)
(2.77659 0.01654 -1.99934e-21)
(1.46143 -0.25303 -9.4146e-19)
(1.30208 1.51683 0)
(1.57432 -0.356145 9.96535e-21)
(2.00156 0.0323324 -4.88357e-19)
(1.8759 0.18546 -2.10438e-19)
(1.79147 0.953625 -2.43305e-19)
(2.27789 -0.194856 -7.23735e-20)
(2.21699 -0.563659 -1.09275e-20)
(1.53126 -0.339214 1.18421e-19)
(1.67338 0.0568263 1.35031e-20)
(1.8987 -0.567775 3.588e-20)
(1.96823 0.121616 -1.12822e-22)
(0.343579 -0.255204 0)
(-2.64905 1.3625 9.33283e-19)
(2.0159 -0.218331 -3.56956e-19)
(1.38165 -0.373879 9.32093e-21)
(1.8321 0.0248103 0)
(2.35547 0.757738 -1.23685e-20)
(-2.7151 1.31611 4.52277e-20)
(1.8984 -0.0886969 8.32992e-20)
(1.2651 1.4584 0)
(1.23517 -0.343295 9.03445e-21)
(1.98647 0.0510874 -3.15276e-22)
(1.84936 -0.234207 -3.22656e-20)
(-0.790415 -0.346842 8.11136e-19)
(1.92416 -0.847633 0)
(1.3375 -0.638083 0)
(2.22661 -0.0109099 -2.23177e-20)
(1.68712 -0.590797 4.04411e-21)
(2.5218 0.420104 -1.91664e-21)
(1.09815 -0.0920827 0)
(1.27431 -0.626695 -1.09059e-19)
(2.00769 0.595782 0)
(2.48176 -0.154506 0)
(2.00576 -0.110979 0)
(1.62429 0.081097 -2.92584e-20)
(0.435329 -0.686794 -1.21218e-19)
(-1.01176 2.63513 0)
(1.86883 -0.511784 0)
(1.84718 -0.20856 4.82071e-20)
(1.9595 -0.667555 0)
(1.89516 -0.0491686 0)
(2.22585 -0.202067 2.59019e-21)
(2.19075 0.072673 1.41355e-19)
(1.93617 -0.0888541 -6.69676e-20)
(2.60721 -2.46119 -8.56354e-19)
(1.86809 -0.035612 -8.86131e-21)
(-1.23105 -0.749926 -2.96939e-19)
(0.440285 0.490342 7.35407e-19)
(-0.239091 0.182169 4.97192e-19)
(1.99979 0.00935646 -5.10304e-20)
(1.88901 0.386599 -2.62063e-19)
(0.678154 0.643064 -1.62836e-19)
(1.93921 -0.831336 0)
(1.63677 0.0867198 8.15294e-21)
(2.09034 -0.546736 -3.65857e-20)
(3.13469 0.166335 -3.92122e-19)
(2.43326 -0.200116 1.05453e-19)
(2.34053 -0.131716 0)
(1.94048 -0.680496 0)
(2.09291 0.00220371 -3.46219e-21)
(3.11193 0.728717 -4.51217e-19)
(2.12711 -0.105287 -5.33561e-21)
(0.330239 1.4869 0)
(2.85816 0.0733861 0)
(2.02383 0.141417 0)
(2.0094 0.0150189 5.55792e-21)
(2.46894 -0.168894 0)
(1.92692 0.0234015 -2.89209e-22)
(1.59254 0.339382 -1.44248e-19)
(2.17481 0.314798 0)
(2.90601 0.0411102 0)
(1.78644 -0.784031 0)
(0.198121 0.961971 5.16744e-19)
(1.79441 -0.708214 3.30989e-19)
(1.81636 -0.306155 -5.24995e-20)
(2.73135 0.0345897 7.40138e-20)
(1.80311 -0.683851 -4.98065e-19)
(2.18875 -0.273438 9.82192e-20)
(0.800799 -0.38086 2.42609e-19)
(1.92312 -0.0668505 0)
(2.48734 0.763672 -9.44714e-21)
(2.31335 0.688494 1.12145e-19)
(0.492268 -0.164152 -6.64248e-19)
(2.11477 -0.0811586 1.40634e-20)
(-0.250294 0.202493 1.33875e-19)
(0.362397 0.445542 1.50649e-20)
(2.16962 0.287823 1.15831e-19)
(1.99746 0.0704843 -4.23506e-19)
(2.30212 -0.123766 3.17909e-21)
(1.92876 0.0676662 -6.07256e-22)
(-2.26815 1.7328 0)
(2.34002 1.06073 -3.05011e-20)
(3.19534 0.268598 5.04525e-19)
(1.99477 0.0493795 -4.76526e-19)
(2.35315 -0.128946 0)
(2.05598 -0.263746 3.30927e-19)
(2.49614 0.381054 -2.79215e-21)
(2.3249 -0.105935 2.89962e-22)
(0.0319775 0.0896066 0)
(2.63657 -0.0588565 1.39356e-20)
(2.85145 -0.184238 -2.43214e-19)
(2.10855 0.137557 -1.65453e-22)
(2.89386 -0.36038 -1.33073e-19)
(2.79292 -0.65984 0)
(1.14633 -0.55075 -1.58987e-19)
(1.57667 0.070243 0)
(2.56714 0.0590058 0)
(1.9554 -0.157989 0)
(1.28676 0.762859 -3.16138e-19)
(2.01073 -0.196965 0)
(-0.803222 2.27073 -1.93468e-19)
(2.17074 -2.42636 1.87654e-18)
(2.65733 0.00868537 4.54119e-20)
(1.12718 -0.555493 -8.93562e-20)
(2.46976 0.726093 1.11504e-20)
(-2.23433 0.0812305 5.48432e-19)
(2.20155 0.0930821 -4.34183e-21)
(1.39653 -0.671558 -2.12352e-19)
(1.95036 -0.800445 -1.1173e-19)
(1.85139 -0.312401 6.48952e-20)
(2.03819 -0.184194 -6.49942e-20)
(-0.334889 -0.79856 4.71067e-20)
(1.93392 -0.0533241 3.46895e-19)
(1.93842 -0.162519 0)
(2.65799 -0.0456782 0)
(3.15369 -0.251941 4.19557e-19)
(4.32839 -1.09043 9.87796e-19)
(1.66026 -0.0566116 4.53486e-19)
(1.97946 0.0500362 -2.02206e-22)
(2.45736 0.217146 1.21534e-20)
(2.39288 -1.02727 6.79619e-20)
(3.02473 -0.385846 0)
(1.79169 0.93789 5.84058e-19)
(1.62112 -0.358495 0)
(3.04437 0.858469 0)
(1.27282 -0.444869 -1.13268e-18)
(2.89122 0.114002 0)
(2.06688 -0.542342 7.91587e-20)
(2.68728 0.0467196 0)
(2.49721 -0.241161 -2.3445e-20)
(1.28421 -0.605022 1.58699e-19)
(2.56895 0.388163 -1.38076e-21)
(-2.1818 -0.0360601 4.60671e-19)
(2.26669 -0.66179 1.15511e-20)
(1.62613 -0.35671 -2.94727e-21)
(2.0643 -0.254883 -1.0737e-19)
(2.38488 0.10474 9.59508e-19)
(3.17402 0.17191 4.90296e-19)
(0.920815 -0.44777 1.93144e-19)
(-2.73364 1.00731 0)
(1.09523 -0.532723 1.78729e-20)
(2.75385 -0.32186 2.32717e-19)
(2.58501 0.044835 5.14995e-21)
(0.961976 -0.464221 4.90784e-19)
(2.34236 -0.0673759 0)
(3.42814 0.163776 0)
(2.00216 0.0504596 6.4736e-19)
(2.55112 0.215844 0)
(0.969065 -0.480177 1.54298e-19)
(1.79087 -0.25059 -2.64249e-20)
(1.82953 0.0580043 0)
(2.20308 -0.00532217 -2.31321e-20)
(3.53509 -0.531029 1.06576e-18)
(-0.313083 0.0346615 7.95289e-19)
(2.00252 0.456645 0)
(-2.4807 1.80169 -3.89586e-19)
(1.06379 -0.0638886 7.64395e-20)
(1.09187 -0.533976 1.25997e-19)
(1.86045 -0.237899 0)
(2.10446 -0.608313 4.83657e-20)
(-2.02754 2.05047 3.28734e-19)
(2.27509 -0.116956 6.44243e-20)
(2.34782 -1.0692 -8.60881e-20)
(0.848158 0.937724 -5.3176e-19)
(3.43872 0.122629 3.70743e-19)
(1.78853 0.199425 0)
(1.78005 -0.245571 -1.31704e-21)
(2.36129 -0.106412 7.22607e-20)
(-2.18189 1.92066 -4.0473e-19)
(2.38203 -0.658661 1.17666e-19)
(-0.0111254 0.157343 0)
(2.29424 -0.635392 -1.30543e-19)
(-2.52262 0.375004 -8.05717e-19)
(2.16825 -0.0029692 -1.80585e-19)
(1.01933 -0.537641 0)
(1.51858 0.844443 2.361e-19)
(1.98333 0.0529459 -1.32891e-19)
(3.05399 -0.40819 0)
(2.48525 -0.128583 5.92693e-20)
(1.2121 -0.583673 2.08674e-19)
(3.41724 -0.596634 -5.96797e-19)
(2.11446 -0.552004 0)
(0.731994 -2.12249 0)
(1.88079 -0.269648 -3.55305e-20)
(2.2332 -0.132609 1.067e-20)
(0.721106 -2.26434 4.42199e-19)
(2.15759 -0.162596 -1.1732e-19)
(1.95621 0.0675376 2.85717e-19)
(3.40028 0.618132 -6.32466e-19)
(-1.16233 2.52471 1.10323e-18)
(1.00561 -0.0983727 1.15165e-18)
(3.08244 0.257513 3.72584e-19)
(1.88877 -0.11796 8.78081e-20)
(2.58864 -0.240904 3.51433e-20)
(2.13262 0.0067417 0)
(-2.76094 1.03199 0)
(1.67854 -0.25858 3.04187e-20)
(1.307 -0.626419 1.22087e-19)
(1.9986 0.0153982 -5.00156e-20)
(2.82313 -0.315502 2.17042e-19)
(2.82965 -0.348358 0)
(2.16831 -0.0264097 -1.01282e-19)
(2.51074 -0.10971 -4.62377e-20)
(1.9501 0.0541205 -2.59599e-19)
(2.73675 -0.149754 -3.0058e-19)
(1.94217 -0.267317 -1.17086e-19)
(-0.234738 -0.81894 2.43823e-20)
(2.29594 -0.107271 -9.17699e-21)
(2.2885 -0.103954 5.88212e-20)
(1.62633 0.0383336 1.10362e-20)
(1.62854 -0.726348 0)
(1.63536 0.139707 0)
(2.18399 -0.0206901 4.684e-20)
(1.62903 -0.386855 -5.46459e-21)
(1.56516 0.0556273 0)
(1.74792 1.22477 -9.28361e-19)
(-2.06686 1.03526 0)
(2.24991 1.0296 4.82432e-20)
(2.21731 -0.0260915 -5.2911e-20)
(0.737053 2.21376 0)
(1.87778 0.379395 -1.63935e-19)
(1.67474 -0.267251 -4.52063e-20)
(1.86995 0.175847 -1.80653e-20)
(1.92561 -0.0477259 -3.88135e-19)
(2.39142 -0.647064 0)
(1.51058 0.02853 6.86865e-20)
(1.68913 -0.21646 3.54669e-22)
(2.00117 0.0475274 6.04543e-20)
(1.65697 0.10114 -2.56391e-19)
(0.771898 0.617347 2.97597e-19)
(2.27728 -0.17513 1.52298e-19)
(2.28166 -0.263827 -8.35357e-20)
(2.17239 -0.163861 0)
(2.5832 -0.0995243 8.22634e-22)
(2.31491 -0.253254 1.16066e-20)
(2.00085 0.0201983 7.07376e-19)
(2.25182 -0.558138 0)
(2.24229 -0.227104 -4.60944e-20)
(1.45622 0.333316 0)
(2.52096 0.0402533 4.4142e-19)
(1.96973 -0.519526 -8.51608e-20)
(0.726992 -0.344055 2.42335e-19)
(2.46373 -0.198167 1.2387e-19)
(2.01355 0.170969 0)
(1.76915 -0.248302 -4.05162e-20)
(2.33934 -0.652745 1.43212e-19)
(1.66483 0.107719 2.42108e-19)
(2.33582 -0.250048 3.19403e-21)
(2.32163 -0.105968 7.83004e-20)
(-1.54137 1.7693 -7.61068e-19)
(1.98571 0.135869 1.20501e-22)
(2.2508 -0.136618 0)
(1.05686 -0.381377 5.73502e-19)
(3.0578 0.837323 0)
(1.69163 -0.247577 -4.56346e-22)
(2.28599 -0.0769864 1.83149e-19)
(2.55304 -0.117142 -4.59489e-20)
(2.49635 -0.125119 4.68879e-20)
(0.381925 -0.259339 -7.84156e-19)
(1.9583 0.0544832 3.23188e-19)
(1.84155 0.0292775 0)
(-0.478228 0.366336 -3.61172e-19)
(2.22886 -0.199392 -5.10507e-20)
(1.65938 -0.367045 4.31675e-23)
(3.9281 -1.2723 7.44221e-19)
(2.36085 -0.0159334 0)
(2.3358 -0.227305 1.14994e-19)
(1.81207 0.132602 5.2185e-19)
(1.97967 0.0596132 4.05142e-19)
(3.03359 -0.483885 0)
(1.92603 0.0131742 -2.07782e-22)
(2.87678 -0.339821 -2.18582e-19)
(-1.43026 -1.0289 1.6949e-19)
(1.62389 -0.0733678 6.30854e-20)
(2.23315 -0.175785 4.85351e-20)
(2.0307 0.00584625 1.68715e-22)
(2.24716 -0.13995 0)
(2.51046 -0.247504 -8.09786e-20)
(-2.38082 1.92534 3.59636e-19)
(2.414 0.426707 -3.81994e-20)
(1.99813 0.0196362 2.65903e-19)
(1.39093 0.02805 0)
(1.72124 -0.23256 -4.9034e-20)
(0.842368 2.20957 0)
(3.12778 1.28884 -2.09349e-19)
(2.18006 -0.021682 0)
(2.25255 -0.665468 -8.81901e-21)
(1.36353 -0.144558 -1.38738e-19)
(1.5075 0.779951 5.54035e-19)
(-1.36396 -0.854143 -6.70592e-19)
(2.15735 -0.551914 0)
(2.372 0.0633565 -1.08494e-19)
(2.01919 0.178752 -1.76245e-19)
(0.810578 -0.5616 -2.85929e-19)
(-2.20276 0.48945 7.50593e-20)
(1.68677 -0.0691892 -6.78566e-19)
(3.08245 -0.339768 2.20122e-19)
(2.08378 0.184324 1.32487e-19)
(1.50572 -0.472224 0)
(1.38892 0.266365 2.91899e-19)
(1.64964 0.128543 -2.32388e-20)
(-2.25895 1.12222 9.5686e-19)
(-2.40719 1.83086 -1.24095e-18)
(1.05267 -0.610318 -6.31512e-19)
(3.12034 0.229556 0)
(0.838585 -0.610389 0)
(1.94343 1.1206 0)
(2.1496 -0.0734431 0)
(1.6208 -0.0835696 -4.8395e-19)
(2.43986 0.0568551 0)
(1.44105 -0.302857 0)
(1.69547 0.0748167 9.80917e-20)
(3.20525 0.289486 -5.23644e-19)
(2.22856 -0.136788 -1.40058e-19)
(1.71409 0.289513 8.92785e-19)
(2.00522 0.0163253 -8.98947e-20)
(2.20112 1.62467 0)
(3.09781 -0.235243 0)
(1.94205 0.056859 2.77697e-19)
(2.02816 0.0490827 4.97417e-20)
(1.30504 0.810244 0)
(-0.101359 0.132973 8.17313e-19)
(2.36471 -0.683725 -1.32503e-19)
(-0.118295 0.167743 0)
(2.33981 -0.0696093 9.55244e-20)
(1.98971 0.047461 -3.20783e-19)
(0.76239 0.307743 -1.3403e-19)
(1.05048 -0.368579 0)
(2.00449 0.183704 3.23242e-19)
(2.63528 0.240488 0)
(2.89864 -0.357375 0)
(2.20754 0.198743 -2.03926e-20)
(1.94922 0.0714284 1.51646e-19)
(0.310768 -0.204521 -8.77548e-19)
(2.27521 0.675693 4.61907e-20)
(1.38425 -0.364859 -2.31812e-19)
(2.15884 -0.0641388 2.44481e-20)
(2.08718 0.180057 1.04814e-19)
(2.63505 -0.248902 1.9805e-19)
(2.48638 -0.62699 0)
(3.51119 -0.377685 4.86005e-19)
(1.37011 -0.0852162 0)
(1.69384 -0.245149 2.70821e-20)
(2.28981 -0.133454 0)
(1.47093 0.0316616 3.7121e-19)
(-0.709137 -0.740536 -9.91929e-19)
(3.04248 -0.327981 0)
(-0.190152 0.121683 2.24924e-20)
(3.1189 -0.259672 -4.57129e-19)
(1.69835 -0.259576 -3.99504e-21)
(1.82578 -0.266189 5.51965e-19)
(1.40441 0.759443 -3.51001e-19)
(1.37379 -0.355547 -6.71773e-19)
(3.25791 1.27429 0)
(1.61287 0.0655776 2.76782e-20)
(-1.59335 1.97548 -1.90566e-18)
(2.00857 0.190539 0)
(1.85362 0.197373 1.96695e-20)
(2.98836 0.00259542 -3.42711e-20)
(2.60619 1.1451 0)
(2.00392 0.0147483 0)
(-1.47382 0.97441 0)
(-2.11343 1.54998 1.64016e-18)
(2.95971 0.710759 7.57442e-19)
(3.04175 0.78249 -7.0307e-21)
(2.22097 0.986264 0)
(1.75682 -0.178988 4.09538e-19)
(1.91816 0.0660865 1.17362e-21)
(2.27559 0.623677 -1.02651e-19)
(-2.42868 0.935919 1.37911e-18)
(1.91782 0.139556 0)
(1.99856 0.146778 0)
(0.790019 -0.152174 -4.10512e-19)
(1.47714 -0.464023 -1.5536e-19)
(2.00272 -0.167348 0)
(1.41194 -0.673435 -2.54019e-20)
(1.85137 0.0241265 -5.57049e-22)
(1.97323 0.108579 2.03565e-22)
(0.813049 -0.382457 0)
(1.98305 -0.0619965 9.02891e-20)
(1.65006 0.0958703 2.19703e-20)
(2.63408 0.216602 5.21299e-20)
(1.95464 -0.542193 0)
(1.16267 -0.0991013 -1.74199e-18)
(2.52351 -0.118512 5.04245e-20)
(2.00042 0.0739286 6.5981e-20)
(1.78993 0.0348904 9.14687e-21)
(2.55491 0.757875 0)
(1.69055 0.28618 -2.37648e-19)
(3.05709 0.625775 -1.61225e-19)
(1.20382 -0.579587 1.35526e-19)
(2.00659 0.0402181 0)
(-2.21482 0.456374 -7.73941e-20)
(0.538068 -0.13333 0)
(2.00378 0.0386079 -2.59479e-19)
(1.99269 0.051997 1.05797e-19)
(1.90643 0.0327331 -5.39881e-20)
(-2.15316 1.74563 0)
(2.2874 0.0218861 -1.30185e-20)
(1.12175 0.39665 8.13419e-19)
(2.44138 -0.626678 0)
(1.66739 0.0631232 3.04563e-19)
(2.69756 -0.203227 3.42662e-19)
(2.20426 -0.0172838 0)
(-2.46203 0.255696 4.09563e-19)
(1.92881 -0.643074 -7.37402e-20)
(2.04658 -0.000555631 0)
(1.11748 -0.187952 1.16546e-18)
(1.84295 0.187659 0)
(1.76838 -0.795487 1.01422e-19)
(-2.53094 1.81998 7.69181e-19)
(2.10313 0.15319 1.78346e-22)
(2.48459 0.177704 3.22148e-21)
(1.38402 0.247661 1.53197e-19)
(1.81642 -0.290834 -2.02034e-19)
(2.16195 -0.497999 -5.36324e-20)
(1.80596 -0.80013 3.9133e-21)
(2.2139 -0.181782 5.35e-20)
(2.53998 0.76355 3.07149e-20)
(2.02743 -0.86614 0)
(1.99777 0.0157198 -2.35836e-19)
(0.0731868 0.239131 -3.87077e-19)
(1.39773 -0.0969453 0)
(1.59252 0.231247 -8.53738e-21)
(1.50682 0.00976873 0)
(1.26424 -0.381966 5.86688e-19)
(2.22397 -0.753936 0)
(1.70542 0.00383957 -7.16236e-21)
(2.30131 -0.0802508 -1.04977e-19)
(-2.35971 0.0707589 7.64333e-19)
(-1.86062 1.16075 1.18911e-18)
(2.26475 -0.0116884 -9.61631e-22)
(1.49532 -0.697878 -8.66622e-20)
(1.85144 -0.506886 1.62653e-19)
(1.52765 -0.342429 0)
(0.35986 -0.184882 -4.64821e-19)
(2.50145 -0.532247 2.44685e-20)
(0.385704 -0.185668 -5.40864e-19)
(1.97301 0.125648 -6.15896e-23)
(1.49474 -0.584278 0)
(2.22321 -0.0227586 -1.60703e-21)
(-0.131992 0.209052 0)
(-2.71736 1.38868 4.69227e-20)
(0.515708 0.386144 1.60357e-19)
(1.13898 0.872414 0)
(2.15262 -0.489084 2.12394e-20)
(1.96958 -2.1445 0)
(2.62377 1.06598 0)
(1.54148 -0.721954 -1.34807e-19)
(1.48534 0.306443 2.36804e-19)
(1.66691 -0.843079 0)
(1.81731 0.156972 -1.45309e-19)
(2.8212 0.683362 4.29978e-19)
(-2.26579 2.00069 1.5758e-18)
(2.57876 1.38768 0)
(2.17701 -0.047192 0)
(-1.42886 1.93961 -8.20676e-19)
(1.92606 -0.110242 0)
(2.69227 0.00210096 0)
(-1.00199 2.72583 -1.05874e-20)
(2.12895 -0.339906 -1.59364e-19)
(1.80404 -0.419823 1.54164e-19)
(3.53307 0.0810861 5.50545e-20)
(0.353319 -0.167378 9.90472e-19)
(1.9933 0.0441375 1.20042e-19)
(1.56458 -0.372449 0)
(2.14749 0.470432 -5.64085e-20)
(1.45389 -0.224884 0)
(2.41089 0.0320339 0)
(1.99785 0.095823 0)
(2.19702 0.178807 -1.66743e-20)
(1.9097 -0.0463797 1.81637e-19)
(2.50346 0.157651 3.98986e-21)
(1.61235 -0.373906 0)
(0.321788 -0.218572 -6.38185e-19)
(1.97915 1.06335 1.06049e-19)
(1.95849 -0.681117 9.86032e-21)
(2.11236 -0.148989 -1.45211e-19)
(3.38976 -0.609508 9.73766e-19)
(2.04948 0.0668591 -1.83247e-19)
(-0.705921 -0.750036 0)
(2.50355 -0.113993 0)
(1.42518 0.777382 0)
(1.24849 -0.565597 -4.04558e-19)
(-0.907393 -1.49791 -1.03287e-18)
(1.6105 0.820161 0)
(2.1716 0.48489 0)
(2.47591 -0.252738 9.90393e-20)
(1.95267 -0.0280662 -3.88101e-20)
(1.8754 0.596994 2.86513e-19)
(1.98535 -0.796598 0)
(0.186247 0.165403 -2.48488e-19)
(2.41095 0.0731829 4.99405e-20)
(1.44343 -0.428518 -3.77901e-19)
(2.24248 0.0656737 -9.86273e-20)
(2.26684 0.629749 1.52004e-19)
(3.72443 -0.291886 1.13998e-18)
(1.24479 -0.571449 7.0902e-19)
(2.54202 -1.73586 5.02594e-19)
(2.54172 0.348713 -3.65462e-21)
(2.00064 0.00969391 -5.7969e-20)
(1.29443 -0.592795 -1.0028e-21)
(1.94646 -0.600869 3.08648e-20)
(1.53487 1.91633 -5.64858e-20)
(1.41908 -0.668184 2.20677e-20)
(2.58503 -0.0844083 0)
(1.56171 -0.303484 -4.05389e-21)
(2.20676 -0.0455298 -2.64414e-19)
(2.83601 0.842228 7.67003e-20)
(1.41243 -0.394458 -3.50768e-19)
(1.93724 -0.652972 -1.27015e-19)
(1.94346 -0.0118023 3.2668e-19)
(2.3827 -0.0539511 -1.86499e-19)
(1.33786 -0.261423 -7.44653e-20)
(3.06099 0.264328 -1.99613e-19)
(1.18616 -0.188277 -8.35071e-19)
(2.13512 -0.029779 -2.13064e-19)
(1.17127 -0.253053 0)
(-2.39245 0.204611 -1.90186e-18)
(1.90552 0.0369536 4.03487e-19)
(1.50325 9.82319e-05 -1.8299e-22)
(-0.69674 0.145694 0)
(1.73388 -0.770195 0)
(2.01204 0.422029 2.53729e-19)
(1.05229 -0.186474 5.26899e-19)
(1.65207 -0.980223 -2.42076e-18)
(2.27987 -0.656049 2.11783e-20)
(2.30072 -0.271371 4.11363e-20)
(3.11745 0.815767 0)
(2.01894 0.461665 1.4097e-19)
(0.020671 -0.703479 -1.36318e-20)
(2.39199 1.06601 -4.58589e-21)
(2.03581 -0.243113 -2.04557e-19)
(0.32687 -0.137501 -1.61378e-18)
(3.30039 -0.639395 -9.12863e-19)
(3.58504 -0.411012 2.56516e-19)
(2.17115 1.17887 0)
(2.56536 -0.587801 -1.11266e-19)
(1.91783 0.0300026 4.84403e-20)
(1.93114 0.0435773 -4.34771e-22)
(0.832531 -0.403377 6.74284e-19)
(2.01442 -0.242647 3.07967e-19)
(1.88759 -0.378451 3.16282e-20)
(-2.31601 1.9172 -9.09048e-19)
(2.61888 -0.247887 -2.08419e-19)
(2.26441 -0.0264186 1.9021e-19)
(-1.02684 2.41654 -1.34842e-19)
(2.30982 1.01054 9.73552e-20)
(1.29783 -0.254596 -1.26289e-18)
(0.993352 -0.484461 -1.93562e-19)
(1.95065 0.039426 0)
(2.74808 0.546305 6.37324e-20)
(-1.61068 2.63427 -6.65716e-19)
(1.3581 -0.171017 7.42351e-19)
(2.17595 0.118462 0)
(2.05276 -0.312727 1.179e-19)
(1.21297 -0.512462 1.65632e-19)
(1.99566 0.0309344 -5.15976e-19)
(-1.25972 1.16941 -8.35876e-19)
(1.67708 -0.811431 -1.15178e-20)
(2.23449 -0.14208 9.41258e-20)
(2.326 0.0668919 1.59573e-19)
(1.79377 -0.805397 -1.19291e-19)
(2.52355 0.217024 -8.00951e-21)
(-0.644985 -1.50822 -2.8856e-18)
(2.11754 -0.044719 2.4808e-19)
(2.15589 -0.0550507 -1.0708e-19)
(2.14869 0.0950789 -5.27865e-21)
(2.13142 -0.0321376 -2.20524e-19)
(1.15047 -0.518232 -3.204e-19)
(2.51507 0.323405 0)
(-2.53614 1.25394 1.29438e-18)
(2.11673 0.0716942 3.5473e-20)
(1.41485 0.197094 -1.419e-19)
(2.44458 0.0427112 1.2799e-20)
(2.25765 -0.310942 -4.12521e-20)
(2.00031 0.0133055 -4.2539e-19)
(2.08581 0.311844 7.94051e-20)
(-0.19963 0.200259 -8.41761e-19)
(2.72439 0.00635706 0)
(1.72538 -0.226779 2.56136e-20)
(2.56727 -0.124098 4.70306e-20)
(1.50489 -0.569542 0)
(2.14066 0.0723673 1.55664e-19)
(2.58787 -0.100168 5.04643e-20)
(2.6926 0.016649 1.83014e-24)
(2.87941 -0.692188 3.17172e-19)
(2.09222 -0.176569 0)
(1.78108 0.325428 4.43268e-19)
(2.03055 -0.627156 -6.79301e-20)
(1.37384 -0.657487 9.34039e-20)
(2.07044 -0.160453 0)
(1.48233 0.265253 -6.82646e-19)
(0.597755 -0.547456 -1.33416e-19)
(2.35726 1.45593 -1.17733e-19)
(1.19639 -0.21312 8.0966e-19)
(2.16117 0.0067664 -1.05285e-21)
(-1.76238 1.14883 9.14438e-19)
(1.98507 -0.0949463 -2.59664e-19)
(3.44914 -0.252533 -6.3444e-19)
(1.80121 0.13039 -3.0262e-19)
(1.95319 0.0107031 0)
(2.00215 0.024831 -2.17852e-19)
(0.624733 0.0294995 2.27962e-18)
(-0.362533 0.382856 0)
(4.27322 -0.830561 0)
(1.93091 0.0442352 0)
(1.28602 -0.532056 0)
(2.04061 0.306034 0)
(1.12334 -0.182222 0)
(2.52994 -0.999 -1.07278e-20)
(3.29633 0.799893 -3.27166e-19)
(2.59529 0.418473 0)
(1.7614 0.325273 6.68611e-19)
(1.05655 -0.642512 1.87415e-19)
(2.07435 0.18859 4.91129e-21)
(-1.41128 2.68367 -2.77091e-19)
(1.13071 0.0416063 1.49309e-22)
(-0.36176 0.40645 7.35011e-19)
(1.73245 0.00421869 -7.24758e-20)
(2.88415 0.0314238 2.43407e-20)
(2.0186 0.286612 -1.72827e-19)
(1.87811 0.165975 -4.15734e-19)
(1.92279 0.98326 -2.28617e-19)
(3.13064 1.24363 0)
(-2.43675 0.686119 2.51251e-19)
(1.28784 -0.398182 -6.42493e-19)
(2.01115 0.0249063 -6.69879e-19)
(2.51025 -0.544572 3.11245e-19)
(1.9865 -0.0226989 3.64351e-20)
(2.95013 -0.230424 -4.72456e-19)
(2.18237 -0.249747 -1.7249e-20)
(2.16353 -0.475364 -7.1786e-20)
(2.02099 0.160269 1.835e-19)
(1.68205 1.1043 0)
(2.13605 -0.433821 -4.75885e-20)
(1.7152 0.0542871 -9.19656e-20)
(2.39591 0.0641031 0)
(1.89965 -0.237112 0)
(1.87256 -0.836883 -5.54609e-21)
(-2.29228 1.4021 1.01002e-18)
(2.47494 -1.05637 -3.65416e-19)
(1.79617 -0.0414904 0)
(1.95002 -0.0537345 -3.6144e-19)
(1.81514 0.195861 -8.06405e-20)
(-2.66069 0.844811 7.3586e-19)
(2.62103 -0.0571171 1.74955e-20)
(-0.644218 0.568075 0)
(-2.47261 0.719707 2.95754e-19)
(2.61527 -0.0839778 0)
(2.53799 -0.628081 1.17833e-19)
(2.29804 -0.224444 -8.25052e-20)
(2.00158 0.0213147 7.83381e-23)
(2.32609 0.702028 -1.98953e-19)
(2.57436 1.27881 -2.74309e-20)
(1.80239 -0.488869 3.52074e-19)
(-1.66675 -0.20855 0)
(1.66534 -2.52897 -1.69704e-18)
(1.19719 -1.27771 0)
(2.65706 0.417574 -2.64259e-20)
(-2.72823 1.08082 1.39455e-18)
(4.46564 -0.825439 9.70914e-19)
(1.74814 -0.221504 -2.57497e-20)
(-1.8023 2.25305 -1.99431e-18)
(1.18844 -0.582557 -1.07885e-19)
(1.33083 -0.40395 -3.65435e-19)
(1.63429 0.118112 8.3957e-21)
(2.149 -2.57752 1.39766e-18)
(1.19218 -0.533659 2.64122e-19)
(1.38939 -0.426681 3.93624e-19)
(-0.846889 -1.25649 1.22103e-18)
(2.76191 -2.25687 -8.55557e-19)
(1.91722 -0.568318 1.3892e-19)
(-1.3504 -0.898345 7.11437e-19)
(2.42371 0.0337818 -5.71875e-21)
(1.04247 -0.702011 -1.57911e-19)
(2.31955 0.444236 -6.46146e-20)
(2.38754 -0.40442 0)
(1.12956 -0.545184 -1.30633e-18)
(2.10575 -0.0416304 -3.11576e-19)
(1.99509 0.103804 0)
(2.62927 0.390453 0)
(0.89327 -2.58558 -7.38665e-19)
(3.74071 -0.0114885 -6.04435e-19)
(2.44361 0.24605 -6.52389e-20)
(2.12382 -0.331327 2.07284e-19)
(1.90815 0.948151 2.03732e-19)
(1.40324 -0.0193886 2.0177e-19)
(-2.72842 1.30205 -7.87676e-20)
(1.77052 0.602842 0)
(1.42195 -0.457022 3.70569e-19)
(-0.336755 1.08806 1.73294e-19)
(-1.92538 2.13092 1.53436e-18)
(1.79298 -0.667093 5.16208e-20)
(1.75873 -0.770519 1.31107e-19)
(1.63271 -0.0126857 1.11411e-19)
(1.82037 -0.206213 1.57591e-20)
(2.95388 -0.491761 5.07347e-19)
(-2.63194 1.27045 -9.28813e-19)
(2.42478 0.236846 5.07611e-20)
(1.96648 0.0502647 1.59727e-19)
(1.16419 -0.242584 -3.32132e-19)
(1.93342 -0.0865078 2.20492e-19)
(1.20606 -0.269508 0)
(2.41338 0.420359 7.29011e-20)
(1.99806 0.0503335 3.58912e-20)
(1.51175 -0.314421 -1.20711e-19)
(1.75581 1.74319 -2.12922e-20)
(1.88461 -0.556835 1.15389e-19)
(2.10317 0.0327042 6.41201e-20)
(1.39243 0.106508 -5.12792e-19)
(2.42045 0.0232269 0)
(1.73473 -0.204004 -5.05058e-20)
(2.2567 0.0882605 1.33849e-19)
(2.29952 -0.166652 0)
(1.42366 0.00330184 2.87409e-19)
(2.62936 -0.057448 0)
(1.65971 1.73839 2.48146e-19)
(2.3259 -0.0314223 0)
(2.13127 -0.482361 0)
(2.49212 -0.046464 3.13241e-20)
(2.41797 0.185877 5.08048e-20)
(2.99945 0.389528 -2.69823e-19)
(1.92474 0.127231 -1.90327e-19)
(1.53496 1.12773 -1.54212e-19)
(1.99921 0.0803287 -8.14272e-20)
(2.06718 0.314313 0)
(-0.771485 -0.0507745 -3.33395e-20)
(2.53635 0.174273 8.50454e-21)
(2.47813 -0.615083 -2.37584e-19)
(2.37569 -0.399189 0)
(2.86974 0.831172 1.21635e-19)
(2.07494 1.61234 -5.19581e-22)
(2.3847 0.0186405 -1.93223e-20)
(0.794431 1.59833 0)
(-0.782916 2.73719 8.3288e-19)
(2.03986 0.158324 0)
(2.94753 -0.413051 -2.46238e-19)
(-0.289731 0.0627053 0)
(1.66217 0.0696919 0)
(2.55977 -1.94564 0)
(2.16794 -0.754815 0)
(-0.482728 1.60176 -1.10956e-19)
(-2.10941 1.37072 -3.65226e-19)
(1.89893 -0.0398609 -2.7302e-19)
(-2.5091 0.188777 -9.67462e-19)
(1.27521 -0.560433 0)
(-2.15756 -0.130203 -8.37931e-19)
(-0.42308 0.0297462 -7.84836e-19)
(1.53886 -0.718103 0)
(1.50652 -0.53243 -3.73638e-19)
(1.34973 0.0225606 -1.40353e-20)
(2.30745 0.427095 1.62053e-19)
(2.73352 -0.704933 -2.54134e-19)
(1.8685 0.153186 0)
(2.37065 -0.628404 0)
(3.2644 0.588378 1.26119e-19)
(1.94339 -0.531431 7.82625e-21)
(1.61932 0.0274763 -2.17226e-20)
(0.856941 -2.45122 6.18838e-20)
(1.999 0.00618943 1.62398e-20)
(2.73245 0.551619 -1.25238e-20)
(2.02045 0.16159 2.6326e-19)
(1.7043 -0.221014 2.62756e-20)
(1.96605 -0.498241 0)
(0.466042 -0.274701 0)
(2.53149 0.188403 0)
(1.71729 0.0247576 0)
(1.78624 -0.313716 1.50048e-19)
(3.0229 0.0894576 0)
(-0.865449 2.56108 1.49226e-18)
(3.07307 -0.719244 4.66896e-20)
(1.35682 -0.443015 -5.94514e-19)
(0.996093 -0.599975 -9.46404e-20)
(-2.42675 0.971359 -6.94546e-19)
(-0.61097 2.4949 -6.78976e-19)
(1.86102 0.0544761 5.11355e-20)
(-2.60849 1.66665 -8.47232e-19)
(1.68758 -0.227703 4.23634e-20)
(2.53528 -0.0313094 0)
(2.36254 -0.172227 0)
(1.38098 -0.498872 0)
(2.25981 -0.327822 1.81417e-20)
(2.50953 -2.10817 0)
(1.79741 0.609623 0)
(2.00228 0.00887917 0)
(1.82579 -0.425263 1.43726e-19)
(2.07426 0.189878 -2.65321e-19)
(1.58296 0.0289142 0)
(2.65618 -0.962101 -3.37793e-19)
(1.97572 0.161429 -2.40096e-19)
(2.40361 0.982155 6.85724e-21)
(1.57594 -0.731206 1.81347e-19)
(1.86944 0.660467 1.54899e-21)
(1.91312 -0.767534 -6.09748e-21)
(1.8645 -0.261924 3.50541e-20)
(2.18134 -0.639411 -1.03504e-19)
(2.39871 0.191246 -6.55558e-20)
(1.63318 0.0506891 -4.56382e-20)
(1.84051 0.0611955 -2.82661e-19)
(2.11983 -0.0427319 0)
(1.38716 0.197443 1.05755e-19)
(1.97954 0.0551063 2.96564e-19)
(0.214719 -0.826573 -1.24047e-19)
(2.17411 -0.2392 -5.46819e-20)
(1.08214 -0.206415 -5.74645e-19)
(2.41673 0.168948 1.05017e-20)
(3.07065 0.64939 2.31445e-19)
(1.99719 0.0685724 0)
(1.48223 -0.287356 -1.56115e-20)
(1.78554 -0.0836406 -1.62609e-20)
(2.21849 -0.655032 2.17703e-19)
(-2.47234 0.907327 -1.54536e-18)
(2.08785 0.0369725 1.3652e-19)
(2.54966 0.29066 3.53015e-21)
(2.20811 0.0146324 8.30367e-22)
(2.47518 0.16657 0)
(0.846546 -0.370158 0)
(1.39136 -0.664453 2.43323e-19)
(-1.20615 1.03351 9.03244e-19)
(1.94515 0.0246065 2.29215e-22)
(1.97876 0.0556954 5.89126e-19)
(1.47698 -0.29185 5.06019e-20)
(1.45285 0.249812 0)
(1.81509 0.0804376 0)
(1.64665 -0.36065 -6.451e-21)
(2.41137 -0.00863063 4.89345e-20)
(1.91438 0.646035 3.93565e-19)
(2.35293 -0.114614 0)
(2.13674 0.0122686 0)
(2.20402 -0.536567 2.4692e-20)
(2.04611 -0.149914 1.79996e-19)
(-0.580245 0.245699 -2.78547e-19)
(1.71847 -0.0803101 0)
(1.16398 -0.0591635 1.09788e-19)
(3.06383 -1.05264 -1.59108e-19)
(-1.68492 2.48887 -7.53956e-19)
(2.06136 -0.0222771 -2.78305e-19)
(3.72428 0.630919 0)
(3.74618 0.065669 4.89368e-19)
(1.26346 1.37032 -2.03944e-18)
(-0.296349 0.0633645 0)
(1.75109 0.0337664 -2.85801e-20)
(1.92867 0.0962424 -1.96895e-19)
(1.70759 0.0161772 -1.16872e-23)
(2.27213 -0.198886 4.84466e-20)
(1.20814 1.04196 2.95428e-19)
(1.8612 0.0460905 0)
(1.07192 -0.404513 -5.71826e-21)
(1.44582 -0.296137 -4.80348e-20)
(1.15482 2.04279 -1.16597e-18)
(2.02981 0.288459 2.05106e-19)
(-1.4605 -0.215831 2.92472e-19)
(2.03876 0.0267876 -6.17629e-19)
(1.79262 -0.346757 -1.59277e-20)
(1.80246 -0.250373 2.90586e-20)
(1.78445 -0.388567 0)
(1.73729 0.016377 -8.51269e-20)
(1.11921 -0.521374 2.10747e-19)
(2.27174 -0.0810978 -2.11502e-19)
(2.00096 0.0500567 -2.65373e-19)
(2.92239 -0.419456 2.19227e-19)
(1.7062 -0.171344 6.16848e-19)
(2.32811 0.0239113 7.73965e-21)
(1.80159 0.0839493 1.68654e-19)
(1.56599 0.216866 -3.48174e-20)
(3.52402 0.12505 -6.06333e-19)
(2.3286 1.08537 2.53182e-20)
(1.80141 -0.875237 1.89708e-18)
(1.87877 -0.0194582 0)
(1.49937 -0.45195 0)
(2.41066 0.221396 0)
(1.35505 -0.410324 4.65262e-19)
(2.15644 0.0695818 -4.33336e-19)
(1.79877 0.211064 0)
(1.55656 -0.328228 -3.48381e-19)
(1.79423 0.180956 0)
(1.79556 -0.286016 -2.45628e-19)
(2.45214 -0.647907 -2.56924e-19)
(1.93665 -0.46986 -1.60041e-19)
(1.94082 0.046177 0)
(1.97389 0.0434154 0)
(2.33482 -0.18035 1.29232e-19)
(2.57106 0.35285 1.37753e-21)
(2.9557 -0.0590948 1.9768e-19)
(2.23321 1.70108 -6.6953e-21)
(2.30426 -0.147736 0)
(1.80249 -0.646828 -8.44914e-20)
(-0.259905 0.427896 0)
(0.854058 0.881072 -3.03312e-19)
(2.58556 1.27046 0)