/*--------------------------------*- C++ -*----------------------------------*\
| =========                 |                                                 |
| \\      /  F ield         | OpenFOAM: The Open Source CFD Toolbox           |
|  \\    /   O peration     | Version:  2306                                  |
|   \\  /    A nd           | Website:  www.openfoam.com                      |
|    \\/     M anipulation  |                                                 |
\*---------------------------------------------------------------------------*/
FoamFile
{
    version     2.0;
    format      ascii;
    arch        "LSB;label=32;scalar=64";
    class       volScalarField;
    location    "9.2";
    object      p;
}
// * * * * * * * * * * * * * * * * * * * * * * * * * * * * * * * * * * * * * //

dimensions      [0 2 -2 0 0 0 0];

internalField   nonuniform List<scalar> 
5098
(
0.344421
0.837887
0.121662
0.781148
-3.38075
1.16617
0.531229
-1.11904
0.135134
0.762509
-6.21941
0.218535
-0.817961
1.66056
-0.840987
-0.043834
-6.35932
-5.04525
-1.65701
-6.06009
1.55523
-0.043784
-1.42008
2.6376
-3.15303
1.08087
1.22888
-0.266182
-1.65173
-2.35313
0.14662
1.94606
1.08461
-5.47595
0.27956
-1.21248
0.320643
0.895243
1.54404
-1.05789
0.710988
-4.33862
1.02588
0.299971
0.500208
0.902697
-5.59297
2.0336
0.107802
0.85725
0.657519
1.76552
-2.69594
0.682204
1.18136
1.68313
1.42154
0.571832
1.95831
-0.311569
0.0696305
-4.83158
0.282933
-0.59486
-2.70211
1.7032
-0.0230633
0.603719
0.154276
0.400891
1.4084
-0.0672718
-0.650607
-0.261858
-0.119145
0.845587
-0.0875093
1.80817
0.469166
1.62758
-0.356963
-1.18445
1.01124
-5.65384
-5.3149
-2.57203
3.10897
-0.102927
-1.04215
0.0557256
-0.115808
-2.32888
0.218981
0.789252
1.54927
0.428525
0.335796
1.91839
-0.0945346
-0.262631
-10.3438
1.072
-5.5424
-0.0954902
1.76953
0.498548
1.35825
0.555545
2.08905
-5.98223
0.567344
-1.46814
0.869847
-2.72898
1.50846
-1.70773
-1.81222
-0.0591974
-0.175221
2.58154
1.71195
1.22798
0.669862
-2.8766
-2.37033
-5.81821
0.58663
-1.2751
1.79189
-2.69779
-3.29293
1.84825
1.79975
0.103542
-8.53543
-2.46972
0.228621
1.32969
1.54224
0.642195
1.82684
-7.70033
-0.465867
0.128664
0.908244
-0.0937677
0.235696
-3.55416
-0.704077
-1.01845
-5.46189
-2.49127
-4.29309
1.10659
3.10351
2.42472
0.585264
-9.8256
0.716257
-1.70616
0.147352
-0.96515
-2.38623
0.935405
-4.02033
0.239957
-3.863
-1.75129
-3.0951
0.639034
0.342352
0.872897
0.866715
-0.227836
0.223655
0.979255
0.965198
-1.1341
1.10387
3.0256
-0.578184
-1.72484
0.464871
-3.81248
0.893839
0.0603235
1.8757
0.293376
0.797679
-2.97486
-1.56635
0.199507
-0.764963
-0.13561
0.212986
-2.51498
-0.350625
-2.43623
-0.003067
0.567353
-2.86081
1.6966
0.515223
0.831924
0.672383
2.41461
-0.215018
1.59438
0.257273
-0.81324
0.742266
1.64707
-0.0567642
0.866767
-0.866732
-1.61209
-0.158666
-5.89122
-2.27709
1.006
-0.112263
1.21887
-0.0629694
-0.194521
-2.67765
0.577141
2.87187
1.24306
-0.11675
-3.91432
1.56831
2.6363
-0.485283
-0.0128683
0.214094
0.213542
1.68637
-2.54469
-1.2713
1.18799
-1.2494
0.845086
0.0144512
2.1996
1.46393
0.178532
1.58277
-5.87081
-6.33492
0.175517
0.950028
-0.384785
-1.71497
-2.64179
1.12582
-2.59112
-8.47355
1.01118
1.9686
-0.126976
0.0316117
-2.7026
-3.00005
-0.621246
-0.0394956
-4.45826
-1.70658
-6.44024
0.636571
1.21929
-2.96011
0.451289
-1.69064
0.659609
1.90936
-4.42364
-4.8738
-5.70628
-1.91742
0.771839
-3.20795
-0.944036
-2.70042
-0.995584
-6.52382
-8.46963
1.14708
-0.103479
0.23542
0.221208
-2.9008
-2.49103
2.28538
0.530449
-0.320118
0.887425
0.17949
0.188866
1.22381
1.0687
-0.11422
-0.207588
1.11259
1.43983
-4.44992
0.059889
-0.126657
0.991937
0.527794
-5.66896
-0.07431
-1.83141
1.1042
-0.263217
-0.983408
3.05165
0.222785
-0.0723021
0.244117
2.31391
0.445084
-2.37343
-1.11345
-1.82887
-0.0903029
1.60745
1.00732
1.23292
2.0418
-0.163611
0.339087
0.2356
1.54803
-2.21995
0.320553
0.619426
-0.421634
0.887242
0.431434
0.567521
-0.552782
0.45574
0.424788
1.24509
-1.60684
-0.084386
0.56987
-1.75457
-0.079569
0.211643
-3.14958
2.5863
2.26906
-2.9549
-0.293827
-3.12413
-2.93189
0.228836
1.76362
-0.155791
1.2595
0.0169505
0.278146
-0.10575
0.2594
1.95611
1.25143
1.11916
-2.2417
-2.63055
1.80964
0.340743
-1.41564
0.00826291
-0.13172
-4.83594
0.494845
0.271905
-1.49846
-0.115943
0.727748
-6.04827
1.20146
-0.252894
0.157032
-0.685993
0.365298
-2.55749
0.761754
-7.01677
1.23393
0.357017
1.24866
0.590466
1.57408
-0.646429
0.905966
-2.19238
0.823714
-1.12692
-2.6262
2.32199
1.80668
1.24012
-1.69812
0.798327
0.564042
-4.12109
0.105559
-0.877241
1.23829
-2.3987
-2.67666
0.580247
-0.264446
-0.874554
1.41467
2.59852
-0.448892
0.0203764
0.661008
1.43513
0.302983
1.02127
-3.25818
-2.35483
0.0229289
-2.80043
0.307246
-0.233791
-0.0457767
-1.68246
-0.00905953
0.0904887
-0.504781
-1.81272
0.0216248
-1.32965
1.19234
-0.400323
1.10597
0.468736
1.1532
-6.75363
1.75013
-0.248499
-1.69975
-0.780542
-1.61183
0.568276
-5.99251
0.195812
1.24281
-7.03007
-6.26681
0.173156
-4.25058
-0.447501
0.176894
-1.11611
0.974986
-0.214548
2.50993
-0.443212
0.798398
-5.40265
-2.76208
-3.5127
-4.54682
0.64803
-1.5974
-2.37657
-3.21458
-1.24848
1.22498
-1.3075
-1.65208
1.28538
-1.259
1.0626
1.55553
0.346527
-2.55106
-0.78739
0.352417
0.205479
0.789866
-1.01336
1.00103
0.761065
-1.38717
-3.5161
0.375134
-0.388032
-2.06721
-0.0114504
1.3414
-1.92678
1.18546
1.15058
-4.98876
-1.43837
-1.70496
-5.72178
-1.70083
-2.43433
1.16164
1.06585
-0.828157
0.201547
-2.2874
1.2385
1.8282
0.25478
0.969756
0.533972
2.31868
-2.69538
-0.833094
2.10954
-4.06536
-2.75721
2.2604
-0.139845
-1.91367
-0.00685934
-1.25676
-2.23778
-0.276736
-2.21529
0.329499
2.83297
-4.25149
0.553206
-9.27884
0.485991
1.15289
-0.331913
-2.65978
-6.59487
1.24319
-3.87315
-2.69442
1.14528
-6.74098
-4.73216
0.285558
-8.11547
2.96766
-1.6684
-0.336095
0.433409
0.0439736
-1.83389
-0.716018
-6.35561
-3.60303
1.16278
-6.04258
-1.09397
-6.29025
-2.28335
0.876132
-2.6593
-4.10074
-3.34367
-1.87984
-0.142628
-3.15555
-1.9511
-1.79097
-2.71236
-2.26844
1.49203
1.77495
3.05776
-3.36789
1.09579
2.07175
-10.2275
0.625837
-6.21384
0.993053
-6.46918
0.710441
-0.441751
-0.123055
1.2849
1.27929
-2.69434
-2.35401
2.42989
-0.453541
-4.57642
0.400487
0.901887
-1.38117
1.1158
-1.26208
-1.04412
-0.232028
2.29101
-2.19497
-3.75815
1.86391
-7.97388
1.62491
-3.38624
-2.70369
-2.94948
-8.36634
-2.70009
-2.0528
1.72925
-1.24427
-0.99139
1.81723
-0.824735
0.680115
0.594582
2.32614
-1.74221
1.33066
0.816927
-0.133158
-0.314958
-2.73114
-0.897239
-3.42277
0.0152532
-4.04918
-0.255848
1.90046
-2.96194
-0.0748178
0.735582
2.52707
-2.6843
2.04882
3.00147
-1.04896
0.230842
-0.868934
1.24804
2.00412
1.62951
-1.56198
-0.191436
-0.175018
-4.06859
0.253287
0.277417
0.700254
-7.9079
-0.0393819
-1.33169
-5.84251
-0.865532
-0.28409
-0.0704308
0.730076
0.669267
-6.15532
1.99373
0.979503
1.77409
0.659893
-4.65406
-0.582759
-0.266136
1.91748
2.49526
-1.75541
1.48846
-4.32627
-2.99137
-3.49509
0.766984
-1.6401
-1.69745
-4.33489
-5.7572
-0.460647
0.0733119
-1.14546
0.09383
1.16271
-1.68347
1.09717
-0.0546803
1.14851
-2.69089
-8.54684
0.018007
2.09943
-3.07549
-6.94795
-0.394198
-1.74092
0.623493
-3.22971
-1.60852
1.7603
-4.45158
-5.23887
-1.98567
-6.97218
-1.65966
0.821345
0.502229
2.65634
2.06708
1.70269
-3.59261
-2.54964
-1.59912
-1.70611
0.694785
-2.51485
-2.22856
-2.8624
-4.2171
1.40868
-2.566
0.51964
-3.1726
1.6439
1.22877
-3.43512
0.688712
-1.84389
2.68569
-0.171914
-0.322686
-0.979601
-4.64921
-8.58662
-4.81688
-2.29125
1.69051
-1.87104
-0.929012
-2.50664
-2.80121
-0.968382
-4.63117
-0.649063
-0.301175
-0.0714374
0.759308
-4.04633
0.90639
1.74797
-2.81715
-1.05582
-3.43288
0.768956
-1.70108
0.699054
-1.11059
-4.12636
0.0405496
-2.54552
-4.27304
-3.07923
-9.04631
0.967676
0.161956
-1.54731
-1.63581
-1.32136
1.23346
0.542742
-2.65537
-3.77997
2.79544
-0.720325
1.64702
-2.89977
1.0304
-2.66404
-4.25418
0.336484
-2.72346
-6.09446
1.86827
1.81137
-5.26485
0.146218
-4.73963
1.40143
-2.15809
-2.66427
-2.69471
-2.92471
-1.73116
-0.113887
0.24218
1.17712
-0.0902802
0.40485
-3.07784
-0.555388
-5.62823
-2.40444
1.14094
-1.5656
1.92296
-0.779045
1.61329
0.932493
0.674441
-5.93972
0.356131
-0.557547
-0.373701
1.11276
0.743128
-0.369492
-2.09429
-2.68937
-10.3785
-4.86643
1.10285
-0.105244
0.851803
-2.59808
-3.05299
2.99083
-4.91412
0.740129
-0.0305292
1.74546
-2.10392
1.59888
-6.15458
-4.24872
2.06359
-5.48775
-1.69939
1.06426
2.18917
0.676066
0.095339
-0.790327
-0.600322
-3.34146
-1.35786
-2.50525
0.590283
-3.54766
-1.91647
-2.69804
-0.768478
-0.010456
-1.67045
-0.732212
-2.48248
1.14004
0.647076
0.186332
-9.8985
-2.15142
1.81582
-2.6968
-0.902281
-2.57772
0.185746
-2.596
-2.65675
-2.54796
-0.455987
-0.227448
1.30717
-2.68165
-7.79253
-1.87379
0.0679427
0.0389059
-3.05942
0.315825
-2.69424
1.25101
-8.96366
2.44686
2.05688
-0.295913
1.23655
1.37888
1.42664
2.48507
0.903665
-3.37062
-9.91205
-3.38416
-10.5502
0.00555867
-3.02023
1.25613
-2.03904
1.3984
1.54812
0.0323196
-0.0088675
-4.58578
-0.520952
-1.13335
-0.258778
1.87445
0.676318
0.351665
0.485389
-2.73364
-10.5827
-8.11337
-1.92976
-0.999871
0.327314
0.57959
-6.47948
-2.45361
2.01951
0.498929
1.69988
1.68743
0.745347
-0.385222
-0.52848
-0.715997
-2.74323
0.889104
-0.088788
-0.479378
1.29771
2.19654
-4.43056
-0.402041
0.601877
1.53591
-6.46565
-0.568051
-1.91326
2.61896
1.15764
-2.19071
-0.0369658
0.103152
-5.04584
1.29909
1.28515
0.225994
0.945184
-2.00208
-6.91626
0.357123
0.705804
1.84097
0.142314
1.63843
-2.7701
-6.44746
-2.625
1.28606
1.66655
-1.59752
-0.741289
2.59848
0.838173
-0.00959523
0.23787
2.42279
0.825435
0.429237
0.566431
1.09772
-0.434627
-0.717236
1.3914
2.89043
0.275504
-9.22147
-1.9387
-0.784956
-3.099
1.62778
1.1549
-1.22144
-0.127562
0.829167
-0.171119
0.37306
0.0537574
1.47954
1.45171
-1.86434
2.37516
0.756417
-1.63721
0.00540077
0.0858994
-0.0582046
0.215548
0.815428
1.03931
0.75458
0.343696
-6.85136
-8.18677
0.854309
0.342589
1.77279
-2.43328
0.789741
0.809569
-0.200096
0.943306
1.48011
-0.010947
0.021881
0.0407458
1.3054
-1.63625
-0.781699
-0.741207
1.56569
0.330201
1.09836
2.26035
-3.27486
2.15864
2.55644
-0.859613
-1.12624
-4.20729
2.90652
-1.63764
1.08992
2.381
0.976673
-2.70806
1.17512
0.233903
2.6242
-0.705112
0.376478
2.72955
2.03407
0.0632927
2.66824
1.7587
0.163796
-5.04095
-3.50852
0.00196373
0.00591184
0.667027
1.68063
-1.78779
-0.245335
1.24941
-0.195814
2.23267
-0.829624
2.54953
-1.80662
-3.4622
-0.454668
-0.894197
1.7631
-0.00456569
0.295467
-4.41564
1.70409
0.258805
1.34122
1.04214
-5.53291
0.374867
-0.226451
-1.43074
-0.254002
1.93717
0.522693
-0.0586687
-0.294739
-0.423082
-3.96181
1.65145
0.168716
1.06198
-0.424157
-2.9134
-4.68888
0.351461
-0.0847604
2.2714
-0.522651
0.342398
-4.50486
-9.11173
1.50642
2.36119
-3.4699
1.41268
1.02407
-4.16018
0.67143
-1.2899
2.85342
-1.45213
-0.970992
1.03353
-8.89837
1.93058
-2.78478
-2.83287
-0.0478219
-2.25294
-2.67686
-2.76586
0.567301
-0.24391
-2.69859
0.000782776
0.705652
-0.911875
1.36497
1.99581
1.27244
1.36946
-6.71219
-6.53394
0.129403
0.437487
-2.03334
0.00446262
-0.0679783
-0.000630215
0.597394
1.62591
0.922086
1.00776
1.18251
-1.10913
-0.396386
-1.91886
0.162241
-1.55817
2.60963
1.25989
0.966255
-6.54513
-0.685836
0.673711
-0.190046
-5.1148
-1.66993
-0.643159
-0.935559
0.600396
-2.21165
-0.18407
0.646243
-2.69741
0.40107
1.96799
-0.900017
-0.946643
-0.287237
1.37614
-6.57941
0.294168
-10.5678
-0.000494212
-6.19232
-6.18859
0.928696
-3.18921
-0.816184
-0.583177
-3.74777
-6.13678
-2.67109
1.33138
0.235985
-4.55609
1.89853
-2.78113
1.098
0.263467
-1.76379
-0.478896
-1.88798
-2.91155
0.107747
1.23456
0.929093
0.432223
-2.69363
1.67375
-5.57986
-1.0007
0.00570694
-3.02087
-0.162829
0.0317497
1.50352
-2.80322
-1.71078
-9.6627
1.17581
1.32389
-4.19017
0.318204
-0.0410531
-0.119181
0.197746
0.247317
-0.192624
-3.83512
-4.30801
2.11233
0.299012
-0.0515661
-0.464211
0.00106113
1.31329
-3.7517
-0.678224
-7.98822
1.19354
-0.130687
-0.0222088
0.233507
-0.00135268
0.603523
0.398888
1.00149
-0.287618
-2.17669
0.23819
1.46542
-0.119061
1.02456
1.02949
1.38603
1.22811
0.710967
0.987489
2.41342
0.35259
-0.937129
-0.607851
-3.17357
0.241156
-0.655024
0.947555
0.479783
2.35056
-0.0565658
0.224105
-7.95419
0.000281219
-6.66427
-0.415569
-2.86673
0.49168
-8.25859
0.628857
1.08933
1.31425
-2.8739
1.43392
-2.74771
0.716465
1.32096
0.884641
-5.8082
-1.43772
-5.38058
0.607205
-4.75204
-1.72846
0.87113
-0.726804
-0.0609171
0.994377
1.82707
-0.707794
1.94426
-0.158182
-2.76821
-1.50372
-0.712922
-0.0756021
-0.553331
-2.5961
2.13766
-0.00221528
0.942571
-2.57404
-6.8639
1.67765
1.55792
0.00347935
-0.149067
1.33006
-2.18101
-0.224539
1.20803
-0.563898
-0.627127
-1.05623
-0.586964
2.20288
-2.65343
1.20126
-0.154763
-0.124716
2.66902
0.492297
0.0228217
1.29486
-10.5704
0.923208
1.10248
0.370126
1.24284
-0.0808219
1.18382
1.3488
-0.097269
1.44034
-3.54693
-1.77189
0.00335434
-1.78581
2.0294
-2.69738
-2.11434
0.473481
-0.269932
-0.831238
-2.7981
0.620903
0.144328
1.01746
0.829137
-0.654794
-3.28171
0.103895
-8.72464
1.48422
-1.42482
-2.68225
-1.50038
-7.56245
1.1745
-2.70822
-2.77193
1.29017
-2.74186
0.81171
1.25581
-2.64264
-2.84378
1.19015
2.03738
-2.23497
1.21727
-2.40697
-1.03398
-3.33228
0.283047
-0.832041
-2.9025
2.49519
-1.84166
-2.44021
-0.0107541
-0.814604
1.3875
-0.61482
-1.94665
-2.86469
-4.04328
-9.44668
-2.64969
-0.882366
1.73672
0.19987
-5.04953
-0.00372381
-2.69929
2.28645
2.53765
-2.67626
-0.558036
0.173802
-2.76886
0.208967
2.16844
-1.33783
-2.55665
1.20457
1.21487
1.18487
-0.887834
-0.390209
0.000454905
-1.19014
-0.757756
-0.858069
1.09542
-0.584385
0.319863
0.00147421
1.24492
1.07552
-0.408256
1.05372
1.18905
1.19707
-0.116662
2.21807
-0.814676
2.03853
-0.123711
1.91043
2.83779
-0.0980242
0.0956398
0.779065
1.27186
-1.6047
0.989956
-0.282355
-0.254205
0.294743
1.4114
0.413098
0.507485
1.256
-0.985822
-3.17454
2.66994
-2.69376
0.633194
-4.20366
-0.459257
-2.63586
1.12252
0.54272
1.07941
0.690851
-0.821742
-0.331238
0.831239
-0.150773
-1.09335
-2.8449
0.55601
-3.55464
0.269735
1.06201
2.50426
1.2411
1.08842
0.949868
0.384306
2.30357
1.12203
1.2392
0.684167
-6.18335
-1.65939
0.128017
-0.712767
2.70717
-2.74278
0.186219
0.000421647
-0.697795
2.47929
1.08557
0.113898
-4.62118
-0.487904
-0.841125
-0.162709
1.23172
1.66916
-0.288744
1.56971
0.166466
2.24638
-2.08211
-0.279896
0.774797
0.456897
0.487669
1.68545
0.703612
-0.0646805
1.15947
-0.0769681
-9.07144
1.41825
1.7605
-0.51133
-3.08331
-2.68829
-1.77467
-0.734843
-2.79421
0.0592553
1.23751
-0.118768
-0.826368
0.416933
-1.91178
-0.749761
-0.171714
-2.2924
-4.19747
0.207206
-2.69741
-2.77878
0.815951
1.24803
1.07718
-5.71822
0.945526
-1.29213
1.31532
2.16136
-2.7787
-0.0116091
-0.148378
1.90246
0.395196
-6.3671
-0.572906
-1.80407
-0.175026
0.106874
2.26716
-0.146247
0.000716844
0.965003
-0.548532
0.000168524
1.14098
0.219893
-0.504762
-1.72413
-2.87077
1.00086
-2.62549
-0.167847
-1.38744
-3.0363
1.21922
1.16473
2.48072
0.195784
2.41664
0.169633
1.58854
-4.64513
-1.95866
-8.6662
1.60267
0.856398
0.21839
0.385605
-2.64414
-7.03101
0.00317136
-0.381706
-0.134459
-0.455996
-0.235146
0.115014
1.13026
1.34796
-2.03755
0.0572251
0.109781
-0.385677
-0.272439
1.14326
-0.416615
1.05418
-0.928445
-0.123416
1.29456
-2.40526
-0.586694
-0.000540379
-0.3015
-2.26471
1.17735
-1.64832
-0.115926
-0.170341
-3.05661
-1.6835
-0.189049
1.83933
1.60073
0.000811899
-1.55767
-7.37535
1.05785
-0.0425784
-0.53217
-0.00376134
0.234307
0.0939902
-0.132773
-1.62219
0.000488513
0.950122
-0.235337
0.218847
-3.15025
-1.95065
1.06057
0.912049
0.0413351
0.245768
0.863971
0.750306
-0.542942
-0.656286
-0.214385
-6.5994
-0.119717
0.949501
-2.95015
0.0653927
0.0672701
-0.0134183
-0.246011
0.113413
-0.146981
-0.0850858
1.41175
1.14067
-1.76721
-0.119847
-3.04255
-5.88929
0.732849
-0.172566
1.78193
-1.61256
1.20977
0.86867
-1.0763
-1.71718
-10.0341
-1.67557
-7.61251
1.1533
-0.17644
-0.125724
-2.69304
0.861336
-0.555466
1.39173
-0.0128245
0.0182694
1.60359
-0.0174186
-0.0361831
-1.27969
1.31574
0.0484014
1.28197
1.13004
-8.99435
-0.131508
1.30865
-1.96916
1.2308
-4.84337
1.13228
-3.69553
-0.112841
0.0220872
1.01532
1.03038
-0.965188
1.23342
0.937173
-0.181742
1.5451
0.903956
-3.32657
1.24187
-0.131523
-0.0165281
-1.5792
-4.06094
-0.127517
-2.73559
0.00091974
1.22928
1.28421
-0.203715
-0.403661
0.971916
-0.0609531
1.23631
-6.00438
-0.000623253
-0.556939
-2.83453
-0.541044
-8.15932
-0.233239
-3.46023
-0.128749
-1.79313
0.307139
-0.193027
-5.47601
-0.202962
0.249178
1.79989
-2.86921
-0.00270658
-0.883558
0.415571
-0.331367
-4.0227
-1.32772
0.86961
-0.281179
0.690768
1.29884
0.00234527
-0.129934
-0.605708
-0.135984
-0.158837
-1.86075
1.22327
-0.750534
-0.00368034
-1.72424
-5.40994
-0.0400336
-0.13829
-1.25026
-4.70673
0.0916302
0.11464
-0.110549
-0.156293
-0.00486593
0.00350077
-4.95576
-1.5819
-6.52615
0.884365
-1.01063
-0.113441
0.969332
1.0045
-0.131609
-0.000246808
0.989794
0.510825
-0.000835553
-6.01412
-0.019175
0.735237
0.384658
-4.00704
-0.00117865
0.898729
0.0535773
1.13925
1.08283
-0.128261
0.501624
1.14734
-0.361995
-4.16178
-0.131482
-0.938443
1.03353
1.23855
0.00249739
-0.0741542
-0.135676
-0.155915
-0.181756
-0.120916
-4.62598
0.00154278
1.24177
0.11312
-0.152481
1.23815
-0.137914
2.17006
-0.132999
0.117391
0.0688115
-0.157918
1.25782
-0.127206
-0.194981
-10.9148
-0.138205
1.15975
0.898451
-0.133028
1.24875
-0.1312
-0.128637
1.09237
-1.56516
1.07393
-0.181634
0.0433827
-0.623074
0.351557
-0.891879
-6.60217
-0.45307
1.02336
0.869863
-0.0388375
1.00589
-0.00393363
-0.316223
-0.207802
0.537207
-0.916403
-6.96335
-0.20237
-0.000446009
-0.366903
-0.15909
-0.489595
-3.10529
1.91518
-6.06611
-2.69543
1.89164
0.0065153
-0.314447
-0.140403
-0.525334
-0.0447524
-0.43847
-0.157914
-1.72821
-10.6844
0.71621
1.23139
-0.209696
-0.2214
0.264749
-0.00136284
-0.0220652
-0.126644
-0.14139
-0.245786
1.20769
-4.06317
-7.35183
0.952782
-0.187871
-1.757
-0.0987264
-5.4249
-0.0595104
0.280561
-1.78496
1.29629
-0.233534
-0.262016
-2.67374
-0.182516
-0.334188
-0.14855
-3.67034
-7.35338
1.85814
-4.99835
-0.557058
8.04114e-05
-1.01389
-0.0567665
-0.145427
-2.81308
0.000522949
-0.124553
-0.289102
-0.162354
-0.150971
1.57579
0.29705
-0.0232175
-0.106122
-0.126179
-3.51888
-0.16366
-1.55207
-0.122749
-0.291749
1.36441
0.126325
1.2396
-0.0259889
0.0458171
-0.0652778
0.000346858
-0.00198161
-1.68769
-4.79827
-0.216485
0.232331
0.0972673
0.91868
-0.0695535
-0.0957186
-0.0467141
1.15298
-0.131352
0.205313
0.204567
0.00364828
-0.143596
-2.66998
-0.121742
-0.0038121
-0.242692
1.23829
0.00102301
-0.311244
-0.0545571
0.552019
-0.223488
-1.14677
0.00089674
-0.0586191
-2.70428
-0.154268
-0.12456
-0.391432
-0.023488
1.20274
-0.0662134
-1.52832
-0.123995
-0.138027
0.309539
-0.153193
-0.131904
-3.02819
-2.74151
-0.117802
1.44361
1.41943
-0.0097464
-0.137042
-1.40778
-0.00898959
0.271669
-3.14963
-0.0460753
1.22854
0.461086
-0.0138598
-0.0442475
-2.55584
1.17555
-0.0863902
-0.019116
-0.0314972
-2.59074
0.0620155
-0.163804
-2.76727
0.964852
0.29453
-0.719027
0.336342
-0.019674
1.24455
-0.0352094
-0.00138698
-0.0538371
-0.028407
-7.43965
-0.160657
-0.172691
-0.00990853
-0.138992
-0.0074599
0.112544
-0.0203335
-0.0605801
-0.397092
-0.202261
-0.0811726
-0.00412192
2.56194
-0.111343
0.0225437
-0.00941155
-0.0742056
-0.584827
-0.0998249
0.000458681
0.327883
-0.115507
-0.115045
-0.0649899
-0.0286292
1.25765
-0.0135596
-0.107054
0.0183919
0.00255145
0.000270568
0.0354497
-0.115755
0.634948
-0.149606
-1.11678
0.472345
-0.0640237
-0.10211
-0.0642545
0.0123787
-2.84804
-4.79223
0.168403
-0.125764
-0.0320695
-0.00254999
-2.06009
1.18425
0.841396
-0.058242
-0.31506
-0.159749
-0.0676896
1.25133
-0.0157826
-0.214308
1.41881
-0.106958
1.37437
-0.114448
-0.18943
-0.033503
-0.0314881
-0.0169991
1.51559
-0.130142
0.00172129
-0.523514
-0.677885
0.406672
1.30848
-0.00613219
-0.484374
-0.266108
-0.0104047
0.00144031
0.11278
-2.59889
0.00179717
-0.0773591
-0.105432
-0.121773
-0.116685
-0.147991
-0.573359
0.00117887
-0.0222067
-0.18721
1.33642
-1.24419
-0.0341976
-0.130248
1.2305
1.50455
-0.0101295
-0.00194312
-3.12279
-3.17104
-0.00364079
-0.104898
-0.0228886
-0.128266
-0.000665281
-3.05689
-0.0071593
0.00449211
-0.0729669
1.9174
-0.0313057
-0.129432
-0.278238
-6.12087
-0.0261388
0.839536
0.019514
1.02654
0.00561838
-2.70376
-0.0246395
-0.151821
-0.369342
-0.340792
-0.210294
-0.0131578
-0.024976
-0.133939
-0.017985
-0.0331272
-0.102939
-0.0125537
-0.0251818
-0.11089
1.23709
-0.0379836
-0.575647
1.09896
-0.0482823
-0.0968269
-1.19972
0.893757
-0.138204
-10.843
-0.0533213
-0.0429458
-2.01917
0.0536335
-0.0883143
0.0485625
-0.0803587
-0.0757044
-4.30661
-0.0120255
-2.62485
-0.176055
-0.0740705
-2.60073
-2.83357
-0.0109791
-0.0333371
-0.0864155
0.174769
-0.0742756
-0.0779617
0.733197
-0.00767171
-0.0147742
-0.0272867
-7.87977
-0.0377816
0.00508691
-0.0746822
-0.129107
-0.177999
-0.174239
-0.0143019
-5.66929
1.86362
-0.069383
-0.0420151
-0.0481882
-6.36617
1.26324
-0.134635
0.0920725
0.00128613
1.33431
-0.0381776
0.215924
-0.0723649
0.000377118
-0.0178293
-0.0585251
-1.68659
-0.345612
0.241224
-0.296692
-0.0431597
-0.0187165
-0.141139
0.520126
-0.317459
-0.0140766
-0.02635
-0.13486
1.4786
-0.146206
-0.0215869
-0.00962709
-0.122989
-0.0651173
-0.0237541
1.37332
0.59867
2.15107
0.0006359
-5.24252
-0.351341
2.69889
-0.908077
-0.0932908
-0.0377007
-0.106958
-0.849161
1.29118
-0.333815
-0.288235
-0.0779743
-2.6565
-0.133132
-0.104111
-0.0389708
3.0119
1.11872
1.74763
-0.22704
1.21183
-0.0265722
-7.49986
-2.70742
0.990589
-2.7714
-2.73791
-0.018169
-0.697625
-0.214871
-0.0956999
-1.88863
-0.270622
-0.912603
0.819681
-8.6619
-0.101097
1.07193
-0.131349
-2.00175
-0.0411054
-0.03887
-0.0866343
1.5279
-0.0936553
-5.59494
-0.0429739
-1.77764
-0.000560445
-0.520127
-0.589027
1.87958
-2.81176
-0.339313
-0.553346
-0.028209
-0.0557521
1.14198
1.30596
-0.115784
-0.379634
-2.81832
-0.519549
-1.4412
2.41132
1.02882
0.182068
-0.11361
-0.405282
-0.103462
0.819047
-0.0827506
-0.675978
-0.076415
0.996996
1.23848
0.391106
-2.60658
0.259577
-0.530505
-0.0104533
-2.45433
-0.0931277
-0.634416
0.924335
-0.0314649
-2.93032
-0.0579554
1.79679
-1.5139
-0.334545
-0.178703
-0.944256
0.0434662
-1.77653
2.33651
-0.0854179
-6.66692
-2.93449
-0.578988
-0.0643545
0.769247
-0.558511
-0.120883
-0.963579
-2.67146
1.34883
-0.115198
0.019585
-0.816547
-1.22757
-0.129805
-2.72878
-0.0659523
-5.14788
2.52753
-0.0781021
-2.84239
2.14013
-0.000611416
-0.0784569
-0.136772
-0.00345549
1.54513
-2.66225
1.23954
1.18932
-0.0662438
-0.289551
1.16482
1.08762
-0.0779689
-0.405202
-3.40401
-8.41489
1.20708
-0.148791
-1.54482
-2.78498
-0.23957
-3.08984
-0.130066
-0.124777
1.31274
-0.169406
-0.221161
-3.31601
-0.0551221
-0.044391
-0.0479255
-2.72473
-8.21361
0.0131146
-0.190956
0.0811746
-0.824322
-0.112489
2.38011
-0.0973788
-2.59357
0.203182
-0.0289887
0.239771
-0.146815
1.19304
-0.100717
0.707627
-2.48025
-0.112683
1.47479
-3.57033
-7.38444
1.56943
0.887218
-0.135935
-0.142099
1.2007
0.36125
-0.0604278
0.471202
2.27544
-1.02992
0.556673
-0.501692
-0.106565
1.66414
-2.26227
0.00586765
-0.0879494
1.30213
-0.166967
0.627815
0.478734
0.770263
-4.84315
-0.112788
0.208118
-0.0719476
-0.0253456
-8.01848
-4.34396
-0.0983747
-0.0639301
-5.19939
-0.105983
-0.4888
-2.34985
0.897449
1.16647
1.02004
-0.070845
-0.808292
-0.346125
0.80464
-0.0587412
-0.116702
2.26394
-0.0520949
-0.0524383
0.077793
-2.75729
1.35179
-0.05853
-0.693214
-2.75959
0.0427893
0.805913
-1.51534
-2.83756
-0.557267
-0.0402103
-0.0221328
1.14215
-3.66348
-7.14759
0.0848428
0.31916
-0.104053
0.0010538
-0.106145
-0.0037188
-0.353234
0.866131
-0.0702993
2.79899
1.67222
-0.155411
-0.0934565
-3.38427
1.96291
-0.160398
0.297374
2.70619
-0.0350202
0.024272
0.901365
2.37727
0.205905
-2.32871
1.17236
-2.19211
-0.000389028
-0.332736
0.0985165
-3.22469
2.21054
0.100961
-0.0159859
0.00376741
-3.15964
0.0676286
2.55383
-0.0136067
-0.0637325
-0.11999
1.18718
-0.312505
0.277878
0.978483
0.44631
-0.117658
-0.231745
-8.45817
0.0734282
0.241065
-0.175492
-0.0940396
2.08913
-0.0525691
-0.106667
1.29546
-0.00836998
-0.00894714
0.0329164
0.137519
1.03765
-0.0277284
0.22943
-1.14458
-0.0429636
-0.288035
-7.33316
-0.14855
0.0528591
-0.0320056
-0.0375035
-0.423241
-0.057883
-0.0720178
-0.00384244
0.232378
-0.159
-0.443109
-2.4946
-0.0708808
-1.16936
0.373126
-0.00471465
0.261453
-0.222413
-3.05893
-0.0343548
1.26894
-0.498742
-0.184385
0.0474992
-0.408905
1.4565
-0.0338389
-2.07959
0.192866
2.9456
2.4618
-0.0809919
0.344642
-1.66503
-0.00382672
1.2746
1.23099
0.75676
-0.00866405
-0.0150014
0.0298386
1.92719
0.102734
0.47707
0.257141
-5.74454
0.153325
0.0435596
1.31759
1.69553
-0.144564
-8.85711
-0.151657
1.25036
1.59119
0.0757048
-0.0286539
-0.273534
2.43686
-0.00697815
-0.107661
-0.0957714
0.0628624
-0.0211977
-0.0209158
1.22891
-0.0090273
-0.00797998
0.0279595
-1.61201
-0.0904851
0.00107095
1.60083
1.0331
0.894274
-0.0405959
-9.22423
2.7193
-0.0695764
0.0429407
1.0347
-0.558362
0.362398
1.26883
1.06872
0.00180766
-5.54154
-1.70137
1.22241
-0.726575
-0.00347135
-0.132057
0.960156
0.59444
-0.0227517
-0.0620623
0.775982
-0.356128
-0.00599166
0.0465673
-0.000200661
-0.570565
-0.346768
1.22008
2.12077
-4.46621
1.8488
-0.188226
-0.843127
-0.01665
-3.63658
0.165071
-6.98646
0.220538
0.143215
-0.0146591
-0.0550473
0.281022
2.85145
-0.00227469
1.37851
1.17059
-0.216913
-0.0495316
0.340826
-0.389145
-0.584801
-5.77044
-0.0882251
-0.142009
-0.0434213
-0.428119
1.56562
0.511896
0.267665
0.175784
-1.61085
0.0605811
-0.351393
0.229123
0.257403
0.0859623
-1.4115
1.35185
0.889845
-1.03051
-0.367028
-0.00757534
0.995162
1.25805
1.34633
-1.86769
-8.867
-1.63102
-0.0289368
1.22692
-1.31521
1.35688
-0.012549
-0.0162724
-4.62184
-1.69382
1.25263
-0.518397
1.29064
0.72894
0.116386
0.0604076
-1.11414
-7.75945
-0.497995
-1.3001
1.18067
0.176155
1.38904
1.36256
-0.0902234
1.35801
0.079162
-0.00477079
0.922957
1.27662
-1.8014
0.174853
1.16777
0.993785
0.200833
1.18588
0.534318
1.08362
-0.134678
-0.242739
0.0413158
-2.75821
0.74296
0.590635
0.562973
-3.5617
1.38936
-0.00107451
-1.02112
-0.111995
1.27701
0.361314
0.96886
-0.0494772
-2.71305
-0.669294
-0.0642228
-1.85754
1.07619
1.0938
-3.28611
-0.746501
0.188749
-0.126863
-0.994184
1.22991
1.79963
-0.176563
0.229464
0.51792
0.221453
0.204799
-0.0112586
0.686035
-6.57132
-0.0514562
-1.49837
-1.56974
-0.312531
1.47005
0.809466
-0.31286
-0.068581
-0.0806692
1.23053
1.23632
0.650908
-2.05576
1.47707
1.24676
1.26152
0.122637
0.0365095
0.173074
0.242874
0.669947
-6.01575
1.27372
-0.421172
0.241846
1.34982
-0.681597
-7.13089
1.87301
2.08761
0.136568
0.0233501
0.851398
1.12452
0.0552445
0.0699859
-0.169501
-0.206395
-1.59581
-1.03932
-1.98918
-1.31471
-0.276874
1.22408
2.17004
0.0958945
1.23776
0.120115
3.15905
-0.722319
1.16043
0.0746959
-1.72141
-5.81186
3.10659
0.180137
-0.131684
3.02561
0.533382
-2.13288
0.654419
2.94815
0.387784
2.85938
1.07484
0.0615273
-5.01219
2.69099
-0.231373
-0.109213
-1.72238
0.718916
0.00153564
0.933847
2.44783
-0.00297144
0.211848
1.16962
0.631921
0.76474
1.2688
-0.16818
-6.05928
-1.83219
2.36656
0.138434
-5.64345
0.177807
0.112888
2.29417
-0.206079
0.180647
-5.35173
2.21608
-2.09823
-5.11301
2.14017
1.29959
-4.86966
-1.10747
-4.71078
0.982817
1.51764
-4.71098
2.01825
1.21348
0.241438
-4.50402
1.12391
0.922911
0.209911
-1.27749
-2.89121
1.34361
1.20395
-7.9912
0.97535
0.614459
-0.741524
-2.58373
1.80012
-1.17212
1.25724
-3.41545
-3.98206
-3.83736
-3.67842
-3.52487
-3.38698
-3.27043
-1.13032
-3.15149
-2.91428
2.17315
1.73147
-0.770547
1.12501
0.209365
1.19355
-2.86002
1.6753
-0.000581106
-2.81559
1.10718
-2.89531
-2.77632
-0.0429433
1.5266
1.24089
1.0972
1.02231
1.25837
-0.975234
-2.74271
1.46905
-2.71397
0.0665299
-2.90578
-2.6999
1.29483
1.40055
-0.120759
1.17108
-0.0095485
1.24929
-2.69716
-0.902163
0.427346
1.33247
-0.773683
-1.70093
1.2647
-4.97162
-0.623612
-1.26936
-2.69919
1.20287
0.641913
0.234832
1.24765
0.371972
-0.110917
-0.0911447
-2.70359
-2.98402
1.12605
0.185655
-0.0765622
1.31923
0.0927188
-5.56676
-1.42977
-2.70488
1.06714
-4.12827
0.826747
-0.279694
-0.00984687
-2.70804
0.994122
1.27694
-2.92195
0.915398
-2.71248
-0.169365
-0.600863
-1.69315
-5.2639
0.854577
-2.693
0.756988
-2.67654
-7.03594
1.15442
-0.0118515
1.09045
-0.0735786
0.678306
-2.59348
-1.52394
2.34802
1.32358
-2.5795
-9.63072
0.608936
-6.156
-5.31945
1.38985
-2.44556
1.21185
0.536508
-0.0739524
0.557688
-0.157403
1.22875
1.19724
0.142213
-3.89592
-2.31082
-1.6993
0.445332
0.108126
-0.57605
-0.89665
-2.54647
-1.42461
-4.09262
1.02947
0.368959
1.88194
0.505634
2.00453
1.10747
-1.99478
-1.2718
0.869982
-4.90576
1.06183
-0.0667148
0.0157105
1.08249
1.25069
-0.208386
-1.84771
-4.21916
0.202982
-3.73677
0.143961
0.976015
1.62983
0.878331
2.15383
-6.33062
0.817414
0.238571
-1.72118
0.384086
-0.979138
0.0971781
1.45484
1.2786
1.16803
-1.62664
-0.010985
-0.132901
-0.226444
-0.361371
-0.480167
-0.629888
-1.58826
-0.099438
-0.767019
1.03211
-1.07611
-2.70929
2.34234
-1.57266
-0.108121
-2.72322
1.19977
-1.65572
1.36666
-1.55875
0.279792
-1.57662
-3.34428
-1.62
1.23274
-0.291731
-1.752
-1.66422
-2.722
-8.59956
1.258
-1.26471
-1.72372
1.23251
1.25824
-0.986067
-6.60588
1.34816
0.279201
-3.66029
0.484592
0.94642
1.77484
-1.49376
0.288667
-8.09716
1.51129
-6.47716
-0.945551
-3.85226
1.10027
1.04773
0.561694
-2.50568
0.983993
1.42501
-0.131511
-2.7024
1.03088
0.14552
0.304225
-0.479581
1.0339
-4.07815
-0.00694851
-0.00133097
0.998347
-0.804601
1.50392
0.513153
-2.54438
0.837356
-1.72969
1.45909
1.26286
1.39804
1.43534
0.194588
0.361124
-2.60818
-0.821583
-1.99017
0.00952993
0.352515
1.30231
-1.55412
-0.994023
2.43912
2.46406e-05
1.05558
1.07697
-3.77461
-0.050366
-0.39385
0.116422
0.989101
0.470468
1.17425
1.15907
0.848009
0.404147
1.41559
-1.71109
-0.019888
-2.80236
-8.79644
0.00973563
-3.09246
0.838719
-3.62935
0.93963
-0.382096
-2.81387
0.248508
-1.16695
-3.12873
-9.16639
0.222612
1.3229
-0.549624
-0.840548
-0.0426596
0.910525
0.225595
-6.63789
-0.0145431
0.134728
0.495646
-4.60958
1.24606
0.649262
1.23795
-6.9923
0.239897
-0.0104631
-0.0340059
0.543234
-3.44377
0.642657
-0.0574328
-0.0268822
1.11467
1.57664
-0.525431
-2.65998
1.22281
-1.84267
1.30176
-0.0812001
-0.0642228