/*--------------------------------*- C++ -*----------------------------------*\
| =========                 |                                                 |
| \\      /  F ield         | OpenFOAM: The Open Source CFD Toolbox           |
|  \\    /   O peration     | Version:  2306                                  |
|   \\  /    A nd           | Website:  www.openfoam.com                      |
|    \\/     M anipulation  |                                                 |
\*---------------------------------------------------------------------------*/
FoamFile
{
    version     2.0;
    format      ascii;
    arch        "LSB;label=32;scalar=64";
    class       volVectorField;
    location    "9.2";
    object      U;
}
// * * * * * * * * * * * * * * * * * * * * * * * * * * * * * * * * * * * * * //

dimensions      [0 1 -1 0 0 0 0];

internalField   nonuniform List<vector> 
5098
(
(2.31614 0.982034 0)
(2.05394 0.0872371 -7.25351e-20)
(2.49072 -0.0385045 -1.38177e-21)
(1.70118 -0.747438 3.06628e-19)
(3.69246 -1.06351 0)
(1.04813 -0.500644 0)
(2.48512 0.0156098 1.4495e-19)
(3.08332 -0.142203 1.74172e-21)
(2.67622 -0.0509468 -3.12471e-20)
(1.65425 -0.201383 3.08787e-19)
(-2.94855 1.24335 0)
(1.96442 -0.00962889 4.40994e-20)
(2.23272 0.3849 2.42519e-20)
(1.09165 -0.536415 0)
(2.68952 -0.546969 1.7149e-19)
(1.80961 0.0773673 -1.53179e-21)
(-2.02513 0.554982 -1.02158e-18)
(-2.37819 1.71661 0)
(-0.230523 0.203112 1.66054e-19)
(-1.85752 0.547986 1.16863e-18)
(1.77331 0.450731 -8.60687e-20)
(1.74877 0.071152 -5.71969e-21)
(2.55946 -0.778716 0)
(0.918846 -0.0778538 2.55698e-20)
(0.0512367 0.0971489 0)
(1.61988 -0.656861 0)
(1.99466 -0.00879486 1.15385e-19)
(2.12739 -0.826322 -2.92243e-20)
(-0.313234 0.180345 -5.10348e-19)
(2.4492 -0.956922 0)
(2.27669 -0.0504316 -2.4158e-20)
(0.868382 -0.425848 0)
(2.10809 0.0357961 -9.44766e-20)
(-2.95692 1.49801 0)
(2.45127 0.389096 2.29308e-20)
(3.6353 0.615353 5.80804e-19)
(2.05059 -0.395168 3.83543e-20)
(2.12325 -0.00214229 -1.89876e-21)
(1.47585 -0.510297 3.58538e-19)
(1.83564 -0.800206 0)
(1.71879 -0.766043 -1.26931e-19)
(-0.126439 2.54308 -8.13271e-19)
(1.64485 -0.65683 0)
(2.42206 -0.362732 8.42948e-20)
(2.29236 0.668848 -7.32443e-20)
(2.03133 0.0480358 1.00252e-20)
(-2.18283 0.78117 3.25651e-19)
(1.23717 -0.440659 0)
(2.25631 -0.0548755 0)
(1.69472 -0.710664 3.35943e-20)
(2.17091 0.117101 1.40746e-19)
(1.64943 0.358752 -4.48597e-19)
(0.204523 -0.101435 1.03542e-22)
(2.13543 -0.0479765 7.535e-20)
(1.10827 -0.550162 -1.85028e-19)
(1.64854 0.0397605 0)
(1.87547 0.20503 -2.33684e-19)
(1.80844 -0.699879 0)
(1.01693 -0.502504 0)
(2.1149 -0.0218427 -4.09611e-20)
(1.66516 -0.518239 -1.89043e-20)
(-1.08698 0.556302 -8.83745e-19)
(2.46634 0.429622 0)
(2.124 0.402562 0)
(0.269504 -0.113935 1.03203e-18)
(0.965568 -0.486914 2.88132e-19)
(2.60152 0.0762077 -3.88261e-21)
(2.23198 0.169742 3.54996e-20)
(2.2 -0.140618 1.66683e-20)
(1.87139 -0.748967 5.79325e-20)
(1.90938 0.147184 7.34308e-21)
(0.890782 -1.387 -9.51691e-21)
(2.25681 -0.833338 0)
(-0.946997 0.757557 0)
(1.88962 -0.364461 2.47956e-20)
(1.30513 -0.632102 -1.65703e-19)
(1.72873 -0.23013 0)
(1.58391 0.117953 3.58587e-19)
(2.09774 -0.29739 1.07488e-19)
(1.68623 0.0782779 0)
(1.80036 -0.0838276 0)
(0.721066 1.53405 1.57255e-19)
(1.83958 -0.313043 2.80901e-19)
(-2.90364 1.6111 -2.11675e-19)
(-2.25078 1.73339 5.27853e-19)
(2.27041 -0.89247 -9.69886e-19)
(0.265732 0.096067 -2.57344e-19)
(1.74389 -0.243196 9.49069e-22)
(3.06861 0.0107876 6.02665e-20)
(1.54543 -0.49143 -1.27584e-20)
(2.29027 -0.0520031 9.02782e-22)
(0.949177 -0.523753 3.76625e-19)
(2.45414 -0.0398098 -5.97765e-20)
(1.71593 -0.728994 -1.63061e-19)
(1.45313 -0.532822 6.29373e-20)
(0.470001 -0.866487 -1.05862e-19)
(1.26481 -0.62041 -6.90986e-20)
(1.51523 0.179471 2.75521e-19)
(1.82647 -0.336729 7.94176e-21)
(2.26981 -0.356886 2.79145e-20)
(2.21584 -0.16387 -9.67257e-19)
(1.16928 -0.575111 -2.03481e-19)
(2.10053 2.20321 -1.47304e-18)
(2.50243 -0.105159 8.19547e-21)
(1.60106 0.095021 -4.07616e-19)
(2.20435 1.0218 0)
(1.93884 0.184838 2.51919e-19)
(2.30152 0.0980578 8.99627e-20)
(1.18189 -0.488109 5.76657e-20)
(-2.84472 1.26594 0)
(1.24728 -0.590794 -2.60609e-19)
(0.717129 0.285378 2.3441e-19)
(1.94493 -0.022629 -1.49695e-19)
(1.01821 -0.445944 9.75904e-20)
(1.72235 0.524322 1.25667e-19)
(-0.499274 0.282238 0)
(1.24437 1.45219 6.11505e-19)
(2.32465 1.34931 0)
(1.57806 -0.262522 -3.49687e-20)
(0.956775 -0.12161 -3.85386e-19)
(1.71056 0.327427 3.68506e-19)
(1.39388 1.59438 -4.55039e-19)
(1.57011 -0.270607 -1.98601e-19)
(-0.761061 2.19131 -3.87345e-19)
(0.350286 -0.61279 -5.04186e-19)
(-0.697707 0.209787 1.3982e-19)
(2.30467 -0.03376 5.8697e-20)
(2.50319 -0.738966 3.22944e-19)
(1.47239 -0.213013 -8.50575e-20)
(0.980056 -0.437605 -1.80756e-19)
(-1.13434 2.03583 -5.54946e-19)
(1.2781 -0.575823 -3.988e-19)
(1.30197 -0.57304 3.30536e-19)
(2.24606 1.34861 4.84172e-21)
(0.350066 -1.3652 -3.10183e-18)
(3.69083 0.0833395 4.77389e-19)
(1.67757 2.00682 -1.17753e-19)
(1.91857 0.179995 1.76749e-19)
(1.01755 -0.501835 0)
(2.14549 -0.0393417 -2.55889e-19)
(1.6 0.446188 -3.04857e-19)
(3.87665 0.495617 1.04215e-18)
(2.0737 -0.892905 -1.4492e-19)
(2.45422 -0.0354806 -6.32511e-21)
(2.03076 0.0405368 -7.10465e-20)
(2.42006 -0.0012782 0)
(2.19149 -0.157059 3.82448e-20)
(3.19945 -1.71011 0)
(2.86416 0.04336 2.46765e-19)
(2.07393 -0.895697 -1.40061e-19)
(1.22419 1.96754 -7.29785e-19)
(1.34649 0.883865 0)
(3.55586 -1.59178 4.1466e-19)
(2.07487 0.0392123 0)
(0.267155 0.0274008 -3.10945e-19)
(0.97046 -0.392186 -1.52649e-19)
(1.8082 -0.700181 -1.2858e-19)
(1.92546 -0.958162 -6.70578e-19)
(1.67285 -0.764969 -1.10945e-19)
(-0.127508 0.0772151 5.51979e-19)
(2.1303 -0.356475 -5.23533e-20)
(2.7185 -0.57071 -2.2077e-19)
(0.44534 0.718791 -2.39815e-19)
(1.92501 -0.188801 -1.66202e-19)
(-1.90969 1.59837 -3.6439e-19)
(2.2409 -0.0993144 -5.09364e-20)
(3.75387 -1.34705 -1.50724e-18)
(2.69456 -0.0548358 0)
(-0.419048 0.502732 3.54048e-19)
(1.87523 -0.576606 -1.67662e-19)
(0.499243 -1.02074 7.53209e-20)
(1.69437 -0.680893 -1.17542e-19)
(2.13971 0.515429 2.21211e-19)
(2.11208 -0.781227 -6.9866e-20)
(2.582 -0.0366391 0)
(1.9338 0.00459007 0)
(1.86829 -0.308933 -9.85089e-20)
(3.11557 0.64754 -2.08072e-20)
(1.86174 -0.173115 2.66369e-19)
(0.436758 -0.0446567 0)
(1.51815 1.91655 0)
(1.5883 1.35988 -3.46585e-19)
(1.96112 -0.542473 1.52277e-19)
(-1.77651 1.62827 0)
(1.95735 -0.192044 0)
(2.5064 0.836953 -4.51195e-20)
(1.56454 0.20326 0)
(2.07487 -0.379117 1.05614e-19)
(1.1594 -0.559795 2.98948e-19)
(0.290302 0.164052 -2.15401e-19)
(0.764444 0.541789 0)
(1.46083 0.540935 3.22669e-20)
(2.29262 -0.863647 0)
(1.89564 -0.385725 2.52012e-20)
(2.24943 -0.0839571 5.2714e-21)
(1.09071 -0.475065 -4.34289e-19)
(2.08855 0.572539 7.95807e-20)
(3.98861 0.293851 0)
(2.10329 0.033396 1.87858e-21)
(1.92072 -0.553972 -2.19839e-20)
(-0.772836 1.44074 -8.293e-19)
(1.71915 0.270149 5.50769e-21)
(2.29449 0.664145 -5.85198e-20)
(2.35334 0.0150487 8.11278e-21)
(1.54352 0.00343024 9.54641e-20)
(0.942351 -0.394229 -1.07974e-19)
(2.65939 0.1251 -3.46379e-21)
(1.34532 -0.625014 0)
(2.41115 -0.0467822 0)
(1.65159 -0.772063 2.65097e-19)
(2.05024 -0.131873 -7.77789e-20)
(1.75264 0.236095 2.88599e-19)
(1.65186 0.679913 -2.46413e-20)
(2.07356 0.0796531 -2.64239e-19)
(2.48632 -0.0754726 -2.46752e-19)
(-0.155932 0.236293 -1.37297e-19)
(1.97192 -0.406496 0)
(-2.75483 1.38635 -1.20747e-18)
(0.567527 -0.539343 6.91519e-20)
(2.00018 0.0470971 1.6162e-19)
(2.27497 -0.0316475 3.38449e-21)
(1.71525 -0.354534 0)
(2.65869 0.0840335 -1.01315e-20)
(2.27938 -0.0855357 -4.06619e-20)
(0.828669 -0.237405 1.1774e-19)
(2.11635 -0.126674 0)
(0.561788 -0.185057 0)
(1.98774 0.00440286 0)
(2.21318 -0.38662 0)
(2.75895 -0.835601 -9.04173e-20)
(1.7932 0.346241 0)
(0.752861 -0.33552 -4.15322e-19)
(1.54188 0.800803 -1.59618e-19)
(1.88982 0.0589204 2.81926e-21)
(2.55038 -0.066673 -3.70121e-20)
(2.27451 -0.061602 0)
(1.39302 1.19853 -3.09142e-19)
(0.106695 0.417912 -8.59485e-19)
(3.15726 0.44013 0)
(1.9183 -0.0391737 2.1869e-19)
(0.420145 1.53347 -5.49191e-19)
(2.16026 0.547754 0)
(2.72301 -0.0110438 0)
(1.18599 -0.313078 6.54503e-19)
(1.79275 0.381583 -4.16336e-19)
(2.27055 -0.0215406 -4.0968e-20)
(1.21677 -0.582833 5.85773e-20)
(-2.79651 1.26152 -8.37638e-19)
(-2.575 0.745149 0)
(2.34719 -0.0273337 1.15892e-20)
(2.06264 0.706599 -2.14479e-19)
(2.1535 -0.817623 -1.15094e-19)
(-0.709105 0.0564027 2.28669e-19)
(-0.300617 1.0011 4.34157e-19)
(2.00498 0.0277097 -1.62815e-19)
(0.185073 0.370822 7.98365e-19)
(1.41864 -1.3953 2.68708e-18)
(0.663932 0.241286 -2.58749e-19)
(1.27182 -0.461623 -2.54501e-19)
(1.69419 0.00903537 1.73756e-20)
(2.51399 0.829844 -1.53627e-20)
(0.372263 -0.113821 4.74318e-19)
(0.186831 -0.0720912 5.12077e-19)
(2.2011 -0.873137 0)
(2.16669 0.0767387 2.07796e-21)
(-1.74035 0.971378 2.78259e-19)
(-0.0964473 0.065505 -6.48464e-19)
(-2.83068 1.18664 0)
(0.435419 -0.624086 0)
(1.91059 -0.0391374 -2.01954e-20)
(0.487919 0.227653 2.65139e-19)
(1.77598 0.082224 -1.40454e-19)
(-0.198117 0.0856948 -2.89962e-19)
(0.638861 -0.616279 0)
(1.27814 -0.525019 2.91145e-21)
(1.58488 2.27884 -9.39768e-19)
(-0.316423 2.52744 -1.14072e-18)
(1.76091 1.72797 0)
(2.74129 -0.463466 0)
(2.04172 -0.101249 0)
(-1.25178 1.89436 -3.10467e-19)
(2.98702 -0.170893 1.78249e-19)
(0.881537 -0.198461 -5.01152e-19)
(2.90257 -0.0905037 -1.9806e-19)
(3.94159 0.285784 -9.7868e-19)
(-0.880703 1.49709 0)
(1.9916 0.0144972 0)
(2.71109 -0.0543581 4.36915e-20)
(2.3026 -0.103919 4.13486e-20)
(1.53435 -0.00118617 -7.28577e-20)
(-0.489834 2.28437 0)
(-1.27047 -0.593516 3.45037e-19)
(1.19048 -0.124555 -1.96865e-19)
(2.30811 0.553994 -8.27929e-20)
(2.24238 -0.563004 -8.23871e-20)
(1.12782 -0.210554 -1.84618e-19)
(2.49992 0.145225 0)
(2.26315 -0.0727034 -3.17851e-20)
(2.03429 0.000725375 0)
(2.07247 0.0328644 -9.71235e-20)
(2.34026 -0.102432 -3.58647e-20)
(2.71162 0.0996243 2.65197e-20)
(1.72581 -0.455272 2.97409e-19)
(1.85907 0.364578 2.38697e-19)
(-1.56021 0.894207 -4.51335e-19)
(2.00981 -0.747927 -7.93234e-21)
(2.16877 1.66145 -1.17293e-20)
(2.08737 -0.00356744 0)
(1.97557 -0.395695 0)
(-2.46999 0.803802 0)
(2.28636 -0.101879 -1.61031e-21)
(-0.896529 -0.020416 2.48103e-20)
(0.973031 -0.481273 2.26369e-19)
(2.06179 -0.0756335 -8.50686e-20)
(2.29854 0.438165 1.49435e-19)
(0.329343 -0.0535409 6.15376e-19)
(1.67339 1.93309 6.89079e-20)
(2.66201 0.0958041 1.06035e-20)
(2.26719 -0.0366862 1.1961e-19)
(1.01969 -0.439408 0)
(2.21273 -0.300379 -1.32223e-19)
(-1.24385 -0.613971 -6.59605e-19)
(3.15132 0.289568 -3.45044e-19)
(0.0435859 -0.452235 -1.67587e-20)
(1.81287 -0.302509 8.65483e-21)
(1.45791 -0.48173 2.55244e-19)
(2.05022 0.759567 0)
(1.99847 0.0577366 -8.16657e-20)
(1.19756 -0.492895 -6.03417e-19)
(1.60214 -0.291504 3.39342e-20)
(1.49084 -0.705775 0)
(2.32111 -0.0463618 -3.75899e-20)
(1.18064 -0.57052 1.5938e-19)
(2.85572 -0.494017 4.26669e-19)
(1.90612 -0.747049 -5.98935e-20)
(2.28916 0.0867001 -1.36799e-19)
(2.25696 0.0631671 -2.04568e-20)
(1.11072 -0.547153 2.12786e-19)
(2.1851 -0.0489135 7.43211e-20)
(1.97634 -0.346906 0)
(2.09944 -0.904811 1.40786e-19)
(1.84898 -0.75182 -2.48364e-19)
(2.13727 -0.229084 2.84186e-20)
(2.00194 0.0116416 3.14107e-20)
(1.33541 0.940272 0)
(1.77387 -0.294727 0)
(2.1624 -0.030225 -7.34376e-20)
(0.283962 0.24049 1.27695e-19)
(2.37778 1.30337 0)
(2.22202 -0.0365868 4.48005e-20)
(2.40974 -0.984926 -1.43501e-20)
(1.01512 0.187909 -5.42459e-19)
(1.0167 -0.44169 -3.42852e-19)
(-0.982264 1.64194 3.05022e-19)
(1.95478 -0.0719563 5.12677e-20)
(-1.15904 1.66934 1.20602e-18)
(4.05673 0.168021 -6.79066e-19)
(1.93834 -0.0198927 0)
(1.50891 -0.1801 -7.52892e-20)
(1.14863 -1.51595 0)
(1.97643 0.0509963 -3.86483e-19)
(2.17374 -0.314928 0)
(1.99064 0.00520869 -4.07551e-20)
(1.69761 -0.243944 2.04331e-20)
(2.47211 -0.333636 -7.06638e-20)
(1.25623 -0.500307 3.35723e-19)
(1.98331 0.0231951 -2.92695e-19)
(1.98324 0.143714 -4.66156e-19)
(2.62616 -0.982774 0)
(0.0155586 0.686859 0)
(1.32731 -0.539465 -3.15474e-19)
(2.40165 -0.373219 0)
(3.19708 0.948642 -4.54274e-19)
(1.58434 -0.391822 0)
(0.666689 -1.41722 1.27412e-20)
(-1.46601 0.674135 7.75105e-19)
(1.93495 -0.577593 1.92934e-19)
(1.10825 0.732843 -4.51368e-20)
(2.63808 -0.092175 0)
(1.6844 -0.265012 -2.23004e-20)
(1.75845 0.0245952 -1.20426e-19)
(-0.867254 0.228083 -1.40924e-19)
(1.97586 0.0101882 -1.4819e-19)
(2.74795 0.0966538 -2.40594e-20)
(2.54275 -0.182851 -2.69334e-20)
(2.72103 1.13708 9.64864e-20)
(2.39518 0.473965 8.99685e-20)
(0.0141196 0.585137 -1.86923e-19)
(1.85344 -0.524923 0)
(2.00314 2.2482 1.53138e-18)
(1.9883 0.0777546 -1.4595e-19)
(2.09683 -0.130823 0)
(1.9959 0.01538 1.11116e-19)
(1.325 -0.628556 -1.04788e-19)
(1.5583 1.04303 2.44349e-19)
(2.5098 0.398296 0)
(1.53406 -0.719484 5.61436e-20)
(-0.907111 -1.0077 0)
(2.15094 0.0589226 6.27748e-20)
(2.90823 -0.37871 -2.17302e-19)
(0.199222 0.815049 6.71367e-19)
(1.15403 -0.136275 0)
(1.59445 0.185421 1.94918e-19)
(1.98055 0.0231192 1.22306e-19)
(-0.430788 0.250829 0)
(1.5833 0.0136354 0)
(2.09567 -0.129384 0)
(-0.106893 0.0820857 8.53525e-19)
(1.1984 0.844866 -1.76515e-20)
(2.97267 0.101866 0)
(1.99088 0.00425411 0)
(1.52927 -2.16405 6.53082e-19)
(0.629968 -0.106825 0)
(2.27485 0.47583 7.61092e-20)
(2.50989 1.25159 1.5472e-20)
(1.87419 -0.228528 -1.1615e-19)
(1.82488 0.320178 -6.85694e-21)
(1.00894 0.254404 6.22964e-19)
(2.48947 1.40286 -4.90067e-20)
(2.25783 -0.0542138 5.51757e-23)
(2.17732 -0.0416213 6.74186e-20)
(1.69878 -0.21034 -1.68304e-19)
(1.23966 -0.560551 -1.5086e-22)
(2.00985 0.0011067 0)
(-1.35497 1.79309 -1.16801e-18)
(0.813178 -0.554721 0)
(-1.11271 0.496753 3.67301e-20)
(2.7559 -1.89683 0)
(1.89628 -0.403831 0)
(1.57186 -0.730977 4.25234e-20)
(2.35202 0.106149 9.2997e-21)
(-0.241807 0.0941172 -5.75275e-19)
(2.13797 0.0128297 -2.4086e-21)
(2.0107 -0.710714 1.71782e-20)
(2.65705 1.20013 3.78521e-20)
(-0.108964 -0.453947 4.9448e-19)
(2.66636 0.0224291 3.18909e-21)
(2.49142 -0.846693 -2.09091e-19)
(1.96157 0.0243878 -2.53154e-19)
(0.286302 -0.484924 0)
(1.88616 -0.125772 -2.74868e-19)
(2.00484 -0.454562 9.98313e-20)
(1.99269 0.0891731 -5.92694e-19)
(-1.24751 0.24268 -9.75864e-19)
(1.495 1.03196 -1.78475e-19)
(2.44486 1.29961 4.31848e-20)
(3.42687 0.59667 0)
(2.59883 -0.527634 0)
(-0.0377794 0.106361 -2.06286e-19)
(2.15095 -0.0671341 4.08519e-20)
(-2.57106 0.835225 0)
(2.27453 -0.0328463 -2.93042e-20)
(2.00122 0.000972492 -2.49e-19)
(-1.97143 0.518208 -6.02302e-19)
(-3.04457 1.05116 2.20887e-18)
(2.48555 -0.218451 -1.90504e-21)
(-0.602918 2.53233 -3.26126e-20)
(2.29479 -0.00913964 2.04949e-19)
(2.10744 -0.362147 2.15745e-20)
(2.99537 1.24008 2.97716e-19)
(1.6569 -0.676469 1.62984e-19)
(1.50941 -0.288997 5.19667e-21)
(1.09819 0.131586 4.42586e-19)
(1.74788 1.83353 0)
(1.86216 -0.500518 9.66009e-20)
(-2.53741 1.48222 0)
(1.09131 -0.2725 -1.30368e-18)
(0.307838 2.31436 0)
(-1.16854 0.633531 -1.8143e-18)
(1.77508 -0.730881 -1.60192e-19)
(0.503322 0.454766 -9.54816e-20)
(2.67832 -0.925539 0)
(-2.09998 0.302069 0)
(3.24105 0.425396 0)
(1.99499 0.0607148 1.07205e-19)
(-0.210251 -0.759904 -4.799e-19)
(-0.139924 0.388104 4.19048e-19)
(1.68647 -0.337442 -8.26093e-21)
(2.91316 1.26492 -3.7252e-19)
(2.02618 0.195255 0)
(1.13853 1.56913 4.5613e-19)
(2.17959 1.24843 -4.86902e-20)
(-0.849858 -1.17209 -1.95118e-19)
(1.91611 -0.852405 -2.0554e-19)
(2.22518 -0.405127 9.34558e-21)
(1.37913 -0.653759 6.86951e-20)
(2.1871 0.425126 0)
(2.89708 -0.352647 2.03525e-19)
(0.131402 0.185649 3.15989e-19)
(2.01093 -0.025354 6.67095e-21)
(3.17837 1.09913 -2.23767e-19)
(3.15796 -1.82808 0)
(2.3412 0.777391 0)
(0.240995 0.06756 0)
(0.689054 -0.49602 0)
(1.75699 0.0323112 0)
(1.53156 -0.592884 9.02185e-20)
(3.22722 1.24381 3.7375e-19)
(1.57405 -0.659119 2.19165e-19)
(2.09119 0.042216 1.78963e-19)
(-2.3585 1.55764 0)
(2.48173 -0.899397 2.57776e-21)
(-0.299185 0.420382 0)
(-2.4088 1.71681 -1.00426e-18)
(-0.229899 0.207235 2.38588e-19)
(3.04007 0.921537 -2.46329e-19)
(1.98097 0.0654841 2.97194e-19)
(2.01965 0.198197 -1.07805e-19)
(2.8594 0.562708 -1.177e-19)
(2.53704 0.018767 0)
(0.00478302 -0.631907 4.82575e-19)
(2.0079 -0.0120652 0)
(1.52075 0.711489 1.71613e-20)
(2.28553 -0.12142 0)
(2.06083 0.182094 -1.51031e-19)
(2.1118 -0.0549376 0)
(1.05078 -0.411263 -2.42996e-19)
(0.366768 -0.300014 8.60186e-19)
(2.71282 -0.270378 -1.56543e-19)
(1.41197 0.256308 4.02049e-19)
(-0.216421 0.160682 -1.73888e-18)
(3.51349 -1.17281 0)
(1.1556 -0.282815 -9.27259e-19)
(1.63407 -0.224847 -1.14371e-20)
(3.09481 0.517419 -6.37512e-19)
(1.66422 0.0235367 -3.48571e-21)
(2.03685 0.765156 4.53028e-19)
(1.88118 0.889699 0)
(2.032 -0.86089 1.27465e-20)
(2.10173 -0.891136 0)
(2.17179 -0.140554 1.12321e-20)
(0.616025 -0.221702 6.59821e-20)
(-1.80422 2.00144 0)
(2.30603 0.47367 0)
(0.174315 -0.547954 -1.78603e-18)
(2.29562 0.716271 0)
(1.54198 1.48186 4.1557e-19)
(2.6037 1.08536 -8.00338e-20)
(1.04766 -0.336272 -4.17041e-19)
(-2.65157 0.836846 -9.61311e-19)
(1.98547 0.00484818 -2.09573e-21)
(0.0753952 2.42923 -2.12704e-19)
(0.276565 -0.217004 -5.4194e-19)
(1.94568 -0.0316412 3.22025e-19)
(-1.827 0.459623 6.88618e-19)
(-0.943225 0.513329 0)
(2.40863 0.19633 6.38021e-20)
(-1.01183 -0.208819 2.24001e-18)
(0.552937 0.0757073 7.40919e-20)
(3.19956 0.728868 4.80854e-19)
(2.36851 1.55972 0)
(1.99863 -0.494171 -1.02289e-19)
(1.62279 -0.314376 4.5857e-22)
(1.13778 0.710972 -3.81859e-20)
(2.92562 0.0362776 -2.64447e-19)
(-3.05764 1.27095 5.7372e-19)
(-1.39556 2.15602 7.34309e-19)
(1.58788 -0.644872 -5.4116e-20)
(-2.93789 1.03067 -2.66975e-20)
(3.05371 0.0229574 -3.32033e-19)
(-3.01423 1.15262 -6.45061e-19)
(3.08897 -1.41245 0)
(1.98275 -0.141588 -2.35712e-19)
(-1.03831 -0.131996 0)
(-1.8743 1.97403 -1.01673e-18)
(-0.673379 0.14934 1.61131e-19)
(-0.920061 -0.0829376 3.8518e-19)
(1.72974 -0.234241 7.55047e-21)
(-0.0136169 0.0966463 7.05178e-20)
(-0.855296 0.252773 0)
(2.6666 -0.736465 -7.6898e-19)
(2.82803 -0.89277 -3.98169e-19)
(-1.008 0.0860945 -3.60366e-19)
(1.74804 0.431201 0)
(1.66587 0.400579 0)
(0.355657 0.171314 0)
(0.777831 -1.95333 -4.39606e-19)
(1.9653 -0.0615314 -2.8399e-19)
(1.40041 0.0568666 0)
(2.27716 -0.233275 0)
(2.23263 0.189006 -4.12596e-20)
(0.992275 1.93957 -1.39388e-20)
(2.06429 0.305132 -4.67651e-19)
(3.68255 1.02288 -1.57155e-18)
(1.60757 0.0365949 1.09874e-19)
(2.10483 -0.0741413 -6.75945e-20)
(1.68353 -0.235992 3.43117e-20)
(1.89731 0.474613 -3.16813e-20)
(1.74648 1.03874 0)
(0.303793 -0.232741 6.80093e-23)
(-0.575099 -0.752056 0)
(1.13485 0.0292258 0)
(2.88155 0.498319 -1.6535e-19)
(-2.17213 1.7822 0)
(2.40462 0.472891 0)
(1.99239 -0.106944 3.67678e-19)
(2.31851 -0.917341 0)
(1.99913 0.182503 4.73182e-19)
(3.1514 0.90502 2.23176e-19)
(2.94878 0.907748 7.0078e-20)
(1.53282 -0.35945 -4.41478e-21)
(1.13066 1.00627 2.99368e-19)
(2.74771 -0.822827 -1.55408e-20)
(3.01661 -0.879331 6.87663e-20)
(1.30219 -0.518747 3.1653e-19)
(-1.47742 1.26904 0)
(1.09563 -0.543397 0)
(-1.20621 1.13296 -9.43132e-19)
(0.397019 -0.303387 -1.14427e-18)
(-1.98373 1.13256 0)
(-1.82884 0.970135 1.90116e-18)
(0.214569 -0.146701 0)
(-0.333698 -0.605684 4.74751e-19)
(1.26785 -0.594636 -3.89982e-19)
(3.27201 0.769264 -1.00842e-20)
(2.87079 1.03469 1.44842e-19)
(1.34589 -0.476111 6.23004e-20)
(2.97075 -0.010603 1.35207e-19)
(2.14939 0.870606 0)
(2.22205 0.870356 0)
(1.18447 -0.073576 0)
(-0.597263 0.314514 -2.31774e-19)
(1.53206 -0.589608 0)
(2.15999 0.651351 0)
(1.61306 0.02567 0)
(1.93517 0.452969 5.55728e-20)
(0.750885 -0.442563 1.83014e-19)
(2.36809 -0.759261 1.74062e-19)
(0.357537 -1.78121 1.3089e-18)
(1.73815 -0.440981 0)
(-1.54174 2.12542 0)
(2.24469 -0.499752 7.56065e-20)
(1.57518 0.44868 6.50045e-19)
(-0.10219 0.210127 -4.53496e-19)
(2.5681 -0.0928061 3.62532e-21)
(1.89268 -0.466302 1.62635e-19)
(1.07063 0.280268 -1.00233e-18)
(0.384722 -0.315383 0)
(1.18666 1.05415 -7.15656e-19)
(0.518033 0.177541 -6.27919e-19)
(2.99502 0.783084 0)
(2.22011 -0.00318585 0)
(2.31314 -0.035112 0)
(2.05265 0.0384801 -3.45371e-19)
(1.47251 0.183107 -4.02996e-19)
(1.70375 0.0568369 0)
(1.96677 1.21608 5.88124e-19)
(2.04633 -0.862488 -4.8183e-20)
(2.09559 0.137913 -2.56789e-20)
(-1.60018 1.09207 5.21123e-19)
(2.16444 -0.176726 0)
(2.47977 0.113416 -6.6875e-20)
(1.9197 -0.405572 0)
(-0.638177 -0.370045 -2.18931e-18)
(1.96846 -0.85014 0)
(2.51936 -0.688287 -5.92551e-19)
(3.57906 1.02511 1.62981e-20)
(2.35082 -0.0540473 1.32834e-19)
(2.13487 0.149425 0)
(2.04894 -0.812006 0)
(1.74339 -0.727606 -1.96462e-19)
(2.22948 0.406349 -8.40944e-20)
(-2.60498 1.54585 5.82239e-19)
(1.00831 -0.488148 3.32343e-19)
(1.98509 -0.0806815 0)
(1.61024 0.12687 -5.85224e-19)
(2.38991 0.0205267 -1.11085e-19)
(1.07796 -2.22564 -6.11408e-19)
(2.17872 -0.613968 9.74794e-20)
(2.22935 -0.570608 0)
(1.31875 -0.417126 4.57755e-19)
(1.08671 0.0616147 -6.01331e-19)
(3.06379 1.05905 5.67048e-21)
(1.81997 0.161082 -7.00773e-19)
(-1.80299 1.09592 4.87757e-19)
(-0.00522493 0.674623 -1.09975e-18)
(2.76162 1.43747 1.33395e-18)
(2.13103 -0.0357411 -2.06e-20)
(0.23314 0.322091 4.53695e-19)
(-0.188203 0.127824 -2.23385e-21)
(-2.04917 1.356 8.96537e-19)
(-2.4518 1.5301 1.07478e-18)
(1.92074 -0.167502 8.15846e-20)
(2.26399 -0.0452865 0)
(0.284013 -0.487506 3.90263e-19)
(1.39604 -0.664007 1.58357e-20)
(1.80523 -0.269868 1.44119e-19)
(-0.241396 0.297077 0)
(1.75353 -0.409653 -3.52035e-20)
(1.73348 0.100476 -2.03157e-21)
(2.07145 0.0282252 0)
(0.525124 -0.142644 3.79018e-19)
(-1.88075 1.33919 5.03692e-19)
(1.77906 -0.38798 0)
(1.18732 -0.459698 0)
(1.45458 -2.25597 -6.3206e-19)
(1.52957 -2.36161 -2.63557e-19)
(2.83758 0.459164 5.61726e-20)
(-0.418622 0.318033 0)
(1.94014 0.00261507 -1.78257e-19)
(3.81562 -0.930916 -3.29583e-19)
(2.62893 -0.582898 -5.60846e-20)
(1.35169 -0.539956 3.82317e-19)
(-2.17004 1.57556 -7.03644e-19)
(-2.20855 1.88559 5.7583e-19)
(3.39509 1.0682 -4.91079e-21)
(2.14444 1.53459 0)
(1.53619 0.801924 -4.51308e-19)
(1.72126 -0.663613 1.09357e-19)
(1.76823 1.69904 1.49973e-20)
(0.932119 0.410199 0)
(1.27399 -0.290808 -4.28586e-19)
(1.36064 -0.586456 -4.56237e-19)
(-1.67826 1.61672 6.96112e-19)
(0.443865 -0.565145 -5.70058e-19)
(1.84111 1.32194 0)
(-0.167721 0.469561 -2.64454e-19)
(2.21178 0.542641 0)
(-1.12653 -0.889397 -4.11667e-19)
(-0.112244 0.798668 6.40875e-19)
(0.0705539 0.324231 0)
(-1.92082 1.76861 2.86876e-19)
(1.73161 -0.152488 -6.86787e-20)
(1.01406 -0.499299 2.29814e-19)
(1.84248 -0.682181 1.38866e-19)
(-0.726931 0.784445 -1.47702e-18)
(1.33492 -0.617096 0)
(1.99727 0.00206074 1.22441e-19)
(0.577324 0.408391 0)
(2.20846 0.209549 -8.31997e-21)
(-0.61049 0.467017 -5.35572e-19)
(0.703601 -0.297776 2.50666e-19)
(1.94801 -0.452037 0)
(2.15457 -0.763319 6.61891e-20)
(3.10592 0.449014 8.9879e-20)
(-2.00451 1.95646 1.26116e-18)
(-1.93159 0.813617 0)
(-2.03913 1.91177 -1.12733e-18)
(2.5928 1.02563 -5.62062e-19)
(1.66968 0.121092 7.5037e-19)
(2.9671 -1.12155 0)
(2.94436 -0.25038 3.95224e-19)
(-0.523453 0.508863 5.3013e-19)
(1.08809 -0.333336 -1.01282e-19)
(2.47783 -0.354936 -1.44513e-19)
(-1.96652 1.06596 0)
(2.26451 -0.923632 -8.9375e-20)
(1.30408 -0.0382323 -3.28924e-21)
(1.99817 0.1789 -9.41741e-21)
(2.35453 0.0120251 0)
(-1.5838 2.19339 4.84579e-19)
(1.80891 -0.479821 3.89249e-21)
(1.39967 -0.438442 4.72007e-20)
(1.02901 0.632042 0)
(2.41719 -0.784697 1.91776e-19)
(-1.39477 1.41667 1.12363e-18)
(1.90414 -0.417523 -2.08419e-19)
(-0.247711 0.0846264 0)
(1.0048 -0.467341 -1.6984e-19)
(2.44386 -0.732932 -1.30272e-19)
(-1.81815 1.27865 -8.80431e-19)
(1.57735 -0.417965 0)
(0.983809 -0.427869 7.93597e-19)
(1.96742 -2.32487 0)
(-1.1517 1.99702 5.97848e-19)
(1.73907 -1.672 0)
(1.96233 -0.113192 -1.41313e-19)
(2.20611 -0.106029 -4.23242e-20)
(2.24435 1.23569 -2.93935e-19)
(1.32526 -2.03156 0)
(2.43595 -0.927618 3.42388e-19)
(2.00814 0.0112368 0)
(2.28822 0.443159 0)
(2.81342 -0.936785 -3.45238e-19)
(-1.39615 2.16498 4.57665e-19)
(0.717853 -0.156534 1.60864e-19)
(2.41524 -0.408719 6.06195e-20)
(1.72491 0.213651 2.58673e-19)
(-0.318084 2.19005 -6.21988e-19)
(2.05232 0.286357 2.12919e-19)
(0.41866 -0.295306 -8.60473e-20)
(0.490214 2.26122 0)
(2.41349 0.302051 0)
(0.371178 -0.253205 0)
(-2.95746 1.06991 2.69473e-18)
(1.31868 -0.477716 -2.80797e-19)
(1.56534 0.0400864 0)
(-1.55583 0.609053 1.99487e-18)
(2.27147 -0.0341109 -2.88954e-20)
(-1.86922 0.904141 -6.47273e-19)
(1.51748 -0.563506 -7.50449e-20)
(2.76266 -0.855109 0)
(1.08827 -0.369181 7.19158e-19)
(0.555594 -0.109369 -8.61142e-19)
(0.144286 0.208078 0)
(-0.324136 0.444888 -3.65452e-19)
(1.61925 0.0208636 -1.90006e-20)
(2.67802 -0.303482 1.09154e-19)
(2.00118 0.0285381 1.89813e-19)
(2.46076 1.13979 -4.40491e-20)
(2.36327 0.241736 -1.56704e-20)
(-1.164 -0.434707 0)
(2.24266 -0.75834 0)
(-1.00854 0.283332 2.15392e-18)
(-0.203341 -0.686807 0)
(1.74461 -0.370107 -3.62943e-20)
(2.61337 -0.692028 4.64059e-19)
(1.1414 -0.540357 3.40113e-19)
(2.59098 -0.286534 -1.47013e-19)
(1.77569 0.255536 -2.64883e-19)
(1.67907 -0.660598 -1.17754e-19)
(1.77973 -0.675015 -1.73882e-19)
(0.851498 -1.80646 0)
(1.91204 -0.681999 9.87551e-20)
(2.17732 -0.242172 0)
(2.06797 0.296291 -5.95145e-21)
(1.83308 1.10535 5.32252e-20)
(0.545746 -0.406205 2.03003e-19)
(2.30914 -0.124344 7.55595e-20)
(0.0100344 -0.57559 -3.82692e-19)
(0.316825 -0.259249 0)
(-0.0549476 -0.172355 -6.57763e-19)
(-0.860034 2.62609 -8.30821e-19)
(2.02339 0.472463 -2.46597e-19)
(2.07343 -0.750818 -2.50529e-20)
(2.11792 0.0126464 -7.52268e-21)
(0.597704 -0.569193 1.93028e-19)
(2.69521 -0.938619 5.80157e-19)
(0.512287 0.00612035 0)
(-2.0203 0.960675 1.96456e-18)
(1.91886 -0.359357 1.14651e-19)
(2.17814 0.0586326 9.16452e-23)
(1.33668 -0.593666 6.73016e-19)
(-1.14005 -0.202283 3.69501e-20)
(1.68363 0.492478 0)
(-3.04586 1.3936 -1.10476e-18)
(-1.68436 2.1509 -7.22523e-20)
(1.23383 -0.400981 -5.64744e-19)
(-2.90245 1.0987 1.31178e-18)
(1.84306 0.940102 -1.24348e-19)
(2.04043 0.408053 4.85608e-21)
(1.10866 -0.459262 2.60069e-19)
(1.94581 -0.358217 0)
(2.50752 0.209361 2.21e-20)
(2.67109 -0.0417774 -4.40955e-21)
(2.74229 1.03185 -1.2142e-19)
(-0.994635 -0.683003 0)
(3.16107 1.26882 8.57338e-22)
(-0.759919 -0.782698 3.94337e-19)
(1.79413 -0.752925 3.26344e-19)
(0.126732 0.143182 1.0119e-20)
(-0.849593 -1.10791 -2.93752e-19)
(1.13635 -0.294 1.39441e-18)
(2.33213 -0.723106 -2.51833e-19)
(2.34438 0.0193229 1.44056e-21)
(-0.561734 -0.0179514 -9.50442e-21)
(2.90554 0.124483 2.75036e-20)
(0.339103 0.785974 0)
(1.9981 0.0236457 0)
(2.25802 0.510981 0)
(1.98057 -0.69141 -4.76542e-20)
(1.83351 -0.739112 1.67588e-18)
(-0.953742 0.164005 0)
(1.36216 -0.437464 -1.15222e-19)
(0.0433567 0.563672 0)
(3.24283 0.59984 0)
(-1.05073 -0.0320252 0)
(1.8347 0.00255181 0)
(1.03843 -0.410685 -2.47538e-19)
(0.558115 -0.177422 0)
(2.06792 1.1905 6.4523e-19)
(1.13708 0.0133017 0)
(1.40655 -0.110345 0)
(1.93366 0.133933 2.65029e-21)
(0.389127 -0.316133 0)
(3.04018 0.831796 0)
(-0.785369 0.288292 0)
(2.54365 -0.0222746 8.37191e-21)
(1.62961 -0.255085 0)
(2.99617 -0.812806 5.35114e-20)
(1.12216 -0.604444 3.55545e-21)
(0.659386 -0.169417 -2.43879e-19)
(1.98468 0.0099351 5.48997e-19)
(0.129521 0.0382956 -1.29633e-18)
(1.11448 0.627187 -5.70355e-19)
(1.46474 0.5582 0)
(2.22944 0.0247111 -1.7968e-20)
(1.79273 -0.220587 -1.40716e-19)
(1.4868 1.35269 1.97281e-19)
(1.8348 0.293323 4.11006e-19)
(0.93014 -0.351811 -5.87676e-19)
(1.67178 -0.725044 -1.72132e-19)
(1.33299 1.74149 8.16296e-20)
(-1.02689 0.823819 0)
(2.98352 0.91286 -4.7957e-19)
(-0.532102 0.602839 7.75196e-19)
(2.60518 0.370698 6.6555e-21)
(-0.286319 0.414751 0)
(1.91606 0.00328083 -2.13389e-19)
(2.12997 1.03757 -5.32149e-19)
(1.50147 -0.613939 3.06485e-19)
(1.39195 -0.637944 -3.92687e-19)
(1.90766 -0.846731 0)
(2.00706 -0.833541 0)
(2.22383 1.40882 1.06782e-18)
(2.34202 -0.0662399 1.03027e-19)
(3.24132 0.635937 -2.57945e-19)
(1.8097 -0.0518914 4.24137e-20)
(1.34322 -0.404648 -1.10307e-19)
(1.89631 -0.526258 1.52627e-19)
(2.39995 0.317563 0)
(2.31921 0.308243 -6.11873e-20)
(1.0656 -0.129815 -1.09264e-18)
(1.43098 1.18462 2.84356e-18)
(3.63598 0.475763 -1.14578e-18)
(-0.71204 0.469449 3.29936e-19)
(3.01956 0.675946 2.15376e-19)
(2.3655 0.744574 -6.44172e-20)
(2.26529 0.60519 0)
(-2.78928 1.42625 0)
(2.88665 -0.762829 3.77698e-20)
(1.29371 -0.317725 0)
(2.01025 -0.361584 4.78968e-20)
(1.67623 0.172045 4.41483e-19)
(1.69467 0.357667 -1.43798e-19)
(1.74422 -0.688737 3.82154e-19)
(1.27242 -0.15571 2.03092e-21)
(1.37216 -0.0807075 0)
(2.0679 -0.0946364 -7.95314e-21)
(-0.826164 0.333368 -5.4901e-19)
(2.0966 0.24014 0)
(1.89301 0.305925 0)
(2.20612 -0.79507 -6.09004e-20)
(1.90811 0.476071 2.61531e-19)
(1.21112 -0.236837 0)
(4.33483 0.372559 1.81396e-19)
(2.85619 0.0583864 8.22509e-20)
(2.26341 0.316587 1.01446e-19)
(1.77802 0.350516 4.18236e-19)
(-3.0998 1.03591 -1.24089e-18)
(1.15704 -1.70892 0)
(-0.302922 -0.508434 -8.92833e-19)
(0.664245 -0.300094 8.9696e-19)
(2.00198 0.0122952 1.1814e-20)
(-0.548818 -0.657977 -4.06527e-19)
(2.03791 -0.776268 1.46833e-22)
(2.55102 0.423399 -4.10602e-20)
(0.440112 2.23683 0)
(1.9836 0.0982618 2.69637e-21)
(1.89199 -0.0139784 6.44855e-20)
(1.96161 -0.0106254 -4.0213e-20)
(2.10748 0.431324 -2.4519e-19)
(2.76244 -0.696215 0)
(-2.61568 0.818669 0)
(2.55444 0.0264226 0)
(2.21151 0.379796 -1.72902e-19)
(1.21527 -0.574015 5.20227e-19)
(2.07986 1.57299 1.27061e-20)
(1.59506 -0.163809 0)
(0.372113 -0.158895 -2.02716e-19)
(-2.95154 1.10366 1.12039e-18)
(-0.288486 0.895695 0)
(1.90441 0.188685 -1.28638e-19)
(1.69136 0.155313 -1.44094e-19)
(3.30423 0.272155 -7.3948e-20)
(2.01992 -0.52004 8.35684e-20)
(0.82897 -0.315487 0)
(2.13281 0.174871 -2.65966e-19)
(2.19514 -0.305829 0)
(2.17898 -0.148812 1.32092e-20)
(1.11789 -0.0327386 0)
(2.10533 0.750881 2.39495e-19)
(1.87152 -0.705777 -1.04195e-19)
(2.24835 0.775891 0)
(1.90857 -0.104918 -2.75251e-19)
(2.13486 -0.690538 -6.98458e-20)
(2.23108 -1.13125 0)
(1.29783 -0.613217 0)
(0.665702 0.0560135 -8.22415e-20)
(2.15854 -0.128296 -6.51626e-21)
(-1.11094 0.156704 -9.49237e-19)
(1.05026 2.09921 2.55589e-19)
(2.86844 -0.014956 -9.36686e-21)
(0.754385 0.731025 4.53679e-19)
(1.77712 0.29043 -1.75454e-21)
(1.98475 0.476341 0)
(3.00896 1.09825 2.24635e-19)
(1.97741 -0.859206 0)
(1.67137 -0.752426 -1.73808e-19)
(2.06842 -0.831142 7.05294e-20)