/*--------------------------------*- C++ -*----------------------------------*\
| =========                 |                                                 |
| \\      /  F ield         | OpenFOAM: The Open Source CFD Toolbox           |
|  \\    /   O peration     | Version:  2306                                  |
|   \\  /    A nd           | Website:  www.openfoam.com                      |
|    \\/     M anipulation  |                                                 |
\*---------------------------------------------------------------------------*/
FoamFile
{
    version     2.0;
    format      ascii;
    arch        "LSB;label=32;scalar=64";
    class       surfaceScalarField;
    location    "0.9";
    object      phi;
}
// * * * * * * * * * * * * * * * * * * * * * * * * * * * * * * * * * * * * * //

dimensions      [0 3 -1 0 0 0 0];

oriented        oriented;

internalField   nonuniform List<scalar> 
20045
(
1.01689
-1.10559
0.0886996
-2.15095
0.766885
1.38407
0.62188
3.40026
-4.02214
0.421825
-0.578333
0.156508
-1.65836
1.63319
0.0251654
-1.11806
4.30666
-3.18861
-2.02172
0.905152
1.11657
0.134589
0.853892
-0.988481
0.926743
0.858849
-1.78559
-1.67499
-0.251541
1.92653
1.14753
0.30225
-1.44979
4.48304
-2.21683
-2.2662
0.725221
-0.747592
0.0223717
-2.55028
2.1219
0.42838
-0.683649
2.1384
-1.45475
-2.23218
0.557192
0.0867129
1.21278
-1.29949
1.86563
-1.43099
-0.434637
-3.46997
5.00239
-1.53243
-1.50126
0.101197
1.40006
0.931207
-0.847474
-0.083733
0.234168
0.491053
-0.255897
-1.89506
0.965972
1.60289
-2.56886
1.68437
0.399252
-2.08362
-1.72754
2.69351
-0.826594
0.764011
0.0625836
-2.21865
4.22743
-2.00878
3.47648
0.443295
-3.91977
-4.00561
2.3002
1.70542
-0.218521
-0.746317
0.964837
2.90908
-2.01756
-0.891518
-1.65382
2.86063
-1.20681
4.35249
-2.5006
-1.85189
-1.10497
1.23956
4.4653
-2.24934
-2.21596
2.89023
0.483615
-3.37385
-0.13169
0.789984
-0.658294
-3.99188
1.53852
2.45336
1.23085
1.01154
-2.24238
0.114984
0.813218
-0.928203
0.357129
-0.480109
0.122979
4.33063
-4.32722
-0.0034078
2.98573
-1.13054
-1.85519
1.38072
1.60501
2.13105
2.35199
0.74378
-0.148428
-0.595352
2.48265
1.13503
-3.61768
3.70775
-0.817518
0.273316
3.53404
-3.80735
2.61682
-4.43091
1.81409
3.68232
-2.75347
-0.928847
-2.30177
-1.8875
4.18927
-0.185689
-0.602928
0.788618
1.67251
-0.377145
-1.29537
-1.38192
-0.276443
0.185853
2.87993
-3.06578
3.29722
0.128029
-3.42525
1.46813
-3.12195
4.20429
-2.85988
-1.34441
0.931347
0.442114
-1.37346
1.66418
2.54011
2.16699
-3.97019
1.8032
0.760766
0.170441
1.27123
0.443283
-1.71451
3.24599
0.506718
-3.75271
-0.17863
0.59228
-0.41365
-1.35553
0.301636
1.05389
1.68384
-0.757095
3.77281
-3.83663
0.0638174
-0.412066
0.233436
-0.23711
1.90962
-0.504744
-2.04909
2.55383
0.695524
-0.41
-0.285524
3.58439
-0.582951
-3.00144
2.74256
-2.55671
-0.137961
3.72235
0.836471
-1.52012
-0.852139
0.903968
-0.0518299
1.06918
-2.30498
1.2358
2.08285
2.38779
-4.47064
1.82929
-1.42409
-0.405197
3.51962
-1.35263
-4.47718
0.8647
3.61248
0.0455833
0.971303
-1.12541
1.33283
-0.207425
2.40084
-2.51918
0.118343
-3.21214
0.132966
3.07918
2.02286
0.375014
-2.39788
-1.71688
1.55471
0.16217
-2.98349
-0.428249
3.41173
1.43359
-0.246469
-1.18712
0.819252
-1.167
0.347752
-0.304298
-1.62412
1.92842
1.18286
-1.25989
0.0770239
2.95654
0.801028
-3.75757
-0.498825
-0.327769
0.063833
-0.677905
0.614072
2.42855
-1.1977
-0.225068
1.33238
-1.10732
3.06374
1.40155
-0.968109
-1.58217
-0.720476
0.784309
-0.553627
3.85085
-0.0523121
-1.0731
-1.42365
1.19858
0.835686
2.40304
-3.23873
2.48273
-3.62881
1.14608
-0.108359
-0.938808
0.810692
0.128116
-0.56271
0.698693
-0.135983
2.51992
-1.78844
-0.731482
-0.990309
0.804619
2.64138
-4.22207
1.58069
-0.366338
0.671336
-0.304999
0.108213
-0.677121
0.568908
2.31338
-0.629011
3.22668
1.1258
-2.29103
1.78629
2.75232
-4.01832
1.266
1.25654
0.609093
1.13186
-0.20051
-1.55851
1.27201
0.2865
-1.50915
0.194447
-1.16271
0.968261
2.68704
0.995278
2.24329
-2.82936
0.586065
3.17092
0.393644
-3.56456
-4.06571
3.21012
0.855589
-0.86328
-1.22253
2.08581
3.92226
-1.23522
-1.07619
0.927763
0.865001
-0.213373
-0.651628
0.0292197
-0.115693
0.0864733
2.27047
1.62852
-3.89899
2.37917
-2.27399
-0.105186
-0.742025
0.276642
0.465383
-0.659224
-0.279584
4.49899
-1.74667
-1.28685
1.37794
-0.091093
2.44237
-3.98902
1.54666
0.873588
-3.17536
2.26085
0.940465
-3.20131
2.53133
-1.46215
3.86716
-0.508379
-3.35878
0.347614
-2.64677
2.29915
4.03132
-3.26046
-0.770855
-0.348512
0.825419
-0.476907
0.0617566
3.87358
-3.93533
4.23337
-0.756893
-3.30934
0.110822
3.19852
-1.87774
1.66569
0.212053
4.01193
-1.92908
0.680967
1.14832
-2.53725
3.04226
-0.505015
-2.78312
3.405
0.0523451
-0.80204
0.749695
0.395846
-0.5031
0.107254
-0.0660936
-0.746617
0.812711
3.59082
-0.294832
-3.29599
5.08928
-2.47905
-2.61023
-0.880004
0.813911
1.55166
-2.90756
1.3559
0.438375
-0.0812456
-3.3071
-1.92354
2.68845
-0.764911
-2.68015
1.9954
0.684754
-0.0603767
-0.106875
0.167252
1.04376
2.98755
-0.112324
0.141544
-0.0543783
0.919379
-2.77971
0.242466
-2.97512
3.7236
-0.748479
-2.60518
3.03242
-0.427242
-2.40991
-1.68489
4.0948
-0.0282977
-0.858055
0.886353
1.73581
-1.90312
0.167305
2.96348
0.575486
-3.53896
0.0137764
-3.01686
3.00308
-1.49132
3.75217
0.788073
-2.17472
1.38665
-1.56332
4.2047
-3.31884
2.15823
1.16061
-0.301529
0.313557
-0.0120275
1.48851
-4.3135
2.82499
-3.42336
1.20472
-2.45007
-1.57407
3.78163
-2.34406
-1.43757
-1.04877
1.16376
0.67153
-0.715532
0.0440019
-3.06491
-0.775087
3.84
-3.1081
4.37994
-1.27183
3.76035
-2.58828
-1.17207
0.351293
-1.08952
0.738224
-0.87021
-2.01402
2.88423
-0.216411
1.36395
-1.76496
0.901684
-2.64025
-0.927613
3.56786
0.478957
0.119617
-0.598574
0.449734
-2.37327
0.688719
-0.907239
3.40694
-0.236022
-0.661294
0.529603
-0.702911
0.835633
-0.132722
-0.405977
3.99679
-3.03579
2.16558
1.25977
-0.0541222
-1.20564
-2.76265
0.539076
2.22358
1.3242
2.43614
4.51069
-3.02218
2.67034
-4.39846
1.72812
0.913951
-2.62099
1.70704
0.120662
-1.62192
-1.93646
2.77214
2.59423
-3.71229
0.900475
-2.56632
1.66585
-4.37324
2.41046
1.96278
-0.112385
-1.60449
0.725266
0.559427
-1.28469
2.77579
-0.746857
-2.02894
1.4191
-2.64217
2.70393
-1.01017
-0.276676
2.44903
4.30241
-3.67278
-0.629631
-0.0413496
-0.549431
0.59078
2.65659
0.386265
-3.04286
0.677374
0.458281
-1.13565
-0.268234
2.32401
-2.05578
-0.365901
2.76674
2.2584
-1.47033
-0.342343
0.864041
-0.521698
3.29347
-0.851105
0.459613
-0.0502847
-0.409328
0.663195
0.197963
-0.861159
-0.558601
0.58071
-0.0221086
3.74064
-2.43706
-1.30358
0.956585
-4.06469
-0.619239
0.0606376
-3.48821
1.12359
2.36461
3.91678
-1.05615
0.95294
-3.92806
4.92696
-2.30568
-2.62128
-0.0736873
0.552644
3.51544
-1.39631
-2.11913
-2.46459
0.570974
1.89362
-3.95827
3.96601
-0.00774452
1.07323
-2.89398
1.82075
-0.166541
0.107515
0.0590255
-1.90216
2.54803
-0.645869
0.0205306
-0.622149
0.601618
-0.614522
0.248185
-0.677261
0.114551
-2.55526
-1.07355
1.81439
-2.88515
1.07077
0.871232
-1.03461
0.16338
1.63232
1.27676
2.25593
-1.35545
0.0297738
0.366072
2.44383
1.47294
-1.95422
0.00606183
1.94816
1.0546
2.46085
1.5
0.638399
1.01208
-0.140848
-1.12737
-0.0723444
1.19971
-0.0512913
-0.250238
-2.49879
2.23055
-0.789169
1.12154
-0.332372
-3.53453
3.36999
0.164542
-1.76032
2.47679
-0.71647
-0.795653
-0.439132
1.23478
2.98972
-3.25712
0.267394
-2.61618
-1.75706
5.09258
-3.39316
-1.69942
-0.441522
0.400172
3.2202
-2.14697
-1.22734
3.04173
-0.327558
-1.0403
1.36786
3.30845
-0.412012
-2.89644
4.13508
-0.434109
-3.70097
-1.49091
1.16336
3.29593
-1.91485
-1.38109
-0.638607
3.11183
-2.47322
2.04603
-2.57972
0.533693
-0.136213
-0.82325
0.959463
1.03997
0.163969
-1.20394
4.55825
-3.55734
-1.00091
-2.22574
-1.83996
3.18917
1.11324
-3.19403
-0.340501
-0.222711
0.885906
0.770721
-3.22988
2.45916
0.0176643
0.653866
-2.13692
4.40739
1.37578
2.36486
4.11515
-2.56925
-1.5459
-3.96558
3.03797
3.03563
-4.71341
1.67778
-2.42707
-0.174432
2.60151
-0.8951
-0.714097
1.6092
2.51722
-0.965558
0.234945
1.02482
0.874623
-0.0837052
-1.93386
-2.80226
3.92656
-1.1243
-0.827539
0.124628
-0.293158
-0.0491856
0.470177
-4.42844
2.30257
-2.66847
0.642836
-1.0826
1.433
-0.350396
-0.0298152
0.45164
-2.0434
1.44601
0.597388
1.36944
1.15048
-1.39895
2.07104
-0.672096
1.93109
0.448078
-2.52529
3.29601
2.29323
-0.270368
-0.816493
-1.94616
3.75073
-2.66892
-1.08181
3.72961
-3.66575
1.21183
2.45392
3.16303
-3.46692
0.303891
-1.70392
1.39963
-0.501746
-0.240279
-0.487317
-2.49617
1.10949
-2.14972
1.04022
1.68823
1.60771
2.99581
-4.24338
1.24757
0.873502
-2.12612
1.25261
-3.87816
0.666013
0.0335501
1.40004
-2.38153
3.60984
-1.22831
-1.00492
1.2346
-0.229675
-1.57931
-0.442405
-0.519729
-0.8833
1.40303
0.384384
0.00757731
-0.391962
-1.32259
-0.555148
1.50552
1.78391
-3.28943
3.35969
-2.30509
1.25194
-1.75719
0.0532659
1.82976
-0.956261
-2.64848
-0.670369
-0.536808
0.494284
0.0425244
3.85992
-1.37728
-1.78966
2.97769
-1.18803
-0.484961
0.552083
-0.0671215
3.00252
-0.226727
-0.982311
-2.24757
-1.94423
3.61245
-1.66821
2.70348
-4.32014
1.61666
2.12155
2.97104
0.638695
-0.342143
-0.296552
0.379637
-2.80671
2.7013
-4.11677
1.41546
0.24418
0.451345
-0.259602
2.50289
-0.289986
2.59256
-1.70707
2.62103
0.811248
-4.28121
-3.6803
2.05291
1.62739
2.54429
-0.38215
-2.16214
3.71205
-0.722323
-1.59516
-2.12787
-1.89362
1.6781
0.106992
-1.25361
1.14662
1.26605
-1.16485
-2.80115
2.54155
3.47814
0.852492
-3.12529
1.33563
4.28935
-1.10017
0.576163
-0.639897
0.0637339
0.0191282
-2.43896
2.41983
-3.58823
0.663233
2.92499
3.36106
-3.36106
-1.06399
3.42543
-2.36144
1.05371
-2.45265
2.58282
-1.57028
-1.01254
-3.61256
3.80503
-0.192463
1.33503
-0.185392
-1.14963
1.06085
-0.439061
-0.621784
0.437767
-1.23342
-0.969199
1.94008
-3.16743
-3.23358
3.82625
-0.592676
-1.11964
2.62516
-1.03751
-0.247418
1.28493
-0.46222
0.86498
-0.402761
-1.51432
1.63498
3.89276
-3.14536
-0.747403
-0.32698
-2.09444
2.42142
-0.921014
1.00759
-0.0865807
0.513597
-1.12011
0.606513
-4.21392
1.77276
2.44116
-0.41408
-0.164253
0.695471
-0.119308
0.208994
1.23872
-1.44772
1.86346
2.69478
-1.36158
0.324061
-0.263088
-1.11991
1.383
-1.97829
3.15536
-1.17707
-0.138185
0.490313
-0.352128
1.71901
-0.813854
2.71319
1.23568
-3.94887
0.00753343
-1.63165
0.0189927
2.94449
1.6634
1.22297
-2.88636
1.87775
-1.67641
-0.201346
-4.06877
0.759435
-1.66523
0.738258
0.926972
1.55498
2.03394
-3.58892
-2.47023
2.2958
0.278743
-3.62645
3.34771
-0.522065
0.873358
-0.3459
0.385101
-0.039201
0.0751948
-1.20257
-1.02004
1.38979
-0.369747
-2.68152
-0.806687
2.41682
0.619971
0.211248
-0.83122
-0.499312
0.0143507
0.650694
-2.81994
2.16924
0.787653
2.14547
-2.93312
1.21238
-2.87961
3.43112
-0.551509
-2.83891
2.2003
0.173474
0.590537
-1.6189
-1.06125
-1.03873
0.279919
0.758809
-3.38738
1.40909
2.66301
-2.98999
1.32092
2.96843
-1.16915
1.19313
-0.0239811
1.26685
-3.16611
1.89926
0.611307
-1.09082
0.479511
2.17827
-3.16058
-2.54655
-0.0586278
-1.25677
-0.098754
0.213449
0.745697
-0.959146
1.27659
0.359449
-0.505987
0.146538
3.33744
-1.78245
-3.16188
3.54344
-0.381552
1.03128
0.72588
-1.75716
-1.45495
0.932886
-0.85909
-0.179638
1.52805
1.05477
-1.03595
-2.98237
-0.402444
-0.134364
2.4346
1.6484
0.644837
-3.33494
3.60825
0.326136
-1.75316
1.42703
-0.359063
-3.30215
3.66121
0.494487
-0.507255
0.0127679
1.05859
-1.08688
-0.575441
2.62147
2.89598
-2.54836
-1.6839
-0.359495
0.0363259
-1.63771
1.60139
1.59469
-4.0046
-0.429262
-1.90974
2.339
0.190424
-0.790564
0.60014
-2.61771
0.186125
2.43159
3.79633
-2.6613
-0.0767627
0.353794
-0.277032
-0.859595
-0.0614193
0.728921
1.38676
-2.11568
0.549954
-0.675255
0.125301
2.64918
1.4918
-4.14098
-1.58189
4.53843
0.383697
0.000687645
-0.995747
-2.20423
3.19997
1.60885
2.89013
3.54635
-2.7587
-1.40154
0.881806
1.33727
-0.297305
-1.48857
4.5242
0.599816
-3.08626
2.48645
3.73464
-0.567723
-3.16692
-1.76017
2.79005
-1.02988
1.62186
-1.34209
-1.95624
3.29833
-1.57825
1.40553
0.172725
-1.18873
-1.8747
3.06344
0.356736
-0.818956
0.125015
-0.185391
1.99913
-3.18786
-2.8125
-0.829203
3.6417
-0.248559
-1.88339
2.13195
0.154025
4.61838
-4.74859
0.130208
0.845859
-0.578262
-0.267598
0.0407165
-1.20987
1.01987
0.908542
-1.24266
0.347563
-3.1466
4.00355
-0.856952
0.150749
-0.939918
1.55285
0.978482
-3.38076
-0.946461
0.417605
0.993416
-1.41102
2.14285
-0.494456
-0.810529
0.892822
-0.0822931
-0.635049
0.65558
-4.59784
2.14778
3.60002
0.706645
-0.500625
1.01422
-0.808659
1.83994
3.13213
-1.19205
-0.836483
0.0259543
-0.362705
-2.43845
0.92828
0.911992
-0.859647
-3.65073
0.0624997
-1.07442
0.850999
-0.239692
-3.97091
2.51558
1.45532
3.21016
0.562651
0.756546
-0.241274
-0.515272
1.08167
-1.01542
-0.0662469
-3.5235
1.27416
-4.00567
2.06144
-1.09688
0.879791
0.217093
0.0771625
-0.47827
0.401108
4.22742
0.0279896
-4.25541
0.743329
0.0496018
-0.792931
-0.531203
-1.02731
0.895767
-0.0765146
-0.0746937
0.00685974
0.0678339
1.51935
-0.245307
-1.27404
-0.187846
0.113152
3.33949
-2.53846
-0.117823
-0.561075
0.678898
-4.03021
0.88361
-0.032343
0.147917
-0.868392
-0.500435
1.12041
-0.0366016
0.0663755
0.977565
0.596646
-1.57421
1.62275
-0.351519
1.66653
-1.3404
0.866078
-0.757865
0.273706
-1.27863
2.31741
-0.275374
-2.04203
2.09361
-0.116286
-1.97733
-2.30801
-0.338762
0.599686
-0.0510485
-0.548637
1.51018
-1.74256
0.232379
4.22341
-0.0801088
-4.1433
0.614699
-0.353783
-0.260916
-1.9633
2.59141
-0.628106
1.89034
2.2935
-4.18384
-0.864946
1.30706
-1.02475
1.69235
-0.667596
0.844596
0.370056
-1.21465
-3.43623
1.60399
1.83224
-0.039789
0.0466487
-3.36158
0.549078
1.19803
-0.742168
-0.455863
1.8947
-2.43584
0.541144
-0.333265
-0.772321
0.678113
3.94027
3.25836
-0.528045
-2.73031
-3.32319
0.443585
1.34147
-2.15796
2.67419
-4.31476
1.64057
-0.390475
1.11574
0.13987
-1.56111
1.29802
-0.62645
0.820897
-0.454292
-2.87288
3.32717
1.44598
1.77422
-2.87057
3.07375
-0.203185
-0.677144
0.890593
-2.59186
-1.01718
-0.473438
0.521134
-0.0476969
0.655394
-1.33287
0.677476
0.127927
-0.0446194
-0.0833079
-0.311131
2.20583
-3.19422
-0.623667
3.81788
-2.99038
-0.92193
3.91231
1.91435
-1.44987
-0.464475
-0.884398
0.10395
0.780448
0.334218
-0.770736
0.436518
-3.83243
0.173767
3.65866
0.115703
0.728454
-0.844157
3.15627
-3.53554
0.379266
-2.04816
1.7209
0.470023
-2.19093
0.0245854
-0.498023
-0.903171
-1.46996
2.37313
2.48551
-4.04883
-3.78372
3.28483
0.498886
0.662404
-0.11245
2.57425
-1.0214
-0.257371
-1.02982
1.28719
-0.0411119
0.67278
-0.631668
-1.18623
3.5201
-2.33387
2.9967
-3.22364
0.226937
3.95771
-3.77124
-0.186465
3.17895
-1.35678
-1.82217
0.188074
-0.893681
0.705607
-1.12178
-0.040929
-3.8025
3.33703
0.465479
0.271735
-4.07424
-2.31616
3.97593
-1.65977
-2.28122
-1.27612
0.753881
-0.654527
-0.0993535
-3.15583
-0.874374
-0.723145
0.47488
0.248265
1.04926
-0.37189
-3.67742
3.50125
0.17617
-0.874321
0.184492
-0.594492
0.792428
-0.0490989
-2.40403
0.501871
0.537787
-0.651912
0.114126
-1.58359
1.41584
0.167752
1.39206
-0.057029
-1.01662
2.52309
0.479434
1.41749
0.309539
1.09499
-1.40453
-0.460865
2.19668
-2.44861
1.54101
0.907598
0.120458
-0.160247
3.18408
-1.7381
2.64454
-1.37769
-0.883747
-0.698463
1.58221
1.19047
-2.95651
1.76604
2.15621
-2.40476
3.90192
-1.7105
-2.19142
-0.0204959
-2.03092
-0.417688
-3.02523
3.91782
-0.892589
-0.0402112
-1.02841
3.69875
-4.11903
0.963196
-0.900357
0.764144
-0.457107
-1.00605
0.599972
-0.0192622
-1.92112
-2.06049
4.53013
-1.78757
0.965954
-0.756901
-0.209053
0.254377
0.806468
-2.63325
-1.42603
4.05928
1.11688
1.40034
0.00585817
-0.557378
0.55152
3.28006
0.43227
-0.054037
-0.378233
2.04711
0.270296
-1.46189
-3.90705
0.673469
-0.846645
0.0437316
0.802913
2.23111
2.69585
0.975492
0.365152
-1.34064
3.81347
0.144241
2.32265
-3.30475
0.982097
-3.27244
-0.0602943
3.33273
-3.08917
3.95674
-0.867573
0.518172
-0.000374378
-0.517797
-1.50633
3.99184
0.102839
0.982892
-1.08573
0.182908
-3.05347
0.939564
-0.10254
-0.837025
-3.60824
4.72254
-1.1143
-0.963174
2.10796
-1.14478
4.6268
-2.02896
-2.59784
-0.00189541
-2.34636
2.34825
0.339354
0.045747
-1.8184
3.70874
2.22504
-3.28903
4.18942
-1.48594
-0.708229
0.590406
-3.41078
0.138338
4.48018
-1.48437
-0.100019
-4.37716
0.913253
-0.100035
1.01203
2.1799
-3.19193
2.16088
-0.500834
-1.66005
2.61518
-3.84557
1.23038
-0.676411
0.0418297
0.634581
-0.785119
-1.84401
2.62913
1.39563
-1.12192
-1.90793
0.69015
1.21778
0.541839
1.08827
-1.63011
0.316528
0.437353
-3.38855
4.00285
-0.614307
0.450411
0.0440761
1.74485
0.793238
-2.53809
1.87363
1.42968
-3.30331
0.611743
1.93255
-0.0779482
3.94511
0.0179253
3.11129
-3.12922
-0.116438
-0.0217468
0.0984421
0.125483
-0.223925
2.60123
-2.36368
-0.237551
1.7705
2.13143
1.5184
-1.27165
-0.24675
-1.1052
3.24091
-2.13572
0.0510445
0.615246
-0.66629
1.29358
-2.69531
1.40173
-2.27554
-0.613306
2.88885
3.20784
-0.551242
1.16892
0.991967
-1.89974
-0.115952
2.01569
1.13973
-3.23417
-0.430698
1.08121
-0.650511
0.745822
-0.312709
-0.433113
-0.0412355
0.380589
-0.35258
3.52672
-3.17414
-0.480409
4.01444
3.09776
-2.53416
-0.563591
2.52282
-2.14781
-2.12105
0.687134
1.43392
0.205476
-1.77575
-0.86643
0.663802
0.202627
0.221786
0.53476
0.609457
2.93338
-3.54283
0.796661
0.722688
0.462314
-3.45269
-1.684
0.717135
0.966867
-1.22043
-0.96302
2.18345
1.8459
-0.868332
-3.3426
2.22296
1.45871
-1.07847
-0.380245
-1.9773
3.04677
-1.06947
-1.74088
1.74841
-1.6588
2.18134
-0.522545
-2.61207
3.60379
-0.991711
-0.0873576
0.815661
-0.728303
0.608825
-0.531663
-1.27274
-2.49909
3.78776
-1.28867
-2.12245
2.66153
2.00757
-2.0251
0.0175263
-0.136908
-0.817624
0.954532
-4.29708
3.12043
1.17665
-0.0138021
-0.364862
0.378664
-0.105664
2.26852
-3.45475
2.74106
-1.55059
-1.49026
-2.19003
-2.77129
2.78922
1.97105
0.024345
1.4374
0.591098
-2.0285
-1.25985
1.16816
0.0916862
1.29241
-1.07215
-0.220263
0.500159
-1.66117
1.16101
-0.799149
1.90794
-1.10879
-3.00027
-0.826986
3.82725
0.739262
-0.87617
2.04997
0.551257
-3.60962
2.77417
0.83545
1.06912
-0.084152
-0.984971
0.0222821
0.667167
-0.885917
0.21875
-2.60507
-1.28423
1.78439
0.52403
0.769161
-0.581087
1.21104
-0.555643
0.740084
-1.96261
0.121503
1.06136
-1.08313
0.333425
0.749703
-2.30401
-1.72872
4.03273
-0.516829
-1.38291
-2.00378
-0.357432
2.36122
0.523538
0.668803
-1.19234
-0.0598497
4.3706
-2.80649
-1.56411
0.707245
2.55111
0.207567
1.74845
-1.57499
-0.173459
-1.02925
2.86551
-1.83626
-2.2232
-0.931865
3.15507
-1.74486
0.720104
-1.61919
-0.501861
4.60731
-1.81724
-2.79007
-0.794242
-0.000526344
0.794768
1.52944
0.210957
-1.74039
-0.625612
0.741315
-1.05875
1.85997
-0.801213
0.0345097
-0.0876404
-0.792364
-0.0487654
2.72469
1.88262
-1.92519
3.46371
-1.22274
3.52294
-0.858132
0.0638895
-3.31207
1.08887
2.80221
-2.42258
-0.406618
-2.42586
0.462554
1.48367
-3.79983
2.77733
-2.7582
3.26324
-0.100218
-0.758105
-0.408899
-0.991685
-0.389893
1.38158
-1.13964
-0.120246
2.92646
0.494441
-3.4209
0.0801543
-0.996872
0.916718
0.0602108
1.294
-3.7068
2.41281
3.3829
-0.22663
-3.48366
3.63073
-0.147066
0.842842
-0.541206
-3.92302
-0.374065
-1.24906
3.42307
-0.0860399
1.15483
4.29813
-1.63489
-2.66324
-2.4663
-0.157119
2.62342
0.405625
2.08109
-2.48672
-2.71552
0.097806
-0.699932
-0.484939
1.18487
-1.84818
2.448
0.560684
2.02551
-2.5862
-2.77804
0.0454636
2.73258
-3.63745
0.377569
3.25988
0.770984
1.97007
-0.858378
2.11827
1.06068
-1.08365
-0.581581
2.86675
-3.37513
0.0120844
-1.31263
1.30054
-1.56339
0.698446
2.62176
0.202484
-2.82424
2.36402
-3.58677
-0.00281758
-0.163723
-1.74226
3.70054
-1.95828
-2.31582
1.41265
-0.0521964
1.0295
-0.9773
1.00358
-1.09559
0.0920124
0.979745
0.0788421
-0.976285
2.31776
-0.190581
-0.906303
-0.582667
0.607252
1.33469
-0.876409
0.177293
-0.069778
-0.741164
0.710914
0.0302504
0.761062
-0.861085
0.100023
-2.79209
2.20914
0.491171
-2.49496
-0.0294881
-1.01929
0.0570638
2.15289
-2.20995
1.21149
-1.28384
1.27508
-3.16841
1.89333
-1.4633
2.61674
-1.15344
0.965007
-3.76727
0.257536
-0.108473
-3.67524
1.77558
2.75455
-2.9422
-0.400402
-2.60809
-1.05765
-1.55658
0.673281
0.336887
0.52919
-0.866077
4.44631
-2.2152
3.57947
-0.878172
-0.881946
-0.579775
1.46172
-4.00867
1.57617
2.4325
1.33463
-1.03238
-0.422384
2.14329
0.600167
-0.365999
-1.87627
1.0317
-0.928859
-1.48132
1.69791
-0.216594
-0.477031
3.40349
0.682129
-0.764296
0.0821672
3.3901
-4.8972
2.28372
2.61348
0.916326
0.735738
-1.65206
0.974951
-0.173661
-0.80129
-1.97761
1.01443
-1.32168
0.0153157
1.51412
3.53292
-3.89198
1.52146
-0.676867
-1.55172
2.69144
-3.93597
2.8297
1.10627
1.42863
-2.84303
1.4144
-2.69648
2.86309
-0.166611
1.59575
-2.05661
0.0488198
0.903954
1.01039
0.074471
-2.37945
0.753198
-3.45579
1.50191
1.95388
0.911601
-3.3779
2.89061
-0.19372
-2.27087
0.452166
1.15081
4.03059
-1.33528
-2.69532
-1.6681
1.01934
-2.23977
0.588831
-3.69312
3.536
-2.85276
1.51067
1.87542
-2.77698
3.02649
-0.249515
-3.53369
2.37315
1.16054
-1.13178
-0.473499
0.663923
-3.74148
2.63844
1.10304
2.4186
-3.92492
-3.31819
-0.0703597
4.28755
-1.61336
1.23227
0.583199
-1.81547
-0.0897056
-0.576824
0.66653
0.418468
1.88406
2.09414
-3.55
0.773015
0.667735
0.727895
0.905295
1.33285
-2.23814
1.39925
-0.839821
-0.188609
-4.08599
4.2746
-1.32823
1.61989
-3.11121
-2.33656
-1.55998
3.89654
0.927774
-1.17424
-2.57963
0.832789
1.74684
-0.0283614
0.0930667
-0.0647053
3.33415
-3.78845
1.68838
-3.43064
1.75096
1.02698
-2.77794
0.87856
0.0873937
-3.09805
0.880692
2.21736
-3.05054
0.774995
1.8156
-2.84485
1.51611
-1.50403
0.038145
-0.0665063
-0.157819
3.89246
-2.36422
2.90601
-0.541791
3.79765
-0.00875451
-3.78889
-2.80978
-0.0684888
-1.01412
0.184962
3.17609
0.429092
0.12299
-0.83681
-0.781524
1.83523
1.99256
0.38376
0.908651
-3.47387
-0.203558
-3.43121
1.67456
-3.07087
0.64227
0.699408
-1.34168
3.30343
0.175864
-3.4793
-0.384598
0.384224
-1.22671
-2.77897
-2.99711
-0.469808
-1.31002
3.67405
-1.26417
1.7206
-0.45643
-3.34927
1.04526
-1.03018
1.93548
-1.57016
-2.40075
-0.992398
-1.16426
1.33157
-1.74709
0.163504
4.04387
-0.620806
1.12084
-1.20895
0.0881089
0.455498
0.408543
0.947086
3.88341
-3.60467
0.0533484
-0.83761
1.18536
-1.92762
1.93368
-1.6906
-1.89793
0.782978
0.637975
-1.42095
-3.44919
0.0881313
-0.425074
2.88032
-2.45525
-0.383042
-3.10062
-2.66842
3.05469
4.66692
-2.01815
-2.64877
-0.441684
1.17994
3.19955
-1.72027
-1.47927
0.950174
-1.03781
0.325897
-0.227455
-0.664314
0.0454816
0.618832
-0.539136
1.97654
-1.57225
3.99084
-0.121924
-0.532603
-1.03335
-0.290624
1.32397
-0.0439878
3.37814
0.672305
0.639093
-1.3114
-1.37532
2.10424
1.60691
1.634
-1.26596
-0.418044
1.89535
-0.680107
-1.21524
0.0873271
-0.58211
0.494782
0.419033
-2.9979
2.57887
-3.52657
0.529461
0.807556
-1.47125
3.14581
-0.0192657
0.96944
0.446616
-1.71078
-3.867
1.97337
-3.71985
1.2408
-1.67313
0.15881
-1.59261
-2.11119
3.7038
-3.75745
-0.658784
0.421767
0.237017
3.31748
-2.45278
2.74302
-2.3374
0.567406
2.05153
-2.61893
0.780678
-1.48061
-2.71527
-0.915318
3.63059
-0.537539
1.23365
-0.696113
-1.52307
3.17603
-1.65296
3.138
-1.97817
-1.15982
3.2141
0.0876714
-3.30177
-1.97914
-2.91806
-1.20997
-0.0468053
1.41666
2.5056
-0.0648964
0.324841
-0.259945
-2.49152
-0.60653
2.69756
2.30483
-1.99594
2.37226
-0.37632
0.426137
-0.480174
0.199487
1.48544
-1.68493
-0.0831146
0.765244
-0.357503
-3.38398
-3.39643
1.40936
0.0493568
-0.518711
1.20743
0.262825
2.77145
-3.03427
-1.96596
-0.438064
2.42524
0.934443
0.267098
-0.926322
-0.00995788
-1.4182
1.42816
0.381036
-1.35312
0.972086
0.755303
1.72148
0.81734
3.08409
-1.39586
3.41561
-1.79573
-0.397235
-0.910591
1.30783
2.77647
0.335363
0.117755
-2.46768
1.68256
2.82034
-2.86433
-1.87084
-1.55629
3.42713
-2.28046
-1.72821
-3.66644
3.83023
-0.163787
-0.357378
-1.44841
1.05851
2.09816
0.985922
0.285049
-1.09246
0.807412
-1.24226
-2.59437
-0.623309
-2.81815
3.44146
2.1475
-1.03062
-1.22438
0.793679
2.16665
-3.39336
1.74585
-1.3466
-1.43064
3.77966
-2.34902
1.66101
1.88965
1.08706
-2.97671
3.92663
-2.41752
-1.50911
-1.29248
-2.84046
4.22709
-1.38664
1.64996
-0.529122
-1.01212
0.992855
1.59388
3.03292
-0.776782
0.687076
0.315931
0.0435183
3.61875
-1.99023
1.71426
2.73205
-1.48194
0.767602
0.714338
0.86308
-1.74683
2.81951
-0.197754
2.30256
-1.07029
-2.5501
-0.382852
2.93295
0.678026
-0.131808
-0.546217
0.51039
0.335469
0.551216
-3.64038
-1.00237
1.07756
2.59182
-2.29929
-0.292525
0.558476
1.33687
-0.533171
0.291897
0.855628
0.872828
-1.72846
-1.83101
3.29915
0.324308
-1.92005
4.27901
-2.35896
-1.03366
1.5755
-0.477052
-2.30099
4.06838
-1.95564
-1.23839
0.720881
0.254071
1.06693
-1.09642
-0.643284
0.555927
-1.06473
-0.500598
0.001286
2.28267
-0.534884
3.08718
-2.5523
-1.29051
1.4995
-1.47048
0.440657
-1.17162
-0.0383476
-3.39478
2.39903
0.821716
0.870633
0.358589
-1.30441
0.945822
0.991747
0.341086
3.16151
1.66436
-4.82587
-0.332132
-0.0859916
0.418124
-0.557671
-2.60421
3.0978
1.56912
2.92905
-2.66623
-4.32903
0.212255
0.413224
-0.651391
1.71146
2.56027
0.934496
-3.49477
1.30643
-0.0949361
-0.134872
-1.16926
-0.312678
-2.02377
-1.76758
1.97306
0.850005
2.69343
2.13653
-2.15605
0.0195184
0.685066
0.0258483
-0.242574
0.889921
-0.128859
2.85161
0.832021
-3.68363
-2.292
0.810681
-0.804131
0.481845
0.322286
-1.2177
0.0139269
1.20377
1.63701
1.6402
-3.27722
0.834879
1.01102
2.57988
-0.0620765
-0.928232
1.36254
-2.14406
-0.328618
0.472209
-0.143591
-3.59474
2.02067
3.0829
-2.47332
-0.609581
0.0642301
-0.518351
0.454121
3.23294
-3.58552
2.4863
-0.338803
0.91868
1.82434
-0.440945
-0.0596526
1.8659
-0.791932
-1.07397
-2.12556
-0.434883
4.00111
-2.04889
-1.95221
3.63885
-1.41766
-2.2212
1.44527
-2.51565
1.07038
0.1782
1.8764
-0.0466409
-0.577122
2.07542
-1.4983
1.26323
0.60267
-1.18438
-0.771607
0.00731068
3.54064
0.00683315
-3.54747
-1.26668
-0.537617
-0.545511
-1.49103
0.219384
0.771732
2.92881
-0.690644
0.818571
-0.122853
0.0733224
-0.547782
0.49547
-1.46614
2.03354
0.0619895
0.850003
-1.26357
-1.20674
2.83906
-0.150205
2.28674
-0.57833
-0.397029
-0.862289
1.71792
-0.777328
3.0588
-2.28148
-2.97504
-0.386537
-1.5466
2.8839
-1.33731
0.0281847
-0.799792
1.07986
-0.225966
-0.0735524
-0.831001
0.904554
-2.96279
1.00715
0.378024
-0.454787
1.73442
-4.36768
1.19208
-3.39631
-0.795917
2.39881
-1.19307
1.78052
-0.907689
0.0461768
-2.35142
2.77046
-0.00820985
-0.541221
0.526757
-1.97663
-0.337609
-2.16038
2.49799
1.03054
1.11095
4.43998
-2.90164
-1.53834
-0.773603
0.246385
0.805883
0.0789777
-0.884861
-2.92723
0.563013
0.636248
0.109574
-0.0395452
-0.416659
0.456204
1.4544
-3.00099
0.305015
1.61063
0.0939073
-1.70453
-3.39317
2.61584
0.53105
0.134188
-0.665238
1.22734
-3.72643
-0.464438
-0.0266835
0.491122
0.69348
-0.16243
-0.00617346
2.60866
-1.99692
2.1676
1.72788
-0.893005
-3.36612
1.02956
-2.41578
1.93731
0.478467
1.52611
-3.39695
-1.7136
-1.09016
2.80376
0.314825
1.35086
-1.02239
0.837001
3.95907
-0.571775
-3.3873
0.0137515
-3.48762
2.89921
0.314887
1.5314
1.66815
-0.523007
-0.034371
0.507203
-1.01554
-1.13418
0.0338719
-0.393688
0.359816
0.0667571
-3.79145
3.7247
-0.135017
0.962086
-0.827069
1.08371
-3.18122
2.0975
-0.330679
-1.94331
-0.131141
-0.472115
2.37714
-1.14562
-0.691728
1.83735
-1.23484
-1.44668
1.51377
-0.875796
-0.553332
-0.206191
0.759523
-1.01242
1.37101
-3.33858
-0.455563
-0.114338
0.5699
0.363634
1.11621
-1.47984
2.55529
-3.36885
0.813554
0.0273037
-1.92236
0.595948
-4.20419
-1.7689
-2.2505
4.0194
-3.41032
0.1872
3.22312
-4.51191
-2.77144
0.0749645
-0.935291
0.976084
-0.0407928
-3.65408
-1.2987
4.1503
1.2699
-0.67325
0.269607
-1.1319
-0.590346
1.60136
0.515892
0.294228
-1.32757
0.0647165
-0.550811
0.486094
-0.558557
0.210046
-0.363256
0.427486
-0.879689
1.79602
-3.72175
2.38061
1.34114
-1.29208
1.52703
2.10128
0.673865
0.00416002
-0.881098
1.16615
-1.65447
-0.925156
-1.86421
0.682241
1.18197
0.0503516
-0.548734
0.498382
-1.3524
1.73343
-0.27514
2.49872
2.18474
-1.51244
1.93524
-3.17008
1.58232
-2.09516
0.512838
0.345917
0.00787724
-0.469313
0.12717
-3.72441
2.1318
1.95674
1.68211
0.0517309
-0.691398
0.639667
-4.68075
1.89763
-0.654096
0.852059
-0.664131
-0.0658638
-0.73935
0.805214
-1.90018
0.754554
-3.57732
3.21982
3.12375
-1.37279
-0.791635
0.711134
0.0805013
1.3959
-0.402481
-0.503983
-3.85933
1.48667
2.37266
-0.484956
0.398964
-0.322887
1.11687
-0.793981
1.71152
0.774784
0.00844234
1.18228
-1.19072
-0.882763
0.944752
0.243177
0.00100314
2.11958
-3.02409
3.57123
0.242237
-1.04603
-1.47315
3.34675
-0.125582
-3.22117
0.166472
0.650999
-0.817471
1.99649
-3.91761
0.987456
0.803488
-1.79094
-0.0837657
-0.136656
0.220422
-3.10078
3.09747
0.00330526
-1.21901
2.49408
0.677176
2.31952
3.35501
-1.13752
-2.2175
-0.0586795
-0.476956
0.535636
0.308606
-1.05687
-0.0649084
-1.02515
-0.0317205
0.0800733
-1.22166
1.14158
-0.299758
3.34394
-3.04419
-3.1199
1.20459
1.91531
0.939636
3.28778
0.138129
0.0846161
-0.222745
1.92799
0.850435
-2.77842
-0.547178
0.884064
-1.39151
3.56459
-2.17308
-2.95686
0.406764
2.3282
0.997986
-2.71159
-0.00813476
-0.420523
0.428658
3.31178
-0.691203
-2.62058
1.03056
0.742108
-4.15829
2.09779
3.78223
-3.97084
-1.81895
0.434992
1.38396
0.0195357
-0.258657
-0.299597
0.558254
-1.18166
-0.177607
1.35926
-0.0392709
0.415215
-0.375944
-0.648674
0.687866
-0.0391919
-1.93813
4.10478
-0.995353
1.03168
0.437499
-0.760386
1.25623
-1.85678
0.600551
-2.26773
-1.66824
-0.0992142
0.433432
0.120298
0.0946092
-0.214907
3.93104
-1.24362
-2.68742
0.379569
2.21225
-0.806658
-0.453187
-1.93153
0.29382
1.00887
2.08533
-3.0942
-0.0485936
-0.0812924
0.129886
-0.088708
1.17038
-0.668975
-0.243898
0.912873
3.22324
-1.53162
-1.69162
-3.34914
0.476256
1.2217
-2.29769
0.777309
1.52039
2.14969
-2.43968
0.768578
-0.620662
-0.222662
-0.24665
-1.86794
2.51044
-0.642498
0.489926
0.11024
-0.422801
-0.424672
-0.804479
0.682555
0.306068
-0.659851
-1.51742
2.37756
-0.860141
2.48219
-1.40393
-1.07827
2.44066
-1.68536
0.811493
0.196101
-0.783785
0.647802
-0.0865175
-1.33757
-0.671273
-2.55236
-2.04946
1.47234
-0.281136
-0.4896
0.478352
0.215128
-0.0716058
-0.0121599
3.10669
-3.08305
-0.0236428
3.51904
-1.72064
0.662493
1.05815
0.3278
-1.16541
-0.93263
-3.08288
-0.823702
0.691894
-0.566514
-0.914301
1.48082
-2.71038
0.58793
0.994296
1.14077
-2.13506
0.274134
-0.811673
-0.961665
-1.81059
3.24027
-0.692261
-2.20418
0.914668
-1.74569
0.831018
-0.862127
1.12922
-1.80825
-2.8725
0.953794
0.0497846
2.31899
-3.67233
2.41582
1.2565
-0.0453938
-1.05958
0.0535434
-1.15057
1.09703
-2.91698
-1.48148
-0.539265
0.512581
3.14096
1.36974
0.922037
2.93789
-2.90464
-1.41551