/*--------------------------------*- C++ -*----------------------------------*\
| =========                 |                                                 |
| \\      /  F ield         | OpenFOAM: The Open Source CFD Toolbox           |
|  \\    /   O peration     | Version:  2306                                  |
|   \\  /    A nd           | Website:  www.openfoam.com                      |
|    \\/     M anipulation  |                                                 |
\*---------------------------------------------------------------------------*/
FoamFile
{
    version     2.0;
    format      ascii;
    arch        "LSB;label=32;scalar=64";
    class       volVectorField;
    location    "2.5";
    object      U;
}
// * * * * * * * * * * * * * * * * * * * * * * * * * * * * * * * * * * * * * //

dimensions      [0 1 -1 0 0 0 0];

internalField   nonuniform List<vector> 
13486
(
(8.3485 -1.89734 1.92443e-20)
(8.81576 0.202559 1.09536e-20)
(12.4333 -0.195683 0)
(19.7671 -8.12764 -1.12395e-19)
(13.8118 -1.52342 -1.12861e-20)
(11.1927 0.552181 -2.26517e-21)
(15.2934 1.1109 -7.60477e-23)
(11.6987 -3.84692 6.1237e-22)
(10.9584 -2.03851 0)
(9.43456 1.99986 0)
(-4.40721 -8.78414 -2.70445e-20)
(10.8351 0.176012 0)
(7.66997 -2.74918 -1.88556e-20)
(10.8996 2.50113 -3.50846e-21)
(13.5222 0.613927 -6.62541e-21)
(9.28797 2.06858 -1.05218e-20)
(-11.0078 5.88124 3.94183e-20)
(3.99044 9.98624 -2.1777e-20)
(10.1495 0.116471 8.62389e-23)
(9.02847 -1.12063 -1.97912e-20)
(18.8309 -5.61456 -6.62041e-20)
(7.76051 -2.81841 2.42924e-20)
(8.91723 0.16392 -8.77444e-21)
(10.0042 4.58261 0)
(9.81872 1.612 3.61871e-21)
(7.88264 3.56085 4.80329e-21)
(-4.86074 0.115895 1.34978e-20)
(14.3584 0.701977 4.37978e-21)
(6.72076 2.62488 0)
(16.0015 2.59562 -1.09775e-20)
(15.819 2.33306 -7.30553e-20)
(11.89 2.01118 2.94922e-21)
(13.2818 1.26387 -6.61136e-22)
(15.5614 -0.0619281 0)
(11.771 -3.67035 0)
(7.80699 0.0910049 -1.09305e-22)
(8.93498 -1.03978 1.22799e-21)
(9.17288 -4.23379 6.57861e-21)
(10.7766 -3.3489 -4.55809e-22)
(10.815 -1.30007 6.43066e-21)
(16.0537 -3.97146 0)
(7.45829 -3.58799 -2.30427e-20)
(12.4624 0.331467 0)
(9.85619 1.32119 -1.68587e-20)
(9.90816 1.35122 6.87917e-21)
(10.7335 0.187007 4.47922e-21)
(0.511771 4.59714 1.35259e-19)
(6.37148 1.53574 3.73368e-22)
(8.89482 -0.960993 -9.27505e-22)
(12.6126 0.437231 -1.04991e-21)
(9.98469 0.0262343 1.3507e-20)
(11.6959 -1.52917 0)
(9.56521 0.670505 -8.84837e-21)
(9.45509 -3.48736 -1.01787e-20)
(2.57178 11.9836 0)
(13.4416 -1.78498 5.49065e-21)
(9.03788 -1.04265 -2.96654e-22)
(11.8385 -2.22984 -3.2118e-21)
(12.4097 0.96663 -1.71758e-21)
(8.60398 -1.21773 0)
(-3.22281 -8.80232 -2.22404e-20)
(9.04573 -1.33699 0)
(17.382 0.495935 -1.9878e-20)
(19.9456 -5.87029 -7.68364e-22)
(-8.5568 7.89091 0)
(8.89385 -1.14727 6.65926e-22)
(18.2481 -8.73724 -1.02649e-19)
(8.14564 -0.849097 7.13283e-21)
(10.9138 -2.15799 -2.83005e-21)
(8.3549 0.130532 -1.67428e-23)
(20.5129 -9.1498 1.18529e-19)
(2.78335 11.6516 -1.55347e-21)
(10.5339 -0.807676 5.72222e-21)
(-0.64265 5.38862 -1.34808e-20)
(8.99347 -1.22753 1.47518e-22)
(8.39478 -1.05123 4.78972e-23)
(8.8293 -1.13378 -4.34728e-22)
(13.6718 0.61197 2.82216e-21)
(-0.494568 1.246 -7.35018e-20)
(8.78944 -12.9474 0)
(8.11063 0.204672 6.98983e-23)
(8.45359 0.490769 -7.25292e-22)
(18.5487 -0.14741 -1.01478e-21)
(12.4254 -0.413 -1.19375e-21)
(8.34646 -1.91122 -3.74148e-20)
(7.39684 4.70455 0)
(5.53838 -3.78803 2.39639e-21)
(10.0092 0.12301 -2.14213e-20)
(9.61476 0.170182 -9.10325e-21)
(8.56754 2.83713 -1.40125e-20)
(10.4259 2.45118 -4.27992e-22)
(12.5045 -2.98014 2.06311e-21)
(8.66663 -2.3056 4.61274e-21)
(8.97675 -0.554233 5.47937e-22)
(10.6909 -3.14172 1.08699e-21)
(7.18556 1.04963 -3.68425e-23)
(-5.64438 -0.427129 0)
(14.8982 -8.46503 5.18025e-20)
(10.8071 -1.23907 -1.2351e-20)
(-11.3267 5.70628 2.39809e-21)
(8.39188 0.0893609 0)
(10.8616 2.47825 -1.44895e-21)
(13.128 -9.34101 4.64731e-22)
(11.6385 -1.93951 3.69118e-21)
(6.76497 4.2766 0)
(-11.3204 4.49173 1.76909e-21)
(9.99976 -0.122391 -2.01973e-23)
(10.8883 -3.8553 -1.08396e-21)
(0.5612 1.1094 9.25821e-20)
(12.0669 -5.32485 0)
(10.0214 -4.6264 0)
(13.1424 2.85929 1.19063e-20)
(9.52733 -3.40192 2.20808e-22)
(12.0785 0.559741 2.6619e-23)
(6.79133 -1.42931 0)
(9.88823 -4.626 -2.40981e-21)
(9.74727 1.72631 0)
(15.8658 -0.259514 0)
(10.5081 -0.771316 0)
(8.84921 -0.842215 5.34066e-22)
(3.62512 9.37781 6.24129e-21)
(-3.78431 -9.39138 0)
(10.4752 -2.90593 0)
(10.9641 -3.35535 1.74177e-21)
(11.0104 -3.65982 0)
(11.7695 -1.44549 0)
(11.9308 -0.698021 4.83884e-23)
(10.3969 0.251359 8.45928e-21)
(15.3391 -0.512714 -3.88304e-21)
(-6.83937 10.8376 -2.25308e-20)
(11.3484 -1.17559 -3.7642e-22)
(1.81916 3.27517 -3.49979e-20)
(2.00688 5.95681 1.51525e-20)
(0.512467 -2.02615 1.96564e-20)
(10.0074 0.00615395 -2.14775e-21)
(9.34939 0.973888 -1.20639e-20)
(4.9411 1.08016 -7.43914e-21)
(11.8696 -5.02713 0)
(8.79062 -0.815371 -1.67862e-22)
(11.7089 -2.94232 -4.68127e-22)
(12.7934 0.922755 -8.06675e-23)
(9.97408 0.913896 7.64475e-21)
(10.9319 1.29372 0)
(11.5997 -13.3043 0)
(13.4115 0.0990566 3.7022e-22)
(16.8408 -4.04733 -1.81907e-20)
(8.45154 -1.51333 -2.93e-21)
(1.31877 2.87521 0)
(12.6855 0.579733 0)
(7.4345 2.96505 0)
(9.94588 0.000618203 2.65772e-22)
(14.2687 -0.0406169 0)
(8.27046 0.196303 -7.31541e-23)
(8.43968 0.42593 -6.24042e-21)
(10.334 0.924267 0)
(12.8603 -0.234541 0)
(12.0513 -5.1588 0)
(0.0565098 -1.88893 2.9907e-20)
(10.0505 -3.86459 1.06904e-20)
(8.37034 -1.8505 2.75959e-21)
(11.2357 0.201002 -1.84184e-21)
(10.1088 -3.78998 -1.57426e-20)
(10.3279 4.47893 -8.48507e-22)
(6.6226 -3.37377 9.90763e-21)
(12.0682 -1.78901 0)
(11.3105 2.60292 2.63553e-21)
(10.6406 2.18566 1.01382e-20)
(4.03901 -1.85086 -2.87585e-20)
(8.1943 -1.70307 7.48687e-21)
(1.19145 -1.63209 5.60659e-21)
(3.18154 6.22168 4.11731e-21)
(10.257 0.799692 6.54383e-21)
(10.0669 0.150599 -1.93475e-20)
(12.0375 0.200049 -3.33221e-24)
(8.05063 0.375603 4.41918e-23)
(0.140403 -13.4362 0)
(10.5691 3.60496 -6.82505e-21)
(12.8644 0.779213 1.9817e-21)
(9.97338 -0.172958 -1.94773e-20)
(10.8639 1.14209 0)
(11.1742 -1.41632 1.03423e-20)
(12.0724 0.451288 7.46648e-23)
(11.8254 0.625494 3.99355e-23)
(7.77266 -5.46028 0)
(11.4233 -1.08315 3.43801e-21)
(13.4611 0.564478 -2.08873e-21)
(11.1518 3.61277 9.36238e-22)
(15.8501 1.23302 -3.57545e-21)
(16.3525 -4.03587 0)
(9.12646 -4.36769 -4.98366e-21)
(8.79521 -0.8778 0)
(12.9996 -0.0950831 0)
(12.2919 -3.08669 0)
(8.54346 2.47012 -1.45406e-20)
(12.9249 -3.46161 0)
(-5.36435 -9.65661 -5.50658e-21)
(-10.2233 13.3082 4.51486e-20)
(11.3013 0.115082 -8.79078e-22)
(8.43881 -4.10615 -3.54076e-21)
(11.2265 2.39173 2.60688e-21)
(15.0805 3.12545 8.36303e-20)
(10.4358 0.309151 -2.66026e-22)
(9.12312 -4.32243 -7.62343e-21)
(15.0141 -5.86806 -7.85189e-21)
(7.93274 -1.74761 -3.333e-21)
(13.1658 -3.30076 -5.37491e-21)
(6.57027 14.2621 -3.06125e-20)
(10.0863 -0.631267 1.36547e-20)
(12.1632 -3.01067 0)
(11.7938 -0.953334 0)
(14.9302 0.56613 7.9625e-21)
(7.31366 8.15456 -4.16403e-21)
(9.1156 -0.975434 1.8171e-20)
(9.84695 -0.107846 -1.06683e-23)
(11.2282 0.677017 2.61224e-21)
(21.3687 1.17492 4.01189e-20)
(15.5643 2.23931 0)
(8.67401 2.69021 3.24566e-20)
(9.10823 -2.33826 0)
(13.5938 3.09109 0)
(-11.3898 5.61438 -7.24698e-20)
(12.3913 0.658559 0)
(11.6209 -2.97683 7.76501e-22)
(13.0009 0.293929 0)
(8.88117 0.38586 -1.96001e-21)
(7.98031 -3.76459 6.31307e-21)
(11.6028 1.27131 1.93244e-22)
(2.75567 -3.45268 4.91476e-20)
(27.7554 -6.43763 1.05217e-20)
(6.01133 -4.00238 -8.653e-22)
(11.1468 -1.32163 -3.38401e-21)
(18.8784 -0.927204 8.09546e-20)
(12.6875 0.905041 1.44359e-22)
(7.30514 -3.48846 8.00597e-21)
(14.5502 -8.40493 0)
(7.78737 -3.79699 6.97772e-22)
(16.1569 0.483035 9.7571e-21)
(12.9228 -0.0942311 -6.14739e-22)
(8.03647 -3.84383 1.95371e-20)
(11.525 0.381794 0)
(12.2207 0.77441 0)
(9.98286 0.155374 2.98662e-20)
(13.4131 -0.134177 0)
(7.6921 -3.79743 6.01325e-21)
(9.85475 -3.66502 -1.50053e-22)
(9.52845 -0.464524 0)
(11.6161 0.163773 -8.08992e-22)
(12.6611 4.05424 -8.78328e-21)
(1.34187 -1.15033 3.48431e-20)
(9.77857 1.21339 0)
(5.42998 -6.71186 -1.26089e-20)
(6.6598 -1.33334 3.20815e-21)
(9.46555 -4.59053 2.14432e-21)
(11.124 -3.86232 0)
(21.5763 -9.79053 2.36298e-20)
(1.84942 -11.7581 7.75826e-21)
(11.9091 2.03259 -1.68807e-21)
(16.7187 2.1045 -5.06966e-20)
(6.88863 1.90068 -3.13137e-20)
(12.7544 1.32878 -3.00916e-21)
(9.17447 0.104469 0)
(9.85017 -3.54902 -1.40804e-22)
(13.541 0.682265 1.47443e-20)
(0.355837 -12.6719 -9.68799e-21)
(13.5722 -3.61599 1.0989e-20)
(5.92298 -4.7516 0)
(25.2818 -5.11923 -3.89415e-20)
(16.9542 -1.3047 -9.89651e-20)
(10.8028 -0.126244 -7.26692e-21)
(2.41274 3.32066 0)
(8.26333 2.46876 1.17701e-20)
(9.91018 -0.0711978 -5.51212e-21)
(15.119 2.6994 0)
(10.3393 0.116255 4.71807e-21)
(8.36447 -3.98153 8.36291e-21)
(13.7465 5.80722 5.31617e-21)
(19.8566 -8.28221 0)
(-6.69781 13.1972 0)
(11.2217 -4.43388 -1.98403e-21)
(8.43604 -1.51343 5.94508e-21)
(-6.12511 13.5411 6.19267e-20)
(11.434 -0.732987 -3.51965e-21)
(9.95002 -0.145506 1.18379e-20)
(8.98075 -2.02933 6.29625e-21)
(-3.35455 -7.76576 2.34498e-20)
(-10.1584 1.87299 5.99001e-20)
(12.7446 0.90696 1.61508e-21)
(15.0525 -0.417263 5.10598e-21)
(10.3935 0.238613 3.64002e-21)
(10.5354 -0.114469 0)
(15.65 -8.06406 0)
(8.61396 -2.05017 -1.19286e-21)
(9.72319 -4.4994 3.7667e-21)
(9.9728 0.0255118 -2.08959e-21)
(16.0409 0.219078 1.06774e-20)
(16.1019 0.83206 0)
(12.3467 0.0351245 2.27167e-21)
(10.3455 -0.0198747 -4.38584e-21)
(9.87889 -0.235053 -1.06849e-20)
(16.2077 -0.582705 -2.36794e-20)
(9.91529 4.5609 1.27498e-21)
(5.30926 15.4272 2.3453e-21)
(8.56354 -1.5687 -5.06631e-21)
(12.151 1.85335 -2.39792e-21)
(8.9346 -0.770834 -1.99136e-22)
(12.0847 -5.85319 0)
(12.6285 1.46935 0)
(10.4814 0.0971104 1.51135e-21)
(5.73475 -4.72409 -1.15173e-21)
(8.83399 -0.936998 0)
(9.46194 6.7187 -2.29095e-20)
(16.6321 -7.23718 0)
(10.1989 3.44101 4.84515e-21)
(13.0131 2.74231 1.01098e-20)
(3.86883 -9.92197 0)
(9.36454 0.771076 -7.61038e-21)
(9.23164 -1.95273 1.72459e-21)
(9.46226 0.12313 -7.76538e-22)
(10.0093 -0.636464 -1.53978e-20)
(24.0683 -4.70633 0)
(8.81535 -1.08651 -1.19457e-21)
(9.24622 -2.26002 7.96562e-23)
(10.0779 -0.052781 2.47035e-21)
(8.8882 -0.387358 -1.05425e-20)
(5.24606 0.796188 1.35841e-20)
(10.9371 2.42083 1.91072e-21)
(12.6228 -0.975938 6.75837e-21)
(11.4962 -0.677132 0)
(10.4986 -0.784844 -8.98424e-23)
(12.8007 -0.835433 2.91161e-21)
(10.0158 -0.00440502 3.09496e-20)
(12.6557 -2.93988 0)
(9.99509 2.76576 -5.8059e-22)
(7.8268 0.348093 0)
(15.3222 1.48136 4.52004e-20)
(11.0132 -2.84261 -2.16694e-21)
(5.70779 -2.53823 1.04641e-20)
(14.2482 -0.36473 1.333e-20)
(10.0465 0.414668 0)
(9.55902 -3.36245 5.58873e-22)
(24.205 -4.02859 3.76839e-20)
(8.89917 -0.386091 9.9694e-21)
(12.9783 -0.844384 -8.54351e-21)
(11.8836 0.660891 3.9602e-22)
(1.58528 -4.8063 -1.43599e-20)
(6.77911 1.52705 -1.7734e-22)
(11.8505 -0.28578 0)
(6.61588 -2.42798 2.39189e-20)
(13.6196 3.15667 0)
(9.03467 -2.18052 -5.53505e-23)
(11.4737 -0.0729817 5.10276e-21)
(10.3274 -0.388546 -5.55952e-21)
(10.2734 0.163629 4.26183e-21)
(-3.57789 -2.00846 -7.07714e-21)
(9.93686 -0.185211 1.32872e-20)
(8.47448 0.00808384 0)
(-1.45469 4.29848 -8.43395e-21)
(11.9063 -0.638929 -9.19367e-22)
(6.13597 -4.82397 4.13896e-23)
(8.66869 9.48084 -1.45981e-21)
(11.832 0.0816572 0)
(10.2478 2.31437 3.81855e-21)
(9.35824 -0.168919 2.18686e-20)
(9.92765 -0.0427647 1.67774e-20)
(15.5861 2.97656 0)
(8.3746 0.138895 -1.07364e-23)
(16.0339 0.631112 -9.16377e-21)
(4.00637 5.43096 1.5853e-20)
(9.00669 -1.08952 2.53335e-21)
(11.8845 -0.539976 8.76897e-22)
(13.3605 0.301188 -8.6911e-23)
(11.7758 -0.321211 0)
(8.63384 0.0888342 -8.74199e-21)
(4.31884 -6.45027 9.47144e-21)
(10.9622 1.34185 -5.09604e-21)
(9.99549 0.0247951 1.12425e-20)
(8.43912 0.0210266 0)
(9.14787 -2.61663 1.83368e-21)
(7.06178 -9.23737 0)
(13.2122 4.79685 -4.85025e-21)
(10.8398 -0.167494 0)
(12.809 -3.54438 -5.18233e-22)
(7.88619 -1.52944 -5.62009e-21)
(8.52481 2.00623 2.70661e-20)
(3.16923 5.89641 -7.33025e-20)
(21.6957 -6.87834 0)
(10.866 0.189616 -8.38564e-21)
(9.9823 0.448219 -8.4745e-21)
(-7.30713 6.36034 -1.66168e-20)
(19.7846 -0.219615 9.3949e-21)
(9.18953 -1.07719 -2.69658e-20)
(14.6917 2.29394 1.27303e-21)
(10.0302 0.470619 6.74987e-21)
(8.59926 -2.89941 0)
(7.66079 -0.0180959 1.25196e-20)
(8.67966 -0.832999 4.70753e-22)
(18.0312 -8.26771 6.42755e-20)
(4.63696 -6.51553 -3.5894e-20)
(-9.55718 6.90245 -4.06059e-20)
(12.8962 0.897525 0)
(-8.31303 6.53521 0)
(9.38718 3.58075 0)
(11.1941 -0.367923 0)
(16.328 -2.24757 -4.0686e-20)
(14.7532 1.56915 0)
(6.12902 -1.60013 0)
(9.08573 -0.450541 4.02307e-21)
(12.859 0.772441 -2.0362e-21)
(11.6746 -0.381613 -3.39982e-21)
(8.84506 0.351648 3.87544e-20)
(10.0043 0.100583 -4.21653e-21)
(9.6707 5.6457 0)
(13.927 1.82016 0)
(9.85565 -0.219336 1.14267e-20)
(9.94874 0.0348689 1.97795e-21)
(4.19167 1.19974 0)
(8.78769 -5.9625 1.48328e-20)
(13.448 -3.62156 -1.2327e-20)
(3.3195 7.9535 0)
(11.5544 0.418279 2.3654e-21)
(10.1245 -0.106325 -1.31094e-20)
(14.8704 8.13539 1.76776e-20)
(6.59527 -2.38181 0)
(9.89566 0.435362 1.52676e-20)
(11.7825 0.82005 0)
(15.8552 1.0076 0)
(10.5295 0.560509 -1.2416e-21)
(9.9083 -0.122732 6.30262e-21)
(-6.34803 0.773736 -1.7805e-20)
(10.5841 2.10849 3.40873e-21)
(8.00075 -2.41855 -9.19995e-21)
(11.0298 -0.325494 8.90997e-22)
(10.203 0.547315 5.42041e-21)
(9.96528 -0.128737 2.38521e-20)
(14.0534 -3.22053 0)
(12.867 3.54687 -2.87034e-21)
(7.86121 -1.27486 0)
(8.84499 -2.26346 -1.14593e-21)
(12.015 0.0919275 0)
(8.21006 -0.828524 1.52747e-20)
(-5.67796 7.87859 -8.82325e-20)
(14.7577 1.93819 0)
(-2.76635 -0.580142 8.28547e-22)
(13.943 1.94731 -3.1119e-22)
(7.15696 -3.02395 3.62697e-21)
(10.0483 -1.73734 2.04271e-20)
(7.70902 1.7951 -1.68315e-20)
(7.95746 -2.40101 -2.68513e-20)
(13.9622 4.51035 0)
(8.84793 -0.7969 -5.19837e-22)
(1.39045 -4.93605 -3.70705e-20)
(9.89859 0.453221 0)
(9.49399 0.177643 8.5076e-22)
(11.5203 0.279864 2.11258e-22)
(11.3037 3.88953 0)
(9.97959 -0.010707 0)
(13.458 -7.46072 0)
(1.66873 -11.6932 4.08229e-20)
(8.05241 -1.88187 -7.45703e-21)
(13.8363 -3.45829 2.31895e-21)
(10.263 3.25196 0)
(9.54508 -1.47436 1.57865e-20)
(8.03594 0.295075 -9.49157e-23)
(10.5694 1.94638 -8.01819e-21)
(20.8569 -6.29024 1.13554e-19)
(9.68778 0.0732025 0)
(6.38276 1.82119 0)
(5.69461 -1.75624 -1.71972e-20)
(8.46347 -2.87246 -6.11041e-21)
(10.7104 -1.03362 0)
(11.0878 -5.10752 2.42673e-21)
(8.70039 0.08005 1.11192e-22)
(7.53076 1.06017 -6.60065e-24)
(6.11288 -2.68608 0)
(13.4705 -2.05409 6.07556e-21)
(8.80667 -0.78826 -4.5263e-22)
(11.7507 0.793981 -3.03697e-21)
(11.0133 -3.00369 0)
(-9.94049 2.77219 -9.26704e-20)
(10.3393 -0.162415 4.7898e-21)
(10.0104 0.215731 2.99689e-21)
(8.32475 -0.0780812 -2.17988e-22)
(11.5345 2.5628 0)
(8.79848 0.360959 -1.0304e-20)
(13.4484 1.94469 -3.80221e-21)
(-10.4516 7.01704 8.11567e-21)
(9.88586 0.109097 0)
(19.9498 -0.231055 -9.64018e-21)
(4.45665 -1.72368 0)
(10.0157 0.112589 -1.19827e-20)
(9.95031 0.0585671 4.53112e-21)
(9.87204 -0.393982 -2.22284e-21)
(2.28892 -13.2883 0)
(12.2254 -0.272814 -2.16766e-21)
(6.54024 0.364917 3.5091e-20)
(13.9597 -3.40556 0)
(8.99232 -0.522351 1.22884e-20)
(15.9057 -0.873298 2.72713e-20)
(10.6833 0.0160191 0)
(16.6336 -2.19511 4.9946e-20)
(9.49497 -12.6802 -5.37886e-20)
(13.429 0.28377 0)
(-11.1401 3.22159 7.68415e-20)
(9.37273 0.128875 0)
(10.3355 -4.59857 2.43787e-21)
(5.30297 -8.38783 2.18435e-20)
(10.8654 4.09045 -9.90793e-22)
(11.2618 0.558046 4.17703e-21)
(7.66478 -0.0825719 6.50374e-21)
(9.97387 -1.85051 -7.35379e-21)
(19.1303 -5.66116 -1.33974e-20)
(10.3518 -4.45924 2.20623e-22)
(11.8329 -0.605931 1.17217e-21)
(11.5074 2.54058 -4.53123e-21)
(12.9564 -5.46114 0)
(10.0076 0.00924713 -9.97161e-21)
(3.30883 9.03853 -8.64874e-21)
(7.99641 -1.30671 0)
(8.56223 -1.03383 1.44078e-22)
(8.45161 0.0969951 0)
(7.45732 -2.46497 2.39053e-20)
(12.5321 -4.08762 0)
(8.30673 0.055068 1.70331e-22)
(11.6856 -0.0921732 -2.97491e-21)
(12.3494 -1.23557 1.01338e-19)
(17.3407 -9.33573 4.57117e-20)
(11.7711 0.147235 -3.83248e-23)
(12.2432 -5.70821 -9.16597e-21)
(10.4195 -2.94027 5.50289e-21)
(8.66175 -2.29816 0)
(3.68642 -3.48804 -3.37359e-21)
(14.2842 -3.03342 2.31659e-21)
(3.46262 -3.44338 -4.91867e-21)
(7.00528 1.19095 -3.22986e-23)
(8.51493 -3.37957 0)
(10.8288 0.015781 -9.23852e-23)
(7.83424 -5.58209 0)
(12.4904 -8.32868 1.11797e-21)
(14.3289 8.94577 -2.40212e-20)
(11.0104 2.80812 0)
(12.014 -2.52377 -2.46915e-23)
(-8.85558 8.98117 0)
(11.3872 3.72486 0)
(10.1068 -4.70342 -3.26245e-21)
(8.00529 0.155166 1.02218e-20)
(-2.24406 -7.79377 0)
(9.36504 -0.0887663 -6.14821e-21)
(15.3841 -4.06272 2.58278e-20)
(3.19128 -6.19508 3.72959e-20)
(11.4398 5.05605 0)
(10.4503 -0.0237224 0)
(0.520484 -4.74161 -1.55896e-20)
(10.1814 -0.927802 0)
(11.8971 -0.469246 0)
(-2.65693 -9.31327 -4.48779e-23)
(11.6888 -1.7408 -3.28787e-21)
(10.09 -2.47824 5.43653e-21)
(12.0605 1.32672 -5.1535e-22)
(4.54205 -3.53159 9.53692e-21)
(9.98729 0.0383686 5.1367e-21)
(8.87794 -2.39139 0)
(10.217 1.38285 -3.1786e-21)
(8.29857 -1.79869 0)
(11.4123 -0.238068 0)
(9.93361 0.274302 0)
(10.4344 0.522463 -1.01696e-21)
(10.0456 -0.683021 7.09495e-21)
(13.5867 -0.0499969 -3.42767e-22)
(9.10356 -2.42427 0)
(-3.5858 -0.561717 -7.08245e-21)
(9.22688 3.34415 7.56678e-21)
(11.0085 -3.6939 1.97695e-22)
(15.2157 -0.957585 -9.28521e-21)
(13.744 4.78197 6.66017e-22)
(10.1911 0.0315558 -7.41929e-21)
(-4.31372 8.45524 0)
(10.4699 -0.0354976 0)
(6.37409 1.76112 0)
(7.57906 -3.45059 -1.64629e-20)
(-5.20364 14.2796 -9.36885e-20)
(14.3665 1.35903 0)
(10.2842 1.36953 0)
(9.60071 0.968853 7.25551e-21)
(10.2507 -0.0581266 -1.44847e-21)
(9.2785 1.62236 1.41472e-20)
(15.6274 -5.98129 0)
(-5.15564 -6.18356 -5.13969e-21)
(10.9946 0.199801 4.79162e-21)
(8.289 -2.72914 -1.48618e-20)
(10.4961 0.241213 -6.69584e-21)
(10.5156 1.92951 1.04231e-20)
(-0.88734 1.32277 -4.88357e-21)
(7.47701 -3.41053 2.85937e-20)
(2.17359 12.4601 8.74815e-20)
(12.7769 0.0133838 8.20968e-23)
(9.99758 -0.0111774 -2.36725e-21)
(10.5276 -5.02478 1.57991e-21)
(13.2328 -12.2684 2.49133e-20)
(7.29022 6.08169 -9.07669e-21)
(10.7743 -4.96941 -4.85921e-22)
(10.4628 -0.906571 0)
(5.91113 -2.88924 -9.30434e-22)
(10.5442 -0.01189 -1.37557e-20)
(12.5467 2.97895 9.96099e-22)
(8.13333 -2.56044 -1.39502e-20)
(10.8832 -3.56283 -3.26224e-21)
(10.8177 0.0193348 9.87301e-21)
(13.6718 -0.132657 -5.67375e-21)
(7.35638 -0.124664 -7.43409e-21)
(12.8725 0.927653 -6.71487e-22)
(7.15377 -1.74501 -3.43382e-20)
(10.6891 -0.0191286 -1.20276e-20)
(7.10601 -1.97779 0)
(6.54467 -3.86966 -2.04765e-19)
(11.2396 -0.0115943 1.66154e-20)
(7.42153 0.0566546 -6.39324e-23)
(-0.90272 6.07242 0)
(11.7078 -5.1221 0)
(9.80918 1.12562 1.26163e-20)
(6.63657 -1.72875 2.17712e-20)
(-9.463 2.24758 -2.11639e-20)
(12.8318 -3.54284 3.80903e-21)
(12.729 -0.930106 -3.94919e-21)
(13.8683 2.87244 0)
(9.78523 1.22303 7.23904e-21)
(5.13646 12.24 -1.1548e-21)
(10.8789 3.53288 -5.65158e-21)
(11.0573 -1.36285 -6.76539e-21)
(4.63088 -4.37778 -1.61779e-20)
(15.2655 5.87011 3.03049e-23)
(12.4671 3.6395 -4.79292e-21)
(9.87503 3.90614 0)
(18.3361 -1.19716 -1.36859e-20)
(9.81337 -0.371273 1.96595e-21)
(8.15713 0.256635 6.12177e-23)
(6.57549 -3.27559 2.81274e-20)
(10.912 -1.39704 1.0293e-20)
(8.18661 -1.66035 -1.29378e-21)
(3.44196 -6.06842 -2.21826e-20)
(14.5348 0.646615 -3.63055e-21)
(10.6183 0.0779268 1.07888e-20)
(-4.33432 -7.57202 -3.02906e-21)
(10.5723 3.36417 1.30938e-20)
(-10.8789 4.87447 -8.3492e-20)
(8.15193 -3.91972 -7.54202e-21)
(8.2756 0.29995 0)
(9.70089 -0.771817 7.94702e-24)
(-0.20714 -7.33271 -1.03591e-20)
(7.84437 -1.62984 2.98717e-20)
(13.3733 2.19776 0)
(9.51181 4.3196 5.42957e-22)
(7.24881 -3.04439 6.78301e-21)
(9.99381 0.0394814 -2.20266e-20)
(7.14427 -5.94597 -1.85033e-20)
(-1.49974 -6.11746 -2.05621e-20)
(11.7426 -0.362965 2.25988e-21)
(10.664 0.235154 1.26582e-20)
(10.4966 -4.66065 -2.07978e-21)
(13.7538 -0.124899 4.23146e-22)
(-7.53747 9.80316 -1.8935e-19)
(10.5097 -0.0206973 1.2908e-20)
(10.9676 -0.308008 -3.95117e-21)
(10.3389 0.324809 -1.26088e-22)
(12.5 0.0371403 -7.41383e-21)
(7.10683 -3.11784 -1.31293e-20)
(12.4148 -0.100618 0)
(3.87741 -12.7636 6.26199e-20)
(10.6356 0.0396798 1.43401e-21)
(14.6299 6.79127 2.11146e-20)
(11.7586 0.172006 4.12495e-21)
(12.4888 -1.28392 1.09187e-21)
(9.96677 0.0888698 -1.89748e-20)
(10.1489 0.864527 4.10853e-21)
(9.54999 -5.97527 -1.52457e-20)
(12.0652 -0.473719 0)
(9.39229 -2.7459 -8.76357e-22)
(10.1743 -0.584591 5.69818e-21)
(8.55664 -3.31483 0)
(10.3061 0.242907 8.8018e-21)
(10.2681 -0.940546 7.41284e-21)
(12.1123 -0.411156 5.74321e-25)
(16.6706 -4.6758 2.13792e-20)
(13.6086 -3.11438 0)
(9.22514 0.70576 1.97668e-20)
(8.08174 -1.44829 1.2352e-21)
(10.4076 -4.77987 1.62834e-21)
(10.9623 -0.895112 0)
(7.98112 0.111798 -2.93497e-20)
(3.61265 6.37336 2.66792e-21)
(10.4621 5.16775 3.84867e-21)
(7.19662 -1.79244 3.34869e-20)
(13.4498 0.426836 4.45956e-22)
(16.4208 -9.08947 3.15611e-20)
(10.4508 -0.769494 -9.83261e-21)
(12.6662 2.56567 5.14377e-21)
(9.3786 -0.136692 -1.2654e-20)
(12.5025 0.129088 0)
(9.98248 -0.0140012 -8.88191e-21)
(1.62491 -0.100426 1.84049e-19)
(-1.21755 0.827007 0)
(9.31091 7.75944 0)
(8.15849 0.28549 0)
(-10.9653 6.81119 0)
(9.98126 0.782096 0)
(6.9339 -1.71307 0)
(24.0478 3.29346 8.81276e-21)
(12.3941 -3.27555 -4.09063e-21)
(11.6695 1.35577 0)
(8.86739 0.453731 2.9403e-20)
(1.85086 2.62726 -3.47155e-21)
(10.1242 0.542434 1.62588e-22)
(-0.99542 -6.89941 -4.48598e-21)
(6.84472 -0.927029 8.69431e-23)
(9.61582 -6.48952 1.51588e-20)
(9.91194 0.0778036 -2.4247e-21)
(12.415 0.430439 -8.64337e-23)
(9.91209 0.727304 -8.44949e-21)
(9.50702 0.0521174 -1.78638e-20)
(9.09467 2.9271 -1.39546e-20)
(13.7511 4.66951 0)
(20.2371 -4.88534 2.48276e-20)
(7.55031 -2.54688 -2.61473e-20)
(10.0822 0.0222562 -2.64284e-20)
(14.3494 -2.78399 2.51076e-20)
(12.1342 -0.0669494 1.40445e-21)
(17.2327 -1.52829 -3.4581e-20)
(11.8385 -1.06417 -2.93072e-22)
(12.0765 -2.5018 3.56605e-22)
(9.99995 0.409342 8.78394e-21)
(11.0482 7.94218 0)
(17.177 -5.22784 -9.87074e-21)
(9.20348 -0.54307 -3.80632e-21)
(14.5519 2.07096 0)
(11.6194 -3.96017 0)
(11.1365 -4.85923 -2.15306e-22)
(13.0813 -7.89742 3.7062e-20)
(21.2399 4.86787 -1.47103e-19)
(10.6324 -1.02079 0)
(10.216 -0.65381 -1.40229e-20)
(9.274 0.13582 -3.44118e-21)
(6.66491 -11.7962 4.2624e-20)
(11.1483 -0.97291 3.51261e-21)
(10.953 -6.85796 0)
(19.1892 -4.59576 2.87655e-20)
(11.149 -0.992049 0)
(20.7995 -1.83581 1.78592e-20)
(9.93163 2.4191 -2.33661e-21)
(10.1377 0.00396588 -6.26528e-24)
(10.6791 2.22737 -1.79588e-20)
(11.4087 4.43386 -1.03227e-21)
(10.1122 -2.88499 1.23411e-20)
(13.4159 8.655 0)
(-9.01606 12.9243 -6.70539e-20)
(-7.2016 7.06908 0)
(11.8618 1.37123 6.84946e-22)
(9.31077 -12.3395 9.57508e-20)
(9.26823 7.97962 -9.54633e-21)
(9.66941 -2.91684 6.6205e-22)
(-0.904818 -10.5928 -3.53527e-20)
(9.68561 -4.50452 -1.88071e-21)
(7.73568 -2.56908 -1.48328e-20)
(8.68868 -0.819043 -1.75046e-22)
(-7.39298 12.4084 5.43617e-20)
(7.13135 -3.17668 1.08e-20)
(8.00909 -2.70457 1.56489e-20)
(-6.18692 12.4973 1.2883e-19)
(-7.00175 11.3819 -1.8849e-20)
(10.7861 -3.14933 3.97842e-21)
(0.762458 7.54031 6.67001e-20)
(13.5317 0.0105129 4.23094e-22)
(0.240443 4.46874 3.99489e-21)
(10.7649 1.40154 -4.62814e-21)
(13.5351 -1.8474 0)
(-10.4261 5.88146 -8.43207e-20)
(10.3278 -0.0241455 -1.49416e-20)
(9.91771 0.239847 0)
(11.7946 1.29276 0)
(-7.44515 16.7137 -7.33013e-20)
(11.2011 1.5381 7.68293e-21)
(11.1667 0.794133 -1.01489e-20)
(11.6905 -1.70266 4.25925e-21)
(9.15095 2.89486 1.20223e-20)
(9.42075 -0.00920826 6.08073e-21)
(6.42789 -12.7146 1.83009e-22)
(8.82508 1.54405 0)
(8.19562 -2.8392 1.45088e-20)
(-2.40605 -7.60523 1.67066e-20)
(1.17192 -11.0942 2.8625e-20)
(10.0312 -3.70395 1.68584e-21)
(12.7161 -5.78399 9.24977e-21)
(10.3125 -0.0170184 3.25991e-21)
(10.5907 -3.23144 2.6155e-22)
(16.171 2.51356 1.16545e-20)
(7.33193 -14.5015 -4.53384e-20)
(11.0929 0.753309 7.69061e-21)
(9.98865 -0.22448 6.55868e-21)
(7.05471 -1.95752 -1.37433e-20)
(10.2249 -0.833321 8.45173e-21)
(5.42101 0.449969 0)
(11.0806 1.29531 8.96137e-21)
(9.96384 -0.131178 1.46531e-21)
(8.60881 -2.16023 -4.76828e-21)
(8.16123 5.35451 -7.34666e-21)
(10.6122 -3.13111 3.62623e-21)
(10.1612 -0.0507609 2.61005e-21)
(7.80144 -0.577053 -2.12401e-20)
(14.8107 1.43826 0)
(9.67018 -2.64585 1.12585e-21)
(10.5069 0.279607 9.05038e-21)
(15.8024 -1.66872 0)
(8.0031 -0.911783 1.17839e-20)
(11.3624 -1.00404 0)
(7.36994 5.26647 3.04885e-20)
(13.068 -0.0573158 0)
(18.8905 -5.91397 0)
(11.0495 0.0489829 2.08613e-21)
(11.0963 0.57029 6.12977e-21)
(12.8418 1.27495 -3.00636e-21)
(9.78379 0.0704664 -8.18483e-21)
(7.57014 2.88586 -8.65434e-21)
(10.1453 0.157473 -3.72881e-21)
(10.0673 0.824808 0)
(11.7538 -3.27506 -9.75921e-21)
(11.4124 0.581013 -4.57526e-21)
(19.8316 -2.68718 -3.89644e-20)
(13.6424 -1.94052 0)
(12.713 2.87547 2.10498e-21)
(9.13801 5.41992 -1.17154e-21)
(13.7978 0.130021 1.62863e-21)
(-1.71048 -4.98108 0)
(-2.16719 -9.10861 1.57682e-20)
(10.0985 0.424555 0)
(15.9635 1.94269 -5.67443e-21)
(1.88531 -0.347541 0)
(16.9295 -1.28113 0)
(-1.96941 14.0288 0)
(12.2155 -4.09072 0)
(-6.15863 -8.53724 -4.82674e-21)
(-1.36739 -12.4958 -1.00425e-20)
(10.0795 -0.672165 -1.06392e-20)
(12.4516 -2.09092 -1.15894e-19)
(7.5613 -3.30521 0)
(0.99324 -0.262564 -8.87253e-20)
(0.225215 1.45095 -3.45596e-20)
(9.35385 -4.31768 0)
(8.58481 -3.14173 -1.44038e-20)
(9.0437 -1.25527 1.80685e-22)
(10.6887 1.30835 1.21111e-20)
(15.8275 -4.15109 -1.86227e-20)
(9.52922 -0.0148072 0)
(13.4007 -3.28462 0)
(14.4911 1.22159 5.04054e-21)
(14.4643 -11.4828 3.41554e-21)
(9.01702 -0.806389 3.99974e-22)
(-6.09827 15.1517 -7.18699e-22)
(9.98277 0.0162663 6.59557e-22)
(9.16053 -0.693344 2.43502e-22)
(9.96654 0.403329 1.25033e-20)
(9.1844 -2.26254 -8.13641e-22)
(10.9834 -2.76882 0)
(-6.8284 -0.388135 0)
(13.5444 -0.0864962 0)
(7.9557 0.0341638 0)
(9.87126 -2.06741 5.55045e-21)
(12.7571 0.904101 0)
(-4.43417 -10.0174 4.29696e-20)
(0.0901093 5.21376 1.13206e-21)
(7.87201 -2.75008 -2.37767e-20)
(1.98454 4.35555 4.67213e-22)
(2.25421 -12.9683 -3.13259e-20)
(-2.76743 -11.3739 -2.98413e-20)
(11.1592 0.0613983 2.06104e-21)
(4.51602 -11.2957 -2.83741e-20)
(9.03549 -2.09401 -1.37148e-21)
(11.1525 0.0015977 0)
(13.2537 -0.0765189 0)
(1.98531 -1.27094 0)
(12.4786 -1.42564 -8.60852e-22)
(-7.33041 8.93178 0)
(8.91003 1.50285 0)
(10.0202 0.016981 0)
(10.1483 -2.47125 5.13079e-21)
(10.2824 0.479911 -1.35019e-20)
(8.58426 0.134553 0)
(26.2656 4.54089 -8.13746e-20)
(9.83911 0.395095 -1.08394e-20)
(10.8342 3.3358 1.15487e-20)
(9.3503 -4.23544 6.38806e-21)
(9.18207 1.85767 1.71374e-22)
(7.10936 -10.2629 -6.67366e-21)
(11.0535 -4.46566 1.94993e-21)
(25.1206 -8.09317 -4.80235e-20)
(11.0117 0.615094 -8.2707e-21)
(8.96714 -0.77784 8.56629e-22)
(9.58522 -0.29816 -1.16332e-20)
(10.4292 -0.0134178 0)
(14.0708 6.8411 -1.56254e-20)
(9.87596 -0.0820928 1.22607e-20)
(4.07595 11.3539 1.24525e-20)
(11.8025 -1.06776 -1.1067e-21)
(6.73922 -1.80334 -2.36835e-20)
(11.0575 0.499912 1.39536e-21)
(13.6739 2.20072 5.50038e-21)
(10.0051 0.152511 0)
(6.07052 -2.28361 -2.93927e-21)
(10.6467 -1.54284 -2.62519e-22)
(23.9183 -7.56084 9.24574e-20)
(18.4603 -5.94172 -1.29598e-19)
(10.3468 -0.102256 5.54475e-21)
(13.3631 -0.275354 -6.69287e-23)
(13.4422 0.346909 -3.36371e-22)
(13.6576 -0.0478697 0)
(5.23776 4.32489 0)
(8.86908 -4.18183 9.21915e-21)
(8.66858 -6.31646 1.99846e-20)
(8.28637 0.17072 1.26392e-23)
(9.96246 -0.102181 2.4228e-20)
(6.1936 -2.08937 8.9264e-21)
(7.96634 -0.0454459 0)
(9.46219 -0.329786 0)
(9.25368 -2.28371 -2.85111e-22)
(10.9718 0.000255604 3.16114e-21)
(9.3044 1.71914 2.01354e-20)
(11.0661 1.06408 0)
(12.1727 -0.114188 0)
(12.3614 -2.76895 -4.97295e-21)
(10.7933 -0.872442 6.43417e-21)
(-0.829986 2.43479 -2.47761e-20)
(14.9022 -0.677683 0)
(16.3279 -0.229042 1.50811e-20)
(22.5924 9.7482 -1.07234e-20)
(-0.369389 -7.1922 -1.3082e-20)
(10.4958 -0.336455 -1.09939e-20)
(13.1421 -1.64355 0)
(10.6295 1.29557 -6.32669e-21)
(-1.92713 -3.32027 -1.94751e-21)
(1.27122 2.15026 0)
(8.23835 -0.0880811 6.44698e-22)
(9.80932 -0.12942 -8.24751e-21)
(8.61727 0.0624355 6.88799e-25)
(10.7424 2.80645 2.66024e-22)
(9.17325 9.41219 7.47594e-21)
(10.7502 0.0441556 0)
(6.67629 -2.52652 -2.59973e-22)
(5.89467 -1.76348 -8.27793e-21)
(3.79999 -8.92626 -6.74169e-21)
(10.0052 0.717455 1.00057e-20)
(12.1784 10.3292 7.1685e-20)
(10.1617 -0.0260706 -2.54843e-20)
(8.6112 -1.96705 7.48661e-22)
(10.1189 -3.89128 1.65167e-22)
(9.99084 -2.31841 0)
(11.2165 -0.559317 -6.02463e-21)
(7.05163 -3.26758 8.67236e-21)
(11.5433 -0.0923059 -6.18898e-21)
(9.95558 -0.120358 -1.08817e-20)
(16.0586 1.81295 6.07345e-21)
(9.34959 -1.41081 2.39328e-20)
(13.1651 -0.00294475 -5.02442e-22)
(9.43441 -0.240345 6.94178e-21)
(8.52776 -1.05654 5.71605e-22)
(11.9146 1.17919 5.02326e-21)
(10.6054 3.64868 9.41873e-21)
(-8.06793 1.33169 1.6812e-20)
(10.5551 0.0289297 0)
(3.40506 -3.24303 0)
(16.6608 1.07789 0)
(7.84604 -2.60244 1.8582e-20)
(9.99033 0.0290334 -1.72188e-20)
(9.27054 0.122124 0)
(8.8082 -2.21811 -1.35685e-20)
(9.16389 0.00283306 0)
(9.87391 -1.83059 -9.16006e-21)
(23.9365 -2.2859 -5.8734e-20)
(10.8063 -2.58643 -4.63634e-21)
(10.8606 0.0583253 0)
(9.99829 -0.250156 0)
(15.0061 -1.38998 9.37699e-21)
(11.6376 1.16657 -1.92253e-22)
(12.8255 0.522349 -2.96046e-23)
(9.40317 5.76673 -8.95839e-22)
(11.0157 1.85415 0)
(10.1207 -3.61125 -2.64624e-21)
(-2.45289 -1.26791 0)
(5.51081 2.0231 -1.45252e-20)
(11.5721 4.45084 0)
(12.8927 -0.222026 2.69167e-22)
(7.15924 -1.65514 8.95092e-21)
(8.65047 -1.44335 8.25264e-21)
(14.164 -0.595438 -7.53865e-21)
(-2.23132 4.75629 9.88894e-21)
(10.744 -1.07266 1.61475e-20)
(9.93596 0.790366 -1.75345e-22)
(17.6319 -1.28489 4.24063e-20)
(11.2505 -2.08523 -1.81683e-21)
(-3.65069 -2.71666 1.41554e-20)
(11.6934 1.82504 0)
(10.0581 -0.020483 -6.97971e-24)
(8.94089 -2.48446 0)
(10.2734 -3.51151 -5.38081e-22)
(10.2702 -3.58864 -1.23023e-21)
(9.4208 -1.29422 -7.76977e-21)
(8.32636 0.10935 1.19203e-23)
(12.225 0.317837 2.45691e-21)
(9.24467 -0.927274 1.73089e-20)
(11.4811 0.355443 -2.29747e-21)
(8.88824 -0.845601 0)
(-3.2169 -5.33584 0)
(12.3666 -0.493042 1.57699e-21)
(12.8591 1.14297 0)
(9.74932 0.157065 -4.50232e-21)