/*--------------------------------*- C++ -*----------------------------------*\
| =========                 |                                                 |
| \\      /  F ield         | OpenFOAM: The Open Source CFD Toolbox           |
|  \\    /   O peration     | Version:  2306                                  |
|   \\  /    A nd           | Website:  www.openfoam.com                      |
|    \\/     M anipulation  |                                                 |
\*---------------------------------------------------------------------------*/
FoamFile
{
    version     2.0;
    format      ascii;
    arch        "LSB;label=32;scalar=64";
    class       surfaceScalarField;
    location    "7.3";
    object      phi;
}
// * * * * * * * * * * * * * * * * * * * * * * * * * * * * * * * * * * * * * //

dimensions      [0 3 -1 0 0 0 0];

oriented        oriented;

internalField   nonuniform List<scalar> 
20045
(
0.543616
-0.64083
0.0972138
-1.15003
0.491963
0.658063
0.218733
1.85156
-2.07029
0.0320039
0.0502469
-0.0822508
-0.936467
0.908673
0.0277937
-0.487185
2.02998
-1.54279
-1.14942
0.496971
0.652451
0.076487
0.477369
-0.553856
0.504434
0.484344
-0.988778
-0.670686
-0.225637
0.896322
-0.431485
0.22506
0.206425
2.16671
-1.19422
-0.972488
0.435309
-0.423879
-0.0114304
-1.20785
0.930531
0.277324
-0.345899
1.18428
-0.838376
-1.03322
0.362533
-0.0399279
-0.0402164
0.0801443
2.11533
-1.05829
-1.05705
-1.66802
2.36714
-0.699122
-0.764169
-0.0452488
0.809418
0.115485
-0.276633
0.161148
0.15982
0.275489
-0.247047
-0.902979
0.727615
0.806873
-1.53449
0.879559
0.0772446
-0.956804
-0.884071
1.61169
0.0513632
-0.063987
0.0126238
-1.03534
2.11183
-1.07649
1.67319
-0.0702594
-1.60293
-1.99631
1.32864
0.667663
-1.01947
0.0497216
0.969746
1.62544
-1.25702
-0.368427
-0.638112
1.33471
-0.696594
2.54054
-1.58214
-0.958401
-0.615913
0.6924
1.80259
-0.872707
-0.929884
1.1691
0.690042
-1.85914
-0.0730463
0.438146
-0.365099
-4.41875
3.45868
0.960067
0.696582
0.529929
-1.22651
0.0644616
0.44543
-0.509892
0.181656
-0.257935
0.0762797
2.59115
-2.56982
-0.0213278
1.41508
-0.435182
-0.979898
0.585391
0.82969
1.13128
1.03543
0.242387
-0.435689
0.193302
0.859151
0.695417
-1.55457
1.98814
-0.819036
0.142686
1.65991
-1.8026
1.30587
-2.20151
0.895638
3.66717
-1.94006
-1.72711
-0.737181
-1.17513
1.91231
-0.0926726
-0.349569
0.442241
1.33909
0.0865751
-1.42566
-0.769567
-0.1669
0.512029
1.00494
-1.51697
2.43976
1.37344
-3.81321
0.862629
-1.50074
1.88739
-1.70498
-0.182404
-0.43487
0.212128
0.222743
0.311472
1.57592
0.675372
-1.46764
0.792273
0.369457
-0.253973
1.76413
-0.873301
-0.890826
1.22545
0.760198
-1.98565
0.0901272
-0.0948411
0.00471389
-0.692383
0.068906
0.623477
0.933678
-0.429243
1.28266
-1.34355
0.0608941
0.119849
-0.0297218
-0.791247
2.13033
-0.324118
-1.07443
1.39855
0.112069
-0.0847445
-0.0273242
1.42052
0.174736
-1.59526
1.28596
-0.773932
-0.525466
1.94599
0.511192
-0.857092
0.0525678
0.296262
-0.34883
2.77903
-1.38226
-1.39677
0.896018
1.03673
-1.93275
0.888665
-0.796401
-0.0922634
1.19632
-0.520945
-2.18695
0.279548
1.90741
-0.025511
0.569127
-0.377317
0.550999
-0.173683
0.745229
-0.147131
-0.598098
-1.60181
0.0638523
1.53796
0.980729
0.261004
-1.24173
-0.873534
0.690156
0.183378
-1.84888
0.0706886
1.77819
0.800736
-0.138333
-0.662403
0.437814
-0.674111
0.236298
-0.267664
-0.788669
1.05633
0.663128
-0.69646
0.0333324
1.12116
0.478458
-1.59962
0.0556384
-0.0042752
-0.156316
0.188489
-0.0321721
1.34015
-0.643569
-0.0474228
-0.0399153
0.0873382
1.22537
0.577224
-0.521491
-0.686364
-0.010139
-0.146177
-1.53726
3.97703
0.118423
-0.49574
0.0450498
-0.0924727
0.405864
1.23918
-1.64504
1.09865
-4.14572
3.04707
0.294955
-0.503169
0.435964
0.0672051
-0.266728
0.337672
-0.0709443
1.46048
-1.10415
-0.356329
-0.555472
0.4628
1.56359
-2.08634
0.522752
-0.266835
0.393552
-0.126717
0.0564092
-0.32748
0.271071
1.08268
-0.203118
2.06248
0.478056
-1.27722
0.953104
1.2306
-2.16442
0.933821
0.517865
1.59747
-0.247248
-0.187622
-0.863069
0.711859
0.15121
-3.3201
0.105741
-0.649964
0.544223
1.85071
1.81646
1.21598
-1.56477
0.348794
1.58121
0.153822
-1.73504
-2.51183
2.11392
0.397907
0.79464
-1.44562
0.650982
3.6399
-1.78919
-0.337811
-0.0978784
0.597904
-0.432871
-0.165033
-0.0526773
0.0253121
0.0273652
1.14165
0.801744
-1.94339
1.25391
-1.09497
-0.158939
-0.298711
0.074838
0.223873
-0.357253
-0.145916
2.36849
-1.13789
-0.717578
0.769329
-0.0517508
1.07945
-1.8849
0.805446
0.772634
-1.50982
0.957845
0.747023
-1.70487
1.34178
1.43725
2.25923
-0.29673
-1.9625
0.576388
-1.26191
0.685519
1.39042
-1.09296
-0.297458
-0.292331
0.354566
-0.0622353
0.00113527
1.84059
-1.84172
1.66758
0.00561345
-1.64966
0.0519326
1.59773
-1.0686
0.926433
0.142168
1.72503
-0.829008
0.22173
0.666935
-1.27616
1.47956
-0.203408
-1.57792
1.79665
0.0270627
-0.40191
0.374848
0.431609
-0.458676
0.0270678
-0.0340403
-0.420225
0.454265
0.888274
0.466592
-1.35487
2.46614
-1.19057
-1.27557
-0.49426
0.46022
1.47134
-2.04856
0.577221
0.217529
-0.0358735
-3.47733
-0.959576
1.22826
-0.268681
-1.22237
0.987945
0.234422
-0.0175075
-0.119842
0.13735
0.473907
0.916509
-0.0390133
-0.013664
0.251687
0.346218
-1.3392
0.0630467
-1.47701
1.86184
-0.384838
-1.4757
1.63969
-0.163985
-1.07583
-0.687594
1.76343
-0.381886
0.262291
0.119595
0.73911
-0.899021
0.15991
1.48896
0.165472
-1.65443
-0.0218779
-1.48873
1.5106
-0.991116
1.94896
0.450773
-1.20233
0.751561
-0.666482
2.23007
-1.77402
1.25584
0.518183
0.229854
-0.223758
-0.00609601
0.835006
-1.99032
1.15531
-1.69658
0.661233
-1.81999
-0.295326
1.97378
-1.39176
-0.582017
-0.587181
0.651642
0.327244
-0.347176
0.019932
-1.27811
-0.745384
2.02349
-1.75568
2.55987
-0.804191
4.1261
-3.55214
-0.573967
-0.0128535
-0.392326
0.40518
-1.41655
-2.24938
3.66592
-0.109701
-0.321784
-0.854456
1.6491
-1.27583
-0.424322
1.70015
0.234593
0.0625874
-0.29718
0.113353
-1.07293
-0.117213
-0.902254
1.66167
-0.080457
-0.349004
0.275958
-0.348253
0.419943
-0.0716907
-0.747388
1.63566
-3.67726
2.26071
1.28145
0.138016
-1.41946
-1.48999
0.350069
1.13992
0.656955
3.46915
2.13526
-1.30025
1.46792
-2.26829
0.800375
0.327871
-1.60702
1.27914
0.151418
-0.915587
-1.01317
1.41904
1.2593
-1.74648
-0.721192
-0.25754
0.978732
-2.21714
1.07625
1.14089
-0.172787
-0.700747
0.378137
0.354662
-0.732799
1.17451
-0.273968
-0.900539
-0.0798432
-1.26396
1.2651
-0.563453
-0.154125
1.19031
1.63658
-1.76232
0.125741
-0.0269225
-0.30667
0.333593
1.27453
0.129471
-1.404
1.04854
-0.781171
-0.267372
1.53863
0.203203
-1.74183
0.876598
-0.131369
1.24892
-0.798151
-0.144776
0.403042
-0.258267
1.57163
-0.492174
0.246511
-0.0185173
-0.227994
0.40178
-0.396585
-0.00519564
-0.2753
0.284612
-0.00931225
2.06844
-1.53862
-0.529818
0.568383
-2.32406
-0.302615
0.0273156
-1.81294
0.491891
1.32105
1.99751
-0.662806
0.482583
-1.95959
3.2204
-1.61875
-1.60165
-0.033716
0.268309
2.82475
-3.47167
0.646927
-1.21658
0.19275
1.02383
-1.98537
1.93042
0.0549459
0.600895
-1.51221
0.911312
0.0381945
0.0212908
-0.0594853
-0.977796
1.19143
-0.213635
-0.0915414
0.307073
-0.215531
-0.36419
0.0973548
-0.316649
0.0499205
-1.53114
-2.61458
2.7453
-1.4141
-1.33121
0.112671
0.0680409
-0.180712
1.08125
0.544189
-0.211855
-0.509337
0.0601425
0.371466
1.11531
0.882204
-1.07553
0.139909
0.935625
2.908
-0.0832515
0.872577
0.311699
-0.0487158
0.161387
-0.623971
-0.0442734
0.668245
0.026526
0.203327
-0.554011
2.09264
-0.848171
0.603996
0.244175
-1.88466
1.80996
0.0747024
0.636852
1.3756
-2.01246
-0.283511
-0.32239
0.605901
1.50707
-1.67299
0.165922
-1.22032
-0.996821
2.30199
-1.72511
-0.576877
-0.237868
0.210946
1.62338
-1.02248
0.83593
1.90938
-1.566
0.560667
1.00533
4.14234
-1.63459
-2.50775
1.44822
-0.134168
-1.31406
-0.821538
-0.744462
1.79019
-1.04126
-0.748925
-0.388153
1.61236
-1.22421
0.644487
-1.4835
0.83901
-0.0737764
0.35422
-0.280444
-0.134185
-0.0154889
0.149674
2.10305
-1.69066
-0.412384
-1.26787
-1.24396
1.55481
0.0817725
-1.71392
-0.170736
0.236452
0.165328
1.45097
-1.82814
0.377164
0.00881413
0.31843
-1.07448
2.21613
0.505072
1.56337
2.19667
-1.55046
-0.646212
-1.58405
1.15973
1.52635
-2.14872
0.622369
-1.23496
-0.145826
1.38079
-0.509993
-0.392275
0.902268
1.93576
-0.464422
0.0958264
1.18562
0.355266
-0.18867
-1.06835
-1.30144
2.20876
-0.907321
-0.40512
0.0568673
-0.119876
-0.0249003
0.184884
-2.17025
0.458988
0.417611
0.710027
-0.518571
0.71348
-0.194909
0.0365777
-0.00457374
-0.95927
0.610141
0.34913
0.883712
0.576768
0.569717
0.264101
-0.833818
0.934799
0.319114
-0.265101
1.71607
1.17497
-0.194244
-0.498276
-0.991716
2.09873
-0.742306
-1.35642
1.91549
-2.22146
1.87225
0.349209
1.57162
-1.74154
0.169912
-0.966182
0.698517
-0.298868
0.000157065
-0.524852
-1.32403
0.632888
-1.19525
0.562367
0.907687
0.8825
1.31045
-1.8546
0.544146
0.508874
-1.18388
0.675003
-1.94626
0.344448
0.0216927
0.779043
-1.62308
1.99452
-0.371439
-0.430364
0.661451
-0.231087
-0.908868
-0.240554
-0.296044
-0.48687
0.782914
0.244503
0.000387689
-0.244891
-0.731918
-0.336683
0.691686
0.920423
-1.61211
2.25181
0.656189
1.54472
-0.901132
-0.0650499
1.02785
-0.518976
-1.48351
-0.290514
0.291196
-0.303831
0.012635
1.54412
-0.684971
-1.00512
1.62276
-0.617649
-0.285306
0.342763
-0.0574574
1.31764
-0.143134
-1.81019
-0.0179465
-1.10618
1.98336
-0.877176
1.27143
-1.91798
0.646551
0.778563
1.52342
-0.0501626
0.0454434
0.0047192
0.238464
-1.47342
1.18965
-1.80274
0.613086
0.0494264
0.0626423
-0.16899
1.38497
0.944764
-0.485776
-1.07333
1.40121
0.311632
-1.97965
-1.93151
1.43217
0.499342
1.36441
-0.308449
-1.05596
1.88596
-0.378887
-0.920052
-0.913346
-0.797435
0.658046
0.46146
-0.469979
0.00851913
0.655772
-0.701021
-1.55552
1.38653
2.01249
0.57866
-1.70184
0.696725
1.61929
-0.064483
-0.218749
0.307533
-0.0887843
-0.0815071
-1.09511
1.17662
-1.80235
0.333816
1.46854
1.59955
-1.59955
-2.22569
2.05992
0.165775
0.916749
-0.347032
1.14849
-0.752984
-0.395506
-1.9444
2.02352
-0.0791223
0.742585
-0.100995
-0.64159
0.592453
-0.186303
-0.406151
0.301229
-0.584739
0.123649
2.71365
-1.87772
-1.58286
1.8955
-0.312633
-0.602933
1.29462
-0.0910597
0.00572469
0.085335
-0.745429
0.635368
0.110061
-0.763885
0.915303
2.01424
-1.52899
-0.485254
-0.233725
-0.992618
1.22634
-0.542764
0.567084
-0.0243204
0.359939
-0.595405
0.235466
-2.1602
1.10275
1.05745
-0.00646179
0.0567086
-0.302977
0.0842279
-0.0525299
0.0650867
-0.0125569
0.932332
1.17071
-0.0484046
-0.0426551
-0.221642
-0.438136
0.659778
-1.04873
1.6897
-0.640968
-0.0386101
0.216516
-0.177906
0.977253
-0.480282
0.654343
0.670051
-1.32439
0.123288
-0.911957
0.130528
1.35843
0.935548
0.637722
-1.57327
1.01647
-0.791033
-0.225438
-2.02787
0.378203
-0.735254
0.380987
0.354267
0.679718
1.09896
-1.77867
-1.30084
1.15501
0.122742
-1.8142
1.69146
-0.327493
0.314639
0.245215
-0.255794
0.0105789
0.046625
-0.670596
-0.463381
0.365592
0.0977883
-1.46531
-0.347627
1.2173
0.622584
0.293653
-0.916237
-0.320528
0.0352219
0.273231
-1.37703
1.1038
0.333513
1.02453
-1.35804
0.423322
-1.40714
1.64562
-0.238474
-1.46738
1.07923
-0.0390952
-0.0248919
-0.795885
-0.426482
-0.587525
0.12714
0.460385
-1.83066
0.781933
1.27828
-1.51201
0.199302
1.41999
-0.652472
0.662606
-0.0101339
0.539144
-1.58951
1.05036
0.402932
-0.610496
0.207564
0.0396132
-1.8498
-1.38801
-0.0876938
-0.724466
0.0320837
0.225871
-0.176468
-0.0494031
0.793919
0.0552926
-0.0871936
0.031901
1.66061
-0.980893
-0.185127
0.601359
-0.416232
0.53347
0.446161
-0.979631
-0.707086
0.379593
-0.52434
-0.0631846
0.582968
0.565523
-0.852672
-1.31175
0.267164
0.0240318
1.19365
0.915744
0.259229
-1.61099
1.75367
0.0589485
-0.737693
0.678745
-0.17702
-1.65059
1.82761
-0.287491
0.306918
-0.0194269
-0.0737062
-0.308179
-0.820763
1.46525
1.34063
-0.764247
-0.706098
-0.253172
-0.046107
-0.856663
0.90277
0.674455
-1.75029
-0.0994852
-0.953561
1.05305
-0.150457
-0.0355369
0.185993
-1.27173
0.0291603
1.24257
1.64985
-0.954431
-0.000772986
0.220608
-0.219835
-0.481772
-0.0609925
0.428407
0.738879
-1.16729
0.261986
-0.326117
0.0641304
1.06052
0.603795
-1.66432
-0.758846
1.88001
0.231039
0.0134646
-0.902146
-1.95139
2.85354
1.04537
1.32312
1.64141
-1.30789
-0.779527
0.483483
-0.140711
0.00652608
-0.510999
2.03735
0.247593
-1.51853
1.27093
1.70284
-0.273958
-1.42888
-0.724878
1.27459
-0.549708
0.769423
-0.56981
-0.8893
1.45911
0.0307402
0.0299867
-0.0607269
-0.5619
-0.975347
1.53725
-0.205641
-0.539789
0.133511
-0.151018
1.01557
-1.57747
-1.40371
-0.428454
1.83217
-0.0497502
-1.03162
1.08137
0.213575
2.08767
-2.18391
0.096235
0.456605
-0.21165
-0.244955
0.017297
-0.669769
0.498503
0.55783
-0.695317
0.185325
-1.61321
2.01891
-0.405702
-0.579102
-0.26907
3.13966
-1.79788
-1.97326
-0.596556
0.0607693
-0.10379
0.0430207
1.07252
-0.156779
-0.447412
0.493316
-0.0459045
0.213402
-0.304943
-2.30936
0.489367
1.73867
0.291307
-0.178488
0.538427
-0.478054
1.01152
2.12508
0.588575
-0.463194
0.0157823
-0.219416
-1.3361
0.503379
0.493458
-0.466395
-1.83793
0.0355817
-0.211694
0.473677
-0.0707448
-1.9654
0.994213
0.971191
1.11286
0.169795
0.453275
-0.167342
-0.285933
0.600104
-0.564738
-0.035366
-1.36221
0.489506
-2.21107
1.10489
-0.229166
0.870765
-0.6416
-0.0528616
0.277862
-0.225
2.06199
-0.0525472
-2.00944
0.369994
0.0216226
-0.391617
-0.285689
-0.57738
0.516185
-0.0783713
0.0656781
-0.0516748
-0.0140033
0.842691
-0.128759
-0.713932
0.0479592
0.017719
1.44398
-0.965526
-0.0562975
-0.328661
0.384958
-2.0354
0.422194
0.0214579
-0.225529
0.21539
-0.622494
1.24508
0.16118
-0.101037
0.542083
0.336509
-0.878592
0.870106
0.894022
0.709106
-0.650158
0.462319
-0.40591
0.233403
-0.663768
1.25426
-1.77924
0.524988
1.14247
-0.173058
-0.969415
-0.869805
-0.392101
-0.269578
-0.0164555
0.286033
0.617739
-0.790607
0.172868
2.18919
-0.0633532
-2.12584
-0.332277
0.11534
0.216937
-0.998516
1.39704
-0.398521
1.05496
1.03399
-2.08896
0.487484
-0.275356
-0.569779
0.942294
-0.372515
0.496771
0.185329
-0.6821
-1.73627
0.966187
0.770085
-0.0352105
-0.0164644
-1.69099
0.287278
0.684185
-0.391727
-0.292457
0.836011
-1.16781
0.331795
-0.237612
-0.403218
0.23448
1.85319
1.65193
-0.298609
-1.35332
-1.60278
0.195633
0.64394
-1.14222
1.69443
-2.81869
1.12426
-0.245977
0.624114
0.00547584
-0.75813
0.536488
-0.353795
0.459536
-0.131222
-2.16844
2.29966
0.785844
0.837533
-1.47616
1.56424
-0.0880783
0.155589
0.070282
-1.37015
-0.405857
-0.267967
0.30188
-0.0339132
1.96975
-0.96608
-1.00367
0.207115
0.0932485
-0.300364
-0.252237
1.08825
-1.10812
-0.739134
1.84725
-1.61503
-0.507425
2.12245
0.880482
-0.766421
-0.114061
-0.439846
0.0475218
0.392325
-0.175139
0.154264
0.0208752
-1.86633
0.0597124
1.80662
0.0391966
0.436339
-0.475536
1.54841
-1.71497
0.166563
-0.89537
1.29792
0.340888
-1.63881
0.0303209
-0.298288
0.417681
-0.577149
0.159468
1.60155
-2.26803
-1.89508
1.64825
0.246837
0.309724
-0.0477378
1.17065
1.969
-0.178075
-0.321212
0.499287
-0.0213779
0.327071
-0.305693
-0.487777
1.51794
-1.03017
0.363568
-0.945365
0.581796
2.0364
-1.93991
-0.0964848
1.42897
-0.661747
-0.767226
0.0762659
-0.504079
0.427813
-0.634682
-0.0152818
-2.09086
1.83249
0.258371
0.103724
-2.19459
0.312458
1.16577
-1.47823
-1.02131
-0.669351
0.459281
-0.36687
-0.0924108
-1.58118
-0.454223
-0.42766
0.304691
0.12297
0.628395
0.420148
-1.90538
1.82395
0.0814265
-0.301689
0.015488
-0.100233
0.398164
-0.0281694
-1.13249
0.154699
0.357624
-0.386603
0.0289797
-1.56268
0.758561
0.804121
0.777534
-0.0349494
-0.550989
1.04831
0.269329
0.756248
0.558374
1.13984
-1.69822
-0.284506
1.02362
-1.34063
0.835543
0.505091
-0.102917
0.0677062
1.57471
-0.788863
1.33571
-0.796566
-0.313698
-0.405648
0.719346
-0.210359
-1.42245
1.63281
1.16722
-1.21697
1.6991
-0.735875
-0.963224
-0.0114242
-1.10228
-0.238353
-0.625105
1.56884
-0.943732
0.0379557
-0.445835
1.91375
-2.09696
0.515782
0.211097
-0.284873
-0.28888
0.105819
0.293609
-0.00899748
-0.836557
-0.886992
1.75157
-0.465604
-0.327989
0.107992
0.219997
0.0931439
0.499309
-1.75971
-0.786705
2.54642
1.39766
0.538097
-0.014337
-0.322614
0.336951
1.63969
-0.276891
0.0282313
0.24866
-0.605826
1.86008
-0.766293
-1.92715
0.344282
-0.466864
0.0233789
0.443485
1.55072
1.66969
1.82338
-1.27576
-0.547623
1.93962
0.0967734
1.2463
-1.77872
0.532417
-1.63358
0.0151522
1.61843
-1.68622
2.17263
-0.48641
0.320866
-0.0164669
-0.304399
-0.753341
2.35489
-0.563729
0.34339
0.220339
0.0718169
-1.54797
0.979788
-0.0453992
-0.934389
-1.81232
2.31602
-0.503699
-0.526582
1.17517
-0.648588
2.32201
-1.02168
-1.30033
0.0867638
-1.2174
1.13064
-0.215532
-0.0402627
-0.819619
1.87458
-0.100898
-2.12479
1.80996
-0.538529
-0.401438
0.345141
-1.68156
0.047978
1.93173
-0.621279
0.0614288
-2.24838
0.503027
-0.0575971
1.29713
2.27212
-3.56925
1.11224
-0.332934
-0.779305
0.616923
-1.55484
0.937915
-0.327342
0.0217145
0.305627
-0.454739
-0.991851
1.44659
0.752941
-0.519538
-2.04878
1.90713
0.141648
0.306416
0.427992
-0.734409
0.159345
0.299936
-2.21512
2.60318
-0.388061
-0.263026
-0.0244644
0.894702
0.476475
-1.37118
0.825751
0.840986
-1.66674
0.403105
0.961302
-0.0615743
2.32081
-0.00717132
1.57185
-1.56468
-0.0294769
-0.00913318
0.0561537
0.012283
-0.0684367
1.64302
-1.48925
-0.153773
0.765388
0.933711
-0.0139608
0.0562532
-0.0422924
-0.486188
1.55939
-1.0732
-0.0104372
0.392689
-0.382252
-0.239888
-0.532821
0.77271
-0.703831
-0.680611
1.38444
1.47109
-0.196559
0.513855
0.598384
0.656183
-1.95034
1.29416
0.623807
-1.61642
0.337734
-0.329309
-0.0084246
0.405606
-0.0886757
-0.31693
0.0390272
-0.254559
-0.109576
1.31977
-1.21019
-0.237232
1.89714
1.48316
-1.26547
-0.217688
1.31414
-1.05314
-1.0001
0.413026
0.587076
-0.012639
-0.740345
-0.2006
0.401123
-0.200523
0.152332
0.300943
0.289564
1.46
-1.74957
0.447135
0.395556
0.251839
-1.86687
-0.949976
0.392088
0.557888
-0.683395
-0.523659
1.20705
1.03028
-0.488196
-1.68183
1.07889
0.682679
-0.571008
-0.111671
-3.01399
2.38958
0.62441
-0.85278
0.976068
-0.969688
1.25378
-0.284095
-2.12022
4.31419
-2.19398
-0.0470008
0.446248
-0.399248
-0.276394
0.223532
-0.497428
-1.52073
3.11354
-1.59281
-1.0862
1.43627
0.98556
-1.09296
0.107402
0.552672
-0.465014
-0.0876581
-1.97664
1.31685
0.659785
0.0219931
0.230228
-0.252221
0.168857
1.0357
-1.52347
1.12427
-1.33463
-0.473778
-1.45773
-1.39779
1.39062
0.903416
0.084529
0.58612
0.326488
-0.912608
-0.704577
0.666333
0.0382446
0.913511
-1.33113
0.417619
-1.26963
-0.117184
1.38681
-1.42711
-0.0745373
1.50164
-1.42606
-0.338756
1.76481
0.365383
0.187288
1.36996
0.27306
-2.60175
0.371605
2.23014
-0.0269324
0.000344942
0.0265875
0.0103305
0.422615
-0.52185
0.0992348
-1.11483
-1.61094
0.341319
0.306529
0.437708
-0.361442
1.28944
0.680316
-0.608944
-0.836679
0.075148
0.58798
0.135173
-0.259581
0.124408
-1.41771
-1.11726
2.53497
1.88155
-1.22537
-1.01387
-0.0904421
1.10432
0.282266
0.382762
-0.665028
0.0167794
2.22604
-1.43667
-0.789373
0.370757
1.28117
0.0450369
-0.645142
-0.649105
1.29425
-0.734117
1.5062
-0.772083
-1.10569
-0.388303
1.494
-0.969187
0.399408
-0.669398
-0.330704
1.97742
-0.965558
-1.01186
0.348311
-0.538914
0.190603
0.644184
0.207922
-0.852106
-0.38028
0.419476
-0.0181818
0.101103
-0.0829212
0.0411085
-0.0456414
-0.448619
-0.0199032
1.08766
0.889758
0.0980897
3.36059
-0.417652
1.7463
0.0296213
0.31869
-1.58682
0.481131
1.46875
-1.23029
-0.268315
-1.32004
0.321525
1.45759
-1.14514
1.27576
-1.35727
1.64328
-0.0716587
-0.396574
-0.277537
-0.385429
-0.220401
0.605831
-0.638302
-0.0581586
1.51018
0.275415
-1.78559
-0.0491311
-0.49951
0.548641
0.00756514
2.35381
-2.60533
0.251522
1.64315
-0.0947387
-2.76069
2.6082
0.15249
0.420452
-0.351546
-1.7246
-0.25204
-0.563504
1.88203
-0.0495393
-0.888908
2.15247
-0.890643
-1.26182
-1.12514
-0.140212
1.26535
0.221362
0.924368
-1.14573
-1.40412
0.132395
-0.399393
-0.142682
0.542075
-0.941572
1.18916
0.356079
0.944462
-1.30054
-0.82589
0.14148
0.68441
-1.70553
0.144199
1.56133
-0.708755
1.83302
-0.487301
0.906559
0.522414
-0.425576
-0.309678
1.87028
-2.16701
0.307373
-0.969094
0.661721
0.236441
0.251043
1.35263
0.0425979
-1.39523
1.3875
-1.80516
-0.0087636
0.0469581
-0.669847
1.21214
-0.542289
-0.218094
0.635775
-0.0300793
0.575241
-0.545162
-0.210582
0.320759
-0.110177
0.378921
-0.452627
-0.563104
1.20704
0.494604
-0.72377
-0.33307
0.363391
0.362329
-1.1435
0.0830838
-0.061793
-0.4084
0.392503
0.0158972
0.443929
-0.487286
0.0433568
-1.25699
1.43172
0.152792
-1.16667
-0.0211018
-0.566079
-0.0528656
1.14359
-1.09072
0.673157
-0.71743
0.483698
-1.33629
0.852588
-3.04204
1.29614
1.7459
0.865746
-2.16719
-1.46668
-0.049137
-1.84595
0.447366
1.3042
-1.43725
-0.24458
-0.287182
-1.93427
-0.871263
0.384394
-0.0542971
-0.0128601
0.0671572
2.91759
-1.36687
1.52581
-0.336155
-0.462828
-0.353484
0.816312
-1.90814
0.798362
1.10977
-0.231999
0.457059
-0.234254
1.53218
0.348133
-0.188313
-1.31349
-0.0744395
-0.489289
0.500574
-0.135598
-0.364976
-0.240307
1.75048
0.0863112
0.234706
-0.321017
1.91186
-2.44046
1.17208
1.26838
0.481621
0.440931
-0.922552
0.392374
-1.729
1.33663
-1.10251
0.575924
-1.72776
-0.0975963
0.74178
1.76742
-1.94444
0.857251
-0.36048
-0.721131
1.34494
-1.41417
1.02078
0.393392
0.0248058
-0.892205
0.867399
-1.34471
1.47263
-0.127921
0.677972
-0.962478
0.0297458
0.330035
0.550448
-1.69996
0.317697
2.6112
-1.94528
-0.593594
2.53888
0.476317
-1.60145
1.35609
-0.0143003
-1.20228
0.249283
1.27344
2.04335
-0.707297
-1.33605
-1.84953
0.555351
-1.23875
0.347186
-1.79858
1.65837
-1.24771
0.6779
0.920272
-0.636879
0.882898
-0.246018
-3.09771
1.26559
1.83212
-1.74208
-0.252008
0.101552
-1.9556
1.387
0.568602
1.64779
-2.40113
-2.18599
-0.0291305
2.82247
-1.12804
2.30339
-0.832276
-1.47111
-0.0470156
-0.307962
0.354978
-0.254898
0.81168
1.03018
-1.13556
0.498684
0.262086
0.490855
0.362764
0.752846
-1.11561
0.804234
-0.449572
-0.121497
-1.96046
2.08195
-0.703184
0.661417
-1.65253
-1.18022
-0.864812
2.04503
0.519283
-0.657615
-1.40624
0.468398
0.937845
-0.00988649
0.0773674
-0.0674809
2.21774
-2.34896
0.513511
-1.18336
0.787915
0.401292
-1.18921
-0.237387
-0.0906016
-1.64015
0.487602
1.15255
-1.39068
0.686845
0.76681
-1.50093
1.11418
-0.806806
0.0305017
-0.0403882
-0.0483328
1.75117
-1.14815
1.49426
-0.346116
1.51602
0.00771134
-1.52373
-1.55239
0.00896898
-0.52754
0.101694
1.49785
0.279982
0.0627816
-0.48122
0.65023
0.26652
0.996967
-0.369106
1.28262
-1.78412
-0.121254
-1.37249
-0.848918
-2.62276
0.385163
0.368087
-0.75325
2.67885
-0.281793
-2.39706
-0.239265
0.222798
-0.710772
-1.5003
-1.49098
-0.250555
-0.483032
1.87054
-0.639195
0.949867
-0.310672
-2.04327
0.625565
-0.61649
0.979254
-1.03537
-0.930033
-0.620964
-0.485388
0.645299
-1.09552
-0.467159
2.16665
-0.284619
-0.0166045
-1.28902
1.30563
0.224449
0.178594
0.549755
1.95709
-1.83435
-0.0899741
-0.442899
0.679196
-0.915845
1.05575
-0.940882
-1.45106
0.427911
0.372876
-0.800787
-1.64491
0.0453634
-0.277887
1.50295
-1.22506
-0.629973
-2.13072
-1.27645
1.40592
2.24973
-1.00181
-1.24791
-0.156524
0.537511
1.79038
-0.793775
-0.996601
0.539242
-0.584884
0.0839559
-0.0278022
-0.296962
-0.034322
0.331284
-0.29791
0.88403
-0.878387
2.52618
-0.0122297
-0.354641
-0.53064
-0.22065
0.75129
0.0301137
2.18762
0.0495907
0.771059
-0.82065
-0.74203
1.17044
0.727668
0.831718
-0.714013
-0.235963
1.056
-0.370548
-0.685456
-0.0516977
0.0228389
0.0288588
0.127195
-1.34725
1.22005
-1.76869
0.27771
0.438208
-3.5503
2.70138
-0.0063952
0.545638
0.316404
-0.955599
-1.62118
0.823747
-1.79277
0.602207
-0.931933
0.168048
-0.740101
-1.22734
1.96744
-2.05713
0.209423
0.00676261
-0.216186
1.62995
-1.35041
1.259
-1.03764
0.222906
1.04294
-1.26584
0.259152
-0.658545
-0.757558
-1.1721
1.92966
0.416948
0.815824
-1.23277
-0.826782
1.52343
-0.69665
1.77968
-1.29519
-0.484492
0.900492
0.0941361
-0.994628
-0.932562
-1.5079
-0.609781
-0.114685
1.92004
1.71985
-0.0171222
0.213689
-0.196567
-1.29093
-0.349224
1.2051
1.16204
-1.02367
1.2921
-0.268427
-0.26179
0.290021
0.232492
0.710043
-0.942535
0.289918
-0.203607
-0.199128
-1.75647
-3.45221
0.739382
-0.0567029
-1.05479
0.937581
0.159171
1.36909
-1.52826
-0.993237
-0.139257
-0.244841
2.49665
0.142598
-0.499851
0.439561
-0.630193
0.190632
0.188989
-0.749005
0.560016
2.2481
-0.872496
1.77273
1.67208
-0.764394
1.75972
-1.0983
-0.257269
-0.489389
0.746658
1.4033
0.209067
-0.0204381
-1.36115
0.906406
1.8441
-1.81399
-0.798379
-0.891026
1.6894
-1.04981
-0.858328
-1.83963
1.8348
0.00483178
0.857304
-0.630675
0.410273
1.13071
0.541373
-0.691712
-0.333614
1.02533
-0.536446
-0.807107
-1.02809
-0.782798
1.81089
2.043
-0.645336
0.262755
0.0749789
1.16625
-1.87702
0.784596
-0.707351
-0.935976
1.43923
-0.503259
0.747925
0.952581
0.678395
-1.63098
1.84215
-1.11254
-0.729606
-0.763756
-1.41787
1.85526
-0.43739
1.07596
-1.09257
-0.57042
0.564024
0.802999
1.51901
-0.433413
0.386397
0.0781287
-0.0228361
1.80276
-1.00102
1.19565
1.72194
-0.830488
0.46725
0.363238
0.458757
-0.772454
1.3905
-0.0378728
1.65404
0.649348
-1.24642
-0.108894
1.35532
0.383206
-0.0373315
-0.345874
0.343308
0.113297
0.252259
-1.93847
-0.555976
0.602601
1.26941
-1.16676
-0.102643
0.303365
0.752639
-0.319106
0.151764
0.485414
0.481958
-0.967372
-0.752628
1.61526
-0.221317
-0.774458
1.99275
-1.21829
-0.409282
0.715698
-0.155481
-0.670409
2.05879
-1.04409
-0.669832
1.50696
-1.11459
0.590097
-0.611198
-0.33949
0.29249
-0.584359
-0.29845
-0.0220776
0.660024
-0.328447
1.54706
-1.21861
-0.11183
0.0593002
-0.541646
0.220434
-0.680284
0.0705025
-2.79667
1.89452
0.457169
0.485125
-1.34026
-0.183702
1.52396
0.353019
0.197981
1.4834
0.993116
-2.47652
-0.238489
-0.0224479
0.260937
0.191859
-0.376986
1.49886
0.750874
1.47017
-1.311
-1.92886
-0.0651129
0.0322582
-1.53091
0.834024
0.321272
0.741618
-1.06289
0.731343
-0.0581868
-0.0436942
-0.603201
-0.227287
-2.38013
-0.826252
0.813613
0.645252
-0.0438925
1.06297
-0.996985
-0.0659832
0.376389
0.0161137
-0.13444
0.501573
-0.057644
1.46509
0.345027
-1.81012
0.0941829
0.406391
-0.460726
0.288202
0.172524
-0.681683
0.0105141
0.671169
0.657255
0.747196
-1.40445
0.464132
0.566148
1.26128
-0.0230587
-0.532414
0.999827
-0.349597
-0.188102
0.204436
-0.0163342
-1.70112
1.4058
1.56713
-1.23602
-0.331105
0.0300434
-0.29225
0.262207
1.61301
-1.72259
1.84596
0.197043
0.463096
0.795907
-0.290207
-0.00824281
-0.0372749
-0.12526
0.162535
-0.952565
-0.257782
1.99767
-1.0215
-0.976163
1.65085
-1.28957
-0.361279
0.802121
-1.39203
0.589906
-0.101303
1.03608
-0.00823363
-0.346162
0.677208
-0.331046
-0.189348
0.152073
-2.84659
0.0415219
0.193184
1.46789
0.0218235
-1.48971
-0.508016
0.0590677
0.0761051
0.0520157
0.00423745
0.450697
0.761439
-0.310406
0.517521
0.0166822
0.00409577
-0.147714
0.266137
-0.769567
0.992472
0.029135
0.464323
-0.0304185
-0.525069
1.60632
0.0130452
1.04992
-0.235035
-0.255611
-0.473645
0.959059
-0.326176
1.44279
-1.11662
-1.47998
-0.211009
-0.375066
1.08321
-0.708142
-0.221954
0.263476
0.603025
-0.125655
-0.0411117
-0.459211
0.500322
-1.55746
0.513365
0.278856
-0.279629
0.891216
-2.65093
1.00831
-2.9597
-0.663871
1.47074
-0.673465
0.991449
-0.509491
0.0264524
-1.13087
1.25807
0.00352578
-0.310196
0.138999
-0.90542
-0.239095
-1.07789
1.31699
0.291664
-1.87139
2.75609
-1.77757
-0.97852
-0.443352
0.154556
0.432787
0.0439686
-0.476755
-1.47438
0.326239
0.40421
0.00139635
-0.00939512
-0.266971
0.276367
0.866047
-1.24111
0.159707
0.810699
0.13986
-0.950559
-1.60336
1.27718
0.288919
0.0770348
-0.365954
1.74618
-3.26691
-0.295189
0.00306104
0.292127
0.372749
-0.08383
0.0291644
1.35958
-0.956477
1.08375
0.964283
-0.500151
-1.70336
0.523141
-1.19833
1.03886
0.159474
0.866088
-1.66447
-0.935316
-0.599211
1.53453
0.157207
0.769226
-0.574487
0.473492
1.89014
-0.23092
-1.65922
-0.00961486
-1.77451
0.871214
0.0292775
1.05267
0.737707
-0.323103
0.000488789
0.299078
-0.551919
-0.643335
0.0478824
-0.0958069
0.0479245
0.0424997
-1.11375
1.07125
-0.0819051
0.539129
-0.457224
0.404396
-2.8819
2.4775
-0.0824633
-1.01251
-0.0454326
-0.0393112
1.19087
-0.632942
-0.392741
1.02568
-0.749866
-0.715445
0.854023
-0.481147
0.219222
0.0598527
-0.279075
-1.83032
0.49006
-1.78565
-0.197179
-0.151174
0.348354
0.261867
0.60027
-0.862138
0.0467482
-0.706487
0.659738
0.155778
-1.05876
0.2696
-2.08192
-1.09804
-0.751386
1.84942
-1.69269
0.0733302
1.61936
-2.14461
-1.42889
0.0841829
-0.51991
0.53723
-0.0173201
-1.87479
-0.631023
2.09611
0.713022
-0.376513
0.154846
-0.62849
-0.328814
0.894962
0.300279
0.225988
-0.756628
0.0330622
-0.263048
0.229986
-0.298086
0.00575476
-0.184652
0.214696
-0.523724
1.00535
-3.37259
1.52235
1.85024
-1.48643
1.58225
0.944227
0.415064
-0.0318586
-1.12475
0.433039
-0.879722
-0.526521
-1.03604
0.386613
0.649424
-0.00927671
0.291873
-0.282596
-0.77153
0.960519
-0.21126
1.35118
1.48557
-1.43598
0.957502
-1.70737
0.813343
-0.959561
0.146218
0.243262
-0.0226541
0.0445752
0.000868246
-1.95893
1.21883
1.32352
0.327321
0.0296211
-0.380363
0.350742
-2.47977
0.901855
-0.389384
-0.00720069
-0.369518
-0.0249299
-0.428057
0.452987
-1.06596
0.433018
-1.87914
1.68001
1.22144
-0.433522
-0.391066
0.351219
0.0398471
0.0430312
-0.146821
-0.304584
-1.87053
0.972131
0.8984
-0.293343
0.270895
-0.177554
0.598421
-0.420867
1.84836
-0.00240214
0.0836393
0.140325
-0.223965
-0.490535
0.51967
0.0650092
-0.0155828
1.52074
-3.75481
1.83546
0.104166
0.648444
-0.795575
1.68012
-0.0871744
-1.59294
-0.371748
0.260418
0.11133
0.863328
-1.69988
-1.39378
1.65722
-0.263441
0.037602
-0.0467051
0.00910308
-1.18705
1.2223
-0.0352489
-0.539012
1.02271
-0.223698
0.587266
3.29573
-1.60134
-1.6944
0.0520179
-0.142009
0.0899908
0.106972
-0.590855
-0.0438274
-0.581432
-0.00942286
0.154725
-0.592031
0.437306
-0.153225
1.66782
-1.51459
-1.68113
0.541889
1.13924
0.538027
1.52396
0.0427474
0.137668
-0.180416
1.0277
0.490997
-1.51869
0.0348993
-0.0891963
-0.554417
1.54201
-0.98759
-1.36782
0.121398
1.14419
0.541248
-1.47656
-0.000845845
-0.203192
0.204038
1.54649
-0.350467
-1.19603
0.525185
0.405137
-1.80212
0.915127
1.63363
-1.75513
-0.893812
0.119953
0.773859
-0.0635486
0.100095
0.203128
-0.303223
0.0768332
-0.203862
0.127029
-0.0143891
0.232574
-0.218185
0.118111
-0.171331
0.0532202
-1.06678
2.23303
-0.587471
0.541364
0.201735
-0.379289
0.700294
-1.0335
0.333205
-0.651813
-0.762356
-0.114351
-0.0607884
-0.0062734
-0.00503109
0.0113045
1.58067
-1.00052
-0.580143
0.128887
1.14052
-0.463165
-0.241412
-1.08338
0.226716
0.541348
0.774172
-1.31552
-0.00976788
-0.0440935
0.0538614
-0.0452884
0.645392