/*--------------------------------*- C++ -*----------------------------------*\
| =========                 |                                                 |
| \\      /  F ield         | OpenFOAM: The Open Source CFD Toolbox           |
|  \\    /   O peration     | Version:  2306                                  |
|   \\  /    A nd           | Website:  www.openfoam.com                      |
|    \\/     M anipulation  |                                                 |
\*---------------------------------------------------------------------------*/
FoamFile
{
    version     2.0;
    format      ascii;
    arch        "LSB;label=32;scalar=64";
    class       volScalarField;
    location    "8.6";
    object      p;
}
// * * * * * * * * * * * * * * * * * * * * * * * * * * * * * * * * * * * * * //

dimensions      [0 2 -2 0 0 0 0];

internalField   nonuniform List<scalar> 
13486
(
7.43648
7.00864
2.23313
-7.08796
-2.17262
1.2657
-3.20108
0.744573
3.34402
4.65349
-26.5044
2.12288
7.77188
1.53748
-0.836651
4.92627
-13.0274
-1.71312
2.21176
6.85293
-16.027
7.61824
6.87263
-5.97053
4.38374
-5.30249
-16.855
-0.637037
0.0489132
-0.225096
-5.10692
1.07648
-4.19068
1.52853
0.826946
-0.313036
-9.79842
4.50867
-2.98894
3.93769
-10.3754
8.19588
0.83027
4.26555
4.16117
2.11385
-10.8333
0.0568033
-8.70816
-0.758743
5.14282
3.18288
1.87878
4.7765
-2.10371
-1.67093
1.57655
2.09787
-3.83464
-7.83369
-28.2906
-6.98978
-8.20972
-17.4523
-3.93088
-9.36643
-5.4359
8.06754
3.20438
-4.57798
-5.16195
-2.10553
4.40235
-10.3919
-5.09145
1.63936
-4.27237
-1.1288
-12.2859
-2.81178
-0.129176
7.24893
-8.80354
2.19449
7.44295
6.15683
-37.9254
5.00351
5.79388
5.35909
1.70121
-0.116816
6.82843
6.91261
3.12132
0.0049091
-17.1483
-7.20906
3.83374
-13.2307
-0.191195
1.74929
-7.81494
2.04596
6.71951
-13.216
5.38713
-2.51413
-11.7408
-1.79608
1.9292
0.239072
4.79587
1.35325
9.59613
2.44023
4.44641
1.70699
4.45772
-4.2786
-1.89553
-27.0146
3.66492
-2.18546
2.15359
2.47711
1.74237
2.87762
2.13573
-3.23237
2.35197
-10.1482
-9.52912
-10.0217
5.24833
5.48334
11.0992
-1.43625
-3.67237
1.33413
-2.66256
1.89065
1.70499
-2.34064
1.49822
-13.1299
-0.599223
9.27765
-1.01117
0.0295
4.1808
-2.30055
-0.102348
7.41574
3.1635
2.25287
-3.37101
-17.9016
3.46229
1.07778
-0.0878386
3.46799
1.57932
8.10694
3.01152
0.731796
2.09704
11.6349
-0.398479
-10.0242
-10.9261
3.19369
4.63875
1.35375
-0.126036
-9.76912
1.31985
-3.53325
5.34779
1.74274
3.22337
1.35639
1.45368
-17.0512
2.11475
-0.64876
0.010408
0.327729
-9.40856
2.94275
-5.79859
2.1466
2.42675
8.5186
3.10002
-25.4895
-3.44047
-0.193325
5.66273
0.931585
-3.43736
2.81436
4.51742
-5.70762
0.754447
3.2928
-0.786574
5.22195
2.28234
2.12893
-0.040863
-4.03778
6.77923
5.40697
1.27413
-0.109422
-0.337735
5.37743
6.1847
-3.69213
-12.9889
-1.1142
1.5989
-0.223734
1.4485
6.70755
0.508488
-3.06182
1.37686
-36.9346
3.18946
-18.482
-2.91784
8.48861
-8.83245
6.12976
1.03097
2.18241
6.25584
1.86019
-4.29293
4.5685
1.52062
5.56675
-6.99467
6.09842
2.12912
-2.67309
-10.4658
4.53097
-12.0181
9.77232
2.01796
-2.04808
0.988736
-11.9253
1.26959
-0.372645
-15.2039
-4.05697
6.32427
-7.91612
-0.571756
-11.4763
-2.63994
-17.252
1.66301
-8.08445
4.40178
-3.57067
7.13375
5.38478
-0.50728
2.01016
6.72344
-2.24756
1.35944
-1.57296
-1.46313
-0.779642
-1.65489
2.80397
5.49038
-12.206
-24.4797
-15.0256
-2.35988
1.97659
1.43434
4.48639
-8.86937
-12.9963
2.76829
5.26987
1.19854
0.695743
-0.101031
2.01873
5.49766
-6.82516
1.43177
-1.10223
-0.360863
0.958431
-7.69636
-5.45858
-22.3004
2.20714
-35.8422
-6.50857
-8.60802
-7.59247
2.06476
0.489064
-31.4193
5.60208
-11.008
5.84578
5.321
1.44547
-8.56728
-19.5263
5.33409
7.02048
10.8484
1.64445
0.577457
2.6739
1.90309
0.119716
5.02687
-0.61144
1.73089
8.13665
-3.90985
2.71972
9.76353
-2.27431
4.40919
-8.774
1.71925
7.0045
-0.21582
1.35707
-17.8533
0.0446653
1.89844
9.24696
-3.80048
-13.2278
2.24697
1.92042
1.99966
-17.5851
5.45641
-1.82938
-10.3491
1.73821
-32.5448
-3.69664
2.19183
1.77483
6.21153
5.40355
-0.389903
-0.0312546
0.862926
-9.20271
6.93844
1.87277
0.734562
2.02743
1.37053
-13.2402
1.52489
5.20284
5.39801
-13.7371
-30.8545
-6.33073
4.22944
-0.987241
8.24119
7.33877
-9.63251
1.76076
2.17405
4.33819
-11.5781
-19.2411
6.61323
-0.87033
3.69652
6.54712
8.48135
-1.70344
-6.33775
-12.9076
-11.8767
-2.63059
-11.6409
4.03816
3.56938
-23.3626
-2.67269
-13.0073
6.8063
-3.32933
2.27823
6.71924
4.23515
0.451161
-1.22005
5.53344
5.36742
8.37632
-16.5456
-2.5314
-10.2757
1.82639
5.36488
0.482115
9.32041
4.53632
0.139019
0.537443
2.8242
5.5188
-16.6707
2.40553
7.5742
3.64047
3.66101
1.35125
-3.90076
-3.00668
8.31679
-14.6502
1.47644
7.94003
-11.0068
-0.554282
-9.97473
-1.32313
-12.7669
5.09301
8.03942
7.69022
-6.53234
-5.60783
-18.2961
4.4705
5.94155
-0.705235
-1.21849
5.38916
-11.8459
-9.30694
-13.4671
-11.944
2.35497
5.85966
-0.15531
2.45335
-13.4641
5.59629
0.060525
10.7877
6.76517
4.151
0.120162
-0.472853
0.00802794
9.65461
3.89576
-2.85221
0.19909
2.7627
-14.7824
1.98211
4.69014
-3.18246
0.247413
6.86898
-3.57829
-12.1755
4.44819
-15.7552
11.598
4.49691
5.19066
5.66461
-10.6275
1.96332
9.69745
-3.2812
6.94892
-6.26684
3.0773
-6.34104
-2.47708
0.910704
-13.5896
6.01432
2.23059
-12.0249
0.0332413
1.11587
8.48245
5.05643
2.09164
2.43215
2.07996
0.386556
-3.12109
5.20899
-10.5901
8.13794
-0.407719
-5.78883
8.22449
-1.08469
-0.395263
2.3467
-3.04167
-10.212
2.15845
-2.19612
3.84014
6.80384
-18.2015
-3.8834
-18.3278
0.00971806
6.2111
3.08545
-16.8247
-8.502
0.674403
-13.3876
1.00911
-3.65354
-1.0629
2.43778
7.99684
-5.3223
6.17742
-12.989
-14.2224
-1.87093
3.58542
-18.9908
5.01339
2.08615
-28.3854
2.00462
4.61395
-4.14648
-18.025
5.19721
6.49116
3.44029
7.58021
2.02186
4.61768
2.89452
5.4392
1.29983
6.16468
-17.3154
3.88939
2.07734
2.47642
-1.98651
5.25726
-10.9802
2.01995
7.80925
7.49911
-0.748487
-9.31301
3.26349
1.81902
3.80369
5.40753
-6.82231
-19.6231
1.97385
7.09191
2.57241
2.55715
-8.06047
7.60044
-1.46794
1.41268
5.35442
-0.127921
-2.05574
3.49804
0.660587
1.90801
-27.5355
3.52043
-2.13815
7.34295
2.43201
2.49725
2.61205
-3.07804
-2.36254
9.01839
3.18647
8.97092
-3.28182
4.64798
-0.42341
-10.5011
-2.5401
4.50859
9.65638
-5.79555
-1.29046
0.286484
-4.30982
4.42346
-1.33629
0.819811
3.54266
-17.9974
-1.67181
-3.31411
2.13553
1.39082
5.59045
-0.162381
8.37012
3.73303
-0.225925
-13.8486
0.057766
3.2796
-24.162
1.66066
-13.5417
6.03486
-0.0265535
1.62896
-20.9297
8.21179
0.0730175
1.32782
8.10564
5.1853
-15.7395
-5.61755
2.14529
2.25993
1.83344
1.45304
-1.58187
3.49019
3.81211
3.14178
3.18291
8.30693
1.40417
-7.60485
5.26149
0.120084
1.07053
0.676578
4.7921
3.84867
-16.1591
2.07342
-14.061
1.85817
6.20106
3.19133
1.83968
2.15431
-12.1058
3.63399
6.27513
1.20426
1.60029
3.66993
7.99665
-1.85255
-0.136082
8.91925
0.61576
-11.3132
4.70473
-2.90149
6.27316
1.42862
5.33835
-25.1522
-10.1883
-4.99578
-0.113088
-12.5124
4.23564
9.34404
-0.0774359
-11.1349
0.285358
6.41648
-4.46258
3.7622
-23.7058
9.60036
-15.96
2.25112
-0.920444
4.42649
5.81322
4.422
-5.78938
-22.0969
8.03156
5.44392
-4.02968
3.83086
-10.1272
1.91474
0.981701
4.29516
-9.28534
2.34114
6.67002
-2.26798
-0.115547
0.467943
-10.2129
-0.250181
-4.01823
5.13014
6.18076
-7.16102
2.07849
-15.2834
-20.2455
1.96118
1.30763
1.76865
5.33198
1.96149
-1.38359
4.32025
-0.979844
-2.44947
-2.94999
-0.156946
-7.86795
-4.34564
-11.8844
-14.4089
1.75342
7.77557
-2.26923
-2.49064
8.13531
7.38478
-0.309666
-3.40433
2.95796
-9.94464
1.68743
-4.05304
2.20168
-1.57491
-12.2935
3.77982
4.6348
0.0847007
-1.59992
-4.97991
1.36252
2.11544
4.62423
2.42319
-8.43217
6.0606
7.14373
-20.7183
-13.4338
3.60322
-6.36975
2.62957
-4.33076
-0.0207211
-8.99667
1.48919
5.41382
9.00742
5.05189
-3.58252
1.51338
5.34635
7.02975
3.12624
3.29631
4.95468
8.39394
-2.36276
-16.0906
2.50852
2.98725
8.16432
2.03663
3.89591
2.43348
2.07611
2.10888
1.53497
-2.63544
5.56368
6.43724
4.67606
3.99106
-13.2392
0.805234
1.47068
-1.41633
-2.45432
1.38923
1.50563
-15.6871
-29.5063
4.11179
0.00428839
-10.3983
-11.146
-1.71488
-0.430541
-23.2882
-8.30181
5.49211
-3.9398
7.57546
-2.32927
-10.4995
4.11752
6.31199
-4.23708
2.29677
-8.26752
5.89831
-2.35821
-5.96785
-1.936
-8.95382
-1.66311
5.36042
1.5466
4.31331
-17.6619
2.87667
-16.8564
1.4254
-1.70698
5.1719
-1.73806
-27.3291
-8.08326
7.51622
-3.64064
-6.87168
-28.8988
4.91991
-10.1228
-17.9571
2.16192
-0.456502
-12.4764
0.574014
-3.89391
5.91179
5.37418
4.4331
3.81338
-0.352763
-0.0600821
4.95649
0.992846
4.31676
5.31318
-2.70888
-2.12106
1.46326
1.6437
-6.16554
6.04162
3.56447
0.574823
5.41009
-1.84929
2.07023
9.48763
1.53277
-3.68143
4.65245
-14.6625
-8.39257
1.25923
-14.3324
4.87593
1.46378
0.65541
1.24876
-1.16679
5.03057
-15.3141
-0.0519951
5.41622
-15.5325
8.16765
6.20204
5.99694
2.25779
5.07408
1.74364
2.19642
0.181078
3.93472
-22.7032
2.34025
-10.473
-1.18754
-19.8794
4.62797
-10.0088
-5.51994
-14.3774
-23.6023
-2.88484
5.61448
-1.04361
1.70146
-9.42226
5.37364
9.12646
-12.8284
-29.0865
4.34791
-0.531618
4.71666
0.105359
-6.01135
4.89994
4.58902
8.33238
2.43925
5.33957
0.16424
6.22436
1.71375
6.27388
-0.714877
-4.28911
1.42161
-6.40493
2.40775
-23.1925
-16.5893
7.62093
5.37234
6.27383
6.68653
6.30063
5.21005
1.36068
3.26077
5.41175
5.3703
2.79235
0.509047
-0.921642
-0.286324
1.59073
3.62141
-10.2066
10.1016
-1.47171
1.46728
9.04888
7.19885
2.40967
-6.58676
4.07537
4.16924
-10.9717
2.62242
-10.1786
0.245191
5.3334
6.30344
-5.59716
3.46897
6.18502
-0.0527258
-0.0332875
6.5375
1.9754
-6.48914
-19.6703
2.22564
-2.47348
5.55876
6.22964
-21.3645
0.959554
-1.16301
1.46897
-0.876385
2.13945
7.92685
1.37475
10.3922
4.69875
2.24151
5.32351
-15.7948
-9.81627
-10.0828
4.9133
-4.63045
-8.94084
-2.02554
3.93626
4.58925
-9.747
-1.08346
-8.73253
-0.676054
-4.27779
-14.8923
2.62342
1.80241
5.67988
5.49286
6.11768
3.71763
2.48209
-3.0111
-1.70838
2.0743
-1.15568
3.29746
2.50715
-0.909935
-4.00433
-14.659
1.21913
-24.3161
2.51364
4.24768
1.95589
-1.43575
1.42931
-0.995905
-3.15919
1.92038
-25.793
3.48624
4.78965
5.05276
-10.0452
5.22694
1.36209
6.86542
2.41947
4.112
-1.73975
1.35357
8.29623
9.95804
3.29155
-2.90465
4.6947
2.38643
8.36094
-0.0669768
-3.44911
-22.1906
2.07512
-0.614001
-11.8318
5.35343
4.55839
-14.1732
-7.35637
0.462538
3.75321
9.49493
-12.1425
5.09207
-11.8224
3.95595
7.77949
3.84734
1.8369
-0.0547745
5.46992
2.14273
10.1644
-15.0054
-0.932073
3.98325
1.95543
-18.5414
-10.1397
-1.71925
6.23499
-0.232382
-2.51211
7.42161
6.94154
3.44358
-5.3318
-9.96684
2.84461
3.99897
4.32315
6.15971
2.4895
-30.1756
6.69052
1.68614
-5.05735
0.671962
5.90477
4.98179
-27.8452
-22.6534
0.0228279
5.15848
7.88231
2.24505
1.07355
-2.47053
9.58566
-23.1839
-2.52827
8.48524
5.17361
-7.18968
2.22862
-6.12979
-0.358228
-1.40791
-23.3709
-10.342
-10.7502
2.0749
-0.209493
-10.3915
-12.6592
-12.1196
-7.2002
-11.7639
-12.4132
7.44576
5.54251
-3.48072
-9.06483
1.30099
2.77117
2.25044
10.3268
-0.441427
-1.28544
5.18929
-0.290754
-10.9578
0.457754
0.238829
4.56661
10.621
0.116004
3.84461
-6.23395
2.08791
0.0554368
2.02516
0.253525
6.82179
5.28061
5.61098
-4.00539
-2.45249
1.82951
3.13355
5.33886
2.97384
5.57091
9.6903
8.85089
-0.23265
5.20113
6.52811
-1.16831
5.98088
-4.77955
8.70243
5.8714
2.07141
6.24034
4.06626
0.727229
2.11059
6.01877
-2.77146
3.00365
-1.95074
-1.14474
1.25935
4.78598
-0.685576
1.66171
8.22054
8.17486
0.709942
-10.0506
2.2666
-12.2714
3.46146
5.44788
6.89043
-10.0593
5.40385
2.90346
1.83846
3.17191
-16.2775
-0.401581
-20.0731
10.2892
-0.771954
-6.10817
6.69167
1.25236
1.68151
3.93588
2.05816
4.96008
-5.46392
0.169422
2.39107
0.802544
-0.62156
0.348008
9.17422
7.14836
4.66886
9.51599
7.88062
-0.290126
-1.21968
-1.59962
-1.96979
8.21109
-0.27318
4.06381
2.44975
-15.4496
-0.452036
5.22776
-6.1142
1.88694
4.99336
10.7468
-17.6955
1.93286
-9.37491
3.71536
2.25972
-8.75415
7.91395
5.85658
3.06093
4.90402
-0.793204
-4.44816
-13.3079
8.83145
0.204679
10.0703
-16.3883
0.95546
-11.0326
-3.3689
-10.2869
1.74446
-0.374927
3.42111
-37.7973
3.33745
-8.75896
-0.0416762
-1.83715
-10.0371
-0.577651
-6.3609
-26.1062
4.36724
-16.1699
-25.6572
2.66654
2.88574
8.17357
5.36298
1.47028
2.16412
11.8977
3.94919
-16.7846
-0.164896
1.48872
5.02064
3.11016
6.84178
-2.25102
-2.24122
0.207123
-0.0505076
2.26751
7.10637
-10.0955
-17.0276
-12.6756
8.97776
-6.18351
2.48177
5.95793
-18.4417
1.57582
-0.670777
-19.2838
-18.1659
0.612453
4.66651
4.49711
5.8675
-6.88717
-10.1353
-1.57835
-13.8908
-0.675654
2.34655
1.75638
-1.88152
-29.4464
-8.86417
-17.9142
-5.41745
7.41187
-14.0769
8.88002
-19.3978
-1.79757
0.94606
-5.36115
6.40012
1.97523
7.081
-23.8522
-1.31302
-20.3257
5.78036
-10.016
4.77477
-16.1993
7.49685
6.70516
-13.5909
4.94954
8.18804
3.78777
5.11539
-5.96289
0.153949
1.41619
-2.52419
-1.44486
-0.659722
-1.03363
2.23801
-22.8201
2.11052
0.998114
1.11292
-0.363163
-0.248142
8.67197
2.14644
0.0250914
1.93208
5.35194
-3.23783
0.103221
3.99605
-0.193259
2.21201
0.920023
2.77264
5.35559
5.28864
-25.5222
5.52189
6.16114
4.41608
0.0164917
1.53237
3.03203
2.68375
-2.32144
-9.99873
-6.15662
-3.67447
-6.84227
-0.103814
-0.824884
1.35005
-10.2744
-1.13005
-26.8303
0.924966
-2.06196
3.52209
-18.1575
5.6606
11.7832
3.53896
-1.91935
3.90429
2.55291
2.26014
0.550247
-0.479562
-12.6172
1.90842
5.79304
0.0873606
7.89917
0.481961
5.27073
1.23837
1.56797
-10.9836
-2.9668
10.0734
-15.3719
5.4052
5.35037
6.79453
1.76149
5.82407
2.98987
-11.0136
3.70645
-17.8069
-17.1717
5.9562
5.17612
-5.56412
2.70722
6.60332
-10.6935
-5.17908
1.30015
1.35717
5.36023
4.08061
5.93517
1.93385
3.27237
-6.19422
-0.709904
-0.124633
5.9051
10.0002
-0.953104
-22.0362
-10.8507
2.21785
2.06888
2.04664
-4.1492
-0.0972517
1.51844
-20.7867
0.822731
10.0524
3.71423
-2.26003
-8.13037
-8.58672
-3.19929
-11.952
-5.17495
-17.2177
6.78269
4.08451
-1.17939
9.46382
-0.153406
-20.3949
-2.03226
-17.9624
3.87898
-9.04714
3.35149
3.20331
-26.5549
0.0835944
-1.94057
-17.0608
-2.53096
6.20596
-26.2771
-10.2295
-12.9589
5.36451
5.17459
-6.72457
6.01342
4.93281
7.30524
8.11366
3.85872
2.0468
10.3911
-12.6642
2.57326
-5.41766
-19.4804
6.96168
-7.00384
8.46192
3.90487
-3.14363
-8.59854
-8.90773
5.97269
-5.48971
-2.72419
0.329828
-0.328565
-2.14904
4.44197
2.68559
0.936477
8.96971
-10.129
-5.07877
2.07731
2.62391
5.25163
-3.11089
11.6185
-6.1267
0.734266
5.08691
-2.46911
5.32693
3.56833
4.71512
3.85658
-2.15215
-0.260793
3.75388
2.21337
-21.3038
-0.93505
3.4333
5.32453
6.02476
-22.0191
2.21278
-3.88608
4.36028
1.73877
-12.6956
5.26634
-0.941327
5.14808
5.64677
-12.8611
7.69063
-5.3723
9.95999
4.16665
-23.3159
0.119689
-7.74487
4.59527
5.9282
-17.7383
6.04551
5.59595
-3.04706
1.1836
2.19839
1.26103
-3.10371
-12.6983
-0.911209
-1.61502
5.37464
-9.83139
-12.0356
-0.206687
6.5547
6.37716
5.05444
-9.34679
3.98316
2.0216
2.22482
4.14141
-23.1464
-25.5273
8.75405
-0.0867935
-2.7872
-2.5093
-19.2167
-15.8598
5.46177
-12.7312
1.60081
5.95106
0.699083
5.3908
-12.3647
1.91089
9.36977
-6.02029
5.8761
1.35918
-17.0686
3.38307
2.23967
1.79922
9.44801
4.51523
-18.8958
9.69993
5.71626
6.75572
-13.1005
-9.75924
-2.07026
-3.42956
-13.721
-9.73529
-2.56364
-8.74241
2.0768
2.15479
-0.558247
0.579639
-18.0853
-0.286164
6.18766
-26.7819
2.64046
4.46194
5.35986
1.69629
-3.2087
-7.24684
-11.8945
-10.7895
1.2243
6.17832
-21.6195
7.25312
-15.3944
5.32903
-1.79796
-14.2807
-5.49052
4.46424
4.0484
2.90379
2.74993
2.99567
-1.71635
6.55576
7.3409
-3.51712
-12.8384
-10.3685
5.39066
2.05282
-4.91457
-6.62963
1.97692
4.39069
-6.21229
3.06867
0.506957
0.611597
4.04111
1.92264
-7.70017
-17.5354
7.01258
-7.70892
4.78368
0.0420341
5.18989
4.69269
4.26202
3.04915
-8.88416
-8.62261
-13.2532
-10.3898
-7.70104
-4.98662
-6.02226
-19.2201
5.17752
1.69725
5.34325
-16.5074
-0.353501
-4.90984
-7.61682
4.60979
-18.1484
3.87829
2.15321
-11.5137
-14.8958
-8.78954
2.53161
5.55392
-15.7175
2.07681
-9.70885
3.95031
-6.1521
1.29863
-17.4117
5.98507
2.03386
-0.392574
5.27105
3.68472
5.26971
4.81675
7.44165
-6.40267
0.733563
-1.78458
1.82137
4.44939
2.18155
-8.55003
-9.75518
-17.0937
-0.018128
2.35163
-17.9577
9.78981
-6.67411
4.76937
2.29498
-2.7796
3.73302
1.35692
-2.22191
2.43562
1.97745
5.48871
-12.388
5.37112
-5.16347
-5.49571
-26.7757
0.0860424
-10.7301
4.66617
9.25797
5.48053
-2.73537
-7.85799
5.05247
-16.677
-4.67693
-19.5721
3.40334
-4.34124
-25.2654
-11.3604
-0.971591
2.73111
2.19373
-10.647
2.26883
5.95262
-0.68964
-4.82704
5.94142
0.0506377
-24.9352
1.12395
0.909301
0.106243
9.59569
-17.0483
2.49426
-2.33368
-0.959888
-0.582451
3.3856
0.24476
1.69504
-1.22223
-1.74121
1.7497
-2.76523
6.2994
3.17499
2.68726
-1.48821
1.34364
9.57458
-23.4696
4.63131
4.66896
2.31836
4.4048
2.00338
-10.616
3.60302
5.31777
4.54238
3.89382
-8.31252
5.94626
2.47474
7.77119
-2.1528
5.41164
6.39264
5.23144
1.94934
-16.0677
3.28816
-16.4142
0.69755
3.89728
5.28962
2.30132
7.28603
2.04945
7.99598
-7.9372
4.9787
1.35723
2.38706
-25.9758
5.32888
1.54124
3.88989
9.30747
5.54073
1.97677
-0.583751
2.11354
5.28918
-5.34877
-12.0077
2.62092
-0.478186
6.29743
-6.62914
7.48848
3.01554
12.069
8.40503
-0.476837
-1.90345
-28.362
2.17746
8.63024
0.208019
1.70046
2.48428
10.3553
4.24348
2.54987
9.65146
-1.11397
5.19422
1.79336
4.58954
1.69053
3.67672
4.40416
5.91965
3.27576
-12.0884
2.28539
-9.27786
1.33882
-9.38376
-8.20631
7.81553
7.03869
0.58183
-4.97577
2.68388
5.22703
3.03373
3.02261
4.39888
-2.03618
-9.74984
-12.3221
5.62752
-5.06128
0.428139
4.08311
0.893884
1.99062
-0.699853
9.62126
-16.9658
7.25947
-6.36841
9.6386
-0.560099
0.9524
-10.2584
1.77052
3.23674
5.34853
-0.59755
-0.565058
-7.10507
0.802345
6.53162
0.692374
1.95117
-21.9564
-1.68288
-6.64392
4.62309
-2.22123
-0.010932
0.0367149
5.41894
10.0621
-9.73451
1.57942
2.93833
-1.40907
3.96509
-12.0854
-0.823155
-1.31206
-7.95945
2.68206
-0.715971
-0.743789
-4.64526
-9.72004
-5.45623
2.11214
4.87633
4.81835
5.14881
9.54141
-29.5442
10.1472
-9.55591
9.30578
-17.6676
-1.56552
9.06288
3.72975
-2.24403
2.25401
4.30203
3.30458
-23.1727
-12.9635
2.0667
-0.829175
-1.97108
-0.129507
1.07766
3.60759
4.65493
-17.5252
3.75097
-5.08641
1.53967
-20.4084
-8.43614
1.42417
-28.1162
-3.77049
8.49957
-0.536625
8.84565
2.11886
-17.9881
3.55245
-1.54161
-9.48841
5.10219
5.72665
10.2903
4.92674
5.56447
-1.98013
-10.1607
9.96671
10.128
5.98527
-0.775394
-9.02434
-16.9588
3.14195
-0.12542
1.00851
6.29395
-0.81022
-8.57345
-28.1771
9.15463
0.567062
2.42174
-8.47007
2.41481
4.80247
11.3964
10.6119
3.47432
3.15432
-0.926315
-7.46919
4.07234
10.8712
-6.67111
-9.82745
0.492476
0.169802
2.04469
1.22833
0.69004
2.23567
1.74605
2.18653
-0.362845
3.32297
6.5382
-7.10701
4.82108
-7.59742
0.414165
8.58678
-11.384
1.31495
-6.4969
3.83271
3.43006
-6.98947
-8.16424
0.924457
1.73564
11.6579
-11.1321
-9.94401
-7.09496
-0.368874
-9.78744
-6.80154
-5.34657
-8.37253
-0.309918
-7.81405
-1.28749
-2.34072
3.34158
2.12124
2.30268
11.2553
2.46835
2.2122
-1.13754
2.78144
-10.026
1.04943
7.78314
4.97622
2.31149
-1.7028
4.2809
5.09255
-2.71118
-22.9906
-14.9535
7.83409
-0.846442
5.26297
2.07729
7.57056
1.6959
-6.54785
-1.14142
5.54946
-0.215485
5.34221
-1.15217
10.4243
-6.69564
0.842616
-24.4852
4.27839
-8.72668
-1.86893
-7.86213
2.0309
-4.72501
-7.86663
-23.717
4.35356
1.79354
-3.38143
-1.37946
3.01752
-16.354
2.56086
-8.74243
5.54652
9.72069
2.14901
-10.1881
2.94714
1.81382
1.34927
4.53864
0.266869
-14.3083
-5.94525
-0.531939
-4.77678
1.96214
0.0786169
-14.4359
-24.1982
2.24179
5.38123
-0.476509
-8.39181
0.464458
-1.27176
-1.60382
1.01546
-5.42197
-9.29023
6.21868
-20.1822
-2.86084
-3.14542
-29.4232
-18.5288
-30.8394
11.8947
0.985643
-1.69386
4.03927
9.4844
8.60796
-5.45993
1.78196
5.33938
-7.33852
-7.77819
9.60512
1.96086
0.958506
11.8551
0.875867
-6.15909
2.56325
7.94068
5.53648
2.96768
7.65046
4.70106
1.0308
2.03521
3.87377
2.07552
-11.6749
9.26653
1.77615
0.0406591
-0.178655
-2.8401
0.990503
-7.90973
1.27093
1.95891
3.57286
5.87037
3.85391
-16.2878
8.23576
8.91147
-10.3388
2.2217
-3.17597
-7.88001
1.13767
4.42974
-17.199
-0.76065
2.29729
10.1325
-17.7684
4.44464
4.89029
5.41565
0.331963
2.79904
-1.48091
0.854541
-2.65949
1.47894
-21.1886
-4.90296
2.20476
-6.7608
5.59826
-7.05391
-35.5204
2.95436
-10.0135
-8.57324
-12.4592
3.65294
1.93792
-30.5932
3.7978
-8.80259
1.20858
-11.4531
-3.39986
5.34274
-19.296
9.73392
-0.477272
10.6761
-0.0967501
-22.9432
1.99464
5.20351
2.39991
-6.66442
2.29593
1.30048
1.87668
1.01732
12.038
5.46291
-0.826939
-0.632342
-0.0172609
-2.22931
3.83412
-1.68963
4.46832
-10.1781
-8.72683
-9.45406
-5.81474
0.968321
-9.84429
4.51136
2.16407
8.55075
10.0757
-12.1333
-14.4611
-0.409599
-2.05722
8.92952
-7.22987
0.720533
3.73836
4.74649
-0.451208
-9.56111
1.53851
4.16375
1.57714
0.42935
-5.47977
-15.2774
-1.22656
-5.97103
0.891066
-5.84096
-5.40185
3.90972
-4.76913
-6.79457
0.236681
-1.05489
10.3953
-0.636337
5.30691
-1.39446
1.2075
1.72155
-0.287288
3.24502
-6.04141
-9.31763
8.86094
5.24707
1.8789
-11.075
10.9881
-9.08559
-9.82016
-11.7263
-1.49363
-9.26997
-1.64861
7.71498
1.65216
2.65904
3.61587
-7.77682
0.6123
-18.7611
2.22971
-6.28865
2.0098
3.40299
3.85826
-9.44862
-10.5708
-7.15902
-0.372533
-2.70884
-2.38622
10.3807
4.60999
-19.6611
-1.93362
2.99647
8.24746
0.228751
-9.91434
-0.88134
6.65282
3.13056
-0.991178
5.3555
-0.931007
8.74682
0.887206
5.83246
-19.3068
-0.524632
-0.944721
-9.00552
-1.93875
3.41902
-10.5092
-10.0264
4.8535
0.355587
1.57475
6.9821
4.92619
6.77924
5.27069
-1.95808
0.453971
2.11327
3.27041
0.0104907
4.98665
0.0262984
8.8212
-6.2461
6.56301
-3.76192
9.62187
-7.9122
-0.978148
9.40278
-7.31285
-0.406558
-18.1799
7.04986
9.21656
5.49738
-4.47157
5.35818
5.7435
-2.97308
4.07834
-3.96235
6.36048
-8.38584
-26.3216
-14.1608
-13.9866
5.63997
-3.22175
-16.1647
1.38496
9.09128
0.268755
1.50492
-13.8581
-1.86373
0.433499
-0.412618
5.31579
3.37292
-15.9173
10.6643
4.42082
7.91881
6.25055
2.19614
-2.10395
2.14841
-4.73253
0.345908
1.5996
1.14697
0.476582
3.28703
-13.4091
9.66666
6.05639
0.991977
-12.4444
3.38144
1.03964
4.70543
5.53743
2.2452
-0.0273747
5.47155
3.8913
-1.04353
-10.0801
-0.0393812
4.16806
8.77391
-10.7981
9.51848
10.8275
9.86848
-1.52339
5.5519
-19.1943
5.3184
5.61307
6.77931
4.18974
6.84935
11.3298
5.33632
-10.7316
-10.1306
-8.89893
11.2381
1.61776
0.0165727
-7.61699
5.96803
8.31516
4.28465
0.989919
2.72216
7.74399
-8.90215
3.46733
-8.68046
3.81046
-9.4238
-6.61394
1.9714
-16.673
-15.9555
-17.2513
-0.113873
-3.34963
5.44385
1.2157
1.91178
3.44341
-21.7586
-2.18205
-1.33806
-17.5379
-18.8312
-10.4454
6.52247
7.88612
-8.8867
5.43539
6.36141
7.68317
0.619903
-10.2629
4.17005
-11.4862
6.93027
-14.0094
6.73004
4.76196
2.56536
6.53767
2.47223
5.88314
1.11083
3.88438
-0.199839
-10.1011
-29.8094
-6.36042
5.74911
-13.2955
-1.50246
-11.7965
8.71438
5.57417
3.68854
1.27413
7.47601
-5.32527
3.3185
-23.0894
-0.674028
3.40718
-5.62181
-17.2748
-2.11599
-12.0401
1.3932
-21.5892
-24.5951
-18.5517
-10.4075
2.38207
9.24103
10.3218
8.46257
-14.5439
3.52637
-20.3672
3.49502
8.09287
2.71077
5.6723
-10.5208
1.3155
-0.505762
1.62606
6.36799
-0.733407
4.23759
-16.1475
0.867817
-12.1595
5.75013
4.27868
5.34938
-19.2093
3.48057
-22.2683
-14.7361
-13.6988
1.10234
8.98192
-6.45331
-1.17328
-9.5361
4.57305
5.33591
4.14546
4.40463
-18.7846
7.63728
8.37666
-1.20541
1.05443
6.88014
-3.96452
-30.9051
1.98407
6.51154
7.20593
-18.0733
-0.584499
1.64676
9.10367
-18.8482
-4.64672
1.56774
7.99183
1.93716
-0.0828098
1.0681
5.95159
4.94087
6.20248
1.41323
-5.88022
4.26514
11.0338
-10.2803
1.18959
1.80321
-15.5679
1.87891
1.49315
-9.23605
-0.887372
-11.3622
4.52135
0.474957
-2.46518
5.57887
6.89939
3.53701
-4.27954
-4.46783
3.86141
-17.5917
-2.59706
-0.697663
1.4135
-24.301
6.45736
4.05135
1.7442
3.18149
8.50795
-1.96816
0.536282
5.62069
-13.0513
4.57431
0.0727374
1.12079
-4.29079
5.03019
0.0851241
1.40994
2.974
-5.2245
6.09226
-3.81116
1.5795
-3.52754
-0.364587
5.36001
-20.3891
9.78077
-18.0852
-11.4019
-14.675
6.58372
4.03383
5.54117
-8.80359
7.94894
-19.1957
-0.022275
1.10302
-18.4709
5.41608
1.59944
2.32644
0.936112
-9.3571
4.96638
-12.5081
-4.69683
-0.0900009
-11.3393
-13.6859
1.80169
8.49672
-15.2048
-19.7576
5.51693
-7.64379
7.1844
-4.42639
2.09199
5.111
5.5606
1.49481
1.05405
-5.85771
1.8344
3.15219
3.67927
-22.5548
-9.80907
2.01744
-2.56841
2.27136
11.4604
3.58778
5.23113
7.13597
2.81028
5.89126
-9.1748
-8.40042
-5.67842
5.33519
11.0518
3.57752
-1.23463
6.23826
1.63095
2.00151
-22.9449
1.78145
2.02122
9.80047
-11.1487
-2.31248
9.2968
6.37947
2.80844
4.06767
5.45463
2.4879
-22.0547
-10.0031
4.23995
-10.3205
-9.77264
4.9626
-6.87316
-13.2792
-5.1949
3.30483
3.54043
4.11558
1.81371
5.65075
5.80758
1.05894
4.42803
3.68008
6.8507
5.6376
-1.41813
1.31839
4.44082
6.30723
4.16548
-2.19226
1.76721
1.74169
-25.2297
8.43004
4.79304
0.275186
-17.947
0.805293
4.93022
0.0476244
3.57563
-14.3217
2.04383
-1.97377
2.12278
-11.8705
1.10008
-0.735536
-1.92668
-12.4503
-19.3373
7.40146
-8.86086
-9.25021
-12.5397
8.67888
-0.68368
1.69018
2.99256
-15.0923
5.71135
5.31686
-0.575448
6.64993
2.94901
1.99882
-9.44629
-16.6117
0.680077
6.65585
-1.45103
-18.8727
-18.1384
-2.4516
-9.45126
-11.5825
-9.17832
3.1564
3.53002
5.34559
5.17427
-2.14731
-10.2437
6.77432
5.14875
-17.7048
1.98609
-8.90107
0.571258
1.21524
2.08962
5.09168
0.335723
-0.892666
-1.32566
3.23536
-17.1191
-10.1275
2.18495
-10.0315
-11.716
-16.1259
-14.7383
2.11631
-8.00765
1.48879
-18.5425
5.5056
5.22113
-0.0112359
6.70736
-19.7223
8.39204
-1.57222
2.19357
-1.79492
4.12517
2.17258
-10.0255
-8.05117
5.64225
6.77964
8.8991
-19.1625
-11.4875
-15.7307
3.76723
0.170426
-18.1612
-4.12294
-15.0077
2.16553
-19.8223
-0.339919
-6.70958
4.67456
7.7163
2.84015
-0.0994699
-6.12641
-3.7331
-10.8977
7.69279
10.2866
-9.68891
4.49116
4.13388
-0.00155374
-22.8387
6.49998
6.70512
-10.2682
-0.837857
-6.49146
-19.4852
-1.45478
-16.9224
-0.899777
5.00912
-4.14446
6.11561
-20.7517
-16.7518
5.42983
-1.07019
-14.2584
2.29528
5.56134
-14.1403
0.0222562
-16.6453
-18.1004
-14.3724
9.08785
-8.28221
1.20606
-21.0098
5.04424
-12.3451
-1.53123
-8.36536
-31.723
-0.444618
4.47225
-0.157109
-17.3871
3.3401
-0.0951941
-3.70876
-18.8387
-20.2429
0.161521
1.79983
5.28441
-9.42971
6.94847
-2.8663
0.0937561
2.05721
-4.78401
-11.467
-18.7614
-9.48804
1.75506
3.65636
-30.1021
1.16237
-3.14547
2.7015
-31.2505
5.52233
-24.5671
4.43104
1.19141
-9.76957
-2.42465
11.9738
-20.4666
-14.091
-8.86929
-3.15944
5.35009
-11.9084
-2.45941
1.38532
-17.9865
-18.5227
-10.2335
-16.358
3.19411
-24.7141
2.51298
-16.4791
1.72958
3.38536
2.25663
-2.25744
0.122412
5.39573
-12.2557
-5.64526
6.11421
0.927216
-12.4173
1.05969
-19.7692
-2.84274
0.71231
5.58343
-6.22681
3.94351
-11.5886
-15.839
-29.7424
-27.7016
-9.56039
-2.14342
-1.92054
5.1326
3.79718
-25.5527
4.38033
-14.2638
6.67817
6.84702
-14.7929
2.64746
4.92686
5.36424
0.160617
-7.61639
-11.2404
-10.312
5.32055
3.19059
-3.77183
-25.0573
-0.796054
6.70397
1.33879
-1.0808
2.24674
6.11927
-2.92817
-3.22263
-36.9804
5.12119
2.93163
-2.48807
7.03401
6.37287
-24.0717
-11.9397
5.38878
4.09272
1.73352
1.42426
-1.32051
-9.83701
-12.6643
-10.7237
6.65252
3.10562
4.47275
-0.748343
-3.89655
-8.49363
3.83346
-13.1811
-0.548104
5.52138
6.24217
-1.54364
4.87467
1.74644
3.36866
4.00606
1.63003
4.24613
-0.177783
5.52198
4.7577
5.44755
-16.2914
6.15963
5.32861
5.20659
4.87598
-5.07797
0.704932
1.15227
-1.85058
5.68209
8.29369
-9.44589
8.83177
-9.54044
-10.4196
4.15166
5.04017
-7.62855
1.57186
-11.6203
-11.7799
-0.685903
-8.01912
-8.7797
0.972896
3.10888
10.4184
4.80538
-2.27019
-9.86535
3.49975
4.03944
-24.9728
-10.3752
-4.34836
-3.06601
-10.2566
-10.0013
5.31256
-9.0057
3.92697
0.72975
0.697919
-2.34798
1.03331
1.7766
-1.24396
5.64794
-1.28576
-4.18552
0.303465
-28.6783
2.19297
4.20593
4.66414
-7.24332
4.97363
2.80815
3.79938
-0.863022
5.15279
3.11022
7.84323
5.28296
-7.80236
0.875323
-0.73629
-3.91354
-12.9498
-31.5249
-1.44514
-9.51207
10.67
2.22553
-0.175238
6.8502
-9.65597
-0.364729
-19.2552
-16.4568
-9.54229
-5.16426
-2.41559
2.48665
-1.28556
-7.01261
-2.46032
-2.07336
-1.89064
-6.62543
-5.02441
5.01906
-6.62397
-8.90276
-2.77848
1.5889
-3.28863
5.23907
7.14467
-3.84128
5.35106
0.410196
4.74899
8.7118
-10.7612
4.54181
2.10085
3.80153
6.41856
1.36691
3.92196
0.880741
4.92738
7.1368
-4.24045
-8.76319
-4.91872
-2.85879
4.15104
-5.68554
-6.05357
-4.49907
3.81878
-11.4296
2.24713
1.33231
5.29226
2.10888
-10.6976
-19.9867
-9.33959
-2.00086
8.00734
9.64804
5.70831
11.0066
5.75326
7.17357
3.55548
2.12632
6.34044
-4.91946
4.08822
0.87246
-10.2787
7.31313
2.84865
-2.92336
9.42839
2.07139
-21.2372
4.15556
3.81926
6.3212
-10.127
5.44431
9.24772
-9.86345
-10.3195
-4.33673
2.47666
-19.2389
5.19371
1.42363
6.55555
5.32296
-9.30812
4.98749
-0.54573
-10.1085
-10.5475
-7.82249
4.46743
-3.45123
5.4524
4.38169
-17.6595
0.879437
-1.82747
-1.1522
-5.12243
-10.0265
4.98669
2.8119
-13.7886
0.36995
4.91528
2.28526
-12.073
4.17777
-11.7401
4.03745
-13.3747
4.82052
3.09587
-2.41393
3.84063
4.1325
2.22267
3.3078
-11.975
10.6655
-1.7722
-15.1047
4.21291
3.13634
-15.6969
-2.60095
-15.5635
-0.442285
0.172509
-2.63755
1.53094
0.950065
11.0834
-9.31047
-10.0976
1.07653
-0.334746
-0.332256
1.60697
3.52299
4.95281
-18.7618
2.32112
-11.4403
-0.115269
2.131
3.34329
4.81164
0.0824644
0.143426
0.0384736
5.32115
0.996766
2.30168
-13.139
0.268754
0.0219167
5.68849
-13.9004
0.96145
-10.1231
4.3222
-18.1258
1.06644
5.87904
5.15846
4.57513
-12.452
-8.63054
5.43368
-0.526418
6.1927
4.20025
-2.02921
4.99776
1.44862
3.23011
1.96055
-0.132798
-3.69446
4.94736
-11.2551
6.19596
2.31649
11.1756
1.84399
3.1551
5.47443
2.5032
2.21921
5.21892
1.47862
1.91048
-4.15309
-6.0034
3.77572
2.03174
-0.585993
-16.146
-0.129324
-15.4134
-16.3886
-0.831317
5.24881
1.35275
5.00714
1.90063
9.3829
7.92349
3.64381
1.90856
3.5386
-12.0969
5.8827
2.63765
2.34602
1.60189
5.84221
4.39142
-3.66609
-12.9778
-4.74526
2.43836
-0.0656478
-1.67061
5.39368
-21.5632
2.17204
-7.64032
4.06354
3.96536
-6.10027
3.8174
4.87113
3.9978
3.60003
5.35022
2.09872
-0.631064
4.70862
1.52571
7.61717
-21.1631
6.52952
4.53214
-19.5224
-4.12009
-0.41211
-0.153705
-21.0241
-2.58646
5.35383
7.16494
6.07692
6.875
4.77347
6.11316
3.81638
2.00162
3.97199
1.96205
2.55474
3.26188
0.82897
8.23693
1.81437
-16.1319
4.92522
7.20503
8.20642
-31.8101
0.863918
-6.28617
-10.2941
4.08827
-1.52041
-9.27194
4.47234