/*--------------------------------*- C++ -*----------------------------------*\
| =========                 |                                                 |
| \\      /  F ield         | OpenFOAM: The Open Source CFD Toolbox           |
|  \\    /   O peration     | Version:  2306                                  |
|   \\  /    A nd           | Website:  www.openfoam.com                      |
|    \\/     M anipulation  |                                                 |
\*---------------------------------------------------------------------------*/
FoamFile
{
    version     2.0;
    format      ascii;
    arch        "LSB;label=32;scalar=64";
    class       surfaceScalarField;
    location    "6.9";
    object      phi;
}
// * * * * * * * * * * * * * * * * * * * * * * * * * * * * * * * * * * * * * //

dimensions      [0 3 -1 0 0 0 0];

oriented        oriented;

internalField   nonuniform List<scalar> 
20045
(
0.245812
-0.266892
0.0210807
-0.531303
0.18775
0.343553
0.200337
0.994666
-1.195
-0.103113
0.161079
-0.0579653
-0.425493
0.407035
0.0184578
-0.307752
1.13393
-0.826176
-0.502084
0.207058
0.295026
0.0310632
0.217299
-0.248363
0.240976
0.205918
-0.446894
-0.417983
-0.0473645
0.465347
-0.196614
-0.188772
0.385386
1.12927
-0.540475
-0.588798
0.175168
-0.17705
0.0018825
-0.638286
0.556385
0.0819017
-0.154219
0.523768
-0.369549
-0.54234
0.124357
0.0179785
-0.0510138
0.0330353
0.300863
-0.276126
-0.0247365
-0.829042
1.2208
-0.391756
-0.374519
0.0261172
0.348402
-0.142353
0.0802816
0.0620711
0.0590566
0.116111
-0.0639629
-0.46734
0.45704
0.570128
-1.02717
0.408582
0.111087
-0.519669
-0.59475
1.05179
0.0304167
-0.031075
0.000658356
-0.69041
1.2929
-0.602491
0.85495
0.140681
-0.995631
-1.28255
0.699967
0.582587
-0.233344
0.151595
0.0817486
0.708147
-0.504247
-0.2039
-0.370025
0.844637
-0.474611
1.21818
-0.710079
-0.508097
-0.278822
0.309885
1.03706
-0.503635
-0.533427
0.695297
0.0464678
-0.741765
-0.0295299
0.183037
-0.153507
-0.973287
0.457724
0.515564
0.300434
0.260584
-0.561018
0.0212502
0.205603
-0.226853
0.0630071
-0.0904141
0.027407
1.07014
-1.07106
0.000920079
0.744883
-0.281013
-0.46387
0.350179
0.394704
0.509838
0.619435
-0.12941
0.0659598
0.0634499
0.647762
0.256969
-0.904731
0.829031
-0.133734
0.0891657
0.985578
-1.07474
0.651062
-1.09972
0.448662
0.888537
-0.635412
-0.253125
-0.591431
-0.422564
1.01399
-0.0460817
-0.148224
0.194306
0.365869
-0.160374
-0.205495
-0.345167
-0.0803258
-0.135341
0.886385
-0.751043
0.761189
0.0895089
-0.850698
0.585323
-0.955348
0.909924
-0.530237
-0.379686
-0.205481
-0.165483
0.370965
0.456954
0.45297
0.267701
-0.903461
0.63576
-0.0344893
-0.107863
0.822278
-0.201746
-0.620532
0.794512
0.028691
-0.823203
0.0751891
-0.168768
0.0935788
-0.333092
0.0804881
0.252604
0.425544
-0.184568
0.821044
-0.834766
0.0137219
0.150709
-0.0755195
0.0292846
0.336585
-0.127252
-0.524046
0.651297
0.0778334
-0.131047
0.053214
0.884556
-0.24254
-0.642016
0.673235
-0.808576
0.0646657
0.81989
0.224057
-0.378276
0.0962733
-0.166904
0.0706304
0.16481
-0.613598
0.448788
0.518724
0.594792
-1.11352
0.449021
-0.346504
-0.102517
0.725383
-0.457682
-1.33628
0.238296
1.09798
0.00928614
0.236526
-0.271481
0.305452
-0.0339713
0.29789
-0.66537
0.367481
-0.803247
0.0352117
0.768036
0.517599
0.0754089
-0.593008
-0.420046
0.389244
0.0308022
-0.712978
-0.105281
0.818259
0.364671
-0.0692504
-0.295421
0.199201
-0.286804
0.087603
-0.0799212
-0.406324
0.486245
0.289493
-0.310463
0.0209707
0.762174
0.176318
-0.938492
0.00761767
0.022799
-0.0860379
0.22191
-0.135872
0.612641
-0.312207
0.032101
-0.0713351
0.0392341
0.700485
0.336576
-0.224037
-0.41425
0.153461
-0.239499
-0.173719
0.934908
-0.003311
-0.26817
0.0750934
-0.0429923
0.229439
0.603557
-0.832996
0.520137
-0.899745
0.379608
-0.0331364
-0.20953
0.182319
0.0272111
-0.0989582
0.126465
-0.0275071
0.609025
-0.45364
-0.155386
-0.243852
0.197771
0.635086
-1.15188
0.516798
-0.0833074
0.155753
-0.0724457
0.0225013
-0.122554
0.100053
0.579173
-0.170591
0.870198
0.347978
-0.587657
0.460405
0.673888
-0.917517
0.243629
0.245166
0.0556971
-0.379818
0.174337
-0.385341
0.311401
0.0739396
-0.453151
0.0500089
-0.290623
0.240614
0.617368
0.271169
0.550447
-0.715283
0.164836
0.813795
0.0936106
-0.907406
-0.985759
0.734343
0.251416
0.0571308
-0.704829
0.647698
0.931193
-0.313825
0.16916
-0.1032
0.118458
-0.0475606
-0.0708971
-0.0420198
0.0317785
0.0102413
0.570104
0.401765
-0.971869
0.596599
-0.578246
-0.0183532
-0.173676
0.105313
0.0683629
-0.150513
-0.059017
1.04041
-0.366527
-0.325489
0.342821
-0.0173325
0.639596
-1.16371
0.524109
0.176221
-0.767652
0.560772
0.226513
-0.787286
0.69179
-0.52698
0.964561
-0.132363
-0.832198
0.549584
-0.934622
0.385038
1.00049
-0.631525
-0.368967
-0.126007
0.230893
-0.104886
-0.0272067
1.10059
-1.07339
1.075
-0.220047
-0.8259
0.0271968
0.798703
-0.477836
0.409556
0.0682801
1.00026
-0.481533
0.170524
0.278497
-0.631915
0.780911
-0.148996
-0.856594
1.05693
0.0101217
-0.15502
0.144899
-0.0212846
0.0365787
-0.0152942
-0.0174076
-0.18442
0.201828
0.968783
-0.115636
-0.853147
1.38409
-0.691657
-0.692438
-0.219312
0.201905
0.339416
-0.655732
0.316316
0.0741535
-0.0111464
-0.809131
-0.465842
0.690424
-0.224582
-0.674057
0.485546
0.188512
-0.012191
-0.0221679
0.0343589
0.474493
0.525998
-0.0221782
-0.0198416
-0.00567607
0.124134
-0.711765
0.0798496
-0.733284
0.932166
-0.198882
-0.663349
0.755375
-0.0920263
-0.582413
-0.432371
1.01478
-0.27765
0.362477
-0.0848267
0.457349
-0.466876
0.00952727
0.980863
0.0384712
-1.01933
0.0154208
-0.759895
0.744475
-0.361705
0.922478
0.19236
-0.544116
0.351756
-0.496008
1.13109
-0.824262
0.54453
0.279732
0.217717
-0.226817
0.00909987
0.51085
-1.27123
0.760384
-1.01774
0.32733
-0.604195
-0.435673
1.19395
-0.712823
-0.481124
-0.272691
0.293941
0.123194
-0.130261
0.00706791
-0.745273
-0.123079
0.868352
-0.900608
1.26128
-0.360676
0.918964
-0.687115
-0.23185
0.0852201
-0.249633
0.164412
-0.298081
-0.461557
0.759638
0.209388
-0.406002
-0.624284
0.681414
-0.704948
-0.226827
0.931775
0.0883099
0.0242213
-0.112531
0.147764
-0.613606
-0.141461
-0.0918827
0.874628
-0.0608325
-0.137951
0.108421
-0.132408
0.162222
-0.0298132
0.0211012
0.947682
-0.816429
0.518348
0.126433
0.0533057
-0.179738
-0.702447
0.135013
0.567434
0.279648
0.639316
1.33959
-0.828739
0.777183
-1.34575
0.568566
0.280854
-1.04908
0.768225
0.0292342
-0.403753
-0.486936
0.716375
0.661472
-0.969224
0.420387
-0.825228
0.404841
-1.38884
0.796155
0.592687
-0.0134375
-0.406609
0.177453
0.139531
-0.316984
0.743289
-0.250133
-0.493156
-0.0533566
-0.762971
0.735765
-0.249835
-0.0756538
0.679146
1.05915
-0.860869
-0.198282
-0.0100898
-0.124238
0.134328
0.675133
0.127303
-0.802436
0.262911
-0.37098
0.108069
-0.219466
0.750635
-0.531169
-0.436987
0.734876
0.566397
-0.374037
-0.0594883
0.176711
-0.117223
0.983852
-0.344256
0.0870107
-0.0080321
-0.0789786
-0.00579072
-0.205821
0.211611
-0.102064
0.106027
-0.00396359
1.17394
-0.736347
-0.437597
0.24471
-1.14532
-0.111538
0.00947478
-0.872701
0.281733
0.590969
1.29194
-0.447299
0.247377
-0.980661
1.35546
-0.587969
-0.767487
-0.0116194
0.0999293
0.836043
-0.459741
-0.376301
-0.611223
0.140204
0.471018
-0.933455
0.936392
-0.00293669
0.358569
-1.01578
0.65721
0.0303184
-0.0371003
0.00678189
-0.464697
0.631478
-0.166781
-0.101187
0.351077
-0.24989
-0.141231
0.0579232
-0.115014
0.016056
-0.547057
-0.352688
0.412651
-0.836909
0.424258
-0.00237094
0.264048
-0.261677
0.406585
0.301563
0.752085
-0.331698
-0.00394627
-0.0173383
0.709721
0.582215
-0.490054
0.0125338
0.47752
0.368278
0.467765
0.381622
0.142146
-0.214712
0.212341
-0.282796
-0.0244149
0.307211
-0.000326717
0.218044
-0.795012
0.575546
-0.10524
-0.0428261
0.148066
-0.930817
0.895504
0.0353139
-0.334332
0.504127
-0.169795
-0.218786
-0.104166
0.322951
0.764923
-0.829187
0.0642635
-0.847027
-0.541815
1.28492
-0.817184
-0.467736
-0.0910746
0.0809848
1.11011
-0.751541
-0.447225
0.859876
-0.305641
-0.0711044
0.376745
0.862131
-0.21794
-0.64419
1.10794
-0.323449
-0.784487
-0.41878
0.113139
0.833567
-0.493226
-0.34034
-0.159149
0.783013
-0.623863
0.517317
-1.0652
0.547882
0.243736
0.145499
-0.389235
-0.0533186
0.0153842
0.0379344
1.28933
-1.06996
-0.219365
-0.514898
-0.470861
0.709138
0.350013
-0.850183
-0.0806346
0.139523
-0.145314
0.189429
-0.607475
0.418046
0.00379078
0.119403
-0.539632
1.10974
0.463298
0.710646
1.29825
-0.780642
-0.517609
-0.783347
0.55652
0.717733
-1.20348
0.485744
-0.627689
-0.0390559
0.666745
-0.240931
-0.168667
0.409598
0.539932
-0.200516
-0.0556903
0.182123
0.476412
-0.0330789
-0.471168
-0.670066
0.895995
-0.225929
-0.15248
0.0200717
-0.075003
0.0155147
0.11411
-1.04756
0.360633
-0.797619
0.0837583
-0.18677
0.255822
-0.0690519
0.0162449
-0.119358
-0.499854
0.379125
0.120729
0.348731
0.260295
0.463384
0.0334021
-0.496786
0.492106
0.104493
-0.377307
0.566736
0.570862
-0.0532631
-0.204664
-0.497783
1.07603
-0.847771
-0.228261
0.84098
-0.752888
0.304349
0.448539
0.799623
-0.865346
0.0657224
-0.433735
0.353814
-0.110445
-0.0632312
-0.118359
-0.59462
0.288361
-0.538687
0.250326
0.418061
0.415506
0.694383
-1.13778
0.443398
0.231123
-0.533222
0.302099
-0.972599
0.169351
0.0141509
0.35052
-0.565291
0.862635
-0.297344
-0.253434
0.302068
-0.0486336
-0.409863
-0.0922213
-0.122429
-0.225713
0.348142
0.0787345
0.000889108
-0.0796236
-0.322827
-0.155009
0.376668
0.444639
-0.821307
0.773377
-0.405099
0.281021
-0.449214
0.0154788
0.4628
-0.231677
-0.664766
-0.159496
0.304493
-0.36405
0.0595573
0.975005
-0.327243
-0.465977
0.751513
-0.285535
-0.111688
0.129534
-0.0178457
0.740664
0.0026251
-0.276292
-0.331183
-0.512008
0.930292
-0.418285
0.62448
-1.13266
0.508183
0.590117
0.694803
-0.0112389
-0.0140468
0.0252857
0.0880292
-0.715719
0.658269
-0.994645
0.336376
0.0882515
-0.0104181
-0.0814503
0.631897
-0.354042
0.714675
-0.715238
0.996092
0.188403
-1.01744
-0.879292
0.480329
0.398963
0.636589
-0.0997714
-0.536817
0.934916
-0.169992
-0.486399
-0.527982
-0.468109
0.561904
-0.0350274
0.216607
-0.181579
0.316525
-0.290408
-0.719233
0.637783
0.844067
0.226072
-0.787557
0.321579
1.04134
-0.3322
-0.223426
0.354595
-0.131168
0.0237443
-0.63211
0.608365
-0.902303
0.169578
0.732726
0.72653
-0.72653
-0.33715
0.722384
-0.385234
0.544186
-0.0808021
0.673732
-0.365516
-0.308216
-0.959461
0.995136
-0.0356741
0.334432
-0.0419976
-0.292434
0.256787
-0.107916
-0.148871
0.10497
-0.323756
0.134132
0.455935
-0.90316
-0.860841
1.01393
-0.153092
-0.282821
0.659489
0.107966
0.00247043
-0.110437
-0.0959231
0.0125237
0.0833994
-0.37444
0.403674
1.2334
-1.0028
-0.230598
-0.0819348
-0.528024
0.609959
-0.224781
0.2447
-0.0199196
0.118075
-0.27168
0.153605
-0.9711
0.359542
0.611558
0.0970481
0.0640305
-0.338787
0.115361
0.0219054
-0.112332
0.090427
0.608683
0.680646
0.101189
0.0067772
-0.0423373
-0.290979
0.333316
-0.502761
0.803024
-0.300263
-0.00244104
0.0822699
-0.0798288
0.425113
-0.218055
0.696293
-0.212228
-0.484064
0.00752401
-0.413848
0.140842
0.840021
0.433877
0.294064
-0.727942
0.459995
-0.409795
-0.0501995
-1.0127
0.1868
-0.419461
0.170993
0.248469
0.490136
0.6292
-1.11934
-0.627345
0.588289
0.0449233
-0.914334
0.869411
-0.121475
0.206695
0.225342
-0.246438
0.0210959
0.0241856
-0.306981
0.00598483
0.0396464
-0.0456313
-0.673454
-0.199248
0.618978
0.0600417
-0.00123863
-0.0588031
-0.11701
0.0053223
0.171291
-0.709341
0.53805
0.244784
0.54419
-0.788973
0.413305
-0.712662
0.871741
-0.159079
-0.717268
0.558119
-0.00580936
-0.0252657
-0.390125
-0.283932
-0.25007
0.0642409
0.185829
-0.875456
0.372695
0.669795
-0.75173
0.420837
0.620501
-0.300595
0.30118
-0.000584914
0.407053
-1.07101
0.663958
0.143201
-0.259976
0.116775
0.358746
-0.635039
-0.636467
-0.0268816
-0.305554
-0.0275384
0.0878074
-0.0622058
-0.0256016
0.386374
0.00167309
-0.0263416
0.0246685
1.05631
-0.566175
-0.507923
0.884686
-0.376763
0.260919
0.178393
-0.439312
-0.361659
0.240185
-0.209994
-0.0400767
0.439248
0.234484
-0.194434
-0.723083
0.358731
-0.0542379
0.61593
0.403786
0.167076
-0.94517
1.03434
0.124139
-0.469501
0.345362
-0.0858776
-0.827949
0.913827
-0.249891
0.26126
-0.0113692
-0.26385
-0.0138006
-0.547511
1.06483
0.986844
-0.43726
-0.432629
-0.0672254
0.00859265
-0.407101
0.398508
0.409474
-0.991887
-0.129958
-0.467292
0.59725
-0.0790839
0.139769
-0.0606849
-0.651457
0.0540193
0.597438
0.948467
-0.691498
-0.0171336
0.0789953
-0.0618617
-0.208044
-0.0167372
0.179401
0.358624
-0.538025
0.0967636
-0.122127
0.0253629
0.605118
0.3491
-0.954218
-0.376618
1.13879
0.0765287
0.00220578
-0.271751
-0.58075
0.852502
0.330722
0.709693
0.951495
-0.706711
-0.342903
0.220475
-0.04765
-0.00566853
-0.447154
1.16489
0.136305
-0.766963
0.630658
0.895823
-0.144046
-0.751777
-0.487529
0.712274
-0.224745
0.396032
-0.439043
-0.436727
0.87577
0.0755767
-0.105809
0.0302323
-0.28491
-0.48496
0.76987
-0.098678
0.00275491
0.028343
-0.0405341
0.505576
-0.790486
-0.70666
-0.207376
0.914035
-0.064448
-0.477793
0.542241
0.147765
1.20759
-1.22824
0.0206532
0.204061
-0.146706
-0.0573556
0.00341648
-0.304011
0.257998
0.228247
-0.314499
0.0735673
-0.816744
1.02571
-0.208964
-0.224227
0.118987
0.293495
0.398295
-0.818809
-0.25225
-0.0329131
-0.0295223
0.0624354
0.533582
-0.129796
-0.193221
0.212949
-0.0197287
0.251939
-0.353126
-1.18075
0.576552
0.941491
0.192437
-0.126713
0.244788
-0.198491
0.45941
0.884529
-0.428593
-0.200354
0.00713296
-0.10655
-0.612683
0.202895
0.206942
-0.19682
-0.918621
0.0163174
0.000308757
0.204579
-0.0613779
-0.928123
0.648663
0.27946
0.690825
0.130219
0.180903
-0.058937
-0.121966
0.276065
-0.256486
-0.019579
-0.780252
0.276617
-1.03514
0.523137
0.148126
0.111613
-0.259739
-0.0431762
0.235917
-0.192741
1.01408
-0.00128117
-1.0128
0.1423
0.00810749
-0.150408
-0.134131
-0.25121
0.22036
-0.0211585
0.112128
-0.103683
-0.00844506
0.383846
-0.0551014
-0.328745
0.0313854
0.0807425
0.833111
-0.656794
-0.0287023
-0.136704
0.165406
-1.0212
0.204457
-0.00147558
-0.147875
0.301336
-0.040733
0.100775
-0.00681483
0.00286857
0.237336
0.158851
-0.396187
0.580184
0.242094
0.442588
-0.318449
0.188273
-0.165772
0.0623318
-0.315766
0.616164
0.00954194
-0.625706
0.531409
-0.0331024
-0.498306
-0.57352
-0.361102
-0.278415
-0.0700725
0.348488
0.402768
-0.430087
0.0273194
1.11342
-0.0407727
-1.07265
-0.361322
0.0222728
0.339049
-0.493104
0.657068
-0.163965
0.580464
0.662223
-1.24269
0.214652
-0.380135
-0.267504
0.42588
-0.158376
0.209637
0.0939554
-0.303592
-1.13404
0.635889
0.498152
-0.0867583
-0.0169245
-0.84418
0.137521
0.29446
-0.180567
-0.113894
0.48835
-0.614531
0.126181
-0.0800321
-0.18686
0.186771
1.02082
0.819951
-0.135377
-0.684575
-0.848293
0.135631
0.338099
-0.542763
0.751181
-1.17231
0.421128
-0.0970968
0.274549
-0.00362121
-0.383552
0.341215
-0.155788
0.205797
-0.129543
-0.795748
0.925291
0.470389
0.639721
-0.744855
0.773432
-0.028577
0.0638379
0.0239694
-0.61336
-0.256689
-0.107999
0.120428
-0.0124288
0.519877
-0.253501
-0.266376
0.0189708
0.0241712
-0.043142
-0.0656376
0.553988
-0.777457
-0.104961
0.882418
-0.720756
-0.25107
0.971826
0.47266
-0.345944
-0.126717
-0.168881
0.0181677
0.150714
-0.302921
0.0741328
0.228788
-1.01636
0.0459331
0.970424
0.0256197
0.178952
-0.204572
0.807297
-0.908234
0.100938
-0.520084
0.920456
0.185182
-1.10564
0.0102439
-0.118243
-0.115947
-0.601408
0.717355
0.605334
-1.10134
-0.948224
0.823461
0.124764
0.112351
-0.0155877
0.714339
-0.420844
-0.0457006
-0.244929
0.290629
-0.00840837
0.122591
-0.114182
-0.196884
0.911175
-0.714291
0.747784
-0.410107
-0.337677
1.03648
-0.980892
-0.0555883
0.787323
-0.291924
-0.495398
0.0423599
-0.215775
0.173415
-0.279144
-0.0114793
-0.922226
0.810014
0.112212
0.0529465
-0.975173
-0.259271
0.487285
-0.228014
-0.594888
-0.475076
0.178419
-0.156034
-0.0223846
-0.799104
-0.222096
-0.169674
0.112376
0.0572985
0.0261114
0.2368
-0.881146
0.8514
0.0297461
-0.175134
-0.106903
-0.0241445
0.154084
-0.0117835
-0.601328
0.136631
0.122858
-0.149265
0.026407
-0.823711
0.428853
0.394858
0.354526
-0.0200943
-0.244861
0.687365
0.053299
0.350464
-0.0149005
0.209517
-0.194616
-0.0844393
0.541788
-0.604849
0.389876
0.214973
-0.135213
0.0484542
1.08401
-0.613618
0.919794
-0.512741
-0.244299
-0.151774
0.396073
0.453676
-0.909608
0.455932
0.547636
-0.612084
0.974001
-0.432743
-0.541258
-0.00340337
-0.51003
-0.0948193
-0.661687
0.694268
-0.032581
0.0761794
-0.330856
1.10804
-1.06792
0.268817
0.381403
-0.137667
-0.0877513
0.0421802
0.108902
-0.00287458
-0.492375
-0.508593
1.28572
-0.612483
-0.293136
0.336713
-0.0435776
0.0625796
0.194207
-0.662307
-0.393758
1.05606
0.210792
0.32914
-0.00313952
-0.130331
0.13347
0.82064
-0.274761
0.00426294
0.270498
0.637613
-0.0214497
-0.353679
-1.03133
0.170487
-0.201135
0.0092929
0.191842
0.575384
0.780072
0.551585
-0.394274
-0.15731
0.98237
0.0541101
0.601753
-0.856332
0.254579
-0.830387
-0.0125401
0.842927
-0.751624
0.978765
-0.227141
0.124626
-0.00447496
-0.120151
-0.476104
1.08144
-0.313431
-0.0352882
0.34872
0.0203426
-0.765198
0.144361
-0.0498609
-0.0944997
-0.95986
1.24837
-0.288513
-0.232446
0.529763
-0.297317
1.16167
-0.511101
-0.650574
-0.0101363
-0.592352
0.602489
-0.217047
-0.0293903
-0.526089
1.10655
0.383707
-0.720857
1.1085
-0.484023
-0.17224
0.143538
-0.86882
0.0384322
1.20094
-0.506553
-0.0210484
-1.31523
0.22513
-0.0195273
0.336529
0.525155
-0.861684
0.544254
-0.119546
-0.424708
1.00306
-0.979208
-0.0238539
-0.123133
0.00906258
0.114071
-0.197113
-0.472984
0.670097
0.33864
-0.276309
-0.327844
0.0949068
0.232938
0.117864
0.288606
-0.40647
0.0743804
0.104038
-0.881551
1.03274
-0.151194
-0.223443
-0.0264484
0.447132
0.199509
-0.646641
0.583009
0.518876
-1.10188
0.150117
0.486471
-0.0178126
0.982374
0.00241604
0.783679
-0.786095
0.00589204
-0.00833308
0.080311
-0.00489666
-0.0754144
1.05726
-0.956794
-0.10047
0.447223
0.526778
-0.0875133
0.0411119
0.0464014
-0.288692
0.804197
-0.515505
0.0128688
0.142814
-0.155683
0.534617
-0.875594
0.340977
-0.429695
-0.587999
1.01769
0.844298
-0.169165
0.298819
0.245435
-0.418083
-0.0710937
0.489177
0.279727
-0.807751
0.0526025
-0.346189
0.293587
0.174987
-0.0742142
-0.100773
0.0175739
-0.234621
-0.0687565
0.608229
-0.539472
-0.151221
1.1368
0.76987
-0.616337
-0.153533
0.617672
-0.542263
-0.515602
0.15075
0.364852
0.118747
-0.484263
0.0969971
-0.00809039
-0.0889068
0.0548029
0.1261
0.13743
0.73516
-0.872591
0.207073
0.176774
0.12055
-0.841306
-0.420862
0.161595
0.259266
-0.318317
-0.229637
0.547955
0.465078
-0.227742
-0.839329
0.556508
0.253157
-0.204038
-0.0491196
-0.463459
0.852954
-0.389495
-0.426852
0.434376
-0.427775
0.539041
-0.111266
-0.559511
0.90009
-0.340579
-0.0198639
0.191569
-0.171705
-0.261813
0.218637
-0.29061
-0.565162
0.878773
-0.313611
-0.54224
0.677253
0.49881
-0.502036
0.0032263
0.276055
-0.0265412
-0.249514
-1.25825
0.837888
0.42036
0.00641391
0.219127
-0.225541
0.0625078
0.691392
-0.888276
0.854507
-0.400831
-0.359145
-0.520147
-0.697155
0.699571
0.499231
-0.013685
0.38883
0.119693
-0.508523
-0.313527
0.289072
0.0244549
0.0420298
-0.132269
0.0902393
-0.19692
-0.378309
0.57523
-0.118926
0.479841
-0.360915
-0.751661
-0.259072
1.01073
-0.0200263
0.296081
0.862227
0.195037
-0.815918
0.524167
0.291751
-0.108976
-0.168367
0.277343
0.00333205
0.163876
-0.212924
0.0490476
-0.640378
-0.687259
0.490338
0.121487
0.185321
-0.142961
0.299434
0.220443
-0.0133768
-0.691452
0.0263266
0.263166
0.14092
0.0416979
-0.182618
-0.612941
-0.480179
1.09312
-0.0952251
-0.322858
-0.503567
-0.101232
0.6048
0.121863
0.177154
-0.299016
-0.0119366
1.13115
-0.738816
-0.392332
0.168428
0.651524
0.092637
0.250098
-0.449229
0.199132
-0.490169
1.00249
-0.512321
-0.566708
-0.254232
0.820941
-0.438579
0.171076
-0.410435
-0.105167
0.872403
-0.424669
-0.447734
0.357543
-0.267265
-0.090278
0.384568
0.0449584
-0.429527
-0.15319
0.17881
0.277404
-0.385313
0.107909
0.155072
-0.0236151
-0.195697
-0.0066597
0.465869
0.406534
-0.36429
0.822014
-0.416111
1.11608
0.211371
0.146172
-0.858773
0.292064
0.714284
-0.626255
-0.0952941
-0.616561
0.123457
0.197856
-0.457127
0.724089
-0.700345
0.81691
-0.0172868
-0.183598
-0.103206
-0.279854
-0.065479
0.345333
-0.277505
-0.0329587
0.705269
0.150712
-0.85598
0.0285846
-0.241787
0.213203
-0.00266172
0.366147
-0.817061
0.450914
0.873971
-0.066674
-0.972224
1.03363
-0.0614036
0.204118
-0.12363
-1.07692
-0.18133
-0.325555
0.838399
-0.0283857
0.421069
1.11971
-0.408754
-0.710952
-0.636266
-0.0408928
0.677159
0.21015
0.507563
-0.717712
-0.682222
0.0307646
-0.158673
-0.146517
0.30519
-0.463226
0.599531
0.125676
0.514624
-0.6403
-0.0411019
0.109058
-0.0679559
-0.96386
0.112206
0.851655
0.340307
0.5142
-0.223305
0.560923
0.2264
-0.298682
-0.120779
0.780756
-0.913119
0.0169005
-0.399791
0.38289
0.366941
-0.152289
0.665186
0.0467186
-0.711904
0.714699
-1.13081
0.00906641
0.021252
-0.398255
0.551771
-0.153516
-0.707858
0.591911
-0.0163303
0.262623
-0.246292
-0.377469
0.186566
0.190903
0.0324605
-0.29631
-0.243487
0.581586
0.222502
-0.0743765
-0.136747
0.14699
-0.0711173
-0.299863
0.0182238
-0.0553241
-0.170604
0.164337
0.00626724
0.184212
-0.208854
0.0246421
-0.641818
0.399278
0.134456
-0.638023
-0.0158181
-0.256873
0.0255238
0.535749
-0.561273
0.303581
-0.327996
0.168916
-0.800566
0.63165
-0.279594
0.727155
-0.447561
0.178601
-0.848667
-0.168682
-0.0254023
-0.922822
0.595104
0.690613
-0.738473
-0.100855
-0.457292
-0.295596
-0.389001
0.163288
0.0402913
-0.0185731
-0.0217182
1.21648
-0.641101
0.859934
-0.201664
-0.222771
-0.141637
0.364408
-1.16144
0.497947
0.663497
-0.430259
0.241486
-0.142288
1.06274
0.144213
-0.085156
-0.405426
-0.244739
-0.0686924
0.378869
-0.356928
-0.0219416
-0.115376
0.820645
-0.0815761
0.311026
-0.229449
0.663095
-1.28649
0.58121
0.705284
0.216807
0.195591
-0.412398
0.577892
-0.259985
-0.317908
-0.496759
0.264313
-0.826029
0.0161381
0.36843
0.885879
-0.971757
0.380203
-0.170566
-0.394332
0.674059
-0.869659
0.620663
0.248996
0.577202
-0.919515
0.342313
-0.686735
0.721058
-0.0343227
0.42143
-0.505869
0.0124335
0.234325
0.238335
0.124347
-0.737946
0.315074
-0.987651
0.52969
0.457961
0.232568
-0.868834
0.701561
-0.0452131
-0.56601
0.132528
0.143122
1.0147
-0.334713
-0.679991
-0.246842
0.245599
-0.563916
0.135726
-0.959864
0.918971
-0.780592
0.341549
0.46894
-0.699388
0.383153
0.316235
-0.823273
0.525321
0.297952
-0.237016
0.0159073
-0.0949911
-0.997518
0.695429
0.302089
0.603419
-1.07952
-0.868946
-0.012605
1.15619
-0.405005
0.238446
0.0953781
-0.333825
-0.0196592
-0.121561
0.14122
-0.268347
0.472275
0.527769
-0.432935
-0.266453
0.166464
0.172176
0.222401
0.333003
-0.555404
0.348032
-0.208501
-0.0397941
-1.06383
1.10362
-0.308015
0.406197
-0.767902
-0.567802
-0.414403
0.982205
0.229576
-0.298826
-0.649561
0.201658
0.447903
-0.0280867
-0.0143898
0.0424765
0.72473
-0.854272
0.0642785
-0.462534
0.489001
0.453989
-0.942989
-0.363636
0.0705001
-0.794196
0.222086
0.572109
-0.986748
0.557053
0.511184
-1.00135
0.525674
-0.508774
-0.0254092
-0.00267758
-0.0307561
0.926579
-0.586864
0.725997
-0.139132
0.865161
0.00192053
-0.867082
-0.670572
-0.011828
-0.174942
0.0640446
0.662485
0.102682
0.0268512
0.263358
0.446013
0.0981738
0.481178
-0.0882828
0.130313
-0.829406
-0.0517402
-0.640586
0.278164
-0.737906
0.156438
0.176517
-0.332955
0.786266
0.0464109
-0.832677
-0.0888579
0.0843829
-0.329082
-0.706062
-0.757648
-0.107698
-0.439689
1.15439
-0.314798
0.427943
-0.113145
-0.886406
0.273465
-0.25899
0.481391
-0.299567
-0.628556
-0.424321
-0.306337
0.315864
-0.600975
-0.222736
0.960562
-0.122163
0.594697
-0.284533
-0.310164
0.0797048
0.0970063
0.228117
0.98511
-0.940187
0.00875588
-0.203674
0.291277
-0.470325
0.482859
-0.421262
-0.507464
0.199704
0.157826
-0.35753
-0.763815
0.0372852
-0.109278
0.731473
-0.622196
-0.0688856
-0.903338
-0.678167
0.80547
1.38511
-0.600289
-0.784819
-0.135083
0.306076
0.779575
-0.417244
-0.362331
0.235527
-0.259142
0.041858
0.038453
-0.194687
0.0509323
0.143755
-0.110206
0.499036
-0.487783
1.0912
-0.0300722
-0.125962
-0.254038
-0.0685898
0.322627
-0.0154064
0.740136
0.131724
0.452522
-0.584246
-0.358268
0.537669
0.41102
0.393176
-0.329858
-0.0910036
0.482166
-0.177741
-0.304425
-0.0650109
0.04953
0.0154809
0.140598
-0.78063
0.640033
-0.880475
0.122826
0.197363
-0.458863
0.737027
-0.00722061
0.242747
0.108634
-0.423432
-0.939522
0.471413
-1.0215
0.329844
-0.412264
0.0378245
-0.396453
-0.546963
0.943416
-0.846162
0.154493
0.165718
-0.320212
0.996288
-0.757991
0.771268
-0.561118
0.150419
0.495122
-0.645541
0.203513
-0.362186
-0.587435
-0.146148
0.733583
0.122902
0.0463224
-0.169225
-0.477637
1.05627
-0.578628
0.765
-0.486836
-0.278164
0.677228
0.0212827
-0.69851
-0.531367
-0.755127
-0.29777
-0.00778352
0.34929
0.581903
-0.0127402
0.0744464
-0.0617061
-0.641876
-0.15232
0.654732
0.566066
-0.502592
0.599381
-0.0967895
-0.302487
0.30675
-0.0309489
0.303731
-0.272782
0.207056
-0.288632
-0.115542
-0.881975
-0.823153
0.240724
0.0124335
-0.196351
0.0548896
0.0672855
0.696656
-0.763941
-0.474396
-0.126932
0.437611
0.335766
0.0619163
-0.212429
-0.00533518
0.189891
-0.184556
0.083565
-0.33514
0.251575
0.248619
0.255508
0.265092
0.779949
-0.361888
0.842197
-0.436
-0.0976072
-0.227627
0.325234
0.710941
0.0720716
0.0315454
-0.627833
0.43072
0.32071
-0.336117
-0.505339
-0.582965
1.0883
-0.621656
-0.539788
-1.06626
1.10898
-0.0427204
0.298084
-0.349868
0.284389
0.522648
0.257302
-0.265614
0.0926845
0.17293
-0.281452
-0.553315
-0.0618652
-0.600468
0.662333
0.411618
-0.200826
0.328672
-0.27607
0.550405
-0.879488
0.444243
-0.333156
-0.724488
1.32484
-0.600357
0.606369
0.469081
0.279071
-0.748152
1.0797
-0.628471
-0.451229
-0.488003
-0.65224
1.08981
-0.437569
0.307924
0.286773
-0.253204
0.245983
0.399336
0.762339
-0.182091
0.162432
0.0219841
-0.020311
0.901936
-0.500172
0.436678
0.779807
-0.365826
0.188797
0.177029
0.201135
-0.445434
0.712637
-0.0474517
0.424737
-0.186291
-0.647708
-0.117916
0.765624
0.162542
-0.0301275
-0.132414
0.11505
0.0890109
0.130016
-0.881641
-0.252542
0.276728
0.655377
-0.570683
-0.0846938
0.147408
0.334758
-0.12586
0.0669231
0.223698
0.21177
-0.435467
-0.459289
1.04461
-0.00947615
-0.538099
1.10531
-0.56721
-0.274312
0.392176
-0.0420531
0.00095124
1.04915
-0.52041
-0.329773
0.296165
0.281727
0.267621
-0.28344
-0.137999
0.118135
-0.273703
-0.11489
-0.00212006
0.398845
-0.132925
0.760004
-0.627079
0.110498
-0.088593
-0.319283
0.0743547
-0.286293
-0.0114771
-0.847023
0.575272
0.215356
0.210524
-0.29149
-0.0290579
0.320548
0.268316
0.0371363
0.781016
0.421858
-1.20287
-0.0772178
-0.0182048
0.0954226
0.200597
-0.70852
0.905416
0.479692
0.73342
-0.666135
-1.09939
-0.00259115
-0.0231529
-0.0826789
0.431637
0.22662
0.675653
-0.902273
0.334936
-0.0313552
-0.029946
-0.289853
-0.0759729
-0.479899
-0.414102
0.532849
0.529639
0.355048
0.529583
-0.54726
0.0176766
0.157443
0.00689386
-0.0639579
0.216176
-0.0319648
0.673089
0.16906
-0.842149
0.379922
-0.00105266
-0.193909
0.117098
0.0768111
-0.300757
-0.00205636
0.302814
0.297431
0.551104
-0.848535
0.202259
0.26282
0.643195
-0.0168466
-0.227006
0.611579
-0.165566
0.0346077
-0.0527141
0.0181064
-0.943666
0.507993
0.778393
-0.622962
-0.155431
0.0113138
-0.110458
0.0991438
0.758422
-0.827178
0.48447
-0.0728512
0.344872
0.426395
-0.102424
-0.0124657
-0.416879
0.147269
0.26961
-0.555022
-0.09689
0.998867
-0.510558
-0.48831
0.520632
-0.0896462
-0.430986
0.374201
-0.63635
0.262149
-0.0717198
0.464777
-0.0019774
-0.337937
0.76364
-0.425703
-0.26848
-0.148399
-0.378307
0.155039
0.155986
0.683676
0.00439788
-0.688074
-0.298392
-0.0552189
0.196139
0.0531873
-0.0120754
0.364662
0.187109
-0.162003
0.180974
-0.0111433
0.0122897
-0.13087
0.127559
-0.350726
0.501145
0.0116118
0.19533
0.211272
-0.280877
0.687462
-0.0499999
0.579583
-0.119929
-0.089958
-0.209462
0.43316
-0.181399
0.857425
-0.676026
-0.74391
-0.100271
-0.593292
0.931229
-0.337937
-0.185898
0.340937
0.272561
-0.0552617
-0.0181866
-0.204498
0.222685
-0.766665
0.246256
0.0845734
-0.101707
0.473467
-1.13577
0.34474
-0.92549
-0.421412
0.99154
-0.433345
0.447132
-0.235363
0.0118148
-0.584746
0.725344
0.000257556
-0.124495
0.139967
-0.48591
-0.0827401
-0.550703
0.633443
-0.112613
0.434745
1.23274
-0.807917
-0.424821
-0.189297
0.0570148
0.177372
0.018859
-0.196231
-0.719771
0.132907
0.149102
0.0258847
-0.00591491
-0.097126
0.103041
0.398552
-0.991845
0.0767299
0.397411
0.0243031
-0.421714
-0.949373
0.767973
0.115509
0.0312717
-0.146781
0.306567
-0.871729
-0.111691
-0.00262481
0.114316
0.147875
-0.0323657
-0.00242336
0.643022
-0.492904
0.536696
0.43454
-0.232281
-0.802001
0.234199
-0.605571
0.480821
0.12475
0.551952
-1.05729
-0.443553
-0.267576
0.711128
0.0660254
0.34353
-0.257832
0.215834
1.05263
-0.149932
-0.902695
-0.0103873
-0.819019
0.621018
0.0562095
0.37167
0.407905
-0.126192
-0.00413836
0.11179
-0.244333
-0.294353
0.0494004
-0.0428398
-0.00656059
0.0193358
-0.658791
0.639455
-0.0475845
0.245475
-0.19789
0.363986
-0.898177
0.534192
-0.102374
-0.475872
-0.0290911
0.0230588
0.605006
-0.296361
-0.166046
0.462407
-0.313478
-0.359976
0.382358
-0.224533
0.342525
-0.0440331
-0.298491
-0.447424
0.155935
-0.6493
-0.116547
-0.0172853
0.133833
0.109542
0.261415
-0.370957
0.299425
-0.787351
0.487925
0.0126859
-0.480026
0.147999
-1.10786
-0.368898
-0.726541
1.09544
-0.847538
0.0374347
0.810103
-1.15146
-0.702064
0.0153289
-0.231837
0.237833
-0.00599535
-1.15251
-0.3077
0.98079
0.323774
-0.164923
0.073657
-0.283119
-0.141458
0.404278
0.12043
0.0714235
-0.325461
0.0124296
-0.0974122
0.0849826
-0.201171
0.0751637
-0.0641476
0.0754614
-0.231137
0.447944
-0.874524
0.540975
0.333549
-0.265758
0.210067
0.522461
0.163418
-0.000876284
-0.232832
-0.0327826
-0.422908
-0.226653
-0.467888
0.164051
0.303836
0.0256289
0.311056
-0.336685
-0.347004
0.430569
-0.0651972
0.632631
0.989388
-0.857664
0.485346
-0.798824
0.374989
-0.515525
0.140535
0.0784454
0.000549929
-0.0100695
-0.00397733
-0.935716
0.539263
0.114807
0.405825
0.0127762
-0.159179
0.146402
-1.44619
0.589601
0.0101186
-0.215939
-0.158121
-0.0174946
-0.179056
0.196551
-0.480475
0.184113
-0.965342
0.8498
1.02066
-0.531659
-0.150187
0.13512
0.0150671
-0.0768949
0.0473726
-0.117606
-0.9179
0.282204
0.635696
-0.109669
0.0914641
-0.053318
0.239178
-0.18586
0.296677
0.187792
0.165185
-0.143117
-0.0220683
-0.218382
0.229994
0.0866608
0.00159076
0.50349
-0.777451
0.938108
0.0442624
-0.537478
-0.127892