/*--------------------------------*- C++ -*----------------------------------*\
| =========                 |                                                 |
| \\      /  F ield         | OpenFOAM: The Open Source CFD Toolbox           |
|  \\    /   O peration     | Version:  2306                                  |
|   \\  /    A nd           | Website:  www.openfoam.com                      |
|    \\/     M anipulation  |                                                 |
\*---------------------------------------------------------------------------*/
FoamFile
{
    version     2.0;
    format      ascii;
    arch        "LSB;label=32;scalar=64";
    class       volVectorField;
    location    "5.9";
    object      U;
}
// * * * * * * * * * * * * * * * * * * * * * * * * * * * * * * * * * * * * * //

dimensions      [0 1 -1 0 0 0 0];

internalField   nonuniform List<vector> 
13486
(
(6.96767 -1.83872 2.4152e-20)
(7.19226 -0.0957829 1.35635e-20)
(8.56528 -0.435961 0)
(-0.82808 -1.80897 1.4706e-20)
(10.8832 -2.45237 9.27977e-21)
(8.88283 0.422712 -5.43985e-21)
(12.5381 -1.97152 6.45264e-22)
(9.22029 -3.41888 -1.39441e-20)
(8.89196 -2.06903 0)
(7.46073 1.23311 0)
(-1.45884 6.15194 -3.26452e-21)
(9.37144 0.982749 0)
(6.63028 -2.53182 -2.34046e-20)
(8.44853 1.66052 -8.0042e-21)
(11.7218 -1.21489 3.79437e-21)
(7.35384 1.26016 -1.41522e-20)
(0.977588 -0.499748 -3.2257e-22)
(4.9417 5.84746 -7.24698e-20)
(8.59063 0.313983 2.4955e-22)
(7.3827 -1.15806 -2.58517e-20)
(-2.69067 -5.34568 1.00123e-21)
(6.68065 -2.57037 3.01527e-20)
(7.23692 -0.105354 -1.08652e-20)
(13.8462 -0.979452 0)
(7.77522 1.02665 5.33053e-21)
(13.8176 -1.00761 -3.22628e-21)
(1.29455 -0.451052 2.74095e-22)
(10.4817 -0.162138 -1.19037e-20)
(-1.53027 -0.819479 0)
(10.5555 -0.743694 7.20995e-21)
(-6.69161 -8.72371 -8.06358e-21)
(11.7497 0.819298 -3.99978e-21)
(11.3331 0.765028 -2.30531e-21)
(9.60699 -0.456761 0)
(9.28622 -3.30787 0)
(9.8444 1.14057 -1.19481e-20)
(6.16768 -2.6018 2.84991e-20)
(7.54419 -3.5278 1.27136e-20)
(9.60888 -0.864747 5.25051e-21)
(8.84384 -1.37637 1.36397e-20)
(11.281 -3.79004 0)
(5.9142 -2.85281 -2.71699e-20)
(9.63072 -0.107378 0)
(7.82703 0.867341 -2.48046e-20)
(7.83434 0.882046 1.02013e-20)
(9.2173 0.92098 1.07268e-20)
(-0.457439 -0.873401 -2.93118e-21)
(1.19146 2.17564 -8.80956e-21)
(5.48812 -2.44197 -2.19527e-20)
(9.99047 0.252639 -7.66422e-21)
(7.97999 0.0293612 1.95039e-20)
(8.63159 -0.427683 0)
(9.58154 2.13181 -1.44097e-20)
(7.82621 -3.04132 -1.84302e-20)
(-0.0926487 4.78562 0)
(10.7393 -2.46119 -6.17142e-21)
(11.595 -5.50287 -1.74233e-21)
(9.1508 -0.644166 2.00447e-20)
(11.1719 0.827661 -3.32007e-21)
(6.94749 -4.8801 0)
(-1.4929 8.27059 -8.3926e-21)
(6.30711 -5.19758 0)
(10.5039 2.45279 3.69792e-21)
(-3.19372 -5.69464 2.64875e-23)
(2.73 -5.10066 0)
(5.47096 -3.10703 1.36911e-20)
(-2.03287 -0.276282 1.14259e-20)
(6.74555 -1.0191 8.35723e-21)
(8.90238 -2.16726 -7.55098e-21)
(6.83735 -0.229459 -1.09598e-20)
(-2.04661 -0.333544 -1.31935e-20)
(-0.330268 5.28347 -3.13344e-21)
(8.59593 -0.868274 1.04123e-20)
(-1.55791 -0.214257 1.76108e-22)
(5.59111 -3.65821 2.79799e-21)
(11.7234 -6.53118 5.6993e-22)
(5.916 -3.67207 -8.00474e-21)
(11.7802 -1.33066 -1.61759e-21)
(-0.296401 -0.0897298 1.57714e-21)
(8.81165 -0.609529 0)
(12.473 3.05043 8.17474e-21)
(6.95579 0.0599406 -8.75511e-22)
(10.2003 2.54396 -1.48091e-22)
(8.60086 -0.40725 -4.3587e-21)
(6.97204 -1.85966 -4.70384e-20)
(5.7188 2.53823 0)
(6.74591 2.43556 1.37421e-20)
(7.98922 0.0685097 -3.09219e-20)
(7.6525 0.0118743 -1.22829e-20)
(6.87198 1.69241 -1.85666e-20)
(11.4182 2.20426 -1.6805e-21)
(9.79985 -2.94673 -7.45165e-21)
(7.22067 -2.14865 6.23043e-21)
(7.33231 -0.682228 6.97314e-22)
(8.62291 -2.86204 3.02212e-21)
(3.09889 4.30909 4.06574e-21)
(1.08349 -0.537806 0)
(-4.74127 0.0500944 -5.92402e-22)
(8.85998 -1.33311 -2.60965e-20)
(1.20201 -0.654662 -3.47635e-23)
(12.9527 1.13652 0)
(8.39978 1.64516 -3.18342e-21)
(-5.71343 -0.376746 1.54848e-21)
(8.76267 -0.601353 -2.36574e-20)
(5.35813 2.26608 0)
(1.38721 -0.67371 -4.39123e-23)
(7.99578 -0.129415 -7.3482e-25)
(9.75785 -0.753476 1.17667e-20)
(-0.171614 -0.437371 -1.74158e-21)
(9.42115 -4.30785 0)
(7.83559 -3.67583 0)
(13.1575 0.0430865 2.31477e-21)
(7.85067 -2.97143 1.1169e-22)
(15.2965 -2.08697 -1.33063e-24)
(5.80917 -1.55477 0)
(7.70734 -3.62587 -1.13628e-20)
(7.68243 1.09293 0)
(9.91753 -0.387573 0)
(8.59301 -0.851301 0)
(5.87329 -1.17576 1.58443e-20)
(5.39342 7.33226 2.51045e-20)
(-2.8847 8.00284 0)
(8.47906 -2.65893 0)
(9.26866 -0.816259 -1.64387e-20)
(8.8015 -3.236 0)
(8.85631 -0.503054 0)
(9.97446 -1.15106 3.11481e-22)
(8.34028 0.185122 1.48021e-20)
(9.3938 -0.358502 3.55607e-21)
(5.1851 -4.84531 -7.40197e-21)
(8.37965 -0.416331 2.70319e-21)
(-0.822627 -0.854491 8.21361e-22)
(2.8586 1.3371 9.07621e-23)
(-0.993383 0.29966 -4.2609e-22)
(7.99577 0.0109648 -3.10057e-21)
(7.53732 0.560945 -1.62585e-20)
(4.31773 0.266824 -7.33031e-21)
(9.0561 -4.04371 0)
(4.86084 -1.13191 -5.03744e-21)
(9.34933 -2.83445 -4.95418e-21)
(10.6172 0.748277 5.80649e-21)
(9.78292 2.3451 1.22713e-20)
(10.7563 1.31276 0)
(8.19446 -0.297867 0)
(10.44 -0.0803491 1.72185e-21)
(10.3385 3.25383 1.31869e-21)
(7.06122 2.50356 -6.37233e-21)
(2.92303 1.27278 0)
(10.0136 0.384146 0)
(1.66554 -3.74234 0)
(8.00285 0.0331001 4.06555e-22)
(11.6819 -1.82549 0)
(13.1389 2.68035 -8.55568e-21)
(6.9012 0.037881 -7.3827e-21)
(8.23061 0.658632 0)
(9.55999 -0.615879 0)
(9.23603 -4.08651 0)
(6.5979 -5.6781 5.12321e-21)
(8.2358 -3.35478 2.69316e-20)
(6.94831 -5.96635 1.12162e-20)
(9.28012 0.169928 -7.37643e-21)
(8.25862 -3.2872 -4.05307e-20)
(13.4339 3.30326 -5.51356e-21)
(5.22854 -2.66121 1.19358e-20)
(8.97701 -0.552444 0)
(8.71447 1.74113 8.63968e-21)
(8.3183 1.48083 2.00361e-20)
(4.16756 -1.86803 -2.83753e-20)
(7.21347 2.58802 1.61885e-20)
(-1.00087 0.322945 -1.42228e-22)
(-2.38607 1.76874 7.78235e-22)
(8.22959 0.57915 1.09798e-20)
(8.01025 0.120313 -2.86693e-20)
(10.5419 -0.454147 5.02257e-22)
(11.2346 6.58609 5.96248e-21)
(-6.94499 1.03782 0)
(8.20347 2.37597 -1.5819e-20)
(10.6386 1.1244 -7.22569e-21)
(8.03102 -0.150228 -2.86813e-20)
(10.4996 1.29191 0)
(9.11241 -1.5324 2.76493e-20)
(15.5913 -1.30771 -3.67799e-22)
(10.8087 0.0942901 -2.01113e-22)
(-3.30358 2.38152 0)
(7.19389 0.390425 1.02151e-20)
(9.90413 -0.117588 5.50552e-21)
(8.80683 -0.0319981 -2.65588e-21)
(10.1517 -0.656501 3.13246e-21)
(11.0693 -3.97917 0)
(7.08934 -3.41291 -1.52389e-20)
(5.32535 -2.0182 0)
(9.42039 -0.231178 0)
(9.05432 -0.537242 0)
(5.77627 0.9684 -1.61042e-20)
(9.57512 -0.534769 0)
(-2.36695 6.11851 -1.02461e-21)
(2.72487 -4.97015 1.60022e-20)
(9.29095 0.101544 -3.79931e-21)
(6.72713 -3.29061 -5.6138e-21)
(8.66858 1.61767 6.52589e-21)
(-6.3703 -8.2251 1.22301e-20)
(8.34335 0.231971 -4.71054e-22)
(7.43877 -3.56128 -1.47326e-20)
(10.3441 -4.17407 3.23092e-21)
(7.70985 -5.93817 -1.37187e-20)
(9.17182 -0.532088 1.24113e-20)
(0.676138 0.760558 -4.6966e-20)
(8.1917 -0.699101 2.12161e-20)
(9.6623 -0.646319 0)
(7.53316 0.189203 0)
(10.3294 -0.25823 -1.01258e-20)
(13.4349 -2.74722 9.39861e-21)
(7.42875 -1.05738 2.37561e-20)
(7.99403 -0.0980059 3.28512e-24)
(8.95561 0.511597 6.27335e-21)
(9.86056 -2.18245 -3.11964e-21)
(10.6623 -0.605114 0)
(6.96506 1.69501 4.19235e-20)
(7.51928 -2.17156 0)
(9.88071 2.07745 0)
(1.21613 -0.549336 6.37204e-22)
(9.96661 0.453885 0)
(9.28235 -2.82037 1.16277e-20)
(10.3125 0.223298 0)
(8.8791 2.60485 -3.03067e-21)
(6.65052 -3.14092 8.67284e-21)
(9.09844 0.954404 6.34342e-22)
(-7.44574 -7.10692 4.96821e-21)
(9.70222 -1.29626 2.08061e-22)
(7.24364 2.58372 4.55584e-22)
(9.13033 -1.49498 -8.88543e-21)
(9.59725 -2.28329 5.25102e-21)
(10.7175 0.781612 -7.46564e-21)
(5.87377 -2.85468 9.25565e-21)
(-6.85833 -2.80354 0)
(6.18331 -3.01001 1.03744e-21)
(9.95528 -0.586424 -7.05429e-21)
(9.59552 -0.271465 -3.61202e-21)
(6.3056 -3.01586 2.84096e-20)
(10.3305 0.22506 0)
(11.5082 0.856422 0)
(7.96603 0.113548 4.42778e-20)
(13.7513 -0.363825 0)
(5.97605 -2.96004 9.57015e-21)
(9.6246 -0.862696 1.12859e-20)
(7.71139 -0.509527 0)
(9.91768 0.202532 -2.73981e-21)
(11.885 -0.918238 1.79659e-21)
(-0.272686 -0.343691 -1.37462e-21)
(7.77402 0.784107 0)
(-6.65759 2.45599 -1.85549e-21)
(5.70349 -1.47514 3.42187e-21)
(7.20224 -3.51468 1.45488e-20)
(9.61476 -0.748676 0)
(8.94859 -0.974962 -7.32677e-21)
(-6.02557 1.9013 4.20051e-21)
(11.9592 0.883199 2.87425e-21)
(10.238 -2.27839 3.94212e-21)
(6.62723 -5.39719 -5.36555e-21)
(11.6173 0.690693 -4.81751e-22)
(7.45312 -0.089591 0)
(10.3689 -1.21459 -1.93194e-22)
(11.768 -1.16514 -8.98424e-21)
(-6.98828 1.68922 -5.24457e-21)
(10.3035 -3.40943 -9.64417e-21)
(-3.10449 2.67422 0)
(9.3306 -1.14164 1.09949e-20)
(-6.33899 -7.77879 -6.29599e-21)
(8.6673 -0.134774 -1.28178e-20)
(7.41398 7.83347 0)
(6.39044 1.20915 1.35906e-20)
(7.97148 -0.0664743 -7.96033e-21)
(10.4959 -0.755345 0)
(9.03424 1.53982 9.46559e-21)
(6.84865 -3.25188 1.1621e-20)
(11.5622 -1.22368 -1.04271e-21)
(8.91836 -0.651403 0)
(-8.71114 -4.91555 0)
(9.7156 -0.648051 1.18438e-20)
(7.14023 2.53444 1.22295e-20)
(-7.10493 -4.74869 1.12814e-21)
(9.45721 -0.946067 -1.03915e-20)
(7.95236 -0.157931 1.7001e-20)
(10.147 2.02653 -8.29215e-21)
(-3.81211 7.69099 9.59468e-21)
(1.37993 -0.906752 -1.32458e-22)
(10.4476 0.917569 -8.23183e-21)
(8.93402 -0.399426 -4.67609e-21)
(9.50058 2.67651 5.42513e-21)
(8.54269 -0.142866 0)
(-6.19895 -2.60596 0)
(8.37945 -3.34893 -1.08357e-20)
(7.62209 -3.57995 1.13805e-20)
(7.99775 0.0171551 -3.02227e-21)
(9.71144 -0.553025 -7.71785e-21)
(10.0424 -0.646511 0)
(9.62143 -0.0377905 9.24987e-21)
(8.81506 1.36447 -8.99334e-21)
(7.96041 -0.232514 -1.5423e-20)
(11.8632 -2.69991 3.6679e-21)
(13.3069 3.98214 6.87732e-21)
(-0.406511 1.19288 1.61015e-21)
(7.54571 2.32784 -1.04219e-20)
(11.9326 0.587477 3.96148e-21)
(5.49098 -1.58981 -5.62775e-21)
(8.85223 -4.37162 0)
(-0.10993 -0.392798 0)
(9.11058 0.117278 5.25465e-21)
(7.3204 1.74978 -1.18916e-20)
(5.88454 -2.20987 0)
(7.20741 4.71429 6.18363e-21)
(-0.0175179 -1.05039 0)
(7.94536 2.25251 9.06956e-21)
(13.1088 0.0542222 2.71976e-21)
(4.20347 6.36233 0)
(7.50506 0.451971 -1.017e-20)
(10.9505 -4.18815 1.5827e-20)
(7.63602 -0.012532 -1.0373e-21)
(8.15217 -0.682196 -2.35912e-20)
(9.39301 -1.10317 0)
(5.86794 -2.9948 -2.42812e-20)
(10.0445 -2.95641 1.05258e-22)
(8.03865 -0.0552986 3.63662e-21)
(7.25329 -0.566296 -1.32496e-20)
(4.62877 0.00413804 1.33661e-20)
(11.7316 1.94528 3.79023e-21)
(10.4065 -1.6249 -2.86207e-20)
(9.52483 -0.925755 0)
(7.90362 1.21424 -1.01047e-23)
(10.5852 -1.64318 -5.33382e-21)
(7.99124 0.0139224 4.46825e-20)
(9.93482 -2.96868 0)
(11.7661 2.71483 1.27683e-22)
(6.54479 -0.0951524 0)
(12.7662 -2.24204 -3.32078e-21)
(8.89071 -2.67886 -8.34242e-21)
(4.88457 -2.40315 1.10501e-20)
(11.5947 -2.01082 -7.1592e-21)
(7.9457 0.294064 0)
(9.39112 -1.03658 1.8677e-20)
(9.31369 -1.13257 -1.03094e-20)
(7.26489 -0.549521 1.25293e-20)
(10.6897 -1.64369 2.05253e-20)
(10.7384 0.0920384 1.08224e-20)
(-5.48437 4.98335 -4.50394e-21)
(-0.359541 1.52533 4.09594e-22)
(10.0045 -0.688779 0)
(5.73283 -2.38279 2.64045e-20)
(9.86447 2.04871 0)
(10.6279 -3.33256 2.51705e-22)
(9.67865 -0.280643 1.87092e-20)
(8.38029 1.4631 -1.12912e-20)
(9.11517 1.55672 8.29582e-21)
(0.949099 -0.376348 -6.73055e-22)
(7.9777 -0.201032 1.92118e-20)
(6.04873 0.730609 0)
(-1.34904 -0.595561 1.66117e-22)
(9.98218 -1.13116 -6.25556e-21)
(7.15349 1.65717 7.15445e-21)
(12.3972 -2.73623 5.471e-21)
(9.89892 0.280869 0)
(11.184 2.66447 3.77454e-21)
(7.57709 -0.275038 2.90189e-20)
(7.96843 -0.0756571 2.42124e-20)
(10.4559 -0.930044 0)
(13.9082 1.94802 -1.78579e-21)
(9.87507 -0.549659 6.62532e-21)
(-1.61944 -1.72034 -1.35573e-22)
(7.33308 -1.15035 3.28666e-21)
(9.93058 -0.972181 5.9666e-21)
(9.83395 -0.0582818 -8.33139e-22)
(9.99283 -0.677656 0)
(8.50066 2.67564 -1.29989e-20)
(-6.73615 3.20039 2.36174e-21)
(8.67445 0.955348 -1.17664e-20)
(7.99116 0.0200526 1.62851e-20)
(6.47136 0.0158837 0)
(9.38678 -2.04476 2.24141e-20)
(4.08584 6.92821 0)
(10.1408 2.85024 2.19907e-21)
(8.75061 -0.174198 0)
(9.90423 -3.35221 -2.29287e-22)
(6.64728 -1.57399 -6.61216e-21)
(6.56572 1.03185 3.09715e-20)
(-0.999085 -1.33682 1.7986e-21)
(9.24497 -0.868726 0)
(8.61542 0.136151 -1.61843e-20)
(7.97673 0.302995 -1.26753e-20)
(1.64352 -0.758875 2.77317e-22)
(-2.33937 -7.62571 1.42759e-21)
(7.51598 -1.10141 -3.61541e-20)
(10.5743 -0.583289 -2.54531e-21)
(8.10279 0.348379 1.06933e-20)
(7.22985 -2.59268 0)
(6.42922 -0.386482 1.3911e-20)
(5.3685 -0.910398 1.53679e-20)
(-1.16817 -1.03957 -8.52559e-21)
(-6.77639 2.60436 -7.73818e-21)
(1.82575 -0.540419 5.15906e-22)
(10.5178 0.932467 0)
(1.89642 -0.689926 0)
(7.24248 2.24659 0)
(9.21034 -0.466213 0)
(3.22479 -2.83372 -1.90392e-21)
(12.6285 -1.8558 0)
(6.94772 3.20842 0)
(7.36953 -0.594253 5.19087e-21)
(10.692 1.1247 7.42434e-21)
(9.84235 -0.685319 -1.44317e-20)
(7.22217 0.0417387 4.81313e-20)
(8.00002 0.0643903 -6.44572e-21)
(7.3956 3.74564 0)
(10.6399 -0.307979 0)
(7.94046 -0.232665 1.6414e-20)
(8.08889 0.0373035 2.91172e-21)
(5.47046 0.878179 0)
(-3.69187 2.48787 3.70408e-21)
(10.2496 -3.49802 1.08182e-20)
(-1.56145 -0.368227 0)
(10.279 0.244262 1.1567e-20)
(8.04253 -0.0985765 -1.91995e-20)
(12.9517 -0.803339 2.6104e-20)
(5.70961 -2.34472 0)
(7.97335 0.315473 2.23776e-20)
(9.282 0.634482 0)
(10.0391 -0.556496 0)
(8.3502 0.411771 -2.19036e-21)
(7.92079 -0.152007 8.99257e-21)
(1.18333 -0.464034 -3.57739e-22)
(8.28497 1.41447 6.26552e-21)
(6.81811 -2.27411 -1.15994e-20)
(9.04702 -0.4273 1.85382e-21)
(8.1342 0.388464 8.68489e-21)
(9.21852 2.69495 3.61138e-20)
(10.6878 -3.41173 0)
(11.7434 -0.61412 -3.4543e-22)
(6.60858 -1.37821 0)
(9.16568 -2.82224 -1.08689e-20)
(10.4912 -0.48395 0)
(6.8019 -0.97464 1.80734e-20)
(-0.475058 -0.750309 1.23499e-21)
(10.7181 -0.509801 0)
(-0.620608 0.295269 -1.7325e-23)
(10.7972 -0.361127 4.91474e-21)
(9.10377 4.14563 1.21664e-20)
(8.19106 -1.7068 3.41071e-20)
(6.14235 0.900493 -1.89653e-20)
(6.77828 -2.25384 -3.2929e-20)
(10.3626 2.82162 0)
(5.04317 -1.52149 -1.52506e-20)
(-5.10986 5.37301 -1.29635e-20)
(7.952 0.303337 0)
(7.59938 -0.00163639 1.13646e-21)
(9.59283 0.152604 1.58324e-21)
(8.76718 2.5997 0)
(7.99884 -0.00894366 0)
(-5.25013 2.53754 0)
(-5.96337 0.296703 2.02961e-20)
(7.81918 2.17688 9.82067e-21)
(9.69715 3.5941 -3.98985e-22)
(7.93295 2.12037 0)
(7.85001 -1.44061 2.319e-20)
(11.6169 6.83457 -1.31383e-20)
(8.30619 1.30612 -1.53905e-20)
(-1.3708 -3.52478 -9.6136e-21)
(7.76307 0.00249363 0)
(1.86013 2.23984 0)
(4.91236 -1.77502 -1.75853e-20)
(7.15054 -2.57909 -8.25608e-21)
(8.7592 -1.12983 0)
(8.56223 -3.98298 -1.13921e-20)
(11.198 -0.165143 8.7088e-21)
(-3.47371 1.9115 -5.3553e-21)
(5.27271 -2.55558 0)
(9.24158 -0.60171 -9.12006e-21)
(5.92401 -0.745763 -1.49468e-20)
(9.34805 0.626776 -1.07754e-20)
(8.83848 -2.78488 0)
(1.19818 -0.918001 2.25631e-22)
(8.65978 1.42671 9.82173e-21)
(7.97568 0.171153 4.37768e-21)
(6.48483 0.637926 -1.169e-20)
(8.87406 1.73927 0)
(7.22847 0.0234556 -1.28547e-20)
(9.9276 1.75461 4.08904e-21)
(1.55382 -0.455807 -1.12729e-22)
(7.98688 0.072838 0)
(-2.19214 -7.57971 -1.46472e-21)
(4.17116 -1.68415 0)
(7.96075 0.0989127 -1.78589e-20)
(7.96796 0.0414124 6.52457e-21)
(7.9596 -0.41885 -3.16802e-21)
(-6.6146 1.01688 0)
(8.01326 -0.24273 -6.45475e-21)
(5.55405 -0.212334 3.68058e-20)
(10.513 -3.38529 0)
(7.3218 -0.67216 1.57188e-20)
(11.9532 -2.98143 -4.2188e-21)
(8.61084 0.0208891 0)
(-6.58852 -7.70931 3.46485e-21)
(9.05547 -0.407704 1.8532e-20)
(9.93576 -0.0358107 0)
(1.33467 -0.768587 -6.47351e-22)
(7.58894 -0.0371611 0)
(8.37675 -3.82095 1.12275e-20)
(-7.27957 2.35777 5.3405e-21)
(7.9075 0.345023 2.63035e-21)
(8.99916 0.414006 1.06838e-20)
(6.43605 -0.435148 7.25516e-21)
(8.21115 -1.81336 -1.25468e-20)
(9.04511 -0.673413 6.3499e-21)
(8.49372 -3.77739 9.56723e-23)
(9.88304 -0.991039 5.73935e-21)
(8.81948 1.72019 -1.60296e-20)
(10.0015 -4.4829 0)
(7.99987 0.0171887 -1.44455e-20)
(0.460545 -0.0318538 -7.8265e-22)
(6.69412 -1.39621 0)
(3.06245 -1.77667 4.56213e-21)
(6.44621 0.0972807 0)
(6.45027 -2.34496 2.8488e-20)
(9.71485 -3.61097 0)
(11.2275 -0.540053 1.89888e-20)
(9.9323 -0.270479 -1.0739e-20)
(-7.36455 -7.93652 9.06327e-21)
(-5.18495 2.43066 2.37475e-21)
(9.9473 0.265859 -1.26605e-22)
(8.79768 -4.18385 1.11628e-20)
(8.43298 -2.66522 1.21379e-20)
(7.21839 -2.15291 0)
(-0.663739 0.756317 -1.19867e-21)
(10.7957 -3.22087 -2.21096e-21)
(-0.51229 0.876774 -1.43095e-21)
(-2.11612 0.127549 4.58295e-21)
(7.24221 -2.9631 0)
(8.82448 -0.00471985 -1.58963e-22)
(-3.49218 2.74502 0)
(-6.35738 0.103735 2.12881e-21)
(12.8331 -0.149757 -3.21879e-20)
(8.29004 -5.8699 0)
(9.62706 -2.60916 3.71659e-21)
(2.14309 -4.51635 0)
(8.80107 2.5175 0)
(8.0233 -3.81011 -1.47348e-20)
(6.63525 -0.202561 1.17121e-20)
(2.64345 0.673471 0)
(7.55772 -0.196214 -8.09956e-21)
(9.43217 3.4714 -1.75876e-21)
(-6.79521 3.85882 1.25693e-20)
(8.71912 3.36076 0)
(8.56627 -0.0348893 0)
(-4.57843 5.2977 -5.68898e-21)
(8.32104 -0.959222 0)
(7.90729 -0.129906 0)
(-2.52617 8.69942 -4.73096e-22)
(9.51175 -1.93638 -1.78831e-20)
(8.24248 -2.31758 1.03545e-20)
(11.952 0.600791 -5.23316e-24)
(-0.85176 1.07453 2.81753e-21)
(7.96946 0.0314848 7.38497e-21)
(7.36868 -2.21824 0)
(8.0883 0.945807 -5.13371e-21)
(6.92429 -1.76321 0)
(7.11235 -0.0725251 0)
(7.99862 0.200366 0)
(8.36977 0.393365 -1.80347e-21)
(8.12836 -0.709448 1.08045e-20)
(12.402 -0.0281745 -2.58671e-21)
(7.5192 -2.24165 0)
(1.07178 -0.436583 -4.00798e-22)
(7.22145 2.13086 1.14947e-20)
(8.79443 -3.26222 1.1802e-21)
(9.41227 -0.567705 8.62517e-21)
(11.543 -1.05154 -9.73453e-22)
(8.13144 0.0393642 -1.10968e-20)
(-0.552135 -0.706836 0)
(8.92283 1.38956 0)
(6.01958 1.01046 0)
(6.46231 -2.98367 -2.08035e-20)
(-9.94547 -7.16171 -1.70499e-20)
(8.21511 -3.79702 0)
(8.12563 0.949376 0)
(9.42455 2.75413 9.6953e-21)
(8.38981 -0.101313 -2.95378e-21)
(7.38165 0.99663 1.87513e-20)
(10.6351 -4.19976 0)
(-1.74532 3.23501 -3.26334e-22)
(8.71892 0.155949 9.97149e-21)
(7.02906 -2.4812 -1.95388e-20)
(8.36965 0.184198 -1.23034e-20)
(8.25058 1.31031 1.88574e-20)
(11.0611 -1.28838 1.51137e-20)
(6.36382 -2.93372 3.58498e-20)
(8.23913 -2.69836 -5.59549e-21)
(15.0942 -1.71068 2.73915e-22)
(7.99757 -0.00633168 -3.43968e-21)
(7.75179 -3.77182 -3.43019e-21)
(8.57277 -0.000506103 -8.61416e-21)
(5.54672 3.6749 -1.23658e-20)
(8.33695 -3.92099 5.94636e-21)
(7.55916 0.997325 0)
(7.50763 3.25219 -3.00623e-21)
(8.66234 -0.0290379 -2.26587e-20)
(9.42333 2.01096 -3.57583e-21)
(6.91884 -2.36879 -1.77655e-20)
(8.72415 -3.16546 -1.25573e-20)
(9.07831 -0.0161688 2.94743e-20)
(11.5223 -0.184055 -1.69383e-20)
(7.66864 3.89229 -1.05921e-20)
(10.3751 1.00886 4.3411e-21)
(6.13599 -1.8039 -3.8427e-20)
(8.58102 -0.0279746 -2.03723e-20)
(6.10768 -1.99673 0)
(-7.31994 -6.61977 -1.97466e-20)
(9.05122 -0.0189648 2.71736e-20)
(9.16024 -0.524006 -4.11114e-21)
(-1.34196 -0.596837 0)
(8.99591 -4.08992 0)
(7.80423 0.737939 1.82447e-20)
(5.69554 -1.80801 2.35639e-20)
(1.55746 -4.56877 -2.96621e-20)
(9.96259 -3.30712 -6.63114e-21)
(10.5054 -1.65588 1.56737e-20)
(9.9837 2.02619 0)
(7.77937 0.793028 1.05588e-20)
(3.84282 4.58078 -1.03134e-22)
(8.33355 2.31731 -1.44667e-20)
(9.00426 -1.45318 -1.56062e-20)
(-1.27533 1.45041 -4.66676e-21)
(11.274 -1.28769 1.6773e-21)
(11.9661 -0.662473 8.45109e-22)
(7.66611 2.54868 0)
(9.75194 -1.07425 4.3844e-21)
(7.9589 -0.402216 2.83266e-21)
(12.2506 4.41506 8.41117e-21)
(5.28086 -2.66075 3.29132e-20)
(8.90818 -1.49746 2.35038e-20)
(7.9012 -6.20665 -6.547e-21)
(-6.71125 3.14058 -5.91459e-21)
(9.8244 -0.274564 4.8159e-21)
(8.70724 0.059664 1.83034e-20)
(-2.80103 6.9592 -1.04027e-21)
(8.14773 2.19517 2.74332e-20)
(1.22387 -0.783354 7.03381e-22)
(6.42455 -3.10268 -1.12536e-20)
(15.0244 4.38756 0)
(13.0898 -6.08148 1.20924e-21)
(-5.24567 5.83068 -9.86016e-21)
(6.62461 -1.65189 3.53617e-20)
(10.5476 0.677301 0)
(12.8707 4.34105 -5.81186e-21)
(6.24378 -2.73375 8.08266e-21)
(7.97762 0.0346079 -3.17978e-20)
(-5.37045 3.88715 -4.51504e-21)
(3.87047 1.12279 6.70357e-21)
(9.92247 -0.719146 9.89426e-21)
(8.52723 0.174676 2.46263e-20)
(8.45363 -3.85949 -1.56382e-20)
(14.204 -0.453342 2.98439e-21)
(-7.78106 -6.72418 -3.56888e-20)
(8.4462 -0.0270023 2.12692e-20)
(8.97239 -0.380868 -8.03872e-21)
(8.27443 0.237699 -9.26621e-23)
(10.4323 -0.0441021 -1.76317e-20)
(6.11653 -2.79541 -1.55723e-20)
(14.7531 -0.828537 0)
(-6.77199 -0.821464 1.38347e-20)
(8.57807 0.0431814 2.14293e-21)
(13.0181 -0.991368 2.68575e-20)
(9.47869 0.105185 9.95302e-21)
(10.2039 -1.82454 -9.66049e-21)
(7.98753 0.0582746 -2.79028e-20)
(8.06688 0.596309 6.39083e-21)
(-3.7276 2.76661 -3.80731e-21)
(8.41285 -0.191432 0)
(10.186 -1.98474 -1.15792e-20)
(8.10909 1.48066 1.15729e-20)
(7.27608 -2.91647 0)
(8.25732 0.177026 1.49631e-20)
(7.71243 1.22062 1.57234e-20)
(7.82058 -0.332173 2.01901e-24)
(11.8187 -4.44104 -1.55753e-21)
(9.1824 -0.554802 0)
(7.32148 0.272828 2.51664e-20)
(8.45762 -6.07954 8.06317e-21)
(8.15781 -3.80995 1.27366e-20)
(9.00515 -1.02508 0)
(6.6811 -0.2534 -3.378e-20)
(6.85335 7.32151 1.75631e-20)
(8.01569 3.39395 1.50125e-20)
(6.19314 -1.84561 3.75131e-20)
(10.4828 -0.0599777 3.63113e-21)
(-5.44732 2.57791 2.52121e-21)
(8.48936 -0.817298 -1.68328e-20)
(11.5973 -0.266702 1.16984e-21)
(7.57437 -0.263805 -1.66079e-20)
(9.95175 -0.0943201 0)
(7.99799 -0.0109242 -1.29265e-20)
(-2.12259 -0.251575 9.06354e-21)
(-1.51245 0.00980241 0)
(13.2731 -2.11789 0)
(12.6892 4.61629 0)
(1.23722 -0.456703 0)
(7.96352 0.534709 0)
(5.94133 -1.78597 0)
(10.2031 -1.95346 -3.98457e-22)
(10.7374 3.32708 -1.15059e-21)
(9.14368 1.02418 0)
(7.29504 0.158356 3.7022e-20)
(5.3577 7.4939 7.91838e-21)
(8.0933 0.386722 1.29739e-22)
(-4.30117 7.15403 -3.82618e-21)
(5.86062 -1.1454 3.4169e-23)
(-4.36126 3.1032 3.34292e-21)
(8.39678 0.111042 -8.14695e-21)
(9.88627 0.257386 -9.28541e-22)
(7.92712 0.486004 -1.25232e-20)
(7.66633 -0.0447066 -2.40688e-20)
(7.15192 1.81075 -1.94121e-20)
(10.2098 2.91372 0)
(-1.56699 -6.36656 3.70505e-23)
(6.50632 -2.39528 -3.11973e-20)
(8.02933 0.0267457 -3.85473e-20)
(10.8424 -3.15599 -1.3185e-20)
(9.89092 -0.096486 2.81537e-21)
(12.5416 -2.98133 3.00018e-21)
(9.7761 -1.47377 -2.09022e-21)
(9.68204 -2.57018 -1.29824e-20)
(7.98783 0.28196 1.3138e-20)
(9.16898 5.67902 0)
(9.15566 -0.564778 6.20781e-21)
(7.44806 -0.654231 -4.94196e-21)
(13.0279 -1.51584 0)
(9.35722 -0.641266 0)
(8.81751 -3.98913 -7.39144e-23)
(-5.57122 2.18591 2.90595e-21)
(10.0795 -2.01155 1.17746e-20)
(8.03744 -0.708838 0)
(8.26879 -0.700793 -2.22756e-20)
(7.52233 -0.0589735 -4.53111e-21)
(-8.00477 -3.16162 7.09295e-21)
(7.32443 0.545532 9.71294e-21)
(-4.8858 3.30918 0)
(-2.1533 -6.78611 -3.17503e-22)
(8.185 1.06247 0)
(9.56381 -1.15553 -5.6079e-21)
(11.1792 2.57132 -3.08625e-21)
(8.00899 0.0174698 -3.26774e-24)
(8.32456 1.49081 -3.54442e-20)
(8.70012 2.93451 -5.19746e-22)
(8.22151 -2.60898 2.50276e-20)
(-3.14028 -8.1934 0)
(1.16766 -5.67687 -1.53035e-20)
(-3.30559 -0.0372641 0)
(9.27183 1.05439 3.66313e-21)
(-7.503 -1.95257 9.59227e-21)
(14.4034 -2.23998 8.57732e-21)
(10.5169 -1.87637 1.17975e-20)
(-5.31969 2.80289 -2.71501e-20)
(7.37238 -3.42882 -1.47104e-20)
(6.6655 -2.39727 -1.82629e-20)
(4.63492 -1.00964 -5.31993e-21)
(2.45143 -4.2661 1.26174e-20)
(6.13451 -2.81591 1.27604e-20)
(6.86232 -2.47903 1.99288e-20)
(-8.68165 -6.41696 2.24561e-20)
(6.1623 -5.60929 -7.32211e-21)
(8.66743 -2.86958 1.25591e-20)
(-1.22169 -1.10704 -1.06594e-21)
(11.3729 0.0579428 2.40191e-21)
(5.10562 7.83104 -7.41363e-21)
(8.48135 0.987976 -8.87432e-21)
(10.6538 -2.58473 0)
(1.3005 -0.485546 9.75841e-22)
(8.33685 -0.0254601 -2.39345e-20)
(7.95746 0.156842 0)
(9.22107 0.978064 0)
(-5.99045 -6.29111 -1.19275e-20)
(12.2812 0.387684 -2.65438e-21)
(8.8652 0.589908 -2.37178e-20)
(9.49524 -1.8943 2.34901e-20)
(7.19473 1.8029 1.6729e-20)
(7.81768 -0.0227843 1.9745e-20)
(-8.45329 -0.79164 -1.76185e-21)
(7.13425 0.870434 0)
(6.99662 -2.5658 1.90577e-20)
(-0.310758 3.39525 -2.52116e-22)
(-5.88172 2.16487 2.0717e-20)
(8.2084 -3.23712 4.16391e-21)
(9.19074 -4.3431 -3.8061e-21)
(8.72912 -0.0134637 1.0166e-20)
(9.63373 -0.880529 -5.96815e-21)
(10.2787 -0.948155 -8.09727e-21)
(-7.65818 -0.697529 -7.05706e-21)
(8.8242 0.562499 1.78922e-20)
(7.99339 -0.216792 9.57046e-21)
(6.06723 -1.97786 -1.5395e-20)
(8.31279 -0.863655 1.36013e-20)
(7.42834 4.12953 0)
(8.7202 0.94066 2.04054e-20)
(8.02612 -0.117457 2.16226e-21)
(7.16772 -2.04752 -6.21403e-21)
(6.15611 3.41134 -1.18848e-20)
(8.55317 -2.83603 9.25437e-21)
(8.1219 -0.0442262 4.10596e-21)
(6.51926 -0.805241 -2.42154e-20)
(12.7291 -1.57302 0)
(10.4332 -2.10027 2.14084e-20)
(8.37267 0.20789 1.66379e-20)
(9.86621 -0.696999 0)
(6.70681 -1.07159 1.36541e-20)
(7.63708 0.529638 0)
(5.63801 3.33177 4.03824e-20)
(11.0242 -0.0956303 0)
(9.2967 -0.824945 0)
(9.32365 0.734701 5.31639e-21)
(8.85875 0.43326 1.34983e-20)
(10.045 1.23305 8.08697e-21)
(7.79978 -0.00390638 -1.13481e-20)
(6.11885 1.74078 -1.0129e-20)
(7.99238 0.108116 -5.50748e-21)
(8.01683 0.565332 0)
(1.16378 0.859323 1.10904e-21)
(9.11241 0.434315 -1.22718e-20)
(9.53844 -1.10812 1.23812e-20)
(10.6715 -2.58677 0)
(9.49242 1.97022 -4.38236e-21)
(7.05183 3.55698 -2.19728e-21)
(11.8028 -0.00169509 9.19799e-21)
(2.35883 2.07157 0)
(-0.965579 8.66377 9.93658e-21)
(8.04845 0.303197 0)
(10.4627 -0.673186 4.24609e-21)
(-0.19394 -0.212068 0)
(7.21618 1.51991 0)
(6.57446 -4.01556 0)
(9.52733 -3.59312 0)
(-1.76696 5.2276 -2.57786e-22)
(-6.31656 -0.292876 -4.40668e-21)
(8.1211 -0.706444 -1.61762e-20)
(-6.87462 -7.21783 -8.52834e-21)
(6.46773 -2.89159 0)
(-7.53121 -6.9593 -1.02408e-20)
(-0.562038 -0.282904 1.36339e-21)
(7.6552 -3.58629 0)
(7.26929 -2.78552 -2.06476e-20)
(6.83947 -4.09847 2.81284e-21)
(8.45732 0.929284 2.35448e-20)
(11.3698 -3.86709 3.90848e-21)
(7.67067 -0.107626 0)
(10.3208 -3.30708 0)
(10.4385 1.94384 -1.69747e-21)
(8.95547 -0.0512652 -2.12451e-21)
(6.51094 -1.74847 1.14894e-20)
(-7.82273 -8.36911 5.37467e-21)
(8.00467 0.0179902 9.58579e-22)
(13.6484 -5.71683 1.67701e-22)
(7.99369 0.285701 1.87816e-20)
(9.04411 -2.53927 -1.13315e-20)
(8.86165 -2.63094 0)
(0.946048 -0.0376359 0)
(13.3068 -0.00850948 0)
(6.68343 0.520012 0)
(8.07945 -1.94745 9.11247e-21)
(10.3629 0.43141 0)
(-2.30893 6.96672 1.05086e-20)
(7.19059 -2.72638 -3.66545e-22)
(6.75847 -2.51706 -2.98966e-20)
(6.20163 7.55313 -2.46267e-21)
(-7.3387 -2.02288 -7.17402e-21)
(-0.627355 6.99344 -3.88478e-21)
(8.96856 0.0407559 3.24277e-21)
(-7.4301 1.51757 -7.86393e-21)
(8.94289 -3.10515 -1.68791e-20)
(9.48658 0.569758 0)
(11.2455 -1.34854 0)
(5.69539 3.94567 0)
(10.1646 -1.95276 5.10956e-21)
(4.67016 -4.73916 0)
(7.12654 0.889677 0)
(8.00131 0.0218888 0)
(8.30353 -2.30503 9.77128e-21)
(8.08985 0.342537 -2.13584e-20)
(7.03552 -0.0153916 0)
(10.311 -1.81638 9.01384e-21)
(7.88418 0.256852 -1.55892e-20)
(8.36529 2.19993 3.0276e-20)
(7.76375 -3.5712 1.28403e-20)
(7.28553 1.10091 1.02246e-22)
(7.561 -0.546499 1.64903e-21)
(9.78979 -0.558157 -1.16403e-20)
(9.30811 -1.12197 1.23407e-20)
(8.78113 0.463528 -1.83673e-20)
(6.40247 -1.17159 2.62635e-20)
(7.74973 -0.399899 -1.59656e-20)
(8.37819 -0.0175535 0)
(13.5629 0.0576906 -1.98683e-20)
(7.97309 -0.0885311 1.77552e-20)
(2.78862 5.07678 3.50795e-20)
(9.71817 -1.39466 -6.12884e-21)
(5.78514 -1.87384 -2.56324e-20)
(8.79101 0.384256 3.13148e-21)
(9.95725 1.72226 -5.91536e-21)
(7.9889 0.131924 0)
(7.1703 3.25513 -6.77563e-21)
(9.01974 -1.01472 6.14829e-21)
(9.07582 -0.959055 -2.01605e-20)
(-1.98914 -4.21689 1.09684e-20)
(8.30517 -0.105551 8.82248e-21)
(15.0239 -1.41102 -6.73143e-22)
(10.5977 0.0206068 -2.72554e-21)
(12.8278 0.215376 0)
(9.19624 7.25928 0)
(7.27948 -3.46375 1.57289e-20)
(-5.27467 3.5474 4.87695e-21)
(13.3145 2.64537 1.52671e-21)
(7.98463 -0.10036 3.51491e-20)
(7.17765 3.05571 2.02923e-20)
(6.64026 -0.366543 0)
(7.65892 -0.4288 0)
(7.62785 -2.13199 -1.29521e-22)
(8.89738 0.452413 8.40652e-21)
(7.39349 1.04476 2.7397e-20)
(10.6636 1.08171 0)
(8.30301 -0.285424 0)
(9.82833 -2.83454 1.82852e-20)
(8.87164 -0.980336 1.29064e-20)
(5.49037 -6.65369 -5.74136e-22)
(8.95814 -0.388415 0)
(5.95306 1.03129 -1.87853e-21)
(10.3673 -1.92546 8.28748e-22)
(-5.56945 5.35362 -1.01342e-20)
(8.47971 -0.35841 -1.84504e-20)
(12.5773 2.69207 0)
(12.2924 0.579148 2.15189e-21)
(4.12663 1.71539 -3.27573e-20)
(4.27382 -4.60965 0)
(5.90101 0.0749705 3.49473e-20)
(7.84451 -0.136682 -1.15621e-20)
(6.83802 0.557582 4.82821e-23)
(11.9025 2.34971 1.87619e-22)
(7.66689 7.33805 -1.45337e-21)
(8.75778 0.0469619 0)
(5.77872 -2.43945 -1.34268e-22)
(7.1996 3.26865 -1.82757e-20)
(5.5071 6.09347 -1.58376e-20)
(7.93437 0.501893 1.48295e-20)
(-2.63445 -6.94995 3.98792e-20)
(8.14613 -0.0343804 -4.15778e-20)
(8.05726 -6.21786 3.19547e-21)
(10.3412 -1.02483 -1.24227e-20)
(8.16969 -2.18774 0)
(9.31042 0.00490181 2.11954e-20)
(6.06167 -2.88114 1.02785e-20)
(9.7488 -0.277442 -2.04927e-20)
(8.02095 -0.0950111 -1.59456e-20)
(10.2453 -0.78698 -4.55493e-21)
(7.68282 -1.41156 3.36218e-20)
(10.8954 0.130668 -2.80163e-21)
(7.65097 -0.38235 9.26703e-21)
(3.92192 -2.12337 1.30726e-20)
(11.7397 0.730204 7.06162e-22)
(8.15816 2.3807 2.33351e-20)
(3.59649 -4.67495 2.31625e-20)
(8.88626 -0.0168618 0)
(6.11556 2.86619 0)
(5.0042 -3.65236 0)
(6.73687 -2.41486 2.29937e-20)
(7.92431 0.0280017 -2.54068e-20)
(7.46886 -0.0765963 0)
(7.30761 -2.0831 -1.85352e-20)
(7.47452 -0.154868 0)
(8.09254 -1.7949 -1.51497e-20)
(9.45891 -1.2096 1.30853e-20)
(8.75833 -2.48575 -1.38264e-20)
(8.86371 0.0465924 0)
(8.02442 -0.246048 0)
(9.31101 -0.54324 -8.81912e-21)
(9.11154 0.884928 -6.31084e-22)
(10.05 0.117905 -5.65168e-21)
(7.2143 3.83614 -6.56821e-22)
(11.2084 1.48468 0)
(8.24384 -3.15551 -6.93312e-21)
(-0.975234 0.538978 0)
(4.19435 0.861379 -1.50374e-20)
(8.7864 2.95152 0)
(14.4008 -0.587357 2.10062e-21)
(6.16537 -1.72384 9.98698e-21)
(7.16316 -1.45768 1.05448e-20)
(8.15955 -0.357842 8.4174e-21)
(7.47876 -3.2065 -5.74743e-20)
(8.78265 -1.14949 3.23547e-20)
(7.96326 0.540218 -1.28452e-22)
(11.7133 -3.11196 -3.56215e-21)
(9.18736 -2.17158 -7.13505e-21)
(-0.551923 0.425526 -2.01552e-22)
(9.02856 1.3125 0)
(8.02982 -0.0328759 8.55607e-25)
(7.41916 -2.27956 0)
(9.93746 -0.935428 1.27476e-20)
(8.31623 -3.14386 -3.64955e-21)
(7.71174 -1.30778 -1.10056e-20)
(12.8297 1.71304 1.98292e-21)
(9.68559 0.235226 9.83981e-21)