/*--------------------------------*- C++ -*----------------------------------*\
| =========                 |                                                 |
| \\      /  F ield         | OpenFOAM: The Open Source CFD Toolbox           |
|  \\    /   O peration     | Version:  2306                                  |
|   \\  /    A nd           | Website:  www.openfoam.com                      |
|    \\/     M anipulation  |                                                 |
\*---------------------------------------------------------------------------*/
FoamFile
{
    version     2.0;
    format      ascii;
    arch        "LSB;label=32;scalar=64";
    class       volScalarField;
    location    "3";
    object      p;
}
// * * * * * * * * * * * * * * * * * * * * * * * * * * * * * * * * * * * * * //

dimensions      [0 2 -2 0 0 0 0];

internalField   nonuniform List<scalar> 
13486
(
16.4895
14.462
-0.542912
-40.4512
-4.24438
-1.52271
-9.2445
2.25452
6.96713
8.53586
-25.696
0.659945
17.2708
-0.129648
-4.13265
8.83447
-23.4221
-0.589808
1.06567
14.732
-38.8669
16.9918
14.1673
-35.6661
7.22868
-35.6844
-30.8472
-12.1975
-0.0691296
-14.8974
-37.3614
-1.22635
-17.0216
-9.02791
2.33575
-0.0563995
-1.46044
10.2168
-1.36493
7.76886
-15.1692
18.3001
-0.0596969
7.23869
7.15114
0.636155
-57.5035
-0.0302044
-1.45663
-9.31287
9.94651
-1.76283
0.591595
10.7381
-3.77268
-3.65804
-6.61104
-1.6538
-17.5571
-2.36718
-30.0084
-2.46561
-23.9643
-38.4965
-136.07
-1.68973
-41.7974
17.5718
6.76773
-1.0784
-41.559
-2.25603
8.93411
-36.6919
-2.34894
-5.92376
-2.06276
-4.6412
-48.9289
-2.42134
-0.0246025
14.9603
-23.7721
-0.439209
16.5024
7.9635
0.149929
9.56962
11.8104
10.0773
0.124527
0.303172
15.0208
14.6129
7.00731
-0.0155127
-31.8277
-44.4662
7.73218
-25.7368
0.0409393
0.385312
-46.3274
-1.70649
10.6663
-26.9174
10.6846
-1.32585
-53.9656
-1.64567
5.31057
-3.40067
10.7134
-1.6388
21.3931
5.86009
7.54516
-7.28157
9.07685
-1.13892
-0.788641
-29.433
8.12445
-1.394
5.15043
-1.66648
2.62615
3.30631
-6.07698
-108.179
-1.66182
-61.2545
-43.9501
-25.0989
10.2333
10.5419
22.1316
-1.25654
-1.08519
3.16448
-13.8181
0.545997
0.185092
-2.36355
-0.60631
-7.86036
-0.967317
19.0578
-9.76204
-0.0141056
7.05965
-6.4223
0.0157049
15.412
4.16703
-0.70366
-4.53615
-23.5027
7.92776
-1.33675
-6.75316
7.91936
0.785027
18.092
-1.77198
-2.60899
1.54626
25.9026
-0.787681
-25.3185
-46.4033
4.1848
8.30342
0.743917
-0.0358759
-71.1241
-0.978908
-14.4242
10.6279
0.270195
6.4544
-1.32557
0.210901
-28.2241
-0.265244
-12.1283
-0.00891116
-11.6452
-14.6246
7.2036
-1.36616
-0.977693
-1.8719
17.8848
-2.13819
-26.1494
-112.913
-6.96599
12.837
-1.71049
-39.1502
3.17026
10.2043
-7.38372
-1.24193
-2.28271
-5.80696
10.7176
-1.86134
-0.288555
-11.8129
-56.4482
14.5336
10.7031
-1.53424
-9.93751
-14.8707
10.1841
13.564
-16.7397
-24.052
-9.79882
3.57805
-7.1099
0.485136
14.8459
-3.469
-67.8883
-5.62727
0.148236
6.32323
-34.3876
-14.3926
18.9747
-47.6624
13.7825
-9.87365
-0.86818
14.0723
1.12715
-18.4048
8.20593
-0.91966
12.491
-1.09804
12.5928
1.67978
-26.2793
-28.4473
7.97323
-42.9124
21.7054
4.9253
-1.3885
-3.40036
-70.3621
-0.930387
-10.2619
-19.1178
-17.9847
13.0328
-1.10839
-3.88295
-68.5384
-4.37832
-28.9771
-5.70585
-41.6101
8.57514
1.59028
14.4003
10.6602
-15.0794
0.500206
14.9118
-24.3074
-3.44606
-24.648
-1.4148
-0.675962
-25.805
5.01133
11.0199
-28.1671
-31.373
-32.4471
-13.1065
-6.77226
0.519268
8.73354
-46.335
-1.34816
6.90684
10.1466
-9.27104
-11.0457
-6.99969
0.450087
11.0933
-13.3457
1.28926
-5.83867
-0.729958
-1.31684
-1.17208
-8.02166
-35.4797
1.65763
0.102252
-1.34133
-19.7563
-39.6322
1.12477
-2.86886
-13.4746
10.719
-1.3237
11.8683
10.9163
-6.66354
-1.60294
-1.23469
10.5846
14.87
23.023
0.0283443
0.1051
4.75614
0.125233
-0.73676
9.63682
-0.404389
0.392701
17.3287
-9.72371
5.98811
21.9871
-6.07262
7.75707
-1.07537
-6.10957
14.733
-1.21806
0.151274
-30.989
-0.0402709
2.51243
20.7376
-17.0475
-1.29576
3.0582
0.282511
0.480054
-31.5157
11.0003
-0.414687
-32.0039
2.62763
-0.0403973
-46.6956
1.12103
0.659868
12.8244
10.7044
-15.5379
0.0109939
-10.5193
-69.437
15.0056
2.8967
-0.19046
2.71957
0.436469
-41.7865
-0.16276
9.89299
10.5741
-1.18377
-11.0431
-22.754
8.20647
-1.33972
18.1559
14.6862
-67.5731
-3.74828
1.2327
7.62111
-28.6238
-29.7425
14.1217
-14.5618
5.57773
14.535
18.3408
-1.03176
-40.8076
-41.0786
-25.1373
-13.6112
-28.2837
5.39825
6.72928
-28.3597
-8.59674
0.752429
14.4608
-14.4355
3.28865
13.9215
7.1067
-3.89168
-14.6692
11.1881
10.5083
16.9981
-28.2287
-4.01308
-58.4876
1.14717
10.6433
-4.25449
20.8396
8.14146
-4.80847
-11.6203
3.16081
11.0745
-31.1342
2.09592
16.9739
6.84148
5.43408
0.466739
-6.4576
-22.3971
18.2438
-1.29976
0.940138
17.248
-58.5032
-14.927
-23.0117
-15.2243
-0.427678
10.7998
16.386
17.1183
-22.0602
-1.21633
-31.317
8.0013
12.0479
-9.58924
-6.26088
10.5342
-35.1838
-78.569
-26.3558
-10.3675
1.7166
12.6178
-0.0599615
2.26002
-38.8959
11.1548
0.00339575
23.9084
14.9531
8.23864
1.2847
0.0223378
-0.039201
21.8007
-4.11704
-1.03659
-5.07716
6.09022
-32.4735
0.419206
8.52234
-0.576455
-3.73071
14.1227
-14.3613
-23.0457
7.95682
-29.8412
25.6116
8.03291
10.0023
11.5627
-68.7518
-0.112279
20.8078
-5.68841
14.7498
-12.4435
3.8876
-43.6989
-2.10214
-0.184504
-30.1133
12.1578
5.53571
-45.3816
0.00423413
-2.06231
18.4261
10.7852
-3.75958
5.92552
3.1255
-3.36335
-4.42535
9.97541
-53.7015
17.8978
-1.34767
-1.06841
18.3356
-1.2294
-0.115191
3.1761
-49.02
-38.3405
1.20414
-2.53939
8.36892
15.0769
-27.6431
-6.61662
-28.6588
-0.0432327
13.7666
3.48585
-29.0328
-46.8284
-1.07631
-22.1046
2.12207
-134.584
-6.30462
5.96403
17.0494
-1.62849
12.7517
-9.1148
-40.4197
-8.86698
5.16334
-30.2863
10.3166
-0.215255
-33.4244
3.88089
9.88634
-19.726
-28.1893
10.0711
14.2908
4.95113
16.7374
-0.311892
8.14785
3.2044
11.008
-0.562524
13.567
-31.545
5.80353
5.08188
-6.54013
-23.5718
10.3632
-58.2994
0.47318
16.5716
16.7519
-70.6747
-15.0901
4.54927
0.581956
7.08103
9.95346
-10.0347
-28.0607
0.46413
15.6849
2.44431
2.44067
-101.12
16.882
-28.4615
-1.32942
10.4496
0.72904
-2.17071
0.404752
2.51582
0.00650585
0.164034
4.88356
-10.1498
16.3416
5.64226
3.59153
4.28753
0.942174
-12.904
20.1572
4.1451
20.0362
-63.9935
9.21538
-0.052481
-33.7425
-2.9237
7.84857
21.5517
-148.935
-1.8186
-0.368709
-18.2947
7.81248
-3.01105
-1.79843
7.11
-28.5095
-22.0206
-25.0473
1.71403
-8.53102
11.4391
-0.0478935
18.7094
7.37894
-1.81474
-39.7722
-11.1081
4.26608
-29.8013
0.0876997
-28.9185
13.5799
0.0120844
-4.83047
-46.82
18.2159
-0.00294186
1.80614
18.1077
9.95908
-30.7495
-1.29744
3.03717
1.44292
4.82561
-0.82298
-87.1704
4.79511
7.14949
4.03008
5.63451
18.5004
-1.13737
-69.5633
10.3537
-2.2009
-2.21385
0.744703
8.77568
6.03535
-29.4113
-0.166648
-1.16877
0.260956
13.7309
4.13012
0.108627
-0.395179
-17.1754
-2.54903
12.892
-1.93428
4.21715
7.08632
17.2147
0.270539
-4.7503
19.9227
-0.0445235
-36.0799
9.45721
-21.0651
12.9815
-0.574505
10.4439
-30.7298
-25.8513
-46.0701
-0.0143359
-22.265
7.12917
20.804
-11.4447
-13.0673
-4.03271
13.0795
1.13015
5.80398
-42.4064
21.1807
-29.5269
2.18669
-9.91761
7.59388
11.7135
7.19576
-17.949
-35.2044
18.0273
10.6146
-6.95167
7.10097
-18.3648
3.27104
2.04218
7.5132
-22.9848
-3.33196
14.0679
-7.36169
-1.54903
2.00697
-39.5692
-12.336
-1.41398
10.3945
12.606
-64.6028
-0.173903
-30.1933
-36.5746
0.0312856
-8.50418
0.465511
10.4247
1.46216
-7.16884
9.55604
-21.8206
-91.3215
-3.78409
-5.22557
-60.6203
-49.4196
-1.15681
-66.3733
4.70098
17.4187
-1.09774
-88.0366
18.1432
16.4586
-63.0514
-107.028
6.66237
-70.177
-0.853521
0.81325
1.44823
-3.55959
-23.126
5.59016
8.23714
-4.65734
-40.3726
-24.1864
-1.12629
4.09892
7.66457
3.21097
-61.8588
11.8608
15.705
-24.6731
-65.2869
8.3133
-9.36996
3.65913
-1.32265
-13.9772
-61.5891
-0.930828
10.9337
20.188
10.3415
0.949573
-0.339096
10.6002
15.4149
-0.0468548
7.34541
9.91362
18.5046
-7.49145
-1.23555
2.26405
-5.55951
17.7243
-0.140596
4.87566
3.80551
-3.21149
0.685483
-0.66006
-11.7436
11.0601
12.9916
8.44963
6.51141
-19.2536
-2.95311
-7.53895
-3.4894
-10.8869
-2.3472
-0.664879
-91.5973
-34.2639
6.79353
-13.695
-28.7418
-24.361
-32.5972
-0.044166
-28.0105
-79.7569
11.1757
-52.9762
16.9025
-72.6543
-30.4111
9.48217
14.0156
-2.52399
1.68518
-12.8813
11.9791
-3.68672
-18.2979
-1.91239
-1.19943
-35.8184
10.4601
-5.28213
7.43543
-1.23034
6.2457
-31.4479
-0.791545
-0.407696
11.1371
-12.3299
-28.0642
-108.818
16.828
0.925476
-76.5222
-23.0595
9.82399
-60.2393
-1.24226
0.603979
-2.85194
1.00547
0.607267
-131.559
11.562
10.5001
9.62811
5.95043
-1.05688
-13.3593
9.2344
-1.52998
9.83571
10.0377
-2.39886
-1.36023
-4.21269
-0.330432
-1.15304
12.4601
5.14216
-2.9253
10.7245
-2.39398
3.59704
21.2212
-0.718487
-14.8861
8.26921
0.103076
-1.37679
-4.65646
-39.0181
9.77391
-1.11894
-0.0372078
-0.537849
1.50495
11.5361
-30.6306
0.0124647
10.7384
0.532756
17.491
12.7591
13.1297
0.622146
9.58167
0.301495
-0.346805
0.623495
7.74979
-31.2033
-6.64132
-31.1193
-21.7156
-46.5178
9.21372
-13.2501
-22.99
-96.1762
-30.1637
-0.53182
11.2625
-0.118509
0.334137
-23.2475
10.551
20.4467
0.528052
-20.6621
7.47409
-19.5744
9.47554
-1.64682
-1.14397
10.4337
-1.91306
18.5877
3.43469
10.5864
-12.8373
13.3562
-0.900146
12.9011
-1.54326
-19.9043
-0.992353
-149.066
3.07037
0.615434
-31.1366
17.1182
10.568
12.8719
14.7156
13.0416
11.1644
-7.52053
7.02421
10.5952
10.8313
-5.53827
-3.62531
-11.4413
-5.41427
-0.0862442
8.31279
-24.9119
22.1677
-7.40959
-1.04704
20.1293
15.7283
-6.54413
-117.731
8.11699
7.04645
-19.0738
5.28317
-23.1417
-3.95449
10.5593
13.9488
-1.22944
7.89148
13.2559
0.0240141
-6.23982
13.9502
1.26674
-1.2332
-29.7773
-0.494487
-11.4633
10.946
11.4352
-1.53202
-25.8093
-19.017
-0.463954
-1.38408
0.63044
17.1868
-1.58516
23.2427
9.35169
1.07997
11.0204
-31.1716
-28.4084
-58.9764
9.83933
-1.26043
-21.6812
-36.5872
6.18844
8.02077
-1.07183
-0.781698
-74.3734
-2.4379
1.15161
-1.20704
4.61955
0.395525
12.4064
11.0879
12.5026
7.25626
-6.14484
-17.5557
-11.9638
-0.245372
-79.6748
0.837676
4.36682
-50.5496
-1.06415
-1.79627
1.69928
-45.2598
3.85936
7.06392
-1.29446
-21.8583
0.505843
-9.11653
-21.9697
0.395108
0.560051
7.88181
8.78848
11.5126
-24.0656
10.064
-0.691231
14.896
2.17828
6.80161
1.98987
-0.946818
18.3669
21.4093
5.38215
-4.59152
8.56622
4.95133
18.5543
-0.317247
-15.6784
-42.2523
0.516715
-6.12383
-27.2922
10.5081
8.9341
0.872398
-11.5721
1.92923
7.08596
21.261
-9.98112
9.54948
-27.8758
-4.65466
16.8612
-4.27928
3.28061
-54.8668
6.58249
1.32607
22.623
-0.391576
-11.6236
6.31924
0.417697
-29.8682
-23.0559
0.959809
12.8973
-0.934309
-4.05051
16.4872
15.0663
-2.44498
-19.976
-0.39229
3.09938
9.18489
8.3279
13.6503
2.83094
-17.8348
15.0008
4.01243
-17.8806
1.36623
12.022
11.0338
-19.5398
-32.8619
0.0305343
9.80514
17.652
2.13225
1.69232
-11.9441
21.3912
-25.0523
-13.3513
18.9127
9.92566
0.902206
3.7015
-41.5813
-1.57781
-27.6442
-24.1219
-1.11936
-57.93
0.817179
-13.5446
-67.7751
-22.955
-19.6556
-15.8126
-25.8401
-41.2917
13.3667
10.9043
-4.97394
-73.8285
-0.877533
2.91155
-6.4461
23.0314
-1.03553
-10.6416
9.93851
-16.3086
-59.007
1.83237
1.50705
8.94547
23.7002
0.00375944
-4.07423
-41.1772
-0.228486
-0.236783
5.17956
-3.85475
15.1553
9.76195
11.3936
-45.8449
-1.80368
-0.937983
6.8013
10.606
7.12298
11.155
21.4011
19.83
-16.3403
9.97563
13.9107
-10.596
13.4664
-1.39076
19.4207
13.2952
0.783878
12.8605
6.71701
1.37169
-1.09392
12.2289
-16.248
5.49057
-5.96775
-1.52427
-1.64546
9.41463
-1.35166
0.0451956
18.3367
18.1781
0.467794
-23.9555
0.644074
-18.1396
-3.48098
10.2769
15.2112
-23.735
10.9259
6.00927
1.27129
6.8053
-48.1143
-54.2944
-1.56621
22.6459
-4.7511
-0.539152
13.9617
-1.81154
-3.51076
6.19422
0.504727
9.21432
-8.16743
-12.3948
2.82266
1.94423
-0.865714
0.859145
20.5161
15.5526
10.6192
19.9276
17.7708
-2.58764
-1.49672
-5.34429
-8.75329
18.2296
-52.236
8.04926
4.86498
-34.4426
-2.16479
10.7873
-121.158
1.41617
9.03839
23.9599
-30.9493
1.16747
0.939757
8.53381
-0.752364
-49.6366
17.6926
12.9736
6.25219
9.79601
-20.6275
-6.95093
-30.7432
19.7559
-1.76481
22.4343
-24.8192
1.825
-49.3533
-4.77617
-27.9603
0.564761
-1.51378
4.46211
0.193869
4.46111
-50.7045
-0.017598
-55.0371
-23.6243
-11.522
-18.7877
0.0844183
-2.80074
-36.2038
-31.5163
6.159
6.57389
17.2528
10.5015
0.10195
1.20495
26.1414
7.74492
-31.8039
-0.0555576
-0.553569
9.33287
5.69916
15.173
-11.9352
-12.1609
1.489
-0.0223035
0.746039
14.9801
-24.6547
-32.9622
-30.4518
20.1242
-43.1137
3.76301
12.8398
-23.9448
2.54827
-1.15204
-29.4702
-28.862
-1.64243
8.46337
9.76579
12.5618
-19.1084
-23.7674
-1.90486
-39.4195
-17.8531
-6.41339
0.343155
-37.149
-0.140568
-48.8155
-30.5911
-30.2437
16.3957
-40.1882
19.7525
-31.5387
-9.17237
-1.06649
1.56951
14.2769
5.19038
14.9292
0.430504
-27.3248
-25.476
13.1009
-22.6202
8.80003
-1.23862
15.5872
14.7016
-1.20772
9.74693
18.1496
8.24659
10.3706
-17.3149
-26.196
0.0493514
-20.0844
-1.47028
-1.92251
-0.700953
-0.682379
-25.9731
0.642033
-2.57472
2.88295
0.0438247
-11.9861
19.3298
-0.33129
-0.0663059
0.336322
10.4843
-96.85
-0.0525792
8.34857
-5.01449
-0.589534
-2.5161
6.7694
10.4909
10.276
-0.178332
10.8985
12.7426
9.3426
-14.157
-1.0553
3.78681
4.87333
-11.7251
-66.9031
-77.1496
-16.1376
-42.0662
0.112624
-1.50434
-2.26358
-21.8042
-9.58961
-45.8469
-2.47453
-45.3174
4.93312
-26.8538
11.5385
26.0248
5.17273
-52.3061
6.20909
2.25706
0.612151
-0.100928
-17.1223
-107.191
-0.203485
12.7373
-0.016764
17.5904
-0.106601
10.248
2.53079
0.419305
-56.5858
-3.63512
22.0585
-36.6678
10.5539
10.5272
15.0859
-0.330388
12.9095
7.10393
-45.6454
8.50519
-31.362
-33.5638
13.3275
9.95774
-18.2343
3.20528
14.1032
-16.1283
-149.407
-1.77645
-0.642445
10.2261
6.82666
12.0917
4.42471
5.72569
-23.6428
-11.6115
-14.678
11.9377
22.3407
-19.8356
-17.0473
-58.4137
5.59299
-0.295755
-0.212197
-6.89344
-3.55424
2.5431
-26.3818
-2.03967
21.1388
5.538
-0.481098
-38.7315
-41.2531
-25.2133
-27.2958
-28.8532
-34.6173
14.1715
6.70966
-13.8398
20.2579
-0.0625982
-28.1641
-51.4357
-33.3584
8.15259
-22.024
4.46568
6.62228
-0.101214
-14.2991
-15.9826
-31.9619
-60.5431
12.7402
-43.8992
-1.29096
-29.4597
10.565
10.5257
-43.5651
12.8365
10.4417
16.1905
17.9657
8.42587
0.401442
22.6276
-32.8496
5.40551
-12.32
-63.3396
14.521
-69.1278
18.4816
6.28011
-13.3273
-74.3022
-66.7689
12.2532
-82.2071
-86.3645
-0.536774
-5.06896
-0.0182529
7.63645
2.65038
1.5168
20.0994
-26.4949
-33.4151
-2.45577
6.36907
9.96794
-38.2947
25.8445
-1.40345
-3.35952
9.23766
-11.0193
10.3801
7.3521
10.0226
8.80818
1.21252
-1.67073
7.26031
0.516464
-32.5464
-0.287317
7.78524
11.0241
13.3364
-35.5173
-0.512326
-5.40081
7.40756
0.721752
-56.4963
9.93867
-61.8406
9.92136
11.3877
-22.6248
17.1529
-116.496
21.6517
9.2166
-50.4335
0.0152737
-1.76345
7.53608
12.1235
-61.4571
13.2736
11.0561
-4.98279
-0.424663
0.523942
-0.92468
-5.28002
-25.5516
-1.99395
-58.8294
10.6157
-65.8557
-22.9489
-14.6939
13.8371
14.1433
8.57411
-65.0996
6.4015
-2.45492
-0.41154
6.99426
-32.7477
-33.7045
19.5545
-4.71691
-3.97488
-16.0447
-32.8805
-31.4609
10.6314
-24.2853
-8.22163
12.1299
0.256624
11.0037
-34.9722
1.22886
20.7237
-25.1319
11.8335
-0.493895
-29.6564
4.43344
0.501237
-1.29067
20.9208
9.6232
0.723552
21.0625
12.4563
14.2089
-40.7181
-69.1246
-2.03959
-14.7967
-26.0515
-13.053
-12.8346
-14.0099
3.47111
1.28411
-1.77566
0.336698
-29.0447
0.213261
12.3439
-18.8629
6.52356
7.70205
10.5182
-2.43757
-0.588873
-44.325
-30.3645
-36.5616
-9.63613
12.2581
-61.1403
16.3418
-32.6757
10.4081
-2.57203
-1.82944
-12.7408
8.97702
6.65193
3.49264
5.23724
3.67714
-3.00938
14.5533
15.156
-42.8279
-15.7614
-22.5083
10.4425
0.979613
-7.10904
-17.687
0.421941
-3.20546
-0.586123
5.57255
2.04496
2.00141
6.58837
0.648846
-1.25181
-74.6474
14.6061
-40.8533
9.50567
0.0233602
9.8792
9.53923
7.24449
5.95415
-19.2816
-52.4165
-1.55204
-42.1128
-68.9341
-106.859
1.08202
-39.6806
9.60813
-0.289194
10.4727
-25.6914
-4.75684
-20.7081
-1.37253
9.37256
-29.7231
7.58274
0.710787
-110.753
-23.6059
-42.6351
3.75364
10.8399
-1.27019
0.469983
-28.9058
9.10545
-15.8242
-0.705921
-30.7645
12.763
1.61311
-0.435679
10.7218
7.56895
11.1947
7.40492
15.5248
-24.4253
-1.87849
-22.7248
4.78076
7.83421
0.731382
-16.1095
-53.0319
-45.6519
-1.37036
-0.954715
-52.7742
21.2816
-19.1171
10.27
3.28647
-89.3042
-1.49595
-1.24227
-1.67227
1.89398
0.362668
10.8156
-1.65611
10.6516
-21.9286
-7.53815
-32.8591
-3.56032
-52.1643
10.5458
20.5431
11.2313
-4.19547
-13.5955
9.21765
-31.1209
-16.3224
-0.369228
-3.28282
-57.5514
-49.603
-64.5488
-13.6042
5.12487
5.32128
-14.7829
0.742998
12.2252
-10.3631
-16.7588
12.1823
-1.546
-29.7675
-0.372332
-2.62185
-0.0198904
20.6757
-0.398382
5.28951
-11.9439
-7.69703
-10.482
6.79878
-3.18329
2.96112
-7.49005
-13.1028
-1.43177
-9.14322
12.9928
5.77005
2.93082
-21.9667
-9.23191
21.3144
-33.8907
9.77803
10.5599
1.84551
-1.96389
1.36746
-63.1663
-10.2631
10.2636
7.87453
7.5778
-70.9989
12.2365
2.0483
16.7493
-7.38549
10.5459
13.5586
9.95496
0.560133
-29.94
4.35645
-35.0461
2.39626
6.18637
11.2093
1.57904
16.0507
0.434155
17.8546
1.07966
10.9976
-0.866145
3.59335
1.69803
10.4688
0.637156
6.29941
19.7266
11.064
0.536531
-11.5483
2.10733
10.3089
-1.35765
-24.0046
3.88607
-0.724465
13.484
-41.855
16.7449
3.55071
26.2082
18.439
-0.218709
-1.95594
-2.12923
1.20787
19.2967
-0.725214
-0.273479
-2.67713
21.8406
7.13747
4.62028
18.4634
-8.41995
10.5544
-7.68373
9.95607
-5.1588
8.26927
8.79873
13.3416
-1.63547
-46.9175
0.899453
-39.7319
0.251145
-14.265
-0.519626
16.4442
15.3775
-0.220605
-9.49203
-5.96596
11.7889
5.09519
5.7906
7.53731
-15.2826
-44.8602
-41.6418
11.3272
-21.216
-20.3329
3.90248
1.26677
1.50391
-11.3215
21.2722
-37.4746
16.2856
-10.5297
20.8107
-17.5455
-1.59043
-2.00772
-0.913977
5.64932
10.5437
0.2918
-17.5097
1.39412
-23.3653
14.5214
-2.25891
0.413059
-37.337
-11.608
-9.74223
10.2539
-4.49929
-1.82685
-2.03402
10.7254
22.446
-40.7024
-0.847265
6.12909
-13.6861
6.26816
-1.13195
-0.737741
-14.9823
-72.686
2.0879
-62.7438
-5.28793
-0.568147
-14.0536
-157.246
1.37565
9.2814
9.72873
9.84061
21.39
-28.0597
21.4945
-31.8001
20.222
-65.429
-9.72998
20.299
5.71457
-98.9912
5.50295
-1.5902
7.48423
-32.3586
-27.2026
0.392034
-13.591
-19.1633
-0.0352504
-3.99201
5.25424
10.4998
-78.576
5.63363
-20.8468
-0.268599
-37.7284
-1.33323
1.44189
-31.1261
-16.0743
17.2142
-1.04971
18.8213
1.20382
-30.0597
5.25275
-8.93077
-2.39904
9.79317
12.2016
22.6018
9.13284
10.9964
-4.35396
-25.966
21.8334
22.6244
12.313
-6.98488
-64.3626
-34.1825
6.03495
-0.763927
-0.915437
12.1338
-41.7282
-1.23484
-14.1951
19.3503
2.02489
1.91242
-51.6032
5.15038
6.22702
25.2102
23.516
6.51966
3.54771
-4.98846
-27.7794
6.71609
24.0003
-16.4499
-2.06999
0.839634
-0.0050611
0.553773
-1.85867
-4.09055
0.499287
0.592159
1.75645
-1.28418
4.55102
14.291
-10.4576
9.73573
-57.8093
-4.9457
19.1569
-18.8811
-0.650349
-11.7706
5.97917
4.5688
-41.5713
-13.3075
-1.39675
0.78958
25.5161
-52.3969
-15.1242
-95.4129
-4.81806
-14.2672
-11.5006
-41.7669
-14.8152
-0.478584
-25.6575
-8.0526
-18.7392
4.70016
-1.42455
1.61502
25.0085
2.08838
0.85254
-5.334
2.82944
-22.6723
-10.2891
16.8314
9.93013
1.02294
-8.90161
8.43672
10.2784
-14.199
-47.7694
-0.527211
16.8086
-11.5272
10.1831
0.797786
16.8212
0.356546
-64.5952
1.79014
11.3373
-10.4865
10.4011
-8.40587
23.3509
-44.0377
-2.93617
-26.7413
7.13793
-46.5375
-11.0827
-46.098
0.0946011
-6.75488
-77.3691
-31.5586
-2.45056
0.472477
-51.8901
-8.26316
5.22284
-33.4785
4.74942
-48.679
11.3689
21.3951
4.60422
-21.803
6.3254
-0.261081
-0.563554
-2.93254
-5.55962
-30.2634
-0.137559
-18.7384
-6.93453
0.742206
-4.15729
-28.0022
-2.43319
2.03911
10.5572
-5.55749
-43.3502
-3.32161
-1.0989
-10.5657
0.446642
-16.8582
-45.2874
12.5686
-27.2468
-3.92274
-15.6642
-1.57216
-29.6196
-27.9775
25.3331
-1.15246
-14.557
6.19669
20.7132
19.2226
-72.4165
-7.82738
10.5528
-1.23056
-0.194801
20.8875
1.75547
2.93934
26.0996
-2.09455
-10.3489
2.49028
17.2247
11.189
6.52756
16.0732
8.61609
-1.95575
-1.09341
6.13474
0.609982
-30.8901
20.4734
-0.747188
-3.8317
-1.12272
-39.4918
-0.315244
-54.3895
-9.49972
0.51122
7.42124
12.0522
8.68168
-30.2784
17.8619
19.7372
-13.2263
2.84771
-2.43695
-0.484747
-1.09123
7.56339
-35.8603
-10.4231
-6.96446
22.5733
-31.4341
9.56376
9.71616
12.1577
0.940754
4.50798
-13.7202
-1.38468
-3.57296
-1.64455
-24.3656
-18.4693
-0.617689
-42.7957
11.9255
-79.4445
-1.3636
3.4707
-22.544
-54.4636
-27.5625
6.6091
-7.46512
-0.068666
5.57663
-79.4853
-0.542161
-13.453
-2.09847
10.8756
-29.3454
21.4127
-0.913045
23.1498
-0.0201955
-0.320115
0.273605
10.0159
4.43431
-30.7365
-2.88003
-0.884776
0.255415
1.33932
26.605
12.153
-4.58189
-11.3869
-1.50444
-2.05308
8.65522
-11.6452
7.67248
-44.8444
-48.9355
-23.8053
-9.06032
-1.65194
-23.513
7.96793
2.84853
18.9762
22.1625
-24.91
-30.0732
0.319346
-10.8096
20.0123
-11.8473
-2.32997
5.57627
8.72009
-58.5532
-16.5388
0.468532
-1.65357
3.85315
-48.2974
-10.5811
0.475584
-8.4012
-24.5495
-2.04412
-25.3694
-21.9241
8.42547
-82.9187
-60.6137
-12.1268
-1.04414
23.1089
-0.0397234
10.3785
-28.0332
0.178229
-0.421483
-3.13987
4.17312
-43.2043
-73.0219
19.8477
10.6364
0.447471
-32.1118
24.4875
-52.9947
-59.6468
-42.5059
-3.35016
-47.6703
-53.572
16.9902
-0.0728786
5.29733
5.3246
-41.5307
-1.92936
-0.305824
1.85993
-27.575
0.679261
5.00884
7.58159
-43.006
-47.9137
-15.905
-17.2112
-11.9525
-11.6653
23.0776
8.16041
-53.331
-4.06743
3.61387
18.2873
-0.939973
-71.1481
-2.27158
14.1339
7.37245
-14.9452
10.4421
-17.2265
19.6031
-1.42269
11.7983
-29.8925
-13.6402
-1.28218
-48.3845
-2.84118
4.73987
-66.6149
-47.8636
10.4842
-18.9354
-0.872149
15.1251
9.23573
14.5869
10.1687
-13.2114
-0.0732196
0.906963
6.69852
0.0098416
10.8228
1.00725
19.6389
-43.1539
14.0798
-5.58495
21.0954
-40.4315
-7.68214
20.9008
-44.8969
0.397083
-30.532
15.719
20.3391
11.1937
-15.1909
10.5056
12.5161
-41.1377
6.45962
-73.4983
13.8945
-47.4385
-32.3937
-31.0663
-31.8355
12.1871
-5.43293
-34.3127
0.702433
20.0756
-3.29207
-0.32788
-33.0874
-10.3216
2.0889
-5.51501
10.4293
6.49846
-33.0297
23.7115
-1.89918
17.1952
13.9977
-1.92181
-0.486916
4.38963
-17.2889
-8.25968
3.49556
1.83478
-3.56777
6.44266
-40.1971
20.1412
12.4502
-0.906361
-18.9057
7.87237
-40.332
8.4062
12.2685
0.506668
-0.778456
11.8597
8.04097
-10.1842
-24.8856
0.725456
8.87038
19.542
-45.498
21.3982
22.9689
22.0062
-18.5312
11.9092
-28.6032
10.5429
12.5472
14.556
8.78963
15.1682
25.0875
10.3625
-55.7107
-16.0199
-69.9511
24.9633
1.1265
-20.3903
-42.7487
11.9292
18.0818
8.35892
-1.03489
-2.67471
16.8252
-15.5295
7.62404
-44.8168
5.79797
-1.26326
-10.3092
2.47679
-30.0249
-34.7902
-36.6652
-15.2621
-2.48318
11.5839
-1.07673
0.199569
6.55618
0.272977
-2.51122
-1.15117
-4.06735
-30.071
-64.1582
14.2967
17.3673
-51.0393
8.06049
13.5709
15.6208
-0.162925
-121.853
8.67495
-33.2016
14.9739
-9.05842
14.4108
8.57438
2.27263
13.8675
3.66215
12.8627
-0.673632
6.14969
-10.9644
-21.9167
-1.0533
-1.03668
12.5371
-87.2253
-70.668
-75.6867
18.71
12.1896
5.7018
2.10265
16.3569
-19.488
6.59923
0.343639
-11.9963
6.65406
-68.979
-31.265
-10.7816
-29.8055
-9.01368
-57.3588
0.249862
-30.8156
-28.5844
4.11008
20.5149
23.1408
18.8073
-93.5293
7.75363
-28.7499
6.58831
17.4868
2.73627
12.2294
-74.5389
-0.328449
-12.2052
-0.501279
13.8994
-5.21504
9.11642
-32.3061
-2.33611
-33.3033
11.9116
9.06676
10.5174
-28.6243
6.7181
-34.5322
-34.9679
-35.98
-0.839092
20.1821
-27.371
-23.8564
-47.0651
9.08996
10.4998
-1.92554
7.66217
-29.5764
16.7564
17.7396
-62.4622
-1.80958
15.0355
-77.8243
-30.5588
0.519181
13.9364
15.8156
-28.7745
-0.464427
0.230914
20.1835
-24.8518
-134.103
-0.696189
17.7352
0.265989
-10.3473
-24.1659
13.2045
9.21883
13.5799
-1.04274
-23.0264
8.93768
24.3449
-21.126
3.40942
0.0807111
-31.0741
0.342077
0.0634098
-40.2239
-0.965281
-39.3005
7.94802
-42.593
-23.0881
11.9145
15.3358
6.74686
-16.5098
-112.44
8.85942
-30.8513
-6.52755
-10.9779
0.566309
-17.5293
13.1835
9.05124
0.162349
7.45253
18.9536
-43.863
1.74396
11.5899
-33.7453
8.04055
-4.82366
-0.0835909
-8.34249
9.51777
-0.0375112
-0.221497
-5.81741
-15.9062
13.6328
-7.45764
0.665417
-86.5516
-8.66399
10.8118
-31.313
21.8486
-30.5176
-52.5073
-25.6876
13.9685
9.06063
12.4771
-75.5773
17.7348
-39.8875
1.026
0.0991417
-1.21147
10.6298
0.60405
-6.16857
0.956058
-60.3887
9.5172
-23.9961
-77.9773
-0.0760303
-12.9045
-9.92504
3.8256
18.8522
-0.34853
-29.4438
11.9334
-16.3762
15.8706
-6.5698
0.73493
9.15526
11.1356
0.919304
-30.2323
-16.0105
0.0880245
4.23063
5.5911
5.08647
-51.0414
-2.36415
-3.23431
2.21187
25.4178
7.80934
10.3288
15.9297
3.09179
12.1026
-57.759
-67.645
-85.4503
10.4952
24.7234
6.76463
-8.35933
13.8569
4.29822
4.8597
-0.160642
0.287338
1.7643
21.9753
-16.0065
-20.6446
17.4068
14.233
6.7245
8.02299
11.5896
3.78104
-34.4027
-77.8993
8.82837
-28.596
-21.8035
9.83231
-87.8994
-19.4089
-9.31984
7.41471
8.15068
9.15304
0.563435
12.5395
12.997
-1.37945
9.81264
7.59091
13.1077
10.8618
-1.33662
0.414778
-2.00009
13.4218
9.51226
0.552432
4.13402
0.325711
-1.55047
18.7223
10.5907
-0.0322514
-34.6469
1.73065
11.193
0.262437
5.23843
-1.29093
0.0942502
-92.0997
0.439981
-37.8464
-2.01542
-0.177356
-28.4924
-22.6079
-27.5745
16.5483
-40.2189
-40.0926
-45.8862
19.3382
-47.4067
0.112453
3.61079
-33.3554
11.1726
10.4208
-1.55995
14.7848
4.7735
0.599167
-73.2425
-36.698
-0.135693
13.8864
1.68301
-27.6319
-25.7886
-67.3149
-49.3721
-46.6249
-19.015
-5.15771
4.99936
10.5292
11.7315
-52.9769
-0.0529313
15.0416
10.5493
-27.4649
1.02459
-72.3258
-0.0931947
0.100462
1.97412
9.61261
-16.5973
-56.2449
-71.7441
4.48399
-62.1029
-70.6753
-0.382632
-123.207
-34.1923
-34.3491
-42.7961
-0.426821
-69.0459
0.804125
-27.6065
10.9758
10.0977
-3.3276
14.2677
-58.3174
18.6999
-21.0317
1.00815
-9.83195
8.15275
2.46223
-24.8421
-70.6248
11.3583
14.1468
19.8966
-33.1606
-38.7575
-73.4185
-4.64059
0.00863771
-30.3437
-8.18148
-30.6053
2.28834
-27.6652
0.468205
-14.501
-2.74155
17.0009
5.27561
-4.38804
-1.01496
-14.811
-55.1765
16.3725
22.977
-35.5308
10.1566
7.97258
-0.0414756
-30.2053
13.752
14.0606
-17.6818
-41.6911
-86.6753
-64.9737
-8.89081
-32.6981
-6.71385
9.26316
-0.895434
12.6013
-27.6613
-31.4421
10.6761
-7.56181
-31.5942
1.52519
10.7877
-32.7685
-4.73086
-30.7925
-30.3951
-30.9465
20.3555
-71.9749
-1.52871
-30.1873
10.2504
-36.9874
-13.829
-15.0463
-25.9565
-11.0825
9.49457
-0.171764
-31.9193
6.04184
0.000427082
-94.0523
0.127945
-27.7851
0.26007
3.168
10.4869
-60.7954
15.4906
-82.8993
0.00783588
-2.0011
-18.1355
-76.0458
-28.4089
-45.9064
0.25352
5.41626
-0.125369
-1.39552
-15.2848
5.50658
-36.776
10.7868
-6.49574
7.66349
-9.46692
-28.0078
0.475396
27.0885
-26.0804
-33.6659
-43.8101
-19.0936
10.512
-0.625197
1.32619
-13.3036
-19.9278
-33.0567
-28.4533
-31.7898
7.47031
-18.5403
2.2164
-26.4468
-0.39582
6.21559
-1.81354
-5.1582
-5.8904
11.9838
-27.0247
-83.1803
13.7623
-1.03317
-29.7339
-1.54095
-5.45278
-15.5446
-3.0986
12.104
-74.2589
6.27365
-30.7495
-8.67828
-15.4072
-11.1412
-55.1414
-3.06796
-38.9187
10.1382
5.84708
-29.6629
22.6008
-72.5229
14.0712
15.1012
-34.32
2.67581
9.98576
10.4863
1.20847
-67.3216
-20.7509
-16.1447
10.4829
4.07763
-20.6195
2.58248
-2.24684
14.0063
-0.922888
-3.53482
1.41877
13.5786
-13.6684
-15.3153
-1.35845
9.74866
3.47113
-1.22699
15.6467
13.4687
-0.237773
-90.6864
11.6642
6.74791
0.209843
3.86143
-23.485
-33.8575
-14.4789
-80.4335
13.9083
7.04355
-3.55423
-11.3938
0.589416
-21.1466
8.24164
-92.1261
0.53235
12.2199
13.9876
-79.444
9.72173
3.65382
7.7916
9.19639
-0.140368
9.44174
-0.0588504
11.0216
8.62128
11.1059
-30.9873
13.0903
11.2861
10.0062
8.89828
-96.1194
0.954371
-1.79202
-15.0215
12.7162
17.5215
-119.192
17.4576
-68.8319
-23.6965
8.57462
10.2275
-15.4124
-0.844069
-34.5293
-105.287
-5.88712
-58.1829
-14.4042
-1.56431
5.89625
23.0809
10.8908
-69.9362
-46.5002
7.54513
6.49657
-34.1054
-41.2347
-121.686
-14.4702
-27.0988
-20.8932
10.4117
0.916345
5.9014
-0.822976
-0.88394
-3.86772
-0.29162
0.194832
-2.9623
10.424
-19.0053
-5.83491
-26.0337
-41.8341
3.00653
6.97235
-2.68592
-11.4492
9.19821
-1.57487
6.06608
-13.6464
10.206
5.23224
17.5289
10.4713
-76.8253
-2.10282
-11.8736
-112.802
-1.26778
-1.49125
-9.35172
-126.998
23.4034
-0.619356
-13.7363
15.2697
-44.2701
-5.23919
-36.4149
-33.1104
-73.0733
-10.1169
-11.4927
5.39291
-16.8429
-79.706
1.73276
-99.4332
-11.4299
-34.3876
-0.388195
9.48899
-43.9075
-55.0322
-12.5268
0.338989
-17.119
10.6675
15.9726
-122.409
10.919
-0.550694
8.66871
19.3739
-39.7406
7.92216
1.86448
5.58443
14.2112
-0.589863
-4.61734
-34.9719
9.97547
15.9948
-88.7959
-0.120402
-25.2483
-18.8528
6.88617
-95.0421
-17.4568
-137.532
6.03971
-33.8009
0.603982
-0.461821
10.2656
0.398119
-49.374
0.42225
-1.22367
-19.6682
17.8965
21.7216
12.6672
24.1022
11.2557
15.2153
8.20712
5.03963
12.7946
-38.0621
8.18484
-2.31175
-28.2666
16.0857
-6.03333
-14.7851
20.9189
1.05454
-48.5416
6.83036
5.83196
13.3316
-29.9493
10.6839
20.1145
-42.001
-24.0753
-15.9784
3.57122
-27.3775
11.5244
-1.13098
13.8424
10.5271
-52.174
10.5412
-8.67904
-68.38
-59.7263
-86.6301
9.90305
-20.1768
10.6584
-1.81225
-31.0585
-0.386814
-7.7246
-7.03227
-134.186
-68.1568
10.6964
3.1506
-28.9339
-3.29843
9.00421
0.799925
-108.133
6.92628
-0.642749
6.45536
-31.8092
8.6884
4.12197
-2.91113
-2.92355
8.10451
2.66582
4.50441
-33.3531
23.7019
-10.8363
-34.7645
8.26919
5.31098
-32.8185
-14.828
-29.3063
-1.35895
-1.22083
-17.6291
-0.892887
-2.70033
24.4791
1.18168
-49.5632
-0.24961
-11.3985
-0.227139
-7.99843
6.61456
9.12457
-27.9657
2.9985
-38.8063
0.88249
1.29658
6.88672
8.79749
-0.0527089
-0.00565066
-1.82087
10.8313
-1.403
-0.569675
-35.592
-3.69017
-6.32278
10.9942
-35.0052
-0.249834
-57.1984
9.82946
-30.0877
-1.96455
12.845
10.9231
7.98412
-36.1324
-67.573
11.1392
-11.6688
13.1175
6.94967
1.43463
9.98136
-0.311783
4.38217
0.559115
-13.2559
-38.6397
9.14625
-26.4826
13.5894
0.947125
24.6836
0.0309324
3.9427
11.5895
2.15467
0.859121
10.5986
3.08171
2.09764
-22.5311
-1.26076
7.2616
2.57687
-4.20893
-83.735
-5.68534
-40.6167
-33.4518
-15.9563
10.2091
-1.35708
9.45878
0.809221
20.3999
16.7506
5.38796
3.44327
5.12962
-37.0812
11.8749
3.92929
1.66582
0.442813
12.4187
9.10354
-1.17763
-68.282
-19.0498
4.7727
-2.30968
1.95029
10.9672
-59.5622
4.61891
-24.9188
7.98945
6.32065
-1.03753
5.89628
10.2372
-2.96847
7.33588
11.8271
0.43158
-19.666