/*--------------------------------*- C++ -*----------------------------------*\
| =========                 |                                                 |
| \\      /  F ield         | OpenFOAM: The Open Source CFD Toolbox           |
|  \\    /   O peration     | Version:  2306                                  |
|   \\  /    A nd           | Website:  www.openfoam.com                      |
|    \\/     M anipulation  |                                                 |
\*---------------------------------------------------------------------------*/
FoamFile
{
    version     2.0;
    format      ascii;
    arch        "LSB;label=32;scalar=64";
    class       surfaceScalarField;
    location    "3";
    object      phi;
}
// * * * * * * * * * * * * * * * * * * * * * * * * * * * * * * * * * * * * * //

dimensions      [0 3 -1 0 0 0 0];

oriented        oriented;

internalField   nonuniform List<scalar> 
20045
(
0.760336
-0.826217
0.0658802
-1.60789
0.594107
1.01378
0.512841
3.1111
-3.62394
-0.631985
0.837742
-0.205757
-1.32437
1.21393
0.110444
-0.938878
3.33376
-2.39489
-1.41913
0.436289
0.982841
0.0817972
0.677118
-0.758915
0.751152
0.613945
-1.3651
-1.2032
-0.161086
1.36428
-0.652202
-0.268847
0.92105
3.25719
-1.55811
-1.69908
0.542652
-0.549959
0.00730732
-1.85795
1.61708
0.24087
-0.356564
1.48471
-1.12815
-1.58884
0.385641
-0.221488
0.0371134
0.184375
0.204703
-0.516745
0.312042
-2.52947
3.68655
-1.15709
-1.12297
0.0587199
1.06425
-0.98751
0.807718
0.179792
0.181971
0.360681
-0.222652
-1.38524
2.6049
0.487868
-3.09277
1.21721
0.303348
-1.52056
-0.755052
3.35995
0.10474
-0.0736097
-0.0311306
-2.01122
4.03757
-2.02635
2.34443
0.543042
-2.88747
-4.41859
2.5182
1.90039
-0.387057
1.0295
-0.642439
1.96777
-1.47131
-0.496455
-0.694268
2.24588
-1.55161
4.33826
-2.35846
-1.9798
-0.861613
0.94341
3.04775
-1.50093
-1.54682
1.5796
0.404434
-1.98403
-0.0938267
0.584598
-0.490772
-3.0862
1.57656
1.50964
0.899313
0.801221
-1.70053
0.0272258
0.709854
-0.73708
0.255965
-0.353118
0.0971537
3.54031
-3.54128
0.000972968
2.20301
-0.812446
-1.39056
1.0141
1.18891
1.46114
1.79604
-0.15585
-0.58108
0.73693
1.97365
0.590289
-2.56394
2.14995
-0.570355
0.373602
2.8253
-3.19891
1.96679
-3.29294
1.32615
2.79319
-1.90955
-0.883643
-1.69599
-1.17891
2.8749
-0.149438
-0.449069
0.598507
0.672489
-0.79632
0.123831
-1.03399
-0.290379
-0.0960966
3.38703
-3.29093
2.30811
0.412084
-2.72019
2.03604
-2.73031
2.20421
-1.89719
-0.307022
-0.860654
-0.23916
1.09981
0.512093
1.69212
1.14947
-2.76638
1.61691
-0.647391
-0.340118
1.7032
-0.417761
-1.28544
1.68676
0.463755
-2.15052
0.253294
-0.783495
0.530201
-1.00576
0.215148
0.79061
1.29459
-0.543441
2.41886
-2.4696
0.0507418
0.648522
-0.395229
0.536385
0.136104
-0.380139
-1.57146
1.9516
0.792803
-0.539717
-0.253086
1.72695
-0.0959384
-1.63101
2.68053
-2.77663
-0.182247
1.90919
0.752188
-1.10875
1.1217
0.0576542
-1.17936
0.0985684
-1.76546
1.66689
1.49469
1.6506
-3.14529
1.33149
-1.05683
-0.274656
2.24801
-1.09854
-3.86407
0.592192
3.27188
0.0270808
0.733256
-0.794864
0.91966
-0.124796
0.694202
-1.77397
1.07977
-2.40113
0.0836791
2.31745
1.51197
0.27395
-1.78592
-1.22633
1.11655
0.109783
-1.98464
-0.247581
2.23222
1.11911
-0.233474
-0.885639
0.618903
-0.889429
0.270525
-0.266646
-1.20019
1.46683
0.888329
-0.965295
0.076966
2.27625
0.369441
-2.6457
0.00518114
0.0995591
-0.0729481
0.766284
-0.693336
1.84409
-0.944778
-0.301863
0.132569
0.169294
2.08601
0.961741
-0.652536
-1.20542
0.871587
-0.944535
-0.661699
2.96981
-0.0406354
-0.754229
-0.146976
-0.154888
0.633517
1.83405
-2.46757
1.5394
-2.86033
1.32093
0.965854
-0.726633
0.623292
0.103341
-0.41356
0.517666
-0.104106
1.64139
-1.33494
-0.306458
-0.755191
0.605753
1.87838
-4.06276
2.18438
-0.275999
0.492357
-0.216358
0.0790216
-0.498238
0.419217
1.69494
-0.477736
3.02182
1.31643
-1.76504
1.3849
1.66628
-2.39401
0.727731
0.523581
-0.318877
-1.06687
0.206214
-1.19548
0.957846
0.237635
-1.5468
0.167998
-0.896772
0.728774
1.83529
0.957899
1.62676
-2.157
0.530238
2.37427
0.298289
-2.67255
-3.71405
2.65418
1.05987
0.633454
-2.50663
1.87318
2.89263
-1.05734
0.131271
-0.712351
0.793067
-0.0629632
-0.730104
-0.0313314
0.0381708
-0.00683935
1.72219
1.18922
-2.9114
1.78771
-1.703
-0.0847078
-0.549413
0.213636
0.335777
-0.515876
-0.210757
2.70431
-1.03803
-0.994886
1.03472
-0.0398315
1.68153
-3.40098
1.71945
0.461674
-2.15766
1.53479
0.672187
-2.20698
2.09032
-1.99175
3.30275
-0.404169
-2.89858
1.18749
-2.10561
0.918118
2.92381
-1.86795
-1.05586
-0.245119
0.604908
-0.35979
-0.229153
3.34265
-3.1135
3.13993
-0.795492
-2.47257
0.0738434
2.39872
-1.46443
1.16714
0.297292
2.83528
-1.34059
0.475588
0.855898
-1.86041
2.2907
-0.430283
-2.61329
3.12613
0.0306806
-0.614729
0.584049
-0.399216
0.418578
-0.019362
-0.0688672
-0.5539
0.622767
1.82626
0.519498
-2.34576
4.19352
-2.08904
-2.10448
-0.677422
0.608555
1.02112
-1.87978
0.858664
0.31334
-0.0573758
-2.57125
-1.33869
1.99968
-0.66099
-1.96745
1.41253
0.554919
-0.0454271
-0.08714
0.132567
1.33861
1.5852
-0.0125664
-0.018765
-0.153382
0.946449
-2.09117
0.23076
-2.20599
2.78115
-0.57516
-1.96561
2.20732
-0.241708
-1.58895
-1.28332
2.87227
0.231826
0.961127
-1.19295
1.31568
-1.33877
0.0230963
2.96887
-0.103086
-2.86578
0.00435021
-2.23926
2.23491
-1.0576
2.5924
0.568821
-1.64733
1.07851
-1.95714
3.83552
-2.37044
1.6052
0.765241
-0.123303
0.126219
-0.00291573
1.57421
-3.70507
2.13086
-3.20844
1.19722
-1.65585
-1.4608
3.94193
-2.40028
-1.54165
-0.888445
0.915671
0.493263
-0.526538
0.0332749
-1.73828
-0.484007
2.22228
-2.98251
4.14958
-1.16706
2.88507
-2.25297
-0.632104
0.213185
-0.71834
0.505155
-1.08236
-1.37477
2.45713
0.255378
-0.907581
-1.6317
2.26516
-2.26729
-0.70552
2.97281
0.342226
0.0852564
-0.427482
0.439958
-1.77864
-0.986438
0.599381
2.56652
-0.192254
-0.484156
0.390329
-0.543015
0.6616
-0.118585
-0.900679
2.72694
-2.65676
1.5744
-0.480456
0.377992
0.102463
-2.11432
0.422335
1.69198
0.792862
2.09221
3.90502
-2.33081
2.61791
-4.33808
1.72017
2.68656
-4.84453
2.15797
0.106976
-1.22995
-1.4796
2.11312
1.92064
-2.85952
2.11
-3.18196
1.07196
-4.70345
2.55309
2.15036
-0.0651803
-1.16115
0.554303
0.428988
-0.983292
2.20249
-0.768183
-1.4343
-0.0889191
-2.32308
2.09393
-0.754812
-0.240074
1.92622
3.1142
-2.48707
-0.627133
-0.0299658
-0.400629
0.430595
1.94966
0.406859
-2.35652
-0.289423
-1.12724
1.41666
-1.17368
2.74858
-1.57491
-1.36931
2.06351
1.7105
-1.14168
-0.376223
1.02603
-0.649803
2.88133
-1.1998
0.336976
-0.0309857
-0.30599
-0.660685
-0.433088
1.09377
-0.395322
0.413109
-0.0177871
3.86757
-2.37847
-1.48911
0.793215
-3.77573
-0.438784
0.043462
-2.53625
0.799025
1.73723
3.83113
-1.58525
0.725061
-2.93105
4.55746
-1.88558
-2.67188
-0.0514956
0.393721
2.68772
-1.5883
-1.09941
-1.82096
0.389003
1.43196
-2.87167
2.88127
-0.00959798
1.94924
-3.75269
1.80344
0.204989
0.124598
-0.329588
-1.38835
1.85432
-0.465967
0.0826162
0.765347
-0.847963
-0.450186
0.174187
-0.496784
0.0832239
-1.63271
-1.22762
1.06708
-2.75769
1.69061
-1.33756
1.19873
0.13883
1.19444
0.773329
2.97674
-0.866742
-0.506945
0.107728
1.74373
2.0874
-1.49096
0.0722607
1.4187
1.29433
1.39339
1.1572
0.327514
-1.32023
-0.0173376
-0.86373
-0.0958618
0.959592
0.0644337
-0.187737
-2.90415
1.73048
0.495774
-1.09891
0.60314
-2.73801
2.64489
0.0931192
-0.931362
1.06556
-0.134195
-0.587044
-0.330616
0.917659
2.26528
-2.49695
0.231664
-2.66259
-2.04086
3.70022
-2.33414
-1.36608
-0.317247
0.287281
4.0051
-2.05585
-1.7309
2.79798
-2.33212
1.21737
1.11474
2.78007
-0.830664
-1.94941
3.27921
-0.984979
-2.29424
-1.15567
-1.17645
2.50722
-1.49609
-1.01113
-0.522477
2.36835
-1.84587
-0.132884
-2.2066
2.33948
0.320919
0.746652
-1.06757
-0.301892
-0.0170386
0.31893
3.72737
-3.21863
-0.508741
-2.10204
-1.612
2.02937
1.08483
-2.49892
-0.239087
0.35426
-1.01495
1.08064
-2.30881
1.22818
0.0104259
0.482837
-1.61207
3.33426
1.60405
2.26352
4.27789
-2.5689
-1.70899
-3.08656
2.38104
2.04447
-3.47004
1.42557
-1.86407
-0.152631
2.0167
-0.834576
-0.445858
1.28043
1.64079
-0.61967
-0.593553
0.113098
1.41126
-0.166539
-1.30477
-1.65013
2.39343
-0.743298
-0.645907
0.102893
-0.554912
0.178689
0.356188
-3.22786
0.92847
-2.29778
0.411677
-0.608503
0.775379
-0.166876
0.0535054
-0.68549
-1.44259
1.08583
0.356762
1.02576
0.615636
1.74422
-0.619607
-1.12461
1.43701
0.35069
-1.19357
2.2742
1.70758
-0.195611
-0.633095
-1.48122
3.60245
-3.09532
-0.50713
2.0912
-2.56791
1.32602
1.24189
2.3566
-2.5949
0.238304
-1.31975
1.0531
-0.382202
-0.167211
-0.36928
-1.61536
0.909885
-1.62244
0.712555
1.24909
1.25813
1.94849
-3.27653
1.32803
0.751937
-1.61028
0.858339
-2.92064
0.519506
0.0582569
1.06086
-1.54327
2.31269
-0.769423
-0.728332
0.917563
-0.189231
-1.3075
-0.111634
-0.36974
-0.692483
1.06222
0.29832
0.00418241
-0.302502
-0.912666
-0.551765
1.10948
1.34331
-2.45279
2.51378
-1.21945
0.698297
-1.34256
0.0228085
1.41684
-0.664904
-1.94867
-0.421779
0.911895
-0.812401
-0.0994942
2.81257
-0.838914
-1.41605
2.23733
-0.821273
-0.356795
0.410413
-0.0536177
2.16933
0.0331587
-1.28289
-1.02592
-1.51245
2.74337
-1.23092
1.76188
-3.26277
1.50089
1.72486
1.97536
-0.0240563
0.0444178
-0.0203615
0.297466
-2.16153
1.83105
-2.74039
0.909338
0.281244
0.511559
-0.270837
1.8976
-1.15008
2.07855
-1.83301
4.51957
0.599649
-3.12911
-2.39504
1.2982
1.09684
1.92001
-0.332066
-1.58794
2.80838
-0.543098
-1.8655
-1.5369
-1.30661
1.89942
0.352897
-0.046226
-0.306671
0.95158
-0.89286
-2.16696
1.89612
2.78378
0.756525
-2.34759
0.931535
3.0455
-1.01613
-0.929373
0.899318
0.0300551
0.0894497
-1.8576
1.76815
-2.70393
0.494791
2.20914
2.47751
-2.47751
-1.29227
2.46874
-1.17647
1.18321
0.561002
1.94717
-1.00003
-0.94714
-2.81986
2.94304
-0.12318
1.02069
-0.115401
-0.905291
0.794034
-0.320724
-0.47331
0.337902
-0.924946
0.484168
1.26033
-2.99124
-2.48398
2.90893
-0.424948
-0.858525
1.96801
-0.50476
0.0109648
0.493795
0.105942
-0.658425
0.552483
-1.12224
1.22922
4.14437
-3.15045
-0.993925
-0.245498
-1.55087
1.79637
-0.696242
0.759092
-0.06285
0.387806
-0.829726
0.44192
-2.48825
0.932565
1.55568
0.560185
0.277556
-0.969192
0.0398191
-0.229186
0.419373
-0.190187
1.9353
1.79207
-0.325923
-0.178837
-0.145357
-0.824098
0.969455
-1.52769
2.40703
-0.879341
-0.0194481
0.458945
-0.439497
1.19532
-0.759035
1.80283
-0.668994
-1.13384
0.0548679
-1.25505
0.614448
2.35442
1.30675
0.864969
-2.17172
1.39553
-1.21071
-0.184818
-3.03712
0.564552
-1.17601
0.481905
0.69411
1.30203
2.21866
-3.5207
-1.89663
1.744
0.197279
-2.72059
2.52331
-0.380033
0.593218
-0.0469175
0.0645841
-0.0176666
0.0898907
-0.953621
-0.488088
0.82002
-0.331932
-1.97425
-0.561998
1.8384
0.368498
-0.275364
-0.0931343
-0.370426
0.013631
0.485915
-2.10537
1.61945
0.784257
1.5548
-2.33906
1.37302
-2.1017
2.57319
-0.47149
-2.16292
1.64044
0.0102098
-0.0838195
-1.14429
-0.823157
-0.773498
0.202962
0.570536
-2.60578
1.07809
1.97931
-2.2248
1.2807
1.7648
-0.942971
0.91813
0.0248407
0.568492
-3.34576
2.77726
0.463471
-0.808742
0.345271
0.999518
-2.28241
-1.86356
-0.102056
-0.945695
-0.0600638
0.780508
-0.466164
-0.314344
1.48179
0.0750266
-0.107994
0.0329669
3.3729
-2.07086
-1.49403
2.48177
-0.987746
0.788859
0.549249
-1.33811
-1.0575
0.677469
-0.646109
-0.127388
1.3691
0.578079
-0.646763
-1.74725
0.688987
0.222908
1.82922
1.2399
0.467677
-2.72816
3.10177
0.383337
-1.35816
0.974828
-0.273196
-2.4743
2.7475
-0.529277
0.617687
-0.0884099
-1.17166
1.40349
-2.04021
1.90733
2.15882
-0.971331
-1.24536
-0.197232
0.0270722
-1.23815
1.21107
1.20122
-2.79017
-0.380973
-1.36211
1.74308
-0.270039
0.828873
-0.558834
-1.93102
0.126163
1.80485
2.68451
-2.09422
-0.0513326
0.265571
-0.214238
-0.645321
-0.0509214
0.531358
1.0868
-1.61816
0.411548
-0.502896
0.0913484
1.80859
1.00403
-2.81262
-0.969638
3.24589
0.293906
0.0044135
-1.00087
-1.82148
2.82234
0.903664
1.80064
2.82018
-2.03592
-1.05003
0.680288
-0.184676
-0.117216
-1.31086
3.35532
0.383026
-2.29124
1.90821
2.43608
-0.410882
-2.0252
-1.43647
2.06882
-0.632352
1.17287
-1.30432
-1.23554
2.53986
-0.0523518
0.279756
-0.227404
-0.844229
-1.46415
2.30838
-0.567473
0.673414
0.10323
-0.148658
1.52645
-2.37068
-2.09718
-0.648631
2.74581
-0.1639
-1.4605
1.6244
-0.3591
3.86471
-3.99208
0.127369
0.632865
-0.419991
-0.212874
-0.0140346
-0.928936
0.765139
0.701694
-0.96893
0.134354
-2.40406
3.04486
-0.640804
-0.619092
1.11487
0.576348
1.51397
-2.75164
-0.789641
0.371644
-0.192543
-0.179101
1.58981
-0.349913
-0.619553
0.679096
-0.0595421
0.954473
-0.871857
-3.51879
1.86294
2.736
0.597766
-0.361083
0.748889
-0.605724
1.39458
2.91312
-1.65279
-0.633093
0.0135395
-0.339751
-1.82721
0.563209
0.708865
-0.678184
-2.76273
0.058796
-0.64147
0.632331
-0.16886
-2.18771
1.61357
0.574135
2.03906
0.379804
0.558507
-0.181423
-0.377084
0.862259
-0.787889
-0.0743695
-2.35902
0.858086
-3.06282
1.55037
1.40127
-0.611236
-0.790029
-0.000189676
0.574969
-0.574779
3.13662
0.00357898
-3.1402
0.565772
0.040559
-0.606331
-0.417952
-0.77753
0.682183
-0.0632799
-0.195465
0.172007
0.023458
1.17707
-0.141999
-1.03507
-0.0500195
-0.145445
2.31842
-1.94898
-0.0900197
-0.419574
0.509594
-3.09367
0.689608
0.0793014
-0.208584
1.08017
0.266806
0.101692
-0.122396
-0.384549
0.710008
0.502403
-1.21241
0.900874
0.802323
1.29015
-0.90681
0.652355
-0.573333
0.217207
-0.945539
1.5123
0.456192
-1.96849
1.61926
-0.135239
-1.48402
-1.38558
-0.720024
-0.961106
0.212842
0.748264
1.17309
-1.21686
0.0437741
3.25925
-0.0800212
-3.17923
-0.940726
0.436782
0.503944
-1.49452
1.99372
-0.499198
1.78332
1.84966
-3.63298
0.968051
-1.20721
-0.829053
1.29199
-0.462933
0.62002
0.293441
-0.91346
-3.30026
2.32336
0.976892
0.169546
0.00246029
-2.53645
0.439273
0.91217
-0.563796
-0.348374
1.42909
-1.80833
0.379239
-0.248895
-0.577321
0.48837
3.37634
2.45706
-0.417777
-2.03928
-2.51016
0.408462
1.00542
-1.63852
2.59081
-3.87841
1.2876
-0.297425
0.851729
-0.0188751
-1.10417
0.958813
-0.465556
0.633554
-0.609278
-2.66134
3.27061
2.16625
1.83885
-2.19807
2.33782
-0.139748
0.445352
0.335156
-1.74518
-0.7196
-0.345923
0.385107
-0.0391835
0.989602
0.628343
-1.61795
0.00455747
0.491011
-0.495568
-0.197456
1.62655
-2.27575
-0.245954
2.5217
-2.35658
-0.712919
3.0695
1.38243
-1.04087
-0.341552
-0.694164
0.064644
0.62952
0.335464
-0.027777
-0.307687
-2.93698
0.159334
2.77764
0.0805646
0.550775
-0.63134
2.33708
-2.65284
0.315753
-1.52527
-0.128217
2.88759
-2.75937
0.0271774
-0.373101
0.244938
-3.11629
2.87136
1.85054
-3.80768
-2.83769
2.47662
0.361069
0.492834
-0.0812859
2.21786
-1.64151
-0.130581
-0.721651
0.852233
-0.03387
0.502946
-0.469076
-0.498149
2.58146
-2.08332
1.99265
-0.988829
-1.00382
3.03704
-2.90592
-0.131116
2.29355
-0.823218
-1.47033
0.133993
-0.666662
0.532669
-0.846442
-0.0503299
-2.96991
2.61134
0.35857
0.160511
-3.13042
-0.707493
1.21655
-0.509054
-1.65154
-1.56709
0.558887
-0.480966
-0.0779212
-2.41849
-0.675173
-0.530197
0.350714
0.179483
-1.10228
0.812859
-2.81759
2.6954
0.122192
-0.550426
-0.0164074
-0.52331
0.611115
-0.0453433
-1.77148
0.383122
0.396363
-0.476675
0.0803116
0.215705
0.305145
-0.52085
1.09722
-0.0765253
-0.700391
2.05064
0.118691
1.04188
-0.450295
0.291711
0.158584
-0.243121
1.5588
-1.83623
1.19206
0.644172
0.183705
-0.0141585
3.94466
-1.77841
2.76699
-2.1985
-0.690069
-0.437221
1.12729
1.78515
-3.2179
1.43275
1.66477
-1.82867
2.75432
-1.25577
-1.49855
-0.0161421
-1.55415
-0.282081
-1.48865
2.75301
-1.26436
-0.0617884
-1.03511
3.65302
-3.15307
0.734577
0.918099
-0.59718
-0.25294
0.224668
0.425243
-0.0121343
-1.44941
-1.39888
4.89568
-2.21515
-1.32793
0.804034
0.523896
0.186212
0.607822
-1.90262
-1.33226
3.23488
0.684701
0.956089
-0.00580404
-0.407981
0.413785
2.46158
-0.507461
0.229021
0.27844
1.95839
-0.446091
-1.04084
-2.96267
0.478684
-0.64886
0.0366847
0.612176
1.83246
2.725
0.588121
-1.4986
0.910474
2.91967
0.117367
1.81233
-2.54216
0.729828
-2.43415
-0.0488862
2.48303
-2.41293
3.0979
-0.684973
0.392433
-0.00997281
-0.382461
-1.79499
3.64552
-0.184814
-1.29603
1.48085
0.120304
-2.31837
1.04419
-0.375898
-0.668291
-2.84035
3.72222
-0.881874
-0.676781
1.59998
-0.923197
3.4824
-1.53724
-1.94516
-0.0135343
-1.75324
1.76677
0.0538679
0.0107161
-1.4715
3.25481
1.11138
-2.40365
3.18982
-1.42794
-0.531168
0.441149
-2.56445
0.130306
3.44278
-1.49428
0.017556
-3.88162
0.754746
-0.0448925
1.21273
1.59258
-2.80531
1.62597
-0.381043
-1.24492
1.18694
-2.76872
1.58178
-0.499918
0.0296885
0.470229
-0.576984
-1.42838
2.00537
1.03327
-0.816067
-0.409614
-0.112954
0.522568
0.322414
0.820471
-1.14289
0.229266
0.329621
-2.80826
3.32199
-0.513731
-0.601657
0.0723798
1.34366
0.596554
-1.94021
1.26265
2.18387
-3.44652
0.477068
1.44294
-0.0704945
3.37325
-0.0217759
2.36271
-2.34093
0.00899475
-0.0284429
0.476416
-0.220179
-0.256237
4.61327
-2.90889
-1.70439
1.29747
1.45685
0.12875
0.100397
-0.229147
-0.841973
2.38491
-1.54293
0.0331596
0.456059
-0.489218
2.41986
-3.39417
0.974315
-0.770443
-1.42585
2.1963
2.48118
-0.531515
0.859327
0.766638
-1.16646
0.167308
0.999151
0.839573
-2.39044
0.722348
-1.29171
0.569365
0.544276
-0.210491
-0.333785
0.143602
-0.0897343
-0.209462
2.2632
-2.05374
-0.558899
3.3842
2.28685
-1.85123
-0.435629
1.88382
-1.60987
-1.50789
0.464084
1.04381
0.435388
-1.43542
0.861804
-0.505242
-0.356562
0.167995
0.390511
0.447338
2.17882
-2.62616
0.664294
0.512772
0.368608
-2.72519
-1.32808
0.402982
0.9251
-0.976837
-0.680192
1.65703
1.42145
-0.711444
-2.50579
1.64727
0.780933
-0.600168
-0.180765
-1.30331
2.80161
-1.49831
-1.27583
1.3307
-1.3389
1.49737
-0.158474
-1.65238
2.85691
-1.20452
-0.0622064
0.623459
-0.561253
-0.730904
0.730715
-0.762099
-1.63874
2.69271
-1.05397
-1.61575
2.03808
1.47932
-1.525
0.0456772
0.357091
0.995461
-1.35255
-3.67436
2.36596
1.3084
0.14279
0.0611173
-0.203907
0.214412
2.04253
-2.54068
3.07618
-1.29103
-0.963012
-1.43202
-2.10708
2.0853
1.45043
-0.0378974
1.13005
0.315741
-1.4458
-0.969565
0.889931
0.0796349
-0.9443
0.446478
0.497822
-1.63397
-0.312817
1.94679
0.428733
1.13464
-1.56337
-2.16013
-0.79294
2.95307
-0.911425
1.26852
2.55514
2.05813
-2.67095
1.58569
1.08525
-1.51247
0.537368
0.975105
0.0177482
0.502512
-0.657684
0.155172
-1.58458
-2.7161
1.08212
0.386629
0.573784
-0.439791
-0.310832
1.30043
-0.00483093
-2.5018
0.0756076
0.812722
0.331805
0.021758
-0.353563
-2.11554
-1.56442
3.67996
-0.599488
-0.566971
-1.46865
-0.299789
1.76844
0.327148
0.573065
-0.900213
0.0763982
3.31969
-2.13103
-1.18867
0.519639
1.93742
0.32105
-0.844523
-1.03955
1.88407
-2.02301
2.90493
-0.881912
-1.63543
-0.771187
2.40661
-1.33323
0.50418
-1.17837
-0.329525
3.09283
-1.39917
-1.69366
1.15249
-0.098256
-1.05423
1.10603
0.165605
-1.27164
-0.473528
0.554092
-0.367784
-0.0136808
0.381465
-0.313739
-0.0883816
-0.58904
-0.0325641
1.77496
1.31788
-1.03257
2.60912
-1.33142
3.84962
1.22313
-0.0706399
-2.51643
0.881001
2.14405
-1.84659
-0.300931
-1.85958
0.365065
0.367226
-1.07472
2.12187
-2.03242
2.44647
-0.0898728
-0.569473
-0.319955
-0.744185
-0.226282
0.970467
-0.857417
-0.107879
2.22805
0.412544
-2.6406
0.0552259
-0.729748
0.674523
-0.143572
1.38519
-2.67624
1.29105
2.54313
-0.206049
-3.18558
3.53488
-0.349304
0.616107
-0.400959
-3.08146
-0.592902
-0.874766
2.69405
-0.0827056
1.60982
3.25147
-1.187
-2.06446
-1.88579
-0.0927288
1.97852
0.689734
1.42442
-2.11415
-2.06136
0.130343
-0.489978
-0.370967
0.860944
-1.39416
1.77719
0.390286
1.50634
-1.89663
-0.514768
-0.317646
0.832413
-2.84506
0.366908
2.47815
1.4803
1.59588
-0.706846
1.66292
0.630629
-0.827567
-0.348448
2.63218
-3.03635
1.55917
-0.432778
-1.1264
1.24975
-0.2817
1.97996
0.128607
-2.10856
2.47947
-3.81089
-0.0704229
0.275412
-0.911253
1.82068
-0.909429
-2.90693
3.15187
-0.0609598
0.816064
-0.755104
-0.371808
0.371785
2.25712e-05
-1.21188
0.0402197
-0.747108
1.75253
0.624016
0.777249
-0.425779
0.452956
-1.59093
0.463691
0.508021
-0.383422
-0.553095
0.526999
0.0260957
0.570044
-0.645894
0.0758504
-1.31606
1.22012
0.40213
-1.87078
-0.0844009
-0.804044
0.0315304
1.63524
-1.66677
0.920109
-1.01597
0.523483
-2.27456
1.75108
-0.617177
2.28275
-1.66557
0.647429
-2.29756
-2.00019
-0.0689224
-2.76877
2.39225
2.50342
-2.18685
-0.318938
-1.36525
-1.20265
-1.18669
0.494208
-0.118754
-0.250959
0.369713
4.05797
-2.22551
2.38033
-0.549278
-0.669342
-0.431582
1.10092
-3.47111
1.64908
1.82203
-1.11113
0.842279
-2.36772
2.2395
0.447653
-0.265683
-0.764055
-1.28958
1.10477
0.966542
-0.980278
0.0137357
-0.37148
2.59953
-1.00529
1.06591
-0.0606188
2.32553
-3.73573
1.66991
2.06582
0.568157
0.659964
-1.22812
1.49696
-0.456342
-1.04062
-1.50532
0.828544
-2.04946
0.00821489
1.09782
2.64677
-2.91997
1.13917
-0.519148
-1.1664
2.00597
-2.58521
1.83299
0.752223
2.4932
-3.56157
1.06836
-2.03904
2.16711
-0.128071
1.22022
-1.46334
0.0315036
0.6582
0.724227
0.732286
-2.49774
1.14736
-3.25089
2.0306
1.22029
0.664892
-2.55068
1.74667
-0.109267
-1.71169
0.353321
0.768825
3.03593
-1.02492
-2.01101
0.0196394
0.726808
-1.70365
0.429523
-2.78903
2.69631
-2.28307
0.978743
1.38699
-1.81146
0.934382
0.877081
-2.56581
1.49958
1.06623
-0.502306
0.395439
-0.665478
-2.89391
2.03693
0.856981
1.89717
-3.69215
-2.79079
-0.0174732
3.80193
-1.21112
0.35478
0.243232
-0.598012
-0.0691422
-0.419083
0.488225
-0.364671
1.29838
1.55633
-1.02153
-0.789937
0.481543
0.55173
0.635505
1.02433
-1.65983
1.07269
-0.643702
-0.0960255
-3.12357
3.21959
-0.930638
1.11829
-2.1759
-2.08196
-1.3955
3.47746
0.68078
-0.914255
-1.95721
0.603761
1.35345
-0.0373348
-0.178791
0.216126
2.66154
-3.27082
0.809636
-1.72089
2.09872
1.78406
-3.88279
-1.09817
-0.229761
-2.36616
0.666713
1.69944
-2.2786
1.50816
0.773119
-2.79613
0.543841
1.01533
-0.0566507
0.0193159
-0.064683
2.50076
-1.73776
2.18622
-0.448456
2.54618
0.00846289
-2.55464
-1.79085
-0.0457666
-0.562736
0.14349
2.33402
0.322259
0.0881538
0.781307
1.92556
-0.742348
1.44488
-0.694898
-0.249402
-2.64417
-0.173423
-2.38933
0.76666
-2.35496
0.470979
0.537527
-1.00851
2.46641
0.116238
-2.58264
-0.294481
0.284508
-0.973844
-2.08898
-2.23813
-0.356772
-1.40544
3.88492
-0.956469
1.30046
-0.343988
-3.02
0.904462
-0.802393
1.4379
-0.715872
-1.47183
-1.55653
-0.878021
0.901117
-0.900093
1.1158
3.09567
-0.40162
1.63002
-0.598029
-1.03199
0.266112
0.759915
0.705474
2.92745
-2.73018
-0.0116372
-0.634378
0.904903
-1.40261
1.47487
-1.27507
-1.61501
0.613106
0.467877
-1.08098
-2.53175
0.0542413
-0.361984
2.20371
-1.84172
-0.0471306
-3.13845
-1.96157
2.36843
4.13344
-1.93409
-2.19935
-0.363118
0.845023
2.18246
-1.13175
-1.05071
0.71402
-0.802402
0.170728
0.305688
-0.49807
0.0420304
0.45604
-0.296898
1.42695
-1.77517
3.67234
-0.0812392
-0.399726
-0.773147
-0.226742
0.999889
-0.1631
2.82465
2.61419
-0.232405
-2.38179
-1.07937
1.61073
1.20522
1.17969
-1.10421
-0.223876
1.4752
-0.560107
-0.91509
-0.289781
0.176866
0.112916
0.436678
-2.29043
1.85375
-2.64362
0.405489
0.614745
-1.58784
2.3545
-0.0378824
0.751903
0.332414
-1.28888
-2.71182
1.40521
-2.9963
0.907264
-1.25883
0.136588
-1.13925
-1.61802
2.75727
-2.23125
0.0540254
-0.159474
0.105449
2.88183
-2.28964
2.25063
-1.56089
0.413427
1.50729
-1.92072
0.562304
-1.05228
-1.27693
-0.942897
2.21982
0.939077
-0.919393
-0.0196835
-2.04639
3.80964
-1.76326
2.14372
-1.42502
-0.718709
2.09774
0.0660627
-2.1638
-1.55603
-2.1797
-0.900713
-0.0449816
1.17726
1.71537
-0.0459299
0.247911
-0.201981
-1.90135
-0.464802
1.99388
1.69268
-1.51232
1.81288
-0.300554
-0.511685
0.740706
-0.321817
0.872359
-0.550542
0.0716418
-1.07693
-0.308287
-2.58562
-2.6204
0.700733
0.080201
-0.0902309
-0.896207
0.20415
2.07884
-2.28299
-1.41839
-0.353083
1.31893
1.19484
0.196336
-0.712212
0.208915
-0.266817
0.057902
0.182005
-0.984209
0.802203
0.32961
0.735947
1.10348
2.34682
-1.09773
2.38823
-1.26994
-0.300931
-0.695032
0.995962
2.11816
0.250193
0.0648125
-1.88077
1.30379
1.45453
-1.61763
-1.19074
-2.07422
3.26496
-1.72795
-1.74316
-3.21943
3.28714
-0.0677076
1.21646
-1.00879
0.782505
1.56315
0.783674
-0.978465
1.34071
-0.362241
-0.809025
-1.66058
-0.837657
-1.3191
2.15676
1.39219
-0.707487
1.3301
-0.607748
1.62211
-2.59595
1.29364
-0.990296
-1.41565
2.55855
-1.14289
1.89827
1.32674
0.853566
-2.18031
3.16857
-1.78189
-1.38668
-2.08311
-1.84935
3.13537
-1.28602
0.691208
0.938809
-0.787533
0.749651
1.20499
2.27741
-0.576107
0.506965
0.063874
0.0111526
2.7009
-1.51169
1.34213
2.71585
-1.1227
0.5814
0.541301
0.577656
-1.26773
2.10849
-0.128536
0.88795
-0.533169
-1.88387
-0.365815
2.24968
0.501678
-0.0938467
-0.407831
0.387462
0.245402
0.382451
-2.79538
-0.773645
0.863536
1.93971
-1.71045
-0.229264
0.463631
1.01157
-0.391186
0.209764
0.705777
0.617584
-1.32336
-1.03512
3.07116
-0.487679
-1.57985
3.19559
-1.61574
-0.774601
1.09702
0.408851
-0.923619
3.07094
-1.53769
-0.961237
0.589081
0.907878
0.814392
-0.898793
-0.486836
0.42463
-0.793446
-0.367828
-0.00259817
0.732965
-0.428165
2.2735
-1.84534
-0.595557
0.366371
-0.985722
0.26407
-0.886375
-0.0143381
-2.88328
1.88242
0.67075
0.621236
-1.6233
1.38844
0.23486
0.700689
0.218971
2.28713
1.25234
-3.53947
-0.250474
-0.0611946
0.311669
0.501242
-1.99527
2.84447
1.28897
2.18801
-1.98386
-3.1602
-0.251739
-0.119053
0.113967
1.28719
1.12504
1.10301
-2.22805
1.04081
-0.1207
-0.096126
-0.880891
-0.24181
-1.44404
-1.17626
1.61165
1.31402
1.16775
1.54964
-1.60055
0.0509072
0.513305
0.0136941
-0.174965
0.668542
-0.0984984
2.11101
0.569609
-2.68062
1.061
-0.0944595
-0.600593
0.361802
0.238791
-0.909592
-0.0180139
0.927606
0.863651
1.57698
-2.44063
0.598132
0.82332
1.91535
-0.0563412
-0.69885
1.2812
0.644361
0.327878
-0.587921
0.260043
-2.90309
1.4423
2.34138
-1.85195
-0.48943
0.0426845
-0.381563
0.338879
2.33737
-2.54684
1.59933
-0.207142
1.09426
1.15637
-0.32559
-0.0422374
-0.258653
0.242402
0.0162508
-1.46568
-0.325467
2.99624
-1.53586
-1.46038
1.18985
-0.112248
-1.0776
1.14552
-1.91845
0.77293
-0.223309
1.37645
0.0403908
-1.66595
3.54331
-1.87736
-0.0432864
-0.215366
-1.35201
1.13574
-0.0698266
2.56775
-0.00821601
-2.55954
-0.900966
-0.217945
0.54975
0.0468768
0.0535203
0.567025
1.25366
-0.987253
0.99181
0.0934502
-0.203845
-0.372319
0.331684
-1.07235
1.48578
0.0336773
0.675187
0.162689
-0.711178
1.90562
-0.146486
1.69613
-0.616642
-0.296404
-0.606897
1.31267
-0.370745
2.47633
-2.10559
-2.21286
-0.323589
-2.28222
3.58981
-1.30759
0.0588009
1.07693
0.839621
-0.162503
-0.0504402
-0.644364
0.694804
-2.27978
0.742092
0.282793
-0.334126
1.57499
-3.47761
1.24662
-3.06809
-2.63879
3.12666
-1.33911
1.35916
-0.741579
0.0302351
-1.68547
2.12215
-0.00379093
-0.396839
0.385394
-1.42627
-0.284394
-1.63074
1.91513
-1.23033
1.60068
4.14402
-2.77263
-1.37139
-0.573585
0.207213
0.607706
0.0543548
-0.66206
-2.1683
0.430534
0.475366
0.0689097
-0.023299
-0.321081
0.34438
1.49773
-3.77994
0.248723
1.19167
0.0939299
-1.2856
-2.78375
2.41301
0.386316
0.0955966
-0.481912
1.0648
-2.70353
-0.351923
-0.0116737
0.363597
0.501781
-0.115465
-0.0280444
1.93728
-1.46021
1.5955
1.32344
-0.725313
-2.93753
0.855569
-1.79526
1.46043
0.334835
1.94847
-3.13921
-1.34275
-0.788218
2.13097
0.106759
1.06038
-0.785885
0.670484
3.0467
-0.467141
-2.57956
-0.0164393
-2.62773
1.90215
0.195589
1.06681
1.11565
-0.392633
-0.015348
0.381662
-0.702726
-0.919714
0.131928
-0.117278
-0.01465
0.0313628
-2.51644
2.48508
-0.206088
0.841401
-0.635313
1.33962
-2.96611
1.6265
-0.263986
-1.43901
-0.0945454
0.0239346
1.78207
-0.915508
-0.493716
1.40922
-0.938831
-1.03542
1.15553
-0.687648
0.663138
0.437342
-1.10048
-0.797457
-0.825841
-2.11458
-0.341254
-0.0880486
0.429303
0.430234
0.643868
-1.0741
1.08593
-2.24334
1.15742
0.0757482
-1.46099
0.489597
-3.32994
-1.50916
-2.61922
4.12838
-2.54761
0.115969
2.43164
-3.32504
-2.11089
0.0718558
-0.754852
0.766108
-0.0112553
-3.80573
-0.92452
3.03553
0.990792
-0.488389
0.244283
-0.85118
-0.408756
1.23208
0.378137
0.231076
-1.00422
0.0454033
-0.394935
0.349532
-0.421417
0.176298
-0.262414
0.305099
-0.747554
1.31571
-2.72363
1.58463
1.139
-0.407728
-0.185825
1.48883
0.502382
-0.000703975
0.288995
-1.26746
-1.27553
-0.681679
-1.4243
0.484408
0.939889
-0.250763
0.926156
-0.675392
-1.09544
1.27745
-0.211025
1.90301
3.49415
-0.879957
1.39518
-2.33401
1.13118
-1.51233
0.381157
0.262206
0.0033644
0.0299683
0.0144495
-2.73052
1.59127
0.168546
1.02131
0.0329049
-0.514125
0.48122
-4.29659
1.68331
0.685574
-1.11866
-0.489689
-0.0536886
-0.552701
0.606389
-1.46503
0.549519
-2.77871
2.47042
4.09292
-1.9942
-0.612091
0.559449
0.0526416
0.378663
-0.571206
-0.375222
-2.0169
0.374256
1.64264
-0.354961
0.293766
-0.188473
0.894733
-0.70626
1.00257
0.59676
0.414609
0.279392
-0.694001
-0.699983
0.73366
0.605784
-0.324541
1.34968
-2.48305
2.73965
0.180029
-1.5261
-0.247865
2.50383
-0.0751629
-2.42867
-0.356462
-0.750304
1.10677
1.34281
-2.79223
-1.7516
2.26229
-0.510686
-0.119326
0.0266693
0.0926565
-2.63849
2.65398
-0.0154941
-1.13005
1.65353
1.39699
0.595662
2.75594
-0.994921
-1.76102
0.100689
0.524564
-0.625253
-0.320216
-0.818695
-0.0277468
-0.775945
-0.0427503
0.0811701
-0.833601
0.75243
-0.241648
2.51005
-2.2684
-2.2237
0.805817
1.41788
0.705737
2.43089
0.0953222
0.0763897
-0.171712
1.48244
0.642478
-2.12491
0.318615
-0.437369
-1.10305
2.52053
-1.41748
-2.2486
0.364734
1.73894
0.705401
-2.04815
-0.00566334
-0.295424
0.301087
2.85134
-0.865702
-1.98564
1.1998
0.573019
-2.94807
1.54919
2.84296
-2.93898
-1.3323
0.297488
1.03481
-0.236331
0.492522
0.446656
-0.939177
0.0974953
-0.662992
0.565496
-0.0250368
0.310924
-0.285888
0.813455
-0.845378
0.0319227
-1.49072
3.11283
-0.752157
0.77923
0.455849
-0.644322
0.91213
-1.41932
0.507187
-1.48859
-1.09662
0.317546
0.0179178
-0.123458
0.0406943
0.0827637
2.75428
-1.48338
-1.2709
0.271485
1.66823
-0.616002
-0.353563
-1.46064
0.222498
1.2177
1.14191
-2.35961
-0.0518545
-0.000270403
0.0521249
-0.0507534
0.913012
0.836716
-1.11125
0.274533
3.81108
-1.87089
-1.94019
-3.39733
0.735999
0.800201
-3.19261
0.0511248
3.14149
0.904093
-2.05418
-1.00356
0.794977
0.0698554
-0.0398871
-0.927082
2.72917
-1.80209
0.371789
0.0758647
0.318471
0.489246
-0.596953
0.515714
-0.546772
0.983554
-2.61505
2.32442
0.290635
1.73898
-1.06899
-0.669991
1.27651
-0.946895
0.612435
0.146657
-0.592813
0.488707
-0.0851426
-0.971688
0.867969
-1.8568
-3.36209
1.69614
0.0320959
-0.0598729
0.345493
0.156288
-0.0743868
-0.044939
2.27656
-2.31366
0.0370981
2.49657
-1.24861
0.514933
0.733681
0.248677
-0.883055
-1.09055
-2.36617
-0.616014
0.522167
-0.412687
-0.70448
1.11717
-2.08072
0.464979