/*--------------------------------*- C++ -*----------------------------------*\
| =========                 |                                                 |
| \\      /  F ield         | OpenFOAM: The Open Source CFD Toolbox           |
|  \\    /   O peration     | Version:  2306                                  |
|   \\  /    A nd           | Website:  www.openfoam.com                      |
|    \\/     M anipulation  |                                                 |
\*---------------------------------------------------------------------------*/
FoamFile
{
    version     2.0;
    format      ascii;
    arch        "LSB;label=32;scalar=64";
    class       volVectorField;
    location    "3";
    object      U;
}
// * * * * * * * * * * * * * * * * * * * * * * * * * * * * * * * * * * * * * //

dimensions      [0 1 -1 0 0 0 0];

internalField   nonuniform List<vector> 
13486
(
(4.28981 -0.617619 8.16153e-21)
(5.02546 0.810454 4.11075e-21)
(7.97361 0.0344805 0)
(-5.77506 2.86828 -2.80808e-20)
(6.99186 -1.22768 -2.20236e-21)
(7.24352 0.534808 3.00763e-22)
(7.4237 -0.281862 5.89548e-23)
(5.97871 -2.07443 -1.17335e-21)
(5.80248 -1.06314 0)
(5.82295 2.14858 0)
(-0.935511 6.22565 -8.76659e-21)
(7.3014 -0.213844 0)
(3.81825 -1.2094 -8.08612e-21)
(7.15763 2.29217 7.26324e-23)
(7.09349 -0.556102 -1.4526e-21)
(5.73404 2.23409 -3.04657e-21)
(-0.0430519 -1.5142 8.1221e-21)
(0.193464 -1.83198 -1.17672e-21)
(6.57549 -0.0647145 1.10381e-23)
(4.81075 -0.173744 -8.09701e-21)
(-6.34459 1.83509 -1.26351e-20)
(3.87256 -1.24547 1.04171e-20)
(5.08861 0.784646 -3.29303e-21)
(11.4997 1.18781 0)
(6.08815 1.74594 9.60602e-22)
(11.5693 1.13769 -6.87829e-21)
(0.87661 0.206887 1.18896e-20)
(8.8946 -0.254296 1.09267e-20)
(5.91467 0.51727 0)
(9.14904 -1.05316 -9.08095e-21)
(-6.30385 0.317751 -9.78361e-21)
(6.87067 -0.41872 7.0046e-22)
(9.24288 0.519626 6.75931e-21)
(7.71027 -0.666637 0)
(5.98187 -1.97233 0)
(5.21423 0.055318 4.9227e-23)
(4.51132 -0.127536 -1.28488e-21)
(4.61402 -2.11871 3.20705e-21)
(5.4178 -0.726776 -2.1086e-22)
(5.8764 -0.653734 2.87586e-21)
(7.80032 -2.2225 0)
(3.21372 -1.54996 -9.80702e-21)
(6.5343 0.014093 0)
(6.10134 1.48949 -4.59775e-21)
(6.1239 1.49083 1.85936e-21)
(7.27064 -0.22665 2.89064e-22)
(-3.26528 -3.51662 3.85183e-20)
(5.81571 0.505152 1.14505e-23)
(4.5339 -0.0289448 9.71499e-22)
(8.33812 0.210565 3.96672e-21)
(5.97431 0.0693626 4.69641e-21)
(5.59674 -0.29924 0)
(7.20623 -0.506824 -4.42484e-22)
(4.83527 -1.70519 -4.80003e-21)
(-0.102711 -2.68266 0)
(6.89152 -1.2942 1.00247e-21)
(8.81561 0.702283 2.47698e-21)
(5.63844 -0.457096 -9.94499e-22)
(9.40526 0.670883 8.93458e-21)
(4.30504 -0.893184 0)
(-1.26585 7.41268 -1.12293e-20)
(4.28181 -0.822088 0)
(10.8106 0.0267394 -7.65622e-21)
(-6.25677 1.83186 -1.43211e-22)
(3.82147 -5.46622 0)
(4.40531 -0.180917 -6.89851e-22)
(-6.51816 3.09066 -2.67628e-20)
(4.28885 0.12942 2.90103e-21)
(5.76377 -1.114 -1.46042e-21)
(4.96312 0.0515496 3.15282e-22)
(-5.82888 2.90577 3.09016e-20)
(0.0922961 -2.57907 -1.15006e-22)
(5.88243 -0.311128 2.37807e-21)
(-2.03481 5.53293 -1.00783e-20)
(4.06946 -0.215829 -1.9259e-22)
(8.65533 0.900826 -5.33495e-22)
(3.92346 -0.0440909 6.37876e-22)
(7.10951 -0.571678 6.17438e-22)
(-3.76815 -5.58113 -1.48549e-20)
(5.61488 -2.61054 0)
(5.62321 0.100117 -2.02345e-24)
(4.86336 1.10189 -2.7095e-22)
(10.8724 -0.727334 -1.42865e-21)
(8.07108 -0.0488663 7.23144e-23)
(4.28676 -0.653214 -1.58648e-20)
(4.14485 4.85911 0)
(4.1019 -1.11403 6.74241e-23)
(6.01154 0.113682 -7.2386e-21)
(5.57279 0.55332 -3.28868e-21)
(5.24982 2.97282 -3.67731e-21)
(6.82901 -0.573555 3.68828e-23)
(6.2904 -1.6909 -1.19337e-22)
(4.49782 -0.954404 1.98359e-21)
(4.95612 0.221798 2.1758e-22)
(5.50023 -1.61757 5.95548e-22)
(5.74927 0.422706 -4.44601e-24)
(0.751911 0.09172 0)
(-6.75136 3.45737 1.49737e-20)
(5.87918 -0.631082 -5.50824e-21)
(-0.899523 -2.02442 9.01543e-23)
(5.63693 0.0430513 0)
(7.0935 2.28639 -1.48848e-23)
(-6.94492 3.30792 6.66298e-22)
(5.58663 -0.408856 1.16732e-21)
(3.84221 4.66771 0)
(-1.38467 -2.15672 2.64872e-22)
(5.8874 0.11768 -1.81051e-24)
(5.45912 -0.819896 -4.52826e-22)
(-4.88988 -5.50892 2.18226e-20)
(6.03592 -2.72102 0)
(4.79595 -2.25042 0)
(6.73555 -0.221923 2.07762e-21)
(4.88836 -1.67261 9.01076e-23)
(7.75435 1.45065 -5.59364e-23)
(3.19224 -0.186348 0)
(4.68996 -2.22949 -1.88538e-21)
(6.00898 1.87007 0)
(8.05971 -0.627022 0)
(5.84259 -0.299343 0)
(4.68346 0.146738 -5.61476e-22)
(0.785312 -1.74194 1.93407e-22)
(-2.38614 7.20869 0)
(5.42208 -1.49017 0)
(5.44481 -0.727379 6.84265e-22)
(5.63476 -1.87932 0)
(5.59123 -0.299598 0)
(6.53246 -0.643615 3.157e-23)
(6.46899 0.291103 1.50624e-21)
(7.07907 -0.472749 -9.75667e-22)
(6.46996 -7.62664 -2.43275e-20)
(5.50691 -0.246191 -1.27441e-22)
(-1.99136 -3.65989 -9.86095e-21)
(2.8881 5.12581 2.08438e-20)
(-0.171342 0.392328 1.07496e-20)
(5.98528 0.0231696 -7.61458e-22)
(5.62212 1.2342 -3.94442e-21)
(2.61013 2.1417 -2.75177e-21)
(5.98079 -2.64793 0)
(4.709 0.179102 1.57302e-22)
(5.96229 -1.60454 -5.70397e-22)
(8.95975 0.555968 -7.74928e-21)
(7.2717 -0.543022 3.75464e-22)
(6.94882 -0.421505 0)
(5.65924 -2.45715 0)
(7.14765 0.0582871 -7.79559e-23)
(9.09777 0.129971 -4.69172e-21)
(6.39874 -0.407115 2.24675e-22)
(-1.63874 4.37056 0)
(8.39389 0.321719 0)
(5.93327 0.49536 0)
(6.01752 0.0275063 7.5007e-23)
(7.25292 -0.740364 0)
(5.65877 0.0767906 2.11768e-24)
(4.71803 1.06193 -2.31981e-21)
(6.46617 0.99027 0)
(8.3026 0.0183424 0)
(5.90597 -2.58792 0)
(-1.37446 2.60055 9.23432e-21)
(5.18079 -1.95763 5.73418e-21)
(5.14941 -0.896636 -8.2505e-22)
(8.04317 0.130218 2.23899e-21)
(5.20191 -1.89727 -8.50656e-21)
(6.97682 -0.708231 3.65342e-22)
(2.95141 -1.45818 4.27292e-21)
(5.66649 -0.346016 0)
(7.49951 2.33781 -9.05543e-22)
(6.91291 2.0968 9.01918e-22)
(1.39994 -0.343956 -1.19124e-20)
(6.24331 -0.309256 -5.30864e-22)
(-0.0335455 0.48447 2.96962e-21)
(2.96855 4.78434 2.09631e-21)
(6.4498 0.900935 1.36055e-21)
(5.95972 0.21255 -5.99062e-21)
(6.77166 -0.503595 1.45827e-23)
(5.62831 0.218173 -1.60214e-23)
(-5.80064 5.35756 0)
(7.04962 3.28911 4.75846e-22)
(9.04055 0.80968 9.76821e-21)
(5.91549 0.106312 -7.28565e-21)
(6.97978 -0.402417 0)
(5.98522 -0.762176 5.05918e-21)
(7.61658 1.29178 -8.29979e-23)
(6.89338 -0.406265 -1.90932e-23)
(1.14815 -0.532323 0)
(7.75648 -0.230747 -1.16944e-22)
(8.34972 -0.18612 -4.95985e-21)
(6.23493 0.488774 1.50264e-24)
(8.55929 -0.923405 -2.34068e-21)
(7.71677 -2.1526 0)
(4.30835 -2.06003 -2.94972e-21)
(4.54207 0.110781 0)
(7.92815 0.184277 0)
(5.76064 -0.634727 0)
(4.04354 2.31978 -5.20545e-21)
(5.91075 -0.745939 0)
(-1.71503 5.54717 -2.74697e-21)
(4.2707 -7.44264 5.39274e-20)
(8.26614 0.0662595 1.28284e-21)
(3.98195 -1.95357 -1.62347e-21)
(7.4033 2.15908 -2.23613e-22)
(-6.29563 -0.117465 1.06286e-20)
(6.48636 0.341297 -4.5471e-23)
(4.54703 -2.15499 -3.71627e-21)
(6.49712 -2.61865 -1.6186e-21)
(5.30767 -0.841198 1.03167e-21)
(5.9856 -0.728505 -8.98329e-22)
(-1.06756 -2.28109 -2.46966e-21)
(5.66968 -0.13607 5.49739e-21)
(5.74393 -0.625164 0)
(7.86199 -0.179476 0)
(8.85586 -0.385117 7.72508e-21)
(14.6531 -0.235446 2.25435e-20)
(4.85959 -0.102136 7.4319e-21)
(5.82691 0.121707 7.04276e-24)
(7.29216 0.651365 -3.46847e-22)
(7.458 -3.76062 1.2472e-21)
(9.15693 -0.711206 0)
(5.33691 2.82047 9.21797e-21)
(4.75186 -1.01964 0)
(9.42037 2.45329 0)
(-0.768986 -1.40517 -1.5001e-20)
(8.40812 0.399737 0)
(5.90662 -1.58723 1.26566e-21)
(8.12736 0.211775 0)
(7.32649 -0.638201 -9.61875e-23)
(3.90964 -1.80783 2.78426e-21)
(7.62397 1.16464 -8.71929e-23)
(-7.16905 0.585378 8.26646e-21)
(6.95522 -2.347 2.80129e-22)
(4.72362 -1.19 -9.11588e-24)
(6.01464 -0.749214 -1.63673e-21)
(7.75175 -0.659275 1.8337e-20)
(9.0206 0.613963 9.72827e-21)
(3.17176 -1.51475 3.40469e-21)
(-6.97426 2.64854 0)
(3.7124 -1.8014 3.14e-22)
(8.20226 -0.915189 4.0058e-21)
(7.98793 0.152269 1.0882e-22)
(3.63918 -1.73846 8.75795e-21)
(6.93111 -0.304748 0)
(9.48015 0.922126 0)
(6.00696 0.171726 9.22833e-21)
(7.69411 0.701905 0)
(3.53729 -1.73564 2.73959e-21)
(5.25348 -0.867645 -3.82888e-22)
(5.42147 0.181756 0)
(7.18093 -0.0717719 -1.86788e-22)
(10.7901 -0.378259 2.02577e-20)
(-2.51583 2.60811 2.04644e-20)
(5.98931 1.4131 0)
(-6.03009 4.65979 -5.84334e-21)
(3.11942 -0.099738 1.32554e-21)
(4.34083 -2.11922 2.17394e-21)
(5.4897 -0.836618 0)
(6.28683 -2.21057 7.03818e-22)
(-5.28662 6.28658 4.88634e-21)
(6.88296 -0.437117 -4.30734e-22)
(7.31399 -4.03587 -1.57602e-21)
(2.16517 2.58723 -9.66873e-21)
(9.41975 0.537351 6.41999e-21)
(5.31328 0.621876 0)
(5.23283 -0.834971 -1.22305e-23)
(7.05186 -0.567981 3.17488e-21)
(-5.67181 5.62002 -6.10059e-21)
(6.80121 -2.04218 1.90893e-21)
(1.75642 -0.662324 0)
(7.04626 -2.25469 -2.06753e-21)
(-6.72677 0.693225 -1.45106e-20)
(6.2885 -0.000373605 -2.84523e-21)
(2.48395 -1.57576 0)
(4.45304 2.60315 3.90909e-21)
(5.93406 0.135251 -2.02894e-21)
(9.15032 -0.816291 0)
(7.34018 -0.378876 2.24835e-22)
(3.95982 -1.86018 3.68726e-21)
(10.5963 -0.89871 -1.13773e-20)
(6.31138 -1.97001 0)
(-0.0677252 -6.82666 0)
(5.54493 -0.948591 -4.84851e-22)
(6.61675 -0.608676 -3.37527e-22)
(-0.409977 -7.29163 1.1722e-20)
(6.3141 -0.508857 -1.64975e-21)
(5.80778 0.183978 4.42881e-21)
(9.80872 2.94579 -7.20356e-21)
(-2.83764 7.22096 1.50171e-20)
(2.34032 -0.916494 2.0667e-20)
(8.8491 0.708556 8.17476e-21)
(6.92523 -0.535363 1.28297e-21)
(8.03537 -0.637658 1.23903e-22)
(6.10599 -0.0242842 0)
(-7.24662 2.48277 0)
(5.02014 -0.802292 4.85615e-22)
(4.65125 -2.20288 2.21457e-21)
(6.00407 0.0403365 -7.40796e-22)
(8.11676 -0.859866 3.54566e-21)
(8.41138 -0.974718 0)
(7.69713 -0.0100439 -2.98563e-21)
(7.41619 -0.322503 -1.62984e-22)
(5.7735 0.139649 -4.01887e-21)
(7.8725 -0.887328 -5.48929e-21)
(5.67064 -0.582293 -3.72283e-22)
(-1.18344 -1.85345 4.66405e-22)
(6.80929 -0.546285 2.87632e-22)
(6.8992 -0.420045 -5.94758e-22)
(4.7145 0.0262434 1.94423e-22)
(5.67016 -2.68123 0)
(4.89578 -0.41772 0)
(6.48483 -0.117828 3.71098e-22)
(4.60476 -1.2826 -4.72664e-23)
(4.5201 0.0210976 0)
(5.35406 4.0055 -1.65525e-20)
(-6.1229 2.88221 0)
(6.7454 3.20494 3.35155e-22)
(6.84131 -0.239223 1.6488e-21)
(3.33628 5.7049 0)
(5.63531 1.12112 -2.43866e-21)
(4.96475 -0.791587 -7.20004e-22)
(5.56032 0.552141 -2.81617e-22)
(5.64931 -0.132675 -6.14119e-21)
(7.31686 -2.27358 0)
(4.35521 -0.0792794 1.25259e-21)
(4.97734 -0.71497 5.41763e-24)
(5.92208 0.104044 9.20322e-22)
(4.91075 0.357551 -4.13769e-21)
(2.17518 2.10341 5.05968e-21)
(6.92 -0.514914 7.47394e-23)
(6.66875 -0.884023 -1.22639e-23)
(6.34543 -0.504221 0)
(7.60598 -0.326287 8.44488e-24)
(6.75923 -0.858949 4.11459e-22)
(5.97724 0.0515455 1.04667e-20)
(6.36526 -1.6954 0)
(6.62341 -0.645972 -9.81474e-23)
(4.31345 1.09961 0)
(7.35173 -0.230505 9.96604e-21)
(5.68839 -1.52208 -1.37718e-21)
(2.44627 -1.12355 4.37023e-21)
(7.21818 -0.83207 2.8915e-21)
(6.05461 0.532914 0)
(5.20561 -0.857728 -6.07439e-22)
(7.19907 -2.21596 2.42711e-21)
(4.95509 0.363697 3.91276e-21)
(6.82223 -0.868509 -9.58535e-22)
(6.88142 -0.400937 1.24678e-22)
(-3.65159 5.26498 -1.13486e-20)
(5.81579 0.473001 3.73936e-24)
(6.60898 -0.471169 0)
(3.05111 -1.0054 1.00818e-20)
(9.56181 2.34723 0)
(4.97603 -0.841502 -2.36974e-23)
(6.61396 -0.284267 2.10596e-21)
(7.53727 -0.364569 -1.21924e-22)
(7.39955 -0.358821 1.67177e-22)
(0.396151 -0.506515 -1.38088e-20)
(5.81804 0.154855 5.00906e-21)
(5.35557 0.0640061 0)
(-2.37638 4.8052 -8.52464e-21)
(6.52713 -0.627847 -6.22003e-22)
(4.8318 -1.26761 -1.97379e-23)
(13.0383 -1.35791 1.52845e-20)
(7.72478 -0.0476099 0)
(7.09783 -0.633779 3.6102e-22)
(5.37996 0.404898 8.27297e-21)
(5.88961 0.155258 6.15397e-21)
(9.19157 -1.13006 0)
(5.68628 0.0727886 -4.83449e-24)
(8.36294 -0.920672 -3.76221e-21)
(-0.269548 -2.27454 6.47437e-21)
(4.73729 -0.137415 1.03913e-21)
(6.52088 -0.550043 5.93278e-22)
(6.82786 0.0221688 2.58242e-23)
(6.58956 -0.458488 0)
(7.29891 -0.636149 -2.85719e-22)
(-5.80955 5.12605 5.19623e-21)
(7.17027 1.29517 1.96238e-22)
(6.01816 0.0592938 3.90935e-21)
(4.76249 0.0130901 0)
(5.08913 -0.771791 -7.96765e-22)
(4.15985 6.15334 0)
(9.44058 4.33766 -4.60776e-21)
(6.30087 -0.0403981 0)
(6.44736 -2.02358 -1.52747e-22)
(4.01587 -0.325129 -2.34942e-21)
(4.48794 2.23684 9.14592e-21)
(-1.4554 -2.53656 -2.66562e-20)
(6.48902 -1.98838 0)
(6.76832 0.214114 -7.6259e-22)
(6.0537 0.571086 -2.4694e-21)
(-4.3528 1.26675 -7.00144e-21)
(-5.5677 0.770749 1.47598e-21)
(4.96081 -0.172947 -1.10438e-20)
(9.08284 -0.608108 4.05446e-21)
(6.17172 0.56196 1.70115e-21)
(4.3796 -1.32269 0)
(4.12217 0.875035 4.87059e-21)
(4.74619 0.314834 -4.70441e-22)
(-6.35874 2.96607 1.62775e-20)
(-5.83686 4.77353 -1.86147e-20)
(-3.87514 0.360022 -1.07292e-20)
(8.92083 0.691565 0)
(-4.42242 1.10364 0)
(5.96991 3.47673 0)
(6.26217 -0.190656 0)
(4.56357 -1.22836 -7.76783e-21)
(7.22465 -0.201915 0)
(4.12421 -0.953284 0)
(5.00493 0.274514 1.5904e-21)
(8.99792 0.782615 -1.00366e-20)
(6.56869 -0.450146 -1.6632e-21)
(5.07968 0.900064 1.42774e-20)
(6.00792 0.0895424 -1.20833e-21)
(6.60662 4.96294 0)
(9.0535 -0.318334 0)
(5.76548 0.174176 4.30945e-21)
(5.93452 0.0696069 7.35701e-22)
(3.70855 2.59703 0)
(0.6753 -0.108977 1.16625e-20)
(6.74123 -2.11436 -2.14128e-21)
(1.96883 4.43393 0)
(6.93538 -0.301216 6.12198e-22)
(5.93041 0.121725 -4.88495e-21)
(1.89967 1.01127 6.86416e-22)
(3.03556 -0.974572 0)
(5.98565 0.577406 4.62755e-21)
(7.78471 0.723118 0)
(8.55104 -0.884544 0)
(6.57352 0.616983 -2.15264e-22)
(5.78123 0.194926 2.33738e-21)
(1.19417 0.200269 -1.55718e-20)
(6.84221 2.05803 4.56722e-22)
(4.00539 -0.975115 -3.93598e-21)
(6.26125 -0.1776 3.65929e-22)
(6.23134 0.606016 1.31754e-21)
(8.02271 -0.62226 6.65988e-22)
(7.03912 -1.95545 0)
(10.162 -0.0672413 9.0637e-21)
(4.05116 -0.171924 0)
(5.03305 -0.787251 4.51446e-22)
(6.74646 -0.51066 0)
(4.34873 0.14314 6.1728e-21)
(-5.38737 -1.3015 -3.10684e-20)
(9.14898 -0.542596 0)
(-0.775295 -0.150475 4.48428e-22)
(9.17769 -0.313924 -8.48325e-21)
(5.04924 -0.825213 -2.30004e-22)
(5.33895 -0.781269 8.95563e-21)
(4.21506 2.16072 -5.71601e-21)
(3.99619 -0.950669 -1.14489e-20)
(10.3065 4.02498 0)
(4.64911 0.105261 5.22258e-22)
(-4.22068 6.38775 -2.79357e-20)
(5.99216 0.593156 0)
(5.52157 0.628126 3.08541e-22)
(8.09548 0.106385 -8.61855e-22)
(7.80189 3.47226 0)
(5.99867 0.0218859 0)
(-4.46291 3.29624 0)
(-5.84173 4.94737 2.52061e-20)
(10.1077 4.21015 8.53138e-21)
(8.44437 0.863815 -5.30423e-22)
(6.68977 3.04269 0)
(5.11992 -0.467362 6.66727e-21)
(5.59261 0.200706 2.70726e-23)
(6.82585 1.90046 -8.66526e-22)
(-6.1659 2.39383 2.4357e-20)
(5.72516 0.453471 0)
(5.84691 0.513334 0)
(2.3326 -0.341363 -7.15696e-21)
(4.29773 -1.29875 -2.65554e-21)
(5.86849 -0.483481 0)
(5.23512 -2.45298 -4.99707e-22)
(5.77013 0.0484595 -1.55687e-23)
(5.77624 0.374574 1.05635e-23)
(2.65472 -1.19132 0)
(6.31915 -0.343429 1.34256e-21)
(4.75601 0.209263 4.29856e-22)
(7.81308 0.692206 2.15646e-21)
(5.61709 -1.57808 0)
(1.77964 -1.6582 -3.13506e-20)
(7.42588 -0.345781 1.77997e-22)
(5.9801 0.248701 9.48203e-22)
(5.14738 0.118078 1.53327e-22)
(7.66968 2.29826 0)
(5.05788 0.905157 -3.78362e-21)
(9.18916 1.53005 -3.77228e-21)
(-3.00528 -0.505437 1.72361e-21)
(6.01674 0.129987 0)
(-5.45653 0.839775 -1.5146e-21)
(1.59567 -0.214247 0)
(6.03144 0.124456 -3.6603e-21)
(5.96873 0.153987 1.56713e-21)
(5.6613 0.11302 -8.40842e-22)
(-5.7501 5.54318 0)
(7.76276 -0.0659605 3.683e-23)
(3.37824 1.33689 1.35562e-20)
(6.96187 -1.97956 0)
(4.92679 0.246337 4.89585e-21)
(7.76456 -1.00879 6.32255e-21)
(6.63686 0.072219 0)
(-6.63925 0.541423 7.27482e-21)
(5.63117 -2.32286 -1.0367e-21)
(6.8728 0.0259854 0)
(-1.76273 -2.42143 1.81142e-20)
(5.49599 0.563303 0)
(5.32727 -2.38861 1.8189e-21)
(-6.19984 4.70198 1.14488e-20)
(6.20982 0.545938 -1.56587e-24)
(7.33896 0.537021 -9.21264e-22)
(4.08873 0.834147 2.56092e-21)
(5.31281 -0.852121 -3.24485e-21)
(6.48108 -1.78885 -7.97793e-22)
(5.3383 -2.33411 7.06865e-23)
(6.48379 -0.566745 6.56678e-22)
(7.65102 2.25076 1.91294e-21)
(6.38081 -2.7984 0)
(5.99369 0.038832 -3.46545e-21)
(2.2562 4.86558 -1.12803e-20)
(4.11657 -0.187645 0)
(4.47139 0.6084 -1.95153e-22)
(4.90678 0.0369807 0)
(3.65894 -0.998941 1.01791e-20)
(6.37071 -2.25746 0)
(5.50688 0.0263271 -1.04629e-22)
(6.709 -0.263095 -1.21186e-21)
(-6.97032 0.405426 1.38367e-20)
(-5.57756 3.69063 1.75371e-20)
(7.51515 -0.0656972 -6.59339e-24)
(5.3853 -2.55493 -1.21422e-21)
(5.38526 -1.48679 2.7283e-21)
(4.46978 -0.95732 0)
(1.40805 -1.1052 -7.12448e-21)
(7.0962 -1.81719 3.95841e-22)
(1.49097 -1.3205 -8.34303e-21)
(5.7612 0.43382 -7.11079e-25)
(4.32949 -1.64519 0)
(6.66677 0.0265116 -1.78052e-23)
(1.26499 -0.0618511 0)
(-6.78908 3.61412 6.33198e-22)
(0.444128 1.23417 -1.32039e-21)
(2.32976 2.51076 0)
(6.22141 -1.47993 3.10122e-22)
(2.94812 -5.2064 0)
(7.83882 3.31631 0)
(5.02805 -2.35179 -2.40695e-21)
(4.39242 0.938775 3.92834e-21)
(4.62584 -2.97927 0)
(5.42027 0.486635 -2.29738e-21)
(8.71713 0.185864 4.83859e-21)
(-5.45326 5.44884 2.29556e-20)
(7.78287 4.31007 0)
(6.33488 -0.0181258 0)
(-3.4962 6.12767 -1.19077e-20)
(5.64659 -0.310991 0)
(7.85285 -0.0950583 0)
(-2.2763 7.40963 1.08356e-22)
(6.1947 -1.05345 -2.29508e-21)
(5.18625 -1.16248 2.53508e-21)
(9.74457 0.590689 9.52294e-22)
(1.91306 -0.78772 1.5457e-20)
(5.9518 0.117485 1.79509e-21)
(4.58843 -1.03187 0)
(6.42158 1.46657 -7.1563e-22)
(4.26282 -0.54784 0)
(7.47197 0.00548235 0)
(5.99547 0.319568 0)
(6.53788 0.580808 -1.71482e-22)
(5.62585 -0.120741 2.85385e-21)
(7.48246 0.559882 1.26694e-22)
(4.72014 -1.06517 0)
(0.0216584 0.238878 -1.13111e-20)
(5.91323 3.27245 1.4091e-21)
(5.63184 -1.90804 1.70335e-22)
(7.07708 -0.639789 -2.22999e-21)
(10.5054 -0.795178 1.85212e-20)
(6.19224 0.076587 -2.77772e-21)
(-5.71435 -0.931604 0)
(7.40311 -0.333984 0)
(4.16952 2.51986 0)
(3.70096 -1.63184 -7.13401e-21)
(-5.449 -4.45714 -2.15374e-20)
(3.57466 1.01386 0)
(6.48681 1.47091 0)
(7.56745 -0.694489 3.43931e-22)
(5.91922 -0.0180932 -5.81975e-22)
(5.65156 1.87328 4.32781e-21)
(6.72446 -2.65405 0)
(1.73461 -2.03269 -3.96045e-21)
(6.89103 0.231641 7.80221e-23)
(4.19087 -1.18693 -6.42861e-21)
(6.56206 0.272423 -8.93525e-22)
(6.80003 1.91402 1.53771e-21)
(11.9757 3.38392 2.43724e-20)
(3.65679 -1.61867 1.2348e-20)
(8.35113 -6.7641 1.24733e-20)
(7.78703 1.15229 -1.05751e-22)
(6.00219 0.0165542 -8.59425e-22)
(4.76922 -2.28295 2.62663e-23)
(5.69139 -2.13266 4.39956e-22)
(4.57939 6.17115 -9.91706e-22)
(5.10773 -2.40989 4.5012e-22)
(7.53818 -0.294916 0)
(4.57712 -1.05979 -1.35881e-23)
(6.41468 -0.0132983 -3.10239e-21)
(8.59484 2.52171 1.82756e-21)
(4.09711 -1.07284 -5.98945e-21)
(5.57561 -1.82471 -2.13108e-21)
(6.11766 -0.0341791 3.88303e-21)
(7.87038 -0.191276 -2.23156e-21)
(3.89773 -0.584189 -3.77935e-22)
(8.83355 0.751795 -4.31824e-21)
(3.43754 -0.469446 -1.43822e-20)
(6.60071 0.00265136 -2.48166e-21)
(3.38913 -0.656198 0)
(-8.10568 0.615339 -3.42227e-20)
(6.33211 0.0601714 6.40898e-21)
(4.91564 0.0328173 6.73249e-24)
(-2.27473 5.02831 0)
(5.73793 -2.58384 0)
(6.02284 1.32014 3.62168e-21)
(3.06132 -0.435779 9.1079e-21)
(0.459959 1.33809 -5.624e-20)
(6.51383 -2.00244 3.64317e-22)
(6.72278 -0.886511 -5.7642e-23)
(9.61168 2.25235 0)
(6.02424 1.42247 2.00927e-21)
(-0.339046 -1.5866 -3.41988e-22)
(7.22169 3.15472 7.62705e-22)
(5.93314 -0.712029 -3.14372e-21)
(1.83186 -1.24805 -2.48154e-20)
(10.2844 -1.17273 -1.74541e-20)
(10.5875 -0.0632279 4.6466e-21)
(6.48832 3.57343 0)
(7.89702 -1.8648 -1.88522e-21)
(5.66343 0.0889375 7.6053e-22)
(5.61996 0.153291 -1.79116e-23)
(2.96592 -1.43963 1.19292e-20)
(5.89641 -0.738348 4.76453e-21)
(5.74912 -1.04245 5.09676e-22)
(-5.50061 5.073 -1.28887e-20)
(8.11386 -0.356549 -3.92749e-21)
(6.49643 0.0939467 2.21911e-21)
(-2.02126 6.74635 -1.88756e-21)
(6.94998 3.07718 2.25061e-22)
(-1.25047 -2.29536 -1.96823e-20)
(3.73947 -1.79957 -3.38822e-21)
(5.69459 0.13813 0)
(8.45142 1.12724 1.69125e-21)
(-3.90957 7.33317 -9.25185e-21)
(3.97521 -0.396703 1.25093e-20)
(6.46792 0.441772 0)
(6.28988 -0.702209 6.57754e-22)
(3.51165 -1.39927 2.89338e-21)
(5.99559 0.0801099 -7.65536e-21)
(-3.2789 3.93758 -1.18148e-20)
(4.66094 -2.82625 -2.04672e-22)
(6.56987 -0.467103 1.11574e-21)
(6.75148 0.238512 1.06188e-21)
(5.40571 -2.43041 -2.16236e-21)
(7.64492 0.713165 -2.38534e-22)
(-4.2315 -4.0947 -6.37101e-20)
(6.43614 0.00458955 2.90858e-21)
(6.24207 -0.153777 -1.60179e-21)
(6.37872 0.35154 -7.28445e-23)
(7.05335 -0.00702122 -2.94796e-21)
(3.40183 -1.46493 -5.59326e-21)
(7.65565 1.05033 0)
(-6.7579 4.26887 2.07618e-20)
(6.29404 0.0739655 5.36724e-22)
(3.55367 0.227015 1.23851e-21)
(7.45413 0.169105 -6.84035e-22)
(6.57032 -1.007 -3.92771e-22)
(5.99232 0.0440069 -6.12183e-21)
(6.22239 0.977259 1.04764e-21)
(0.544536 -0.072627 -1.19874e-20)
(7.96079 -0.0782499 0)
(5.09436 -0.759351 4.13032e-22)
(7.50698 -0.38137 1.24965e-22)
(4.36264 -1.60399 0)
(6.32759 0.288281 1.77234e-21)
(7.55963 -0.329612 7.851e-23)
(7.85715 -0.0671167 -2.967e-26)
(8.08644 -2.45088 4.76965e-21)
(6.14962 -0.678681 0)
(5.28337 1.06176 7.03815e-21)
(5.89379 -1.26394 -8.41532e-22)
(4.9831 -2.33545 1.72663e-21)
(6.04845 -0.476789 0)
(4.36944 0.923179 -1.13264e-20)
(1.37482 -1.46244 -3.27092e-22)
(7.07797 4.46322 -2.93153e-21)
(3.46817 -0.523331 1.40439e-20)
(6.85256 0.0751287 -2.83804e-23)
(-5.22549 3.64919 1.29726e-20)
(5.8161 -0.262419 -4.04316e-21)
(9.90838 0.130912 -1.15209e-20)
(5.33263 0.41335 -4.80318e-21)
(6.82852 0.0758576 0)
(6.00166 0.0509724 -3.23752e-21)
(0.372178 -0.262566 3.5811e-20)
(-1.10192 3.33053 0)
(12.913 0.549576 0)
(5.62147 0.149707 0)
(-1.58216 -1.15249 0)
(6.10769 0.939516 0)
(3.27802 -0.441044 0)
(7.99286 -3.57534 -1.57621e-22)
(8.42054 1.36845 -3.41966e-21)
(7.71357 1.23223 0)
(5.27113 1.00909 1.05294e-20)
(2.57422 -2.01711 9.31865e-22)
(6.18505 0.618402 9.95071e-23)
(-3.15813 7.42051 -3.72609e-21)
(3.32269 0.239778 -4.78217e-24)
(0.0485142 0.842245 1.02385e-20)
(6.05977 -0.00337556 -6.75726e-22)
(8.30632 0.215526 5.66015e-22)
(6.05086 0.904352 -2.41505e-21)
(5.61805 0.511881 -6.50564e-21)
(5.75501 3.03595 -3.29799e-21)
(9.91521 4.10638 0)
(-5.90409 1.56077 4.57796e-21)
(3.714 -1.05604 -1.11372e-20)
(6.0069 0.030331 -9.76076e-21)
(7.16919 -1.74178 5.13501e-21)
(6.75998 -0.0204907 5.54563e-22)
(8.57509 -1.20535 -8.02769e-21)
(6.36266 -0.825787 -2.21547e-22)
(6.251 -1.452 -1.02203e-21)
(6.03046 0.51839 2.55952e-21)
(5.25807 3.94803 0)
(6.36696 -1.54574 -6.8624e-22)
(5.07004 0.193559 -1.46947e-21)
(7.0493 -0.113404 0)
(5.59752 -0.85178 0)
(5.7118 -2.56651 -7.85924e-23)
(-6.07813 3.82371 1.51104e-20)
(7.94221 -3.81829 -6.84297e-21)
(5.31175 -0.231944 0)
(5.7328 -0.172566 -5.65156e-21)
(5.40541 0.596511 -1.2719e-21)
(-7.67159 2.73762 1.21984e-20)
(7.69667 -0.23727 -5.62884e-23)
(-0.886381 1.6952 0)
(-6.12087 1.67271 5.32085e-21)
(7.76196 -0.300557 0)
(7.80928 -2.01765 1.96464e-21)
(6.8402 -0.638467 -1.77829e-22)
(6.04121 0.0417117 -6.91607e-24)
(6.93764 2.13524 -1.60252e-21)
(7.75267 3.87037 -5.09813e-22)
(5.23084 -1.42374 5.96275e-21)
(-4.3984 -0.810071 0)
(2.46078 -8.66384 -4.89566e-20)
(2.69179 -4.17548 0)
(7.87865 1.21434 -8.59323e-22)
(-7.75724 3.47226 2.28757e-20)
(13.9649 0.534725 1.92002e-20)
(5.1668 -0.738242 -3.98019e-22)
(-4.4866 6.80629 -2.83036e-20)
(4.51036 -2.11022 -1.99418e-21)
(3.84363 -1.06889 -6.34395e-21)
(4.68684 0.2868 1.70775e-22)
(4.22552 -8.25605 4.00942e-20)
(3.45757 -1.48823 4.59736e-21)
(4.02737 -1.15517 6.7187e-21)
(-5.37511 -2.7897 2.69625e-20)
(7.58374 -6.86718 -2.53549e-20)
(5.53362 -1.62838 2.30108e-21)
(-2.20076 -1.21454 2.81247e-20)
(7.65863 0.157007 -1.32956e-22)
(2.54025 -2.07288 -7.94152e-22)
(6.92673 1.38011 -5.03542e-22)
(6.86594 -1.3598 0)
(-1.33889 -0.53591 -1.80695e-20)
(6.23978 -0.017265 -3.67739e-21)
(5.97742 0.339686 0)
(7.79365 1.16399 0)
(-0.276559 -7.68424 -2.01101e-20)
(9.96773 1.13392 -1.0053e-20)
(7.22947 0.767368 8.87937e-22)
(6.1828 -1.01608 3.00335e-21)
(5.73497 2.95086 3.0123e-21)
(4.93209 -0.0899337 2.2498e-21)
(-7.6051 3.88751 -1.53731e-21)
(5.2788 1.87185 0)
(4.14259 -1.26373 6.27353e-21)
(-2.21692 -0.971978 2.37472e-21)
(-4.69231 6.04436 2.18988e-20)
(5.16017 -1.85009 8.95511e-22)
(5.97608 -2.69696 1.90675e-21)
(5.90292 -0.067374 1.10818e-21)
(5.35257 -0.74002 2.26379e-22)
(8.95921 -1.23357 9.40955e-21)
(-7.12426 4.05407 -1.47801e-20)
(7.17856 0.730125 -6.47056e-22)
(5.80586 0.126585 2.48026e-21)
(3.36635 -0.636998 -5.76811e-21)
(5.67772 -0.234517 3.47173e-21)
(2.85596 -0.628325 0)
(7.17908 1.24733 -2.71844e-22)
(5.92966 0.101545 5.48083e-22)
(4.44649 -0.861667 -2.0353e-21)
(5.55773 5.22277 3.53928e-22)
(5.47536 -1.60688 1.91227e-21)
(6.17848 0.0348775 9.99094e-22)
(4.07566 0.410497 -8.54423e-21)
(7.21239 -0.283291 0)
(5.12916 -0.695994 -8.01085e-22)
(6.60297 0.292343 1.209e-21)
(7.21493 -0.682364 0)
(4.24185 0.0869517 4.81377e-21)
(7.78096 -0.243314 0)
(4.77142 5.18537 3.99863e-21)
(7.51637 -0.108576 0)
(6.3657 -1.73291 0)
(7.36585 -0.139329 1.54636e-22)
(7.16172 0.57009 -1.92895e-22)
(8.79583 1.03767 -6.17531e-21)
(5.74268 0.39238 -2.91624e-21)
(4.46868 3.22018 -2.58175e-21)
(5.94369 0.231345 -1.16011e-21)
(6.17411 0.963967 0)
(2.17227 -4.52672 -1.74167e-21)
(7.46883 0.541954 1.28842e-21)
(7.61709 -2.07589 -3.90999e-21)
(6.86624 -1.36312 0)
(8.6862 2.43132 2.8021e-21)
(6.21209 4.98099 8.81234e-23)
(7.55355 0.139316 -4.62931e-22)
(1.68534 6.876 0)
(-1.02673 7.5507 1.04894e-20)
(6.10441 0.513438 0)
(8.93457 -0.929165 -4.58984e-21)
(-1.71753 1.93391 0)
(8.54304 -2.01704 0)
(7.77374 -7.3073 0)
(6.23242 -2.23342 0)
(-0.0354823 2.45866 -1.71114e-21)
(-5.60998 4.96259 -5.71792e-21)
(5.62183 -0.115217 -4.27386e-21)
(-7.65654 0.463592 -1.71513e-20)
(3.70128 -1.55506 0)
(-7.70831 -0.10855 -1.60287e-20)
(-3.24424 3.22828 -2.02967e-20)
(4.70662 -2.17252 0)
(4.37555 -1.4982 -6.37176e-21)
(3.84228 -0.306838 -2.60757e-22)
(6.89089 1.31227 1.21739e-21)
(7.72776 -2.28124 -4.01804e-21)
(5.57649 0.475068 0)
(6.74055 -1.94753 0)
(9.62114 0.925998 2.75532e-21)
(5.6969 -1.87314 1.05057e-22)
(4.69665 -0.0283121 -3.90856e-22)
(0.12377 -7.68854 1.16886e-21)
(5.98174 0.0112749 2.40213e-22)
(8.47069 1.39602 -2.16205e-22)
(6.0307 0.495666 3.62978e-21)
(5.02766 -0.755938 4.19787e-22)
(5.68173 -1.49053 0)
(3.18422 0.411959 0)
(7.60881 0.621944 0)
(5.09568 0.0846075 0)
(5.17275 -0.919889 2.45286e-21)
(8.71444 0.355487 0)
(-2.23485 7.10063 1.89874e-20)
(9.41539 3.16285 1.97415e-21)
(3.93335 -1.20287 -1.02268e-20)
(2.41144 -1.72896 -4.69811e-22)
(-6.92751 3.25583 -1.0802e-20)
(-1.60297 6.42721 -8.05765e-21)
(6.26237 0.103826 7.9114e-22)
(-6.60232 4.92199 -1.28206e-20)
(4.97222 -0.766525 6.57414e-22)
(7.45371 -0.121496 0)
(7.01402 -0.704542 0)
(3.74724 -1.58115 0)
(6.57462 -1.07577 1.3474e-22)
(6.62932 -5.57955 0)
(5.39039 1.84006 0)
(6.00852 0.00865796 0)
(5.24237 -1.15474 2.37115e-21)
(6.24595 0.579947 -3.41262e-21)
(4.98696 0.0209127 0)
(8.53323 -3.27944 -6.20594e-21)
(5.91336 0.535749 -3.50894e-21)
(7.2324 3.02601 -1.74239e-21)
(4.75069 -2.14222 3.15998e-21)
(5.57043 2.05626 5.04584e-23)
(5.57524 -2.75788 -8.75371e-23)
(5.50851 -0.934615 4.76511e-22)
(6.59952 -2.27819 -1.57545e-21)
(7.08039 0.608909 3.37832e-22)
(4.72019 0.0480795 -8.61992e-22)
(5.46079 0.220232 -4.49037e-21)
(6.35897 0.0064809 0)
(4.96217 1.46969 -8.7276e-22)
(5.86574 0.151346 4.52523e-21)
(0.159718 -2.02137 6.90288e-22)
(6.36642 -0.784015 -7.17803e-22)
(3.13883 -0.501992 -9.90747e-21)
(7.11271 0.511935 -7.47168e-23)
(9.27905 1.63439 5.45714e-21)
(5.99026 0.214522 0)
(4.06618 -0.819435 -8.23114e-23)
(5.31531 -0.366604 -2.41938e-22)
(6.68189 -2.30139 3.39775e-21)
(-6.24519 2.281 -2.77888e-20)
(6.02591 0.0435885 2.1311e-21)
(7.77774 0.948106 9.73716e-23)
(6.77448 0.0685842 8.90713e-24)
(7.40454 0.576648 0)
(2.18538 -1.07646 0)
(4.3966 -2.06639 4.31993e-21)
(-2.95008 3.29827 1.27617e-20)
(5.66891 0.0983105 4.34853e-25)
(5.89992 0.150641 8.9797e-21)
(4.16367 -0.924237 3.56517e-22)
(4.34428 0.815927 0)
(5.38135 0.261497 0)
(4.80857 -1.00746 -9.49559e-23)
(7.20026 -0.061375 2.19291e-22)
(5.70834 1.94375 5.87645e-21)
(6.98033 -0.384223 0)
(7.34198 0.0358966 0)
(6.25462 -1.59246 3.25567e-22)
(5.96402 -0.439849 2.76001e-21)
(-0.846589 1.36239 -4.17361e-21)
(6.56443 -0.419921 0)
(8.43387 -2.05423 4.07576e-21)
(10.3222 -3.00942 -3.05255e-21)
(-3.67056 6.85233 -1.07923e-20)
(5.99599 -0.0638117 -4.35133e-21)
(8.59222 0.713147 0)
(10.2152 0.954519 8.17793e-21)
(3.56205 6.46186 -3.34753e-20)
(-0.63075 0.2475 0)
(5.06008 0.108742 -4.88736e-22)
(5.74354 0.288375 -3.04699e-21)
(5.59886 0.0536171 -1.98003e-25)
(6.94372 -0.562178 4.39103e-23)
(3.70075 3.90968 4.81976e-21)
(6.35044 0.0619764 0)
(3.09414 -1.07538 -1.00718e-22)
(3.86167 -0.784614 -3.97352e-22)
(4.73785 6.06017 -9.77246e-21)
(6.09246 0.911144 2.85981e-21)
(-4.26493 -0.825072 8.77775e-21)
(6.07824 0.0356744 -9.83549e-21)
(5.1188 -0.960895 -2.61035e-22)
(5.30195 -0.877115 4.21458e-22)
(5.15495 -1.09364 0)
(5.47554 -0.0380528 -1.21494e-21)
(3.3821 -1.52793 3.71211e-21)
(6.62021 -0.245902 -2.55671e-21)
(5.94654 0.103611 -4.03536e-21)
(8.74475 -1.07539 4.01677e-21)
(5.00703 -0.423758 9.996e-21)
(7.51572 0.114789 1.63148e-22)
(5.34116 0.296164 2.65621e-21)
(4.39562 0.549832 -7.67512e-22)
(9.65462 0.869025 -1.05303e-20)
(7.05749 3.32333 -1.13446e-21)
(3.32382 2.98011 4.42451e-20)
(5.9685 -0.0821502 0)
(4.17525 -1.46669 0)
(6.85064 -0.15922 0)
(3.91846 -1.08398 7.95642e-21)
(6.18551 0.05779 -6.42305e-21)
(5.36081 0.650312 0)
(4.5637 -0.911986 -5.84254e-21)
(5.35204 0.588618 0)
(5.21235 -0.826702 -4.00231e-21)
(7.55129 -2.18646 -4.31578e-21)
(5.59286 -1.35736 -2.58281e-21)
(6.462 0.0620608 0)
(5.8391 0.0959205 0)
(7.20924 -0.780048 1.96526e-21)
(7.62444 1.06471 8.67448e-23)
(8.43237 0.0903466 4.4966e-21)
(6.58353 5.23281 -3.10616e-22)
(6.89939 -0.455616 0)
(5.19839 -1.79269 -1.43725e-21)
(-1.7846 3.27701 0)
(2.55596 2.39731 -5.12554e-21)
(7.84563 3.83564 0)
(7.67532 0.87037 -1.75585e-22)
(3.45586 -0.407081 3.74299e-21)
(4.56842 -0.374692 3.43908e-21)
(6.24136 -0.498325 -2.00947e-21)
(10.9213 1.26789 -1.17141e-19)
(5.88698 -0.507382 7.00371e-21)
(6.12636 0.949789 -1.02695e-22)
(8.2802 -1.17508 9.84102e-21)
(5.97234 -1.15471 -1.10054e-21)
(-1.22741 2.12686 6.98075e-21)
(7.74397 1.62224 0)
(5.94648 0.104037 6.30137e-24)
(4.64738 -1.08137 0)
(5.30781 -0.810238 -4.66305e-22)
(5.26824 -1.78632 -6.92162e-22)
(5.04097 -0.34069 -3.25527e-21)
(5.61686 0.0583653 5.36731e-24)