/*--------------------------------*- C++ -*----------------------------------*\
| =========                 |                                                 |
| \\      /  F ield         | OpenFOAM: The Open Source CFD Toolbox           |
|  \\    /   O peration     | Version:  2306                                  |
|   \\  /    A nd           | Website:  www.openfoam.com                      |
|    \\/     M anipulation  |                                                 |
\*---------------------------------------------------------------------------*/
FoamFile
{
    version     2.0;
    format      ascii;
    arch        "LSB;label=32;scalar=64";
    class       volScalarField;
    location    "2.3";
    object      p;
}
// * * * * * * * * * * * * * * * * * * * * * * * * * * * * * * * * * * * * * //

dimensions      [0 2 -2 0 0 0 0];

internalField   nonuniform List<scalar> 
13486
(
39.5173
38.7704
1.94564
-251.971
-24.7766
8.45592
-40.2087
-4.67696
12.5675
30.3733
-29.3745
7.72417
40.8855
13.3332
-17.4859
31.14
-69.9179
2.64853
6.70359
36.1604
-288.86
40.0932
38.2524
-34.412
26.6963
-42.4175
13.1049
-23.7527
-1.49823
-50.5813
-278.929
-0.833534
-9.95901
-27.2962
-4.55081
-0.37154
-1.89773
20.4362
-2.61008
16.4648
-77.5253
43.3373
-1.44622
26.1487
26.071
7.83598
-182.707
-0.936067
-1.78851
-7.19989
28.2469
-4.43838
10.794
22.1927
-11.2641
-21.8051
-0.7701
-3.97075
-13.1248
-1.74293
-18.7028
-1.92249
-35.8179
-286.966
-231.186
-1.97257
-253.361
43.9977
11.9136
-1.62074
-246.077
-6.29408
20.8967
-60.1725
-2.11892
-2.49655
-2.21608
-20.4785
-164.082
-41.4049
-0.175385
40.5067
-41.3967
2.79206
39.4582
37.6526
2.16553
27.9343
32.353
35.7939
7.37437
-11.0005
35.1489
37.1964
11.2578
-0.325115
9.31395
-247.633
16.5096
-70.6056
-0.138222
14.3862
-257.842
-3.86009
44.8745
-77.265
28.3644
-3.01704
-169.347
-20.312
4.86019
-12.5947
22.1854
-4.38906
53.1023
6.33136
27.4924
-26.6416
21.1845
-1.96946
3.5994
-30.1573
14.8947
-2.95374
4.9682
-3.82512
3.20533
17.2651
-21.1661
-307.646
-3.88785
-183.989
-58.1854
-48.7827
28.4323
31.9487
62.2606
-18.6177
-1.90466
-0.701714
-11.1794
10.325
5.82321
-35.5163
-0.51568
8.29141
3.4252
64.4689
-7.46144
-0.480271
23.9349
-29.8268
-0.0955477
41.8613
19.4256
1.8903
-32.3418
-155.131
13.5376
-0.22122
-1.81419
13.5758
7.98668
42.2782
-4.45598
8.36586
16.1675
66.0044
2.71617
-48.5701
-66.9638
19.4255
26.1095
0.594277
-0.328555
-110.85
13.4929
-9.25749
28.0166
6.21558
12.3144
-4.20736
1.61757
-48.0703
4.12623
-22.9829
-0.711762
-35.5674
-88.0061
10.9828
-1.94316
0.390749
-5.39422
51.4449
-7.11715
-39.3834
-274.372
-3.07846
27.9128
10.101
-276.816
16.9952
20.3736
-44.7306
-1.74206
-7.62345
-7.50262
26.2491
-5.20333
4.152
-28.4136
-161.541
35.7488
28.412
8.39365
-160.756
-41.9569
35.9746
31.1637
-17.2237
-82.3833
-7.43496
0.752098
-2.53337
11.0816
33.8649
5.3552
-286.879
-55.5272
1.87307
12.1111
-159.911
-11.4513
45.2463
-329.74
30.7362
-32.976
0.61597
31.4766
4.72742
-13.0497
25.8924
-2.17666
27.2611
-1.5897
32.3366
6.27017
-54.2876
-47.7179
27.4619
-109.794
54.0391
3.24193
-3.60574
-32.6316
-68.8867
0.811932
-166.911
-131.322
-12.165
35.0983
-1.32855
-16.4046
-75.7076
-30.0957
-46.7435
-51.3817
-322.462
21.2517
9.88316
43.725
28.6546
-41.5491
8.89355
34.0318
-61.2259
-31.7226
-117.662
-4.073
5.31119
-136.319
9.87724
29.241
32.5273
-41.4145
-15.2359
-9.7861
-22.2448
11.3659
21.6699
-324.9
-0.756141
9.88971
28.1196
-32.9502
-34.9198
-3.01508
8.65262
29.0283
-65.22
8.4846
-11.7691
4.11827
-1.58955
-1.71831
-47.1046
-216.854
6.23065
0.476878
-1.91015
-19.7811
-245.106
17.7865
-9.59065
45.1747
32.3726
-0.521222
32.6491
26.9276
-52.6816
-2.00166
-0.858499
27.9851
38.0319
63.5978
7.23193
-6.20919
9.2646
7.27843
-8.75758
27.931
-13.4793
8.30675
46.2312
-42.454
8.33868
53.5018
-28.4653
25.5918
-1.09937
-50.5441
37.9143
-11.0116
1.06418
-40.2366
-0.694154
3.95026
50.3008
-17.7781
-0.471264
6.718
8.46879
9.00918
1.06578
28.8113
-1.28579
-47.3076
3.04055
0.169766
-172.314
6.46686
9.98134
33.876
28.7161
-49.5333
-0.0348472
-35.896
-189.445
36.7729
3.43716
-1.43981
4.6972
11.5732
-92.4034
11.5188
27.9741
27.8465
-0.73434
40.7936
-27.1338
20.1973
-18.7965
44.4703
43.8693
-190.42
-30.4198
13.3381
25.3349
-101.6
-220.755
34.5872
-35.3986
21.642
33.2853
47.9781
-2.23243
-253.377
-93.9021
-106.366
-10.5324
-104.682
27.9096
15.452
-213.514
-37.679
7.15612
36.8327
-10.242
6.19027
38.0982
24.0378
14.1447
-28.5987
29.3302
27.8388
48.5832
-51.6335
-29.0993
-95.5679
4.4428
28.1089
-22.1696
50.7355
26.2564
2.61218
-37.1054
17.1734
29.4698
12.9912
17.2028
40.227
15.8264
21.3308
11.0112
-34.7484
-53.9128
45.144
-0.704325
0.842044
43.2942
-176.82
-36.126
-43.5918
-30.6037
1.86342
24.0145
48.4599
40.7167
-26.6329
-1.90651
-39.3128
26.0155
33.0393
-7.94838
2.9505
28.2565
-108.544
-107.567
19.384
8.55607
18.6003
29.6035
-0.350587
17.1847
-263.741
30.8856
-0.71407
59.8705
34.5113
18.263
-9.23848
-0.311153
-0.373354
53.1423
-12.3569
-1.96576
2.13384
8.62641
-28.6931
8.78226
26.4213
-1.40765
6.18508
38.3568
-12.6156
-102.484
25.4931
-221.477
65.437
25.5893
28.3498
29.6392
-93.8989
4.42955
54.8655
-34.5362
37.2924
-60.8471
18.1323
-322.713
-28.3472
-1.37113
-71.2777
33.2801
5.51275
-107.845
-0.575229
7.40815
47.8462
24.0853
-28.3703
6.82268
4.12194
6.97631
-31.6518
28.0693
-85.7242
44.1665
-3.07497
-1.77718
43.9158
-18.0508
-0.450564
7.32943
-324.293
-135.794
6.10791
-24.1655
15.6871
35.1985
-29.7512
-39.4562
-30.1368
-0.534545
30.9321
17.6088
-54.4181
-253.014
-21.5931
-132.71
-3.30873
-239.2
2.65405
6.91168
45.3926
-43.7234
33.996
5.0449
-69.149
-1.04032
20.5081
-36.7324
24.5232
3.98504
-19.3972
3.83227
20.5072
-12.7627
-35.8396
28.3632
33.0296
21.6629
40.3111
3.98885
25.9201
17.2234
27.0058
-2.16594
31.0773
7.57435
28.1454
4.60634
-19.9682
-67.8769
27.1852
-171.513
8.7657
47.6199
39.0401
-181.602
-101.567
20.9294
11.6081
16.8939
32.6674
-55.6396
-32.6573
11.878
36.5968
15.6546
17.5911
-64.5966
39.4257
-375.834
-3.13586
28.2534
-11.6855
-28.3577
31.3098
-4.71292
6.34187
3.26122
19.9936
-5.80552
38.5346
6.64335
8.76299
9.50554
10.8234
-9.08099
49.4578
18.5639
48.8076
-301.732
23.3819
-0.414091
-55.3646
-25.3802
27.0978
53.1802
-131.253
-19.4162
-7.9596
-20.6346
27.2799
-1.16983
11.607
14.2154
-33.2559
-65.3148
-41.2968
20.0471
-52.5593
29.2592
-0.286472
44.4417
15.0928
-0.523319
-78.2196
-28.3312
18.9156
-42.3907
15.33
-67.0295
30.2156
-0.0447641
-0.338243
-21.169
44.4225
-0.883146
12.7818
42.9536
28.2161
-56.854
-36.6958
5.39614
13.7727
3.0764
-2.17701
-193.461
19.85
16.8376
18.5574
12.8258
43.9658
-3.20786
-201.694
27.1877
-16.8578
6.98929
-5.30374
26.6113
22.9878
-55.3278
4.1058
-0.867026
8.38486
30.8241
18.7624
7.05436
3.11924
-91.4613
-8.91129
36.4708
-1.85813
0.908091
15.3698
45.2471
8.41716
9.28151
48.7592
-1.12333
-118.293
22.2337
-33.0301
34.1346
-0.628531
28.2404
-247.271
-44.0526
-110.963
-0.17187
-91.5771
24.9219
51.1988
-162.207
14.1566
4.43898
36.6747
4.33143
22.0611
-20.8755
53.2908
-57.0296
6.68304
-8.65705
25.7208
32.1299
30.4466
-19.7974
-256.534
42.9791
28.276
-39.5267
17.2633
-94.6643
3.56391
-3.80625
25.0862
-36.0469
-22.1262
35.7618
-31.8549
-4.49832
-6.35056
-138.994
-177.81
-2.53189
25.2538
34.17
-294.219
4.75631
-60.0001
-254.735
6.33676
-56.2346
9.42041
28.272
16.152
1.70731
19.0975
-139.493
-265.651
-55.617
2.40315
-296.391
-106.343
-1.01167
-41.5049
2.9292
41.4297
-2.1332
-292.481
42.9822
38.7758
-179.993
-306.39
10.2513
-189.588
-0.459665
1.90128
14.7916
-22.4449
-98.5603
21.2879
26.1054
3.33133
-146.246
-16.9192
9.3159
4.74463
30.8416
7.77168
-250.111
36.438
36.6138
-61.0418
-42.6498
14.7831
-55.3876
8.73569
-2.32688
-46.5109
-229.773
9.66716
28.6646
49.3679
24.5781
10.923
11.2664
28.036
36.3108
26.7762
12.3838
25.187
47.0649
-32.176
-0.984819
15.3468
-18.1197
44.4141
5.08971
35.0357
8.78023
-23.1649
7.31898
9.99055
-7.62715
30.6451
45.4931
26.4213
23.8342
-80.6463
5.72393
-52.2142
-23.5596
-7.20649
17.7286
-1.01479
-20.5215
-6.27356
23.7844
-41.3107
-47.6453
-60.7825
-381.621
-13.387
-36.8516
-124.69
27.3705
-338.41
39.5426
-267.485
-49.6495
18.1016
31.7391
-2.14106
15.1466
-73.9045
32.4185
-24.7323
-15.6534
-20.0136
-1.72139
-178.994
28.2677
-2.06258
24.9138
-0.859347
9.24839
6.20209
-2.01069
-1.24745
24.6771
-11.6921
-30.7683
-117.726
39.616
5.05199
-200.169
-14.7699
24.9455
-161.518
-0.833201
7.16877
-14.2175
5.11548
-6.28184
-256.863
35.9958
28.3104
19.9018
22.3461
-1.70526
-159.591
27.9252
11.8135
19.1867
33.1054
-41.1578
-3.568
-39.6359
10.6399
-1.74993
32.0399
20.4365
-21.8322
28.6103
1.88269
4.3484
52.2103
9.83648
-13.8567
25.9334
5.68641
-2.20324
-45.2347
-276.252
24.8345
-1.79905
-1.04226
-2.30682
13.5348
24.2063
-59.4057
-0.0642216
28.5581
5.28604
45.8466
32.9313
29.9665
6.94469
32.3034
5.85881
1.28225
-9.46095
17.2272
-183.867
-19.4942
-72.853
-189.802
-20.3679
22.6275
9.50488
-8.00595
-25.7596
-201.162
-1.35295
30.2974
-0.719599
7.64887
-40.0114
27.7868
49.4669
6.29443
49.5083
25.5719
-109.406
23.797
-0.917091
-1.84973
22.2987
-5.8862
44.0345
7.76602
28.0669
-40.2983
31.967
-0.536136
33.356
-2.74895
-10.9526
13.8094
-130.266
7.88129
2.59776
-144.563
40.5618
27.8165
34.8994
34.4188
34.9503
25.2297
-57.2765
11.8231
27.928
28.1409
-18.2319
5.09761
-14.1964
13.5906
5.54692
14.789
-43.3287
65.67
1.02479
-2.76503
49.6017
38.2412
-17.6527
-149.89
17.9755
24.8226
-94.288
7.65711
-40.3619
4.88836
28.0257
31.9815
-1.99418
13.6164
31.639
-0.0805222
-1.07785
34.2817
5.53559
-1.86651
-40.8378
2.87535
-7.15546
30.6766
40.1793
-1.32533
-151.483
-70.6205
3.2036
-2.80806
7.17344
43.3898
-3.31328
57.471
23.0809
6.77446
26.62
-56.7418
-31.7288
-176.325
25.0619
-2.19057
-41.9504
-247.146
22.5063
27.2787
-0.985201
-17.097
-176.244
-14.3928
9.13095
-0.828158
9.00315
6.01898
27.942
29.1665
34.1133
15.6551
-16.7924
-17.071
-10.7124
3.66954
-193.198
26.0712
8.42197
-276.53
-1.6482
-1.24541
10.7618
-11.8485
8.49391
26.423
-1.38649
-71.6747
1.65975
-5.65563
-37.7855
9.19234
2.05243
13.6615
26.7105
24.2435
-45.3194
28.0848
-2.26764
35.7475
21.4127
23.8683
14.1064
9.97864
44.2329
56.4221
13.0874
-30.8186
27.0605
6.49823
44.5281
-11.0676
-11.7139
-16.7181
8.21125
6.79504
-96.4205
27.7285
22.2315
3.68032
-64.6326
-7.07866
16.5253
51.901
15.0448
28.5524
-114.16
30.7132
42.577
-12.1683
2.01992
-146.675
37.8442
6.36923
55.8619
1.36415
-15.172
22.7743
9.29028
-37.8374
-42.2717
8.87588
34.2207
0.316425
-27.2012
39.0596
36.31
-8.555
-23.1462
0.775964
18.0071
17.2334
20.5371
30.717
7.33851
-8.73929
34.3713
1.75436
-17.596
-5.96871
32.6882
23.1524
44.7762
-203.409
-0.464194
28.2405
41.5564
6.49235
12.73
-8.22308
52.3409
-43.9829
-10.5812
44.8451
28.1087
8.28005
5.55751
-257.465
-11.8776
-313.375
-38.7577
-1.10357
-133.685
12.5297
-175.14
-187.216
-84.8958
-50.6898
-84.9721
-102.375
-104.721
51.1771
30.6463
-33.6222
-185.135
1.21761
17.7456
-20.7355
57.0196
-13.8358
-9.2305
28.2104
-139.216
-118.806
-6.51871
-8.27028
22.3683
59.1081
-0.929829
-12.1963
-37.6836
4.43332
-10.6612
4.29505
5.02361
34.6733
32.0262
29.5676
-308.87
-19.4964
-0.349898
11.0336
27.9738
10.4491
30.0366
53.6703
47.6386
-121.281
28.2051
34.4785
-9.86951
29.9001
-2.44188
46.4887
29.352
12.532
33.6819
24.2977
-4.99924
0.798504
33.6682
-16.6699
10.9412
-27.042
-17.9544
8.00341
23.8845
-2.8035
6.26343
43.5592
42.7309
-5.40656
-46.1305
6.76414
-106.774
-14.8857
31.2275
35.3256
-45.5326
28.4604
10.2018
4.3729
11.2896
-36.7197
-183.421
-1.23383
58.3085
-18.2245
1.26769
37.5193
7.54664
-2.32271
22.4582
8.61512
27.697
-48.3402
-37.0377
7.36971
-4.29276
-13.3369
-8.0003
50.3488
37.9321
21.582
66.73
42.0309
-13.029
-2.90819
-9.35823
-1.27679
43.7447
-255.776
18.0918
6.92254
-59.4768
-13.3225
26.2233
-144.211
4.75808
30.3003
59.7491
-1.33547
5.25418
8.60786
15.2392
1.89252
-349.767
42.2021
28.7467
11.0668
24.9254
-168.416
-41.4235
-87.8221
47.3884
-3.72431
55.3917
-139.936
11.8655
-109.96
-33.3801
-41.6402
9.87464
-4.53591
19.3501
1.57319
19.3546
-318.243
-0.0564616
-205.4
-45.9097
-22.6668
-21.6509
3.35009
-8.93297
-228.342
-30.8811
8.21163
9.60431
48.4818
28.1367
2.07456
6.25481
66.6793
17.4856
1.2328
-0.501056
10.6455
27.9806
11.6561
34.4987
-8.07547
-8.52508
-8.49144
-0.0567821
7.06736
39.3494
-48.7598
-39.6257
-110.316
48.3471
-232.671
8.38039
30.2594
-153.795
0.240433
-1.97817
-31.7374
-20.218
-0.187711
26.8867
20.0164
29.6719
-18.4441
-42.3145
-20.4811
-138.497
-70.0269
-20.8375
8.08265
-410.218
-0.836193
-263.53
-9.20206
-30.748
38.5037
-296.377
48.5452
-34.8563
-168.553
-2.44493
8.53643
32.5318
4.41926
40.8323
4.34606
-285.073
-37.5457
28.6829
-46.5634
26.8282
-0.925575
43.0029
34.5005
-1.19848
24.9525
43.7554
15.6323
25.3489
-19.5144
-153.119
1.48633
-33.2365
-4.91093
-15.7728
-16.5588
2.13494
-40.3844
7.33734
-1.43357
-2.55723
-12.5697
-27.7176
46.38
3.82408
-0.825906
8.57819
28.238
-326.628
-1.75525
16.704
3.56638
1.65662
6.60366
9.27117
28.1716
28.3117
-0.754731
30.3097
32.7222
19.7615
-98.1802
-1.57587
19.1359
8.54029
-7.73646
-125.286
-220.819
-15.5058
-259.888
-0.0415299
-4.07837
-3.95381
-35.1474
-6.61995
-4.32197
-0.623086
-412.762
20.4378
-37.5124
30.0999
67.1832
21.9042
-228.517
23.3102
16.2305
6.86637
-1.34697
-75.0877
-35.0225
4.60967
28.8278
-1.93615
42.0561
-1.16226
28.2312
-1.80636
2.27747
-134.444
-28.3859
56.7009
-221.591
28.2478
28.5733
34.4937
4.22973
28.635
10.5795
-95.9427
15.1063
-2.76616
-58.8277
29.6111
28.1481
-18.3447
22.032
34.886
-91.8998
-177.312
-3.00323
-1.91427
31.4016
23.7172
33.2859
2.94538
12.8183
-28.6794
-21.1036
-143.673
33.5571
54.8175
-76.0896
-50.2391
-129.949
5.71617
3.80702
3.97423
-39.3167
-11.4599
0.3753
-149.608
-5.41061
60.8318
21.2058
3.62083
-304.29
-172.701
-62.2364
-114.362
-22.2402
-37.8845
37.6054
23.438
-25.0085
53.3922
-0.540526
-41.3977
-274.755
-59.8171
16.0201
-35.4465
19.5169
11.7131
1.42556
-90.6888
-132.85
-3.35855
-303.328
34.1781
-14.3674
-2.02317
-96.8039
28.6816
26.0337
-223.976
30.7011
23.3685
37.8231
44.0024
16.1061
8.13467
58.6892
-118.468
6.80547
-57.544
15.3949
38.4706
-264.213
47.1483
23.0239
-11.0618
-156.547
-181.358
32.6039
-214.361
-341.34
0.881012
7.93791
3.62494
25.0483
15.9772
-3.21883
48.3612
-50.2792
-32.0064
24.2499
8.32956
30.7569
-139.069
65.8457
-2.34301
-1.58998
30.8518
-7.25968
28.2319
14.0636
21.9601
16.2432
9.10756
-11.3983
16.0024
6.96325
-174.787
-1.01351
13.8606
26.7904
29.7784
-207.604
1.95999
-36.2717
24.5754
10.748
4.97858
29.3138
-160.226
28.1252
30.253
-78.4942
40.2733
-180.276
56.1859
18.5942
-8.38039
-1.09516
-1.9393
31.5541
32.4321
-24.572
30.1802
30.8462
-30.9834
-2.22266
6.75003
11.7317
-33.0473
-93.29
-17.9975
-290.652
28.6443
-112.988
-118.126
-162.058
35.238
31.9348
33.6381
-114.197
23.182
-13.9512
3.24075
23.9051
-201.894
-205.805
47.7269
4.34592
-54.6611
-17.2764
-44.4399
-146.432
28.2473
-87.6384
-44.0634
32.683
-5.67063
27.8574
-99.7003
5.01996
52.0586
-32.2069
33.0948
2.07595
-144.406
19.3145
6.92052
25.5071
52.2865
20.4588
5.27118
54.6452
28.1529
36.9037
-143.905
-129.043
-22.1142
-14.0826
-122.402
-1.64801
-10.9378
-3.62722
4.48935
6.43412
-14.9466
-6.28239
-163.774
-12.1297
35.1597
-21.0543
8.60525
25.1886
28.0432
-14.7751
-1.48175
-236.516
-122.7
-124.728
-41.7122
35.1568
16.7931
37.8343
-53.9803
28.2586
-21.9479
-1.39563
-57.1773
21.1121
24.6458
17.3106
8.84511
22.6131
-2.98784
33.0181
42.1699
-146.879
27.8535
-105.577
29.9793
13.5068
-43.5057
-15.6089
11.8479
-10.1891
1.20433
11.4153
-6.35508
14.6664
24.6612
12.9765
-1.95406
1.04853
38.5186
-176.555
23.9776
-0.480571
28.3776
22.4515
24.5355
11.0012
-88.4135
-326.325
-0.522135
-56.7918
-252.028
-196.48
6.66522
-170.846
28.6728
10.6117
28.2271
-188.312
-13.0229
-24.868
-2.28378
22.3523
-18.5091
16.9058
7.36871
-50.5533
-133.306
-176.23
8.77527
28.447
-1.77278
8.1287
-30.9951
16.8892
-95.8671
1.33554
-37.5933
30.5913
5.6421
-2.31424
26.8941
14.8855
25.2636
39.494
42.4876
-30.128
-1.36965
-131.3
2.94849
25.2493
7.28528
-76.4256
-7.74215
-29.5929
-10.3012
0.899328
-22.1184
59.7909
-23.315
21.8962
6.2424
-310.225
-3.86736
-1.21127
-15.1174
14.7936
8.57806
30.1082
-1.0033
28.2809
-27.7099
-46.0533
-202.861
-13.2807
-0.796832
21.4144
51.3301
28.3476
-29.0533
-75.4714
30.5301
10.5799
-126.132
0.279843
-14.5954
-139.015
-8.68612
4.45315
-25.7628
8.70331
5.32178
-15.3067
6.86849
31.3618
-12.1304
-16
32.3153
-3.27848
-42.6819
-2.27972
6.10382
-2.2645
55.2483
0.49488
6.69741
-9.18362
-1.69259
-12.201
13.2555
-10.782
0.77692
-0.512941
-14.0434
-1.68969
-40.3989
33.892
12.1203
16.7624
-105.44
-29.6927
52.7698
-212.968
21.372
21.4305
18.425
-5.75615
5.59799
-138.371
27.8928
29.5223
26.8547
17.1154
-198.7
32.2005
15.1249
42.5859
-34.3599
30.2621
33.5784
29.2183
9.94289
-57.5562
19.1718
-47.9527
-5.49336
23.0307
25.4783
13.849
37.5717
8.23974
42.2032
4.70943
23.1753
10.2781
6.77127
36.4831
28.4951
2.054
24.1497
54.9479
29.8938
8.26079
-20.9908
5.55957
28.2745
-2.34507
-103.427
9.18895
0.169528
32.4486
-209.334
39.4521
17.8355
67.8051
46.1356
-13.5394
-21.7613
38.9174
13.3397
47.1774
2.1659
10.6495
-14.3573
61.1371
25.7926
7.53541
53.4164
-2.97816
26.0231
-38.6937
20.7914
-1.58315
14.9226
20.6046
29.4976
-4.08845
-157.021
6.89622
-153.465
0.885736
-77.8909
1.67939
44.901
36.3467
-17.0971
-49.8537
-15.5225
25.0228
11.1191
10.7477
24.8156
-121.307
-67.056
-317.04
30.1921
-25.5204
-83.1028
30.7622
-3.32301
5.45726
-17.3973
53.1914
-191.88
37.8802
-55.4652
57.102
-90.2409
-2.96037
-1.43191
-0.479117
12.7561
28.2701
12.0905
-68.5158
7.31798
-106.188
32.9768
8.52683
11.7643
-189.284
-41.416
-57.5081
20.9024
-25.4572
-0.634458
-3.41183
28.7428
55.2329
-149.689
-1.15417
10.1922
-91.251
22.5803
-0.931664
-16.1529
-45.017
-152.684
26.7763
-158.435
-102.555
4.04298
5.88613
-169.954
15.3302
27.7292
23.1401
28.0736
51.8795
-16.9391
58.8549
-39.2817
54.5137
-19.5274
-5.28463
48.9478
22.164
-209.143
4.86266
-4.23586
12.3148
-204.548
-87.7095
7.91226
-31.4051
-42.3907
-0.357785
-42.9494
20.9614
21.2541
-4.58014
21.4744
-25.9187
4.60647
-188.746
-2.14942
5.19275
-199.418
-15.1519
48.6472
-1.60091
51.7648
6.31186
-9.69425
22.1351
-3.40298
-1.71556
27.9725
28.5901
57.5879
27.7018
32.6763
-23.7525
-47.4343
55.7633
55.6873
32.4189
-0.563287
-193.428
-44.8526
11.6703
-11.9651
-1.4402
38.9683
-261.994
-1.85212
-16.8383
52.5477
14.9278
14.7177
-341.535
6.06339
36.1686
63.6851
59.5545
14.7839
22.7484
-19.3184
-34.6058
26.7287
60.5515
-82.29
-1.37059
-6.69992
-0.376239
9.02622
7.63339
3.21873
6.82568
11.4323
6.50968
-2.84476
19.988
33.4024
-59.4966
23.3116
-329.014
1.62709
45.681
17.8769
1.05502
-62.4251
22.7831
24.672
-204.71
-66.0106
-0.649955
11.2949
65.2148
-125.759
-7.4531
-120.434
5.4962
-99.7722
-62.0805
-228.795
0.275853
-2.52711
-38.7779
-1.75689
-33.9695
24.3831
-0.246017
13.9415
63.4143
15.7067
6.99374
-112.744
16.3704
-42.7348
-48.1143
43.9576
25.4278
7.06843
-29.9091
20.7416
25.4022
-94.7331
-15.9084
0.0725042
44.1767
-15.8047
28.1885
12.5434
40.2403
10.0989
-304.162
15.5302
28.9092
-25.3556
29.5396
-2.71848
58.0045
-262.09
5.60103
-37.2712
27.0264
-238.185
-7.16619
-278.724
6.58434
-40.7884
-154.755
-190.965
-7.85391
9.82404
-201.79
-2.12318
12.1098
-62.1007
7.59613
-287.767
28.6678
54.1315
4.29448
-41.7706
9.83734
4.39311
2.4166
-9.46473
0.384074
-26.9285
2.35779
-176.326
-42.0458
13.0886
9.4041
-148.012
40.5015
6.67638
27.9058
11.7175
-190.384
5.95972
-2.35584
-45.6692
-2.55503
-19.9497
-189.181
35.2381
-192.731
-29.3577
-12.4834
33.284
-43.751
-1.56781
66.3284
-1.03715
-19.7907
28.2503
53.8797
45.9067
-265.817
-37.3916
28.0819
-1.8705
2.31992
53.6332
4.61606
-3.21368
67.5264
9.08311
-55.6098
15.8624
42.835
29.4447
9.99149
44.455
26.5627
-8.39443
0.0408517
22.5584
8.08728
-118.287
50.777
20.7655
6.97133
-3.0501
-166.949
-2.58805
-348.12
-50.8725
8.41284
13.92
31.7322
16.109
14.1842
45.9216
48.7628
0.588102
6.74017
-48.7725
-22.4319
-2.54243
25.4725
-166.725
-11.5368
21.1105
55.8748
-2.20106
19.8936
24.6092
26.1736
-7.72457
9.68742
-53.9988
-15.56
-27.7857
-3.6823
-52.2787
-18.9538
1.7534
-267.419
27.8304
-169.235
-1.26405
18.5323
-42.4451
-316.804
-107.228
15.7833
-32.7999
1.59165
21.303
-55.291
0.671941
-13.8685
-40.8348
27.3349
-37.9844
54.5302
-2.62216
60.2338
-0.098526
0.417329
6.17912
28.4515
6.67847
-45.2542
-17.6964
11.2152
5.87188
-2.76495
68.636
26.2209
-19.3317
-17.5774
-10.0185
-5.07867
15.9692
-56.4293
25.7804
-346.906
-317.577
-49.3488
-51.8561
-12.3208
-51.2881
25.4068
6.36444
46.0856
56.3482
-105.756
-20.9636
13.043
-7.41166
48.1645
-81.4608
9.93091
21.3638
26.7411
-252.777
-108.086
10.3782
-4.28091
0.786188
-236.719
-54.1817
6.67081
-3.08276
-32.5573
8.62969
-34.1121
-28.6171
16.3216
-227.671
-326.747
-125.817
2.3073
57.5991
-13.8699
28.5953
-365.34
-1.11921
10.2619
-14.095
19.0116
-240.327
-143.305
47.5287
26.7949
12.3379
-66.0134
61.4881
-291.974
-97.0319
-326.21
-19.9663
-222.5
-296.137
41.905
11.6531
8.15484
21.0222
-263.708
-21.8759
2.74032
6.53403
-38.7515
12.6602
21.4662
16.6019
-164.656
-66.1585
-74.9927
-96.1228
-8.99415
-7.82558
58.2284
26.1764
-22.1044
-23.4445
17.6797
44.2318
-8.68391
-154.935
-18.5289
35.596
11.8878
-32.9325
29.7555
-61.0596
46.9098
-13.6874
31.9696
-44.1894
-31.626
-2.59518
-348.104
-22.6308
19.9967
-151.986
-187.259
23.1814
-98.428
9.32757
36.7449
27.2989
35.4322
28.1821
-13.0708
-6.07591
13.0001
12.3366
-0.121838
23.0837
-9.56506
47.7437
-260.701
34.1474
-36.5038
53.6751
-259.86
-1.69139
51.6104
-270.804
-12.632
-10.0239
36.3536
50.9962
28.4492
-14.7522
28.099
28.6441
-203.826
25.0139
-280.374
32.1429
-289.373
-226.128
-46.4144
-66.1312
27.9005
-33.4525
-100.584
0.79377
49.9645
8.12252
12.1655
-88.5826
-5.98053
-6.17089
-99.1881
28.4749
13.2691
-114.241
59.6725
-5.88575
44.0555
31.3255
-2.29324
-1.363
4.80556
-17.688
-120.098
0.476561
-2.32121
5.89893
12.7931
-286.909
58.4968
33.137
-2.24058
-107.117
13.1247
-200.973
28.0423
26.6937
6.79668
-3.23682
26.3069
15.9234
-8.95969
-47.5843
-9.85811
18.0052
46.9923
-85.8424
52.0543
62.2256
54.1648
-73.8539
27.3192
-43.1781
27.8726
27.251
36.3648
18.0097
35.0831
63.4184
29.7477
-108.992
-87.1406
-128.233
62.9492
2.07932
-73.8694
-202.481
34.7253
46.4682
20.6455
-1.5325
-13.3132
41.7123
-9.02199
13.7112
-198.888
21.7472
-1.94598
-58.956
4.6526
-51.6817
-52.4192
-194.316
-78.0811
-46.8777
26.6061
10.7164
7.68089
13.7817
36.664
-23.591
-2.44115
33.8264
-43.1482
-132.104
33.189
42.9035
-297.858
37.6647
32.9529
45.0655
-10.5589
-64.3937
17.9225
-112.362
36.4553
25.008
35.131
28.2492
15.6093
34.9282
8.29296
29.4882
-0.277764
22.5832
-25.4846
-41.539
15.5546
-9.95859
28.7539
-9.92207
-245.888
-19.3725
50.7817
27.2459
23.2996
-0.888657
40.3547
-22.3303
13.0479
-1.62513
-20.8183
13.5721
-298.367
4.09421
-6.61597
-122.99
-42.8283
-16.5485
-1.94161
-56.5339
-48.5516
6.54656
50.7039
57.4666
45.8143
-15.2053
13.8958
-49.6356
14.1378
44.9211
17.0606
28.2734
-10.1668
1.40985
-24.951
10.4718
32.27
4.43921
18.5702
-2.68354
7.79714
-128.877
29.5725
18.8016
27.9568
-24.1333
14.0209
-202.068
-108.792
-113.343
-0.261465
48.7131
-38.8601
-331.563
-196.287
22.6933
28.572
-5.70505
24.8656
-17.031
41.3811
49.8962
-284.006
8.53666
35.478
-260.266
-5.80646
12.3005
33.9159
37.6535
-40.9838
-14.6537
13.6776
49.9997
-74.3123
-222.784
9.83561
42.5524
11.7356
-26.8926
-106.057
29.4825
27.334
31.3901
9.24012
-29.9289
18.5612
61.2878
-31.9165
-1.69769
11.4426
-115.67
12.0681
2.83209
-162.311
-16.0467
-262.868
25.4211
-239.394
-36.9776
27.4373
35.1786
14.4454
-15.871
-235.322
16.2336
-6.30822
-30.9274
-14.2684
1.27448
-32.5464
36.0265
17.2989
11.8835
11.731
45.3542
-256.106
-6.38549
28.8525
-112.348
26.4972
2.68437
-1.57551
-44.369
28.2842
-1.78349
2.25188
-13.5984
-11.5799
30.4383
-40.5948
6.86757
-217.476
-144.81
27.9637
-35.4333
53.6426
-12.1355
-172.366
-126.513
34.8721
17.979
27.029
-170.131
41.9485
32.2078
-9.87899
8.65905
15.9163
29.7056
2.54548
-18.6608
-3.73217
-99.8199
27.7629
-96.3644
-252.257
-0.202729
18.1593
20.0195
1.83649
45.6529
2.51744
-45.7458
26.6167
-7.67208
37.1933
-41.0406
12.5908
33.0177
29.8413
1.50174
-154.237
-69.7394
11.2979
19.9798
22.5859
27.8529
-223.451
-1.11418
-26.5452
20.6499
64.3058
14.36
27.0785
36.8917
17.7644
31.1792
-26.7334
-172.488
-177.999
27.7827
62.3679
14.7714
-2.84684
31.365
1.33514
4.16559
0.767629
12.2226
5.14727
53.7305
-101.536
-36.9624
50.5454
32.1458
9.46446
18.2507
26.8272
8.86946
-197.476
-82.6767
18.5317
-40.5824
-44.2034
25.2695
-137.327
-109.391
-48.7582
12.2975
13.9559
18.0646
14.1191
27.5856
28.5961
-1.35589
19.6148
14.5669
43.7389
34.4511
-19.1764
0.136726
-6.3165
32.7159
18.2944
7.41933
2.31962
13.4319
-1.29597
45.4481
21.9648
-0.660558
-31.4195
13.2549
23.3551
-10.2116
25.1953
-1.89682
6.4351
-191.003
7.61252
-109.846
7.29381
-14.6913
-213.369
28.2087
-24.1214
38.6268
-165.597
-58.5761
-104.634
47.4126
-161.252
6.84789
18.9198
-70.7129
34.6125
28.6808
-15.3249
33.6983
10.6266
12.2997
-157.024
-41.115
-1.74756
37.1052
11.9212
-45.1608
-84.2706
-347.261
-75.4375
-124.958
-20.0926
-17.4482
20.5415
28.1895
24.9135
-317.691
-12.2604
34.6803
25.277
-42.134
16.6961
-144.294
-6.45515
9.0025
5.47284
27.5489
-69.5258
-160.358
-180.345
20.5631
17.9789
-159.975
3.52492
-65.7872
-129.764
-83.5322
-56.7242
3.31555
-136.213
1.79492
-42.1937
29.6946
28.5303
-11.3925
35.6683
-16.9161
44.6092
-53.2883
13.0504
-4.90287
18.7519
6.12646
-47.4237
-158.026
30.3745
37.0974
47.9368
-32.6523
-130.163
-36.378
-10.8964
-1.72996
-8.82419
-42.7348
-11.2776
5.93881
-46.1414
-11.9728
-63.4056
-9.85493
41.5666
9.63671
8.07234
-1.45464
-13.6369
-114.809
44.1106
56.7582
-45.269
20.2489
19.5301
-0.38552
-184.62
34.3862
36.7224
-20.7294
-123.61
-162.999
-18.2771
-3.41767
-7.83412
0.977964
30.2974
-25.4929
33.4756
-45.3982
-78.3297
29.7005
-0.926338
-51.9192
14.713
33.7587
-73.0419
3.63769
-94.6978
-13.0893
-31.3456
48.9116
-171.964
8.97467
-45.6948
24.706
-134.412
-73.3785
-7.17361
-1.51475
-23.5882
20.3225
-1.34998
3.6151
13.6561
-0.0833894
-294.28
24.3514
-29.6893
-8.79516
1.8594
27.571
-174.441
35.6818
-351.733
-1.02087
-3.25941
-19.7874
-64.9231
-17.1603
4.5846
7.41174
20.97
0.481438
9.91413
-11.5665
8.71731
2.33783
28.44
43.9613
24.8853
-54.674
-216.884
3.66089
71.4802
-169.586
-94.5071
-102.159
-21.2959
27.9298
0.2146
8.8685
-1.01215
-81.7582
-36.6744
-49.6497
3.20238
11.9185
-31.7075
15.2206
-100.379
10.2686
14.1201
-3.06474
-27.4151
-0.337855
25.8446
-112.776
-133.116
30.6988
-3.23212
-116.311
9.38073
34.5791
-15.1034
5.98726
27.2653
-254.556
23.9041
-114.347
26.5753
-0.00866094
-13.6499
-87.0387
-24.7724
-216.901
26.4051
23.6453
47.7784
66.8983
-37.1193
36.1732
34.3652
-86.4441
18.6706
24.2041
28.2713
-8.37502
-49.2649
20.5505
16.7008
27.6371
18.9066
-18.6541
27.7096
-16.4723
36.9776
10.6924
-8.20318
14.4034
30.5588
-13.0974
-14.6172
-1.31371
27.9036
21.7225
-6.81453
36.1494
33.6004
-0.364619
-19.0547
25.8496
24.16
12.387
-0.173242
-216.239
21.054
19.9743
-32.7076
36.035
10.9968
-12.7202
-15.9871
-4.59239
-158.307
15.9127
-18.4685
-11.8714
26.6358
31.4288
-200.368
24.5991
1.59331
12.7542
17.3083
12.3804
18.4535
-0.305565
29.6223
30.1252
28.099
-52.3354
31.8562
26.03
28.0775
28.7667
-197.751
-5.18872
-1.34763
-20.6892
27.8257
48.0586
-70.0948
54.9371
-30.3145
-33.117
17.9152
24.6496
-3.69971
9.4916
-125.796
-41.5633
4.79519
-320.101
3.43989
9.86576
11.4698
58.8247
22.517
-326.979
-343.335
13.6615
22.907
-239.348
11.3516
-226.847
-13.9056
-45.4437
-33.9834
28.3829
1.57684
21.8206
-20.2612
-25.4111
-24.3585
-1.45398
7.39766
-18.0851
35.6605
-55.609
-38.1621
14.6321
-2.29864
5.74551
24.0463
-9.33975
-77.4267
29.8456
-3.87578
23.7152
-27.6608
26.4527
11.5449
41.6421
27.5782
-72.8122
8.47542
-19.0338
-271.796
-1.85723
-1.27402
-175.856
-69.2464
59.9033
2.37221
-64.593
35.1828
-173.741
3.77374
-138.901
-52.8626
-187.653
-50.0904
-8.6754
6.47055
-278.802
-102.847
11.5054
-192.921
-8.16867
-251.013
5.14944
28.3742
-249.894
-294.596
-10.1524
3.32587
-15.2272
26.6012
36.9355
-273.86
27.0463
-6.81143
26.5548
47.1778
-132.781
26.2283
5.75129
21.3322
32.0899
13.507
-11.9869
-214.091
24.3213
37.0392
-212.937
-14.6148
-22.372
-23.2415
24.2921
-152.703
-16.6023
-217.55
23.5742
-105.973
6.89857
1.76913
29.3545
7.46418
-94.3361
5.32814
-1.64875
-166.761
42.2751
52.9262
27.8271
61.4822
32.7262
55.6954
14.2675
4.26662
38.4601
-74.2812
17.9085
7.70469
-47.7721
38.6459
-14.6296
-12.2389
51.9494
13.5807
-14.2989
23.8113
21.8124
33.5824
-80.3621
29.8874
52.2322
-154.056
-33.838
-14.3628
7.97406
-43.8761
24.5825
9.04451
35.4737
27.9244
-271.082
23.788
-6.45281
-138.554
-116.231
-116.54
19.787
-24.3282
28.2035
-5.09395
-3.23053
1.5915
-42.6692
2.88878
-174.204
-194.72
22.9239
17.0626
-56.8596
6.87113
29.6594
6.81994
-43.5176
25.0962
0.03952
23.1278
-95.9429
29.8374
19.0725
-25.6034
-10.3989
19.7503
6.57136
19.9643
-130.732
59.4405
-7.28327
-108.471
20.2278
11.9735
-3.32239
-13.8096
-59.0386
-14.1982
-8.60036
-23.2427
9.3987
5.9598
62.8816
5.84315
-197.303
0.314053
-25.792
-11.4079
-46.8339
14.4576
30.159
-39.8987
7.11649
-123.678
-10.5616
6.24806
12.7263
27.3703
-1.27929
-0.442569
-10.3426
26.9127
-3.16243
2.69176
-121.891
7.08903
-1.40346
32.6889
-118.434
-2.82551
-176.062
19.2966
-13.247
8.2366
29.3136
24.852
30.5362
-101.595
-128.154
27.6606
-67.0934
32.2274
23.8937
13.2213
25.4983
3.13982
19.5869
9.77789
-36.7232
-89.4149
29.4057
-206.138
31.5341
6.77345
62.951
11.134
18.3667
27.0992
15.0833
7.0812
26.4762
-0.0347135
4.16506
-17.8918
-1.9971
16.2452
5.05803
-18.0952
-0.486016
-96.3902
-50.0011
-7.70216
-43.0408
28.5499
-1.94362
27.7018
14.304
52.446
47.1978
21.5532
3.22074
21.1143
-141.095
33.8938
8.89223
14.8202
2.8745
29.673
19.6016
-4.73801
-2.45367
-21.4627
6.93583
-11.4035
14.0697
27.9983
-9.40757
4.71955
-34.153
18.3766
22.8964
-4.09802
22.1006
22.8977
-9.9521
14.3402
25.5025
7.80643
-209.336
29.6439
11.6043
40.5739
27.9256
33.4818
20.5434
-22.3693
-250.259
-2.72107
-39.6351
-47.7097
-241.885
28.2543
38.2639
32.6906
35.4467
26.9812
31.3088
22.6011
6.15472
23.4008
-0.930242
16.0263
13.3625
-1.7456
45.858
6.98228
-101.582
27.9236
37.5904
44.7551
7.97085
-3.6431
-100.962
-47.7657
23.4518
-33.5405
-258.965
29.4851
52.4834
-185.746
23.435
-41.6379
21.9309
4.77811
16.2944
10.4589
9.47162
-180.42
1.32636
1.02225
-38.807
29.8595
28.2527
33.1592
-15.0216
-75.4764
-10.8061
0.704184
14.3467
-11.7645
10.5973
3.30113
-11.9373
-0.278002
-44.1862
-1.78517
19.9515