/*--------------------------------*- C++ -*----------------------------------*\
| =========                 |                                                 |
| \\      /  F ield         | OpenFOAM: The Open Source CFD Toolbox           |
|  \\    /   O peration     | Version:  2306                                  |
|   \\  /    A nd           | Website:  www.openfoam.com                      |
|    \\/     M anipulation  |                                                 |
\*---------------------------------------------------------------------------*/
FoamFile
{
    version     2.0;
    format      ascii;
    arch        "LSB;label=32;scalar=64";
    class       volVectorField;
    location    "2.3";
    object      U;
}
// * * * * * * * * * * * * * * * * * * * * * * * * * * * * * * * * * * * * * //

dimensions      [0 1 -1 0 0 0 0];

internalField   nonuniform List<vector> 
13486
(
(8.19063 -1.75504 1.95331e-20)
(8.72957 0.414324 1.10555e-20)
(12.7459 -0.11358 0)
(16.9746 -6.78084 -1.76218e-19)
(13.7045 -0.90138 -1.26406e-20)
(11.2639 0.646479 -1.65689e-21)
(14.4083 2.75574 6.26572e-23)
(11.7281 -3.70946 1.74954e-21)
(10.7787 -1.85819 0)
(9.4651 2.24411 0)
(-3.54847 -5.09217 -9.47329e-21)
(10.9403 -0.249527 0)
(7.46822 -2.61534 -1.91078e-20)
(11.0451 2.72475 -3.31452e-21)
(12.7515 1.26603 -6.07584e-21)
(9.38803 2.38918 -1.05283e-20)
(-9.99908 3.68104 2.55416e-20)
(0.984574 4.1541 3.31116e-21)
(10.2209 0.0136929 6.93274e-23)
(8.87646 -0.930884 -1.98917e-20)
(14.3218 -0.875737 -9.49818e-20)
(7.56283 -2.68214 2.46173e-20)
(8.86055 0.375623 -8.85609e-21)
(15.3677 9.78816 0)
(9.86037 1.84398 3.57282e-21)
(16.2163 10.1425 -1.08899e-20)
(1.19238 -3.78768 -5.00113e-21)
(14.9654 0.640666 2.10194e-20)
(8.58484 2.42765 0)
(17.7505 2.01097 -3.13067e-20)
(0.609868 11.1259 -7.5233e-20)
(10.7463 1.76315 6.8994e-22)
(13.2326 2.06288 3.73002e-21)
(15.3503 -0.630168 0)
(11.8072 -3.50351 0)
(8.02187 0.0905448 2.31315e-22)
(8.53352 -0.961434 -1.62739e-21)
(9.09849 -4.13868 6.40849e-21)
(10.0031 -2.28785 -4.2577e-22)
(10.6819 -1.10721 6.11709e-21)
(17.0882 -3.57941 0)
(7.04473 -3.39453 -2.32216e-20)
(12.2017 0.233801 0)
(9.90923 1.53808 -1.65539e-20)
(9.9726 1.54672 6.73785e-21)
(10.8965 -0.240512 3.52033e-21)
(2.09969 -2.58677 1.20214e-19)
(8.12333 1.93874 2.58768e-22)
(8.47764 -0.94168 1.22848e-21)
(12.8503 0.589339 2.98912e-21)
(9.97872 0.0256728 1.33181e-20)
(10.654 -1.00827 0)
(9.751 -0.269811 -8.14049e-21)
(9.36598 -3.31144 -9.92899e-21)
(-1.72422 2.9824 0)
(13.3298 -1.30635 6.21797e-21)
(10.3316 -0.0588124 4.7782e-22)
(10.6781 -1.59726 -2.31958e-21)
(13.1482 1.96 6.71147e-21)
(8.64492 -1.25399 0)
(-0.80185 0.194627 -6.89493e-21)
(8.94989 -1.3282 0)
(15.4558 -0.66088 -1.15234e-20)
(13.3743 -0.396234 -1.06552e-21)
(-7.36214 11.5087 0)
(8.59251 -1.02055 -8.53795e-22)
(15.1146 -7.54555 -1.60217e-19)
(7.99723 -0.620071 7.26746e-21)
(10.7701 -1.99361 -2.59398e-21)
(8.26327 0.0675517 4.81938e-22)
(17.4691 -8.40388 1.85005e-19)
(0.0401231 2.70176 -3.04836e-22)
(10.4279 -0.716206 5.53359e-21)
(-1.17277 9.74303 -1.58228e-20)
(8.58265 -1.14636 -1.80791e-22)
(10.1291 0.163616 -1.44192e-22)
(8.50078 -1.18063 6.44446e-22)
(12.9627 1.26269 2.67651e-21)
(1.03786 -6.55529 -5.12603e-20)
(9.5536 -9.53388 0)
(8.4093 0.235437 -6.82312e-23)
(8.44535 0.736437 -7.32366e-22)
(16.4688 -2.0039 -2.51033e-21)
(12.7827 -0.258779 -4.36262e-22)
(8.22211 -1.76555 -3.79586e-20)
(7.47771 5.39475 0)
(6.41345 -3.1489 9.18056e-22)
(9.96178 0.0932675 -2.10567e-20)
(9.45947 0.25524 -9.05503e-21)
(8.63508 3.26276 -1.40826e-20)
(9.43328 1.36602 -2.65752e-21)
(12.5044 -2.70273 2.92606e-21)
(8.56621 -2.14001 4.64071e-21)
(8.9405 -0.357743 5.5161e-22)
(10.6098 -2.98455 9.81022e-22)
(8.21273 1.3569 -6.37113e-23)
(2.47875 -4.60929 0)
(14.1664 -7.78569 8.24084e-20)
(10.7126 -1.05477 -1.17668e-20)
(-9.86596 2.6305 4.39792e-21)
(8.60793 0.0968005 0)
(11.0081 2.70823 -1.38172e-21)
(11.5494 -8.5956 1.74237e-21)
(10.5549 -1.33774 2.69385e-21)
(6.57578 4.87286 0)
(-10.4091 1.02741 2.97961e-21)
(10.0072 -0.1234 -3.34991e-23)
(10.0531 -2.63807 -9.72537e-22)
(0.401468 -5.39182 7.34192e-20)
(12.1457 -5.28289 0)
(10.0958 -4.64674 0)
(11.4024 3.0565 7.60839e-21)
(9.45179 -3.2322 2.44213e-22)
(12.101 -1.86117 -1.11574e-22)
(6.41001 -1.2025 0)
(9.92788 -4.64103 -1.8266e-21)
(9.79188 1.97209 0)
(15.7858 -0.739805 0)
(10.3915 -0.66979 0)
(8.46053 -0.782929 -9.38081e-22)
(1.60141 2.36699 -1.63857e-21)
(-1.88254 0.107375 0)
(10.3546 -2.72459 0)
(10.0518 -2.34737 1.47561e-21)
(10.9725 -3.5084 0)
(10.6228 -0.934628 0)
(11.6413 -0.538155 4.082e-23)
(10.4103 0.262964 7.6853e-21)
(14.9021 -0.843523 -3.28315e-21)
(-5.41989 9.38022 -5.83193e-20)
(10.3676 -0.731129 -2.82325e-22)
(2.97438 -3.97668 -3.05591e-20)
(4.7795 7.84151 2.87754e-20)
(0.795596 -1.34074 2.01865e-20)
(9.99724 0.0181838 -2.11636e-21)
(9.41677 1.16054 -1.19702e-20)
(4.74221 1.1052 -7.66766e-21)
(12.2679 -5.15691 0)
(8.39126 -0.723687 2.86804e-22)
(11.6272 -2.68164 -1.72932e-22)
(13.108 1.34455 -6.21328e-21)
(9.94273 -0.210334 6.98571e-21)
(10.2859 0.701186 0)
(10.2017 -9.09437 0)
(13.2738 0.200096 -1.78145e-24)
(12.306 -1.80049 4.06994e-21)
(8.19162 -2.82441 -7.86937e-22)
(0.631912 3.86134 0)
(12.9961 0.79985 0)
(8.87775 2.44331 0)
(9.96854 0.00811323 2.5544e-22)
(13.8268 0.793528 0)
(8.54444 0.225524 7.14093e-23)
(8.47695 0.679361 -6.32663e-21)
(10.344 1.02217 0)
(13.2112 -0.161236 0)
(12.6021 -5.38938 0)
(13.2618 7.70463 6.20926e-20)
(10.0132 -3.76661 9.8691e-21)
(8.18886 -1.19035 -6.09022e-22)
(11.735 0.256141 4.82935e-22)
(10.0441 -3.6693 -1.44674e-20)
(7.90387 2.83361 2.71274e-21)
(6.30235 -3.18356 9.99318e-21)
(10.8692 -1.27348 0)
(11.4917 2.81556 2.3415e-21)
(10.7991 2.42419 9.73523e-21)
(4.31308 -1.43203 -3.05666e-20)
(7.66842 -2.70097 1.83127e-21)
(1.46066 -0.356832 5.63381e-21)
(5.49696 6.76292 5.91682e-21)
(10.3084 0.893287 6.15956e-21)
(10.0556 0.127191 -1.88678e-20)
(11.5765 0.301482 -1.32025e-24)
(8.39109 0.530078 -8.78113e-23)
(-9.32318 -1.01688 0)
(10.7538 3.89683 -6.5969e-21)
(12.8985 1.44206 6.60447e-21)
(9.99619 -0.137155 -1.92109e-20)
(10.3449 0.538912 0)
(11.0286 -1.26669 9.53764e-21)
(12.494 -1.59322 -3.41575e-22)
(11.2539 0.556191 8.26373e-23)
(5.07818 -1.24779 0)
(12.0772 -0.80573 1.41932e-21)
(14.0656 0.491625 -9.52031e-21)
(10.7663 2.39449 3.64453e-22)
(16.3213 0.38415 -7.0207e-21)
(17.4052 -3.44405 0)
(9.17115 -4.38125 -4.3737e-21)
(8.41546 -0.879544 0)
(13.1502 -0.0634368 0)
(11.0195 -2.19094 0)
(9.40324 3.12785 -1.48392e-20)
(11.3733 -2.65663 0)
(-2.557 -6.20018 -4.34303e-21)
(-8.4231 11.2876 1.41217e-19)
(11.9186 0.177965 5.60539e-22)
(8.2379 -3.95716 -3.52775e-21)
(11.3712 2.56149 2.45533e-21)
(-1.334 11.3261 7.35029e-20)
(10.4265 0.33164 -2.41144e-22)
(9.04662 -4.23709 -7.4263e-21)
(14.768 -6.04012 -9.66306e-21)
(7.99672 -1.25181 8.00655e-22)
(11.6241 -2.61341 -2.9186e-21)
(-0.332807 8.12281 -4.00659e-21)
(10.0636 -0.530374 1.34121e-20)
(10.9253 -2.15674 0)
(12.3382 -0.674773 0)
(15.4971 0.4309 1.9119e-20)
(18.244 13.1364 6.67483e-20)
(8.97924 -0.792605 1.82613e-20)
(9.85615 -0.0739798 5.45791e-25)
(11.3369 0.774248 1.91076e-21)
(18.7432 -10.431 2.02381e-20)
(16.6073 1.87823 0)
(8.81067 3.04923 3.27277e-20)
(9.04869 -2.1632 0)
(13.7033 3.04876 0)
(-11.2528 2.97341 -4.80431e-20)
(12.6901 0.881077 0)
(11.5179 -2.75693 3.22717e-23)
(12.9781 0.349543 0)
(9.23576 -0.912812 -1.74903e-21)
(7.79016 -3.59142 6.36066e-21)
(11.6687 1.43815 1.28487e-22)
(-12.3675 9.54436 3.72466e-20)
(16.6082 -7.76136 4.52536e-21)
(7.51916 -3.31129 -3.26969e-22)
(11.0006 -1.17886 -3.12862e-21)
(20.8106 2.5328 8.72333e-20)
(13.0564 1.60445 7.792e-21)
(6.93125 -3.36489 8.08798e-21)
(7.58133 -4.35792 0)
(7.55471 -3.62556 6.99395e-22)
(16.2763 -0.440203 1.35241e-20)
(13.1386 -0.0710208 -9.24567e-23)
(7.76404 -3.66787 1.96351e-20)
(11.2149 0.274325 0)
(12.9541 2.38405 0)
(9.9757 0.125007 2.90856e-20)
(13.9083 -0.112101 0)
(7.55469 -3.69271 5.99447e-21)
(9.41051 -2.53974 -5.88928e-22)
(9.48003 -0.318847 0)
(11.4211 0.101727 -6.98281e-22)
(16.5726 5.72798 4.58425e-20)
(-1.70034 3.19201 3.38547e-20)
(9.8208 1.41373 0)
(2.98844 -6.65483 -1.74101e-20)
(6.27919 -1.07715 3.30577e-21)
(9.53906 -4.62032 1.28923e-21)
(10.1384 -2.68675 0)
(13.2428 -7.73091 7.206e-21)
(-8.31842 0.0467764 5.12088e-21)
(10.702 1.69008 4.90542e-22)
(16.5927 -11.5519 -2.55749e-20)
(17.727 10.7107 -6.49961e-20)
(13.3297 2.25546 3.84329e-21)
(9.16207 0.257963 0)
(9.358 -2.49829 -7.56492e-23)
(12.7992 1.2732 1.34988e-20)
(-8.62512 -2.01138 -6.39388e-21)
(13.727 -3.41675 1.34867e-20)
(5.20956 -1.61921 0)
(16.6861 -6.93608 -1.72624e-20)
(3.33435 10.5792 -1.11614e-19)
(10.7211 -0.0728685 -7.03122e-21)
(3.29681 -1.16791 0)
(7.90406 2.80142 1.19433e-20)
(9.92511 -0.039196 -5.43202e-21)
(16.4604 2.098 0)
(10.511 -0.623165 3.79609e-21)
(8.05084 -3.75899 8.4156e-21)
(16.1648 6.7935 -2.50073e-20)
(13.2458 -6.5866 0)
(-11.0808 5.32756 0)
(10.2114 -3.01488 -1.33555e-21)
(8.30496 -2.90334 2.29365e-21)
(-8.34361 2.9171 6.46473e-20)
(11.1649 -0.563928 -3.23431e-21)
(9.87886 -0.0875709 1.17005e-20)
(7.72275 3.525 6.73091e-21)
(-0.0601025 0.000165676 1.76627e-20)
(-6.53343 -2.35316 1.39982e-20)
(12.8769 1.43136 5.92446e-21)
(14.5151 -0.948137 4.31716e-21)
(10.9305 -1.07894 2.99781e-21)
(10.4488 -0.0807225 0)
(10.2492 -2.36774 0)
(8.63531 -1.44518 2.32664e-22)
(9.75353 -4.50109 3.31679e-21)
(9.98748 0.0273249 -2.04965e-21)
(16.2714 -0.473437 1.24912e-20)
(16.3684 -0.0552014 0)
(12.3593 0.0547885 -1.05542e-21)
(10.6838 -0.65799 -3.27509e-21)
(9.95604 -0.121621 -1.05498e-20)
(16.2809 0.790696 -2.68343e-20)
(8.20252 2.72534 -3.03369e-21)
(0.11743 8.10955 -9.26303e-23)
(8.32073 -3.05015 -1.9546e-21)
(11.0167 1.66683 -1.98678e-22)
(8.5987 -0.713991 2.74378e-22)
(12.8769 -5.78436 0)
(19.0191 3.10468 0)
(10.2928 0.0531703 1.31846e-21)
(7.2638 -3.8705 -4.45651e-22)
(8.45284 -0.921177 0)
(9.39391 6.76036 -2.30706e-20)
(14.4402 -6.42759 0)
(10.3686 3.75244 4.70908e-21)
(11.2324 3.01025 5.20211e-21)
(1.13061 -0.982111 0)
(9.3573 0.924088 -7.55104e-21)
(8.67011 -1.50437 -3.39741e-22)
(9.42757 0.226391 -7.73452e-22)
(9.96205 -0.52647 -1.51544e-20)
(17.4927 -6.70725 0)
(8.4686 -1.00718 1.52949e-21)
(9.05484 -1.55455 1.53655e-23)
(10.0924 -0.0255978 2.4332e-21)
(8.82872 -0.188103 -1.06144e-20)
(4.88942 1.32712 1.38247e-20)
(9.73704 1.49767 5.89543e-21)
(12.3369 -0.678063 8.00173e-21)
(11.2215 -0.537665 0)
(11.2995 -1.10791 -1.66658e-23)
(12.5145 -0.462836 3.19735e-21)
(9.95457 -0.0376728 3.03965e-20)
(12.625 -2.70266 0)
(8.80982 1.53444 -1.72002e-21)
(7.81663 0.683106 0)
(14.3173 2.97783 4.36166e-20)
(10.9067 -2.67309 -1.77791e-21)
(5.74746 -2.84445 1.06695e-20)
(13.8725 0.494234 1.37208e-20)
(10.0755 0.394966 0)
(9.1628 -2.32539 -6.46313e-22)
(17.2885 -6.38719 1.94301e-20)
(8.81563 -0.214128 1.00373e-20)
(12.716 -0.455973 -9.48999e-21)
(11.3274 0.593106 7.56679e-22)
(6.68403 -1.06113 -1.58888e-20)
(8.31985 1.80204 -2.10187e-23)
(11.5566 -0.165637 0)
(6.29509 -2.45345 2.44335e-20)
(14.0635 2.86702 0)
(8.6374 -1.5597 -5.16661e-23)
(11.2021 -0.0175982 4.67299e-21)
(10.8849 -0.999499 -3.78264e-21)
(10.4489 -0.614638 3.28798e-21)
(4.80807 -5.04438 1.31145e-22)
(9.92964 -0.112617 1.31133e-20)
(8.3753 0.0432493 0)
(-2.45549 7.67689 -1.15739e-20)
(11.6515 -0.457772 -7.29155e-22)
(7.85263 -3.56099 -7.37155e-23)
(19.1313 13.6104 5.44614e-20)
(11.9217 0.01128 0)
(9.30838 0.955587 5.66187e-21)
(9.39432 0.0103066 2.18583e-20)
(9.92808 -0.0689524 1.65333e-20)
(17.3937 2.24489 0)
(8.65599 0.169538 1.59507e-23)
(16.5077 -0.0565804 -1.27017e-20)
(5.7749 -1.12593 1.81884e-20)
(8.78632 -0.881671 2.54835e-21)
(11.6084 -0.398452 6.95472e-22)
(12.7679 0.19758 1.94162e-22)
(11.4925 -0.214949 0)
(9.05078 -1.18676 -7.03806e-21)
(3.78759 -6.36341 1.16972e-20)
(11.1465 1.49379 -4.39232e-21)
(10.0066 0.00855349 1.1028e-20)
(8.47769 0.0142839 0)
(8.9022 -1.73814 -5.09417e-22)
(3.41453 -3.61574 0)
(13.858 5.28017 -5.50798e-21)
(10.7815 -0.110643 0)
(12.9882 -3.33361 -6.05029e-22)
(7.71768 -1.35255 -5.74151e-21)
(7.49302 1.96492 2.71339e-20)
(4.09854 -0.159103 -7.39588e-20)
(13.8278 -6.58831 0)
(10.819 0.213503 -7.16276e-21)
(9.9822 0.451195 -8.22741e-21)
(-11.1383 6.5473 -2.21827e-20)
(9.96368 7.69255 1.09532e-20)
(9.05749 -0.883189 -2.70495e-20)
(15.745 1.91652 9.49612e-21)
(9.98153 0.476355 6.44582e-21)
(8.50662 -2.72982 0)
(7.5874 0.284486 1.27521e-20)
(8.24896 -0.790314 -1.00971e-21)
(15.2429 -6.90243 1.01185e-19)
(2.87399 -6.79723 -4.67706e-20)
(-11.5904 6.56408 -4.45998e-20)
(13.0883 1.34921 0)
(-11.3249 6.47501 0)
(9.5513 3.99561 0)
(11.0215 -0.300207 0)
(21.869 0.0939883 -6.04667e-20)
(13.8467 2.92003 0)
(7.40253 -2.80045 0)
(9.06211 -0.253045 4.04699e-21)
(12.9215 1.384 -6.78614e-21)
(11.3955 -0.248261 -3.07568e-21)
(8.7932 0.543198 3.89548e-20)
(10.0251 0.125098 -4.06203e-21)
(9.95273 6.02529 0)
(14.9693 1.7558 0)
(9.83981 -0.151804 1.13084e-20)
(9.90907 0.0307954 1.94282e-21)
(5.81031 2.18855 0)
(3.39624 -1.90056 2.16461e-20)
(13.7292 -3.33 -1.51288e-20)
(5.43305 7.31127 0)
(11.215 0.309388 2.27392e-21)
(10.0695 -0.0863486 -1.29287e-20)
(8.57975 8.0593 6.93338e-21)
(6.28147 -2.41283 0)
(9.93133 0.44008 1.48636e-20)
(11.8885 0.96816 0)
(16.5311 0.444106 0)
(10.5516 0.634343 -1.13558e-21)
(9.82574 -0.0896653 6.22749e-21)
(0.649565 -3.73845 6.51113e-21)
(10.717 2.34268 3.2907e-21)
(7.8651 -2.28949 -9.32025e-21)
(10.8582 -0.254984 8.50274e-22)
(10.171 0.555592 5.13873e-21)
(10.5838 -1.40375 1.82588e-20)
(14.226 -2.74153 0)
(15.4221 4.12914 1.83883e-20)
(7.68142 -1.09183 0)
(8.87285 -1.53965 2.04563e-22)
(11.5879 0.187555 0)
(8.03913 -0.590909 1.55376e-20)
(-4.95781 2.74786 -9.69602e-20)
(15.9231 1.73363 0)
(-2.07615 -1.19606 8.5499e-22)
(15.0067 1.96463 -1.60947e-20)
(7.86797 -2.25505 9.15405e-22)
(9.90319 -1.57189 1.99974e-20)
(7.18705 2.01535 -1.71744e-20)
(7.79733 -2.27644 -2.7292e-20)
(14.949 4.8206 0)
(8.46995 -0.764669 8.24088e-22)
(9.2533 -1.25684 -3.37572e-20)
(9.91327 0.458242 0)
(9.39292 0.28698 8.47379e-22)
(11.9872 0.352839 -6.91323e-22)
(11.7143 4.21891 0)
(9.98608 -0.00540202 0)
(10.9901 -7.44429 0)
(-11.5341 1.05685 3.19373e-20)
(7.46212 3.91005 -7.97144e-21)
(10.8746 -1.31135 -2.57201e-22)
(10.413 3.55596 0)
(9.48518 -1.28948 1.56929e-20)
(8.32877 0.459174 1.90466e-22)
(10.6947 2.143 -7.5823e-21)
(15.4245 -4.08018 1.69037e-19)
(9.64557 0.137089 0)
(8.27732 2.12306 0)
(5.13624 -1.42066 -1.78782e-20)
(8.37894 -2.71145 -6.1492e-21)
(10.5318 -0.87443 0)
(11.2254 -5.15272 3.74815e-21)
(8.84994 0.102004 -1.22042e-22)
(8.44012 1.26176 9.92735e-23)
(6.08734 -2.95422 0)
(12.5082 -1.72839 3.91935e-21)
(8.3991 -0.719606 8.49843e-22)
(11.9323 0.92861 -1.19308e-21)
(10.891 -2.83236 0)
(-7.5612 -2.91172 -2.42222e-20)
(10.7732 -0.846534 3.57674e-21)
(9.97332 0.199295 2.9103e-21)
(8.19868 -0.00304249 3.96824e-22)
(11.7137 2.7485 0)
(8.77529 0.544002 -1.03544e-20)
(13.5014 1.70637 -3.43235e-21)
(-11.5713 6.36789 7.61109e-21)
(9.9329 0.0989531 0)
(8.28643 7.50819 -1.12411e-20)
(4.56046 -1.14603 0)
(10.0629 0.132977 -1.16283e-20)
(9.9101 0.0429138 4.45046e-21)
(9.83577 -0.28004 -2.20656e-21)
(-7.88225 -1.3446 0)
(12.6731 -0.197015 -1.07146e-21)
(6.54996 0.830205 3.57364e-20)
(14.1105 -3.09922 0)
(8.959 -0.313033 1.23564e-20)
(16.0297 0.520926 3.09061e-20)
(10.7033 0.0240062 0)
(0.518974 7.93164 5.37859e-20)
(9.65631 -8.39967 -1.37688e-20)
(12.8883 0.240735 0)
(-9.31535 -0.86182 4.24216e-20)
(9.3413 0.235427 0)
(10.4539 -4.61775 1.83561e-21)
(4.10564 -6.55601 2.66504e-20)
(10.6856 2.7425 -3.70277e-22)
(11.3567 0.637644 2.79676e-21)
(7.58763 0.234287 6.63515e-21)
(9.79106 -1.6765 -7.16706e-21)
(13.5677 -5.76768 -5.72223e-21)
(10.3035 -4.39827 2.38447e-22)
(11.5751 -0.482548 9.98569e-22)
(11.6989 2.65778 -4.03715e-21)
(12.9557 -5.35077 0)
(10.0162 -0.00456444 -9.78138e-21)
(5.14545 8.62762 -1.65122e-20)
(7.8342 -1.11994 0)
(8.20146 -1.11804 -4.95645e-22)
(8.29773 0.0581501 0)
(7.20845 -2.36753 2.43289e-20)
(12.6441 -3.97202 0)
(8.50507 0.0673105 -4.22472e-22)
(11.3778 -0.0460839 -2.72553e-21)
(-5.92687 10.0921 9.23675e-20)
(13.4142 -7.48634 6.35913e-20)
(11.7151 0.0763297 -3.25513e-23)
(12.1402 -5.61078 -1.15468e-20)
(10.2873 -2.75402 5.19364e-21)
(8.55842 -2.11991 0)
(9.8348 -2.36147 -6.88431e-21)
(14.5617 -2.56786 2.8934e-21)
(9.61993 -3.34308 -1.00436e-20)
(8.22529 1.49385 -3.98122e-23)
(8.41225 -3.20476 0)
(10.7864 0.0218301 -8.44154e-23)
(4.22712 -1.55619 0)
(11.2256 -8.13493 1.46263e-21)
(8.87825 8.06496 -1.01928e-20)
(18.0022 9.66368 0)
(11.9428 -2.2561 -2.74682e-22)
(-8.77348 10.6111 0)
(11.7427 3.98316 0)
(10.0876 -4.66937 -2.48622e-21)
(8.0277 0.456673 1.03928e-20)
(4.95899 -10.5993 0)
(9.30438 0.0865891 -6.14459e-21)
(11.6606 -2.34246 -2.93492e-21)
(1.63912 -5.88213 3.80004e-20)
(11.7929 5.39553 0)
(10.4328 -0.032942 0)
(8.25849 -0.931473 -1.2986e-20)
(10.0834 -0.773356 0)
(12.2864 -0.304351 0)
(-1.76192 0.399253 2.23137e-21)
(11.5234 -1.47764 -2.51024e-21)
(9.98666 -2.30605 5.24969e-21)
(13.0047 2.8338 5.64403e-22)
(9.4553 -1.65676 1.89233e-20)
(9.91653 0.0181898 5.04574e-21)
(8.78512 -2.20803 0)
(10.2842 1.57289 -3.07246e-21)
(8.1701 -1.64679 0)
(11.8233 -0.15946 0)
(9.95218 0.217297 0)
(10.5094 0.594526 -9.25046e-22)
(10.0068 -0.546042 6.98527e-21)
(13.7996 0.17483 4.74719e-22)
(9.02704 -2.24728 0)
(3.14223 -4.71052 3.58308e-21)
(9.38199 3.75158 7.51069e-21)
(10.9605 -3.56321 1.2976e-22)
(14.5194 -1.45047 -7.03354e-21)
(18.0354 5.89119 5.66632e-20)
(10.2002 0.0459984 -7.28418e-21)
(-4.27787 3.71711 0)
(10.7185 -0.668597 0)
(6.92087 2.44044 0)
(7.41664 -3.3231 -1.66322e-20)
(-12.0482 12.893 -6.51703e-20)
(17.5779 9.4376 0)
(10.3725 1.59442 0)
(9.96189 -0.504119 6.73139e-21)
(10.1583 -0.0256244 -1.38004e-21)
(9.26579 1.87274 1.41839e-20)
(15.4719 -6.15059 0)
(2.56158 -5.95134 -3.92402e-21)
(10.9712 0.24347 3.86488e-21)
(8.19179 -2.56963 -1.49933e-20)
(10.5184 0.272659 -5.90118e-21)
(10.6902 2.1522 1.00094e-20)
(4.54757 12.5533 2.1591e-20)
(7.30833 -3.29404 2.88728e-20)
(13.398 -7.33046 1.65296e-19)
(13.4615 -1.21587 -1.89095e-22)
(10.0197 -0.00715617 -2.32822e-21)
(10.6559 -5.04739 2.08582e-21)
(10.4751 -7.63805 6.27364e-21)
(7.54534 6.94195 -8.58916e-21)
(10.8881 -4.99915 -1.07734e-21)
(11.279 -1.0568 0)
(6.79369 -2.86457 -3.6097e-22)
(10.528 -0.0210866 -1.27715e-20)
(12.6941 3.0649 1.1415e-21)
(8.0205 -2.40922 -1.41169e-20)
(10.8152 -3.4245 -2.67792e-21)
(10.5626 0.0172683 9.12255e-21)
(13.4343 -0.122432 -5.24248e-21)
(6.60531 -1.7959 -5.5375e-21)
(12.9726 1.3751 -3.25664e-21)
(6.80146 -1.58552 -3.52814e-20)
(10.7132 -0.012226 -1.10525e-20)
(6.74391 -1.88203 0)
(-12.3201 9.64243 -1.65142e-19)
(11.1525 0.00739247 1.61785e-20)
(7.64399 0.0755414 6.13519e-23)
(-1.80831 9.40027 0)
(12.1763 -5.28285 0)
(9.91196 1.29044 1.241e-20)
(6.23818 -1.56521 2.24399e-20)
(-7.46091 11.6054 -4.93679e-20)
(12.9709 -3.43036 4.95384e-21)
(12.4597 -0.592683 -4.64172e-21)
(13.9235 2.83565 0)
(9.86337 1.41401 7.11837e-21)
(1.29469 5.40061 -8.71458e-22)
(11.0813 3.77371 -5.38045e-21)
(10.9186 -1.17258 -6.3657e-21)
(8.91509 -1.90347 -3.02756e-20)
(17.7936 5.94841 -4.96614e-20)
(14.1796 3.71261 1.93643e-21)
(10.0793 4.3053 0)
(18.8208 -3.5276 -1.12084e-20)
(9.93619 -0.2607 1.94753e-21)
(8.44203 0.33696 -9.85749e-23)
(6.30063 -3.1555 2.83274e-20)
(10.7827 -1.20839 9.69669e-21)
(8.28867 -1.51953 1.79764e-22)
(3.72282 -5.07188 -2.44582e-20)
(14.9665 0.328392 -9.43851e-21)
(10.595 0.0791519 9.90828e-21)
(0.456637 -1.01433 -2.59321e-21)
(10.7355 3.6244 1.2729e-20)
(-8.78679 0.877838 -4.60937e-20)
(7.90983 -3.75394 -7.55678e-21)
(8.60742 0.346102 0)
(10.9026 -0.209112 4.0428e-22)
(-1.71475 2.2295 -3.12701e-21)
(7.68937 -1.45901 3.05019e-20)
(11.9914 1.74058 0)
(7.20226 2.19037 4.38599e-21)
(7.08558 -2.98016 6.86835e-21)
(9.94735 0.055094 -2.17105e-20)
(4.35462 -5.10245 -2.24012e-20)
(5.21465 -9.65584 -5.55567e-21)
(11.4755 -0.22462 2.0425e-21)
(10.6745 0.256738 1.0759e-20)
(10.6418 -4.68962 -1.04905e-21)
(14.0004 -0.189216 -6.89818e-22)
(-12.9367 12.4324 -1.37077e-19)
(10.5487 -0.0253479 1.19816e-20)
(10.8271 -0.251565 -3.77442e-21)
(10.3503 0.328155 -1.43445e-22)
(12.2937 0.0259739 -6.99776e-21)
(6.9088 -3.07671 -1.32708e-20)
(13.4407 -0.924217 0)
(-10.8211 -0.415041 5.69803e-20)
(10.6293 0.0373261 1.40949e-21)
(8.95202 7.26718 9.35578e-21)
(11.7341 0.22154 2.79196e-21)
(12.2964 -0.976017 1.61388e-21)
(9.99952 0.075709 -1.84883e-20)
(10.1446 0.972192 3.95918e-21)
(2.86571 -0.849759 -2.22487e-20)
(12.494 -0.296163 0)
(9.09594 -1.86877 2.81531e-22)
(10.941 -1.19263 3.87698e-21)
(8.47141 -3.15163 0)
(10.2392 0.242661 8.10482e-21)
(11.2135 -1.214 4.45908e-21)
(12.4161 -0.265975 2.32137e-25)
(17.2396 -4.20282 2.60211e-20)
(12.0418 -2.55876 0)
(9.07291 0.867299 1.98232e-20)
(8.66535 -1.25012 -4.88075e-22)
(10.4866 -4.799 7.68075e-22)
(10.8072 -0.758206 0)
(7.92939 0.406571 -2.98346e-20)
(2.04754 1.63239 -3.89705e-21)
(10.7682 5.53922 3.47687e-21)
(6.8429 -1.64186 3.43949e-20)
(12.9163 0.315188 -7.53405e-22)
(12.2484 -7.59732 4.34739e-20)
(10.3129 -0.635472 -9.57019e-21)
(14.8402 3.19045 -1.85612e-20)
(9.37772 0.0538907 -1.26602e-20)
(12.5287 0.308354 0)
(10.0348 -0.0180094 -8.73949e-21)
(5.30806 -0.0973706 2.74019e-19)
(-0.805126 3.58179 0)
(18.9465 14.9096 0)
(8.45056 0.350517 0)
(-11.2433 5.44825 0)
(9.9672 0.859974 0)
(6.53359 -1.54086 0)
(21.4005 -8.29494 4.17888e-22)
(9.98849 -0.0374103 4.35834e-21)
(11.7933 1.50813 0)
(8.61316 0.587546 2.95867e-20)
(2.55576 -2.24994 3.38557e-21)
(10.1152 0.553407 1.88006e-22)
(-0.788946 3.27106 -1.78127e-21)
(6.515 -0.620147 7.58267e-23)
(3.80256 -3.60904 2.0266e-20)
(9.85721 0.0588087 -2.13721e-21)
(12.6746 0.600895 5.11294e-22)
(9.9525 0.805076 -8.22461e-21)
(9.51335 0.171105 -1.77681e-20)
(9.23877 3.34291 -1.38724e-20)
(14.5777 4.98196 0)
(13.0022 1.10484 3.29069e-20)
(7.30757 -2.43819 -2.66083e-20)
(10.0153 0.0237946 -2.60068e-20)
(14.6028 -2.32458 2.94706e-20)
(11.8804 -0.0283296 1.34205e-21)
(18.4471 0.187737 -4.04596e-20)
(11.6278 -0.811256 -2.15738e-22)
(11.996 -2.24906 1.23499e-21)
(9.92726 0.395039 8.52782e-21)
(10.989 7.79134 0)
(13.0232 -5.1079 -4.43736e-21)
(9.09293 -0.356883 -3.82542e-21)
(13.2643 3.266 0)
(10.4547 -2.75123 0)
(11.3634 -4.92013 -2.42159e-22)
(10.7477 -7.00076 5.18361e-20)
(19.6045 -9.96645 -1.02472e-19)
(9.77424 -0.621366 0)
(10.101 -0.577823 -1.37727e-20)
(9.25175 0.255034 -3.43896e-21)
(-7.60922 2.33729 4.62977e-20)
(11.8737 -0.809333 1.66053e-21)
(4.59842 -4.7873 0)
(12.7153 1.101 3.78661e-20)
(11.8694 -1.06899 0)
(18.9135 -4.44034 1.32561e-20)
(9.06488 1.09244 -3.65655e-21)
(10.162 0.0011532 -9.34722e-24)
(10.8213 2.48519 -1.72527e-20)
(11.7794 4.76642 -1.05144e-21)
(9.99278 -2.70164 1.17974e-20)
(0.860084 17.5338 0)
(-9.94859 9.51495 -1.51623e-19)
(-4.10639 -4.37514 0)
(11.975 1.50144 2.77875e-22)
(-5.92996 -0.418117 1.18811e-19)
(19.5072 13.8127 4.51982e-20)
(9.20908 -2.03634 -3.3743e-22)
(-6.05972 1.47711 -1.69409e-20)
(9.75766 -4.53642 -8.87114e-22)
(7.53903 -2.44199 -1.50623e-20)
(8.26305 -0.781303 3.49751e-22)
(-8.2703 6.64671 1.22815e-19)
(6.95295 -3.11923 1.09175e-20)
(7.85792 -2.54876 1.5836e-20)
(-13.758 10.8268 7.64027e-20)
(-4.3906 10.7532 -7.23559e-20)
(10.6784 -2.99291 3.46779e-21)
(2.00225 2.20714 7.68543e-20)
(13.6527 0.15157 -7.99447e-23)
(1.90613 -1.97951 -2.46758e-21)
(10.8708 1.56883 -4.24595e-21)
(13.4336 -1.34633 0)
(-12.0689 4.86627 -7.83104e-20)
(10.3247 -0.0185472 -1.40259e-20)
(9.9336 0.220104 0)
(11.8634 1.46351 0)
(-7.61544 4.13365 -8.52955e-20)
(12.5489 4.06077 -5.25014e-21)
(11.2455 0.903379 -7.88707e-21)
(11.5109 -1.43983 3.2261e-21)
(9.32553 3.28498 1.19791e-20)
(9.16939 -0.000460247 5.58168e-21)
(-6.37504 -2.93702 5.47943e-21)
(8.87794 1.85373 0)
(8.07043 -2.67683 1.46381e-20)
(-2.49337 -11.3848 6.5093e-21)
(-6.37701 -0.708213 1.40194e-20)
(9.95778 -3.57498 1.56316e-21)
(13.4216 -5.6519 1.13834e-20)
(10.1846 -0.0233621 2.95928e-21)
(9.81432 -2.22859 3.78854e-22)
(17.7304 1.39534 3.10551e-20)
(-3.40242 -1.75272 -5.85539e-20)
(11.1648 0.855619 5.98305e-21)
(9.89352 -0.134566 6.48101e-21)
(6.69679 -1.84852 -1.41106e-20)
(10.1729 -0.669053 8.28595e-21)
(4.84639 -1.55824 0)
(11.1958 1.41064 7.66613e-21)
(9.99429 -0.0864962 1.44292e-21)
(8.49079 -1.99322 -4.81461e-21)
(8.40082 5.78221 -6.76783e-21)
(10.4995 -2.97118 3.33372e-21)
(10.2575 -0.0191685 2.54803e-21)
(7.67174 -0.296382 -2.16804e-20)
(13.5192 2.61302 0)
(9.18511 -1.76135 -6.68421e-22)
(10.5298 0.305679 7.97783e-21)
(14.7134 -2.00102 0)
(7.81193 -0.689682 1.20371e-20)
(12.0415 -0.852032 0)
(7.43734 5.74491 2.94431e-20)
(12.8093 -0.0476798 0)
(13.1494 -5.76003 0)
(11.1789 -0.254987 1.62571e-21)
(11.1955 0.662758 4.87273e-21)
(12.9562 1.5407 -4.11647e-21)
(9.71063 0.118397 -8.09503e-21)
(7.48948 3.0969 -8.82025e-21)
(10.0856 0.158101 -3.64421e-21)
(10.0871 0.907208 0)
(9.67992 -7.47039 -4.62343e-21)
(11.5062 0.652197 -2.89163e-21)
(18.3762 -4.98714 -2.65619e-20)
(13.5969 -1.43853 0)
(12.9997 2.98542 2.17704e-21)
(9.38115 5.90669 -1.07879e-21)
(13.8469 0.285666 -6.80269e-22)
(-3.78359 8.5703 0)
(-0.224569 1.54104 4.18055e-21)
(10.1304 0.408541 0)
(16.7723 1.29303 -1.42561e-20)
(-0.587024 1.90047 0)
(15.7286 -4.25169 0)
(3.98271 -3.63611 0)
(12.2841 -3.98257 0)
(-2.79793 -8.00623 -2.25988e-21)
(-11.2095 1.59476 -8.42001e-21)
(9.9541 -0.505804 -1.04756e-20)
(-6.95784 11.2904 -1.14046e-19)
(7.40891 -3.19711 0)
(-18.5207 13.428 -5.74517e-20)
(-2.42169 5.35533 -3.35782e-20)
(9.29086 -4.23368 0)
(8.50208 -2.98119 -1.442e-20)
(8.68876 -1.23775 -2.27375e-22)
(10.8136 1.48111 1.10544e-20)
(16.4735 -3.69826 -2.27707e-20)
(9.50992 0.105172 0)
(13.4798 -2.93073 0)
(13.5624 0.968316 3.13874e-21)
(10.5809 -6.59405 1.02829e-21)
(8.66543 -0.786397 -5.66833e-22)
(-12.0718 5.56235 -6.85539e-21)
(9.99071 0.00422975 6.4901e-22)
(10.6659 -0.192081 3.4813e-22)
(9.94635 0.382933 1.21184e-20)
(9.00692 -1.58255 2.89921e-22)
(10.8643 -2.58319 0)
(-0.578111 -4.77776 0)
(13.8847 -0.00498545 0)
(7.91614 0.092561 0)
(9.72692 -1.89193 5.44798e-21)
(13.1382 1.11057 0)
(-2.14047 -3.49909 1.84854e-20)
(3.13699 14.9879 2.50776e-21)
(7.69447 -2.60084 -2.40846e-20)
(2.93778 -1.23888 -2.26372e-21)
(-13.3421 3.36856 -2.97518e-20)
(-2.79356 -8.89231 -4.92613e-21)
(11.0851 0.0778003 2.01025e-21)
(-7.17708 -5.77469 -3.19218e-20)
(8.86146 -1.51549 4.52299e-22)
(11.384 -0.218424 0)
(12.7668 0.457378 0)
(4.78981 -3.4286 0)
(12.2933 -1.12772 -1.16308e-21)
(-4.7301 11.4333 0)
(9.0107 1.8656 0)
(10.005 0.00814697 0)
(10.039 -2.29359 4.95505e-21)
(10.336 0.494833 -1.28866e-20)
(8.62771 0.0899631 0)
(23.9498 -5.14744 -6.94203e-20)
(9.78076 0.398758 -1.06196e-20)
(11.0277 3.58787 1.09761e-20)
(9.29517 -4.14382 6.18409e-21)
(9.2221 2.17436 1.83434e-22)
(9.17636 -10.1354 -1.59711e-21)
(10.1193 -3.02805 1.3126e-21)
(14.7539 -7.75396 -1.59957e-20)
(11.0881 0.700161 -6.51545e-21)
(8.58749 -0.709025 -1.35119e-21)
(9.54673 -0.180923 -1.15761e-20)
(10.4715 -0.00854999 0)
(9.94762 7.57304 -6.90311e-21)
(9.91349 -0.0574706 1.21009e-20)
(0.631199 3.23633 -1.17978e-21)
(11.6016 -0.855312 -8.81481e-22)
(6.35041 -1.66756 -2.44111e-20)
(11.1155 0.588526 1.08404e-21)
(13.6092 2.1952 4.96533e-21)
(9.97961 0.190212 0)
(7.05558 -2.69837 -1.42142e-21)
(9.80977 -0.969854 -3.95694e-22)
(15.0571 -7.6536 3.4525e-20)
(14.8554 -3.4712 -1.92911e-19)
(10.3029 -0.061323 5.41482e-21)
(13.911 -0.578463 1.82037e-22)
(12.8774 0.317061 5.59436e-22)
(13.9093 0.330545 0)
(3.68184 0.55753 0)
(8.75289 -4.06067 9.12808e-21)
(5.77194 -5.6093 2.41951e-20)
(8.56442 0.218334 -1.39292e-23)
(9.97533 -0.0886862 2.38668e-20)
(7.50286 -2.81612 4.39951e-21)
(7.87956 0.237167 0)
(9.41816 -0.212693 0)
(9.16065 -2.10812 -3.08079e-22)
(11.1891 -0.141495 2.34797e-21)
(9.31493 1.94388 2.00802e-20)
(10.4988 0.570741 0)
(12.3939 -0.0682916 0)
(12.2659 -2.48222 -6.89969e-21)
(10.7012 -0.695895 6.17075e-21)
(2.55223 -2.6707 -2.9388e-20)
(14.1335 -0.96176 0)
(15.3948 -3.90042 9.20492e-21)
(26.2846 3.55163 -2.44514e-20)
(-0.423424 1.0107 -5.41363e-21)
(10.4546 -0.26957 -1.07135e-20)
(10.5479 0.927402 0)
(13.2225 3.78515 4.7041e-21)
(-2.537 9.79225 -6.83873e-21)
(-0.190593 3.29263 0)
(8.1017 0.00925253 -1.24568e-21)
(9.77169 -0.0431013 -8.17171e-21)
(8.70257 0.0782884 -9.30214e-25)
(9.50986 1.65647 1.55698e-21)
(8.82194 9.04617 7.14858e-21)
(10.7127 0.043742 0)
(6.38779 -2.55075 -2.87934e-22)
(6.7954 -2.76026 -4.23934e-21)
(2.19535 1.97941 2.29553e-20)
(10.0111 0.81552 9.73936e-21)
(0.700364 16.2166 4.73412e-20)
(10.1928 -0.0215085 -2.48245e-20)
(8.78863 -1.24931 -2.32866e-22)
(9.54645 -2.65535 6.4825e-22)
(9.86145 -2.13594 0)
(10.1952 -0.209809 -3.64904e-21)
(6.81746 -3.19951 8.76128e-21)
(11.2706 -0.0622654 -5.72346e-21)
(10.0239 -0.094713 -1.07044e-20)
(16.8601 0.806571 1.25511e-20)
(9.16737 -1.22987 2.39094e-20)
(13.3134 0.113229 7.51872e-23)
(9.33334 -0.109981 6.93459e-21)
(8.1297 -1.10057 -1.39275e-21)
(12.2147 2.52403 -6.29667e-21)
(10.8224 3.94559 9.06215e-21)
(-6.36464 11.3903 3.89971e-20)
(10.2864 0.0230402 0)
(5.85859 -3.88397 0)
(19.7523 5.44872 0)
(7.6655 -2.46357 1.88598e-20)
(10.0452 0.0252122 -1.69319e-20)
(9.22622 0.261831 0)
(8.70539 -2.02993 -1.3633e-20)
(9.20594 0.187852 0)
(9.71713 -1.66354 -8.9968e-21)
(18.6491 -5.45562 -3.5811e-20)
(10.6894 -2.4045 -4.11751e-21)
(10.8111 0.0513026 0)
(10.0055 -0.168506 0)
(14.4277 -1.86943 6.41992e-21)
(11.7287 1.30459 -1.27828e-22)
(13.3451 0.671466 5.43771e-21)
(9.66223 6.22267 -8.79564e-22)
(10.0866 1.19927 0)
(10.0378 -3.46878 -2.42115e-21)
(-2.76941 3.09368 0)
(4.86232 2.27351 -1.50126e-20)
(11.9258 4.7799 0)
(13.8292 -0.423231 -2.36192e-22)
(6.79757 -1.47576 9.20085e-21)
(8.55696 -1.23372 8.34154e-21)
(13.3616 -1.03663 -5.49344e-21)
(2.4952 15.0899 -1.43027e-19)
(10.5991 -0.89263 1.55135e-20)
(9.99107 0.873927 -2.0176e-22)
(18.0391 0.237547 4.96349e-20)
(11.1253 -1.88809 -1.52096e-21)
(-3.1095 0.337548 1.24897e-20)
(11.77 1.97053 0)
(10.0821 -0.0372136 -2.92701e-24)
(8.87434 -2.30811 0)
(9.67038 -2.40135 -7.82809e-22)
(10.1979 -3.45146 -1.08875e-21)
(9.32254 -1.1417 -7.75842e-21)
(8.58539 0.134674 -1.77097e-23)
(12.3276 0.414401 -6.44209e-22)
(9.09198 -0.734691 1.73656e-20)
(11.2351 0.198968 -2.09984e-21)
(8.53727 -0.826858 0)
(4.13601 -4.96735 0)
(12.6756 -0.336973 5.76318e-22)
(12.8742 1.3213 0)
(9.67882 0.227416 -4.44811e-21)