/*--------------------------------*- C++ -*----------------------------------*\
| =========                 |                                                 |
| \\      /  F ield         | OpenFOAM: The Open Source CFD Toolbox           |
|  \\    /   O peration     | Version:  2306                                  |
|   \\  /    A nd           | Website:  www.openfoam.com                      |
|    \\/     M anipulation  |                                                 |
\*---------------------------------------------------------------------------*/
FoamFile
{
    version     2.0;
    format      ascii;
    arch        "LSB;label=32;scalar=64";
    class       volScalarField;
    location    "6.3";
    object      p;
}
// * * * * * * * * * * * * * * * * * * * * * * * * * * * * * * * * * * * * * //

dimensions      [0 2 -2 0 0 0 0];

internalField   nonuniform List<scalar> 
13486
(
2.51991
2.06198
0.058586
-1.03724
0.801078
-0.193621
0.346275
1.40518
1.70025
0.989698
-9.70276
0.432205
2.65143
-0.175601
0.634515
1.08639
-5.05319
0.144141
0.596166
2.28365
-0.633762
2.62033
2.02328
-3.01043
0.937729
-2.71971
-5.41245
-1.18436
0.00193538
-1.10298
-0.369699
0.487318
-2.199
-0.76492
1.40827
0.0113636
-0.0199297
2.05579
-0.167614
1.70092
0.187786
2.75377
0.037573
0.9325
0.894897
0.408727
-4.08797
0.00359907
-0.0193384
-1.03109
1.51652
-0.184649
0.336708
2.08938
0.0831064
0.868046
0.0392684
-0.187913
-2.09001
-0.0277876
-11.4017
-0.0191541
-2.95858
-0.564372
-2.03423
-0.017523
-1.38428
2.53776
1.68958
-0.0556778
-1.41022
0.102432
1.71508
-4.4923
-0.00909143
0.0428382
-0.00750194
0.617578
-4.05424
-0.246457
0.00413034
2.09007
-2.97437
0.0675927
2.52926
0.974982
-0.116461
1.43926
1.71769
1.08506
0.363039
1.21599
2.41493
2.18698
1.76884
0.00328034
-5.50896
-2.03883
1.67377
-5.01019
0.027887
-0.0814529
-2.05056
-0.181924
1.16203
-4.98925
1.71876
-0.174738
-4.24278
1.09623
1.63347
0.395283
2.08784
0.0455741
2.95867
1.71254
0.943125
-0.710433
1.72972
-0.0120837
0.142836
-10.875
1.85027
-0.173413
1.628
-0.173021
1.20027
0.461544
-0.623951
-1.41885
-0.16809
-3.80744
-5.33409
-3.90093
1.58763
1.42809
2.95351
1.14229
-0.0113968
1.44889
-1.70119
0.330401
0.494544
-0.256141
0.039165
-4.29877
-0.0236938
1.80212
-1.11997
0.000828143
1.03265
0.582483
0.00478213
2.13127
0.547879
0.0518267
0.898423
-0.0198247
1.86164
-0.631001
-0.749049
1.86225
0.256336
2.74544
-0.18909
-0.456684
0.0690324
3.37786
-0.0252328
-3.9132
-5.43041
0.562141
1.22325
0.89974
0.0015893
-6.42364
-0.364234
-1.94789
1.72112
0.506076
1.59331
0.0459349
0.729036
-6.72939
0.0723725
-1.17335
0.00114624
-1.00118
0.260966
1.8006
-0.0141612
0.0557611
-0.217394
2.21264
-0.250434
-9.31096
-1.5137
-0.792167
2.26458
-0.370015
-0.404208
0.437369
2.06025
0.642965
-0.487536
-0.259386
0.107448
1.85168
-0.205005
0.0807196
-1.09203
-2.15137
2.2553
1.7191
-0.189854
-0.54322
-1.14911
1.11401
2.28759
-2.12647
-5.03715
-1.14485
1.48744
-0.803533
0.249735
2.45657
-0.491559
-1.5666
-0.43036
-0.128688
1.57408
-0.244897
-1.78113
2.80735
-1.38316
2.35895
-0.853518
0.0568589
2.38312
0.762618
-2.25577
1.20105
0.0512715
2.24584
-0.165129
1.95529
0.797771
-1.75165
-3.9316
1.04022
-4.83054
2.99167
1.65314
-0.180722
-0.333294
-8.02369
0.473365
-0.5181
0.00729555
-2.20867
1.89158
-0.160698
0.623766
-7.47261
0.900577
-6.82328
-0.440349
-0.531207
1.58724
0.116751
1.75408
1.68632
-1.19075
0.331051
2.46058
-1.62912
-0.336187
-0.219519
-0.194279
-0.00696564
-0.265425
1.39513
1.73694
-5.40639
-10.1842
-5.02168
-1.60237
-0.649907
0.238394
1.60378
-1.25956
-0.145175
1.77279
1.6026
-0.810648
-0.922962
-0.755136
0.300156
1.7684
0.283269
0.238519
0.110649
-0.0154615
0.51612
-0.0241167
0.674222
-0.272311
0.834973
-0.125229
-0.0147885
-3.85377
-0.956322
-0.0867665
0.399048
-10.6632
1.4583
-0.162193
1.72198
1.86175
-0.511298
-0.0169926
-0.122372
1.70874
2.20201
2.92342
0.386492
1.06057
1.36552
0.173589
0.980077
1.45045
1.1612
0.324892
2.36122
0.332051
1.66669
3.0581
0.623188
1.10422
-0.161791
-0.473813
2.18203
0.943134
0.74696
-7.578
0.00280976
1.12463
2.95285
-2.14807
-0.157378
1.08887
0.225226
0.312485
-5.71986
1.75563
-0.00656681
-4.61449
1.17396
-0.138014
-2.01276
0.612089
0.339496
1.91571
1.69009
-1.14996
0.00309676
-0.880961
-3.86712
2.3079
1.18732
0.0310462
1.14447
0.215938
-5.69455
-0.101715
1.54953
1.75027
-0.151191
-10.1842
-3.21821
1.56755
1.12622
2.66156
1.85148
-4.02265
-0.358343
0.163026
1.0772
-4.97482
-0.208637
2.21767
-1.27885
0.787695
2.40276
2.50677
-0.002406
-1.14981
-5.4145
-5.05232
-1.70084
-5.02077
0.549377
1.49184
-0.340149
0.388531
0.00799371
2.15489
-1.91038
1.20519
1.95389
1.05073
-0.987443
-1.36247
1.77291
1.73415
2.1374
-6.61473
0.927382
-5.53795
0.788111
1.72104
0.238331
2.96265
1.15218
-0.623241
-0.953868
0.42986
1.73505
-5.35104
0.176588
2.59864
1.4966
0.769706
0.202971
0.737744
-1.88255
2.65173
-0.146193
0.944449
2.49787
-5.17951
-1.20329
-3.83523
-1.39354
-0.273242
1.99968
2.02861
2.61373
-3.35665
-0.0165904
-7.8254
1.12523
1.75202
-1.01209
-1.211
1.71103
-4.42094
-6.56776
-6.03464
-4.18046
0.0373997
2.12212
0.00242007
0.20137
-0.717963
1.65645
0.0033993
3.22149
2.44228
1.71217
1.35269
0.0136105
0.00223896
3.04097
-0.383443
-0.00854055
-0.613383
1.68246
-5.04387
0.280655
1.24933
-0.0101356
-0.632202
2.00421
-1.92993
-5.05461
1.16115
-0.237024
3.36633
1.1815
1.53239
1.85898
-6.83589
0.134822
2.75871
0.805635
2.2113
0.341427
0.536513
-0.624456
-0.248981
0.0337132
-4.94019
1.78455
1.67373
-4.97237
0.000916464
-0.254791
2.52862
2.00529
-0.35703
1.70594
1.22809
-0.588879
0.909544
1.55605
-5.48057
2.62118
0.00850872
-0.0505492
2.73158
1.14062
-0.00392713
1.10917
-0.783308
-3.71744
0.689219
1.04557
1.87752
2.42061
-6.60158
0.72938
-6.59438
0.00326901
2.35395
0.532505
-6.73421
-2.29398
0.237087
0.00560879
1.35217
-1.87905
-1.15113
1.71148
2.3362
-0.166188
1.88149
-4.07176
-6.37945
-1.55508
0.76476
-8.0161
1.8612
0.111278
-11.8851
1.42791
1.98455
-2.29693
-6.62073
1.53725
2.35901
0.617591
2.54173
0.122797
1.19428
0.454991
1.88527
0.04221
2.29495
-5.59727
0.525881
1.62252
-0.580124
-1.54151
1.70513
-5.21827
0.315617
1.99686
2.61643
-0.797173
0.0194822
0.55189
0.280895
1.4924
1.28954
0.528829
-6.9283
0.0775372
2.49975
0.337085
0.235222
-4.7017
2.6332
-0.718891
0.0473423
1.6766
1.33145
-0.254328
-0.318992
1.43237
0.129386
-0.0835827
0.724525
-1.5089
2.55165
1.66946
1.16911
1.20259
0.141589
-1.5876
2.86485
0.574527
2.8704
-1.34174
1.61348
0.0102924
-4.55205
1.00213
1.03333
2.99993
-4.03193
1.07856
1.02126
-2.30343
0.996656
0.142284
-0.514567
1.63984
-6.69891
-1.45614
-1.98021
-0.109606
-0.637594
1.84508
0.00306045
2.78765
1.67832
-0.413443
-6.07381
-1.07854
0.61435
-9.78063
-0.226145
-4.96647
2.33978
0.00110969
0.0456498
-10.957
2.66761
0.0026043
0.226879
2.7295
1.53572
-6.44255
-0.169658
1.17885
0.202659
1.61165
0.0490721
-1.2229
0.708891
1.52546
0.566647
1.3689
2.76893
0.0472644
-4.07755
1.70428
0.255575
-0.263183
1.13638
1.31032
0.815441
-6.4686
0.112066
-0.145424
0.205647
2.35023
0.586261
0.15418
0.0808143
0.0917643
-0.28189
1.76316
-0.124322
1.5753
1.58968
2.36496
0.160634
-1.057
2.84973
0.0231684
-4.19638
1.77004
-1.86405
1.94157
0.0376596
1.67521
-0.33941
-4.14827
-2.60008
0.00236001
-5.04989
0.976332
2.92975
-0.627975
-4.13105
-0.570669
1.80394
0.0796096
0.818699
-11.6247
2.9065
-6.40777
0.888293
-1.09778
1.05309
1.73212
0.752853
-2.94563
-0.417552
2.70164
1.75144
0.693068
1.48969
0.0637177
1.30945
1.329
1.05731
-3.81515
-0.33641
2.13388
0.356911
-0.201402
1.39514
-3.7158
-0.601841
-0.125912
1.82822
1.84226
-2.60232
0.0963361
-6.10702
-0.480418
0.137446
-0.617297
0.340626
1.66951
0.0190872
-1.34217
1.96714
-0.0316475
-1.0252
-0.0823132
-0.728782
-2.56099
-2.31181
-0.145533
-9.4887
1.59987
2.64789
-0.00543509
-1.0146
2.73685
2.5669
-0.719441
-1.52563
1.73584
-4.73672
0.0434047
0.0641119
0.14555
0.911258
-5.04894
0.853174
1.2035
-0.642553
-0.3913
-2.57499
-0.158694
1.44044
0.84929
1.07816
-3.31327
1.52629
2.51395
-6.01908
-8.85647
1.8884
0.566145
1.12239
-0.163097
-1.05651
-3.56393
-0.113278
1.75187
2.87789
1.85514
0.133432
-0.102857
1.71259
2.44656
-0.282546
1.79752
1.67862
2.57558
0.385873
-0.132144
0.311716
-0.498904
2.56087
0.106684
-0.032136
1.14369
-0.337356
0.415298
-0.0876311
-1.59147
1.65117
1.32353
1.23411
0.881766
-2.62958
-0.376234
-0.569336
0.918653
-1.61137
-0.671164
0.0391606
-10.1481
-12.3698
0.959848
-1.06127
-3.89889
-2.76137
-0.733087
1.23298
-8.27895
-5.97452
1.90265
-0.91231
2.62606
-1.51805
-3.98052
1.99449
2.36921
-0.00596042
0.18009
0.351938
1.77804
0.931717
-2.57913
-0.246177
-0.0249298
-0.350588
1.6833
0.0459908
1.05969
-0.130682
1.6857
-5.34964
0.0474991
-0.00767754
2.04685
-1.40652
-10.2722
-4.70013
2.60026
0.102299
-4.12871
-9.57419
1.68002
-4.78586
-0.128683
0.389647
0.777343
0.00507393
1.1392
-1.87677
1.46433
1.69956
1.94716
0.837663
-0.0684598
-0.714821
1.33948
-0.436431
2.02449
1.24211
-0.25307
-0.183358
-0.378726
-0.0462078
-0.0196692
1.93677
0.751732
0.277437
1.70859
0.125801
1.32913
2.96865
-0.0871493
-1.99021
1.22017
-0.024519
-0.126437
-0.402503
-0.702717
1.6733
0.0493451
0.0238631
0.0420188
0.182151
2.15776
-6.19216
0.00367212
1.71534
-0.0155047
2.42443
1.963
2.24742
0.42446
1.15039
0.530141
0.0327188
1.24019
1.64317
-0.323181
-0.588897
-2.54102
-1.0777
-10.4746
1.67325
-3.78372
-2.74807
-9.45259
-0.296031
-0.00978182
1.73141
0.00476709
0.345494
-4.02409
1.74379
2.92931
-0.00466917
-10.4003
1.02299
-0.00585345
1.62092
-0.532805
-0.16662
2.02297
-0.200113
2.77746
1.14767
1.70435
-1.02568
2.19255
0.0421903
1.97465
0.00670598
-2.31869
-0.34967
-4.39745
1.11492
-0.0481095
-0.182894
2.61643
1.73862
1.86581
2.38276
1.89857
2.0418
-0.55485
1.74846
1.75412
1.75441
-0.515488
-0.491582
-1.17121
-1.28016
0.450623
1.88693
-4.16327
2.54586
-1.35001
0.0494765
2.85675
2.41482
-0.580901
-3.34678
1.68852
0.951262
0.0400827
1.56939
-4.00561
-0.599291
1.70221
2.32803
-0.163695
1.85564
2.1709
0.00314791
-0.723717
2.1893
0.749232
-0.0169554
-7.22994
0.0606521
-1.54149
1.62396
1.271
-0.0559313
-0.117316
-1.29518
0.453381
-0.106272
0.404876
2.47814
-0.15774
3.16537
1.68476
0.573934
1.90015
-6.57083
-4.69184
-4.38535
1.67063
-0.165689
-3.71699
-0.3551
0.902561
1.07137
-0.158467
1.18275
-4.22499
0.84615
0.110953
-0.145936
1.33781
0.537665
2.18296
1.75004
1.81667
1.61049
-0.589577
-1.87918
-1.385
0.0957531
-1.04391
-0.100394
1.312
-0.655017
-0.0657057
-0.0624833
0.2165
-12.1148
1.17541
0.892514
-0.605748
-1.37387
0.805085
-1.07978
-1.94133
0.25638
-0.0531802
1.85204
1.31218
2.16051
-3.86447
1.57228
0.0446789
2.35609
-0.0437964
0.960241
0.167132
-0.162662
2.72674
2.83145
1.39019
0.895781
1.21638
1.52978
2.75699
1.13034
-1.97936
-11.1237
0.342449
-1.25553
-2.34728
1.73276
1.6158
-0.000774379
0.412138
1.39828
1.51944
2.9956
-4.34849
1.38879
-5.11333
-0.208366
2.43357
-0.394102
1.38496
-0.471032
0.663683
0.665589
3.11724
-0.243626
-1.19353
0.920611
0.276707
-7.81399
-4.03099
0.16088
1.91042
-1.52367
0.90197
2.56376
2.36538
-0.273299
-2.79329
-0.336198
0.382087
1.97205
1.58214
2.33792
1.02377
-9.85143
2.45295
1.51805
-2.36959
1.27544
1.769
2.11655
-10.0091
-0.345709
0.00191351
1.48951
2.69223
0.892469
0.214337
-1.55384
3.00857
-6.98447
-1.6584
2.8064
1.53219
0.0784797
1.32749
-1.25224
0.908402
-0.911552
-7.27368
-0.149875
-5.30343
0.119801
-0.686659
-4.96995
-5.04573
-2.88378
0.0863193
-5.0229
-5.04032
1.40095
1.61022
0.86274
-4.23186
0.452793
0.34828
-0.598652
3.15014
1.0884
-1.22884
1.53102
-0.876929
-5.75348
1.36816
1.35761
1.61351
3.1852
0.00488951
-0.384796
-3.14288
0.0803673
1.12416
1.6397
-0.587588
2.48007
1.25575
1.81072
-0.629233
-0.242267
0.0482635
1.73349
1.71715
1.79869
1.71993
2.94134
2.87893
-0.905599
1.53935
2.16117
-1.18814
2.33066
-0.128743
2.84526
2.3087
0.118307
1.94461
0.909986
1.26388
-0.0187134
1.76116
-1.7955
1.45474
0.589727
1.11422
-0.197698
1.62012
-0.0987457
0.443309
2.75012
2.74446
1.10104
-3.90481
0.410884
0.0571128
-0.352997
1.43671
2.46084
-3.88175
1.75883
1.59738
0.820183
1.72243
-8.80736
-0.476548
-0.0631788
2.98953
0.479915
-0.479067
1.98593
-0.203801
0.0468866
0.918233
0.340742
1.34901
0.645067
-1.03525
1.00201
1.33283
1.08663
1.23861
2.90172
2.39087
2.09221
1.9792
2.69204
0.784799
-0.141726
0.0939406
-1.56323
2.71734
-0.66106
1.66791
1.4951
-6.62864
0.857975
1.86417
-3.19884
0.836575
1.15805
3.22239
-5.8
0.744975
0.0550104
1.91897
0.0471686
-1.39186
2.67294
2.28012
1.61278
1.66106
-1.00518
0.774005
-4.93993
2.87276
0.0156897
3.0953
-0.189448
0.209342
-4.79337
0.877085
-4.45411
0.320932
-0.203335
0.675075
-0.095788
0.64676
-1.84193
0.00105834
-0.575443
-3.82787
-1.14926
-2.65729
-0.107163
-0.269303
-0.570869
-10.7258
1.71092
1.7447
2.19078
1.7024
0.678733
0.658539
3.36887
1.62564
-5.31627
0.00272245
-0.106731
1.35899
1.46766
2.48546
-1.50929
-1.52601
1.35632
0.00230776
0.43478
2.14338
-3.96593
-7.41577
-4.98846
2.9055
-2.0055
1.15934
2.1492
-0.255008
1.31367
-0.0826884
-6.80677
-6.22849
-0.28493
1.20203
1.99403
2.10944
-2.75108
-3.90931
1.08645
-4.31822
-1.15152
-0.595964
0.359843
-0.886693
-0.144641
-2.30291
-5.94111
-2.74258
2.57746
-0.705036
2.81559
-8.35835
-0.344578
0.634491
0.0857823
2.38092
1.64025
2.03462
-0.0570848
-0.919696
-7.29801
2.29167
-3.80096
1.29558
-0.134619
2.08766
2.37597
-0.137368
1.66742
2.70044
1.83894
1.81482
-2.9196
-0.123223
0.698559
-1.75095
-0.199485
0.993872
1.17987
0.0497486
-8.24891
0.403975
-0.066938
1.45
1.22641
-1.12986
2.83564
0.0721334
0.00192672
0.243388
1.69059
-1.42072
0.00575392
1.81584
-0.785334
0.0256921
-0.330626
1.77084
1.69572
1.62383
-0.155013
1.63119
1.96601
1.88588
-0.863986
0.0504495
0.472113
1.43583
-1.51279
-5.45165
-3.58159
-2.05876
-1.23258
0.0382525
-0.190207
0.0435551
-4.08109
-1.13476
-13.0571
-0.0996025
-0.977771
0.704978
-7.05596
1.81512
3.39518
0.667908
-0.560854
0.84082
0.279467
0.41117
0.0249743
-1.08224
-8.60093
0.141644
2.21335
0.00357058
2.65337
0.0290631
1.62018
1.3592
0.73737
-5.04779
0.952881
2.9362
-0.576331
1.7211
1.65938
2.47423
0.144297
2.27044
1.79816
-4.64931
1.91545
-5.82206
-5.50178
2.32108
1.53407
-2.50247
0.169264
2.1907
0.142278
-3.04612
0.0433268
0.0438113
1.37763
0.979742
1.73917
1.56069
1.41739
-3.21685
-1.17546
-0.809694
1.70386
3.09316
-1.2196
-6.22008
-5.02468
1.67456
0.104218
0.115319
0.703783
0.151632
1.28616
-0.268315
0.401001
2.60877
0.82675
0.12317
-0.452424
-3.00538
-1.93058
-5.12011
-2.64918
-7.7237
2.03962
0.976269
-1.34356
2.72181
0.00296968
-7.60847
-0.637641
-5.76325
1.80658
-3.81655
0.637976
1.66306
-0.162247
-0.884008
-0.209842
-5.436
-1.12366
1.87435
-12.6146
-0.104293
-4.96525
1.66076
1.80895
-2.14878
2.13048
1.96091
2.55417
2.62693
1.86237
0.289664
2.99173
-4.98289
1.62113
0.290504
-10.2786
2.08342
-3.04798
2.58638
0.873388
-1.78327
-4.76864
-3.36881
1.83743
-3.59509
-1.12184
-0.030765
-1.08717
0.122111
1.11575
0.367885
1.20342
2.90256
-4.05087
-2.62007
-0.741366
1.73939
1.34784
-1.83559
3.35756
-0.13487
-0.0545128
1.18093
-1.5999
1.65341
1.71676
1.92375
1.9447
0.143142
0.886414
1.59632
0.369602
-0.317126
0.000890086
1.8103
1.88748
2.31311
-0.390529
0.0462306
0.843658
1.09526
0.31541
-7.02712
1.45518
-0.610682
1.51768
1.76784
-5.04425
2.6477
-2.87765
2.88457
1.90559
-12.4299
0.00530526
-0.0142636
0.783416
1.8117
-10.9276
2.27694
1.64507
0.838023
0.038411
0.336586
-0.272384
0.837875
-5.01824
1.01351
-0.959118
1.67761
-5.57771
-0.0608312
-0.775141
2.09895
2.40158
0.94604
-5.45798
0.901755
-0.283196
0.0458826
1.0164
-0.276255
-0.329337
2.81411
-0.754552
-0.0642923
-1.72032
-6.24621
-0.135602
1.76083
-5.03484
-0.637273
1.80553
1.05675
1.8192
-4.65966
0.766319
2.85317
-3.14651
1.68216
0.529417
-0.224476
0.658998
0.385233
-0.993976
2.90722
1.91303
-0.0123082
2.82952
2.18061
2.0894
-4.32183
-5.48393
1.05808
-1.9391
-0.115468
-3.56079
-1.66819
-3.2994
1.30851
0.648502
0.990255
1.10312
-0.249037
1.24795
1.71776
-8.1907
1.74894
1.12249
1.70996
-0.284154
-0.00973637
-2.21529
-5.1712
-3.95754
-0.745646
1.701
-11.0769
2.56921
-6.44652
1.66113
1.01341
-0.0693868
0.25497
1.71635
0.86372
0.471393
1.49469
0.289021
0.124099
2.43012
2.04658
-1.97956
-5.00112
-0.0181407
1.54191
0.0979756
0.738482
-2.71376
0.0745793
-0.335958
-0.524465
1.44551
1.39739
0.206718
0.857155
0.0462358
-0.0906449
-10.7453
2.11352
-2.76262
1.61666
0.00263122
1.50142
1.77849
1.03501
1.54408
0.0278811
-1.86041
-0.117912
-5.30689
-3.45066
-2.5786
0.0797193
-0.174936
1.4084
-0.0240809
1.68216
-0.117033
0.133105
-2.4749
-0.122938
1.74234
-6.16788
1.62207
0.434876
-7.86925
-0.153206
-3.01706
1.1822
1.80321
-0.0917396
0.325991
-4.74805
1.96734
0.0909052
0.517174
-7.4179
2.11153
0.827778
0.00657391
1.80355
1.72724
2.03004
0.414711
2.11865
-3.32348
-0.21126
-0.270808
1.6139
1.14957
0.46038
0.147182
-5.03591
-8.98396
0.900721
0.0390227
-10.4057
2.64686
-3.18074
1.99503
1.19321
-1.15632
-0.147503
-1.0236
-0.234368
0.268432
0.263505
1.62593
-0.103448
1.71347
-2.5526
0.666578
-0.31924
0.410383
-5.6697
2.08852
2.85944
1.84718
0.925391
0.31832
1.19687
-5.34103
0.040776
-0.179544
-0.339202
-2.31563
-12.9752
-6.2611
-1.29042
1.47599
1.64312
-3.33714
0.434182
1.92083
-1.06401
-2.29985
1.84069
-0.151059
-9.81881
0.0369409
-0.316554
0.00469707
2.6994
-0.193606
1.59835
-1.57399
-1.03327
-1.02983
1.62328
0.435394
1.36777
-1.20397
-1.43301
-0.746012
0.295314
1.9688
1.45872
0.382405
-0.168159
-0.803159
2.96432
-0.383045
1.89643
2.0856
0.0437466
-0.188081
0.776137
-5.09558
-0.872482
1.52101
1.06047
1.60568
-4.53918
1.86499
0.280936
2.4161
0.308348
1.54131
2.13145
1.45542
0.358401
-6.53736
0.625983
-5.27443
1.43588
0.850051
2.02261
0.212773
2.54539
0.305398
2.71109
0.0541529
2.10979
-0.160646
1.24254
-7.70826
1.65028
0.803924
0.798491
2.55046
1.70339
0.437555
-1.14409
0.955961
1.6333
-0.117758
-5.04955
1.20876
-1.56607
2.18422
-2.31049
2.5925
0.50161
3.40017
2.62616
1.2144
1.07364
-8.6049
0.160213
2.78117
-0.0252827
-0.025641
-0.298992
2.76658
0.926109
1.42065
2.37131
-1.0986
1.82287
-0.618065
1.99034
0.0453041
1.88178
1.69685
2.3165
-0.142912
-3.57875
0.502344
-3.30073
0.775348
0.239228
-0.382242
2.1974
2.43973
0.023079
0.535281
-0.564613
2.18702
1.36395
1.52506
1.11344
-0.226292
-5.20216
-0.791103
1.75539
-2.55921
-0.0366296
0.244889
1.16804
0.802224
-1.13575
2.93773
-0.19953
2.56868
0.468645
2.64472
-1.06884
0.39535
-0.0489063
0.046228
1.4023
1.68862
0.19619
-0.0155919
0.0567817
-0.0670684
2.42453
-0.43107
0.0642647
-0.24288
0.00392624
0.550476
2.04641
0.777157
-0.313579
0.0143278
1.70043
3.10133
-3.4778
-0.841487
1.6186
0.0697785
0.932155
-0.149017
1.18068
-0.00227905
-4.45209
-0.259556
-0.605634
-0.347199
-0.0434232
-3.6354
-3.38103
0.0905224
1.37024
1.78587
1.51384
3.01711
-11.4014
2.75548
-4.73252
2.61532
-11.117
-1.26326
2.918
0.776665
-1.32222
1.69309
-0.148406
1.82658
-0.351561
-4.98418
0.293596
-1.26859
-1.5807
0.00237375
-0.352144
0.751983
2.08107
-10.947
0.825117
-2.50433
0.44177
-0.216467
-0.112736
0.251559
-0.265741
-2.06104
2.24612
-0.0545112
2.45493
0.651204
-6.02911
0.666055
-1.30429
-0.0419145
1.49637
2.09739
3.03348
1.33551
1.48938
0.770868
-4.01282
2.93404
3.11666
1.86513
-0.97277
-4.41493
-5.45425
1.53761
1.07996
0.61663
1.46136
-0.425155
-0.0833239
-8.59302
2.54219
0.20331
0.263876
-1.61966
1.60273
0.491732
3.32015
3.12623
1.47236
0.291943
0.445823
-3.85732
0.774662
3.20147
0.129173
-0.033851
1.21727
0.00786879
0.36307
-0.208722
-0.446482
0.362734
0.285074
0.778443
0.00798754
0.617799
2.33876
0.494806
1.77513
-1.91211
-0.556379
2.82312
-4.64395
0.324956
0.406828
0.813767
0.416467
-2.45387
0.315229
-0.347061
0.309957
3.34432
-4.98028
-3.37026
-3.82502
-0.90423
0.0849535
0.403876
-1.86537
-3.23337
0.00699155
-2.95694
-1.20461
-1.69907
0.410033
-0.343863
0.217875
3.27455
0.250309
0.502043
-0.34036
0.412871
-3.80369
-0.771734
2.32976
1.66237
0.511514
0.00256616
1.56969
1.78887
0.0716468
-12.0424
-0.203435
2.32417
-1.1765
1.61091
0.117692
2.56823
0.209601
-2.24992
0.186908
1.84261
-1.11574
1.54617
-1.10793
3.1675
-1.66486
-0.364126
-8.7428
0.87101
-2.55599
-1.37716
-1.83752
0.185741
0.735154
-5.29672
-0.30448
-0.252713
0.356327
-1.84973
-1.2337
1.33605
-5.2808
1.43997
-2.05749
1.86118
2.91785
1.55731
-3.86454
1.68098
0.148151
0.336534
-0.282142
-0.620803
-5.03346
-0.288984
-0.907877
0.713642
0.0746075
-0.914452
-0.140772
-7.46098
0.862613
1.73699
-1.45128
-2.79751
-0.507979
0.000723469
-0.0190692
0.981496
-2.79763
-3.05823
1.75932
-0.159929
0.940738
-1.87643
-8.68599
-7.1921
-11.8377
3.27103
0.537492
-1.46889
0.610387
2.75983
2.82979
-2.65281
-0.638552
1.69797
-0.0799823
-0.22275
2.82989
0.934701
1.47058
3.33208
-0.379165
0.47052
0.332433
2.52467
1.76511
1.7254
2.15151
1.25764
0.0356425
0.0528648
0.864513
0.418284
-5.14841
2.883
-0.61141
-0.756437
0.00847862
-1.70312
0.821535
-1.63555
-0.705322
0.432162
1.73949
1.84348
1.91586
-5.22848
2.49584
2.80876
-3.5751
1.04916
-0.23716
-0.111484
0.33089
1.06472
-0.168959
-1.07596
-0.885182
3.10379
-5.77556
1.93134
1.68568
2.21707
1.24862
1.31066
-0.018498
0.0309858
0.972775
-0.185324
-6.31528
-2.37318
0.0296568
-1.35451
2.0643
-4.74665
-0.0794671
0.442708
-3.79638
-2.14097
-5.04186
1.48255
-0.620715
-0.148025
0.864036
-4.90079
0.604344
-3.39276
-0.238457
1.81865
-6.90205
2.88108
0.00536465
3.05246
0.00292983
-0.178142
0.21879
1.52448
1.42043
-3.10188
-0.317792
-0.222056
0.193941
1.1685
3.33381
2.22431
0.556424
-1.11565
0.876021
0.101167
1.91886
-0.0594005
1.07496
-0.899473
-1.64188
-3.75376
0.594888
0.033745
-3.81843
1.17382
1.06154
2.77213
2.9819
-5.08383
-5.04567
0.208932
-1.46622
2.89144
0.0718324
-0.522134
0.81595
1.28269
-0.821725
0.0821394
0.201955
-0.143171
1.52666
-0.528875
0.475559
0.00566232
-1.13593
-2.77779
-0.357361
-2.8506
-2.57381
1.84974
-3.08325
-1.92688
-0.688582
0.162303
3.14776
1.23219
1.61848
-0.775519
0.855783
-0.0278596
0.682808
0.594139
-1.8497
-5.29372
2.88315
1.79036
0.0475261
-4.32659
3.25548
-2.35806
-5.62313
-0.766246
0.842623
-2.82143
-0.791273
2.51022
-0.0434469
1.53544
0.759135
-1.10754
0.209154
-0.161286
0.838272
-3.07715
0.0888656
0.62084
1.63846
-3.27173
-5.43894
0.0778716
-0.997539
-1.69627
-1.57598
3.0737
1.18111
-11.0986
0.796515
0.50741
2.70554
0.938617
-5.17969
0.998489
2.14795
1.82392
-1.30783
1.54381
-0.0279117
2.85968
0.0316586
1.76243
-7.59186
-1.19642
0.00405484
-1.20068
0.986779
0.661141
-5.10951
-3.40609
1.97493
-0.0127778
-0.0893009
2.35209
1.38873
2.29086
1.61231
-1.49324
0.0182138
0.125661
1.65118
0.00210457
2.07763
1.29614
2.8339
-1.51147
2.23087
0.829287
2.8767
-1.01198
-1.04067
2.93065
-1.65507
1.26913
-5.97183
2.527
2.83373
1.83306
-2.44367
1.70472
2.16934
-1.70346
0.840026
-1.88135
2.31672
-1.84961
-0.301585
-4.99808
-4.95429
2.13007
0.805269
-5.10727
0.874043
2.82759
-0.678515
-0.144213
-4.92734
-1.35495
1.40603
-0.37809
1.64233
1.56147
-4.79336
3.15434
-0.189452
2.42508
2.37654
-0.397368
-0.00891672
1.47576
-2.29418
-0.516878
1.46409
1.25102
-0.511228
1.56865
-0.764124
2.51825
1.85989
0.661432
-0.000318394
1.86253
-0.321743
1.12003
2.22221
0.364454
0.00927087
2.15121
1.78514
-1.13862
-3.97636
1.27183
1.8709
2.85492
-4.69027
3.01163
2.96824
3.05695
-0.135288
2.08926
-7.92442
1.70897
2.25344
2.21443
1.8518
2.46344
3.31694
1.51993
-4.99542
0.156329
-5.25615
3.28728
0.904911
-0.0476627
-2.58487
1.64941
2.51305
1.56563
0.58943
-0.298015
2.48452
-3.21496
1.78795
-2.80248
0.850778
-0.0931083
0.515876
1.08877
-6.94719
-6.96464
-0.176716
-0.947265
-0.0673299
2.04796
-0.246275
0.192286
1.55246
-6.68904
1.0358
0.00147464
-5.83112
-7.10069
-5.18392
2.35565
2.54802
-2.08329
0.792767
2.17319
2.03259
0.0241765
-7.4773
1.82762
-5.09815
2.32753
-5.04254
2.26703
1.15058
0.325584
2.12383
1.10995
2.20299
0.624504
0.87085
-1.10881
-3.90045
-8.37771
-0.194025
2.16166
-8.26766
-1.20985
-7.0162
2.44706
2.17935
0.710329
1.23569
2.44302
-2.50549
1.58717
-0.0869029
-1.15941
1.58053
-2.25672
-5.51333
-1.46776
-5.14059
-0.701985
-12.1232
-0.102387
-5.88507
-4.02727
1.36462
2.88991
3.14356
2.74428
-9.36628
1.8086
-8.09568
1.54053
2.44962
0.344931
2.12197
-5.91905
0.613206
-1.17073
-0.056255
2.3097
-1.02093
1.89542
-5.16183
-0.355684
-5.10207
1.95164
1.87897
1.71097
-6.62058
1.57243
-0.258948
-4.95703
-4.93447
0.569475
2.90163
-2.93269
-0.751669
-3.09207
1.60597
1.64951
-0.178799
1.12717
-6.24033
2.47847
2.28996
-0.978945
-0.282237
2.40338
-2.21641
-12.4017
0.0785287
2.20793
2.47137
-7.16056
1.18477
-0.0950547
2.84228
-5.49138
-2.41637
-0.0789766
2.66369
0.0587735
-1.09446
-0.0758749
2.29293
1.39146
2.2746
-0.135294
-2.70695
1.85592
3.25393
-4.03363
1.50537
0.0121722
-4.30398
0.0420078
0.63227
-3.27089
1.15723
-0.799786
1.17535
-0.417878
-1.72015
2.08164
2.4951
1.56112
-2.1546
-2.24585
1.94328
-5.66041
0.615334
-1.10802
0.833648
-6.94161
1.87231
1.94596
-0.00287378
1.82796
2.80214
-0.546621
1.35905
1.91992
-4.95911
1.11911
-0.644278
0.827218
0.596726
1.38865
0.00516193
0.593739
-0.523749
-2.80871
2.34566
0.660269
0.260387
-2.56692
-0.473581
1.75958
-6.77545
3.04491
-6.00774
-5.14072
-0.161336
2.15885
1.89307
2.24296
-4.62567
2.69851
-8.7994
1.31824
0.106311
-5.18071
1.60271
0.772903
-0.59272
1.1354
-5.37754
1.4207
-5.05604
-2.64582
0.00882696
-4.30717
-4.77914
1.48852
2.76528
-0.17603
-8.13183
2.15168
-2.99245
2.51493
0.759407
0.116517
1.06507
1.72707
0.875329
-0.183729
0.108987
0.0251746
0.526042
0.722159
-6.26371
-3.16313
0.0467799
0.984228
-0.0344158
3.30172
1.80114
1.70158
2.54335
0.379703
1.90229
-4.83462
-3.32438
-4.14239
1.71839
3.22857
1.54791
-1.14314
2.34775
1.57603
1.59879
-0.176417
0.0092366
0.895485
3.06057
0.0403654
-1.68438
2.30145
2.3971
1.76803
1.64886
2.03919
1.16948
-0.352848
-7.35965
1.83172
-4.48034
-3.80901
1.64023
-5.37069
-0.0267613
0.537143
1.81607
1.88634
1.91083
-0.0284603
2.23706
2.29159
0.369197
2.01005
1.74741
1.50207
1.37453
1.12919
0.857177
-0.189569
2.14883
1.99724
0.143226
1.52186
-0.0532779
-0.0575092
2.74253
2.07373
0.0112849
-8.10281
0.206263
2.13745
1.18885
0.51195
-0.0989031
0.189745
-1.07966
0.320203
-4.50306
-0.25226
1.22706
-0.40013
-5.29367
-6.61965
2.5934
-3.14617
-4.91953
-5.50621
2.78021
-0.404632
0.424678
0.449032
-5.02237
1.41656
1.61777
1.04215
2.44663
1.32693
0.0893133
-5.13041
-7.59774
0.0263212
1.99276
0.175324
-7.45298
-5.13428
-0.949132
-5.23733
-4.71898
-3.12981
-0.47345
0.715124
1.6885
2.1813
-0.722725
-0.0943649
2.45532
1.86724
-7.01078
-0.0709173
-5.15989
1.01676
0.125572
0.923769
1.48239
0.0159598
-0.503701
-0.747427
0.556292
-8.96878
-5.09892
0.0535513
-7.00983
-5.22781
-5.20213
-7.04528
0.0857412
-4.56374
0.854486
-7.03632
1.69544
1.53826
0.457227
2.18495
-11.4328
2.78231
-1.44571
0.158388
-1.36613
1.65113
1.01144
-3.90806
-3.91348
1.74842
2.06854
2.88344
-8.46167
-5.24062
-10.3912
-0.424377
0.00760767
-5.99672
0.593609
-5.09293
0.98369
-7.94123
1.27385
0.156468
-0.239227
2.53193
1.47076
-0.947017
-0.046461
-1.97831
-4.92896
2.22498
3.14687
-5.13915
2.05253
1.55292
0.00236028
-0.264808
2.12827
2.06041
-3.21541
-0.326104
-4.75433
-11.8325
-1.25074
-5.38574
-1.06494
1.20722
-0.0262139
1.88781
-7.65417
-5.31619
1.61682
-1.11851
-4.94918
0.182158
1.37592
-4.93315
-0.668802
-5.09488
-6.04871
-5.00159
2.92661
-3.81713
-0.223269
-8.76818
1.82822
-5.04694
-0.0805255
-3.16141
-11.6343
-1.13906
1.88914
0.0058049
-5.57771
1.43923
0.0168394
-1.78622
-5.554
-6.96798
1.17911
1.36307
1.71052
-3.03324
2.50664
-1.22142
0.0044546
-0.530852
-2.56493
-8.08198
-6.27424
-4.70483
0.409044
0.794506
-0.149296
-0.263441
-1.86042
1.55893
-13.2472
1.79405
-7.9983
1.13358
-0.686694
-0.169625
0.102883
3.23757
-0.325079
-4.93935
-2.55526
-1.95624
1.71549
-0.214949
0.12364
0.0273457
-4.65944
-8.15764
-4.0648
-5.19516
1.82925
-7.29097
0.302622
-4.72406
-0.0296851
1.44395
-0.321689
0.735874
-0.668879
2.19954
-5.08502
-2.95851
2.35554
0.677449
-5.04142
-0.285881
-6.46924
-1.79712
-0.416905
2.14732
-3.08349
0.822242
-5.10384
-5.60983
-9.32909
-8.01656
-5.41937
0.981121
-0.469832
1.6782
0.750124
-10.0931
-0.379334
-9.62558
2.09967
2.48577
-4.9878
0.24563
1.78971
1.69247
1.3087
-3.98225
-4.75884
-4.22682
1.72315
0.571361
-2.17376
-7.07136
0.943568
2.03578
-0.193836
0.13729
0.165404
2.32698
-1.78873
-1.92523
-0.0745452
1.49832
0.281698
0.0804024
2.5225
2.10236
-0.163347
-7.39685
2.11938
0.926133
-0.0275818
1.54207
-1.06694
-4.61073
-4.76041
-6.25524
2.07542
1.78425
-0.325887
-1.14089
0.0419394
-0.0304627
1.82338
-8.51123
1.25818
2.21493
2.37318
-0.915823
1.68023
1.46675
1.85791
1.97078
-0.0877027
1.98084
0.0027485
1.71653
1.04445
1.83105
-6.85528
2.11592
2.00712
1.5598
1.19774
-2.62546
1.1715
-0.179996
-1.5226
2.26878
2.29695
-7.14838
1.96052
-5.22878
-4.25671
1.80404
1.81665
-3.04761
-0.0830386
-5.21994
-7.8131
-1.1418
-2.18604
-3.37641
-0.334122
1.51703
3.04302
2.11272
-0.846896
-1.03627
1.77408
0.966734
-0.357398
-4.96187
-2.18348
-1.8688
-4.26944
-3.90765
1.6446
0.018049
0.917122
0.0270071
0.0262873
0.0397333
0.0281771
0.421962
0.850698
1.25485
-1.362
0.787909
-2.67455
-13.386
1.15447
1.00739
-0.252969
0.0717577
1.21325
-0.140452
0.76384
-1.2703
1.68315
1.37713
2.66684
1.70859
-4.17895
-0.358583
-1.15694
-1.88136
-0.0893555
-0.0685623
-0.385145
-6.88568
3.09819
0.0548998
0.0585799
2.4796
-3.30786
-0.880681
-0.252273
-7.09292
-4.64237
0.480143
-1.55055
1.6247
-0.521088
-3.72339
0.139485
-1.39192
-1.40517
-0.284527
-0.0323773
1.37815
-1.848
-2.40954
-1.67665
0.668632
-1.95744
1.81385
2.54591
-1.81291
1.84997
0.9443
1.28712
2.80711
-3.96465
1.10842
0.886498
0.855896
2.40344
-0.296431
-0.420573
-0.239753
1.77929
2.54346
-3.04167
-0.0938364
-2.55927
-1.8584
0.956898
-2.98525
-2.58935
-2.33013
0.773165
-5.00277
0.389052
0.556615
1.52634
0.302298
-4.90586
-0.02231
-0.145694
-0.282972
2.71327
3.03652
2.25504
3.19871
1.56496
0.929195
1.89025
1.63389
1.6215
-2.56838
1.71054
-0.352731
-4.19093
2.48501
-0.541648
-1.79058
2.91415
0.117778
-11.4069
0.982715
0.857047
2.06869
-2.32065
1.606
2.70959
-3.50113
-4.28915
-2.16373
1.17649
-7.38095
2.15621
-0.133725
2.08111
1.70426
-2.61274
1.95934
-0.969338
-5.27913
-5.16991
-5.99413
2.0241
-2.05549
1.76419
-0.165041
-5.69858
-0.0279526
-0.0161388
-1.32848
-2.84468
-4.52174
2.05435
0.425769
-4.98591
-0.570894
1.18159
0.456834
-8.45309
0.916283
-0.199878
0.927901
-4.91569
1.08993
0.538884
1.01023
-0.308545
1.56128
1.02963
0.608543
-5.16184
3.18162
-1.35149
-4.93663
1.5639
1.37393
-5.09053
-1.71794
-6.21545
1.03902
0.882071
-1.78547
-0.0998751
-0.304621
3.16733
0.0320502
-3.4603