/*--------------------------------*- C++ -*----------------------------------*\
| =========                 |                                                 |
| \\      /  F ield         | OpenFOAM: The Open Source CFD Toolbox           |
|  \\    /   O peration     | Version:  2306                                  |
|   \\  /    A nd           | Website:  www.openfoam.com                      |
|    \\/     M anipulation  |                                                 |
\*---------------------------------------------------------------------------*/
FoamFile
{
    version     2.0;
    format      ascii;
    arch        "LSB;label=32;scalar=64";
    class       surfaceScalarField;
    location    "6.3";
    object      phi;
}
// * * * * * * * * * * * * * * * * * * * * * * * * * * * * * * * * * * * * * //

dimensions      [0 3 -1 0 0 0 0];

oriented        oriented;

internalField   nonuniform List<scalar> 
20045
(
0.245332
-0.266483
0.0211512
-0.530449
0.186599
0.343851
0.196382
0.976653
-1.17303
-0.0350485
0.0691128
-0.0340643
-0.422144
0.40892
0.0132235
-0.302436
1.12923
-0.826789
-0.506313
0.216381
0.289932
0.0325223
0.216296
-0.248819
0.240042
0.204476
-0.444518
-0.418622
-0.0494469
0.468069
-0.15438
-0.197548
0.351928
1.13313
-0.54278
-0.59035
0.173917
-0.176737
0.00281997
-0.642574
0.556251
0.0863227
-0.160873
0.529237
-0.368364
-0.545055
0.126433
0.00384293
-0.0362405
0.0323975
0.345743
-0.287065
-0.0586776
-0.835454
1.23178
-0.396323
-0.37445
0.0266909
0.347759
-0.03859
-0.00501145
0.0436015
0.057732
0.116185
-0.0626258
-0.467824
0.3979
0.566694
-0.964595
0.410761
0.110984
-0.521745
-0.588059
0.985959
-0.0423973
0.0485762
-0.00617891
-0.661342
1.25089
-0.589545
0.866452
0.13095
-0.997402
-1.23252
0.675978
0.556545
-0.185728
0.0444004
0.141328
0.71575
-0.505839
-0.209911
-0.394409
0.838082
-0.443673
1.19415
-0.697936
-0.496217
-0.278347
0.310869
1.05128
-0.513295
-0.537989
0.716809
0.0593853
-0.776195
-0.0295991
0.183124
-0.153525
-0.953367
0.430097
0.52327
0.295044
0.261553
-0.556597
0.0241425
0.199705
-0.223848
0.0631202
-0.0906188
0.0274986
1.07
-1.07149
0.00148477
0.747209
-0.281142
-0.466066
0.350816
0.396392
0.513276
0.619854
-0.128084
0.127748
0.000335473
0.639547
0.270797
-0.910344
0.862781
-0.145971
0.0802061
0.97597
-1.05618
0.650334
-1.09975
0.44942
0.880238
-0.636561
-0.243676
-0.595618
-0.423153
1.01877
-0.0457665
-0.148934
0.194701
0.377724
-0.13268
-0.245043
-0.34641
-0.0757332
-0.0742365
0.835326
-0.76109
0.765042
0.0740641
-0.839106
0.542989
-0.937398
0.985256
-0.595215
-0.390042
-0.129163
-0.170038
0.2992
0.467711
0.517546
0.264636
-0.882352
0.617716
0.0355247
-0.0741146
0.67867
-0.145681
-0.53299
0.818941
0.0490406
-0.867982
0.0479136
-0.0826123
0.0346987
-0.334033
0.0832153
0.250817
0.423545
-0.183503
0.842832
-0.856235
0.0134038
0.0818232
-0.0339096
-0.00785492
0.385578
-0.126288
-0.521195
0.647483
0.0697144
-0.139069
0.0693543
0.909318
-0.223972
-0.685346
0.678775
-0.753011
0.0424518
0.866866
0.219152
-0.380025
0.0131381
-0.206719
0.193581
0.179363
-0.609099
0.429736
0.521538
0.598394
-1.11993
0.449725
-0.346488
-0.103237
0.719324
-0.454687
-1.32091
0.244017
1.0769
0.0105855
0.234746
-0.275646
0.309789
-0.0341431
0.280501
-0.659276
0.378775
-0.80364
0.0359502
0.767689
0.518167
0.07449
-0.592657
-0.424233
0.392942
0.0312905
-0.72061
-0.1044
0.825011
0.362902
-0.0655716
-0.297331
0.199489
-0.283649
0.0841596
-0.0800347
-0.405931
0.485965
0.290681
-0.311151
0.0204693
0.757723
0.186109
-0.943832
-0.0827968
0.0403995
-0.0841227
0.143404
-0.059281
0.607141
-0.312097
0.00960614
-0.0526992
0.0430931
0.709198
0.342085
-0.228672
-0.413902
0.0570533
-0.141176
-0.161533
0.926574
-0.00372613
-0.27192
0.0559056
-0.0462994
0.230053
0.602435
-0.832488
0.524067
-0.877814
0.353746
-0.114946
-0.207933
0.181261
0.0266719
-0.0983663
0.12562
-0.0272539
0.617921
-0.454149
-0.163771
-0.244495
0.198728
0.641556
-1.12569
0.48413
-0.0823633
0.155017
-0.0726534
0.0225313
-0.121918
0.0993867
0.580993
-0.170232
0.861915
0.332238
-0.584561
0.458272
0.687421
-0.948601
0.26118
0.25247
0.0932724
-0.322669
0.193507
-0.3846
0.310338
0.0742623
-0.4293
0.0492785
-0.291315
0.242037
0.620038
0.260199
0.55475
-0.714502
0.159753
0.814162
0.0930162
-0.907178
-0.9882
0.742078
0.246121
-0.00335226
-0.570889
0.574241
0.926843
-0.306804
0.134504
-0.00675546
0.134546
-0.06991
-0.0646359
-0.0555504
0.0417042
0.0138462
0.569599
0.402155
-0.971754
0.597733
-0.57995
-0.0177824
-0.174802
0.107271
0.0675311
-0.149208
-0.0587258
1.06946
-0.38204
-0.324211
0.343817
-0.0196061
0.64678
-1.14395
0.497169
0.17411
-0.769728
0.564928
0.226066
-0.790994
0.681518
-0.502155
0.96639
-0.132009
-0.834381
0.539514
-0.963088
0.423574
1.04808
-0.676681
-0.371395
-0.126677
0.234463
-0.107786
-0.0174381
1.08003
-1.06259
1.07704
-0.210591
-0.826182
0.0275689
0.798613
-0.47646
0.41405
0.0624096
1.00699
-0.485453
0.171312
0.278413
-0.633925
0.781346
-0.147421
-0.833233
1.02961
0.0104993
-0.1527
0.142201
0.00948135
-0.00980137
0.000320022
-0.0171517
-0.184803
0.201955
1.18787
-0.478036
-0.709835
1.36521
-0.680729
-0.684481
-0.21965
0.202498
0.343789
-0.663438
0.319649
0.0742638
-0.0111436
-0.798094
-0.472656
0.692814
-0.220157
-0.67516
0.49027
0.18489
-0.0126438
-0.02052
0.0331638
0.484225
0.563851
-0.0291121
-0.0264383
0.0139829
0.120563
-0.711284
0.0773597
-0.733004
0.932463
-0.199459
-0.660141
0.755403
-0.095262
-0.591802
-0.430226
1.02203
-0.356011
0.295032
0.0609787
0.459279
-0.472794
0.0135148
0.946244
0.059504
-1.00575
0.0161714
-0.759176
0.743005
-0.361954
0.926883
0.190348
-0.54093
0.350582
-0.469159
1.11071
-0.829124
0.542621
0.286503
0.242084
-0.266553
0.0244694
0.494145
-1.26871
0.774564
-0.987062
0.32572
-0.610747
-0.425597
1.15027
-0.693309
-0.456959
-0.267835
0.291977
0.122648
-0.129651
0.00700257
-0.763889
-0.137209
0.901098
-0.876191
1.22721
-0.35102
0.908019
-0.670246
-0.237773
0.0875559
-0.252181
0.164625
-0.280796
-0.460954
0.74175
0.220297
-0.374677
-0.526862
0.52351
-0.693723
-0.226066
0.919789
0.0881171
0.0242528
-0.11237
0.141365
-0.614021
-0.0372453
-0.148483
0.873987
-0.0598253
-0.137831
0.108232
-0.129855
0.158472
-0.0286177
0.278007
0.909864
-0.795113
0.514317
0.194167
0.0244367
-0.218604
-0.700103
0.133608
0.566494
0.284156
0.623863
1.33094
-0.836799
0.761446
-1.30306
0.541612
0.241938
-0.941632
0.699694
0.0295826
-0.404032
-0.48563
0.715682
0.662598
-0.965035
0.382735
-0.785995
0.403261
-1.33792
0.763471
0.574452
-0.0141857
-0.410047
0.178166
0.136901
-0.315067
0.732977
-0.235489
-0.497488
-0.0488563
-0.749514
0.732076
-0.25075
-0.0734607
0.671488
1.07095
-0.861512
-0.209439
-0.0102408
-0.124555
0.134795
0.677104
0.121757
-0.798861
0.28432
-0.264062
-0.0202572
-0.195794
0.718442
-0.522648
-0.450549
0.73105
0.562916
-0.372568
-0.055547
0.159386
-0.103839
0.965023
-0.318243
0.0872181
-0.00810142
-0.0791166
0.0671
-0.162751
0.095651
-0.101994
0.105881
-0.00388656
1.13458
-0.71697
-0.417608
0.241934
-1.11812
-0.111425
0.00943099
-0.874444
0.284091
0.590353
1.25268
-0.4146
0.247969
-0.980973
1.32471
-0.590285
-0.734422
-0.0115817
0.0996988
0.80713
-0.423111
-0.38402
-0.61089
0.141589
0.469301
-0.940679
0.945866
-0.00518753
0.336518
-0.958864
0.622346
0.0344865
-0.0461094
0.0116229
-0.466548
0.633024
-0.166476
-0.140594
0.307323
-0.166728
-0.140633
0.0582695
-0.114229
0.0158628
-0.54647
-0.331344
0.413976
-0.813448
0.399472
0.202453
0.135383
-0.337836
0.407722
0.308029
0.712577
-0.329842
0.00268816
0.0067932
0.709357
0.543326
-0.489439
0.0111001
0.478338
0.329565
0.477565
0.380915
0.148321
-0.0644898
0.266943
-0.282925
-0.0215325
0.304458
-0.022937
0.265021
-0.760877
0.565082
-0.150981
0.06759
0.0833914
-0.928214
0.890877
0.0373374
-0.336211
0.53568
-0.199469
-0.221348
-0.104625
0.325973
0.765477
-0.828251
0.0627741
-0.813509
-0.524413
1.29113
-0.820508
-0.470624
-0.0912833
0.0810425
1.05021
-0.713695
-0.422929
0.836904
-0.223956
-0.1365
0.360456
0.836301
-0.197299
-0.639002
1.14007
-0.307239
-0.832834
-0.400997
0.177041
0.83059
-0.491874
-0.338716
-0.157423
0.780929
-0.623506
0.614145
-1.07636
0.462217
0.271523
0.0695582
-0.341081
0.0165111
-0.0134987
-0.00301245
1.27197
-1.04305
-0.228914
-0.517954
-0.470246
0.711319
0.359632
-0.846607
-0.0816071
0.104603
-0.0375033
0.0902083
-0.601499
0.511291
0.00387468
0.118774
-0.540054
1.10965
0.440694
0.693883
1.25264
-0.758783
-0.493853
-0.774052
0.547986
0.723121
-1.20955
0.486432
-0.627535
-0.038157
0.665692
-0.23365
-0.173011
0.406661
0.548666
-0.204878
-0.0092948
0.203462
0.463391
-0.029245
-0.476594
-0.689096
0.92589
-0.236794
-0.149171
0.0193163
-0.0645435
0.00899647
0.116412
-1.05709
0.342945
-0.793494
0.0988919
-0.194103
0.267639
-0.0735357
0.0103935
-0.045442
-0.5054
0.381304
0.124097
0.349295
0.268626
0.342359
0.191826
-0.534185
0.493522
0.104211
-0.508954
0.599163
0.571298
-0.0531305
-0.20397
-0.496133
1.04154
-0.811805
-0.229738
0.878327
-0.748736
0.240574
0.508162
0.799293
-0.864442
0.0651485
-0.43378
0.353746
-0.10991
-0.0648916
-0.119568
-0.601042
0.284464
-0.539188
0.254723
0.41679
0.4138
0.704683
-1.14216
0.437476
0.226091
-0.533466
0.307375
-0.972396
0.168757
0.0114675
0.351435
-0.575034
0.872067
-0.297033
-0.255387
0.30275
-0.0473635
-0.405027
-0.101286
-0.123241
-0.224463
0.347703
0.0782333
0.000933968
-0.0791672
-0.327297
-0.149163
0.376964
0.445107
-0.822071
0.743336
-0.41377
0.280667
-0.449591
0.0158109
0.461233
-0.235142
-0.66422
-0.164905
0.255348
-0.34861
0.093262
0.976359
-0.336812
-0.459269
0.749722
-0.290454
-0.111359
0.128538
-0.0171794
0.74375
-0.0107737
-0.177444
-0.424055
-0.504124
0.924886
-0.420762
0.632796
-1.13977
0.506978
0.592367
0.698765
0.0729248
-0.111358
0.0384328
0.0861433
-0.713678
0.668937
-1.00953
0.340595
0.0921814
-0.022467
-0.0771012
0.631851
-0.355527
0.698472
-0.667175
0.909113
0.190162
-1.02562
-0.884033
0.486895
0.397137
0.635507
-0.0984865
-0.53702
0.934272
-0.168796
-0.469052
-0.532066
-0.471839
0.535667
-0.044514
0.179189
-0.134675
0.314827
-0.288136
-0.714917
0.637816
0.845317
0.224686
-0.785473
0.326204
1.06017
-0.348846
-0.124403
0.296628
-0.172225
0.0176257
-0.629065
0.611439
-0.902407
0.170199
0.732208
0.726244
-0.726244
-0.270881
0.697292
-0.426411
0.58933
-0.246971
0.68315
-0.382805
-0.300345
-0.956621
0.990621
-0.0339995
0.334956
-0.0441793
-0.290777
0.256012
-0.106168
-0.149845
0.104967
-0.326315
0.0899899
0.454252
-0.877181
-0.859157
1.01305
-0.15389
-0.282981
0.659945
0.111317
-0.0020124
-0.109305
-0.104199
0.0770526
0.0271464
-0.374619
0.404202
1.1909
-0.96557
-0.225333
-0.0827899
-0.528023
0.610813
-0.223314
0.244321
-0.0210076
0.117118
-0.272239
0.155121
-0.998548
0.381068
0.61748
0.0350144
0.0340984
-0.259194
0.134791
0.0300544
-0.105461
0.0754067
0.583507
0.688458
0.0916278
0.0196892
-0.0431345
-0.293455
0.336589
-0.509579
0.805188
-0.295609
-0.00429891
0.0773117
-0.0730128
0.42872
-0.212339
0.719087
-0.230576
-0.488511
0.00661239
-0.412543
0.114263
0.831981
0.429554
0.297003
-0.726557
0.458601
-0.410374
-0.048227
-1.0128
0.186613
-0.425246
0.17533
0.249916
0.469953
0.612697
-1.08265
-0.626311
0.588154
0.0449397
-0.91364
0.868701
-0.121388
0.208944
0.243326
-0.278531
0.0352043
0.0219579
-0.304883
-0.00475526
0.030306
-0.0255508
-0.672808
-0.201636
0.618607
0.0769145
0.0116882
-0.0886027
-0.115352
0.00399329
0.171465
-0.709867
0.538402
0.234685
0.546427
-0.781112
0.391485
-0.714002
0.871128
-0.157126
-0.715817
0.558394
0.0465795
0.00199668
-0.393679
-0.281481
-0.248107
0.0661643
0.181943
-0.875142
0.365563
0.670042
-0.752832
0.434467
0.625698
-0.29745
0.300735
-0.00328435
0.395774
-1.02345
0.627677
0.145086
-0.260903
0.115817
0.435639
-0.613083
-0.637322
-0.022819
-0.302682
-0.0313506
0.0599006
-0.0351535
-0.0247471
0.377393
-0.00632519
-0.0262156
0.0325408
1.0191
-0.54915
-0.450491
0.853071
-0.40258
0.261314
0.176287
-0.437601
-0.363995
0.242607
-0.205508
-0.0425996
0.427409
0.255741
-0.208713
-0.739888
0.364483
-0.109136
0.616571
0.403848
0.16745
-0.932835
1.01304
0.11522
-0.468396
0.353176
-0.0855602
-0.828133
0.913693
-0.21045
0.212508
-0.00205791
-0.170041
-0.18597
-0.48747
1.10161
1.00815
-0.46864
-0.435561
-0.069839
0.0105744
-0.408969
0.398394
0.40738
-0.999182
-0.125839
-0.470978
0.596816
-0.0505001
0.0461567
0.00434345
-0.65214
0.0556778
0.596462
0.955688
-0.684891
-0.0183285
0.0781023
-0.0597739
-0.207475
-0.0158386
0.177104
0.3577
-0.534804
0.0955826
-0.12098
0.025397
0.61526
0.355508
-0.970768
-0.38461
1.14233
0.076303
0.00193023
-0.268156
-0.575714
0.84387
0.348604
0.720858
0.9407
-0.706015
-0.343165
0.219925
-0.0271759
0.043687
-0.448072
1.17119
0.137553
-0.768039
0.630486
0.910141
-0.145024
-0.765117
-0.482164
0.715262
-0.233098
0.395975
-0.422679
-0.446649
0.869328
0.0584562
-0.0894771
0.031021
-0.285738
-0.484389
0.770127
-0.0408319
-0.0633671
0.0264867
-0.0391305
0.505351
-0.791089
-0.707558
-0.206433
0.91399
-0.0665613
-0.475929
0.54249
0.230543
1.20337
-1.22397
0.020601
0.203933
-0.148347
-0.0555864
0.00650386
-0.303954
0.2578
0.228166
-0.312937
0.0792871
-0.815888
1.02477
-0.208883
-0.152178
0.00119618
0.302708
0.37881
-0.823375
-0.248113
-0.0115156
-0.0233135
0.034829
0.534318
-0.130469
-0.193004
0.212903
-0.0198992
0.148987
-0.289581
-1.17795
0.567206
0.941559
0.187666
-0.128201
0.245319
-0.195925
0.457238
0.859305
-0.405053
-0.200385
0.00738128
-0.103099
-0.611818
0.210649
0.205144
-0.194644
-0.918501
0.0160941
0.00922763
0.204765
-0.0596789
-0.956509
0.648822
0.307688
0.709194
0.133637
0.178677
-0.056751
-0.121926
0.274296
-0.256453
-0.0178431
-0.794432
0.281138
-1.02719
0.523065
0.00813936
0.166009
-0.174148
-0.0476387
0.187322
-0.139683
1.0218
-0.00188817
-1.01991
0.140388
0.00786537
-0.148254
-0.134555
-0.250045
0.217151
-0.0176617
0.193657
-0.183595
-0.0100621
0.382901
-0.0580784
-0.324822
0.0246858
0.168971
0.839947
-0.653839
-0.0283261
-0.137318
0.165644
-1.02044
0.204552
-0.0232269
-0.132727
0.189781
-0.0607097
0.137624
0.00361151
-0.000923353
0.239493
0.155381
-0.394874
0.499427
0.179243
0.441485
-0.326265
0.187892
-0.16536
0.0612505
-0.316637
0.624661
-0.010042
-0.614619
0.531121
-0.0319636
-0.499158
-0.593734
-0.369354
-0.188944
-0.129884
0.318828
0.402162
-0.4363
0.0341383
1.1128
-0.0405809
-1.07222
-0.32143
-0.0435964
0.365026
-0.493534
0.656674
-0.16314
0.566245
0.664216
-1.23046
0.110061
-0.280099
-0.264554
0.424688
-0.160134
0.207205
0.0957216
-0.302926
-1.10169
0.595494
0.506199
-0.157083
-0.0265123
-0.843956
0.136399
0.290665
-0.181153
-0.109513
0.488118
-0.616092
0.127974
-0.0804031
-0.18608
0.188951
1.01442
0.820208
-0.134695
-0.685513
-0.848405
0.134404
0.338075
-0.542046
0.728592
-1.14687
0.418276
-0.0941175
0.272284
-0.00987201
-0.386943
0.343809
-0.156783
0.206061
-0.127758
-0.785355
0.913113
0.447302
0.602911
-0.744552
0.773541
-0.0289891
0.040395
0.0195055
-0.617186
-0.259028
-0.108405
0.120943
-0.0125381
0.397486
-0.282397
-0.115089
0.0260511
0.0161082
-0.0421593
-0.0680421
0.55616
-0.778855
-0.100669
0.879524
-0.722164
-0.246403
0.968567
0.474905
-0.348199
-0.126706
-0.165191
0.0186215
0.146569
-0.330585
0.0424704
0.288114
-1.01439
0.0434082
0.970981
0.0269778
0.176726
-0.203704
0.808435
-0.907529
0.0990948
-0.519518
0.934329
0.0819384
-1.01627
0.0103469
-0.118751
-0.136664
-0.543102
0.679766
0.606936
-1.0761
-0.94836
0.823345
0.125015
0.110981
-0.0153984
0.699859
-0.39715
-0.0467179
-0.248941
0.295659
-0.00815677
0.121381
-0.113224
-0.208521
0.919929
-0.711408
0.776651
-0.410225
-0.366425
1.03633
-0.98031
-0.0560242
0.793143
-0.305532
-0.487611
0.044237
-0.214454
0.170217
-0.280745
-0.0105705
-0.922536
0.811595
0.110941
0.0535985
-0.976134
-0.294021
0.520341
-0.226321
-0.594087
-0.448964
0.176666
-0.155259
-0.0214061
-0.79859
-0.22185
-0.168088
0.110305
0.0577829
0.126118
0.158202
-0.885048
0.852721
0.0323273
-0.179172
-0.123185
-0.0158835
0.151651
-0.0112627
-0.602159
0.135611
0.120736
-0.148191
0.0274551
-0.813904
0.394764
0.41914
0.352366
-0.0174099
-0.249002
0.674026
0.0697239
0.351882
0.0231372
0.224453
-0.24759
-0.0897998
0.549079
-0.600073
0.388721
0.211352
-0.199935
0.0428525
1.02779
-0.580488
0.875312
-0.479538
-0.245161
-0.154704
0.399865
0.425287
-0.874568
0.44928
0.544569
-0.61113
0.980486
-0.432127
-0.548359
-0.00340071
-0.507694
-0.0923796
-0.9418
0.826558
0.115242
0.107684
-0.313473
1.07492
-1.06751
0.268917
0.355422
-0.0838996
-0.09149
0.04439
0.108765
-0.00288405
-0.493925
-0.51158
1.23873
-0.559952
-0.129903
0.293002
-0.1631
0.0618368
0.194175
-0.664986
-0.384141
1.04913
0.220822
0.327844
-0.00299579
-0.130627
0.133623
0.820533
-0.247665
-0.0290199
0.276685
0.629221
-0.00456022
-0.355919
-1.03068
0.171518
-0.200809
0.00902738
0.191781
0.573218
0.75149
0.46892
-0.255828
-0.213092
0.98168
0.0546536
0.606154
-0.854819
0.248665
-0.831244
-0.0111468
0.842391
-0.751012
0.976038
-0.225026
0.124928
-0.00440971
-0.120518
-0.449613
1.05655
-0.320257
0.0967376
0.22352
0.0207312
-0.765283
0.134038
-0.0376629
-0.0963752
-0.955384
1.24218
-0.286799
-0.235888
0.530012
-0.294124
1.16162
-0.510961
-0.650662
-0.00889833
-0.594173
0.603071
-0.24833
-0.0302011
-0.527084
1.09333
0.423919
-0.694801
1.1161
-0.483309
-0.172517
0.144191
-0.869042
0.0377972
1.20655
-0.501864
-0.0265826
-1.29433
0.220648
-0.0209429
0.320022
0.518091
-0.838113
0.545157
-0.118868
-0.426289
0.886428
-0.968918
0.0824896
-0.122366
0.00918572
0.11318
-0.194149
-0.475041
0.669189
0.339046
-0.277796
-0.367325
0.127214
0.240111
0.122474
0.289263
-0.411737
0.0746296
0.102036
-0.874492
1.0238
-0.149311
-0.170805
-0.0396455
0.445178
0.196537
-0.641715
0.567114
0.490739
-1.05785
0.148532
0.486975
-0.0166326
0.983023
0.00315632
0.78333
-0.786486
0.00298412
-0.00728303
0.0837583
-0.000605787
-0.0831525
0.956959
-0.888276
-0.0686829
0.448601
0.531885
-0.0669482
0.0320051
0.0349431
-0.288774
0.805233
-0.516458
0.0138982
0.14099
-0.154888
0.495068
-0.832471
0.337403
-0.468206
-0.561532
1.02974
0.839791
-0.162686
0.300721
0.244436
-0.421519
-0.0976385
0.519158
0.280838
-0.808861
-0.0749728
-0.200872
0.275845
0.174825
-0.0751566
-0.0996689
-0.00603242
-0.242297
-0.07165
0.619
-0.54735
-0.142045
1.11801
0.770651
-0.61717
-0.15348
0.617411
-0.542921
-0.519858
0.152472
0.367385
0.099688
-0.482493
0.00645504
0.0457689
-0.052224
0.0528181
0.125859
0.137192
0.735266
-0.872459
0.20371
0.179191
0.120708
-0.842872
-0.416778
0.166904
0.249874
-0.316783
-0.231706
0.548489
0.463685
-0.224192
-0.840078
0.557097
0.26529
-0.214712
-0.050578
-0.461003
0.830151
-0.369148
-0.426345
0.432958
-0.424211
0.544562
-0.120351
-0.560981
0.88098
-0.319998
-0.020156
0.191224
-0.171068
-0.197097
0.149459
-0.290928
-0.578432
0.886149
-0.307717
-0.54088
0.674488
0.499767
-0.501926
0.00215857
0.253936
-0.129855
-0.124082
-1.25397
0.84786
0.406113
-0.0136964
0.233249
-0.219552
0.0419797
0.688124
-0.896645
0.820417
-0.395129
-0.3576
-0.526433
-0.696746
0.699902
0.500172
-0.00990232
0.387221
0.127295
-0.514516
-0.312282
0.286878
0.0254034
0.13436
-0.173732
0.0393721
-0.099588
-0.361174
0.460762
-0.15801
0.49219
-0.33418
-0.755475
-0.249375
1.00485
0.0789581
0.174978
0.793577
0.163382
-0.789876
0.5473
0.242577
0.115112
-0.298492
0.18338
0.00325406
0.160343
-0.210629
0.0502862
-0.649944
-0.555027
0.455439
0.121932
0.184718
-0.140481
0.297784
0.0997015
0.0209359
-0.591825
0.0270062
0.263675
0.117078
0.0343125
-0.151391
-0.603732
-0.47014
1.07387
-0.0746945
-0.346825
-0.507265
-0.0973431
0.604608
0.126223
0.173332
-0.299555
-0.00849203
1.13109
-0.738676
-0.392412
0.168125
0.652083
0.0843157
0.311547
-0.422694
0.111147
-0.445876
0.966922
-0.521045
-0.568894
-0.249662
0.818556
-0.437079
0.172525
-0.413215
-0.106643
0.88215
-0.426655
-0.455495
0.259113
-0.28326
0.0241468
0.386189
0.0447087
-0.430898
-0.15161
0.178587
0.324103
-0.395933
0.0718295
0.250495
-0.0233459
-0.196304
-0.00671854
0.473275
0.408875
-0.376098
0.806195
-0.396602
1.07258
0.089576
0.169537
-0.857357
0.288463
0.712207
-0.626064
-0.0934579
-0.614864
0.12133
0.204276
-0.498297
0.720935
-0.703309
0.815731
-0.0164376
-0.184426
-0.0992232
-0.283889
-0.0672158
0.351105
-0.278239
-0.032912
0.706032
0.1496
-0.855632
0.0307404
-0.242969
0.212229
0.00450933
0.315968
-0.801086
0.485118
0.873556
-0.0651219
-0.951157
1.00713
-0.0559746
0.205343
-0.122128
-1.08252
-0.171455
-0.330607
0.840759
-0.029164
0.398302
1.12243
-0.413365
-0.709069
-0.632718
-0.0438539
0.676572
0.194709
0.510372
-0.70508
-0.681815
0.0296753
-0.160463
-0.148574
0.309037
-0.462832
0.600385
0.126813
0.515086
-0.641898
-0.177917
0.221857
-0.0439402
-0.959304
0.108934
0.85037
0.31494
0.505477
-0.220187
0.555059
0.238084
-0.301369
-0.123877
0.768606
-0.900615
-0.140548
-0.392106
0.532654
0.248423
-0.138361
0.665593
0.046871
-0.712464
0.693156
-1.08976
0.0121865
0.0223
-0.452585
0.601533
-0.148949
-0.665075
0.528411
-0.0148785
0.26136
-0.246481
-0.376937
0.164918
0.212019
0.172483
-0.342523
-0.241435
0.579511
0.155938
-0.147799
-0.137221
0.147568
0.066712
-0.330774
0.0128885
-0.0589979
-0.170568
0.164396
0.00617226
0.184754
-0.209094
0.0243401
-0.673647
0.449675
0.130396
-0.637661
-0.0125326
-0.255302
0.0265279
0.535295
-0.561823
0.304071
-0.325604
0.181415
-0.794574
0.613159
-0.284723
0.710135
-0.425411
0.189816
-0.878912
-0.0894503
-0.0256729
-0.922687
0.545965
0.692761
-0.7394
-0.100678
-0.509322
-0.239414
-0.387512
0.163049
0.149984
-0.0222267
-0.127757
1.18895
-0.615731
0.87255
-0.203613
-0.223154
-0.139833
0.362987
-1.14051
0.476221
0.664286
-0.387399
0.18985
-0.0470567
0.981386
0.143759
-0.0860267
-0.43385
-0.131193
-0.189064
0.351899
-0.311544
-0.0403543
-0.11456
0.820592
0.0400274
0.22076
-0.260787
0.676213
-1.28967
0.585608
0.704057
0.223013
0.190559
-0.413572
0.595036
-0.273924
-0.321112
-0.496733
0.260845
-0.672542
0.0159303
0.370259
0.88592
-0.971481
0.378811
-0.171607
-0.394121
0.67496
-0.895555
0.637641
0.257913
0.535717
-0.875031
0.339313
-0.687476
0.720915
-0.0334392
0.422628
-0.512428
0.0125553
0.234404
0.2405
0.108038
-0.717137
0.289831
-0.960732
0.50304
0.457692
0.234172
-0.866889
0.717176
-0.0458753
-0.565015
0.132492
0.145726
1.01334
-0.333367
-0.679972
-0.29492
0.247135
-0.563918
0.134634
-0.95881
0.914956
-0.77027
0.347591
0.469631
-0.712524
0.380525
0.331999
-0.825472
0.539189
0.286283
-0.24229
-0.028576
-0.0219241
-0.994805
0.694685
0.30012
0.602992
-1.0526
-0.861935
-0.0125571
1.13289
-0.404301
0.274165
0.0863354
-0.3605
-0.0195763
-0.121559
0.141135
-0.261362
0.474926
0.527709
-0.433544
-0.27898
0.168061
0.170985
0.223163
0.331418
-0.554581
0.346388
-0.209486
-0.0440011
-1.06665
1.11065
-0.310651
0.409736
-0.77169
-0.564789
-0.408744
0.973533
0.23167
-0.297241
-0.648702
0.200151
0.448551
-0.00682671
-0.00329145
0.0101182
0.736021
-0.863779
0.0513985
-0.503983
0.469118
0.418441
-0.887559
-0.270382
0.14048
-0.790799
0.220239
0.57056
-0.991336
0.52313
0.524008
-0.969884
0.510304
-0.650852
-0.0078458
0.00101909
-0.0302205
0.940361
-0.587705
0.725749
-0.138045
0.884949
0.000419611
-0.885368
-0.679434
-0.0114867
-0.182617
0.0642976
0.661946
0.101371
0.027167
0.285543
0.315224
0.274106
0.481876
-0.0218216
0.156181
-0.830094
-0.0549544
-0.663793
0.292942
-0.716052
0.154558
0.177999
-0.332557
0.792519
0.0465321
-0.839051
-0.0890876
0.0846779
-0.32333
-0.703858
-0.75767
-0.106772
-0.418143
1.1113
-0.31622
0.427879
-0.11166
-0.874602
0.27087
-0.257472
0.480635
-0.326566
-0.629943
-0.392336
-0.307744
0.321258
-0.551823
-0.262081
0.964262
-0.123504
0.604482
-0.289822
-0.31466
0.0798823
0.0795035
0.226507
0.98524
-0.9403
0.0103288
-0.204725
0.288884
-0.47135
0.48245
-0.419079
-0.496865
0.199117
0.156664
-0.355781
-0.763679
0.0374349
-0.108064
0.729462
-0.621398
-0.0713717
-0.879786
-0.679358
0.801116
1.3516
-0.58066
-0.770941
-0.135334
0.310664
0.785489
-0.422001
-0.363488
0.23656
-0.259906
0.0438829
0.0398753
-0.197158
0.0527527
0.144406
-0.117074
0.504296
-0.460788
1.06378
-0.0304571
-0.124802
-0.251709
-0.0688347
0.320544
-0.0152971
0.751318
0.0558901
0.44794
-0.503831
-0.357486
0.53459
0.411223
0.39401
-0.322071
-0.0947071
0.479474
-0.17588
-0.303595
-0.0709856
0.0603928
0.0105927
0.13299
-0.776708
0.643718
-0.879689
0.122019
0.196548
-0.426387
0.719328
-0.00683933
0.2434
0.107643
-0.423863
-0.949267
0.477428
-1.01155
0.330823
-0.412551
0.0379322
-0.398795
-0.544647
0.943442
-0.877097
0.125873
0.21649
-0.342364
0.983151
-0.739134
0.7607
-0.565991
0.152267
0.493978
-0.646245
0.206061
-0.366524
-0.649095
-0.143454
0.792549
0.0336681
0.133647
-0.167315
-0.456057
1.00532
-0.549268
0.771751
-0.488478
-0.283274
0.704053
0.0210187
-0.725071
-0.529981
-0.759684
-0.298558
-0.00412386
0.343342
0.583501
-0.0134221
0.0736137
-0.0601916
-0.639581
-0.151218
0.661916
0.569861
-0.500933
0.596202
-0.0952691
-0.299322
0.270302
-0.0111949
0.335685
-0.324491
0.230355
-0.190328
-0.114018
-0.880787
-0.802484
0.255978
0.00931234
-0.179313
0.142067
0.0673121
0.696885
-0.764197
-0.47592
-0.126239
0.454943
0.288393
0.0622757
-0.211483
0.0148918
0.168942
-0.183834
0.0891944
-0.3374
0.248206
0.277914
0.257766
0.187971
0.777702
-0.360912
0.846837
-0.437101
-0.0957736
-0.228649
0.324423
0.710732
0.0701963
0.0323917
-0.62574
0.431591
0.351024
-0.366321
-0.510985
-0.546769
1.05775
-0.621475
-0.519032
-1.05458
1.09951
-0.044933
0.186523
-0.355034
0.287818
0.521821
0.255881
-0.159752
-0.0373975
0.19715
-0.286356
-0.569879
-0.0553636
-0.678223
0.733586
0.427689
-0.206867
0.169631
-0.244604
0.550206
-0.873537
0.445703
-0.334719
-0.42808
1.28085
-0.852769
0.571732
0.47351
0.274277
-0.747787
1.06957
-0.628795
-0.440775
-0.456337
-0.65786
1.09823
-0.440367
0.30939
0.295092
-0.25425
0.247411
0.398866
0.762757
-0.182234
0.162658
0.0233248
-0.02965
0.902046
-0.499891
0.434927
0.754022
-0.364043
0.187199
0.176844
0.204164
-0.449325
0.713067
-0.0474741
0.456892
-0.182727
-0.649693
-0.112202
0.761894
0.161681
-0.0321734
-0.129508
0.113792
0.0901413
0.129133
-0.880145
-0.252538
0.274496
0.656472
-0.571231
-0.0852417
0.145304
0.33417
-0.124281
0.0675301
0.219716
0.215208
-0.434924
-0.473636
1.01662
0.0921302
-0.54079
1.11239
-0.571601
-0.27541
0.397884
-0.166834
-0.0110823
1.04954
-0.51765
-0.328957
0.305648
0.289388
0.267065
-0.279597
-0.137421
0.117265
-0.268988
-0.114162
-0.00119026
0.446621
-0.132144
0.760533
-0.628389
0.111373
-0.0813182
-0.324532
0.0755913
-0.28332
-0.0152387
-0.846793
0.578637
0.212326
0.212362
-0.147631
-0.133696
0.281327
0.272395
0.0373945
0.784504
0.423308
-1.20781
-0.075299
-0.0192321
0.0945311
0.264212
-0.714704
0.879018
0.472582
0.733844
-0.666532
-1.10593
0.0430536
-0.0271026
-0.114855
0.432635
0.50862
0.434122
-0.942742
0.332007
-0.0279361
-0.0325109
-0.288688
-0.0753549
-0.475091
-0.428822
0.52851
0.605342
0.247729
0.531761
-0.546827
0.0150652
0.157376
0.00702023
-0.0657444
0.216523
-0.0317683
0.675838
0.170123
-0.845961
0.316827
0.0350712
-0.194234
0.117441
0.0767926
-0.302573
-6.68523e-05
0.302639
0.307349
0.534506
-0.841855
0.20498
0.258706
0.643939
-0.0165222
-0.227972
0.655418
-0.340194
-0.0065912
0.00263503
0.00395617
-0.936563
0.510965
0.778304
-0.623818
-0.154486
0.0113105
-0.110841
0.0995302
0.761222
-0.832872
0.498339
-0.0706506
0.328571
0.432129
-0.100518
-0.0136441
-0.418571
0.123749
0.294822
-0.560441
-0.097189
0.99884
-0.510392
-0.488448
0.536134
-0.0832988
-0.452836
0.372612
-0.635324
0.262711
-0.047598
0.467327
-0.00609435
-0.300316
0.70395
-0.403634
-0.285687
-0.132884
-0.334934
0.0187021
0.202058
0.679308
0.00556833
-0.684876
-0.296754
-0.0496369
0.166715
0.0392412
-0.00723613
0.415601
0.185933
-0.135989
0.16204
-0.0138333
0.0481284
-0.133094
0.129368
-0.349386
0.501653
0.0124035
0.19274
0.194081
-0.287137
0.694859
-0.0475921
0.579354
-0.121701
-0.0887211
-0.213207
0.432923
-0.189037
0.849112
-0.660076
-0.744681
-0.0992753
-0.557832
0.887362
-0.329531
-0.236199
0.254901
0.27237
-0.0560741
-0.0186723
-0.203938
0.222611
-0.765529
0.247879
0.0824331
-0.100762
0.463635
-1.12862
0.333499
-0.909213
-0.350579
0.917274
-0.420848
0.446799
-0.23159
0.0120943
-0.58811
0.721101
0.000460838
-0.125016
0.139817
-0.488016
-0.0814558
-0.550344
0.6318
0.0138316
0.415135
1.20554
-0.788669
-0.416868
-0.188395
0.0565549
0.177045
0.0189931
-0.196038
-0.718904
0.131199
0.148404
0.0264217
-0.006174
-0.0970891
0.103263
0.386743
-0.944575
0.0758519
0.397794
0.0234925
-0.421286
-0.937986
0.748949
0.115574
0.0314849
-0.147059
0.298428
-0.87686
-0.111421
-0.00310582
0.114527
0.147974
-0.0324006
-0.00134254
0.641575
-0.493043
0.538036
0.433724
-0.228744
-0.798606
0.233816
-0.60592
0.480609
0.125311
0.519658
-1.03064
-0.443949
-0.265254
0.709203
0.0719211
0.342129
-0.257986
0.213807
1.04733
-0.146334
-0.901001
-0.00878555
-0.821308
0.644285
0.0597674
0.373999
0.411491
-0.126028
-0.00459926
0.112176
-0.248287
-0.290901
0.0598446
-0.0493491
-0.0104956
0.0203516
-0.666127
0.645775
-0.0426024
0.238935
-0.196332
0.345081
-0.870024
0.524943
-0.103339
-0.476611
-0.030749
0.033629
0.604144
-0.294975
-0.165501
0.460476
-0.310729
-0.362078
0.380527
-0.223863
0.325922
-0.145671
-0.180251
-0.364469
0.216838
-0.704458
-0.117236
-0.0159679
0.133204
0.103965
0.268577
-0.372542
0.113703
-0.705005
0.591302
0.011024
-0.478848
0.146143
-1.10153
-0.391903
-0.676929
1.06883
-0.847986
0.0380845
0.809902
-1.15798
-0.701888
0.0144123
-0.228891
0.236089
-0.00719784
-1.11145
-0.307984
0.983822
0.322042
-0.16666
0.0707574
-0.283965
-0.14476
0.403466
0.119583
0.0702088
-0.321918
0.0124422
-0.0970963
0.084654
-0.20414
0.0774632
-0.0642666
0.0755771
-0.227095
0.450108
-0.876085
0.548146
0.327939
-0.270628
0.261333
0.529457
0.160202
0.00147973
-0.243228
0.0834754
-0.422593
-0.226109
-0.466183
0.16487
0.301313
0.067817
0.253208
-0.321025
-0.343263
0.432458
-0.0635192
0.630014
0.842766
-0.786876
0.488084
-0.798814
0.377058
-0.517648
0.14059
0.0766712
0.00143111
-0.101423
-0.0099343
-0.93647
0.537675
0.111232
0.424902
0.0129013
-0.159191
0.14629
-1.41273
0.579496
-0.0676552
-0.0950957
-0.157811
-0.0170934
-0.179771
0.196865
-0.47822
0.183245
-0.962983
0.848965
0.967484
-0.498366
-0.147512
0.132181
0.0153307
-0.0570397
0.0337262
-0.117595
-0.943126
0.313952
0.629174
-0.10862
0.0893875
-0.0546577
0.2329
-0.178242
0.319925
0.178414
0.168154
-0.153825
-0.0143284
-0.216511
0.228914
0.0828369
0.00934459
0.514468
-0.75828
0.937655
0.0440255
-0.540502
-0.118775
0.852335
-0.0325419