/*--------------------------------*- C++ -*----------------------------------*\
| =========                 |                                                 |
| \\      /  F ield         | OpenFOAM: The Open Source CFD Toolbox           |
|  \\    /   O peration     | Version:  2306                                  |
|   \\  /    A nd           | Website:  www.openfoam.com                      |
|    \\/     M anipulation  |                                                 |
\*---------------------------------------------------------------------------*/
FoamFile
{
    version     2.0;
    format      ascii;
    arch        "LSB;label=32;scalar=64";
    class       volScalarField;
    location    "1.7";
    object      p;
}
// * * * * * * * * * * * * * * * * * * * * * * * * * * * * * * * * * * * * * //

dimensions      [0 2 -2 0 0 0 0];

internalField   nonuniform List<scalar> 
13486
(
38.8346
31.3676
0.598011
-17.4019
13.4981
-4.59047
5.63419
22.5041
26.5152
16.1632
-184.62
6.18548
40.8552
-1.83498
9.91283
16.8499
-88.186
2.03668
8.37678
35.0223
-11.1067
40.469
30.766
-59.5678
13.903
-52.7001
-99.7002
-22.5468
-0.0298877
-21.8003
-6.67975
7.47528
-42.7341
-15.2281
22.5117
-0.0768717
-1.19538
32.1874
-3.99872
26.2173
4.8692
42.5618
0.332254
14.2228
14.0015
5.89327
-82.6026
0.00796494
-1.1246
-20.8571
22.8893
-4.32886
4.67759
32.6237
1.03931
14.1214
-0.0915939
-4.32074
-39.7566
-1.67551
-221.802
-1.46655
-66.5626
-9.96873
-36.3176
-1.14705
-23.8396
38.9015
26.3968
-1.9129
-23.5163
1.3289
26.7048
-66.8361
-1.05944
-0.053474
-0.951544
9.675
-86.5259
-5.41828
-0.0306577
31.5465
-68.9628
0.591933
38.9718
11.7567
-3.23026
21.669
26.4131
18.5461
5.39162
19.665
37.2131
33.3403
27.7815
0.0298259
-102.551
-36.602
26.0586
-91.1095
-0.00459499
-0.75964
-35.3824
-4.25753
18.3315
-87.8478
26.0083
-4.17926
-87.248
18.7247
26.5068
6.27398
32.5537
0.385332
45.4651
26.8477
14.5102
-14.129
26.9688
-0.887172
1.98973
-212.972
28.9898
-4.13025
25.7896
-4.05849
18.7194
6.21811
-12.1755
-26.6274
-4.04014
-79.4001
-59.8773
-52.3011
23.8744
21.9756
41.7225
19.1393
-0.902225
22.9781
-32.2796
4.45621
7.428
-5.47553
0.451669
-90.2483
0.390186
36.892
-21.8574
-0.0085929
15.0211
9.46612
0.0199266
32.4252
7.96081
0.0122224
15.5714
-0.490628
29.2626
-22.7302
-15.768
29.2355
4.3086
42.214
-4.40835
-6.82021
1.76158
51.589
-0.083605
-52.7055
-55.6084
8.01404
18.1251
13.969
-0.0460228
-123.584
-4.21191
-36.8683
26.1316
7.51317
24.8571
0.448675
11.1055
-132.964
0.482486
-22.3425
0.0011284
-19.2129
5.85342
28.6075
-0.919006
0.309253
-4.84964
34.9564
-5.41319
-180.201
-27.5815
-15.8964
35.5351
-4.99937
-7.0319
5.91976
32.1819
12.96
-21.066
-5.56634
1.60143
28.6124
-4.77592
0.636807
-20.4613
-44.0911
34.6136
26.0399
-4.57221
-11.0929
-22.9024
18.8108
35.3798
-33.1527
-89.456
-22.0389
23.4389
-16.5938
3.15905
38.0802
-8.69779
-28.0334
-9.29703
-1.23748
24.5519
-10.714
-33.9474
43.4634
-24.7048
36.7315
-16.4474
0.401366
37.1042
11.535
-43.4604
17.8792
0.433289
35.1238
-3.87788
29.8351
11.8961
-35.8633
-66.0037
15.9098
-91.8449
45.7702
25.6425
-4.28964
-7.11087
-159.667
7.30355
-10.6244
0.0399203
-43.9506
28.8815
-3.78246
9.78916
-139.687
15.0926
-135.204
-9.38564
-9.18947
25.0048
1.27691
27.7368
25.4488
-23.5095
4.6264
38.1907
-33.7742
-7.17812
-3.8812
-4.44677
0.493309
-4.58035
21.6178
26.4762
-103.04
-200.055
-95.4836
-31.9931
-13.022
3.10797
25.2247
-21.1945
-3.88202
28.241
23.7188
-15.6607
-17.861
-16.191
4.27342
26.997
5.4379
3.61408
1.7033
0.487145
7.84168
-1.20355
11.7817
-0.564565
11.8862
-2.18522
-0.977232
-43.2105
-16.0899
0.00469898
6.42229
-191.453
22.2104
-4.87795
26.4483
28.6917
-10.4453
-1.12397
-3.34403
25.9189
33.6606
43.5686
5.67171
16.6375
21.2134
2.33107
15.5852
21.9669
18.9263
4.8015
36.1543
5.25065
26.2611
47.2699
10.0537
16.518
-3.845
-10.0027
33.208
15.1554
11.3872
-147.014
0.0140421
17.4224
45.5365
-34.0492
-4.19857
17.0228
3.0684
4.33326
-108.626
26.8209
-0.422169
-65.9881
18.5792
-3.0734
-40.5735
8.73528
4.85075
29.2627
25.5644
-22.8961
0.0156361
-17.0552
-75.7567
35.4518
18.8285
0.119929
17.6772
2.49303
-107.887
-1.65456
22.98
25.7608
-3.83524
-188.743
-40.0498
24.7348
18.35
40.8137
28.727
-77.5949
-7.60562
1.59013
16.1943
-90.3911
-4.2445
34.004
-24.3787
11.304
37.1543
38.4142
-0.67582
-19.5342
-103.799
-87.5252
-33.215
-88.4971
8.43235
23.2433
-4.41872
6.08093
-0.26337
33.1658
-36.0766
18.5183
29.9773
15.1398
-11.4337
-26.2348
27.1207
25.5768
32.8172
-130.235
15.5807
-64.0226
11.8789
26.1355
3.49567
45.5953
17.3807
-11.6611
-18.5369
5.80038
26.4672
-98.7874
2.94658
40.1343
23.2046
10.9519
2.42067
12.8004
-35.7617
40.5668
-3.81785
14.3952
38.2018
-93.3446
-23.7009
-51.3639
-26.4867
-3.43135
30.9131
31.7401
40.2538
-39.62
-1.03589
-149.983
17.0075
26.8581
-20.8038
-14.9014
25.1354
-83.2646
-123.351
-111.419
-89.5295
1.33537
32.7331
-0.0547971
3.33241
-12.4214
25.2112
0.028762
49.1167
37.6929
26.4461
21.7324
-0.0176981
-0.0114026
47.0289
-7.753
-0.842313
-12.2293
26.4398
-92.0013
3.86835
18.6396
-0.684369
-9.09479
30.3909
-32.6011
-87.6754
17.3711
-4.34003
51.0739
17.5167
23.0277
28.3997
-138.2
1.68627
41.8004
13.653
33.7988
6.03819
7.43521
-11.3521
-5.43722
0.268228
-89.4287
27.1839
26.5319
-94.1292
0.0248344
-5.66308
38.7696
31.0198
-7.61459
26.9737
19.1514
-8.3752
15.6398
23.1076
-65.4238
40.1354
-0.455214
-1.8122
42.1262
18.745
-0.0562109
17.1624
-13.7741
-69.5686
10.036
17.6679
29.242
37.3869
-131.805
12.5192
-132.223
0.0255534
36.5317
7.02364
-132.256
-41.5072
3.88936
-0.939043
21.3362
-35.2464
-14.6516
27.0185
35.7863
-4.17019
28.7995
-91.0637
-121.501
-20.7756
10.3994
-156.569
28.6884
1.15885
-235.537
22.3373
30.7749
-46.3909
-131.566
23.1971
36.3521
9.37047
39.0928
1.32188
17.6172
5.97196
28.7866
0.44842
35.4333
-103.771
9.2837
25.7567
-11.3886
-31.1755
25.6832
-94.3675
4.57302
32.0058
40.5062
-13.4278
-2.52142
8.41284
3.94964
23.2302
19.6265
10.0166
-136.536
-0.0431454
38.5853
4.32311
3.67449
-87.0686
40.6489
-14.3295
0.423557
24.8518
20.8788
-5.55095
-4.68724
23.2626
1.69016
-2.20094
9.75245
-21.4974
39.382
26.345
18.0546
18.691
1.57798
-31.9176
44.0745
8.2156
44.1643
-23.1718
25.5216
-0.149846
-69.9857
17.4504
15.7469
46.0657
-73.0981
17.7133
16.1809
-35.9205
15.5429
2.13173
-5.81193
25.5217
-132.778
-29.1307
-38.1385
0.899575
-12.6925
28.2554
-0.0327876
43.1121
25.9312
-17.3672
-116.283
-19.6849
8.46216
-192.353
-1.97394
-91.5964
36.506
-0.00475642
0.16445
-216.864
41.0284
0.0605945
3.87598
42.2071
22.9649
-126.054
-3.73246
18.2517
2.10342
25.7748
0.465179
-21.3843
9.70245
23.6161
7.87656
21.0786
42.7686
0.381662
-76.504
25.6072
2.85445
-6.01184
18.0128
19.4498
12.0867
-126.643
1.14119
-3.72417
2.79222
36.4369
8.11961
1.93555
0.721822
3.01191
-5.95956
27.4641
-6.22869
24.9944
24.62
36.397
2.09981
-12.9639
43.8091
0.26752
-79.3803
27.1753
-36.3056
29.6956
0.350731
24.9288
-7.55851
-58.1145
-50.73
-0.0094034
-88.7484
14.5722
44.9985
-12.5874
-86.8951
-9.85677
27.7824
0.320818
11.7808
-232.863
44.4146
-123.966
13.3991
-21.6396
15.6979
26.4328
12.444
-36.1914
-7.78516
41.699
25.439
12.0411
23.3005
3.03923
20.4324
21.0482
15.8991
-50.4109
-7.12466
32.5967
5.59056
-4.56916
22.5976
-69.3152
-12.4
-3.27635
28.0848
28.0019
-48.1828
1.04868
-118.264
-8.7
1.95495
-12.5758
4.93394
24.7755
1.43936
-17.1078
30.6826
-1.11754
-18.2762
-1.78993
-12.5742
-47.107
-48.3256
-3.62925
-192.971
25.766
40.8755
-0.737348
-19.2234
42.2777
39.6047
-12.7184
-27.9653
27.3144
-86.7127
0.435107
1.18489
1.7783
14.6453
-87.3452
11.2065
17.8687
-11.2079
-6.67237
-51.2152
-3.57234
22.4749
13.5952
16.5844
-60.8371
23.7101
38.6789
-126.746
-180.511
29.6607
10.9091
16.5145
-3.93812
-20.8565
-69.9209
-3.24448
26.832
44.3336
28.5244
0.968396
-2.00065
25.9552
37.6773
-4.03334
28.1083
25.9849
39.6822
6.00591
-3.44126
3.93157
-9.88686
38.9952
1.14248
5.68413
17.7171
-7.135
6.09311
-2.67462
-28.6182
25.1028
24.4721
18.4014
13.2024
-82.8718
-7.62287
-11.4896
14.6138
-23.0084
-8.58137
0.341253
-198.795
-246.551
14.1765
-20.859
-60.0746
-74.3913
-14.3348
20.0328
-158.724
-110.985
29.0925
-15.5073
40.663
-26.6835
-65.8976
31.2537
36.7015
-0.994859
2.40683
7.56818
27.1796
15.6077
-49.7752
-5.41927
-1.22569
-6.31846
24.8285
0.208343
15.7223
-3.46846
26.4498
-102.884
0.444184
-0.444675
31.7326
-27.3504
-201.025
-84.184
40.1812
0.939637
-74.5832
-185.447
25.8882
-90.6627
-3.64804
5.49747
12.104
-0.713151
18.1061
-35.2242
22.9364
25.0336
30.3203
12.1648
-2.27831
-14.3597
20.0867
-5.12784
31.6937
19.5135
-5.47617
-4.28893
-7.94042
-1.94538
-1.09958
29.6072
10.3274
5.2096
25.8842
1.76369
20.7507
45.6682
-2.74469
-32.9453
18.0055
-0.803041
-3.29112
-8.29201
-12.5099
26.0233
0.358173
0.276824
0.369776
2.37804
33.8466
-120.427
0.0208273
25.8869
0.0334073
36.9664
29.854
34.7524
5.9473
18.5983
7.86825
0.698223
19.8705
25.5006
-6.33291
-11.6976
-71.1878
-21.3686
-209.45
26.057
-79.3305
-55.4258
-186.085
-6.37921
-0.606345
26.3236
-0.204703
5.28977
-51.4472
25.7345
45.161
-0.61731
-197.451
15.3758
-0.424754
25.6262
-22.2463
-3.93716
31.2569
-4.56135
42.8895
17.6946
25.7807
-19.9537
33.7005
0.415643
30.0424
-0.524525
-46.5263
-4.35077
-80.7781
17.0861
-1.71417
-1.48533
40.4339
25.5838
28.4914
36.7659
29.1495
31.6111
-11.4377
27.273
25.6919
26.8838
-9.99936
-9.16895
-23.455
-14.7283
6.81388
29.6091
-56.3908
43.3509
-17.3057
0.409861
43.9128
37.1009
-11.2927
-70.9768
26.1974
14.3441
1.76474
24.4868
-55.4051
-9.58508
25.6521
35.9471
-3.8648
29.1026
33.4216
-0.0748841
-14.8178
33.5815
11.142
-0.976374
-143.247
0.533131
-28.0807
24.6105
21.0169
-2.20899
-1.66553
-25.963
6.94702
-2.82798
5.70984
37.8874
-3.82983
48.6672
26.1313
8.10592
29.3045
-128.133
-51.9204
-80.4593
26.0095
-3.94334
-48.3221
-6.01771
12.7756
16.19
-3.89024
19.5715
-74.7068
13.5417
1.5128
-3.81884
20.8619
7.91082
33.8097
26.7419
27.7107
24.9733
-11.1335
-36.8593
-26.901
0.948872
-18.4636
-2.82828
20.4942
-11.4663
-1.94335
-2.4503
2.53099
-248.679
18.2427
13.5992
-6.90453
-27.591
12.2013
-20.8596
-37.6757
3.48282
-1.32239
29.0403
19.5414
33.8056
-52.5847
23.4048
0.468914
36.1989
1.66267
14.1052
1.98596
-3.31327
41.9105
43.1173
20.9767
15.0954
18.379
24.0757
42.441
18.0291
-39.2987
-224.387
4.9059
-15.8788
-77.906
25.6387
25.3842
-0.766281
8.11273
22.4369
23.52
46.1498
-90.4619
20.9472
-88.5477
-16.6895
37.2548
-7.85769
21.5359
-8.43242
9.77812
9.94361
47.7958
-4.90211
-23.6646
13.1981
3.75422
-152.152
-54.5144
2.31915
29.2439
-13.4596
15.08
39.5004
36.2927
-5.81713
-37.5457
-4.54679
5.35781
30.8988
24.6048
36.2065
15.2317
-183.129
38.0239
24.1109
-43.9507
20.2288
27.0484
32.9093
-185.224
-6.38764
0.0753142
22.2368
41.7212
13.2244
2.07656
-28.9769
46.2503
-139.427
-31.4499
43.3224
22.8625
0.356341
20.475
-21.4077
14.6185
-19.0983
-143.113
-3.74871
-99.7451
0.723225
-13.955
-89.823
-88.2638
-77.517
1.94994
-87.2398
-96.0452
22.5066
24.4162
15.1177
-75.9152
6.97618
4.94589
-11.9999
48.3114
17.4402
-23.8011
22.9076
-17.9951
-110.583
22.0584
22.0088
25.3202
48.7417
0.0400877
-7.64735
-59.9111
0.708708
17.9257
26.1717
-9.47382
38.4579
19.2499
27.724
-10.8788
-5.2635
0.445403
27.1097
26.1096
28.382
26.1582
44.8348
44.5045
-18.3517
22.9906
33.2158
-23.0706
36.3236
-3.34251
43.9051
36.1112
0.672426
29.6875
13.5758
20.0078
-0.334255
26.9684
-35.2303
22.4756
9.5145
18.2263
-4.77373
25.5913
-2.81345
6.58913
42.4458
42.3464
17.243
-52.7441
5.75531
3.76928
-7.33168
21.5365
37.9509
-53.6968
26.9382
25.0045
12.3976
26.8777
-169.785
-8.17822
-2.31495
45.7789
7.37895
-4.9992
30.4259
-5.13362
0.238045
12.8134
4.89207
20.209
11.951
-19.9806
15.1923
21.263
17.6651
19.7829
44.612
36.7388
32.6882
32.8864
41.9515
12.1666
-3.58774
1.58988
-20.2208
41.8192
-10.7675
25.8412
23.3457
-127.751
13.6426
28.7426
-63.735
12.6099
17.8575
49.2958
-109.822
11.1753
0.323256
30.1091
0.170899
-23.2814
41.2032
35.3612
25.1886
25.925
-20.5073
12.7176
-90.2175
44.36
-0.27718
47.4945
-2.56912
1.61188
-94.8973
15.3322
-61.689
4.54296
-4.59927
9.0286
-3.13029
8.80938
-31.0398
-0.00634123
-9.92408
-51.6535
-21.6818
-52.032
-1.14316
-5.79012
-9.93726
-209.284
26.9749
27.4439
34.3653
25.2246
10.3402
9.73668
51.0396
25.2113
-104.06
-0.0860423
-2.3703
20.3814
22.648
38.468
-28.736
-29.2711
21.9751
0.0279323
6.00806
32.9177
-54.8875
-141.625
-88.343
44.924
-34.4993
17.9983
33.1362
-1.59727
20.4134
-2.49575
-135.479
-122.308
-14.1414
18.0773
30.9512
32.5255
-56.0351
-53.0118
18.0287
-95.1185
-23.0651
-11.4037
5.43197
-16.7786
-3.06089
-41.4077
-114.763
-52.9634
39.7028
-12.1479
43.2486
-163.234
-7.10469
9.72123
1.00271
36.8886
26.2035
31.5174
-0.933591
-19.3949
-143.392
35.8409
-50.8378
19.4269
-3.54857
32.0658
36.6646
-3.49409
25.8593
41.5455
28.6369
27.9313
-37.8293
-2.1728
10.6292
-34.2166
-4.52906
15.8925
19.6206
0.241426
-159.619
5.77191
-4.16768
23.0907
19.8967
-20.9982
43.7522
0.465165
-0.00632705
3.3345
25.0988
-27.4085
0.0386938
28.2076
-11.6766
0.438312
-6.63631
27.9524
25.1584
24.2004
-3.26093
24.7488
30.0916
29.2763
-17.4201
0.406425
6.87172
22.2218
-28.5651
-80.8593
-65.188
-34.1519
-21.0841
0.0374439
-4.42882
0.326377
-53.8745
-21.8574
-272.121
-5.73596
-19.6521
9.85477
-141.439
27.8151
51.5547
9.88783
-9.81404
12.4656
3.65166
5.54974
0.21201
-21.7061
-162.987
1.84724
34.3056
0.0525776
40.9002
0.148329
24.1446
21.4996
11.2734
-97.5822
16.6877
45.0085
-9.82534
25.1876
24.9542
38.3384
1.64185
35.233
28.3628
-90.2629
30.0538
-114.215
-108.971
36.134
22.9177
-46.7933
4.3827
33.6831
3.81953
-56.6031
0.344432
0.474605
21.2933
14.3239
26.7437
24.6162
21.7165
-40.8111
-22.471
-16.2855
26.124
47.6524
-24.4563
-129.11
-94.9203
26.6626
1.10698
1.2428
12.3174
2.41137
20.1696
-6.50762
6.1808
39.5102
11.0654
1.52989
-8.37836
-55.1984
-37.1808
-87.294
-52.0443
-151.406
31.1453
14.0777
-25.6818
40.8497
-0.0713192
-149.056
-11.4047
-120.5
28.0957
-48.9881
8.79384
25.9042
-2.38236
-17.863
-3.74635
-108.271
-20.9967
28.5797
-260.156
-2.83741
-86.1647
25.0171
27.843
-36.7153
32.8166
30.3511
39.3911
40.4555
28.9942
3.95946
45.2759
-87.8954
25.3089
5.25434
-208.41
31.8075
-54.4755
39.5067
12.8825
-30.5795
-74.832
-66.3785
28.1092
-63.968
-21.8337
-1.03555
-13.4685
1.70711
16.3785
4.92658
19.1568
44.8767
-55.9831
-51.0952
-9.49154
27.5253
20.7359
-37.0107
51.284
-3.47024
-3.11128
18.1468
-23.5241
24.6273
26.6932
29.8491
30.467
1.8856
14.2094
24.7253
5.00911
-16.2341
-0.23405
28.4581
29.1456
35.8548
-7.05119
0.572018
14.6212
15.9041
4.37723
-138.968
21.8386
-10.0671
22.8447
26.941
-88.3144
40.9495
-55.8568
43.9561
29.8299
-263.061
0.0734367
-1.079
13.0699
27.7157
-226.702
35.118
24.9306
14.1252
0.421562
4.75
-3.50363
14.1645
-84.7088
16.5608
-17.4309
25.3808
-66.2326
-0.93208
-15.8639
32.092
37.2114
15.0781
-72.3332
13.1376
-6.10836
0.0757412
14.7886
-5.89721
-6.18237
43.3106
-11.0045
-1.54271
-33.815
-125.673
-4.79221
25.4822
-87.9333
-12.7404
27.6247
16.5618
27.9984
-88.0196
11.6024
43.6635
-43.8021
25.7954
8.03478
-6.63157
8.86641
5.3642
-5.73195
44.4246
29.7425
-0.341827
42.9052
33.767
32.0598
-92.6877
-71.6257
18.2647
-31.9493
-3.88029
-76.8572
-27.1546
-70.1792
20.3317
9.78234
15.8106
17.3823
-4.20087
20.2322
26.0982
-161.108
27.8048
16.4905
25.4488
-6.07266
-0.661771
-39.4408
-87.1428
-74.0917
-14.7801
25.9014
-217.981
39.9608
-124.453
24.6959
16.9137
-2.61859
4.53341
26.6288
13.1964
6.45437
23.234
5.51646
1.8597
37.6842
31.2824
-40.0232
-99.7918
-1.74061
23.2731
0.916008
12.6792
-54.1239
-0.102259
-6.64638
-5.07023
22.2893
22.5627
1.81781
13.0386
0.260977
-2.563
-227.952
32.2368
-50.823
25.7451
0.039788
22.4641
27.4556
15.3039
24.0551
-0.902753
-32.0227
-4.08391
-52.2299
-61.0822
-51.704
0.430001
-5.66474
21.0153
-1.75164
25.0134
-2.81612
2.28541
-41.0538
-3.2636
27.0985
-121.068
25.156
6.26864
-153.081
-0.761671
-54.8868
17.9682
25.7851
-2.6074
4.61357
-46.2492
30.7959
0.282864
7.91844
-143.374
32.4927
12.3887
-0.241533
27.797
26.8417
31.3215
11.432
32.3085
-41.4456
-10.6975
-4.42895
25.6701
17.0243
6.56078
2.18755
-97.6957
-176.71
14.3515
-0.118394
-212.13
42.0437
-41.1673
30.9852
18.2855
-20.3913
-3.73201
-18.2631
-5.16599
3.00683
3.60359
24.655
-3.10336
25.9135
-43.3849
12.6402
-6.01479
6.5584
-113.061
32.5992
43.7461
28.4334
15.55
6.40457
18.3583
-100.646
0.179518
-3.53501
-7.15093
-47.3318
-275.01
-122.025
-24.6806
22.9372
26.0701
-75.9161
6.01066
29.3435
-21.7684
-43.3337
28.1223
-3.70072
-194.732
0.417852
-6.93043
0.037912
41.7095
-3.29514
25.0412
-25.6102
-18.1753
-21.7746
25.3001
6.94413
21.2468
-16.532
-27.9902
-13.1818
4.2673
30.0528
22.5009
5.28627
-2.95768
-15.456
45.5007
-6.94524
29.4224
32.6148
1.71439
-4.38978
11.5328
-92.2618
-26.9024
22.9008
15.9648
24.9167
-76.1223
28.559
3.27089
36.865
4.79137
23.4026
32.7441
21.9826
5.03664
-128.66
8.5486
-107.037
22.934
12.5581
31.2292
2.43677
39.1478
4.32517
41.9371
0.212347
32.8223
-3.08757
19.0723
-146.94
24.8216
12.1799
12.2963
38.7467
25.8355
6.29489
-21.8879
14.3939
24.3036
-3.11824
-87.201
18.2619
-17.8908
33.6079
-40.3581
40.0093
6.73523
51.1632
40.197
19.6878
18.2623
-162.455
1.61788
42.8671
-0.688079
-1.78942
-6.39663
42.8814
14.1043
22.0316
35.1856
-19.7974
28.0555
-12.3809
30.9469
0.103492
29.4791
26.2632
36.1822
-3.61825
-85.1879
6.99022
-59.3202
11.7911
5.75932
-2.97949
33.8697
37.5203
0.2031
9.2678
-10.7261
34.1604
20.936
23.6969
16.2259
-4.18056
-56.4124
-13.8926
26.7284
-40.8829
-0.671884
3.79451
18.512
12.0413
-22.4052
44.8699
-4.24981
39.8874
8.8699
41.0721
-21.5534
6.33403
-2.31545
0.433809
21.5351
25.3838
1.54707
-0.375212
0.190513
-1.42954
37.6492
-6.20517
-0.170137
-5.41979
0.139833
10.3082
31.8869
12.984
-15.5121
-0.280702
25.727
47.6725
-63.6326
-14.6245
25.286
0.736697
13.0064
-3.72099
19.312
-0.143588
-73.5768
0.998837
-10.32
-7.13769
-0.657855
-77.4636
-63.4099
1.49559
20.972
27.4776
22.595
46.5385
-221.811
42.1107
-44.1057
40.8576
-234.73
-22.8088
45.0545
11.5026
-23.8302
26.376
-3.87501
28.6455
-8.78252
-89.0756
4.06399
-23.8017
-30.8464
-0.0210188
-7.46735
10.5534
32.5221
-222.681
11.545
-43.4886
6.69471
-4.78621
-3.009
5.49596
-5.26913
-34.5449
33.7833
-2.22157
37.409
9.60288
-116.221
10.0727
-19.1739
-2.0273
22.4884
32.328
45.9618
19.9975
23.2292
12.6516
-58.602
44.6797
47.948
28.515
-16.1329
-82.7732
-111.372
23.8535
17.188
9.38635
22.9931
-7.48229
-2.38836
-166.692
38.5648
1.83302
3.1599
-29.502
25.0924
9.00189
50.5009
47.8012
22.9785
4.84465
6.97917
-47.2919
12.4421
48.6069
1.51266
-1.76451
19.2964
0.119033
5.02803
-5.14695
-9.92154
4.869
3.82459
11.4421
-0.441506
8.80933
36.0733
9.72172
27.2852
-33.3938
-11.7944
43.5949
-92.8846
5.65779
7.51454
11.9837
7.09189
-42.6806
6.05251
-16.1924
4.23285
50.3139
-98.831
-74.5796
-70.0924
-11.7064
0.814051
7.96036
-32.4675
-68.714
-0.259933
-64.3249
-17.5754
-33.0108
7.46984
-5.03432
2.39357
50.0871
3.29901
7.04323
-7.13077
5.33192
-52.0367
-15.3183
36.048
25.8738
7.13042
-0.0167226
24.8983
27.5621
0.427734
-247.691
-3.88696
35.7167
-23.2672
23.925
0.768491
39.6114
2.67513
-41.1207
2.03651
28.2999
-20.1609
23.3868
-19.7233
48.6547
-29.2219
-7.65838
-166.559
13.4759
-45.0185
-26.2997
-31.553
2.45208
13.3078
-99.1245
-5.80021
-5.44147
5.02471
-36.0797
-17.9566
20.4519
-109.694
22.4017
-36.6536
28.6273
44.5147
24.4573
-53.0519
26.2951
1.64288
5.44963
-5.96878
-13.0491
-92.8037
-4.93969
-18.3807
13.0792
0.410133
-11.4591
-0.506105
-145.128
12.691
25.5121
-15.1557
-50.3606
-8.31498
-0.638629
-0.28445
15.2454
-38.0304
-55.5061
26.8738
-3.281
16.2211
-36.9805
-168.211
-142.163
-230.932
48.8329
8.20262
-28.7486
10.3833
42.4687
43.7186
-48.0414
-12.7519
25.5765
-2.38271
-3.27013
42.9704
14.0494
23.5585
51.0316
-5.82456
8.8666
4.41219
38.5103
26.9089
27.0461
33.1524
18.8499
0.185982
0.394854
12.5796
5.89745
-90.5134
44.1091
-5.43833
-9.55518
-0.408253
-34.3027
12.5772
-29.2603
-14.0765
6.2219
27.0681
28.2435
29.9959
-96.0192
38.2916
43.0505
-80.987
16.1681
-5.1994
-2.62634
5.31876
15.7573
-5.80286
-22.0701
-19.4791
47.5761
-113.694
30.0253
26.1548
34.6392
20.0167
20.0602
-0.213362
0.199636
16.5484
-4.20847
-130.59
-42.5124
0.508618
-22.7435
31.8171
-89.4874
-2.5066
6.25769
-51.1592
-38.341
-86.4833
22.6283
-12.4761
-2.77414
11.1496
-91.3423
9.1768
-81.1275
-4.91593
27.9691
-137.344
44.2604
-0.427345
45.9989
0.00608626
-3.22994
3.38504
22.8587
22.1128
-54.5975
-6.70891
-3.29343
2.73145
18.3524
51.4763
34.6657
8.74548
-22.2671
13.8429
1.22577
30.0237
-1.37394
15.9363
-15.953
-28.8371
-53.5058
10.9945
0.208023
-51.4575
17.2715
16.5251
42.6455
45.3317
-85.7599
-88.7062
2.4219
-23.282
44.6661
3.24098
-6.57559
11.3475
19.2019
-14.4001
0.371465
2.30391
-3.76129
24.2395
-9.419
8.15263
-0.268984
-19.4286
-49.8594
-5.63071
-47.7664
-45.5968
28.7553
-54.7515
-33.6265
-14.0612
2.56614
48.0569
20.3195
24.3553
-15.3368
13.1142
-2.0416
10.6855
8.12338
-31.0528
-76.3788
44.5722
27.5729
-0.203574
-87.6864
49.8203
-41.433
-72.0577
-13.3255
13.8225
-50.5703
-13.1817
38.6147
-1.41547
23.9102
10.7644
-19.0724
3.37173
-2.41156
12.326
-49.5642
0.372333
9.56556
25.4056
-59.2959
-52.7847
1.30933
-20.062
-25.1938
-25.7015
47.204
17.4418
-224.356
13.2209
6.84654
41.6173
14.771
-83.8938
15.9933
33.0033
28.8198
-25.0149
23.4664
-0.309101
44.2613
0.146796
26.8746
-149.354
-23.244
-0.559805
-20.3878
16.5228
9.33959
-93.8632
-61.7413
30.705
-0.408025
-3.07357
36.1632
20.7436
35.1887
23.8651
-28.8976
0.180184
0.793473
25.7446
0.00632405
32.2042
21.0786
43.6415
-25.7521
34.2552
14.3859
43.7608
-16.975
-17.8846
44.9539
-28.9453
20.8059
-118.504
39.1986
43.2768
28.0117
-30.4832
25.3919
33.6061
-34.2212
12.3551
-32.7997
35.7153
-31.7371
-5.90725
-92.7259
-91.994
32.9257
13.5834
-106.673
13.5894
43.265
-8.57589
-2.12158
-92.6792
-24.401
22.7683
-7.84668
24.6881
24.2072
-104.808
48.1737
-4.48272
37.3012
36.9849
-6.22184
-0.455206
23.1696
-41.5961
-10.5142
23.1326
19.6761
-8.82092
24.3882
-13.161
38.2225
28.4576
10.142
2.39091
29.3344
-5.2765
17.0517
34.5087
5.0377
-0.26662
33.2443
27.6829
-22.2431
-55.4867
20.6031
29.0817
43.976
-83.6485
46.4722
44.5632
46.9808
-2.46517
32.3151
-155.422
25.8634
35.1681
34.0684
28.7433
38.0562
50.5229
23.1105
-87.3495
3.95914
-68.8351
50.0518
13.979
-0.661844
-46.0057
25.2872
38.5531
24.7462
8.9803
-6.37509
37.9853
-69.0882
28.0002
-50.4449
11.9053
-2.61907
9.94516
16.7592
-135.347
-134.352
-5.68051
-19.0989
-1.52664
31.6228
-3.68858
2.55244
24.0066
-133.559
17.6816
-0.627162
-119.478
-141.082
-87.1887
36.3003
39.1191
-35.5705
13.448
33.4227
30.918
0.216974
-133.36
28.3305
-93.5937
35.7893
-103.833
34.7845
17.5325
3.84943
32.6209
17.425
34.1026
9.50542
12.6133
-20.2175
-52.5689
-160.866
-4.29118
33.4567
-161.821
-21.1822
-134.555
37.903
33.7433
10.9779
19.5447
37.562
-45.1301
24.7388
-2.14361
-22.4614
24.5336
-39.6742
-107.494
-24.061
-85.6192
-13.9718
-257.481
-2.35681
-117.863
-65.0791
21.0974
44.3388
48.3029
42.1654
-182.547
28.2421
-158.998
23.7897
37.5851
4.66108
32.8372
-114.364
9.32948
-22.2477
-2.28914
35.6267
-12.4174
29.4843
-98.6245
-6.16564
-86.1791
29.8784
29.2192
25.4937
-130.49
24.3748
-6.38538
-100.142
-93.2793
8.65097
44.7939
-53.7191
-15.1133
-56.5009
25.494
24.8183
-4.28726
16.5116
-125.245
38.0796
35.5642
-17.3271
-5.08512
37.0134
-40.0488
-244.158
-0.0110386
33.9506
38.0254
-142.252
19.2499
-1.05687
43.5912
-115.557
-47.0183
-2.62946
40.9926
-0.528402
-19.0294
-1.11635
35.5259
20.6725
35.1587
-3.48702
-48.7734
28.7809
49.3287
-54.7994
24.0885
-1.01368
-99.6315
-0.43187
9.58164
-59.4258
18.8949
-13.7802
17.2741
-7.07691
-34.5
32.176
38.6418
24.1219
-38.8749
-43.9037
30.4896
-112.777
10.0236
-22.4386
12.7231
-142.439
28.4735
30.4091
-0.893767
28.777
43.236
-10.0599
21.7646
29.5148
-89.6775
16.7863
-11.837
12.6083
10.1558
20.9983
0.0478543
9.02855
-10.0209
-36.2168
36.5008
11.101
4.91801
-45.9133
-9.76316
26.9804
-134.145
46.8452
-119.198
-90.9161
-3.04149
33.0757
29.7398
35.025
-71.9919
41.7008
-166.751
21.4857
1.68798
-110.591
24.2407
11.7395
-11.7728
17.7405
-70.4601
21.5021
-87.0323
-46.3413
-0.0969912
-89.3904
-101.628
23.3952
42.5795
-0.942834
-159.438
33.2439
-63.1115
38.7543
13.316
0.441047
16.9523
26.2891
13.6651
-3.24947
1.938
-0.971319
7.87622
10.8494
-128.017
-57.5946
-0.0625584
16.9889
2.0047
50.465
28.1122
25.742
39.4083
5.43386
29.0495
-95.8084
-69.0492
-76.0085
25.6138
49.6987
23.9104
-19.157
36.3183
25.119
25.4427
-3.92087
-0.563012
13.4692
47.1783
2.68243
-33.1384
31.4949
37.2721
27.9371
25.5794
31.487
17.98
-6.44632
-143.211
28.394
-60.9028
-50.8803
25.8503
-100.214
2.61934
9.53129
28.463
29.6114
29.9294
-0.261241
34.7404
35.6966
5.92776
31.3196
27.1344
23.9992
21.5448
18.8912
13.186
-4.49796
33.0013
31.29
1.80232
24.202
-0.748885
-2.122
42.2282
32.2466
0.0814045
-154.824
2.32453
33.41
19.0606
8.72717
-2.73023
2.39338
-18.1054
4.35393
-85.0586
-5.65192
20.2442
-7.14345
-102.714
-130.829
40.1945
-56.9656
-52.3843
-103.757
42.7723
-6.7545
6.21395
6.45941
-99.0145
22.3288
24.3766
16.6729
37.9586
20.1949
0.254431
-78.6296
-146.91
0.228068
30.5664
2.27336
-146.798
-113.624
-16.5083
-64.1734
-88.9877
-70.2129
-9.45698
10.049
25.3116
34.1176
-12.9612
-2.36177
37.9587
28.739
-139.161
0.0982952
-69.8222
15.9473
1.2576
13.9267
22.0102
0.0453485
-8.5647
-12.2679
8.37625
-173.018
-88.5972
0.248403
-125.453
-89.2169
-104.717
-135.351
0.710183
-72.6076
13.1029
-139.379
25.7172
23.1633
7.19177
33.443
-237.786
42.9493
-28.8793
1.0491
-21.7445
25.6143
15.3002
-52.5391
-66.5383
26.5776
31.541
44.4646
-164.774
-94.2281
-219.434
-8.13349
0.0861571
-118.808
10.0761
-90.0575
14.7773
-156.118
20.9054
2.70593
-5.4519
38.9429
22.8098
-11.6899
-1.72093
-34.3102
-92.7536
34.3774
48.3969
-48.9473
32.0842
24.2628
-0.0080078
-5.66766
32.6222
31.5737
-74.923
-5.41153
-85.1563
-252.463
-19.3854
-107.211
-14.9738
18.6103
-1.02573
28.9605
-149.388
-109.304
24.4563
-16.5977
-93.2322
1.98407
21.6274
-92.7146
-11.3645
-108.58
-119.439
-89.5527
45.2185
-67.4191
-4.52274
-170.398
28.1197
-88.1663
-1.56691
-67.7779
-225.356
-20.8522
29.3392
-0.079067
-109.054
22.2965
0.0335311
-35.0501
-116.543
-137.085
18.7633
21.1974
26.0298
-72.0962
38.9194
-22.869
0.0685555
-11.9376
-34.0182
-152.566
-124.869
-92.4388
5.9646
10.9301
-3.28953
-4.22408
-36.4007
24.3478
-266.569
25.7354
-154.806
16.5124
-13.7829
-3.51743
1.17223
51.7421
-2.7634
-94.9532
-63.2851
-38.5088
25.5136
-3.97771
1.47354
-0.313982
-107.461
-157.506
-60.2603
-99.147
28.8374
-143.314
3.8222
-105.84
-1.89431
22.512
-8.81068
11.8409
-13.7604
34.1935
-85.4339
-59.1828
36.6976
10.4081
-83.9408
-4.58735
-129.476
-34.9859
-7.99055
33.238
-52.3224
12.3882
-92.3532
-114.45
-180.641
-154.948
-58.4099
16.5169
-8.57839
25.8546
11.2563
-195.292
43.6094
-191.574
32.1654
38.3576
-97.6734
4.01314
27.6219
24.9777
21.2002
-77.8636
-94.3572
-85.0354
25.6446
7.90451
-43.8479
-139.657
15.1212
31.1582
-3.27367
2.0287
1.92165
36.0476
-29.4645
-32.0444
-2.40976
22.3304
5.16365
0.965364
39.0723
32.2576
-3.37017
-143.46
32.8286
13.874
-0.791331
24.6266
-21.4355
-91.9242
-98.2286
-118.836
31.7212
28.016
-6.87092
-22.8667
-0.32658
-1.10383
28.4079
-168.13
21.1486
34.394
36.9711
-15.7633
26.0364
23.0336
29.1717
30.91
-1.66236
30.9105
-0.0899872
26.0683
16.6565
28.1526
-133.336
32.5431
31.008
23.248
18.2188
-51.8569
18.6212
-10.0698
-29.5035
35.3603
35.2588
-135.739
31.6482
-99.4543
-58.5501
27.9573
27.9973
-63.8533
-2.94704
-91.5184
-145.118
-14.6848
-37.3237
-71.5345
-4.69078
23.5387
46.6152
33.047
-16.3177
-18.1917
27.6745
13.6807
-6.61931
-97.7464
-43.3245
-29.4221
-61.5208
-51.3391
24.61
-0.278886
11.7827
0.131796
0.129258
0.48114
0.281951
6.17305
13.8964
19.6749
-27.2613
14.3531
-60.521
-276.434
17.723
14.5989
-5.54794
-0.52206
18.6444
-3.68527
11.8156
-24.235
25.9404
21.0258
41.1293
25.9141
-78.2107
-5.79749
-22.742
-36.6786
-2.55725
-2.274
-8.07695
-129.031
46.8744
0.333832
0.637419
38.3446
-60.41
-12.0843
-7.61029
-136.405
-83.2848
8.31952
-26.0738
25.5408
-10.4011
-72.8179
1.70794
-24.4277
-27.0122
-5.4487
0.270621
20.8858
-32.3494
-44.1147
-28.3937
10.1083
-38.8055
27.9374
39.5056
-35.5747
28.3942
14.8995
19.1822
43.1751
-73.437
16.566
13.2246
11.3695
37.2598
-3.18329
-8.14836
-4.05134
27.4512
39.581
-52.726
-2.32852
-50.5699
-36.3766
14.159
-59.9258
-51.0394
-46.6369
11.7768
-93.0888
5.46748
8.45068
23.036
4.06293
-84.2193
-0.625416
-3.67439
-5.26849
42.0345
46.9037
35.0248
48.2135
23.7746
27.0175
29.7411
25.8238
25.2971
-49.4808
26.5063
-6.13661
-62.0951
38.2133
-10.3962
-34.4328
44.6523
1.11752
-235.548
14.2531
12.0242
31.7463
-70.915
24.2731
41.5733
-63.9794
-57.2518
-40.4733
17.9772
-145.988
33.5421
-3.70101
31.9349
25.6979
-46.5638
30.3217
-19.1816
-84.9163
-83.7941
-110.368
31.5577
-40.1611
25.5083
-4.14769
-112.623
-1.63433
-0.35194
-17.1844
-56.5064
-84.39
31.7792
5.78418
-88.7792
-8.29641
18.1382
6.53374
-163.696
13.8298
-4.0357
13.4169
-90.2721
17.0369
7.87865
17.3484
-6.50262
24.6157
15.6742
8.74642
-85.2334
48.6826
-25.7662
-102.023
25.0029
20.995
-96.1276
-33.5298
-120.295
16.6139
13.8675
-34.9316
-3.08245
-7.10326
48.7865
0.055519
-63.5638
-2.40739
-20.7712
18.5422
-12.5216
23.6117
18.2294
-137.568
16.5859
-95.7153
21.3274
10.2185
26.1049
19.0405
-0.00540013
0.112713
12.8525
28.1673
5.76143
-0.292609
-91.1668
-9.11297
-14.617
23.0395
-96.0867
12.9722
-76.3161
31.6877
-118.533
-5.50295
34.2082
30.7517
14.4722
-90.6632
-72.0302
28.7427
1.1947
32.2726
14.7481
2.24636
26.1802
7.78994
8.48585
5.09188
-21.6556
-43.3264
18.7769
-2.66466
35.0523
7.78565
48.8916
-1.05034
7.67154
31.173
3.68075
6.84265
27.7302
22.1782
15.8078
-45.7561
-3.81477
24.4836
16.723
9.16719
-205.697
-7.96254
-140.871
-103.23
-25.0098
23.6172
-22.9633
21.5403
0.304213
42.2557
33.4207
10.7375
21.251
10.1983
-87.0549
25.0789
18.7078
2.36097
10.9202
32.0134
28.48
-4.36499
-147.749
-40.693
23.0663
11.871
2.19432
27.7146
-264.675
24.0778
-58.9818
25.2977
13.0688
-4.13648
12.0758
29.8247
-6.42447
26.4014
33.8495
4.32842
-17.8983
16.553
3.53578
39.5953
-126.724
35.9302
30.0932
-130.155
-41.0429
-0.429048
-21.8058
-166.137
-32.811
24.8488
36.5075
29.2724
36.8373
18.635
33.585
12.0448
1.90901
13.0487
-5.43706
3.76101
21.196
-2.75918
38.667
7.08097
-99.777
19.559
37.8409
39.8583
-254.38
14.7888
-64.1847
-59.9545
13.8828
3.37713
-45.9754
15.4774
40.3463
-90.8755
-113.651
-169.142
12.0871
2.33686
4.92399
24.7249
25.9408
-4.79454
-2.18615
-1.72096
-135.552
24.789
24.3644
26.3916
15.2129
3.84125
17.1484
-0.27703
-83.5554
10.8677
21.8591
14.8897
20.5021