/*--------------------------------*- C++ -*----------------------------------*\
| =========                 |                                                 |
| \\      /  F ield         | OpenFOAM: The Open Source CFD Toolbox           |
|  \\    /   O peration     | Version:  2306                                  |
|   \\  /    A nd           | Website:  www.openfoam.com                      |
|    \\/     M anipulation  |                                                 |
\*---------------------------------------------------------------------------*/
FoamFile
{
    version     2.0;
    format      ascii;
    arch        "LSB;label=32;scalar=64";
    class       volVectorField;
    location    "1.7";
    object      U;
}
// * * * * * * * * * * * * * * * * * * * * * * * * * * * * * * * * * * * * * //

dimensions      [0 1 -1 0 0 0 0];

internalField   nonuniform List<vector> 
13486
(
(5.5131 -0.744355 1.92445e-20)
(6.55178 1.21619 8.92103e-21)
(10.2352 0.229603 0)
(-2.20056 0.141911 -1.23715e-20)
(8.81408 -2.03779 6.6503e-21)
(9.8117 0.719554 9.01116e-22)
(9.87928 -1.76187 9.06261e-23)
(7.50424 -2.71663 -1.05343e-20)
(7.41435 -1.45484 0)
(7.8458 3.15138 0)
(-5.08005 8.93913 -6.39269e-20)
(9.98426 -0.348408 0)
(4.83065 -1.42623 -1.92012e-20)
(9.66194 3.2149 5.64209e-22)
(9.32128 -1.51571 3.34793e-21)
(7.68104 3.27591 -5.82907e-21)
(1.5548 -1.64648 2.96149e-20)
(3.95186 -1.76554 2.02074e-21)
(9.18019 -0.0946332 8.45869e-23)
(6.28818 -0.244017 -1.92576e-20)
(-1.46774 -1.83503 -3.88467e-21)
(4.88949 -1.46087 2.47366e-20)
(6.65706 1.18928 -7.14639e-21)
(13.2586 -4.29469 0)
(8.22414 2.5539 1.84852e-21)
(12.8161 -4.11696 -9.52899e-21)
(-6.41906 6.2052 3.80434e-20)
(10.766 -0.60349 2.0154e-20)
(7.97716 0.279091 0)
(10.0257 -1.72244 -1.32993e-20)
(-0.366011 -3.37618 -1.96023e-21)
(9.68184 -1.11423 -4.21257e-21)
(12.9137 -0.826313 1.83028e-20)
(9.01726 -0.59502 0)
(7.50291 -2.59231 0)
(7.41736 0.0211879 3.66971e-23)
(6.97954 0.755171 -1.01321e-21)
(5.92617 -2.75367 1.01093e-20)
(6.6593 -0.525231 -6.2137e-22)
(7.49851 -0.899565 9.69871e-21)
(9.19911 -3.1454 0)
(4.21053 -1.97523 -2.27374e-20)
(8.35128 0.00472713 0)
(8.18246 2.18924 -9.04497e-21)
(8.19138 2.15801 3.65926e-21)
(9.9852 -0.326597 2.67288e-21)
(-3.08817 7.34914 5.42569e-20)
(7.94686 0.289645 -3.61332e-24)
(6.97559 0.707102 7.73175e-22)
(11.0718 0.102707 8.84335e-21)
(7.94446 0.15368 1.0822e-20)
(6.94941 -0.131195 0)
(10.1135 -0.712392 -3.62341e-21)
(6.18545 -2.21961 -1.45841e-20)
(4.07593 -2.34162 0)
(8.72207 -2.07668 -4.41041e-21)
(8.54406 1.4268 5.78822e-23)
(6.98465 -0.274577 -2.54048e-21)
(12.7096 -0.76142 2.12724e-20)
(6.63495 1.40641 0)
(-5.59888 7.61476 -8.57263e-20)
(6.68838 1.34653 0)
(16.8883 2.19404 -1.99645e-20)
(-1.39664 -1.9309 -3.92798e-23)
(6.79167 -8.57061 0)
(6.9262 0.886484 -4.88634e-22)
(-3.1368 0.619486 -1.52e-20)
(5.51265 0.442143 6.39779e-21)
(7.41928 -1.54871 -5.6114e-21)
(7.10751 0.0540045 5.68489e-22)
(-3.24341 0.5856 1.75511e-20)
(4.04659 -2.08044 6.81467e-23)
(7.55843 -0.453682 7.18404e-21)
(-1.76525 -3.33514 -1.9407e-20)
(7.04415 1.11283 -1.02842e-22)
(8.63 1.37741 -6.09256e-24)
(7.10544 1.05368 2.4822e-22)
(9.33498 -1.57987 -1.36973e-21)
(-2.75178 8.96051 -3.03261e-20)
(7.02475 -1.86981 0)
(7.80444 0.0453466 -2.42901e-24)
(6.38235 1.70373 -5.74975e-22)
(15.5343 2.04657 -2.95919e-23)
(10.5449 0.200353 -8.58037e-23)
(5.45625 -0.801354 -3.74829e-20)
(5.67059 6.95528 0)
(5.95588 -1.22254 -1.04541e-21)
(8.00294 0.19867 -1.6444e-20)
(7.37626 0.844047 -7.35019e-21)
(7.04309 4.26355 -6.56891e-21)
(9.92522 -1.09907 -2.20645e-21)
(7.94533 -2.3151 -5.45909e-21)
(5.72345 -1.19807 4.93487e-21)
(6.4332 0.473603 4.9773e-22)
(6.84467 -2.05672 2.31903e-21)
(7.9376 0.236502 3.9821e-24)
(-7.39331 6.31337 0)
(-5.47734 0.0775524 1.21766e-20)
(7.54439 -0.868915 -1.85072e-20)
(2.64855 -2.04404 5.36425e-23)
(7.87027 0.0373425 0)
(9.58359 3.23015 1.24362e-22)
(-5.62134 -0.482025 1.19262e-21)
(6.83994 -0.196809 2.9732e-21)
(5.23781 6.71427 0)
(-0.281044 1.84191 -3.92846e-22)
(7.82735 0.205861 4.18302e-23)
(6.69853 -0.644441 -1.44298e-21)
(-3.44503 10.6707 3.83014e-20)
(7.58726 -3.47395 0)
(6.23661 -2.93808 0)
(9.62177 -1.34107 -3.94743e-21)
(6.21379 -2.1275 1.2759e-22)
(8.57833 0.847998 1.27236e-23)
(4.09227 0.0160159 0)
(6.10876 -2.89328 -8.86408e-21)
(8.04274 2.72287 0)
(9.24663 -0.53252 0)
(7.57472 -0.418184 0)
(7.17237 0.576686 -4.19939e-22)
(4.21665 -1.79452 -8.42468e-22)
(-8.37184 7.95551 0)
(6.7737 -1.85935 0)
(6.63965 -0.531452 2.00061e-21)
(7.08789 -2.48238 0)
(6.91586 -0.172736 0)
(8.46325 -0.996661 2.12034e-22)
(8.74128 0.44741 2.84956e-21)
(8.33767 -0.198655 -1.90798e-21)
(7.34212 -6.84491 -5.75825e-21)
(6.91733 -0.0810842 -3.0887e-22)
(-3.27912 9.01876 -1.35404e-20)
(-3.43974 -2.1753 2.67754e-20)
(-0.826721 0.786222 2.22534e-20)
(7.95852 0.0471182 -1.77741e-21)
(7.44083 1.84776 -8.24464e-21)
(3.7762 3.2517 -5.26175e-21)
(7.45455 -3.35426 0)
(7.20189 0.571661 1.29352e-22)
(7.56624 -2.15667 -3.69036e-21)
(12.1442 -0.0435746 -1.8202e-20)
(10.1584 -0.76237 3.02048e-21)
(9.76031 -0.864767 0)
(7.01486 -1.81888 0)
(8.8299 0.0783165 8.10261e-23)
(18.7535 -0.0230219 -4.76941e-20)
(8.41305 -1.11346 -4.323e-23)
(-3.41679 6.74822 0)
(11.1912 0.123278 0)
(7.99163 0.263013 0)
(8.06957 0.0598638 1.59044e-22)
(9.31394 -1.79542 0)
(7.83391 0.0609511 2.54215e-24)
(6.13971 1.63085 -4.85235e-21)
(8.71368 1.45751 0)
(10.4582 0.292434 0)
(7.4206 -3.32957 0)
(0.635822 -0.15329 9.52265e-23)
(6.57915 -2.58001 2.10354e-20)
(8.72486 2.72103 -1.40136e-20)
(10.7997 0.141446 5.27703e-21)
(6.60653 -2.50661 -3.16061e-20)
(9.9113 -1.52192 1.18189e-21)
(3.84342 -1.89266 1.0017e-20)
(6.97715 -0.194208 0)
(10.1382 3.27242 -2.30562e-21)
(9.38692 3.01771 9.47632e-22)
(1.44874 -0.160676 -2.36577e-20)
(8.08339 -1.3042 -2.74968e-22)
(-0.880203 1.08421 6.01382e-21)
(-4.66271 -0.594109 1.20213e-21)
(8.68991 1.32611 2.62537e-21)
(7.92515 0.388465 -1.30655e-20)
(9.08485 -0.915173 3.22724e-22)
(7.80551 0.140959 -1.81158e-23)
(-7.13252 -5.62543 0)
(9.57123 4.64927 2.07086e-21)
(12.7846 0.126178 2.46861e-20)
(7.78452 0.160112 -1.7926e-20)
(9.78176 -0.83462 0)
(7.67187 -1.07826 1.9744e-20)
(8.62378 0.75714 3.23391e-23)
(9.34546 -0.846877 -1.45223e-22)
(-11.7099 5.78085 0)
(10.6727 -0.0151288 1.29973e-22)
(10.2015 -0.47416 -9.15154e-21)
(8.15883 0.266727 -6.98022e-24)
(9.76375 -1.14221 -3.89512e-21)
(8.99591 -3.16762 0)
(5.61792 -2.70199 -1.18696e-20)
(7.05221 0.702014 0)
(9.63157 0.217255 0)
(7.06931 -0.480208 0)
(5.25462 3.49481 -1.01956e-20)
(7.15437 -0.602426 0)
(-8.16189 9.39003 -1.85318e-20)
(6.88088 -7.68375 1.32189e-20)
(10.9886 0.0899108 2.94523e-21)
(5.28828 -2.59304 -4.52198e-21)
(10.0347 3.04355 -7.97712e-22)
(-0.476772 -3.38899 1.82964e-21)
(8.76019 0.48602 -8.51287e-23)
(5.8713 -2.80895 -1.17145e-20)
(8.07338 -3.37084 2.26786e-21)
(8.75196 3.43035 1.70437e-20)
(7.23921 -0.59962 -2.17137e-21)
(3.24437 -2.08242 6.99049e-22)
(7.42537 -0.129253 1.46614e-20)
(6.99728 -0.449418 0)
(10.6233 0.0405973 0)
(10.4302 -0.603042 1.3529e-20)
(11.4746 -5.33447 1.61111e-20)
(6.37126 -0.116471 1.7684e-20)
(7.58245 0.245361 7.32364e-23)
(9.86538 0.897173 -1.03918e-21)
(7.92112 -2.58155 1.33505e-21)
(10.3085 -1.50351 0)
(7.10581 3.98843 1.70889e-20)
(5.95194 -1.24523 0)
(12.8272 3.65998 0)
(2.96768 -2.05838 -5.61414e-20)
(11.2811 0.214499 0)
(7.51559 -2.12776 8.67547e-21)
(10.918 0.172446 0)
(10.2154 -0.863149 -5.63456e-22)
(5.03383 -2.30077 7.10283e-21)
(10.4328 1.6068 -2.1959e-22)
(-2.44662 -6.4362 3.17289e-21)
(7.8114 -1.75699 2.44028e-22)
(6.21634 -1.05543 2.34238e-22)
(7.71583 -1.06028 -6.32845e-21)
(7.21676 -1.87639 4.92093e-21)
(12.2762 -0.23461 2.28501e-20)
(4.0959 -1.90033 7.77404e-21)
(-4.33616 -2.66552 0)
(4.8754 -2.36541 8.40789e-22)
(9.32567 -0.907411 6.58373e-21)
(9.70379 0.175915 -7.08781e-23)
(4.89757 -2.33554 2.31011e-20)
(9.35831 -0.534745 0)
(12.9645 -1.2068 0)
(8.044 0.300863 2.01352e-20)
(8.85255 0.536148 0)
(4.71288 -2.32642 7.6931e-21)
(6.31999 -0.712087 -1.33381e-21)
(7.21601 0.277056 0)
(9.67118 -0.143976 -1.30051e-21)
(11.4876 -3.01848 2.80584e-20)
(1.20523 -3.16122 4.58696e-20)
(8.03472 2.10755 0)
(-10.4022 1.85722 -1.06135e-20)
(3.96885 0.126524 2.78877e-21)
(5.68583 -2.78019 1.13521e-20)
(6.69035 -0.674237 0)
(7.38372 -1.66464 1.48956e-21)
(-7.69613 -5.6983 1.04693e-20)
(9.69825 -1.11037 3.40345e-21)
(7.78904 -2.66187 -1.68703e-21)
(0.930824 -1.20352 -9.97177e-23)
(12.9418 -1.06839 1.52686e-20)
(7.04985 1.04724 0)
(6.2849 -0.655402 1.13184e-23)
(9.32647 -1.52457 -7.79578e-21)
(-8.2835 -3.8054 -1.30723e-20)
(8.42565 -2.78608 -7.00157e-21)
(-11.814 6.04743 0)
(7.89812 -1.7012 -3.55521e-21)
(-1.10327 -3.36414 -3.47131e-21)
(8.12092 0.0283092 -8.34768e-21)
(4.95316 -1.35017 0)
(5.88325 3.8752 7.53528e-21)
(7.79327 0.202643 -4.84174e-21)
(10.2476 -1.60776 0)
(10.1682 -0.518735 2.05642e-21)
(5.17916 -2.41691 9.48974e-21)
(11.0697 -2.90489 -1.56779e-20)
(7.39967 -1.50082 0)
(4.35282 -3.74781 0)
(6.73712 -0.783912 -1.52627e-21)
(8.73528 -0.766977 2.36222e-22)
(4.73418 -4.04523 2.17636e-21)
(8.24421 -0.744653 -7.07171e-21)
(7.69925 0.304714 1.06611e-20)
(17.0953 -3.42603 -2.85079e-20)
(-9.91619 7.60465 9.7572e-20)
(-3.80478 5.88667 5.96758e-20)
(12.338 0.224901 2.00899e-20)
(8.45443 -0.308153 2.50892e-21)
(11.1269 -0.879088 7.24698e-22)
(8.03865 -0.0620916 0)
(-3.5871 -1.82107 0)
(5.35044 0.240172 1.58972e-21)
(6.04865 -2.85958 8.8655e-21)
(8.00234 0.0936501 -1.73567e-21)
(9.28781 -0.854962 6.07716e-21)
(9.54544 -1.02662 0)
(10.2381 -0.0331289 -6.9007e-21)
(10.1455 -0.488677 -1.52556e-21)
(7.69297 0.318956 -9.75887e-21)
(9.71374 -2.27823 2.45857e-21)
(7.44007 -1.38458 -1.52979e-21)
(3.41869 -2.14704 8.64143e-23)
(8.45516 -1.02413 -2.01305e-22)
(9.64195 -1.11306 4.01176e-21)
(7.052 0.519981 2.05236e-22)
(7.04148 -3.41075 0)
(0.953541 -0.573841 0)
(8.81949 -0.136723 2.59196e-21)
(6.26424 -1.47873 6.42224e-22)
(7.08074 0.735155 0)
(7.50837 5.46091 -3.65105e-20)
(-1.79463 0.46216 0)
(9.15781 4.52097 7.76058e-23)
(9.90382 -1.31472 -3.96146e-21)
(10.8587 2.24203 0)
(7.56881 1.64576 -5.02384e-21)
(5.03 0.417973 -2.34495e-21)
(7.373 0.856725 -6.27705e-22)
(7.34485 -0.125491 -1.61383e-20)
(8.10262 -1.73838 0)
(7.01779 0.805483 8.81159e-22)
(5.84693 0.0166018 -6.18801e-23)
(7.85052 0.183769 2.25573e-21)
(6.42073 0.668064 -9.34701e-21)
(2.30155 3.25936 9.71133e-21)
(10.0344 -1.11503 4.2505e-21)
(8.5835 -1.47071 -2.00406e-20)
(8.32304 -0.747417 0)
(10.3984 -0.386413 1.03543e-22)
(8.68356 -1.49268 -3.77396e-21)
(7.99707 0.0928222 2.37972e-20)
(8.03677 -2.33499 0)
(9.81221 -1.15367 -9.14067e-22)
(5.64264 1.63997 0)
(9.61942 -1.80477 -5.73875e-21)
(7.19392 -1.94046 -6.29417e-21)
(2.99257 -1.31416 9.36893e-21)
(9.24604 -1.85628 -5.44044e-21)
(8.07497 0.832652 0)
(6.18222 -0.643324 -2.14437e-21)
(8.04231 -1.70371 3.94557e-21)
(6.55883 0.660249 8.83887e-21)
(8.73344 -1.53182 1.44485e-20)
(9.2935 -0.828014 6.48141e-21)
(-12.8678 5.35715 -5.46927e-20)
(7.94779 0.254846 5.15764e-24)
(8.7412 -0.76775 0)
(3.78999 -1.11889 2.21805e-20)
(13.0136 3.57178 0)
(5.2412 0.0403223 1.80387e-22)
(8.73566 -0.423432 1.16248e-20)
(10.3012 -0.457621 -1.31468e-21)
(10.1367 -0.522694 1.51485e-21)
(-8.58492 6.7288 -4.8128e-20)
(7.68134 0.293927 1.22013e-20)
(7.56625 0.086071 0)
(-2.88998 -3.97218 -1.63844e-20)
(8.49155 -1.00607 -4.21611e-21)
(6.46124 -1.25031 -6.63568e-22)
(10.8754 -4.77492 1.37691e-20)
(10.3734 -0.0886746 0)
(10.3757 -0.998566 2.62399e-21)
(7.09914 0.664312 1.8925e-20)
(7.79095 0.230671 1.46833e-20)
(10.0665 -1.80648 0)
(7.86967 0.0277696 8.66559e-24)
(9.46386 -0.981652 -6.18337e-21)
(-3.6084 6.67238 8.71903e-21)
(6.20125 -0.172573 2.46209e-21)
(8.51975 -0.891641 4.02137e-21)
(8.68633 0.0255574 -2.64086e-23)
(8.68973 -0.715077 0)
(10.1962 -0.81484 -1.6165e-21)
(-10.94 2.44409 1.32637e-20)
(9.67417 1.80152 9.31666e-22)
(7.99207 0.129182 9.06867e-21)
(6.47513 0.00101812 0)
(5.74995 -0.372879 -2.62163e-21)
(12.264 2.17147 0)
(12.3137 5.5712 -8.73114e-21)
(8.16817 -0.0537098 0)
(8.02519 -2.67772 -1.90186e-22)
(5.19906 -0.225029 -5.28673e-21)
(6.01636 3.25302 1.79273e-20)
(-3.42694 5.97701 -2.98704e-20)
(7.52083 -1.5043 0)
(9.1478 0.292264 -1.10937e-21)
(8.05987 0.872197 -5.2364e-21)
(5.29018 -1.17567 -1.94364e-20)
(0.188683 -2.20331 2.12675e-22)
(6.50558 -0.165277 -2.66419e-20)
(10.4623 -1.43644 6.64906e-21)
(8.26622 0.871816 3.46051e-21)
(5.54729 -1.55783 0)
(5.36034 1.31846 1.01586e-20)
(7.3238 0.599291 -3.20451e-22)
(-2.53184 0.418273 7.42724e-21)
(-11.0967 2.47064 -4.38171e-20)
(4.87171 -0.990587 -3.57253e-20)
(12.3761 0.209004 0)
(5.907 -1.42244 0)
(8.162 4.92444 0)
(8.21118 -0.310828 0)
(2.24295 -2.07541 -1.55851e-21)
(9.5944 -1.70837 0)
(5.57971 -0.7102 0)
(6.46035 0.533693 3.66574e-21)
(12.7321 0.146073 -2.53649e-20)
(8.61585 -0.685575 -9.46668e-21)
(6.66762 1.33777 3.07754e-20)
(8.02022 0.174771 -2.56833e-21)
(9.13161 6.95586 0)
(10.8664 -1.20867 0)
(7.61805 0.311743 1.0426e-20)
(7.87849 0.0623282 1.78591e-21)
(4.79354 3.79792 0)
(-11.6745 5.47767 5.19517e-20)
(8.33023 -2.83443 7.85385e-21)
(-4.84822 0.284546 0)
(9.35881 -0.553392 6.29824e-21)
(7.87859 0.208791 -1.19521e-20)
(2.31135 0.045215 -1.35118e-21)
(3.7834 -1.07769 0)
(7.94732 0.905865 9.91119e-21)
(10.5404 0.941958 0)
(9.69859 -1.11108 0)
(8.89884 0.873772 -4.00376e-22)
(7.69233 0.354878 5.56938e-21)
(-5.78837 5.40684 -4.9832e-20)
(9.30842 2.96904 6.78458e-22)
(5.13418 -1.22766 -9.40201e-21)
(8.13346 -0.280016 1.2266e-21)
(8.33259 0.954232 2.66361e-21)
(11.1025 -0.801654 3.78841e-21)
(8.66197 -2.78583 0)
(11.5207 -2.60124 1.39926e-20)
(5.22971 0.0794706 0)
(5.57228 -0.0334653 1.39416e-21)
(9.03578 -0.915949 0)
(5.62878 0.384999 1.36451e-20)
(-2.06327 4.47664 -5.14713e-20)
(10.5399 -1.32873 0)
(0.247891 0.707651 1.00784e-21)
(10.9481 -1.37162 -1.48943e-20)
(7.05971 -1.99305 -2.20616e-21)
(6.94475 -0.966907 2.55725e-20)
(5.60354 3.20179 -1.10679e-20)
(5.12705 -1.21053 -2.67896e-20)
(13.5051 5.39955 0)
(7.1328 0.583845 4.55983e-22)
(-12.3092 5.8506 -1.34921e-19)
(8.03336 0.922683 0)
(7.31303 0.945412 6.8771e-22)
(10.8306 0.0241497 -1.89877e-21)
(10.4981 4.90014 0)
(8.02403 0.0211879 0)
(-8.75511 3.41864 0)
(-6.53666 -7.05292 4.17942e-20)
(17.2106 -4.74302 3.37673e-20)
(16.3176 -0.106805 2.20152e-21)
(9.10819 4.29005 0)
(6.7624 -0.603537 1.72808e-20)
(7.77903 0.126013 2.83261e-23)
(9.23023 2.70476 -1.1542e-21)
(-1.66372 -1.08228 7.79482e-21)
(7.64018 0.745368 0)
(7.93793 0.283253 0)
(2.7995 -0.220922 -1.47162e-20)
(5.45775 -1.53225 -6.65707e-21)
(7.50299 -0.734085 0)
(6.82427 -3.19377 -8.67899e-21)
(7.97111 0.0422287 -2.35533e-23)
(7.93259 0.213522 2.50286e-24)
(3.23501 -1.37238 0)
(7.61094 -0.350187 2.49547e-21)
(7.27623 0.55851 3.58335e-22)
(10.6335 0.914088 5.23863e-21)
(7.08401 -2.01511 0)
(-4.19285 6.65808 -8.99808e-20)
(10.2365 -0.484122 1.66607e-21)
(7.97173 0.424295 2.08599e-21)
(7.41246 0.161415 1.87388e-22)
(10.3965 3.21367 0)
(6.70122 1.37166 -8.19077e-21)
(12.8121 2.36534 -8.43452e-21)
(3.73727 -0.737836 7.85373e-21)
(8.04427 0.226474 0)
(0.0523909 -2.16323 -2.18226e-22)
(1.79322 -0.00445743 0)
(8.07175 0.178646 -7.98776e-21)
(7.95405 0.288953 3.60848e-21)
(7.40115 0.264586 -2.0516e-21)
(-8.85787 -5.83243 0)
(10.3674 0.00503044 -4.2075e-22)
(4.22148 2.09176 2.7277e-20)
(8.60247 -2.77291 0)
(6.37285 0.522 1.12755e-20)
(9.50582 -2.30357 -2.82687e-21)
(8.795 0.0971432 0)
(-1.34032 -3.61429 1.96711e-21)
(7.0417 -1.78906 -2.66673e-21)
(8.71555 -0.00482087 0)
(-2.52711 5.01851 5.56215e-20)
(7.31093 0.895605 0)
(6.71557 -3.04616 8.69387e-21)
(-10.504 1.09306 2.4832e-20)
(8.14617 0.29086 7.55892e-24)
(9.91795 0.717796 -2.47234e-21)
(5.26803 1.28477 5.38596e-21)
(6.91681 -1.077 -9.37272e-21)
(7.5426 -1.35727 -1.60655e-21)
(6.74171 -2.98687 8.81298e-23)
(8.47904 -0.896951 3.84775e-21)
(10.3713 3.14729 4.76714e-21)
(7.99073 -3.60701 0)
(7.94483 0.0933024 -8.03882e-21)
(-3.62092 0.872167 -1.27357e-20)
(5.30869 0.0463251 0)
(7.42809 0.774688 -6.68988e-23)
(7.08931 0.0664069 0)
(4.68196 -1.20701 2.34571e-20)
(7.91283 -2.91932 0)
(7.71546 0.0248625 -7.39912e-23)
(8.79635 -0.356873 -6.65257e-21)
(-1.52142 -4.41052 3.58978e-21)
(-7.92308 2.81922 3.10512e-20)
(10.1043 -0.181669 -5.33559e-23)
(6.87633 -3.29539 8.33448e-21)
(6.72533 -1.85434 9.35407e-21)
(5.68042 -1.18545 0)
(-10.6504 5.61596 -3.37515e-20)
(8.73913 -2.63144 -1.58457e-21)
(-11.4501 6.92657 -4.00726e-20)
(7.9335 0.240185 8.55591e-25)
(5.52639 -2.03043 0)
(8.83913 0.0880121 -3.55583e-23)
(-11.6336 5.74752 0)
(-6.34283 -1.07037 1.52097e-21)
(3.06434 -0.533596 1.70773e-21)
(-0.99196 0.976625 0)
(7.88531 -2.01911 2.73343e-21)
(6.87177 -8.39197 0)
(10.6101 4.6998 0)
(6.37953 -3.01806 -1.14198e-20)
(5.73468 1.38795 8.27517e-21)
(6.47948 -2.09384 0)
(7.23079 0.776249 -5.17062e-21)
(16.5134 0.474625 5.32444e-20)
(-11.5929 2.92184 6.86033e-20)
(10.5575 6.01583 0)
(8.42028 0.00630333 0)
(-12.3262 6.65996 -6.10852e-20)
(7.34311 -0.366217 0)
(10.5074 0.0755638 0)
(-7.36112 7.31343 -2.8405e-21)
(7.95968 -1.47327 -1.28309e-20)
(6.74032 -1.53004 7.93554e-21)
(13.0313 -1.52284 2.23194e-21)
(-11.3017 6.55808 7.20804e-20)
(7.92431 0.243636 4.1457e-21)
(5.82444 -1.26143 0)
(8.64689 2.14934 -1.36348e-21)
(5.45063 -0.623433 0)
(10.0994 0.0778024 0)
(7.98068 0.51255 0)
(8.87963 0.842339 -3.17309e-22)
(7.32073 -0.0845019 7.45757e-21)
(8.82704 0.385551 -1.11605e-22)
(5.88928 -1.29168 0)
(-7.27588 5.8318 -3.68718e-20)
(8.01185 4.62194 2.1951e-21)
(7.10654 -2.52734 9.02387e-22)
(8.42973 -0.363974 -3.92538e-21)
(10.8794 -2.74766 2.41919e-20)
(8.18492 0.0876413 -6.8938e-21)
(-1.53313 4.14649 0)
(10.1532 -0.492205 0)
(5.38072 3.74322 0)
(4.70273 -2.01637 -1.72243e-20)
(1.75789 -6.69576 -3.71634e-21)
(-0.774192 -1.46838 0)
(8.76802 2.13599 0)
(10.5247 -0.898957 2.26818e-21)
(7.89957 -0.0209451 -1.92887e-21)
(7.6216 2.73079 8.48739e-21)
(8.25202 -3.38837 0)
(-10.0643 8.38121 -1.86121e-20)
(9.33471 0.315384 -1.96456e-22)
(5.33213 -1.4217 -1.58242e-20)
(8.87697 0.40452 -1.5652e-21)
(9.23709 2.7578 2.43907e-21)
(13.2265 -8.27832 1.97977e-20)
(4.63761 -1.9858 2.96874e-20)
(7.68048 -3.87933 6.54475e-21)
(8.7041 0.768507 3.09343e-23)
(7.91986 0.0599426 -2.04238e-21)
(6.13562 -2.97925 -2.63831e-21)
(7.01754 -1.60879 1.15817e-21)
(6.34432 8.84827 -8.74322e-22)
(6.64582 -3.14419 4.52015e-21)
(10.3765 -0.360675 0)
(6.67583 -1.2273 1.82888e-22)
(8.49333 0.0148876 -6.23419e-21)
(11.691 3.6123 3.86588e-21)
(5.22932 -1.31735 -1.44227e-20)
(7.02962 -2.42938 -9.63731e-21)
(8.21994 -0.139115 1.84655e-20)
(9.99597 -0.284578 -1.06119e-20)
(5.95816 -0.908826 -6.32709e-22)
(12.3785 0.453983 -1.05526e-20)
(4.46114 -0.41394 -3.15008e-20)
(8.78791 0.0567126 -4.92042e-21)
(4.38391 -0.703665 0)
(-2.28705 -5.96419 -1.34688e-20)
(8.25112 0.109085 1.75406e-20)
(7.13593 0.0345202 1.32759e-23)
(-2.70888 -3.81534 0)
(7.24034 -3.32731 0)
(8.07204 1.95309 7.28854e-21)
(3.89297 -0.345413 1.95365e-20)
(7.22871 -11.0194 -2.89173e-20)
(8.13445 -2.66712 -4.87804e-21)
(8.6127 -1.48604 1.09928e-20)
(13.1214 3.44674 0)
(8.09276 2.07809 3.97653e-21)
(3.66028 -1.85431 -8.85929e-23)
(9.84032 4.48376 2.50817e-21)
(7.59403 -0.988416 -1.11531e-20)
(-10.9142 5.9998 -1.16308e-19)
(10.5855 -2.683 -2.32838e-20)
(11.8333 -2.81611 7.82357e-21)
(8.78682 5.0236 0)
(8.50348 -1.69306 -2.77123e-21)
(7.4146 0.24395 1.87294e-21)
(7.81926 0.0861901 -1.35096e-23)
(3.80394 -1.82589 2.75392e-20)
(7.54704 -1.00996 1.67994e-20)
(6.00902 3.33856 5.76284e-21)
(-11.5976 2.68852 -3.86058e-20)
(9.61044 -0.565917 -6.78086e-21)
(8.58344 0.156819 4.397e-21)
(-9.46019 7.97565 -1.21137e-20)
(9.46959 4.35518 -1.28258e-21)
(-1.03737 3.15087 -6.04351e-20)
(5.01628 -2.41241 -9.10656e-21)
(7.85595 0.0737154 0)
(8.63479 1.27967 -6.23929e-23)
(-10.3507 2.96509 -4.18585e-20)
(5.15437 -0.353913 2.82954e-20)
(8.27554 0.220983 0)
(8.3802 -1.26092 1.13619e-21)
(4.42884 -1.65895 6.7208e-21)
(7.9934 0.133357 -1.7638e-20)
(-11.4794 4.91431 -4.74035e-20)
(6.40393 -1.95754 -5.81843e-22)
(8.65841 -0.734465 6.48906e-21)
(9.10717 0.335287 1.47058e-21)
(6.79692 -3.08561 -1.20508e-20)
(8.87121 0.511005 1.35659e-22)
(1.477 -7.77819 -1.60331e-20)
(8.54856 0.0540095 5.8496e-21)
(8.09913 -0.220048 -5.30954e-21)
(8.53153 0.537231 -1.71483e-22)
(9.12824 -0.17705 -1.13317e-20)
(4.27386 -1.74598 -1.29836e-20)
(8.79962 0.664394 0)
(-6.24614 -6.46173 2.14139e-20)
(8.29953 0.0923139 1.32858e-21)
(3.00512 -0.0788888 -1.92627e-21)
(9.99881 0.206544 -1.93223e-21)
(8.42117 -1.55766 -6.82128e-21)
(8.03991 0.0706781 -1.3597e-20)
(8.36574 1.50591 2.10091e-21)
(-11.2 5.42697 -5.34008e-20)
(10.5581 0.107161 0)
(5.99458 -0.396552 1.32702e-21)
(10.3688 -0.47242 1.34747e-21)
(5.55081 -1.94908 0)
(8.51816 0.469762 3.47442e-21)
(10.4842 -0.351317 1.28865e-21)
(10.4586 0.133989 5.15254e-26)
(9.66009 -3.5817 -7.94829e-22)
(7.37522 -0.59479 0)
(7.0152 1.6139 1.50206e-20)
(8.25631 3.87961 -2.40873e-21)
(6.49002 -3.04717 9.80019e-21)
(7.9436 -0.677849 0)
(5.68076 1.38592 -2.39564e-20)
(4.40997 -1.58282 -8.87391e-22)
(9.68863 6.26315 -7.62638e-21)
(4.51176 -0.49366 3.08137e-20)
(8.5699 0.051281 1.89753e-22)
(-8.48642 3.25526 2.73139e-20)
(7.57387 -0.300919 -1.16052e-20)
(11.7748 -2.12566 -1.97427e-20)
(7.01629 0.717435 -1.08973e-20)
(8.58942 0.0965649 0)
(7.9634 0.13464 -7.73029e-21)
(-1.49964 -0.467149 7.10093e-21)
(-1.74965 -2.56776 0)
(12.0408 -5.047 0)
(7.82286 0.0686116 0)
(2.7628 -0.756468 0)
(8.18805 1.40427 0)
(4.22461 -0.356081 0)
(8.21186 -2.61635 -2.08084e-22)
(16.3766 -0.993932 -2.64607e-20)
(10.5172 1.70787 0)
(6.99148 1.5006 2.23337e-20)
(5.20246 -1.53036 7.23691e-22)
(8.30154 0.931729 2.29812e-22)
(-9.91956 4.66124 -2.13904e-20)
(4.26128 0.51812 -6.41379e-23)
(-11.2843 5.3188 4.24316e-20)
(8.4335 0.039076 -4.17235e-21)
(11.024 0.0633851 1.23464e-21)
(8.09248 1.38915 -4.97942e-21)
(7.48298 0.818399 -1.46592e-20)
(7.76436 4.33682 -5.7128e-21)
(13.3154 5.75367 0)
(-0.773124 -1.86516 8.39118e-22)
(4.73968 -1.26492 -2.56832e-20)
(8.11273 0.0566512 -2.33998e-20)
(8.84827 -2.60688 -9.32109e-21)
(8.6026 -0.020398 1.84117e-21)
(10.3195 -2.53665 1.0099e-21)
(8.17812 -1.1824 -1.45185e-21)
(7.94488 -1.97858 -9.47858e-21)
(7.98285 0.774386 5.42754e-21)
(7.25602 5.47654 0)
(7.44079 -1.20457 -1.47128e-21)
(6.51555 0.398627 -3.33819e-21)
(9.62327 -1.57849 0)
(6.80782 -0.687631 0)
(7.15109 -3.23052 -8.07751e-23)
(-8.06959 2.45516 2.71677e-20)
(8.12879 -2.63578 -6.97427e-21)
(6.78931 0.0132244 0)
(7.45719 -0.200523 -1.52456e-20)
(7.16364 0.945512 -2.83834e-21)
(-5.67997 -5.30117 1.01995e-20)
(10.669 -0.11275 3.87348e-22)
(-10.8673 5.03933 0)
(-1.00239 -1.68315 1.22377e-21)
(10.4526 -0.317131 0)
(8.4244 -1.72069 2.94354e-21)
(9.98939 -1.0255 -2.18346e-21)
(8.04376 0.0709842 -6.99253e-24)
(9.43917 3.07462 -1.67505e-21)
(10.4601 5.41294 -1.001e-21)
(6.52201 -1.76821 1.93623e-20)
(1.40848 -2.63457 0)
(5.87097 -6.58471 -1.02036e-20)
(5.5808 -2.59877 0)
(10.7354 1.69544 -2.05545e-21)
(-5.62332 -5.31037 1.62342e-20)
(12.1527 -4.98861 1.96736e-20)
(6.13509 -0.487638 -1.27974e-21)
(-7.9664 -5.16801 -8.3255e-20)
(5.84391 -2.73111 -1.13189e-20)
(4.90489 -1.30326 -1.49311e-20)
(7.25666 0.607405 1.13355e-22)
(6.45863 -6.11446 8.33097e-21)
(4.34731 -1.78344 1.06444e-20)
(5.1254 -1.39463 1.61788e-20)
(1.8288 -6.35379 4.75286e-21)
(7.63959 -6.912 -6.44129e-21)
(6.90503 -2.0814 9.58435e-21)
(-4.81646 5.85784 3.60399e-20)
(9.02995 0.12489 7.78606e-23)
(5.23717 -1.75655 -6.77564e-22)
(9.4045 1.92125 -7.3159e-22)
(8.63303 -2.14042 0)
(2.92794 -0.40909 -6.96846e-20)
(8.31628 0.00468114 -7.36225e-21)
(7.99699 0.537622 0)
(10.6559 1.58062 0)
(4.8375 -4.52874 -3.42426e-21)
(13.1809 -2.63771 -2.27757e-20)
(9.79065 1.042 2.90468e-21)
(7.93681 -1.42844 1.6869e-20)
(7.65089 4.16884 5.37097e-21)
(7.12113 -0.0476378 1.19485e-20)
(-6.88759 -4.64809 -1.8424e-21)
(7.03572 2.70341 0)
(5.25974 -1.49858 1.54312e-20)
(-2.0879 9.53281 1.16001e-20)
(-9.44738 -3.52971 6.2019e-20)
(6.57212 -2.4643 3.2515e-21)
(7.32929 -3.39943 -2.67159e-21)
(8.34133 -0.031697 5.89176e-21)
(6.5335 -0.519095 6.79384e-22)
(9.82285 -1.69705 1.39962e-20)
(-7.7674 -5.04172 -1.51878e-20)
(9.66925 1.00302 -2.14598e-21)
(7.65922 0.280939 6.10135e-21)
(4.35214 -0.668787 -1.26745e-20)
(7.42882 -0.259902 9.51493e-21)
(5.3298 -0.832853 0)
(9.68503 1.7748 -1.44404e-21)
(7.78951 0.172868 1.35334e-21)
(5.64504 -1.09222 -4.94726e-21)
(7.72861 7.26417 1.84708e-21)
(6.79679 -2.02879 7.11918e-21)
(8.09124 0.0607033 2.63476e-21)
(5.24146 0.729215 -1.84071e-20)
(9.80476 -1.63756 0)
(6.12971 -0.286316 -2.21665e-21)
(8.90622 0.419382 2.11701e-21)
(8.20187 -0.505123 0)
(5.44031 0.409425 1.05425e-20)
(10.5685 -0.141912 0)
(6.55363 7.41842 4.61384e-21)
(9.6448 -0.16401 0)
(7.43833 -1.31525 0)
(10.0584 -0.233395 1.36885e-21)
(9.72022 0.801733 -9.95216e-22)
(12.25 1.25424 -1.51387e-20)
(7.60683 0.653549 -6.6206e-21)
(5.89648 4.64417 -4.79265e-21)
(7.91696 0.376223 -2.52564e-21)
(8.31091 1.48081 0)
(4.13151 4.79029 -5.25672e-21)
(10.1209 0.712464 3.35812e-21)
(8.30004 -1.67172 -6.02165e-21)
(8.6544 -2.12991 0)
(11.8963 3.53156 5.78839e-21)
(8.54543 7.02556 3.96137e-22)
(8.97635 0.157003 2.85903e-22)
(7.61301 -10.532 0)
(-4.03058 6.16746 7.47144e-20)
(8.13279 0.799232 0)
(10.0158 -1.43885 -7.00739e-21)
(1.62877 -2.67336 0)
(9.12317 2.25243 0)
(7.50351 -4.28735 0)
(7.76407 -2.89042 0)
(-7.65896 9.67425 -9.54852e-21)
(-4.97351 -7.69232 -8.43361e-21)
(7.26421 -0.071412 -1.11494e-20)
(-2.0266 -4.55999 -5.31039e-21)
(4.70158 -1.89042 0)
(-1.83124 -7.05051 -5.3645e-21)
(0.620689 -3.64299 -4.54944e-20)
(6.03279 -2.81549 0)
(5.54601 -1.77421 -1.66695e-20)
(7.07636 1.20295 -1.09316e-22)
(9.31937 1.84847 1.69081e-21)
(9.32393 -3.20506 2.57041e-21)
(7.37003 0.746561 0)
(8.37046 -2.67085 0)
(14.3258 1.91807 7.87849e-21)
(7.02751 -1.48567 3.10464e-22)
(7.01601 0.571989 -4.00359e-22)
(4.78776 -4.34847 3.41247e-23)
(7.98962 0.0170216 5.70921e-22)
(8.61633 1.21411 4.09003e-23)
(8.06173 0.777656 7.67657e-21)
(5.7831 -0.0793385 1.15467e-21)
(7.22238 -1.91241 0)
(-7.09183 7.2181 0)
(8.84719 0.445524 0)
(7.3244 0.0914981 0)
(6.75771 -1.14728 6.94251e-21)
(11.673 -0.057169 0)
(-7.35978 8.66717 1.38744e-19)
(11.849 -9.35988 -1.26642e-21)
(4.97803 -1.42027 -2.44259e-20)
(5.26733 -1.52143 -3.18585e-22)
(-5.90719 -6.69494 -1.25704e-20)
(-2.28409 8.813 -6.48594e-20)
(8.16218 0.121345 2.08222e-21)
(-8.2657 -3.58098 -2.07205e-20)
(5.63589 0.153834 1.84408e-21)
(10.0361 -0.188632 0)
(9.11432 -1.5393 0)
(6.06967 -1.36987 0)
(8.40442 -1.63857 3.61442e-21)
(7.82678 -8.00382 0)
(7.17573 2.62066 0)
(8.06702 0.0448266 0)
(6.8028 -1.51935 7.42342e-21)
(8.39676 0.85276 -6.9541e-21)
(6.91857 0.103289 0)
(8.49198 -2.69182 -6.92466e-21)
(7.89722 0.815384 -7.66179e-21)
(9.82973 4.28941 -5.49202e-21)
(6.09055 -2.78825 1.01848e-20)
(7.49658 3.03176 6.14044e-23)
(6.92743 -1.9504 -2.02304e-22)
(6.73575 -0.761842 1.50002e-21)
(7.58052 -1.68021 -2.9571e-21)
(9.60035 0.847209 1.52063e-21)
(7.13014 0.524026 -7.92959e-22)
(7.15873 0.357098 -1.06553e-20)
(8.452 0.040063 0)
(4.06417 -0.0232463 1.43783e-21)
(7.73641 0.265174 1.08866e-20)
(3.95797 -2.01318 -9.15531e-22)
(8.1694 -1.11164 -4.23599e-21)
(4.01461 -0.456498 -2.12508e-20)
(9.64428 0.730003 -2.95237e-22)
(12.9557 2.49961 1.22016e-20)
(8.02829 0.35835 0)
(6.42651 -0.808985 9.98032e-23)
(6.72871 -0.0695859 -5.88469e-22)
(7.6538 -1.72308 5.84269e-21)
(-1.74661 -1.18655 -8.89349e-21)
(7.96269 0.0827995 5.69821e-21)
(8.91214 0.693438 -2.85968e-23)
(8.4326 0.0480082 -1.49228e-22)
(8.75969 0.378329 0)
(4.60083 -1.17883 0)
(5.70193 -2.70116 1.26096e-20)
(-11.1866 4.54047 5.12051e-20)
(7.84911 0.0476102 5.58181e-24)
(7.83467 0.275891 2.16925e-20)
(5.96783 -0.830322 -2.41801e-22)
(5.70563 1.20475 0)
(7.05567 0.378024 0)
(6.0888 -1.21623 -8.27681e-23)
(9.87258 -0.160748 2.06664e-21)
(7.69653 2.85322 1.13893e-20)
(9.7238 -0.796654 0)
(9.62002 0.0736786 0)
(7.9691 -2.21843 1.34388e-20)
(7.78333 -0.663742 8.96682e-21)
(0.140558 0.458267 -8.38302e-22)
(8.0005 -0.202603 0)
(7.07132 2.37173 8.56098e-21)
(9.37503 -3.21341 -3.05412e-21)
(-13.0055 2.20995 -4.91254e-20)
(7.83099 -0.0643124 -1.22304e-20)
(16.0421 -0.491971 0)
(13.6118 -2.34512 1.80751e-20)
(10.3372 -10.7076 -6.61952e-20)
(0.54676 0.266332 0)
(7.35383 0.14192 -5.67284e-22)
(7.62662 0.48749 -7.12583e-21)
(7.87505 0.0483893 -2.38088e-25)
(10.3366 -1.17885 1.25319e-21)
(5.26128 5.55169 1.03816e-20)
(8.56004 0.0705318 0)
(3.84858 -1.20764 -1.34189e-22)
(6.42311 -0.844533 2.10112e-22)
(13.4009 0.488616 -9.30534e-20)
(8.15351 1.37426 5.89646e-21)
(1.57608 -2.43292 1.8981e-22)
(7.97795 0.0463061 -2.6827e-20)
(6.1369 3.1951 -3.88353e-21)
(6.42131 -0.690594 1.46817e-21)
(6.72541 -1.40465 0)
(6.91306 -0.0587512 -2.80573e-21)
(4.22889 -1.84193 8.60482e-21)
(8.7243 -0.361499 -1.28501e-20)
(7.84141 0.153988 -9.81545e-21)
(9.79196 -1.40004 6.3153e-21)
(6.58295 -0.537625 2.51874e-20)
(8.98926 0.0785763 -8.41123e-23)
(6.98953 0.454315 6.1372e-21)
(7.37243 0.845389 -2.56728e-22)
(13.1207 -1.58225 -2.50024e-20)
(9.573 4.68401 -3.95306e-21)
(7.72234 -10.5949 2.24519e-20)
(8.08379 -0.131042 0)
(6.49218 -1.45681 0)
(4.64343 -1.87658 0)
(4.99668 -1.32729 1.87878e-20)
(8.19634 0.0592646 -1.56096e-20)
(7.06589 1.0283 0)
(5.77439 -1.13416 -1.46542e-20)
(7.02104 1.00744 0)
(6.83429 -1.01833 -1.14125e-20)
(8.29927 -1.71149 -6.39181e-21)
(7.1783 -1.79085 -1.04436e-20)
(8.68046 0.0774109 0)
(7.61239 0.216458 0)
(8.22367 -0.499737 3.50733e-21)
(10.4232 1.46896 2.18463e-22)
(10.9502 -0.250408 9.29402e-21)
(9.05199 7.3596 -6.67405e-22)
(9.81242 -0.978961 0)
(6.6038 -2.37895 -5.38797e-21)
(-1.75537 -0.775754 0)
(2.73793 3.31001 -9.89996e-21)
(10.5795 5.39246 0)
(8.8427 0.605405 6.4712e-23)
(4.50739 -0.302464 8.1763e-21)
(5.73181 -0.265858 8.1492e-21)
(7.96148 -0.222753 -3.49691e-21)
(11.2945 -8.94325 -6.83963e-20)
(7.60813 -0.77419 2.26787e-20)
(8.1863 1.43388 -2.19162e-22)
(9.49358 -2.50948 -1.18214e-21)
(7.68646 -1.61089 -5.22386e-21)
(-0.969474 0.866319 1.66085e-20)
(10.567 2.28783 0)
(7.89237 0.194313 3.83802e-23)
(5.8637 -1.31434 0)
(6.42249 -0.622114 -1.46243e-21)
(6.67765 -2.3833 -2.80519e-21)
(6.68313 -0.464327 -8.26591e-21)
(7.84424 0.0128867 -9.62105e-24)
(10.7685 0.245302 -7.03929e-21)
(6.50194 0.00121541 1.70426e-20)
(9.46261 -0.429598 -4.34504e-21)
(7.04398 0.631964 0)
(-10.8473 7.8523 0)