/*--------------------------------*- C++ -*----------------------------------*\
| =========                 |                                                 |
| \\      /  F ield         | OpenFOAM: The Open Source CFD Toolbox           |
|  \\    /   O peration     | Version:  2306                                  |
|   \\  /    A nd           | Website:  www.openfoam.com                      |
|    \\/     M anipulation  |                                                 |
\*---------------------------------------------------------------------------*/
FoamFile
{
    version     2.0;
    format      ascii;
    arch        "LSB;label=32;scalar=64";
    class       surfaceScalarField;
    location    "6.7";
    object      phi;
}
// * * * * * * * * * * * * * * * * * * * * * * * * * * * * * * * * * * * * * //

dimensions      [0 3 -1 0 0 0 0];

oriented        oriented;

internalField   nonuniform List<scalar> 
20045
(
0.775609
-0.848466
0.0728562
-1.61973
0.609411
1.01032
0.709933
2.87538
-3.58531
-0.638615
0.928982
-0.290368
-1.36927
1.24474
0.124536
-0.90813
3.29481
-2.38668
-1.49267
0.409648
1.08302
0.0829668
0.698386
-0.781353
0.757557
0.622107
-1.37966
-1.17992
-0.188954
1.36887
-0.943976
-0.396456
1.34043
3.37735
-1.50652
-1.87084
0.567955
-0.574656
0.00670093
-1.84861
1.58101
0.267592
-0.323844
1.47611
-1.15227
-1.58884
0.408927
-0.119769
-0.297101
0.41687
0.81332
-1.04371
0.230392
-2.52324
3.74527
-1.22202
-1.14422
0.0571699
1.08705
-1.23749
0.901447
0.336043
0.191319
0.376636
-0.237333
-1.3824
1.67274
1.60784
-3.28058
1.23459
0.277048
-1.51164
-1.63393
3.30667
0.366604
-0.317114
-0.0494897
-2.03072
3.83489
-1.80417
3.46607
-0.310262
-3.15581
-3.91936
2.02226
1.8971
-0.522478
1.1075
-0.585027
1.89099
-1.4401
-0.450891
-0.925066
2.42222
-1.49716
3.78845
-2.12342
-1.66503
-0.890989
0.973956
1.37037
-0.510761
-0.85961
3.87928
-3.39288
-0.4864
-0.100417
0.61514
-0.514722
-1.40513
0.805364
0.599768
0.896633
0.814784
-1.71142
0.0352748
0.737366
-0.772641
0.26903
-0.370514
0.101484
3.63281
-3.66988
0.037073
2.19346
-0.79196
-1.4015
0.996135
1.19732
1.4135
1.96385
-0.0989659
-0.563133
0.662099
1.49927
1.81924
-3.31852
0.669481
3.2098
0.327203
2.79633
-3.12353
1.96287
-3.29162
1.32875
1.5085
-1.13037
-0.378127
-1.99843
-0.87655
2.87498
-0.150916
-0.468196
0.619112
1.4559
-1.0491
-0.406807
-1.06178
-0.30749
-0.556027
2.62371
-2.06769
1.17206
0.339399
-1.51146
1.86989
-2.79495
1.81894
1.79459
-3.61352
-1.07884
-0.354411
1.43326
3.60507
-1.78614
0.598399
-2.44596
1.84756
-0.681649
-0.555841
2.35207
-0.328142
-2.02393
4.22531
-3.63349
-0.59182
0.333393
-0.89977
0.566377
-1.01773
0.213151
0.804575
1.31797
-0.560409
3.12995
-3.42327
0.293323
0.807955
-0.474562
0.55822
0.897682
-0.376621
-1.57871
1.95533
0.0598906
-0.132545
0.0726544
3.38797
-3.54379
0.155821
1.83314
-2.38916
3.51946
-0.131481
0.797381
-1.12123
0.786728
0.0249013
-0.811629
-0.217925
-1.54215
1.76008
1.30526
0.931267
-2.23653
1.34079
-1.08117
-0.259618
1.87557
-1.27717
-4.17338
0.902043
3.27133
0.0250141
0.750595
-0.773715
0.922724
-0.149009
0.209527
-2.34793
2.13841
-2.39853
0.085371
2.31316
1.51193
0.281558
-1.79348
-1.24687
1.10965
0.137223
-1.80741
-0.265762
2.07317
1.16665
-0.247619
-0.919029
0.630998
-0.906529
0.275531
-0.277384
-1.20807
1.48546
0.914758
-0.989647
0.074889
2.20775
1.39492
-3.60267
0.19466
0.171943
-0.189914
0.998468
-0.808554
1.85257
-0.955938
-0.0964517
-0.273077
0.369529
1.05446
0.315914
-0.671336
-1.17727
0.974536
-1.16445
-0.277508
1.44957
-0.0142575
-0.759458
0.338404
-0.434856
0.640217
1.83041
-2.47062
0.468216
-1.55836
1.09014
0.687762
-0.754793
0.646572
0.108221
-0.428102
0.536262
-0.10816
1.59424
-1.38878
-0.205465
-0.777923
0.627007
1.98777
-3.15351
1.16574
-0.294141
0.51549
-0.22135
0.0819515
-0.516454
0.434502
1.68651
-0.451918
2.63814
1.15031
-1.77002
1.3934
4.48637
-1.26729
-3.21908
0.974111
-0.160791
-1.38384
0.304992
-1.22166
0.978408
0.243256
-0.936916
0.16787
-0.925043
0.757173
1.15535
0.353155
1.62745
-2.16515
0.537702
2.37181
0.290024
-2.66184
-3.09581
2.25195
0.843861
0.0350819
-2.67043
2.63535
1.57145
-0.416105
0.37596
-0.939093
-0.0372384
0.0788841
-0.0416457
-0.073311
0.0471408
0.0261702
1.71886
1.19319
-2.91205
1.80241
-1.70182
-0.100593
-0.525592
0.190089
0.335503
-0.536826
-0.217968
2.54968
1.93669
-1.0336
1.07565
-0.0420544
1.77632
-3.39823
1.62191
0.137915
-2.13635
1.5867
0.566002
-2.1527
1.87163
-2.08955
3.09284
-0.521893
-2.57095
1.81278
-2.51626
0.703484
3.64782
-2.42959
-1.21823
-0.267747
0.592912
-0.325165
-0.163307
3.24443
-3.08112
3.34309
0.122985
-2.4736
0.0748293
2.39877
-1.51593
1.18495
0.330983
1.8839
-0.578633
0.461014
0.879776
-1.87153
2.284
-0.412469
-2.55266
3.26259
0.0308999
-0.640238
0.609339
-0.228657
-0.00380294
0.23246
-0.063386
-0.579807
0.643193
6.78035
-1.18271
-5.59764
4.15442
-2.04105
-2.11337
-0.698624
0.635239
0.921934
-1.65673
0.734799
0.328977
-0.0599479
-1.40788
-1.35146
1.96906
-0.617595
-1.94627
1.42306
0.523212
-0.0422504
-0.104112
0.146362
1.51357
2.13425
-0.049755
-0.023556
-0.183047
0.145809
-2.08426
0.212723
-2.21289
2.788
-0.575105
-1.98197
2.20212
-0.220152
-1.54118
-1.42604
2.96722
-0.0460853
0.716769
-0.670684
1.27638
-1.34475
0.0683739
2.94745
-0.034462
-2.91299
0.00315005
-2.23826
2.23511
-0.955106
2.54181
0.571907
-1.6635
1.09159
-1.1925
3.18028
-2.35775
1.58714
0.770612
-0.0751159
0.10848
-0.0333639
1.41635
-3.96834
2.55198
-3.0621
1.03138
-2.24569
-0.719664
3.53118
-2.01312
-1.51806
-0.923473
0.958747
0.511718
-0.546204
0.0344858
-4.03948
3.44359
0.595893
-2.54748
3.63635
-1.08887
1.30332
-1.46428
0.160965
0.193921
-0.720662
0.526741
-1.01471
-0.675725
1.69043
0.35667
-1.30065
-2.32647
2.36155
-2.19823
-0.696956
2.89518
0.35889
0.0903525
-0.449243
0.399394
-1.75086
-0.900661
0.378183
2.55531
-0.183494
-0.50876
0.408343
-0.566993
0.691152
-0.124159
-0.158521
6.93887
-1.87051
0.855807
-0.281109
0.404009
-0.122899
-2.12078
0.415179
1.7056
0.0790478
1.22427
4.12371
-2.70736
2.31079
-4.03092
1.72013
1.07614
-3.55485
2.47871
0.108958
-1.25318
-1.4851
2.12532
1.918
-2.82613
1.85412
-2.75383
0.899713
-4.21768
2.48336
1.73432
-0.0988225
-1.14805
0.563993
0.435275
-0.999268
2.08127
-0.706008
-1.37526
-0.392847
-2.26052
2.09722
-0.783785
-0.249812
1.95619
2.9051
-1.90255
-1.00255
-0.0317119
-0.42248
0.454191
1.94358
0.377688
-2.32126
0.085762
-0.726795
0.641033
-1.257
2.47045
-1.21345
-2.5511
2.76062
1.72536
-1.15345
-0.401535
1.01121
-0.609676
2.88468
-1.10836
0.353648
-0.0328686
-0.32078
-0.587133
-0.58684
1.17397
-0.416053
0.434258
-0.0182043
3.41459
-2.05524
-1.35936
0.740447
-3.28793
-0.461447
0.0453936
-2.52317
0.816974
1.7062
3.87824
-1.45602
0.720358
-2.93325
3.97377
-1.88984
-2.08393
-0.0542357
0.413126
1.25206
-1.10831
-0.143751
-1.82556
0.384611
1.44095
-2.8682
2.8847
-0.0164927
1.19575
-3.19228
1.99654
0.0270894
-0.034481
0.00739157
-1.40128
1.84639
-0.44511
0.0630106
1.02201
-1.08502
-0.471528
0.177388
-0.514709
0.0866066
-0.489475
-1.06888
0.613104
-2.3692
1.7561
-0.739058
0.771279
-0.0322214
1.15067
0.740317
2.67131
-0.817188
-0.611798
0.38314
1.99126
1.88698
-1.5061
0.0839078
1.4222
0.936963
0.315099
1.18367
0.292445
-0.8071
0.0680422
-0.886031
-0.107251
0.993281
0.0875432
-0.162659
-2.54472
1.28772
0.362044
-1.07784
0.7158
-2.70773
2.624
0.0837314
-1.66527
1.96827
-0.303001
-0.564083
-0.352717
0.9168
2.26362
-2.49508
0.231458
-2.60059
-1.61709
3.97241
-2.28217
-1.69024
-0.33463
0.302918
3.51951
-2.32376
-1.73055
2.34366
-1.88154
0.0639221
1.81761
1.81169
-1.38102
-0.430669
3.69264
-0.913913
-2.77873
-1.96838
0.086848
2.50881
-1.50157
-1.00724
-0.52294
2.37166
-1.84872
0.933105
-2.915
1.98189
0.438687
0.946973
-1.38566
-0.509498
0.00426037
0.505238
3.74188
-3.17992
-0.561957
-1.68551
-1.4103
1.20793
1.69717
-2.47433
-0.233405
0.508643
-1.09578
-0.069381
0.223116
-0.153735
0.0111993
0.500519
-1.61362
3.33248
1.48455
1.93004
3.8214
-2.1965
-1.6249
-2.96335
2.2664
2.03443
-3.76133
1.7269
-1.86512
-0.153477
2.01859
-0.885051
-0.478904
1.36395
1.51396
-0.592025
-0.699914
0.418805
1.26305
-0.182067
-1.25803
-4.25805
1.69978
2.55827
-0.674593
0.107601
-0.500575
0.0990401
0.35454
-3.22274
0.414378
-2.96548
-3.37
-0.686425
0.883179
-0.196754
0.0936774
-0.732292
-1.44836
1.05614
0.392224
1.06596
0.528281
1.62689
-0.686118
-0.940776
1.43731
0.365106
-0.0243402
-0.0450408
1.71414
-0.202215
-0.628618
-1.49216
2.96425
-2.68863
-0.275621
0.832429
0.355633
-0.397514
0.0418814
2.35857
-2.59631
0.237735
-1.33866
1.06127
-0.386741
-0.138851
-0.30478
-1.50263
0.929012
-1.64298
0.71397
1.24263
1.26617
2.32119
-3.7523
1.4311
0.76953
-1.63088
0.861346
-2.91745
0.518926
0.0666976
1.09995
-1.35274
2.05287
-0.700128
-0.725647
0.934097
-0.208451
-1.42049
-0.0721769
-0.377184
-0.713802
1.09099
0.314471
0.00386118
-0.318332
-0.929335
-0.586594
1.09682
1.34496
-2.44178
0.972659
-0.0356961
0.419532
-1.35124
0.0125825
1.4385
-0.668967
-1.93837
-0.419384
1.26742
-1.12936
-0.13806
3.28158
-1.78231
-1.42546
2.24636
-0.820899
-0.376306
0.434332
-0.0580267
2.05952
0.0217531
-0.301516
0.524632
-1.50286
2.71269
-1.20984
1.89648
-3.69879
1.80232
2.09222
1.88019
-0.225253
0.133808
0.0914451
0.299693
-2.16481
0.808795
-2.59817
1.78937
0.120346
-0.0604552
-0.272645
1.90009
-2.31208
2.72646
-2.2741
3.35024
0.622538
-3.14578
-2.18028
1.06676
1.11352
1.9367
-0.33998
-1.59672
2.8057
-0.542077
-1.43599
-1.21098
-0.598597
1.76616
0.231358
0.388552
-0.61991
0.970585
-0.913416
-2.17578
1.90313
2.93955
0.693251
-2.34476
0.919305
2.83329
-1.62536
-1.18919
1.15941
0.0297823
0.0592718
-1.82282
1.76355
-2.70314
0.496716
2.20643
2.4839
-2.4839
-0.530705
0.113557
0.417148
0.897421
0.729473
1.8475
-1.03352
-0.813973
-2.79769
2.92196
-0.124272
1.04756
-0.110527
-0.937037
0.813978
-0.322923
-0.491055
0.35195
-0.916032
0.607318
0.780984
-2.51154
-2.46862
2.89508
-0.426458
-0.863803
1.96063
0.117518
0.0443861
-0.161904
0.00389879
-0.887045
0.883146
-1.14107
1.25003
3.74999
-3.05584
-0.694153
-0.256039
-1.54829
1.80433
-0.719528
0.783519
-0.0639913
0.411776
-0.846256
0.434481
-1.45683
-2.44351
3.90034
0.584603
0.344379
-1.25735
0.0681572
-0.0893652
-0.171304
0.260669
1.86755
1.87433
0.204853
-0.0873349
-0.179326
-0.799088
0.978414
-1.52244
2.40185
-0.879416
-0.0276732
0.470396
-0.442723
1.25022
-0.84057
2.63219
-1.347
-1.28519
0.0617485
-1.26982
0.535062
2.41239
1.30899
0.851513
-2.1605
1.41805
-1.21646
-0.201587
-3.03615
0.562542
-1.17398
0.507915
0.666068
1.45486
1.9092
-3.36406
-1.89866
1.74518
0.198453
-2.72917
2.53072
-0.395066
0.588987
-0.00771415
-0.0173261
0.0250402
0.0986657
-0.984696
0.174328
-0.0691229
-0.105205
-1.95407
-0.569101
1.83356
0.906523
-0.443181
-0.463342
-0.393635
0.0173291
0.479302
-2.10399
1.62469
0.74284
1.55335
-2.29619
1.33468
-2.10256
2.55939
-0.456834
-2.16593
1.64299
-0.0730806
-0.244033
-1.15591
-0.790358
-0.800867
0.206857
0.59401
-2.59404
1.07161
1.97278
-2.22882
2.10958
0.723715
-0.979049
0.949696
0.0293525
1.10277
-3.27058
2.16781
0.477378
-0.827061
0.349683
-0.446854
0.145338
-1.86345
-0.11852
-0.964445
-0.053281
0.241838
-0.423707
0.181869
1.14941
0.0341463
-0.0706514
0.0365051
3.20783
-1.75297
-1.51935
4.129
-2.60965
0.807717
0.545405
-1.35312
-1.05759
0.662522
-0.672666
-0.128201
1.18554
0.661959
3.23028
-4.49757
0.954287
0.313137
1.82426
1.25297
0.461168
-2.74653
3.07373
0.321603
-1.30624
0.98464
-0.271542
-2.47576
2.7473
-0.80504
0.933416
-0.128376
-0.655994
0.609909
-1.67988
2.61298
2.69014
-0.877367
-1.21662
-0.231743
0.0260975
-1.25665
1.23055
1.36887
-2.91005
-0.34219
-1.37336
1.71555
-0.459433
0.999851
-0.540418
-1.92929
0.118236
1.81105
3.45073
-1.63149
-0.0463728
0.277925
-0.231553
-0.66622
-0.053308
0.529165
1.09667
-1.62583
0.427785
-0.521539
0.0937537
0.735155
0.284042
-1.0192
-1.86026
4.06801
0.308675
0.00579664
-0.719866
-1.35234
2.0722
-2.44524
4.99493
2.77426
-2.03142
-1.07901
0.701825
-0.490208
-0.0192907
-1.6652
3.69963
0.386367
-2.29163
1.90527
3.8567
0.854389
-4.71109
-1.37557
2.03707
-0.661505
1.18072
-1.28075
-1.18883
2.46958
0.339644
-0.237381
-0.102262
-0.84141
-1.46028
2.30169
-0.800684
0.804583
0.117297
-0.159547
1.52654
-2.36795
-2.0979
-0.64887
2.74677
-0.162031
-1.46134
1.62337
-0.0903314
3.86298
-3.84156
-0.0214169
0.642609
-0.409765
-0.232844
-0.0226502
-0.956398
0.770175
0.715282
-1.01628
0.131229
-2.4021
3.04466
-0.642558
-0.605937
0.967981
0.071727
1.7999
-2.75939
-0.910491
0.0906882
-0.494278
0.40359
1.59465
-0.341677
-0.643017
0.705157
-0.0621402
1.14136
-1.07835
-3.35588
1.11018
2.7171
0.57771
-0.352472
0.764248
-0.608871
1.41659
2.43499
-1.654
-0.658606
0.015589
-0.344635
-1.83114
0.593494
0.73687
-0.705971
-2.76138
0.0582402
-0.00871968
0.647234
-0.169856
0.349258
2.16014
-2.5094
2.91238
0.217568
0.587464
-0.193808
-0.393656
0.89107
-0.807749
-0.0833211
-0.887995
0.377234
-3.04452
1.54166
0.917095
-0.323583
-0.593512
-0.0338898
0.848963
-0.815074
3.12481
0.0186824
-3.14349
0.5888
0.0429281
-0.631728
-0.42924
-0.792424
0.696464
-0.0654657
-0.140047
0.125039
0.0150084
1.21618
-0.141663
-1.07452
-0.0172334
-0.122814
3.29138
-1.89646
-0.0946531
-0.436772
0.531425
-3.09675
0.694649
0.100766
-0.373464
1.348
0.318417
0.588106
-0.0547302
-0.557067
0.722721
0.51917
-1.24189
1.95295
0.399113
1.24347
-0.921871
0.67794
-0.595988
0.235247
-0.960893
1.58928
0.529789
-2.11907
1.62579
-0.144382
-1.48141
-1.44718
-1.06908
-1.23233
0.272956
0.959375
1.11886
-1.21701
0.0981451
3.27823
-0.0807504
-3.19748
-1.2934
0.5946
0.698802
-1.50394
2.00048
-0.496534
1.6289
2.16114
-3.79004
1.12248
-1.47689
-0.844154
1.31108
-0.466926
0.646685
0.299244
-0.945929
-3.40607
2.0721
1.33397
0.117039
0.00799951
-2.53619
0.438287
0.930391
-0.574102
-0.356289
1.40624
-1.80285
0.396613
-0.260327
-0.588139
0.702819
3.16016
2.46155
-0.423487
-2.03806
-2.4983
0.395741
1.01504
-1.64365
2.0619
-3.52641
1.46451
-0.303321
0.867313
-0.030593
-1.11113
0.931808
-0.485297
0.653167
-0.466526
-2.284
2.75053
1.49877
2.02074
-2.20054
2.33981
-0.139274
0.326004
-0.0841667
-1.66912
-0.705639
-0.364148
0.404981
-0.0408332
1.11613
-0.446847
-0.669284
-0.199058
0.996776
-0.797718
-0.224989
1.63123
-2.13747
0.240491
1.89698
-2.35554
-0.708029
3.06357
1.37847
-1.05882
-0.319649
-0.725291
0.0680867
0.657205
0.143037
0.159472
-0.302509
-2.91515
0.149628
2.76552
0.0816626
0.571039
-0.652702
2.33432
-2.64033
0.306009
-1.4981
1.93928
1.00553
-2.9448
0.0277107
-0.391859
-0.139848
-2.31196
2.45181
1.89676
-3.08926
-2.84004
2.47718
0.362866
0.512119
-0.0843331
1.98162
-1.90989
-0.159976
-0.697061
0.857036
-0.0359062
0.521883
-0.485976
-0.716079
3.07869
-2.36261
2.81924
-0.955834
-1.86341
3.05406
-2.92229
-0.131777
2.23905
-0.839793
-1.39925
0.135492
-0.689608
0.554116
-0.879696
-0.0453469
-2.96154
2.60745
0.354084
0.157883
-3.11942
-1.71738
2.01605
-0.298678
-1.6793
-1.50062
0.586016
-0.501941
-0.0840745
-2.42302
-0.673729
-0.557362
0.370796
0.186566
-0.430807
0.516569
-2.81398
2.69322
0.120758
-0.152839
-0.11309
-0.0194554
0.636863
-0.0480631
-1.76208
0.360795
0.421544
-0.501145
0.0796014
-1.48168
1.08189
0.399791
1.13528
-0.0877122
-0.701865
1.93412
0.125402
1.05443
-0.457846
0.646492
-0.188646
-0.281525
1.5579
-1.84776
1.20598
0.641777
0.133013
-0.0159738
3.41592
-1.91715
2.78153
-1.67877
-0.651077
-0.470512
1.12159
1.70557
-2.76751
1.06194
1.66688
-1.82891
2.24371
-1.30031
-0.943396
-0.0168656
-1.56847
-0.279284
-6.06762
7.25938
-1.19176
-0.0729212
-1.05852
3.36931
-3.16581
0.742789
1.22472
-0.78603
-0.288611
0.429093
0.447324
-0.0130666
-1.46063
-0.818797
3.57738
-1.74424
-1.47587
0.881925
0.593948
0.186311
0.627667
-2.30227
-0.735515
3.03779
0.568415
0.945543
-0.00576725
-0.42964
0.435407
2.45958
-0.758812
0.317992
0.44082
2.09764
-0.508365
-1.03578
-2.95181
0.483187
-0.672933
0.0380087
0.634925
1.87604
2.09773
1.01513
-0.728051
-0.287083
2.93391
0.120149
1.804
-2.52857
0.724569
-2.43722
-0.0414036
2.47862
-2.40156
3.08347
-0.681914
0.412506
-0.0100402
-0.402466
-1.16136
3.05812
-0.382749
-0.59533
0.978079
0.123519
-2.32406
1.37978
-0.698738
-0.681043
-2.8369
3.70056
-0.863656
-0.675234
1.62221
-0.946976
3.4851
-1.53816
-1.94694
0.00120607
-1.76272
1.76151
-0.0333864
0.0160603
-1.7331
3.362
-0.0911454
-0.439559
3.71904
-1.82256
-0.552338
0.457684
-2.56397
0.126751
4.02633
-1.70514
-0.205762
-3.96761
0.787069
-0.0497034
1.14055
0.781956
-1.92251
1.63027
-0.396268
-1.234
5.32202
-6.29127
0.969246
-0.517675
0.0302466
0.487428
-0.574213
-1.44195
2.01616
1.05369
-0.818448
-1.04996
0.056015
0.993949
0.356351
0.787105
-1.14346
0.238539
0.347477
-3.11081
3.57642
-0.465612
-0.873617
0.0685774
1.35579
0.59038
-1.94617
1.66533
1.70405
-3.36937
0.486745
1.44995
-0.0102975
3.10314
-0.0187798
2.36099
-2.34221
-0.0397049
0.0120317
0.0793183
0.0408552
-0.120174
3.51116
-2.99412
-0.517042
1.27358
0.970128
-0.30861
0.338319
-0.0297095
-0.828528
2.38103
-1.5525
0.0309916
0.480659
-0.511651
2.10741
-2.88145
0.774039
-0.900366
-1.98123
2.88159
2.4427
-0.499128
0.849647
0.780625
-1.92887
0.143835
1.78504
0.84561
-2.3939
0.80818
-1.48065
0.672473
0.564019
-0.206891
-0.357128
0.188402
-0.221789
-0.209422
2.24758
-2.03815
-0.503545
3.29987
2.27679
-1.85437
-0.422414
1.89201
-1.61045
-1.51179
0.493766
1.01802
0.305446
-1.33897
1.11246
-0.511304
-0.601152
0.178725
0.408739
0.445546
2.1784
-2.62395
0.690277
0.525906
0.380705
-2.73624
-1.40863
0.441798
0.966834
-0.996823
-0.673969
1.67079
1.45343
-0.730704
-2.51073
1.64693
0.883065
-0.680596
-0.202469
-0.748614
2.23343
-1.48482
-1.28851
1.35026
-1.45948
1.54923
-0.0897503
-0.15121
1.41121
-1.26
-0.0635752
0.646015
-0.582439
-0.980893
0.947003
-0.646421
-1.57414
1.67273
-0.0985883
-1.62926
2.04444
1.48288
-1.53819
0.0553154
0.459923
0.41604
-0.875963
-3.92146
2.75772
1.16374
0.20127
0.1858
-0.38707
0.430807
2.15385
-2.86993
2.65006
-0.944494
-0.921638
-1.25864
-2.102
2.08322
1.43482
-0.0117694
1.07877
0.358241
-1.43701
-0.990171
0.908938
0.081233
-1.13554
0.533084
0.602454
-0.755911
-1.56916
2.32508
-0.00125304
1.67329
-1.67204
-2.15822
-0.756921
2.91514
-0.495316
0.955238
2.71027
0.800892
-0.761042
0.239917
0.521125
-0.980419
0.301189
0.67923
0.0185871
0.528601
-0.688288
0.159687
-3.90207
-2.7937
2.03778
0.406739
0.595883
-0.460391
0.583096
0.533034
0.0173189
-2.68775
0.0780686
0.836689
0.480154
-0.102417
-0.377736
-1.73141
-1.53481
3.26622
-0.797082
-1.13179
-1.47236
-0.274315
1.74667
0.326659
0.600154
-0.926813
0.0310337
3.33127
-2.13857
-1.1927
0.524972
1.93658
0.284484
0.863899
-2.07894
1.21504
-1.68124
3.04328
-1.36203
-1.64447
-0.739048
2.38352
-1.34904
0.504888
-1.15199
-0.359805
3.06901
-1.39951
-1.6695
0.950169
-0.315264
-0.634905
1.09331
0.184437
-1.27775
-0.492974
0.574636
0.401763
-0.715443
0.31368
-0.20914
-0.0820237
-0.616601
-0.0341394
1.76422
1.30479
-0.369952
1.17532
-1.3668
3.38906
0.835271
0.114898
-2.50272
0.858252
2.15384
-1.85415
-0.318823
-1.86982
0.365878
0.272113
-1.98949
2.09179
-2.03252
2.44564
-0.0870648
-0.580052
-0.326477
-0.712302
-0.253221
0.965523
-0.878523
-0.111124
2.22347
0.408246
-2.63171
0.0440602
-0.738036
0.693975
-0.209259
0.128573
-0.475449
0.346877
2.53444
-0.200118
-2.59804
2.90148
-0.303439
0.625181
-0.412029
-3.46138
-0.460075
-0.872278
2.69092
-0.0834656
1.68637
3.39281
-1.17346
-2.21935
-1.85943
-0.10844
1.96787
0.676954
1.40819
-2.08514
-2.06412
0.134832
-0.515011
-0.344438
0.859449
-1.39868
1.78505
0.406264
1.49928
-1.90554
0.5112
-0.322568
-0.188632
-2.803
0.343894
2.45911
1.42315
1.22691
-0.735125
1.59735
0.641698
-0.795606
-0.378377
2.30928
-2.83117
0.78721
-0.801764
0.0145538
1.51453
-0.392048
1.98599
0.120403
-2.1064
2.05749
-3.42429
0.00898557
0.0181038
-0.865891
1.2233
-0.357409
-2.4719
2.33205
-0.0680044
0.841814
-0.77381
-0.640117
0.627316
0.0128012
-0.458502
-0.197493
-0.745457
1.76049
0.556455
0.36064
-0.447935
0.475646
-0.567498
-0.159297
0.0150149
-0.0494959
-0.579282
0.553721
0.0255612
0.589248
-0.669149
0.0799012
-1.4257
-2.1181
0.375983
-1.84834
-0.083907
-0.839566
0.0233447
1.64128
-1.66463
0.945036
-1.05229
0.352646
-2.20655
1.85391
-0.0498046
1.99569
-1.94589
-3.05449
-1.20355
-1.10449
-0.0690971
-2.77094
1.71079
1.86659
-2.18725
-0.323479
0.27913
0.0765032
-1.21622
0.502418
-0.213971
-0.320887
0.534859
3.61033
-1.73429
1.63118
-0.822381
-0.690665
-0.435661
1.12633
-3.42436
1.53529
1.88907
-1.5035
1.10705
-0.796699
2.73598
0.466387
-0.275068
-1.52143
-0.760903
0.378154
1.42086
-1.42554
0.00468227
-0.380949
2.60442
-0.692379
0.918644
-0.226265
-0.844368
-3.93957
1.7283
2.21127
0.551725
0.686255
-1.23798
2.19998
-0.454002
-1.74598
-1.52608
0.850848
-2.65461
-0.0127653
1.10608
2.64741
-2.91895
1.18218
-0.535496
-1.15402
1.99963
-2.61513
2.08542
0.529712
2.19025
-2.95446
0.764211
-2.03605
2.17035
-0.134301
1.17927
-1.4608
0.0358577
0.636859
0.741614
0.962009
-2.50416
1.32222
-2.72605
1.9586
0.767455
0.673236
-2.53267
4.93006
-0.10454
-1.72102
0.355944
0.9366
3.04132
-1.02852
-2.01279
-0.485492
0.721205
-1.71803
0.452535
-2.78079
2.67235
-2.20565
0.924902
1.38932
-2.65925
1.10492
1.55433
-1.28861
1.36058
-0.0719687
-0.255602
0.339296
-0.798729
-2.89593
2.03729
0.858638
1.90069
-3.06205
-2.95198
-0.158835
3.47492
-1.41302
0.748683
0.543487
-1.29217
-0.0711379
-0.442224
0.513362
-0.557541
0.672912
1.55622
-1.12126
-1.53798
0.475039
0.578656
0.63413
1.0368
-1.67093
1.09399
-0.658715
-0.0804777
-3.25698
3.33746
-0.951983
1.18173
-2.13684
-1.60866
-1.23524
2.84391
0.704182
-0.9518
-1.95954
0.592826
1.36672
0.404196
-0.336454
-0.0677423
2.26349
-2.73002
0.230503
-1.09639
1.39673
1.66391
-3.06063
-1.1913
-0.284578
-2.35996
0.661008
1.69895
-2.76647
1.86611
1.34062
-3.02186
1.03648
-0.24927
0.191205
0.212991
-1.8102
5.6669
-1.74005
2.19287
-0.452822
0.955167
-0.0944404
-0.860727
-1.6185
-0.0447706
-0.641654
0.144384
2.33952
0.342088
0.0922446
1.51093
1.40394
-0.50652
1.44826
-0.750087
-0.385451
-2.64721
-0.166771
-6.22614
0.0789819
-1.18729
0.483757
0.555103
-1.03886
1.8104
0.235398
-2.0458
-0.30918
0.29914
-0.973034
-2.07148
-2.23688
-0.359423
-1.4114
3.46889
-0.968401
1.32177
-0.353372
-2.63096
0.899548
-0.812541
1.44667
3.01177
-2.66252
-1.41481
-0.850665
0.919039
-1.45373
-0.027945
3.09331
-0.40239
2.21584
-0.498278
-1.71756
0.389927
0.621284
0.735459
2.91313
-2.71468
-0.0232256
-0.644715
0.920246
-1.40141
1.48531
-1.29954
-1.26548
0.631617
0.481959
-1.11358
-2.53924
0.0553357
-0.360191
2.20332
-1.84312
-0.01589
-2.58215
-1.95604
2.33372
4.05563
-1.81295
-2.24268
-0.331072
0.838987
2.08135
-1.10879
-0.972558
0.743827
-0.82585
0.113041
-0.0337229
-0.488613
0.0250805
0.463532
-0.331526
1.41029
-1.22157
3.12226
-0.0807753
-0.421166
-0.785941
-0.22862
1.01456
-0.0593206
2.32281
0.856307
0.902911
-1.75922
-1.08974
1.6189
1.19419
1.18684
-1.15215
-0.256479
1.49996
-0.565976
-0.933988
-0.0927941
0.0361752
0.0566189
0.406051
-2.24663
1.84058
-2.64279
0.405902
0.62707
-0.928671
1.00765
-0.0297643
0.773591
0.343475
-1.31188
-1.50275
0.904158
-2.94717
0.906121
-1.27753
0.136461
-1.16318
-1.57547
2.73865
-1.05398
0.117501
-0.222742
0.105242
3.09009
-2.18804
2.23126
-1.55431
0.407522
1.51317
-1.92069
0.542974
-1.05798
-2.36957
2.79926
-0.429693
0.896377
-0.754383
-0.141993
-1.45878
3.31264
-1.85386
2.04084
-1.34852
-0.69232
1.99619
0.245244
-2.24143
-1.67346
-2.26611
-0.908873
-0.0555716
0.3631
1.20835
-0.0445978
0.26141
-0.216812
-1.90202
-0.457935
2.05008
1.69519
-1.52024
1.81844
-0.298192
-0.717613
1.0356
0.015886
0.969439
-0.985325
0.212208
-0.904587
-0.31009
-2.58584
-1.29862
0.836418
0.0466474
-0.182668
-0.717992
0.20721
2.07625
-2.28346
-1.42936
-0.332712
0.10441
0.868249
0.202276
-0.739102
0.0661287
0.290092
-0.356221
0.172531
-0.99386
0.821329
0.59848
1.36979
0.392687
2.3425
-1.09987
2.36218
-1.18045
-0.304766
-0.715177
1.01994
2.11599
0.255672
0.0564565
-1.89108
1.31686
1.08824
-1.14756
-1.39016
-1.86316
3.25332
-1.76979
-1.65457
-3.18375
3.44493
-0.261184
0.568287
-1.0106
0.757383
1.55285
0.78965
-0.624546
0.702284
-0.0777378
-1.41773
-2.00554
3.40791
-2.47947
-0.928447
1.36207
-0.793658
1.42045
-0.612272
1.60882
-2.58186
1.27607
-0.999022
-0.837461
4.35154
-3.51408
1.95714
1.31458
0.848271
-2.16285
3.13205
-1.78851
-1.34355
-1.60525
-1.78864
3.54501
-1.75638
0.457198
1.75864
-0.807699
0.777935
1.20308
2.28202
-0.606172
0.535034
0.0615835
-0.0274372
2.70305
-1.50987
1.49502
2.11531
-1.14283
0.593841
0.548992
0.59997
-1.25105
2.10593
-0.11994
1.7488
-1.00012
-1.87782
-0.340048
2.21787
0.52247
-0.0940108
-0.428459
0.404702
0.237907
0.379062
-2.78062
-0.795849
0.894515
1.93999
-1.71995
-0.220036
0.471786
1.02818
-0.412471
0.218663
0.730661
0.622903
-1.35356
-1.22565
3.09554
-0.598728
-1.81925
3.41272
-1.59347
-0.744233
1.10058
0.555303
-0.0441029
3.05752
-1.5209
-0.953429
0.596942
1.60304
0.851481
-0.935388
-0.504942
0.441367
-0.790038
-0.388446
-0.00518918
0.708914
-0.433264
2.27943
-1.84617
0.114345
-0.20371
-0.983902
0.286841
-0.905197
-0.00367628
-2.09348
1.37361
0.686567
0.624513
-1.00532
0.112417
0.892901
0.672415
0.250309
2.32409
1.24698
-3.57107
-0.269169
-0.0599865
0.329155
1.87089
-3.39024
2.72331
1.33232
2.18847
-1.98126
-3.45384
-0.339115
0.0202471
-0.0758535
1.28581
3.13719
1.52935
-4.66655
1.07897
-0.133932
-0.0955979
-0.897449
-0.245384
-0.729961
-1.18136
1.48681
3.06095
1.06805
1.55656
-1.58568
0.0291156
0.536591
0.01713
-0.173688
0.69259
-0.103342
2.0928
0.566554
-2.65935
1.67588
-0.255021
-0.625282
0.375775
0.249508
-0.947026
-0.0178059
0.964832
0.74893
1.61054
-2.35947
0.60395
0.849475
1.91536
-0.0571717
-0.720752
1.00521
0.398733
0.119935
-0.648347
0.528413
-2.46714
1.74748
2.34251
-1.85314
-0.489374
0.0451334
-0.401134
0.356
2.33163
-2.54105
1.70054
-0.338464
1.07177
1.15949
-0.347437
-0.0410084
-0.901885
0.322034
0.579852
-1.53069
-0.342049
2.99464
-1.53413
-1.46051
1.57969
0.338124
-1.91781
1.16424
-1.93043
0.766183
-0.315166
1.39045
0.0480472
-1.33782
2.60178
-1.26396
-0.59922
-0.302665
-0.656632
0.895394
0.0232509
2.5411
-0.00271661
-2.53839
-0.691199
0.0998753
0.380278
0.381186
-0.0428669
0.771313
0.451988
-1.43354
1.23448
0.0335497
-0.235336
-0.357588
0.34333
-1.08004
1.48757
0.0338823
0.702988
0.454681
-0.659714
1.81039
-0.120977
1.67754
-0.478062
-0.313766
-0.618162
1.34882
-0.440027
2.45812
-2.01809
-2.21224
-0.323948
-2.09449
2.95908
-0.864587
-0.0760776
0.971471
0.863421
-0.165034
-0.0508223
-0.667401
0.718223
-2.25575
0.734848
0.304908
-0.351281
0.977627
-3.2799
1.06669
-2.41903
-1.64151
3.24934
-1.21062
1.38641
-0.76351
0.0322237
-1.6761
2.08215
-0.00453758
-0.417942
0.35966
-1.41848
-0.283508
-1.63382
1.91733
-0.929521
1.93182
3.61771
-2.25617
-1.36153
-0.584603
0.207376
0.632482
0.058106
-0.690588
-2.17339
0.433346
0.501811
0.0622076
-0.024321
-0.337519
0.36184
1.06103
-3.15552
0.247343
1.20808
0.0959894
-1.30407
-2.74088
2.30086
0.407542
0.10155
-0.509092
-0.0263251
-1.54782
-0.371203
-0.0117466
0.38295
0.529528
-0.121986
-0.0200748
1.95066
-1.46392
1.60045
1.34786
-0.743905
-2.39031
0.78165
-1.79651
1.47024
0.326277
1.74712
-3.13729
-1.35381
-0.786043
2.13985
0.0861957
1.09875
-0.804669
0.694142
3.01889
-0.453045
-2.56584
-0.0158921
-2.63131
2.04286
-0.0466739
0.966892
1.11445
-0.413849
-0.0157909
0.400624
-0.701848
-0.941134
0.0975781
-0.110817
0.0132389
0.0306408
-2.57008
2.53944
-0.203024
0.871111
-0.668087
1.30193
-2.30483
1.0029
-0.250767
-1.45105
-0.0951801
0.0269268
1.79365
-0.92344
-0.498118
1.42156
-0.922445
-1.03163
1.18835
-0.706392
0.729554
0.497209
-1.22676
-1.33433
0.329011
1.03834
-0.338383
-0.107764
0.446147
0.497297
0.593878
-1.09117
1.24044
-3.80338
2.56294
0.0913776
-1.47377
0.472846
-3.30975
-1.05787
-2.00997
3.06783
-2.54306
0.115566
2.42749
-3.48837
-2.11526
0.079218
-0.787434
0.798596
-0.0111622
-3.42452
-0.921141
3.01394
1.0223
-0.503127
0.257791
-0.875953
-0.416622
1.2661
0.396585
0.23347
-1.01941
0.0484272
-0.412688
0.364261
-0.415123
0.147376
-0.275316
0.320449
-0.76746
1.31918
-1.54708
1.31523
0.231846
-0.954425
0.254511
1.4771
0.527357
-0.00488644
-0.0784138
-0.546133
-1.28566
-0.673887
-1.43739
0.484409
0.95298
-0.344385
1.24145
-0.897063
-1.1157
1.28823
-0.206078
1.91168
3.18605
-2.32974
1.3995
-2.32195
1.14652
-1.50411
0.357586
0.27971
-0.00178464
0.13661
-0.00280178
-2.70891
1.54573
-0.231457
1.81114
0.0367871
-0.538937
0.50215
-4.39351
1.84085
0.524769
-1.11161
-0.509563
-0.0570373
-0.571242
0.628279
-1.47561
0.552166
-2.7674
2.45731
3.25826
-1.86154
-0.638473
0.584214
0.0542595
-0.294442
-0.199836
-0.395524
0.417077
-1.71512
1.29804
-0.37495
0.314964
-0.212558
0.941089
-0.728532
0.988515
0.712022
0.157506
-0.10157
-0.0559361
-0.729347
0.76323
0.0590201
0.0613257
1.13123
-1.53223
2.75215
0.181761
-2.42027
0.0723358
2.50693
-0.0792137
-2.42772
-0.486274
-0.674644
1.16092
0.940105
-2.40074
-0.467072
2.33785
-1.87078
-0.0728669
-0.0281082
0.100975
-2.21793
2.1438
0.0741264
-1.13921
1.49185
2.56096
0.258288
1.88244
-0.740684
-1.14175
0.242089
0.451001
-0.69309
-0.436864
-0.842284
-0.0374123
-0.805645
-0.0366385
0.100734
-0.859395
0.758661
-0.237974
2.5047
-2.26672
-2.20612
0.815121
1.391
0.687645
2.43716
0.0975597
0.0933371
-0.190897
1.49617
0.628985
-2.12515
0.294161
-0.508132
-1.03213
2.93322
-1.90109
-2.21543
0.337611
1.73708
0.703342
-2.05715
-0.00587025
-0.310452
0.316322
2.83296
-0.835381
-1.99758
1.15366
0.595192
-2.20485
1.38605
2.97254
-3.05302
-1.33805
0.288335
1.04971
-0.0905699
0.661347
0.610902
-1.27225
0.468053
-0.275543
-0.19251
-0.0262973
0.326093
-0.299795
0.956359
-1.02719
0.0708266
-1.48136
3.09019
-0.765863
0.79196
0.458823
-0.671381
0.916598
-1.4419
0.525305
-1.37151
-1.24362
0.259495
-0.116459
-0.122956
0.0183066
0.10465
7.06261
-1.39816
-5.66445
0.264995
1.67499
-0.629135
-0.361036
-1.48504
0.228395
1.37724
0.932409
-2.30965
-0.0158147
-0.0434128
0.0592275
-0.0473368
0.938407
0.479998
-0.521189
0.0411903
3.30456
-1.35202
-1.95254
-2.8816
0.597602
0.81453
-2.55382
0.146026
2.4078
0.307051
-2.61914
-1.17017
0.79671
0.119605
0.0170049
-1.68525
2.90487
-1.21962
0.387868
0.0785185
0.252553
0.648893
-0.620794
0.540019
-0.721704
1.3163
-2.21023
2.19921
0.0110256
1.71098
-1.07019
-0.640787
2.25688
-1.6584
0.631019
0.1525
-0.6158
0.50764
-0.103758
-0.977415
1.87463
-2.83047
-2.62844
1.29061
0.0724654
0.0870068
0.365471
0.164057
-0.0624911
-0.0103758
2.28105
-2.32068
0.0396273
0.0374274
-1.26228
0.533416
0.728865
0.255454
-0.900169
-0.235532
-2.35916