/*--------------------------------*- C++ -*----------------------------------*\
| =========                 |                                                 |
| \\      /  F ield         | OpenFOAM: The Open Source CFD Toolbox           |
|  \\    /   O peration     | Version:  2306                                  |
|   \\  /    A nd           | Website:  www.openfoam.com                      |
|    \\/     M anipulation  |                                                 |
\*---------------------------------------------------------------------------*/
FoamFile
{
    version     2.0;
    format      ascii;
    arch        "LSB;label=32;scalar=64";
    class       surfaceScalarField;
    location    "5.5";
    object      phi;
}
// * * * * * * * * * * * * * * * * * * * * * * * * * * * * * * * * * * * * * //

dimensions      [0 3 -1 0 0 0 0];

oriented        oriented;

internalField   nonuniform List<scalar> 
20045
(
0.569305
-0.666125
0.0968197
-1.15327
0.504734
0.648539
0.305988
2.02208
-2.32807
0.524549
-0.753585
0.229036
-1.10425
0.880322
0.223931
-0.57526
2.10617
-1.53091
-0.963587
0.0213144
0.942272
0.0415204
0.561219
-0.60274
0.579789
0.450607
-1.0304
-0.649075
-0.198543
0.847618
0.0554742
-0.159859
0.104385
1.98505
-0.963553
-1.0215
0.454032
-0.446004
-0.00802828
-1.13083
0.94802
0.182812
-0.036541
0.913351
-0.87681
-0.983703
0.334628
-0.121809
0.123565
-0.00175548
-0.19287
0.478991
-0.286121
-1.55731
2.26601
-0.7087
-0.792857
-0.0397823
0.832639
0.636762
-0.353147
-0.283615
0.163022
0.291011
-0.265234
-0.888039
1.77432
-0.166935
-1.60739
0.829869
0.0931825
-0.923051
0.0137997
1.76052
0.332726
-0.312179
-0.0205477
-1.2968
2.76535
-1.46855
1.20773
0.54682
-1.75455
-3.21385
2.11871
1.09514
1.295
-0.247936
-1.04706
1.14222
-1.06983
-0.0723936
-0.300581
1.34815
-1.04757
3.26757
-1.75589
-1.51168
-0.704002
0.745523
1.86496
-0.910334
-0.954624
1.08466
0.452269
-1.53693
-0.076522
0.474535
-0.398013
-2.35612
1.2828
1.07332
0.647381
0.602133
-1.24951
-0.0722945
0.71179
-0.639495
0.202474
-0.283655
0.0811815
2.40961
-2.40732
-0.00228727
1.37087
-0.431595
-0.939278
0.577302
0.793571
0.89215
1.0929
-0.247407
-0.0239625
0.27137
1.33314
0.146204
-1.47934
1.64866
-0.564002
0.280786
1.79033
-2.07112
1.33185
-2.19781
0.865955
2.13025
-1.4599
-0.670355
-0.925235
-0.686051
1.61129
-0.115351
-0.362768
0.478119
-0.620928
0.241769
0.379159
-0.769246
-0.335006
0.393577
1.24317
-1.63675
1.75252
0.370718
-2.12323
1.3922
-1.69278
1.82468
-1.47502
-0.349661
-0.079744
-0.213491
0.293235
0.471289
1.35339
0.530127
-1.72918
1.19906
0.166623
0.470139
-1.2851
0.867656
0.417446
1.1951
0.5064
-1.7015
-0.223778
0.664767
-0.440989
-0.705701
0.0631403
0.642561
0.987829
-0.408039
1.5376
-1.5708
0.0332056
-0.584006
0.360228
-0.204894
-0.416034
-0.282003
-1.13336
1.41536
0.359218
-0.258207
-0.101011
1.35912
0.0333123
-1.39243
1.52354
-1.12996
-0.35032
1.70944
0.736579
-0.77312
0.591499
-0.159878
-0.43162
-0.440857
-1.30671
1.74756
0.951227
1.00713
-1.95836
0.873201
-0.800249
-0.0729519
1.33253
-0.8024
-2.48455
0.354956
2.12959
-0.0214002
0.590705
-0.315774
0.479595
-0.16382
0.224766
-1.14022
0.915454
-1.5815
0.0335869
1.54791
0.956327
0.297809
-1.25414
-0.808091
0.637789
0.170301
-1.21789
0.0926402
1.12525
0.927707
-0.24695
-0.680757
0.466475
-0.702956
0.236482
-0.280009
-0.796033
1.07604
0.693019
-0.75804
0.065021
1.48274
0.0790873
-1.56183
0.235319
0.0974074
-0.073643
-0.430695
0.504337
1.36041
-0.713033
-0.191226
0.191992
-0.000766316
1.28094
0.584022
-0.431766
-0.699065
-0.570123
0.49648
-0.530676
2.28319
0.120771
-0.436545
-0.237409
0.0461834
0.375679
1.2793
-1.65498
1.07372
-2.18777
1.11405
0.344091
-0.601612
0.507662
0.0939499
-0.319746
0.408101
-0.0883558
0.966951
-1.05876
0.0918096
-0.6001
0.484749
1.84455
-2.67937
0.834825
-0.284949
0.410798
-0.125849
0.0620607
-0.388905
0.326844
1.03879
-0.208922
2.25459
1.01298
-1.28289
1.00089
1.05615
-1.77633
0.720177
-0.295666
0.102796
-0.181627
0.101883
-0.92796
0.741291
0.18667
-1.2824
0.146216
-0.721392
0.575176
1.40073
0.729522
1.09138
-1.56367
0.472293
1.56005
0.162223
-1.72228
-2.79877
1.92538
0.873386
-0.861588
0.883416
-0.0218278
2.17811
-0.777386
0.217765
-0.241728
0.330425
0.0677117
-0.398137
0.0470185
-0.0392931
-0.0077254
1.15791
0.784868
-1.94277
1.22816
-1.05953
-0.168636
-0.271173
0.037261
0.233913
-0.434582
-0.167031
1.9469
-0.890753
-0.809282
0.80912
0.000161527
1.00113
-2.14163
1.1405
0.272228
-1.19746
0.754703
0.55043
-1.30513
1.63777
-2.07863
2.2385
-0.278221
-1.96028
0.650184
-1.39022
0.740033
1.65231
-0.919064
-0.733242
-0.277433
0.295301
-0.0178685
-0.198036
2.16364
-1.9656
1.96751
-0.759773
-1.64117
0.0394148
1.60175
-1.15982
0.74733
0.412488
1.77169
-0.820459
0.199063
0.674138
-1.23411
1.45664
-0.222529
-1.73678
2.04277
0.014747
-0.524522
0.509775
-0.457865
-0.630406
1.08827
-0.0534507
-0.445242
0.498693
1.2002
0.278272
-1.47847
2.69021
-1.34587
-1.34434
-0.541868
0.488417
0.845528
-0.936855
0.0913273
0.244604
-0.04213
-1.99057
-0.830929
1.19894
-0.368011
-1.18824
0.899385
0.28885
-0.0148468
-0.137128
0.151975
0.941656
0.710649
0.0139977
0.0330208
-0.238684
0.569109
-1.3211
0.0869839
-1.49978
1.84753
-0.347749
-1.44769
1.46576
-0.0180773
-0.941314
-0.827604
1.76892
-0.450687
0.792084
-0.341397
0.734379
-0.798904
0.0645248
1.92016
-0.110003
-1.81016
-0.0505972
-1.49729
1.54789
-0.768396
1.5231
0.394637
-1.21808
0.823447
-0.963978
2.80853
-1.48999
1.15076
0.339228
-0.164133
0.139486
0.0246467
1.05832
-2.35579
1.29747
-2.17268
0.875874
-0.885593
-1.274
2.87254
-1.89123
-0.981311
-0.826315
0.75402
0.384653
-0.410183
0.0255299
-1.1459
-0.531626
1.67752
-1.94289
2.75923
-0.816343
2.23996
-1.82887
-0.411086
-0.0406507
-0.35391
0.394561
-0.983835
-0.996608
1.98044
0.125215
-0.0697408
0.260607
-1.1222
-1.45775
-0.445774
1.90353
0.267635
0.0677413
-0.335376
0.236417
-1.06735
0.136922
1.15808
1.65306
-0.0930061
-0.385623
0.309101
-0.461803
0.588449
-0.126646
-0.552051
1.75225
-2.1714
1.18757
0.0662681
-0.503432
0.437164
-1.52809
0.34067
1.18742
0.5528
1.68716
2.49455
-1.43623
1.92569
-3.05825
1.13257
2.44887
-2.59234
0.143466
0.150951
-0.943807
-1.05109
1.42677
1.22163
-1.79689
1.76911
-3.1284
1.35929
-3.34271
1.60484
1.73787
-0.152995
-0.655096
0.409729
0.355583
-0.765312
1.32641
-0.510996
-0.815415
0.0701832
-1.5028
1.30476
-0.588353
-0.220929
1.23246
1.7035
-1.30859
-0.394907
-0.0266055
-0.32784
0.354446
1.21895
0.247071
-1.46602
-1.11492
-0.220463
1.33538
-1.05349
2.52603
-1.47253
-1.16898
1.39374
1.26138
-0.866741
-0.213674
1.14233
-0.928653
1.81455
-0.81342
0.271185
-0.0210296
-0.250156
0.207375
0.128795
-0.336169
-0.309406
0.321606
-0.0122002
2.92384
-1.86988
-1.05396
0.556624
-2.49951
-0.341772
0.0323662
-1.59063
0.403736
1.18689
2.37617
-1.02802
0.448563
-1.94834
3.41259
-1.63194
-1.78065
-0.0389746
0.30661
1.99835
-1.29498
-0.703367
-1.2354
0.18625
1.04915
-1.84397
1.81213
0.0318408
1.73935
-2.48032
0.740976
-0.0181507
0.0557144
-0.0375636
-0.943995
1.15501
-0.211014
-0.188323
-0.10457
0.292893
-0.380555
0.0956058
-0.384202
0.0644561
-1.14103
-1.04674
0.757761
-2.43567
1.67791
-0.1402
0.586735
-0.446535
0.913234
0.228987
2.99225
-1.22314
-1.14245
0.684583
0.981253
1.39492
-1.08898
0.162352
0.926627
1.04293
0.955416
0.896507
0.0168438
-0.525003
0.384802
-0.664194
-0.140994
0.805188
-0.0624656
-0.101667
-2.56787
1.51438
0.875658
-0.457775
-0.417883
-1.91595
1.85387
0.0620811
-0.457141
0.377838
0.0793022
-0.248692
-0.315766
0.564458
1.49649
-1.70273
0.206238
-1.70819
-1.63451
2.17642
-1.37138
-0.805042
-0.258368
0.231762
2.60312
-0.863774
-1.62953
2.38729
0.184133
0.517474
-0.701607
2.16769
-0.792649
-1.37504
1.86693
-0.655039
-1.21189
0.898933
-0.7148
1.78616
-1.10432
-0.681838
-0.430025
1.65566
-1.22563
0.0273097
-1.09822
1.07091
-0.0246645
0.0673114
-0.0426469
-0.138575
0.13399
0.00458531
2.33994
-2.06038
-0.279561
-1.62652
-1.17225
1.04486
0.658638
-1.75631
-0.159639
-0.163957
0.371331
0.7666
-1.63794
0.871342
0.00583012
0.378823
-1.06319
2.2211
1.14693
1.77691
3.17126
-2.01875
-1.15251
-1.83865
1.39287
1.18595
-2.06489
0.87894
-1.24642
-0.169938
1.41636
-0.846761
-0.19952
1.04628
0.800014
0.0455136
0.506633
-0.440365
0.947865
-0.327952
-0.741876
-1.1185
1.77458
-0.656084
-0.560886
0.0990826
-0.864445
0.650772
0.194571
-2.03854
0.386112
-1.55509
0.502764
-0.380524
0.485524
-0.105
-0.0852055
0.609754
-0.864749
0.601821
0.262928
0.849248
0.117703
0.192235
-0.258418
0.0661833
0.904906
0.323257
-0.839757
1.60636
1.17309
-0.216767
-0.50025
-1.02784
3.22464
-2.67051
-0.554125
1.64737
-1.89093
0.989098
0.901829
1.57765
-1.77723
0.199577
-0.985467
0.705459
-0.30185
0.0306763
-0.396687
-0.821201
0.770115
-1.19329
0.423175
0.847459
0.938697
1.10506
-1.98779
0.882736
0.681732
-1.19454
0.512805
-1.94977
0.368271
0.0989091
0.828798
-0.98944
1.15207
-0.162633
-0.41426
0.662138
-0.247878
-1.16791
0.204325
-0.268001
-0.564215
0.832216
0.263616
0.00118786
-0.264804
-0.563667
-0.596152
0.654829
0.925679
-1.58051
1.84299
-0.800057
0.656764
-0.907109
-0.0783582
1.09222
-0.410484
-1.34199
-0.147999
-0.325962
0.271824
0.0541381
1.71658
-0.383442
-1.08792
1.58227
-0.494349
-0.300728
0.360276
-0.0595475
1.2461
0.0803076
-0.922139
-0.715804
-1.11661
1.89484
-0.77823
0.999808
-1.94897
0.949163
1.03732
1.13909
-0.291411
0.186972
0.10444
0.264287
-1.51071
1.14635
-1.73287
0.58652
0.132082
0.227136
-0.268825
1.3602
-1.03658
1.42269
-0.16202
2.61089
0.361314
-1.91862
-1.20617
0.778205
0.427965
1.38443
-0.330118
-1.05431
1.91623
-0.419733
-1.60901
-0.967742
-0.813435
1.30138
-0.157253
0.100328
0.0569253
0.678634
-0.718417
-1.5952
1.32638
1.87046
0.539147
-1.65164
0.563725
1.69216
-0.647301
0.248242
-0.121918
-0.126324
0.0154021
-1.13579
1.12039
-1.79199
0.310399
1.48159
1.61319
-1.61319
-0.987534
1.79914
-0.811601
0.0884943
0.103741
1.04441
-0.508136
-0.536276
-1.97716
2.06977
-0.09261
0.794091
-0.039399
-0.754692
0.614764
-0.192271
-0.422493
0.297815
-0.546507
0.0605119
0.958501
-2.58803
-1.5877
1.87698
-0.289284
-0.615974
1.2708
-0.244633
-0.028182
0.272815
0.66328
-0.181317
-0.481963
-0.790765
0.941716
2.92193
-2.05215
-0.869782
-0.233862
-0.971593
1.20545
-0.565481
0.60133
-0.0358491
0.37706
-0.598153
0.221093
-1.78729
0.889408
0.897885
-0.469437
-0.284148
0.207146
0.0410965
-0.038903
0.244755
-0.205852
1.25946
1.08048
-0.238961
-0.00567235
-0.177849
-0.413384
0.591233
-1.09276
1.70875
-0.615986
0.156566
0.47294
-0.629506
0.806975
-0.785661
1.21298
-0.604908
-0.608077
0.135218
-0.931251
0.452795
1.46737
0.990041
0.532604
-1.52264
1.02089
-0.775562
-0.245324
-2.02981
0.388639
-0.633377
0.294376
0.339
0.678683
1.65056
-2.32925
-1.33512
1.16518
0.133149
-1.83186
1.69871
-0.326113
0.285462
-0.205769
0.192864
0.0129053
0.129962
-0.794157
-0.1591
0.532148
-0.373048
-1.32557
-0.265058
1.22871
0.934219
-0.635914
-0.298305
-0.337753
0.0370247
0.239296
-1.34398
1.10468
0.497535
0.972245
-1.46978
0.853789
-1.37363
1.63148
-0.257851
-1.49615
1.06613
-0.112094
-0.200085
-0.730728
-0.457508
-0.61627
0.138434
0.477836
-1.8453
0.752536
1.25879
-1.49265
0.802997
0.889163
-0.802309
0.713481
0.0888284
-0.0667475
-1.99973
2.06648
0.418109
-0.630089
0.21198
0.71435
-1.63649
-1.25236
-0.195325
-0.744878
0.0391767
0.4348
-0.0542122
-0.380588
1.21374
0.089208
-0.0615375
-0.0276705
2.20656
-1.52788
-0.900424
1.72126
-0.820841
0.585049
0.426932
-1.01198
-0.670053
0.34394
-0.546044
-0.0702259
0.783371
0.261041
-0.626806
-1.14952
-0.232384
-0.0935781
1.16497
0.935857
0.237236
-1.75128
2.03207
0.197314
-0.757258
0.559945
-0.187157
-1.64584
1.833
0.379089
-0.423076
0.043987
-0.984419
0.533732
-0.702237
0.729547
1.43675
-0.786566
-0.687713
-0.177036
-0.0261986
-0.89961
0.925808
0.769105
-1.71042
-0.166099
-0.880017
1.04612
0.325491
-0.691754
0.366263
-1.25381
-0.010035
1.26384
1.55264
-1.40644
0.00581515
0.233317
-0.239132
-0.510282
-0.0551993
0.385308
0.801428
-1.18674
0.333144
-0.403367
0.0702229
1.10457
0.61158
-1.71615
-0.482548
1.96529
0.250955
0.0126608
-0.836035
-1.3605
2.19653
0.831337
1.11556
1.77876
-1.28122
-0.81678
0.548779
0.0584309
-0.197006
-0.813633
1.99958
0.206642
-1.49157
1.28493
1.56175
-0.226399
-1.33536
-0.836815
1.23855
-0.401735
0.755653
-0.8669
-0.696558
1.56346
-0.155887
0.230665
-0.0747774
-0.536698
-0.989105
1.5258
0.530209
0.133071
0.149935
-0.164782
1.0297
-1.56639
-1.36714
-0.468994
1.83613
-0.0417071
-1.06111
1.10281
0.267081
2.38629
-2.47109
0.0847985
0.451317
-0.187594
-0.263722
-0.0875282
-0.714781
0.503107
0.572935
-0.776559
-0.0702021
-1.60026
2.00684
-0.406574
0.579358
0.296301
0.0454755
1.5923
-1.85209
-0.555225
0.280571
0.00908556
-0.289656
1.06468
-0.12882
-0.500116
0.543428
-0.0433119
-0.26678
0.0784565
-2.42024
1.53465
1.74177
0.364402
-0.164856
0.541916
-0.466967
1.05202
2.47034
-1.51183
-0.506802
0.00668536
-0.312153
-1.28305
0.362125
0.591072
-0.576325
-1.8467
0.0547107
-0.397784
0.490525
-0.0724155
-1.6605
0.825884
0.834614
1.29652
0.241082
0.473703
-0.171641
-0.302062
0.714052
-0.621093
-0.0929593
-1.42562
0.515281
-2.12747
1.01086
0.731823
-1.14342
0.411601
-0.00736835
-0.419637
0.427005
1.94373
-0.0174616
-1.92627
0.474376
0.0346292
-0.509005
-0.329206
-0.598754
0.538355
-0.0718801
-0.0372337
0.0477395
-0.0105058
0.939143
-0.020577
-0.918566
0.0387324
-0.0759661
1.333
-1.25392
-0.0666847
-0.343848
0.410532
-2.02538
0.42511
-0.066283
-0.0653525
-0.50477
0.595775
0.338444
-0.223152
-0.919296
0.506054
0.438849
-0.944903
-0.723854
-0.561248
0.728629
-0.531315
0.522456
-0.460395
0.247249
-0.661509
0.619233
1.07285
-1.69208
1.16178
-0.196845
-0.964932
-0.978577
-0.41164
0.163114
-0.11937
-0.0437447
0.629192
-0.679482
0.0502906
2.18427
-0.0653178
-2.11895
0.315394
-0.101427
-0.213967
-1.04421
1.42983
-0.385622
1.17335
1.15379
-2.32714
0.133425
-0.346916
-0.673087
0.976539
-0.303452
0.495226
0.226905
-0.722131
-1.98758
1.50202
0.485559
0.0527376
-0.00499814
-1.70026
0.333125
0.715064
-0.420441
-0.294623
0.837577
-1.13479
0.297217
-0.244627
-0.421498
0.293062
2.09323
1.66033
-0.335735
-1.32459
-1.59172
0.218092
0.675335
-1.17558
1.84253
-2.89454
1.05201
-0.248364
0.658093
-0.0560924
-0.686556
0.508707
-0.363954
0.51017
-0.550132
-2.01516
2.56529
1.88453
0.718596
-1.49141
1.58702
-0.0956184
0.0660657
0.368734
-1.02757
-0.372238
-0.28409
0.318571
-0.0344812
-1.37167
1.45248
-0.0808087
-0.46264
1.1372
-0.674561
-0.204482
1.04206
-1.17576
-0.122777
1.29854
-1.62836
-0.499991
2.12835
0.843435
-0.732594
-0.11084
-0.602288
0.0172125
0.585075
0.073156
0.185042
-0.258198
-1.87759
0.086063
1.79153
0.0479054
0.454179
-0.502085
1.52741
-1.70736
0.179949
-0.896827
-0.99421
1.56767
-0.573458
0.0295732
-0.313663
-0.976297
-1.50036
2.47666
1.78408
-2.74806
-1.89223
1.65588
0.236354
0.395034
-0.0618895
1.75143
-1.70595
-0.151463
-0.263786
0.41525
-0.031953
0.407404
-0.375451
-0.217573
1.5417
-1.32413
1.31837
-0.485315
-0.833054
2.0292
-1.93136
-0.0978412
1.32452
-0.455705
-0.868817
0.0865919
-0.530539
0.443947
-0.672687
-0.0487055
-2.01769
1.75521
0.262472
0.0926073
-2.11029
-0.596413
0.765694
-0.16928
-1.01736
-1.04302
0.478977
-0.382119
-0.0968583
-1.57305
-0.452325
-0.447684
0.31943
0.128253
-1.28745
0.172537
-1.93821
1.86396
0.074251
-0.321046
0.00968908
-0.267896
0.526701
-0.0523249
-1.10007
0.156075
0.377583
-0.405359
0.0277767
1.23072
-0.552909
-0.677807
0.91292
-0.118829
-0.424422
1.26468
-0.0185738
0.723413
0.381269
-0.468974
0.0877048
-0.176151
0.91053
-1.34259
0.897561
0.44503
0.0380748
0.0146628
2.69252
-0.807991
1.50633
-1.57307
-0.329947
-0.32069
0.650637
1.31851
-2.64017
1.32166
1.20035
-1.24206
1.71207
-0.795218
-0.916851
-0.0124701
-1.14857
-0.194023
-0.986792
1.72841
-0.741614
0.0411965
-0.674096
2.59978
-2.08421
0.511164
0.0638525
-0.088517
-0.197083
0.0431615
0.331304
-0.00969771
-0.926355
-0.851009
2.25449
-0.730946
-0.17795
0.289545
-0.111595
0.0968141
0.51795
-1.25469
-1.11208
2.36677
0.631898
0.168116
-0.0123831
-0.340521
0.352904
1.64225
0.293023
-0.104829
-0.188195
1.63226
-1.01302
-0.661603
-1.91158
0.323881
-0.525377
0.0350472
0.49033
1.53005
1.88254
-1.54774
0.227277
1.32046
1.92956
0.0996379
1.28586
-1.79569
0.509837
-1.61399
0.00969414
1.6043
-1.67096
2.13398
-0.463022
0.336083
-0.0148267
-0.321256
-1.00176
2.78585
-0.42076
-0.507319
0.928079
0.0757648
-1.56717
1.08669
-0.765314
-0.321372
-1.82167
2.36918
-0.547505
-0.417157
1.18581
-0.768655
2.32529
-1.02909
-1.29619
0.0756255
-1.18577
1.11014
0.139919
0.0529447
-0.925649
2.09899
0.773706
-1.76124
1.91362
-0.913815
-0.427783
0.361099
-1.66471
0.0507187
2.07977
-0.974713
0.0351968
-2.51974
0.690122
0.0216683
1.10828
1.19575
-2.30402
1.09785
-0.342846
-0.755004
0.833162
-1.60769
0.774525
-0.39269
0.0189956
0.373694
-0.4057
-1.04933
1.45503
0.755167
-0.507917
0.0502898
0.0875283
-0.137818
0.21195
0.424564
-0.636514
0.165442
0.313535
-2.01293
2.36886
-0.35593
0.42451
-0.0454211
0.94857
0.455798
-1.40437
0.46327
1.65241
-2.11568
0.422787
0.961644
-0.0584653
2.29696
-0.0351213
1.58905
-1.55393
0.286364
-0.129799
0.111225
-0.0292597
-0.0819653
2.51116
-1.14908
-1.36207
0.825174
0.886895
0.187598
-0.0544345
-0.133163
-0.471657
1.52549
-1.05384
-0.0130283
0.411532
-0.398504
1.87557
-3.19128
1.31572
-0.643991
-0.77783
1.42182
1.54219
-0.323239
0.491329
0.606521
-0.519273
0.350513
0.168761
0.623603
-1.5952
0.00397895
-0.274148
0.270169
0.415302
-0.078395
-0.336907
-0.104967
0.244886
-0.112444
1.25484
-1.1424
-0.393854
2.18419
1.45108
-1.24827
-0.202805
1.33797
-1.04016
-0.922433
0.364246
0.558187
0.282548
-0.790684
-0.519311
0.0191666
0.500145
0.156148
0.317555
0.298951
1.45631
-1.75527
0.60323
0.335913
0.242679
-1.87104
-1.05989
0.115166
0.944726
-0.78092
-0.437937
1.21886
1.10217
-0.596115
-1.66887
1.0529
0.480708
-0.377731
-0.102977
-0.952436
2.33646
-1.38403
-0.867531
1.00275
-1.17973
0.995005
0.184723
-1.14093
2.19518
-1.05425
-0.0419944
0.504012
-0.462017
0.405299
-0.412668
-1.25283
-1.22695
2.01099
-0.784044
-1.1287
1.46937
0.975647
-1.10679
0.131145
0.250342
0.48214
-0.732482
-2.32903
1.44844
0.880583
-0.0626948
-0.206998
0.269693
-0.352688
1.30768
-1.52525
2.54756
-1.22905
-0.325932
-0.880239
-1.4146
1.37947
0.876136
0.023249
0.615173
0.198372
-0.813545
-0.754668
0.691467
0.0632012
-0.259642
1.30888
-1.04923
0.6708
0.237895
-0.908695
0.674555
-0.00991621
-0.664639
-1.34309
-0.497619
1.84071
-0.181806
0.432148
0.744176
1.76698
-1.97063
1.11575
0.854876
-0.310485
-0.234469
0.544955
0.0154114
0.438018
-0.545208
0.10719
-0.955956
0.960854
-0.290054
0.3237
0.460455
-0.373863
-1.4539
0.0822275
1.26818
-0.384761
0.0447539
0.648265
-0.0685949
0.330744
-0.262149
-1.49632
-1.12207
2.6184
-0.599238
0.0799653
-0.953354
-0.147166
1.10052
0.147186
0.544865
-0.692051
0.0317105
2.22195
-1.43731
-0.784634
0.409772
1.25055
0.199098
-0.910893
1.00032
-0.0894296
-1.26921
1.62825
-0.359031
-1.05157
-0.464715
1.51629
-1.00613
0.333041
-0.63106
-0.291373
1.86571
-0.90671
-0.958999
0.547884
-0.361716
-0.186168
0.615164
0.205466
-0.82063
-0.39405
0.441956
-0.731487
0.190975
0.540512
0.27625
-0.0702423
-0.471626
-0.0138387
1.0156
0.850107
-0.687068
1.96987
-0.717286
2.836
0.283591
0.264293
-1.593
0.541425
1.50506
-1.24078
-0.282241
-1.34873
0.304522
0.0924878
-0.688901
1.31363
-1.29823
1.67839
-0.100739
-0.422275
-0.280681
-0.332048
-0.178162
0.51021
-0.666417
-0.091623
1.53758
0.286018
-1.8236
-0.0640387
-0.502399
0.566438
-0.372752
1.06456
-1.97862
0.914068
1.63932
-0.111904
-2.4961
2.88962
-0.393513
0.428001
-0.36486
-1.90454
-0.424485
-0.483512
1.79215
-0.0369401
1.5179
2.01097
-0.738026
-1.27294
-1.17628
-0.07918
1.25546
0.486057
0.855939
-1.342
-1.42593
0.172126
-0.371906
-0.117646
0.489552
-0.959417
1.16606
0.344939
0.925992
-1.27093
-0.228137
-0.106628
0.334765
-1.79486
0.225928
1.56893
1.11828
1.42928
-0.62206
0.98391
0.340612
-0.393916
-0.23946
1.90379
-2.18201
0.303154
0.357266
-0.66042
0.429116
-0.29569
1.34646
0.0244692
-1.37093
2.0064
-2.72369
-0.00475574
-0.013395
-0.672952
1.02186
-0.348904
-2.22125
1.24495
-0.0804863
0.673348
-0.592862
-0.00923611
-0.0994509
0.108687
-0.598437
-0.385982
-0.569199
1.24453
-0.324482
1.05631
-0.352148
0.381721
-1.66586
1.44539
0.131332
-0.0756175
-0.448033
0.425102
0.0229312
0.462243
-0.516692
0.0544488
-1.17904
1.21235
0.208622
-1.16198
-0.16104
-0.665275
-0.0834728
1.1642
-1.08073
0.71345
-0.854443
0.219204
-1.4278
1.20859
-0.162711
1.81661
-1.6539
0.609881
-1.72838
-0.0119605
-0.0428492
-1.84939
0.654771
1.59971
-1.40006
-0.26881
-0.976921
-0.914006
-0.927189
0.362974
-0.171055
-0.0886627
0.259718
3.03077
-1.50072
1.49227
-0.345926
-0.505626
-0.344955
0.850581
-2.22112
1.10877
1.11235
-0.159342
-0.000517236
-1.04791
0.0536959
0.365611
-0.202589
-0.106628
-1.07302
0.652261
-0.201014
-0.163461
0.364475
-0.246857
1.78444
0.166891
0.286799
-0.45369
1.70345
-2.33289
1.03767
1.29522
0.233276
0.634072
-0.867347
0.84181
0.0461719
-0.887982
-1.12157
0.704413
1.12826
-0.096444
0.711608
1.76106
-1.94822
0.900229
-0.405003
-0.704613
1.32822
-1.65373
1.17272
0.48101
1.72271
-3.20715
1.48444
-1.31031
1.47816
-0.16785
0.692275
-0.868426
0.0265017
0.321025
0.52241
1.06778
-2.37449
1.02666
-2.91637
1.93619
0.980179
0.436541
-1.61282
1.14778
-0.00520781
-1.23019
0.252911
0.450772
2.07552
-0.744388
-1.33113
0.274097
0.471179
-1.2521
0.364554
-1.78477
1.70559
-1.41443
0.54753
0.888113
-1.21422
0.485918
0.728306
-1.92578
1.11286
0.812923
-0.390341
-0.174007
0.499498
-2.00588
1.42053
0.585349
1.73852
-2.74029
-2.01661
0.00368119
2.88417
-1.04164
0.236432
-0.0143568
-0.222075
-0.055053
-0.336151
0.391204
0.230328
0.803944
1.02443
-0.539864
-0.674361
0.247797
0.50737
0.355383
0.775335
-1.13072
0.839763
-0.48418
-0.0526694
-1.93926
1.99193
-0.662678
0.551391
-1.31979
-1.31155
-0.911083
2.22263
0.500525
-0.747475
-1.41854
0.423296
0.995247
-0.0071663
0.0409753
-0.033809
1.8452
-2.39533
0.248987
-0.92194
2.45499
0.496769
-2.95176
-0.262098
0.0841477
-1.67282
0.479305
1.19352
-1.51856
0.87457
0.327868
-1.59708
-0.400263
0.703417
-0.0113719
0.00420558
-0.0617588
1.62351
-1.14147
1.52338
-0.38191
1.56171
0.00578302
-1.56749
-0.8968
-0.0223649
-0.358159
0.0975656
1.51562
0.293363
0.0669129
0.673121
0.316849
-0.228355
0.979421
0.821737
-1.08138
-1.82051
-0.117705
-1.53884
0.462074
-1.75705
0.373764
0.413739
-0.787503
1.66945
0.108085
-1.77754
-0.253133
0.238306
-0.72299
-1.40448
-1.49287
-0.284357
-0.832491
2.83889
-0.673691
0.981169
-0.307478
-2.10126
0.604935
-0.63433
0.989714
-0.863015
-0.797483
-1.00632
-0.479858
0.544382
0.486033
0.744683
2.06101
-0.26886
1.06013
-0.0960282
-0.964101
-0.00843582
1.15076
0.576453
1.9765
-1.84335
-0.113333
-0.471911
0.708392
-0.910601
1.07295
-0.972594
-1.55223
0.493942
0.354122
-0.848064
-1.65444
0.0412516
-0.300057
1.54066
-1.24061
0.0394929
-2.5356
-1.23091
1.47798
2.69415
-1.28991
-1.40424
-0.160191
0.454568
1.28072
-0.518323
-0.762399
0.569868
-0.64011
0.0618431
0.0493819
-0.259206
-0.0609164
0.320122
-0.186898
0.802071
-1.0701
2.80863
-0.00956867
-0.37255
-0.55295
-0.223701
0.776651
-0.191598
2.0368
1.48788
-0.765041
-0.722839
-0.796751
1.18206
0.712001
0.813493
-1.0603
0.000410912
1.1325
-0.446632
-0.685871
-0.0352429
-0.0324016
0.0676445
0.262306
-1.39685
1.13454
-1.80146
0.308587
0.466701
-1.29393
1.756
-0.0301335
0.600001
0.308393
-0.982084
-1.68344
0.870004
-1.92105
0.575178
-0.956791
0.166027
-0.651821
-1.10418
1.756
-1.68115
0.162041
-0.30505
0.143009
1.85951
-1.50455
1.42392
-0.937861
0.18169
1.0659
-1.24759
0.23138
-0.603286
-0.99383
-0.714916
1.70875
-0.756317
-0.529529
1.28585
-1.88151
2.7289
-0.84739
1.27106
-1.05289
-0.218173
1.27286
0.0478669
-1.32073
-0.965441
-1.36745
-0.617996
-0.126882
0.879671
1.29844
-0.0174295
0.226772
-0.209343
-1.33062
-0.342205
1.21292
1.05309
-1.06458
1.32104
-0.256452
0.203756
-0.308584
-0.141474
0.366623
-0.225148
0.36626
-0.199369
-0.20374
-1.80214
-1.981
0.448854
0.0318549
1.37833
-1.24141
0.179431
1.34667
-1.5261
-0.964751
-0.135319
0.897742
0.945245
0.14525
-0.579832
-0.237342
-0.00560923
0.242952
-0.0140188
-0.672411
0.68643
-0.056982
0.43482
0.822214
1.68022
-0.832765
1.4286
-0.877207
-0.250156
-0.528331
0.778487
1.41663
0.239029
-0.0421147
-1.37192
0.966216
0.770667
-0.962265
-0.638626
-1.41623
2.05485
-1.0631
-1.15801
-2.05393
2.08033
-0.0263969
-0.095257
-0.542842
0.36468
1.07949
0.600735
0.440307
0.99607
-1.43638
-0.538574
-1.03223
-0.602521
-1.03883
1.64135
0.781253
-0.149355
0.366516
-0.362537
1.08823
-1.81122
0.763491
-0.670309
-0.923352
1.63089
-0.707539
0.811008
0.731823
0.712938
-1.44476
2.0098
-1.09665
-0.913145
-1.53646
-1.04841
1.85068
-0.802272
0.204093
0.856036
-0.625252
0.595118
0.81891
1.50638
-0.468114
0.413061
0.0475409
0.0416671
1.79563
-1.01077
1.13331
1.89746
-0.857225
0.474774
0.38245
0.38051
-0.710457
1.3653
-0.0188481
0.352564
-0.116132
-1.19591
-0.199922
1.39583
0.402378
-0.0412521
-0.361126
0.355692
0.0956243
0.239831
-1.91079
-0.610384
0.740347
1.23719
-1.16868
-0.0685186
0.378077
0.754425
-0.33312
0.161479
0.631652
0.394639
-1.02629
-0.553376
1.94558
0.0153973
-0.951572
1.92402
-0.972444
-0.396069
0.608019
0.0864423
-0.314579
2.07406
-1.07746
-0.678855
0.0553361
0.786474
0.652202
-0.813242
-0.39332
0.351326
-0.559445
-0.314933
-0.0228201
0.65892
-0.363904
1.544
-1.18009
-0.338339
0.299436
-0.453009
0.189222
-0.69775
0.0797538
-2.15236
1.31633
0.561459
0.41508
0.370648
0.934393
-1.30504
0.298716
0.180879
1.41381
0.842464
-2.25628
-0.253779
-0.0222744
0.276053
0.510666
-1.41109
1.89222
0.801926
1.46742
-1.28799
-1.86204
0.0830099
0.0266003
-0.245376
0.831658
0.631213
0.744747
-1.37596
0.892633
-0.179183
-0.0527028
-0.628154
-0.229071
-1.06312
-0.620167
0.902715
1.04159
0.679677
1.00669
-0.986452
-0.0202356
0.414098
0.0110038
-0.123291
0.532871
-0.0706277
1.38549
0.332861
-1.71835
0.200472
-0.401486
-0.487226
0.299295
0.187931
-0.712932
-0.040948
0.75388
0.439852
1.07517
-1.51502
0.402856
0.699313
1.2545
-0.0402104
-0.55989
0.215637
0.101213
-0.160378
0.347244
-0.186866
-2.1391
0.865101
1.58539
-1.20997
-0.37542
0.0346666
-0.314227
0.27956
1.50398
-1.61642
0.738909
0.0423439
0.743405
0.680513
-0.306878
-0.00805524
0.13422
0.387252
-0.521472
-0.882177
-0.274162
1.99811
-1.0268
-0.971313
0.626105
0.114866
-0.740971
0.892729
-1.39213
0.499397
0.195329
0.96037
0.131845
-0.112503
2.21452
-2.10201
0.437314
-0.303094
-1.07289
-0.0605038
0.347302
1.52235
0.00466568
-1.52702
-1.46857
-0.358513
0.289918
-0.0909667
0.0365322
0.44542
0.576436
-1.22616
0.763519
0.00579448
0.102576
-0.117231
0.238002
-0.798304
0.979994
-0.000517688
0.59159
-0.137014
-0.190454
1.10369
-0.0354082
1.0421
-0.469952
-0.271208
-0.387233
1.01888
-0.192486
1.56941
-1.37692
-1.45152
-0.248739
-1.31696
3.03511
-1.71814
-0.382845
0.322341
0.672223
-0.111003
-0.0298953
-0.528302
0.558197
-1.59393
0.51647
0.300724
-0.294908
1.30927
-2.56395
1.08266
-2.44316
-1.5397
1.37277
-0.907343
1.0378
-0.643166
0.0180507
-1.04876
1.31107
0.000205637
-0.328046
0.136621
-0.869215
-0.259988
-1.08887
1.34886
-0.564066
1.58872
2.88098
-1.90271
-0.978278
-0.433247
0.181102
0.486413
0.0420069
-0.528419
-1.5036
0.362129
0.422352
-0.0070499
-0.0115989
-0.280871
0.29247
1.66655
-2.98352
0.190728
0.834538
0.139587
-0.974125
-1.76979
1.5773
0.314333
0.0784745
-0.392807
0.805052
-2.032
-0.30876
0.000863681
0.307896
0.405409
-0.0910768
-0.000609949
1.37927
-0.956479
1.05694
1.01734
-0.614486
-1.84399
0.532448
-1.18659
1.04973
0.136858
1.35228
-1.99091
-0.999061
-0.533793
1.53285
-0.106452
0.853782
-0.624237
0.584838
1.94414
-0.285171
-1.65897
-0.0161203
-1.80439
1.16384
0.109024
0.757128
0.523594
-0.338251
-0.0022699
0.319487
-0.426705
-0.766585
-0.0178571
-0.0308862
0.0487433
0.0155498
-1.33815
1.3226
-0.3223
0.81389
-0.49159
1.21124
-2.46612
1.25487
-0.0611245
-0.998403
-0.0561024
-0.0793947
1.20501
-0.711411
-0.349127
1.06054
-0.727143
-0.598427
0.902112
-0.54799
0.220102
-0.143712
-0.0763901
1.48569
-1.11504
-1.59635
-0.184597
-0.173442
0.358039
0.556807
0.211932
-0.768739
0.606358
-1.48132
0.874964
0.179779
-1.06782
0.309312
-2.13099
-1.22531
-1.12082
2.34613
-1.68421
0.0614066
1.62281
-1.97914
-1.43761
0.127304
-0.66656
0.635623
0.0309369
-2.72372
-0.584595
1.97008
0.795938
-0.357088
0.249549
-0.636782
-0.259703
0.959016
0.314674
0.227264
-0.780214
0.0351553
-0.304469
0.269314
-0.250524
-0.0269089
-0.20614
0.240807
-0.668971
0.902246
-2.05268
1.198
0.854677
0.869666
-0.363033
0.827563
0.433186
-0.0308077
1.63214
-1.19184
-0.932399
-0.486144
-1.06854
0.325705
0.74284
0.081185
-0.22582
0.144635
-0.906209
0.89219
-0.194273
1.38169
0.792546
0.695333
0.816979
-1.54412
0.776584
-0.923745
0.147161
0.260143
-0.0268264
0.226567
-0.0395953
-1.74044
1.08862
-0.0877462
0.713851
0.0260193
-0.414172
0.388153
-2.79552
1.05874
-0.00671709
0.135512
-0.38906
-0.0366541
-0.447372
0.484027
-1.09777
0.386364
-1.92663
1.72289
3.37227
-0.917279
-0.523019
0.488783
0.0342354
0.385248
-0.376162
-0.320359
-1.60841
0.915011
0.693403
-0.309998
0.287723
0.0259884
0.711841
-0.737829
0.626865
0.112044
0.176715
0.273046
-0.449761
-0.606309
0.605792
0.236051
-0.103969
0.826141
-1.93358
1.82553
0.104037
-1.16908
0.0288626
1.66263
-0.0873539
-1.57528
-0.0454896
0.273596
-0.228107
0.811992
-1.73835
-0.229616
-0.724147
0.953764
-0.0544668
0.00909096
0.0453758
-1.72223
1.76651
-0.0442884
-0.798125
1.01733
1.10536
0.213008
2.07425
-0.761348
-1.3129
-0.177084
-0.3796
0.556684
-0.114316
-0.653743
-0.0189434
-0.616903
-0.0368407
0.169465
-0.573921
0.404456
-0.179711
1.68778
-1.50807
-1.40284
0.374333
1.02851
0.459271
1.48446
0.029949
0.162925
-0.192874
1.08179
0.448585
-1.53038
-0.0319953
-0.13906
-0.70885
1.54907
-0.840223
-1.39814
0.202233
1.11425
0.479358
-1.47842
-0.00254937
-0.230407
0.232956
1.82576
-0.58503
-1.24073
0.808401
0.474116
-1.8323
0.981294
1.726
-1.77867
-0.892655
0.105041
0.787614
-0.00428595
-0.158288
-0.108526
0.266814
-0.104208
-0.343265
0.447473
-0.0163486
0.254943
-0.238595
-0.595297
0.597825
-0.00252787
-1.05446
2.14269
-0.595863
0.569664
0.640774
-0.614786
0.617881
-1.07346
0.455577
-0.91584
-0.737892
0.244581
-0.171425
-0.0968849
-0.00454899
0.101434
1.69125
-0.84772
-0.843528
0.0974667
1.13973
-0.478155
-0.276514
-1.11295
0.213345
0.882509
0.676796
-1.55931
-0.0292449
-0.0107795
0.0400244
-0.00782666
0.721879
0.583741
-0.579354
-0.00438686
2.81693
-1.77989
-1.03704
-2.62815
0.61299
0.24501