/*--------------------------------*- C++ -*----------------------------------*\
| =========                 |                                                 |
| \\      /  F ield         | OpenFOAM: The Open Source CFD Toolbox           |
|  \\    /   O peration     | Version:  2306                                  |
|   \\  /    A nd           | Website:  www.openfoam.com                      |
|    \\/     M anipulation  |                                                 |
\*---------------------------------------------------------------------------*/
FoamFile
{
    version     2.0;
    format      ascii;
    arch        "LSB;label=32;scalar=64";
    class       volVectorField;
    location    "5.5";
    object      U;
}
// * * * * * * * * * * * * * * * * * * * * * * * * * * * * * * * * * * * * * //

dimensions      [0 1 -1 0 0 0 0];

internalField   nonuniform List<vector> 
13486
(
(3.35834 -0.745513 1.5592e-18)
(3.49046 0.141372 1.00233e-18)
(5.18231 -0.0221877 0)
(6.03472 -2.47925 -1.4833e-17)
(5.67157 -0.279327 -1.31371e-18)
(4.61721 0.320875 -2.17436e-19)
(5.66239 1.28523 -9.38488e-20)
(4.84823 -1.51845 3.60503e-19)
(4.42072 -0.721808 0)
(3.74249 0.933772 0)
(-0.913929 0.180091 -1.77271e-18)
(4.45539 -0.105872 0)
(3.12027 -1.11148 -1.51635e-18)
(4.34472 1.19688 -4.39432e-19)
(5.11083 0.635671 -5.12367e-19)
(3.68662 0.906905 -1.01868e-18)
(-1.08755 -0.219699 5.83691e-19)
(-0.626135 1.58454 -2.76863e-19)
(4.03409 -0.0158096 5.85663e-21)
(3.59305 -0.385876 -1.66897e-18)
(4.01013 0.577372 -7.24832e-18)
(3.16006 -1.14439 1.98212e-18)
(3.5252 0.128564 -7.96589e-19)
(6.05317 2.01971 0)
(3.86654 0.771213 3.61323e-19)
(6.34478 2.24893 -6.19151e-19)
(2.46732 -0.904071 1.7945e-18)
(6.20697 -0.0173445 1.57699e-18)
(3.60661 0.816272 0)
(6.66093 0.0340058 -2.14273e-18)
(-1.33829 6.09349 -5.79543e-18)
(4.20148 0.658201 1.40016e-20)
(5.80929 0.702529 5.39013e-19)
(5.62184 -0.487259 0)
(4.86105 -1.42865 0)
(3.15978 0.0391763 1.86147e-20)
(3.43838 -0.36012 -1.59271e-19)
(3.72551 -1.71584 4.27235e-19)
(4.07204 -0.783052 -4.62976e-20)
(4.32045 -0.452535 4.68021e-19)
(7.39589 -1.16901 0)
(2.55427 -1.25282 -1.82291e-18)
(4.45739 0.0256557 0)
(3.92064 0.64728 -1.65738e-18)
(3.94004 0.629732 6.89894e-19)
(4.43013 -0.110102 2.9046e-19)
(-2.36264 -0.398525 6.23155e-18)
(3.47309 0.691641 1.7544e-20)
(3.41543 -0.346053 1.2164e-19)
(5.35913 0.210145 1.73947e-19)
(3.99808 0.00357259 1.23685e-18)
(4.26658 -0.240231 0)
(4.06055 -0.279954 -6.80807e-19)
(3.8641 -1.40107 -6.924e-19)
(-1.67897 1.47694 0)
(5.52356 -0.357873 6.35052e-19)
(4.09123 -0.260376 6.80146e-20)
(4.36419 -0.441022 -2.82813e-19)
(5.78098 0.664006 7.30748e-19)
(3.50646 -0.488372 0)
(-1.18624 1.55893 -1.63532e-18)
(3.54509 -0.511135 0)
(7.3055 0.984643 -1.3183e-18)
(3.77079 0.768911 -8.54004e-20)
(-1.6622 4.50534 0)
(3.45305 -0.400137 -7.78706e-20)
(5.0125 -2.50496 -1.32618e-17)
(3.23056 -0.288901 6.15939e-19)
(4.43845 -0.778682 -1.63927e-19)
(3.17406 0.0393245 6.07904e-20)
(5.95216 -2.72108 1.53131e-17)
(-1.30995 1.25816 -7.13507e-20)
(4.25654 -0.26791 4.42037e-19)
(-0.769366 2.32356 -3.68746e-19)
(3.42786 -0.463526 -1.69892e-20)
(4.13705 -0.345885 -1.47801e-20)
(3.40578 -0.457223 6.19155e-20)
(5.18323 0.663894 2.30863e-19)
(-2.82983 -1.29605 -2.94166e-18)
(4.48166 -3.58742 0)
(3.49207 0.102553 -4.05706e-21)
(3.38373 0.267108 -6.44513e-20)
(6.80567 0.262974 -2.08725e-19)
(5.27054 -0.0890026 -4.3589e-20)
(3.35754 -0.745609 -3.06553e-18)
(2.58033 1.92819 0)
(2.83057 -1.36825 1.41489e-19)
(4.0033 0.0251893 -1.95147e-18)
(3.82725 0.103798 -8.13424e-19)
(3.38631 1.2584 -1.41658e-18)
(3.67629 0.39254 -2.49961e-19)
(5.15387 -1.11676 3.3741e-19)
(3.49168 -0.881729 3.73274e-19)
(3.56772 -0.181976 4.80144e-20)
(4.35536 -1.24167 5.50366e-20)
(3.46394 0.501451 -5.08753e-21)
(3.00207 -0.835089 0)
(4.07401 -2.64215 6.7207e-18)
(4.34868 -0.436467 -8.98644e-19)
(-1.68264 -0.593171 4.62888e-20)
(3.4838 0.0514399 0)
(4.32351 1.19156 -1.73266e-19)
(3.37579 -3.01563 6.66894e-20)
(4.29745 -0.365759 3.30337e-19)
(2.53607 1.79677 0)
(-1.99365 -0.673142 8.15613e-20)
(4.01935 -0.0323865 -3.06627e-21)
(4.09589 -0.917076 -9.84978e-20)
(-2.76838 -1.46706 3.8655e-18)
(5.09996 -2.14938 0)
(3.82708 -1.76988 0)
(4.3204 1.32281 4.72357e-19)
(3.88469 -1.35136 1.41107e-20)
(5.26378 -0.214784 -1.52918e-20)
(2.6902 -0.552731 0)
(3.63125 -1.76369 -3.11507e-20)
(3.83949 0.792734 0)
(6.17044 -0.527627 0)
(4.24521 -0.240916 0)
(3.38396 -0.277135 -9.2935e-20)
(-0.414443 0.85708 9.83118e-20)
(-0.86021 0.847448 0)
(4.25777 -1.11867 0)
(4.10517 -0.791628 1.56349e-19)
(4.53174 -1.45321 0)
(4.28399 -0.227369 0)
(4.75094 -0.182177 8.4679e-22)
(4.21221 0.0976381 8.22575e-19)
(5.44985 -0.533267 -2.81678e-19)
(0.898431 3.53671 -4.17251e-18)
(4.13815 -0.170285 -3.43128e-20)
(-1.35466 -0.373959 -1.65564e-18)
(0.906905 3.19516 1.01837e-18)
(0.271828 -0.352049 4.28325e-19)
(3.99819 -0.000676619 -1.93854e-19)
(3.74359 0.432418 -1.13623e-18)
(1.87071 0.520824 -6.55835e-19)
(5.03997 -2.04299 0)
(3.35649 -0.252434 2.95285e-20)
(4.82193 -1.06324 4.0114e-20)
(5.70656 0.532403 -6.66214e-19)
(4.01663 -0.229419 5.88489e-19)
(4.13328 0.224383 0)
(4.74674 -3.17246 0)
(4.89286 0.0895698 -2.60934e-20)
(6.07676 -0.388735 -5.18175e-19)
(3.5423 -0.687938 -1.06468e-19)
(1.0729 1.52366 0)
(5.36607 0.285504 0)
(3.69036 0.786443 0)
(4.01899 0.00271757 2.51958e-20)
(5.56646 0.416925 0)
(3.52457 0.0811715 4.26861e-21)
(3.33295 0.241324 -5.64402e-19)
(4.16782 0.448776 0)
(5.57098 -0.0355942 0)
(5.11766 -2.24644 0)
(5.56466 4.91631 5.04083e-18)
(4.13264 -1.59379 5.6527e-19)
(3.44703 -0.527918 -9.74092e-21)
(5.19709 0.128152 -5.45968e-20)
(4.16216 -1.51682 -8.34437e-19)
(2.81941 0.942161 3.38118e-19)
(2.35244 -1.11884 7.90606e-19)
(4.39782 -0.310154 0)
(4.51191 1.26941 3.99319e-19)
(4.281 1.05804 1.13574e-18)
(1.69121 -0.726615 -2.39211e-18)
(3.46042 -0.69722 2.69696e-19)
(0.336036 -0.292075 1.26697e-19)
(0.969348 3.19348 3.24428e-19)
(4.15996 0.393981 6.53011e-19)
(3.98959 0.0595167 -1.83093e-18)
(4.6793 0.139366 -2.80915e-21)
(3.4728 0.208707 -7.74519e-21)
(-4.33626 -0.061398 0)
(4.1575 1.61094 -9.51343e-19)
(5.71339 0.613547 7.92108e-19)
(4.03403 -0.0289212 -1.71224e-18)
(4.16706 0.152799 0)
(4.48432 -0.486584 6.41256e-19)
(5.39819 -0.0805709 -3.26129e-20)
(4.51478 0.21596 1.58743e-20)
(0.777445 -1.04321 0)
(4.90401 -0.295301 1.33047e-19)
(5.63957 0.0121662 -7.04754e-19)
(4.32147 0.831871 1.11672e-20)
(6.24594 -0.26105 -5.00701e-19)
(7.1469 -1.13679 0)
(3.37621 -1.59565 -1.5952e-19)
(3.37111 -0.330687 0)
(5.28529 0.0355672 0)
(4.52756 -0.684738 0)
(2.78506 0.806768 -1.32679e-18)
(4.69929 -0.850563 0)
(-0.676429 0.286464 -5.24644e-19)
(-0.985568 4.24825 9.4129e-18)
(5.40468 0.097423 1.04123e-20)
(3.13873 -1.53405 -2.43389e-19)
(4.50494 1.19739 3.2935e-19)
(-1.49932 5.98816 5.8636e-18)
(4.23009 0.136979 -2.58472e-20)
(3.62329 -1.72242 -4.97851e-19)
(5.71896 -2.05912 -9.87356e-19)
(3.2982 -0.476008 1.14751e-20)
(4.80187 -0.807417 -3.38625e-19)
(-0.68265 2.68813 -7.10607e-19)
(4.0671 -0.230451 1.11531e-18)
(4.45481 -0.693745 0)
(4.99583 -0.253953 0)
(6.33403 -0.113754 1.39856e-18)
(8.0386 3.04706 3.24371e-18)
(3.62354 -0.351881 1.52046e-18)
(3.9968 -0.029199 -2.21839e-21)
(4.61363 0.380064 2.50364e-19)
(8.02916 -2.86834 1.08702e-18)
(6.49603 0.0961471 0)
(3.42244 1.21251 3.1067e-18)
(3.67704 -0.888783 0)
(5.49112 1.75328 0)
(-1.45311 -0.327566 -1.03092e-18)
(5.3789 0.358258 0)
(4.75545 -1.08191 -1.36356e-19)
(5.20688 0.138997 0)
(3.95023 -0.515609 -1.50706e-19)
(3.18006 -1.48363 4.82617e-19)
(4.76501 0.688887 2.15642e-20)
(-5.55946 4.6515 2.90874e-18)
(6.27892 -2.25875 1.48747e-19)
(3.05085 -1.39254 -1.92478e-20)
(4.48533 -0.462753 -2.13579e-19)
(8.66591 2.05799 7.60859e-18)
(5.71854 0.59957 8.29525e-19)
(2.56833 -1.25707 6.3914e-19)
(2.00426 -0.990074 0)
(2.97431 -1.4337 5.15012e-20)
(6.15872 -0.450296 9.96506e-19)
(5.30065 0.0392522 -1.07734e-20)
(2.82363 -1.349 1.40947e-18)
(4.50195 0.10223 0)
(5.8133 0.71158 0)
(4.00059 0.0444823 2.7819e-18)
(5.68049 0.0836553 0)
(2.74247 -1.35557 4.29235e-19)
(3.84675 -0.889685 -5.55445e-20)
(3.81394 -0.107552 0)
(4.49349 0.0326178 -5.35513e-20)
(6.9307 1.02916 3.15454e-18)
(-0.0138453 0.333205 9.74242e-19)
(3.88513 0.586876 0)
(0.725955 -1.83481 -1.63813e-18)
(2.63303 -0.503616 2.6632e-19)
(3.35089 -1.62466 -4.93136e-20)
(4.13883 -0.93124 0)
(5.47193 -2.42655 4.92216e-19)
(-3.80689 0.374731 5.96151e-19)
(4.13119 0.623628 1.11697e-19)
(7.96049 -3.23698 -1.38667e-18)
(6.82375 5.43058 -4.85835e-18)
(5.88206 0.760291 5.15211e-19)
(3.69204 0.103592 0)
(3.82441 -0.866971 -8.12017e-21)
(5.03484 0.641212 1.13791e-18)
(-3.7626 0.0650419 -7.39653e-19)
(5.66352 -1.23831 1.34024e-18)
(0.815633 -1.17097 0)
(6.1675 -1.93641 -1.16406e-18)
(-0.42502 4.94584 -8.70995e-18)
(4.43545 -0.014222 -5.87423e-19)
(0.605737 -1.04411 0)
(3.04967 1.04212 1.08526e-18)
(3.99735 -0.0177261 -4.88741e-19)
(6.52488 0.133331 0)
(4.32109 -0.254756 3.12523e-19)
(3.17696 -1.51322 6.3681e-19)
(6.8699 0.934057 -1.80813e-18)
(5.37765 -2.16792 0)
(-3.7448 1.84476 0)
(4.19884 -1.08176 -1.3382e-19)
(3.67123 -0.679889 2.16871e-19)
(-2.79622 0.600347 6.8034e-18)
(4.56139 -0.202983 -2.23265e-19)
(3.97896 -0.0243239 1.03381e-18)
(4.53177 1.08789 2.8153e-19)
(-0.0501258 0.291314 2.16496e-18)
(0.00263913 -1.39046 2.17336e-18)
(5.60023 0.62957 5.54362e-19)
(5.09832 -0.552483 3.67957e-19)
(4.27575 -0.525572 2.41515e-19)
(4.29158 0.00335001 0)
(2.64838 -0.496836 0)
(3.53462 -0.567332 1.96243e-20)
(3.67385 -1.73599 1.28999e-19)
(3.99914 0.00507389 -1.88926e-19)
(6.21058 -0.439581 9.47943e-19)
(6.23375 -0.360903 0)
(4.88895 -0.00714979 3.66893e-21)
(4.41507 -0.259714 -2.68361e-19)
(3.9911 -0.0470153 -9.32275e-19)
(6.62773 0.779674 -2.41198e-18)
(3.00219 0.853189 -3.87305e-19)
(-0.741529 2.68268 1.71423e-19)
(3.76955 -0.683971 -1.8738e-19)
(4.30103 0.652329 2.27432e-20)
(3.44364 -0.255456 2.85272e-20)
(5.17045 -2.34303 0)
(8.33634 1.19514 0)
(4.18917 0.00338335 1.04692e-19)
(3.00897 -1.53112 -9.99011e-20)
(3.39878 -0.347893 0)
(3.37352 2.59142 -5.09751e-19)
(4.90526 -2.11052 0)
(4.04087 1.51689 5.90743e-19)
(4.25493 1.27876 2.7813e-19)
(-0.553396 0.950203 0)
(3.7167 0.397887 -7.34169e-19)
(3.55564 -0.573101 -2.88485e-20)
(3.80163 0.0889895 -7.02322e-20)
(4.03536 -0.223454 -1.27111e-18)
(6.47486 -1.78019 0)
(3.42324 -0.397246 1.41619e-19)
(3.66905 -0.598391 4.08329e-21)
(4.03586 -0.0115832 2.17659e-19)
(3.54902 -0.0817686 -9.20693e-19)
(1.99884 0.485627 1.16042e-18)
(3.78157 0.471925 5.9271e-19)
(4.99935 -0.195624 9.47719e-19)
(4.59042 -0.203526 0)
(4.61427 -0.354961 -2.34222e-21)
(5.09157 -0.113854 3.72447e-19)
(4.00365 0.000756831 2.82642e-18)
(5.29157 -0.954299 0)
(3.43971 0.425115 -1.86293e-19)
(3.14278 0.208341 0)
(5.78511 1.33056 3.92279e-18)
(4.49085 -1.06669 -7.74495e-20)
(2.13623 -1.02879 8.16571e-19)
(5.58316 0.385326 1.29027e-18)
(3.993 0.167047 0)
(3.76433 -0.827733 -6.23006e-20)
(6.3148 -1.83154 1.20166e-18)
(3.54123 -0.0988281 8.68276e-19)
(5.16357 -0.0746949 -1.10311e-18)
(4.53862 0.234942 4.45207e-20)
(1.03738 -2.21537 -2.3526e-18)
(3.51317 0.630411 -2.05911e-21)
(4.67034 9.56293e-05 0)
(2.65512 -1.0273 1.95559e-18)
(5.53612 1.79696 0)
(3.55148 -0.583821 -5.36566e-21)
(4.60584 0.0146636 3.20479e-19)
(4.49046 -0.3482 -3.04782e-19)
(4.33488 -0.249045 2.72204e-19)
(2.69576 -0.561078 -2.29028e-18)
(3.99855 -0.0376625 1.15717e-18)
(3.40545 0.0325232 0)
(-0.972112 2.32279 -3.1459e-19)
(4.73713 -0.122894 -1.98163e-20)
(3.20374 -1.4663 3.37169e-20)
(7.65453 2.71505 2.57217e-18)
(4.73611 -0.0279237 0)
(3.62987 0.2211 5.63278e-19)
(3.7546 -0.0108255 1.92016e-18)
(3.99268 -0.0202026 1.49719e-18)
(6.7158 0.0850191 0)
(3.56217 0.0524899 1.00399e-22)
(6.29068 -0.333101 -9.35937e-19)
(-0.61263 0.691211 8.19385e-19)
(3.56356 -0.402157 2.11001e-19)
(4.71549 -0.125432 1.87819e-20)
(4.6008 0.0313362 1.54812e-20)
(4.65809 -0.0735851 0)
(4.00356 -0.617129 -5.62113e-19)
(0.389634 -1.42179 1.18469e-18)
(4.51894 0.687572 -5.46218e-19)
(3.99821 0.00893778 1.02562e-18)
(3.06004 0.0278574 0)
(3.65337 -0.632773 -4.66161e-20)
(0.092751 0.492218 0)
(5.06063 2.5408 -8.8507e-20)
(4.47265 -0.028682 0)
(5.30846 -1.33052 -4.79392e-20)
(3.14573 -0.589308 -4.66881e-19)
(3.06712 0.89661 2.42016e-18)
(-1.47627 0.461313 -4.07358e-18)
(5.57002 -2.06692 0)
(4.38663 0.103261 -8.03409e-19)
(3.99797 0.180705 -8.01683e-19)
(-2.06353 1.22296 -4.9142e-19)
(1.52039 3.74709 9.15284e-19)
(3.6628 -0.36161 -2.27279e-18)
(6.3479 0.165098 7.07796e-19)
(4.06438 0.218154 6.58543e-19)
(3.48601 -1.14052 0)
(3.06413 0.0611389 1.0858e-18)
(3.2964 -0.259412 -1.00923e-19)
(5.1597 -2.31967 8.18345e-18)
(0.488534 -1.65559 -4.48665e-18)
(-2.31952 1.04499 -8.84458e-19)
(5.67974 0.60431 0)
(-2.34677 1.28222 0)
(3.57399 1.58985 0)
(4.45861 -0.0966776 0)
(8.00792 -0.255602 -4.4902e-18)
(5.3808 1.43261 0)
(2.61298 -1.06107 0)
(3.60994 -0.114975 3.46366e-19)
(5.73826 0.634079 -8.29148e-19)
(4.6227 -0.0872061 -2.01598e-19)
(3.54615 0.19171 3.44761e-18)
(4.0119 0.0211015 -4.03695e-19)
(3.72739 2.36341 0)
(6.12995 0.25761 0)
(3.9769 -0.0560339 9.97843e-19)
(3.99699 0.0248796 1.76159e-19)
(2.745 0.852911 0)
(1.12235 -1.31576 2.54186e-18)
(5.67888 -1.29584 -1.52249e-18)
(0.372903 3.40257 0)
(4.52528 0.110838 1.66287e-19)
(4.03047 -0.0289667 -1.16006e-18)
(2.78426 3.08376 3.74212e-19)
(2.63611 -1.01412 0)
(3.97942 0.176332 1.43519e-18)
(4.90543 0.4636 0)
(6.29955 -0.256305 0)
(4.23538 0.284191 -1.23918e-19)
(3.96342 -0.0293497 5.57782e-19)
(2.74303 -1.00692 -2.30409e-18)
(4.22791 1.02507 3.72264e-19)
(3.24565 -0.965152 -7.42876e-19)
(4.44749 -0.0788944 6.70061e-20)
(4.07654 0.232073 5.29713e-19)
(4.35611 -0.633153 1.41416e-18)
(6.00642 -1.15067 0)
(6.50808 0.990627 1.26975e-18)
(3.12919 -0.489261 0)
(3.60479 -0.606832 1.92543e-20)
(4.66198 0.0990828 0)
(3.27013 -0.255915 1.30142e-18)
(-3.36048 0.936943 -3.82794e-18)
(6.36747 0.110557 0)
(-0.46379 -0.495665 1.67748e-20)
(6.16853 0.268816 -1.26178e-18)
(3.26426 -0.909798 1.3112e-19)
(4.02336 -0.640034 1.56974e-18)
(2.87766 0.824176 -1.5611e-18)
(3.21125 -0.96354 -2.17851e-18)
(5.30713 2.56596 0)
(3.3943 -0.282241 8.3275e-20)
(1.12972 -2.0535 -5.1718e-18)
(3.98016 0.194721 0)
(3.78285 0.109542 7.60337e-20)
(5.24359 0.113494 -3.99317e-20)
(4.53744 1.92803 0)
(4.00459 0.00209315 0)
(3.46643 -2.1415 0)
(-4.94132 1.00431 3.1839e-18)
(3.91755 1.3885 -3.3799e-19)
(5.57045 -0.389346 -1.69362e-20)
(4.01052 1.46819 0)
(3.85288 -0.525885 1.27985e-18)
(3.43881 0.193277 1.68441e-20)
(4.23541 0.951873 -8.89313e-19)
(5.25718 -0.973885 1.40748e-17)
(3.88703 0.0611917 0)
(3.53744 0.734139 0)
(2.16715 -0.689611 -1.45808e-18)
(3.42621 -1.1181 -4.77332e-19)
(4.28838 -0.337452 0)
(4.16962 -1.9448 4.91182e-19)
(3.5726 0.0491484 -1.25307e-20)
(3.52615 0.461311 6.87081e-21)
(2.33307 -1.1198 0)
(4.81283 -0.450521 5.39432e-19)
(3.35 -0.237307 8.77263e-20)
(4.90821 0.421734 -2.6355e-19)
(4.46677 -1.14594 0)
(-0.627805 -1.35537 -3.26193e-18)
(4.43588 -0.305641 2.92359e-19)
(3.98878 0.0562752 2.78771e-19)
(3.34336 0.0106776 4.45298e-20)
(4.63832 1.29305 0)
(3.51306 0.201064 -9.20011e-19)
(5.65766 1.2092 -2.53615e-19)
(-2.15634 0.68466 9.61635e-20)
(4.01222 0.034473 0)
(1.56845 3.24302 -9.66956e-19)
(1.73445 -0.658127 0)
(4.01448 0.0376014 -1.11686e-18)
(3.98809 0.00304363 4.14466e-19)
(3.95422 -0.107559 -1.92079e-19)
(-4.04105 0.318989 0)
(4.83468 -0.0436467 -9.46282e-20)
(2.59919 0.199159 3.0892e-18)
(5.82849 -1.06752 0)
(3.57749 -0.142903 1.08068e-18)
(6.56945 0.449379 2.71773e-18)
(4.40964 -0.0103294 0)
(-0.559149 4.48337 4.16567e-18)
(4.54514 -3.05515 -9.38478e-19)
(4.66706 0.0281481 0)
(-2.36814 -1.06124 1.61569e-18)
(3.76547 0.100973 0)
(4.30081 -1.87848 9.95598e-21)
(0.720472 -2.07454 2.63486e-18)
(4.28754 0.953083 -1.20785e-20)
(4.65965 0.318846 3.82343e-19)
(3.07366 0.0529417 5.63144e-19)
(4.0222 -0.669095 -5.75146e-19)
(5.46766 -1.86925 -4.39425e-19)
(4.30768 -1.83682 1.72356e-20)
(4.67183 -0.161725 6.27342e-20)
(4.60283 1.28953 -7.25447e-19)
(5.3974 -2.21337 0)
(3.99808 -0.000960788 -9.09757e-19)
(0.63687 3.67267 -7.01799e-19)
(3.1971 -0.499293 0)
(3.23118 -0.42013 -4.8233e-20)
(3.08836 0.0347759 0)
(3.01377 -1.0123 1.9217e-18)
(5.26141 -1.60338 0)
(3.35291 0.0248071 -3.84779e-20)
(4.6483 -0.0269351 -1.85908e-19)
(-3.09378 5.22098 7.18507e-18)
(3.89133 -2.43175 5.96057e-18)
(4.60781 0.00858431 -2.49533e-21)
(4.53382 -2.07991 -1.21934e-18)
(4.21151 -1.11835 3.38266e-19)
(3.49842 -0.883298 0)
(0.529252 -0.159337 -1.41736e-18)
(6.03157 -0.775765 3.07226e-19)
(0.683887 -0.154349 -1.64648e-18)
(3.47313 0.549761 -4.53274e-21)
(3.4728 -1.36715 0)
(4.354 -0.0261522 -9.04873e-21)
(1.0871 -1.28894 0)
(3.20663 -2.60702 9.50911e-20)
(2.78174 3.08602 -5.71115e-19)
(6.33596 4.5337 0)
(4.91648 -0.901681 -6.9037e-20)
(-1.55945 4.17276 0)
(4.60226 1.77909 0)
(4.0353 -1.852 -1.90382e-20)
(3.19284 0.162787 8.87897e-19)
(2.95504 -4.51578 0)
(3.75535 0.0317512 -5.444e-19)
(5.79406 -0.457595 9.12228e-19)
(0.00656705 -0.992049 4.48889e-18)
(4.36297 2.24495 0)
(4.25492 -0.0588367 0)
(1.16335 -1.53825 -2.01314e-18)
(4.0997 -0.305443 0)
(5.01176 -0.114685 0)
(-1.5937 1.82673 7.2119e-20)
(4.73561 -0.538059 -5.81902e-20)
(4.06627 -0.949693 3.85106e-19)
(5.91331 0.861167 7.53087e-20)
(0.504363 -0.0856397 3.0719e-18)
(3.98901 0.0115176 4.65495e-19)
(3.57025 -0.933141 0)
(4.08658 0.65944 -3.2107e-19)
(3.32683 -0.703341 0)
(4.59534 -0.0320085 0)
(3.98428 0.0763792 0)
(4.21859 0.248657 -1.00589e-19)
(4.01008 -0.22449 5.97582e-19)
(5.57637 0.148889 5.85192e-20)
(3.66617 -0.924532 0)
(2.45277 -0.619948 -1.7972e-18)
(3.64252 1.46434 7.97702e-19)
(4.53617 -1.4787 -4.1314e-21)
(5.39865 -0.660823 -6.85822e-19)
(7.07034 0.819515 3.56209e-18)
(4.19466 0.0619285 -6.50277e-19)
(-3.14956 1.29921 0)
(4.40116 -0.258251 0)
(2.94815 0.857494 0)
(3.07052 -1.37419 -1.31036e-18)
(-4.69538 5.43107 -5.05966e-18)
(6.14861 4.00673 0)
(4.12809 0.690186 0)
(3.96057 -0.414932 6.11679e-19)
(4.14275 0.00904056 -1.1153e-19)
(3.65442 0.739078 1.36681e-18)
(5.93038 -2.11405 0)
(2.14328 -0.0256953 -7.97546e-19)
(4.43988 0.121478 4.6243e-19)
(3.35173 -1.05416 -1.19195e-18)
(4.2669 0.092661 -6.44471e-19)
(4.219 0.960098 1.14266e-18)
(3.00145 3.7959 1.21575e-18)
(3.02243 -1.38707 2.28101e-18)
(7.42575 -1.92957 8.92716e-18)
(5.63237 -0.0630187 -2.69658e-20)
(4.00216 0.00141071 -2.1288e-19)
(3.87128 -1.72624 2.16969e-19)
(4.64764 -2.67946 4.24352e-19)
(2.69875 2.4914 -8.51635e-19)
(4.08105 -1.89451 -1.90611e-19)
(4.63513 -0.352075 0)
(2.85045 -1.12919 -4.61183e-20)
(4.29098 -0.0593437 -1.34895e-18)
(5.06795 1.56437 -1.96661e-20)
(3.29802 -1.00314 -1.11477e-18)
(4.46689 -1.41422 -9.09824e-20)
(4.10136 0.0224427 6.47564e-19)
(5.39102 -0.0441943 -3.65984e-19)
(2.31237 -0.90262 -4.69525e-19)
(5.59269 0.630836 -3.07905e-19)
(2.86144 -0.697742 -2.84904e-18)
(4.34608 -0.0245519 -1.16616e-18)
(2.85066 -0.79366 0)
(-5.47452 5.24759 -1.26269e-17)
(4.31503 0.0503062 1.37497e-18)
(2.91611 0.00541398 5.13057e-21)
(-1.09589 2.64819 0)
(4.94581 -2.15464 0)
(3.90377 0.521655 1.2254e-18)
(2.63136 -0.711886 1.8144e-18)
(-2.38285 4.60212 -3.6035e-18)
(5.37817 -1.2893 5.15742e-19)
(5.06028 -0.178956 -5.44694e-19)
(5.72621 1.67191 0)
(3.90397 0.580823 7.07904e-19)
(-0.408555 2.19175 -1.56059e-19)
(4.23561 1.68029 -8.10838e-19)
(4.4176 -0.457643 -4.76909e-19)
(0.542745 -0.109478 -5.02449e-18)
(6.98047 0.636834 -3.2836e-18)
(6.64615 0.965545 4.38687e-19)
(3.87885 1.75382 0)
(6.61029 -1.1668 -7.93957e-19)
(3.97722 -0.103054 1.68854e-19)
(3.49124 0.131423 -8.3522e-21)
(2.38732 -1.16183 2.20578e-18)
(4.36572 -0.476718 7.20422e-19)
(3.41453 -0.534075 1.01219e-20)
(0.577882 -1.27321 -2.87214e-18)
(5.68345 -0.0964647 -7.11849e-19)
(4.32802 -0.0413675 1.04561e-18)
(0.227801 0.544615 -2.85748e-19)
(4.12355 1.53287 1.65981e-18)
(-2.13347 -1.01718 -1.7582e-18)
(2.90161 -1.39983 -5.73413e-19)
(3.55498 0.133263 0)
(4.23687 -0.308744 6.69166e-20)
(-1.96247 0.886896 -8.53947e-19)
(3.14391 -0.632446 2.50659e-18)
(4.73886 0.620292 0)
(2.64402 0.681264 4.39675e-19)
(2.93776 -1.25212 5.39891e-19)
(3.99316 0.0106587 -2.01402e-18)
(1.85319 -1.97177 -2.80447e-18)
(2.9885 -4.31853 -4.01997e-19)
(4.63921 -0.0563879 1.29586e-19)
(4.37695 0.114447 1.20652e-18)
(4.38594 -1.90447 1.27392e-19)
(5.67138 0.0672125 -8.15418e-20)
(-5.02232 5.28442 -1.08565e-17)
(4.25166 -0.0470037 1.26629e-18)
(4.41748 -0.0765077 -3.02929e-19)
(4.16424 0.125622 -1.44555e-20)
(4.80519 0.00591077 -5.57455e-19)
(2.85244 -1.27638 -1.04775e-18)
(5.63467 0.00720647 0)
(-4.7357 0.297239 4.86055e-18)
(4.2594 0.0747238 1.26143e-19)
(3.31375 2.89631 6.4092e-19)
(4.75107 0.09803 3.72752e-19)
(5.00328 -0.341031 2.42583e-19)
(3.99927 0.0183118 -1.76526e-18)
(4.04644 0.408215 4.04049e-19)
(1.45266 -1.21063 -2.61144e-18)
(5.13051 -0.104864 0)
(3.71106 -0.684948 2.73246e-20)
(4.51056 -0.398713 3.11659e-19)
(3.49221 -1.33426 0)
(4.14981 0.0850154 8.56201e-19)
(4.60754 -0.39277 3.682e-19)
(5.05589 -0.0907031 2.29839e-23)
(7.72512 -1.2311 2.81829e-18)
(4.96813 -0.799276 0)
(3.61576 0.288763 1.78107e-18)
(3.41278 -0.431201 -3.37679e-20)
(3.92037 -1.83436 -1.13437e-19)
(4.39901 -0.294459 0)
(3.1976 0.10548 -2.54758e-18)
(0.0639059 0.443473 -2.24231e-19)
(4.01598 2.20139 8.0089e-19)
(2.88764 -0.729148 2.72446e-18)
(4.86666 0.0616612 -7.6349e-20)
(3.54293 -2.34864 4.28652e-18)
(4.18785 -0.258271 -7.91068e-19)
(6.33075 0.785501 -1.46075e-18)
(3.74546 0.00954489 -1.11829e-18)
(4.59571 0.083034 0)
(4.00737 -0.00330548 -7.97256e-19)
(3.74162 0.11137 2.21984e-17)
(-0.421873 0.809289 0)
(6.6451 2.6029 0)
(3.4896 0.135545 0)
(-1.81384 0.209648 0)
(3.98278 0.376104 0)
(2.75149 -0.685582 0)
(8.40114 -2.12432 8.06142e-20)
(5.53417 -0.0710935 -9.78864e-20)
(4.81158 0.743975 0)
(3.58962 0.255636 2.68812e-18)
(0.142124 -1.4363 -8.5917e-20)
(4.06213 0.228963 1.32659e-20)
(-1.84652 1.3947 -3.8304e-19)
(2.70487 -0.34199 1.07607e-20)
(1.71576 -1.57182 2.39971e-18)
(3.59925 0.0276134 -1.64129e-19)
(5.33985 0.204012 3.52852e-20)
(3.95578 0.336407 -8.16604e-19)
(3.83296 0.075972 -1.5844e-18)
(3.58305 1.31218 -1.42922e-18)
(5.16851 2.3878 0)
(3.57511 1.48554 2.65869e-18)
(3.06981 -1.05791 -2.11262e-18)
(4.02109 0.0182876 -2.38216e-18)
(6.06938 -0.959569 3.03982e-18)
(4.60826 0.0246995 1.07682e-19)
(7.46266 0.325611 -3.71697e-18)
(4.74004 -0.29531 -1.66122e-21)
(4.9245 -0.849088 2.42007e-19)
(4.00113 0.162133 8.38777e-19)
(3.38421 2.35555 0)
(5.28516 -1.67994 -3.59563e-19)
(3.64634 -0.161097 -3.32942e-19)
(5.21886 1.46088 0)
(4.29126 -0.950564 0)
(4.66137 -2.00519 -2.79725e-20)
(3.40411 -2.47365 4.82733e-18)
(8.27696 -2.56872 -5.12905e-18)
(3.96309 -0.16752 0)
(4.08697 -0.204343 -1.16918e-18)
(3.73095 0.104502 -3.05327e-19)
(-4.02942 1.53932 3.79496e-18)
(4.83398 -0.279563 1.45587e-19)
(2.20668 -1.65459 0)
(4.03349 1.02601 3.15849e-18)
(4.81191 -0.338497 0)
(6.71967 -1.36772 9.32068e-19)
(3.56874 0.258682 -3.80625e-19)
(4.00848 -0.00975204 1.16283e-21)
(4.29437 1.08015 -2.03164e-18)
(4.41807 2.09866 -6.05408e-20)
(4.09926 -1.08807 7.94972e-19)
(-0.525523 7.08538 0)
(-1.68638 3.71513 -1.15399e-17)
(-0.702275 -2.19024 0)
(4.91716 0.759725 8.01704e-20)
(-3.06532 0.140326 9.7389e-18)
(7.54961 2.48962 2.60017e-18)
(3.76092 -0.722621 -3.51309e-20)
(-3.4102 0.637478 -2.88265e-18)
(3.53711 -1.70118 1.31721e-19)
(3.14947 -1.05673 -1.15879e-18)
(3.30119 -0.274919 3.49269e-20)
(-0.387234 3.22623 9.34763e-18)
(2.90204 -1.3043 8.69192e-19)
(3.24994 -1.09083 1.25534e-18)
(-5.05822 5.32714 5.97003e-18)
(1.14723 3.75373 -4.66975e-18)
(4.3967 -1.2342 1.72414e-19)
(-1.84619 1.28526 3.62161e-18)
(5.44005 0.0907954 -2.72166e-20)
(-0.00697604 -1.63747 1.85477e-19)
(4.35324 0.696331 -4.98839e-19)
(5.52852 -0.412114 0)
(-1.67877 0.31647 -1.35113e-18)
(4.17794 -0.0455741 -1.47408e-18)
(3.97525 0.0834482 0)
(4.86976 0.714125 0)
(-2.86152 1.23104 -8.48133e-18)
(5.86061 1.06297 -6.28832e-19)
(4.58507 0.426302 -1.02381e-18)
(4.71395 -0.542721 6.48542e-20)
(3.58263 1.29966 1.19896e-18)
(3.02795 -0.0149385 4.01443e-19)
(-3.29141 -0.751736 4.89046e-19)
(3.51014 0.698815 0)
(3.30265 -1.13313 1.1837e-18)
(-3.80282 -3.13787 5.4143e-19)
(-3.51631 0.328866 2.29502e-18)
(4.13862 -1.49186 8.85327e-20)
(5.48859 -2.45252 1.16048e-18)
(3.62873 -0.0248677 2.472e-19)
(4.00265 -0.752585 4.19961e-20)
(6.6383 -0.119636 2.17087e-18)
(-2.81205 -0.190832 -4.97896e-18)
(4.55452 0.407726 7.618e-19)
(4.01227 -0.0459196 5.67699e-19)
(2.83428 -0.801438 -1.12544e-18)
(4.10326 -0.274498 6.88697e-19)
(1.76397 -0.869584 0)
(4.51602 0.692177 9.58113e-19)
(4.03417 -0.0220981 1.2887e-19)
(3.44497 -0.834719 -3.85013e-19)
(3.0638 2.31098 -7.83376e-19)
(4.31839 -1.22191 2.01246e-19)
(4.32121 0.0290423 2.19826e-19)
(3.10971 -0.195649 -1.83383e-18)
(5.34724 1.3049 0)
(3.74854 -0.632349 -7.86273e-20)
(4.29473 0.140251 8.77793e-19)
(5.73133 -0.779103 0)
(3.17858 -0.347967 1.00253e-18)
(4.88095 -0.278725 0)
(2.94339 2.23781 2.83025e-18)
(5.1429 -0.00756789 0)
(5.35406 -1.86013 0)
(4.55833 -0.0941771 1.35682e-19)
(4.55295 0.316681 5.96031e-19)
(5.5124 0.79074 -3.486e-19)
(3.895 0.0368692 -7.37126e-19)
(2.97472 1.40678 -7.95941e-19)
(3.98542 0.0608812 -3.5265e-19)
(4.02389 0.393502 0)
(1.03286 -1.62397 -5.64579e-19)
(4.74586 0.323201 -4.09767e-19)
(6.55841 -1.47568 -1.8587e-18)
(5.50282 -0.426648 0)
(5.14963 1.55696 3.54493e-20)
(3.5323 2.33556 -1.39995e-19)
(5.4993 0.0886119 -1.54346e-19)
(-2.14521 2.77492 0)
(-1.50104 1.85959 1.20203e-18)
(4.03111 0.160469 0)
(6.43732 -0.0692763 -1.01818e-18)
(0.173435 0.100465 0)
(4.86665 -0.398674 0)
(6.17551 -1.04425 0)
(5.09624 -1.62285 0)
(-0.741359 -0.191663 -3.57747e-19)
(-5.0521 0.949283 -7.87445e-19)
(3.99839 -0.20068 -9.04826e-19)
(-3.58465 5.02899 -9.19361e-18)
(3.06548 -1.34159 0)
(-6.91042 5.55078 -4.4647e-18)
(-0.501889 1.02792 -9.63717e-19)
(3.80527 -1.75025 0)
(3.49834 -1.2572 -1.11158e-18)
(3.45086 -0.491487 -1.98773e-20)
(4.3376 0.659963 1.29491e-18)
(6.90973 -1.39744 -2.08346e-18)
(3.82426 0.0468673 0)
(5.63796 -1.19458 0)
(6.27383 0.959833 4.21618e-19)
(4.54386 -2.33871 7.38567e-20)
(3.4686 -0.274551 -5.93475e-20)
(-3.81083 2.20925 -3.54701e-19)
(3.99879 0.00154335 5.90538e-20)
(4.26509 -0.395592 2.52066e-20)
(3.99822 0.163226 1.20154e-18)
(3.67485 -0.587057 3.06655e-20)
(4.46463 -1.03767 0)
(1.93627 -0.956145 0)
(5.63038 0.115289 0)
(3.17228 0.0309883 0)
(3.97391 -0.76447 4.27531e-19)
(5.61283 0.419819 0)
(-0.957908 0.475798 3.27548e-18)
(2.03098 3.81467 2.82823e-19)
(3.20005 -1.1175 -1.91957e-18)
(0.328688 -1.16412 -8.6249e-20)
(-5.95204 1.69518 -2.60404e-18)
(-2.21269 -0.450761 -1.58819e-18)
(4.24601 0.0609791 1.72926e-19)
(-3.20124 -1.47461 -2.97131e-18)
(3.61665 -0.563095 4.48186e-20)
(4.67404 -0.0705348 0)
(5.12024 0.311518 0)
(1.77544 -1.80681 0)
(5.03009 -0.382531 -1.50548e-19)
(0.0423234 4.22317 0)
(3.53108 0.711035 0)
(4.00237 0.00366203 0)
(4.10904 -0.961764 3.56819e-19)
(4.07174 0.225676 -1.31842e-18)
(3.19522 0.0586976 0)
(8.37394 -1.44076 -3.50586e-18)
(3.93912 0.136328 -1.0126e-18)
(4.28213 1.55431 1.65834e-18)
(3.83008 -1.74839 4.04854e-19)
(3.63825 0.841071 1.43031e-20)
(4.69523 -3.75708 -1.12347e-19)
(4.13727 -1.05028 1.32538e-19)
(5.87283 -2.34775 -1.04828e-18)
(4.51883 0.313732 -8.0221e-19)
(3.43219 -0.248896 -1.39201e-19)
(3.83444 -0.0821755 -1.00561e-18)
(4.2326 -0.0440316 0)
(3.28551 2.83895 -5.01888e-19)
(3.99693 -0.0284295 1.08477e-18)
(-0.94606 1.40739 2.25209e-19)
(4.70668 -0.302093 -3.56369e-20)
(2.68492 -0.745316 -1.99035e-18)
(4.5435 0.294666 1.35291e-19)
(5.68963 1.29842 3.6265e-19)
(3.98809 0.0613649 0)
(2.62052 -1.00192 -1.436e-19)
(3.97806 -0.303976 -4.79628e-20)
(6.00781 -2.32343 2.26196e-18)
(4.86657 -0.505621 -1.65876e-17)
(4.20682 0.00134725 4.65283e-19)
(5.77302 -0.00290999 2.42291e-20)
(4.936 0.0883206 5.86466e-20)
(5.58333 0.19708 0)
(1.02044 -0.0339581 0)
(3.56 -1.68333 6.22601e-19)
(2.16387 -1.91835 2.99682e-18)
(3.54916 0.0742407 -6.09928e-22)
(4.00518 -0.0230757 2.14571e-18)
(2.70131 -1.03208 4.48763e-19)
(3.16831 0.0645209 0)
(3.78574 -0.0909366 0)
(3.72132 -0.896409 -3.25301e-20)
(4.45412 -0.0434727 2.032e-19)
(3.69471 0.816094 1.95307e-18)
(4.23011 0.167994 0)
(4.65418 0.0259854 0)
(5.09953 -0.929932 -8.2469e-19)
(4.34856 -0.296937 4.84613e-19)
(0.323619 -0.108272 -2.78103e-18)
(4.81795 -0.526527 0)
(4.57576 -0.00441153 9.4974e-19)
(8.43783 -0.102126 -1.06733e-18)
(-1.61792 0.518908 -1.20148e-18)
(4.24027 -0.0912211 -8.97293e-19)
(5.77875 0.262894 0)
(5.73503 0.954286 5.23292e-19)
(-1.27597 3.03624 -1.03219e-18)
(-0.0897287 0.0390551 0)
(3.26822 0.0133822 -1.34452e-19)
(3.92888 -0.00205567 -7.30177e-19)
(3.42796 0.0290355 -1.01198e-22)
(3.62138 0.511419 1.7508e-19)
(2.64762 2.53606 2.22712e-19)
(4.17836 0.0353469 0)
(2.68213 -1.06424 -2.45203e-20)
(2.43652 -1.01158 -4.17537e-19)
(0.191288 1.05217 8.08527e-19)
(3.97107 0.333994 9.7175e-19)
(-0.387719 6.28171 3.32347e-18)
(4.2657 0.0194618 -2.10581e-18)
(3.47568 -0.528175 -2.20558e-21)
(3.9022 -0.924182 6.10054e-20)
(4.00835 -0.897301 0)
(3.78898 0.0236182 -3.96196e-19)
(2.83966 -1.33123 6.88225e-19)
(4.60425 -0.0234475 -4.01458e-19)
(4.03122 -0.0186857 -9.58263e-19)
(6.36667 -0.191342 8.74016e-19)
(3.74298 -0.538286 1.99044e-18)
(5.24306 0.106206 2.99726e-20)
(3.75381 -0.0635215 6.15216e-19)
(3.23726 -0.42763 -1.41866e-19)
(5.85962 0.75763 -8.39468e-19)
(4.11828 1.66546 1.4001e-18)
(-1.80882 4.1889 2.90871e-18)
(3.91871 0.0102072 0)
(2.38238 -1.77447 0)
(8.31278 2.3958 0)
(3.19256 -1.06354 1.49326e-18)
(4.19194 0.0595406 -1.53368e-18)
(3.70916 0.111306 0)
(3.53676 -0.860064 -1.08585e-18)
(3.71487 0.0608265 0)
(3.98194 -0.684563 -6.97473e-19)
(6.68259 -1.59932 -2.24871e-18)
(4.3851 -0.993494 -2.42509e-19)
(4.25822 0.0350082 0)
(4.03212 -0.0569016 0)
(5.76216 -0.80361 6.86739e-19)
(4.77906 0.633594 -2.15683e-20)
(5.47756 0.129391 4.04224e-19)
(3.70777 2.51886 -4.79361e-20)
(3.99215 0.369324 0)
(4.15797 -1.44478 -1.35497e-19)
(-0.511084 0.548053 0)
(2.09704 0.839725 -1.30579e-18)
(4.45604 2.10174 0)
(5.72657 0.062108 -3.91231e-20)
(2.85334 -0.669112 7.51515e-19)
(3.47591 -0.528576 6.81333e-19)
(4.30342 -0.577351 -6.15091e-19)
(2.45933 4.29925 -7.94189e-18)
(4.30299 -0.358166 1.22371e-18)
(3.99349 0.368163 -1.21611e-20)
(7.49797 0.544762 4.30126e-18)
(4.57111 -0.742852 -6.88555e-20)