/*--------------------------------*- C++ -*----------------------------------*\
| =========                 |                                                 |
| \\      /  F ield         | OpenFOAM: The Open Source CFD Toolbox           |
|  \\    /   O peration     | Version:  2306                                  |
|   \\  /    A nd           | Website:  www.openfoam.com                      |
|    \\/     M anipulation  |                                                 |
\*---------------------------------------------------------------------------*/
FoamFile
{
    version     2.0;
    format      ascii;
    arch        "LSB;label=32;scalar=64";
    class       surfaceScalarField;
    location    "7.3";
    object      phi;
}
// * * * * * * * * * * * * * * * * * * * * * * * * * * * * * * * * * * * * * //

dimensions      [0 3 -1 0 0 0 0];

oriented        oriented;

internalField   nonuniform List<scalar> 
20045
(
0.247408
-0.268431
0.0210224
-0.532181
0.189639
0.342541
0.201351
1.00484
-1.20619
-0.147044
0.214925
-0.0678802
-0.430056
0.406352
0.0237035
-0.310812
1.13693
-0.826121
-0.497656
0.196177
0.301479
0.0303551
0.218476
-0.248831
0.242067
0.207739
-0.449807
-0.415082
-0.0476875
0.46277
-0.215788
-0.176336
0.392124
1.12536
-0.538364
-0.586996
0.177684
-0.178856
0.00117271
-0.633812
0.554581
0.0792314
-0.146735
0.517821
-0.371086
-0.539713
0.124631
0.02391
-0.0666609
0.0427509
0.266636
-0.269647
0.00301143
-0.822197
1.21466
-0.392459
-0.374904
0.0252478
0.349656
-0.209023
0.143539
0.0654836
0.0605227
0.117161
-0.0658888
-0.466292
0.510145
0.555914
-1.06606
0.406987
0.11092
-0.517906
-0.582842
1.09299
0.0455823
-0.0478367
0.00225438
-0.70958
1.32583
-0.616249
0.849477
0.145487
-0.994963
-1.32095
0.71308
0.607875
-0.245787
0.226271
0.0195157
0.700694
-0.502776
-0.197918
-0.357065
0.850723
-0.493658
1.23523
-0.719943
-0.515285
-0.279797
0.310152
1.02565
-0.497535
-0.52811
0.672226
0.0435365
-0.715762
-0.0295426
0.183684
-0.154141
-0.989495
0.474447
0.515048
0.301346
0.261893
-0.563238
0.0182912
0.211722
-0.230013
0.0635017
-0.0912132
0.0277115
1.0679
-1.06885
0.000949
0.742521
-0.279247
-0.463274
0.348507
0.394014
0.507815
0.617545
-0.122209
0.0400425
0.0821668
0.649196
0.25305
-0.902246
0.802254
-0.130029
0.0960653
0.989142
-1.08521
0.651747
-1.09973
0.447986
0.89661
-0.637726
-0.258884
-0.591532
-0.419928
1.01146
-0.0462602
-0.148948
0.195208
0.361544
-0.184723
-0.176821
-0.345037
-0.0850187
-0.190077
0.937828
-0.747751
0.764701
0.0969327
-0.861634
0.612566
-0.969631
0.834663
-0.490773
-0.343891
-0.239663
-0.150322
0.389985
0.426644
0.408019
0.249051
-0.902316
0.653265
-0.0893177
-0.119705
0.864988
-0.208545
-0.656443
0.765669
0.0235835
-0.789252
0.08748
-0.216751
0.12927
-0.33407
0.0790838
0.254986
0.428078
-0.186011
0.805462
-0.818969
0.0135066
0.186611
-0.0991313
0.05979
0.301754
-0.128537
-0.52636
0.654897
0.0702018
-0.117941
0.0477392
0.851451
-0.245817
-0.605634
0.672454
-0.862531
0.0733275
0.778123
0.229801
-0.376535
0.117881
-0.146588
0.0287076
0.153981
-0.616832
0.462851
0.519222
0.588631
-1.10785
0.448364
-0.348441
-0.0999233
0.711084
-0.462033
-1.34116
0.234599
1.10657
0.0103158
0.237092
-0.267405
0.302316
-0.0349116
0.299295
-0.662263
0.362968
-0.802688
0.034235
0.768453
0.516156
0.0777359
-0.593891
-0.418256
0.386391
0.0318652
-0.705339
-0.102721
0.80806
0.366889
-0.071568
-0.295321
0.200735
-0.287696
0.0869607
-0.0820073
-0.405762
0.487769
0.292167
-0.312984
0.0208172
0.763061
0.170047
-0.933109
0.0328835
0.0126989
-0.0791475
0.260017
-0.18087
0.615371
-0.314026
0.0443042
-0.0896539
0.0453497
0.69335
0.332296
-0.221294
-0.412519
0.212963
-0.292111
-0.180354
0.945055
-0.00151894
-0.265886
0.0938008
-0.0494966
0.228742
0.604724
-0.833466
0.521368
-0.914904
0.393535
-0.00432874
-0.211712
0.183943
0.0277694
-0.099968
0.127797
-0.027829
0.5998
-0.452939
-0.146861
-0.245438
0.199178
0.630445
-1.17628
0.545838
-0.0850972
0.156887
-0.07179
0.0226041
-0.123728
0.101123
0.576884
-0.169898
0.878395
0.356833
-0.590581
0.462044
0.660884
-0.89479
0.233906
0.240238
0.0263972
-0.394616
0.154954
-0.388355
0.314362
0.0739927
-0.468127
0.0505431
-0.291581
0.241038
0.618128
0.278481
0.550995
-0.717433
0.166437
0.812807
0.0938334
-0.90664
-0.987034
0.727959
0.259075
0.0778505
-0.783891
0.70604
0.938072
-0.319944
0.172827
-0.132785
0.100093
-0.0357513
-0.064342
-0.0351361
0.0264336
0.00870247
0.570452
0.401388
-0.97184
0.596125
-0.576616
-0.0195093
-0.172107
0.102273
0.0698336
-0.152211
-0.0595012
1.01624
-0.355354
-0.3275
0.344508
-0.0170079
0.63815
-1.17519
0.537042
0.17322
-0.764752
0.555193
0.226839
-0.782032
0.69844
-0.54446
0.963291
-0.134369
-0.828922
0.560557
-0.915914
0.355357
0.979945
-0.607456
-0.372489
-0.126141
0.227689
-0.101548
-0.037365
1.11382
-1.07646
1.07556
-0.226085
-0.825599
0.0266884
0.79891
-0.480203
0.405134
0.0750685
0.994604
-0.475382
0.16776
0.280604
-0.631004
0.779738
-0.148734
-0.869952
1.0713
0.00980938
-0.157552
0.147743
-0.0498439
0.0770622
-0.0272183
-0.0179023
-0.184755
0.202657
0.649788
0.314959
-0.964747
1.39261
-0.696877
-0.695732
-0.220186
0.202284
0.345026
-0.656588
0.311562
0.0747778
-0.0112761
-0.81808
-0.460287
0.687717
-0.22743
-0.670791
0.482008
0.188783
-0.0119618
-0.0238198
0.0357816
0.484438
0.495507
-0.018473
-0.0166631
-0.014695
0.114788
-0.710417
0.0794137
-0.733664
0.931626
-0.197962
-0.666449
0.752214
-0.085765
-0.578112
-0.431757
1.00987
-0.205398
0.38889
-0.183492
0.456054
-0.462787
0.00673209
1.00184
0.0242644
-1.02611
0.0144467
-0.759966
0.745519
-0.362282
0.917475
0.194155
-0.547309
0.353154
-0.520755
1.1512
-0.821301
0.544963
0.276338
0.184521
-0.186031
0.00150977
0.517185
-1.27084
0.753655
-1.04192
0.332345
-0.599848
-0.443709
1.22531
-0.725011
-0.500303
-0.277877
0.296168
0.124295
-0.131458
0.00716203
-0.725786
-0.118078
0.843864
-0.91845
1.2861
-0.367647
0.93004
-0.700112
-0.229928
0.0820319
-0.247086
0.165055
-0.307303
-0.465016
0.772319
0.197684
-0.413472
-0.679829
0.757679
-0.710724
-0.228622
0.939346
0.0888432
0.0242923
-0.113135
0.151
-0.611287
-0.211153
-0.0346339
0.874026
-0.061219
-0.138636
0.109093
-0.135054
0.166081
-0.0310275
-0.392619
1.04241
-0.832653
0.52535
0.0702812
0.0773287
-0.14761
-0.704498
0.135741
0.568757
0.278247
0.651793
1.33994
-0.82275
0.788677
-1.38027
0.591589
0.315526
-1.12238
0.806856
0.0308633
-0.405767
-0.487948
0.71669
0.659715
-0.970526
0.448222
-0.852531
0.404309
-1.42793
0.825168
0.602765
-0.014468
-0.403788
0.177764
0.140415
-0.318178
0.743283
-0.256791
-0.486492
-0.0657439
-0.774165
0.7368
-0.251348
-0.0761522
0.681885
1.06249
-0.861109
-0.201377
-0.0101374
-0.124661
0.134799
0.671925
0.132282
-0.804207
0.209174
-0.3954
0.186226
-0.237338
0.773302
-0.535964
-0.434858
0.734153
0.570083
-0.375928
-0.0644833
0.196377
-0.131894
0.995656
-0.357506
0.0877469
-0.00796153
-0.0797854
-0.0655578
-0.215745
0.281303
-0.102598
0.106607
-0.00400908
1.20528
-0.749729
-0.455552
0.24579
-1.16424
-0.112147
0.00954948
-0.869631
0.27753
0.592101
1.31842
-0.467699
0.246773
-0.980437
1.38371
-0.592132
-0.791581
-0.0117009
0.100544
0.8563
-0.478343
-0.377956
-0.611499
0.139074
0.472425
-0.931902
0.933713
-0.00181075
0.384357
-1.05766
0.673307
0.0269991
-0.0348196
0.0078205
-0.46404
0.629313
-0.165273
-0.0737697
0.362442
-0.288672
-0.142458
0.0573609
-0.116277
0.0163088
-0.550388
-0.364516
0.412527
-0.853355
0.440828
-0.130453
0.324969
-0.194516
0.405597
0.295097
0.78101
-0.332788
-0.0142474
-0.0355965
0.709816
0.608606
-0.490926
0.0138421
0.477083
0.387325
0.468975
0.382724
0.135096
-0.30049
0.170036
-0.283002
-0.0268963
0.309898
0.0104422
0.174079
-0.818811
0.581472
-0.046343
-0.133008
0.179351
-0.932622
0.89866
0.0339622
-0.336392
0.486702
-0.15031
-0.215517
-0.105561
0.321078
0.764588
-0.830233
0.0656444
-0.873684
-0.554249
1.28133
-0.81416
-0.46717
-0.0914698
0.0813324
1.15132
-0.766961
-0.462874
0.875401
-0.381876
-0.0139116
0.395787
0.877663
-0.226469
-0.651194
1.0886
-0.319989
-0.768615
-0.444882
0.0630062
0.835525
-0.493644
-0.34188
-0.160808
0.784248
-0.623439
0.452284
-1.05213
0.599849
0.219548
0.183222
-0.40277
-0.0656322
0.0166223
0.0490099
1.29829
-1.08573
-0.212567
-0.514889
-0.472145
0.712123
0.350363
-0.853209
-0.0794134
0.151721
-0.217279
0.270815
-0.65298
0.382165
0.00374502
0.12055
-0.539403
1.10986
0.482018
0.723263
1.33304
-0.795681
-0.537362
-0.791586
0.562963
0.714793
-1.19927
0.484481
-0.628259
-0.0400054
0.668265
-0.248971
-0.164006
0.412977
0.545901
-0.200875
-0.0958201
0.166101
0.481148
-0.0369594
-0.465817
-0.65292
0.875161
-0.222241
-0.155905
0.020851
-0.0872686
0.0227853
0.11306
-1.04496
0.365194
-0.800052
0.0764688
-0.183015
0.249861
-0.0668462
0.0181544
-0.165199
-0.495847
0.377926
0.117921
0.347989
0.25181
0.500029
-0.0574824
-0.442546
0.490587
0.105538
-0.339114
0.609929
0.57146
-0.0553047
-0.20605
-0.498449
1.09693
-0.872968
-0.223967
0.809205
-0.778313
0.353718
0.424595
0.799884
-0.866424
0.0665406
-0.435053
0.353045
-0.111681
-0.0604253
-0.118446
-0.586893
0.292368
-0.539814
0.247447
0.419711
0.415814
0.686997
-1.13189
0.444891
0.235906
-0.534585
0.298679
-0.972583
0.169896
0.0160147
0.350875
-0.557332
0.848912
-0.291579
-0.252449
0.302852
-0.0504027
-0.416073
-0.0815832
-0.124243
-0.226476
0.350719
0.080195
0.000856656
-0.0810517
-0.31852
-0.161683
0.375423
0.44508
-0.820502
0.795564
-0.408239
0.278124
-0.448713
0.01366
0.465294
-0.229389
-0.664736
-0.156565
0.323476
-0.365246
0.0417697
0.9717
-0.322505
-0.468899
0.753535
-0.284636
-0.112905
0.131357
-0.0184519
0.733074
0.0102094
-0.341367
-0.311613
-0.517763
0.934726
-0.416963
0.621227
-1.12804
0.506812
0.58891
0.69242
-0.0352219
0.0202662
0.0149557
0.0883317
-0.716591
0.65151
-0.981455
0.329945
0.0795593
-0.00935748
-0.082262
0.633258
-0.351604
0.716798
-0.74408
1.05961
0.188013
-1.01021
-0.86806
0.472124
0.395936
0.638072
-0.101412
-0.536659
0.936101
-0.171513
-0.495787
-0.526425
-0.463803
0.583313
-0.0283586
0.220006
-0.191648
0.316855
-0.291608
-0.721297
0.639035
0.842258
0.225646
-0.788939
0.32004
1.0449
-0.332773
-0.271977
0.374919
-0.102943
0.0259796
-0.63185
0.605871
-0.901904
0.168815
0.733089
0.726824
-0.726824
-0.372579
0.753999
-0.381421
0.481015
0.0190137
0.663667
-0.355361
-0.308306
-0.962683
0.998688
-0.0360042
0.334423
-0.0403754
-0.294048
0.257279
-0.106452
-0.150828
0.105948
-0.321465
0.144469
0.458918
-0.921792
-0.861438
1.01315
-0.151712
-0.283368
0.658791
0.10928
0.00517263
-0.114452
-0.0761755
-0.0427657
0.118941
-0.374657
0.40552
1.26524
-1.02867
-0.236565
-0.0826086
-0.526921
0.60953
-0.228606
0.247218
-0.0186127
0.120032
-0.272293
0.152261
-0.947504
0.344474
0.603031
0.13528
0.0796443
-0.371924
0.0999471
0.0157426
-0.118459
0.102717
0.62218
0.676113
0.109713
-0.000433387
-0.0417781
-0.288501
0.33028
-0.505328
0.806201
-0.300872
-0.000645888
0.0877572
-0.0871113
0.42143
-0.225253
0.674254
-0.203495
-0.470759
0.00956534
-0.415327
0.156107
0.845737
0.435479
0.293731
-0.729211
0.461068
-0.409116
-0.0519521
-1.01273
0.187127
-0.414018
0.167805
0.246213
0.495445
0.647799
-1.14324
-0.628677
0.588672
0.0450866
-0.914661
0.869574
-0.122448
0.20448
0.195755
-0.208568
0.0128121
0.0261064
-0.309108
0.0205339
0.0300134
-0.0505474
-0.673949
-0.195682
0.61917
0.0488539
-0.0130239
-0.03583
-0.118827
0.00592148
0.169546
-0.708066
0.538521
0.251286
0.541735
-0.79302
0.429633
-0.711591
0.870722
-0.159131
-0.718395
0.557587
-0.0191492
-0.0286875
-0.38763
-0.283161
-0.252125
0.0646409
0.187484
-0.879529
0.374201
0.668838
-0.751446
0.417777
0.627119
-0.303756
0.301885
0.00187091
0.39889
-1.09662
0.697731
0.146506
-0.261841
0.115336
0.331664
-0.673032
-0.634552
-0.0318972
-0.30719
-0.0268802
0.0907569
-0.0711952
-0.0195616
0.391552
0.00581455
-0.0257501
0.0199356
1.08141
-0.585964
-0.529525
0.884397
-0.354872
0.260522
0.179922
-0.440443
-0.360026
0.237578
-0.211269
-0.0408557
0.440445
0.223223
-0.189558
-0.705232
0.349282
-0.0258059
0.614625
0.406049
0.165411
-0.952144
1.04821
0.127161
-0.467551
0.34039
-0.0861568
-0.827776
0.913933
-0.257431
0.273472
-0.0160406
-0.319596
0.114198
-0.568237
1.02052
0.977592
-0.417035
-0.430634
-0.0652131
0.00878264
-0.409175
0.400393
0.408509
-0.986621
-0.131142
-0.464455
0.595596
-0.0883247
0.195345
-0.10702
-0.650816
0.052439
0.598377
0.945874
-0.692824
-0.0164996
0.0801062
-0.0636065
-0.210169
-0.0184364
0.17901
0.360118
-0.539128
0.0981557
-0.123622
0.0254664
0.597855
0.344879
-0.942734
-0.37069
1.13375
0.0777226
0.00247243
-0.274339
-0.585696
0.860035
0.318001
0.698237
0.956278
-0.704992
-0.346035
0.221792
-0.0582392
-0.00739301
-0.445656
1.16045
0.135035
-0.766181
0.631146
0.884858
-0.14471
-0.740148
-0.490565
0.709647
-0.219082
0.39518
-0.45014
-0.425128
0.875269
0.0916288
-0.117667
0.0260385
-0.283834
-0.485756
0.76959
-0.136441
0.0602654
0.0300246
-0.0419864
0.506247
-0.790081
-0.705826
-0.208347
0.914173
-0.063994
-0.479026
0.54302
0.0884002
1.21
-1.23005
0.0200419
0.204257
-0.144782
-0.0594751
0.000687501
-0.304443
0.257634
0.230135
-0.316393
0.0674222
-0.816844
1.02571
-0.208861
-0.246975
0.200632
0.286852
0.411588
-0.815986
-0.252867
-0.0520023
-0.0297965
0.0817988
0.533486
-0.127437
-0.194327
0.214033
-0.0197063
0.301661
-0.375431
-1.1842
0.584356
0.9424
0.194533
-0.125189
0.245221
-0.200072
0.460594
0.902068
-0.443151
-0.201297
0.00697026
-0.107288
-0.614009
0.197152
0.209199
-0.199389
-0.918937
0.0170327
0.00583895
0.205652
-0.0591461
-0.903189
0.644332
0.258858
0.678539
0.126923
0.182846
-0.0598849
-0.122961
0.278074
-0.257157
-0.0209164
-0.770161
0.272626
-1.04134
0.523575
0.235408
0.0481413
-0.283549
-0.036744
0.249904
-0.21316
1.00689
-0.00173201
-1.00516
0.144443
0.00835143
-0.152794
-0.134626
-0.253729
0.221317
-0.0205827
0.0567555
-0.0517056
-0.00504984
0.384932
-0.0524116
-0.33252
0.0279994
0.0287561
0.827087
-0.65704
-0.0282297
-0.137975
0.166205
-1.02155
0.204709
0.00972493
-0.143958
0.356921
-0.0236152
0.0724691
-0.0149721
0.000724646
0.237871
0.160854
-0.398725
0.614309
0.250679
0.440864
-0.313704
0.18953
-0.166926
0.0640112
-0.31646
0.609578
0.0247673
-0.634345
0.532609
-0.0347666
-0.497842
-0.558863
-0.357051
-0.318519
-0.0358982
0.354417
0.399978
-0.42437
0.024392
1.11336
-0.040898
-1.07246
-0.375458
0.0546138
0.320844
-0.494878
0.660228
-0.165349
0.58424
0.660774
-1.24501
0.259077
-0.409399
-0.269092
0.428228
-0.159136
0.210811
0.0939369
-0.304748
-1.15496
0.665232
0.489725
-0.0430431
-0.0086625
-0.844525
0.138699
0.295773
-0.181546
-0.114226
0.487119
-0.612586
0.125467
-0.0806171
-0.187814
0.186821
1.02318
0.819962
-0.135849
-0.684113
-0.847943
0.136352
0.338887
-0.544937
0.771467
-1.19486
0.423396
-0.097708
0.275472
-0.00233848
-0.380423
0.338645
-0.15586
0.206403
-0.134191
-0.799561
0.933752
0.490919
0.6604
-0.744887
0.773602
-0.0287143
0.0714733
0.0192836
-0.610364
-0.254078
-0.108548
0.121136
-0.0125876
0.545155
-0.218985
-0.326169
0.0116831
0.0415829
-0.053266
-0.0646875
0.551806
-0.781832
-0.100449
0.882281
-0.718571
-0.251778
0.970349
0.470645
-0.345622
-0.125023
-0.172674
0.0176967
0.154977
-0.264788
0.086063
0.178725
-1.01728
0.0473099
0.969966
0.0248642
0.181796
-0.206661
0.806873
-0.908138
0.101264
-0.518771
0.86129
0.25428
-1.11557
0.0106171
-0.119165
-0.0988929
-0.646837
0.74573
0.600239
-1.12099
-0.948181
0.823739
0.124442
0.113983
-0.0158275
0.723247
-0.436395
-0.0456791
-0.240987
0.286666
-0.00862165
0.124134
-0.115512
-0.191006
0.904174
-0.713168
0.735978
-0.408074
-0.327904
1.03664
-0.980925
-0.0557115
0.779899
-0.284389
-0.495511
0.0421782
-0.217841
0.175663
-0.279843
-0.011738
-0.923595
0.810863
0.112732
0.0529846
-0.976579
-0.255944
0.458666
-0.202722
-0.592739
-0.492987
0.179655
-0.156551
-0.0231037
-0.799494
-0.222058
-0.170857
0.113392
0.0574647
-0.0501782
0.259352
-0.880966
0.85235
0.0286157
-0.172306
-0.0983344
-0.0196067
0.15672
-0.0122767
-0.599636
0.135595
0.124586
-0.150547
0.0259615
-0.784522
0.438644
0.345878
0.356583
-0.0221601
-0.242217
0.692182
0.040892
0.350066
-0.0467309
0.199224
-0.152493
-0.0807327
0.536787
-0.608311
0.391827
0.216484
-0.0872694
0.0442263
1.12555
-0.634629
0.942454
-0.543564
-0.243461
-0.149027
0.392487
0.472674
-0.935119
0.462446
0.54871
-0.612705
0.96926
-0.431695
-0.537565
-0.00346628
-0.5128
-0.0955113
-0.347224
0.713215
-0.365991
0.0564006
-0.345472
1.13415
-1.06783
0.268332
0.383814
-0.164265
-0.0848604
0.0417985
0.109491
-0.00288383
-0.493327
-0.503133
1.32958
-0.657129
-0.365279
0.335343
0.0299359
0.0618892
0.19539
-0.661623
-0.400425
1.06205
0.219333
0.326568
-0.00355491
-0.131533
0.135088
0.820562
-0.277763
0.021672
0.256091
0.64531
-0.035732
-0.35346
-1.03103
0.169593
-0.202362
0.00951683
0.192845
0.580826
0.802887
0.549277
-0.431576
-0.1177
0.982305
0.0543311
0.605725
-0.861222
0.255497
-0.829861
-0.0124722
0.842333
-0.754337
0.982897
-0.22856
0.125981
-0.00477611
-0.121205
-0.497726
1.09797
-0.279613
-0.138625
0.418239
0.0204072
-0.765294
0.160586
-0.0619417
-0.0986441
-0.96069
1.25131
-0.290616
-0.230442
0.531295
-0.300853
1.16174
-0.511357
-0.650384
-0.00968526
-0.59141
0.601096
-0.183064
-0.0255031
-0.526266
1.11051
0.373649
-0.746228
1.10292
-0.481698
-0.173407
0.145177
-0.868302
0.0384409
1.19277
-0.505772
-0.0188058
-1.32236
0.229716
-0.017994
0.348091
0.531473
-0.879564
0.544233
-0.120792
-0.423442
0.923948
-1.0294
0.10545
-0.124388
0.00903172
0.115356
-0.196876
-0.474883
0.671758
0.339822
-0.275811
-0.298263
0.0714118
0.226851
0.114773
0.28648
-0.401253
0.0744995
0.105155
-0.88728
1.03746
-0.150178
-0.241469
-0.0159619
0.447943
0.199902
-0.647845
0.578123
0.548282
-1.1264
0.151706
0.486366
-0.0169257
0.980217
0.00174939
0.78421
-0.78596
0.00887972
-0.00952561
0.072507
-0.00573473
-0.0667723
1.12751
-0.994897
-0.13261
0.447619
0.521641
-0.104519
0.0532634
0.051256
-0.287358
0.802573
-0.515214
0.0122293
0.144339
-0.156568
0.563737
-0.905212
0.341474
-0.410962
-0.608095
1.01906
0.846394
-0.174469
0.297443
0.24679
-0.418714
-0.0516396
0.470354
0.280242
-0.807163
0.119619
-0.399375
0.279756
0.175521
-0.0729859
-0.102535
0.0291129
-0.212177
-0.068107
0.602112
-0.534005
-0.159147
1.14829
0.768336
-0.61597
-0.152366
0.619353
-0.541617
-0.512107
0.150052
0.362055
0.12538
-0.480741
0.159427
-0.0527751
-0.106652
0.055588
0.127258
0.137688
0.735136
-0.872824
0.210389
0.174543
0.120676
-0.839247
-0.424705
0.155511
0.269194
-0.320534
-0.229924
0.550458
0.467937
-0.230066
-0.839246
0.555878
0.247097
-0.198794
-0.0483037
-0.465771
0.869948
-0.404178
-0.427321
0.436886
-0.432812
0.533321
-0.100509
-0.563457
0.914331
-0.350874
-0.0197639
0.192776
-0.173012
-0.287787
0.251043
-0.288794
-0.560137
0.878147
-0.31801
-0.543416
0.679158
0.498437
-0.503432
0.00499459
0.264941
0.055479
-0.32042
-1.25754
0.832112
0.425429
0.0171132
0.195255
-0.212368
0.0701093
0.692263
-0.883269
0.879014
-0.40634
-0.354704
-0.513356
-0.697487
0.699236
0.49645
-0.014442
0.38699
0.115852
-0.502842
-0.315733
0.291741
0.0239916
-0.0379934
-0.0881652
0.126159
-0.251738
-0.402937
0.654675
-0.0886251
0.472198
-0.383573
-0.74725
-0.264954
1.0122
-0.0962518
0.361192
0.89988
0.227627
-0.838611
0.522483
0.316127
-0.240111
-0.0742271
0.314338
0.00340946
0.166023
-0.215103
0.0490804
-0.629504
-0.778699
0.526961
0.122426
0.18736
-0.145182
0.275378
0.269776
-0.0274252
-0.756466
0.0271479
0.265019
0.143929
0.0401453
-0.184074
-0.622643
-0.486114
1.10876
-0.112056
-0.306658
-0.501477
-0.102293
0.60377
0.118109
0.181201
-0.29931
-0.0128906
1.13101
-0.738882
-0.392125
0.169254
0.650708
0.099144
0.206087
-0.48926
0.283173
-0.523931
1.02353
-0.499597
-0.564185
-0.256914
0.821099
-0.441037
0.171945
-0.407171
-0.104936
0.86683
-0.424102
-0.442728
0.400715
-0.230945
-0.169769
0.382171
0.0459054
-0.428077
-0.155848
0.180712
0.243228
-0.367872
0.124644
0.084858
-0.0241935
-0.195992
-0.00659224
0.462079
0.404751
-0.362059
0.836506
-0.435214
1.14829
0.284776
0.115938
-0.858608
0.294424
0.715366
-0.627035
-0.0963571
-0.618855
0.123977
0.17783
-0.433774
0.723722
-0.697742
0.81801
-0.0181264
-0.185559
-0.102136
-0.275933
-0.0647735
0.340707
-0.280381
-0.0326032
0.705385
0.151369
-0.856755
0.0266485
-0.242011
0.215363
-0.0113816
0.397002
-0.837612
0.44061
0.873988
-0.0671143
-0.987947
1.05156
-0.0636147
0.204554
-0.12547
-1.07174
-0.185799
-0.321613
0.838858
-0.0279946
0.436297
1.11824
-0.409431
-0.708808
-0.637967
-0.0381354
0.676103
0.223384
0.502568
-0.725952
-0.683238
0.0324217
-0.158882
-0.143634
0.302516
-0.46407
0.599105
0.126233
0.513281
-0.639514
0.0278895
0.0643209
-0.0922104
-0.967212
0.115196
0.852016
0.357768
0.521246
-0.226928
0.560054
0.219846
-0.295531
-0.118487
0.789091
-0.92346
0.12801
-0.376601
0.248591
0.407457
-0.14838
0.664864
0.0462985
-0.711163
0.727383
-1.1626
0.00847006
0.0185291
-0.357235
0.491568
-0.134332
-0.740698
0.641805
-0.0174019
0.264234
-0.246832
-0.370462
0.195137
0.175325
-0.0721975
-0.247399
-0.243907
0.582794
0.238583
-0.00317439
-0.137698
0.148316
-0.1543
-0.2411
0.014626
-0.0494456
-0.171384
0.164961
0.00642235
0.18701
-0.210759
0.0237491
-0.606724
0.360907
0.135714
-0.637191
-0.0190181
-0.258859
0.0232789
0.53736
-0.560639
0.303334
-0.330231
0.149442
-0.798754
0.649312
-0.274587
0.737175
-0.462588
0.175276
-0.828196
-0.238795
-0.025272
-0.922909
0.63758
0.692003
-0.737576
-0.10167
-0.446186
-0.332127
-0.391445
0.164968
-0.00853889
-0.0179268
0.0264657
1.24155
-0.660727
0.848676
-0.197165
-0.222544
-0.143615
0.36616
-1.17562
0.509637
0.665983
-0.438327
0.261991
-0.2045
1.06579
0.146005
-0.0854818
-0.388032
-0.310869
0.0312556
0.380056
-0.370527
-0.00952931
-0.115285
0.82067
-0.162255
0.356822
-0.194567
0.685382
-1.28435
0.579432
0.704915
0.210713
0.200842
-0.411555
0.566954
-0.245305
-0.321649
-0.498496
0.268054
-0.888373
0.0147457
0.367425
0.885665
-0.971822
0.381833
-0.171022
-0.393392
0.673634
-0.851943
0.607699
0.244244
0.608168
-0.951202
0.343034
-0.685645
0.721072
-0.0354271
0.421215
-0.501948
0.0123
0.232409
0.238236
0.137368
-0.7542
0.327275
-1.00857
0.547767
0.460803
0.230644
-0.868612
0.685603
-0.0435996
-0.567899
0.132434
0.147562
1.0157
-0.335875
-0.679822
-0.209857
0.246473
-0.567006
0.136815
-0.958852
0.920717
-0.78304
0.3329
0.467556
-0.684582
0.384225
0.300356
-0.826995
0.518434
0.308562
-0.235268
0.0532733
-0.141598
-0.99901
0.696822
0.302189
0.600618
-1.09834
-0.873933
-0.0133468
1.17514
-0.403672
0.219028
0.0953898
-0.314418
-0.0198399
-0.122045
0.141885
-0.26065
0.468178
0.527749
-0.428244
-0.256337
0.165296
0.174526
0.221271
0.334606
-0.555877
0.349394
-0.20898
-0.0384352
-1.0593
1.09774
-0.307305
0.401432
-0.763715
-0.572559
-0.416739
0.989298
0.229284
-0.300852
-0.653285
0.202629
0.450656
-0.0453015
-0.0228824
0.0681839
0.715019
-0.84921
0.0492018
-0.406437
0.496031
0.489243
-0.985274
-0.395016
0.0297367
-0.796709
0.222053
0.574656
-0.993493
0.58253
0.495465
-1.0194
0.512378
-0.384369
-0.0389517
-0.00634977
-0.0282441
0.913102
-0.58678
0.727274
-0.140494
0.851349
0.00200088
-0.85335
-0.660053
-0.011831
-0.171184
0.0639303
0.662894
0.104446
0.0269111
0.24601
0.48827
-0.00725499
0.480978
-0.141722
0.103729
-0.829772
-0.0511942
-0.739844
0.275245
-0.753589
0.15818
0.176543
-0.334723
0.784921
0.0459647
-0.830886
-0.0897827
0.0850066
-0.333239
-0.708098
-0.75776
-0.108664
-0.458378
1.18576
-0.315806
0.429155
-0.113349
-0.896402
0.273759
-0.260507
0.481778
-0.280647
-0.622542
-0.445141
-0.305113
0.311845
-0.612635
-0.171887
0.961082
-0.122225
0.587516
-0.276165
-0.31135
0.079175
0.117202
0.230664
0.98556
-0.940473
0.00751191
-0.205386
0.292346
-0.469944
0.483786
-0.422617
-0.5152
0.200248
0.159082
-0.359331
-0.764107
0.0372825
-0.109956
0.732649
-0.622694
-0.0676866
-0.920261
-0.675494
0.807776
1.40228
-0.610866
-0.791418
-0.134079
0.301884
0.772988
-0.412036
-0.360952
0.236145
-0.260339
0.0378171
0.0346899
-0.192107
0.0482471
0.14386
-0.106841
0.49383
-0.508291
1.10891
-0.0290825
-0.127468
-0.254804
-0.0712367
0.326041
-0.0158827
0.730902
0.188898
0.425456
-0.614354
-0.360106
0.539117
0.409582
0.392991
-0.337985
-0.0867195
0.484973
-0.17847
-0.306503
-0.0574246
0.0411195
0.0163051
0.145635
-0.780496
0.634861
-0.881309
0.123549
0.198065
-0.476477
0.751722
-0.00760454
0.24375
0.109388
-0.425194
-0.932048
0.468245
-1.02654
0.329665
-0.414361
0.039704
-0.393496
-0.547868
0.941364
-0.82331
0.165513
0.130614
-0.296128
1.00142
-0.76682
0.778122
-0.554738
0.148892
0.495978
-0.64487
0.200596
-0.359478
-0.531472
-0.169689
0.701161
0.194688
-0.030906
-0.163782
-0.492498
1.09703
-0.604531
0.758123
-0.485277
-0.272847
0.660212
0.0218785
-0.682091
-0.530443
-0.753905
-0.298162
-0.00902819
0.356831
0.581241
-0.0124565
0.0757938
-0.0633372
-0.644154
-0.152555
0.651652
0.563004
-0.503556
0.601309
-0.0977533
-0.297122
0.318794
-0.0334677
0.281815
-0.248348
0.177032
-0.339286
-0.115541
-0.88347
-0.838536
0.233686
0.013411
-0.187652
-0.0235009
0.0677042
0.696018
-0.763722
-0.47352
-0.126116
0.438375
0.357189
0.0619312
-0.214142
-0.0122527
0.201477
-0.189224
0.0786059
-0.333706
0.2551
0.228151
0.258551
0.307813
0.782412
-0.362701
0.837746
-0.436314
-0.0989391
-0.227764
0.326703
0.71134
0.0729081
0.0300537
-0.629958
0.433082
0.299487
-0.31537
-0.501346
-0.608737
1.11008
-0.623159
-0.552461
-1.06896
1.11172
-0.0427573
0.330291
-0.345726
0.280952
0.524855
0.257557
-0.305639
0.174087
0.131552
-0.277787
-0.541182
-0.0976776
-0.527275
0.624953
0.420635
-0.201302
0.390918
-0.271299
0.552106
-0.885345
0.442951
-0.332031
-0.652459
1.16245
-0.509992
0.633049
0.463804
0.282191
-0.745996
1.08738
-0.627942
-0.459433
-0.518498
-0.650176
1.08547
-0.435296
0.30317
0.284346
-0.254687
0.247082
0.399807
0.761934
-0.182676
0.162836
0.0215249
-0.0157104
0.901739
-0.500351
0.437642
0.803911
-0.368827
0.190759
0.178068
0.198204
-0.441665
0.711598
-0.0467343
0.40667
-0.187642
-0.645606
-0.120033
0.765639
0.163724
-0.0304835
-0.13324
0.116783
0.0874739
0.129577
-0.883914
-0.253133
0.27924
0.653889
-0.571011
-0.0828786
0.148013
0.33696
-0.1272
0.0673149
0.227646
0.210096
-0.437743
-0.45342
1.06599
-0.0640315
-0.537362
1.10211
-0.564745
-0.271945
0.386719
0.00460545
0.023284
1.04949
-0.523945
-0.329264
0.283974
0.282979
0.268661
-0.287679
-0.139127
0.119363
-0.273804
-0.116178
-0.00264823
0.369497
-0.134273
0.760144
-0.62587
0.113443
-0.0977001
-0.315171
0.0741841
-0.287561
-0.0106011
-0.847691
0.573353
0.2173
0.210928
-0.372107
0.0381034
0.334003
0.264273
0.038043
0.777645
0.423795
-1.20144
-0.0789252
-0.017846
0.0967712
0.172856
-0.702381
0.920009
0.482275
0.73333
-0.665626
-1.09583
-0.0261758
-0.0196075
-0.0580244
0.431196
0.317823
0.521602
-0.839425
0.337694
-0.0343597
-0.0303575
-0.290943
-0.077884
-0.484562
-0.405407
0.530787
0.494343
0.390054
0.527209
-0.546151
0.0189425
0.15822
0.00674113
-0.0640234
0.217896
-0.0308864
0.671934
0.167468
-0.839402
0.404324
-0.0242684
-0.195779
0.119044
0.0767347
-0.302303
-0.00202742
0.30433
0.280548
0.567852
-0.848399
0.201847
0.26609
0.642632
-0.0163203
-0.229117
0.549342
-0.0610723
0.0659583
-0.0953272
0.0293689
-0.949768
0.506058
0.779085
-0.622314
-0.156771
0.0113283
-0.111187
0.0998582
0.755619
-0.823726
0.486492
-0.0658568
0.359275
0.418847
-0.104077
-0.0121018
-0.406288
0.157664
0.248624
-0.553012
-0.0977442
0.998812
-0.510711
-0.488101
0.496249
-0.0789851
-0.417264
0.375962
-0.639265
0.263303
-0.0814702
0.46371
0.00158418
-0.373066
0.81022
-0.437154
-0.251434
-0.154854
-0.400235
0.238635
0.118186
0.685566
0.00354954
-0.689115
-0.297044
-0.0506559
0.194585
0.06942
-0.0161566
0.333901
0.157667
-0.192869
0.204552
-0.00874623
-0.00948186
-0.128274
0.126755
-0.351858
0.500751
0.0109693
0.198229
0.207754
-0.274616
0.680213
-0.0511459
0.578354
-0.121252
-0.0913817
-0.207413
0.435059
-0.17461
0.86217
-0.68756
-0.743058
-0.101467
-0.625591
0.96404
-0.338449
-0.147695
0.38633
0.273389
-0.0549133
-0.0179391
-0.205878
0.223817
-0.768283
0.244338
0.0864432
-0.102943
0.480832
-1.14245
0.352452
-0.938148
-0.479136
1.03505
-0.438728
0.449259
-0.239163
0.0116711
-0.580136
0.725771
0.000365102
-0.125026
0.13849
-0.484112
-0.0843289
-0.550708
0.635037
-0.198834
0.44866
1.25369
-0.822201
-0.431486
-0.191196
0.0580442
0.178514
0.0188254
-0.197339
-0.720596
0.133816
0.150647
0.0248745
-0.00569126
-0.098406
0.104097
0.402704
-1.02829
0.0775038
0.397932
0.0259366
-0.423868
-0.954675
0.780065
0.11593
0.0313024
-0.147232
0.314483
-0.87462
-0.113283
-0.00219153
0.115474
0.148412
-0.0324818
-0.00412599
0.644182
-0.492476
0.535815
0.436959
-0.235112
-0.806906
0.234347
-0.605109
0.481971
0.123138
0.574305
-1.07565
-0.443477
-0.268996
0.712474
0.059499
0.345635
-0.258138
0.217763
1.05368
-0.151355
-0.902328
-0.010997
-0.818775
0.605551
0.0546613
0.369435
0.403553
-0.127909
-0.0036241
0.112718
-0.241843
-0.297971
0.042119
-0.0380731
-0.00404597
0.0186433
-0.652039
0.633395
-0.0528057
0.252197
-0.199391
0.374638
-0.917919
0.54328
-0.100823
-0.475793
-0.0283727
0.0163689
0.60541
-0.297734
-0.167719
0.465453
-0.317398
-0.356551
0.384255
-0.225173
0.34191
0.0125383
-0.354448
-0.482031
0.109924
-0.62915
-0.11554
-0.0195401
0.13508
0.116057
0.253097
-0.369155
0.333241
-0.775957
0.442716
0.0148076
-0.4811
0.149775
-1.11047
-0.351543
-0.769277
1.12082
-0.847198
0.0372402
0.809958
-1.14773
-0.702133
0.0164883
-0.235198
0.240061
-0.00486216
-1.18339
-0.306242
0.978176
0.326114
-0.165261
0.0761887
-0.283601
-0.140515
0.406606
0.121235
0.0729564
-0.327761
0.0124498
-0.0981187
0.085669
-0.198211
0.0720706
-0.0646769
0.0760052
-0.235289
0.446002
-0.880698
0.539096
0.341602
-0.265808
0.169988
0.51583
0.164707
-0.000983274
-0.193632
-0.112007
-0.425654
-0.227631
-0.470551
0.165426
0.305124
0.00271142
0.333288
-0.336
-0.350917
0.429523
-0.0654271
0.634184
1.05191
-0.863014
0.481323
-0.798721
0.374273
-0.513692
0.139419
0.0800961
1.00992e-05
0.0235065
-0.0032403
-0.934146
0.54065
0.107415
0.388833
0.0126731
-0.159864
0.147191
-1.46086
0.590907
0.0737868
-0.289532
-0.159515
-0.0164817
-0.18137
0.197852
-0.48354
0.185806
-0.967089
0.851549
1.06116
-0.565129
-0.153016
0.13816
0.0148554
-0.0919945
0.0621979
-0.118974
-0.893278
0.255805
0.637473
-0.110888
0.0930424
-0.051806
0.245563
-0.193757
0.301524
0.184968
0.151882
-0.137916
-0.0139656
-0.220829
0.231798
0.0797029
-0.000143533
0.494207
-0.789926
0.937904
0.0444013
-0.534414
-0.127849
0.85113
-0.0320317
-0.819098
-0.202746