/*--------------------------------*- C++ -*----------------------------------*\
| =========                 |                                                 |
| \\      /  F ield         | OpenFOAM: The Open Source CFD Toolbox           |
|  \\    /   O peration     | Version:  2306                                  |
|   \\  /    A nd           | Website:  www.openfoam.com                      |
|    \\/     M anipulation  |                                                 |
\*---------------------------------------------------------------------------*/
FoamFile
{
    version     2.0;
    format      ascii;
    arch        "LSB;label=32;scalar=64";
    class       volVectorField;
    location    "7.3";
    object      U;
}
// * * * * * * * * * * * * * * * * * * * * * * * * * * * * * * * * * * * * * //

dimensions      [0 1 -1 0 0 0 0];

internalField   nonuniform List<vector> 
13486
(
(1.39871 -0.195232 5.98791e-19)
(1.65163 0.298484 2.9605e-19)
(2.66759 0.043298 0)
(-1.54079 0.616434 -9.93843e-19)
(2.30209 -0.473463 1.38837e-19)
(2.49049 0.166481 8.55156e-21)
(2.47786 -0.33019 -1.46206e-21)
(1.94154 -0.694121 -2.77245e-19)
(1.91045 -0.371628 0)
(1.98788 0.784159 0)
(-0.884123 2.49548 -1.12422e-18)
(2.5192 -0.0752154 0)
(1.24239 -0.402857 -5.88593e-19)
(2.45719 0.793242 3.72515e-21)
(2.37841 -0.304117 8.03688e-20)
(1.94429 0.774835 -2.00639e-19)
(0.66112 -0.159546 7.6454e-19)
(0.79525 -0.555602 1.46599e-19)
(2.2053 -0.0141239 2.89917e-21)
(1.58667 -0.036968 -6.12742e-19)
(-1.39615 0.00767446 -3.56017e-19)
(1.26249 -0.41857 7.59184e-19)
(1.67416 0.294473 -2.36654e-19)
(3.66179 -0.8065 0)
(2.04354 0.631003 6.80547e-20)
(3.56275 -0.772665 -3.20851e-19)
(0.38288 -0.178813 8.9603e-19)
(2.89938 -0.203523 5.87732e-19)
(2.03658 0.0863146 0)
(2.70514 -0.45975 -4.24532e-19)
(-0.936087 -0.756635 -1.98111e-19)
(2.43148 -0.233567 -1.2847e-19)
(3.27258 -0.114231 4.81052e-19)
(2.2004 -0.115842 0)
(1.94855 -0.665854 0)
(1.74509 0.00835311 5.63069e-22)
(1.69173 0.17778 -3.20552e-20)
(1.42672 -0.670122 2.90337e-19)
(1.74918 -0.157207 -1.57262e-20)
(1.94457 -0.228607 2.93039e-19)
(2.41464 -0.762896 0)
(0.824877 -0.408021 -6.8444e-19)
(1.99239 -0.00417667 0)
(2.05947 0.525627 -3.22844e-19)
(2.07936 0.524362 1.33006e-19)
(2.52075 -0.0741403 9.27134e-20)
(-0.954023 0.0845789 1.42413e-18)
(2.01902 0.0835377 -2.77187e-22)
(1.7095 0.173409 2.43151e-20)
(2.82649 0.0010045 2.1794e-19)
(1.99984 0.0296897 3.67017e-19)
(1.81226 -0.0397191 0)
(2.55129 -0.160465 -1.38562e-19)
(1.58104 -0.576869 -4.26064e-19)
(0.82975 -0.737797 0)
(2.26963 -0.480975 -9.9404e-20)
(2.26564 0.490317 1.00386e-20)
(1.79965 -0.0781719 -6.88677e-20)
(3.26014 -0.0871923 5.73479e-19)
(1.50747 0.311422 0)
(-0.94592 2.42131 -1.53485e-18)
(1.51825 0.323959 0)
(3.71966 0.481537 -4.28797e-19)
(-1.3174 -0.00557444 -3.66408e-21)
(2.18201 -2.58465 0)
(1.6734 0.210517 -1.65631e-20)
(-1.80349 0.697365 -1.08019e-18)
(1.39743 0.0657093 2.06176e-19)
(1.90789 -0.393549 -1.64903e-19)
(1.65579 0.00979094 1.45727e-20)
(-1.69145 0.694865 1.23783e-18)
(0.84434 -0.68442 6.19813e-21)
(1.97139 -0.110272 2.20699e-19)
(-0.853931 0.135728 -5.11177e-19)
(1.68093 0.299972 -4.2284e-21)
(2.2919 0.464503 -1.74518e-21)
(1.70191 0.291657 9.96598e-21)
(2.3826 -0.319224 -3.19862e-20)
(-0.807244 0.494409 -7.28308e-19)
(1.81951 -0.535484 0)
(1.99026 0.021245 1.02478e-21)
(1.59484 0.40153 -1.88686e-20)
(3.66794 0.419026 -1.30058e-20)
(2.7634 0.0393883 -3.22427e-21)
(1.38969 -0.207359 -1.1717e-18)
(1.30771 1.69433 0)
(1.61507 -0.315712 -7.77004e-21)
(2.00191 0.0452418 -5.56637e-19)
(1.8632 0.22542 -2.42154e-19)
(1.82897 1.04646 -2.27888e-19)
(2.48728 -0.240924 -8.32715e-20)
(2.07593 -0.580375 -1.39852e-19)
(1.45509 -0.303794 1.5321e-19)
(1.63656 0.0975645 1.61531e-20)
(1.79214 -0.551408 6.65783e-20)
(2.00751 0.0724327 7.71061e-23)
(0.329684 -0.1383 0)
(-2.18059 0.699498 7.3373e-19)
(1.961 -0.225837 -5.5951e-19)
(0.826062 -0.123823 7.23387e-22)
(1.91377 0.0192313 0)
(2.42497 0.788026 -2.17503e-21)
(-2.24239 0.576136 5.21615e-20)
(1.79573 -0.0666109 8.06697e-20)
(1.2777 1.64467 0)
(0.846704 -0.042727 3.11317e-21)
(1.97192 0.0679668 4.53503e-22)
(1.75956 -0.18646 -3.52068e-20)
(-0.861346 0.430321 9.777e-19)
(1.74085 -0.785626 0)
(1.22315 -0.588166 0)
(2.43428 -0.265024 -1.11224e-19)
(1.59096 -0.559204 3.54798e-21)
(2.26327 0.258059 2.76357e-22)
(1.02565 -0.0347054 0)
(1.17051 -0.57956 -2.44899e-19)
(2.03839 0.648342 0)
(2.31055 -0.0939135 0)
(1.96043 -0.111957 0)
(1.76896 0.150685 -1.21902e-20)
(0.862642 -0.525665 -6.46361e-20)
(-1.21132 2.47252 0)
(1.77093 -0.499007 0)
(1.75431 -0.164119 5.06197e-20)
(1.83418 -0.641315 0)
(1.80028 -0.0355413 0)
(2.17821 -0.243436 6.09549e-21)
(2.20765 0.07771 1.26311e-19)
(1.90384 -0.0547635 -6.03194e-20)
(2.29235 -2.28384 -3.7554e-19)
(1.79528 -0.0238449 -8.3533e-21)
(-1.11631 -0.0674089 -3.56864e-19)
(0.50655 0.544646 9.63834e-19)
(-0.231914 0.161355 6.5609e-19)
(1.99955 0.0154986 -5.9786e-20)
(1.89488 0.436621 -2.82552e-19)
(0.603034 0.75714 -1.71987e-19)
(1.76351 -0.780041 0)
(1.77986 0.143772 3.33721e-21)
(1.97127 -0.548928 -1.01403e-19)
(3.09315 0.020556 -4.90583e-19)
(2.54868 -0.172318 1.16756e-19)
(2.46235 -0.185921 0)
(1.84641 -0.511004 0)
(2.09902 0.00287417 1.22769e-21)
(4.06068 0.333108 -9.10128e-19)
(2.12052 -0.206095 -6.67298e-21)
(0.246326 1.71394 0)
(2.83331 0.0181701 0)
(2.04044 0.0804481 0)
(2.01123 0.0218606 5.82589e-21)
(2.39616 -0.379171 0)
(1.98136 0.0124194 -1.07572e-21)
(1.57046 0.40142 -1.60682e-19)
(2.20173 0.334031 0)
(2.83273 0.0617238 0)
(1.56508 -0.708301 0)
(-0.399981 0.185796 8.2885e-20)
(1.68796 -0.673307 5.94862e-19)
(2.09993 -0.612684 -3.88343e-19)
(2.70252 0.0157389 1.17952e-19)
(1.69486 -0.651493 -9.02279e-19)
(2.35179 -0.258708 6.48592e-20)
(0.73257 -0.348075 3.00196e-19)
(1.81601 -0.0503257 0)
(2.5684 0.783949 -5.04005e-20)
(2.37523 0.720839 5.84661e-20)
(0.391517 -0.101756 -7.33008e-19)
(2.10188 -0.184056 1.38102e-20)
(-0.246601 0.175968 1.77358e-19)
(0.347764 0.490383 1.65803e-20)
(2.19602 0.306252 1.06873e-19)
(1.99755 0.0901136 -4.61089e-19)
(2.31046 -0.179569 9.1152e-21)
(1.97792 0.0383012 2.06542e-23)
(-2.05455 0.275617 0)
(2.43231 1.12294 3.24668e-20)
(3.20462 0.0837853 6.54605e-19)
(1.97978 0.0629479 -5.85444e-19)
(2.46346 -0.172761 0)
(1.98635 -0.277406 5.81457e-19)
(2.26289 0.234843 7.73072e-22)
(2.37678 -0.179146 -3.55296e-21)
(-1.46751 0.974537 0)
(2.68049 -0.0284427 1.46864e-20)
(2.6969 -0.188826 -2.65111e-19)
(2.0871 0.077664 -2.49338e-22)
(2.65651 -0.312666 -1.24463e-19)
(2.44764 -0.744609 0)
(1.04859 -0.506449 -3.18038e-19)
(1.74449 0.175032 0)
(2.45698 0.053089 0)
(1.84139 -0.125806 0)
(1.26716 0.870441 -3.35139e-19)
(1.8849 -0.156056 0)
(-1.18138 2.49381 -3.19477e-19)
(2.20713 -2.56664 8.22829e-19)
(2.59796 -0.00480061 6.85086e-20)
(1.05028 -0.518548 -1.27711e-19)
(2.5469 0.743256 -1.41061e-20)
(-0.981494 -0.794057 1.99048e-19)
(2.22017 0.0978481 -3.8088e-21)
(1.3097 -0.632849 -3.35509e-19)
(1.66191 -0.71667 2.47379e-20)
(2.08186 -0.491188 4.72228e-19)
(1.90593 -0.145846 -6.1858e-20)
(0.467482 -0.676105 4.40203e-20)
(1.8891 -0.0390031 4.60097e-19)
(1.82832 -0.131743 0)
(2.69368 -0.0113386 0)
(2.88957 -0.219477 4.24684e-19)
(3.31251 -1.27244 6.14614e-19)
(1.60602 -0.0220389 5.60828e-19)
(1.966 0.0669023 5.18158e-22)
(2.48738 0.210335 -9.8506e-21)
(2.14551 -0.738225 4.5727e-20)
(2.74928 -0.408022 0)
(1.82574 1.03049 5.6587e-19)
(1.53625 -0.333363 0)
(3.19314 0.818963 0)
(0.846311 -0.134518 -1.46624e-18)
(2.86375 0.051766 0)
(1.95371 -0.544328 2.34766e-19)
(2.6801 0.0306599 0)
(2.59864 -0.167539 -2.28104e-20)
(1.20448 -0.56558 2.09888e-19)
(2.61835 0.373227 -4.51128e-21)
(-1.31156 -1.37993 2.62009e-19)
(2.08924 -0.483104 7.08151e-21)
(1.64283 -0.309451 -3.34275e-21)
(2.00091 -0.270536 -1.86982e-19)
(1.45331 -0.169794 2.33132e-19)
(3.12991 -0.00460241 6.14416e-19)
(0.845755 -0.408506 2.34605e-19)
(-1.97989 -0.0169511 0)
(1.02101 -0.49689 2.46531e-20)
(2.52515 -0.246159 2.11553e-19)
(2.46247 0.0360617 1.78165e-22)
(0.890775 -0.430548 6.68479e-19)
(2.37523 -0.113641 0)
(3.32559 -0.130622 0)
(2.00402 0.0654859 7.04142e-19)
(2.33142 0.161966 0)
(0.899587 -0.4466 2.2142e-19)
(1.69037 -0.213133 -3.13829e-20)
(1.80043 0.0868467 0)
(2.25088 -0.0126626 -4.11839e-20)
(3.10111 -0.690103 8.86558e-19)
(-0.227646 -0.103939 1.09656e-18)
(2.02328 0.501725 0)
(-2.68928 1.24673 -4.25932e-19)
(0.989156 -0.00495865 8.74401e-20)
(0.987342 -0.48498 3.07654e-19)
(1.76541 -0.192037 0)
(1.97147 -0.458557 4.26923e-20)
(-1.80604 0.406213 3.76599e-19)
(2.43295 -0.234155 1.08626e-19)
(2.10921 -0.759267 -5.78827e-20)
(-0.277739 0.213218 -8.64352e-20)
(3.30541 -0.143843 4.15721e-19)
(1.76898 0.243702 0)
(1.67843 -0.203703 -4.34338e-22)
(2.37689 -0.310847 -1.90768e-19)
(-2.16172 0.591577 -4.67057e-19)
(2.20211 -0.695148 -1.45637e-19)
(-1.5073 1.10356 0)
(2.11043 -0.468216 -1.09309e-19)
(-1.30961 -0.55663 -3.46148e-19)
(2.12934 -0.00937743 -2.55134e-19)
(1.21758 -0.420196 0)
(1.51904 0.947535 2.42913e-19)
(1.97264 0.0696359 -1.59833e-19)
(2.7753 -0.428607 0)
(2.55714 -0.11111 7.63608e-20)
(1.1341 -0.544995 2.77807e-19)
(3.00668 -0.703221 -4.9504e-19)
(1.97877 -0.421129 0)
(1.08495 -1.32247 0)
(1.78311 -0.216974 -3.81641e-20)
(2.21847 -0.192484 1.99108e-20)
(1.09768 -1.41324 1.20607e-19)
(2.11266 -0.185455 -2.10823e-19)
(1.93916 0.0900204 3.46789e-19)
(4.32649 -0.265307 -7.86365e-19)
(-1.54137 2.40976 1.81912e-18)
(0.452727 -0.304956 1.47059e-18)
(3.06958 0.104816 4.94111e-19)
(1.84632 -0.074379 7.91008e-20)
(2.68193 -0.166937 3.34452e-20)
(2.10386 -4.6916e-05 0)
(-1.95914 0.160416 0)
(1.43408 -0.154366 4.40945e-20)
(1.2036 -0.580942 2.42822e-19)
(1.99757 0.0229891 -5.87827e-20)
(2.5572 -0.234754 1.96667e-19)
(2.594 -0.282665 0)
(2.09899 -0.0364082 -1.56214e-19)
(2.57006 -0.0936089 -5.87733e-20)
(1.93059 0.0753341 -3.17557e-19)
(2.52957 -0.459809 -2.96197e-21)
(1.95521 -0.221091 -7.84672e-20)
(0.548827 -0.692201 7.19408e-21)
(2.26464 -0.181029 -1.71207e-20)
(2.42127 -0.234815 1.23092e-19)
(1.73989 0.123254 5.94461e-21)
(1.36647 -0.62293 0)
(0.661093 -0.0531165 0)
(2.21695 -0.0334898 8.40356e-20)
(1.64601 -0.33169 9.76657e-21)
(1.72705 0.180748 0)
(1.84009 1.2706 -1.21476e-18)
(-1.46661 0.655914 0)
(2.33298 1.09664 2.06673e-20)
(2.43659 -0.266411 -1.19778e-19)
(1.85063 1.45864 0)
(1.88315 0.428663 -1.74599e-19)
(1.36232 -0.169995 -6.65254e-20)
(1.86098 0.212611 -2.07325e-20)
(1.88463 -0.0322438 -5.08116e-19)
(2.18065 -0.47648 0)
(1.69294 0.20946 3.01814e-20)
(1.53972 -0.115337 -1.70642e-21)
(1.9891 0.0604178 7.40031e-20)
(1.6192 0.143561 -3.03291e-19)
(0.706454 0.731047 3.18855e-19)
(2.47295 -0.237301 1.61635e-19)
(2.21171 -0.338348 -5.36734e-19)
(2.12973 -0.18406 0)
(2.62971 -0.0803467 1.38919e-21)
(2.24527 -0.343803 -9.22224e-20)
(2.00105 0.0309912 8.06867e-19)
(2.10397 -0.582382 0)
(2.46934 -0.257031 -4.02948e-20)
(1.42154 0.402496 0)
(2.49071 -0.332052 -6.37328e-20)
(1.8704 -0.516619 -1.79132e-19)
(0.647526 -0.302411 2.81578e-19)
(2.37912 -0.396867 -1.13343e-19)
(2.02109 0.198437 0)
(1.66107 -0.213794 -4.96711e-20)
(2.14387 -0.482942 1.19667e-19)
(1.62982 0.151034 2.86389e-19)
(2.26084 -0.348269 3.70538e-19)
(2.36884 -0.181008 1.90344e-19)
(-2.37074 1.82712 -1.19504e-18)
(2.01693 0.0789766 1.08166e-22)
(2.23084 -0.174625 0)
(0.973829 -0.335078 6.78004e-19)
(3.21114 0.788086 0)
(1.45516 -0.185096 2.25193e-21)
(2.27561 -0.0896312 3.45701e-19)
(2.60128 -0.0936658 -5.59324e-20)
(2.56345 -0.109359 5.82426e-20)
(0.256889 -0.064378 -1.05846e-18)
(1.93931 0.0747164 3.96277e-19)
(1.92248 0.0248866 0)
(-0.635687 0.341524 -4.77228e-19)
(2.18945 -0.246113 -1.19843e-19)
(1.66859 -0.324958 -7.74177e-21)
(3.12879 -1.28297 5.01847e-19)
(2.43438 -0.0184289 0)
(2.54249 -0.245405 1.08435e-19)
(1.78814 0.170991 6.16338e-19)
(1.96927 0.0783328 4.86327e-19)
(2.7343 -0.480967 0)
(1.97964 0.0027559 -3.0732e-22)
(2.6149 -0.272107 -1.98702e-19)
(-1.40241 -0.534772 2.21207e-19)
(1.56911 -0.0371163 7.79035e-20)
(2.1962 -0.212223 1.13934e-19)
(2.03709 0.00704231 -1.27066e-21)
(2.22451 -0.167464 0)
(2.59107 -0.157327 -7.74143e-20)
(-2.70891 1.40414 4.45935e-19)
(2.46039 0.428954 1.0565e-22)
(1.99778 0.0288935 3.09348e-19)
(1.38362 0.0285243 0)
(1.56814 -0.188702 -6.23799e-20)
(1.96421 1.47376 0)
(3.3142 1.30859 -2.75747e-19)
(2.13802 -0.0280283 0)
(2.09442 -0.676054 -6.89016e-21)
(1.29763 -0.0955685 -1.6628e-19)
(1.50664 0.876834 5.80257e-19)
(-1.32563 -0.271715 -8.20384e-19)
(2.01275 -0.417255 0)
(2.39511 0.0647009 -7.72824e-20)
(2.02801 0.206806 -1.85399e-19)
(0.978331 -0.510827 -4.42235e-19)
(-0.773491 -0.299672 2.34921e-20)
(1.63452 -0.0382302 -8.4586e-19)
(2.82977 -0.376909 2.06764e-19)
(2.09808 0.203441 1.32123e-19)
(1.42957 -0.444013 0)
(1.3448 0.332837 3.28081e-19)
(1.80796 0.158567 -7.99094e-21)
(-1.66053 0.696486 5.90079e-19)
(-2.7374 1.34527 -1.49496e-18)
(1.13654 -0.408303 -9.14214e-19)
(3.10213 0.0828509 0)
(1.06128 -0.486192 0)
(2.00191 1.2132 0)
(2.10504 -0.0831959 0)
(0.841953 -0.154808 -1.18982e-19)
(2.46177 -0.309186 0)
(1.52784 -0.207356 0)
(1.6576 0.113977 1.17606e-19)
(3.19663 0.101926 -6.78918e-19)
(2.19967 -0.160761 -2.80278e-19)
(1.69494 0.343547 1.01066e-18)
(2.00622 0.0224368 -9.50304e-20)
(2.32423 1.74669 0)
(2.89016 -0.298221 0)
(1.92205 0.0791975 3.39028e-19)
(2.02325 0.0520954 6.03161e-20)
(1.28243 0.924457 0)
(-1.54248 0.94964 1.21835e-18)
(2.18414 -0.711872 1.63917e-19)
(-0.300908 0.135335 0)
(2.37066 -0.114003 1.90903e-19)
(1.9754 0.0626002 -3.92517e-19)
(0.306391 0.0301847 -6.07802e-20)
(0.968909 -0.32057 0)
(2.01142 0.212429 3.45524e-19)
(2.66471 0.209567 0)
(2.64843 -0.305413 0)
(2.23011 0.209037 -1.77247e-20)
(1.9345 0.0952873 1.82401e-19)
(0.385661 -0.18053 -1.15954e-18)
(2.33212 0.710375 3.27749e-20)
(1.31421 -0.327533 -2.91755e-19)
(2.10991 -0.0735053 3.74529e-20)
(2.1021 0.197965 1.03274e-19)
(2.69622 -0.158397 1.94205e-19)
(2.28407 -0.687959 0)
(3.1485 -0.561434 4.38649e-19)
(1.30833 -0.0370087 0)
(1.49852 -0.164653 3.65441e-20)
(2.29383 -0.18533 0)
(1.42179 0.0803275 4.36754e-19)
(-0.623442 -0.264767 -1.33236e-18)
(2.79086 -0.363444 0)
(-0.201075 0.124288 2.95505e-20)
(2.90177 -0.330597 -4.5323e-19)
(1.74835 -0.296892 -2.64212e-20)
(1.75882 -0.254477 7.83374e-19)
(1.39917 0.863256 -3.65092e-19)
(1.30511 -0.315371 -8.32105e-19)
(3.46893 1.28557 0)
(1.75511 0.146702 1.27998e-20)
(-2.31856 1.92662 -3.00798e-18)
(2.01615 0.22035 0)
(1.84146 0.239144 2.25739e-20)
(2.94271 -0.029592 -4.61319e-20)
(2.72749 1.18719 0)
(2.00339 0.0187613 0)
(-2.17769 1.12388 0)
(-1.78906 -0.153364 1.69465e-18)
(4.236 -0.348066 9.50286e-19)
(3.7188 0.391855 2.92148e-20)
(2.29873 1.05035 0)
(1.69765 -0.15714 5.40763e-19)
(1.97035 0.0380719 -7.88833e-23)
(2.32962 0.655129 -6.63322e-20)
(-1.4156 0.323109 6.81382e-19)
(1.90844 0.171739 0)
(2.02579 0.0818919 0)
(0.701847 -0.0910973 -4.62906e-19)
(1.40305 -0.435006 -2.02658e-19)
(1.95123 -0.171147 0)
(1.26993 -0.61437 -2.18047e-19)
(1.94609 0.0199011 9.16957e-22)
(2.00828 0.0632494 -1.90196e-22)
(0.729205 -0.337239 0)
(1.92984 -0.0466098 7.85764e-20)
(1.79091 0.141638 8.65995e-21)
(2.66137 0.187221 1.10703e-19)
(1.85275 -0.535213 0)
(0.463006 -0.259373 -2.21375e-18)
(2.58007 -0.0971023 6.40949e-20)
(2.00177 0.0937441 7.26261e-20)
(1.87496 0.0344849 4.30678e-21)
(2.64013 0.771196 0)
(1.66861 0.33795 -2.69269e-19)
(3.17926 0.547342 -2.30963e-19)
(1.10007 -0.316988 1.89634e-19)
(2.00871 0.0534959 0)
(-0.834852 -0.345504 -2.4026e-20)
(0.437449 -0.0689776 0)
(2.00488 0.0503101 -2.81865e-19)
(1.99126 0.0713318 1.22114e-19)
(1.87702 0.0557458 -6.61544e-20)
(-2.04744 0.145113 0)
(2.31528 0.0321495 -1.61752e-20)
(1.06777 0.484041 8.94746e-19)
(2.25227 -0.68329 0)
(1.62429 0.101095 3.66305e-19)
(2.50155 -0.478039 3.51056e-21)
(2.21172 -0.0165495 0)
(-1.32432 -0.705771 1.8929e-19)
(1.83733 -0.48796 -6.96373e-20)
(2.04856 -9.73422e-05 0)
(0.71191 0.0255211 1.41899e-18)
(1.82961 0.227004 0)
(1.65705 -0.75551 2.3606e-19)
(-2.7322 1.14007 8.93504e-19)
(2.0863 0.0862603 2.66234e-22)
(2.51233 0.1705 -3.89825e-20)
(1.33657 0.3128 1.73485e-19)
(1.75211 -0.282337 -2.88649e-19)
(2.015 -0.380182 -4.7414e-20)
(1.69748 -0.763379 3.00186e-21)
(2.17893 -0.217466 1.11915e-19)
(2.62719 0.777317 1.1083e-19)
(1.81443 -0.800806 0)
(1.99677 0.0244868 -2.74327e-19)
(0.000451402 0.215029 -5.0263e-19)
(1.33524 -0.0490225 0)
(1.83347 0.228292 -1.65154e-21)
(1.61414 0.00697377 0)
(1.19325 -0.340676 7.18885e-19)
(2.06558 -0.747213 0)
(1.79679 0.00106607 -3.57945e-21)
(2.28648 -0.0865361 -1.97013e-19)
(-1.27396 -0.987885 3.53269e-19)
(-2.34291 1.17932 1.26826e-18)
(2.32692 -0.0219457 -1.70563e-21)
(1.31027 -0.618706 1.76034e-19)
(1.75682 -0.493789 2.70431e-19)
(1.45045 -0.311681 0)
(-0.366755 0.294408 -6.58302e-19)
(2.30479 -0.621589 -3.46591e-20)
(-0.384373 0.392893 -7.73802e-19)
(2.00988 0.0738311 5.53078e-23)
(1.41034 -0.546211 0)
(2.23664 -0.019941 -1.4953e-21)
(-1.64671 1.10896 0)
(-2.32424 0.585831 5.38789e-20)
(0.312715 -0.0507255 7.53268e-20)
(-0.132184 0.176524 0)
(2.04374 -0.507414 7.40563e-20)
(2.15501 -2.65933 0)
(2.74384 1.09877 0)
(1.43259 -0.677258 -3.11516e-19)
(1.45148 0.371537 2.66921e-19)
(1.65992 -0.612596 0)
(1.79516 0.1961 -1.69492e-19)
(3.63328 0.412214 9.37933e-19)
(-2.68709 1.53762 2.07627e-18)
(2.71629 1.45565 0)
(2.18387 -0.0454831 0)
(-2.19941 2.00807 -1.31319e-18)
(1.87922 -0.102743 0)
(2.72164 0.0260435 0)
(-1.08083 2.39153 -2.17439e-20)
(2.04392 -0.366725 -3.65612e-19)
(1.72256 -0.406502 2.36466e-19)
(3.35542 -0.215867 6.06533e-20)
(-0.529789 0.458897 1.42798e-18)
(1.99211 0.060539 1.39368e-19)
(1.48543 -0.345767 0)
(2.18251 0.503036 -5.22504e-20)
(1.38581 -0.177592 0)
(2.41367 0.0402511 0)
(1.99999 0.118021 0)
(2.22038 0.189871 -1.45057e-20)
(1.86794 -0.0289238 2.36433e-19)
(2.30052 0.108481 -2.76579e-21)
(1.52838 -0.351767 0)
(0.33428 -0.141956 -8.55823e-19)
(2.03695 1.15409 8.44976e-20)
(1.83288 -0.655636 2.464e-20)
(2.02898 -0.10008 -1.28446e-19)
(2.97094 -0.698265 7.91541e-19)
(2.03969 0.0684789 -2.26235e-19)
(-0.625187 -0.324567 0)
(2.56476 -0.0976414 0)
(1.41724 0.879844 0)
(1.16476 -0.524235 -5.11994e-19)
(-0.0103745 -2.04126 -3.77747e-19)
(0.392069 0.144569 0)
(2.2078 0.516657 0)
(2.61269 -0.188932 8.97025e-20)
(1.94681 -0.0346556 -5.90656e-20)
(1.89566 0.657665 2.93199e-19)
(1.66479 -0.708706 0)
(-1.27207 1.85115 -3.48208e-19)
(2.43516 0.0727232 2.48878e-20)
(1.37228 -0.398682 -4.85712e-19)
(2.26331 0.0683491 -7.98502e-20)
(2.32083 0.661015 1.15425e-19)
(3.99596 -1.4972 8.81962e-19)
(1.1629 -0.528416 8.95074e-19)
(2.13855 -1.19308 2.66473e-19)
(2.28807 0.231699 6.8333e-22)
(1.99995 0.0142356 -6.89156e-20)
(1.15289 -0.537173 -6.77171e-20)
(1.85163 -0.462039 2.95324e-20)
(1.59921 2.12787 -1.21359e-20)
(1.28541 -0.612817 1.13626e-19)
(2.63116 -0.065719 0)
(1.64456 -0.256022 -5.93463e-22)
(2.21513 -0.0432761 -2.56311e-19)
(2.95779 0.826193 1.14576e-19)
(1.34257 -0.361989 -4.44249e-19)
(1.81524 -0.627586 -2.7139e-19)
(1.94376 -0.0102485 5.62582e-19)
(2.37892 -0.0565443 -3.21179e-19)
(1.37086 -0.168671 -4.45254e-20)
(3.06055 0.120979 -2.60225e-19)
(1.11394 -0.13783 -9.83329e-19)
(2.14253 -0.0267235 -2.00637e-19)
(1.09673 -0.203537 0)
(-1.35793 -1.10311 -1.09169e-18)
(1.89744 0.0349968 5.41416e-19)
(1.58547 -0.00572976 -9.65277e-22)
(-0.893862 0.0526532 0)
(1.53137 -0.698006 0)
(2.03315 0.464364 2.58856e-19)
(0.97454 -0.131403 6.11289e-19)
(2.02225 -2.40439 -1.60507e-18)
(2.11914 -0.670779 -1.17015e-19)
(2.22702 -0.350996 2.91874e-19)
(3.27599 0.763045 0)
(2.04389 0.505658 1.40969e-19)
(0.644862 -0.580798 -3.44947e-21)
(2.48807 1.12432 5.91014e-20)
(1.97004 -0.253442 -3.34564e-19)
(-0.713375 0.66013 -2.33283e-18)
(2.90465 -0.692254 -7.53635e-19)
(3.20554 -0.604587 2.39629e-19)
(2.25399 1.26538 0)
(2.32024 -0.445969 -9.07203e-20)
(1.88846 0.0527713 6.03348e-20)
(1.97993 0.0271689 3.24141e-22)
(0.761784 -0.367514 8.25514e-19)
(1.95031 -0.250913 5.01395e-19)
(1.45812 -0.359233 1.78854e-19)
(-2.73306 1.47535 -1.20032e-18)
(2.44683 -0.207116 -2.1036e-19)
(2.2757 -0.0239415 1.78815e-19)
(-1.42842 2.38588 -2.22436e-19)
(2.39787 1.07042 2.00674e-21)
(0.788236 -0.0608982 -1.53745e-18)
(0.921718 -0.4501 -2.67447e-19)
(1.9927 0.0207411 0)
(2.2845 0.417243 2.56008e-21)
(-1.82344 1.93186 -9.75871e-19)
(1.29036 -0.123068 8.93753e-19)
(2.12582 0.0666541 0)
(2.03042 -0.229317 7.45048e-20)
(1.13161 -0.469363 2.03943e-19)
(1.99298 0.0438907 -5.97328e-19)
(-2.46156 1.59152 -1.221e-18)
(1.66638 -0.596384 -1.25254e-20)
(2.20944 -0.17055 1.90454e-19)
(2.34965 0.0671767 1.10727e-19)
(1.67755 -0.764719 -3.23082e-19)
(2.31527 0.158964 3.39474e-21)
(0.10189 -2.25195 -1.37877e-18)
(2.124 -0.0425692 2.40457e-19)
(2.1088 -0.0629242 -1.6215e-19)
(2.16401 0.103465 -6.58126e-21)
(2.12977 -0.0328256 -3.52416e-19)
(1.06774 -0.474601 -3.93961e-19)
(2.28445 0.214068 0)
(-2.05993 -0.398599 1.1125e-18)
(2.11023 0.0737417 4.36829e-20)
(0.762336 -0.00877412 -8.59656e-20)
(2.45995 0.0329122 -2.29457e-20)
(2.17469 -0.371038 -1.82897e-19)
(2.00022 0.0182073 -4.73338e-19)
(2.10661 0.340575 7.84618e-20)
(-1.6681 1.09591 -1.25824e-18)
(2.7353 0.0314633 0)
(1.59679 -0.172141 3.18275e-20)
(2.61364 -0.0994064 5.72474e-20)
(1.42109 -0.533006 0)
(2.15558 0.0801035 1.44617e-19)
(2.63052 -0.0824558 6.13472e-20)
(2.70766 0.038098 2.44647e-24)
(2.4565 -0.755145 5.13487e-20)
(1.94749 -0.140639 0)
(1.77439 0.378085 4.9342e-19)
(2.13441 0.684547 -2.18927e-19)
(1.25358 -0.605172 2.58302e-19)
(2.0186 -0.169643 0)
(1.44693 0.326962 -7.72048e-19)
(0.936651 -0.438663 -6.87699e-20)
(2.47959 1.5509 -2.20013e-19)
(1.12439 -0.162891 9.5535e-19)
(2.12941 0.00342993 5.41251e-21)
(-2.44019 1.26812 1.03663e-18)
(1.94047 -0.0901619 -3.61653e-19)
(3.14696 -0.438872 -6.03026e-19)
(1.774 0.166955 -3.56145e-19)
(1.96088 0.00601731 0)
(2.00016 0.0332821 -2.60115e-19)
(0.21276 -0.0937996 5.57747e-19)
(-0.453638 0.374533 0)
(3.49888 -1.13396 0)
(1.97796 0.0272982 0)
(0.956372 -0.244361 0)
(2.05607 0.338474 0)
(1.05001 -0.130291 0)
(2.23845 -0.735827 -8.24811e-21)
(3.84022 0.258494 -5.60179e-19)
(2.64831 0.40241 0)
(1.75311 0.378902 7.43203e-19)
(1.25694 -0.480463 8.92226e-20)
(2.08853 0.209873 6.40677e-21)
(-1.57959 2.09709 -4.36571e-19)
(1.06458 0.106425 -1.709e-21)
(-1.89865 1.22211 1.0759e-18)
(1.7931 0.000587328 -1.30355e-19)
(2.84428 -0.0174752 3.16621e-20)
(2.03138 0.320453 -1.7855e-19)
(1.86492 0.203095 -4.81719e-19)
(1.97185 1.0745 -2.05347e-19)
(3.32548 1.25619 0)
(-1.12304 -0.0628352 8.42745e-20)
(1.21512 -0.356418 -7.8762e-19)
(2.01056 0.0271989 -8.01784e-19)
(2.3171 -0.630978 -1.60882e-19)
(1.98317 -0.0293468 5.54644e-20)
(2.64524 -0.535076 -8.01578e-20)
(2.11761 -0.286645 -4.14158e-20)
(2.0586 -0.496401 -2.55825e-19)
(2.02881 0.184877 1.93022e-19)
(1.77331 1.14869 0)
(1.99268 -0.337718 -4.31254e-20)
(1.67671 0.0928071 -1.08946e-19)
(2.4677 -0.290406 0)
(1.80108 -0.190453 0)
(1.73595 -0.790569 -4.04752e-21)
(-2.47745 1.17575 1.09486e-18)
(2.19732 -0.7666 -2.44231e-19)
(1.73892 -0.0107381 0)
(1.90856 -0.0419366 -4.80702e-19)
(1.7974 0.238077 -9.33088e-20)
(-2.09233 -0.529587 5.88627e-19)
(2.67058 -0.0319641 2.02647e-20)
(-2.08737 1.29255 0)
(-1.21582 0.0151081 1.17128e-19)
(2.65778 -0.0617875 0)
(2.29348 -0.469247 9.52224e-20)
(2.50472 -0.244713 -8.36298e-20)
(1.99983 0.0298003 -1.80786e-22)
(2.39072 0.733257 -1.03482e-19)
(2.70364 1.33757 -3.24281e-20)
(1.70857 -0.47263 5.64308e-19)
(-0.337654 -0.686924 0)
(1.73633 -2.33805 -6.42761e-19)
(1.33977 -0.813954 0)
(2.71209 0.390499 -4.97049e-20)
(-2.15977 -0.297373 1.03494e-18)
(3.43545 -1.08905 6.72213e-19)
(1.63277 -0.170699 -3.07222e-20)
(-1.65337 0.78659 -2.49727e-18)
(1.07841 -0.531079 -2.98279e-19)
(1.26006 -0.365162 -4.55645e-19)
(1.79562 0.160427 2.90078e-21)
(1.94356 -2.13766 5.29894e-19)
(1.10927 -0.489277 3.24035e-19)
(1.31983 -0.392983 4.98458e-19)
(0.0659225 -1.95765 4.72724e-19)
(2.46865 -2.23653 -3.74798e-19)
(1.81072 -0.553303 2.72886e-19)
(-1.35013 -0.472488 9.34477e-19)
(2.30193 0.0223983 9.28758e-22)
(1.25714 -0.517962 -7.42032e-20)
(2.36297 0.457056 -4.60198e-20)
(2.24483 -0.503135 0)
(0.930838 -0.283137 -1.80627e-18)
(2.10817 -0.0392618 -3.09241e-19)
(1.99717 0.127082 0)
(2.68035 0.365036 0)
(1.17157 -1.6876 -2.06944e-19)
(3.45851 -0.402039 -6.37678e-19)
(2.47687 0.238557 1.45772e-20)
(2.04003 -0.357815 4.78951e-19)
(1.95265 1.03489 1.87873e-19)
(1.41523 -0.0163655 3.58231e-19)
(-2.32317 0.0105791 -8.38261e-20)
(1.77885 0.67417 0)
(1.35103 -0.425304 4.75795e-19)
(-0.594961 2.10153 2.06272e-19)
(-1.92546 0.783467 1.90112e-18)
(1.68472 -0.634881 9.19085e-20)
(1.46859 -0.659243 -2.90232e-20)
(1.68443 -0.00903046 1.88361e-19)
(1.72666 -0.16111 1.69793e-20)
(2.66976 -0.456377 4.45092e-19)
(-2.34845 -0.101222 -8.15559e-19)
(2.45606 0.231626 -8.23917e-21)
(1.94674 0.0703098 1.97147e-19)
(1.0911 -0.191874 -3.92146e-19)
(1.88529 -0.0776907 2.98104e-19)
(1.26368 -0.187971 0)
(2.45973 0.4223 8.07178e-21)
(1.98492 0.0635035 4.41508e-20)
(1.43796 -0.277274 -1.53315e-19)
(1.83605 1.9185 3.09987e-20)
(1.78114 -0.540953 2.05615e-19)
(2.07973 0.0321963 8.30828e-20)
(1.34398 0.16461 -5.92571e-19)
(2.45958 -0.304811 0)
(1.61993 -0.137699 -5.60276e-20)
(2.27741 0.0902231 1.08426e-19)
(2.16556 -0.114376 0)
(1.37532 0.0543097 3.37282e-19)
(2.67252 -0.0314188 0)
(1.73689 1.91676 1.21545e-19)
(2.32568 -0.0318145 0)
(1.99198 -0.371526 0)
(2.54369 -0.041353 4.68784e-20)
(2.44596 0.181787 1.08706e-20)
(3.05586 0.279505 -3.88746e-19)
(1.91548 0.159442 -2.20219e-19)
(1.55762 1.25564 -1.50154e-19)
(2.00142 0.101295 -8.84861e-20)
(2.08609 0.345393 0)
(-0.0503297 0.459503 -7.06982e-20)
(2.56193 0.160992 6.02963e-20)
(2.24932 -0.454198 -1.94084e-19)
(2.24267 -0.498487 0)
(2.99313 0.81008 1.75846e-19)
(2.18255 1.74078 9.90272e-21)
(2.27799 0.0119076 6.18858e-21)
(1.7353 -0.588924 0)
(-0.752674 2.3017 1.36743e-18)
(2.04955 0.180858 0)
(2.68702 -0.396072 -2.20287e-19)
(-0.183708 -0.0485911 0)
(2.37418 0.218525 0)
(2.10745 -1.31039 0)
(2.01859 -0.742369 0)
(-1.1667 2.43077 -1.70501e-19)
(-1.66568 -0.431632 -3.62351e-19)
(1.85742 -0.0242956 -3.54873e-19)
(-1.48218 -0.878941 -4.84093e-19)
(1.19339 -0.517858 0)
(-1.14076 -1.4339 -4.54724e-19)
(-0.375759 -0.102024 -1.08158e-18)
(1.44721 -0.67943 0)
(1.42579 -0.499369 -5.03749e-19)
(1.67895 0.33175 -4.72314e-21)
(2.34884 0.441459 1.10288e-19)
(2.43222 -0.770903 2.43717e-21)
(1.85222 0.189485 0)
(2.19533 -0.66532 0)
(3.43694 0.444689 1.86542e-19)
(1.84867 -0.417857 7.88815e-21)
(1.7306 0.126969 -1.13568e-20)
(1.14847 -1.57891 1.5283e-20)
(1.99832 0.0087407 1.93452e-20)
(2.27394 0.404592 -1.54261e-21)
(2.0278 0.187299 2.7745e-19)
(1.54583 -0.139198 3.05407e-20)
(1.87121 -0.496881 0)
(0.268587 -0.00287655 0)
(2.3221 0.136184 0)
(1.80545 0.0200903 0)
(1.71971 -0.30098 2.1246e-19)
(2.96141 -0.00785584 0)
(-1.04228 2.50818 2.45877e-18)
(3.48263 -2.10708 -4.58812e-20)
(1.28448 -0.407941 -7.48933e-19)
(1.21534 -0.459521 -4.62381e-20)
(-1.90983 -0.604369 -6.22661e-19)
(-0.487474 2.4439 -1.08801e-18)
(1.85531 0.0535369 6.62857e-20)
(-2.4259 0.410302 -8.64122e-19)
(1.49362 -0.128293 5.07936e-20)
(2.57362 -0.0284181 0)
(2.3263 -0.320774 0)
(1.47315 -0.377561 0)
(2.17167 -0.387384 9.59281e-20)
(2.51105 -2.52253 0)
(1.81255 0.681346 0)
(2.00191 0.0116681 0)
(1.7462 -0.411478 2.20632e-19)
(2.08765 0.210202 -2.64836e-19)
(1.67922 0.0269069 0)
(2.32738 -0.732952 -2.39183e-19)
(1.9767 0.192111 -2.64793e-19)
(2.49725 1.03006 -1.26124e-19)
(1.48529 -0.69278 2.92447e-19)
(1.89062 0.728384 6.77861e-22)
(1.8253 -0.564537 -5.44221e-21)
(1.77166 -0.21082 3.76473e-20)
(2.02986 -0.473192 -8.8369e-20)
(2.42848 0.188699 -1.02467e-20)
(1.7546 0.127055 -2.1779e-20)
(1.81147 0.0886956 -3.43427e-19)
(2.12453 -0.0399652 0)
(0.682831 0.018555 6.54052e-20)
(1.96708 0.0735928 3.58063e-19)
(0.773174 -0.618227 -6.88488e-20)
(2.11253 -0.272914 -1.21775e-19)
(1.00556 -0.152817 -6.66428e-19)
(2.44623 0.163544 8.55919e-22)
(3.19908 0.565761 3.31621e-19)
(1.99864 0.0862188 0)
(1.6038 -0.222916 -1.04953e-20)
(1.72763 -0.0352695 -1.54544e-20)
(2.05498 -0.480289 1.79062e-19)
(-1.40786 0.24258 -7.67859e-19)
(2.06335 0.0369362 1.79472e-19)
(2.31059 0.211008 -7.59987e-22)
(2.1523 0.0107371 -4.05883e-21)
(2.28383 0.110517 0)
(1.08411 -0.315694 0)
(1.30638 -0.625829 3.61704e-19)
(-2.3839 1.45011 1.32424e-18)
(1.99776 0.0112257 3.58665e-22)
(1.96485 0.0734825 7.15105e-19)
(1.57813 -0.221809 3.51129e-20)
(1.41331 0.311362 0)
(1.7849 0.114306 0)
(1.56377 -0.337199 -4.13305e-21)
(2.47007 -0.00681122 7.34384e-20)
(1.94118 0.709029 3.95118e-19)
(2.45451 -0.162897 0)
(2.11095 0.0110261 0)
(2.07395 -0.559393 3.3819e-19)
(1.99613 -0.154207 2.73005e-19)
(-0.175292 0.642339 -5.67338e-20)
(1.73823 -0.0544635 0)
(2.00159 0.149778 1.66493e-19)
(2.60832 -0.906504 -1.10366e-19)
(-2.01018 1.77821 -1.13609e-18)
(2.0263 -0.0188554 -3.79763e-19)
(3.84582 0.147059 0)
(3.52082 -0.344197 5.11032e-19)
(2.29597 -0.894547 -2.18739e-18)
(-0.0234382 0.447119 0)
(1.84207 0.0307548 -1.37538e-20)
(1.91339 0.12424 -2.34289e-19)
(1.80727 0.0142658 -1.53115e-24)
(2.51526 -0.253818 4.80479e-20)
(1.23328 1.05789 3.81046e-19)
(1.85593 0.0468731 0)
(0.988861 -0.357943 -4.68171e-21)
(1.5658 -0.20906 -3.51015e-20)
(2.29315 1.04987 -1.86329e-18)
(2.04521 0.320337 2.119e-19)
(-0.195232 -0.714097 5.59637e-20)
(2.01489 0.0248832 -8.26653e-19)
(1.51405 -0.488952 -1.08657e-19)
(1.70636 -0.206426 3.45129e-20)
(1.70984 -0.375102 0)
(1.7621 0.00979869 -7.82758e-20)
(1.03572 -0.477261 2.58901e-19)
(2.25945 -0.0883599 -3.8307e-19)
(1.98955 0.063403 -3.2312e-19)
(2.66587 -0.379911 1.99952e-19)
(1.64913 -0.145924 7.96189e-19)
(2.23828 0.0146254 -2.97596e-22)
(1.77282 0.117585 2.01136e-19)
(1.81909 0.23382 -7.33708e-21)
(3.36393 -0.200053 -6.78874e-19)
(2.42163 1.14735 -7.38097e-20)
(2.1511 -2.38153 1.24414e-18)
(1.8797 -0.0205905 0)
(1.55406 -0.348406 0)
(1.33256 -0.121396 0)
(1.28541 -0.372747 5.8117e-19)
(2.15042 0.0719737 -5.26281e-19)
(1.7797 0.256938 0)
(1.47849 -0.296565 -4.53281e-19)
(1.77304 0.223754 0)
(1.73055 -0.274456 -3.49011e-19)
(2.22515 -0.479388 -2.04604e-19)
(1.84694 -0.467149 -3.01441e-19)
(1.93712 0.0470904 0)
(1.9521 0.061044 0)
(2.1881 -0.121129 1.13361e-19)
(2.61552 0.333612 4.50089e-21)
(2.86587 -0.100801 2.40274e-19)
(2.36528 1.82861 -4.85622e-21)
(2.46086 -0.213535 0)
(1.6935 -0.615453 -1.54188e-19)