/*--------------------------------*- C++ -*----------------------------------*\
| =========                 |                                                 |
| \\      /  F ield         | OpenFOAM: The Open Source CFD Toolbox           |
|  \\    /   O peration     | Version:  2306                                  |
|   \\  /    A nd           | Website:  www.openfoam.com                      |
|    \\/     M anipulation  |                                                 |
\*---------------------------------------------------------------------------*/
FoamFile
{
    version     2.0;
    format      ascii;
    arch        "LSB;label=32;scalar=64";
    class       volScalarField;
    location    "5.7";
    object      p;
}
// * * * * * * * * * * * * * * * * * * * * * * * * * * * * * * * * * * * * * //

dimensions      [0 2 -2 0 0 0 0];

internalField   nonuniform List<scalar> 
5098
(
-0.614466
0.520582
0.231879
2.16712
-0.971793
2.38972
0.0547816
-1.07668
0.225779
0.274405
-1.33999
0.883381
0.54581
2.66873
-0.547417
0.0129202
-0.614582
-3.90257
-4.43237
-0.723475
1.50654
0.0124633
1.15538
3.21403
-5.88262
2.32
1.45778
1.64029
-4.38666
0.895158
0.753858
2.84913
1.73914
-0.0428229
-0.393037
-2.97059
1.77618
1.69183
2.57235
1.32835
2.13105
-11.36
2.29322
0.228951
-0.193635
0.641461
-1.06531
2.88766
0.766303
2.20351
0.216239
1.95819
-6.00572
1.60861
2.39281
2.26408
1.67119
2.04984
2.85578
-0.237668
-0.193158
-1.75756
-0.418479
0.561384
-5.98259
2.69588
0.048241
0.123872
1.40171
1.96059
1.62321
-0.0718088
1.47128
0.193062
-0.163202
2.20596
-0.112351
2.30415
0.363731
2.19464
-0.263652
-7.6219
2.1252
-0.147778
-4.19348
0.83839
3.39813
-0.0950555
-1.28015
-0.204674
1.03691
-5.15789
0.901502
2.16807
2.58432
0.0434622
1.94211
2.35101
-0.162112
1.46279
-1.92429
2.3304
0.243738
0.0207417
2.30793
-0.372548
1.51494
0.0710974
2.93117
-1.5385
2.06714
-4.15068
1.65834
-5.23104
1.43623
-4.44691
-7.6079
-1.39942
-0.000889904
3.19389
1.92072
0.196049
0.294255
-11.179
-5.13102
-0.788824
1.52257
1.19304
2.60767
-5.19061
-8.54312
2.78216
2.75025
-1.15564
-0.993173
-2.11665
-1.63909
1.48948
2.60019
1.5885
1.96289
0.0809396
1.55836
0.268443
0.639405
0.0349472
1.45745
-0.764926
-1.13731
1.34046
-7.99363
-4.99599
-0.846136
1.72271
3.43996
3.14728
2.05278
-1.52533
2.13637
-4.32281
1.63642
-0.601831
-4.95619
1.95446
-4.73087
0.5903
-1.07256
0.79536
-6.00983
2.03823
0.0228541
2.20713
0.415214
1.64936
0.652161
0.755973
2.08111
-2.81111
2.03687
3.44734
-2.99145
-6.50569
1.93581
-4.81607
1.9202
-0.976852
2.26669
1.74347
2.18112
-6.21375
-4.16788
0.3488
1.4222
-0.176074
0.635059
-5.19917
-5.43201
-2.32126
0.0304955
2.00478
-8.13106
1.95713
-0.192585
0.516962
1.55129
3.14515
-0.834782
2.62963
1.13572
1.41668
1.76286
1.91908
0.351049
0.594297
-0.902557
-4.41694
-0.188147
-2.15391
-5.12954
0.833581
0.960148
2.29964
0.089138
0.950793
-5.36446
1.65286
3.40059
1.56733
1.53204
0.531313
1.61205
3.28156
-6.09127
0.00943871
0.409722
0.465454
1.1266
-8.04005
-2.25331
1.91082
-7.96252
0.357145
0.100856
2.97261
1.47449
1.00019
2.62309
-1.86813
-0.660592
0.928878
0.413399
1.5901
-4.80948
-8.59652
1.75504
-8.02981
-0.909689
0.304055
2.84685
-0.0541769
-0.966794
-5.79088
-6.29654
1.48813
0.0427204
-2.62119
-4.32024
-1.52231
0.129681
1.93554
-6.18182
-0.0605914
-4.2889
0.13813
2.81602
0.270625
-10.6892
-6.283
0.923053
1.76171
-8.22944
-0.968409
-5.42656
-1.01859
0.131638
0.114673
1.75827
0.0387067
0.589925
0.929096
-11.2964
-4.84514
2.95409
-0.139346
1.54225
0.254486
-0.423936
0.699013
1.40725
1.71987
0.0209726
-0.881404
2.2596
1.41315
-2.51766
1.78652
-1.7073
0.785302
1.8921
-1.08588
1.06746
-4.87174
2.3487
-0.201828
0.507552
3.43813
-1.47259
0.0712529
1.19846
3.0779
0.332915
-4.91154
-1.93841
-5.07195
-0.147233
2.60433
0.499802
1.49579
2.90241
0.000778962
1.94191
1.15829
2.60292
0.836927
1.9214
0.18109
0.778377
2.22973
1.35855
1.89027
1.52034
1.99211
0.419921
1.64157
-4.16176
-0.155467
1.49818
-4.38082
-1.38218
0.875461
0.683415
3.00158
3.05092
-8.03229
-0.22573
-7.21407
-1.9353
0.632559
2.56811
-0.0852504
1.56757
1.5628
1.13939
-0.0942693
0.181708
2.84568
1.6426
1.01688
0.923018
-8.45427
2.75243
0.234816
-2.74612
-0.230867
-0.0759185
-1.78798
1.96043
0.36412
0.846327
-0.0772348
1.59187
-0.677625
1.76619
-0.868094
0.197965
-2.25491
-0.323537
-8.47485
2.09032
0.222209
1.44205
0.483958
1.64293
2.07422
1.10302
-4.24253
2.23721
-3.29626
0.521406
-0.797751
-4.95314
3.00115
2.2047
1.58496
-4.39551
0.459348
1.62582
-3.06152
0.341866
-1.2334
1.58032
-0.272399
-6.25172
-0.00952785
-1.63257
0.0452053
1.42481
2.96238
-1.99815
0.837918
1.58485
2.29534
-0.00998075
0.858103
-7.23335
-5.14854
0.166208
-0.599301
0.141193
1.6684
0.0612693
-4.36969
0.0214038
1.79462
-1.97904
-5.06651
0.10281
1.19633
1.26968
-4.61678
2.01924
1.90072
1.14224
-0.398029
1.33525
-1.6437
-2.58889
-0.539368
-4.39175
1.54636
-0.915244
1.10293
1.61649
-0.328169
-0.842878
0.194392
-11.6422
0.827005
1.67368
-2.92148
2.2651
0.00896802
2.96326
-2.61259
2.09654
-2.96285
-5.26726
-10.6286
-2.23919
2.0917
-4.60332
0.880803
-0.0918157
-2.16097
1.43629
-3.88731
-4.66779
2.32386
-3.11558
0.879715
0.698938
-0.745815
-3.39516
1.42806
0.199128
1.87698
0.31313
-0.735466
0.271963
1.63765
-2.86398
-0.701203
-0.455655
-5.00515
-5.12333
0.01311
2.46467
-3.66981
2.3833
1.72094
-3.53541
1.17179
-4.50494
-3.91621
-4.40068
-3.66691
1.15393
0.89284
-3.81549
-0.386382
-5.11666
1.58878
1.73209
0.550112
0.732019
1.55741
3.07681
-6.78536
-0.799288
2.46452
-3.24602
-0.850864
3.00775
-0.0359848
-3.33225
0.0156219
-5.75284
-4.56148
1.64383
0.940908
0.490126
3.38233
-5.97564
-0.0653757
-1.28233
-0.283077
0.15493
-1.62802
-5.30095
-0.53606
1.44154
0.24517
-6.39103
1.90709
-0.427468
-1.8701
-0.303777
-1.04235
3.36943
-3.06864
-1.94736
1.8965
-0.452587
-4.59366
-1.10433
-0.821631
-8.58477
2.3672
-0.984491
-1.21651
-1.0027
-0.67801
1.86422
-4.75453
0.153549
-4.55072
-4.96005
-0.0180613
-5.62258
-4.78008
1.02022
0.781342
-4.85767
1.47438
1.91661
3.32043
-0.348002
1.87087
2.61129
-2.30449
0.151861
-8.14647
0.726429
0.128981
0.31579
-0.269319
-0.0470397
1.11965
0.687274
-6.55122
-5.10487
2.97103
-1.46107
-4.84624
-0.300183
1.86067
1.20068
1.00736
-2.6378
-2.38064
0.0068832
2.06402
0.908579
0.561002
2.78418
0.0900222
2.65027
-5.40109
-6.86058
-0.0264928
-0.00771574
-6.14682
-5.08854
2.71049
-2.59811
-2.37841
2.74337
-1.0883
-0.0436195
-0.17246
2.95092
-4.47821
2.46325
0.26918
-0.0670071
0.46732
-5.21375
1.35587
-0.362751
-0.206125
-7.32258
1.5582
2.07333
-6.3698
-0.0315796
2.04959
2.85487
-6.88929
1.74574
3.32426
-2.39308
1.06137
-0.935514
1.70668
2.43157
2.14668
-4.07849
1.68193
0.619228
-3.49113
1.50881
-0.356315
1.99315
-1.06918
1.75271
1.15856
0.167604
0.0554908
0.601525
1.73159
2.13361
0.140649
-2.91011
2.87521
1.86707
2.22936
0.245206
-0.446502
0.0418956
0.0437092
2.79846
3.00042
-3.29439
1.80221
-2.97209
-5.26806
0.264626
1.64902
-4.72873
-4.34973
-3.44036
-3.21322
-0.316841
0.826724
-3.72396
1.823
2.17029
-4.4394
2.23564
0.00960628
1.71645
-6.06185
-2.59195
-0.278939
2.93375
-0.357955
-0.67923
-1.33883
-4.32286
1.52624
-1.14184
1.04404
2.71965
-4.09455
-4.88277
-3.42612
-5.15801
-4.55814
2.17592
-0.896271
2.90151
2.8621
2.69071
-5.49425
-5.16205
-4.15161
-4.61401
0.157369
-4.88792
-4.84091
-6.75915
-5.14493
2.25595
-5.17626
2.01348
-5.87739
2.65829
1.49887
-3.93859
0.233424
-4.49284
3.3075
0.0337677
1.6
-1.87003
-5.74563
-2.21979
-5.1445
-4.07344
2.14845
-0.665519
-0.851248
-4.79092
-5.29209
1.12704
-2.40778
-0.349496
0.0212968
0.511205
0.38848
-7.92715
2.14747
2.68612
-4.77523
1.28973
-5.61594
2.04558
-4.26696
0.245159
1.25562
-3.64781
-0.326726
-5.23156
-0.444429
-8.98429
-1.09684
1.88534
1.32815
-4.05131
-0.226367
1.21839
1.43283
-0.0356144
0.808537
-7.9674
3.34676
1.27217
1.9647
0.234099
0.803685
-6.76604
-9.85329
-0.310089
-7.03291
-0.515794
2.77978
2.38066
-1.23214
0.998238
-2.0965
2.49616
0.933059
-5.27292
-5.85489
-6.38672
-4.45283
-0.0502091
0.20786
1.77516
-1.30633
-0.201474
-4.38097
1.49245
-0.907135
-5.08828
2.2504
1.0761
2.83181
-0.70382
1.85348
2.23848
2.09687
-0.535422
1.92699
-0.432364
0.5263
0.417903
0.214148
1.10063
-5.09843
-6.39393
-2.15055
-10.4933
0.823717
1.70427
0.524098
-5.15527
0.703869
3.42017
-1.92994
1.99377
0.0480625
2.71836
-4.95695
1.60893
-0.419842
-6.97223
2.89867
-0.232214
-4.48516
0.751903
2.99797
1.94155
-0.564256
-1.02374
-1.91059
-3.80847
-3.11402
-5.00017
2.06046
-4.07552
-3.6678
-5.32507
1.40196
0.0427843
-4.8475
-1.22377
-5.0453
1.15141
0.0624383
1.83889
-1.39451
-4.7886
2.73248
-7.973
-3.77889
-4.76748
0.352309
-5.26413
-6.54769
-6.03024
-0.28381
0.0167526
1.46339
-6.68713
-3.42856
-4.65177
0.141787
-0.481874
0.696442
-0.0209116
-5.41386
1.56397
0.0955883
2.58962
2.08935
0.755133
2.19958
0.599882
1.47742
3.18303
2.23138
-8.21317
-2.91893
0.287403
-2.7869
-0.769672
-6.27399
1.8832
-4.45028
2.50692
2.60127
1.78827
1.76356
-5.88157
0.973157
-2.64495
-0.195348
2.76388
2.05026
-0.28969
-0.0934198
-5.50822
-3.96729
0.122137
-4.59804
-2.42734
-0.499591
-0.0440238
-2.05139
0.83299
2.84363
1.82656
2.05885
1.86334
2.13716
0.0333101
-0.445881
-0.690924
-4.74367
0.577382
0.443575
1.53163
1.16903
2.93317
-2.29884
-0.966186
0.0655485
1.68297
-0.612075
-0.138486
-5.08542
3.27494
1.72747
-5.06999
1.74166
-0.652937
-9.83915
1.48398
1.92822
1.00882
0.561437
0.952242
-0.371633
-0.176261
0.211702
2.78001
-1.23339
2.45538
-7.08079
-0.951392
-8.78111
1.3901
2.08004
-2.01761
0.0392838
3.255
0.495331
1.51243
1.52532
3.01139
0.23738
1.96859
-0.187446
1.95281
0.0427191
-0.343576
2.51441
3.32224
0.532945
-1.73752
0.300051
-1.1168
-4.8104
1.81814
0.908206
-2.73724
1.71309
2.19446
1.68689
1.75675
0.170521
1.82009
2.5292
-1.44715
3.11144
2.15894
1.08742
0.0234021
-1.07274
0.0605338
1.88158
0.371748
1.87699
2.15698
1.71653
-4.23442
-5.20439
2.20951
1.28057
2.38028
-0.278435
1.60989
1.98079
1.32661
2.25927
2.22452
-0.511926
-0.660911
1.79874
2.189
-1.67723
-0.761938
-1.7232
2.15352
0.457433
1.92721
3.03616
-5.53418
2.94218
3.21593
0.154943
-1.16013
0.265944
3.40915
-3.88384
2.11379
3.04309
0.728722
-5.52115
0.964624
1.36739
3.17432
1.43335
1.33282
3.30104
2.40184
-0.180047
3.28813
2.71216
-0.100124
-1.65761
-3.76027
0.0105481
0.529877
2.10944
2.68124
-3.95943
-0.230259
1.07633
0.679884
2.32381
-4.55824
2.81511
-2.13967
-6.74576
1.56744
-2.34874
2.11455
-0.635714
1.43104
-3.07436
2.68779
1.88044
1.74965
1.84866
-10.0339
-0.194516
-0.204006
1.19826
1.19608
2.83925
2.04128
0.0158809
1.26423
0.632457
-3.62495
2.66074
-0.0914273
2.24407
0.0977275
0.283237
-4.28342
0.403595
0.991085
2.98262
-0.0632138
1.25999
-3.65759
-1.32715
2.57765
2.45251
-5.04618
2.52363
0.675422
-4.29519
0.259811
1.24207
3.36407
-0.254976
-2.85384
2.31085
0.093665
1.87208
-5.37507
-10.4079
0.0732601
-5.14524
-6.49202
0.785926
1.94906
-0.235382
-6.21477
0.0120499
-0.179516
-2.24123
0.872608
2.87357
1.38056
1.19851
-0.313007
-0.463098
0.171101
1.36102
-0.890626
0.0205728
0.0722047
0.00553143
0.329959
1.25976
0.632532
0.808166
1.31849
1.30207
-1.65569
-4.8883
0.335677
-1.39234
3.25467
1.11832
0.704743
-0.218155
-1.09284
-0.904865
-0.204753
-3.11475
-2.9765
-0.503382
-1.11762
1.94487
0.645531
0.0135292
2.09551
-6.06184
-0.618006
2.81226
-3.21582
-2.25955
0.708463
1.67845
-3.20855
0.457398
-3.17305
-0.501423
-0.623688
-0.68984
2.14097
-6.04722
1.16791
0.060221
-5.76084
-4.23356
-0.379806
1.5105
0.256157
-2.26143
2.81302
-7.32127
1.84388
-0.712544
-3.15026
-2.09765
-0.729118
-5.8482
1.81345
1.7066
1.816
-0.202938
-8.74179
2.50189
-5.28312
-2.65987
0.014817
-6.40958
-0.00747434
-0.206855
2.56009
-6.82733
-4.3766
-1.7305
1.22958
1.11016
-8.8679
1.18696
0.0619475
-0.736341
0.638262
1.07872
0.775832
0.251457
-8.46743
2.62319
-0.264519
0.00364263
1.11974
0.0177307
1.22036
-9.34899
-0.580093
-1.05288
1.30576
-0.154993
-0.69412
0.824456
0.00977039
0.15929
-0.370052
1.82259
-0.215269
-1.04089
1.65669
1.52961
-0.113031
0.862065
0.881217
1.71645
2.16538
1.93354
0.251566
2.86698
1.45059
-2.28215
1.32324
-9.81878
-0.0264201
0.046955
0.704727
-0.562902
2.8893
0.587375
0.455721
0.144899
0.798325
-0.119668
0.691298
-4.20231
1.41904
0.020645
1.64464
0.970082
1.72731
-9.76006
2.22159
-6.97
1.70395
1.80139
0.58346
-0.423653
-2.09968
-1.16606
2.08114
-6.88687
-4.37389
2.03444
1.22427
-0.177539
2.07024
1.33266
-1.03414
2.67915
-1.8367
0.479241
-1.75576
-1.61244
-0.169305
-0.453358
-1.17192
2.96441
0.00911071
0.585536
-0.496985
-2.31049
1.80062
2.18839
0.00859649
0.00802436
1.61413
-4.76484
1.67177
1.71645
-0.4971
-0.598034
1.31757
-0.173274
3.00197
-5.13828
1.36827
-0.150497
-1.31802
2.83828
1.9413
0.458479
2.43265
-1.96122
2.24569
2.17744
0.0195125
1.64456
1.6658
1.30757
1.65637
-1.14109
1.79099
0.303209
1.03932
0.00665669
-4.43348
1.79354
-5.78178
-5.12042
-0.0903708
-0.249185
1.40622
-4.44082
1.62175
0.499864
0.853826
1.63657
1.48086
0.652348
0.180291
-3.29302
1.65171
1.09232
-7.23761
-1.49134
-0.126785
1.7258
-7.30661
-7.23225
1.51298
-7.31107
2.18576
1.04663
-7.12308
-5.18011
1.96336
2.12749
-0.837324
1.47503
-4.95074
-1.14989
-3.85191
0.507216
-1.00595
-5.33038
3.18195
0.965579
-4.83749
0.0271679
-0.831167
1.64314
1.06955
-1.74931
-5.46472
-3.29222
-2.28892
-4.60858
1.38954
2.66705
-0.420621
-7.49077
0.0261104
-5.9418
1.9214
3.2192
-8.05469
1.27185
1.85902
-5.63735
0.588448
2.89428
-3.59084
-1.69578
1.37032
1.48724
1.29026
-1.00411
1.03428
0.0164249
1.19613
-2.18037
0.0507104
1.73587
-0.545917
0.406058
1.06466
1.56893
1.01503
0.0615905
0.758849
1.71876
1.27449
1.61672
3.0187
-1.6954
2.82378
-0.0860677
2.76819
3.32687
-5.62405
0.198267
0.415719
1.59771
-4.10972
0.796357
1.13917
0.0125804
1.91892
2.4933
1.97824
2.02925
0.510684
1.28923
-11.7277
3.27496
-6.60498
0.187573
-2.92179
-0.988694
-9.46493
1.7122
2.01874
0.967573
2.09911
-2.38232
0.0701354
2.17555
1.7046
-0.162871
-0.777643
0.0121282
0.270238
0.542287
1.81037
3.1432
1.6124
2.3178
2.24157
1.93324
3.01714
1.11804
1.65949
0.190471
-2.3754
0.984028
1.35175
1.41089
3.31472
0.695198
0.908701
0.00260342
0.0593783
3.18697
1.01215
-0.499524
-4.7567
1.51346
-1.5801
-0.180691
2.39946
1.70623
1.64146
1.82194
-0.0488514
2.4221
-4.66829
1.61204
0.319985
0.294914
0.208011
2.65527
0.286996
-0.0166009
1.7122
1.71056
-1.4576
1.50395
2.73099
-0.384884
-5.96771
-6.25208
-4.4194
-0.740906
-7.06326
-0.582022
1.52599
0.695323
0.046686
1.83905
0.251015
-0.635363
-1.03056
-3.49067
-2.63371
0.253784
-6.10424
-6.81768
1.6263
1.59808
2.33331
-0.904644
0.695633
0.0237696
1.54993
2.60332
-4.82842
0.0245064
-0.0248369
2.7451
1.32609
-0.766381
-1.05602
-4.45068
0.0146803
-0.238004
2.88429
-0.0261619
0.0059911
0.746594
0.716689
0.0125522
0.923368
0.293796
0.929714
-4.68668
-6.78331
0.296001
-6.86755
-0.0999255
0.909956
-3.03964
1.86633
1.12344
3.078
0.702359
2.76242
-0.736097
1.91632
0.0248426
-0.174703
-2.08457
2.58871
-0.264507
0.426425
0.34608
-3.10598
-2.78116
0.00997877
0.040385
-0.172161
-0.315631
-0.172517
0.252002
1.09159
2.06766
-4.85969
-0.692836
0.254035
-0.263988
0.0709005
1.84693
0.442031
0.865329
-0.224823
-0.0525949
2.42446
-2.87757
0.891533
0.00404709
0.0490298
-0.595178
2.38876
-2.42074
-0.0770801
-0.0919463
-4.8916
-0.862597
-0.116965
2.78064
2.02107
0.0128035
-4.00584
-7.26241
1.71336
-0.563865
-0.340613
0.0072473
0.69402
-0.210185
-0.059033
-1.01346
0.00498727
0.718802
-0.828967
1.84611
0.615196
-1.34258
0.204282
0.644422
0.136305
-0.0344326
1.79045
0.21718
-0.465825
-0.643002
-0.195998
-1.29612
-0.123986
1.8025
-3.18994
-1.05597
-0.490338
0.00284666
-1.79018
0.235852
-0.139364
-0.0295563
2.52213
1.17641
-4.37865
-0.079106
-6.15537
-1.27977
-0.104708
-0.166252
1.73159
1.11466
1.36311
1.65547
0.318521
-3.57191
-1.5441
-4.24246
-0.145951
1.93399
-0.110875
0.735914
-5.68283
2.08968
0.0451325
1.79182
-1.04093
-1.03686
2.24678
0.020979
0.00256342
-4.18699
2.46657
0.391979
1.51486
1.73831
-3.32324
0.00284271
1.60273
-4.78845
2.41744
-0.549739
2.36186
-2.01556
-0.142929
-0.992324
1.80079
2.30498
-3.60571
1.46265
0.695019
-0.176812
2.59693
0.603888
-5.94152
1.61802
-0.0710557
-0.61766
-1.12824
-5.63084
-0.0746794
-6.95724
0.00111792
1.49138
1.18556
-0.137572
0.0606457
0.748988
-0.586042
1.63025
-0.585329
0.017554
-1.075
-0.0918137
0.0539526
0.0319914
1.51975
0.547383
-0.0624045
-4.99863
1.93346
-0.137189
-1.01404
-0.160231
0.545371
2.75571
0.338547
0.00291177
1.39946
0.272769
-0.229093
0.313163
-2.74273
0.229657
0.0639848
0.133364
1.77214
0.00333292
-0.102146
-6.79484
-0.036392
0.0389282
-0.321801
1.71205
-0.390548
0.0256874
0.628508
-1.25517
-0.769027
-0.0234873
1.25204
-2.52608
0.151575
-0.168048
0.0515352
-0.0140091
0.0278224
0.0104555
-6.25745
-0.682374
-0.834183
0.491837
1.14377
0.0356566
0.747587
0.817725
-0.0590832
0.0229235
0.840324
0.0955996
0.0254197
-0.536412
-0.871419
0.323617
-0.997153
-4.05274
0.0161824
0.411058
0.136394
1.06457
0.943051
0.069046
0.372037
1.71302
0.0729234
-3.19937
-0.0227715
-3.14664
2.30893
1.61631
0.104651
-0.0153276
-0.09629
0.0788097
0.0285248
-0.0697635
-2.09612
-1.06613
1.5805
0.262089
-0.0133418
1.64907
0.0743933
2.55621
-0.127083
0.213616
0.139009
-0.137224
2.43508
-0.0175144
0.0490012
-2.88069
0.0442819
1.19049
0.621829
-0.0600771
1.70006
0.0483971
1.40952
2.27151
1.1378
0.946789
-0.0012328
1.09907
0.0594827
0.378432
-3.56697
-3.86572
0.0650626
2.18501
0.571643
1.67136
0.814074
0.0102488
0.0500629
0.0740169
-0.255061
1.35986
-2.88654
0.0392149
0.00305088
0.0432088
-0.0931624
-0.342408
-6.34511
2.80765
-4.98612
-5.63899
2.6173
-0.114023
0.0438339
0.00393356
0.0436137
1.6264
0.0585753
0.00258583
-4.33737
-3.31205
0.0516297
1.7196
0.0713927
0.0666077
-0.786206
0.0176272
-0.662568
-0.0516621
-0.0140988
0.0671601
1.73203
-9.28921
-0.227227
0.723756
-0.16412
-4.36055
0.0618254
-5.98247
0.00609275
1.91218
-4.61052
2.15402
-0.197671
0.0663341
-5.3414
-0.114795
-0.248209
-0.0833626
-5.09996
-0.142348
2.6555
-2.02962
-3.19209
0.00282342
-2.69286
0.0111702
0.0895884
-6.27522
0.00820691
-0.0367785
-0.25828
0.00043274
0.043064
2.0789
0.504666
0.0083969
0.0645937
-0.0095583
-10.0276
0.0733562
-3.13808
-0.069218
-0.228767
1.99406
-0.144458
1.72419
0.018418
-0.126049
0.00758377
0.00411635
0.0187618
-4.29938
-8.22046
0.0492512
1.0062
1.54811
0.657963
-0.00804701
-0.0170327
0.0110483
1.99978
-0.0610586
0.298611
1.07007
8.18851e-05
-0.00925129
0.292467
-0.0143276
0.0190657
0.0737773
1.70923
0.00778738
1.41148
0.0166446
1.82764
0.0520748
1.27985
0.0103456
0.0045387
-7.43137
-0.00619994
-0.0471765
-0.31012
-0.970072
1.30482
0.008159
0.684441
-0.0661924
-0.074859
0.367676
0.0576337
-0.0515983
-10.1277
-5.42049
-0.00484774
2.1673
1.55343
0.0275503
-0.0402362
-1.21788
0.0318513
0.462317
0.307065
0.0110864
2.41816
0.0449928
0.0321242
0.0157793
-3.99022
1.72648
-0.366157
0.0681926
0.0151915
-5.12402
0.143096
0.0349671
-9.75944
0.713947
1.22254
0.0576682
-0.237361
0.0923613
1.63184
0.0104326
0.0220521
0.0191229
0.0830146
0.1244
0.0719519
0.0686044
0.00911556
-0.0641653
0.0261769
-0.12388
0.012751
0.0706232
-0.307133
0.0786895
-0.0183843
0.0870034
3.07509
-0.0350619
0.121707
0.00754969
-0.358573
0.844048
-0.0174534
0.0922478
0.330831
0.0501796
0.00710019
-0.00235802
0.0157934
1.68996
0.00550538
-0.0299673
0.112109
0.0217814
0.0181758
0.125537
-0.0387147
2.00196
-0.121318
-1.41541
1.42208
-0.00249317
0.0368688
0.0912267
-0.335767
-6.3973
0.258065
0.241168
0.0123305
-0.0056604
0.02513
-2.00957
1.87445
1.97331
0.0122635
0.0632322
0.0840801
0.00190512
1.66745
0.00745517
0.0133245
1.73865
0.0125194
1.73665
0.050984
0.0311873
-0.466727
0.0409192
0.0134927
2.09721
-0.0432816
0.00216706
-0.359619
-0.387751
1.72622
2.46353
0.00729807
-0.314547
0.0292534
0.0387463
0.00192104
1.82702
-9.08008
-0.00194091
0.0360763
0.0763496
-0.0216979
-0.0204156
0.0537149
-1.82175
0.0033001
0.0422623
-1.01872
1.66967
-3.38104
0.0294322
-0.0125176
1.09833
1.11353
0.0321858
0.00150007
-4.2436
-11.5581
0.00951764
0.0328502
0.00604605
0.0344753
0.00361061
-3.89895
0.0106688
0.0130534
0.021302
1.65777
0.0097761
0.079142
0.0349604
-0.260305
0.00867695
1.64023
-0.0416811
2.01084
-0.978171
-6.70198
0.0370848
0.0680412
0.0351052
0.0263071
0.076551
0.0161196
0.0430373
0.0811173
0.00578816
0.0078828
0.0099635
0.0273596
0.0429155
0.00649
1.74485
0.0525716
-0.463163
2.09232
0.0200998
0.0910258
-1.03212
0.600999
0.0275406
-2.24952
0.0197191
0.0402172
-5.09552
-0.131557
0.0299811
-0.658351
0.0406779
-0.273398
0.189005
0.00444825
-9.17778
-0.140547
0.0388338
-1.56121
0.164359
0.0328129
0.0260586
0.0360271
0.114052
0.0930344
0.0898672
0.324786
0.013394
0.01788
0.0453622
-1.20632
0.0151718
0.00423273
0.0154926
-0.0356924
0.00843908
0.0250687
0.000234115
-1.45184
2.74509
0.0541981
0.0137135
0.0367954
-0.558162
1.94631
-0.0332824
0.168143
0.00292479
1.95081
0.00785726
0.649104
0.0859488
0.010435
0.024919
-0.252484
-4.27872
0.0613689
0.329367
1.6406
0.0283088
0.00595799
-0.0793383
2.02449
0.0311753
0.0313178
0.00173781
-0.067226
1.41309
-0.0273557
0.0292393
0.0122155
0.0193072
0.0231593
0.0392235
0.770949
-0.295373
2.19309
-0.00259745
-1.50712
-0.287699
2.35913
1.37182
0.018695
0.0261346
0.0664214
0.0502265
1.55863
-0.273929
0.0201125
0.0744115
-7.37724
0.0273583
0.0769809
0.0562214
3.15622
1.07181
1.55958
0.025439
1.72618
0.00389262
-5.63846
-7.42384
2.28623
-7.39951
-7.43885
0.0255691
1.45999
-0.185354
0.0140893
-0.42402
-0.210109
-2.28311
0.314858
0.052642
-0.0062874
1.71942
-0.0525428
0.60283
0.0238841
0.0364051
0.0451725
1.75391
0.0214737
-4.13017
0.0675836
-4.32925
0.00197555
0.033413
0.0601218
2.80422
-7.21357
-0.281426
0.036383
0.0311187
0.0444988
1.1601
1.68136
-0.0361132
0.0353721
-5.16687
0.0332751
1.0633
3.09137
0.884385
0.25013
-0.0647692
0.0277839
0.0284233
0.444131
0.0620256
0.0376596
0.0148201
0.678925
1.63879
1.63916
-7.2045
1.17524
0.0304046
0.0183639
-10.7225
0.0842589
0.0351828
1.90976
-0.189834
-5.26151
0.0111782
2.69664
-0.754082
-0.252131
0.01287
-1.04805
-0.168055
-4.6858
2.82741
-0.127586
-0.634337
-5.45023
0.0351481
0.0850914
0.253781
-0.451078
-0.205221
-1.58661
-6.2123
1.71704
-0.0259931
-0.0873109
0.0488323
1.16542
-0.0372129
-5.88656
0.0115674
0.0902342
3.21655
0.0161081
-5.63775
2.91407
0.00498471
0.0817876
-0.0150723
0.0114983
1.84074
-8.6551
1.59787
1.71314
-0.236225
0.0203329
1.71211
0.830705
-0.232745
-1.31645
-6.22912
0.00420713
1.84056
0.021663
-0.897517
-4.37189
0.541749
-0.461064
-0.0545688
-0.0425875
1.65232
0.00628586
0.0216107
-3.49321
0.0234017
0.0183125
0.0436138
-4.4918
-5.93166
-0.045206
0.0262914
-0.171996
-0.725958
0.0727774
3.10764
0.0709093
-10.7952
0.513105
0.0190043
1.89038
-0.0979236
1.72761
0.0747032
1.59823
-3.88789
0.0853565
2.52586
0.0437098
-0.188018
1.94895
0.220548
-0.0702386
-0.0733558
1.7441
1.95102
0.0515855
2.00838
2.85403
1.25727
2.05321
-6.10766
-0.0207958
2.61803
-4.73767
0.608758
-0.234526
1.6317
-2.0168
2.06111
1.98006
2.13844
-0.170436
-0.0307118
-0.764355
0.0215842
0.108971
-5.80808
-2.68741
-0.0084988
0.0227539
-2.35757
-0.0493342
-0.314593
0.522284
2.20861
2.35851
2.27694
0.0817631
1.3586
-0.196456
0.468574
0.0946575
-0.104494
3.03101
0.0358368
-0.358951
0.145574
-4.77153
2.45293
-0.275996
-0.510118
-3.21111
0.100906
0.289603
-1.04357
-6.96
1.47457
0.0434871
1.44406
1.82248
-4.38862
-0.879159
0.0751738
1.89304
-1.11206
0.00806616
-0.0200229
0.0032641
1.57144
0.0456792
-0.173523
3.36621
2.45185
-0.115404
0.0826463
-3.34066
2.77069
1.66562
0.120814
2.96916
0.0216288
1.75667
0.596847
2.77945
0.173656
-4.39938
1.0047
-5.10509
0.00713101
0.0336748
0.119467
-5.40923
2.90012
0.108296
-0.201008
-0.781231
0.65741
1.15897
3.20183
-0.244873
-0.182146
-0.0461091
1.26056
-0.261135
-0.023444
0.284801
1.64612
-0.105732
-0.18116
-1.65528
0.142963
0.563492
1.69593
-0.152322
2.83912
-0.183795
-0.206936
1.73589
0.0263885
0.0107829
0.048941
-0.750024
0.878697
0.0113606
0.7656
-1.84946
-0.196876
1.57162
-2.24888
-0.0966607
-0.0269128
-0.203506
-0.349125
1.59138
0.0745622
0.0870813
0.00146122
-0.439809
-0.0871816
-0.336599
-4.51741
-0.00612512
0.965777
0.27222
-0.192563
0.331649
0.0139498
-11.2382
-0.244504
1.72589
-0.348768
-0.184415
0.125936
-0.309834
2.54771
-0.196115
0.915942
0.0357657
3.2556
3.09635
-0.0967158
-0.536167
-4.55644
0.00365497
1.43682
1.72394
1.71108
-0.185562
0.014151
0.0782707
2.69274
0.187809
0.0598595
0.50317
-0.499451
0.238399
-0.172621
1.43654
2.67084
-0.0162033
0.115872
-0.210495
1.35704
2.2784
-0.54669
0.660574
-1.17573
3.16058
0.00939877
-0.100504
1.35178
-0.44542
0.0123476
0.0179754
1.6794
0.00976334
0.0161088
-0.659604
-4.25697
-0.174224
-0.00234163
2.62871
0.833233
2.08663
-0.107362
-0.0499999
3.27237
-0.191841
0.0227117
0.687059
-0.380525
1.4197
1.47072
1.795
-0.00351601
-2.53601
-0.512318
1.67451
-0.467053
0.0160546
-0.0347504
1.73478
0.353409
0.0206317
-0.177322
0.394908
-0.242337
0.0184141
0.0581754
-0.181667
-0.403323
-0.159781
1.23406
2.58605
0.265561
1.88989
1.62282
-1.89455
0.0163417
-11.5492
1.85703
0.119332
-0.0110453
-0.0259078
-0.136853
-0.194571
0.0486298
3.26086
0.00145474
1.8035
1.14473
-0.207023
0.0618838
-0.444566
0.0212589
0.620592
0.16815
-0.148537
1.23803
-0.181291
-0.325044
2.02182
0.348869
0.419823
0.171285
-4.23409
0.114787
0.877253
0.00174262
1.34324
0.103073
-1.10158
2.47871
2.17057
0.294537
1.61097
0.0148822
0.773404
1.62959
1.80599
0.0183594
0.110897
-4.13686
-0.123282
1.68453
-1.40375
2.3715
0.0236156
0.985152
-2.86542
-4.30519
1.68372
-0.365393
1.67594
0.292668
0.253756
0.0290701
0.427971
-0.00950388
1.53851
0.69446
1.72522
0.524771
2.29623
2.4925
-0.12941
2.16579
0.096208
0.00964355
0.667221
2.443
1.06181
-1.11832
1.81517
0.259548
0.0646379
2.39089
1.64829
2.33378
-0.21231
-0.176331
-0.0086542
-7.25136
0.155318
0.0883647
1.4846
-7.16684
1.90003
0.00143805
-0.483284
1.57389
1.81474
0.317321
1.71613
0.0666094
-6.78817
-0.463749
-0.139881
-4.51246
0.980574
1.00838
-6.61074
-0.428051
0.328895
-0.123985
1.35455
2.42125
2.56089
0.830106
0.583813
-0.0108174
0.394776
1.61335
0.0097211
2.12116
0.155626
-0.170323
-0.569631
-0.438152
1.21381
1.75162
2.12534
1.46312
-0.149659
0.0541555
1.66626
1.67294
1.87856
0.314556
2.14983
0.906456
1.71906
1.19725
0.00335769
0.0883234
1.87771
1.63623
-8.89879
1.76556
-0.273124
0.44841
1.34342
-0.426858
-1.98098
2.80059
2.04171
0.0624395
1.7864
0.551533
1.10178
0.0267212
0.0915634
-0.114432
-0.159503
-0.349213
-3.75901
0.654577
-0.594529
-0.235101
1.68827
2.38191
0.103597
1.71169
0.211935
3.39992
-1.99275
2.02867
0.0227509
-4.36324
-2.83842
3.46782
0.306133
-0.193781
3.46462
0.0267285
-5.13248
1.71711
3.44593
-0.00119073
3.40605
0.962612
0.0425203
-1.60244
3.31711
-0.17224
-0.200343
-5.03669
0.253199
-0.417874
2.01862
3.16929
0.00634585
0.538022
2.1151
0.308488
1.81626
1.43802
0.00657336
-0.661175
-4.60397
3.11701
0.637626
-0.872191
0.290649
0.0681039
3.07027
1.36232
-0.0610586
-1.10942
3.02002
-3.10773
-1.36344
2.97074
2.03554
-1.63731
-3.13359
-2.05901
0.791366
2.05829
-1.96358
2.89417
1.7096
0.083672
-2.29994
2.35786
0.32931
0.376207
-0.700321
-7.36767
1.56103
1.69604
-0.065616
1.77053
0.177535
-1.42007
-5.56606
2.75663
1.28822
1.48436
-0.185739
-3.45868
-3.85653
-4.25441
-4.64999
-5.02966
-5.3626
-0.380082
-5.68784
-6.45896
2.07288
2.71394
1.23492
1.02505
0.329521
1.25345
-6.63665
2.68154
0.0035678
-6.75435
2.21255
-5.34477
-6.80113
0.0613966
2.59136
1.56229
1.02509
0.557124
1.71321
-3.26826
-6.81235
2.55871
-6.68272
0.0238494
0.685411
-5.83883
1.62515
2.51831
-0.177348
2.19863
0.088921
1.37612
-6.73481
-0.47517
-0.191964
2.47889
-0.596349
-4.31277
2.43991
0.357882
-1.46098
-0.552392
-6.03592
2.40628
1.77675
0.593208
1.70895
0.447884
-0.0291009
-0.00367106
-5.92722
-6.24085
2.3628
0.746917
0.0670099
1.79071
0.865637
-7.14632
-0.505474
-5.77255
2.32851
-3.1175
1.7445
0.0180313
0.0364456
-5.66404
2.28911
0.780829
-8.74187
2.24409
-5.54259
-0.132408
-0.443447
-4.30264
0.232875
2.21416
-5.42535
2.15867
-5.35443
-0.259558
1.12121
0.00972018
0.9768
0.00627448
2.11705
-5.2842
1.16292
2.63937
1.7956
-5.2443
-3.66952
2.08292
-0.0509254
-2.02874
1.46745
-5.18718
1.69521
2.04998
-0.00821692
0.307278
-2.09304
1.70659
1.19282
0.00572183
0.487401
-5.16131
-4.31064
1.9997
0.575946
-7.09772
0.63883
-8.71957
-4.80999
0.502121
0.809524
1.96151
2.36156
1.7785
2.54183
1.80041
-5.12124
1.25613
0.137989
-2.32971
0.838276
0.0112854
0.098148
0.991277
1.41606
-0.157981
-5.09844
-2.87311
1.87741
-1.79191
-0.540933
2.12835
1.39972
-0.00123131
2.96653
-9.39913
0.460004
0.37206
-5.06431
0.423098
-2.84636
1.8251
2.06636
1.86608
1.15545
-5.01474
1.77361
1.71121
1.67532
1.61241
1.56667
1.49662
-4.06538
1.7303
1.44282
1.93267
1.32565
-10.1452
2.32639
-4.94317
-0.884266
-11.0721
1.31983
-4.6373
2.34554
-4.84602
0.498529
-4.72673
-7.62664
-4.58827
1.66374
-1.12923
0.213343
-4.45837
-5.19489
-1.34683
1.74023
-8.59288
-4.27656
1.82962
1.78975
-0.927954
-8.29917
1.9256
0.38183
-11.3749
0.1468
0.660589
1.53234
-3.01295
0.0909213
-1.8162
1.89605
-0.495052
-2.40994
-3.91117
0.930998
1.75997
0.202066
-5.16395
0.767358
1.98262
1.43898
-5.07741
1.73008
0.799682
1.47568
-0.362738
1.77683
-0.552553
-0.000423495
0.00570672
0.79498
-3.46688
2.57695
0.339878
0.336782
0.276195
-4.25716
2.25932
1.83652
1.55484
1.71925
0.31955
-0.00809245
0.584259
-2.04152
0.991172
-0.925479
0.113546
1.2419
-4.01204
0.584607
3.14183
-0.00219354
0.919681
0.9687
-6.95126
0.0869087
1.3749
0.0446975
0.77658
1.50619
1.70134
1.79283
1.80487
0.1118
2.01434
-4.35185
0.105758
0.772715
0.116651
-0.64485
0.372675
2.04196
-6.1444
1.71547
-1.55729
-9.32067
0.407672
-3.47321
0.689231
0.0672622
0.374886
1.88735
0.387986
-0.522804
0.100037
0.453477
-0.0891726
-0.866265
-0.00800988
1.83488
0.176761
-1.54072
1.28664
0.264284
1.31074
-0.322523
0.1266
-0.253671
0.0847177
0.377
-4.95191
0.310361
0.0239245
0.0538814
1.02022
2.60806
1.24876
-3.2266
1.69883
-0.0705975
1.31927
-0.0133211
0.0537009
1.50989
-6.86067
0.0261826
-1.40047
-6.43145
-6.04318
1.74477
-0.218961
2.14825
0.563605
0.00903993
2.69286
2.56607
-0.555376
0.597195
-0.816715
-0.99452
1.93738
-1.97934
0.143827
-3.37516
-0.144869
-3.0497
0.794549
1.14948
0.245781
0.00205211
0.316025
1.66338
-7.61104
-3.64467
1.11838
0.952416
2.54315
0.168954
0.664577
2.60612
2.64505
0.000337783
2.29735
1.33633
1.74426
0.445512
2.38239
1.82147
0.521527
0.0960851
-0.125347
1.33477
1.30482
0.00450754
0.00688738
-0.617083
3.22488
1.37079
1.04266
1.76931
1.03223
-0.00150955
1.11818
0.336959