/*--------------------------------*- C++ -*----------------------------------*\
| =========                 |                                                 |
| \\      /  F ield         | OpenFOAM: The Open Source CFD Toolbox           |
|  \\    /   O peration     | Version:  2306                                  |
|   \\  /    A nd           | Website:  www.openfoam.com                      |
|    \\/     M anipulation  |                                                 |
\*---------------------------------------------------------------------------*/
FoamFile
{
    version     2.0;
    format      ascii;
    arch        "LSB;label=32;scalar=64";
    class       volScalarField;
    location    "0.5";
    object      p;
}
// * * * * * * * * * * * * * * * * * * * * * * * * * * * * * * * * * * * * * //

dimensions      [0 2 -2 0 0 0 0];

internalField   nonuniform List<scalar> 
13486
(
17.9398
14.0255
1.19662
-6.44942
5.00532
-2.01543
1.48684
9.51565
11.8428
5.8498
-8.80518
3.0459
19.0451
-3.42559
3.48382
6.17199
-9.26692
-3.1237
3.72211
15.9218
-6.21789
18.8548
13.4062
-5.18858
4.83779
-5.00757
-7.5245
-4.07393
0.373633
-3.07126
-5.58927
2.22216
-6.66338
-2.47199
9.55406
0.141805
0.155961
14.6283
-0.253845
11.5478
-1.28519
19.8505
0.172939
4.90718
4.67408
2.94431
-24.1777
0.200382
0.194758
-4.32899
9.98306
-0.104887
1.92412
14.8659
-2.60933
5.36594
0.653107
0.129599
-6.35482
0.327118
-8.24565
0.355334
-16.08
-6.25372
-3.41637
0.250394
-6.77819
17.7963
11.8517
0.467572
-6.75262
-1.26748
11.9403
-119.496
0.102421
0.494907
0.121517
3.37912
-18.8145
-0.271505
0.139824
13.9402
-16.3068
1.18287
18.0346
5.25401
0.827639
8.92134
11.7052
6.81929
1.53325
8.10336
17.1999
15.0379
12.4054
-0.0225479
-7.57892
-6.37263
11.7217
-8.92439
0.100229
-2.79501
-6.32157
-0.142459
7.79898
-9.18925
11.5935
-0.0639105
-20.3145
7.31611
11.7425
0.576325
14.8447
0.519762
21.4918
11.808
4.8099
-2.30221
11.8066
0.0595633
-4.15165
-8.22815
13.0275
0.064937
11.3106
-0.186406
8.27444
1.89673
-2.17291
-2.91527
-0.119999
-23.9174
-85.0345
-66.9684
10.7723
8.79146
21.1056
7.46954
0.105446
9.88145
-5.98209
1.88618
3.34358
-0.586112
0.602456
-10.6505
1.41073
17.2517
-4.95505
-0.211232
6.71714
2.99226
0.44262
14.3046
2.24724
1.46101
5.31751
-2.15331
13.1281
0.707331
-3.18538
13.1165
-2.09804
19.6316
0.0107602
-5.65932
-1.37715
25.5749
1.28266
-65.8285
-80.0796
2.62264
6.58019
6.18949
0.0754139
-5.94307
-5.89256
-7.51488
11.4732
2.78084
11.164
0.508195
4.5975
-7.12307
1.53625
-4.37148
-0.00692458
-3.3703
-1.20528
12.8375
0.181063
1.12554
-0.439054
16.1206
-0.447468
-8.80559
-2.98624
-3.43815
16.4651
-4.57049
-5.51819
1.67374
14.6178
3.70657
0.866717
-0.231549
-12.354
12.7934
-0.4583
1.45278
-3.61288
-4.09444
15.6421
11.51
-2.35999
-1.53204
-3.40401
7.17589
16.195
-16.0388
-9.57128
-4.68366
10.1415
-3.45071
1.60798
17.6076
-3.70042
-4.93582
-1.31391
0.540953
11.0493
-15.1561
-6.37094
20.3764
-6.03213
16.978
-2.54963
0.56353
17.2086
4.7794
-6.38518
6.95906
0.509784
16.178
0.154256
13.3466
4.98083
-4.1226
-98.0669
5.67327
-6.64014
21.7331
11.095
0.00906041
-0.742246
-6.22899
2.00961
-1.66297
-0.831358
-6.46501
12.6643
-0.0435734
3.38084
-6.22573
5.31601
-7.0569
-1.29856
-5.59169
10.7034
0.660957
12.0561
11.1836
-3.5401
2.50752
17.697
-4.24605
-0.827949
-1.4072
-0.0813167
1.44001
-1.40637
9.29669
11.6627
-7.02699
-8.05049
-7.19385
-7.08281
-2.05131
2.13169
11.5587
-6.12179
0.279281
12.6428
10.2279
-2.61151
-2.84379
-3.85348
2.5081
11.9164
0.62196
-2.97775
-11.0514
1.35801
2.29413
0.190334
2.81793
-3.70087
5.26885
0.25418
0.246737
-42.8174
-6.41877
-3.4752
0.418794
-8.78038
8.95794
0.381492
11.3291
12.6032
-1.51964
-0.0226781
0.145416
11.575
15.1446
21.9028
1.64056
7.01592
9.44532
1.8624
6.48409
9.4791
7.7329
0.6153
16.3203
0.706156
11.7333
22.4437
3.25614
6.78973
-0.109254
-1.53186
14.9556
6.29802
4.76782
-7.32318
0.0435813
7.32575
21.5216
-16.4403
0.347194
7.53842
2.27415
2.35892
-7.83531
11.6217
0.434174
-116.97
8.00787
0.5044
-3.90378
4.29131
1.26912
12.7754
10.969
-3.24688
0.50103
-2.69917
-28.8222
16.1674
8.2104
0.374542
7.58122
1.81002
-6.79988
-1.84353
9.95838
11.2291
0.294882
-8.70726
-31.9279
10.6421
7.23451
18.9679
12.14
-29.9912
-1.02872
0.362216
6.05692
-41.2548
-6.2527
15.3812
-3.69832
4.0776
17.1762
17.5683
0.191586
-6.61809
-6.79462
-27.3934
-6.93124
-38.5015
1.37951
10.3597
-9.14153
1.29104
1.15222
14.8497
-6.83029
8.11499
13.0194
6.09871
-11.659
-4.18418
11.8189
12.0872
15.0914
-7.30947
5.56776
-80.371
5.04602
11.5905
-12.4328
21.5736
6.71948
-4.06097
-3.0342
1.93506
11.8143
-7.51693
-0.751823
18.6984
10.0433
3.90192
1.96116
4.03892
-4.43561
18.8421
0.439694
6.24866
17.4936
-36.9447
-3.61633
-53.4628
-4.15984
0.875764
14.0259
14.0247
18.7665
-32.4779
0.0848481
-7.36857
6.49716
11.5244
-5.25685
-12.2185
11.2842
-6.75735
-5.8556
-7.05041
-10.2885
-2.66088
14.9783
0.116041
-0.202698
-6.67133
10.6551
0.438947
23.7483
17.4516
11.7815
8.94162
-0.0418797
0.0359097
22.3513
-0.800504
0.159616
-3.67573
11.7439
-7.83027
2.51013
7.68429
-0.149816
-6.35384
13.3121
-11.917
-19.0776
7.3154
-6.25493
25.2928
6.87032
9.47613
12.8711
-6.06772
2.09829
19.6779
4.52689
15.175
1.02255
2.77182
-5.28093
-0.442687
0.256877
-9.2702
11.9251
11.6582
-6.59284
-0.0227702
-2.32953
17.804
13.9261
-1.04252
11.9022
8.26186
-6.20195
5.34929
10.3842
-87.9257
18.6283
0.130488
-0.145605
19.7056
7.37431
0.267212
7.5023
-5.37053
-6.78035
4.01575
6.58599
13.1812
17.2755
-7.89162
3.94976
-8.00112
0.038342
16.8331
2.4777
-7.55448
-6.30852
-15.1482
1.75989
9.09749
-3.4072
-11.9811
11.935
16.1134
-0.139244
12.742
-11.0928
-6.87584
-17.7206
4.28997
-7.53742
12.6356
1.3857
-8.03796
9.92456
13.931
-6.17169
-7.84528
9.84049
16.7314
2.57897
18.0441
1.1967
6.68515
1.4569
12.8255
0.403271
16.2954
-7.71295
2.09029
11.3061
-1.96632
-3.86662
11.5333
-41.0279
2.57963
14.8299
18.8326
-3.68692
-0.534105
2.23155
2.01564
9.64894
7.56673
1.74014
-8.14836
-0.250809
17.911
1.31977
-0.699659
-4.92632
18.9146
-1.77841
0.496863
11.1765
8.34945
-0.442233
-2.4207
9.88106
1.81582
0.86474
3.48142
-11.9211
18.3299
11.6217
7.86971
8.50505
1.22519
-7.16458
20.7188
3.32017
20.7549
-5.06145
11.2877
-0.424605
-121.273
6.52196
5.68726
21.8594
-4.36209
6.91949
6.75933
-16.9328
5.48604
-11.5587
-6.39877
11.4097
-7.76327
-3.6478
-4.47837
-3.18992
-1.86668
12.6601
0.146314
20.1772
11.5305
0.693088
-6.86527
-3.09033
2.84851
-8.14384
-4.521
-9.2822
16.9062
0.117504
0.571268
-7.17317
19.0552
0.0617126
-1.03302
19.7283
10.3766
-7.18622
-0.0696467
7.90601
0.881572
11.2771
0.448355
-3.7296
3.61002
10.1657
2.95494
9.44051
20.0111
0.477053
-5.69757
11.2464
-12.7503
-2.15378
7.61994
8.38398
4.01613
-7.44304
1.56578
0.210074
2.06045
16.793
2.71189
1.89653
1.12181
-3.0201
-0.703563
11.6899
0.45053
10.8069
11.0947
16.4745
-2.80497
-12.1815
20.5797
0.406295
-6.75585
12.4525
-4.61248
13.0579
0.376207
10.19
-12.0986
-89.1583
-4.54228
0.0360108
-13.7516
5.45193
21.2305
-1.69573
-9.33848
-4.35759
11.7178
0.586724
4.54777
-7.39368
20.9448
-7.03133
5.6434
-5.21155
5.72786
11.1107
3.73476
-29.8408
-6.02775
19.4912
11.3167
3.72006
10.0983
-1.19552
8.93282
9.042
6.07627
-50.2207
-0.803953
14.6115
0.893761
-0.312869
9.49623
-6.82971
-1.61402
-0.132211
12.4824
12.1019
-5.6135
1.96371
-7.16357
-6.17445
2.17779
-1.80692
0.95675
10.9115
-1.56597
-14.5467
13.8938
-7.10621
-2.70808
-0.0907705
-5.20074
-5.71775
-4.24663
0.0785774
-6.36372
11.309
19.0786
0.202055
-2.62993
19.7413
18.4269
-3.80065
-3.04052
12.1665
-36.3547
0.727522
0.521536
-0.450488
5.47115
-16.1283
4.51059
7.26802
-4.72979
-1.79478
-5.95017
-1.83363
9.93608
4.31107
6.46193
-5.82563
9.71909
17.9412
-11.7938
-6.37641
13.341
2.29036
7.5597
-0.0937477
-2.97754
-5.90404
-1.76477
11.6335
20.8322
13.0116
1.12039
-1.93262
11.2582
17.4236
-3.842
12.5888
11.7425
18.2927
0.89753
0.201351
1.03602
-1.70539
17.9195
1.6451
1.99411
7.6138
-0.91226
3.24531
-1.43184
-8.25472
10.9016
10.275
7.67524
4.61588
-15.8718
-2.4752
-1.69552
5.52657
-12.5694
-8.62805
0.496502
-5.97944
-8.03695
5.01966
-3.09379
-96.281
-16.738
-1.78246
8.09934
-8.93562
-5.70521
13.0332
-5.28769
18.9222
-4.78602
-107.802
14.1467
16.9292
0.453787
-0.240683
0.390989
11.8705
5.73481
-12.7625
-0.568358
0.196673
-1.62369
11.2849
0.550635
6.06718
0.21353
11.8147
-7.71666
0.521509
0.521889
14.3837
-5.56159
-8.61934
-4.90542
18.759
0.247278
-5.55546
-9.46858
12.0891
-6.18219
0.34103
2.6397
4.70724
0.808382
7.67077
-3.34351
9.08933
10.6599
13.7286
4.68457
-0.610398
-2.15385
8.03397
-6.03702
14.3744
7.19618
-0.498969
-0.0126152
-1.13102
-1.06448
0.0728408
13.2643
4.26556
-10.2067
11.1121
-5.10882
9.04023
21.5782
-1.43222
-12.5101
6.83411
0.979164
-0.106449
-1.13827
-6.5947
11.5378
0.497932
-0.68677
0.257313
-0.299707
15.4955
-7.16975
0.058885
11.1568
1.10534
16.7745
13.1777
15.9333
3.20112
7.07617
3.29211
0.647714
8.26811
11.3811
-8.78221
-1.83862
-17.915
-2.61867
-7.11553
11.3675
-9.34608
-6.16894
-5.94443
-9.63495
-0.121063
11.4035
0.272191
0.842086
-58.8857
10.9787
21.311
1.25473
-8.25519
5.47948
-7.79829
11.0022
0.646142
-0.0313568
14.1673
-0.360776
20.0565
7.96803
11.4545
-3.08899
15.4955
0.407372
13.4316
0.246097
-6.41473
-5.92647
-4.48096
7.90581
0.585366
-6.41984
18.8604
11.0788
12.0849
16.9396
12.6038
14.3058
-1.7233
12.152
11.6198
11.9174
-1.49059
-3.72054
-4.54337
-12.0634
2.32909
13.3146
-85.0116
20.9587
-14.6253
0.45569
20.6213
17.034
-1.87575
-4.58898
11.7417
5.4112
-2.30097
10.8165
-65.5896
-5.00739
11.2619
16.5514
0.0301692
13.0639
15.1086
-0.448911
-3.51811
15.1949
4.75604
0.20885
-8.07352
1.52673
-7.82318
10.3126
8.3118
0.340421
-6.17228
-3.519
2.36701
0.144731
2.74845
17.3263
-0.199927
23.3683
11.649
3.36468
12.8791
-7.13009
-58.0949
-6.16184
11.602
-0.0370077
-54.9352
-5.34606
4.8402
6.09248
0.32632
7.76628
-35.4249
5.37791
0.609385
0.328477
9.22868
3.32728
15.4389
11.5929
11.9566
10.9736
-1.89609
-5.7934
-5.76114
1.81021
-3.82682
-3.42994
9.21068
-4.92344
0.272024
0.37806
-2.05225
-7.33108
8.08486
4.37155
0.855497
-3.53158
5.14939
-5.13676
-4.84057
2.32184
0.623318
13.0224
8.24483
15.4733
-56.8947
10.4712
0.548013
16.5268
-2.16921
5.21119
0.0760688
-2.42058
19.5867
20.3138
8.67562
5.21838
7.58441
10.7128
19.8688
7.42508
-6.39621
-7.31498
2.59729
-14.7869
-17.0264
11.3744
11.3717
0.912755
0.784207
9.3676
10.1297
21.8717
-9.73118
8.32897
-27.0715
-5.96044
16.9032
-0.842461
9.43844
-3.6411
3.34026
3.54574
22.8536
0.628735
-4.77177
5.25974
2.41717
-7.46458
-71.3218
-1.78476
12.7961
0.824092
5.471
18.3464
16.5688
-0.6308
-26.4565
0.763174
0.821236
13.9697
10.6188
16.687
6.29373
-9.45824
17.596
10.4867
-12.7726
8.60443
11.8512
14.9963
-8.18291
-8.3441
-0.0354006
9.39238
19.453
5.1313
-0.804375
-7.52497
21.935
-10.8154
-6.41011
20.2734
9.825
1.18237
9.08455
-6.64599
6.00069
-2.40858
-10.4732
0.143623
-6.27079
0.0571543
-1.73365
-40.3938
-11.8199
-15.3761
0.378867
-32.622
-6.7229
12.0042
10.2875
5.06442
-35.908
1.83593
0.847428
-2.01766
23.1722
7.09085
-5.61507
9.40136
-2.42591
-6.26669
9.27302
9.15004
11.2637
23.5347
-0.134527
-0.886373
-5.16322
1.84913
7.42259
11.5041
-4.79599
17.8129
7.43317
12.1207
-5.54451
-0.514728
1.16154
12.14
11.2501
12.6648
11.3101
21.1884
20.9408
-2.35865
9.80714
15.0342
-4.74214
16.7873
-0.173721
20.6183
16.6946
-0.0983406
13.021
4.93656
8.53174
1.04274
11.4528
-5.61075
9.87201
3.12125
7.13602
-1.42945
11.0915
-0.192099
2.20773
19.8555
19.75
7.38014
-61.1694
3.31599
-1.75955
-1.25025
8.76722
17.5849
-59.0916
11.7259
11.1491
5.27425
12.0093
-6.83986
-3.3767
0.304295
21.8252
2.0833
0.794233
13.4244
-1.62463
0.718848
4.70446
2.7048
8.01398
3.0986
-3.28586
6.64569
9.09092
7.22318
8.35585
21.0151
16.8134
14.881
20.4915
19.6025
4.75072
-0.287141
-6.61039
-16.6849
19.5459
-4.8954
11.5247
10.3401
-7.07585
5.40936
12.9333
-4.45883
5.44555
6.63292
23.8403
-7.93359
4.95401
1.22559
13.5719
1.0774
-5.92452
19.2434
16.263
11.291
11.3809
-2.62982
3.36523
-11.2049
20.8545
0.224413
22.6715
-6.68881
-0.148115
-103.159
5.19046
-108.166
0.978391
-0.383773
4.04656
0.843367
3.05277
-6.0144
-0.0299177
-2.02695
-55.8107
-3.91445
-13.6187
0.864526
-0.742156
-7.15906
-8.04701
11.9697
12.217
15.441
11.3493
4.29545
4.24711
25.5357
11.2682
-7.80747
-0.00320625
-1.87566
8.35614
10.1914
17.7875
-7.17383
-7.05767
9.1439
-0.0313166
2.59521
14.5861
-71.4939
-7.20869
-14.3629
21.1518
-6.53401
8.03517
15.2551
-6.22668
8.81932
-0.242217
-8.07134
-8.01986
0.731839
6.92995
14.0207
14.7514
-13.1232
-60.1361
6.95305
-16.0065
-3.20132
-1.49877
1.80328
-2.15831
0.445245
-6.26304
-7.96142
-5.32994
18.457
-6.17024
20.2526
-7.52242
-1.05853
3.79787
0.655105
17.041
11.504
13.9672
1.14187
-2.62667
-8.24197
16.5649
-53.7062
7.97621
0.144821
14.0722
16.8534
0.0648619
11.4067
19.3842
12.8788
12.4885
-30.5503
-6.17698
4.31904
-4.55918
-0.223752
6.37906
7.78638
1.44314
-8.71301
2.93922
0.80968
9.85649
8.11562
-3.48588
20.5445
1.45839
0.0900313
2.32387
11.2966
-2.91795
0.139874
12.7293
-7.08327
1.28488
-2.3657
12.4378
10.673
10.0937
0.443493
10.457
13.4448
13.2474
-2.47059
0.424753
1.51629
9.91829
-7.24617
-73.8202
-5.42712
-14.347
-6.52643
-0.142409
-0.143133
0.290871
-70.3101
-5.24237
-7.39578
0.698541
-2.39545
3.78764
-7.68545
12.1447
25.7157
3.05355
-1.8591
4.28741
0.498415
3.25876
0.0897625
-2.90949
-5.58211
2.23623
15.6975
0.0543519
19.0509
0.288547
10.4364
9.29369
4.71343
-78.3395
6.02292
21.2678
-7.32409
11.387
10.7077
17.7403
2.06086
16.1997
12.6603
-108.534
13.5343
-7.97067
-10.5563
16.6497
10.0163
-13.3388
-0.785641
15.1744
-2.53995
-3.96374
0.412422
0.453032
8.45355
5.50247
11.444
10.7435
9.80067
-29.2632
-3.56243
-2.36691
10.8268
22.7271
-3.28585
-11.7321
-89.1778
11.7581
1.75049
0.852951
3.74811
-22.6602
8.85638
-12.3168
0.311688
20.1953
3.74533
-1.80487
-5.53061
-6.59358
-4.23851
-23.9086
-5.31692
-7.21216
13.5903
5.51145
-4.11316
19.2643
0.175122
-8.10091
-1.92962
-10.5977
12.6887
-55.4583
3.29578
11.5125
0.589661
-2.59418
-0.874604
-7.90106
-5.05803
12.6087
-7.44184
-0.0749072
-11.3818
10.8326
12.3877
-6.4765
14.7268
13.791
18.3074
18.7698
13.0857
2.46409
21.7406
-14.7553
11.1842
1.63332
-6.62848
14.0924
-5.61997
18.1984
4.79881
-10.9647
-40.3934
-27.8049
12.0253
-5.2929
-2.57383
1.41354
-12.4839
-0.109881
6.98789
1.68122
8.31581
21.1314
-86.8098
-4.97217
-5.82945
12.2193
8.39234
-3.96225
25.3819
-0.0393346
0.680516
6.71738
-12.2647
11.0083
12.0206
13.4741
13.7469
0.313531
5.7946
11.1407
2.34822
-19.436
0.335501
12.8503
13.059
16.5071
-7.60052
1.03628
4.66352
6.23651
1.2675
-6.08332
9.2904
-3.06612
9.73857
11.8986
-10.7274
19.0684
-4.1305
20.8039
13.4985
-7.08458
-0.0746197
0.422315
3.99622
11.9232
-6.60648
16.1095
10.4346
4.92821
0.417732
2.60855
-4.20949
4.7873
-12.1085
6.56538
-4.97497
11.0438
-60.5835
3.77844
-2.37551
14.4465
17.1915
5.36012
-52.9102
5.00662
-0.66068
1.49606
5.89128
-10.1535
-6.45956
20.2815
-7.2343
-0.0175021
-5.41144
-9.85753
-3.67523
11.0582
-12.0696
-2.00213
11.869
7.01625
12.6558
-6.93316
5.0815
20.525
-27.3824
10.8095
2.99992
-9.79285
3.93585
2.77245
-6.07819
20.9568
13.4516
0.934363
20.2762
15.3898
14.1753
-17.2354
-64.832
7.00526
-13.0383
-2.07604
-11.0695
-12.7235
-10.8911
8.88792
4.38295
6.34842
7.32774
-8.15428
8.27214
11.072
-10.2787
12.4134
6.15404
11.4774
-0.692271
-0.101493
-6.37714
-23.9797
-6.73574
-2.1272
10.8489
-6.70268
18.5813
-7.06833
10.9781
6.4341
0.451658
1.00503
11.8365
4.50862
2.66045
10.3651
-0.155697
-5.00151
17.4227
13.8258
-3.78204
-8.22235
1.89761
9.59075
-0.495699
3.44131
-12.4103
-0.0669564
-0.852686
0.687243
9.89687
9.4816
-0.357585
4.36996
-0.832756
-0.0139029
-6.37373
14.3377
-6.60355
11.323
0.105664
9.64896
12.3133
5.79402
10.6761
0.135566
-5.93549
0.314314
-61.1625
-5.71912
-4.02772
0.722893
-7.14442
8.56018
-0.788922
11.2244
-6.19974
-18.3754
-17.7175
-0.207056
11.9153
-7.99652
11.2081
3.21275
-5.42304
-4.51936
-6.60415
7.32059
11.8761
0.127842
2.54619
-68.0852
13.8985
-6.79617
2.71515
-7.27879
14.7247
5.30695
0.207166
12.3574
12.0812
14.2764
4.01582
14.3005
-30.4008
0.648171
-1.19857
11.1953
6.61305
3.07215
-2.47056
-5.8982
-6.96123
5.90148
1.09141
-6.79403
19.8686
-35.464
14.081
8.00614
-2.71685
-0.166591
1.0204
-0.390531
0.672296
2.45241
10.4208
0.224754
11.5211
-17.7157
3.44598
-6.16727
0.742682
-6.24594
14.8222
20.5567
12.8693
5.4995
0.173834
6.88681
-7.57887
-8.54327
0.348938
-0.874213
-4.14367
-7.20191
-6.09654
-3.84059
10.2717
11.4657
-13.0153
3.5616
13.262
-4.67484
-12.0296
11.9911
-0.158039
-8.34337
0.627415
-1.72816
0.0983524
19.3567
0.536579
11.0693
-11.9517
-6.47201
-4.37856
11.3986
1.40968
9.26494
-11.422
-4.94036
0.816038
-0.158561
13.2935
10.2839
1.54624
-1.60728
-2.60197
21.5355
-6.84981
13.3219
14.8501
-2.27834
-0.0536209
5.0979
-85.3461
-11.8309
9.72183
5.67969
11.1587
-5.81374
12.646
0.71615
16.7388
0.0986086
9.62538
14.5913
9.36918
2.29191
-7.16904
2.78173
-9.57842
9.64071
4.81443
14.2121
1.05019
18.1786
2.41823
19.5665
0.916122
14.9754
-2.36535
8.36811
-9.46621
10.7574
4.92941
4.19065
18.5102
11.0966
2.70387
-3.57764
6.0091
10.3637
-0.104364
-22.8974
7.63229
0.828427
15.2326
-6.0933
18.6085
1.9305
25.589
18.5736
7.93584
7.004
-9.39434
0.703992
20.0459
1.29356
-0.683146
-0.619705
20.3922
5.17384
9.7479
16.487
-6.63493
12.6103
-1.90936
14.0151
0.399273
13.2649
11.5576
16.6975
0.0868732
-18.7316
3.41199
-6.91347
4.98736
-0.541827
0.953145
14.9922
17.3061
0.265378
2.17148
-1.6459
15.6445
8.72698
10.4073
6.56923
-0.89098
-49.5244
-5.98685
11.5142
-18.6299
-6.07103
0.0475005
7.92545
5.41726
-4.0257
21.181
-5.68423
18.5423
1.75045
19.4607
-2.7757
0.336169
0.56339
0.226124
9.36468
11.4091
1.40468
-5.57751
0.833383
-6.24501
17.4155
-4.49119
-0.186081
-9.79989
-2.33877
1.97359
14.5087
4.75827
0.684116
0.270383
11.5818
22.7565
-6.70686
0.965237
11.2649
-9.1005
5.16547
0.17325
7.69784
-4.35904
-37.0815
-2.50671
-3.26763
-0.870787
1.22807
-9.80383
-4.15828
-1.27733
8.76179
12.2661
9.7321
22.0221
-8.46372
20.0034
-55.5478
18.8682
-6.52232
-7.28944
21.2377
4.23742
-3.47195
11.5461
-0.436393
12.8156
-12.7039
-11.0558
2.69358
-3.82054
-4.33924
0.140666
-0.907432
3.96456
14.805
-6.25174
4.16779
-16.3682
2.11872
-6.99988
-0.143794
-5.00663
-6.05755
-13.867
15.345
0.161898
17.467
3.91877
-8.02234
2.91389
-11.8023
0.558182
10.0664
14.7326
22.0034
8.2113
9.58464
4.72087
-92.1401
21.1896
22.9164
12.6333
-7.11514
-5.93658
-9.7821
10.6097
7.04485
3.55503
9.32617
-5.10974
-0.0338267
-10.1905
17.9053
0.109995
0.933787
-5.87259
11.0662
3.09248
24.7624
22.9394
10.0953
-0.907466
1.69565
-37.0466
3.69275
23.5301
-4.40308
0.40959
8.18877
0.41618
2.4902
-1.61206
-2.39769
3.0429
1.95741
5.35213
0.148083
2.96292
16.555
1.65595
12.1176
-5.68212
-3.96165
20.4439
-7.85807
-1.67003
1.13214
4.05386
0.588028
-6.55937
-0.24746
0.730372
1.46007
24.9043
-79.7995
-12.1534
-4.75001
-9.99397
-1.78023
1.32948
-6.53381
-10.2544
0.220792
-16.5301
-10.7644
-4.56235
0.914746
0.991953
0.333756
24.4529
0.361669
3.62338
-0.855309
1.9291
-48.9347
-2.31996
16.2912
11.8039
2.94577
-1.56483
10.8598
12.1555
-9.11493
-7.14573
0.470437
16.0368
-4.86319
10.2233
-0.26161
18.3926
1.95739
-5.52403
0.416458
12.639
-3.24915
9.9824
-6.81242
23.383
-6.43199
-2.26335
-9.00289
4.39083
-6.28998
-6.6312
-6.29522
1.93308
3.85586
-5.69392
-7.34046
-0.67248
1.70844
-3.59448
-10.435
8.87453
-10.9171
9.91627
-6.18765
12.7355
20.9927
10.7351
-53.5816
11.7332
2.09543
-0.688448
-0.429526
-4.04472
-7.40375
0.766507
-2.50811
3.88048
-0.616857
-10.9066
-1.82055
-9.27015
5.29961
11.881
-13.8738
-6.4552
-4.44765
0.187645
-2.42099
6.49327
-33.4045
-6.4905
11.2963
-6.47583
5.77056
-6.33544
-9.55858
-7.71482
-8.4201
24.3644
2.77088
-4.59831
2.50387
19.7855
20.5067
-5.32184
-2.13205
11.1971
0.0166067
1.08844
20.214
5.79146
10.0104
25.3364
-4.65676
1.83112
1.29492
17.7657
11.5779
12.0496
14.6366
7.9571
0.249121
0.854253
4.60715
2.93266
-33.7686
20.7509
-7.97383
-8.1534
0.246305
-3.63165
5.23051
-5.74552
-2.2163
2.70801
12.1444
12.361
13.539
-7.28643
17.544
20.1364
-11.3139
6.90918
-0.373157
0.121305
-1.59961
5.58758
-10.5327
-4.53289
-11.4727
22.747
-7.93196
13.5796
11.654
15.9016
8.40807
9.04765
-3.37489
0.359678
5.91696
-0.0954915
-11.3154
-13.9862
1.18689
-6.42606
14.4429
-5.56677
0.137352
1.48428
-52.4278
-5.90136
-15.5178
10.0754
-2.09376
0.716462
4.57348
-5.18487
3.59429
-12.9354
-0.48447
12.3093
-8.06455
20.7423
0.202693
22.2515
0.0864598
0.554993
2.04179
9.60343
9.72206
-21.8138
-0.723679
-3.37682
1.63657
7.89987
25.7096
15.8888
2.56026
-4.78312
5.49911
-2.1511
13.544
-0.752689
5.92444
-5.91441
-6.07974
-54.7373
2.49466
0.315209
-64.8705
6.58524
6.77399
19.9409
21.6606
-19.2671
-6.60028
1.34086
-11.108
21.0276
4.23002
-6.79043
4.28979
8.34297
-4.61566
-4.82246
1.69439
0.0968839
10.4909
-4.79634
1.40718
1.0072
-7.57115
-18.6486
-3.84632
-19.8142
-16.2257
12.9685
-5.1708
-5.51202
-1.79336
-11.3866
23.0865
8.20331
10.2755
-2.00612
5.47033
-1.2209
3.90331
2.8152
-6.46031
-55.347
20.9601
12.2162
-0.636421
-84.6456
24.213
-6.06113
-67.8989
-5.95348
5.3604
-6.31732
-5.0634
17.7639
-1.24868
10.665
3.91136
-6.58877
-25.0373
0.873551
6.04506
-21.7686
-0.238889
2.78096
11.4718
-6.58905
-69.2341
0.250097
-2.65729
-12.8163
-10.8849
22.5205
6.76164
-6.85995
5.00203
2.31359
19.415
6.1308
-63.6482
6.29741
14.7061
12.9266
-3.65423
9.75398
-4.36475
20.8096
0.416713
11.65
-7.79125
-3.70219
0.125358
-5.86174
6.25008
3.15692
-68.2606
-6.40076
13.9452
-7.31994
-1.29573
16.5436
7.93233
15.9196
10.0629
-5.32869
0.379614
-0.325706
11.538
0.0909903
14.678
8.73572
20.4628
-6.48276
15.5132
4.59157
20.6784
-6.76338
-7.0246
21.215
-6.36704
8.47091
-8.07729
18.1824
20.3049
12.4605
-22.4511
10.8303
15.3035
-3.46428
4.13058
-5.06483
16.4105
-6.23892
-5.9575
-7.97257
-9.48098
14.998
4.63452
-12.9398
6.26854
20.2822
-7.77422
-2.77942
-11.6002
-7.15381
9.58215
-0.90926
10.3627
10.9329
-13.9782
23.2854
-0.369195
16.8786
17.0994
1.07362
0.334929
10.2366
-13.0745
-1.61669
10.0347
8.4995
-4.93966
11.0805
-6.51122
18.9283
12.4266
3.83776
-2.66138
13.1652
-5.00085
6.43105
15.813
2.70161
0.148989
15.1899
12.4727
-4.68807
-72.4488
8.51547
13.1351
20.671
-116.674
22.0389
21.8447
22.3617
-1.35527
14.6656
-7.6372
11.6722
16.1808
15.4145
12.9325
17.6306
24.7525
9.7117
-104.272
-2.17671
-45.9257
24.5376
5.99757
-5.23807
-6.51057
10.7922
17.6171
10.8092
3.18008
-0.749206
17.4179
-12.0458
12.5864
-6.5289
4.88368
0.024178
1.76041
6.8158
-7.27931
-7.10631
-5.30186
-2.79658
0.13334
14.3868
-3.21096
2.22752
10.4704
-9.50234
6.68966
0.198289
-9.29642
-7.87595
-86.7109
16.7101
18.0413
-6.07866
4.84331
15.0769
13.6821
0.0672156
-5.30773
12.7398
-46.4494
16.3181
-9.03121
15.7575
6.65715
1.51892
14.4925
7.04243
15.586
3.71124
4.56195
-3.77292
-60.515
-10.1839
-0.149182
15.2614
-5.83408
-4.678
-5.84677
17.2661
15.4562
3.09054
8.41154
17.2308
-14.8018
11.1503
0.476446
-4.36524
11.0581
-5.37823
-7.82975
-10.1514
-21.2144
-2.09321
-6.90607
0.277049
-10.7244
-108.591
9.34106
20.875
23.1682
19.6947
-5.9444
12.6632
-7.88001
10.6023
17.1228
0.858014
14.9079
-5.62076
3.64257
-3.80941
-1.12973
16.3391
-10.0272
13.3166
-7.76719
-3.45388
-19.1447
13.2638
13.1896
11.767
-8.14227
10.738
-9.90273
-13.4824
-13.7129
2.87446
21.1156
-19.9903
-1.98306
-6.40545
11.3056
11.0148
-0.957312
6.62747
-8.37655
17.4908
16.2133
-4.77716
-2.96663
17.0432
-5.03225
-8.19685
0.20557
15.3326
17.5525
-7.53588
7.77079
-2.61
20.4325
-12.4492
-3.76524
-0.853635
19.0991
-0.274524
-3.02068
-5.83791
16.35
8.57902
16.1298
-1.45756
-16.4984
12.9733
23.9843
-63.6321
10.3204
-0.92835
-14.6929
-0.912304
3.90743
-6.77481
7.51094
-6.65225
6.89533
-5.18789
-4.48022
14.6346
17.8985
10.7248
-12.4271
-3.67166
13.7586
-8.11512
3.22948
-4.45056
5.41035
-11.1613
12.3567
13.7485
-0.970576
12.8738
20.274
-1.65457
9.14372
13.0602
-13.6714
6.39063
-4.05987
5.316
2.75208
8.55595
0.31551
3.42962
-1.78739
-29.8499
16.837
3.31549
-2.02486
-4.88916
-1.27186
12.0786
-9.306
22.2844
-7.96836
-27.6509
-5.94521
14.8727
13.4884
16.1205
-41.2311
19.4612
-7.04563
8.86591
1.6295
-10.8184
10.5249
5.13185
-1.78265
7.55127
-49.2669
7.97641
-13.1294
-5.20044
-0.0672796
-8.74476
-9.63758
10.2187
19.9177
0.796028
-7.71391
15.1904
-11.228
17.9896
3.91361
-0.166134
5.983
11.5634
6.00374
-5.39818
0.422735
-0.558004
1.95421
3.41209
-10.2792
-6.25081
0.845706
6.25507
-2.16657
24.7268
12.6323
11.4344
18.2865
1.01939
12.9622
-5.73296
-27.67
-5.2744
11.1909
24.1149
10.6449
-7.80375
16.7639
10.9106
11.1249
0.516599
-0.919777
6.00379
22.4436
-0.182917
-4.42749
15.345
17.2311
12.4385
11.4435
14.206
7.6608
-7.99679
-5.91299
12.8657
-98.9962
-55.5064
11.5291
-5.4648
-2.47161
2.20208
12.7326
13.3046
13.5127
-2.16239
15.9433
16.4266
-0.078974
14.2129
12.1504
10.3404
8.40283
7.3749
5.37016
-0.407026
14.9626
14.1748
-1.19896
10.5513
-2.18432
0.346386
19.7097
14.7021
0.147642
-7.25838
0.525478
15.2656
7.94278
1.66746
0.0436383
2.2602
-3.25142
2.49703
-6.73639
-1.9022
8.13601
-1.32907
-7.38432
-8.25774
18.7049
-6.9754
-46.1406
-6.6169
19.9842
-2.83024
1.75444
1.50653
-10.624
9.06268
10.8084
6.68316
17.5609
8.69165
0.0193613
-58.6391
-7.11812
0.122719
13.0584
-1.14925
-7.73924
-13.0787
-2.28094
-49.227
-6.53603
-13.6183
-0.987116
3.7682
11.4805
15.6311
-2.02846
0.375155
17.5742
12.9407
-7.52933
-3.09459
-47.7592
6.75209
1.89746
5.84357
9.0967
-8.28092
-2.6986
-3.04954
2.33177
-6.57528
-64.7963
1.52734
-5.1727
-29.8968
-11.8075
-6.86482
1.42301
-36.0551
5.60837
-7.84398
11.2661
9.55653
1.53228
15.1792
-6.82658
20.1156
-3.71387
0.584913
-10.0525
11.4958
6.77442
-66.1567
-31.5364
11.6397
13.8134
20.9269
-7.42721
-40.9097
-6.3404
-1.02055
0.130197
-7.96127
2.82495
-6.95151
6.63236
-7.80034
8.52752
-0.254456
0.12956
17.955
10.1139
-11.1849
-0.568315
-11.8045
-101.127
15.3322
23.1955
-80.4426
14.5864
10.1698
0.0485679
-9.81568
14.5639
14.0646
-13.8491
-2.69015
-5.42872
-6.61457
-9.97053
-8.17488
-9.80894
7.2522
0.0926064
12.5045
-8.19715
-12.0886
10.6497
-9.55576
-8.26704
-0.0626715
8.43399
-9.88881
-5.31391
-13.0481
-8.01597
-7.1699
21.3007
-32.7974
-2.78497
-7.78952
12.7272
-17.8902
-1.77302
-11.488
-8.66119
-3.59805
13.2438
0.0960224
-7.81793
9.67545
-0.210522
-3.3525
-10.1326
-8.55734
7.77613
9.29679
11.3909
-23.2469
18.0494
-2.6251
-0.114196
0.952725
-22.4629
-6.08749
-8.19118
-6.0681
1.95649
4.25561
0.586512
-3.58474
-6.22169
10.841
-7.89555
11.132
-8.74169
6.82138
-2.03912
-6.18863
0.535302
25.8697
-7.69292
-12.0711
-20.6947
-5.43745
11.9366
0.392682
0.806579
0.149984
-13.6681
-7.3423
-103.171
-7.43712
12.9065
-10.767
1.20534
-14.0592
-0.838034
9.99749
0.854676
4.18447
-3.80266
15.656
-16.6997
-4.49383
16.9663
3.8639
-15.364
-3.19544
-9.16067
-5.82753
-3.39902
15.1384
-5.43793
4.19129
-36.5134
-9.01769
-9.78084
-10.5766
-53.2304
6.14234
-1.63876
11.4034
3.39028
-7.68523
19.8012
-6.32266
14.2666
17.7247
-11.7362
-0.592705
12.1605
10.8285
8.84379
-5.16686
-7.58756
-7.8887
11.6735
2.56787
-5.71674
-9.96727
6.00733
13.6439
-2.88068
-12.5238
-0.106409
16.5978
-12.3682
-14.0532
0.206662
9.01863
-0.426375
-0.106225
18.1052
14.5513
0.522312
-5.67135
14.9937
4.64034
-1.65076
10.6264
-2.79695
-6.46659
-8.71774
-5.5723
13.91
12.5029
-0.388433
-4.2214
0.458795
-7.09097
12.7739
-5.85579
8.66515
15.7643
17.1008
-3.2192
11.7891
10.0891
13.0711
13.9773
-2.40194
14.0032
-0.363801
11.1129
5.90181
12.7474
-7.16573
14.6802
13.9573
9.49994
7.10963
-4.03703
7.95406
0.402874
-4.6385
16.2449
15.8994
-5.22992
15.897
-5.69925
-77.0812
12.644
12.5307
-10.1275
-0.796361
-33.9143
-5.48215
-13.1415
-5.76825
-9.73614
-3.82102
10.4672
22.3482
15.078
-2.22259
-5.95925
12.3956
5.43508
-6.01874
-6.42761
-3.62992
-14.7626
-105.148
-59.8876
10.7267
0.636808
4.17747
0.203333
0.284584
-1.59159
0.591613
2.21318
5.37448
7.44125
-3.69815
4.63706
-23.1694
-7.52737
7.61974
5.31862
-0.746604
-2.34886
7.14456
0.107762
3.67365
-3.82577
11.1015
9.5173
19.1921
11.4168
-5.06048
-3.76735
-4.45022
-3.35732
0.04192
0.241
-1.08469
-5.12349
22.6703
1.18949
-10.0972
17.7632
-6.54653
-8.93592
-11.0037
-7.16247
-39.4482
1.72313
-10.0517
11.2717
-1.46636
-4.79378
0.603468
-3.59623
-6.34557
-5.72024
1.29889
8.66229
-6.4681
-5.96796
-10.8109
4.16604
-5.83035
12.4174
18.3323
-3.24844
12.6038
6.24117
7.49726
20.2258
-6.76083
6.42776
6.15912
4.76171
17.1875
-4.83
-1.10553
-5.63589
12.3165
18.3422
-5.02028
0.315162
-5.69482
-5.14787
5.54658
-4.43953
-11.8949
-3.69064
3.66028
-50.5847
3.41937
3.131
9.83886
2.21992
-116.844
0.938319
-0.135626
-0.988434
19.616
22.2637
16.0744
23.4444
10.0492
12.9861
13.382
11.3033
10.6842
-4.68528
11.9969
-3.46985
-108.134
17.6404
-1.54275
-6.33799
21.0467
-0.163388
-7.03089
5.3851
4.82822
14.1299
-17.9726
10.2129
19.2525
-6.64406
-87.6423
-11.4335
7.97571
-7.86889
15.3298
-1.33944
14.1216
11.19
-6.12961
13.832
-4.07691
-76.1383
-98.0925
-5.62207
14.3241
-5.41327
11.2458
-0.469092
-7.92728
1.44441
-1.58989
-15.2923
-3.97669
-30.6387
14.4397
1.83877
-7.79196
-5.64929
6.8583
2.90977
-5.51596
4.90814
0.265477
4.81577
-11.5023
6.20398
2.40504
6.41907
-0.727672
10.8041
6.59571
2.99761
-21.4896
23.4375
-6.62833
-13.7731
10.9565
9.10454
-7.37123
-5.9472
-7.03001
6.73927
5.58421
-5.20201
-0.851956
-2.11678
23.5632
0.75566
-6.31497
1.48262
-3.8894
7.64455
-1.92385
10.5351
6.73823
-7.93326
6.71417
-45.5613
8.75902
3.5046
11.7112
7.77512
-0.109885
0.0812295
5.17947
12.4726
-0.943654
1.35786
-14.3415
-7.69933
-3.67223
9.65263
-14.1671
5.45111
-22.6212
14.3784
-8.26163
-2.86744
15.6248
14.0366
4.76558
-6.87122
-39.8959
12.4908
-11.8492
14.4787
5.87824
0.188543
11.6574
2.60455
2.62013
2.51942
-3.53738
-4.4013
7.17688
-5.96135
16.0387
3.86734
23.9353
-1.10078
2.8648
14.0209
1.44505
3.35282
12.4173
9.62081
7.06831
-5.69095
-0.120438
11.0851
7.05321
2.80147
-6.26491
-1.06711
-6.94898
-7.83734
-3.67587
10.6608
1.01117
9.27792
-1.67434
19.8065
15.0852
3.66628
9.28939
3.49836
-19.2487
10.2228
7.9681
0.0592271
4.5426
14.5049
12.8004
0.0219727
-6.20732
-15.4716
10.2177
4.63256
0.450416
12.2772
-6.812
10.6194
-16.921
11.1322
4.79472
-0.0030022
4.5064
13.5612
-0.585602
11.8728
15.5091
2.62221
-2.43252
5.79094
1.89183
18.3904
-9.91689
16.4906
13.6369
-8.55839
-3.57079
0.177748
-3.47576
-7.88308
-4.76889
10.7125
16.6456
12.86
16.9423
7.13093
15.3451
4.37337
2.02095
4.67801
0.994025
0.380237
9.10989
0.704246
17.7959
2.70513
-14.6604
7.83162
17.4718
18.4359
-8.11329
6.30125
-4.60865
-100.702
5.10084
-4.31838
-6.22407
5.32547
18.7126
-34.4636
-9.91465