/*--------------------------------*- C++ -*----------------------------------*\
| =========                 |                                                 |
| \\      /  F ield         | OpenFOAM: The Open Source CFD Toolbox           |
|  \\    /   O peration     | Version:  2306                                  |
|   \\  /    A nd           | Website:  www.openfoam.com                      |
|    \\/     M anipulation  |                                                 |
\*---------------------------------------------------------------------------*/
FoamFile
{
    version     2.0;
    format      ascii;
    arch        "LSB;label=32;scalar=64";
    class       volScalarField;
    location    "3.5";
    object      p;
}
// * * * * * * * * * * * * * * * * * * * * * * * * * * * * * * * * * * * * * //

dimensions      [0 2 -2 0 0 0 0];

internalField   nonuniform List<scalar> 
13486
(
26.1282
24.317
7.30244
-23.7425
-5.79472
3.33277
-18.0139
5.37121
12.7351
17.9429
-18.2577
6.45995
27.1158
6.44789
-8.30794
18.5736
-25.5356
-68.3539
6.13988
24.0753
-50.0949
26.7094
23.9616
-39.4801
15.4765
-35.9886
-23.5458
-2.74815
3.45515
2.00332
-97.7975
-6.72823
-15.3198
6.14049
5.49086
1.10993
4.65306
17.1764
-10.0755
14.0331
-23.8214
28.4278
2.92529
15.1844
15.0922
6.71256
-71.4722
1.93883
4.63803
-4.41219
17.9461
-0.673313
4.73784
18.0138
-96.8134
-4.55948
4.29993
-2.38442
-15.9086
4.36302
-16.4071
4.49108
-25.4021
-54.1322
-94.0111
4.64735
-17.975
28.0582
12.4432
3.79156
-16.4397
-73.5031
16.0446
-34.84
4.57513
4.08129
4.56946
-9.1469
-59.9645
-34.814
0.633418
25.3731
-26.4305
7.80459
26.1488
26.533
-29.3234
17.5461
20.4759
21.6788
-5.72698
2.16334
24.0956
24.1136
12.6564
0.739599
-23.0825
-11.6706
14.1078
-25.4102
1.04703
7.10724
-13.7284
-1.61894
29.2896
-27.07
18.8612
-17.8782
-65.3018
-0.577208
10.3315
-16.351
18.0055
3.75272
33.0406
10.4589
16.0821
6.88915
16.2347
4.57816
-64.4487
-16.5876
14.3399
-13.6314
9.7927
-0.529674
5.89429
9.30659
7.7464
-61.4554
-0.205665
-76.0149
-34.4089
-28.6345
18.2569
19.3151
39.1994
-0.0777859
4.53379
6.80423
-10.5873
5.47617
0.364437
-51.2427
4.22769
-17.3797
9.67251
39.8781
-5.22111
0.886654
14.2269
-11.2794
0.515455
25.9841
10.624
7.2623
-5.86054
-24.6779
13.9145
3.67996
-2.06933
13.9089
-19.5218
27.8692
-1.34302
3.15976
8.27924
39.7092
10.061
-28.7137
-37.4032
10.6398
15.8357
2.3135
0.957469
-17.4214
7.08943
-12.6527
18.7748
0.813802
12.0529
3.71725
0.922156
-11.2433
9.00199
-2.88214
3.09203
3.3439
-23.2747
12.9232
4.61954
5.91773
-5.88336
31.4266
-6.77708
-21.3622
-73.012
-2.00452
21.0282
4.13336
-100.975
9.11748
17.1167
-9.62216
4.49289
-6.84212
-107.483
18.7039
-7.02305
8.69822
0.185482
-57.115
23.8098
18.8711
3.25568
33.8421
-0.70816
21.6604
22.1556
-13.9198
-25.6959
-5.4839
7.49652
-2.29319
7.08839
23.7187
0.939215
-85.2037
13.1694
-33.0387
11.882
-67.4367
-11.5879
29.5189
-32.0369
22.2704
5.74155
6.2121
22.7369
3.8194
-16.118
15.7691
3.91821
20.5973
-22.0806
21.3761
5.85235
-15.8182
-32.2426
16.0878
-5.2603
33.5864
8.82847
-21.9645
-4.84225
-16.9911
-6.45547
33.0777
-29.2934
-15.3044
22.264
-12.5365
-8.19858
-16.2433
-5.45001
-11.9045
11.4697
-84.8314
15.8237
-22.5186
26.988
18.8731
-1.55729
7.07731
23.8906
-11.6787
-13.7766
-129.526
-35.137
10.9643
-130.831
9.91375
19.3282
-33.8081
-15.4815
-24.6216
-10.3165
6.82696
7.89013
16.0301
-33.257
2.13678
12.4307
18.2733
6.65477
4.48686
-2.39716
8.14406
19.4105
-21.1392
-20.6241
-105.116
10.4994
-6.78053
4.62403
-12.0116
-57.1382
5.88342
-56.392
4.63732
-11.8417
-25.4322
9.9697
-15.6506
-15.5331
19.6212
2.0271
20.6287
18.9809
12.2694
4.5549
1.09137
18.7149
24.5131
38.4045
-6.16249
1.46654
9.52945
9.57039
-0.137807
17.6079
1.00213
-7.78581
28.5884
-20.9721
11.1618
33.5543
-10.4021
15.288
-16.4338
11.7766
24.4017
-0.990783
0.815675
-10.8617
1.92757
5.70684
31.881
-14.4853
0.929064
6.86873
9.17102
7.51677
-23.6091
19.2624
3.00685
-29.3161
5.87851
-68.1785
-39.348
5.98074
-3.83636
21.8459
18.9168
-0.0157456
0.146905
5.47445
-86.0816
24.3872
6.19861
2.43088
6.09812
8.27455
-5.9972
5.12557
18.0178
18.6909
-3.09743
-13.3913
-18.6719
15.2913
-0.44104
28.5526
27.3338
-83.4454
-1.4915
6.61724
15.0974
-40.5985
-76.3295
23.2188
-2.23208
12.3404
23.3297
29.7634
4.42442
-22.8657
-5.72111
-36.992
-10.8191
-39.5175
16.9847
12.8326
-48.6727
-16.3581
5.64416
23.885
-12.3798
7.11748
23.7295
14.3354
9.26569
-5.04951
19.5213
18.6309
30.8424
-9.28096
-4.84422
-50.6845
3.78285
18.826
-51.5684
32.0787
15.7369
-0.582457
4.45127
9.15902
19.4287
-23.3836
8.95491
26.7058
12.9799
12.1307
8.66757
-8.70711
-14.8879
28.806
0.90936
2.62673
27.6328
-71.3341
-1.80538
-26.2261
-5.61976
-6.64371
18.3251
29.8304
26.9171
-19.1145
4.59905
-10.255
15.5409
20.9055
-4.44787
0.094674
18.6823
-3.88963
-19.321
-34.075
-17.1971
10.4902
20.9531
1.04478
8.96775
-37.7917
19.6253
1.75945
36.7529
23.9298
14.8686
3.59834
1.72944
1.51146
33.3593
6.508
4.51687
-0.842597
11.2893
-25.0535
8.18375
16.2073
3.80994
1.4762
23.9945
-12.225
-33.8014
15.4607
-71.8503
39.3743
15.5896
18.0705
19.965
-15.4256
8.11105
33.9553
-7.59292
24.2476
-19.9005
9.92168
-87.7633
-64.4944
2.92166
-27.7217
21.1165
10.2285
-5.69916
-2.16714
2.69029
29.7517
18.3777
-3.37039
10.8044
6.64458
2.02182
-5.51645
18.0475
-45.6245
28.3081
4.41721
3.77717
28.5715
-0.223484
1.09567
7.28537
-88.1635
-3.81669
5.50024
-2.46512
14.6936
24.1556
-20.3828
-9.3717
-20.9579
1.61266
22.2733
9.53417
-10.0475
-13.0838
-50.6637
-25.0035
5.1799
-87.2943
-0.0759136
10.8084
28.14
-27.9738
21.749
-17.7445
-6.50879
-1.5681
11.7019
-11.6973
18.0207
8.14727
-16.333
8.02539
16.9301
-17.3238
-19.664
18.0885
23.083
12.0661
26.5168
7.9668
15.6582
9.22122
19.047
3.79718
22.1259
-22.9553
16.9889
9.68567
8.52683
-10.8325
18.3829
-70.2998
7.5338
29.2592
26.3211
-166.203
-29.079
11.605
4.48078
13.4903
19.5078
-14.9026
-24.7708
5.65954
24.9478
8.19226
9.23807
-97.9057
26.4843
16.898
3.71133
18.5738
2.30828
-62.4103
23.0575
5.8609
9.48827
-4.58888
11.3359
-6.35392
25.8853
10.5488
8.05551
8.8342
5.11799
-10.149
31.2236
10.3162
30.9556
-85.2869
16.8387
1.51788
-32.199
-2.54661
15.8534
33.1939
-73.4615
-1.24632
0.59358
-15.9702
15.9276
-87.1735
5.82749
13.0405
-19.0202
-6.8701
-18.2735
11.7285
14.7266
19.8219
0.782641
29.1334
13.4813
4.00513
-6.39986
0.639852
10.5637
-16.8183
8.20742
-26.9669
22.1338
0.129201
3.98592
-12.6398
28.5774
1.18029
-18.1872
28.2545
18
-7.89088
-37.2511
6.62813
6.9142
9.27494
3.8994
-134.519
11.2102
13.5653
10.2324
11.1065
28.7892
3.60958
-28.6946
18.3428
-46.7556
2.58475
2.70698
16.4308
13.1216
-8.49827
8.18384
-1.93264
9.39718
22.211
10.3507
9.76192
7.88283
-27.6112
-3.53485
22.3174
4.48973
8.07989
13.1795
28.1285
-55.2571
5.57023
30.8734
2.36293
-3.73182
16.6557
-15.073
22.0374
4.15946
18.5791
-55.007
-27.4563
-47.5327
0.624997
-29.3891
14.5526
32.1279
34.2292
-18.1364
0.295781
22.6463
-26.8763
12.6485
-13.8071
33.0519
-8.21659
6.43841
-4.9363
15.1633
20.4732
18.4616
-15.1506
-58.1556
28.1004
18.797
-9.92865
13.7539
-27.3997
6.97794
4.97738
14.8606
-23.3083
-9.16207
23.3806
-18.693
-21.2949
4.96861
-4.10837
30.9838
1.62444
18.1598
21.6797
-41.2308
8.99258
-7.0421
-52.6282
9.17831
15.3658
-4.82103
18.5511
8.25469
-0.1286
16.3771
-122.657
-75.8483
-58.875
-1.14566
-33.6499
-46.2969
-4.56071
-16.5857
9.34399
27.3117
4.47632
-76.2366
28.2598
26.0166
-165.499
-55.0196
12.1971
-86.0007
4.54147
-27.8932
7.32006
-4.29998
-32.2969
12.2776
15.8044
-0.455399
-140.29
-22.4829
3.78666
8.35384
18.5786
7.37869
-24.1513
22.0285
24.9681
-19.7447
-15.6762
14.4682
-13.8777
8.4057
-13.366
3.23901
-20.9108
4.02964
19.1875
31.2299
17.9798
3.85131
4.93792
18.7513
24.6513
19.1542
13.1527
17.6854
29.5099
-18.625
-1.68905
7.96013
8.23528
28.2468
8.98584
23.7456
8.23355
-7.14073
6.80043
4.32349
-9.2468
19.497
26.9874
16.1008
13.7553
-30.3389
1.5506
15.3644
-4.42433
-7.24542
12.2737
4.04835
-40.299
-16.5077
13.8992
2.42526
-32.0587
-30.5262
13.1171
1.69575
-25.4265
-25.6259
19.256
-82.8653
26.5436
-89.669
-32.7725
16.0295
22.637
4.63801
7.58637
-19.757
20.7228
-4.2104
-19.0973
-87.0182
4.66922
-127.97
18.5804
4.15648
14.779
-0.182062
11.5262
-26.3831
3.95892
2.99292
18.7922
-7.79222
-18.5897
-89.306
26.4639
-27.5108
-35.2706
-15.166
17.5637
-11.7227
1.16103
7.15924
-4.74949
-16.0604
2.49072
-68.8997
21.7212
18.6573
16.5727
12.8496
3.65032
31.0065
17.1596
5.88619
16.5685
19.7407
-46.0954
-30.9505
9.46536
4.74893
4.66059
21.2389
11.6559
-45.2618
18.9209
-77.8387
7.49594
32.6797
4.25562
-12.7191
15.7411
5.32884
1.35541
5.87522
-38.3113
17.5176
3.71654
2.48355
3.69405
-21.4227
19.0425
-7.10003
0.274006
18.9434
4.83667
28.5505
21.6362
21.5524
6.85323
19.0983
1.18078
6.97174
2.69795
14.1979
-58.2708
7.92849
-36.032
14.5311
-12.2217
16.6302
-18.5775
-22.6169
-45.6262
-57.8296
3.65171
19.7039
2.61533
-8.33055
-26.8827
18.6512
31.465
6.2161
-20.0334
15
-116.146
17.0471
3.89022
-17.5173
17.7339
-1.05793
28.8297
7.62322
18.7206
2.65377
22.1122
4.58734
21.8401
4.39788
-18.3021
7.41967
-72.7284
7.36578
-27.9005
-56.7256
26.8895
18.624
22.0409
23.7218
22.213
18.9577
19.2678
12.705
18.7108
19.0268
7.82536
0.784516
-5.30362
9.42584
-3.26372
14.4758
-26.0725
38.2821
-0.820754
3.73297
31.2558
25.3111
8.20927
-94.2934
14.6914
14.4476
-29.374
10.2448
-24.7211
0.581419
18.6931
22.5866
-17.4284
13.904
21.9139
0.301947
-1.80843
22.9825
4.60903
4.59484
-21.0276
7.8944
-8.88314
19.3899
25.1124
4.06455
-138.304
-0.749617
-4.80357
1.49408
7.01621
27.6133
0.151186
35.4919
16.8374
6.3096
19.0257
-7.91363
-27.0386
-12.533
17.6166
-14.5661
-27.4429
-135.316
13.0724
16.0197
-8.14865
0.421245
-88.1864
-3.38318
-14.5456
-0.650721
9.27636
1.99385
20.5418
19.3654
21.5365
13.4099
7.9174
-13.431
-7.5644
8.03743
-141.495
18.8295
8.91043
-111.586
3.86584
3.7508
-19.273
-15.0723
8.19483
15.2999
5.01853
-4.42842
1.91593
-4.94335
-16.0671
8.61669
-20.7062
13.9095
16.4914
19.0303
-28.1887
18.1665
3.87854
24.1427
12.7865
13.9384
-22.1661
4.10802
28.6465
34.7211
11.0772
-5.76452
16.3276
9.68429
28.8894
1.09467
-12.7524
-13.0366
7.34406
4.00566
-35.7054
18.5879
16.281
-11.2779
-17.861
4.6292
13.3952
32.6574
-17.8763
17.5829
-39.6784
24.2012
27.1248
6.96651
6.9984
-187.792
26.3717
5.75174
34.6746
-10.2572
-5.0869
13.2623
8.34215
-12.1333
-25.3766
-60.896
21.9441
3.0487
-4.90497
26.1126
24.4098
-4.00403
-16.0989
-8.08038
9.5276
15.6419
15.4612
22.1338
7.12264
-12.0439
23.9301
8.09599
-17.0986
3.84645
20.794
18.455
-17.6391
-49.6842
1.07599
17.8352
27.6448
6.25297
-17.7213
-9.4682
32.864
-17.1383
-10.1088
29.2401
17.9615
3.48825
7.69006
-21.1389
-1.67155
25.1353
-17.3814
-8.98691
-11.2355
6.15427
29.6525
-83.0878
-28.2402
-25.9613
-37.4932
-37.7875
-5.25257
32.1393
19.3094
-6.09709
-88.9579
-7.28749
9.35291
8.17637
35.2735
-0.0400218
-5.96788
18.0215
16.5272
-10.6246
4.67764
4.16714
16.3526
36.3322
2.0521
6.07082
-41.0326
8.88522
1.19246
9.81188
0.641169
24.1472
19.1581
19.7818
-94.4113
-92.0635
4.96075
12.3862
18.7493
12.5085
19.5485
33.3066
30.6511
16.5985
18.0244
22.9873
-5.81968
21.8726
1.52285
30.0206
21.641
6.06577
21.8699
14.0501
3.97646
6.33789
21.2133
-12.3731
10.6625
-10.7888
-0.6832
3.18875
16.9739
1.444
-2.83295
28.5296
28.1433
2.15877
-27.2718
6.99751
-27.1223
1.16496
19.0504
24.3199
-27.287
19.1578
11.3478
3.89489
12.393
-9.93684
-191.424
3.90588
35.7369
-12.5714
-2.88737
23.5726
2.84134
3.8464
13.0798
7.27175
17.0989
-11.7275
1.9848
7.15927
4.94066
0.227465
3.08349
31.6925
25.1179
17.6896
40.7044
27.9989
-4.38236
0.742142
-113.367
-1.59989
28.4333
-129.77
14.6363
9.48412
-7.67219
-3.0096
18.7253
-83.9888
4.42746
17.932
36.6812
-23.3133
4.26643
3.06372
14.7191
7.26347
-39.904
27.6888
21.1773
11.7102
17.5392
19.1489
-11.0531
-31.9186
30.4779
4.31563
34.4118
-41.1325
-13.6299
-51.2398
-5.97283
-26.6188
-6.65827
-27.2155
10.8386
-29.5465
10.7918
-25.9887
0.250874
-112.827
-28.7803
-2.85462
-19.3153
-5.06267
2.7523
-41.9033
-15.7403
11.3536
11.9821
29.6804
18.6401
0.470149
5.59007
40.8706
14.2332
-28.1041
1.33066
4.58902
17.2627
11.0154
23.9972
-9.1295
-9.29545
4.04876
0.261005
6.92239
24.8733
-27.4134
-9.24102
-37.2178
31.0249
-11.212
8.0635
21.3051
-41.0218
5.79081
2.88442
-23.2956
-21.4936
4.07577
16.2083
16.8048
20.9129
-19.4899
-28.0844
-1.29838
-45.6142
2.57004
7.9195
-4.51673
17.9992
-89.32
-14.7789
-23.0981
-29.7887
25.9223
-45.4927
30.6764
-11.8428
4.42039
-3.37388
-21.5962
22.9854
9.82554
25.1346
-1.64672
12.5747
-24.217
21.3362
-28.4092
16.5301
-2.04692
26.495
23.7432
-4.25836
17.4978
28.3785
14.5163
18.1333
-13.9297
-142.224
0.346451
-12.6745
-43.6899
-1.67903
0.676227
7.39026
-24.7286
6.985
4.5392
6.33158
1.84353
-0.683747
29.9477
8.61477
2.08718
8.76131
18.6159
-46.2974
2.81289
14.7936
-0.266726
6.99762
2.09358
11.9518
18.6254
18.3892
-103.592
19.3051
21.5743
16.2459
16.8253
3.94709
10.3436
9.60063
-9.02207
-64.8963
-41.3135
-13.7532
-21.5208
0.982101
-18.571
3.60165
-24.2543
-5.38764
-17.3761
4.46463
5.62923
11.4941
-16.7875
20.0181
40.0278
12.2403
-89.6378
13.3631
8.33351
6.97246
1.51702
5.5749
-50.2231
8.0411
20.9989
5.09685
27.5677
1.4389
18.3501
5.78335
1.44739
-61.2473
-3.63841
34.8932
-39.6808
18.6882
18.7106
24.0217
7.62853
21.1144
12.5548
-45.3831
14.6472
-23.9974
-29.9994
21.6791
17.982
-18.1168
12.5636
23.2522
-26.1539
-81.4531
3.72315
3.86834
18.8895
13.8935
20.9874
8.65956
11.2275
-19.9002
-3.29631
21.5886
20.9115
34.1961
-0.0344873
-15.0095
-60.5884
10.4024
8.00956
7.90098
-9.5995
-88.5624
5.77944
-49.2844
-14.7533
37.3766
12.196
-54.9718
-93.1885
-5.14752
-17.2824
-38.5134
-27.3212
-9.53662
23.8102
13.7819
-5.28918
33.1587
1.46979
-20.7249
-56.5995
-29.8829
14.5019
-23.1372
10.8371
12.1987
-31.7853
12.814
-104.087
-29.05
-92.0187
21.8029
-16.3463
2.87436
-32.3254
18.7583
18.4226
-10.0108
21.383
17.9109
25.5846
28.2883
14.7892
8.25063
36.2308
-38.6815
10.2372
-19.7533
-36.8843
24.2847
-36.066
29.52
13.2543
-11.0417
-81.0168
-82.3479
21.0538
-49.0071
-44.4625
9.44694
4.5086
-69.7409
14.9979
8.37776
4.04502
31.0328
-28.6136
-29.4351
17.5277
11.5336
18.511
-24.0661
39.7701
0.727466
4.55086
18.3148
-7.76733
18.4785
13.3287
17.2449
15.1573
-58.9127
-1.96586
13.4681
7.28105
-63.2161
2.09514
13.8439
19.0099
21.6857
-49.3963
7.27323
-7.58936
14.6878
-3.54098
-61.6137
18.1474
-181.115
17.9206
19.8456
-25.9428
26.8869
-100.325
34.5053
15.9385
-16.7529
2.1005
4.56035
19.1803
20.8839
-17.0081
21.7112
19.561
-6.4641
3.57938
7.4342
5.34463
-6.89135
-30.9308
-1.60712
-100.149
18.8185
-58.9385
-36.1244
24.8238
23.0478
22.7914
20.482
-60.7513
13.4183
-24.6814
8.5026
14.1555
-55.0128
-48.3909
30.3409
0.26475
-68.1499
-11.5523
-29.8871
-21.5185
18.7982
-29.69
13.0617
20.9696
1.65525
19.1797
-4.09543
4.15622
32.3627
-21.4821
20.6759
-2.7971
-51.8601
10.767
6.96919
17.3532
32.5528
16.6482
0.251281
33.703
20.6043
23.6823
-47.4697
-66.8798
-1.57826
-12.457
-37.3804
-17.1276
-9.92064
-17.9336
7.27216
5.75441
-1.53351
1.97339
-48.4383
2.1764
21.6999
-13.14
11.8401
15.0927
18.6381
-29.9091
3.8015
-10.2698
-41.5963
-3.72578
10.5092
21.6984
-32.9606
25.7329
-7.4128
18.5287
-2.43412
3.76638
-20.4132
16.0666
14.1886
9.47572
10.1554
12.9516
-93.1403
23.3108
25.9358
-31.9455
-21.7242
-24.7257
18.7573
6.51676
-10.4106
-18.9834
5.6348
7.63951
-1.63354
10.8146
4.97361
-14.136
14.1841
6.14868
3.22494
-36.3654
24.3929
-4.80152
17.0338
0.845587
17.9286
16.8874
14.4999
11.2856
-31.8598
-31.3751
2.62999
-34.7838
-30.0589
-83.7955
-12.6149
-41.2012
17.645
4.7397
18.5974
-76.0273
-97.457
-18.8127
1.68931
16.8132
-22.409
13.9619
6.697
-57.0192
-37.3154
-5.56361
8.15535
19.012
3.44663
7.67711
-25.9718
15.4479
-50.4339
-4.41896
-9.55932
21.2871
5.09362
3.5953
18.7566
13.6769
18.9235
24.8209
26.1922
-20.8691
4.45399
-99.8209
9.07664
15.1946
6.58866
-29.6074
-59.1794
-10.0841
-1.54305
6.59041
-13.2046
35.6271
-16.2564
17.5176
7.09462
-58.537
-1.6068
4.46675
-105.466
7.52819
8.58499
19.1877
3.50933
18.8134
-20.3878
-10.5088
-50.8239
-15.3904
-56.2269
17.5978
32.0416
19.4814
-5.08879
-20.8042
18.0945
-25.9876
-71.4742
-49.9134
-0.534492
-52.6006
-18.2775
-60.1667
-4.4951
9.99234
10.0771
-20.303
6.9355
20.8552
-4.58546
-16.0872
20.9467
0.221489
-18.8073
3.47212
2.07134
2.81023
33.7136
-38.5756
10.1105
-8.85204
-4.17935
-4.40991
12.5686
-12.8917
6.49822
-2.5143
-8.03274
4.55785
-20.4635
22.0321
11.1589
8.8597
-171.926
6.3505
32.906
-44.022
16.9154
17.6846
10.2001
-1.54367
4.76884
-65.8988
25.1642
18.5172
15.7495
13.9938
-21.311
21.0117
7.73191
27.0893
-21.7393
18.9091
22.5329
18.1192
4.88749
-8.2438
10.6442
-31.2925
5.29872
13.2401
18.955
7.01779
25.4433
7.87794
27.8907
-10.631
18.4574
4.26156
7.61834
-9.37415
18.6296
1.87776
13.7929
33.5401
19.4376
3.89074
-3.19864
5.50857
18.4125
2.12739
-35.3227
8.46876
3.28961
22.2689
-7.78491
26.3544
9.6557
40.8758
29.1919
1.4187
-1.39901
-10.5838
6.63011
30.0354
9.75624
4.82819
-17.9596
37.2685
14.8954
9.18241
34.3654
-5.02657
18.459
12.9596
17.0886
4.10381
14.4967
15.8021
21.7019
-1.5058
-58.4603
6.66947
-4.55795
0.934495
-22.1159
-2.22885
27.6981
24.6388
4.19958
-14.5349
7.9212
19.4527
10.1927
11.047
14.8727
-70.3854
-40.8562
-45.9249
19.7559
-19.0098
-161.891
20.8914
3.58956
4.92325
-4.26119
33.0488
-39.3828
25.7512
-15.7911
34.6657
10.3432
-14.2409
4.20037
4.83771
11.1516
18.698
5.4723
-173.7
-14.1019
-147.652
23.3309
3.01076
5.6103
-52.2076
-155.37
-14.7308
17.3573
-6.39914
3.94989
4.42562
18.9541
34.3609
-4.12649
4.24144
11.4342
-85.4752
13.2041
-6.16829
0.572338
-168.245
-77.3267
16.9411
-185.221
9.84528
8.89688
-18.7645
-83.1954
7.66639
17.1899
17.1422
17.8436
32.7822
-17.107
36.0734
-29.0258
33.1679
-19.2742
-6.60625
31.2659
12.6051
-122.364
9.77927
-2.14765
13.2994
-58.7659
-29.8925
8.12921
-2.98741
-9.0366
1.12526
-2.41981
11.8974
17.5919
-36.1705
12.3462
-19.1132
-4.13472
-60.567
2.39721
-29.0001
-51.2747
-13.8475
30.6815
3.78792
31.8344
5.2992
-22.2684
12.3904
-4.58955
4.38
17.8265
20.4389
35.4986
17.0193
19.8252
-6.34176
-28.7703
34.3988
34.6227
21.0745
-3.21612
-19.2857
-29.6775
11.4332
0.290452
-3.26311
23.9882
-115.292
3.68797
-10.3362
32.5275
-11.6714
7.54362
-38.4532
9.92654
23.4185
38.8364
36.4938
12.4706
13.5716
-14.0558
-23.7206
15.4618
37.1461
-40.8582
4.02751
3.06729
0.683384
7.13265
3.11153
0.0736576
7.32683
3.83856
6.12647
4.37497
11.0857
23.1899
-15.4112
17.1926
-42.5109
-0.531307
29.6351
-21.0849
-18.9464
-18.106
13.0084
14.608
-7.57215
-20.8911
4.06591
-1.96566
39.7808
-56.487
-19.7085
-79.4972
1.79455
-25.0854
-17.1059
-11.3325
-18.4475
3.70645
-26.2524
-3.68501
-11.296
14.183
6.05049
7.09285
38.611
7.99522
6.51203
5.66173
8.64832
-27.6177
11.0857
27.4437
17.758
6.79016
-131.745
15.5539
18.1104
-75.2941
-15.1914
-37.883
27.5423
-4.65382
18.3068
6.09264
26.599
9.01741
-46.6402
-14.4606
19.6641
-0.214291
18.6421
-5.0215
35.7153
-16.744
1.57066
-22.6994
15.7365
-10.5442
-7.92303
-16.3239
8.84383
-9.51215
-25.8981
-44.4837
1.95208
-1.48902
-30.953
-4.11952
10.6602
-29.6082
9.38917
-18.495
19.6461
33.4936
9.06475
-25.1351
11.6641
7.63723
-16.4119
4.75683
-1.1787
-22.5136
2.05141
21.0718
-9.29446
6.22549
5.24704
-33.325
-11.7663
6.26651
18.6666
8.52917
-5.98398
1.2829
4.42053
-155.744
1.796
-12.6412
-7.26482
21.9543
-70.3958
-4.50243
-12.015
-8.48867
-17.3805
-16.0302
40.8656
-5.14058
-7.87899
16.8372
33.1071
29.7708
-53.1269
11.5076
18.6887
3.4859
0.399195
33.1373
4.75615
6.26417
40.7118
3.50519
-15.5801
8.26833
27.4516
19.5394
11.9812
27.1759
16.3053
4.18828
5.48257
13.0374
6.27806
-42.8025
31.8213
14.1165
2.41319
4.34522
-23.9104
-0.244638
-44.9487
13.2795
3.42721
13.4136
20.7486
15.0769
-23.6907
28.796
30.7592
-19.4777
6.67315
-22.3445
-58.934
-19.2328
15.0363
-54.489
-4.79786
18.4413
34.6485
-24.9341
16.4935
17.4253
20.0015
3.26993
9.24652
-170.957
4.03488
-4.21051
-3.5132
-19.1092
-17.4672
7.05798
-20.5925
20.0454
-31.0947
3.41717
9.92294
-25.1764
-30.1002
-34.9537
12.8628
10.5762
-34.4006
12.2969
-77.1336
-2.29195
-19.7305
-41.0641
18.9639
-22.5529
33.6131
4.23189
37.0597
0.477236
-47.2193
7.79763
18.0451
8.87617
-28.1722
-13.7572
4.97894
8.46373
3.68397
41.7027
19.9947
-10.338
-4.29718
-1.86238
-84.2102
15.005
-133.8
15.2082
-53.9378
-26.3363
-32.1187
-13.278
4.17746
-31.9683
15.4218
6.54015
29.5436
34.796
-35.4703
-21.9882
4.91426
-7.5557
30.8442
-23.7319
4.44136
12.2745
16.4776
-118.757
-44.0344
9.62877
-2.49929
7.84897
-140.093
-16.779
3.87158
-5.02239
-23.254
3.11295
-22.7943
-20.452
14.7998
-57.3813
-49.6933
24.5619
-69.2507
35.5457
1.77542
18.5412
28.0709
0.776732
4.58176
-6.33586
10.4675
-12.3829
-75.1037
30.6536
18.6573
5.7812
-37.8336
37.5437
-21.1976
-51.0073
-54.6838
-4.45737
-9.71611
-106.565
27.0935
5.22739
10.1662
11.9585
-25.2251
-57.8823
-4.8742
6.04491
-25.18
6.02926
11.9227
13.9063
-5.26376
-39.315
-34.604
10.694
-8.68359
-8.69913
35.7706
15.7708
-14.2143
-5.78875
9.74862
28.5964
-0.690139
-77.4974
-2.26633
23.3907
13.1861
-3.67219
18.7135
-180.057
30.3345
4.0813
20.4748
-16.4092
-2.29377
4.44217
-44.5747
-2.84566
11.1813
-71.7127
-7.83161
17.9372
-135.84
3.93909
24.5286
17.0646
23.7836
18.3039
-8.66564
3.61408
6.29769
12.3792
0.424999
18.2914
3.34238
30.4058
-17.6067
23.1158
-7.66325
33.2162
-27.1958
-4.1458
32.3259
-17.5721
2.33731
-27.7914
25.0027
31.8259
19.4512
-11.8743
18.6437
20.7555
-25.5456
14.3064
-73.4341
22.6188
-19.1589
-58.3841
-25.0469
-28.5627
20.3234
-7.32868
-33.5121
2.27058
31.3226
3.27043
5.56783
-34.2764
-7.40112
5.18668
16.9293
18.5766
12.1991
-34.2552
36.6207
-4.14349
27.7495
22.5809
4.86112
3.14573
8.69808
-15.9987
32.4946
7.30401
4.65625
1.16486
12.0739
-43.0116
35.5181
21.3545
-2.59575
-30.0841
13.7667
-143.533
16.5426
20.1834
7.17344
4.09561
19.7862
14.3421
-5.41158
-27.6803
2.91468
15.5385
30.2342
-42.8607
32.8182
38.3734
33.7625
-165.989
19.9463
-13.4585
18.6659
20.5679
23.9276
15.4348
24.2335
38.4618
18.6117
-53.2116
-26.7778
-67.1188
38.512
3.06443
-178.424
-7.16785
21.2647
29.0592
15.4783
-4.2184
-12.2003
26.8821
-19.9712
13.6261
-7.76068
12.565
3.29635
-15.43
5.69617
-9.33642
-7.81494
-39.6709
9.13797
-53.3542
19.5072
4.48746
9.24806
12.3333
-11.5257
-2.06384
4.45136
-14.4002
-19.6098
-64.0988
23.1482
27.5999
-21.7844
24.2408
22.4269
27.915
3.48234
-53.0864
15.2934
-43.636
24.3253
-18.8692
23.5942
16.7197
8.05885
23.0524
7.73303
21.2071
-2.56245
13.0465
-0.253467
-25.2348
-6.58119
-181.362
20.7844
-60.538
-105.829
-71.351
31.1327
20.2667
13.1927
5.01828
26.247
-18.4579
12.3129
-51.0786
-3.4273
12.4154
-55.1499
-26.973
-7.72596
-40.607
11.1421
-17.7455
-79.0805
-26.8518
-31.0693
8.36417
31.8246
35.4163
29.3529
-47.5394
13.7584
-15.5984
12.4208
28.1919
8.91856
20.4358
-75.2366
-1.22335
-2.10738
4.56371
22.6443
0.821156
15.8583
-27.7476
2.51786
-42.1628
20.3308
15.894
18.6278
-26.3434
12.5565
-56.7181
-37.8394
-39.6828
-4.04513
31.0797
-25.5113
23.9671
-8.14557
16.5105
18.6609
-2.50841
15.0272
-30.3665
26.7684
30.3997
-104.778
3.07505
24.1903
-71.2684
-17.0654
5.80998
22.9296
25.2565
-15.041
1.00549
6.54508
31.3968
-23.0701
-92.5936
4.30483
27.7902
5.50265
1.16302
-162.766
21.512
17.069
22.1949
3.84602
-22.1963
15.6559
37.5371
-22.4755
6.99621
5.23835
-34.6339
5.6129
0.19244
-4.68218
0.208229
-35.226
15.4104
-145.497
-12.9479
19.9486
24.3676
12.6515
-15.034
-86.0025
15.2002
-29.6411
-10.7228
-4.53814
1.93784
-12.9325
22.6485
15.6305
5.43593
13.0887
29.4224
-61.7263
4.52956
19.9317
-38.2562
15.7281
-0.647663
0.282855
-12.7792
17.5074
2.37709
-1.05971
8.06645
-6.83498
22.0901
-11.1461
-21.7752
-75.7897
28.8675
18.9715
-29.8341
33.5318
-23.7317
-64.9847
-39.2332
23.1267
15.7066
20.44
-86.0996
27.7425
-31.8584
3.46675
10.7557
-14.0672
18.913
2.02966
7.61362
3.00546
-53.7892
17.4233
-30.4293
-60.23
0.360438
-18.4166
-18.0126
7.80191
29.353
-4.33115
-13.4268
19.8965
-18.6218
25.2236
-9.6136
6.0508
19.8157
19.5028
2.61932
-157.049
-26.0589
5.27322
10.9219
12.7614
-7.6026
-11.362
4.95485
-3.03845
11.9521
39.2688
13.8856
18.3646
25.2233
9.39495
20.7272
-67.4484
-79.6596
-45.9661
18.5924
37.991
12.7238
-4.91102
22.4119
8.39294
9.41712
-33.2403
5.64053
4.93023
33.6408
-27.0641
-11.2991
34.1678
22.9453
12.0664
14.6324
19.5585
8.23363
-46.969
-22.983
15.5402
-26.4155
-23.9815
17.5841
-36.0085
-28.8177
-14.1052
13.2478
14.1068
15.7582
6.8489
20.6023
21.1827
-15.8629
16.7356
13.6583
27.5039
20.6237
-0.503995
1.51095
-2.43823
22.2458
16.1587
-41.8421
8.31667
6.42431
4.01523
29.1964
17.8572
1.03566
-9.22122
-6.17935
18.5956
2.07372
14.6432
2.99007
8.89237
-136.543
7.84301
-4.25409
2.78738
1.46986
-65.9493
-26.3148
-27.8615
26.1077
-4.93856
-35.2589
-6.46025
30.1086
-204.369
-4.00271
10.2
-30.5036
20.8036
18.573
-1.0741
23.6594
9.74178
5.89111
-80.9046
-8.29393
2.29676
23.4532
-48.8919
-16.4491
-24.332
-43.1652
-43.959
-6.18747
-22.2101
7.72006
11.5682
18.6665
19.3754
-49.2691
-57.3364
24.0533
18.3281
-14.1503
8.99936
-74.6998
0.963999
10.4221
5.33225
17.5792
-135.832
-187.524
-162.692
11.3317
-41.4064
-78.5722
8.52336
-64.0342
-44.8596
-32.6113
-7.30365
7.97535
-70.6464
2.49097
-19.3041
19.3157
18.1278
-12.8812
23.5297
-16.5295
29.0652
-7.12477
6.39062
-6.43689
14.8684
6.08203
-28.1407
-78.932
19.8195
23.6932
30.7053
-10.2442
-48.8937
-20.2355
8.3087
2.33194
-26.3003
-12.532
-23.0386
5.84049
-15.2237
2.6067
-28.5039
2.68426
27.001
10.2467
4.27693
4.15846
-12.9941
-53.7432
27.2683
35.1474
-31.5557
17.0944
14.9331
1.21506
-47.8903
22.8357
23.5037
-22.2451
-209.439
-37.475
-21.0178
-5.02498
-30.3023
-1.78203
18.0205
-46.7637
21.5677
-22.4189
-29.1955
18.9767
-3.29331
-26.3438
7.30547
20.201
-30.3771
-0.399506
-30.3011
-23.0199
-23.099
31.33
-83.9185
3.41149
-13.3734
17.9759
-45.4692
-151.857
-18.4768
-16.1848
-1.19468
16.4798
2.59851
-25.8381
11.738
0.52904
-47.5243
-12.9574
-29.4105
2.12193
6.80179
18.5722
-74.8772
24.6845
-36.7451
1.5287
4.59199
-15.1036
-18.5436
-28.781
-54.2542
-2.77619
12.0317
-54.7223
3.9591
-12.263
10.5526
-18.8804
18.9886
-13.1957
15.032
15.1337
-91.1161
-58.8945
42.1471
-42.6102
-33.7987
-48.2338
-15.0467
18.6188
-26.13
-47.1864
4.45735
-23.1348
-10.6606
-30.5391
-27.1047
13.1528
-13.2244
7.89386
-29.0004
4.63131
12.0382
4.69614
-7.95574
-1.52384
19.7869
-36.1266
-95.9302
22.2627
-2.75377
-37.4944
3.59909
-14.6029
-12.0329
1.4258
20.1438
-43.8889
13.6468
-42.909
-15.8224
-11.3853
-9.41359
-49.765
-3.33133
-70.9605
18.1091
13.341
-25.0491
37.375
-20.0321
23.4218
23.8863
-33.9415
10.0179
17.6288
18.6218
3.66507
-76.6851
-23.6158
-22.4932
18.5293
10.3797
-17.1315
-9.53711
-2.42645
23.5141
4.49183
-90.7465
7.13898
22.0376
-11.2463
-12.5667
3.52211
17.7397
12.3494
-76.3647
24.8597
22.4368
-80.7903
-71.942
19.5007
14.0097
5.69059
7.71018
11.0348
-38.2813
-19.2385
-80.529
23.2956
12.6631
8.28146
-4.47359
-32.8807
-83.1572
14.5511
-56.9427
2.85088
20.1517
22.6089
-150.087
17.4379
7.55271
13.5349
15.691
5.65169
16.1923
0.954377
19.4127
17.7189
19.3206
-8.84821
21.8063
19.1376
18.0822
17.0937
-99.1193
3.10621
4.4823
-8.51809
20.7965
29.7484
-50.6406
35.7559
-72.6465
-23.3508
15.1827
17.8932
-18.737
4.11459
-45.8107
-64.8051
2.10748
-36.1492
-18.7799
3.8699
11.2344
36.0699
18.1752
-48.7275
-46.5252
13.5
13.516
-54.122
-46.6876
-64.0145
-11.4869
-27.666
-23.9228
18.5478
-17.5721
12.6817
4.0566
4.02004
-98.8674
3.23426
-0.761659
-3.97089
21.6128
-4.10485
-6.80431
24.5846
-18.8088
6.63854
14.1672
2.6197
-37.067
17.7472
-1.73976
13.4869
-3.89635
18.1494
10.4251
27.4757
18.5629
-77.3238
2.98378
-4.22227
-56.9819
3.41104
3.75852
19.6666
-57.8935
36.7794
7.62179
-109.148
24.3246
-6.11005
0.221293
-49.9333
-8.76743
-89.0505
-16.1655
-8.85449
10.2911
22.8735
-84.6424
-27.8375
-124.943
-7.98545
-93.8187
9.04016
17.4965
-13.9194
-24.3147
-10.0307
1.37228
-14.0628
18.6781
25.2585
-56.2675
18.976
-0.0396904
16.4081
30.0922
-4.08239
15.539
5.40928
12.3138
22.8318
6.92372
8.65905
-140.537
17.6537
25.3273
-64.2473
-39.8656
-23.5688
-13.0349
14.1355
-88.3368
-18.1925
-76.6504
13.38
-43.973
7.19017
-2.52778
18.456
8.03128
-45.6209
0.981138
-5.63983
-76.6517
27.9804
33.2544
20.7404
37.7617
20.1032
37.1601
14.2679
9.55699
23.4468
-41.728
14.7582
2.50966
-28.8374
25.6974
8.09383
-11.7251
32.4173
6.58149
-13.9552
13.9706
12.6071
22.3061
-37.3744
18.9975
32.2428
-4.94765
-24.2029
-15.1751
7.84247
-18.241
19.1572
3.73153
23.0828
18.6428
-17.1833
18.0683
-3.67538
-67.6999
-56.3578
-29.728
16.8589
-16.8637
18.7954
-3.15454
-28.315
9.57137
-127.329
0.971206
-81.069
-85.9325
18.1089
9.10908
-24.4491
1.89174
17.5901
6.72142
-46.5489
14.5226
-31.4364
13.4954
-33.209
17.5361
10.4342
-2.96265
-0.360774
15.0681
6.48623
11.0433
-43.9614
36.4388
-7.48398
-34.9109
15.2956
10.6239
-26.4556
-10.8902
-7.13072
-0.727616
-1.41993
-12.0927
4.10361
2.16533
38.2357
-16.9287
-9.6519
9.20891
-0.91113
1.31909
14.7088
12.5041
17.9035
-21.0482
6.96252
-48.6381
3.11449
5.75326
12.632
16.6172
2.49671
0.730496
-2.82935
18.8625
-17.3217
8.24201
-40.4057
2.48204
-2.19127
19.9896
-38.6614
-0.00547929
-73.0518
16.6117
-30.1053
2.88518
21.1617
18.61
18.0972
-4.40478
-66.5993
19.2686
-84.9218
21.8917
14.0793
-17.1847
17.809
-2.87141
10.8116
5.43651
0.418777
-31.7144
17.4933
-85.6235
22.2212
6.37842
38.5576
5.1232
10.0938
19.5988
7.82574
6.58121
18.59
6.66753
5.09233
-20.1011
-6.37128
13.5074
5.92655
-9.63084
-42.6683
13.4208
-7.99548
-28.586
-2.47098
18.3333
4.26993
17.3847
6.96084
32.4605
28.7343
12.1825
7.26023
11.8584
-46.9899
20.7351
8.43666
7.41639
1.63947
20.8064
15.974
-91.7238
-64.0054
-17.1985
9.40664
-4.1639
-14.2074
19.1673
-19.2244
9.08837
-24.8859
14.6319
13.2884
-117.606
12.7275
17.6206
1.06466
13.3406
19.5918
7.94029
25.2894
17.3879
6.45896
26.7352
-10.5057
23.1794
16.7712
-29.7382
-61.9716
4.26319
1.80224
-14.8812
-90.6044
18.5882
25.1916
21.3799
24.1437
16.425
21.8129
12.919
9.20695
13.5065
5.74012
8.24084
11.3841
4.57672
28.8281
1.63842
-31.7003
16.992
25.208
28.5224
-17.0884
1.04161
-74.8784
-31.0597
13.7196
-29.2332
-14.1627
17.3634
32.4063
-78.0235
-14.8088
-11.5775
12.6842
6.5898
8.58888
11.3244
11.4075
-49.6951
8.78724
-37.1674
-16.2393
19.1203
18.4143
20.8059
-2.04354
-25.3088
0.516109
6.38913
-21.2388
-5.55238
10.3014
4.20129
2.30728
-2.89167
12.1933
4.62861
15.483
-10.2664
6.65606
18.7534
5.90984
3.91179
-26.4148
-7.1139
-11.6636
17.2299
7.23703
-84.1408
18.6409
19.0057
26.6042
-2.46645
-1.66395
-6.72783
-62.8903
9.29675
3.4773
-4.16048
13.4896
-64.7476
15.1213
4.27478
0.475383
23.5878
12.2382
17.0149
7.77611
14.6676
-40.933
19.7357
-7.8825