/*--------------------------------*- C++ -*----------------------------------*\
| =========                 |                                                 |
| \\      /  F ield         | OpenFOAM: The Open Source CFD Toolbox           |
|  \\    /   O peration     | Version:  2306                                  |
|   \\  /    A nd           | Website:  www.openfoam.com                      |
|    \\/     M anipulation  |                                                 |
\*---------------------------------------------------------------------------*/
FoamFile
{
    version     2.0;
    format      ascii;
    arch        "LSB;label=32;scalar=64";
    class       volScalarField;
    location    "2.75";
    object      p;
}
// * * * * * * * * * * * * * * * * * * * * * * * * * * * * * * * * * * * * * //

dimensions      [0 2 -2 0 0 0 0];

internalField   nonuniform List<scalar> 
13486
(
2.29542
1.83187
0.191916
-0.384715
0.735925
-0.124439
0.336685
1.28035
1.55956
0.777955
-1.52332
0.408268
2.41577
-0.304201
0.589362
0.870584
-7.35763
-0.282415
0.553085
2.07014
-0.313082
2.38686
1.79432
-0.721268
0.742912
-0.683096
-1.47549
-0.488912
0.00197067
-0.37047
-0.222003
0.406877
-0.971631
-0.274912
1.28442
0.0135583
0.0649363
1.86837
0.040281
1.56317
0.144111
2.50713
0.0327342
0.747408
0.70875
0.391631
-11.3346
0.00106556
0.0575214
-0.564309
1.33868
0.00994083
0.250602
1.90108
-0.264552
0.79838
0.0992765
0.010476
-0.939715
0.0849463
-1.09971
0.0871851
-2.90758
-0.294181
-0.387707
0.0681307
-0.414068
2.29919
1.54913
0.0413023
-0.41509
-0.286065
1.57663
-5.45723
0.0702251
0.0909208
0.0641937
0.574996
-10.1372
-0.0185208
0.0100583
1.85212
-3.18759
0.198671
2.30476
0.846227
0.118145
1.26163
1.51523
0.863311
0.190641
1.11226
2.20108
1.96802
1.61301
0.011139
-1.29398
-0.427131
1.5388
-7.43244
0.026013
-0.216991
-0.42596
0.0090696
1.0602
-7.72236
1.54537
0.0341251
-10.9227
0.991141
1.48557
0.353406
1.90014
0.0746733
2.70496
1.55576
0.742486
-0.254956
1.58878
0.0540862
-0.344341
-1.05981
1.68761
0.0342008
1.48339
0.0115291
1.1105
0.391293
-0.211147
-0.335768
0.0105266
-10.9683
-4.24766
-5.56924
1.4169
1.21868
2.75182
1.0343
0.0527598
1.32482
-0.850584
0.225035
0.407011
-0.0212564
0.0686749
-1.93333
0.18051
1.75003
-0.619668
0.00667238
0.895388
0.54145
0.00248293
1.89008
0.434614
0.184995
0.804262
0.0708438
1.69418
0.127913
-0.4445
1.69502
-0.060082
2.49981
0.00703722
-0.551511
-0.0612375
3.13856
0.183024
-5.60293
-4.46019
0.45083
1.05703
0.829793
0.0117805
-0.504678
-0.566291
-1.04301
1.54903
0.424981
1.46544
0.0687356
0.660686
-0.420337
0.230389
-0.492606
0.00165473
-0.352868
0.216898
1.63725
0.0586504
0.132568
0.000860199
1.98018
-0.0190717
-1.52643
-0.348902
-0.445245
2.05972
-0.462105
-0.230602
0.372264
1.87222
0.564823
0.119499
-0.023529
-0.149864
1.68836
0.00961959
0.23459
-0.404035
-0.491829
2.04366
1.54264
-0.130034
-0.156574
-0.397944
0.888753
2.08565
-2.00069
-7.65218
-0.642206
1.36015
-0.463465
0.133014
2.2318
-0.416446
-0.345018
-0.109474
0.118618
1.44885
-0.293539
-0.883179
2.55893
-0.378628
2.14508
-0.299199
0.139609
2.16724
0.690757
-0.931284
1.04151
0.0763009
2.04258
0.0615317
1.75876
0.726649
-0.519207
-6.10512
0.848854
-0.476238
2.7377
1.50317
0.0305588
-0.0583688
-0.548396
0.382896
-0.149033
0.104019
-0.862434
1.67588
0.0635935
0.578532
-0.534544
0.818423
-0.417763
-0.11381
-0.257238
1.48799
-1.59521
1.5195
1.50281
-0.412896
0.311503
2.23541
-0.494023
-0.0599222
-0.206628
0.0270137
0.184094
-0.203475
1.29177
1.55695
-1.10518
-0.883746
-4.35739
-0.896854
-0.230301
0.158797
1.49598
-0.373622
0.0923267
1.61156
1.42896
-0.284508
-0.325662
-0.420751
0.313406
1.59294
0.248364
-0.0979105
-0.175236
0.187502
0.444299
0.0528992
0.592567
-0.308206
0.771465
0.110565
0.0578704
-5.13445
-0.377285
-0.291949
0.345565
-1.56007
1.24356
0.0964594
1.51802
1.69623
-0.147023
0.0656085
0.079694
1.53256
1.97925
2.70882
0.234696
0.981696
1.26342
0.265471
0.906934
1.27826
1.06094
0.103252
2.11177
0.318414
1.52321
2.80007
0.577874
0.939974
0.0684264
-0.131004
1.95823
0.872388
0.679683
-0.452676
0.0122481
1.04298
2.70004
-1.98554
0.0903627
1.00341
0.275735
0.303036
-0.96232
1.58309
0.0402936
-5.14439
1.08694
0.106762
-0.481757
0.54408
0.135929
1.70931
1.50648
-0.390193
0.0019333
-0.305335
-10.4643
2.08979
1.0986
0.0213413
1.06036
0.138254
-0.479462
-0.128234
1.3709
1.56387
0.0796931
-1.53116
-3.27723
1.46952
1.02695
2.42161
1.61058
-11.0315
-0.0713497
0.152259
0.918193
-7.3577
-0.166928
2.01017
-0.463793
0.665297
2.1874
2.25581
0.0512415
-0.398136
-0.476313
-8.06699
-0.907122
-7.67068
0.333087
1.38081
-0.351161
0.374809
0.0862969
1.93887
-0.986123
1.11849
1.72411
0.910832
-1.24855
-0.517823
1.5971
1.54679
1.9085
-0.415206
0.842311
-5.15226
0.71516
1.55092
0.18208
2.70994
0.986894
-0.442016
-0.336181
0.353305
1.55182
-1.66817
0.0373926
2.36779
1.38931
0.649837
0.156433
0.6674
-0.591074
2.40975
0.0850742
0.873325
2.26204
-11.7108
-0.431292
-5.77546
-0.518774
0.127784
1.82754
1.79425
2.38201
-3.32246
0.0518105
-0.466622
0.961476
1.54519
-0.561339
-1.39505
1.52843
-0.470586
-0.505552
-1.08536
-1.83093
-0.165343
1.93387
0.0164563
0.0697162
-0.348339
1.46252
0.0031626
2.96977
2.22378
1.57383
1.22689
0.0146067
0.00323752
2.78316
-0.0861341
0.0498242
-0.422998
1.53703
-4.95621
0.301767
1.08112
0.0356335
-0.677979
1.77374
-1.58316
-8.25255
1.00235
-0.179977
3.12723
1.01646
1.35852
1.67917
-0.517035
0.231559
2.51087
0.731197
1.99192
0.303638
0.455662
-0.271768
-0.0153234
0.0395434
-7.59709
1.57747
1.52167
-0.478315
0.00547958
-0.161552
2.27866
1.83264
-0.0707321
1.55116
1.13772
-0.660823
0.81597
1.38449
-4.68264
2.38183
0.0566554
0.0393811
2.49103
1.03728
0.00995997
1.02872
-0.28673
-0.472976
0.627703
0.94316
1.7126
2.20611
-0.435292
0.661854
-0.45704
0.00688604
2.1411
0.445922
-0.418904
-0.431442
0.140848
0.096286
1.23951
-0.374369
-1.32033
1.55557
2.08845
-0.0148691
1.67287
-2.11989
-0.482037
-1.87365
0.660112
-0.489359
1.70122
0.226524
-1.01873
1.31408
1.81182
-0.838712
-0.43906
1.3585
2.15012
0.46659
2.31473
0.222406
1.02515
0.381348
1.71518
0.0629217
2.09215
-1.10758
0.309236
1.47807
-0.188354
-0.469045
1.5257
-11.3484
0.317647
1.75492
2.37919
-0.28831
0.0787953
0.408237
0.121354
1.39061
1.06724
0.459269
-0.947193
0.0907853
2.27742
0.290777
0.0947422
-0.628473
2.3951
-0.218218
0.0747299
1.49713
1.20737
-0.0174493
-0.373805
1.30118
0.253154
0.129734
0.622573
-1.47917
2.32509
1.52127
1.08801
1.11853
-0.244507
-0.920242
2.61546
0.477247
2.62236
-0.33385
1.52312
0.0141985
-5.54808
0.902514
0.84629
2.7463
-0.470418
0.983471
0.944693
-2.1155
0.806805
-0.208952
-0.702938
1.50856
-0.426223
-0.45143
-0.597494
-0.328018
-0.197912
1.66615
0.00935332
2.54043
1.54313
0.118457
-0.478194
-0.395388
0.515703
-0.926219
-0.423479
-7.27754
2.12843
0.00073418
0.0925409
-0.653488
2.42933
0.00546804
-0.157388
2.48641
1.35642
-0.443937
-0.00451299
1.09363
0.184118
1.46554
0.0700455
-0.321841
0.596173
1.41363
0.473271
1.28257
2.52316
0.0721903
-0.443131
1.50965
0.255134
-0.146395
1.04898
1.14698
0.668671
-0.432725
0.228174
0.0748568
0.271687
2.13797
0.499684
0.254444
0.206355
0.0521233
-0.0344088
1.53762
0.111277
1.43287
1.46619
2.11862
-0.497638
-1.34562
2.6017
0.0253166
-0.47448
1.62425
-0.627841
1.73444
0.0714436
1.50002
-0.348091
-5.67398
-0.588611
0.0128161
-8.12104
0.814878
2.67836
-0.185317
-1.60128
-0.478644
1.57558
-0.837285
0.689208
-0.73298
2.65277
-0.441357
0.797646
-0.586755
0.885116
1.53318
0.53774
-3.07401
-0.262175
2.46185
1.56315
0.629032
1.39789
0.0269775
1.20934
1.21951
0.901261
-5.25678
-0.0667583
1.92041
0.351078
0.0170277
1.2674
-0.471721
-0.176717
0.030999
1.668
1.63011
-0.404706
0.236999
-0.448542
-0.284068
0.259077
-0.192579
0.138643
1.49703
-0.117098
-1.58797
1.79337
-0.108135
-0.290844
-0.165726
-0.592326
-0.406692
-0.538559
0.0646876
-0.588528
1.45575
2.4124
0.0503642
-0.28675
2.4928
2.3382
-0.28022
-0.35322
1.58364
-11.2661
0.0840416
-0.618103
0.0637739
0.837286
-8.11799
0.735653
1.04003
-0.522139
-0.222684
-0.834963
-0.120694
1.3257
0.63284
1.00726
-0.428446
1.29442
2.28995
-4.90315
-0.568288
1.71874
0.493672
0.996222
0.0438274
-0.359983
-0.440352
-0.0804907
1.58244
2.62869
1.69589
-0.332271
-0.123123
1.53523
2.23027
-0.398958
1.63907
1.53576
2.32803
0.373988
0.0670204
0.268435
-0.144886
2.31922
0.243111
-0.132807
1.06642
-0.0653789
0.404982
-0.0510697
-1.11194
1.45897
1.12429
1.06942
0.729758
-5.05144
-0.254526
-0.170814
0.845041
-1.55985
-0.89273
0.0737341
-0.705452
-1.03876
0.817906
-0.370275
-6.07497
-3.88478
-0.22451
1.12224
-1.77707
-0.490653
1.7284
-0.30337
2.38875
-0.339353
-6.10836
1.81235
2.15576
0.0697471
0.0999003
0.302694
1.58028
0.847977
-2.08294
-0.00822795
0.0528469
-0.210439
1.50469
0.0932356
0.90892
0.0773256
1.5411
-1.82845
0.0721588
0.025318
1.8691
-0.705728
-1.33786
-0.606438
2.36811
-1.18798
-0.443149
-1.97849
1.54131
-0.4743
0.0833927
0.38399
0.72131
-0.0688311
1.0511
-0.379476
1.23424
1.51785
1.77798
0.703861
0.0380473
-0.217945
1.16045
-0.612271
1.83986
1.01973
-0.0259857
0.0313725
-0.0849605
-0.0239266
0.0512305
1.74157
0.652396
0.213537
1.53623
-0.257684
1.22841
2.71562
-0.0470332
-1.66868
1.05211
0.127713
0.0343606
-0.0972224
-0.34004
1.54235
0.0771473
0.0287088
0.0668369
-1.19832
1.96092
-0.448673
-0.00221798
1.54176
0.1163
2.17686
1.76267
2.04865
0.412761
0.932589
0.450966
0.146484
1.1357
1.51427
-0.34395
-0.194201
-4.38125
-0.315297
-0.621444
1.54523
-1.58451
-0.882592
-0.698042
-0.333206
0.036074
1.54096
0.0209486
0.14975
-5.49284
1.55343
2.67732
0.102868
-1.40193
0.85562
-0.102385
1.52869
0.123411
0.0525053
1.84743
-0.00156427
2.53127
1.07029
1.52659
-0.360574
1.99424
0.0827622
1.77077
0.0582908
-0.869937
-0.570705
-0.496391
1.04569
0.0740162
-0.235061
2.38317
1.55093
1.64889
2.17194
1.68454
1.86481
-0.163454
1.59855
1.56553
1.58561
-0.153964
-0.399858
-0.575948
-1.56757
0.339093
1.71759
-5.59963
2.35911
-1.57493
0.0773578
2.6072
2.19394
-0.186461
-0.529001
1.55359
0.789958
0.00300754
1.44112
-5.82542
-0.561505
1.52605
2.12158
0.0517602
1.68964
1.97474
0.00695376
-0.435646
1.9831
0.6815
0.0565516
-0.687956
0.194469
-1.05488
1.436
1.06685
0.0779046
-0.165257
-0.411897
0.347743
0.0344558
0.39833
2.24279
0.0191457
2.90908
1.55706
0.533996
1.73207
-0.451334
-4.49615
-0.466865
1.53914
0.044523
-5.13459
-0.220521
0.77045
0.883765
0.0699144
1.07203
-9.43231
0.783247
-1.64943
0.0806528
1.23776
0.461752
1.99064
1.572
1.60585
1.48272
-0.197749
-0.782874
-0.71471
0.208857
-0.309266
-0.250197
1.21409
-0.270317
0.0332281
0.076723
-0.156332
-0.754624
1.08757
0.702856
0.154001
-0.424875
0.739119
-0.646821
-0.628992
0.268588
0.0859056
1.68691
1.14855
1.96369
-5.72033
1.40041
0.0704651
2.14336
-0.263191
0.815216
-1.57047
-0.158192
2.48759
2.58572
1.29365
0.81179
1.04435
1.40481
2.51541
1.03953
-0.875045
-0.680822
0.344919
-1.57358
-5.57858
1.54451
1.51443
-0.0242952
0.360125
1.27047
1.41142
2.74192
-1.72533
1.19967
-8.56814
-0.220612
2.19936
-0.0876308
1.27572
-0.246957
0.5518
0.595414
2.86195
0.134762
-0.565995
0.786705
0.288918
-0.464801
-5.66536
-0.396685
1.70125
0.142635
0.821548
2.33635
2.15084
-0.0294959
-2.90113
0.131728
0.262763
1.79232
1.48064
2.12753
0.937132
-1.94492
2.23081
1.38628
-1.90706
1.17081
1.5666
1.92674
-1.36153
-0.324693
0.00020481
1.31254
2.44902
0.813218
-0.218266
-1.02886
2.75474
-3.76235
-0.856001
2.55852
1.36518
-0.110044
1.22787
-0.401089
0.84049
-0.262778
-3.48372
0.0650696
-0.482721
0.137808
-0.206351
-11.4944
-7.83288
-3.63618
0.18046
-7.72779
-0.478427
1.27649
1.41973
0.772916
-10.1505
0.355737
0.229891
-0.200331
2.89433
1.0006
-0.653237
1.34855
-0.266862
-0.492109
1.24611
1.23354
1.51887
2.93283
0.0068033
-0.0894812
-0.715584
0.234692
1.03471
1.49093
-0.537149
2.25354
1.03662
1.62974
-0.269862
-0.00541109
0.0973842
1.58419
1.54275
1.63469
1.53332
2.68768
2.6284
-0.279118
1.36385
1.95447
-0.631025
2.11914
0.0307472
2.59715
2.09892
0.118505
1.74108
0.752531
1.16145
0.136357
1.55082
-0.773184
1.34639
0.549488
1.0147
-0.111146
1.52609
0.0276057
0.328754
2.50643
2.49841
1.01875
-5.65926
0.40456
0.0245422
-0.0772552
1.22914
2.24145
-5.81557
1.58969
1.46744
0.748155
1.57583
-0.556541
-0.247929
0.0772395
2.74291
0.448041
0.136092
1.76053
-0.110908
0.0831041
0.784638
0.34198
1.16955
0.571339
-0.3674
0.910014
1.22122
0.997544
1.13624
2.65108
2.17083
1.90151
1.91218
2.44891
0.728251
0.024075
-0.189823
-1.84918
2.47839
-0.270331
1.53541
1.37555
-0.464084
0.79454
1.70116
-0.515337
0.762685
0.94564
2.96952
-0.855694
0.677682
-0.0286846
1.7444
0.190507
-0.370347
2.43584
2.07485
1.48154
1.53339
-0.299602
0.685274
-8.42967
2.62282
0.0626762
2.8406
-0.214525
-0.29015
-6.87964
0.787819
-5.28406
0.0888471
0.0181164
0.571745
0.112865
0.550254
-0.398118
0.000333906
-0.24107
-5.72503
-0.500343
-2.25219
0.139046
-0.0301197
-0.352658
-0.929834
1.55875
1.58978
1.94585
1.52836
0.610387
0.602966
3.14906
1.50001
-2.19035
0.00979532
-0.110254
1.17692
1.35708
2.25779
-0.934191
-0.903819
1.23191
0.00310574
0.412504
1.91297
-5.69105
-0.466843
-9.57956
2.65349
-0.426724
1.06647
1.95572
-0.27683
1.21137
0.0442509
-0.813051
-0.566343
0.115009
1.03269
1.81816
1.92167
-2.07558
-5.64072
0.986546
-9.07071
-0.369022
-0.196056
0.181412
-0.256114
0.100316
-0.427283
-0.750646
-0.733254
2.34698
-0.324479
2.56732
-0.514666
-0.112925
0.572298
-1.1612
2.16695
1.49158
1.79789
0.124163
-0.265617
-0.986812
2.08393
-5.71426
1.12838
0.0733468
1.84022
2.16556
0.0621074
1.53235
2.46296
1.68035
1.6582
-3.32177
-0.161365
0.631469
-0.596116
0.0243759
0.915136
1.06971
0.189254
-1.51258
0.400273
0.109453
1.32282
1.11831
-0.432791
2.58799
0.229598
0.00853208
0.278275
1.5125
-0.341919
0.00885404
1.66382
-0.79022
0.154421
-0.221475
1.60963
1.52424
1.44814
0.0963999
1.43811
1.76776
1.72654
-0.271153
0.0817721
0.347215
1.32546
-0.989144
-6.48499
-0.429051
-1.83501
-0.397149
0.0325371
0.0226811
0.0710532
-5.62906
-0.663496
-0.836518
0.107741
-0.273209
0.589454
-0.431382
1.63109
3.16058
0.518127
-0.234764
0.691883
0.189477
0.405116
0.0328152
-0.343346
-0.659224
0.235188
2.01754
0.00716642
2.41863
0.0382792
1.44671
1.24784
0.672552
-8.2323
0.85634
2.68739
-0.359208
1.54522
1.47128
2.24863
0.22632
2.06656
1.63456
-6.47562
1.74122
-0.977863
-5.41734
2.11006
1.36392
-2.06717
-0.0381806
1.9816
0.105458
-0.457341
0.0704865
0.0652116
1.17023
0.846121
1.53108
1.42481
1.31405
-3.15814
-0.508642
-0.245762
1.49474
2.83624
-0.386147
-4.50819
-7.699
1.52229
0.218299
0.220127
0.636559
-0.123457
1.18634
-0.292779
0.325078
2.4032
0.709483
-0.46796
-0.236516
-0.463378
-0.567761
-8.9022
-0.738485
-0.482019
1.81651
0.842363
-0.533389
2.47086
0.00993988
-0.745152
-0.237423
-5.0633
1.65495
-5.20234
0.532005
1.52617
0.119669
-0.279608
-0.192613
-2.26505
-0.317353
1.66347
-0.820318
0.0351063
-8.84108
1.47687
1.65126
-0.43401
1.93826
1.79311
2.32584
2.3884
1.70017
0.319712
2.74788
-10.0321
1.48388
0.267097
-0.891557
1.85666
-0.416765
2.33504
0.731179
-1.45308
-7.95805
-9.73073
1.63874
-0.427274
-0.299607
0.192597
-1.37462
-0.385649
0.960269
0.328507
1.11028
2.6508
-5.77622
-0.684543
-0.850735
1.5814
1.14366
-0.474437
3.1223
0.030171
0.106332
0.965454
-1.50722
1.47621
1.57543
1.75995
1.7674
-0.556104
0.820689
1.47325
0.386852
-0.338564
0.020995
1.65167
1.7185
2.10469
-0.324674
0.173859
0.751885
0.950805
0.0785012
-0.847316
1.26616
-0.261992
1.34169
1.58233
-7.4806
2.40948
-0.482374
2.63609
1.73975
-0.735797
0.00653822
0.0719079
0.56768
1.61182
-0.638866
2.07543
1.45152
0.762075
0.052899
0.362319
-0.387335
0.760289
-8.66139
0.930317
-0.30083
1.49787
-5.86896
-0.0926896
-0.23557
1.88808
2.18204
0.72902
-5.9715
0.759259
-0.0330293
0.211455
0.878911
-0.312841
-0.275043
2.56835
-0.779539
-0.190857
-0.73369
-3.8659
-0.173475
1.5696
-8.27957
-0.201047
1.60515
0.978531
1.65132
-0.473169
0.695188
2.59965
-3.05622
1.47256
0.448294
-0.26763
0.55816
0.396881
-1.0649
2.65312
1.75058
0.0943346
2.57868
1.98855
1.87061
-9.76632
-6.5397
0.95518
-1.66669
-0.160388
-1.96661
-1.53292
-1.90507
1.21003
0.587959
0.912498
1.01975
-0.282958
1.13697
1.49499
-2.88117
1.59041
0.9624
1.52717
-0.034501
0.0382691
-0.432267
-9.43283
-0.472764
-0.247301
1.47674
-0.915215
2.33424
-0.456312
1.48128
0.922884
0.082028
0.236776
1.57659
0.695565
0.410449
1.37701
0.0825242
-0.221967
2.20829
1.80055
-0.490738
-1.38334
-0.0419431
1.35158
0.0506157
0.651722
-1.93183
0.0855713
-0.0524761
0.128921
1.33689
1.27021
-0.391735
0.68564
0.00229389
0.0416325
-0.772369
1.8853
-0.463279
1.52334
-0.000238488
1.31566
1.63068
0.882091
1.42259
0.0290843
-0.392631
0.0871478
-4.58782
-0.42758
-0.471467
-1.07324
-0.20091
1.22167
-0.000459878
1.49879
-0.10928
-0.12456
-2.29303
0.0338754
1.60063
-0.608564
1.49568
0.428737
-0.648798
-0.182893
-0.46043
1.08977
1.61954
0.0467561
0.340922
-4.54824
1.78778
0.127936
0.435998
-0.456743
1.91996
0.752995
0.040885
1.64584
1.58538
1.8538
0.286274
1.87464
-3.22069
0.11325
-0.198506
1.4677
1.00357
0.452002
0.113313
-0.832562
-0.558555
0.833981
0.163804
-0.608392
2.4148
-3.61077
1.82203
1.10631
-0.305214
0.0115172
0.145388
0.00377072
0.224472
0.294697
1.43912
0.0945008
1.54089
-2.37776
0.588297
-0.253843
0.371225
-0.856373
1.89807
2.60628
1.67609
0.838352
0.273692
0.984838
-1.83208
-0.0122872
0.104893
-0.0700318
-0.516328
-0.790348
-0.825243
-0.512082
1.36099
1.49661
-2.54242
0.420717
1.73061
-0.532088
-1.78149
1.6427
0.0220602
-1.05512
0.0501131
-0.183659
0.00865374
2.4533
0.107297
1.46389
-1.42662
-0.809651
-0.517131
1.49238
0.387259
1.25989
-1.29021
-0.682296
0.154191
0.307486
1.76356
1.35105
0.314584
-0.210781
-0.283128
2.71132
-0.306212
1.73571
1.896
-0.149503
0.00464277
0.70198
-7.89887
-0.685955
1.33147
0.87815
1.48234
-0.458238
1.67006
0.22976
2.18043
0.321786
1.34681
1.92891
1.26658
0.274998
-0.441384
0.531882
-4.89174
1.30472
0.706482
1.84693
0.205829
2.31857
0.326502
2.46766
-0.522878
1.92102
-0.164476
1.15198
-1.8938
1.47338
0.736175
0.629626
2.30742
1.518
0.363326
-0.508345
0.878991
1.45928
0.0327383
-8.0261
1.11541
0.138852
1.98481
-0.442499
2.36118
0.416988
3.18623
2.38212
1.10666
0.970295
-1.81528
0.169378
2.53653
0.190363
0.00419991
-0.0446639
2.55112
0.747541
1.31063
2.17978
-0.82551
1.66586
-0.19507
1.81652
0.0910633
1.71412
1.55968
2.10622
0.0143884
-9.3996
0.473401
-0.468792
0.709889
0.197682
0.138547
1.9489
2.22406
0.031954
0.483541
-0.183909
1.98796
1.26733
1.40598
0.963697
-0.183331
-4.6189
-0.327328
1.56895
-2.3997
-0.15744
0.0869664
1.07819
0.726274
-0.525674
2.68403
-0.204652
2.33452
0.416373
2.40508
-0.335009
0.309593
0.0784339
0.0988562
1.2995
1.50764
-0.164802
-0.173402
-0.631841
-0.148898
2.20344
-0.473529
0.0838074
-0.271586
-0.208699
0.481059
1.86337
0.714562
0.112328
0.0606552
1.5176
2.84545
-0.469426
0.151642
1.48569
-0.0270141
0.804763
0.0705468
1.07371
-0.185592
-7.6638
-0.434277
-0.262908
-0.0813
0.166059
-1.68923
-0.466447
-0.0220314
1.20632
1.63578
1.34347
2.76088
-1.25225
2.52727
-4.32029
2.3676
-0.648051
-0.889411
2.66623
0.640283
-0.326864
1.53929
0.0182088
1.66333
-0.370774
-8.43253
0.326977
-0.472455
-0.533454
0.00919512
-0.0700704
0.630793
1.89194
-0.739779
0.70725
-2.29346
0.327549
-0.242005
0.0370282
-0.0263099
-0.216962
-1.79315
2.00537
0.0501345
2.20619
0.585517
-0.681009
0.512624
-1.31722
0.0827048
1.32286
1.91171
2.78365
1.15514
1.28046
0.710562
-5.89311
2.68329
2.86033
1.6688
-0.824721
-0.460995
-4.83935
1.41673
0.994484
0.552745
1.22827
-0.236586
0.0380023
-2.64357
2.29517
-0.457153
0.249003
-0.378034
1.46663
0.339594
3.07916
2.87828
1.37101
0.0771057
0.420865
-3.63677
0.575929
2.95468
0.22622
0.0836684
1.11925
0.0127876
0.335108
-0.0998882
-0.262442
0.394145
0.079368
0.703198
0.0540171
0.503288
2.13151
0.430757
1.62605
-0.382831
-0.339055
2.57534
-1.28626
0.185751
0.36186
0.668205
0.203144
-0.45398
0.269414
0.118761
0.0615045
3.11409
-7.9259
-2.2967
-0.597266
-1.08732
0.20894
0.357314
-0.423875
-1.74585
0.0398407
-2.92718
-1.21272
-0.59574
0.19956
0.171636
0.201472
3.03397
0.170333
0.478857
-0.0820031
0.359949
-5.86341
-0.254449
2.08899
1.51871
0.487566
-0.225214
1.47659
1.63421
0.001094
-0.721083
0.102889
2.08065
-0.54899
1.43063
0.13794
2.34072
0.21403
-0.391033
-1.65886
1.66679
-0.423382
1.35897
-0.853548
2.91199
-0.41757
-0.238278
-1.78345
0.670407
-0.441777
-0.864837
-0.415578
0.275104
0.653127
-0.47401
-0.288613
-0.0298491
0.179529
-0.451955
-1.2221
1.2494
-6.14552
1.32821
-0.415497
1.68743
2.66449
1.42539
-5.88764
1.53845
0.230092
0.194085
-0.0383444
-0.37814
-5.37798
0.151862
-0.272788
0.6359
0.0390971
-1.17838
-0.192652
-1.77073
0.790677
1.55878
-1.72245
-0.454669
-0.467104
0.0511613
-0.215495
0.909836
-3.48816
-0.455772
1.53611
-0.135462
0.847762
-0.854139
-1.94716
-0.449462
-1.26446
3.07257
0.466818
-0.622202
0.394925
2.50795
2.58142
-0.399646
-0.204621
1.52322
0.037849
0.150832
2.57816
0.858474
1.33672
3.11643
-0.454118
0.420036
0.275428
2.28885
1.58656
1.57516
1.90402
1.08855
0.0562877
0.11975
0.732234
0.390342
-8.66721
2.6314
-0.799823
-0.895729
0.0501455
-0.446571
0.758566
-0.372073
-0.226634
0.349097
1.59529
1.65221
1.74491
-2.1287
2.25171
2.55973
-2.155
0.975023
-0.0241927
0.00248691
0.220475
0.899294
-0.214677
-0.544403
-0.907451
2.84913
-1.14919
1.76509
1.55577
2.01531
1.14482
1.21709
-0.199973
0.0540537
0.8757
0.0158954
-4.50872
-2.02858
0.169476
-0.40189
1.88157
-0.459168
0.0675631
0.326197
-5.69644
-0.40058
-9.25776
1.37262
-0.198315
0.116143
0.74437
-0.699521
0.535961
-2.62353
-0.0200484
1.6559
-0.731696
2.62886
0.0516936
2.81366
0.00637027
0.109821
0.286434
1.34611
1.31006
-3.16014
-0.0519943
-0.312491
0.270967
1.07937
3.13295
2.0221
0.519641
-0.522314
0.811222
-0.342886
1.74667
-0.216302
0.907011
-0.325464
-0.392336
-5.34601
0.525677
0.0567869
-5.59754
1.01638
0.982448
2.53028
2.73072
-8.65182
-4.97615
-0.269504
-1.34627
2.64088
0.129856
-0.682828
0.693219
1.11694
-0.285658
0.146897
0.194659
0.0192143
1.39217
-0.25336
0.42769
0.082638
-0.926972
-2.67368
-0.379605
-2.75391
-2.35079
1.69074
-0.409757
-0.378918
-0.208664
-0.221527
2.89344
1.11836
1.44123
-0.230233
0.789451
0.0131395
0.633018
0.499647
-0.424403
-7.31839
2.63212
1.63145
0.0280332
-6.37395
3.00643
-0.417043
-5.31153
-0.316333
0.776499
-0.444523
-0.286127
2.27746
-0.0606486
1.4119
0.635322
-0.385074
0.0641576
0.135963
0.773535
-3.02643
0.0713131
0.478403
1.50928
-0.463103
-4.72072
0.0903597
-0.311449
-1.59089
-1.3848
2.82367
1.01658
-0.643975
0.733438
0.431984
2.46763
0.869243
-8.20615
0.918558
1.93632
1.6568
-0.47939
1.35832
-0.182952
2.60962
0.0585749
1.5659
-0.503997
-0.438841
0.054654
-0.351626
0.898935
0.550098
-8.79553
-0.456306
1.80478
-0.12233
-0.0259041
2.13613
1.22256
2.0794
1.43265
-0.71984
0.028357
0.105775
1.51659
-0.000140329
1.89463
1.18137
2.58845
-0.413475
2.02467
0.743839
2.62343
-0.380169
-0.837618
2.67897
-0.413129
1.15148
-1.42308
2.29619
2.58051
1.65625
-2.54675
1.52605
1.97777
-0.435045
0.656053
-0.363683
2.11219
-0.410555
-0.220883
-6.12051
-7.12198
1.94231
0.732835
-7.54126
0.804676
2.57629
-0.838793
-0.236076
-8.25672
-0.95579
1.27763
-0.0930632
1.45911
1.44021
-7.76462
2.90567
-0.00306684
2.18557
2.1602
0.154292
0.0454831
1.35604
-1.88552
-0.149797
1.34055
1.15366
-0.498468
1.44459
-0.340802
2.29939
1.65866
0.599777
-0.0317308
1.69295
-0.215083
0.927913
2.02197
0.40301
0.0459085
1.96204
1.63702
-0.612536
-5.71325
1.16014
1.71185
2.60682
-5.84056
2.756
2.74612
2.80239
-0.209644
1.90622
-0.491398
1.5366
2.04909
2.00053
1.6959
2.24276
3.07294
1.32589
-6.29902
0.11876
-6.5521
3.04399
0.836352
-0.172657
-0.452812
1.43227
2.26565
1.47502
0.523132
-0.0423368
2.25163
-2.15955
1.63385
-0.452334
0.725984
0.0444386
0.451376
1.00906
-0.443978
-0.467023
-0.203981
-0.300861
-0.162073
1.86889
-0.303708
0.270003
1.43269
-1.81629
0.935656
0.0516708
-1.73046
-0.492987
-7.19582
2.14732
2.31257
-0.410774
0.625124
1.97249
1.78668
0.0363196
-0.590981
1.67532
-8.1532
2.11209
-1.61847
2.05676
0.95945
0.266022
1.91631
1.04104
2.00797
0.559252
0.73647
-0.428529
-5.84648
-2.35867
0.0344883
1.97044
-0.747698
-0.318637
-0.764645
2.19583
1.98683
0.545464
1.1403
2.21478
-2.20423
1.46052
0.0788044
-0.507389
1.45709
-0.387035
-1.57699
-1.2726
-9.6773
-0.228274
-0.703882
0.0829982
-5.12449
-6.10791
1.26097
2.63895
2.88828
2.50293
-0.724989
1.65141
-0.593053
1.42362
2.20821
0.245449
1.93509
-0.775412
0.542532
-0.46349
-0.0373846
2.10544
-1.15677
1.73261
-2.97643
-0.341634
-10.3171
1.76946
1.71985
1.53074
-1.08736
1.45031
-0.303404
-8.58058
-9.35078
0.498518
2.65061
-2.92603
-0.22473
-0.453475
1.51935
1.47506
0.00654154
0.978457
-1.79144
2.24717
2.04147
-0.301015
-0.264988
2.19053
-0.376881
-1.14904
0.0665044
2.00312
2.25273
-0.430954
1.08088
-0.211508
2.59172
-5.82283
-0.436444
-0.030526
2.42857
0.0574643
-0.392957
-0.163148
2.08729
1.22663
2.07318
-0.0810195
-2.53536
1.70029
3.00681
-5.63477
1.36873
0.0201941
-7.45178
0.0296415
0.565825
-0.468824
1.05364
-0.3588
1.01756
-0.234631
-0.552348
1.89908
2.26787
1.44223
-1.74092
-0.440986
1.76663
-1.9791
0.569346
-0.549954
0.767253
-3.75809
1.64902
1.77243
-0.0162495
1.66191
2.55643
-0.219446
1.23991
1.74454
-9.643
0.946511
-0.469385
0.7626
0.542511
1.20428
0.00984393
0.519427
-0.154041
-3.50273
2.13249
0.601483
-0.013479
-0.387576
-0.133017
1.59266
-2.8025
2.79018
-0.861683
-11.9594
-0.207713
1.94974
1.72745
2.03928
-8.83064
2.45739
-1.04859
1.19761
0.210011
-2.172
1.41524
0.705638
-0.189626
1.05036
-5.5033
1.23676
-8.4187
-0.39545
0.00129991
-1.4935
-1.74504
1.36333
2.52403
0.139419
-0.526567
1.96276
-1.91134
2.29159
0.677596
0.103195
0.84265
1.54084
0.805028
-0.184854
0.164491
0.04379
0.396175
0.56786
-2.15628
-0.446855
0.110725
0.887382
-0.247377
3.06767
1.64655
1.52331
2.31184
0.269791
1.71419
-0.77749
-9.05673
-0.44225
1.5417
2.98525
1.42733
-0.959819
2.13707
1.43331
1.4572
0.1165
-0.0135922
0.821905
2.80397
0.128485
-0.560173
2.0953
2.179
1.60756
1.52099
1.86067
1.08274
-0.336697
-0.527583
1.67935
-5.12857
-5.86122
1.51171
-0.475525
-0.0571626
0.48416
1.65452
1.71489
1.74367
-0.142152
2.03637
2.08326
0.270055
1.83058
1.60269
1.29589
1.15079
1.02254
0.790633
-0.00133684
1.95005
1.8156
-0.727848
1.39069
-0.156496
0.074652
2.50212
1.88851
0.0152926
-0.498683
-0.424771
1.94316
1.09088
0.301851
0.0421606
0.27766
-0.307891
0.344419
-0.475169
-0.141342
1.11269
-0.196636
-1.19067
-1.29725
2.3583
-0.456745
-4.37329
-0.483894
2.53451
-0.240424
0.301268
0.322359
-6.94898
1.19401
1.4409
0.958915
2.22375
1.23456
0.0895727
-8.20633
-0.488683
0.0339141
1.76995
-0.569093
-0.467819
-6.23245
-0.277176
-4.82523
-0.475339
-2.48358
-0.126219
0.600049
1.50885
1.98281
-0.245698
0.0193047
2.23465
1.70484
-0.424373
-0.256127
-7.25327
0.941631
0.203415
0.83778
1.31443
-0.119586
-0.24996
-0.275982
0.419135
-0.91696
-9.00803
0.214914
-0.608467
-9.67175
-6.92898
-0.498795
0.205175
-6.90715
0.784714
-0.456956
1.51186
1.35858
0.413923
1.97255
-0.661998
2.5369
-0.461713
0.139894
-1.23674
1.52038
0.930667
-5.59085
-8.06324
1.5596
1.8459
2.63348
-0.518054
-9.29769
-0.62268
-0.0994776
0.00901647
-1.18942
0.541105
-4.1783
0.912246
-0.536153
1.15648
0.141336
-0.0224606
2.30087
1.35724
-1.20209
0.0374161
-1.60421
-6.94989
1.97976
2.89007
-4.28779
1.86601
1.46501
0.00618418
-0.277669
1.92144
1.84079
-2.67004
-0.232252
-0.459035
-0.684565
-1.18006
-2.72607
-1.10574
0.999229
-0.193985
1.68458
-0.879695
-6.82018
1.4297
-1.09885
-6.39973
0.114855
1.15555
-7.41838
-0.593943
-7.22136
-0.754847
-5.50078
2.67354
-8.87058
-0.201804
-0.6114
1.67142
-10.697
-0.210807
-1.99496
-1.41101
-0.45913
1.72923
0.0215634
-1.32438
1.33611
0.00820311
-0.396836
-2.02082
-1.6281
1.08351
1.25619
1.53865
-9.53725
2.27747
-0.314994
0.00507834
0.149311
-2.53823
-0.549127
-1.48652
-0.849935
0.276623
0.686064
0.108851
-0.304584
-0.888356
1.43261
-1.06207
1.61339
-1.60045
0.980411
-0.213729
-0.148569
-0.456384
3.05341
-0.34232
-8.50383
-5.26618
-0.725775
1.53452
0.0999473
-0.72998
0.0848406
-5.87322
-0.494633
-5.98189
-2.51402
1.66192
-3.4732
0.2618
-7.18952
0.014935
1.34963
0.15192
0.678537
-0.407685
2.00109
-9.2552
-0.548285
2.14174
0.616864
-9.75864
-0.299916
-1.69944
-0.804331
-0.33724
1.9588
-0.415415
0.6578
-8.1772
-1.61048
-2.2063
-2.91552
-5.12079
0.892024
-0.211185
1.51676
0.58027
-1.2246
-0.210063
-0.594869
1.88516
2.25826
-7.7575
0.0814233
1.63897
1.5113
1.19346
-0.689814
-1.19607
-1.2924
1.53808
0.474205
-0.770763
-2.09931
0.869738
1.81396
-0.237301
-0.185046
0.10583
2.11802
-1.57234
-1.748
0.0654882
1.32352
0.0830146
-0.346702
2.29252
1.89944
0.0990125
-0.732653
1.93398
0.772733
-0.0726744
1.40228
-0.309851
-0.93359
-1.4983
-0.747158
1.86008
1.62549
-0.0473139
-0.538591
-0.439251
-0.0668952
1.66824
-0.714472
1.14077
2.01598
2.15722
-0.293706
1.55181
1.34445
1.68883
1.7914
-0.161458
1.80387
0.00678673
1.53329
0.832933
1.66083
-0.450923
1.92099
1.83252
1.38794
1.00257
-0.49195
1.08064
0.115341
-0.63197
2.06264
2.04662
-0.56475
1.8011
-0.753669
-5.43077
1.6549
1.6618
-1.68698
-0.0280309
-9.22933
-0.674684
-1.40496
-0.396485
-1.65268
-0.390189
1.40037
2.79593
1.92039
-0.264538
-0.340929
1.62296
0.832493
-0.249507
-0.904766
-0.425205
-1.76242
-5.67505
-5.77703
1.46725
-0.193102
0.795305
0.0518001
0.0496425
-0.272803
0.0449997
0.300746
0.784608
1.02839
-0.442824
0.701503
-2.16954
-0.908058
1.0685
0.861663
-0.031692
0.219322
1.00917
0.0169422
0.597238
-0.493535
1.52993
1.28176
2.42974
1.53724
-0.667763
-0.368512
-0.529216
-0.396618
0.0400529
0.0702499
-0.115274
-0.582285
2.85445
0.20122
-0.0791299
2.25556
-0.462432
-0.978792
-0.289915
-0.461513
-10.6223
0.4338
-1.28164
1.48547
-0.163783
-0.616635
-1.49882
-0.331656
-0.823144
-0.198548
0.160504
1.19621
-0.424952
-0.41267
-1.39689
0.600188
-0.820783
1.65121
2.31242
-0.383206
1.68506
0.87474
1.11816
2.56266
-0.471656
0.936841
0.815085
0.739142
2.18356
-0.471684
-0.0957141
-0.194272
1.63004
2.3091
-0.405986
0.00182572
-0.790673
-0.689611
0.805054
-0.529517
-1.84443
-0.420806
0.609102
-7.65321
0.407298
0.480045
1.34252
0.33232
-5.83167
0.107711
0.0545747
-0.181355
2.46892
2.7792
2.05168
2.95703
1.35152
0.976045
1.71786
1.4878
1.38527
-0.631612
1.57282
-0.326987
-5.85351
2.2641
-0.169594
-0.862118
2.66089
0.0812585
-0.670961
0.837924
0.733371
1.86689
-4.88674
1.41919
2.45663
-0.469296
-5.40165
-1.65848
1.09419
-0.517824
1.96264
-0.0724364
1.8699
1.52279
-0.428342
1.79143
-0.542114
-7.30983
-6.35479
-0.491885
1.84264
-0.732168
1.57208
0.0105878