/*--------------------------------*- C++ -*----------------------------------*\
| =========                 |                                                 |
| \\      /  F ield         | OpenFOAM: The Open Source CFD Toolbox           |
|  \\    /   O peration     | Version:  2306                                  |
|   \\  /    A nd           | Website:  www.openfoam.com                      |
|    \\/     M anipulation  |                                                 |
\*---------------------------------------------------------------------------*/
FoamFile
{
    version     2.0;
    format      ascii;
    arch        "LSB;label=32;scalar=64";
    class       volVectorField;
    location    "2.75";
    object      U;
}
// * * * * * * * * * * * * * * * * * * * * * * * * * * * * * * * * * * * * * //

dimensions      [0 1 -1 0 0 0 0];

internalField   nonuniform List<vector> 
13486
(
(1.46438 -0.253566 5.58489e-19)
(1.69228 0.267554 2.60519e-19)
(2.16798 0.0182957 0)
(0.73137 -0.379051 -1.28277e-19)
(2.34829 -0.552871 1.78835e-19)
(2.37211 0.0995324 1.24747e-20)
(2.56575 -0.451277 1.37229e-21)
(2.01145 -0.74622 -2.92111e-19)
(1.94884 -0.415742 0)
(2.0494 0.67617 0)
(1.0825 -1.77281 -2.78411e-19)
(2.42826 0.0661328 0)
(1.34141 -0.466355 -5.52137e-19)
(2.47731 0.572558 4.32364e-20)
(2.46905 -0.386217 9.682e-20)
(2.00728 0.673846 -1.47466e-19)
(-2.50975 1.2573 1.20293e-18)
(1.47403 -0.704911 -1.30908e-19)
(2.27915 0.00486161 2.7874e-21)
(1.63324 -0.0805177 -5.65679e-19)
(1.40911 -0.748393 -4.62854e-20)
(1.3595 -0.481118 7.12707e-19)
(1.71304 0.266052 -2.08213e-19)
(2.10978 -0.589557 0)
(2.07447 0.536867 4.80376e-20)
(2.10511 -0.543372 -6.07889e-20)
(-0.552714 -0.0484295 2.90064e-19)
(2.21914 -0.0809206 2.17973e-19)
(2.03935 0.00524724 0)
(2.04688 -0.210171 -1.128e-19)
(1.4561 -0.711852 -2.90282e-20)
(2.60942 -0.242809 -1.15114e-19)
(2.45073 -0.379552 2.0794e-19)
(1.97455 -0.0298178 0)
(2.02011 -0.720593 0)
(1.92853 0.00356165 -3.22845e-21)
(2 0.0483784 2.69948e-20)
(1.51341 -0.716152 2.81991e-19)
(1.89899 0.0648266 2.83608e-21)
(1.96203 -0.257682 2.85551e-19)
(2.41425 -0.830356 0)
(0.898535 -0.451237 -6.40154e-19)
(2.05577 -0.0271399 0)
(2.08474 0.450724 -2.32967e-19)
(2.10697 0.442079 9.57566e-20)
(2.42784 0.0610357 8.91663e-20)
(2.3742 -1.16822 3.64486e-18)
(2.0362 0.0129829 -1.13854e-21)
(2.00352 0.0519221 -2.035e-20)
(2.39984 -0.0512459 1.22394e-19)
(2.00693 0.0401225 3.18919e-19)
(1.92181 0.0239956 0)
(2.5807 0.152905 -9.46043e-20)
(1.6702 -0.635275 -4.12499e-19)
(1.35377 -0.636287 0)
(2.32027 -0.558776 -1.20731e-19)
(2.04209 0.0532079 -1.79658e-20)
(1.91404 0.0375221 2.88578e-21)
(2.45346 -0.373157 2.40519e-19)
(2.00197 0.0652351 0)
(1.24162 -1.42154 -2.21911e-19)
(1.98817 0.0568293 0)
(3.26466 -0.60284 -4.38038e-19)
(1.42234 -0.755717 -5.45704e-22)
(1.68959 -0.610229 0)
(2.00535 0.0590639 1.39785e-20)
(0.791489 -0.402729 -1.27746e-19)
(1.45948 0.00784562 1.88529e-19)
(1.95033 -0.439838 -1.63818e-19)
(1.94904 0.0140989 -5.38629e-21)
(0.591799 -0.291388 1.4646e-19)
(1.35709 -0.632015 -8.20057e-21)
(1.96295 -0.136662 2.11977e-19)
(-0.453222 0.603435 -7.42729e-19)
(2.00201 0.0399423 3.26866e-21)
(2.04886 0.0489827 4.0373e-21)
(2.00181 0.0403254 -9.1253e-21)
(2.47265 -0.406701 -3.94925e-20)
(1.90746 -1.70998 -1.64513e-18)
(1.68766 -0.0104439 0)
(1.99742 0.000419934 1.56153e-21)
(1.64547 0.350392 -1.65282e-20)
(3.28719 -0.874617 -4.4861e-20)
(2.19531 0.0184899 -1.50744e-20)
(1.45748 -0.269654 -1.09356e-18)
(1.43683 1.56588 0)
(1.85089 0.338609 2.65127e-20)
(1.9982 0.0391621 -4.78072e-19)
(1.88581 0.237877 -2.1057e-19)
(1.9197 0.919016 -1.52915e-19)
(2.75751 -0.132903 -4.70099e-20)
(2.13646 -0.644948 -1.53111e-19)
(1.52776 -0.362943 1.44177e-19)
(1.67379 0.0593453 1.46646e-20)
(1.86793 -0.60655 6.62374e-20)
(2.02179 0.00612729 6.35859e-22)
(-0.413772 -0.233634 0)
(1.30825 -0.658169 6.57385e-20)
(1.97266 -0.256608 -5.45258e-19)
(-2.31172 0.878689 8.97292e-20)
(2.07111 0.00335386 0)
(2.4455 0.57484 1.24759e-20)
(1.40369 -0.696967 5.07727e-22)
(1.90718 0.0296324 -3.5589e-21)
(1.3968 1.50805 0)
(-2.30599 0.673764 8.30545e-20)
(1.97127 0.0616365 9.42047e-22)
(1.88916 0.0709251 6.66794e-21)
(1.96694 -1.34358 2.33488e-18)
(1.79414 -0.81716 0)
(1.27043 -0.611011 0)
(2.62358 -0.379638 -1.08636e-19)
(1.67665 -0.617011 2.96397e-21)
(2.05741 0.0252838 1.28788e-21)
(1.12681 -0.104994 0)
(1.21431 -0.601963 -2.47406e-19)
(2.07966 0.548944 0)
(2.01688 -0.0394136 0)
(1.95533 -0.135264 0)
(1.99558 0.0383147 1.26635e-20)
(1.21824 -0.715468 8.19073e-20)
(1.14006 -1.4221 0)
(1.83582 -0.549513 0)
(1.90019 0.0687026 -7.7279e-21)
(1.91295 -0.696569 0)
(1.91602 0.0252312 0)
(2.21091 -0.283766 6.26586e-21)
(2.18475 0.0460583 9.00974e-20)
(1.92823 -0.00945971 -1.66376e-20)
(1.68543 -0.545723 -3.60789e-20)
(1.94189 0.0302757 5.8459e-22)
(2.46799 -1.0699 -9.1158e-19)
(1.58295 0.358694 9.65829e-19)
(-0.255141 -0.302769 1.12204e-18)
(1.9995 0.0191333 -5.26676e-20)
(1.93632 0.404342 -2.31157e-19)
(0.727681 0.674924 -1.57618e-19)
(1.81946 -0.815335 0)
(2.00007 0.0343223 -3.7904e-21)
(2.03404 -0.608484 -1.04945e-19)
(2.47938 -0.22476 -2.36276e-19)
(2.61369 0.140513 7.78354e-20)
(2.58321 -0.0809097 0)
(1.7081 -0.00482245 0)
(2.07323 -0.0132757 4.65604e-21)
(2.66803 -1.00769 -5.0164e-19)
(2.1643 0.301584 -2.3012e-20)
(0.351688 1.55662 0)
(2.45048 -0.0821765 0)
(2.02693 0.00961425 0)
(2.00629 0.0208734 4.72737e-21)
(2.46724 -0.474083 0)
(2.03818 0.000567691 -1.6392e-21)
(1.62297 0.348115 -1.40308e-19)
(2.18956 0.28259 0)
(2.16105 0.0234973 0)
(1.59353 -0.730331 0)
(0.434005 -0.311144 -1.84731e-20)
(1.77297 -0.726913 5.88257e-19)
(2.03636 0.127841 3.93232e-20)
(2.39683 0.000621767 7.57813e-20)
(1.77933 -0.706716 -8.93672e-19)
(2.72283 -0.332177 -1.48622e-20)
(0.796596 -0.383976 2.81207e-19)
(1.91004 0.0271003 0)
(2.57071 0.517095 -9.07852e-20)
(2.39044 0.538899 -2.80997e-20)
(0.513585 -0.175118 -6.83282e-19)
(2.15454 0.294699 5.99598e-20)
(-0.2033 -0.37729 3.07418e-19)
(1.50644 0.262436 4.53054e-20)
(2.18037 0.261419 7.34802e-20)
(2.00183 0.0610278 -3.81328e-19)
(2.35937 -0.205588 9.43693e-21)
(2.01164 -0.00608023 2.36348e-21)
(1.50302 -0.788425 0)
(2.53802 0.869883 1.34579e-19)
(2.572 -0.292065 3.41056e-19)
(1.99692 0.0649552 -5.2919e-19)
(2.56703 -0.0551159 0)
(2.01402 -0.317051 5.76833e-19)
(2.05808 0.0201448 2.4472e-21)
(2.44388 -0.172423 -4.5796e-21)
(0.682355 -0.339779 0)
(2.22704 0.114105 4.10378e-20)
(2.19924 -0.0650572 -9.97642e-20)
(2.03193 0.00866623 -9.56375e-22)
(2.05226 -0.133551 -3.613e-20)
(2.45441 -0.814901 0)
(1.08646 -0.52581 -3.1763e-19)
(2.00466 0.0436051 0)
(2.10175 0.0203222 0)
(1.8857 0.0408533 0)
(1.36554 0.781755 -2.91256e-19)
(1.88171 0.0312389 0)
(0.891848 -1.73789 -5.6252e-20)
(1.67643 -0.568172 8.28391e-20)
(2.3396 -0.008543 3.99544e-20)
(1.10643 -0.548029 -1.22312e-19)
(2.54394 0.490322 -4.36217e-20)
(1.46378 -0.707419 3.09892e-20)
(2.20215 0.0684379 -2.66539e-21)
(1.3828 -0.671506 -3.25938e-19)
(1.67644 -0.733943 4.78929e-20)
(2.04045 0.106879 -4.79111e-20)
(1.88477 0.0283899 -4.57548e-21)
(1.42637 -0.611355 -3.37279e-20)
(1.88364 -0.0577416 4.31315e-19)
(1.88322 0.0304809 0)
(2.21886 0.096827 0)
(2.15904 -0.0630772 1.34128e-19)
(1.94006 -0.531034 8.78805e-20)
(1.64935 -0.0650138 5.17727e-19)
(1.95395 0.0615132 4.76772e-22)
(2.38416 0.12242 -1.43738e-20)
(1.76714 -0.192822 9.33863e-21)
(2.07799 -0.199244 0)
(1.91617 0.911468 4.06642e-19)
(1.61319 -0.387135 0)
(3.10436 0.206704 0)
(-2.50118 1.05761 -2.25923e-18)
(2.45817 -0.0674133 0)
(2.01718 -0.602927 2.43922e-19)
(2.40865 0.0190334 0)
(2.59079 0.27914 -1.26291e-20)
(1.29908 -0.617758 1.98426e-19)
(2.5029 0.177098 -4.99817e-21)
(1.52253 -0.714276 2.09805e-20)
(1.81522 -0.0862038 2.20505e-21)
(1.85844 0.308667 -7.15698e-22)
(2.02528 -0.31008 -1.85305e-19)
(1.23213 -0.274626 7.71625e-20)
(2.47768 -0.264856 2.97679e-19)
(0.930923 -0.457652 2.19194e-19)
(1.51177 -0.756875 0)
(1.078 -0.526434 2.35003e-20)
(2.02009 -0.0943174 5.92975e-20)
(2.10848 0.0113965 -9.73783e-21)
(0.937364 -0.455078 6.35231e-19)
(2.40226 -0.0941725 0)
(2.41479 -0.415543 0)
(2.00023 0.0455035 5.82142e-19)
(2.06267 0.0287996 0)
(0.942691 -0.470037 2.12359e-19)
(1.90116 0.0967564 9.65827e-21)
(1.815 0.0744307 0)
(2.3161 0.00470247 -3.98255e-20)
(2.06526 -0.40124 2.03416e-19)
(0.545861 -0.166296 2.02788e-18)
(2.03529 0.438288 0)
(1.50651 -0.71127 -3.05186e-20)
(1.09229 -0.0778148 8.06031e-20)
(1.01787 -0.49984 3.13161e-19)
(1.87952 0.0708082 0)
(1.78073 -0.0346324 5.69754e-21)
(1.48915 -0.82564 1.86966e-20)
(2.62323 -0.227693 8.7046e-20)
(1.75834 -0.188504 -1.18064e-20)
(0.323218 -0.25024 1.9402e-20)
(2.37863 -0.408786 1.44856e-19)
(1.80863 0.219396 0)
(1.9111 0.100256 -8.8301e-22)
(2.47265 -0.391819 -2.27598e-19)
(1.49133 -0.808127 -2.33398e-20)
(2.24976 -0.754325 -1.84092e-19)
(0.80924 -0.401452 0)
(1.83308 -0.0852798 -2.18819e-20)
(1.46979 -0.728707 -4.54091e-20)
(2.00786 -0.028795 -2.48891e-19)
(0.690655 -0.222479 0)
(1.59699 0.857104 2.00049e-19)
(1.99293 0.0614341 -1.42178e-19)
(2.08702 -0.212176 0)
(2.46862 0.132119 6.80271e-20)
(1.2175 -0.590397 2.63011e-19)
(2.05696 -0.369598 -1.13351e-19)
(1.79606 -0.0253935 0)
(1.45698 -0.489812 0)
(1.86772 0.0667278 5.06428e-21)
(2.20103 0.326058 4.41207e-20)
(1.47052 -0.485618 4.81879e-20)
(2.12716 -0.214568 -2.1058e-19)
(1.93446 0.101677 3.11961e-19)
(2.21717 -0.835919 -1.43735e-19)
(1.05941 -1.28798 2.11616e-19)
(-1.65645 0.0383227 1.42109e-18)
(2.53174 -0.212485 2.82872e-19)
(1.91165 -0.0197123 2.18213e-20)
(2.56814 0.283747 1.9183e-20)
(2.02845 -0.0180515 0)
(1.49445 -0.754496 0)
(1.97305 0.102557 -1.71077e-20)
(1.25054 -0.604692 2.42512e-19)
(1.99289 0.0175604 -5.18394e-20)
(2.01206 -0.0910554 5.47196e-20)
(2.03046 -0.0965785 0)
(2.07743 -0.0264155 -9.2932e-20)
(2.42284 0.135509 -5.76475e-20)
(1.92469 0.0815667 -2.87645e-19)
(2.5669 -0.582357 5.77946e-20)
(2.39292 -0.341339 1.38032e-20)
(1.3291 -0.609307 -3.42086e-21)
(2.1884 0.312579 -3.79667e-20)
(2.58697 -0.243645 1.08372e-19)
(1.99213 0.0330895 -4.29934e-21)
(1.3703 -0.629929 0)
(0.381677 -0.139825 0)
(2.3294 -0.021595 8.20561e-20)
(1.82104 0.290045 -2.15359e-20)
(2.00941 0.0494531 0)
(2.4941 1.53298 -1.94413e-18)
(0.602819 -0.31486 0)
(2.43427 0.873433 -3.15172e-20)
(2.61825 -0.364716 -1.04856e-19)
(1.96182 -1.40212 0)
(1.92906 0.393702 -1.41095e-19)
(1.96451 0.103895 2.50277e-20)
(1.88554 0.222618 -1.80314e-20)
(1.87667 -0.0402057 -4.74368e-19)
(1.84865 -0.110262 0)
(1.99622 0.0574956 -2.56688e-20)
(1.96481 0.0952552 5.64243e-22)
(1.9933 0.0640252 6.67218e-20)
(1.65708 0.102099 -2.73682e-19)
(0.824241 0.643927 2.9185e-19)
(2.72416 -0.160303 7.70998e-20)
(2.26906 -0.400812 -5.839e-19)
(2.14006 -0.21387 0)
(2.31779 0.164882 1.38394e-21)
(2.30523 -0.409261 -1.05748e-19)
(1.99648 0.0265585 6.94185e-19)
(2.16344 -0.648368 0)
(2.85337 -0.14096 -7.82202e-21)
(1.48368 0.347689 0)
(2.57253 -0.465101 -1.68368e-19)
(1.93171 -0.568026 -1.80977e-19)
(0.737241 -0.349672 2.6145e-19)
(2.44571 -0.488258 -1.535e-19)
(2.0478 0.162098 0)
(1.92315 0.108191 1.87211e-20)
(1.83573 -0.109432 2.56761e-20)
(1.66704 0.113482 2.58436e-19)
(2.31885 -0.414656 4.14409e-19)
(2.44142 -0.178154 1.90131e-19)
(1.18724 -0.713734 -8.10325e-20)
(2.02242 0.00531172 -5.35048e-22)
(2.25532 -0.211116 0)
(1.09129 -0.399868 6.31788e-19)
(3.10048 0.183575 0)
(1.97025 0.106511 -8.17964e-22)
(2.26725 -0.100325 3.45462e-19)
(2.37442 0.165597 -6.12564e-20)
(2.46003 0.133754 5.34437e-20)
(-0.142427 -0.262762 -1.9417e-19)
(1.93219 0.0811892 3.59155e-19)
(1.99452 -0.00154474 0)
(-0.524582 0.349984 -5.60498e-19)
(2.22574 -0.289465 -1.23215e-19)
(1.83458 0.265314 1.11736e-20)
(1.94303 -0.500055 8.26751e-20)
(2.44123 -0.0101426 0)
(2.79172 -0.0639716 3.22997e-20)
(1.79969 0.165107 5.49387e-19)
(1.97461 0.060163 4.33027e-19)
(2.05927 -0.223165 0)
(2.04584 -0.000913483 -6.06296e-22)
(2.0234 -0.093972 -5.56929e-20)
(2.82974 -0.581798 5.6142e-19)
(1.61794 -0.0799798 7.18767e-20)
(2.22237 -0.252116 1.17122e-19)
(2.06039 0.000193852 -1.87026e-21)
(2.25242 -0.200919 0)
(2.53452 0.323204 -4.52767e-20)
(1.46927 -0.707535 2.88648e-20)
(2.40445 0.274945 3.06195e-20)
(1.98958 0.0238912 2.70626e-19)
(1.374 0.0375491 0)
(1.94895 0.0985062 2.70217e-20)
(2.0396 -1.32123 0)
(3.52216 0.603015 -3.37994e-19)
(2.03385 -0.0327248 0)
(2.1539 -0.734208 -5.75458e-21)
(1.3795 -0.148054 -1.53824e-19)
(1.58813 0.787395 4.85055e-19)
(2.71808 -0.603059 -2.03463e-18)
(1.81432 -0.0474662 0)
(2.27681 0.0616259 -4.70695e-20)
(2.03482 0.17212 -1.48161e-19)
(-1.45673 1.42594 -7.59423e-19)
(1.40816 -0.735509 4.17754e-21)
(1.67672 -0.0785575 -7.81485e-19)
(2.13358 -0.206054 6.16946e-20)
(2.08416 0.156062 1.00823e-19)
(1.50889 -0.496402 0)
(1.41471 0.276375 2.94102e-19)
(1.99616 0.0277312 1.1623e-20)
(0.690672 -0.35543 7.44522e-20)
(1.48021 -0.702802 -1.01633e-19)
(-2.35023 1.75909 -1.60347e-18)
(2.52846 -0.21956 0)
(-2.02181 1.71424 0)
(2.1208 1.04772 0)
(2.06529 -0.100239 0)
(0.653741 -0.19022 -4.28853e-20)
(2.55977 -0.440796 0)
(2.02832 0.5715 0)
(1.69043 0.0785222 1.06629e-19)
(2.53502 -0.290016 -3.52554e-19)
(2.21567 -0.18496 -2.83762e-19)
(1.73171 0.310812 8.80836e-19)
(2.0058 0.0228374 -7.76127e-20)
(2.52255 1.5535 0)
(2.19687 -0.187159 0)
(1.91616 0.0848972 3.06619e-19)
(2.02114 0.0427845 5.3899e-20)
(1.3786 0.831669 0)
(0.663008 -0.331009 8.12927e-20)
(2.23215 -0.768181 2.07222e-19)
(1.38929 0.715054 0)
(2.3982 -0.093257 1.87516e-19)
(1.9889 0.0667075 -3.54837e-19)
(1.28886 -0.449902 -2.57367e-20)
(1.08484 -0.383354 0)
(2.034 0.156809 2.80563e-19)
(2.46366 0.054991 0)
(2.04797 -0.122015 0)
(2.20338 0.175641 -1.17696e-20)
(1.93287 0.0966319 1.63146e-19)
(-0.684198 -0.0577106 -3.79502e-19)
(2.35335 0.540166 6.48681e-21)
(1.39689 -0.3878 -2.73539e-19)
(2.0511 -0.0938514 3.66305e-20)
(2.10033 0.1407 7.8448e-20)
(2.50814 0.329005 1.24585e-19)
(2.32316 -0.751015 0)
(2.14411 -0.383876 1.13937e-19)
(1.38115 -0.0889463 0)
(1.96309 0.102662 -1.51956e-20)
(2.33576 -0.211685 0)
(1.47935 0.0254926 3.98657e-19)
(0.00979951 0.711428 -3.1525e-18)
(2.11221 -0.193708 0)
(-0.387275 0.0302125 5.35687e-20)
(2.18712 -0.206974 -1.44593e-19)
(1.96762 0.231002 3.67689e-20)
(1.80068 -0.295987 7.4843e-19)
(1.48661 0.767413 -3.09648e-19)
(1.38814 -0.375321 -7.7743e-19)
(3.51118 0.540464 0)
(1.99873 0.0399826 -1.14675e-20)
(1.15393 -0.741099 -2.03311e-19)
(2.04017 0.170813 0)
(1.87212 0.23879 1.96306e-20)
(2.44014 -0.0519092 -2.55847e-20)
(2.84383 0.823446 0)
(2.00662 0.0181408 0)
(0.574823 -0.278046 0)
(1.51778 -0.795476 8.12717e-20)
(2.1643 -0.864723 1.72332e-19)
(2.63193 -0.930533 1.66843e-20)
(2.39169 0.839103 0)
(1.73796 -0.200134 5.08135e-19)
(2.01538 0.000961326 -3.96332e-21)
(2.33408 0.495455 -4.64617e-21)
(1.2273 -0.654458 1.03036e-19)
(1.92781 0.178248 0)
(2.02635 -0.00193194 0)
(0.820692 -0.166431 -4.29866e-19)
(1.48442 -0.489266 -1.91201e-19)
(1.96579 -0.203519 0)
(1.30855 -0.63609 -2.34394e-19)
(2.08974 -0.00267242 2.11263e-21)
(2.02767 0.0108492 -6.27717e-22)
(0.831921 -0.392786 0)
(1.89276 0.00862891 1.3863e-20)
(1.99759 0.0344347 -1.05727e-20)
(2.45562 0.047229 9.11961e-20)
(1.91866 -0.587523 0)
(-1.66856 -0.0271812 -2.21564e-18)
(2.41799 0.153519 6.28878e-20)
(2.00653 0.0969565 6.0766e-20)
(2.02652 0.0093137 -4.95496e-21)
(2.62423 0.470078 0)
(1.70796 0.303003 -2.34381e-19)
(2.92031 -0.0197964 -2.08636e-19)
(-2.55537 1.70218 2.91621e-19)
(2.01688 0.0564727 0)
(1.41754 -0.738395 -4.24871e-21)
(0.564666 -0.145919 0)
(2.01239 0.0579172 -2.32532e-19)
(1.99684 0.0693254 1.06202e-19)
(1.88522 0.0499532 -5.99594e-20)
(1.49495 -0.795959 0)
(2.15838 -0.0151686 -2.74171e-20)
(1.17257 0.408506 8.09533e-19)
(2.29594 -0.745728 0)
(1.66131 0.0607082 3.33418e-19)
(2.53975 -0.59195 -6.5763e-20)
(2.16052 0.00821496 0)
(1.47886 -0.729877 2.22175e-20)
(1.72287 0.00787721 -3.95242e-21)
(2.02967 -0.0265482 0)
(-1.97402 0.140676 2.19924e-18)
(1.85819 0.224243 0)
(1.73594 -0.796988 2.39285e-19)
(1.49735 -0.720633 5.8675e-20)
(2.02858 0.00897641 9.84982e-22)
(2.38068 0.109138 -3.86023e-20)
(1.4062 0.258932 1.56276e-19)
(1.79134 -0.320125 -2.76167e-19)
(1.81905 -0.0343905 -7.97406e-21)
(1.78027 -0.80751 2.4695e-21)
(2.20117 -0.253518 1.13908e-19)
(2.62145 0.482011 1.86717e-19)
(1.86061 -0.831343 0)
(1.99583 0.0192388 -2.39943e-19)
(1.24396 0.790449 -5.10853e-19)
(1.40727 -0.0966992 0)
(2.005 0.0267811 4.36532e-21)
(1.94751 -0.0069444 0)
(1.29291 -0.401363 6.71203e-19)
(2.12183 -0.796879 0)
(1.99214 -0.00425426 3.86737e-21)
(2.26007 -0.0990689 -1.96815e-19)
(1.49046 -0.716292 3.97706e-20)
(0.650397 -0.316224 1.02748e-19)
(2.35915 -0.0181079 -1.63061e-21)
(1.33607 -0.634456 2.09449e-19)
(1.82205 -0.544004 2.65246e-19)
(1.5243 -0.372311 0)
(0.505096 -0.302555 -5.33632e-20)
(2.34648 -0.694091 -4.3173e-20)
(0.517816 -0.331513 -6.40174e-20)
(2.01886 0.0118763 -1.6456e-22)
(1.51237 -0.606962 0)
(2.19274 0.00209115 -1.0756e-21)
(0.754649 -0.355522 0)
(1.45927 -0.721514 1.57215e-22)
(1.34428 -0.485683 3.73615e-20)
(0.088036 -0.157675 0)
(2.09111 -0.566078 7.78903e-20)
(1.67374 -0.602183 0)
(2.83953 0.743701 0)
(1.49906 -0.710811 -3.1556e-19)
(1.50662 0.317479 2.37315e-19)
(1.53014 0.00260389 0)
(1.79891 0.193192 -1.49686e-19)
(2.73869 -1.00949 5.95599e-19)
(1.43757 -0.720015 1.30298e-19)
(2.93002 1.13826 0)
(2.1358 -0.0564852 0)
(1.05389 -0.793298 -9.27904e-20)
(1.89555 -0.131617 0)
(2.2465 0.053184 0)
(1.27075 -1.33697 -1.1396e-20)
(2.09066 -0.419026 -3.74303e-19)
(1.78752 -0.458864 2.29235e-19)
(2.33225 -0.444509 2.03628e-20)
(0.503011 -0.278626 1.10418e-19)
(1.99996 0.0585192 1.21581e-19)
(1.56222 -0.401452 0)
(2.2028 0.42269 -3.39533e-20)
(1.4522 -0.233218 0)
(2.1684 -0.000764129 0)
(2.01078 0.0982201 0)
(2.19317 0.166088 -9.93465e-21)
(1.87042 -0.0364885 2.20071e-19)
(2.06265 0.0145862 -7.45186e-21)
(1.60649 -0.406366 0)
(-0.296763 -0.11207 -1.90439e-19)
(2.14887 0.994262 2.98809e-20)
(1.91125 -0.709929 2.51884e-20)
(1.93984 -0.0304111 -3.30542e-20)
(2.03818 -0.355387 1.82928e-19)
(2.05411 0.0329332 -2.03514e-19)
(-0.04106 1.13319 0)
(2.44095 0.12832 0)
(1.5053 0.791658 0)
(1.27657 -0.591265 -4.81523e-19)
(1.53404 -0.636849 -4.68135e-20)
(0.348054 -0.0137684 0)
(2.22741 0.420038 0)
(2.66643 0.248125 2.81885e-20)
(2.02699 -0.00999169 -5.78437e-20)
(1.9508 0.571513 2.25343e-19)
(1.6674 -0.723296 0)
(0.242012 -0.966528 -6.94227e-20)
(2.30863 0.0595571 1.1771e-20)
(1.45237 -0.454622 -4.57375e-19)
(2.21784 0.0514105 -5.28706e-20)
(2.33535 0.493567 3.84563e-20)
(1.88385 -0.705851 7.07221e-20)
(1.27685 -0.596322 8.4092e-19)
(1.7097 -0.34497 4.95109e-20)
(2.06546 0.0273448 2.90567e-21)
(1.99708 0.0185909 -6.11308e-20)
(1.18539 -0.556874 -7.421e-20)
(1.74035 0.0138574 1.11731e-21)
(1.74172 1.98278 3.17698e-20)
(1.3279 -0.636043 1.20527e-19)
(2.27242 0.157623 0)
(1.94629 0.378422 -7.31376e-21)
(2.14809 -0.0440941 -1.94985e-19)
(2.92417 0.376521 1.30682e-19)
(1.4233 -0.420167 -4.17051e-19)
(1.89622 -0.683608 -2.73817e-19)
(2.06083 -0.0286328 5.59034e-19)
(2.40033 -0.0457641 -3.19063e-19)
(2.39385 0.88146 5.59608e-20)
(2.55522 -0.209658 -1.44002e-19)
(1.21429 -0.200409 -9.10697e-19)
(2.13799 -0.0220052 -1.46051e-19)
(1.20003 -0.26369 0)
(1.51834 -0.709767 -8.94617e-20)
(1.95033 -0.0072918 5.23573e-19)
(1.82697 -0.0203419 -1.59695e-21)
(-0.444555 0.971617 0)
(1.56511 -0.72041 0)
(2.03552 0.40631 1.96152e-19)
(1.08252 -0.198015 5.66198e-19)
(1.69769 -0.708351 -9.0328e-20)
(2.17649 -0.729205 -1.33523e-19)
(2.28398 -0.414894 3.18386e-19)
(3.13824 0.121715 0)
(2.05123 0.435731 1.03206e-19)
(1.32541 -0.643555 -9.17655e-22)
(2.59032 0.85377 1.49892e-19)
(1.99439 -0.294909 -3.28407e-19)
(0.637725 -0.365682 -1.77439e-19)
(2.03546 -0.335236 -1.78677e-19)
(2.12756 -0.401357 6.04487e-20)
(2.38121 1.06167 0)
(1.89274 -0.123838 -2.14516e-20)
(1.89203 0.0483887 5.51342e-20)
(2.00919 -0.00682042 1.50701e-21)
(0.834649 -0.408397 7.71859e-19)
(1.97583 -0.290832 4.91698e-19)
(2.01969 0.106468 -1.99662e-20)
(1.44371 -0.706533 -7.64238e-20)
(2.05664 -0.0528731 -6.70739e-20)
(2.23684 -0.025157 1.29759e-19)
(0.993166 -1.35583 -2.73264e-20)
(2.49447 0.831315 -1.56022e-19)
(-2.01731 0.408716 -2.38423e-18)
(0.971492 -0.476109 -2.55265e-19)
(2.0143 -0.000810829 0)
(2.05678 0.028026 -1.5485e-20)
(1.33753 -0.960831 -5.83282e-20)
(1.37429 -0.177036 8.28346e-19)
(2.02856 0.00873277 0)
(2.50329 -0.319076 -2.96014e-20)
(1.2493 -0.540179 1.9084e-19)
(2.00009 0.0451617 -5.19029e-19)
(1.09709 -0.517772 -8.25705e-20)
(1.52784 0.015561 -2.78186e-22)
(2.22266 -0.199788 1.93055e-19)
(2.27202 0.065984 6.62385e-20)
(1.7545 -0.805269 -3.31667e-19)
(2.06435 0.0181732 1.02618e-20)
(1.55718 -0.652075 -1.14036e-19)
(2.1227 -0.0433476 1.82898e-19)
(2.0579 -0.0766778 -1.58298e-19)
(2.15115 0.0732936 -5.65281e-21)
(2.15664 -0.0532953 -3.48806e-19)
(1.18689 -0.544207 -3.68607e-19)
(2.0595 0.0279848 0)
(1.51993 -0.752931 6.17453e-20)
(2.09254 0.037365 3.88102e-20)
(1.13737 -0.295755 -5.62839e-20)
(2.34101 0.00897431 -2.17873e-20)
(2.22354 -0.434005 -1.95828e-19)
(1.99709 0.0189566 -4.0049e-19)
(2.13078 0.302146 5.79934e-20)
(0.600851 -0.292181 -8.35112e-20)
(2.21861 0.0435637 0)
(1.94928 0.102998 -1.3508e-20)
(2.35512 0.184571 6.27014e-20)
(1.52048 -0.592913 0)
(2.1298 0.0656467 1.05368e-19)
(2.30326 0.177796 7.7288e-20)
(2.20824 0.0209077 7.38405e-24)
(2.44882 -0.822282 -2.91981e-21)
(1.87414 0.0171021 0)
(1.81221 0.345934 4.20786e-19)
(2.0439 0.0915382 2.12042e-20)
(1.30047 -0.628754 2.6563e-19)
(2.02541 -0.20152 0)
(1.50063 0.278492 -6.87233e-19)
(1.28614 -0.840764 1.16356e-19)
(2.6837 1.31029 -3.70421e-19)
(1.22514 -0.222916 8.84751e-19)
(2.06047 0.0175389 9.3982e-21)
(0.701149 -0.339415 8.09493e-20)
(1.93114 -0.113599 -3.44299e-19)
(2.20682 -0.363615 -1.70398e-19)
(1.78574 0.155944 -3.17045e-19)
(2.0247 -0.0114846 0)
(1.99652 0.0312455 -2.31526e-19)
(0.0949648 -0.131201 2.01843e-19)
(-0.766396 -0.304702 0)
(2.01335 -0.545651 0)
(2.00679 0.00245872 0)
(-2.62667 1.5493 0)
(2.05791 0.30283 0)
(1.15339 -0.194664 0)
(1.80089 -0.202675 -1.98582e-21)
(2.53228 -0.872091 -2.45906e-19)
(2.52594 0.177545 0)
(1.79637 0.344125 6.35786e-19)
(0.597684 -0.204768 -3.87704e-19)
(2.06366 0.165809 5.14085e-21)
(1.30899 -1.0547 -3.39558e-20)
(1.16175 0.0305264 -2.32384e-21)
(0.741704 -0.351754 7.37732e-20)
(2.02885 -0.00847076 -1.26646e-19)
(2.409 -0.0728462 1.65851e-20)
(2.02268 0.292095 -1.3891e-19)
(1.86038 0.219903 -4.21968e-19)
(2.07263 0.932513 -1.23408e-19)
(3.40934 0.590777 0)
(1.39518 -0.757539 1.57663e-20)
(1.31217 -0.415802 -7.35666e-19)
(2.0149 0.0176264 -7.1675e-19)
(2.35833 -0.701998 -2.40839e-19)
(2.04574 0.00027709 5.4881e-20)
(2.66999 -0.667772 2.95793e-21)
(2.15164 -0.334007 -4.26742e-20)
(2.10564 -0.554149 -2.69826e-19)
(2.03205 0.16126 1.54264e-19)
(2.81025 1.48001 0)
(1.83596 -0.0225874 -7.05422e-21)
(1.70867 0.0603455 -9.7779e-20)
(2.57787 -0.422107 0)
(1.87751 0.060223 0)
(1.80614 -0.828322 -3.38188e-21)
(0.925148 -0.447456 8.60629e-20)
(1.7777 -0.211826 -5.02854e-20)
(1.93562 0.0275076 0)
(1.89365 -0.0610934 -4.51161e-19)
(1.83035 0.223692 -8.1897e-20)
(1.52876 -0.742301 3.6753e-20)
(2.25581 0.124352 4.12277e-20)
(0.723304 -0.337885 0)
(1.37918 -0.750827 1.96568e-20)
(2.28436 0.144902 0)
(1.88489 -0.13206 2.21307e-20)
(2.79831 -0.0757754 -3.52726e-20)
(1.98479 0.0299964 -5.11322e-22)
(2.40986 0.55006 5.15217e-20)
(2.86977 1.00696 -3.96333e-20)
(1.77718 -0.522403 5.50738e-19)
(1.41333 -0.657525 0)
(1.62553 -0.538161 -7.77351e-20)
(1.29642 -0.300128 0)
(2.56143 0.146364 -4.7402e-20)
(1.52976 -0.742974 7.52888e-20)
(1.99063 -0.533819 1.10118e-19)
(1.9381 0.0936647 1.17673e-20)
(1.47835 -0.866323 -1.24567e-19)
(1.11509 -0.548478 -3.06771e-19)
(1.35248 -0.42395 -4.26056e-19)
(2.00458 0.0284129 -4.05919e-21)
(1.63604 -0.523876 6.37915e-20)
(1.23019 -0.561317 3.03224e-19)
(1.40667 -0.451399 4.68024e-19)
(1.52444 -0.634364 5.81423e-20)
(1.71717 -0.540248 -4.03263e-20)
(1.88541 -0.608457 2.73366e-19)
(1.82718 0.230875 2.2735e-18)
(2.06136 0.0122612 6.66395e-21)
(0.764446 -0.235122 2.94968e-19)
(2.34411 0.323439 -1.73839e-20)
(2.29511 -0.58127 0)
(-2.40034 1.33376 -3.05283e-18)
(2.08041 -0.0266757 -2.43571e-19)
(1.99439 0.0996214 0)
(2.53558 0.145658 0)
(1.51469 -0.50148 -5.63856e-20)
(2.26046 -0.52097 -1.81828e-19)
(2.37883 0.136968 4.54559e-20)
(2.08663 -0.408485 4.90593e-19)
(2.0431 0.894982 1.18568e-19)
(1.60136 0.0158597 3.63573e-19)
(1.52703 -0.744651 -9.81879e-22)
(1.84028 0.588356 0)
(1.43833 -0.48295 4.48229e-19)
(1.48274 -2.50051 2.53539e-19)
(1.47822 -0.844976 9.40584e-20)
(1.76932 -0.691547 9.07571e-20)
(1.46962 -0.665167 -5.61883e-20)
(1.99419 0.0170854 1.80846e-19)
(1.90513 0.0744701 -3.85062e-21)
(2.03451 -0.197697 1.20474e-19)
(1.52582 -0.746798 -5.17681e-20)
(2.3692 0.144586 -3.13019e-20)
(1.9357 0.0783517 1.79462e-19)
(1.19494 -0.252862 -3.63619e-19)
(1.89937 -0.11256 2.81153e-19)
(2.32424 1.01095 0)
(2.40549 0.26503 -4.10546e-20)
(1.99865 0.0646318 3.98181e-20)
(1.50942 -0.338586 -1.4371e-19)
(1.99329 1.75476 8.30108e-20)
(1.855 -0.59497 2.03552e-19)
(1.99034 -0.00594276 7.75006e-20)
(1.4047 0.107418 -5.38767e-19)
(2.55817 -0.420966 0)
(1.94428 0.0857794 2.20754e-20)
(2.22824 0.0832541 7.18724e-20)
(1.92449 0.000908614 0)
(1.4366 -0.00165636 3.08449e-19)
(2.26001 0.126955 0)
(1.87304 1.77355 -1.73804e-20)
(2.38109 -0.0428192 0)
(1.8272 -0.0192064 0)
(2.40641 0.0487129 4.61684e-20)
(2.35652 0.110727 -7.42773e-21)
(2.68967 -0.0984648 -2.88168e-19)
(1.93779 0.155608 -1.91729e-19)
(1.65534 1.13301 -1.17973e-19)
(2.01181 0.119594 -7.31055e-20)
(2.10415 0.304513 0)
(3.40322 -1.86828 -1.45366e-19)
(2.40568 0.0743088 5.59933e-20)
(1.87653 -0.118145 -4.47753e-20)
(2.29321 -0.575268 0)
(2.95077 0.366372 1.97108e-19)
(2.34981 1.57647 2.3346e-20)
(2.05008 0.00576206 2.65094e-20)
(1.71251 -0.905382 0)
(1.36268 -1.31761 1.57326e-19)
(2.04385 0.150404 0)
(2.05118 -0.178825 -6.13552e-20)
(0.580593 -0.218905 0)
(3.39259 -1.24976 0)
(1.69689 -0.366865 0)
(2.07942 -0.791747 0)
(0.615491 -1.75761 -5.79533e-20)
(1.52391 -0.783232 -1.77293e-20)
(1.87723 -0.0449821 -3.30235e-19)
(1.49772 -0.723186 -4.95629e-20)
(1.30826 -0.587669 0)
(1.52737 -0.707169 -3.61637e-20)
(0.308662 0.0406886 -2.01912e-18)
(1.53029 -0.723727 0)
(1.51915 -0.557514 -4.7849e-19)
(2.0052 0.0503293 3.70776e-21)
(2.32883 0.316549 3.50244e-20)
(2.44864 -0.83434 5.18856e-20)
(1.83093 0.206035 0)
(2.24636 -0.727297 0)
(3.03109 -0.359697 1.65738e-19)
(1.76364 0.0343792 6.20618e-23)
(1.98794 0.0368366 8.68946e-21)
(1.50719 -0.489254 1.68176e-21)
(2.00437 0.00231765 1.72239e-20)
(2.03688 0.0447289 1.02764e-21)
(2.02545 0.160828 2.2381e-19)
(1.95754 0.0907073 -1.26638e-20)
(1.92663 -0.545278 0)
(-0.710216 -0.368328 0)
(2.06041 0.010075 0)
(1.98777 -0.0115818 0)
(1.7625 -0.336152 2.03038e-19)
(2.41932 -0.149262 0)
(1.07979 -1.64862 4.34227e-19)
(1.8404 -0.7132 -5.72904e-21)
(1.37803 -0.469976 -7.03007e-19)
(0.676274 -0.346576 2.2982e-19)
(1.52916 -0.753922 -3.43063e-20)
(1.33853 -1.99227 -3.14059e-19)
(1.95304 0.00225539 6.1795e-20)
(1.50608 -0.754205 -5.05356e-20)
(1.96753 0.0917748 -2.15981e-20)
(2.40084 0.0611026 0)
(2.39868 -0.389385 0)
(1.42523 0.653143 0)
(2.21915 -0.450953 1.03482e-19)
(1.70715 -0.578654 0)
(1.87153 0.5914 0)
(2.00074 0.00394886 0)
(1.80561 -0.462856 2.13811e-19)
(2.08008 0.162636 -2.01963e-19)
(1.97201 0.00385941 0)
(1.83142 -0.218269 -5.17227e-20)
(1.98502 0.184705 -2.21063e-19)
(2.58102 0.760237 -3.12191e-19)
(1.57502 -0.740485 2.84916e-19)
(1.94985 0.639296 -1.43489e-22)
(1.67422 -0.0286168 -4.45994e-22)
(1.87619 0.0780652 -4.99866e-21)
(1.79383 -0.0720401 -1.46955e-20)
(2.34678 0.126391 1.30238e-20)
(1.98793 0.0327324 1.88644e-20)
(1.82381 0.0785137 -3.10896e-19)
(2.11885 -0.0359522 0)
(1.28873 -0.375202 4.36044e-20)
(1.96019 0.0707233 3.20712e-19)
(1.26517 -0.64469 6.47806e-20)
(2.14525 -0.317908 -1.24659e-19)
(1.11216 -0.216944 -6.17559e-19)
(2.35135 0.100205 -2.69389e-21)
(2.94897 -0.00947013 3.00182e-19)
(2.00959 0.0952823 0)
(1.99989 0.459535 -1.57326e-20)
(1.92641 0.0472018 2.79761e-21)
(1.79312 -0.0746009 3.40257e-20)
(1.31455 -0.700878 -1.18119e-19)
(1.99701 -0.00238109 1.69192e-19)
(2.06027 0.0249773 -3.09256e-21)
(2.00554 0.00459904 -7.01038e-21)
(2.06813 0.0139134 0)
(1.85098 -1.1226 0)
(1.3864 -0.667976 3.48302e-19)
(0.978587 -0.460185 8.85545e-20)
(2.05156 0.00222759 -1.33327e-22)
(1.96302 0.0670932 6.43203e-19)
(2.01017 0.486231 4.40967e-20)
(1.467 0.263993 0)
(1.80181 0.102423 0)
(1.63958 -0.388213 -3.00679e-21)
(2.39975 0.0543121 7.20877e-20)
(1.99799 0.614554 2.93442e-19)
(2.54474 -0.0684273 0)
(2.04541 0.000709889 0)
(2.13231 -0.623852 3.70106e-19)
(2.00013 -0.18518 2.64835e-19)
(0.144887 -0.0753656 -2.29582e-20)
(1.88934 -0.0243834 0)
(3.64155 -1.2379 2.65852e-19)
(1.88465 -0.319755 -2.22149e-20)
(1.34185 -0.925531 -7.33197e-20)
(1.97889 -0.0407343 -3.62057e-19)
(2.57981 -0.79681 0)
(2.28299 -0.546464 1.43753e-19)
(1.7473 -0.876357 -1.25954e-19)
(0.0278001 -0.00412308 0)
(1.98974 -0.00563549 1.60543e-20)
(1.9258 0.132746 -2.08102e-19)
(2.00214 0.0132569 1.44669e-23)
(2.79188 -0.179565 1.91653e-20)
(1.99247 1.59334 6.18025e-19)
(1.89902 0.0514302 0)
(1.10673 -0.422194 -4.18847e-21)
(2.02096 0.52587 -3.83003e-20)
(1.99781 -1.26285 -3.32337e-19)
(2.0523 0.301074 1.64859e-19)
(1.40071 -0.657099 2.53166e-20)
(1.99166 -0.0108542 -7.98245e-19)
(2.0287 0.120521 1.08351e-20)
(1.89438 0.0871628 -1.06231e-20)
(1.77176 -0.422776 0)
(1.91219 0.0232116 4.72695e-22)
(1.15295 -0.545016 2.42139e-19)
(2.23218 -0.105766 -3.83881e-19)
(1.98395 0.0616193 -2.90244e-19)
(2.04841 -0.159548 5.69439e-20)
(1.69306 -0.188285 7.44198e-19)
(2.07047 0.0137942 -7.68096e-21)
(1.7931 0.102111 1.80502e-19)
(2.01512 0.0265722 1.47464e-20)
(2.35775 -0.451454 -2.35791e-19)
(2.54193 0.882524 -2.3044e-19)
(1.71468 -0.723069 7.06393e-20)
(1.99593 -0.0328398 0)
(1.67608 0.47068 0)
(1.04552 -0.238171 0)
(1.37451 -0.431532 5.44177e-19)
(2.15501 0.0712392 -4.70301e-19)
(1.818 0.237391 0)
(1.55289 -0.353844 -4.26965e-19)
(1.80517 0.207883 0)
(1.76994 -0.309827 -3.33649e-19)
(1.86796 -0.118217 -4.54181e-20)
(1.90036 -0.514649 -3.00846e-19)
(1.97595 0.0401799 0)
(1.95058 0.0712206 0)
(1.93454 -0.0119318 2.71356e-20)
(2.48791 0.149816 4.98562e-21)
(2.35651 -0.0954314 1.13432e-19)
(2.56435 1.6673 -1.01853e-20)
(2.65145 -0.134867 0)