/*--------------------------------*- C++ -*----------------------------------*\
| =========                 |                                                 |
| \\      /  F ield         | OpenFOAM: The Open Source CFD Toolbox           |
|  \\    /   O peration     | Version:  2306                                  |
|   \\  /    A nd           | Website:  www.openfoam.com                      |
|    \\/     M anipulation  |                                                 |
\*---------------------------------------------------------------------------*/
FoamFile
{
    version     2.0;
    format      ascii;
    arch        "LSB;label=32;scalar=64";
    class       volScalarField;
    location    "1";
    object      p;
}
// * * * * * * * * * * * * * * * * * * * * * * * * * * * * * * * * * * * * * //

dimensions      [0 2 -2 0 0 0 0];

internalField   nonuniform List<scalar> 
13486
(
58.5197
45.1068
2.47335
-5.3061
21.1855
-10.3726
10.2149
34.6524
40.2755
19.5685
-286.174
8.00269
62.1011
-9.71748
15.4641
20.5975
-192.165
-0.65866
11.6432
52.186
-6.02845
61.4988
44.0194
-44.1727
16.5174
-40.6294
-230.332
-24.4211
-0.032047
-20.5703
-5.10965
10.4853
-49.4676
-14.9289
34.6099
0.0379233
-0.603745
49.2382
-3.54022
39.2935
9.01736
64.81
0.50682
17.0146
16.498
7.33554
-266.488
-0.0871622
-0.713033
-27.5243
32.1119
-4.27963
4.56188
49.6862
-1.92124
22.0807
0.753378
-4.12448
-45.7996
-0.251801
-218.168
-0.216402
-130.807
-5.72598
-18.9745
-0.485545
-6.25003
58.0469
40.0659
-1.50541
-5.62848
-3.04525
39.8522
-138.792
-0.220883
0.687873
-0.176444
15.1646
-322.468
-7.40092
0.103963
44.974
-143.957
2.3235
58.7339
12.761
-15.4363
29.5464
37.3471
23.2608
6.90111
30.2777
56.2986
48.986
42.2884
0.0153275
-223.141
-6.54586
39.3672
-215.919
0.0826904
-7.92895
-6.69053
-4.05278
24.5168
-225.407
37.2161
-3.92618
-310.373
29.2048
40.8797
9.09967
49.6009
0.571928
68.9591
41.2488
16.9462
-14.2782
40.1154
-0.326081
-0.402506
-214.771
44.0924
-3.81732
39.4511
-4.02249
28.3598
5.2338
-12.4825
-16.8947
-3.79229
-265.554
-100.914
-110.836
33.2817
29.762
61.165
29.8319
-0.290887
35.1573
-40.6067
4.49418
10.1923
-7.39497
0.914201
-146.18
-11.6322
58.9634
-29.6447
-0.00557931
18.6574
15.2081
-0.0589405
46.7757
7.3941
2.21632
24.3644
4.86441
44.7541
-0.637749
-23.1882
44.6839
3.996
64.2968
-4.2263
-17.7289
-3.61055
79.2978
-14.1927
-110.55
-107.269
7.68962
23.9589
20.9373
-0.0383436
-25.3009
-14.7452
-48.9072
37.4744
10.2248
37.6399
0.850149
16.3083
-67.5235
1.66392
-24.6845
-0.00471164
-19.0488
10.8652
43.9809
-0.588456
1.53732
-4.97327
50.0328
-5.45936
-280.773
-17.1247
-23.1722
54.1087
-14.7522
-5.35279
4.79586
49.2335
21.0146
-0.494824
-5.72118
-1.63533
42.1628
-4.74041
2.05992
-21.3735
-29.4091
51.4982
36.8284
-10.3735
-11.2579
-21.9827
23.9296
53.6181
-60.2012
-200.971
-29.6762
35.8978
-23.7434
1.17834
58.0498
-17.5801
-9.77687
-9.92695
-12.8923
37.1365
-17.0741
-42.0036
66.1178
-7.12492
55.9537
-16.4357
1.65328
56.4998
16.77
-48.2779
23.229
0.78952
53.6226
-3.33136
43.4876
17.3387
-29.837
-133.312
19.696
-15.5964
69.4365
39.3439
-4.17238
-8.05733
-35.036
10.0874
-10.9114
2.62085
-47.9118
41.1448
-2.96146
15.1933
-31.5815
23.7589
-69.9162
-10.009
-5.84792
36.8504
-1.94555
37.8132
36.3766
-22.6479
5.21582
58.2001
-28.5192
-7.96131
-6.73769
-4.37656
-8.41094
-7.50044
32.5675
38.0173
-83.3915
-187.435
-264.311
-43.0988
-13.0107
1.78248
37.2185
-6.81192
-1.18105
43.4064
33.7106
-15.6866
-17.6097
-23.3831
4.60528
38.7206
9.56415
1.67864
-1.49476
-10.5368
11.1235
-0.816054
18.9285
5.49639
18.2689
-11.0236
-0.690939
-81.9886
-5.38935
-7.30577
9.05152
-229.703
30.2238
-1.11664
37.4121
42.3282
-10.8106
-0.473706
-1.5214
37.1348
49.328
64.2353
7.47993
25.4917
32.014
1.82543
23.9237
30.1689
29.216
5.80452
52.8403
9.91416
40.0398
71.8124
16.0491
21.2732
-2.98673
-10.3392
48.5702
23.211
16.7924
-67.0854
0.0686984
26.1793
69.1831
-61.3755
-1.42385
25.4099
2.75737
4.84632
-204.975
38.5487
-0.218969
-138.919
28.1151
-8.19293
-28.6246
12.2277
6.25745
42.1514
36.4979
-21.536
-0.00283457
-16.729
-213.372
52.8786
28.39
0.679477
26.6436
0.149803
-21.7334
-7.71858
31.9512
36.6014
-2.04932
-221.056
-82.8201
36.3604
28.4718
61.4705
39.8243
-218.007
-8.24717
-1.22741
20.4266
-134.825
-3.47281
50.5479
-24.1042
12.8175
56.4628
56.5514
-0.520503
-5.77491
-18.9989
-143.862
-43.7633
-137.181
6.14354
34.4764
-4.42426
10.1603
-8.96642
48.5393
-47.5227
27.8754
42.777
19.0091
-24.9543
-26.8254
38.9887
36.4883
45.2369
-55.4208
24.4756
-84.5244
17.3667
37.1429
3.78588
69.3309
22.8215
-20.491
-18.2574
4.48849
37.853
-238.296
-1.73819
60.8858
34.3979
12.2147
0.575947
20.3844
-32.511
60.9841
-1.50811
21.6945
56.9277
-193.843
-23.275
-103.049
-26.9359
-17.6642
46.5384
44.2366
61.0282
-81.5391
-0.587188
-76.0106
21.9801
38.1345
-27.6967
-34.0712
35.9629
-12.206
-25.3955
-84.3431
-130.493
-4.84297
49.0477
0.0285086
-0.811467
-6.32977
35.4504
-0.0481456
74.9716
57.2673
39.6972
33.5498
-0.0324759
-0.0266059
71.4326
-7.93049
-0.334711
-21.1348
40.3349
-264.271
3.89358
24.4695
-0.479887
-21.3114
43.3286
-55.9014
-154.902
22.5368
-3.62689
78.4813
22.6316
32.2287
41.4245
-27.1234
3.13913
61.4268
21.6165
49.7138
10.1483
7.07712
-6.11843
-7.17883
0.626651
-254.22
38.6352
40.7917
-16.2946
0.0282686
-11.7611
57.0499
46.7718
-8.23676
41.4361
28.9655
-20.4635
24.5445
32.1296
-107.549
60.263
-0.241462
-1.40274
63.9412
29.1077
-0.0904486
25.8624
-7.15072
-8.83319
14.5037
27.5288
44.471
56.6283
-125.772
19.894
-130.423
-0.00571122
55.6002
7.24525
-56.96
-7.45741
2.90185
1.69814
32.7617
-17.9872
-33.0179
41.4965
52.2677
-6.88795
41.5148
-150.711
-29.667
-45.6098
11.6547
-93.2726
42.5516
2.73272
-203.969
34.0619
46.7066
-47.7847
-113.247
32.1549
55.0897
9.36805
58.8859
2.90998
22.993
4.95823
42.3713
0.519706
53.7398
-212.456
7.82619
39.4365
-11.4934
-26.2734
36.9782
-181.678
5.15372
44.6052
61.7206
-9.54792
-1.95472
7.67718
2.22809
34.4637
25.4039
16.5688
-211.096
-3.38487
58.5731
2.42416
-0.301293
-39.3336
61.9264
-13.1002
0.765644
35.2328
32.0297
-7.01798
-9.06305
35.9281
1.85735
-27.2194
11.0961
-41.7684
59.7557
40.2634
27.0641
27.8862
-3.08221
-43.8458
66.795
7.98227
67.0089
-9.12685
37.6476
-0.071059
-139.843
27.3533
19.4584
70.0101
-25.6882
27.5134
24.8065
-64.4291
19.0982
-0.854013
-16.6991
38.5198
-110.185
-25.3998
-33.2353
-5.48014
-12.6492
41.1046
-0.0134421
65.6352
39.2168
-0.372182
-25.5221
-20.5594
8.86842
-201.737
-10.4707
-240.936
55.6289
-0.0231996
0.863952
-88.9412
61.8358
0.0329191
2.85415
64.2279
32.8502
-38.717
-6.98431
27.4326
-0.714582
39.6429
0.669224
-11.4081
10.6623
35.1491
7.70959
31.7018
65.0722
0.935934
-14.9039
36.949
5.0082
-11.6853
27.5738
26.1146
13.8649
-46.8646
2.86676
-2.11204
2.39886
55.4382
8.06919
1.38074
2.39865
6.31434
-6.14531
38.7939
0.193422
38.4285
36.8981
53.3492
-0.61603
-29.3201
66.4012
0.194832
-10.7443
40.0781
-34.1512
43.1297
0.944959
35.1619
-8.79985
-125.232
-35.1449
0.00257528
-168.209
17.795
68.2917
-12.4617
-108.94
-19.3856
39.1653
-3.9564
13.6027
-118.975
67.0614
-44.813
19.563
-28.495
19.8715
37.2321
12.8695
-81.6675
-5.16746
63.29
36.1985
19.1633
35.1443
6.13233
31.0113
32.2694
20.5984
-99.9945
-7.75895
47.802
10.2211
-4.61413
34.8475
-9.0522
-12.2434
-2.87286
41.3862
39.8603
-10.8177
1.9179
-33.7233
-5.17704
2.27505
-12.5366
5.55609
35.0185
-4.30099
-37.7462
46.6466
-2.27837
-14.1029
-5.42658
-23.2079
-10.5736
-32.9166
-2.43787
-47.5544
39.7238
62.0193
-0.315952
-14.1011
64.3407
60.1807
-8.91186
-18.1254
41.68
-186.003
0.952337
-2.06301
-2.48586
22.9798
-156.14
13.0501
23.2704
-21.0617
-8.82837
-48.4974
-9.48005
34.258
14.9895
24.9667
-12.3188
32.1282
58.7934
-430.941
-41.8929
45.2988
17.9027
24.2583
-3.41786
-19.96
-12.7479
-8.77093
38.7149
67.2243
42.2938
-4.03459
-8.11236
37.0643
56.9762
-13.3307
42.8552
37.5839
59.0375
10.7486
-2.1658
1.75154
-9.76565
58.188
1.87428
-3.4938
26.4784
-7.85013
8.30732
-7.87286
-44.2893
35.7223
33.9178
24.6085
15.7875
-313.821
-14.3766
-11.6855
22.8472
-44.2565
-22.7391
1.01649
-56.8601
-199.805
17.4917
-20.0956
-132.399
-199.25
-13.1833
30.9973
-301.033
-23.1837
42.7975
-7.40577
61.915
-10.0471
-136.102
47.8291
55.8259
-0.014401
-1.48347
13.158
38.6664
24.4778
-82.6296
-6.71563
-0.80723
-8.59925
35.0682
0.883304
19.785
-1.76147
40.3008
-243.868
0.960672
-0.133272
47.9026
-34.4878
-277.401
-39.36
61.0442
-4.72292
-15.4887
-350.61
37.5914
-16.4845
-1.46736
7.09798
18.7266
-6.52561
27.7246
-19.0726
30.8976
35.5918
45.9615
14.1642
-1.98903
-13.7089
27.1432
-15.5302
48.4599
24.9426
-7.57961
-4.16064
-8.7572
-7.03876
-0.760208
43.0658
11.6737
5.9673
36.7189
-1.50895
31.452
69.3213
-7.83358
-57.0763
23.8877
-15.8283
-2.62731
-9.22218
-5.9522
38.0529
1.02151
0.252388
0.691998
1.18346
51.6322
-34.2812
-0.166628
37.2467
-13.9917
54.3818
43.3532
52.5914
7.6739
23.8916
10.7606
2.23942
30.6049
38.1601
-8.34558
-11.4813
-202.655
-18.1816
-78.2444
38.2566
-105.055
-52.4214
-55.8009
-8.61601
-0.308716
37.4436
-0.0754202
6.52664
-101.018
36.6617
68.6311
-8.58068
-181.977
19.2974
-1.96373
37.7757
-0.695665
-3.54515
47.3775
-4.56982
65.2647
26.2795
37.0051
-19.4409
50.4675
1.1393
43.4921
-0.201712
-49.1031
-14.4674
-28.5474
25.7648
-7.13313
0.00045098
61.4613
36.6189
40.5441
55.6874
42.0602
47.6733
-11.5088
41.5001
36.4527
38.5507
-10.1857
-17.8396
-28.6691
-31.6517
9.24786
45.1989
-133.671
64.1145
-38.5713
0.909769
66.519
55.6855
-11.5334
-33.806
39.176
17.8246
3.61487
37.3015
-131.74
-20.4969
36.6999
54.5317
-3.41269
44.4151
49.8744
0.0345592
-22.262
49.785
16.1271
-0.703848
-176.639
2.26033
-42.9154
34.3606
27.3909
-0.695504
-3.47339
-22.8904
9.3501
-2.49505
7.43828
56.332
-3.36059
74.1811
38.4245
11.3503
43.3581
-41.1085
-130.827
-14.3778
37.8515
-3.48272
-100.805
-5.33615
15.7892
20.337
-2.7147
30.2738
-156.411
20.8846
-3.22804
-1.87959
31.386
10.8897
51.1876
38.3706
39.7569
37.4172
-11.3391
-40.3205
-34.6055
2.8857
-10.5828
-17.5275
31.0059
-6.86865
-1.41146
-0.551993
1.57425
-115.978
27.3587
15.8403
-0.997757
-23.7536
18.0824
-29.3455
-34.6528
3.19792
-8.14166
44.3033
26.1564
51.6098
-107.645
32.8352
0.81172
54.3822
-3.80705
17.6133
-1.37574
-9.8149
63.5334
64.0983
31.479
23.7464
23.9769
36.6586
64.4778
27.8233
-45.7594
-100.507
6.01336
-34.4089
-300.261
36.6241
37.1938
-4.40841
13.6929
34.5049
34.9705
70.1644
-125.501
28.2855
-149.484
-48.2382
55.2027
-7.88393
32.8514
-7.56324
14.3172
14.1397
72.77
-24.82
-28.4109
15.9888
3.66648
-87.3748
-129.79
-1.13921
41.9633
-3.9943
23.6949
59.9412
54.48
-6.11938
-77.6111
-15.5366
2.93989
47.3055
36.2267
55.0708
22.8928
-349.36
57.837
36.8672
-73.5973
31.0736
38.3875
50.1121
-174.714
-6.82814
0.111051
30.8186
63.5804
19.5303
4.81929
-43.0932
70.3247
-420.402
-40.4114
65.9111
32.0162
-1.40878
31.0265
-5.95576
22.4923
-16.0598
-403.24
-2.57596
-18.2207
-2.62994
-13.3735
-187.801
-168.984
-216.034
8.30309
-139.444
-17.1543
25.2507
34.2001
23.9328
-174.827
9.3938
2.25511
-12.2158
73.6134
26.9778
-31.2099
31.8583
-16.1186
-21.0634
33.9803
33.9855
37.1546
74.3623
0.0699689
-8.07714
-43.8864
1.61501
27.6044
40.2323
-19.8314
58.588
24.7505
39.9046
-6.49575
-6.79195
1.46091
41.2849
37.3196
43.5113
37.273
67.7759
67.6248
-16.5294
32.2648
49.0423
-29.9302
55.3524
-2.77355
66.7302
55.0124
-2.73399
42.6835
16.213
30.7431
1.33091
38.0678
-39.4205
33.9128
15.2252
28.2916
-10.2322
37.6927
-2.32766
8.69909
64.5562
64.4664
26.4001
-115.719
7.53805
7.79192
-7.79094
29.397
57.6531
-116.973
38.8803
37.9793
18.1605
40.8992
-52.4179
-7.8304
-0.768164
68.9193
11.5162
-12.1631
43.6365
-10.6132
0.887792
15.5493
5.58183
27.16
19.2256
-19.673
22.6624
32.6633
27.3078
30.4052
67.6518
55.0519
49.9971
33.1375
63.9502
18.8206
-3.10313
-2.16589
-43.4356
63.4476
-7.0885
38.5818
35.5462
-37.267
20.9979
42.4637
-30.4543
18.4944
22.6505
75.2822
-196.267
16.2881
-4.71128
46.1613
2.37594
-7.49137
62.5384
53.7985
38.2772
37.6519
-17.7408
19.794
-254.028
67.4058
0.197864
72.3194
-1.61495
2.37498
-135.937
24.1449
-135.102
6.04038
-4.64252
9.92077
-10.7573
9.09717
-7.88848
-0.10429
-10.4245
-107.289
-24.2868
-88.8507
-34.3121
-6.03936
-6.84016
-191.706
41.2357
41.8929
49.0645
36.0107
15.0622
14.0691
78.0092
37.6304
-254.747
-0.140955
-8.39761
27.3252
34.0906
58.6031
-40.3836
-40.3538
33.9132
-0.0103286
7.56844
47.817
-114.917
-57.5543
-232.341
68.2385
-6.14385
26.9222
49.6353
0.138468
31.187
-1.99492
-201.047
-161.052
-0.135674
23.5219
47.0371
48.5972
-93.0253
-105.776
28.0463
-363.609
-20.6484
-11.8222
7.51819
-14.6885
-8.38167
-7.67332
-187.699
-43.8331
60.3587
-6.05807
65.3728
-94.5967
-9.04089
14.3007
-2.4529
56.0585
40.3203
45.3168
-20.273
-16.1883
-217.504
54.577
-103.992
26.1447
-2.04824
45.9036
55.4499
-2.44151
37.4492
62.9645
43.479
41.0367
-83.8478
-3.356
15.5836
-32.319
-4.75892
24.6655
30.4531
2.4781
-275.266
7.4529
0.346881
35.4334
30.7348
-22.1547
66.4836
1.92587
0.0281215
2.98128
35.5423
-18.1284
0.0204628
42.7431
-25.1644
1.9553
-13.4146
42.8695
35.8013
33.9424
-7.15606
34.5999
43.8465
44.2536
-15.9215
1.04702
5.46341
33.5719
-41.9747
-92.5311
-14.7056
-59.6643
-5.73124
0.122586
-4.36832
0.631548
-146.625
-30.1728
-134.91
0.216438
-15.7259
10.5864
-102.664
40.0345
79.3634
10.3669
-10.1704
14.55
0.486393
7.30194
0.350731
-19.4704
-47.4985
3.20987
51.9393
0.096171
62.0263
0.283615
34.1455
32.9381
16.6068
-132.806
26.3055
67.6211
-6.6326
35.8474
35.4625
58.4054
3.50813
53.5912
43.4963
-130.696
46.0228
-209.788
-346.639
55.0816
32.0939
-78.7034
0.146346
49.8758
7.63011
-24.9534
0.593195
1.04642
28.4556
18.0477
37.6176
37.6245
32.6121
-74.7354
-24.8457
-14.9479
36.7565
72.4651
-21.5151
-438.596
-127.618
41.0102
2.88809
3.03022
19.744
-0.536042
30.7531
-8.24359
8.03781
56.7901
12.8769
-1.87237
-5.45812
-7.1404
-31.7147
-159.935
-43.4871
-57.8401
44.9547
17.476
-27.3152
59.8967
-0.138927
-182.923
-11.177
-361.879
42.6358
-96.0645
9.2385
39.291
-14.1747
-16.4126
-7.11921
-261.801
-8.54262
40.8265
-136.844
-2.22672
-235.98
35.5462
40.912
-6.17944
49.0029
45.6855
59.8738
60.8415
44.0565
4.57849
67.7295
-249.274
38.6026
8.96388
-90.6533
46.0065
-12.6622
58.6503
15.4885
-52.0691
-116.441
-212.681
40.3707
-14.7824
-15.4355
-11.6414
-29.6912
-1.42186
21.0987
4.05842
29.2672
68.1815
-124.103
-40.3515
-27.827
42.2868
27.6859
-27.7422
78.8278
-2.87003
0.244711
23.0667
-44.1467
34.8357
40.4512
44.9659
46.7411
-0.475622
21.858
36.9843
6.66678
-23.8031
-0.0616046
43.3206
42.9524
54.5477
-6.73392
2.99075
22.8442
20.2381
4.68983
-69.235
29.8986
-9.15584
31.8985
38.7797
-178.087
62.3354
-28.9719
65.588
45.254
-99.8128
0.05754
-0.442921
13.7206
39.6681
-64.2021
53.2694
34.8517
22.3225
0.834202
6.46058
-12.5697
22.3945
-206.009
25.7302
-8.24573
36.0866
-71.3546
-2.86732
-14.6386
46.9549
56.751
17.2533
-65.1965
15.9977
-6.67579
1.9178
18.409
-8.24067
-6.35237
65.5687
-24.3032
-5.92177
-37.6093
-345.784
-8.32528
36.1421
-191.964
-12.877
39.5147
25.3515
40.9411
-12.9922
16.898
65.7972
-78.8874
35.9383
11.2758
-7.95398
9.15224
6.86034
-11.5768
67.2095
44.9946
-9.13602
63.6774
51.0779
46.6289
-342.577
-82.0295
28.355
-56.078
-6.32747
-125.77
-49.6571
-110.909
30.8092
13.5659
24.4623
26.632
-2.96834
31.302
36.359
-396.779
42.73
21.1849
36.4381
-6.76996
-0.509682
-6.58931
-168.444
-9.79373
-14.5813
35.7841
-92.9196
60.8514
-37.3046
35.132
26.3494
-0.539791
7.63685
39.4352
15.4632
5.77843
35.203
1.93361
-1.80516
57.4322
44.5997
-28.84
-104.826
-2.56429
32.5315
-3.49119
20.0899
-88.4706
-3.99996
-6.82367
-7.4112
33.6988
34.7961
3.38526
15.2428
-4.65462
-2.05568
-77.7248
46.4556
-6.22939
37.5961
-0.0284489
31.0406
40.6566
19.6498
36.3887
-0.35071
-8.02506
-0.828655
-90.3117
-12.8567
-28.3269
-5.06318
-9.04358
28.4186
-6.5409
35.5862
-2.23508
-0.595793
-71.4388
-2.75247
40.2061
-169.741
37.6584
8.54076
-47.3033
1.36288
-7.29873
26.9037
36.7726
-1.86879
5.60453
-122.039
47.1776
3.58028
10.9864
-64.7819
48.4188
17.9628
-0.199517
40.5817
40.6724
47.1424
9.57788
46.7328
-81.0679
-0.141611
-7.3867
39.4786
22.2079
8.96758
4.8652
-60.0233
-57.5664
21.9966
1.81057
-65.3053
62.5188
-90.5157
46.9089
27.5793
-15.3578
-3.42433
-1.53842
-6.47068
0.286212
3.5619
34.4272
-0.693875
37.0287
-75.115
20.3049
-4.51942
9.70299
-65.644
49.8747
66.1034
41.5846
24.3771
11.1231
23.5863
-236.266
0.0506529
-7.89141
-7.56129
-31.7625
-117.172
-65.2463
-26.1472
34.7529
39.9212
-145.098
8.02355
42.6938
-27.4402
-70.7325
40.4335
-3.23977
-233.088
0.86336
-12.9131
0.0164481
61.7035
-6.75984
38.2111
-46.6296
-31.3499
-26.9985
38.3291
10.3648
32.517
-35.4422
-33.7147
-1.09084
7.38923
43.7125
33.7222
3.65968
-5.89586
-15.4464
69.0466
-6.37242
44.2856
49.8361
-4.5245
-4.42836
16.8562
-125.228
-58.1105
31.6428
19.9242
37.128
-15.9223
41.2735
0.939151
54.4151
9.35622
32.3426
48.3884
30.0484
5.38091
-44.0147
8.72752
-317.694
35.2421
14.9353
46.8245
-0.112413
59.4766
4.97731
63.8614
-4.89677
49.9545
-9.64325
28.7879
-231.419
35.2783
18.1003
13.9791
56.1498
36.7716
7.96706
-24.5538
21.3111
34.303
-2.73865
-145.42
27.6501
-3.43017
50.0901
-5.52725
60.6846
5.99186
78.6956
60.223
30.4567
28.4035
-237.868
-1.46392
64.8494
-6.99308
-6.29672
-6.91252
63.9451
17.0354
33.4126
51.7193
-33.0063
41.2962
-12.3436
46.9058
0.875997
44.9415
38.9175
55.1262
-3.41984
-329.434
9.72609
-7.57858
17.4846
10.8247
-16.0924
48.9077
56.694
0.329407
15.1507
-10.9838
52.1106
31.4048
35.8208
20.7023
-7.50068
-78.5958
-6.11177
38.3834
-71.8225
-3.2033
-4.008
28.3074
17.5054
-26.4383
67.8796
-5.67445
60.7586
14.649
60.3603
-19.197
7.54675
-0.357036
1.53842
32.2997
36.2842
-5.06374
-3.20262
-5.7491
-3.09994
57.3578
-16.065
-3.66065
-8.4384
-4.00741
16.9227
48.5598
20.3625
-0.329752
0.206202
36.7319
72.5485
-8.25017
-1.08047
38.4409
0.135243
15.7008
-2.26565
29.9355
-3.45288
-121.028
-3.6102
-8.77266
-8.68784
-24.5325
-101.62
-25.4682
-3.62182
28.1369
40.4966
31.6304
70.6895
-251.922
61.9422
-112.909
60.3706
-62.2458
-36.0155
68.437
13.0958
-12.9855
40.4165
-3.50775
43.7636
-10.9136
-222.971
4.80772
-24.0507
-28.9466
-0.0326156
-8.47753
12.0244
49.6801
-66.6164
13.4981
-75.3946
8.94771
-6.40634
-2.65239
-0.418256
-3.90434
-60.1126
47.6004
-1.87535
54.2143
13.926
-178.671
10.383
-38.8635
-0.318496
31.1915
48.3649
69.4033
26.997
31.3675
19.8321
-123.837
67.1191
72.9762
40.9981
-29.639
-15.2553
-327.443
36.0037
26.5514
13.7344
30.1904
-5.81637
-1.79811
-393.945
55.7933
3.24198
0.310624
-8.06086
38.3127
6.52939
77.3412
72.7855
34.1406
-0.150419
11.2664
-92.8678
13.6203
74.0858
7.56211
-0.332279
29.6864
0.258917
5.84364
-11.0004
-16.6429
6.55859
2.35385
16.4011
-0.178751
9.05141
54.5195
16.2921
40.4152
-9.24974
-19.025
66.2702
-93.4773
4.18301
12.3363
13.9543
4.31202
-6.24189
10.0772
-0.052529
5.04799
76.9073
-132.003
-125.686
-37.7789
-27.179
7.10279
13.6123
-5.84169
-98.3555
-0.180497
-124.684
-35.5998
-32.021
4.96846
-0.966382
0.077442
76.7141
-0.0430393
9.73401
-8.92243
4.32409
-111.399
-14.8278
52.8885
37.6267
9.92316
-3.92706
36.2442
40.4613
0.127757
-103.112
-6.70258
52.2981
-27.6353
33.912
-2.86587
59.9046
0.648217
-10.5976
-0.770198
41.2358
-21.6541
32.6977
-33.4083
74.1993
-6.40687
-14.4485
-307.407
15.4592
-7.3333
-37.5277
-6.87059
3.08964
21.1145
-19.1782
-5.56395
-5.51248
5.66253
-25.6146
-35.6872
30.5858
-351.456
33.9999
-7.58938
41.9018
67.1221
37.3624
-121.073
40.0174
2.98594
5.5595
-6.01509
-20.1862
-246.848
-23.1975
-16.3702
21.0031
-4.1204
-27.3776
0.0794693
-203.39
18.9752
36.2692
-39.0396
-6.99206
-17.921
-0.316114
-3.7902
23.166
-76.0135
-8.24709
37.4632
-2.42667
25.4576
-43.3604
-267.356
-112.787
-246.128
74.0087
11.7358
-31.8579
9.66961
63.1367
66.4712
-12.1001
-12.721
36.48
-1.75787
-33.5948
64.1159
20.9687
36.254
78.283
-15.5528
14.7555
2.36892
57.5526
38.7503
41.1822
48.0193
25.0669
0.58906
1.15461
15.0505
7.26716
-146.481
66.7895
-15.1601
-23.0386
-0.0707215
-25.7036
18.9121
-8.24837
-13.8138
7.7699
41.0666
40.529
45.7426
-243.119
56.5996
65.029
-126.93
23.9858
-7.3817
-6.58585
4.68777
19.9826
-11.6558
-27.8211
-49.306
72.4231
-220.829
45.5164
38.2164
52.8465
30.7752
30.3023
-4.02433
0.36522
25.8403
-4.03764
-425.207
-71.0185
2.05575
-5.98059
47.6943
-18.167
-1.33026
4.42362
-105.746
-9.02034
-203.717
33.9801
-12.5772
-12.9702
12.9972
-46.0043
13.2091
-157.024
-7.10071
40.9442
-186.524
66.4764
-0.321367
68.92
0.0459674
-8.67885
4.76867
31.9968
33.5566
-91.4861
-7.33964
-11.6339
3.85612
28.0349
78.7052
52.9239
13.758
-26.3559
21.2501
-2.99272
45.7781
-4.96354
20.3878
-6.73428
-7.23924
-119.12
17.8523
0.445146
-102.624
22.9163
24.65
64.6154
68.2776
-164.546
-245.843
-6.67117
-42.9467
67.8582
3.73765
-18.0265
13.287
25.6588
-7.95478
2.79787
1.69149
-3.21257
37.1547
-6.72343
13.5236
-8.86798
-34.238
-84.2866
-14.5206
-83.6346
-78.5441
43.6485
-14.0739
-9.42456
-13.5634
-1.01806
73.2071
31.4966
34.2513
-13.8413
19.7699
-6.40941
16.5083
8.22472
-5.88867
-93.8898
67.7432
40.3345
-4.71065
-130.095
76.2507
-8.84321
-59.8289
-6.30101
21.5012
-8.2907
-7.18915
57.8446
-6.94051
36.3185
12.0956
-6.18121
2.31908
-39.2466
18.1744
-83.5199
-3.55751
9.67989
38.0716
-8.21022
-88.6572
5.28981
-18.0505
-46.715
-46.009
71.7217
23.0867
-74.4991
20.6188
6.2264
62.9566
22.7059
-116.967
24.854
48.4254
44.3625
-24.7732
32.3509
-3.74324
67.2634
0.407691
38.2201
-125.994
-23.5176
-0.239334
-7.24151
25.7767
10.0819
-128.197
-9.73319
46.3498
-2.44268
-7.90409
54.1832
28.399
52.5819
33.855
-35.2038
0.296583
-2.98667
39.0761
0.00347447
48.9429
32.4891
66.1971
-5.91967
51.0535
22.6509
65.7445
-6.30761
-31.5653
68.1445
-6.25132
32.1732
-240.597
59.7525
65.2772
40.8309
-62.996
36.237
50.6596
-24.8143
14.1568
-10.5959
54.085
-7.06855
-4.79672
-255.583
-268.424
49.5892
21.5092
-382.496
20.3706
65.318
-21.2376
-9.7156
-285.885
-38.363
35.1832
-9.30443
35.0206
36.4326
-394.374
73.3012
-4.11551
55.0528
56.3311
-0.145363
-0.488613
35.3101
-70.6026
-10.8279
35.4412
30.1272
-19.1954
36.767
-6.27135
55.0891
40.837
14.9789
6.01761
45.0026
-5.35155
21.6261
52.5043
6.76671
-0.195391
50.4081
41.9469
-29.4201
-116.991
31.7769
44.0853
66.837
-134.428
70.6164
65.9816
71.471
-5.61806
48.581
-106.635
37.1265
53.6287
50.3398
43.5332
57.8708
77.4853
32.1113
-127.264
7.45045
-82.9958
76.5524
20.9163
-3.43355
-6.45696
35.2963
57.0145
36.5567
12.9853
-6.86693
56.6855
-115.891
42.5633
-7.43216
14.2335
-1.89622
16.3981
25.2935
-51.6664
-44.616
-8.21531
-17.4845
-5.87305
47.466
-11.8318
2.35532
36.0862
-193.257
27.6229
-0.232496
-158.734
-134.403
-113.963
54.9637
58.672
-7.969
15.1342
49.6689
42.9842
0.281551
-37.4589
42.8293
-135.694
53.5523
-128.439
51.7938
22.3872
1.49021
47.941
26.0821
51.4721
13.814
15.657
-21.8201
-127.676
-337.822
-6.12773
50.3957
-59.4897
-9.30831
-57.0853
55.2115
51.165
11.4691
29.8395
56.1362
-77.7642
37.3517
-6.03178
-25.3582
36.9427
-10.793
-237.266
-42.8856
-182.89
-13.7606
-87.143
-7.14394
-375.563
-137.845
31.9795
67.1792
73.6589
63.7673
-58.746
42.9512
-144.492
35.6952
55.5715
2.09034
49.3837
-54.4254
13.4073
-23.6702
-7.28409
53.8517
-28.9037
44.7003
-263.009
-14.6987
-212.947
43.9215
44.2352
36.5222
-223.425
36.672
-9.60841
-345.204
-305.981
12.384
68.0864
-93.026
-13.6899
-8.46224
37.156
35.0868
-4.14925
21.3841
-263.363
56.9021
51.4734
-8.37704
-12.6349
55.9476
-11.6321
-218.382
-4.29025
50.4612
57.3947
-92.6444
29.7706
-8.17237
65.8735
-427.286
-24.1901
-7.64544
62.0727
-4.47667
-20.0373
-3.51932
54.0296
28.2957
53.127
-9.01679
-84.9591
43.5625
75.3159
-143.686
37.0507
-5.60342
-396.982
-4.93637
13.7443
-7.68976
29.2807
-6.49991
22.7375
-5.90107
-30.5252
48.2723
58.8482
36.2435
-65.3118
-24.6253
46.6618
-258.856
16.0098
-27.2956
18.8243
-426.447
40.3136
46.352
-5.79539
44.0985
65.7271
-10.4524
33.4855
43.3397
-268.944
21.486
-20.9946
18.9312
16.4392
28.7476
0.0161284
12.9011
-10.1336
-72.6201
55.616
17.8249
2.5463
-13.4981
-10.4402
38.8444
-326.885
71.264
-199.591
-225.926
-5.77379
48.8828
45.1686
53.3932
-133.082
63.4687
-100.411
33.2328
-0.821642
-204.158
33.9446
17.4458
-12.3248
27.0595
-61.8227
28.9012
-179.44
-12.415
0.131789
-105.176
-135.876
35.7612
64.5811
-39.9915
-116.57
50.3542
-99.0635
58.8487
20.9398
-3.22457
20.5292
37.7189
20.3914
-4.48869
6.19731
-5.1879
7.09939
11.8103
-234.939
-9.9771
1.15997
26.7226
-3.87523
77.1482
42.7154
37.1979
60.0194
3.32052
42.2224
-53.3974
-193.371
-17.0142
36.437
75.9225
35.8239
-34.383
55.2044
38.6348
38.9132
-11.2157
-5.49713
20.191
71.7253
7.04435
-30.561
40.4282
56.7695
42.8772
38.1292
47.2034
27.1364
-7.67809
-29.6353
42.9229
-135.672
-105.141
37.5008
-21.0948
6.68353
15.6285
43.4129
45.3316
45.3859
-6.70941
52.8519
54.4104
6.6084
47.722
41.1485
32.0041
28.5706
29.3062
19.7276
-4.45582
49.0521
47.8605
-0.692308
36.9486
-7.49722
-0.801345
63.9152
49.1208
0.155849
-68.7904
2.14723
51.0258
29.3388
7.13679
-2.04163
3.07291
-12.0787
5.39554
-12.8476
-11.7279
31.3183
-9.16583
-91.1651
-238.463
61.2079
-7.38368
-83.7427
-19.6796
64.6998
-7.591
8.03897
4.64528
-317.41
29.91
34.2648
25.8302
57.8187
30.3287
-3.57802
-108.652
-51.6262
0.182577
43.9164
-0.188234
-115.451
-421.811
-14.0537
-86.6911
-14.8406
-124.38
-9.65901
11.1516
35.9959
52.0952
-12.12
-6.32821
57.7168
42.6367
-84.092
-6.83117
-86.0981
24.4215
-1.32467
20.5287
30.5864
-2.18303
-8.54485
-10.2886
7.83023
-83.2359
-129.113
1.80127
-39.5589
-164.887
-356.727
-35.8832
2.63476
-102.604
19.5816
-122.261
36.6559
32.301
10.8924
49.4824
-74.6513
65.312
-25.5913
-2.2419
-40.007
38.1809
22.9401
-106.914
-145.397
37.986
45.6574
67.5562
-86.1348
-148.563
-54.1942
-8.17275
0.0979806
-227.398
16.2352
-250.978
22.1304
-129.34
32.3958
6.02874
-5.39071
58.4018
34.4494
-26.8287
-1.47948
-57.9002
-122.824
49.7881
73.6845
-111.121
49.0335
35.469
0.0468893
-4.77013
48.0811
45.6378
-139.606
-7.16344
-18.2989
-72.5151
-37.0959
-275.684
-31.6744
24.1009
-5.64248
41.69
-201.725
-377.778
34.3764
-33.2124
-267.832
-2.0278
28.6154
-284.221
-22.2767
-399.915
-188.877
-254.266
68.6912
-159.696
-11.3952
-133.729
41.6392
-246.493
-5.12275
-109.827
-279.605
-23.2054
44.2898
-0.0474038
-229.549
33.1953
0.0310452
-22.1717
-192.347
-268.755
28.9329
32.3006
37.2232
-248.898
59.3278
-16.5207
0.0734554
-0.290649
-64.9339
-34.7868
-247.888
-60.128
7.53542
12.8307
-10.2498
-12.5325
-43.787
36.9763
-192.078
36.645
-188.007
21.4064
-13.3205
-3.19987
-3.2813
79.0474
-1.10121
-304.801
-186.885
-39.1652
36.4679
-5.29781
-2.16694
0.667816
-416.485
-71.9363
-132.869
-258.45
44.2921
-420.298
1.96769
-405.404
-6.66178
33.5204
-0.0508047
18.6943
-21.004
52.0546
-186.859
-33.2978
55.9121
15.4765
-215.542
-12.494
-170.296
-40.1376
-16.1209
50.2011
-12.7633
14.3563
-138.288
-138.005
-362.205
-400.998
-75.7406
25.7789
-9.79845
37.1792
11.9793
-142.4
69.4981
-46.5405
46.9279
58.4604
-322.211
-0.225412
40.8653
35.5281
32.6562
-44.3994
-87.8523
-89.3092
37.1003
7.66118
-43.3742
-250.545
23.4314
45.0255
-10.8671
-0.804272
-2.01201
54.8032
-52.5914
-56.9071
-1.26224
31.2807
1.39204
-2.93338
59.5408
47.4992
-7.60411
-57.346
49.6498
16.8081
-6.57074
37.8818
-18.0379
-67.056
-112.348
-55.423
46.161
42.7997
-6.98622
-27.1634
-5.64557
-0.876072
43.1078
-59.0491
32.792
52.3421
56.3106
-10.8548
37.8454
35.1903
44.6775
47.3085
-8.47348
47.108
-0.0407539
37.1448
20.5642
41.1326
-46.6702
48.2757
46.4639
32.676
23.6775
-29.4468
28.5132
0.035074
-32.1984
53.9103
50.5691
-35.2375
41.3603
-53.5184
-140.277
42.2307
41.3399
-93.1839
-8.0125
-152.168
-47.8432
-33.803
-9.41603
-98.9632
-13.7051
35.4548
70.3532
50.5109
-13.1168
-6.8378
42.0605
16.8416
-4.68071
-67.1493
-23.7078
-53.411
-139.126
-120.017
34.975
-5.94906
13.9726
0.358342
0.266694
-2.83656
0.597377
7.79944
21.5529
24.982
-24.5616
23.1684
-107.612
-150.091
26.555
18.4017
-5.55047
4.82359
24.1748
-3.16672
13.2021
-25.2985
37.5228
31.6727
62.5367
36.9948
-43.7153
-14.4997
-26.049
-21.5495
-1.88679
-1.06766
-9.47125
-37.3384
70.8883
2.16614
-1.09512
58.3222
-8.3804
-27.094
-11.236
-50.3909
-171.165
13.6971
-45.2954
38.9892
-10.9865
-39.3578
-1.27291
-13.0263
-37.469
-4.35098
-18.9792
28.3969
-6.27214
-9.07362
-49.0392
14.5551
-42.9004
40.9392
60.2075
-20.3095
41.6747
22.8027
25.6744
65.4603
-9.99043
21.3284
19.4908
12.9276
56.8186
-12.1345
-8.05774
-4.52927
40.5506
60.3521
-14.2393
-6.6628
-45.8542
-36.8282
17.4125
-31.9415
-82.7363
-22.9515
13.2573
-128.2
7.06356
11.9997
32.2926
4.94141
-126.435
-8.59706
-2.86366
-8.10579
64.0229
71.2467
53.2954
73.3019
32.7171
31.0179
45.6376
39.5969
34.5789
-37.0364
39.7495
-14.3373
-135.105
57.5874
-10.4784
-42.0442
67.6077
-2.98534
-89.1504
17.6774
14.2389
46.5768
-227.354
34.3408
61.6387
-8.55998
-138.605
-65.7477
26.778
-136.565
51.0464
-8.96561
46.6297
36.6879
-8.74855
45.5723
-26.1866
-100.11
-116.971
-23.4056
48.1114
-40.0463
36.5765
-3.84348
-246.205
-5.40006
-4.04296
-37.8153
-26.8571
-213.054
48.1844
4.44032
-241.639
-19.6486
23.3658
8.45274
-44.4224
16.4952
-4.07978
16.535
-269.665
21.4001
7.76649
27.0439
-6.64764
36.3992
23.5289
8.81298
-195.399
74.2708
-36.4363
-361.213
35.8088
31.351
-262.571
-39.2931
-37.5516
25.723
21.2543
-36.0839
-7.83159
-13.2475
74.3386
-6.33721
-9.9114
-5.67497
-22.5208
28.6091
-12.3738
35.4402
23.3277
-144.84
24.6325
-139.462
32.9949
14.4178
39.6213
25.2652
0.0196905
0.314106
19.7598
41.1896
6.12941
1.65582
-284.884
-22.2261
-21.929
31.2886
-324.698
19.5881
-271.81
48.4679
-269.55
-12.9048
51.7061
46.1922
16.7281
-14.1001
-96.5666
42.1441
0.295015
47.713
18.6883
-1.31218
38.2106
10.7756
8.5122
5.69632
-21.3369
-32.003
24.4563
-2.49982
52.9037
10.4337
74.1575
-5.20783
7.69044
46.5928
1.85374
9.29128
40.6515
33.9143
23.7018
-44.3444
-3.22478
36.6499
25.2639
14.3039
-73.0385
-9.17706
-40.9113
-276.099
-23.8982
33.0524
-0.547577
29.7969
-5.62627
62.9105
47.3103
11.9609
32.3049
11.0538
-225.73
34.6664
27.6906
-1.17231
15.9496
47.6678
42.9053
-4.87692
-68.7457
-70.0397
35.0788
18.2022
-0.607446
40.4113
-85.8858
36.7348
-107.475
37.7134
16.1016
-5.0222
14.4619
44.7765
-6.63942
40.0025
51.5427
5.27784
-15.7705
20.4094
1.93627
59.8191
-205.516
54.2292
45.563
-274.456
-24.2549
-0.271561
-21.2771
-144.605
-11.4817
35.2965
54.5431
42.2918
55.6037
24.7855
50.2823
14.1022
2.23811
15.6591
-1.32612
0.851763
31.693
0.293291
57.3554
9.28757
-404.357
25.8998
57.0783
59.7492
-210.339
22.5277
-36.8386
-133.17
17.1202
9.54194
-8.48307
18.5215
59.2168
-201.892
-167.862
-110.412
14.4653
4.14085
3.14178
37.5127
39.4838
-4.69457
-9.07156
-8.3395
-93.0296
34.9015
34.1907
36.8471