/*--------------------------------*- C++ -*----------------------------------*\
| =========                 |                                                 |
| \\      /  F ield         | OpenFOAM: The Open Source CFD Toolbox           |
|  \\    /   O peration     | Version:  2306                                  |
|   \\  /    A nd           | Website:  www.openfoam.com                      |
|    \\/     M anipulation  |                                                 |
\*---------------------------------------------------------------------------*/
FoamFile
{
    version     2.0;
    format      ascii;
    arch        "LSB;label=32;scalar=64";
    class       surfaceScalarField;
    location    "1";
    object      phi;
}
// * * * * * * * * * * * * * * * * * * * * * * * * * * * * * * * * * * * * * //

dimensions      [0 3 -1 0 0 0 0];

oriented        oriented;

internalField   nonuniform List<scalar> 
20045
(
1.24121
-1.32674
0.0855329
-2.70524
0.958315
1.74692
0.937673
4.46542
-5.40309
0.487525
-0.639135
0.15161
-2.03181
1.99543
0.0363844
-1.50181
5.49654
-3.99473
-2.47735
1.1055
1.37185
0.154925
1.05292
-1.20785
1.16358
1.01329
-2.17688
-2.0858
-0.236142
2.32194
1.55246
-1.20201
-0.350444
5.61146
-2.69705
-2.9144
0.864351
-0.90119
0.0368392
-3.22536
2.69893
0.526432
-0.831878
2.61413
-1.78225
-2.69274
0.606937
0.535888
0.975278
-1.51117
2.03489
-1.47965
-0.555242
-4.27651
6.30931
-2.0328
-1.90685
0.164383
1.74247
0.820438
-0.790287
-0.030151
0.273635
0.590715
-0.315541
-2.38969
1.16256
2.60057
-3.76313
2.02193
0.574801
-2.59673
-2.73975
3.90231
-1.92179
2.01632
-0.0945254
-2.93143
5.66185
-2.73042
4.30424
0.599356
-4.90359
-5.38101
2.97117
2.40985
-0.374048
-0.683441
1.05749
3.55052
-2.46382
-1.08671
-2.21087
3.9932
-1.78232
5.66075
-3.18272
-2.47803
-1.35527
1.51019
5.48784
-2.72916
-2.75868
3.61174
0.455391
-4.06714
-0.151423
0.946191
-0.794767
-4.64346
1.8334
2.81006
1.47167
1.2787
-2.75037
0.142422
0.998713
-1.14113
0.424092
-0.565142
0.14105
5.42229
-5.39703
-0.0252572
3.7202
-1.38739
-2.33281
1.72855
1.99165
2.53665
3.07481
-0.515513
2.0346
-1.51909
3.11792
1.37417
-4.4921
4.49322
-0.881473
0.428448
4.56793
-4.99638
3.18573
-5.46944
2.28371
4.39803
-3.24662
-1.15141
-3.03487
-2.13112
5.16599
-0.234748
-0.72653
0.961279
2.04093
-0.488905
-1.55203
-1.68569
-0.346121
0.0278489
3.7869
-3.81475
3.93697
0.215968
-4.15294
2.14746
-4.35833
5.17528
-3.37956
-1.79572
1.73152
-0.705263
-1.02626
2.20088
2.97441
1.61198
-5.00107
3.3891
0.739402
0.0810352
1.94301
0.151085
-2.09409
4.10802
0.459115
-4.56713
-0.1687
0.588252
-0.419551
-1.69044
0.463282
1.22716
2.07088
-0.907298
4.57555
-4.64982
0.0742785
-0.448432
0.279732
-0.348717
2.38965
-0.593735
-2.566
3.15973
0.0499201
-0.293929
0.244009
4.53446
-0.894806
-3.63965
3.39657
-3.36872
-0.0146155
4.54907
1.02572
-1.8576
-1.027
-0.864689
1.89169
1.0145
-2.90272
1.88822
2.54756
2.96687
-5.51443
2.23962
-1.73068
-0.508939
4.38617
-2.77419
-6.00125
1.132
4.86925
0.071098
1.17011
-1.41065
1.63172
-0.221069
0.31323
-2.4978
2.18457
-3.99083
0.182427
3.8084
2.50927
0.436224
-2.9455
-2.10967
1.93654
0.173125
-3.55322
-0.5799
4.13312
1.74895
-0.298237
-1.45071
1.00428
-1.4106
0.406316
-0.412246
-1.9996
2.41185
1.43276
-1.5401
0.10734
3.71346
0.953362
-4.66683
-1.57573
-0.346058
-0.106739
-0.40462
0.511359
2.97127
-1.4996
0.323271
1.16921
-1.49248
3.74938
1.73846
-1.21073
-2.01463
-0.644855
0.538116
-0.7099
4.64687
-0.0817992
-1.32885
-1.50758
1.83086
1.09462
2.98875
-4.08337
2.78195
-4.20973
1.42778
-1.54251
-1.15483
0.996045
0.15878
-0.714992
0.885136
-0.170144
3.07566
-2.18761
-0.888047
-1.21081
0.976063
3.21794
-5.3621
2.14416
-0.413318
0.795072
-0.381755
0.13214
-0.853602
0.721463
2.86945
-0.847525
4.12677
1.53398
-2.84372
2.24998
3.44958
-4.88988
1.4403
1.29754
0.737353
0.620694
1.11083
-1.90317
1.53302
0.370156
-1.86151
0.247311
-1.42579
1.17848
3.16713
1.2309
2.75375
-3.49949
0.745734
3.99107
0.465727
-4.4568
-5.19722
3.95634
1.24088
-0.715466
-1.86953
2.585
4.65022
-1.48309
-0.202025
2.23663
-0.779105
0.266849
0.512256
-0.131971
-0.0132486
0.14522
2.84524
2.02928
-4.87452
2.96342
-2.87747
-0.0859455
-1.00709
0.416916
0.59017
-0.808938
-0.345888
5.48855
-2.03897
-1.5794
1.6779
-0.098501
3.15757
-5.43309
2.27553
0.877759
-3.91263
2.84226
1.06194
-3.9042
3.17249
-2.15799
4.97679
-0.619087
-4.3577
1.54279
-4.99535
3.45256
6.44922
-4.08453
-2.3647
-0.459508
1.04764
-0.588135
-0.0623223
5.1285
-5.06618
5.2741
-0.969857
-4.14057
0.138508
4.00206
-2.31305
2.04857
0.264477
4.97732
-2.42976
0.838562
1.40106
-3.11408
3.86076
-0.746683
-3.64329
4.58096
0.0655247
-1.0115
0.945972
0.40437
-0.560064
0.155693
-0.0983963
-0.896495
0.994891
4.85204
-0.904779
-3.94726
6.56572
-3.22452
-3.3412
-1.08333
0.984933
1.96681
-3.46267
1.49586
0.521979
-0.0978868
-3.95652
-2.3727
3.37006
-0.997355
-3.39703
2.51073
0.886299
-0.0878755
-0.100496
0.188372
2.3047
4.14453
-0.269117
0.137145
-0.839758
0.0606532
-3.51082
0.396737
-3.73325
4.68535
-0.952102
-3.2136
3.73836
-0.52476
-2.96984
-2.08921
5.05905
-1.00737
-0.227766
1.23513
2.23752
-2.35279
0.11527
4.38037
0.455619
-4.83599
0.0695561
-3.69825
3.62869
-1.74454
4.5868
0.936784
-2.65988
1.7231
-2.08322
5.30115
-4.1002
2.62922
1.47098
0.43432
-0.655486
0.221166
2.08719
-5.95304
3.86585
-4.60394
1.67252
-3.03957
-2.00358
5.0367
-3.04334
-1.99335
-1.28304
1.42546
0.840468
-0.89618
0.0557122
-3.82369
-0.828209
4.6519
-4.12958
5.72746
-1.59788
4.4182
-3.12332
-1.29487
0.479323
-1.37086
0.89154
-1.18525
-2.2933
3.47855
1.08507
0.467383
-2.20358
1.48811
-3.47754
-1.13404
4.61158
0.58222
0.138223
-0.720443
0.634248
-3.00695
0.619067
-0.993115
4.307
-0.315929
-0.790989
0.639566
-0.886312
1.05124
-0.164923
-0.0378319
4.88987
-3.75435
2.56909
1.45367
-0.0703725
-1.3833
-3.38734
0.636305
2.75104
1.5089
2.9093
6.17272
-4.08553
3.54042
-5.9053
2.36488
0.940274
-3.57293
2.63265
0.119376
-2.02622
-2.37611
3.47073
3.2693
-4.77111
1.47636
-3.48054
2.00418
-5.86329
3.33992
2.52337
-0.100461
-2.00921
0.899907
0.64957
-1.54948
3.6441
-1.1579
-2.4862
1.7051
-3.55792
3.4956
-1.22618
-0.353223
3.08818
5.44807
-4.5062
-0.941873
-0.044509
-0.655169
0.699678
3.34594
0.533438
-3.87937
0.90998
0.180319
-1.0903
-0.666135
3.13402
-2.46789
-1.99957
2.31279
2.75581
-1.81903
-0.443625
1.07909
-0.635462
4.55301
-1.39544
0.542231
-0.0625394
-0.479691
0.731602
-0.00560051
-0.726001
-0.666881
0.697987
-0.0311053
4.98056
-3.1219
-1.85866
1.11428
-5.24386
-0.742946
0.0760648
-4.34117
1.46266
2.87851
5.54247
-1.54928
1.21676
-4.95001
6.35523
-2.90444
-3.45079
-0.0886742
0.670894
3.94829
-1.63437
-2.31392
-3.05432
0.716764
2.33755
-4.92659
4.96459
-0.0380007
1.24601
-3.95328
2.70727
-0.421663
0.107861
0.313803
-2.34446
3.13551
-0.791048
-0.508741
0.124643
0.384098
-0.725979
0.312661
-0.86243
0.147438
-2.8418
-1.36793
2.04857
-3.70546
1.65688
1.81615
-0.905643
-0.910511
1.97513
1.57539
3.1008
-1.62444
0.0254751
0.378895
3.40938
2.13309
-2.40016
-0.00666421
2.40683
1.17177
2.77652
1.84547
0.76866
1.119
0.697158
-1.38263
-0.0848516
1.46748
-0.288555
0.722875
-3.32442
2.65829
-0.911118
1.14925
-0.238134
-4.45919
4.23309
0.226101
-1.78879
2.8829
-1.09411
-1.02392
-0.510594
1.53451
3.78065
-4.16017
0.379522
-3.59424
-2.26904
6.43483
-4.10752
-2.32731
-0.519412
0.474903
4.39517
-3.14916
-1.78726
3.83583
-0.547762
-1.15632
1.70409
3.883
-0.654974
-3.22803
6.53563
-2.01641
-4.51922
-1.87271
1.32495
4.05022
-2.37502
-1.67519
-0.823134
3.88503
-3.0619
3.50027
-4.21854
0.718269
1.36658
-1.67771
0.311129
2.1513
-0.303739
-1.84756
6.15949
-4.96631
-1.19318
-2.89868
-2.29854
3.70892
1.73916
-4.03014
-0.429047
-0.0733981
0.805
0.566787
-3.63278
3.06599
0.0174331
0.823035
-2.70428
5.54952
1.94389
3.03666
5.45432
-3.31453
-2.13979
-5.18406
4.05002
3.66276
-6.00018
2.33742
-3.11399
-0.201784
3.31577
-1.0976
-0.880181
1.97778
3.0082
-1.04139
0.273235
1.18044
2.45111
-0.0952279
-2.36859
-3.50107
4.79182
-1.29074
-1.04739
0.161079
-0.373467
-0.0701586
0.623689
-5.55028
1.07133
-3.0709
0.669528
-1.16919
1.60112
-0.431931
-0.0469848
0.53451
-2.50764
1.85051
0.657126
1.6783
1.39735
-2.35931
3.39861
-1.03929
2.47194
0.491477
-3.16964
3.73642
2.79843
-0.289162
-0.968819
-2.41852
4.72939
-3.53441
-1.19498
4.56341
-4.195
1.20619
2.98881
3.89804
-4.27121
0.373171
-2.1265
1.71425
-0.606013
-0.401073
-0.537128
-3.0161
1.35507
-2.62803
1.27297
2.05704
1.99318
3.67623
-5.63618
1.95995
1.05806
-2.59113
1.53306
-4.84229
0.85146
0.0368692
1.71208
-2.75663
4.23714
-1.4805
-1.26197
1.5144
-0.252434
-1.93108
-0.546266
-0.6139
-1.08504
1.69894
0.451907
0.00929199
-0.461199
-1.62898
-0.684068
1.88021
2.22187
-4.10208
3.72158
-2.54981
1.40496
-2.17973
0.0532303
2.23213
-1.17407
-3.24401
-0.856193
-0.0701091
-0.482271
0.552381
4.80091
-1.68298
-2.22528
3.68679
-1.46151
-0.568848
0.648582
-0.0797342
3.70575
-0.0616549
-0.83216
-2.80062
-2.45413
4.53934
-2.08521
3.21158
-5.66074
2.44916
2.89024
3.54459
1.70911
-1.40535
-0.30376
0.445967
-3.55995
3.37017
-5.0912
1.72103
0.578619
-0.528699
-0.337834
3.09159
-1.36316
2.43449
-2.65199
3.59227
1.09838
-5.37489
-4.42237
2.30947
2.1129
3.07787
-0.443535
-2.63434
4.61366
-0.833008
-2.04109
-2.65282
-2.31762
2.33242
-1.61006
-0.587824
2.19788
1.58407
-1.41968
-3.47183
3.134
4.31599
1.10629
-3.85105
1.62578
5.26678
-1.55786
0.572855
0.0135322
-0.586387
0.0754081
-3.05933
2.98392
-4.52078
0.865934
3.65484
4.226
-4.226
-1.04798
3.86841
-2.82043
1.71006
-4.06937
3.41
-1.88026
-1.52973
-4.56628
4.70138
-0.135095
1.63366
-0.230827
-1.40284
1.30871
-0.56051
-0.748197
0.506128
-1.53005
-1.81208
2.20622
-3.99347
-4.15766
4.86977
-0.71211
-1.40663
3.28684
-0.228473
-0.0734939
0.301966
-0.539708
0.890557
-0.350849
-1.88455
2.00392
5.25161
-4.28302
-0.968585
-0.394644
-2.61619
3.01084
-1.12139
1.23522
-0.113825
0.571978
-1.3701
0.798117
-5.09683
2.05193
3.04489
-0.44505
-0.194085
0.190458
0.382397
0.512793
0.53307
-1.04586
2.70734
3.45215
-0.720321
0.491848
-0.269421
-1.41563
1.68505
-2.42522
3.87584
-1.45062
-0.164145
0.625294
-0.461149
2.09999
-0.994488
4.50905
-1.79036
-2.71869
0.047248
-2.04685
0.353765
4.02661
2.05937
1.49477
-3.55414
2.30855
-2.04086
-0.267697
-5.05418
0.913604
-2.07712
0.80141
1.27571
2.15873
2.67151
-4.83024
-3.08207
2.88029
0.329158
-4.52895
4.1998
-0.616503
1.09583
0.374929
-0.568818
0.193889
0.0880366
-1.47066
0.858947
-0.179166
-0.679781
-3.31481
-1.02636
3.05831
0.714017
0.31376
-1.02778
-0.58064
0.0117923
0.846136
-3.4869
2.64077
1.1095
2.64736
-3.75685
1.72217
-3.54778
4.3207
-0.772923
-3.57568
2.75254
0.822388
1.19393
-2.02221
-1.37483
-1.27914
0.347052
0.932093
-4.22142
1.7962
3.32393
-3.71858
2.02679
3.23999
-1.43192
1.46186
-0.0299397
1.91236
-4.45925
2.54689
0.709779
-1.31911
0.609329
2.70123
-3.53339
-3.16278
-0.050815
-1.51156
-0.178882
0.245221
1.43893
-1.68415
1.65737
-0.117039
-0.106954
0.223993
4.52921
-2.37048
-2.84051
2.39489
0.445615
1.30032
0.850413
-2.15073
-1.73908
1.12258
-1.05005
-0.22909
2.10078
1.30922
-1.15759
-3.73229
0.766796
-0.836905
3.06801
1.98114
0.817298
-4.30301
4.73146
0.563228
-2.30575
1.74252
-0.45221
-4.11587
4.56808
0.0737246
-0.124094
0.0503696
0.699565
-1.70693
-0.819836
4.32011
5.04334
-3.50055
-2.12215
-0.385488
0.0891466
-2.05642
1.96727
1.98234
-4.95218
-0.586744
-2.3858
2.97254
0.133873
-0.75253
0.618657
-3.24697
0.253242
2.99373
4.71216
-3.33799
-0.113153
0.413785
-0.300632
-1.05834
-0.0630475
0.86808
1.75288
-2.62096
0.698074
-0.855365
0.15729
3.29098
1.80035
-5.09134
-1.93679
5.65026
0.450553
0.00135414
-1.24897
-2.67031
3.91928
1.8853
3.60325
4.55648
-3.44698
-1.68754
1.07364
1.7964
0.354893
-2.17663
5.83939
0.74632
-3.87829
3.13197
4.54628
-0.701486
-3.8448
-2.30233
3.48173
-1.1794
1.99301
-2.09683
-2.23248
4.32932
-1.40966
0.84376
0.565897
-1.46167
-2.38469
3.84636
0.301975
-0.841683
0.126907
-0.214782
2.53904
-4.00071
-3.5164
-1.05597
4.57237
-0.361225
-2.34127
2.70249
0.89123
6.23058
-6.39321
0.162637
1.0336
-0.773178
-0.260418
0.0503657
-1.48229
1.28151
1.13034
-1.52477
0.427172
-3.88103
4.94515
-1.06412
-0.00448051
-0.906637
1.56521
1.60728
-4.21739
-1.17963
-0.234391
1.89226
-1.65787
2.60609
-0.624951
-0.993023
1.08966
-0.0966371
-0.557146
0.0484042
-5.75284
2.71327
4.54959
0.946951
-0.670368
1.24235
-0.962212
2.26253
3.93373
-1.72751
-1.0162
0.0231779
-0.458146
-3.01368
1.06772
1.12055
-1.05503
-4.60226
0.081487
0.0191888
1.03805
-0.328276
-4.87996
3.1672
1.71276
3.86144
0.714106
0.913218
-0.284685
-0.628533
1.33081
-1.24962
-0.081183
-4.34234
1.61318
-5.03828
2.58415
-1.0165
0.987618
0.0288795
-0.0748376
-0.172353
0.24719
5.33555
0.0361287
-5.37168
0.937202
0.0635817
-1.00078
-0.659028
-1.24415
1.0829
-0.0786183
0.861687
-0.985324
0.123637
1.86547
-0.300905
-1.56457
-0.321649
1.18334
4.15835
-3.20499
-0.155569
-0.669998
0.825567
-4.99756
1.11652
-0.280557
-0.0918824
-0.552973
-0.573834
1.28785
-0.0953538
0.120829
1.1852
0.745315
-1.93051
2.0082
-0.0651911
2.2136
-1.65038
1.06229
-0.930153
0.317587
-1.57955
3.02366
-0.159909
-2.86375
2.58602
-0.119133
-2.46689
-3.66419
-1.33116
0.441616
-0.711648
0.270032
2.01795
-2.16608
0.148123
5.33507
-0.114487
-5.22059
-0.096908
-0.911003
1.00791
-2.4067
3.18501
-0.778315
2.47527
3.14079
-5.61606
-2.01039
1.30513
-1.28376
2.07339
-0.789626
1.01889
0.465586
-1.48448
-4.91156
2.36049
2.55108
-0.977143
-0.00818084
-4.21809
0.701691
1.44953
-0.914117
-0.535416
2.4064
-3.04105
0.634651
-0.379082
-0.947661
0.919301
5.31128
4.07439
-0.651223
-3.42317
-4.22988
0.682108
1.66275
-2.63157
3.38863
-5.39203
2.00339
-0.458296
1.3582
0.133373
-1.89772
1.6283
-0.758508
1.00582
-0.619184
-3.7268
4.34598
1.78409
2.61107
-3.54012
3.76215
-0.222033
-1.20637
1.45159
-3.10994
-1.23295
-0.564986
0.619253
-0.0542665
1.00496
-1.55264
0.547685
0.186165
-0.0954669
-0.0906976
-0.36524
2.77164
-4.06336
-0.527224
4.59059
-3.77365
-1.17753
4.95118
2.35873
-1.73445
-0.624276
-1.11336
0.131383
0.981975
-0.732315
-1.07072
1.80304
-4.88314
0.260311
4.62283
0.14615
0.894977
-1.04113
3.92816
-4.47328
0.545121
-2.60895
2.95111
0.147853
-3.09896
0.0243237
-0.58931
-0.914548
-2.10262
3.01717
3.02575
-5.10897
-4.7422
4.11906
0.623145
0.844139
-0.146064
3.21627
-1.65106
-0.322575
-1.32162
1.6442
-0.0508641
0.851617
-0.800753
-1.30674
4.64534
-3.3386
3.21494
-0.499471
-2.71547
4.94401
-4.76651
-0.177495
3.96737
-1.53087
-2.4365
0.232009
-1.10145
0.869445
-1.36832
-0.057466
-4.72873
4.20172
0.527011
0.29722
-5.02595
-1.43663
2.78758
-1.35095
-2.95661
-2.00971
0.899311
-0.797054
-0.102256
-3.92154
-1.07601
-0.86083
0.556064
0.304766
1.09736
-0.187383
-4.50915
4.29162
0.217529
-1.05135
-0.275361
-0.0185679
0.99762
-0.0604177
-2.99405
0.649592
0.607631
-0.759888
0.152257
-2.35335
1.60673
0.746624
1.69745
-0.0637844
-1.23606
3.3734
0.332351
1.74812
0.37976
1.23027
-1.61003
-0.515678
2.7532
-2.95188
1.91106
1.04082
-0.80209
-0.175053
4.34389
-2.5598
3.76929
-1.85693
-1.16001
-0.79413
1.95414
1.78723
-3.88475
2.09752
2.69422
-3.05544
4.86199
-2.11794
-2.74405
-0.0229114
-2.49587
-0.456013
-4.12485
4.81638
-0.69153
0.455148
-1.43724
4.97766
-5.11603
1.19448
0.164396
1.20219
-0.502281
-1.74198
0.719971
-0.0219839
-2.43964
-2.53023
5.82165
-2.42509
1.50333
0.0258477
-1.52917
0.335834
0.972873
-3.27908
-1.82
5.09908
1.39067
1.61752
0.0131337
-0.663105
0.649972
4.05166
-0.18064
-0.361981
0.542621
2.9325
0.0911675
-1.79168
-4.96087
0.80321
-1.03799
0.0555841
0.982405
2.80309
3.55214
1.39653
0.0833294
-1.47986
4.76465
0.179355
2.91329
-4.08664
1.17335
-4.10215
-0.0968621
4.19901
-3.84152
4.94846
-1.10694
0.608922
0.00481017
-0.613733
-1.99382
5.01957
-0.426673
1.19825
-0.771581
0.231369
-3.77149
0.956243
0.00610359
-0.962346
-4.64027
6.0516
-1.41133
-1.17734
2.59661
-1.41928
5.81025
-2.55865
-3.2516
-0.0132809
-2.95576
2.96904
-0.591383
0.0225651
-2.47121
4.94648
2.62488
-3.67286
5.51629
-2.30471
-0.857784
0.702215
-4.30834
0.206184
5.98872
-2.31249
-0.149745
-5.8515
1.1225
-0.12379
1.3853
2.55006
-3.93536
2.68065
-0.612611
-2.06804
3.5583
-4.78833
1.23003
-0.857235
0.0526774
0.804558
-0.968607
-2.30035
3.26895
1.71586
-1.39827
-2.13961
0.87131
1.2683
0.588273
1.45274
-2.04101
0.391626
0.507685
-4.3421
5.0582
-0.716102
0.207478
-0.133753
2.20332
0.956938
-3.16026
2.67966
1.97724
-4.6569
0.697419
2.38045
-0.125644
5.10243
-0.0214578
3.91923
-3.89777
-0.172278
0.00813338
-0.229405
0.676908
-0.447503
3.55749
-3.49005
-0.0674358
2.2058
2.65619
1.17771
-1.35407
0.176367
-1.40407
3.97622
-2.57215
0.0803524
0.715138
-0.795491
1.97866
-3.65515
1.67649
-3.22892
-1.54556
4.77448
4.09522
-0.749282
1.43059
1.25006
-2.25652
-0.659624
2.91614
1.38827
-4.00447
-1.66551
1.33588
0.329633
0.909991
-0.404655
-0.505337
-0.238175
-0.353208
-0.450057
4.35154
-3.90148
-0.68259
5.25052
3.81416
-3.10194
-0.712222
3.16627
-2.73004
-2.59326
0.810598
1.78266
0.496843
-2.37711
-0.801611
0.667173
0.134438
0.266735
0.646483
0.758254
3.65967
-4.41792
0.977757
0.887717
0.640209
-4.41386
-2.07368
0.88182
1.19186
-1.51323
-1.16555
2.67878
2.2718
-1.0866
-4.1941
2.78747
1.6967
-1.25639
-0.440315
-2.25729
3.81433
-1.55704
-2.12757
2.17482
-2.02329
2.6645
-0.641209
-2.93048
4.24753
-1.31705
-0.107052
0.998937
-0.891885
0.225689
-0.300527
-1.50187
-3.01619
4.5545
-1.53831
-2.68216
3.31846
2.45629
-2.43625
-0.0200411
0.209604
-0.998717
0.789113
-5.91185
4.20301
1.70884
-0.226108
0.409878
-0.183771
-0.0622086
3.17122
-4.47796
3.61213
-1.82491
-1.87341
-2.54896
-3.50434
3.48288
2.50422
0.00651177
1.92312
0.614487
-2.53761
-1.5489
1.42613
0.122774
1.34298
-1.16426
-0.178718
0.28789
-1.91102
1.62313
-1.06378
2.51798
-1.4542
-3.74446
-1.16945
4.91391
0.866374
-0.65677
3.08099
0.476505
-4.0507
3.18346
0.867246
1.92929
-1.26744
-0.661856
0.0279002
0.813844
-1.08219
0.26835
-3.21153
-1.88694
2.17483
0.622056
0.941739
-0.70973
1.42885
-0.423893
0.583328
-2.45286
0.136419
1.29635
-1.93583
1.64913
0.286707
-2.87821
-2.2562
5.13441
-0.261395
-1.99512
-2.52967
-0.42326
2.95293
0.628704
0.824738
-1.45344
-0.231949
5.48211
-3.49185
-1.99026
0.871815
3.20258
0.35076
2.03307
-1.9682
-0.064879
-1.54039
4.16721
-2.62682
-2.79331
-1.22885
4.02216
-2.1374
0.853637
-2.03354
-0.55972
5.77067
-2.33811
-3.43256
-0.433302
-0.464657
0.89796
1.94298
0.257583
-2.20056
-0.757602
0.903752
0.125152
-0.274004
0.148852
1.02365
-0.126749
-0.95658
-0.0621223
3.44997
2.32071
-2.16544
3.99884
-1.72875
4.69992
-0.82357
0.390268
-4.2347
1.44139
3.47596
-3.02999
-0.469204
-2.98748
0.580787
1.09396
-2.53059
3.50543
-3.43002
4.03442
-0.136381
-0.924966
-0.485629
-1.27091
-0.475129
1.74604
-1.3777
-0.162408
3.59846
0.674821
-4.27328
0.189917
-1.23807
1.04816
0.0766956
1.36633
-4.19804
2.83171
4.30285
-0.374686
-4.33247
4.57
-0.237528
1.05482
-0.591534
-5.28716
-0.624696
-1.59349
4.37812
-0.176397
1.67643
5.49481
-1.98065
-3.51416
-3.14261
-0.187112
3.32972
0.877481
2.55211
-3.42959
-3.44366
0.196694
-0.849224
-0.652855
1.50208
-2.31667
3.06299
0.64739
2.5373
-3.18469
-3.31753
1.84192
1.47561
-4.62745
0.510317
4.11713
1.23796
2.37418
-1.05699
2.77753
1.18984
-1.38378
-0.693339
3.65886
-4.27795
-0.947211
-1.53823
2.48544
-1.82078
-0.189611
3.29793
0.246471
-3.5444
3.05106
-4.77981
-0.0135414
-0.408122
-3.39685
4.40422
-1.00738
-2.93425
2.0197
-0.0690928
1.26968
-1.20059
-0.28437
-1.15228
1.43665
1.38642
-0.686855
-1.17186
2.8346
-0.0217136
-0.994784
-0.697938
0.722262
1.32564
-1.14532
-0.205395
0.313255
-0.89356
0.850284
0.0432757
0.905206
-1.04266
0.137455
-3.45032
2.55551
0.613009
-3.14268
-0.0321335
-1.2509
0.0737439
2.74889
-2.82264
1.48251
-1.56736
1.04899
-4.06582
3.01683
-1.46601
3.23685
-1.77084
1.08436
-4.58543
0.160365
-0.115931
-4.62627
2.40017
3.42148
-3.73358
-0.460515
-3.12462
-1.07037
-1.89435
0.809307
1.32476
0.631448
-1.9562
5.64949
-2.84639
4.39868
-1.02851
-1.11119
-0.676157
1.78734
-5.39137
2.22177
3.16961
0.514231
-1.71624
-0.107835
3.05894
0.724801
-0.451166
-2.44842
0.821975
-1.24865
-1.48799
0.895592
0.592398
-0.573145
4.1716
0.973363
-0.435739
-0.537624
3.90742
-6.29779
2.87912
3.41868
1.13492
0.889351
-2.02427
3.03989
-1.32931
-1.71058
-2.43458
1.25724
-2.05249
0.0590605
1.88392
4.41422
-4.86643
1.86061
-0.841714
-1.94114
3.32941
-4.73066
3.40815
1.32252
2.15571
-3.81246
1.65675
-3.45739
3.62991
-0.172524
2.05567
-2.57135
0.0526308
1.16341
1.19532
0.367206
-3.26992
1.04121
-4.36679
2.15216
2.21462
1.14128
-4.28389
3.63422
-0.220058
-2.83426
0.56856
1.27
4.96788
-1.61186
-3.35602
-1.82836
1.25242
-2.76565
0.687983
-4.68376
4.49665
-3.83531
1.73848
2.36868
-4.70733
1.31531
3.39202
-4.19798
2.84049
1.35749
-1.23276
-0.479155
0.613028
-4.71774
3.32392
1.39382
2.99278
-4.9866
-4.24453
-0.0975641
5.39842
-2.00979
1.55719
0.466272
-2.02347
-0.113746
-0.685075
0.798821
-0.406747
2.32451
2.59176
-2.1708
-2.53653
0.851066
0.864795
1.13368
1.69141
-2.82509
1.69474
-1.04517
-0.193916
-5.30021
5.49412
-1.52932
2.07093
-3.81547
-3.0896
-2.04632
5.13592
1.14026
-1.43849
-3.16137
0.972896
2.18847
-0.037374
0.111421
-0.0740469
4.11947
-4.73866
0.203827
-3.60067
2.11838
1.64061
-3.75899
0.515541
0.987785
-3.84668
1.07517
2.77151
-4.85894
1.63003
2.66975
-4.21014
1.87353
-2.82074
0.0347347
-0.0721087
-0.16334
4.70962
-2.95311
3.62332
-0.670211
4.67083
-0.0139087
-4.65692
-3.33653
-0.0609179
-1.10827
0.200235
4.02576
0.504104
0.144478
2.33825
-1.78341
3.49347
2.41009
0.36404
0.978937
-4.23268
-0.276475
-4.16269
1.83236
-3.46673
0.757737
0.878338
-1.63608
4.04165
0.211393
-4.25304
-0.448906
0.453717
-1.55606
-3.48222
-3.72039
-0.55082
-1.82475
4.87581
-1.59142
2.11875
-0.527337
-4.24896
1.37075
-1.27439
2.40807
-1.82621
-3.05375
-1.50218
-1.49865
1.61392
-2.03018
-0.323168
5.05331
-0.675187
2.76591
-1.09376
-1.67215
0.58481
0.494277
1.1609
4.80054
-4.47138
0.0561275
-1.02161
1.42793
-2.3733
2.36663
-2.0734
-2.29645
0.967204
0.777125
-1.74433
-4.29179
0.0657862
-0.564351
3.62468
-3.06033
-0.359607
-3.97286
-3.38191
3.91535
6.24352
-2.74068
-3.50284
-0.691475
1.49289
3.89482
-2.14143
-1.75338
1.15547
-1.28222
0.924999
-1.1544
-0.836415
0.10132
0.735095
-0.583564
2.50669
-2.08683
5.07961
-0.170171
-0.626883
-1.25606
-0.289717
1.54578
-0.105134
4.22461
0.407126
1.21309
-1.62022
-1.75319
2.62127
2.02287
1.95335
-1.55557
-0.518108
2.3471
-0.852532
-1.49457
-0.224844
-0.0203189
0.245163
0.611101
-3.80568
3.19458
-4.36703
0.646642
0.991237
-1.73558
3.56793
-0.0441177
1.19959
0.504392
-2.09581
-4.81748
2.49986
-4.76567
1.54115
-2.04858
0.164033
-2.00026
-2.64951
4.64977
-4.5605
-0.70836
1.61308
-0.90472
4.43883
-3.30683
3.69747
-2.81999
0.770426
2.4786
-3.24903
1.03389
-1.88311
-3.42275
-0.932323
4.35507
-0.495048
1.29365
-0.798603
-1.89054
4.29536
-2.40483
3.82172
-2.36694
-1.45478
3.86416
0.114174
-3.97833
-2.60419
-3.69361
-1.53035
0.0187836
1.66388
2.98634
-0.0809632
0.382173
-0.30121
-3.10053
-0.746143
3.48502
2.82429
-2.45017
2.91171
-0.461532
-0.538032
0.176052
0.351967
1.68431
-2.03627
0.462412
0.510951
-0.515155
-4.20259
-3.90101
1.50124
0.195459
-0.651968
1.27104
0.275793
3.4969
-3.77269
-2.37562
-0.618439
2.74162
0.979967
0.329015
-1.13795
-1.34605
-0.656149
2.0022
0.487709
-1.671
1.18329
1.53016
1.35274
0.743786
3.80034
-1.7433
4.19486
-2.12393
-0.454285
-1.13635
1.59064
3.50891
0.37612
0.169839
-3.06432
2.09571
3.39244
-3.49758
-2.52152
-2.23218
4.7537
-2.99719
-2.39418
-4.92864
5.16076
-0.232121
-0.156113
-1.83773
1.3626
2.56672
1.23362
0.104103
-1.04093
0.936831
-1.51024
-3.13958
-0.535029
-3.5437
4.07873
2.4337
-1.04303
-1.64062
-0.0248922
2.68908
-4.24513
2.21342
-1.63862
-1.34245
4.9165
-3.57405
2.45335
2.35899
1.31014
-3.66913
5.10758
-3.01604
-2.09154
-1.77959
-3.34626
5.46601
-2.11975
1.08691
1.67899
-1.25472
1.2106
2.00348
3.80677
-0.937975
0.824229
0.0340435
-0.151082
4.51387
-2.48459
2.09891
3.55058
-1.77732
0.887302
0.890016
1.01173
-2.17174
3.5035
-0.20557
2.57877
-1.02158
-3.1757
-0.544513
3.72021
0.834493
-0.180066
-0.654427
0.585561
0.448035
0.671321
-4.51284
-1.23313
1.32117
3.33801
-2.89683
-0.441181
0.704812
1.64229
-0.636808
0.352123
1.04911
1.08353
-2.13265
-2.47114
4.6186
1.36173
-2.6271
5.46278
-2.83568
-1.38698
1.97525
-2.25211
-1.06542
5.00077
-2.46542
-1.56472
1.33477
1.70511
1.31372
-1.34586
-0.794345
0.687292
-1.30812
-0.582667
0.00202667
3.49778
-0.649122
3.75629
-3.10717
-0.871013
1.38381
-1.9085
0.586874
-1.4271
-0.103243
-4.10103
2.85206
1.01934
1.05405
0.194313
-1.35967
1.16535
1.35665
0.27507
3.97069
2.05953
-6.03022
-0.377597
-0.109516
0.487113
-1.48832
-1.35219
4.10559
2.13793
3.61846
-3.34267
-5.52289
0.669888
0.700156
-0.842076
2.14249
3.92609
0.43696
-4.36305
1.59839
-0.115887
-0.169361
-1.45006
-0.327254
-2.36904
-2.12178
2.61863
-0.671425
3.06632
2.62749
-2.67604
0.0485562
0.827292
0.0229926
-0.333191
1.07862
-0.173416
3.59859
0.950407
-4.549
-1.71732
0.22933
-0.964258
0.565837
0.398422
-1.48056
0.00534491
1.47522
1.65324
2.59222
-4.24546
1.02538
1.24641
3.24001
-0.0882452
-1.12257
2.34862
-4.13203
-0.391579
0.575895
-0.184316
-4.52064
2.51706
3.87639
-3.11175
-0.764635
0.078992
-0.612289
0.533297
3.99971
-4.44977
2.69079
-0.257091
1.50838
2.18909
-0.504999
-0.0776676
0.122203
0.33555
-0.457753
-2.72575
-0.511446
4.99532
-2.5507
-2.44462
2.71774
-0.363095
-2.35464
1.78366
-3.12052
1.33686
0.143202
2.29604
-0.063907
-1.03769
2.87688
-1.83919
0.541919
-0.419716
-1.30909
-1.031
0.595264
4.47289
0.00296079
-4.47585
-1.49945
-1.46776
-0.468076
-1.33637
-0.0176996
2.41888
1.98534
-0.873984
1.06015
-0.187251
0.315101
-0.720318
0.638519
-1.68501
2.45544
0.0784704
1.04208
-1.93388
-1.47856
3.45369
-0.1959
2.82339
-0.782322
-0.45856
-1.06772
2.11683
-0.911897
4.02966
-3.11777
-3.69797
-0.520124
-2.30362
3.8493
-1.54568
-0.65689
-0.374113
1.32465
-0.271726
-0.0894377
-1.01672
1.10616
-3.6844
1.21897
0.408795
-0.521948
2.20083
-5.47992
1.52771
-4.19802
-0.900589
3.50116
-1.75003
2.19356
-1.11003
0.0516718
-2.90959
3.52069
-0.0131754
-0.641993
0.689832
-2.42429
-0.454772
-2.6986
3.15337
0.983138
1.75026
5.75507
-3.78545
-1.96962
-0.927146
0.336168
0.985097
0.0864664
-1.07156
-3.61448
0.661373
0.761459
0.148532
-0.0486499
-0.486516
0.535166
1.7717
-4.07532
0.353693
1.99307
0.100333
-2.0934
-4.44591
3.53401
0.635149
0.152573
-0.787723
1.45416
-4.47035
-0.545307
-0.0350881
0.580395
0.826537
-0.191388
-0.0133743
3.17226
-2.47484
2.67026
2.1268
-1.10141
-4.44107
1.35147
-2.99208
2.37621
0.615869
2.17331
-4.69483
-2.14806
-1.30608
3.45414
0.387343
1.66123
-1.25398
1.02316
5.04596
-0.757957
-4.28801
-0.00660892
-4.22607
3.51553
0.348622
1.80639
2.08842
-0.615301
-0.047804
0.594766
-1.23637
-1.39167
0.396086
-0.867566
0.47148
0.0160009
-4.80285
4.78685
-0.160374
1.17926
-1.01889
1.52688
-4.02296
2.49608
-0.510269
-2.3672
-0.163366
0.289132
2.91161
-1.43236
-0.827781
2.26014
-1.52446
-1.79035
1.86449
-1.08737
0.296059
-1.09235
0.796293
-1.35025
1.54457
-3.95778
-0.599274
-0.0851388
0.684413
0.452071
1.37208
-1.82415
3.68874
-3.24451
-0.444228
0.06075
-2.45045
0.808919
-5.44919
-2.109
-2.99534
5.10434
-4.31165
0.227193
4.08445
-5.73705
-3.54232
0.0849341
-1.15002
1.2013
-0.0512818
-4.86809
-1.55078
5.14937
1.56307
-0.81775
0.327042
-1.39476
-0.728478
1.97489
0.612882
0.311362
-1.56742
0.074407
-0.676004
0.601597
-0.713066
0.253558
-0.429675
0.508667
-1.06926
2.20418
-4.42595
2.83934
1.58661
-1.41326
1.68649
2.63244
0.817929
0.016564
-1.05178
1.15589
-2.06883
-1.09254
-2.29685
0.829422
1.46743
0.527124
-0.112851
-0.414273
-1.63567
2.12338
-0.30668
3.05772
2.85398
-2.44685
2.41134
-3.9358
1.87796
-2.53984
0.661881
0.392202
0.0215832
-1.56827
0.162917
-4.60856
2.6083
0.410692
2.30704
0.0532803
-0.828042
0.774762
-6.28447
2.64118
-0.732078
0.726477
-0.815458
-0.0970108
-0.881302
0.978313
-2.35928
0.926914
-4.59724
4.08209
4.17543
-2.05705
-1.00116
0.898098
0.103061
1.47146
0.420801
-0.593957
-4.7755
1.7743
3.00119
-0.556467
0.446951
-0.40954
1.38626
-0.976724
1.90683
0.783961
-0.0162411
0.860763
-0.844522
-1.08569
1.16416
-0.0540298
0.632649
2.36373
-3.58545
4.43983
0.324827
-2.52081
0.0230075
4.2042
-0.0957842
-4.10842
-0.0671947
0.693385
-0.62619
2.45921
-4.89885
0.945424
1.19333
-2.13875
-0.0530779
-0.0747211
0.127799
-4.01716
3.99338
0.0237846
-1.96016
3.00915
3.32961
-0.114667
4.13021
-1.41749
-2.71272
-0.0786758
-0.537974
0.61665
-1.05702
-1.30204
-0.0662803
-1.25291
-0.0491297
0.0484942
-1.4818
1.4333
-0.388457
4.18735
-3.79889
-3.84605
1.52865
2.31741
1.18541
4.15014
0.168763
0.0525405
-0.221303
2.41396
1.03046
-3.44441
-0.368176
1.69293
-1.75626
4.41269
-2.65643
-3.73425
0.55855
2.98079
1.21031
-3.35837
-0.0133797
-0.502788
0.516168
4.50666
-1.10378
-3.40289
1.55006
0.9095
-5.17267
2.64244
4.959
-5.15292
-2.23322
0.521233
1.71199
-0.16741
-0.700823
0.772745
-0.0719215
-1.93571
0.591868
1.34384
-0.0472538
0.487253
-0.44
-0.53559
0.530871
0.00471919
-2.38372
5.0728
-1.20454
1.29368
0.546047
-0.955587
1.54672
-2.28236
0.735637
-2.7301
-2.00056
-1.50132
0.769003
1.12577
0.152342
-1.27811
4.88233
-1.19695
-3.68538
0.537585
2.80043
-0.986936
-0.561969
-2.37938
0.322962
2.03832
2.26435
-4.30266
0.0414375
-0.103661
0.0622234
-0.109934
1.44074
-0.13434
1.24983
-1.11549
4.3201
-1.88537
-2.43473
-4.42311
0.69631
1.58416
-2.93903
0.783681
2.15534
1.38097
-2.74413
0.536588
-0.628471
-1.2563
-0.311966
-2.88187
3.688
-0.806136
0.582294
0.142507
-0.45287
-0.337417
-0.988151
0.81798
-0.899882
-0.0111218
-2.17863
3.16604
-0.987411
3.03744
-1.70414
-1.3333
3.23025
-1.70009
0.97892
0.256296
-0.965656
0.795512
-0.116882
-1.6138
3.35345
-3.85292
-2.87335
1.83565
-1.86475
0.794023
0.565778
0.260759
-0.137146
0.0840685
3.84617
-3.84208
-0.00409616
3.99121
-2.11198
0.780719
1.33126
0.370466
-1.39208
-1.01459
-3.92242
-1.01811
0.838042
-0.692849
-1.12855
1.8214
-3.38903
0.706867
1.19116
1.55638
-2.74754
0.341597
-0.836646
-1.21684
-2.58614
4.56338
-0.587834
-2.6402
1.12304
-2.15386
1.03081
-1.05788
1.38689
-2.34064
-3.94383
1.05555
-1.33992
2.89062
-4.59228
3.28202
1.31026
-0.0663367
-1.28893
0.0683738
-1.40799
1.33962
-3.93844
-1.96686
-0.638873
0.603785
4.30324
1.86948
1.17421
3.6267
-3.45989
-2.20084
3.99182
-0.238424
-3.75339
2.71146
-2.12813
5.4504
-3.54389
-1.90651
1.28216
0.804845
-2.08701
-2.26951
3.40453
-1.13502
-6.11402
3.2688
2.84522
-0.0778585
1.00253
3.60336
-2.46363
-2.9736
5.43723
2.65002
-1.26905
-3.26645
-0.177214
2.40818
-0.641614
2.09626
-1.45464
-2.20718
3.97888
-4.99127
0.454304
-3.06476