/*--------------------------------*- C++ -*----------------------------------*\
| =========                 |                                                 |
| \\      /  F ield         | OpenFOAM: The Open Source CFD Toolbox           |
|  \\    /   O peration     | Version:  2306                                  |
|   \\  /    A nd           | Website:  www.openfoam.com                      |
|    \\/     M anipulation  |                                                 |
\*---------------------------------------------------------------------------*/
FoamFile
{
    version     2.0;
    format      ascii;
    arch        "LSB;label=32;scalar=64";
    class       volVectorField;
    location    "1";
    object      U;
}
// * * * * * * * * * * * * * * * * * * * * * * * * * * * * * * * * * * * * * //

dimensions      [0 1 -1 0 0 0 0];

internalField   nonuniform List<vector> 
13486
(
(6.95364 -0.880616 2.90013e-20)
(8.49383 1.62019 1.28004e-20)
(11.3985 0.288563 0)
(4.97742 -2.47533 -3.94464e-21)
(10.959 -2.65347 1.04334e-20)
(11.9956 0.764471 2.04059e-21)
(12.2468 -2.27256 2.73827e-22)
(9.40984 -3.42654 -1.62056e-20)
(9.18315 -1.84804 0)
(9.87657 3.77614 0)
(-7.71666 -5.50147 -1.04969e-19)
(12.5825 -0.297839 0)
(6.23086 -1.81272 -2.91825e-20)
(12.4102 3.4569 2.66404e-21)
(11.6404 -2.03355 5.20563e-21)
(9.67467 4.06508 -7.2313e-21)
(-11.8558 8.57212 6.92738e-20)
(6.47496 -1.84223 -8.46547e-22)
(11.5926 -0.185436 1.18047e-22)
(7.98784 -0.0845083 -2.86775e-20)
(5.19666 -3.16822 -1.85385e-21)
(6.29937 -1.84062 3.75962e-20)
(8.60756 1.56528 -1.0254e-20)
(12.4514 -5.05058 0)
(10.2688 3.16225 2.17232e-21)
(12.2737 -4.72204 -7.24258e-21)
(-15.5732 6.78444 9.00357e-20)
(12.3967 -0.557103 2.19285e-20)
(10.0315 0.150539 0)
(11.1616 -1.78675 -1.25637e-20)
(5.42553 -3.09867 -1.36141e-21)
(12.2839 -1.54147 -5.94695e-21)
(14.6411 -1.97599 2.15369e-20)
(10.2813 -0.51575 0)
(9.43543 -3.27866 0)
(9.50524 0.0330125 1.7538e-23)
(9.46866 0.665189 -5.53467e-22)
(7.46825 -3.4278 1.54651e-20)
(8.45538 0.170387 -5.627e-22)
(9.40273 -1.09659 1.45925e-20)
(11.3897 -3.96284 0)
(5.27283 -2.41691 -3.4619e-20)
(10.1666 0.102964 0)
(10.2335 2.56823 -1.08211e-20)
(10.3839 2.54423 4.33852e-21)
(12.5228 -0.394842 3.32394e-21)
(2.6588 11.6297 1.72183e-19)
(9.97973 0.181735 9.6208e-25)
(9.54703 0.536409 4.37668e-22)
(13.0646 -0.0398976 1.18545e-20)
(9.83224 0.173909 1.53881e-20)
(8.86314 0.101812 0)
(13.1001 -0.782207 -3.64195e-21)
(7.78099 -2.79512 -2.22159e-20)
(6.97583 -2.34002 0)
(10.8732 -2.71335 -6.88111e-21)
(10.3418 0.736084 -2.70752e-22)
(8.73343 0.0951064 -2.4218e-21)
(14.3013 -1.87959 2.45824e-20)
(9.57496 0.879338 0)
(-5.53706 -9.64425 -9.07074e-20)
(9.60386 0.871273 0)
(20.2138 1.83965 -3.89094e-20)
(5.27599 -3.07154 -2.18211e-23)
(7.66175 -5.0917 0)
(9.56215 0.694603 -2.07362e-22)
(4.27598 -2.384 -3.80022e-21)
(6.97825 0.632852 9.5467e-21)
(9.22785 -1.97478 -8.51986e-21)
(9.44959 0.0362907 4.27844e-22)
(4.55197 -2.2268 4.38804e-21)
(6.96279 -2.08177 -1.60695e-22)
(9.61946 -0.497363 1.07262e-20)
(-2.67332 -0.219746 -4.05552e-20)
(9.66369 0.702706 -4.09315e-23)
(10.3597 0.724234 6.13778e-23)
(9.67342 0.750134 5.61123e-23)
(11.6611 -2.12565 -2.14219e-21)
(1.66635 10.0199 -1.12457e-19)
(8.37355 -1.62306 0)
(9.88539 0.0175237 1.04754e-23)
(8.13678 2.06584 -8.22001e-22)
(22.6764 1.9725 1.75941e-21)
(12.1554 0.341028 -3.51464e-22)
(6.90464 -0.922539 -5.65212e-20)
(7.13328 8.08929 0)
(6.09007 -3.43072 -6.44849e-21)
(9.80127 0.343609 -2.24988e-20)
(9.19789 0.947184 -1.03841e-20)
(9.03101 5.15938 -7.78483e-21)
(12.4805 -1.47583 -2.81265e-21)
(9.90903 -3.04659 -8.40987e-21)
(7.18152 -1.38434 7.47024e-21)
(8.14661 0.445904 7.31794e-22)
(8.80775 -2.68299 3.53287e-21)
(9.9966 0.160011 5.51856e-25)
(-15.3652 7.00262 0)
(3.82836 -3.03901 2.19931e-21)
(9.50409 -1.11691 -2.78612e-20)
(-13.6364 10.6397 9.36313e-22)
(9.99166 -0.00659203 0)
(12.2872 3.49917 8.69192e-22)
(3.71769 -3.19973 2.35588e-22)
(8.94445 0.132196 2.82503e-21)
(7.0939 8.65588 0)
(-11.8645 10.2045 1.33369e-21)
(9.74832 0.253754 2.05543e-23)
(8.32572 0.113915 -1.35988e-21)
(2.64223 11.4932 1.32607e-19)
(9.68431 -4.48579 0)
(8.22824 -3.88604 0)
(12.1663 -2.04745 -5.73955e-21)
(7.84747 -2.70342 1.85807e-22)
(10.3213 0.429495 2.07321e-23)
(5.15928 -0.0621119 0)
(8.00449 -3.77785 -1.35979e-20)
(10.1114 3.34082 0)
(10.4211 -0.451334 0)
(9.34567 -0.39879 0)
(9.62612 0.45384 -1.30189e-22)
(6.78483 -1.76439 4.00176e-22)
(-4.629 -8.27502 0)
(8.64048 -2.41501 0)
(8.3647 0.113136 1.85507e-21)
(8.94615 -3.13013 0)
(8.94081 0.176552 0)
(10.5868 -1.40917 3.21316e-22)
(10.8054 0.398483 2.51937e-21)
(9.79459 -0.299605 -1.927e-21)
(8.13098 -4.42345 -3.52525e-21)
(8.85991 0.116987 -2.80541e-22)
(4.01973 10.9347 -4.4361e-20)
(-5.80199 0.266602 4.80215e-20)
(-1.20652 -1.8686 4.66782e-20)
(9.9636 0.10386 -2.48247e-21)
(9.48073 2.37578 -1.12107e-20)
(5.11189 4.00733 -7.84245e-21)
(9.35735 -4.2253 0)
(9.54385 0.493989 4.63271e-23)
(9.52592 -2.7766 -5.64581e-21)
(14.1379 -0.578915 -2.26265e-20)
(13.0667 -0.921766 3.00093e-21)
(12.2872 -1.14258 0)
(8.17406 -1.56671 0)
(10.5416 0.0269446 1.14774e-22)
(22.9562 -4.07507 -7.53029e-20)
(13.8393 -0.080837 3.25926e-21)
(-3.26533 7.88719 0)
(13.1683 -0.0993109 0)
(10.019 0.147188 0)
(10.2725 0.0949012 1.97785e-22)
(11.6392 -2.41978 0)
(9.9218 0.0014982 -1.09634e-23)
(7.83729 1.88914 -7.00996e-21)
(10.9301 1.75217 0)
(11.7682 0.459897 0)
(9.52755 -4.28362 0)
(1.60369 -0.484374 -1.61432e-21)
(8.27541 -3.20577 3.21599e-20)
(10.0944 2.04647 -3.63464e-22)
(12.5934 0.089652 7.85362e-21)
(8.32484 -3.1246 -4.83179e-20)
(12.3965 -0.844977 8.58524e-22)
(4.81956 -2.34164 1.52607e-20)
(8.93326 0.0708116 0)
(12.828 3.47931 -5.80035e-21)
(12.0475 3.31287 -2.41893e-21)
(1.93094 -0.300132 -3.63933e-20)
(14.3447 0.607869 -8.78223e-21)
(-2.11777 -1.13836 1.30132e-20)
(-4.11661 1.95732 1.41842e-21)
(10.7793 1.5717 2.58856e-21)
(10.0636 0.311284 -1.71331e-20)
(11.3582 -1.25171 4.83891e-22)
(9.92776 0.0733691 7.21377e-24)
(2.44592 -7.5877 0)
(12.394 5.41365 7.02825e-21)
(14.91 -0.596268 3.26325e-20)
(9.595 0.256404 -2.56652e-20)
(12.2919 -1.03947 0)
(9.6924 -1.32939 2.98976e-20)
(10.389 0.44497 6.13922e-23)
(11.6654 -1.20011 -2.31742e-22)
(-6.20246 1.59255 0)
(12.7894 0.687157 5.47599e-22)
(11.9078 -0.457848 -1.00178e-20)
(10.0892 0.11271 -6.17167e-24)
(10.9516 -1.15548 -3.88799e-21)
(11.0923 -4.01816 0)
(7.36821 -3.54908 -1.82453e-20)
(9.56148 0.548814 0)
(10.9525 0.261016 0)
(8.66672 -0.0709554 0)
(7.71605 5.00597 -1.44766e-20)
(8.57133 -0.225524 0)
(-6.56903 -5.03127 -2.45937e-20)
(7.9652 -4.72359 8.28957e-21)
(12.7122 0.0979309 4.27546e-21)
(6.72308 -3.25644 -6.89043e-21)
(12.6991 3.24708 -2.76003e-21)
(5.27908 -3.2101 1.50095e-21)
(10.8891 0.523404 -7.10401e-23)
(7.3815 -3.49072 -1.7921e-20)
(10.387 -4.28952 3.69943e-21)
(10.1197 1.87864 4.48066e-22)
(8.79695 -0.229349 -2.23411e-21)
(6.26082 -2.2687 -6.66598e-22)
(8.9738 -0.121142 2.16335e-20)
(8.57724 -0.0585593 0)
(12.5595 0.715032 0)
(11.8666 -0.64236 1.41311e-20)
(10.7085 -4.74886 1.04744e-20)
(8.08506 0.0557561 2.63302e-20)
(9.46911 0.329737 1.84073e-23)
(12.1716 0.946584 -2.35325e-21)
(9.07437 -2.18122 1.36378e-21)
(11.5084 -1.65847 0)
(9.21566 4.84313 2.14954e-20)
(7.52047 -1.46849 0)
(16.1472 3.29532 0)
(-10.965 9.45429 -1.24189e-19)
(13.1986 0.0154499 0)
(9.45424 -2.74222 1.32808e-20)
(12.777 0.102514 0)
(13.3251 -0.606136 -4.79662e-22)
(6.3826 -2.90244 1.08241e-20)
(12.7554 1.47971 -4.35347e-22)
(4.8297 -4.13524 1.18387e-21)
(9.02385 -1.41497 1.49606e-22)
(5.24801 -2.54778 8.85732e-22)
(9.61374 -1.25872 -9.57769e-21)
(8.80043 -3.23163 7.0479e-21)
(14.1907 -0.873935 2.85102e-20)
(5.09292 -2.3098 1.18225e-20)
(4.28893 -3.48139 0)
(6.15134 -2.96041 1.28103e-21)
(10.5388 -0.932277 6.51924e-21)
(11.0727 0.221228 -2.38031e-22)
(6.28659 -2.97673 3.51935e-20)
(11.7593 -0.762683 0)
(14.2984 -2.52489 0)
(10.1516 0.278348 2.63387e-20)
(10.5713 0.365798 0)
(6.06961 -2.97752 1.17475e-20)
(8.08004 0.47785 -1.17495e-21)
(8.9821 0.415829 0)
(12.0669 -0.0926421 -1.88094e-21)
(11.8028 -3.33494 2.35306e-20)
(4.19502 -1.5096 9.36823e-20)
(10.0902 2.40754 0)
(-0.0974565 -3.89495 -1.52114e-21)
(5.02745 0.0992038 4.22982e-21)
(7.52903 -3.68567 1.73926e-20)
(8.30048 0.0359414 0)
(8.63849 -1.29786 1.69681e-21)
(1.83136 -8.72228 2.33362e-21)
(12.1895 -1.54517 4.63942e-21)
(8.97678 -2.26351 -1.72333e-21)
(2.77977 -2.94399 1.6905e-21)
(14.3721 -2.3011 1.63234e-20)
(8.69577 1.35998 0)
(8.15967 0.551025 3.78049e-24)
(11.6714 -2.04099 -1.21268e-20)
(1.82405 -8.28782 -2.91396e-21)
(10.4997 -3.60804 -1.10094e-20)
(-7.10029 1.77023 0)
(9.15866 -1.41376 -3.80173e-21)
(5.2255 -3.22914 -2.07865e-21)
(10.2108 -0.207202 -1.22941e-20)
(6.7297 -1.95199 0)
(7.27501 4.78832 1.0377e-20)
(9.81664 0.231476 -6.93145e-21)
(11.3395 -1.73632 0)
(12.8188 -0.455997 2.36136e-21)
(6.54268 -3.03655 1.4469e-20)
(11.5848 -3.06678 -1.31143e-20)
(8.66117 -1.16478 0)
(7.34371 -3.06243 0)
(8.20786 -0.0783274 -1.49167e-21)
(13.0747 -0.941671 -4.52175e-21)
(7.25717 -3.10482 3.59633e-21)
(10.2306 -1.00686 -1.06453e-20)
(9.5998 0.372157 1.53026e-20)
(14.9866 -7.27797 -2.22347e-20)
(-6.47844 -7.30439 9.11202e-20)
(-15.3226 8.0066 1.68247e-19)
(14.4193 -0.4111 2.7338e-20)
(9.86775 -0.343443 2.53392e-21)
(14.0107 -0.611399 2.34496e-22)
(9.73984 -0.13829 0)
(4.50185 -3.32671 0)
(8.90232 1.31904 4.17706e-22)
(7.90144 -3.70824 1.36285e-20)
(10.0509 0.115137 -2.45651e-21)
(10.548 -0.887706 6.10144e-21)
(10.742 -1.07685 0)
(12.4075 -0.117526 -1.00837e-20)
(12.8628 -0.291596 -1.59008e-21)
(9.60307 0.359205 -1.40192e-20)
(12.0654 -2.94589 4.21602e-21)
(10.3962 -0.700889 -1.11204e-21)
(6.3559 -2.23395 1.68768e-22)
(13.9067 -0.634501 3.85353e-21)
(12.1222 -1.53993 5.62795e-21)
(9.51365 0.4145 1.34139e-22)
(9.05701 -4.48238 0)
(0.157985 -0.823818 0)
(11.4223 -0.160159 3.88262e-21)
(6.17831 -2.00119 4.50706e-21)
(9.54283 0.552152 0)
(10.7289 6.73404 -7.06828e-20)
(4.10703 -2.08456 0)
(11.733 5.39654 -1.68911e-21)
(12.5133 -1.98542 -5.50512e-21)
(12.3181 -12.8802 0)
(9.36403 2.07687 -6.61634e-21)
(8.954 1.3945 -5.8097e-22)
(9.16008 0.977486 -8.89678e-22)
(9.21623 -0.0422516 -2.37844e-20)
(9.31735 -1.39435 0)
(9.58304 0.621654 3.8019e-22)
(8.80716 0.992557 6.01707e-24)
(9.90479 0.146166 3.23504e-21)
(7.90404 0.667561 -1.36848e-20)
(2.55756 4.46595 1.43527e-20)
(12.6974 -1.43255 5.52317e-21)
(10.6524 -1.96389 -3.07053e-20)
(10.2098 -0.95272 0)
(13.0272 0.139304 2.12606e-22)
(10.7995 -2.05981 -5.77861e-21)
(9.97285 0.096166 3.25985e-20)
(10.0455 -3.08783 0)
(11.8663 -1.46481 -1.17446e-21)
(7.04729 2.13903 0)
(11.8953 -2.42822 -1.05945e-20)
(9.05266 -2.53385 -9.6031e-21)
(3.77275 -1.69244 1.42377e-20)
(11.5137 -2.47632 -8.64193e-21)
(10.1119 0.93553 0)
(8.05556 0.675329 -1.64127e-21)
(9.10328 -1.37556 4.04812e-21)
(8.04027 0.641827 1.29408e-20)
(10.9252 -2.12054 2.215e-20)
(11.7135 -1.20857 9.55026e-21)
(-6.82783 -1.27255 -2.61448e-20)
(9.99926 0.155333 -1.46609e-23)
(10.9174 -1.12177 0)
(4.83959 -1.53959 3.37038e-20)
(16.1784 3.34039 0)
(8.81049 1.32374 -1.04169e-24)
(10.9217 -0.618746 1.74046e-20)
(13.0291 -0.254789 -1.15635e-21)
(12.8818 -0.436797 1.59102e-21)
(-14.6318 6.49133 -8.89371e-20)
(9.55584 0.373717 1.75174e-20)
(9.77473 0.0827385 0)
(-4.90674 -1.94571 -3.35212e-20)
(10.6191 -1.4249 -6.36887e-21)
(5.50251 -1.56241 -1.79329e-21)
(10.7105 -4.27668 9.819e-21)
(12.8548 -0.253837 0)
(13.2161 -1.49213 3.1218e-21)
(8.78733 0.868473 2.7317e-20)
(9.81455 0.382347 2.09489e-20)
(11.1324 -1.8073 0)
(9.94201 0.0628194 -4.56157e-24)
(10.7083 -0.989472 -6.12281e-21)
(6.05018 10.9878 1.81095e-20)
(7.75474 -0.00203755 3.67066e-21)
(10.675 -1.28939 6.07466e-21)
(10.3115 0.0259116 -8.50547e-23)
(10.8742 -1.0469 0)
(13.0515 -0.46411 -3.8538e-22)
(-1.3188 -3.88411 2.5425e-21)
(11.9386 1.91869 3.48928e-21)
(9.92618 0.19864 1.26092e-20)
(8.38331 0.0541696 0)
(8.50974 1.07348 -1.42331e-21)
(16.2162 -13.522 0)
(16.8844 6.15165 -1.85067e-20)
(10.1658 -0.202548 0)
(10.01 -3.46939 -2.81475e-22)
(6.56554 -0.355234 -7.96525e-21)
(7.29308 3.75102 2.49153e-20)
(4.66754 11.8602 -8.40136e-20)
(8.78705 -1.20255 0)
(11.3582 0.382562 2.99154e-22)
(10.0659 1.0382 -6.69532e-21)
(-1.37552 2.72517 -2.77742e-20)
(5.37617 -2.92984 1.75909e-22)
(8.14707 -0.0953401 -3.95683e-20)
(11.6056 -1.58746 6.54464e-21)
(10.3774 0.984015 4.01587e-21)
(7.11558 -2.0644 0)
(6.76729 1.83919 1.4935e-20)
(9.67755 0.415172 -2.1056e-22)
(4.26509 -2.3478 2.22549e-21)
(-1.18356 -3.45251 -7.78016e-21)
(-6.56648 7.59541 -5.94093e-20)
(14.4771 -0.334755 0)
(-3.89381 5.30549 0)
(10.36 5.93155 0)
(10.113 -0.452612 0)
(2.47731 -2.72411 -1.71523e-21)
(11.9848 -2.3188 0)
(9.05273 -2.80328 0)
(8.23616 0.576648 5.37016e-21)
(14.8384 -0.554034 -3.35299e-20)
(10.7402 -1.00008 -1.42496e-20)
(8.4802 1.64085 4.39245e-20)
(9.90031 0.0616658 -3.30201e-21)
(11.8732 8.73176 0)
(12.0452 -1.4389 0)
(9.43132 0.397907 1.49912e-20)
(9.95487 0.0893505 2.55195e-21)
(6.24488 4.81976 0)
(-4.93178 1.35106 2.06667e-20)
(10.36 -3.66711 1.23497e-20)
(-2.3019 1.27148 0)
(11.7137 -0.752635 9.22737e-21)
(9.70492 0.348098 -1.70388e-20)
(5.80746 -2.12041 -9.15179e-22)
(4.82595 -1.48424 0)
(9.82776 1.02842 1.29369e-20)
(12.7224 0.811325 0)
(10.9355 -1.10454 0)
(11.0566 0.97746 -3.21688e-22)
(9.61058 0.430367 7.97032e-21)
(-16.0166 7.52102 -1.17985e-19)
(11.9289 3.29398 -7.9175e-23)
(6.63404 -1.51734 -1.42678e-20)
(10.1361 -0.371642 1.82125e-21)
(10.4906 1.06108 2.99829e-21)
(13.8343 -0.419552 -2.20312e-23)
(10.7778 -3.56431 0)
(12.2562 -3.00789 1.26112e-20)
(6.65889 0.0247519 0)
(8.74449 1.2187 5.09992e-22)
(11.3123 -1.26751 0)
(7.06117 0.610404 2.03098e-20)
(-3.96475 13.1885 -1.11716e-19)
(11.7831 -1.52413 0)
(1.65364 0.748424 2.11108e-21)
(12.1516 -1.59748 -1.5107e-20)
(5.35392 3.38128 -1.0981e-20)
(8.57272 -1.13834 3.85177e-20)
(7.00874 3.83004 -1.54239e-20)
(6.58154 -1.46678 -4.06222e-20)
(18.3115 5.83566 0)
(9.49929 0.492925 2.65393e-22)
(-6.65467 -2.53817 -6.76821e-20)
(9.96001 1.11071 0)
(9.02506 1.13456 9.74716e-22)
(12.6196 -0.043041 -2.51709e-21)
(13.7154 5.6147 0)
(9.96074 0.0386894 0)
(0.506634 -1.05962 0)
(2.89276 -7.84799 8.63556e-21)
(14.5098 -8.17789 2.63368e-20)
(19.8412 -5.06779 5.22813e-21)
(11.6145 5.03805 0)
(8.4502 -0.640626 2.58592e-20)
(9.87827 0.0576135 2.13429e-24)
(11.7731 3.01438 1.00518e-21)
(5.86116 -3.15319 3.83122e-21)
(9.56208 0.84695 0)
(9.98143 0.142772 0)
(3.56913 -0.314982 -2.24696e-20)
(7.0221 -2.01553 -1.01135e-20)
(9.5134 -0.818293 0)
(8.99091 -4.21307 -1.33708e-20)
(10.1073 0.0677216 -8.83751e-24)
(9.98209 0.126857 -3.371e-24)
(4.04329 -1.76625 0)
(8.86778 -0.133574 2.52753e-21)
(9.66685 0.416649 1.50661e-22)
(12.7929 0.772187 9.07244e-21)
(8.99119 -2.63783 0)
(-15.8056 9.61092 -2.56153e-19)
(12.9681 -0.307035 1.73653e-21)
(9.95296 0.576029 2.75538e-21)
(9.69991 0.067659 1.27941e-22)
(13.0153 3.40922 0)
(8.42207 1.738 -1.16519e-20)
(15.6373 2.03345 -1.45517e-20)
(-9.40538 9.12083 1.14716e-20)
(9.96516 0.306698 0)
(5.32773 -3.00189 -1.80497e-22)
(2.3087 -0.0313913 0)
(10.1949 0.332408 -1.03768e-20)
(9.95479 0.328989 5.01351e-21)
(9.25806 0.420525 -2.97044e-21)
(2.02482 -8.10956 0)
(12.2414 0.15568 -7.45278e-22)
(5.41314 2.75676 4.02044e-20)
(10.73 -3.57224 0)
(8.10036 0.540995 1.66165e-20)
(11.7895 -3.05847 -4.84819e-21)
(10.574 0.0626481 0)
(5.09248 -3.36778 1.02011e-21)
(8.22657 -1.39516 -3.44904e-21)
(10.2783 0.0307486 0)
(-12.1294 10.1653 1.51894e-19)
(8.89592 1.0866 0)
(8.51731 -3.83415 1.33694e-20)
(-0.0668075 -4.14245 4.51611e-21)
(10.1185 0.137863 7.58902e-24)
(12.171 0.815483 -5.05716e-21)
(6.69827 1.82297 7.94806e-21)
(8.67998 -1.29479 -1.41098e-20)
(8.78001 -1.09079 -1.73349e-21)
(8.57817 -3.75277 1.39198e-22)
(10.5083 -1.26773 5.81079e-21)
(13.008 3.35425 1.16762e-20)
(10.2082 -4.65788 0)
(10.0855 0.0702098 -1.11769e-20)
(-7.53969 2.52047 -2.53828e-20)
(6.72428 -0.0474487 0)
(9.72861 0.439608 -3.28831e-23)
(9.19421 0.0642355 0)
(6.0438 -1.55394 3.56057e-20)
(9.8956 -3.73914 0)
(9.88885 0.049642 -8.31264e-23)
(11.1068 -0.527449 -9.97419e-21)
(5.01931 -3.58592 1.98978e-21)
(1.86409 -1.80085 3.94923e-21)
(12.5112 -0.152283 -7.61578e-23)
(8.99121 -4.31846 1.295e-20)
(8.57407 -2.40877 1.42238e-20)
(7.13387 -1.38183 0)
(-10.4979 3.87357 -3.22956e-20)
(10.8738 -3.37123 -2.50713e-21)
(-11.2676 4.11722 -3.83939e-20)
(9.98589 0.159226 -1.1008e-24)
(7.00592 -2.59318 0)
(10.8238 0.0550571 -3.5534e-23)
(-6.53579 1.1454 0)
(3.31853 -3.26657 2.48679e-22)
(6.46262 -2.20131 1.57786e-21)
(-1.58899 1.42141 0)
(9.86411 -2.64812 4.19228e-21)
(7.65073 -4.89445 0)
(13.9376 5.30871 0)
(8.1571 -3.85316 -1.7557e-20)
(7.27856 1.80371 1.21076e-20)
(7.9157 -2.01826 0)
(8.83145 1.04497 -7.41904e-21)
(21.4893 -3.82512 9.07004e-20)
(-2.29941 -4.47037 1.66276e-20)
(13.8608 7.18493 0)
(10.3873 -0.0015981 0)
(-7.22439 -2.24057 -3.47402e-20)
(9.10786 -0.440342 0)
(12.325 0.461731 0)
(-2.26483 -12.1149 -5.64515e-21)
(9.85944 -1.88025 -1.95611e-20)
(8.43536 -1.9318 1.20367e-20)
(14.1647 -2.73668 2.33066e-21)
(-10.3568 3.3434 6.10468e-20)
(9.87631 0.282687 5.7661e-21)
(7.35537 -1.53182 0)
(10.8268 2.4451 -1.38478e-21)
(6.89239 -0.754931 0)
(12.0989 0.167412 0)
(9.88335 0.569239 0)
(11.0112 0.993155 -2.54023e-22)
(9.02447 -0.0611651 1.09838e-20)
(10.4752 0.262011 -1.07897e-22)
(7.52799 -1.59079 0)
(-15.0785 6.16906 -7.69228e-20)
(10.3245 5.63357 1.47865e-21)
(8.95272 -3.179 1.38227e-21)
(9.58766 -0.327589 -4.01766e-21)
(11.3329 -3.06286 2.0617e-20)
(9.97945 0.127322 -9.93438e-21)
(-2.47292 13.8492 0)
(12.8021 -0.295078 0)
(6.47702 4.53662 0)
(5.99732 -2.5172 -2.62441e-20)
(6.4024 -4.08628 -3.08605e-21)
(-0.28418 -0.985948 0)
(11.031 2.39602 0)
(13.5181 -0.972509 1.34624e-21)
(9.92512 -0.124532 -2.89346e-21)
(9.50058 3.27694 1.09562e-20)
(10.6207 -4.29987 0)
(-13.2863 2.36871 -3.03983e-20)
(11.5052 0.375259 -1.46896e-21)
(6.89253 -1.86778 -2.40383e-20)
(11.0053 0.5565 -7.65701e-22)
(11.823 3.09114 5.39549e-22)
(9.91033 -6.87149 9.10982e-21)
(5.90463 -2.47059 4.52336e-20)
(8.68599 -3.05757 5.98837e-21)
(10.4074 0.402938 5.91106e-23)
(9.92693 0.095029 -2.91616e-21)
(8.03678 -3.94164 -4.04087e-21)
(8.10999 -1.40039 1.56616e-21)
(10.0931 10.939 -1.48946e-22)
(8.76 -4.15246 6.9831e-21)
(12.9187 0.325156 0)
(7.62258 -5.19579 3.35782e-21)
(10.4887 0.0476159 -6.97736e-21)
(14.7408 3.67302 7.46731e-21)
(6.76962 -1.69605 -2.1901e-20)
(8.89464 -3.06754 -1.47306e-20)
(10.3319 -0.27332 2.7632e-20)
(11.8493 -0.310079 -1.58795e-20)
(8.10086 -0.764751 1.58595e-21)
(14.5622 -0.147576 -1.41826e-20)
(5.60101 -0.572698 -4.77379e-20)
(10.634 0.0385759 -4.97368e-21)
(5.53207 -0.889847 0)
(4.84088 -3.98183 -4.94943e-21)
(10.0301 0.0557835 2.58659e-20)
(9.3088 0.0741417 -8.37434e-25)
(-1.99838 0.161218 0)
(9.30852 -4.28597 0)
(10.2061 2.24258 9.08177e-21)
(4.87456 -0.482511 2.96726e-20)
(7.3443 -6.35074 -1.01891e-20)
(10.1519 -3.47782 -7.56779e-21)
(10.7735 -2.00858 1.6846e-20)
(16.334 2.98663 0)
(10.197 2.4641 4.83208e-21)
(6.39179 -2.00735 -1.2393e-22)
(12.6619 5.09814 7.39482e-21)
(9.61294 -1.16772 -1.6852e-20)
(-9.50037 3.23877 -9.48909e-20)
(11.2553 -2.8623 -2.01101e-20)
(12.311 -3.19422 6.82444e-21)
(11.4007 6.08995 0)
(9.79845 -1.51822 -2.71554e-21)
(9.41071 0.337414 2.72851e-21)
(9.92434 0.0233217 1.31087e-24)
(4.73931 -2.23316 4.19239e-20)
(9.39255 -1.19774 2.53805e-20)
(9.9081 1.82926 1.8059e-22)
(-2.33746 -3.59104 -8.66794e-21)
(11.2768 -0.515419 -7.08533e-21)
(10.5822 0.106109 4.42523e-21)
(-9.93501 -6.15117 -1.20657e-20)
(12.1246 5.02822 -7.97152e-21)
(-14.0249 10.8515 -1.65036e-19)
(6.42056 -3.06105 -1.38813e-20)
(9.94096 0.0506023 0)
(10.3916 0.644198 -2.92113e-22)
(-2.3255 -9.61891 -1.50824e-20)
(6.5594 -0.474413 4.2638e-20)
(10.1995 0.102101 0)
(11.5037 -0.787402 7.97568e-22)
(5.67788 -2.05367 1.02245e-20)
(9.87737 0.269414 -2.50308e-20)
(-4.16176 -0.8193 -1.40196e-20)
(7.85856 -2.00358 -1.0598e-21)
(10.7385 -1.05819 9.76036e-21)
(11.2979 0.371906 -7.75194e-22)
(8.62481 -3.90662 -1.85361e-20)
(10.6483 0.261779 1.92159e-22)
(6.407 -4.49294 -8.39166e-21)
(10.5218 0.053289 6.54758e-21)
(10.0598 -0.254474 -7.91091e-21)
(10.725 0.562782 -3.03618e-22)
(11.0199 -0.224709 -1.70268e-20)
(5.43451 -2.15083 -1.97571e-20)
(10.2745 0.368257 0)
(3.39187 -5.5359 4.31386e-21)
(10.1728 0.0551438 1.91432e-21)
(4.17427 -1.70866 -2.66248e-21)
(12.0822 0.235872 -3.99874e-21)
(10.5693 -2.03432 -1.04351e-20)
(9.94309 0.0562096 -1.83359e-20)
(10.4607 1.62515 2.43301e-21)
(-5.48603 0.940152 -2.12429e-20)
(12.2953 0.407656 0)
(8.44276 0.91068 7.30839e-22)
(13.0557 -0.130172 1.18518e-21)
(7.04062 -2.5014 0)
(10.663 0.461785 3.42758e-21)
(13.1062 0.219178 8.56136e-22)
(12.1255 0.321727 1.81783e-25)
(12.0534 -4.56828 -1.67432e-21)
(8.86309 -0.252357 0)
(8.92615 1.97243 2.10806e-20)
(10.088 1.44326 7.54193e-23)
(8.55892 -4.02595 1.50902e-20)
(9.80823 -0.854086 0)
(7.23296 1.78563 -3.50815e-20)
(7.01566 -1.6235 2.43317e-22)
(12.6516 8.19041 -1.63397e-20)
(5.67673 -0.62443 4.67055e-20)
(10.4485 -0.0877424 1.56528e-22)
(1.05437 -1.68727 3.65159e-21)
(9.58125 -0.374596 -1.71472e-20)
(12.6888 -2.61278 -1.8609e-20)
(8.6073 1.04223 -1.57963e-20)
(10.4081 0.0484675 0)
(9.93759 0.178583 -1.0953e-20)
(-2.46297 -0.4312 7.70088e-21)
(-3.62405 -4.02394 0)
(11.3175 -5.00722 0)
(9.94599 0.0351747 0)
(-11.6963 10.0449 0)
(10.3063 1.5813 0)
(5.29542 -0.501375 0)
(9.30823 -2.22056 -1.51565e-22)
(18.1968 -5.51837 -3.5041e-20)
(12.922 1.58697 0)
(8.43261 1.6434 3.14003e-20)
(8.18736 -2.30364 -3.22865e-21)
(10.3878 1.07654 3.59564e-22)
(-2.49135 -10.7017 -1.17682e-20)
(5.44219 0.711344 -1.28602e-22)
(-4.20424 0.664771 1.41458e-20)
(10.9913 -0.0977091 -6.16404e-21)
(13.0042 -0.1063 1.61078e-21)
(10.0543 1.53571 -6.27437e-21)
(9.49009 0.940237 -2.07249e-20)
(10.0359 5.3115 -5.95885e-21)
(17.8046 6.08178 0)
(5.42033 -3.14825 6.39871e-22)
(6.12468 -1.64381 -3.89826e-20)
(10.1724 -0.0234226 -3.32512e-20)
(11.0554 -3.35148 -1.48331e-20)
(10.5344 -0.116777 2.75614e-21)
(12.8558 -3.44163 2.05009e-21)
(10.2568 -1.62847 -2.20474e-21)
(9.9159 -2.59948 -1.45263e-20)
(10.0975 0.98526 6.93978e-21)
(11.4993 9.38735 0)
(8.73318 -0.885795 -1.5994e-21)
(8.36793 0.470249 -4.86039e-21)
(11.9626 -2.24124 0)
(8.41111 -0.0623254 0)
(9.06074 -4.11004 -1.00643e-22)
(1.49544 -1.95255 3.62104e-21)
(9.28348 -2.24764 -6.90514e-21)
(9.02757 0.214431 0)
(9.41267 -0.140994 -2.24324e-20)
(8.72789 1.29343 -4.05598e-21)
(3.95488 -4.55014 2.24187e-21)
(12.8901 0.547942 7.10936e-22)
(-3.4236 -0.383657 0)
(5.29273 -3.13996 7.66322e-22)
(12.8951 0.400675 0)
(9.49769 -1.50742 2.96034e-21)
(12.4489 -1.52518 -2.72218e-21)
(10.1685 0.0368297 2.6625e-23)
(12.1121 3.35478 4.28857e-21)
(13.682 6.22336 -1.77327e-21)
(8.37117 -2.3142 2.94264e-20)
(5.65919 -2.75272 0)
(7.67723 -4.22496 -7.68793e-21)
(7.53002 -2.35589 0)
(13.2592 1.57607 -3.74042e-21)
(3.76764 -4.46891 3.84668e-21)
(11.2022 -4.90772 1.37071e-20)
(8.36318 0.707703 -8.1688e-22)
(1.59852 -9.54389 -2.04885e-20)
(7.68173 -3.59989 -1.74287e-20)
(6.35718 -1.67665 -2.26729e-20)
(9.54397 0.381176 6.67349e-23)
(7.84285 -4.04117 6.26418e-21)
(5.527 -2.20534 1.61952e-20)
(6.62564 -1.82178 2.45678e-20)
(6.05164 -3.81668 3.65228e-21)
(8.32578 -4.64134 -4.13409e-21)
(8.83476 -2.70569 1.46163e-20)
(1.71377 12.6912 7.62719e-20)
(10.683 0.0693785 1.48694e-22)
(7.26478 -1.9628 2.40849e-21)
(11.687 2.02729 2.59051e-22)
(10.7554 -2.77177 0)
(-6.98235 7.04358 -1.22769e-19)
(10.2819 0.000809321 -8.57784e-21)
(9.96368 0.558795 0)
(13.0574 1.44634 0)
(7.36168 -3.2185 -4.59108e-21)
(13.7114 -3.64508 -2.15531e-20)
(12.1684 1.08267 7.74565e-21)
(9.87828 -1.81913 2.57181e-20)
(9.70727 5.02004 5.9705e-21)
(9.35754 -0.0211318 1.80608e-20)
(3.43361 -4.94568 -4.20396e-22)
(9.14351 3.39686 0)
(6.76327 -1.95314 2.34397e-20)
(-0.0598597 0.244219 4.11416e-20)
(1.52437 -9.22853 1.48219e-20)
(8.28241 -3.07545 4.96769e-21)
(9.37537 -4.45591 -4.35802e-21)
(10.8244 -0.0612002 8.71497e-21)
(8.37902 0.306135 5.82075e-22)
(10.9219 -1.62987 1.33469e-20)
(3.23976 -5.23185 -2.90871e-21)
(12.018 1.11394 -5.74643e-21)
(9.54897 0.284356 8.80484e-21)
(5.48319 -0.860899 -1.92153e-20)
(9.02973 -0.338191 1.41122e-20)
(7.53564 -0.805632 0)
(11.9792 1.90119 -5.62761e-21)
(9.70704 0.192744 1.93375e-21)
(7.10027 -1.23416 -7.4863e-21)
(10.3638 7.93738 5.60263e-21)
(8.72342 -2.6521 1.08504e-20)
(10.1104 0.0937018 3.81323e-21)
(6.67183 1.11427 -2.73905e-20)
(12.0966 -2.24572 0)
(8.5245 0.74549 -1.36801e-21)
(11.1915 0.487791 1.06388e-21)
(9.46599 -0.342039 0)
(6.9591 0.574178 1.57746e-20)
(12.7509 0.51082 0)
(8.41746 9.94413 -2.846e-22)
(11.6505 -0.278137 0)
(8.76709 -1.03202 0)
(12.4473 -0.276996 1.86562e-21)
(11.9907 0.900716 -3.38431e-21)
(14.7243 0.81021 -2.33057e-20)
(9.61105 0.682626 -9.34028e-21)
(7.42232 5.36014 -6.51414e-21)
(10.2515 0.649401 -3.34544e-21)
(10.3584 1.6279 0)
(18.1518 3.31964 -1.53534e-20)
(12.342 0.672217 6.53859e-21)
(9.54415 -1.48304 -6.08908e-21)
(10.7716 -2.75466 0)
(14.9569 3.54828 1.1224e-20)
(11.1178 8.34907 1.07019e-21)
(10.5439 0.123202 7.87921e-22)
(7.09712 -10.9662 0)
(-2.43966 -11.2008 6.31684e-20)
(10.122 0.929561 0)
(11.1971 -1.45745 -6.7512e-21)
(3.35916 -1.88907 0)
(20.408 2.0364 0)
(8.58359 -3.2309 0)
(9.71608 -3.67873 0)
(-9.83671 -1.68686 -1.89731e-20)
(3.23946 -7.24924 -1.74913e-21)
(9.06191 -0.0419514 -1.64061e-20)
(4.83452 -3.60801 -2.43196e-21)
(6.03575 -2.35426 0)
(5.18325 -4.26114 -2.16563e-21)
(2.29776 -0.743173 -9.29251e-20)
(7.60923 -3.49803 0)
(7.0544 -2.29369 -2.53516e-20)
(9.66344 0.765346 -1.16407e-23)
(11.6501 1.96104 -1.1842e-21)
(11.605 -4.1121 4.4031e-21)
(9.39114 0.879837 0)
(10.3977 -3.46419 0)
(17.3939 1.17256 1.34407e-20)
(8.10578 -1.16994 3.86788e-22)
(9.54145 0.491931 -2.67483e-22)
(7.33543 -3.21981 1.489e-22)
(10.0558 0.0219094 8.07821e-22)
(10.3336 0.661987 1.28808e-23)
(10.1886 1.004 9.78794e-21)
(8.7211 1.00129 6.10989e-22)
(9.0248 -2.47155 0)
(-15.8823 6.28647 0)
(10.4069 0.295352 0)
(9.57542 0.101795 0)
(8.41126 -1.37405 1.04801e-20)
(13.5531 -0.433683 0)
(-5.2913 -8.64415 1.81905e-19)
(9.5157 -6.71812 -6.40225e-22)
(6.43677 -1.81866 -3.7086e-20)
(8.27938 -1.81993 1.91525e-21)
(3.73844 -5.69393 -2.37691e-21)
(-0.942455 -8.6777 -1.14654e-19)
(9.95034 0.123295 3.02421e-21)
(1.87922 -5.8121 -3.77691e-21)
(8.83457 1.10781 7.67475e-22)
(12.5404 0.00735738 0)
(11.3367 -2.073 0)
(8.57126 -2.60415 0)
(10.5105 -2.14425 5.53371e-21)
(8.08419 -4.87799 0)
(9.25085 3.33755 0)
(10.0079 0.0156895 0)
(8.53275 -1.93332 1.12366e-20)
(10.3636 0.989636 -8.06659e-21)
(8.98372 0.0774404 0)
(9.52897 -2.2677 -6.64535e-21)
(9.90867 1.09047 -1.03303e-20)
(12.7164 4.74358 -1.59656e-20)
(7.68177 -3.46715 1.55754e-20)
(9.43323 3.78037 1.23146e-22)
(8.2335 -1.73979 -2.85853e-22)
(8.24609 -0.0574829 1.46603e-21)
(8.79626 -1.36354 -3.31394e-21)
(11.9493 0.902662 4.81628e-21)
(9.52164 0.45531 -5.33773e-22)
(9.09858 0.500312 -1.54818e-20)
(10.4328 0.0507378 0)
(6.39508 -2.10883 2.0465e-21)
(9.62209 0.368583 1.54957e-20)
(6.7184 -1.86857 5.08426e-22)
(10.3007 -1.56689 -6.4176e-21)
(5.04059 -0.619285 -3.22764e-20)
(11.8756 0.74656 -8.57963e-22)
(15.8724 2.32576 2.10508e-20)
(10.0465 0.521018 0)
(10.6154 -5.37863 3.86311e-21)
(8.7746 0.291518 -4.78535e-22)
(8.82758 -1.40333 6.39507e-21)
(5.27964 -3.08003 -4.37166e-21)
(9.76101 0.0754625 8.30558e-21)
(10.436 0.414297 -8.75902e-23)
(10.3296 -0.033585 -8.7355e-23)
(10.3337 0.175835 0)
(7.21316 -1.46988 0)
(7.15613 -3.35276 1.92462e-20)
(-3.89657 -0.328341 1.51431e-20)
(9.97839 0.0740228 -2.55727e-23)
(9.68236 0.361772 3.10435e-20)
(9.47885 -4.37069 -9.76553e-21)
(7.23642 1.60035 0)
(9.13799 0.585197 0)
(7.65686 -1.44171 -1.05598e-22)
(12.5123 0.000271522 2.69999e-21)
(9.55734 3.44253 1.42614e-20)
(12.254 -1.03284 0)
(11.0753 0.0338353 0)
(9.95742 -2.93235 2.0695e-20)
(9.59982 -0.685815 1.34026e-20)
(0.702148 -0.196615 -1.37902e-21)
(9.58179 -0.170861 0)
(19.3708 3.56208 2.31337e-20)
(10.0975 -2.91538 -2.57841e-21)
(-2.20684 -8.71559 -2.04507e-20)
(9.73574 -0.0971689 -1.79706e-20)
(18.3056 -3.70589 0)
(14.1615 -3.69132 1.69586e-20)
(8.19317 -10.0682 -2.06858e-20)
(0.91086 -0.061926 0)
(9.47034 0.138087 -3.07383e-22)
(9.55127 0.671732 -1.01612e-20)
(9.98407 -0.0514638 -1.35314e-25)
(13.0391 -1.46123 1.55347e-21)
(7.79907 8.05953 1.87134e-20)
(10.6149 -0.00738596 0)
(4.919 -1.6334 -1.98101e-22)
(10.5413 -2.96401 7.3526e-21)
(12.5719 -13.3591 -8.667e-20)
(10.2128 1.44864 7.42993e-21)
(5.64044 -2.65189 1.00657e-21)
(9.82413 0.0456596 -3.95495e-20)
(9.91121 1.98385 -1.07786e-22)
(8.12954 0.316276 1.29331e-21)
(8.39685 -1.73506 0)
(8.93385 -0.00147827 -2.82039e-21)
(5.29653 -2.25004 1.30966e-20)
(10.8543 -0.51625 -1.91392e-20)
(9.68189 0.306732 -1.40663e-20)
(10.9367 -1.3998 6.17175e-21)
(8.20032 -0.548447 3.76639e-20)
(10.5596 -0.0392756 -2.09126e-22)
(8.88659 0.713971 8.91549e-21)
(9.77194 0.494697 -8.66283e-23)
(14.2031 -2.8501 -2.66594e-20)
(12.4852 5.45672 -1.21571e-20)
(7.48515 -6.54671 7.93072e-21)
(10.2773 -0.272802 0)
(7.28234 -2.34691 0)
(5.43051 -2.80693 0)
(6.46067 -1.7148 2.85281e-20)
(9.98795 0.105674 -2.2318e-20)
(8.84296 1.35757 0)
(7.27632 -1.32156 -2.21891e-20)
(8.80765 1.39124 0)
(8.50531 -1.20963 -1.72099e-20)
(9.29486 -1.42786 -6.40984e-21)
(8.95296 -2.28572 -1.59056e-20)
(10.7263 0.000628831 0)
(9.77166 0.264195 0)
(9.53734 -0.392577 3.5817e-21)
(12.8384 1.29433 4.33115e-22)
(12.795 -0.39299 1.1371e-20)
(11.1111 9.75577 -3.43486e-22)
(12.3857 -1.37051 0)
(8.32569 -2.95951 -8.22788e-21)
(-6.5684 -4.90868 0)
(2.99879 3.95927 -1.45992e-20)
(13.9436 6.48325 0)
(10.5244 0.337124 1.72813e-22)
(5.67075 -0.440845 1.23889e-20)
(7.18471 -0.277491 1.22309e-20)
(9.5678 -0.246667 -3.59478e-21)
(9.19039 -6.11242 -3.24918e-20)
(9.56448 -0.816959 3.3939e-20)
(10.1214 1.59108 -4.12203e-22)
(11.846 -3.24014 -2.43862e-21)
(9.5466 -2.07889 -7.95574e-21)
(-3.40468 1.63941 3.95169e-20)
(13.1173 2.27351 0)
(9.96815 0.199001 9.87602e-23)
(7.39119 -1.6028 0)
(8.26772 0.35931 -1.29148e-21)
(8.42337 -2.97156 -4.27818e-21)
(8.22522 -0.421826 -1.23911e-20)
(9.93592 0.0875993 5.06473e-24)
(12.718 0.138436 -1.04763e-20)
(8.24904 0.0688897 2.5301e-20)
(11.9007 -0.538818 -6.33467e-21)
(9.62578 0.503741 0)
(-13.5296 1.12292 0)
(12.0411 0.410872 4.64297e-22)
(14.6773 0.870647 0)
(9.61875 0.989773 -5.03076e-21)