/*--------------------------------*- C++ -*----------------------------------*\
| =========                 |                                                 |
| \\      /  F ield         | OpenFOAM: The Open Source CFD Toolbox           |
|  \\    /   O peration     | Version:  2306                                  |
|   \\  /    A nd           | Website:  www.openfoam.com                      |
|    \\/     M anipulation  |                                                 |
\*---------------------------------------------------------------------------*/
FoamFile
{
    version     2.0;
    format      ascii;
    arch        "LSB;label=32;scalar=64";
    class       surfaceScalarField;
    location    "9.6";
    object      phi;
}
// * * * * * * * * * * * * * * * * * * * * * * * * * * * * * * * * * * * * * //

dimensions      [0 3 -1 0 0 0 0];

oriented        oriented;

internalField   nonuniform List<scalar> 
20045
(
0.272928
-0.312133
0.0392051
-0.560243
0.228661
0.331582
0.183106
1.01627
-1.19938
0.043087
-0.00896781
-0.0341192
-0.523222
0.420427
0.102795
-0.300972
1.09563
-0.794654
-0.433881
0.0269643
0.406917
0.0195039
0.268615
-0.288119
0.281325
0.216191
-0.497515
-0.360015
-0.0795249
0.43954
-0.1348
-0.0517827
0.186582
1.05902
-0.509194
-0.549822
0.212126
-0.208811
-0.00331462
-0.590747
0.505112
0.0856351
-0.0400511
0.445227
-0.405176
-0.509935
0.149919
-0.0111382
-0.104508
0.115646
-0.00308275
-0.0875126
0.0905953
-0.770576
1.13798
-0.367408
-0.391709
-0.00273418
0.394443
-0.375112
0.334243
0.0408687
0.0759194
0.136207
-0.106959
-0.453284
0.950297
0.139094
-1.08939
0.411729
0.0713238
-0.483053
-0.25815
1.20845
0.039372
-0.0380332
-0.00133878
-0.74642
1.45045
-0.704027
0.757322
0.206945
-0.964267
-1.58684
0.909446
0.677397
0.191249
0.401114
-0.592363
0.585704
-0.488248
-0.0974564
-0.172469
0.756821
-0.584351
1.43119
-0.805683
-0.625506
-0.337224
0.356728
0.943717
-0.450678
-0.493039
0.529624
0.192888
-0.722513
-0.0339414
0.215726
-0.181785
-1.1031
0.556833
0.54627
0.312889
0.294308
-0.607197
-0.0448554
0.345917
-0.301062
0.079186
-0.113858
0.0346722
1.05792
-1.05922
0.00130377
0.709231
-0.24125
-0.467981
0.311946
0.397284
0.474904
0.584112
-0.0955876
-0.156232
0.25182
0.676126
0.170989
-0.847116
0.772122
-0.242498
0.13286
0.953132
-1.08599
0.664713
-1.09946
0.434747
0.994538
-0.704491
-0.290047
-0.542574
-0.356929
0.899503
-0.0543565
-0.172708
0.227064
0.128329
-0.232464
0.104136
-0.366346
-0.156876
0.249872
0.848267
-1.09814
0.847113
0.12995
-0.977063
0.758572
-0.931041
0.86024
-0.70819
-0.15205
-0.245452
-0.0980566
0.343508
0.203977
0.656264
0.220287
-0.799509
0.579221
-0.305617
-0.0694948
0.276909
0.0954098
-0.372319
0.568977
0.225142
-0.794119
0.0356292
-0.0500872
0.014458
-0.347499
0.0495488
0.297951
0.477904
-0.196579
0.72435
-0.737517
0.0131664
0.00729805
0.0283311
0.171845
-0.0435167
-0.134116
-0.558648
0.692764
0.101052
-0.100432
-0.000620017
0.610115
0.0283194
-0.638434
0.972686
-0.722813
-0.15084
0.760954
0.323784
-0.363835
0.290252
-0.0326384
-0.257613
0.0164656
-0.637956
0.621491
0.50317
0.548313
-1.05148
0.441806
-0.38151
-0.0602955
0.595458
-0.375171
-1.3058
0.206705
1.0991
-0.0037933
0.276721
-0.198679
0.261937
-0.0632584
0.235653
-0.646216
0.410563
-0.793278
0.0192877
0.77399
0.493361
0.122525
-0.615887
-0.408638
0.344721
0.0639169
-0.594216
-0.048643
0.642859
0.443792
-0.117431
-0.326362
0.223086
-0.331458
0.108372
-0.118
-0.402877
0.520877
0.332138
-0.363642
0.0315043
0.771798
0.10345
-0.875248
0.0241428
0.0152292
-0.0745626
0.198691
-0.124129
0.66004
-0.347151
0.0052906
-0.111315
0.106025
0.640465
0.303252
-0.21628
-0.374467
0.222866
-0.297428
-0.214359
1.06147
0.0337281
-0.232407
0.113832
-0.108541
0.207988
0.628935
-0.836923
0.55351
-1.02087
0.467361
0.194664
-0.271129
0.230242
0.0408861
-0.126971
0.16371
-0.036739
0.466267
-0.455325
-0.0109422
-0.284804
0.230447
0.771667
-1.47657
0.704903
-0.122573
0.188338
-0.0657656
0.0259784
-0.155628
0.129649
0.541221
-0.129493
0.971468
0.45972
-0.626723
0.492606
0.53875
-0.83664
0.29789
0.138405
-0.141488
-0.305191
0.0597392
-0.445795
0.355451
0.0903446
-0.549593
0.0684581
-0.344365
0.275907
0.675144
0.319395
0.539615
-0.759576
0.219961
0.799127
0.0844928
-0.88362
-1.06878
0.736365
0.332413
-0.0928061
-0.556525
0.649331
1.02524
-0.350095
0.193987
-0.350219
0.11798
-0.0138342
-0.104146
-0.0310928
0.0239432
0.00714958
0.577887
0.394013
-0.9719
0.608205
-0.549039
-0.0591657
-0.149744
0.0504221
0.0993215
-0.197597
-0.0735319
0.928267
-0.389517
-0.388015
0.389146
-0.00113114
0.538319
-1.14148
0.603157
0.126043
-0.668617
0.456468
0.230327
-0.686795
0.754873
-0.738408
0.95952
-0.131913
-0.827607
0.448575
-0.601705
0.15313
0.898907
-0.525715
-0.373192
-0.136217
0.178191
-0.0419748
-0.0893964
1.12304
-1.03364
1.05393
-0.296606
-0.819643
0.0182933
0.801349
-0.537229
0.35491
0.182319
0.942432
-0.439262
0.125374
0.316432
-0.624309
0.750133
-0.125824
-0.888918
1.07202
0.00440925
-0.219004
0.214595
-0.279544
-0.121864
0.401409
-0.0248922
-0.212697
0.23759
0.658544
0.119549
-0.778093
1.3755
-0.698128
-0.67737
-0.257964
0.233072
0.280382
-0.480539
0.200157
0.0937156
-0.0145296
-0.91885
-0.430413
0.632521
-0.202108
-0.624033
0.461105
0.162927
-0.00776866
-0.0513874
0.059156
0.484028
0.414879
-0.0137508
-0.0173419
-0.0337387
0.151719
-0.681197
0.0568878
-0.74816
0.926336
-0.178176
-0.697601
0.730195
-0.0325942
-0.518321
-0.43505
0.953371
0.108344
0.359824
-0.468169
0.401946
-0.422802
0.0208557
1.03243
-0.0757148
-0.956716
-0.00660099
-0.761189
0.76779
-0.353685
0.810153
0.192584
-0.590407
0.397822
-0.650417
1.42208
-0.758079
0.550867
0.207211
-0.0377463
0.0438743
-0.00612802
0.527225
-1.2332
0.705971
-1.13598
0.389564
-0.539764
-0.526372
1.42805
-0.855732
-0.57232
-0.398803
0.353947
0.154785
-0.164388
0.00960297
-0.567552
-0.21645
0.784003
-0.972661
1.37174
-0.399083
1.04903
-0.811294
-0.237738
0.018634
-0.202987
0.184353
-0.387043
-0.505867
0.892911
0.000718191
-0.135518
-0.505236
0.41243
-0.719912
-0.220119
0.940031
0.107897
0.0288955
-0.136792
0.132857
-0.56327
-0.348838
0.540087
0.849344
-0.0502165
-0.165569
0.131627
-0.195159
0.252709
-0.0575497
-0.267894
0.926439
-0.971988
0.584945
-0.187288
0.0208179
0.16647
-0.748741
0.156367
0.592374
0.29843
0.750602
1.30052
-0.773294
0.8968
-1.55392
0.657123
0.825067
-1.42708
0.602014
0.0587397
-0.450448
-0.512485
0.720473
0.632494
-0.933466
0.741121
-1.15592
0.414804
-1.67844
0.916246
0.762191
-0.0522468
-0.356391
0.19845
0.165375
-0.363824
0.686471
-0.252048
-0.434424
-0.122454
-0.783021
0.693624
-0.282759
-0.105257
0.655587
0.972063
-0.740909
-0.231153
-0.0123326
-0.147932
0.160265
0.632649
0.130965
-0.763614
-0.326798
-0.288068
0.614866
-0.417002
1.00213
-0.58513
-0.501216
0.736869
0.611572
-0.418988
-0.0350518
0.473852
-0.438801
0.974301
-0.435983
0.109202
-0.00877199
-0.10043
-0.257532
-0.194371
0.451904
-0.124627
0.129485
-0.00485809
1.4297
-0.863894
-0.565803
0.25522
-1.22788
-0.136569
0.0119425
-0.819314
0.232653
0.58666
1.34048
-0.58366
0.226496
-0.974656
1.63063
-0.712549
-0.918077
-0.014536
0.122433
0.953943
-0.55951
-0.394433
-0.619856
0.112048
0.507808
-0.897777
0.889496
0.00828187
0.708411
-1.35314
0.644734
0.0397523
-0.00349687
-0.0362554
-0.4695
0.598042
-0.128542
0.0190559
0.222248
-0.241304
-0.173192
0.0506192
-0.149614
0.0226424
-0.585973
-0.434897
0.387694
-1.00807
0.620381
-0.49597
0.436617
0.0593537
0.400468
0.185237
1.09739
-0.356266
-0.468681
0.189137
0.572758
0.767722
-0.525776
0.0555988
0.470177
0.45402
0.499923
0.411095
0.0341319
-0.490589
-0.00538125
-0.318629
-0.0703419
0.388971
0.00858706
-0.0463333
-1.0556
0.638602
0.497231
-0.684825
0.187594
-0.963542
0.934542
0.0290005
-0.392064
0.375879
0.0161851
-0.157934
-0.139393
0.297327
0.758689
-0.846546
0.0878572
-0.955517
-0.72292
1.18491
-0.740538
-0.444372
-0.110194
0.0978615
1.42074
-0.712332
-0.631061
1.01876
-0.570968
0.288769
0.282198
0.98965
-0.294575
-0.695075
1.01463
-0.331832
-0.682801
-0.308679
-0.262289
0.877748
-0.538089
-0.339659
-0.19385
0.815559
-0.62171
-0.151398
-0.520567
0.671965
0.0707878
0.19805
-0.268838
-0.12847
-0.024457
0.152927
1.23927
-1.09337
-0.145895
-0.568706
-0.500072
0.602422
0.36964
-0.884855
-0.0786871
0.165514
-0.423047
0.364319
-0.808592
0.444272
0.0028725
0.151912
-0.534023
1.11191
0.602376
0.827322
1.56694
-0.926235
-0.640701
-0.796465
0.576345
0.648799
-1.11877
0.469969
-0.630796
-0.0664507
0.697246
-0.396471
-0.0832579
0.479729
0.446472
-0.16609
-0.107978
-0.0793101
0.488918
-0.104271
-0.383977
-0.554685
0.840934
-0.286249
-0.234002
0.0388429
-0.379971
0.344919
0.0978213
-0.995599
0.312869
-0.814085
0.20457
-0.17218
0.228467
-0.056287
0.00698787
0.0360991
-0.456295
0.330523
0.125772
0.352359
0.113908
0.566478
-0.337784
-0.228694
0.466524
0.141681
-0.434482
0.798802
0.581523
-0.0881613
-0.233031
-0.51571
1.31818
-1.12227
-0.195907
0.761865
-0.910585
0.457395
0.45319
0.800734
-0.884921
0.0841871
-0.472803
0.354803
-0.137863
-0.0118809
-0.132015
-0.462201
0.361495
-0.57364
0.212145
0.421923
0.455825
0.623244
-1.075
0.451753
0.315436
-0.572365
0.256929
-0.974831
0.181553
0.0470016
0.396791
-0.455451
0.653058
-0.197607
-0.224216
0.320515
-0.0962991
-0.519954
0.0860721
-0.128302
-0.270039
0.398341
0.107151
0.000597861
-0.107749
-0.2681
-0.269129
0.343384
0.457802
-0.801186
0.887811
-0.433791
0.262577
-0.454064
-0.0187389
0.518525
-0.203089
-0.656007
-0.102072
0.133132
-0.10949
-0.0236421
0.939463
-0.263337
-0.522289
0.777165
-0.254876
-0.137407
0.164347
-0.0269406
0.657538
0.0289332
-0.432844
-0.375748
-0.547758
0.9487
-0.400941
0.55789
-1.06045
0.502565
0.563076
0.621833
-0.026052
0.0222671
0.00378489
0.114001
-0.744797
0.600124
-0.901874
0.30175
0.058327
0.0427247
-0.12135
0.660965
-0.419899
0.732769
-0.601691
1.42676
0.171612
-0.942188
-0.691144
0.373841
0.317303
0.674117
-0.140664
-0.533453
0.953423
-0.194734
-0.670597
-0.507284
-0.428985
0.703041
0.0645333
0.178772
-0.243306
0.333619
-0.336354
-0.773416
0.652066
0.827023
0.230895
-0.811725
0.289436
0.965361
-0.362939
-0.267916
0.254707
0.0132094
0.0179001
-0.594941
0.577041
-0.896525
0.157425
0.7391
0.733746
-0.733746
-0.448276
0.872009
-0.423733
0.225711
0.340767
0.585187
-0.299194
-0.285992
-0.996036
1.03992
-0.0438804
0.379416
-0.0182151
-0.361201
0.291004
-0.10014
-0.190864
0.133123
-0.291057
0.258521
0.458976
-1.09004
-0.834156
0.983759
-0.149603
-0.300838
0.644221
0.0266163
0.0154124
-0.0420286
0.446423
-0.450082
0.00365859
-0.391161
0.449901
1.46765
-1.11835
-0.349297
-0.10496
-0.501247
0.606207
-0.266327
0.28433
-0.0180035
0.163656
-0.289813
0.126158
-0.847507
0.362669
0.484838
-0.0107111
0.00174324
-0.275778
0.00786188
-0.0339309
-0.0568045
0.0907353
0.669055
0.570211
0.0686001
-0.0419838
-0.0691173
-0.238423
0.307541
-0.540187
0.847616
-0.307429
0.113082
0.180487
-0.293568
0.368721
-0.341757
0.648349
-0.264532
-0.383817
0.0458681
-0.448745
0.250046
0.782384
0.476509
0.272409
-0.748918
0.493174
-0.397486
-0.0956881
-1.01296
0.193316
-0.353755
0.153453
0.200302
0.45416
0.782444
-1.2366
-0.656483
0.590032
0.0499444
-0.92168
0.871736
-0.148103
0.166737
-0.0358649
0.0418209
-0.00595596
0.0628441
-0.381473
-0.0346727
0.101943
-0.0672701
-0.661973
-0.157341
0.622334
0.272601
-0.148476
-0.124125
-0.152776
0.0153691
0.136793
-0.68515
0.548357
0.259784
0.50631
-0.766094
0.501817
-0.700527
0.841422
-0.140896
-0.74098
0.547131
-0.0121978
-0.0258354
-0.373589
-0.250443
-0.289943
0.0670876
0.222855
-0.920576
0.380389
0.643878
-0.748838
0.441396
0.523965
-0.387973
0.342003
0.0459702
0.183942
-1.18713
1.00319
0.1879
-0.297368
0.109468
0.367772
-0.800615
-0.621291
-0.0763106
-0.350009
0.00250913
0.178843
-0.177693
-0.00115024
0.512131
0.00712873
-0.0234592
0.0163304
1.18319
-0.729026
-0.502278
0.862557
-0.360279
0.286726
0.200169
-0.486895
-0.344403
0.1963
-0.25322
-0.0367228
0.409334
0.175853
-0.262489
-0.574152
0.0795841
0.0535479
0.594595
0.445073
0.136449
-0.9335
1.06636
0.111572
-0.414766
0.303194
-0.0905757
-0.825713
0.916289
-0.0376994
0.0421954
-0.00449598
-0.449335
0.55768
-0.560695
0.409297
0.659544
-0.210969
-0.377846
-0.0784485
-0.00347961
-0.440396
0.443875
0.4059
-0.924221
-0.10316
-0.448381
0.551541
-0.0773089
0.14791
-0.0706011
-0.637678
0.0167311
0.620947
0.887193
-0.716204
-0.00267714
0.103191
-0.100513
-0.241042
-0.0252845
0.185352
0.3923
-0.577651
0.133208
-0.162639
0.0294316
0.547049
0.311851
-0.8589
-0.3057
1.0775
0.101536
0.00561532
-0.302338
-0.622819
0.925156
0.34937
0.578897
0.927094
-0.66731
-0.391515
0.263213
-0.152896
0.024426
-0.437668
1.08647
0.110871
-0.751421
0.64055
0.812369
-0.129071
-0.683299
-0.448194
0.653714
-0.205519
0.386215
-0.443635
-0.361124
0.804759
0.115003
-0.0858294
-0.0291731
-0.269429
-0.494246
0.763675
-0.0183503
0.464773
0.0600353
-0.067804
0.514226
-0.783656
-0.689663
-0.228315
0.917978
-0.0397438
-0.513671
0.553415
-0.130765
1.1688
-1.19424
0.0254469
0.217288
-0.112317
-0.104971
-0.0445403
-0.343433
0.255483
0.265394
-0.359145
-0.0373264
-0.808068
1.00903
-0.200963
-0.100095
0.597326
0.185983
0.56889
-0.799073
-0.260149
-0.0100252
-0.093725
0.10375
0.534576
-0.0895027
-0.232142
0.252655
-0.0205128
0.30072
-0.281664
-1.20174
0.661976
0.904282
0.191344
-0.0985492
0.262205
-0.222275
0.509001
1.06006
-0.601085
-0.236341
0.00419832
-0.144469
-0.628947
0.184327
0.26892
-0.264511
-0.922436
0.025911
-0.0684114
0.232073
-0.0441733
-0.735915
0.458652
0.277263
0.607308
0.117043
0.219689
-0.0785891
-0.1411
0.345075
-0.298035
-0.0470399
-0.699976
0.249297
-1.06161
0.513848
0.668206
-0.513125
-0.15508
-0.000965568
0.0489961
-0.0480305
0.950465
-0.0067649
-0.9437
0.197211
0.0140048
-0.211216
-0.15869
-0.287105
0.254403
-0.0313173
-0.0375322
0.0362627
0.00126949
0.443196
-0.0104525
-0.432743
-0.00342981
-0.0341023
0.763868
-0.660417
-0.0311884
-0.16236
0.193549
-1.006
0.19793
0.00800941
-0.12021
0.343075
0.113293
0.159308
-0.136447
-0.332234
0.243171
0.210039
-0.45321
0.276501
0.000408502
0.395083
-0.28351
0.228903
-0.202924
0.101773
-0.325988
0.537236
0.205292
-0.742528
0.565084
-0.073954
-0.49113
-0.355419
-0.246286
-0.278892
0.0718051
0.207087
0.349017
-0.371443
0.0224255
1.10833
-0.0433041
-1.06502
-0.11787
0.0828168
0.0350533
-0.521566
0.704176
-0.18261
0.591234
0.622762
-1.214
0.302434
-0.40049
-0.321882
0.470452
-0.148569
0.235161
0.109629
-0.34479
-1.14658
0.839439
0.30714
0.0331651
0.00309759
-0.849619
0.159956
0.338784
-0.201908
-0.136876
0.446314
-0.585488
0.139174
-0.108227
-0.203906
0.167962
1.00083
0.827588
-0.159701
-0.667887
-0.818037
0.11751
0.343752
-0.576784
0.914774
-1.39165
0.476875
-0.115249
0.313698
-0.00190923
-0.356037
0.28692
-0.174974
0.243433
-0.185669
-0.868989
1.05466
0.774325
0.646418
-0.751358
0.784383
-0.033025
0.16083
0.0180128
-0.555692
-0.21128
-0.129532
0.145323
-0.0157906
-0.030791
0.369543
-0.338752
-0.220651
0.452452
-0.231801
-0.0867331
0.533047
-0.699976
-0.0466834
0.74666
-0.738299
-0.253902
0.992202
0.44073
-0.35818
-0.0825499
-0.257637
0.00782038
0.249817
0.0586005
0.0204245
-0.079025
-0.98493
0.0453192
0.939611
0.0238348
0.213024
-0.236859
0.789324
-0.882989
0.0936648
-0.47675
-0.155008
0.810214
-0.655206
0.0144153
-0.143947
-0.0457204
-1.06546
1.11118
0.735962
-1.38638
-0.946942
0.827163
0.119779
0.155156
-0.0219477
0.800574
-0.614591
-0.0632499
-0.172635
0.235885
-0.0137617
0.164279
-0.150517
-0.147257
0.847595
-0.700338
0.697132
-0.324919
-0.372213
1.0301
-0.971704
-0.0583918
0.707111
-0.248841
-0.45827
0.0422791
-0.249929
0.20765
-0.321362
-0.0230037
-0.927812
0.807867
0.119945
0.0469335
-0.974746
-0.309109
0.430214
-0.121105
-0.534064
-0.559307
0.219216
-0.178733
-0.0404825
-0.78481
-0.221188
-0.205727
0.144205
0.0615221
-0.57618
0.249382
-0.903825
0.876481
0.0273437
-0.152927
-0.0399741
-0.0604576
0.220263
-0.0230512
-0.569685
0.100185
0.167751
-0.184654
0.0169032
0.196639
0.0899418
-0.286581
0.436971
-0.0575557
-0.21087
0.645275
0.0122629
0.356793
-0.111708
-0.00654264
0.11825
-0.085213
0.487159
-0.652524
0.435073
0.217451
0.0382387
-0.00507357
1.40265
-0.628322
0.978695
-0.794753
-0.195864
-0.153801
0.349665
0.64401
-1.16456
0.520546
0.584564
-0.624308
0.918807
-0.422153
-0.496654
-0.00465575
-0.559205
-0.0933191
-0.530419
0.903653
-0.373234
-0.0241847
-0.402559
1.29936
-1.05464
0.269834
0.193584
-0.122796
-0.0922791
0.103807
0.132988
-0.00350322
-0.484663
-0.466046
1.53062
-0.55793
-0.456113
0.279171
0.176942
0.0530024
0.238002
-0.645225
-0.476874
1.1221
0.173575
0.272896
-0.00662439
-0.15733
0.163954
0.822137
-0.018169
0.0309835
-0.0128145
0.733866
-0.19663
-0.335216
-1.00193
0.167776
-0.243213
0.0151831
0.22803
0.68105
0.949576
-0.158623
-0.23392
0.392543
0.971267
0.0588285
0.640758
-0.89935
0.258592
-0.820432
0.000779826
0.819653
-0.766857
0.994579
-0.227722
0.154245
-0.00760395
-0.146641
-0.597851
1.33381
-0.0378333
-0.539
0.576833
0.0231354
-0.774494
0.363626
-0.219954
-0.143672
-0.929015
1.21387
-0.284859
-0.206353
0.570014
-0.363661
1.16304
-0.514939
-0.648105
0.0193415
-0.591544
0.572203
0.0372329
0.00458798
-0.49808
1.08931
0.400741
-0.849017
1.04188
-0.483993
-0.20156
0.170371
-0.847977
0.0275449
1.13191
-0.50867
-0.00128722
-1.30452
0.329185
0.0167318
0.439892
0.591151
-1.03104
0.547834
-0.152042
-0.395792
0.435128
-0.882745
0.447617
-0.158314
0.00879027
0.149524
-0.198098
-0.513918
0.712016
0.36402
-0.262247
-0.0906153
-0.0782566
0.168872
0.107505
0.242048
-0.349553
0.0794484
0.139767
-0.922479
1.07438
-0.151903
-0.0516474
0.013948
0.472887
0.215197
-0.688084
0.418638
0.793209
-1.21185
0.188652
0.485465
-0.0180285
0.977549
-0.0106238
0.792181
-0.781557
0.174897
-0.0618157
0.0704837
-0.0195832
-0.0509006
1.43707
-0.942109
-0.494962
0.436642
0.482165
-0.111045
0.101649
0.00939591
-0.256224
0.779766
-0.523541
-0.0011355
0.185381
-0.184246
0.852689
-1.22759
0.374901
-0.16591
-0.550805
0.716714
0.80348
-0.170831
0.265462
0.282371
-0.483526
0.134911
0.348615
0.299829
-0.801076
0.235599
-0.447522
0.211923
0.196037
-0.0510846
-0.144952
0.00837932
0.0288536
-0.0568946
0.544341
-0.487446
-0.194081
1.14721
0.743191
-0.622344
-0.120847
0.652624
-0.530099
-0.479583
0.169049
0.310534
0.132624
-0.431819
0.315515
-0.289221
-0.0262936
0.0715596
0.14813
0.141746
0.733672
-0.875418
0.286545
0.156651
0.116592
-0.854891
-0.478422
0.0349653
0.443456
-0.373181
-0.216236
0.589417
0.528039
-0.284868
-0.838321
0.537483
0.222223
-0.177386
-0.0448366
-0.469255
1.0175
-0.548242
-0.434643
0.480511
-0.515846
0.454102
0.0617435
-0.593769
1.02151
-0.427744
-0.0192252
0.232279
-0.213054
-0.12321
0.122244
-0.303236
-0.593658
0.953444
-0.359786
-0.56463
0.720998
0.493322
-0.53576
0.042438
0.120672
0.445384
-0.566057
-1.2208
0.783094
0.437703
0.0109189
-0.0280849
0.017166
0.00989799
0.680398
-0.827655
1.10936
-0.465349
-0.268233
-0.42291
-0.705063
0.694439
0.460351
0.000754155
0.34012
0.103793
-0.443913
-0.361451
0.330716
0.0307345
-0.397928
0.472305
-0.0743768
-0.200424
-0.246411
0.446835
0.242663
0.428424
-0.671087
-0.697903
-0.260692
0.958595
-0.400902
0.521574
0.784553
0.652518
-0.944622
0.565631
0.378992
-0.558782
0.197328
0.361453
0.00539621
0.202539
-0.254188
0.0516493
-0.498136
-0.634781
0.434358
0.147621
0.216751
-0.174472
-0.312013
0.281222
0.217288
-0.773813
0.0216754
0.310463
0.222457
0.00556921
-0.228027
-0.687056
-0.529825
1.21688
-0.30325
-0.180277
-0.485555
-0.0856421
0.571197
0.0725497
0.256175
-0.328724
0.00395773
1.12806
-0.739693
-0.388366
0.194668
0.63292
0.105577
-0.141858
-0.279797
0.421655
-0.761277
1.03009
-0.268809
-0.542862
-0.244855
0.787717
-0.48482
0.162937
-0.349972
-0.129611
0.822013
-0.415251
-0.406762
0.455936
-0.0186106
-0.437326
0.336708
0.0811212
-0.417829
-0.184713
0.208547
0.011035
-0.0562349
0.0451999
-0.122165
-0.0323531
-0.225611
-0.00492837
0.429878
0.392136
-0.374073
0.930906
-0.473363
1.38281
0.472333
-0.0163966
-0.825467
0.282605
0.74355
-0.629549
-0.126279
-0.660223
0.138657
0.0992308
-0.40834
0.684525
-0.666625
0.836175
-0.0354409
-0.203058
-0.1284
-0.208178
-0.0778501
0.286028
-0.318937
-0.044705
0.723757
0.154105
-0.877862
-0.0109737
-0.248221
0.259195
-0.147125
0.482811
-0.948317
0.465507
0.848571
-0.0592476
-1.11055
1.22803
-0.117474
0.211218
-0.161669
-1.01907
-0.201732
-0.271428
0.830117
-0.0222498
0.590806
1.06332
-0.388948
-0.674371
-0.613054
-0.0378072
0.650861
0.259742
0.442052
-0.701794
-0.703639
0.0659606
-0.175451
-0.091074
0.266525
-0.476322
0.587193
0.154056
0.482271
-0.636327
0.172213
-0.2035
0.0312868
-0.93382
0.117788
0.816032
0.527524
0.581836
-0.293796
0.517969
0.189141
-0.236161
-0.117594
0.86739
-0.999303
0.484951
-0.0378668
-0.447084
0.439692
-0.137259
0.669619
0.0233167
-0.692935
0.889403
-1.36277
-0.00301643
0.0427687
-0.192552
0.3382
-0.145648
-1.09424
1.04852
-0.0392067
0.323149
-0.283942
-0.0228065
0.0770728
-0.0542664
-0.506922
0.0575864
-0.270553
0.614306
0.151203
0.517003
-0.163492
0.177907
-0.676215
0.388147
0.0550382
-0.058535
-0.20271
0.193601
0.00910948
0.218399
-0.24387
0.0254718
-0.528677
0.556996
0.117638
-0.603193
-0.0842684
-0.314534
-0.016944
0.567755
-0.550811
0.337619
-0.40796
0.0895849
-0.70891
0.619325
-0.201247
0.823807
-0.62256
0.262473
-0.817158
-0.450537
-0.0225873
-0.924355
0.569934
0.960682
-0.713349
-0.124972
-0.49408
-0.416505
-0.444143
0.174103
-0.0444887
-0.045446
0.0899347
1.45198
-0.770926
0.776248
-0.176124
-0.246041
-0.161526
0.407567
-1.17408
0.569964
0.604114
-0.267906
0.216123
-0.680143
0.525135
0.171074
-0.0951549
-0.257153
-0.520865
0.483032
0.244131
-0.236658
-0.00747293
-0.117686
0.841443
-0.36318
0.391691
-0.0285111
0.825167
-1.22499
0.548539
0.676453
0.129839
0.285107
-0.414946
0.550968
-0.135511
-0.415456
-0.53874
0.332387
-0.409826
-0.0241989
0.360907
0.883088
-0.973664
0.430375
-0.195214
-0.368048
0.667876
-0.781179
0.55165
0.229529
0.878303
-1.28188
0.403579
-0.665798
0.732594
-0.0667966
0.374878
-0.460091
0.0130157
0.188259
0.252471
0.283271
-0.921227
0.403677
-1.19182
0.741159
0.450662
0.223734
-0.836788
0.578445
-0.0192431
-0.600613
0.136624
0.215149
1.03452
-0.358291
-0.67623
0.0843326
0.233632
-0.606813
0.166616
-0.924712
0.886905
-0.728566
0.284931
0.450015
-0.649238
0.309918
0.339319
-0.907488
0.541172
0.366315
-0.18969
0.107512
-0.184821
-1.02412
0.717429
0.306689
0.733002
-1.33085
-0.912181
-0.0102975
1.36632
-0.451543
0.0792248
0.129445
-0.20867
-0.0240485
-0.145262
0.169311
-0.00725003
0.435148
0.522036
-0.344455
-0.304783
0.139922
0.224098
0.196202
0.36968
-0.565882
0.398969
-0.233594
-0.0318012
-1.00336
1.03517
-0.321676
0.333378
-0.687063
-0.583864
-0.427476
1.01134
0.240924
-0.358355
-0.69347
0.206443
0.487027
0.0126817
0.028846
-0.0415277
0.698322
-0.88399
0.120882
-0.313434
0.757728
0.618304
-1.37603
-0.381226
-0.0748869
-0.831716
0.233303
0.598413
-0.784072
0.618162
0.234963
-0.99624
0.0523786
0.432572
0.0125133
0.000168412
-0.0270667
0.839436
-0.579594
0.751244
-0.17165
0.767506
0.00332038
-0.770827
-0.504094
-0.0109818
-0.161198
0.0617212
0.672025
0.133793
0.0305543
0.303894
0.569729
-0.344018
0.486967
-0.0335758
-0.364352
-0.852253
-0.0515715
-0.798313
0.276849
-0.836359
0.176423
0.200256
-0.376679
0.765149
0.0509108
-0.81606
-0.111402
0.103798
-0.352668
-0.708939
-0.757491
-0.12743
-0.510314
1.39972
-0.333012
0.472236
-0.139224
-0.965697
0.278641
-0.296727
0.492928
-0.322662
-0.413253
-0.573821
-0.265518
0.286374
-0.182523
0.379162
0.951831
-0.121714
0.593386
-0.196241
-0.397144
-0.0472416
0.521094
0.269626
0.993995
-0.94405
-0.0324531
-0.226918
0.33529
-0.462817
0.518416
-0.468316
-0.59475
0.236721
0.16924
-0.405961
-0.768958
0.0352112
-0.133291
0.761477
-0.628186
-0.0222634
-1.08829
-0.638955
0.769919
1.43506
-0.658909
-0.776153
-0.101829
0.255282
0.663925
-0.320244
-0.343681
0.27216
-0.304513
0.0296106
0.0408732
-0.15131
-0.00111316
0.152423
-0.0970723
0.437192
-0.591829
1.32483
-0.012654
-0.166079
-0.270423
-0.0971353
0.367558
-0.0306665
0.728988
0.788999
-0.155993
-0.633006
-0.389898
0.575249
0.377717
0.402049
-0.496288
0.0178668
0.546526
-0.215261
-0.331266
-0.0505935
0.0353566
0.0152369
0.139948
-0.732185
0.592237
-0.897731
0.14024
0.223536
-0.55958
0.836429
-0.0138224
0.285983
0.137657
-0.470669
-0.8705
0.441515
-1.00298
0.304848
-0.457591
0.0664298
-0.354359
-0.547288
0.901647
-0.790602
-0.0164364
-0.0456514
0.0620879
0.975019
-0.768314
0.745414
-0.485672
0.113765
0.520844
-0.634609
0.147631
-0.323082
-0.479137
-0.337886
0.817023
0.160036
-0.453524
0.293489
-0.743493
1.37225
-0.628757
0.649222
-0.47095
-0.178273
0.588851
0.022506
-0.611357
-0.507834
-0.717159
-0.30609
-0.0439186
0.399572
0.625667
-0.00863195
0.100188
-0.0915556
-0.66858
-0.163136
0.604905
0.533079
-0.528132
0.643713
-0.115581
-0.0560062
0.0869897
-0.0513659
0.230259
-0.178893
0.0449665
-0.408147
-0.115155
-0.908963
-0.933653
0.206335
0.0158881
0.285822
-0.63466
0.0852818
0.67937
-0.764652
-0.479497
-0.0901884
0.470171
0.41764
0.067669
-0.265266
0.0233395
0.0889216
-0.112261
0.00680865
-0.324553
0.317744
0.065746
0.310133
0.377929
0.823886
-0.401964
0.754067
-0.420689
-0.116095
-0.255029
0.371124
0.715143
0.100416
-0.0011844
-0.66955
0.471452
0.199813
-0.23048
-0.380424
-0.758376
1.1388
-0.571451
-0.602627
-1.04961
1.0797
-0.0300909
0.21092
-0.2985
0.22065
0.534342
0.289545
-0.185314
0.618912
-0.433598
-0.256453
-0.481064
-0.287423
-0.500979
0.788402
0.42044
-0.246865
0.465916
-0.230317
0.549825
-0.902493
0.405144
-0.33382
-0.439653
0.886226
-0.446573
0.659154
0.395744
0.323155
-0.718899
1.05443
-0.581211
-0.473219
-0.768497
-0.57941
1.01315
-0.433744
0.236332
0.357054
-0.298154
0.284332
0.40798
0.755064
-0.214741
0.190693
0.0198384
-0.0127096
0.898806
-0.504793
0.501565
0.950411
-0.410091
0.221834
0.188257
0.191427
-0.387291
0.691856
-0.0222375
0.296996
-0.217771
-0.616172
-0.110714
0.726886
0.188381
-0.0233388
-0.165042
0.155049
0.0622384
0.125037
-0.891894
-0.290722
0.353566
0.632187
-0.580661
-0.0515254
0.182654
0.363873
-0.154207
0.0756176
0.29675
0.192011
-0.48876
-0.316781
1.07535
-0.168351
-0.511115
1.03419
-0.523076
-0.227795
0.335301
0.241892
-0.0696793
1.05572
-0.545323
-0.339533
0.189631
0.361336
0.30617
-0.390438
-0.172227
0.153002
-0.279818
-0.143138
-0.00963825
0.108739
-0.164541
0.766437
-0.601896
0.0397186
-0.0736495
-0.258238
0.085603
-0.327453
0.0213633
-0.865698
0.56336
0.267567
0.202885
-0.276922
0.457927
-0.181004
0.193591
0.0683459
0.734323
0.423704
-1.15803
-0.111343
-0.0120626
0.123405
0.198906
-0.701185
0.980097
0.454966
0.734678
-0.649396
-1.01708
-0.038286
-0.0209829
0.0477895
0.42442
0.380361
0.34145
-0.72181
0.423088
-0.0854699
-0.0270742
-0.308715
-0.101376
-0.532096
-0.349608
0.482232
0.471922
0.390635
0.511806
-0.513399
0.00159298
0.187521
0.00608003
-0.0614936
0.252175
-0.033776
0.660286
0.153981
-0.814267
0.307804
-0.0636732
-0.228687
0.141024
0.0876631
-0.342353
-0.0189295
0.361283
0.214912
0.550328
-0.76524
0.194284
0.333755
0.63568
-0.0193073
-0.265496
0.225185
0.344544
-0.00840529
0.0540176
-0.0456123
-1.00326
0.476892
0.789066
-0.609734
-0.179333
0.0134965
-0.135393
0.121897
0.7283
-0.785195
0.530842
-0.110402
0.394674
0.35074
-0.13729
-0.00584733
-0.0860398
0.0270256
0.0590142
-0.472421
-0.120174
0.999318
-0.513281
-0.486037
0.407505
0.00552509
-0.41303
0.429035
-0.677214
0.248178
-0.0607982
0.463915
0.0546097
-0.545032
1.23633
-0.691301
-0.0707522
-0.0152876
-0.474452
0.415728
-0.0240371
0.658114
0.00337756
-0.661492
-0.349286
-0.035474
0.257931
0.12009
-0.0184414
0.143758
0.194442
-0.496547
0.275897
0.0117956
-0.0535301
-0.0861667
0.119895
-0.380707
0.494472
-0.000389884
0.26931
0.202112
-0.16569
0.566157
-0.0316276
0.543434
-0.147625
-0.119975
-0.189986
0.486735
-0.116768
0.831843
-0.715075
-0.729963
-0.119656
-0.809082
1.28963
-0.480553
0.0216806
0.394048
0.32251
-0.053895
-0.0144386
-0.250618
0.265056
-0.793946
0.248623
0.128285
-0.130963
0.563356
-1.20858
0.419962
-1.04278
-0.825555
0.964648
-0.450101
0.496333
-0.304323
0.00944222
-0.543078
0.683026
0.00119865
-0.149131
0.0953041
-0.453484
-0.111487
-0.551953
0.66344
-0.613221
0.599327
1.37174
-0.900793
-0.470951
-0.207422
0.0749854
0.215342
0.0198546
-0.235196
-0.742656
0.163062
0.189714
0.00632259
-0.00471983
-0.124235
0.128954
0.541447
-1.35053
0.0921747
0.413594
0.0526668
-0.466261
-0.928955
0.812187
0.137874
0.0368102
-0.174684
0.365591
-0.959249
-0.141471
0.000900141
0.14057
0.176721
-0.038847
-0.00117133
0.675458
-0.486807
0.531773
0.4865
-0.292216
-0.819791
0.235926
-0.598411
0.509239
0.0891727
0.705943
-1.08637
-0.486646
-0.264665
0.751311
-0.037411
0.392321
-0.295696
0.277481
1.01959
-0.149247
-0.870342
-0.0125349
-0.839719
0.541172
0.0476783
0.341366
0.32256
-0.156577
-0.000752345
0.13847
-0.211914
-0.361725
0.0356531
-0.0314082
-0.00424497
0.0130226
-0.575138
0.562115
-0.1669
0.392905
-0.226004
0.49594
-1.09971
0.603768
-0.0580709
-0.490968
-0.0280179
0.012194
0.610259
-0.342376
-0.168396
0.510772
-0.342735
-0.319238
0.432174
-0.262934
0.231685
0.157328
-0.389013
0.0542978
-0.33122
-0.76656
-0.100068
-0.0625138
0.162581
0.221438
0.130245
-0.351683
0.355909
-0.755069
0.39916
0.061449
-0.514733
0.150009
-1.07902
-0.617326
-0.75439
1.37172
-0.841201
0.0287434
0.812458
-1.06681
-0.713429
0.0476312
-0.31814
0.301439
0.0167003
-1.36605
-0.291826
0.952112
0.381713
-0.171674
0.118147
-0.308133
-0.126431
0.460186
0.144899
0.0988429
-0.369266
0.0145009
-0.120275
0.105774
-0.153527
0.01731
-0.0806862
0.0941826
-0.304113
0.433951
-0.968188
0.579144
0.389044
0.0423349
-0.150313
0.45281
0.1998
-0.011419
0.405708
-0.591022
-0.457223
-0.236246
-0.514808
0.158366
0.356441
-0.0563023
0.199702
-0.1434
-0.422813
0.429622
-0.0834386
0.675812
0.933978
-0.14498
0.435238
-0.777973
0.383055
-0.481978
0.0989224
0.113041
-0.00985002
0.0219463
0.000320831
-0.89157
0.537211
0.0218325
0.385673
0.0128843
-0.188062
0.175177
-1.45355
0.564627
0.320425
-0.514796
-0.182629
-0.0176989
-0.211457
0.229156
-0.529143
0.186768
-0.990034
0.874879
1.45702
-0.699296
-0.219483
0.20749
0.0119938
-0.0714245
-0.0223004
-0.14619
-0.641037
0.226908
0.414129
-0.139137
0.127074
0.0386796
0.314452
-0.353132
0.301648
0.229194
0.122046
-0.0539024
-0.0681434
-0.286228
0.285838
0.085957
-0.0276301
0.384825
-0.888344
0.931099
0.0401681
-0.572818
-0.0733977
0.843626
-0.0433244
-0.800302
-0.167728
-0.282055
0.449783
0.444982
-0.929645