/*--------------------------------*- C++ -*----------------------------------*\
| =========                 |                                                 |
| \\      /  F ield         | OpenFOAM: The Open Source CFD Toolbox           |
|  \\    /   O peration     | Version:  2306                                  |
|   \\  /    A nd           | Website:  www.openfoam.com                      |
|    \\/     M anipulation  |                                                 |
\*---------------------------------------------------------------------------*/
FoamFile
{
    version     2.0;
    format      ascii;
    arch        "LSB;label=32;scalar=64";
    class       volScalarField;
    location    "0.1";
    object      p;
}
// * * * * * * * * * * * * * * * * * * * * * * * * * * * * * * * * * * * * * //

dimensions      [0 2 -2 0 0 0 0];

internalField   nonuniform List<scalar> 
13486
(
3.24148
3.0733
0.393356
0.95131
0.181341
1.98258
-0.0744431
1.52798
2.18005
2.30165
0.78502
0.682848
3.45618
1.42437
0.699127
2.39138
0.302531
0.737404
0.552872
3.09835
1.08977
3.3668
3.06355
0.960479
2.45627
0.91957
0.582459
0.552943
0.190707
0.695469
1.04061
0.466804
0.833904
0.579064
1.51375
-0.0833496
0.288456
2.63346
0.402252
2.34188
-2.00893
3.6753
-0.113077
2.4141
2.32021
0.703627
0.440894
-0.0675539
0.222408
1.13373
2.80627
0.31338
0.850449
2.59194
0.757434
0.62986
0.350404
0.281534
0.929538
0.144481
0.84076
0.241978
0.57896
1.07776
0.901966
0.338592
1.0631
3.45355
2.10117
0.0815127
1.05375
0.714454
2.40797
-0.987022
0.24568
0.505825
0.240458
0.806632
0.229029
0.542578
0.100278
3.1495
0.52281
0.327156
3.27081
2.4613
0.357226
2.81246
2.89302
2.4905
0.584243
0.941609
3.09047
3.1593
2.11704
-0.0138557
0.584694
1.0805
2.33514
0.423226
-0.055027
1.65292
1.09351
0.330112
2.65951
0.416279
3.07258
0.388588
0.431734
0.610822
1.78093
0.408397
2.58219
0.0282961
3.90693
2.13475
2.39038
0.617816
2.33392
0.196123
0.704448
0.83048
2.14317
0.401367
1.69613
0.289887
1.509
2.0016
0.724329
0.763881
0.313941
0.45312
-0.555799
-2.3265
2.64006
2.73603
4.25126
0.726784
0.193862
1.56985
0.834825
0.859467
0.877101
0.567328
0.0175847
0.543204
0.358018
3.63613
1.0525
0.0917569
2.66301
0.188734
0.230832
3.15596
2.122
0.57621
0.233599
0.0725325
2.3111
0.332554
1.17497
2.33624
0.595871
3.66578
0.374992
1.39844
1.46583
4.57642
0.510731
-2.10429
-0.685815
2.23833
2.64889
0.742428
0.279476
0.904539
1.33755
0.753943
3.10668
0.923014
1.84938
0.0881582
0.616029
0.87982
0.460854
0.652716
0.0179878
0.595198
-1.75612
2.06571
0.223471
0.174722
0.207909
3.52073
0.537285
0.803679
0.808996
1.42731
2.91491
1.56014
0.994426
2.09222
2.66742
-0.587275
0.35987
0.546719
0.635504
2.61552
0.320152
0.490219
0.464514
0.822531
3.05373
3.12563
1.60094
0.763531
0.652619
2.55218
2.96785
0.670902
0.292681
1.24466
1.79976
1.29571
0.425531
3.21707
1.46371
1.07843
0.719954
0.456701
1.86531
-2.11298
0.847153
3.76702
1.16501
2.9454
0.615501
0.251801
2.97897
0.623984
0.587768
2.72794
0.0898523
2.85301
0.437426
3.06389
0.663694
0.519619
-1.15078
2.48409
0.981015
3.9519
1.86395
0.234805
0.646439
1.05144
0.522482
0.772719
0.095445
0.473063
2.98489
0.359227
0.39334
1.08522
0.438528
0.857765
0.75119
1.14171
2.31934
0.598925
3.01864
2.87254
0.49626
0.505047
3.21534
0.663574
0.635216
0.639657
0.280472
0.22703
0.726753
1.73012
3.01612
1.01841
0.853397
0.445019
0.766379
0.724614
0.447967
2.45329
1.14259
0.555664
1.99305
2.82913
0.651987
0.617156
1.31449
0.604131
2.87231
-0.425731
0.665947
0.530274
0.360367
0.682751
0.226766
-0.458006
-2.99752
0.869221
0.434027
0.240257
-7.9739
0.894822
1.51248
0.502094
0.785002
2.68036
0.605185
2.83404
2.67684
0.608701
0.295603
0.471699
2.86693
3.26061
4.18429
0.717111
1.12928
1.68503
0.790198
1.11745
2.72089
0.965892
0.624465
3.38493
-0.0812692
1.91534
3.99089
0.359434
2.56307
0.452194
0.658098
3.16972
1.02613
0.716693
0.969372
-0.0258428
1.4172
3.86983
0.449673
0.709968
1.0843
0.603312
0.550444
0.724655
2.92053
0.109336
-1.01664
1.48476
0.480886
0.879237
0.667566
0.741006
2.95304
2.84003
0.612696
0.143398
0.660922
0.3416
3.09646
1.38776
-0.0274564
1.58521
0.452651
1.08186
1.58852
3.0159
3.04849
0.617062
0.866938
-0.305171
2.21655
0.896786
3.47925
3.09284
0.360397
0.6263
2.02922
2.62677
-0.181908
0.987051
3.0198
0.512656
2.54797
3.04779
3.57134
0.277998
0.960297
1.09633
0.145833
0.641067
-0.166225
2.1515
2.25637
-8.08495
0.0230647
0.367001
3.20286
0.845259
1.46882
2.98412
2.48372
0.336491
0.743609
2.89769
2.96849
3.4893
0.996805
0.501654
-0.307751
0.740967
3.10161
0.61319
3.89313
2.73865
1.92112
0.602516
2.02338
3.03314
0.62234
1.74028
3.36614
2.33393
2.48912
0.628507
-0.0273227
0.807476
3.41208
0.692071
0.97895
3.42298
0.168576
0.459828
-3.38398
0.701378
0.331074
2.66931
3.20964
3.39975
-0.47554
0.257186
0.948893
2.79153
2.84121
1.13547
0.72819
3.2535
1.02975
0.928547
0.910964
0.632634
1.54739
2.67475
0.293914
1.71382
0.980314
2.99098
0.0824057
4.27867
3.17333
2.30789
1.33186
-0.158721
-0.00470232
3.96958
0.768984
0.247036
1.86125
1.90028
0.458658
0.587271
2.91733
0.163307
1.17657
3.01451
0.682792
0.195008
2.70268
1.00784
4.55306
2.62562
2.84192
2.71238
1.02478
0.374188
3.88646
0.181951
3.04025
-0.203371
2.20711
1.1234
0.638004
-0.00289184
0.460423
2.8315
1.93594
1.00454
0.0158856
1.72305
3.60067
2.55992
0.709317
2.01067
1.52274
1.24625
0.353235
2.93587
-0.492259
3.38304
0.230135
0.25828
3.60979
0.916787
-0.0526778
1.19433
1.09292
1.09004
0.587279
0.652787
2.28784
3.08621
0.884023
0.0446784
0.885632
0.0206065
3.02993
2.16466
0.998874
1.10123
0.63465
0.12862
1.54367
0.865249
0.815644
2.10423
3.43355
0.564717
2.97009
0.683289
1.0445
0.100236
2.36508
0.940583
2.53879
0.667973
0.884789
1.70918
2.44838
0.716504
0.888519
2.87158
3.05525
2.2349
3.2663
0.407024
2.69577
2.17105
2.6924
0.0919974
2.93445
0.676604
2.13779
1.67489
0.745504
0.664981
2.80687
0.129813
0.580796
3.31356
3.41407
0.955552
0.167968
2.11497
0.417712
2.12733
2.67313
-0.880962
0.788132
2.07326
3.30355
2.06652
1.73195
1.23401
3.4671
0.829158
0.203061
3.01878
1.23458
0.733211
1.45551
1.50615
0.685005
0.501577
2.39525
0.732018
3.40074
1.85153
1.61129
1.61319
0.68059
0.944218
3.73697
2.41666
3.77575
1.09831
2.54024
0.0639175
-0.961559
0.529813
2.49914
3.95979
0.819913
0.655841
1.06351
0.353393
2.49876
0.696528
1.243
1.80179
0.861854
0.649492
0.828152
1.27719
0.769636
2.81028
0.0195964
3.71752
2.00748
0.442255
1.04177
0.638772
2.38134
0.774669
1.40942
0.446607
3.00502
0.120976
0.0442914
0.944751
3.42099
-0.0431027
0.775238
3.60317
2.97703
1.02841
0.566379
1.38992
2.00003
1.81713
0.0727213
0.982762
2.54374
2.19801
2.19649
1.71335
3.69153
0.132617
1.00966
2.81117
0.658258
1.83778
1.2284
2.50436
2.52085
0.982584
0.786817
0.598812
0.687095
3.02723
2.07912
0.667704
0.260476
-2.69923
0.625871
2.9994
0.42895
1.82591
2.10103
3.43875
0.730992
0.439606
3.71852
0.0576616
1.03289
2.4576
0.849041
3.01272
-0.139621
3.21024
-9.80998
-1.45775
0.669175
0.0229296
0.310271
2.49253
3.88603
0.7344
0.789763
1.36718
2.87319
0.605615
2.40428
0.905157
3.90882
0.944212
1.23428
0.96861
2.52897
2.98872
2.15001
-0.451565
1.04223
3.48692
3.16713
-0.143627
2.23386
-1.46646
1.59781
1.43204
2.52228
-5.78521
0.777907
3.12972
0.150159
0.363486
1.44254
1.08527
0.83318
0.342954
2.59698
2.86008
1.09571
0.387765
1.02704
1.05907
0.748064
0.791051
0.618087
3.12035
1.44067
0.430747
2.31832
0.942898
0.608117
0.655739
1.36997
1.0903
0.557218
0.38171
1.00684
1.84282
3.47273
0.221695
0.731003
3.62014
3.40892
1.02086
0.849847
2.1276
0.0844423
0.019418
0.68623
1.93089
0.895323
0.226893
2.26355
2.68546
1.44482
0.816089
0.887853
1.7033
1.6832
2.26441
1.28397
1.00029
2.66736
3.31285
0.643717
1.03613
2.21833
-0.713561
1.22531
0.400422
0.717627
1.04408
1.69487
2.89464
3.81562
2.70979
0.593506
1.63319
2.87148
3.22753
1.3968
2.1257
2.59584
3.61308
0.380634
0.460976
2.09068
0.694554
3.5087
0.319465
1.73025
1.37383
0.741018
0.76696
1.60975
0.914842
2.93351
2.63848
3.05759
2.44526
0.483482
1.76536
0.745258
0.804058
0.662355
0.770552
0.0440813
0.942264
0.898371
2.36722
0.669298
-1.19405
0.633909
0.80997
1.09943
0.774903
0.990138
2.71001
1.12005
3.4579
1.02033
-1.04324
2.44033
3.08071
0.259299
1.89901
-1.39515
3.03952
0.54621
0.73034
0.673052
0.247988
0.705144
2.86646
0.163064
2.55476
0.459674
1.95639
0.624081
0.112735
0.310561
2.61436
0.811458
0.717912
1.00885
3.33199
0.710996
1.03802
0.612987
2.60674
1.09978
0.513522
0.637263
0.881017
0.635135
1.14717
0.878222
2.68916
3.20117
2.30226
2.48011
0.134583
0.797222
2.7092
1.33157
2.51438
2.5752
0.566635
0.289836
0.479648
1.79148
0.263537
2.9357
2.47549
0.502338
2.75496
0.800561
1.61745
3.92914
1.6874
0.644516
2.77151
0.530111
0.28414
0.550652
1.03222
2.69243
0.20395
-0.0413657
0.116499
0.756088
2.71434
1.04285
0.12054
3.05431
0.351723
3.40238
2.95476
2.86168
0.596588
2.53264
0.872926
0.182878
1.09685
2.16956
-1.11901
0.754862
0.633051
0.829973
0.947292
2.48895
0.807444
0.87135
0.943328
-1.80875
0.189183
2.86662
-0.0393012
0.729781
-13.0357
3.0891
3.85464
0.428977
0.95657
2.57447
0.804969
2.55533
0.498976
0.479462
2.57049
0.303801
3.7055
1.24458
2.84273
0.627246
2.85787
0.134961
3.02705
0.220185
0.519407
1.34591
0.844244
1.03505
0.609791
-1.38207
3.39096
2.95641
2.93256
3.10136
3.00529
2.62242
0.943108
2.15587
3.00165
2.81068
0.620364
1.437
0.714663
-0.156279
0.564296
2.18297
-1.56944
3.94429
0.500257
0.125028
3.79142
3.16113
0.786434
0.733052
2.24102
2.52499
-1.68578
1.94026
-1.99935
1.27869
2.79017
2.88683
0.436955
2.2682
2.9541
0.193213
1.43268
2.99508
0.767916
0.257758
0.738725
0.516167
0.889041
2.8559
2.45471
0.239142
0.760369
0.710119
0.571295
-0.109633
0.647003
3.49025
0.300361
4.18496
2.45798
0.593101
2.58565
1.01917
-0.67081
1.11164
2.62708
0.436889
-4.29775
0.969616
2.47573
2.52268
0.458294
0.857353
0.16068
1.03042
0.526504
0.513694
1.65234
0.729453
2.76206
2.87981
2.73889
2.09008
0.766766
0.785538
0.858466
0.441313
0.996268
1.50088
1.59941
1.01737
0.161786
0.241991
0.775638
0.90766
1.58787
2.60559
0.493742
0.674027
0.828913
1.22776
0.883474
0.64987
0.643426
2.24711
2.73784
2.69273
-3.72749
2.88087
0.12005
3.05344
1.26037
2.51488
0.654541
1.65366
3.59075
3.91796
1.87255
0.358861
2.68113
1.58207
3.67634
0.79614
0.872057
0.912814
0.600422
0.139157
0.489857
2.82878
2.4729
0.613619
-1.108
1.42675
2.23528
3.92175
0.783629
2.70698
0.142039
1.669
3.44777
0.613247
1.59619
0.768982
2.24111
0.791875
4.11947
0.313527
0.745126
2.45386
0.60354
0.935134
-1.90016
0.739343
2.98603
0.553375
0.48825
3.37436
3.11374
0.626446
-0.213023
0.456152
2.01291
2.50132
2.20003
3.01874
1.45782
0.668503
3.09788
1.5253
0.764232
1.27206
2.95544
2.65589
0.9967
-0.111259
-0.0683354
2.86152
3.53096
1.18736
0.726424
0.991374
3.93643
0.719951
0.772168
3.76408
2.75241
0.515516
1.56939
1.02042
0.967632
0.75199
0.756708
0.459614
1.08427
2.11195
0.829455
0.0885645
0.308524
0.520315
0.0547698
0.0247688
1.06016
2.88565
2.88783
0.211984
0.206434
0.616796
1.95701
0.808576
4.1655
0.701515
0.925047
2.82215
0.788817
1.06346
1.39289
1.3424
2.57453
4.22675
-0.0426892
0.553317
0.890555
0.371659
1.00081
1.85644
1.43816
3.26068
2.64495
2.84906
1.08499
0.609117
0.119738
2.13132
2.93434
2.0953
2.9007
3.89253
3.83726
0.782907
2.86788
2.98216
0.979996
2.97889
0.317476
3.80265
2.95636
1.98343
2.94955
2.5508
1.28908
0.331476
2.79997
0.8406
1.84169
0.254212
0.871867
1.86489
2.54478
0.123348
0.592125
3.63119
3.64309
1.17699
-2.49862
0.659822
-2.755
0.67865
2.84471
3.21407
-2.73106
2.82403
1.83862
0.850641
2.09689
0.955168
0.804813
0.326709
4.11481
0.533443
0.48642
3.08833
1.99303
0.190624
2.71359
0.514959
2.69713
-0.463493
0.603662
1.31057
1.4851
0.791712
1.14575
3.82168
3.11911
2.72028
3.85218
3.55826
0.898181
0.296894
0.737554
0.0938441
3.57343
1.01153
2.20486
1.67283
1.04175
0.9827
2.62429
0.580574
0.918647
2.60806
4.26006
0.730062
0.76861
0.490534
2.40815
0.485394
1.10992
3.45481
2.91291
1.85698
2.74368
0.805245
-0.075291
0.432995
3.82449
0.249906
4.08666
-3.95163
0.58663
-0.386297
0.235525
-1.12348
0.596163
0.491726
2.4405
0.379595
2.25462
1.1253
0.0952646
0.811158
-5.37326
0.62836
0.681938
0.535137
0.374695
0.644617
0.884088
2.0142
2.03667
3.39573
2.9895
0.658596
0.793381
4.61208
2.21437
0.62261
0.144436
1.72779
2.77978
1.86226
3.2934
0.932138
0.861928
1.34135
0.0939437
0.779939
3.2133
-2.13334
0.913209
0.353759
3.86125
1.08416
1.53874
2.73837
-5.31271
1.47664
0.0849972
0.768107
0.826484
0.359576
2.66415
2.49724
2.72478
0.460327
-7.76781
0.772218
0.437929
0.707232
0.762839
0.595903
0.807773
0.513587
1.11856
0.748025
0.864273
3.42614
1.10368
3.74956
0.934668
0.679504
0.743852
0.516673
2.98639
1.7719
3.20935
0.600415
0.695663
0.774518
2.90589
-4.27277
2.7562
0.512167
3.24451
3.13219
0.362948
2.67331
3.56239
2.18528
2.57224
-0.566549
0.821951
0.605882
0.802906
0.300267
0.847711
0.863867
0.422381
0.778779
0.750563
0.478118
1.60299
1.24652
0.48253
3.77161
0.413456
0.0982797
0.644476
3.04339
0.844452
0.0420121
2.24849
1.22039
0.306528
1.67538
2.02782
2.9335
2.9046
0.532545
2.95239
3.11924
2.36928
0.77757
0.171104
2.17069
1.75754
1.10886
-0.210169
1.06646
0.657793
1.04753
0.0397262
0.241755
-0.0865612
-1.72147
1.01716
0.894292
0.475207
0.86948
2.3189
0.916394
2.89331
4.62462
2.32901
0.813061
2.58003
1.96337
0.730154
-0.0928043
0.714311
0.957798
0.492749
2.75917
0.0427315
3.5042
0.0460927
3.49011
1.51559
0.706996
-0.119389
0.310536
4.03024
0.450981
2.94181
2.79174
3.23621
0.510852
2.90701
2.12412
-0.456809
2.39063
0.73715
0.480313
2.93948
2.65272
0.687288
1.68499
3.00387
-2.12282
0.867486
0.177364
0.104473
2.73078
2.61771
2.89252
1.5837
2.01004
-0.321747
0.810631
0.756198
2.83613
4.08164
0.712595
0.65537
-0.175364
1.90947
0.44822
0.580208
-0.0236026
0.814225
1.39169
-4.20088
0.605812
3.94495
2.38825
0.670757
1.09891
1.07518
0.653623
0.165402
0.79533
0.912414
3.00629
2.65226
0.698024
3.86022
0.117115
0.727572
0.764551
0.467946
2.20982
-7.53246
2.22957
1.91563
0.448056
0.772144
0.627142
0.623994
1.06472
2.96755
0.895514
0.292488
0.38603
2.81988
2.63028
1.09074
2.88086
2.53768
3.3742
3.51706
2.21431
0.60937
4.12778
0.364927
1.87497
-0.0802143
0.882592
3.01451
1.08272
3.72167
2.43008
0.757105
0.112348
0.349263
2.97004
1.05223
0.810908
0.595787
0.436731
0.703857
2.61678
2.07001
0.962667
3.85394
-1.5712
0.858265
0.875665
2.06628
2.6911
0.756039
4.53263
0.257587
0.52765
2.65647
0.81901
3.06234
2.06341
2.37632
2.49364
0.720243
0.786466
2.16144
0.67208
-5.67944
0.171259
2.0604
2.60106
2.94798
0.148134
0.413646
0.0876178
2.44221
0.751161
0.80632
2.71393
0.829405
2.79366
2.93406
0.329264
3.48466
0.668699
3.94295
2.23946
0.918936
0.0373317
0.28528
2.12234
2.96121
0.939597
2.87093
3.02165
0.309198
0.0879664
0.528725
1.36345
0.225597
0.321949
0.559999
0.972868
2.82343
-0.0859893
-0.244762
0.723773
3.08706
3.08571
2.33212
-0.0328954
2.35894
0.696771
0.543566
2.76312
-2.81862
0.613469
3.64493
1.13133
0.654085
0.853125
0.687875
-0.673638
3.20074
0.277267
0.783375
2.92891
1.17798
2.83603
1.05591
0.78301
3.86347
0.169467
2.81013
0.597877
-2.40478
2.54984
0.853582
0.69229
3.82966
2.3628
0.515137
3.87253
2.7471
3.03712
0.319038
-0.0824613
0.529221
0.575829
-0.544124
0.771232
0.675316
0.774429
1.52507
0.739234
0.872635
1.1448
-3.4144
1.21586
2.91225
0.74477
2.09029
2.60427
2.92809
0.712747
0.181892
1.08726
0.178115
1.0762
0.78697
2.88902
0.96033
3.31745
1.04452
3.14152
0.45059
0.251828
-0.19445
2.4602
2.43732
1.98407
1.75094
1.7987
0.816465
3.15453
3.18186
0.81668
0.832345
-0.156183
2.89472
1.914
-0.230339
0.57409
2.12309
0.500085
0.495499
1.82505
1.42177
0.607389
2.51359
1.92491
0.376217
0.709887
3.15069
1.05459
2.6133
-0.0574002
2.87113
2.4233
2.48588
1.84757
-0.0130452
1.1195
0.481593
-0.575353
1.02734
0.743403
0.558443
-0.658529
2.67584
1.83718
2.95003
0.800523
0.864492
0.623914
0.30524
2.52133
0.823025
2.19286
0.664517
0.961612
-3.13136
1.08387
1.47426
3.14237
0.312362
0.66273
-0.739362
2.4841
0.522646
0.497164
0.966598
2.82757
0.931455
0.237788
2.76345
2.08412
2.62582
2.05308
3.15054
0.0236673
0.385274
0.686526
1.85259
2.62188
0.664176
-1.14203
0.925711
0.960057
0.782528
0.443653
0.882142
3.87654
-0.7334
2.52679
1.47008
0.743558
0.302775
0.418523
0.647837
2.10449
0.559218
2.90938
0.407013
2.88263
0.646029
-0.552773
0.812528
0.400565
0.848188
2.70345
3.76519
2.76341
0.423186
-0.98861
2.59514
0.635615
0.793376
0.524
0.715965
0.637643
0.912253
0.84722
0.685225
1.74992
1.74293
0.782211
0.647822
2.86744
0.831255
0.790314
2.98098
0.258688
0.657262
0.0657401
1.90198
0.0443451
3.8299
0.542078
1.90191
0.732222
1.26954
0.770198
1.82209
0.246503
1.54091
0.602865
0.882796
0.541767
0.234787
2.9988
1.9069
2.04894
0.596415
0.558827
3.9045
0.576033
2.42783
2.68555
1.60024
0.455538
0.864993
-0.144914
1.60575
2.85782
2.52925
2.24114
1.01095
2.93958
2.01577
3.42967
0.286939
2.868
2.93516
2.77015
0.830428
0.958882
2.14787
0.637108
1.5225
2.38551
2.62857
2.08694
3.38403
0.628047
3.57431
0.645838
2.67024
1.65635
1.62765
0.866353
2.81786
0.868684
2.35639
3.74472
2.92023
0.68505
0.720671
1.13362
2.8523
0.319158
0.151311
1.99792
0.595481
2.86253
1.04514
3.3494
2.06606
4.68275
3.58464
1.18947
0.54363
0.861587
2.063
3.58177
0.544979
1.94568
0.730242
4.04214
2.5316
1.71839
3.80688
1.28237
2.60075
0.736051
2.46302
0.385495
2.28051
2.43552
2.97647
0.398259
0.283578
0.579359
1.09306
0.722274
-1.633
0.527885
3.37687
3.23514
0.123703
-0.22066
0.770568
2.74841
1.96787
1.8635
3.31637
0.650518
-0.305406
1.09314
2.89327
0.536126
0.866468
1.82765
1.2667
0.940901
0.85822
3.8905
-0.574234
3.31814
-0.821304
3.82942
0.73982
0.667518
0.101382
0.0653509
1.97909
2.76381
0.698731
0.855517
0.483339
0.783893
3.13969
1.43728
2.06285
-1.39931
0.769706
-0.861703
2.54532
0.35659
0.408542
0.210744
2.86705
4.0881
1.08114
0.508856
1.76913
0.851916
2.79146
0.496051
0.985577
0.828417
0.177274
1.30064
0.778502
0.603341
0.517441
0.792396
0.896196
1.78641
2.76516
2.40578
3.32315
3.97355
0.822416
3.99263
-0.554716
3.74943
0.939856
1.19981
3.84758
2.3143
0.942793
1.99638
0.322782
2.26655
-6.25533
0.385513
0.683467
0.613857
0.72333
0.23364
0.556305
2.35101
2.64864
0.861815
2.43503
0.657796
0.443895
-0.897822
0.294047
0.57693
0.765543
0.73014
3.50516
0.216905
3.63633
0.768498
0.787062
2.20974
0.830679
0.371794
2.9073
2.75659
4.12439
2.68179
2.78975
0.678602
-1.40347
3.99855
4.12151
2.9425
1.1569
1.05344
0.582175
1.85821
0.985911
0.738057
2.8262
1.07336
0.323418
0.720295
3.71144
0.698807
2.18639
1.11403
1.82577
2.07215
4.45618
4.20353
2.2039
1.89967
0.379513
-0.194914
2.42665
4.27386
0.555393
0.211514
1.10487
-0.0972887
0.63275
2.0043
1.85141
0.552391
0.637786
0.752482
0.271253
2.1467
3.05537
-1.05817
2.44242
1.1098
1.70886
3.78026
0.850342
0.715214
-0.410298
2.40329
1.92727
1.07734
-1.20972
0.363883
0.802364
4.5309
-0.170954
0.764868
0.889214
0.990333
0.495696
-0.65104
1.07331
0.750904
0.246278
0.729924
0.896234
0.80634
1.92416
0.561057
2.14612
4.39663
1.94898
0.619898
0.640727
1.90787
-3.41887
0.777206
3.35188
2.52877
0.712342
0.674011
2.44791
2.59535
0.810555
0.915957
0.575668
3.42767
0.728323
2.77568
2.14668
3.38703
0.781937
1.09969
0.585111
2.83359
0.523086
2.83233
1.26928
4.16619
1.11257
1.7747
0.772347
2.25727
1.11218
1.1118
1.12518
0.577722
-0.298513
1.01346
0.13551
0.365589
0.760002
0.785403
0.88817
1.66869
0.583034
1.71612
1.12643
2.70849
3.92366
1.78501
-2.4206
2.06755
0.512701
0.710615
0.442057
1.37364
0.496004
0.493797
0.737469
-0.26826
1.84946
0.668933
-1.24124
0.875887
1.0246
2.9517
-0.453875
1.08678
1.47091
0.299894
0.696011
1.1099
-1.54817
1.09907
3.04705
0.919425
0.412164
0.927227
0.814001
0.907068
0.847254
4.58737
0.749117
0.820364
2.14611
3.83476
3.79241
1.07454
0.764963
2.74985
0.315669
0.534491
3.88112
1.068
1.56918
4.58184
1.60614
-0.777965
2.0105
3.4103
2.78119
1.99388
3.30896
2.79238
0.235873
0.0383093
2.44065
0.576458
0.0587606
3.82019
0.883854
1.05098
0.26199
0.746176
0.912345
1.10755
0.776444
0.659556
2.16476
2.94116
2.30979
0.590417
3.57774
3.72651
0.808443
1.14962
0.63548
0.506877
0.697401
2.50422
-1.14766
0.812458
0.935209
4.08327
0.70899
2.38531
2.78495
2.84714
1.14678
1.7183
0.789051
0.270302
0.516814
0.210004
0.662559
0.732128
0.361058
1.0778
2.7337
1.02041
0.350591
2.14994
-4.13975
1.11463
0.302593
1.87317
0.767435
0.475714
2.42788
1.0037
0.649676
0.791582
0.641216
2.7761
0.770241
3.93142
0.265194
4.20076
0.0850872
0.511088
0.48277
2.89649
1.67301
0.247988
0.757003
1.5604
0.531496
1.30909
4.64487
2.8774
0.432349
0.799785
1.03782
0.626188
2.25622
0.66832
2.49979
1.11828
1.13373
-4.05473
-0.611224
0.239343
-4.74916
2.66184
1.09877
3.67448
4.03889
0.19843
0.479274
0.70633
0.861523
3.82235
0.038814
1.28184
2.39952
2.74533
1.0086
0.630317
0.739804
0.345249
1.6999
0.996316
-0.229511
0.559048
1.13186
0.408107
1.4279
0.545205
0.631239
2.22498
1.04933
1.10686
0.734759
0.719414
4.14295
1.0277
2.87853
0.832813
0.91045
1.92926
0.629413
2.15339
1.08673
0.00233412
3.83985
2.74606
1.81537
-0.485432
4.33006
1.11429
-0.135979
1.09736
0.485685
1.11497
1.02553
3.3633
1.81804
1.67589
2.30889
1.03137
0.712354
0.38787
1.03839
0.454846
1.93402
2.34973
2.14637
1.08331
-0.566513
-0.0204176
0.769016
0.726674
0.886848
4.14635
2.6007
0.876657
0.464154
2.05565
3.57662
0.848734
-0.0516652
0.839582
3.04965
2.21502
0.624666
2.85666
0.855582
3.82203
0.28667
2.98177
0.877151
0.509352
0.228416
1.07733
0.629694
2.23897
-0.0818364
1.10027
2.38694
0.74859
1.92505
3.04457
2.62551
3.0047
2.90326
0.872805
0.053547
1.91196
1.9214
0.0448107
2.62688
1.13164
3.72845
1.09018
2.96221
0.0656196
3.88918
0.986034
1.19679
3.88111
1.12488
1.11007
0.674605
3.33499
3.77104
2.88756
-0.0897536
2.91021
2.7298
0.745566
2.53771
1.0763
2.96179
1.12421
0.980228
0.457921
0.466219
2.66676
0.285465
0.52506
0.833298
3.75082
1.24709
1.6732
0.457109
1.18695
1.41888
0.629244
2.83737
1.97372
0.513579
4.21243
0.378716
3.4366
2.99431
0.484143
0.142972
1.58415
0.773876
0.671434
1.60229
1.24419
1.44196
1.89158
1.06484
3.8139
2.93268
0.741211
-2.39796
2.28344
0.876684
2.55933
2.82331
0.577599
0.253807
2.71322
2.19346
1.04177
-1.92613
1.26201
2.30603
3.78786
-0.480809
3.94916
4.20788
4.02272
0.635567
2.65078
0.909134
2.86887
2.90688
3.09711
2.33939
3.21653
4.44902
2.8475
-0.389279
-1.79351
0.0515934
4.39825
0.791407
0.865249
1.08859
2.85273
3.60816
2.45531
0.727645
0.763318
3.36943
0.735773
2.15827
1.09922
2.46495
0.370956
-0.892896
1.21666
0.981542
1.03732
-0.314565
0.761265
0.666045
2.65097
1.66854
0.702079
2.04486
0.8547
0.596447
0.219068
0.86124
0.870873
-0.228006
3.04341
3.34617
1.12103
2.30793
2.91919
3.28136
0.0714437
0.941527
2.29727
-0.131553
3.04216
0.858925
3.0215
2.56681
2.17296
3.04551
1.20679
2.80032
0.709344
2.37923
0.659708
-2.42638
0.761213
0.591735
2.72447
0.882578
0.995247
0.898957
3.61131
2.77229
2.44583
1.22562
3.2819
0.655586
1.87997
0.551008
0.849284
1.96727
1.08909
0.595985
0.928227
0.226884
0.813605
0.921876
0.545388
0.486944
-1.13295
1.66295
3.81628
4.12264
3.5962
0.895119
2.02369
0.853632
2.06696
3.49905
2.0261
2.66615
0.944445
0.662672
0.521956
1.79623
2.97846
0.672877
2.30885
0.600745
1.51088
0.290493
2.78641
2.35413
2.8693
0.742608
2.03607
-1.47046
0.506258
0.445798
0.654365
3.81003
0.350119
0.840844
1.10763
2.65928
2.81101
0.367079
2.54529
0.684864
3.35114
3.47098
1.00336
1.59145
3.16869
1.05519
0.88379
1.81851
2.97735
3.28004
0.918014
1.05206
1.61726
3.77992
0.608096
0.808885
1.89745
3.51025
2.00178
0.634309
0.861366
2.9289
2.66381
2.93044
1.95072
0.555304
2.33584
4.33322
-1.68943
1.62191
1.78992
0.518386
1.84392
0.717711
1.09106
0.920954
0.980104
2.60944
0.95308
0.655042
2.67833
3.25401
2.07798
0.80492
0.795464
2.43828
0.642633
0.257339
0.789923
0.835346
0.683554
3.04544
2.35685
1.8322
2.20719
3.72171
0.774435
1.27379
2.84504
0.402813
2.55692
1.43187
0.886827
0.0263012
2.73067
0.176552
0.674203
0.768674
-2.34826
2.98576
0.181717
0.597198
1.03558
0.632913
2.77718
0.694894
3.99932
0.744281
0.23916
-1.87554
3.00962
2.21845
2.86677
0.0970354
3.55332
1.05254
1.25683
0.736798
0.831204
2.86106
0.752111
0.765788
1.24254
-0.0239179
2.85529
0.291547
1.05667
0.166199
0.846773
0.834481
1.6857
3.68026
0.431403
0.895815
2.71921
0.730363
3.3363
-0.164943
1.92152
2.48519
2.87354
0.802619
0.868895
0.153162
1.96738
2.23818
2.29844
0.789683
1.11697
0.349511
0.535281
1.40757
4.46035
2.19089
2.87738
3.33228
2.03805
2.86632
0.95259
0.322409
1.03066
2.8698
4.33141
2.10338
1.09958
2.98934
1.76592
1.85575
0.480045
1.83454
1.0621
4.00978
0.159532
0.743013
3.68368
3.08806
2.08445
2.23572
2.66204
1.82729
-0.53152
0.907996
2.27613
-1.17686
-2.88912
2.54451
0.99957
-2.83891
-0.450055
2.2108
2.32877
2.03599
1.6277
2.87114
2.86406
0.704032
2.47351
2.14008
2.81951
2.68668
0.700924
0.942736
0.377703
2.89914
2.49517
0.738896
1.56665
1.62156
0.255222
3.63321
2.59694
0.0151181
0.887356
0.711915
2.75148
1.25611
1.9847
0.288111
0.613861
0.893151
0.769773
1.02982
1.90538
0.981934
0.786367
0.937444
0.730707
3.37866
1.06926
-0.249525
1.01064
3.6274
0.867133
0.707329
2.12415
0.498639
2.76369
2.84822
0.868922
3.18204
1.70232
2.06353
0.020645
1.00744
0.024774
3.08489
0.757897
0.892204
0.597427
0.802083
-0.122823
1.06604
0.526061
0.810996
2.32764
2.77876
2.78936
0.777147
0.579686
3.18894
2.59305
0.922699
1.55236
0.0494167
1.12568
0.758543
1.11815
3.48946
0.824707
0.835905
0.833323
2.15998
0.862742
-0.044944
0.418536
0.963226
0.143921
0.618033
1.02247
0.432263
0.189436
0.836186
0.89682
2.91381
3.03978
0.440803
3.06182
0.918442
3.69258
0.669672
1.97023
0.951579
2.25365
1.29441
-2.62177
0.239437
2.87032
3.07026
3.81293
0.919615
0.0114768
0.951092
0.688119
0.00925278
0.706678
0.0216833
0.455488
1.22163
0.874008
1.14849
-0.252221
0.387636
3.34224
1.80652
0.640302
0.144228
0.820966
-0.369573
3.42733
4.17073
-0.594714
2.59195
2.2761
0.0572803
-4.74364
3.00461
3.04944
0.530751
0.875135
1.0176
0.931924
0.974518
0.612061
0.751081
2.59576
0.681715
2.90846
0.743462
0.570953
2.87217
0.988056
0.456104
1.88448
2.70959
0.464957
1.32643
0.53943
0.749163
0.475026
3.88431
0.234439
1.63351
0.869205
2.45915
0.340047
0.599144
0.765901
0.807698
0.595449
2.35571
0.114387
0.600242
2.17641
-0.025425
0.799227
0.828272
0.729067
0.922405
1.54866
2.80849
0.385087
3.30024
0.825816
0.025125
0.466058
0.298094
0.939617
0.69523
0.885815
0.635344
2.51828
0.498989
1.64506
0.95751
1.76984
0.888094
3.27413
0.900063
2.59239
0.77981
0.85352
0.630165
4.62659
-8.88994
0.466268
0.517726
0.724041
2.89419
0.53476
0.699601
0.195426
0.574758
0.893407
-1.27017
0.62469
2.2255
0.68805
2.08401
0.559619
1.96516
2.059
0.455557
0.615678
1.38921
2.76214
0.265839
0.796665
2.93556
0.595032
0.315755
1.60084
0.874003
0.870091
1.6164
2.6953
1.0772
2.35201
-0.117088
0.8692
0.671292
0.712665
-0.0933306
0.389575
0.781906
2.75063
2.50232
0.932394
2.1479
0.971964
3.08722
3.29176
0.505405
1.80697
2.49306
3.12979
1.11359
0.94993
0.894783
0.862564
2.97825
2.10349
0.768194
0.812282
0.762064
3.05453
1.63386
0.55234
1.91993
2.99187
0.804351
0.684453
0.333394
2.6602
1.81386
0.625086
3.31965
2.9632
0.528417
0.909022
2.67499
2.54293
1.68046
1.7244
0.720967
0.828971
0.858872
0.918097
3.06102
2.14429
0.574697
0.801753
0.645518
0.845893
2.21888
0.893509
1.02489
2.83561
3.03309
0.846946
2.86631
1.63274
2.27426
2.47595
1.68602
2.41283
0.0828975
2.90779
2.58119
2.81125
0.984898
2.84739
2.62037
2.56505
2.60379
0.753123
1.03913
0.354671
0.815272
2.83492
3.48086
0.91619
3.50711
0.970671
-1.45369
2.24305
2.50277
0.759561
1.87578
0.0755508
0.927593
0.48411
1.10542
0.76412
1.43615
1.84496
4.16529
2.77004
0.794737
1.06756
2.157
2.91839
0.994106
0.805208
0.819244
0.868483
-1.23564
-2.0175
2.85685
0.564523
2.47575
0.279855
0.263773
0.537217
-0.0123634
0.678359
0.696073
2.61674
0.704606
-0.0691563
0.451108
0.899138
1.4057
2.48986
0.408336
0.595201
2.60382
0.459248
2.34765
0.714499
2.74756
1.97021
3.52106
2.79442
0.941987
1.57476
0.896235
0.862174
0.332572
0.364275
0.61298
0.966826
4.23724
0.429881
0.833322
3.17915
1.0868
1.14265
-1.13618
0.990057
0.0798867
-0.20515
0.924519
1.95839
0.769568
0.884985
0.686864
0.96875
0.93511
1.00444
0.49097
2.71643
1.10186
1.10514
0.900344
0.715072
0.702535
2.66241
3.3466
0.896953
2.62488
0.989356
3.43763
3.69581
1.07343
2.54063
1.05775
2.53132
3.09743
1.44567
0.560789
0.866422
2.50113
3.32809
1.03554
0.601384
0.899068
0.750956
2.51682
0.764008
0.600059
0.875801
2.36766
-0.143258
0.697925
0.624206
2.82489
0.73312
-0.452026
0.404566
0.333799
0.68395
3.56274
3.96579
2.88533
4.31769
2.93009
2.97331
2.3486
1.90554
2.85489
0.753662
2.24121
1.5756
-1.16724
3.2766
0.764981
0.938248
3.86187
1.87243
0.905548
2.45048
2.48434
2.97494
0.546241
2.8671
3.77107
1.07588
-1.40622
0.825448
1.28474
0.86598
2.77522
1.90186
3.07207
2.79254
1.11308
2.54182
1.11576
-0.184086
-0.335605
0.978704
2.5306
0.738056
3.08316
0.314726
0.629875
0.604034
0.66563
0.277161
0.701149
0.348473
2.52191
2.21552
0.45154
1.19503
2.5764
0.685395
0.947004
2.46338
0.542072
2.27983
0.42832
2.54001
2.15166
0.570041
0.528556
2.21812
1.27019
2.16376
0.240333
4.22384
1.07515
0.502206
2.49882
1.90825
0.611646
0.870979
0.998156
0.887703
0.981666
0.771639
1.95258
1.86426
4.3309
0.624141
1.10621
0.602546
0.64528
1.26586
0.763258
2.09302
2.56947
0.844731
1.18965
-0.0824684
1.20121
0.905755
1.96894
2.66796
0.128104
0.0139894
0.98118
2.6556
0.67147
0.526197
0.414758
1.11316
1.43476
2.75683
0.450807
0.9757
0.397251
2.53599
0.666804
1.62322
2.79701
2.58492
2.28247
1.05563
0.125082
2.62796
0.822951
2.88039
2.46118
0.635339
2.66434
0.623457
2.09946
0.725575
0.648397
0.649314
2.63141
0.816596
2.89525
0.572392
4.36559
1.98288
2.03854
2.66865
2.07149
0.697376
2.69256
1.57442
1.13534
0.80153
0.366954
2.20789
1.27
0.644194
0.765185
0.641608
1.00565
0.583953
0.551672
2.88026
0.300717
2.7668
1.72328
3.81972
3.36536
2.23586
1.59282
2.21172
0.298096
2.84167
1.32433
1.90141
0.701135
2.75016
2.3195
0.531082
0.874415
0.653622
1.67203
0.884168
0.651288
2.77449
0.929062
1.80461
0.483785
2.28132
2.3798
0.533642
2.31186
2.4901
0.498664
2.01528
2.80483
0.740381
0.688685
2.55208
0.281043
3.3363
0.82096
3.03491
2.41349
0.701163
0.789631
0.283448
0.696085
0.84733
1.04723
3.13686
3.15445
2.94878
3.14864
2.6544
2.73638
2.38001
0.669393
2.45666
0.576791
1.97622
1.7949
0.46631
3.57032
0.646828
0.522795
2.68045
3.25485
3.48704
0.878003
1.05468
0.829628
-1.20325
2.44591
0.513756
1.11597
2.32665
3.7617
0.25014
0.820205
0.904056
2.49615
0.652543