/*--------------------------------*- C++ -*----------------------------------*\
| =========                 |                                                 |
| \\      /  F ield         | OpenFOAM: The Open Source CFD Toolbox           |
|  \\    /   O peration     | Version:  2306                                  |
|   \\  /    A nd           | Website:  www.openfoam.com                      |
|    \\/     M anipulation  |                                                 |
\*---------------------------------------------------------------------------*/
FoamFile
{
    version     2.0;
    format      ascii;
    arch        "LSB;label=32;scalar=64";
    class       surfaceScalarField;
    location    "0.1";
    object      phi;
}
// * * * * * * * * * * * * * * * * * * * * * * * * * * * * * * * * * * * * * //

dimensions      [0 3 -1 0 0 0 0];

oriented        oriented;

internalField   nonuniform List<scalar> 
20045
(
0.278499
-0.321787
0.0432879
-0.564799
0.230723
0.334076
0.126274
0.829563
-0.955836
0.0592791
-0.0990949
0.0398158
-0.52359
0.421571
0.102019
-0.226062
0.956562
-0.730501
-0.449181
0.0695135
0.379668
0.0311956
0.262701
-0.293897
0.261496
0.229586
-0.491082
-0.321525
-0.131829
0.453354
-0.121608
0.321285
-0.199678
0.915988
-0.475889
-0.440099
0.216186
-0.220954
0.00476789
-0.616965
0.421475
0.19549
-0.0486387
0.461264
-0.412625
-0.533446
0.211921
-0.0118216
-0.177691
0.189513
0.562941
-0.233183
-0.329758
-0.777629
1.10293
-0.325297
-0.393583
-0.0096991
0.403282
0.149374
-0.0738285
-0.0755452
0.0717589
0.144427
-0.114587
-0.450212
0.338839
0.207412
-0.54625
0.471488
0.0191654
-0.490653
-0.242134
0.580972
0.208936
-0.219429
0.0104929
-0.469463
0.953093
-0.48363
0.873443
0.102423
-0.975866
-0.930259
0.595107
0.335153
0.163707
-0.253871
0.0901633
0.606417
-0.535004
-0.0714133
-0.267092
0.550705
-0.283613
1.05426
-0.62714
-0.427123
-0.334338
0.365534
1.12189
-0.557151
-0.564742
0.699256
0.168782
-0.868038
-0.0387902
0.232298
-0.193508
-1.06006
0.432186
0.627877
0.31121
0.297032
-0.608241
-0.0540972
0.358264
-0.304166
0.115544
-0.156088
0.0405441
1.06614
-1.07317
0.00702698
0.70702
-0.192363
-0.514658
0.276154
0.430866
0.44966
0.466327
0.290538
-0.192632
-0.0979066
0.608355
0.316832
-0.925187
0.94133
-0.242074
0.0603981
0.762149
-0.822547
0.653883
-1.11906
0.465178
0.973135
-0.712928
-0.260208
-0.406414
-0.411058
0.817472
-0.0589406
-0.168436
0.227377
0.353466
0.0830699
-0.436536
-0.370974
-0.152616
0.092434
0.700963
-0.793397
0.857346
0.0650908
-0.922437
0.368284
-0.635376
1.08217
-0.776702
-0.305464
-0.0756535
0.274488
-0.198835
0.405087
0.677079
0.288419
-0.568878
0.280459
0.0207656
0.128608
0.151536
0.284445
-0.435981
0.785025
0.182142
-0.967167
-0.0451569
0.103291
-0.058134
-0.352689
0.0449324
0.307756
0.460166
-0.19867
0.987997
-1.01712
0.0291229
-0.093784
0.0486271
-0.27097
0.624435
-0.129536
-0.545223
0.674759
-0.247564
0.352068
-0.104504
0.891149
-0.107719
-0.78343
0.703445
-0.611011
-0.0825941
0.973743
0.319837
-0.368476
-0.317525
0.292442
0.0250832
0.401286
-0.741512
0.340225
0.51556
0.610309
-1.12587
0.45032
-0.413464
-0.0368558
0.455441
-0.167022
-0.996329
0.168477
0.827852
-0.00656984
0.285069
-0.217316
0.327
-0.109683
0.538706
-0.838861
0.300155
-0.796792
0.0484934
0.748299
0.505376
0.132488
-0.637863
-0.470576
0.3539
0.116676
-0.679531
0.0302987
0.649232
0.431406
-0.0958303
-0.335576
0.226951
-0.341076
0.114125
-0.122636
-0.403215
0.525851
0.327298
-0.358005
0.0307072
0.733334
0.217159
-0.950493
0.181657
0.0272789
0.0390776
-0.123531
0.0844538
0.655971
-0.344761
0.0248607
-0.194712
0.169851
0.778457
0.343436
-0.308112
-0.308853
-0.101788
0.140866
-0.168353
1.0257
0.0650088
-0.282325
0.223968
-0.199107
0.187347
0.637107
-0.824454
0.638889
-0.983897
0.345008
-0.0269864
-0.293043
0.24952
0.0435231
-0.183708
0.230093
-0.0463851
0.512202
-0.481329
-0.0308728
-0.291143
0.232202
0.658677
-1.04848
0.389802
-0.131934
0.20211
-0.0701767
0.0361704
-0.222119
0.185948
0.540706
-0.0692186
0.787809
0.266454
-0.606472
0.476937
0.677625
-1.01277
0.335146
0.183084
0.379857
0.189925
-0.265578
-0.448186
0.351555
0.0966307
-0.421174
0.0735957
-0.346136
0.272541
0.684047
0.289088
0.515492
-0.74514
0.229648
0.77292
0.0714473
-0.844367
-1.05103
0.81053
0.240501
-0.399748
-0.148907
0.548654
1.01544
-0.331394
-0.338283
0.145651
0.374881
-0.359334
-0.0155472
0.339369
-0.230331
-0.109037
0.564217
0.411739
-0.975956
0.630219
-0.546858
-0.0833612
-0.169804
0.0512938
0.11851
-0.206887
-0.0861561
1.11855
-0.440923
-0.39079
0.386042
0.00474821
0.473369
-0.809742
0.336373
0.233047
-0.639461
0.395162
0.298855
-0.694017
0.77479
-0.373503
0.983257
-0.131395
-0.851862
0.153691
-0.455249
0.301559
0.91826
-0.626103
-0.292157
-0.177361
0.221059
-0.0436974
0.00594949
0.809742
-0.815692
1.05384
-0.180399
-0.828101
0.0489975
0.779104
-0.532756
0.353795
0.178961
1.00143
-0.485868
0.113057
0.337262
-0.652487
0.721137
-0.0686503
-0.667243
0.793517
0.00989467
-0.281042
0.271147
-0.0381382
-0.20962
0.247758
-0.0245103
-0.217773
0.242284
0.824582
0.0225693
-0.847151
1.11411
-0.52621
-0.587899
-0.259406
0.234896
0.46798
-0.630061
0.162081
0.142716
-0.0271717
-0.881281
-0.516531
0.575415
-0.0588838
-0.613895
0.527159
0.0867357
-0.0135098
-0.0625438
0.0760536
0.357335
0.560925
0.175563
0.163805
0.332932
0.041949
-0.661808
0.00932092
-0.739246
0.93025
-0.191003
-0.701036
0.700131
0.00090492
-0.59537
-0.425245
1.02061
0.1131
-0.269331
0.156231
0.329851
-0.484848
0.154997
0.617709
0.109924
-0.727633
-0.0255374
-0.728119
0.753656
-0.404179
0.799341
0.192048
-0.58128
0.389232
-0.379575
1.03825
-0.72762
0.552163
0.175457
-0.137108
0.164819
-0.0277108
0.36532
-0.955113
0.589794
-0.778872
0.309409
-0.595907
-0.405939
0.889344
-0.584174
-0.30517
-0.406208
0.352111
0.218021
-0.23333
0.0153091
-0.746046
-0.229416
0.975462
-0.748642
1.05682
-0.308178
1.0281
-0.725715
-0.302383
-0.00449019
-0.212921
0.217411
-0.232605
-0.550767
0.783372
-0.26446
0.142852
-0.453178
0.0534299
-0.57653
-0.211061
0.787591
0.151965
0.0346717
-0.186637
-0.0136152
-0.502916
0.255304
-0.0915966
0.802094
-0.0291743
-0.194553
0.155762
-0.250406
0.309556
-0.0591502
-0.175349
0.999931
-0.829397
0.596792
0.519249
-0.188723
-0.330526
-0.732806
0.172337
0.560469
0.365358
0.66274
0.997169
-0.631849
0.651312
-1.03269
0.381378
0.359945
-0.638223
0.278278
0.0648678
-0.458451
-0.518241
0.705589
0.640824
-0.866886
0.106227
-0.672051
0.565823
-0.999982
0.497036
0.502947
-0.108411
-0.362165
0.197424
0.173013
-0.370437
0.446922
-0.0372586
-0.409664
-0.206533
-0.576568
0.582518
-0.286729
-0.104061
0.537579
0.797929
-0.732846
-0.0650832
-0.011837
-0.159349
0.171186
0.613912
0.0220136
-0.635925
0.0243297
0.234637
-0.258966
0.0319451
0.606011
-0.637956
-0.327225
0.865931
0.601408
-0.40936
0.0427325
0.364857
-0.407589
0.668371
-0.195002
0.149649
-0.0143623
-0.135286
0.0384656
0.115197
-0.153662
-0.172691
0.181449
-0.00875849
0.903344
-0.610423
-0.292921
0.220106
-0.968748
-0.193977
0.0212862
-0.778344
0.201673
0.576672
0.797005
-0.246301
0.256449
-0.995695
1.1728
-0.55811
-0.614691
-0.0249909
0.176956
0.963816
-0.417807
-0.546009
-0.601101
0.0905725
0.510528
-0.928918
0.877877
0.0510413
0.358367
-0.690971
0.332604
-0.263515
0.0433579
0.220157
-0.500622
0.587557
-0.0869351
0.0487422
-0.177138
0.128395
-0.189309
0.0573758
-0.223923
0.0402146
-0.673455
-0.310442
0.55522
-0.825189
0.269969
0.0962703
-0.258903
0.162633
0.446233
0.160184
0.560624
-0.454397
-0.274294
0.236156
0.449732
0.347273
-0.535884
0.0637656
0.472119
0.33893
0.624885
0.411638
0.0496252
0.220755
-0.124484
-0.31294
-0.0689
0.38184
0.0269255
-0.164034
-0.644491
0.676436
-0.0293896
0.188766
-0.159376
-0.896951
0.869707
0.0272446
-0.250818
0.700207
-0.449389
-0.12813
-0.185939
0.31407
0.728841
-0.827902
0.0990609
-0.547714
-0.452268
1.01655
-0.71979
-0.296758
-0.131826
0.119989
0.733898
-0.375531
-0.299016
0.854236
0.150969
-0.438299
0.287329
0.922788
-0.12742
-0.795368
0.948918
-0.208382
-0.740536
-0.325526
0.476496
0.832998
-0.506459
-0.32654
-0.200914
0.807137
-0.606223
0.240721
-0.498744
0.258023
-0.257942
0.0762903
0.181651
-0.230519
0.0215638
0.208955
0.919984
-0.713614
-0.20637
-0.575321
-0.47571
0.607363
0.190566
-0.819998
-0.076953
-0.0874689
0.125934
0.272926
-0.876601
0.603675
0.00287145
0.215149
-0.534093
1.09831
0.299445
0.603899
0.966763
-0.63638
-0.330383
-0.961477
0.750417
0.61099
-0.950703
0.339713
-0.6204
-0.0641419
0.684542
-0.367661
-0.0782292
0.44589
0.578764
-0.110784
0.286312
0.232936
0.322815
-0.126906
-0.408098
-0.689681
0.999361
-0.30968
-0.301923
0.0515175
-0.361202
0.403935
0.117967
-1.04688
0.585236
-0.912461
0.195284
-0.35624
0.644509
-0.28827
-0.0118228
0.0711019
-0.512379
0.282863
0.229516
0.386092
0.12611
0.0334019
0.255232
-0.288634
0.46666
0.163559
-0.603298
0.876224
0.594549
-0.0891736
-0.244227
-0.488579
1.03556
-0.677905
-0.357659
0.953807
-0.969743
0.369145
0.600598
0.775372
-0.865098
0.0897258
-0.469658
0.347022
-0.163736
-0.00606758
-0.199726
-0.479804
0.355405
-0.566452
0.211047
0.408808
0.42419
0.581617
-0.896772
0.315155
0.298116
-0.573171
0.275055
-0.985483
0.188691
0.045602
0.385804
-0.556188
0.685826
-0.129637
-0.221111
0.326758
-0.105647
-0.508845
0.0596633
-0.126066
-0.261311
0.387377
0.135788
0.00329712
-0.139086
-0.272717
-0.260039
0.319964
0.486648
-0.806613
0.920753
-0.581823
0.391073
-0.44448
-0.025178
0.496292
-0.198176
-0.648391
-0.0792287
-0.126309
0.185758
-0.0594496
0.947261
-0.338905
-0.506091
0.758921
-0.25283
-0.149235
0.173221
-0.0239857
0.57593
-0.129008
-0.331032
-0.545569
-0.513342
0.90069
-0.387348
0.531445
-0.890576
0.359131
0.405578
0.610969
-0.191831
0.16939
0.0224408
0.111513
-0.731913
0.701739
-1.07086
0.369119
-0.349308
0.101743
-0.124963
0.640455
-0.246607
0.831843
-0.264227
0.624172
0.182147
-0.959776
-0.693767
0.469546
0.224221
0.657931
-0.140123
-0.517808
0.919922
-0.191081
-0.433224
-0.526723
-0.487822
0.35634
0.266034
-0.352747
0.0867136
0.333014
-0.342713
-0.745102
0.620139
0.835001
0.231137
-0.791584
0.285493
0.791182
-0.18382
0.108345
-0.18076
0.0724152
-0.0750701
-0.499185
0.574255
-0.895707
0.178824
0.716883
0.854256
-0.854256
-0.346383
0.932394
-0.586011
0.314718
-0.281316
0.435163
-0.375531
-0.0596316
-0.936578
0.948796
-0.0122187
0.385976
-0.0285286
-0.357447
0.30254
-0.0994328
-0.203107
0.172925
-0.301055
-0.0722496
0.575019
-0.874034
-0.758801
0.899365
-0.140564
-0.309171
0.629136
0.231719
0.0148334
-0.246552
0.122643
0.0882393
-0.210882
-0.389363
0.454231
0.912265
-0.685826
-0.226439
-0.116263
-0.508638
0.624901
-0.270831
0.290961
-0.0201298
0.182203
-0.30915
0.126947
-1.04997
0.439754
0.61022
-0.0585273
-0.0405676
0.17003
-0.0616856
0.012363
-0.22635
0.213986
0.39755
0.522434
0.221655
0.0100638
-0.144403
-0.206515
0.350918
-0.498395
0.79222
-0.293825
0.251273
0.147001
-0.398274
0.374263
-0.30475
0.815598
-0.114217
-0.701381
0.0569847
-0.460199
0.0309753
0.586734
0.462737
0.2647
-0.727436
0.516234
-0.410876
-0.105357
-1.00996
0.181862
-0.421857
0.271894
0.149963
0.275345
0.503107
-0.778451
-0.641271
0.577129
0.0784133
-0.918935
0.840521
-0.180384
0.175894
-0.141715
0.168685
-0.02697
0.061972
-0.374913
-0.401504
0.0945492
0.306955
-0.652477
-0.125868
0.611569
0.400616
-0.112612
-0.288004
-0.162651
0.0134152
0.119085
-0.687164
0.56808
0.116478
0.515659
-0.632136
0.252964
-0.718466
0.809097
-0.0906312
-0.746697
0.545783
-0.0919056
-0.127523
-0.423299
-0.190596
-0.296518
0.0714122
0.225106
-0.869175
0.37078
0.639288
-0.755551
0.250393
0.540789
-0.381044
0.337521
0.0435231
0.156186
-0.667804
0.511618
0.195387
-0.311946
0.116559
0.53563
-0.866662
-0.621879
-0.0791573
-0.359341
0.00665258
-0.280685
0.0185868
0.262099
0.364551
-0.0374825
0.378465
-0.340982
0.716884
-0.44154
-0.737012
0.977418
-0.240407
0.284718
0.202661
-0.48738
-0.39208
0.211696
-0.262196
-0.0343222
0.115561
0.319601
-0.286791
-0.72598
-0.205219
0.0789098
0.605733
0.459721
0.134829
-0.739193
0.799591
-0.0830172
-0.274775
0.357793
-0.0980283
-0.803585
0.901613
0.13677
-0.142093
0.00532226
0.283997
-0.170896
-0.248754
0.489476
0.500797
-0.347107
-0.329303
-0.183076
-0.00212365
-0.43782
0.439944
0.416366
-1.01174
0.0123932
-0.504119
0.491726
0.0745115
-0.0961788
0.0216673
-0.629171
0.00438425
0.624787
0.957852
-0.64102
-0.00616122
0.116794
-0.110633
-0.248851
-0.0219803
0.185107
0.385321
-0.570429
0.185815
-0.226445
0.0406301
0.67855
0.383425
-1.06197
-0.396166
1.1295
0.134211
0.00157715
-0.255598
-0.603003
0.858602
0.414419
0.704129
0.766434
-0.649956
-0.393786
0.26772
-0.221241
-0.00927764
-0.309975
0.920965
0.129339
-0.773919
0.64458
0.943917
-0.125516
-0.818401
-0.268418
0.592775
-0.324357
0.401647
-0.16187
-0.430052
0.591923
0.220893
-0.227214
0.00632107
-0.277305
-0.483993
0.761298
0.20576
-0.0831177
0.0655965
-0.0791063
0.51389
-0.791194
-0.711625
-0.206838
0.918463
-0.0211001
-0.518644
0.539744
-0.0485763
1.0364
-1.07213
0.0357296
0.237837
-0.116923
-0.120914
-0.0420514
-0.338993
0.262199
0.263652
-0.340087
-0.0275739
-0.75534
0.969089
-0.213749
0.172172
-0.201562
0.514339
0.260451
-0.841931
-0.231235
-0.0419906
-0.197494
0.239485
0.528266
-0.068545
-0.237509
0.261424
-0.0239148
-0.130077
0.178819
-1.13433
0.538427
0.820205
0.136357
-0.0945182
0.276721
-0.221332
0.50605
0.860499
-0.285481
-0.242704
0.00519497
-0.120477
-0.624625
0.306997
0.290058
-0.280164
-0.918754
0.0230475
-0.0685725
0.237174
-0.0417866
-0.996738
0.61399
0.382747
0.827342
0.160655
0.226407
-0.0769137
-0.149493
0.343374
-0.300655
-0.0427194
-0.904976
0.347825
-1.00181
0.488472
-0.24997
0.0717495
0.178221
0.0235927
-0.130561
0.106968
0.954462
0.0211551
-0.975617
0.254493
0.0159988
-0.270492
-0.154741
-0.293445
0.252393
-0.0254416
-0.144452
0.15009
-0.00563811
0.43013
-0.0107972
-0.419333
0.0185526
-0.163004
0.84621
-0.629051
-0.0342242
-0.16618
0.200404
-0.986322
0.230982
0.0231043
0.0681561
-0.169944
0.0387597
0.361857
-0.0270419
-0.247252
0.255323
0.206043
-0.461366
0.389091
-0.237555
0.287707
-0.370724
0.262868
-0.226698
0.121047
-0.342158
0.820879
-0.205345
-0.615534
0.572842
-0.0793327
-0.493509
-0.337916
-0.117334
0.131951
0.0499939
-0.181945
0.228692
-0.419816
0.191125
1.03718
-0.00730086
-1.02988
0.157216
0.0554273
-0.212643
-0.512117
0.697233
-0.185116
0.437637
0.515082
-0.952719
0.0875092
0.186979
-0.315612
0.4685
-0.152889
0.238163
0.114463
-0.352626
-0.695962
0.390289
0.305674
0.137246
0.0128438
-0.853666
0.142041
0.338718
-0.20505
-0.133668
0.387873
-0.578467
0.190594
-0.109926
-0.21186
0.15695
0.879448
0.807676
-0.140931
-0.666745
-0.803847
0.0853811
0.333091
-0.577318
0.628712
-1.02568
0.396972
-0.118438
0.315861
-0.0101739
-0.410179
0.265776
-0.165169
0.238764
-0.1067
-0.755852
0.862552
0.42161
0.312288
-0.708254
0.772166
-0.0639124
-0.050481
-0.230204
-0.545124
-0.219156
-0.139991
0.15265
-0.0126591
-0.0338977
-0.293659
0.327557
-0.0769742
0.327985
-0.25101
-0.156546
0.54442
-0.545835
-0.158175
0.70401
-0.772975
-0.242358
1.01533
0.453621
-0.400309
-0.0533129
-0.319903
0.0143665
0.305536
0.145712
0.0820261
-0.227738
-0.880096
0.0167864
0.86331
0.0252415
0.216058
-0.241299
0.749899
-0.839779
0.0898799
-0.410905
0.191083
0.281172
-0.472254
0.0146703
-0.154662
-0.370271
-0.254352
0.624623
0.610453
-0.990029
-0.964769
0.82228
0.142489
0.226019
-0.0402036
0.776332
-0.261993
-0.1298
-0.177801
0.307601
-0.0141908
0.227555
-0.213364
-0.195484
0.732081
-0.536597
0.875099
-0.616935
-0.258164
0.968572
-0.933434
-0.0351382
0.666362
-0.371938
-0.294424
0.0478249
-0.258718
0.210893
-0.329972
-0.0161649
-0.955024
0.849479
0.105544
0.0758845
-1.03091
-0.262139
0.67352
-0.41138
-0.457312
-0.256302
0.226022
-0.187707
-0.038315
-0.777551
-0.208771
-0.22039
0.153217
0.0671723
0.185018
-0.160688
-0.924254
0.864703
0.0595515
-0.226426
0.198667
0.153402
0.278753
-0.02426
-0.561243
0.0606219
0.17536
-0.197371
0.022011
-0.249178
0.364572
-0.115394
0.434999
-0.0490226
-0.217766
0.378981
0.196949
0.395194
0.300273
0.188896
-0.489169
-0.203236
0.533087
-0.641619
0.431472
0.210146
0.140239
-0.00299321
0.739934
-0.318324
0.538008
-0.381823
-0.110655
-0.264737
0.375391
0.233861
-0.762109
0.528248
0.592763
-0.613863
0.966073
-0.4252
-0.540873
-0.00643951
-0.551988
-0.0896311
-0.691285
0.977174
-0.285889
-0.0488086
-0.225654
0.876966
-1.03154
0.253991
-0.209744
-0.0481979
-0.201985
0.181977
0.184384
-0.00293437
-0.494081
-0.519779
1.10728
-0.403835
0.126214
-0.25531
0.129096
0.0625176
0.240022
-0.641439
-0.346497
0.987936
0.381812
0.196952
-0.00273206
-0.166435
0.169167
0.832706
0.137235
0.0164486
-0.153683
0.638529
0.18235
-0.328847
-0.943394
0.184594
-0.253584
0.0161737
0.23741
0.534668
0.638133
0.0758776
0.258741
-0.334619
0.939636
0.0289363
0.5986
-0.84359
0.244991
-0.800554
0.0147126
0.785841
-0.792647
1.00215
-0.209504
0.161768
-0.00344812
-0.15832
-0.374541
0.984995
0.126628
0.155555
-0.282184
0.0450286
-0.753282
0.512616
-0.213451
-0.299165
-0.84119
1.06447
-0.223283
-0.206268
0.558818
-0.35255
1.14912
-0.494055
-0.655061
0.055506
-0.61478
0.559274
0.150111
0.0185739
-0.400573
0.83821
0.552595
-0.898978
0.865876
-0.334431
-0.210619
0.176394
-0.817248
0.0166947
0.927326
-0.345709
0.00087119
-0.9972
0.33935
0.0189134
0.269674
0.593509
-0.863183
0.573362
-0.18162
-0.391742
0.593567
-0.950741
0.357174
-0.220002
0.0112278
0.208774
-0.199743
-0.488632
0.688375
0.394545
-0.273498
-0.566402
0.396992
0.169411
0.235113
0.167192
-0.402305
0.08694
0.139082
-0.844452
0.967058
-0.122606
0.12094
0.0158308
0.474378
0.222979
-0.697357
0.297434
0.404387
-0.701821
0.183018
0.474913
0.00717197
0.976085
-0.0157967
0.796909
-0.781112
0.357532
-0.10626
-0.281827
-0.0513508
0.333178
0.642063
-0.472598
-0.169465
0.436385
0.529688
-0.228217
0.172939
0.0552775
-0.21778
0.769392
-0.551613
0.00355221
0.191465
-0.195017
0.226581
-0.695315
0.468733
-0.314144
-0.203292
0.517436
0.672363
-0.0584512
0.270929
0.302434
-0.37172
-0.340174
0.711894
0.305017
-0.813656
0.103874
0.162584
-0.266458
0.209942
-0.053112
-0.15683
0.00807208
0.142039
-0.0596091
0.8889
-0.829291
-0.082058
0.844207
0.722417
-0.628131
-0.0942862
0.660377
-0.527889
-0.534092
0.249697
0.284395
-0.159541
-0.21599
-0.127912
-0.0193052
0.147217
0.0727669
0.15364
0.144954
0.730834
-0.875788
0.284442
0.145689
0.128869
-0.901844
-0.439684
0.0230319
0.416652
-0.355535
-0.216138
0.571674
0.527967
-0.272644
-0.839128
0.529956
0.293907
-0.440538
0.146631
-0.578968
0.840684
-0.261716
-0.435135
0.49212
-0.51
0.479387
0.0306132
-0.695004
0.975537
-0.280533
-0.0214139
0.243523
-0.222109
0.137156
-0.113564
-0.445469
-0.636681
0.983919
-0.347238
-0.536947
0.709284
0.489797
-0.542271
0.0524739
-0.116746
-0.111116
0.227861
-0.962305
0.653217
0.309088
0.0100524
-0.139325
0.129273
-0.107146
0.52281
-0.718294
0.709766
-0.475905
-0.190932
-0.502836
-0.714988
0.699191
0.441182
0.0859775
0.205778
0.251198
-0.456976
-0.361549
0.319833
0.0417156
0.362
-0.140516
-0.221484
0.31228
-0.496163
0.183883
-0.422313
0.575937
-0.153624
-0.686131
-0.11402
0.800151
0.0965703
-0.213316
0.379726
0.262337
-0.972359
0.683247
0.289112
0.155026
0.117907
-0.272933
0.0100917
0.206953
-0.26433
0.0573776
-0.635556
-0.17569
0.48797
0.159036
0.224512
-0.176687
0.225038
-0.258936
0.350977
-0.499884
0.0220836
0.305214
-0.0122436
-0.29353
0.305774
-0.555064
-0.424715
0.979779
0.137719
-0.509438
-0.508966
0.00269815
0.506268
0.0841819
0.250038
-0.334219
-0.00732349
1.09485
-0.702573
-0.392278
0.166545
0.641131
-0.0137685
0.58678
-0.365403
-0.221377
-0.30319
0.587417
-0.284227
-0.542554
-0.140917
0.683471
-0.483852
0.168241
-0.334674
-0.199417
1.2414
-0.463988
-0.777416
-0.223359
0.0934579
0.129901
0.321787
0.131059
-0.452846
-0.18802
0.213261
0.0923686
0.215093
-0.307462
-0.103877
-0.0414671
-0.217939
-0.0103469
0.748267
0.493136
-0.504199
0.936385
-0.235343
0.83045
-0.179319
-0.0440397
-0.78942
0.246866
0.727078
-0.615565
-0.13345
-0.64478
0.132663
0.39706
-0.659199
0.597027
-0.672097
0.798991
-0.023619
-0.210259
-0.130818
-0.202286
-0.156458
0.358744
-0.323164
-0.034841
0.731801
0.136355
-0.868156
-0.0155971
-0.264938
0.280535
-0.135737
0.387325
-0.985888
0.598564
0.776055
-0.0261552
-0.908341
0.922901
-0.0145601
0.206846
-0.161914
-0.853066
-0.109239
-0.332085
0.831333
0.0181465
0.281532
0.894693
-0.35081
-0.543883
-0.51613
-0.103889
0.62002
0.0532985
0.416146
-0.469444
-0.693891
0.0647201
-0.228663
-0.0682633
0.296927
-0.482936
0.612275
0.188557
0.475054
-0.663611
-0.371143
0.0794716
0.291671
-0.791005
0.0556105
0.735394
0.11853
0.591236
-0.286792
0.374178
0.292185
-0.195157
-0.2267
0.721047
-0.852442
0.174232
-0.363042
0.18881
-0.20276
0.290269
0.667919
0.0156316
-0.68355
0.59577
-0.831114
0.0083199
-0.271835
-0.237576
0.468151
-0.230575
-0.605157
0.234886
-0.0332426
0.323939
-0.290697
0.16885
0.0826735
-0.251524
0.153529
0.130468
-0.281075
0.614166
-0.144199
-0.105772
-0.171582
0.186252
0.316766
-0.0821292
-0.213999
0.257357
-0.219543
0.203813
0.0157301
0.219103
-0.248854
0.0297514
-0.698717
0.590998
0.0510649
-0.560031
-0.0861628
-0.320045
-0.0371518
0.582911
-0.545759
0.333559
-0.402459
0.249378
-0.559279
0.309901
-0.469735
0.779298
-0.309562
0.273951
-0.963632
0.261253
-0.0238643
-0.940905
0.420557
0.686723
-0.715727
-0.123401
-0.639119
-0.330623
-0.444002
0.182691
-0.149803
-0.0684039
0.218207
1.06399
-0.529324
0.923717
-0.221978
-0.241082
-0.167053
0.408135
-0.814075
0.335612
0.478463
0.236657
0.0846285
-0.259627
0.45071
0.173436
-0.101677
-0.590992
0.263431
-0.136803
0.0530158
0.21953
-0.272546
-0.103288
0.835088
0.100909
-0.19659
0.0956803
0.904774
-1.05686
0.503929
0.552933
0.136978
0.288566
-0.425544
0.691534
-0.487278
-0.204256
-0.533125
0.326856
-0.168733
-0.0653875
0.387174
0.881095
-0.979123
0.432788
-0.194625
-0.358705
0.663722
-1.05433
0.736061
0.318273
0.247666
-0.719733
0.472067
-0.655705
0.716943
-0.0612383
0.292155
-0.495391
0.0127557
0.153594
0.300027
-0.0612919
-0.68022
0.249333
-0.980794
0.383839
0.596955
0.245136
-0.761266
0.71257
-0.0193486
-0.581752
0.103746
0.400004
1.01014
-0.342061
-0.668074
-0.504153
0.23462
-0.590155
0.178912
-0.86877
0.764881
-0.490489
0.328618
0.447313
-0.823778
0.579117
0.244661
-0.939774
0.607306
0.332468
-0.374783
0.00263191
0.0718796
-0.944301
0.670766
0.273535
0.58708
-0.961621
-0.826499
-0.0179524
1.02213
-0.393423
0.571443
-0.0459197
-0.525524
-0.0308786
-0.165065
0.195944
0.147287
0.474705
0.491895
-0.626557
-0.197221
0.149632
0.244913
0.179104
0.387819
-0.566923
0.407477
-0.234464
-0.038554
-0.878554
0.917108
-0.379851
0.270483
-0.674662
-0.564226
-0.376912
0.941139
0.249625
-0.345456
-0.672606
0.203428
0.469178
-0.204105
0.153748
0.0503572
0.84387
-0.95057
0.194822
-0.432398
0.552005
0.130873
-0.682878
0.222919
-0.0967053
-0.785719
0.221187
0.564532
-0.541161
0.227016
0.273464
-0.576654
0.381279
-0.207047
-0.112515
-0.0915897
-0.0322615
0.976179
-0.565641
0.73276
-0.167119
0.961523
0.0125868
-0.97411
-0.52589
0.14617
-0.50241
0.0186061
0.835649
0.136247
0.0369738
0.18904
0.0933629
0.221355
0.504638
0.277641
0.0843594
-0.858176
-0.0660788
-0.866634
0.443261
-0.861068
0.177807
0.205175
-0.382981
0.90211
0.0560247
-0.958135
-0.123328
0.11988
-0.331109
-0.670706
-0.730364
-0.134734
-0.266191
0.861961
-0.330569
0.469722
-0.139153
-0.817049
0.261985
-0.3033
0.482404
-0.399034
-0.597703
-0.24623
-0.207472
0.36247
-0.447029
0.197852
0.984488
-0.153155
0.680681
-0.48902
-0.191661
-0.063427
0.428284
0.278365
0.960568
-0.882154
-0.046087
-0.225251
0.339376
-0.46876
0.532526
-0.462413
-0.559376
0.236531
0.169901
-0.406432
-0.867805
0.0135489
-0.130769
0.741416
-0.610647
-0.109608
-0.798733
-0.615442
0.637456
1.01711
-0.445667
-0.571439
-0.0359776
0.307871
0.676073
-0.286234
-0.389839
0.270464
-0.311931
-0.344511
0.0626839
-0.168243
-0.0132818
0.181525
-0.219956
0.425734
-0.39343
0.980509
-0.0124528
-0.175254
-0.271415
-0.0961021
0.367517
-0.0110257
0.854895
0.321726
0.0300511
-0.351777
-0.385262
0.570369
0.351116
0.418277
-0.477081
0.0373969
0.542871
-0.197113
-0.345758
0.29999
0.062833
-0.362823
0.0227514
-0.615672
0.592921
-0.872661
0.142297
0.22028
-0.426574
0.869835
-0.0178716
0.288336
0.148552
-0.479122
-0.979983
0.492161
-0.808362
0.282152
-0.460025
0.0706623
-0.29773
-0.536243
0.833973
-0.955396
0.00553514
-0.180346
0.174811
0.740977
-0.5725
0.543573
-0.490275
0.114938
0.53217
-0.647108
0.131779
-0.360442
-0.655655
-0.284192
0.939847
-0.316602
0.338563
-0.0219609
-0.440896
0.74322
-0.302325
0.675394
-0.515052
-0.160342
0.849888
0.0373453
-0.887233
-0.410513
-0.64635
-0.302869
-0.0564719
0.369612
0.64583
-0.0135828
0.11274
-0.0991574
-0.62487
-0.16085
0.596146
0.50678
-0.509734
0.627056
-0.117322
0.167626
-0.151178
0.280915
0.128398
-0.409313
-0.0833752
0.184285
-0.096152
-0.848149
-0.930773
0.504869
-0.210961
0.0337633
0.221541
0.0783042
0.691678
-0.769982
-0.505561
-0.0556822
0.607041
0.313712
0.0745329
-0.28142
0.276174
-0.370533
0.0943594
0.0149507
-0.330459
0.315508
0.511904
0.188303
0.293275
0.797417
-0.388609
0.728902
-0.458419
-0.123083
-0.255023
0.378106
0.703108
0.104029
-0.0140056
-0.652119
0.452376
0.842937
-0.853962
-0.334069
-0.384354
0.718423
-0.462897
-0.351178
-0.851875
0.864891
-0.0130169
-0.217782
-0.362277
0.205819
0.509883
0.287534
0.203799
-0.271364
0.0675648
-0.329536
-0.687584
-0.206305
-0.68952
0.895825
0.574546
-0.192734
-0.182542
0.286416
0.490279
-0.821388
0.388665
-0.369499
-0.414293
0.919742
-0.505448
0.299038
0.370905
0.341684
-0.712589
0.847378
-0.525882
-0.321496
-0.37037
-0.56879
0.860825
-0.292034
0.502469
0.178211
-0.302106
0.284235
0.376456
0.772661
-0.227488
0.196609
-0.293349
0.255866
0.89478
-0.48304
0.416695
0.647296
-0.404832
0.211311
0.193521
0.27992
-0.390575
0.670402
-0.00248273
0.649302
-0.077859
-0.618716
-0.0165875
0.635304
0.200516
-0.0285712
-0.171945
0.169622
0.0682153
0.140438
-0.933084
-0.293234
0.355206
0.634009
-0.59404
-0.0399688
0.179911
0.36296
-0.160354
0.0834398
0.309661
0.190583
-0.500244
-0.324135
0.692419
-0.0927256
-0.397662
0.894966
-0.497305
-0.162708
0.39782
-0.11176
-0.259383
0.979174
-0.499811
-0.320187
0.508082
0.183452
0.305853
-0.392016
-0.196994
0.17558
-0.270575
-0.155343
-0.00730761
0.297505
-0.153355
0.766961
-0.613606
0.235521
-0.223158
-0.330612
0.152811
-0.332869
0.0299998
-0.901985
0.646386
0.257748
0.210752
0.267791
-0.390112
0.122321
0.190877
0.136123
0.68355
0.394387
-1.07794
-0.117091
-0.0180983
0.135189
0.0510341
-0.788046
0.676533
0.340573
0.742862
-0.664557
-0.878766
-0.048003
-0.0445209
-0.383318
0.432719
0.539295
0.326127
-0.865422
0.415879
-0.0823191
-0.0336126
-0.303057
-0.101774
-0.559723
-0.422535
0.262995
0.369446
0.607972
0.538633
-0.478538
-0.0600944
0.200466
0.00334688
-0.0668711
0.256563
-0.0374601
0.715694
0.199666
-0.91536
-0.257531
0.310547
-0.237436
0.144048
0.0933886
-0.347314
-0.0061212
0.353435
0.322812
0.255922
-0.578734
0.203502
0.324465
0.623225
-0.0202445
-0.270898
0.34638
-0.253017
0.11509
0.0667393
-0.18183
-0.910949
0.505009
0.775055
-0.616305
-0.15875
0.0216201
-0.15984
0.13822
0.774491
-0.8341
0.561734
0.0128126
0.166755
0.376818
-0.145791
-0.00955182
0.199348
-0.282771
0.0834233
-0.412192
-0.13769
1.00479
-0.504832
-0.499959
0.758301
-0.230663
-0.527638
0.402888
-0.65876
0.255872
0.0447635
0.451478
0.0448144
0.017393
0.430286
-0.447679
-0.0630354
0.262383
-0.365318
-0.131296
-0.0652939
0.898865
0.0148075
-0.913673
-0.447649
0.270975
-0.283219
0.210804
-0.037865
0.160286
0.307866
-0.40742
0.330446
-0.00469443
-0.00710747
-0.0794659
0.144475
-0.375299
0.490237
0.00217262
0.287886
-0.0765734
-0.144351
0.590583
0.0459195
0.492713
-0.14004
-0.130674
-0.168439
0.478099
-0.146906
0.649944
-0.503037
-0.744129
-0.109537
-0.278859
0.733237
-0.454378
0.083856
-0.215152
0.31402
-0.0513184
-0.0169873
-0.252535
0.269522
-0.75879
0.258979
0.137785
-0.143946
0.440817
-1.08226
0.318085
-0.921089
-0.291485
0.498897
-0.301896
0.49862
-0.308037
0.0078403
-0.548584
0.571336
-0.000248559
-0.159101
0.0597673
-0.460076
-0.125495
-0.543014
0.66851
0.243922
0.306597
1.08831
-0.714054
-0.374258
-0.207471
0.0708722
0.236696
0.0224993
-0.259196
-0.719144
0.153503
0.20024
0.00970191
-0.0098121
-0.136153
0.145965
0.469866
-0.748724
0.0885776
0.409856
0.0565906
-0.466447
-0.727684
0.580778
0.153224
0.0379805
-0.191205
0.342083
-0.978764
-0.148749
-0.00306513
0.151815
0.201099
-0.0478751
0.0192682
0.666971
-0.483954
0.539673
0.489014
-0.285511
-0.830571
0.266344
-0.602019
0.522157
0.0798617
0.376638
-0.710707
-0.455345
-0.259943
0.715287
-0.0191278
0.372923
-0.300139
0.27161
0.885964
-0.101337
-0.784627
-0.0065161
-0.851659
0.769705
0.0801827
0.390502
0.28557
-0.161611
-0.00482347
0.160424
-0.209764
-0.356688
-0.336429
0.37378
-0.0373503
0.0205823
-0.904204
0.883622
-0.180831
0.402139
-0.221308
0.273892
-0.849265
0.575373
-0.0344285
-0.512429
-0.0327931
0.0420353
0.596309
-0.332051
-0.174453
0.506504
-0.358895
-0.293581
0.428153
-0.258252
-0.218642
0.0568787
0.161763
-0.102438
0.370229
-0.86196
-0.105205
-0.0742103
0.179416
0.212761
0.166161
-0.378922
0.557741
-0.892239
0.334498
0.0752978
-0.52551
0.125232
-0.966422
-0.467703
-0.529652
0.997355
-0.852869
0.0580654
0.794803
-0.942786
-0.714374
0.0586687
-0.32471
0.311134
0.0135759
-0.850365
-0.274366
0.99006
0.366516
-0.160473
0.117727
-0.286166
-0.113055
0.43752
0.15315
0.102007
-0.373421
0.0184518
-0.179181
0.160729
-0.183517
0.00615566
-0.116046
0.137666
-0.301348
0.438326
-0.974407
0.613557
0.360851
-0.180278
0.466591
0.47989
0.210215
-0.00969977
-0.0811091
0.284908
-0.446549
-0.226057
-0.513589
0.165768
0.347822
-0.0344184
-0.142866
0.177284
-0.421352
0.436303
-0.0976133
0.658082
0.530293
-0.208568
0.406186
-0.765081
0.422494
-0.479691
0.0571968
0.122929
-0.00613512
0.181845
-0.0124542
-0.828646
0.530916
0.30258
0.455721
0.0119735
-0.199209
0.187235
-1.09414
0.426897
-0.0601818
0.175379
-0.191563
-0.0194505
-0.215059
0.23451
-0.521175
0.189124
-0.912585
0.816433
0.771999
-0.219994
-0.279076
0.25821
0.020866
-0.242968
0.0454735
-0.158561
-0.976137
0.388018
0.588119
-0.152287
0.134189
0.103007
0.269658
-0.372665
0.472968
0.0887658
-0.259924
0.00886937
0.251054
-0.29065
0.292823
-0.269504
-0.0798039
0.494894
-0.822424
0.885176
0.0544593
-0.560941
-0.277921
0.825801
-0.0385256
-0.787275
0.097182
0.0709026
-0.168085
0.492409
-0.98649
0.451067
0.0308913
-0.481959