/*--------------------------------*- C++ -*----------------------------------*\
| =========                 |                                                 |
| \\      /  F ield         | OpenFOAM: The Open Source CFD Toolbox           |
|  \\    /   O peration     | Version:  2306                                  |
|   \\  /    A nd           | Website:  www.openfoam.com                      |
|    \\/     M anipulation  |                                                 |
\*---------------------------------------------------------------------------*/
FoamFile
{
    version     2.0;
    format      ascii;
    arch        "LSB;label=32;scalar=64";
    class       volScalarField;
    location    "5.5";
    object      p;
}
// * * * * * * * * * * * * * * * * * * * * * * * * * * * * * * * * * * * * * //

dimensions      [0 2 -2 0 0 0 0];

internalField   nonuniform List<scalar> 
13486
(
25.9643
27.4675
11.5382
-30.7432
-14.2249
12.0755
-31.1426
-0.631874
9.59961
25.2635
-19.5426
6.92262
26.4499
16.6918
-15.4096
25.7296
-8.15615
-36.5769
6.09391
24.6183
-71.9737
25.97
27.2226
-40.5311
22.7881
-34.9054
-8.99005
-0.530225
-13.3801
-1.90762
-131.67
-9.70817
-9.31238
5.99019
-0.438575
18.9799
9.21782
14.1392
16.3201
12.0567
-40.6875
27.8565
4.82917
22.2636
22.28
7.27943
-8.53327
-47.8042
10.6322
2.81863
21.7005
16.886
4.78682
15.3202
-37.195
-12.5217
-49.0258
16.2946
-9.16918
-8.59816
-28.9195
-8.81207
-7.17347
-75.4873
-56.7049
6.78858
-18.7731
29.2623
9.17579
20.573
-16.8877
-33.9611
15.2291
-7.01825
-4.75788
-46.8604
-3.77002
-16.8028
-7.26847
19.8464
5.07329
28.9234
-6.6376
12.1309
25.9003
35.2712
-19.1592
21.7088
23.9661
29.0732
-5.81832
-4.45074
23.2752
25.7724
8.83268
-62.4482
-9.17045
-11.7779
12.1649
-8.04504
15.5303
17.1211
-15.5189
16.9545
37.3345
-7.81278
21.077
15.6162
-7.60285
-8.74867
5.31293
-22.1536
15.3303
3.91383
33.9252
5.74634
23.4385
7.62864
15.4257
14.2809
-29.0445
-26.9736
11.0264
16.6014
5.0762
16.9569
2.3412
16.8771
9.66588
-38.9006
17.1594
-9.46796
-4.56999
-6.38328
21.6019
24.7477
42.4716
-7.98608
14.2946
1.53686
-3.50391
5.22507
-0.747501
17.1866
6.42564
-8.35404
10.4188
45.2236
2.33605
-9.44182
20.2354
-20.7771
4.24371
29.5374
18.3603
11.5061
-15.5765
-53.2254
10.1467
-5.12948
6.03729
10.1632
-16.0324
27.176
17.0205
14.1865
17.757
40.7671
10.6649
-6.23139
-8.847
18.3048
21.114
-0.946819
-6.71159
-57.5245
18.1832
-4.3381
20.8282
-0.0988642
9.34129
4.78398
-1.65224
-10.033
13.3122
-0.354174
1.20078
1.46483
-39.537
8.71151
10.3698
7.60918
16.0726
36.0994
15.6029
-18.8226
-36.6632
5.77528
18.7978
14.6613
-131.605
16.7442
14.0699
-20.8621
-6.38458
15.1655
-71.5726
18.8952
16.0483
12.9444
0.64767
-42.7479
24.4343
21.1533
12.053
11.6307
-2.51022
28.8675
20.9176
1.96412
-8.0299
2.26409
2.43472
5.65046
6.66167
22.1816
10.7474
-82.1125
12.1771
-17.3257
9.2072
-83.9344
-4.43702
29.13
-41.2264
20.3728
4.28381
8.06426
20.9098
2.17657
-11.3653
21.0696
7.06934
18.3092
14.3182
23.1298
4.68546
-16.907
-7.15434
22.8115
-8.25695
34.5675
3.79564
15.6036
15.2482
-63.1567
-8.79322
13.4285
-49.7852
-11.789
25.4242
14.731
-15.1143
-59.2647
-14.7018
-10.3599
11.9173
-112.585
15.7421
4.17304
32.6562
21.4783
-2.97164
7.4735
22.3631
-14.2754
15.2025
-8.88998
15.3083
10.8907
-10.0277
7.42862
21.6705
-42.1873
-24.3377
-7.76511
-1.99928
8.64606
6.9731
16.0415
-42.1087
6.14749
8.09267
21.5427
5.07706
2.72307
5.50699
8.84214
21.3862
-37.2139
-17.494
-69.6381
11.1896
-9.70396
14.504
-23.399
-94.6949
4.61295
-18.6376
11.592
5.52357
-34.8355
20.3669
-20.9602
-37.8537
25.0364
5.04478
24.1991
19.3691
10.6944
6.02316
12.3095
20.8956
26.3495
41.5124
-6.17839
-3.7892
6.97187
11.7038
-5.76317
21.7196
-6.01315
-7.62732
31.6428
-32.3247
7.09406
33.8572
-19.6223
21.1717
13.8983
11.0839
26.3976
-7.04323
-1.85249
-13.7063
-56.4982
2.67498
31.9885
1.40624
7.67803
4.66283
10.3452
8.16914
-9.26025
21.2867
26.7053
-7.4535
2.38198
-10.7185
-37.175
5.80474
-2.9645
24.4329
21.5368
-2.80579
-2.45911
3.4158
-11.5967
24.9676
2.83862
4.37324
3.19995
7.53513
-9.7661
14.4479
21.6058
20.918
11.2787
-37.4265
1.07521
14.9668
-8.13843
29.0029
32.7255
-10.1517
14.4067
14.745
21.0541
-8.76644
-119.357
23.7521
-3.02007
19.2664
21.983
32.347
13.014
-28.8557
-9.43104
-8.54208
-2.81769
-8.67591
26.1011
11.4932
-85.5649
-28.7712
1.77686
25.5918
-4.39963
4.38734
27.2794
20.2891
21.9372
-3.68909
21.5866
20.8961
35.8494
-9.60559
-13.9663
-7.78676
2.02773
20.9329
-64.7216
32.2501
21.4676
8.71417
1.9451
16.9764
21.8756
-9.11583
18.2345
26.1355
11.7024
19.1039
8.06136
-19.1031
-13.5341
29.5443
5.58025
-0.643995
28.9183
-8.93541
-2.85834
-5.66584
-4.27593
0.863106
16.8475
34.8459
26.4468
0.608736
13.9516
-14.3895
21.3551
24.396
2.5717
12.9608
21.3274
-1.04459
-66.8559
-44.3802
-11.7877
20.6179
20.4322
-5.35998
18.0931
-54.212
23.166
-41.8302
37.7187
22.707
13.319
-3.06192
31.5099
-46.8352
33.6291
12.412
14.5238
8.288
7.22063
-8.27016
9.00595
21.3578
24.4636
12.6761
27.4547
1.06278
-8.42631
20.9253
-119.365
40.5306
20.9843
21.7796
21.4707
-54.5392
12.2564
36.746
-17.6515
25.7692
-34.6238
17.382
-107.012
18.7615
4.8553
-7.47043
24.4858
5.41114
-9.4744
2.3664
11.4793
32.1431
16.8292
14.2205
6.14971
3.35515
13.2359
-14.9884
21.6041
-7.60641
28.9643
3.85432
21.2993
28.2574
-7.98899
19.7942
5.15728
-102.513
0.941928
4.76718
-11.0346
11.4929
23.2708
-10.3643
-20.1114
-10.3006
-61.4355
20.5085
16.8665
-9.83633
-14.5996
-65.4564
-55.6782
-0.288418
-56.1259
12.7919
6.14671
31.1597
22.2152
24.6068
-8.17603
-13.1417
12.3413
18.6059
-15.2142
17.6111
12.5691
-36.1174
3.89651
14.4888
-14.5163
-10.1775
21.7637
21.9791
19.9184
26.473
11.7456
21.1125
16.9514
19.4834
7.48357
20.8244
-8.88134
25.8834
4.8952
9.64927
-13.3563
20.3393
-9.10834
8.08006
34.2092
25.3285
-80.0963
-52.2334
19.6298
4.256
12.5638
26.0224
-27.6002
-11.5472
13.9288
23.9585
16.0323
18.3462
-77.3709
25.5428
7.38013
5.54746
21.3835
-4.53667
18.3202
33.3638
-0.299188
12.1294
-14.1899
18.331
7.15121
25.1218
6.05636
6.25101
6.99857
5.70337
-1.58382
31.6804
17.5981
31.1917
-83.7283
17.3391
27.1555
-7.39185
-11.3496
22.5648
33.8241
-79.304
-9.10391
-4.94694
0.680983
22.794
-55.6343
17.1417
10.6592
-10.3243
-10.2052
-17.6406
22.0847
7.46803
21.2754
4.70399
28.6668
11.1935
-9.67467
-11.297
1.37446
17.7432
-21.2079
18.9007
-7.9245
20.1705
2.8415
-22.9929
-43.3659
28.9039
2.11848
-13.0631
27.6761
21.657
-9.17467
24.2186
3.78673
14.9789
4.13231
7.44284
-73.8437
18.2357
12.4835
17.6175
9.56487
28.2998
6.41234
-52.8302
20.3384
-56.8173
11.122
-2.55302
21.2629
20.1825
-8.95196
12.6122
13.0977
10.6087
20.4572
17.6816
12.1194
12.2438
-45.9586
14.5698
26.5904
-26.3602
2.68347
11.3796
30.8636
-17.0873
18.3246
31.2427
3.86818
-0.154011
16.123
-12.6951
24.5071
6.59054
21.3471
-89.4077
-6.69551
-43.2391
3.48802
-8.314
21.1125
32.6828
9.44897
-16.0861
10.2656
26.8741
8.67112
19.4595
-42.9358
34.4728
-8.66794
5.02613
2.09558
21.4836
23.872
26.8527
1.68024
-88.6642
27.6957
21.2907
-20.7584
12.8209
-47.7665
3.21597
-0.502513
20.8645
-3.28616
13.9892
24.9454
-28.9673
15.8387
-1.346
-0.0863201
9.40147
17.9975
18.293
24.9574
-49.4844
12.998
-7.60089
-82.3912
12.0046
7.90364
-3.85128
21.3597
17.8504
13.2885
13.5744
-149.881
-29.7953
22.6483
9.03469
-44.8114
-40.256
14.1704
-64.7727
4.12974
26.7916
13.9516
-25.6347
27.6716
25.2342
-82.1411
-36.9596
8.2656
-9.95129
6.34165
8.11958
16.2088
-12.4492
-8.32219
19.1009
21.2355
9.58226
-26.4048
-20.7336
12.6811
4.3931
26.7043
5.6243
-41.7843
27.8422
23.9529
-8.70748
-61.8439
10.89
-26.6578
6.55741
15.9196
-0.706902
-37.2668
12.8462
21.1246
31.5561
17.6728
5.39901
14.1833
20.9097
23.983
30.6557
9.48688
18.7097
31.2415
-28.8941
13.272
15.8395
10.5906
29.4923
12.6278
33.1699
6.4341
14.3229
7.41051
12.9875
1.21939
23.0014
33.8359
21.3389
20.6203
-2.88915
10.451
9.241
-12.7197
6.45432
24.1825
6.41296
-101.465
-39.3396
20.2918
-0.664648
-6.95164
-7.4785
7.35457
-5.47278
-14.6756
-69.1669
19.6683
-92.1337
25.6199
-83.6126
-7.31583
12.7191
21.0306
-12.5543
16.3937
-35.2234
23.8269
-12.9496
-5.52522
16.7489
14.951
-8.47445
21.3763
-24.8207
20.7796
11.5197
7.61766
-8.94618
7.21168
26.129
17.1751
-1.1586
-23.4608
-73.5677
25.687
4.5582
-60.8741
-20.6815
18.4989
-32.2075
8.66873
8.2569
-11.2395
8.10916
-2.97191
-47.3531
27.6967
21.3497
14.1006
19.6307
19.6804
6.68751
22.1362
17.0446
13.3881
26.3721
20.6063
15.584
14.2539
13.3578
14.2505
23.0292
18.6024
-55.0319
21.363
-40.4311
3.88071
33.236
12.884
1.1213
21.0444
-1.74057
17.3674
13.663
-57.447
18.4169
6.86405
4.00623
7.583
-2.19889
16.4268
-8.1352
2.46943
21.33
-2.70021
31.1656
23.6152
20.237
7.88369
25.946
0.0808014
12.968
-3.66087
12.6644
-74.0766
10.0669
-6.45658
-4.0831
-40.8886
16.6651
-14.5849
-21.5595
-100.552
-84.2042
30.0483
22.481
10.7966
-8.01278
-6.19861
20.8387
31.5015
0.457668
-46.4469
21.4273
-143.758
17.6639
-12.4323
14.8206
15.6023
17.5126
28.3226
5.49487
20.9873
0.322153
21.8808
6.30264
23.8628
3.76466
-14.1246
18.5832
-78.2524
5.4892
-0.733973
-80.6257
26.284
20.8808
25.333
22.8535
25.2185
17.4917
9.72999
9.16934
20.9804
20.7686
10.4704
10.4628
0.055653
22.2994
-4.23232
10.9218
-6.98626
42.214
12.5861
6.87851
31.8164
25.534
9.99029
-70.7943
13.144
21.0815
-50.1038
6.46897
-6.69518
11.1218
20.9753
21.3481
15.7625
10.2209
21.765
4.15781
6.43143
23.5993
3.29637
12.0168
-12.3604
12.4622
1.39156
23.1606
32.4531
7.12688
-147.737
-6.997
-6.50743
19.0645
8.00446
29.0823
17.5348
36.1229
16.9822
6.4449
19.06
-9.95576
-9.05304
-28.0467
18.58
16.0917
-6.04367
-139.792
19.5888
22.5829
14.1799
-7.34041
-13.4246
-9.98947
4.48149
10.5686
6.77988
0.941292
19.022
21.5829
24.9074
11.5912
10.4289
-8.79323
-0.628109
12.3645
-79.5725
29.8204
6.30672
-114.412
18.6629
-0.0729091
-14.5718
-48.7573
6.1609
22.6937
5.12253
-9.79548
-0.769724
3.22831
-13.8623
9.11124
-4.48501
10.261
21.3332
16.4333
-6.74921
21.5789
7.5976
24.0089
22.9712
20.3362
-4.57571
13.3592
28.513
37.3753
9.59927
-15.3403
21.8437
5.74393
28.6124
-5.31953
-7.57796
-38.865
8.05222
17.3089
-4.5335
20.7897
16.4316
3.14561
-31.7547
-1.7502
12.2343
32.9161
-13.5056
22.4203
-8.67869
35.4761
28.6713
10.9513
2.65914
-89.3083
36.3279
5.14731
35.2615
1.77366
-0.0667292
19.721
8.92005
-14.3235
-6.44923
-24.7128
24.6666
4.58048
-13.8326
25.454
24.4031
15.1536
1.70319
3.99768
17.9365
12.2347
15.1964
20.4277
5.3462
-21.5806
22.5604
3.11488
-3.0682
-1.92521
24.0506
15.9195
-45.6351
-77.2564
2.56218
21.8698
26.902
4.78738
-10.4498
0.500796
33.1962
-11.2336
-2.68647
28.8127
21.6357
4.10904
4.36804
-25.0454
-7.8059
-2.26329
-12.3395
13.8263
-30.6241
14.2679
7.60009
-9.44196
-8.21297
-3.27257
-64.2081
-8.62158
-6.29404
37.8968
23.1823
-15.8746
-12.9888
-9.42136
17.8828
9.16565
35.9255
-6.86546
1.14282
21.7321
0.724243
-34.6285
-1.5681
-2.37343
16.5624
37.2805
3.12515
11.917
-41.5456
12.9172
-5.11625
4.82423
11.0043
22.7012
25.6916
21.6564
-110.307
17.0833
6.23715
8.70832
20.8066
8.27558
22.3277
34.6047
30.4832
0.467428
21.7006
23.8688
1.15422
19.8915
17.5537
29.7655
19.5913
14.2793
24.1772
20.8466
-1.57332
9.1283
24.8646
-7.12911
8.22366
-19.7433
-8.45207
11.7474
17.7294
18.4308
-3.57845
28.0213
27.5095
-3.01435
-6.21764
8.15833
-48.142
13.3539
24.4204
23.2243
-7.00892
20.9734
8.05207
2.06187
8.84051
-34.0134
-83.4559
6.13132
37.8119
-19.8429
3.86846
26.7788
11.4289
-13.5582
19.5588
7.91629
22.0136
-23.6651
0.681652
5.39313
-0.679502
-6.58394
-2.98472
32.1753
25.4192
14.7719
44.8028
27.2949
-10.6014
17.7836
-64.9312
12.3856
28.1899
-110.939
13.2346
5.83371
-11.106
-9.34408
18.8526
-70.0691
2.58213
24.6254
37.5632
-9.10915
2.85908
3.13618
11.0671
11.2755
-44.6855
27.2513
19.2478
8.5786
18.5012
-3.12107
-21.8593
-7.79883
30.3018
-5.85815
35.0062
-69.5102
-7.36488
-8.75624
-15.8423
-6.53149
-5.47526
15.9474
17.915
-20.2245
17.9887
-33.1208
-3.78036
-7.90831
-7.2979
0.12923
-4.53574
-9.62619
14.9476
-61.3977
-26.6357
7.03786
7.85495
34.0755
21.1832
-1.88651
4.98858
42.3239
12.8503
-9.30867
-22.8628
13.6922
22.1881
8.7301
22.5191
-0.0873553
-0.443653
-2.53813
-0.814627
7.94736
27.5027
-6.72491
-13.5136
-7.90975
30.9157
-8.98724
6.09087
20.8109
-69.4752
1.25228
19.8053
-11.5087
-9.82607
-14.2115
21.8123
14.1342
20.5101
-6.42894
-7.42911
-9.3826
-6.35943
-4.43012
9.54163
-4.10358
4.67994
-12.5016
-20.3539
-9.4177
-29.4107
25.0441
-65.6371
31.2351
-16.922
23.822
-6.84817
6.939
21.5204
4.8396
28.7922
-10.0708
-2.8576
-12.4909
19.2098
-6.95595
21.4533
12.5962
30.5799
22.9651
14.1082
18.5392
28.2529
11.5069
18.351
1.95186
-152.27
-2.20406
-11.3971
15.8267
-8.7172
-6.88917
11.3268
-14.9684
7.78375
-48.7028
0.67105
-5.12959
0.221034
29.7067
12.9275
-33.1573
9.92017
21.2625
-34.7652
-44.8367
12.1955
11.2155
10.9438
10.9719
7.57654
21.223
21.4952
3.34425
22.9073
23.3965
14.1285
1.83299
6.92036
18.4916
6.6068
0.611524
-8.76903
-63.5107
1.00717
-27.7242
13.5292
15.6691
-1.06135
-6.87423
2.62714
-56.1678
-35.7766
-6.43171
18.6572
-11.6413
21.9993
41.2483
19.8977
-3.49657
20.3499
16.8426
8.15889
3.2446
-3.10044
-99.4573
11.2054
19.5285
4.49725
27.2217
2.98778
21.4778
0.619094
-0.912751
-9.12249
-12.7788
36.9865
-56.2618
21.3168
21.5617
22.57
11.2954
19.203
8.35255
-8.58158
10.9937
-9.39001
-6.67954
19.6857
21.6572
-3.96739
22.2294
24.0485
-42.922
-68.2769
2.01191
7.3319
24.4691
20.1166
24.6191
3.80693
9.50256
-0.970541
0.254693
3.10513
24.8582
34.6143
-6.01421
-8.69294
-8.87587
5.56978
11.9653
12.0641
-20.3802
-73.2913
1.35593
-85.2568
-18.722
41.1165
19.057
-12.6596
-119.987
0.222262
-17.0067
-8.39842
-27.0088
-16.0374
26.6585
20.0272
-2.73905
35.8963
-26.7825
-13.4527
-3.97093
-8.54987
11.7591
-3.692
18.1515
9.03802
-7.59072
1.30428
3.76168
-8.93779
-88.2114
24.8008
-52.0806
17.7923
-7.74335
21.6177
18.8812
-7.06599
21.1741
16.4163
24.6378
28.7758
11.7928
9.45523
38.5005
-7.74595
6.06636
-35.8309
-79.9782
27.1137
-54.203
31.3756
19.945
1.91253
-12.6275
-11.845
23.775
-67.8631
-20.1337
12.4058
17.306
-21.5173
20.7688
16.0772
-0.959018
30.9354
-6.69081
-30.6755
29.253
7.05936
24.141
-27.256
40.9561
17.5465
-58.0512
25.0095
5.86493
21.4141
10.5243
15.5538
11.6284
-12.1781
-7.99871
11.8132
8.7614
-92.2673
17.3293
10.4355
19.173
19.8557
-73.6534
11.8721
-17.7739
20.4853
-3.03309
-70.2116
22.7733
-61.1559
21.6701
22.3289
-8.18728
26.0499
-61.8262
36.8086
13.2981
-59.6109
3.63339
1.95968
27.6046
23.7376
-65.7783
20.2861
23.2172
-15.9492
7.46879
9.08723
15.8168
-16.636
-8.04505
-9.08852
-97.9691
21.5059
-8.66056
-68.4248
4.11882
24.6881
21.0373
28.4388
-7.72667
20.0228
15.0259
13.088
20.2077
-97.3957
-83.17
30.6235
11.7641
15.667
-6.54667
-9.21533
-37.3636
21.282
-8.14086
7.61439
23.9502
-3.44044
20.2268
-1.78718
2.55147
33.7584
-0.995728
24.7392
-5.06169
-74.792
17.901
8.31408
29.3578
33.6084
14.5521
-4.42489
36.003
19.1762
25.908
-6.30695
-8.74069
-9.97631
1.72892
-60.6724
-8.11128
4.08064
-8.9903
3.76163
5.26603
-8.38646
-3.39637
-73.5408
-4.77865
26.1584
-15.2738
7.3386
20.8499
21.0751
14.9481
27.0624
-9.14417
-8.61121
0.448356
5.39172
26.284
-82.4576
24.6196
-9.51754
21.4036
-10.6343
0.183448
-37.0145
15.3678
21.3101
17.0321
7.00929
22.3818
-49.8584
21.6865
30.0863
-33.3587
-26.1093
-48.6474
22.8994
15.3314
-21.3386
-5.99227
13.8727
13.8047
4.3217
8.558
-1.31887
-6.88217
21.3566
15.1393
17.5962
-89.6081
27.0612
1.14267
17.8085
-26.2371
21.9173
16.3275
20.588
8.47122
-55.8332
-39.4897
5.21633
-5.19329
-48.2952
-60.6325
6.35553
-77.9537
22.4416
13.273
21.2986
-124.254
-76.9916
-1.44356
17.2652
16.2993
-9.78985
12.4317
7.36334
-97.9376
-62.8676
-1.68209
6.28621
21.4653
16.8794
8.69984
-1.95803
11.9886
-80.9886
-6.76297
-13.0848
21.1914
3.5641
5.72984
19.5773
11.0391
17.6406
33.835
29.8856
-1.13691
-22.3417
-1.95389
3.93618
20.7419
7.11555
-43.8634
-61.1987
-31.876
-7.3478
10.1633
-50.4043
39.1614
0.607506
15.3667
4.45414
-18.0123
18.6785
-0.0628494
16.1947
15.6622
9.83322
22.751
0.0740855
21.0477
-2.32987
-21.9142
-83.9102
-21.5771
-63.6895
14.6699
33.1312
20.5185
-14.3933
-37.0197
24.6308
-9.26214
-119.843
2.68683
13.8771
-44.9895
-62.0797
-70.0553
-2.19285
6.896
5.35809
-5.63031
7.98005
22.5273
1.37156
-2.94794
23.5566
17.529
-21.1927
7.4356
10.6484
5.35031
36.8423
4.04839
5.97174
4.62621
6.52345
1.37828
9.96633
-18.548
1.94043
10.4688
-2.19871
5.19145
-33.7554
24.2442
9.03387
16.7772
-32.944
5.23852
33.6675
-75.6607
15.224
14.7616
20.1982
17.088
3.43343
-8.93587
39.0328
22.6721
22.2956
12.6128
-49.8986
23.3641
15.8691
28.8104
-32.8453
23.1103
23.3377
22.6873
4.8675
-9.38468
17.9009
-7.5863
-0.879051
20.1018
17.7814
15.0219
24.5128
9.02543
27.2248
7.30287
15.9524
13.5866
4.91123
-22.7836
21.5238
-0.56846
21.1327
37.1854
22.3109
3.58737
0.18633
3.55115
21.4664
17.8706
-8.47749
6.66878
4.72491
22.2883
-3.22142
25.6161
17.2742
42.5662
30.3918
-5.71256
-9.63215
-26.6364
14.7172
30.3415
12.2435
13.2779
14.8318
40.8936
21.9172
6.02104
39.8151
5.46563
18.8382
8.08373
14.6361
-25.5783
11.0192
15.0793
19.6726
18.5545
-6.2076
7.30105
1.18864
-1.88215
-38.0651
4.15696
31.5016
24.0562
9.597
-26.7783
11.0136
16.9412
8.20697
8.26463
20.5905
18.2188
-4.66622
-64.0346
22.3251
-1.34652
-129.499
30.5714
-1.34719
3.39359
0.360039
34.2116
-78.6354
24.6547
-29.2282
38.0444
-3.20133
-17.3942
-4.46881
6.11283
9.45909
21.2127
6.12188
-105.886
7.69426
-145.04
21.71
13.4814
13.8161
-84.4419
-63.9893
-27.4666
14.5841
-14.9748
-12.9892
-5.43885
21.4998
34.8544
0.282772
4.40481
8.07074
-124.607
19.6304
12.9585
-6.96931
-79.5289
-15.1336
27.7705
-72.2743
19.2882
5.70025
-13.2807
-69.263
16.9769
21.7407
16.7899
21.6303
32.9761
-29.2641
39.5817
-4.38542
36.3637
-73.8151
3.66581
31.2284
19.6791
-56.7243
4.89469
17.7438
9.44066
-101.45
-7.9697
9.4076
-1.82018
-9.25223
-19.954
15.2676
18.8902
14.6638
-99.9093
19.0856
-2.26471
-5.46469
-93.1515
17.1759
-23.9443
-88.2259
0.72116
35.2581
20.1464
35.5216
4.63405
-9.48454
20.0984
8.59844
-5.67758
21.6511
19.7666
37.247
21.9678
24.9177
-14.6053
-6.53881
36.3398
35.1238
23.5332
7.89062
-40.0743
-7.53968
8.83435
-6.1772
-6.45717
30.5502
-135.684
17.5553
-17.6592
36.0848
-5.04627
15.48
-44.0909
5.62128
32.8828
40.043
38
11.0065
23.2639
-21.5492
-3.41155
23.3616
38.5052
-71.7623
-5.75235
-2.69414
1.81096
7.4821
11.5129
8.72617
8.83017
4.1116
5.26073
6.32108
18.5528
22.3489
-28.4473
16.9474
-50.5374
7.92622
29.3011
-27.7905
-20.3427
-32.7187
20.0255
23.8016
-2.12763
-35.899
-9.77832
-1.30184
41.2523
-9.17318
-7.80267
-65.4965
14.135
-55.1141
-31.5422
-7.76722
-10.7663
-0.242233
-7.0907
9.13981
-9.6341
23.2764
9.92868
15.0409
39.9176
16.5295
6.95851
19.4837
16.257
-6.43953
4.70604
29.9754
18.8883
7.32071
-40.4626
15.3858
18.4993
-117.039
-53.286
5.35883
30.2743
0.110055
21.5063
14.2524
26.2736
9.29181
-56.7951
-3.87029
20.977
1.76842
22.6035
5.6794
36.459
-18.7806
10.3743
-15.955
23.2946
-10.3862
1.04933
-19.0477
11.4437
-20.4708
-62.3001
-74.4501
15.7049
-1.66028
-32.1128
8.65766
9.03877
-7.47853
6.15589
-23.1015
20.7195
35.0749
4.53149
-7.18771
7.92671
11.3917
-17.0138
14.01
7.25638
-8.08976
4.10769
0.64002
-20.2119
14.9726
17.6675
-60.2406
-25.1521
5.02148
20.9788
21.8037
-2.24478
11.4361
12.1061
-46.0181
-2.42401
3.97287
-5.94668
26.1508
-118.324
-13.8234
-6.64978
-27.0445
-12.0014
-32.5683
43.291
-8.2829
-4.03045
25.5484
35.5635
29.4455
-64.6111
7.70802
21.0567
17.6252
3.77759
35.215
2.56659
0.378016
42.3795
14.146
-28.792
16.216
28.4504
21.7078
8.06893
31.0147
21.413
-2.9792
5.50776
19.7047
6.55266
-8.60655
32.627
25.7874
14.1983
3.20133
-25.304
-4.08571
-50.0833
6.01309
3.17898
10.4643
23.1024
11.7243
-9.03304
30.8555
31.4455
-9.53398
4.62569
19.5778
22.159
-21.9471
21.2377
-78.7635
1.27857
31.6357
35.3349
-9.44972
14.1355
18.1627
17.6201
-2.79744
7.10233
-66.2306
-0.612941
-13.2915
16.8227
-9.15128
-2.65584
10.5545
-24.7668
19.3463
-64.7329
11.4798
18.1113
-5.51899
-37.1232
-8.06381
11.7766
8.06193
-9.5445
19.1016
-70.4937
-4.87276
-6.58807
19.7761
19.8458
-11.6098
35.5265
10.7071
39.2841
5.92714
0.0260105
10.1405
21.8901
5.47397
-6.00535
14.2443
15.1903
11.1965
-1.10777
43.4586
17.6176
-18.047
0.103263
-7.574
-25.3883
11.6065
-22.6053
21.3972
-63.8448
-36.2548
-9.5177
-25.8057
-1.73686
-10.7584
20.8696
4.32515
29.6307
36.5477
-8.44895
-8.01651
5.60573
5.69227
30.7368
-45.6319
15.7636
19.0495
21.4634
-104.397
-80.7244
9.10812
18.2591
2.60864
-121.696
-29.5381
-1.55535
6.27997
-4.42365
13.2908
-3.57274
-3.04835
11.9396
-71.4873
-56.3682
6.19269
-50.5216
36.4261
-5.46669
21.7044
5.31746
-2.70181
13.0053
-12.7058
17.8934
-11.0865
-10.51
30.4731
19.546
14.4793
-8.40982
38.5558
-27.7957
-5.95072
-72.1891
-12.054
-11.1473
-105.203
27.7738
14.207
6.68204
18.9141
-31.2929
-73.6592
-3.35616
4.88412
-4.04754
14.5738
19.6405
12.2178
-1.75904
-6.5838
-55.179
-1.46415
5.22497
4.21076
37.3182
21.3789
-52.0767
-13.9834
17.1757
28.5806
-6.19197
-9.84683
-9.82175
24.7692
9.10759
-3.51317
22.7361
-87.8537
30.0957
-3.74163
23.5818
-13.348
-1.78366
9.63966
-56.5092
-11.1804
18.4508
-9.23419
-9.34625
16.2328
-144.881
12.4217
24.7329
21.4893
24.0162
21.4994
-2.47961
8.78325
14.7018
9.41245
-36.3754
15.9976
-3.26744
30.5498
-20.5203
23.3766
-17.8679
34.9387
-35.4542
6.80701
32.9932
-22.0685
-4.78672
-9.82453
23.7396
33.039
20.705
4.32001
21.1264
19.5509
-27.9747
21.7893
-73.1379
21.5264
-24.6543
-96.28
-7.99127
-7.77843
19.1741
-17.0815
-6.6535
-0.869047
32.278
14.9367
15.5386
-7.58955
2.96291
-1.14272
19.0106
21.5408
9.93108
-6.0974
37.9553
17.3428
29.7235
20.7674
3.60392
24.926
4.63181
-1.94741
13.544
2.28913
-0.267259
11.674
9.62201
-56.0235
39.5476
24.0881
-6.0839
-51.3614
9.85665
-135.712
22.9568
18.0158
8.71112
3.78625
18.0003
11.7165
1.75141
-6.30618
-3.70032
12.9918
30.0631
-8.30405
33.0229
41.0775
34.2662
-30.2681
18.8809
-14.667
20.7842
18.295
25.0002
13.0093
23.0225
39.5652
22.8062
-8.42388
-43.6062
-11.1618
39.6998
0.274932
-114.694
-2.87186
25.8813
31.1859
15.2885
-7.38687
14.9449
27.8029
-7.68761
10.3161
-6.24772
19.2298
17.9967
-28.8303
2.94442
-11.1334
-12.7609
-82.2622
-0.190877
17.8767
18.5149
14.482
11.0965
10.2624
-21.3207
-10.56
10.3567
-18.8584
-11.718
-8.75992
22.1231
28.3344
-27.9816
33.3377
22.7126
32.7204
9.98385
-97.9423
12.9934
-8.88083
24.6222
-19.193
23.931
22.9922
16.1352
24.3655
6.02991
20.0429
-5.44178
19.6775
1.35729
-6.07334
-20.1114
15.9428
19.6824
-87.8296
-90.8839
-80.0139
34.7031
18.5447
20.9206
0.443673
26.9392
-2.88942
9.83644
0.569762
-0.415278
10.1311
-61.9182
-9.19764
4.83512
-8.24378
6.27618
-66.5192
-0.700684
-7.22655
-7.18083
5.15527
32.5013
36.1764
29.5685
-96.5931
10.4394
-15.1839
10.5097
30.3129
17.2744
19.4244
-74.3861
-3.67635
-0.293261
13.296
21.6464
13.188
13.3307
-8.92615
12.4214
-8.10762
21.0945
13.501
21.0009
-10.8621
10.4532
-99.8342
-7.07387
-7.48505
-6.78211
31.0522
-5.258
6.6864
-8.91655
16.8408
21.5771
16.7079
20.6448
-10.2556
27.5333
34.502
-97.309
12.6729
23.5575
-74.2109
-38.367
14.3273
23.282
24.8379
-11.836
-6.1962
16.4548
32.2141
-6.61795
-60.9011
12.7976
27.5539
13.9605
2.32716
-137.758
19.7233
21.4845
21.1458
12.4965
-4.33644
13.3707
38.7327
-6.92361
1.29523
13.7763
-5.75194
14.2862
-1.8928
0.369248
-7.29425
-49.4374
20.87
-130.183
-14.0915
18.9958
22.999
10.7308
-1.18487
-53.2597
11.6878
-9.30404
-20.3684
0.714303
-0.923331
-11.9979
26.3127
12.4406
14.2448
9.03098
29.0922
3.09712
-1.61347
20.5968
-7.73054
21.8057
8.8235
-3.30878
-24.1503
22.2138
-34.2607
-3.26025
11.0018
9.13322
20.1905
-21.9785
-18.3171
-76.8925
14.655
20.5954
-10.7673
33.9466
-9.69583
-8.61689
-66.608
24.176
12.9293
18.1555
-12.2587
27.0751
-61.5708
-3.28319
11.1974
-8.23256
22.5143
-0.250621
10.1042
-1.8904
-8.69713
21.6727
-8.24574
-68.5977
6.14905
-20.1163
-16.1247
3.00602
29.3345
-1.38646
-15.6286
18.2125
-8.41424
24.3381
-20.5426
14.4201
27.2974
22.1629
-0.29089
-143.433
-49.0752
13.6559
18.8898
20.2665
-14.0499
-16.9699
-5.34351
-11.9438
22.0846
40.735
10.7137
20.2427
24.0366
17.7491
22.4519
-63.5334
-15.809
-72.1946
20.8267
39.3514
10.9472
6.59917
20.8412
3.05131
4.6059
-1.08902
14.4925
3.05483
33.9825
-58.0374
-11.6544
39.3435
21.2366
7.73023
13.3749
18.6831
6.37893
-73.7961
-72.3966
13.3869
-6.83136
-5.19295
18.7893
-76.794
-51.519
-26.3654
9.44864
10.3218
12.9703
16.6046
18.5847
19.0816
-18.1886
13.8269
10.855
34.2018
26.7933
-8.44481
-1.75388
16.995
22.625
12.8879
-4.71571
3.43208
16.1734
7.45972
29.2887
15.227
2.39474
-16.9861
-1.5839
15.8967
-4.33658
23.4552
17.1949
11.6261
-54.6623
9.23388
-2.23748
11.3714
-5.94184
15.6648
-36.3044
-10.958
25.0994
1.25529
-4.14067
-13.3463
30.5376
-58.939
-4.20556
18.4506
-6.84207
26.759
21.7584
-8.12625
22.1253
7.80171
14.2208
-10.2306
-16.7549
4.13636
26.459
-15.3611
-12.7308
-6.74842
-5.40884
-9.21301
-10.7226
-7.06429
10.8149
18.6762
21.1838
16.842
0.216312
14.9679
22.7729
18.1618
-11.1942
19.2294
-10.9436
-4.2133
10.4915
3.46188
21.5611
-136.887
-62.187
-54.411
19.2403
-76.9898
-9.60385
12.933
-94.1379
-8.49273
-6.82824
-18.3296
12.1172
-16.6094
-0.244762
-11.5327
22.1871
21.883
-18.6834
24.6649
-63.6961
28.6549
-9.73828
14.673
6.14697
13.7507
4.08078
-6.29032
-18.7939
22.4999
26.2372
30.606
-18.3259
-8.85067
-79.0745
10.666
4.49004
-9.78694
-23.8056
-8.41265
3.90599
-14.2912
-4.40991
-44.3307
14.8148
27.4265
7.39354
16.7575
21.9392
0.342586
-8.71018
30.5748
35.7099
-6.64573
14.0562
14.4947
-51.1062
-93.8785
23.9551
25.8905
-6.26853
-63.8173
-71.0652
-76.6336
7.54548
-8.86984
10.6441
24.4049
16.3714
24.1781
-13.5159
-6.46834
22.4624
9.10838
-7.37923
15.9543
26.2208
-7.08358
10.0548
-5.62859
-9.72895
-7.67572
31.2733
-17.4907
12.7641
-17.6993
17.8504
-7.9856
-30.1292
-8.00181
-32.5154
1.21152
14.5025
-68.1916
-9.23873
10.1228
8.09638
-43.5622
-11.9026
-11.6684
-3.96925
2.48332
20.5285
-11.5592
23.3379
-16.3226
2.59259
2.86002
2.18713
-71.262
-10.215
-54.5943
-3.18621
18.8738
-9.48092
13.97
-5.88621
7.07297
-50.6501
21.4587
-32.351
20.6543
6.32362
-136.273
-8.14897
44.413
-67.2254
-7.00223
-12.2469
-11.5338
20.9557
7.01963
-3.11159
-109.797
-5.35165
-16.8562
-6.96349
-8.54056
9.10267
-12.6937
15.7137
-4.87053
13.0034
10.5029
2.51018
-16.836
6.8486
17.5015
-8.31664
-59.8209
20.3696
-6.54179
-8.07325
13.4389
-23.0709
-6.34017
10.9638
18.6736
-60.1358
20.8667
-8.97562
-23.62
-20.1063
-15.2937
-8.51662
-11.9421
4.56054
19.6678
20.9404
-54.1036
42.1386
-74.3536
25.3577
22.4083
-7.27583
19.271
17.5476
21.3385
-2.76297
-62.2125
-31.1647
-25.3445
20.692
17.8681
-14.7461
-17.2815
-9.4859
26.2192
14.2843
-60.2936
15.8151
20.3526
2.89428
2.05551
12.1367
21.623
21.7784
-17.0362
23.5876
23.4782
-2.76883
-86.8426
17.7766
20.6733
14.9099
2.18096
-5.23883
-44.6862
-22.3997
-75.7526
25.4051
8.68723
13.1024
0.320803
12.5034
-126.205
11.6845
-93.1453
-4.24163
18.0045
20.812
-60.4197
18.198
2.77203
9.60506
12.2997
15.3221
13.1256
1.73683
22.0676
24.8548
20.4088
-10.9924
22.1163
18.2195
21.5858
23.211
-57.0648
-2.23109
-23.1484
-4.62941
18.6023
33.7053
-97.7264
40.9926
-66.3536
-7.06041
13.0109
17.8578
-9.61445
12.5825
-8.96626
-94.8674
15.0646
-43.2191
-12.5823
14.1168
8.67266
37.9505
15.3785
-10.3952
-56.9407
10.2942
19.792
-88.9427
-51.8568
-53.9821
3.59128
-7.05707
-4.76145
21.4976
9.39073
19.4276
-2.86375
-0.0153413
-23.346
5.34322
-1.66837
-11.2354
28.597
-7.6699
-16.9947
43.2028
-56.3602
3.98216
20.3699
15.0635
-68.3468
23.9682
17.6399
20.937
-2.06305
19.7033
8.52731
26.9084
20.5619
-65.6479
13.0331
-0.401753
-47.1942
17.365
10.6242
20.0024
-95.4852
38.6795
11.8036
-129.949
23.0498
-3.87903
12.3438
-65.6032
-12.4582
-10.1966
-28.4637
3.76295
5.99221
16.7161
-64.0045
1.58218
-64.2987
0.393019
-142.272
4.11224
22.2923
-14.542
-32.7726
2.97885
-0.540813
-9.01768
19.2929
24.0515
-46.506
19.5557
-5.17341
21.382
30.2651
-0.61635
21.6156
3.73899
19.0573
21.1102
17.7133
9.48983
-142.723
17.6713
24.1243
-73.7312
19.1354
-21.5789
-10.5014
20.6534
-65.2445
-5.3122
-62.6662
20.755
-9.21696
8.44037
-4.73748
22.4815
9.66799
-7.76019
-5.01592
15.4751
15.5258
27.3085
33.5211
18.6881
39.407
24.9478
43.7614
10.4925
4.6703
29.0341
-37.4508
13.0959
12.2756
-6.63011
25.5086
10.9539
-4.91652
33.3313
15.2235
-50.34
20.2739
19.2576
23.5863
-7.52945
22.6517
34.672
-1.71428
-6.89817
-2.25703
5.70497
-12.7334
16.7689
12.3203
24.9048
20.8726
-23.853
16.7172
3.58645
-9.03773
-8.27195
-77.2059
13.9055
-13.2314
21.2258
17.7684
-9.33391
13.5363
-25.6328
14.3352
-70.0221
-9.8833
15.9476
16.8737
-7.68075
12.8119
23.9889
7.52648
-100.995
21.4888
9.82581
19.9898
-7.35166
24.4218
18.0892
-11.7847
14.0397
14.647
4.49474
18.5761
-8.42109
37.5174
1.32252
-6.26357
15.0119
8.86178
-8.14656
-5.19246
-7.91728
-7.56848
-6.84426
-8.87556
12.4708
10.6024
40.1296
8.61268
-12.927
13.2311
0.728238
-5.22331
7.96477
10.7438
24.4444
-11.2998
4.95621
-9.29486
-3.74155
5.01728
9.65546
21.9312
-21.9908
1.5773
-8.50075
19.517
-20.4995
13.0201
-7.35548
14.1855
6.0805
25.0731
-6.7928
-3.92951
-8.77625
13.4558
-9.6236
12.3818
19.8997
17.4173
25.9345
-2.86007
-11.6931
19.9174
-116.097
22.4556
20.1766
0.789677
18.8649
-4.55699
18.3507
5.56906
-0.85017
-31.6851
23.5801
-138.034
21.2687
6.47304
40.2946
13.4778
17.4602
18.9558
15.6153
7.0662
19.2741
1.73458
2.39746
-17.2219
15.5443
11.9944
3.28206
-17.1319
-94.5936
16.2305
-17.7365
-8.44471
-4.31556
21.8377
-5.1987
21.69
16.4538
34.5273
33.211
19.3372
3.23824
19.1412
-8.15841
25.4537
6.40115
15.9348
-0.442024
20.6426
14.1045
15.0385
-76.4505
-1.47285
5.82848
-9.99074
-0.604758
20.4023
-72.8602
4.75271
-6.54503
13.5129
19.8352
14.3471
19.4318
16.2256
14.086
10.6931
17.3317
9.16792
0.652122
24.4722
6.77721
26.5314
-14.8336
22.4316
14.5642
-10.7849
-49.0143
8.33409
-1.22093
-16.4597
-80.2819
21.3649
25.7414
23.5639
23.5945
21.7743
21.4359
19.8747
12.1512
20.2538
9.27697
16.6588
9.90131
-78.1745
30.673
0.926289
-4.41159
22.2483
24.8694
29.4874
-41.0838
-3.37091
-61.4523
-6.86636
20.0877
-41.2982
-18.689
24.7822
35.2927
-9.19855
-16.2805
-17.8054
19.3262
10.2773
16.4269
8.1885
7.67453
-84.4637
11.785
-10.7238
-10.5208
22.5265
21.4605
24.5566
-8.85795
-40.4459
-5.7273
9.63923
-21.0968
-11.3997
7.94528
1.50849
-4.68255
7.19301
6.52958
13.065
14.6247
-12.7285
7.29755
16.7585
0.466465
17.7694
-12.9583
-16.0354
-12.9765
23.2213
9.1624
-127.739
20.5238
25.136
18.213
0.175566
17.7523
-12.5646
-89.2151
4.95308
0.82713
-5.03336
19.8037
-60.9901
20.8221
7.89899
-0.0195492
30.0083
10.9078
15.1771
12.3796
20.9895
22.585
22.8842
-8.83764
-2.75914
11.8431
-38.0908
-29.1103
-72.8309
-7.82305
15.2887
-23.7379