/*--------------------------------*- C++ -*----------------------------------*\
| =========                 |                                                 |
| \\      /  F ield         | OpenFOAM: The Open Source CFD Toolbox           |
|  \\    /   O peration     | Version:  2306                                  |
|   \\  /    A nd           | Website:  www.openfoam.com                      |
|    \\/     M anipulation  |                                                 |
\*---------------------------------------------------------------------------*/
FoamFile
{
    version     2.0;
    format      ascii;
    arch        "LSB;label=32;scalar=64";
    class       volVectorField;
    location    "5.5";
    object      U;
}
// * * * * * * * * * * * * * * * * * * * * * * * * * * * * * * * * * * * * * //

dimensions      [0 1 -1 0 0 0 0];

internalField   nonuniform List<vector> 
13486
(
(7.08509 -1.85648 1.28253e-20)
(7.18966 -0.158646 7.84786e-21)
(9.64578 -0.129247 0)
(7.79002 -5.71457 -2.18011e-20)
(11.5247 -1.56871 -7.3532e-21)
(8.85655 0.440726 -2.37313e-21)
(13.1024 0.244282 3.90291e-22)
(9.7593 -3.32666 4.03385e-23)
(9.11032 -1.84758 0)
(7.38051 1.17461 0)
(-2.62724 5.1244 -6.73341e-21)
(8.46804 0.653415 0)
(6.67436 -2.52432 -1.237e-20)
(8.3371 1.70963 -4.2489e-21)
(11.6006 0.208044 -5.53513e-21)
(7.27603 1.19872 -8.57868e-21)
(-0.0636133 -0.020229 2.65639e-21)
(7.24337 8.53441 -3.82748e-20)
(7.88953 0.211543 6.46517e-23)
(7.46659 -1.17281 -1.35641e-20)
(4.26728 -7.13019 -2.11855e-20)
(6.7309 -2.56981 1.59365e-20)
(7.22996 -0.179765 -6.28664e-21)
(13.4982 0.850176 0)
(7.71684 0.983813 3.06024e-21)
(13.7563 0.343906 -6.74862e-21)
(0.0452633 0.137247 3.47406e-21)
(10.6894 -0.123461 5.20581e-22)
(0.557511 -5.54482 0)
(10.9432 -0.762557 -9.77815e-22)
(-2.43298 -4.8027 -3.20833e-20)
(10.5209 1.85074 5.32301e-21)
(11.2756 1.05709 3.77886e-21)
(9.89902 -0.535787 0)
(9.79056 -3.17441 0)
(7.7586 -0.946958 -1.08447e-20)
(4.47604 0.71622 8.26448e-21)
(7.79562 -3.62664 4.42948e-21)
(8.44846 -1.99805 2.51602e-21)
(8.9741 -1.20973 4.49304e-21)
(13.3317 -3.73432 0)
(6.10588 -2.92548 -1.49498e-20)
(8.45665 -0.19409 0)
(7.78733 0.822813 -1.40628e-20)
(7.77143 0.839608 5.75193e-21)
(8.43024 0.666996 3.35812e-21)
(-1.33732 0.226776 5.71751e-21)
(0.893931 -5.80842 1.68666e-20)
(4.02201 0.683846 -6.59955e-21)
(10.0816 0.297911 -1.31007e-21)
(7.9899 -0.00517525 1.0223e-20)
(7.60536 -0.727924 0)
(8.24929 1.76081 -3.86175e-21)
(8.00709 -3.01588 -6.85721e-21)
(3.63691 7.58449 0)
(11.2918 -1.71712 3.58499e-21)
(15.1034 4.60858 1.94178e-20)
(8.11051 -1.2417 9.83907e-21)
(11.3134 1.15651 4.52227e-21)
(2.76869 -3.16738 0)
(-3.28975 5.83347 -1.12423e-20)
(2.36744 -1.61093 0)
(11.3759 2.08085 -2.18133e-21)
(4.54328 -6.05723 -2.71883e-22)
(-0.463594 -5.90458 0)
(3.08016 0.841908 3.06974e-21)
(4.50996 -4.2597 -1.14083e-20)
(6.82336 -1.06223 4.82867e-21)
(9.1148 -1.95051 -1.98767e-21)
(6.80946 0.456221 -5.74321e-21)
(5.07886 -3.66877 1.31736e-20)
(4.7508 8.39608 -1.59503e-21)
(8.67245 -0.794406 4.04063e-21)
(-1.59053 -0.00677273 -2.10908e-21)
(0.246026 0.3671 2.33214e-22)
(15.8262 5.14681 -4.08935e-21)
(2.88491 1.04034 1.33649e-21)
(11.7402 0.150487 2.26376e-21)
(-0.816661 0.295233 -2.25726e-21)
(9.31829 -0.930789 0)
(13.4036 -4.17647 2.35743e-21)
(7.01494 -0.00717631 -5.19845e-22)
(11.3691 1.67658 -2.09856e-22)
(9.63164 -0.515886 -1.89277e-21)
(7.08255 -1.86544 -2.49243e-20)
(5.67343 2.33206 0)
(7.83231 -1.71928 -8.27927e-21)
(7.99325 0.0343025 -1.63695e-20)
(7.69688 -0.0582801 -6.72395e-21)
(6.7599 1.6104 -1.17398e-20)
(9.57831 2.65677 2.74738e-21)
(10.3534 -2.61905 1.13617e-21)
(7.35751 -2.14797 3.07711e-21)
(7.39342 -0.723059 3.8157e-22)
(8.90621 -2.74376 7.60165e-22)
(6.66565 -8.24706 -8.96699e-21)
(-0.124098 0.445739 0)
(0.46752 -4.4629 4.41008e-21)
(8.9586 -1.15463 -8.65118e-21)
(0.136363 -0.133427 -8.38969e-24)
(5.89444 -1.52243 0)
(8.2953 1.67989 -1.68189e-21)
(-0.153878 -4.58124 8.53009e-22)
(7.72445 -0.939679 -1.16525e-20)
(5.42237 2.03804 0)
(0.285831 -0.104826 -1.62917e-23)
(8.04434 -0.169143 -2.21754e-23)
(8.82423 -2.21453 5.47492e-21)
(-0.615656 0.265417 3.30885e-21)
(10.0677 -4.47556 0)
(8.27564 -3.83808 0)
(11.8967 2.08189 1.34174e-20)
(8.05161 -2.94963 1.41158e-22)
(11.5005 3.57137 1.16032e-22)
(5.94606 -1.5997 0)
(8.18249 -3.82899 -1.75135e-21)
(7.60968 1.0498 0)
(10.3284 -0.49926 0)
(8.66542 -0.767138 0)
(5.87561 1.52442 6.46519e-21)
(6.26434 8.53931 1.15713e-20)
(-4.23956 5.70582 0)
(8.72178 -2.54141 0)
(7.89461 -1.9907 -7.98202e-21)
(9.19239 -3.16318 0)
(7.66462 -0.803189 0)
(9.96414 -0.667037 3.06148e-23)
(8.27014 0.171782 7.47465e-21)
(9.68264 -0.426606 1.36982e-21)
(1.40174 -3.65812 -8.02239e-21)
(7.39009 -0.578091 1.36264e-21)
(-1.97037 -0.592365 -1.49069e-21)
(0.354895 1.18285 3.02707e-21)
(-0.844411 0.0314951 2.67138e-21)
(7.99563 -0.00819611 -1.61186e-21)
(7.5142 0.494055 -9.31725e-21)
(4.28335 0.0783933 -5.03575e-21)
(9.77439 -4.2106 0)
(5.01028 1.55027 -2.1357e-21)
(9.75584 -2.58578 -4.03127e-22)
(10.6117 0.88663 -2.2591e-21)
(8.22208 1.97287 3.33866e-21)
(9.5579 1.62233 0)
(10.3478 -1.22646 0)
(8.68355 -0.0642758 8.84875e-22)
(10.3118 2.50479 -4.94215e-21)
(4.31679 -0.634356 -2.6775e-21)
(3.227 1.11183 0)
(9.97687 0.443354 0)
(1.01199 -5.28106 0)
(7.99853 0.00874295 2.15942e-22)
(12.1362 -0.430537 0)
(9.31152 -3.16791 -2.46723e-21)
(6.98839 -0.0253441 -4.45655e-21)
(8.17769 0.637008 0)
(10.7736 -0.332527 0)
(9.92109 -4.27284 0)
(6.00748 -1.11798 2.23527e-20)
(8.49321 -3.33997 7.37051e-21)
(8.99979 -6.66465 -3.68533e-21)
(9.26471 0.180462 -2.17063e-21)
(8.5356 -3.27533 -1.0876e-20)
(10.4031 4.27013 -5.26854e-21)
(5.42759 -2.74773 6.419e-21)
(7.87139 -0.924683 0)
(8.61017 1.82251 4.17818e-21)
(8.22291 1.49817 1.07313e-20)
(4.09556 -1.83615 -1.88189e-20)
(5.67939 -1.47743 6.87506e-21)
(-0.81217 -0.0695481 7.23236e-22)
(-2.34089 0.801787 6.46762e-22)
(8.17394 0.55582 5.76516e-21)
(7.99673 0.0625523 -1.53024e-20)
(10.1684 0.158947 -3.19167e-23)
(16.0431 -5.10332 5.51953e-22)
(-10.8026 -0.950053 0)
(8.0244 2.4103 -8.88251e-21)
(10.6694 1.2769 2.95773e-21)
(8.07079 -0.183365 -1.42852e-20)
(9.42981 1.53947 0)
(9.25716 -1.289 7.26147e-21)
(11.1007 2.99593 4.41584e-22)
(10.0756 0.686387 -6.5883e-23)
(-3.2544 1.66071 0)
(7.7062 -0.750407 4.78647e-21)
(10.1864 -0.0778566 -1.77937e-22)
(6.32405 -1.31588 -9.88535e-22)
(10.4149 -0.652193 3.09294e-22)
(13.2394 -3.55736 0)
(7.50813 -3.59505 -3.51698e-21)
(4.32023 1.12306 0)
(10.1789 0.240093 0)
(8.5684 -1.24402 0)
(5.73989 0.861618 -1.05861e-20)
(8.99382 -1.22585 0)
(-3.20836 4.89364 -1.9513e-21)
(-0.72181 -5.14408 1.83695e-20)
(9.36061 0.113914 -1.03938e-21)
(7.05238 -3.44243 -2.37213e-21)
(8.58122 1.68688 3.31955e-21)
(-2.42691 -5.02438 3.81335e-20)
(8.30195 0.220987 -2.37068e-22)
(7.73863 -3.68739 -5.13292e-21)
(12.072 -4.71083 -4.59223e-21)
(8.4093 -6.30235 5.07511e-21)
(8.97923 -1.12145 5.96203e-21)
(6.43253 8.02188 -2.9987e-20)
(8.27818 -0.674942 9.64825e-21)
(8.70892 -1.35876 0)
(8.24447 -0.823536 0)
(10.658 -0.237038 -6.78911e-22)
(13.0701 -2.19214 1.65338e-20)
(7.5218 -1.07359 1.24573e-20)
(8.01072 -0.135005 -2.16047e-23)
(8.90464 0.530939 2.73675e-21)
(9.8 -1.64068 -1.55725e-21)
(11.0119 -0.514601 0)
(6.84933 1.6037 2.64316e-20)
(7.6711 -2.14725 0)
(9.90144 2.38299 0)
(0.194978 -0.089497 -5.11712e-21)
(10.0567 0.525256 0)
(9.66628 -2.59069 7.5579e-22)
(10.2449 0.228312 0)
(7.57383 2.0387 -1.1043e-21)
(6.8633 -3.22784 4.16532e-21)
(9.05075 1.00581 2.6071e-22)
(-10.8618 -7.79856 1.04678e-20)
(10.298 -1.31481 1.14779e-22)
(8.8805 -3.67386 1.31675e-22)
(9.25109 -1.23723 -2.3758e-21)
(13.2674 -1.01412 4.5485e-20)
(10.8055 0.982411 2.73594e-21)
(6.03076 -2.89886 5.19073e-21)
(-1.95993 -6.20666 0)
(6.48398 -3.15419 4.65368e-22)
(10.1783 -0.647298 -1.5193e-21)
(10.6817 0.281037 -1.13803e-21)
(6.63374 -3.16765 1.30069e-20)
(9.76442 0.494234 0)
(11.5226 1.26942 0)
(7.98065 0.0689379 2.36292e-20)
(11.1964 1.1144 0)
(6.31143 -3.12061 4.02068e-21)
(8.48445 -3.15444 4.9755e-21)
(7.76751 -0.547888 0)
(9.37539 0.221532 -5.33649e-22)
(12.1946 -0.560965 1.27167e-20)
(0.192581 -0.526061 5.03169e-21)
(7.72501 0.73132 0)
(-4.09806 -0.556131 -8.17656e-22)
(5.86094 -1.52586 2.11766e-21)
(7.72093 -3.75032 1.6277e-21)
(8.39228 -2.16909 0)
(9.99724 -1.19289 -3.37791e-21)
(-8.79409 0.888893 4.29794e-21)
(10.6234 1.87971 -4.35709e-21)
(9.99954 -1.75258 1.96782e-21)
(7.91988 -2.50524 -2.34073e-20)
(11.5635 1.09225 4.42251e-21)
(7.4778 -0.148613 0)
(8.34602 -3.35026 1.23826e-22)
(11.6528 0.257329 1.23038e-20)
(-11.218 0.102963 -5.3663e-21)
(11.2386 -3.14236 6.52828e-21)
(-3.30253 1.86946 0)
(9.90123 -1.29109 4.71602e-21)
(-2.48192 -7.40621 -3.57552e-20)
(8.69209 -0.1129 -5.20663e-21)
(6.27094 5.06063 0)
(6.58021 1.12484 8.8259e-21)
(8.00868 -0.11135 -4.07049e-21)
(10.9351 -0.672854 0)
(7.98403 1.03388 3.16474e-21)
(7.11719 -3.36855 5.53407e-21)
(12.2162 -1.03223 -7.11428e-21)
(9.68641 -1.17936 0)
(-4.40102 -0.487266 0)
(8.77114 -2.04323 5.39609e-21)
(4.22085 0.29658 5.31158e-21)
(-5.33246 3.85334 2.88965e-21)
(9.45527 -0.655631 -2.44066e-21)
(7.98493 -0.207342 8.66479e-21)
(9.38773 2.55337 -1.1494e-20)
(-4.61091 5.0774 1.20537e-20)
(-0.00502686 -0.132194 5.10516e-21)
(10.4977 1.05972 1.12254e-21)
(9.41926 -0.629964 -1.80126e-21)
(7.7818 2.00804 1.90074e-21)
(8.59944 -0.124715 0)
(-1.12812 -5.32794 0)
(7.04959 -4.41052 -2.03646e-21)
(8.06357 -3.75201 2.6541e-21)
(7.99827 -0.00272795 -1.56659e-21)
(10.1437 -0.602214 -2.17659e-21)
(10.3013 -0.677479 0)
(9.45531 -0.0283452 2.63044e-21)
(7.98977 0.765254 -3.35295e-21)
(8.01833 -0.269576 -7.78834e-21)
(13.4988 -1.13576 -1.52897e-20)
(10.3716 4.30737 6.51895e-21)
(6.34529 7.53841 2.28996e-21)
(5.67317 -0.165583 -4.52635e-21)
(10.7608 1.63048 -4.78912e-21)
(4.92874 0.677027 -2.42497e-21)
(9.79719 -4.77074 0)
(9.6711 -0.924679 0)
(8.55457 0.147632 9.81057e-22)
(9.60518 -3.10385 6.76796e-21)
(4.36796 1.28116 0)
(6.88407 4.73737 -2.33191e-22)
(6.94037 -4.66135 0)
(7.78286 2.25647 5.33293e-21)
(11.8078 2.02974 1.26592e-20)
(3.76635 4.91184 0)
(7.54974 0.391493 -5.90388e-21)
(5.70032 -4.06789 2.75885e-21)
(7.64529 -0.0783358 -5.7213e-22)
(8.20981 -0.666065 -1.09249e-20)
(9.89066 -1.19432 0)
(3.42423 0.568764 -5.14263e-21)
(6.01552 -3.69336 -1.88401e-22)
(8.07194 -0.0893794 1.81556e-21)
(7.34406 -0.614836 -7.37146e-21)
(4.59472 -0.178782 9.08125e-21)
(10.0281 2.51673 -4.77462e-21)
(10.5585 -0.943109 4.88756e-21)
(9.51847 -0.625263 0)
(7.4963 0.114646 -6.19915e-23)
(10.7432 -0.851256 2.03941e-21)
(7.98648 -0.0237036 2.36393e-20)
(10.5188 -2.6141 0)
(9.52263 3.03742 1.64179e-21)
(6.61179 -0.165096 0)
(13.1469 0.32339 3.29509e-20)
(9.18454 -2.50039 -1.57815e-21)
(4.90926 -2.37675 6.74449e-21)
(12.0697 -0.676805 9.40754e-21)
(7.93479 0.23146 0)
(8.29505 -3.31001 7.95528e-21)
(9.81294 -1.2009 -4.35875e-21)
(7.31942 -0.599458 6.97074e-21)
(10.8716 -0.850825 -6.13339e-21)
(10.0867 0.689916 -9.37296e-22)
(-4.96979 2.00784 -4.90972e-21)
(2.54877 -7.28354 2.59963e-21)
(9.89146 -0.237356 0)
(5.88842 -2.37609 1.55457e-20)
(9.96612 2.36942 0)
(5.61171 -4.5005 -3.17443e-22)
(9.42698 -0.0238704 3.26077e-21)
(7.60825 0.576784 -4.70394e-21)
(8.07765 1.05191 2.99306e-21)
(-0.520525 0.882574 -4.05087e-21)
(8.02808 -0.23915 9.67424e-21)
(10.3328 -0.391051 0)
(-1.58493 -0.187434 -1.62548e-21)
(9.93983 -0.608287 -5.87279e-22)
(11.9315 -5.81824 -2.51475e-21)
(12.2986 -2.49908 1.204e-20)
(9.38853 0.192638 0)
(9.45372 2.86448 -1.75445e-21)
(7.62495 -0.332168 1.57516e-20)
(7.98986 -0.125792 1.23988e-20)
(10.9726 -0.873308 0)
(6.17531 -0.87404 -2.76883e-22)
(10.3225 -0.590542 1.42691e-21)
(-2.8977 -0.628447 7.77816e-22)
(7.42888 -1.16873 1.73242e-21)
(9.89515 -0.507747 5.60153e-22)
(8.80801 -0.184993 -6.09637e-22)
(9.824 -0.263988 0)
(7.24685 1.99904 -4.65136e-21)
(-4.93632 -0.209138 1.20297e-21)
(8.62512 0.985535 -5.62629e-21)
(8.00684 -0.0105244 8.50309e-21)
(6.48359 0.00944405 0)
(6.97071 -3.47201 7.84998e-21)
(4.03596 5.13469 0)
(9.78839 3.33483 -7.86487e-23)
(8.77216 -0.146563 0)
(10.5903 -3.11657 -3.31419e-22)
(6.6937 -1.60059 -3.74e-21)
(6.73261 0.967258 1.99069e-20)
(-2.34531 0.178714 -4.2206e-21)
(10.0304 -1.21692 0)
(8.49503 0.131184 -7.78308e-21)
(7.9603 0.240049 -6.84004e-21)
(1.01865 -0.122953 -1.90693e-21)
(7.4093 -4.33758 5.91313e-21)
(7.60128 -1.11344 -1.85892e-20)
(10.9114 -0.488491 1.03741e-21)
(8.06221 0.307675 5.67513e-21)
(7.31262 -2.5724 0)
(6.49605 -0.454781 8.5966e-21)
(6.12964 2.78856 6.2719e-21)
(6.10625 -4.64187 1.19055e-20)
(-3.89942 -0.206915 -3.63429e-21)
(0.793149 0.069153 -3.49491e-21)
(10.4699 1.04361 0)
(1.22805 0.00801003 0)
(7.12187 2.19084 0)
(9.21887 -0.356187 0)
(9.8737 -2.86035 -2.30183e-20)
(12.8333 0.622408 0)
(4.40949 3.82427 0)
(7.44297 -0.63353 2.81725e-21)
(10.7276 1.2706 -3.03905e-21)
(9.72268 -0.320326 -2.1828e-21)
(7.26495 -0.0285561 2.79169e-20)
(8.00134 0.0532876 -3.42362e-21)
(7.05661 3.63843 0)
(10.9103 -0.167287 0)
(7.99701 -0.272174 8.32881e-21)
(8.11666 0.0273753 1.45836e-21)
(5.30581 0.731362 0)
(-3.15631 1.48691 3.75197e-21)
(11.1042 -3.22448 -7.32306e-21)
(-1.75596 -0.0663597 0)
(9.5885 0.546299 1.00359e-21)
(8.08124 -0.135695 -9.61875e-21)
(13.0982 4.41862 2.33327e-20)
(5.88577 -2.35351 0)
(7.94727 0.247071 1.21453e-20)
(9.24374 0.679907 0)
(10.4667 -0.562598 0)
(8.31114 0.399242 -1.11549e-21)
(7.96326 -0.200702 4.62855e-21)
(0.169405 0.280382 -4.55276e-21)
(8.19181 1.42486 3.41315e-21)
(6.84553 -2.26585 -6.06855e-21)
(9.0641 -0.327456 6.29141e-22)
(8.10261 0.353334 4.587e-21)
(7.51142 1.81796 1.35019e-20)
(11.6389 -2.97198 0)
(12.1575 -0.250095 5.3189e-21)
(6.66711 -1.4148 0)
(7.23849 -4.81748 -2.30521e-21)
(10.1428 0.0899634 0)
(6.89074 -1.02054 1.03973e-20)
(-1.02516 0.455218 -4.92432e-21)
(11.0751 -0.387355 0)
(-0.365741 0.0722832 1.2164e-22)
(11.1474 -0.198459 -2.61368e-21)
(8.419 -5.95592 6.32204e-22)
(8.34173 -1.62518 1.39976e-20)
(6.17326 0.827843 -1.24621e-20)
(6.81402 -2.24893 -1.76984e-20)
(10.048 3.17102 0)
(4.62274 0.891872 -6.23557e-21)
(-4.92581 2.41489 -1.3398e-20)
(7.92706 0.2371 0)
(7.63228 -0.0718178 6.26821e-22)
(9.51505 0.183407 2.4539e-22)
(8.57865 2.74119 0)
(7.99883 -0.0203747 0)
(-1.21979 -0.0951969 0)
(-9.49362 -1.71171 2.2283e-20)
(10.5108 3.3272 1.36127e-20)
(10.0617 3.10979 -4.0425e-22)
(7.78276 2.11876 0)
(7.96696 -1.42251 1.08387e-20)
(17.107 -4.09857 3.36921e-21)
(8.22339 1.31707 -8.16335e-21)
(5.42703 -5.293 3.49683e-20)
(7.78685 -0.0656071 0)
(1.30098 -5.58417 0)
(5.04605 -1.81926 -1.12492e-20)
(7.21531 -2.5674 -4.04421e-21)
(8.86876 -0.989454 0)
(9.13288 -4.21024 1.26721e-21)
(6.6327 -0.863393 7.11813e-21)
(8.73042 -9.42338 1.28388e-20)
(5.28423 -2.51253 0)
(9.08963 -0.343745 -3.72937e-21)
(6.32767 2.2683 -6.69673e-21)
(9.33334 0.671 -3.90149e-21)
(9.13981 -2.6234 0)
(-0.172365 -0.142354 -7.6568e-21)
(7.59856 0.751789 3.66179e-21)
(7.97232 0.11206 2.34276e-21)
(8.62076 0.853892 -9.02035e-21)
(8.77973 1.83996 0)
(7.22369 -0.0438839 -7.42833e-21)
(10.0246 1.89404 2.82152e-22)
(0.389869 0.0807191 7.09051e-22)
(7.99698 0.0343879 0)
(6.31774 -4.31601 -6.06721e-21)
(4.13234 -1.67984 0)
(7.99369 0.0635737 -9.52059e-21)
(7.97247 -0.0164001 3.43166e-21)
(8.01432 -0.44012 -1.61093e-21)
(-9.4076 -0.692163 0)
(8.58717 -0.314393 -2.74475e-21)
(5.64794 -0.334702 2.38762e-20)
(11.5605 -3.01327 0)
(7.40594 -0.706963 8.54221e-21)
(13.2927 -1.36907 1.76087e-20)
(8.56251 0.0257951 0)
(-3.35846 -7.07834 1.58977e-20)
(10.0521 -1.17766 9.00906e-21)
(8.75598 -0.192692 0)
(0.132507 -0.0122555 4.73373e-21)
(7.60443 -0.103672 0)
(8.70633 -3.90909 1.79497e-21)
(-4.87524 -0.802835 2.86657e-21)
(5.71582 -1.28436 1.00458e-21)
(8.94218 0.434486 4.48934e-21)
(6.50291 -0.507639 4.4442e-21)
(8.3473 -1.71801 -5.05026e-21)
(9.64722 -1.16329 2.88089e-21)
(8.80826 -3.83649 1.35608e-22)
(9.85643 -0.561814 7.7131e-22)
(8.73497 1.80794 -7.67538e-21)
(10.7558 -4.61291 0)
(7.99808 -0.0145556 -7.54329e-21)
(-1.03538 0.543081 -2.12885e-21)
(6.7588 -1.43021 0)
(3.39444 4.23078 1.04003e-21)
(6.37009 -0.208171 0)
(6.49937 -2.34221 1.56642e-20)
(10.4059 -3.52645 0)
(5.27213 -0.67971 1.90108e-20)
(9.68991 -0.0540715 -1.90435e-21)
(-7.25054 -6.96128 3.10844e-20)
(-0.741682 -1.05268 -4.62409e-22)
(9.41797 0.252455 -2.57884e-23)
(9.90473 -4.63237 -5.33901e-21)
(8.6723 -2.55595 3.77703e-21)
(7.34906 -2.13856 0)
(-2.26923 1.57021 -2.63079e-21)
(11.8035 -2.75645 1.36156e-21)
(-2.45251 1.97845 -3.16245e-21)
(6.37295 -9.15498 -6.40768e-21)
(7.31385 -2.96195 0)
(8.79351 -0.010338 -8.04303e-23)
(-3.23338 1.64424 0)
(-1.61522 -4.45822 1.23527e-21)
(14.8189 5.63968 -3.02569e-20)
(5.5382 -0.38462 0)
(10.033 -2.25183 5.47173e-23)
(-1.76502 -5.22591 0)
(8.61483 2.6504 0)
(8.45699 -3.96502 -2.38677e-21)
(6.72443 -0.271204 7.11209e-21)
(5.50517 0.626566 0)
(7.59717 -0.256994 -4.45331e-21)
(9.87866 2.6551 4.48601e-21)
(-5.60442 0.669735 8.07544e-21)
(8.43132 3.46683 0)
(8.57802 -0.0435582 0)
(-4.77637 2.87787 -6.23662e-21)
(8.39473 -0.904322 0)
(8.47422 -0.462749 0)
(-4.44489 6.47645 -8.51267e-22)
(9.73085 -1.5587 -2.39759e-21)
(8.44355 -2.21993 3.71401e-21)
(11.8641 1.08296 6.86739e-22)
(-2.63524 1.91375 5.58837e-21)
(7.98998 -0.0186928 3.8711e-21)
(7.50758 -2.19387 0)
(8.03074 0.925174 -2.80746e-21)
(7.03324 -1.7814 0)
(8.08171 -0.0636201 0)
(7.98491 0.137109 0)
(8.31107 0.377561 -9.12535e-22)
(8.20834 -0.700322 5.02619e-21)
(10.7031 0.920969 -1.74498e-21)
(7.65905 -2.20433 0)
(-0.470372 0.502004 -3.28451e-21)
(7.08434 2.06778 7.08844e-21)
(9.20461 -3.19022 1.54052e-22)
(9.67536 -0.719285 3.30432e-21)
(11.9535 -0.837887 9.72218e-21)
(8.15686 0.0332202 -5.44753e-21)
(-1.08015 0.343113 0)
(7.83407 0.769419 0)
(5.92949 0.880368 0)
(6.63301 -3.02556 -1.07785e-20)
(-11.3492 -4.71407 -2.53681e-20)
(11.8458 0.736614 0)
(8.06653 0.928681 0)
(7.8621 2.26358 2.44081e-21)
(8.44967 -0.0637367 -1.02704e-21)
(7.32032 0.93476 1.12715e-20)
(12.5743 -4.79185 0)
(-3.29815 3.79943 -1.56117e-21)
(8.59417 0.152008 4.60831e-21)
(7.07748 -2.46897 -9.81184e-21)
(8.29608 0.174787 -6.0682e-21)
(8.16766 1.32309 1.02213e-20)
(8.23748 -0.800442 1.74378e-20)
(6.54922 -2.98664 1.87181e-20)
(8.34985 -3.12812 -3.30805e-21)
(11.7237 2.54796 3.66939e-22)
(8.00363 -0.0188101 -1.76294e-21)
(8.50984 -4.07478 9.41411e-22)
(10.0454 -1.23945 -4.2702e-21)
(5.41078 3.46311 -8.40602e-21)
(8.87266 -4.11635 -1.46269e-22)
(6.75506 -0.0717071 0)
(5.17701 -0.174089 1.30168e-21)
(8.66191 -0.0365563 -1.17196e-20)
(9.35279 2.21133 -1.16822e-21)
(6.95483 -2.3559 -9.19455e-21)
(9.09739 -3.08105 -2.36253e-21)
(8.84991 0.0454746 6.58766e-21)
(11.2793 -0.101903 -3.78581e-21)
(6.21899 3.39164 -2.88801e-21)
(10.3259 1.1055 -6.01894e-22)
(6.2121 -1.81856 -2.26078e-20)
(8.54596 -0.0333442 -1.04206e-20)
(6.2132 -2.01447 0)
(-9.25376 -6.9274 -4.34259e-20)
(9.09362 -0.0138969 1.2003e-20)
(6.82857 -0.420131 -4.25002e-21)
(-1.45083 -0.223778 0)
(9.6398 -4.26314 0)
(7.76276 0.684921 1.03039e-20)
(5.86209 -1.84292 1.42788e-20)
(-2.06746 -4.16383 -2.9756e-20)
(10.6749 -3.07706 2.18483e-21)
(10.6572 -0.927902 -2.84519e-21)
(10.0468 2.30652 0)
(7.73313 0.74352 5.99641e-21)
(6.86555 7.12514 -5.17803e-22)
(8.16438 2.3669 -7.85097e-21)
(9.13455 -1.24179 -4.74401e-21)
(-2.67253 1.90868 -9.02103e-21)
(11.7605 -1.14814 -8.79587e-21)
(12.1544 -0.15843 3.56298e-21)
(7.48565 2.51837 0)
(10.1134 -1.16932 1.43179e-21)
(8.03064 -0.427962 1.41329e-21)
(14.0653 -4.33946 2.09897e-21)
(5.45324 -2.72336 1.8248e-20)
(9.04435 -1.30172 7.21377e-21)
(8.96732 -6.59444 2.47959e-21)
(-5.29485 0.0898775 -3.24527e-21)
(10.1003 -0.264207 1.83288e-22)
(8.6869 0.0540817 9.35809e-21)
(-3.96199 4.69061 -1.40084e-21)
(7.98377 2.21931 1.54759e-20)
(0.104809 -0.138071 -5.14344e-21)
(6.75239 -3.25138 -5.03478e-21)
(12.7949 -3.8949 0)
(14.526 5.00372 7.99588e-21)
(-7.72984 3.76568 -9.50344e-21)
(6.67428 -1.67718 1.98662e-20)
(7.97015 -0.223463 0)
(9.84427 4.57817 -5.05402e-21)
(6.39669 -2.75193 4.42189e-21)
(7.99161 -0.00105024 -1.66699e-20)
(-3.61925 1.27776 -3.3245e-21)
(5.14081 0.471262 3.60364e-21)
(9.78554 -0.309666 1.44085e-21)
(8.54622 0.172595 1.17951e-20)
(8.81548 -3.9539 -1.68895e-21)
(11.073 1.21028 2.12544e-21)
(-11.7212 -6.06836 -4.91224e-20)
(8.4452 -0.0319857 1.09978e-20)
(8.99849 -0.303446 -2.79944e-21)
(8.22853 0.220524 -7.0396e-23)
(10.2588 0.0265111 -5.16126e-21)
(6.2767 -2.81369 -8.54292e-21)
(11.2597 2.23863 0)
(-10.5945 -3.96284 1.61765e-20)
(8.61462 0.0371166 1.05358e-21)
(13.7082 3.79195 2.7339e-20)
(9.36818 0.128419 4.22303e-21)
(10.4215 -1.2167 6.92864e-22)
(7.98071 0.0487635 -1.47881e-20)
(8.02684 0.555609 3.46539e-21)
(-3.03567 1.399 -3.85653e-21)
(9.10285 -0.41827 0)
(7.32473 -3.69436 -4.285e-21)
(7.2093 0.470193 4.82127e-21)
(7.34062 -2.91329 0)
(8.22731 0.157672 7.66557e-21)
(6.87112 0.0474576 7.14578e-21)
(8.6314 -0.461621 8.76713e-25)
(13.5372 -4.03056 1.28624e-20)
(9.06617 -1.02446 0)
(7.28877 0.203081 1.45789e-20)
(9.0848 -8.13144 -1.18052e-20)
(8.61648 -3.97573 1.33403e-21)
(9.06879 -0.85394 0)
(6.68335 -0.324423 -2.04032e-20)
(6.99589 8.23596 6.52633e-21)
(7.72289 3.39661 8.5385e-21)
(6.2562 -1.86205 2.20264e-20)
(9.25875 -0.26736 2.74499e-21)
(-1.26273 -0.427647 -6.15733e-23)
(8.58959 -0.762039 -6.95324e-21)
(12.0271 0.134828 -6.74192e-21)
(7.618 -0.309252 -9.0909e-21)
(8.45337 -0.0682842 0)
(8.00471 -0.0372235 -6.59999e-21)
(1.12887 -0.900523 1.06014e-19)
(-1.45503 -0.259892 0)
(12.4274 -0.728355 0)
(14.6455 -4.64705 0)
(0.098453 0.0572663 0)
(7.92781 0.48243 0)
(6.06615 -1.81192 0)
(9.82663 -1.82632 -2.40019e-22)
(10.4853 3.3514 -4.39787e-21)
(9.09614 1.08399 0)
(7.28831 0.0900069 2.16406e-20)
(5.32197 4.74364 7.401e-21)
(8.05042 0.345641 9.72711e-23)
(-6.68051 5.09095 -3.69213e-21)
(5.97764 -1.2087 8.15996e-23)
(-3.05944 1.35872 2.86766e-21)
(7.92812 0.112825 -1.6074e-21)
(9.96692 0.314862 -1.05773e-22)
(7.90285 0.428989 -6.88153e-21)
(7.68888 -0.110715 -1.31387e-20)
(7.028 1.74777 -1.21788e-20)
(9.91028 3.34951 0)
(6.55066 -5.98758 1.26503e-20)
(6.566 -2.39623 -1.71348e-20)
(8.02445 0.017449 -1.95853e-20)
(11.8813 -2.5874 1.54265e-20)
(9.89225 -0.0567156 9.95031e-22)
(14.2035 -1.84631 -2.09932e-20)
(9.87136 -0.999769 -2.03046e-22)
(10.0782 -2.21563 -3.43147e-23)
(7.9679 0.221988 7.08973e-21)
(8.23243 5.56136 0)
(9.55478 -1.12113 2.79753e-21)
(7.51376 -0.698665 -2.69999e-21)
(12.7879 1.03719 0)
(8.44652 -1.89096 0)
(9.29958 -4.10996 -1.35097e-22)
(-0.870255 -1.218 1.2967e-22)
(9.9047 -1.76149 5.50436e-21)
(6.46731 -0.827273 0)
(8.34106 -0.673803 -9.97346e-21)
(7.54202 -0.120982 -2.50916e-21)
(-8.83652 -5.00664 8.91113e-21)
(7.53079 -0.571151 4.50353e-21)
(-2.88086 1.15263 0)
(5.62199 -7.01068 1.2654e-20)
(7.64023 -0.179574 0)
(9.99578 -1.23345 -2.07653e-21)
(9.20687 2.78967 1.39686e-21)
(8.01782 -0.0133135 4.24174e-24)
(8.2264 1.51336 -1.90155e-20)
(8.458 3.03667 -4.06743e-22)
(8.43002 -2.52166 8.4296e-21)
(5.59757 1.34736 0)
(-1.51147 -6.81621 -1.51912e-20)
(0.930108 3.64677 0)
(9.23207 1.12461 1.33933e-21)
(-9.26649 -4.96222 1.69516e-20)
(14.354 -1.24233 1.62603e-20)
(7.61236 -3.31299 4.70968e-21)
(-7.9848 1.9919 -2.74407e-20)
(7.91651 -3.66953 -1.54077e-21)
(6.68776 -2.3922 -9.74953e-21)
(4.76013 1.91009 -2.16265e-21)
(-1.67135 -4.68453 1.26646e-20)
(6.30333 -2.84607 7.02546e-21)
(6.88441 -2.46232 1.03142e-20)
(-8.61366 -3.30137 3.96234e-20)
(2.69251 -5.9982 -8.92876e-21)
(8.96683 -2.7439 2.82356e-21)
(-1.93214 -0.0909403 3.95232e-21)
(10.511 0.177123 1.0225e-21)
(5.58665 5.68209 -6.98422e-21)
(8.41354 1.00035 -4.52113e-21)
(11.3017 -1.81735 0)
(0.117519 0.0219004 -6.67723e-21)
(8.3496 -0.0316119 -1.25807e-20)
(7.9595 0.0946161 0)
(9.18306 1.04161 0)
(-8.21263 -1.03818 -9.37378e-21)
(12.8833 1.32566 -9.02637e-21)
(8.80206 0.612951 -1.06557e-20)
(9.71074 -1.51972 3.11916e-21)
(7.10103 1.73389 1.03312e-20)
(7.42936 -0.0189958 3.97758e-21)
(-10.0508 -3.97961 -1.32099e-21)
(7.07477 0.786723 0)
(7.02722 -2.54923 9.57925e-21)
(-0.652171 4.81066 7.31696e-22)
(-8.56744 1.14156 2.10395e-20)
(8.47363 -3.20925 1.16088e-21)
(10.2727 -4.75831 5.40977e-21)
(8.27567 1.95784e-05 2.15006e-21)
(7.72062 -2.26969 -2.75721e-21)
(10.7191 -0.917161 7.18763e-22)
(-9.33702 -3.73162 -8.46127e-21)
(8.78388 0.582043 8.04398e-21)
(8.03949 -0.254029 4.77614e-21)
(6.1678 -1.99358 -9.02926e-21)
(8.41023 -0.818472 5.95568e-21)
(6.27871 3.72491 0)
(8.65392 0.96673 9.68556e-21)
(8.06086 -0.151668 1.07442e-21)
(7.29297 -2.03973 -3.17249e-21)
(5.91985 3.2376 -7.95943e-21)
(8.83576 -2.72344 2.51234e-21)
(8.18741 -0.0449218 1.89296e-21)
(6.52158 -0.863224 -1.44069e-20)
(12.8404 0.627291 0)
(7.20703 -2.9935 8.65477e-21)
(8.33703 0.201221 8.20413e-21)
(10.1103 -0.797972 0)
(6.75321 -1.11778 7.94834e-21)
(7.90376 -0.626842 0)
(5.46619 3.16365 2.75054e-20)
(10.7516 -0.0213342 0)
(9.91377 -1.38554 0)
(8.60247 0.416267 1.6348e-21)
(8.80196 0.44914 6.16973e-21)
(10.0941 1.34092 4.22825e-22)
(7.83336 -0.0693335 -6.09658e-21)
(6.04167 1.64811 -6.73064e-21)
(7.97497 0.0491993 -2.95084e-21)
(7.96966 0.515187 0)
(-0.379705 -0.0142262 -2.30484e-22)
(9.06435 0.461842 -5.0318e-21)
(9.97722 -1.18742 4.721e-21)
(11.3443 -1.86521 0)
(9.46233 2.17525 -1.2767e-21)
(6.78322 3.46108 -1.40215e-21)
(10.2136 0.0413275 4.87339e-21)
(1.47339 0.697142 0)
(-2.8647 6.09582 1.16237e-20)
(8.04436 0.247452 0)
(10.822 -0.64214 -2.57299e-22)
(0.261764 -0.43145 0)
(8.31416 0.554753 0)
(7.18604 -3.79744 0)
(10.1559 -3.51582 0)
(-2.77146 4.53863 -8.64978e-22)
(-10.1302 -2.53276 -4.91514e-21)
(8.21555 -0.689369 -7.54168e-21)
(-6.31648 -6.86881 -3.01357e-20)
(6.61938 -2.92433 0)
(-9.30354 -6.59778 -1.9492e-20)
(-0.151588 -0.485094 -4.99065e-21)
(7.93097 -3.69177 0)
(7.3369 -2.77517 -9.54722e-21)
(2.4336 1.75344 -9.58098e-22)
(8.39089 0.937462 1.19551e-20)
(12.7586 -3.72527 -1.10046e-20)
(7.70572 -0.173602 0)
(11.1001 -2.95899 0)
(10.6379 1.88748 7.48758e-22)
(9.69506 -1.32003 -9.66349e-22)
(5.73339 0.764122 4.85479e-21)
(-5.22855 -0.876119 7.53265e-21)
(8.00443 0.00823259 4.90311e-22)
(14.3074 5.28338 -9.32708e-22)
(7.97653 0.220912 1.00985e-20)
(6.49148 -3.85882 -4.05552e-21)
(9.15101 -2.44463 0)
(-1.16207 1.44068 0)
(10.8896 1.00736 0)
(9.06276 0.628648 0)
(8.23303 -1.87776 3.78188e-21)
(10.4353 0.545394 0)
(-3.46928 5.67272 1.6457e-20)
(4.22855 -1.48843 -4.08767e-23)
(6.79964 -2.50846 -1.56245e-20)
(5.64986 5.3921 -2.68958e-21)
(-10.7233 -4.76525 -8.06059e-21)
(-1.69671 5.63259 -7.21338e-21)
(9.01085 0.0419932 1.49076e-21)
(-9.44438 -1.51255 -6.81532e-21)
(6.32521 -4.17239 -5.11152e-21)
(8.8042 0.295274 0)
(11.2537 -0.270068 0)
(6.71264 3.96325 0)
(10.4251 -1.3413 -5.54466e-22)
(0.290731 -4.21637 0)
(7.12218 0.812171 0)
(8.00011 0.0116727 0)
(8.49481 -2.20371 3.51262e-21)
(8.05936 0.300137 -1.13417e-20)
(6.71017 0.159065 0)
(10.0219 -1.82841 3.13684e-21)
(7.85563 0.18216 -8.43781e-21)
(8.2104 2.26418 1.6275e-20)
(7.98158 -3.64543 4.31367e-21)
(7.22867 1.03234 1.20523e-22)
(9.81165 -1.10454 7.86428e-22)
(9.1473 -2.29643 -5.30333e-21)
(10.1049 -1.21003 5.71362e-21)
(8.72802 0.476307 -8.35359e-21)
(6.30211 1.14976 1.11368e-20)
(7.80865 -0.43064 -8.32586e-21)
(8.37923 -0.0232074 0)
(14.2948 4.82457 -2.03676e-20)
(8.00267 -0.132558 9.04396e-21)
(5.52051 7.71387 1.83347e-20)
(9.82259 -0.971053 -7.63939e-22)
(5.93783 -1.89937 -1.55331e-20)
(8.75773 0.398155 1.41359e-21)
(10.1048 1.89791 -4.08172e-22)
(7.98892 0.0793052 0)
(3.92339 1.73205 5.75135e-22)
(7.37678 -1.38099 3.03809e-21)
(9.72192 -1.24343 -8.93634e-21)
(4.94415 -6.41375 -3.99e-20)
(8.37035 -0.102649 4.01289e-21)
(11.664 1.84731 -4.71353e-22)
(9.09817 -0.233342 -2.07429e-21)
(10.4695 0.984453 0)
(6.96234 5.69071 0)
(7.55113 -3.57815 6.18062e-21)
(-3.19813 0.982521 3.59092e-21)
(8.61438 -2.20253 3.83862e-22)
(8.02139 -0.142952 1.78079e-20)
(4.56487 2.7096 -1.19658e-21)
(6.6612 -0.43563 0)
(7.71977 -0.473797 0)
(7.77237 -2.09764 -1.96929e-22)
(8.27955 0.194999 2.63929e-21)
(7.32263 0.985706 1.63686e-20)
(9.53543 1.37403 0)
(8.6501 0.144578 0)
(10.3283 -2.47147 -2.72932e-21)
(8.95453 -0.831817 4.5247e-21)
(7.01905 -2.00643 -1.51359e-20)
(9.22958 -0.478633 0)
(6.48185 0.329397 1.00766e-21)
(10.9301 -2.41958 -7.22245e-22)
(-8.62662 3.04699 -8.74272e-21)
(8.54151 -0.331549 -7.88645e-21)
(11.4994 2.87595 0)
(12.8446 1.30894 7.26626e-21)
(1.92023 0.0179767 -3.50749e-20)
(-5.94532 3.65026 0)
(7.48122 0.792726 2.51206e-20)
(7.88297 -0.197719 -6.05818e-21)
(10.9907 -0.00379061 1.73733e-23)
(10.1271 2.96125 -2.04212e-21)
(6.86321 6.81105 4.67357e-22)
(8.79426 0.0450711 0)
(5.94855 -2.44234 -1.69641e-22)
(4.34132 3.42715 3.99035e-22)
(4.86902 4.63627 -2.23538e-20)
(7.89127 0.446886 8.14887e-21)
(4.76426 2.18844 6.58143e-20)
(8.22346 -0.0307619 -1.84205e-20)
(8.90714 -7.05338 -1.72145e-21)
(8.72245 -2.75923 -5.47668e-21)
(8.3541 -2.09422 0)
(8.73747 -0.216504 1.08449e-20)
(6.20724 -2.90523 5.63767e-21)
(9.52081 -0.0594637 -4.08617e-21)
(8.04953 -0.131596 -8.00783e-21)
(10.5726 -0.757247 -1.81839e-22)
(7.77965 -1.39133 1.63871e-20)
(9.94589 0.0709138 -1.16048e-21)
(7.68794 -0.415696 4.97532e-21)
(4.34817 3.38379 1.61785e-21)
(11.8507 1.24394 -7.29293e-21)
(7.9778 2.42361 1.29622e-20)
(0.326568 -3.4103 2.32636e-20)
(8.61307 0.048122 0)
(6.42467 5.56707 0)
(13.4176 0.216281 0)
(6.76279 -2.40508 1.22163e-20)
(7.9243 0.0206807 -1.27031e-20)
(7.50288 -0.141799 0)
(7.4407 -2.06507 -9.0594e-21)
(7.5039 -0.217594 0)
(8.23833 -1.71662 -6.25921e-21)
(9.86207 -1.27473 5.13175e-21)
(9.0224 -2.30266 -3.27838e-21)
(8.89139 0.0447484 0)
(8.07776 -0.277768 0)
(9.65158 -0.738032 -3.47754e-21)
(9.07672 0.936702 -2.59371e-22)
(10.2596 0.179987 -1.06066e-23)
(6.90169 3.75921 -5.98823e-22)
(9.79664 2.00849 0)
(8.52453 -3.12801 -1.83766e-21)
(-1.29637 -0.0723334 0)
(4.04997 0.705173 -1.03858e-20)
(8.52869 3.07827 0)
(11.347 1.61975 1.08352e-21)
(6.21162 -1.74694 5.89707e-21)
(7.27421 -1.47512 5.57096e-21)
(8.85806 -0.649441 3.33159e-21)
(4.08815 -1.82656 -7.00272e-20)
(8.87953 -1.01347 1.13578e-20)
(7.92242 0.491169 -1.05713e-22)
(14.4534 -1.91071 2.57163e-20)
(9.41518 -1.87583 -1.31271e-21)
(-0.658899 0.223238 1.98587e-21)
(8.97325 1.38897 0)
(8.06052 -0.0677297 -1.31564e-23)
(7.56917 -2.26458 0)
(8.10599 -2.65844 5.9661e-21)
(8.6154 -3.09868 -8.63559e-22)
(7.82214 -1.29739 -5.31194e-21)
(6.13137 -0.830429 3.07401e-22)
(9.68059 0.2607 2.89552e-21)
(7.64461 -1.0052 1.19396e-20)