/*--------------------------------*- C++ -*----------------------------------*\
| =========                 |                                                 |
| \\      /  F ield         | OpenFOAM: The Open Source CFD Toolbox           |
|  \\    /   O peration     | Version:  2306                                  |
|   \\  /    A nd           | Website:  www.openfoam.com                      |
|    \\/     M anipulation  |                                                 |
\*---------------------------------------------------------------------------*/
FoamFile
{
    version     2.0;
    format      ascii;
    arch        "LSB;label=32;scalar=64";
    class       surfaceScalarField;
    location    "5.8";
    object      phi;
}
// * * * * * * * * * * * * * * * * * * * * * * * * * * * * * * * * * * * * * //

dimensions      [0 3 -1 0 0 0 0];

oriented        oriented;

internalField   nonuniform List<scalar> 
20045
(
1.16891
-1.42826
0.259348
-2.36814
1.12057
1.24757
0.26588
3.52751
-3.79339
0.319478
-0.123924
-0.195554
-2.0856
1.95622
0.12938
-1.03264
4.02161
-2.98896
-2.55124
0.938508
1.61273
0.153803
1.05434
-1.20814
1.09606
1.03486
-2.13093
-1.13809
-0.53527
1.67336
-0.718565
-0.355334
1.0739
4.02721
-2.3342
-1.69301
0.998879
-0.961
-0.0378787
-2.19731
1.70036
0.49695
-0.571167
2.44306
-1.87189
-1.91468
0.776595
-0.0105186
-0.064313
0.0748316
1.44874
1.07401
-2.52274
-3.34612
4.65312
-1.307
-1.56135
-0.205925
1.76727
-0.0417198
-0.422357
0.464077
0.377752
0.621127
-0.637104
-1.73104
2.40843
1.29983
-3.70826
1.73431
0.0385523
-1.77287
-1.34562
3.75405
0.106685
-0.0987967
-0.00788811
-2.31772
4.77171
-2.45399
0.530207
-1.24723
0.717019
-5.11268
3.13436
1.97833
-2.25412
1.23828
1.01584
3.18753
-2.77183
-0.415699
-0.841814
2.75148
-1.90966
5.37612
-3.02356
-2.35255
-1.35566
1.50947
6.56063
-2.78597
-3.77466
1.16983
1.4341
-2.60392
-0.161402
0.976918
-0.815516
-5.29348
2.74743
2.54605
1.49059
1.12026
-2.61085
0.105844
1.04905
-1.1549
0.463889
-0.646542
0.182653
4.88437
-4.96238
0.0780023
2.6982
-0.752325
-1.94587
1.04503
1.65317
2.20636
1.82084
-0.0340177
0.0218531
0.0121646
0.855183
-1.21243
0.35725
2.5817
-1.41187
0.454175
3.37023
-3.8244
2.65621
-4.39283
1.73662
4.27598
-2.89688
-1.37911
-1.16091
-2.39028
3.5512
-0.198609
-0.770343
0.968952
-1.10427
1.08002
0.024254
-1.65933
-0.426269
4.70982
2.37378
-7.0836
3.5604
0.773608
-4.33401
2.42805
-3.26986
2.86038
-3.54572
0.685342
-0.697882
-0.428983
1.12687
-0.240471
3.10085
0.278577
-2.50837
2.2298
0.779861
-0.821581
1.21086
-0.525277
-0.685579
0.99805
1.76679
-2.76484
0.185483
-0.0807933
-0.104689
-1.41054
0.0144296
1.39611
2.02063
-0.924572
3.25877
-3.32467
0.0659034
0.0865943
0.0988883
-2.02129
0.917018
-0.726348
-2.20638
2.93273
-0.00760564
-0.143949
0.151554
0.707596
1.79696
-2.50456
6.65508
-1.94526
-1.71045
2.41805
1.26834
-1.83951
-0.00456316
-0.143795
0.148358
1.69129
-3.20821
1.51692
4.29545
3.33176
-7.62721
1.72578
-1.70422
-0.0215632
1.92946
-1.65088
-3.96466
0.408852
3.55581
-0.101366
1.27028
-0.434053
0.887943
-0.45389
3.00405
-3.09651
0.092466
-3.17399
0.0710303
3.10296
1.84496
0.692269
-2.53723
-1.65763
1.18703
0.470603
-3.76494
0.591747
3.17319
1.77212
-0.336362
-1.43576
0.936195
-1.48976
0.553564
-0.668121
-1.5287
2.19682
1.44821
-1.52602
0.0778127
1.91978
-1.37338
-0.546403
0.0506647
0.0560201
-0.428192
0.520954
-0.0927619
2.82908
-1.33848
-0.00124694
-0.0914051
0.092652
5.01441
1.54621
-0.945716
-1.25159
0.0690429
-0.497235
-1.07624
4.63664
0.380542
-0.814595
0.115418
-0.116665
0.703681
2.57609
-3.27977
2.71282
-4.98376
2.27095
-0.0385809
-1.14208
0.978094
0.163991
-0.696339
0.866413
-0.170074
3.0467
-2.62904
-0.417652
-1.21534
1.01673
4.96674
-8.20372
3.23697
-0.678159
0.907163
-0.229004
0.130919
-0.838942
0.708023
2.00902
-0.274708
3.90586
1.47025
-2.70504
1.97869
1.5024
-2.6789
1.1765
-1.09868
2.54741
-1.06297
0.36509
-1.88961
1.55545
0.334162
-2.58066
0.233888
-1.42172
1.18783
2.70322
1.57276
2.50369
-3.30959
0.805899
3.09804
0.311525
-3.40957
-4.88653
3.6323
1.25423
0.40741
-1.24079
0.833378
4.37664
-1.67341
0.0584417
-0.0365886
0.0381123
-0.0258497
-0.0122626
-0.107662
0.0568096
0.0508521
2.31181
1.57566
-3.88747
2.50494
-2.06786
-0.437083
-0.453195
-0.0899273
0.543122
-0.807376
-0.334708
3.03114
-1.52874
-1.57233
1.67377
-0.101448
1.98358
-4.03233
2.04875
1.60277
-2.76368
1.53667
1.7292
-3.26587
3.60039
-1.9091
4.67255
-0.691331
-3.98122
2.06591
-2.72251
0.656601
2.75266
-2.59574
-0.156917
-0.678
0.529487
0.148514
-0.269076
3.97868
-3.7096
-1.01252
1.54272
-3.27894
0.0779227
3.20102
-2.38138
1.95359
0.427798
6.62517
-2.32971
0.273645
1.45213
-2.49501
2.85237
-0.357369
-3.08376
3.34964
0.0517184
-1.01377
0.962051
1.34377
-1.59816
0.254383
-0.0765975
-0.919775
0.996372
1.11422
2.92827
-4.04249
5.0767
-2.46798
-2.60872
-1.08133
1.00473
3.58028
-3.8833
0.303019
0.572109
-0.10822
-3.97312
-1.69395
2.22546
-0.531512
-2.25673
1.82446
0.432266
-0.0193979
-0.361636
0.381034
0.384309
2.36835
-0.0876238
-0.0200379
-0.193938
0.23205
-2.58407
0.0890642
-3.00154
3.70724
-0.705702
-3.1406
3.35567
-0.215072
-1.3458
-5.47783
6.82362
-0.921011
1.34
-0.418988
1.26973
-1.56717
0.297439
3.56123
-0.176344
-3.38489
-0.146953
-2.95083
3.09779
-2.1763
3.71297
0.956278
-2.56114
1.60486
-3.14209
8.10883
-3.51244
2.66884
0.843599
0.402198
-0.413777
0.0115785
1.39813
-3.42218
2.02406
-3.79934
1.48163
-2.4784
-1.54302
4.64992
-3.00084
-1.64908
-1.33749
1.44333
0.828862
-0.884787
0.0559253
-1.36742
-1.1496
2.51702
-3.51788
5.13919
-1.62131
4.68446
-3.5544
-1.13006
-0.25383
-0.584252
0.838083
-1.46951
-2.36662
3.83613
0.409441
-1.12801
-0.816449
1.22386
-2.70554
-0.825996
3.53154
0.589223
0.145398
-0.734621
0.271342
-1.96529
-1.48677
-0.767351
3.25348
-0.155437
-0.81301
0.651608
-0.899991
1.08267
-0.182678
-3.42662
4.54083
-4.05729
2.58778
1.15309
-1.15196
-0.00112299
-3.11706
0.796935
2.32013
1.3552
3.32926
3.69815
-2.30002
3.20568
-5.14909
1.94341
2.18042
-4.34019
2.15977
0.412125
-1.97347
-2.12742
2.8311
2.42003
-3.45267
1.79438
-3.86967
2.07528
-5.47508
2.82507
2.65001
-0.465984
-1.19165
0.809201
0.799554
-1.60876
2.24276
-0.735467
-1.50729
-0.101924
-2.76427
2.4952
-1.22689
-0.345441
2.37115
2.93174
-3.28729
0.355546
-0.0559896
-0.692825
0.748815
2.38076
0.362842
-2.7436
1.05779
-2.39047
1.33267
-0.53806
3.20267
-2.66461
-0.358813
3.36286
2.64878
-1.6925
-0.63525
1.44899
-0.813741
3.42467
-1.44109
0.614097
-0.0458718
-0.568226
0.676042
-1.04451
0.368468
-0.684338
0.711978
-0.0276397
4.66677
-3.05402
-1.61276
1.11479
-4.63266
-0.759928
0.0755896
-3.55122
0.833818
2.7174
4.64439
-1.89292
0.890262
-3.8918
8.12654
-4.01311
-4.11344
-0.0894731
0.678696
5.21568
-3.01601
-2.19966
-2.42849
0.262153
2.16634
-4.04064
3.90936
0.131279
2.09686
-4.08078
1.98392
0.0018882
-0.0661917
0.0643035
-1.94077
2.24594
-0.305175
-0.307414
0.993951
-0.686537
-0.842026
0.163867
-0.843869
0.14753
-3.02267
-1.96109
2.36612
-3.8515
1.48538
-0.222086
0.996648
-0.774562
2.45765
0.729871
3.45059
-1.6562
0.0858302
1.25794
2.18049
2.46391
-2.25592
0.433179
1.82274
2.59876
2.61692
1.95874
0.484314
-0.858027
0.635942
-1.36626
-0.128378
1.49464
0.0131899
0.389009
-3.38456
2.8465
-1.21087
0.0982095
1.11266
-3.86001
3.68221
0.1778
1.42622
1.88429
-3.3105
-0.319991
-0.776311
1.0963
2.96682
-3.4006
0.433783
-3.02982
-2.44526
4.2183
-3.31615
-0.902148
-0.552625
0.496635
4.39307
-2.29621
-1.72737
4.09349
-1.12222
1.80775
-0.685534
4.76928
-1.0992
-3.67008
2.83725
0.01814
-2.85539
1.3509
-2.47312
3.77466
-2.2128
-1.56186
-0.924706
3.34525
-2.42055
0.599805
-2.7819
2.18209
0.549949
0.479846
-1.02979
-0.149079
0.0327747
0.116305
4.40821
-3.82326
-0.584947
-2.73737
-2.14915
2.93261
-0.000873162
-3.46483
-0.395174
0.631271
0.0447709
3.27263
-4.37805
1.10542
0.0185482
0.810313
-2.13532
4.44713
1.70655
2.96022
5.08279
-3.23847
-1.84432
-3.7367
2.9107
2.9387
-3.93151
0.99281
-2.45849
-0.410919
2.86941
-1.22783
-0.801613
2.02944
3.44323
0.137051
1.32299
-0.169906
0.241508
-0.695215
-2.07661
-1.58833
2.91223
-1.3239
-1.0716
0.17161
-0.655034
0.0197839
0.362147
-4.40279
3.0684
-3.42721
1.21427
-0.936184
1.17298
-0.236797
0.0907105
0.228767
-1.69771
1.03624
0.661476
2.16152
0.88518
1.85439
-0.562392
-1.292
1.75009
0.754854
-0.915875
4.18851
2.35779
-0.512835
-1.10605
-2.01101
4.90551
-3.58046
-1.32505
2.43215
-4.92776
3.53298
1.39478
3.1177
-3.54715
0.429444
-2.04595
1.37783
-0.677718
0.224523
-1.3854
-2.37954
1.42307
-2.5512
1.12813
1.8949
1.87976
2.50357
-3.32387
0.820299
1.1768
-2.54042
1.36362
-3.89887
0.724877
0.0693314
1.70279
-3.39539
3.56911
-0.173712
-0.727321
1.36586
-0.638534
-2.18805
-0.363189
-0.641399
-1.05881
1.70021
0.619549
-3.68424e-05
-0.619512
-1.52305
-0.858333
1.27756
1.87434
-3.1519
4.9001
-2.30134
1.52095
-1.79092
-0.255029
2.23794
-1.06114
-3.08476
-0.42768
0.738446
-0.82381
0.0853645
-0.643161
1.49834
-2.19621
3.41327
-1.21706
-0.65967
0.801875
-0.142205
2.23595
0.0068041
-3.55912
-0.818935
-2.29686
4.04535
-1.74849
2.46517
-3.50121
1.03604
1.26063
2.95767
-0.0578324
-0.000563084
0.0583955
0.594636
-3.05312
2.68119
-3.60817
0.926974
0.158727
-0.166332
-0.407689
2.91138
-0.278039
3.34644
-1.9189
4.09932
0.606799
-3.95292
-3.45159
2.90785
0.543742
2.83006
-0.757925
-2.07214
3.82135
-0.854524
-2.28761
-3.93125
-2.67033
2.02877
0.0437427
0.136278
-0.180021
1.3511
-1.55702
-3.30857
2.90088
3.88099
1.00338
-3.54969
1.35347
2.98421
-0.0515955
-0.737647
1.03549
-0.297847
-0.0964932
-2.1075
2.204
-3.58436
0.625215
2.95915
3.39288
-3.39288
-3.1813
4.74549
-1.56419
1.24122
0.613165
1.90478
-1.12058
-0.784209
-3.99104
4.12388
-0.132836
1.61715
-0.199191
-1.41795
1.30318
-0.34167
-0.961508
0.70902
-1.02901
0.102184
2.49085
-4.21822
-3.09296
3.68695
-0.593988
-1.25754
2.5351
0.204517
-0.00596322
-0.198553
-1.60807
1.0752
0.532868
-1.56005
1.97217
4.86027
-3.65802
-1.20225
-0.4995
-1.91115
2.41065
-1.21901
1.25618
-0.0371701
0.889619
-1.24648
0.356865
-2.58504
1.24649
1.33856
-0.172743
0.0488194
-0.992372
0.254725
0.0544395
-0.176499
0.12206
2.31027
2.09794
0.154036
0.0504809
-0.498631
-0.669508
1.16814
-2.17566
3.51441
-1.33875
-0.147081
0.725762
-0.578681
2.16661
-1.22811
2.34997
0.652518
-3.00249
0.397102
-1.9258
0.770229
2.791
1.99154
1.26479
-3.25633
2.13631
-1.52927
-0.607045
-4.04534
0.766403
-1.16741
0.638066
0.529348
1.493
2.64657
-4.13958
-2.69961
2.28869
0.292192
-3.67167
3.37948
-0.727302
0.473472
0.433818
-0.465754
0.0319367
0.122355
-1.48862
0.246855
-0.187571
-0.0592847
-2.98299
-0.568234
2.42913
2.375
-0.392276
-1.98273
-0.760628
0.100958
0.444219
-2.67981
2.23559
0.838134
1.90468
-2.74282
1.41145
-2.76579
3.22038
-0.454586
-3.01478
2.09008
-0.0256321
-0.0731646
-1.49241
-0.764325
-1.31681
0.263977
1.05284
-3.7954
1.61974
2.48444
-2.98394
0.253706
2.7305
-1.46396
1.45393
0.0100291
0.795914
-3.87102
3.07511
0.962357
-1.34503
0.382677
0.872362
-4.43148
-2.84522
-0.295384
-1.59652
0.185978
0.0291143
-0.0453933
0.0162791
1.83044
0.0399803
-0.0824842
0.0425039
3.93385
-2.44084
-4.4077
3.98259
0.425105
1.1251
0.985899
-2.111
-1.32006
0.592758
-1.20513
-0.111681
1.16012
0.744666
-1.14492
-1.53398
0.800596
-0.0621503
2.31856
1.95787
0.399923
-3.29203
3.74621
0.17737
-1.29378
1.11641
-0.374189
-3.29285
3.66704
-0.512749
0.538845
-0.0260959
-1.2148
0.293794
-1.5799
2.17971
2.95295
-0.887038
-1.20859
-0.489122
-0.155879
-1.80214
1.95802
4.92677
-6.27256
-0.164563
-1.78541
1.94997
-0.490755
-0.0195442
0.510299
-2.47115
-0.0821158
2.55327
-0.17286
-1.03957
0.0515669
0.52657
-0.578137
-1.06816
-0.150845
0.921214
1.54153
-2.46274
0.690318
-0.839475
0.149157
3.81695
1.8193
-5.63625
1.84694
0.0728451
0.583002
0.036547
-1.55669
-2.66725
4.22394
1.28071
1.75043
3.34047
-2.50233
-1.69952
1.05812
-0.117344
-0.0317358
-0.787208
3.72591
0.417979
-2.99751
2.57953
3.20131
-0.795627
-2.40569
-1.39843
2.32226
-0.923835
1.49921
-1.44252
-1.32256
2.76509
0.0990337
-0.139459
0.040425
-1.07461
-1.97764
3.05225
-0.776588
-0.831483
0.375278
-0.394676
2.05595
-3.13056
-2.73529
-0.935642
3.67093
0.0142008
-2.19404
2.17984
0.481971
3.85065
-4.05436
0.20371
0.931654
-0.274897
-0.656757
0.00645387
-1.47041
0.970279
1.22654
-1.56744
0.339614
-3.17601
3.97934
-0.803334
-1.70667
0.495793
2.33529
1.2651
-3.75506
-1.20732
0.00713552
-0.112539
0.105404
2.1184
-0.16053
-0.993454
1.0923
-0.0988418
0.805835
-1.11325
-4.19171
1.71331
3.37722
0.644389
-0.242946
1.13257
-1.05703
2.18213
4.19486
-1.70401
-1.02409
0.0306379
-0.515567
-2.793
0.827033
1.10683
-1.05511
-3.68844
0.104073
0.0529176
1.03547
-0.0731156
-1.40446
0.627316
0.777144
2.81853
0.440236
1.04538
-0.406641
-0.638738
1.34125
-1.23793
-0.103319
-4.70808
1.92211
-4.50956
2.21269
1.21031
0.75351
-1.96382
-0.117036
0.478676
-0.36164
4.17216
-0.117215
-4.05494
0.935066
0.0708509
-1.00592
-0.62283
-1.26678
1.13968
-0.203488
0.219887
-0.194048
-0.0258386
1.86369
-0.257787
-1.6059
0.0708707
0.149016
-0.533634
-0.839746
-0.123604
-0.733744
0.857348
-4.054
0.877993
0.0200407
-0.645186
0.714229
-0.094167
2.46917
0.671758
-0.585928
1.15669
0.756183
-1.91288
0.300755
0.910101
1.26712
-1.08975
1.06356
-0.932637
0.615431
-1.34275
1.74994
-0.755491
-0.994448
2.38648
-0.494357
-1.89212
-1.48995
-1.23256
-0.895507
-0.0617587
0.957265
1.05503
-1.28587
0.23084
4.35561
-0.111209
-4.2444
-0.858651
0.118396
0.740256
-2.08095
2.96594
-0.884991
1.94668
1.8269
-3.77358
0.751501
-1.18048
-1.24196
2.01863
-0.776671
1.08636
0.389287
-1.47565
-4.00381
2.67652
1.32729
-0.151254
-0.0427941
-3.39643
0.661143
1.50623
-0.83764
-0.668587
1.5503
-2.22483
0.674524
-0.567905
-0.860356
0.400484
3.45017
3.32
-0.668346
-2.65165
-3.13455
0.36876
1.27938
-2.38544
3.78802
-6.17389
2.38587
-0.554089
1.36329
-0.00716766
-1.34901
0.850383
-0.771032
1.00492
-0.732515
-3.60352
4.33603
2.44582
1.94724
-2.92476
3.14123
-0.216472
0.0373899
-0.00827564
-2.67088
-0.61104
-0.606434
0.681619
-0.0751848
2.14889
0.835662
-2.98455
0.794432
0.669422
-1.46385
-0.524419
2.07472
-1.85064
-1.58173
3.43237
-3.38132
-1.04466
4.42598
1.62318
-1.53779
-0.0853899
-1.14098
0.120581
1.0204
-0.542367
0.224932
0.317435
-3.65618
0.14848
3.5077
0.0700986
0.984148
-1.05425
3.00386
-3.34529
0.341433
-1.65697
1.40416
1.3741
-2.77826
0.0638956
-0.67033
-0.623545
-1.78642
2.40997
4.52603
-7.66812
-3.78552
3.31294
0.472578
0.833438
-0.14312
3.72474
-1.38945
-0.392207
-0.351059
0.743265
-0.0550799
0.838498
-0.783418
-1.08913
2.76514
-1.676
3.05972
-3.27146
0.211737
4.05112
-3.87247
-0.178653
2.51366
-1.02615
-1.48751
0.148552
-1.12239
0.97384
-1.38311
-0.0386111
-4.39427
3.83658
0.557696
0.194776
-4.58905
0.164194
2.3083
-2.47249
-1.93574
-1.88752
1.07324
-0.816381
-0.256855
-3.16608
-0.887915
-0.988236
0.722811
0.265425
-0.449774
1.50757
-3.94391
3.7349
0.209009
-0.891127
-0.181452
0.0375034
1.00434
-0.0692705
-2.14352
0.20275
0.881142
-0.902343
0.021201
-1.2564
0.224906
1.0315
1.7187
-0.101551
-1.11735
2.09624
0.139709
1.49362
2.03364
-0.72063
-1.31301
-0.50556
1.77529
-2.86531
1.78004
1.08527
-0.248844
0.0975903
4.35197
-1.90615
3.1435
-2.34758
-0.464553
-0.743234
1.20779
1.64058
-3.88197
2.24139
2.47206
-2.45786
6.90236
-4.29338
-2.60898
-0.0324446
-2.35062
-0.514693
-0.59694
4.42564
-3.8287
0.139987
-1.15566
4.36134
-4.16736
1.00127
0.998103
-0.448154
-0.530934
0.122554
0.735232
-0.0232536
-4.8477
-2.9925
7.65557
-1.00049
-1.26013
1.03207
0.228057
0.150207
1.15297
-2.90168
-1.96017
4.86185
3.24265
0.20058
-0.0340832
-0.732271
0.766354
3.28143
-0.569077
0.0349447
0.534133
1.02808
0.721861
-1.55814
-3.74984
0.656876
-1.03593
0.0546014
0.981326
3.62199
4.50455
1.43194
-2.66351
1.23157
3.8742
0.176924
2.57891
-3.68646
1.10755
-3.21188
0.0388405
3.17304
-3.50387
4.50809
-1.00422
0.725834
-0.0361172
-0.689716
-2.90743
7.43347
-1.40857
-0.207844
1.61641
0.191423
-3.11618
3.18709
-1.02894
-2.15815
-3.57341
4.62488
-1.05148
-1.08084
2.5156
-1.43476
4.64295
-2.05359
-2.58936
0.233876
-2.39385
2.15998
-0.389977
-0.0757771
-1.48107
3.42775
1.56093
-4.74223
3.29206
-0.826887
-0.892396
0.768791
-3.30564
0.0937618
3.45098
-0.947411
0.16588
-4.13054
1.14983
-0.100784
1.64892
2.53415
-4.18306
2.2047
-0.773326
-1.43137
0.157896
-4.35589
4.198
-0.836664
0.0484577
0.788207
-0.958108
-2.07611
3.03422
1.58829
-0.972863
-1.76012
2.94492
-1.1848
0.505572
0.687705
-1.19328
0.339176
0.734061
-4.20872
4.84276
-0.634045
-0.443355
-0.069394
1.84646
1.02837
-2.87483
1.57632
2.42916
-4.00549
0.933646
1.89642
-0.0204044
4.69296
-0.0669964
3.17606
-3.10906
-0.129043
-0.0180381
0.0817596
0.0946227
-0.176382
4.4318
-3.33494
-1.09686
4.19681
2.70555
-0.105015
0.0648801
0.0401354
-0.881793
3.03087
-2.14908
-0.0743715
0.947831
-0.873459
2.22277
-4.06416
1.84139
-0.951667
-2.24624
3.1979
2.88086
-0.500104
0.889095
1.3156
1.19127
-3.03994
1.84866
1.26877
-3.17992
0.455285
-1.29289
0.837608
0.885058
-0.086451
-0.798607
0.0659624
-0.45594
-0.209249
3.21697
-3.00772
-0.66675
4.03698
2.87418
-2.53152
-0.342661
2.73692
-2.04465
-1.80613
0.84985
0.956285
0.217005
-1.33758
-0.211053
0.969748
-0.758695
0.365887
0.679492
0.609416
2.89842
-3.50784
1.02248
0.841208
0.561229
-3.94255
-2.11073
0.846119
1.26461
-1.48745
-1.07373
2.56117
2.24182
-1.08512
-3.35323
2.09569
1.14509
-0.86926
-0.275828
-2.51788
4.07087
-1.55298
-1.70869
2.10579
-2.36892
2.77478
-0.405865
-3.03073
4.82327
-1.79253
-0.101175
0.98933
-0.888155
-0.544613
0.427577
-1.6469
-2.28854
4.05365
-1.76511
-2.21898
3.01592
1.92681
-2.28046
0.353652
1.3853
-0.0622339
-1.32307
-3.41744
2.34771
1.06974
0.0289613
0.415358
-0.444319
0.568809
1.77433
-2.86346
3.63478
-1.9942
-0.481002
-2.97059
-2.82598
2.75899
1.65363
0.170839
1.02426
0.496193
-1.52045
-1.53563
1.4592
0.0764289
0.17384
-1.04061
0.866775
-1.29446
0.530155
0.764304
-0.414795
-0.586925
1.00172
-2.62927
-0.807928
3.4372
0.117522
1.26778
2.78982
1.64198
-5.29888
2.66251
2.63637
-0.698153
-0.267836
0.965989
0.0297484
0.980911
-1.19207
0.21116
-1.30433
-1.21016
-0.0843
0.69175
0.983334
-0.834782
-0.291761
2.44065
0.319606
-1.56039
0.164275
1.28393
0.121813
-0.0303229
-0.0914897
-2.97687
-2.35154
5.32842
2.60947
-1.4182
-1.91072
-0.175641
2.08636
0.559444
0.881771
-1.44122
-0.00598172
4.42477
-2.84064
-1.58413
0.815458
2.50454
0.251593
-3.49269
1.20782
2.28487
-2.18358
3.47323
-1.28964
-2.10873
-0.809203
2.91794
-2.07277
0.830807
-1.09375
-0.712385
4.6708
-2.05563
-2.61517
1.50138
-1.27131
-0.230077
1.11056
0.53465
-1.64521
-0.867889
0.937987
0.492646
-0.669012
0.176366
0.298495
-0.0982658
-0.98306
-0.058312
2.73276
1.93804
-1.85935
4.60678
-1.34687
4.48123
0.783747
0.717638
-3.09416
0.98543
3.03677
-2.44213
-0.649061
-2.78854
0.707587
2.3706
-2.2064
2.46313
-2.55963
3.34401
-0.226303
-0.839225
-0.650533
-0.473121
-0.441348
0.914469
-1.39654
-0.129478
3.09216
0.510884
-3.60304
-0.248923
-1.00462
1.25354
-0.202302
3.30693
-5.14034
1.83341
3.19337
-0.189509
-4.34873
4.74841
-0.399689
0.851376
-0.836946
-3.07029
-0.347157
-0.865328
3.92266
-0.086084
1.67698
4.01921
-1.74629
-2.27292
-2.24702
-0.220224
2.46724
0.829268
1.60381
-2.43308
-2.86488
0.393733
-0.828644
-0.0684041
0.897048
-1.91903
2.33701
0.763727
1.78623
-2.54996
-0.189173
0.470203
-0.28103
-3.40914
0.368455
3.04069
1.11809
2.51669
-1.09989
1.74163
0.772029
-0.606053
-0.561361
3.84848
-4.53981
0.530157
-0.475315
-0.0548425
1.24637
-0.494866
2.69119
0.0269547
-2.71814
3.10308
-4.44995
0.0228072
-0.020919
-1.02223
1.05944
-0.0372056
-2.32655
1.703
-0.0816646
1.27258
-1.19091
-0.812153
0.526227
0.285925
-0.185153
-1.02965
-1.23297
2.51235
1.5525
-0.342183
-0.75213
0.816025
-1.75655
-0.633923
-0.0291497
-0.0370421
-0.914884
0.876009
0.0388754
0.991569
-1.08127
0.0897052
-1.22923
3.02619
0.301545
-2.21227
-0.0758722
-1.26161
-0.265439
2.39033
-2.12489
1.46113
-1.58951
0.235858
-2.42342
2.18756
-2.16074
3.74886
-1.58812
1.30764
-2.89597
-2.14179
-0.0857362
-3.69979
1.02591
6.62966
-2.7921
-0.56113
-1.80116
-3.12661
-1.89284
0.834031
0.0348975
-0.0576394
0.0227419
6.84223
-3.22023
3.41066
-0.729466
-0.974076
-0.784976
1.75905
-4.12284
1.95772
2.16512
-1.2076
0.852266
-0.878191
2.28235
0.787858
-0.410106
-1.61372
-1.46477
0.0562022
1.13835
-1.07482
-0.063528
-0.492843
3.585
-0.127646
1.11786
-0.990216
4.40535
-4.5567
2.25719
2.29951
0.88684
1.08481
-1.97165
1.70502
-2.24944
0.544424
-2.36246
1.28162
-1.34173
-0.333722
1.44428
3.52244
-3.89663
1.85959
-0.773228
-1.37815
2.64692
-3.5455
2.5222
1.02331
2.28402
-4.23199
1.94797
-2.60025
2.9565
-0.35625
1.19153
-1.69709
0.0620339
0.494743
1.12843
-0.153187
-3.05502
1.74661
-4.60704
2.0752
2.53184
0.898515
-3.14553
1.76731
0.0784322
-2.50692
0.483136
2.79481
4.14645
-1.49861
-2.64784
-0.947286
1.13846
-2.62591
0.80677
-3.49311
3.27289
-2.45148
1.00895
1.78821
-2.44704
2.64545
-0.198406
-4.09724
2.1532
1.94404
-1.40437
-0.628783
0.138028
-3.97472
2.85993
1.11479
4.33906
-7.2465
-4.10618
-0.102543
6.22386
-2.43584
4.23429
-2.2205
-2.01379
-0.11185
-0.710831
0.822681
-0.540116
2.69392
2.01903
-2.88106
0.434017
0.41957
1.16872
0.611635
1.6363
-2.24793
1.7605
-0.960945
-0.293662
-3.6626
3.95626
-1.41994
1.04407
-3.22037
-2.33397
-1.73875
4.07273
1.11249
-1.44885
-2.95795
0.996255
1.96169
0.139462
0.413385
-0.552847
3.64609
-4.3786
-0.0871313
-0.935102
2.80538
1.2411
-4.04648
-1.23923
-0.0209002
-3.40718
1.05227
2.35491
-3.28292
2.33126
1.24059
-3.42417
0.656416
-0.126259
0.194995
-0.0555327
0.0907746
3.11054
-2.25156
3.06414
-0.812573
3.81516
-0.105698
-3.70946
-2.80365
-0.0612437
-0.87494
0.171558
3.22132
0.662098
0.139777
-0.531084
1.8071
-0.565873
1.99239
-1.02022
1.19406
-3.65899
-0.284917
-4.02356
1.48134
-4.49735
0.854986
0.784175
-1.63916
3.88247
0.209145
-4.09161
-0.545436
0.509319
-1.47017
-3.03938
-2.95895
-0.588198
-1.46559
4.56866
-1.31905
2.03734
-0.71829
-4.29693
1.32005
-1.36347
1.97511
-1.13335
-0.271109
-1.82333
-0.812483
1.10992
-0.829008
-0.427397
4.56209
-0.639433
1.82711
-2.21389
0.386782
0.51643
0.932562
1.24489
3.88327
-3.59108
-0.329111
-0.942058
1.49562
-1.78786
2.22104
-2.03111
-2.46237
0.930592
0.806985
-1.73758
-3.44769
0.0548092
-0.665131
3.11073
-2.4456
-0.24902
-4.09971
-2.40836
2.7712
4.90718
-2.30664
-2.60054
-0.181767
0.819832
3.48058
-1.29497
-2.18561
1.18027
-1.27853
0.141865
-0.0601057
-0.383147
-0.248718
0.631865
-0.462213
1.48648
-2.74359
7.08265
0.0402187
-0.8566
-1.10026
-0.540656
1.64091
-0.203923
3.85001
0.938857
0.613293
-1.55215
-1.54198
2.4632
1.36046
1.67041
-1.65444
-0.456285
2.28344
-0.810525
-1.47292
-0.0715953
-0.00480672
0.076402
0.356998
-2.58266
2.22566
-3.59655
0.637604
0.952138
-2.91742
4.39876
-0.013704
1.19397
0.746454
-2.0655
-5.99117
3.32084
-3.5816
1.11362
-2.00723
0.447187
-1.33509
-2.47893
3.81402
-2.68358
0.375813
0.235153
-0.610966
2.89452
-2.48567
2.61449
-1.78522
0.317025
2.16763
-2.48465
0.297869
-1.12651
-0.912302
-2.70037
3.61267
1.62376
-0.698529
-0.925234
-2.44517
4.29342
-1.84825
3.51325
-2.88954
-0.623707
2.798
0.0955861
-2.89358
-1.67307
-2.88363
-1.23274
-0.363779
1.89591
2.48073
-0.0220612
0.510744
-0.488683
-2.63707
-0.770113
2.36117
2.29195
-2.10859
2.73059
-0.622001
-0.638942
0.673887
0.136924
1.18598
-1.3229
0.930364
-1.05801
-0.365062
-3.60966
-4.77677
1.1516
-0.00651307
-1.39598
-0.0907898
0.358104
2.693
-3.0511
-1.97713
-0.166393
2.37752
2.52257
0.318357
-1.12573
0.0812763
0.192917
-0.274194
0.297011
-1.57312
1.27611
3.02135
-1.13706
2.94433
3.51401
-1.61911
3.37208
-2.32801
-0.58854
-1.04511
1.63365
2.80205
0.543206
-0.162062
-2.86125
1.90314
2.67007
-2.87399
-1.44537
-2.42712
3.87249
-2.04836
-2.07448
-3.32373
3.29281
0.0309164
2.26761
-1.0013
0.55995
2.34671
1.16729
-2.21383
1.36665
0.847174
-1.08491
-2.23976
-2.64113
-0.928532
3.56966
3.54504
-0.302382
1.28314
-0.82785
2.33698
-3.80715
1.42192
-1.38336
-3.67668
3.80242
-0.125733
1.9068
1.76152
1.54228
-3.3038
3.77335
-2.13085
-1.6425
-2.2947
-2.7622
3.41511
-0.652905
2.28748
-0.460367
-1.24623
1.23253
1.62824
3.01472
-0.968671
0.856821
0.0847185
-0.0447382
3.59631
-2.02064
2.64248
4.19974
-1.79829
1.04748
0.750813
0.81396
-1.27851
2.70382
-0.0126364
2.34787
1.88642
-2.35909
-0.275192
2.63429
0.859726
-0.0501884
-0.809537
0.820841
0.110813
0.550997
-4.05487
-1.21852
1.34088
2.45978
-2.35508
-0.104696
0.672474
1.61097
-0.741242
0.334601
1.08694
1.00643
-2.09336
-1.25166
3.67971
-0.260819
-1.28935
3.64885
-2.3595
-0.641086
1.14666
-0.153026
-0.0361471
4.05483
-2.07418
-1.39066
2.28956
-0.584543
1.30793
-1.3838
-0.785439
0.684264
-1.21649
-0.694704
-0.0659241
0.706714
-0.751262
3.07666
-2.3254
0.188754
-0.134314
-0.795914
0.444856
-1.50154
0.268794
-4.3125
2.75581
1.00788
1.01076
-3.05324
2.56824
0.485001
0.398922
0.489021
2.82889
2.01273
-4.84163
-0.592421
-0.0238519
0.616273
-1.82684
-2.58085
3.38962
1.51756
2.93124
-2.57313
-3.54941
-0.0580553
0.07027
-2.85879
1.62855
-0.423446
3.24169
-2.81825
1.62546
-0.164331
-0.0695555
-1.25594
-0.542348
-2.40837
-1.27402
1.49103
0.532462
3.45013
2.01728
-1.87334
-0.143945
0.844004
0.0320051
-0.308838
1.11155
-0.119981
3.08357
0.750852
-3.83442
1.16351
-0.0251659
-1.03339
0.65027
0.383117
-1.48631
0.0134085
1.4729
0.723099
1.89015
-2.61325
0.97775
1.26407
2.47148
-0.0448937
-1.17044
1.31492
0.492178
-0.719186
0.811181
-0.0919951
-3.55973
2.01671
3.16384
-2.42077
-0.74307
0.0703404
-0.679416
0.609075
3.3126
-3.52185
2.47463
1.0704
1.31384
1.30065
-0.698512
0.00380795
-0.776178
0.267635
0.508544
-1.72207
-0.591308
3.99622
-2.05179
-1.94442
3.16621
-1.93369
-1.23251
1.74216
-2.94547
1.20331
-0.253537
2.18655
0.051386
-0.674537
2.92595
-2.25142
-0.47834
-0.297838
-2.92136
0.481972
0.63589
3.23248
0.020874
-3.25335
-1.78014
0.0124823
0.10933
0.0763149
-0.0114348
0.997393
0.0620452
-1.07305
1.86748
-0.0224636
0.00157958
-0.114593
0.495135
-1.62435
1.94138
0.0629561
1.04387
0.217554
-0.694113
3.15177
0.0411864
1.97609
-0.746307
-0.614482
-0.999928
2.08686
-0.443393
2.95492
-2.51153
-2.90423
-0.492199
-2.15438
4.16764
-2.01326
-0.725638
1.20761
1.32295
-0.268616
-0.0836657
-1.01644
1.10011
-3.14917
1.075
0.714412
-0.662845
2.27753
-5.17921
1.8126
-4.47984
-2.26554
3.56537
-1.07448
2.14613
-1.13971
0.0563689
-2.05579
2.41279
0.00194536
-0.694771
0.130112
-1.6679
-0.595606
-2.13402
2.72962
-0.953157
1.56401
5.83022
-3.84348
-1.98673
-0.96225
0.393175
0.991951
0.0936524
-1.0856
-3.0199
0.768338
0.961495
-0.0764366
-0.0196573
-0.614731
0.634388
2.14267
-4.29705
0.377194
1.65072
0.389901
-2.04063
-3.31193
2.86853
0.660734
0.16843
-0.829163
1.90452
-4.19305
-0.680034
0.0142755
0.665759
0.859952
-0.199219
0.0307689
2.80141
-1.86776
2.12418
2.08504
-1.10729
-3.40091
1.06694
-2.33712
2.15608
0.181036
2.29861
-3.74398
-1.98231
-1.24619
3.2285
0.209914
1.74367
-1.24115
1.04196
3.71576
-0.5089
-3.20686
0.0125623
-3.67155
2.50988
0.28812
2.28611
1.19447
-0.740826
0.00855529
0.691972
-1.11895
-1.43225
0.115304
-0.173295
0.0579912
0.105393
-2.64294
2.53755
-0.228143
1.24166
-1.01352
1.62909
-4.16847
2.53938
-0.0197924
-2.04807
-0.0840148
0.0328197
2.37164
-1.35578
-0.836938
2.19272
-1.63729
-1.3457
1.84993
-1.04294
1.0122
0.129139
-1.14134
-1.14851
-1.90473
-3.55343
-0.315237
-0.474821
0.790059
0.810247
1.07214
-1.88239
1.76017
-3.41907
1.6589
0.483679
-2.21472
0.57296
-4.14637
-5.05595
-2.37247
7.42842
-3.36972
0.129863
3.23986
-3.96023
-2.87413
0.27388
-1.16957
1.20092
-0.0313462
-4.46642
-1.24906
4.33263
1.55989
-0.803707
0.363389
-1.36332
-0.687297
1.95136
0.690975
0.55104
-1.6513
0.0779422
-0.677247
0.599304
-0.440122
-0.237878
-0.475789
0.546129
-1.22502
2.11186
-4.1683
2.23775
1.93054
1.23365
0.0893465
1.55122
0.960838
-0.101112
-0.670773
-1.54305
-1.82958
-1.12836
-2.21166
0.805267
1.4064
0.0335165
0.744961
-0.778478
-1.73884
2.03585
-0.519378
2.83951
2.54044
-1.60158
1.77472
-3.41201
1.62587
-1.7787
0.152835
0.608167
-0.0815972
0.00331343
-0.00387651
-3.82221
2.48712
2.04951
1.1167
0.0622564
-0.849613
0.787357
-4.59856
1.5148
-0.430695
-0.613815
-0.826184
-0.0486262
-0.950908
0.999534
-2.2767
0.920922
-3.77319
3.40813
4.57343
-1.76805
-1.01446
0.921634
0.0928251
-0.125112
0.0125726
-0.699691
-0.527188
0.328769
0.198418
-0.689127
0.665275
-0.391891
1.41714
-1.02525
3.1302
-0.655564
0.155677
-0.184004
0.0283271
-1.09542
1.15837
0.0223755
0.136351
3.0881
-4.12993
3.64434
0.229861
-1.4047
-1.69181
3.31494
-0.177466
-3.13747
-0.961769
0.327259
0.63451
2.74353
-7.59123
-2.23321
0.674923
1.55828
-0.0945229
-0.0544275
0.14895
-3.27805
3.3492
-0.0711444
-1.38652
1.62238
0.329294
2.73043
4.1939
-1.51407
-2.67984
0.175534
-0.547929
0.372395
-0.583126
-1.29329
-0.0898184
-1.26876
-0.0245352
0.479033
-1.17928
0.700249
-0.363631
3.36882
-3.00519
-3.34137
0.896491
2.44488
1.09878
3.07338
0.0288228
0.433111
-0.461934
2.14311
1.04114
-3.18425
0.108342
-0.0734448
-5.25361
5.7657
-0.51209
-2.64537
0.28628
2.20524
1.11276
-3.09507
-0.00896032
-0.51712
0.526081
3.37792
-1.04507
-2.33286
1.44219
0.905665
-7.52857
4.53607
3.12814
-3.4218
-1.75722
0.0969009
1.66032
-0.103025
0.181162
0.61313
-0.794292
0.105575
0.0417274
-0.147302
-0.0350005
0.584522
-0.549521
0.213501
-0.34936
0.135859
-2.20093
4.53791
-1.29193
1.13605
0.643259
-1.03515
1.45829
-2.21563
0.75734
-1.9847
-1.5608
-0.468413
-0.0739543
0.109341
-0.0158334
-0.0935076
4.32034
-4.0243
-0.296039
0.155259
2.30452
-1.01877
-0.516865
-2.33956
0.537417
1.76111
0.892814
-2.65392
-0.0176886
-0.077076
0.0947645
-0.0907886
1.43204
0.0273584
0.255152
-0.28251
4.29959
-2.32625
-1.97334
-4.36991
0.766392
0.202605
-2.69328
0.744817
1.94847
2.71244
-2.99048
-0.574946
-0.0702392
-0.0509186
0.054232
-1.48402
3.20364
-1.71962
0.694227
0.0936315
-0.708428
0.286072
-1.02463
1.06484
-0.758742
0.877137
-1.95766
2.0208
-0.0631469
2.75861
-1.94351
-0.815098
1.69249
1.32886
1.06488
0.191294
-0.964714
0.79464
-0.462817
-1.2414
-0.601747
-2.66971
-2.89275
2.21821
-0.449364
0.674296
0.593831
0.266121
-0.0394149
-0.055108
2.98832
-3.11152
0.123205
4.86786
-1.71326
1.02645
0.686803
0.534499
-1.47656
-2.47783
-3.26231
-1.04472
0.99453
-0.739643
-1.07312
1.81276
-3.04709
0.828113
0.685797
0.854006
-1.5398
1.14019
0.483572
-0.672524
-1.66615
4.09532
-0.460136
-3.20995
1.02699
-2.11463
1.08764
-1.05945
1.37781
-2.02365
-2.57492
-0.431208
-0.380944
2.34614
-4.0334
-0.166843
4.20024
-0.0639821
-1.29168
0.0876875
-1.4156
1.32791
-3.30609
-1.84301
-0.724374
0.738649
2.34876
1.34939
-0.715189
0.0720275
-2.72915
-0.772058
3.20829
-0.225763
-2.98252