/*--------------------------------*- C++ -*----------------------------------*\
| =========                 |                                                 |
| \\      /  F ield         | OpenFOAM: The Open Source CFD Toolbox           |
|  \\    /   O peration     | Version:  2306                                  |
|   \\  /    A nd           | Website:  www.openfoam.com                      |
|    \\/     M anipulation  |                                                 |
\*---------------------------------------------------------------------------*/
FoamFile
{
    version     2.0;
    format      ascii;
    arch        "LSB;label=32;scalar=64";
    class       volVectorField;
    location    "5.8";
    object      U;
}
// * * * * * * * * * * * * * * * * * * * * * * * * * * * * * * * * * * * * * //

dimensions      [0 1 -1 0 0 0 0];

internalField   nonuniform List<vector> 
13486
(
(7.03389 -1.87222 2.27438e-20)
(7.20609 -0.144589 1.30459e-20)
(8.82754 -0.392455 0)
(0.559807 -2.73559 1.28693e-20)
(11.1029 -2.21944 6.37253e-21)
(8.85771 0.425711 -5.38618e-21)
(12.6752 -1.4685 5.72565e-25)
(9.40038 -3.41005 -1.16489e-20)
(8.99077 -2.0354 0)
(7.4216 1.17916 0)
(-1.3434 7.04616 -4.17361e-21)
(9.0955 0.945761 0)
(6.7178 -2.55937 -2.19788e-20)
(8.37402 1.6566 -8.03995e-21)
(11.7482 -0.793335 2.36815e-21)
(7.31512 1.20004 -1.39068e-20)
(0.699002 -0.414516 -5.6057e-22)
(5.56511 6.88192 -5.38717e-20)
(8.37362 0.293781 2.36593e-22)
(7.4353 -1.18617 -2.44265e-20)
(-0.28066 -5.91898 -1.78964e-21)
(6.76878 -2.59969 2.83159e-20)
(7.25164 -0.155518 -1.04506e-20)
(12.8422 -0.647295 0)
(7.74062 0.985408 5.24039e-21)
(13.0204 -0.518189 -2.78308e-21)
(0.929276 -0.235758 3.82555e-22)
(10.519 -0.133665 -1.17091e-20)
(-2.14393 -0.6569 0)
(10.6972 -0.683918 7.21657e-21)
(-5.26228 -8.26568 -1.14778e-20)
(11.4459 1.17573 -3.38409e-21)
(11.2842 0.671462 -1.96424e-21)
(9.64129 -0.476059 0)
(9.46276 -3.28832 0)
(11.3954 1.53864 -8.55159e-21)
(5.70217 -1.92646 2.63994e-20)
(7.66799 -3.57771 1.15014e-20)
(9.46325 -1.04547 5.16545e-21)
(8.90726 -1.34475 1.24211e-20)
(11.7954 -3.79949 0)
(5.95681 -2.86709 -2.56073e-20)
(9.16863 -0.141975 0)
(7.80196 0.829858 -2.43343e-20)
(7.80239 0.848001 1.00064e-20)
(8.99553 0.884032 1.04022e-20)
(-0.221613 -0.00636063 -3.36639e-21)
(-0.211984 2.20619 -3.63007e-21)
(4.91484 -1.87571 -2.03678e-20)
(10.001 0.259013 -7.54668e-21)
(7.98384 0.0184772 1.87203e-20)
(8.43915 -0.464705 0)
(9.18089 2.05829 -1.45423e-20)
(7.89301 -3.05536 -1.67659e-20)
(1.41823 5.41445 0)
(10.9297 -2.24421 -4.48971e-21)
(14.0548 -5.94582 5.09166e-21)
(8.91166 -0.831884 1.97485e-20)
(11.1817 0.734611 -2.98016e-21)
(6.52296 -4.88202 0)
(-2.35126 6.99972 -9.48005e-21)
(5.58761 -3.73224 0)
(10.9851 2.94229 3.15532e-21)
(-0.168492 -6.12308 -1.88e-23)
(1.81572 -4.37486 0)
(5.24036 -2.43382 1.22681e-20)
(-0.78784 -1.20461 1.23683e-20)
(6.78759 -1.06284 7.96626e-21)
(8.99717 -2.13585 -6.74228e-21)
(6.67579 -0.118842 -1.07085e-20)
(-0.857973 -0.871158 -1.42819e-20)
(2.4718 6.52854 -2.31888e-21)
(8.63783 -0.858813 9.62247e-21)
(-1.4594 -0.390033 1.12111e-21)
(4.04869 -3.80314 2.8521e-21)
(13.3835 -7.08166 -7.22929e-22)
(4.92652 -3.56315 -7.40801e-21)
(11.821 -0.875849 -1.00251e-21)
(-0.274594 0.917708 1.40213e-21)
(9.11808 -0.433459 0)
(13.3155 1.93033 7.24925e-21)
(6.97422 0.0024327 -8.44162e-22)
(10.7839 3.20888 6.528e-22)
(8.8198 -0.50291 -4.29499e-21)
(7.0347 -1.88869 -4.4283e-20)
(5.70454 2.34657 0)
(7.12348 2.61491 1.25762e-20)
(7.9936 0.058348 -2.97596e-20)
(7.66894 -0.0292232 -1.18026e-20)
(6.8302 1.60775 -1.8344e-20)
(10.8835 2.39176 -1.94303e-21)
(9.98768 -2.86848 -6.03166e-21)
(7.29409 -2.17368 5.82265e-21)
(7.36798 -0.719464 6.63676e-22)
(8.74533 -2.8591 2.6814e-21)
(3.77158 4.22199 -4.24383e-22)
(0.758444 -0.138478 0)
(-3.98573 -0.867341 -3.12675e-21)
(8.91391 -1.29764 -2.37806e-20)
(0.913809 -0.579918 -6.4204e-23)
(12.3833 1.56021 0)
(8.337 1.63471 -3.18976e-21)
(-4.49248 -1.43102 1.31447e-21)
(8.60242 -0.703119 -2.33431e-20)
(5.37402 2.07571 0)
(1.08501 -0.600987 -6.15372e-23)
(8.01344 -0.149061 -8.03551e-24)
(9.56814 -1.0524 1.17253e-20)
(-0.113738 0.398883 -1.83415e-21)
(9.64799 -4.38056 0)
(8.00562 -3.74583 0)
(12.9129 0.685862 3.42551e-21)
(7.92437 -2.98914 1.18858e-22)
(15.8756 0.23719 -1.29124e-22)
(5.88699 -1.61489 0)
(7.89891 -3.71168 -9.83462e-21)
(7.64601 1.04853 0)
(10.033 -0.408842 0)
(8.63925 -0.839694 0)
(5.53599 -0.593077 1.51129e-20)
(5.82562 7.42423 1.70162e-20)
(-3.42864 6.69733 0)
(8.59042 -2.65824 0)
(9.20013 -1.23774 -1.61934e-20)
(8.94179 -3.23765 0)
(8.64863 -0.692188 0)
(10.0085 -1.02729 2.72485e-22)
(8.3138 0.178885 1.45293e-20)
(9.50458 -0.381298 3.5349e-21)
(3.29832 -3.2011 -6.26601e-21)
(8.17757 -0.53943 2.68562e-21)
(-0.344038 0.17107 9.23843e-22)
(1.54688 1.49437 -1.25112e-21)
(-0.872394 0.159406 -1.78999e-21)
(7.9953 0.00495403 -2.96971e-21)
(7.52293 0.513748 -1.58031e-20)
(4.36602 0.143417 -7.12901e-21)
(9.24842 -4.08696 0)
(4.58196 -0.713552 -4.80559e-21)
(9.49906 -2.78796 -4.23437e-21)
(10.6199 0.71169 5.49093e-21)
(9.34819 2.30228 1.24011e-20)
(10.4322 1.45883 0)
(8.73844 -0.0446065 0)
(9.93189 -0.0696262 1.79517e-21)
(11.5581 2.65471 -1.75887e-21)
(6.29992 2.47071 -6.03944e-21)
(3.15781 1.14448 0)
(9.99332 0.386228 0)
(-0.20565 -4.11325 0)
(7.99846 0.0263367 3.95497e-22)
(11.8391 -1.39344 0)
(13.1292 1.45087 -7.58705e-21)
(6.94524 -0.0188034 -7.131e-21)
(8.20252 0.641382 0)
(9.90163 -0.611375 0)
(9.49669 -4.16515 0)
(8.56347 -5.36509 1.27635e-20)
(8.32059 -3.36909 2.39738e-20)
(7.48695 -5.34304 1.31752e-20)
(9.25662 0.172126 -7.28513e-21)
(8.34627 -3.304 -3.6038e-20)
(12.4803 3.75474 -3.95116e-21)
(5.27747 -2.679 1.12274e-20)
(8.82763 -0.678161 0)
(8.64027 1.75118 8.72833e-21)
(8.26064 1.46561 1.99821e-20)
(4.26116 -1.94296 -2.7285e-20)
(6.5317 2.18042 1.58677e-20)
(-0.866241 0.129442 -5.12034e-22)
(-2.3017 0.973618 9.17253e-22)
(8.20358 0.561359 1.07888e-20)
(8.00907 0.100585 -2.77727e-20)
(10.4731 -0.257314 4.35211e-22)
(13.2498 4.73753 4.08401e-21)
(-7.57317 -0.61033 0)
(8.1018 2.34428 -1.59861e-20)
(10.7082 1.09474 -6.81975e-21)
(8.04909 -0.167973 -2.7241e-20)
(10.1946 1.40218 0)
(9.18999 -1.48686 2.48061e-20)
(15.6237 0.830652 -1.74278e-22)
(10.6148 0.283957 -1.53515e-22)
(-3.34465 2.13786 0)
(7.13347 0.0737747 1.01089e-20)
(9.91415 -0.101546 5.41997e-21)
(8.06285 -0.394694 -2.72589e-21)
(10.2076 -0.577245 3.10168e-21)
(11.6719 -3.84992 0)
(7.25729 -3.49047 -1.34224e-20)
(4.69024 -1.39581 0)
(9.63915 -0.102449 0)
(9.01945 -0.741085 0)
(5.77064 0.862664 -1.56896e-20)
(9.49735 -0.664375 0)
(-2.65668 6.87689 -1.36543e-21)
(1.72799 -4.6029 1.32729e-20)
(9.2862 0.104549 -3.74507e-21)
(6.85472 -3.34552 -5.15953e-21)
(8.59872 1.6282 6.55673e-21)
(-5.16938 -8.53552 1.66968e-20)
(8.32617 0.225003 -4.62627e-22)
(7.57533 -3.61977 -1.3328e-20)
(10.8179 -4.31624 1.76088e-21)
(7.52527 -5.60387 -1.5746e-20)
(9.20707 -0.665735 1.223e-20)
(3.02497 3.80367 -4.50658e-20)
(8.23151 -0.705086 1.98628e-20)
(9.56691 -0.892667 0)
(7.5336 -0.11243 0)
(10.3942 -0.226144 -1.00092e-20)
(13.0085 -1.67824 7.97174e-21)
(7.48063 -1.08679 2.24459e-20)
(8.00565 -0.11518 -4.60647e-24)
(8.93179 0.515319 6.21147e-21)
(9.87534 -2.59517 -3.23298e-21)
(10.7191 -0.529947 0)
(6.91312 1.61572 4.13068e-20)
(7.60051 -2.1889 0)
(9.79387 2.23469 0)
(0.931416 -0.458473 1.10892e-21)
(9.9768 0.461659 0)
(9.42368 -2.77877 9.89664e-21)
(10.2884 0.221046 0)
(8.52326 2.53769 -3.12058e-21)
(6.74078 -3.16626 8.06648e-21)
(9.06725 0.969151 6.32887e-22)
(-9.60351 -6.73559 4.95749e-21)
(9.7889 -1.26227 1.56839e-22)
(8.16931 2.84727 1.79177e-22)
(9.19881 -1.44588 -7.98283e-21)
(11.1287 -2.49887 1.49961e-20)
(10.7297 0.755951 -7.08105e-21)
(5.90945 -2.86433 8.74084e-21)
(-4.21952 -4.76346 0)
(6.28709 -3.05253 9.58662e-22)
(10.0451 -0.606451 -7.02818e-21)
(9.93775 -0.0869992 -3.45636e-21)
(6.42056 -3.06377 2.63023e-20)
(10.1973 0.318373 0)
(11.4637 0.754335 0)
(7.96692 0.098476 4.28984e-20)
(13.4159 0.225109 0)
(6.10295 -3.01866 8.79271e-21)
(9.81579 -1.75764 1.10816e-20)
(7.74089 -0.540302 0)
(9.77463 0.222436 -2.54031e-21)
(11.6861 -0.67815 1.46018e-21)
(0.037634 -0.528491 -3.37426e-21)
(7.74777 0.744516 0)
(-7.25496 2.76039 -5.05544e-22)
(5.78312 -1.5386 3.27452e-21)
(7.39911 -3.60697 1.24725e-20)
(9.64518 -1.12622 0)
(9.21225 -0.925739 -7.1455e-21)
(-6.04645 0.437073 4.15598e-21)
(11.6481 1.23264 2.63363e-21)
(10.0327 -3.05083 4.08535e-21)
(9.41418 -5.15447 -1.33672e-20)
(11.524 0.609169 -2.37543e-22)
(7.46969 -0.129652 0)
(10.434 -1.78915 -5.82898e-23)
(11.7803 -0.733565 -5.72512e-21)
(-7.20553 0.525463 -5.18903e-21)
(10.6199 -3.34575 -6.73318e-21)
(-3.34354 2.4163 0)
(9.51071 -1.1311 1.10026e-20)
(-4.69397 -8.38264 -9.38279e-21)
(8.68971 -0.132592 -1.19322e-20)
(7.11428 7.09798 0)
(6.41596 1.10857 1.32922e-20)
(7.98189 -0.0862382 -7.58826e-21)
(10.5899 -0.64013 0)
(8.70215 1.4707 9.35506e-21)
(6.93456 -3.27786 1.0799e-20)
(11.6526 -0.875549 -8.20953e-22)
(9.09957 -0.586211 0)
(-6.2656 -2.77151 0)
(9.77035 -0.879879 1.16079e-20)
(6.51443 2.21648 1.19371e-20)
(-8.73856 -1.14339 3.58429e-21)
(9.4959 -0.883486 -9.33543e-21)
(7.96935 -0.184111 1.61804e-20)
(11.9546 1.0522 -7.88789e-21)
(-4.26091 6.21601 1.01943e-20)
(1.08363 -0.650376 2.25493e-24)
(10.4895 0.917303 -7.93796e-21)
(9.0478 -0.430594 -4.64825e-21)
(8.99911 2.58386 5.52769e-21)
(8.57366 -0.140363 0)
(-3.2666 -4.13704 0)
(8.17598 -3.86827 -1.04712e-20)
(7.80438 -3.65782 1.00297e-20)
(7.9998 0.0114271 -2.89286e-21)
(9.82831 -0.486893 -7.73062e-21)
(10.1246 -0.604986 0)
(9.57481 -0.0367377 9.12347e-21)
(8.5282 1.27136 -8.87583e-21)
(7.98455 -0.254021 -1.46566e-20)
(12.4315 -2.21208 -4.403e-22)
(12.4663 4.13473 4.97869e-21)
(2.62322 5.14861 4.10906e-21)
(7.11534 2.25654 -1.01726e-20)
(11.6644 0.944434 3.44213e-21)
(5.06544 -1.04084 -5.32025e-21)
(9.19636 -4.52762 0)
(3.59603 -2.08706 0)
(8.95375 0.136155 4.84006e-21)
(7.97131 2.27442 -1.06507e-20)
(5.43388 -1.39353 0)
(7.04386 4.65524 8.28696e-21)
(1.33687 -1.98145 0)
(7.85418 2.20898 9.10873e-21)
(12.8543 0.670938 3.32041e-21)
(4.35167 5.89806 0)
(7.50975 0.409412 -9.90535e-21)
(9.41039 -4.53041 1.52484e-20)
(7.64342 -0.05345 -9.96956e-22)
(8.18812 -0.690237 -2.21371e-20)
(9.53054 -1.19853 0)
(5.10684 -2.30709 -2.18931e-20)
(9.49206 -3.93398 -2.8983e-22)
(8.04947 -0.0700952 3.45602e-21)
(7.29113 -0.608079 -1.26413e-20)
(4.66486 -0.0957384 1.29678e-20)
(11.3264 2.19374 4.49097e-21)
(10.4851 -1.43617 -2.34838e-20)
(9.55354 -0.858137 0)
(7.65776 1.02968 -2.23441e-23)
(10.669 -1.41678 -4.14666e-21)
(7.99093 0.00211238 4.29986e-20)
(10.1297 -2.87816 0)
(11.1282 2.85947 -3.25054e-22)
(6.5757 -0.156664 0)
(13.0612 -1.59577 4.45508e-21)
(9.01262 -2.65848 -7.30675e-21)
(4.93274 -2.4231 1.05244e-20)
(11.7884 -1.63463 -4.25131e-21)
(7.93962 0.264737 0)
(9.48404 -2.07988 1.80452e-20)
(9.47372 -1.22224 -1.03308e-20)
(7.29439 -0.591533 1.19541e-20)
(10.7838 -1.41919 1.63368e-20)
(10.5901 0.305654 9.59594e-21)
(-5.40519 4.09024 -4.65909e-21)
(-0.56591 2.5737 3.1186e-21)
(10.0087 -0.563197 0)
(5.81123 -2.42173 2.50679e-20)
(9.81424 2.23377 0)
(8.9772 -3.99586 7.69677e-23)
(9.63082 -0.201877 1.68536e-20)
(8.11352 1.31913 -1.11403e-20)
(8.81159 1.49799 8.19112e-21)
(0.457938 0.15602 -6.4545e-22)
(8.0017 -0.222891 1.82488e-20)
(6.86571 0.483493 0)
(-1.31063 -0.796665 1.03224e-21)
(10.0106 -0.996916 -5.47553e-21)
(7.78288 2.44311 6.50531e-21)
(12.202 -1.62678 4.79178e-21)
(9.74173 0.270655 0)
(10.7682 2.80127 4.57197e-21)
(7.59988 -0.312995 2.77379e-20)
(7.97815 -0.0982255 2.30897e-20)
(10.5732 -0.793001 0)
(13.1745 0.422491 -1.20787e-21)
(9.98651 -0.502781 6.6008e-21)
(-0.634868 -0.404995 -3.45811e-22)
(7.38973 -1.18153 3.10598e-21)
(9.96102 -0.852642 5.2226e-21)
(9.40093 -0.116859 -9.55439e-22)
(9.987 -0.562335 0)
(8.1867 2.49999 -1.31475e-20)
(-7.29349 4.0766 1.54229e-21)
(8.63981 0.958441 -1.17096e-20)
(7.99512 0.0106348 1.56189e-20)
(6.47387 0.0146333 0)
(8.93126 -2.82912 2.13581e-20)
(4.15279 6.46157 0)
(9.87062 2.94201 2.64126e-21)
(8.774 -0.170317 0)
(10.1308 -3.29975 -2.58002e-22)
(6.6978 -1.61562 -6.26968e-21)
(6.56764 0.951573 3.0238e-20)
(-0.571131 -0.586223 2.54536e-21)
(9.47943 -0.997641 0)
(8.58099 0.132328 -1.59373e-20)
(7.96901 0.272214 -1.23352e-20)
(1.70886 -0.623941 6.69891e-22)
(-0.0190478 -8.07146 2.28096e-21)
(7.56311 -1.12736 -3.41124e-20)
(10.6067 -0.502063 -2.5097e-21)
(8.08429 0.328401 1.04551e-20)
(7.29366 -2.60986 0)
(6.48211 -0.447782 1.33964e-20)
(5.20994 -0.420693 1.47819e-20)
(0.334404 -1.695 -7.66652e-21)
(-7.501 3.17288 -4.93454e-21)
(1.59171 -0.352732 1.12227e-21)
(10.5532 0.907505 0)
(1.8842 -0.486944 0)
(7.16925 2.16966 0)
(9.2307 -0.439562 0)
(4.55459 -2.83109 -5.6372e-21)
(12.6126 -1.26757 0)
(6.85122 3.31526 0)
(7.4119 -0.630436 4.93948e-21)
(10.6965 1.0833 7.00723e-21)
(9.84674 -0.589903 -1.2845e-20)
(7.24743 -0.00748344 4.63747e-20)
(7.99963 0.059516 -6.26577e-21)
(7.23356 3.63753 0)
(10.6321 -0.256996 0)
(7.95985 -0.257183 1.56036e-20)
(8.09758 0.0334477 2.76902e-21)
(5.53004 0.786396 0)
(-3.60788 2.16873 3.54965e-21)
(10.5151 -3.43363 7.55288e-21)
(-1.388 -1.3224 0)
(10.1119 0.358613 1.05431e-20)
(8.06034 -0.116187 -1.82475e-20)
(13.162 0.697255 2.55121e-20)
(5.79273 -2.38878 0)
(7.96441 0.283864 2.17426e-20)
(9.25458 0.644717 0)
(10.1377 -0.513814 0)
(8.33109 0.401768 -2.15372e-21)
(7.9407 -0.177976 8.57121e-21)
(0.923518 -0.186092 -5.01266e-22)
(8.23014 1.3965 6.23222e-21)
(6.8806 -2.29946 -1.08881e-20)
(9.07405 -0.403932 1.70333e-21)
(8.12003 0.370068 8.49773e-21)
(8.75434 2.62654 3.55912e-20)
(10.9839 -3.28613 0)
(11.5941 -0.439424 -3.05004e-22)
(6.65219 -1.42193 0)
(9.04424 -3.72514 -1.02373e-20)
(10.4298 -0.300977 0)
(6.85619 -1.02025 1.72335e-20)
(-0.15214 -0.217012 2.09826e-21)
(10.7222 -0.420299 0)
(-0.571002 0.216502 -7.42146e-23)
(10.7903 -0.293711 4.78788e-21)
(9.36518 4.07487 3.30679e-21)
(8.26443 -1.70261 3.14435e-20)
(6.13958 0.814883 -1.8533e-20)
(6.84407 -2.28187 -3.09994e-20)
(10.1261 2.91219 0)
(4.5352 -0.950076 -1.45305e-20)
(-5.28228 4.41781 -1.28195e-20)
(7.94515 0.271585 0)
(7.61258 -0.0453612 1.09226e-21)
(9.55002 0.155003 1.55818e-21)
(8.65193 2.61784 0)
(7.99986 -0.0130899 0)
(-4.5257 2.10753 0)
(-5.80291 -1.51592 1.95665e-20)
(8.88449 1.22733 9.34208e-21)
(10.7472 3.12054 -6.45991e-23)
(7.85133 2.08131 0)
(7.91094 -1.45664 2.16507e-20)
(14.1952 5.64679 -9.11465e-21)
(8.25332 1.28955 -1.53104e-20)
(0.151332 -4.25649 -3.62685e-21)
(7.77129 -0.0327152 0)
(0.0453616 2.50323 0)
(4.97677 -1.84151 -1.68516e-20)
(7.20847 -2.5983 -7.69835e-21)
(8.81279 -1.10336 0)
(8.76527 -4.06905 -9.25095e-21)
(12.4031 0.0663032 6.41648e-21)
(-1.07145 2.15646 2.59551e-21)
(5.30936 -2.57126 0)
(9.35507 -0.580061 -8.89951e-21)
(5.87176 -0.248202 -1.43938e-20)
(9.33809 0.641106 -1.06964e-20)
(8.96012 -2.76817 0)
(0.865607 -0.699339 2.97531e-23)
(8.33639 1.31433 9.6934e-21)
(7.97615 0.150783 4.2355e-21)
(7.03462 0.845365 -1.14748e-20)
(8.80299 1.76158 0)
(7.25322 -0.0249153 -1.23836e-20)
(9.99354 1.90975 4.21985e-21)
(1.19579 -0.308674 -2.15514e-22)
(7.99034 0.0605047 0)
(0.780077 -8.08643 -2.34024e-21)
(4.24865 -1.76054 0)
(7.964 0.089596 -1.73054e-20)
(7.96847 0.0195002 6.26596e-21)
(7.98831 -0.439723 -3.01046e-21)
(-6.59558 -0.858708 0)
(8.13837 -0.306332 -6.3356e-21)
(5.59105 -0.298974 3.55687e-20)
(10.8572 -3.29825 0)
(7.36632 -0.707674 1.49436e-20)
(12.4242 -2.58303 5.13004e-22)
(8.60218 0.0200526 0)
(-4.82143 -7.46743 4.51142e-21)
(9.38488 -0.338335 1.76944e-20)
(9.47765 -0.09917 0)
(0.980564 -0.628087 -8.83962e-22)
(7.60207 -0.0790301 0)
(8.50033 -3.86658 9.73131e-21)
(-8.34956 2.48756 3.63999e-21)
(7.2766 -0.0269421 2.73686e-21)
(8.97705 0.418148 1.05842e-20)
(6.483 -0.496471 6.97377e-21)
(8.28107 -1.80564 -1.15506e-20)
(9.35623 -0.770479 6.18114e-21)
(8.61913 -3.81726 1.06054e-22)
(9.91046 -0.881841 5.06846e-21)
(8.74568 1.74088 -1.62191e-20)
(10.285 -4.55367 0)
(8.00065 0.00715931 -1.3855e-20)
(-1.19257 -0.645798 -4.20772e-22)
(6.74312 -1.43991 0)
(2.28811 -0.421608 4.17462e-21)
(6.63337 0.301622 0)
(6.5359 -2.37764 2.68672e-20)
(9.92528 -3.59117 0)
(11.3968 0.29462 1.4214e-20)
(9.90299 -0.204783 -9.68159e-21)
(-7.75485 -7.38504 1.0651e-20)
(-4.40104 1.87137 -1.47983e-21)
(9.80085 0.277943 -1.18188e-22)
(9.15622 -4.32708 8.21747e-21)
(8.54014 -2.66678 1.09162e-20)
(7.28815 -2.17317 0)
(-1.55914 1.23939 -1.20677e-21)
(11.1182 -3.10073 -1.57931e-21)
(-1.52836 1.48318 -1.43787e-21)
(0.309328 1.89888 -5.67399e-22)
(7.31784 -2.98325 0)
(8.81343 -0.00808309 -1.5575e-22)
(-3.51887 2.39027 0)
(-5.04326 -1.721 1.80933e-21)
(13.2977 1.54709 -3.18742e-20)
(8.67777 -5.50024 0)
(9.7755 -2.52976 3.13234e-21)
(0.703828 -4.00902 0)
(8.68154 2.53976 0)
(8.19653 -3.88274 -1.27756e-20)
(6.68732 -0.260302 1.12789e-20)
(3.37365 0.854974 0)
(7.57326 -0.234855 -7.76083e-21)
(10.2432 3.16043 1.95133e-21)
(-7.15546 4.60874 1.01086e-20)
(8.54964 3.33647 0)
(8.5665 -0.037883 0)
(-5.07625 4.59224 -5.65412e-21)
(8.36545 -0.956231 0)
(7.91587 -0.222049 0)
(-3.45352 6.68304 -7.33764e-22)
(9.61208 -1.85755 -1.5581e-20)
(8.33757 -2.31881 9.41972e-21)
(11.817 0.448415 1.87013e-23)
(-1.87527 1.61792 2.9701e-21)
(7.97493 0.0129 7.08497e-21)
(7.44218 -2.23552 0)
(8.05316 0.9228 -5.05528e-21)
(6.98541 -1.7969 0)
(7.1984 -0.0515359 0)
(7.9947 0.176005 0)
(8.34553 0.382277 -1.77262e-21)
(8.16937 -0.719852 1.01368e-20)
(11.777 -0.11561 -2.85495e-21)
(7.59854 -2.25656 0)
(0.557622 -0.0954272 -4.37713e-22)
(7.14987 2.05622 1.14472e-20)
(8.93403 -3.26114 1.0175e-21)
(9.56021 -0.625948 8.58e-21)
(11.5167 -0.777461 -1.0558e-21)
(8.14254 0.0364678 -1.05267e-20)
(-0.220322 -0.265242 0)
(8.59627 1.29554 0)
(6.03682 0.916674 0)
(6.54105 -3.00323 -1.94912e-20)
(-9.94201 -8.57663 -1.71596e-20)
(9.01423 -2.14662 0)
(8.09448 0.926209 0)
(8.96752 2.65907 1.00456e-20)
(8.42621 -0.0927542 -2.72112e-21)
(7.35416 0.942968 1.83708e-20)
(11.1642 -4.3678 0)
(-2.25354 3.68848 -4.22747e-22)
(8.68469 0.152445 9.83749e-21)
(7.08779 -2.50139 -1.82609e-20)
(8.34584 0.179456 -1.21008e-20)
(8.20192 1.29531 1.87253e-20)
(11.2501 -1.36548 1.28647e-20)
(6.44448 -2.95677 3.36125e-20)
(7.48526 -2.34321 -5.32329e-21)
(15.781 0.416004 2.42227e-22)
(7.99819 -0.0104793 -3.28409e-21)
(8.0038 -3.87852 -2.67462e-21)
(9.13617 -0.0576606 -8.19696e-21)
(5.46814 3.48979 -1.2353e-20)
(8.53033 -3.99957 4.93043e-21)
(7.21786 0.803426 0)
(7.6396 3.51496 -2.43175e-21)
(8.65934 -0.0321418 -2.21684e-20)
(9.33747 2.09008 -3.71712e-21)
(6.9793 -2.39033 -1.66544e-20)
(8.86028 -3.1647 -1.0973e-20)
(9.0405 0.00545955 2.67587e-20)
(11.4951 -0.155893 -1.53777e-20)
(7.51256 3.6946 -1.07693e-20)
(10.4073 0.998944 4.16648e-21)
(6.21495 -1.8501 -3.65444e-20)
(8.57418 -0.0307922 -1.99565e-20)
(6.19876 -2.04268 0)
(-8.86216 -6.09466 -1.93881e-20)
(9.07136 -0.0186197 2.54804e-20)
(9.43013 0.687527 -2.83692e-21)
(-1.25286 -0.76239 0)
(9.23616 -4.16281 0)
(7.77825 0.700538 1.78493e-20)
(5.78332 -1.86623 2.247e-20)
(1.19992 -4.68836 -2.51722e-20)
(10.1991 -3.24925 -5.11049e-21)
(10.5892 -1.44971 1.28248e-20)
(9.90756 2.20027 0)
(7.75042 0.755434 1.03521e-20)
(4.86336 6.99656 -4.42974e-22)
(8.23001 2.30117 -1.46318e-20)
(9.07888 -1.41367 -1.41255e-20)
(-2.1506 1.83338 -5.01052e-21)
(11.3889 -1.00509 1.85029e-21)
(11.7425 -0.48094 6.90421e-22)
(7.56587 2.48595 0)
(9.89778 -1.1166 4.47251e-21)
(7.9917 -0.4218 2.68229e-21)
(13.7081 3.08428 6.62462e-21)
(5.32664 -2.67598 3.1043e-20)
(8.97793 -1.46162 2.12864e-20)
(7.94524 -5.90102 -7.00224e-21)
(-7.38193 3.89807 -4.34105e-21)
(9.84691 -0.259031 4.75807e-21)
(8.70023 0.0566264 1.79309e-20)
(-3.40189 6.23972 -1.15346e-21)
(8.05542 2.16855 2.76027e-20)
(0.888361 -0.691511 9.60472e-22)
(6.54522 -3.15229 -1.03966e-20)
(15.6445 1.70213 0)
(15.4372 -5.59187 8.36262e-21)
(-5.4864 6.69644 -9.36572e-21)
(6.67117 -1.69075 3.35e-20)
(9.78321 0.477857 0)
(11.9397 4.49717 -3.80508e-21)
(6.33603 -2.76344 7.61484e-21)
(7.9769 0.0235088 -3.05215e-20)
(-5.07855 3.30586 -3.83041e-21)
(4.22829 1.1216 6.38292e-21)
(9.92457 -0.612005 8.79796e-21)
(8.5204 0.173152 2.42549e-20)
(8.58211 -3.90563 -1.33923e-20)
(13.6187 0.0448108 3.01997e-21)
(-7.84271 -7.94707 -3.685e-20)
(8.44876 -0.0296159 2.08087e-20)
(9.00009 -0.364726 -7.40089e-21)
(8.25847 0.228178 -8.43563e-23)
(10.4115 -0.0241984 -1.61209e-20)
(6.1855 -2.81825 -1.46737e-20)
(15.2365 0.82623 0)
(-8.1137 -3.17621 1.22099e-20)
(8.58842 0.0407832 2.03354e-21)
(13.456 0.316522 2.70393e-20)
(9.44192 0.109856 9.84058e-21)
(10.305 -1.66349 -8.06015e-21)
(7.97815 0.0545278 -2.69502e-20)
(8.04843 0.568572 6.26016e-21)
(-3.61353 2.35402 -3.64857e-21)
(8.46283 -0.3138 0)
(10.0967 -3.22885 -1.1179e-20)
(7.7988 1.3457 1.14182e-20)
(7.34616 -2.93686 0)
(8.24392 0.167949 1.46702e-20)
(7.38099 1.00171 1.55591e-20)
(7.9324 -0.385522 1.9867e-24)
(12.3692 -4.36426 1.38976e-21)
(9.19814 -0.63862 0)
(7.32529 0.221539 2.43285e-20)
(9.59636 -6.00461 6.90526e-21)
(8.33349 -3.88086 1.08954e-20)
(9.05244 -0.988788 0)
(6.71207 -0.312405 -3.25069e-20)
(7.08787 7.43333 1.16657e-20)
(7.86232 3.32686 1.54426e-20)
(6.27576 -1.89142 3.56614e-20)
(10.014 -0.151641 4.30815e-21)
(-4.57817 2.22154 -1.91648e-22)
(8.53841 -0.813259 -1.56338e-20)
(11.4067 -0.176696 1.09985e-21)
(7.60197 -0.296738 -1.58826e-20)
(9.59086 -0.0698004 0)
(8.00004 -0.0200486 -1.23326e-20)
(-2.1796 -0.553769 2.64175e-20)
(-1.48163 -0.136919 0)
(12.6768 -1.40088 0)
(14.087 3.26616 0)
(0.886884 -0.336269 0)
(7.94862 0.502805 0)
(6.02805 -1.83784 0)
(10.3608 -2.32518 -4.63187e-22)
(11.72 2.54588 -2.25415e-21)
(9.11421 1.0461 0)
(7.2798 0.105394 3.57991e-20)
(5.48393 7.11105 1.46322e-20)
(8.07634 0.365222 1.17829e-22)
(-4.81916 6.87647 -3.42395e-21)
(5.93125 -1.21106 5.05504e-23)
(-4.00658 2.66854 2.97105e-21)
(8.25749 0.115238 -7.50942e-21)
(9.8869 0.26248 -9.11972e-22)
(7.9164 0.45336 -1.22219e-20)
(7.67671 -0.0846342 -2.30983e-20)
(7.08666 1.73732 -1.92373e-20)
(10.0015 3.0178 0)
(1.22338 -6.85845 1.95553e-21)
(6.59592 -2.42876 -2.94189e-20)
(8.02806 0.0238077 -3.67302e-20)
(11.1762 -3.01421 -7.85731e-21)
(9.90672 -0.0881035 2.5972e-21)
(13.1219 -3.02731 -2.77953e-21)
(9.84598 -1.36194 -1.81835e-21)
(9.82944 -2.49267 -1.09247e-20)
(7.97627 0.253016 1.27855e-20)
(8.84107 5.59326 0)
(9.31638 -0.70237 6.11467e-21)
(7.48544 -0.690508 -4.71656e-21)
(13.1021 -0.871243 0)
(9.40463 -0.949005 0)
(8.96815 -4.03598 -8.9419e-23)
(-4.84394 1.62526 -3.9775e-22)
(10.3477 -2.73527 1.21899e-20)
(7.70814 -0.81162 0)
(8.30639 -0.70564 -2.084e-20)
(7.53707 -0.0994592 -4.34923e-21)
(-8.55315 -4.37158 5.50709e-21)
(7.20834 0.274524 9.60591e-21)
(-4.29869 2.71472 0)
(-0.0601635 -7.26107 1.63216e-21)
(7.97814 0.807207 0)
(9.7238 -1.18866 -5.66649e-21)
(10.6052 2.69326 -3.50953e-21)
(8.0105 0.0072199 -1.47845e-25)
(8.26599 1.47658 -3.53543e-20)
(8.54143 2.9217 -4.73765e-22)
(8.32389 -2.61643 2.26326e-20)
(-0.681743 -7.0029 0)
(-0.715431 -5.05502 -1.14118e-20)
(-2.65217 1.98088 0)
(9.24811 1.08419 3.66747e-21)
(-8.07919 -4.09311 6.97488e-21)
(13.8438 -1.42325 7.23291e-21)
(10.1416 -2.86642 1.10803e-20)
(-5.34071 2.33353 -2.75426e-20)
(7.57328 -3.51968 -1.25838e-20)
(6.74029 -2.42525 -1.7173e-20)
(4.28161 -0.628449 -5.09847e-21)
(-0.442527 -3.99031 9.37478e-21)
(6.20912 -2.84116 1.20285e-20)
(6.92412 -2.49964 1.86824e-20)
(-8.60658 -7.07502 2.42952e-20)
(4.61972 -3.65584 -5.93387e-21)
(8.79154 -2.86328 1.10781e-20)
(-0.695261 -0.545677 -2.07119e-21)
(11.177 0.0261247 2.30268e-21)
(5.6342 7.82084 -1.3413e-20)
(8.44579 0.982792 -8.78775e-21)
(10.8736 -2.37366 0)
(0.95906 -0.365926 1.93014e-21)
(8.33495 -0.0272069 -2.33924e-20)
(7.95748 0.130878 0)
(9.19258 0.998526 0)
(-9.03994 -2.85291 -1.32773e-20)
(11.6972 0.243229 -2.84151e-21)
(8.83669 0.595695 -2.34987e-20)
(9.59559 -1.81762 2.04562e-20)
(7.14383 1.72842 1.65451e-20)
(7.72361 -0.0212762 1.79437e-20)
(-8.52458 -3.0714 -1.88559e-21)
(7.12836 0.805103 0)
(7.05632 -2.58441 1.78134e-20)
(-0.837016 3.91326 -4.24308e-23)
(-5.94113 1.64746 2.10717e-20)
(8.29466 -3.24938 3.71115e-21)
(9.58253 -4.50207 -2.07436e-21)
(8.61961 -0.00699276 9.27362e-21)
(9.34283 -1.47467 -5.94393e-21)
(10.4268 -0.816479 -8.0973e-21)
(-8.17081 -3.13898 -4.94578e-21)
(8.79892 0.565722 1.77242e-20)
(8.01253 -0.238688 9.08178e-21)
(6.15406 -2.02403 -1.46304e-20)
(8.35954 -0.863388 1.26801e-20)
(7.26155 3.96105 0)
(8.6821 0.94404 2.02785e-20)
(8.04208 -0.133218 2.05323e-21)
(7.23535 -2.06991 -5.82581e-21)
(6.03902 3.26111 -1.19769e-20)
(8.67245 -2.83512 8.24724e-21)
(8.14861 -0.0462797 3.86652e-21)
(6.54219 -0.856712 -2.31683e-20)
(12.9518 -0.953601 0)
(9.44902 -3.2537 2.11324e-20)
(8.34958 0.204115 1.63634e-20)
(9.99428 -0.689137 0)
(6.74924 -1.1188 1.30173e-20)
(7.53274 0.232586 0)
(5.56758 3.19219 4.03111e-20)
(10.9899 -0.0705621 0)
(9.44539 -0.845698 0)
(9.08311 0.664881 5.14288e-21)
(8.83414 0.436293 1.33504e-20)
(10.0816 1.2725 8.046e-21)
(7.81187 -0.0372607 -1.0895e-20)
(6.09578 1.64663 -9.96623e-21)
(7.98914 0.0861231 -5.33739e-21)
(7.99321 0.534543 0)
(1.00728 2.84935 7.29758e-22)
(9.09094 0.441945 -1.2163e-20)
(9.77836 -1.13485 1.23896e-20)
(10.8926 -2.38974 0)
(9.40855 2.05599 -4.6146e-21)
(6.92332 3.44587 -2.22295e-21)
(11.4837 0.0157618 9.48103e-21)
(2.1763 0.998621 0)
(-2.35642 7.00352 9.99863e-21)
(8.04107 0.277184 0)
(10.4984 -0.610559 4.24686e-21)
(0.106946 -0.382977 0)
(6.19247 2.15678 0)
(5.63534 -2.9783 0)
(9.72127 -3.58009 0)
(-1.87173 5.31145 -3.72544e-22)
(-7.11688 -1.739 -4.18552e-21)
(8.1665 -0.714384 -1.51809e-20)
(-7.02333 -7.1465 -9.50813e-21)
(6.56461 -2.91833 0)
(-8.90834 -5.94438 -1.08914e-20)
(-0.291997 -0.470004 3.34673e-21)
(7.78602 -3.64005 0)
(7.33149 -2.80438 -1.9137e-20)
(4.81453 -4.68305 2.27063e-21)
(8.41865 0.922909 2.33289e-20)
(11.8133 -3.88235 9.47972e-22)
(7.68484 -0.14665 0)
(10.5776 -3.21552 0)
(10.6494 2.17404 -1.60944e-21)
(9.31777 -0.0156111 -2.05789e-21)
(6.09849 -1.08499 1.08802e-20)
(-10.1439 -4.21767 5.38287e-21)
(8.00592 0.0149082 9.14759e-22)
(16.0127 -4.92904 -2.37511e-21)
(7.98517 0.255904 1.82734e-20)
(8.56082 -3.1073 -1.06429e-20)
(8.97958 -2.60908 0)
(0.304082 0.499244 0)
(12.7363 0.106945 0)
(7.29172 0.62939 0)
(8.15411 -1.94876 8.39887e-21)
(10.3448 0.425668 0)
(-2.79712 7.48142 1.25932e-20)
(7.04572 -2.77282 -2.26146e-22)
(6.83844 -2.54213 -2.80462e-20)
(6.3105 7.43237 -5.55649e-21)
(-8.94957 -3.95635 -6.2245e-21)
(-1.37374 7.33881 -4.53895e-21)
(8.98555 0.0391197 3.05243e-21)
(-8.08878 -1.0134 -6.6499e-21)
(8.32444 -3.5729 -1.58385e-20)
(9.27455 0.517242 0)
(11.297 -1.02648 0)
(5.85653 3.2467 0)
(10.279 -1.78972 4.22569e-21)
(3.3443 -3.72562 0)
(7.11668 0.831067 0)
(8.00072 0.01935 0)
(8.39435 -2.30595 8.8985e-21)
(8.07764 0.322084 -2.08797e-20)
(6.89612 0.00953508 0)
(10.6796 -2.02635 9.26693e-21)
(7.88218 0.221368 -1.50829e-20)
(8.27236 2.18846 3.06241e-20)
(7.87866 -3.61469 1.15839e-20)
(7.25751 1.0389 1.06775e-22)
(8.21818 -0.179149 1.54878e-21)
(9.74442 -0.992877 -1.14084e-20)
(9.48695 -1.11917 1.21479e-20)
(8.75345 0.464266 -1.81664e-20)
(6.10973 -0.57856 2.50255e-20)
(7.77987 -0.426597 -1.5178e-20)
(8.38209 -0.0197638 0)
(14.1696 1.50397 -2.00239e-20)
(7.98623 -0.109129 1.69153e-20)
(3.51034 7.00623 2.52948e-20)
(9.78292 -1.29679 -5.3678e-21)
(5.86984 -1.92844 -2.44427e-20)
(8.76536 0.386379 3.09684e-21)
(9.94256 1.83926 -6.10459e-21)
(7.98804 0.114747 0)
(7.06896 3.11025 -6.34568e-21)
(8.78967 -1.2045 6.02338e-21)
(9.11515 -0.902229 -2.03232e-20)
(-0.142933 -5.22964 4.13804e-21)
(8.33111 -0.107878 8.29434e-21)
(15.4747 0.151803 -6.04479e-22)
(10.0472 -0.075549 -3.25383e-21)
(12.0865 0.0891508 0)
(8.96945 7.3293 0)
(7.40348 -3.51263 1.43673e-20)
(-4.99153 2.84305 4.13743e-21)
(13.0824 1.46475 1.17252e-21)
(8.00053 -0.120653 3.34554e-20)
(6.4703 3.39035 1.90649e-20)
(6.68795 -0.423624 0)
(7.68972 -0.462586 0)
(7.70649 -2.14561 -1.49997e-22)
(8.69025 0.398381 8.0972e-21)
(7.362 0.993156 2.68908e-20)
(10.3591 1.21865 0)
(8.53232 -0.209852 0)
(10.0006 -2.74915 1.47929e-20)
(8.92154 -0.948521 1.18323e-20)
(7.16964 -6.66788 -3.4747e-21)
(9.05993 -0.413751 0)
(3.41139 1.68885 -1.58847e-21)
(11.0788 -1.57614 7.82405e-22)
(-5.62207 6.15345 -9.27854e-21)
(8.51073 -0.356246 -1.72276e-20)
(13.1057 1.96951 0)
(12.2987 0.479114 2.30224e-21)
(3.71582 0.655928 -3.1828e-20)
(3.22206 -2.93006 0)
(5.98458 0.156118 3.45327e-20)
(7.85988 -0.169236 -1.10424e-20)
(6.21637 -0.0571761 4.72165e-23)
(11.3805 2.59189 5.24963e-22)
(7.41403 7.12531 -2.10533e-21)
(8.77132 0.0456071 0)
(5.85946 -2.47874 -1.41316e-22)
(7.07513 3.35437 -1.7111e-20)
(5.51696 5.38165 -1.61555e-20)
(7.91638 0.470273 1.44728e-20)
(0.522342 -6.27332 5.2486e-20)
(8.17811 -0.0343357 -3.89999e-20)
(8.50764 -5.93571 3.34786e-21)
(10.4022 -1.49854 -1.21979e-20)
(8.25791 -2.1862 0)
(9.24836 -0.0140619 2.10552e-20)
(6.10849 -2.89499 9.68523e-21)
(9.71619 -0.216584 -1.85138e-20)
(8.03497 -0.111291 -1.51672e-20)
(10.3318 -0.678727 -4.5275e-21)
(7.73964 -1.42682 3.15121e-20)
(10.7139 0.0569441 -2.67122e-21)
(7.67505 -0.411633 8.83953e-21)
(3.06034 -1.12243 1.12885e-20)
(11.6753 0.597956 3.21196e-22)
(8.05351 2.35362 2.36267e-20)
(2.90139 -4.54811 1.96466e-20)
(8.83615 0.00514953 0)
(6.31964 2.96771 0)
(8.63375 -2.31136 0)
(6.80609 -2.43995 2.16107e-20)
(7.92544 0.025169 -2.41564e-20)
(7.48382 -0.119021 0)
(7.38003 -2.10201 -1.73055e-20)
(7.49656 -0.196849 0)
(8.16481 -1.79252 -1.39692e-20)
(9.66037 -1.22368 1.31782e-20)
(8.8688 -2.46568 -1.22477e-20)
(8.87481 0.0453883 0)
(8.04657 -0.265857 0)
(9.4003 -0.671017 -8.69515e-21)
(9.08654 0.900688 -6.29637e-22)
(10.0682 0.119508 -5.52741e-21)
(7.06029 3.72882 -6.46143e-22)
(10.8127 1.69341 0)
(8.3368 -3.17063 -6.16266e-21)
(-1.07301 0.27065 0)
(4.25444 0.746128 -1.46829e-20)
(8.63024 2.94677 0)
(14.4048 0.563376 1.66473e-21)
(6.24344 -1.77385 9.50269e-21)
(7.22355 -1.49023 9.94524e-21)
(8.24871 -0.455227 8.394e-21)
(7.38212 -3.11899 -4.83325e-20)
(8.83303 -1.12337 2.96365e-20)
(7.94484 0.510016 -1.1966e-22)
(12.6824 -2.59302 3.44221e-21)
(9.28631 -2.11742 -6.26697e-21)
(-0.514177 0.311348 -1.11638e-21)
(8.9878 1.33542 0)
(8.03944 -0.0483563 -4.15319e-24)
(7.49712 -2.30001 0)
(9.95426 -1.67437 1.25967e-20)
(8.416 -3.15293 -3.22483e-21)
(7.77063 -1.32575 -1.03023e-20)
(12.3761 0.903811 1.34119e-21)
(9.67283 0.239974 9.71802e-21)
(7.60243 -1.02261 2.18732e-20)