/*--------------------------------*- C++ -*----------------------------------*\
| =========                 |                                                 |
| \\      /  F ield         | OpenFOAM: The Open Source CFD Toolbox           |
|  \\    /   O peration     | Version:  2306                                  |
|   \\  /    A nd           | Website:  www.openfoam.com                      |
|    \\/     M anipulation  |                                                 |
\*---------------------------------------------------------------------------*/
FoamFile
{
    version     2.0;
    format      ascii;
    arch        "LSB;label=32;scalar=64";
    class       surfaceScalarField;
    location    "0.1";
    object      phi;
}
// * * * * * * * * * * * * * * * * * * * * * * * * * * * * * * * * * * * * * //

dimensions      [0 3 -1 0 0 0 0];

oriented        oriented;

internalField   nonuniform List<scalar> 
20045
(
1.13465
-1.2886
0.153941
-2.29389
0.941989
1.3519
0.603673
3.27873
-3.8824
0.448541
-0.571807
0.123266
-2.03775
1.68916
0.348582
-0.839543
3.91683
-3.07729
-1.93136
0.29714
1.63422
0.0971044
1.02553
-1.12263
1.06527
0.895139
-1.96041
-1.34201
-0.554691
1.8967
-0.459372
1.27119
-0.811823
3.74433
-1.91568
-1.82865
0.865067
-0.873882
0.00881574
-2.43636
1.70007
0.736294
-0.235532
1.8916
-1.65607
-2.11212
0.770104
-0.0491006
-0.697294
0.746395
2.24485
-0.879773
-1.36508
-3.14079
4.35675
-1.21596
-1.55561
0.00141252
1.5542
0.489614
-0.423153
-0.0664607
0.303743
0.561323
-0.493967
-1.79992
1.35678
0.831832
-2.18861
1.88176
0.0758351
-1.95759
-0.961484
2.31826
0.834142
-0.874334
0.0401921
-1.85476
3.67416
-1.81939
3.50092
0.367168
-3.86809
-3.79631
2.46189
1.33442
0.527541
-0.801301
0.27376
2.49175
-2.14689
-0.34486
-1.06518
2.06506
-0.99988
4.16609
-2.5429
-1.62318
-1.32839
1.4255
4.42553
-2.2246
-2.20093
2.83951
0.574495
-3.414
-0.145415
0.908933
-0.763518
-4.38861
1.75339
2.63522
1.26304
1.12868
-2.39172
-0.1436
1.30133
-1.15773
0.45947
-0.621866
0.162395
4.28484
-4.34866
0.0638234
2.82689
-0.787706
-2.03919
1.11289
1.71401
1.84123
1.9031
1.18424
-0.807723
-0.376513
2.4593
1.30245
-3.76175
3.79204
-0.952535
0.28401
2.99733
-3.28134
2.62923
-4.70037
2.07114
3.90901
-2.88731
-1.0217
-1.69825
-1.6808
3.37905
-0.229335
-0.683063
0.912398
1.27565
0.377422
-1.65307
-1.50179
-0.53596
0.268247
2.71159
-2.97983
3.43716
0.272017
-3.70917
1.45677
-2.52195
4.32077
-3.08796
-1.23281
-0.309686
1.10801
-0.798322
1.5075
2.81327
1.29199
-2.31638
1.02439
0.287161
0.202452
0.612257
1.11402
-1.72628
3.22327
0.690159
-3.91343
-0.185765
0.533566
-0.347801
-1.42208
0.154237
1.26784
1.85199
-0.786712
3.93661
-4.02332
0.0867163
-0.466367
0.280602
-1.15857
2.43422
-0.522002
-2.14508
2.66708
-1.39069
1.36856
0.0221233
3.5036
-0.42603
-3.07757
2.71768
-2.44943
-0.281736
3.78534
1.2732
-1.50873
-1.25838
1.17583
0.0825444
1.58024
-2.88278
1.30254
1.98075
2.48417
-4.46492
1.84584
-1.61103
-0.234812
1.95588
-0.663884
-4.01058
0.646684
3.3639
-0.00152092
1.13617
-0.889055
1.29757
-0.408519
2.1823
-3.31375
1.13145
-3.26604
0.228636
3.03741
1.97452
0.524533
-2.49905
-1.93693
1.48001
0.456925
-2.75861
0.127381
2.63123
1.75116
-0.429529
-1.32163
0.913706
-1.32444
0.410732
-0.488176
-1.57616
2.06434
1.3393
-1.44983
0.110523
2.97396
0.850922
-3.82488
0.730488
0.103654
0.105839
-0.547161
0.441323
2.54512
-1.28208
0.093255
-0.755299
0.662044
3.10833
1.3172
-1.18001
-1.25635
-0.527776
0.633614
-0.632393
4.06955
0.19578
-1.08484
0.872637
-0.779382
0.80414
2.45417
-3.25831
2.59118
-4.01752
1.42634
-0.0741388
-1.14931
0.964167
0.185139
-0.740025
0.914108
-0.174082
2.16197
-2.04033
-0.121635
-1.13451
0.905171
2.67016
-4.25158
1.58142
-0.506012
0.800716
-0.294704
0.128585
-0.870507
0.741922
2.2355
-0.35374
3.17136
0.994732
-2.38389
1.86189
2.74388
-4.09908
1.3552
0.679197
1.56565
0.790195
-1.09988
-1.75701
1.40368
0.353331
-1.79743
0.248625
-1.34428
1.09565
2.71111
1.1979
2.22925
-3.01128
0.782033
3.09836
0.37355
-3.47191
-4.11101
3.1912
0.919801
-1.57157
-0.624691
2.19626
4.13956
-1.42845
-1.32487
0.517148
1.48608
-1.6311
0.145025
-0.116484
-0.13965
0.256134
2.41227
1.68377
-4.09603
2.57625
-2.22112
-0.35513
-0.649258
0.129481
0.519776
-0.803235
-0.346071
4.60095
-1.85707
-1.50293
1.53453
-0.0316013
1.86187
-3.25032
1.38845
1.00941
-2.70766
1.61612
1.15813
-2.77426
3.01795
-1.43771
3.83784
-0.376359
-3.46148
0.585812
-1.77599
1.19018
3.74538
-2.58143
-1.16395
-0.516073
0.756746
-0.240673
0.0686401
3.29744
-3.36608
4.20687
-0.705945
-3.23201
0.15611
3.0759
-2.14978
1.52652
0.623257
3.98355
-2.0028
0.472341
1.3735
-2.55832
2.9081
-0.349776
-2.49464
3.09831
0.03349
-1.09648
1.06299
-0.552786
-0.917903
1.47069
-0.088922
-0.860116
0.949038
3.32211
0.0635402
-3.38565
4.42454
-2.07909
-2.34545
-1.00343
0.914512
1.95743
-2.55836
0.600925
0.571725
-0.112254
-3.5197
-2.09454
2.35609
-0.26155
-2.36119
2.04528
0.315911
-0.0622941
-0.234669
0.296963
1.45692
2.28846
-0.0587658
-0.057718
1.44866
0.0374154
-2.69466
0.136342
-2.8251
3.59125
-0.766151
-2.77699
2.98711
-0.210121
-2.47195
-1.52721
3.99915
0.399235
-1.04635
0.647113
1.31133
-1.9034
0.592076
2.555
0.359416
-2.91441
2.42614e-05
-2.93955
2.93953
-1.58676
3.20288
0.799163
-2.32047
1.52131
-1.43424
4.10441
-2.92886
2.22005
0.708808
-0.56115
0.663117
-0.101967
1.49558
-3.88131
2.38573
-3.13894
1.28418
-2.44727
-1.51515
3.58117
-2.39168
-1.18949
-1.57444
1.43084
0.851327
-0.91924
0.0679126
-3.05254
-0.876819
3.92936
-2.93688
4.03855
-1.10167
4.03857
-2.81959
-1.21898
0.0154173
-0.848104
0.832687
-0.935219
-2.13128
3.0665
-1.03838
0.579005
-1.78555
0.213978
-2.25708
-0.85498
3.11206
0.611369
0.130197
-0.741566
0.0214482
-2.11598
0.862234
-0.334693
3.19816
-0.099803
-0.759933
0.614518
-0.95052
1.16013
-0.209611
-0.664585
3.98669
-3.29813
2.36292
2.00697
-0.82384
-1.18313
-2.93285
0.689477
2.24337
1.37151
2.66706
4.04457
-2.54899
2.58366
-4.09837
1.51472
1.41565
-2.53122
1.11558
0.262084
-1.81769
-1.9066
2.71074
2.41507
-3.25461
0.401664
-2.65472
2.25306
-4.08912
2.0215
2.06762
-0.482559
-1.45437
0.782319
0.643361
-1.42568
1.89077
-0.174279
-1.71649
-0.8044
-2.26657
2.33521
-1.11992
-0.383008
2.16746
3.26185
-2.80766
-0.454183
-0.0319046
-0.636795
0.668699
2.52042
0.125097
-2.64552
0.17525
0.834077
-1.00933
0.071319
2.28941
-2.36073
-1.31772
3.50002
2.38919
-1.59003
-0.452021
2.04079
-1.58877
2.67196
-0.810083
0.591007
-0.0591228
-0.531884
0.350498
0.315699
-0.666197
-0.688757
0.719741
-0.0309842
3.67354
-2.53239
-1.14116
0.964659
-3.90154
-0.774333
0.0855764
-3.03118
0.726849
2.30433
3.14197
-1.07691
1.10813
-3.93323
4.83569
-2.31747
-2.51822
-0.0918773
0.703247
3.88821
-1.70009
-2.18812
-2.40215
0.416324
1.98583
-3.71119
3.56002
0.151179
1.33667
-2.62139
1.28471
-0.455041
-0.249331
0.704372
-1.9953
2.37049
-0.375184
0.188799
-0.742413
0.553614
-0.743293
0.237281
-0.899538
0.159512
-2.76941
-1.24812
2.25019
-3.27111
1.02092
0.423215
-1.04003
0.61682
1.79634
0.695407
2.08044
-1.67877
-1.43317
0.880382
1.74417
1.3978
-2.09491
0.235344
1.85956
1.34421
2.544
1.68648
0.205114
0.896736
-0.473521
-1.26685
-0.216883
1.48373
0.0993872
-0.660538
-2.50753
2.57885
-0.184571
0.621147
-0.436576
-3.56834
3.51555
0.0527888
-0.94845
2.77311
-1.82466
-0.589132
-0.706551
1.29568
2.96504
-3.32267
0.357632
-2.23993
-1.84919
4.16559
-2.83844
-1.32714
-0.507716
0.475811
2.90807
-1.5714
-1.20781
3.458
0.546485
-1.60816
1.06167
3.69408
-0.535461
-3.15862
3.84228
-0.958468
-2.88381
-1.25648
1.80297
3.36905
-2.05999
-1.30906
-0.835416
3.2797
-2.44428
1.02674
-1.99687
0.970134
-1.03615
0.292161
0.743989
-0.929515
0.0841857
0.845329
3.63611
-2.7962
-0.839907
-2.19695
-1.91405
2.52128
0.740566
-3.17012
-0.39822
-0.230198
0.580696
1.04227
-3.42677
2.3845
0.00531036
0.846017
-2.13722
4.54948
1.21344
2.46011
3.94622
-2.60713
-1.33908
-3.80986
2.95488
2.51735
-3.87112
1.35377
-2.48135
-0.266239
2.74759
-1.42965
-0.494844
1.92449
2.3194
-0.361974
1.16718
0.839794
1.26085
-0.535108
-1.61178
-2.80941
4.05418
-1.24476
-1.18621
0.235689
-1.31625
0.864224
0.581115
-4.29231
2.35746
-3.67518
0.739498
-0.956309
1.77537
-0.819058
-0.0230602
0.471601
-2.00447
1.1135
0.890973
1.60559
0.556373
0.0509447
1.04936
-1.1003
1.93724
0.639011
-2.37338
3.41565
2.32782
-0.353302
-0.93557
-1.99728
4.13606
-2.64878
-1.48728
3.79777
-3.90345
1.52181
2.38164
3.11857
-3.50988
0.391312
-1.9197
1.43153
-0.625965
-0.0232923
-0.826934
-1.93167
1.37307
-2.28066
0.90759
1.64542
1.72363
2.36583
-3.5944
1.22857
1.16199
-2.21348
1.0515
-4.02069
0.754648
0.157378
1.59378
-2.30672
2.82567
-0.518952
-0.928782
1.37387
-0.445085
-2.0657
0.134341
-0.50879
-1.0485
1.55729
0.536289
0.0129773
-0.549266
-1.1362
-1.01358
1.34677
1.94247
-3.28924
3.672
-2.32779
1.62852
-1.81285
-0.106854
2.00518
-0.843194
-2.58154
-0.347317
-0.531862
0.776371
-0.244508
3.85929
-1.39999
-1.90232
2.88684
-0.98452
-0.595146
0.690919
-0.0957723
2.40998
-0.51921
-1.28834
-2.13843
-2.00057
3.38523
-1.38466
2.15908
-3.59392
1.43484
1.65744
2.50815
-0.770412
0.685598
0.084813
0.440966
-2.92232
2.78881
-4.2786
1.48979
-1.37816
-0.0125229
-0.464168
2.69342
-0.974721
3.33218
-1.05938
2.47503
0.658493
-3.79928
-2.8412
1.96163
0.87957
2.64705
-0.566529
-2.08052
3.65628
-0.691238
-1.77481
-2.15456
-1.82894
1.41383
1.10441
-1.37151
0.267105
1.32775
-1.32634
-3.08465
2.62048
3.33275
0.95209
-3.17564
1.27332
3.18697
-0.665683
0.481368
-0.74868
0.267312
-0.328722
-2.01851
2.34724
-3.56453
0.649692
2.91484
3.43749
-3.43749
-1.39827
3.72045
-2.32217
1.22692
-1.17598
1.93313
-1.68255
-0.250578
-3.78855
3.84297
-0.054418
1.52022
-0.109214
-1.411
1.20816
-0.424336
-0.783824
0.661287
-1.25042
-0.220466
2.30095
-3.50876
-3.01964
3.60571
-0.586073
-1.1572
2.50397
0.867502
0.0654251
-0.932927
0.453152
0.116098
-0.56925
-1.55835
1.82043
3.61136
-2.64977
-0.961592
-0.475744
-2.03243
2.50817
-1.08088
1.16892
-0.0880376
0.715247
-1.24559
0.530345
-4.2574
1.83843
2.41897
-0.380837
-0.19097
0.730641
-0.249273
0.0312609
-0.860037
0.828776
1.53786
2.09825
0.847157
0.0203451
-0.578242
-0.871252
1.44949
-1.8953
3.00618
-1.11089
0.198419
0.737508
-0.935928
1.61395
-1.31681
3.30388
-0.489075
-2.8148
0.218205
-1.79437
0.127695
2.4273
1.79163
1.00279
-2.79442
2.07567
-1.5991
-0.476565
-4.28
1.04799
-1.67724
1.16919
0.50805
1.1297
2.01929
-3.14899
-2.59731
2.33107
0.239427
-3.62784
3.38841
-0.657069
0.672487
-0.58104
0.690679
-0.109639
0.22417
-1.49102
-1.55583
0.246147
1.30968
-2.46495
-0.566236
2.4542
1.69355
-0.537272
-1.15628
-0.644094
0.0489479
0.515067
-2.74486
2.22979
0.481864
1.93355
-2.41542
0.97404
-2.83149
3.21208
-0.380589
-2.94017
2.10476
-0.370442
-0.503893
-1.63031
-0.730878
-1.19266
0.281895
0.910764
-3.45339
1.5581
2.54024
-3.01599
0.964847
2.22212
-1.45093
1.32176
0.129171
0.617423
-2.70321
2.08579
0.786352
-1.21114
0.424791
2.1075
-3.39584
-2.467
-0.309986
-1.4203
-0.0017808
-1.06776
0.0195832
1.04818
1.37143
-0.973067
1.55035
-0.577285
2.84877
-1.71908
-2.92865
3.90104
-0.972389
1.08445
0.822696
-1.90715
-1.50702
0.849955
-1.04417
-0.148488
0.510393
1.42274
-1.14996
-2.94912
-0.832423
0.300561
2.45754
1.76018
0.567646
-2.86059
3.1446
-0.177654
-1.3048
1.48245
-0.402269
-3.11405
3.51632
0.584746
-0.604268
0.0195221
1.15059
-0.751357
-0.836097
1.86283
2.03918
-1.45337
-1.31848
-0.685986
-0.0286578
-1.77141
1.80007
1.64276
-4.11471
-0.0701092
-1.96582
2.03593
0.0741695
-0.483142
0.408973
-2.52601
0.0466948
2.47931
3.92316
-2.62071
-0.0311722
0.457121
-0.425949
-0.989331
-0.0915474
0.765463
1.49126
-2.25673
0.732915
-0.885255
0.15234
2.78254
1.56551
-4.34805
-1.59144
4.5654
0.533492
0.00279756
-1.04771
-2.34429
3.392
1.70503
2.89592
3.00516
-2.52329
-1.55489
1.0461
-0.868854
-0.0606612
-1.21511
3.73247
0.548224
-3.1572
2.60897
3.75957
-0.522736
-3.23683
-1.14987
2.43462
-1.28475
1.5817
-0.705352
-1.85842
2.56377
0.852569
-0.870164
0.0175946
-1.19412
-1.82171
3.01582
0.656427
-0.203275
0.245584
-0.307878
2.04892
-3.24304
-2.78668
-0.763007
3.54969
-0.154546
-1.94329
2.09783
-0.149613
4.20184
-4.42104
0.219203
0.963608
-0.459976
-0.503632
-0.107361
-1.34357
1.02931
1.03502
-1.43275
0.00310769
-3.00826
3.73846
-0.730195
0.515725
-0.700296
1.99011
1.02784
-3.37314
-0.975523
-0.153236
-0.786885
0.940121
2.0941
-0.333921
-0.936297
1.02396
-0.0876591
-0.568973
0.757772
-4.5993
2.15203
3.32271
0.594126
-0.412241
1.12749
-0.879338
1.96379
3.40622
-1.10527
-0.961089
0.0247919
-0.593919
-2.49073
1.20622
1.10947
-1.07598
-3.69979
0.135258
-0.107165
0.978085
-0.191732
-4.00931
2.44636
1.56295
3.2778
0.658806
0.906812
-0.312274
-0.594538
1.36552
-1.19011
-0.175417
-3.62634
1.40174
-4.04528
2.04471
-0.929571
0.332314
0.597257
0.0905598
-0.558854
0.468294
3.84045
0.0465282
-3.88698
0.983337
0.0822683
-1.06561
-0.606363
-1.15065
1.04733
-0.133628
-0.585501
0.614877
-0.0293765
1.74057
-0.0951559
-1.64541
0.0710815
-0.656582
3.26708
-2.41616
-0.131879
-0.655358
0.787238
-3.90726
0.898996
0.0820777
0.221931
-0.749707
0.257287
1.43627
-0.207987
-1.22518
0.964049
0.805448
-1.7695
1.46914
-0.856887
1.27041
-1.44806
1.02092
-0.892335
0.462084
-1.39087
3.27945
-0.831526
-2.44792
2.26389
-0.321845
-1.94204
-1.36129
-0.414708
0.565068
0.180904
-0.745973
1.05053
-1.64558
0.595051
4.19143
-0.076207
-4.11523
0.652082
0.208591
-0.860673
-1.9787
2.68377
-0.70507
1.82243
2.01509
-3.83752
0.334839
0.77317
-1.2315
1.8179
-0.586402
0.958892
0.39161
-1.3505
-2.79908
1.60589
1.19319
0.571155
0.043722
-3.39524
0.608554
1.37343
-0.811477
-0.561955
1.62556
-2.37957
0.754012
-0.453999
-0.834596
0.618454
3.58339
3.19988
-0.642139
-2.55774
-3.2088
0.377302
1.30613
-2.24169
2.56229
-4.1766
1.61431
-0.477851
1.26017
-0.0399237
-1.54533
0.967088
-0.715899
0.964524
-0.399605
-3.11461
3.51421
1.6918
1.21627
-2.80105
3.01957
-0.21852
-0.130699
-0.937061
-2.21368
-0.845737
-0.554561
0.614544
-0.0599827
-0.111877
-1.11752
1.22939
-0.398588
1.74366
-1.34507
-0.552526
2.17808
-2.23666
-0.678316
2.91498
-3.08176
-0.816536
3.89829
1.77563
-1.60528
-0.170351
-1.23193
0.0717819
1.16015
0.60133
0.313489
-0.914819
-3.51284
0.101608
3.41123
0.103667
0.869083
-0.97275
2.97485
-3.38021
0.405361
-1.70042
0.801721
1.07345
-1.87517
0.0441418
-0.598703
-1.49999
-1.01277
2.51276
2.50458
-3.93882
-4.00829
3.35915
0.649139
0.894457
-0.161543
2.99841
-1.0083
-0.54252
-0.653191
1.19571
-0.0555399
0.888077
-0.832537
-0.830892
2.82726
-1.99636
3.51426
-2.48783
-1.02643
3.85206
-3.72647
-0.125589
2.82564
-1.53323
-1.29241
0.179307
-1.03043
0.851122
-1.27186
-0.0724161
-3.62863
3.1688
0.459829
0.448923
-4.07755
-1.09116
2.7264
-1.63524
-1.80347
-0.992733
0.905052
-0.74005
-0.165002
-3.09357
-0.81369
-0.856134
0.589456
0.266678
0.712779
-0.537529
-3.63765
3.40269
0.234962
-0.843803
0.589951
0.778613
1.07432
-0.090978
-2.26244
0.267136
0.714374
-0.798741
0.0843672
-1.06662
1.44274
-0.376124
1.68292
-0.162705
-0.840411
1.57838
0.831596
1.58278
1.22207
0.668728
-1.8908
-0.864178
2.1755
-2.54609
1.68205
0.864033
0.581898
-0.0107433
2.94418
-1.25238
1.99335
-1.37593
-0.500251
-1.00827
1.50852
0.983319
-3.04766
2.06434
2.30115
-2.45569
3.83713
-1.65534
-2.18179
-0.030859
-2.13839
-0.407695
-2.8214
3.94978
-1.12839
-0.183611
-0.914881
3.49854
-4.03786
0.944293
-0.856844
-0.179305
-0.789903
0.7194
0.748759
-0.0290183
-1.91263
-2.14033
4.40918
-1.6915
0.530497
-1.00584
0.475339
0.215486
0.992675
-2.52721
-1.36098
3.88819
1.56829
0.751119
-0.00478202
-0.659082
0.663864
3.27892
0.583215
0.0599181
-0.643133
2.55251
0.726942
-1.38401
-3.74004
0.720399
-0.990396
0.0604915
0.929904
2.22841
2.60728
0.320301
0.978511
-1.29881
3.72065
0.131414
2.40618
-3.44464
1.03847
-3.21551
0.0274232
3.18808
-3.05668
3.82433
-0.767652
0.635369
-0.0135346
-0.621835
-1.41969
3.92427
0.433285
0.719441
-1.15273
0.213937
-3.01498
2.15126
-0.969108
-1.18215
-3.33281
4.17061
-0.837799
-0.832848
2.23173
-1.39888
4.83453
-2.0862
-2.74833
0.220467
-2.46495
2.24448
0.627564
0.0631145
-1.51811
3.34054
2.17629
-3.57457
3.48692
-1.32784
-0.816122
0.684243
-3.35513
0.139627
3.67694
-1.31111
0.00245243
-4.01303
1.27652
0.024812
1.08182
2.3644
-3.44622
2.2433
-0.686058
-1.55724
2.3879
-3.81019
1.4223
-0.875039
0.047862
0.827177
-0.785672
-1.96556
2.75124
1.50538
-1.0433
-2.25175
1.60808
0.643677
0.890673
0.682109
-1.57278
0.326141
0.578912
-3.32679
3.85325
-0.526452
0.524017
0.0607297
1.81379
0.913232
-2.72702
1.23807
1.60162
-2.83968
0.703189
1.94386
0.0354053
3.80243
-0.0727103
3.1365
-3.06379
0.581727
-0.383308
-1.779
0.441065
1.33793
2.49114
-1.79985
-0.691285
1.746
2.09113
-0.873661
0.68094
0.192721
-0.90573
3.09699
-2.19125
0.00176818
0.78163
-0.783398
0.910524
-2.7391
1.82858
-1.28412
-0.807763
2.09189
2.71643
-0.19601
1.05824
1.18505
-1.41423
-1.39435
2.80858
1.24967
-3.2821
0.399131
0.670983
-1.07011
0.828894
-0.212919
-0.615975
0.0334928
0.594071
-0.0694039
3.51856
-3.44916
-0.441023
3.43835
2.94062
-2.5335
-0.407116
2.63256
-2.10803
-2.0769
0.958146
1.11876
-0.586202
-1.09635
-0.306837
0.080261
0.226576
0.291134
0.615678
0.58554
2.94182
-3.52736
1.09008
0.650482
0.524456
-3.60621
-1.84208
0.270614
1.57146
-1.41114
-0.886388
2.29753
2.06071
-1.09667
-3.35226
2.19505
1.20983
-1.596
0.386173
-2.31929
3.3477
-1.02841
-1.74124
1.95945
-2.0858
2.03767
0.0481261
-2.87501
3.95708
-1.08207
-0.0880384
0.944587
-0.856549
0.601081
-0.510521
-1.7442
-2.59863
3.98784
-1.38921
-2.17237
2.86185
1.93192
-2.13497
0.203044
-0.373782
-0.524502
0.898284
-3.86054
2.64905
1.21149
0.0378123
-0.584405
0.546592
-0.0196754
2.00257
-2.83346
2.81706
-1.83374
-0.760465
-2.08073
-2.84715
2.77444
1.77265
0.272626
0.923645
0.916326
-1.83997
-1.41501
1.29717
0.117847
1.31114
-0.397998
-0.913141
1.18559
-1.84841
0.662824
-1.69145
2.2731
-0.581654
-2.79648
-0.445508
3.24199
0.468149
-0.841931
1.50818
0.982956
-3.93737
2.81469
1.12268
0.675422
0.448515
-1.12394
0.0390686
0.811684
-1.04304
0.231353
-2.55237
-0.72294
1.90853
0.630587
0.871261
-0.691955
0.82191
-0.933786
1.34378
-1.96848
0.116989
1.22231
0.00894236
-1.21971
1.21077
-2.14959
-1.55769
3.70728
0.596956
-2.01119
-2.09047
-0.0854391
2.17591
0.39989
0.9205
-1.32039
-0.0210922
4.25306
-2.73252
-1.52054
0.655673
2.54421
-0.0800552
2.30638
-1.35111
-0.955277
-1.18641
2.33993
-1.15352
-2.20254
-0.61437
2.81691
-1.90649
0.674987
-1.35373
-0.723174
4.88665
-1.75745
-3.1292
-0.857815
0.287367
0.570448
1.34681
0.40796
-1.75477
-0.727959
0.831626
0.319516
0.879701
-1.19922
-0.364612
-0.130439
-0.872995
-0.0718009
2.9946
1.89205
-1.98188
3.73528
-0.884651
3.34654
-0.743772
-0.114043
-3.0914
0.888864
2.86179
-2.42083
-0.529993
-2.5344
0.555703
1.56582
-2.65698
2.40674
-2.73546
3.24994
-0.131369
-0.807174
-0.517265
-0.732885
-0.596557
1.32944
-1.27287
-0.176951
2.86631
0.480674
-3.34698
-0.0697368
-1.02594
1.09567
-0.471849
1.58751
-3.99492
2.40741
3.11022
-0.135373
-3.6169
3.67932
-0.0624202
0.844861
-0.690624
-3.36067
-0.499872
-1.27541
3.25866
-0.08986
1.08693
3.74297
-1.49818
-2.24479
-2.00947
-0.356272
2.36574
0.194467
1.63062
-1.82509
-2.76688
0.240869
-0.859781
-0.261196
1.12098
-1.84462
2.39285
0.746496
1.89946
-2.64596
-1.47213
0.255306
1.21683
-3.17104
0.160735
3.01031
0.499926
2.31713
-1.1019
1.59825
1.22739
-0.932252
-0.744992
2.84391
-3.22027
0.643382
-1.3763
0.732917
-0.8275
1.16234
2.66516
0.0888615
-2.75402
2.4345
-3.31915
0.151055
-0.606097
-0.909681
1.8651
-0.95542
-2.44571
0.945727
-0.122726
1.24199
-1.11926
0.703138
0.29582
-0.998959
0.679367
0.471225
-1.04593
2.35206
-0.453122
-0.476449
-0.677762
0.721904
1.22467
-0.390593
-0.766438
0.517107
-0.863638
0.817298
0.0463399
0.876115
-0.986263
0.110148
-2.75228
2.32625
0.143174
-2.23365
-0.285551
-1.28889
-0.104734
2.29796
-2.19322
1.38429
-1.60117
0.987364
-2.19553
1.20816
-1.82494
3.0601
-1.23516
1.08019
-3.8896
1.0499
-0.076962
-3.93133
1.65848
2.7507
-2.86536
-0.486894
-2.59133
-1.31212
-1.73733
0.688831
-0.599863
-0.27495
0.874813
4.33385
-2.10544
3.71254
-0.923724
-0.988111
-0.630227
1.61834
-3.41707
1.43245
1.98462
0.983468
0.287727
-0.864211
1.66593
0.705368
-0.401625
-2.3428
1.05138
-0.618093
0.21456
0.893528
-1.10809
-0.447119
3.31342
0.470423
-0.814107
0.343685
3.62931
-4.22774
2.02921
2.19853
0.585708
1.06521
-1.65092
2.76609
-1.95541
-0.810683
-2.06279
1.22994
-0.671528
-0.233855
1.58067
3.48299
-3.88526
1.73126
-0.77237
-1.34361
2.59328
-4.12289
2.7948
1.32809
0.990258
-2.84043
1.85017
-2.67192
2.89475
-0.222832
1.21264
-2.07682
0.0452948
0.587532
1.18809
-0.159434
-2.72335
0.924674
-3.88154
1.45082
2.43072
1.05096
-3.06043
2.90422
-0.0405535
-2.3616
0.464964
1.61399
3.99613
-1.3397
-2.65643
-2.03834
0.903894
-2.31503
0.716142
-3.55055
3.19428
-1.97312
1.26777
1.74663
-3.29913
2.26244
1.03669
-3.75262
2.44344
1.30917
-1.59212
-0.25347
0.327639
-3.74115
2.72532
1.01583
2.41979
-3.83949
-3.28368
-0.04311
4.17455
-1.61226
2.34288
-0.213321
-2.12956
-0.105866
-0.671926
0.777791
0.621027
1.82899
2.08953
-2.54635
-0.75278
0.580296
0.925086
0.729319
1.52293
-2.25225
1.57898
-0.935622
-0.0754379
-3.54737
3.62281
-1.52458
1.12531
-2.71208
-2.20725
-1.3354
3.54265
0.965278
-1.39481
-2.68276
0.839443
1.84332
0.329487
0.131529
-0.461015
3.44594
-3.84554
0.83239
-1.74207
2.21885
0.528079
-2.74693
0.927691
-0.397194
-3.12408
0.880457
2.24362
-2.17919
0.895067
1.11326
-2.29967
1.52189
-0.878507
0.538421
-0.208934
-0.137161
3.89673
-2.29738
2.98314
-0.685753
3.86533
0.0385521
-3.90388
-2.17934
0.94448
-1.90079
0.11402
3.32347
0.551927
0.138991
0.757525
0.28842
0.938502
2.03489
1.1145
0.19664
-3.40094
-0.236703
-3.48598
1.67843
-3.37852
0.738098
0.77685
-1.51495
3.57069
0.19772
-3.76841
-0.482782
0.469247
-1.35485
-2.69044
-2.95626
-0.553628
-1.01071
3.44521
-1.27855
1.83771
-0.559158
-3.21279
1.06321
-1.14899
1.87831
-1.63977
-2.36954
-1.05491
-0.878829
1.47091
-1.76933
0.702707
3.93052
-0.671853
2.65065
-1.91985
-0.730798
0.248721
1.79207
1.09358
3.7858
-3.54638
-0.162985
-0.904744
1.31548
-1.87737
2.11272
-1.86745
-2.14885
0.901235
0.709757
-1.61099
-3.54856
0.111067
-0.524708
2.96399
-2.43928
-0.439452
-3.17745
-2.4678
2.59289
3.9897
-1.80136
-2.18834
-0.0973093
1.2665
2.77864
-1.1465
-1.63214
1.07833
-1.20877
-1.56972
-0.209273
-0.592342
-0.181156
0.773498
-0.811604
1.73525
-1.495
3.9148
-0.0585145
-0.681535
-1.09604
-0.40009
1.49613
0.00354111
3.4424
1.18344
0.128446
-1.31188
-1.48755
2.25301
1.3859
1.71108
-1.76095
-0.0811275
2.11024
-0.81724
-1.293
1.54426
0.412086
-1.95634
0.0460436
-2.53498
2.48893
-3.51121
0.554953
0.895581
-1.76728
3.44571
-0.0641989
1.14253
0.586847
-1.8654
-3.91067
2.08173
-3.22016
1.14107
-1.83699
0.278646
-1.23096
-2.05521
3.28618
-3.82594
0.0172329
-0.739701
0.722468
2.91248
-2.26579
2.23395
-2.03948
0.464299
2.10802
-2.57232
0.532144
-1.39193
-2.64389
-1.1413
3.78519
-1.15855
1.23935
-0.0808008
-1.78905
2.97129
-1.18224
2.7314
-2.15436
-0.577035
3.4192
0.153042
-3.57224
-1.73046
-2.49728
-1.26924
-0.151058
1.50276
2.6368
-0.0617139
0.442301
-0.380587
-2.43621
-0.687874
2.27251
2.08424
-2.06742
2.53407
-0.466649
0.67437
-0.614452
1.35064
0.489651
-1.84029
-0.301161
0.771583
-0.291402
-3.44975
-3.74916
1.8919
-0.682077
0.112794
0.749439
0.294419
2.757
-3.05142
-2.05266
-0.209777
2.44804
1.22396
0.296244
-1.09948
1.1767
-1.47531
0.29861
0.0972612
-1.3538
1.25654
2.08675
0.686355
1.12912
3.15112
-1.5057
2.93666
-1.81134
-0.445494
-1.03404
1.47953
2.8481
0.431597
-0.0408704
-2.5811
1.79543
3.38118
-3.37764
-1.36409
-1.52336
2.88745
-1.94197
-1.4751
-3.32388
3.44051
-0.116634
-0.797214
-1.45993
0.863369
2.00212
1.14899
0.713927
-0.972492
0.258565
-1.3387
-2.68462
-0.815604
-2.71948
3.53509
2.28466
-0.716371
-0.778568
1.1777
1.91313
-3.26797
1.50445
-1.42861
-1.71775
3.73261
-2.01486
1.15513
1.53364
1.30195
-2.83559
3.39764
-2.12267
-1.27497
-1.46514
-2.34428
3.48954
-1.14526
1.94985
0.700801
-1.19167
1.12747
1.7397
3.09483
-0.898206
0.79234
-0.976299
0.00323238
3.49361
-1.80984
1.70513
2.62872
-1.62452
0.889331
0.735188
1.08845
-1.5887
2.72571
-0.0605517
2.59407
-0.251185
-2.48717
-0.0785703
2.56574
0.771096
-0.124207
-0.646889
0.689048
0.27456
0.652752
-3.70943
-1.15882
1.38299
2.53908
-2.36891
-0.170171
0.675045
1.4352
-0.634635
0.32236
1.08803
0.851944
-1.93998
-1.29433
2.7511
-0.334853
-1.61484
3.59782
-1.98297
-0.77497
1.66564
-0.386963
-1.08517
3.89983
-2.00802
-1.1621
2.03899
0.727104
1.20444
-1.48999
-0.760403
0.672364
-1.04722
-0.620979
-0.0231148
1.23142
-0.615843
3.02082
-2.40498
0.899013
-0.867752
-1.4221
0.768914
-1.36673
0.0974898
-3.55948
2.51176
1.00088
0.817029
1.03376
-1.43684
0.403075
0.807517
0.490057
2.74575
1.64926
-4.39501
-0.462367
-0.0683579
0.530725
0.15434
-3.08299
2.55834
1.43135
2.93226
-2.63784
-3.55939
-0.180341
-0.0254648
-1.57256
1.69736
2.1868
1.26538
-3.45218
1.65746
-0.273169
-0.119665
-1.22389
-0.400627
-2.21631
-1.75149
1.16529
1.48588
2.41516
2.15055
-1.92668
-0.223871
0.799148
0.0181496
-0.273005
1.0121
-0.135988
2.83842
0.836872
-3.67529
-1.07021
1.28478
-0.9381
0.574966
0.363134
-1.40253
-0.0322746
1.43481
1.35985
1.0354
-2.39525
0.804408
1.25631
2.52783
-0.0721976
-1.06231
1.34111
-1.05269
-0.594291
0.496519
0.0977719
-3.53648
2.02133
3.14427
-2.47199
-0.672278
0.0819172
-0.630471
0.548554
3.20345
-3.27285
2.23342
0.0512345
0.617367
1.61658
-0.565327
-0.0556524
0.840606
-1.13256
0.291952
-1.71245
-0.541904
4.09062
-2.08701
-2.00361
3.00517
-0.985577
-2.01959
1.70115
-2.69027
0.989114
0.152729
1.85507
0.150107
0.109455
1.62866
-1.73812
-0.245772
1.08638
-1.48933
-0.598864
-0.215243
3.57937
0.070287
-3.64965
-1.74885
1.11402
-1.10508
0.820822
-0.139882
0.525637
1.33946
-1.90823
1.50964
-0.0128809
-0.0117722
-0.38404
0.57982
-1.43742
1.90171
0.0378199
1.07165
-0.194809
-0.592808
2.38915
0.107266
2.04328
-0.654339
-0.524081
-0.789234
1.87727
-0.590302
2.47367
-1.88336
-2.99222
-0.403012
-1.16816
2.93079
-1.76263
0.310336
-0.9092
1.2567
-0.231173
-0.0588834
-0.990346
1.04923
-3.07964
1.07161
0.541755
-0.572927
1.80414
-4.33136
1.34086
-3.68515
-1.13096
1.96279
-1.23226
2.01396
-1.16201
0.0335602
-2.24554
2.29159
0.00108569
-0.637881
0.237447
-1.84272
-0.514322
-2.18878
2.7031
0.84804
1.17347
4.42056
-2.85422
-1.56634
-0.836096
0.310387
0.944262
0.0810614
-1.02532
-2.89247
0.595091
0.804103
0.024791
-0.0410859
-0.531326
0.572412
1.80851
-2.97668
0.286698
1.65147
0.23237
-1.88384
-2.85641
2.26611
0.62615
0.140456
-0.766606
1.37
-3.96863
-0.581106
-0.0254329
0.606539
0.820712
-0.194562
0.0928707
2.63309
-1.9299
2.1324
1.90591
-1.1015
-3.34983
1.14258
-2.42505
2.10696
0.318091
1.45142
-2.81552
-1.8337
-1.05809
2.89179
-0.0184466
1.54497
-1.15413
1.04491
3.50433
-0.396534
-3.1078
0.00481976
-3.40576
3.03162
0.387583
1.65761
1.12103
-0.639176
-0.0199063
0.631643
-0.872532
-1.40813
-0.941117
1.33154
-0.390422
0.0678985
-3.65623
3.58833
-0.628005
1.46216
-0.834159
1.08543
-3.38258
2.29715
-0.187239
-2.03388
-0.120247
0.609235
2.33708
-1.3387
-0.659335
1.99804
-1.38201
-1.08294
1.73092
-1.02116
-0.873146
0.191431
0.681715
-0.368099
1.40186
-3.45949
-0.444478
-0.261125
0.705603
0.881159
0.615447
-1.49661
2.22304
-3.52188
1.29884
0.291476
-2.0914
0.580528
-3.91333
-1.80368
-2.2432
4.04689
-3.47976
0.2819
3.19786
-3.82853
-2.86663
0.194715
-1.22329
1.20684
0.0164468
-3.40239
-1.02453
3.86295
1.53726
-0.731811
0.437941
-1.22718
-0.583422
1.83973
0.616627
0.389896
-1.48593
0.0632526
-0.701642
0.63839
-0.503815
-0.012258
-0.471366
0.553284
-1.17895
1.76466
-3.95789
2.47242
1.48547
-0.677767
1.84495
1.96685
0.816366
-0.0452705
-0.349895
1.06382
-1.74677
-0.93599
-2.03503
0.654821
1.38021
-0.115336
-0.600572
0.715908
-1.60465
1.70191
-0.30344
2.54681
2.06207
-0.87863
1.67945
-3.06145
1.73499
-1.97092
0.235931
0.489068
-0.031947
0.731479
-0.0458804
-3.34589
2.11493
1.12454
1.88063
0.0481542
-0.788648
0.740493
-4.33823
1.8436
-0.365195
0.680894
-0.751904
-0.0878265
-0.833063
0.92089
-2.08601
0.747305
-3.60666
3.31526
3.09883
-0.879983
-1.13273
1.05474
0.0779898
-0.949899
0.163015
-0.622191
-3.91904
1.60659
2.31245
-0.602266
0.533908
0.0379389
1.29987
-1.3378
2.00604
0.227384
-0.844995
-0.101324
0.94632
-1.10675
1.14457
-1.54526
0.167092
2.06521
-3.41047
3.54094
0.179701
-2.12501
-1.18874
3.36301
-0.176888
-3.18612
0.304744
0.406303
-0.711047
2.00769
-3.92032
1.78804
0.0799294
-1.86797
0.579939
0.2524
-0.83234
-3.2027
3.25667
-0.0539736
-0.727328
1.71469
1.87042
1.64384
3.61954
-1.2044
-2.41513
0.0427483
-0.43186
0.389112
1.08236
-1.23238
-0.0394797
-1.16395
-0.0684357
0.32917
-1.25458
0.925405
-0.318278
3.31577
-2.99749
-2.83295
0.810901
2.02205
0.920121
2.92033
0.115628
0.252735
-0.368364
2.01979
0.872164
-2.89196
0.141016
-0.740879
-1.28232
3.42641
-2.14409
-2.57138
0.0842151
2.27891
0.911817
-2.74552
-0.0144097
-0.547881
0.56229
2.57174
-0.507908
-2.06383
0.768266
0.885704
-4.23017
2.08985
3.3893
-3.46474
-1.86195
0.308285
1.55366
1.30607
0.0438609
-0.695983
0.652122
0.830656
0.156038
-0.986694
-0.0492334
0.551122
-0.501888
-0.545998
0.58479
-0.0387919
-2.29532
4.20845
-1.07941
1.05075
1.18909
-1.15115
1.23941
-2.01022
0.770815
-2.39602
-1.72687
0.852752
-0.251422
-0.62367
-0.0361189
0.659788
3.97496
-1.53056
-2.4444
0.250542
2.28854
-0.913106
-0.501908
-2.13778
0.366367
0.624793
1.37537
-2.00016
0.482638
-0.109584
-0.373054
-0.0236299
1.38915
-1.29725
0.324055
0.973198
3.0426
-1.78086
-1.26174
-3.59038
0.475769
0.550495
-2.39029
1.30324
1.08705
2.24082
-3.21554
0.659419
-0.437488
0.648878
0.0826014
-1.15327
2.05553
-0.902261
0.60418
0.101188
-0.157557
-0.265596
-0.926016
0.867502
0.871745
-0.663154
-1.19405
2.70048
-1.50643
2.24802
-1.63211
-0.615914
2.96024
-0.873484
0.95155
0.217366
-0.933261
0.759179
-0.27471
-1.33632
0.766542
-3.25437
-1.66508
1.77454
1.04393
-0.730441
0.55089
0.269822
1.37597
-0.796035
3.20071
-3.22957
0.0288547
3.7638
-1.80824
0.925089
0.883156
0.432537
-1.33728
-1.18023
-3.12598
-0.968437
0.844231
-0.623086
-1.05261
1.6757
-2.83203
0.659663
1.50512
0.414758
-1.91988
-0.349161
-0.809385
-0.6129
-1.28358
2.88519
-0.710007
-2.44861
0.742972
-1.89844
1.15546
-1.04774
1.34398
-1.74055
-2.59768
-0.23473
0.937868
2.01251
-3.63838
2.20364
1.43474
-0.116114
-1.21228
0.151375
-1.38307
1.23169
-2.50608
-1.59229
-0.658157
0.632724
2.6895
1.35508
1.00747
2.85182
-2.34432
-1.2496
3.15779
-0.135932
-3.02185
2.09522
-0.751432
4.29727
-2.77693
-1.52034
1.16714
0.701502
-1.86865
-1.20181
2.44874
-1.24693
-4.57086
2.28293