/*--------------------------------*- C++ -*----------------------------------*\
| =========                 |                                                 |
| \\      /  F ield         | OpenFOAM: The Open Source CFD Toolbox           |
|  \\    /   O peration     | Version:  2306                                  |
|   \\  /    A nd           | Website:  www.openfoam.com                      |
|    \\/     M anipulation  |                                                 |
\*---------------------------------------------------------------------------*/
FoamFile
{
    version     2.0;
    format      ascii;
    arch        "LSB;label=32;scalar=64";
    class       surfaceScalarField;
    location    "3.8";
    object      phi;
}
// * * * * * * * * * * * * * * * * * * * * * * * * * * * * * * * * * * * * * //

dimensions      [0 3 -1 0 0 0 0];

oriented        oriented;

internalField   nonuniform List<scalar> 
20045
(
1.27402
-1.35857
0.0845414
-2.63502
0.936773
1.69825
1.09324
4.89637
-5.98961
-1.27744
1.89747
-0.620026
-2.1704
1.95649
0.213909
-1.53825
5.54113
-4.00288
-2.14006
0.626839
1.51323
0.124826
1.11785
-1.24267
1.22348
0.991739
-2.21522
-2.07153
-0.252103
2.32363
-2.08313
-0.283039
2.36617
5.63645
-2.54829
-3.08817
0.882301
-0.914285
0.0319841
-3.15996
2.72785
0.432115
-0.57887
2.33544
-1.75657
-2.70322
0.631692
-0.0966883
-0.652484
0.749173
2.02606
-2.19029
0.164232
-4.22801
6.2752
-2.04719
-1.89632
0.160628
1.73569
-1.79729
1.33603
0.461269
0.280417
0.601884
-0.312605
-2.32241
2.64268
2.91342
-5.5561
2.04461
0.539359
-2.58397
-2.90717
5.54986
0.110372
-0.103182
-0.00718924
-3.30887
6.14487
-2.836
4.61295
0.122144
-4.73509
-6.32196
3.01851
3.30345
-1.3808
1.36706
0.0137412
3.15652
-2.18449
-0.972032
-1.65332
4.05072
-2.3974
5.8772
-3.13726
-2.73994
-1.42557
1.5504
3.62094
-1.56301
-2.05793
-0.225473
-1.38679
1.61226
-0.157979
0.982499
-0.82452
2.11227
-2.96741
0.855147
1.4335
1.32556
-2.75906
-0.00888652
1.23763
-1.22875
0.440729
-0.590695
0.149966
6.56306
-6.63645
0.0733817
3.71531
-1.39029
-2.32502
1.72449
1.99083
2.4068
3.22965
-0.344565
-1.08495
1.42951
2.66428
1.82658
-4.49086
-0.737258
0.511785
0.521383
4.64882
-5.1702
3.26013
-5.4848
2.22466
1.71052
-2.72681
1.01629
-3.38285
-1.7366
5.11945
-0.250873
-0.737127
0.988
2.844
-1.52919
-1.31481
-1.67806
-0.49234
-0.0251981
3.52328
-3.49809
2.51757
-1.16974
-1.34783
2.9593
-4.61263
2.08382
0.814825
-2.89865
-1.96807
-0.203768
2.17184
2.87312
-0.789299
1.3502
-4.17425
2.82405
-1.07586
-0.721439
5.06851
-1.29825
-3.77025
0.588931
-1.9973
1.40837
0.741268
-1.8262
1.08493
-1.69718
0.418737
1.27844
2.11604
-0.89256
10.3619
-10.3888
0.0268998
1.68172
-0.940452
0.590481
2.25352
-0.586658
-2.57663
3.16329
0.577036
-0.468009
-0.109027
1.04843
-1.46383
0.415402
3.17622
-3.20142
1.04887
-0.00043971
1.16116
-1.74003
1.45705
-0.0903182
-1.36673
-1.20378
-2.68493
3.88871
2.3452
2.19832
-4.54351
2.28178
-1.76326
-0.518524
3.1368
-1.7866
-6.76053
1.35083
5.4097
0.0761325
1.19789
-1.42386
1.63356
-0.2097
1.771
-5.49074
3.71974
-3.99405
0.155127
3.83892
2.56494
0.390219
-2.95515
-2.09864
1.93691
0.161728
-2.96398
-0.814045
3.77803
1.87005
-0.407992
-1.46205
1.03281
-1.4499
0.417089
-0.386311
-2.03423
2.42054
1.45697
-1.58267
0.125701
3.3437
1.30644
-4.65014
0.10893
0.00144128
-0.414554
1.84277
-1.42821
2.98629
-1.55279
0.0396175
-0.634448
0.59483
2.61849
1.00246
-1.12492
-2.03504
1.56613
-1.98069
1.33365
1.18392
-0.145297
-1.27856
0.649568
-0.60995
1.0986
3.01593
-4.11453
-0.772695
1.36605
-0.593354
1.11249
-1.22198
1.04291
0.179064
-0.740185
0.920841
-0.180657
2.55434
-1.95565
-0.598687
-1.2411
0.990227
3.78695
-5.28468
1.49773
-0.425119
0.801863
-0.376744
0.135566
-0.887373
0.751807
2.87509
-0.830481
3.95104
1.92616
-2.85468
2.26802
-1.89012
-2.45321
4.34332
2.0699
-0.0438467
-2.18532
0.217253
-1.95803
1.56206
0.395968
1.33957
0.272836
-1.47626
1.20342
3.19176
-1.48124
2.64383
-3.48166
0.837832
3.95019
0.502816
-4.45301
-4.86426
3.45676
1.4075
0.654603
-4.56201
3.90741
2.39013
0.801632
0.854087
-1.93903
0.904051
-0.226254
-0.677798
-0.190983
0.152804
0.0381793
2.85509
1.99753
-4.85262
2.97755
-2.88164
-0.0959102
-1.01085
0.401867
0.608984
-0.867203
-0.354776
4.66339
-6.5535
-1.65849
1.71812
-0.0596321
3.01329
-5.63851
2.62523
0.408089
-3.79094
2.88939
0.805565
-3.69495
3.00039
-4.20417
5.60885
-0.895972
-4.71288
2.89881
-4.13368
1.23487
6.19914
-3.71489
-2.48426
-0.370505
1.04319
-0.672682
-0.215993
5.3514
-5.1354
5.04086
-0.42791
-4.12204
0.134493
3.98754
-2.3284
1.83044
0.497959
3.93054
-1.58534
0.867276
1.41451
-3.11942
3.84693
-0.727513
-4.17242
5.26566
0.0426412
-1.08915
1.04651
-1.14094
0.188486
0.952455
-0.105903
-0.918806
1.02471
6.59783
-2.13275
-4.46508
6.92297
-3.38768
-3.53529
-1.11402
1.00812
1.12167
-2.72814
1.60647
0.543696
-0.102966
-1.39316
-2.30221
3.38046
-1.07826
-3.32413
2.40296
0.921174
-0.0802962
-0.117242
0.197538
3.14623
3.05292
-0.0740991
-0.116884
-0.100992
1.00504
-3.51573
0.396309
-3.66786
4.64464
-0.976777
-3.15821
3.59093
-0.432722
-2.48656
-2.21535
4.70191
-0.28229
1.2699
-0.987613
2.22729
-2.31152
0.0842301
4.76283
0.0679793
-4.8308
0.0399032
-3.72075
3.68084
-1.49514
4.38453
0.919562
-2.6766
1.75704
-1.7191
5.50606
-3.9137
2.52478
1.38891
1.11971
-0.976397
-0.143315
2.47924
-6.50797
4.02873
-4.96065
1.65178
-3.45945
-1.32083
5.53666
-3.04486
-2.4918
-1.53536
1.52647
0.873717
-0.933086
0.059369
1.43955
-2.08184
0.642298
-4.41809
6.27473
-1.85664
0.338857
-0.370024
0.0311674
0.451029
-1.34834
0.897309
-1.00579
-0.0186592
1.02445
0.525226
-2.60836
-3.97575
4.63036
-3.65288
-1.14076
4.79364
0.609037
0.143511
-0.752548
0.695252
-2.99746
-1.16699
-0.213809
4.28173
-0.331533
-0.826665
0.668686
-0.97417
1.19051
-0.216336
1.36312
5.23471
-1.42047
0.414687
0.635865
0.579536
-1.2154
-3.44359
0.634219
2.80937
0.519565
-0.180708
6.81095
-4.33171
3.5655
-6.34615
2.78065
1.54215
-5.99382
4.45167
0.118019
-2.01434
-2.42828
3.52688
3.21272
-4.75097
3.20661
-4.1947
0.988093
-6.80749
4.20381
2.60367
-0.0937555
-2.00488
0.91999
0.674157
-1.59415
3.56382
-1.1491
-2.41472
-0.731136
-3.73453
3.51853
-1.25166
-0.406829
3.2701
5.95865
-4.56038
-1.39827
-0.0429674
-0.672252
0.71522
3.29354
0.63246
-3.926
0.938372
-1.742
0.803629
-3.03582
4.00523
-0.96941
-4.76874
6.53974
2.77863
-1.85907
-0.567298
2.01868
-1.45138
4.76696
-1.75368
0.56587
-0.0624344
-0.503436
-0.730366
-1.11331
1.84367
-0.694578
0.728481
-0.0339027
5.28742
-3.04657
-2.24085
1.33586
-5.75396
-0.774143
0.079565
-4.20072
1.42573
2.77499
6.37031
-2.31959
1.22557
-4.89344
6.76875
-3.33363
-3.43512
-0.0929377
0.701975
-0.416903
1.76144
-1.34453
-3.03494
0.709363
2.32557
-4.73912
4.79325
-0.0541256
1.78327
-5.33743
3.55416
0.224898
-0.0662044
-0.158694
-2.32164
3.13163
-0.809993
-0.119304
1.92219
-1.80289
-0.730348
0.305229
-0.897336
0.157151
1.53372
-0.167669
0.0641343
-3.69881
3.63467
-1.05324
1.21693
-0.163688
1.68999
1.46653
4.1655
-0.958894
-1.48105
0.340108
3.35566
3.01465
-2.43868
0.0573524
2.38133
-3.60886
3.19196
1.78944
0.545998
-1.28967
0.236429
-1.40402
-0.186667
1.59069
0.304905
0.814806
-4.42706
1.39125
-0.108767
-0.954146
1.06291
-4.36721
4.22574
0.141462
-3.12876
3.67959
-0.550834
-1.02118
-0.525545
1.54672
3.77461
-4.1278
0.353195
-4.35538
-2.45211
6.56461
-3.94188
-2.62273
-0.534507
0.491539
5.71224
-3.92898
-3.3621
3.42624
-2.66018
-0.00860121
2.66878
-0.289491
-2.05297
2.34247
6.52366
-2.00108
-4.52258
-2.90581
0.24563
4.05194
-2.41631
-1.63563
-0.813434
3.90089
-3.08746
1.44068
-4.85531
3.41463
0.604616
1.66916
-2.27377
-0.531135
-0.322097
0.853232
6.24029
-5.24067
-0.999618
-2.77536
-2.0889
3.69502
2.26363
-3.99208
-0.375125
0.879362
-1.60973
-4.23363
-1.7837
6.01733
0.0170619
0.856655
-2.69294
5.54803
2.47226
2.81516
5.97309
-3.31464
-2.65844
-5.24149
4.10073
3.47547
-6.09667
2.6212
-3.10684
-0.202428
3.30926
-1.4077
-0.652059
2.05976
2.36342
-1.24175
-0.730761
1.36663
2.80878
-0.076411
-2.10808
0.223288
2.93708
-3.16037
-1.17353
0.199363
-1.22849
0.66119
0.602288
-5.34141
1.82195
-6.59069
0.702288
-1.20957
1.54472
-0.335158
0.219565
-1.49701
-2.48489
1.84716
0.637727
1.45451
1.09983
3.47877
-0.895375
-2.5834
2.43456
0.542985
-6.39559
2.16196
2.83742
-0.272486
-0.979825
-2.46376
4.42831
-4.29871
-0.129603
-0.797859
-1.28708
-5.25327
6.54036
3.92098
-4.29388
0.372901
-2.17149
1.78518
-0.632682
-0.378168
-0.271334
-2.69265
1.45792
-2.61718
1.15926
2.0179
2.03404
3.57812
-5.86764
2.28951
1.1979
-2.58795
1.39005
-4.84803
0.853984
0.113918
1.75613
-2.0943
3.69475
-1.60045
-1.26964
1.54115
-0.271518
-2.05286
-0.087205
-0.597154
-1.15133
1.74848
0.468687
0.0113427
-0.48003
-1.43503
-0.893371
1.87927
2.2265
-4.10576
1.25776
-4.86662
0.00125028
-2.26317
0.0916754
2.27118
-1.07329
-3.13144
-0.782259
2.16783
-2.08114
-0.0866927
4.61042
-1.94614
-2.26033
3.62406
-1.36373
-0.589619
0.667978
-0.0783598
3.61051
-0.0466977
4.959
-6.7427
-2.40333
4.39844
-1.99511
3.13333
-5.84179
2.70846
3.20097
3.36364
-0.0903349
0.140013
-0.0496778
0.447415
-3.55425
1.87906
-2.62826
0.749195
0.427294
0.149742
-0.414459
3.05829
-4.59746
6.41941
-3.97223
5.51438
1.03445
-5.26246
-3.965
1.65849
2.30651
3.15976
-0.487282
-2.67247
4.64308
-0.868471
-2.11815
-2.26357
-1.58321
2.92652
0.743057
0.555777
-1.29883
1.60184
-1.44122
-3.49077
3.07631
5.34409
1.21897
-3.78916
1.52883
5.6846
-1.98958
-1.84614
2.06576
-0.21962
0.121659
-3.09342
2.97176
-4.50559
0.841706
3.66389
4.24601
-4.24601
5.53505
1.99984
-7.53489
2.42836
1.05042
3.28136
-1.85184
-1.42951
-4.50413
4.7008
-0.196663
1.66582
-0.160743
-1.50508
1.32118
-0.565094
-0.756091
0.533017
-1.5542
1.59714
0.288935
-3.65104
-4.1357
4.8325
-0.696795
-1.41146
3.29072
0.165815
0.13376
-0.299575
-0.393635
-0.553846
0.94748
-1.88757
2.00559
6.03817
-5.04375
-0.994416
-0.387918
-2.62035
3.00826
-1.12925
1.25207
-0.122817
0.603576
-1.37715
0.77357
-4.53304
5.96399
-1.43095
1.15713
0.740346
-2.18006
0.333927
-0.238551
-0.351331
0.589882
3.0407
3.19958
0.459886
-0.294071
-0.254897
-1.42847
1.68337
-2.47902
3.91234
-1.43332
0.126206
0.883935
-1.01014
1.81344
-1.18661
5.29301
-2.14181
-3.1512
0.0209092
-2.05514
0.773264
3.98956
2.08945
1.40849
-3.49794
2.30775
-2.05284
-0.254905
-5.05817
0.936132
-2.05524
0.863157
1.19208
2.47847
2.98688
-5.46535
-3.12078
2.91836
0.340879
-4.55668
4.2158
-0.627157
1.07819
1.2512
-1.18704
-0.0641617
0.173679
-1.5777
-0.406662
0.555282
-0.14862
-3.19411
-1.00661
3.05584
0.246012
0.148428
-0.39444
-0.597144
0.00752532
0.850286
-3.54781
2.69753
1.22579
2.62657
-3.85237
2.22201
-3.49798
4.2923
-0.794321
-3.57382
2.76038
-0.0550265
-0.0481558
-1.94494
-1.37919
-1.28173
0.35722
0.924515
-4.22
1.74099
3.32189
-3.7098
2.45327
3.23133
-1.56163
1.49151
0.0701198
2.10672
-5.44999
3.34328
0.728637
-1.33683
0.608192
6.99933
-2.04034
-3.03159
-0.126623
-1.54678
-0.150397
1.11027
-1.11282
0.00254381
1.68279
0.0313146
-0.0906324
0.0593178
5.23741
-2.75895
-5.09376
8.01995
-2.92619
1.31855
0.855585
-2.17413
-1.74768
1.12052
-1.04691
-0.234825
2.10025
1.1811
-4.07449
1.62129
1.85847
0.30936
3.07678
2.01085
0.82657
-4.57066
5.09204
0.565124
-2.26789
1.70276
-0.45145
-4.12437
4.57582
-1.88201
2.06312
-0.181118
-0.89359
0.6113
-3.06035
4.50104
4.35022
-1.45141
-2.12504
-0.359848
0.0804354
-2.05157
1.97114
2.10279
-4.58935
-0.627124
-2.31082
2.93794
-0.780793
1.9535
-1.1727
-3.24424
0.258938
2.9853
4.71355
-2.88696
-0.0995298
0.431073
-0.331543
-1.06772
-0.0615314
0.842223
1.78351
-2.62574
0.741905
-0.897378
0.155473
2.10505
0.887831
-2.99288
-2.15725
5.50095
0.471246
-0.00255872
-1.10134
-1.50856
2.60991
6.2224
-1.55901
4.64214
-3.41634
-1.72443
1.12727
-0.854829
0.323695
-2.47314
5.94861
0.665164
-3.83693
3.17176
2.85427
2.1057
-4.95997
-2.36711
3.49154
-1.12444
1.99514
-2.07036
-2.1221
4.19246
0.715726
-0.522141
-0.193585
-1.42545
-2.42518
3.85063
-0.98896
0.595326
0.147654
-0.22795
2.53848
-3.96393
-3.51765
-1.06116
4.57882
-0.331369
-2.37377
2.70514
-0.0197665
6.6483
-6.72245
0.0741456
1.05668
-0.763299
-0.293378
-0.0527607
-1.50887
1.29709
1.12345
-1.55487
0.147168
-3.95167
5.03894
-1.08727
-1.35507
1.2463
-0.863684
3.86408
-4.99069
-1.64576
-0.139461
-0.457876
0.597337
2.6514
-0.640549
-1.03044
1.12881
-0.0983689
1.80143
-1.92074
-5.54649
2.08704
4.56441
0.976726
-0.634825
1.2384
-0.956983
2.27553
3.35353
-3.0646
-1.05271
0.0222669
-0.529941
-2.96083
1.01335
1.18784
-1.1452
-4.59394
0.0883493
-0.507654
1.05064
-0.321999
-2.39179
-0.526662
2.91845
7.94769
2.41422
0.914808
-0.280206
-0.634603
1.42832
-1.28424
-0.144072
-2.58641
1.0234
-4.94055
2.53722
1.29352
0.158214
-1.45173
-0.180025
1.88433
-1.7043
5.20462
0.0297911
-5.23442
0.999513
0.0802551
-1.07977
-0.695552
-1.26248
1.11305
-0.0802348
-0.282576
0.304457
-0.0218817
1.92718
-0.199588
-1.72759
0.0368492
-0.319425
4.21947
-2.91303
-0.163278
-0.683482
0.84676
-5.12129
1.16963
0.274808
-0.712601
2.27874
-0.178465
0.424476
-0.446388
-1.03466
1.14908
0.837685
-1.98676
3.66538
1.40313
2.15704
-1.59192
1.10283
-0.967264
0.32026
-1.5899
3.00888
1.04079
-4.04967
2.66305
-0.163673
-2.49938
-2.46737
-1.66631
-1.97736
0.17473
1.80263
1.97916
-2.13334
0.154178
5.44799
-0.115095
-5.33289
-2.43998
0.889368
1.55061
-2.46545
3.24149
-0.776038
2.78481
3.42827
-6.21308
2.04215
-2.24592
-1.35344
2.09998
-0.746542
1.0252
0.493444
-1.51864
-5.61373
3.33473
2.279
0.251996
0.0524615
-4.22611
0.708456
1.48702
-0.938014
-0.549001
2.41688
-3.04778
0.630897
-0.386687
-0.971879
1.05683
5.59147
4.10658
-0.679817
-3.42677
-4.19451
0.696539
1.69653
-2.67635
3.4874
-6.0141
2.5267
-0.471048
1.39104
0.0185954
-1.87797
1.62307
-0.769424
1.04226
-0.776082
-3.20982
3.98591
2.20663
3.50561
-3.61223
3.85134
-0.239115
1.01153
0.0987463
-2.8957
-1.21466
-0.577216
0.633964
-0.0567474
3.60718
-1.6863
-1.92088
-0.270313
0.928682
-0.65837
-0.326915
2.7438
-4.51641
0.0233863
4.49302
-3.84102
-1.13029
4.97131
2.35191
-1.74122
-0.610691
-1.24511
0.102725
1.14239
-0.760282
0.567486
0.192796
-4.88172
0.263994
4.61773
0.152569
0.893083
-1.04565
3.89099
-4.41531
0.52432
-2.57206
4.02984
1.47506
-5.50491
0.029436
-0.606652
0.00914781
-4.06364
4.05449
3.60942
-5.32853
-4.72845
4.11857
0.609875
0.895597
-0.153692
3.32771
-4.1914
-0.24131
-1.32473
1.56604
-0.0613931
0.897059
-0.835665
-0.939273
4.80402
-3.86475
5.82475
-2.66745
-3.1573
5.06685
-4.87297
-0.193875
3.87227
-1.48026
-2.39201
0.241702
-1.10402
0.862315
-1.39844
-0.0778144
-4.8368
4.26172
0.575077
0.27258
-5.10938
-2.55374
3.48117
-0.927428
-2.83615
-2.40452
0.90802
-0.801205
-0.106815
-4.02951
-1.09178
-0.871313
0.562835
0.308478
-0.235038
1.17341
-4.5981
4.38599
0.212109
-0.481365
-0.134205
-0.333804
1.08223
-0.0827195
-2.9878
0.66616
0.626762
-0.775085
0.148323
-3.41603
2.22685
1.18918
1.81559
-0.149761
-1.13003
3.27604
0.334472
1.74133
-0.418525
1.67849
-1.25997
-0.460122
2.68741
-2.97411
1.94525
1.02886
-0.0287494
0.280745
5.46306
-3.25643
4.83683
-2.73011
-1.16497
-0.771399
1.93637
2.98466
-4.24012
1.25546
2.70585
-3.03722
4.17595
-2.12674
-2.04921
-0.024825
-2.53277
-0.44134
-5.97429
4.98905
0.985242
0.0883971
-1.73049
5.29599
-5.258
1.22848
2.08903
-1.48442
-0.464362
0.510107
0.751261
-0.0227804
-2.31665
-1.90874
5.44508
-2.26885
-2.14481
1.31452
0.830292
0.338097
0.983088
-3.9778
-0.960421
4.93822
0.60087
1.76255
0.00642456
-0.679169
0.672745
4.10184
-1.8433
0.402323
1.44097
4.49095
-1.48207
-1.69971
-4.93144
0.795734
-1.07967
0.0625297
1.01714
3.26983
3.49891
3.41747
-2.36643
-1.05104
4.88168
0.185167
2.93494
-4.10772
1.17279
-4.05987
-0.097407
4.15727
-3.87298
4.99236
-1.11938
0.632147
-0.000124188
-0.632023
-1.74329
5.35271
-0.832838
-0.801487
1.63433
0.223113
-3.83534
1.34324
-0.20084
-1.1424
-4.70839
6.16518
-1.45679
-1.08622
2.58544
-1.49922
5.80548
-2.55907
-3.24641
-0.0509336
-2.93945
2.99038
-0.893902
-0.293141
-2.73659
5.5214
6.74985
-1.2148
5.79523
-2.6619
-0.88026
0.716982
-4.29282
0.232951
6.3483
-2.77018
-0.242155
-6.51838
1.29672
-0.0590834
1.25383
0.661315
-1.91514
2.64952
-0.601386
-2.04813
4.8443
-4.88171
0.0374164
-0.888472
0.0492889
0.839183
-0.924805
-2.33368
3.25849
1.7024
-1.38214
-2.29077
0.226416
2.06435
0.597643
1.40217
-1.99982
0.393708
0.514312
-5.51698
6.34599
-0.829018
-1.85359
-0.0284156
2.22249
0.933875
-3.15636
2.92181
2.63942
-5.56123
0.733535
2.42622
-0.0297774
5.63863
-0.022456
3.91975
-3.89729
0.257119
-0.130913
0.283276
-0.104286
-0.178989
5.94714
-5.25962
-0.687527
2.11041
2.06554
-0.653103
0.64188
0.0112231
-1.43621
4.00722
-2.571
0.075957
0.728292
-0.804249
3.57553
-4.51413
0.938591
-1.44271
-3.19428
4.63699
4.12933
-0.835793
1.43924
1.21028
-3.53422
0.243432
3.29079
1.37484
-3.99518
1.26996
-2.19736
0.927401
0.898954
-0.378946
-0.520008
0.399949
-1.29385
-0.372306
4.1129
-3.74059
-0.80335
5.45217
3.83988
-3.08263
-0.757253
3.09815
-2.70793
-2.56869
0.790474
1.77822
0.528233
-2.38007
1.62779
-0.902278
-0.725516
0.261211
0.653598
0.743824
3.62574
-4.36956
1.11453
0.812653
0.632096
-4.47312
-2.12413
0.494391
1.62974
-1.5916
-1.09265
2.68425
2.32399
-1.17491
-4.17193
2.76047
1.56404
-1.16926
-0.394782
-0.0292698
3.09343
-3.06416
-2.15292
2.17383
-2.0175
2.24548
-0.227983
1.56133
-0.800387
-0.760947
-0.0998941
1.0359
-0.936001
-1.99472
1.8147
-0.619165
-5.85246
2.97483
2.87763
-2.68151
3.31573
2.47661
-2.49666
0.0200423
1.0894
0.454837
-1.54424
-6.40866
4.33794
2.07072
0.296387
1.11163
-1.40802
0.551938
3.43903
-4.37831
4.10611
-1.12145
-1.95893
-2.00607
-3.50767
3.48522
2.45441
-0.0514475
1.88939
0.614634
-2.50402
-1.58661
1.44764
0.138978
-0.2355
-0.7445
0.98
-1.67303
-2.2669
3.93993
-0.129891
2.80158
-2.67169
-3.66785
-1.25964
4.92749
-0.717037
1.80644
4.80993
1.13721
0.179015
5.68253
-5.86154
-1.39512
0.39539
0.999728
0.0323693
0.806599
-1.08123
0.274632
1.68936
-4.58807
2.91504
0.638572
0.949273
-0.70757
2.06336
1.54381
-0.408365
-4.15364
0.118342
1.33862
1.43838
-0.314178
-1.1242
-3.09775
-2.63965
5.7374
-1.42092
-2.1133
-2.47117
-0.492397
2.96356
0.505352
0.96174
-1.46709
0.0626228
5.53961
-3.53843
-2.00118
0.844637
3.26195
0.461484
1.25219
-3.03511
1.78292
-2.67186
5.00929
-2.33744
-2.75264
-1.25697
4.00961
-2.16219
0.808756
-2.01897
-0.549719
5.44689
-2.35944
-3.08745
1.84078
-0.786168
-1.05461
1.91631
0.245197
-2.16151
-0.763796
0.916365
0.797954
-0.81883
0.0208758
-0.178189
-0.137127
-0.976892
-0.054609
3.27866
2.16823
-0.84508
-2.12233
-2.36036
5.37888
1.51035
0.330431
-4.20291
1.45027
3.52798
-3.08056
-0.477605
-3.02931
0.56386
0.816203
-3.36994
3.54887
-3.42721
4.04276
-0.121784
-0.954674
-0.495226
-1.26457
-0.423965
1.68853
-1.39854
-0.184129
3.63314
0.652476
-4.28561
0.138544
-1.22231
1.08377
-0.204054
-6.10721
0.00460955
6.1026
4.24542
-0.354436
-3.49929
4.11908
-0.619785
1.04825
-0.629512
-5.49819
-0.910471
-1.50588
4.40329
-0.141566
3.32426
5.61566
-1.95643
-3.65924
-3.13345
-0.167243
3.3007
1.04134
2.43445
-3.47579
-3.41332
0.169075
-0.825893
-0.653088
1.47898
-2.30254
2.96771
0.625842
2.54388
-3.16972
0.0274611
-0.0400979
0.0126369
-4.71386
0.582722
4.13114
2.75905
1.34706
-1.1727
2.72767
1.1446
-1.41863
-0.636609
4.06772
-4.9637
1.04302
-1.89725
0.854229
2.27827
-0.236119
3.3113
0.233363
-3.54466
3.08338
-5.44374
-0.00339005
0.228288
-1.54862
2.62535
-1.07674
-4.05793
4.06708
-0.116893
1.34576
-1.22886
-1.78641
1.54765
0.238762
-0.377843
-0.515747
-1.17873
2.87526
1.25221
0.0413082
-0.71114
0.740576
-0.453305
-1.2887
0.226164
-0.292368
-0.929059
0.88469
0.0443694
0.923574
-1.06648
0.142903
-0.713299
-0.750534
0.662618
-3.13379
-0.19405
-1.34131
0.115524
2.68962
-2.80514
1.49127
-1.67794
0.80599
-3.73536
2.92937
0.979687
3.19683
-4.17652
0.947622
-0.724333
-1.65361
-0.115696
-4.61275
2.08981
3.35527
-3.66875
-0.503178
-6.90291
5.61583
-1.95066
0.799339
-0.290513
-0.255205
0.545718
6.15887
-2.88904
2.12639
-0.247331
-1.12501
-0.681097
1.80611
-5.6532
2.47374
3.17946
-2.46612
2.18308
-1.20696
5.2368
0.736665
-0.456248
-2.88533
-1.07942
0.246584
3.01656
-2.34861
-0.667956
-0.62581
4.25895
-1.13035
1.68518
-0.554824
1.74606
-6.50047
2.86262
3.63785
0.923402
1.02359
-1.947
4.24679
-1.06456
-3.18223
-2.43484
1.34863
-5.27401
0.0484812
1.86783
4.41557
-4.86702
1.89489
-0.869687
-1.94685
3.32169
-9.43313
7.75691
1.67622
3.81448
-4.75498
0.940503
-3.43557
3.61359
-0.178021
2.05087
-2.51099
0.0534399
1.14533
1.20658
2.07336
-4.75829
1.24423
-3.89736
3.67233
0.225033
1.11902
-4.25247
-1.13741
-0.233381
-2.80155
0.575018
1.49167
5.03074
-1.67662
-3.35412
-1.59981
1.17314
-2.76474
0.702719
-4.66032
4.49308
-3.72835
1.658
2.3421
-5.37417
2.57177
2.8024
-1.33512
5.24626
-3.91114
0.107862
0.610344
-1.39114
-4.75247
3.34027
1.4122
3.50427
-5.24755
-5.19975
-0.317223
5.99975
-2.51235
1.14541
1.35054
-2.49594
-0.11953
-0.713679
0.833209
-1.54691
1.66697
2.60246
-2.83691
-2.53726
0.832405
0.869995
1.12254
1.65724
-2.77978
1.74579
-1.07164
-0.123569
-5.40178
5.52534
-1.55789
2.12214
-3.61727
-3.10187
-2.18862
5.29049
1.11769
-1.52568
-3.16864
0.951041
2.21759
0.576508
-0.587632
0.0111237
3.44946
-4.22554
0.976034
-2.52465
1.97043
2.83836
-4.80879
-1.80238
-0.342436
-3.84064
1.06059
2.78005
-4.37881
2.9361
2.30286
-4.97471
2.48314
-1.44012
0.236923
0.339584
-1.29552
4.14979
-2.91181
3.61112
-0.699319
2.06076
0.147312
-2.20807
-2.90835
-0.0810889
-1.12848
0.222479
4.02353
0.515893
0.152086
2.4561
3.14854
-0.720184
2.40367
-0.873198
0.637698
-4.32461
-0.273487
-4.61117
0.896821
0.864614
0.760622
0.904386
-1.66501
2.30884
0.881671
-3.19051
-0.469366
0.469241
-1.55596
-3.3846
-3.71976
-0.574121
-2.35016
5.43354
-1.59314
2.12501
-0.531872
-4.69089
1.59314
-1.27767
2.40021
-2.95876
0.566974
-2.25807
-1.49259
1.57682
-2.94879
-0.467236
5.09001
-0.686725
4.60787
-1.25129
-3.35658
0.245567
1.77311
1.16382
4.78644
-4.44556
0.0379364
-1.05186
1.46895
-2.36039
2.41774
-2.082
-1.53967
1.01984
0.765978
-1.78582
-4.32011
0.0741009
-0.552264
3.62151
-3.06924
0.353759
-3.85305
-3.30184
3.9343
6.64924
-2.95393
-3.69531
-0.586935
1.45009
3.48926
-2.02999
-1.45927
1.18031
-1.31744
0.146515
0.136761
-0.82725
0.0806275
0.746623
-0.565135
2.45452
-1.93385
5.43812
-0.170109
-0.631096
-1.29377
-0.326737
1.62051
-0.136457
3.58592
1.05684
2.04425
-3.10108
-1.77243
2.61465
2.04726
1.95996
-1.86287
-0.261256
2.4065
-0.911441
-1.49506
-0.21524
0.206739
0.00850059
0.684415
-3.82037
3.13595
-4.37741
0.65765
1.01597
2.67443
-1.77761
-0.0537743
1.23408
0.510307
-2.10345
-3.47846
1.89525
-4.89361
1.50593
-2.05265
0.165084
-1.98394
-2.56432
4.54826
-0.460558
1.03303
0.205384
-1.23842
5.02236
-3.67154
3.72976
-2.68842
0.738388
2.48068
-3.21907
1.02726
-1.85315
-4.81896
4.45636
0.362603
1.40777
-0.0899227
-1.31785
-2.12452
5.32648
-3.20196
3.40916
-2.02101
-1.38814
5.37014
1.21271
-6.58284
-2.75054
-3.74992
-1.52088
-0.0259007
-1.53459
3.92472
-0.0820132
0.397868
-0.315854
-3.11326
-0.727374
3.46505
2.81014
-2.49393
2.9399
-0.44597
-1.57009
1.97241
-0.144745
1.83062
-1.68587
0.542382
-1.67273
-0.505695
-4.24678
1.82935
1.46543
0.0986103
-1.30606
0.139065
0.324292
3.48063
-3.80493
-2.36802
-0.619778
5.49957
-4.24181
0.324487
-1.19169
0.791597
-0.115831
-0.675766
0.301069
-1.57378
1.27272
1.11802
2.56157
-4.90307
3.77907
-1.76117
4.02973
-1.9076
-0.468036
-1.16333
1.63137
3.52786
0.373032
0.154744
-3.05664
2.13184
1.77126
-1.90772
-2.3711
-2.94322
5.31431
-2.97743
-2.67577
-5.36056
5.68694
-0.326381
1.73117
-1.77865
1.35469
2.5191
1.25997
-1.7502
0.839504
0.910701
-3.69039
-6.69842
3.88438
-4.7709
0.88652
1.6744
-1.07353
2.05443
-0.784472
2.64236
-4.19832
2.2023
-1.66294
-1.39036
5.80406
-4.4137
3.33854
2.24817
1.2873
-3.53547
5.22359
-3.01309
-2.21049
-2.52818
-3.2016
5.68234
-2.48074
1.58714
3.02074
-1.28909
1.23532
1.99212
3.81336
-0.968925
0.849395
0.087421
-0.0561064
4.51307
-2.51555
2.59396
3.56491
-1.83728
0.930466
0.906815
1.00204
-2.16702
3.54847
-0.237175
3.13042
-1.98501
-3.1665
-0.589924
3.75642
0.837645
-0.181422
-0.656224
0.615064
0.441613
0.62657
-4.49955
-1.25963
1.43331
3.24952
-2.83584
-0.413685
0.760822
1.64568
-0.639868
0.359662
1.16804
0.99019
-2.15823
-2.11495
5.07425
-0.882837
-2.88017
5.59222
-2.71205
-1.31956
1.9172
0.777543
-0.750082
5.00892
-2.4481
-1.54398
1.30952
2.93728
1.32658
-1.52063
-0.823603
0.723709
-1.28507
-0.603728
0.00658442
1.15594
-0.681432
3.76317
-3.08174
0.271858
-0.510409
-1.77423
0.449503
-1.44855
-0.0723342
-2.57739
1.47604
1.10003
0.999952
-2.43084
0.0253441
2.4055
1.22794
0.405619
3.89363
2.03241
-5.92605
-0.397146
-0.10959
0.506736
1.38764
-6.4814
4.44769
2.20155
3.6417
-3.31741
-5.67474
-0.581503
-0.0687247
-0.220866
2.17577
4.44694
0.992862
-5.4398
1.72239
-0.231125
-0.179502
-1.47728
-0.359996
-0.166649
-2.1143
2.64253
3.32892
4.69103
2.61477
-2.69878
0.0840078
0.860612
0.0240783
-0.278388
1.10393
-0.18036
3.4474
0.936959
-4.38436
2.63958
0.376984
-0.991684
0.582215
0.40947
-1.50922
-0.036747
1.54597
1.43749
2.5622
-3.99969
0.960564
1.36342
3.21367
-0.101671
-1.13943
2.51295
0.635593
0.579505
-1.47175
0.892241
-4.11004
2.78921
3.89728
-3.10651
-0.790769
0.079958
-0.63247
0.552512
3.8435
-4.21581
2.48607
-0.811661
1.70884
2.02092
-0.522357
-0.0813714
-1.32083
0.116693
1.20414
-2.59781
-0.5318
4.98768
-2.55209
-2.43559
3.27271
0.0493359
-3.32205
1.861
-3.11108
1.25009
-0.66907
2.2099
0.0612822
-2.77967
4.82592
-2.04625
-1.12804
-0.192791
5.67859
1.47545
0.209723
4.51209
-0.0175781
-4.49451
-0.699645
-0.138282
1.57666
0.773423
-0.131543
1.25382
1.37153
-1.56725
1.29694
0.108555
-0.257873
-0.722618
0.577321
-1.75913
2.49752
0.0493266
1.13851
1.34737
-1.35005
3.04004
-0.241746
2.85651
-0.768782
-0.479159
-0.977199
2.14523
-0.77861
4.09451
-3.3159
-3.70556
-0.520549
-3.68743
4.75415
-1.06673
-0.280457
1.75591
1.37716
-0.259314
-0.0775639
-1.06995
1.14751
-3.63719
1.18909
0.441549
-0.541079
1.43317
-5.41097
1.53211
-3.04068
-2.68305
5.59647
-2.17003
2.20687
-1.21668
0.0491393
-2.84699
3.5314
-0.0172123
-0.65504
0.682828
-2.42405
-0.414942
-2.73665
3.1516
-1.19685
4.3074
6.34266
-4.01186
-2.3308
-0.930824
0.322014
1.02502
0.0906455
-1.11566
-3.5835
0.671691
0.762553
0.1364
-0.050299
-0.507863
0.558162
1.4327
-5.12013
0.396278
1.99973
0.0973491
-2.09708
-4.54805
3.76944
0.658193
0.153457
-0.811649
-3.43074
-2.42172
-0.564917
-0.0348387
0.599756
0.856448
-0.198255
-0.0492234
3.19889
-2.46535
2.6731
2.15239
-1.19182
-4.4714
1.36953
-3.01201
2.39945
0.612559
2.76957
-5.14067
-2.18179
-1.27446
3.45625
0.153869
1.67658
-1.27431
1.11356
5.06399
-0.770788
-4.2932
-0.0177739
-4.30684
6.36738
-0.997246
1.45264
2.03662
-0.636926
-0.0422435
0.619207
-1.13369
-1.48349
0.274386
-0.176965
-0.0974205
0.0378979
-4.70712
4.66922
-0.429159
1.47892
-1.04976
2.25793
-2.81136
0.553431
-0.490352
-2.39129
-0.174639
0.183754
2.97571
-1.48643
-0.796174
2.2826
-1.44546
-1.74865
1.90555
-1.13957
1.30473
0.565867
-1.8706
-3.3524
0.92156
-0.934579
-0.584131
-0.110768
0.694899
0.60907
1.0533
-1.66237
4.85557
-7.0446
2.18903
0.0589417
-2.38136
0.785946
-5.49434
-2.10152
-2.85368
4.9552
-4.24281
0.203146
4.03967
-5.77586
-3.52097
0.0854012
-1.28169
1.28609
-0.00439808
-5.39502
-1.51916
4.96656
1.63844
-0.800751
0.41661
-1.39381
-0.65945
2.02287
0.621477
0.333803
-1.62757
0.0781146
-0.708098
0.629983
-0.696398
0.325893
-0.447625
0.527583
-1.16428
2.08768
-2.35985
4.49611
-2.13626
-2.06713
1.33637
2.5938
0.814907
0.0227386
-1.33656
-0.413643
-2.09135
-1.07728
-2.3061
0.777235
1.52886
-0.307228
2.03008
-1.72285
-1.73872
2.03979
-0.288459
3.09783
5.73885
-4.68201
2.37378
-3.81924
1.89554
-2.56753
0.671987
0.41727
0.0138025
0.0363
0.103713
-4.49984
2.5159
0.114218
3.15849
0.0563506
-0.86242
0.80607
-7.17616
3.00374
0.660517
-1.77382
-0.82002
-0.104402
-0.898184
1.00259
-2.37083
0.884404
-4.50823
4.00253
5.21806
-3.24763
-1.09894
1.0119
0.0870401
-0.386745
-0.0711308
-0.615216
-2.61161
2.31355
0.298058
-0.577631
0.468041
-0.234832
1.48794
-1.25311
1.29401
1.19206
0.760346
-0.341139
-0.419207
-1.18075
1.23007
0.525693
-0.0983991
1.73582
-0.49164
4.54933
0.332345
-5.11229
-0.378451
4.17186
-0.107369
-4.06449
-0.971538
-0.939864
1.9114
1.96612
-4.28277
-0.913266
3.57653
-2.66326
-0.203465
-0.0295137
0.232978
-4.04405
3.9297
0.114358
-1.76555
2.57154
4.29108
1.53367
2.00437
-0.892355
-1.11202
0.416143
1.05226
-1.4684
-0.516167
-1.3444
-0.0540369
-1.28065
-0.0637552
0.0752822
-1.48817
1.41288
-0.38978
4.16366
-3.77388
-3.65689
1.46106
2.19583
1.14226
4.06237
0.150847
0.0862107
-0.237057
2.42692
1.00855
-3.43547
0.279664
-0.570176
-1.96409
4.31591
-2.35182
-3.75248
0.585986
2.93216
1.14189
-3.32368
-0.0153083
-0.521913
0.537222
4.65602
-1.3333
-3.32272
1.81987
0.958332
-4.30872
2.39999
4.97988
-5.10345
-2.23455
0.550434
1.68412
-0.24569
0.883388
1.2547
-2.13809
0.503386
-0.309589
-0.193797
-0.0496403
0.511554
-0.461914
1.85388
-2.03684
0.182965
-2.3889
5.03126
-1.20822
1.28866
0.924218
-1.15905
1.47076
-2.3054
0.834634
-4.28797
-5.14516
-0.582158
-0.178124
-0.257009
-0.0508994
0.307908
5.03335
0.28719
-5.32054
0.488134
2.76139
-0.999764
-0.586849
-2.38434
0.33277
2.04711
1.72271
-3.76982
0.0191084
-0.0807684
0.06166
-0.0678861
1.4962
0.622279
-0.718283
0.0960045
5.40023
-1.9761
-3.42413
-4.2973
1.08748
1.77196
-4.14437
-0.00771245
4.15208
1.54054
-6.138
-1.91893
1.20632
0.233259
-0.196959
-2.92276
4.84706
-1.9243
0.596049
0.140617
0.368692
0.967334
-0.990557
0.820448
-1.38824
2.27761
-4.55115
4.48834
0.0628073
2.80724
-1.62083
-1.18641
4.07372
-2.9557
0.989526
0.262544
-1.00446
0.823805
-0.0973502
-1.66591
2.80534
-5.47279
-4.61937
1.83971
-0.638919
1.2064
0.584749
0.271699
-0.19173
-0.0117343
3.81641
-3.86131
0.0449016
0.642644
-2.10766
0.797099
1.31056
0.380724
-1.43258
5.68714
-3.85575
-1.0222
0.840781
-0.681442
-1.17426
1.85571
-3.38807
0.706554
0.992977
1.60476
-2.59774
1.09001
0.317759
-1.13211
-2.85161
5.49103
2.46016
-0.117691
1.00721
-2.16692
1.15971
-1.12311
1.4476
-2.65338
-4.52278
-1.20077
-0.585638
2.86512
-4.49653
4.31235
0.184173
-0.103666
-1.32191
0.128749
-1.4948
1.36605
-4.36989
-1.97626
-0.657549
0.622711
4.63739
2.17356
0.80949
3.80093
-3.32543
-2.51637
3.96686
-0.218469
-3.74839
4.35386
-4.76222
5.40168
-3.04807
-2.35361
1.33005
0.77366
-2.10371
-2.31161
3.40629
-1.09468
-6.50382
3.51412
2.9897
-0.149451
1.04208
3.57708
-2.4829
-2.92227
5.40517
6.88322
-5.34269
-3.25394
-0.159378
2.36661
-0.621638
2.11161
-1.48998
-3.66622
5.09892
-5.26748
0.442197
-3.04855
2.60635
1.78207