/*--------------------------------*- C++ -*----------------------------------*\
| =========                 |                                                 |
| \\      /  F ield         | OpenFOAM: The Open Source CFD Toolbox           |
|  \\    /   O peration     | Version:  2306                                  |
|   \\  /    A nd           | Website:  www.openfoam.com                      |
|    \\/     M anipulation  |                                                 |
\*---------------------------------------------------------------------------*/
FoamFile
{
    version     2.0;
    format      ascii;
    arch        "LSB;label=32;scalar=64";
    class       surfaceScalarField;
    location    "6.4";
    object      phi;
}
// * * * * * * * * * * * * * * * * * * * * * * * * * * * * * * * * * * * * * //

dimensions      [0 3 -1 0 0 0 0];

oriented        oriented;

internalField   nonuniform List<scalar> 
20045
(
0.581996
-0.702306
0.12031
-1.18223
0.550386
0.631845
0.259694
1.94733
-2.20702
0.608439
-0.82776
0.219321
-1.10709
0.95681
0.150282
-0.525242
2.03381
-1.50856
-1.1848
0.236134
0.948669
0.0599975
0.554639
-0.614636
0.573979
0.490428
-1.06441
-0.585706
-0.251364
0.83707
0.282654
-0.462779
0.180126
1.94066
-1.03167
-0.908997
0.484365
-0.467932
-0.0164323
-1.10918
0.877201
0.231977
-0.137951
1.08568
-0.947733
-0.964799
0.379092
0.00948782
-0.099735
0.0902472
0.748609
0.86101
-1.60962
-1.55089
2.22002
-0.669127
-0.790758
-0.0825626
0.873321
1.16958
-0.973578
-0.196006
0.180388
0.303976
-0.312053
-0.870179
0.73627
0.544903
-1.28117
0.858351
0.0350522
-0.893403
-0.503613
1.23988
0.0443756
-0.0433196
-0.00105601
-1.14416
2.51654
-1.37238
0.78866
0.331381
-1.12004
-2.68178
2.10435
0.577435
0.402566
-1.18584
0.783274
1.35558
-1.29248
-0.0630971
-0.501944
1.39037
-0.888422
3.28889
-1.93068
-1.35821
-0.703944
0.763941
1.77995
-0.871107
-0.90884
1.17482
0.493341
-1.66816
-0.0793936
0.486613
-0.407219
-2.82455
1.74464
1.07991
0.702541
0.591688
-1.29423
0.00196318
0.614403
-0.616366
0.208059
-0.294394
0.0863358
2.55849
-2.5452
-0.0132985
1.3471
-0.383495
-0.963606
0.533052
0.814049
0.954453
0.98621
-0.284201
0.409081
-0.12488
0.866492
0.263993
-1.13049
1.79335
-0.61853
0.238355
1.70959
-1.94795
1.33022
-2.20018
0.86996
2.55636
-1.63009
-0.926263
-0.624862
-0.894345
1.51921
-0.108929
-0.381021
0.48995
-0.980309
1.59627
-0.61596
-0.821021
-0.286071
0.413002
1.0587
-1.4717
1.96696
0.64155
-2.60851
1.12776
-1.62971
1.89629
-1.54915
-0.34714
0.371133
-0.414874
0.0437411
0.482317
1.41397
0.0587878
-1.41299
1.3542
0.788992
0.380592
-0.43379
-0.454151
0.887941
1.28492
0.552276
-1.8372
-0.216217
0.73297
-0.516753
-0.708291
0.0238218
0.68447
1.01413
-0.440152
1.46004
-1.50098
0.0409379
-0.596443
0.380226
-1.65717
0.676865
-0.322923
-1.13786
1.46078
-0.0135442
-0.0137552
0.0272994
1.46824
0.0249732
-1.49321
1.32511
-0.912112
-0.367656
1.8359
0.738263
-0.876214
0.0931908
-0.39028
0.297089
-0.220561
-1.56006
1.78062
0.882053
0.976656
-1.85871
0.864001
-0.837397
-0.0266041
1.01487
-0.956078
-2.32424
0.298886
2.02535
-0.0422275
0.624223
-0.257724
0.459115
-0.201391
-0.500401
-0.620086
1.12049
-1.58466
0.0359746
1.54868
0.932985
0.339434
-1.27242
-0.82713
0.608965
0.218165
-1.58869
0.337167
1.25152
0.924252
-0.213033
-0.711219
0.472798
-0.736275
0.263477
-0.323156
-0.778431
1.10159
0.719891
-0.772636
0.0527447
1.15975
0.177969
-1.33772
0.0395577
0.00481795
-0.104777
-0.545193
0.64997
1.41129
-0.708751
0.0301747
-0.0652717
0.035097
1.21316
0.566788
-0.464374
-0.644805
-0.839068
0.73429
-0.795772
2.76273
0.160582
-0.418305
-0.000862576
0.0310373
0.362233
1.28746
-1.64969
1.07236
-2.63829
1.56593
-0.191011
-0.5929
0.505331
0.0875688
-0.317522
0.403975
-0.086453
1.2763
-1.28591
0.00960248
-0.614738
0.505809
1.65363
-2.48083
0.827199
-0.32115
0.436766
-0.115616
0.0631351
-0.387166
0.32403
1.01152
-0.153166
2.45781
0.83108
-1.33253
1.00961
1.14985
-1.93017
0.780326
-0.876478
1.62509
-0.0394534
0.410586
-0.949945
0.770976
0.178969
-1.75219
0.135928
-0.729994
0.594067
1.56626
0.990097
1.17763
-1.63583
0.458196
1.55937
0.149802
-1.70918
-3.0356
2.23543
0.800171
0.245898
0.718785
-0.964683
2.56413
-0.997873
0.188244
0.220837
0.0276714
-0.0398815
0.0122101
0.0138336
-0.0441331
0.0302994
1.15566
0.787622
-1.94328
1.25351
-1.03761
-0.215903
-0.252461
-0.0133312
0.265792
-0.425127
-0.167773
2.11973
-0.96988
-0.813616
0.837166
-0.0235501
1.02996
-2.04184
1.01187
0.548912
-1.17377
0.65877
0.769426
-1.4282
2.32765
-2.54821
2.26739
-0.287058
-1.98033
0.829809
-1.67091
0.841099
1.40893
-0.713513
-0.695422
-0.302532
0.264626
0.0379059
-0.139108
2.02573
-1.88662
1.31889
-0.530225
-1.64041
0.0387956
1.60161
-1.22705
0.888247
0.338801
1.67856
-0.796509
0.150662
0.713339
-1.24869
1.43496
-0.186278
-1.67218
1.93188
0.0221103
-0.503361
0.481251
0.0359194
0.022638
-0.0585574
-0.0470344
-0.460697
0.507732
1.11925
0.396057
-1.51531
2.56206
-1.27067
-1.29139
-0.551729
0.504695
1.51971
-1.44012
-0.0795827
0.250492
-0.042433
-2.42587
-0.84513
1.14121
-0.296081
-1.14232
0.910506
0.231809
-0.00965738
-0.164703
0.17436
0.872921
0.536014
-0.0436262
0.0574599
-0.00133594
0.0290074
-1.29782
0.0491326
-1.50062
1.85057
-0.349944
-1.54408
1.57731
-0.0332236
-0.952231
-0.708739
1.66097
-0.994025
0.146185
0.84784
0.665412
-0.791246
0.125834
1.78613
-0.0111613
-1.77497
-0.0656034
-1.48932
1.55492
-0.963143
1.62191
0.43688
-1.2668
0.82992
-0.899867
2.5535
-1.61281
1.2763
0.336509
-0.143381
0.151159
-0.00777807
1.00914
-2.15021
1.14108
-1.99116
0.846997
-0.902288
-1.4923
2.63612
-1.94052
-0.695608
-0.757472
0.759435
0.384066
-0.408973
0.0249075
-1.25151
-0.578828
1.83034
-1.86201
2.67519
-0.813181
2.67207
-2.3473
-0.324763
-0.110199
-0.3101
0.420299
-1.40492
-1.08581
2.49072
0.362894
-0.0802407
0.98475
-0.738852
-1.36975
-0.428026
1.79778
0.269823
0.0695642
-0.339387
0.16319
-1.00832
1.07939
-0.676828
1.63605
-0.0766789
-0.392784
0.313391
-0.443901
0.552271
-0.10837
-0.673354
1.79261
-2.73331
1.3284
1.41601
-1.10617
-0.309842
-1.56357
0.380515
1.18305
0.510518
2.16155
2.29048
-1.28134
1.9045
-2.83249
0.927992
0.843395
-1.01127
0.167873
0.190695
-0.981453
-1.06031
1.42254
1.21248
-1.73773
-1.24564
-1.45536
2.70099
-2.84756
1.13009
1.71747
-0.210183
-0.616947
0.410058
0.387269
-0.797327
1.18089
-0.425797
-0.755096
-0.0557839
-1.40315
1.26404
-0.610148
-0.203467
1.19231
1.34474
-1.28353
-0.0612102
-0.0290035
-0.340419
0.369423
1.19933
0.197466
-1.39679
0.704685
-0.0397337
-0.664951
-0.303354
3.23502
-2.93167
-1.58203
1.08163
1.31281
-0.875929
-0.300871
0.904856
-0.603986
1.72059
-0.690631
0.281252
-0.0203372
-0.260915
0.922913
0.0511686
-0.974081
-0.313715
0.325328
-0.0116127
2.81505
-2.02214
-0.792914
0.565261
-2.42727
-0.346109
0.0323941
-1.66036
0.375032
1.28533
2.23121
-0.840847
0.448333
-1.94896
3.28904
-1.60775
-1.68128
-0.0390091
0.308832
2.30294
-1.7775
-0.525439
-1.22582
0.14356
1.08226
-1.89342
1.83081
0.0626054
1.19745
-1.69673
0.499283
-0.12074
0.0238229
0.0969168
-0.966524
1.13089
-0.164367
-0.250266
-0.215295
0.46556
-0.406262
0.085112
-0.380391
0.062869
-1.15396
-1.48433
1.52258
-3.86906
2.34648
1.11624
-0.265075
-0.851166
1.15106
0.204524
0.609375
-1.85501
-0.356903
0.392822
1.1105
1.12071
-1.12385
0.209693
0.914157
1.43977
0.863161
0.979464
0.106219
0.563295
0.552947
-0.687189
-0.104086
0.791276
-0.0201693
-0.123212
-2.9406
2.63725
-0.679393
1.27919
-0.599795
-1.94824
1.87619
0.0720479
0.90945
0.135819
-1.04527
-0.18879
-0.362485
0.551276
1.49135
-1.70315
0.211801
-1.32126
-1.52631
2.0164
-1.4197
-0.596706
-0.266629
0.237626
1.82124
-0.623791
-2.26002
3.78261
2.26206
-0.929737
-1.33232
2.70357
-1.25804
-1.44553
1.57483
-0.606449
-0.968377
1.31842
0.943632
1.85631
-1.12577
-0.73054
-0.454628
1.67163
-1.217
1.07435
-1.41295
0.338595
0.367665
-0.341644
-0.0260209
0.0673466
-0.0249294
-0.0424172
2.248
-1.93449
-0.313504
-1.68566
-1.34994
1.06166
0.283084
-1.77481
-0.173429
-0.177176
1.10009
0.988266
-1.78841
0.800149
0.00714432
0.376921
-1.06457
2.22023
0.842712
1.97234
2.96574
-2.1062
-0.859537
-1.72639
1.29836
1.21691
-1.91784
0.700932
-1.23666
-0.198551
1.43522
-0.752918
-0.331658
1.08458
1.22045
0.299254
1.61151
-0.195503
0.861313
-0.414712
-0.877772
-1.21226
1.92892
-0.716656
-0.528253
0.0843518
-0.47738
0.176509
0.169712
-2.06313
-0.334434
-1.2476
0.541841
-0.41702
0.554153
-0.137133
-0.0738886
0.682327
-0.856314
0.544609
0.311705
1.06252
0.213782
-0.583553
0.368559
0.214994
0.884891
0.368624
-0.741594
1.72986
1.18264
-0.24965
-0.541425
-1.02214
4.57969
-2.88089
-1.6988
1.77826
-2.06756
1.23939
0.828171
1.57125
-1.7787
0.207445
-1.01955
0.696392
-0.329353
0.0768918
-0.643027
-0.945663
0.767069
-1.25886
0.491794
0.897515
0.958798
1.02108
-1.78095
0.75987
0.663455
-1.25899
0.595537
-1.95044
0.365784
0.0696306
0.854621
-1.41755
1.37806
0.0394924
-0.379962
0.677402
-0.29744
-1.19553
0.0107282
-0.297659
-0.559044
0.856703
0.285434
0.000216579
-0.28565
-0.68445
-0.542598
0.643049
0.934537
-1.57759
2.07624
-0.636466
1.63909
-0.90136
-0.118188
1.13582
-0.472366
-1.46466
-0.148153
-0.131735
0.0604077
0.0713272
1.26414
-0.397646
-1.12184
1.66214
-0.540303
-0.319455
0.388617
-0.0691618
1.13399
0.0468996
-1.19739
-0.591026
-1.16793
1.98411
-0.816182
0.973664
-1.75851
0.784842
0.818461
1.19794
-0.0425155
0.0441765
-0.00166091
0.289971
-1.52664
1.14263
-1.75
0.607375
0.0522148
-0.065759
-0.255079
1.43271
-1.54629
1.21185
-0.121267
0.964661
0.322685
-1.87358
-1.35163
1.15759
0.194039
1.4163
-0.374989
-1.04131
1.91721
-0.425854
-1.55169
-0.906879
-0.777903
0.943599
-0.374862
0.112904
0.261958
0.681065
-0.763627
-1.65497
1.39989
1.98503
0.573462
-1.73329
0.611454
1.33909
-0.277435
0.472742
-0.282039
-0.190703
-0.0370499
-1.07466
1.11171
-1.79284
0.312562
1.48028
1.61274
-1.61274
-1.30829
1.97672
-0.668432
-0.0431039
-0.540449
0.94407
-0.53582
-0.40825
-2.01197
2.09957
-0.0875965
0.818217
-0.0718709
-0.746346
0.639181
-0.177489
-0.461692
0.33357
-0.52236
-0.186617
1.73398
-3.994
-1.56416
1.86378
-0.299623
-0.625226
1.26827
0.108516
0.0109392
-0.119455
-0.0282258
0.848963
-0.820737
-0.789163
0.979858
2.54431
-1.71297
-0.831338
-0.254588
-0.957314
1.2119
-0.597045
0.622626
-0.0255803
0.422073
-0.613064
0.190991
-1.96017
0.978572
0.9816
-0.547199
-0.280561
0.388251
0.0844911
0.00135363
-0.111194
0.10984
1.14338
1.10461
0.110675
-0.00215955
-0.230609
-0.361786
0.592395
-1.10879
1.75309
-0.644305
0.01713
0.397074
-0.414204
0.996699
-0.760565
0.704922
-0.33999
-0.364932
0.182656
-0.961087
0.347901
1.43823
1.02151
0.574186
-1.59569
1.05624
-0.761703
-0.294536
-2.0288
0.388398
-0.607781
0.319606
0.288176
0.559978
1.49119
-2.05117
-1.35223
1.15368
0.132776
-1.82978
1.697
-0.360462
0.250262
-0.174062
0.185776
-0.0117136
0.0965283
-0.783717
-0.0209875
0.0628195
-0.041832
-1.41376
-0.246597
1.22186
1.55011
-0.672294
-0.87782
-0.368184
0.0487289
0.224079
-1.33773
1.11365
0.435163
0.962952
-1.39811
0.529924
-1.38005
1.60843
-0.228383
-1.50759
1.05297
-0.00887686
-0.0344428
-0.741392
-0.400923
-0.643352
0.132857
0.510495
-1.89412
0.785329
1.24458
-1.49916
0.436508
0.902583
-0.784808
0.740668
0.04414
0.102687
-1.60804
1.50535
0.461212
-0.659315
0.198103
0.597784
-1.79517
-1.34477
-0.199311
-0.784789
0.0764975
0.116535
0.0985644
-0.2151
1.22305
0.0643562
-0.0850129
0.0206566
1.8989
-1.33892
-0.555868
1.62933
-1.07346
0.580059
0.469339
-1.0494
-0.66734
0.306878
-0.583908
-0.0594434
0.6059
0.33817
-0.682004
-1.24817
0.0182692
-0.150004
1.15862
0.975144
0.207491
-1.66588
1.90423
0.114642
-0.677203
0.562561
-0.18545
-1.64667
1.83212
0.339087
-0.382657
0.0435698
-0.0162794
-0.977745
-0.21221
1.28656
1.77455
-0.944743
-0.629034
-0.22728
-0.0573631
-0.908844
0.966207
0.68254
-1.63477
-0.100881
-0.892821
0.993703
0.291882
-0.941916
0.650035
-1.24335
-0.0364485
1.2798
1.10863
-0.844639
0.0209977
0.252776
-0.273774
-0.528367
-0.0686787
0.426554
0.800829
-1.22738
0.324279
-0.396306
0.0720278
1.05555
0.596735
-1.65228
-0.495002
1.65476
0.26781
0.0176237
-1.26409
-1.45595
2.72004
0.908018
1.21171
1.6935
-1.25834
-0.846643
0.548984
0.0171081
0.0502385
-0.617635
1.83454
0.206282
-1.49248
1.2862
1.60602
-0.225978
-1.38004
-0.737573
1.18162
-0.444051
0.744186
-0.793826
-0.666633
1.46046
0.112483
-0.116779
0.00429563
-0.537235
-0.989292
1.52653
0.840887
-0.869113
0.179027
-0.188685
1.02961
-1.56685
-1.37216
-0.465881
1.83804
-0.00234952
-1.09389
1.09624
0.70948
2.22892
-2.32254
0.0936199
0.464368
-0.154959
-0.309408
-0.0434604
-0.741347
0.49052
0.611067
-0.810845
0.0579269
-1.60075
2.00039
-0.399645
0.426685
-1.10608
-0.0912477
2.4189
-1.95323
-0.591961
-0.0398369
0.131498
-0.0916615
1.06206
-0.0869124
-0.505603
0.552169
-0.0465662
-0.540787
0.290521
-2.67983
1.77754
1.70596
0.327848
-0.133745
0.555819
-0.505213
1.08527
3.62957
-1.89559
-0.516366
0.0107632
-0.301899
-1.35307
0.403638
0.582339
-0.560229
-1.84495
0.0521173
-0.0223234
0.510345
-0.0491337
-1.8337
0.948584
0.885119
1.23978
0.220261
0.505704
-0.192714
-0.31299
0.700928
-0.630128
-0.0707998
-1.36135
0.490241
-2.22169
1.05376
-1.10718
0.730392
0.376788
-0.0137987
-0.387609
0.401408
1.94215
-0.0401252
-1.90203
0.459411
0.0311196
-0.49053
-0.325534
-0.624411
0.563524
-0.090726
-0.0789628
0.0749813
0.00398153
0.95446
-0.0795672
-0.874893
-0.0139419
-0.0650209
1.09773
-0.919759
-0.0631756
-0.362391
0.425567
-2.01849
0.417741
-0.0229025
-0.0812097
-0.757858
0.536912
1.0132
0.0654711
-0.422374
0.549435
0.419391
-0.968826
-0.838989
0.405199
0.656646
-0.542004
0.527092
-0.463957
0.289075
-0.669037
0.0758692
-0.4606
0.384731
1.19115
-0.241226
-0.949928
-1.09359
-0.57732
0.393797
-0.24045
-0.153347
0.551713
-0.660546
0.108833
2.1832
-0.0661527
-2.11705
0.0863384
-0.184071
0.0977328
-1.0456
1.46664
-0.421038
1.12886
1.05599
-2.18485
-0.499018
0.0841438
-0.664691
1.01132
-0.346632
0.528462
0.215162
-0.743624
-1.87087
1.17144
0.699436
0.0655339
0.00944739
-1.70149
0.329331
0.745754
-0.423538
-0.322216
0.78563
-1.11632
0.330686
-0.274152
-0.428154
0.252823
1.97609
1.66227
-0.337174
-1.32509
-1.56822
0.188171
0.655105
-1.19653
1.74975
-2.86667
1.11692
-0.269593
0.679651
-0.00295786
-0.685411
0.454802
-0.3803
0.516228
-0.519673
-2.28468
2.80435
1.45965
0.361589
-1.48888
1.58683
-0.097948
-0.0369951
0.15353
-1.09938
-0.333769
-0.297342
0.335002
-0.0376594
-0.807418
0.328906
0.478512
-0.00239084
0.824932
-0.822541
-0.254608
1.04024
-0.838213
-0.474261
1.31247
-1.66939
-0.51576
2.18515
0.819627
-0.763241
-0.0563862
-0.571159
0.0371527
0.534006
-0.114087
-0.111442
0.225528
-1.84603
0.0712621
1.77477
0.0395547
0.481482
-0.521037
1.52336
-1.68929
0.165934
-0.842273
0.702105
-0.38752
-0.314585
0.0343939
-0.331736
-1.24311
1.20036
0.0427444
1.65943
-2.5593
-1.8932
1.65527
0.237921
0.384577
-0.0602987
2.53783
-2.62908
-0.183203
-0.211829
0.395033
-0.0294832
0.399274
-0.369791
-0.205418
1.37819
-1.17277
0.869043
0.0266591
-0.895702
2.02796
-1.92882
-0.099142
1.26227
-0.482757
-0.779512
0.0786735
-0.552155
0.473481
-0.694472
-0.0355223
-2.09895
1.82155
0.277399
0.0877195
-2.18667
-0.148127
0.685032
-0.536905
-1.00128
-0.933211
0.514584
-0.398017
-0.116567
-1.56581
-0.452682
-0.476816
0.348203
0.128614
0.856245
-0.151561
-1.96399
1.88242
0.0815691
-0.305803
-0.0162792
0.00252396
0.503183
-0.0437722
-1.07632
0.109799
0.418136
-0.433183
0.0150464
-0.370805
-0.729144
1.09995
0.905122
-0.0869044
-0.491922
1.1276
0.006397
0.747396
1.73137
-0.686644
-1.04472
-0.228988
0.8944
-1.40283
0.909922
0.492906
0.0879092
-0.0223753
1.90182
-0.442162
1.14479
-1.04211
-0.262503
-0.362871
0.625374
0.590335
-2.72932
2.13898
1.23203
-1.23438
1.62243
-0.725436
-0.896993
-0.0131427
-1.17737
-0.225458
-0.899993
1.75985
-0.859861
0.111758
-0.520686
2.42518
-2.08095
0.515139
0.159192
0.208473
-0.246637
-0.0406994
0.335364
-0.0100363
-0.850881
-0.822185
1.99141
-0.6663
0.512717
0.100675
-0.613392
0.0812845
0.557897
-1.63037
-1.21995
2.85031
1.33381
-0.113356
-0.0174574
-0.35874
0.376197
1.64278
0.194899
-0.0728012
-0.122097
0.0254119
0.0504573
-0.711782
-1.89792
0.333764
-0.529747
0.0323398
0.497407
1.54431
1.74473
-0.378002
0.0109733
0.367028
1.92624
0.101719
1.30667
-1.84066
0.533983
-1.6165
0.0233449
1.59315
-1.72644
2.2038
-0.477363
0.358863
-0.019347
-0.339516
-0.905779
2.56521
-0.736752
1.09897
-0.362219
0.0773437
-1.56623
1.73967
-0.883035
-0.856637
-1.78987
2.31265
-0.522784
-0.478806
1.2449
-0.76609
2.32457
-1.02815
-1.29641
0.115057
-1.20165
1.0866
0.152806
0.0329696
-0.849536
1.9784
0.651435
-1.95972
1.69812
-0.724451
-0.44343
0.380255
-1.6569
0.0404035
1.84987
-0.828794
0.060432
-2.38467
0.640528
-0.0261251
1.54029
1.33115
-2.87143
1.10453
-0.379082
-0.725452
0.743411
-1.62852
0.885111
-0.38964
0.0210292
0.368611
-0.444473
-1.06278
1.50725
0.779783
-0.490709
-0.604397
1.37662
-0.772227
0.248124
0.367925
-0.616049
0.165978
0.348606
-2.17256
2.55556
-0.383
0.393864
-0.0547768
0.943111
0.496024
-1.43913
0.553378
1.22419
-1.77757
0.465447
0.950853
-0.0693775
2.33677
-0.0314522
1.58715
-1.55569
0.0339656
-0.0168356
-0.0772787
0.128365
-0.0510866
1.21157
-0.889272
-0.322302
0.758961
0.863469
-0.118917
0.0883728
0.0305442
-0.442944
1.51466
-1.07171
-0.0293798
0.449957
-0.420577
-0.673023
-1.69251
2.36554
-0.968419
-0.806698
1.77512
1.46842
-0.269098
0.455742
0.648792
0.981077
-1.07687
0.0957925
0.641423
-1.59874
-0.59863
0.338509
0.26012
0.430422
-0.0532055
-0.377216
-0.0466272
0.199433
-0.095229
1.23452
-1.13929
-0.342736
2.05233
1.43779
-1.26353
-0.174257
1.36666
-1.02722
-0.914012
0.408056
0.505955
0.142834
-0.678654
-1.08444
0.616229
0.468215
0.173824
0.33188
0.297658
1.45675
-1.75441
0.566912
0.387548
0.249099
-1.91849
-1.11793
0.294678
0.823248
-0.783747
-0.487821
1.27157
1.13263
-0.583196
-1.67406
1.04883
0.533577
-0.43669
-0.0968867
-1.4941
3.26539
-1.7713
-0.859832
1.04249
-1.27262
1.25541
0.0172148
-1.14873
2.66838
-1.51965
-0.0464652
0.507116
-0.460651
0.410786
-0.424585
-2.12838
-1.36312
2.3252
-0.962083
-1.12612
1.50664
0.966445
-1.13859
0.172146
0.38226
-1.00444
0.622177
-2.12364
1.28877
0.834868
-0.0419545
-0.174356
0.21631
-0.295451
1.17748
-1.3829
2.63611
-2.04578
-0.126509
-1.22512
-1.41246
1.38101
0.842287
0.0682191
0.536028
0.242915
-0.778943
-0.773787
0.721574
0.0522135
1.44216
-0.377662
-1.0645
0.355376
0.730752
-1.08613
-1.10457
-0.683384
1.78795
-1.3255
-0.432044
1.75754
0.999057
-0.616798
0.563649
0.647924
-2.23081
1.06217
1.16864
0.916993
-0.908347
-0.00864614
0.0143356
0.474018
-0.57828
0.104262
-1.05215
1.17262
-0.817242
0.341406
0.48111
-0.402437
-0.371747
-0.435671
-0.00848033
0.727265
0.0623791
0.657512
-0.164499
0.279368
-0.114869
-1.47216
-1.12681
2.59897
1.1239
-0.142819
-0.963116
-0.100404
1.06352
0.217427
0.508035
-0.725462
-0.00643404
2.22154
-1.43748
-0.784057
0.412168
1.2501
0.142925
0.360159
1.11693
-1.47709
-0.842197
1.51619
-0.673988
-1.05749
-0.417472
1.47496
-1.04026
0.375565
-0.573795
-0.340217
1.91073
-0.938391
-0.97234
-0.292378
-0.675468
0.967846
0.566805
0.252017
-0.818822
-0.421083
0.460637
0.0477274
-0.390007
0.34228
0.651917
-0.0618858
-0.489844
-0.0188881
1.03608
0.874655
-0.569355
2.31399
-0.339879
2.44423
-0.773902
0.481524
-1.55853
0.501034
1.52127
-1.2313
-0.310838
-1.38651
0.340903
0.428892
-0.577019
1.25235
-1.2894
1.68036
-0.109105
-0.425126
-0.311149
-0.275626
-0.211243
0.486869
-0.692909
-0.0797266
1.55278
0.278985
-1.83176
-0.104562
-0.503632
0.608194
-0.275921
1.3816
-2.22671
0.845103
1.6189
-0.0955424
-2.8194
3.25751
-0.438108
0.427369
-0.403547
-1.71595
-0.407688
-0.458829
1.85467
-0.0331229
2.13547
1.96884
-0.775577
-1.19326
-1.12862
-0.108077
1.23669
0.430355
0.842046
-1.2724
-1.43752
0.194166
-0.402765
-0.0641894
0.466954
-0.96144
1.16772
0.382199
0.898232
-1.28043
-0.115201
0.441978
-0.326777
-1.72466
0.191349
1.53331
0.265382
2.37073
-0.603594
0.90103
0.361239
-0.336407
-0.271374
1.91736
-2.20441
-1.08849
0.340437
0.748058
-0.100837
-0.398181
1.35253
0.0135358
-1.36606
2.04184
-2.38172
-0.0019741
-0.118766
-0.830001
0.683007
0.146993
0.179359
-1.42246
-0.0613601
0.665926
-0.604565
-0.18478
-0.161259
0.346039
0.945713
-0.961992
-0.604775
1.25988
-0.236395
-0.870785
-0.369179
0.403573
0.633186
-0.67292
-0.073463
0.0972859
-0.457167
0.435627
0.0215403
0.487614
-0.536285
0.0486706
-1.23446
1.25943
0.161204
-1.12432
-0.0936998
-0.663772
-0.125558
1.19106
-1.06551
0.738222
-0.842309
0.115808
-1.35531
1.2395
0.179002
2.66494
-2.84394
0.668002
-1.88026
1.67858
-0.0441369
-1.84906
0.591598
1.39982
-1.39645
-0.277609
-0.889133
-1.17842
-0.953241
0.394197
0.0515259
-0.00515176
-0.0463741
2.96824
-1.42392
1.49157
-0.348946
-0.503854
-0.376424
0.880278
-2.08174
0.99115
1.09059
-0.176225
-0.286554
0.638676
0.0634297
0.384827
-0.204439
-0.16742
0.282616
-1.01937
-0.170654
-0.221654
0.392308
-0.245155
1.79793
0.926932
-0.399775
-0.527157
1.83717
-2.2588
1.03411
1.2247
0.325912
0.622134
-0.948046
-0.205841
-0.0255187
0.23136
-1.17348
0.694678
0.5306
-0.147419
0.714224
1.76196
-1.94741
0.931187
-0.402726
-0.688366
1.32979
-1.56364
1.12066
0.442974
-0.473416
-2.04182
2.51524
-1.30684
1.48557
-0.178735
0.626079
-0.855067
0.0294454
0.266812
0.552815
0.436377
-1.99644
1.54961
-4.65277
2.52169
2.13108
0.449394
-1.57801
1.24691
0.0307902
-1.25661
0.254384
1.06738
2.07683
-0.751283
-1.32555
-0.796164
0.519822
-1.30357
0.388756
-1.76036
1.65229
-1.30563
0.511807
0.889127
-0.78096
0.182344
0.598616
-2.2687
1.21901
1.04969
-1.41775
-0.50159
0.793471
-2.00986
1.43416
0.5757
1.66303
-2.56881
-2.16454
-0.00801249
2.87422
-1.12448
1.30978
-0.861436
-0.448349
-0.0548937
-0.344192
0.399085
0.152944
0.771683
1.01652
-0.260396
-0.520565
0.218471
0.561312
0.315719
0.811784
-1.1275
0.874942
-0.487673
-0.0700299
-1.85837
1.9284
-0.697986
0.461838
-1.42498
-1.25368
-0.893545
2.14723
0.538126
-0.751159
-1.46847
0.462897
1.00558
-0.0269073
0.0694608
-0.0425535
2.17149
-2.69116
-0.388114
-0.441887
2.4167
-0.756899
-1.6598
0.149901
0.362816
-1.70568
0.507252
1.19843
-1.84875
0.880334
0.724582
-1.56678
-0.260026
-0.828468
-0.00851235
-0.018395
-0.0705041
1.67652
-1.13038
1.53536
-0.404975
1.51105
0.00470882
-1.51575
-1.08038
-0.00557957
-0.411441
0.0973533
1.51538
0.320732
0.0678854
0.444526
-0.641812
0.598708
0.994845
1.40691
0.0352529
-1.83645
-0.127545
-1.57335
0.25738
-2.03488
0.407329
0.40885
-0.816179
1.82169
0.0992712
-1.92096
-0.269383
0.250036
-0.75339
-1.4683
-1.48877
-0.289932
-0.513229
2.55507
-0.669075
1.0137
-0.344624
-2.08686
0.614707
-0.675808
0.991527
-0.918803
-0.9149
-0.760371
-0.430257
0.556091
0.640741
-1.01155
2.13944
-0.284763
0.28007
0.302701
-0.582771
0.246083
0.658773
0.606875
1.97389
-1.84112
-0.157405
-0.476499
0.739976
-0.896236
1.10593
-1.00907
-2.61551
0.48961
0.384021
-0.873631
-1.65387
0.0411357
-0.32538
1.55772
-1.23234
-0.0644155
-2.75499
-1.21402
1.41149
2.49504
-1.1838
-1.31124
-0.116433
0.436039
1.48014
-0.49884
-0.981299
0.589997
-0.651883
0.110029
-0.187308
-0.224738
-0.106144
0.330881
-0.22461
0.760637
-0.973044
2.63607
0.0115164
-0.409533
-0.554923
-0.256743
0.811665
-0.184994
2.35648
-0.757322
0.433573
0.323749
-0.799457
1.22601
0.681752
0.832905
-0.956636
-0.16129
1.15747
-0.436083
-0.721388
0.0463815
-0.119333
0.0729512
0.203122
-1.321
1.11787
-1.80155
0.312786
0.476161
-1.76934
2.02672
-0.0197493
0.609747
0.353086
-1.02216
-1.5965
0.818599
-1.84154
0.570866
-0.99563
0.206467
-0.634065
-1.19053
1.8246
-1.827
-0.057522
0.174544
-0.117022
1.74101
-1.44213
1.35694
-0.926581
0.158627
1.0837
-1.24233
0.176906
-0.579671
-0.99012
-0.824949
1.81507
-1.5058
1.17578
0.330024
-1.61145
1.98141
-0.369964
1.50101
-1.32716
-0.173849
1.13233
0.0597882
-1.19212
-0.902975
-1.35583
-0.617886
-0.166903
1.11758
1.44655
-0.0110434
0.248178
-0.237134
-1.33726
-0.368421
1.1568
1.06322
-1.06739
1.36043
-0.293037
0.0858778
-0.158679
0.0831137
0.485872
-0.568986
0.432626
0.494306
-0.195069
-1.81479
-2.3387
0.546836
-0.0132589
0.115522
0.963871
0.183133
1.34445
-1.52759
-0.984982
-0.0913413
0.779053
1.29719
0.152545
-0.577672
-0.292385
0.0686676
0.223717
0.0526932
-0.743242
0.690548
0.694671
-0.558851
1.08759
1.74227
-0.844758
1.50142
-1.03958
-0.278455
-0.532052
0.810508
1.40711
0.26452
-0.0765342
-1.42169
0.977219
1.52625
-1.71124
-0.712147
-1.14989
1.86204
-1.03592
-1.04582
-1.94307
1.94725
-0.00418373
-0.0490953
-0.523409
0.312166
1.13475
0.607519
0.597049
-0.990506
0.393457
-0.542126
-0.958851
-0.698567
-1.03424
1.7328
1.27308
0.0607255
-0.305172
-0.293458
1.13162
-1.88501
0.723616
-0.688564
-1.01943
1.56241
-0.542984
0.290367
0.772687
0.78635
-1.55904
1.9172
-1.07408
-0.843116
-1.05466
-1.08197
1.65903
-0.577064
-0.349673
0.629743
-0.635914
0.616165
0.817053
1.50751
-0.481356
0.426462
0.0628556
0.00150059
1.79683
-1.00921
1.18527
1.78297
-0.888709
0.508934
0.379775
0.405972
-0.668475
1.35853
-0.00600862
0.492799
0.816985
-1.18784
-0.148742
1.33659
0.41959
-0.0286878
-0.390902
0.39395
0.0704176
0.244701
-1.97114
-0.621058
0.717587
1.23064
-1.17669
-0.0539401
0.364903
0.792568
-0.357251
0.164537
0.608026
0.452776
-1.0608
-0.655844
1.78361
0.439184
-0.78894
1.80379
-1.01485
-0.344902
0.593026
-0.39978
0.284579
2.07125
-1.08015
-0.694666
-0.170812
-0.0350298
0.669938
-0.763638
-0.393315
0.34685
-0.587444
-0.336091
-0.0320932
0.967854
-0.377362
1.55061
-1.17325
0.0682198
-0.0668662
-0.423054
0.211224
-0.73687
0.118984
-2.68356
1.41947
0.548303
0.463019
1.21865
-0.424476
-0.794179
0.239265
0.21985
1.39019
0.919167
-2.30936
-0.284954
-0.0131967
0.29815
0.78725
-1.34312
1.74419
0.750852
1.46924
-1.2861
-1.6996
0.104608
0.15641
-1.48087
0.816165
0.514044
0.869723
-1.38377
0.870469
-0.132247
-0.0416598
-0.629427
-0.259282
-1.19303
-0.624197
0.767031
1.25416
0.375163
1.01482
-0.952425
-0.0623985
0.421889
0.0137375
-0.13578
0.552042
-0.0644275
1.43642
0.324945
-1.76137
0.231261
-0.401916
-0.509138
0.318411
0.190727
-0.73921
-0.0200248
0.759234
0.359728
1.0669
-1.42663
0.451148
0.681483
1.2411
-0.031305
-0.583433
0.153177
-0.794988
-0.296467
0.561308
-0.264841
-2.49596
1.00366
1.58442
-1.211
-0.373419
0.0345317
-0.328298
0.293767
1.54479
-1.64002
0.75591
0.517173
0.674312
0.682624
-0.337193
0.00110232
-0.334721
0.356411
-0.0216904
-0.898456
-0.28972
1.99876
-1.02634
-0.972423
0.421456
-0.218811
-0.202644
0.902889
-1.45226
0.549369
0.185771
1.04604
0.0897769
1.29023
-0.345654
-0.944571
0.0213182
-0.356039
-1.45176
-0.834348
0.434573
1.46923
0.0130219
-1.48225
-2.16593
-0.238291
0.0737921
0.112958
-0.0245848
0.84405
-0.161043
-1.16554
1.16314
-0.000518613
0.172956
-0.0804724
0.241054
-0.817018
0.975645
0.0152766
0.567062
-0.179481
-0.177048
1.3281
0.0112061
1.00362
-0.455731
-0.295997
-0.445136
1.05316
-0.222813
1.49989
-1.27708
-1.45561
-0.245875
-0.0181518
2.31005
-2.2919
-0.525343
-0.309005
0.678622
-0.123984
-0.0364317
-0.527185
0.563617
-1.61084
0.530693
0.339461
-0.318463
1.39966
-3.03003
1.48128
-2.93723
-0.546679
1.09158
-0.861442
1.07899
-0.626218
0.0224222
-1.03925
1.24237
0.00303698
-0.343456
0.0803002
-0.843541
-0.291759
-1.07544
1.3672
1.15708
2.71684
2.83249
-1.85331
-0.979179
-0.463631
0.191042
0.491809
0.0449091
-0.536718
-1.5126
0.382221
0.458243
-0.0278214
-0.0085864
-0.302657
0.311244
2.2246
-2.24276
0.18717
0.833519
0.179908
-1.01343
-1.68299
1.46018
0.322996
0.0832609
-0.406257
1.02101
-2.38413
-0.333404
0.00667465
0.326729
0.416439
-0.0934427
0.0177526
1.40445
-0.938999
1.06395
1.05212
-0.600971
-1.78463
0.530948
-1.17782
1.07793
0.0998856
1.12778
-1.83992
-1.01475
-0.578818
1.59357
-0.0140501
0.902297
-0.638944
0.567073
1.88932
-0.257725
-1.6316
-0.0101016
-1.82634
1.05738
0.0749487
1.00733
0.47281
-0.362244
0.00350451
0.336371
-0.492938
-0.765925
-0.00444736
-0.111216
0.115664
0.018161
-1.16361
1.14545
-0.202935
0.725933
-0.522998
1.53309
-3.03218
1.49909
-0.0153346
-1.02228
-0.0468844
-0.0894602
1.19589
-0.711647
-0.386353
1.098
-0.802307
-0.611457
0.930181
-0.54616
0.0730771
-0.464848
0.391771
1.19637
0.0222816
-1.68869
-0.168107
-0.215424
0.383531
0.551304
0.351999
-0.903304
0.357214
-1.3912
1.03399
0.233287
-1.10347
0.292167
-2.08204
-1.11784
-1.05533
2.17317
-1.68303
0.0603388
1.62269
-1.88832
-1.44326
0.136421
-0.635708
0.62802
0.00768752
-2.45374
-0.592156
2.02858
0.804817
-0.385426
0.223938
-0.669074
-0.303898
0.985381
0.333389
0.261512
-0.816434
0.0362267
-0.305374
0.269148
-0.217871
-0.0846602
-0.211612
0.246144
-0.677179
1.00309
-2.41374
1.32957
1.08417
0.858699
0.752812
0.794628
0.465335
-0.0457453
-0.308498
0.905547
-0.940054
-0.52842
-1.10671
0.366157
0.740551
0.117912
-0.227584
0.109673
-0.921526
0.97422
-0.235414
1.41847
-0.307084
-0.450237
0.827784
-1.63009
0.803001
-0.896428
0.0934273
0.29054
-0.0377635
0.0457762
-0.00159978
-1.81666
1.1826
0.118478
0.302978
0.0288519
-0.423399
0.394547
-2.6545
0.982311
-0.917195
0.968364
-0.404456
-0.0294533
-0.47005
0.499503
-1.13733
0.425679
-1.92761
1.73254
2.1818
0.234899
-0.497749
0.458068
0.0396811
0.0813688
0.0501295
-0.34199
-1.7873
0.919886
0.867412
-0.33259
0.319393
-0.143585
0.749928
-0.606343
1.1333
-0.377391
0.00652642
0.0103069
-0.0168333
-0.586418
0.601695
-0.0565034
0.108718
1.25155
-2.40677
1.82549
0.100753
-1.07345
0.453368
1.66521
-0.0960021
-1.56921
-0.067905
0.879094
-0.811189
0.785948
-1.63683
1.05616
-1.76205
0.70589
0.0219401
-0.0309872
0.0090471
-1.57922
1.65504
-0.0758173
-0.835611
0.951418
1.08851
-0.219463
2.53886
-1.05851
-1.48034
-0.167024
-0.549746
0.716769
-0.381097
-0.662251
-0.0322213
-0.636766
-0.0254847
0.218833
-0.588312
0.369479
-0.176742
1.68518
-1.50844
-1.52629
0.364904
1.16139
0.492713
1.44944
0.0195843
0.201184
-0.220768
1.09518
0.486822
-1.582
0.00168207
0.0498438
-0.572982
1.44466
-0.871678
-1.34294
0.1551
1.10821
0.519413
-1.53416
-0.00180248
-0.233225
0.235028
1.72571
-0.520386
-1.20532
0.724429
0.470684
-1.73562
0.913432
1.61173
-1.68176
-0.886366
0.0622301
0.824136
0.0451939
-0.194693
0.0267637
0.167929
-0.118619
0.045896
0.0727229
-0.015498
0.266888
-0.25139
-0.683401
0.678284
0.00511687
-1.09776
2.22938
-0.632672
0.575309
0.418317
-0.561902
0.679463
-1.11143
0.431968
-0.818687
-0.744951
-0.170811
0.0567238
-0.0553152
8.60979e-05
0.0552291
1.71488
-0.95352
-0.761363
0.0801517
1.15048
-0.500835
-0.272952
-1.15909
0.250247
1.0062
0.554063
-1.56026
-0.0111274
-0.0369647
0.0480921
-0.025681
0.726609
0.242972
0.151744
-0.394716
2.14413
-1.70726