/*--------------------------------*- C++ -*----------------------------------*\
| =========                 |                                                 |
| \\      /  F ield         | OpenFOAM: The Open Source CFD Toolbox           |
|  \\    /   O peration     | Version:  2306                                  |
|   \\  /    A nd           | Website:  www.openfoam.com                      |
|    \\/     M anipulation  |                                                 |
\*---------------------------------------------------------------------------*/
FoamFile
{
    version     2.0;
    format      ascii;
    arch        "LSB;label=32;scalar=64";
    class       volVectorField;
    location    "0.7";
    object      U;
}
// * * * * * * * * * * * * * * * * * * * * * * * * * * * * * * * * * * * * * //

dimensions      [0 1 -1 0 0 0 0];

internalField   nonuniform List<vector> 
13486
(
(3.09732 -0.582758 2.07303e-18)
(3.39535 0.340627 9.68285e-19)
(4.16922 0.135166 0)
(2.54495 -1.43977 -9.60894e-19)
(4.94999 -1.01835 5.90127e-19)
(4.56199 0.224475 2.00263e-20)
(5.57367 -0.648753 2.06154e-20)
(4.18946 -1.51786 -1.09478e-18)
(3.9876 -0.804668 0)
(4.11994 1.04925 0)
(3.47442 -1.64379 -5.9368e-19)
(4.56203 0.163878 0)
(2.8331 -0.978344 -2.07738e-18)
(4.85255 0.787849 1.33477e-19)
(5.15729 -0.444873 3.09857e-19)
(4.00251 1.06722 -5.51898e-19)
(1.29581 -1.19909 5.575e-19)
(2.5504 1.73905 -4.56671e-19)
(4.59875 -0.0387597 1.13507e-20)
(3.31695 -0.240463 -2.11074e-18)
(2.77319 -1.69967 -3.59413e-19)
(2.86727 -1.00003 2.70984e-18)
(3.47571 0.324968 -7.69991e-19)
(3.91484 -0.711007 0)
(4.13552 0.822001 1.79609e-19)
(3.83214 -0.619878 -1.54042e-19)
(2.40104 -1.17697 5.88341e-19)
(4.03366 -0.15038 5.60553e-19)
(4.01065 0.173362 0)
(3.93257 -0.262117 -3.01122e-19)
(2.49955 -1.55453 -2.69512e-19)
(5.09348 0.188046 -3.85739e-19)
(4.35827 -0.527578 5.16941e-19)
(3.96066 0.0135042 0)
(4.20236 -1.45499 0)
(4.04433 -0.0921189 -2.42874e-20)
(3.96531 0.0600881 1.11631e-19)
(3.39187 -1.5755 1.06099e-18)
(3.78406 0.00331519 1.93983e-20)
(3.9579 -0.50306 1.05176e-18)
(5.31155 -1.76988 0)
(2.34488 -1.14742 -2.40509e-18)
(4.26222 0.0357326 0)
(4.12005 0.698288 -8.41085e-19)
(4.21881 0.607441 3.43201e-19)
(4.50094 0.0603047 3.71304e-19)
(4.02629 -3.18294 3.07526e-18)
(4.07083 -0.00736344 -2.33846e-20)
(4.01613 0.0556263 -8.32685e-20)
(4.62663 -0.116697 3.11785e-19)
(3.96048 0.145811 1.18937e-18)
(3.86957 0.0357437 0)
(4.55003 0.356996 -5.54851e-19)
(3.48368 -1.30485 -1.54733e-18)
(2.48814 0.980565 0)
(4.87918 -1.02497 -4.17367e-19)
(4.01226 0.0543082 -5.18583e-20)
(3.87888 0.0794329 6.31046e-20)
(4.35965 -0.538797 5.82997e-19)
(3.8512 -0.0717987 0)
(3.46434 -1.5549 -6.13174e-19)
(4.03626 -0.00421303 0)
(5.03902 -1.32751 -9.28469e-19)
(2.65326 -1.67497 -4.65103e-21)
(3.26458 -0.662681 0)
(4.02426 0.0553506 4.67119e-20)
(2.51996 -1.33353 -8.83852e-19)
(3.05307 -0.0887958 7.03151e-19)
(4.01879 -0.878516 -6.10965e-19)
(3.98325 -0.0357213 -2.75835e-20)
(2.30671 -1.20074 1.01637e-18)
(2.57548 1.16176 -4.13629e-21)
(3.94662 -0.321026 7.87506e-19)
(2.24692 0.664316 -7.02231e-18)
(3.97334 0.0246049 7.11884e-21)
(3.99899 0.0488164 1.0867e-20)
(4.0557 0.135121 -4.16392e-20)
(5.1779 -0.497433 -1.25591e-19)
(3.55078 -2.8814 -1.11069e-18)
(3.64991 0.109519 0)
(3.93796 0.0359545 2.69279e-21)
(3.3517 0.519058 -6.10276e-20)
(4.92747 -1.60278 -8.70456e-20)
(4.20375 0.0572705 -6.27463e-20)
(3.08275 -0.605472 -4.08353e-18)
(2.92909 2.85812 0)
(3.88803 0.252283 1.39103e-19)
(3.96406 0.0869882 -1.72474e-18)
(3.79155 0.350545 -7.75397e-19)
(3.91111 1.53592 -6.08232e-19)
(4.91957 0.51094 -2.15014e-19)
(4.43585 -1.2821 -5.65679e-19)
(3.20092 -0.768222 5.40369e-19)
(3.42226 0.0184874 5.45208e-20)
(3.87142 -1.22656 2.47707e-19)
(4.0318 0.0898985 1.21219e-20)
(2.71725 -1.32016 0)
(3.01155 -1.5803 3.92717e-19)
(3.99903 -0.484817 -2.0162e-18)
(1.73154 -1.62092 3.82505e-20)
(4.14879 0.00947578 0)
(4.81191 0.792176 3.77698e-20)
(3.00069 -1.54002 -1.06025e-20)
(3.89673 0.0180573 -6.76672e-20)
(2.96914 2.72371 0)
(1.8731 -1.95507 4.78978e-20)
(3.94036 0.086692 1.47776e-20)
(3.87492 0.0610384 3.26837e-20)
(3.76858 -2.97721 1.68005e-18)
(4.2771 -1.93103 0)
(3.4432 -1.62538 0)
(5.56926 0.00516215 -1.67892e-19)
(3.50491 -1.25834 1.06808e-20)
(4.10142 0.0173723 6.2076e-21)
(2.44825 -0.299475 0)
(3.2988 -1.61632 -9.26313e-19)
(4.16477 0.860877 0)
(3.95709 0.0227659 0)
(3.93894 -0.309397 0)
(4.00496 0.0560972 4.94808e-20)
(2.83126 1.62031 3.23836e-20)
(3.43085 -1.57788 0)
(3.78892 -1.12255 0)
(3.91009 0.0582205 -5.12125e-20)
(3.98862 -1.40993 0)
(3.95213 0.107016 0)
(4.52016 -0.489681 2.2907e-20)
(4.3182 0.154721 3.33899e-19)
(3.98978 0.0854008 -3.14169e-20)
(3.25697 -0.536207 -9.4246e-20)
(3.9011 0.0231376 2.9447e-21)
(4.13364 -3.28846 -7.69836e-19)
(8.47381 -1.97952 7.1588e-18)
(-0.670608 2.42736 5.55092e-18)
(3.88547 0.053352 -2.01222e-19)
(3.93859 0.617871 -8.52719e-19)
(1.65198 1.10289 -6.12939e-19)
(4.23972 -1.87416 0)
(4.00104 0.0328628 -1.65265e-20)
(4.22562 -1.2087 -3.90336e-19)
(4.5593 -0.348958 -6.35929e-19)
(4.57802 0.338223 4.63006e-19)
(4.77538 0.267119 0)
(3.72909 0.0874564 0)
(4.25145 0.0379815 2.85806e-20)
(4.36401 -1.31976 -9.96924e-19)
(4.13666 0.298167 -1.1642e-19)
(0.724827 2.56761 0)
(4.3924 -0.197149 0)
(3.95731 -0.086154 0)
(3.96636 0.0285484 1.8894e-20)
(5.22348 -0.744504 0)
(3.87361 0.0314466 -2.83486e-21)
(3.30174 0.480235 -5.23692e-19)
(4.38153 0.404732 0)
(4.12826 0.00461314 0)
(4.13916 -1.92079 0)
(2.21999 -1.51807 1.07208e-19)
(3.68301 -1.48124 2.20519e-18)
(4.0601 0.108267 2.05657e-19)
(4.43525 -0.103375 1.73133e-19)
(3.69965 -1.4313 -3.36984e-18)
(5.30845 1.13689 7.51963e-21)
(2.14795 -1.02655 1.06247e-18)
(3.91611 0.0499777 0)
(4.98934 0.698018 -3.03598e-19)
(4.6919 0.758937 -8.28138e-20)
(1.35614 -0.484572 -2.59756e-18)
(4.11835 0.276907 3.07956e-19)
(-1.60944 2.82092 1.59236e-18)
(8.2026 -2.02534 -1.13412e-19)
(4.27934 0.422028 2.7672e-19)
(3.98975 0.076129 -1.35804e-18)
(4.67617 -0.291767 3.40247e-20)
(4.00786 -0.0194385 1.03466e-20)
(3.14464 -1.3243 0)
(5.02852 1.30977 4.60325e-19)
(4.51561 -0.530422 8.4304e-19)
(3.93876 0.0670026 -1.97053e-18)
(4.67055 0.243145 0)
(4.13211 -0.630742 2.12685e-18)
(4.06048 -0.00613806 1.11298e-20)
(4.75876 -0.061993 -2.34434e-20)
(2.20514 -1.06478 0)
(4.13833 0.125002 2.0291e-19)
(4.12516 -0.145107 -2.51476e-19)
(3.99832 -0.0106927 2.27422e-21)
(3.90406 -0.172958 -8.76616e-20)
(5.29182 -1.71771 0)
(3.03923 -1.46116 -1.1668e-18)
(3.99266 0.0878351 0)
(3.95672 0.0453085 0)
(3.68063 0.0465325 0)
(3.07176 1.36526 -1.10632e-18)
(3.67837 0.0915031 0)
(3.44413 -1.66915 -1.6403e-19)
(3.29307 -0.610984 2.11455e-19)
(4.608 -0.0901687 1.17549e-19)
(2.90697 -1.41963 -4.56077e-19)
(4.8833 0.643267 -1.45947e-19)
(2.43201 -1.37133 2.71634e-19)
(4.34018 0.0277732 -1.04224e-20)
(3.3256 -1.58828 -1.23491e-18)
(4.49607 -1.91511 1.44655e-19)
(3.94466 0.118179 -2.50051e-19)
(3.88703 -0.0261414 2.95937e-20)
(0.939799 0.962933 -6.23256e-19)
(3.74877 -0.176824 1.58006e-18)
(3.95131 -0.0330341 0)
(4.2118 0.111007 0)
(3.99851 -0.0961771 3.37839e-19)
(3.7199 -0.607949 2.36526e-19)
(3.42861 -0.191882 1.92409e-18)
(3.78001 0.114053 7.18018e-21)
(4.51566 0.102123 -2.30772e-20)
(3.6771 -0.0539368 1.266e-20)
(3.93818 -0.223847 0)
(3.96277 1.45184 1.58022e-18)
(3.34847 -0.81042 0)
(5.68474 -0.190456 0)
(1.23612 -1.40494 -1.11245e-18)
(4.58368 -0.153079 0)
(4.18098 -1.20665 9.01843e-19)
(4.36953 -0.0775173 0)
(4.40116 0.449761 -1.01953e-19)
(2.92386 -1.35529 7.47232e-19)
(4.8026 0.187821 -1.45039e-20)
(2.79521 -1.21417 1.12882e-19)
(3.73705 -0.00476713 1.4353e-20)
(3.90964 0.243856 -1.51079e-20)
(4.15184 -0.607681 -6.86314e-19)
(3.67961 -0.820011 8.44184e-19)
(4.51147 -0.404357 8.01958e-19)
(2.35762 -1.14436 8.23366e-19)
(2.90357 -1.51919 0)
(2.74955 -1.32553 8.89228e-20)
(3.89886 0.026937 1.5802e-19)
(4.00489 0.0709103 -4.58553e-20)
(2.6039 -1.25032 2.35615e-18)
(4.67598 -0.0283474 0)
(4.32657 -0.581671 0)
(4.1506 0.0415902 2.06759e-18)
(4.02861 -0.00141624 0)
(2.53074 -1.25615 8.11987e-19)
(3.87216 0.151079 6.69405e-20)
(3.74328 0.0346499 0)
(4.6433 0.0301793 -1.45483e-19)
(3.86566 -0.453363 5.26877e-19)
(-4.84978 3.15346 1.41921e-17)
(4.09768 0.660082 0)
(3.14727 -1.53101 -1.67314e-19)
(2.37836 -0.245412 2.99743e-19)
(2.9904 -1.46568 1.14912e-18)
(3.86664 0.0614653 0)
(3.73678 0.0437116 -1.56697e-22)
(3.21826 -1.34271 8.20003e-20)
(5.12759 0.176376 3.16747e-19)
(3.49714 -0.088721 -1.60248e-20)
(1.97369 -1.37802 -1.14014e-19)
(4.24227 -0.54467 3.57511e-19)
(3.61966 0.278267 0)
(3.90456 0.0877341 -3.92852e-21)
(5.14496 -0.456845 -7.43211e-19)
(3.20747 -1.34563 -1.02659e-19)
(4.72413 -1.51436 -6.54849e-19)
(2.50754 -1.24381 0)
(3.75851 0.00596657 -2.64872e-20)
(2.62014 -1.52533 -3.85854e-19)
(4.13458 -0.160754 -9.03698e-19)
(3.71869 0.902861 0)
(3.21638 1.52596 7.64714e-19)
(3.90308 0.0525895 -5.18488e-19)
(4.03557 -0.239504 0)
(4.34804 0.228738 3.23478e-19)
(2.93676 -1.39145 1.00078e-18)
(3.8727 -0.45166 -2.95589e-19)
(3.74381 0.00933001 0)
(2.81972 0.0183504 0)
(3.88122 0.132852 3.92216e-20)
(4.16807 0.287917 2.18601e-19)
(2.89179 -0.0310261 3.88773e-20)
(4.29003 -0.386441 -7.67819e-19)
(3.75662 0.155519 1.13599e-18)
(4.00519 -1.01252 -3.44681e-19)
(3.3945 -1.58175 7.36183e-19)
(2.75414 -1.6589 1.02244e-18)
(4.61993 -0.421594 7.54604e-19)
(3.8281 0.0314169 4.11283e-20)
(4.36344 0.407406 1.67422e-19)
(3.87226 -0.0565471 0)
(2.87117 -1.57406 0)
(4.0141 0.11061 -8.95484e-20)
(3.33867 -1.60003 9.11147e-19)
(3.95975 -0.032216 -1.93805e-19)
(3.87283 -0.0642635 1.26621e-19)
(3.95025 -0.0514641 0)
(4.49177 -0.15827 -2.70691e-19)
(4.45825 0.154483 -2.76858e-19)
(3.90746 0.0745025 -1.05999e-18)
(5.53803 -1.03684 9.48337e-20)
(5.16092 1.22656 3.58375e-22)
(1.15424 1.03577 2.59101e-20)
(4.15291 0.272706 -1.89509e-19)
(5.15002 0.0937194 3.71717e-19)
(3.98596 0.0487936 -1.9856e-20)
(3.88072 -1.80551 0)
(0.797618 -0.531779 0)
(4.34977 -0.0246794 2.996e-19)
(3.9419 0.262732 -1.026e-19)
(3.99302 0.10322 0)
(5.32702 3.39824 -8.66893e-18)
(2.30502 -1.22837 0)
(4.85376 1.34256 -1.0437e-19)
(5.52743 0.0216035 -1.81228e-19)
(3.75039 -1.48018 0)
(3.8669 0.543634 -5.23956e-19)
(3.95893 0.0722313 1.25483e-19)
(3.78219 0.19907 -6.5935e-20)
(3.84725 -0.180322 -1.72945e-18)
(3.66494 -0.0748782 0)
(4.01834 0.0612442 -9.34864e-20)
(3.95662 0.159298 4.61099e-21)
(3.93162 0.0431491 2.44284e-19)
(3.37566 0.105693 -1.01456e-18)
(1.84274 1.03397 1.11165e-18)
(5.0094 0.468584 4.34323e-19)
(4.69938 -0.671906 -2.11912e-18)
(4.2444 -0.34054 0)
(4.31645 0.169527 6.70581e-21)
(4.7688 -0.679767 -3.73875e-19)
(4.01634 0.0180901 2.52428e-18)
(4.51917 -1.25698 0)
(4.9658 0.632653 -8.52807e-20)
(3.09262 0.514142 0)
(5.58841 -0.676304 -2.80473e-19)
(4.00954 -1.14009 -6.80034e-19)
(1.88839 -0.901099 9.67081e-19)
(5.16084 -0.808332 -5.00323e-19)
(4.13875 0.363405 0)
(3.92405 0.130325 9.3246e-20)
(3.85123 -0.055528 4.97885e-20)
(3.37567 0.0932342 9.56682e-19)
(4.78988 -0.695078 1.49572e-18)
(4.77806 -0.0492136 6.94061e-19)
(3.28024 -1.57369 -5.36207e-19)
(3.99711 -0.0407642 2.98794e-20)
(4.49852 -0.333247 0)
(2.37859 -0.864157 2.38905e-18)
(5.6292 -0.289559 0)
(3.93051 0.0133323 -9.0745e-22)
(4.39108 -0.148866 1.25275e-18)
(4.24709 0.204156 -3.1556e-19)
(4.56249 0.260039 2.67415e-19)
(2.63356 -1.27156 -6.99621e-19)
(3.71509 0.132909 1.31706e-18)
(3.92635 -0.017626 0)
(2.91359 0.943209 -5.59997e-18)
(4.48837 -0.505206 -4.4318e-19)
(3.92364 0.226741 5.67365e-20)
(3.75303 -0.581087 2.21203e-19)
(4.47151 -0.0626215 0)
(4.81842 0.575143 3.13635e-19)
(3.61351 0.186419 2.00912e-18)
(3.98318 0.132092 1.57991e-18)
(3.95185 -0.243114 0)
(4.01921 -0.0154408 -1.97926e-22)
(3.98106 -0.196762 -1.48415e-19)
(4.57362 -3.62826 5.73488e-19)
(3.3578 -0.266233 2.66731e-19)
(4.47709 -0.381187 4.19854e-19)
(4.0867 0.0565914 -1.06915e-20)
(4.49925 -0.384774 0)
(4.33657 0.412444 -4.01137e-19)
(3.19014 -1.53044 1.61273e-19)
(4.65874 0.368703 7.87681e-20)
(4.15358 0.0883303 1.0238e-18)
(3.38236 -0.0340192 0)
(3.9464 0.077072 1.21408e-19)
(3.76462 -1.4175 0)
(7.06251 0.129695 -1.38049e-18)
(4.04005 -0.00306123 0)
(4.49845 -1.47345 -2.47875e-20)
(2.8855 -0.418517 -5.711e-19)
(3.34269 1.30627 1.8181e-18)
(4.51864 -3.40302 -2.12549e-18)
(3.66668 0.0766203 0)
(4.4783 0.0795962 -1.89693e-19)
(4.1857 0.340265 -5.52573e-19)
(-2.48733 -0.0559228 -1.97101e-18)
(2.14592 -1.63158 5.76412e-20)
(3.39271 -0.237108 -2.89566e-18)
(4.01844 -0.257309 1.53175e-19)
(4.2168 0.282302 3.66404e-19)
(3.16881 -1.03026 0)
(2.9882 0.351596 1.09746e-18)
(4.0107 0.0141118 4.42683e-20)
(2.40643 -1.29788 5.4617e-19)
(3.17989 -1.53511 -5.6799e-19)
(-0.941809 -0.941038 -1.8571e-18)
(4.52535 -0.399825 0)
(-1.78956 -0.606343 0)
(4.30794 1.72685 0)
(4.10105 -0.148857 0)
(1.81007 -0.746018 -3.87803e-19)
(5.53745 -0.558145 0)
(4.03669 0.346858 0)
(3.45644 0.0560361 3.89836e-19)
(4.4787 -0.458452 -8.75521e-19)
(4.55438 -0.299232 -1.02341e-18)
(3.5564 0.472953 3.24909e-18)
(4.05472 0.0753564 -2.89958e-19)
(5.17452 2.59861 0)
(4.09618 -0.278056 0)
(3.75286 0.0828007 1.12916e-18)
(3.90327 -0.0335479 2.03588e-19)
(2.93545 1.45741 0)
(2.20225 -1.08277 5.59493e-19)
(4.67803 -1.54614 7.41767e-19)
(7.27958 -3.07285 0)
(4.70711 -0.0239167 6.92443e-19)
(3.9453 0.0634737 -1.3098e-18)
(6.03768 -1.08109 1.74364e-18)
(2.35862 -0.837095 0)
(3.92669 0.357713 1.02357e-18)
(4.65588 0.039158 0)
(4.01271 -0.179843 0)
(4.26745 0.222987 -4.63794e-20)
(3.8983 0.0861342 6.03112e-19)
(2.62381 -1.28732 -7.56176e-19)
(4.60241 0.779117 3.02086e-20)
(2.94251 -0.822489 -1.02493e-18)
(4.18271 -0.127076 1.33782e-19)
(4.19775 0.324374 2.86334e-19)
(4.28043 0.36077 1.09197e-18)
(4.88858 -1.51087 0)
(4.00323 -0.482872 2.81096e-19)
(2.84091 -0.287536 0)
(4.00712 0.189187 -8.13457e-20)
(4.74014 -0.272776 0)
(3.11959 -0.0778542 1.47265e-18)
(2.95822 -4.73202 -3.32834e-18)
(3.97845 -0.22146 0)
(0.0912313 0.464175 2.21435e-19)
(4.03655 -0.264067 -3.6268e-19)
(3.98174 0.243667 1.67449e-19)
(3.66943 -0.60211 2.77963e-18)
(3.08435 1.26715 -1.19993e-18)
(2.91801 -0.811231 -2.90362e-18)
(6.93018 0.148482 0)
(3.97541 0.033235 -4.51185e-20)
(3.29207 -1.57572 -1.25741e-18)
(4.04672 0.366727 0)
(3.87632 0.244574 7.13727e-20)
(4.40333 -0.0435713 -6.08122e-20)
(5.62199 1.21626 0)
(3.90673 0.0693827 0)
(2.1159 -1.0541 0)
(3.15311 -1.30651 3.44218e-19)
(3.91151 -1.02526 4.17218e-19)
(4.30505 -1.22364 1.85664e-20)
(4.75202 1.2933 0)
(3.55684 -0.417404 1.88308e-18)
(3.99051 -0.0362705 -1.54266e-20)
(4.53549 0.686101 -5.2059e-20)
(2.89541 -1.72743 8.56779e-19)
(3.85469 0.251326 0)
(3.99316 0.149628 0)
(1.85022 -0.444695 -1.62781e-18)
(3.11629 -1.00156 -7.12888e-19)
(3.98408 -0.439448 0)
(3.64906 -1.7533 -8.80597e-19)
(4.06127 -0.0180117 -4.22935e-21)
(3.96106 0.0356476 -2.19113e-20)
(2.07947 -0.984923 0)
(3.71798 0.0274048 2.11163e-20)
(3.99185 0.0583748 -5.20713e-20)
(4.54924 -0.043939 2.2441e-19)
(3.97143 -1.17849 0)
(2.74245 -1.70346 -1.53532e-18)
(4.28978 0.165471 3.01786e-19)
(3.96008 0.170754 2.19961e-19)
(4.07766 0.103726 -4.69485e-20)
(5.09037 0.583965 0)
(3.52285 0.434084 -8.68044e-19)
(5.20627 -0.374451 -5.93271e-19)
(-0.187962 -0.966487 2.06039e-19)
(4.10412 0.105482 0)
(2.51808 -1.73785 -5.80694e-20)
(1.40859 -0.394494 0)
(4.16698 0.109336 -8.21722e-19)
(3.89219 0.162624 3.91881e-19)
(3.72104 0.0651836 -2.15664e-19)
(3.17455 -1.34302 0)
(4.07212 0.0879591 -1.38005e-19)
(2.50919 0.637352 3.0633e-18)
(4.83141 -1.48965 0)
(3.37022 0.0249859 1.25224e-18)
(5.46284 -1.08084 -1.06662e-19)
(4.1387 0.00870917 0)
(2.59963 -1.45017 1.65925e-19)
(3.65699 0.133443 5.64768e-20)
(3.80177 -0.127755 0)
(2.46028 -2.23736 1.10425e-18)
(3.76937 0.238413 0)
(3.80948 -1.71838 8.99526e-19)
(3.14921 -1.51192 3.17499e-19)
(4.02791 -0.0262837 -2.32772e-21)
(4.52114 0.0393895 -8.54467e-20)
(2.9687 0.353149 5.82781e-19)
(3.661 -0.652165 -1.03394e-18)
(3.80559 0.0184007 -2.49762e-21)
(3.80072 -1.68655 9.1095e-21)
(4.44424 -0.44623 4.17555e-19)
(5.02079 0.599993 6.23712e-19)
(4.44233 -1.98064 0)
(3.84642 0.0762599 -9.06672e-19)
(7.97974 -3.02657 -3.18699e-18)
(2.90911 -0.29478 0)
(4.011 0.0470394 1.78128e-20)
(3.8753 -0.0347758 0)
(2.73828 -0.872295 2.50967e-18)
(4.41746 -1.6282 0)
(4.06162 -0.0208517 5.29425e-20)
(4.50746 -0.158197 -7.10955e-19)
(2.63538 -1.32175 2.7804e-19)
(2.30972 -1.166 5.97775e-19)
(4.39299 0.104099 -6.3588e-21)
(3.7019 -1.76471 7.4904e-19)
(3.7697 -1.11616 9.79801e-19)
(3.19804 -0.788276 0)
(2.22286 -1.10367 -3.90177e-19)
(4.95756 -1.3595 -1.59121e-19)
(2.24076 -1.10314 -4.4926e-19)
(3.88002 -0.104137 6.8247e-21)
(3.15476 -1.24326 0)
(4.25143 0.00762342 -4.54346e-21)
(2.32385 -1.13049 0)
(3.00045 -1.53726 -1.05463e-20)
(6.34755 -0.386999 -1.99226e-18)
(1.40258 -0.640744 0)
(4.35204 -1.13308 2.86754e-19)
(3.22461 -0.655821 0)
(5.65292 1.01006 0)
(3.62465 -1.69898 -1.18853e-18)
(3.12125 0.427897 8.79371e-19)
(3.58093 0.287459 0)
(3.6434 0.218586 -5.51797e-19)
(4.41026 -1.33463 1.14237e-18)
(3.21175 -1.53308 7.25932e-19)
(5.84407 1.80482 0)
(4.18305 0.018819 0)
(3.30711 -1.58805 -5.45055e-19)
(3.8199 -0.293914 0)
(4.15807 0.0323512 0)
(3.45062 -1.53453 -3.33567e-21)
(4.27485 -0.79056 -1.39349e-18)
(3.6903 -0.93236 8.55893e-19)
(4.21274 -0.595199 5.04932e-20)
(2.02719 -1.01562 7.86285e-19)
(3.85776 0.166066 4.46231e-19)
(3.27079 -0.830292 0)
(4.39171 0.640746 -1.23463e-19)
(3.07153 -0.547117 0)
(4.23269 0.035936 0)
(4.00094 0.260342 0)
(4.418 0.23712 -3.64348e-20)
(3.79876 -0.172555 8.11388e-19)
(4.03748 -0.0243194 -3.04136e-20)
(3.3534 -0.857224 0)
(2.32678 -1.13088 -5.65902e-19)
(4.2986 1.66114 1.30625e-19)
(3.98613 -1.44347 9.48072e-20)
(4.02002 0.0542931 -6.44889e-20)
(3.82433 -0.418166 4.74373e-19)
(3.94544 0.0623074 -7.67349e-19)
(3.34167 -5.0194 0)
(4.23521 0.201128 0)
(3.1925 1.32078 0)
(2.79656 -1.25108 -1.84251e-18)
(2.69621 -0.790585 -1.66512e-19)
(1.98125 -0.28417 0)
(4.40254 0.634867 0)
(4.45431 0.580945 3.84939e-19)
(4.06942 0.0396489 -2.18566e-19)
(3.93177 0.856927 8.35637e-19)
(4.50076 -1.91513 0)
(3.32282 -1.66051 -2.27568e-19)
(4.49202 0.0707378 6.10226e-20)
(3.04975 -0.935291 -1.7194e-18)
(4.36729 0.0730066 -2.01001e-19)
(4.52337 0.699631 1.83684e-19)
(3.58057 -0.851909 1.92837e-19)
(2.76439 -1.25478 3.19161e-18)
(3.4097 -0.259494 9.21436e-20)
(4.0625 0.0370373 1.46697e-20)
(3.96977 0.00930385 -2.27379e-19)
(3.30589 -1.54355 -2.73243e-19)
(3.67782 0.116612 -3.30821e-20)
(3.52778 3.61324 1.26106e-20)
(3.60591 -1.72248 4.48318e-19)
(4.1508 0.21173 0)
(3.93483 0.263722 -3.6728e-20)
(4.07289 -0.0371009 -7.7104e-19)
(5.54831 0.247422 4.41957e-19)
(3.00135 -0.875975 -1.56031e-18)
(3.94893 -1.38404 -1.03045e-18)
(4.19241 0.0803307 1.94601e-18)
(4.5077 -0.00791535 -1.10115e-18)
(4.10135 0.630101 -2.56315e-19)
(4.61836 -0.421025 -3.85336e-19)
(2.60281 -0.495123 -3.40853e-18)
(4.02828 0.253026 -6.15085e-19)
(2.58125 -0.5977 0)
(2.75689 -1.23832 -4.96996e-19)
(3.83571 0.0159244 1.91957e-18)
(3.98003 0.115824 3.55146e-21)
(1.84059 0.825402 0)
(4.06733 -1.88581 0)
(4.16693 0.622927 7.17741e-19)
(2.358 -0.477982 2.11915e-18)
(3.22711 -0.869203 -2.75407e-19)
(4.55465 -1.47236 -4.88362e-19)
(4.68532 -0.695226 1.15224e-18)
(5.65665 -0.329192 0)
(4.14113 0.701627 3.73395e-19)
(1.63642 1.76932 7.40777e-20)
(5.11084 1.34169 5.35222e-19)
(4.08608 -0.57629 -1.21583e-18)
(2.32473 -1.16648 -1.27382e-18)
(3.8756 -0.388435 -4.69886e-19)
(3.91518 -0.46017 1.51782e-19)
(4.76362 1.7709 0)
(3.83017 -0.0911268 -4.69435e-20)
(3.87046 -0.0860521 2.05095e-19)
(3.94995 -0.0311055 1.6561e-20)
(2.1747 -1.05673 2.89266e-18)
(4.02006 -0.582343 1.80988e-18)
(4.02937 0.148992 -8.75346e-20)
(3.20445 -1.5319 -4.34363e-19)
(3.83875 0.00409806 -1.74595e-19)
(4.07835 -0.0855278 5.48915e-19)
(3.40197 -1.59885 -9.59222e-20)
(4.91846 1.26505 -5.23705e-19)
(2.21971 -1.96057 -1.19936e-18)
(2.67795 -1.29652 -9.91661e-19)
(4.01962 0.0113669 0)
(3.95543 0.0959553 -6.01562e-20)
(3.32119 -1.46542 -2.3827e-19)
(2.87065 -0.468428 3.10058e-18)
(3.90627 -0.0373645 0)
(5.0379 1.22326 1.40583e-20)
(2.67197 -1.11959 7.15225e-19)
(3.90739 -0.0605304 -1.93165e-18)
(2.98901 -1.47808 -5.27752e-19)
(3.60789 0.234455 2.41694e-20)
(4.39274 -0.279547 6.88162e-19)
(4.45844 0.0984982 2.90301e-19)
(3.86858 -1.74286 -1.25137e-18)
(4.04759 0.0399884 4.81558e-20)
(2.85726 -0.812735 -4.14543e-19)
(3.98582 -0.159128 7.23224e-19)
(4.00268 -0.114708 -5.88819e-19)
(4.25235 0.0957106 -6.16567e-21)
(4.23524 -0.0384769 -1.28488e-18)
(2.60012 -1.14851 -1.38453e-18)
(4.04993 0.022432 0)
(3.03533 -1.34041 2.92792e-19)
(4.0678 0.022724 1.46299e-19)
(5.72853 -0.776543 1.20222e-18)
(4.40906 0.0956947 -1.88527e-20)
(4.58208 -0.768568 -7.07701e-19)
(3.95715 -0.00496213 -1.48916e-18)
(4.17946 0.428536 2.0908e-19)
(2.01753 -0.99963 -5.73086e-19)
(4.03656 0.0106387 0)
(3.96222 0.101463 -6.14219e-20)
(4.29648 0.254044 3.22679e-19)
(3.17024 -1.21284 0)
(4.2601 0.13571 3.75595e-19)
(4.1516 0.226815 3.98814e-19)
(4.2688 0.0925973 3.42205e-23)
(5.48422 -1.78662 9.67199e-20)
(3.90223 0.0595968 0)
(3.69746 0.550066 1.52379e-18)
(4.07863 0.0920511 1.00518e-19)
(3.51281 -1.68043 1.00321e-18)
(4.09977 -0.372982 0)
(3.132 0.419459 -2.54441e-18)
(3.30759 1.58971 -3.64864e-20)
(5.40538 2.18238 -1.36728e-18)
(2.62545 -0.526093 3.28107e-18)
(4.04907 -0.11466 4.28069e-20)
(2.39754 -1.21353 4.62545e-19)
(3.87647 -0.175289 -1.26107e-18)
(4.05323 -0.433779 -4.35397e-19)
(3.65686 0.139682 -1.15512e-18)
(3.97501 -0.0851221 0)
(3.98712 0.00381588 -8.56726e-19)
(-0.0394091 -0.533537 1.85881e-18)
(1.11978 3.11401 0)
(3.7776 -0.616426 0)
(4.033 -0.0131013 0)
(0.405184 -0.904363 0)
(4.07304 0.524766 0)
(2.495 -0.467556 0)
(3.672 -0.0626715 -9.40958e-21)
(4.22445 -1.12587 -5.24785e-19)
(4.81368 0.147595 0)
(3.65315 0.481227 2.3356e-18)
(3.58829 0.761158 2.8402e-19)
(4.12039 0.343233 1.44357e-20)
(3.35864 -1.48296 -1.31211e-19)
(2.5031 -0.0777406 -9.37259e-21)
(2.3336 -1.17022 4.75055e-19)
(4.47731 0.0254748 -4.78261e-19)
(4.47889 -0.0197552 4.55672e-20)
(4.15827 0.438219 -4.98751e-19)
(3.74216 0.319619 -1.54943e-18)
(4.18677 1.57615 -4.72953e-19)
(6.80721 0.347467 0)
(2.60343 -1.75822 1.72788e-19)
(2.77699 -0.906588 -2.76139e-18)
(4.06569 -0.0577475 -2.57833e-18)
(4.98193 -1.40059 -8.02327e-19)
(4.08369 0.053356 2.04549e-19)
(5.82016 -1.35508 -1.98445e-19)
(4.40239 -0.591573 -1.56257e-19)
(4.37704 -1.09311 -9.90685e-19)
(3.98072 0.33034 5.77984e-19)
(7.21448 3.20306 0)
(3.81455 -0.0144466 -8.36302e-21)
(3.48692 0.01915 -3.63501e-19)
(5.60126 -0.442431 0)
(3.97092 0.0890164 0)
(4.05328 -1.82523 -1.25408e-20)
(2.72572 -1.37002 4.9348e-19)
(3.60485 -0.16247 -8.33252e-20)
(3.93068 0.0583582 0)
(3.74229 -0.185812 -1.65139e-18)
(3.65737 0.325544 -3.00951e-19)
(2.95606 -1.35408 1.84585e-19)
(4.28787 0.0710114 1.7294e-19)
(2.3226 -1.15264 0)
(2.70719 -1.76948 1.89079e-19)
(4.3983 0.142828 0)
(3.77622 -0.129558 3.70157e-20)
(4.86052 0.567582 -2.54592e-19)
(3.86541 0.0557111 -1.02497e-20)
(4.75273 0.780385 1.52956e-19)
(5.65821 1.57443 -1.54537e-19)
(3.68183 -1.06054 2.04461e-18)
(1.71471 -1.55786 0)
(3.1592 -0.48329 -1.83857e-19)
(3.28296 0.421025 0)
(4.82559 0.0588186 -1.34408e-19)
(2.94792 -1.38736 4.10374e-19)
(3.78689 -0.633746 2.83453e-19)
(3.96712 0.0658238 5.15005e-20)
(3.2708 -1.34777 -5.18717e-19)
(3.13742 -1.52363 -1.16393e-18)
(2.86021 -0.909876 -1.57439e-18)
(3.98999 0.0248867 -1.60971e-20)
(3.2043 -0.452222 1.5176e-19)
(2.64813 -1.17288 1.1427e-18)
(2.96653 -0.957041 1.75611e-18)
(2.68105 -0.812634 2.56278e-19)
(3.31081 -0.52874 -1.00704e-19)
(3.9053 -1.22574 1.02433e-18)
(4.3631 -4.25453 2.75292e-18)
(3.93251 0.0402873 3.12516e-20)
(3.5744 0.730951 -2.41147e-19)
(4.55529 0.443935 -6.97344e-20)
(4.82212 -1.08418 0)
(-0.0859716 -0.594477 -2.22878e-18)
(4.02751 -0.039773 -8.89851e-19)
(3.98855 0.337679 0)
(4.79351 0.0716049 0)
(2.91639 -0.173294 -7.97358e-20)
(4.01405 -0.664765 -4.45923e-19)
(4.61787 0.126777 7.28418e-20)
(4.25744 -0.779468 1.82078e-18)
(4.14239 1.44486 4.4996e-19)
(3.92612 0.0836016 1.33071e-18)
(3.00525 -1.37811 6.50487e-21)
(3.70529 0.903112 0)
(3.0162 -1.00432 1.70176e-18)
(3.53311 -1.988 2.24414e-19)
(3.26378 -1.34328 3.93486e-19)
(3.6848 -1.4085 3.36819e-19)
(4.05118 -1.84286 -1.69842e-19)
(4.40959 0.314133 5.97592e-19)
(3.89758 0.0508368 -2.39817e-20)
(3.90178 -0.198054 3.22912e-19)
(3.03741 -1.39166 -2.68284e-19)
(4.59866 0.193139 -4.7144e-20)
(3.88937 0.149897 6.5443e-19)
(2.57311 -0.596284 -1.35834e-18)
(3.82022 -0.245922 1.03441e-18)
(4.06766 0.603468 0)
(4.6071 0.377225 -9.28277e-20)
(3.96782 0.090716 1.49109e-19)
(3.16263 -0.730594 -5.3502e-19)
(4.12087 3.03408 2.22976e-19)
(3.84279 -1.20682 7.58418e-19)
(3.95225 0.0566369 2.8474e-19)
(2.9384 0.0670789 -2.00908e-18)
(5.55045 -0.504531 0)
(3.92807 0.074636 1.221e-19)
(4.37415 0.0199512 2.76839e-19)
(3.77071 -0.0238926 0)
(2.9299 -0.130788 1.14763e-18)
(4.18429 0.153235 0)
(3.85665 3.07043 2.46871e-19)
(4.42213 -0.223625 0)
(3.82697 0.0503908 0)
(4.49298 0.24674 2.03605e-19)
(4.54654 0.10219 1.59112e-20)
(4.8379 -0.276182 -7.8804e-19)
(3.8465 0.273719 -7.01017e-19)
(3.38651 1.97597 -4.58478e-19)
(4.04921 0.100485 -2.57132e-19)
(4.09502 0.504932 0)
(4.23991 -2.13137 -2.39494e-19)
(4.50628 0.172195 1.30389e-19)
(3.76403 -0.035679 -8.83978e-20)
(4.8034 -1.08124 0)
(5.56332 0.236705 6.63167e-19)
(4.70242 2.84475 7.9801e-20)
(3.95528 -0.032638 1.3281e-19)
(3.44294 -1.15029 0)
(3.48757 -1.51135 4.78501e-19)
(4.11071 0.308477 0)
(3.94527 -0.138349 -1.64134e-19)
(-4.00191 3.44478 0)
(4.7463 -1.85673 0)
(3.48117 -0.205151 0)
(4.3257 -1.61867 0)
(3.41482 -1.69643 -1.09715e-19)
(3.1235 -1.2804 -7.64347e-20)
(3.8013 -0.179615 -1.22063e-18)
(2.66002 -1.34667 -3.27435e-19)
(2.79634 -1.21247 0)
(2.76856 -1.17423 -1.82103e-19)
(-3.69992 2.6449 -1.36475e-17)
(3.45227 -1.60469 0)
(3.17749 -1.14322 -1.80094e-18)
(4.09422 0.0765744 2.04611e-20)
(4.51702 0.401856 1.49708e-19)
(5.21466 -1.73475 1.20278e-19)
(3.74534 0.265702 0)
(4.71615 -1.46628 0)
(5.07898 -0.881507 3.95377e-19)
(3.83897 0.0372478 -5.92269e-21)
(4.00429 0.0668336 3.80232e-20)
(2.8813 -0.159448 1.45976e-20)
(3.98134 0.0453335 6.36425e-20)
(4.10965 0.0306181 2.57575e-21)
(4.13457 0.357499 8.08151e-19)
(3.94146 0.0570812 -6.51441e-20)
(3.99776 -1.10265 0)
(3.00553 -1.52156 0)
(4.0439 0.00205337 0)
(4.00763 -0.0270395 0)
(3.669 -0.730972 7.57989e-19)
(4.51747 -0.287124 0)
(3.44932 -1.62739 1.13176e-18)
(3.46312 -0.883645 -1.18861e-20)
(2.90949 -0.982607 -2.66142e-18)
(3.65272 0.811345 -1.40852e-19)
(3.04234 -1.27925 -1.64929e-19)
(3.52993 -1.67603 -5.99699e-19)
(3.85559 0.0966786 2.25663e-19)
(3.1082 -1.40492 -2.52797e-19)
(3.9013 -0.0242558 -1.24811e-19)
(4.44329 0.0992466 0)
(4.96871 -0.543699 0)
(3.75752 0.467539 0)
(4.59437 -0.801465 3.72964e-19)
(3.29073 -0.637433 0)
(3.80077 0.903461 0)
(3.92556 0.00759042 0)
(3.6927 -0.944028 7.88129e-19)
(4.18483 0.362505 -7.31474e-19)
(4.07875 0.0150588 0)
(3.79684 -0.148665 -1.01137e-19)
(3.9768 0.370299 -8.07879e-19)
(5.06122 1.07208 -1.09801e-18)
(3.45453 -1.59453 1.07449e-18)
(3.92681 1.0576 1.6878e-21)
(3.69957 0.132628 4.39527e-21)
(3.88643 0.0898904 -3.8882e-20)
(3.73187 -0.0155526 -1.97835e-20)
(4.4506 0.0974046 6.33259e-22)
(4.00025 0.0290786 7.1148e-20)
(3.70159 0.0128551 -1.13515e-18)
(4.03334 0.152587 0)
(6.21449 -0.311131 -8.67912e-19)
(3.84041 0.135041 1.18133e-18)
(2.3253 1.44776 1.73883e-19)
(4.44061 -0.587336 -4.59389e-19)
(2.41861 -0.523133 -2.32154e-18)
(4.59442 0.092595 -5.06758e-21)
(5.26178 -0.376928 8.53234e-19)
(4.10323 -0.0533236 0)
(4.04244 0.357039 -1.05034e-19)
(3.94305 0.0633869 2.04957e-20)
(3.6933 -0.0448397 3.83331e-20)
(2.86267 -1.76118 -9.90159e-19)
(3.91186 -0.11437 6.30739e-19)
(4.04137 0.0455024 -1.61381e-20)
(3.77314 0.0801948 -2.32905e-20)
(4.03935 0.0179323 0)
(3.8981 1.27552 0)
(3.2557 -1.54709 1.30544e-18)
(2.79412 -1.37637 5.62589e-19)
(4.06238 0.0327114 -1.48179e-20)
(3.91518 0.067925 2.3664e-18)
(3.91662 0.406937 3.34267e-19)
(3.1295 0.351261 0)
(3.6602 0.0886074 0)
(3.4163 -0.816916 -7.27967e-21)
(4.26374 0.0303098 3.17797e-19)
(4.01692 0.922191 1.08731e-18)
(4.70042 0.185415 0)
(3.98903 0.130752 0)
(4.41942 -1.21573 1.35113e-18)
(4.06731 -0.422026 9.78796e-19)
(1.15406 -0.792696 -3.24911e-19)
(4.09893 -0.0150405 0)
(4.79966 -1.9683 4.31612e-19)
(3.75768 -0.331201 -5.2496e-20)
(3.31592 -1.463 -3.32674e-19)
(3.9737 -0.17909 -1.31895e-18)
(4.25006 -1.08599 0)
(4.07737 -0.702427 3.53813e-19)
(3.46963 -1.11492 -3.747e-19)
(0.646147 -0.248955 0)
(3.92111 0.0378852 1.15705e-19)
(3.86269 0.209651 -7.66079e-19)
(3.99165 -0.0200376 8.56228e-23)
(5.02287 0.594799 1.0976e-19)
(5.61278 4.4537 2.71606e-18)
(4.02473 0.0897558 0)
(2.4076 -0.902235 -1.64948e-20)
(4.07669 0.434879 -3.15326e-19)
(3.74518 -1.38271 -7.47095e-19)
(4.14573 0.422205 5.93625e-19)
(1.69952 -1.76102 6.65818e-19)
(4.10238 0.0151828 -2.92519e-18)
(4.02724 0.118076 5.53385e-20)
(3.86934 0.150589 -7.35754e-20)
(3.65473 -0.857305 0)
(3.88162 -0.0322258 1.57373e-20)
(2.59597 -1.20143 9.08118e-19)
(4.36198 -0.111592 -1.36793e-18)
(3.9633 0.109532 -1.06696e-18)
(3.97122 -0.153218 1.47042e-19)
(3.47238 -0.452528 2.7873e-18)
(3.96103 0.073842 -4.39299e-20)
(3.6471 0.098668 6.69309e-19)
(3.98475 0.0488655 6.67435e-20)
(4.18537 -0.607227 -5.81824e-19)
(5.02239 1.32372 -8.07787e-19)
(3.32996 -0.885661 2.15834e-19)
(4.3406 -0.0744252 0)
(3.81995 0.327891 0)
(3.41977 -0.856494 0)
(2.90846 -0.923058 2.03441e-18)
(3.80038 0.145505 -1.7504e-18)
(3.62376 0.375121 0)
(3.2649 -0.758123 -1.59414e-18)
(3.60272 0.315712 0)
(3.65009 -0.643672 -1.24221e-18)
(3.82437 -0.058079 -8.45976e-20)
(3.93965 -1.0464 -1.12221e-18)
(4.11054 -0.0217487 0)
(3.89871 0.0272684 0)
(3.80118 0.00555689 3.82637e-20)
(4.78604 0.122722 1.45032e-20)
(4.23964 -0.10035 2.88107e-19)
(5.16595 3.04868 -3.94074e-20)
(4.88985 0.285172 0)
(3.70263 -1.37109 -5.74125e-19)
(1.82023 2.70602 0)
(2.10883 1.50214 -1.11635e-18)
(5.69522 1.44212 0)
(4.02335 0.0431234 3.05352e-20)
(2.61419 -0.454604 8.93126e-19)
(3.16427 -0.375486 8.8477e-19)
(3.94055 0.0533474 -8.03071e-20)
(3.44943 -0.789135 -7.28981e-19)
(4.01825 -0.426616 2.48043e-18)
(4.12343 0.511065 -1.55519e-20)
(5.68981 -1.33614 2.32979e-19)
(4.12493 -0.903982 -5.53106e-19)
(1.74863 1.70683 4.10042e-18)
(4.90807 0.318513 0)
(3.94881 0.0683181 1.53017e-22)