/*--------------------------------*- C++ -*----------------------------------*\
| =========                 |                                                 |
| \\      /  F ield         | OpenFOAM: The Open Source CFD Toolbox           |
|  \\    /   O peration     | Version:  2306                                  |
|   \\  /    A nd           | Website:  www.openfoam.com                      |
|    \\/     M anipulation  |                                                 |
\*---------------------------------------------------------------------------*/
FoamFile
{
    version     2.0;
    format      ascii;
    arch        "LSB;label=32;scalar=64";
    class       volScalarField;
    location    "9.5";
    object      p;
}
// * * * * * * * * * * * * * * * * * * * * * * * * * * * * * * * * * * * * * //

dimensions      [0 2 -2 0 0 0 0];

internalField   nonuniform List<scalar> 
5098
(
0.53789
0.922869
0.149766
0.738182
-3.7823
1.13281
0.627976
-1.07018
0.162672
0.737141
-6.90022
0.226516
-0.878916
1.63411
-0.893763
-0.0496349
-8.32395
-4.5678
-1.26997
-7.85496
1.63048
-0.0520912
-1.5499
2.61793
-2.87454
1.04744
1.26946
-0.34143
-1.26496
-2.57965
0.164805
1.91904
1.10156
-6.79128
0.40332
-1.01697
0.281381
0.899319
1.51726
-1.1745
0.665172
-3.61283
0.989756
0.352547
0.643743
0.986792
-6.9648
2.00723
0.122821
0.817601
0.758998
1.80583
-2.43902
0.685799
1.14863
1.69013
1.46
0.522399
1.93128
-0.337645
0.0724693
-5.47106
0.413353
-0.644266
-2.4451
1.67741
-0.0281845
0.706423
0.12868
0.347324
1.45004
-0.239949
-0.741396
-0.344715
-0.112856
0.803592
-0.0787658
1.81819
0.526963
1.63656
-0.377809
-0.71645
0.989621
-6.73776
-4.76539
-2.82545
3.11729
-0.0937019
-0.943227
0.0606943
-0.128001
-1.9332
0.217809
0.747335
1.52259
0.329351
0.27625
1.93141
-0.0914072
-0.315619
-10.1602
1.03668
-6.0641
-0.0738636
1.77822
0.678464
1.40306
0.649849
2.06204
-6.62628
0.515013
-1.08669
0.871673
-2.40901
1.58528
-1.37526
-1.19995
0.201005
-0.139989
2.55792
1.75053
1.4814
0.680954
-2.45593
-1.96737
-7.60666
0.586641
-1.39472
1.7753
-2.35814
-2.79924
1.82246
1.77404
0.355778
-9.05333
-2.31931
0.63516
1.37776
1.51493
0.639377
1.87646
-8.79156
-0.549984
0.15599
0.990794
-0.099271
0.211182
-4.20293
-0.612335
-1.13165
-4.59117
-2.08394
-5.04481
1.12372
3.10385
2.3946
0.537624
-9.91431
0.670129
-1.32464
0.109531
-1.02372
-1.97427
0.922584
-3.57142
0.274096
-4.30703
-1.8925
-2.80065
0.600583
0.240617
0.834076
0.976757
-0.299515
0.245059
1.06319
0.944116
-0.919601
1.09412
3.01126
-0.0865848
-1.11532
0.424864
-3.41143
0.878667
0.23926
1.89534
0.254099
0.753758
-2.73787
-1.17362
0.035738
-0.860633
-0.139957
0.244221
-2.15432
-0.0120848
-2.28918
-0.00923325
0.526004
-2.51901
1.73069
0.657978
0.918767
0.676466
2.38397
-0.0871291
1.56782
0.261222
-0.916562
0.730584
1.68161
-0.212051
0.956542
-0.841463
-1.21855
-0.164016
-5.86563
-1.8704
1.08483
-0.12088
1.19283
-0.060788
-0.208804
-2.40143
0.563013
2.84564
1.27825
-0.164776
-4.347
1.62621
2.60556
-0.0584732
-0.0208941
0.244783
0.23793
1.83418
-2.30341
-1.0764
1.19408
-0.827301
0.963631
0.0218623
2.17311
1.52884
0.182143
1.5557
-6.16606
-8.21975
0.189895
1.07837
-0.465699
-1.40787
-2.33632
1.13447
-2.38297
-9.12167
0.819609
1.94185
-0.127315
0.204569
-2.44
-2.7231
-0.711765
-0.0363301
-4.56789
-1.32549
-6.75146
0.598298
1.22535
-2.74541
0.556073
-1.30959
0.651083
1.8831
-4.79372
-4.07402
-4.86872
-2.08789
0.764226
-2.74767
-0.906811
-2.43142
-0.942395
-7.31487
-10.3995
1.15615
-0.0875155
0.268578
0.229176
-2.45246
-2.16566
2.2689
0.666392
-0.387647
0.809899
0.302878
0.212873
1.268
1.08155
-0.100665
-0.0744773
1.08489
1.50012
-4.6114
-0.00326127
0.18654
1.07397
0.495604
-6.99756
-0.087618
-1.51554
1.06975
-0.271471
-1.0631
3.04286
0.584835
-0.0718553
0.237974
2.28442
0.507567
-2.03926
-0.929903
-1.44289
-0.0806686
1.58144
1.13731
1.27153
2.01469
-0.140846
0.280282
0.230038
1.52079
-2.42435
0.26337
0.719453
-0.436931
0.846553
0.425605
0.536186
-0.641265
0.403495
0.477793
1.27473
-1.22529
-0.0759533
0.57024
-1.37547
0.168996
0.216322
-3.46792
2.58956
2.23959
-2.5784
-0.307236
-2.71338
-2.8225
0.251801
1.74914
-0.343823
1.29702
-0.0235905
0.27794
-0.0902801
0.311452
1.92913
1.27895
1.1861
-2.457
-2.40672
1.78412
0.398971
-1.17647
0.0205829
-0.32624
-5.44415
0.45315
0.0257638
-1.61223
-0.103441
0.732726
-7.87294
1.21947
-0.125794
0.193759
-0.412022
0.493375
-2.29581
0.726526
-7.81191
1.27756
0.396665
1.27823
0.539134
1.7041
-0.489435
0.866048
-2.08284
0.908614
-1.13931
-2.21891
2.3028
1.82771
1.27587
-1.36035
0.887483
0.549156
-4.18483
-0.108793
-0.769561
1.27285
-2.97239
-2.42808
0.703502
-0.0129064
-0.693015
1.47718
2.60744
-0.165385
0.024133
0.663779
1.42378
0.32995
1.09822
-2.80916
-1.95706
-0.0530926
-3.38095
0.363358
-0.310834
-0.0462845
-1.29797
-0.0184553
0.0290774
-0.242511
-1.42956
0.0244757
-1.45543
1.24779
-0.306431
1.0962
0.430483
1.20803
-9.02668
1.87223
0.00987422
-1.45024
-0.819264
-1.21675
0.56295
-7.51654
0.191681
1.27125
-9.46085
-7.7083
0.209507
-3.55953
-0.465538
0.136977
-0.815964
0.937622
-0.18901
2.51297
-0.00882911
0.765624
-5.19635
-2.47431
-2.83074
-4.88684
0.600899
-1.20292
-2.60496
-3.14693
-1.05433
1.26916
-1.27567
-1.26122
1.26281
-0.954138
1.13793
1.77465
0.573807
-2.38816
-0.888138
0.414908
0.142657
0.903705
-1.02457
0.782866
0.766725
-1.12851
-4.1774
0.532455
-0.20039
-1.66193
-0.0141529
1.31298
-1.60973
1.15487
1.16994
-4.63186
-1.57985
-1.31908
-5.20049
-1.31836
-2.14827
1.22244
1.15212
-0.631368
0.322468
-1.883
1.2711
1.90468
0.290438
1.05874
0.527844
2.28976
-2.43353
-0.822608
2.13025
-4.0559
-3.11975
2.23479
-0.119593
-1.72811
-0.0135799
-0.754929
-1.84026
-0.353784
-2.42795
0.371821
2.80556
-3.65859
0.678837
-9.47457
0.637723
1.38315
-0.0952688
-2.34337
-8.62878
1.28809
-4.6324
-2.44194
1.14849
-9.00561
-5.30529
0.404989
-8.3384
2.95978
-1.43761
-0.0306974
0.394294
0.0548285
-1.43752
-0.627968
-7.37011
-3.04928
1.13191
-7.40413
-0.9938
-7.36842
-2.63981
0.865581
-2.32769
-4.9966
-2.96434
-1.55832
-0.11702
-2.92082
-1.62245
-1.95244
-2.97502
-1.93484
1.55364
1.82207
3.07042
-3.9812
1.09813
2.07636
-10.0252
0.730606
-5.23618
1.08657
-7.21001
0.803403
-0.464705
-0.106347
1.36452
1.4279
-2.43757
-1.96767
2.42466
-0.281377
-4.02528
0.523263
0.892829
-1.51804
1.185
-1.0158
-0.804481
-0.191799
2.38186
-2.39359
-4.17147
1.83816
-10.1853
1.59798
-3.04831
-2.43764
-3.08921
-10.6783
-2.451
-1.65801
1.70301
-1.01825
-0.7403
1.79224
-0.746131
0.837007
0.755531
2.31439
-1.40657
1.30183
0.949038
-0.1342
-0.37306
-2.37868
-0.997007
-3.94646
0.0199168
-3.44178
-0.318937
1.94331
-2.69534
-0.0587301
0.702428
2.54004
-2.42258
2.1494
3.00378
-0.824295
0.228279
-0.830445
1.28238
2.01909
1.64221
-1.16933
-0.265523
-0.182157
-3.92579
0.23601
0.397917
0.670933
-7.93548
-0.108622
-1.45428
-6.43587
-0.72982
-0.299277
-0.139278
0.686697
0.780733
-5.83228
1.96645
0.970617
1.78938
0.758627
-5.42664
-0.378872
-0.172058
1.89183
2.49271
-1.47965
1.52003
-4.31157
-2.58437
-3.7577
0.769081
-1.24988
-1.31471
-4.1079
-5.42205
-0.472109
0.0819267
-1.10835
0.0283258
1.14711
-1.29885
1.06982
-0.0653411
1.15975
-2.43474
-7.72447
0.0302542
2.07266
-3.75405
-7.86884
-0.226535
-1.38422
0.625871
-3.48642
-1.7506
1.73491
-4.02594
-4.60901
-1.72731
-6.05884
-1.25581
0.781903
0.80512
2.67318
2.04339
1.67679
-3.16595
-2.16023
-1.20901
-1.31775
0.815944
-2.17347
-1.82258
-2.64886
-3.68683
1.40138
-2.20293
0.471245
-2.86859
1.61768
1.26828
-3.07078
0.7894
-1.48549
2.65557
-0.12669
-0.397197
-0.784958
-4.01059
-7.95321
-4.2052
-1.93771
1.70506
-2.11073
-0.913238
-2.12657
-2.50086
-1.05073
-4.81686
-0.76499
-0.28563
-0.080537
0.847205
-3.42773
0.875888
1.72359
-2.43204
-1.1629
-3.04555
0.738913
-1.31784
0.722536
-1.22025
-3.89199
0.045135
-2.20036
-5.09075
-2.6336
-9.6437
0.959444
0.151494
-1.15354
-2.12279
-1.45387
1.2782
0.658333
-2.91702
-3.20566
2.77023
-0.789704
1.67623
-3.37237
1.1176
-2.41262
-3.47733
0.455526
-2.44584
-6.84693
1.8426
1.81549
-6.43665
0.146868
-5.12313
1.37357
-2.35715
-2.36252
-2.43647
-2.6977
-1.34838
-0.121273
0.287009
1.19426
0.139957
0.521484
-2.72529
-0.639077
-7.24915
-2.00808
1.11462
-1.70587
1.89644
-0.773092
1.64876
0.89477
0.63065
-6.74324
0.30303
-0.550457
-0.415961
1.28129
0.746749
-0.401226
-1.69012
-2.43914
-9.70091
-4.09476
1.19329
-0.172726
0.938436
-2.22226
-3.36152
2.97775
-5.40219
0.713571
-0.03705
1.71949
-1.77463
1.66395
-7.34057
-3.61755
2.0377
-6.12464
-1.30457
1.15965
2.16056
0.648396
0.230657
-0.707861
-0.363674
-3.0578
-1.06705
-2.13979
0.540815
-3.19324
-1.8126
-2.402
-0.862189
-0.0170423
-1.36273
-0.629486
-2.06891
1.19875
0.770592
0.128026
-10.203
-1.81022
1.79135
-2.49034
-0.617956
-2.22888
0.212346
-2.26958
-2.40797
-1.90681
-0.466778
-0.221045
1.35392
-2.42973
-7.00533
-1.53767
0.0837963
0.0524702
-3.36478
0.337264
-2.42681
1.28801
-10.559
2.48163
2.11245
-0.302685
1.21989
1.56578
1.48178
2.45515
0.864753
-2.60522
-8.94953
-3.64096
-9.57548
0.151726
-2.74534
1.26779
-1.64718
1.36998
1.52138
-0.0347477
-0.076145
-3.81804
-0.555945
-0.917032
-0.269221
1.8493
0.63951
0.470135
0.606884
-2.4882
-9.66797
-9.30748
-1.577
-0.785298
0.480768
0.70356
-6.44571
-2.67713
1.99484
0.468364
1.72453
1.72907
0.703346
-0.346238
-0.518967
-0.70602
-2.36139
0.971323
-0.133666
-0.560567
1.37418
2.17487
-4.25854
-0.298664
0.714213
1.58327
-8.26115
-0.827666
-1.52927
2.58744
1.17602
-1.80505
-0.103455
0.243723
-4.20858
1.34507
1.29415
0.235397
1.04975
-2.17957
-9.22927
0.473145
0.809399
1.81488
0.422722
1.62613
-2.49203
-7.06067
-2.31781
1.33743
1.686
-1.39731
-0.520753
2.5682
0.925103
-0.0486648
0.215677
2.41143
0.95943
0.377739
0.715645
1.09072
-0.267519
-0.85643
1.36258
2.8821
0.314601
-8.73669
-2.39499
-0.69531
-2.70621
1.66867
1.24126
-0.959259
-0.200091
0.787336
-0.243707
0.337833
0.0633253
1.50844
1.42463
-1.80634
2.34585
0.710891
-1.78593
0.00222535
0.311636
-0.0554239
0.152992
0.923436
1.03668
0.709417
0.311455
-6.03582
-7.25721
0.812796
0.340964
1.77361
-2.95591
0.791562
0.787887
-0.239901
0.904453
1.47663
0.0015859
0.0277324
-0.0266837
1.29444
-1.5358
-0.774888
-0.552753
1.57427
0.377231
1.09806
2.23206
-2.97007
2.13206
2.52816
-0.94872
-1.07851
-4.54513
2.88451
-1.27514
1.07364
2.36147
1.06465
-2.45112
1.26182
0.220996
2.61025
-0.796612
0.367479
2.70492
2.0542
0.0743644
2.63933
1.73354
0.184323
-5.76013
-3.23324
-0.00308814
0.0036019
0.619047
1.6544
-1.42648
-0.260538
1.33255
-0.20253
2.27631
-0.502358
2.56673
-1.62067
-2.72947
-0.539382
-0.633573
1.7867
0.124031
0.279758
-4.3102
1.67838
0.201665
1.36741
1.04446
-4.66658
0.492999
-0.229407
-1.57339
-0.28749
1.91082
0.469105
-0.0701505
-0.336138
-0.444802
-3.81781
1.6254
0.190695
1.03352
-0.579973
-3.20298
-4.18905
0.407161
-0.0948882
2.25019
-0.746805
0.33508
-4.1778
-9.04901
1.47947
2.40021
-3.14659
1.38433
1.12539
-3.75241
0.766963
-1.42087
2.83263
-1.88252
-0.657326
0.997377
-10.4235
2.00083
-2.52344
-2.22438
-0.0336933
-1.85391
-2.42592
-3.04328
0.532138
-0.258219
-2.44833
-0.00218795
0.900657
-0.673725
1.49359
1.96887
1.32371
1.45446
-8.82027
-8.3224
0.161845
0.430192
-2.15211
-0.00089343
-0.0766169
-0.0028428
0.357389
1.7377
0.999778
1.08597
1.23526
-1.22675
-0.170328
-1.51262
0.191573
-1.47273
2.58052
1.33798
1.04649
-8.5535
-0.594697
1.03304
-0.199618
-4.87307
-1.36467
-0.641317
-0.865313
0.568882
-2.37602
-0.183499
0.598018
-2.44095
0.609981
1.94318
-0.668843
-0.7194
-0.29603
1.41048
-6.09199
0.338341
-9.76774
0.011168
-8.12263
-7.1714
0.900414
-2.84911
-0.889396
-0.470421
-3.25071
-5.49864
-3.32723
1.37646
0.280969
-4.8824
1.87247
-2.58481
1.10326
0.453869
-1.56327
-0.177777
-2.08789
-2.64476
0.0460398
1.26581
0.924033
0.555987
-2.38155
1.6594
-4.87715
-0.715007
0.0014759
-2.71573
-0.1456
0.0539688
1.47675
-2.56714
-1.32878
-9.22528
1.23003
1.41654
-3.40218
0.318787
-0.0265855
0.00910557
0.22718
0.249325
-0.194515
-4.13649
-3.64162
2.11937
0.418656
-0.0592019
-0.505892
-0.00214679
1.38473
-3.16564
-0.678885
-8.78689
1.24248
-0.128856
-0.0122076
0.249346
-0.00415826
0.700814
0.543277
1.00386
-0.308753
-2.25183
0.203704
1.52046
-0.109387
1.10008
1.10462
1.4195
1.21396
0.68659
0.924153
2.41917
0.341072
-0.723451
-0.672711
-2.70421
0.14456
-0.822239
1.0292
0.701458
2.34874
-0.0582843
0.253031
-9.03161
0.006293
-8.88011
-0.434942
-2.51581
0.486957
-10.7192
0.617527
1.15723
1.34274
-2.47675
1.42864
-2.47349
0.707941
1.34128
0.968542
-6.41162
-1.21909
-6.64493
0.556851
-4.03957
-1.34927
0.849144
-0.797615
-0.0587346
0.976561
1.96381
-0.621016
1.93129
0.180915
-2.98788
-1.37267
-0.538417
-0.075186
-0.552554
-2.65724
2.10982
-0.00323437
1.04049
-3.16627
-6.64318
1.7256
1.56253
-0.00283604
-0.159873
1.36773
-1.78483
-0.301253
1.23109
-0.552215
-0.616051
-1.16945
-0.822928
2.17473
-2.27247
1.24865
-0.153645
0.0969009
2.69958
0.453873
0.00515444
1.26652
-10.132
0.883968
1.08259
0.283911
1.27762
-0.139993
1.23656
1.38366
0.0830041
1.46885
-3.83636
-1.93233
0.00354633
-1.43224
2.1178
-2.44544
-1.70628
0.592078
-0.295643
-0.931787
-2.49541
0.612326
0.146894
1.09062
0.831503
-0.748671
-3.62382
0.11745
-7.74805
1.53154
-1.55247
-2.40865
-1.40674
-10.2129
1.19357
-2.44162
-2.5134
1.33502
-2.47477
0.768964
1.34279
-2.38487
-2.50321
1.19181
2.08602
-2.4556
1.25731
-2.06377
-0.944449
-3.01392
0.322096
-0.761435
-2.60662
2.46634
-2.00313
-2.10972
-0.0184443
-0.795857
1.42341
-0.664428
-1.8569
-2.61393
-4.02199
-8.61955
-2.34142
-0.987202
1.71249
0.326792
-4.27914
-0.0117226
-2.46276
2.406
2.50738
-2.45706
-0.617022
0.110802
-2.54407
0.237626
2.14891
-0.966636
-2.52599
1.25076
1.25521
1.23526
-0.832718
-0.417489
-4.08387e-05
-1.3021
-0.502035
-0.856038
1.11416
-0.572842
0.371345
-0.00941621
1.28411
1.14595
-0.306213
1.14301
1.21335
1.24709
-0.173789
2.18901
-0.638126
2.01652
-0.118547
1.88544
2.82182
0.0278891
0.126422
0.873417
1.30857
-1.22635
1.06629
-0.313586
-0.226313
0.235132
1.38379
0.357159
0.453582
1.43341
-1.08709
-2.63977
2.64317
-2.43564
0.52782
-4.32035
-0.359104
-2.36335
1.13772
0.496592
1.14746
0.648916
-0.548623
-0.283531
0.793035
-0.224873
-1.46661
-3.28669
0.667993
-4.20762
0.306492
1.06538
2.48045
1.27865
1.05603
0.913552
0.333915
2.28044
1.18208
1.26887
0.795431
-6.05659
-1.80593
0.112293
-0.800495
2.67838
-3.00326
0.203583
-3.42229e-07
-0.521014
2.44847
1.15141
0.235442
-3.91739
-0.567139
-0.682151
-0.161617
1.20279
1.7309
-0.367327
1.60577
0.194861
2.28342
-1.71869
-0.352098
0.879585
0.524021
0.362883
1.66038
0.734337
-0.253107
1.17546
-0.142633
-9.42546
1.47075
1.73439
-0.504065
-2.81612
-2.43905
-1.3885
-0.727196
-2.52625
0.192917
1.2776
-0.118415
-0.904448
0.380739
-2.23088
-0.757289
-0.0227775
-2.08333
-3.90008
0.244347
-2.4462
-2.60735
0.817042
1.28432
1.04187
-7.35314
1.02699
-1.2831
1.36111
2.17362
-2.15742
-0.0233441
-0.139051
1.87917
0.387779
-6.9058
-0.480198
-1.42902
-0.187795
0.11455
2.25847
-0.131941
0.000146231
1.04266
-0.578105
-0.00531678
1.2314
0.254982
-0.534168
-1.22444
-2.5951
0.899422
-2.38273
-0.172897
-1.49398
-2.86055
1.22667
1.22194
2.46528
0.218378
2.43178
0.32774
1.61797
-5.59312
-2.31792
-8.56029
1.5771
1.10785
0.200664
0.445281
-2.51236
-6.71889
-0.00315826
-0.563589
-0.130148
-0.53069
-0.236669
0.138465
1.19037
1.34999
-1.63366
0.0692574
0.136771
-0.412428
-0.399398
1.1505
-0.482181
1.13092
-1.22808
-0.125105
1.26647
-2.12949
-0.619056
-0.000129023
-0.446829
-2.6807
1.14488
-1.43463
-0.106242
-0.173226
-2.66008
-1.76573
-0.190642
1.8135
1.62271
-0.00217473
-1.1719
-6.35394
1.07133
-0.0382564
-0.606477
-0.00429579
0.252907
0.108065
-0.134137
-1.63777
-0.00324898
1.03088
-0.103825
0.16347
-3.46077
-1.93641
1.25917
0.994133
0.0615659
0.270716
0.86124
0.880167
-0.527883
-0.645533
-0.2179
-6.91264
-0.116537
0.94691
-2.76722
0.282802
0.0747767
-0.0148768
0.0543357
-0.049054
-0.143594
-0.0908734
1.3837
1.19805
-1.39727
-0.106507
-2.76795
-6.85401
0.915562
-0.172502
1.8532
-1.77038
1.25714
0.878847
-1.49161
-1.39156
-10.0766
-1.29134
-9.91695
1.15591
-0.179283
-0.124092
-2.42725
0.833791
-0.735106
1.4201
-0.00413912
0.0224076
1.60827
-0.0357864
-0.0424832
-0.915183
1.28604
-0.0128057
1.32058
1.14392
-8.11411
-0.139458
1.34702
-1.57013
1.19976
-5.74446
1.09877
-3.60468
-0.109332
0.0368862
1.01512
0.994162
-0.678379
1.27452
1.02018
-0.179161
1.51823
0.987447
-2.94355
1.27873
-0.122252
-0.017969
-1.57746
-3.51708
-0.117601
-2.45972
-0.000410058
1.26934
1.35409
-0.208032
-0.470258
1.05347
-0.0499744
1.27227
-6.24723
-0.00637454
-0.44902
-2.66936
-0.350879
-9.45539
-0.287879
-3.80987
-0.122832
-1.4682
0.246345
-0.197626
-6.90324
-0.204126
0.28221
1.7737
-3.10518
-0.00670087
-0.992114
0.482316
-0.370646
-4.36139
-1.11466
0.858306
-0.33381
0.817528
1.32002
0.000286642
-0.1244
-0.420703
-0.133619
-0.259547
-2.36763
1.24334
-0.862008
-0.0085986
-1.84512
-6.52554
-0.0315974
-0.133806
-1.37755
-4.80418
0.104796
0.136621
-0.0856303
-0.132824
-0.0119544
-0.00167151
-4.25055
-1.73528
-7.4605
0.983696
-1.09585
-0.106272
1.05022
1.08327
-0.13076
-0.00959511
1.06328
0.542769
-0.0128327
-6.69641
-0.0196978
0.835158
0.683587
-3.70259
-0.00739417
1.02279
0.0747064
1.20088
1.15243
-0.112222
0.356091
1.16343
-0.332357
-4.11597
-0.128228
-0.692565
0.997263
1.27526
-0.000732098
-0.0808886
-0.133737
-0.132328
-0.287357
-0.110737
-5.11249
0.00555432
1.27846
0.141439
-0.141793
1.26456
-0.120892
2.18738
-0.126852
0.135338
0.0848308
-0.156452
1.22663
-0.126162
-0.308115
-10.0309
-0.222436
1.21248
0.983024
-0.129961
1.27618
-0.0867599
-0.169066
1.06337
-1.71704
1.14286
-0.162758
0.0354275
-0.583768
0.315803
-0.652822
-5.95874
-0.455456
0.996424
0.954584
-0.0958055
1.08401
-0.0066674
-0.445746
-0.198149
0.692907
-1.0183
-6.51781
-0.329861
-0.00205593
-0.539049
-0.161958
-0.552557
-2.76959
1.88892
-5.33196
-2.43985
1.88205
0.0144556
-0.484467
-0.143378
-0.701622
-0.0953889
-0.548728
-0.161509
-1.35202
-9.68585
0.862139
1.25335
-0.207807
-0.29459
0.474623
-0.0035506
-0.0211958
-0.1264
-0.13714
-0.274238
1.2318
-3.4347
-9.91385
1.0332
-0.186601
-1.39696
-0.0777775
-4.67679
-0.0704729
0.220123
-1.45721
1.28688
-0.239645
-0.266942
-2.38671
-0.187384
-0.411641
-0.152442
-3.2712
-9.95151
1.84173
-5.38374
-0.00703292
-0.00275564
-0.795685
-0.0622313
-0.131301
-2.55473
-0.00192639
-0.124326
-0.308602
-0.15278
-0.233674
1.58938
0.336475
-0.0299142
-0.0845552
-0.131963
-2.97122
-0.12575
-1.35709
-0.113216
-0.309566
1.37356
0.134536
1.26378
-0.0314477
0.0282083
-0.073251
-0.000894126
-0.0102665
-1.30507
-4.05334
-0.128043
0.231949
0.0623862
1.00298
-0.0792499
-0.101695
-0.0513931
1.14694
-0.134745
0.237351
0.198296
0.000821354
-0.141135
-2.91377
-0.123672
-0.00783224
-0.207015
1.25644
-0.00102416
-0.363416
-0.0611119
0.525207
-0.322874
-1.26532
-0.00502692
-0.0674478
-2.4757
-0.151549
-0.126066
-0.425607
-0.00843051
1.25492
-0.0761199
-1.63257
-0.111556
-0.132059
0.361767
-0.202456
-0.130692
-2.59329
-2.48494
-0.122819
1.44199
1.46995
-0.0159164
-0.132489
-1.35903
-0.0269104
0.313681
-3.43048
-0.0491876
1.1973
0.456285
-0.0187718
-0.0624506
-2.21568
1.19597
-0.0709495
-0.02741
-0.0470491
-2.20432
0.0832824
-0.274041
-2.40789
1.04835
0.296338
-0.751002
0.460807
-0.0073398
1.2766
-0.0398688
-0.0100012
-0.0584054
-0.0229959
-8.41123
-0.167108
-0.20628
-0.0134333
-0.140106
-0.0177158
0.0904617
-0.0276106
-0.0709936
-0.441293
-0.145264
-0.0874968
-0.00213987
2.55648
-0.117482
0.0375342
-0.015697
-0.0573982
-0.61441
-0.104597
-0.00113378
0.382906
-0.16243
-0.125279
-0.0742081
-0.038783
1.28769
-0.0201046
-0.112641
0.0207246
-0.00650569
-0.00690032
0.05308
-0.120052
0.59936
-0.148527
-1.00094
0.470555
-0.0717044
-0.167644
-0.0681299
0.0214061
-2.66647
-5.31642
0.203916
-0.143602
-0.0173252
-0.00974417
-1.89581
1.19178
0.823029
-0.0814931
-0.217615
-0.155103
-0.0777941
1.28309
-0.0239671
-0.198196
1.45337
-0.123746
1.40369
-0.16287
-0.267862
-0.0151424
-0.04481
-0.0221701
1.52569
-0.122967
0.00106409
-0.52056
-0.768968
0.378278
1.27855
-0.00980684
-0.571299
-0.402967
-0.0235399
0.00115936
0.0482957
-2.36405
0.00125998
-0.135537
-0.0944915
-0.122388
-0.119759
-0.187697
-0.346909
-3.03983e-05
-0.0336771
-0.0307269
1.36877
-0.890389
-0.0575252
-0.130674
1.30696
1.61926
-0.0216665
-0.0022846
-2.79554
-2.61307
-0.0126631
-0.176872
-0.0328497
-0.200151
-0.00219943
-2.74054
-0.015941
0.0177121
-0.125814
2.01164
-0.040262
-0.134761
-0.385124
-7.60822
-0.0346911
0.850165
0.0278059
1.01514
0.0161643
-2.44169
-0.0409145
-0.165514
-0.481028
-0.280483
-0.17382
-0.0313692
-0.0451658
-0.133608
-0.0234617
-0.0435838
-0.114574
-0.0241283
-0.0345282
-0.119168
1.25731
-0.0499856
-0.571432
1.08408
-0.0609194
-0.0981595
-1.15915
0.980065
-0.200492
-10.433
-0.0887562
-0.0778162
-1.61387
0.0454885
-0.139942
0.190807
-0.124732
-0.0548312
-5.24273
-0.0190279
-2.34009
-0.173723
-0.120306
-2.5927
-3.28688
-0.020942
-0.0557893
-0.145013
0.216962
-0.0730129
-0.0766261
0.829589
-0.0139773
-0.0271896
-0.0407702
-8.56306
-0.0482793
0.00302074
-0.0971678
-0.1287
-0.169604
-0.230207
-0.0181418
-6.52309
1.83889
-0.114073
-0.0510808
-0.0884677
-7.70662
1.27041
-0.122483
0.112098
0.00063295
1.34472
-0.0522015
0.243025
-0.0620385
-0.00175668
-0.0373936
-0.0393299
-1.30509
-0.208676
0.27936
-0.376119
-0.084409
-0.0249259
-0.134836
0.4695
-0.385485
-0.0230123
-0.0318761
-0.13302
1.55072
-0.128754
-0.0378405
-0.0207317
-0.149177
-0.0807972
-0.0441791
1.52685
0.787003
2.20472
0.00162871
-6.0792
-0.404248
2.81914
-1.01174
-0.110665
-0.0646673
-0.130697
-0.747982
1.33147
-0.370659
-0.302517
-0.0808351
-2.37587
-0.171498
-0.113561
-0.0596521
3.03167
1.17985
1.83427
-0.280268
1.23271
-0.0315883
-6.44906
-2.42441
0.953014
-2.5045
-2.4695
-0.0364517
-0.79208
-0.217833
-0.117712
-2.34725
-0.285943
-0.707164
0.684183
-10.1057
-0.108202
1.08639
-0.12552
-2.14785
-0.0737115
-0.0684176
-0.119578
1.56435
-0.140339
-4.93992
-0.0557983
-1.39586
-0.00185586
-0.539495
-0.719715
1.85331
-2.54573
-0.366485
-0.405403
-0.0649463
-0.0859843
1.20156
1.33633
-0.118768
-0.412896
-2.46356
-0.651664
-1.56862
2.38765
1.10755
0.215605
-0.102601
-0.258522
-0.134318
0.914751
-0.112146
-0.562775
-0.103133
1.08641
1.27004
0.369591
-2.35752
0.263294
-0.479801
0.00764582
-2.03399
-0.0834605
-0.70037
0.911217
-0.024783
-2.61727
-0.0684634
1.77272
-1.61831
-0.345908
-0.136213
-0.875851
0.0369831
-1.38658
2.34035
-0.0741199
-7.61052
-2.66616
-0.379874
-0.0531821
0.799102
-0.565686
-0.178425
-0.818249
-2.43587
1.37713
-0.118234
0.0294672
-0.837914
-1.34093
-0.119225
-2.51033
-0.0810708
-6.44384
2.49656
-0.0943318
-2.61646
2.11567
0.0010345
-0.0690993
-0.132105
-0.00582964
1.5787
-1.96297
1.27436
1.21331
-0.0528751
-0.198528
1.17881
1.17924
-0.0702931
-0.23909
-2.96757
-10.2172
1.21562
-0.176354
-1.5834
-2.49725
-0.25927
-3.80957
-0.128336
-0.103416
1.34734
-0.128199
-0.239502
-3.06648
-0.0783179
-0.0703271
-0.0678314
-2.4177
-7.20563
0.0179885
-0.224047
0.0840627
-0.819463
-0.132051
2.35166
-0.108688
-2.19357
0.216597
-0.050338
0.178677
-0.145427
1.21608
-0.121371
0.712534
-2.2609
-0.0987352
1.44758
-3.77755
-9.61498
1.59493
0.725341
-0.130591
-0.140837
1.21749
0.303992
-0.0881557
0.416861
2.27067
-1.13241
0.504415
-0.364336
-0.11175
1.63937
-1.89746
0.0108385
-0.0720775
1.33842
0.213037
0.584811
0.431891
0.731344
-5.24377
-0.114741
0.38223
-0.110104
-0.0211602
-6.88211
-4.47805
-0.106222
-0.100491
-5.04096
-0.0981456
-0.495022
-2.52633
0.860944
1.13645
0.986168
-0.0561941
-0.899449
-0.484587
0.894651
-0.0485264
-0.0885121
2.23588
-0.0579919
-0.0406368
0.106251
-2.4261
1.3241
-0.0406213
-0.698716
-2.58589
0.0676881
0.549076
-1.52052
-2.55019
-0.637623
-0.0518288
-0.0569785
1.15077
-3.03673
-7.37391
0.103147
0.268147
0.070546
-0.000782332
-0.110891
-0.00312994
-0.427134
1.05355
-0.0613889
2.77093
1.66189
-0.152907
-0.0880943
-3.15599
1.94111
-0.228271
0.142226
2.72287
-0.0534781
-0.0380114
0.990805
2.38946
0.243765
-1.78722
1.25554
-1.82788
-0.000562769
-0.207139
0.12811
-2.97395
2.19428
0.119453
-0.00958643
0.00236379
-3.46473
0.060268
2.52693
-0.00109908
-0.0656343
-0.103964
1.24288
-0.328044
0.21253
1.14135
0.427512
-0.0951845
-0.234634
-8.62599
0.0945665
0.266905
-0.250489
-0.0797746
2.06974
-0.0409339
-0.117425
1.32062
-0.0230327
-0.0146201
0.0327118
0.293901
1.11088
-0.0436382
0.24712
-0.971632
-0.0471657
-0.356146
-7.25926
-0.149874
0.080558
-0.018648
-0.0323211
-0.508675
-0.0536242
-0.0684599
-0.00920817
0.357525
-0.158473
-0.475762
-2.26856
-0.0805213
-1.25751
0.433464
-0.00306433
0.306252
-0.16247
-2.60511
-0.024216
1.29686
-0.49693
-0.270277
0.0628418
-0.426529
1.42893
-0.0276438
-2.26372
0.225167
2.95134
2.44122
-0.0636886
0.509457
-1.34833
-0.00462294
1.32188
1.25383
0.749984
-0.0207298
-0.023635
0.0456668
1.91148
0.121293
0.489185
0.293239
-6.04353
0.18112
0.0432288
1.36759
1.67014
-0.120421
-10.146
-0.193707
1.3015
1.59159
0.198952
-0.0236293
-0.109
2.40604
-0.00784938
-0.091897
-0.128777
0.0809165
-0.0314943
-0.0364635
1.25468
-0.0112322
-0.01074
0.167835
-1.2118
-0.088022
-0.00284948
1.57453
1.11162
0.869532
-0.184977
-10.929
2.6982
-0.0765893
0.0566882
1.1379
-0.613769
0.352882
1.31224
1.07703
-0.00233463
-5.46294
-2.0249
1.25005
-0.782644
-0.0106181
-0.129943
0.964484
0.604151
-0.0418493
-0.0496639
0.866311
-0.389309
-0.0172671
0.0545579
-0.0024443
-0.602337
-0.505992
1.27766
2.13052
-4.90448
1.90761
-0.253131
-0.645929
-0.0243955
-3.05514
0.101456
-9.1096
0.251424
0.171203
-0.0444314
-0.0691369
0.320703
2.84689
-0.00826525
1.40435
1.23235
-0.296771
-0.0665876
0.484051
-0.298369
-0.620638
-6.42193
-0.0685738
-0.170275
-0.0829456
-0.452974
1.58386
0.477704
0.309187
0.211294
-1.17138
0.0822858
-0.366179
0.259922
0.246292
0.0980812
-1.38752
1.32291
0.856465
-1.3513
-0.449498
-0.0126467
1.07463
1.28663
1.36702
-1.76515
-10.4237
-1.24697
-0.108054
1.25951
-1.20685
1.33369
-0.0339161
-0.0229886
-4.56307
-1.31139
1.28005
-0.562868
1.31934
0.829671
0.147037
0.0721298
-1.23334
-10.3049
-0.583615
-1.3806
1.2
0.186217
1.37463
1.33378
-0.0780642
1.35428
0.109752
-0.00406657
1.01068
1.2465
-1.97334
0.44011
1.17608
1.16709
0.235315
1.15398
0.521098
1.04875
-0.152826
-0.247514
0.0563439
-2.58278
0.879189
0.595592
0.56497
-3.04158
1.40754
-0.000569792
-1.16358
-0.162808
1.29467
0.422231
0.975173
-0.0596965
-2.4476
-0.707513
-0.0493717
-1.48662
1.14407
1.16024
-2.86156
-0.834414
0.21712
-0.245346
-1.10843
1.19821
1.78837
-0.180827
0.261672
0.626846
0.25611
0.172314
-0.0172304
0.6383
-7.56524
-0.0389412
-1.71042
-1.91585
-0.350999
1.50303
0.774138
-0.369228
-0.127476
-0.0992119
1.25739
1.26688
0.627798
-2.28176
1.47967
1.35444
1.28739
0.115197
0.0643571
0.209075
0.183952
0.661999
-5.08072
1.29289
-0.515958
0.239856
1.41399
-0.748062
-6.98525
1.84683
2.15182
0.166227
-0.044568
0.935727
1.18646
0.0761384
0.0777533
-0.170962
-0.207479
-2.01145
-0.716508
-2.13586
-1.45764
-0.290261
1.24758
2.20484
0.121235
1.26349
0.140348
3.17706
-0.491453
1.15403
0.105777
-1.37293
-5.49442
3.10185
0.206599
-0.140839
3.00828
0.639983
-1.73166
0.638302
2.92368
0.365077
2.83164
1.14249
0.0901072
-5.794
2.66113
-0.23699
-0.132763
-1.36774
0.824489
-0.00587676
0.917995
2.41695
-0.00882054
0.229049
1.15715
0.577469
0.751474
1.31347
-0.143118
-7.87532
-1.44498
2.33589
0.160147
-7.26466
0.21252
0.144813
2.2644
-0.248834
0.0929192
-6.66305
2.18672
-1.77529
-6.15236
2.11141
1.30184
-5.66316
-0.900817
-5.13723
1.05941
1.52947
-5.21173
1.99255
1.23786
0.285902
-4.85134
1.09009
1.06415
0.235067
-1.35283
-2.5725
1.38638
1.22616
-10.4638
0.977729
0.653862
-0.591292
-2.32755
1.77438
-1.29527
1.30226
-3.31013
-3.92382
-3.69482
-3.48337
-3.29706
-3.13898
-3.00992
-1.38039
-2.88825
-2.64289
2.24261
1.70582
-0.842797
1.199
0.243579
1.24469
-2.58959
1.65033
0.00041326
-2.54315
1.08276
-2.61036
-2.50191
-0.044087
1.49925
1.27603
1.16074
1.14506
1.28542
-0.713809
-2.4693
1.44169
-2.44701
0.0969982
-3.18052
-2.43702
1.32603
1.37218
-0.1185
1.15371
-0.0119464
1.29904
-2.43657
-1.00415
0.546385
1.30291
-0.781325
-1.32047
1.23367
-5.57687
-0.457073
-1.43765
-2.44763
1.17065
0.627393
0.264117
1.27534
0.389647
-0.1155
-0.0985664
-2.44644
-2.70929
1.09097
0.206166
-0.0886597
1.34432
0.0988377
-4.73202
-1.66174
-2.44372
1.03211
-4.16541
0.820624
-0.196228
-0.0198163
-2.44429
0.956876
1.40685
-2.52863
0.875624
-2.44384
-0.166581
-0.623007
-1.31116
-5.79372
0.813196
-2.41086
0.711141
-2.37719
-9.43207
1.21962
-0.0148205
1.16235
-0.0875415
0.629787
-2.27651
-1.67307
2.36848
1.3519
-2.23641
-8.56548
0.558418
-8.07338
-5.31601
1.4435
-2.07704
1.23674
0.483468
-0.0824881
0.617688
0.24131
1.25319
1.2558
0.170851
-4.29065
-1.92411
-1.31732
0.389304
0.118463
-0.344053
-0.9473
-2.33881
-1.25408
-4.52975
1.11131
0.310897
1.89098
0.480111
2.00932
1.11724
-1.59233
-1.40071
1.03647
-5.07708
1.14143
-0.0805851
0.0253557
1.14957
1.29672
-0.210068
-1.4547
-4.3268
0.141431
-3.75676
0.276611
0.952689
1.72375
1.07759
2.12642
-5.34792
0.905066
0.277477
-1.34588
0.389344
-0.754335
0.0319403
1.46399
1.29289
1.22979
-1.27575
-0.0801664
-0.206153
-0.30284
-0.443565
-0.567625
-0.723593
-1.20393
-0.171914
-0.867339
1.02301
-1.19234
-2.38442
2.3965
-1.24918
0.0389737
-2.21727
1.24743
-1.34762
1.34653
-1.25138
0.297238
-1.28045
-2.86236
-1.31405
1.26372
-0.134946
-2.19899
-1.34134
-2.44861
-8.35188
1.27975
-0.950224
-1.3687
1.24343
1.27779
-0.960654
-5.61976
1.36203
0.326854
-3.00535
0.53054
1.03354
1.86756
-1.30255
0.332496
-7.67992
1.53697
-8.55493
-0.73424
-3.66891
1.18504
1.05801
0.614589
-2.12557
1.06278
1.43872
-0.172877
-2.33314
1.04148
0.158926
0.285623
-0.493219
1.04507
-4.93028
-0.00961591
-0.00248453
1.0745
-0.25177
1.47685
0.429258
-2.76382
0.719946
-1.35719
1.45339
1.27513
1.44564
1.47105
0.228496
0.347386
-2.82562
-0.628498
-2.17757
0.171375
0.402041
1.36975
-1.16958
-1.05732
2.41086
-0.00184696
1.12749
1.14797
-3.22282
-0.0399697
-0.449177
0.144101
1.07047
0.459814
1.19906
1.16774
0.84083
0.445066
1.42566
-1.33047
-0.0237553
-3.08154
-10.1627
0.134329
-3.3285
0.814502
-3.13779
0.953223
-0.175712
-2.44397
0.286085
-0.977995
-3.43903
-10.8171
0.260696
1.33626
-0.672063
-0.897845
-0.0421621
1.02655
0.238582
-6.81527
-0.0175056
0.0716348
0.550042
-4.85128
1.29959
0.707725
1.293
-9.41206
0.291599
-0.00888427
-0.0149368
0.569187
-3.1589
0.680337
-0.0638937
-0.0264686
1.186
1.55035
-0.579939
-2.50826
1.24285
-1.82968
1.36307
-0.0871667
-0.0858151
0.0481616
-2.39043
-0.00693442
-0.169319
-3.51482