/*--------------------------------*- C++ -*----------------------------------*\
| =========                 |                                                 |
| \\      /  F ield         | OpenFOAM: The Open Source CFD Toolbox           |
|  \\    /   O peration     | Version:  2306                                  |
|   \\  /    A nd           | Website:  www.openfoam.com                      |
|    \\/     M anipulation  |                                                 |
\*---------------------------------------------------------------------------*/
FoamFile
{
    version     2.0;
    format      ascii;
    arch        "LSB;label=32;scalar=64";
    class       surfaceScalarField;
    location    "9.5";
    object      phi;
}
// * * * * * * * * * * * * * * * * * * * * * * * * * * * * * * * * * * * * * //

dimensions      [0 3 -1 0 0 0 0];

oriented        oriented;

internalField   nonuniform List<scalar> 
7520
(
-0.886782
0.705111
0.181671
-1.29213
-0.204957
1.49709
-0.106851
-1.7957
1.90255
0.269804
-0.0380535
-0.23175
-0.046413
2.71684
-2.67043
-0.11003
0.118782
-0.00875262
-0.310362
2.07552
-1.76516
-0.0867916
-2.29894
2.38574
-1.51911
1.41226
0.576175
-0.0158031
-0.560372
0.498675
0.165874
-0.664548
-0.228362
-1.4436
1.67197
0.415479
0.210829
-0.626308
-0.121942
0.16742
-0.0454774
-2.53491
1.04306
1.49185
0.0648283
1.43429
-1.49911
0.154504
-0.0603422
-0.0941617
0.108047
-0.462472
0.354425
0.0284594
0.0201379
-0.0485973
0.0279937
0.12651
-0.449899
-0.202455
0.652354
-0.973757
1.03859
-0.079
-0.365834
0.444834
0.191055
-0.164898
-0.0261565
0.0111456
0.0212632
-0.0324088
0.288368
-0.282132
-0.00623599
0.906776
1.09509
-2.00187
-0.057759
0.379724
-0.321965
-0.00507422
0.0335337
0.309824
-0.0641827
-0.245641
-0.969274
1.61422
-0.644945
-0.0598264
-0.0238185
0.0836449
-1.86875
2.07124
-0.20249
0.854031
-0.868352
0.0143218
-0.315347
-1.17715
1.4925
-0.255122
0.879316
-0.624194
0.26631
-0.595868
0.329558
0.845581
-1.63967
0.794089
0.0982787
-0.361157
0.262878
-0.0678926
-0.140611
0.208504
-0.0305064
0.30031
0.045159
-0.580863
0.535704
0.328254
-0.0398866
1.83748
-1.49895
-0.338534
-0.515914
-0.571602
1.08752
-1.4806
1.58418
-0.103585
-0.129665
-0.0389953
0.168661
0.316814
-0.0978663
-0.218948
-1.26342
0.294146
0.313818
-0.0868737
-0.226945
1.73734
0.162746
-1.90009
-0.699814
0.195392
0.504422
-0.018577
0.0202602
-0.00168321
1.1131
0.504195
-1.6173
0.0170709
-0.127101
-0.776931
0.0778303
0.699101
0.319812
-1.24619
0.926378
-0.0526015
-0.137469
0.190071
-0.145378
0.0855515
-2.40242
1.2689
1.13352
1.59042
-0.579351
-1.01107
-0.0134225
0.011954
0.00146856
-1.23032
0.914969
0.742971
-0.327492
0.0161272
-0.0347042
0.0052288
-0.127171
1.24054
-2.68656
1.44602
0.148601
1.58874
-1.34669
0.998691
0.347999
0.362145
-0.267773
-0.094372
-0.560312
0.880124
-0.656364
-0.250857
0.907221
0.398675
-0.0996382
-0.299036
-0.245689
0.563027
-0.317338
1.20007
-1.75658
0.556505
0.15547
-0.135687
-0.0197832
1.97788
-0.549552
-1.42833
0.478898
-0.800028
0.32113
1.3353
-0.926507
-0.408789
-0.898282
0.12135
-1.67374
-0.728684
0.474308
-0.621382
0.147074
0.265722
-0.6934
0.427678
0.133933
0.720098
-0.452964
0.561011
0.333055
-0.0232317
0.0445296
-0.0409558
-0.00357385
1.28159
0.696295
-1.96116
2.50378
-0.542618
0.644144
0.94628
-1.07185
1.10851
-0.0366522
-0.0305035
-0.0676417
0.0981451
1.37144
-1.5998
0.275765
0.223601
-0.125323
-0.280747
0.353386
-0.0726383
0.00718441
0.107787
-0.114972
-0.574892
0.363006
0.211886
1.58502
-0.38495
-0.833097
0.667719
0.165379
0.935973
-0.645528
-0.290446
-0.107535
0.135105
-0.0275701
0.559694
-0.0656054
-0.494089
2.66149
-1.7927
-0.868788
0.556728
-0.392201
-0.494582
-1.35286
0.792548
-1.88574
1.57537
0.20098
-0.092023
-0.108957
0.579431
-0.0807562
-0.194597
0.193102
0.00149465
-0.0762631
0.0878648
-0.0116017
2.05078
-1.2052
-0.165263
0.044104
0.121159
-0.754558
0.304658
0.0431858
0.011407
-0.0545928
0.658016
-0.183708
-0.675526
0.425338
0.250188
0.72461
-1.70604
0.981426
0.0740975
0.116957
-0.119091
-0.580722
-0.268623
0.034075
0.234548
0.773934
-0.197759
0.611505
-0.576504
-0.0350011
0.0455351
-0.0915828
0.0460477
0.0400168
-0.0444566
0.00443984
0.718456
-1.93495
1.2165
0.431291
-0.510291
-0.360489
-0.0888438
0.449333
-0.0749618
-0.0903013
-0.314171
-0.0885191
0.40269
0.172054
0.0374645
-0.209519
-0.0733671
0.245421
-0.520867
-0.154659
-0.220495
0.0140767
0.206418
-1.89045
2.67201
-0.781564
0.286804
-0.309238
0.0224338
-1.10563
-0.247225
-0.0406993
-0.0626492
0.103349
1.4694
-0.356299
-0.617664
0.459047
0.158616
-0.224667
0.542599
-0.317932
0.345954
-0.0848838
-0.26107
0.254167
-2.04987
0.289091
-1.76969
-2.39259
1.16128
1.2313
-0.864354
-0.482337
-2.31107
2.18349
0.127573
2.21618
0.109674
-2.32586
0.228056
-0.295949
1.01874
-0.651801
-0.366942
-0.266428
-0.0656083
0.332036
0.188051
-2.49912
-1.8726
0.0038497
0.0407802
0.00374942
0.0782134
-0.154891
0.0766779
0.320391
-0.372992
0.615219
0.320754
-0.179963
0.149457
-0.00999889
0.000252125
0.00974676
0.837607
-0.430751
-0.406857
-0.517678
-2.01724
-0.112922
-0.153507
0.0439273
-0.628334
0.584407
0.132773
0.1806
-0.313373
-1.40943
0.802576
0.606852
1.18832
-1.23473
-0.226513
0.606529
-0.380016
-0.0117728
0.0229183
0.588281
-0.27737
-0.310911
0.329413
-0.61016
0.268669
-0.355543
0.878372
0.246934
-1.12531
0.335063
-0.392822
-0.325971
-1.37792
1.7039
1.28219
0.662251
0.768878
-0.503156
-1.21506
0.959935
-0.737601
0.986313
-0.248712
-0.03145
-0.0186234
0.0500734
0.224532
-0.259969
0.0354367
-0.0983777
0.756394
-0.298589
-0.1848
0.483388
0.230319
-0.097546
-0.913366
0.957293
0.543219
-0.974292
0.431073
-0.485251
-0.0896416
0.746335
-0.480024
0.168753
-0.0132827
-0.00362539
0.0274182
-0.0237928
0.07163
-0.147893
-0.638084
0.139309
0.498775
0.140354
0.258321
-1.25947
-0.497105
-0.758994
-0.650434
-0.00998884
0.106464
-0.0964751
0.474005
0.0517669
-0.525772
-1.70194
-0.188505
-1.23378
2.28349
-1.04971
0.405389
0.182892
-0.151443
0.21781
-0.0663663
-0.743264
0.624172
0.542536
-1.05845
1.72208
-0.0534891
-1.66859
-1.47603
1.94205
-0.466019
-0.0321413
0.110355
0.346225
1.53494
-1.88116
0.03982
-0.197031
0.157211
-0.172508
1.84966
-1.67715
-0.00382503
0.155539
-0.151714
-0.959442
1.31556
-0.356116
-0.0454606
-0.697803
-0.253029
-0.385055
0.292049
-0.251834
-2.10401
2.35585
0.0332714
-0.0131335
-1.96891
0.70944
-0.54792
-0.00117678
0.549097
0.0996539
-0.0541188
0.148536
1.57097
-1.71951
-0.422627
-0.662383
1.08501
-0.566214
0.453621
0.112594
3.06196
-1.9747
-1.08727
0.555872
-0.9785
0.119773
-0.117179
-0.00259321
0.0788737
0.793839
-0.872712
0.08049
-0.0816429
0.00115287
0.867613
0.780976
-1.64859
-0.313339
-0.519758
-0.1348
0.317464
-0.182665
-0.926942
0.648344
0.278597
-0.103423
0.0524023
0.0510204
0.800565
-0.32656
0.995921
-1.81803
0.822114
-2.64571
1.13641
1.5093
-1.10017
-1.54554
-0.339118
0.377482
-0.0383641
0.0185855
0.0404965
-0.059082
1.13098
-1.68437
0.553388
0.00275275
1.13192
-1.13467
-0.170499
-0.450883
1.06869
-0.19032
1.34228
1.2676
-2.60988
-0.225968
0.116239
0.109729
-0.0326248
-0.894317
1.82713
-0.389487
-1.43765
0.162693
-0.122873
0.0315107
0.261175
-0.321517
0.978099
0.849033
0.198351
0.601505
-0.799855
0.420177
-0.040453
-0.053027
-0.0352349
0.0882619
0.113539
-0.077223
-0.0363156
-1.87135
0.907567
0.963779
0.100526
-0.0819404
0.578515
-0.79901
0.323931
-0.231083
-0.0928481
0.157409
0.159405
-1.5987
1.55693
0.0417738
1.07604
-0.532825
0.0168972
-0.0479008
0.0310036
0.00353953
0.0337937
-0.0373333
0.153197
-0.252835
1.84741
-0.606869
-0.0284982
0.152913
-0.124414
0.00052269
-0.0105216
0.83369
-0.667816
0.466072
-0.112687
-0.718964
0.721717
0.049765
-0.0533904
2.07552
0.00413219
-0.0112644
0.00713219
0.172194
0.293879
-0.24124
0.158087
0.083153
-0.104347
0.664041
0.589292
-0.544133
0.783915
0.234827
0.556845
-0.408938
-0.147907
0.306391
-1.26583
-0.0407483
-0.273423
-2.27126
2.01943
0.0816679
0.0381046
-2.35806
0.257674
-0.48234
0.264465
-0.103529
-0.160937
-0.64416
-1.22719
1.31193
1.34956
1.56549
-0.762914
-1.4436
0.0721244
0.53938
0.269762
-0.218705
-0.0510569
0.183171
-0.2937
0.110529
-1.17646
0.604855
-0.271232
-0.268113
0.539345
0.339649
-0.355452
-0.0976027
-1.97817
2.07577
0.855225
0.262331
-1.53713
1.2748
0.975773
1.09546
-1.08066
1.53263
-1.18641
-0.0575232
0.434024
-0.376501
-0.833378
0.771693
0.0616853
-0.060003
0.0315048
-0.108734
0.377724
-0.268991
-0.21677
-0.206581
0.423352
-0.537461
1.81966
-0.328618
-0.394801
0.723419
-0.326018
0.196353
0.153356
-1.22521
-0.142929
0.0899017
0.0112471
-2.04628
1.03141
1.01487
0.496889
-0.28606
0.00933024
-0.0367639
0.323568
1.32935
1.73261
1.64942
-0.467646
-1.18178
0.147864
-0.0516158
-0.0962479
0.499215
0.836081
0.171739
0.098023
0.389323
-2.08684
1.69751
-0.0580171
0.032724
0.0252931
0.988921
0.596101
-0.25386
-0.107297
0.690505
-0.492154
-0.54001
1.44679
0.189063
0.0119171
1.54552
-0.820911
0.173072
-0.165888
1.82712
-0.177699
0.121994
0.47804
0.0788046
0.0250312
0.337114
-1.72299
-0.887109
0.856876
0.030233
0.00747021
-0.143157
1.8645
0.0133084
-1.87781
-0.79283
0.464212
0.27435
0.0716043
-0.349937
0.0821638
0.0129233
-0.939431
1.54068
-1.6074
0.0667267
0.000869856
-0.222665
0.221796
-0.594507
1.58343
-0.87524
1.5937
0.0182506
-0.0173808
0.669739
-0.244401
1.90373
-0.532291
-0.009941
0.219991
-0.21005
-0.139004
-0.0331403
0.172144
0.145086
0.00277808
-0.192192
-0.77738
0.0304222
-0.183948
0.153526
1.44314
1.22887
-1.47136
1.14539
0.152898
-0.513387
-1.39706
0.740697
-1.11412
1.35314
-0.239024
0.524268
-1.65656
1.48405
1.79892
-0.517338
1.31516
0.52232
-0.0838307
0.222678
1.318
-1.32729
0.32434
1.00295
0.323512
-0.387695
0.0526306
0.0478953
-0.251672
0.178305
-0.239407
-1.25954
0.330389
-1.14516
0.814774
-1.57491
1.13997
0.434937
0.487559
-0.738415
-0.066949
0.0535264
0.106801
-0.478967
0.344572
0.134395
-0.657888
0.431376
1.21134
0.587586
-1.47603
-0.0136052
0.0536219
1.67254
-1.4476
-0.224942
-0.36181
1.89675
-1.63362
2.35844
-0.724816
-0.625135
0.919411
-0.294276
0.0551588
-1.28547
0.0742632
-0.0337667
-0.306574
0.478445
-0.171871
0.373349
-0.438954
1.35742
0.523717
-1.00177
0.478054
-0.0428693
-1.54381
1.58668
-0.0636928
-0.130904
0.0483478
-0.429483
0.381135
-0.277903
0.762078
-0.484175
0.232157
-0.161291
-0.0708665
0.390018
-0.256186
-0.133832
-1.95152
1.74656
2.77665
-0.623657
-2.15299
0.0900639
0.023521
-0.113585
-0.0215341
0.204705
0.169327
-0.654577
-0.813521
1.68113
0.051033
-0.00784724
1.72208
-1.04107
1.11994
-0.0131728
0.0131728
-0.339658
0.473719
-2.43488
2.24067
-0.920767
-1.3199
-1.47831
0.710172
0.768136
-0.038044
0.0925087
-0.0544647
0.965316
-1.12647
0.161156
-0.518521
-0.165123
0.683645
1.38266
-1.94932
0.566655
-0.01925
-0.814128
-0.242587
0.103583
-0.151218
-0.509603
0.660821
0.620286
0.510585
-1.13087
-1.43076
-0.436042
0.73903
-0.302988
-0.796545
0.817672
-0.021127
1.45672
-1.30818
0.260814
-0.230392
0.0691504
0.139831
-0.38552
-1.96562
2.17366
-0.208038
-0.909688
1.5207
-0.611008
-0.0241557
0.171549
-0.147393
-1.83599
-0.850568
-0.0203632
0.0152889
-1.71195
0.478164
-0.424142
0.315408
-0.130269
-0.494866
-0.0738495
0.0158324
-0.773625
2.1159
0.0767672
-0.442601
-1.53981
0.162001
1.3778
-0.0129894
-0.119939
0.132929
-0.93679
0.199189
0.258611
-0.639087
0.380476
1.61588
-0.18379
-1.43209
-0.0505883
0.00861546
0.0419728
-0.29077
0.217232
1.32829
-1.54552
-0.843956
1.88701
0.121136
0.728135
0.741268
-0.0648434
1.55364
0.273484
-1.42715
1.38428
0.14475
-0.0271124
-0.117638
0.509466
0.007149
-0.516615
-1.85471
0.221082
0.00363586
-0.584499
-0.506568
-0.380541
0.315584
0.680741
-0.140104
-0.540637
0.217108
0.111146
-0.557552
1.46888
-0.911333
0.205762
-0.238902
-0.0541741
0.278706
0.27723
-0.583804
0.127003
0.387115
-0.514119
-0.114241
-0.0500202
0.164261
0.320977
0.350658
-0.671635
-0.0195118
-0.00398342
0.0234952
-0.328639
0.362835
-0.0341963
-0.0167767
-0.200432
0.217209
0.426932
-0.10342
-0.11295
-0.638168
0.751118
1.5203
-1.06654
-0.935331
-0.174251
0.258533
-0.0842823
0.0563342
-0.0694677
-0.314494
-0.251721
0.992641
-0.311899
0.0201117
-1.23392
1.21381
-0.278946
0.0103224
-0.0250918
-0.495775
0.21206
0.177958
0.213301
-0.217126
-1.1491
-0.0456776
-0.100596
0.146273
1.2128
-0.965865
1.40896
1.36769
0.115408
0.208523
-0.156306
-1.74047
1.89678
0.789944
0.283443
-1.07339
0.217875
-0.954707
0.628012
0.326695
-0.0131838
0.000194362
-0.0213648
0.0767028
-0.055338
2.00662
-1.0492
-0.957419
0.150967
-0.344827
0.19386
0.713987
0.204447
-0.918433
0.0813594
0.11508
-0.19644
1.72396
0.0304008
-1.75436
-0.430688
-0.0317839
-0.302824
0.379591
0.0293067
0.0481399
-0.0774467
-0.653664
0.2007
0.020111
0.0192906
-0.0394016
-0.234384
-0.60101
0.835394
1.08379
0.532092
0.992355
-0.972243
0.668215
-0.946118
-1.85783
1.76023
-0.107453
0.0158706
0.291129
-0.566864
0.275735
0.673923
0.891567
1.13469
-1.3022
0.167503
1.27853
-0.550391
-0.16508
0.113465
-0.0086817
0.065129
-0.0564473
-1.96317
-0.495603
2.45878
-0.379196
0.474951
-0.0957546
0.00144352
-0.0146163
0.456944
2.2599
-0.161193
-0.0647753
1.14508
-1.7173
0.572222
-0.572055
-0.360007
0.932062
1.42173
-0.425808
0.702187
0.499808
-0.565416
-0.313581
0.0120574
0.301523
0.0367841
-0.282425
-0.458889
0.982606
0.0271854
0.0533046
-0.229625
-0.230612
0.460237
0.0158066
0.949509
0.0396163
-0.0255396
-0.412171
-0.358975
0.39305
0.698727
-0.828996
0.140983
-0.0968786
-0.0122718
-0.309245
-1.94449
0.877956
0.70718
-0.624833
-0.0823476
0.0399331
-0.0331199
-0.00681325
0.25061
0.88131
0.00357614
0.00837784
0.0457232
-1.63295
1.58723
0.121141
0.261936
-0.383077
-0.0755736
0.083594
-0.00802039
-0.763046
1.09344
-0.101381
-0.30537
0.40675
-0.303369
0.56198
-1.00585
1.38349
-0.37764
-0.330318
0.383138
-0.0528196
2.20852
0.00766671
0.657399
0.0856134
-0.743013
-0.463032
0.374513
-0.200773
0.444622
1.52653
0.977254
0.168343
-2.38747
2.21913
-0.857088
-0.190367
1.04745
-0.157996
0.205864
-0.0478676
-0.677297
-0.167979
0.845276
-0.09677
0.0144438
0.0823262
-0.0761483
-0.0667803
-0.560956
0.0229549
-0.00169172
-0.0268228
0.116724
-0.204261
0.497646
-0.293384
-0.290566
0.379992
-0.0894264
-0.102715
0.168075
-0.0653599
0.739068
-0.422272
-0.0121385
-0.0288172
0.601538
-0.926062
0.324524
1.25339
-1.00278
-0.0500613
-0.338972
0.389034
-0.130079
-0.515448
-1.32342
1.47202
-0.0802767
-0.571524
-1.2553
0.818402
0.436898
0.490807
-0.0278324
-0.462975
1.71219
-1.71219
-1.72319
0.0494542
-0.505964
-0.163836
-0.629096
0.792932
0.489554
-0.495805
0.00625093
0.0312514
0.0721651
-0.17693
0.104765
-0.0579795
0.249908
-0.191928
-0.330426
1.15546
-0.825032
0.285471
0.184543
-0.470014
0.730752
-0.675593
-1.11948
0.262394
-0.0656336
-0.269572
0.335205
-0.0461299
-1.28116
-0.355219
-1.12122
0.766006
0.987969
-0.055324
0.217597
-0.162273
-0.321616
0.439875
-0.11826
-0.368899
0.2341
-0.0935847
0.210531
0.0539339
0.0445469
0.0902003
0.0449633
-0.135164
0.0448764
0.0202526
0.595743
-0.708693
-0.0453938
0.107713
-0.0623192
0.0101803
0.0105705
-0.0207508
0.0624474
0.0568944
-0.119342
-0.0755396
0.200421
-0.124881
-0.437833
1.25261
0.38837
-1.02194
0.633574
-0.181568
-0.0870613
0.26863
0.0199045
-2.68224
2.66233
0.802045
-0.531331
-0.270715
0.409845
-0.102742
-0.190958
0.0833312
-0.0719241
-0.0643818
0.215349
0.288536
-0.883192
0.594656
-0.403046
-1.19565
-0.434155
0.626543
-0.192387
-0.0808449
0.00588311
0.478761
-0.339766
-0.138995
0.589671
0.0118665
-0.930765
0.496201
-0.41564
-0.0805607
-0.616566
0.345334
-0.0971198
0.556167
0.0143674
-0.0108278
-1.65826
-0.134437
-0.33057
0.607801
-0.0372859
-0.205301
-0.0650859
0.00863856
0.23103
-0.286354
-0.0877122
-1.19485
0.757017
1.96565
-0.115992
-2.10401
2.25405
-1.09952
-1.15453
-0.15413
0.517136
-0.159341
-0.738941
0.392921
-0.321291
-0.283336
-0.0302448
-0.328889
-0.502837
0.831726
0.0623093
0.080178
-0.142487
0.094879
-0.959233
-1.93244
-0.33924
-0.373941
0.713181
-0.28694
0.408081
-0.281693
-0.0510435
0.332737
0.577957
-0.146667
0.0972509
0.393556
2.24482
-0.862156
-0.780505
0.451616
-0.283077
-0.0691327
0.35221
-0.0528737
-0.085206
-1.04127
0.526661
0.170792
-0.697452
-0.104158
-0.0412203
0.957991
-1.24945
0.291463
-0.630701
-0.0529658
1.76516
-0.703359
-0.222702
0.658295
-2.14238
1.48408
-1.93014
0.848501
1.08164
0.182452
0.115748
-0.298199
0.147782
0.99743
0.0866157
0.80903
-0.895646
0.019388
0.133524
0.198588
-0.108525
0.383702
-0.568217
0.184516
1.31806
-1.47436
0.0395575
0.181648
-0.235448
0.0537997
-1.6948
-0.0283885
-0.643134
-0.186856
0.0126051
0.139473
0.00206921
-0.141542
-0.686372
0.345011
0.341361
-0.434124
0.376601
-0.997561
-0.418941
1.4165
-0.148636
-0.0780555
0.0400115
-0.620928
0.847193
-0.226264
-0.316902
1.45687
-0.189889
-0.833283
-0.645025
1.02473
-0.446214
1.01553
-1.34596
0.0138327
-0.0484657
0.034633
1.06681
-0.517094
-2.15333
-0.373696
-0.154518
0.528214
-0.0595448
0.237849
0.115589
-0.349451
0.233861
0.326019
0.234992
1.04104
-0.257123
-0.0792959
0.344885
-0.0762163
-0.35179
0.315026
-0.166592
0.0113119
0.15528
0.284417
-0.107988
-0.176429
-0.169882
-0.0462614
0.216143
0.142037
0.127409
-0.269447
0.111985
-0.0659368
-0.172786
-0.0498797
-0.0213277
1.12759
0.0340369
0.222647
-0.256684
0.0894005
-0.159692
0.0702912
-0.0214703
-0.0270661
0.0485364
0.466071
0.292422
-0.728464
-0.10029
0.409089
-0.0886988
-0.0897587
0.0779859
-0.154943
-0.0420877
1.78624
-1.00526
-0.027921
-0.179857
0.207778
-1.54618
0.222763
-0.0855066
-0.0219113
0.107418
-0.0518171
-0.0516056
-1.01739
-0.912756
0.423185
-0.0881217
-0.584339
-1.5025
-0.510562
0.280937
0.116958
-0.737886
0.704255
-0.790042
-1.96036
2.1287
-2.36005
0.396874
-0.114305
-0.0343797
0.148685
0.0069183
-0.293068
-0.374566
0.667634
-0.121762
-0.00265187
-0.185176
-1.5226
1.70778
-0.820621
-0.434869
1.25549
0.293403
0.467028
-0.760431
0.00989068
0.166792
0.329409
-0.295274
-0.28853
-0.203233
-0.110353
0.313586
-0.0187317
0.350768
0.299081
0.17968
0.232238
-0.669811
-0.0219319
0.0260641
-0.482469
0.528722
-0.0462531
-0.211209
0.243958
-1.32275
0.122271
-0.0158067
-1.53664
0.386906
0.015784
-0.731149
-0.0678609
-0.161491
-0.999101
-0.257143
1.25624
-0.0786551
0.471576
-0.667731
1.3779
-0.368457
-1.02024
-0.924252
-1.20409
1.36525
0.136366
-0.296241
0.0450169
-0.107954
0.0629369
-0.740064
0.621982
0.118082
0.729455
-0.774915
0.136299
0.570882
-1.12857
-0.126731
0.054767
-0.0687214
0.0139544
-0.535084
0.856061
-1.38104
-0.17219
1.55323
-0.00246176
0.0473381
-0.122467
-0.742543
0.86501
-0.275153
0.458621
0.0981068
-0.0697646
0.0188072
0.0509574
-1.25876
0.869278
-0.147751
0.0259883
-0.201382
-0.143445
-0.425035
0.0939356
0.047047
-0.0611582
0.00594797
-0.028628
-0.0488187
0.321691
1.23523
-0.489606
1.80477
1.02838
0.567415
-0.732539
0.0514107
-1.43245
-0.254766
-0.363095
0.454782
-0.0916868
-0.0065884
-0.0378682
-0.0352883
0.0194965
-0.0657928
0.151344
-0.237228
2.0877
-1.85047
0.126406
-0.824209
-0.138435
-0.292012
-0.0809805
0.802027
-0.314717
0.407605
-0.0928879
-0.159143
-1.57479
1.73393
0.308815
0.205936
0.283618
-0.310276
-0.485113
0.984361
-0.499247
0.078318
0.0103189
-0.0434388
0.233873
-0.370787
0.136914
0.0593223
0.435563
-0.494886
-0.170997
-0.567386
0.738383
-0.308592
-0.0842302
-2.00501
0.0311396
0.263516
-0.273457
0.0649706
-0.129239
-0.0185117
0.366198
-0.740138
2.43594
-1.01223
-1.42371
-0.178864
0.445889
-0.78665
0.664183
-0.124656
-0.290985
-0.209333
-0.00961561
0.92676
-0.792827
-0.113109
0.781567
-0.952563
0.168461
-0.111337
-0.0571243
-0.426633
-1.89985
1.07831
0.821549
-2.12687
2.14678
-1.03141
0.242637
0.788776
-0.00775272
0.201901
-0.194148
0.685017
0.307623
-0.142893
0.225365
-0.0134772
0.0023474
0.0439154
-0.292564
-0.0472016
1.21612
1.21982
-0.0576236
0.0223887
1.60271
-1.49303
-0.0494801
-1.38533
1.43481
1.16065
-0.0330573
-0.32435
-0.0997914
-0.11593
0.141252
-0.290294
-0.0613573
0.113988
0.768893
-1.33458
0.565691
0.140504
2.19916
-1.30597
-0.893185
0.025392
0.0458412
0.0466674
-0.120294
0.876688
0.924002
-0.874548
0.59423
-1.41485
-1.20895
-0.0381265
1.24708
-1.19199
1.13488
0.0571091
0.116889
-0.000164356
2.39616
0.0587196
-2.45488
-0.530836
1.25358
-0.722744
0.105383
0.274609
-0.740757
-0.0557875
-0.0155647
0.0972326
-1.35792
0.243794
-0.00131099
0.0266543
-0.0253433
-0.158019
0.209212
-0.051193
0.0811957
-0.431793
0.350597
0.605363
0.251513
-0.554343
-0.132029
0.0185071
0.868201
-0.887451
-0.0789682
-0.075923
-0.288234
0.0612894
0.931486
-0.48912
-0.442366
0.190626
-0.669348
0.478722
0.427264
-0.604438
0.177174
0.424499
-1.52971
0.794767
0.734946
0.0372857
0.855815
0.290483
-1.1463
-0.182278
0.254562
-0.280171
0.0256097
0.197499
-0.0402884
-0.290816
0.00912319
-0.334121
-0.811191
1.04602
-0.528095
0.810164
-0.28207
-0.510115
-0.704943
1.79543
-0.764024
-0.107843
0.201074
-1.34934
0.0711167
-1.34068
1.26957
0.0553693
0.0926693
-0.148039
0.466674
0.120606
-0.58728
0.488219
0.05438
0.0313822
-1.33002
0.819906
-0.543238
1.17125
0.135061
0.698629
0.350449
0.25783
0.0265876
0.895851
-0.431639
0.0655039
0.663951
-0.93341
0.352688
-1.30774
0.872872
1.01598
-1.17512
-1.86024
1.62301
0.0261983
-1.43049
0.226124
1.20436
0.214065
0.412478
0.0600899
-0.872288
0.708452
-0.155075
-0.129253
0.284329
-2.40058
1.30831
1.09227
0.436716
0.789872
-1.22659
0.0532107
-1.2573
0.807005
0.0261157
-0.83312
-0.528886
-0.585431
-0.81163
-0.0169551
-0.0182025
0.0706048
1.53552
-1.50512
-0.0145768
-0.920572
-0.609141
0.0542077
0.0411914
-1.25014
1.17375
-0.317937
-1.48405
0.0404482
-0.233059
-0.892247
0.379386
-0.336358
1.85783
0.217688
0.121958
-1.16322
0.163414
-0.125949
0.16343
-0.380201
0.335604
-0.605729
0.270126
-0.0481034
-0.000885573
0.0489889
-0.706334
0.791947
0.108998
0.00454068
-1.08285
1.16903
-0.08618
-0.724538
0.860583
-2.12732
1.26674
-1.29102
-0.069882
0.120902
-1.43773
0.11512
1.32261
-0.454434
0.978702
-0.687752
0.782631
0.147166
0.89004
0.518379
-0.93055
-0.855725
-0.210309
1.06603
-1.29388
-1.69399
1.50881
-0.145219
0.149367
-0.00414831
0.0936813
-0.101702
0.788957
-1.24785
0.0692349
0.55239
-0.621625
0.150787
0.451351
-0.602138
-1.01499
0.447602
0.0494008
0.0299818
-0.261732
0.415826
2.27191
0.12425
-0.775702
0.862318
-0.301734
0.100353
-1.08254
2.36355
-1.281
-0.0884025
0.0752921
0.093461
0.447608
-0.002774
1.05017
1.23332
0.569839
-0.81424
0.295878
-2.27057
-0.200827
0.155149
0.103466
-1.06933
-0.254186
-0.995268
-0.242356
0.0623928
0.8568
-0.440974
-0.150949
-0.957356
0.700233
0.212374
-1.72809
0.276082
1.452
-0.0480285
0.50665
1.09266
-1.16572
-0.310306
0.821278
-0.35532
-0.465958
0.958441
-0.407659
-0.550782
-0.206828
0.045537
0.703363
-0.689642
-0.0137209
-1.48027
0.947391
0.532876
0.473491
0.909999
0.0017354
0.137738
0.838018
-0.545596
-2.24011
1.16251
1.0776
-2.35585
1.86024
1.05516
0.590264
-1.64543
0.85849
-0.73714
1.52098
-0.52545
-0.995529
-1.10991
0.208661
-0.0951962
-0.0447955
-0.107899
0.224138
-0.0576507
0.149362
-0.0917113
0.439889
0.123138
-1.87357
-0.425375
0.615161
-0.23146
-0.0391714
-0.0424715
0.793088
-0.44902
-0.344069
0.861347
-0.516336
-0.164378
0.142844
-0.0852435
1.21994
0.104807
-0.0494376
-0.256471
-0.758517
-1.5228
0.5237
-0.0472374
-0.117661
0.162217
0.136415
0.141567
-0.09655
-0.533327
-0.376472
0.127533
-0.0941825
-0.0333502
0.209085
-0.852891
-0.218883
1.07177
-0.167019
0.0377803
-0.0212299
1.30198
1.02407
-2.32605
-0.475644
0.769048
0.248604
-0.0991477
0.61081
-0.831508
-1.00063
1.83214
-0.885567
-0.854582
0.351745
0.285087
-0.113115
-0.171973
0.920184
-0.868417
-0.203878
2.0535
-1.19292
-0.2181
0.133216
-0.412208
-0.609736
0.00937342
2.0443
-1.76023
-0.284071
-0.966965
-0.555837
-0.21606
0.191588
0.0832551
-1.00056
-0.273367
1.27393
0.258125
-0.560468
0.61979
-1.58154
-1.2935
0.608685
0.684816
-0.228712
-0.00397009
0.232682
0.983993
-0.688513
-0.29548
0.126366
-0.192159
0.0912893
0.101813
0.6764
-1.67396
0.769927
0.188514
-0.440587
-0.339918
0.103357
-0.0231794
0.174056
0.101921
-0.954812
0.029548
0.404476
0.504347
-0.364516
-0.556728
0.617985
-0.061257
0.876604
0.644375
0.446124
0.0496293
0.532752
0.17821
-0.710961
1.65656
-1.38048
-0.295651
0.301552
0.168171
0.0293289
0.127068
-0.0429964
-0.0921672
0.00483419
-0.150053
0.548507
-0.0795116
-1.77596
-0.0358194
-0.192892
-0.0821546
-0.0257992
1.11988
-1.78761
0.737647
-0.33318
-0.404468
0.00505778
0.130047
-0.00961902
0.00830804
0.372325
0.054327
0.109934
0.60312
-0.252462
-2.63455
1.26449
1.37006
-0.0850811
0.0174394
-0.0228802
0.137091
0.195964
-0.318381
-0.320707
0.82713
-1.65864
-0.0332585
-0.942619
2.2446
0.53863
-0.0885641
-0.450065
-0.487651
-0.402578
-0.0932268
0.105233
-1.12097
0.430685
-0.692962
0.262277
0.607716
-0.571994
-0.0357225
0.0788296
1.01357
1.34487
-1.36717
1.38048
-2.711
1.9381
0.772899
1.33342
-2.27604
2.64955
-1.3202
-1.07383
-1.12315
0.352562
-0.00799002
-0.0997081
-0.329775
-1.49912
0.0686325
-0.00244998
-1.29975
1.19585
-1.98085
0.785004
-0.0773346
0.305391
-0.332685
0.0530306
-0.10585
0.939851
1.25931
-2.33233
1.24978
-0.0967636
-0.788803
-1.33162
-0.638545
0.0665519
2.12687
-2.11921
-0.07469
-1.14178
-0.0435727
1.16679
-0.949557
-1.983
1.89225
0.0907539
0.347041
2.31529
0.384761
0.0956648
-0.480426
1.372
-0.77777
0.266114
0.0561387
0.632568
-0.65766
0.111289
0.146541
0.728446
0.666369
-1.39481
-0.428844
-0.249219
1.07031
-1.04615
-0.0241589
0.677874
-0.507082
-1.54428
0.635424
0.908858
-0.073609
0.540283
-1.00678
0.0143885
1.02854
-1.47475
0.310418
-0.605692
-0.0786302
0.156616
-0.71372
0.420652
-1.1035
-1.45974
2.56323
-0.235459
0.362869
-0.422637
0.623337
1.29787
-1.9429
0.141441
1.33074
-1.82035
-0.0795148
-0.0884234
0.234904
-1.23769
0.0839057
0.621205
0.52138
-0.000258287
-0.509345
-2.39504
0.434687
-0.05915
0.0340711
0.0250789
0.0854308
-0.354422
1.15401
1.10004
1.30918
-1.01772
0.079776
0.0156993
-0.0929223
0.488502
-0.358137
0.593129
-0.552312
-0.87762
2.21104
-0.0358295
0.0731152
-0.883496
-0.680717
1.56421
-1.26825
0.737414
-0.0781326
0.0522085
-0.00367214
-1.44691
-0.092898
-0.183746
0.614431
-1.46514
-1.16941
2.0443
0.558538
-1.20897
0.924464
-0.672951
-0.140953
0.535999
-0.20659
-0.283187
0.233126
-1.3927
0.3608
-0.845913
1.34329
-2.22091
-0.810603
-0.102997
0.47751
-0.236339
-1.74666
1.27842
-1.34628
1.35785
0.663591
-1.69594
1.03235
1.50637
-0.558974
1.67197
-0.733861
-1.27253
2.00639
0.544279
1.31743
-1.0593
-0.6441
-0.6494
-1.60759
-1.10341
0.449944
-0.971795
1.56172
-0.589923
-0.153163
1.36526
-1.21209
-1.01739
-0.949318
1.96671
0.89327
0.177035
0.283675
0.394645
-0.244803
0.159094
0.0857094
0.0639132
-0.302815
0.464082
-1.43105
-0.573004
-0.409832
-0.330232
-0.0532377
0.440144
0.365858
0.541363
-1.93554
0.639041
1.2965
-0.0447733
-1.62003
1.6648
0.0428542
-0.292596
0.100667
0.356082
-1.65313
1.65313
-0.460387
-0.0392052
0.499592
-0.486818
0.997402
-0.603934
-0.0346119
-0.689806
-0.103245
0.454013
-1.36717
0.165137
-1.32601
0.284941
1.23637
-1.2825
-1.24606
0.245499
-0.0515363
0.303496
-0.25196
0.160871
0.542492
-0.0588176
0.0107143
-1.01962
-1.21234
0.13293
1.07941
-1.3691
0.184217
-1.09607
-1.03125
-0.0201179
-0.0496467
0.184912
0.443783
-0.568438
-0.0558398
0.0272118
0.413558
-0.401848
-0.311873
-1.14148
1.54526
-0.403786
0.35819
0.192666
-0.221292
0.440042
-0.21875
-0.340858
0.134277
0.291961
-0.630285
0.338324
-0.973377
1.862
-0.806836
-1.52643
-2.1038
0.529007
-2.12468
0.0595038
0.912496
1.09413
0.108509
-1.00076
1.70977
0.463893
0.733378
-0.598317
0.631285
0.61596
0.24253
2.16006
-0.816772
-0.723952
-0.687085
1.41104
1.18293
-0.0750736
-1.10786
-0.0539202
-0.105771
-0.234768
0.210612
0.163738
1.3598
-1.52354
-1.38668
1.17512
0.211551
1.38668
-1.62301
0.250629
-0.327963
-1.60522
1.01979
0.0973239
-0.0934824
0.0275455
-1.66296
0.125834
1.69889
-1.0353
-0.261581
-0.121581
0.132893
-0.488168
0.681093
0.286589
-0.0927295
0.14147
-0.00455544
0.200442
-0.271309
-0.625686
-0.0677141
0.695271
-2.07639
0.532575
-0.112361
0.507997
-0.395635
-1.05665
-0.924202
0.136782
0.652401
0.423642
-0.920995
0.145292
-0.401881
-0.202556
0.154223
-2.27241
1.19858
0.0614199
-0.0843304
-0.202024
0.0509985
-0.112157
-0.0754836
-1.36134
0.61333
-1.82654
1.21321
0.0826482
0.286816
-0.369464
0.0528648
-0.27157
-1.07752
1.36246
0.337301
0.431747
1.30355
-1.16572
0.216268
0.0580821
1.68635
-1.92925
0.242897
0.386749
0.460444
-0.83731
0.00418963
0.393504
-0.548022
-0.0655879
0.0742264
-1.16981
0.120083
0.0100534
-0.130136
-1.52058
0.220935
1.29965
-0.065843
0.0633812
-0.0134456
-0.0160212
0.0294668
1.20398
-1.16279
0.0433424
-0.0442279
0.597965
0.194966
0.0734202
-0.0594658
-0.0966518
0.102535
0.228602
0.674921
-0.903522
-0.429772
-0.00202096
-0.9204
-1.02019
1.94059
0.17159
-0.0733063
0.281084
-0.870359
2.14678
-0.111311
0.118229
0.0703938
0.119276
0.123872
2.31324
-1.09713
-1.27035
0.867453
-0.506653
-1.27194
2.34954
-0.0864836
0.140811
-0.0408557
0.0422992
-0.0219133
-0.234771
-0.326301
0.215948
-0.312626
0.654633
-0.210851
1.26354
0.12963
-0.0786319
0.224511
-0.00691425
0.0449793
0.0939111
0.0200769
0.464197
-0.866045
0.237632
-0.276589
0.0389573
0.165125
-0.0724553
0.245491
0.689308
-0.934799
-0.281502
0.152249
0.423218
-0.501873
2.51168
-1.06854
1.02404
0.887792
0.0427663
0.456266
-1.24834
0.374215
-0.520882
-0.367099
1.08584
1.15898
-1.53937
1.53937
1.51203
-0.910006
1.06336
-0.0635951
1.54375
-1.48016
0.912288
1.03216
1.34599
-2.44949
0.118864
-1.07143
-1.35684
-0.169135
-1.45526
1.6244
-0.438019
-0.178546
0.0879613
1.27766
0.198683
-0.306671
-0.668165
1.62713
-0.958961
-0.190658
0.301946
0.0115267
-0.0410207
0.027837
2.57143
-1.08465
-1.48677
1.56872
-1.4536
1.10215
0.250994
0.0238848
-0.00563416
0.00843741
1.56253
0.484746
0.528242
0.940643
0.0277541
0.223397
-0.251151
-0.386559
0.243113
0.205894
-0.222696
0.0168017
0.183445
-0.250093
0.066648
0.405893
-0.387386
0.360022
-0.571231
0.636311
-0.564187
0.0473845
0.0326145
-0.00136314
0.202274
-0.198608
-0.00366641
-0.0526912
0.0498186
0.00287261
2.11921
-1.68249
0.171676
-0.194631
0.0229553
-1.53552
-0.381627
0.292929
-0.995127
1.90741
0.286095
-0.367075
2.66977
-1.32378
0.273756
-0.349972
-0.185367
0.566273
-1.28747
-0.474046
1.39581
1.34707
-1.11216
-0.102689
0.176786
-0.12556
-1.48184
-0.326755
0.320519
0.271421
-0.409856
-0.409621
0.316733
-0.111564
-1.34143
1.29195
-1.44372
1.51045
-1.13535
-0.588733
0.440826
0.741548
0.421514
-0.468716
-0.0851673
0.175232
0.367587
-0.542819
-0.406295
1.38439
-0.803169
-1.16906
-2.32189
-0.102856
0.0985196
0.00433668
-0.0393633
1.4547
-1.41533
1.20038