/*--------------------------------*- C++ -*----------------------------------*\
| =========                 |                                                 |
| \\      /  F ield         | OpenFOAM: The Open Source CFD Toolbox           |
|  \\    /   O peration     | Version:  2306                                  |
|   \\  /    A nd           | Website:  www.openfoam.com                      |
|    \\/     M anipulation  |                                                 |
\*---------------------------------------------------------------------------*/
FoamFile
{
    version     2.0;
    format      ascii;
    arch        "LSB;label=32;scalar=64";
    class       volScalarField;
    location    "4";
    object      p;
}
// * * * * * * * * * * * * * * * * * * * * * * * * * * * * * * * * * * * * * //

dimensions      [0 2 -2 0 0 0 0];

internalField   nonuniform List<scalar> 
13486
(
2.42946
1.93536
0.160161
-0.165597
0.810369
-0.20541
0.391403
1.37272
1.65456
0.832476
-7.93986
0.408397
2.55649
-0.321301
0.647931
0.930786
-6.86856
0.0230414
0.5683
2.19031
-0.14801
2.52656
1.89596
-1.22834
0.795353
-1.14484
-6.66003
-0.727573
0.00510937
-0.582962
-0.116389
0.475074
-1.46792
-0.426336
1.37629
0.0151004
0.0420342
1.98568
-0.0188618
1.65388
0.240916
2.65182
0.0373198
0.796
0.756773
0.385845
-8.2677
0.00849058
0.0419367
-0.792379
1.40558
-0.0473174
0.262962
2.01814
-0.0291811
0.873176
0.0771307
-0.0489775
-1.40477
0.0586804
-5.6737
0.0565982
-3.78304
-0.137566
-0.533041
0.0470256
-0.172529
2.42963
1.64426
0.0158999
-0.172182
-0.0182725
1.6613
-5.44625
0.0523645
0.0810246
0.050319
0.633749
-10.0616
-0.139786
0.00770606
1.95518
-4.19162
0.173345
2.43938
0.807998
-0.274694
1.32882
1.59792
0.906265
0.327178
1.19782
2.33078
2.07995
1.7156
0.00497564
-6.417
-0.169883
1.62774
-7.35753
0.0314083
-0.226017
-0.177278
-0.0462137
1.01234
-7.66192
1.62169
-0.0245877
-9.62065
1.08174
1.58383
0.404218
2.01682
0.063943
2.85199
1.65792
0.796379
-0.400539
1.67658
0.0389411
0.0147833
-5.68605
1.79278
-0.023756
1.58182
-0.0407377
1.18109
0.376116
-0.339399
-0.469548
-0.0371164
-7.85399
-4.70153
-4.92707
1.47839
1.29215
2.84118
1.12487
0.0348731
1.41613
-1.2185
0.254821
0.462333
-0.13827
0.0694922
-3.53057
-0.0677004
1.6913
-0.855756
0.00330653
0.927276
0.605763
0.00638211
1.99532
0.441563
0.151766
0.896886
0.0929257
1.80145
0.102473
-0.605023
1.8023
0.208416
2.64404
-0.0506899
-0.590001
-0.0657765
3.28169
-0.0384639
-4.92827
-4.56076
0.456111
1.11143
0.889168
0.0074024
-0.54123
-0.571887
-1.47394
1.6247
0.474158
1.5532
0.0643453
0.715757
-1.23846
0.17903
-0.733987
0.00182736
-0.549303
0.309543
1.74221
0.0382046
0.11263
-0.0695536
2.06353
-0.095373
-7.98366
-0.478807
-0.629613
2.18577
-0.496823
-0.127463
0.353369
1.98992
0.659866
0.0985653
-0.101852
0.0231064
1.78013
-0.0592204
0.186265
-0.630555
-0.801728
2.16115
1.61851
-0.206649
-0.28742
-0.616651
0.937899
2.20869
-2.18334
-7.00921
-0.887847
1.45233
-0.638237
0.0780211
2.36691
-0.508205
-0.26204
-0.227516
-0.169906
1.53472
-0.163123
-1.2719
2.70465
-0.186502
2.27536
-0.466572
0.121131
2.29838
0.746337
-1.43261
1.08967
0.0673352
2.1678
0.00495667
1.85251
0.779929
-0.829316
-5.40987
0.904235
-0.274033
2.88427
1.60242
-0.0318688
-0.167031
-0.716205
0.457109
-0.278968
0.116189
-1.34198
1.76998
0.0105719
0.635897
-0.64607
0.903039
-1.32364
-0.231091
-0.137106
1.55493
-0.115832
1.59148
1.58207
-0.641642
0.285038
2.37069
-0.788914
-0.167357
-0.174781
-0.0422283
-0.110686
-0.193747
1.36592
1.63726
-2.15292
-4.79114
-8.44884
-1.23829
-0.362257
0.0750108
1.56483
-0.178115
0.0585485
1.71551
1.49408
-0.443332
-0.507382
-0.603233
0.268245
1.67408
0.329352
0.191079
0.0164009
-0.0542624
0.506233
0.0349337
0.688539
-0.182357
0.811577
-0.127033
0.0426294
-4.73911
-0.163329
-0.289039
0.401717
-5.21092
1.32087
0.0622244
1.59906
1.78741
-0.268972
0.0453939
0.0442552
1.61017
2.09267
2.80593
0.354563
1.05125
1.33776
0.181989
0.975222
1.34021
1.14613
0.287816
2.22864
0.378129
1.62077
2.95265
0.643749
0.989451
0.0168539
-0.248568
2.07082
0.940852
0.735111
-1.26572
0.00472131
1.10711
2.84963
-2.19298
0.0569795
1.06891
0.200041
0.269745
-5.74714
1.6599
0.0195901
-5.45714
1.15574
-0.0860835
-0.782314
0.58613
0.286708
1.80207
1.58629
-0.609669
0.00420977
-0.481347
-6.24233
2.2122
1.16785
0.0269304
1.12629
0.0349038
-0.352648
-0.17497
1.44002
1.64762
0.0409113
-4.78876
-3.41587
1.53255
1.1133
2.56176
1.69067
-6.78096
-0.179274
0.109216
0.959781
-5.88977
-0.0592911
2.12556
-0.705469
0.680828
2.31832
2.38029
0.0364756
-0.171024
-0.315481
-6.04689
-1.27157
-5.94123
0.354563
1.45591
-0.229311
0.428665
-1.83575
2.04858
-1.40286
1.18449
1.82377
0.944268
-1.28059
-0.790434
1.67593
1.62954
1.98653
-0.964742
0.927765
-4.51497
0.77199
1.6253
0.25373
2.85978
1.03255
-0.572441
-0.52139
0.341987
1.63207
-6.97941
0.0415345
2.50743
1.4604
0.662752
0.0373267
0.751608
-0.947139
2.54877
0.0526454
0.932557
2.38938
-6.6354
-0.657691
-4.94414
-0.796203
0.0134823
1.93482
1.87218
2.52221
-3.46576
0.0371308
-1.43415
1.00781
1.62824
-0.771906
-1.43595
1.60476
-0.224695
-0.567468
-2.16156
-3.25374
-0.158598
2.04557
0.00708362
0.0748047
-0.158515
1.53834
0.00875453
3.11862
2.35634
1.66369
1.32019
0.0189051
0.00337867
2.93546
-0.185451
0.0345455
-0.558703
1.63551
-8.64449
0.245756
1.13414
0.0249412
-0.741744
1.8744
-1.89022
-6.20791
1.05072
-0.071212
3.26985
1.06934
1.4221
1.76455
-0.57214
0.204539
2.63067
0.814928
2.10622
0.383493
0.448037
-0.152842
-0.129818
0.0409817
-8.52456
1.66334
1.62183
-0.290223
0.00254373
-0.25348
2.40491
1.9406
-0.177624
1.65248
1.20689
-0.714013
0.907581
1.44647
-4.51544
2.51971
0.0444181
0.0185806
2.63481
1.12563
0.00218074
1.08893
-0.181727
-0.187098
0.664913
1.03444
1.81878
2.33647
-2.9066
0.74444
-3.11751
0.00350837
2.27085
0.447087
-1.0315
-0.185251
0.234158
0.112439
1.32608
-0.495529
-1.36026
1.65726
2.20504
-0.153157
1.7646
-3.76268
-0.471321
-1.87855
0.669707
-1.97053
1.79528
0.194653
-4.94602
1.39776
1.92117
-1.32559
-2.58373
1.42781
2.27714
0.492281
2.44972
0.199192
1.08085
0.366168
1.80747
0.0573589
2.21581
-6.04898
0.332565
1.57636
-0.308753
-0.74394
1.60468
-6.28095
0.281727
1.83807
2.5195
-0.256421
0.110575
0.43096
0.166961
1.46111
1.13996
0.554797
-5.96505
0.0373965
2.41218
0.260235
0.10386
-1.08257
2.53576
-0.350334
0.0676876
1.56967
1.3009
-0.127923
-0.509328
1.39507
0.171292
-0.604513
0.633661
-1.60228
2.4623
1.62098
1.15217
1.18483
-0.357083
-1.26014
2.76283
0.486143
2.76981
-0.238256
1.56926
0.0102414
-5.50195
0.993911
0.899363
2.89576
-0.67131
1.0689
1.0144
-2.34359
0.859721
0.0339452
-0.717695
1.59766
-2.44134
-0.714414
-0.960814
-0.327216
-0.335942
1.75223
0.00558635
2.68554
1.63406
0.0903265
-0.408584
-0.618061
0.523572
-5.28951
-0.426448
-8.10339
2.25751
0.00141401
0.0776346
-1.82082
2.56961
0.00323754
0.186243
2.62968
1.42501
-0.663597
-0.146046
1.15953
0.144023
1.56344
0.0652642
-0.313658
0.613469
1.488
0.475722
1.33743
2.66766
0.0676478
-0.361889
1.60159
0.285784
-0.248588
1.12297
1.19759
0.695922
-0.831468
0.19391
0.0350375
0.17868
2.2674
0.494212
0.164355
0.178038
0.153086
-0.11922
1.62944
0.0940975
1.52921
1.54887
2.23655
0.0256757
-1.35576
2.74863
0.0287082
-0.207402
1.71002
-0.988908
1.82816
0.0621064
1.56965
-0.226021
-5.27826
-0.976179
0.00588588
-6.44044
0.853149
2.8266
-0.323832
-2.86944
-0.581563
1.66956
-0.135754
0.711359
-2.60136
2.79424
-0.746764
0.862845
-0.825388
0.929266
1.61491
0.570052
-3.19046
-0.117581
2.60505
1.64626
0.71065
1.46452
0.122553
1.28548
1.30443
0.944252
-4.7675
-0.16339
2.02935
0.398922
-0.0513573
1.36029
-0.188212
-0.312018
-0.0105204
1.75783
1.72003
-0.281439
0.190814
-0.559683
-0.130715
0.181731
-0.32492
0.293876
1.56448
-0.121829
-1.61204
1.90304
-0.0113315
-0.374541
-0.154008
-0.718881
-0.265259
-0.883147
0.0238488
-0.940771
1.55258
2.55357
0.036322
-0.378503
2.63647
2.4762
-0.238632
-0.50857
1.68477
-6.00413
0.0695583
-0.128434
0.0485832
0.914159
-6.24781
0.753646
1.08852
-0.638655
-0.226625
-1.36364
-0.188274
1.40942
0.672292
1.06107
-0.299442
1.37422
2.4254
-12.6248
-0.830923
1.82705
0.58895
1.07701
-0.0111651
-0.564302
-0.302636
-0.143926
1.65704
2.77656
1.78745
-0.406088
-0.169247
1.61445
2.3611
-0.49267
1.74262
1.60532
2.45943
0.4253
0.0260974
0.23782
-0.259606
2.45152
0.189336
-0.227512
1.12545
-0.165855
0.398739
-0.114371
-1.42391
1.53603
1.15092
1.11979
0.760217
-8.32114
-0.352933
-0.300263
0.921006
-1.69544
-0.933899
0.0654889
-1.37411
-4.82667
0.847834
-0.573974
-5.35808
-5.47867
-0.352104
1.21163
-8.71248
-0.529682
1.82376
-0.190543
2.52917
-0.270692
-5.46575
1.92686
2.28566
0.0560721
0.0843768
0.393613
1.66354
0.932014
-2.63583
-0.113649
0.0353989
-0.218851
1.57646
0.0744563
0.948231
0.0420904
1.63889
-7.36207
0.0666882
0.0178483
1.9797
-1.00358
-7.15134
-1.02904
2.50741
-0.110509
-0.387989
-9.27272
1.61166
-0.356994
0.0489921
0.381251
0.783321
-0.426263
1.12606
-0.530753
1.30977
1.59447
1.88587
0.727691
0.015653
-0.360919
1.22047
-0.627182
1.95573
1.08977
-0.148517
-0.0326145
-0.195051
-0.0804311
0.0341108
1.83424
0.658824
0.278076
1.6084
0.00710525
1.30399
2.86494
-0.113747
-1.96743
1.10562
-1.22453
-0.00484134
-0.211692
-0.157389
1.60897
0.0672361
0.0295795
0.0544686
0.0409374
2.08315
-0.567793
0.00556615
1.61476
-1.42858
2.29795
1.85732
2.16966
0.416317
0.998596
0.501801
0.12742
1.22071
1.59839
-0.164187
-0.316095
-5.90821
-0.506523
-1.58275
1.61947
-2.73384
-1.4559
-1.32858
-0.159242
0.0237864
1.62407
0.023344
0.311513
-4.98723
1.64127
2.82633
-1.57407
-4.01202
0.899172
-0.000371819
1.5727
0.093846
-0.00117835
1.95769
-0.0586171
2.67584
1.12614
1.60371
-0.558271
2.11018
0.0730274
1.86702
0.0446756
-1.36991
-0.569646
-0.740576
1.0996
-0.519304
-0.109641
2.52365
1.63084
1.7431
2.29968
1.77823
1.97446
-0.293132
1.6982
1.64889
1.66402
-0.269767
-0.498616
-0.814615
-1.60037
0.419483
1.82576
-5.3675
2.42102
-1.60706
0.0703434
2.75384
2.32132
-0.312529
-0.856284
1.64065
0.827712
0.101076
1.53088
-5.27339
-0.649236
1.60299
2.24728
-0.00230213
1.79634
2.08885
0.00805564
-0.59412
2.09714
0.7273
0.0387987
-4.67726
0.171043
-1.36063
1.50987
1.09692
0.0522934
-0.0682007
-0.644615
0.428593
-0.0104817
0.390202
2.36779
-0.03036
3.0617
1.62821
0.547664
1.82714
-0.680753
-5.04411
-0.322037
1.60396
-0.00975799
-4.65694
-0.123081
0.796105
0.938121
0.0228708
1.16252
-4.88851
0.849678
-0.151915
0.0443166
1.31142
0.509443
2.10839
1.6497
1.69377
1.56798
-0.316893
-1.18388
-1.00688
0.185463
-0.285259
-0.314485
1.28688
-0.17794
0.00903121
0.055201
0.180796
-2.58259
1.1557
0.751185
0.117698
-0.672509
0.792618
-0.867123
-1.00092
0.201629
-0.59866
1.79316
1.20096
2.0859
-4.97226
1.46407
0.061503
2.26817
-0.261772
0.847237
-0.000271136
-0.216134
2.63115
2.70647
1.36068
0.898087
1.09696
1.49341
2.6597
1.11851
-1.30928
-2.21048
0.318429
-1.57772
-8.11307
1.62701
1.57558
-0.561333
0.449153
1.36334
1.48241
2.89241
-3.13489
1.26787
-6.03085
-0.378801
2.32217
-0.19157
1.35769
-0.198582
0.4881
0.641219
3.01378
-0.0148114
-0.813468
0.812081
0.22964
-1.71376
-5.24394
0.0338824
1.79372
0.0910216
0.904632
2.47418
2.27588
-0.110789
-2.99406
0.0294311
0.269917
1.90563
1.55075
2.25592
0.999308
-8.95176
2.36472
1.48003
-2.36487
1.25413
1.65107
2.04436
-3.68781
-0.144697
-3.38425e-05
1.37818
2.59198
0.868931
0.186547
-1.34386
2.90544
-12.0648
-1.2123
2.70404
1.42342
-1.01391
1.30201
-0.168128
0.908018
-0.424489
-11.7617
0.0218204
-0.378723
0.0827864
-0.34891
-6.15013
-6.4937
-5.62256
0.203571
-5.94657
-0.288596
1.25418
1.49172
0.864322
-5.36819
0.434635
0.235367
-0.321004
3.04647
1.0793
-0.909215
1.4223
-0.433138
-0.425641
1.33788
1.32562
1.57645
3.08135
0.00695052
-0.189027
-1.22593
0.179964
1.11273
1.58988
-0.628688
2.38934
1.10917
1.71322
-0.161102
-0.116347
0.0861292
1.68384
1.62034
1.74004
1.61364
2.8306
2.77573
-0.451314
1.42901
2.06652
-0.877548
2.24837
-0.0109458
2.74328
2.22733
0.0720941
1.83504
0.787716
1.24357
0.103872
1.63677
-1.15467
1.42222
0.611854
1.10169
-0.1954
1.56876
-0.00691939
0.40851
2.65025
2.6428
1.0896
-5.00869
0.409564
0.121658
-0.170091
1.30335
2.37469
-5.04614
1.66606
1.55728
0.802143
1.6742
-0.971145
-0.207521
0.0529948
2.87256
0.499955
0.051334
1.85952
-0.196414
0.0801744
0.81386
0.312407
1.23061
0.662977
-0.567781
0.97557
1.30788
1.0773
1.21974
2.79909
2.29683
2.02058
1.87493
2.59176
0.789439
-0.0203627
-0.00495845
-1.86526
2.62185
-0.185786
1.62076
1.46092
-0.608838
0.860296
1.79378
-0.832431
0.817597
1.01444
3.11958
-5.43271
0.722492
-1.33271
1.85495
0.153304
-0.193387
2.57795
2.20069
1.57202
1.59528
-0.482624
0.780438
-8.56921
2.76996
0.0441333
2.99183
-0.104073
0.180961
-5.70531
0.87814
-5.46121
0.27843
-0.0521894
0.577821
-0.367907
0.553395
-0.202374
0.00224818
-0.277848
-4.91461
-0.741131
-2.82291
-0.422055
-0.106169
-0.160884
-4.84926
1.65982
1.69201
2.04096
1.59976
0.663402
0.637578
3.27543
1.58113
-7.77041
0.00678677
-0.162992
1.23865
1.43364
2.39415
-1.2492
-1.22694
1.32414
0.00211017
0.425181
2.02168
-5.10269
-0.992443
-7.9924
2.80159
-0.163942
1.13768
2.07037
-0.159831
1.29041
0.0100603
-5.47193
-4.11992
0.0917276
1.08253
1.92885
2.03222
-2.81397
-4.98536
1.07476
-11.3475
-0.581854
-0.320714
0.318378
-0.40015
-0.0654971
-0.194336
-5.07975
-1.22928
2.48511
-0.153611
2.71296
-2.03892
-0.222327
0.627355
-0.194937
2.29703
1.5903
1.8988
-0.904266
-0.431731
-6.1322
2.21138
-4.89276
1.18319
0.0326355
1.94366
2.29267
0.0214506
1.59454
2.60579
1.78384
1.74421
-3.35194
-0.0647655
0.684771
-0.934349
-0.0463655
0.990708
1.15988
0.159236
-7.99597
0.389843
0.0909291
1.41561
1.20653
-0.660946
2.73431
0.182026
0.00294127
0.2092
1.58728
-0.498191
0.00825387
1.7635
-0.875692
0.131589
-0.317411
1.71371
1.5931
1.51625
-0.046296
1.51521
1.86197
1.82898
-0.435817
0.0723558
0.358624
1.4047
-1.29774
-4.21269
-0.369388
-2.08047
-0.168476
0.0425216
-0.0412906
0.0670843
-5.36789
-0.897082
-2.91204
0.0914642
-0.425169
0.59993
-2.198
1.71666
3.30073
0.542902
-0.280222
0.71869
0.181104
0.405887
0.0255839
-0.547382
-1.18466
0.2061
2.13703
0.0036068
2.56024
0.0303043
1.51339
1.33283
0.721895
-5.54857
0.948169
2.81783
-0.164984
1.61522
1.55163
2.38407
0.201912
2.19155
1.73973
-5.74735
1.8516
-5.85038
-11.1899
2.23908
1.42595
-2.55591
-0.0251226
2.0961
0.199633
-0.682356
0.0634242
0.0594273
1.24121
0.872824
1.61537
1.51994
1.38569
-3.27357
-0.748619
-0.406531
1.57804
2.98875
-0.60571
-12.2592
-5.3885
1.62247
0.193
0.196693
0.720273
0.0673573
1.26402
-0.170077
0.39215
2.48076
0.729408
-0.0270111
-0.122817
-0.171815
-0.912885
-6.17444
-1.22949
-1.0449
1.91795
0.869997
-0.806477
2.59368
0.00863183
-4.87272
-0.30686
-11.4597
1.75466
-4.74953
0.536148
1.61921
-0.0524307
-0.450124
-0.182545
-8.07772
-0.221085
1.75681
-3.01956
0.00370768
-8.05276
1.55361
1.73598
-0.164793
2.05071
1.8982
2.46302
2.52704
1.80522
0.27133
2.87368
-8.4488
1.57871
0.337829
-2.00268
1.96076
-0.312274
2.46823
0.762453
-1.73664
-4.04921
-6.41844
1.72415
-0.387389
-0.421439
0.0236438
-1.38369
-0.0162781
1.00295
0.283749
1.1868
2.79887
-5.14526
-1.14077
-0.968394
1.68402
1.21275
-0.768088
3.2607
-0.0126497
0.0870883
1.03466
-1.66292
1.54722
1.67007
1.86373
1.87936
-0.00704513
0.886595
1.55404
0.364353
-0.212857
0.0205323
1.75519
1.81361
2.23216
-0.146858
0.153047
0.84579
0.987007
0.257402
-1.68543
1.33508
-0.246061
1.40945
1.66239
-6.70504
2.55045
-0.76281
2.76391
1.84627
-2.11167
0.00783098
0.0493351
0.597918
1.69755
-1.27954
2.1984
1.52707
0.845182
0.052944
0.348782
-0.41021
0.844796
-7.17254
1.00932
-0.212399
1.57627
-3.90205
0.0101203
-0.387735
1.99436
2.31493
0.763665
-3.90894
0.788398
-0.12378
0.172505
0.910304
-0.161994
-0.118059
2.71421
-0.856055
-0.143155
-1.09361
-11.0018
-0.0660247
1.65412
-6.89086
-0.33901
1.68981
1.04706
1.73641
-0.239903
0.744973
2.74081
-3.15081
1.55547
0.511294
-0.144453
0.566924
0.384836
-1.21537
2.79863
1.85464
-1.63807
2.70763
2.10587
1.97614
-10.7727
-3.85646
1.04594
-1.93395
-0.0495293
-3.16882
-1.70961
-2.97311
1.28415
0.625434
0.986997
1.09198
-0.161616
1.22617
1.58343
-10.9134
1.69313
1.00779
1.60516
-0.125713
0.0251832
-0.170571
-6.28683
-0.19792
-0.398599
1.56627
-2.12378
2.47359
-0.592874
1.55423
1.00798
0.0577728
0.30599
1.66206
0.732397
0.387737
1.46028
0.100467
0.0109787
2.34213
1.90333
-0.797457
-2.67717
0.0517485
1.42479
0.0201663
0.748138
-2.64924
0.0356859
-0.148965
0.0559243
1.41286
1.36298
0.163244
0.723753
-0.0298433
0.00742802
-1.58095
1.99264
-0.1725
1.56782
0.00522006
1.38728
1.71998
0.922809
1.5069
0.103998
-0.212323
0.0615254
-4.67045
-0.320186
-0.747294
-0.229412
-0.0815618
1.28677
-0.0587288
1.57632
-0.0172683
0.0489057
-2.5449
-0.00544339
1.6838
-4.40355
1.57767
0.414758
-1.14505
-0.0738923
-0.174021
1.16099
1.69557
0.00947321
0.302722
-5.1832
1.90093
0.157761
0.500049
-1.14172
2.03122
0.805623
0.0289645
1.72426
1.68
1.96289
0.226335
1.97968
-3.32293
0.0917856
-0.198262
1.56551
1.04186
0.438433
0.201372
-1.56655
-1.08402
0.899575
0.142677
-1.22857
2.51362
-3.64804
1.93131
1.17207
-0.421578
-0.0303224
0.106097
-0.100437
0.193989
0.232645
1.51201
0.0643168
1.61732
-2.65071
0.682121
-0.107782
0.422083
-1.64884
2.01706
2.75052
1.76138
0.925262
0.362098
1.05458
-7.21725
0.068255
-0.00302473
-0.162388
-0.847947
-2.44063
-1.60641
-0.772957
1.44263
1.59556
-3.85734
0.428146
1.82147
-0.761564
-2.2417
1.73003
-0.0255927
-6.06221
0.0502467
-0.288605
0.00655492
2.56811
0.0103369
1.55741
-1.60597
-0.984888
-0.742267
1.58162
0.442914
1.34153
-1.35891
-0.985379
0.115012
0.349428
1.86029
1.4255
0.297101
-0.1533
-0.441707
2.85912
-0.137102
1.83833
2.01453
-0.144153
-0.0518904
0.753437
-5.05885
-0.984679
1.40368
0.92855
1.56232
-0.382334
1.75695
0.204772
2.30206
0.3596
1.4207
2.03818
1.33475
0.293472
-0.759614
0.528811
-10.3605
1.39851
0.734054
1.95499
0.154168
2.45535
0.281965
2.61098
-0.305473
2.038
-0.219101
1.2208
-5.06907
1.54628
0.789298
0.663328
2.41176
1.59603
0.394308
-0.74745
0.935974
1.5269
-0.00514682
-6.038
1.18681
0.0908356
2.09983
-0.164592
2.50033
0.40962
3.31039
2.51705
1.19508
1.06072
-5.25971
0.112565
2.68168
-0.00442228
-0.0555818
-0.133652
2.6423
0.791789
1.39021
2.23825
-1.02138
1.74987
-0.32826
1.92624
0.0802673
1.82139
1.64392
2.23481
-0.0287501
-9.82554
0.47909
-0.175305
0.763869
0.289389
0.0409813
2.05562
2.35404
0.0279638
0.56395
-0.303715
2.11128
1.33535
1.48902
1.00365
-0.189795
-4.38476
-0.160632
1.64964
-2.62745
-0.0485034
0.0428099
1.15255
0.782103
-0.771102
2.82837
-0.0792958
2.47354
0.501957
2.51025
-0.53193
0.381541
0.0615377
0.0783261
1.37081
1.58421
-0.153519
-0.0526774
-0.255007
-0.0483293
2.33694
-0.52925
0.0354861
-0.129644
-0.0697376
0.575209
1.97758
0.787789
0.0896721
0.0494707
1.59669
2.99757
-0.179195
0.109986
1.57715
0.0686697
0.829017
0.0295973
1.16268
-0.0586691
-4.23232
-0.487913
-0.237333
-0.202433
-0.220552
-2.83395
-0.689249
-0.0272211
1.26175
1.72297
1.40464
2.91214
-6.38591
2.62752
-4.75304
2.48073
-1.28164
-1.13048
2.81472
0.663047
-0.35953
1.64041
-0.0276093
1.7689
-0.239229
-7.63709
0.278414
-0.723655
-0.833083
0.00771821
-0.179131
0.64685
2.01017
-1.50414
0.724406
-2.59395
0.412811
-0.111112
-0.00290257
0.191216
-0.0847751
-2.066
2.09677
0.0246739
2.31336
0.626163
-4.75171
0.539
-1.41934
0.0620134
1.38662
2.02302
2.91991
1.21656
1.35637
0.78152
-5.14044
2.81711
3.01279
1.7555
-0.970056
-0.358377
-10.6577
1.50036
1.07132
0.607451
1.29243
-0.142
0.0117759
-10.344
2.40368
0.148589
0.201787
-0.207582
1.56127
0.300018
3.22109
3.01687
1.43767
0.095616
0.469904
-3.80757
0.618548
3.09625
0.229809
0.059691
1.19992
0.0133674
0.320116
-0.196653
-0.381612
0.374542
0.164624
0.755353
0.0424388
0.511276
2.25656
0.524478
1.71306
-0.235646
-0.465838
2.72109
-2.41598
0.29055
0.445017
0.695893
0.226877
-0.170975
0.35922
0.0967604
0.2451
3.24766
-5.70709
-3.51782
-1.00973
-1.11422
0.198643
0.442194
-0.162151
-2.74278
0.0294597
-3.63955
-1.31309
-0.928547
0.2237
0.123908
0.159326
3.17252
0.1564
0.483865
-0.204286
0.32907
-4.94598
-0.410573
2.20495
1.58726
0.493321
-0.0826482
1.54312
1.71879
0.0861916
-2.16112
0.0177918
2.19678
-0.796252
1.50424
0.0822208
2.47823
0.0977893
-0.271598
0.0398202
1.7531
-0.653723
1.43074
-1.04424
3.06377
-0.170326
-0.340187
-8.80315
0.720123
-0.184706
-1.14807
-0.177978
0.220039
0.745676
-0.466898
-0.122402
-0.094881
0.301994
-0.727193
-1.33027
1.3061
-11.2214
1.40862
-0.193932
1.7742
2.80381
1.51858
-5.10155
1.63517
0.207583
0.305518
-0.114022
-0.520561
-8.02302
0.0127427
-0.44306
0.726604
0.0033699
-1.18984
-0.0754096
-4.45224
0.838708
1.63352
-1.77452
-0.171356
-0.550714
0.0378771
-0.0878888
0.972246
-3.35909
-0.186539
1.62638
-0.0374797
0.937574
-1.26679
-5.99335
-2.52482
-6.15496
3.17678
0.527356
-0.925065
0.423077
2.63482
2.72737
-0.314561
-0.341985
1.59765
0.0108094
-0.0218742
2.71012
0.917602
1.43097
3.23681
-0.494975
0.504074
0.251407
2.41954
1.66547
1.67553
2.00976
1.14489
0.053657
0.104635
0.753546
0.386106
-5.95396
2.77744
-0.861136
-0.93168
0.0409895
-0.716333
0.814547
-0.21652
-0.372609
0.387732
1.69165
1.73653
1.8536
-7.20864
2.37747
2.70477
-3.44145
1.0277
-0.150688
-0.165405
0.303043
0.944012
-0.0922289
-0.775436
-1.08301
3.00001
-6.31714
1.87146
1.61987
2.13993
1.2291
1.2851
-0.0755443
0.045787
0.966681
-0.0432878
-12.5206
-2.41045
0.141498
-0.16796
1.99141
-0.43866
0.0388314
0.33284
-4.89799
-0.229943
-7.09861
1.4421
-0.332337
-0.0826196
0.764619
-1.25374
0.590803
-4.0976
-0.143882
1.73687
-5.00856
2.76336
0.0381597
2.93708
0.00570955
-0.0177042
0.24297
1.41316
1.39024
-3.35302
-0.14943
-0.34021
0.233339
1.15285
3.24298
2.14697
0.573791
-0.757255
0.875476
-0.0306548
1.85605
-0.115868
0.95293
-0.169315
-0.190637
-4.76265
0.616721
0.05116
-4.87196
1.06399
1.04053
2.67476
2.86716
-6.26178
-7.87369
-0.102497
-1.5085
2.78868
0.173646
-0.704716
0.711567
1.17047
-0.208586
0.165127
0.0725177
-0.0251977
1.48723
-0.171117
0.508469
-1.86377
-1.10597
-2.98654
-0.436216
-2.96718
-2.6925
1.79435
-0.364936
-0.247197
-0.35322
0.0555145
3.04332
1.2089
1.51253
-0.372216
0.847042
-0.0478467
0.690731
0.496407
-0.165593
-3.86851
2.77954
1.71285
-0.0145274
-5.74179
3.15343
-0.220382
-4.13819
-0.159373
0.848506
-0.195336
-0.191093
2.40912
-0.107273
1.49901
0.654988
-0.164952
0.185861
-0.113637
0.810799
-3.156
0.0270355
0.500624
1.59368
-0.17988
-4.65841
0.156395
-0.49756
-1.75489
-1.58602
2.96252
1.06493
-1.47653
0.805564
0.420131
2.61029
0.934903
-4.37328
0.995619
2.04605
1.76359
-0.733842
1.42675
-0.0660729
2.75639
0.0479774
1.64939
-2.97425
-0.679787
0.0408493
-0.187817
0.983247
0.558334
-5.01873
-0.213007
1.9123
-0.0163612
-0.104196
2.26012
1.27951
2.20024
1.50561
-1.03604
0.0257494
0.0644145
1.60825
0.00354614
2.00866
1.27128
2.73474
-0.170621
2.14196
0.833976
2.76074
-0.165478
-1.00651
2.82645
-0.174348
1.24276
-7.12756
2.43382
2.72317
1.74575
-2.63811
1.60015
2.09425
-0.696757
0.698944
-0.279718
2.2365
-0.184282
-0.0912201
-8.45528
-8.97667
2.05676
0.815055
-12.142
0.86357
2.72059
-0.86598
-0.259308
-9.60565
-1.21246
1.371
-0.213868
1.5378
1.52293
-12.316
3.04715
-0.0541879
2.30753
2.29162
0.1186
0.018461
1.44264
-2.29191
-0.275524
1.43091
1.23182
-0.573936
1.52948
-0.158726
2.38261
1.74594
0.654011
0.0674679
1.80089
-0.127657
0.98581
2.14528
0.372411
0.0364655
2.07859
1.73465
-0.8525
-5.05386
1.24902
1.81504
2.75365
-5.60707
2.90713
2.85122
2.95351
-0.144206
2.01781
-2.33481
1.61237
2.17496
2.11597
1.79725
2.37632
3.21775
1.40173
-5.31369
0.212346
-3.79483
3.18608
0.891341
-0.0626697
-0.170226
1.5161
2.39292
1.54131
0.58015
-0.131759
2.38036
-3.22892
1.73537
-0.177575
0.748686
0.00581007
0.543569
1.07112
-0.919533
-0.72283
-0.0926964
-0.479896
-0.15271
1.97792
-0.345135
0.191229
1.51374
-4.25404
1.02579
0.0422821
-3.63597
-3.21386
-4.80045
2.27377
2.44599
-0.204766
0.608389
2.08624
1.87925
0.0318454
-0.964736
1.7746
-5.83831
2.23463
-3.14233
2.17589
1.01702
0.244601
2.02331
1.09417
2.1263
0.613427
0.763175
-0.657941
-5.11691
-8.28713
-0.0764846
2.08655
-1.45196
-0.250244
-1.47234
2.30664
2.10507
0.579159
1.21624
2.34255
-2.59777
1.54695
-0.248391
-0.749178
1.54067
-0.284819
-7.13942
-1.46924
-6.59659
-0.372935
-1.76874
-0.195565
-11.986
-5.40237
1.33692
2.78575
3.0394
2.64645
-1.40314
1.75428
-3.51108
1.50228
2.33102
0.242489
2.0486
-1.46877
0.597927
-0.701675
-0.0930116
2.22916
-1.20411
1.83772
-8.24935
-0.409904
-7.35356
1.86545
1.82285
1.60806
-6.40305
1.53156
-0.141106
-11.2012
-10.1482
0.557616
2.79918
-3.22093
-0.366965
-0.196404
1.57264
1.54537
-0.0484061
1.01738
-8.06385
2.37674
2.14299
-0.221602
-0.331288
2.31872
-0.308451
-5.36722
0.0228474
2.11867
2.38412
-1.94972
1.168
-0.223396
2.73668
-12.7399
-0.660727
-0.101794
2.57027
0.0115287
-0.62455
-0.0610514
2.21318
1.28181
2.19507
-0.154407
-2.89122
1.80106
3.15158
-5.33086
1.46367
-0.0315043
-11.8343
-0.0170198
0.614144
-0.176696
1.14153
-0.161956
1.06652
-0.146482
-0.875527
2.00964
2.40399
1.52267
-2.12039
-0.684278
1.87834
-7.94164
0.637129
-0.772189
0.821454
-11.7633
1.74263
1.88226
-0.0627338
1.76832
2.70168
-0.284229
1.33051
1.83681
-9.03812
0.995913
-0.602332
0.819208
0.621219
1.27017
0.00789822
0.57591
-0.273838
-3.37723
2.2625
0.680176
0.209237
-0.353628
-0.259307
1.67053
-10.1488
2.94142
-5.51004
-7.53491
-0.0909096
2.06194
1.83405
2.16487
-4.35843
2.59966
-2.34903
1.28913
0.00182152
-4.55736
1.49001
0.757643
-0.314507
1.12175
-4.01812
1.30804
-6.55876
-0.32871
0.00961776
-2.73787
-3.29676
1.45395
2.66853
-0.0717342
-2.70637
2.0789
-2.80807
2.42715
0.768712
0.0599651
0.895488
1.62118
0.863833
-0.0918504
0.206406
-0.0126837
0.410644
0.595859
-5.2018
-0.225522
0.0953583
0.97767
-0.24336
3.20175
1.74823
1.59836
2.44975
0.272435
1.80269
-1.43331
-5.83306
-0.431951
1.62107
3.12396
1.5092
-1.13057
2.26554
1.53009
1.55458
-0.0232691
-0.0555047
0.878098
2.9561
0.145339
-0.881156
2.16099
2.3112
1.71137
1.6019
1.96877
1.14837
-0.155265
-0.658095
1.77815
-5.57759
-4.95092
1.5656
-0.515824
0.0436339
0.565846
1.7593
1.82392
1.85082
-0.152263
2.1596
2.21105
0.349806
1.943
1.69908
1.33289
1.22588
1.11261
0.846617
-0.0546022
2.06156
1.92991
-0.0179163
1.48424
-0.171218
0.0482042
2.6458
2.0036
0.0125051
-1.24754
0.156901
2.06413
1.17301
0.331137
0.00811229
0.226898
-0.333556
0.312373
-0.227415
-0.240871
1.20368
-0.243457
-2.31623
-7.04423
2.49776
-0.167478
-4.28745
-0.340995
2.67942
-0.202872
0.387222
0.334332
-10.4969
1.27109
1.51131
1.03634
2.358
1.30169
0.0391824
-4.13428
-0.896031
0.0298748
1.87032
0.0465884
-2.58426
-12.552
-0.387839
-4.18475
-0.278122
-3.55248
-0.244775
0.611504
1.58378
2.10583
-0.331308
-0.18233
2.36814
1.79743
-1.69984
-0.256633
-3.78642
1.00887
0.00104846
0.902392
1.37399
-0.00715851
-0.228623
-0.276943
0.439033
-1.97168
-4.71657
0.175138
-1.02375
-6.1909
-11.5836
-0.591429
0.178777
-4.14975
0.842155
-2.82468
1.58813
1.42795
0.467291
2.08648
-1.50044
2.68161
-0.726336
0.0979354
-1.39969
1.60381
0.993583
-4.97029
-4.70154
1.64033
1.95174
2.78121
-1.76885
-5.93493
-1.10802
-0.209146
0.00988246
-6.54212
0.618302
-8.05349
0.96515
-3.0697
1.24752
0.215595
-0.0826998
2.43403
1.43741
-1.2149
0.020545
-1.93241
-5.49127
2.09046
3.04287
-5.06188
1.98287
1.52749
0.00400135
-0.159276
2.03087
1.94538
-3.91632
-0.187766
-0.460773
-1.47798
-1.31298
-8.58395
-1.19083
1.06807
-0.148349
1.7741
-5.58228
-12.0398
1.50455
-1.20614
-8.8796
0.0942678
1.23184
-9.51412
-0.697992
-12.4896
-5.1458
-8.36284
2.82232
-5.04953
-0.268646
-3.24291
1.76263
-8.31397
-0.121826
-3.00064
-6.68591
-0.698566
1.83174
0.017927
-6.63231
1.4082
0.0182684
-0.608097
-4.3162
-8.03591
1.16414
1.33699
1.61533
-7.39622
2.41442
-0.454424
0.00436131
0.116867
-2.66107
-0.738356
-7.43026
-1.5829
0.367156
0.699261
-0.0626754
-0.350788
-1.29797
1.52089
-4.35404
1.68856
-4.04618
1.02452
-0.3618
-0.0516302
-0.0507154
3.14541
-0.224211
-10.1703
-5.77293
-1.1276
1.61341
0.0301221
-0.0448622
0.0752899
-11.7616
-1.46341
-5.23825
-7.84606
1.76867
-11.6436
0.230749
-12.3269
-0.050987
1.41334
0.119353
0.749364
-0.558024
2.12357
-6.68927
-0.909992
2.27201
0.671559
-7.46863
-0.355834
-3.78933
-1.19285
-0.430566
2.0744
-0.330857
0.693089
-5.87102
-3.27751
-9.39604
-10.5083
-4.12777
0.97775
-0.260832
1.57553
0.616131
-3.13643
-0.49112
-0.964476
1.99167
2.39453
-10.6566
0.0963771
1.72446
1.58534
1.28326
-1.2145
-2.26091
-2.35002
1.61976
0.473832
-1.22008
-5.50383
0.94305
1.91725
-0.279841
0.0376766
0.0818972
2.24562
-1.79799
-1.96067
0.0363125
1.38953
0.0988928
-0.0560757
2.4298
2.00631
-0.0284678
-1.39301
2.0485
0.806244
-0.10998
1.49803
-0.495272
-1.74208
-2.85034
-1.4058
1.9641
1.72915
-0.142086
-0.780156
-0.144705
0.0195396
1.77002
-1.35381
1.23218
2.13847
2.28848
-0.301107
1.61305
1.43366
1.79659
1.90449
-0.18977
1.91526
0.00790865
1.61149
0.894601
1.74705
-0.809633
2.03009
1.93874
1.45256
1.06337
-0.792901
1.15665
0.0938935
-0.943223
2.1894
2.15164
-0.877603
1.8207
-1.39132
-5.57012
1.75221
1.74891
-2.58122
-0.103194
-5.99991
-1.22259
-1.41924
-0.242214
-2.6817
-0.436907
1.48066
2.92874
2.0403
-0.357559
-0.175361
1.72324
0.862605
-0.109486
-1.71023
-0.646152
-1.92948
-5.34851
-5.16082
1.53904
-0.309721
0.818112
0.0441302
0.0406361
-0.0721214
0.0397932
0.378885
0.855433
1.08664
-0.694724
0.794325
-2.75085
-3.31479
1.13459
0.894453
-0.0927981
0.188915
1.07663
-0.0261894
0.6321
-0.74805
1.57878
1.35034
2.57145
1.61193
-1.17229
-0.428623
-0.770541
-0.591384
0.00887831
0.041705
-0.232237
-0.943589
2.98623
0.162539
0.0346474
2.3904
-0.188024
-1.0323
-0.160933
-0.837226
-5.35984
0.512687
-1.51606
1.58143
-0.284043
-1.05424
-0.0495836
-0.353004
-1.11995
-0.0946291
-0.308801
1.26043
-0.170517
-0.234064
-1.64744
0.650189
-1.23908
1.73847
2.45122
-0.5595
1.77235
0.939136
1.17317
2.70835
-0.196753
0.986595
0.865836
0.755951
2.31657
-0.482238
-0.204155
-0.101865
1.71468
2.44831
-0.377856
-0.176652
-1.29819
-1.06606
0.838975
-0.869311
-2.48328
-0.621603
0.643305
-5.78245
0.390682
0.539946
1.41189
0.298664
-5.38479
-1.44313
0.00633097
-0.20849
2.61251
2.93128
2.17662
3.092
1.43256
0.815792
1.82717
1.58657
1.46828
-1.05232
1.66188
-0.399693
-5.32279
2.39573
-0.286827
-1.25529
2.80713
0.0457263
-1.80855
0.871176
0.753146
1.97014
-6.55289
1.49296
2.58472
-0.184884
-5.52354
-2.08072
1.15472
-3.31285
2.08238
-0.146558
1.97379
1.6049
-0.221356
1.89616
-0.749513
-4.39454
-4.96257
-0.554584
1.95633
-1.152
1.65691
-0.0386254
-7.40778
0.0525651
-0.0949873
-1.63468
-0.715601
-6.78331
1.98707
0.340628