/*--------------------------------*- C++ -*----------------------------------*\
| =========                 |                                                 |
| \\      /  F ield         | OpenFOAM: The Open Source CFD Toolbox           |
|  \\    /   O peration     | Version:  2306                                  |
|   \\  /    A nd           | Website:  www.openfoam.com                      |
|    \\/     M anipulation  |                                                 |
\*---------------------------------------------------------------------------*/
FoamFile
{
    version     2.0;
    format      ascii;
    arch        "LSB;label=32;scalar=64";
    class       volVectorField;
    location    "4";
    object      U;
}
// * * * * * * * * * * * * * * * * * * * * * * * * * * * * * * * * * * * * * //

dimensions      [0 1 -1 0 0 0 0];

internalField   nonuniform List<vector> 
13486
(
(1.43067 -0.216388 5.9115e-19)
(1.67791 0.320892 2.75234e-19)
(2.29923 0.0134899 0)
(0.599416 -0.284503 -5.53498e-20)
(2.29941 -0.549003 1.97056e-19)
(2.42977 0.10857 2.01717e-20)
(2.5071 -0.460415 2.51467e-21)
(1.96242 -0.731694 -3.12991e-19)
(1.91544 -0.40287 0)
(2.04764 0.75292 0)
(-0.208602 -1.71285 -1.42229e-18)
(2.53554 -0.0156235 0)
(1.28532 -0.432787 -5.84274e-19)
(2.5086 0.700494 4.51944e-20)
(2.41312 -0.394745 1.06658e-19)
(2.00056 0.74644 -1.57526e-19)
(-1.22392 1.15612 1.11982e-18)
(1.45939 -0.461982 1.27647e-20)
(2.28281 -0.00707902 2.86123e-21)
(1.60457 -0.0312336 -5.98372e-19)
(1.2587 -0.607822 -2.22797e-20)
(1.3042 -0.447871 7.5387e-19)
(1.69937 0.316028 -2.20003e-19)
(2.35135 -0.809389 0)
(2.10487 0.581072 5.13835e-20)
(2.33273 -0.74469 -1.01553e-19)
(-2.41329 1.08204 1.27425e-18)
(2.38393 -0.109001 3.24867e-19)
(2.03532 0.0206153 0)
(2.1713 -0.300112 -1.77034e-19)
(1.32146 -0.642744 -1.5134e-20)
(2.51946 -0.285631 -1.32564e-19)
(2.72141 -0.399896 3.13556e-19)
(2.00766 -0.0520513 0)
(1.97077 -0.706592 0)
(1.88086 0.00633562 -2.25793e-21)
(1.97025 0.0783619 1.83925e-20)
(1.46433 -0.694277 2.99729e-19)
(1.80951 0.0668024 -1.63053e-21)
(1.94892 -0.251272 3.02099e-19)
(2.33007 -0.80338 0)
(0.858468 -0.428712 -6.76953e-19)
(2.02831 0.00255347 0)
(2.09326 0.457776 -2.48365e-19)
(2.11561 0.451088 1.02147e-19)
(2.53924 -0.0178519 8.74971e-20)
(0.897503 1.55209 2.54647e-18)
(2.02827 0.0168677 -1.0345e-21)
(1.96836 0.0728441 -1.3935e-20)
(2.57556 -0.0547416 1.70069e-19)
(2.00583 0.0353113 3.34969e-19)
(1.85235 0.0311074 0)
(2.66532 -0.0996876 -1.02266e-19)
(1.6293 -0.610812 -4.3793e-19)
(1.44383 -0.501959 0)
(2.27106 -0.55483 -1.31784e-19)
(2.07697 0.0881856 -1.46583e-20)
(1.83648 0.0347587 -1.4038e-20)
(2.70606 -0.388108 3.60227e-19)
(1.98604 0.119423 0)
(0.175219 -2.19971 -1.1407e-18)
(1.98438 0.119973 0)
(3.66579 -0.187815 -5.5358e-19)
(1.29278 -0.621538 -2.56828e-22)
(1.68834 -0.847645 0)
(1.97554 0.086476 9.67639e-21)
(0.683546 -0.322425 -5.31007e-20)
(1.42821 0.0651842 1.99289e-19)
(1.91503 -0.427104 -1.73863e-19)
(1.89229 0.0109115 -1.76368e-21)
(0.506258 -0.233387 6.08608e-20)
(1.49535 -0.48007 -6.30131e-22)
(1.95591 -0.115274 2.2331e-19)
(-0.956003 -0.441859 -7.66998e-19)
(1.98609 0.0954882 2.25516e-21)
(2.07522 0.0891357 3.37162e-21)
(1.99255 0.0926117 -7.46454e-21)
(2.41515 -0.413962 -4.34894e-20)
(1.06775 1.39888 -1.70891e-18)
(1.6367 -0.214662 0)
(2.02943 0.00159785 1.77474e-21)
(1.62394 0.421485 -1.74512e-20)
(3.83095 -0.340748 -4.12731e-21)
(2.35461 0.0595422 -1.3215e-20)
(1.42104 -0.230431 -1.15737e-18)
(1.39604 1.71211 0)
(1.15836 0.500085 -5.0809e-20)
(2.00394 0.0498743 -5.02435e-19)
(1.88966 0.221935 -2.21911e-19)
(1.90969 1.02565 -1.60913e-19)
(2.60409 -0.261829 -6.94431e-20)
(2.09171 -0.632742 -1.64648e-19)
(1.48782 -0.325054 1.52654e-19)
(1.64789 0.124301 1.55033e-20)
(1.81962 -0.587687 7.04326e-20)
(2.03119 0.013099 3.01113e-22)
(-2.56242 1.1444 0)
(1.06913 -0.540245 2.71505e-20)
(1.96108 -0.248705 -5.76722e-19)
(-2.02274 1.97717 2.15995e-20)
(2.03828 0.0125683 0)
(2.47153 0.699577 1.30906e-20)
(1.08319 -0.57817 2.01992e-21)
(1.85498 0.0397833 1.60099e-20)
(1.36389 1.65825 0)
(-1.98066 1.95986 2.47637e-20)
(1.96404 0.0631592 7.46896e-22)
(1.79362 0.0658963 -3.55238e-21)
(0.922611 1.62006 1.97396e-18)
(1.72193 -0.785171 0)
(1.21645 -0.587109 0)
(2.54041 -0.371785 -1.2433e-19)
(1.63633 -0.591424 3.18137e-21)
(2.08319 0.057733 1.10358e-21)
(1.06261 -0.041903 0)
(1.16538 -0.579497 -2.6364e-19)
(2.10186 0.606483 0)
(2.08081 -0.0377835 0)
(1.94238 -0.114807 0)
(1.97892 0.062255 9.18181e-21)
(1.46575 -0.473211 -3.88356e-23)
(-0.061816 -2.09692 0)
(1.79072 -0.529224 0)
(1.80265 0.0642017 6.15086e-21)
(1.86521 -0.682197 0)
(1.86616 0.0368989 0)
(2.17903 -0.286207 6.66209e-21)
(2.19317 0.0522053 8.66364e-20)
(1.91753 -0.0177844 -2.6408e-20)
(1.72289 -0.746881 -4.8614e-20)
(1.86182 0.0315686 -1.31924e-21)
(1.16623 1.38703 -6.52198e-19)
(0.725517 -0.0757006 1.03973e-18)
(-0.407356 -0.0302012 9.93823e-19)
(2.00095 0.0173936 -5.50686e-20)
(1.9139 0.415211 -2.45099e-19)
(0.650353 0.766383 -1.62431e-19)
(1.74921 -0.78451 0)
(1.97817 0.0578391 -2.56425e-21)
(1.98969 -0.59548 -1.12029e-19)
(2.7033 -0.191042 -3.39877e-19)
(2.66071 -0.137348 8.49847e-20)
(2.53778 -0.198173 0)
(1.64527 -0.200283 0)
(2.07924 -0.00368023 5.07669e-21)
(3.41204 -0.916952 -8.9893e-19)
(2.5269 0.590799 6.85731e-21)
(0.283872 1.7344 0)
(2.57631 -0.0605205 0)
(2.0372 0.0163593 0)
(2.00898 0.0227927 4.896e-21)
(2.41041 -0.474958 0)
(2.04195 -0.00756139 -1.86305e-21)
(1.60165 0.422538 -1.48148e-19)
(2.19285 0.279543 0)
(2.29152 0.0452342 0)
(1.52229 -0.697873 0)
(0.206873 -0.146836 -2.2081e-20)
(1.72935 -0.710104 6.25513e-19)
(2.05349 0.237274 3.19549e-20)
(2.48276 -0.0124757 1.03254e-19)
(1.73531 -0.689557 -9.50175e-19)
(2.44021 -0.262852 3.08536e-20)
(0.760862 -0.364775 2.974e-19)
(1.85645 0.0344947 0)
(2.6192 0.656176 -9.7555e-20)
(2.41019 0.643836 -2.94879e-20)
(0.439406 -0.125472 -7.14079e-19)
(2.49165 0.581661 -1.49912e-20)
(-0.426771 -0.109179 2.68847e-19)
(0.0127541 -0.143925 -1.9392e-20)
(2.18135 0.259944 7.46204e-20)
(1.99711 0.0914734 -4.00012e-19)
(2.32729 -0.22928 1.01106e-20)
(2.01252 0.00846473 9.02471e-22)
(0.99427 -1.12439 0)
(2.53384 1.02066 1.3484e-19)
(2.82469 -0.232612 4.83365e-19)
(1.97541 0.0615818 -5.55458e-19)
(2.5345 -0.178896 0)
(1.98581 -0.300301 6.11477e-19)
(2.07876 0.0550014 2.27987e-21)
(2.41091 -0.211338 -4.78002e-21)
(-0.55863 0.0854688 0)
(2.41116 0.164849 3.13184e-20)
(2.32508 -0.0944886 -1.48556e-19)
(2.04889 0.0174902 -5.97043e-22)
(2.18131 -0.17484 -5.63673e-20)
(2.3799 -0.793334 0)
(1.04429 -0.506445 -3.38227e-19)
(1.97899 0.0721656 0)
(2.17354 0.0265036 0)
(1.82208 0.0224202 0)
(1.32417 0.875428 -3.04094e-19)
(1.8122 0.00644428 0)
(-0.550852 -1.65677 -3.28127e-19)
(1.69807 -0.779143 1.1478e-19)
(2.40701 -0.0209182 5.68424e-20)
(1.07057 -0.530582 -1.29851e-19)
(2.5917 0.621942 -4.64308e-20)
(1.31465 -0.655582 1.72169e-20)
(2.20722 0.0671302 -2.54549e-21)
(1.336 -0.650379 -3.46381e-19)
(1.59758 -0.701424 5.65539e-20)
(2.05052 0.225879 -3.87053e-20)
(1.82226 0.00398055 -1.94923e-20)
(1.40654 -0.513872 4.18855e-21)
(1.87619 -0.0235458 4.54782e-19)
(1.81249 0.0228969 0)
(2.38855 0.149172 0)
(2.32718 -0.110703 2.09483e-19)
(2.07548 -0.754293 1.42586e-19)
(1.62197 -0.0118471 5.47636e-19)
(1.95909 0.0636718 1.02406e-21)
(2.43852 0.147763 -2.3241e-20)
(1.80815 -0.346925 1.73321e-20)
(2.21048 -0.279774 0)
(1.90285 1.01275 4.29017e-19)
(1.57402 -0.349101 0)
(3.19346 0.452083 0)
(-1.56742 1.54146 -2.09524e-18)
(2.60736 -0.0483763 0)
(1.97273 -0.589802 2.60613e-19)
(2.49891 0.00639429 0)
(2.81348 -0.0882599 -9.99688e-21)
(1.24976 -0.591338 2.10431e-19)
(2.55834 0.271526 -6.16482e-21)
(1.28186 -0.762874 1.53912e-20)
(1.82062 -0.207382 2.67051e-21)
(1.25333 0.462628 1.49411e-20)
(1.99873 -0.293966 -1.96348e-19)
(1.16716 -0.240324 4.22757e-20)
(2.71234 -0.240273 4.27368e-19)
(0.886004 -0.432587 2.31641e-19)
(1.20759 -0.649079 0)
(1.04338 -0.50942 2.49252e-20)
(2.11739 -0.120731 9.29677e-20)
(2.18484 0.0184562 -8.38666e-21)
(0.907355 -0.44009 6.73948e-19)
(2.3999 -0.12856 0)
(2.68389 -0.452544 0)
(2.00511 0.0598966 6.1007e-19)
(2.11133 0.0416087 0)
(0.913228 -0.455224 2.25344e-19)
(1.78415 0.128884 2.96222e-22)
(1.80983 0.101525 0)
(2.31312 -0.0193272 -4.2839e-20)
(2.24943 -0.544162 3.25149e-19)
(0.45041 -0.379653 1.80933e-18)
(2.05689 0.438901 0)
(0.626384 -0.684514 -1.46786e-20)
(1.02688 -0.0122036 8.49374e-20)
(0.97466 -0.479776 3.33903e-19)
(1.78212 0.0611024 0)
(1.74587 -0.170755 1.72949e-20)
(0.917527 -1.31496 2.34787e-20)
(2.52278 -0.281051 1.05161e-19)
(1.79612 -0.350742 -2.19188e-20)
(0.123427 -0.0975936 2.31411e-20)
(2.64863 -0.442739 2.27043e-19)
(1.78517 0.232675 0)
(1.79391 0.129172 -6.88819e-22)
(2.41741 -0.402299 -2.50221e-19)
(0.928325 -1.24244 -2.93853e-20)
(2.19574 -0.740022 -2.0294e-19)
(-0.630578 0.0278538 0)
(1.83865 -0.203656 -4.40492e-20)
(1.30281 -0.652724 -2.37115e-20)
(2.03157 -0.0190445 -2.60373e-19)
(1.65353 -0.521483 0)
(1.57854 0.952278 2.09225e-19)
(1.96892 0.0666786 -1.4974e-19)
(2.22459 -0.285082 0)
(2.61695 -0.00987033 6.38534e-20)
(1.17246 -0.566752 2.7892e-19)
(2.23821 -0.507782 -1.81173e-19)
(1.75837 -0.153491 0)
(1.53382 -0.567847 0)
(1.75655 0.0474968 -6.50461e-21)
(2.64566 0.556778 -2.00951e-20)
(1.55318 -0.577763 4.69992e-20)
(2.09985 -0.208863 -2.22624e-19)
(1.93511 0.0890043 3.27717e-19)
(2.66391 -1.13786 -2.83422e-19)
(-0.480164 -1.78198 1.13674e-18)
(-2.54308 1.61833 2.58483e-18)
(2.741 -0.158919 3.88779e-19)
(1.87067 -0.0255991 3.46352e-20)
(2.80396 -0.0945716 6.91617e-21)
(2.02337 -0.0127327 0)
(1.2323 -0.635644 0)
(1.92047 0.178588 -1.09431e-20)
(1.202 -0.583043 2.58096e-19)
(1.99746 0.0245906 -5.4266e-20)
(2.10047 -0.117026 8.60825e-20)
(2.15068 -0.150186 0)
(2.02555 -0.0354267 -1.31302e-19)
(2.59629 0.0284074 -4.81207e-20)
(1.92492 0.0748855 -3.01787e-19)
(2.49906 -0.577463 7.45008e-20)
(2.07545 -0.227065 -3.83065e-20)
(1.40995 -0.509665 1.51764e-21)
(2.60097 0.551643 1.73296e-20)
(2.50194 -0.289125 1.25448e-19)
(1.96568 0.0645398 -2.86898e-21)
(1.30393 -0.599735 0)
(0.398842 -0.111155 0)
(2.32035 -0.034222 8.7771e-20)
(1.26749 0.320448 2.79369e-20)
(1.97416 0.0715565 0)
(2.28095 1.47098 -1.77946e-18)
(0.479439 -0.234983 0)
(2.43285 1.0141 -3.06085e-20)
(2.54564 -0.364426 -1.23072e-19)
(2.77906 -2.51757 0)
(1.90471 0.405038 -1.50075e-19)
(1.92822 0.185678 1.61877e-20)
(1.88882 0.204366 -1.89965e-20)
(1.87383 -0.0128135 -4.99662e-19)
(1.87043 -0.216937 0)
(1.98154 0.081635 -1.76249e-20)
(1.89251 0.151646 5.36457e-22)
(1.98764 0.0603928 7.00544e-20)
(1.60778 0.171126 -2.89421e-19)
(0.75545 0.738332 3.02601e-19)
(2.58293 -0.258541 1.28231e-19)
(2.22725 -0.398923 -6.2563e-19)
(2.11219 -0.207301 0)
(2.56828 0.140154 3.18445e-21)
(2.25933 -0.40765 -1.14387e-19)
(2.00095 0.0353838 7.28745e-19)
(2.11716 -0.636064 0)
(2.58841 -0.273632 -2.75358e-20)
(1.46165 0.415433 0)
(2.50909 -0.470354 -1.9857e-19)
(1.88586 -0.551285 -1.926e-19)
(0.690436 -0.324747 2.75813e-19)
(2.39014 -0.489049 -1.70217e-19)
(2.02266 0.184136 0)
(1.79689 0.151626 4.4112e-21)
(1.84596 -0.217548 4.82723e-20)
(1.62471 0.177786 2.73284e-19)
(2.27394 -0.414999 4.46287e-19)
(2.40572 -0.217219 2.05571e-19)
(-0.533692 -0.583323 -2.3672e-19)
(2.03119 0.0183327 1.57586e-22)
(2.22908 -0.216851 0)
(1.03117 -0.365091 6.66582e-19)
(3.19891 0.434784 0)
(1.9089 0.184289 -6.04262e-22)
(2.23466 -0.112537 3.67172e-19)
(2.61483 0.0851585 -4.23537e-20)
(2.6185 -0.00584966 4.58556e-20)
(-2.34599 0.975539 -1.18019e-18)
(1.93538 0.0744946 3.77031e-19)
(2.02013 0.00748105 0)
(-1.08099 -0.595829 -6.72432e-19)
(2.1907 -0.290085 -1.30986e-19)
(1.35383 0.323259 -8.16433e-21)
(2.08199 -0.699694 1.3431e-19)
(2.48643 -0.00938739 0)
(2.65874 -0.250533 7.69473e-20)
(1.80278 0.174186 5.79009e-19)
(1.97137 0.0749215 4.55591e-19)
(2.18239 -0.31036 0)
(2.04278 -0.00166235 -8.26133e-22)
(2.13052 -0.142967 -8.73179e-20)
(1.27048 1.34971 2.8368e-19)
(1.58406 -0.0312877 7.60916e-20)
(2.19217 -0.254721 1.24514e-19)
(2.0407 0.00777708 -2.05901e-21)
(2.2171 -0.207421 0)
(2.85602 -0.0324397 -1.3726e-20)
(0.437415 -0.717679 2.01722e-20)
(2.43542 0.340515 3.98945e-20)
(1.993 0.0334894 2.83523e-19)
(1.36986 0.0290196 0)
(1.86677 0.172414 1.35811e-20)
(2.99144 -2.27459 0)
(3.55234 0.869506 -3.52082e-19)
(2.04151 -0.0313809 0)
(2.10253 -0.718598 -5.90616e-21)
(1.33701 -0.109967 -1.6272e-19)
(1.56566 0.880923 5.09458e-19)
(1.00827 1.59851 -1.23012e-18)
(1.78792 -0.154644 0)
(2.33807 0.0399011 -3.66804e-20)
(2.03045 0.196144 -1.55059e-19)
(0.42181 -0.204336 -5.96735e-19)
(1.33791 -0.633295 1.57242e-21)
(1.6501 -0.0298432 -8.26393e-19)
(2.28241 -0.26542 9.44113e-20)
(2.09362 0.177251 1.04133e-19)
(1.46388 -0.462265 0)
(1.38362 0.339813 3.10237e-19)
(1.98334 0.0460529 8.45854e-21)
(0.576481 -0.274877 3.20317e-20)
(0.479691 -0.683367 -6.39383e-20)
(0.100546 0.143075 -1.16929e-18)
(2.74377 -0.166472 0)
(0.300893 -0.0861194 0)
(2.10694 1.17283 0)
(2.06732 -0.0892741 0)
(0.639483 -0.172176 -2.79402e-20)
(2.49783 -0.446361 0)
(2.13889 0.240744 0)
(1.67503 0.140585 1.12679e-19)
(2.79178 -0.234265 -5.0014e-19)
(2.18941 -0.199921 -3.00655e-19)
(1.72023 0.354108 9.31525e-19)
(2.00607 0.0210543 -8.04592e-20)
(2.49613 1.70305 0)
(2.37013 -0.249622 0)
(1.91934 0.0724847 3.21867e-19)
(2.02612 0.0521503 5.67302e-20)
(1.33907 0.930152 0)
(-0.350441 0.045013 1.7221e-19)
(2.17886 -0.753244 2.28406e-19)
(-0.617932 -0.0423537 0)
(2.39135 -0.130729 2.01784e-19)
(1.97385 0.0631526 -3.72064e-19)
(0.902318 -0.331425 -4.20222e-20)
(1.02493 -0.347997 0)
(2.01876 0.206847 2.93491e-19)
(2.56454 0.114431 0)
(2.15613 -0.166467 0)
(2.20705 0.173761 -1.1502e-20)
(1.94995 0.0958215 1.71364e-19)
(-2.67016 1.27183 -1.67339e-18)
(2.36 0.639335 7.2662e-21)
(1.34202 -0.348801 -2.89623e-19)
(2.07173 -0.0788351 3.84885e-20)
(2.1016 0.168968 8.01561e-20)
(2.85534 -0.0347795 1.45786e-20)
(2.26728 -0.737823 0)
(2.35026 -0.507572 1.81209e-19)
(1.34504 -0.0447422 0)
(1.9 0.175454 -9.49568e-21)
(2.30956 -0.235319 0)
(1.45195 0.0806236 4.20989e-19)
(-0.544713 2.27208 -1.83053e-18)
(2.2579 -0.254739 0)
(-0.242798 0.224553 4.61155e-20)
(2.35895 -0.274125 -2.2165e-19)
(1.79554 0.511947 9.83784e-22)
(1.76723 -0.265907 7.92502e-19)
(1.45825 0.864747 -3.22885e-19)
(1.33282 -0.334311 -8.23057e-19)
(3.58433 0.820185 0)
(1.97169 0.0583568 -8.03173e-21)
(-0.596354 -0.687391 -6.37972e-19)
(2.0187 0.214759 0)
(1.87281 0.226802 2.06817e-20)
(2.59543 -0.0576929 -3.55453e-20)
(2.85795 1.01549 0)
(2.00075 0.0215389 0)
(0.377554 -0.232559 0)
(1.05048 -1.13896 9.51204e-20)
(2.59023 -1.23675 3.41025e-19)
(3.27635 -0.953988 4.81513e-20)
(2.39035 0.97267 0)
(1.70452 -0.163424 5.37472e-19)
(2.01563 0.00574447 -2.0207e-21)
(2.35482 0.57564 -4.89223e-21)
(1.06456 -0.503706 4.73156e-20)
(1.91316 0.178408 0)
(2.03285 0.0200095 0)
(0.753381 -0.111855 -4.51485e-19)
(1.43753 -0.455371 -2.02634e-19)
(1.94093 -0.182761 0)
(1.24975 -0.608457 -2.52114e-19)
(2.08277 0.000169478 2.35698e-21)
(2.03047 0.0121603 -4.83454e-22)
(0.779272 -0.364153 0)
(1.88297 0.000331272 3.00839e-20)
(1.98143 0.0565544 -7.3731e-21)
(2.55898 0.0994731 1.2037e-19)
(1.87309 -0.570592 0)
(-2.49579 1.77079 -4.01745e-18)
(2.61015 0.0494742 5.24849e-20)
(2.00316 0.0960906 6.34618e-20)
(1.99426 0.0167028 -3.60614e-21)
(2.67677 0.622645 0)
(1.69477 0.351783 -2.48174e-19)
(3.08965 0.188873 -2.4703e-19)
(-0.216354 0.41965 2.52217e-19)
(2.00755 0.0533594 0)
(1.32985 -0.636917 -1.60097e-21)
(0.487824 -0.0921272 0)
(2.0037 0.0579287 -2.43612e-19)
(1.98902 0.0744264 1.11265e-19)
(1.86636 0.0682143 -6.29825e-20)
(0.939418 -1.17315 0)
(2.21938 0.0231379 -2.40975e-20)
(1.11281 0.490326 8.4844e-19)
(2.24041 -0.732684 0)
(1.63164 0.127922 3.52523e-19)
(2.47487 -0.586638 -8.48219e-20)
(2.18662 -0.022836 0)
(1.28872 -0.664655 1.25396e-20)
(1.64761 -0.175227 -3.11997e-20)
(2.04829 -0.00377862 0)
(-2.03007 1.98655 2.45128e-18)
(1.85456 0.209739 0)
(1.6805 -0.775421 2.55037e-19)
(0.632422 -0.751116 3.84787e-20)
(2.04908 0.0222923 6.01132e-22)
(2.4416 0.126676 -5.74078e-20)
(1.37407 0.319458 1.64905e-19)
(1.76259 -0.296305 -2.92385e-19)
(1.78823 -0.138564 -1.88678e-20)
(1.72782 -0.788119 2.57951e-21)
(2.17417 -0.257923 1.2075e-19)
(2.67552 0.631418 2.00861e-19)
(1.78537 -0.798796 0)
(1.99762 0.0245271 -2.51391e-19)
(-0.381684 -0.220095 -5.09269e-19)
(1.37049 -0.056685 0)
(1.99788 0.0641064 3.47204e-21)
(1.85864 0.00181663 0)
(1.23469 -0.365228 7.10088e-19)
(2.07209 -0.780228 0)
(1.95833 0.00645494 1.79885e-21)
(2.23413 -0.104515 -2.09042e-19)
(1.2897 -0.68832 2.44912e-20)
(0.52397 -0.287488 4.03638e-20)
(2.39458 -0.00926028 -1.75572e-21)
(1.27454 -0.604991 2.29817e-19)
(1.77688 -0.523181 2.81733e-19)
(1.48225 -0.333494 0)
(-1.34538 0.508932 -3.47976e-19)
(2.28993 -0.683071 -4.7454e-20)
(-1.46204 0.443499 -4.3161e-19)
(2.02824 0.0147374 2.51452e-22)
(1.46191 -0.575053 0)
(2.21776 -0.0259245 -1.08728e-21)
(-0.422748 -0.0116454 0)
(1.0791 -0.607449 2.10313e-21)
(1.04025 -0.379301 5.59827e-20)
(0.000316324 -0.0519567 0)
(2.04916 -0.55303 8.32835e-20)
(1.66801 -0.816808 0)
(2.85312 0.921759 0)
(1.44206 -0.686492 -3.36301e-19)
(1.49011 0.385538 2.50524e-19)
(1.53305 -0.325687 0)
(1.81024 0.187645 -1.57993e-19)
(3.4908 -0.92513 1.06018e-18)
(0.284501 -0.794177 1.29771e-19)
(2.90798 1.3201 0)
(2.1689 -0.0432056 0)
(-0.802714 -0.759468 -3.59043e-19)
(1.86897 -0.105092 0)
(2.40303 0.075141 0)
(0.324861 -2.3483 -5.12802e-20)
(2.04742 -0.41136 -3.97995e-19)
(1.7423 -0.430973 2.43124e-19)
(2.61061 -0.503281 3.21042e-20)
(-1.25331 0.30808 6.47398e-19)
(1.99144 0.0635343 1.2765e-19)
(1.52186 -0.363641 0)
(2.18701 0.437578 -3.57578e-20)
(1.41782 -0.196876 0)
(2.24259 0.0209154 0)
(1.99839 0.109317 0)
(2.19398 0.163493 -9.51501e-21)
(1.85773 -0.0132423 2.32181e-19)
(2.10177 0.0304616 -6.86129e-21)
(1.56602 -0.368267 0)
(-2.3276 0.993674 -1.02954e-18)
(2.13953 1.1175 3.2965e-20)
(1.86343 -0.696152 2.6868e-20)
(1.93458 -0.0454073 -5.41239e-20)
(2.20569 -0.494143 2.89859e-19)
(2.04033 0.0586964 -2.13893e-19)
(-0.424789 2.24905 0)
(2.59778 0.0179411 0)
(1.47517 0.884804 0)
(1.21972 -0.558526 -5.09544e-19)
(1.4462 -0.724545 -4.24579e-20)
(0.250282 -0.00198015 0)
(2.21193 0.445934 0)
(2.76373 -0.170629 4.81711e-20)
(1.97612 -0.0319893 -6.07529e-20)
(1.93464 0.631784 2.40685e-19)
(1.58824 -0.690509 0)
(-2.00348 -0.0568176 -4.20244e-19)
(2.35043 0.0457507 2.47286e-21)
(1.4034 -0.420599 -4.84424e-19)
(2.2401 0.0560413 -4.70122e-20)
(2.34354 0.582661 4.18617e-20)
(2.02312 -1.05669 1.20865e-19)
(1.21943 -0.563197 8.90035e-19)
(1.78441 -0.518285 7.98098e-20)
(2.09144 0.0542674 2.55579e-21)
(1.99615 0.0176135 -6.41873e-20)
(1.13029 -0.530798 -8.00235e-20)
(1.65128 -0.153565 1.37905e-20)
(1.71828 2.14534 4.51566e-20)
(1.26976 -0.608946 1.29284e-19)
(2.51497 0.17379 0)
(1.47426 0.928944 2.79756e-20)
(2.1923 -0.0441621 -1.99461e-19)
(2.9862 0.569654 1.41793e-19)
(1.37154 -0.384645 -4.4165e-19)
(1.8485 -0.669176 -2.9163e-19)
(1.99683 -0.0169484 5.91955e-19)
(2.40171 -0.0578335 -3.37896e-19)
(2.08964 -0.790467 8.1738e-20)
(2.75637 -0.143438 -1.98991e-19)
(1.14863 -0.147701 -9.62119e-19)
(2.12439 -0.0256804 -1.4852e-19)
(1.13594 -0.217891 0)
(1.2837 -0.735426 -6.35273e-20)
(1.94074 0.000471512 5.39039e-19)
(1.75859 -0.0163357 -1.3805e-21)
(-0.874839 -0.461877 0)
(1.49563 -0.688784 0)
(2.06765 0.40452 2.08334e-19)
(1.01811 -0.145183 5.97207e-19)
(1.63879 -1.02422 -1.31921e-19)
(2.12542 -0.714397 -1.44761e-19)
(2.23997 -0.412832 3.41349e-19)
(3.24771 0.372863 0)
(2.08214 0.434948 1.09955e-19)
(1.41827 -0.484315 -3.17555e-21)
(2.58582 1.0105 1.53279e-19)
(1.97057 -0.273642 -3.47794e-19)
(-1.21043 0.303144 -9.92019e-19)
(2.19538 -0.460266 -2.82699e-19)
(2.33618 -0.537017 9.76962e-20)
(2.3759 1.20581 0)
(1.94966 -0.221572 -3.63597e-20)
(1.88186 0.0645952 5.79589e-20)
(2.02409 0.00355195 1.32264e-21)
(0.795196 -0.386946 8.16087e-19)
(1.94887 -0.271555 5.20768e-19)
(2.02889 0.215728 -1.51369e-20)
(0.317205 -0.73281 -6.55569e-20)
(2.1399 -0.0972957 -1.04507e-19)
(2.2571 -0.0233804 1.31975e-19)
(-0.7772 -1.5685 -1.53154e-19)
(2.4905 0.97616 -1.56993e-19)
(-2.17729 2.09251 -2.64934e-18)
(0.939794 -0.460441 -2.70611e-19)
(2.02498 0.00192093 0)
(2.07988 0.0847581 -1.26739e-20)
(0.26852 -1.84308 -1.43751e-19)
(1.32829 -0.138474 8.76127e-19)
(2.05832 0.018991 0)
(2.13534 -0.223217 3.35488e-20)
(1.19048 -0.506422 2.0182e-19)
(1.98962 0.0473098 -5.45144e-19)
(-0.106864 -0.330464 -1.13131e-19)
(1.51192 -0.313099 -1.08392e-20)
(2.20175 -0.210681 2.0458e-19)
(2.31877 0.0418231 4.99438e-20)
(1.69677 -0.782423 -3.53864e-19)
(2.10338 0.0439358 9.34912e-21)
(1.45341 -0.776375 -1.14104e-19)
(2.10714 -0.0484154 1.8715e-19)
(2.06187 -0.0637263 -1.66479e-19)
(2.14895 0.08066 -6.40372e-21)
(2.15135 -0.0358335 -3.65116e-19)
(1.12742 -0.510663 -3.89783e-19)
(2.09127 0.0538234 0)
(1.09136 -0.903929 5.23172e-20)
(2.10826 0.0665381 4.11916e-20)
(0.739352 -0.208894 -6.75006e-20)
(2.35802 0.0187814 -3.89349e-20)
(2.18264 -0.428816 -2.09519e-19)
(1.99946 0.016652 -4.18333e-19)
(2.10937 0.300201 6.02923e-20)
(-0.270791 -0.0155026 -1.77268e-19)
(2.39988 0.0664486 0)
(1.85687 0.161045 -6.63394e-21)
(2.62009 0.117989 4.33475e-20)
(1.47085 -0.560358 0)
(2.14228 0.066999 1.05029e-19)
(2.55403 0.170166 4.95048e-20)
(2.35435 0.0627986 6.40404e-24)
(2.3606 -0.793814 -1.59329e-20)
(1.83402 -0.0102854 0)
(1.78856 0.365209 4.45726e-19)
(2.05856 0.179957 1.79219e-20)
(1.24422 -0.603137 2.83382e-19)
(2.00037 -0.185046 0)
(1.48633 0.340189 -7.25596e-19)
(1.49016 -0.444235 -2.10763e-21)
(2.65506 1.47186 -3.71632e-19)
(1.15917 -0.172522 9.35136e-19)
(2.07026 0.00411365 1.01221e-20)
(0.496407 -0.301168 3.45941e-20)
(1.93115 -0.0906251 -3.62436e-19)
(2.41052 -0.460017 -2.67724e-19)
(1.7969 0.1652 -3.34487e-19)
(2.01108 0.00787621 0)
(2.00093 0.0346297 -2.42917e-19)
(0.106516 -0.11882 1.32036e-19)
(-1.01 -0.256934 0)
(2.18833 -0.76946 0)
(2.01832 0.00396144 0)
(-0.589542 0.727797 0)
(2.06733 0.309101 0)
(1.08844 -0.141211 0)
(1.85444 -0.350576 -2.47444e-21)
(3.11235 -0.949191 -4.438e-19)
(2.58846 0.2866 0)
(1.75955 0.370082 6.73297e-19)
(1.57031 -0.50062 -6.0902e-20)
(2.0891 0.188598 6.24744e-21)
(0.24672 -2.05551 -1.29455e-19)
(1.10345 0.100591 -2.65169e-21)
(-0.201028 -0.130923 1.13578e-19)
(1.9451 -0.00200687 -1.35661e-19)
(2.57045 -0.0747598 2.33672e-20)
(2.0439 0.293232 -1.45917e-19)
(1.87875 0.203289 -4.44582e-19)
(2.06317 1.04524 -1.30342e-19)
(3.46368 0.856555 0)
(1.27953 -0.618979 6.79316e-21)
(1.25518 -0.381086 -7.78174e-19)
(2.01405 0.0246863 -7.53112e-19)
(2.30186 -0.691108 -2.71392e-19)
(2.01654 -0.0174736 5.73054e-20)
(2.58139 -0.649922 2.31902e-20)
(2.12519 -0.326472 -4.53679e-20)
(2.06281 -0.541334 -2.88429e-19)
(2.0293 0.169222 1.61438e-19)
(2.38533 1.38916 0)
(1.79175 -0.106812 -1.68887e-20)
(1.70597 0.115729 -1.0324e-19)
(2.51702 -0.426266 0)
(1.78778 0.037505 0)
(1.74147 -0.800955 -3.43742e-21)
(0.659799 -0.390161 3.50833e-20)
(1.83486 -0.360997 -8.82197e-20)
(1.88867 0.0466434 0)
(1.89577 -0.0278544 -4.74999e-19)
(1.81736 0.218394 -8.6406e-20)
(1.15858 -0.795141 2.74057e-20)
(2.43869 0.154184 3.32681e-20)
(-0.0286706 -0.170441 0)
(1.24331 -0.60448 8.93187e-21)
(2.51946 0.163806 0)
(1.93079 -0.232125 3.80153e-20)
(2.61955 -0.261218 -6.34955e-20)
(2.0008 0.031456 -5.80182e-22)
(2.42839 0.657985 5.35011e-20)
(2.86765 1.19233 -3.92337e-20)
(1.73167 -0.499278 5.8462e-19)
(1.34417 -0.597346 0)
(1.64415 -0.714932 -1.01309e-19)
(1.53688 -0.478518 0)
(2.63924 0.253891 -5.77069e-20)
(1.13329 -0.770643 4.76083e-20)
(2.14705 -0.755998 1.80288e-19)
(1.83562 0.141257 4.6654e-21)
(0.880886 -1.50704 -1.98519e-19)
(1.06708 -0.52652 -3.27236e-19)
(1.29613 -0.389193 -4.51302e-19)
(1.98216 0.0520177 -2.90861e-21)
(1.6707 -0.697447 8.30759e-20)
(1.16992 -0.526856 3.2055e-19)
(1.35392 -0.417485 4.95579e-19)
(1.43874 -0.705197 4.84389e-20)
(1.75713 -0.760062 -5.72893e-20)
(1.83766 -0.590553 2.90832e-19)
(0.382475 1.91625 1.20515e-18)
(2.11047 0.00866431 5.63643e-21)
(1.44546 -0.486967 5.42368e-20)
(2.35756 0.370692 -1.57786e-20)
(2.24582 -0.575532 0)
(-0.371246 0.451139 -2.37278e-18)
(2.09901 -0.0433035 -2.49866e-19)
(1.99939 0.128369 0)
(2.60622 0.246442 0)
(1.56742 -0.607311 -5.79679e-20)
(2.55386 -0.639278 -2.98474e-19)
(2.41876 0.172378 7.30963e-20)
(2.04105 -0.400667 5.2172e-19)
(2.03672 1.00194 1.26357e-19)
(1.52313 -0.000759279 3.80145e-19)
(1.08769 -0.821105 -4.24524e-21)
(1.81974 0.662204 0)
(1.38731 -0.449313 4.74581e-19)
(0.967849 -0.617586 5.9476e-19)
(0.884859 -1.42871 1.44263e-19)
(1.72563 -0.673546 9.65136e-20)
(1.39918 -0.63439 -6.63478e-20)
(1.87612 0.00238342 1.93941e-19)
(1.81044 0.0864864 7.64624e-22)
(2.15457 -0.278949 1.8874e-19)
(1.04885 -0.831972 -3.40499e-20)
(2.39441 0.167204 -5.17468e-20)
(1.94539 0.0685678 1.88006e-19)
(1.13024 -0.205045 -3.84136e-19)
(1.87508 -0.0807646 2.96385e-19)
(2.12377 -0.834259 0)
(2.43779 0.334161 -5.72377e-20)
(1.98201 0.0604723 4.18604e-20)
(1.47016 -0.300265 -1.52173e-19)
(1.97031 1.9151 9.68142e-20)
(1.80702 -0.575616 2.16351e-19)
(2.03835 0.00948317 8.08276e-20)
(1.38062 0.16737 -5.69177e-19)
(2.4995 -0.429407 0)
(1.85841 0.130988 8.76775e-21)
(2.2501 0.0730765 6.39863e-20)
(1.94112 -0.0464776 0)
(1.40889 0.0560899 3.26275e-19)
(2.4417 0.152864 0)
(1.85757 1.92436 -5.38451e-20)
(2.36479 -0.0383683 0)
(1.78931 -0.125113 0)
(2.53438 0.00372323 4.50417e-20)
(2.40398 0.122572 -2.08364e-20)
(2.86374 0.00628948 -3.69281e-19)
(1.92125 0.156345 -2.01928e-19)
(1.63745 1.25357 -1.21058e-19)
(2.0059 0.100188 -7.65088e-20)
(2.09302 0.309526 0)
(3.51493 -0.27947 -2.08177e-19)
(2.47241 0.119341 7.88228e-20)
(1.90737 -0.217363 -7.78871e-20)
(2.24478 -0.570618 0)
(3.01404 0.556847 2.133e-19)
(2.33068 1.71655 2.47585e-20)
(2.09316 0.0024826 2.43443e-20)
(1.63247 -1.54086 0)
(0.702906 -2.42713 7.52132e-19)
(2.04901 0.162906 0)
(2.17943 -0.251372 -9.54467e-20)
(0.459544 -0.363613 0)
(3.98953 -0.362461 0)
(1.7698 -0.545246 0)
(2.03048 -0.775369 0)
(-0.953229 -1.00369 -2.71203e-19)
(1.09027 -1.08403 -1.94921e-20)
(1.85377 -0.0120281 -3.48252e-19)
(1.27791 -0.696485 -3.02523e-20)
(1.25043 -0.553911 0)
(1.31169 -0.770492 -2.86478e-20)
(0.214321 -0.372564 -1.79722e-18)
(1.48083 -0.702129 0)
(1.47116 -0.523406 -5.07324e-19)
(1.99223 0.0991316 2.88144e-21)
(2.33905 0.354136 2.97822e-20)
(2.3823 -0.815601 6.60216e-20)
(1.83724 0.18296 0)
(2.19281 -0.713387 0)
(3.31538 -0.0841741 2.09289e-19)
(1.66247 -0.112589 3.1263e-21)
(1.96461 0.0676081 5.77993e-21)
(1.56601 -0.604646 -3.11448e-22)
(2.00168 0.0090671 1.80646e-20)
(2.07722 0.0794721 3.98955e-22)
(2.02597 0.177023 2.33194e-19)
(1.88272 0.156059 -6.61237e-21)
(1.88229 -0.528895 0)
(-2.62647 1.06955 0)
(2.09831 0.0298355 0)
(1.95731 0.00928066 0)
(1.73192 -0.314434 2.15035e-19)
(2.60624 -0.138183 0)
(-0.215921 -1.96111 2.32125e-18)
(1.93877 -1.06127 -1.31934e-20)
(1.32319 -0.436188 -7.44138e-19)
(1.47805 -0.511141 2.60886e-20)
(1.13619 -0.923789 -2.83639e-20)
(0.834916 -2.04487 -1.51356e-18)
(1.91104 0.028441 6.4594e-20)
(0.909508 -0.924583 -3.89419e-20)
(1.90567 0.164605 -1.26018e-20)
(2.53106 0.0123352 0)
(2.35327 -0.398708 0)
(1.20652 -0.667198 0)
(2.17464 -0.444376 1.10829e-19)
(1.72596 -0.804558 0)
(1.85676 0.66812 0)
(1.99859 0.0126116 0)
(1.7629 -0.435236 2.2678e-19)
(2.0843 0.18414 -2.08637e-19)
(1.91288 0.0137273 0)
(1.89499 -0.360124 -8.65979e-20)
(1.98778 0.184605 -2.32476e-19)
(2.57511 0.907811 -3.20164e-19)
(1.52584 -0.719285 3.02836e-19)
(1.93139 0.705746 -3.51652e-22)
(1.63642 -0.238661 -2.83735e-21)
(1.77122 0.0609709 6.41866e-21)
(1.78579 -0.192387 -3.57227e-20)
(2.37878 0.132314 3.21433e-20)
(1.96325 0.0544425 1.31587e-20)
(1.82009 0.100252 -3.27363e-19)
(2.11133 -0.0424609 0)
(0.878013 -0.266781 5.15011e-20)
(1.96198 0.0737124 3.36637e-19)
(1.44758 -0.494292 -3.63488e-21)
(2.11885 -0.310745 -1.3232e-19)
(1.04842 -0.166309 -6.51178e-19)
(2.39779 0.100744 -6.22285e-21)
(3.11487 0.197016 3.55134e-19)
(2.00194 0.0930866 0)
(1.91289 1.09132 1.70998e-19)
(1.86653 0.0557043 -7.61926e-22)
(1.79539 -0.202082 7.29294e-20)
(1.15284 -0.549566 -5.4206e-20)
(2.02974 0.0299093 1.76291e-19)
(2.09362 0.0454431 -2.70091e-21)
(2.05239 -0.00175807 -7.71091e-21)
(2.09697 0.0291693 0)
(1.57159 -0.385701 0)
(1.34037 -0.646555 3.7e-19)
(-0.0129899 -0.272415 1.21734e-19)
(2.04796 -0.00243966 6.01928e-22)
(1.96685 0.0693737 6.74525e-19)
(1.97541 0.862558 -5.57457e-19)
(1.45169 0.321436 0)
(1.79377 0.129343 0)
(1.59945 -0.351553 -3.10945e-21)
(2.48756 0.0131587 7.188e-20)
(1.9899 0.680293 3.14412e-19)
(2.51589 -0.168445 0)
(2.04404 -0.00382764 0)
(2.08899 -0.612703 3.98243e-19)
(1.97173 -0.163935 2.79558e-19)
(0.0681763 -0.0508935 -1.0303e-20)
(1.84128 -0.0260428 0)
(4.17121 -0.214486 3.39466e-19)
(1.99964 -0.470131 -3.56576e-20)
(0.304693 -1.73433 -1.96191e-19)
(1.99269 -0.0172974 -3.79019e-19)
(3.13932 -0.786474 0)
(2.59634 -0.653411 2.35884e-19)
(1.73187 -1.43694 -2.43125e-19)
(-0.0106064 -0.0117381 0)
(1.98174 0.00728614 1.07946e-20)
(1.90822 0.125522 -2.19091e-19)
(1.97978 0.0100523 1.50489e-23)
(2.637 -0.271795 3.66811e-20)
(1.66161 1.37852 5.60051e-19)
(1.88438 0.0478684 0)
(1.04693 -0.388419 -4.27877e-21)
(2.02623 0.661799 5.22029e-19)
(2.67303 -2.25865 -9.30512e-19)
(2.0595 0.296086 1.73177e-19)
(1.35203 -0.58654 1.91336e-21)
(1.99598 -0.00197833 -8.21627e-19)
(2.02989 0.226137 8.55906e-21)
(1.78317 0.11214 -3.25832e-22)
(1.72765 -0.394433 0)
(1.86512 0.0033469 -1.72371e-20)
(1.09389 -0.51194 2.56072e-19)
(2.21697 -0.11703 -4.05117e-19)
(1.98287 0.0637571 -3.04893e-19)
(2.16876 -0.229634 8.83812e-20)
(1.66392 -0.150032 7.87337e-19)
(2.10567 -0.000981872 -6.59713e-21)
(1.78821 0.128013 1.90466e-19)
(2.00053 0.0685605 1.12607e-20)
(2.63194 -0.510005 -3.69781e-19)
(2.54026 1.042 -2.31421e-19)
(1.66603 -1.06591 1.02668e-19)
(1.94232 -0.0287113 0)
(0.861896 -0.311007 0)
(0.981081 -0.201452 0)
(1.31962 -0.396432 5.76141e-19)
(2.14412 0.0691596 -4.94989e-19)
(1.80031 0.241138 0)
(1.51336 -0.31737 -4.52087e-19)
(1.799 0.213584 0)
(1.74074 -0.287028 -3.53295e-19)
(1.88821 -0.226066 -8.10177e-20)
(1.85863 -0.498404 -3.19749e-19)
(1.96016 0.0438714 0)
(1.94592 0.0591991 0)
(1.94893 -0.0531486 4.70615e-20)
(2.54497 0.234024 6.14991e-21)
(2.51826 -0.0942601 1.61059e-19)
(2.54107 1.80434 -6.90859e-21)
(2.55245 -0.236248 0)