/*--------------------------------*- C++ -*----------------------------------*\
| =========                 |                                                 |
| \\      /  F ield         | OpenFOAM: The Open Source CFD Toolbox           |
|  \\    /   O peration     | Version:  2306                                  |
|   \\  /    A nd           | Website:  www.openfoam.com                      |
|    \\/     M anipulation  |                                                 |
\*---------------------------------------------------------------------------*/
FoamFile
{
    version     2.0;
    format      ascii;
    arch        "LSB;label=32;scalar=64";
    class       surfaceScalarField;
    location    "7.9";
    object      phi;
}
// * * * * * * * * * * * * * * * * * * * * * * * * * * * * * * * * * * * * * //

dimensions      [0 3 -1 0 0 0 0];

oriented        oriented;

internalField   nonuniform List<scalar> 
20045
(
0.525873
-0.600929
0.0750556
-1.11903
0.442086
0.67694
0.232206
1.80279
-2.035
-0.401388
0.501491
-0.100103
-0.889994
0.843993
0.0460008
-0.515576
2.10011
-1.58454
-0.965983
0.384562
0.581421
0.0694443
0.462154
-0.531599
0.487644
0.456994
-0.944638
-0.738023
-0.179742
0.917765
0.321979
-0.171507
-0.150472
2.35737
-1.22514
-1.13223
0.405397
-0.400027
-0.00537014
-1.24813
0.998454
0.249676
-0.319913
1.06736
-0.747452
-1.06322
0.325199
0.0484665
0.113941
-0.162408
1.37324
-1.9779
0.604653
-1.74286
2.498
-0.75514
-0.759032
-0.00265541
0.761688
-0.451296
0.401805
0.0494915
0.144542
0.260854
-0.195249
-0.923777
0.597895
0.849203
-1.4471
0.861869
0.132461
-0.99433
-0.929045
1.52694
-0.128928
0.113499
0.0154298
-1.07274
2.0689
-0.996159
1.70536
0.0163042
-1.72166
-1.96456
1.09286
0.871702
-0.362881
0.243456
0.119425
1.49969
-1.00949
-0.490205
-0.794179
1.42835
-0.634167
2.12766
-1.25742
-0.870239
-0.593601
0.663046
1.78872
-0.859416
-0.929302
1.01739
1.07459
-2.09198
-0.0695655
0.418196
-0.34863
-3.90039
0.78869
3.1117
0.655403
0.517333
-1.17274
0.0288601
0.468393
-0.497253
0.171771
-0.242756
0.0709848
2.57827
-2.55535
-0.0229273
1.45257
-0.487915
-0.964654
0.634435
0.818134
1.17654
1.18083
0.0851654
0.167231
-0.252396
0.961185
0.686246
-1.64743
2.23346
-1.21607
0.116428
1.73367
-1.8501
1.3052
-2.2014
0.896203
4.0317
-2.6986
-1.3331
-1.1741
-1.09839
2.2725
-0.0919513
-0.331682
0.423633
2.32038
-1.56864
-0.751741
-0.719368
-0.170626
0.473588
1.01642
-1.49001
3.75019
0.140702
-3.89089
0.773469
-1.56765
1.60523
-1.74598
0.140752
0.139194
0.0283462
-0.16754
-0.0481904
1.65342
0.81278
-1.72369
0.910912
-0.331627
-0.119669
1.20523
0.274791
-1.48003
0.958132
1.15337
-2.1115
0.132999
-0.451642
0.318643
-0.686398
0.109028
0.57737
0.893637
-0.405993
1.00203
-1.10201
0.099979
0.341812
-0.208813
0.956812
1.36357
-0.290851
-1.04886
1.33972
0.0757284
-0.11242
0.0366916
1.20932
0.45595
-1.66527
1.28575
-0.812163
-0.832781
2.0421
0.446877
-0.76679
-0.255581
0.0533192
0.202262
1.31253
-0.644252
-0.668277
0.914943
1.06724
-1.98218
0.900285
-0.758056
-0.142229
1.46595
-0.653167
-2.2591
0.348647
1.91046
-0.00701051
0.532884
-0.442068
0.582783
-0.140715
2.34736
-1.07362
-1.27374
-1.60276
0.0665318
1.53623
1.01591
0.198746
-1.21466
-0.869722
0.728624
0.141098
-1.53349
-0.351686
1.88518
0.770932
-0.140863
-0.63007
0.424894
-0.636745
0.211851
-0.219874
-0.803819
1.02369
0.632183
-0.667392
0.0352089
1.18797
0.51191
-1.69988
-0.0594179
-0.0695106
0.0341995
0.349756
-0.383955
1.28003
-0.624629
0.0127876
0.160147
-0.172935
1.21364
0.57508
-0.509545
-0.738585
0.453564
-0.419364
-0.786577
4.53677
0.0818018
-0.52387
-0.247349
0.260136
0.438821
1.21034
-1.64916
3.37798
-2.72452
-0.653452
-0.170416
-0.484906
0.419243
0.0656637
-0.253458
0.321182
-0.0677243
1.21185
-0.839438
-0.372416
-0.532051
0.4401
1.54842
-1.95546
0.407037
-0.228889
0.365595
-0.136706
0.0540255
-0.311496
0.25747
1.1199
-0.258029
1.64835
0.479301
-1.21825
0.9274
1.27508
-2.50954
1.23446
1.96536
-0.592114
0.0638804
0.0753131
-0.825992
0.678188
0.147805
-0.522413
0.104461
-0.624799
0.520338
2.36656
1.66514
1.16607
-1.48639
0.320319
1.59318
0.17053
-1.76371
-2.02488
1.69111
0.333769
-0.438782
-1.18512
1.6239
4.23503
-1.86847
-0.244558
0.411788
0.35366
-0.270615
-0.0830453
-0.0497588
0.0261172
0.0236416
1.1425
0.800709
-1.94321
1.23145
-1.12775
-0.103701
-0.318386
0.127526
0.19086
-0.345845
-0.139061
2.71453
-1.43945
-0.688922
0.733765
-0.0448425
1.18744
-1.96308
0.775648
0.567679
-1.74178
1.21628
0.494318
-1.7106
0.651715
0.660814
2.24602
-0.304975
-1.94105
0.395837
-1.38892
0.993088
1.8059
-1.7221
-0.0837982
-0.285259
0.402612
-0.117353
0.0378371
1.88217
-1.92001
1.82592
-0.120559
-1.6499
0.0524832
1.59742
-0.977575
0.826811
0.150763
1.75031
-0.835367
0.274108
0.626177
-1.27367
1.51513
-0.241463
-1.54137
1.77358
0.0228604
-0.385899
0.363039
-0.331295
0.361108
-0.0298128
-0.0343102
-0.40181
0.43612
0.789264
0.195722
-0.984986
2.54998
-1.22129
-1.32869
-0.474394
0.440084
0.28924
-1.13015
0.840913
0.206149
-0.0343781
-3.48518
-0.973232
1.29429
-0.321058
-1.27746
0.998069
0.279389
-0.0236647
-0.092961
0.116626
0.225321
1.58058
-0.040463
-0.0092958
0.0785072
0.275153
-1.37588
0.102213
-1.47033
1.86316
-0.392826
-1.36759
1.57231
-0.204713
-1.13416
-0.710541
1.8447
0.449961
-0.42292
-0.0270412
0.806692
-0.927244
0.120552
1.50467
0.248712
-1.75338
0.0109668
-1.49681
1.48584
-0.792696
2.00898
0.426679
-1.14765
0.720975
-0.505733
2.05416
-1.73602
1.1318
0.604228
-0.0193241
0.0214346
-0.00211051
0.734494
-2.11079
1.3763
-1.67336
0.600613
-1.37591
-0.492081
1.84107
-1.15727
-0.6838
-0.593737
0.622597
0.311227
-0.330238
0.0190111
-1.19964
-1.07992
2.27956
-1.67422
2.45883
-0.784615
4.20193
-2.0212
-2.18073
0.061928
-0.442317
0.380388
0.448043
-2.68794
2.23989
0.228616
0.093363
-1.43787
0.999086
-1.29784
-0.440493
1.73833
0.223138
0.0596006
-0.282739
0.161241
-1.13447
-0.165802
-0.197079
1.69387
-0.100688
-0.33218
0.262615
-0.335056
0.410483
-0.0754268
-0.470421
1.25969
-2.11654
2.56458
0.215702
0.645711
-0.861413
-1.43737
0.308596
1.12877
2.10784
2.09409
2.24176
-1.50727
1.30048
-2.14433
0.843854
0.464478
-1.5816
1.11712
0.110119
-0.869152
-0.982929
1.42175
1.29101
-1.80658
0.761094
-1.00786
0.246764
-2.15831
1.21871
0.939593
-0.121803
-0.747919
0.369479
0.326175
-0.695654
1.28939
-0.329986
-0.959402
0.208613
-1.29374
1.33157
-0.537001
-0.151921
1.25214
2.26067
-2.09542
-0.165253
-0.0253478
-0.290442
0.31579
1.31887
0.151513
-1.47038
0.254831
0.091213
-0.346044
0.342592
0.314328
-0.656919
1.66522
0.682146
1.19203
-0.765348
-0.164718
0.565192
-0.400474
1.63311
-0.44567
0.232083
-0.0180256
-0.214057
-0.323648
-0.074987
0.398635
-0.261911
0.2707
-0.00878878
1.8279
-1.23303
-0.594871
0.560014
-2.23423
-0.28784
0.0259292
-1.82711
0.577718
1.2494
2.00635
-0.578
0.490241
-1.96057
3.01472
-1.57271
-1.44201
-0.0322999
0.255438
0.899114
0.849354
-1.74847
-1.21767
0.237746
0.97992
-1.99239
1.97031
0.0220842
0.505764
-1.51816
1.0124
0.0118259
-0.0118121
-1.38345e-05
-0.961485
1.22644
-0.264954
0.121509
0.22147
-0.342979
-0.336582
0.107693
-0.300858
0.0474
-3.29297
0.568442
1.34319
-0.616672
-0.726518
-0.18921
-0.300681
0.48989
0.79477
0.704922
0.920842
-0.159748
-0.149654
-0.181641
1.21817
0.788176
-1.03274
0.0828389
0.949898
-0.524591
1.42371
0.767356
0.300009
0.147995
-0.337204
-0.593871
-0.0554898
0.649361
-0.000887939
-0.0184362
-0.6324
0.974992
-0.0529406
-0.145844
0.198785
-1.8325
1.76381
0.0686955
-2.24522
2.84834
-0.60312
-0.346616
-0.28008
0.626696
1.52044
-1.65871
0.138264
-1.31781
-0.840493
2.67253
-1.86433
-0.8082
-0.225626
0.200278
1.67981
-1.17405
0.501703
0.841487
-1.58358
0.0412676
1.54231
1.36955
1.83872
-3.20827
1.85502
0.0713471
-1.92637
-1.57038
-0.0132012
1.71267
-0.99249
-0.720183
-0.339697
1.57523
-1.23554
0.946335
-1.42638
0.480045
0.083415
-0.05775
-0.025665
0.22399
-0.00896967
-0.21502
2.21766
-1.73886
-0.478804
-1.04395
-0.980935
1.85235
0.40832
-1.6731
-0.159399
0.100242
-0.42389
1.50943
-0.829741
-0.679686
0.00842048
0.302806
-1.07384
2.21634
0.607456
1.22044
2.00721
-1.27752
-0.729683
-1.59842
1.15792
1.69704
-2.47315
0.776112
-1.24118
-0.103664
1.34484
-0.527397
-0.314847
0.842244
1.14903
-0.859792
-0.843399
1.0591
0.132916
-0.0163385
-0.993148
-1.32635
2.61698
-1.29063
-0.393075
0.0580186
-0.298739
0.134021
0.213451
-2.20584
2.12163
-0.456418
1.03382
-0.502727
0.683796
-0.181069
0.0242186
-0.425607
-0.988293
0.667606
0.320687
0.618371
0.593483
-0.323306
0.950478
-0.627173
0.963231
0.268218
0.619092
0.890335
1.16304
-0.147132
-0.451965
-0.985404
1.35793
-0.872803
-0.485122
2.03272
-1.39328
2.16135
-0.76807
1.5788
-1.7239
0.145105
-0.924167
0.704292
-0.268856
-0.04953
-0.185661
-1.34783
0.592115
-1.12583
0.533712
0.873369
0.839304
1.62137
-2.16636
0.544982
0.474149
-1.11071
0.636565
-1.94612
0.343364
0.0286647
0.742268
-1.18332
1.99729
-0.813976
-0.467146
0.645543
-0.178398
-0.82412
-0.141864
-0.277779
-0.470046
0.747825
0.223376
0.000893809
-0.224269
-0.653014
-0.324561
0.730874
0.900337
-1.63121
0.452522
-0.977113
0.725525
-0.902575
-0.0215913
0.960578
-0.486429
-1.38485
-0.351176
0.21102
-0.223754
0.0127335
1.6969
-0.735719
-0.932257
1.54441
-0.61215
-0.265566
0.314733
-0.0491677
1.41734
-0.127956
-1.72402
0.894281
-1.04037
1.91314
-0.872767
1.50293
-2.25757
0.754638
1.00919
1.66334
0.086346
-0.0288549
-0.0574911
0.198077
-1.43925
1.18146
-1.76648
0.585019
0.104177
-0.0284487
-0.147705
1.31378
1.76955
0.352088
-1.02758
1.49206
0.335041
-2.0779
-2.06646
1.10216
0.9643
1.32202
-0.2541
-1.06792
1.87101
-0.350563
-0.745849
-0.92293
-0.799003
0.774177
-0.0820132
-0.32391
0.405923
0.647947
-0.650602
-1.47413
1.32642
1.99428
0.583995
-1.6263
0.694044
2.22155
-0.369198
-0.366168
0.272715
0.0934524
-0.0516315
-1.15245
1.20409
-1.8022
0.335611
1.46659
1.59573
-1.59573
-1.43832
0.764064
0.674255
0.79675
-1.12006
1.24225
-0.778665
-0.46359
-1.88761
1.96637
-0.078758
0.708241
-0.0880531
-0.620188
0.563959
-0.199397
-0.364563
0.269466
-0.616082
-0.326571
1.40137
-0.899666
-1.62258
1.93408
-0.311496
-0.57855
1.30942
-0.0618374
-0.0140925
0.0759299
-0.0483552
-0.144532
0.192887
-0.758637
0.868757
1.94191
-1.58256
-0.359353
-0.197695
-1.02574
1.22343
-0.510082
0.540119
-0.0300373
0.311944
-0.58021
0.268266
-2.44354
1.34768
1.09586
0.348228
0.153264
-0.342218
-0.0239497
0.0373146
0.0873463
-0.124661
0.91981
1.29785
-0.101553
0.0397158
-0.1793
-0.494226
0.673527
-1.01257
1.62919
-0.616619
0.0142482
0.242683
-0.256932
0.823353
-0.438791
1.39172
1.11584
-2.50756
0.0723579
-0.876177
0.0499608
1.45471
0.877019
0.631066
-1.50808
0.979237
-0.808857
-0.17038
-2.02855
0.378651
-0.780153
0.373947
0.406205
0.794246
0.99553
-1.78978
-1.2675
1.16383
0.118941
-1.81162
1.69268
-0.296382
0.35831
-0.0169788
0.0239659
-0.00698715
0.05599
-0.649861
-0.148071
0.204945
-0.0568746
-1.41251
-0.414601
1.22131
0.0352489
0.207734
-0.242983
-0.290891
0.0253257
0.315741
-1.40257
1.08683
0.350786
1.06345
-1.41423
0.563548
-1.41357
1.68432
-0.270752
-1.44145
1.10175
0.0181894
0.0953093
-0.801564
-0.475894
-0.556496
0.129125
0.427371
-1.76518
0.752603
1.30842
-1.50611
0.484642
1.73691
-0.63562
0.629473
0.00614718
0.679432
-1.64459
0.965153
0.357392
-0.577735
0.220344
-1.03766
-0.686364
-1.32868
-0.0389173
-0.680066
-0.00633102
0.169801
0.222206
-0.392006
0.6241
0.0411707
-0.0983282
0.0571574
1.6778
-0.883555
-1.23327
0.320698
0.912571
0.52366
0.409704
-0.933365
-0.719347
0.422965
-0.485639
-0.0708571
0.67399
0.568265
-1.1949
-1.31464
0.201357
0.00966317
1.21608
0.862754
0.300289
-1.6879
1.80432
0.111369
-0.812169
0.700799
-0.1776
-1.6498
1.8274
-0.166278
0.192009
-0.025731
0.552894
-0.102933
-0.505721
1.45206
1.49788
-1.10204
-0.767612
-0.220681
-0.019158
-0.835468
0.854626
0.69962
-1.83378
-0.149992
-0.959567
1.10956
-0.095124
0.45743
-0.362306
-1.29419
0.0787581
1.21543
1.73116
-1.04491
-0.0162908
0.201034
-0.184743
-0.458902
-0.0511795
0.398049
0.718603
-1.11665
0.249424
-0.310143
0.0607184
1.04791
0.590235
-1.63814
-0.82247
2.01044
0.213447
0.00992869
-0.372867
-1.79302
2.16589
1.30823
1.4063
1.70608
-1.3553
-0.743647
0.465867
0.225232
-0.00124241
-0.674465
2.37151
0.263439
-1.52722
1.26378
1.71126
-0.317325
-1.39394
-0.802856
1.34206
-0.539207
0.783988
-0.625805
-0.951502
1.57731
-0.154073
0.112978
0.0410953
-0.564462
-0.973788
1.53825
-0.207835
0.15948
0.104684
-0.128349
1.01323
-1.57769
-1.41168
-0.418745
1.83042
-0.0929166
-0.985252
1.07817
-0.274925
2.09852
-2.18637
0.0878476
0.446565
-0.248911
-0.197654
0.000638695
-0.636259
0.509337
0.514356
-0.646529
0.119132
-1.61719
2.03426
-0.41707
-0.239427
0.186486
1.76636
-1.11464
-1.96677
-0.588575
0.0253702
0.31057
-0.33594
1.07461
-0.211857
-0.429524
0.473113
-0.0435887
0.348575
-0.227066
-2.11692
0.741014
1.79139
0.308723
-0.212523
0.524468
-0.444388
0.968049
1.03554
0.365831
-0.444211
0.0146867
-0.196484
-1.27765
0.491433
0.476165
-0.453304
-1.83817
0.0359698
-0.0695633
0.450638
-0.0932464
-2.0755
0.930871
1.14463
0.916537
0.0854969
0.420931
-0.148269
-0.272662
0.582756
-0.5427
-0.0400559
-1.34147
0.482052
-2.13311
1.09274
0.0268305
0.176572
-0.203403
0.0259062
0.198814
-0.224721
2.12435
-0.0349106
-2.08943
0.354267
0.0213474
-0.375615
-0.276914
-0.549078
0.488035
-0.063141
-0.0280968
0.0248004
0.00329644
0.802644
-0.104669
-0.697975
-0.0150097
-0.0130871
1.56378
-1.05187
-0.0562136
-0.310388
0.366601
-2.04826
0.431067
0.00445585
0.00444447
0.449119
-0.397178
0.432427
-0.135173
-0.014481
0.511957
0.32701
-0.838967
1.44339
-0.238151
0.774125
-0.662756
0.441714
-0.387688
0.189583
-0.656729
0.197769
-0.274831
0.0770625
1.1036
-0.118644
-0.984961
-1.06327
-0.325658
-0.321322
0.120683
0.200639
0.688301
-0.832691
0.14439
2.18995
-0.060551
-2.1294
-0.209286
0.0285896
0.180696
-0.982793
1.34551
-0.362715
1.03457
1.1503
-2.18487
-0.113089
0.141435
-0.545098
0.897697
-0.3526
0.467776
0.184387
-0.652163
-1.75909
0.871315
0.887779
0.0195597
0.00524068
-1.68909
0.277415
0.648904
-0.381478
-0.267427
0.892027
-1.19744
0.305409
-0.207948
-0.392981
0.264234
1.83428
1.64384
-0.279612
-1.36423
-1.64214
0.22857
0.655022
-1.10699
1.60366
-2.74139
1.13773
-0.226724
0.596203
0.0269281
-0.773726
0.594426
-0.337507
0.441968
-0.112675
-1.60422
1.7169
0.688266
0.991547
-1.47497
1.5567
-0.0817348
-0.145118
0.314919
-1.46397
-0.449882
-0.252688
0.284138
-0.0314495
1.1331
-1.21794
0.0848434
-0.0821984
0.248613
-0.166415
-0.211402
1.10343
-1.7067
-0.464894
2.1716
-1.56228
-0.490289
2.05256
0.91204
-0.743209
-0.168831
-0.426317
0.0377737
0.388543
-0.0556497
-0.138796
0.194445
-1.91548
0.0678835
1.84759
0.0439111
0.408409
-0.45232
1.5683
-1.7491
0.180794
-0.951556
0.988044
0.457156
-1.4452
0.0272343
-0.279923
0.0947029
-1.20419
1.10948
1.55405
-2.05979
-1.89388
1.6478
0.246078
0.294859
-0.045435
0.578599
1.18776
-0.151432
-0.384458
0.535891
-0.0203894
0.31128
-0.290891
-0.707239
1.83479
-1.12755
1.18877
-2.30726
1.11848
2.03777
-1.94538
-0.092393
1.50944
-0.669715
-0.839723
0.0804529
-0.478558
0.398105
-0.607025
-0.017774
-2.02703
1.78806
0.238966
0.113071
-2.1401
-0.305099
2.17127
-1.86617
-1.10026
-0.638598
0.422125
-0.349213
-0.0729116
-1.59552
-0.452732
-0.396779
0.275638
0.121141
0.249924
0.0049062
-1.86343
1.78606
0.0773684
-0.293559
-0.0571632
-0.0552568
0.383353
-0.0290859
-1.16718
0.205692
0.31607
-0.356705
0.0406346
-1.18009
1.2554
-0.0753149
0.751134
-0.0428928
-0.518599
1.15795
0.259399
0.738524
-0.742293
1.47739
-0.735095
-0.25548
1.06217
-1.27877
0.802647
0.476124
0.0297801
-0.0102204
1.6406
-0.952334
1.4099
-0.730471
-0.37566
-0.381759
0.757419
0.37339
-1.23909
0.865702
1.11991
-1.21282
1.75822
-0.763058
-0.99516
-0.0106726
-1.05805
-0.220722
-0.475487
1.13019
-0.654703
-0.0486065
-0.48589
1.78637
-2.10555
0.510027
0.0175471
0.0658678
-0.259638
-0.221979
0.279143
-0.00844397
-0.857203
-0.918291
1.78047
-0.494717
-0.0676422
-0.125724
0.193366
0.10715
0.456809
-1.60463
-0.814292
2.41892
0.0982277
1.05081
-0.0110462
-0.302909
0.313956
1.64081
-0.130952
0.0474063
0.0835459
-0.333552
0.531321
-0.749282
-1.96427
0.341686
-0.448352
0.0225448
0.425807
1.52995
1.48477
1.19532
-0.0124445
-1.18288
1.94668
0.0910969
1.20539
-1.7166
0.511215
-1.63932
-0.00671259
1.64603
-1.62704
2.10517
-0.478128
0.298701
-0.0136258
-0.285075
-0.578519
2.13257
0.290296
-0.0924102
-0.197886
0.068142
-1.54311
0.245986
9.05286e-06
-0.245996
-1.862
2.38203
-0.520026
-0.4971
1.1103
-0.613198
2.32241
-1.02257
-1.29984
0.0388444
-1.20556
1.16671
0.0161941
0.00777183
-0.892297
1.92686
-0.61764
-0.820679
2.14857
-0.645642
-0.382441
0.326227
-1.70527
0.0659466
2.28267
-0.661299
0.0261881
-2.28529
0.50358
-0.0351862
-0.27956
2.33196
-2.0524
1.10697
-0.292347
-0.814627
0.502592
-1.30293
0.800334
-0.311156
0.020446
0.29071
-0.429259
-0.95601
1.38527
0.728394
-0.538811
-1.65656
-0.316314
1.97287
0.291101
0.484069
-0.77517
0.157282
0.264843
-2.19267
2.5859
-0.393228
-0.21834
0.0520627
0.883409
0.436552
-1.31996
0.964119
0.739705
-1.70382
0.352117
0.969906
-0.054994
2.30101
-0.00310737
1.56879
-1.56568
0.0372588
-0.0230106
0.0591447
0.0406286
-0.0997733
1.54485
-1.38295
-0.161903
0.787911
0.970306
0.139275
-0.136879
-0.00239692
-0.529868
1.58411
-1.05424
0.00532593
0.352954
-0.35828
0.80321
-1.12548
0.322274
-1.00639
-0.501793
1.50818
1.54255
-0.223683
0.555119
0.551855
-2.33696
0.189789
2.14717
0.590316
-1.61605
0.119099
0.0250921
-0.144191
0.389033
-0.11531
-0.273723
0.0211656
-0.00497149
-0.131427
1.37331
-1.24188
-0.212903
1.94658
1.5119
-1.24947
-0.262432
1.27104
-1.07229
-1.02507
0.38186
0.643214
0.0433636
-0.822028
0.397695
-0.273733
-0.123962
0.136085
0.284846
0.28914
1.46063
-1.74977
0.440727
0.361917
0.249721
-1.812
-0.885941
0.287824
0.598117
-0.646081
-0.500794
1.14688
0.981649
-0.469691
-1.67767
1.09912
0.678122
-0.551705
-0.126417
-1.69091
1.17842
0.512496
-0.855315
0.927673
-0.830298
1.0316
-0.201304
-3.89738
3.12396
0.773423
-0.0443725
0.429178
-0.384806
-0.306734
0.33264
-0.204648
-1.7873
4.19495
-2.40764
-1.07479
1.38339
0.996484
-1.05196
0.055474
-0.110443
0.100833
0.00961049
-2.11265
1.54259
0.570063
0.0240065
0.00741514
-0.0314217
0.0660684
1.08792
-1.79516
1.00097
-0.627576
-0.914192
-1.15227
-1.39643
1.39332
0.944913
0.0531567
0.655216
0.310272
-0.965489
-0.674625
0.633475
0.0411506
0.211237
-0.602435
0.391197
-0.0784495
-1.21947
1.29792
0.949921
0.982672
-1.93259
-1.47899
-0.372137
1.85112
-0.204289
0.0938463
1.25875
0.286096
-1.2845
0.336388
0.948109
-0.0214773
0.402888
-0.381411
0.0100259
0.388127
-0.487669
0.0995422
-1.13531
-1.43216
1.35371
0.287655
0.414491
-0.334038
1.20306
-0.0699624
0.279267
-1.46439
0.0677985
0.564385
-0.329518
0.209448
0.12007
-1.35869
-1.09833
2.45702
-1.11604
-1.22092
-1.02257
-0.1244
1.14697
0.250585
0.376451
-0.627036
-0.0147979
2.22609
-1.4352
-0.790887
0.34823
1.29561
0.0635612
0.699457
-1.5501
0.850643
-0.601496
1.5
-0.898506
-1.12534
-0.418538
1.54388
-0.923712
0.378614
-0.732672
-0.292403
1.97316
-0.954698
-1.01846
-0.0241966
0.208736
-0.184539
0.698875
0.162746
-0.861621
-0.354015
0.397926
-0.123545
0.248042
-0.124497
-0.322158
-0.0464752
-0.427919
-0.0158334
1.09632
0.876845
-2.36382
3.15251
-0.603121
1.69598
0.126585
-0.150782
-1.63387
0.508526
1.43536
-1.23728
-0.239498
-1.26828
0.285483
1.93849
-2.24359
1.3364
-1.38803
1.62567
-0.0468745
-0.387832
-0.248913
-0.452504
-0.197012
0.649516
-0.608277
-0.0591151
1.48117
0.27817
-1.75934
-0.00657952
-0.496037
0.502617
-0.00694418
2.16961
-2.02896
-0.140655
1.67885
-0.110552
-2.12894
1.93544
0.193495
0.419545
-0.310518
-1.96527
-0.147385
-0.603937
1.84689
-0.0588238
-0.655375
2.31746
-0.93033
-1.38713
-1.16833
-0.129726
1.29806
0.209436
0.995169
-1.20461
-1.38037
0.0861855
-0.376524
-0.199389
0.575912
-0.932833
1.19627
0.309737
0.98626
-1.296
-1.18678
0.27448
0.912305
-1.76767
0.155053
1.61262
0.0962476
0.904718
-0.468783
0.980439
0.528999
-0.487123
-0.29303
1.8124
-2.11737
0.423525
-1.05334
0.629811
-0.278357
0.165268
1.34015
0.0732764
-1.41342
1.14025
-1.74337
0.00486933
0.00695659
-0.935893
1.61859
-0.682694
-1.21114
1.30584
-0.034126
0.55738
-0.523254
-0.0100912
-0.286583
0.296675
0.0963019
0.456592
-0.521685
1.17671
0.128272
-0.101441
-0.314014
0.341249
0.593063
-0.50185
0.0267712
-0.0385833
-0.390124
0.37466
0.0154631
0.418392
-0.463601
0.0452091
-1.16133
1.61728
0.188247
-1.21082
-0.0482119
-0.545525
0.00611158
1.10494
-1.11105
0.638452
-0.693942
0.552045
-1.48225
0.930204
-1.84376
0.621637
1.22212
1.27381
-2.60016
-0.870922
-0.0482185
-1.84566
0.470901
1.30957
-1.46178
-0.215889
0.679542
-2.07282
-0.83286
0.362814
0.0680909
0.0992246
-0.167316
2.78924
-1.25929
1.49209
-0.310631
-0.452544
-0.326201
0.778745
-1.96894
0.773859
1.19508
0.0722068
-0.243714
-0.454088
1.44213
0.327756
-0.183213
-2.05543
0.356432
-0.0661358
-0.322383
0.309608
0.0127757
-0.240386
1.72155
-0.303312
0.0774487
0.225863
1.12369
-2.63935
1.26976
1.36959
0.454698
0.393492
-0.84819
1.07775
-2.37884
1.3011
-1.04389
0.546787
-1.16308
-0.0479178
0.746792
1.76788
-1.94548
0.817993
-0.350217
-0.755736
1.34605
-1.17373
0.870783
0.302948
0.864555
-1.23881
0.374257
-1.36662
1.45675
-0.0901257
0.740025
-0.995504
0.0280721
0.385582
0.526458
-0.632611
-0.0116415
-1.92341
-0.905481
-0.250916
1.1564
0.478566
-1.6469
1.42207
-0.0536416
-1.16402
0.244566
0.45372
2.02708
-0.679675
-1.34741
-1.02108
0.533657
-1.17974
0.321396
-1.84411
1.71439
-1.35213
0.726327
0.930325
-1.3383
1.93567
-0.597378
-4.29309
1.60856
2.68452
-0.591153
0.256617
-0.351741
-1.92967
1.35795
0.571726
1.58659
-2.16511
-2.16799
-0.0246892
2.74887
-1.14521
0.792436
1.12423
-1.91667
-0.0449654
-0.292843
0.337809
-0.106946
0.827379
1.04416
-2.23012
0.891827
0.294465
0.433929
0.404926
0.707407
-1.11233
0.763866
-0.437692
-0.147636
-2.10622
2.25386
-0.677641
0.860754
-1.65345
-1.12677
-0.837899
1.96467
0.489119
-0.629982
-1.34571
0.439756
0.905956
-0.151502
-0.100178
0.25168
1.76794
-1.88061
0.597013
-1.53291
0.657365
0.768231
-1.4256
0.0425324
-0.110175
-1.58844
0.457909
1.13053
-1.55252
0.546131
0.89512
-1.49662
1.18481
-0.761288
-0.133436
-0.0180662
-0.011562
1.72282
-1.16488
1.4673
-0.302416
1.45714
0.0114615
-1.4686
-1.535
-0.00530592
-0.497421
0.104201
1.49153
0.254021
0.0607121
-0.838399
-0.0454428
0.842193
0.98203
-0.396867
0.608105
-1.75084
-0.112583
-0.945908
2.0274
-1.17804
0.358186
0.359524
-0.71771
3.11709
-0.278807
-2.83828
-0.223087
0.209461
-0.668756
-1.46436
-1.49803
-0.225874
-0.628156
1.76841
-0.635352
0.908875
-0.273523
-1.98601
0.627314
-0.567324
0.97225
-1.24051
-0.834984
-0.540923
-0.534677
0.655229
-1.51282
0.332732
2.1194
-0.272516
0.384703
-2.26401
1.8793
0.132951
0.432241
0.517252
1.95385
-1.83491
-0.0362523
-0.431304
0.643155
-0.930381
1.01322
-0.896932
-0.776555
0.413371
0.351826
-0.765197
-1.64309
0.0473598
-0.240198
1.4679
-1.2277
-0.481134
-1.6478
-1.31771
1.46922
2.30176
-0.985948
-1.31581
-0.198726
0.572673
1.69768
-0.943566
-0.754117
0.514866
-0.561341
0.103976
-0.0448318
-0.33951
0.0170725
0.322437
-0.284721
0.939938
-0.718246
2.30484
-0.0329221
-0.316291
-0.523523
-0.186757
0.71028
0.0524538
1.71548
0.554709
0.40322
-0.957929
-0.72028
1.11833
0.772317
0.811795
-0.726506
-0.159435
1.00947
-0.357179
-0.65229
-0.0701204
-0.0179801
0.0881005
0.159086
-1.42112
1.26204
-1.75481
0.25678
0.42218
0.123548
1.90385
-0.00910523
0.523971
0.2717
-0.907052
-1.61846
0.81946
-1.85182
0.630531
-0.884601
0.125964
-0.814267
-1.16652
1.98079
-2.39456
-0.0561867
0.166857
-0.11067
1.68536
-1.33671
1.32596
-1.11652
0.271593
1.01129
-1.28288
0.316792
-0.693316
-0.00691272
-1.79045
1.79736
0.402988
0.293263
-0.696251
-0.698935
1.58877
-0.889835
1.64173
-0.97923
-0.662502
0.685509
-0.0444189
-0.64109
-1.0162
-1.62315
-0.607941
-0.0721256
2.27052
1.96451
-0.022403
0.192915
-0.170512
-1.26675
-0.321685
1.28583
1.21217
-1.00694
1.23834
-0.231407
-0.168899
0.216305
0.169795
0.755867
-0.925663
-0.168422
-0.13489
-0.206391
-1.72328
-2.24028
0.704206
-0.026084
-0.457119
0.291317
0.140991
1.38368
-1.52467
-0.977106
-0.190071
0.51832
-0.0657985
0.135409
-0.481254
-0.0393086
-0.346511
0.38582
0.178305
-0.695954
0.51765
1.47988
1.36846
1.44361
1.59777
-0.724396
1.81672
-0.955968
-0.233924
-0.475832
0.709756
1.40849
0.166742
0.0226525
-1.30219
0.872927
1.40272
-1.35026
-0.915843
-0.8091
1.72494
-1.12462
-0.844318
-1.85334
1.86646
-0.0131276
-0.0226196
-0.667276
0.470264
1.08778
0.509985
-0.234803
-0.167212
0.402015
-0.541198
-0.560815
-1.52147
-0.05858
1.58005
1.14022
-1.04199
-0.160291
0.27939
1.14638
-1.81513
0.830392
-0.697931
-0.599587
1.3722
-0.772615
0.941666
0.995443
0.5685
-1.56394
1.91721
-1.1755
-0.741706
-0.680467
-1.59525
2.21216
-0.616909
2.09404
-1.70934
-0.547678
0.538573
0.804299
1.51811
-0.413179
0.368214
0.0692981
-0.0281274
1.80243
-1.00172
1.2068
1.58244
-0.793301
0.431523
0.361777
0.450395
-0.826056
1.41124
-0.0710909
2.59608
-1.80364
-1.27607
-0.138955
1.41503
0.363557
-0.0475159
-0.316041
0.304794
0.141772
0.250105
-1.87715
-0.531609
0.587599
1.2944
-1.15115
-0.14325
0.293171
0.716298
-0.294983
0.146714
0.46775
0.450289
-0.918039
-0.882039
1.65551
-0.100632
-0.947454
2.25173
-1.30427
-0.461072
0.752172
-0.413689
-0.773096
2.05805
-1.0257
-0.647409
2.41544
-1.33769
0.558559
-0.606771
-0.325309
0.280936
-0.559787
-0.276458
-0.0144332
0.996084
-0.290074
1.53705
-1.24697
-0.15335
0.190665
-0.584679
0.200221
-0.637191
0.02925
-2.14576
1.7729
0.437362
0.460335
-0.427233
-0.763045
1.19028
0.421064
0.161719
1.56352
0.965191
-2.52871
-0.20828
-0.0302213
0.238502
-1.11334
-0.119927
1.4904
0.811364
1.4657
-1.32471
-2.26972
-0.00792881
0.033856
0.308801
0.849505
0.689997
0.191056
-0.881052
0.709163
-0.0707108
-0.0511867
-0.596778
-0.196523
-2.3961
-0.858896
0.90226
-0.693533
1.01423
1.071
-1.0378
-0.0332016
0.359578
0.0150827
-0.123802
0.477712
-0.0593203
1.44016
0.356563
-1.79672
-0.578978
0.256595
-0.436462
0.270203
0.166259
-0.650448
0.00563096
0.644817
0.733866
0.811439
-1.5453
0.436139
0.54551
1.27715
-0.025811
-0.50624
0.927602
-0.973045
0.285857
-0.362424
0.0765675
-1.53352
1.04144
1.56027
-1.24342
-0.316852
0.0288196
-0.275106
0.246287
1.6147
-1.74612
1.8768
-0.736573
0.454279
0.871679
-0.26059
-0.015868
0.247944
-0.0646881
-0.183255
-1.04327
-0.241112
1.99745
-1.02208
-0.97537
2.89666
-1.78371
-1.11295
0.758648
-1.32771
0.569062
-0.103414
0.967876
-0.0072984
-0.682138
1.28742
-0.605283
0.252822
-0.00487824
-0.766176
0.286395
-0.208946
1.51398
0.0199538
-1.53394
-0.260929
-0.287819
-0.0416989
-0.145934
0.00905565
0.569184
1.0494
-0.508934
0.426736
-0.0142069
-0.120748
-0.188852
0.270653
-0.730743
1.00234
0.0231788
0.452986
-0.363218
-0.670335
1.4651
-0.0229852
1.09399
-0.189498
-0.230683
-0.441394
0.909143
-0.386102
1.50712
-1.12101
-1.48436
-0.204733
-0.890818
1.30868
-0.417857
0.255145
0.0312495
0.580251
-0.118097
-0.0383725
-0.443701
0.482073
-1.52222
0.496521
0.23947
-0.255761
0.874724
-2.47935
0.425406
-2.21843
-0.52361
1.37281
-0.568202
0.93849
-0.488201
0.0247606
-1.16609
1.32518
0.00262051
-0.293062
0.195757
-0.938966
-0.196294
-1.08739
1.28368
-0.0628542
-1.26516
2.66627
-1.7032
-0.96307
-0.419489
0.128868
0.413256
0.0420315
-0.455287
-1.45017
0.285285
0.366224
0.022809
-0.0109483
-0.246191
0.257139
0.551359
-1.44218
0.156452
0.8049
0.0975867
-0.902487
-1.66927
1.28317
0.274493
0.0727825
-0.347275
2.55515
-4.34245
-0.27184
-0.000841896
0.272681
0.354061
-0.0795684
0.0185983
1.32528
-0.973161
1.08205
0.916634
-0.480495
-1.63936
0.512589
-1.21112
1.00408
0.207041
0.788626
-1.70447
-0.893795
-0.574358
1.46815
0.130727
0.696084
-0.550249
0.462196
1.94943
-0.243512
-1.70592
-0.0129139
-1.73793
0.544405
0.141104
0.778665
0.919018
-0.299692
-0.00321778
0.280446
-0.521938
-0.60389
0.0570362
-0.0975506
0.0405144
0.0670436
-1.20907
1.14202
-0.128865
0.556188
-0.427323
-0.156799
-1.67817
1.83497
-0.139783
-0.987965
-0.0504935
-0.041292
1.19516
-0.607723
-0.370762
0.978485
-0.659028
-0.753485
0.815696
-0.46387
-0.0444789
0.192709
-0.14823
-1.40462
0.977383
-1.52839
-0.216523
-0.106883
0.323406
0.190394
0.540084
-0.730478
0.927131
-0.581248
-0.345883
0.0953923
-1.01917
0.274072
-2.13608
-1.05098
-0.767194
1.81817
-1.69386
0.0756999
1.61816
-2.41142
-1.41467
0.0480455
-0.513401
0.520228
-0.00682762
-1.78543
-0.642662
2.08282
0.683022
-0.356013
0.153935
-0.595328
-0.307398
0.852908
0.280043
0.191051
-0.714574
0.0313605
-0.250323
0.218963
-0.340617
0.0553581
-0.174854
0.203674
-0.468314
0.923012
-4.23054
1.78869
2.44185
-1.70235
0.858956
0.998574
0.382919
-0.0193621
-0.61407
0.379267
-0.852658
-0.493054
-0.987725
0.366308
0.621417
-0.0664432
0.274967
-0.208524
-0.713276
0.891581
-0.170786
1.29956
1.51751
-0.962802
1.01286
-1.67189
0.79492
-0.995263
0.200343
0.213037
-0.0120031
-0.050947
0.0220921
-1.96372
1.14946
2.00538
0.891279
0.0281495
-0.363369
0.33522
-2.46664
0.925266
0.258042
-0.333029
-0.351583
-0.0276881
-0.404771
0.43246
-1.0167
0.408977
-1.85644
1.65005
1.49219
-0.834828
-0.377317
0.34205
0.0352672
0.341893
-0.0313227
-0.282788
-1.94942
1.11999
0.829424
-0.269815
0.239594
-0.114284
0.564994
-0.45071
0.935807
0.940989
0.0819964
0.110259
-0.192256
-0.479712
0.50289
0.0586956
0.0454815
1.0831
-2.05866
1.83666
0.110015
0.485029
-1.55865
1.68246
-0.0689812
-1.61348
-0.0183629
-0.331448
0.349811
0.903089
-1.76029
-0.11477
1.51856
-1.40379
-0.00404197
-0.0417843
0.0458263
-1.03746
1.03322
0.00424394
-0.590747
1.14279
-0.562827
1.7516
2.92225
-0.821333
-2.10092
0.014979
0.368325
-0.383304
0.00613043
-0.56768
-0.0393448
-0.555789
-0.0118914
0.104289
-0.582251
0.477962
-0.146774
1.66413
-1.51736
-1.63537
0.632713
1.00266
0.527755
1.59659
0.0574886
0.0978526
-0.155341
0.993335
0.462241
-1.45558
-0.102853
0.170944
-0.575433
1.6166
-1.04117
-1.42547
0.149401
1.16668
0.520098
-1.41389
-0.000823796
-0.193473
0.194296
1.60606
-0.333673
-1.27239
0.505802
0.390806
-1.85515
0.936859
1.74758
-1.89521
-0.898385
0.165819
0.732566
-0.0636946
0.109135
0.148504
-0.257639
-0.350676
0.00999878
0.340678
-0.0142912
0.217763
-0.203472
0.444082
-0.439889
-0.00419276
-1.01797
2.16434
-0.547789
0.528631
0.275246
-0.38953
0.664073
-0.982617
0.318545
-0.436955
-0.736775
-0.141917
0.086267
-0.00672092
0.00922923
-0.00250831
1.24462
-0.75572
-0.488904
0.171821
1.12258
-0.439419
-0.235206
-1.02691
0.191444
0.544728
0.913997
-1.45872
-0.0145974
-0.0337812
0.0483785
-0.0379027
0.620659
-0.128884
0.105162