/*--------------------------------*- C++ -*----------------------------------*\
| =========                 |                                                 |
| \\      /  F ield         | OpenFOAM: The Open Source CFD Toolbox           |
|  \\    /   O peration     | Version:  2306                                  |
|   \\  /    A nd           | Website:  www.openfoam.com                      |
|    \\/     M anipulation  |                                                 |
\*---------------------------------------------------------------------------*/
FoamFile
{
    version     2.0;
    format      ascii;
    arch        "LSB;label=32;scalar=64";
    class       surfaceScalarField;
    location    "6.2";
    object      phi;
}
// * * * * * * * * * * * * * * * * * * * * * * * * * * * * * * * * * * * * * //

dimensions      [0 3 -1 0 0 0 0];

oriented        oriented;

internalField   nonuniform List<scalar> 
20045
(
0.582989
-0.701658
0.118669
-1.17892
0.547042
0.631881
0.27105
1.96631
-2.23736
0.589407
-0.863004
0.273596
-1.12078
0.948225
0.172551
-0.540935
2.05282
-1.51188
-1.15357
0.176003
0.977568
0.0554803
0.562169
-0.61765
0.580654
0.484546
-1.0652
-0.589832
-0.241895
0.831727
0.367208
-0.451654
0.0844464
1.93341
-1.00714
-0.926269
0.483991
-0.468465
-0.015526
-1.1029
0.888456
0.214444
-0.102583
1.0483
-0.94572
-0.96034
0.370509
-0.0134663
-0.0651494
0.0786156
0.425401
0.87429
-1.29969
-1.54367
2.21765
-0.673985
-0.793131
-0.0787625
0.871893
1.21319
-0.924436
-0.288753
0.179493
0.304498
-0.309268
-0.869655
0.97333
0.312324
-1.28565
0.848943
0.0436797
-0.892623
-0.312339
1.28567
0.139949
-0.150073
0.0101246
-1.18758
2.61222
-1.42464
0.743341
0.506517
-1.24986
-2.89476
2.18825
0.706506
0.792523
-1.21822
0.425697
1.29444
-1.25617
-0.0382653
-0.439664
1.37626
-0.936593
3.33233
-1.90107
-1.43126
-0.711306
0.766786
1.78561
-0.875032
-0.910582
1.16132
0.479242
-1.64056
-0.0794494
0.488611
-0.409162
-2.69758
1.60492
1.09267
0.694113
0.598415
-1.29253
-0.0124353
0.643707
-0.631271
0.209247
-0.295594
0.0863467
2.53143
-2.52106
-0.0103698
1.3447
-0.388493
-0.956204
0.537215
0.807481
0.929407
1.00401
-0.40713
0.385923
0.0212066
1.01904
0.116389
-1.13543
1.76374
-0.602424
0.256636
1.73446
-1.9911
1.33234
-2.1998
0.867464
2.43278
-1.59293
-0.839852
-0.674103
-0.829929
1.50403
-0.111309
-0.380711
0.492021
-1.01997
1.36263
-0.342663
-0.817237
-0.30354
0.330744
1.12668
-1.45743
1.92167
0.547674
-2.46935
1.20886
-1.64853
1.87332
-1.51913
-0.354183
0.41204
-0.388491
-0.0235484
0.488032
1.38528
0.172025
-1.51345
1.34143
0.69841
0.514779
-0.997581
0.00967877
0.987902
1.26821
0.535065
-1.80327
-0.262173
0.79332
-0.531147
-0.709162
0.0264666
0.682696
1.01656
-0.435902
1.48455
-1.52213
0.0375828
-0.644532
0.382359
-1.36313
0.343159
-0.316147
-1.14244
1.45859
0.090229
-0.0609324
-0.0292966
1.45557
0.0205195
-1.47609
1.329
-0.998254
-0.356116
1.81169
0.758424
-0.861007
0.341666
-0.455264
0.113598
-0.672168
-1.70545
2.37762
0.892618
0.972162
-1.86478
0.862565
-0.833521
-0.0290433
1.13671
-0.964687
-2.36436
0.312175
2.05218
-0.0405146
0.623504
-0.254619
0.450788
-0.19617
-0.327445
-0.783254
1.1107
-1.58313
0.0337775
1.54936
0.931543
0.340021
-1.27156
-0.816255
0.604919
0.211336
-1.4988
0.31596
1.18284
0.935177
-0.224712
-0.710465
0.47423
-0.736036
0.261807
-0.320232
-0.780649
1.10088
0.720501
-0.776908
0.0564073
1.24573
0.097823
-1.34355
0.144364
-0.00441531
-0.0396632
-0.651956
0.691619
1.40896
-0.714852
-0.0144816
-0.00957272
0.0240543
1.21874
0.56687
-0.449495
-0.653405
-0.889596
0.849933
-0.705165
2.62684
0.157425
-0.412043
-0.0597049
0.0452233
0.359158
1.29059
-1.64974
1.09221
-2.51552
1.4233
-0.0654641
-0.602041
0.511786
0.0902556
-0.322376
0.410498
-0.0881219
1.20372
-1.26288
0.0591548
-0.617347
0.506038
1.66815
-2.49615
0.827995
-0.320266
0.436286
-0.11602
0.0635379
-0.392703
0.329165
1.00905
-0.160108
2.42263
0.909703
-1.32922
1.01307
1.12741
-1.89357
0.766165
-0.862326
1.28773
0.0259446
0.386095
-0.954032
0.771419
0.182613
-1.60537
0.140204
-0.735214
0.595009
1.52885
0.903929
1.16034
-1.62983
0.469493
1.55911
0.152004
-1.71112
-3.00127
2.13973
0.861548
-0.245661
1.09797
-0.85231
2.4517
-0.922849
0.373368
0.012555
0.113259
0.0239709
-0.13723
0.0511672
-0.0625297
0.0113625
1.15708
0.786026
-1.9431
1.24765
-1.03522
-0.212425
-0.249998
-0.0141578
0.264156
-0.432428
-0.169614
2.08289
-0.955484
-0.821214
0.838528
-0.0173138
1.01769
-2.07585
1.05817
0.475124
-1.14923
0.652087
0.731222
-1.38331
2.3113
-2.98347
2.26913
-0.285435
-1.9837
0.726428
-1.57745
0.851026
1.44528
-0.721854
-0.72343
-0.297932
0.258367
0.0395653
-0.165026
2.07557
-1.91055
1.50606
-0.762715
-1.64004
0.0383548
1.60169
-1.23084
0.86288
0.367958
1.68747
-0.794853
0.152889
0.709676
-1.24321
1.43548
-0.19227
-1.68875
1.9598
0.020702
-0.515375
0.494673
0.00991215
-0.111521
0.101609
-0.0492934
-0.461304
0.510598
1.12976
0.373886
-1.50365
2.60303
-1.29637
-1.30665
-0.554902
0.505608
1.40111
-1.29887
-0.102239
0.252162
-0.0429148
-2.29809
-0.82874
1.14611
-0.317368
-1.14437
0.898795
0.245577
-0.00944109
-0.16506
0.174501
0.89902
0.546265
-0.00590018
0.0570674
-0.124839
0.238099
-1.29889
0.0556819
-1.50114
1.84925
-0.348115
-1.53375
1.55355
-0.019799
-0.931801
-0.733869
1.66567
-0.986466
0.19174
0.794725
0.673426
-0.779003
0.105577
1.83682
-0.0439751
-1.79284
-0.0681667
-1.48967
1.55783
-0.925503
1.57759
0.428926
-1.26416
0.835236
-0.89037
2.55852
-1.5782
1.25607
0.322132
-0.232275
0.258428
-0.0261523
1.02568
-2.19933
1.17364
-2.06129
0.87371
-0.723446
-1.60312
2.75568
-1.97376
-0.781922
-0.781449
0.769014
0.38917
-0.414612
0.0254423
-1.23447
-0.564523
1.79899
-1.88072
2.6946
-0.81388
2.55499
-2.19159
-0.363398
-0.106959
-0.309075
0.416034
-1.27713
-1.06348
2.3406
0.345394
0.0218139
1.00483
-1.25049
-1.39929
-0.432148
1.83144
0.27256
0.0698405
-0.342401
0.187216
-1.01596
1.08438
-0.291856
1.63871
-0.0795966
-0.395357
0.315908
-0.45482
0.568665
-0.113845
-0.646983
1.77674
-2.56744
1.29031
1.31608
-1.30737
-0.00870689
-1.5633
0.375644
1.18766
0.536481
2.0185
2.3386
-1.31291
1.95036
-2.93962
0.989269
1.20414
-1.14433
-0.0598123
0.187321
-0.980452
-1.06345
1.42261
1.21033
-1.75127
0.0188441
-2.59286
2.57402
-3.04128
1.2575
1.78378
-0.201315
-0.61494
0.412215
0.385226
-0.79744
1.22559
-0.467934
-0.75766
-0.023039
-1.43905
1.27402
-0.610718
-0.210496
1.20374
1.39008
-1.24508
-0.144992
-0.0286727
-0.341145
0.369818
1.19759
0.216153
-1.41374
0.193123
0.234774
-0.427897
-0.767878
3.16744
-2.39956
-1.53498
1.20753
1.30971
-0.880782
-0.312027
1.00229
-0.690268
1.7517
-0.734015
0.28242
-0.0205344
-0.261886
0.812156
0.220317
-1.03247
-0.316272
0.328234
-0.0119627
2.89291
-2.00683
-0.886073
0.563987
-2.44471
-0.349112
0.0328403
-1.63647
0.371252
1.26522
2.27028
-0.894028
0.446962
-1.9481
3.30885
-1.61644
-1.69241
-0.0394816
0.312042
2.22958
-1.6362
-0.593376
-1.22833
0.147109
1.08122
-1.87793
1.82052
0.0574161
1.41657
-1.89634
0.479763
-0.0926292
0.0253647
0.0672645
-0.960136
1.12936
-0.169223
-0.249399
-0.319296
0.568696
-0.405627
0.085361
-0.38664
0.0642639
-1.17391
-1.3416
1.14173
-3.40452
2.26278
1.13982
-0.225142
-0.914682
1.11463
0.17981
2.07194
-2.0531
-0.629611
0.639523
1.06651
1.20378
-1.12088
0.207498
0.913385
1.32709
0.90249
0.975177
0.0731257
0.55038
0.589444
-0.689049
-0.114674
0.803722
0.0101985
-0.242474
-2.92656
2.15869
-0.345786
1.07048
-0.724691
-1.9486
1.87841
0.0701913
0.689802
-0.00542001
-0.684382
-0.190614
-0.356502
0.547115
1.49018
-1.70514
0.214962
-1.4274
-1.61388
2.02794
-1.38704
-0.6409
-0.267528
0.238855
2.0307
-0.614124
-2.0808
3.22254
2.04429
-0.690701
-1.35358
2.54585
-1.09378
-1.45207
1.62862
-0.647338
-0.981284
1.34862
0.695662
1.85056
-1.1292
-0.721359
-0.457745
1.67444
-1.2167
0.82763
-1.2392
0.411565
0.316588
-0.361583
0.0449947
0.0274304
0.0153871
-0.0428175
2.27983
-1.98127
-0.298561
-1.70069
-1.30058
1.01187
0.378206
-1.77731
-0.171291
-0.285197
1.09735
0.919077
-1.75641
0.837333
0.00678679
0.382383
-1.06347
2.22055
0.958252
1.93466
3.07891
-2.12205
-0.95686
-1.7642
1.33205
1.18668
-1.93151
0.744833
-1.23769
-0.199142
1.43683
-0.789711
-0.307578
1.09729
1.08803
0.313076
1.71497
-0.39889
0.906768
-0.419152
-0.837021
-1.19004
1.89129
-0.701247
-0.543763
0.088943
-0.565191
0.253165
0.174171
-2.0521
-0.155803
-1.37917
0.529275
-0.392921
0.512872
-0.119952
-0.0939167
0.683324
-0.844831
0.550312
0.294519
1.04055
0.16317
-0.634967
0.285287
0.34968
0.883102
0.364546
-0.789471
1.70855
1.18092
-0.249378
-0.537454
-1.02585
4.1413
-2.92443
-1.21687
1.74745
-2.01716
1.16098
0.856186
1.57126
-1.78145
0.210185
-1.01807
0.697834
-0.327026
0.0770281
-0.60794
-0.89086
0.7786
-1.25337
0.474767
0.888682
0.961882
1.01845
-1.82139
0.802945
0.679157
-1.25468
0.575522
-1.9508
0.36767
0.0783054
0.856872
-1.3224
1.28388
0.0385127
-0.380751
0.675231
-0.294481
-1.21951
0.0659348
-0.293028
-0.566151
0.859179
0.285538
0.000343613
-0.285881
-0.661229
-0.56961
0.642173
0.933403
-1.57558
2.02139
-0.6943
1.21474
-0.902423
-0.115643
1.13748
-0.458318
-1.44201
-0.136191
-0.182444
0.168161
0.0142831
1.34941
-0.330368
-1.12564
1.65208
-0.526435
-0.319294
0.387961
-0.0686662
1.14996
0.0756393
-1.11973
-0.636677
-1.16448
1.97
-0.805526
0.95621
-1.78767
0.831461
0.867184
1.16075
-0.148013
0.152529
-0.00451638
0.291238
-1.52892
1.1389
-1.73994
0.601038
0.0491249
0.0411041
-0.264456
1.4248
-1.45978
1.30398
0.0629796
1.14116
0.330596
-1.87427
-1.27406
1.064
0.210057
1.41519
-0.372903
-1.04229
1.91943
-0.429245
-1.63726
-0.915875
-0.778505
1.07208
-0.446801
0.313016
0.133785
0.682512
-0.761275
-1.65353
1.38908
1.9604
0.571037
-1.72223
0.596588
1.38333
-0.371465
0.550279
-0.380815
-0.169464
-0.0194571
-1.08739
1.10685
-1.792
0.310693
1.48131
1.61359
-1.61359
-1.22175
1.93192
-0.710168
-0.178895
-0.456072
0.948726
-0.499221
-0.449505
-2.01218
2.10135
-0.0891631
0.820778
-0.0643692
-0.756408
0.639374
-0.179297
-0.460077
0.329415
-0.520028
-0.0734328
1.36325
-3.44405
-1.56934
1.86583
-0.296492
-0.624454
1.26663
0.0303052
0.00765567
-0.0379609
0.195071
0.6779
-0.872971
-0.791431
0.978752
2.69392
-1.81281
-0.881117
-0.252627
-0.95734
1.20997
-0.596607
0.623533
-0.0269264
0.419587
-0.611119
0.191532
-1.9268
0.965306
0.961489
-0.550238
-0.312766
0.498866
0.0514127
-0.0128337
-0.0367938
0.0496276
1.18575
1.09408
0.0401422
-0.00983701
-0.219105
-0.364168
0.583273
-1.11123
1.75113
-0.639903
0.031915
0.430554
-0.462469
0.967147
-0.791143
0.879748
-0.503178
-0.376569
0.179044
-0.959694
0.38738
1.44944
1.02338
0.562162
-1.58554
1.05276
-0.761142
-0.291622
-2.02894
0.388892
-0.59568
0.304148
0.291532
0.571423
1.57149
-2.14291
-1.35389
1.15475
0.133438
-1.8311
1.69766
-0.356346
0.249387
-0.25671
0.282771
-0.0260607
0.105749
-0.794798
-0.032079
0.240364
-0.208285
-1.39444
-0.242033
1.22242
1.48604
-0.756568
-0.729476
-0.367391
0.0480963
0.223221
-1.33557
1.11235
0.458972
0.96059
-1.41956
0.633632
-1.37703
1.61057
-0.233538
-1.50907
1.05132
-0.0652091
-0.0848642
-0.732478
-0.411893
-0.64383
0.134169
0.509661
-1.89169
0.78046
1.24467
-1.4973
0.534452
0.848883
-0.798995
0.74389
0.0551052
-0.0136776
-1.68904
1.70272
0.459049
-0.658729
0.19968
0.638617
-1.75835
-1.32587
-0.207877
-0.783185
0.0740229
0.240688
0.0478263
-0.288515
1.26652
0.0952141
-0.0959873
0.000773183
1.99447
-1.42304
-0.670053
1.68274
-1.01269
0.584737
0.464653
-1.04939
-0.662197
0.305851
-0.583133
-0.0606971
0.661397
0.287328
-0.668058
-1.22551
-0.0832928
-0.099151
1.15662
0.973294
0.207627
-1.69226
1.94889
0.143774
-0.689985
0.546211
-0.186504
-1.64617
1.83267
0.41729
-0.468384
0.0510939
-0.103188
-0.883278
-0.225523
1.05315
1.64532
-0.918889
-0.633442
-0.211389
-0.0533569
-0.911761
0.965118
0.699287
-1.63109
-0.116697
-0.882717
0.999414
0.391451
-1.0014
0.60995
-1.24098
-0.0392177
1.2802
1.14195
-1.02556
0.0209193
0.252064
-0.272983
-0.529084
-0.0675227
0.419556
0.806031
-1.22559
0.331162
-0.403621
0.0724595
1.06003
0.596691
-1.65673
-0.450714
1.69644
0.268269
0.0172684
-1.1427
-1.43468
2.57738
0.894932
1.18796
1.71997
-1.26099
-0.847796
0.554768
0.0324158
-0.00498542
-0.667726
1.85441
0.204972
-1.49108
1.28611
1.58925
-0.220028
-1.36923
-0.764222
1.18598
-0.421755
0.743496
-0.834477
-0.658575
1.49305
0.0626887
-0.0489391
-0.0137496
-0.535987
-0.989758
1.52574
0.900366
-0.705295
0.178798
-0.188239
1.03022
-1.56621
-1.36957
-0.468336
1.83791
-0.00552791
-1.09299
1.09852
0.74212
2.26729
-2.35941
0.0921203
0.461985
-0.154471
-0.307514
-0.0553858
-0.743609
0.491926
0.608956
-0.816846
0.0271347
-1.60122
2.00226
-0.401039
0.714011
-1.0598
-0.168524
2.47983
-1.93654
-0.584528
0.0276798
0.122134
-0.149814
1.0605
-0.0872087
-0.509616
0.555684
-0.0460683
-0.65667
0.407271
-2.58635
1.86291
1.71288
0.339938
-0.134596
0.554183
-0.501556
1.08629
3.16348
-1.80023
-0.519231
0.00961567
-0.310517
-1.34301
0.381885
0.59151
-0.570808
-1.84577
0.0537677
-0.156918
0.510323
-0.0512739
-1.80451
0.925931
0.878574
1.25368
0.230867
0.50536
-0.191541
-0.313819
0.711462
-0.634245
-0.0772171
-1.36742
0.49239
-2.20798
1.0435
-1.02736
0.339322
0.688038
-0.00407522
-0.464579
0.468654
1.9341
-0.0349761
-1.89912
0.469505
0.0324709
-0.501975
-0.32964
-0.624392
0.563358
-0.0891283
-0.180376
0.185589
-0.0052131
0.961826
-0.0667181
-0.895108
0.00389925
-0.184275
1.10276
-1.00494
-0.0640588
-0.36244
0.426499
-2.02031
0.419091
0.00171734
0.0074212
-0.897017
0.678179
0.807865
0.0213799
-0.650991
0.543074
0.429323
-0.972397
-1.10437
0.10679
0.66934
-0.525566
0.531913
-0.468375
0.286548
-0.667299
0.184951
0.387923
-0.572873
1.18989
-0.239484
-0.950403
-1.07512
-0.502329
0.466583
-0.221397
-0.245186
0.563634
-0.647261
0.0836272
2.18323
-0.0659422
-2.11728
0.141572
-0.14536
0.00378879
-1.04951
1.46662
-0.417117
1.14124
1.08003
-2.22127
-0.520299
0.131808
-0.67402
1.01158
-0.337561
0.525779
0.219691
-0.74547
-1.88873
1.26165
0.627078
0.171946
0.0136426
-1.70189
0.332312
0.74585
-0.425193
-0.320657
0.7918
-1.11456
0.32276
-0.27255
-0.429108
0.261522
2.00576
1.66174
-0.337852
-1.32389
-1.57066
0.193627
0.660043
-1.1975
1.76238
-2.8797
1.11732
-0.268407
0.680622
-0.003649
-0.67581
0.456706
-0.37968
0.519884
-0.571345
-2.20529
2.77663
1.66567
0.365025
-1.49012
1.58858
-0.0984569
0.00414508
0.236543
-1.06433
-0.332783
-0.297713
0.335169
-0.0374557
-1.44871
0.768999
0.679709
-0.13868
1.05999
-0.921311
-0.243379
1.03518
-0.879148
-0.381909
1.26106
-1.66692
-0.513713
2.18064
0.817045
-0.755163
-0.0618828
-0.586761
0.0335661
0.553195
-0.00539581
-0.135838
0.141234
-1.85303
0.0756677
1.77736
0.0406356
0.480987
-0.521623
1.52315
-1.69199
0.168843
-0.849176
0.222653
-0.165612
-0.0570414
0.0340403
-0.331753
-1.49788
1.10481
0.393071
1.66148
-2.55185
-1.89286
1.65591
0.236952
0.392835
-0.0616732
2.38828
-2.5568
-0.176089
-0.208826
0.384915
-0.0305724
0.406934
-0.376361
-0.188566
1.40528
-1.21672
1.05627
-0.102097
-0.954168
2.02804
-1.92923
-0.0988057
1.26154
-0.455792
-0.805749
0.0799568
-0.552681
0.472724
-0.69576
-0.0394543
-2.0854
1.80893
0.276467
0.087561
-2.17296
-0.266756
0.656305
-0.38955
-1.0048
-0.976465
0.51389
-0.398257
-0.115632
-1.56731
-0.453001
-0.476656
0.347591
0.129065
0.505407
-0.312284
-1.96478
1.88455
0.0802322
-0.307387
0.00746746
-0.0683998
0.515819
-0.046314
-1.07496
0.114827
0.417115
-0.432693
0.015578
0.266627
-0.927244
0.660617
0.917117
-0.0963391
-0.47608
1.17768
-0.0277263
0.740867
1.46111
-0.730581
-0.730533
-0.2082
0.881626
-1.39813
0.913934
0.4842
0.189386
-0.0174398
2.14496
-0.479285
1.181
-1.19468
-0.272251
-0.346406
0.618657
0.92866
-2.80202
1.87336
1.23143
-1.23696
1.62754
-0.736787
-0.890756
-0.0131736
-1.17885
-0.219287
-0.919054
1.7516
-0.832549
0.0857685
-0.56362
2.51398
-2.08171
0.514403
0.0805024
0.236086
-0.228691
-0.0320251
0.3383
-0.0100657
-0.867075
-0.817875
2.08708
-0.758078
0.510431
0.0482719
-0.558703
0.0828886
0.556485
-1.46584
-1.28001
2.74585
1.20533
-0.117302
-0.0169709
-0.359088
0.376059
1.64303
0.311707
-0.0525434
-0.259164
0.976454
-0.791503
-0.698851
-1.90042
0.331079
-0.534364
0.0335733
0.50079
1.55277
1.75608
-1.15184
0.509448
0.642388
1.92677
0.101266
1.30844
-1.83874
0.530302
-1.61607
0.0213703
1.5947
-1.72045
2.19498
-0.474531
0.358561
-0.018944
-0.339617
-0.896855
2.55833
-0.576581
0.934386
-0.357806
0.0775667
-1.56769
1.64276
-0.920445
-0.722317
-1.79685
2.32764
-0.530798
-0.464915
1.24102
-0.776108
2.32483
-1.02875
-1.29608
0.110254
-1.19726
1.087
0.239373
0.0433981
-0.867385
2.00863
0.68932
-1.91107
1.73744
-0.781227
-0.444365
0.380307
-1.65798
0.0419112
1.89581
-0.877367
0.0551114
-2.41947
0.660329
-0.0166224
1.41547
1.29092
-2.70639
1.10162
-0.376242
-0.725376
0.764349
-1.61729
0.852938
-0.395634
0.020639
0.374995
-0.437431
-1.06618
1.50361
0.776869
-0.49032
-0.358309
1.05063
-0.692321
0.23008
0.37415
-0.60423
0.166495
0.347394
-2.14248
2.52196
-0.379487
0.469702
-0.0524115
0.948
0.490896
-1.4389
0.483314
1.37392
-1.85723
0.463236
0.951954
-0.0690747
2.33821
-0.0337313
1.58859
-1.55485
0.0718893
-0.0399743
-0.0454385
0.0616405
-0.0162021
1.39565
-0.825624
-0.570024
0.771266
0.856277
-0.0612096
0.0681437
-0.0069341
-0.443832
1.51178
-1.06795
-0.0285923
0.448993
-0.420401
0.325884
-2.68746
2.36158
-0.888878
-0.750104
1.63898
1.48692
-0.289331
0.456668
0.64495
0.818016
-0.636712
-0.181304
0.639608
-1.59695
-0.551473
0.342983
0.208491
0.429763
-0.0537781
-0.375985
-0.0368044
0.276177
-0.098024
1.23272
-1.1347
-0.36413
2.09859
1.43524
-1.26026
-0.174981
1.36553
-1.02551
-0.904709
0.396846
0.507863
0.203476
-0.702697
-1.08296
0.509673
0.573287
0.172884
0.332476
0.298461
1.45657
-1.75503
0.582301
0.379525
0.247831
-1.91475
-1.12981
0.261628
0.868182
-0.791544
-0.476772
1.26832
1.13618
-0.593104
-1.67214
1.04769
0.497717
-0.400446
-0.0972704
-1.24377
2.91982
-1.67606
-0.861506
1.04055
-1.28632
1.21107
0.0752507
-1.16819
2.53403
-1.36584
-0.0456943
0.511802
-0.466107
0.521847
-0.525922
-2.26698
-1.33
2.23615
-0.906157
-1.13028
1.50592
0.965281
-1.13619
0.170909
0.206233
-0.825765
0.619531
-2.17323
1.32039
0.85284
-0.0351599
-0.248836
0.283996
-0.38455
1.21466
-1.40323
2.7076
-1.77894
-0.131407
-1.14265
-1.41386
1.38013
0.843713
0.0550823
0.550368
0.219196
-0.769564
-0.776691
0.721497
0.0551932
1.03497
0.00176448
-1.03674
0.698112
0.747197
-1.44531
-0.750382
-0.900806
1.65119
-1.32154
-0.456889
1.77843
0.881896
-0.675662
0.43113
0.964518
-2.16659
1.08576
1.08083
0.889175
-0.903018
0.0138428
0.0148645
0.472835
-0.578061
0.105226
-1.03186
1.44686
-0.748744
0.341591
0.481461
-0.401504
-0.845777
-0.602932
0.434673
0.663298
0.0584219
0.662079
-0.112814
0.395317
-0.282504
-1.48142
-1.12968
2.6111
0.669708
0.148308
-0.955761
-0.112597
1.06836
0.201001
0.52424
-0.725241
0.00147907
2.22152
-1.43735
-0.784166
0.412849
1.24889
0.165378
0.127111
1.40699
-1.53411
-0.947179
1.51976
-0.572578
-1.05199
-0.431531
1.48352
-1.04073
0.366706
-0.574881
-0.329828
1.89777
-0.930254
-0.967516
-0.3797
-0.51119
0.89089
0.568167
0.246503
-0.81467
-0.420371
0.461007
-0.195486
-0.258265
0.45375
0.664033
-0.0647072
-0.490194
-0.0180963
1.02808
0.869686
-0.618693
2.22361
-0.438145
2.6264
-0.772323
0.392622
-1.5645
0.512513
1.52355
-1.23231
-0.310161
-1.38603
0.336523
0.26791
-0.534666
1.26535
-1.28481
1.68308
-0.111823
-0.426599
-0.309438
-0.273677
-0.201901
0.475578
-0.693381
-0.0835269
1.55396
0.280658
-1.83462
-0.102781
-0.503264
0.606046
-0.319174
1.29104
-2.16267
0.871632
1.62231
-0.0991621
-2.7304
3.20608
-0.475676
0.428028
-0.401562
-1.75395
-0.41928
-0.449766
1.84118
-0.032252
1.91971
1.96424
-0.758641
-1.2056
-1.14054
-0.0982164
1.23876
0.459355
0.8416
-1.30095
-1.43826
0.197278
-0.395738
-0.0660354
0.461774
-0.961475
1.16645
0.377685
0.899065
-1.27675
-0.010616
0.227994
-0.217378
-1.74444
0.203931
1.54051
0.679687
2.02791
-0.616236
0.923643
0.337898
-0.337886
-0.257795
1.92381
-2.20925
-0.99758
0.522697
0.474883
-0.14238
-0.37792
1.35103
0.0142123
-1.36524
2.09685
-2.535
-0.00323472
-0.0893945
-0.886819
0.900793
-0.0139736
-0.0518954
-1.44599
-0.067063
0.67471
-0.607648
-0.0969792
-0.244936
0.341916
0.786374
-0.889562
-0.601996
1.26204
-0.487849
-0.539511
-0.369728
0.403769
0.292081
-0.0573061
-0.0396506
0.0650153
-0.459723
0.437462
0.0222619
0.48738
-0.537091
0.0497101
-1.23022
1.25074
0.173212
-1.12897
-0.109041
-0.672409
-0.125683
1.19051
-1.06483
0.740147
-0.854821
0.131643
-1.3951
1.26346
0.0511011
2.39447
-2.44557
0.649804
-1.83984
1.47573
-0.0435082
-1.84935
0.673762
1.41331
-1.39498
-0.27716
-0.916151
-1.10101
-0.956082
0.389931
-0.0271835
-0.000699074
0.0278825
2.98566
-1.43289
1.48531
-0.346412
-0.507634
-0.373507
0.881141
-2.12847
1.03596
1.09251
-0.0837003
-0.367954
0.418385
-0.195732
0.384993
-0.2055
0.0530896
0.204238
-0.780819
-0.335143
-0.126805
0.461948
-0.24607
1.80003
0.954636
-0.465042
-0.489593
1.7996
-2.25916
1.02371
1.23544
0.297338
0.639632
-0.93697
0.0279673
0.234527
-0.262494
-1.17096
0.706042
1.01451
-0.141504
0.709671
1.76133
-1.94784
0.932527
-0.406748
-0.688724
1.32833
-1.5901
1.13776
0.452341
0.314324
-2.83791
2.52358
-1.30437
1.48455
-0.18018
0.636464
-0.844664
0.0288878
0.271619
0.545427
1.22524
-2.93069
1.37194
-4.07986
2.49314
1.58672
0.444058
-1.5846
1.22323
0.028094
-1.25643
0.25399
0.886193
2.0792
-0.754534
-1.32466
-0.488839
0.508944
-1.30049
0.388523
-1.7636
1.66538
-1.34422
0.50974
0.887778
-0.934908
0.233449
0.701459
-2.17169
1.19511
0.976573
-0.912417
-0.421795
0.813246
-2.01425
1.43612
0.578134
1.67145
-2.56831
-2.14192
-0.000560177
2.89222
-1.12984
1.03313
-0.703213
-0.32992
-0.055611
-0.345916
0.401527
0.276548
0.771596
1.01575
-0.291843
-0.643064
0.219008
0.557861
0.318699
0.810099
-1.1288
0.875213
-0.489988
-0.0625331
-1.86707
1.92961
-0.688722
0.462123
-1.38763
-1.26728
-0.898081
2.16536
0.533653
-0.758365
-1.46539
0.456246
1.00915
-0.0690447
0.0556871
0.0133576
2.0583
-2.62964
-0.227161
-0.659658
2.76948
-0.629178
-2.1403
0.195228
0.315203
-1.70549
0.504032
1.20146
-1.74602
0.85714
0.611663
-1.55884
-0.497669
-0.499911
-0.033628
-0.0354167
-0.0727164
1.66197
-1.12943
1.53697
-0.407539
1.51528
0.00452547
-1.5198
-1.00644
-0.0119312
-0.380989
0.0969895
1.51661
0.31984
0.0681208
0.587904
-0.64996
0.471065
0.99141
1.18762
-0.152644
-1.83832
-0.126459
-1.56604
0.331342
-1.96754
0.403842
0.413178
-0.81702
1.75698
0.10627
-1.86325
-0.269346
0.250402
-0.752286
-1.4557
-1.48862
-0.292826
-0.605582
2.70243
-0.672131
1.01363
-0.341503
-2.09428
0.612861
-0.673366
0.992065
-0.909026
-0.89548
-0.822222
-0.435242
0.540819
0.949932
-0.683305
2.12315
-0.281963
0.568639
0.373127
-0.941766
0.212627
0.789667
0.607004
1.97566
-1.84222
-0.155603
-0.478025
0.739832
-0.895895
1.10339
-1.00919
-2.24474
0.495627
0.380063
-0.87569
-1.65457
0.0409719
-0.325996
1.55999
-1.23399
0.0113817
-2.74179
-1.21283
1.42899
2.56475
-1.22703
-1.33772
-0.121721
0.425869
1.41768
-0.476664
-0.941018
0.590883
-0.65559
0.0797045
-0.125143
-0.222271
-0.105705
0.327977
-0.204674
0.755042
-0.974333
2.64578
0.0103171
-0.408574
-0.556268
-0.254403
0.810671
-0.22721
2.28551
-0.402409
0.096117
0.306292
-0.803754
1.22331
0.682744
0.82904
-0.995901
-0.133909
1.1619
-0.443314
-0.718591
0.0549837
-0.156611
0.101628
0.2254
-1.33754
1.11214
-1.80388
0.315264
0.477442
-1.62739
1.95873
-0.0226378
0.613521
0.348912
-1.02104
-1.60468
0.826173
-1.86634
0.569962
-0.994287
0.202855
-0.62884
-1.17086
1.7997
-1.79004
-0.0967811
0.0961784
0.000602664
1.77193
-1.45976
1.38259
-0.923237
0.155571
1.08461
-1.24019
0.178614
-0.574352
-1.00817
-0.789539
1.79771
-1.45715
0.833232
0.623916
-1.79432
2.24539
-0.451075
1.43458
-1.2796
-0.154986
1.16986
0.0561721
-1.22603
-0.913757
-1.3454
-0.618469
-0.164716
1.0405
1.41119
-0.0112253
0.247656
-0.23643
-1.34013
-0.365362
1.164
1.05365
-1.07094
1.35978
-0.288841
0.229067
-0.28161
0.0242759
0.392412
-0.416688
0.391231
0.563405
-0.196225
-1.81803
-2.24608
0.490273
0.00744378
0.533209
0.551169
0.182263
1.34459
-1.52686
-0.979454
-0.0955087
0.822921
1.19847
0.152286
-0.584714
-0.430506
0.234537
0.195969
0.0298788
-0.73093
0.701052
0.404144
-0.409564
1.01576
1.73755
-0.848865
1.46707
-1.00495
-0.275951
-0.534873
0.810825
1.40803
0.266409
-0.0756872
-1.41824
0.980808
1.29195
-1.51916
-0.680596
-1.23324
1.91383
-1.04129
-1.08718
-1.97
1.97887
-0.00886282
-0.382837
-0.512949
0.311048
1.12595
0.611599
0.889154
-0.801851
-0.0873031
-0.541087
-0.981046
-0.657243
-1.04532
1.70256
1.12165
0.0836844
-0.304555
-0.246919
1.12159
-1.87387
0.725843
-0.682163
-1.02233
1.55464
-0.532317
0.350639
0.750839
0.782919
-1.53376
1.94684
-1.07667
-0.870172
-1.20573
-1.04876
1.68458
-0.635822
-0.325084
0.893723
-0.639742
0.617105
0.818238
1.50659
-0.483049
0.427438
0.0642205
0.0309936
1.79617
-1.01014
1.18924
1.79642
-0.888088
0.506856
0.381232
0.392225
-0.664477
1.35748
-0.00645311
0.368415
0.664718
-1.18465
-0.165193
1.34984
0.420205
-0.0299978
-0.390207
0.391803
0.0701822
0.243081
-1.96353
-0.625098
0.730847
1.22825
-1.17548
-0.0527678
0.372228
0.789676
-0.356875
0.165334
0.622025
0.441111
-1.06314
-0.618271
1.82713
0.391255
-0.822893
1.81374
-0.990849
-0.34895
0.57903
-0.195361
0.184745
2.07264
-1.08327
-0.694043
-0.326662
0.35463
0.675116
-0.784157
-0.39797
0.352276
-0.583247
-0.335803
-0.0315878
0.895212
-0.378627
1.54896
-1.17034
-0.024741
0.0119072
-0.412869
0.204043
-0.735004
0.116535
-2.54306
1.40036
0.558091
0.453489
1.26379
-0.176918
-1.08688
0.237417
0.213371
1.38666
0.901389
-2.28805
-0.284047
-0.0135159
0.297563
0.726119
-1.39617
1.80257
0.762187
1.46825
-1.28599
-1.71649
0.0582788
0.134688
-1.22063
0.816984
0.551863
0.851127
-1.40299
0.885795
-0.145648
-0.0430194
-0.630977
-0.257111
-1.15196
-0.597642
0.801117
1.21168
0.471059
1.00796
-0.956153
-0.0518072
0.424416
0.0130459
-0.133769
0.553019
-0.065639
1.42555
0.325013
-1.75056
0.122276
-0.45742
-0.509831
0.318179
0.191653
-0.739982
-0.0260818
0.766064
0.368637
1.09612
-1.46476
0.442365
0.693813
1.23984
-0.0333732
-0.583974
-0.00374532
-0.646215
-0.220796
0.431044
-0.210247
-2.44931
0.846191
1.58528
-1.20947
-0.375805
0.0349225
-0.328968
0.294045
1.53316
-1.63118
0.660579
0.461071
0.706203
0.676389
-0.336383
0.000580044
-0.184827
0.404032
-0.219204
-0.890106
-0.28988
1.99881
-1.02687
-0.971933
0.383725
-0.0480533
-0.335671
0.909532
-1.44726
0.537725
0.243082
1.03277
0.104704
1.35892
-0.0254799
-1.33344
0.191813
-0.37664
-1.34367
-0.903926
0.438884
1.48115
0.0106561
-1.4918
-2.37314
-0.32873
0.215916
0.0822132
-0.0140695
0.765328
0.135464
-1.27489
1.13621
0.0033484
0.179569
-0.0794776
0.236902
-0.818463
0.974035
0.0119335
0.579576
-0.11749
-0.149146
1.26377
0.000559181
1.0074
-0.489918
-0.295272
-0.433569
1.05559
-0.206853
1.52109
-1.31424
-1.45352
-0.248369
-0.407501
2.83738
-2.42988
-0.54015
-0.363776
0.683803
-0.121634
-0.0349784
-0.533048
0.568026
-1.6129
0.529635
0.338607
-0.317688
1.52228
-2.98812
1.37925
-2.81393
-0.760134
1.07246
-0.878938
1.0798
-0.638692
0.0213202
-1.03276
1.25816
0.00249827
-0.343643
0.0862609
-0.841424
-0.290987
-1.07702
1.36801
1.05333
2.43938
2.84662
-1.86728
-0.979336
-0.460455
0.193416
0.495981
0.0444875
-0.540468
-1.5143
0.384862
0.457025
-0.0272615
-0.00894193
-0.302205
0.311147
2.23775
-2.64525
0.189512
0.835636
0.176295
-1.01193
-1.71144
1.50459
0.324372
0.0828821
-0.407254
0.954169
-2.28417
-0.332736
0.00605862
0.326677
0.418204
-0.0938312
0.0128021
1.40345
-0.940215
1.06043
1.05386
-0.611491
-1.79878
0.531504
-1.17704
1.07625
0.100788
1.20529
-1.88589
-1.01919
-0.569844
1.58903
-0.0436675
0.906547
-0.642039
0.57767
1.90306
-0.266754
-1.63631
-0.0110287
-1.82729
1.08623
0.0836318
0.958161
0.45952
-0.361922
0.00283414
0.336748
-0.477321
-0.776046
-0.0309091
-0.0746911
0.1056
0.0160432
-1.20042
1.18438
-0.228785
0.755284
-0.526499
1.44819
-2.85632
1.40813
-0.0173691
-1.01785
-0.048097
-0.126896
1.19755
-0.718335
-0.379839
1.09817
-0.793172
-0.601267
0.93201
-0.551947
0.00979784
-0.455
0.445202
1.44632
-0.182527
-1.66541
-0.167504
-0.214496
0.382
0.579076
0.305611
-0.884688
0.432113
-1.43159
0.999472
0.230555
-1.10021
0.298377
-2.09522
-1.07506
-1.14008
2.21514
-1.68302
0.0604231
1.6226
-1.88722
-1.44235
0.137987
-0.64979
0.63702
0.0127705
-2.57934
-0.58879
2.01434
0.81091
-0.381587
0.233676
-0.667245
-0.294723
0.988536
0.333361
0.25895
-0.815219
0.0363331
-0.30898
0.272647
-0.214111
-0.0838213
-0.212854
0.247777
-0.688982
0.98632
-2.31042
1.29741
1.01302
1.24512
0.469844
0.782829
0.464709
-0.044504
0.295407
0.593747
-0.9437
-0.521695
-1.10642
0.357868
0.748555
0.0819955
-0.296159
0.214163
-0.931865
0.961743
-0.230236
1.41789
-0.412718
0.010309
0.816294
-1.60947
0.79525
-0.894793
0.0995434
0.289683
-0.0376189
0.158396
-0.0058663
-1.7915
1.16266
-0.0459993
0.429724
0.0282855
-0.425477
0.397191
-2.69019
1.00144
-0.790583
1.0109
-0.405178
-0.0307129
-0.470052
0.500765
-1.13703
0.418699
-1.93214
1.73591
2.77224
-0.0027661
-0.510733
0.47183
0.0389033
0.160671
-0.038537
-0.341678
-1.76944
0.922998
0.846441
-0.332095
0.31858
-0.121441
0.761545
-0.640104
0.985771
-0.325192
0.0603292
0.0765354
-0.136865
-0.597331
0.609265
0.025688
0.0234369
1.15248
-2.26197
1.82547
0.101307
-1.16813
0.384872
1.66479
-0.0946471
-1.57015
0.0827665
0.820688
-0.903455
0.778184
-1.64526
1.06486
-2.03995
0.975081
-0.00171787
-0.0163513
0.0180692
-1.64906
1.72295
-0.0738861
-0.855294
0.986937
1.15162
-0.0953597
2.38752
-0.955833
-1.43168
-0.194441
-0.494981
0.689422
-0.335638
-0.666828
-0.0289315
-0.638085
-0.0287433
0.215814
-0.584194
0.36838
-0.178749
1.68679
-1.50804
-1.49224
0.352483
1.13976
0.48356
1.45054
0.0189438
0.200952
-0.219895
1.09837
0.480503
-1.57888
-0.0416434
0.01446
-0.601287
1.44952
-0.848232
-1.35433
0.169684
1.10592
0.511165
-1.53035
-0.00208693
-0.235241
0.237327
1.76381
-0.547397
-1.21641
0.759002
0.476823
-1.74343
0.925553
1.63444
-1.69698
-0.886234
0.0644946
0.821739
0.059997
-0.162404
-0.0790714
0.241475
-0.13327
-0.0360857
0.169356
-0.0156737
0.267826
-0.252152
-0.763771
0.781705
-0.0179345
-1.09327
2.21486
-0.630493
0.577136
0.46635
-0.58779
0.667835
-1.11167
0.443838
-0.844763
-0.745341
-0.0491203
0.0437245
-0.165076
-0.00643436
0.171511
1.70514
-0.92859
-0.776549
0.0792022
1.14905
-0.500412
-0.276278
-1.15797
0.246206
1.0008
0.59811
-1.59891
-0.0187094
-0.0246328
0.0433422
-0.0213011
0.732763
0.435792
-0.0349457
-0.400846
2.4169
-1.84419
-0.57271
-2.78249
0.577202
0.0401911