/*--------------------------------*- C++ -*----------------------------------*\
| =========                 |                                                 |
| \\      /  F ield         | OpenFOAM: The Open Source CFD Toolbox           |
|  \\    /   O peration     | Version:  2306                                  |
|   \\  /    A nd           | Website:  www.openfoam.com                      |
|    \\/     M anipulation  |                                                 |
\*---------------------------------------------------------------------------*/
FoamFile
{
    version     2.0;
    format      ascii;
    arch        "LSB;label=32;scalar=64";
    class       volScalarField;
    location    "1.4";
    object      p;
}
// * * * * * * * * * * * * * * * * * * * * * * * * * * * * * * * * * * * * * //

dimensions      [0 2 -2 0 0 0 0];

internalField   nonuniform List<scalar> 
13486
(
8.71982
6.86195
0.619875
-1.85452
2.74379
-0.99377
1.14067
4.926
5.91642
2.54869
-6.00622
1.35562
9.23832
-1.62349
2.16308
2.93609
-31.0345
-1.36134
1.90466
7.82389
-1.59167
9.12444
6.6858
-3.24511
2.5031
-3.09634
-4.69723
-2.23966
-0.0307704
-1.78487
-1.2048
1.38391
-4.35399
-1.37655
4.93919
0.0725238
0.12561
7.16388
-0.042718
5.88852
0.694842
9.60445
0.0327317
2.46365
2.28061
1.30781
-50.889
-0.0499984
0.0864361
-2.64547
4.7562
-0.165332
0.74676
7.25907
-1.3462
3.02841
0.320336
-0.178859
-4.2334
0.183276
-4.51809
0.227539
-12.4178
-1.51387
-1.89544
0.138788
-2.00091
8.72125
5.8705
-0.0300267
-2.01506
-1.40407
5.89811
-22.4506
0.138866
0.261544
0.118333
2.11697
-43.285
-0.357659
0.022882
6.89552
-13.767
0.611553
8.76375
2.77877
0.204739
4.44839
5.5326
2.93393
0.530022
4.26521
8.3788
7.39946
6.1493
0.0518592
-4.12891
-2.03677
5.78556
-30.9131
0.0126245
-1.32453
-2.03166
-0.19371
3.48229
-32.0434
5.69698
-0.0916717
-47.6126
3.86015
5.69762
1.14235
7.2574
0.221589
10.289
5.96518
2.50499
-1.25241
5.95326
0.0949728
-1.59903
-4.33472
6.4321
-0.0832811
5.66206
-0.167252
4.13702
1.04968
-1.07454
-1.67637
-0.182705
-49.8409
-17.7898
-23.3688
5.12706
4.3783
10.4495
4.02758
0.0917932
5.05541
-3.81714
0.647218
1.34831
-0.370381
0.217685
-8.14542
0.439896
6.34316
-2.90067
0.0164938
2.99549
1.99026
-0.0341731
7.04517
1.20815
0.619816
3.16417
-0.196154
6.48909
0.341911
-2.28083
6.48266
-0.451457
9.54363
-0.190928
-2.65217
-0.733951
12.0276
0.464033
-23.8371
-20.4603
1.28479
3.67958
3.0034
0.0445313
-2.34792
-2.58285
-4.58913
5.70407
1.4304
5.50675
0.182239
2.38936
-1.95603
0.704995
-2.25888
0.0069585
-1.71605
0.967686
6.26271
0.105667
0.410211
-0.224281
7.33098
-0.316648
-5.95821
-1.73553
-2.2979
7.91309
-2.31071
-1.24357
0.942788
7.17219
2.19669
0.289796
-0.338064
-0.838917
6.30937
-0.155154
0.75997
-1.86371
-2.28964
7.72281
5.67786
-1.02508
-0.934308
-1.91833
3.09722
7.93812
-8.39966
-32.5636
-2.99223
5.1936
-2.3711
0.24396
8.57058
-2.15878
-1.71162
-0.707
0.212693
5.44596
-1.47439
-3.95636
9.81727
-1.84648
8.21475
-1.49041
0.459574
8.29429
2.46436
-4.15584
3.62015
0.216773
7.85334
0.0293171
6.55975
2.67364
-2.40354
-25.1298
2.86542
-2.28086
10.4127
5.73336
-0.117142
-0.501118
-2.52965
1.27647
-0.90635
-0.010832
-3.82528
6.19224
0.0439429
2.10062
-2.4763
3.17808
-1.93555
-0.732424
-1.35261
5.559
-6.9453
5.51446
5.47077
-1.98169
0.980576
8.58369
-2.28736
-0.503084
-1.14612
-0.113343
0.471984
-1.13975
4.82819
5.72084
-4.79117
-3.67883
-16.118
-3.97516
-1.17921
0.359184
5.5804
-1.82489
0.210153
6.16523
5.14406
-1.42166
-1.61504
-2.22774
1.01125
5.88344
0.919961
-0.617707
-0.933857
0.482896
1.53948
0.0660656
2.25996
-1.34718
2.90417
0.183522
0.102374
-19.2463
-1.82283
-1.53406
1.11167
-6.44308
4.45316
0.235747
5.55638
6.35112
-0.883383
0.126878
0.147499
5.60912
7.44146
10.2876
0.705583
3.67955
4.70289
0.839372
3.376
4.53391
4.02168
0.166553
7.93323
1.07725
5.80686
10.7411
2.14784
3.17044
0.0552375
-0.804509
7.34917
3.22564
2.46135
-2.1573
0.0450821
3.88786
10.3326
-8.33146
0.19101
3.6691
0.849335
0.927166
-3.13571
5.85845
0.106687
-20.3885
4.02023
0.15969
-2.25514
2.00531
0.287768
6.3424
5.48727
-1.87163
-0.00122801
-1.51796
-49.7058
7.89296
4.06525
-0.0295792
3.96661
0.247051
-2.30102
-1.00406
4.89201
5.6273
0.120564
-6.33701
-13.2943
5.45259
3.96362
9.19473
5.87133
-51.8452
-0.542391
0.0824459
3.07264
-33.8646
-1.03271
7.58715
-2.20749
2.11918
8.34641
8.48037
0.087146
-1.91523
-2.2939
-38.0953
-4.00304
-36.1903
0.923441
5.12517
-1.54271
1.30086
-0.00799604
7.27121
-4.31411
4.1894
6.38618
3.04979
-5.06285
-2.40904
5.91107
5.59589
7.05973
-2.05918
3.27293
-26.0713
2.57182
5.71189
0.473297
10.3706
3.36608
-2.25367
-1.64806
0.885701
5.68751
-5.41748
-0.308564
9.01755
5.20506
2.06896
0.3287
2.59886
-2.7018
9.14961
0.155116
3.21192
8.56766
-56.0968
-2.05804
-23.7472
-2.40686
0.269673
6.92935
6.66285
9.07402
-13.5509
0.0671333
-2.20582
3.26884
5.66659
-2.68939
-6.03924
5.45852
-2.2877
-2.34415
-4.68269
-7.74607
-1.05445
7.31079
0.0764816
-0.175161
-1.71535
5.31298
-0.0238864
11.3591
8.49699
5.92535
4.73627
-0.0148405
-0.00864763
10.6657
-0.606896
0.0754682
-2.15181
5.86181
-18.7469
0.967832
3.75152
0.0348061
-3.1258
6.61328
-6.84488
-38.3259
3.41967
-1.08177
11.9811
3.47933
4.88766
6.24315
-2.40539
0.713191
9.4877
2.85139
7.51263
1.12992
1.27569
-1.41583
-0.356547
0.139615
-30.7933
5.78499
5.84356
-2.28022
0.0253281
-1.13086
8.57252
6.94735
-0.527568
5.95114
4.24865
-3.05786
3.22467
4.96518
-23.2488
9.03553
0.137302
0.0334519
9.51552
4.04047
0.113297
3.78597
-1.47573
-2.28559
2.24543
3.68309
6.52331
8.40144
-1.78479
2.5468
-1.81583
0.010972
8.20073
1.32774
-2.02937
-2.05499
0.319038
-0.0161216
4.71819
-1.8423
-5.72678
5.96483
7.83541
-0.374022
6.18301
-9.0196
-2.31285
-7.68462
2.07237
-2.26574
6.37418
0.737648
-4.2467
4.98194
6.89484
-3.67776
-1.79937
4.88922
8.18103
1.36233
8.79276
0.71773
3.53166
1.02757
6.42672
0.167552
7.96274
-3.46678
0.795986
5.64219
-1.01065
-2.20568
5.59598
-55.0708
0.99463
6.48672
9.11242
-1.48657
-0.0166849
1.1178
0.221299
5.20122
3.78086
1.8553
-3.47735
-0.166574
8.70265
0.662073
-0.0680882
-2.87359
9.17839
-1.19929
0.203193
5.36137
4.61022
-0.367794
-1.67528
5.02077
0.785211
0.245357
1.84721
-6.45714
8.86736
5.80791
3.9288
4.07492
-1.47496
-4.07756
9.95078
1.46466
9.99922
-1.664
5.69141
0.0232744
-23.4712
3.52924
2.87658
10.4745
-2.18552
3.78039
3.53
-8.91665
2.69294
-1.10697
-3.20398
5.69337
-1.79631
-2.12583
-2.73786
-1.70805
-1.07091
6.18101
0.0186335
9.73273
5.83786
0.30881
-2.29733
-1.79757
1.60068
-3.79292
-2.04151
-29.5194
8.15724
-0.00592151
0.287421
-2.91029
9.23255
0.0235244
-0.899701
9.5234
4.82384
-2.1447
-0.326031
4.10103
0.207615
5.63075
0.184011
-1.62812
1.76238
5.26242
1.32784
4.79304
9.67606
0.196831
-2.09774
5.48294
0.745387
-1.11339
3.91857
4.03046
2.16346
-2.08426
0.762988
0.0963506
0.86283
8.18387
1.46306
0.77508
0.651193
0.306384
-0.371154
5.61278
0.27132
5.52843
5.49495
7.94666
-2.17408
-5.51936
9.90294
0.0430026
-2.2796
6.09175
-2.8887
6.45531
0.212045
5.45047
-1.53467
-23.3508
-2.71748
0.0612842
-36.5213
2.72151
10.1956
-1.05567
-6.84378
-2.40568
5.78115
-3.973
2.20179
-3.20804
10.0742
-2.08928
2.91289
-2.74309
3.01262
5.62439
1.63369
-12.5588
-1.3981
9.38937
5.55709
2.39871
5.26915
0.0291284
4.53344
4.63687
3.01945
-20.6058
-0.554074
7.2004
1.15734
-0.1603
4.91195
-2.27709
-1.01873
-0.0598639
6.23381
6.03348
-1.94494
0.752625
-2.15003
-1.48178
0.819238
-1.07525
0.300395
5.44019
-0.976168
-6.62101
6.82751
-0.727003
-1.4927
-1.00824
-2.85341
-1.95228
-2.48375
0.0258205
-2.67605
5.61663
9.19918
0.0703493
-1.47514
9.55096
8.91852
-1.44887
-1.74201
6.03529
-54.9663
0.276652
-2.97137
-0.239117
3.23455
-37.3753
2.22333
3.60962
-2.56779
-1.22436
-3.711
-0.961223
5.01949
2.04491
3.69301
-2.04264
4.66602
8.75675
-18.7782
-2.60138
6.55684
1.99141
3.55928
-0.0397089
-1.72876
-2.09911
-0.800711
5.87084
10.0038
6.36605
-1.89686
-0.996368
5.6119
8.49336
-1.80503
6.2428
5.69336
8.77038
1.28073
0.063705
0.533765
-0.831415
8.79561
0.756167
-0.748499
3.87196
-0.534842
1.35415
-0.715417
-5.00697
5.29838
3.89538
3.69325
2.37951
-21.0874
-1.51043
-0.97714
3.25268
-6.83133
-3.72055
0.246907
-3.12807
-4.33691
2.72155
-1.79104
-25.0854
-16.7711
-1.22874
4.3525
-6.73158
-2.28022
6.4768
-1.54343
9.15496
-1.68466
-25.1756
6.92863
8.23539
0.140734
-0.0586691
1.27938
5.82579
3.26635
-9.09915
-0.311234
0.0676233
-1.17222
5.39861
0.316768
3.0939
0.12
5.87346
-6.20539
0.206282
0.00017634
7.08319
-3.21482
-5.35386
-2.75649
9.04055
-5.29742
-2.09574
-7.58053
5.71109
-2.23968
0.16212
1.31012
2.69954
-0.726081
3.93729
-1.86645
4.39113
5.43445
6.75179
2.26738
-0.0994769
-1.20357
4.07815
-2.84247
7.04599
3.57376
-0.397722
-0.11219
-0.619163
-0.62558
0.0537845
6.48455
2.03995
0.595525
5.63112
-1.23573
4.61858
10.3521
-0.694749
-7.15367
3.6122
0.22361
-0.0673956
-0.678864
-1.67953
5.73424
0.218284
0.0782489
0.216377
-4.60024
7.49855
-2.16862
-0.0486396
5.66642
0.159149
8.18381
6.58071
7.78648
1.37949
3.20726
1.53903
0.442221
4.35575
5.68885
-1.76348
-1.04122
-19.3046
-1.58229
-2.79037
5.76612
-6.80414
-3.9024
-3.0944
-1.74375
0.0597877
5.61862
0.0081579
0.361525
-20.7262
5.58378
10.2473
0.0760507
-5.87308
2.87797
-0.69106
5.7065
0.336828
-0.0249089
7.02572
-0.245916
9.70007
3.96049
5.5754
-1.75839
7.54536
0.244732
6.60258
0.126581
-3.8302
-2.54131
-2.30281
3.85205
-0.0245721
-1.22176
9.07976
5.66106
6.10377
8.26119
6.23472
7.07134
-0.940876
6.0834
5.61956
5.86401
-0.862041
-2.08449
-2.70964
-6.35126
1.0863
6.55019
-22.2971
8.82246
-6.62803
0.233288
9.9184
8.30951
-0.977591
-2.3609
5.84269
2.61849
-0.0526777
5.48121
-22.7709
-2.72237
5.55449
8.07218
-0.017904
6.45107
7.46371
0.0412109
-2.22261
7.46929
2.46175
0.0985159
-2.66107
0.583932
-4.75321
5.24834
3.72685
0.157185
-0.971031
-1.99386
1.10663
-0.0231784
1.36468
8.47532
-0.127695
11.1505
5.84184
1.78575
6.48936
-2.17796
-17.2449
-2.21216
5.68971
-0.0543455
-20.3631
-1.21555
2.49111
3.03443
0.0663698
4.17239
-46.0338
2.88015
-7.33778
0.125064
4.58352
1.59164
7.56212
5.80431
5.91515
5.55754
-1.02773
-3.50209
-3.29138
0.646559
-1.5747
-1.29511
4.49361
-1.40771
-0.073181
0.122671
-0.922082
-3.29151
3.99679
2.31263
0.439887
-2.0195
2.70038
-3.0521
-2.88153
0.798758
0.0224624
6.44235
4.02457
7.50817
-22.9021
5.04424
0.20453
8.14599
-1.40597
2.70965
-6.18453
-1.11073
9.49699
9.79546
4.71798
3.17841
3.6171
5.35054
9.61986
3.94114
-3.92901
-3.00867
1.10459
-6.35208
-23.5832
5.64355
5.71796
-0.508544
1.45977
4.91501
5.2815
10.4942
-7.31126
4.23523
-40.3243
-1.25941
8.2882
-0.582399
4.85101
-1.30934
1.59226
2.04035
10.9615
0.304907
-2.60383
2.56617
0.905916
-2.18078
-22.6275
-1.80798
6.30902
0.348592
3.17267
8.90411
8.15723
-0.339114
-11.9478
0.298774
0.58117
6.85561
5.51881
8.12774
3.40253
-7.51082
8.51538
5.2951
-8.25715
4.44844
5.75603
7.36164
-5.7212
-1.72294
-0.00480634
4.72218
9.38405
3.0014
-1.15095
-4.63402
10.5404
-14.1551
-3.82661
9.81204
4.93718
-0.913943
4.61567
-1.94594
3.09357
-1.34935
-13.0201
0.0463317
-2.27511
0.0199445
-1.15117
-56.2231
-34.5558
-15.4128
0.326202
-36.4245
-2.29464
4.54555
5.16027
3.06049
-49.4478
1.17481
0.464613
-1.06589
11.0839
3.78361
-3.05713
4.86634
-1.37447
-2.31212
4.79349
4.78082
5.74801
11.2048
0.0197747
-0.622409
-3.23056
0.741343
3.92258
5.7288
-2.63462
8.64559
3.66458
6.01751
-1.40707
-0.3019
0.282379
6.03309
5.66272
6.26435
5.61744
10.2183
10.0761
-1.43552
4.91592
7.34706
-2.95867
8.11065
-0.074641
9.9543
8.0434
-0.0524905
6.49541
2.46868
4.41017
0.443731
5.66833
-3.48305
5.06408
2.01203
3.9196
-0.950095
5.72384
-0.049179
1.06316
9.5983
9.58766
3.82196
-23.1804
1.42394
0.214421
-0.571162
4.41299
8.56176
-23.8222
5.88421
5.53896
2.71996
5.99224
-2.57167
-1.30806
0.130385
10.3954
1.55987
0.317055
6.52534
-0.936309
0.195398
2.45497
1.1071
4.10459
2.28896
-1.78876
3.34778
4.65427
3.73695
4.31277
10.0843
8.21088
7.2705
7.00189
9.3869
2.71649
-0.111
-1.00758
-7.61208
9.46537
-1.40912
5.75978
5.19236
-2.23898
2.92854
6.36726
-2.33248
2.77052
3.28902
11.3651
-2.75016
2.44844
-0.534428
6.68668
0.640596
-1.81215
9.28908
7.93318
5.58501
5.69716
-1.50631
2.67969
-34.7206
10.053
0.181265
10.8689
-0.800008
-1.40446
-34.1416
3.1136
-20.4061
0.109943
-0.150856
1.7905
0.171888
1.69796
-1.92368
-0.00869189
-1.30316
-23.3418
-2.24336
-9.91411
0.321136
-0.330535
-1.76137
-3.87368
5.9592
6.07556
7.24654
5.55447
2.16932
2.09732
12.007
5.62396
-7.61544
0.00558717
-0.945394
4.1561
5.08768
8.66466
-4.20956
-4.04842
4.77579
0.0039898
1.41521
7.15889
-23.4644
-2.2509
-41.0757
10.1769
-2.0492
3.87496
7.38499
-1.20173
4.59288
0.00650282
-2.98207
-1.9797
0.276231
3.58597
6.92479
7.26196
-8.9275
-22.134
3.81764
-37.0573
-1.81171
-1.05451
0.482889
-1.35343
0.132029
-2.04039
-2.46904
-3.30346
8.97252
-1.63592
9.75979
-2.37679
-0.776745
2.05224
-5.41374
8.26549
5.71962
6.68945
0.191243
-1.36639
-3.71254
7.98529
-23.5799
3.94511
0.101535
6.86781
8.23676
0.02355
5.69378
9.39369
6.37179
6.20125
-13.4698
-0.966539
2.25705
-2.73853
-0.145786
3.49152
4.1667
0.582553
-5.7463
1.34909
0.288733
5.07967
4.30098
-2.0326
9.92111
0.751215
0.0320976
0.833577
5.46645
-1.69973
-0.00155149
6.31943
-3.57722
0.492028
-1.35899
6.15726
5.557
5.2094
0.125515
5.23176
6.60396
6.53701
-1.40569
0.246196
0.895705
4.9814
-4.45669
-34.0947
-2.04345
-7.72379
-1.92347
0.0348449
-0.143211
0.172848
-21.2973
-3.11306
-3.60182
0.254543
-1.40801
1.82684
-1.91456
6.01685
12.1227
1.56402
-1.27328
2.24988
0.284105
1.40236
0.104264
-1.69289
-2.95542
0.777706
7.66567
0.0251538
9.22101
0.145722
5.22047
4.74346
2.44964
-41.7318
3.3551
10.1958
-1.78694
5.53792
5.30521
8.62442
0.856852
7.89672
6.26673
-30.8946
6.67676
-3.24885
-20.5084
8.08568
4.91735
-8.99983
-0.575778
7.45275
0.503482
-2.17327
0.182767
0.156557
4.17312
2.75613
5.59646
5.45495
4.86025
-13.0998
-2.3306
-1.30165
5.45791
10.8923
-1.8942
-17.5101
-39.5234
5.84496
0.700738
0.731829
2.45852
-0.745437
4.4688
-1.62833
1.06792
9.0306
2.14109
-2.02312
-1.26628
-2.2166
-2.61597
-41.3224
-3.33226
-2.31012
6.77301
2.78398
-2.46366
9.32349
-0.000875961
-2.92464
-1.29375
-18.9526
6.28763
-19.9056
1.58825
5.77005
0.226133
-1.43699
-1.10711
-7.97207
-1.59595
6.14211
-3.53933
-0.0646601
-37.2189
5.35155
6.17215
-2.0699
7.31233
6.78589
8.8925
9.06109
6.4423
1.0471
10.4026
-42.8244
5.6623
0.909383
-3.86911
6.96531
-1.99067
8.78527
2.35007
-6.32966
-39.2309
-45.4974
6.05255
-2.03996
-1.53073
0.510076
-5.6497
-1.78255
3.31304
0.911778
4.1739
10.1653
-24.549
-3.10197
-3.54457
6.06232
4.0594
-2.22263
11.9308
-0.109166
0.28768
3.37112
-6.63898
5.34011
5.96402
6.64538
6.77138
-2.33577
3.01908
5.51954
1.2981
-1.72691
0.0830922
6.28004
6.436
8.04818
-1.69227
0.518183
2.93977
3.2409
0.0635569
-3.73024
4.54192
-1.37096
4.82355
5.82358
-32.1644
9.23077
-2.24643
10.0099
6.59147
-3.22164
0.0147137
0.156115
1.75354
5.93231
-2.86085
7.90069
5.27833
2.95425
0.125629
1.20598
-1.95995
2.97208
-37.525
3.60228
-1.52801
5.45819
-29.0435
-0.452972
-1.27503
7.06691
8.36105
2.38845
-28.6546
2.48673
-0.39142
0.640668
2.91683
-1.68115
-1.5094
9.778
-3.51796
-1.10816
-3.31928
-14.4943
-0.601536
5.56082
-36.03
-1.08496
5.91478
3.66652
6.14097
-2.32488
2.47357
9.85987
-12.8296
5.37561
1.54615
-1.32694
1.72842
1.39701
-4.13632
10.0888
6.63122
0.0494815
9.77402
7.54791
6.98856
-40.613
-33.8822
3.71702
-7.11325
-0.636388
-8.41985
-6.57757
-8.15953
4.54607
2.05912
3.45352
3.81982
-1.39404
4.38815
5.46776
-11.1654
6.09357
3.26855
5.54623
-0.415749
0.0591508
-2.06416
-43.6873
-2.27891
-1.28806
5.38967
-3.95509
8.93925
-2.20675
5.33857
3.54715
0.164469
0.786045
5.8954
2.28171
1.03122
5.18294
-0.103216
-1.14373
8.47112
6.70427
-2.27955
-5.96173
-0.246697
4.86893
-0.27806
2.48122
-8.27622
-0.170811
-0.479513
0.274908
5.01229
4.91177
-1.68033
2.23173
-0.488453
-0.00757462
-3.37947
7.0679
-2.19506
5.66005
-0.0275606
4.70105
6.10737
2.98925
5.35406
-0.0332328
-1.90065
0.167703
-20.0596
-2.03395
-2.21014
-5.14773
-1.29801
4.3498
-0.510319
5.38733
-0.785171
-0.734144
-9.69449
-0.0576245
6.00506
-2.09642
5.60844
1.46671
-2.91894
-0.679267
-2.2036
3.95204
5.72557
0.0148775
1.12291
-17.1358
6.83448
0.219564
1.4978
-2.1835
7.22522
2.7014
0.126837
6.14819
6.00288
7.02352
0.799228
6.9833
-13.4501
0.277381
-1.12709
5.63406
3.47185
1.59209
0.386155
-3.67367
-2.58188
3.07642
0.496433
-2.74333
9.06564
-14.5581
6.91597
4.11893
-1.55125
-0.18522
0.393108
-0.238114
0.403718
0.916412
5.25069
0.25106
5.66682
-10.0883
2.30166
-1.41526
1.20978
-3.76611
7.2667
9.894
6.24254
3.27256
1.08856
3.44107
-6.14392
-0.362845
0.169709
-0.552023
-2.38337
-3.42935
-3.63785
-2.35316
5.12543
5.72456
-10.9713
1.43848
6.45358
-2.5421
-7.7084
6.06363
-0.117566
-4.22147
0.113583
-1.27935
0.0329909
9.25387
0.191276
5.57839
-6.15927
-3.68408
-2.52741
5.61595
1.27425
4.79508
-5.58525
-3.12742
0.456042
0.964955
6.57805
5.05783
0.722954
-1.16443
-1.42023
10.3221
-1.61059
6.5515
7.26275
-1.00523
-0.171329
2.52717
-40.9525
-2.73271
4.76301
3.0175
5.56053
-2.16625
6.19834
0.42545
8.20112
0.992102
4.83397
7.24748
4.53737
0.84241
-2.11093
1.59708
-18.4228
5.03598
2.29955
6.98723
0.319502
8.86202
1.07425
9.45615
-2.84542
7.33878
-1.14385
4.29164
-7.91671
5.34521
2.67583
2.00433
8.65684
5.56328
1.19797
-2.30614
3.24411
5.26891
-0.0610858
-37.7577
4.09412
0.350712
7.49328
-2.09743
8.99997
1.14798
12.1579
9.00946
4.26733
3.77075
-7.56276
0.176257
9.64726
0.498299
-0.497146
-0.455824
9.60672
2.48902
4.92982
8.23362
-3.73204
6.24337
-1.05736
6.91096
0.252384
6.54362
5.82178
8.07959
-0.129313
-39.7375
1.54092
-2.26919
2.58355
0.869697
0.336333
7.28503
8.46835
0.0779763
1.87873
-1.00071
7.61491
4.74381
5.28838
3.27694
-1.07198
-20.441
-1.63932
5.76342
-10.1803
-0.92418
0.00984147
4.01737
2.60005
-2.36848
10.2108
-1.27951
8.93844
1.64763
9.03653
-1.66419
1.03205
0.148991
0.340115
4.80076
5.47273
-1.07831
-1.01073
-3.30441
-0.882149
8.45198
-2.39441
-0.188029
-1.52287
-1.12233
1.9389
7.11869
2.62143
0.270012
0.155259
5.51333
10.9069
-2.25942
0.449199
5.60807
-0.414542
2.59423
0.0572436
4.17917
-1.02859
-36.9305
-2.03292
-1.37349
-0.638243
0.41331
-7.24895
-2.19739
-0.572525
4.26925
6.12026
4.84842
10.5863
-5.09549
9.51655
-17.072
8.89852
-2.89991
-3.99731
10.2197
2.04196
-1.64016
5.85986
-0.12721
6.36385
-1.8879
-35.6226
1.07893
-2.22943
-2.48446
0.0208475
-0.557394
1.95293
7.24895
-3.2634
2.26301
-9.82
1.03294
-1.35183
-0.043752
-0.281309
-1.27992
-7.5766
7.4516
-0.0284653
8.24717
2.04085
-2.25481
1.5488
-5.67273
0.189731
4.71046
7.22322
10.5584
4.04696
4.60402
2.60014
-25.2323
10.1784
10.9714
6.18558
-3.77622
-2.18477
-18.4451
5.32167
3.77479
1.97879
4.40387
-1.27456
-0.0385343
-10.2973
8.60364
-1.90596
0.549021
-1.84332
5.60557
0.995255
11.7728
10.9412
5.10581
-0.107951
1.42869
-14.9164
1.82658
11.2644
0.543512
0.184715
4.24681
0.0348509
1.08354
-0.923243
-1.54751
1.34489
0.0226011
2.42113
0.11796
1.49252
8.10206
1.77992
6.08663
-1.86156
-1.75292
9.87636
-5.55849
0.623659
1.4112
2.13914
0.374685
-2.149
1.09678
0.293303
-0.00199458
11.8848
-39.7171
-9.88764
-2.72982
-4.83746
0.502953
1.40291
-2.05154
-7.51413
0.106484
-12.5918
-5.27065
-2.73459
0.362093
0.513482
0.269545
11.5693
0.208405
1.61359
-0.628964
0.958384
-24.6175
-1.32392
7.85358
5.62127
1.55365
-1.2066
5.45473
6.10211
-0.302286
-3.16598
0.17671
7.80446
-2.48932
5.13644
0.0366948
8.90847
0.589678
-1.89605
-6.56377
6.18732
-2.04287
4.89473
-3.84749
11.1386
-2.00186
-1.43815
-6.84146
2.19456
-2.09808
-3.90756
-1.99422
0.851149
2.58132
-2.21775
-1.6363
-0.374446
0.477595
-2.15381
-5.3565
4.67477
-23.5924
5.0034
-1.9943
6.2829
10.1123
5.45374
-23.9666
5.85292
0.914724
0.64268
-0.389108
-1.92271
-20.7711
0.37929
-1.39539
2.53446
-0.332405
-4.91134
-0.870937
-7.43376
2.84947
5.6571
-6.97678
-2.16655
-2.35996
0.0984686
-1.1767
3.37495
-13.7288
-2.16882
5.60342
-0.905783
3.32635
-3.83119
-8.08452
-1.97535
-5.1732
11.685
1.63465
-2.84421
1.09541
9.48004
9.89867
-1.93306
-1.08945
5.54297
-0.0413883
0.360782
9.77318
3.1534
5.16583
11.8584
-2.29001
1.64923
0.602804
8.6721
5.85079
6.0016
7.11098
3.77514
0.125626
0.407644
2.36839
1.31955
-41.2027
10.0106
-3.4708
-3.9732
0.0883182
-2.13147
2.78877
-1.81924
-1.17934
1.1562
6.06157
6.13204
6.6592
-7.18356
8.49181
9.72741
-9.28293
3.59337
-0.400446
-0.309346
0.757739
3.07231
-1.08628
-2.56877
-3.6551
10.89
-3.83343
6.69469
5.82637
7.73675
4.35965
4.53963
-1.09405
0.148859
3.42987
-0.152716
-16.9895
-8.76505
0.59378
-1.9436
7.09634
-2.15697
0.107332
0.814733
-23.4631
-1.93217
-40.7606
5.07262
-1.05596
0.201226
2.23996
-3.15489
1.89323
-11.3187
-0.378948
6.1735
-2.72011
9.96759
0.126061
10.6571
0.0134986
0.182831
0.966664
4.85831
4.93926
-13.7593
-0.455379
-1.70997
0.909518
4.02803
11.8984
7.77257
1.8508
-2.38802
2.99141
-1.6643
6.66451
-1.16845
3.1071
-1.62844
-1.90021
-21.6027
2.13242
0.139912
-22.7326
3.4849
3.60735
9.65201
10.3592
-39.7868
-18.9881
-1.51911
-5.87328
10.1177
0.205563
-3.11724
2.18626
3.88758
-1.46913
0.260408
0.513384
-0.151906
5.3357
-1.34213
1.65814
-0.00304986
-4.16273
-11.4286
-1.98936
-11.764
-10.1363
6.40959
-1.9722
-1.84756
-1.14916
-1.15034
11.0491
4.346
5.23778
-1.23403
2.8905
-0.422521
2.31568
1.52311
-2.0338
-37.5408
10.093
6.08361
-0.392542
-26.7026
11.4967
-2.0005
-26.0088
-1.58892
2.87397
-2.11702
-1.47203
8.61094
-0.749179
5.32834
1.96323
-1.87124
0.0238252
0.278551
2.80756
-13.1223
-0.177052
1.40939
5.66729
-2.21574
-21.4521
0.161514
-1.55039
-6.9348
-5.99651
10.7233
3.54069
-2.87736
2.69004
1.1254
9.40539
3.22691
-42.7192
3.54619
7.27651
6.35348
-2.26527
4.89844
-1.028
10.0087
0.168426
5.7575
-2.19499
-2.05785
0.0992362
-1.73575
3.44529
1.67387
-45.3565
-2.17194
6.81704
-0.768138
-0.595497
8.07634
4.33897
7.85983
5.13209
-3.28993
0.10107
-0.0503653
5.72625
-0.0185159
7.22021
4.54122
9.88411
-1.98913
7.64786
2.94359
9.94948
-1.84406
-3.80968
10.1973
-1.98283
4.47804
-4.94289
8.80001
9.78685
6.13297
-10.5814
5.56037
7.493
-2.08986
2.12085
-1.79023
8.03639
-1.9732
-1.25753
-24.0294
-28.4167
7.35247
2.83545
-29.6658
2.9121
9.78291
-3.77319
-1.40365
-33.3172
-4.28568
4.90815
-0.676809
5.26854
5.40873
-30.8052
11.064
-0.276557
8.24117
8.27863
0.45501
0.152214
5.13246
-8.1493
-0.922326
5.12187
4.36643
-2.47067
5.41495
-1.69027
8.66893
6.13698
2.14901
-0.0573343
6.49307
-1.17068
3.20286
7.73271
1.35883
0.102965
7.4623
6.21607
-2.86685
-24.2483
4.4552
6.50137
9.9874
-27.3962
10.5573
10.4055
10.7204
-1.15891
7.22489
-2.24072
5.62565
7.87345
7.52414
6.43861
8.57545
11.7639
4.74203
-32.3314
0.497433
-31.7604
11.6222
3.0718
-0.986323
-2.14899
5.21194
8.53725
5.47142
1.8559
-0.426234
8.52009
-9.23629
6.20669
-2.15211
2.30605
0.013185
1.86618
3.71153
-2.13735
-2.25248
-0.990073
-1.51433
-1.00127
7.06774
-1.66695
0.836924
5.37999
-7.65465
3.63389
0.0826631
-7.33659
-2.06088
-37.6543
8.16891
8.74682
-1.97389
2.08114
7.44249
6.60711
0.113468
-2.70071
6.34975
-39.2466
7.98118
-6.8989
7.77534
3.33443
0.567472
7.20616
3.7613
7.60952
1.99659
2.38998
-2.0728
-23.8556
-9.59021
-0.13061
7.45316
-3.29043
-1.60003
-3.36036
8.19872
7.55575
1.67231
4.27163
8.36403
-9.55507
5.47423
0.0106033
-2.27784
5.47749
-1.8841
-5.32429
-5.55553
-44.0538
-1.1772
-3.10332
0.0468193
-19.1254
-25.2011
4.73839
10.0429
11.0333
9.52831
-3.18776
6.27034
-2.53699
5.33988
8.33947
0.499913
7.32663
-3.4353
1.90024
-2.12701
-0.657147
8.00428
-5.07759
6.57091
-10.6441
-1.82573
-45.9245
6.61883
6.53391
5.53156
-3.89378
5.44582
-1.7486
-34.1754
-38.1829
1.75008
10.1363
-12.6087
-1.22458
-2.1549
5.66734
5.36243
-0.189965
3.34948
-6.39052
8.49522
7.60145
-1.52832
-1.54481
8.33544
-1.84294
-4.75135
-0.190307
7.56077
8.575
-1.95897
4.15832
-1.32736
9.85125
-22.4502
-2.09448
-0.606897
9.25757
-0.265684
-1.81216
-0.955814
7.96904
4.36582
7.8721
-0.819339
-10.934
6.44626
11.4867
-21.2193
5.28284
-0.422834
-29.8351
-0.369656
2.0231
-2.25606
4.07852
-1.76596
3.48799
-1.26071
-2.55289
7.19094
8.69181
5.41265
-7.52732
-2.09663
6.76567
-6.94965
2.13237
-2.51339
2.80698
-14.6155
6.08293
6.766
-0.589408
6.3714
9.79771
-1.22543
4.76443
6.55095
-40.3651
3.26701
-2.35079
2.79964
2.08465
4.24834
0.0208003
1.80473
-0.824588
-13.8071
8.16866
2.29364
-0.175548
-1.87748
-0.826301
5.89756
-10.4634
10.6812
-2.91396
-54.8595
-0.936405
7.3269
6.54222
7.81593
-43.849
9.40996
-4.5214
4.64445
0.601379
-9.0128
5.1377
2.56005
-1.0264
3.93826
-25.6914
4.31499
-37.5366
-1.91799
-0.0133663
-6.4162
-7.37561
5.20268
9.63911
0.302729
-2.35591
7.46261
-8.16095
8.74765
2.68678
-0.0665902
2.90117
5.6417
2.91779
-1.04175
0.31217
-0.309829
1.07909
1.75934
-9.00519
-2.12866
0.34258
3.46567
-1.39478
11.6906
6.24862
5.62642
8.85151
0.590752
6.38902
-3.46237
-42.5229
-2.09733
5.5866
11.3709
5.33022
-4.29367
8.15067
5.51678
5.56669
0.218455
-0.561879
3.01873
10.75
0.502108
-2.58326
7.91679
8.35156
6.16177
5.71141
7.02856
3.94483
-1.73981
-2.43148
6.35652
-19.3329
-24.478
5.64102
-2.22112
-0.105314
1.89063
6.32269
6.57682
6.61686
-1.05121
7.77868
7.98654
0.90846
6.99068
6.08249
4.51608
4.10763
3.98079
2.89949
-0.239148
7.35867
6.94745
-2.90653
5.30648
-1.09838
0.142158
9.53567
7.21292
0.016171
-2.36324
-1.92481
7.42879
4.12489
0.768557
-0.0139461
0.87071
-1.56295
1.14106
-2.28688
-1.08016
4.33279
-1.12053
-5.15997
-4.65074
9.03171
-2.23768
-19.0242
-2.30552
9.63436
-1.28452
0.98264
0.798488
-26.923
4.3004
5.22453
3.66951
8.52614
4.6198
-0.125187
-42.3414
-2.33139
0.103496
6.56135
-2.39722
-2.07812
-24.3821
-1.43577
-21.7867
-2.26299
-10.6578
-0.71568
1.85188
5.48384
7.59098
-1.32111
-0.25383
8.54123
6.39983
-1.93722
-1.42369
-36.1675
3.51582
0.561833
3.05209
4.70866
-0.755771
-1.32589
-1.43649
1.16549
-3.99841
-46.5293
0.648118
-2.76659
-45.4187
-27.0124
-2.37179
0.649991
-32.8103
2.8459
-1.94062
5.53357
4.90074
1.39926
7.41949
-2.94575
9.72318
-2.16895
0.085668
-5.41223
5.68807
3.38352
-23.0103
-38.4891
5.71709
6.88128
10.0829
-2.40771
-44.757
-2.80411
-0.666259
0.0150181
-4.08165
2.06711
-15.5206
3.37699
-2.3485
4.49494
0.416941
-0.333964
8.71401
5.10218
-5.02724
0.00726088
-6.95248
-35.5343
7.40716
11.0894
-16.1216
7.14477
5.43831
0.0131149
-1.47149
7.21956
6.86184
-11.5478
-1.25568
-2.15914
-3.03926
-5.19603
-9.72616
-4.85451
3.48492
-1.15212
6.24176
-3.39016
-26.521
5.19598
-4.84672
-25.2245
0.000642832
4.1414
-29.5178
-2.86598
-28.308
-2.55503
-21.2558
10.2573
-42.4978
-1.27877
-2.67323
6.27006
-46.3351
-1.15223
-8.51788
-5.71685
-2.17054
6.53044
0.0605176
-4.359
4.97455
0.00335524
-1.92531
-8.45843
-5.95262
4.10829
4.7685
5.64417
-43.1977
8.73244
-1.59656
0.00469635
0.415144
-10.7138
-2.52397
-5.27228
-3.72424
0.896675
2.16843
0.166502
-1.66854
-3.99798
5.41195
-4.44693
5.69505
-6.71344
3.34261
-1.12461
-0.929701
-1.9991
11.5902
-1.01265
-34.1962
-23.4827
-3.2701
5.53943
0.166267
-3.03306
0.217104
-23.3868
-2.33135
-25.2829
-8.82464
6.38618
-13.3682
0.562889
-28.4454
-0.451072
5.05352
0.452979
2.50217
-2.07256
7.65374
-41.5659
-2.52475
8.19772
2.21596
-42.7822
-1.67018
-7.19659
-3.61587
-1.79915
7.43533
-1.98983
2.13416
-39.0415
-6.86752
-8.58939
-11.4337
-23.5955
3.44098
-1.18484
5.59908
1.80669
-5.18763
-1.9706
-2.6989
7.05391
8.66685
-30.5448
-0.108914
6.14086
5.41458
4.58214
-3.11736
-5.18276
-5.59533
5.64565
1.38845
-3.42242
-8.75191
3.26829
6.75076
-1.39794
-1.01569
-0.0313284
8.0848
-6.73027
-7.36902
0.100675
4.7234
-0.112032
-1.66893
8.78527
7.13466
0.139632
-3.23207
7.35652
2.54717
-0.773853
5.41032
-1.55748
-4.05646
-6.43252
-3.30552
6.94387
6.21652
-0.47446
-2.45691
-2.18698
-0.59321
6.33282
-3.15369
4.42319
7.70645
8.26728
-1.50964
5.80241
5.1207
6.48071
6.85515
-1.09695
6.89143
-0.00967594
5.61597
2.82423
6.18118
-2.18169
7.24581
6.92052
5.01689
3.50078
-2.29242
4.06124
0.286877
-2.89178
7.9101
7.613
-2.58927
6.67807
-3.36596
-20.5731
6.26514
6.23506
-7.27225
-0.583973
-43.9228
-3.01173
-5.83507
-1.91409
-7.11717
-2.03453
5.27442
10.5984
7.3514
-1.3865
-1.69153
6.15984
2.69269
-1.36404
-3.9104
-2.04556
-7.5038
-22.8286
-22.8858
5.33178
-1.29841
2.37523
0.140477
0.140729
-1.41012
0.186063
0.979036
2.89174
3.63805
-2.08758
2.7749
-9.94266
-3.86977
3.93779
2.91105
-0.38262
0.658576
3.5081
-0.119674
1.86447
-2.31316
5.69202
4.81561
9.27513
5.64157
-3.02071
-1.94723
-2.44536
-1.92799
-0.0268406
0.105266
-0.783349
-2.66834
10.8278
0.675798
-0.60362
8.61456
-2.20218
-4.32871
-1.63423
-2.2286
-52.4516
1.6612
-5.62151
5.67218
-0.977878
-2.80513
-6.16626
-1.6637
-3.72122
-1.12374
0.37121
4.21316
-2.029
-1.98132
-6.0868
2.12857
-3.67468
6.1558
8.86475
-1.86796
6.30745
3.24526
3.89414
9.7724
-2.27118
3.22846
3.01616
2.32926
8.38301
-2.27507
-0.669582
-1.08381
6.09207
8.85991
-1.95275
-0.323301
-3.55273
-3.13508
2.69993
-2.44332
-7.93355
-2.02642
1.91696
-36.5563
1.40991
1.67925
4.83307
1.08044
-28.8613
0.112955
0.0186582
-1.06192
9.46839
10.6534
7.84763
11.2452
4.87664
2.59289
6.59389
5.71491
4.99032
-2.89447
5.92555
-1.77232
-24.1339
8.60623
-0.938055
-3.87467
10.1204
-0.160164
-2.97807
2.79452
2.36044
7.00033
-21.4184
5.17624
9.27209
-2.24727
-20.9008
-7.17734
4.04653
-2.19569
7.50395
-0.775931
6.98798
5.5102
-2.04768
6.7713
-2.56163
-38.3729
-33.2096
-2.28336
7.04951
-3.28837
5.56544
-0.167788
-5.66427
0.558642
-1.19496
-6.67552
-2.20276
-54.6525
7.14632
0.899463
-26.2704
-2.87468
3.38556
1.46547
-2.85132
2.49135
0.15082
2.59095
-36.2491
3.0427
1.1866
3.5571
-0.490505
5.45389
3.48665
1.44626
-46.4424
11.1888
-3.72459
-33.6202
5.46939
4.78196
-12.0165
-3.54322
-2.11559
3.65036
3.0141
-3.10219
-0.636478
-1.2338
11.1368
-1.68249
-2.16311
0.597176
-2.09039
3.94534
-1.08072
5.28702
3.3537
-2.06802
3.63577
-42.2867
4.62046
2.23159
5.81828
3.81564
-0.0225981
0.0907105
2.82717
6.25505
0.899861
0.603503
-41.5455
-3.58399
-2.11415
4.72407
-38.2191
2.86182
-44.7915
7.04451
-7.32182
-1.49829
7.646
6.86597
2.16088
-2.31098
-30.6383
6.35245
-0.384376
7.14264
2.90909
-8.27291
5.79111
1.42755
1.38022
0.913174
-1.85617
-2.46884
3.55787
-0.798614
7.82649
1.751
11.3253
-0.26993
1.41171
6.94539
0.586571
1.5782
6.08486
4.90258
3.53073
-3.49094
-0.0432468
5.46407
3.66064
1.96179
-3.34738
-0.6659
-2.3646
-11.181
-2.0812
5.04583
0.359462
4.54238
-0.843834
9.57082
6.98844
1.92948
4.72745
1.76369
-47.9018
5.03595
4.18365
0.116294
2.31743
7.11684
6.37172
-0.0892667
-3.56991
-9.1015
5.12983
2.60468
-7.95098
6.09846
-3.15377
5.34547
-12.6628
5.6563
2.51257
-0.06174
2.31763
6.66118
-0.455912
5.90247
7.59054
1.09806
-1.32428
2.82873
0.257471
8.90956
-8.38994
8.05237
6.7097