/*--------------------------------*- C++ -*----------------------------------*\
| =========                 |                                                 |
| \\      /  F ield         | OpenFOAM: The Open Source CFD Toolbox           |
|  \\    /   O peration     | Version:  2306                                  |
|   \\  /    A nd           | Website:  www.openfoam.com                      |
|    \\/     M anipulation  |                                                 |
\*---------------------------------------------------------------------------*/
FoamFile
{
    version     2.0;
    format      ascii;
    arch        "LSB;label=32;scalar=64";
    class       volScalarField;
    location    "0.3";
    object      p;
}
// * * * * * * * * * * * * * * * * * * * * * * * * * * * * * * * * * * * * * //

dimensions      [0 2 -2 0 0 0 0];

internalField   nonuniform List<scalar> 
13486
(
30.7042
22.4543
0.731773
-15.7343
7.80974
-3.6724
-0.853603
16.4786
20.3857
8.68348
-16.3924
4.69403
32.7563
-6.50996
4.7556
9.67286
-18.9995
0.418035
7.6024
26.8237
-14.7671
32.4488
22.2442
-9.74171
7.33172
-9.23405
-16.5227
-7.65099
0.781118
-6.23832
-12.5358
3.88177
-10.9171
-6.10446
16.4139
0.854778
0.04058
25.3248
-0.34744
20.456
-2.58327
34.2453
0.590325
7.23453
7.19815
4.71778
-34.4263
-0.694097
0.0107459
-6.99877
15.0038
-1.49833
4.80247
25.5693
-1.54702
8.70094
-0.759823
-1.2347
-10.9675
0.303254
-15.3604
0.137472
-24.6857
-15.3967
-6.50254
0.234735
-15.5647
30.4036
19.9573
0.449551
-15.4522
0.0810421
19.7436
-162.101
0.413886
1.67581
0.226507
4.49888
-28.4737
-1.48932
-0.0934998
22.9242
-24.8901
1.93152
30.8054
6.63712
0.916919
14.8803
19.0189
10.7699
2.09499
13.7931
29.3497
24.7187
21.3224
0.0795492
-16.6012
-14.0687
19.7001
-19.5814
0.104774
-5.68292
-13.8875
-1.08255
11.89
-19.1554
18.5651
-0.709571
-30.4561
12.7132
20.3767
-0.11468
25.5522
-0.29
36.8178
20.4829
7.63711
-5.16436
20.499
-0.0296903
-1.51573
-15.4307
22.4335
-0.251548
19.4188
-0.941182
13.0716
2.17947
-4.80428
-5.43363
-0.848816
-34.0288
-99.3488
-114.875
16.8755
13.933
35.5992
13.0162
-0.144681
16.9527
-10.5959
4.58845
4.79887
-1.68224
-0.159544
-17.6638
2.11229
29.7642
-9.21726
0.265238
9.78796
3.96114
0.602806
23.7572
2.9733
2.24857
8.90135
-14.1025
22.6561
0.597881
-6.5285
22.6308
-0.20429
33.7833
-1.48336
-10.0326
-2.71197
44.1702
1.7523
-107.996
-96.4154
3.16891
11.4445
9.09232
-0.231427
-11.8241
-11.4078
-13.8829
18.3242
4.57954
18.5411
0.835678
7.06241
-13.9669
2.76631
-7.2112
0.217574
-5.92367
-3.27102
22.2964
0.244537
1.94569
-0.527911
26.8569
-1.71295
-16.5226
-5.62188
-5.02552
28.276
-8.92672
-11.3389
2.06848
25.309
6.56659
0.632135
-1.40833
-6.54855
21.0187
-0.812
2.18061
-6.75962
-7.31981
26.6675
18.4508
-3.11616
-3.08326
-6.50056
11.4889
27.7895
-25.9737
-19.1256
-9.05276
17.4419
-7.91231
2.84725
30.3743
-7.53122
-10.2033
-2.85124
0.60486
18.1033
-31.3326
-10.7564
35.1418
-13.5448
29.2455
-4.75672
-0.27847
29.5947
7.56961
-10.8152
13.0062
0.838245
27.9522
-0.266673
22.0305
10.5687
-7.85609
-149.992
9.59373
-13.4762
37.2389
19.2407
-0.980589
-2.19077
-11.885
4.01793
-3.67583
-9.60036
-10.4663
20.46
-0.270702
4.51145
-12.0805
8.98775
-13.8985
-2.89535
-12.7906
18.6418
0.952864
19.8574
18.0236
-6.47153
3.88358
30.4971
-7.46223
-2.1089
-2.5341
-0.99658
2.26796
-2.71747
15.9738
19.3199
-11.9968
-15.3216
-17.6433
-11.3671
-4.1744
2.04975
18.9676
-13.6995
0.13227
21.9199
16.5266
-5.5747
-5.96825
-6.09267
3.73754
19.1319
-2.00557
-0.67551
-6.67533
1.81672
3.90908
0.0157209
4.81905
-24.1166
8.568
0.0357258
-0.00677816
-43.8574
-15.8938
-7.08614
0.224604
-15.1435
14.0515
-0.00838904
18.9094
21.421
-3.09298
-0.0521226
-0.0691033
18.5733
25.2482
37.6768
2.7685
11.47
15.5473
3.19755
10.1334
15.5633
12.9308
2.36098
27.573
-0.95807
19.9242
38.685
4.47507
10.3573
-0.31782
-2.81866
24.8738
9.79544
7.2388
-14.394
0.131694
12.3654
36.9687
-26.3002
-0.0909199
11.9624
2.895
3.96484
-16.5699
19.1083
-0.155483
-162.224
13.7465
-0.0520514
-6.92016
4.88904
3.52175
21.0793
17.7983
-6.66658
1.16581
-5.16009
-38.8446
27.2057
13.6618
0.201183
12.6952
2.59305
-13.6116
-2.97021
15.9546
19.0998
-0.233138
-15.1617
-49.3975
18.6439
12.4758
32.4246
20.0374
-40.2379
-2.3928
0.789309
10.3875
-53.4728
-15.4865
26.1879
-6.89774
5.55371
29.4856
29.6097
0.17345
-15.7292
-13.6519
-37.2864
-11.5487
-48.2276
0.349814
16.919
-18.4826
0.00227195
1.22653
24.9567
-11.6012
13.3823
21.9947
8.38142
-23.7926
-7.44856
19.0089
19.0468
24.6876
-14.5475
9.4953
-90.2085
7.90564
18.6684
-31.4544
37.061
11.011
-6.59818
-6.02363
1.08513
19.4346
-16.7567
-1.83434
32.0324
17.9288
4.94623
2.42154
6.81722
-8.40102
32.0183
0.130849
9.47061
29.7596
-46.6804
-6.79421
-103.652
-7.85372
0.70762
23.7622
23.5852
32.1844
-49.327
0.0176415
-14.4192
11.1897
19.3999
-7.55938
-22.1376
19.258
-13.8563
-11.5566
-12.3341
-17.0858
-5.67556
25.1199
0.198118
-1.78749
-16.1255
17.6587
0.413135
40.9013
29.9642
19.9612
15.5934
-0.467205
-0.314454
38.4806
-1.80604
-0.20056
-6.95847
20.2075
-18.1456
3.30274
12.0083
0.790842
-11.3008
22.1213
-19.4177
-29.3074
11.8546
-14.6136
43.6112
11.8022
15.4703
21.6373
-11.9962
4.06823
33.368
7.58807
25.2142
-1.2533
3.81546
-12.2886
-2.09604
0.844188
-19.6787
19.4767
20.2078
-13.3815
-0.184981
-4.67839
30.0393
24.2603
-2.81021
20.6089
13.6967
-11.0716
9.32315
17.2014
-100.607
31.5072
0.112717
0.452856
33.8364
12.6387
-0.752647
11.8128
-11.0962
-13.9397
6.58566
11.3942
22.4908
29.7206
-15.8454
6.38531
-15.8799
-0.34469
29.0164
2.98192
-14.8081
-13.7057
-25.6691
-10.7263
15.3813
-6.44097
-20.8204
20.7103
27.1293
-1.26972
20.9297
-18.2954
-13.6719
-31.5296
6.26398
-14.7274
21.7147
2.06756
-15.025
16.5336
23.7805
-10.5695
-15.6195
15.8808
28.6369
3.89809
30.9055
1.95938
10.9144
3.31894
20.9226
0.675456
27.9671
-16.5382
3.1916
19.4092
-3.55994
-7.45108
18.9638
-51.0072
3.93747
24.8759
32.4418
-6.75396
-11.5774
3.19852
2.5422
17.1732
11.0114
3.07175
-16.4105
-0.521604
30.7356
0.963919
-1.14462
-8.91094
32.6046
-3.93082
0.653918
17.6306
14.3175
-1.76202
-8.43268
17.1961
2.33244
1.08836
5.77207
-19.6829
31.4414
20.0005
12.789
13.7503
1.94621
-11.924
35.5234
5.24098
35.6619
-10.5044
18.3531
-0.849459
-161.489
11.2817
8.82329
37.456
-8.34329
11.8566
10.8953
-26.9303
8.33316
-5.43667
-12.3504
19.2161
-15.3802
-6.82158
-8.50704
-7.39192
-3.93158
20.5358
0.000264505
34.8072
19.5688
0.257674
-13.6905
-6.2125
4.13307
-15.4964
-9.05428
-19.832
29.1153
-0.26719
-0.06991
-13.6623
32.5711
-0.191825
0.350255
33.9579
17.2169
-14.2461
-0.856666
12.9031
-0.528592
19.5444
0.511256
-7.20102
4.17851
18.1289
2.52704
15.6546
34.4744
0.611949
-11.4727
18.2027
-20.1708
-4.01678
12.5079
10.3078
6.10083
-14.7451
1.14237
-0.163397
3.63126
28.9129
3.66128
2.72787
2.67877
-5.6946
-1.64986
18.9265
0.311303
18.7439
18.2048
27.4677
0.0020442
-24.2382
35.269
-0.255186
-13.8265
21.1595
-8.32245
21.2922
0.0812293
16.5555
-24.5835
-138.291
-8.41993
-0.402987
-24.263
7.65989
36.394
-3.49253
-15.3846
-7.8409
19.4508
0.783246
6.23246
-13.9754
35.6937
-13.9088
8.81571
-8.86208
9.5718
17.8917
5.62541
-46.5691
-14.8313
33.4374
19.5637
5.93929
17.424
-6.28477
14.5642
15.4282
9.68787
-62.8071
-2.17745
24.5449
-0.620003
-0.907936
16.4481
-14.2044
-3.21107
-0.47017
21.4899
20.8527
-11.6541
2.10041
-14.2546
-15.2493
2.44718
-3.86293
3.70159
17.3353
-2.9818
-26.6266
23.9128
-16.0008
-5.18665
-1.01231
-8.12292
-11.98
-8.29454
-0.0773835
-12.3146
19.6421
32.6206
-0.165973
-5.17812
34.014
31.6594
-7.05302
-5.62542
20.982
-46.9143
1.27911
0.629581
-1.67239
9.10619
-24.8838
8.37249
11.7402
-8.45629
-3.27404
-10.2835
-3.43592
16.8838
6.06045
10.7173
-12.1009
15.1666
30.8592
-20.347
-12.3869
23.0669
3.54652
12.2208
-0.684432
-5.59139
-12.2318
-3.54594
19.6286
35.7223
22.0525
1.8987
-3.63074
18.5634
29.7582
-10.2785
21.6371
18.804
30.854
-0.427658
-0.334418
0.37075
-3.89165
30.6457
1.95807
3.44269
12.2359
-2.28696
5.18525
-2.39911
-13.1093
17.7628
17.6775
11.9623
6.76328
-24.7962
-5.51981
-3.6445
8.92965
-20.8028
-17.3661
0.499904
-11.0094
-14.9025
8.36242
-6.32876
-147.458
-25.4177
-4.061
13.9588
-17.0177
-11.3111
22.1293
-11.2477
32.5975
-9.75403
-158.055
24.494
29.1702
0.110489
-1.05318
-0.853101
19.2248
9.65018
-21.0207
-1.43277
-0.061824
-2.91162
18.138
-0.209035
9.08164
0.0225923
20.2221
-17.1091
0.562628
0.735568
24.3786
-9.97892
-16.0316
-8.77968
32.179
0.932434
-11.161
-16.9952
19.5468
-12.5541
-0.0983507
4.47419
6.98846
0.456667
12.6487
-6.2452
14.9811
17.1441
23.4138
6.90031
-1.94477
-4.68202
13.1151
-11.1646
24.8571
11.2136
-1.51461
-0.848303
-2.57025
-2.85392
-0.108452
21.6113
7.2722
-15.3824
18.804
-2.91375
15.1493
37.0772
-1.87126
-20.1742
10.83
1.61641
-0.397398
-2.80656
-15.8411
19.7567
0.733507
-1.74733
0.596168
0.856607
26.7406
-14.2513
0.983453
18.4995
1.37958
28.1946
22.0962
27.322
3.23906
10.962
4.66247
1.10047
14.0745
19.1707
-25.9653
-3.12184
-27.1326
-5.4518
-13.5947
19.5579
-15.432
-10.8595
-10.7663
-26.7319
-0.933949
18.2778
-0.39443
2.65912
-161.482
18.0728
36.632
1.10195
-14.2788
9.42112
-17.4796
18.114
0.0883212
-1.00488
24.304
-1.20906
34.54
12.7715
18.3457
-6.41403
25.5859
1.15173
22.3871
0.124051
-10.7855
-11.4746
-8.31622
12.6168
0.614126
-13.618
32.313
18.6663
20.2629
29.0594
21.3498
24.4893
-3.43513
20.8828
18.3208
19.6407
-2.65526
-6.70872
-7.53429
-25.9678
4.45772
22.9245
-133.136
36.4172
-25.9471
0.652761
35.2608
29.0008
-3.08972
-8.12979
19.2466
9.00091
-6.11206
18.5836
-108.982
-9.23238
18.1469
28.4069
-1.02133
22.5066
25.4743
0.711834
-7.78114
25.9253
7.6263
0.217311
-16.0023
2.27648
-12.765
16.94
13.053
0.2135
-11.6622
-6.11061
3.20182
-0.437711
4.2949
29.1733
-0.447472
40.2456
19.5474
5.74241
21.9313
-14.0944
-78.4512
-12.5695
18.8163
-0.900907
-91.4497
-11.3822
8.43106
9.412
-0.364613
13.2502
-46.7395
8.24685
0.940805
-0.0216916
14.798
4.68583
26.3961
19.7048
20.0392
19.1665
-3.78116
-10.0235
-9.07453
2.34262
-7.20712
-10.1243
14.6376
-10.041
-0.414092
0.489779
-0.298621
-13.8714
12.5779
6.68863
0.827503
-6.67959
8.36332
-8.55211
-8.41505
3.61239
0.468321
22.4203
12.8798
26.6918
-100.924
16.2383
0.799314
28.0747
-2.91132
8.3203
1.01231
-3.79204
33.5895
34.5715
13.8568
8.9555
11.6831
18.0187
34.1298
12.5023
-11.4143
-13.9422
4.25845
-30.4108
-26.2
18.2703
19.1871
0.61298
0.802901
16.1284
18.0311
37.6156
-16.0475
13.6397
-37.1298
-12.7206
29.0407
-2.78767
15.5092
-6.12635
4.09849
7.27326
39.3282
0.134156
-9.13487
8.32453
3.14236
-14.5838
-117.463
0.536519
21.2869
1.02117
9.16608
31.5181
28.4605
-2.09554
-42.201
0.618866
0.90898
24.1912
18.0829
28.7423
11.9596
-16.98
30.2566
17.9776
-20.5915
14.4518
19.305
25.8722
-14.0771
-20.6007
-0.0959689
14.7709
33.5432
7.19176
0.691199
-13.1208
37.692
-19.2272
-11.1895
34.8903
17.0604
1.34707
14.7303
-15.499
9.28314
-5.11503
-18.8083
-0.414928
-12.6795
-1.26248
-4.46336
-48.6227
-21.2021
-23.8248
-11.1794
-41.1306
-13.5874
20.5558
16.9708
8.97915
-46.89
3.20626
0.39869
-3.78529
39.8938
12.0316
-8.85867
16.7788
-4.82703
-12.5109
15.9503
15.8417
17.2316
40.4626
0.177705
-2.94863
-9.31079
2.6148
12.4356
19.9112
-8.48823
30.7302
12.1208
20.1522
-11.4532
-1.27826
1.92539
20.7585
18.7167
21.9029
18.6308
36.2829
36.0613
-4.96368
15.843
25.185
-8.76592
28.9042
-0.333057
35.4712
28.7478
-0.573617
21.1368
6.97981
14.3909
1.93288
19.267
-9.90823
16.5326
4.10417
12.1467
-2.58389
19.5551
-0.200023
4.74041
34.186
33.9935
11.8669
-104.921
4.54398
-6.09552
-2.34965
14.0165
30.2328
-100.175
19.0262
19.0502
9.31545
20.49
-13.3091
-5.88251
0.111414
37.3675
2.10524
1.20112
22.0072
-4.59278
0.375761
7.43781
4.14546
13.3992
5.00833
-6.08557
10.2878
15.3186
12.2374
13.9804
36.0236
28.3092
25.7376
38.3286
33.8077
7.20154
-0.804567
-3.13597
-30.6148
33.4545
-9.54561
19.449
17.2696
-13.9907
8.36407
21.6199
-7.67881
9.53833
10.2102
41.018
-16.5689
7.48916
1.40183
23.5258
1.76374
-13.1503
33.0285
27.9366
19.01
19.6894
-5.33958
4.91502
-21.4515
35.8827
0.20891
39.0136
-15.6535
1.37857
-126.624
8.9505
-150.514
2.79221
-1.05571
3.9128
1.0175
4.89218
-13.1583
0.0335845
-3.97034
-102.062
-6.69758
-21.1969
1.40668
-1.06254
-18.377
-15.2423
20.7446
21.1278
25.7994
17.7047
6.50791
6.92599
43.9578
19.2991
-17.3005
-0.271865
-3.34639
13.3337
16.8796
30.6102
-11.3177
-11.6298
15.8004
-0.126834
3.82527
24.5109
-116.1
-14.1372
-24.4655
36.4483
-14.3737
11.4446
25.2825
-15.697
15.0433
-0.230434
-16.2798
-16.1497
0.991796
12.1092
23.9928
24.9799
-20.4948
-106.667
11.927
-25.4786
-6.18225
-3.83183
2.75068
-4.53402
0.0106205
-13.5295
-16.4956
-9.52084
31.7157
-14.7834
34.6882
-14.6488
-2.00671
5.21426
0.967174
29.3042
19.9731
22.4732
1.01658
-4.71082
-16.3912
28.4919
-117.298
12.7934
-0.397098
23.201
28.9144
-0.581968
19.077
33.2617
22.0077
21.0952
-51.5522
-12.456
6.90284
-7.92564
-1.1963
10.3464
13.4511
2.65134
-16.6971
4.73056
0.53403
17.1242
13.8526
-5.96471
35.3734
1.86347
-0.183542
3.27189
17.9954
-5.79714
-0.464789
21.5331
-12.7553
1.84071
-6.64825
21.5114
17.8886
16.4452
-0.266242
16.8345
22.1219
22.407
-4.90915
0.457068
2.33497
16.2013
-12.4117
-83.3334
-10.8807
-23.204
-15.2545
0.0177914
-1.719
-0.0859771
-114.571
-8.50615
-13.7573
0.455956
-4.82305
5.06335
-15.0777
19.7511
44.4871
4.31476
-3.67138
6.62455
-0.259561
3.12621
0.931052
-5.72723
-10.4907
3.5617
26.9854
0.385473
32.7404
0.0456839
17.5384
15.7327
7.50233
-95.6028
10.6202
36.2398
-18.9361
17.9252
17.5987
30.5825
1.00223
27.8583
21.9103
-130.903
23.4464
-16.7169
-19.5109
28.6923
15.6277
-21.8151
-2.4937
25.7123
-4.13904
-7.61068
0.197111
0.727611
13.824
9.16247
19.4566
18.5318
15.77
-44.9954
-7.53334
-4.59029
18.0279
39.1427
-6.32721
-20.1693
-103.712
20.3793
1.6526
2.58536
5.99362
-11.4072
14.725
-20.1609
0.470439
34.4847
6.65387
-0.285455
-12.6174
-13.8749
-8.346
-34.4416
-9.70129
-14.177
23.2103
8.52749
-7.77594
32.8048
0.0979461
-15.9554
-3.80418
-19.7069
21.3625
-100.874
4.54039
19.7796
0.417835
-5.04618
-2.17269
-17.381
-10.4154
20.6604
-13.9144
-0.422952
-21.5919
17.5499
20.8053
-14.1379
25.4645
23.5061
31.4232
31.9193
22.0991
3.10296
37.0899
-24.5792
19.057
-2.01367
-12.1871
23.4934
-11.4051
30.7516
7.93042
-18.0259
-52.612
-38.5857
20.136
-10.5242
-5.12325
1.77838
-24.5037
0.722369
10.9968
1.9677
13.7506
36.4048
-142.624
-9.1987
-10.6299
21.2098
12.9766
-7.3701
43.8471
-0.773141
0.160869
10.6805
-19.9982
15.8079
20.2589
23.4187
23.8422
0.855256
9.18083
18.2511
4.13985
-31.9991
-0.1932
21.91
22.7213
28.4224
-19.6694
1.12118
7.56826
9.94929
2.08748
-11.573
14.6812
-5.44129
15.1009
19.2878
-21.2676
32.846
-7.49096
35.3069
22.9598
-13.3453
-0.101408
0.284816
6.37205
20.1625
-12.593
27.7081
16.9938
8.17728
0.211413
4.36454
-7.81253
8.06243
-22.523
10.6605
-10.0893
18.254
-72.1472
-4.62216
-4.72479
23.7658
29.6898
7.8
-64.478
6.21613
-1.83076
1.79389
8.09709
-24.9456
-18.0451
34.7888
-12.6093
-0.852104
-9.78894
-18.657
-16.0468
19.6413
-21.9747
-3.99292
19.6265
11.4019
20.2998
-13.933
7.61664
34.9273
-41.5966
18.1026
4.85816
-27.9676
5.66886
4.66672
-13.0592
35.8554
22.9326
1.41876
34.5664
26.3442
24.0087
-26.7005
-75.4783
11.9998
-20.7534
-14.9696
-17.9403
-20.5328
-17.719
15.1166
6.09538
10.3029
12.0291
-24.7679
14.2655
18.4729
-18.2104
21.4776
10.8504
17.8325
-1.95946
-1.11848
-13.945
-33.9882
-13.8504
-4.57465
18.2276
-12.1133
31.9315
-14.0073
17.7558
11.2052
-0.004523
-2.33474
20.2161
6.96949
2.70083
17.3743
-1.61694
-0.704232
30.0339
22.5406
-7.60719
-14.1568
-7.40536
16.1988
-1.98238
6.07249
-19.4633
-1.09263
-2.87258
0.373174
16.9029
16.4434
1.07712
6.75988
-2.78023
-0.541044
-11.1945
23.6026
-14.1283
18.647
0.309467
15.6581
21.3892
8.69575
18.0035
-6.11783
-12.8577
0.149338
-77.5763
-11.6884
-7.45333
0.915981
-11.3723
13.7541
-0.914028
17.9786
-16.6042
-13.0198
-27.4323
-0.395236
20.6168
-16.2381
18.9101
4.83832
-10.4279
-13.6702
-13.9537
12.215
18.5663
-0.456339
3.32497
-88.4976
24.0972
-17.3326
4.07688
-14.2807
24.7764
9.13092
0.138744
20.3395
20.4468
24.0194
7.59968
24.4284
-45.27
0.593878
-2.53281
19.4156
9.74773
4.67176
-6.05904
-10.422
-13.5041
9.21232
1.75272
-13.0275
34.0367
-56.1651
24.123
12.8549
-5.22277
-1.33184
0.610451
-1.46833
0.629293
3.32115
17.2935
-0.123822
18.4521
-27.3226
5.90242
-16.8821
0.220403
-10.5218
25.6719
35.2984
21.1491
9.39685
-1.41973
11.3796
-17.0005
-23.3694
0.163067
-2.3776
-7.87741
-13.4008
-10.7479
-7.79784
16.6885
19.7064
-20.5504
4.26458
21.6065
-7.84282
-19.7232
20.3168
-0.781409
-15.7898
0.418842
-4.12253
0.160276
32.8248
0.0359006
18.8355
-19.3571
-11.2804
-8.22151
18.7297
1.58955
15.2998
-19.6143
-9.32443
0.985212
-2.59259
22.0947
16.1505
1.67505
-2.58918
-4.41239
36.9443
-17.5656
22.8338
25.6776
-5.16642
-0.436231
7.42162
-97.4519
-21.5325
15.5967
9.54119
18.6185
-11.6464
20.3692
0.537924
28.4398
-3.11282
16.1878
25.0439
14.4806
4.04147
-14.1848
4.09671
-19.0833
16.6055
6.4921
23.9849
0.737005
31.3024
3.6522
33.7261
0.807781
25.7597
-3.89299
14.1347
-16.4604
16.7983
8.07256
5.94578
30.6828
19.2061
5.2868
-6.96309
10.094
18.076
-0.853838
-31.2329
13.1012
1.11119
25.8993
-13.6167
31.9649
3.32527
44.0943
31.6206
13.5834
12.0376
-16.195
0.317135
34.3589
1.62556
-2.44293
-1.90421
34.4675
7.37854
16.379
26.937
-11.4145
21.042
-3.75047
24.054
1.07962
22.8674
19.7141
28.7629
-0.153399
-28.4325
4.12276
-14.3691
7.50739
-1.9293
0.738933
25.1377
29.6815
0.217286
2.61684
-2.86011
26.9885
16.1313
17.8525
10.1681
-2.24415
-64.1125
-13.8888
19.4144
-28.6281
-9.45756
1.11427
12.8613
7.96838
-7.11553
36.2857
-16.954
31.9452
2.33143
33.1763
-5.66287
0.725063
-0.0528154
1.42521
15.7836
18.0918
2.01388
-6.56118
0.630598
-11.7135
29.9949
-8.31949
-0.805535
-25.3617
-2.28617
3.05451
24.9048
7.29977
0.932074
0.336188
18.4423
39.1742
-13.9998
1.56267
19.0165
-32.314
7.95895
-0.0737127
13.132
-3.97696
-48.1639
-7.96048
-5.74769
-2.38067
1.58265
-16.2009
-7.88562
-2.68257
12.6958
20.4502
16.0168
37.9938
-15.5435
34.4314
-72.888
32.1646
-12.417
-11.5224
36.5602
5.87762
-6.569
19.9596
-1.30632
22.0772
-30.4939
-20.9883
3.70201
-7.21376
-7.84871
-0.0654786
-2.37612
5.49282
25.5813
-11.5054
6.79026
-25.328
3.5921
-21.33
-0.567465
-3.07421
-17.4415
-22.4137
25.0656
-0.949983
29.2934
6.45652
-16.4456
4.27074
-20.2472
0.820286
16.0229
24.9863
37.6244
13.2035
15.2828
7.09888
-145.148
36.1348
39.47
20.7085
-12.1578
-12.0207
-19.0966
18.0666
11.7405
5.03206
14.504
-10.4769
-0.388203
-18.041
30.1986
1.39791
0.189033
-12.7908
18.927
4.83173
42.6801
39.4216
17.9557
-4.00711
1.20594
-54.1396
5.63486
40.448
-12.6487
0.396229
13.6816
-0.446617
4.22997
-3.171
-5.72398
5.33132
2.7175
8.37359
0.0577579
3.73018
28.3381
2.67634
20.973
-12.0327
-6.28612
35.184
-13.9468
-1.04098
-0.026475
6.77963
-0.354508
-14.2089
-0.51707
0.921128
2.53631
42.8059
-99.927
-19.5185
-8.83193
-17.8626
-9.89591
0.722
-14.6358
-16.7189
0.056472
-25.3403
-18.0989
-8.16405
-0.00400738
1.00418
0.210655
42.1526
-0.891665
5.42531
-2.24498
2.87091
-92.8329
-4.85025
27.3908
18.8412
5.58884
-1.44559
18.9757
20.7126
-31.8788
-13.5303
0.0299553
27.1579
-8.00467
16.1528
-0.962189
31.4125
2.80447
-11.6726
1.3732
20.5224
-6.94469
16.7049
-11.7822
40.2317
-14.4196
-5.44329
-16.9479
6.74242
-13.5436
-10.6796
-13.9281
2.88732
6.26643
-11.3081
-20.2338
-2.25809
3.58179
-6.81543
-17.7121
15.6564
-19.9949
16.6274
-13.4934
21.7031
35.902
18.2943
-101.555
20.0127
2.6674
0.223549
-0.718878
-7.64861
-18.1285
1.44363
-4.7556
6.66843
-1.95268
-20.9277
-9.61385
-15.923
10.2674
18.0916
-23.0974
-13.8591
-7.75876
0.145634
-2.22257
10.3571
-59.0053
-13.7201
18.5994
-15.0722
9.92285
-10.5018
-16.5594
-15.2338
-15.4341
41.9873
4.45028
-9.02296
3.14372
33.7968
35.3479
-10.7706
-4.15949
18.566
-0.482374
1.50715
34.3064
9.67684
17.3695
43.8505
-8.72129
2.17016
0.625676
30.1075
19.5457
20.6671
24.7651
11.8841
0.287919
1.44612
6.11812
4.6857
-44.3779
35.461
-17.3212
-14.1888
0.0970748
-6.80334
8.00798
-12.4999
-4.38305
4.99688
20.6671
19.9704
23.3349
-17.15
29.9252
34.5198
-18.6443
11.7024
-1.36589
-0.27563
-1.29938
9.69624
-9.34594
-7.94922
-20.4112
39.0877
-16.7262
23.1431
19.4681
27.438
14.0907
14.38
-4.00416
0.519219
10.028
-1.14654
-19.8858
-22.2247
1.86155
-14.7351
24.5647
-11.0911
-0.265187
1.76493
-113.875
-12.532
-25.7271
17.1386
-4.4076
-0.157663
5.27175
-9.85019
5.22721
-20.9547
-1.72618
20.7525
-16.1606
35.3839
0.0885666
38.0407
0.847278
0.574939
2.93884
15.0824
16.5106
-32.4867
-2.0743
-6.96175
2.29746
12.7444
44.3337
27.4652
3.73017
-6.78715
9.04752
-1.01121
23.3246
-1.41805
8.72648
-13.6133
-13.4451
-77.1465
3.94234
0.0481797
-102.481
12.0189
11.4947
34.2132
36.954
-28.7565
-17.518
1.83368
-19.2326
36.1764
-7.99672
-12.3489
5.96319
13.395
-9.21995
-13.6038
3.30303
-0.408703
18.1191
-9.24949
1.22352
1.44428
-12.871
-28.884
-7.16862
-30.464
-25.2089
22.1854
-10.2489
-11.658
-4.28937
-1.67295
39.6736
14.1976
16.3949
-4.25538
8.46165
-2.39584
5.71283
4.21301
-14.3947
-66.1406
36.1022
20.1316
-2.73949
-112.768
41.7425
-12.9568
-78.0869
-14.0024
8.30228
-13.426
-10.3582
30.3332
-3.14392
17.9116
6.1732
-15.5782
-42.6921
0.600017
10.1453
-32.9959
-1.24695
4.28379
19.1122
-13.8381
-83.632
-8.57265
-5.24692
-21.3214
-17.6593
38.5072
11.7394
-13.1076
7.51635
2.65869
33.3122
9.7787
-74.3607
10.2919
25.3695
22.5518
-7.49608
16.3279
-5.79685
35.8373
0.157116
18.9891
-15.3414
-6.92584
0.0293869
-13.1299
10.6233
4.2586
-80.6259
-13.3832
23.8655
-13.9057
-2.40957
27.9261
11.5785
27.1902
16.3936
-9.74168
0.31025
-1.33121
19.497
0.357965
25.166
15.0222
35.1757
-14.6985
26.3425
7.5935
35.3047
-16.2942
-11.8471
36.4159
-14.2406
14.5757
-16.9146
31.3789
34.6448
19.6846
-36.571
18.1966
26.1717
-6.53983
5.50104
-10.4084
28.005
-13.8479
-15.3433
-18.5765
-19.649
25.5081
7.55065
-22.2279
8.80023
34.5296
-14.1258
-5.45804
-21.5709
-12.1757
16.6808
-2.43762
17.181
17.6969
-23.1171
39.9473
-0.368087
28.8664
29.4407
1.4172
-0.297972
17.1639
-20.7241
-3.65215
17.275
14.2492
-8.33341
18.254
-15.6043
32.3541
20.4963
6.24354
-8.82344
22.8137
-9.47984
10.2004
27.1944
3.8207
0.0596616
25.916
21.1111
-7.79058
-120.141
14.5924
22.3445
35.561
-147.24
37.9212
37.3515
38.4586
-1.99184
24.6657
-14.9495
18.9728
27.8885
25.8727
22.0034
30.2997
42.6143
16.1039
-121.909
-4.82571
-57.4821
42.1771
9.48639
-7.79619
-14.0071
17.0631
29.8214
18.9202
4.66419
-1.81884
29.4423
-19.2801
21.5026
-13.8735
7.05998
-0.532424
2.39166
12.2923
-14.3127
-14.0225
-10.7735
-5.04481
-0.401326
24.4348
-6.6742
3.366
18.1457
-16.0947
11.5919
-0.0770276
-15.375
-15.5677
-97.4849
28.6186
30.8292
-13.2224
6.13289
25.7051
22.7709
0.196944
-9.96456
21.5866
-59.9157
27.7775
-15.1022
26.6717
10.4929
0.0926006
24.6864
13.6541
26.3996
5.33235
7.31278
-5.70977
-108.813
-17.6145
-0.967018
25.9466
-10.8098
-9.33941
-10.4997
29.041
26.383
5.25496
14.0865
29.214
-23.1172
18.5718
0.359435
-7.17985
18.1816
-10.957
-16.9908
-16.9052
-31.7558
-4.18069
-13.0408
0.0757445
-19.7357
-163.297
15.4011
35.7425
39.9061
33.6714
-10.7674
21.6143
-15.4238
18.567
29.2086
0.900465
25.3082
-10.4661
5.79809
-8.22174
-3.68921
28.0241
-17.8787
22.7755
-17.5907
-6.62564
-29.5428
22.8495
22.3872
18.424
-16.5873
17.9605
-29.4909
-22.5781
-23.0766
4.76579
36.2962
-30.0895
-4.29203
-13.4827
18.8746
17.8696
-1.0394
12.5696
-17.1699
29.8475
27.7263
-9.54974
-5.71323
29.1794
-10.1518
-15.0233
-2.27969
25.812
30.0363
-14.8111
13.2475
-5.31829
35.0317
-21.2229
-7.47056
-3.28715
32.8053
-1.18443
-5.75651
-9.69003
28.0632
13.2928
27.5314
-2.40079
-26.4003
22.0661
41.2187
-103.768
17.868
-2.92177
-23.9237
-2.1116
5.92468
-14.2324
12.5864
-15.9198
10.6714
-9.73617
-8.03061
24.9424
30.8382
18.5146
-19.7259
-7.12431
23.8103
-17.2839
4.23682
-7.90556
8.91134
-19.3504
20.2015
23.6818
-2.1286
22.2686
34.8993
-3.35373
15.7797
22.2726
-23.6623
10.1087
-7.36002
8.19319
3.84641
14.5305
0.145069
5.7044
-3.45904
-52.559
29.0052
4.91641
-0.501747
-9.52639
-3.14954
19.9517
-17.9842
38.3254
-16.4863
-37.3079
-9.94941
24.9579
22.8078
27.7766
-51.9846
33.5261
-12.571
15.3889
2.58876
-17.8283
16.6677
7.68391
-4.93733
12.3592
-61.3428
13.3331
-22.3344
-10.3714
0.735686
-14.7983
-15.9078
17.4369
34.2551
1.53784
-15.0723
25.905
-18.3058
30.8781
6.25826
-1.06992
9.14155
19.0062
9.16108
-10.3521
-9.56737
-1.54273
2.75445
5.0436
-17.2378
-13.1242
0.847645
11.1706
-5.0214
42.6046
21.5808
17.8927
31.4935
0.904547
21.1817
-9.91849
-38.5884
-10.487
18.2914
41.5915
18.2144
-13.4698
28.7679
18.8965
19.1337
0.516194
-2.49795
8.61437
38.6481
-10.318
-7.99454
23.3146
29.7173
21.5359
19.5286
24.2334
13.3293
-22.757
-11.4135
21.6563
-141.224
-101.104
17.052
-10.6598
-6.90127
2.76624
21.9139
23.0129
23.1174
-4.31799
27.3541
28.3036
0.125352
24.45
20.6893
16.536
13.4937
12.565
8.97525
-0.357855
25.4716
24.5487
0.395093
18.2761
-4.36655
0.424337
33.7966
25.2181
-0.965675
-14.21
2.2514
26.3834
13.2802
1.32623
-0.595946
2.86655
-6.18345
3.82366
-13.7817
-3.34016
14.031
-2.9421
-13.1905
-16.7835
32.212
-14.8074
-61.263
-13.3252
34.2679
-4.67128
4.28295
1.36739
-20.0831
14.5084
16.7585
11.0019
30.2549
15.9554
-2.32899
-66.9279
-14.0007
-0.382784
23.2533
0.495741
-15.2282
-21.9967
-4.69324
-62.8573
-13.2875
-21.2998
-2.16502
4.60585
17.8125
27.007
-4.01042
0.108477
30.2164
20.9626
-14.74
-6.45441
-58.6646
10.644
2.69051
9.81414
15.0858
-15.2274
-4.91016
-5.50288
2.97343
-11.4978
-74.5418
2.27081
-9.78634
-40.8974
-20.8258
-13.5595
2.17251
-48.0268
8.93484
-15.4178
18.3742
15.793
1.40134
25.4861
-12.9197
34.6442
-6.7015
-0.819573
-16.1994
19.2634
10.9163
-108.872
-42.8658
18.6706
23.49
36.0017
-14.4559
-52.132
-12.1859
-2.252
0.230088
-16.729
3.6661
-17.5049
10.7682
-15.2811
14.8437
-4.82336
-0.992512
30.5381
16.9585
-20.4759
-0.694944
-18.799
-117.56
25.8088
39.9514
-97.4903
25.221
17.2668
0.121291
-22.1312
24.589
23.2828
-21.8783
-4.04493
-10.6911
-12.4864
-16.2995
-17.6405
-16.8045
10.8165
0.122951
20.6814
-16.1678
-21.2124
16.6741
-16.4354
-18.3869
-1.1855
13.6573
-19.8755
-9.70975
-22.1419
-16.4499
-17.8036
36.7099
-43.281
-4.61162
-15.1099
20.9247
-27.5742
-2.31371
-18.4629
-15.7159
-6.87165
22.7737
0.120982
-16.9355
16.0249
0.686239
-6.38419
-16.7542
-17.0117
13.1687
15.4084
18.59
-33.4224
31.1432
-5.11553
-0.0397276
0.94679
-35.504
-11.6306
-16.9119
-10.6985
3.28019
6.92147
-0.0658756
-6.31513
-11.4259
18.271
-14.5901
18.539
-15.2465
11.0823
-4.16842
-14.6988
0.991313
45.2582
-14.0607
-21.5014
-30.6368
-9.77323
18.9904
0.0715854
0.602307
1.16899
-22.481
-14.3424
-160.941
-17.3121
22.4217
-18.919
2.02261
-23.1917
-1.24481
17.1869
1.43375
6.45727
-6.84388
26.9353
-26.6076
-7.86139
29.2175
6.55751
-25.3704
-6.08048
-15.8321
-10.8072
-6.22004
25.9161
-11.0075
5.88696
-48.7304
-14.9246
-17.4612
-18.4409
-65.7828
10.6007
-3.32501
18.5124
5.12157
-13.6694
34.227
-12.2296
24.5831
30.5528
-21.2266
-1.42146
20.7209
16.766
15.1909
-9.7115
-12.8458
-13.9399
17.9268
3.8169
-9.83252
-16.879
9.67553
22.9748
-5.21928
-3.85677
-1.1221
28.5218
-20.7227
-22.661
-0.475789
14.9498
-1.81683
0.186151
31.2393
24.173
-0.0640225
-10.6394
25.4835
7.89946
-2.78762
18.3763
-5.16253
-11.4917
-14.7946
-10.3343
23.876
21.6153
-2.09012
-7.5885
0.734008
-17.4468
21.9125
-10.2235
14.9907
27.0848
29.4752
-5.79354
18.1656
16.9777
22.6162
24.203
-4.5899
24.103
0.208959
18.1211
9.49177
20.7555
-14.163
24.8414
23.6633
14.3222
11.0832
-7.6806
13.1231
0.705677
-9.02344
28.0609
26.8828
-9.62217
26.9798
-10.1313
-120.316
21.3926
21.4185
-16.5295
-3.39086
-44.9541
-10.1958
-23.6693
-12.1973
-16.2469
-7.25401
17.9421
38.1873
26.0778
-4.25712
-13.6047
21.3133
8.07396
-15.4596
-11.398
-6.9388
-23.9545
-157.208
-102.48
18.8215
0.714259
6.57636
0.131352
0.204811
-1.16493
-0.778883
4.15094
8.81825
11.842
-6.8725
8.86241
-49.1742
-13.8957
12.5052
9.32784
-2.42492
-8.27973
11.463
-0.662601
5.61076
-6.99979
17.9676
15.7878
32.9706
18.6171
-9.32254
-6.92899
-8.29041
-6.49285
-0.400236
-0.307819
-2.71183
-9.7181
38.6832
1.97879
-25.7945
30.5292
-13.7594
-15.5805
-27.53
-14.127
-49.3522
1.58216
-16.9298
19.2113
-3.17845
-8.67671
1.08823
-6.7867
-10.4965
-13.4397
1.23507
13.7677
-14.3809
-12.6264
-18.0405
6.37633
-10.846
20.6419
31.6063
-6.50794
21.326
9.84777
13.6877
34.6668
-13.936
10.3139
9.20438
6.23549
29.6788
-9.28235
-2.49923
-10.4079
20.3064
31.6754
-9.8679
-0.118342
-9.96523
-9.6147
7.87387
-7.81895
-19.114
-7.04455
5.66819
-66.0049
4.60754
4.81366
15.9888
3.67643
-139.498
1.19952
-0.434092
-2.33597
33.8042
38.333
27.6443
40.2865
15.8262
23.1938
23.2305
19.4247
17.3978
-8.50011
20.161
-6.29181
-161.468
30.1753
-2.74036
-10.7405
35.9985
-1.44031
-13.2978
8.02823
6.68498
23.6533
-27.2447
16.9623
32.7305
-13.8313
-132.554
-18.2856
13.8258
-15.5492
26.4022
-2.99173
23.9254
17.6247
-13.0512
22.8901
-6.94981
-84.784
-111.067
-11.0624
24.64
-9.5775
18.0431
-0.710593
-17.0218
1.64523
-1.18964
-27.8526
-7.64876
-39.8007
24.6948
3.18663
-17.9954
-10.4605
10.5967
3.6668
-10.6879
6.89377
0.0733708
8.38421
-21.3772
9.37206
2.52577
10.9792
-1.72887
19.0553
10.7075
3.35835
-31.8024
40.3755
-10.2318
-23.1766
19.1199
15.77
-17.4672
-10.0392
-13.9371
11.1936
9.45802
-9.35956
-2.42474
-3.12639
40.5653
1.05384
-13.1918
1.82889
-5.79487
12.8235
-4.01497
18.1392
10.7533
-15.7558
12.4027
-59.1167
15.228
6.32649
19.7309
11.9434
-0.854
-0.269559
7.9155
20.5216
-0.738602
1.82368
-23.9775
-13.5245
-8.233
15.4046
-23.7586
8.21963
-33.1628
24.907
-17.2703
-5.53789
26.5779
23.1796
7.30465
-13.8716
-52.4936
21.6869
-40.8904
24.6236
9.59125
1.04519
19.8954
4.05332
3.44763
3.90767
-6.17989
-7.71947
11.2124
-14.9702
27.48
5.31864
41.1189
-1.19008
3.82351
23.9413
1.74299
6.89809
20.7693
16.3694
10.5202
-10.3313
-0.754646
17.7474
12.4596
4.03131
-11.0592
-2.10754
-13.681
-17.5828
-7.1307
15.8571
0.203986
16.3475
-3.81713
33.4907
25.3719
5.5688
15.6678
4.62327
-29.3761
17.2616
13.3884
-0.573909
7.08763
24.1543
21.812
-0.832686
-11.0351
-23.9188
17.2788
6.80969
1.05124
20.2851
-12.8395
18.0339
-25.6736
18.793
6.96439
-0.427563
7.02304
22.447
-1.51964
20.0794
26.6756
4.23024
-4.27045
8.71799
2.69074
31.4083
-16.9789
28.1325
23.1198
-17.258
-6.78418
0.0666519
-6.53373
-15.3355
-9.49518
17.3311
28.17
21.1318
28.8727
11.5218
25.6865
5.94303
2.45665
7.28611
1.34693
0.434013
17.131
0.809761
29.9517
5.10353
-23.7168
12.6619
29.767
31.4819
-15.0103
9.71221
-8.4651
-157.539
8.32191
-6.82574
-13.2738
8.51185
31.6433
-44.6071
-16.4279
-14.7364
6.53081
2.75041
1.64139
18.6211
19.733
-15.9646
1.66335
0.316911
-15.1281
17.4921