/*--------------------------------*- C++ -*----------------------------------*\
| =========                 |                                                 |
| \\      /  F ield         | OpenFOAM: The Open Source CFD Toolbox           |
|  \\    /   O peration     | Version:  2306                                  |
|   \\  /    A nd           | Website:  www.openfoam.com                      |
|    \\/     M anipulation  |                                                 |
\*---------------------------------------------------------------------------*/
FoamFile
{
    version     2.0;
    format      ascii;
    arch        "LSB;label=32;scalar=64";
    class       volVectorField;
    location    "8";
    object      U;
}
// * * * * * * * * * * * * * * * * * * * * * * * * * * * * * * * * * * * * * //

dimensions      [0 1 -1 0 0 0 0];

internalField   nonuniform List<vector> 
13486
(
(1.42916 -0.218002 5.53615e-19)
(1.66094 0.28021 2.8292e-19)
(2.69681 0.0369887 0)
(-2.03617 0.960541 -1.4659e-18)
(2.35471 -0.42846 3.84885e-20)
(2.4822 0.17533 -3.49973e-23)
(2.47203 -0.179105 -8.2729e-21)
(1.98856 -0.696579 -1.94644e-19)
(1.93684 -0.372366 0)
(1.97164 0.758722 0)
(-0.844974 2.56694 -8.95199e-19)
(2.50052 -0.0754168 0)
(1.26963 -0.415789 -5.42657e-19)
(2.42331 0.787382 -9.92099e-21)
(2.37888 -0.216763 3.45821e-20)
(1.93003 0.748468 -2.03364e-19)
(1.01788 -0.274948 6.94931e-19)
(0.545879 -0.661615 2.08487e-19)
(2.18052 -0.0108915 2.49023e-21)
(1.61092 -0.0502136 -5.67892e-19)
(-2.08302 0.436658 -5.88617e-19)
(1.29017 -0.431652 7.00075e-19)
(1.6823 0.274918 -2.26144e-19)
(4.0206 -0.659989 0)
(2.0294 0.611906 6.95663e-20)
(3.89721 -0.632961 -3.65263e-19)
(0.387851 -0.229249 7.95801e-19)
(3.01881 -0.209089 5.91669e-19)
(2.02587 0.1183 0)
(2.85958 -0.466674 -4.7323e-19)
(-1.70502 -0.333285 -3.72338e-19)
(2.36664 -0.178877 -1.02157e-19)
(3.33583 0.00014617 4.55106e-19)
(2.27095 -0.148515 0)
(1.9983 -0.669354 0)
(1.70682 0.013591 1.59733e-21)
(1.59172 0.113824 -5.52249e-20)
(1.4567 -0.683306 2.48361e-19)
(1.79511 -0.183478 -1.65481e-20)
(1.96786 -0.227287 2.51677e-19)
(2.56312 -0.737866 0)
(0.852774 -0.422477 -6.35122e-19)
(1.98591 -0.00337998 0)
(2.04743 0.510346 -3.28151e-19)
(2.06561 0.50972 1.35256e-19)
(2.50115 -0.0749996 8.26717e-20)
(-0.934747 -0.238139 1.33643e-18)
(2.00487 0.115897 -1.21126e-22)
(1.60909 0.12115 4.16655e-20)
(2.84942 0.018195 1.9816e-19)
(1.99947 0.025691 3.49349e-19)
(1.85463 -0.0457654 0)
(2.51325 -0.176496 -1.36553e-19)
(1.62488 -0.600037 -3.68614e-19)
(0.554954 -0.932022 0)
(2.31931 -0.4392 -4.16331e-20)
(2.47025 0.705059 4.77188e-20)
(1.85002 -0.0969684 -7.48609e-20)
(3.32594 0.0306484 5.51949e-19)
(1.32193 0.0570372 0)
(-0.933258 2.64262 -1.21079e-18)
(1.31428 0.104449 0)
(3.66607 0.623894 -3.63603e-19)
(-2.01272 0.443602 -6.25091e-21)
(2.20397 -2.48192 0)
(1.55388 0.133083 -2.97215e-20)
(-2.29563 1.05148 -1.49365e-18)
(1.41611 0.0450487 1.94403e-19)
(1.93705 -0.394679 -1.36343e-19)
(1.59613 0.0122287 1.83121e-20)
(-2.09545 0.990489 1.70919e-18)
(0.582871 -0.853327 8.47251e-21)
(1.988 -0.110402 1.94381e-19)
(-0.718282 0.115149 -4.42677e-19)
(1.49045 0.227091 -8.21834e-21)
(2.52346 0.640861 -9.11042e-21)
(1.50948 0.237904 2.19513e-20)
(2.38633 -0.224338 -1.22859e-20)
(-0.767863 0.0856041 -7.03023e-19)
(1.86333 -0.612969 0)
(1.9682 0.0285021 7.70082e-22)
(1.60256 0.379406 -1.81198e-20)
(3.42742 0.553163 -1.94387e-20)
(2.78108 0.0266711 -2.70385e-21)
(1.42085 -0.230332 -1.08294e-18)
(1.30121 1.62042 0)
(1.58706 -0.31716 1.02373e-21)
(2.00169 0.040046 -5.33214e-19)
(1.8676 0.209672 -2.30869e-19)
(1.80974 1.00974 -2.37393e-19)
(2.39978 -0.222064 -8.1546e-20)
(2.13207 -0.57668 -8.90714e-20)
(1.48886 -0.320414 1.39707e-19)
(1.6508 0.0814379 1.51542e-20)
(1.83473 -0.566735 5.4527e-20)
(1.98821 0.0952827 6.2647e-24)
(0.422124 -0.236221 0)
(-2.55261 1.1282 9.18939e-19)
(1.98228 -0.224522 -4.80719e-19)
(1.20506 -0.217748 6.85891e-21)
(1.87434 0.0220579 0)
(2.39301 0.782211 -7.1439e-21)
(-2.61703 1.04034 4.98735e-20)
(1.84491 -0.0814261 8.7745e-20)
(1.26744 1.56728 0)
(1.14951 -0.144482 8.52451e-21)
(1.97816 0.0610268 1.37366e-22)
(1.80621 -0.210129 -3.64963e-20)
(-0.784903 0.0711366 9.23022e-19)
(1.80978 -0.808697 0)
(1.26516 -0.60627 0)
(2.34558 -0.157006 -7.94796e-20)
(1.63505 -0.581169 3.72271e-21)
(2.3708 0.349316 -5.24257e-22)
(1.05263 -0.0571842 0)
(1.20844 -0.596501 -1.91539e-19)
(2.02399 0.62904 0)
(2.38534 -0.120481 0)
(1.978 -0.110016 0)
(1.68547 0.131179 -2.18032e-20)
(0.653333 -0.615887 -9.26492e-20)
(-1.1473 2.64002 0)
(1.80444 -0.509318 0)
(1.80238 -0.186591 5.33815e-20)
(1.8833 -0.655063 0)
(1.8435 -0.0420935 0)
(2.20092 -0.234856 4.71852e-21)
(2.20218 0.0768371 1.34901e-19)
(1.91242 -0.0677805 -6.63851e-20)
(2.57651 -2.60844 -6.20669e-19)
(1.82475 -0.0292423 -9.24083e-21)
(-1.1569 -0.316877 -3.37402e-19)
(0.417765 0.452341 8.23158e-19)
(-0.222403 0.160755 5.79011e-19)
(1.99954 0.0130087 -5.66471e-20)
(1.89154 0.416891 -2.76578e-19)
(0.631905 0.712384 -1.6878e-19)
(1.82931 -0.798874 0)
(1.69957 0.127281 6.03732e-21)
(2.0193 -0.551492 -7.58998e-20)
(3.13753 0.0936699 -4.61627e-19)
(2.50407 -0.188884 1.1578e-19)
(2.41006 -0.163957 0)
(1.89417 -0.582589 0)
(2.09392 0.00298461 -7.76067e-22)
(3.69005 0.579085 -7.36727e-19)
(2.1379 -0.0989217 -1.30204e-20)
(0.279724 1.61892 0)
(2.86108 0.0445343 0)
(2.03134 0.110695 0)
(2.01047 0.0190727 5.78029e-21)
(2.42324 -0.287219 0)
(1.95706 0.0156908 -8.08338e-22)
(1.57833 0.378326 -1.54829e-19)
(2.19055 0.329046 0)
(2.88544 0.0515254 0)
(1.64925 -0.737125 0)
(-0.554978 0.465134 2.46865e-19)
(1.7257 -0.688703 4.90784e-19)
(1.90889 -0.534481 -1.01363e-19)
(2.72979 0.0246963 1.01112e-19)
(1.73532 -0.668452 -7.42896e-19)
(2.32998 -0.26972 8.11738e-20)
(0.758763 -0.360779 2.7784e-19)
(1.86781 -0.0607572 0)
(2.53066 0.783367 -3.09149e-20)
(2.34701 0.713302 8.51697e-20)
(0.432517 -0.127141 -7.0676e-19)
(2.10831 -0.098491 3.30741e-20)
(-0.233939 0.176694 1.55951e-19)
(0.290453 0.405395 1.31319e-20)
(2.18502 0.301322 1.12496e-19)
(1.99746 0.0822982 -4.50111e-19)
(2.30902 -0.155364 6.78503e-21)
(1.95671 0.0567938 -3.29043e-22)
(-2.29854 1.15102 0)
(2.38759 1.10106 2.11273e-21)
(3.22946 0.179058 6.05778e-19)
(1.98603 0.057438 -5.44874e-19)
(2.41629 -0.155792 0)
(2.01708 -0.273371 4.83601e-19)
(2.36346 0.31658 -5.45624e-22)
(2.35448 -0.139044 -1.98867e-21)
(-0.607955 0.495518 0)
(2.66122 -0.0502885 1.60356e-20)
(2.78393 -0.19018 -2.65848e-19)
(2.09683 0.104333 -2.73028e-22)
(2.78253 -0.345559 -1.33899e-19)
(2.57868 -0.712609 0)
(1.08407 -0.522379 -2.55441e-19)
(1.64231 0.143962 0)
(2.52363 0.0604258 0)
(1.89654 -0.144939 0)
(1.27159 0.826305 -3.29205e-19)
(1.9468 -0.176844 0)
(-1.06141 2.52712 -2.52421e-19)
(2.34937 -2.79035 1.34859e-18)
(2.63756 0.00137778 6.00971e-20)
(1.07788 -0.5319 -1.12679e-19)
(2.5109 0.744582 -1.9753e-21)
(-1.68243 -0.42783 3.87877e-19)
(2.21362 0.0975922 -4.10454e-21)
(1.33941 -0.646111 -2.87035e-19)
(1.77204 -0.749021 -2.76982e-20)
(1.98 -0.672491 1.2474e-19)
(1.97086 -0.164412 -6.73826e-20)
(0.0463256 -0.809621 4.77406e-20)
(1.90895 -0.0453615 4.16671e-19)
(1.88148 -0.150273 0)
(2.67771 -0.0340525 0)
(3.0357 -0.241298 4.40341e-19)
(3.81396 -1.24231 7.98272e-19)
(1.62907 -0.0361455 5.19722e-19)
(1.97168 0.0600099 2.34131e-22)
(2.47839 0.21718 4.03123e-23)
(2.25894 -0.891073 5.72261e-20)
(2.89275 -0.400475 0)
(1.8079 0.993865 5.80062e-19)
(1.57613 -0.343525 0)
(3.12116 0.860575 0)
(1.15311 -0.272406 -1.32847e-18)
(2.8931 0.0832264 0)
(1.99927 -0.547284 1.73512e-19)
(2.69549 0.0385743 0)
(2.5715 -0.205839 -2.36647e-20)
(1.23467 -0.580918 1.8995e-19)
(2.6001 0.387882 -3.11108e-21)
(-1.80353 -0.768798 3.88629e-19)
(2.17156 -0.556755 9.12495e-21)
(1.636 -0.319001 -3.07154e-21)
(2.02619 -0.2645 -1.55897e-19)
(1.82261 -0.098135 5.16166e-19)
(3.17805 0.083146 5.77663e-19)
(0.875076 -0.424203 2.18526e-19)
(-2.48504 0.590776 0)
(1.04805 -0.51004 2.20028e-20)
(2.64535 -0.296419 2.3072e-19)
(2.53469 0.0446682 3.05997e-21)
(0.916967 -0.442953 5.99068e-19)
(2.36677 -0.0883991 0)
(3.40827 0.00565726 0)
(2.00309 0.059422 6.87655e-19)
(2.43265 0.19779 0)
(0.924757 -0.458791 1.95111e-19)
(1.74733 -0.233581 -3.12007e-20)
(1.81164 0.0757385 0)
(2.22816 -0.0110306 -3.42173e-20)
(3.32852 -0.639099 1.00645e-18)
(-0.23363 -0.0696806 9.39747e-19)
(2.01327 0.485556 0)
(-2.67285 1.61297 -4.39512e-19)
(1.01708 -0.0281448 8.32398e-20)
(1.02614 -0.503047 2.36345e-19)
(1.81522 -0.215516 0)
(2.03659 -0.522857 4.78883e-20)
(-2.02371 1.45814 3.75216e-19)
(2.36635 -0.182975 9.32566e-20)
(2.21766 -0.919165 -7.24645e-20)
(-0.118074 0.490188 -2.56096e-19)
(3.40144 -0.0208881 4.11788e-19)
(1.77667 0.225186 0)
(1.73558 -0.227893 -1.05724e-21)
(2.36923 -0.219589 -8.63447e-20)
(-2.27118 1.38694 -4.63265e-19)
(2.26257 -0.677005 -4.2803e-20)
(-0.680071 0.626102 0)
(2.19615 -0.5371 -1.24662e-19)
(-2.03333 -0.103395 -6.10896e-19)
(2.14814 -0.00414342 -2.26205e-19)
(1.11712 -0.47206 0)
(1.51492 0.906761 2.4187e-19)
(1.97736 0.0627279 -1.49939e-19)
(2.91982 -0.423741 0)
(2.52983 -0.119354 7.07882e-20)
(1.16291 -0.559531 2.50864e-19)
(3.21819 -0.673328 -5.62766e-19)
(2.04545 -0.479045 0)
(0.942711 -1.80832 0)
(1.83386 -0.245357 -3.97311e-20)
(2.24799 -0.0912996 2.64268e-20)
(0.948575 -1.92258 2.51226e-19)
(2.13071 -0.179299 -1.74288e-19)
(1.94647 0.0809802 3.24123e-19)
(4.07255 0.166366 -7.47225e-19)
(-1.37375 2.54702 1.44419e-18)
(0.669925 -0.164298 1.32998e-18)
(3.10005 0.183182 4.52019e-19)
(1.8565 -0.090921 8.7051e-20)
(2.6566 -0.208213 3.41568e-20)
(2.11722 0.00462133 0)
(-2.49938 0.690058 0)
(1.58569 -0.255942 3.87371e-20)
(1.24096 -0.597108 1.95327e-19)
(1.99786 0.0197065 -5.56267e-20)
(2.69515 -0.285531 2.15071e-19)
(2.72005 -0.329201 0)
(2.14299 -0.0319503 -1.35941e-19)
(2.54724 -0.10071 -5.47544e-20)
(1.93868 0.0663772 -2.95953e-19)
(2.60976 -0.333906 -1.20668e-19)
(1.98271 -0.236118 -9.76795e-20)
(0.162716 -0.851142 1.5429e-20)
(2.2826 -0.0898421 -2.27302e-20)
(2.36398 -0.177127 9.95567e-20)
(1.66726 0.0904358 9.24578e-21)
(1.46612 -0.662309 0)
(1.02294 -0.0147295 0)
(2.20217 -0.0274152 6.95454e-20)
(1.63453 -0.350277 2.14052e-21)
(1.62444 0.140079 0)
(1.79072 1.24518 -1.08038e-18)
(-2.00018 0.99063 0)
(2.29299 1.07211 3.41588e-20)
(2.34249 -0.164781 -9.76049e-20)
(1.22388 1.88432 0)
(1.87994 0.409177 -1.71755e-19)
(1.55191 -0.278907 -5.79791e-20)
(1.86357 0.198515 -1.97835e-20)
(1.90248 -0.0380644 -4.62181e-19)
(2.27934 -0.549429 0)
(1.56931 0.144891 5.43619e-20)
(1.62389 -0.193673 -3.46736e-22)
(1.99401 0.0551811 6.89685e-20)
(1.63308 0.127249 -2.85702e-19)
(0.73095 0.686539 3.11146e-19)
(2.39219 -0.212003 1.63693e-19)
(2.23868 -0.312377 -3.57506e-19)
(2.14431 -0.17886 0)
(2.60572 -0.0855031 1.10875e-21)
(2.27221 -0.309125 -5.11338e-20)
(2.0009 0.0264877 7.72689e-19)
(2.16095 -0.574879 0)
(2.37612 -0.244309 -4.43331e-20)
(1.43546 0.373084 0)
(2.50008 -0.17186 1.38423e-19)
(1.90681 -0.521971 -1.42254e-19)
(0.680052 -0.319609 2.6642e-19)
(2.41093 -0.310857 -1.89061e-20)
(2.01763 0.188281 0)
(1.72396 -0.234204 -4.85085e-20)
(2.23496 -0.553321 1.36325e-19)
(1.64273 0.134421 2.69783e-19)
(2.29007 -0.309755 2.25225e-19)
(2.34842 -0.140315 1.46969e-19)
(-2.01374 1.91105 -9.81784e-19)
(2.00628 0.107223 1.36755e-22)
(2.24023 -0.164581 0)
(1.00622 -0.353547 6.37623e-19)
(3.13689 0.837007 0)
(1.60547 -0.252645 1.99156e-22)
(2.28341 -0.0857045 2.82471e-19)
(2.58252 -0.101008 -5.32465e-20)
(2.53808 -0.118335 5.46235e-20)
(0.411411 -0.211109 -9.33273e-19)
(1.94722 0.0661158 3.68992e-19)
(1.88426 0.0239391 0)
(-0.526243 0.29007 -4.1258e-19)
(2.20752 -0.235396 -9.28289e-20)
(1.66309 -0.333479 -4.52069e-21)
(3.5112 -1.32902 6.25333e-19)
(2.39854 -0.0160985 0)
(2.4555 -0.238795 1.16182e-19)
(1.79702 0.155397 5.81457e-19)
(1.97346 0.0706695 4.56524e-19)
(2.88874 -0.487834 0)
(1.95382 0.00837721 -2.8853e-22)
(2.75547 -0.321541 -2.16707e-19)
(-1.39227 -0.689512 1.98614e-19)
(1.59163 -0.0518069 7.22268e-20)
(2.20946 -0.204656 8.82506e-20)
(2.03208 0.0082124 -6.62347e-22)
(2.23618 -0.161699 0)
(2.58214 -0.201289 -7.84248e-20)
(-2.61963 1.76647 4.27225e-19)
(2.44271 0.434535 -1.80255e-20)
(1.99807 0.0251123 2.93905e-19)
(1.38699 0.0284797 0)
(1.6622 -0.228121 -5.9156e-20)
(1.31138 1.89145 0)
(3.21366 1.30393 -2.41735e-19)
(2.15834 -0.0228425 0)
(2.14774 -0.66814 -7.66033e-21)
(1.32494 -0.116055 -1.55717e-19)
(1.50374 0.838597 5.73396e-19)
(-1.29866 -0.494952 -7.5557e-19)
(2.08238 -0.477149 0)
(2.38907 0.0651184 -9.25305e-20)
(2.02401 0.196374 -1.83673e-19)
(0.967371 -0.575741 -3.69266e-19)
(-1.53831 0.0410736 4.896e-20)
(1.65667 -0.0503944 -7.81812e-19)
(2.96242 -0.365339 2.21858e-19)
(2.0922 0.197027 1.34048e-19)
(1.45869 -0.4485 0)
(1.3632 0.304509 3.14704e-19)
(1.72523 0.158123 -1.59497e-20)
(-2.17731 1.04184 8.65208e-19)
(-2.6469 1.67095 -1.45548e-18)
(1.17795 -0.543308 -7.91608e-19)
(3.13642 0.157644 0)
(1.02793 -0.587667 0)
(1.9743 1.17686 0)
(2.12718 -0.0803492 0)
(1.10001 -0.141854 -2.49495e-19)
(2.44932 -0.151232 0)
(1.45304 -0.244709 0)
(1.67263 0.0986671 1.10257e-19)
(3.23104 0.199178 -6.28564e-19)
(2.21516 -0.155306 -2.25448e-19)
(1.70202 0.321985 9.68536e-19)
(2.00575 0.0200141 -9.39399e-20)
(2.26765 1.69626 0)
(3.00233 -0.277714 0)
(1.92986 0.0699625 3.16184e-19)
(2.02541 0.0510584 5.64008e-20)
(1.28788 0.878231 0)
(-0.742657 0.514254 1.02882e-18)
(2.2451 -0.697254 4.8184e-20)
(-0.254848 0.0894412 0)
(2.36357 -0.0883967 1.53996e-19)
(1.98151 0.0563402 -3.65845e-19)
(0.310789 0.209159 -9.00048e-20)
(1.00054 -0.339577 0)
(2.00817 0.201566 3.39881e-19)
(2.65913 0.229959 0)
(2.78224 -0.344119 0)
(2.22163 0.207058 -1.92066e-20)
(1.94019 0.0854329 1.7105e-19)
(0.389735 -0.250483 -1.03012e-18)
(2.30629 0.701241 3.96288e-20)
(1.3381 -0.340822 -2.68502e-19)
(2.13632 -0.0704101 3.24078e-20)
(2.09561 0.192081 1.05363e-19)
(2.69605 -0.20491 1.90334e-19)
(2.35354 -0.661708 0)
(3.3459 -0.494876 4.79161e-19)
(1.33293 -0.0563247 0)
(1.61898 -0.238237 3.3463e-20)
(2.29462 -0.163929 0)
(1.44037 0.0593924 4.11912e-19)
(-0.582374 -0.488077 -1.18951e-18)
(2.92229 -0.350591 0)
(-0.194189 0.106591 2.62381e-20)
(3.01871 -0.306476 -4.74277e-19)
(1.71692 -0.261632 -1.39396e-20)
(1.78713 -0.257464 6.93455e-19)
(1.39791 0.821747 -3.6156e-19)
(1.32852 -0.330561 -7.70006e-19)
(3.3502 1.29111 0)
(1.67024 0.122335 2.15693e-20)
(-2.00205 2.04803 -2.47247e-18)
(2.0127 0.209215 0)
(1.84544 0.223077 2.15405e-20)
(2.98114 -0.0157816 -4.21377e-20)
(2.66753 1.17702 0)
(2.00366 0.0172197 0)
(-1.93218 1.13319 0)
(-2.04463 0.818484 1.79688e-18)
(3.66675 0.1589 8.99352e-19)
(3.43643 0.616369 1.3939e-20)
(2.26162 1.02719 0)
(1.71998 -0.16688 4.9006e-19)
(1.94738 0.0563427 6.82047e-22)
(2.30512 0.6472 -8.46181e-20)
(-2.0428 0.749378 1.11107e-18)
(1.912 0.158202 0)
(2.01349 0.116396 0)
(0.737143 -0.115725 -4.42798e-19)
(1.43087 -0.440434 -1.84306e-19)
(1.97282 -0.172379 0)
(1.32348 -0.636425 -1.42836e-19)
(1.89516 0.0240447 4.81614e-23)
(1.99141 0.0876716 4.65057e-23)
(0.763427 -0.355962 0)
(1.95559 -0.0508771 8.80409e-20)
(1.71375 0.130381 1.6019e-20)
(2.65658 0.206311 8.58528e-20)
(1.89094 -0.543576 0)
(0.780262 -0.124856 -2.0053e-18)
(2.55623 -0.105059 5.97122e-20)
(2.0011 0.0860221 7.05554e-20)
(1.83011 0.0369395 7.15228e-21)
(2.6007 0.774536 0)
(1.67669 0.318045 -2.5799e-19)
(3.13226 0.609703 -1.99798e-19)
(1.24675 -0.477169 1.65815e-19)
(2.0079 0.0480933 0)
(-1.59226 0.00766805 -5.02663e-20)
(0.478221 -0.0950768 0)
(2.0044 0.0458221 -2.75438e-19)
(1.99181 0.0634035 1.16379e-19)
(1.88932 0.0463389 -6.15899e-20)
(-2.18244 1.10336 0)
(2.30309 0.0268956 -1.54428e-20)
(1.08822 0.450177 8.64872e-19)
(2.3164 -0.657703 0)
(1.64106 0.0862112 3.42969e-19)
(2.57486 -0.36557 1.37688e-19)
(2.21107 -0.0162126 0)
(-1.99113 -0.244802 3.19283e-19)
(1.88411 -0.556217 -7.60603e-20)
(2.04879 0.00216194 0)
(1.02482 0.0128671 1.31572e-18)
(1.83423 0.211993 0)
(1.69475 -0.767725 1.83168e-19)
(-2.72728 1.584 8.87103e-19)
(2.09295 0.117546 2.94714e-22)
(2.50528 0.177288 -2.04399e-20)
(1.35617 0.285385 1.65929e-19)
(1.77673 -0.283425 -2.54998e-19)
(2.08569 -0.433697 -5.30383e-20)
(1.73335 -0.773946 3.35749e-21)
(2.19125 -0.209843 8.90294e-20)
(2.58607 0.780859 7.27941e-20)
(1.89486 -0.825333 0)
(1.99729 0.0208368 -2.60647e-19)
(-0.0227196 0.162327 -4.28798e-19)
(1.36012 -0.0675616 0)
(1.71999 0.256101 -4.71249e-21)
(1.5553 0.0087535 0)
(1.2189 -0.356581 6.67685e-19)
(2.11905 -0.745051 0)
(1.75034 0.00295829 -5.3989e-21)
(2.30098 -0.084639 -1.61181e-19)
(-1.87254 -0.488829 5.96037e-19)
(-2.25413 1.26913 1.33442e-18)
(2.30091 -0.0178509 -1.42264e-21)
(1.38057 -0.64874 7.39612e-20)
(1.78867 -0.503823 2.28272e-19)
(1.48341 -0.324458 0)
(0.172573 -0.0521296 -5.62634e-19)
(2.37144 -0.583183 -1.14478e-20)
(0.178901 -0.0227169 -6.54463e-19)
(1.9953 0.0996639 -7.0551e-23)
(1.4482 -0.564359 0)
(2.23165 -0.0206273 -1.56625e-21)
(-0.831491 0.666701 0)
(-2.65205 1.08852 5.18465e-20)
(0.129531 0.161918 1.09036e-19)
(0.255181 0.418425 0)
(2.08528 -0.502449 5.32672e-20)
(2.14511 -2.56757 0)
(2.68521 1.09274 0)
(1.47098 -0.692412 -2.42104e-19)
(1.46481 0.344372 2.55872e-19)
(1.66694 -0.712578 0)
(1.80343 0.18042 -1.60658e-19)
(3.26811 0.592776 7.41946e-19)
(-2.54006 1.86534 1.91438e-18)
(2.65079 1.43076 0)
(2.18104 -0.045897 0)
(-1.87684 2.09727 -1.07003e-18)
(1.89756 -0.105201 0)
(2.71593 0.0149949 0)
(-1.07909 2.66065 -1.33248e-20)
(2.08075 -0.358049 -2.84623e-19)
(1.75432 -0.414928 2.04356e-19)
(3.47879 -0.0834346 6.06262e-20)
(0.128064 -0.0087703 1.20438e-18)
(1.99241 0.0536763 1.32518e-19)
(1.52028 -0.354758 0)
(2.16712 0.492334 -5.48902e-20)
(1.41471 -0.199198 0)
(2.41934 0.0362479 0)
(1.99886 0.109025 0)
(2.21145 0.186993 -1.57034e-20)
(1.88631 -0.0362922 2.15452e-19)
(2.3978 0.139044 -1.01498e-23)
(1.56542 -0.357902 0)
(0.397553 -0.210973 -7.56769e-19)
(2.01018 1.11832 9.55901e-20)
(1.87912 -0.666146 1.88204e-20)
(2.06341 -0.121659 -1.42216e-19)
(3.18306 -0.674212 9.08144e-19)
(2.04362 0.0678389 -2.10246e-19)
(-0.576832 -0.538189 0)
(2.53857 -0.10549 0)
(1.41702 0.838636 0)
(1.19789 -0.54113 -4.70288e-19)
(-0.464253 -1.92188 -7.26238e-19)
(0.901247 0.375271 0)
(2.19201 0.506699 0)
(2.55804 -0.227931 9.83479e-20)
(1.94605 -0.0326353 -5.11819e-20)
(1.88464 0.634768 2.93376e-19)
(1.78746 -0.7432 0)
(-0.453576 1.02403 -2.96727e-19)
(2.42826 0.074452 3.66454e-20)
(1.39749 -0.405135 -4.43881e-19)
(2.25611 0.0691263 -8.95343e-20)
(2.29624 0.653329 1.3438e-19)
(3.942 -0.936414 1.06329e-18)
(1.19541 -0.546101 8.22826e-19)
(2.3076 -1.46894 3.76141e-19)
(2.40338 0.304319 -1.0146e-21)
(2.00026 0.012311 -6.49271e-20)
(1.20649 -0.558216 -4.172e-20)
(1.89952 -0.524128 3.20815e-20)
(1.56859 2.03749 -3.28865e-20)
(1.33553 -0.633335 7.78381e-20)
(2.60482 -0.0729316 0)
(1.59363 -0.258009 -2.58512e-21)
(2.21197 -0.0441074 -2.63304e-19)
(2.89976 0.84842 9.65984e-20)
(1.36648 -0.371291 -4.07982e-19)
(1.86463 -0.643013 -2.1451e-19)
(1.94748 -0.0120268 4.71546e-19)
(2.38756 -0.055307 -2.69198e-19)
(1.34558 -0.253947 -5.77672e-20)
(3.08417 0.195586 -2.39958e-19)
(1.14066 -0.157569 -9.26339e-19)
(2.14138 -0.0275083 -2.08904e-19)
(1.12451 -0.223304 0)
(-1.9625 -0.448364 -1.61255e-18)
(1.89744 0.0362111 4.8891e-19)
(1.5417 -0.00132654 -5.18549e-22)
(-0.761524 0.0323567 0)
(1.60822 -0.725492 0)
(2.02304 0.449235 2.59767e-19)
(1.00436 -0.153319 5.78849e-19)
(1.91048 -1.8066 -2.11414e-18)
(2.1734 -0.661382 -6.27696e-20)
(2.25573 -0.322181 1.92696e-19)
(3.20071 0.814 0)
(2.03196 0.489954 1.4276e-19)
(0.333004 -0.690879 -7.19656e-21)
(2.44126 1.10476 2.8532e-20)
(1.99761 -0.250299 -2.83873e-19)
(0.0137302 0.136468 -1.96353e-18)
(3.10356 -0.680804 -8.58366e-19)
(3.4137 -0.536164 2.5779e-19)
(2.21523 1.23166 0)
(2.43515 -0.519764 -1.03986e-19)
(1.9012 0.0434412 5.58493e-20)
(1.95592 0.0389636 -5.96611e-23)
(0.789327 -0.381703 7.6683e-19)
(1.97702 -0.24834 4.25981e-19)
(1.83933 -0.703239 5.9733e-20)
(-2.58999 1.7813 -1.10996e-18)
(2.54287 -0.236157 -2.18462e-19)
(2.27173 -0.0246939 1.86338e-19)
(-1.2594 2.50259 -1.76521e-19)
(2.35549 1.04951 4.83054e-20)
(1.15342 -0.0947766 -1.42531e-18)
(0.947843 -0.462699 -2.38569e-19)
(1.97324 0.028243 0)
(2.47598 0.575954 2.29791e-20)
(-1.76438 2.42499 -8.344e-19)
(1.31801 -0.143176 8.35666e-19)
(2.1524 0.092262 0)
(2.07894 -0.256666 9.59508e-20)
(1.16397 -0.487124 1.89088e-19)
(1.9942 0.0386142 -5.68642e-19)
(-1.99978 1.52699 -1.05949e-18)
(1.67335 -0.692002 -1.29666e-20)
(2.22079 -0.164638 1.52781e-19)
(2.34247 0.0682294 1.34422e-19)
(1.71757 -0.777363 -2.43151e-19)
(2.41254 0.198576 -1.24192e-21)
(-0.267876 -2.016 -2.2295e-18)
(2.12181 -0.0432887 2.47028e-19)
(2.13275 -0.0598075 -1.40777e-19)
(2.1585 0.101121 -6.05012e-21)
(2.12942 -0.0354371 -3.01337e-19)
(1.10066 -0.492662 -3.65426e-19)
(2.39047 0.27862 0)
(-2.45879 0.545192 1.30813e-18)
(2.11257 0.072845 4.06314e-20)
(1.06006 0.0652885 -1.19552e-19)
(2.45967 0.0392226 -7.24342e-21)
(2.20787 -0.352828 -1.26961e-19)
(2.00021 0.0162824 -4.57897e-19)
(2.0975 0.330905 7.99428e-20)
(-0.916352 0.682199 -1.06117e-18)
(2.73606 0.0168184 0)
(1.67298 -0.214479 3.0657e-20)
(2.59347 -0.104209 5.4499e-20)
(1.4586 -0.549558 0)
(2.14997 0.0779831 1.51638e-19)
(2.60817 -0.0853529 5.95378e-20)
(2.70691 0.024151 2.27546e-24)
(2.61759 -0.73226 1.514e-19)
(2.01783 -0.156919 0)
(1.77564 0.356668 4.76283e-19)
(2.16461 -0.64171 -2.12352e-19)
(1.29812 -0.624305 1.93646e-19)
(2.04499 -0.168015 0)
(1.46066 0.301116 -7.39152e-19)
(0.75543 -0.49584 -1.00039e-19)
(2.42324 1.51344 -1.72153e-19)
(1.15085 -0.182646 8.99288e-19)
(2.14539 0.00622583 2.64343e-21)
(-2.25105 1.30985 1.05169e-18)
(1.96012 -0.092826 -3.22323e-19)
(3.31651 -0.367517 -6.43168e-19)
(1.78458 0.151978 -3.36401e-19)
(1.95252 0.00844405 0)
(2.00124 0.0295408 -2.44661e-19)
(0.340357 -0.0644801 1.17077e-18)
(-0.384896 0.341858 0)
(3.9287 -1.07154 0)
(1.95429 0.0382221 0)
(1.22191 -0.404479 0)
(2.04921 0.326632 0)
(1.07744 -0.150687 0)
(2.37521 -0.885348 -9.79207e-21)
(3.65312 0.543634 -4.76796e-19)
(2.62845 0.417928 0)
(1.75451 0.356951 7.17591e-19)
(1.15664 -0.550837 1.34333e-19)
(2.08272 0.202337 5.80678e-21)
(-1.53901 2.51852 -3.56918e-19)
(1.08938 0.0807807 -9.34131e-22)
(-1.12403 0.874213 9.28182e-19)
(1.7646 0.00225073 -1.07734e-19)
(2.87948 0.00455135 2.93396e-20)
(2.02562 0.307644 -1.78248e-19)
(1.86988 0.188414 -4.57979e-19)
(1.94896 1.03853 -2.1837e-19)
(3.22058 1.26104 0)
(-1.83835 0.356029 1.65036e-19)
(1.24141 -0.37212 -7.31418e-19)
(2.01065 0.0263115 -7.53289e-19)
(2.38159 -0.592209 2.35707e-20)
(1.98155 -0.0278671 4.80273e-20)
(2.77084 -0.416932 -2.33584e-19)
(2.14686 -0.27818 -3.19148e-20)
(2.09915 -0.490587 -1.83352e-19)
(2.0252 0.175647 1.91228e-19)
(1.72213 1.12367 0)
(2.06233 -0.381706 -4.77873e-20)
(1.69182 0.0774764 -1.02616e-19)
(2.43554 -0.136905 0)
(1.8491 -0.217155 0)
(1.78542 -0.806353 -4.62047e-21)
(-2.52997 1.38388 1.14101e-18)
(2.32593 -0.927422 -3.07085e-19)
(1.76194 -0.0329849 0)
(1.92512 -0.0475009 -4.3498e-19)
(1.8042 0.221377 -8.87126e-20)
(-2.50518 0.206883 7.19586e-19)
(2.64569 -0.048762 2.07185e-20)
(-1.40329 1.01012 0)
(-1.91615 0.41056 2.1171e-19)
(2.63567 -0.0724072 0)
(2.40717 -0.548396 1.09667e-19)
(2.41705 -0.236932 -8.66208e-20)
(2.00061 0.0262039 -7.03425e-23)
(2.36129 0.726223 -1.50962e-19)
(2.64052 1.31825 -3.00777e-20)
(1.74016 -0.481254 4.81381e-19)
(-1.06932 -0.564774 0)
(1.78406 -2.64942 -1.13254e-18)
(1.28197 -1.00014 0)
(2.69212 0.411344 -3.95048e-20)
(-2.58966 0.490742 1.32e-18)
(3.92007 -1.00957 8.29655e-19)
(1.69773 -0.208307 -3.03325e-20)
(-1.81285 1.75106 -2.3584e-18)
(1.11922 -0.550023 -2.23636e-19)
(1.28509 -0.379065 -4.20679e-19)
(1.71113 0.154357 5.80189e-21)
(2.13888 -2.56295 9.33961e-19)
(1.14247 -0.507767 3.00801e-19)
(1.34441 -0.40251 4.57788e-19)
(-0.360226 -1.73783 8.77699e-19)
(2.75363 -2.46676 -6.07397e-19)
(1.85406 -0.568128 2.20282e-19)
(-1.26128 -0.649056 8.3213e-19)
(2.36599 0.0260799 -2.14477e-21)
(1.14889 -0.596776 -1.12347e-19)
(2.34513 0.45654 -5.54461e-20)
(2.29883 -0.465648 0)
(1.10897 -0.438711 -1.59621e-18)
(2.10724 -0.0403839 -3.14e-19)
(1.99594 0.117667 0)
(2.66241 0.384327 0)
(1.10466 -2.28038 -4.31398e-19)
(3.62689 -0.237087 -6.50006e-19)
(2.46582 0.246185 -2.20426e-20)
(2.07649 -0.348582 3.72258e-19)
(1.93113 1.00114 1.97317e-19)
(1.40998 -0.0177867 2.97842e-19)
(-2.70063 0.761958 -8.93169e-20)
(1.77292 0.646442 0)
(1.37735 -0.433235 4.34976e-19)
(-0.606183 1.76115 1.91633e-19)
(-1.98641 1.62225 1.80817e-18)
(1.72719 -0.653991 7.60158e-20)
(1.57901 -0.701456 3.24984e-20)
(1.66009 -0.0107087 1.58841e-19)
(1.77545 -0.18715 1.77365e-20)
(2.81614 -0.483078 4.92891e-19)
(-2.63003 0.668603 -9.47823e-19)
(2.4459 0.237573 1.88384e-20)
(1.95512 0.0617959 1.83154e-19)
(1.11825 -0.212003 -3.69038e-19)
(1.90449 -0.0817368 2.68231e-19)
(1.22515 -0.25043 0)
(2.44218 0.428145 3.86892e-20)
(1.99022 0.058176 4.10747e-20)
(1.47121 -0.296192 -1.40683e-19)
(1.79773 1.84439 6.6137e-21)
(1.82179 -0.55618 1.70227e-19)
(2.08949 0.032442 7.59058e-20)
(1.36322 0.140257 -5.62444e-19)
(2.43999 -0.162558 0)
(1.68236 -0.185289 -5.77485e-20)
(2.27053 0.0913907 1.21547e-19)
(2.23054 -0.141224 0)
(1.39359 0.0329272 3.18287e-19)
(2.65343 -0.0473662 0)
(1.69963 1.8415 1.8127e-19)
(2.32858 -0.0316546 0)
(2.05969 -0.422443 0)
(2.52273 -0.0462763 4.13731e-20)
(2.4378 0.186788 2.93446e-20)
(3.04398 0.345262 -3.40381e-19)
(1.91887 0.14607 -2.09584e-19)
(1.54416 1.20449 -1.53203e-19)
(2.00028 0.092867 -8.64364e-20)
(2.07752 0.334353 0)
(-0.461213 0.331253 -5.97412e-20)
(2.55612 0.171303 3.77303e-20)
(2.356 -0.527765 -2.22592e-19)
(2.29318 -0.46063 0)
(2.9345 0.835628 1.49832e-19)
(2.13314 1.68748 5.019e-21)
(2.33397 0.0175017 -5.3259e-21)
(1.31217 0.672219 0)
(-0.793521 2.6174 1.0853e-18)
(2.04532 0.172769 0)
(2.82192 -0.410361 -2.41736e-19)
(-0.206395 -0.0185326 0)
(1.89335 0.202825 0)
(2.29601 -1.62568 0)
(2.06866 -0.742009 0)
(-0.944564 2.26235 -1.38963e-19)
(-1.98589 0.551051 -3.93491e-19)
(1.87553 -0.0314544 -3.23548e-19)
(-2.05634 -0.337152 -7.73331e-19)
(1.22628 -0.535519 0)
(-1.74586 -0.810909 -6.90034e-19)
(-0.354157 -0.0757756 -9.27485e-19)
(1.47807 -0.69241 0)
(1.46107 -0.5114 -4.53266e-19)
(1.45984 0.256714 -1.03186e-20)
(2.33217 0.44008 1.36304e-19)
(2.5445 -0.744574 -9.6215e-20)
(1.8589 0.175323 0)
(2.2538 -0.647689 0)
(3.37679 0.54894 1.60494e-19)
(1.89668 -0.470063 8.38363e-21)
(1.65624 0.0875594 -1.79311e-20)
(1.04319 -2.11361 3.96198e-20)
(1.9986 0.00778037 1.82107e-20)
(2.45691 0.563794 -4.98829e-21)
(2.02448 0.17768 2.74632e-19)
(1.63578 -0.205648 3.07311e-20)
(1.90411 -0.501068 0)
(0.45242 -0.291049 0)
(2.42475 0.171846 0)
(1.762 0.020192 0)
(1.74395 -0.303011 1.88188e-19)
(3.01013 0.0397304 0)
(-0.989699 2.61394 1.94404e-18)
(3.31293 -1.49365 -3.11557e-21)
(1.31092 -0.419077 -6.89074e-19)
(1.10764 -0.52128 -6.88469e-20)
(-2.30251 0.208037 -7.16295e-19)
(-0.611546 2.55166 -8.67042e-19)
(1.8546 0.0542511 6.05534e-20)
(-2.66536 1.17288 -9.21843e-19)
(1.60399 -0.214365 5.02231e-20)
(2.55814 -0.0310781 0)
(2.34007 -0.255423 0)
(1.41456 -0.437137 0)
(2.20799 -0.369007 6.51977e-20)
(2.64478 -2.51801 0)
(1.80363 0.653578 0)
(2.00204 0.0105773 0)
(1.77669 -0.420825 1.90632e-19)
(2.08223 0.203174 -2.68593e-19)
(1.6224 0.0285965 0)
(2.48347 -0.871644 -2.92778e-19)
(1.97651 0.1796 -2.57028e-19)
(2.45199 1.01534 -6.23158e-20)
(1.51555 -0.705783 2.4869e-19)
(1.87922 0.702386 1.06411e-21)
(1.87079 -0.647035 -6.07659e-21)
(1.82043 -0.237271 3.91958e-20)
(2.10081 -0.542852 -1.00303e-19)
(2.41965 0.192985 -3.57429e-20)
(1.68095 0.100825 -3.61424e-20)
(1.82277 0.0779356 -3.20643e-19)
(2.12302 -0.0410221 0)
(0.979439 0.136601 9.09664e-20)
(1.97211 0.0660096 3.35376e-19)
(0.510985 -0.747793 -9.71372e-20)
(2.14229 -0.264942 -9.54412e-20)
(1.03477 -0.174157 -6.31154e-19)
(2.43732 0.169227 5.28125e-21)
(3.14786 0.629279 2.86821e-19)
(1.99789 0.0793293 0)
(1.51394 -0.226678 -1.30062e-20)
(1.74972 -0.066141 -1.72347e-20)
(2.13088 -0.552167 2.05724e-19)
(-2.04624 0.674147 -1.248e-18)
(2.07305 0.0373649 1.63106e-19)
(2.42133 0.263654 9.90623e-22)
(2.1828 0.0116822 -2.00503e-21)
(2.37654 0.144243 0)
(0.944797 -0.329057 0)
(1.33583 -0.639498 3.15218e-19)
(-1.89305 1.34577 1.14742e-18)
(1.97411 0.0161579 2.95032e-22)
(1.97062 0.0660865 6.68427e-19)
(1.50749 -0.23316 4.16372e-20)
(1.42889 0.285294 0)
(1.79669 0.100731 0)
(1.6023 -0.346557 -5.06663e-21)
(2.44268 -0.010801 6.47468e-20)
(1.92776 0.685355 3.98932e-19)
(2.41252 -0.144739 0)
(2.13007 0.0125722 0)
(2.12573 -0.553973 2.14646e-19)
(2.0178 -0.154666 2.36925e-19)
(-0.301319 0.715384 -1.22261e-19)
(1.72386 -0.0673002 0)
(1.36727 0.108123 1.40839e-19)
(2.82051 -0.993451 -1.36739e-19)
(-1.88751 2.28013 -9.57387e-19)
(2.04035 -0.0202801 -3.40848e-19)
(3.89679 0.385031 0)
(3.66484 -0.166264 5.23314e-19)
(1.84719 0.368717 -2.19924e-18)
(-0.0941625 0.4762 0)
(1.79392 0.0343947 -2.25646e-20)
(1.91967 0.11287 -2.2056e-19)
(1.7569 0.014819 -7.71379e-24)
(2.41347 -0.231314 5.00291e-20)
(1.21584 1.04489 3.40758e-19)
(1.85742 0.046515 0)
(1.02133 -0.376634 -5.09639e-21)
(1.46564 -0.233449 -3.95084e-20)
(1.63805 1.58679 -1.50505e-18)
(2.03849 0.308374 2.11541e-19)
(-0.912436 -0.631895 1.77026e-19)
(2.02523 0.0264294 -7.47139e-19)
(1.73109 -0.652977 -3.05004e-20)
(1.75943 -0.229378 3.43115e-20)
(1.73979 -0.382079 0)
(1.74585 0.0200513 -8.68465e-20)
(1.06876 -0.495353 2.40212e-19)
(2.26811 -0.0914412 -3.16317e-19)
(1.99444 0.0581039 -3.0172e-19)
(2.79887 -0.407909 2.17609e-19)
(1.67056 -0.157378 7.26996e-19)
(2.28579 0.0172674 3.48832e-21)
(1.78448 0.103813 1.89043e-19)
(1.69811 0.256504 -1.97447e-20)
(3.47718 -0.0536185 -6.72969e-19)
(2.37628 1.12558 -2.61646e-20)
(2.06324 -1.74911 1.6477e-18)
(1.88116 -0.0208689 0)
(1.51581 -0.393585 0)
(1.78861 -0.0229271 0)
(1.30971 -0.385363 5.3624e-19)
(2.1534 0.0711024 -4.91884e-19)
(1.78742 0.237849 0)
(1.51507 -0.312175 -4.12525e-19)
(1.78118 0.206287 0)
(1.75438 -0.275524 -3.08829e-19)
(2.33038 -0.555252 -2.37426e-19)
(1.87879 -0.473221 -2.46029e-19)
(1.93809 0.0466983 0)
(1.96135 0.0536098 0)
(2.25626 -0.149988 1.26423e-19)
(2.60086 0.350083 3.10388e-21)
(2.9245 -0.0805721 2.29196e-19)
(2.30451 1.77502 -5.65795e-21)
(2.39546 -0.184873 0)
(1.73864 -0.636964 -1.26729e-19)
(-0.278233 0.402123 0)
(0.822611 0.962541 -3.11264e-19)
(2.65096 1.30846 0)