# Force       
# CofR        : (0.000000e+00 0.000000e+00 0.000000e+00)
#
# Time        	total_x total_y total_z	pressure_x pressure_y pressure_z	viscous_x viscous_y viscous_z
7.10001        -5.743487e+02 -7.095040e+02 3.845727e-16 -5.749236e+02 -7.106387e+02 3.845149e-16 5.749029e-01 1.134736e+00 5.780761e-20
7.10002        -2.068002e+02 -2.379362e+02 1.232693e-16 -2.073952e+02 -2.390752e+02 1.231999e-16 5.950269e-01 1.138973e+00 6.943430e-20
7.10003        -6.100378e+01 -2.108671e+01 5.827959e-17 -6.161114e+01 -2.223234e+01 5.820638e-17 6.073540e-01 1.145627e+00 7.321137e-20
7.10004        2.428487e+01 1.265053e+02 5.949856e-17 2.366869e+01 1.253526e+02 5.942417e-17 6.161880e-01 1.152765e+00 7.438348e-20
7.10005        8.870738e+01 2.408303e+02 5.930111e-17 8.808418e+01 2.396704e+02 5.922643e-17 6.232071e-01 1.159918e+00 7.467925e-20
7.10006        1.409856e+02 3.360105e+02 5.779102e-17 1.403566e+02 3.348437e+02 5.771655e-17 6.290486e-01 1.166754e+00 7.446654e-20
7.10007        1.800535e+02 4.081309e+02 5.691887e-17 1.794195e+02 4.069577e+02 5.684492e-17 6.340272e-01 1.173130e+00 7.395397e-20
7.10008        2.114955e+02 4.698769e+02 5.689705e-17 2.108571e+02 4.686978e+02 5.682380e-17 6.383408e-01 1.179017e+00 7.324630e-20
7.10009        2.344216e+02 5.156023e+02 5.790770e-17 2.337795e+02 5.144179e+02 5.783525e-17 6.421276e-01 1.184434e+00 7.245046e-20
7.1001         2.540361e+02 5.555671e+02 5.818745e-17 2.533906e+02 5.543777e+02 5.811584e-17 6.454917e-01 1.189420e+00 7.161021e-20
7.10011        2.671745e+02 5.831798e+02 5.860016e-17 2.665260e+02 5.819858e+02 5.852939e-17 6.485091e-01 1.194015e+00 7.076938e-20
7.10012        2.775953e+02 6.046901e+02 5.813454e-17 2.769441e+02 6.034919e+02 5.806461e-17 6.512404e-01 1.198260e+00 6.993469e-20
7.10013        2.848646e+02 6.203342e+02 5.769667e-17 2.842109e+02 6.191320e+02 5.762755e-17 6.537292e-01 1.202195e+00 6.911736e-20
7.10014        2.898345e+02 6.313226e+02 5.692151e-17 2.891785e+02 6.301167e+02 5.685319e-17 6.560093e-01 1.205856e+00 6.831638e-20
7.10015        2.944336e+02 6.418878e+02 5.614259e-17 2.937755e+02 6.406786e+02 5.607506e-17 6.581076e-01 1.209272e+00 6.752992e-20
7.10016        2.970027e+02 6.481001e+02 5.521155e-17 2.963427e+02 6.468876e+02 5.514479e-17 6.600451e-01 1.212472e+00 6.676361e-20
7.10017        2.995821e+02 6.544174e+02 5.488899e-17 2.989203e+02 6.532019e+02 5.482298e-17 6.618410e-01 1.215476e+00 6.601108e-20
7.10018        3.015910e+02 6.591983e+02 5.467171e-17 3.009275e+02 6.579800e+02 5.460643e-17 6.635136e-01 1.218304e+00 6.527971e-20
7.10019        3.036303e+02 6.641358e+02 5.460821e-17 3.029653e+02 6.629149e+02 5.454364e-17 6.650791e-01 1.220970e+00 6.457028e-20
7.1002         3.050453e+02 6.675431e+02 5.458788e-17 3.043788e+02 6.663196e+02 5.452399e-17 6.665507e-01 1.223488e+00 6.388823e-20
7.10021        3.067655e+02 6.714260e+02 5.452639e-17 3.060975e+02 6.702002e+02 5.446316e-17 6.679401e-01 1.225870e+00 6.323066e-20
7.10022        3.083997e+02 6.752236e+02 5.484868e-17 3.077305e+02 6.739954e+02 5.478609e-17 6.692563e-01 1.228127e+00 6.259822e-20
7.10023        3.101316e+02 6.788510e+02 5.468446e-17 3.094611e+02 6.776207e+02 5.462247e-17 6.705083e-01 1.230268e+00 6.199245e-20
7.10024        3.120132e+02 6.829028e+02 5.502617e-17 3.113415e+02 6.816705e+02 5.496476e-17 6.717026e-01 1.232302e+00 6.140942e-20
7.10025        3.135952e+02 6.860589e+02 5.482165e-17 3.129223e+02 6.848246e+02 5.476080e-17 6.728454e-01 1.234239e+00 6.085230e-20
7.10026        3.149406e+02 6.889736e+02 5.524164e-17 3.142666e+02 6.877375e+02 5.518133e-17 6.739403e-01 1.236084e+00 6.031668e-20
7.10027        3.171066e+02 6.930619e+02 5.507021e-17 3.164316e+02 6.918241e+02 5.501041e-17 6.749901e-01 1.237840e+00 5.980195e-20
7.10028        3.186708e+02 6.960978e+02 5.504869e-17 3.179948e+02 6.948583e+02 5.498938e-17 6.760002e-01 1.239519e+00 5.930795e-20
7.10029        3.196296e+02 6.982053e+02 5.559894e-17 3.189526e+02 6.969642e+02 5.554011e-17 6.769734e-01 1.241126e+00 5.883187e-20
7.1003         3.209081e+02 7.007193e+02 5.575167e-17 3.202302e+02 6.994766e+02 5.569329e-17 6.779119e-01 1.242665e+00 5.837341e-20
7.10031        3.223445e+02 7.032772e+02 5.536504e-17 3.216657e+02 7.020330e+02 5.530711e-17 6.788180e-01 1.244143e+00 5.793142e-20
7.10032        3.237132e+02 7.058897e+02 5.533919e-17 3.230335e+02 7.046441e+02 5.528169e-17 6.796928e-01 1.245562e+00 5.750410e-20
7.10033        3.250403e+02 7.085273e+02 5.566909e-17 3.243597e+02 7.072804e+02 5.561200e-17 6.805382e-01 1.246927e+00 5.708963e-20
7.10034        3.260830e+02 7.103480e+02 5.556950e-17 3.254016e+02 7.090998e+02 5.551281e-17 6.813556e-01 1.248242e+00 5.668963e-20
7.10035        3.273690e+02 7.126235e+02 5.513707e-17 3.266868e+02 7.113740e+02 5.508077e-17 6.821464e-01 1.249509e+00 5.630107e-20
7.10036        3.284651e+02 7.144763e+02 5.496659e-17 3.277822e+02 7.132256e+02 5.491067e-17 6.829123e-01 1.250731e+00 5.592496e-20
7.10037        3.294319e+02 7.162973e+02 5.501015e-17 3.287483e+02 7.150454e+02 5.495459e-17 6.836539e-01 1.251912e+00 5.555917e-20
7.10038        3.303991e+02 7.180320e+02 5.487194e-17 3.297147e+02 7.167790e+02 5.481674e-17 6.843728e-01 1.253052e+00 5.520358e-20
7.10039        3.315123e+02 7.198900e+02 5.454681e-17 3.308272e+02 7.186358e+02 5.449195e-17 6.850701e-01 1.254155e+00 5.485950e-20
7.1004         3.322833e+02 7.211743e+02 5.434656e-17 3.315976e+02 7.199191e+02 5.429203e-17 6.857467e-01 1.255222e+00 5.452481e-20
7.10041        3.329887e+02 7.223837e+02 5.407258e-17 3.323023e+02 7.211274e+02 5.401838e-17 6.864034e-01 1.256256e+00 5.419949e-20
7.10042        3.335289e+02 7.233709e+02 5.395533e-17 3.328418e+02 7.221136e+02 5.390144e-17 6.870409e-01 1.257257e+00 5.388304e-20
7.10043        3.342106e+02 7.244428e+02 5.380917e-17 3.335229e+02 7.231845e+02 5.375559e-17 6.876605e-01 1.258229e+00 5.357585e-20
7.10044        3.351129e+02 7.260358e+02 5.373668e-17 3.344246e+02 7.247766e+02 5.368340e-17 6.882625e-01 1.259172e+00 5.327646e-20
7.10045        3.354962e+02 7.266564e+02 5.350377e-17 3.348074e+02 7.253963e+02 5.345078e-17 6.888481e-01 1.260088e+00 5.298579e-20
7.10046        3.357966e+02 7.270888e+02 5.309133e-17 3.351072e+02 7.258278e+02 5.303863e-17 6.894174e-01 1.260978e+00 5.270378e-20
7.10047        3.364496e+02 7.282203e+02 5.314047e-17 3.357597e+02 7.269584e+02 5.308804e-17 6.899717e-01 1.261843e+00 5.242874e-20
7.10048        3.367895e+02 7.288138e+02 5.297266e-17 3.360990e+02 7.275511e+02 5.292050e-17 6.905114e-01 1.262685e+00 5.216015e-20
7.10049        3.373266e+02 7.297372e+02 5.291550e-17 3.366356e+02 7.284737e+02 5.286361e-17 6.910374e-01 1.263503e+00 5.189903e-20
7.1005         3.382314e+02 7.313180e+02 5.246029e-17 3.375399e+02 7.300537e+02 5.240864e-17 6.915500e-01 1.264300e+00 5.164375e-20
7.10051        3.379934e+02 7.308179e+02 5.257875e-17 3.373014e+02 7.295528e+02 5.252735e-17 6.920497e-01 1.265075e+00 5.139827e-20
7.10052        3.385587e+02 7.318143e+02 5.233315e-17 3.378662e+02 7.305485e+02 5.228200e-17 6.925372e-01 1.265831e+00 5.115670e-20
7.10053        3.388674e+02 7.323301e+02 5.218186e-17 3.381744e+02 7.310635e+02 5.213094e-17 6.930126e-01 1.266567e+00 5.092198e-20
7.10054        3.393490e+02 7.331710e+02 5.212946e-17 3.386555e+02 7.319038e+02 5.207876e-17 6.934769e-01 1.267285e+00 5.069250e-20
7.10055        3.394753e+02 7.334117e+02 5.196831e-17 3.387814e+02 7.321437e+02 5.191784e-17 6.939299e-01 1.267985e+00 5.046894e-20
7.10056        3.402806e+02 7.349104e+02 5.169989e-17 3.395862e+02 7.336417e+02 5.164964e-17 6.943725e-01 1.268668e+00 5.024960e-20
7.10057        3.405690e+02 7.353750e+02 5.168988e-17 3.398742e+02 7.341056e+02 5.163984e-17 6.948046e-01 1.269334e+00 5.003715e-20
7.10058        3.405337e+02 7.354931e+02 5.174490e-17 3.398384e+02 7.342231e+02 5.169507e-17 6.952266e-01 1.269985e+00 4.982845e-20
7.10059        3.410328e+02 7.362771e+02 5.147995e-17 3.403372e+02 7.350065e+02 5.143032e-17 6.956391e-01 1.270620e+00 4.962545e-20
7.1006         3.413201e+02 7.368353e+02 5.137828e-17 3.406241e+02 7.355641e+02 5.132886e-17 6.960419e-01 1.271242e+00 4.942638e-20
7.10061        3.418876e+02 7.378872e+02 5.138272e-17 3.411912e+02 7.366153e+02 5.133349e-17 6.964357e-01 1.271849e+00 4.923146e-20
7.10062        3.424112e+02 7.388594e+02 5.136245e-17 3.417144e+02 7.375870e+02 5.131341e-17 6.968206e-01 1.272442e+00 4.904040e-20
7.10063        3.425399e+02 7.391900e+02 5.140730e-17 3.418427e+02 7.379170e+02 5.135845e-17 6.971967e-01 1.273023e+00 4.885368e-20
7.10064        3.430185e+02 7.399794e+02 5.115467e-17 3.423209e+02 7.387058e+02 5.110600e-17 6.975646e-01 1.273591e+00 4.867147e-20
7.10065        3.433554e+02 7.406312e+02 5.105267e-17 3.426575e+02 7.393571e+02 5.100418e-17 6.979243e-01 1.274148e+00 4.849235e-20
7.10066        3.435375e+02 7.409860e+02 5.118397e-17 3.428393e+02 7.397113e+02 5.113565e-17 6.982757e-01 1.274692e+00 4.831754e-20
7.10067        3.441109e+02 7.420129e+02 5.093226e-17 3.434123e+02 7.407377e+02 5.088412e-17 6.986193e-01 1.275226e+00 4.814503e-20
7.10068        3.441384e+02 7.421350e+02 5.088064e-17 3.434395e+02 7.408592e+02 5.083266e-17 6.989554e-01 1.275749e+00 4.797664e-20
7.10069        3.442106e+02 7.423152e+02 5.093203e-17 3.435113e+02 7.410390e+02 5.088422e-17 6.992838e-01 1.276262e+00 4.781110e-20
7.1007         3.446339e+02 7.430919e+02 5.087252e-17 3.439343e+02 7.418151e+02 5.082487e-17 6.996052e-01 1.276764e+00 4.764862e-20
7.10071        3.450850e+02 7.439486e+02 5.073314e-17 3.443851e+02 7.426714e+02 5.068565e-17 6.999194e-01 1.277257e+00 4.748839e-20
7.10072        3.450326e+02 7.438567e+02 5.077544e-17 3.443324e+02 7.425790e+02 5.072811e-17 7.002268e-01 1.277741e+00 4.733257e-20
7.10073        3.451046e+02 7.440451e+02 5.079961e-17 3.444040e+02 7.427668e+02 5.075244e-17 7.005277e-01 1.278216e+00 4.717858e-20
7.10074        3.456125e+02 7.449680e+02 5.075534e-17 3.449117e+02 7.436893e+02 5.070832e-17 7.008220e-01 1.278681e+00 4.702698e-20
7.10075        3.456393e+02 7.450573e+02 5.074970e-17 3.449382e+02 7.437782e+02 5.070283e-17 7.011099e-01 1.279139e+00 4.687858e-20
7.10076        3.461029e+02 7.458035e+02 5.045096e-17 3.454015e+02 7.445240e+02 5.040423e-17 7.013919e-01 1.279588e+00 4.673238e-20
7.10077        3.466089e+02 7.467111e+02 5.043090e-17 3.459072e+02 7.454311e+02 5.038431e-17 7.016680e-01 1.280029e+00 4.658847e-20
7.10078        3.461740e+02 7.461207e+02 5.068635e-17 3.454721e+02 7.448402e+02 5.063990e-17 7.019380e-01 1.280462e+00 4.644706e-20
7.10079        3.468031e+02 7.471372e+02 5.050970e-17 3.461009e+02 7.458563e+02 5.046339e-17 7.022026e-01 1.280888e+00 4.630797e-20
7.1008         3.466812e+02 7.470019e+02 5.059616e-17 3.459787e+02 7.457206e+02 5.054998e-17 7.024617e-01 1.281306e+00 4.617114e-20
7.10081        3.471295e+02 7.478342e+02 5.053429e-17 3.464268e+02 7.465525e+02 5.048825e-17 7.027155e-01 1.281717e+00 4.603616e-20
7.10082        3.474230e+02 7.483442e+02 5.045907e-17 3.467201e+02 7.470621e+02 5.041317e-17 7.029642e-01 1.282121e+00 4.590290e-20
7.10083        3.472966e+02 7.481678e+02 5.045203e-17 3.465934e+02 7.468852e+02 5.040626e-17 7.032074e-01 1.282519e+00 4.577346e-20
7.10084        3.475392e+02 7.486451e+02 5.038016e-17 3.468357e+02 7.473622e+02 5.033451e-17 7.034454e-01 1.282910e+00 4.564437e-20
7.10085        3.478785e+02 7.492852e+02 5.047672e-17 3.471748e+02 7.480019e+02 5.043120e-17 7.036787e-01 1.283294e+00 4.551734e-20
7.10086        3.477042e+02 7.489558e+02 5.025006e-17 3.470002e+02 7.476721e+02 5.020466e-17 7.039074e-01 1.283673e+00 4.539284e-20
7.10087        3.481921e+02 7.497792e+02 5.023475e-17 3.474879e+02 7.484952e+02 5.018948e-17 7.041316e-01 1.284045e+00 4.526966e-20
7.10088        3.481498e+02 7.497972e+02 5.030302e-17 3.474454e+02 7.485128e+02 5.025787e-17 7.043512e-01 1.284412e+00 4.514866e-20
7.10089        3.485060e+02 7.504873e+02 5.030642e-17 3.478014e+02 7.492025e+02 5.026139e-17 7.045666e-01 1.284773e+00 4.502834e-20
7.1009         3.486265e+02 7.506659e+02 5.024100e-17 3.479217e+02 7.493808e+02 5.019609e-17 7.047778e-01 1.285128e+00 4.491116e-20
7.10091        3.485963e+02 7.506415e+02 5.033405e-17 3.478913e+02 7.493561e+02 5.028926e-17 7.049848e-01 1.285477e+00 4.479491e-20
7.10092        3.493692e+02 7.521268e+02 5.026840e-17 3.486640e+02 7.508410e+02 5.022372e-17 7.051878e-01 1.285822e+00 4.467869e-20
7.10093        3.494414e+02 7.521413e+02 5.006948e-17 3.487360e+02 7.508551e+02 5.002491e-17 7.053871e-01 1.286161e+00 4.456643e-20
7.10094        3.492006e+02 7.517760e+02 5.025567e-17 3.484951e+02 7.504895e+02 5.021121e-17 7.055824e-01 1.286495e+00 4.445539e-20
7.10095        3.493170e+02 7.519776e+02 5.019828e-17 3.486112e+02 7.506907e+02 5.015394e-17 7.057740e-01 1.286825e+00 4.434548e-20
7.10096        3.494340e+02 7.522094e+02 5.013657e-17 3.487280e+02 7.509222e+02 5.009234e-17 7.059620e-01 1.287149e+00 4.423681e-20
7.10097        3.495364e+02 7.523447e+02 4.997559e-17 3.488302e+02 7.510572e+02 4.993146e-17 7.061465e-01 1.287469e+00 4.413013e-20
7.10098        3.494335e+02 7.522160e+02 5.019005e-17 3.487272e+02 7.509282e+02 5.014602e-17 7.063274e-01 1.287784e+00 4.402467e-20
7.10099        3.500167e+02 7.532049e+02 4.994368e-17 3.493102e+02 7.519168e+02 4.989976e-17 7.065051e-01 1.288095e+00 4.391978e-20
7.101          3.499197e+02 7.530973e+02 5.007594e-17 3.492131e+02 7.518088e+02 5.003212e-17 7.066793e-01 1.288401e+00 4.381681e-20
7.10101        3.500107e+02 7.532440e+02 5.003313e-17 3.493038e+02 7.519553e+02 4.998941e-17 7.068504e-01 1.288703e+00 4.371534e-20
7.10102        3.502086e+02 7.536203e+02 5.000902e-17 3.495015e+02 7.523313e+02 4.996541e-17 7.070183e-01 1.289001e+00 4.361445e-20
7.10103        3.500368e+02 7.532858e+02 4.994774e-17 3.493296e+02 7.519965e+02 4.990422e-17 7.071831e-01 1.289294e+00 4.351596e-20
7.10104        3.503083e+02 7.537770e+02 5.000994e-17 3.496010e+02 7.524874e+02 4.996652e-17 7.073449e-01 1.289584e+00 4.341789e-20
7.10105        3.505464e+02 7.541795e+02 4.982463e-17 3.498389e+02 7.528897e+02 4.978131e-17 7.075038e-01 1.289870e+00 4.332074e-20
7.10106        3.506038e+02 7.542826e+02 4.984496e-17 3.498962e+02 7.529924e+02 4.980173e-17 7.076597e-01 1.290151e+00 4.322554e-20
7.10107        3.509010e+02 7.548533e+02 4.978714e-17 3.501932e+02 7.535629e+02 4.974401e-17 7.078128e-01 1.290430e+00 4.313000e-20
7.10108        3.507653e+02 7.545626e+02 4.976570e-17 3.500573e+02 7.532719e+02 4.972266e-17 7.079631e-01 1.290704e+00 4.303789e-20
7.10109        3.511340e+02 7.552063e+02 4.965243e-17 3.504259e+02 7.539153e+02 4.960948e-17 7.081107e-01 1.290975e+00 4.294480e-20
7.1011         3.509447e+02 7.549162e+02 4.978668e-17 3.502364e+02 7.536250e+02 4.974382e-17 7.082555e-01 1.291242e+00 4.285412e-20
7.10111        3.509934e+02 7.549577e+02 4.973655e-17 3.502850e+02 7.536662e+02 4.969379e-17 7.083977e-01 1.291506e+00 4.276448e-20
7.10112        3.511059e+02 7.551491e+02 4.970116e-17 3.503974e+02 7.538574e+02 4.965848e-17 7.085373e-01 1.291766e+00 4.267543e-20
7.10113        3.511383e+02 7.552158e+02 4.968019e-17 3.504296e+02 7.539238e+02 4.963761e-17 7.086741e-01 1.292023e+00 4.258747e-20
7.10114        3.512589e+02 7.554336e+02 4.966395e-17 3.505501e+02 7.541413e+02 4.962145e-17 7.088087e-01 1.292277e+00 4.250028e-20
7.10115        3.510355e+02 7.550878e+02 4.967405e-17 3.503266e+02 7.537953e+02 4.963164e-17 7.089406e-01 1.292528e+00 4.241442e-20
7.10116        3.513515e+02 7.555784e+02 4.958884e-17 3.506424e+02 7.542856e+02 4.954651e-17 7.090701e-01 1.292776e+00 4.232951e-20
7.10117        3.512567e+02 7.553847e+02 4.953663e-17 3.505475e+02 7.540917e+02 4.949438e-17 7.091971e-01 1.293020e+00 4.224578e-20
7.10118        3.514965e+02 7.558734e+02 4.953662e-17 3.507872e+02 7.545801e+02 4.949446e-17 7.093218e-01 1.293262e+00 4.216178e-20
7.10119        3.515950e+02 7.560400e+02 4.953171e-17 3.508856e+02 7.547465e+02 4.948963e-17 7.094440e-01 1.293500e+00 4.207974e-20
7.1012         3.515853e+02 7.559619e+02 4.946633e-17 3.508757e+02 7.546682e+02 4.942433e-17 7.095640e-01 1.293736e+00 4.199862e-20
7.10121        3.519010e+02 7.565198e+02 4.939696e-17 3.511913e+02 7.552258e+02 4.935504e-17 7.096817e-01 1.293969e+00 4.191756e-20
7.10122        3.517579e+02 7.562557e+02 4.931756e-17 3.510481e+02 7.549615e+02 4.927572e-17 7.097971e-01 1.294200e+00 4.183816e-20
7.10123        3.517767e+02 7.563274e+02 4.941782e-17 3.510668e+02 7.550330e+02 4.937606e-17 7.099101e-01 1.294427e+00 4.175935e-20
7.10124        3.518575e+02 7.564712e+02 4.939211e-17 3.511475e+02 7.551765e+02 4.935043e-17 7.100211e-01 1.294652e+00 4.168118e-20
7.10125        3.518791e+02 7.565132e+02 4.935455e-17 3.511689e+02 7.552183e+02 4.931294e-17 7.101300e-01 1.294874e+00 4.160398e-20
7.10126        3.519243e+02 7.566092e+02 4.932377e-17 3.512140e+02 7.553141e+02 4.928224e-17 7.102366e-01 1.295094e+00 4.152746e-20
7.10127        3.519818e+02 7.567071e+02 4.923254e-17 3.512715e+02 7.554118e+02 4.919109e-17 7.103411e-01 1.295312e+00 4.145179e-20
7.10128        3.520379e+02 7.567546e+02 4.922716e-17 3.513275e+02 7.554590e+02 4.918578e-17 7.104436e-01 1.295527e+00 4.137720e-20
7.10129        3.518433e+02 7.564096e+02 4.935085e-17 3.511327e+02 7.551139e+02 4.930954e-17 7.105439e-01 1.295739e+00 4.130341e-20
7.1013         3.521635e+02 7.570149e+02 4.930647e-17 3.514528e+02 7.557190e+02 4.926524e-17 7.106423e-01 1.295949e+00 4.122947e-20
7.10131        3.521573e+02 7.569715e+02 4.932980e-17 3.514465e+02 7.556753e+02 4.928865e-17 7.107386e-01 1.296157e+00 4.115704e-20
7.10132        3.521860e+02 7.570089e+02 4.921223e-17 3.514751e+02 7.557126e+02 4.917115e-17 7.108328e-01 1.296363e+00 4.108509e-20
7.10133        3.523838e+02 7.573045e+02 4.917210e-17 3.516729e+02 7.560079e+02 4.913109e-17 7.109252e-01 1.296566e+00 4.101400e-20
7.10134        3.522917e+02 7.571672e+02 4.914209e-17 3.515806e+02 7.558705e+02 4.910115e-17 7.110158e-01 1.296767e+00 4.094327e-20
7.10135        3.522154e+02 7.570280e+02 4.914149e-17 3.515043e+02 7.557310e+02 4.910062e-17 7.111042e-01 1.296966e+00 4.087362e-20
7.10136        3.522774e+02 7.571126e+02 4.910018e-17 3.515662e+02 7.558155e+02 4.905938e-17 7.111909e-01 1.297163e+00 4.080450e-20
7.10137        3.523238e+02 7.571402e+02 4.904937e-17 3.516125e+02 7.558428e+02 4.900864e-17 7.112757e-01 1.297358e+00 4.073622e-20
7.10138        3.523639e+02 7.572635e+02 4.907444e-17 3.516525e+02 7.559660e+02 4.903378e-17 7.113586e-01 1.297551e+00 4.066791e-20
7.10139        3.523931e+02 7.572857e+02 4.904197e-17 3.516817e+02 7.559879e+02 4.900137e-17 7.114398e-01 1.297742e+00 4.060087e-20
7.1014         3.524140e+02 7.573004e+02 4.900587e-17 3.517025e+02 7.560025e+02 4.896533e-17 7.115193e-01 1.297931e+00 4.053418e-20
7.10141        3.522778e+02 7.570452e+02 4.896017e-17 3.515662e+02 7.557471e+02 4.891970e-17 7.115968e-01 1.298118e+00 4.046856e-20
7.10142        3.525264e+02 7.574887e+02 4.896116e-17 3.518147e+02 7.561904e+02 4.892076e-17 7.116727e-01 1.298303e+00 4.040297e-20
7.10143        3.525120e+02 7.574246e+02 4.893106e-17 3.518003e+02 7.561261e+02 4.889073e-17 7.117469e-01 1.298487e+00 4.033810e-20
7.10144        3.524581e+02 7.572625e+02 4.878349e-17 3.517463e+02 7.559639e+02 4.874322e-17 7.118194e-01 1.298668e+00 4.027419e-20
7.10145        3.525030e+02 7.573757e+02 4.888225e-17 3.517911e+02 7.560768e+02 4.884204e-17 7.118902e-01 1.298848e+00 4.021068e-20
7.10146        3.525647e+02 7.574658e+02 4.884556e-17 3.518527e+02 7.561667e+02 4.880542e-17 7.119594e-01 1.299026e+00 4.014772e-20
7.10147        3.525431e+02 7.574308e+02 4.884855e-17 3.518311e+02 7.561316e+02 4.880847e-17 7.120269e-01 1.299202e+00 4.008519e-20
7.10148        3.527067e+02 7.576754e+02 4.875163e-17 3.519946e+02 7.563760e+02 4.871161e-17 7.120928e-01 1.299377e+00 4.002326e-20
7.10149        3.524707e+02 7.572825e+02 4.884388e-17 3.517585e+02 7.559829e+02 4.880391e-17 7.121571e-01 1.299549e+00 3.996213e-20
7.1015         3.526231e+02 7.575261e+02 4.877746e-17 3.519108e+02 7.562264e+02 4.873756e-17 7.122198e-01 1.299721e+00 3.990111e-20
7.10151        3.524598e+02 7.572614e+02 4.884412e-17 3.517476e+02 7.559615e+02 4.880427e-17 7.122810e-01 1.299890e+00 3.984096e-20
7.10152        3.527915e+02 7.577731e+02 4.871625e-17 3.520792e+02 7.564731e+02 4.867647e-17 7.123406e-01 1.300058e+00 3.978112e-20
7.10153        3.527540e+02 7.576987e+02 4.870043e-17 3.520416e+02 7.563984e+02 4.866070e-17 7.123987e-01 1.300225e+00 3.972186e-20
7.10154        3.527415e+02 7.576590e+02 4.867040e-17 3.520291e+02 7.563586e+02 4.863073e-17 7.124552e-01 1.300390e+00 3.966314e-20
7.10155        3.528262e+02 7.578007e+02 4.867605e-17 3.521137e+02 7.565001e+02 4.863644e-17 7.125102e-01 1.300553e+00 3.960470e-20
7.10156        3.528157e+02 7.577618e+02 4.863049e-17 3.521032e+02 7.564611e+02 4.859094e-17 7.125639e-01 1.300715e+00 3.954713e-20
7.10157        3.528246e+02 7.577684e+02 4.860952e-17 3.521119e+02 7.564675e+02 4.857003e-17 7.126160e-01 1.300876e+00 3.948964e-20
7.10158        3.528633e+02 7.578024e+02 4.858790e-17 3.521506e+02 7.565013e+02 4.854847e-17 7.126666e-01 1.301035e+00 3.943307e-20
7.10159        3.528474e+02 7.577278e+02 4.854579e-17 3.521346e+02 7.564266e+02 4.850641e-17 7.127158e-01 1.301193e+00 3.937717e-20
7.1016         3.528678e+02 7.577776e+02 4.854721e-17 3.521550e+02 7.564762e+02 4.850789e-17 7.127634e-01 1.301349e+00 3.932116e-20
7.10161        3.528822e+02 7.577769e+02 4.851553e-17 3.521694e+02 7.564754e+02 4.847626e-17 7.128098e-01 1.301505e+00 3.926578e-20
7.10162        3.529653e+02 7.579125e+02 4.848370e-17 3.522524e+02 7.566108e+02 4.844449e-17 7.128547e-01 1.301658e+00 3.921093e-20
7.10163        3.529278e+02 7.578289e+02 4.847503e-17 3.522149e+02 7.565271e+02 4.843588e-17 7.128982e-01 1.301811e+00 3.915656e-20
7.10164        3.529634e+02 7.578653e+02 4.844290e-17 3.522505e+02 7.565633e+02 4.840380e-17 7.129403e-01 1.301962e+00 3.910252e-20
7.10165        3.529487e+02 7.578414e+02 4.843587e-17 3.522357e+02 7.565393e+02 4.839682e-17 7.129810e-01 1.302112e+00 3.904885e-20
7.10166        3.530965e+02 7.580709e+02 4.840690e-17 3.523835e+02 7.567686e+02 4.836790e-17 7.130205e-01 1.302261e+00 3.899568e-20
7.10167        3.530712e+02 7.580034e+02 4.838267e-17 3.523581e+02 7.567010e+02 4.834373e-17 7.130585e-01 1.302408e+00 3.894296e-20
7.10168        3.530421e+02 7.579483e+02 4.837491e-17 3.523290e+02 7.566457e+02 4.833602e-17 7.130952e-01 1.302554e+00 3.889024e-20
7.10169        3.530732e+02 7.579956e+02 4.835715e-17 3.523600e+02 7.566929e+02 4.831831e-17 7.131307e-01 1.302699e+00 3.883849e-20
7.1017         3.530772e+02 7.579882e+02 4.832789e-17 3.523640e+02 7.566854e+02 4.828910e-17 7.131648e-01 1.302843e+00 3.878690e-20
7.10171        3.530454e+02 7.579274e+02 4.831412e-17 3.523322e+02 7.566244e+02 4.827538e-17 7.131975e-01 1.302986e+00 3.873586e-20
7.10172        3.531586e+02 7.580711e+02 4.827539e-17 3.524453e+02 7.567679e+02 4.823671e-17 7.132291e-01 1.303128e+00 3.868511e-20
7.10173        3.531714e+02 7.580987e+02 4.826092e-17 3.524582e+02 7.567955e+02 4.822228e-17 7.132594e-01 1.303268e+00 3.863451e-20
7.10174        3.533765e+02 7.584206e+02 4.816043e-17 3.526632e+02 7.571172e+02 4.812184e-17 7.132884e-01 1.303408e+00 3.858430e-20
7.10175        3.531632e+02 7.580532e+02 4.822245e-17 3.524499e+02 7.567496e+02 4.818392e-17 7.133161e-01 1.303546e+00 3.853476e-20
7.10176        3.531334e+02 7.579776e+02 4.813491e-17 3.524201e+02 7.566739e+02 4.809642e-17 7.133426e-01 1.303684e+00 3.848586e-20
7.10177        3.532766e+02 7.581908e+02 4.810379e-17 3.525632e+02 7.568870e+02 4.806536e-17 7.133679e-01 1.303820e+00 3.843687e-20
7.10178        3.532212e+02 7.581036e+02 4.816172e-17 3.525078e+02 7.567996e+02 4.812333e-17 7.133920e-01 1.303955e+00 3.838806e-20
7.10179        3.534894e+02 7.586274e+02 4.809132e-17 3.527760e+02 7.573233e+02 4.805298e-17 7.134148e-01 1.304090e+00 3.833899e-20
7.1018         3.532605e+02 7.581667e+02 4.812731e-17 3.525471e+02 7.568625e+02 4.808902e-17 7.134365e-01 1.304223e+00 3.829176e-20
7.10181        3.531526e+02 7.579456e+02 4.802511e-17 3.524391e+02 7.566413e+02 4.798686e-17 7.134569e-01 1.304356e+00 3.824467e-20
7.10182        3.532844e+02 7.581636e+02 4.806609e-17 3.525709e+02 7.568591e+02 4.802789e-17 7.134762e-01 1.304487e+00 3.819731e-20
7.10183        3.533669e+02 7.583456e+02 4.808461e-17 3.526535e+02 7.570410e+02 4.804646e-17 7.134942e-01 1.304618e+00 3.814995e-20
7.10184        3.532380e+02 7.580037e+02 4.799692e-17 3.525245e+02 7.566989e+02 4.795882e-17 7.135114e-01 1.304747e+00 3.810423e-20
7.10185        3.533495e+02 7.582180e+02 4.800734e-17 3.526360e+02 7.569132e+02 4.796928e-17 7.135273e-01 1.304876e+00 3.805768e-20
7.10186        3.533145e+02 7.581399e+02 4.797793e-17 3.526010e+02 7.568348e+02 4.793992e-17 7.135421e-01 1.305003e+00 3.801193e-20
7.10187        3.535587e+02 7.585415e+02 4.789470e-17 3.528452e+02 7.572364e+02 4.785673e-17 7.135558e-01 1.305130e+00 3.796606e-20
7.10188        3.533827e+02 7.582312e+02 4.794404e-17 3.526691e+02 7.569260e+02 4.790612e-17 7.135684e-01 1.305256e+00 3.792113e-20
7.10189        3.535775e+02 7.585098e+02 4.781622e-17 3.528639e+02 7.572044e+02 4.777835e-17 7.135798e-01 1.305381e+00 3.787607e-20
7.1019         3.534317e+02 7.583023e+02 4.789920e-17 3.527182e+02 7.569968e+02 4.786137e-17 7.135902e-01 1.305506e+00 3.783155e-20
7.10191        3.534280e+02 7.582756e+02 4.787780e-17 3.527144e+02 7.569700e+02 4.784001e-17 7.135995e-01 1.305629e+00 3.778736e-20
7.10192        3.533927e+02 7.581874e+02 4.786048e-17 3.526791e+02 7.568817e+02 4.782273e-17 7.136076e-01 1.305752e+00 3.774339e-20
7.10193        3.533988e+02 7.581834e+02 4.782839e-17 3.526852e+02 7.568775e+02 4.779069e-17 7.136148e-01 1.305873e+00 3.769971e-20
7.10194        3.535192e+02 7.583910e+02 4.775426e-17 3.528056e+02 7.570850e+02 4.771660e-17 7.136209e-01 1.305994e+00 3.765623e-20
7.10195        3.534740e+02 7.582961e+02 4.780296e-17 3.527603e+02 7.569900e+02 4.776535e-17 7.136259e-01 1.306115e+00 3.761305e-20
7.10196        3.535489e+02 7.584410e+02 4.783218e-17 3.528353e+02 7.571347e+02 4.779461e-17 7.136299e-01 1.306234e+00 3.757012e-20
7.10197        3.534480e+02 7.582339e+02 4.775392e-17 3.527344e+02 7.569275e+02 4.771640e-17 7.136329e-01 1.306353e+00 3.752770e-20
7.10198        3.534756e+02 7.582592e+02 4.773849e-17 3.527619e+02 7.569527e+02 4.770100e-17 7.136348e-01 1.306471e+00 3.748560e-20
7.10199        3.534283e+02 7.581529e+02 4.770858e-17 3.527146e+02 7.568463e+02 4.767114e-17 7.136358e-01 1.306588e+00 3.744370e-20
7.102          3.535189e+02 7.582971e+02 4.768916e-17 3.528053e+02 7.569904e+02 4.765176e-17 7.136358e-01 1.306704e+00 3.740188e-20
7.10201        3.535537e+02 7.583383e+02 4.762285e-17 3.528401e+02 7.570314e+02 4.758549e-17 7.136348e-01 1.306820e+00 3.736046e-20
7.10202        3.535581e+02 7.583472e+02 4.766611e-17 3.528445e+02 7.570403e+02 4.762879e-17 7.136327e-01 1.306935e+00 3.731925e-20
7.10203        3.535314e+02 7.582552e+02 4.762396e-17 3.528178e+02 7.569482e+02 4.758668e-17 7.136298e-01 1.307049e+00 3.727859e-20
7.10204        3.536230e+02 7.584582e+02 4.763834e-17 3.529094e+02 7.571510e+02 4.760110e-17 7.136259e-01 1.307163e+00 3.723740e-20
7.10205        3.536268e+02 7.584240e+02 4.760529e-17 3.529132e+02 7.571167e+02 4.756809e-17 7.136210e-01 1.307276e+00 3.719726e-20
7.10206        3.536514e+02 7.584531e+02 4.758925e-17 3.529378e+02 7.571457e+02 4.755209e-17 7.136152e-01 1.307388e+00 3.715721e-20
7.10207        3.536155e+02 7.583590e+02 4.755864e-17 3.529019e+02 7.570515e+02 4.752153e-17 7.136085e-01 1.307499e+00 3.711748e-20
7.10208        3.536502e+02 7.584181e+02 4.755565e-17 3.529366e+02 7.571105e+02 4.751858e-17 7.136008e-01 1.307610e+00 3.707777e-20
7.10209        3.535527e+02 7.582278e+02 4.751837e-17 3.528391e+02 7.569201e+02 4.748133e-17 7.135922e-01 1.307720e+00 3.703863e-20
7.1021         3.536469e+02 7.583810e+02 4.750467e-17 3.529333e+02 7.570732e+02 4.746767e-17 7.135827e-01 1.307830e+00 3.699946e-20
7.10211        3.536617e+02 7.583929e+02 4.749087e-17 3.529481e+02 7.570850e+02 4.745391e-17 7.135722e-01 1.307939e+00 3.696048e-20
7.10212        3.537041e+02 7.584588e+02 4.748760e-17 3.529906e+02 7.571507e+02 4.745068e-17 7.135609e-01 1.308047e+00 3.692180e-20
7.10213        3.536779e+02 7.583996e+02 4.745550e-17 3.529644e+02 7.570915e+02 4.741862e-17 7.135488e-01 1.308154e+00 3.688343e-20
7.10214        3.536113e+02 7.582405e+02 4.734543e-17 3.528978e+02 7.569322e+02 4.730859e-17 7.135357e-01 1.308261e+00 3.684560e-20
7.10215        3.537297e+02 7.584543e+02 4.742181e-17 3.530162e+02 7.571460e+02 4.738500e-17 7.135219e-01 1.308368e+00 3.680742e-20
7.10216        3.537147e+02 7.584165e+02 4.741403e-17 3.530012e+02 7.571080e+02 4.737726e-17 7.135070e-01 1.308473e+00 3.676974e-20
7.10217        3.537265e+02 7.584195e+02 4.739022e-17 3.530130e+02 7.571110e+02 4.735348e-17 7.134915e-01 1.308579e+00 3.673231e-20
7.10218        3.537118e+02 7.583660e+02 4.734801e-17 3.529983e+02 7.570573e+02 4.731131e-17 7.134750e-01 1.308683e+00 3.669519e-20
7.10219        3.537162e+02 7.583751e+02 4.735711e-17 3.530027e+02 7.570663e+02 4.732045e-17 7.134577e-01 1.308787e+00 3.665811e-20
7.1022         3.536697e+02 7.582638e+02 4.732908e-17 3.529563e+02 7.569549e+02 4.729246e-17 7.134396e-01 1.308891e+00 3.662138e-20
7.10221        3.537320e+02 7.583798e+02 4.733489e-17 3.530186e+02 7.570708e+02 4.729830e-17 7.134206e-01 1.308993e+00 3.658466e-20
7.10222        3.538042e+02 7.584942e+02 4.730871e-17 3.530908e+02 7.571851e+02 4.727216e-17 7.134009e-01 1.309096e+00 3.654821e-20
7.10223        3.537094e+02 7.582965e+02 4.729148e-17 3.529960e+02 7.569873e+02 4.725497e-17 7.133803e-01 1.309197e+00 3.651241e-20
7.10224        3.537283e+02 7.583162e+02 4.726504e-17 3.530150e+02 7.570069e+02 4.722856e-17 7.133589e-01 1.309298e+00 3.647644e-20
7.10225        3.537596e+02 7.583249e+02 4.719010e-17 3.530463e+02 7.570155e+02 4.715366e-17 7.133368e-01 1.309399e+00 3.644089e-20