# Force       
# CofR        : (0.000000e+00 0.000000e+00 0.000000e+00)
#
# Time        	total_x total_y total_z	pressure_x pressure_y pressure_z	viscous_x viscous_y viscous_z
7.1001         2.635631e+02 6.145401e+02 7.995212e-17 2.629898e+02 6.134048e+02 7.990716e-17 5.732555e-01 1.135348e+00 4.496546e-20
7.1002         2.993036e+02 6.595853e+02 5.435117e-17 2.987116e+02 6.584453e+02 5.429483e-17 5.919165e-01 1.139990e+00 5.633707e-20
7.1003         3.139046e+02 6.808275e+02 4.683817e-17 3.133018e+02 6.796805e+02 4.677820e-17 6.027977e-01 1.147016e+00 5.997384e-20
7.1004         3.221858e+02 6.947738e+02 4.648591e-17 3.215756e+02 6.936194e+02 4.642498e-17 6.101251e-01 1.154411e+00 6.092840e-20
7.1005         3.280505e+02 7.051209e+02 4.643908e-17 3.274349e+02 7.039591e+02 4.637809e-17 6.156046e-01 1.161765e+00 6.098154e-20
7.1006         3.328813e+02 7.138079e+02 4.624728e-17 3.322614e+02 7.126391e+02 4.618673e-17 6.199017e-01 1.168781e+00 6.054631e-20
7.1007         3.366703e+02 7.207162e+02 4.613256e-17 3.360470e+02 7.195409e+02 4.607274e-17 6.233332e-01 1.175329e+00 5.981147e-20
7.1008         3.395906e+02 7.264025e+02 4.604974e-17 3.389645e+02 7.252211e+02 4.599083e-17 6.261027e-01 1.181376e+00 5.890290e-20
7.1009         3.418515e+02 7.308800e+02 4.608851e-17 3.412231e+02 7.296931e+02 4.603061e-17 6.283476e-01 1.186944e+00 5.790438e-20
7.101          3.436778e+02 7.346016e+02 4.585438e-17 3.430476e+02 7.334096e+02 4.579751e-17 6.301726e-01 1.192069e+00 5.686681e-20
7.1011         3.450555e+02 7.374641e+02 4.585223e-17 3.444238e+02 7.362673e+02 4.579640e-17 6.316555e-01 1.196792e+00 5.582809e-20
7.1012         3.461173e+02 7.397274e+02 4.583587e-17 3.454845e+02 7.385262e+02 4.578106e-17 6.328548e-01 1.201156e+00 5.480463e-20
7.1013         3.469614e+02 7.415718e+02 4.579265e-17 3.463276e+02 7.403666e+02 4.573884e-17 6.338166e-01 1.205200e+00 5.380583e-20
7.1014         3.475826e+02 7.429730e+02 4.578187e-17 3.469480e+02 7.417640e+02 4.572903e-17 6.345773e-01 1.208963e+00 5.284211e-20
7.1015         3.480459e+02 7.440531e+02 4.572364e-17 3.474108e+02 7.428406e+02 4.567172e-17 6.351655e-01 1.212474e+00 5.191123e-20
7.1016         3.483471e+02 7.448319e+02 4.571397e-17 3.477115e+02 7.436162e+02 4.566296e-17 6.356039e-01 1.215761e+00 5.101501e-20
7.1017         3.487459e+02 7.457567e+02 4.566252e-17 3.481100e+02 7.445379e+02 4.561237e-17 6.359107e-01 1.218848e+00 5.015215e-20
7.1018         3.488732e+02 7.461772e+02 4.568954e-17 3.482371e+02 7.449554e+02 4.564021e-17 6.361010e-01 1.221755e+00 4.932738e-20
7.1019         3.490984e+02 7.467166e+02 4.562970e-17 3.484622e+02 7.454921e+02 4.558116e-17 6.361894e-01 1.224497e+00 4.853688e-20
7.102          3.492374e+02 7.471123e+02 4.562583e-17 3.486012e+02 7.458852e+02 4.557805e-17 6.361854e-01 1.227090e+00 4.778032e-20
7.1021         3.494117e+02 7.475575e+02 4.560734e-17 3.487756e+02 7.463280e+02 4.556028e-17 6.360986e-01 1.229547e+00 4.705463e-20
7.1022         3.495570e+02 7.479076e+02 4.556553e-17 3.489211e+02 7.466758e+02 4.551917e-17 6.359371e-01 1.231880e+00 4.636255e-20
7.1023         3.496883e+02 7.482402e+02 4.556337e-17 3.490526e+02 7.470061e+02 4.551767e-17 6.357083e-01 1.234100e+00 4.569905e-20
7.1024         3.498772e+02 7.486477e+02 4.556558e-17 3.492418e+02 7.474115e+02 4.552052e-17 6.354190e-01 1.236215e+00 4.506524e-20
7.1025         3.500237e+02 7.490042e+02 4.557057e-17 3.493886e+02 7.477660e+02 4.552611e-17 6.350744e-01 1.238235e+00 4.445645e-20
7.1026         3.501732e+02 7.493452e+02 4.557124e-17 3.495385e+02 7.481051e+02 4.552736e-17 6.346800e-01 1.240167e+00 4.387554e-20
7.1027         3.503715e+02 7.497344e+02 4.550609e-17 3.497373e+02 7.484924e+02 4.546277e-17 6.342401e-01 1.242017e+00 4.332150e-20
7.1028         3.505807e+02 7.501769e+02 4.550760e-17 3.499469e+02 7.489331e+02 4.546480e-17 6.337575e-01 1.243794e+00 4.279300e-20
7.1029         3.507191e+02 7.504751e+02 4.550642e-17 3.500858e+02 7.492296e+02 4.546414e-17 6.332349e-01 1.245502e+00 4.228734e-20
7.103          3.508550e+02 7.507541e+02 4.546580e-17 3.502223e+02 7.495069e+02 4.542399e-17 6.326758e-01 1.247147e+00 4.180551e-20
7.1031         3.510318e+02 7.511286e+02 4.549129e-17 3.503997e+02 7.498799e+02 4.544994e-17 6.320828e-01 1.248734e+00 4.134393e-20
7.1032         3.511185e+02 7.512747e+02 4.543976e-17 3.504870e+02 7.500244e+02 4.539885e-17 6.314585e-01 1.250266e+00 4.090765e-20
7.1033         3.513900e+02 7.518640e+02 4.547884e-17 3.507592e+02 7.506122e+02 4.543836e-17 6.308039e-01 1.251751e+00 4.048280e-20
7.1034         3.513990e+02 7.519075e+02 4.544304e-17 3.507689e+02 7.506543e+02 4.540296e-17 6.301168e-01 1.253188e+00 4.008827e-20
7.1035         3.514540e+02 7.520286e+02 4.544898e-17 3.508246e+02 7.507740e+02 4.540927e-17 6.294013e-01 1.254581e+00 3.971142e-20
7.1036         3.515824e+02 7.522971e+02 4.544512e-17 3.509537e+02 7.510412e+02 4.540578e-17 6.286586e-01 1.255936e+00 3.934824e-20
7.1037         3.517029e+02 7.525201e+02 4.541499e-17 3.510750e+02 7.512629e+02 4.537598e-17 6.278915e-01 1.257254e+00 3.900462e-20
7.1038         3.517918e+02 7.526776e+02 4.534942e-17 3.511647e+02 7.514190e+02 4.531074e-17 6.271008e-01 1.258540e+00 3.867851e-20
7.1039         3.518538e+02 7.528240e+02 4.534895e-17 3.512275e+02 7.515642e+02 4.531059e-17 6.262872e-01 1.259794e+00 3.836656e-20
7.104          3.519290e+02 7.529777e+02 4.533869e-17 3.513035e+02 7.517167e+02 4.530062e-17 6.254519e-01 1.261020e+00 3.807004e-20
7.1041         3.520652e+02 7.532257e+02 4.528267e-17 3.514406e+02 7.519635e+02 4.524488e-17 6.245961e-01 1.262218e+00 3.778823e-20
7.1042         3.520555e+02 7.532281e+02 4.525664e-17 3.514318e+02 7.519647e+02 4.521912e-17 6.237209e-01 1.263391e+00 3.752156e-20
7.1043         3.521468e+02 7.533979e+02 4.519867e-17 3.515240e+02 7.521334e+02 4.516140e-17 6.228282e-01 1.264539e+00 3.726728e-20
7.1044         3.521759e+02 7.534789e+02 4.520693e-17 3.515539e+02 7.522132e+02 4.516990e-17 6.219188e-01 1.265665e+00 3.702539e-20
7.1045         3.522330e+02 7.536019e+02 4.517454e-17 3.516120e+02 7.523352e+02 4.513775e-17 6.209940e-01 1.266768e+00 3.679502e-20
7.1046         3.522618e+02 7.536511e+02 4.510963e-17 3.516417e+02 7.523832e+02 4.507306e-17 6.200546e-01 1.267851e+00 3.657755e-20
7.1047         3.522991e+02 7.537132e+02 4.506628e-17 3.516799e+02 7.524443e+02 4.502991e-17 6.191024e-01 1.268915e+00 3.637121e-20
7.1048         3.524655e+02 7.541114e+02 4.507989e-17 3.518473e+02 7.528414e+02 4.504372e-17 6.181347e-01 1.269962e+00 3.616707e-20
7.1049         3.525685e+02 7.543144e+02 4.503315e-17 3.519513e+02 7.530434e+02 4.499718e-17 6.171554e-01 1.270992e+00 3.597817e-20
7.105          3.525909e+02 7.543767e+02 4.502589e-17 3.519747e+02 7.531047e+02 4.499010e-17 6.161652e-01 1.272006e+00 3.579928e-20
7.1051         3.526468e+02 7.545071e+02 4.502751e-17 3.520316e+02 7.532341e+02 4.499188e-17 6.151648e-01 1.273005e+00 3.562824e-20
7.1052         3.527049e+02 7.546203e+02 4.487559e-17 3.520907e+02 7.533463e+02 4.484012e-17 6.141547e-01 1.273989e+00 3.546667e-20
7.1053         3.527731e+02 7.547712e+02 4.477471e-17 3.521600e+02 7.534962e+02 4.473940e-17 6.131357e-01 1.274961e+00 3.531162e-20
7.1054         3.528081e+02 7.548734e+02 4.478718e-17 3.521960e+02 7.535974e+02 4.475201e-17 6.121080e-01 1.275919e+00 3.516355e-20
7.1055         3.529113e+02 7.551159e+02 4.477885e-17 3.523002e+02 7.538390e+02 4.474383e-17 6.110723e-01 1.276867e+00 3.502105e-20
7.1056         3.529863e+02 7.553136e+02 4.474272e-17 3.523762e+02 7.540358e+02 4.470783e-17 6.100293e-01 1.277804e+00 3.488662e-20
7.1057         3.529899e+02 7.551920e+02 4.469691e-17 3.523809e+02 7.539132e+02 4.466215e-17 6.089781e-01 1.278729e+00 3.476000e-20
7.1058         3.530804e+02 7.554071e+02 4.466105e-17 3.524724e+02 7.541275e+02 4.462642e-17 6.079193e-01 1.279641e+00 3.463732e-20
7.1059         3.533371e+02 7.560100e+02 4.468103e-17 3.527303e+02 7.547295e+02 4.464652e-17 6.068536e-01 1.280546e+00 3.451253e-20
7.106          3.532078e+02 7.557154e+02 4.460418e-17 3.526020e+02 7.544339e+02 4.456977e-17 6.057824e-01 1.281443e+00 3.440903e-20
7.1061         3.532640e+02 7.558598e+02 4.458122e-17 3.526593e+02 7.545775e+02 4.454692e-17 6.047056e-01 1.282331e+00 3.430219e-20
7.1062         3.533247e+02 7.560179e+02 4.457003e-17 3.527211e+02 7.547347e+02 4.453583e-17 6.036233e-01 1.283213e+00 3.419935e-20
7.1063         3.534109e+02 7.562017e+02 4.453352e-17 3.528084e+02 7.549176e+02 4.449942e-17 6.025357e-01 1.284087e+00 3.410150e-20
7.1064         3.533978e+02 7.562102e+02 4.451063e-17 3.527964e+02 7.549253e+02 4.447662e-17 6.014432e-01 1.284955e+00 3.400827e-20
7.1065         3.535328e+02 7.564932e+02 4.447217e-17 3.529324e+02 7.552073e+02 4.443825e-17 6.003464e-01 1.285818e+00 3.391841e-20
7.1066         3.535121e+02 7.564987e+02 4.445629e-17 3.529128e+02 7.552120e+02 4.442246e-17 5.992450e-01 1.286674e+00 3.383277e-20
7.1067         3.535975e+02 7.566755e+02 4.441359e-17 3.529993e+02 7.553880e+02 4.437984e-17 5.981395e-01 1.287526e+00 3.375002e-20
7.1068         3.535435e+02 7.565571e+02 4.433720e-17 3.529464e+02 7.552687e+02 4.430352e-17 5.970314e-01 1.288372e+00 3.367476e-20
7.1069         3.536566e+02 7.568316e+02 4.435548e-17 3.530607e+02 7.555424e+02 4.432188e-17 5.959191e-01 1.289215e+00 3.359471e-20
7.107          3.536945e+02 7.569322e+02 4.433418e-17 3.530997e+02 7.556422e+02 4.430066e-17 5.948033e-01 1.290054e+00 3.352062e-20
7.1071         3.537449e+02 7.570503e+02 4.430047e-17 3.531512e+02 7.557594e+02 4.426702e-17 5.936842e-01 1.290889e+00 3.344900e-20
7.1072         3.537572e+02 7.571298e+02 4.427783e-17 3.531646e+02 7.558381e+02 4.424445e-17 5.925620e-01 1.291721e+00 3.337900e-20
7.1073         3.538049e+02 7.572337e+02 4.423363e-17 3.532134e+02 7.559411e+02 4.420032e-17 5.914359e-01 1.292551e+00 3.331234e-20
7.1074         3.538905e+02 7.574196e+02 4.419333e-17 3.533002e+02 7.561262e+02 4.416009e-17 5.903075e-01 1.293378e+00 3.324548e-20
7.1075         3.538816e+02 7.574212e+02 4.416543e-17 3.532925e+02 7.561270e+02 4.413224e-17 5.891767e-01 1.294203e+00 3.318342e-20
7.1076         3.539018e+02 7.574887e+02 4.413383e-17 3.533138e+02 7.561936e+02 4.410071e-17 5.880436e-01 1.295025e+00 3.312093e-20
7.1077         3.539119e+02 7.575358e+02 4.411168e-17 3.533250e+02 7.562400e+02 4.407861e-17 5.869083e-01 1.295846e+00 3.306045e-20
7.1078         3.539568e+02 7.576348e+02 4.406338e-17 3.533710e+02 7.563381e+02 4.403038e-17 5.857711e-01 1.296664e+00 3.300067e-20
7.1079         3.539735e+02 7.576839e+02 4.401342e-17 3.533888e+02 7.563864e+02 4.398048e-17 5.846320e-01 1.297481e+00 3.294207e-20
7.108          3.540234e+02 7.577924e+02 4.397936e-17 3.534399e+02 7.564941e+02 4.394648e-17 5.834914e-01 1.298297e+00 3.288416e-20
7.1081         3.540311e+02 7.578187e+02 4.395383e-17 3.534487e+02 7.565195e+02 4.392100e-17 5.823492e-01 1.299110e+00 3.282737e-20
7.1082         3.541164e+02 7.580293e+02 4.391184e-17 3.535352e+02 7.567293e+02 4.387908e-17 5.812053e-01 1.299923e+00 3.276849e-20
7.1083         3.541127e+02 7.580286e+02 4.385699e-17 3.535327e+02 7.567279e+02 4.382428e-17 5.800600e-01 1.300736e+00 3.271277e-20
7.1084         3.541651e+02 7.581403e+02 4.382066e-17 3.535862e+02 7.568387e+02 4.378801e-17 5.789135e-01 1.301547e+00 3.265617e-20
7.1085         3.541893e+02 7.582030e+02 4.376998e-17 3.536116e+02 7.569006e+02 4.373738e-17 5.777658e-01 1.302358e+00 3.259968e-20
7.1086         3.541955e+02 7.582307e+02 4.375266e-17 3.536189e+02 7.569275e+02 4.372012e-17 5.766172e-01 1.303168e+00 3.254378e-20
7.1087         3.542311e+02 7.583183e+02 4.369876e-17 3.536557e+02 7.570143e+02 4.366627e-17 5.754676e-01 1.303978e+00 3.248638e-20
7.1088         3.542668e+02 7.583985e+02 4.367516e-17 3.536925e+02 7.570937e+02 4.364274e-17 5.743174e-01 1.304788e+00 3.242919e-20
7.1089         3.542669e+02 7.584164e+02 4.362476e-17 3.536938e+02 7.571108e+02 4.359239e-17 5.731664e-01 1.305597e+00 3.237174e-20
7.109          3.542899e+02 7.584672e+02 4.359914e-17 3.537178e+02 7.571608e+02 4.356682e-17 5.720149e-01 1.306407e+00 3.231410e-20
7.1091         3.543239e+02 7.585410e+02 4.358408e-17 3.537530e+02 7.572338e+02 4.355183e-17 5.708626e-01 1.307216e+00 3.225463e-20
7.1092         3.543561e+02 7.586484e+02 4.338648e-17 3.537864e+02 7.573404e+02 4.335428e-17 5.697107e-01 1.308026e+00 3.219478e-20
7.1093         3.543723e+02 7.586831e+02 4.336748e-17 3.538038e+02 7.573743e+02 4.333534e-17 5.685594e-01 1.308837e+00 3.213529e-20
7.1094         3.543848e+02 7.587345e+02 4.336387e-17 3.538174e+02 7.574249e+02 4.333179e-17 5.674084e-01 1.309648e+00 3.207416e-20
7.1095         3.544171e+02 7.588060e+02 4.332246e-17 3.538509e+02 7.574956e+02 4.329045e-17 5.662579e-01 1.310460e+00 3.201260e-20
7.1096         3.544319e+02 7.588455e+02 4.328999e-17 3.538667e+02 7.575342e+02 4.325804e-17 5.651076e-01 1.311272e+00 3.195027e-20
7.1097         3.544556e+02 7.589072e+02 4.325104e-17 3.538917e+02 7.575952e+02 4.321916e-17 5.639578e-01 1.312086e+00 3.188612e-20
7.1098         3.544600e+02 7.589073e+02 4.317629e-17 3.538972e+02 7.575944e+02 4.314446e-17 5.628089e-01 1.312901e+00 3.182242e-20
7.1099         3.544959e+02 7.590175e+02 4.315975e-17 3.539342e+02 7.577038e+02 4.312800e-17 5.616599e-01 1.313718e+00 3.175054e-20
7.11           3.545683e+02 7.591633e+02 4.312561e-17 3.540078e+02 7.578488e+02 4.309393e-17 5.605106e-01 1.314537e+00 3.168219e-20
7.1101         3.546942e+02 7.594124e+02 4.313892e-17 3.541349e+02 7.580970e+02 4.310731e-17 5.593634e-01 1.315358e+00 3.161137e-20
7.1102         3.546159e+02 7.593477e+02 4.305265e-17 3.540577e+02 7.580316e+02 4.302111e-17 5.582151e-01 1.316181e+00 3.153937e-20
7.1103         3.546524e+02 7.593995e+02 4.301107e-17 3.540953e+02 7.580825e+02 4.297961e-17 5.570656e-01 1.317007e+00 3.146888e-20
7.1104         3.546560e+02 7.594106e+02 4.295711e-17 3.541001e+02 7.580927e+02 4.292571e-17 5.559175e-01 1.317835e+00 3.139658e-20
7.1105         3.546662e+02 7.594395e+02 4.291500e-17 3.541114e+02 7.581208e+02 4.288368e-17 5.547708e-01 1.318664e+00 3.132221e-20
7.1106         3.546980e+02 7.595084e+02 4.287466e-17 3.541443e+02 7.581889e+02 4.284341e-17 5.536252e-01 1.319495e+00 3.124641e-20
7.1107         3.547062e+02 7.595324e+02 4.283510e-17 3.541537e+02 7.582121e+02 4.280393e-17 5.524807e-01 1.320329e+00 3.116891e-20
7.1108         3.547416e+02 7.596000e+02 4.276518e-17 3.541903e+02 7.582788e+02 4.273409e-17 5.513374e-01 1.321165e+00 3.108985e-20
7.1109         3.547545e+02 7.596291e+02 4.272982e-17 3.542043e+02 7.583071e+02 4.269881e-17 5.501956e-01 1.322003e+00 3.100953e-20
7.111          3.547533e+02 7.596483e+02 4.267507e-17 3.542042e+02 7.583254e+02 4.264414e-17 5.490554e-01 1.322843e+00 3.092707e-20
7.1111         3.547344e+02 7.596519e+02 4.262253e-17 3.541865e+02 7.583282e+02 4.259168e-17 5.479127e-01 1.323687e+00 3.084425e-20
7.1112         3.547313e+02 7.596493e+02 4.258564e-17 3.541845e+02 7.583248e+02 4.255488e-17 5.467716e-01 1.324534e+00 3.075872e-20
7.1113         3.548632e+02 7.598896e+02 4.250592e-17 3.543176e+02 7.585642e+02 4.247525e-17 5.456326e-01 1.325383e+00 3.067561e-20
7.1114         3.548583e+02 7.598897e+02 4.246211e-17 3.543138e+02 7.585634e+02 4.243152e-17 5.444951e-01 1.326235e+00 3.058757e-20
7.1115         3.548957e+02 7.599640e+02 4.242359e-17 3.543523e+02 7.586369e+02 4.239309e-17 5.433590e-01 1.327089e+00 3.049751e-20
7.1116         3.549058e+02 7.599807e+02 4.237418e-17 3.543636e+02 7.586528e+02 4.234377e-17 5.422244e-01 1.327945e+00 3.040643e-20
7.1117         3.548747e+02 7.599599e+02 4.231369e-17 3.543336e+02 7.586311e+02 4.228338e-17 5.410892e-01 1.328804e+00 3.031250e-20
7.1118         3.548986e+02 7.600067e+02 4.226524e-17 3.543586e+02 7.586771e+02 4.223503e-17 5.399552e-01 1.329666e+00 3.021721e-20
7.1119         3.549205e+02 7.600666e+02 4.223530e-17 3.543816e+02 7.587360e+02 4.220518e-17 5.388225e-01 1.330530e+00 3.011890e-20
7.112          3.550060e+02 7.602604e+02 4.219624e-17 3.544683e+02 7.589290e+02 4.216623e-17 5.376908e-01 1.331397e+00 3.001573e-20
7.1121         3.549347e+02 7.600685e+02 4.209351e-17 3.543982e+02 7.587362e+02 4.206360e-17 5.365617e-01 1.332265e+00 2.991860e-20
7.1122         3.549736e+02 7.601497e+02 4.205706e-17 3.544381e+02 7.588165e+02 4.202725e-17 5.354342e-01 1.333136e+00 2.981383e-20
7.1123         3.549750e+02 7.601616e+02 4.200220e-17 3.544407e+02 7.588275e+02 4.197249e-17 5.343080e-01 1.334010e+00 2.970744e-20
7.1124         3.549891e+02 7.601980e+02 4.196119e-17 3.544559e+02 7.588632e+02 4.193160e-17 5.331832e-01 1.334887e+00 2.959810e-20
7.1125         3.550010e+02 7.602282e+02 4.190737e-17 3.544690e+02 7.588925e+02 4.187788e-17 5.320600e-01 1.335766e+00 2.948676e-20
7.1126         3.550412e+02 7.602958e+02 4.182900e-17 3.545103e+02 7.589591e+02 4.179963e-17 5.309383e-01 1.336648e+00 2.937320e-20
7.1127         3.550516e+02 7.603310e+02 4.180993e-17 3.545218e+02 7.589935e+02 4.178068e-17 5.298182e-01 1.337532e+00 2.925630e-20
7.1128         3.550672e+02 7.603657e+02 4.175298e-17 3.545385e+02 7.590272e+02 4.172384e-17 5.286997e-01 1.338420e+00 2.913735e-20
7.1129         3.550532e+02 7.603496e+02 4.170759e-17 3.545256e+02 7.590103e+02 4.167857e-17 5.275829e-01 1.339310e+00 2.901536e-20
7.113          3.550983e+02 7.604394e+02 4.166103e-17 3.545719e+02 7.590992e+02 4.163214e-17 5.264675e-01 1.340203e+00 2.889101e-20
7.1131         3.551124e+02 7.604715e+02 4.160547e-17 3.545870e+02 7.591304e+02 4.157671e-17 5.253539e-01 1.341099e+00 2.876445e-20
7.1132         3.551122e+02 7.604782e+02 4.154546e-17 3.545880e+02 7.591362e+02 4.151683e-17 5.242421e-01 1.341998e+00 2.863495e-20
7.1133         3.551323e+02 7.605233e+02 4.149681e-17 3.546092e+02 7.591804e+02 4.146831e-17 5.231322e-01 1.342899e+00 2.850253e-20
7.1134         3.551374e+02 7.605305e+02 4.143260e-17 3.546153e+02 7.591867e+02 4.140423e-17 5.220243e-01 1.343803e+00 2.836811e-20
7.1135         3.551812e+02 7.606208e+02 4.138771e-17 3.546603e+02 7.592760e+02 4.135948e-17 5.209183e-01 1.344710e+00 2.822959e-20
7.1136         3.551756e+02 7.606314e+02 4.135088e-17 3.546558e+02 7.592858e+02 4.132280e-17 5.198143e-01 1.345620e+00 2.808865e-20
7.1137         3.551977e+02 7.606755e+02 4.130072e-17 3.546790e+02 7.593289e+02 4.127277e-17 5.187126e-01 1.346532e+00 2.794448e-20
7.1138         3.552235e+02 7.607225e+02 4.124141e-17 3.547059e+02 7.593750e+02 4.121361e-17 5.176129e-01 1.347447e+00 2.779825e-20
7.1139         3.552380e+02 7.607490e+02 4.118249e-17 3.547215e+02 7.594006e+02 4.115484e-17 5.165157e-01 1.348365e+00 2.764883e-20
7.114          3.552493e+02 7.608076e+02 4.113019e-17 3.547339e+02 7.594583e+02 4.110269e-17 5.154205e-01 1.349285e+00 2.749488e-20
7.1141         3.552554e+02 7.608663e+02 4.109888e-17 3.547410e+02 7.595161e+02 4.107155e-17 5.143240e-01 1.350210e+00 2.733742e-20
7.1142         3.552869e+02 7.609140e+02 4.101311e-17 3.547737e+02 7.595629e+02 4.098593e-17 5.132301e-01 1.351137e+00 2.717925e-20
7.1143         3.552772e+02 7.608958e+02 4.102592e-17 3.547650e+02 7.595437e+02 4.099890e-17 5.121388e-01 1.352066e+00 2.701898e-20
7.1144         3.552707e+02 7.608753e+02 4.096342e-17 3.547597e+02 7.595223e+02 4.093656e-17 5.110500e-01 1.352998e+00 2.685535e-20
7.1145         3.552807e+02 7.609046e+02 4.090314e-17 3.547707e+02 7.595506e+02 4.087645e-17 5.099639e-01 1.353932e+00 2.668732e-20
7.1146         3.553011e+02 7.609510e+02 4.084709e-17 3.547923e+02 7.595961e+02 4.082058e-17 5.088800e-01 1.354868e+00 2.651703e-20
7.1147         3.553088e+02 7.609720e+02 4.078701e-17 3.548010e+02 7.596162e+02 4.076067e-17 5.077985e-01 1.355807e+00 2.634334e-20
7.1148         3.553377e+02 7.610331e+02 4.074351e-17 3.548310e+02 7.596763e+02 4.071735e-17 5.067193e-01 1.356748e+00 2.616696e-20
7.1149         3.553514e+02 7.610646e+02 4.068467e-17 3.548457e+02 7.597069e+02 4.065868e-17 5.056424e-01 1.357692e+00 2.598757e-20
7.115          3.553594e+02 7.610917e+02 4.063344e-17 3.548549e+02 7.597331e+02 4.060763e-17 5.045678e-01 1.358638e+00 2.580497e-20
7.1151         3.553540e+02 7.610951e+02 4.057829e-17 3.548505e+02 7.597355e+02 4.055267e-17 5.034955e-01 1.359586e+00 2.561999e-20
7.1152         3.553848e+02 7.611507e+02 4.050921e-17 3.548824e+02 7.597901e+02 4.048378e-17 5.024256e-01 1.360536e+00 2.543199e-20
7.1153         3.553812e+02 7.611550e+02 4.045753e-17 3.548798e+02 7.597935e+02 4.043229e-17 5.013582e-01 1.361489e+00 2.524086e-20
7.1154         3.553953e+02 7.611819e+02 4.040397e-17 3.548950e+02 7.598195e+02 4.037892e-17 5.002933e-01 1.362443e+00 2.504702e-20
7.1155         3.554187e+02 7.612252e+02 4.035203e-17 3.549195e+02 7.598618e+02 4.032718e-17 4.992312e-01 1.363400e+00 2.485049e-20
7.1156         3.553794e+02 7.612025e+02 4.027527e-17 3.548812e+02 7.598381e+02 4.025062e-17 4.981708e-01 1.364359e+00 2.464951e-20
7.1157         3.554001e+02 7.612372e+02 4.023032e-17 3.549030e+02 7.598719e+02 4.020587e-17 4.971111e-01 1.365321e+00 2.444805e-20
7.1158         3.553946e+02 7.612319e+02 4.015977e-17 3.548985e+02 7.598656e+02 4.013553e-17 4.960544e-01 1.366284e+00 2.424285e-20
7.1159         3.554195e+02 7.612820e+02 4.010233e-17 3.549245e+02 7.599147e+02 4.007829e-17 4.950004e-01 1.367249e+00 2.403510e-20
7.116          3.554174e+02 7.612904e+02 4.006087e-17 3.549234e+02 7.599222e+02 4.003705e-17 4.939490e-01 1.368216e+00 2.382451e-20
7.1161         3.554546e+02 7.613597e+02 3.999478e-17 3.549617e+02 7.599906e+02 3.997117e-17 4.929002e-01 1.369185e+00 2.361110e-20
7.1162         3.554415e+02 7.613406e+02 3.992593e-17 3.549496e+02 7.599704e+02 3.990254e-17 4.918541e-01 1.370155e+00 2.339541e-20
7.1163         3.554593e+02 7.613721e+02 3.986135e-17 3.549685e+02 7.600010e+02 3.983817e-17 4.908108e-01 1.371127e+00 2.317724e-20
7.1164         3.554818e+02 7.614703e+02 3.983698e-17 3.549921e+02 7.600982e+02 3.981403e-17 4.897691e-01 1.372102e+00 2.295337e-20
7.1165         3.554827e+02 7.614611e+02 3.976042e-17 3.549940e+02 7.600880e+02 3.973769e-17 4.887290e-01 1.373078e+00 2.273082e-20
7.1166         3.554885e+02 7.614772e+02 3.970245e-17 3.550008e+02 7.601031e+02 3.967994e-17 4.876919e-01 1.374056e+00 2.250520e-20
7.1167         3.554995e+02 7.614993e+02 3.963839e-17 3.550128e+02 7.601243e+02 3.961611e-17 4.866576e-01 1.375035e+00 2.227666e-20
7.1168         3.555036e+02 7.615217e+02 3.959020e-17 3.550180e+02 7.601457e+02 3.956815e-17 4.856259e-01 1.376015e+00 2.204565e-20
7.1169         3.555451e+02 7.615954e+02 3.952356e-17 3.550605e+02 7.602184e+02 3.950175e-17 4.845970e-01 1.376997e+00 2.181239e-20
7.117          3.555507e+02 7.616072e+02 3.945339e-17 3.550671e+02 7.602292e+02 3.943182e-17 4.835706e-01 1.377980e+00 2.157742e-20
7.1171         3.555524e+02 7.616201e+02 3.939449e-17 3.550698e+02 7.602412e+02 3.937315e-17 4.825469e-01 1.378964e+00 2.133979e-20
7.1172         3.555536e+02 7.616281e+02 3.933344e-17 3.550721e+02 7.602482e+02 3.931234e-17 4.815258e-01 1.379950e+00 2.109985e-20
7.1173         3.555631e+02 7.616603e+02 3.928596e-17 3.550826e+02 7.602794e+02 3.926510e-17 4.805073e-01 1.380937e+00 2.085770e-20
7.1174         3.556085e+02 7.617405e+02 3.921941e-17 3.551290e+02 7.603586e+02 3.919879e-17 4.794917e-01 1.381925e+00 2.061369e-20
7.1175         3.556005e+02 7.617374e+02 3.917769e-17 3.551220e+02 7.603545e+02 3.915732e-17 4.784784e-01 1.382914e+00 2.036782e-20
7.1176         3.556160e+02 7.617666e+02 3.909103e-17 3.551385e+02 7.603827e+02 3.907091e-17 4.774680e-01 1.383904e+00 2.012034e-20
7.1177         3.556272e+02 7.617945e+02 3.902604e-17 3.551508e+02 7.604096e+02 3.900617e-17 4.764601e-01 1.384895e+00 1.987058e-20
7.1178         3.556280e+02 7.617955e+02 3.895668e-17 3.551525e+02 7.604096e+02 3.893706e-17 4.754549e-01 1.385888e+00 1.961975e-20
7.1179         3.556514e+02 7.618391e+02 3.889024e-17 3.551770e+02 7.604522e+02 3.887088e-17 4.744523e-01 1.386881e+00 1.936660e-20
7.118          3.556509e+02 7.618489e+02 3.883278e-17 3.551775e+02 7.604610e+02 3.881367e-17 4.734524e-01 1.387875e+00 1.911170e-20
7.1181         3.556591e+02 7.618666e+02 3.877767e-17 3.551866e+02 7.604777e+02 3.875882e-17 4.724550e-01 1.388870e+00 1.885550e-20
7.1182         3.556613e+02 7.618738e+02 3.869856e-17 3.551899e+02 7.604839e+02 3.867996e-17 4.714603e-01 1.389866e+00 1.859766e-20
7.1183         3.556922e+02 7.619365e+02 3.865027e-17 3.552217e+02 7.605456e+02 3.863193e-17 4.704683e-01 1.390863e+00 1.833853e-20
7.1184         3.557046e+02 7.619606e+02 3.857428e-17 3.552351e+02 7.605688e+02 3.855620e-17 4.694789e-01 1.391860e+00 1.807801e-20
7.1185         3.557126e+02 7.619831e+02 3.851088e-17 3.552441e+02 7.605902e+02 3.849307e-17 4.684922e-01 1.392859e+00 1.781613e-20
7.1186         3.557279e+02 7.620157e+02 3.844661e-17 3.552604e+02 7.606218e+02 3.842906e-17 4.675082e-01 1.393858e+00 1.755305e-20
7.1187         3.557296e+02 7.620277e+02 3.839022e-17 3.552631e+02 7.606328e+02 3.837293e-17 4.665267e-01 1.394858e+00 1.728870e-20
7.1188         3.557412e+02 7.620485e+02 3.831700e-17 3.552756e+02 7.606526e+02 3.829997e-17 4.655480e-01 1.395858e+00 1.702350e-20
7.1189         3.557964e+02 7.621773e+02 3.826054e-17 3.553318e+02 7.607804e+02 3.824378e-17 4.645721e-01 1.396859e+00 1.675581e-20
7.119          3.557880e+02 7.621646e+02 3.820078e-17 3.553244e+02 7.607668e+02 3.818429e-17 4.635979e-01 1.397861e+00 1.648880e-20
7.1191         3.558176e+02 7.622234e+02 3.813960e-17 3.553549e+02 7.608245e+02 3.812338e-17 4.626265e-01 1.398864e+00 1.622076e-20
7.1192         3.558130e+02 7.622233e+02 3.806476e-17 3.553513e+02 7.608234e+02 3.804881e-17 4.616577e-01 1.399867e+00 1.595182e-20
7.1193         3.558354e+02 7.622905e+02 3.801681e-17 3.553748e+02 7.608896e+02 3.800113e-17 4.606911e-01 1.400870e+00 1.568169e-20
7.1194         3.558465e+02 7.622667e+02 3.793786e-17 3.553868e+02 7.608648e+02 3.792245e-17 4.597279e-01 1.401875e+00 1.541264e-20
7.1195         3.558641e+02 7.623145e+02 3.787660e-17 3.554053e+02 7.609116e+02 3.786146e-17 4.587683e-01 1.402881e+00 1.514149e-20
7.1196         3.558529e+02 7.623027e+02 3.780255e-17 3.553951e+02 7.608988e+02 3.778768e-17 4.578112e-01 1.403887e+00 1.487079e-20
7.1197         3.558694e+02 7.623441e+02 3.773939e-17 3.554125e+02 7.609392e+02 3.772479e-17 4.568567e-01 1.404893e+00 1.459873e-20
7.1198         3.559094e+02 7.624275e+02 3.767624e-17 3.554535e+02 7.610216e+02 3.766192e-17 4.559049e-01 1.405901e+00 1.432685e-20
7.1199         3.559246e+02 7.624821e+02 3.763015e-17 3.554697e+02 7.610752e+02 3.761609e-17 4.549555e-01 1.406909e+00 1.405388e-20
7.12           3.559124e+02 7.624503e+02 3.754032e-17 3.554584e+02 7.610424e+02 3.752654e-17 4.540094e-01 1.407916e+00 1.378303e-20
7.1201         3.559234e+02 7.624550e+02 3.748591e-17 3.554703e+02 7.610460e+02 3.747240e-17 4.530671e-01 1.408924e+00 1.351254e-20
7.1202         3.559559e+02 7.625272e+02 3.742748e-17 3.555038e+02 7.611172e+02 3.741424e-17 4.521276e-01 1.409932e+00 1.323985e-20
7.1203         3.559787e+02 7.625727e+02 3.734313e-17 3.555275e+02 7.611618e+02 3.733016e-17 4.511909e-01 1.410941e+00 1.296812e-20
7.1204         3.559705e+02 7.625811e+02 3.730282e-17 3.555202e+02 7.611691e+02 3.729012e-17 4.502574e-01 1.411951e+00 1.269596e-20
7.1205         3.559667e+02 7.625805e+02 3.722866e-17 3.555174e+02 7.611675e+02 3.721623e-17 4.493252e-01 1.412959e+00 1.242739e-20
7.1206         3.559749e+02 7.626049e+02 3.715134e-17 3.555265e+02 7.611909e+02 3.713918e-17 4.483959e-01 1.413968e+00 1.215713e-20
7.1207         3.560451e+02 7.627958e+02 3.711311e-17 3.555977e+02 7.613808e+02 3.710123e-17 4.474682e-01 1.414977e+00 1.188491e-20
7.1208         3.559643e+02 7.625719e+02 3.699776e-17 3.555178e+02 7.611559e+02 3.698614e-17 4.465449e-01 1.415986e+00 1.162120e-20
7.1209         3.559435e+02 7.625467e+02 3.694516e-17 3.554978e+02 7.611297e+02 3.693381e-17 4.456256e-01 1.416995e+00 1.135312e-20
7.121          3.559868e+02 7.626466e+02 3.688042e-17 3.555421e+02 7.612286e+02 3.686933e-17 4.447102e-01 1.418005e+00 1.108526e-20
7.1211         3.560002e+02 7.627053e+02 3.685140e-17 3.555564e+02 7.612863e+02 3.684058e-17 4.437939e-01 1.419011e+00 1.081732e-20
7.1212         3.560413e+02 7.627734e+02 3.676256e-17 3.555984e+02 7.613534e+02 3.675201e-17 4.428810e-01 1.420018e+00 1.055265e-20
7.1213         3.560433e+02 7.627853e+02 3.669517e-17 3.556014e+02 7.613643e+02 3.668489e-17 4.419711e-01 1.421024e+00 1.028827e-20
7.1214         3.560641e+02 7.628252e+02 3.662344e-17 3.556231e+02 7.614031e+02 3.661342e-17 4.410640e-01 1.422031e+00 1.002494e-20
7.1215         3.560412e+02 7.628038e+02 3.656970e-17 3.556011e+02 7.613808e+02 3.655994e-17 4.401596e-01 1.423038e+00 9.761894e-21
7.1216         3.560940e+02 7.629043e+02 3.649731e-17 3.556547e+02 7.614802e+02 3.648781e-17 4.392578e-01 1.424044e+00 9.499935e-21
7.1217         3.560970e+02 7.629108e+02 3.641496e-17 3.556587e+02 7.614857e+02 3.640572e-17 4.383585e-01 1.425051e+00 9.239063e-21
7.1218         3.561064e+02 7.629310e+02 3.633394e-17 3.556689e+02 7.615049e+02 3.632496e-17 4.374615e-01 1.426058e+00 8.979326e-21
7.1219         3.561166e+02 7.629625e+02 3.627561e-17 3.556800e+02 7.615354e+02 3.626689e-17 4.365665e-01 1.427065e+00 8.718988e-21
7.122          3.561389e+02 7.630158e+02 3.620531e-17 3.557033e+02 7.615877e+02 3.619685e-17 4.356733e-01 1.428072e+00 8.459830e-21
7.1221         3.561677e+02 7.630466e+02 3.614024e-17 3.557329e+02 7.616176e+02 3.613204e-17 4.347822e-01 1.429079e+00 8.202193e-21
7.1222         3.562079e+02 7.631623e+02 3.610076e-17 3.557740e+02 7.617323e+02 3.609282e-17 4.338938e-01 1.430086e+00 7.941810e-21
7.1223         3.560608e+02 7.627900e+02 3.592556e-17 3.556278e+02 7.613589e+02 3.591787e-17 4.330082e-01 1.431092e+00 7.692313e-21
7.1224         3.560649e+02 7.628267e+02 3.587642e-17 3.556328e+02 7.613946e+02 3.586898e-17 4.321255e-01 1.432097e+00 7.434911e-21
7.1225         3.561388e+02 7.629576e+02 3.579685e-17 3.557075e+02 7.615245e+02 3.578968e-17 4.312440e-01 1.433103e+00 7.176889e-21