# Moment      
# CofR        : (0.000000e+00 0.000000e+00 0.000000e+00)
#
# Time        	total_x total_y total_z	pressure_x pressure_y pressure_z	viscous_x viscous_y viscous_z
7.10001        3.547520e+02 -2.871743e+02 -3.731997e+03 3.553194e+02 -2.874618e+02 -3.736005e+03 -5.673681e-01 2.874514e-01 4.008174e+00
7.10002        1.189681e+02 -1.034001e+02 -1.611131e+03 1.195376e+02 -1.036976e+02 -1.615065e+03 -5.694864e-01 2.975135e-01 3.933588e+00
7.10003        1.054336e+01 -3.050189e+01 -4.281706e+02 1.111617e+01 -3.080557e+01 -4.320783e+02 -5.728136e-01 3.036770e-01 3.907713e+00
7.10004        -6.325267e+01 1.214244e+01 4.397993e+02 -6.267629e+01 1.183434e+01 4.358987e+02 -5.763825e-01 3.080940e-01 3.900605e+00
7.10005        -1.204152e+02 4.435369e+01 1.082080e+03 -1.198352e+02 4.404209e+01 1.078178e+03 -5.799588e-01 3.116036e-01 3.902017e+00
7.10006        -1.680052e+02 7.049281e+01 1.579559e+03 -1.674219e+02 7.017829e+01 1.575651e+03 -5.833771e-01 3.145243e-01 3.907400e+00
7.10007        -2.040654e+02 9.002676e+01 1.939129e+03 -2.034789e+02 8.970975e+01 1.935214e+03 -5.865651e-01 3.170136e-01 3.914614e+00
7.10008        -2.349384e+02 1.057477e+02 2.252874e+03 -2.343489e+02 1.054286e+02 2.248951e+03 -5.895083e-01 3.191704e-01 3.922607e+00
7.10009        -2.578012e+02 1.172108e+02 2.479860e+03 -2.572089e+02 1.168898e+02 2.475929e+03 -5.922170e-01 3.210638e-01 3.930823e+00
7.1001         -2.777836e+02 1.270180e+02 2.682476e+03 -2.771889e+02 1.266953e+02 2.678537e+03 -5.947098e-01 3.227458e-01 3.938953e+00
7.10011        -2.915899e+02 1.335873e+02 2.822955e+03 -2.909929e+02 1.332630e+02 2.819008e+03 -5.970074e-01 3.242546e-01 3.946836e+00
7.10012        -3.023451e+02 1.387977e+02 2.933766e+03 -3.017459e+02 1.384720e+02 2.929812e+03 -5.991302e-01 3.256202e-01 3.954380e+00
7.10013        -3.101671e+02 1.424323e+02 3.017674e+03 -3.095660e+02 1.421054e+02 3.013712e+03 -6.010976e-01 3.268646e-01 3.961563e+00
7.10014        -3.156613e+02 1.449173e+02 3.076859e+03 -3.150584e+02 1.445893e+02 3.072890e+03 -6.029278e-01 3.280047e-01 3.968400e+00
7.10015        -3.209439e+02 1.472168e+02 3.137702e+03 -3.203393e+02 1.468877e+02 3.133727e+03 -6.046362e-01 3.290538e-01 3.974917e+00
7.10016        -3.240500e+02 1.485014e+02 3.173650e+03 -3.234438e+02 1.481713e+02 3.169669e+03 -6.062359e-01 3.300226e-01 3.981140e+00
7.10017        -3.272087e+02 1.497911e+02 3.209674e+03 -3.266010e+02 1.494601e+02 3.205687e+03 -6.077382e-01 3.309205e-01 3.987089e+00
7.10018        -3.295991e+02 1.507955e+02 3.235342e+03 -3.289900e+02 1.504637e+02 3.231350e+03 -6.091521e-01 3.317568e-01 3.992764e+00
7.10019        -3.320679e+02 1.518152e+02 3.263169e+03 -3.314574e+02 1.514826e+02 3.259171e+03 -6.104851e-01 3.325395e-01 3.998164e+00
7.1002         -3.337715e+02 1.525227e+02 3.281480e+03 -3.331598e+02 1.521894e+02 3.277476e+03 -6.117441e-01 3.332754e-01 4.003291e+00
7.10021        -3.357130e+02 1.533827e+02 3.302543e+03 -3.351001e+02 1.530488e+02 3.298535e+03 -6.129350e-01 3.339700e-01 4.008150e+00
7.10022        -3.376118e+02 1.541999e+02 3.323796e+03 -3.369977e+02 1.538652e+02 3.319783e+03 -6.140633e-01 3.346281e-01 4.012753e+00
7.10023        -3.394255e+02 1.550658e+02 3.343595e+03 -3.388104e+02 1.547305e+02 3.339577e+03 -6.151339e-01 3.352542e-01 4.017103e+00
7.10024        -3.414514e+02 1.560066e+02 3.366119e+03 -3.408352e+02 1.556707e+02 3.362098e+03 -6.161512e-01 3.358513e-01 4.021217e+00
7.10025        -3.430294e+02 1.567976e+02 3.383200e+03 -3.424123e+02 1.564612e+02 3.379175e+03 -6.171196e-01 3.364227e-01 4.025107e+00
7.10026        -3.444868e+02 1.574703e+02 3.399323e+03 -3.438687e+02 1.571333e+02 3.395294e+03 -6.180420e-01 3.369702e-01 4.028785e+00
7.10027        -3.465310e+02 1.585533e+02 3.421443e+03 -3.459120e+02 1.582158e+02 3.417411e+03 -6.189202e-01 3.374950e-01 4.032254e+00
7.10028        -3.480489e+02 1.593354e+02 3.438078e+03 -3.474292e+02 1.589974e+02 3.434043e+03 -6.197596e-01 3.380001e-01 4.035542e+00
7.10029        -3.491027e+02 1.598148e+02 3.449870e+03 -3.484821e+02 1.594763e+02 3.445832e+03 -6.205629e-01 3.384867e-01 4.038665e+00
7.1003         -3.503597e+02 1.604541e+02 3.463659e+03 -3.497383e+02 1.601151e+02 3.459618e+03 -6.213327e-01 3.389559e-01 4.041635e+00
7.10031        -3.516386e+02 1.611723e+02 3.477299e+03 -3.510165e+02 1.608329e+02 3.473255e+03 -6.220713e-01 3.394090e-01 4.044466e+00
7.10032        -3.529448e+02 1.618566e+02 3.491505e+03 -3.523220e+02 1.615168e+02 3.487458e+03 -6.227810e-01 3.398464e-01 4.047172e+00
7.10033        -3.542637e+02 1.625201e+02 3.505811e+03 -3.536402e+02 1.621799e+02 3.501761e+03 -6.234636e-01 3.402691e-01 4.049765e+00
7.10034        -3.551740e+02 1.630415e+02 3.515100e+03 -3.545499e+02 1.627008e+02 3.511047e+03 -6.241209e-01 3.406778e-01 4.052253e+00
7.10035        -3.563117e+02 1.636845e+02 3.526794e+03 -3.556870e+02 1.633434e+02 3.522739e+03 -6.247545e-01 3.410732e-01 4.054645e+00
7.10036        -3.572381e+02 1.642326e+02 3.535935e+03 -3.566128e+02 1.638911e+02 3.531878e+03 -6.253657e-01 3.414561e-01 4.056946e+00
7.10037        -3.581487e+02 1.647160e+02 3.545857e+03 -3.575227e+02 1.643741e+02 3.541798e+03 -6.259559e-01 3.418269e-01 4.059165e+00
7.10038        -3.590160e+02 1.651995e+02 3.554933e+03 -3.583895e+02 1.648574e+02 3.550872e+03 -6.265261e-01 3.421864e-01 4.061305e+00
7.10039        -3.599450e+02 1.657562e+02 3.564084e+03 -3.593179e+02 1.654136e+02 3.560021e+03 -6.270775e-01 3.425351e-01 4.063371e+00
7.1004         -3.605871e+02 1.661417e+02 3.570793e+03 -3.599595e+02 1.657988e+02 3.566727e+03 -6.276111e-01 3.428733e-01 4.065369e+00
7.10041        -3.611918e+02 1.664944e+02 3.576886e+03 -3.605637e+02 1.661512e+02 3.572819e+03 -6.281278e-01 3.432017e-01 4.067305e+00
7.10042        -3.616854e+02 1.667644e+02 3.582003e+03 -3.610568e+02 1.664209e+02 3.577934e+03 -6.286287e-01 3.435205e-01 4.069183e+00
7.10043        -3.622214e+02 1.671053e+02 3.587511e+03 -3.615923e+02 1.667614e+02 3.583440e+03 -6.291145e-01 3.438302e-01 4.071006e+00
7.10044        -3.630179e+02 1.675564e+02 3.595907e+03 -3.623883e+02 1.672123e+02 3.591834e+03 -6.295860e-01 3.441313e-01 4.072779e+00
7.10045        -3.633282e+02 1.677481e+02 3.599394e+03 -3.626981e+02 1.674037e+02 3.595320e+03 -6.300438e-01 3.444241e-01 4.074502e+00
7.10046        -3.635444e+02 1.678983e+02 3.601460e+03 -3.629139e+02 1.675536e+02 3.597384e+03 -6.304890e-01 3.447087e-01 4.076187e+00
7.10047        -3.641101e+02 1.682248e+02 3.607434e+03 -3.634792e+02 1.678798e+02 3.603357e+03 -6.309216e-01 3.449859e-01 4.077827e+00
7.10048        -3.644069e+02 1.683947e+02 3.610602e+03 -3.637756e+02 1.680495e+02 3.606522e+03 -6.313423e-01 3.452557e-01 4.079424e+00
7.10049        -3.648686e+02 1.686633e+02 3.615538e+03 -3.642369e+02 1.683178e+02 3.611457e+03 -6.317515e-01 3.455187e-01 4.080980e+00
7.1005         -3.656590e+02 1.691157e+02 3.623976e+03 -3.650269e+02 1.687699e+02 3.619894e+03 -6.321499e-01 3.457750e-01 4.082498e+00
7.10051        -3.654089e+02 1.689967e+02 3.621081e+03 -3.647764e+02 1.686507e+02 3.616997e+03 -6.325377e-01 3.460248e-01 4.083980e+00
7.10052        -3.659072e+02 1.692794e+02 3.626356e+03 -3.652742e+02 1.689331e+02 3.622271e+03 -6.329155e-01 3.462686e-01 4.085425e+00
7.10053        -3.661650e+02 1.694337e+02 3.628867e+03 -3.655317e+02 1.690872e+02 3.624780e+03 -6.332837e-01 3.465063e-01 4.086839e+00
7.10054        -3.665855e+02 1.696745e+02 3.633833e+03 -3.659519e+02 1.693277e+02 3.629745e+03 -6.336425e-01 3.467384e-01 4.088219e+00
7.10055        -3.667058e+02 1.697377e+02 3.634798e+03 -3.660719e+02 1.693907e+02 3.630708e+03 -6.339925e-01 3.469650e-01 4.089569e+00
7.10056        -3.674552e+02 1.701403e+02 3.643071e+03 -3.668209e+02 1.697931e+02 3.638980e+03 -6.343339e-01 3.471862e-01 4.090891e+00
7.10057        -3.676875e+02 1.702845e+02 3.645231e+03 -3.670528e+02 1.699371e+02 3.641139e+03 -6.346671e-01 3.474023e-01 4.092186e+00
7.10058        -3.677465e+02 1.702668e+02 3.646059e+03 -3.671116e+02 1.699192e+02 3.641965e+03 -6.349925e-01 3.476133e-01 4.093456e+00
7.10059        -3.681386e+02 1.705164e+02 3.650144e+03 -3.675033e+02 1.701686e+02 3.646049e+03 -6.353102e-01 3.478195e-01 4.094701e+00
7.1006         -3.684177e+02 1.706601e+02 3.653352e+03 -3.677820e+02 1.703120e+02 3.649256e+03 -6.356208e-01 3.480210e-01 4.095926e+00
7.10061        -3.689436e+02 1.709438e+02 3.659106e+03 -3.683077e+02 1.705956e+02 3.655009e+03 -6.359243e-01 3.482178e-01 4.097130e+00
7.10062        -3.694297e+02 1.712056e+02 3.664322e+03 -3.687935e+02 1.708572e+02 3.660223e+03 -6.362211e-01 3.484103e-01 4.098314e+00
7.10063        -3.695950e+02 1.712700e+02 3.666120e+03 -3.689585e+02 1.709214e+02 3.662020e+03 -6.365115e-01 3.485984e-01 4.099481e+00
7.10064        -3.699897e+02 1.715093e+02 3.670200e+03 -3.693529e+02 1.711605e+02 3.666099e+03 -6.367956e-01 3.487823e-01 4.100629e+00
7.10065        -3.703156e+02 1.716777e+02 3.673932e+03 -3.696785e+02 1.713288e+02 3.669830e+03 -6.370738e-01 3.489622e-01 4.101762e+00
7.10066        -3.704930e+02 1.717688e+02 3.675751e+03 -3.698556e+02 1.714196e+02 3.671648e+03 -6.373462e-01 3.491379e-01 4.102881e+00
7.10067        -3.710064e+02 1.720554e+02 3.681508e+03 -3.703688e+02 1.717061e+02 3.677405e+03 -6.376130e-01 3.493097e-01 4.103987e+00
7.10068        -3.710675e+02 1.720692e+02 3.682007e+03 -3.704296e+02 1.717197e+02 3.677902e+03 -6.378745e-01 3.494777e-01 4.105080e+00
7.10069        -3.711576e+02 1.721053e+02 3.683236e+03 -3.705195e+02 1.717557e+02 3.679130e+03 -6.381309e-01 3.496419e-01 4.106162e+00
7.1007         -3.715460e+02 1.723169e+02 3.687561e+03 -3.709076e+02 1.719671e+02 3.683453e+03 -6.383822e-01 3.498026e-01 4.107231e+00
7.10071        -3.719743e+02 1.725425e+02 3.691977e+03 -3.713357e+02 1.721925e+02 3.687868e+03 -6.386287e-01 3.499597e-01 4.108291e+00
7.10072        -3.719284e+02 1.725163e+02 3.691712e+03 -3.712895e+02 1.721662e+02 3.687602e+03 -6.388705e-01 3.501134e-01 4.109341e+00
7.10073        -3.720225e+02 1.725523e+02 3.692643e+03 -3.713834e+02 1.722020e+02 3.688532e+03 -6.391078e-01 3.502638e-01 4.110380e+00
7.10074        -3.724840e+02 1.728062e+02 3.697824e+03 -3.718446e+02 1.724558e+02 3.693713e+03 -6.393407e-01 3.504110e-01 4.111410e+00
7.10075        -3.725287e+02 1.728197e+02 3.698413e+03 -3.718891e+02 1.724691e+02 3.694301e+03 -6.395694e-01 3.505550e-01 4.112432e+00
7.10076        -3.729018e+02 1.730515e+02 3.702273e+03 -3.722620e+02 1.727008e+02 3.698160e+03 -6.397938e-01 3.506960e-01 4.113444e+00
7.10077        -3.733556e+02 1.733045e+02 3.707198e+03 -3.727156e+02 1.729536e+02 3.703083e+03 -6.400143e-01 3.508340e-01 4.114448e+00
7.10078        -3.730603e+02 1.730870e+02 3.704183e+03 -3.724201e+02 1.727360e+02 3.700067e+03 -6.402309e-01 3.509690e-01 4.115445e+00
7.10079        -3.735686e+02 1.734015e+02 3.709641e+03 -3.729281e+02 1.730504e+02 3.705525e+03 -6.404438e-01 3.511013e-01 4.116434e+00
7.1008         -3.735009e+02 1.733406e+02 3.709193e+03 -3.728603e+02 1.729893e+02 3.705076e+03 -6.406529e-01 3.512308e-01 4.117415e+00
7.10081        -3.739171e+02 1.735648e+02 3.713453e+03 -3.732762e+02 1.732134e+02 3.709334e+03 -6.408585e-01 3.513577e-01 4.118389e+00
7.10082        -3.741721e+02 1.737115e+02 3.716565e+03 -3.735310e+02 1.733600e+02 3.712446e+03 -6.410607e-01 3.514821e-01 4.119356e+00
7.10083        -3.740839e+02 1.736483e+02 3.715138e+03 -3.734426e+02 1.732967e+02 3.711018e+03 -6.412595e-01 3.516037e-01 4.120317e+00
7.10084        -3.743225e+02 1.737696e+02 3.717789e+03 -3.736811e+02 1.734179e+02 3.713667e+03 -6.414549e-01 3.517227e-01 4.121272e+00
7.10085        -3.746426e+02 1.739392e+02 3.721294e+03 -3.740009e+02 1.735874e+02 3.717172e+03 -6.416472e-01 3.518394e-01 4.122221e+00
7.10086        -3.744779e+02 1.738521e+02 3.719531e+03 -3.738361e+02 1.735001e+02 3.715408e+03 -6.418364e-01 3.519537e-01 4.123163e+00
7.10087        -3.748896e+02 1.740960e+02 3.723889e+03 -3.742476e+02 1.737440e+02 3.719765e+03 -6.420226e-01 3.520658e-01 4.124100e+00
7.10088        -3.748986e+02 1.740749e+02 3.724135e+03 -3.742564e+02 1.737227e+02 3.720010e+03 -6.422059e-01 3.521756e-01 4.125031e+00
7.10089        -3.752436e+02 1.742530e+02 3.727739e+03 -3.746012e+02 1.739007e+02 3.723613e+03 -6.423863e-01 3.522833e-01 4.125957e+00
7.1009         -3.753330e+02 1.743132e+02 3.728736e+03 -3.746904e+02 1.739609e+02 3.724609e+03 -6.425639e-01 3.523889e-01 4.126877e+00
7.10091        -3.753208e+02 1.742981e+02 3.728444e+03 -3.746780e+02 1.739456e+02 3.724316e+03 -6.427387e-01 3.524924e-01 4.127791e+00
7.10092        -3.760634e+02 1.746846e+02 3.736850e+03 -3.754205e+02 1.743320e+02 3.732722e+03 -6.429110e-01 3.525939e-01 4.128701e+00
7.10093        -3.760706e+02 1.747207e+02 3.736680e+03 -3.754275e+02 1.743680e+02 3.732550e+03 -6.430806e-01 3.526935e-01 4.129605e+00
7.10094        -3.758880e+02 1.746003e+02 3.734726e+03 -3.752448e+02 1.742475e+02 3.730596e+03 -6.432477e-01 3.527912e-01 4.130504e+00
7.10095        -3.759888e+02 1.746585e+02 3.735779e+03 -3.753454e+02 1.743056e+02 3.731647e+03 -6.434123e-01 3.528870e-01 4.131398e+00
7.10096        -3.761047e+02 1.747170e+02 3.736980e+03 -3.754611e+02 1.743640e+02 3.732847e+03 -6.435746e-01 3.529810e-01 4.132288e+00
7.10097        -3.761723e+02 1.747682e+02 3.737654e+03 -3.755286e+02 1.744151e+02 3.733521e+03 -6.437344e-01 3.530732e-01 4.133172e+00
7.10098        -3.761080e+02 1.747168e+02 3.737020e+03 -3.754641e+02 1.743636e+02 3.732886e+03 -6.438920e-01 3.531637e-01 4.134052e+00
7.10099        -3.766024e+02 1.750084e+02 3.742230e+03 -3.759584e+02 1.746551e+02 3.738095e+03 -6.440473e-01 3.532525e-01 4.134927e+00
7.101          -3.765486e+02 1.749599e+02 3.741665e+03 -3.759044e+02 1.746065e+02 3.737529e+03 -6.442004e-01 3.533396e-01 4.135798e+00
7.10101        -3.766220e+02 1.750053e+02 3.742375e+03 -3.759776e+02 1.746519e+02 3.738238e+03 -6.443514e-01 3.534252e-01 4.136664e+00
7.10102        -3.768102e+02 1.751043e+02 3.744233e+03 -3.761657e+02 1.747508e+02 3.740095e+03 -6.445003e-01 3.535091e-01 4.137526e+00
7.10103        -3.766429e+02 1.750184e+02 3.742524e+03 -3.759983e+02 1.746648e+02 3.738385e+03 -6.446471e-01 3.535916e-01 4.138383e+00
7.10104        -3.768885e+02 1.751542e+02 3.745230e+03 -3.762437e+02 1.748005e+02 3.741091e+03 -6.447919e-01 3.536725e-01 4.139237e+00
7.10105        -3.770898e+02 1.752732e+02 3.747135e+03 -3.764448e+02 1.749194e+02 3.742994e+03 -6.449348e-01 3.537519e-01 4.140086e+00
7.10106        -3.771413e+02 1.753019e+02 3.747821e+03 -3.764962e+02 1.749481e+02 3.743680e+03 -6.450757e-01 3.538299e-01 4.140931e+00
7.10107        -3.774267e+02 1.754505e+02 3.750767e+03 -3.767814e+02 1.750966e+02 3.746625e+03 -6.452148e-01 3.539064e-01 4.141773e+00
7.10108        -3.772813e+02 1.753826e+02 3.749010e+03 -3.766359e+02 1.750287e+02 3.744867e+03 -6.453520e-01 3.539816e-01 4.142610e+00
7.10109        -3.776031e+02 1.755670e+02 3.752535e+03 -3.769577e+02 1.752130e+02 3.748391e+03 -6.454874e-01 3.540553e-01 4.143443e+00
7.1011         -3.774581e+02 1.754723e+02 3.750942e+03 -3.768125e+02 1.751182e+02 3.746798e+03 -6.456210e-01 3.541277e-01 4.144274e+00
7.10111        -3.774789e+02 1.754967e+02 3.750889e+03 -3.768331e+02 1.751425e+02 3.746744e+03 -6.457529e-01 3.541988e-01 4.145100e+00
7.10112        -3.775746e+02 1.755529e+02 3.752041e+03 -3.769287e+02 1.751987e+02 3.747895e+03 -6.458831e-01 3.542686e-01 4.145923e+00
7.10113        -3.776079e+02 1.755691e+02 3.752370e+03 -3.769619e+02 1.752148e+02 3.748223e+03 -6.460117e-01 3.543371e-01 4.146744e+00
7.10114        -3.777168e+02 1.756295e+02 3.753446e+03 -3.770706e+02 1.752751e+02 3.749299e+03 -6.461386e-01 3.544043e-01 4.147560e+00
7.10115        -3.775439e+02 1.755177e+02 3.751711e+03 -3.768977e+02 1.751633e+02 3.747562e+03 -6.462640e-01 3.544703e-01 4.148374e+00
7.10116        -3.777892e+02 1.756757e+02 3.754138e+03 -3.771428e+02 1.753212e+02 3.749989e+03 -6.463878e-01 3.545350e-01 4.149185e+00
7.10117        -3.776924e+02 1.756283e+02 3.753077e+03 -3.770458e+02 1.752737e+02 3.748927e+03 -6.465101e-01 3.545985e-01 4.149993e+00
7.10118        -3.779367e+02 1.757482e+02 3.755762e+03 -3.772901e+02 1.753936e+02 3.751612e+03 -6.466309e-01 3.546609e-01 4.150799e+00
7.10119        -3.780200e+02 1.757975e+02 3.756504e+03 -3.773732e+02 1.754428e+02 3.752353e+03 -6.467502e-01 3.547220e-01 4.151602e+00
7.1012         -3.779809e+02 1.757926e+02 3.756014e+03 -3.773341e+02 1.754379e+02 3.751862e+03 -6.468681e-01 3.547820e-01 4.152402e+00
7.10121        -3.782599e+02 1.759505e+02 3.758953e+03 -3.776129e+02 1.755956e+02 3.754799e+03 -6.469846e-01 3.548408e-01 4.153201e+00
7.10122        -3.781278e+02 1.758790e+02 3.757514e+03 -3.774807e+02 1.755241e+02 3.753360e+03 -6.470998e-01 3.548985e-01 4.153997e+00
7.10123        -3.781637e+02 1.758884e+02 3.757905e+03 -3.775165e+02 1.755334e+02 3.753750e+03 -6.472136e-01 3.549551e-01 4.154792e+00
7.10124        -3.782356e+02 1.759288e+02 3.758634e+03 -3.775883e+02 1.755737e+02 3.754479e+03 -6.473261e-01 3.550106e-01 4.155583e+00
7.10125        -3.782566e+02 1.759395e+02 3.758958e+03 -3.776092e+02 1.755845e+02 3.754801e+03 -6.474372e-01 3.550650e-01 4.156373e+00
7.10126        -3.783046e+02 1.759621e+02 3.759410e+03 -3.776571e+02 1.756070e+02 3.755253e+03 -6.475472e-01 3.551183e-01 4.157161e+00
7.10127        -3.783535e+02 1.759909e+02 3.759842e+03 -3.777059e+02 1.756357e+02 3.755684e+03 -6.476558e-01 3.551706e-01 4.157948e+00
7.10128        -3.783773e+02 1.760189e+02 3.760023e+03 -3.777295e+02 1.756637e+02 3.755864e+03 -6.477633e-01 3.552218e-01 4.158732e+00
7.10129        -3.782048e+02 1.759216e+02 3.757876e+03 -3.775569e+02 1.755664e+02 3.753717e+03 -6.478695e-01 3.552720e-01 4.159515e+00
7.1013         -3.785075e+02 1.760817e+02 3.761443e+03 -3.778595e+02 1.757264e+02 3.757283e+03 -6.479746e-01 3.553211e-01 4.160297e+00
7.10131        -3.784857e+02 1.760786e+02 3.760947e+03 -3.778376e+02 1.757233e+02 3.756785e+03 -6.480786e-01 3.553693e-01 4.161077e+00
7.10132        -3.785045e+02 1.760930e+02 3.761168e+03 -3.778563e+02 1.757376e+02 3.757006e+03 -6.481814e-01 3.554164e-01 4.161856e+00
7.10133        -3.786522e+02 1.761919e+02 3.762362e+03 -3.780040e+02 1.758365e+02 3.758200e+03 -6.482831e-01 3.554626e-01 4.162634e+00
7.10134        -3.785836e+02 1.761458e+02 3.761896e+03 -3.779352e+02 1.757903e+02 3.757733e+03 -6.483837e-01 3.555079e-01 4.163409e+00
7.10135        -3.785140e+02 1.761077e+02 3.761121e+03 -3.778655e+02 1.757521e+02 3.756957e+03 -6.484832e-01 3.555521e-01 4.164185e+00
7.10136        -3.785563e+02 1.761387e+02 3.761679e+03 -3.779077e+02 1.757831e+02 3.757514e+03 -6.485817e-01 3.555954e-01 4.164958e+00
7.10137        -3.785701e+02 1.761619e+02 3.761607e+03 -3.779214e+02 1.758063e+02 3.757441e+03 -6.486792e-01 3.556379e-01 4.165730e+00
7.10138        -3.786318e+02 1.761820e+02 3.762225e+03 -3.779830e+02 1.758263e+02 3.758058e+03 -6.487757e-01 3.556793e-01 4.166502e+00
7.10139        -3.786428e+02 1.761966e+02 3.762110e+03 -3.779940e+02 1.758408e+02 3.757943e+03 -6.488711e-01 3.557199e-01 4.167272e+00
7.1014         -3.786502e+02 1.762070e+02 3.762258e+03 -3.780012e+02 1.758512e+02 3.758090e+03 -6.489656e-01 3.557596e-01 4.168041e+00
7.10141        -3.785226e+02 1.761389e+02 3.760805e+03 -3.778736e+02 1.757831e+02 3.756636e+03 -6.490591e-01 3.557984e-01 4.168810e+00
7.10142        -3.787444e+02 1.762632e+02 3.763183e+03 -3.780952e+02 1.759073e+02 3.759013e+03 -6.491517e-01 3.558364e-01 4.169577e+00
7.10143        -3.787123e+02 1.762560e+02 3.762830e+03 -3.780630e+02 1.759001e+02 3.758659e+03 -6.492433e-01 3.558735e-01 4.170344e+00
7.10144        -3.786313e+02 1.762291e+02 3.761910e+03 -3.779819e+02 1.758732e+02 3.757739e+03 -6.493341e-01 3.559097e-01 4.171109e+00
7.10145        -3.786878e+02 1.762515e+02 3.762361e+03 -3.780384e+02 1.758955e+02 3.758189e+03 -6.494239e-01 3.559451e-01 4.171874e+00
7.10146        -3.787329e+02 1.762823e+02 3.762782e+03 -3.780834e+02 1.759264e+02 3.758610e+03 -6.495129e-01 3.559797e-01 4.172638e+00
7.10147        -3.787154e+02 1.762716e+02 3.762625e+03 -3.780658e+02 1.759155e+02 3.758452e+03 -6.496010e-01 3.560134e-01 4.173402e+00
7.10148        -3.788377e+02 1.763534e+02 3.763690e+03 -3.781880e+02 1.759973e+02 3.759516e+03 -6.496883e-01 3.560464e-01 4.174164e+00
7.10149        -3.786412e+02 1.762353e+02 3.761910e+03 -3.779915e+02 1.758793e+02 3.757735e+03 -6.497747e-01 3.560786e-01 4.174927e+00
7.1015         -3.787631e+02 1.763115e+02 3.762990e+03 -3.781132e+02 1.759554e+02 3.758814e+03 -6.498603e-01 3.561099e-01 4.175689e+00
7.10151        -3.786307e+02 1.762299e+02 3.761690e+03 -3.779808e+02 1.758738e+02 3.757514e+03 -6.499451e-01 3.561405e-01 4.176450e+00
7.10152        -3.788866e+02 1.763958e+02 3.764272e+03 -3.782365e+02 1.760396e+02 3.760095e+03 -6.500292e-01 3.561703e-01 4.177211e+00
7.10153        -3.788493e+02 1.763770e+02 3.763777e+03 -3.781992e+02 1.760208e+02 3.759599e+03 -6.501124e-01 3.561993e-01 4.177971e+00
7.10154        -3.788295e+02 1.763708e+02 3.763711e+03 -3.781793e+02 1.760145e+02 3.759532e+03 -6.501949e-01 3.562276e-01 4.178732e+00
7.10155        -3.789003e+02 1.764131e+02 3.764356e+03 -3.782501e+02 1.760568e+02 3.760177e+03 -6.502767e-01 3.562551e-01 4.179492e+00
7.10156        -3.788809e+02 1.764079e+02 3.764004e+03 -3.782306e+02 1.760516e+02 3.759823e+03 -6.503577e-01 3.562819e-01 4.180251e+00
7.10157        -3.788842e+02 1.764123e+02 3.763987e+03 -3.782338e+02 1.760560e+02 3.759806e+03 -6.504380e-01 3.563080e-01 4.181011e+00
7.10158        -3.789012e+02 1.764316e+02 3.764352e+03 -3.782507e+02 1.760753e+02 3.760170e+03 -6.505176e-01 3.563333e-01 4.181771e+00
7.10159        -3.788639e+02 1.764237e+02 3.763882e+03 -3.782133e+02 1.760673e+02 3.759700e+03 -6.505965e-01 3.563579e-01 4.182530e+00
7.1016         -3.788888e+02 1.764339e+02 3.764213e+03 -3.782381e+02 1.760775e+02 3.760029e+03 -6.506747e-01 3.563817e-01 4.183290e+00
7.10161        -3.788885e+02 1.764411e+02 3.764147e+03 -3.782377e+02 1.760847e+02 3.759963e+03 -6.507523e-01 3.564049e-01 4.184049e+00
7.10162        -3.789562e+02 1.764826e+02 3.764754e+03 -3.783054e+02 1.761262e+02 3.760569e+03 -6.508292e-01 3.564273e-01 4.184809e+00
7.10163        -3.789144e+02 1.764639e+02 3.764301e+03 -3.782635e+02 1.761075e+02 3.760116e+03 -6.509054e-01 3.564491e-01 4.185568e+00
7.10164        -3.789327e+02 1.764817e+02 3.764468e+03 -3.782817e+02 1.761252e+02 3.760281e+03 -6.509810e-01 3.564701e-01 4.186328e+00
7.10165        -3.789207e+02 1.764743e+02 3.764370e+03 -3.782696e+02 1.761179e+02 3.760183e+03 -6.510559e-01 3.564905e-01 4.187088e+00
7.10166        -3.790354e+02 1.765482e+02 3.765493e+03 -3.783843e+02 1.761917e+02 3.761305e+03 -6.511303e-01 3.565102e-01 4.187848e+00
7.10167        -3.790017e+02 1.765356e+02 3.765146e+03 -3.783505e+02 1.761791e+02 3.760958e+03 -6.512040e-01 3.565292e-01 4.188608e+00
7.10168        -3.789741e+02 1.765210e+02 3.764886e+03 -3.783229e+02 1.761645e+02 3.760696e+03 -6.512772e-01 3.565476e-01 4.189369e+00
7.10169        -3.789978e+02 1.765366e+02 3.765031e+03 -3.783464e+02 1.761800e+02 3.760841e+03 -6.513497e-01 3.565653e-01 4.190129e+00
7.1017         -3.789941e+02 1.765386e+02 3.764942e+03 -3.783427e+02 1.761820e+02 3.760751e+03 -6.514217e-01 3.565824e-01 4.190891e+00
7.10171        -3.789637e+02 1.765227e+02 3.764621e+03 -3.783122e+02 1.761661e+02 3.760429e+03 -6.514931e-01 3.565988e-01 4.191652e+00
7.10172        -3.790355e+02 1.765793e+02 3.765330e+03 -3.783840e+02 1.762227e+02 3.761138e+03 -6.515639e-01 3.566146e-01 4.192414e+00
7.10173        -3.790494e+02 1.765857e+02 3.765487e+03 -3.783977e+02 1.762291e+02 3.761294e+03 -6.516342e-01 3.566297e-01 4.193176e+00
7.10174        -3.792103e+02 1.766882e+02 3.767031e+03 -3.785586e+02 1.763316e+02 3.762837e+03 -6.517040e-01 3.566442e-01 4.193938e+00
7.10175        -3.790266e+02 1.765816e+02 3.765146e+03 -3.783748e+02 1.762249e+02 3.760951e+03 -6.517732e-01 3.566581e-01 4.194701e+00
7.10176        -3.789888e+02 1.765667e+02 3.764619e+03 -3.783370e+02 1.762100e+02 3.760423e+03 -6.518419e-01 3.566713e-01 4.195464e+00
7.10177        -3.790954e+02 1.766383e+02 3.765560e+03 -3.784435e+02 1.762816e+02 3.761364e+03 -6.519101e-01 3.566840e-01 4.196228e+00
7.10178        -3.790518e+02 1.766106e+02 3.765366e+03 -3.783998e+02 1.762539e+02 3.761169e+03 -6.519777e-01 3.566960e-01 4.196993e+00
7.10179        -3.793137e+02 1.767447e+02 3.768209e+03 -3.786617e+02 1.763880e+02 3.764012e+03 -6.520449e-01 3.567074e-01 4.197758e+00
7.1018         -3.790833e+02 1.766303e+02 3.765599e+03 -3.784312e+02 1.762735e+02 3.761401e+03 -6.521116e-01 3.567182e-01 4.198523e+00
7.10181        -3.789728e+02 1.765763e+02 3.764494e+03 -3.783206e+02 1.762196e+02 3.760295e+03 -6.521778e-01 3.567285e-01 4.199290e+00
7.10182        -3.790818e+02 1.766422e+02 3.765580e+03 -3.784296e+02 1.762854e+02 3.761380e+03 -6.522435e-01 3.567381e-01 4.200056e+00
7.10183        -3.791728e+02 1.766835e+02 3.766615e+03 -3.785205e+02 1.763267e+02 3.762414e+03 -6.523088e-01 3.567471e-01 4.200825e+00
7.10184        -3.790018e+02 1.766190e+02 3.764573e+03 -3.783495e+02 1.762622e+02 3.760372e+03 -6.523735e-01 3.567557e-01 4.201591e+00
7.10185        -3.791090e+02 1.766748e+02 3.765740e+03 -3.784566e+02 1.763180e+02 3.761538e+03 -6.524379e-01 3.567637e-01 4.202358e+00
7.10186        -3.790699e+02 1.766572e+02 3.765292e+03 -3.784174e+02 1.763005e+02 3.761089e+03 -6.525017e-01 3.567711e-01 4.203127e+00
7.10187        -3.792708e+02 1.767794e+02 3.767388e+03 -3.786182e+02 1.764226e+02 3.763184e+03 -6.525651e-01 3.567779e-01 4.203896e+00
7.10188        -3.791156e+02 1.766914e+02 3.765712e+03 -3.784630e+02 1.763346e+02 3.761507e+03 -6.526281e-01 3.567842e-01 4.204665e+00
7.10189        -3.792549e+02 1.767887e+02 3.767003e+03 -3.786022e+02 1.764319e+02 3.762797e+03 -6.526907e-01 3.567899e-01 4.205436e+00
7.1019         -3.791511e+02 1.767159e+02 3.766100e+03 -3.784984e+02 1.763591e+02 3.761894e+03 -6.527528e-01 3.567951e-01 4.206207e+00
7.10191        -3.791378e+02 1.767140e+02 3.765863e+03 -3.784850e+02 1.763572e+02 3.761656e+03 -6.528145e-01 3.567997e-01 4.206978e+00
7.10192        -3.790937e+02 1.766964e+02 3.765324e+03 -3.784408e+02 1.763395e+02 3.761116e+03 -6.528758e-01 3.568038e-01 4.207751e+00
7.10193        -3.790917e+02 1.766994e+02 3.765307e+03 -3.784387e+02 1.763426e+02 3.761098e+03 -6.529367e-01 3.568074e-01 4.208524e+00
7.10194        -3.791955e+02 1.767596e+02 3.766487e+03 -3.785425e+02 1.764028e+02 3.762278e+03 -6.529972e-01 3.568104e-01 4.209298e+00
7.10195        -3.791481e+02 1.767370e+02 3.765865e+03 -3.784950e+02 1.763802e+02 3.761655e+03 -6.530573e-01 3.568129e-01 4.210073e+00
7.10196        -3.792205e+02 1.767745e+02 3.766666e+03 -3.785674e+02 1.764177e+02 3.762456e+03 -6.531170e-01 3.568150e-01 4.210848e+00
7.10197        -3.791169e+02 1.767240e+02 3.765499e+03 -3.784638e+02 1.763672e+02 3.761288e+03 -6.531764e-01 3.568164e-01 4.211624e+00
7.10198        -3.791296e+02 1.767378e+02 3.765391e+03 -3.784764e+02 1.763810e+02 3.761178e+03 -6.532353e-01 3.568174e-01 4.212401e+00
7.10199        -3.790765e+02 1.767141e+02 3.764993e+03 -3.784232e+02 1.763573e+02 3.760780e+03 -6.532939e-01 3.568179e-01 4.213178e+00
7.102          -3.791486e+02 1.767595e+02 3.765699e+03 -3.784952e+02 1.764026e+02 3.761485e+03 -6.533521e-01 3.568179e-01 4.213956e+00
7.10201        -3.791691e+02 1.767769e+02 3.765910e+03 -3.785157e+02 1.764201e+02 3.761696e+03 -6.534099e-01 3.568174e-01 4.214735e+00
7.10202        -3.791736e+02 1.767791e+02 3.765944e+03 -3.785201e+02 1.764223e+02 3.761728e+03 -6.534674e-01 3.568164e-01 4.215515e+00
7.10203        -3.791276e+02 1.767657e+02 3.765337e+03 -3.784741e+02 1.764089e+02 3.761121e+03 -6.535245e-01 3.568149e-01 4.216294e+00
7.10204        -3.792291e+02 1.768115e+02 3.766614e+03 -3.785755e+02 1.764547e+02 3.762397e+03 -6.535813e-01 3.568129e-01 4.217076e+00
7.10205        -3.792120e+02 1.768134e+02 3.766265e+03 -3.785584e+02 1.764566e+02 3.762047e+03 -6.536378e-01 3.568105e-01 4.217857e+00
7.10206        -3.792265e+02 1.768257e+02 3.766346e+03 -3.785729e+02 1.764689e+02 3.762128e+03 -6.536938e-01 3.568076e-01 4.218640e+00
7.10207        -3.791795e+02 1.768077e+02 3.765807e+03 -3.785257e+02 1.764509e+02 3.761587e+03 -6.537496e-01 3.568042e-01 4.219422e+00
7.10208        -3.792091e+02 1.768251e+02 3.766136e+03 -3.785553e+02 1.764683e+02 3.761916e+03 -6.538050e-01 3.568004e-01 4.220206e+00
7.10209        -3.791139e+02 1.767764e+02 3.765103e+03 -3.784600e+02 1.764196e+02 3.760882e+03 -6.538601e-01 3.567961e-01 4.220990e+00
7.1021         -3.791905e+02 1.768235e+02 3.765856e+03 -3.785366e+02 1.764667e+02 3.761635e+03 -6.539148e-01 3.567913e-01 4.221775e+00
7.10211        -3.791964e+02 1.768309e+02 3.765880e+03 -3.785425e+02 1.764741e+02 3.761657e+03 -6.539693e-01 3.567861e-01 4.222561e+00
7.10212        -3.792294e+02 1.768521e+02 3.766218e+03 -3.785754e+02 1.764953e+02 3.761995e+03 -6.540234e-01 3.567805e-01 4.223348e+00
7.10213        -3.791998e+02 1.768390e+02 3.765855e+03 -3.785457e+02 1.764822e+02 3.761631e+03 -6.540772e-01 3.567744e-01 4.224134e+00
7.10214        -3.791202e+02 1.768057e+02 3.764910e+03 -3.784661e+02 1.764489e+02 3.760685e+03 -6.541307e-01 3.567679e-01 4.224922e+00
7.10215        -3.792272e+02 1.768649e+02 3.766142e+03 -3.785730e+02 1.765081e+02 3.761916e+03 -6.541839e-01 3.567609e-01 4.225710e+00
7.10216        -3.792082e+02 1.768574e+02 3.765887e+03 -3.785540e+02 1.765006e+02 3.761661e+03 -6.542367e-01 3.567535e-01 4.226499e+00
7.10217        -3.792098e+02 1.768633e+02 3.765850e+03 -3.785555e+02 1.765065e+02 3.761623e+03 -6.542893e-01 3.567457e-01 4.227289e+00
7.10218        -3.791830e+02 1.768559e+02 3.765582e+03 -3.785286e+02 1.764991e+02 3.761354e+03 -6.543416e-01 3.567375e-01 4.228079e+00
7.10219        -3.791875e+02 1.768581e+02 3.765562e+03 -3.785331e+02 1.765014e+02 3.761333e+03 -6.543936e-01 3.567288e-01 4.228869e+00
7.1022         -3.791319e+02 1.768349e+02 3.764906e+03 -3.784774e+02 1.764781e+02 3.760676e+03 -6.544453e-01 3.567198e-01 4.229661e+00