# Moment      
# CofR        : (0.000000e+00 0.000000e+00 0.000000e+00)
#
# Time        	total_x total_y total_z	pressure_x pressure_y pressure_z	viscous_x viscous_y viscous_z
7.1001         -3.072701e+02 1.317815e+02 3.020439e+03 -3.067024e+02 1.314949e+02 3.016420e+03 -5.676740e-01 2.866277e-01 4.019167e+00
7.1002         -3.297927e+02 1.496518e+02 3.222575e+03 -3.292227e+02 1.493558e+02 3.218622e+03 -5.699951e-01 2.959582e-01 3.953713e+00
7.1003         -3.404138e+02 1.569523e+02 3.337175e+03 -3.398402e+02 1.566509e+02 3.333238e+03 -5.735078e-01 3.013989e-01 3.936702e+00
7.1004         -3.473869e+02 1.610929e+02 3.419002e+03 -3.468097e+02 1.607878e+02 3.415064e+03 -5.772057e-01 3.050626e-01 3.938203e+00
7.1005         -3.525604e+02 1.640252e+02 3.478020e+03 -3.519796e+02 1.637174e+02 3.474072e+03 -5.808823e-01 3.078023e-01 3.948084e+00
7.1006         -3.569040e+02 1.664406e+02 3.524114e+03 -3.563196e+02 1.661307e+02 3.520152e+03 -5.843907e-01 3.099508e-01 3.961843e+00
7.1007         -3.603581e+02 1.683352e+02 3.558748e+03 -3.597704e+02 1.680235e+02 3.554771e+03 -5.876643e-01 3.116666e-01 3.977378e+00
7.1008         -3.632013e+02 1.697953e+02 3.587582e+03 -3.626106e+02 1.694822e+02 3.583589e+03 -5.906881e-01 3.130513e-01 3.993608e+00
7.1009         -3.654400e+02 1.709257e+02 3.610155e+03 -3.648465e+02 1.706116e+02 3.606145e+03 -5.934721e-01 3.141738e-01 4.009987e+00
7.101          -3.673008e+02 1.718389e+02 3.629178e+03 -3.667048e+02 1.715238e+02 3.625152e+03 -5.960344e-01 3.150863e-01 4.026200e+00
7.1011         -3.687320e+02 1.725278e+02 3.643873e+03 -3.681336e+02 1.722119e+02 3.639831e+03 -5.983960e-01 3.158277e-01 4.042082e+00
7.1012         -3.698637e+02 1.730587e+02 3.655742e+03 -3.692631e+02 1.727422e+02 3.651685e+03 -6.005778e-01 3.164274e-01 4.057560e+00
7.1013         -3.707859e+02 1.734807e+02 3.665704e+03 -3.701833e+02 1.731638e+02 3.661631e+03 -6.026002e-01 3.169083e-01 4.072615e+00
7.1014         -3.714865e+02 1.737913e+02 3.673420e+03 -3.708820e+02 1.734740e+02 3.669333e+03 -6.044813e-01 3.172886e-01 4.087246e+00
7.1015         -3.720265e+02 1.740230e+02 3.679452e+03 -3.714203e+02 1.737054e+02 3.675351e+03 -6.062369e-01 3.175827e-01 4.101473e+00
7.1016         -3.724160e+02 1.741736e+02 3.683922e+03 -3.718081e+02 1.738558e+02 3.679807e+03 -6.078806e-01 3.178020e-01 4.115322e+00
7.1017         -3.728784e+02 1.743730e+02 3.689165e+03 -3.722689e+02 1.740550e+02 3.685036e+03 -6.094242e-01 3.179554e-01 4.128822e+00
7.1018         -3.730886e+02 1.744366e+02 3.691611e+03 -3.724777e+02 1.741185e+02 3.687469e+03 -6.108775e-01 3.180505e-01 4.141998e+00
7.1019         -3.733583e+02 1.745492e+02 3.694611e+03 -3.727461e+02 1.742311e+02 3.690457e+03 -6.122483e-01 3.180947e-01 4.154859e+00
7.102          -3.735561e+02 1.746187e+02 3.696998e+03 -3.729426e+02 1.743006e+02 3.692831e+03 -6.135448e-01 3.180927e-01 4.167440e+00
7.1021         -3.737788e+02 1.747059e+02 3.699584e+03 -3.731640e+02 1.743878e+02 3.695404e+03 -6.147733e-01 3.180493e-01 4.179759e+00
7.1022         -3.739538e+02 1.747785e+02 3.701554e+03 -3.733379e+02 1.744606e+02 3.697362e+03 -6.159400e-01 3.179686e-01 4.191839e+00
7.1023         -3.741201e+02 1.748442e+02 3.703436e+03 -3.735031e+02 1.745263e+02 3.699232e+03 -6.170499e-01 3.178542e-01 4.203695e+00
7.1024         -3.743238e+02 1.749386e+02 3.705665e+03 -3.737057e+02 1.746209e+02 3.701450e+03 -6.181077e-01 3.177095e-01 4.215340e+00
7.1025         -3.745021e+02 1.750118e+02 3.707674e+03 -3.738830e+02 1.746943e+02 3.703447e+03 -6.191176e-01 3.175372e-01 4.226793e+00
7.1026         -3.746726e+02 1.750866e+02 3.709463e+03 -3.740525e+02 1.747693e+02 3.705225e+03 -6.200834e-01 3.173400e-01 4.238063e+00
7.1027         -3.748672e+02 1.751858e+02 3.711694e+03 -3.742462e+02 1.748686e+02 3.707444e+03 -6.210084e-01 3.171200e-01 4.249164e+00
7.1028         -3.750884e+02 1.752903e+02 3.714467e+03 -3.744665e+02 1.749735e+02 3.710207e+03 -6.218968e-01 3.168787e-01 4.260133e+00
7.1029         -3.752376e+02 1.753595e+02 3.716000e+03 -3.746148e+02 1.750429e+02 3.711729e+03 -6.227510e-01 3.166174e-01 4.270971e+00
7.103          -3.753770e+02 1.754275e+02 3.717442e+03 -3.747535e+02 1.751112e+02 3.713160e+03 -6.235735e-01 3.163379e-01 4.281687e+00
7.1031         -3.755643e+02 1.755159e+02 3.719482e+03 -3.749399e+02 1.751999e+02 3.715190e+03 -6.243668e-01 3.160414e-01 4.292294e+00
7.1032         -3.756373e+02 1.755592e+02 3.720232e+03 -3.750122e+02 1.752435e+02 3.715929e+03 -6.251331e-01 3.157292e-01 4.302803e+00
7.1033         -3.759320e+02 1.756950e+02 3.723582e+03 -3.753061e+02 1.753796e+02 3.719268e+03 -6.258753e-01 3.154019e-01 4.313239e+00
7.1034         -3.759537e+02 1.756995e+02 3.723770e+03 -3.753271e+02 1.753844e+02 3.719446e+03 -6.265938e-01 3.150584e-01 4.323596e+00
7.1035         -3.760143e+02 1.757270e+02 3.724291e+03 -3.753870e+02 1.754123e+02 3.719957e+03 -6.272907e-01 3.147007e-01 4.333884e+00
7.1036         -3.761486e+02 1.757912e+02 3.725849e+03 -3.755206e+02 1.754769e+02 3.721505e+03 -6.279679e-01 3.143293e-01 4.344117e+00
7.1037         -3.762601e+02 1.758514e+02 3.727045e+03 -3.756314e+02 1.755375e+02 3.722691e+03 -6.286272e-01 3.139457e-01 4.354306e+00
7.1038         -3.763388e+02 1.758959e+02 3.727868e+03 -3.757095e+02 1.755823e+02 3.723503e+03 -6.292698e-01 3.135504e-01 4.364458e+00
7.1039         -3.764120e+02 1.759269e+02 3.728726e+03 -3.757821e+02 1.756138e+02 3.724351e+03 -6.298970e-01 3.131436e-01 4.374583e+00
7.104          -3.764889e+02 1.759645e+02 3.729584e+03 -3.758584e+02 1.756518e+02 3.725200e+03 -6.305098e-01 3.127259e-01 4.384682e+00
7.1041         -3.766128e+02 1.760326e+02 3.730932e+03 -3.759817e+02 1.757203e+02 3.726537e+03 -6.311090e-01 3.122980e-01 4.394758e+00
7.1042         -3.766141e+02 1.760278e+02 3.730977e+03 -3.759824e+02 1.757159e+02 3.726572e+03 -6.316954e-01 3.118604e-01 4.404811e+00
7.1043         -3.766990e+02 1.760734e+02 3.732076e+03 -3.760667e+02 1.757620e+02 3.727661e+03 -6.322695e-01 3.114141e-01 4.414840e+00
7.1044         -3.767394e+02 1.760879e+02 3.732580e+03 -3.761066e+02 1.757770e+02 3.728156e+03 -6.328323e-01 3.109594e-01 4.424846e+00
7.1045         -3.768010e+02 1.761165e+02 3.733272e+03 -3.761676e+02 1.758060e+02 3.728837e+03 -6.333841e-01 3.104970e-01 4.434830e+00
7.1046         -3.768255e+02 1.761309e+02 3.733521e+03 -3.761916e+02 1.758209e+02 3.729076e+03 -6.339257e-01 3.100273e-01 4.444791e+00
7.1047         -3.768566e+02 1.761495e+02 3.733795e+03 -3.762222e+02 1.758400e+02 3.729340e+03 -6.344575e-01 3.095512e-01 4.454724e+00
7.1048         -3.770557e+02 1.762327e+02 3.736156e+03 -3.764207e+02 1.759237e+02 3.731691e+03 -6.349811e-01 3.090673e-01 4.464663e+00
7.1049         -3.771572e+02 1.762842e+02 3.737263e+03 -3.765217e+02 1.759757e+02 3.732789e+03 -6.354962e-01 3.085777e-01 4.474579e+00
7.105          -3.771883e+02 1.762955e+02 3.737617e+03 -3.765523e+02 1.759874e+02 3.733133e+03 -6.360031e-01 3.080826e-01 4.484475e+00
7.1051         -3.772536e+02 1.763234e+02 3.738354e+03 -3.766171e+02 1.760158e+02 3.733860e+03 -6.365025e-01 3.075824e-01 4.494354e+00
7.1052         -3.773102e+02 1.763524e+02 3.738925e+03 -3.766732e+02 1.760454e+02 3.734420e+03 -6.369947e-01 3.070774e-01 4.504216e+00
7.1053         -3.773856e+02 1.763865e+02 3.739776e+03 -3.767481e+02 1.760800e+02 3.735262e+03 -6.374803e-01 3.065678e-01 4.514061e+00
7.1054         -3.774367e+02 1.764040e+02 3.740356e+03 -3.767987e+02 1.760980e+02 3.735832e+03 -6.379597e-01 3.060540e-01 4.523894e+00
7.1055         -3.775579e+02 1.764557e+02 3.741769e+03 -3.769195e+02 1.761501e+02 3.737235e+03 -6.384334e-01 3.055362e-01 4.533718e+00
7.1056         -3.776568e+02 1.764931e+02 3.742975e+03 -3.770179e+02 1.761881e+02 3.738431e+03 -6.389020e-01 3.050147e-01 4.543539e+00
7.1057         -3.775960e+02 1.764950e+02 3.741723e+03 -3.769566e+02 1.761905e+02 3.737169e+03 -6.393643e-01 3.044890e-01 4.553325e+00
7.1058         -3.777036e+02 1.765402e+02 3.742991e+03 -3.770637e+02 1.762362e+02 3.738428e+03 -6.398206e-01 3.039596e-01 4.563081e+00
7.1059         -3.780050e+02 1.766686e+02 3.746628e+03 -3.773647e+02 1.763651e+02 3.742055e+03 -6.402731e-01 3.034268e-01 4.572843e+00
7.106          -3.778577e+02 1.766039e+02 3.744785e+03 -3.772170e+02 1.763010e+02 3.740202e+03 -6.407214e-01 3.028912e-01 4.582597e+00
7.1061         -3.779299e+02 1.766320e+02 3.745579e+03 -3.772887e+02 1.763296e+02 3.740987e+03 -6.411657e-01 3.023528e-01 4.592342e+00
7.1062         -3.780090e+02 1.766623e+02 3.746491e+03 -3.773674e+02 1.763605e+02 3.741888e+03 -6.416063e-01 3.018116e-01 4.602081e+00
7.1063         -3.781009e+02 1.767055e+02 3.747484e+03 -3.774588e+02 1.764042e+02 3.742872e+03 -6.420436e-01 3.012679e-01 4.611816e+00
7.1064         -3.781051e+02 1.766989e+02 3.747566e+03 -3.774626e+02 1.763982e+02 3.742945e+03 -6.424777e-01 3.007216e-01 4.621547e+00
7.1065         -3.782466e+02 1.767664e+02 3.749137e+03 -3.776037e+02 1.764662e+02 3.744505e+03 -6.429088e-01 3.001732e-01 4.631273e+00
7.1066         -3.782493e+02 1.767560e+02 3.749195e+03 -3.776060e+02 1.764564e+02 3.744554e+03 -6.433372e-01 2.996225e-01 4.640998e+00
7.1067         -3.783378e+02 1.767987e+02 3.750183e+03 -3.776940e+02 1.764997e+02 3.745532e+03 -6.437632e-01 2.990697e-01 4.650723e+00
7.1068         -3.782785e+02 1.767717e+02 3.749421e+03 -3.776343e+02 1.764732e+02 3.744761e+03 -6.441862e-01 2.985157e-01 4.660431e+00
7.1069         -3.784158e+02 1.768283e+02 3.751021e+03 -3.777712e+02 1.765304e+02 3.746351e+03 -6.446074e-01 2.979596e-01 4.670145e+00
7.107          -3.784661e+02 1.768473e+02 3.751608e+03 -3.778211e+02 1.765499e+02 3.746928e+03 -6.450269e-01 2.974016e-01 4.679863e+00
7.1071         -3.785252e+02 1.768725e+02 3.752281e+03 -3.778797e+02 1.765756e+02 3.747592e+03 -6.454445e-01 2.968421e-01 4.689581e+00
7.1072         -3.785649e+02 1.768786e+02 3.752687e+03 -3.779190e+02 1.765823e+02 3.747988e+03 -6.458606e-01 2.962810e-01 4.699303e+00
7.1073         -3.786168e+02 1.769024e+02 3.753270e+03 -3.779706e+02 1.766067e+02 3.748561e+03 -6.462755e-01 2.957180e-01 4.709033e+00
7.1074         -3.787098e+02 1.769453e+02 3.754345e+03 -3.780631e+02 1.766501e+02 3.749626e+03 -6.466891e-01 2.951537e-01 4.718764e+00
7.1075         -3.787106e+02 1.769408e+02 3.754373e+03 -3.780635e+02 1.766462e+02 3.749644e+03 -6.471013e-01 2.945883e-01 4.728497e+00
7.1076         -3.787443e+02 1.769509e+02 3.754789e+03 -3.780968e+02 1.766569e+02 3.750051e+03 -6.475126e-01 2.940218e-01 4.738233e+00
7.1077         -3.787679e+02 1.769559e+02 3.755073e+03 -3.781200e+02 1.766625e+02 3.750325e+03 -6.479228e-01 2.934541e-01 4.747972e+00
7.1078         -3.788174e+02 1.769784e+02 3.755635e+03 -3.781691e+02 1.766855e+02 3.750878e+03 -6.483321e-01 2.928856e-01 4.757713e+00
7.1079         -3.788420e+02 1.769867e+02 3.755920e+03 -3.781932e+02 1.766944e+02 3.751153e+03 -6.487406e-01 2.923160e-01 4.767457e+00
7.108          -3.788962e+02 1.770117e+02 3.756525e+03 -3.782470e+02 1.767199e+02 3.751748e+03 -6.491483e-01 2.917457e-01 4.777202e+00
7.1081         -3.789093e+02 1.770155e+02 3.756653e+03 -3.782598e+02 1.767244e+02 3.751866e+03 -6.495552e-01 2.911746e-01 4.786949e+00
7.1082         -3.790146e+02 1.770582e+02 3.758016e+03 -3.783647e+02 1.767676e+02 3.753219e+03 -6.499617e-01 2.906026e-01 4.796702e+00
7.1083         -3.790143e+02 1.770564e+02 3.757970e+03 -3.783640e+02 1.767663e+02 3.753164e+03 -6.503679e-01 2.900300e-01 4.806463e+00
7.1084         -3.790701e+02 1.770826e+02 3.758603e+03 -3.784194e+02 1.767931e+02 3.753787e+03 -6.507736e-01 2.894567e-01 4.816227e+00
7.1085         -3.791015e+02 1.770947e+02 3.758985e+03 -3.784503e+02 1.768058e+02 3.754159e+03 -6.511790e-01 2.888829e-01 4.825994e+00
7.1086         -3.791154e+02 1.770978e+02 3.759126e+03 -3.784638e+02 1.768095e+02 3.754290e+03 -6.515842e-01 2.883086e-01 4.835764e+00
7.1087         -3.791592e+02 1.771156e+02 3.759665e+03 -3.785072e+02 1.768278e+02 3.754819e+03 -6.519891e-01 2.877338e-01 4.845538e+00
7.1088         -3.791992e+02 1.771334e+02 3.760091e+03 -3.785469e+02 1.768462e+02 3.755236e+03 -6.523939e-01 2.871587e-01 4.855315e+00
7.1089         -3.792082e+02 1.771335e+02 3.760217e+03 -3.785554e+02 1.768469e+02 3.755352e+03 -6.527986e-01 2.865832e-01 4.865097e+00
7.109          -3.792336e+02 1.771449e+02 3.760488e+03 -3.785804e+02 1.768589e+02 3.755614e+03 -6.532033e-01 2.860074e-01 4.874880e+00
7.1091         -3.792705e+02 1.771619e+02 3.760874e+03 -3.786169e+02 1.768765e+02 3.755989e+03 -6.536080e-01 2.854313e-01 4.884667e+00
7.1092         -3.793242e+02 1.771781e+02 3.761615e+03 -3.786702e+02 1.768932e+02 3.756720e+03 -6.540130e-01 2.848554e-01 4.894460e+00
7.1093         -3.793416e+02 1.771862e+02 3.761833e+03 -3.786871e+02 1.769019e+02 3.756929e+03 -6.544185e-01 2.842797e-01 4.904261e+00
7.1094         -3.793673e+02 1.771924e+02 3.762156e+03 -3.787124e+02 1.769087e+02 3.757242e+03 -6.548241e-01 2.837042e-01 4.914061e+00
7.1095         -3.794030e+02 1.772086e+02 3.762568e+03 -3.787478e+02 1.769254e+02 3.757644e+03 -6.552299e-01 2.831289e-01 4.923863e+00
7.1096         -3.794227e+02 1.772159e+02 3.762806e+03 -3.787671e+02 1.769334e+02 3.757873e+03 -6.556362e-01 2.825538e-01 4.933671e+00
7.1097         -3.794536e+02 1.772278e+02 3.763182e+03 -3.787976e+02 1.769458e+02 3.758239e+03 -6.560432e-01 2.819789e-01 4.943485e+00
7.1098         -3.794537e+02 1.772300e+02 3.763195e+03 -3.787972e+02 1.769486e+02 3.758241e+03 -6.564506e-01 2.814045e-01 4.953302e+00
7.1099         -3.795088e+02 1.772479e+02 3.763717e+03 -3.788519e+02 1.769671e+02 3.758754e+03 -6.568590e-01 2.808299e-01 4.963131e+00
7.11           -3.795817e+02 1.772842e+02 3.764579e+03 -3.789244e+02 1.770039e+02 3.759606e+03 -6.572686e-01 2.802553e-01 4.972977e+00
7.1101         -3.797062e+02 1.773471e+02 3.766149e+03 -3.790485e+02 1.770674e+02 3.761167e+03 -6.576790e-01 2.796817e-01 4.982825e+00
7.1102         -3.796739e+02 1.773079e+02 3.765727e+03 -3.790158e+02 1.770288e+02 3.760735e+03 -6.580907e-01 2.791076e-01 4.992691e+00
7.1103         -3.796998e+02 1.773262e+02 3.766020e+03 -3.790413e+02 1.770477e+02 3.761017e+03 -6.585036e-01 2.785328e-01 5.002577e+00
7.1104         -3.797053e+02 1.773280e+02 3.766089e+03 -3.790464e+02 1.770500e+02 3.761076e+03 -6.589173e-01 2.779588e-01 5.012464e+00
7.1105         -3.797197e+02 1.773331e+02 3.766291e+03 -3.790604e+02 1.770557e+02 3.761269e+03 -6.593319e-01 2.773854e-01 5.022358e+00
7.1106         -3.797542e+02 1.773490e+02 3.766684e+03 -3.790945e+02 1.770722e+02 3.761652e+03 -6.597477e-01 2.768126e-01 5.032257e+00
7.1107         -3.797662e+02 1.773531e+02 3.766843e+03 -3.791061e+02 1.770769e+02 3.761801e+03 -6.601644e-01 2.762403e-01 5.042164e+00
7.1108         -3.798000e+02 1.773708e+02 3.767245e+03 -3.791394e+02 1.770951e+02 3.762193e+03 -6.605824e-01 2.756687e-01 5.052078e+00
7.1109         -3.798145e+02 1.773772e+02 3.767430e+03 -3.791535e+02 1.771021e+02 3.762368e+03 -6.610014e-01 2.750978e-01 5.061999e+00
7.111          -3.798241e+02 1.773766e+02 3.767547e+03 -3.791627e+02 1.771021e+02 3.762475e+03 -6.614216e-01 2.745277e-01 5.071923e+00
7.1111         -3.798259e+02 1.773672e+02 3.767525e+03 -3.791641e+02 1.770932e+02 3.762443e+03 -6.618437e-01 2.739564e-01 5.081878e+00
7.1112         -3.798247e+02 1.773657e+02 3.767557e+03 -3.791624e+02 1.770923e+02 3.762465e+03 -6.622670e-01 2.733858e-01 5.091841e+00
7.1113         -3.799448e+02 1.774316e+02 3.768859e+03 -3.792821e+02 1.771588e+02 3.763757e+03 -6.626916e-01 2.728163e-01 5.101806e+00
7.1114         -3.799448e+02 1.774291e+02 3.768890e+03 -3.792817e+02 1.771569e+02 3.763778e+03 -6.631173e-01 2.722475e-01 5.111778e+00
7.1115         -3.799820e+02 1.774478e+02 3.769335e+03 -3.793185e+02 1.771762e+02 3.764213e+03 -6.635443e-01 2.716795e-01 5.121757e+00
7.1116         -3.799904e+02 1.774529e+02 3.769484e+03 -3.793264e+02 1.771818e+02 3.764352e+03 -6.639724e-01 2.711122e-01 5.131740e+00
7.1117         -3.799799e+02 1.774374e+02 3.769294e+03 -3.793155e+02 1.771668e+02 3.764152e+03 -6.644019e-01 2.705446e-01 5.141740e+00
7.1118         -3.800034e+02 1.774493e+02 3.769565e+03 -3.793385e+02 1.771793e+02 3.764413e+03 -6.648328e-01 2.699776e-01 5.151746e+00
7.1119         -3.800333e+02 1.774602e+02 3.769947e+03 -3.793680e+02 1.771908e+02 3.764785e+03 -6.652648e-01 2.694112e-01 5.161759e+00
7.112          -3.801302e+02 1.775030e+02 3.771089e+03 -3.794645e+02 1.772342e+02 3.765917e+03 -6.656983e-01 2.688454e-01 5.171781e+00
7.1121         -3.800342e+02 1.774674e+02 3.769921e+03 -3.793681e+02 1.771991e+02 3.764739e+03 -6.661326e-01 2.682809e-01 5.181799e+00
7.1122         -3.800748e+02 1.774868e+02 3.770384e+03 -3.794083e+02 1.772191e+02 3.765193e+03 -6.665682e-01 2.677171e-01 5.191821e+00
7.1123         -3.800808e+02 1.774875e+02 3.770489e+03 -3.794138e+02 1.772204e+02 3.765287e+03 -6.670051e-01 2.671540e-01 5.201851e+00
7.1124         -3.800990e+02 1.774945e+02 3.770700e+03 -3.794316e+02 1.772279e+02 3.765488e+03 -6.674434e-01 2.665916e-01 5.211887e+00
7.1125         -3.801141e+02 1.775005e+02 3.770880e+03 -3.794462e+02 1.772345e+02 3.765658e+03 -6.678830e-01 2.660300e-01 5.221929e+00
7.1126         -3.801479e+02 1.775206e+02 3.771225e+03 -3.794796e+02 1.772552e+02 3.765993e+03 -6.683239e-01 2.654692e-01 5.231977e+00
7.1127         -3.801655e+02 1.775258e+02 3.771472e+03 -3.794967e+02 1.772609e+02 3.766230e+03 -6.687662e-01 2.649091e-01 5.242032e+00
7.1128         -3.801828e+02 1.775336e+02 3.771690e+03 -3.795136e+02 1.772692e+02 3.766438e+03 -6.692100e-01 2.643498e-01 5.252093e+00
7.1129         -3.801748e+02 1.775266e+02 3.771549e+03 -3.795051e+02 1.772628e+02 3.766287e+03 -6.696551e-01 2.637914e-01 5.262159e+00
7.113          -3.802197e+02 1.775492e+02 3.772086e+03 -3.795496e+02 1.772859e+02 3.766813e+03 -6.701016e-01 2.632337e-01 5.272233e+00
7.1131         -3.802358e+02 1.775562e+02 3.772289e+03 -3.795652e+02 1.772935e+02 3.767006e+03 -6.705496e-01 2.626769e-01 5.282313e+00
7.1132         -3.802391e+02 1.775561e+02 3.772331e+03 -3.795681e+02 1.772940e+02 3.767039e+03 -6.709989e-01 2.621210e-01 5.292397e+00
7.1133         -3.802617e+02 1.775662e+02 3.772593e+03 -3.795902e+02 1.773046e+02 3.767290e+03 -6.714496e-01 2.615661e-01 5.302486e+00
7.1134         -3.802653e+02 1.775687e+02 3.772655e+03 -3.795933e+02 1.773077e+02 3.767342e+03 -6.719016e-01 2.610121e-01 5.312580e+00
7.1135         -3.803104e+02 1.775906e+02 3.773142e+03 -3.796380e+02 1.773301e+02 3.767819e+03 -6.723551e-01 2.604592e-01 5.322678e+00
7.1136         -3.803157e+02 1.775878e+02 3.773255e+03 -3.796429e+02 1.773279e+02 3.767922e+03 -6.728100e-01 2.599072e-01 5.332781e+00
7.1137         -3.803377e+02 1.775988e+02 3.773523e+03 -3.796645e+02 1.773395e+02 3.768180e+03 -6.732661e-01 2.593563e-01 5.342887e+00
7.1138         -3.803612e+02 1.776118e+02 3.773768e+03 -3.796875e+02 1.773529e+02 3.768415e+03 -6.737236e-01 2.588065e-01 5.352996e+00
7.1139         -3.803745e+02 1.776190e+02 3.773943e+03 -3.797003e+02 1.773608e+02 3.768580e+03 -6.741824e-01 2.582578e-01 5.363106e+00
7.114          -3.804038e+02 1.776246e+02 3.774297e+03 -3.797292e+02 1.773669e+02 3.768924e+03 -6.746425e-01 2.577103e-01 5.373219e+00
7.1141         -3.804331e+02 1.776277e+02 3.774671e+03 -3.797580e+02 1.773705e+02 3.769288e+03 -6.751048e-01 2.571620e-01 5.383362e+00
7.1142         -3.804570e+02 1.776435e+02 3.774954e+03 -3.797814e+02 1.773868e+02 3.769560e+03 -6.755684e-01 2.566150e-01 5.393505e+00
7.1143         -3.804479e+02 1.776386e+02 3.774833e+03 -3.797718e+02 1.773825e+02 3.769429e+03 -6.760331e-01 2.560694e-01 5.403648e+00
7.1144         -3.804377e+02 1.776354e+02 3.774731e+03 -3.797612e+02 1.773798e+02 3.769317e+03 -6.764989e-01 2.555250e-01 5.413790e+00
7.1145         -3.804523e+02 1.776403e+02 3.774914e+03 -3.797753e+02 1.773853e+02 3.769490e+03 -6.769658e-01 2.549819e-01 5.423930e+00
7.1146         -3.804755e+02 1.776506e+02 3.775204e+03 -3.797981e+02 1.773961e+02 3.769770e+03 -6.774340e-01 2.544400e-01 5.434072e+00
7.1147         -3.804860e+02 1.776544e+02 3.775333e+03 -3.798081e+02 1.774005e+02 3.769889e+03 -6.779034e-01 2.538993e-01 5.444216e+00
7.1148         -3.805165e+02 1.776688e+02 3.775675e+03 -3.798382e+02 1.774155e+02 3.770221e+03 -6.783740e-01 2.533597e-01 5.454361e+00
7.1149         -3.805323e+02 1.776757e+02 3.775871e+03 -3.798535e+02 1.774229e+02 3.770407e+03 -6.788458e-01 2.528212e-01 5.464508e+00
7.115          -3.805459e+02 1.776797e+02 3.776066e+03 -3.798665e+02 1.774274e+02 3.770591e+03 -6.793188e-01 2.522839e-01 5.474656e+00
7.1151         -3.805476e+02 1.776770e+02 3.776119e+03 -3.798678e+02 1.774252e+02 3.770635e+03 -6.797929e-01 2.517477e-01 5.484805e+00
7.1152         -3.805753e+02 1.776924e+02 3.776450e+03 -3.798951e+02 1.774412e+02 3.770955e+03 -6.802681e-01 2.512128e-01 5.494954e+00
7.1153         -3.805775e+02 1.776906e+02 3.776496e+03 -3.798967e+02 1.774399e+02 3.770991e+03 -6.807444e-01 2.506791e-01 5.505104e+00
7.1154         -3.805910e+02 1.776976e+02 3.776651e+03 -3.799097e+02 1.774475e+02 3.771136e+03 -6.812217e-01 2.501466e-01 5.515251e+00
7.1155         -3.806126e+02 1.777094e+02 3.776910e+03 -3.799309e+02 1.774598e+02 3.771385e+03 -6.817000e-01 2.496156e-01 5.525396e+00
7.1156         -3.806012e+02 1.776897e+02 3.776772e+03 -3.799191e+02 1.774406e+02 3.771236e+03 -6.821795e-01 2.490854e-01 5.535545e+00
7.1157         -3.806186e+02 1.777001e+02 3.776965e+03 -3.799359e+02 1.774515e+02 3.771419e+03 -6.826603e-01 2.485556e-01 5.545704e+00
7.1158         -3.806159e+02 1.776973e+02 3.776980e+03 -3.799328e+02 1.774493e+02 3.771425e+03 -6.831420e-01 2.480272e-01 5.555858e+00
7.1159         -3.806410e+02 1.777097e+02 3.777294e+03 -3.799574e+02 1.774622e+02 3.771728e+03 -6.836246e-01 2.475002e-01 5.566009e+00
7.116          -3.806452e+02 1.777087e+02 3.777342e+03 -3.799611e+02 1.774617e+02 3.771766e+03 -6.841081e-01 2.469745e-01 5.576158e+00
7.1161         -3.806799e+02 1.777273e+02 3.777733e+03 -3.799953e+02 1.774808e+02 3.772146e+03 -6.845925e-01 2.464501e-01 5.586303e+00
7.1162         -3.806703e+02 1.777207e+02 3.777645e+03 -3.799852e+02 1.774748e+02 3.772049e+03 -6.850777e-01 2.459270e-01 5.596445e+00
7.1163         -3.806861e+02 1.777297e+02 3.777833e+03 -3.800005e+02 1.774843e+02 3.772226e+03 -6.855637e-01 2.454054e-01 5.606583e+00
7.1164         -3.807352e+02 1.777409e+02 3.778438e+03 -3.800491e+02 1.774960e+02 3.772821e+03 -6.860508e-01 2.448845e-01 5.616724e+00
7.1165         -3.807306e+02 1.777414e+02 3.778397e+03 -3.800440e+02 1.774970e+02 3.772770e+03 -6.865390e-01 2.443645e-01 5.626869e+00
7.1166         -3.807386e+02 1.777442e+02 3.778500e+03 -3.800516e+02 1.775004e+02 3.772863e+03 -6.870278e-01 2.438460e-01 5.637007e+00
7.1167         -3.807497e+02 1.777497e+02 3.778605e+03 -3.800621e+02 1.775064e+02 3.772958e+03 -6.875173e-01 2.433288e-01 5.647140e+00
7.1168         -3.807609e+02 1.777518e+02 3.778786e+03 -3.800728e+02 1.775090e+02 3.773129e+03 -6.880075e-01 2.428129e-01 5.657268e+00
7.1169         -3.807977e+02 1.777725e+02 3.779169e+03 -3.801092e+02 1.775302e+02 3.773502e+03 -6.884983e-01 2.422985e-01 5.667390e+00
7.117          -3.808036e+02 1.777753e+02 3.779261e+03 -3.801146e+02 1.775336e+02 3.773583e+03 -6.889899e-01 2.417853e-01 5.677508e+00
7.1171         -3.808101e+02 1.777762e+02 3.779357e+03 -3.801206e+02 1.775349e+02 3.773670e+03 -6.894821e-01 2.412734e-01 5.687621e+00
7.1172         -3.808141e+02 1.777768e+02 3.779400e+03 -3.801241e+02 1.775361e+02 3.773702e+03 -6.899749e-01 2.407629e-01 5.697728e+00
7.1173         -3.808301e+02 1.777815e+02 3.779622e+03 -3.801397e+02 1.775413e+02 3.773914e+03 -6.904684e-01 2.402537e-01 5.707830e+00
7.1174         -3.808702e+02 1.778042e+02 3.780038e+03 -3.801793e+02 1.775645e+02 3.774320e+03 -6.909623e-01 2.397458e-01 5.717925e+00
7.1175         -3.808687e+02 1.778003e+02 3.780055e+03 -3.801772e+02 1.775610e+02 3.774327e+03 -6.914570e-01 2.392392e-01 5.728015e+00
7.1176         -3.808833e+02 1.778080e+02 3.780216e+03 -3.801914e+02 1.775693e+02 3.774478e+03 -6.919521e-01 2.387340e-01 5.738098e+00
7.1177         -3.808973e+02 1.778136e+02 3.780407e+03 -3.802048e+02 1.775754e+02 3.774659e+03 -6.924477e-01 2.382301e-01 5.748175e+00
7.1178         -3.808978e+02 1.778140e+02 3.780406e+03 -3.802048e+02 1.775763e+02 3.774648e+03 -6.929439e-01 2.377275e-01 5.758246e+00
7.1179         -3.809195e+02 1.778257e+02 3.780643e+03 -3.802261e+02 1.775885e+02 3.774875e+03 -6.934405e-01 2.372262e-01 5.768309e+00
7.118          -3.809245e+02 1.778255e+02 3.780729e+03 -3.802305e+02 1.775887e+02 3.774951e+03 -6.939376e-01 2.367262e-01 5.778365e+00
7.1181         -3.809333e+02 1.778295e+02 3.780809e+03 -3.802389e+02 1.775933e+02 3.775021e+03 -6.944351e-01 2.362275e-01 5.788414e+00
7.1182         -3.809369e+02 1.778307e+02 3.780860e+03 -3.802420e+02 1.775949e+02 3.775061e+03 -6.949330e-01 2.357302e-01 5.798455e+00
7.1183         -3.809682e+02 1.778461e+02 3.781206e+03 -3.802728e+02 1.776109e+02 3.775397e+03 -6.954314e-01 2.352342e-01 5.808489e+00
7.1184         -3.809803e+02 1.778523e+02 3.781377e+03 -3.802844e+02 1.776176e+02 3.775558e+03 -6.959302e-01 2.347395e-01 5.818515e+00
7.1185         -3.809915e+02 1.778563e+02 3.781521e+03 -3.802951e+02 1.776220e+02 3.775692e+03 -6.964293e-01 2.342461e-01 5.828533e+00
7.1186         -3.810078e+02 1.778640e+02 3.781713e+03 -3.803109e+02 1.776302e+02 3.775874e+03 -6.969289e-01 2.337541e-01 5.838544e+00
7.1187         -3.810138e+02 1.778648e+02 3.781802e+03 -3.803164e+02 1.776315e+02 3.775954e+03 -6.974288e-01 2.332634e-01 5.848546e+00
7.1188         -3.810242e+02 1.778706e+02 3.781893e+03 -3.803263e+02 1.776378e+02 3.776034e+03 -6.979290e-01 2.327740e-01 5.858540e+00
7.1189         -3.810886e+02 1.778982e+02 3.782636e+03 -3.803902e+02 1.776659e+02 3.776768e+03 -6.984295e-01 2.322860e-01 5.868524e+00
7.119          -3.810823e+02 1.778940e+02 3.782600e+03 -3.803834e+02 1.776622e+02 3.776722e+03 -6.989306e-01 2.317990e-01 5.878505e+00
7.1191         -3.811117e+02 1.779088e+02 3.782911e+03 -3.804123e+02 1.776775e+02 3.777023e+03 -6.994318e-01 2.313133e-01 5.888476e+00
7.1192         -3.811116e+02 1.779065e+02 3.782947e+03 -3.804117e+02 1.776757e+02 3.777049e+03 -6.999334e-01 2.308288e-01 5.898438e+00
7.1193         -3.811452e+02 1.779177e+02 3.783415e+03 -3.804448e+02 1.776874e+02 3.777506e+03 -7.004352e-01 2.303455e-01 5.908391e+00
7.1194         -3.811334e+02 1.779233e+02 3.783070e+03 -3.804324e+02 1.776934e+02 3.777152e+03 -7.009374e-01 2.298639e-01 5.918337e+00
7.1195         -3.811572e+02 1.779320e+02 3.783383e+03 -3.804558e+02 1.777027e+02 3.777455e+03 -7.014403e-01 2.293841e-01 5.928280e+00
7.1196         -3.811513e+02 1.779265e+02 3.783357e+03 -3.804494e+02 1.776976e+02 3.777419e+03 -7.019434e-01 2.289056e-01 5.938214e+00
7.1197         -3.811720e+02 1.779347e+02 3.783612e+03 -3.804696e+02 1.777063e+02 3.777664e+03 -7.024467e-01 2.284284e-01 5.948138e+00
7.1198         -3.812137e+02 1.779547e+02 3.784117e+03 -3.805108e+02 1.777268e+02 3.778159e+03 -7.029503e-01 2.279524e-01 5.958053e+00
7.1199         -3.812410e+02 1.779623e+02 3.784452e+03 -3.805376e+02 1.777348e+02 3.778484e+03 -7.034543e-01 2.274777e-01 5.967962e+00
7.12           -3.812251e+02 1.779562e+02 3.784288e+03 -3.805212e+02 1.777292e+02 3.778310e+03 -7.039582e-01 2.270047e-01 5.977855e+00
7.1201         -3.812275e+02 1.779617e+02 3.784310e+03 -3.805230e+02 1.777351e+02 3.778322e+03 -7.044620e-01 2.265336e-01 5.987732e+00
7.1202         -3.812636e+02 1.779780e+02 3.784725e+03 -3.805586e+02 1.777519e+02 3.778728e+03 -7.049662e-01 2.260638e-01 5.997600e+00
7.1203         -3.812863e+02 1.779894e+02 3.785004e+03 -3.805809e+02 1.777638e+02 3.778997e+03 -7.054706e-01 2.255954e-01 6.007460e+00
7.1204         -3.812905e+02 1.779852e+02 3.785126e+03 -3.805846e+02 1.777601e+02 3.779108e+03 -7.059754e-01 2.251287e-01 6.017312e+00
7.1205         -3.812902e+02 1.779834e+02 3.785031e+03 -3.805838e+02 1.777587e+02 3.779004e+03 -7.064796e-01 2.246626e-01 6.027145e+00
7.1206         -3.813024e+02 1.779874e+02 3.785211e+03 -3.805955e+02 1.777632e+02 3.779174e+03 -7.069841e-01 2.241979e-01 6.036967e+00
7.1207         -3.813979e+02 1.780226e+02 3.786352e+03 -3.806904e+02 1.777988e+02 3.780305e+03 -7.074886e-01 2.237341e-01 6.046779e+00
7.1208         -3.812859e+02 1.779822e+02 3.784961e+03 -3.805779e+02 1.777589e+02 3.778904e+03 -7.079928e-01 2.232724e-01 6.056569e+00
7.1209         -3.812734e+02 1.779717e+02 3.784859e+03 -3.805649e+02 1.777489e+02 3.778793e+03 -7.084974e-01 2.228128e-01 6.066350e+00
7.121          -3.813233e+02 1.779934e+02 3.785480e+03 -3.806143e+02 1.777711e+02 3.779404e+03 -7.090026e-01 2.223551e-01 6.076128e+00
7.1211         -3.813527e+02 1.780001e+02 3.785903e+03 -3.806432e+02 1.777782e+02 3.779817e+03 -7.095057e-01 2.218970e-01 6.085861e+00
7.1212         -3.813867e+02 1.780207e+02 3.786254e+03 -3.806767e+02 1.777992e+02 3.780158e+03 -7.100089e-01 2.214405e-01 6.095581e+00
7.1213         -3.813927e+02 1.780217e+02 3.786357e+03 -3.806821e+02 1.778007e+02 3.780252e+03 -7.105122e-01 2.209855e-01 6.105290e+00
7.1214         -3.814126e+02 1.780321e+02 3.786588e+03 -3.807016e+02 1.778115e+02 3.780473e+03 -7.110155e-01 2.205320e-01 6.114987e+00
7.1215         -3.814019e+02 1.780206e+02 3.786533e+03 -3.806904e+02 1.778005e+02 3.780409e+03 -7.115188e-01 2.200798e-01 6.124673e+00
7.1216         -3.814521e+02 1.780470e+02 3.787103e+03 -3.807401e+02 1.778274e+02 3.780969e+03 -7.120221e-01 2.196289e-01 6.134347e+00
7.1217         -3.814554e+02 1.780485e+02 3.787184e+03 -3.807429e+02 1.778293e+02 3.781040e+03 -7.125255e-01 2.191793e-01 6.144012e+00
7.1218         -3.814655e+02 1.780532e+02 3.787290e+03 -3.807525e+02 1.778345e+02 3.781136e+03 -7.130289e-01 2.187307e-01 6.153667e+00
7.1219         -3.814813e+02 1.780583e+02 3.787533e+03 -3.807677e+02 1.778400e+02 3.781369e+03 -7.135323e-01 2.182832e-01 6.163315e+00
7.122          -3.815079e+02 1.780695e+02 3.787856e+03 -3.807938e+02 1.778516e+02 3.781684e+03 -7.140359e-01 2.178366e-01 6.172957e+00