/*--------------------------------*- C++ -*----------------------------------*\
| =========                 |                                                 |
| \\      /  F ield         | OpenFOAM: The Open Source CFD Toolbox           |
|  \\    /   O peration     | Version:  2306                                  |
|   \\  /    A nd           | Website:  www.openfoam.com                      |
|    \\/     M anipulation  |                                                 |
\*---------------------------------------------------------------------------*/
FoamFile
{
    version     2.0;
    format      ascii;
    arch        "LSB;label=32;scalar=64";
    class       volScalarField;
    location    "4.9";
    object      p;
}
// * * * * * * * * * * * * * * * * * * * * * * * * * * * * * * * * * * * * * //

dimensions      [0 2 -2 0 0 0 0];

internalField   nonuniform List<scalar> 
13486
(
5.48144
5.66358
-0.118969
-18.3049
-6.07738
0.643801
-7.0207
-2.72732
0.582566
3.86963
-7.00273
0.236355
5.7467
1.00098
-4.02997
4.11702
-6.91539
2.20714
0.119423
5.01048
-25.355
5.56148
5.54184
-16.0437
3.59531
-15.7858
-8.90039
-3.68747
-0.0277428
-6.26106
-22.1869
-0.783985
-3.70898
-3.10917
-2.62894
-0.0195355
-0.587551
1.81078
-0.43204
1.46313
-15.9458
6.22975
-0.162366
3.45634
3.37066
0.239883
-17.6361
-0.0279156
-0.566858
-1.83415
3.80254
-0.671065
0.602458
2.14558
0.308013
-5.49483
-1.71432
-0.632236
-3.84284
-0.712159
-7.9147
-0.752603
-5.29534
-26.3976
-60.3915
-0.640169
-16.1154
6.42516
0.402243
-0.40598
-15.826
1.03569
2.17298
-10.3222
-0.790467
-1.52599
-0.777795
-4.40615
-14.784
-1.37107
-0.0116419
5.98619
-5.63427
-0.0542598
5.47147
5.11395
0.352484
3.73049
4.45667
4.54694
0.718434
-3.72649
4.70429
5.29339
0.184803
-0.0184998
-9.15516
-15.3162
1.35628
-7.83539
0.0203505
1.19754
-16.3234
-0.634459
5.61679
-8.2543
3.78329
-0.420848
-15.9742
-5.75198
-1.29268
-1.81818
2.17185
-1.31612
7.99865
-0.666455
3.66386
-3.03252
2.22631
-0.532108
2.30458
-7.43441
0.849722
-0.441996
-1.01133
-0.624114
-1.0534
2.11183
-2.79871
-52.1112
-0.618398
-18.7152
-13.7125
-8.2584
3.83426
4.46691
9.86522
-5.32842
-0.506281
-1.97018
-3.3046
0.662827
0.0277249
-1.39152
-0.491128
2.49499
-0.0882385
7.87406
-1.99851
-0.0161952
3.18773
-6.09272
-0.00069079
6.16103
2.41875
-0.134592
-7.61054
-24.0063
0.54776
-0.343372
-0.983865
0.560979
1.80229
6.13079
-0.675258
0.240339
1.50494
10.2169
-0.101812
-8.37624
-15.3703
2.44117
3.54173
-1.22082
-0.0289509
-25.0109
0.844699
-3.16186
3.70899
0.0284283
0.566516
-1.14891
-0.828599
-8.15387
0.0212481
-3.5038
0.00156394
-4.41233
-14.8159
-0.07135
-0.568789
-0.392507
-0.722843
7.44491
-0.902258
-7.04687
-54.4196
-1.28075
3.17022
0.431063
-22.3201
2.05559
1.82498
-10.4129
-0.361858
-0.968762
0.335558
3.2263
-0.659183
0.00335394
-3.87478
-30.6051
4.94899
3.81234
0.666921
-6.8577
-5.84286
4.57668
3.9382
-4.46283
-7.13267
-2.01658
-1.64585
-1.25451
0.793474
4.43542
-0.0177356
-30.8227
-3.03622
0.292085
0.547003
-25.369
-3.38857
6.56652
-20.9961
3.7372
-3.85857
-0.335532
3.88867
-0.353712
-4.17607
3.48578
-0.703662
3.05409
-0.294824
4.44594
-0.106341
-11.9882
-9.22968
3.67844
-12.0383
8.20424
-1.17056
-0.448656
-1.91204
-24.1302
-0.487531
-6.8948
-20.8908
-4.81739
4.94781
-0.293254
-3.64811
-23.0509
-6.8232
-8.15708
-2.96305
-24.1214
2.33049
1.93947
6.16422
3.85075
-5.92126
0.427732
4.45275
-10.5106
-1.86609
-14.9575
-0.492308
-0.0325318
-17.0771
0.237787
3.91137
-7.18282
-7.3343
-9.71399
-2.81242
-2.84329
0.722139
2.4449
-20.801
-0.379926
-0.27871
3.84157
-3.76267
-4.16993
-1.18822
0.363973
3.84558
-11.8631
2.09338
0.493573
-0.0926491
-1.02913
-0.485973
-10.0864
-28.8515
-0.0472502
0.280952
-0.583121
-7.44323
-18.8417
1.54183
-1.42771
-4.68349
4.58019
-0.386839
4.52598
3.36219
-3.71756
-0.625157
-0.371666
3.7194
5.43805
9.62704
0.5109
-2.5688
0.0894343
0.258914
-3.09678
3.74423
-4.29569
1.04685
6.84121
-7.98472
-0.291576
8.07647
-6.0716
3.41252
-0.275905
-3.17062
5.45252
-3.506
-0.976812
-8.41127
-0.0241393
-0.721891
7.47953
-4.49769
-0.355698
-0.219637
0.360375
0.4166
-9.33775
3.81178
-0.217438
-10.3751
-1.04022
0.227151
-27.12
0.0730717
0.93673
4.72093
3.87122
-6.33329
0.00417827
-4.11358
-21.4499
5.1106
-0.860449
-0.153805
-0.569707
0.718147
-11.5407
0.94073
3.82995
3.78229
-0.319159
-4.18671
-7.18557
2.0983
-4.81072
6.4772
6.33929
-20.6907
-2.02899
1.47569
3.35742
-6.87373
-23.6787
4.76123
-5.67054
2.84764
4.30024
7.11933
-0.538926
-17.3618
-11.1
-6.17039
-3.13054
-6.72415
3.34186
1.2376
-31.1692
-6.34839
0.736761
5.18936
-3.3755
-0.294008
5.44117
3.23403
-0.0134382
-4.98509
3.89283
3.7591
7.31944
-8.14073
-6.6804
-18.3046
-0.419386
3.73909
0.836042
7.5691
3.52031
-0.427663
-4.37533
2.09387
3.96853
-8.91292
1.80141
5.55351
1.32699
2.81734
0.655936
-8.33987
-9.42582
6.60795
-0.349828
-1.09914
6.30546
-16.9576
-5.58816
-7.80184
-5.31359
0.0475046
2.75204
7.00504
5.7003
-7.8735
-0.521758
-8.6163
3.46796
4.61566
-1.83714
-1.56215
3.85227
-9.61335
-27.6604
-8.86196
1.53319
1.80893
3.75377
-0.0320375
1.84822
-23.4944
4.24589
-0.0240723
9.28329
4.55372
1.77528
-3.4523
-0.0435478
-0.00974794
7.95167
-1.90595
-0.505421
-0.372293
-0.246344
-9.79841
0.380108
3.57185
-0.289537
-0.233677
5.5738
-3.57525
-6.05107
3.38078
-22.6412
10.1756
3.41629
3.84355
3.93902
-23.2427
0.0816632
8.40862
-7.60957
5.3015
-11.1611
2.27512
-24.373
-1.23315
-0.210677
-9.22916
4.66678
-0.930875
-13.1234
-0.00766032
0.483129
7.08736
2.6867
-1.9226
-0.688428
-0.617903
-0.0943497
-7.34507
3.82749
-16.8375
6.39889
-0.821984
-0.394233
6.29955
-4.93862
-0.0497947
-0.106828
-25.4209
-10.4951
-0.0364691
-6.22155
1.06674
4.66295
-8.11259
-8.25726
-8.27514
-0.0232126
3.85229
2.26771
-8.16173
-16.5045
1.40211
-19.4243
-2.31098
-58.1743
-1.45784
-0.672989
6.68221
-0.972363
4.73987
1.9023
-11.018
-2.04772
2.71826
-8.82292
2.88929
0.0491473
-8.87442
-0.983264
2.04705
-5.63072
-8.0472
3.84263
4.29483
2.71687
5.6647
0.0626247
3.55068
2.15298
3.50378
-0.514436
3.90168
-9.17071
3.21143
-1.1076
-2.79135
-10.5505
3.59699
-16.6928
0.374177
6.76931
5.39205
-33.2754
-13.936
2.55567
0.850947
1.55442
4.52963
-11.7396
-8.377
1.28533
4.94803
1.84169
1.94819
-42.1024
5.51277
-19.868
-1.06406
3.84376
-3.73654
-1.21498
2.4565
-2.81793
0.16802
0.401154
2.67309
-2.68034
5.2646
-0.67393
0.105373
0.239783
1.17334
-2.62173
7.30622
2.35992
7.21015
-29.319
2.70835
-0.0321929
-10.8782
-6.62555
3.65183
8.0217
-58.2898
-5.16402
-2.92716
-5.03493
3.59199
1.84443
0.353664
0.965831
-8.0193
-9.76945
-10.5768
1.59901
-4.46396
3.85482
-0.0204702
6.42932
1.18645
-0.415797
-10.8732
-3.66965
2.45351
-6.88372
1.15641
-8.8392
3.62005
-0.00262345
-1.73457
-13.7852
6.41527
-0.0293099
2.17518
6.1181
3.82875
-8.09525
-0.789609
-0.452926
1.55791
-1.41153
-0.668307
-38.8972
2.64936
1.54208
2.3474
0.818824
6.35182
-0.946462
-26.8133
3.60587
-0.246791
0.404061
-2.52286
3.623
3.02642
-8.09815
0.0524101
-0.320921
0.358084
3.8453
2.39151
0.242154
-0.00544613
-17.9155
-1.11841
5.1006
-0.504422
-1.6979
1.23869
6.64768
2.66185
-0.478549
7.1835
-0.148666
-9.90566
2.55726
-7.59677
4.76223
-0.462832
3.82437
-33.2161
-8.68204
-24.9757
-0.0153203
-6.27654
3.3472
7.66673
-7.81146
0.507322
-0.224292
5.23758
1.64611
2.89809
-12.2547
8.09548
-8.09065
-0.0343572
-2.05901
3.50388
4.44838
3.70078
-6.3216
-28.627
6.07918
3.88253
-8.45555
1.6007
-15.9249
-0.938836
-2.33439
3.32367
-7.69797
-1.6287
5.02275
-5.67826
-0.555848
-3.05711
-10.8365
-7.95645
-0.489976
3.12251
4.81636
-26.0585
0.0732648
-8.19903
-27.8545
0.165406
-4.53569
0.935217
3.82371
1.38226
-1.69494
1.64703
-9.579
-45.7557
-2.42635
-0.630583
-24.2729
-26.5516
-0.325643
-22.9082
-1.51841
5.77924
-0.539158
-44.4813
6.15116
5.3065
-31.1611
-52.6905
-0.00995124
-21.5688
-0.559737
1.4349
1.58214
-5.46494
-6.0157
2.90222
3.56911
-0.420179
-24.0829
-6.99593
0.752226
-0.831025
3.8959
0.0739653
-23.7019
5.10629
5.00133
-7.96535
-22.6713
0.733186
-11.2135
0.255548
-0.398244
-5.69909
-22.3796
0.869364
3.75688
7.27125
2.95089
1.25237
0.919672
3.72625
4.95115
2.25223
0.40437
3.11914
6.89056
-5.86685
-0.354571
1.78892
-2.5115
6.53836
0.108616
2.94745
0.0476928
-1.70703
0.188559
0.886962
-2.50064
4.20373
5.51572
3.56716
3.13756
-6.1426
0.165913
-4.11378
-5.24521
-3.01905
0.814629
-0.492972
-33.8231
-9.48557
3.18514
-5.208
-9.093
-6.08593
-22.735
-4.15419
-7.97212
-29.3886
3.55532
-26.217
5.48384
-32.3553
-9.4044
1.34894
3.99665
-0.85328
1.66767
-13.476
4.49049
-6.44979
-4.33986
-0.987418
-0.501893
-22.0705
3.84761
-1.99014
3.3383
-0.346827
-0.0894241
-9.22258
-0.613418
-0.206649
2.79747
-2.91796
-6.96706
-46.3575
5.44804
1.86524
-29.0619
-6.76751
3.0737
-20.9193
-0.377114
0.225362
-3.65889
1.0208
-2.67744
-59.1406
4.97931
3.84572
1.842
2.94275
-0.401673
-8.42786
3.83545
0.508811
1.58203
4.45723
-1.57714
-0.439841
-2.40107
0.998061
-0.492756
4.39048
2.7039
0.712186
3.842
1.62629
-0.740595
7.82994
0.891165
-3.78063
3.55236
0.491344
-0.467006
-2.76398
-24.3318
3.01657
-0.881053
-0.15526
-0.512135
2.47585
2.44059
-8.00275
0.00251797
3.83734
0.566642
6.80276
4.59856
3.72615
0.227254
4.24497
-0.0447996
-0.279791
-3.36445
1.55864
-32.4852
-2.78659
-8.81975
-13.521
-13.4715
2.58416
-0.242389
-6.69378
-35.8239
-33.2606
-0.272634
4.12202
-0.124468
0.853205
-7.86472
3.75077
7.33747
0.620044
-6.8977
3.44064
-7.52531
2.79982
-0.353249
-0.318999
2.41161
-0.820722
6.38077
-0.0113633
3.74426
-4.85388
4.19458
-0.569528
4.68786
-0.81159
-5.22143
0.964288
-57.7508
0.0365097
0.705247
-24.0391
5.59796
3.76218
4.91733
4.5449
4.89644
2.86172
-4.15406
0.397261
3.80534
3.67094
-2.59195
-0.0152476
-2.77056
-0.697627
0.102342
0.759255
-8.46489
8.87256
-1.7946
-0.802595
7.357
5.31316
-2.81294
-53.6799
1.69606
3.29303
-16.8564
-0.300669
-7.94117
-0.248032
3.73871
4.06483
-0.342496
0.574956
4.17139
0.00559872
-0.835988
4.70008
-0.206644
-0.5366
-8.26328
-0.0764362
-2.39275
4.24485
5.33587
-0.522365
-11.9799
-9.19757
-0.123772
-0.503247
0.204983
6.32622
-0.57949
8.80566
2.67628
0.159589
3.30212
-8.16822
-10.1757
-20.1731
3.0616
-0.371474
-7.35769
-21.4114
3.02325
3.71296
-0.284154
-4.91132
-23.0338
-4.02377
1.82031
-0.333114
0.052036
-0.0229476
3.34928
3.88195
4.76767
1.28091
-2.80699
-4.36941
-2.76331
0.0193112
-36.5072
2.49185
-0.0808297
-25.0749
-0.42442
-0.510259
2.41477
-13.472
0.0797874
3.47883
-0.412387
-9.95149
-0.942125
-1.7521
-8.45507
0.44429
0.661575
0.599018
3.61783
2.4659
-7.95874
3.82554
-0.58344
4.88417
1.8564
3.18756
2.40976
0.769602
6.41212
8.65492
0.937683
-7.11207
3.64843
-0.595395
6.44867
-3.56675
-4.03139
-12.424
0.317048
-0.905716
-8.70849
3.73182
2.55511
0.971673
-12.4407
-3.06362
1.46318
7.77219
1.54216
3.94523
-6.64288
2.79595
6.18404
-2.02178
-1.18796
-25.6325
4.41787
0.00328033
8.55081
0.0996369
-2.94928
3.06208
0.420742
-8.73336
-8.14406
2.70965
4.77529
-0.218131
-6.61426
5.37002
4.99124
-1.05764
-6.08334
-0.000185419
2.17998
1.20409
2.22
3.81425
0.112566
-5.98596
4.44844
-1.54985
-4.17237
-2.70577
4.52092
2.39682
-6.87745
-32.4622
0.0064514
3.8648
5.85101
-0.0437942
2.33196
-2.39514
7.88303
-8.12814
-3.16861
6.5627
3.81578
1.0993
-0.520612
-16.9947
-3.6596
-18.4631
-8.62359
-0.317546
-19.8177
1.37252
-8.68087
-20.4003
-6.31859
-3.65392
-11.4343
-6.25241
-11.2051
6.32741
4.24631
-7.78521
-22.7386
-0.34396
2.11494
-2.74921
8.7393
-4.03008
-2.35977
3.84284
-9.41519
-20.1383
-3.07477
-3.33858
2.57721
9.10727
-0.0315244
-1.8835
-17.7775
0.0545036
-3.4066
-1.18084
-0.235697
4.57439
4.40792
3.96452
-24.3139
-1.0055
-0.551891
0.228858
3.70079
-0.0315519
4.07752
8.1683
6.99712
-8.9178
3.84395
4.73722
-2.3225
3.56713
-0.48337
6.82189
3.43469
1.38404
4.69819
3.20488
-2.61781
-0.354969
4.72527
-4.07284
0.445134
-5.63037
-5.01312
0.609614
2.90118
-0.478969
0.219006
6.25639
6.19892
-2.43142
-8.05128
0.23237
-18.207
-1.60488
4.40839
4.71025
-7.86322
3.72235
0.102143
-0.439709
0.300672
-14.3749
-26.0133
-0.503942
8.9252
-3.65297
-0.0468621
5.34921
0.580898
-1.42532
3.01421
0.339329
3.82482
-10.1638
-4.61342
0.0237555
-2.56939
-4.24985
-3.10613
7.47553
5.27414
2.01001
8.16863
5.84889
-3.42989
-0.525597
-0.0446829
-2.19466
6.30141
-25.7031
1.71567
-0.419279
-8.7142
-3.73917
3.21524
-51.9086
-0.39747
4.14462
9.22681
-9.30436
-0.252859
1.00433
0.857376
-0.143035
-22.0473
5.94721
3.44332
0.302618
3.05123
-11.5288
-8.88435
-9.23654
6.97548
-1.24388
8.45191
-23.0928
2.07608
-14.1199
-7.65506
-9.56585
1.09859
-0.554172
2.58982
0.439119
2.52231
-20.713
-0.00263293
-31.209
-7.85068
-3.22162
-4.79196
0.329349
-1.16778
-25.5772
-7.72588
-0.395788
-0.128487
7.07848
3.80725
-0.714017
-0.0218355
10.5275
1.60447
-9.4893
-0.0343243
0.893603
3.89354
0.585019
4.60005
-2.37985
-2.49398
-3.37111
-0.000447195
0.226771
5.67876
-8.17094
-8.62355
-8.88611
7.14559
-14.2665
0.0541342
3.86333
-25.2694
-1.47421
-0.436218
-8.73403
-8.94822
-0.447043
3.63414
1.86461
3.7874
-3.46823
-8.08515
-5.50926
-11.9514
-8.27722
-2.85738
0.78476
-25.617
0.193391
-17.67
-9.34103
-12.0211
5.31656
-24.1343
7.17616
-8.75972
-6.61114
-1.35649
1.64055
4.11989
-1.23908
5.83796
0.461677
-16.67
-7.63545
3.32229
-7.71362
3.62595
-0.337965
6.3417
4.58271
-0.349759
3.1112
6.29848
1.06288
3.12365
-5.77109
-12.2624
-0.820336
-7.33182
-0.488443
-4.27836
-4.85703
-0.131239
-7.49258
0.192285
-0.575874
-2.27846
-4.05616
-3.89269
6.78795
-0.0128274
-0.017936
0.384735
3.8155
-48.822
-0.0477563
1.36708
-0.67566
-0.231625
0.290567
-0.270815
3.80752
3.83409
0.139844
4.17604
4.52624
1.90409
-7.90822
-0.763608
2.33702
-0.00487663
-2.34264
-21.076
-30.2562
-3.97034
-17.6734
0.0560774
-0.505708
-1.77392
-7.9998
-1.91859
-14.223
-0.538906
-28.3453
2.7021
-8.33499
4.03308
10.382
2.79091
-30.2273
3.0733
1.89672
0.226852
-0.120881
-8.17732
-39.7503
0.0875696
3.47724
-0.0173941
5.94776
-0.0856123
3.8215
-2.01113
-0.694115
-16.3062
-7.13236
8.69979
-25.0877
3.86403
3.85515
4.54254
0.076507
3.4129
-0.014999
-12.9971
0.84539
-9.35785
-11.3675
3.53859
3.81818
-4.55793
2.13593
4.80315
-16.3912
-62.5502
-1.7699
-0.545672
4.3633
3.12321
4.63437
-1.26401
0.886592
-7.74864
-3.38929
-8.84489
4.65355
8.34318
-9.23159
-6.62403
-17.2215
-0.944439
0.0365549
0.0552533
-8.61518
1.71306
-1.51069
-27.6137
-0.813202
8.84274
2.83744
2.05125
-23.3606
-12.1373
-11.9229
-6.71897
-11.035
-9.08296
5.37512
3.13163
-4.4346
8.15713
-0.0399606
-7.79688
-31.1513
-11.3331
1.21242
-7.64476
2.5511
0.437246
0.183227
-7.44426
-12.1862
-9.74734
-28.1928
4.79477
-13.0503
-0.459493
-8.74389
3.87016
3.23179
-14.0737
3.97642
2.57625
5.19008
6.34955
1.14141
0.336137
9.0546
-9.62198
-0.441343
-9.94931
-23.1175
5.55751
-27.0757
6.97417
3.02078
-3.2085
-23.2594
-20.8835
4.49717
-32.5199
-44.1784
-0.098598
-0.645636
1.93772
3.42295
1.92336
-2.24269
7.13725
-8.60571
-14.3321
1.21924
-0.454582
4.25652
-21.156
10.219
-0.477742
-0.637322
4.23818
-2.9868
3.83797
0.887468
2.31101
1.03203
2.39964
-3.51315
1.35298
0.239739
-28.3874
-0.116994
0.585617
3.32569
3.64337
-31.2819
-0.129273
-8.21773
3.33784
1.09281
-24.5566
4.08772
-31.5159
3.80642
4.0947
-6.62943
5.62312
-54.1675
8.60816
1.52444
-16.5356
-0.0266965
-0.687008
3.84554
4.47367
-20.6647
3.75152
4.26581
-7.24446
-0.440156
0.232524
0.74192
-7.39955
-7.55921
-4.70083
-27.8077
3.85446
-20.686
-18.9998
-9.19445
4.91359
4.04292
4.26057
-20.8061
3.08711
-1.14206
-0.0461705
3.1595
-31.471
-33.4633
6.98806
-0.567296
-2.37524
-4.19134
-11.1672
-24.5683
3.89628
-7.0449
-4.03587
4.52133
-2.39137
3.56922
-9.28449
-0.303652
7.84847
-7.84816
4.64711
-0.517564
-23.7718
2.55483
0.23018
0.863543
7.87127
2.0078
0.710181
8.3394
3.40904
5.23467
-13.14
-21.8927
-6.07413
-3.65997
-21.0803
-0.386883
-3.00386
-1.23711
-0.710392
-0.00593163
-4.11332
-2.62698
-24.7294
-3.98296
5.04053
-6.37121
-0.436744
3.44358
3.78582
-1.17243
-0.296246
-14.4728
-7.46246
-10.1111
-4.44532
5.05128
-21.0836
5.10162
-8.36218
3.83063
-5.77981
-0.512775
-10.0285
2.26858
3.23687
2.13082
0.0103637
2.40051
1.36815
4.25358
6.18669
-23.9214
-0.422983
-16.5046
4.13818
1.41627
-9.42865
-2.99933
1.27557
-1.70039
-0.0811
0.554527
-3.01595
2.10575
3.23564
1.30062
-0.448515
-27.5784
5.58215
-12.1216
2.90145
-0.016832
3.89053
2.52709
3.29391
0.382348
-14.5152
-21.7776
-0.444122
-14.6029
-25.9894
-51.2734
1.56738
-29.0843
4.02952
1.05648
3.8186
-19.8927
1.1506
-5.60483
-0.472664
2.45287
-9.13263
1.50321
0.191951
-42.2307
-21.3524
-12.6801
0.115413
3.98205
-0.441991
0.321081
-10.2477
1.15136
-7.7331
-0.569925
-8.43428
3.96601
-0.218521
-0.29455
3.40323
1.04393
2.9721
3.86689
6.22137
-8.29926
-0.480141
-16.3857
-1.42575
3.38804
0.187915
-14.061
-21.6386
-13.3117
-3.19721
-0.251506
-17.2358
8.59373
-6.43624
2.26663
-0.251733
-46.814
-0.597778
-0.38128
-0.812661
1.74303
0.371355
4.13293
-0.465695
3.76555
-5.86271
-10.1549
-33.0567
-2.12194
-21.6839
2.00478
7.6744
3.66043
-6.90856
-13.0679
4.18316
-9.02673
-7.02323
0.0763696
-1.50343
-30.4583
-16.1688
-25.1611
-4.32536
0.00911013
-0.972515
-1.26262
0.236401
4.27835
-2.47361
-3.78011
4.44259
-0.549828
-6.63206
-0.396476
0.232787
-0.0266925
8.34627
0.0459983
-0.521539
-2.72428
-1.33626
-2.4158
0.756118
-1.94731
-1.37671
-1.66822
-3.21891
-0.389312
-6.20849
4.74013
0.690891
1.97241
-13.4863
-3.35869
7.95279
-31.8103
2.22086
2.00151
1.76369
-0.756026
-0.204547
-19.3215
2.19778
4.06331
3.66278
1.55417
-25.4407
4.40025
1.78722
6.20787
-5.30103
4.17402
4.57778
4.03916
0.545066
-8.01014
2.47896
-11.232
-2.77917
3.04655
3.01866
1.58249
5.17398
0.341308
5.98705
1.34126
2.39815
0.770913
-0.188063
2.48599
3.84244
-0.79226
3.10919
8.12234
4.06549
0.339881
-3.12844
-0.231882
3.82607
-0.479452
-5.9172
0.243795
-0.22653
4.3219
-13.1055
5.43034
2.25874
10.702
6.78991
-4.21172
-5.87787
1.09999
1.4691
6.86171
-0.111815
1.04431
-1.24928
9.15327
3.42354
-0.177385
8.50286
-1.4645
3.23671
-3.72187
2.00711
-1.47987
0.83237
2.20734
3.4875
-0.591065
-14.3234
0.209748
-11.1231
-1.03203
-14.8415
-0.00497475
6.62539
4.97706
-0.363771
-9.6147
-2.77706
2.66945
0.597695
0.368552
3.36638
-11.9468
-15.1513
-23.3451
4.09358
-6.05992
-7.94555
3.26278
-2.24246
-0.245763
-2.98376
8.07154
-32.7597
5.11
-11.2598
8.43047
-8.95364
-0.548472
-0.584957
-0.568407
0.850831
3.79544
1.04227
-6.4725
1.38993
-9.73128
4.22612
0.197841
1.25646
-30.5169
-4.30428
-11.5248
1.96807
-6.09424
-0.442966
-1.19609
3.87384
8.42411
-11.395
-0.395399
0.126359
-3.75655
3.0354
-0.313068
-4.6258
-5.33036
-22.5298
1.95526
-31.092
-3.69936
0.108719
-0.295593
-62.0303
1.52708
3.66307
2.70804
3.80839
7.81568
-7.51503
8.93268
-11.0868
8.07289
-22.6713
-1.84864
7.24943
2.90266
-44.9642
-0.88687
-0.599823
0.368548
-30.1765
-8.19395
0.320476
-4.9881
-7.52707
-0.0272454
-2.17487
2.76454
1.98348
-30.0908
2.86691
-5.60627
0.0569618
-31.1066
-0.470179
2.38998
-33.5234
-3.93508
7.4024
-0.359126
7.66064
-0.00727756
-9.23281
2.81276
-2.02383
-0.633116
3.77904
3.58278
8.87437
3.79381
4.49538
-5.73788
-8.77287
8.55986
8.49561
4.46222
-1.19595
-23.3696
-11.2707
0.527894
-3.6254
-1.20481
5.41243
-22.461
-0.441636
-5.29515
7.95187
2.06599
1.69472
-22.5188
-0.645069
3.92152
9.96794
9.18338
1.12139
2.53802
-3.80856
-9.77709
3.35605
9.42798
-9.49422
-0.671495
-2.8906
-0.0388146
0.394282
0.533369
-0.00784261
0.234308
0.966464
-0.0357587
-0.734075
2.54682
4.39657
-12.1126
2.73166
-24.3351
-0.286167
6.68344
-1.95493
0.490515
-11.464
3.00532
2.79155
-12.7037
-13.4193
-0.392903
1.10376
10.2722
-14.3724
-1.11926
-42.1059
-0.785844
-13.9875
-11.8083
-14.1704
-1.41844
-0.323684
-6.03459
-1.77042
-6.75285
2.71845
-0.405012
1.58318
9.84303
1.81166
0.169742
-4.01102
2.01707
-7.64876
-4.82451
6.38271
3.16122
0.219938
-3.35314
2.19207
3.13574
-4.23749
-15.1292
-0.00271749
6.4707
-3.02684
3.82747
1.36961
5.59821
0.547812
-26.8081
2.15666
3.78444
-3.38541
4.05153
-1.49219
8.86175
-16.2643
0.198451
-7.67044
3.52576
-15.6142
-2.15515
-17.2644
0.204385
-9.2493
-28.4707
-34.3001
-1.05188
0.806719
-27.0589
-1.8795
0.637046
-11.2317
-0.185285
-18.6576
3.7385
8.24915
-0.962839
-7.60067
0.0265705
0.0944003
0.430163
-1.27976
-0.431462
-8.9304
0.0338127
-10.5931
-9.35048
1.32661
-0.283393
-21.3984
2.48312
-0.0243132
3.78187
-0.945752
-13.3157
-0.0387348
-0.575945
-5.00661
-1.79982
-4.90626
-14.1827
5.02896
-22.9608
-7.0426
-3.76088
0.980268
-8.44767
-7.78739
10.5802
-1.05736
-4.01586
3.34624
8.14417
6.7081
-29.8857
-3.68474
3.75659
-0.44456
0.07698
8.20517
-0.408874
-2.46878
10.4951
0.371267
-11.0179
1.847
6.25675
3.91566
0.00835049
6.46358
3.57821
-2.86686
-0.442474
2.98552
0.302269
-7.24947
7.63142
1.10052
-0.397626
-0.727236
-21.2488
-1.604
-23.7388
-4.71077
0.369106
0.856707
4.32257
1.04372
-8.88844
6.76245
7.2334
-0.215847
-0.190095
-1.61838
-0.173137
0.135934
3.48543
-25.3998
-2.4087
1.23827
8.5368
-9.29274
1.88109
3.01039
2.88935
-3.13911
0.331397
-5.9477
-2.22506
-6.7901
-0.602682
-8.61134
-4.76565
-0.179824
-17.3944
3.43706
-30.0061
-0.442494
2.26473
-7.68531
-22.1761
-7.69944
1.35063
-3.43782
0.216224
2.92048
-33.0797
-0.896091
-0.744561
-1.46084
3.49073
-8.61932
8.31426
-0.547486
9.34384
-0.0064939
0.117048
0.119491
3.8747
-0.388469
-8.88429
-1.45261
0.776583
0.103423
-2.0607
10.6893
2.94038
-3.90279
-2.8709
-3.15077
1.31384
1.01577
-6.60595
3.52579
-23.7234
-20.4224
-7.56079
-10.6065
-2.69562
-7.76302
3.43622
-0.292499
6.72681
8.64836
-6.40648
-8.81773
1.1205
-2.48019
7.0936
-11.8517
0.252327
2.85903
3.60813
-27.9539
-11.6125
0.563035
-0.585858
-1.71303
-24.2163
-10.2201
0.779126
-1.60274
-6.68681
0.363749
-7.41985
-5.74906
1.22154
-33.4666
-25.7832
-7.38737
2.49252
8.85155
-4.3867
3.87048
-19.5578
-1.3543
1.04891
-3.3023
2.45892
-14.8472
-23.0161
7.00695
3.39123
1.2414
-9.18368
9.51058
-20.0894
-18.949
-23.9058
-5.17327
-15.9168
-26.0829
5.95752
1.04478
-0.172459
2.76662
-18.6959
2.02163
0.198092
-0.0258623
-8.65308
1.35727
2.66346
1.44933
-12.6622
-15.7291
-12.1871
-8.71058
-3.24314
-2.7158
8.94418
3.57379
-17.0788
-5.71631
2.21264
6.38432
-2.89581
-22.4952
-4.62391
4.96463
0.161203
-5.42963
4.07754
-7.09463
6.87059
-2.73432
4.41572
-8.69259
-4.68141
-0.672099
-23.0435
-5.94007
2.61372
-20.3423
-15.3498
2.43715
-7.23108
0.897586
5.07914
3.69469
4.8734
3.83134
-3.26095
-0.164999
1.45541
0.550959
-0.0164457
2.45634
-3.5995
7.0275
-16.4126
4.65057
-8.13268
8.16881
-19.0248
-1.36159
7.74859
-17.1165
-4.10388
-9.18704
4.85431
7.65675
3.71817
-5.12072
3.79315
3.4875
-24.0474
3.31908
-30.814
4.15701
-18.3847
-30.4418
-9.39186
-9.7102
3.38677
-7.43788
-10.8459
-1.14868
7.47213
-0.176203
0.966604
-10.0626
-2.04597
-3.08672
-3.98542
3.83998
0.836286
-10.2864
9.21436
-0.757065
6.42448
3.88867
-0.396212
-0.236353
-0.838065
-4.26487
-5.58411
-1.62048
-2.01445
-0.0278378
0.699308
-23.5737
8.50244
4.58577
-1.35505
-18.4846
0.454208
-19.5995
3.80892
3.05852
0.242529
-0.545191
3.07618
1.25579
-2.14288
-8.38338
-3.66039
1.55149
6.91415
-13.5212
7.79279
9.56271
8.21844
-11.2694
3.30742
-8.81443
3.69058
3.11712
5.03957
1.6035
4.64508
9.87885
4.09331
-16.3367
-15.744
-21.9707
9.80564
-0.874389
-8.47389
-13.1568
4.82826
6.86892
2.20169
-1.16858
-1.21108
6.03497
-1.67913
0.655505
-14.0461
2.91663
-0.451423
-11.5605
-0.57501
-7.99495
-8.79238
-29.239
-7.73904
-1.53506
3.21426
0.683073
0.295452
0.955598
3.53821
-6.2124
-0.628179
3.33887
-8.50503
-19.8732
4.34349
6.1477
-19.8235
4.54454
4.44228
6.6121
-0.318905
-43.8044
1.61387
-8.31273
5.04606
2.16274
4.84163
3.84611
1.87132
4.82624
0.104941
3.64419
-1.07535
2.99101
-3.25986
-7.76185
-1.08862
-0.377823
3.51426
-33.0547
-31.6495
-31.7587
7.50962
3.19422
2.94652
-1.78886
5.70248
-5.27501
0.720354
0.50694
-3.26439
0.860143
-28.6188
-9.22713
-2.44829
-7.70524
-4.22621
-18.4792
0.412274
-11.1219
-9.38415
-0.34594
7.58011
8.75708
6.66049
-33.5215
0.721296
-8.19339
1.04601
6.61853
2.03933
3.44256
-28.7386
-0.774423
-3.81206
0.995668
4.18518
-1.16128
1.62876
-9.84333
0.332616
-9.02499
3.88925
1.69725
3.76419
-8.75029
0.982193
-31.5813
-11.0419
-10.6135
-0.955116
7.1716
-7.62632
-16.8142
-15.1159
2.59594
3.85272
-0.710251
3.35622
-9.33932
5.89058
7.24911
-29.2039
0.494276
4.79658
-32.3248
-8.79285
1.33298
4.61563
5.1882
-8.43135
-4.31698
1.11105
7.46077
-8.5508
-59.3485
0.911619
6.06819
1.28364
-3.23767
-10.0521
3.57432
3.70932
4.00044
0.776219
-6.20906
1.71403
9.5756
-7.80955
-2.19171
1.15521
-9.72869
1.23869
-0.582126
-11.4653
-4.70883
-21.6473
3.44647
-22.2331
-8.69024
3.36435
4.67235
1.08125
-3.91699
-52.3124
1.03284
-9.57742
-6.51667
-2.77496
-1.01835
-6.04887
5.19093
1.28429
1.1229
0.212898
6.59464
-26.8733
-2.9743
3.73515
-9.90803
3.6176
-0.484915
-1.42885
-8.77069
3.85849
-0.0378167
-0.613948
-2.73283
-4.79017
3.70201
-8.20957
1.58154
-36.2171
-6.03075
3.63536
-10.4074
8.10804
-9.41668
-14.7091
-21.2387
4.82667
1.35276
3.04014
-23.5734
5.93362
-14.8509
-3.65359
0.348104
4.57462
4.06329
-0.686005
-2.60765
-2.14394
-19.1317
3.71058
-6.59977
-31.9451
0.0176099
0.186489
2.6597
-1.36329
6.64544
0.152493
-8.65363
3.14507
-2.1601
5.07101
-8.91615
1.43092
4.33767
4.04768
-1.00033
-14.3874
-10.0672
1.16642
2.4389
2.91169
4.3612
-17.457
-0.965572
-6.67606
1.72756
10.0711
0.814992
3.55699
4.96171
2.13461
4.22147
-24.939
-21.2701
-33.887
3.72245
9.63441
1.15777
-1.63239
3.92744
-1.65877
-1.19321
0.134521
1.16104
-0.296617
8.11753
-16.9679
-7.78498
8.19788
4.04501
-0.234575
1.74889
3.25112
0.0762039
-31.9378
-28.42
1.71772
-9.31436
-7.54379
3.15657
-33.5823
-19.4343
-9.87918
0.379738
0.644068
1.4327
1.26312
3.20813
3.35942
-0.232495
1.73754
1.00142
5.89542
4.73436
-5.31196
-1.2059
-0.757971
4.40494
1.3993
2.35156
-1.44449
1.1901
-0.508082
6.60158
2.17706
-0.0507911
-9.16102
1.79783
2.3187
-3.45695
2.93331
-0.446975
0.196319
-42.4202
0.301272
-10.0264
0.443586
-4.49542
-20.5286
-4.45284
-8.66576
5.27864
-11.3507
-14.2753
-13.4876
6.93786
-24.5719
0.345223
2.30811
-10.799
4.78652
3.88431
-4.22039
4.36949
0.533594
1.34044
-23.2994
-9.60264
-0.152683
5.27469
2.78009
-8.71271
-8.19566
-39.5182
-16.3571
-14.0478
-2.45081
-2.3752
2.70067
3.79009
2.60748
-33.2164
0.174966
4.55305
3.08423
-8.28587
1.44682
-22.974
-2.51529
0.42608
-0.237508
3.77994
-5.39047
-28.3855
-35.7817
2.51558
-22.8977
-21.9452
-0.0274802
-45.8722
-8.32085
-11.1366
-12.1508
0.00125781
-21.7506
-0.959733
-8.37254
4.02798
3.87674
-2.37317
4.97503
-18.6642
6.45567
-8.83406
1.5221
-2.19424
1.83915
-0.206061
-8.15619
-22.098
4.13262
5.31694
7.06492
-8.9121
-9.52608
-25.029
-2.32851
-0.0402106
-9.26828
-8.52718
-9.32385
-0.185931
-8.44525
-4.03174
-11.5987
-1.01358
5.91252
0.17451
-0.457568
-0.383258
-3.6417
-16.0153
6.41303
8.67846
-11.9436
1.78764
1.98629
-0.0170317
-29.7202
4.75247
5.21026
-2.09072
-21.4789
-32.5375
-22.4976
-1.91335
-10.1683
-1.36062
4.1167
-0.206302
4.62284
-7.27748
-11.0153
4.05729
-1.55624
-9.76986
1.65303
4.6384
-10.0453
-0.448991
-10.331
-9.40903
-9.37337
7.2765
-22.2301
0.634387
-8.19166
2.98512
-10.2485
-8.42519
-1.71823
-7.14221
-3.36357
1.99409
-0.115461
-9.25238
0.959697
0.0327636
-47.5491
4.71226
-8.65254
-3.29879
-1.20679
3.62882
-18.9107
4.72964
-44.4981
-0.024758
-0.393548
-5.86119
-26.5364
-9.04709
-18.3005
0.482989
2.78735
0.195157
0.623876
-3.53222
-0.139767
-10.732
3.95214
0.665919
3.38258
-4.84215
-18.1141
1.75468
10.6724
-27.8946
-10.4454
-13.6401
-5.71708
3.75619
-0.0710064
2.14178
-2.1039
-6.79535
-8.85045
-9.06024
-9.50349
0.233014
-6.67676
1.77131
-9.42322
1.04815
1.01689
-0.368172
-6.09031
-0.605798
2.88632
-7.27114
-39.6539
3.72454
-1.48486
-8.46257
0.518446
2.85191
-3.78539
0.176276
3.2598
-29.0201
3.14722
-7.28949
2.07869
-5.26547
-4.39594
-17.5068
-6.20294
-24.5266
3.39363
3.04384
-10.4799
2.81141
-24.9299
5.09704
4.60524
-10.7863
2.05355
2.87396
3.83896
-3.42736
-28.866
-3.68994
-2.03456
3.69224
2.41221
-6.18619
3.35307
-4.36286
5.26722
0.787056
1.48666
1.59872
3.77517
-3.28601
-3.64735
-0.449026
3.79511
2.33248
0.904188
4.83653
4.60135
0.118765
-34.6733
2.99937
3.2137
1.14181
-1.90859
-15.7711
-12.3177
0.833587
-32.447
5.10186
0.134388
-1.6356
-2.96024
1.17363
-12.4291
1.13571
-35.7108
-4.25546
3.04465
3.8805
-38.6867
3.0033
-1.41285
0.437842
1.20966
1.07107
1.51371
-0.0275061
4.00914
3.96093
3.63937
-8.16098
4.23561
3.11029
3.81626
3.94045
-46.4384
-2.53464
-0.486369
-4.3132
3.2068
7.14495
-44.046
7.66473
-28.6691
-8.4121
1.62387
3.0013
-1.93593
0.909386
-8.2153
-40.3759
-1.00588
-23.5767
-1.07192
0.460514
0.506941
9.03208
2.16946
-37.9959
-22.9829
0.716522
3.08613
-30.307
-15.3101
-56.2724
-3.7237
-9.14451
-7.58025
3.83384
1.09416
3.03645
-1.66218
-1.35162
-0.973694
-0.308019
0.419861
-4.82546
4.81714
-8.22234
-8.60952
-2.08419
-13.4598
-0.351455
3.24972
-1.09287
-10.636
4.05851
-0.576509
3.03118
-4.49729
3.41488
0.693723
5.84667
3.6326
-33.142
0.346966
-3.1227
-55.3489
-0.444567
-0.468313
-6.50882
-46.3057
9.29027
-0.123982
-3.46514
4.63966
-13.4319
-0.81755
-27.2663
-8.45658
-22.7734
-9.82174
-2.64317
-0.573009
-12.2009
-37.5669
2.20615
-43.7449
-2.38399
-20.2525
0.169833
3.86263
-15.4
-21.2371
-2.95994
-0.535129
-4.47225
3.32834
4.97111
-56.9693
3.44399
-2.63636
3.60581
6.91862
-10.7205
3.58343
-0.187312
2.90967
4.0908
0.861133
-2.30938
-16.499
2.89098
4.96275
-35.8225
0.0603885
-8.09802
-5.74819
3.251
-44.5491
-3.17649
-61.3892
3.04174
-8.42061
0.230125
-0.627791
4.01048
0.297978
-14.8286
0.61221
-0.377701
-14.5432
5.99949
7.94399
3.26116
9.60893
4.64719
5.59502
0.665065
-1.0633
5.37652
-18.3089
1.68234
0.329606
-9.296
5.3443
-2.76383
-3.43866
7.82514
1.41804
-15.354
3.21329
2.92214
4.5962
-9.27079
4.09985
7.89287
-11.9263
-8.66161
-3.57443
0.0180071
-8.52357
2.64745
0.776
4.9476
3.71523
-19.2029
2.66165
-1.69442
-21.4117
-18.243
-32.0016
1.76909
-6.23445
3.87577
-0.657149
-9.31099
-0.0649749
-3.99728
-1.3975
-58.6802
-20.6378
2.48591
2.07111
-8.88527
-0.114041
4.02104
0.224621
-40.5069
3.34675
-0.0868904
3.1255
-9.71194
3.99263
2.34105
-6.48788
-1.30604
1.97599
-0.166494
2.5395
-8.72888
9.17222
-2.21308
-11.0561
2.08905
0.744929
-9.7163
-3.65562
-8.15057
-4.03306
-2.87961
-5.30559
0.850044
0.225123
9.72961
1.19123
-16.5608
-0.0620473
-3.52919
-3.91027
-4.08728
1.11146
4.08162
-8.61741
-0.0926925
-9.52663
-3.75438
-0.0619182
0.62009
3.73902
-0.035895
-0.0476882
-2.99387
3.42738
-0.234638
-0.0907546
-10.4838
-0.185927
-0.804722
4.60682
-11.0093
-1.68283
-18.0132
1.58708
-9.72646
0.506538
3.61546
2.87447
3.84073
-9.48617
-21.453
3.54386
-1.99906
4.32199
3.22217
2.20978
3.16072
-0.33418
2.45919
0.504432
-5.00846
-19.7475
4.01262
-17.2766
4.0149
0.206554