/*--------------------------------*- C++ -*----------------------------------*\
| =========                 |                                                 |
| \\      /  F ield         | OpenFOAM: The Open Source CFD Toolbox           |
|  \\    /   O peration     | Version:  2306                                  |
|   \\  /    A nd           | Website:  www.openfoam.com                      |
|    \\/     M anipulation  |                                                 |
\*---------------------------------------------------------------------------*/
FoamFile
{
    version     2.0;
    format      ascii;
    arch        "LSB;label=32;scalar=64";
    class       volScalarField;
    location    "7.1";
    object      p;
}
// * * * * * * * * * * * * * * * * * * * * * * * * * * * * * * * * * * * * * //

dimensions      [0 2 -2 0 0 0 0];

internalField   nonuniform List<scalar> 
5098
(
-0.476514
0.580414
0.178974
1.98577
-1.64631
2.23691
0.1169
-1.31794
0.202869
0.326657
-4.3334
0.784956
0.354065
2.5472
-0.732204
-0.0110987
-2.7778
-7.21043
-3.71899
-2.96188
1.55959
-0.0117882
0.854948
3.1371
-6.39371
2.16255
1.44877
1.39914
-3.73795
0.54195
0.642896
2.73679
1.6463
-1.32921
-0.316678
-2.57823
1.59194
1.59747
2.44544
1.04504
1.9445
-10.5213
2.13168
0.231881
-0.0838102
0.697617
-3.59634
2.77885
0.65237
2.02827
0.279725
1.9665
-4.69302
1.49114
2.2423
2.21366
1.66922
1.85529
2.74358
-0.297752
-0.0656697
-4.36714
-0.32875
0.394261
-4.67939
2.57591
0.0475997
0.2091
1.23923
1.75542
1.62763
0.0407214
1.21157
-0.0261985
-0.199008
2.02936
-0.174834
2.2712
0.317093
2.14548
-0.335805
-5.3953
1.98924
-1.64557
-7.67659
0.472941
3.36556
-0.177888
-1.47433
-0.0890954
0.870205
-4.57353
0.809725
1.9877
2.45653
0.103477
1.73027
2.3357
-0.187469
1.25038
-5.55607
2.17147
-0.262094
-0.217799
2.27592
-0.245626
1.53145
0.155399
2.82227
-4.50176
1.86946
-3.51879
1.58818
-4.57684
1.49465
-3.68657
-6.28586
-1.18153
-0.29227
3.11138
1.92905
0.358102
0.313249
-7.83284
-4.67478
-3.05921
1.40144
0.902175
2.52516
-4.58911
-8.1437
2.66678
2.63319
-0.957172
-3.01258
-2.79612
-1.33108
1.50094
2.47309
1.48368
1.9804
-0.553173
1.30616
0.211242
0.690278
-0.283244
1.29868
-1.33903
-1.20917
1.05929
-9.80061
-4.71127
-1.60362
1.66136
3.40002
3.04489
1.85981
-4.47415
1.94995
-3.74929
1.44645
-0.8184
-4.60355
1.83364
-7.08748
0.512318
-1.91454
0.489332
-6.55167
1.85642
0.103161
2.03372
0.489829
1.41134
0.564173
0.825446
1.94483
-2.53109
1.93544
3.38911
-2.57927
-6.00865
1.74511
-6.91509
1.80091
-0.799214
2.25705
1.56023
2.0008
-4.52442
-3.61886
0.319009
1.15681
-0.213585
0.546838
-4.58465
-3.94954
-2.92382
0.0120274
1.81778
-6.94804
1.9565
-0.0762471
0.587791
1.44598
3.04156
-0.827236
2.50458
0.996059
1.14731
1.64836
1.919
0.303268
0.639962
-1.06724
-3.66466
-0.22677
-5.47503
-4.61461
0.870824
0.801047
2.16559
0.0300884
0.784878
-4.58802
1.52993
3.32192
1.53481
1.32722
0.0895124
1.63842
3.1846
-4.57819
0.00636135
0.360676
0.411166
1.22866
-5.31229
-2.26068
1.83751
-5.58107
0.430583
0.0382696
2.87335
1.51366
0.869729
2.49797
-5.042
-2.90993
0.801994
0.504902
1.34312
-3.84002
-6.13745
1.70709
-5.19885
-2.69136
0.324115
2.73667
-0.0869163
-0.810424
-4.634
-6.17272
1.22917
0.0436161
-5.3188
-3.74814
-4.7634
0.171052
1.86107
-4.5215
0.00225026
-3.74416
0.182889
2.7026
-0.176759
-10.888
-8.99649
0.598055
1.64948
-7.91559
-1.12832
-4.58896
-1.2299
-0.465478
-0.790904
1.71139
-0.24366
0.515745
0.8349
-7.95842
-4.49882
2.87182
-0.0198792
1.31229
0.304745
-0.355111
0.593649
1.40033
1.66767
-0.315643
-0.854752
2.1151
1.45102
-5.17125
1.56342
-1.44455
0.825856
1.71933
-3.67298
0.908644
-3.91633
2.1921
-0.2593
0.305754
3.38032
-1.19464
0.0339884
1.06598
2.97277
0.296762
-4.43368
-2.0668
-4.35317
-0.179724
2.4821
0.577954
1.48131
2.79268
-0.211794
1.73001
1.02912
2.47604
0.494896
1.71156
0.248649
0.598616
2.05611
1.24976
1.72382
1.26448
1.78936
0.360687
1.61821
-3.63371
-0.174157
1.36592
-3.82318
-1.17283
0.766523
0.285498
2.95999
2.94524
-7.26523
-0.281001
-7.46114
-2.78912
0.574391
2.48897
0.0185715
1.5506
1.3672
1.0125
-0.221768
0.20193
2.73364
1.62707
1.05817
0.575736
-5.39208
2.63571
0.226634
-2.66142
-0.124595
0.0498269
-4.43928
1.76998
0.294292
0.558646
-0.215478
1.481
-2.85575
1.71825
-0.860645
0.19335
-1.99243
-0.218234
-5.73404
1.91883
-0.36144
1.44129
0.423312
1.59965
1.87892
1.19728
-2.66493
2.06561
-2.76941
0.555019
-1.05378
-4.78452
2.91529
2.18956
1.55275
-3.65379
0.526175
1.4976
-5.53745
0.293174
-1.35622
1.56081
-0.415807
-4.62915
0.0975003
-1.4066
-0.0524455
1.45605
2.92806
-1.73476
0.707422
1.46288
2.20412
0.0792588
0.894649
-7.71437
-4.59473
0.0394309
-0.98746
0.138843
1.4266
0.0284387
-3.74527
0.0172128
1.57476
-1.7293
-4.33258
0.0505442
0.900215
1.29306
-2.45224
1.92424
1.71668
1.17769
-2.41113
1.42
-1.41159
-2.77237
-0.702844
-3.66784
1.43045
-3.40271
0.966772
1.5869
-2.24572
-3.32137
0.193317
-10.4587
0.641284
1.48471
-2.60399
2.09936
-0.107849
2.91635
-2.24376
1.92951
-6.25859
-4.57848
-9.17952
-4.89844
1.90198
-3.70608
0.525852
-0.955006
-2.23766
1.44078
-2.16756
-3.77165
2.1991
-2.79396
0.934872
0.835472
-0.583473
-3.19926
1.15962
0.175206
1.65692
0.392511
-0.967088
0.3085
1.52613
-2.70101
-1.21634
-0.337979
-2.74516
-4.50344
-0.00131032
2.32416
-3.57325
2.2322
1.64842
-6.68997
0.869541
-3.77836
-7.66648
-3.74913
-3.84248
1.1922
0.955123
-2.74918
-0.329518
-4.69914
1.56542
1.7785
0.483388
0.790771
1.42369
2.97252
-4.93272
-0.925936
2.45252
-5.67443
-1.36953
2.90968
-0.267209
-3.0535
0.0089801
-5.12488
-4.30362
1.40072
0.595104
0.430698
3.29991
-8.443
0.0444078
-3.96671
-0.163745
0.316825
-1.42924
-4.60753
-2.68033
1.44053
-0.252122
-4.84421
1.82419
-2.45419
-4.48411
-0.246974
-3.54693
3.32046
-2.92014
-1.6775
1.70832
-0.0880212
-3.93174
-1.21318
-3.38057
-8.73659
2.2149
-3.57544
-1.44919
-3.67297
-1.08657
1.74973
-4.49902
-0.58551
-4.98596
-3.99278
-0.352002
-6.37067
-3.96203
0.699136
0.406674
-4.25015
1.51561
1.93439
3.2969
-0.627783
1.7846
2.56928
-5.93215
0.238515
-10.7871
0.800501
-0.461369
0.387831
-0.390558
-0.305869
1.17649
0.795763
-4.90646
-4.7388
2.90956
-1.39087
-7.71873
-0.180393
1.75267
0.900548
1.04533
-2.51961
-2.26731
-0.15412
2.11231
0.562552
0.128689
2.66934
-0.870013
2.52679
-6.86093
-5.04976
-0.802749
-1.26569
-4.74868
-4.5814
2.5914
-2.478
-2.22747
2.62861
-1.21953
0.0596678
-0.066366
2.875
-3.71761
2.32158
0.350536
-0.103006
0.356566
-4.61879
1.08437
-0.663461
-0.105097
-9.00515
1.33382
2.08502
-6.30592
-0.251684
1.88186
2.8269
-4.91045
1.80684
3.2925
-2.27046
0.957437
-1.11668
1.66712
2.41447
2.10458
-3.54246
1.44322
0.489184
-6.01403
1.34429
-0.267163
1.82918
-3.70383
1.52139
0.865141
-0.402991
-0.035598
0.461517
1.49995
1.94952
0.225032
-6.69812
2.76408
1.76736
2.19876
0.301395
-0.957057
-0.126762
-0.30448
2.68883
2.94379
-3.17731
1.78938
-5.66642
-5.14618
-0.126905
1.53166
-3.76401
-3.74786
-6.1688
-6.88213
-0.423145
0.700533
-2.13782
1.59662
2.05141
-3.73689
2.09188
-0.00365756
1.66666
-4.66338
-7.63541
-0.1111
2.82576
-0.608041
-1.81262
-1.26781
-3.70776
1.40653
-1.8643
0.73529
2.60093
-6.90075
-8.3002
-3.34914
-9.0672
-3.79228
1.99924
-0.67734
2.88404
2.76474
2.56972
-7.23816
-4.68903
-3.62669
-3.80812
0.247839
-4.66612
-4.42961
-4.56173
-7.66485
2.16403
-4.59317
1.81703
-6.74687
2.53534
1.49673
-4.95938
0.317055
-3.84111
3.21354
-0.479542
1.35863
-1.92294
-8.63399
-6.68255
-8.1801
-4.07694
2.11944
-1.01197
-1.00319
-4.56808
-4.57151
0.868625
-5.16974
-0.437519
-0.0269783
0.404567
0.460584
-9.26724
1.98959
2.57115
-4.81404
1.00971
-7.09121
1.88384
-3.74979
0.24153
0.974431
-6.23027
-0.0796309
-4.58468
-0.885634
-7.82018
-3.15667
1.78475
1.17078
-3.49607
-0.279133
0.921836
1.42879
0.0515364
0.438115
-8.83252
3.26758
1.02627
1.95708
-0.277729
0.866955
-4.79486
-9.94182
-0.224414
-5.15424
-2.74283
2.66607
2.3417
-3.69629
0.873242
-4.81537
2.35959
0.58955
-4.58811
-4.62502
-4.54177
-3.78412
-0.0789242
0.204289
1.72728
-1.12057
-0.116092
-4.62727
1.24029
-3.2731
-4.75953
2.11148
0.768813
2.71873
-0.836729
1.85369
2.0699
1.91014
-1.32698
1.72136
-0.544331
0.389592
0.533239
0.237067
0.901655
-4.61146
-4.79969
-6.38892
-11.0617
0.87683
1.47287
0.607082
-4.64081
0.311076
3.36267
-4.7122
1.83563
0.0195075
2.59957
-4.14525
1.64659
-2.4758
-9.12025
2.7923
-1.84054
-3.74548
0.825987
2.89084
1.78357
-0.499351
-1.17596
-1.73489
-4.37532
-2.85305
-4.75327
1.86722
-4.93138
-2.5707
-4.59145
1.13883
0.0237583
-3.85211
-1.2969
-4.72952
1.16877
0.157675
1.62469
-4.04655
-4.15006
2.61951
-5.04762
-3.19933
-4.5016
0.317766
-4.59421
-4.69393
-6.51232
-0.401781
-0.0419057
1.47392
-4.79868
-7.11967
-3.87401
0.10155
-0.00708392
0.301988
0.0731012
-4.59187
1.5455
-0.576529
2.58602
2.10959
0.591205
2.09017
0.733716
1.51929
3.08241
2.05945
-8.32056
-8.00142
-0.11279
-7.76036
-0.704359
-6.51358
1.83132
-4.06526
2.37035
2.4737
1.56008
1.53448
-7.89321
0.771071
-2.42027
-0.257826
2.65477
1.87166
-0.2098
-0.00452142
-4.5738
-8.99616
-0.53556
-3.93325
-2.22831
-0.370028
0.0571864
-5.55637
0.47173
2.74242
1.66123
2.0472
1.87841
1.95463
-0.0477446
-0.561057
-0.820484
-4.72442
0.62373
0.360059
1.28245
1.22056
2.84132
-3.57716
-0.983037
0.154312
1.6947
-2.86514
-0.0580603
-4.43587
3.17631
1.67048
-4.65265
1.51285
-0.571307
-10.8748
1.48084
1.86748
0.894413
0.624751
0.618122
-2.31807
-0.124701
0.296685
2.66454
-1.01036
2.37417
-5.47059
-3.68655
-6.22487
1.39914
2.05789
-2.36025
-0.0934377
3.1576
0.565709
1.31915
1.35671
2.93972
0.329765
1.76634
-0.075579
1.86412
-0.228631
-0.433577
2.37788
3.26945
0.463646
-5.49216
-0.0370006
-1.2332
-5.09782
1.82756
0.966939
-2.5491
1.47732
2.01661
1.44987
1.58509
0.075128
1.81155
2.39555
-1.88685
3.0089
1.97548
0.774586
0.00825709
-0.896644
0.041262
1.66229
0.448512
1.7855
1.97364
1.54531
-7.82823
-9.91042
2.03376
1.14344
2.33376
-0.383061
1.52769
1.838
1.12536
2.09018
2.14876
-0.179985
-0.0917587
1.56971
2.09089
-2.04425
-0.91712
-1.68039
2.10563
0.400248
1.83305
2.93164
-6.72311
2.84256
3.12088
-0.168256
-1.39827
-0.154936
3.33539
-3.46871
1.99431
2.95818
0.795939
-4.59247
1.02337
1.21505
3.10453
1.17303
1.19166
3.22021
2.39084
-0.0559381
3.19672
2.59401
0.0148296
-4.41267
-4.51869
0.0135388
0.432261
1.91984
2.56013
-3.64032
-0.286162
1.13708
0.538598
2.3297
-3.68595
2.79432
-2.55298
-7.63462
1.31522
-2.16989
2.10285
-0.575464
1.28462
-5.84235
2.56667
1.66911
1.71785
1.76156
-11.625
-0.130732
-0.250531
0.894236
1.00078
2.72627
1.84057
-0.0101534
1.0608
0.471812
-6.02691
2.53781
0.00987761
2.09477
-0.0548008
-0.0610296
-7.29255
0.352819
0.833522
2.89167
-0.0300764
1.1327
-6.48503
-4.29388
2.44814
2.45782
-6.69613
2.38897
0.753045
-6.8492
0.317895
0.945847
3.29324
-0.315764
-2.48717
2.14838
-0.541576
1.9096
-4.56001
-8.15344
-0.0743711
-4.54349
-4.69885
0.41013
1.7719
-0.283984
-4.73713
0.010951
-0.0477794
-2.10165
0.972834
2.76217
1.40663
1.25782
-2.21621
-2.59013
0.157161
1.24511
-1.33462
0.00893472
0.0403361
0.000142654
0.286966
1.34187
0.674211
0.861338
1.32798
1.01609
-1.46575
-4.17648
0.270478
-1.75478
3.1599
1.18215
0.766958
-1.92318
-1.16036
-0.648014
-0.247843
-6.26719
-3.18452
-0.70628
-1.27978
1.77516
0.30843
-0.0374442
1.90497
-4.66484
-0.464355
2.70961
-2.69899
-2.13815
0.552292
1.66388
-7.3213
0.398724
-7.92971
-0.137361
-2.76875
-1.60946
1.98738
-6.93721
0.921973
-0.0215918
-7.64104
-8.31525
-0.647191
1.51738
0.2396
-4.92475
2.69908
-4.7924
1.76152
-0.571243
-2.9334
-1.82422
-1.10499
-4.46287
1.59201
1.65506
1.71001
-0.103375
-6.43665
2.41794
-9.03255
-2.40067
0.00918212
-6.69923
-0.130703
-0.0146354
2.42935
-4.49696
-3.80722
-5.45917
1.26228
1.16802
-9.36522
1.07835
-0.0917069
-0.722398
0.54091
0.943707
0.62344
-0.175615
-9.83425
2.584
-0.207558
-0.00838605
0.910339
0.0139401
1.27866
-9.23462
-0.759944
-2.68349
1.31444
-0.194643
-0.183409
0.734452
0.00835453
0.220305
-0.24617
1.72923
-0.276003
-1.54759
1.47688
1.56454
-0.18236
0.92014
0.924202
1.70382
2.05732
1.78314
0.301531
2.82368
1.3076
-2.1202
1.08435
-8.209
0.0806265
0.0104784
0.768825
-0.406863
2.832
0.476143
0.428316
-0.506884
0.668414
-1.64623
0.524684
-4.48297
1.28957
-1.16565
1.52386
1.00001
1.69636
-7.46006
2.13853
-5.31716
1.5874
1.77144
0.638646
-2.38392
-2.34385
-3.60984
1.88707
-9.64969
-3.77057
1.88918
0.984129
-0.165801
1.94202
1.4242
-1.15216
2.60287
-1.56284
0.109167
-2.08172
-1.60213
-0.176091
-0.576146
-1.79182
2.85625
0.00316726
0.641512
-0.813603
-6.09101
1.82279
2.13566
0.0122326
-0.0168518
1.605
-4.33139
1.43067
1.68295
-0.653845
-0.736898
1.03476
-0.138092
2.89595
-4.74007
1.36561
-0.199572
-1.13605
2.82838
1.75413
0.374927
2.2897
-5.83749
2.07539
2.04443
0.0936264
1.60527
1.44523
1.33023
1.64166
-0.988872
1.77467
-0.111894
0.718884
0.00723452
-3.76472
1.8475
-4.6219
-4.55838
-0.00531689
-0.299164
1.13525
-4.46133
1.49939
0.423115
0.896618
1.54977
1.21964
0.246615
0.145172
-8.23122
1.672
0.795628
-5.06269
-1.81902
-1.71002
1.68398
-5.32423
-5.95754
1.51437
-5.66427
2.00684
1.10779
-4.91225
-4.63321
1.87832
2.14263
-1.30761
1.4635
-4.59457
-1.36399
-4.5453
0.443123
-1.17447
-4.56482
3.08381
0.643138
-4.39792
0.0252272
-0.982941
1.64169
0.84782
-2.23142
-4.5414
-5.76924
-6.76426
-4.54891
1.11583
2.5546
-0.371435
-10.3104
0.0191687
-4.56115
1.98559
3.11886
-5.00105
1.04241
1.63782
-4.55951
0.505158
2.80627
-3.13816
-2.35826
1.3685
1.47971
1.29924
-1.19314
0.838382
0.00927148
0.91232
-2.00305
-0.00526941
1.66656
-0.705534
0.355384
0.912813
1.56567
1.0375
-0.0241898
0.829764
1.67603
1.28773
1.40061
2.91169
-1.70624
2.73013
-0.163973
2.66554
3.26286
-3.01272
0.124088
0.484894
1.58165
-3.59888
0.830419
0.946579
-0.0759343
1.70464
2.35864
1.77105
1.82813
0.639862
1.01677
-8.75303
3.18829
-5.00328
0.186969
-5.502
-1.01234
-6.3232
1.68276
1.8247
1.01218
1.91446
-2.14731
-0.0108277
2.00056
1.46727
-0.125725
-1.26968
0.0967837
-0.150659
0.470982
1.73518
3.05826
1.59539
2.16091
2.07521
1.7306
2.92392
1.14378
1.62974
0.276921
-5.90489
0.675779
1.18541
1.15235
3.22321
0.319484
0.788866
0.00188593
-0.0503237
3.0845
1.04184
-0.43939
-6.99213
1.26609
-1.61395
-0.21935
2.25199
1.74338
1.39732
1.82298
0.0328619
2.42014
-4.10851
1.37441
0.400769
0.252419
0.172865
2.53597
0.28587
0.0439663
1.68573
1.48238
-3.82269
1.53338
2.6129
-0.502116
-6.31476
-4.8259
-3.8546
-0.866263
-5.72309
-0.51962
1.52909
0.560075
-0.00262082
1.65979
-0.176695
-0.805355
-0.954558
-3.44868
-3.84087
0.233774
-4.82127
-4.64781
1.5676
1.57194
2.17486
-3.33141
0.75274
-0.280415
1.55814
2.57382
-5.85113
0.0185354
-0.110023
2.64619
1.19336
-3.30681
-1.0828
-3.83226
-0.0263579
-0.0348866
2.81395
-0.116221
0.00119638
0.800612
0.532578
0.00992547
0.99817
0.265922
0.730885
-4.75001
-6.0686
0.336244
-4.74916
-0.154929
0.627902
-3.49675
1.81384
1.1394
3.00218
0.604085
2.73516
-0.592197
1.90557
-0.992924
-0.210496
-4.81992
2.46889
-0.0878872
0.372696
0.315277
-2.98528
-5.25487
0.0116527
0.024308
-0.201103
-0.375106
-0.239271
0.149011
1.12625
1.99766
-4.25573
-0.0614512
0.162031
-0.348463
-0.0111774
1.77501
0.326967
0.931826
-0.250349
-0.0939116
2.28244
-3.42157
0.686217
0.00201623
0.0274171
-0.954109
2.23792
-2.63514
-0.167128
-0.155938
-5.06689
-1.23003
-0.186037
2.66532
1.99678
0.00620008
-3.53268
-11.0703
1.6683
-0.307561
-0.431001
0.00252871
0.623961
-0.0359239
-0.110963
-1.37584
0.00482196
0.754026
-0.835157
1.63526
0.214462
-1.80228
0.346934
0.704361
0.0513318
0.0582993
1.68352
0.291322
-0.605695
-0.773348
-0.240482
-4.42895
-0.173877
1.70618
-3.50601
-0.890217
-0.0447353
0.00912388
-1.54085
0.0522935
-0.181619
-0.0339278
2.38727
1.19744
-3.77379
-0.173963
-6.2172
-4.1117
0.0240523
-0.214187
1.77366
0.803098
1.37473
1.56322
0.0374262
-3.3847
-4.58689
-3.73346
-1.83527
1.85072
-0.165034
0.597467
-4.61507
1.93374
0.022545
1.76673
-0.162349
-0.0878037
2.19264
0.0237405
-0.000609254
-3.67311
2.32554
0.350679
1.50853
1.67662
-7.39876
-0.0224233
1.59129
-4.16526
2.27017
-1.1593
2.2074
-3.08817
-0.177718
-0.0804869
1.71766
2.14296
-3.11582
1.45161
0.755747
-0.225673
2.46892
0.671914
-7.12806
1.60551
-0.142023
-0.391997
-1.45427
-7.93859
-0.148596
-5.18521
0.00184451
1.49976
1.24346
-0.199195
0.029569
0.811624
-0.41993
1.57918
-2.53604
0.0189835
-1.11512
-0.755029
-0.103222
-0.609213
1.30158
0.128373
-0.124443
-3.99176
1.71921
-0.184691
-3.41326
-0.211976
0.480843
2.639
-0.0163419
0.000631752
1.12554
0.23494
-0.306931
-0.0928952
-2.57457
0.260722
0.0292815
0.206249
1.74396
0.00489809
-0.17033
-3.63348
-0.102875
0.0190746
-0.46705
1.67578
-0.502488
0.0146118
0.335287
-3.80894
-0.305426
-0.087203
0.958127
-5.37649
0.134912
-0.0198576
-0.167308
-0.168753
0.0163861
0.0139444
-9.39163
-0.997736
-1.95481
0.565795
0.879489
-0.317519
0.794637
0.87165
-0.112119
0.0166402
0.87155
0.141552
0.0185338
-1.37311
-0.112319
0.402893
-0.781181
-6.52055
0.0163692
0.488753
0.0710985
1.09437
0.996546
-0.124246
0.394051
1.68253
0.00901826
-5.80275
-0.0828429
-2.71021
2.14708
1.5978
0.0322606
-0.0315477
-0.166076
-0.0314392
0.0176649
-0.158632
-4.74132
-0.117244
1.56609
0.208415
-0.0860983
1.62496
-0.0609561
2.53637
-0.172884
0.158604
0.112738
-0.18154
2.29043
-0.0646673
0.0288154
-7.84395
0.033341
1.20694
0.684474
-0.119489
1.67152
-0.203967
1.21127
2.12251
0.828169
0.99046
-0.100274
0.945496
-0.000282533
0.360877
-2.89728
-8.2018
0.0104577
2.03879
0.641234
1.45659
0.875381
-0.00236869
0.0308115
0.00515578
-0.1303
1.08561
-7.01267
0.0260563
0.00932797
0.0165009
-0.138002
-0.430224
-6.92482
2.69622
-9.05507
-4.6005
2.54845
0.000507959
0.0206635
-0.0400975
0.0112779
1.4169
0.0242264
-0.0494527
-3.75359
-8.69364
0.146295
1.6868
0.0250108
0.0267982
-0.632977
0.0116792
-0.220221
-0.0900115
-0.0771023
0.0279322
1.67452
-9.73305
-1.97547
0.771481
-0.217586
-3.73001
-0.114875
-9.60834
-0.0230977
1.69687
-3.7885
2.06237
-0.256768
0.021315
-4.59243
-0.170615
-0.258007
-0.126927
-6.98108
-1.77832
2.56908
-4.90246
-2.7438
0.00665102
-2.42027
-0.0142645
-0.00466398
-4.33658
0.00940177
-0.0895349
-0.312629
-0.087609
0.0367709
2.04403
0.441504
0.00454732
-0.0688376
-0.0506941
-9.03584
-0.134928
-2.84227
-0.144818
-0.298629
1.93383
-0.0158709
1.68105
-0.00385811
-0.0511747
-0.0233259
0.00475313
0.017753
-3.73941
-10.4111
-0.195593
0.908221
1.36188
0.717274
-0.0302565
-0.0492101
-0.0118801
1.91273
-0.102495
0.265642
0.943607
0.00915027
-0.0595998
-0.0309046
-0.0639484
0.00135034
-0.00444155
1.69939
0.00244742
1.19803
-0.0269735
1.67144
0.0339941
0.99247
0.00818934
-0.0268028
-4.6042
-0.0560718
-0.0922964
-0.386034
-0.134831
1.32619
-0.0364783
0.405102
-0.176757
-0.153935
0.323176
0.0394533
-0.106241
-7.94692
-4.57215
-0.0493651
2.09372
1.56919
0.0117719
-0.107726
-1.53819
0.0299133
0.405574
-0.0674531
-0.000579508
2.27091
0.116391
0.0318804
0.00645035
-4.19078
1.67626
-0.668388
0.0508952
0.0073786
-4.78991
0.0871685
0.0310313
-7.13543
0.778795
1.09349
0.00428232
-0.144645
0.00362697
1.6241
0.000856055
0.0168516
-0.0147736
0.0340131
-0.501744
0.0295108
0.0371884
0.00488523
-0.106541
0.0249055
-0.00473555
0.00630968
0.0251367
-0.381949
-0.0687645
-0.0397228
0.0476018
3.01537
-0.0714687
0.0553535
0.00696439
-0.64793
0.642445
-0.0543394
0.0475538
0.292536
0.0288416
-0.0308758
-0.0290437
0.0049388
1.64956
0.01102
-0.0605132
0.0540635
0.0147215
0.0202524
0.062442
-0.0807616
1.82688
-0.17305
-1.62156
1.30116
-0.0233562
0.0224087
0.0218103
-0.129089
-4.57586
-0.217932
0.236545
-0.0105959
-0.112125
0.0197746
-2.53555
1.80706
1.83655
0.0106418
-0.0728419
0.0112516
-0.0296622
1.63346
0.0047494
-0.0624658
1.72554
-0.0134131
1.7218
0.040662
0.0105556
-0.165551
0.0403676
0.00258966
2.04701
-0.137791
0.00268001
-0.443817
-0.498183
1.56294
2.32221
0.00483364
-0.36984
0.0215383
0.0214389
0.00221177
1.60298
-5.81515
0.00331088
0.0234376
-0.0520745
-0.0743586
-0.0466716
0.0449646
-1.67623
0.0014752
0.0330406
-0.950513
1.6551
-2.95857
0.0327454
-0.0562535
1.15027
1.20341
0.0228825
0.00325115
-4.5486
-8.65574
0.00967708
0.0234934
0.00472134
0.0177652
0.00318175
-4.35885
0.0124057
-0.0400271
0.02436
1.71791
0.00443596
0.028361
0.0124208
-2.06266
0.00401634
1.54198
0.00741339
1.89789
-0.101424
-5.00137
0.0209601
0.0296329
0.00578274
-0.0700589
-0.0281618
0.020819
0.0363564
0.0259266
0.00392011
0.00727418
-0.0226887
0.0215776
0.0290976
-0.0397327
1.70797
0.0421502
-0.665213
1.97612
0.00423561
0.0249906
-1.27981
0.659169
0.0143945
-6.52249
0.0154239
0.0284238
-4.53979
-0.0606863
0.0219886
-0.599932
0.0255809
-0.838139
-0.480377
0.00187845
-6.29893
-0.200789
0.0259459
-2.22161
-0.479583
0.0201105
0.015569
0.0352161
0.146977
0.0310525
0.0343151
0.395719
0.00984563
0.0145779
0.0284831
-2.96995
0.0050361
0.00782371
0.00179266
-0.0944735
-0.0663631
0.00616996
0.00893808
-4.28242
2.63863
0.0289781
0.00340585
0.0456023
-2.85763
1.87587
-0.143038
0.134222
0.00245779
1.89624
0.0102104
0.563242
-0.040675
0.00269432
0.0196314
-0.334966
-3.73548
-0.11048
0.303068
1.39572
0.0271545
0.00185783
-0.146468
1.82626
0.000187198
0.0308396
0.0125112
-0.130245
1.46406
-0.207164
0.0311282
0.0122341
0.000587301
-0.00336541
0.0288128
0.88256
-0.160487
2.20743
0.00772105
-4.22934
-0.326209
2.43059
1.0972
-0.0123949
0.0180641
0.0306717
-0.0320732
1.55366
-0.331205
-0.0194609
0.0336861
-5.08733
0.00110011
0.0329796
0.0316821
3.15607
1.10021
1.61827
0.00162423
1.69396
0.00609804
-10.7019
-5.28757
2.12072
-5.9492
-5.59961
0.0181387
1.19633
-0.238345
0.00192945
-0.638311
-0.28027
-2.09054
0.350616
-0.632463
-0.0348606
1.68371
-0.119261
0.287385
0.0265805
0.0240777
0.0322255
1.75636
0.0154821
-6.90227
0.0393295
-3.83111
-0.00186211
-0.0166243
0.0191633
2.69005
-6.2686
-0.347613
-0.0879141
0.0309709
0.0318916
1.18136
1.66568
-0.0821379
-0.0100106
-4.70672
0.00487645
0.767369
3.00048
0.926024
0.238185
-0.607245
-0.199444
0.00569891
0.518109
0.0346577
-0.0478289
0.0111689
0.748961
1.61265
1.48352
-4.9072
1.03484
-0.0323836
-0.0636038
-7.19825
-0.0209893
0.000206029
1.80429
-0.150643
-4.58733
-0.00314644
2.58894
-1.06487
-0.328059
-0.3237
-1.23844
-0.0851864
-3.90762
2.77864
-0.796744
-1.73579
-4.5369
-0.136646
0.0217028
0.26185
-0.535023
-0.154942
-1.68524
-4.62105
1.69479
-0.0679403
0.0195814
-0.0124123
0.880648
-0.167272
-4.59841
0.000449652
-0.793824
3.11511
-0.0074955
-4.54515
2.81691
0.00481215
0.0150074
-0.671614
0.00767374
1.83169
-7.60894
1.58235
1.67019
-0.454103
-0.236748
1.68433
0.896127
-0.605353
-1.2514
-7.37973
-1.61512
1.78052
-0.0073496
-1.24239
-4.42121
0.41369
-0.836602
-0.10345
-0.546601
1.64134
-0.491208
-0.0180435
-4.16014
0.00875556
0.0126197
0.0360131
-4.55257
-10.5803
-0.0123407
-0.00813037
-0.0389555
-0.870037
0.0331016
3.00711
0.0352818
-7.2127
0.452876
0.0124731
1.67315
-0.156621
1.67462
0.03844
1.49747
-3.56742
-0.00771887
2.39591
-0.872159
-1.95787
1.93325
0.255013
-0.128527
-0.141451
1.70351
1.74089
0.0470838
1.80498
2.79214
0.983617
1.85587
-3.1085
-0.0490775
2.50366
-4.27493
0.499359
-0.662373
1.61425
-1.71371
1.87301
1.78306
1.95983
-1.51165
-0.0745385
-0.601087
0.011001
0.00790122
-11.094
-5.28294
-0.0436935
0.0148218
-3.96664
-0.560123
-0.424991
0.183463
2.03894
2.20708
2.11583
0.000827304
1.09648
-0.160669
0.536192
-0.00174938
-0.778493
2.9288
0.0239582
-0.309053
0.0942225
-4.68325
2.31548
-0.259505
-0.689509
-3.38385
0.0521612
0.277217
-1.35679
-6.27243
1.22468
0.0261564
1.25392
1.75659
-5.98204
-3.12784
0.0891155
1.6882
-0.97037
0.00671642
-0.057264
0.00809066
1.33129
0.172303
-0.172575
3.28204
2.37564
-0.17217
0.00285767
-4.11899
2.67667
1.43456
0.110691
2.94952
0.0124018
1.5343
0.66662
2.74598
0.173339
-5.02844
1.0658
-4.56924
0.00343095
-0.291946
0.118456
-6.44118
2.81813
0.120899
-0.152148
-0.0681265
0.255255
0.999132
3.11052
-0.16362
-0.166897
-0.872683
1.27641
-0.323935
0.0732242
0.395285
1.49639
-0.973834
-0.24049
-3.99248
0.0990929
0.481146
1.45691
-1.00866
2.75037
-0.17958
-0.19566
1.70756
0.0183318
0.000357385
0.00571761
-0.618024
0.919773
0.0127435
0.682175
-1.98277
-0.150077
1.34129
-4.69719
-0.157451
0.0448855
-0.160489
-0.194106
1.34002
0.0271808
0.0275224
0.0013494
-0.362402
-0.139725
-0.421101
-3.62326
-0.0264813
0.698647
0.252205
-0.123473
0.301349
-0.458243
-8.2593
-0.18101
1.68638
-0.459895
-0.138831
0.067697
-0.394601
2.41525
-0.158691
0.578046
0.113252
3.22691
3.01349
-0.964608
-0.402951
-3.7238
-0.00137973
1.43739
1.6898
1.59995
-0.113903
0.00650964
0.031025
2.6107
0.125166
0.124084
0.441011
-2.14419
0.219868
-0.0899321
1.44172
2.55058
-0.836084
-0.580638
-0.188581
1.37168
2.21191
-0.482172
0.539454
-1.10572
3.05673
0.00204777
-0.424843
1.1596
-0.0396388
0.00900644
0.0134011
1.63494
0.0068694
0.00169962
-0.611013
-3.62911
-0.185121
0.00159008
2.50317
0.877906
1.93653
0.0208861
-0.71262
3.19792
-0.172934
0.0373625
0.742636
-0.476451
1.28113
1.48027
1.71863
0.0088342
-5.7353
-0.752787
1.65367
-0.601447
0.0109871
-0.892036
1.64634
0.341633
0.0162428
-0.223663
0.464642
-0.321599
0.017257
0.0276477
-0.12227
-0.518174
-0.111185
1.25605
2.55493
-0.215879
1.91793
1.39585
-1.83273
0.00991886
-9.4583
1.6348
-0.780411
0.0749672
0.0607201
-0.0882847
-0.149412
0.10806
3.21522
0.00702537
1.77817
1.17069
-0.177282
0.0285501
-0.319888
-0.108009
0.444058
-0.386543
-0.367
1.05298
-0.116969
-0.414272
1.99702
0.35514
0.368185
0.175069
-4.11509
0.0719575
0.698606
0.0984265
1.19802
0.0885237
-1.41878
2.33875
2.00592
-0.0184019
1.36265
0.0101178
0.836235
1.6185
1.77786
-0.363643
-0.545181
-3.55494
-0.025063
1.64584
-1.66562
2.25225
0.0177707
0.836781
-5.72894
-3.74484
1.65281
-0.468548
1.65433
0.384142
0.138845
0.0681235
0.23139
-1.25202
1.28683
0.433457
1.67572
0.445924
2.19555
2.35454
-0.275297
2.08205
0.0954878
-0.0024875
0.724666
2.299
0.739536
-0.914753
1.755
0.377099
0.121044
2.24029
1.51639
2.1757
-0.197782
-0.245118
0.0589653
-4.78025
0.24883
0.156106
1.35469
-8.1966
1.86154
0.0021629
-0.659202
1.3633
1.77568
0.289523
1.63381
0.0391362
-5.08418
-0.587839
-0.203584
-3.89318
1.02277
1.05143
-7.40185
-0.561886
0.279013
-0.0364875
1.07479
2.27407
2.48804
0.676033
0.503266
0.0645613
0.352266
1.43407
0.00753276
1.93259
-0.411269
-0.177147
-0.823213
-0.636875
1.01242
1.74356
1.95589
1.24215
-0.0838602
0.0384888
1.64205
1.63136
1.72905
0.005049
2.08325
0.980724
1.68472
1.04741
0.0568963
0.129411
1.66437
1.51999
-11.8131
1.7315
-0.300302
0.391789
1.37872
-0.542064
-5.75968
2.68642
2.07123
0.111833
1.55719
0.602723
1.12911
0.0722992
0.0654969
-0.157863
-0.210605
-0.503287
-3.29989
0.335628
-0.850351
-0.295042
1.6438
2.3792
0.10732
1.6781
0.156521
3.37226
-1.86952
1.93962
0.0778926
-3.69625
-4.79834
3.41773
0.260386
-0.214421
3.40108
0.110944
-4.51063
1.59383
3.37086
0.0967534
3.32178
1.00356
0.0854123
-4.30165
3.22071
-0.224385
-0.177661
-4.13003
0.34102
-0.0482151
1.88922
3.06546
0.0120674
0.460812
2.01008
0.347312
1.69415
1.45178
-0.597169
-2.83715
-3.94127
3.01194
0.541506
-3.16932
0.262434
0.107838
2.96413
1.16007
0.0638248
-3.52698
2.91305
-3.5135
-3.86761
2.86271
1.96426
-4.20322
-2.65417
-4.73508
0.830597
2.01019
-4.62827
2.78305
1.66249
0.120895
-4.90351
2.20319
0.415894
0.340295
-0.959176
-6.83321
1.56588
1.66481
-1.50437
1.6826
0.186317
-1.47853
-3.91594
2.64026
0.997915
1.47901
-0.873944
-5.78943
-6.01167
-6.18209
-6.30882
-6.38629
-6.35724
-0.519422
-6.30796
-5.97084
2.10484
2.59532
0.988347
1.07808
0.291272
1.26787
-5.83404
2.56019
0.000182859
-5.67239
2.07621
-4.42147
-5.47873
0.031799
2.46332
1.5397
1.06126
0.643857
1.66915
-2.86501
-5.31321
2.42725
-5.16528
0.055319
0.298919
-4.64469
1.60977
2.3828
-0.205145
2.07327
0.0424361
1.38705
-5.01205
-0.636652
-0.0993179
2.33898
-0.785514
-3.75626
2.29532
-0.14255
-1.45138
-0.779063
-4.71976
2.25676
1.6394
0.525623
1.67434
0.399747
-0.0555748
-0.0247372
-4.66813
-6.07729
2.20784
0.647421
0.0352887
1.74822
0.741507
-10.6094
-0.718753
-4.63185
2.16867
-5.69647
1.64332
-0.155488
0.020704
-4.60827
2.12331
0.877281
-7.37563
2.07247
-4.59502
-0.183894
-0.558356
-3.74609
-0.286924
2.03687
-4.5911
1.97545
-4.59951
-2.06887
1.15304
0.00527437
1.02654
-0.0131238
1.92808
-4.59608
0.854238
2.62012
1.74654
-4.60685
-9.0142
1.88822
-1.33887
-3.62882
1.4879
-4.59146
1.65644
1.84954
-0.0230805
0.260057
-1.77309
1.66443
1.21733
0.0920129
0.0422605
-4.56012
-3.74887
1.79414
0.482968
-4.14434
0.423786
-5.34937
-2.55981
0.0468659
0.857963
1.75075
2.33421
1.6233
2.504
1.73245
-4.45533
0.959456
0.250713
-5.25976
0.893034
-0.0172741
0.0557016
1.03734
1.4224
-0.220676
-4.35673
-5.42893
1.65623
-2.82433
-0.483417
1.98491
1.46932
0.139887
2.86015
-12.1423
0.535159
0.334518
-4.23618
0.383065
-2.51297
1.59873
2.01213
1.81689
1.17928
-4.09858
1.54214
1.47482
1.43322
1.36468
1.31237
1.23583
-3.58776
1.49525
1.17465
1.83893
1.03974
-6.95764
2.34489
-3.96547
-0.825055
-8.01276
1.33205
-3.74454
2.23105
-3.85648
0.433416
-3.77324
-7.95883
-3.71458
1.64812
-1.08708
-0.261662
-3.67411
-4.19202
-4.54544
1.70777
-5.10645
-3.68618
1.77211
1.74962
-1.10048
-12.0708
1.87932
0.333367
-9.37319
0.153061
0.743232
1.59501
-2.74729
0.120479
-5.76368
1.8771
-2.55746
-2.18376
-6.188
0.999244
1.6845
0.178976
-4.61038
0.806853
1.93773
1.23892
-4.80061
1.65955
0.68534
1.32761
-0.468002
1.69175
-1.10795
0.0100692
-0.00233846
0.842513
-3.01471
2.44757
0.363397
0.0138398
0.314362
-3.73217
2.17499
1.78875
1.56927
1.71084
0.288474
0.0836562
0.2215
-1.89225
0.65795
-0.794595
0.120636
1.29055
-3.4584
0.367019
3.04345
0.0068743
0.963204
1.00544
-8.43984
-0.0429313
1.1543
0.0955827
0.846939
1.373
1.66504
1.72959
1.69853
0.126484
1.95946
-3.74955
0.0227676
0.394296
-0.546826
-0.572344
-0.0153506
1.88927
-7.69399
1.62042
-1.40249
-7.16541
0.367084
-2.74156
0.292209
-0.591269
0.327523
1.83729
0.272297
-0.676364
0.0251614
0.521124
0.0383264
-3.21926
0.00789639
1.61265
0.156269
-2.6712
1.31343
0.223077
1.33069
-2.23297
0.14111
-0.112114
0.0221081
0.34926
-6.54707
0.285122
0.0244545
0.0510041
1.06606
2.48106
1.02329
-3.19371
1.6768
-0.362034
1.35364
-0.0346349
0.0381706
1.32539
-4.7272
0.014224
-1.27878
-8.61321
-4.72028
1.67207
-0.268462
1.96354
0.319045
0.00499452
2.59377
2.43494
-2.69323
0.653021
-2.44157
-1.25384
1.89434
-1.96093
0.182068
-2.71351
-0.203173
-2.66871
0.420338
0.90802
0.196142
0.00713096
0.0365907
1.6425
-8.45684
-3.85213
0.933752
0.647051
2.42058
0.15905
0.747311
2.55396
2.59527
-0.00577677
2.29486
1.35107
1.68596
0.396418
2.23692
1.78471
0.622031
-0.582609
-0.0070308
1.35484
1.33294
-0.00266353
0.00867685
-2.31117
3.13791
1.40405
0.718301