/*--------------------------------*- C++ -*----------------------------------*\
| =========                 |                                                 |
| \\      /  F ield         | OpenFOAM: The Open Source CFD Toolbox           |
|  \\    /   O peration     | Version:  2306                                  |
|   \\  /    A nd           | Website:  www.openfoam.com                      |
|    \\/     M anipulation  |                                                 |
\*---------------------------------------------------------------------------*/
FoamFile
{
    version     2.0;
    format      ascii;
    arch        "LSB;label=32;scalar=64";
    class       surfaceScalarField;
    location    "0.2";
    object      phi;
}
// * * * * * * * * * * * * * * * * * * * * * * * * * * * * * * * * * * * * * //

dimensions      [0 3 -1 0 0 0 0];

oriented        oriented;

internalField   nonuniform List<scalar> 
7520
(
-0.969705
0.591961
0.377744
-1.31762
-0.200608
1.51823
-0.023267
-1.5551
1.57837
0.280024
-0.0457629
-0.234262
-0.335448
1.45943
-1.12398
-0.158191
0.174947
-0.0167561
-0.249391
2.06248
-1.81309
0.0290715
-1.5347
1.50563
-1.18783
1.16457
0.615055
0.211033
-0.826088
-0.213179
0.0106399
0.202539
-0.174121
-1.80396
1.97808
0.51325
0.160647
-0.673897
-0.158735
0.215351
-0.0566162
-1.82055
1.02307
0.797481
0.159596
1.62616
-1.78576
-0.138678
0.0230394
0.115639
0.0299459
0.207815
-0.237761
-0.371229
-0.090554
0.461783
0.0338928
-0.172571
-0.527951
-0.151865
0.679816
-1.11471
1.2743
-0.0746916
-0.363991
0.438682
0.210876
-0.183149
-0.0277272
-0.0320184
0.159832
-0.127814
0.291516
-0.28559
-0.00592608
0.847856
1.13837
-1.98622
-0.0555565
0.381171
-0.325615
0.138433
-0.509662
0.350957
-0.061247
-0.28971
-0.900002
1.5661
-0.666098
-0.0831924
-0.0368527
0.120045
-1.77543
1.98281
-0.207379
-0.018923
0.232085
-0.213162
-0.100505
-1.18584
1.28635
-0.516384
0.665113
-0.148728
0.260398
-0.573955
0.313557
0.835109
-1.61251
0.777403
0.101101
-0.380592
0.279491
-0.0736014
-0.192639
0.26624
-0.0308895
0.310914
0.558425
-0.126426
-0.432
0.330414
-0.0388977
1.6715
-1.14734
-0.52416
-0.29469
-0.702794
0.997485
-1.56112
1.64316
-0.08204
0.0608521
0.0682997
-0.129152
0.340229
-0.106042
-0.234188
-1.28423
0.384228
0.324527
-0.0911196
-0.233407
1.71256
0.144384
-1.85694
-0.714927
0.176358
0.538569
-0.146105
0.156662
-0.0105566
1.08092
0.485372
-1.56629
0.0197909
-0.177982
-0.783507
0.0737874
0.709719
0.295059
-1.24881
0.953755
-0.0651082
-0.128585
0.193693
-0.184218
0.101025
-2.39814
1.15589
1.24225
1.81894
-1.17201
-0.646928
-0.0140467
-0.0808149
0.0948616
-1.05464
0.954135
0.833339
-0.320089
0.0355592
-0.181664
0.00974064
-0.168476
1.10278
-2.19604
1.09326
0.237064
1.4755
-1.33097
0.988329
0.342644
0.359301
-0.268089
-0.0912118
-0.558551
0.853611
0.747342
-1.28828
0.540941
0.397749
-0.0956198
-0.302129
0.690343
-0.360136
-0.330207
0.83717
-1.69725
0.860085
0.2106
-0.183401
-0.0271982
2.33156
-0.809707
-1.52186
0.52003
-0.859861
0.339831
1.3363
-1.14383
-0.192477
-0.940916
0.15741
-1.57738
-0.820756
0.683174
-0.0871561
-0.596018
0.264493
-0.705531
0.441038
0.237326
-0.256249
0.294553
-0.264607
0.385613
-0.0346551
0.0625392
-0.0544005
-0.00813865
1.32387
1.00769
-1.44699
1.6493
-0.20231
1.15812
0.66082
-1.07916
1.0928
-0.0136437
-0.0173604
-0.162891
0.180251
1.34678
-1.5209
0.278764
0.220355
-0.119254
0.960631
0.00351723
-0.964148
0.00897999
0.160944
-0.169924
-0.594382
0.373311
0.221071
1.58757
-0.750402
-0.828854
0.678358
0.150496
0.908091
-0.72802
-0.180071
-0.15516
0.192401
-0.0372413
0.461416
-0.134895
-0.326521
2.10001
-1.38843
-0.711575
0.593818
-0.55941
-0.410296
-1.32413
0.765576
-1.81072
1.56133
0.210879
-0.0987328
-0.112146
-0.221104
0.0079245
-0.265344
0.265017
0.000326224
-0.792477
0.657834
0.134644
1.92971
-1.09461
-0.32147
0.0908944
0.230575
-0.812275
0.284323
-0.204764
-0.0364973
0.241261
0.111417
0.571757
-0.656382
0.231322
0.42506
1.14097
-2.04478
0.90381
0.0767202
0.134155
-0.07777
-0.637157
-0.259861
-0.0665264
0.326387
1.05425
-0.43919
0.00822911
0.343752
-0.351981
-0.047912
-0.242515
0.290427
0.11765
-0.107441
-0.0102089
0.694326
-1.77973
1.0854
0.43627
-0.510962
-0.359759
-0.095717
0.455476
-0.137844
-0.183626
0.0735517
0.283433
-0.356984
0.179497
0.0427578
-0.222255
-0.0788946
0.258392
-0.642795
-0.0135866
0.479789
-0.76029
0.280501
-0.766648
1.32968
-0.563029
0.319714
-0.387675
0.0679608
-1.08291
-0.241217
-0.0555951
-0.0951781
0.150773
1.43947
-0.358544
-0.627852
0.497616
0.130235
-0.233883
0.575949
-0.342065
0.354181
-0.089904
-0.264277
0.242658
-1.79776
0.287686
-1.8488
-2.00199
0.885533
1.11646
-0.881076
-0.449897
-1.30227
0.778198
0.52407
1.58064
0.302969
-1.88361
0.249172
-0.322773
0.323971
0.357856
-0.681827
-0.0893971
-0.618451
0.707848
-0.22291
-1.07936
-1.80591
0.0304791
0.0561048
0.00643439
0.0908601
-0.174773
0.0839132
0.320011
-0.385119
0.565555
0.342536
-0.189186
0.158296
0.156238
-0.0638067
-0.0924308
0.825297
-0.430886
-0.394411
-0.602932
-1.21762
0.343051
-0.432448
0.077556
-0.639947
0.562391
-0.162788
-0.0536984
0.216486
-1.36721
0.672617
0.694593
0.333856
-0.669304
-0.200105
0.582313
-0.382207
0.168857
-0.200876
0.594991
-0.275267
-0.319725
1.29946
-0.338825
0.265189
-0.356308
0.982285
0.133113
-1.1154
0.339965
-0.395522
-0.370068
-1.28834
1.65841
1.25523
0.689214
0.757714
-0.493221
-0.934089
0.417705
-0.724496
1.00847
-0.283978
-0.0420881
-0.0227282
0.0648163
0.280211
-0.365117
0.0849058
-0.662163
0.773579
-0.293787
-0.187203
0.48099
-0.210937
0.0481496
-0.890335
0.967891
0.20893
-0.813199
0.604268
-0.478593
-0.115789
0.741223
-0.480825
0.232781
-0.0221814
0.210083
0.0807581
-0.290841
-0.283242
-0.509235
-0.70183
-0.0528694
0.754699
0.140485
0.257263
-0.830774
-0.86648
-0.812281
-0.554929
-0.0105888
0.189463
-0.178874
0.817517
-0.319421
-0.498096
-0.869597
0.102949
-1.14708
2.10811
-0.961028
0.402597
0.192394
0.288136
-0.235786
-0.0523498
-0.725804
0.648034
0.685964
-0.980655
1.80581
-0.0589992
-1.74681
-1.78864
2.27071
-0.482073
-0.0348242
0.125684
0.406075
1.21344
-1.61951
0.0478224
-0.211049
0.163226
-0.197465
1.7602
-1.56274
-0.000218124
0.206319
-0.206101
-0.926951
1.3102
-0.383249
-0.00618091
-0.719623
-0.158833
-0.542997
0.325535
-0.228736
-1.70002
1.92876
-0.627847
0.537293
-1.8105
0.979724
0.193357
0.0604303
-0.253787
0.210852
-0.258764
0.118777
1.60112
-1.7199
-0.42258
-0.681558
1.10414
-0.581336
0.451491
0.129846
2.31397
-1.48874
-0.82523
0.565018
-0.987598
0.215322
-0.232267
0.0169451
0.111197
0.758358
-0.869555
0.100792
-0.103244
0.00245272
0.836637
0.83686
-1.6735
-0.276883
-0.551971
-0.13355
0.352277
-0.218727
-0.987365
0.663972
0.323394
-0.129208
0.0698025
0.0594055
0.782865
0.0346523
1.13101
-2.11975
0.988743
-2.39956
1.07736
1.32221
-0.999108
-1.40046
-0.399713
0.409516
-0.0098028
-0.292424
0.370231
-0.0778074
0.393266
-1.03883
0.645562
5.82025e-05
1.11498
-1.11504
-0.53291
0.445754
1.01017
-0.0278882
1.01971
0.997649
-2.01736
-0.24356
0.12142
0.12214
-0.102886
-0.88448
1.74685
-0.3867
-1.36015
0.198177
-0.150355
-0.0277467
-0.139423
0.162463
0.885015
0.861832
0.326181
0.496796
-0.822977
0.42666
-0.0454887
0.0543894
0.216065
-0.270455
-0.261395
0.339077
-0.077682
-1.81859
0.900946
0.917648
-0.0259103
-0.266513
0.974665
-0.494876
0.902396
-0.37454
-0.527857
0.171692
0.168538
-1.94907
1.88558
0.0634868
0.950588
-0.741658
0.00207519
-0.174137
0.172061
0.0147962
0.132431
-0.147227
0.156097
-0.251717
1.63604
-0.533262
0.0454452
-0.171594
0.126149
0.0282149
0.128023
-0.280225
0.290865
0.983192
-0.979675
-0.710018
0.710076
0.3176
-0.107516
2.06248
-0.0511964
0.160438
-0.109242
-0.269346
1.25254
-0.252129
0.162153
0.0899769
0.109414
0.352001
0.123345
0.435081
0.853204
-0.529234
0.542816
-0.407569
-0.135247
0.327806
-1.25476
-0.125311
0.198862
-1.63623
1.40749
0.202139
0.0131828
-1.60716
0.248646
-0.482529
0.19487
-0.187732
-0.00713851
-0.633126
-1.18547
1.10456
0.995448
1.46785
-0.795231
-1.80396
0.413478
-0.405249
-0.377357
0.0184563
0.358901
0.194648
-0.320799
0.126151
-1.19006
0.487266
-0.264891
-0.256751
0.521642
0.743686
-0.532654
-0.125198
-1.72601
1.85121
0.753819
0.198191
-1.48227
1.28407
0.918775
1.06404
-0.897435
1.30838
-0.9023
-0.0476201
0.451175
-0.403555
-0.848351
0.833851
0.0144998
0.107178
-0.0617324
-0.108699
0.375442
-0.266743
-0.415596
-0.110814
0.526411
-0.487557
1.74279
-0.307693
-0.414694
0.722387
0.181635
-0.120783
0.17274
-1.2519
0.347031
-0.292641
0.0197876
-1.9852
1.09201
0.89319
0.483575
-0.322929
0.0140167
-0.0931084
0.412822
0.97936
1.33461
1.5964
-0.494776
-1.10162
0.166246
-0.0595716
-0.106675
0.747621
0.588682
-0.410076
0.0327187
0.536717
-1.4927
0.955982
-0.217419
0.249448
-0.0320287
0.679926
0.907646
-0.268091
-0.112501
0.759397
-0.433216
-0.575091
1.42295
0.195074
0.0158045
1.89429
-0.753318
0.206612
-0.197632
1.78192
-0.185523
0.142582
0.476403
0.0664134
0.0151535
0.344147
-1.66634
-0.928276
0.889817
0.0384585
0.013235
-0.196636
1.79501
0.0077592
-1.80277
-0.795062
0.487369
0.282191
0.071991
-0.35223
0.0841406
-0.152052
-0.991773
1.52952
-1.58699
0.0574662
0.289036
-0.573997
0.284961
-1.00982
1.68974
-0.855208
1.54953
0.436228
-0.147192
0.705458
-0.474136
1.84989
-0.50311
-0.0028525
0.250385
-0.247532
-0.155019
-0.0306967
0.185716
0.160071
0.00617504
0.162825
-0.829302
0.147208
0.103223
-0.250431
0.630419
0.699258
-1.76443
1.39436
0.173997
-0.533755
-0.53851
1.28585
-1.12027
1.34796
-0.227691
0.548414
-2.02492
1.82745
2.16126
-0.837396
0.875991
0.795513
-0.0804379
0.246392
1.28313
-1.36329
0.320445
1.04285
0.337742
-0.398989
-0.375475
0.349565
-0.261584
0.182689
0.081038
-1.22838
0.605878
-0.87355
0.267672
-1.79787
0.886425
0.911445
-0.565459
-0.722824
0.104492
-0.118539
0.10881
-0.473942
0.660708
-0.186766
-0.660611
0.460506
1.23167
0.929598
-1.78864
0.0549036
0.0627463
1.62955
-1.39418
-0.235372
-0.381751
1.59519
-1.1934
1.93325
-0.739848
-0.741921
0.769958
-0.0280364
0.274197
-1.32884
0.156634
0.213597
-0.30128
0.472033
-0.170753
0.23798
-0.372875
1.33656
0.378366
-0.993402
0.615036
0.0100007
-1.54529
1.53529
-0.0789063
-0.186437
0.11581
-0.494943
0.379133
-0.524684
0.867563
-0.34288
0.254879
-0.176274
-0.0786045
-0.21273
0.618441
-0.40571
-1.89288
1.69227
1.8533
-0.481242
-1.37206
0.459041
-0.573483
0.114442
-0.0209104
0.215558
0.218072
-0.696665
-0.854619
1.69126
-0.236271
0.0315069
1.80581
-1.02237
1.13356
-0.0753987
0.0753987
-0.526812
0.256728
-1.70371
2.22008
-0.931737
-1.28834
-0.474971
1.04127
-0.566297
-0.0235693
0.226953
-0.203384
1.05778
-1.10163
0.0438541
-0.311157
-0.418336
0.729493
0.941646
-1.95526
1.01361
0.0367181
-0.885069
-0.273316
0.118297
-0.3943
-0.333041
0.727342
0.606499
0.537803
-1.1443
-1.29436
-0.411126
0.74616
-0.335033
-0.634318
1.3437
-0.70938
1.44687
-1.3281
-0.0698651
0.217073
0.193492
0.401445
0.288898
-1.2428
0.726706
0.516095
-1.26718
1.56975
-0.302573
-0.0278867
0.227733
-0.199846
-1.45177
-0.744272
0.24568
-0.107247
-1.65236
0.505277
-0.431467
0.322769
-0.431819
-0.310102
0.0413868
-0.258806
-0.574565
1.59427
0.0696795
-0.43367
-1.524
0.129733
1.39427
0.440113
-0.629706
0.189592
-0.946441
0.221945
0.264123
-0.636785
0.372661
1.6332
-0.157306
-1.47589
0.0171975
-0.091517
0.0743195
-0.283903
0.431101
0.533378
-0.964479
-0.33953
1.3626
0.0299868
0.691363
0.748103
0.0422115
1.49108
0.290839
-1.36546
1.37546
-0.132836
0.0328867
0.0999495
-0.210322
0.0545499
0.155772
-1.62317
0.429766
-0.345113
0.218688
-0.545368
-0.382908
0.310337
0.809797
-0.517045
-0.292753
0.213147
0.117266
-1.01899
1.88038
-0.861389
0.230295
-0.260992
-0.133629
0.41384
0.29257
-0.593851
-0.00546759
-0.215237
0.220705
-0.225266
-0.0457378
0.271004
0.625286
-0.609861
-0.0154256
0.0185562
0.079232
-0.0977882
-0.325614
0.362846
-0.0372321
0.507321
-0.613144
0.105823
0.432138
-0.0943954
-0.351812
0.587969
-0.236156
0.929983
-1.03934
-0.946884
-0.341858
-0.139182
0.481039
0.0360284
0.501265
-0.336254
-0.245083
0.763793
0.0460047
0.108789
-1.27208
1.16329
-0.305696
0.0458355
-0.202858
-0.439937
-0.326878
0.114148
0.242461
-0.242679
-1.18614
-0.0571334
-0.15202
0.209153
1.15707
-1.02396
1.0625
0.790795
0.441307
0.46109
-0.178496
-1.59794
1.77643
0.257229
0.566108
-0.823337
-0.464603
-0.946781
0.437496
0.509285
0.686009
-0.245896
0.0417463
0.157622
-0.199368
2.22014
-1.20159
-1.01855
0.154996
-0.356688
0.201692
0.2106
0.550761
-0.76136
0.0800362
0.121447
-0.201483
1.62157
0.0572096
-1.67878
0.217343
-0.0095283
-0.311289
0.380969
-0.343372
-0.053928
0.3973
0.28249
0.0120624
-0.181873
-0.118411
0.300284
-0.562559
-0.224179
0.786737
1.1241
0.5091
1.04448
-0.935689
0.256359
-0.781042
-1.82025
1.69505
0.0443145
-0.28683
0.353214
-0.625602
0.272388
0.742299
0.725549
1.18933
-1.30924
0.119914
1.27759
-0.586229
-0.181157
0.121586
-0.0765146
0.237157
-0.160642
-1.48045
-0.236621
1.71708
-0.367448
0.491242
-0.123794
-0.00169855
-0.0737001
0.604044
0.855388
-0.173656
-0.069904
1.16705
-2.10295
0.935897
-0.758606
0.0885787
0.670028
1.64766
-0.516648
0.120702
0.160376
-0.778826
-0.320003
0.0102371
0.309766
0.0443795
-0.33409
-0.638895
1.01726
0.0315338
0.0692579
0.235658
0.0472889
-0.282947
0.194094
0.863686
-0.313828
-0.446462
-0.260817
-0.467527
0.401
0.409241
-0.84106
0.246889
-0.155995
0.0453781
0.117085
-1.97078
0.931436
0.449886
-0.168491
-0.281395
0.219787
-0.153129
-0.0666583
0.259349
0.855629
-0.0959299
0.0151151
-0.0414597
-1.4771
1.51856
-0.345902
-0.304595
0.650497
-0.0931684
0.101703
-0.00853479
-0.214149
0.820027
-0.350387
-0.223881
0.574269
-0.298019
0.562143
-0.810744
1.68679
-0.876046
-0.644494
0.195323
0.44917
1.62405
-0.0434155
-0.257089
0.0774962
0.179593
0.317647
-0.0342148
-0.205554
-0.16811
0.96542
0.683876
0.574661
-1.37946
0.804797
-0.816461
-0.208437
1.0249
0.139725
-0.447391
0.307667
-0.281402
0.377509
-0.0961068
0.412113
0.0856997
-0.497812
0.0340857
0.312945
-0.877731
0.164214
-0.00438176
0.0168384
-0.30948
-0.193002
0.497875
-0.304874
-0.296546
0.379483
-0.0829367
0.333983
-0.383999
0.0500166
0.730966
-0.451494
-0.0123832
-0.0420173
-0.644876
-0.351708
0.996584
1.22544
-0.96609
-0.070353
-0.352265
0.422618
-0.203028
-0.524991
-1.20239
1.43945
0.5965
-0.238644
-1.24971
0.885664
0.36405
0.458249
-0.00979436
-0.448455
1.791
-1.791
-1.71097
0.133585
-0.87128
-0.0859524
-0.703525
0.789478
0.489394
-0.581199
0.0918056
0.143272
0.285036
0.0538755
-0.338911
-0.0664417
0.270355
-0.203913
-0.550275
1.03311
-0.48284
-0.234679
-0.0147317
0.249411
0.729945
-0.455748
-1.10537
0.288912
-0.0610306
-0.290563
0.351593
0.0108991
-1.37419
-0.616321
-0.895782
0.279461
0.8753
-0.0978671
0.253605
-0.155738
-0.325444
0.433807
-0.108363
-0.389653
0.256103
-0.0994314
0.00313563
0.191735
0.0649968
-0.0301616
-0.142252
0.172414
0.192137
0.0450196
-0.465687
0.113875
0.108834
-0.0605592
-0.0482745
0.0771599
0.0866746
-0.163834
0.295538
-0.32148
0.0259412
-0.0840676
0.218837
-0.134769
-0.656444
0.924116
0.660963
-0.779903
0.118939
-0.191684
-0.0918515
0.283535
-0.00258614
-1.88078
1.88337
0.749376
-0.644981
-0.104395
0.189967
-0.113073
-0.207726
-0.273268
0.236771
-0.0600081
0.215004
0.403845
-0.885752
0.481907
-0.457009
-1.49206
-0.424462
0.749279
-0.324817
-0.240618
0.102775
0.472577
-0.32796
-0.144618
0.0292684
-0.674144
-0.639753
-0.266512
0.332969
-0.0664572
-0.624029
0.359138
-0.0580283
0.555645
0.175555
-0.160759
-1.38385
-0.00457944
-0.328966
0.621537
-0.0521697
-0.221146
-0.2558
0.0951579
0.245025
-0.342892
-0.105552
-0.940386
0.283942
1.89114
-0.130935
-1.70002
2.17182
-1.07072
-1.1011
-0.194333
0.567645
-0.186276
-0.75464
0.258672
-0.541914
-0.290789
-0.0292139
-0.377672
-0.536302
0.913974
-0.0417964
-0.125302
0.167098
0.0607089
-0.941785
-1.76747
-0.350081
-0.368318
0.718399
0.0995631
-0.445465
-0.293524
-0.0472638
0.340788
0.571173
-0.134903
0.0890187
0.369231
1.93475
-0.993104
-0.852469
0.474797
-0.292647
-0.0621811
0.354828
-0.04685
0.0128267
-1.11446
-0.277023
0.0153094
0.261713
-0.134118
-0.0500998
0.933107
-1.22996
0.296852
-0.641789
-0.0220969
1.81309
0.513252
-0.86496
1.10244
-1.9958
0.89336
-1.93972
1.15724
0.78248
0.197542
0.122577
-0.320119
0.163853
0.776708
0.118037
0.802434
-0.920471
-0.0134816
-0.158112
0.00850574
0.450535
0.246159
-0.508319
0.26216
1.26381
-1.44231
0.543349
-0.168729
0.181736
-0.013007
-1.53239
-0.178578
-0.677731
-0.65724
0.315383
0.197892
0.00312491
-0.201017
-0.686161
0.356873
0.329288
-0.435885
0.388265
-1.07665
-0.57313
1.64978
-0.184338
-0.20201
0.17844
0.481586
-0.434683
-0.0469028
-0.801109
1.68753
-0.204775
-1.04201
0.567034
0.511556
0.463109
0.623628
-1.1739
-0.0114189
0.207641
-0.196222
1.4155
-0.0715554
-1.05243
-0.378171
-0.136696
0.514867
-0.0671024
0.249792
-0.0116499
0.202546
-0.190896
-0.262938
-0.00166835
0.292395
0.56081
-0.583157
0.347781
-0.082592
-0.406442
0.313334
-0.182285
0.00622141
0.176063
0.304801
-0.106647
-0.198154
-0.174324
-0.0536075
0.227932
-0.192265
-0.00642701
0.198692
0.241341
0.049086
-0.311358
-0.262639
0.447337
1.1699
0.322205
-0.379154
0.0569491
0.230432
0.275904
-0.506336
-0.345
0.415096
-0.0700958
-0.288378
0.325918
-0.737044
-0.194215
0.413432
-0.0934211
0.213649
-0.0447921
-0.162221
-0.048828
1.78942
-0.952564
0.433626
-0.56361
0.129985
-1.51314
0.310752
0.30129
0.0161405
-0.31743
-0.0638879
-0.0653201
-0.834176
-1.10554
0.426284
-0.0863183
-0.64039
-0.852309
0.27767
-0.0420121
0.205051
0.276535
0.711136
-0.828066
-0.800268
1.37493
-1.63299
0.152534
0.444652
0.00794455
-0.452596
0.00530891
-0.275404
-0.389697
0.665101
0.131092
-0.00494342
-0.754335
-0.666424
1.42076
-0.933241
-0.959084
1.89233
0.354367
0.529306
-0.883673
0.0148147
-0.280068
0.0135559
-0.297247
-0.296603
-0.213422
-0.112852
0.326275
0.555105
0.152743
0.307007
0.16557
-0.222426
-0.679047
0.375019
-0.426215
-0.68501
1.21152
-0.526511
-0.203954
-0.210526
-1.61185
0.212323
-0.0228602
-0.528754
-0.0841893
-0.272795
-0.874365
0.379489
-0.172266
-0.963529
-0.250128
1.21366
-0.437703
0.696375
0.646
0.395269
-0.37232
-0.998732
-0.972043
-1.18606
1.22992
0.135592
0.0375795
0.053458
-0.127589
0.0741306
-0.73522
0.627791
0.107429
0.7775
-0.783681
0.466101
-0.0162146
-1.15424
-0.0954744
0.177484
-0.233142
0.0556579
0.501171
0.124115
-1.35125
0.0185238
1.33273
0.05227
0.139867
-0.124666
0.327195
-0.202529
-0.291115
0.50375
0.0900674
0.0949414
0.0257724
-0.120714
-1.23457
0.847872
0.138287
-0.00719499
-0.1966
-0.160088
-0.419839
0.145822
0.101068
-0.199935
-0.264242
0.0590431
0.338257
0.394435
1.49115
-0.616033
1.49202
0.996426
0.350167
-0.768503
-0.0908284
-1.26042
0.551837
-0.371089
0.452418
-0.0813294
-0.100712
-0.00672862
0.32935
0.0156059
-0.0755781
0.176603
-0.0456158
1.46945
-1.42383
0.0884746
-0.808098
-0.143161
-0.300931
-0.0841881
-0.353404
-0.32222
0.415639
-0.0934187
0.0254412
-1.4923
1.46686
0.408876
0.126734
0.362659
-0.954356
-0.53859
1.0346
-0.496006
0.00870858
0.0783164
-0.231445
-0.626323
0.39006
0.236264
0.415232
-0.473899
0.0586671
-0.237
-0.493884
0.730885
-0.313261
-0.082261
-1.95188
0.000722943
0.292576
-0.295429
0.078975
0.13884
-0.00055293
0.377906
-0.746224
2.14603
-0.927763
-1.21826
0.368069
0.512107
0.126112
-0.250779
0.241296
0.0916729
-0.221339
-0.0128487
-0.182637
0.419962
-0.538671
0.779014
-1.01601
0.179753
-0.122304
-0.0574483
-0.417156
-1.66579
0.815336
0.85045
-1.72655
1.72397
-1.01351
0.52699
0.486524
-0.418228
-0.120025
0.538253
0.162374
0.601419
0.37608
0.234261
0.519325
0.479259
0.100084
-0.290181
-0.0377782
0.994085
1.15194
0.263047
-0.0469822
1.23653
-0.933564
-0.0139327
-1.41984
1.43377
0.995967
0.173931
-0.331386
-0.100081
-0.30881
-0.367161
-0.305274
-0.291784
-0.0836914
0.252866
-0.940337
0.687471
-0.397375
2.26457
-1.4499
-0.81467
0.0563285
0.173427
0.0535259
0.550338
0.223241
1.75102
-1.61744
0.982316
-1.91556
-1.18495
-0.0699356
1.25488
-0.831702
0.401581
0.430121
-0.328994
0.0195144
1.92378
0.041227
-1.965
-0.971855
1.59466
-0.622801
0.0970768
0.282406
-1.26618
0.631859
-0.0217951
0.223934
-1.34811
0.22784
0.0768228
-0.00763972
-0.0691831
-0.184901
0.227639
-0.0427381
0.0371067
-0.423009
0.385902
0.639282
0.250536
-0.547216
-0.138946
-0.0580106
0.911951
-0.875232
-0.0896558
-0.0851174
-0.297379
0.0639714
0.220828
0.557712
-0.77854
0.183222
0.387961
-0.571183
0.356109
-0.585031
0.228922
-0.443102
-1.28898
0.497151
0.791826
-0.0253202
0.839856
0.322896
-1.16275
-0.583503
0.265195
-0.288984
0.0237889
0.209985
-0.0467583
-0.303198
0.00967463
-0.339911
-0.771167
0.241933
-0.552068
0.809754
-0.257686
-0.68129
-0.252799
1.91633
-0.824323
-0.107732
0.196766
-1.16732
-0.0574097
-1.20883
1.26624
0.165686
0.0824434
-0.24813
0.787562
-0.409318
-0.378244
0.500906
0.075043
-0.0277041
-1.00189
0.320596
-0.675555
1.11305
0.0419182
-0.322143
0.350871
0.271754
0.0330478
0.911154
-0.423785
0.0979179
0.679582
-0.954298
0.317142
-1.88428
0.925199
1.61775
-1.59231
-1.69214
1.64652
0.0472769
-1.45617
0.31678
1.13939
0.308529
0.44075
0.0551949
-0.863249
0.777297
-0.167226
-0.138633
0.305859
-1.1387
0.449703
0.688994
0.317127
0.67254
-0.989667
-0.0645424
-1.12152
0.865824
-0.0274708
-0.838353
0.20115
0.702813
-1.24132
-0.280093
-0.0258711
0.0956735
1.68257
-1.62536
-0.31297
-0.944101
-0.344876
0.624516
0.0480578
-1.233
1.1639
-0.324044
-1.82745
0.0234934
-0.14273
-0.972667
0.389512
0.149971
1.82025
0.242234
-0.0382869
-1.07617
0.185429
-0.142672
0.0325567
-0.448153
0.334428
-0.627584
0.293156
-0.183358
0.0108543
0.172504
0.296297
-0.218801
0.0154813
-0.276876
-1.06734
1.16579
-0.0984528
-0.730148
0.71151
-1.3036
0.592085
-0.852818
-0.081144
0.14055
-1.40395
0.0790628
1.32489
-0.456411
1.00482
-0.671663
0.732372
0.157282
0.900641
0.680199
-0.941016
-0.81895
-0.230143
1.04909
-0.838559
-1.33261
0.578278
-0.169541
0.173696
-0.00415476
0.11097
-0.119505
0.666991
-1.30589
0.228363
-0.593013
0.364649
-0.21167
0.550898
-0.339229
-1.03153
0.537643
0.0499981
0.0353498
-0.269611
0.430329
1.77615
0.14763
-0.776658
0.894695
-0.296671
0.100071
-0.696401
1.3842
-0.687799
-0.0972443
0.0956727
0.137108
0.449118
-0.0104362
0.924034
1.18407
0.429323
-0.90346
0.316899
-1.80563
-0.235744
0.17861
-0.0117015
-1.01226
-0.281153
-0.948806
-0.263031
0.0738448
0.865272
-0.434944
-0.539307
-0.18128
0.74209
0.227681
-1.67918
0.283548
1.39564
-0.00682937
0.51058
0.430287
-1.45686
-0.331778
0.815419
-0.347842
-0.467577
0.9438
-0.3708
-0.572999
-0.233524
0.0572497
0.702427
-0.693337
-0.0090904
-1.69452
0.80526
0.889258
0.892909
0.79388
0.00302459
0.194868
0.872442
-0.546524
-1.32493
0.587551
0.737377
-1.92876
1.69214
0.517433
0.695157
-1.21259
0.872561
-0.715151
1.51256
-0.647355
-0.865209
-1.1001
0.226073
-0.104487
0.0713973
-0.107705
0.229125
-0.063609
0.167742
-0.104133
0.0554815
-0.415617
-1.26558
-0.269127
0.453857
-0.207698
-0.048076
-0.0551685
0.743444
-0.102744
-0.640701
0.865417
-0.508544
-0.174998
0.154087
-0.00905394
1.19838
0.237162
-0.071476
-0.190113
-0.841414
-1.48149
0.517965
-0.0495773
-0.133571
0.162237
0.115823
0.163668
-0.11021
-0.561782
-0.951034
0.144753
-0.110425
-0.0343285
0.216433
-0.719125
-0.801191
1.52032
0.142133
-0.00329262
0.101097
1.00711
0.966116
-1.97322
-0.543889
0.898256
0.276336
-0.11804
0.159942
-1.04067
-0.64179
1.68245
-0.893638
-0.911373
0.375071
0.303642
-0.0887357
-0.214906
0.344722
-0.664143
-0.234454
1.14093
-0.429418
-0.237966
0.148062
-0.167375
-0.612527
-0.0170829
1.83459
-1.69505
-0.139542
-0.932103
-0.549391
0.168255
0.196184
0.0842527
-1.00735
-0.26599
1.27334
0.276633
0.39014
0.0250926
-1.56793
-2.16894
0.817729
1.35121
-0.280112
-0.0068449
0.286957
0.966476
-0.676565
-0.289911
0.132278
-0.207856
0.115923
0.149095
0.918055
-1.9947
0.743731
0.200068
-0.46066
-0.391809
-0.158355
0.0330534
0.179104
0.63618
-1.35531
0.0480226
0.403153
-0.350573
0.752018
-0.48287
0.383245
0.0996252
0.673863
0.838701
0.411242
0.048332
0.556602
-0.822873
0.266271
2.02492
-1.74137
0.189539
-0.618423
0.176176
0.0338084
0.118741
0.0182042
0.154209
0.00263446
-0.172176
0.636284
0.0255898
-1.68843
-0.0327943
-0.247318
-0.0966895
-0.0308991
1.22753
-0.581533
0.755961
-0.599812
-0.156149
0.00971345
0.182687
0.0439215
0.0329014
0.390321
0.0360571
0.234947
-0.257104
-0.352757
-1.92543
0.886192
1.03924
-0.191143
0.0282525
-0.0597144
0.159837
0.225776
-0.303705
-0.33308
0.44208
-1.48275
-0.154285
-0.954958
1.96207
0.635119
-0.242692
-0.392427
-0.776843
-0.399866
-0.181334
0.114637
-1.13727
0.3423
-0.695988
0.353688
-0.129965
0.200848
-0.0708835
0.0711856
0.969859
0.963393
-1.73361
1.74137
-1.48589
0.809805
0.676086
1.00543
-1.96039
2.027
-1.04764
-0.999277
-0.967222
0.385485
0.275223
-0.180846
-0.314097
-1.46959
0.0134216
0.0133936
-1.32264
1.19056
-1.9081
0.71754
-0.0741855
0.323357
-0.604273
0.558813
-0.109642
0.877339
1.38723
-1.42441
0.72801
-0.0395804
-0.854058
-1.34968
0.0707117
0.130136
1.72655
-1.76997
-0.0612877
-1.36842
0.00210595
0.706979
-0.275878
-1.49547
1.69427
-0.1988
0.300155
1.58321
0.399796
0.072448
-0.472244
1.89426
-0.91194
0.273682
0.214
0.525715
-0.728574
0.111231
0.160522
0.113952
0.683978
-0.797931
-0.660925
-0.272091
1.08499
-1.0458
-0.0391907
-0.281609
0.296918
-1.45653
0.742494
0.714034
0.512836
0.274726
-0.801608
0.0887964
0.992409
-0.529301
0.32044
-0.617687
0.175185
-0.219977
-0.703036
0.427633
-0.980999
-0.917246
1.89825
0.241089
-0.247516
0.290905
-0.278843
1.17709
-0.61006
0.17197
0.970223
-1.58626
0.125734
0.123312
0.249379
-1.21547
-0.0568227
0.648784
0.0614202
0.22491
-0.557951
-1.41385
0.613581
0.295054
-0.412371
0.117317
0.0870447
-0.353788
1.10747
1.06435
1.27401
-0.97716
-0.0989183
0.178021
0.161056
0.508424
0.287753
-0.289422
-0.68442
-0.95414
1.95957
0.163205
-0.188525
-0.84464
-1.03052
1.87516
-1.5399
0.568048
-0.0763157
-0.390706
0.32061
-1.50666
-0.0173441
-0.269749
0.612049
-1.03336
-0.892068
1.83459
0.660484
-1.21541
0.954895
-0.704359
-0.15221
-0.335673
0.349229
-0.313476
0.243123
-1.68784
0.316987
-0.855577
1.00601
-1.96015
-0.848749
0.300338
-0.334553
-0.0352021
-1.46027
0.927492
-0.548003
1.3203
0.903603
-1.72958
0.825977
1.70815
-0.902893
1.97808
-0.950072
-0.975251
1.92532
0.32193
1.28468
-1.00805
-0.818253
-1.35069
-0.998648
-0.487243
0.470861
-0.777504
1.74524
-0.967739
-0.132596
1.36772
-1.23513
-0.97803
-0.968439
1.94647
0.872667
0.212321
0.325226
0.398263
-0.746557
0.206275
0.540281
0.0783219
-0.339314
0.498078
-1.43018
-0.717944
-0.413993
-0.321227
0.281736
-0.365925
-0.752776
1.29372
-1.93174
0.948495
0.983245
-0.0293779
-1.65757
1.68695
0.195182
-0.316959
0.113045
0.370085
-1.83037
1.83037
-0.491111
-0.0152296
0.506341
-0.4567
0.994503
0.179953
-0.109241
-0.732752
-0.486958
0.639701
-1.73361
0.111969
-1.3051
0.282729
1.25869
-1.24779
-1.25646
0.249116
0.309691
-0.346274
0.0365836
0.175911
0.526517
-0.205476
0.0221182
-0.977289
-1.19199
0.123604
1.06838
-1.39053
0.144559
-0.45811
-0.845486
-0.0160585
0.111
0.19743
-0.0833141
0.32461
0.25932
-0.200277
0.409872
-0.376008
-0.327028
-0.857628
1.6977
-0.840071
0.372196
0.235222
-0.21899
0.456029
-0.237039
-0.381121
0.270306
0.312263
-0.617366
0.305103
-0.732843
1.30593
-0.788493
-1.60803
-1.71328
0.220973
-1.0702
0.0676067
1.01338
1.20676
-0.0108353
-0.961832
1.23313
-0.506426
-0.268337
0.310255
0.640536
0.597132
0.275428
1.9513
-0.945291
-0.976793
-0.918607
1.8954
1.17515
-0.0723656
-1.10278
-0.140062
0.415966
-0.261302
0.233416
0.17926
1.30017
-1.47943
-1.61132
1.59231
0.0190073
1.61132
-1.64652
0.261558
-0.335744
-0.582298
1.28511
0.103768
-0.266016
0.315102
-1.64898
0.166712
1.75097
-0.847366
-0.490893
-0.152948
0.15917
-0.485223
0.837836
0.297365
-0.0956735
0.755272
-0.519008
0.20564
-0.284244
-0.61857
-0.0869606
0.54668
-2.07029
0.524998
-0.0918437
0.489885
-0.398041
-0.962393
-0.945712
0.129351
0.328147
0.622441
-0.930756
0.154098
-0.359813
-0.225218
0.144245
-1.97863
0.979349
-0.257127
-0.141148
-0.201744
0.0104323
-0.210367
-0.217018
-1.31783
0.838789
-1.63051
0.791722
0.0803123
0.299238
-0.37955
-0.431812
0.450269
-1.04358
1.32631
0.373665
0.524591
1.31428
-1.45686
0.223453
0.058738
1.69833
-1.94558
0.247243
-0.329673
-0.10501
-0.87523
0.0368772
0.404121
-0.540817
-0.193188
0.288346
-0.83686
-0.0991343
0.0633853
0.035749
-1.5008
0.232334
1.26847
-0.221435
0.273705
-0.0472978
-0.172512
0.21981
1.1884
-1.14034
0.222143
-0.211288
0.652501
0.136977
0.258641
-0.202983
-0.24309
0.345865
0.244474
0.670716
-0.91519
-0.482531
0.0595221
-0.927047
-0.972401
1.89945
-0.0202532
-0.454175
0.58416
-0.714229
1.72397
-0.279493
0.284802
0.0780864
0.107298
-0.102409
1.97729
-0.983209
-1.28801
0.851241
-0.534254
-0.577899
1.31528
-0.231596
0.267653
0.1328
-0.134498
-0.356817
0.413766
-0.339894
0.227042
-0.147228
-0.387974
0.30466
1.01627
0.256822
-0.246389
0.25156
0.00204582
0.0554321
-0.416791
0.333099
0.485465
-0.861473
0.246796
-0.287736
0.0409396
0.299362
-0.216918
0.361783
0.645403
-1.00719
-0.30137
0.162737
0.144902
-0.582604
1.2579
-0.627476
1.0174
0.982052
0.0239449
0.482528
-1.01251
0.386014
-0.520918
-0.0855376
0.997623
0.937127
-1.71305
1.71305
1.41636
-0.902545
1.07529
-0.0223064
1.52345
-1.50114
0.924966
1.01948
0.928202
-1.9092
0.0425342
-1.05855
-1.32154
-0.187011
-1.44067
1.62768
-0.448654
-0.175376
0.102623
0.665536
0.220296
-0.326943
-0.96083
1.81561
-0.854778
-0.197909
0.309141
0.0142809
0.163421
0.522588
2.06952
-0.806841
-1.26268
1.56342
-1.48436
1.09382
0.254133
0.322446
0.113782
0.0180998
1.58302
0.47047
0.999954
0.880425
0.0291315
0.231006
-0.260137
-0.40818
0.248092
0.219627
-0.2386
0.0189728
0.196026
-0.271659
0.0756332
0.412928
-0.470939
0.37203
-0.575985
-0.025046
0.438524
0.0532437
0.174588
-0.0313154
-0.875459
0.424921
0.450538
0.157416
-0.141786
-0.0156302
1.76997
-1.45284
-0.435547
0.12877
0.306777
-1.68257
-0.391688
0.298267
-0.976006
1.90097
0.293848
-0.378036
1.91457
-0.986368
0.277398
-0.35999
-0.211304
-0.846055
-1.27337
-0.380161
1.36158
1.31588
-1.0665
-0.115277
0.191997
-0.106443
-1.48054
-0.334908
0.328982
0.279354
-0.422515
-0.418885
0.325467
-0.125324
-1.3188
1.30487
-1.4245
1.48197
-1.15981
-0.587675
0.452428
0.738201
0.431491
-0.469269
-0.0982164
0.159462
0.367514
-0.526977
-0.393731
1.27875
-0.981231
-0.961694
-1.91035
-0.131218
0.123126
0.00809201
0.0361524
1.39659
-1.43274
0.821036
-0.579103
0.362119
-0.443449
1.51561
-0.850076
0.869494
0.885744
-1.75524
0.258854
0.0385118
0.701148
-0.189042
0.243653
-0.86175
0.0536519
-1.47945
0.678262
-0.387908
0.299172
0.359216