/*--------------------------------*- C++ -*----------------------------------*\
| =========                 |                                                 |
| \\      /  F ield         | OpenFOAM: The Open Source CFD Toolbox           |
|  \\    /   O peration     | Version:  2306                                  |
|   \\  /    A nd           | Website:  www.openfoam.com                      |
|    \\/     M anipulation  |                                                 |
\*---------------------------------------------------------------------------*/
FoamFile
{
    version     2.0;
    format      ascii;
    arch        "LSB;label=32;scalar=64";
    class       volVectorField;
    location    "9.3";
    object      U;
}
// * * * * * * * * * * * * * * * * * * * * * * * * * * * * * * * * * * * * * //

dimensions      [0 1 -1 0 0 0 0];

internalField   nonuniform List<vector> 
13486
(
(1.54871 -0.287619 3.85109e-19)
(1.70592 0.191162 2.33084e-19)
(2.69751 0.0244347 0)
(-1.1861 0.293884 -1.89499e-18)
(2.59254 -0.219242 -3.29101e-19)
(2.41904 0.172057 -3.18315e-20)
(2.47933 0.36774 -3.12063e-20)
(2.24058 -0.714896 1.15602e-19)
(2.08036 -0.354424 0)
(1.92372 0.634522 0)
(-0.332556 1.73674 -4.65407e-19)
(2.40342 -0.0698663 0)
(1.40844 -0.486232 -3.71761e-19)
(2.31373 0.711041 -5.59647e-20)
(2.38717 0.0915844 -1.23776e-19)
(1.89021 0.622523 -2.1096e-19)
(1.28235 -0.539098 4.31907e-19)
(-0.05072 -0.56492 3.16572e-19)
(2.09311 -0.00826602 9.42314e-22)
(1.70334 -0.108128 -4.01309e-19)
(-2.955 0.960998 -9.88399e-19)
(1.42892 -0.504492 4.8009e-19)
(1.72245 0.183498 -1.86252e-19)
(4.26051 0.315528 0)
(1.98784 0.515169 7.38965e-20)
(4.21091 0.179915 -3.82536e-19)
(0.257326 -0.0988775 5.09708e-19)
(3.2068 -0.179314 4.27722e-19)
(1.99114 0.204362 0)
(3.19061 -0.404415 -4.80932e-19)
(-3.02827 1.13816 -6.62623e-19)
(2.14257 0.00660869 8.35933e-22)
(3.25348 0.283666 2.55938e-19)
(2.46631 -0.217256 0)
(2.24661 -0.678571 0)
(1.62827 0.0175798 3.30449e-21)
(1.59028 -0.0998126 -6.58638e-20)
(1.62789 -0.756883 9.35631e-20)
(1.90108 -0.232758 -1.06997e-20)
(2.06807 -0.216171 9.97866e-20)
(3.30265 -0.563593 0)
(0.981227 -0.486994 -4.51983e-19)
(1.97059 -0.00535818 0)
(2.0106 0.427269 -3.41828e-19)
(2.02272 0.428001 1.41009e-19)
(2.40395 -0.0706032 4.07651e-20)
(-1.34664 -1.01947 9.33785e-19)
(1.95406 0.194594 4.92322e-22)
(1.5812 -0.079735 4.97322e-20)
(2.80857 0.0639861 8.82541e-20)
(1.99944 0.00923783 2.82019e-19)
(1.96906 -0.0577532 0)
(2.32881 -0.208592 -1.06205e-19)
(1.78261 -0.645337 -1.56222e-19)
(-0.165053 -0.937351 0)
(2.54409 -0.243394 1.69986e-19)
(2.886 -0.081059 1.1147e-19)
(1.98816 -0.116512 -5.75562e-20)
(3.25175 0.318817 3.35176e-19)
(1.61137 -0.273278 0)
(-0.677842 2.46322 -5.86608e-19)
(1.60905 -0.27618 0)
(3.36813 0.531933 -1.98199e-19)
(-2.90967 1.00967 -1.2126e-20)
(1.67751 -1.27511 0)
(1.56849 -0.12724 -3.50076e-20)
(-1.42248 0.502774 -1.60209e-18)
(1.51012 -0.0389097 1.50536e-19)
(2.08325 -0.374882 -3.07735e-20)
(1.50425 0.0115448 1.57978e-20)
(-1.24943 0.477941 1.8395e-18)
(-0.139235 -0.822289 9.98378e-21)
(2.06285 -0.111506 9.78188e-20)
(-0.590697 0.432092 -2.76099e-19)
(1.49097 -0.190046 -8.71116e-21)
(2.84833 0.0251158 -2.26151e-20)
(1.45123 -0.157181 3.22834e-20)
(2.40562 0.108985 5.58804e-20)
(-1.08005 -0.830514 -4.93906e-19)
(1.9738 -0.906717 0)
(1.90727 0.0395779 1.35005e-22)
(1.64616 0.27095 -1.52793e-20)
(3.09393 0.358769 -5.686e-20)
(2.75068 -0.00143984 -1.33556e-21)
(1.54292 -0.297239 -7.51959e-19)
(1.30168 1.32088 0)
(1.58031 -0.429842 2.26847e-20)
(2.00109 0.0187276 -4.43044e-19)
(1.89171 0.140192 -1.87916e-19)
(1.75923 0.844541 -2.701e-19)
(2.07744 -0.140165 -5.81897e-20)
(2.38509 -0.522052 9.99432e-20)
(1.61418 -0.379497 8.9705e-20)
(1.71673 0.0110345 1.14141e-20)
(2.02308 -0.584327 9.92654e-21)
(1.9325 0.159023 -2.01805e-22)
(0.29049 -0.136805 0)
(-2.37122 1.04525 8.10167e-19)
(2.07972 -0.208936 -1.91422e-19)
(1.26527 -0.523862 5.76335e-21)
(1.78366 0.0251651 0)
(2.29015 0.704583 -2.39634e-20)
(-2.61472 1.10955 3.01362e-20)
(1.97394 -0.0972473 6.73975e-20)
(1.25856 1.25711 0)
(1.06833 -0.526117 6.05698e-21)
(2.00189 0.0328031 -9.84084e-22)
(1.91355 -0.266789 -2.25487e-20)
(-1.09206 -0.804226 6.36316e-19)
(2.16114 -0.92712 0)
(1.48319 -0.700378 0)
(2.06475 0.219213 5.65116e-20)
(1.7932 -0.625341 4.40753e-21)
(2.76657 0.410648 -4.38791e-21)
(1.18515 -0.159501 0)
(1.40565 -0.686053 8.06045e-21)
(1.98033 0.530236 0)
(2.6203 -0.192482 0)
(2.0557 -0.11102 0)
(1.60076 -0.00547055 -3.13088e-20)
(0.156452 -0.642207 -1.41816e-19)
(-0.791226 2.36281 0)
(1.98292 -0.525575 0)
(1.9137 -0.235041 3.50255e-20)
(2.09619 -0.683616 0)
(1.96813 -0.0544747 0)
(2.27455 -0.14654 -2.57888e-22)
(2.16865 0.0622042 1.6355e-19)
(2.00415 -0.125746 -6.21608e-20)
(2.37452 -1.873 -1.11435e-18)
(1.92669 -0.0385844 -7.23009e-21)
(-1.49301 -1.16245 -2.39756e-19)
(0.459983 0.692951 5.85305e-19)
(-0.22437 0.176832 3.4311e-19)
(2.0001 0.00321935 -4.47546e-20)
(1.88623 0.327875 -2.51953e-19)
(0.770291 0.511899 -1.57131e-19)
(2.16664 -0.897593 0)
(1.60461 0.00933697 8.99398e-21)
(2.23656 -0.527444 1.869e-20)
(3.07179 0.243458 -2.61173e-19)
(2.30447 -0.211622 9.19021e-20)
(2.22239 -0.0861448 0)
(2.01872 -0.859479 0)
(2.09817 0.00881474 -6.65801e-21)
(2.57628 0.635861 -7.24559e-20)
(1.9883 -0.264403 -3.15592e-21)
(0.429943 1.24505 0)
(2.81848 0.10723 0)
(2.00393 0.19312 0)
(2.00746 0.007982 5.53882e-21)
(2.54323 0.0512783 0)
(1.89218 0.0264882 -1.417e-22)
(1.62025 0.267587 -1.32651e-19)
(2.14626 0.283483 0)
(2.90503 0.0315047 0)
(2.0701 -0.879364 0)
(1.44103 2.16397 8.35644e-19)
(1.91159 -0.741748 1.06971e-19)
(1.80539 -0.231951 -3.06218e-20)
(2.70369 0.0461243 2.28849e-20)
(1.92061 -0.714604 -1.54666e-19)
(1.81134 -0.179393 1.09589e-19)
(0.880027 -0.418902 1.94802e-19)
(2.0024 -0.0742328 0)
(2.41202 0.720279 3.4099e-20)
(2.25526 0.635774 1.74668e-19)
(0.606327 -0.234557 -6.08343e-19)
(1.97846 -0.241116 5.93085e-21)
(-0.237213 0.202615 9.29332e-20)
(0.440851 0.660196 2.62299e-20)
(2.14115 0.257748 1.30226e-19)
(1.99712 0.0493425 -4.05027e-19)
(2.29458 -0.0473596 -1.50991e-21)
(1.89022 0.0819521 -8.65878e-22)
(-2.16588 2.12198 0)
(2.25648 0.981711 -1.02106e-19)
(3.09208 0.350596 3.24796e-19)
(2.01012 0.0341756 -3.93592e-19)
(2.24189 -0.0948265 0)
(2.1299 -0.2443 1.24554e-19)
(2.71568 0.387668 -7.21574e-21)
(2.27261 -0.040298 3.35926e-21)
(0.355526 -0.14825 0)
(2.6025 -0.0768201 9.82256e-21)
(2.91096 -0.156899 -1.89608e-19)
(2.12501 0.190041 3.10346e-23)
(3.02877 -0.352463 -1.21066e-19)
(3.22726 -0.529773 0)
(1.2679 -0.605628 -2.28479e-20)
(1.56862 -0.0417867 0)
(2.5924 0.0533526 0)
(2.04424 -0.183248 0)
(1.31802 0.641703 -3.06648e-19)
(2.10862 -0.228746 0)
(-0.26618 1.32536 -1.28049e-19)
(1.8788 -1.82016 2.4616e-18)
(2.65212 0.0181141 1.74045e-20)
(1.22389 -0.602086 -5.72115e-20)
(2.3978 0.683697 3.88476e-20)
(-2.97389 1.02561 6.91171e-19)
(2.17808 0.0816314 -5.10009e-21)
(1.50818 -0.721618 -1.08202e-19)
(2.31448 -0.897293 -2.47278e-19)
(1.79958 -0.242497 3.76054e-20)
(2.14424 -0.214784 -5.59828e-20)
(-0.64351 -0.331786 5.51699e-20)
(1.97867 -0.0682447 2.56336e-19)
(2.02427 -0.187255 0)
(2.62276 -0.0629585 0)
(3.27126 -0.243935 3.5322e-19)
(4.42866 -0.445545 1.17076e-18)
(1.71969 -0.0969493 3.67108e-19)
(1.99394 0.0317548 -7.96423e-22)
(2.41357 0.206978 3.66663e-20)
(2.63603 -1.21028 8.61234e-20)
(3.18278 -0.320008 0)
(1.76332 0.830205 6.26683e-19)
(1.70683 -0.391911 0)
(2.93952 0.844627 0)
(1.16917 -0.582325 -8.10436e-19)
(2.84958 0.149025 0)
(2.20823 -0.525196 -5.37767e-20)
(2.64638 0.0563737 0)
(2.36827 -0.283003 -2.26062e-20)
(1.38119 -0.651302 1.1603e-19)
(2.50919 0.377186 1.9133e-21)
(-2.70293 0.893398 4.74329e-19)
(2.43029 -0.780256 1.51022e-20)
(1.63135 -0.429135 -2.60835e-21)
(2.1338 -0.233602 -4.18695e-20)
(3.44586 0.924352 1.71358e-18)
(3.10432 0.268292 3.26002e-19)
(1.00728 -0.492001 1.58826e-19)
(-3.04816 1.09985 0)
(1.18789 -0.577076 1.21988e-20)
(2.89458 -0.346618 2.17771e-19)
(2.61686 0.045123 6.12118e-21)
(1.05001 -0.505769 3.42332e-19)
(2.29658 -0.0389553 0)
(3.33836 0.354196 0)
(2.00056 0.0342324 6.19831e-19)
(2.69213 0.197921 0)
(1.05544 -0.52226 9.79705e-20)
(1.84263 -0.27933 -1.67948e-20)
(1.86349 0.024521 0)
(2.15838 0.00060745 -8.75043e-21)
(3.73987 -0.271429 1.05342e-18)
(-0.3847 0.180415 5.64176e-19)
(1.98404 0.40088 0)
(-2.08483 1.71371 -2.79023e-19)
(1.15267 -0.133354 6.75185e-20)
(1.2225 -0.594609 -3.10203e-20)
(1.9274 -0.270176 0)
(2.22445 -0.752038 4.87914e-20)
(-1.90332 2.37839 2.42503e-19)
(2.12901 -0.00883014 2.62166e-20)
(2.58807 -1.277 -1.09149e-19)
(2.0511 1.95144 -8.461e-19)
(3.37304 0.302889 2.72345e-19)
(1.81169 0.149763 0)
(1.83126 -0.273857 -1.3614e-21)
(2.34992 0.0978544 2.75843e-19)
(-2.00964 2.24123 -2.98075e-19)
(2.61246 -0.610816 3.55588e-19)
(0.364417 -0.143515 0)
(2.46006 -0.740648 -1.3693e-19)
(-3.21102 1.16087 -1.03132e-18)
(2.20063 -0.0017502 -1.22067e-19)
(0.879789 -0.688603 0)
(1.52624 0.724908 2.37297e-19)
(1.99391 0.03404 -1.12743e-19)
(3.21198 -0.339115 0)
(2.3975 -0.143681 4.51132e-20)
(1.30878 -0.630332 1.50985e-19)
(3.66341 -0.386383 -5.91444e-19)
(2.23279 -0.686464 0)
(0.33302 -2.00084 0)
(1.94656 -0.307764 -2.56037e-20)
(2.08059 -0.271239 1.11978e-20)
(0.258597 -2.17387 7.86087e-19)
(2.20267 -0.132298 -4.12369e-20)
(1.97405 0.042166 2.39454e-19)
(2.49238 0.986822 -3.83181e-19)
(-0.831186 2.16076 7.014e-19)
(1.27412 -0.191332 8.98153e-19)
(3.00864 0.326307 2.3261e-19)
(1.96174 -0.156979 8.14945e-20)
(2.46239 -0.281205 3.46662e-20)
(2.16148 0.00882105 0)
(-3.10443 1.0513 0)
(1.74009 -0.247622 1.92976e-20)
(1.43735 -0.68331 1.85584e-20)
(1.9994 0.00771 -4.36911e-20)
(2.98294 -0.344791 2.03612e-19)
(2.96936 -0.357169 0)
(2.16965 -0.0186993 -3.51748e-20)
(2.43906 -0.126615 -3.62085e-20)
(1.97179 0.0309853 -2.15406e-19)
(2.9548 0.214497 -5.59495e-19)
(1.71061 -0.228338 -1.28695e-19)
(-0.615532 -0.322607 2.7425e-20)
(2.15543 -0.25252 -9.62282e-21)
(2.16785 0.0153539 6.38533e-21)
(1.62928 -0.0324054 1.03366e-20)
(1.9663 -0.858972 0)
(3.06841 0.80762 0)
(2.14759 -0.0105695 1.69399e-20)
(1.63962 -0.457685 -1.64389e-20)
(1.57411 -0.0623104 0)
(1.67323 1.18839 -6.37461e-19)
(-0.75468 0.153123 0)
(2.17479 0.945618 8.11768e-20)
(2.04813 0.192591 1.3397e-20)
(0.315218 2.26691 0)
(1.87533 0.321377 -1.59657e-19)
(1.74088 -0.247773 -2.86745e-20)
(1.88211 0.133348 -1.61688e-20)
(1.96741 -0.0641253 -2.92653e-19)
(2.57392 -0.741458 0)
(1.54722 -0.107991 6.40249e-20)
(1.75104 -0.227736 5.39664e-22)
(2.01447 0.0332577 5.01575e-20)
(1.70321 0.0532158 -2.19816e-19)
(0.853282 0.489379 2.82754e-19)
(2.09009 -0.106371 1.32878e-19)
(2.35306 -0.170728 2.86204e-19)
(2.21724 -0.134008 0)
(2.53033 -0.129558 8.59756e-23)
(2.38634 -0.145193 9.66784e-20)
(2.00076 0.00925937 6.4118e-19)
(2.42858 -0.505045 0)
(2.01093 -0.177017 -4.58734e-20)
(1.49736 0.253606 0)
(2.55293 0.394354 8.28095e-19)
(2.09141 -0.517456 -5.67884e-21)
(0.814421 -0.389529 2.09912e-19)
(2.55126 0.0206497 3.15359e-19)
(2.00617 0.138663 0)
(1.81925 -0.272934 -2.50869e-20)
(2.51212 -0.7447 1.49901e-19)
(1.70723 0.0582914 2.07575e-19)
(2.41225 -0.134066 -2.96901e-19)
(2.27518 -0.0353545 -9.88619e-21)
(-0.748351 1.17747 -5.12923e-19)
(1.95718 0.180832 1.48972e-22)
(2.27573 -0.0801962 0)
(1.15469 -0.435092 4.87246e-19)
(2.95315 0.829206 0)
(1.75284 -0.242419 -6.74753e-22)
(2.29804 -0.0436837 5.23932e-20)
(2.48376 -0.145816 -3.8404e-20)
(2.41123 -0.139079 3.76495e-20)
(0.25147 -0.178436 -5.84099e-19)
(1.97883 0.0326622 2.67349e-19)
(1.79462 0.0273939 0)
(-0.451074 0.541378 -2.6408e-19)
(2.27109 -0.137611 4.52578e-21)
(1.67085 -0.437332 6.56593e-21)
(4.14447 -0.744484 8.76106e-19)
(2.29444 -0.0139834 0)
(2.1302 -0.197047 1.11563e-19)
(1.83922 0.0895134 4.50382e-19)
(1.99076 0.0382868 3.44601e-19)
(3.21908 -0.421782 0)
(1.88811 0.0172707 -8.05398e-23)
(3.02951 -0.351973 -2.04543e-19)
(-1.42908 -1.11909 1.3122e-19)
(1.68596 -0.115065 5.11149e-20)
(2.27243 -0.123164 -4.30304e-21)
(2.02071 0.00611783 1.70502e-21)
(2.27118 -0.0924122 0)
(2.39297 -0.296357 -8.00817e-20)
(-1.97261 1.86202 2.4387e-19)
(2.36229 0.401952 -8.075e-20)
(1.99859 0.00987983 2.35249e-19)
(1.39655 0.0277024 0)
(1.77795 -0.241418 -3.07975e-20)
(0.469059 2.20803 0)
(2.97369 1.28332 -1.47395e-19)
(2.21328 -0.0196111 0)
(2.44667 -0.635986 -1.0647e-20)
(1.43959 -0.196731 -1.16223e-19)
(1.51636 0.66791 5.45934e-19)
(-1.51647 -1.0672 -5.6853e-19)
(2.28614 -0.676673 0)
(2.33903 0.0581329 -1.4689e-19)
(2.01061 0.145449 -1.7484e-19)
(0.46194 -0.438649 -1.74085e-19)
(-2.54923 1.58238 1.16179e-19)
(1.74423 -0.10583 -5.44061e-19)
(3.20882 -0.267735 1.9833e-19)
(2.06839 0.157428 1.38744e-19)
(1.59861 -0.512341 0)
(1.43955 0.187374 2.6441e-19)
(1.5926 0.0485215 -2.79901e-20)
(-1.07391 0.306158 1.08145e-18)
(-1.95325 1.71959 -8.53251e-19)
(0.702162 -0.585076 -3.96178e-19)
(3.04725 0.298577 0)
(0.439974 -0.521933 0)
(1.89117 1.01197 0)
(2.18661 -0.0627725 0)
(2.95543 0.168957 -1.01171e-18)
(2.42761 0.391128 0)
(1.42505 -0.362694 0)
(1.73922 0.0306062 8.27858e-20)
(3.10702 0.369639 -3.37113e-19)
(2.25382 -0.0925507 -2.7011e-20)
(1.73858 0.225895 8.08122e-19)
(2.00416 0.0103469 -8.8775e-20)
(2.08353 1.48821 0)
(3.1773 -0.151221 0)
(1.96385 0.0321537 2.30877e-19)
(2.033 0.0453904 4.17254e-20)
(1.3366 0.680591 0)
(0.285714 -0.122553 5.65071e-19)
(2.59874 -0.641502 -4.00693e-19)
(0.0253258 0.445684 0)
(2.30081 -0.0385433 1.94252e-20)
(2.00514 0.0302041 -2.66279e-19)
(1.09691 0.505339 -1.28564e-19)
(1.14737 -0.424169 0)
(1.99817 0.149696 3.15129e-19)
(2.58286 0.244632 0)
(3.04132 -0.352057 0)
(2.18086 0.178985 -2.40818e-20)
(1.96685 0.0450062 1.28567e-19)
(0.330856 -0.10275 -6.60107e-19)
(2.22167 0.622144 6.25563e-20)
(1.47396 -0.411697 -1.8222e-19)
(2.19538 -0.0545401 1.40371e-20)
(2.07142 0.154401 1.1099e-19)
(2.51901 -0.296782 1.97719e-19)
(2.74702 -0.553248 0)
(3.65967 -0.128173 4.48182e-19)
(1.4429 -0.139571 0)
(1.74955 -0.246447 1.76307e-20)
(2.2869 -0.0596332 0)
(1.53311 -0.0240897 3.19041e-19)
(-1.05702 -0.948099 -7.1467e-19)
(3.17339 -0.261636 0)
(-0.188304 0.115061 1.527e-20)
(3.20545 -0.166401 -3.89354e-19)
(1.67211 -0.303581 7.9512e-21)
(1.90305 -0.279066 3.61631e-19)
(1.4164 0.641756 -3.47978e-19)
(1.46153 -0.403563 -5.39413e-19)
(3.10427 1.26682 0)
(1.59924 -0.0216889 2.82709e-20)
(-0.807914 1.36005 -1.25034e-18)
(2.00154 0.155214 0)
(1.8694 0.150123 1.76041e-20)
(2.95737 0.0266787 -1.92041e-20)
(2.49784 1.08283 0)
(2.00424 0.0106587 0)
(-0.71725 0.553383 0)
(-2.03294 2.06694 1.27272e-18)
(2.5188 1.28396 4.56634e-19)
(2.68209 0.732979 -2.85864e-20)
(2.15067 0.90474 0)
(1.82556 -0.204316 3.02484e-19)
(1.87505 0.0794193 1.74468e-21)
(2.22433 0.573966 -1.45759e-19)
(-2.11893 0.526524 2.0027e-18)
(1.92937 0.103963 0)
(1.96859 0.196067 0)
(0.89266 -0.224359 -3.67688e-19)
(1.5689 -0.505083 -1.16056e-19)
(2.06227 -0.160903 0)
(1.59379 -0.748896 1.45469e-19)
(1.79642 0.0256813 -9.81613e-22)
(1.9392 0.143759 3.70885e-22)
(0.906344 -0.432027 0)
(2.0308 -0.0792534 8.78719e-20)
(1.61143 0.0222108 2.48538e-20)
(2.58217 0.221176 -1.09843e-20)
(2.08039 -0.546271 0)
(1.36782 -0.225568 -1.36365e-18)
(2.44924 -0.143449 3.94875e-20)
(1.99868 0.0523298 6.23173e-20)
(1.74561 0.027817 1.00466e-20)
(2.47673 0.719434 0)
(1.71828 0.224727 -2.14935e-19)
(2.95193 0.618067 -1.02089e-19)
(0.93002 -0.608553 8.92162e-20)
(2.0046 0.0259088 0)
(-2.83713 1.4278 -1.21175e-19)
(0.652953 -0.207409 0)
(2.00271 0.0257364 -2.48948e-19)
(1.99429 0.0309322 9.44994e-20)
(1.93845 0.00695074 -4.46439e-20)
(-2.03207 2.1539 0)
(2.25005 0.0132052 -9.75446e-21)
(1.18432 0.294602 7.52444e-19)
(2.6848 -0.555302 0)
(1.71676 0.0200057 2.55631e-19)
(2.92445 0.0996372 6.3733e-19)
(2.18841 -0.0202794 0)
(-3.13028 1.03834 4.85551e-19)
(2.00033 -0.817024 -7.1162e-20)
(2.04293 0.00124742 0)
(0.936488 -0.418592 8.89955e-19)
(1.8605 0.141563 0)
(1.91143 -0.846435 -1.46103e-20)
(-2.17957 1.79525 5.43432e-19)
(2.11705 0.210692 -3.45435e-23)
(2.44032 0.170366 4.99377e-20)
(1.43881 0.169678 1.37527e-19)
(1.89569 -0.301953 -1.30794e-19)
(2.28775 -0.615362 -5.28238e-20)
(1.94493 -0.846481 4.74707e-21)
(2.25372 -0.130517 6.27372e-21)
(2.46095 0.723438 -5.39369e-20)
(2.30325 -0.95057 0)
(1.99871 0.00666152 -2.08687e-19)
(0.17555 0.53084 -3.18726e-19)
(1.47138 -0.151143 0)
(1.47345 0.0938238 -1.2916e-20)
(1.46369 0.00877836 0)
(1.35511 -0.431959 4.77436e-19)
(2.42725 -0.754098 0)
(1.65394 0.004257 -8.29162e-21)
(2.31555 -0.0531858 -3.09691e-20)
(-2.97159 0.9224 8.75889e-19)
(-1.07061 0.754276 8.65675e-19)
(2.2087 -0.00322658 -3.69425e-22)
(1.73194 -0.798097 -3.28389e-19)
(1.96176 -0.521244 7.2237e-20)
(1.61323 -0.380771 0)
(0.379417 -0.206778 -3.33312e-19)
(2.74794 -0.418926 7.8561e-20)
(0.409101 -0.223877 -3.89392e-19)
(1.94056 0.166166 -2.09612e-22)
(1.59149 -0.6257 0)
(2.20604 -0.0271879 -1.80206e-21)
(0.293619 -0.11851 0)
(-2.60043 1.23184 3.28532e-20)
(1.06811 0.467369 1.48136e-19)
(2.05829 1.86192 0)
(2.28672 -0.448013 -2.36674e-20)
(1.5584 -1.40202 0)
(2.51635 1.01352 0)
(1.68163 -0.779193 1.75169e-20)
(1.52551 0.231273 2.14333e-19)
(1.671 -1.07845 0)
(1.84221 0.112085 -1.27293e-19)
(2.47914 0.555303 4.35268e-20)
(-1.85064 1.93563 1.05529e-18)
(2.45148 1.30617 0)
(2.16978 -0.0496684 0)
(-0.606602 1.18967 -5.3586e-19)
(1.9776 -0.120089 0)
(2.658 -0.0100489 0)
(-0.861337 2.61224 -6.04827e-21)
(2.226 -0.294545 1.2579e-20)
(1.9016 -0.433756 8.56292e-20)
(3.47946 0.306179 4.09924e-20)
(0.379897 -0.193461 7.08942e-19)
(1.99517 0.0262433 1.0649e-19)
(1.64906 -0.408172 0)
(2.11346 0.424619 -6.32155e-20)
(1.53205 -0.271329 0)
(2.37407 0.0217327 0)
(1.99594 0.0713285 0)
(2.17019 0.159264 -1.96851e-20)
(1.95213 -0.0641453 1.37919e-19)
(2.63328 0.15991 1.05065e-20)
(1.69898 -0.405395 0)
(0.209192 -0.116369 -4.78847e-19)
(1.92688 0.95659 1.34479e-19)
(2.09501 -0.694918 -2.82951e-21)
(2.20681 -0.195496 -1.38999e-19)
(3.61819 -0.416284 9.91274e-19)
(2.06065 0.064182 -1.50326e-19)
(-1.0535 -0.866938 0)
(2.42597 -0.131237 0)
(1.44217 0.660915 0)
(1.34622 -0.61213 -3.15207e-19)
(-1.46625 -0.571736 -1.23996e-18)
(2.07504 1.56596 0)
(2.13591 0.438549 0)
(2.33417 -0.290394 9.78793e-20)
(1.97161 -0.0210517 -2.27857e-20)
(1.85966 0.523407 2.90784e-19)
(2.38912 -0.894094 0)
(0.447572 -0.324938 -1.80877e-19)
(2.37557 0.0682833 7.92625e-20)
(1.53336 -0.470861 -2.88495e-19)
(2.21665 0.0576682 -1.22947e-19)
(2.21624 0.579816 1.97589e-19)
(3.33581 0.746454 1.10207e-18)
(1.34052 -0.619382 5.54377e-19)
(2.9878 -2.12397 7.58379e-19)
(2.74709 0.322012 -7.97044e-21)
(2.00115 0.00549913 -4.98893e-20)
(1.47324 -0.663424 5.89117e-20)
(2.02403 -0.761548 2.96534e-20)
(1.4732 1.68762 -1.07729e-19)
(1.58961 -0.738571 -5.86034e-20)
(2.54418 -0.1159 0)
(1.54067 -0.378104 -6.52577e-21)
(2.19786 -0.0483587 -2.84592e-19)
(2.73516 0.817236 4.12383e-20)
(1.50194 -0.438484 -2.73354e-19)
(2.06981 -0.668416 -3.85672e-21)
(1.93631 -0.00857177 1.35219e-19)
(2.37664 -0.0438127 -7.71952e-20)
(1.28228 -0.334216 -8.47914e-20)
(2.98602 0.327066 -1.2687e-19)
(1.27443 -0.246486 -7.13505e-19)
(2.12069 -0.033923 -2.36116e-19)
(1.26354 -0.310195 0)
(-2.946 0.994391 -1.95006e-18)
(1.92771 0.0372487 2.95221e-19)
(1.46009 0.00155792 6.15791e-23)
(-0.626317 0.411878 0)
(1.99292 -0.860472 0)
(1.99303 0.369801 2.59072e-19)
(1.14627 -0.251489 4.5765e-19)
(0.788244 0.548386 -2.48423e-18)
(2.4753 -0.621887 1.43018e-19)
(2.3759 -0.172565 -1.63505e-19)
(3.01178 0.802329 0)
(1.99639 0.406391 1.46926e-19)
(-0.295009 -0.446863 -2.065e-20)
(2.30565 0.989984 -7.53214e-20)
(2.10635 -0.228311 -9.77342e-20)
(0.425112 -0.2193 -1.15306e-18)
(3.54366 -0.485531 -9.1774e-19)
(3.70281 -0.142579 2.24446e-19)
(2.09517 1.077 0)
(2.75841 -0.652537 -1.17449e-19)
(1.94976 0.00580662 3.91599e-20)
(1.8914 0.054126 -7.1806e-22)
(0.9137 -0.444046 5.48929e-19)
(2.0843 -0.231081 1.49117e-19)
(1.82575 -0.261103 1.87184e-20)
(-1.84805 1.8058 -6.01407e-19)
(2.7041 -0.245197 -1.76113e-19)
(2.25187 -0.0306452 2.11145e-19)
(-0.62938 1.90226 -8.64101e-20)
(2.23029 0.932963 2.07351e-19)
(1.12776 -0.443119 -9.64904e-19)
(1.08281 -0.52722 -1.31684e-19)
(1.91869 0.0450338 0)
(2.87456 0.125552 9.30539e-20)
(-1.37259 2.62398 -4.44637e-19)
(1.43682 -0.221553 6.18338e-19)
(2.22159 0.164315 0)
(1.81497 -0.31579 1.32986e-19)
(1.3084 -0.561058 1.33887e-19)
(1.99787 0.0171371 -4.59287e-19)
(-0.289727 0.489024 -5.60077e-19)
(1.67746 -1.03491 -1.17538e-20)
(2.26028 -0.0927238 1.65085e-20)
(2.29603 0.0614581 2.19319e-19)
(1.94409 -0.857649 5.73542e-20)
(2.66557 0.199589 -1.8629e-20)
(-1.26717 -0.515091 -3.26619e-18)
(2.10895 -0.0478237 2.67042e-19)
(2.19152 -0.0477953 -6.31391e-20)
(2.12969 0.0814504 -4.13528e-21)
(2.14027 -0.024613 -1.14241e-19)
(1.24658 -0.566938 -2.59426e-19)
(2.70432 0.3152 0)
(-2.59723 1.73765 1.10172e-18)
(2.12613 0.069447 2.91878e-20)
(1.37306 0.515641 -1.0488e-19)
(2.40751 0.0441627 5.31696e-20)
(2.34396 -0.229566 7.58139e-20)
(2.00033 0.00838319 -3.96959e-19)
(2.06558 0.274831 8.38176e-20)
(0.276331 -0.102974 -5.81222e-19)
(2.69256 -0.00814792 0)
(1.77918 -0.2433 1.62865e-20)
(2.49907 -0.15977 3.93097e-20)
(1.60152 -0.61037 0)
(2.12296 0.0600537 1.74183e-19)
(2.53948 -0.136216 4.21277e-20)
(2.65638 -0.00152364 1.39758e-24)
(3.41803 -0.587051 6.1411e-19)
(2.2044 -0.211221 0)
(1.79278 0.264919 4.10016e-19)
(1.91425 -0.312528 -3.18803e-20)
(1.52708 -0.72314 -4.96829e-20)
(2.12356 -0.148216 0)
(1.5242 0.193217 -6.15618e-19)
(0.382616 -0.553205 -1.62234e-19)
(2.24196 1.3465 -6.03622e-21)
(1.28529 -0.270512 6.90076e-19)
(2.1824 0.0066485 -7.4007e-21)
(-0.924872 0.721347 6.47622e-19)
(2.03406 -0.101219 -1.77589e-19)
(3.53856 -0.0356166 -5.56567e-19)
(1.8314 0.089346 -2.62096e-19)
(1.95556 0.0141294 0)
(2.004 0.0158747 -1.86528e-19)
(1.61077 0.307057 4.83818e-18)
(-0.343872 0.436057 0)
(4.20233 -0.138979 0)
(1.89122 0.0523944 0)
(1.12079 -0.596692 0)
(2.02526 0.264582 0)
(1.21281 -0.242488 0)
(2.80414 -1.14707 -1.11472e-20)
(2.88493 0.872252 -1.00111e-19)
(2.53262 0.406219 0)
(1.77442 0.263607 6.18792e-19)
(0.940513 -0.83797 2.34587e-19)
(2.05919 0.160062 3.62593e-21)
(-1.20376 2.64715 -1.79053e-19)
(1.20834 -0.0315775 1.87854e-21)
(0.190156 -0.00793282 5.01509e-19)
(1.67737 0.00700228 -2.59273e-20)
(2.85542 0.0636285 1.46725e-20)
(2.00653 0.245019 -1.74487e-19)
(1.89398 0.124176 -3.67899e-19)
(1.87903 0.876287 -2.6343e-19)
(2.97624 1.22454 0)
(-2.69681 1.14566 4.68279e-19)
(1.38047 -0.4492 -5.22531e-19)
(2.01224 0.0223123 -5.70974e-19)
(2.7511 -0.444938 7.39124e-19)
(2.00682 -0.0157419 2.15152e-20)
(3.2658 0.158729 -8.40257e-19)
(2.2507 -0.196316 2.57993e-21)
(2.29225 -0.430088 8.39871e-20)
(2.0129 0.130445 1.82046e-19)
(1.61549 1.06894 0)
(2.25173 -0.539013 -4.52543e-20)
(1.75878 0.0101888 -7.89837e-20)
(2.34315 0.378963 0)
(1.97266 -0.271532 0)
(2.05112 -0.896908 -7.04431e-21)
(-1.55265 1.03248 7.24045e-19)
(2.74505 -1.23564 -4.61981e-19)
(1.85694 -0.0494694 0)
(1.9926 -0.0653685 -2.6629e-19)
(1.83616 0.147511 -7.1361e-20)
(-2.8855 1.36271 6.4918e-19)
(2.58413 -0.0767435 1.28412e-20)
(0.0468386 0.0965798 0)
(-2.75897 1.06976 4.90047e-19)
(2.57198 -0.111728 0)
(2.73553 -0.703017 1.26056e-19)
(2.09238 -0.191703 -7.55842e-20)
(2.00325 0.0121786 3.14036e-22)
(2.26474 0.649952 -3.10255e-19)
(2.45757 1.20355 -2.2783e-20)
(1.90786 -0.506391 1.74254e-19)
(-2.07138 0.76667 0)
(1.31545 -2.04023 -2.36002e-18)
(1.07236 -1.68683 0)
(2.59027 0.409264 -2.53138e-21)
(-2.89504 1.46364 1.28575e-18)
(4.61759 -0.22331 1.09186e-18)
(1.802 -0.243944 -1.65854e-20)
(-1.68621 2.51383 -1.4256e-18)
(1.32741 -0.646384 5.7403e-20)
(1.42217 -0.452522 -2.90739e-19)
(1.58389 0.0311788 1.00034e-20)
(1.87226 -2.02449 1.93889e-18)
(1.2884 -0.58284 2.1447e-19)
(1.47877 -0.47243 3.06805e-19)
(-1.57708 -0.23157 1.44591e-18)
(2.65546 -1.70348 -1.13815e-18)
(2.0435 -0.582542 2.55116e-20)
(-1.51585 -1.02321 5.6453e-19)
(2.4923 0.0442781 -9.67044e-21)
(0.915666 -0.915166 -1.96761e-19)
(2.27349 0.41302 -8.69192e-20)
(2.55156 -0.279251 0)
(0.957371 -0.581357 -8.58402e-19)
(2.10313 -0.0444214 -3.27066e-19)
(1.99352 0.0780491 0)
(2.56564 0.38446 0)
(0.369828 -2.18773 -1.19688e-18)
(3.70335 0.355364 -4.62819e-19)
(2.39803 0.235518 -1.53929e-19)
(2.21814 -0.28851 -1.92517e-20)
(1.86947 0.846133 2.29275e-19)
(1.38579 -0.0202413 7.42456e-20)
(-2.76512 1.62903 -5.63551e-20)
(1.76673 0.518566 0)
(1.51149 -0.500633 2.83308e-19)
(-0.175537 0.405014 1.35914e-19)
(-1.75938 2.41576 1.1018e-18)
(1.90926 -0.697715 1.74568e-20)
(2.13381 -0.915592 2.90228e-19)
(1.58744 -0.012796 4.83501e-20)
(1.88117 -0.232509 1.10297e-20)
(3.13626 -0.455758 4.91011e-19)
(-2.64124 1.64306 -7.76106e-19)
(2.38117 0.225367 1.1643e-19)
(1.9871 0.0292742 1.31035e-19)
(1.25486 -0.300934 -2.82848e-19)
(1.98451 -0.0981699 1.58024e-19)
(1.1557 -0.346661 0)
(2.36145 0.394961 1.45246e-19)
(2.01213 0.0353913 2.95976e-20)
(1.59278 -0.354403 -9.38778e-20)
(1.67894 1.55087 -8.00775e-20)
(2.00607 -0.574248 3.92741e-20)
(2.12729 0.0315224 4.93235e-20)
(1.4496 0.0397234 -4.49575e-19)
(2.39486 0.330777 0)
(1.79211 -0.222579 -3.41868e-20)
(2.22988 0.079771 1.66813e-19)
(2.41679 -0.218994 0)
(1.48471 -0.0546227 2.47464e-19)
(2.59409 -0.0793737 0)
(1.58621 1.54123 3.97567e-19)
(2.31502 -0.0238062 0)
(2.24782 -0.598513 0)
(2.43728 -0.0459954 1.88226e-20)
(2.37745 0.176636 9.62715e-20)
(2.91002 0.421126 -1.55654e-19)
(1.93593 0.091318 -1.69079e-19)
(1.51999 0.982592 -1.64015e-19)
(1.9971 0.0570818 -7.7995e-20)
(2.04809 0.273488 0)
(-1.0156 -0.910126 -2.41699e-20)
(2.48954 0.17047 -4.85686e-20)
(2.66687 -0.694839 -2.51818e-19)
(2.52977 -0.273871 0)
(2.76817 0.80782 7.22235e-20)
(1.97224 1.46914 -1.22645e-20)
(2.45169 0.0283355 -3.81671e-20)
(0.267723 2.45246 0)
(-0.693036 2.65038 5.27966e-19)
(2.02997 0.130428 0)
(3.10397 -0.374638 -2.34088e-19)
(-0.345118 0.165466 0)
(1.69769 -0.140601 0)
(2.94694 -2.26784 0)
(2.35561 -0.75973 0)
(0.179286 0.483224 -7.91882e-20)
(-2.12488 1.97612 -2.88664e-19)
(1.94267 -0.0556854 -2.07764e-19)
(-3.06836 0.960933 -1.09061e-18)
(1.37081 -0.607523 0)
(-2.67432 0.742789 -8.82481e-19)
(-0.488938 0.20249 -5.56948e-19)
(1.65564 -0.767739 0)
(1.60163 -0.572622 -2.64968e-19)
(1.47183 -0.219547 -1.23303e-20)
(2.26284 0.395162 2.23515e-19)
(3.12659 -0.629532 -5.09666e-19)
(1.88697 0.111372 0)
(2.58979 -0.572043 0)
(3.129 0.568228 8.50463e-20)
(2.01646 -0.666582 6.73518e-21)
(1.63086 -0.0469793 -2.08025e-20)
(0.431296 -2.25983 6.33876e-20)
(1.99983 0.00369059 1.39388e-20)
(2.89964 0.167871 -5.40457e-21)
(2.0129 0.130658 2.60637e-19)
(1.76583 -0.227394 1.74985e-20)
(2.08239 -0.495423 0)
(0.640912 -0.123637 0)
(2.66558 0.182265 0)
(1.66619 0.024591 0)
(1.87029 -0.331799 9.8555e-20)
(2.98933 0.149118 0)
(-0.598155 2.0863 9.61944e-19)
(2.80279 0.655096 1.08356e-19)
(1.44863 -0.489156 -4.66499e-19)
(0.844789 -0.763517 -1.19234e-19)
(-2.52116 1.5925 -5.76918e-19)
(-0.443302 1.91942 -4.59561e-19)
(1.88068 0.0531337 3.92966e-20)
(-2.48963 1.8749 -6.54049e-19)
(1.7516 -0.228577 2.83428e-20)
(2.4818 -0.0348015 0)
(2.40011 -0.0109251 0)
(1.35909 -0.604283 0)
(2.35356 -0.247589 -4.61827e-20)
(2.2952 -1.54089 0)
(1.78592 0.527607 0)
(2.00251 0.00618142 0)
(1.92355 -0.439933 7.98736e-20)
(2.05994 0.16206 -2.77569e-19)
(1.55127 0.0295271 0)
(2.94807 -1.07072 -4.04196e-19)
(1.97541 0.126471 -2.25967e-19)
(2.31891 0.916309 1.5431e-19)
(1.69106 -0.779745 8.73093e-20)
(1.85286 0.579292 2.58472e-21)
(1.98817 -0.959002 -6.54424e-21)
(1.92782 -0.299155 2.52625e-20)
(2.32161 -0.76904 -1.0758e-19)
(2.35737 0.181053 -1.28404e-19)
(1.62693 -0.0210201 -4.61811e-20)
(1.87419 0.0283354 -2.35627e-19)
(2.11373 -0.0461456 0)
(1.30941 0.456205 7.631e-20)
(1.99315 0.0344977 2.5035e-19)
(-0.118893 -0.689285 -1.4127e-19)
(2.24099 -0.19078 2.7709e-22)
(1.1754 -0.26872 -4.9935e-19)
(2.37641 0.16124 2.14358e-20)
(2.96455 0.649514 1.46566e-19)
(1.9959 0.0490132 0)
(1.47154 -0.353718 -2.21419e-20)
(1.84732 -0.0981604 -1.24704e-20)
(2.36915 -0.781756 2.34476e-19)
(-2.50822 0.673459 -2.24252e-18)
(2.11329 0.0339178 1.02967e-19)
(2.72272 0.258826 7.24516e-21)
(2.24449 0.0147417 5.4998e-21)
(2.60478 0.175923 0)
(0.758702 -0.429008 0)
(1.49965 -0.713617 1.43623e-19)
(-0.319827 0.45352 6.03393e-19)
(1.91064 0.0257883 1.53241e-22)
(1.99403 0.0365595 4.93928e-19)
(1.46782 -0.359304 7.10519e-20)
(1.49911 0.177257 0)
(1.84913 0.0414432 0)
(1.73229 -0.392718 -8.56603e-21)
(2.35518 -0.0143607 2.93776e-20)
(1.89157 0.569365 4.07833e-19)
(2.25114 -0.0798373 0)
(2.13504 0.00925118 0)
(2.36292 -0.486877 -2.45462e-19)
(2.09909 -0.141984 1.04526e-19)
(0.242241 -0.616706 -6.05675e-19)
(1.74385 -0.108714 0)
(1.35474 -0.24664 1.04075e-19)
(3.44681 -1.06148 -1.87806e-19)
(-1.41687 2.51071 -4.95531e-19)
(2.09497 -0.0257944 -1.98001e-19)
(3.28986 0.770016 0)
(3.69469 0.39629 3.78722e-19)
(0.640161 2.33239 -1.57198e-18)
(-0.0145681 -0.543614 0)
(1.70305 0.0264288 -3.10061e-20)
(1.94551 0.0655147 -1.69005e-19)
(1.6491 0.0180382 -1.48687e-23)
(2.04565 -0.132425 4.40172e-20)
(1.19637 1.0378 2.0865e-19)
(1.8701 0.0448474 0)
(1.16953 -0.4579 -6.59045e-21)
(1.43009 -0.354744 -6.67301e-20)
(0.697373 2.24204 -6.53056e-19)
(2.01508 0.24801 2.07074e-19)
(-1.81445 0.856631 3.21997e-19)
(2.06545 0.026984 -4.53688e-19)
(1.78407 -0.259464 -8.9599e-21)
(1.85673 -0.28213 1.8468e-20)
(1.87724 -0.40508 0)
(1.7297 0.0214193 -7.31407e-20)
(1.21601 -0.570638 1.70835e-19)
(2.28641 -0.0549139 -7.31224e-20)
(2.01327 0.0349369 -2.21661e-19)
(3.07623 -0.397804 2.04423e-19)
(1.77219 -0.199874 4.70916e-19)
(2.38472 0.0348342 1.20527e-20)
(1.83391 0.0463864 1.43695e-19)
(1.45805 0.0616104 -4.82308e-20)
(3.45237 0.357382 -4.4599e-19)
(2.24416 1.00675 1.37115e-19)
(1.12667 0.638314 1.96378e-18)
(1.86493 -0.0133536 0)
(1.49572 -0.539228 0)
(3.22661 0.962799 0)
(1.44503 -0.458202 3.69268e-19)
(2.16168 0.0667493 -3.62743e-19)
(1.82111 0.159313 0)
(1.63856 -0.365503 -2.61772e-19)
(1.81896 0.13244 0)
(1.87737 -0.302249 -1.60472e-19)
(2.64552 -0.731585 -2.80181e-19)
(2.04575 -0.469441 -4.1099e-20)
(1.94736 0.0448596 0)
(1.99608 0.0240796 0)
(2.46602 -0.234392 1.25279e-19)
(2.514 0.345345 -1.90869e-21)
(2.95021 -0.0211438 1.33155e-19)
(2.10543 1.55958 -8.53815e-21)
(2.15472 -0.0841057 0)
(1.91941 -0.677557 -2.53243e-20)
(-0.255026 0.458159 0)
(0.910056 0.725891 -2.99965e-19)
(2.47034 1.19811 0)
(2.69431 0.252996 -1.28014e-20)