/*--------------------------------*- C++ -*----------------------------------*\
| =========                 |                                                 |
| \\      /  F ield         | OpenFOAM: The Open Source CFD Toolbox           |
|  \\    /   O peration     | Version:  2306                                  |
|   \\  /    A nd           | Website:  www.openfoam.com                      |
|    \\/     M anipulation  |                                                 |
\*---------------------------------------------------------------------------*/
FoamFile
{
    version     2.0;
    format      ascii;
    arch        "LSB;label=32;scalar=64";
    class       surfaceScalarField;
    location    "0.7";
    object      phi;
}
// * * * * * * * * * * * * * * * * * * * * * * * * * * * * * * * * * * * * * //

dimensions      [0 3 -1 0 0 0 0];

oriented        oriented;

internalField   nonuniform List<scalar> 
20045
(
0.775474
-0.875746
0.100272
-1.6279
0.617043
1.01085
0.432539
2.46513
-2.89767
0.382313
-0.495453
0.11314
-1.31307
1.27689
0.0361787
-0.764191
3.12693
-2.36273
-1.59972
0.684373
0.915349
0.103485
0.67382
-0.777305
0.727277
0.654339
-1.38162
-1.13889
-0.272731
1.41162
-0.0773524
0.788614
-0.711262
3.10709
-1.6203
-1.48679
0.588743
-0.590701
0.00195866
-1.9157
1.47654
0.439167
-0.490024
1.65024
-1.16021
-1.62569
0.486797
-0.236279
0.431599
-0.19532
0.47411
-0.961726
0.487616
-2.48752
3.56309
-1.07558
-1.1379
0.0337635
1.10414
0.689363
-0.65365
-0.0357132
0.202211
0.386532
-0.242254
-1.38564
0.811409
0.932975
-1.74438
1.32772
0.192659
-1.52038
-1.02622
1.83763
0.38594
-0.414342
0.0284019
-1.46531
2.95769
-1.49238
2.61948
0.340651
-2.96013
-2.84788
1.73781
1.11008
-0.222135
-0.561587
0.783722
2.25219
-1.67024
-0.581952
-1.09327
1.87511
-0.781836
3.19955
-1.84579
-1.35376
-0.868358
0.971843
3.40311
-1.67371
-1.72941
2.16962
0.421808
-2.59143
-0.10336
0.623524
-0.520163
-3.17465
1.25527
1.91938
0.934676
0.769243
-1.70392
0.0855607
0.645649
-0.73121
0.281119
-0.389055
0.107935
3.23328
-3.20175
-0.0315226
2.23068
-0.742218
-1.48846
0.966125
1.26455
1.55492
1.55217
1.43665
-1.83426
0.397611
1.8388
0.864691
-2.70349
2.82487
-0.655248
0.162154
2.4662
-2.62836
1.97161
-3.33576
1.36414
2.85848
-2.11654
-0.741939
-1.29243
-1.52147
2.8139
-0.138831
-0.478317
0.617148
0.859905
-0.350345
-0.50956
-1.07921
-0.233858
0.229986
2.0948
-2.32479
2.58822
0.137134
-2.72535
0.988521
-2.0818
3.17293
-2.22959
-0.943342
-0.028791
0.736972
-0.708181
1.20117
1.97177
1.51136
-2.38415
0.872784
0.595321
0.0940424
0.771069
0.490644
-1.26171
2.45315
0.429174
-2.88232
-0.133939
0.481677
-0.347738
-1.00512
0.188039
0.81708
1.31337
-0.586089
2.87447
-2.94455
0.0700855
-0.346921
0.212981
0.382559
0.477346
-0.435338
-1.52994
1.96528
0.654297
-0.154312
-0.499984
2.6902
-0.382482
-2.30772
2.07183
-1.84185
-0.194736
2.88493
0.697246
-1.18727
-0.62295
1.47293
-0.849984
1.12863
-1.98894
0.860317
1.53102
1.78466
-3.31567
1.3599
-1.11716
-0.242747
1.96187
-0.450512
-3.0825
0.503316
2.57919
0.00737915
0.768094
-0.764222
0.968954
-0.204732
1.72436
-2.3805
0.656137
-2.353
0.0479402
2.30506
1.52812
0.291775
-1.81989
-1.32905
1.13194
0.197113
-2.47845
-0.0490939
2.52754
1.12569
-0.197072
-0.928623
0.631443
-0.929211
0.297769
-0.302007
-1.18631
1.48832
0.921463
-0.980896
0.0594328
2.19801
0.606556
-2.80456
0.377669
0.00827143
0.0425523
-0.527403
0.48485
1.85109
-0.916415
-0.366027
0.297803
0.0682244
2.3093
1.09381
-0.8067
-1.109
-0.590072
0.632624
-0.434634
3.02285
0.0357925
-0.800015
-0.206364
-0.159663
0.640121
1.85482
-2.49494
1.95771
-2.90283
0.945115
0.813699
-0.736322
0.634648
0.101673
-0.434048
0.541356
-0.107308
1.98117
-1.47671
-0.504454
-0.775965
0.637134
1.99602
-3.13893
1.14291
-0.315784
0.532717
-0.216933
0.084054
-0.523034
0.43898
1.71552
-0.387802
2.39692
0.802627
-1.79596
1.36062
2.05024
-3.0601
1.00986
0.435252
0.0388579
0.652121
-0.680912
-1.2168
0.992788
0.224012
-1.21694
0.153223
-0.916613
0.76339
2.04024
0.818241
1.68237
-2.17287
0.4905
2.34686
0.27674
-2.6236
-3.0153
2.39143
0.62387
-0.796182
-0.724184
1.52037
3.03083
-0.990591
-1.51009
-0.324165
1.73553
-1.0456
-0.689928
-0.0872061
0.116357
-0.0291507
1.71984
1.23123
-2.95108
1.84445
-1.7055
-0.138954
-0.494321
0.151527
0.342794
-0.518254
-0.218067
3.40828
-1.35803
-1.00389
1.07496
-0.0710745
1.66675
-2.70719
1.04044
0.917717
-2.21015
1.46553
0.913969
-2.3795
2.11706
-0.988431
2.92599
-0.359777
-2.56622
0.248025
-1.51157
1.26354
2.8297
-2.04852
-0.781172
-0.306872
0.593721
-0.28685
0.0814842
2.67838
-2.75987
3.1545
-0.535021
-2.45184
0.0496536
2.40219
-1.49207
1.29069
0.201378
3.00848
-1.47747
0.432015
0.927887
-1.91972
2.27076
-0.351042
-2.02098
2.45352
0.0397273
-0.626734
0.587007
0.465038
-0.547946
0.0829079
-0.0544121
-0.583416
0.637828
2.57236
-0.060502
-2.51185
3.65315
-1.72099
-1.93217
-0.693681
0.639269
1.77855
-2.78038
1.00184
0.343355
-0.0622361
-2.55118
-1.53338
1.94653
-0.413146
-1.96138
1.54497
0.416405
-0.0499283
-0.113778
0.163706
0.989867
1.83983
-0.013668
-0.0735381
0.956525
0.779005
-2.08821
0.168495
-2.22405
2.76076
-0.536708
-2.01428
2.28691
-0.272623
-1.82133
-1.25596
3.07729
0.161649
-0.853609
0.69196
1.20631
-1.44488
0.238566
1.98128
0.40741
-2.38869
0.0145508
-2.24565
2.2311
-1.29756
2.7631
0.610437
-1.67206
1.06163
-1.13313
3.12915
-2.48448
1.69499
0.789496
-0.34089
0.39833
-0.05744
1.09785
-3.0094
1.91156
-2.41076
0.945453
-1.83957
-1.1683
2.72738
-1.74957
-0.977817
-0.836832
0.922393
0.519162
-0.553441
0.0342786
-2.27866
-0.624334
2.90299
-2.2715
3.21178
-0.940279
2.92428
-2.00536
-0.918926
0.166341
-0.750126
0.583785
-0.663922
-1.58395
2.24787
-0.646183
0.56883
-1.28668
0.490494
-1.90258
-0.604516
2.50709
0.368163
0.0932081
-0.461371
0.178748
-1.71213
0.504866
-0.727
2.53768
-0.190828
-0.517412
0.414052
-0.550712
0.656693
-0.105982
-0.44509
3.01745
-2.39265
1.72873
0.664708
0.228887
-0.893594
-2.11869
0.455396
1.66329
1.04093
1.88336
3.14737
-2.04952
1.88416
-3.06907
1.18491
0.840949
-1.89254
1.05159
0.14585
-1.28375
-1.44338
2.0835
1.90941
-2.6736
0.434688
-1.88602
1.45133
-3.09424
1.62103
1.47321
-0.176048
-1.153
0.55495
0.456778
-1.01173
1.82612
-0.331763
-1.49436
0.0615238
-1.83622
1.9177
-0.785999
-0.217886
1.75057
2.5409
-2.45141
-0.0894872
-0.0348893
-0.434824
0.469714
1.9733
0.162033
-2.13534
0.510232
0.412998
-0.92323
0.0173817
1.68383
-1.70121
-0.772294
2.49666
1.73098
-1.12054
-0.260361
0.693076
-0.432715
2.26086
-0.594113
0.370752
-0.0320094
-0.338743
0.543686
0.17178
-0.715466
-0.428898
0.446589
-0.017691
2.77778
-1.84252
-0.935259
0.695072
-2.96657
-0.475234
0.0463359
-2.58387
0.785672
1.7982
2.58618
-0.711073
0.70702
-2.93107
3.65258
-1.74802
-1.90456
-0.0560301
0.424193
2.84091
-1.20014
-1.64078
-1.79805
0.358879
1.43918
-2.91429
2.93042
-0.0161258
0.908876
-2.06183
1.15296
0.464663
0.331218
-0.795881
-1.44079
1.8553
-0.414513
0.0991174
-0.636515
0.537398
-0.490115
0.174331
-0.520556
0.0865081
-2.03157
-0.871258
1.56583
-2.28171
0.715876
0.556485
-0.901125
0.34464
1.4181
0.834088
1.58138
-1.14669
0.090099
0.374939
1.55516
1.03102
-1.52616
0.101676
1.42449
0.940003
1.90091
1.20639
0.443852
0.847022
-0.290537
-0.881756
-0.0634159
0.945172
0.0699578
-0.410848
-1.81864
1.83602
-0.648203
0.886677
-0.238475
-2.7275
2.58674
0.140765
0.213645
1.53353
-1.74718
-0.517539
-0.411903
0.929442
2.27395
-2.47889
0.20494
-1.76337
-1.33087
3.41492
-2.40051
-1.01441
-0.347891
0.313002
2.26892
-1.36004
-0.846927
2.41276
-0.0600952
-0.734589
0.794684
2.66451
-0.34922
-2.31529
2.90118
-0.544509
-2.35668
-0.930835
0.87074
2.53407
-1.47979
-1.05428
-0.48585
2.3357
-1.84985
1.11049
-1.63622
0.525739
-0.665814
0.0611805
0.604633
-0.416695
0.236023
0.180672
3.07972
-2.37137
-0.708357
-1.64927
-1.36604
2.11395
0.426945
-2.44686
-0.280641
-0.16882
0.712506
0.708027
-2.52579
1.81776
0.0128073
0.506355
-1.56316
3.28301
0.960813
1.81697
2.96784
-1.92855
-1.03929
-2.81348
2.20896
2.14479
-3.18305
1.03826
-1.8693
-0.141108
2.01041
-0.730494
-0.548204
1.2787
2.65437
-0.875828
-0.176356
0.841064
0.852661
-0.184293
-1.48594
-2.11554
3.01406
-0.898524
-0.646606
0.095894
-0.209736
-0.0506253
0.373588
-3.28788
1.84298
-2.61528
0.546206
-0.915254
1.22923
-0.313978
-0.0213709
0.403684
-1.54256
1.00443
0.53813
1.16001
0.821155
-0.341849
1.02712
-0.685269
1.44706
0.397388
-1.84765
2.55568
1.73361
-0.205497
-0.656837
-1.46185
2.90502
-1.93848
-0.966537
2.87496
-2.87412
1.0416
1.83252
2.36498
-2.58275
0.217772
-1.35991
1.0579
-0.397739
-0.096582
-0.607677
-1.87077
0.881196
-1.66636
0.785163
1.28811
1.24596
1.97641
-2.8529
0.876482
0.698561
-1.64799
0.94943
-2.89633
0.543325
0.0303329
1.09536
-2.1383
2.82271
-0.6844
-0.707756
0.959284
-0.251528
-1.27781
-0.321915
-0.401019
-0.689225
1.09024
0.341456
0.00255335
-0.34401
-1.01869
-0.473382
1.14749
1.30589
-2.45338
2.70753
-1.76753
1.08638
-1.35221
-0.00769978
1.42703
-0.72847
-2.03524
-0.449245
-0.459433
0.642352
-0.182918
2.88101
-1.04221
-1.40475
2.26492
-0.86017
-0.388569
0.453983
-0.0654141
2.1732
-0.347076
-0.893384
-1.6324
-1.5212
2.78489
-1.26369
1.8421
-2.91415
1.07205
1.29515
2.11976
-0.391882
0.370542
0.0213398
0.273425
-2.14273
2.08331
-3.14963
1.06632
-0.135607
0.789904
-0.235965
1.91834
-0.523293
2.36628
-1.05027
1.89121
0.518425
-3.00594
-2.72598
1.86504
0.860941
1.93054
-0.339528
-1.59102
2.7742
-0.500258
-1.22685
-1.59888
-1.39665
1.12532
1.95123
-1.60098
-0.350255
0.964126
-0.930362
-2.1513
1.91533
2.58961
0.643671
-2.39371
0.988951
2.55293
-0.438976
0.48209
-0.659791
0.177701
-0.112627
-1.70921
1.82184
-2.70641
0.500726
2.20568
2.48528
-2.48528
-0.945587
2.71524
-1.76965
0.843744
-1.18559
1.94776
-1.30153
-0.646237
-2.74885
2.85215
-0.103298
1.04518
-0.140908
-0.904277
0.825671
-0.304745
-0.520926
0.393381
-0.91092
0.441139
1.63236
-2.47929
-2.42732
2.87052
-0.443203
-0.856837
2.00433
-1.01485
-0.0227283
1.03758
-0.427476
0.690699
-0.263223
-1.12885
1.2747
2.76754
-2.15118
-0.616358
-0.270043
-1.56253
1.83257
-0.7372
0.789218
-0.0520178
0.452875
-0.870186
0.417311
-3.16821
1.34649
1.82172
-0.356799
-0.138654
0.664189
-0.182099
-0.281847
0.853566
-0.571718
1.24782
1.83191
-0.735732
-0.279119
-0.289031
-0.759653
1.04868
-1.483
2.38792
-0.904918
-0.110366
0.38579
-0.275423
1.3652
-0.680826
2.3559
-0.124836
-2.23107
0.0905531
-1.27686
0.0100861
1.97119
1.3116
0.891922
-2.20352
1.42191
-1.20931
-0.212609
-3.02549
0.573645
-1.24761
0.622877
0.62473
1.01841
1.45706
-2.47547
-1.88331
1.7422
0.214046
-2.78943
2.57538
-0.445218
0.611558
-0.346659
0.396504
-0.0498441
0.064556
-0.946312
-1.74251
0.843605
0.898909
-2.04013
-0.543741
1.86937
0.584793
0.213031
-0.797824
-0.414374
0.0258051
0.544652
-2.13683
1.59217
0.475105
1.60464
-2.07975
0.798837
-2.14653
2.54783
-0.401302
-2.12306
1.63721
-0.221885
-0.192457
-1.25335
-0.708027
-0.81535
0.199743
0.615607
-2.5588
1.0758
1.95512
-2.22516
0.63171
1.92122
-0.923362
0.93619
-0.0128286
0.711795
-2.12832
1.41652
0.520305
-0.854615
0.33431
1.59139
-2.48477
-1.92996
-0.0843202
-0.97789
-0.027229
-0.128923
-0.674966
0.803889
1.00417
0.19521
-0.208972
0.0137624
2.32012
-1.30171
-2.28326
2.8924
-0.609138
0.79154
0.574031
-1.36557
-1.10307
0.657852
-0.7012
-0.11415
0.921752
1.02601
-0.823785
-2.23632
-0.668078
0.208644
1.85054
1.25746
0.476157
-2.34407
2.50622
0.0999975
-1.20766
1.10766
-0.279239
-2.46527
2.74451
0.373867
-0.390681
0.0168144
0.948748
-0.787099
-0.528272
1.63876
1.72598
-1.47796
-1.17066
-0.3719
-0.00757401
-1.23538
1.24296
1.20264
-3.02397
-0.189977
-1.48473
1.67471
0.113223
-0.600229
0.487006
-1.94207
0.151434
1.79063
2.86419
-1.9995
-0.0481191
0.298657
-0.250538
-0.669573
-0.0676278
0.587982
1.04976
-1.63774
0.425588
-0.522857
0.0972695
1.95919
1.16424
-3.12344
-1.19673
3.39474
0.331451
0.0100057
-0.776941
-1.67565
2.45259
1.24637
2.16191
2.49847
-2.02336
-1.08487
0.683851
-0.0785101
-0.338185
-0.910404
3.05519
0.450442
-2.24522
1.79478
2.84681
-0.41464
-2.43217
-1.13542
2.01273
-0.877308
1.17966
-0.73649
-1.50919
2.24568
-0.451294
0.725083
-0.273789
-0.928295
-1.39379
2.32209
0.23919
-0.666666
0.131007
-0.180935
1.48724
-2.41553
-2.0544
-0.568071
2.62247
-0.170838
-1.45124
1.62208
-0.00658666
3.27291
-3.41167
0.138757
0.661468
-0.389451
-0.272017
0.024047
-0.947408
0.753462
0.734856
-0.986442
0.255948
-2.25745
2.8674
-0.609949
0.1034
-0.751603
1.45403
0.663029
-2.52511
-0.676645
0.471275
-0.411068
-0.0602069
1.59773
-0.340269
-0.637829
0.702159
-0.0643307
-0.552143
0.65126
-3.43661
1.59704
2.67848
0.448449
-0.332991
0.785866
-0.631973
1.42351
2.46081
-0.828451
-0.658118
0.020289
-0.303759
-1.84754
0.811106
0.717833
-0.678106
-2.74136
0.0349498
-0.785989
0.663518
-0.143214
-2.99127
1.84884
1.14243
2.40715
0.467321
0.61284
-0.210448
-0.402393
0.855726
-0.798343
-0.0573828
-2.65796
0.984254
-3.05618
1.53498
-0.877391
0.70478
0.172611
0.0517302
-0.359755
0.308024
3.09793
0.0107712
-3.1087
0.579771
0.0383794
-0.618151
-0.411032
-0.805768
0.714033
-0.0825907
-0.333285
0.346089
-0.0128038
1.19413
-0.184224
-1.00991
0.0396534
-0.372939
2.51722
-1.91066
-0.0867667
-0.449292
0.536059
-2.90234
0.644892
0.0516709
0.135546
-0.725618
-0.497164
1.08196
0.133616
-0.0435171
0.749941
0.47883
-1.22877
1.17166
-0.400594
1.16519
-1.06519
0.680537
-0.596483
0.268625
-0.976381
2.17864
-0.61879
-1.55985
1.61958
-0.145608
-1.47397
-1.31295
-0.198613
0.528294
0.10176
-0.630054
1.04053
-1.30958
0.269051
3.25143
-0.0656709
-3.18576
0.552171
0.125474
-0.677645
-1.47532
2.0012
-0.525874
1.37036
1.58066
-2.95101
0.0537178
0.683255
-0.808835
1.3186
-0.509761
0.674484
0.274537
-0.949021
-2.27279
1.14757
1.12522
0.322796
0.0232926
-2.52402
0.469622
0.947246
-0.566219
-0.381026
1.35002
-1.80375
0.453721
-0.28672
-0.589026
0.519751
2.75316
2.44524
-0.404924
-2.04032
-2.50859
0.362061
0.989567
-1.6464
1.938
-3.16081
1.2228
-0.320574
0.875524
-0.0142128
-1.19032
0.901294
-0.493872
0.647095
-0.313809
-2.29161
2.60542
1.17736
1.09156
-2.10613
2.27319
-0.167058
0.500188
-0.629111
-1.88789
-0.709688
-0.377128
0.420302
-0.0431735
0.434684
-0.968765
0.534081
0.224586
0.0296044
-0.25419
-0.307125
1.65715
-1.76677
-0.788682
2.55545
-2.25008
-0.770302
3.02038
1.39834
-1.13437
-0.263964
-0.694314
0.0797003
0.614613
0.485484
0.109515
-0.594999
-2.85994
0.0974935
2.76245
0.071784
0.586736
-0.658521
2.31294
-2.59908
0.286135
-1.44333
0.966077
0.555504
-1.52158
0.0298915
-0.40702
-0.838741
-0.870001
1.70874
1.87668
-3.00981
-2.84208
2.46441
0.377671
0.510198
-0.0846106
2.1176
-0.663567
-0.229605
-0.70094
0.930546
-0.0323876
0.521557
-0.489169
-0.761854
2.35298
-1.59113
2.55719
-2.02913
-0.528069
2.9775
-2.89595
-0.0815545
2.34528
-1.14591
-1.19937
0.127315
-0.699661
0.572346
-0.885947
-0.0306657
-2.91966
2.50882
0.410836
0.141576
-3.06123
-0.439548
2.06214
-1.6226
-1.57728
-0.794085
0.612704
-0.515305
-0.0973994
-2.28835
-0.613995
-0.582323
0.394188
0.188135
0.835078
-0.324846
-2.6667
2.53145
0.135254
-0.698769
0.395385
-0.549697
0.62013
-0.0403588
-1.75086
0.310075
0.452318
-0.522922
0.0706043
-1.0411
1.08399
-0.04289
1.09481
-0.0496204
-0.766795
1.58961
0.583583
1.11308
-0.385212
1.15282
-0.767612
-0.451978
1.65829
-1.86939
1.17403
0.695362
0.331072
-0.00827575
2.28716
-1.10981
1.75859
-1.04679
-0.560222
-0.605416
1.16564
0.734271
-2.16572
1.43145
1.6532
-1.82404
2.93249
-1.27324
-1.65924
-0.0183026
-1.54761
-0.321782
-2.14617
2.97439
-0.828219
-0.131497
-0.745392
2.62956
-2.99572
0.707367
-0.657434
-0.00837939
-0.44045
0.264911
0.460538
-0.0139495
-1.44311
-1.55322
3.3593
-1.28747
0.53659
-0.78969
0.2531
0.174596
0.651074
-1.96746
-1.05945
3.02691
1.70011
0.954264
-0.00936105
-0.443855
0.453216
2.47234
0.440634
0.0382479
-0.478882
1.64556
0.533084
-1.08211
-2.91755
0.49023
-0.665302
0.0344264
0.630876
1.673
1.97958
0.660334
0.334489
-0.994823
2.81387
0.16363
1.76009
-2.48771
0.727622
-2.4645
-0.0192085
2.48371
-2.35137
3.05059
-0.699215
0.430958
-0.0140108
-0.416947
-1.09457
2.97125
0.184864
0.789645
-0.974509
0.104084
-2.21022
1.08498
-0.215012
-0.869972
-2.60885
3.40792
-0.79907
-0.736544
1.63699
-0.900446
3.42635
-1.50427
-1.92208
0.0295295
-1.79785
1.76832
0.359414
0.0370897
-1.26743
2.63778
1.67678
-2.62236
2.80605
-0.96395
-0.556778
0.470011
-2.59381
0.129315
2.99852
-1.0221
-0.0264854
-3.05602
0.722625
-0.0769758
0.785085
1.70259
-2.48768
1.64803
-0.42325
-1.22478
1.87867
-2.87014
0.991468
-0.524028
0.0327866
0.491241
-0.600931
-1.41204
2.01297
1.07924
-0.810613
-0.727947
0.883513
-0.155565
0.484975
0.734432
-1.21941
0.240563
0.372141
-2.54338
2.94729
-0.40391
0.344836
0.029031
1.3143
0.632278
-1.94658
1.15432
1.08323
-2.23754
0.481467
1.44908
-0.053484
2.97948
-0.0307263
2.39237
-2.36164
-0.0875721
-0.0227943
0.547584
-0.463888
-0.0836957
1.90513
-1.5747
-0.330439
1.32747
1.60501
0.565682
-0.196256
-0.369426
-0.819869
2.4005
-1.58063
0.0184856
0.509442
-0.527928
0.7631
-1.95714
1.19405
-1.31891
-0.450384
1.76929
2.24774
-0.274435
0.841247
0.806781
-0.247522
-1.35002
1.59754
0.835242
-2.39777
0.162941
0.620864
-0.783805
0.58351
-0.196171
-0.387339
0.0182553
0.341159
-0.228773
2.59725
-2.36848
-0.299277
2.76548
2.3035
-1.89708
-0.406421
1.90215
-1.61037
-1.5976
0.589587
1.00801
-0.0679576
-1.23357
-0.640903
0.526896
0.114007
0.192952
0.419888
0.454147
2.21216
-2.66631
0.635297
0.558833
0.417234
-2.66731
-1.33201
0.545795
0.786211
-0.954775
-0.731032
1.68581
1.44443
-0.694485
-2.47478
1.61794
1.17801
-0.928402
-0.249611
-1.66879
2.39922
-0.730426
-1.2819
1.37245
-1.35936
1.73401
-0.374651
-2.05952
2.86285
-0.803326
-0.0685277
0.639469
-0.570941
0.491881
-0.440151
-1.12292
-1.92135
2.95275
-1.0314
-1.5739
2.0293
1.4893
-1.53663
0.0473285
-0.169754
-0.649392
0.819146
-3.00783
2.11816
0.88967
0.0188117
-0.333807
0.314995
-0.0455818
1.59057
-2.35243
1.99418
-1.25991
-0.819434
-1.90655
-2.09977
2.06904
1.44901
0.0959604
0.988896
0.526217
-1.51511
-0.989072
0.923432
0.0656397
0.939553
-0.843555
-0.0959977
0.522294
-1.25246
0.730164
-0.857334
1.19185
-0.334513
-2.23434
-0.477283
2.71162
0.601482
-0.771236
1.33023
0.574903
-2.86859
2.11721
0.751375
0.714759
0.18493
-0.899689
0.0173281
0.55525
-0.712512
0.157262
-1.92184
-0.771731
1.29403
0.421597
0.606359
-0.479044
0.879802
-0.445118
0.693645
-1.41783
0.0950516
0.826412
0.732789
-1.72128
0.988493
-1.67243
-1.22837
2.90079
0.766418
-1.01394
-1.55718
-0.141932
1.69911
0.397605
0.534664
-0.932269
0.114388
3.29914
-2.13942
-1.15973
0.582935
1.86231
0.0134008
1.23475
-1.03456
-0.200192
-0.782143
1.90628
-1.12414
-1.69204
-0.59146
2.2835
-1.3513
0.542467
-1.1414
-0.456202
3.51896
-1.3544
-2.16456
-0.736539
0.0805656
0.655973
1.08997
0.23
-1.31997
-0.50835
0.580134
-0.218297
1.00493
-0.786638
-0.186366
-0.0687279
-0.624954
-0.0376204
2.11636
1.4026
-1.48061
2.73588
-0.778111
2.51592
-0.742628
0.00608902
-2.43824
0.746199
2.11477
-1.84135
-0.34176
-1.8843
0.408977
1.49545
-1.93499
1.98052
-2.09314
2.42417
-0.0591953
-0.583285
-0.345926
-0.683355
-0.330927
1.01428
-0.887415
-0.0934812
2.10744
0.391773
-2.49921
0.021504
-0.745859
0.724355
0.00584045
1.09572
-2.91778
1.82206
2.49331
-0.180371
-2.61647
2.67625
-0.0597772
0.631633
-0.443595
-2.69308
-0.314744
-0.912961
2.54647
-0.0376482
0.792018
3.02328
-1.17524
-1.84803
-1.71448
-0.212929
1.9274
0.174174
1.47716
-1.65133
-2.04397
0.101901
-0.571843
-0.303707
0.87555
-1.34024
1.79069
0.423959
1.50412
-1.92808
-1.29233
-0.149276
1.44161
-2.58771
0.207639
2.38007
0.398797
1.59538
-0.681602
1.44558
0.899699
-0.760652
-0.486954
2.08691
-2.44669
0.274902
-1.0705
0.795594
-0.766699
0.820417
1.99382
0.112016
-2.10583
1.76484
-2.54295
-0.180393
0.645056
-0.591673
1.79006
-1.19839
-1.67479
0.836044
-0.0446988
0.813199
-0.768501
0.591812
-0.0216349
-0.570177
0.730744
0.218004
-0.771971
1.76154
-0.155145
-0.722246
-0.463255
0.493147
1.05709
-0.644089
0.869537
-0.538319
-0.584415
0.559895
0.0245204
0.604132
-0.674459
0.0703273
-2.07736
1.69488
0.256026
-1.81321
-0.0294249
-0.807407
0.0229646
1.62273
-1.6457
0.947937
-1.01135
1.0236
-2.05607
1.03247
-1.31195
2.13737
-0.825418
0.772087
-2.88762
0.303919
-0.0615422
-2.78053
1.26317
2.09614
-2.14157
-0.333211
-1.95327
-0.920847
-1.21501
0.525783
-0.380088
-0.0478188
0.427907
3.28327
-1.61027
2.7659
-0.682591
-0.677574
-0.459875
1.13745
-2.7347
1.06432
1.67038
0.795635
-0.00702041
-0.493537
1.45961
0.478159
-0.275949
-1.13638
0.885708
-0.700844
-0.180413
0.809616
-0.629203
-0.322456
2.4299
0.54297
-0.717533
0.174563
2.63298
-3.44019
1.62755
1.81264
0.675922
0.608025
-1.28395
1.83625
-1.5837
-0.252544
-1.53511
0.798569
-0.796032
-0.0672718
1.15724
2.64867
-2.92791
1.19176
-0.517275
-1.17507
2.01031
-3.01879
2.11949
0.899293
0.848887
-2.0508
1.20191
-2.02347
2.14302
-0.119547
1.09686
-1.54884
0.0391085
0.59618
0.802156
-0.155878
-1.83307
0.63294
-2.71598
1.05789
1.65809
0.73867
-2.45315
2.19028
-0.0863692
-1.71169
0.355483
1.29801
3.01452
-1.01509
-1.99943
-0.579167
0.770432
-1.72521
0.470804
-2.76376
2.55083
-1.89347
1.15698
1.42052
-2.40507
1.83768
0.567394
-2.75467
1.80548
0.949195
-1.03214
-0.387467
0.50069
-2.84176
2.00625
0.835515
1.82507
-2.91965
-2.47994
-0.0634427
3.14741
-1.2094
2.61473
-1.30031
-1.31442
-0.0705175
-0.452245
0.522763
0.459446
1.4096
1.57114
-2.06756
-0.337508
0.459403
0.619834
0.609621
1.05787
-1.66749
1.10364
-0.646859
-0.149492
-2.87709
3.02658
-1.02951
1.02219
-2.31975
-1.71784
-1.12296
2.84079
0.727145
-0.924216
-1.971
0.65643
1.31457
-0.0276919
0.125984
-0.0982916
2.51372
-2.82752
1.20796
-1.79963
1.42528
0.551264
-1.97654
0.772268
-0.235678
-2.31933
0.658335
1.661
-1.84998
0.531069
1.09962
-1.88177
1.1541
-0.879202
0.0465656
-0.0742576
-0.128649
2.97546
-1.75191
2.18513
-0.433225
2.87294
-0.011517
-2.86143
-2.1874
-0.0453006
-0.869953
0.12097
2.36431
0.361406
0.0925765
0.288337
-0.0784476
0.922191
1.48364
0.203676
0.735877
-2.48542
-0.18129
-2.59126
1.26793
-2.46807
0.512757
0.532337
-1.04509
2.57442
0.126789
-2.7012
-0.326063
0.312052
-0.954351
-2.10183
-2.24371
-0.339037
-0.863974
2.62881
-0.940515
1.32026
-0.379746
-2.45865
0.78622
-0.833152
1.44277
-1.20432
-1.78695
-0.717629
-0.799078
1.03764
-1.32336
0.282255
2.99288
-0.446413
1.83001
-1.54042
-0.28959
0.367081
0.325995
0.754993
2.87015
-2.6561
-0.0368663
-0.638511
0.936279
-1.40161
1.50328
-1.30955
-1.53968
0.607024
0.506272
-1.1133
-2.53665
0.0513766
-0.339951
2.1821
-1.84215
-0.312481
-2.30399
-1.98549
2.14752
3.27936
-1.42741
-1.85195
-0.25829
0.881167
2.4714
-1.18001
-1.29138
0.753181
-0.821909
0.00634932
0.541234
-0.451236
-0.00578899
0.457025
-0.482142
1.47104
-1.13759
2.96266
-0.070605
-0.4447
-0.785319
-0.249028
1.03435
-0.00898256
2.5227
0.677918
0.311448
-0.989366
-1.03997
1.62795
1.19986
1.20064
-1.01199
-0.32002
1.47693
-0.520712
-0.956218
-0.294484
0.239855
0.0546297
0.17197
-2.09836
1.92639
-2.62638
0.382663
0.626672
-1.21789
2.48583
-0.0174653
0.770646
0.390279
-1.33079
-2.90258
1.50594
-2.60112
0.880138
-1.29365
0.164807
-1.10638
-1.63578
2.74216
-2.86065
-0.0496348
-0.512497
0.562132
2.31846
-1.81514
1.83542
-1.66124
0.461779
1.49964
-1.96142
0.513043
-1.08489
-1.99781
-0.790518
2.78833
-0.339065
0.888021
-0.548956
-1.2283
2.27159
-1.04329
2.44359
-1.69711
-0.746489
2.48337
0.082597
-2.56597
-1.36066
-2.07953
-0.898281
-0.0796093
1.09659
1.93425
-0.0425224
0.281276
-0.238754
-1.85072
-0.468615
1.93936
1.62373
-1.51358
1.84827
-0.334692
0.557135
-0.518888
0.403247
1.29115
-1.6944
-0.15501
0.69798
-0.288622
-2.55314
-2.6985
1.23813
-0.0601214
-0.42063
0.925495
0.274322
2.03095
-2.30527
-1.43971
-0.311152
1.85827
0.849258
0.20617
-0.724424
1.87101
-1.8609
-0.010109
0.26195
-1.03926
0.777309
1.77368
-0.240148
0.761961
2.35444
-1.06633
2.47078
-1.44859
-0.324509
-0.701282
1.02579
2.11293
0.222769
0.061099
-1.88548
1.28455
2.21276
-2.22174
-1.23161
-1.0926
2.3242
-1.57871
-1.15599
-2.69603
2.75389
-0.0578561
-0.308431
-1.06864
0.737712
1.61
0.744439
0.217203
-0.861556
0.644353
-0.964056
-1.9805
-0.549423
-2.08217
2.6316
2.73859
-1.03848
-0.705194
0.868135
1.61937
-2.57372
1.2639
-1.07124
-1.19589
2.79526
-1.59936
1.05887
1.36553
0.885774
-2.2513
2.76029
-1.73373
-1.02656
-0.973998
-1.97919
2.82966
-0.850464
1.58226
0.247749
-0.804689
0.787224
1.17008
2.25627
-0.614774
0.544256
0.197031
-0.00182169
2.7191
-1.48786
1.2831
2.00016
-1.16138
0.620065
0.541317
0.709365
-1.26959
2.12613
-0.132308
1.61832
0.99641
-1.91582
-0.180678
2.0965
0.535537
-0.0821492
-0.453388
0.436278
0.22519
0.423114
-2.77449
-0.784715
0.849271
1.95947
-1.71399
-0.245481
0.430773
1.04616
-0.431103
0.220655
0.672113
0.678068
-1.35018
-1.22512
2.21364
-0.168826
-1.22469
2.93842
-1.71373
-0.701446
1.18642
0.0646244
-1.35695
2.99112
-1.46362
-0.983239
1.64742
0.18883
0.837396
-0.866821
-0.503721
0.435193
-0.798713
-0.401991
-0.0123822
1.2756
-0.405198
2.2491
-1.8439
-0.781126
0.499279
-1.04745
0.34651
-0.918025
0.0197441
-2.61793
1.84098
0.645071
0.673524
0.283086
-0.964763
0.681677
0.649293
0.319662
2.2082
1.24999
-3.45819
-0.291836
-0.0551354
0.346971
-0.0547995
-2.22847
2.15915
1.1202
2.21846
-1.94414
-2.8896
-0.115907
-0.288135
-0.292695
1.28005
1.74892
0.88016
-2.62908
1.03098
-0.0830446
-0.0840544
-0.892381
-0.269001
-1.60756
-1.41059
1.34263
0.98944
1.90296
1.62807
-1.56351
-0.0645639
0.539524
0.020371
-0.162116
0.699051
-0.0949189
2.18325
0.631452
-2.8147
-1.01439
0.833978
-0.634836
0.389739
0.245097
-0.956674
0.0115385
0.945135
1.2459
0.911799
-2.1577
0.644859
0.799567
1.92511
-0.0451348
-0.73083
1.00063
-1.07908
-0.337004
0.469651
-0.132647
-2.67982
1.51152
2.41625
-1.92464
-0.491604
0.046189
-0.418571
0.372382
2.40758
-2.63635
2.49779
0.240798
0.51262
1.3228
-0.368346
-0.0336453
0.90733
-0.759223
-0.148107
-1.45937
-0.358073
3.00908
-1.53391
-1.47517
2.40721
-1.05888
-1.34834
1.11956
-1.92606
0.806507
0.124879
1.4443
-0.0172671
-0.187032
1.36338
-1.17635
0.20158
0.70575
-1.01032
-0.622191
-0.0953423
2.61612
0.0162892
-2.63241
-1.10826
1.187
-0.454208
-0.392143
0.195887
0.209335
1.58073
-0.552387
0.776973
0.117834
0.0276741
-0.343965
0.379757
-1.05794
1.51972
0.0451408
0.672692
0.270031
-0.796222
2.21432
-0.00707094
1.63514
-0.436091
-0.334358
-0.670673
1.34279
-0.553897
2.1508
-1.5969
-2.19518
-0.32884
-0.963935
2.07327
-1.10933
0.151164
-0.773355
0.850182
-0.176362
-0.0579712
-0.651047
0.709018
-2.17486
0.711235
0.327743
-0.375862
1.28323
-3.25069
0.888825
-2.56447
-0.701708
1.63468
-0.891249
1.38479
-0.706726
0.0368567
-1.77761
1.94958
-0.00178335
-0.433041
0.297977
-1.43235
-0.270283
-1.63239
1.90268
0.808181
0.805642
3.25913
-2.10234
-1.1568
-0.607985
0.178524
0.634307
0.0605904
-0.694898
-2.16496
0.413055
0.528171
0.0553386
-0.0209595
-0.359243
0.380203
1.23346
-2.1974
0.277155
1.19575
0.122918
-1.31867
-2.3791
1.82521
0.417236
0.106023
-0.523258
0.994464
-2.91582
-0.391136
-0.00638789
0.397524
0.543071
-0.125835
0.010578
1.94872
-1.46725
1.62382
1.34683
-0.701972
-2.50842
0.790582
-1.80816
1.48297
0.325196
1.08331
-2.31492
-1.31944
-0.829236
2.14867
0.21362
1.07707
-0.801773
0.660865
2.91251
-0.362349
-2.55016
-0.0139815
-2.47143
2.26052
0.22285
1.36127
1.11012
-0.432641
-0.0112137
0.419988
-0.765849
-0.90051
0.116249
-0.127091
0.0108414
0.0553783
-2.70937
2.65399
-0.114549
0.76462
-0.650071
0.772704
-2.43445
1.66174
-0.222249
-1.48325
-0.082836
-0.0927228
1.77482
-0.884282
-0.543146
1.42743
-0.984757
-1.05538
1.18719
-0.680916
-0.69036
0.0729755
0.617385
-0.694663
0.977749
-2.54724
-0.340828
-0.135368
0.476195
0.351209
0.827305
-1.17851
1.78661
-2.66989
0.883281
0.115728
-1.50137
0.412891
-3.02174
-1.35578
-1.62624
2.98202
-2.52736
0.122091
2.40527
-3.11259
-2.10078
0.0773081
-0.739874
0.770264
-0.0303896
-2.61354
-0.97373
3.15698
1.00091
-0.522083
0.217467
-0.88814
-0.458384
1.25795
0.412043
0.253441
-1.03876
0.0497742
-0.421985
0.372211
-0.415853
0.108981
-0.287311
0.3335
-0.718511
1.39443
-2.89215
1.82463
1.06752
-0.928363
0.752007
1.56675
0.553705
-0.0181674
-0.668283
0.885486
-1.23989
-0.731109
-1.44764
0.527516
0.920121
-0.0824955
-0.53276
0.615255
-1.07092
1.33287
-0.241079
1.90437
1.5843
-0.906383
1.39962
-2.38437
1.2196
-1.5233
0.303706
0.302454
-0.00379606
0.393354
-0.0228118
-2.76065
1.65427
1.13462
1.27259
0.0395387
-0.543411
0.503872
-3.39132
1.37034
-0.538589
0.710369
-0.51956
-0.0493577
-0.584662
0.63402
-1.48011
0.595831
-2.71015
2.42153
2.23031
-0.805032
-0.618435
0.556744
0.0616914
0.174716
-0.585784
-0.412096
-2.94887
1.18411
1.76476
-0.391479
0.336344
-0.248757
0.882706
-0.633949
2.45314
0.0446548
0.0235963
0.355906
-0.379502
-0.696458
0.741599
0.474499
-0.610106
2.00327
-2.40874
2.60614
0.207726
-1.41714
-0.963361
2.53636
-0.0893183
-2.44705
0.16179
0.536676
-0.698465
1.50701
-2.95012
0.815464
0.435914
-1.25138
-0.0323006
-0.17603
0.208331
-2.25616
2.26673
-0.010576
-0.613232
1.63684
1.156
1.4012
2.67265
-0.90965
-1.763
-0.0391139
-0.425371
0.464485
0.713301
-0.835096
-0.0508509
-0.812236
-0.0228606
0.132584
-0.923073
0.790489
-0.218026
2.46
-2.24197
-2.34275
0.821322
1.52142
0.798176
2.29975
0.107994
0.111376
-0.21937
1.45644
0.675838
-2.13228
-0.0834607
-0.296628
-1.02934
2.68346
-1.65412
-2.10862
0.1928
1.73782
0.753772
-2.07321
-0.00520557
-0.321368
0.326574
2.20398
-0.385258
-1.81872
0.626696
0.581497
-3.11213
1.55891
2.67934
-2.82883
-1.34982
0.275106
1.07471
-0.415226
-0.00556315
-0.562364
0.567927
0.326326
-0.607638
0.281312
-0.0250783
0.345336
-0.320258
-0.52174
0.541372
-0.0196317
-1.47948
3.09886
-0.784508
0.776934
0.352853
-0.60161
0.977997
-1.44918
0.471182
-1.75299
-1.2658
0.620405
-0.134921
-0.349955
-0.0225397
0.372494
2.96989
-1.05944
-1.91045
0.311011
1.64846
-0.641434
-0.347637
-1.50833
0.272945
0.439569
1.41736
-1.85692
-0.0371697
-0.0211008
0.0582704
-0.0649309
0.920657
-0.860575
-0.432188
1.29276
2.32415
-1.22627
-1.09789
-2.61397
0.322365
0.620995
-1.65249
0.711832
0.940663
1.75039
-2.27368
0.651132
-0.515586
0.354248
0.0391057
-1.13608
1.68817
-0.552094
0.401241
0.0769186
-0.349923
-0.303726
-0.640397
0.569792
0.673518
-0.548044
-0.867908
1.76514
-0.89723
1.89667
-1.15868
-0.737996
1.71648
0.0572051
0.647907
0.141312
-0.616206
0.508898
-0.130578
-0.986577
0.355497
-2.38462
-1.3604
1.17336
0.678751
-0.569236
0.37529
0.167781
0.104531
-0.136832
2.32743
-2.35754
0.0301103
2.7725
-1.29082
0.570891
0.719924
0.274635
-0.913146
-0.800569
-2.31838
-0.651427
0.569277
-0.453629
-0.707228