/*--------------------------------*- C++ -*----------------------------------*\
| =========                 |                                                 |
| \\      /  F ield         | OpenFOAM: The Open Source CFD Toolbox           |
|  \\    /   O peration     | Version:  2306                                  |
|   \\  /    A nd           | Website:  www.openfoam.com                      |
|    \\/     M anipulation  |                                                 |
\*---------------------------------------------------------------------------*/
FoamFile
{
    version     2.0;
    format      ascii;
    arch        "LSB;label=32;scalar=64";
    class       volVectorField;
    location    "0.7";
    object      U;
}
// * * * * * * * * * * * * * * * * * * * * * * * * * * * * * * * * * * * * * //

dimensions      [0 1 -1 0 0 0 0];

internalField   nonuniform List<vector> 
13486
(
(4.47057 -0.803048 9.22116e-21)
(5.05588 0.737389 4.05824e-21)
(6.35338 -0.00190587 0)
(3.67719 -1.97161 -4.01393e-21)
(7.04229 -1.63581 2.8135e-21)
(6.94947 0.256741 4.25698e-22)
(7.83786 -1.29777 5.34732e-23)
(6.03102 -2.21863 -4.84358e-21)
(5.83644 -1.22181 0)
(6.08579 1.7474 0)
(4.31705 -3.04074 -3.29643e-21)
(6.92514 0.162571 0)
(4.10857 -1.35792 -9.25373e-21)
(7.35669 1.43178 1.04713e-21)
(7.48051 -1.09637 1.30528e-21)
(5.99832 1.87959 -2.1624e-21)
(-3.23564 -0.247299 7.8859e-21)
(1.16161 -2.5731 -1.47936e-20)
(6.79797 0.118049 4.02179e-23)
(4.91374 -0.262689 -9.06885e-21)
(4.38405 -2.44532 -1.54671e-21)
(4.15135 -1.38427 1.19214e-20)
(5.16981 0.690035 -3.25096e-21)
(5.96637 -1.46501 0)
(6.30736 1.40551 6.24904e-22)
(5.99465 -1.38955 -1.04062e-21)
(2.84303 -1.71754 2.13655e-21)
(6.31764 -0.0802869 4.07687e-21)
(6.06879 0.00627129 0)
(5.88255 -0.462569 -2.2482e-21)
(4.03136 -2.12304 -1.05239e-21)
(7.8371 -0.456831 -1.45055e-21)
(6.83307 -1.05757 3.44965e-21)
(5.75314 -0.158693 0)
(6.06403 -2.1375 0)
(5.88269 0.0801078 1.22732e-22)
(5.97256 0.10112 1.69817e-22)
(4.90786 -2.28878 4.7962e-21)
(5.70471 0.152089 -3.97723e-23)
(5.84226 -0.756844 4.56369e-21)
(7.42637 -2.53906 0)
(3.56123 -1.71691 -1.09634e-20)
(6.20628 0.0711119 0)
(6.31458 1.17949 -3.16383e-21)
(6.27397 1.19495 1.27701e-21)
(7.01144 0.289732 1.38142e-21)
(6.93538 -8.39629 3.94191e-20)
(5.97636 0.0672081 -1.27255e-24)
(5.98286 0.131523 -1.27708e-22)
(6.97812 -0.138168 2.41373e-21)
(6.11918 0.152444 4.8957e-21)
(5.73345 0.0368615 0)
(7.18209 0.602424 -1.64876e-21)
(5.0211 -1.87015 -6.94083e-21)
(2.56942 -1.60462 0)
(7.00286 -1.67797 -1.91287e-21)
(6.02102 0.03128 -1.59712e-22)
(5.84058 0.0835126 -3.35481e-22)
(6.79442 -1.03693 4.09847e-21)
(5.97844 0.110319 0)
(4.59099 -2.74706 -3.37142e-21)
(5.91242 0.119007 0)
(8.69885 -2.41058 -6.87804e-21)
(4.39869 -2.3954 -1.88496e-23)
(4.90813 -1.46531 0)
(6.00594 0.186214 8.6115e-23)
(3.67448 -1.94388 -3.92314e-21)
(4.34436 -0.0148468 3.0373e-21)
(5.84665 -1.31169 -2.64328e-21)
(5.93527 0.114581 2.83739e-23)
(3.3504 -1.69028 4.52995e-21)
(1.31258 -1.82459 -4.39137e-22)
(5.86735 -0.482815 3.37743e-21)
(0.926995 6.33927 -2.33904e-20)
(5.94772 0.0853873 2.21203e-23)
(6.02982 0.12537 4.30814e-23)
(6.07736 0.0464141 -6.53614e-23)
(7.51731 -1.15597 -5.41361e-22)
(5.51958 -7.84524 -1.26715e-20)
(5.24205 0.179589 0)
(5.93533 -0.00668966 6.76522e-24)
(5.01191 0.918939 -2.60883e-22)
(8.52465 -2.92041 -7.19933e-22)
(6.29912 -0.0446626 -2.21458e-22)
(4.42836 -0.800785 -1.79667e-20)
(4.79385 4.63812 0)
(5.69393 0.666507 2.58935e-22)
(5.91733 0.0960423 -7.33801e-21)
(5.73445 0.540752 -3.25298e-21)
(5.59198 2.59071 -2.32651e-21)
(8.10774 0.24117 -3.89087e-22)
(6.36964 -1.93153 -2.48204e-21)
(4.66935 -1.07844 2.36656e-21)
(5.03766 0.113666 2.31864e-22)
(5.60848 -1.76035 1.0931e-21)
(5.96472 0.03184 9.58014e-24)
(3.45745 -1.97877 0)
(4.68823 -2.41856 1.88218e-21)
(5.84762 -0.736619 -8.71063e-21)
(-1.84498 -2.40539 9.57466e-22)
(6.23903 -0.029941 0)
(7.23675 1.5301 3.45192e-22)
(4.6268 -2.32486 -2.54982e-24)
(5.78714 0.0703196 3.64574e-22)
(4.22817 4.38563 0)
(-2.47238 -1.65868 1.08332e-21)
(5.86238 0.196584 -2.54191e-23)
(5.74117 0.169572 -1.0081e-22)
(6.82181 -8.90114 2.05221e-20)
(6.11597 -2.79905 0)
(5.04397 -2.3752 0)
(8.10781 -0.994957 -9.77822e-22)
(5.03372 -1.81649 6.12562e-23)
(6.12349 0.0672688 1.55595e-23)
(3.46037 -0.325683 0)
(4.93017 -2.33935 -4.1365e-21)
(6.24041 1.4833 0)
(5.98561 -0.168851 0)
(5.88339 -0.391737 0)
(5.95153 0.0537464 9.18591e-23)
(1.64405 -1.01355 7.37507e-21)
(4.47943 -2.71719 0)
(5.52415 -1.64331 0)
(5.82393 0.17544 1.54414e-22)
(5.76233 -2.05697 0)
(5.8105 -0.010398 0)
(6.57036 -0.790345 9.90353e-23)
(6.27084 0.156562 1.03583e-21)
(5.79679 -0.0599124 -3.90186e-22)
(4.89728 -1.26399 -7.61929e-22)
(5.82118 0.0528551 -4.05941e-23)
(7.61741 -8.89581 -9.80579e-21)
(9.326 2.36275 3.69773e-20)
(-0.327469 1.28448 2.33946e-20)
(6.08472 0.0535517 -7.80762e-22)
(5.77559 1.09049 -3.41612e-21)
(2.54573 1.67126 -2.59993e-21)
(6.02575 -2.73434 0)
(5.91889 0.0578654 -2.22714e-23)
(6.07765 -1.81981 -1.71317e-21)
(7.04054 -0.688226 -4.11987e-21)
(7.35248 0.668485 1.39805e-21)
(7.52473 0.0435177 0)
(5.25379 0.18402 0)
(6.13966 0.0500282 3.48737e-23)
(7.06928 -2.6232 -7.21821e-21)
(6.29152 0.604541 -3.197e-22)
(-1.26772 3.29095 0)
(7.0114 -0.224538 0)
(5.97105 0.0216769 0)
(6.12912 -0.0674972 6.64103e-23)
(7.47338 -1.36112 0)
(5.98433 0.0200273 -7.08029e-24)
(4.99203 0.883021 -2.21407e-21)
(6.48567 0.745102 0)
(6.40165 0.136938 0)
(5.98237 -2.69586 0)
(2.58692 -1.91843 2.97553e-22)
(5.31805 -2.11988 9.93505e-21)
(6.05833 0.255157 3.31573e-22)
(7.1918 -0.125331 1.68031e-21)
(5.35255 -2.0757 -1.4918e-20)
(9.56024 -0.456678 -1.02606e-21)
(3.22352 -1.6055 4.81636e-21)
(5.79983 0.150152 0)
(7.68814 1.33665 -1.98622e-21)
(7.12795 1.47085 -1.02054e-21)
(1.76221 -0.477842 -1.1994e-20)
(6.25668 0.521406 7.99145e-22)
(-0.232695 1.16558 6.41189e-21)
(9.8191 1.41452 3.93493e-21)
(6.50699 0.715864 8.29313e-22)
(5.93546 0.114566 -5.37476e-21)
(6.99358 -0.603997 1.46194e-22)
(6.0076 0.0445258 3.55788e-23)
(4.78246 -2.18775 0)
(7.53182 2.44416 3.04471e-21)
(7.20934 -0.85863 5.99972e-21)
(5.91985 0.135509 -8.1523e-21)
(7.4528 0.103816 0)
(6.02808 -0.942462 9.32683e-21)
(6.09334 0.0615472 2.71283e-23)
(7.21388 -0.441957 -1.0631e-22)
(3.4192 -1.62702 0)
(6.44554 0.267891 5.90031e-22)
(6.4448 -0.111517 -1.8426e-21)
(6.01609 0.0312814 5.9271e-24)
(5.99782 -0.312446 -7.06261e-22)
(7.33341 -2.57147 0)
(4.51891 -2.16988 -5.60016e-21)
(5.97493 0.077034 0)
(6.24616 -0.0109073 0)
(5.68447 0.133823 0)
(5.14849 2.48654 -4.73214e-21)
(5.60041 0.0931272 0)
(4.19569 -3.03019 -8.43735e-22)
(4.87743 -1.37139 1.74882e-21)
(7.09696 0.0598377 9.22745e-22)
(4.29836 -2.1166 -2.17025e-21)
(7.5577 1.24072 -9.69014e-22)
(4.27672 -2.19302 1.10905e-21)
(6.45356 0.33419 -2.95964e-23)
(4.84333 -2.31562 -5.55776e-21)
(6.50294 -2.74195 8.47292e-22)
(6.06027 0.257217 -4.26598e-22)
(5.76096 0.0860337 -3.47158e-22)
(3.24995 -2.43844 -2.42105e-21)
(5.7015 -0.201055 6.82719e-21)
(5.66436 0.0681142 0)
(6.36678 0.249402 0)
(6.0116 -0.211097 2.52511e-21)
(5.61918 -1.18314 1.65564e-21)
(5.05369 -0.231483 8.32635e-21)
(5.706 0.107313 2.40407e-23)
(6.95584 0.287874 -4.90925e-22)
(5.32091 -0.324163 2.13708e-22)
(6.00507 -0.426318 0)
(5.7501 2.47844 6.43516e-21)
(4.85766 -1.13477 0)
(9.11552 0.200167 0)
(-3.08579 -0.408136 -1.65771e-20)
(7.09204 -0.267228 0)
(6.02257 -1.79655 4.02198e-21)
(6.97387 -0.0556415 0)
(6.94333 0.908931 -2.99537e-22)
(4.24641 -1.98639 3.40682e-21)
(7.30155 0.370598 -1.1231e-22)
(4.48421 -2.06558 5.94233e-22)
(5.42785 -0.0685785 7.18631e-23)
(5.73176 0.617647 -3.49959e-23)
(6.00636 -0.865368 -2.99864e-21)
(5.69709 -1.64108 4.6207e-21)
(6.95068 -0.727541 5.19821e-21)
(3.52723 -1.6958 3.75768e-21)
(4.52065 -2.31705 0)
(4.00368 -1.94832 4.03684e-22)
(5.98194 -0.236883 1.21559e-21)
(6.22762 -0.0269715 -1.11753e-22)
(3.95234 -1.89854 1.10935e-20)
(7.12441 -0.168363 0)
(6.67858 -1.15343 0)
(6.0106 0.169281 8.37506e-21)
(6.06171 0.0500025 0)
(3.79815 -1.88001 3.68265e-21)
(5.81552 0.207496 -2.81951e-23)
(5.43388 0.056763 0)
(7.04018 -0.160541 -5.6336e-22)
(6.03677 -0.913774 3.90432e-21)
(-5.45786 5.95942 5.11925e-20)
(6.09571 1.18666 0)
(4.748 -2.34067 -8.55318e-22)
(3.38348 -0.240417 1.3588e-21)
(4.53796 -2.21707 5.26239e-21)
(5.77122 0.227688 0)
(5.43284 0.0372272 2.26292e-22)
(4.84321 -2.2398 4.48457e-22)
(7.92138 -0.40758 1.07919e-21)
(5.23247 -0.285628 -2.70049e-22)
(2.54752 -2.12356 -3.116e-22)
(6.70259 -1.04386 2.51359e-21)
(5.40299 0.505351 0)
(5.784 0.1835 -3.88356e-23)
(7.52804 -1.08983 -3.08229e-21)
(4.82903 -2.21394 -5.59946e-22)
(6.73845 -2.2519 -2.97783e-21)
(3.85859 -1.80966 0)
(5.55093 -0.10152 -6.49368e-22)
(4.18079 -2.12989 -1.58849e-21)
(6.10141 -0.109669 -3.90527e-21)
(4.59579 2.72757 0)
(4.75426 2.31854 3.30208e-21)
(5.98663 0.178798 -2.20706e-21)
(6.04124 -0.495467 0)
(6.95082 0.375314 1.17012e-21)
(4.34674 -2.05713 4.55354e-21)
(5.94063 -0.806048 -2.17602e-21)
(5.44691 -0.0311327 0)
(3.95534 -0.984466 0)
(5.72975 0.136954 -1.6073e-22)
(6.35818 0.641317 5.91557e-22)
(4.07266 -0.930551 1.12535e-21)
(6.32997 -0.560703 -3.30017e-21)
(5.70499 0.238689 4.85767e-21)
(6.05252 -2.03334 -2.19083e-21)
(4.37025 -2.53065 3.87289e-21)
(1.17738 -2.59393 5.95144e-21)
(7.11998 -0.601372 5.2117e-21)
(5.69149 -0.066999 5.13084e-22)
(6.90002 0.873691 4.12573e-22)
(6.05758 -0.138221 0)
(4.50818 -2.31647 0)
(5.9103 0.215958 -7.32407e-23)
(4.89523 -2.32325 4.18324e-21)
(5.99915 0.0712305 -8.0396e-22)
(5.89037 -0.199757 1.22561e-21)
(5.96128 -0.188361 0)
(6.97336 0.0637086 -2.12753e-21)
(6.78717 0.360548 -8.62037e-22)
(5.68573 0.170633 -4.47083e-21)
(7.74978 -1.76509 6.35978e-22)
(9.22411 0.293783 1.24124e-21)
(3.4944 -2.54764 -3.8514e-22)
(6.33814 0.591525 -5.04111e-22)
(7.83803 -0.51527 1.38438e-21)
(5.94612 0.0765794 -1.04653e-23)
(5.62932 -2.70187 0)
(0.118889 -0.515082 0)
(6.92327 -0.00461881 1.18321e-21)
(5.71963 0.601767 -1.81536e-22)
(5.93514 0.0769408 0)
(7.42278 4.63856 -3.6974e-20)
(3.19451 -1.71065 0)
(7.18669 2.45234 -9.13179e-22)
(7.98195 -0.853132 -8.10732e-22)
(5.61101 -2.92124 0)
(5.7234 0.97632 -2.01283e-21)
(5.91184 0.222873 1.18088e-22)
(5.63286 0.508617 -2.79944e-22)
(5.6128 -0.234568 -7.50557e-21)
(5.50419 -0.147221 0)
(5.96649 0.131816 -1.67012e-22)
(5.89878 0.249624 1.01533e-23)
(5.86127 0.192686 1.01305e-21)
(5.05374 0.243625 -4.33351e-21)
(2.55932 1.60651 4.87936e-21)
(8.18153 0.032001 7.59352e-22)
(6.79479 -1.13417 -9.07909e-21)
(6.43051 -0.595357 0)
(6.59165 0.379748 3.14941e-23)
(6.9079 -1.20195 -1.68587e-21)
(5.99932 -0.140861 1.06337e-20)
(6.45388 -1.94043 0)
(8.4604 0.347897 3.09163e-23)
(4.53178 0.876501 0)
(7.89093 -1.43394 -1.72402e-21)
(5.80055 -1.67072 -2.94829e-21)
(2.76222 -1.29844 4.58767e-21)
(7.40717 -1.39992 -2.19812e-21)
(6.10452 0.685212 0)
(5.82018 0.220952 4.61381e-23)
(5.51922 -0.147421 6.79549e-22)
(5.03972 0.277478 4.09794e-21)
(6.9535 -1.23196 6.48395e-21)
(7.21575 -0.433971 2.873e-21)
(4.8703 -2.32412 -2.67845e-21)
(5.99134 2.4681e-05 -2.70094e-23)
(6.55275 -0.568044 0)
(3.3505 -1.18603 1.0794e-20)
(9.18074 0.0451871 0)
(5.86277 0.200507 3.25809e-24)
(6.6224 -0.252434 5.33227e-21)
(6.69157 0.466342 -9.22984e-22)
(6.91869 0.470774 8.14908e-22)
(3.67411 -1.91359 -2.6507e-21)
(5.90907 0.173821 5.57905e-21)
(5.94921 0.103966 0)
(1.5657 4.38476 -1.88387e-20)
(6.60735 -0.774651 -1.98073e-21)
(5.68759 0.588846 6.27505e-23)
(5.66298 -1.20829 1.58863e-21)
(6.89266 0.0785569 0)
(8.16489 0.588615 3.05644e-22)
(5.40169 0.427112 8.60557e-21)
(5.75138 0.289148 6.64465e-21)
(5.95617 -0.533307 0)
(5.99973 -0.00127028 -2.43552e-23)
(5.84381 -0.181333 -1.14167e-21)
(8.44893 -7.94471 8.50705e-21)
(4.88907 -0.224971 1.16115e-21)
(6.53039 -0.688164 1.88925e-21)
(6.01325 -0.00471344 -4.26235e-23)
(6.89811 -0.57375 0)
(6.85413 0.847112 -9.51636e-22)
(4.78576 -2.32159 8.37918e-22)
(7.01853 0.718758 1.0215e-21)
(5.94502 0.0995238 3.98563e-21)
(5.07736 0.115458 0)
(5.85814 0.2113 1.16909e-22)
(5.70938 -2.8037 0)
(10.7626 1.60631 -6.98641e-21)
(6.06562 0.00666683 0)
(6.46991 -2.19437 -9.60311e-23)
(4.20546 -0.495824 -2.53758e-21)
(4.56629 1.86284 7.82727e-21)
(8.74169 -7.86627 -2.71355e-20)
(5.51657 0.0073566 0)
(6.73295 0.135744 -2.57776e-22)
(6.10105 0.590794 -2.06243e-21)
(-8.96838 2.79431 -2.12788e-20)
(4.06831 -2.3343 1.96096e-22)
(5.1181 -0.30879 -1.25276e-20)
(6.15522 -0.411952 1.15002e-21)
(6.24211 0.504075 1.29169e-21)
(4.55878 -1.46552 0)
(4.37398 0.658514 4.77745e-21)
(5.93615 0.0795245 6.08095e-23)
(3.42525 -1.87723 2.31527e-21)
(4.78118 -2.33508 -2.90648e-21)
(-7.43083 1.95389 -2.78261e-20)
(7.18537 -0.621527 0)
(-8.68021 2.6848 0)
(6.45255 2.91246 0)
(6.19952 -0.280229 0)
(1.66375 -1.73215 -1.6057e-21)
(7.95186 -1.33857 0)
(5.99163 0.905254 0)
(5.03124 0.164502 1.70141e-21)
(7.2444 -0.759864 -6.16444e-21)
(6.7428 -0.487805 -4.48869e-21)
(5.135 0.80399 1.38292e-20)
(5.91183 0.0611863 -1.08098e-21)
(7.47931 4.37292 0)
(6.27881 -0.516759 0)
(5.76806 0.190212 4.76772e-21)
(6.14349 0.0809506 8.18987e-22)
(4.37121 2.61445 0)
(3.3841 -1.56975 2.89194e-21)
(6.67965 -2.29992 3.34028e-21)
(9.7398 0.496834 0)
(7.15065 -0.197829 2.82154e-21)
(6.13557 0.136993 -5.36763e-21)
(4.93002 -1.46756 7.53026e-22)
(3.32967 -1.14482 0)
(5.98838 0.741606 4.05256e-21)
(7.26597 0.13197 0)
(5.94385 -0.29527 0)
(6.53557 0.389081 -1.13539e-22)
(5.73929 0.266383 2.52558e-21)
(3.01249 -1.89192 -2.80008e-21)
(7.04994 1.44952 -1.17929e-22)
(4.22979 -1.1452 -4.52655e-21)
(6.23004 -0.264393 5.94872e-22)
(6.238 0.564267 1.01304e-21)
(6.77329 0.847305 2.32563e-21)
(6.95624 -2.24572 0)
(6.08873 -0.946784 2.05147e-21)
(4.24637 -0.350231 0)
(5.909 0.225895 -8.36319e-23)
(6.96445 -0.590938 0)
(4.4625 -0.00949133 6.4629e-21)
(2.14102 -7.32203 -4.9806e-20)
(6.02845 -0.445303 0)
(-1.97267 0.0818609 9.69102e-22)
(6.22485 -0.553471 -2.66588e-21)
(5.92838 0.519611 3.06428e-22)
(5.44532 -0.853942 1.21123e-20)
(4.41518 1.89539 -4.97428e-21)
(4.22046 -1.12794 -1.29006e-20)
(10.7579 1.37503 0)
(5.93821 0.0914305 -7.21269e-23)
(4.85946 -2.33035 -6.31924e-21)
(5.88101 0.725232 0)
(5.6076 0.663337 3.06708e-22)
(6.91858 -0.155278 -4.875e-22)
(8.30699 2.18308 0)
(5.93951 0.0565883 0)
(3.12666 -1.56695 0)
(4.81104 -2.15584 1.93689e-21)
(5.96836 -2.02164 2.59468e-21)
(6.98978 -2.4189 2.28641e-22)
(7.11849 2.31265 0)
(5.18904 -0.6134 8.18062e-21)
(6.09269 0.0166221 -3.34816e-23)
(6.99369 1.23087 5.18669e-22)
(4.52127 -2.46162 3.49562e-21)
(5.62822 0.553427 0)
(6.05441 -0.0146082 0)
(2.64568 -0.450089 -7.30173e-21)
(4.47989 -1.44493 -3.19772e-21)
(5.91986 -0.642569 0)
(5.48111 -2.57546 -3.91576e-21)
(6.10642 0.0259113 5.13774e-23)
(5.99728 0.0273765 -4.14804e-24)
(3.01391 -1.38463 0)
(5.63784 -0.0368578 3.89181e-22)
(5.95555 0.0861892 -4.4327e-23)
(7.2723 0.117943 1.97331e-21)
(5.7642 -1.71318 0)
(0.975695 -3.12155 -9.2819e-21)
(6.83698 0.474405 9.4144e-22)
(5.67502 0.401289 8.85882e-22)
(6.0202 0.0321651 -2.21748e-23)
(7.73108 1.23877 0)
(5.14197 0.890721 -3.65926e-21)
(8.31122 -0.380821 -3.71108e-21)
(-6.19792 1.17447 3.85198e-21)
(5.89636 0.319218 0)
(4.24216 -2.38736 -2.01213e-22)
(1.92393 -0.326471 0)
(5.94355 0.357089 -3.27473e-21)
(5.65985 0.363955 1.62376e-21)
(5.6742 0.109462 -8.8304e-22)
(4.81805 -2.20678 0)
(6.52889 0.0328641 -2.73398e-22)
(3.62611 1.08657 1.31308e-20)
(6.88136 -2.22601 0)
(4.98099 0.0953637 5.26649e-21)
(7.72928 -1.83294 -7.30332e-22)
(6.23488 0.00200954 0)
(4.37624 -2.18739 7.25491e-22)
(5.29656 0.1661 -3.25922e-22)
(5.9838 0.0943086 0)
(-1.16927 -3.39188 1.26291e-20)
(5.5948 0.56108 0)
(5.49385 -2.5002 4.06415e-21)
(4.73804 -2.31336 1.62866e-21)
(6.06358 0.019827 -6.39111e-24)
(6.97247 0.295419 -1.1935e-21)
(4.32919 0.602819 2.5419e-21)
(5.42314 -0.932286 -4.42705e-21)
(5.51789 -0.0497619 -2.4163e-22)
(5.50074 -2.45538 4.40945e-23)
(6.51848 -0.724277 1.79477e-21)
(7.71848 1.15957 3.99036e-21)
(6.41637 -2.89201 0)
(6.03651 0.0375997 -3.5255e-21)
(10.0268 1.31986 -1.89621e-20)
(4.33606 -0.396951 0)
(5.94913 0.0844708 2.47688e-23)
(5.83218 0.0474929 0)
(3.96937 -1.18801 1.13273e-20)
(6.35332 -2.36309 0)
(6.13319 0.0572794 -1.39381e-22)
(6.83255 -0.357109 -3.07928e-21)
(4.34002 -2.09595 1.30858e-21)
(3.41889 -1.70137 2.99823e-21)
(6.96866 -0.107877 -2.42741e-23)
(5.47998 -2.62918 3.62395e-21)
(5.48962 -1.63686 4.42877e-21)
(4.64164 -1.09815 0)
(3.59605 -1.68152 -1.81473e-21)
(7.04406 -2.10713 -6.81252e-22)
(3.61266 -1.70321 -2.08817e-21)
(5.98509 0.0231084 -1.1404e-24)
(4.56096 -1.79517 0)
(6.16277 0.026226 -1.28903e-23)
(3.58724 -1.73525 0)
(4.59904 -2.35375 -1.42796e-24)
(4.91704 -1.99171 -7.90999e-22)
(0.609386 -0.919311 0)
(6.274 -1.66423 1.26198e-21)
(4.8667 -1.42677 0)
(8.37171 2.08665 0)
(5.24786 -2.48075 -5.34303e-21)
(4.60565 0.74235 3.85173e-21)
(4.99117 0.415108 0)
(5.39852 0.438704 -2.3315e-21)
(7.09406 -2.65404 8.38991e-21)
(4.80891 -2.29454 3.75098e-21)
(8.78378 3.25072 0)
(6.34062 -0.0590377 0)
(4.86861 -2.34955 -2.75625e-21)
(5.62183 -0.400099 0)
(6.48192 0.0845708 0)
(4.64348 -2.67602 -6.01307e-23)
(6.29373 -1.23881 -5.9824e-21)
(5.36349 -1.36477 3.7679e-21)
(6.56314 -1.12906 3.56227e-22)
(3.3841 -1.63951 3.85114e-21)
(5.79504 0.0904985 1.90275e-21)
(4.74202 -1.18345 0)
(6.4844 1.14491 -3.99131e-22)
(4.44902 -0.738647 0)
(6.25793 0.168703 0)
(5.89819 0.301237 0)
(6.63391 0.54515 -9.1906e-23)
(5.56713 -0.172863 3.50407e-21)
(6.02983 0.0166202 -9.34649e-23)
(4.86764 -1.20326 0)
(3.10689 -1.6684 -2.02024e-21)
(6.33342 2.75634 2.62839e-22)
(5.75433 -2.08888 4.2085e-22)
(5.72605 -0.058507 -6.73884e-22)
(5.95752 -0.803046 3.48393e-21)
(6.1039 -0.00267893 -3.15221e-21)
(1.03316 -4.91101 0)
(6.9427 0.383756 0)
(4.61003 2.34608 0)
(4.0364 -1.79126 -8.2874e-21)
(4.34226 -1.72176 -1.29629e-21)
(0.996399 -0.898025 0)
(6.48042 1.12285 0)
(7.15102 0.919632 7.67919e-22)
(6.17008 -0.199482 -8.99959e-22)
(5.91312 1.5356 3.30519e-21)
(6.63762 -2.75717 0)
(4.41584 -2.69183 -1.00455e-21)
(6.96005 0.0758947 -2.14097e-22)
(4.38281 -1.34352 -7.60634e-21)
(6.43809 0.219734 -4.67914e-22)
(7.00618 1.30034 -4.33715e-23)
(5.44203 -1.63016 1.29258e-21)
(3.98762 -1.76391 1.42946e-20)
(4.98312 -0.606367 1.06465e-21)
(6.09687 0.0413731 2.87094e-23)
(6.05362 -0.0338452 -9.27582e-22)
(4.89905 -2.37299 -1.15896e-21)
(5.34877 0.174626 1.28852e-22)
(5.48274 6.01384 1.83766e-23)
(5.35016 -2.54268 2.07057e-21)
(6.42536 0.376727 0)
(5.87554 0.720829 -7.33786e-23)
(6.34804 0.0856312 -2.37919e-21)
(8.52366 0.827969 2.38408e-21)
(4.30995 -1.23771 -6.94216e-21)
(5.71464 -2.00511 -4.51557e-21)
(6.38943 0.122223 8.66077e-21)
(6.86176 -0.180557 -4.97731e-21)
(6.3069 1.45139 -1.99169e-22)
(7.27787 -0.596637 -2.68161e-21)
(3.71511 -0.61469 -1.52537e-20)
(6.30269 0.0149149 -1.80579e-21)
(3.70759 -0.826299 0)
(4.49018 -2.07024 -2.56851e-21)
(6.00401 -0.0334276 8.14236e-21)
(5.60139 -0.0284449 -6.7099e-23)
(1.23628 5.99847 0)
(5.83865 -2.69227 0)
(6.0634 1.08385 2.76039e-21)
(3.35304 -0.611123 9.5177e-21)
(4.98505 -1.77835 -1.89151e-21)
(6.51092 -2.17613 -2.16924e-21)
(6.83791 -1.17677 4.97458e-21)
(9.18341 -0.0540081 0)
(6.18054 1.12482 1.41821e-21)
(2.73591 -3.3394 3.36972e-22)
(7.64547 2.18957 2.99651e-21)
(5.99844 -0.85808 -5.23127e-21)
(3.68187 -1.74897 -6.15884e-21)
(5.97625 -0.765602 -3.42143e-21)
(6.10113 -0.983256 1.06183e-21)
(6.98715 2.94733 0)
(5.60873 -0.18618 -4.88525e-22)
(5.74364 0.120038 8.47521e-22)
(6.01827 0.0416838 2.43991e-23)
(3.23882 -1.59472 1.32904e-20)
(5.87918 -0.876902 7.88692e-21)
(6.06087 0.168422 -1.36625e-22)
(4.80742 -2.3059 -2.27785e-21)
(5.99461 -0.15757 -1.19608e-21)
(6.05187 0.0872944 1.61496e-21)
(4.31796 -2.59004 -4.98735e-22)
(7.40224 2.27037 -3.67124e-21)
(-1.2145 -3.44002 -1.37223e-20)
(4.0535 -1.96386 -4.37276e-21)
(5.99582 -0.0476453 0)
(6.09857 0.0289729 -1.31667e-22)
(4.77491 -2.33021 -1.3031e-21)
(4.14034 -0.561736 1.35804e-20)
(6.06957 0.0417785 0)
(9.85422 0.72288 -1.53254e-21)
(3.83062 -1.56061 3.24648e-21)
(6.02028 0.082286 -7.96525e-21)
(4.51347 -2.16553 -2.70412e-21)
(5.05088 0.341143 -6.72985e-23)
(6.55902 -0.533289 3.07875e-21)
(6.60679 0.187268 2.94282e-22)
(5.55403 -2.53016 -5.6079e-21)
(6.11414 0.0947987 1.13611e-22)
(4.4323 -1.74363 -2.8865e-21)
(6.26615 -0.0895414 2.22674e-21)
(6.13906 -0.159331 -2.52762e-21)
(6.39065 0.403394 -4.1418e-23)
(6.51693 -0.146691 -5.35473e-21)
(3.71869 -1.627 -6.26857e-21)
(6.11433 0.0622744 0)
(4.65466 -2.17608 1.58436e-21)
(5.92776 0.0534796 6.09677e-22)
(5.11405 -0.785583 2.57408e-22)
(6.73533 0.0922069 -8.48361e-22)
(6.65518 -1.25391 -3.12857e-21)
(5.90428 0.075104 -5.98046e-21)
(6.31056 0.856026 7.479e-22)
(3.12964 -1.5137 -2.97246e-21)
(6.37115 0.0820983 0)
(5.8606 0.253044 -5.43314e-23)
(6.69224 0.434597 9.46006e-22)
(4.58424 -1.74578 0)
(6.49413 0.261025 1.12147e-21)
(6.51916 0.404082 1.13761e-21)
(6.39396 0.00753273 1.17222e-25)
(7.69283 -2.85916 1.53683e-22)
(5.7465 0.0356293 0)
(5.39521 0.931607 6.6207e-21)
(6.0226 0.261272 2.26877e-22)
(5.24553 -2.46977 4.56514e-21)
(6.00148 -0.508658 0)
(4.56695 0.708244 -1.11538e-20)
(2.67916 1.71424 9.17679e-21)
(7.93405 3.71596 -6.98143e-21)
(3.76414 -0.671209 1.49252e-20)
(6.06831 -0.0391832 1.36749e-22)
(3.5644 -1.76021 2.33682e-21)
(5.85625 -0.344763 -5.41908e-21)
(6.16679 -0.919887 -3.01765e-21)
(5.38084 0.427016 -4.9698e-21)
(6.17069 -0.0223244 0)
(5.98949 0.0908763 -3.52493e-21)
(-0.786323 -0.578979 7.31613e-21)
(0.324499 5.04632 0)
(5.80762 -1.33494 0)
(5.96967 -0.0116976 0)
(-4.9695 -0.000370876 0)
(6.13408 0.856003 0)
(3.56443 -0.606232 0)
(5.39747 -0.382502 -3.09984e-23)
(6.78663 -2.2168 -3.52142e-21)
(7.21306 0.371057 0)
(5.33647 0.824151 9.86353e-21)
(4.30917 1.99892 -1.92159e-21)
(6.26874 0.649425 8.04315e-24)
(4.71574 -2.41364 -7.03108e-22)
(3.62959 0.0811003 -5.04797e-23)
(3.5127 -1.69819 2.39834e-21)
(6.55966 0.0161722 -1.78604e-21)
(6.87179 -0.20506 3.13253e-22)
(6.13437 0.784404 -1.95107e-21)
(5.69139 0.487044 -6.518e-21)
(6.15792 2.57549 -1.69065e-21)
(10.2565 1.60452 0)
(4.29762 -2.43702 6.21836e-22)
(4.00655 -1.2302 -1.24011e-20)
(6.09324 0.169031 -1.05148e-20)
(7.07093 -2.07536 -3.72815e-21)
(6.27052 -0.119769 8.6134e-22)
(8.19904 -1.98562 -2.42412e-22)
(6.49231 -1.01991 -6.7581e-22)
(6.33442 -1.62522 -4.38652e-21)
(5.99074 0.510054 2.13769e-21)
(9.88253 4.81379 0)
(5.58909 0.00914837 -2.49531e-22)
(5.13431 0.0834396 -1.53688e-21)
(8.00109 -1.24713 0)
(5.68293 0.140155 0)
(5.82602 -2.65654 -4.03346e-23)
(4.04651 -2.03342 2.49595e-21)
(5.32543 -0.324805 -1.18073e-21)
(5.87397 0.0678841 0)
(5.62971 -0.294883 -7.142e-21)
(5.47099 0.573082 -1.26979e-21)
(4.57926 -2.16182 9.75876e-22)
(6.55053 0.293486 5.57981e-22)
(3.50799 -1.71557 0)
(4.29273 -2.48486 7.12525e-22)
(6.68615 0.353689 0)
(5.58867 -0.248181 5.16966e-22)
(8.1125 0.503122 -5.3422e-22)
(5.86394 -0.0270158 -3.54563e-23)
(7.14058 1.51898 1.83471e-21)
(8.60146 2.74869 -6.79619e-22)
(5.34748 -1.5614 9.18412e-21)
(4.40745 -2.17101 0)
(4.77967 -1.26621 -1.79625e-21)
(3.92034 0.264584 0)
(7.33011 0.263906 -9.40718e-22)
(4.58934 -2.1957 2.09385e-21)
(5.8015 -1.24625 2.14988e-21)
(5.82569 0.257577 1.17247e-23)
(4.84295 -2.27303 -2.88486e-21)
(4.69402 -2.19493 -5.27254e-21)
(4.12395 -1.23504 -7.19493e-21)
(5.95042 0.0623694 -1.96779e-23)
(4.75227 -1.18469 1.46526e-21)
(3.77535 -1.64287 5.14062e-21)
(4.27755 -1.30828 7.78742e-21)
(4.43083 -1.79045 1.68599e-21)
(4.91143 -1.24396 -8.52103e-22)
(5.65332 -1.77367 4.50719e-21)
(8.07873 -7.78847 3.98813e-20)
(6.09567 0.14809 7.86355e-23)
(4.1146 1.98854 1.4456e-21)
(6.85887 0.768166 4.98926e-23)
(6.93094 -1.75231 0)
(-5.70803 0.961334 -3.82752e-20)
(6.19803 -0.0228939 -2.76929e-21)
(5.91811 0.144599 0)
(7.44282 0.303229 0)
(4.19763 -1.12709 -1.35737e-21)
(6.33256 -1.32531 -3.02749e-21)
(6.88678 0.30848 1.63174e-21)
(6.23958 -1.17629 7.8678e-21)
(6.17672 2.5297 1.68401e-21)
(5.63125 0.0853518 5.84181e-21)
(4.63792 -2.19523 -4.21844e-24)
(5.53697 1.63122 0)
(4.35894 -1.40436 7.41746e-21)
(4.39065 -4.84584 1.61984e-21)
(4.82879 -2.24848 2.197e-21)
(5.30753 -2.04763 1.53632e-21)
(5.86145 -2.69387 -9.9813e-22)
(6.65678 0.0785715 2.73479e-21)
(5.76763 0.157273 2.96348e-23)
(5.91895 -0.466982 2.4063e-21)
(4.64929 -2.21439 -1.41289e-21)
(6.92871 0.334257 -1.18686e-21)
(5.70566 0.217996 2.76798e-21)
(3.6784 -0.804604 -6.13941e-21)
(5.7509 -0.333355 4.44061e-21)
(6.20362 1.56566 0)
(7.06352 0.62429 -1.52631e-21)
(5.91278 0.166892 6.20434e-22)
(4.62022 -0.965306 -2.37276e-21)
(6.26077 4.7587 1.58001e-21)
(5.57073 -1.75083 3.36002e-21)
(5.85936 -0.0324627 1.20693e-21)
(4.27647 0.272188 -8.74155e-21)
(7.82832 -1.22303 0)
(5.832 0.203255 3.60154e-23)
(6.47696 0.164911 6.24108e-22)
(5.66015 0.0108678 0)
(4.42219 -0.0297831 5.02073e-21)
(6.49876 0.265921 0)
(5.22763 4.71984 8.67199e-22)
(6.76699 0.00911169 0)
(5.5737 0.0185814 0)
(6.93521 0.0843439 6.68409e-22)
(6.86282 0.266001 -5.43444e-22)
(7.64697 -0.407279 -5.03073e-21)
(5.77946 0.473366 -2.90653e-21)
(4.88744 2.85843 -2.03673e-21)
(5.87721 0.403976 -1.01434e-21)
(6.28662 0.911512 0)
(7.14528 -4.9268 -1.94475e-21)
(6.99121 0.0894168 1.48895e-21)
(5.53179 -0.183251 -1.01857e-21)
(6.91847 -1.73089 0)
(8.61888 0.75149 3.59801e-21)
(6.9787 4.44883 4.62863e-22)
(5.94322 0.028978 2.43753e-22)
(5.13344 -2.18777 0)
(4.74693 -2.6726 2.6066e-21)
(6.06717 0.498999 0)
(5.9965 -0.399897 -1.22689e-21)
(-4.32156 5.53468 0)
(8.13992 -3.67941 0)
(5.03414 -0.735062 0)
(6.22595 -2.34933 0)
(3.86719 -3.12986 -5.67588e-22)
(4.78102 -2.13721 -4.27769e-22)
(5.74299 -0.205875 -5.22919e-21)
(4.40536 -2.16195 -1.56483e-21)
(4.03507 -1.70094 0)
(4.48758 -1.99694 -1.01837e-21)
(-4.38935 6.078 -5.07732e-20)
(4.98409 -2.33129 0)
(4.57636 -1.63073 -7.98981e-21)
(5.9125 0.123395 2.04782e-23)
(6.87669 0.783438 -3.30049e-22)
(7.44764 -2.57985 7.57323e-22)
(5.46053 0.42042 0)
(6.73758 -2.18162 0)
(8.27223 -1.37399 2.50467e-21)
(5.37392 0.163728 3.1739e-23)
(5.94056 0.102693 2.41749e-23)
(4.1528 -1.05372 3.7541e-23)
(6.00918 -0.0472419 2.60216e-22)
(6.09865 0.0260041 -1.73804e-23)
(5.90456 0.575434 3.16254e-21)
(5.86103 0.198275 -3.18992e-23)
(5.78327 -1.62093 0)
(3.15127 -2.39572 0)
(6.09152 0.0203705 0)
(5.99696 0.0175574 0)
(5.32193 -1.01967 3.298e-21)
(6.85269 -0.415923 0)
(4.35994 -2.93449 6.10671e-21)
(5.2709 -1.65577 -4.96802e-23)
(4.19428 -1.34318 -1.17684e-20)
(4.40461 2.63798 1.24781e-21)
(4.69621 -2.1366 -8.85221e-22)
(4.58749 -3.3592 -3.53002e-21)
(5.83038 0.113379 9.57846e-22)
(4.68646 -2.26206 -1.33529e-21)
(5.85002 0.170455 -9.12003e-23)
(6.89869 0.134622 0)
(7.26868 -1.11302 0)
(5.44339 1.15288 0)
(6.63514 -1.32868 1.65216e-21)
(4.95325 -1.4021 0)
(5.72993 1.58689 0)
(6.02795 -0.0551232 0)
(5.4246 -1.35502 3.51601e-21)
(6.18553 0.581735 -2.52726e-21)
(5.85715 -0.145931 0)
(5.45979 -0.416272 -1.13468e-21)
(5.8778 0.544874 -3.22664e-21)
(7.58941 2.10252 -6.42477e-21)
(5.01765 -2.30467 4.82868e-21)
(5.80901 1.76399 2.90993e-23)
(5.24094 0.157073 -2.71352e-23)
(5.7266 0.165271 1.57966e-22)
(5.40864 -0.0531747 -4.70789e-22)
(6.84175 0.20582 8.01688e-22)
(5.94426 0.0819399 9.97624e-23)
(5.47119 0.120585 -4.89719e-21)
(6.33224 0.0330485 0)
(5.63507 -1.55787 -1.49811e-22)
(5.89325 0.192719 4.84376e-21)
(2.1315 -2.97682 6.59541e-21)
(6.39785 -0.934099 -1.97535e-21)
(3.43934 -0.684075 -1.03529e-20)
(6.85918 0.156468 -1.54988e-22)
(8.50786 -0.269202 5.36868e-21)
(5.94095 0.361753 0)
(6.03027 0.798951 -2.03671e-22)
(5.7838 0.055552 -5.3843e-23)
(5.44406 -0.0709332 9.71082e-22)
(4.44783 -2.47954 -3.98867e-21)
(5.8345 0.0649531 2.64337e-21)
(6.10948 0.0269934 -2.7699e-23)
(6.06307 -0.0622511 -7.8261e-23)
(6.11412 0.0260276 0)
(5.82343 4.2132 0)
(4.71569 -2.24588 6.01644e-21)
(4.17988 -2.01662 2.92068e-21)
(6.04022 0.0509149 -7.53892e-24)
(5.8058 0.197281 9.87456e-21)
(5.99022 0.907015 5.99935e-22)
(4.53589 0.623979 0)
(5.44948 0.163387 0)
(4.92649 -1.1127 -4.01215e-23)
(6.80313 0.0869092 9.95123e-22)
(5.95156 1.60598 4.23748e-21)
(7.49896 0.0582559 0)
(6.2572 -0.0667731 0)
(6.39296 -1.85126 6.11216e-21)
(5.99982 -0.597518 4.18946e-21)
(1.25572 -0.535707 -1.16714e-21)
(5.80564 -0.00213602 0)
(8.47686 -4.02037 3.4108e-21)
(5.49986 -0.694249 -4.49386e-22)
(4.7784 -2.29251 -1.76424e-21)
(5.83271 -0.0142335 -5.76943e-21)
(6.88681 -2.12326 0)
(6.36063 -1.36201 2.39096e-21)
(5.13386 -2.07255 -2.34407e-21)
(0.952702 -0.336037 0)
(6.03997 0.0191445 5.3818e-23)
(5.79234 0.266443 -3.22638e-21)
(5.91871 -0.0222751 2.63125e-26)
(8.48148 0.118528 1.32547e-22)
(7.28544 6.73051 1.13511e-20)
(6.02827 0.0677186 0)
(3.39174 -1.24644 -7.09236e-23)
(6.07912 0.958628 -5.47951e-22)
(5.63997 -2.70343 -4.64864e-21)
(6.19096 0.814549 2.31038e-21)
(3.40627 -1.99091 1.62512e-21)
(5.71113 0.087663 -1.25145e-20)
(5.96079 0.239694 1.19308e-22)
(5.76666 0.212902 3.10354e-23)
(5.3238 -1.25259 0)
(5.73615 0.0388241 -3.40662e-22)
(3.71628 -1.70245 4.15222e-21)
(6.49052 -0.343998 -6.25841e-21)
(6.00934 0.177154 -4.4803e-21)
(5.93458 -0.406658 1.12856e-21)
(5.08027 -0.586973 1.189e-20)
(6.10217 -0.0530221 -1.00282e-22)
(5.42731 0.205146 2.77898e-21)
(5.94535 0.111936 1.12549e-22)
(6.58464 -1.12589 -4.10184e-21)
(7.58387 2.38975 -5.18737e-21)
(5.01777 -1.76759 1.48022e-21)
(6.34346 0.0553995 0)
(5.50358 0.92487 0)
(3.51134 -1.77923 0)
(4.18608 -1.25315 9.05196e-21)
(5.95921 -0.0204408 -7.30261e-21)
(5.41634 0.597888 0)
(4.69577 -1.04804 -7.0221e-21)
(5.37428 0.541415 0)
(5.34874 -0.897911 -5.41527e-21)
(5.58167 -0.206004 -1.08265e-21)
(5.69951 -1.52002 -4.92002e-21)
(6.23099 0.0284668 0)
(5.77387 0.236889 0)
(5.61839 -0.0562621 6.74568e-22)
(7.26993 0.297804 1.11733e-22)
(6.72812 -0.243772 2.22542e-21)
(7.37715 4.55087 -3.69513e-22)
(7.82772 -0.0129056 0)
(5.35411 -1.99133 -2.54524e-21)
(-0.421376 4.20152 0)
(2.69151 1.99552 -4.75907e-21)
(8.624 2.66487 0)
(6.0759 0.06228 6.35533e-23)
(3.74684 -0.530007 3.958e-21)
(4.71395 -0.460223 3.87332e-21)
(5.7798 -0.0811726 -6.10794e-22)
(5.18918 -1.53878 -5.02014e-21)
(5.81466 -0.69353 1.06798e-20)
(6.20583 0.872598 -1.35441e-22)
(7.78623 -2.04337 3.30642e-22)
(6.00702 -1.39796 -2.45572e-21)
(-0.899497 2.60035 1.43089e-20)
(7.50542 0.703379 0)
(5.83483 0.0959704 -4.86414e-23)
(4.79175 -1.21488 0)
(5.72399 0.180739 -5.07831e-23)
(5.42294 -1.98048 -1.32044e-21)
(5.1279 -0.498947 -3.9141e-21)
(5.92397 0.0740005 2.70396e-23)