/*--------------------------------*- C++ -*----------------------------------*\
| =========                 |                                                 |
| \\      /  F ield         | OpenFOAM: The Open Source CFD Toolbox           |
|  \\    /   O peration     | Version:  2306                                  |
|   \\  /    A nd           | Website:  www.openfoam.com                      |
|    \\/     M anipulation  |                                                 |
\*---------------------------------------------------------------------------*/
FoamFile
{
    version     2.0;
    format      ascii;
    arch        "LSB;label=32;scalar=64";
    class       volVectorField;
    location    "9.25";
    object      U;
}
// * * * * * * * * * * * * * * * * * * * * * * * * * * * * * * * * * * * * * //

dimensions      [0 1 -1 0 0 0 0];

internalField   nonuniform List<vector> 
13486
(
(1.5421 -0.283726 3.896e-19)
(1.70343 0.196143 2.3374e-19)
(2.69883 0.0250193 0)
(-1.32626 0.383893 -1.82966e-18)
(2.57979 -0.231086 -3.17593e-19)
(2.42257 0.172654 -2.97166e-20)
(2.47804 0.341321 -3.04935e-20)
(2.22751 -0.713819 1.05767e-19)
(2.07246 -0.355068 0)
(1.92626 0.641411 0)
(-0.360461 1.80063 -4.79294e-19)
(2.40871 -0.0700989 0)
(1.40061 -0.482389 -3.76432e-19)
(2.3195 0.715594 -5.26938e-20)
(2.38628 0.0760044 -1.19452e-19)
(1.89235 0.629464 -2.08875e-19)
(1.28942 -0.533306 4.43962e-19)
(-0.0303068 -0.586593 3.18861e-19)
(2.09727 -0.00861641 9.79885e-22)
(1.69833 -0.104954 -4.05363e-19)
(-2.98847 0.943012 -9.52951e-19)
(1.42119 -0.500522 4.86095e-19)
(1.72019 0.188595 -1.8678e-19)
(4.28067 0.263482 0)
(1.99 0.520542 7.3033e-20)
(4.23576 0.131317 -3.85269e-19)
(0.253961 -0.102599 5.2147e-19)
(3.20158 -0.182207 4.37453e-19)
(1.99348 0.200116 0)
(3.17752 -0.410337 -4.82101e-19)
(-2.98309 1.03842 -6.50256e-19)
(2.15238 -0.00359596 -1.7474e-21)
(3.26239 0.273466 2.66096e-19)
(2.4577 -0.214653 0)
(2.23343 -0.677769 0)
(1.63153 0.0173495 3.23706e-21)
(1.58525 -0.0934286 -6.65049e-20)
(1.61842 -0.752798 9.81194e-20)
(1.89597 -0.230321 -1.09579e-20)
(2.06255 -0.216519 1.0391e-19)
(3.26303 -0.575011 0)
(0.974321 -0.483512 -4.56999e-19)
(1.97095 -0.0055365 0)
(2.01253 0.432049 -3.38108e-19)
(2.02494 0.432784 1.39464e-19)
(2.40929 -0.0709161 4.159e-20)
(-1.3179 -1.00998 9.50279e-19)
(1.95692 0.190825 4.56041e-22)
(1.57716 -0.0730263 5.0203e-20)
(2.81198 0.062242 9.43084e-20)
(1.99945 0.01002 2.82443e-19)
(1.96388 -0.05754 0)
(2.33898 -0.207393 -1.0641e-19)
(1.77379 -0.64259 -1.62382e-19)
(-0.136973 -0.957707 0)
(2.53178 -0.254207 1.63414e-19)
(2.90364 -0.0357642 1.15027e-19)
(1.98164 -0.115525 -5.8408e-20)
(3.26065 0.308711 3.46776e-19)
(1.60043 -0.273042 0)
(-0.692163 2.49227 -6.08415e-19)
(1.5966 -0.274907 0)
(3.37399 0.539052 -2.02661e-19)
(-2.95267 0.984275 -1.15798e-20)
(1.72143 -1.35778 0)
(1.56225 -0.120395 -3.5433e-20)
(-1.56224 0.591124 -1.57187e-18)
(1.5048 -0.0340918 1.51561e-19)
(2.07509 -0.37554 -3.38199e-20)
(1.50701 0.0115675 1.6047e-20)
(-1.38057 0.565428 1.80389e-18)
(-0.112667 -0.843528 1.02886e-20)
(2.05881 -0.111445 1.00305e-19)
(-0.596861 0.415391 -2.85651e-19)
(1.47998 -0.180287 -8.86665e-21)
(2.86592 0.056746 -2.32441e-20)
(1.44079 -0.145707 3.26314e-20)
(2.40407 0.0923855 5.39759e-20)
(-1.04708 -0.804479 -5.03737e-19)
(1.96745 -0.893426 0)
(1.91004 0.0386508 1.69164e-22)
(1.64371 0.27701 -1.53103e-20)
(3.09744 0.371516 -5.55189e-20)
(2.7532 -0.000158877 -1.29851e-21)
(1.53607 -0.293598 -7.60786e-19)
(1.30178 1.33734 0)
(1.57913 -0.423832 2.19581e-20)
(2.00112 0.0197762 -4.43042e-19)
(1.8904 0.144072 -1.88292e-19)
(1.76195 0.853683 -2.66247e-19)
(2.0929 -0.145632 -5.87653e-20)
(2.37115 -0.524677 9.40519e-20)
(1.6072 -0.376254 9.10642e-20)
(1.71303 0.0149813 1.14955e-20)
(2.01325 -0.583302 1.12484e-20)
(1.93553 0.156378 -1.82263e-22)
(0.288799 -0.144916 0)
(-2.42744 1.1138 8.15631e-19)
(2.07436 -0.209565 -1.99264e-19)
(1.28242 -0.516587 6.13496e-21)
(1.78717 0.0249949 0)
(2.29558 0.709247 -2.27441e-20)
(-2.64301 1.16692 3.3859e-20)
(1.9681 -0.0967261 6.84023e-20)
(1.25908 1.27389 0)
(1.08663 -0.51707 6.29816e-21)
(2.00067 0.0343694 -9.40836e-22)
(1.90854 -0.264135 -2.31487e-20)
(-1.05864 -0.779529 6.48941e-19)
(2.14195 -0.920817 0)
(1.47124 -0.695287 0)
(2.07547 0.200424 5.24245e-20)
(1.78443 -0.622649 4.38948e-21)
(2.75041 0.417078 -4.21635e-21)
(1.1779 -0.15391 0)
(1.39484 -0.681142 1.87664e-21)
(1.9826 0.535702 0)
(2.60959 -0.189537 0)
(2.05148 -0.110943 0)
(1.60023 0.000923286 -3.1321e-20)
(0.174937 -0.652802 -1.42736e-19)
(-0.810702 2.39961 0)
(1.97368 -0.524579 0)
(1.90845 -0.23263 3.58367e-20)
(2.0848 -0.681544 0)
(1.96242 -0.0541037 0)
(2.27031 -0.151354 -1.19217e-22)
(2.17048 0.0630893 1.6042e-19)
(1.99789 -0.122852 -6.25279e-20)
(2.39333 -1.91687 -1.09478e-18)
(1.92202 -0.0382283 -7.33338e-21)
(-1.4651 -1.14933 -2.43705e-19)
(0.460768 0.675876 5.99725e-19)
(-0.227539 0.179329 3.56604e-19)
(2.00008 0.00364592 -4.4872e-20)
(1.88647 0.332839 -2.5109e-19)
(0.762302 0.522967 -1.57082e-19)
(2.14835 -0.892358 0)
(1.60486 0.0151568 8.9709e-21)
(2.2249 -0.528305 1.58193e-20)
(3.07791 0.238389 -2.71627e-19)
(2.31535 -0.21083 9.20182e-20)
(2.23124 -0.0901021 0)
(2.01171 -0.847054 0)
(2.09732 0.0081773 -6.47214e-21)
(2.60234 0.650423 -9.57788e-20)
(1.99955 -0.25548 -2.69277e-21)
(0.421543 1.26533 0)
(2.82235 0.105047 0)
(2.00572 0.189074 0)
(2.00761 0.00848112 5.4984e-21)
(2.53681 0.0339303 0)
(1.89504 0.0257406 -1.77554e-22)
(1.61789 0.273771 -1.32847e-19)
(2.14864 0.286123 0)
(2.90604 0.032349 0)
(2.0468 -0.871601 0)
(1.37539 2.06097 8.17565e-19)
(1.90155 -0.738698 1.18443e-19)
(1.80667 -0.238385 -3.20685e-20)
(2.70655 0.0454196 2.7378e-20)
(1.91056 -0.711838 -1.72263e-19)
(1.84152 -0.191418 1.0974e-19)
(0.87355 -0.415748 1.97084e-19)
(1.99623 -0.073855 0)
(2.41824 0.723918 2.98218e-20)
(2.26003 0.640402 1.67844e-19)
(0.596697 -0.228612 -6.10672e-19)
(1.99117 -0.229784 4.83384e-21)
(-0.240291 0.204879 9.65227e-20)
(0.438151 0.640979 2.52113e-20)
(2.14349 0.2603 1.28047e-19)
(1.99717 0.0509606 -4.03392e-19)
(2.29451 -0.0534359 -1.29029e-21)
(1.8934 0.0809581 -8.4035e-22)
(-2.16523 2.11443 0)
(2.26345 0.988366 -9.48321e-20)
(3.10091 0.346122 3.38824e-19)
(2.00883 0.0355616 -3.96296e-19)
(2.25024 -0.0978874 0)
(2.12385 -0.24574 1.34592e-19)
(2.69973 0.391387 -6.8763e-21)
(2.27649 -0.0465685 3.20063e-21)
(0.346846 -0.139852 0)
(2.60505 -0.0750689 9.88296e-21)
(2.9075 -0.159485 -1.94062e-19)
(2.12378 0.185863 7.86782e-24)
(3.01919 -0.35363 -1.22112e-19)
(3.1925 -0.540182 0)
(1.25795 -0.601118 -2.99493e-20)
(1.56639 -0.0342037 0)
(2.59127 0.0537431 0)
(2.0369 -0.181095 0)
(1.31532 0.652284 -3.06341e-19)
(2.10057 -0.225778 0)
(-0.308509 1.40991 -1.31978e-19)
(1.90039 -1.8681 2.41837e-18)
(2.65347 0.0175403 1.98373e-20)
(1.21588 -0.598236 -5.88055e-20)
(2.40377 0.687322 3.60372e-20)
(-2.91848 0.932081 6.80951e-19)
(2.18002 0.0826344 -4.99668e-21)
(1.4988 -0.717409 -1.13468e-19)
(2.28479 -0.889982 -2.38888e-19)
(1.80386 -0.249139 3.93723e-20)
(2.13585 -0.211597 -5.6475e-20)
(-0.630126 -0.375897 5.71511e-20)
(1.97491 -0.0667666 2.60235e-19)
(2.01729 -0.185321 0)
(2.6254 -0.0613428 0)
(3.26359 -0.245282 3.58751e-19)
(4.44667 -0.508483 1.16328e-18)
(1.71481 -0.0935485 3.70818e-19)
(1.99274 0.0333387 -7.60775e-22)
(2.41725 0.207909 3.42301e-20)
(2.61499 -1.19647 8.4264e-20)
(3.17213 -0.326654 0)
(1.76571 0.839212 6.19497e-19)
(1.6997 -0.389224 0)
(2.94788 0.845185 0)
(1.18292 -0.576505 -8.33984e-19)
(2.85363 0.14691 0)
(2.19698 -0.525989 -4.68397e-20)
(2.65011 0.055769 0)
(2.3792 -0.27973 -2.2522e-20)
(1.37309 -0.647442 1.18109e-19)
(2.51412 0.378533 1.60283e-21)
(-2.66051 0.825717 4.75227e-19)
(2.41638 -0.771534 1.47885e-20)
(1.63041 -0.423365 -2.62644e-21)
(2.12787 -0.235124 -4.5047e-20)
(3.37405 0.843785 1.66084e-18)
(3.11132 0.262021 3.39121e-19)
(1.00014 -0.488347 1.6045e-19)
(-3.0196 1.11667 0)
(1.18024 -0.573437 1.24782e-20)
(2.88457 -0.345763 2.19029e-19)
(2.61526 0.045358 6.14462e-21)
(1.0428 -0.502363 3.49627e-19)
(2.29952 -0.0422293 0)
(3.34849 0.342003 0)
(2.00067 0.0355044 6.17264e-19)
(2.68293 0.200625 0)
(1.04834 -0.51879 1.00764e-19)
(1.83867 -0.276705 -1.73932e-20)
(1.86067 0.0273091 0)
(2.1622 8.3006e-05 -9.39966e-21)
(3.72814 -0.294363 1.05712e-18)
(-0.382428 0.170336 5.84209e-19)
(1.98557 0.405664 0)
(-2.12291 1.74815 -2.86986e-19)
(1.14528 -0.127596 6.79072e-20)
(1.21186 -0.589671 -2.26805e-20)
(1.9223 -0.267457 0)
(2.214 -0.742762 4.84258e-20)
(-1.90533 2.37353 2.49124e-19)
(2.13963 -0.0183428 2.78866e-20)
(2.56655 -1.26071 -1.06788e-19)
(1.99692 1.87632 -8.2879e-19)
(3.38116 0.29086 2.80554e-19)
(1.80984 0.154014 0)
(1.82737 -0.271342 -1.3642e-21)
(2.35014 0.0818805 2.65948e-19)
(-2.01525 2.2377 -3.0622e-19)
(2.59435 -0.615346 3.42059e-19)
(0.351915 -0.132282 0)
(2.44624 -0.732867 -1.3594e-19)
(-3.14964 1.08018 -1.00593e-18)
(2.19798 -0.00180086 -1.24549e-19)
(0.89061 -0.67581 0)
(1.5256 0.734972 2.35913e-19)
(1.99308 0.0356133 -1.13318e-19)
(3.20123 -0.346348 0)
(2.40516 -0.143253 4.54883e-20)
(1.30071 -0.626455 1.53801e-19)
(3.64628 -0.406423 -5.93367e-19)
(2.22263 -0.67754 0)
(0.364771 -2.04026 0)
(1.94134 -0.304131 -2.6191e-20)
(2.09242 -0.265255 1.01725e-20)
(0.296264 -2.20884 7.58585e-19)
(2.19867 -0.13458 -4.48777e-20)
(1.97262 0.0442711 2.40913e-19)
(2.54275 0.97208 -4.02108e-19)
(-0.860781 2.20714 7.27007e-19)
(1.26615 -0.18038 9.15828e-19)
(3.0152 0.322267 2.43754e-19)
(1.95551 -0.154129 8.19768e-20)
(2.4734 -0.27806 3.45328e-20)
(2.15902 0.00862796 0)
(-3.07497 1.07151 0)
(1.73637 -0.247575 2.00116e-20)
(1.42663 -0.678603 2.39625e-20)
(1.99933 0.00826386 -4.38195e-20)
(2.97148 -0.343446 2.047e-19)
(2.95952 -0.357413 0)
(2.17054 -0.0192889 -4.0941e-20)
(2.44554 -0.125846 -3.64277e-20)
(1.96999 0.0330021 -2.16868e-19)
(2.93799 0.185865 -5.44587e-19)
(1.73314 -0.238082 -1.28993e-19)
(-0.595561 -0.370663 2.71767e-20)
(2.16911 -0.244683 -8.74225e-21)
(2.17646 0.00485977 8.69084e-21)
(1.62739 -0.0277192 1.04306e-20)
(1.93836 -0.848008 0)
(2.95078 0.73894 0)
(2.15076 -0.0113057 1.83192e-20)
(1.63849 -0.451759 -1.58133e-20)
(1.57062 -0.0547821 0)
(1.67916 1.1916 -6.6281e-19)
(-0.921289 0.24591 0)
(2.18104 0.952742 7.7677e-20)
(2.05951 0.174465 9.72808e-21)
(0.342533 2.27345 0)
(1.87557 0.326356 -1.58968e-19)
(1.73814 -0.249032 -2.96978e-20)
(1.88103 0.136989 -1.62011e-20)
(1.96384 -0.0624645 -2.96668e-19)
(2.55901 -0.733243 0)
(1.54154 -0.100299 6.48109e-20)
(1.74694 -0.226877 5.2406e-22)
(2.01339 0.0344916 5.04871e-20)
(1.69932 0.0573791 -2.21169e-19)
(0.84634 0.500219 2.82977e-19)
(2.10449 -0.112701 1.33575e-19)
(2.34707 -0.178456 2.67648e-19)
(2.21326 -0.136094 0)
(2.53544 -0.127212 1.27925e-22)
(2.38031 -0.154017 9.23257e-20)
(2.00078 0.0100622 6.41218e-19)
(2.41386 -0.508819 0)
(2.02873 -0.182633 -4.59101e-20)
(1.49391 0.260204 0)
(2.54999 0.367915 8.08246e-19)
(2.08152 -0.517524 -9.74635e-21)
(0.807289 -0.385813 2.11421e-19)
(2.54377 0.00299004 3.05419e-19)
(2.00676 0.141317 0)
(1.8156 -0.270446 -2.60716e-20)
(2.49793 -0.736868 1.48906e-19)
(1.70367 0.0625589 2.08852e-19)
(2.40576 -0.143506 -2.81686e-19)
(2.27852 -0.0420123 -5.90613e-21)
(-0.809838 1.23419 -5.28403e-19)
(1.95977 0.177284 1.38275e-22)
(2.27372 -0.0849728 0)
(1.14648 -0.430504 4.91265e-19)
(2.96136 0.82917 0)
(1.74977 -0.241882 -7.02385e-22)
(2.29712 -0.0461011 5.8467e-20)
(2.49002 -0.143345 -3.84468e-20)
(2.41865 -0.138659 3.78221e-20)
(0.257402 -0.18852 -5.97544e-19)
(1.9771 0.0344833 2.69221e-19)
(1.79787 0.027646 0)
(-0.453933 0.528084 -2.72866e-19)
(2.2674 -0.143001 1.83936e-21)
(1.66958 -0.431612 6.20896e-21)
(4.14583 -0.802122 8.69568e-19)
(2.29969 -0.0141289 0)
(2.1465 -0.200469 1.11431e-19)
(1.83694 0.0931359 4.52587e-19)
(1.98985 0.0400612 3.46293e-19)
(3.20606 -0.42843 0)
(1.89076 0.0171131 -8.78721e-23)
(3.01886 -0.352134 -2.05725e-19)
(-1.432 -1.13872 1.34245e-19)
(1.68081 -0.111642 5.16361e-20)
(2.26925 -0.12771 -1.74882e-21)
(2.02129 0.00620952 1.59191e-21)
(2.26905 -0.0965618 0)
(2.40264 -0.292522 -7.97836e-20)
(-2.00956 1.8897 2.51993e-19)
(2.36658 0.404059 -7.63638e-20)
(1.99856 0.0106275 2.35709e-19)
(1.39614 0.0277529 0)
(1.77401 -0.240398 -3.19685e-20)
(0.493866 2.21905 0)
(2.98748 1.28368 -1.53053e-19)
(2.2105 -0.0197487 0)
(2.431 -0.638164 -1.05299e-20)
(1.43314 -0.192311 -1.17238e-19)
(1.51569 0.677387 5.43388e-19)
(-1.50015 -1.07097 -5.75352e-19)
(2.27501 -0.668987 0)
(2.34176 0.0586136 -1.42444e-19)
(2.01127 0.148222 -1.73649e-19)
(0.48894 -0.45009 -1.81921e-19)
(-2.64361 1.47056 1.12262e-19)
(1.73945 -0.102681 -5.4984e-19)
(3.20078 -0.275055 2.00353e-19)
(2.06967 0.15968 1.37196e-19)
(1.59081 -0.508909 0)
(1.43536 0.193873 2.65313e-19)
(1.59466 0.0553492 -2.77391e-20)
(-1.23874 0.4007 1.04658e-18)
(-1.99619 1.7533 -8.80619e-19)
(0.730783 -0.590665 -4.12754e-19)
(3.05376 0.294342 0)
(0.470266 -0.531651 0)
(1.8956 1.02115 0)
(2.1835 -0.0636698 0)
(2.84203 0.146134 -9.68153e-19)
(2.42805 0.366237 0)
(1.42702 -0.357477 0)
(1.73555 0.0343952 8.337e-20)
(3.1156 0.365358 -3.51676e-19)
(2.25125 -0.0961112 -3.23931e-20)
(1.73655 0.231294 8.09728e-19)
(2.00424 0.0107772 -8.81913e-20)
(2.09334 1.49979 0)
(3.17313 -0.158417 0)
(1.96198 0.0342942 2.32428e-19)
(2.03261 0.045726 4.19745e-20)
(1.33365 0.691951 0)
(0.272527 -0.11108 5.80854e-19)
(2.58034 -0.645661 -3.85427e-19)
(0.0188176 0.422202 0)
(2.30334 -0.042014 2.28693e-20)
(2.00387 0.0317313 -2.68042e-19)
(1.10891 0.480725 -1.33317e-19)
(1.13921 -0.419429 0)
(1.9987 0.152595 3.13439e-19)
(2.58741 0.244664 0)
(3.03119 -0.353137 0)
(2.18309 0.18076 -2.3587e-20)
(1.96544 0.0472307 1.29248e-19)
(0.324401 -0.106793 -6.75346e-19)
(2.22609 0.626798 6.06753e-20)
(1.46646 -0.407825 -1.84569e-19)
(2.19232 -0.0553304 1.45107e-20)
(2.07269 0.156571 1.09655e-19)
(2.52876 -0.292977 1.97021e-19)
(2.72649 -0.560294 0)
(3.65315 -0.149447 4.52182e-19)
(1.43671 -0.134852 0)
(1.7459 -0.24595 1.82934e-20)
(2.2864 -0.0654837 0)
(1.52791 -0.0193708 3.21176e-19)
(-1.03153 -0.944466 -7.33115e-19)
(3.16503 -0.268346 0)
(-0.188603 0.117428 1.59002e-20)
(3.20114 -0.174604 -3.9538e-19)
(1.67291 -0.299371 7.19552e-21)
(1.89666 -0.277765 3.70666e-19)
(1.41505 0.651675 -3.46411e-19)
(1.45418 -0.399601 -5.45636e-19)
(3.11824 1.26692 0)
(1.59798 -0.0155956 2.8363e-20)
(-0.871819 1.42388 -1.29107e-18)
(2.00211 0.158223 0)
(1.86807 0.154165 1.76393e-20)
(2.96087 0.0249434 -2.04709e-20)
(2.50697 1.0881 0)
(2.00421 0.0109753 0)
(-0.77864 0.594689 0)
(-2.02832 2.04988 1.30293e-18)
(2.54495 1.25827 4.79321e-19)
(2.7006 0.744918 -2.76305e-20)
(2.1565 0.911663 0)
(1.81987 -0.201905 3.07374e-19)
(1.87837 0.0786581 1.69858e-21)
(2.22851 0.57821 -1.40912e-19)
(-2.22646 0.57507 1.90868e-18)
(1.92842 0.106991 0)
(1.97127 0.191972 0)
(0.883961 -0.218229 -3.69571e-19)
(1.56116 -0.50161 -1.17944e-19)
(2.05739 -0.16149 0)
(1.57891 -0.742714 1.36055e-19)
(1.80049 0.0256097 -9.37983e-22)
(1.94211 0.141489 3.49793e-22)
(0.898661 -0.427952 0)
(2.02649 -0.077699 8.78555e-20)
(1.61227 0.0279127 2.4726e-20)
(2.58667 0.221186 -5.24654e-21)
(2.07047 -0.546094 0)
(1.36734 -0.214199 -1.39028e-18)
(2.45572 -0.141931 3.97265e-20)
(1.99887 0.0540529 6.21289e-20)
(1.74831 0.028268 9.97905e-21)
(2.48314 0.722591 0)
(1.71597 0.229955 -2.15362e-19)
(2.95968 0.618566 -1.06867e-19)
(0.95482 -0.610273 9.25953e-20)
(2.00475 0.0270183 0)
(-2.87175 1.32754 -1.16942e-19)
(0.643197 -0.201098 0)
(2.00279 0.0267464 -2.4786e-19)
(1.99418 0.0326335 9.4617e-20)
(1.93573 0.00919099 -4.49717e-20)
(-2.03288 2.14618 0)
(2.25289 0.013619 -9.79809e-21)
(1.17904 0.303345 7.54303e-19)
(2.6657 -0.561925 0)
(1.71259 0.023805 2.57579e-19)
(2.90657 0.0751445 6.2038e-19)
(2.18981 -0.0199944 0)
(-3.06885 0.963699 4.78236e-19)
(1.99388 -0.804294 -7.0481e-20)
(2.04318 0.00110795 0)
(0.955653 -0.406215 9.10604e-19)
(1.85902 0.145465 0)
(1.89968 -0.842113 -8.47937e-21)
(-2.20759 1.82355 5.60096e-19)
(2.11597 0.206289 -9.4434e-24)
(2.44394 0.171134 4.54211e-20)
(1.4343 0.176239 1.38078e-19)
(1.88915 -0.300842 -1.34174e-19)
(2.27696 -0.60774 -5.26332e-20)
(1.93351 -0.84251 4.69489e-21)
(2.25046 -0.134858 8.54088e-21)
(2.46744 0.726728 -4.56846e-20)
(2.28076 -0.943838 0)
(1.99863 0.00737754 -2.09092e-19)
(0.171957 0.506155 -3.25497e-19)
(1.46511 -0.146504 0)
(1.47814 0.10715 -1.26269e-20)
(1.46618 0.00888136 0)
(1.34744 -0.427777 4.82588e-19)
(2.41152 -0.754396 0)
(1.65762 0.00428249 -8.17474e-21)
(2.31432 -0.0551396 -3.4398e-20)
(-2.9186 0.846709 8.68041e-19)
(-1.14187 0.800993 8.85432e-19)
(2.21336 -0.00377399 -3.95977e-22)
(1.7126 -0.789944 -3.145e-19)
(1.95277 -0.520156 7.67741e-20)
(1.60604 -0.377675 0)
(0.383511 -0.207206 -3.42365e-19)
(2.72824 -0.428728 7.54903e-20)
(0.414535 -0.223333 -3.99935e-19)
(1.94342 0.16316 -1.84443e-22)
(1.58335 -0.62215 0)
(2.20742 -0.0267973 -1.77146e-21)
(0.27814 -0.104035 0)
(-2.62301 1.28356 3.58571e-20)
(1.07967 0.446723 1.54562e-19)
(2.02376 1.78483 0)
(2.2758 -0.450703 -2.13303e-20)
(1.60669 -1.49009 0)
(2.5254 1.01796 0)
(1.67005 -0.774397 9.47044e-21)
(1.52214 0.23751 2.14993e-19)
(1.66875 -1.06026 0)
(1.84014 0.115874 -1.27782e-19)
(2.49385 0.570575 6.60769e-20)
(-1.88753 1.9609 1.0918e-18)
(2.46224 1.31322 0)
(2.17036 -0.0494133 0)
(-0.670454 1.26 -5.53427e-19)
(1.97325 -0.119228 0)
(2.66116 -0.00938362 0)
(-0.871129 2.62984 -6.36835e-21)
(2.21787 -0.297649 3.94944e-21)
(1.89352 -0.432323 8.89979e-20)
(3.48749 0.291022 4.21766e-20)
(0.382768 -0.194268 7.28113e-19)
(1.99504 0.0276813 1.06675e-19)
(1.64192 -0.405285 0)
(2.11631 0.428575 -6.21886e-20)
(1.52548 -0.267435 0)
(2.3773 0.0223503 0)
(1.9961 0.0732847 0)
(2.17241 0.160994 -1.92804e-20)
(1.94852 -0.0624078 1.39765e-19)
(2.62424 0.160157 1.00425e-20)
(1.69173 -0.402762 0)
(0.212507 -0.123863 -4.89775e-19)
(1.93127 0.965639 1.31159e-19)
(2.08347 -0.692898 -2.16105e-21)
(2.19907 -0.192079 -1.39401e-19)
(3.60433 -0.435315 9.91827e-19)
(2.05973 0.0643967 -1.51422e-19)
(-1.0295 -0.867905 0)
(2.43299 -0.130634 0)
(1.44043 0.670261 0)
(1.33806 -0.608201 -3.19493e-19)
(-1.41648 -0.654618 -1.23108e-18)
(2.07138 1.51292 0)
(2.13891 0.442509 0)
(2.34661 -0.287691 9.7451e-20)
(1.9699 -0.0215481 -2.35032e-20)
(1.86098 0.529552 2.88632e-19)
(2.35609 -0.886904 0)
(0.432756 -0.319091 -1.8541e-19)
(2.37846 0.0687348 7.61103e-20)
(1.52577 -0.467355 -2.92764e-19)
(2.21876 0.0584274 -1.19919e-19)
(2.2204 0.584104 1.92207e-19)
(3.38094 0.662372 1.11381e-18)
(1.33248 -0.615374 5.61795e-19)
(2.95344 -2.10055 7.33457e-19)
(2.7327 0.327579 -7.67467e-21)
(2.0011 0.00583045 -5.00934e-20)
(1.45876 -0.657653 5.55613e-20)
(2.01713 -0.749118 2.93308e-20)
(1.47838 1.70666 -1.0269e-19)
(1.57571 -0.732812 -5.41957e-20)
(2.54826 -0.113382 0)
(1.54136 -0.372394 -6.35771e-21)
(2.19855 -0.0481239 -2.80812e-19)
(2.74344 0.819359 4.44113e-20)
(1.49441 -0.434863 -2.77035e-19)
(2.05871 -0.666561 -1.02481e-20)
(1.93663 -0.00897783 1.44106e-19)
(2.37702 -0.0446731 -8.22684e-20)
(1.28575 -0.325997 -8.41991e-20)
(2.99243 0.323481 -1.32691e-19)
(1.26707 -0.241584 -7.1904e-19)
(2.12189 -0.0335582 -2.32353e-19)
(1.25584 -0.305342 0)
(-2.90468 0.93509 -1.95302e-18)
(1.92572 0.0372758 2.9955e-19)
(1.46335 0.00143118 3.74312e-23)
(-0.632117 0.391388 0)
(1.97172 -0.853214 0)
(1.99458 0.374212 2.56857e-19)
(1.13841 -0.246036 4.60797e-19)
(0.866182 0.428722 -2.50284e-18)
(2.45953 -0.624612 1.36301e-19)
(2.36947 -0.180832 -1.5322e-19)
(3.01985 0.802778 0)
(1.99824 0.411221 1.45424e-19)
(-0.275906 -0.476066 -2.02383e-20)
(2.31286 0.996353 -6.82439e-20)
(2.10044 -0.229253 -1.02866e-19)
(0.424885 -0.218359 -1.1843e-18)
(3.52715 -0.501286 -9.1915e-19)
(3.69998 -0.164666 2.27791e-19)
(2.10152 1.08558 0)
(2.74264 -0.647968 -1.1681e-19)
(1.94707 0.00792022 3.95101e-20)
(1.89416 0.053142 -6.86944e-22)
(0.907057 -0.440699 5.5489e-19)
(2.0784 -0.231726 1.56741e-19)
(1.82662 -0.265908 1.94437e-20)
(-1.89001 1.8367 -6.22305e-19)
(2.69809 -0.246322 -1.7883e-19)
(2.25288 -0.0302961 2.07747e-19)
(-0.661911 1.95701 -8.94594e-20)
(2.23689 0.939521 1.9593e-19)
(1.14766 -0.432602 -9.87256e-19)
(1.07543 -0.5237 -1.34729e-19)
(1.92138 0.0445233 0)
(2.88189 0.157554 9.35528e-20)
(-1.38853 2.63565 -4.5995e-19)
(1.43019 -0.217276 6.23965e-19)
(2.21772 0.161342 0)
(1.84116 -0.322132 1.32701e-19)
(1.30035 -0.557023 1.35396e-19)
(1.99774 0.0182044 -4.59965e-19)
(-0.348722 0.538527 -5.76884e-19)
(1.67581 -1.01782 -1.13138e-20)
(2.25791 -0.0967638 2.02054e-20)
(2.29854 0.0619498 2.12464e-19)
(1.93181 -0.853262 4.79282e-20)
(2.65609 0.202423 -1.78964e-20)
(-1.2129 -0.607327 -3.26016e-18)
(2.10965 -0.0475649 2.63492e-19)
(2.18842 -0.0483324 -6.51224e-20)
(2.13124 0.0826288 -4.21042e-21)
(2.13914 -0.0253554 -1.19117e-19)
(1.23853 -0.562883 -2.62323e-19)
(2.69071 0.318761 0)
(-2.58617 1.72252 1.12e-18)
(2.12536 0.0696714 2.93945e-20)
(1.39226 0.485884 -1.11381e-19)
(2.41081 0.0441524 4.92041e-20)
(2.33636 -0.236535 6.98928e-20)
(2.00033 0.00873617 -3.96099e-19)
(2.06726 0.278056 8.28478e-20)
(0.260435 -0.0905912 -5.97487e-19)
(2.69503 -0.00779136 0)
(1.77552 -0.241463 1.6878e-20)
(2.50516 -0.156935 3.93533e-20)
(1.59339 -0.606842 0)
(2.12441 0.0611391 1.7131e-19)
(2.5444 -0.133264 4.20949e-20)
(2.65923 -0.000720897 1.38748e-24)
(3.37406 -0.596444 5.93614e-19)
(2.19546 -0.207613 0)
(1.79175 0.270072 4.1003e-19)
(1.91952 -0.322417 -3.32076e-20)
(1.51453 -0.71778 -4.20371e-20)
(2.11925 -0.149309 0)
(1.52071 0.199328 -6.17637e-19)
(0.398531 -0.557514 -1.62241e-19)
(2.25168 1.35587 -1.65485e-20)
(1.27788 -0.265695 6.95553e-19)
(2.18061 0.00624393 -6.88044e-21)
(-0.992934 0.764262 6.6425e-19)
(2.03008 -0.100717 -1.81245e-19)
(3.53598 -0.0529108 -5.64008e-19)
(1.8289 0.0928489 -2.63348e-19)
(1.95495 0.0134919 0)
(2.00386 0.0166126 -1.87355e-19)
(1.51686 0.280282 4.62312e-18)
(-0.346275 0.433657 0)
(4.2246 -0.19766 0)
(1.89407 0.0515135 0)
(1.13862 -0.594842 0)
(2.02652 0.268144 0)
(1.20536 -0.237496 0)
(2.78093 -1.13651 -1.12102e-20)
(2.90833 0.877467 -1.15299e-19)
(2.53775 0.407698 0)
(1.77328 0.268875 6.18906e-19)
(0.951089 -0.821569 2.34253e-19)
(2.06042 0.16246 3.70796e-21)
(-1.21758 2.65874 -1.85637e-19)
(1.20176 -0.0252432 1.76731e-21)
(0.166066 0.0132033 5.15899e-19)
(1.6819 0.00680594 -2.8076e-20)
(2.85861 0.0613995 1.5477e-20)
(2.0075 0.248549 -1.731e-19)
(1.89263 0.127747 -3.6891e-19)
(1.88272 0.885311 -2.58867e-19)
(2.98984 1.22586 0)
(-2.76201 1.09161 4.44026e-19)
(1.3727 -0.444983 -5.28186e-19)
(2.01216 0.0224985 -5.73821e-19)
(2.73176 -0.453763 7.14396e-19)
(2.00491 -0.0162469 2.21781e-20)
(3.23987 0.128582 -8.1699e-19)
(2.24497 -0.200663 1.60072e-21)
(2.2816 -0.433228 7.59278e-20)
(2.01354 0.132908 1.80806e-19)
(1.62051 1.07206 0)
(2.24182 -0.530435 -4.52074e-20)
(1.75517 0.0139045 -7.94293e-20)
(2.34621 0.355186 0)
(1.96693 -0.268534 0)
(2.0367 -0.892058 -6.94611e-21)
(-1.63088 1.08718 7.42439e-19)
(2.72174 -1.22232 -4.5257e-19)
(1.85219 -0.0490652 0)
(1.98893 -0.0641944 -2.70349e-19)
(1.83441 0.151581 -7.15838e-20)
(-2.86101 1.33913 6.57535e-19)
(2.58718 -0.0748368 1.28981e-20)
(0.015233 0.121269 0)
(-2.83014 1.03062 4.65667e-19)
(2.57594 -0.10944 0)
(2.71943 -0.6969 1.25166e-19)
(2.10868 -0.195538 -7.57121e-20)
(2.00312 0.0129269 3.00364e-22)
(2.26984 0.654582 -2.98107e-19)
(2.46741 1.20999 -2.31489e-20)
(1.89919 -0.504767 1.83139e-19)
(-2.07105 0.675012 0)
(1.34869 -2.08268 -2.31282e-18)
(1.08598 -1.65279 0)
(2.5957 0.410346 -4.68677e-21)
(-2.87157 1.45318 1.29487e-18)
(4.64074 -0.281026 1.08838e-18)
(1.79821 -0.242096 -1.719e-20)
(-1.6898 2.51142 -1.46785e-18)
(1.31606 -0.641199 4.8568e-20)
(1.4145 -0.448536 -2.94285e-19)
(1.58529 0.0381912 9.92501e-21)
(1.89641 -2.06571 1.90041e-18)
(1.28031 -0.578765 2.16825e-19)
(1.47121 -0.468665 3.10932e-19)
(-1.51171 -0.329402 1.43615e-18)
(2.66228 -1.75309 -1.11766e-18)
(2.03361 -0.581686 3.13064e-20)
(-1.5025 -1.03068 5.7462e-19)
(2.48744 0.0436612 -9.4586e-21)
(0.927215 -0.898194 -1.96733e-19)
(2.27727 0.415785 -8.43409e-20)
(2.5378 -0.28966 0)
(0.975427 -0.581546 -8.90547e-19)
(2.10333 -0.0441848 -3.23508e-19)
(1.99366 0.0801306 0)
(2.57088 0.38543 0)
(0.41419 -2.24327 -1.16496e-18)
(3.71579 0.329943 -4.75335e-19)
(2.40186 0.236455 -1.44961e-19)
(2.2102 -0.291421 -7.87306e-21)
(1.87273 0.854794 2.25705e-19)
(1.38708 -0.0201483 8.02175e-20)
(-2.75297 1.62447 -5.90856e-20)
(1.76699 0.525702 0)
(1.50389 -0.497 2.87469e-19)
(-0.169589 0.437808 1.38742e-19)
(-1.76576 2.41373 1.13407e-18)
(1.89934 -0.695065 1.92034e-20)
(2.10265 -0.903432 2.80376e-19)
(1.5909 -0.0128203 5.12712e-20)
(1.87633 -0.230219 1.13338e-20)
(3.12321 -0.459843 4.92705e-19)
(-2.632 1.63778 -7.88611e-19)
(2.38486 0.226392 1.09775e-19)
(1.98538 0.0310649 1.32021e-19)
(1.24727 -0.296006 -2.85107e-19)
(1.9803 -0.0972913 1.60782e-19)
(1.15863 -0.338832 0)
(2.36574 0.397086 1.37748e-19)
(2.01099 0.0366972 2.98039e-20)
(1.58595 -0.351145 -9.51373e-20)
(1.68539 1.56697 -7.44315e-20)
(1.99652 -0.573242 4.31362e-20)
(2.12524 0.0316543 4.9888e-20)
(1.44479 0.0462141 -4.5203e-19)
(2.39617 0.307134 0)
(1.78812 -0.220736 -3.52624e-20)
(2.23211 0.0805782 1.62708e-19)
(2.40729 -0.214995 0)
(1.47948 -0.0496339 2.49127e-19)
(2.59704 -0.0773664 0)
(1.59234 1.5578 3.8253e-19)
(2.31559 -0.0243861 0)
(2.23776 -0.590127 0)
(2.44179 -0.0461332 1.92942e-20)
(2.38093 0.17747 9.15548e-20)
(2.91716 0.419636 -1.64789e-19)
(1.93501 0.0943456 -1.69428e-19)
(1.52124 0.994905 -1.62397e-19)
(1.99724 0.0590326 -7.76767e-20)
(2.04966 0.276973 0)
(-1.01538 -0.849908 -2.38316e-20)
(2.49335 0.170959 -4.31321e-20)
(2.65159 -0.687826 -2.50193e-19)
(2.51671 -0.284375 0)
(2.7765 0.809813 7.66134e-20)
(1.98083 1.48126 -1.11298e-20)
(2.44671 0.0276327 -3.69829e-20)
(0.295876 2.42317 0)
(-0.699031 2.66615 5.48014e-19)
(2.03078 0.132748 0)
(3.09318 -0.378647 -2.35241e-19)
(-0.344666 0.159029 0)
(1.69308 -0.124632 0)
(2.9265 -2.26252 0)
(2.34099 -0.759291 0)
(0.140945 0.542171 -8.10698e-20)
(-2.11443 1.95384 -2.95118e-19)
(1.93899 -0.0540874 -2.1051e-19)
(-3.01676 0.894567 -1.08084e-18)
(1.36274 -0.60356 0)
(-2.63189 0.673861 -8.83777e-19)
(-0.487627 0.189435 -5.76686e-19)
(1.64584 -0.763551 0)
(1.59362 -0.569111 -2.70261e-19)
(1.45837 -0.209668 -1.25889e-20)
(2.2665 0.398019 2.16512e-19)
(3.09443 -0.636379 -4.93574e-19)
(1.88542 0.114946 0)
(2.57221 -0.577035 0)
(3.13743 0.570569 8.78379e-20)
(2.01001 -0.654444 6.73865e-21)
(1.62828 -0.0422709 -2.09569e-20)
(0.466766 -2.30293 6.53241e-20)
(1.99977 0.0038624 1.39992e-20)
(2.90227 0.198667 -6.63864e-21)
(2.0135 0.133242 2.58904e-19)
(1.7619 -0.226519 1.8099e-20)
(2.07276 -0.495584 0)
(0.622491 -0.131692 0)
(2.65681 0.183773 0)
(1.66964 0.0247341 0)
(1.86345 -0.33015 1.01021e-19)
(2.99315 0.145015 0)
(-0.622716 2.1425 9.95091e-19)
(2.83568 0.545307 1.04938e-19)
(1.44088 -0.485304 -4.7259e-19)
(0.856015 -0.750412 -1.18802e-19)
(-2.50626 1.56438 -5.87451e-19)
(-0.459073 1.98261 -4.73111e-19)
(1.87886 0.0532542 3.97513e-20)
(-2.493 1.88364 -6.69568e-19)
(1.74768 -0.228349 2.93015e-20)
(2.48585 -0.0346328 0)
(2.39682 -0.0234509 0)
(1.36076 -0.59461 0)
(2.34529 -0.254375 -4.29199e-20)
(2.32116 -1.60578 0)
(1.78687 0.534502 0)
(2.00251 0.00637496 0)
(1.91549 -0.438577 8.29954e-20)
(2.06113 0.164401 -2.74497e-19)
(1.55328 0.0293337 0)
(2.92364 -1.06409 -3.98055e-19)
(1.97549 0.12941 -2.25392e-19)
(2.32597 0.921838 1.39562e-19)
(1.68139 -0.775666 9.20777e-20)
(1.85426 0.586092 2.5019e-21)
(1.98115 -0.945423 -6.42004e-21)
(1.9229 -0.295821 2.58418e-20)
(2.30939 -0.760576 -1.06685e-19)
(2.36088 0.181967 -1.21915e-19)
(1.62549 -0.0160266 -4.63461e-20)
(1.87142 0.0310995 -2.37312e-19)
(2.11424 -0.0458723 0)
(1.32862 0.432555 8.12422e-20)
(1.99203 0.0362172 2.51719e-19)
(-0.0970398 -0.70989 -1.4266e-19)
(2.23548 -0.194691 -2.41778e-21)
(1.1676 -0.263529 -5.02765e-19)
(2.37979 0.162011 2.03136e-20)
(2.97242 0.649474 1.53424e-19)
(1.99602 0.0505973 0)
(1.47298 -0.348985 -2.17187e-20)
(1.8422 -0.0974818 -1.27237e-20)
(2.35624 -0.773056 2.32118e-19)
(-2.58383 0.704577 -2.13618e-18)
(2.11124 0.0342248 1.04285e-19)
(2.71073 0.263805 7.00726e-21)
(2.24159 0.014278 5.10374e-21)
(2.59532 0.175914 0)
(0.765957 -0.425661 0)
(1.49058 -0.709516 1.48615e-19)
(-0.376246 0.497594 6.21621e-19)
(1.91309 0.0254431 1.56916e-22)
(1.99279 0.0381809 4.96882e-19)
(1.46876 -0.354182 6.97884e-20)
(1.49519 0.183322 0)
(1.84629 0.0447548 0)
(1.72521 -0.390125 -8.44088e-21)
(2.3596 -0.0141814 3.01624e-20)
(1.8935 0.575783 4.04082e-19)
(2.25885 -0.0829431 0)
(2.13567 0.00953446 0)
(2.34983 -0.490334 -2.31044e-19)
(2.09473 -0.142563 1.08029e-19)
(0.142858 -0.595501 -5.83728e-19)
(1.74058 -0.106286 0)
(1.33997 -0.23576 1.03716e-19)
(3.41276 -1.06421 -1.85529e-19)
(-1.43447 2.52097 -5.13157e-19)
(2.09213 -0.0253037 -2.01385e-19)
(3.32133 0.76789 0)
(3.70594 0.374748 3.88591e-19)
(0.676317 2.29995 -1.61357e-18)
(-0.0730677 -0.544632 0)
(1.70611 0.0268853 -3.08307e-20)
(1.9441 0.0681276 -1.6978e-19)
(1.65335 0.0179364 -1.45572e-23)
(2.06264 -0.138836 4.42342e-20)
(1.19708 1.03819 2.16208e-19)
(1.86931 0.0449443 0)
(1.16136 -0.453395 -6.54333e-21)
(1.43245 -0.349861 -6.56215e-20)
(0.725446 2.2408 -6.90371e-19)
(2.01628 0.25153 2.05429e-19)
(-1.82388 0.763284 3.23496e-19)
(2.06316 0.0270588 -4.60218e-19)
(1.78299 -0.264518 -9.37454e-21)
(1.85263 -0.279373 1.91261e-20)
(1.86965 -0.403528 0)
(1.73024 0.0209882 -7.38331e-20)
(1.2079 -0.566524 1.72733e-19)
(2.28534 -0.0570668 -7.95446e-20)
(2.01228 0.036212 -2.23018e-19)
(3.06537 -0.400315 2.05755e-19)
(1.7667 -0.197379 4.77521e-19)
(2.38051 0.0342706 1.18347e-20)
(1.83117 0.0496247 1.44539e-19)
(1.46118 0.0755495 -4.7606e-20)
(3.46249 0.342208 -4.59374e-19)
(2.25126 1.01338 1.2586e-19)
(1.18763 0.526601 1.97712e-18)
(1.86556 -0.0138898 0)
(1.49607 -0.53182 0)
(3.17756 0.901226 0)
(1.43745 -0.454291 3.73822e-19)
(2.16131 0.0670086 -3.64962e-19)
(1.81931 0.163638 0)
(1.63165 -0.362484 -2.65879e-19)
(1.81691 0.136541 0)
(1.87069 -0.300729 -1.6453e-19)
(2.62987 -0.724136 -2.77686e-19)
(2.03648 -0.469364 -4.71165e-20)
(1.94679 0.0449744 0)
(1.99424 0.025824 0)
(2.4554 -0.230473 1.25427e-19)
(2.51874 0.346391 -1.59898e-21)
(2.95183 -0.0239956 1.38505e-19)
(2.11607 1.57157 -8.38617e-21)
(2.16613 -0.089757 0)
(1.90956 -0.675059 -2.83533e-20)
(-0.255895 0.457943 0)
(0.905278 0.739002 -2.99181e-19)
(2.48005 1.20433 0)