/*--------------------------------*- C++ -*----------------------------------*\
| =========                 |                                                 |
| \\      /  F ield         | OpenFOAM: The Open Source CFD Toolbox           |
|  \\    /   O peration     | Version:  2306                                  |
|   \\  /    A nd           | Website:  www.openfoam.com                      |
|    \\/     M anipulation  |                                                 |
\*---------------------------------------------------------------------------*/
FoamFile
{
    version     2.0;
    format      ascii;
    arch        "LSB;label=32;scalar=64";
    class       volVectorField;
    location    "1.6";
    object      U;
}
// * * * * * * * * * * * * * * * * * * * * * * * * * * * * * * * * * * * * * //

dimensions      [0 1 -1 0 0 0 0];

internalField   nonuniform List<vector> 
5098
(
(2.61165 0.580948 0)
(2.18702 0.21737 -2.16954e-20)
(2.12777 0.0214136 -2.43013e-21)
(1.68672 -0.753071 6.29315e-19)
(1.84983 -0.243595 0)
(1.03556 -0.501537 0)
(2.30656 0.0155426 -3.43958e-20)
(2.09975 -0.189403 7.32651e-22)
(2.09178 0.0140133 -5.419e-20)
(3.12445 0.474281 -1.59695e-19)
(1.48565 -0.756183 0)
(2.27959 0.0682123 1.31299e-19)
(2.75866 -0.306341 -1.62912e-22)
(1.08046 -0.528006 0)
(1.89662 -0.0327883 4.61482e-20)
(1.99932 0.0691161 -8.74545e-22)
(1.39892 -0.774677 -1.25401e-19)
(1.59612 -0.775586 0)
(-0.588335 0.305939 6.20261e-19)
(1.346 -0.730473 1.41521e-19)
(1.90916 0.368718 -5.95517e-20)
(1.98829 -0.0331666 1.22559e-21)
(2.27338 -0.857875 0)
(0.954084 -0.068148 2.55579e-20)
(0.917889 -0.451361 0)
(1.61982 -0.665591 0)
(1.9908 0.0636608 9.07931e-20)
(2.00061 -0.840006 1.57705e-19)
(-0.178023 0.0556914 -1.88564e-18)
(2.01555 -0.87663 0)
(2.41054 -0.00384998 -7.94508e-20)
(0.847979 -0.417629 0)
(1.96179 -0.113349 -1.11568e-19)
(1.33484 -0.824002 0)
(2.34077 0.0631214 -4.7892e-20)
(2.67692 -0.51062 8.43556e-19)
(1.9914 -0.488466 1.17477e-19)
(2.14469 -0.0737652 -7.25103e-21)
(1.49697 -0.525289 4.6779e-19)
(1.6422 -0.755624 0)
(1.70783 -0.771939 -2.95141e-19)
(1.76519 -0.752225 -1.879e-19)
(1.63588 -0.670913 0)
(2.2419 0.233407 5.81719e-20)
(2.35871 0.32142 5.40092e-20)
(2.15202 0.164199 3.90775e-21)
(1.46039 -0.788588 4.36429e-20)
(1.25206 -0.457857 0)
(2.45704 -0.0336001 0)
(1.68377 -0.717499 6.71062e-20)
(2.18569 0.0492565 2.04036e-20)
(1.66035 0.287142 -3.6876e-19)
(0.901223 -0.436999 1.66814e-21)
(2.00896 -0.121521 1.40435e-19)
(1.09997 -0.548323 -2.8362e-19)
(1.65342 -0.0410048 0)
(1.79587 0.291889 -1.94013e-19)
(1.7862 -0.731326 0)
(1.00259 -0.498552 0)
(2.03962 -0.0154816 -1.10602e-20)
(1.93522 0.222334 -1.17034e-20)
(0.884327 -0.453911 -1.40055e-19)
(2.40844 0.237538 0)
(2.74862 -0.268564 0)
(0.965857 -0.458105 3.23102e-19)
(0.941134 -0.47323 3.58742e-19)
(1.98962 -0.00892354 5.91164e-21)
(2.09983 -0.054891 -1.47274e-21)
(2.17323 -0.224743 1.41297e-19)
(1.82275 -0.762257 1.9388e-19)
(1.85443 0.0937424 1.82944e-20)
(1.5249 0.339455 -3.90395e-21)
(2.08549 -0.85656 0)
(0.853763 -0.981295 0)
(1.97445 0.0338846 1.49741e-20)
(1.30098 -0.633973 -3.22287e-19)
(1.92109 0.0510834 0)
(1.6365 0.0809711 3.53618e-19)
(2.42192 0.265359 3.08354e-20)
(1.7317 0.0550349 0)
(1.82449 0.0580037 0)
(2.06022 -0.757 1.48989e-19)
(1.77278 -0.360211 4.27355e-19)
(1.30673 -0.758674 -2.18782e-20)
(1.5994 -0.755101 6.97997e-20)
(1.81811 -0.794839 7.43212e-20)
(0.233177 0.139774 -2.41189e-19)
(1.96029 0.110624 3.93729e-21)
(2.16565 -0.0333607 1.96173e-20)
(1.89438 0.067321 -1.75992e-20)
(2.35625 -0.229776 -5.79091e-21)
(-0.56281 -0.219825 4.32197e-19)
(2.15881 0.0047094 -1.51573e-19)
(1.70156 -0.736291 -3.35473e-19)
(1.48175 -0.553138 8.26552e-20)
(1.48347 0.695315 3.95217e-20)
(1.23209 -0.613359 -2.6581e-19)
(1.5824 0.149197 2.59832e-19)
(2.01607 -0.00667214 6.70514e-21)
(2.1649 -0.495363 -9.28406e-20)
(1.68539 -0.430874 -4.04779e-20)
(1.16532 -0.571981 -3.36088e-19)
(0.340852 -0.54196 -9.76427e-20)
(2.03476 0.0681077 -1.3876e-20)
(1.56193 0.068027 -4.01885e-19)
(2.45059 0.813524 0)
(1.94438 0.205952 2.0323e-19)
(2.25108 -0.0237949 -1.48399e-20)
(1.20543 -0.508227 6.49995e-20)
(1.51639 -0.780111 0)
(1.22293 -0.58684 -7.17992e-19)
(2.68713 0.675708 9.07477e-19)
(1.93689 -0.0578491 -2.05553e-19)
(0.160309 -0.644483 4.85593e-20)
(1.88191 0.454345 8.18708e-20)
(-1.73715 1.4756 0)
(2.01469 -0.755198 2.6611e-19)
(2.77128 1.00828 0)
(2.01651 0.0567897 7.11346e-21)
(0.987021 -0.112255 -3.9144e-19)
(1.70742 0.300917 3.02818e-19)
(1.68061 1.65277 -8.387e-20)
(2.88229 0.477353 9.55235e-20)
(1.70907 -0.883533 -1.48066e-19)
(-0.405524 -0.794581 -7.64823e-19)
(0.881197 -0.464272 1.6606e-20)
(2.1413 -0.0545514 1.08921e-19)
(2.25626 -0.821113 -1.61677e-19)
(1.50214 -0.213325 -9.80764e-20)
(0.160895 -0.739427 -1.19097e-19)
(1.67956 -0.775143 -1.41493e-19)
(1.29282 -0.589197 -4.75208e-19)
(1.31521 -0.586612 3.97428e-19)
(2.68853 1.10629 -1.44381e-19)
(1.55879 -0.388757 -1.25461e-19)
(2.00863 -0.34127 1.3787e-19)
(2.13253 2.15974 5.19173e-19)
(2.00316 0.243674 1.30576e-19)
(1.00861 -0.494654 0)
(2.03396 -0.0465164 -4.52303e-19)
(1.6644 0.349435 -2.48478e-19)
(1.67843 -0.395051 1.02622e-19)
(1.96403 -0.886612 2.94119e-19)
(2.2526 0.000652418 -1.15817e-20)
(2.10085 -0.0166255 -2.41843e-20)
(2.06247 0.046597 0)
(2.13734 -0.266669 1.45975e-19)
(1.71777 -0.169698 0)
(2.11919 -0.035663 1.79623e-19)
(1.9018 -0.866334 1.03778e-19)
(1.8175 -0.664333 -9.63608e-20)
(3.906 -0.598319 0)
(1.79133 -0.237303 4.12293e-20)
(2.05963 0.0752877 0)
(0.2273 0.0541977 -2.99502e-19)
(0.993285 -0.40765 -1.61389e-19)
(1.78203 -0.719971 -3.48849e-19)
(1.67351 -0.40048 -2.77415e-20)
(1.68093 -0.778788 -2.42166e-19)
(-0.160065 -0.1114 2.08984e-18)
(2.09966 -0.45631 -3.18948e-19)
(1.90498 -0.025592 -6.49056e-20)
(4.12613 -0.351182 -7.1528e-19)
(1.863 -0.226402 -2.63442e-19)
(1.58607 -0.776035 -7.07931e-20)
(2.41496 0.0443885 -7.19883e-20)
(1.75099 -0.241013 -1.31429e-19)
(2.55458 -0.555762 0)
(1.19999 -0.591385 9.63683e-20)
(1.82381 -0.606485 -3.81768e-19)
(1.55213 0.602732 -2.87121e-20)
(1.69082 -0.69217 -2.2866e-19)
(2.20883 0.327413 4.25471e-20)
(1.9983 -0.812115 2.7971e-19)
(2.22492 0.0959841 0)
(2.03992 -0.0316424 0)
(1.81627 -0.317858 -1.63464e-19)
(2.65723 -0.454801 -3.80042e-20)
(1.82871 -0.215683 3.63291e-19)
(0.42738 -0.0189205 0)
(2.08382 2.38695 0)
(2.02781 -0.631852 -2.3051e-19)
(1.88649 -0.585424 4.64647e-19)
(1.57436 -0.779532 0)
(1.82 -0.248578 0)
(2.62387 0.409508 5.44994e-19)
(1.56407 0.171872 0)
(2.02138 -0.496829 4.03011e-19)
(1.14285 -0.557137 6.24683e-19)
(1.35046 -1.42182 -9.90676e-20)
(3.23351 0.815785 0)
(2.25391 -0.416732 -1.26187e-19)
(2.10555 -0.871342 0)
(1.98506 0.128704 1.65456e-20)
(2.41128 0.0959733 7.57366e-21)
(-0.157864 -0.344941 -3.03696e-19)
(2.25125 -0.723172 1.70013e-19)
(1.98509 -0.342623 0)
(2.00849 -0.0280038 -6.85089e-21)
(1.84017 -0.581431 -6.86077e-20)
(1.6954 -0.773908 -2.60617e-19)
(1.66618 0.300169 4.62928e-21)
(2.3894 0.414161 1.17186e-20)
(2.13093 -0.00181148 3.0007e-21)
(1.87276 -0.0449498 1.7048e-19)
(0.959522 -0.411215 -1.15312e-19)
(2.12527 -0.0973669 -1.33863e-20)
(1.35464 -0.626656 0)
(2.37127 -0.0640628 0)
(1.50273 -0.723684 -2.93924e-19)
(2.02245 -0.108327 -1.31809e-19)
(1.68769 0.251336 2.4307e-19)
(2.7258 -0.173001 1.23786e-19)
(2.08954 0.118833 -8.40288e-20)
(2.06134 0.0350585 -1.11556e-19)
(1.73386 0.305765 -4.87661e-19)
(1.88932 -0.0213376 0)
(1.53165 -0.773424 -1.3845e-19)
(-0.557504 -0.608927 1.06126e-19)
(2.00784 -0.036964 8.23096e-20)
(2.37152 -0.136091 -2.04421e-20)
(1.70131 -0.384591 0)
(1.93522 -0.0851776 1.05164e-20)
(2.39093 -0.237322 1.08163e-19)
(0.476853 -0.415787 4.26749e-20)
(2.09286 -0.198399 0)
(0.549522 -0.176 0)
(2.0585 -0.0578013 0)
(2.1316 -0.522246 0)
(2.0529 -0.799384 -3.68978e-21)
(1.84788 0.356063 0)
(0.756499 -0.336562 -4.26227e-19)
(2.16191 -0.687521 -1.79277e-19)
(1.97412 -0.00826656 4.41444e-21)
(2.28643 0.0220253 -5.71081e-20)
(2.11121 -0.00585294 0)
(1.59304 1.23805 -1.30796e-19)
(1.54764 -0.921426 -3.53989e-19)
(2.2476 -0.324359 0)
(1.84644 -0.0462864 2.62586e-19)
(1.97261 -0.825837 -4.87994e-19)
(2.23479 0.332287 0)
(1.98496 0.0721903 0)
(1.18983 -0.327583 7.02874e-19)
(1.85149 0.359299 -2.96738e-19)
(2.28886 -0.0642111 -1.35265e-19)
(1.21133 -0.578865 7.63008e-20)
(1.52641 -0.767826 -1.0768e-19)
(1.48261 -0.821066 0)
(2.2681 -0.100718 4.28586e-20)
(2.20262 0.545028 -1.42122e-20)
(2.01623 -0.84097 2.85835e-19)
(-1.65127 1.26986 1.20628e-18)
(1.62178 -0.816423 1.56418e-19)
(1.9538 0.0308392 -1.84275e-19)
(1.52153 -0.978016 3.30495e-19)
(1.54436 -0.309877 1.08456e-19)
(2.52217 -0.675866 6.54965e-19)
(1.28004 -0.476254 -2.93024e-19)
(1.99021 -0.0944256 3.12828e-21)
(2.59396 0.312565 7.66862e-20)
(0.97861 -0.509075 1.48715e-19)
(0.847465 -0.403215 1.5133e-19)
(2.04955 -0.878034 0)
(2.15059 0.0455615 -2.81811e-21)
(1.28604 -0.656028 4.91598e-20)
(-0.00101204 -0.0910158 -2.47596e-18)
(1.50021 -0.728648 0)
(1.69978 0.91756 0)
(1.87255 -0.0736788 -2.42705e-20)
(1.34037 -1.2877 1.23343e-19)
(1.95867 0.0357915 3.33282e-20)
(0.100096 -0.0951013 -1.09964e-18)
(1.87462 0.800968 0)
(1.29614 -0.541819 2.40643e-21)
(0.726988 -0.657419 -6.24347e-20)
(1.76286 -0.730389 -1.76735e-19)
(1.84687 -0.587802 0)
(2.4407 -0.746215 0)
(1.98616 -0.161842 0)
(1.69586 -0.773532 -8.80257e-20)
(2.0955 -0.133609 7.84977e-20)
(0.697342 -0.553889 -1.77569e-19)
(2.07989 0.0143925 -8.72252e-20)
(2.48843 -0.642841 -9.64163e-20)
(1.25441 -0.970097 0)
(1.98387 -0.006727 0)
(2.02568 0.0642945 -3.76254e-20)
(2.39828 0.0570338 5.83221e-20)
(2.01511 0.0237361 -2.00543e-19)
(1.75485 -0.876886 0)
(1.23793 -1.9032 9.63822e-19)
(1.22989 -0.145054 -2.04993e-19)
(2.4002 0.253562 5.16598e-20)
(2.10117 -0.658843 2.98607e-19)
(3.16969 0.524783 2.49347e-19)
(2.5218 -0.0846258 0)
(2.44892 -0.0680574 -6.70528e-20)
(2.0167 0.0204566 0)
(1.96446 0.00974991 -1.12786e-19)
(2.08325 0.0658065 2.97152e-20)
(2.42406 0.0137106 8.36731e-20)
(1.72046 -0.484562 4.49404e-19)
(1.90482 0.357823 1.63475e-19)
(1.14421 -0.589033 -7.81705e-20)
(1.92727 -0.781504 -1.81264e-19)
(2.70176 1.60984 -1.68239e-19)
(2.05091 -0.0167074 0)
(1.94817 -0.475922 0)
(1.49285 -0.797556 0)
(2.30194 -0.195241 2.80649e-20)
(-1.18656 0.695234 1.30286e-19)
(0.953563 -0.471968 3.71913e-19)
(1.99122 0.00907241 -1.60662e-20)
(2.78723 -0.274604 6.33244e-21)
(0.298492 -0.0236342 5.89017e-19)
(1.98474 2.1242 -6.0053e-20)
(2.00731 0.00300676 -8.51435e-21)
(2.1229 -0.0746421 3.90749e-19)
(1.04161 -0.457552 0)
(2.39048 0.284559 -4.60371e-20)
(0.978427 -1.28968 -2.44435e-18)
(2.37247 -0.224467 -2.62928e-19)
(-1.62331 0.209805 5.81196e-20)
(1.89277 0.150735 3.93564e-21)
(1.47477 -0.496173 3.16305e-19)
(2.15457 0.546346 0)
(1.93291 0.0575603 -6.75522e-20)
(1.21278 -0.512426 -6.86381e-19)
(2.01901 0.0216058 -6.70271e-21)
(1.47151 -0.70777 0)
(2.27737 -0.0383957 -1.12541e-19)
(1.17408 -0.567158 2.12247e-19)
(2.48143 -0.744025 -4.82593e-20)
(1.84953 -0.77002 -2.61206e-19)
(2.0809 0.0600125 -2.02773e-20)
(2.53709 -0.214641 5.91456e-21)
(1.09454 -0.540105 4.07773e-19)
(2.30127 0.00607318 1.82943e-19)
(1.97234 -0.439129 0)
(1.97637 -0.892401 -2.78242e-19)
(1.80551 -0.763164 -7.92705e-19)
(2.47914 0.22347 1.21896e-20)
(1.94779 0.0966609 3.00359e-20)
(3.28736 1.54369 0)
(1.95986 -0.0920738 0)
(2.12695 -0.0085768 -1.34588e-19)
(1.59021 0.709904 5.0191e-19)
(2.84878 0.919543 0)
(2.4766 -0.0426993 1.08048e-19)
(1.83395 -0.809253 -3.82503e-21)
(1.09254 0.217807 -5.12403e-19)
(1.02772 -0.456375 -3.70914e-19)
(1.70307 -0.780194 9.49332e-20)
(1.8566 0.0777845 1.39401e-20)
(1.68952 -0.787891 3.28862e-19)
(1.98556 -0.361851 -1.15747e-19)
(2.33518 -0.0585232 0)
(1.52617 -0.177991 -8.41844e-20)
(1.63364 0.24043 0)
(1.88374 0.182479 -3.26228e-19)
(2.14787 -0.45787 0)
(2.26283 -0.129696 -1.12623e-19)
(1.96618 0.0621263 -1.26806e-20)
(2.21857 0.193881 -4.85653e-20)
(1.27257 -0.517675 3.86541e-19)
(1.95633 0.112029 -2.75766e-19)
(2.10986 0.489336 -2.91034e-19)
(2.25759 -0.958448 0)
(1.53947 -1.01367 0)
(1.34269 -0.55722 -3.7934e-19)
(2.20765 0.259867 0)
(3.10082 -0.222631 -7.24436e-19)
(1.93456 0.149157 0)
(1.49046 0.289601 5.22904e-21)
(1.07127 -0.549391 1.23753e-19)
(1.8724 -0.611893 5.54168e-19)
(1.67053 -0.837911 6.97545e-20)
(2.52189 -0.518638 0)
(1.98649 0.0918307 7.00547e-21)
(1.96174 0.0104797 -1.79364e-19)
(0.949739 -0.506445 -1.85896e-20)
(1.96413 0.0384909 -1.58926e-19)
(2.44575 -0.103594 -5.2235e-20)
(2.20698 0.116353 -3.43879e-20)
(3.17763 0.336299 3.66686e-19)
(2.30653 0.122168 -7.49928e-20)
(1.53642 -0.901605 -7.01389e-20)
(1.8 -0.565029 0)
(0.489392 -0.637534 9.09967e-20)
(2.01742 0.0232054 -1.1917e-19)
(2.55065 0.113951 0)
(2.06581 0.0247855 1.00526e-19)
(1.30427 -0.626999 -2.69772e-19)
(1.75355 1.04836 1.08931e-19)
(2.40007 -0.893575 0)
(1.54071 -0.727151 9.95026e-20)
(2.52796 -1.51303 0)
(2.11871 0.0144844 1.88514e-20)
(1.8884 -0.0312803 -5.90887e-20)
(3.46254 -0.397058 1.98447e-18)
(1.19162 -0.170428 0)
(1.64826 0.196151 1.77815e-19)
(1.89745 0.0347179 1.02507e-19)
(-1.42503 1.35925 0)
(1.8907 0.0119422 0)
(2.08095 -0.199953 0)
(0.219826 -0.106516 1.62641e-19)
(1.75339 -0.368065 3.84906e-20)
(2.20103 -0.120647 0)
(1.967 0.0548131 0)
(1.5222 -0.0237201 3.61464e-20)
(1.34013 -0.801393 0)
(2.2422 0.121077 -1.70524e-20)
(2.96028 0.725226 2.03263e-19)
(2.02763 0.016433 6.61866e-21)
(1.94645 0.291732 -2.77215e-21)
(1.09483 0.284823 5.89018e-19)
(3.08373 0.914724 -2.2227e-19)
(2.45959 -0.0810308 4.46762e-21)
(2.02972 0.05542 1.19991e-19)
(1.66671 -0.252001 -2.0222e-19)
(1.99821 0.279103 2.11501e-21)
(2.06326 0.00120511 0)
(1.68468 -0.784033 -3.20535e-19)
(-0.525283 -0.28104 0)
(0.610489 -0.707993 -4.52872e-19)
(1.72366 -0.0991921 0)
(2.15926 0.329343 0)
(1.48721 -0.710101 -2.12437e-19)
(1.9777 -0.0686461 -4.70427e-21)
(-0.260833 -0.192127 -2.15989e-18)
(2.06283 -0.0108418 8.78411e-21)
(1.93342 -0.753393 2.93209e-19)
(3.05434 0.605709 2.31428e-19)
(-1.34118 -0.105311 1.70328e-18)
(2.14563 0.0672256 1.89093e-20)
(2.23466 -0.876629 9.19494e-20)
(1.98379 0.0457097 -1.69131e-19)
(2.35946 -1.03168 0)
(1.81953 -0.169146 -3.77554e-19)
(1.92302 -0.503787 3.05719e-19)
(2.02461 0.123095 -4.21034e-19)
(1.22176 -0.695685 -1.11003e-19)
(1.67119 1.04342 -1.13674e-19)
(2.94522 0.829113 3.1652e-19)
(2.18925 -0.471916 0)
(1.93533 -0.0306298 0)
(2.48845 0.560894 -8.08032e-19)
(2.06257 -0.114175 7.40102e-20)
(1.48836 -0.795426 0)
(2.18516 -0.00267662 -9.86244e-20)
(2.00705 -0.0862261 -2.17271e-19)
(1.38864 -0.808002 -6.68873e-20)
(1.48091 -0.790662 2.42354e-19)
(2.16623 0.10537 -8.73796e-22)
(1.75194 -0.755798 2.80724e-21)
(2.52847 -0.232942 -1.68066e-19)
(2.06326 -0.481261 2.08495e-19)
(3.33001 0.349441 7.92147e-19)
(1.65004 -0.686475 2.90571e-19)
(2.0025 0.0439909 -6.23401e-22)
(1.1718 0.1401 4.23224e-19)
(2.14085 2.10522 0)
(1.81146 -0.545154 1.80881e-19)
(1.55829 -0.769293 0)
(0.549058 -0.763733 -5.63637e-19)
(1.80416 -0.75485 0)
(0.841169 -0.414347 -3.0751e-19)
(1.7493 -0.745821 -4.03953e-19)
(3.6018 0.5126 -3.98916e-19)
(2.29111 -0.931005 0)
(1.12478 -0.619406 0)
(2.18289 -0.386405 0)
(2.00177 0.190748 7.42336e-20)
(2.45539 -1.24942 -7.80814e-19)
(1.22082 0.168659 1.46178e-18)
(1.64864 -0.372898 -6.1863e-21)
(3.42005 0.183621 -8.83097e-19)
(1.98969 0.159024 0)
(1.30547 1.66518 2.23677e-19)
(2.52443 0.980727 1.47947e-19)
(2.40311 -1.76329 -2.24089e-19)
(1.78168 -0.825086 2.24439e-19)
(2.22227 0.277764 3.58958e-21)
(1.33906 -0.647106 4.46235e-19)
(2.23959 0.235446 0)
(1.95422 -0.0510083 6.10564e-20)
(2.22705 -0.0654301 -7.992e-19)
(2.03905 -0.221649 2.3141e-20)
(3.23149 -0.0902501 -4.1522e-19)
(1.70441 -0.184201 0)
(2.53344 0.449355 0)
(2.28159 -0.962089 0)
(-0.937164 0.00218999 0)
(1.97679 0.00285473 0)
(1.54766 -0.602376 1.26182e-19)
(3.58233 -0.0763161 6.67907e-19)
(1.57909 -0.666022 3.47434e-19)
(2.08205 -0.0205713 1.81058e-19)
(1.59139 -0.768359 0)
(2.22612 -0.917373 2.72347e-21)
(-0.505805 0.853155 0)
(1.5887 -0.74374 -1.31116e-19)
(-0.338041 0.438285 9.05916e-19)
(3.41779 -0.739675 -3.41792e-19)
(1.98688 0.251857 2.09217e-19)
(2.14341 0.0723518 -6.93715e-20)
(2.47452 -0.735175 -2.10919e-19)
(2.3483 0.00136347 0)
(-0.232495 -1.14745 7.16453e-19)
(2.0211 0.000292229 0)
(1.62255 0.682278 1.71538e-20)
(2.3695 0.0858308 0)
(2.03782 0.191357 -7.04413e-20)
(2.14731 -0.0736586 0)
(1.07769 -0.432177 -2.61347e-19)
(1.36252 -0.624023 2.85492e-19)
(1.98589 -0.0201773 -6.27752e-20)
(1.43066 0.249606 3.65074e-19)
(0.388604 -0.195018 -3.33647e-19)
(1.82897 -0.141621 0)
(1.16349 -0.299246 -9.94728e-19)
(2.01074 0.0562283 3.64287e-21)
(3.01281 -0.706938 -8.82748e-19)
(2.14413 -0.0739117 -5.45808e-21)
(2.13291 -0.685222 4.07667e-19)
(4.10857 0.0760177 0)
(1.93654 -0.864843 -6.16254e-20)
(1.70678 -0.77459 0)
(2.40338 0.157146 7.75054e-21)
(0.609371 -0.210593 6.5879e-20)
(1.64217 -0.770934 0)
(2.26003 0.0166727 0)
(1.55361 -0.429434 -8.02123e-20)
(2.40103 0.391326 0)
(1.83906 1.51574 7.01616e-20)
(2.92612 0.373059 -3.64786e-19)
(0.197617 -0.486271 -1.96223e-19)
(1.46564 -0.81338 -1.04429e-19)
(2.04291 0.0226904 -6.85546e-21)
(1.29406 -0.932186 -2.47516e-20)
(1.00018 -0.46336 -1.78641e-19)
(1.95691 -0.106818 3.95184e-19)
(1.37146 -0.776406 7.594e-20)
(0.658896 -0.33262 0)
(2.4035 0.0881011 -1.00653e-19)
(1.45827 -0.439097 1.19826e-19)
(0.537469 0.120655 7.16635e-20)
(3.0847 -0.524441 7.62966e-19)
(2.95299 1.27849 0)
(1.91539 -0.544595 -3.07065e-19)
(1.98641 0.0848475 3.95766e-22)
(4.1024 0.389586 -1.18713e-19)
(2.02654 -0.0321706 -1.88867e-19)
(1.43082 -0.750271 5.96425e-20)
(1.68211 -0.764763 1.88691e-19)
(1.59256 -0.655208 -8.38454e-20)
(1.50334 -0.799181 1.42451e-21)
(2.1233 -0.128668 -1.35577e-19)
(1.48726 -0.772054 -6.68259e-20)
(1.77206 -0.114584 0)
(1.92978 -0.183314 -3.62925e-19)
(1.53248 -1.17763 0)
(1.34979 -0.812757 -1.22688e-19)
(2.98422 -1.30101 4.22374e-19)
(-0.886187 0.368152 1.91918e-18)
(1.98763 0.0367495 -1.71843e-21)
(0.776139 -0.378628 1.88339e-20)
(-0.683438 0.754029 0)
(2.349 -0.841273 2.23678e-19)
(2.39328 -0.925115 3.61395e-20)
(0.387544 -0.31669 -1.70404e-18)
(1.83887 0.445687 0)
(1.7136 0.376207 0)
(0.319529 0.229712 0)
(1.42304 -0.103921 -3.26926e-20)
(1.87786 -0.0450386 -3.54956e-19)
(1.45561 0.0696086 0)
(1.67126 -0.451301 0)
(2.24463 0.16832 1.71196e-21)
(1.79154 -0.650435 -5.58038e-22)
(2.05059 0.395719 -2.25315e-19)
(2.00711 -0.43761 -1.41562e-19)
(1.93201 0.0775372 1.0302e-20)
(1.96297 -0.0519805 -2.62661e-20)
(1.96973 0.056564 -1.18607e-20)
(2.10712 0.392305 -1.79963e-20)
(1.9665 0.98929 0)
(0.98178 -0.444651 6.40427e-22)
(0.21534 -1.65702 0)
(1.19358 0.0369135 0)
(2.56234 -0.113418 -3.50401e-19)
(1.61827 -0.775275 0)
(2.38896 0.280389 0)
(1.92599 -0.15288 5.56732e-19)
(2.08564 -0.909461 0)
(2.17973 0.446628 2.898e-19)
(3.06054 -0.280462 4.10919e-19)
(3.01388 -0.113289 1.28921e-19)
(2.00501 0.0333595 8.62434e-22)
(1.26643 1.016 2.1258e-19)
(2.38959 -0.896713 2.0287e-21)
(2.28768 -0.896076 4.32367e-22)
(1.31919 -0.537257 3.71534e-19)
(1.32591 -0.934992 0)
(1.07711 -0.532767 0)
(1.41793 -0.7022 -2.37486e-19)
(1.35051 -0.628257 -3.76619e-19)
(1.11175 -0.679331 0)
(1.35706 -0.89602 1.62995e-19)
(0.883105 -0.415221 0)
(-0.619979 -0.971861 1.28618e-18)
(1.27148 -0.5986 -4.79194e-19)
(2.8988 -0.344462 -1.58365e-20)
(3.11485 0.127911 3.56936e-19)
(1.36447 -0.497524 7.49298e-20)
(2.10474 -0.0351626 9.09051e-20)
(2.33691 0.721546 0)
(2.42097 0.525684 0)
(1.22962 -0.0879438 0)
(-1.35342 1.45423 -1.14344e-18)
(1.5472 -0.607589 0)
(2.28495 0.44324 0)
(2.01082 0.097825 0)
(2.83545 -0.240864 2.3387e-22)
(0.239098 -0.980214 1.42246e-19)
(2.16644 -0.815405 -1.44075e-19)
(1.35834 -0.15526 7.90938e-20)
(1.92426 0.169473 0)
(1.66286 -0.75758 0)
(2.10346 -0.624303 -2.72324e-19)
(1.64261 0.360607 5.32348e-19)
(1.13768 -0.55529 -1.32691e-19)
(2.01604 0.0370174 -6.66899e-21)
(1.81988 -0.500426 3.29995e-19)
(1.16411 0.303794 -9.19689e-19)
(1.53975 -0.720958 0)
(1.30655 1.11832 -5.15756e-19)
(0.495663 0.238515 -5.93603e-19)
(2.84642 -0.190452 0)
(2.12422 -0.0708009 0)
(1.82464 -0.0161392 0)
(2.04736 0.0910758 -3.27428e-19)
(1.50952 0.173088 -3.72805e-19)
(1.69241 0.0841634 0)
(4.02737 1.04132 1.91121e-18)
(1.94959 -0.864682 2.89614e-19)
(2.6498 -0.138963 3.10974e-20)
(1.28629 -0.651669 9.98619e-20)
(2.14574 -0.282659 0)
(2.04714 0.0179283 5.50498e-20)
(1.89212 -0.472973 0)
(1.45391 -0.496359 -1.14501e-19)
(1.89183 -0.851926 0)
(2.28617 -0.797834 2.98572e-19)
(1.94333 -0.387197 7.116e-22)
(2.01789 0.0302847 -7.42381e-21)
(2.69113 -0.181913 0)
(1.94795 -0.827229 0)
(1.72472 -0.733757 -4.23726e-19)
(2.23625 0.234052 1.88245e-20)
(1.5595 -0.730156 6.23257e-20)
(1.00081 -0.487221 3.79199e-19)
(1.93314 -0.0711438 0)
(1.6513 0.1292 -5.51834e-19)
(2.2287 -0.0205759 -1.04156e-20)
(1.52217 -0.171944 -3.20742e-20)
(2.03283 0.0317427 -9.05925e-21)
(2.03144 0.03943 0)
(1.33246 -0.425581 5.27429e-19)
(1.15228 0.0779113 -5.88757e-19)
(3.3595 -0.364894 9.2282e-21)
(1.88203 0.119812 -6.02653e-19)
(1.31206 -0.670702 8.93692e-20)
(3.44042 -0.703936 -3.00452e-18)
(2.24655 -0.382983 1.44016e-19)
(2.05735 0.00737911 -3.1541e-20)
(2.75475 0.365766 1.62358e-18)
(-0.29609 0.084101 -1.95961e-20)
(1.49769 -0.752635 1.63533e-19)
(1.56574 -0.746729 1.34276e-19)
(1.8811 -0.00789693 3.16969e-20)
(2.40981 -0.0911754 0)
(2.55395 -1.20727 8.07619e-19)
(1.34124 -0.651611 2.00886e-19)
(1.79387 -0.314281 1.98169e-19)
(-0.339194 0.686719 0)
(1.7577 -0.434601 -5.33783e-20)
(2.01982 -0.019433 -6.30027e-22)
(1.89707 0.0468861 0)
(1.32927 -0.721297 1.20099e-19)
(1.55555 -0.619089 3.55425e-20)
(2.03653 0.0492369 0)
(1.20709 -0.477355 0)
(1.57398 -0.0830498 -3.49614e-20)
(1.54105 -0.281553 -1.03915e-20)
(2.55447 -0.026487 1.28565e-19)
(-1.31505 1.29124 0)
(2.04857 -0.0399692 -3.19076e-19)
(1.93862 -0.221428 -3.89778e-20)
(2.36493 -0.76842 1.50452e-20)
(1.36845 -0.55695 4.65474e-19)
(1.58467 -0.779618 -1.28738e-19)
(1.62053 -0.747897 7.94101e-20)
(3.34192 -0.332911 -7.98986e-21)
(1.80473 -0.566227 0)
(3.22608 0.497937 -1.44421e-18)
(1.71488 -0.683826 2.12741e-19)
(2.15784 1.72647 1.79424e-19)
(0.962383 0.440488 0)
(1.2974 -0.310766 -4.68595e-19)
(1.3738 -0.599085 -5.64359e-19)
(1.59372 -0.783431 1.59139e-19)
(-0.0540004 -1.06655 -5.32753e-19)
(2.82608 1.67586 0)
(0.674386 0.358155 -9.12633e-19)
(2.24004 0.232276 0)
(0.970298 -2.08123 -8.87052e-19)
(2.21452 0.364197 2.2477e-18)
(1.46068 -1.2847 0)
(1.62923 -0.781266 5.56544e-20)
(1.72317 -0.208657 -8.15901e-20)
(-0.10348 -0.505388 1.15092e-19)
(1.80813 -0.709349 3.81821e-19)
(1.32536 -0.656735 -3.95495e-19)
(1.34304 -0.619458 0)
(2.077 -0.015567 1.05474e-19)
(3.9581 -1.17233 0)
(2.23906 0.0295458 -9.66726e-22)
(-0.736528 1.39331 -2.46189e-18)
(0.708734 -0.29592 2.54519e-19)
(2.02186 0.0514303 0)
(2.03003 -0.805995 -2.74179e-19)
(2.24747 -0.205724 7.17678e-20)
(1.63822 -0.759982 2.06274e-19)
(1.51357 -0.608925 0)
(1.62599 -0.76056 -1.83592e-19)
(3.63876 -0.524749 -1.01735e-18)
(1.69151 0.109766 7.06924e-19)
(1.8622 -0.13151 0)
(1.99835 -0.00421063 1.59053e-19)
(2.20279 0.129723 2.04616e-18)
(0.51315 -0.888737 -7.02091e-20)
(2.34645 -0.584194 9.29015e-20)
(1.38801 -0.713178 0)
(1.81646 0.005688 -1.75814e-20)
(1.99734 0.0178552 2.42749e-22)
(2.75842 -0.159267 8.88757e-21)
(2.15132 -0.0308299 0)
(1.66621 -0.761332 9.2215e-20)
(1.76663 -0.50699 -3.63595e-22)
(1.41863 -0.459902 5.76384e-20)
(4.22533 -0.463915 0)
(2.19581 -0.832954 -1.08002e-19)
(1.56057 -0.765286 2.76257e-19)
(1.81353 -0.467887 -4.12986e-19)
(0.72349 -0.0273351 0)
(2.22207 0.738528 3.97722e-20)
(2.22443 -0.805102 9.08303e-20)
(1.45915 -0.734135 -1.66268e-19)
(1.95999 0.152919 0)
(-0.129842 -0.186521 4.78805e-19)
(1.5603 -0.144526 0)
(1.67733 -0.776097 1.8196e-19)
(1.59263 -0.346905 0)
(1.96953 -0.154256 -2.05061e-19)
(2.22379 -0.164717 -1.9166e-19)
(3.54263 0.77833 -9.76416e-19)
(1.56913 0.0387645 0)
(2.19719 -0.927798 -1.63691e-19)
(1.84033 -0.0152581 0)
(2.28032 0.166438 0)
(2.3617 -0.957007 2.61897e-20)
(1.67953 -0.764556 1.01394e-19)
(0.736786 -0.142228 1.60901e-19)
(2.27212 -0.559276 -5.87238e-20)
(1.76198 0.208638 2.23187e-19)
(1.30941 -0.878733 -8.4301e-20)
(1.9585 0.222909 1.06745e-19)
(1.58258 -0.780124 -2.86241e-20)
(1.77974 -0.740231 0)
(2.32823 0.0401228 0)
(1.43493 -0.657444 0)
(1.39826 -0.728061 2.60658e-19)
(1.33273 -0.495123 -3.28079e-19)
(1.53269 0.00118049 0)
(1.13888 -0.59753 2.84091e-19)
(2.29293 -0.11373 -1.33537e-19)
(1.32828 -0.687736 -1.01697e-19)
(1.53257 -0.57913 -1.04939e-19)
(2.37471 -0.924877 0)
(0.252803 -0.472883 3.3579e-19)
(1.14112 -0.658129 -2.72654e-19)
(1.4221 -1.3929 0)
(-0.21507 1.01427 -1.38204e-18)
(2.00514 0.0419816 -3.42153e-21)
(2.20369 0.170983 8.61608e-20)
(1.9211 -0.0307688 2.03557e-19)
(2.84751 0.575659 -4.0009e-19)
(2.23268 0.0484622 1.1968e-20)
(2.98069 -1.713 0)
(2.08944 -0.809637 0)
(0.994479 -0.528021 2.91123e-19)
(-0.0315718 -1.32721 0)
(1.71971 -0.388758 -5.37848e-20)
(2.32755 -0.807711 -1.43898e-19)
(1.14361 -0.546408 3.9651e-19)
(1.97471 -0.0696136 -5.8094e-20)
(1.72418 0.298237 -2.23156e-19)
(1.67392 -0.673781 -2.09942e-19)
(1.7598 -0.699681 -3.8623e-19)
(1.46315 -0.222414 0)
(1.8595 -0.720492 3.61576e-19)
(1.9583 0.0267144 0)
(2.76223 -0.225497 -9.22735e-21)
(2.12203 1.0416 3.48495e-21)
(2.07975 0.955927 -4.7455e-20)
(2.37424 -0.357265 -1.54791e-19)
(-0.899173 -0.580326 -8.38119e-19)
(1.24122 -0.582718 0)
(1.58726 -0.514841 -3.10976e-20)
(1.69937 -0.735123 -1.50467e-19)
(2.08223 0.359045 -1.08664e-19)
(1.97599 -0.790489 3.24791e-19)
(1.97901 0.0314756 -2.78244e-21)
(-0.107621 -0.796417 2.40653e-19)
(2.12829 -0.882125 -1.31599e-20)
(0.499059 0.0304745 0)
(1.395 -0.728745 2.99927e-19)
(1.91518 -0.423082 2.17574e-19)
(2.0233 -0.0669965 -3.04926e-22)
(1.34857 -0.605201 8.28552e-19)
(-0.0308794 -0.0681626 6.90121e-20)
(1.79665 0.474226 0)
(1.3698 -0.754028 -1.10139e-19)
(1.64778 -0.759848 -1.38714e-20)
(1.24858 -0.419761 -6.29975e-19)
(1.31676 -0.743082 1.30314e-19)
(3.86049 0.301523 -4.22482e-19)
(2.05591 0.283527 5.50277e-21)
(1.12976 -0.479326 2.87378e-19)
(1.91533 -0.427374 0)
(2.29045 0.0277741 -1.22638e-19)
(2.09036 -0.0313209 -2.44773e-21)
(2.89892 0.255891 -3.64063e-19)
(3.33062 -2.02947 0)
(3.33482 0.178822 5.84066e-20)
(0.835378 -1.92698 8.35095e-19)
(1.76098 -0.75681 8.18055e-19)
(3.74363 -1.65323 1.79492e-20)
(2.32059 -1.50282 -3.21257e-19)
(0.518548 -0.645533 5.91851e-19)
(2.14753 -0.794918 3.03338e-19)
(2.02284 0.029874 -5.45431e-21)
(-1.94054 1.09615 -8.1904e-20)
(2.37592 -0.0465584 1.85561e-20)
(3.32339 -0.196572 0)
(2.01062 0.0235164 0)
(2.27644 0.30135 0)
(1.90911 -0.734728 -3.10748e-19)
(1.63711 -0.408699 6.61564e-20)
(0.283816 0.455005 0)
(1.38388 -0.45734 -1.35472e-19)
(1.53778 -1.08997 0)
(2.32714 -0.691794 0)
(2.0517 -0.57832 0)
(2.01675 0.0520864 0)
(0.0417274 -0.263437 -1.42813e-19)
(1.49803 -0.830969 0)
(1.97296 -0.635751 1.89408e-19)
(1.92907 0.0591193 0)
(1.98555 0.031383 0)
(2.00911 0.190115 7.77214e-21)
(1.44235 -0.692033 0)
(1.83916 -0.466093 0)
(-0.877651 1.24615 0)
(1.96953 0.0802561 2.48482e-20)
(2.05095 0.142826 0)
(2.45501 -0.933237 -2.59954e-21)
(1.9597 0.309639 1.43094e-21)
(0.662339 -0.454877 -8.09467e-20)
(1.98448 0.00475027 4.63646e-19)
(-0.299317 0.0590715 -1.16801e-19)
(1.15965 0.651935 -4.89209e-19)
(1.60214 0.517499 0)
(2.55284 -0.223592 8.57657e-21)
(1.77826 -0.241474 -1.93482e-19)
(1.72756 1.40179 1.15514e-19)
(1.86163 0.318182 3.04332e-19)
(0.954072 -0.367668 -6.12312e-19)
(1.66105 -0.727129 -3.23818e-19)
(1.88391 -0.711688 2.49967e-20)
(1.56382 -0.573292 0)
(2.8494 -0.528664 -4.79004e-20)
(1.62233 -0.545873 3.66895e-20)
(2.4107 0.0587497 -6.62522e-20)
(1.26763 -0.622418 0)
(1.85746 0.010111 -2.35067e-19)
(3.81061 -0.122692 -1.25029e-18)
(1.50943 -0.620007 4.24639e-19)
(1.40181 -0.637693 -5.15001e-19)
(1.84955 -0.848569 0)
(1.91833 -0.838136 0)
(1.88331 -0.580379 1.80339e-19)
(2.4574 -0.348358 -8.86494e-20)
(2.72053 -0.36226 -3.91481e-19)
(1.89586 -0.0282317 6.56558e-21)
(1.36338 -0.423848 -1.26159e-19)
(1.8206 -0.560298 3.49294e-19)
(2.29728 0.0662923 0)
(2.25441 0.156939 3.25989e-20)
(0.964575 -0.778617 -3.75275e-19)
(1.69047 -0.555975 1.70797e-19)
(1.36542 -0.299075 -1.00867e-19)
(-0.645626 1.15045 1.54512e-18)
(2.69737 -0.287378 3.26808e-19)
(2.42718 0.345553 9.74782e-20)
(2.35874 0.379218 0)
(1.52264 -0.724945 0)
(2.44308 -0.901814 1.80822e-21)
(1.30905 -0.334678 0)
(1.9458 -0.419948 1.42588e-19)
(1.71096 0.16482 3.99644e-19)
(1.70304 0.378205 -1.14219e-19)
(1.7338 -0.70695 8.3783e-19)
(2.00462 0.0409576 -1.76285e-22)
(1.91459 -0.0225353 0)
(1.96857 -0.076755 -3.44643e-21)
(2.02836 -0.577839 -1.67671e-18)
(2.11466 0.0891996 0)
(2.84545 -0.094318 0)
(2.05903 -0.823539 1.14399e-19)
(1.97861 0.343872 1.53422e-19)
(1.23922 -0.265268 0)
(1.91528 -0.432625 4.18329e-21)
(1.90036 0.0791043 1.09472e-19)
(2.3498 0.196727 -8.9203e-21)
(1.73439 0.400403 3.35671e-19)
(1.47089 -0.807887 -1.33327e-19)
(1.57172 0.147604 0)
(-1.27467 -0.436478 -3.14304e-18)
(0.658305 -0.299459 9.21998e-19)
(2.13232 0.0403485 1.20257e-20)
(-0.170758 -1.29527 -1.08303e-18)
(1.94714 -0.801821 2.32053e-20)
(2.40686 0.0535918 1.91991e-19)
(1.77133 -0.684431 0)
(1.92927 0.159679 4.12542e-21)
(1.87694 -0.0404182 7.25681e-20)
(2.30464 -0.00243164 -1.18236e-19)
(2.20778 0.311018 -4.71564e-20)
(2.39243 -0.841939 0)
(1.46523 -0.844941 0)
(2.28859 0.0570899 0)
(2.24669 0.276846 -5.19844e-21)
(1.22117 -0.581336 6.19963e-19)
(2.57012 1.48423 -1.2116e-19)
(1.61201 -0.179817 0)
(1.33576 -0.621037 -6.63693e-20)
(1.45264 -0.720601 1.07623e-19)
(1.5812 -0.839279 0)
(1.93117 0.286326 -9.17068e-20)
(1.73418 0.133975 -1.34883e-19)
(2.18495 -0.199059 -3.42694e-20)
(2.01616 0.0390248 -6.50328e-21)
(0.847537 -0.326624 0)
(2.17067 0.20907 -8.05782e-20)
(2.15973 -0.465437 0)
(2.12897 -0.269197 9.6447e-21)
(1.16479 -0.0381638 0)
(2.24794 0.673014 1.58684e-20)
(1.83036 -0.731553 -3.69865e-19)
(2.45659 0.53381 0)
(1.84421 -0.15528 -3.58217e-19)
(2.01807 0.045845 1.01874e-20)
(1.81442 -0.0162502 0)
(1.30063 -0.618541 0)
(0.679352 0.103652 -7.9544e-20)
(2.38927 0.0967725 -7.21793e-21)
(1.51188 -0.547629 -4.68971e-20)
(1.17165 -0.78189 5.31617e-20)
(2.25842 -0.0788268 4.00542e-21)
(3.98332 -1.12605 1.13988e-18)
(1.76566 0.346218 -1.42581e-21)
(1.93147 0.365637 0)
(3.21985 -0.108922 4.86038e-19)
(1.89809 -0.859005 0)