/*--------------------------------*- C++ -*----------------------------------*\
| =========                 |                                                 |
| \\      /  F ield         | OpenFOAM: The Open Source CFD Toolbox           |
|  \\    /   O peration     | Version:  2306                                  |
|   \\  /    A nd           | Website:  www.openfoam.com                      |
|    \\/     M anipulation  |                                                 |
\*---------------------------------------------------------------------------*/
FoamFile
{
    version     2.0;
    format      ascii;
    arch        "LSB;label=32;scalar=64";
    class       volVectorField;
    location    "9";
    object      U;
}
// * * * * * * * * * * * * * * * * * * * * * * * * * * * * * * * * * * * * * //

dimensions      [0 1 -1 0 0 0 0];

internalField   nonuniform List<vector> 
13486
(
(1.51046 -0.265782 4.20565e-19)
(1.69158 0.219568 2.41402e-19)
(2.70384 0.0271452 0)
(-1.83857 0.770252 -1.65929e-18)
(2.51974 -0.287644 -2.46262e-19)
(2.43901 0.175335 -2.12144e-20)
(2.4767 0.211577 -2.50901e-20)
(2.16528 -0.711635 4.44909e-20)
(2.03553 -0.35806 0)
(1.93817 0.674286 0)
(-0.495398 2.08834 -5.55808e-19)
(2.43372 -0.0716893 0)
(1.36371 -0.463968 -4.08174e-19)
(2.34664 0.735973 -3.96169e-20)
(2.38407 -0.00108885 -9.13999e-20)
(1.9023 0.662654 -2.03317e-19)
(1.30691 -0.495086 5.04931e-19)
(0.0789332 -0.668111 3.10662e-19)
(2.11702 -0.0106804 1.24147e-21)
(1.67447 -0.0899219 -4.35128e-19)
(-2.91684 0.877619 -8.3735e-19)
(1.38437 -0.481531 5.26943e-19)
(1.70947 0.212488 -1.92918e-19)
(4.35002 -0.00109958 0)
(2.00013 0.545351 7.06002e-20)
(4.30715 -0.103524 -3.92834e-19)
(0.249341 -0.130894 5.81538e-19)
(3.17105 -0.193814 4.80956e-19)
(2.00372 0.179857 0)
(3.11084 -0.434412 -4.85742e-19)
(-2.73032 0.631693 -5.98752e-19)
(2.20328 -0.0490179 -1.88436e-20)
(3.30185 0.219792 3.1453e-19)
(2.41662 -0.20238 0)
(2.17088 -0.67712 0)
(1.64725 0.016019 2.93683e-21)
(1.56431 -0.0567425 -6.8989e-20)
(1.57357 -0.733397 1.27763e-19)
(1.87147 -0.219501 -1.23648e-20)
(2.03621 -0.218375 1.31844e-19)
(3.06815 -0.626748 0)
(0.941289 -0.466909 -4.91078e-19)
(1.97321 -0.00578246 0)
(2.02159 0.454307 -3.28287e-19)
(2.03552 0.454752 1.35385e-19)
(2.43491 -0.0730471 4.80342e-20)
(-1.19185 -0.920709 1.03366e-18)
(1.96976 0.172431 3.32672e-22)
(1.56195 -0.0358837 5.20153e-20)
(2.8274 0.0533388 1.2142e-19)
(1.99957 0.0139146 2.91795e-19)
(1.93875 -0.0557208 0)
(2.38624 -0.201053 -1.0982e-19)
(1.73164 -0.629454 -2.02748e-19)
(0.00372428 -1.02907 0)
(2.47413 -0.306335 1.22431e-19)
(2.91683 0.21966 1.20157e-19)
(1.95114 -0.11205 -6.28804e-20)
(3.29871 0.254789 4.01138e-19)
(1.53589 -0.263762 0)
(-0.756683 2.60182 -7.24843e-19)
(1.5227 -0.257026 0)
(3.41282 0.57812 -2.26679e-19)
(-2.91048 0.889145 -9.67396e-21)
(1.90194 -1.70408 0)
(1.53456 -0.0791542 -3.71474e-20)
(-2.07297 0.948956 -1.53228e-18)
(1.47957 -0.0113045 1.59291e-19)
(2.037 -0.378804 -5.37553e-20)
(1.5219 0.0117874 1.72509e-20)
(-1.85764 0.907788 1.75449e-18)
(0.0258498 -0.923572 1.08695e-20)
(2.0397 -0.110852 1.17727e-19)
(-0.623635 0.332325 -3.28301e-19)
(1.43064 -0.116955 -9.62991e-21)
(2.89486 0.228719 -2.47022e-20)
(1.39935 -0.0758279 3.37385e-20)
(2.39904 0.00992982 4.17463e-20)
(-0.9148 -0.656348 -5.52451e-19)
(1.93913 -0.826521 0)
(1.92298 0.0342704 2.69619e-22)
(1.63231 0.305312 -1.57301e-20)
(3.12141 0.43798 -4.76129e-20)
(2.76445 0.00765822 -1.29989e-21)
(1.50377 -0.276011 -8.21613e-19)
(1.30222 1.41474 0)
(1.57462 -0.395451 1.76724e-20)
(2.00129 0.0250694 -4.54282e-19)
(1.88409 0.162125 -1.94495e-19)
(1.77485 0.897625 -2.53344e-19)
(2.16901 -0.168393 -6.23591e-20)
(2.30392 -0.540659 5.71217e-20)
(1.57428 -0.360951 1.00321e-19)
(1.69556 0.03344 1.21414e-20)
(1.96557 -0.577107 1.97859e-20)
(1.94957 0.143445 -1.25308e-22)
(0.293312 -0.192132 0)
(-2.58947 1.33139 8.63332e-19)
(2.04866 -0.212683 -2.52423e-19)
(1.35133 -0.470756 7.75324e-21)
(1.80447 0.0244482 0)
(2.3211 0.730263 -1.79202e-20)
(-2.70195 1.33411 4.27829e-20)
(1.94013 -0.0943395 7.36783e-20)
(1.26181 1.35315 0)
(1.16629 -0.461672 7.41821e-21)
(1.99464 0.0416971 -7.25759e-22)
(1.88412 -0.251539 -2.64123e-20)
(-0.919752 -0.634231 7.11931e-19)
(2.04856 -0.890004 0)
(1.41403 -0.670947 0)
(2.13374 0.11155 2.82834e-20)
(1.74248 -0.610077 4.27448e-21)
(2.66158 0.434799 -3.34188e-21)
(1.14364 -0.127545 0)
(1.34324 -0.657774 -3.72191e-20)
(1.99334 0.56128 0)
(2.55817 -0.176059 0)
(2.03133 -0.110584 0)
(1.60272 0.0330931 -3.10269e-20)
(0.271636 -0.686919 -1.39067e-19)
(-0.896166 2.53876 0)
(1.92976 -0.520329 0)
(1.88317 -0.221557 4.02734e-20)
(2.03057 -0.672123 0)
(1.9348 -0.0516745 0)
(2.25066 -0.173792 7.96441e-22)
(2.17922 0.0672511 1.50149e-19)
(1.96968 -0.10889 -6.41854e-20)
(2.48342 -2.12819 -9.99515e-19)
(1.89982 -0.0367999 -7.88486e-21)
(-1.34456 -1.03824 -2.63712e-19)
(0.460631 0.59275 6.61377e-19)
(-0.238237 0.186595 4.17501e-19)
(1.99996 0.005873 -4.66133e-20)
(1.88749 0.356489 -2.52308e-19)
(0.725317 0.574618 -1.58416e-19)
(2.05904 -0.866874 0)
(1.61106 0.0439987 8.76903e-21)
(2.16788 -0.533709 -2.45168e-21)
(3.10577 0.211546 -3.20379e-19)
(2.36634 -0.206288 9.45612e-20)
(2.27511 -0.108032 0)
(1.98011 -0.782814 0)
(2.09416 0.00466994 -5.48806e-21)
(2.76223 0.707385 -2.22838e-19)
(2.05651 -0.197765 -1.64939e-21)
(0.382219 1.36082 0)
(2.83991 0.0936677 0)
(2.01341 0.169688 0)
(2.0084 0.0110374 5.44146e-21)
(2.50717 -0.0492505 0)
(1.90795 0.0231753 -2.82996e-22)
(1.60692 0.302631 -1.36009e-19)
(2.15999 0.298396 0)
(2.90889 0.0358216 0)
(1.93407 -0.834006 0)
(0.967185 1.55493 7.11867e-19)
(1.85444 -0.724018 1.92417e-19)
(1.81353 -0.2716 -3.92983e-20)
(2.71911 0.0417059 4.6877e-20)
(1.86317 -0.698207 -2.85658e-19)
(1.99165 -0.238433 1.06634e-19)
(0.842473 -0.40074 2.12556e-19)
(1.96664 -0.0719681 0)
(2.44748 0.74073 1.21996e-20)
(2.28272 0.661988 1.41482e-19)
(0.551423 -0.200661 -6.28129e-19)
(2.05176 -0.165115 3.02715e-21)
(-0.250381 0.21058 1.12691e-19)
(0.4166 0.553288 2.04722e-20)
(2.15469 0.271966 1.21127e-19)
(1.99738 0.0590635 -4.05491e-19)
(2.29597 -0.0833202 1.82084e-22)
(1.90814 0.0758796 -7.21267e-22)
(-2.18124 2.01363 0)
(2.29637 1.0196 -6.5193e-20)
(3.14343 0.319832 4.05022e-19)
(2.00276 0.0415811 -4.21119e-19)
(2.29162 -0.111195 0)
(2.09518 -0.253313 2.01299e-19)
(2.61772 0.400615 -5.20878e-21)
(2.29653 -0.0742004 2.18042e-21)
(0.274828 -0.0793844 0)
(2.61744 -0.0668036 1.08352e-20)
(2.88818 -0.17101 -2.14085e-19)
(2.11754 0.166002 -1.02502e-22)
(2.97129 -0.358674 -1.26592e-19)
(3.02106 -0.591742 0)
(1.21028 -0.579544 -7.52089e-20)
(1.56152 0.00585614 0)
(2.58425 0.0552974 0)
(2.00284 -0.171254 0)
(1.30205 0.700172 -3.07659e-19)
(2.06256 -0.213589 0)
(-0.51602 1.80803 -1.53734e-19)
(1.99832 -2.0724 2.20713e-18)
(2.6584 0.014314 3.04424e-20)
(1.1776 -0.57983 -6.9311e-20)
(2.43174 0.70372 2.46856e-20)
(-2.64231 0.54384 6.33708e-19)
(2.18927 0.0873817 -4.65088e-21)
(1.45441 -0.697446 -1.47723e-19)
(2.14025 -0.852792 -1.90897e-19)
(1.82346 -0.272263 4.83089e-20)
(2.09529 -0.199234 -5.92674e-20)
(-0.539491 -0.590148 5.57632e-20)
(1.95729 -0.0607712 2.8875e-19)
(1.9845 -0.176307 0)
(2.63865 -0.0540971 0)
(3.22384 -0.249796 3.8353e-19)
(4.48839 -0.793645 1.10797e-18)
(1.69165 -0.077717 3.98076e-19)
(1.98705 0.0408326 -5.69741e-22)
(2.43449 0.212257 2.44363e-20)
(2.51795 -1.12799 7.62734e-20)
(3.11719 -0.353524 0)
(1.77708 0.881799 5.97521e-19)
(1.66597 -0.376172 0)
(2.98782 0.848953 0)
(1.24128 -0.53666 -9.5318e-19)
(2.87193 0.135747 0)
(2.14202 -0.530541 -2.80953e-21)
(2.66751 0.0525419 0)
(2.42968 -0.263863 -2.2407e-20)
(1.33475 -0.629208 1.31988e-19)
(2.5375 0.384332 3.07574e-22)
(-2.46665 0.487881 4.76783e-19)
(2.35181 -0.732058 1.33477e-20)
(1.62681 -0.395862 -2.75199e-21)
(2.1003 -0.243296 -6.62015e-20)
(2.97293 0.480821 1.38074e-18)
(3.14269 0.228956 4.00278e-19)
(0.966087 -0.470918 1.71529e-19)
(-2.87724 1.13992 0)
(1.14365 -0.555999 1.43294e-20)
(2.83377 -0.339237 2.24346e-19)
(2.60542 0.04527 6.10565e-21)
(1.00816 -0.486033 3.98025e-19)
(2.31547 -0.0554617 0)
(3.39118 0.276956 0)
(2.00131 0.0415655 6.20168e-19)
(2.63434 0.210531 0)
(1.01424 -0.502169 1.1918e-19)
(1.8195 -0.264956 -2.06592e-20)
(1.84717 0.0405713 0)
(2.17998 -0.00237793 -1.38386e-20)
(3.66132 -0.402544 1.06674e-18)
(-0.363915 0.117863 6.73839e-19)
(1.99274 0.428469 0)
(-2.28159 1.83132 -3.29018e-19)
(1.11034 -0.100517 7.07212e-20)
(1.16068 -0.565942 2.9826e-20)
(1.89735 -0.254997 0)
(2.16652 -0.692646 4.73936e-20)
(-1.93146 2.29446 2.8156e-19)
(2.19417 -0.0607576 3.88752e-20)
(2.46938 -1.18258 -9.6643e-20)
(1.59978 1.47916 -7.26189e-19)
(3.4145 0.228404 3.18385e-19)
(1.80056 0.173664 0)
(1.80854 -0.260037 -1.36854e-21)
(2.35366 0.00309687 2.01662e-19)
(-2.06089 2.15834 -3.46229e-19)
(2.50554 -0.637723 2.60825e-19)
(0.262154 -0.0519763 0)
(2.38144 -0.698235 -1.32124e-19)
(-2.87833 0.755731 -9.14237e-19)
(2.18548 -0.00200926 -1.42837e-19)
(0.94265 -0.614737 0)
(1.5226 0.782762 2.33765e-19)
(1.98902 0.0430066 -1.19207e-19)
(3.14595 -0.37578 0)
(2.44055 -0.139866 4.90396e-20)
(1.26247 -0.608077 1.72578e-19)
(3.55851 -0.496563 -5.98113e-19)
(2.17596 -0.628421 0)
(0.521964 -2.16182 0)
(1.91665 -0.289051 -2.9497e-20)
(2.15423 -0.222469 6.57444e-21)
(0.477426 -2.3158 6.24053e-19)
(2.18033 -0.145693 -6.92816e-20)
(1.96562 0.0541922 2.5465e-19)
(2.83625 0.878132 -4.9475e-19)
(-0.99272 2.38949 8.63794e-19)
(1.19921 -0.131856 1.00642e-18)
(3.04611 0.299102 2.95503e-19)
(1.92654 -0.140005 8.41539e-20)
(2.52367 -0.262787 3.42447e-20)
(2.14757 0.00796547 0)
(-2.9174 1.11629 0)
(1.71651 -0.250682 2.39224e-20)
(1.37543 -0.656197 5.83963e-20)
(1.99901 0.0111826 -4.55917e-20)
(2.91316 -0.334189 2.09387e-19)
(2.91019 -0.357626 0)
(2.17301 -0.0221532 -6.60181e-20)
(2.4747 -0.119844 -3.88366e-20)
(1.96158 0.0425297 -2.30076e-19)
(2.85568 0.0463137 -4.56908e-19)
(1.83592 -0.267723 -1.25971e-19)
(-0.473383 -0.587455 2.69497e-20)
(2.23322 -0.194091 -5.65195e-21)
(2.22125 -0.0422683 2.40417e-20)
(1.62148 -0.00289536 1.08206e-20)
(1.80359 -0.795205 0)
(2.37822 0.442968 0)
(2.16558 -0.0151079 2.76313e-20)
(1.63336 -0.42441 -1.21047e-20)
(1.55921 -0.0139515 0)
(1.70833 1.20635 -7.77972e-19)
(-1.59444 0.667914 0)
(2.21055 0.985895 6.37997e-20)
(2.11967 0.089464 -1.10043e-20)
(0.480768 2.28682 0)
(1.87646 0.349795 -1.58997e-19)
(1.72114 -0.255506 -3.53479e-20)
(1.87606 0.153888 -1.67233e-20)
(1.94709 -0.0552801 -3.2657e-19)
(2.48857 -0.697509 0)
(1.51898 -0.0559254 6.79861e-20)
(1.72576 -0.223351 4.53738e-22)
(2.00822 0.0402489 5.35523e-20)
(1.68092 0.0766834 -2.32351e-19)
(0.813825 0.550896 2.86944e-19)
(2.17547 -0.140214 1.37875e-19)
(2.31972 -0.215152 1.47652e-19)
(2.19504 -0.146658 0)
(2.5577 -0.116018 3.85319e-22)
(2.35278 -0.19594 6.45507e-20)
(2.00082 0.0141821 6.57709e-19)
(2.34323 -0.53009 0)
(2.11663 -0.204908 -4.56394e-20)
(1.47775 0.291246 0)
(2.53856 0.233032 6.83595e-19)
(2.03449 -0.517493 -3.59134e-20)
(0.773089 -0.368029 2.21848e-19)
(2.50962 -0.0830812 2.42888e-19)
(2.00951 0.154323 0)
(1.79768 -0.259962 -3.13196e-20)
(2.43097 -0.703767 1.44958e-19)
(1.68685 0.0825966 2.1941e-19)
(2.37614 -0.188492 -1.84057e-19)
(2.29614 -0.0718662 2.11821e-20)
(-1.11211 1.48733 -6.11546e-19)
(1.97108 0.159913 8.71348e-23)
(2.26425 -0.107596 0)
(1.1078 -0.409228 5.18991e-19)
(3.00097 0.830515 0)
(1.73167 -0.240981 -7.77457e-22)
(2.29297 -0.0580969 9.9684e-20)
(2.51909 -0.131365 -3.9876e-20)
(2.45263 -0.134815 3.99262e-20)
(0.298861 -0.233753 -6.6662e-19)
(1.96897 0.0433105 2.85953e-19)
(1.81439 0.0284941 0)
(-0.464661 0.46095 -3.11919e-19)
(2.2506 -0.167908 -1.59667e-20)
(1.66417 -0.404796 4.05766e-21)
(4.11676 -1.05159 8.25839e-19)
(2.32521 -0.0148709 0)
(2.2254 -0.214005 1.10959e-19)
(1.82623 0.110272 4.73738e-19)
(1.98548 0.048458 3.63933e-19)
(3.13983 -0.454745 0)
(1.90415 0.0163552 -1.32992e-22)
(2.96481 -0.351181 -2.1072e-19)
(-1.43553 -1.17345 1.4815e-19)
(1.6564 -0.0952204 5.54231e-20)
(2.25491 -0.149236 1.51805e-20)
(2.02486 0.00646003 1.04741e-21)
(2.25976 -0.116315 0)
(2.4475 -0.274401 -7.91242e-20)
(-2.16908 1.95328 2.9445e-19)
(2.38701 0.413815 -5.89901e-20)
(1.99842 0.0142243 2.4405e-19)
(1.39404 0.0279327 0)
(1.75374 -0.236339 -3.82959e-20)
(0.615827 2.25626 0)
(3.05001 1.28495 -1.77945e-19)
(2.19746 -0.0203363 0)
(2.35574 -0.65168 -9.87982e-21)
(1.40294 -0.171639 -1.24417e-19)
(1.51207 0.722129 5.42701e-19)
(-1.43466 -1.04118 -6.10527e-19)
(2.22429 -0.625891 0)
(2.35475 0.0607546 -1.26138e-19)
(2.01454 0.161616 -1.72191e-19)
(0.623681 -0.502974 -2.21769e-19)
(-2.69216 0.988382 9.50757e-20)
(1.71701 -0.0882549 -5.92272e-19)
(3.15799 -0.306475 2.08918e-19)
(2.07574 0.17025 1.33285e-19)
(1.55403 -0.492477 0)
(1.41539 0.224985 2.7342e-19)
(1.61006 0.0877643 -2.62477e-20)
(-1.86188 0.808702 9.60054e-19)
(-2.1793 1.84135 -1.02389e-18)
(0.870984 -0.610342 -4.97934e-19)
(3.08447 0.270768 0)
(0.623194 -0.574089 0)
(1.91629 1.06413 0)
(2.1691 -0.0678987 0)
(2.29495 0.0321001 -7.55449e-19)
(2.43317 0.242638 0)
(1.43544 -0.334457 0)
(1.718 0.0522596 8.80812e-20)
(3.15675 0.339775 -4.20395e-19)
(2.24032 -0.113745 -6.84149e-20)
(1.72681 0.256442 8.33427e-19)
(2.00462 0.0129943 -8.75773e-20)
(2.13974 1.55389 0)
(3.14831 -0.193351 0)
(1.95326 0.0443038 2.46432e-19)
(2.03074 0.0472571 4.43485e-20)
(1.32123 0.74329 0)
(0.175663 -0.0367294 6.6851e-19)
(2.49012 -0.66602 -2.93818e-19)
(-0.0256734 0.310632 0)
(2.31683 -0.0565311 4.63722e-20)
(1.99771 0.0384433 -2.84249e-19)
(1.10767 0.375354 -1.43129e-19)
(1.10083 -0.397398 0)
(2.00118 0.166474 3.1287e-19)
(2.60847 0.244027 0)
(2.98093 -0.358076 0)
(2.19367 0.188817 -2.19141e-20)
(1.95861 0.0577344 1.36034e-19)
(0.303269 -0.136082 -7.53155e-19)
(2.2471 0.64887 5.36376e-20)
(1.43088 -0.38968 -2.00575e-19)
(2.17814 -0.0592291 1.78084e-20)
(2.07875 0.16663 1.06086e-19)
(2.57389 -0.27509 1.95217e-19)
(2.62542 -0.593119 0)
(3.60965 -0.249959 4.68264e-19)
(1.40767 -0.113296 0)
(1.7273 -0.24493 2.16216e-20)
(2.28576 -0.0940437 0)
(1.50318 0.00316241 3.37387e-19)
(-0.903473 -0.892204 -8.30152e-19)
(3.12068 -0.296518 0)
(-0.189369 0.124411 1.87553e-20)
(3.17435 -0.213498 -4.21687e-19)
(1.68003 -0.279899 3.09022e-21)
(1.86642 -0.272553 4.32027e-19)
(1.41054 0.698775 -3.4515e-19)
(1.41938 -0.381037 -5.88292e-19)
(3.18073 1.2681 0)
(1.59677 0.0160412 2.85429e-20)
(-1.18136 1.70233 -1.51058e-18)
(2.00484 0.172621 0)
(1.86188 0.172955 1.8208e-20)
(2.97603 0.015965 -2.61471e-20)
(2.54963 1.11299 0)
(2.00406 0.0125748 0)
(-1.06452 0.769621 0)
(-2.03204 1.90813 1.44572e-18)
(2.66227 1.08435 5.90681e-19)
(2.80936 0.788213 -2.1212e-20)
(2.18408 0.943799 0)
(1.79266 -0.191693 3.41674e-19)
(1.89451 0.074874 1.47367e-21)
(2.24849 0.59851 -1.2258e-19)
(-2.52269 0.794106 1.58629e-18)
(1.9239 0.121109 0)
(1.9835 0.172818 0)
(0.843049 -0.18926 -3.83125e-19)
(1.52468 -0.484884 -1.30675e-19)
(2.03431 -0.164406 0)
(1.50722 -0.713091 7.82563e-20)
(1.82064 0.0250962 -7.45247e-22)
(1.95578 0.129969 2.71915e-22)
(0.862018 -0.408523 0)
(2.00762 -0.0719084 8.81407e-20)
(1.62124 0.0560419 2.38973e-20)
(2.60758 0.220393 1.91658e-20)
(2.02254 -0.544327 0)
(1.33291 -0.159167 -1.5262e-18)
(2.48549 -0.132319 4.23533e-20)
(1.99945 0.0626105 6.27493e-20)
(1.76305 0.0306426 9.64401e-21)
(2.51341 0.737727 0)
(1.70494 0.254426 -2.21723e-19)
(2.99812 0.62205 -1.28778e-19)
(1.07019 -0.60906 1.0965e-19)
(2.00557 0.0323722 0)
(-2.68835 0.900102 -9.85014e-20)
(0.597439 -0.171519 0)
(2.0032 0.0317387 -2.48821e-19)
(1.9936 0.0409017 9.76104e-20)
(1.92304 0.0195275 -4.78047e-20)
(-2.05645 2.0454 0)
(2.26716 0.0162626 -1.05225e-20)
(1.15408 0.344483 7.71952e-19)
(2.57167 -0.593406 0)
(1.69286 0.0413086 2.72774e-19)
(2.8197 -0.0431821 5.20639e-19)
(2.19626 -0.0187564 0)
(-2.80095 0.644882 4.50152e-19)
(1.96491 -0.738236 -6.94577e-20)
(2.04435 3.45548e-05 0)
(1.04065 -0.334151 1.01402e-18)
(1.85214 0.163673 0)
(1.84386 -0.821967 3.02578e-20)
(-2.33962 1.88071 6.45139e-19)
(2.11048 0.185908 1.10386e-22)
(2.46136 0.174424 2.69401e-20)
(1.41266 0.207148 1.42783e-19)
(1.85806 -0.296318 -1.57139e-19)
(2.22738 -0.564291 -5.22196e-20)
(1.87934 -0.824119 4.40138e-21)
(2.23565 -0.155667 2.3644e-20)
(2.49811 0.742406 -1.15202e-20)
(2.17147 -0.910829 0)
(1.9983 0.0108762 -2.16476e-19)
(0.144025 0.388004 -3.53814e-19)
(1.43573 -0.125086 0)
(1.51263 0.166986 -1.10598e-20)
(1.48004 0.00938514 0)
(1.31129 -0.408239 5.17809e-19)
(2.33413 -0.757178 0)
(1.67592 0.00431015 -7.64892e-21)
(2.30851 -0.0645464 -5.77031e-20)
(-2.67647 0.512621 8.31904e-19)
(-1.45475 0.981549 1.00424e-18)
(2.23524 -0.00651931 -5.77501e-22)
(1.61887 -0.750453 -2.3151e-19)
(1.91018 -0.515708 1.06389e-19)
(1.57207 -0.362996 0)
(0.39046 -0.206406 -3.88282e-19)
(2.63263 -0.475957 5.70482e-20)
(0.424269 -0.217677 -4.52879e-19)
(1.95612 0.148344 -6.61639e-23)
(1.54502 -0.605825 0)
(2.21417 -0.0250347 -1.67647e-21)
(0.168821 -0.0130035 0)
(-2.68049 1.42761 4.33622e-20)
(1.02265 0.395706 1.69503e-19)
(1.75471 1.39276 0)
(2.22309 -0.465928 -6.48258e-21)
(1.79177 -1.82206 0)
(2.56775 1.03899 0)
(1.61499 -0.751792 -4.13824e-20)
(1.50637 0.266818 2.21501e-19)
(1.66186 -0.97334 0)
(1.83026 0.133536 -1.33015e-19)
(2.5888 0.636427 1.92843e-19)
(-2.04892 2.01964 1.2804e-18)
(2.51253 1.34577 0)
(2.17318 -0.0484584 0)
(-0.987419 1.58318 -6.48389e-19)
(1.95269 -0.114893 0)
(2.67499 -0.00711236 0)
(-0.91649 2.6887 -8.03387e-21)
(2.17904 -0.314776 -5.21383e-20)
(1.8546 -0.426314 1.1131e-19)
(3.51891 0.212982 4.76138e-20)
(0.386641 -0.194775 8.25906e-19)
(1.99437 0.0345829 1.1033e-19)
(1.60829 -0.391308 0)
(2.12979 0.446701 -5.89077e-20)
(1.49446 -0.248793 0)
(2.39276 0.0256722 0)
(1.99689 0.0826143 0)
(2.18301 0.168857 -1.79152e-20)
(1.93173 -0.054641 1.53469e-19)
(2.57773 0.161583 7.75823e-21)
(1.6574 -0.389947 0)
(0.242147 -0.165251 -5.45405e-19)
(1.95191 1.0079 1.1872e-19)
(2.02927 -0.684296 2.06555e-21)
(2.16231 -0.174761 -1.41275e-19)
(3.52827 -0.520264 9.88276e-19)
(2.05534 0.065319 -1.61284e-19)
(-0.903483 -0.846263 0)
(2.46488 -0.125608 0)
(1.43373 0.716926 0)
(1.2994 -0.589681 -3.48453e-19)
(-1.20143 -1.02542 -1.17292e-18)
(1.98534 1.236 0)
(2.15304 0.460743 0)
(2.40339 -0.273236 9.62183e-20)
(1.96224 -0.0241171 -2.85548e-20)
(1.86732 0.558433 2.84294e-19)
(2.19541 -0.849994 0)
(0.362334 -0.222132 -2.09078e-19)
(2.39211 0.0708998 6.40511e-20)
(1.48999 -0.450435 -3.2167e-19)
(2.22885 0.0618491 -1.0928e-19)
(2.24026 0.604713 1.72412e-19)
(3.56145 0.257704 1.14421e-18)
(1.29453 -0.596361 6.11912e-19)
(2.77979 -1.96091 6.24389e-19)
(2.65866 0.34691 -6.19004e-21)
(2.00088 0.00746443 -5.24146e-20)
(1.38853 -0.629901 3.5189e-20)
(1.98595 -0.685497 2.88797e-20)
(1.50281 1.7965 -8.15303e-20)
(1.50877 -0.70521 -2.69859e-20)
(2.56571 -0.100851 0)
(1.54658 -0.344764 -5.44086e-21)
(2.20194 -0.0469777 -2.70059e-19)
(2.78249 0.82921 5.82635e-20)
(1.4588 -0.41762 -3.02037e-19)
(2.00583 -0.657435 -5.10498e-20)
(1.93847 -0.0103045 2.04527e-19)
(2.37919 -0.0490236 -1.16763e-19)
(1.30564 -0.290496 -8.07033e-20)
(3.0231 0.302693 -1.5966e-19)
(1.23225 -0.218364 -7.57871e-19)
(2.12756 -0.031824 -2.20906e-19)
(1.21938 -0.282469 0)
(-2.70405 0.647063 -1.96006e-18)
(1.91651 0.0372729 3.33006e-19)
(1.47918 0.000842168 -7.19634e-23)
(-0.658449 0.288392 0)
(1.86901 -0.81784 0)
(2.00197 0.39545 2.52133e-19)
(1.10122 -0.220083 4.82896e-19)
(1.23344 -0.173198 -2.52519e-18)
(2.38372 -0.640459 9.51626e-20)
(2.34025 -0.219829 -8.67693e-20)
(3.05922 0.806564 0)
(2.00698 0.433758 1.41633e-19)
(-0.174905 -0.598687 -1.82016e-20)
(2.34691 1.02646 -3.91854e-20)
(2.07281 -0.234783 -1.37296e-19)
(0.408826 -0.207027 -1.34429e-18)
(3.44167 -0.570318 -9.20056e-19)
(3.67191 -0.271929 2.41516e-19)
(2.13149 1.12584 0)
(2.66938 -0.621899 -1.13877e-19)
(1.93446 0.0178277 4.23563e-20)
(1.90814 0.0480597 -5.53217e-22)
(0.875193 -0.424694 5.95414e-19)
(2.0508 -0.235725 2.07927e-19)
(1.83922 -0.292178 2.33673e-20)
(-2.07534 1.91958 -7.32934e-19)
(2.66853 -0.249825 -1.90908e-19)
(2.25774 -0.028582 1.97379e-19)
(-0.815309 2.19129 -1.05812e-19)
(2.26816 0.970134 1.501e-19)
(1.23381 -0.372209 -1.09915e-18)
(1.0401 -0.506852 -1.54915e-19)
(1.93366 0.0428046 0)
(2.86783 0.329545 8.89525e-20)
(-1.46788 2.6629 -5.38159e-19)
(1.39901 -0.197166 6.63571e-19)
(2.20003 0.146506 0)
(1.95216 -0.335148 1.2791e-19)
(1.26245 -0.537741 1.45651e-19)
(1.99695 0.0235535 -4.75126e-19)
(-0.679929 0.792388 -6.70681e-19)
(1.67208 -0.93399 -1.0429e-20)
(2.24776 -0.116687 4.4934e-20)
(2.31037 0.064189 1.87193e-19)
(1.87324 -0.832789 -1.12352e-20)
(2.60622 0.212638 -1.42056e-20)
(-0.955404 -1.01974 -3.16608e-18)
(2.11305 -0.0462958 2.53389e-19)
(2.17418 -0.0511738 -7.90179e-20)
(2.13868 0.088055 -4.60558e-21)
(2.13485 -0.0288307 -1.52777e-19)
(1.20043 -0.543598 -2.82032e-19)
(2.62174 0.329667 0)
(-2.55302 1.60006 1.20392e-18)
(2.12173 0.0705817 3.12716e-20)
(1.45343 0.362472 -1.3449e-19)
(2.42603 0.0438764 3.31639e-20)
(2.3018 -0.269823 3.16974e-20)
(2.00035 0.0105428 -4.01852e-19)
(2.07508 0.293042 8.02712e-20)
(0.142244 -0.013187 -6.87918e-19)
(2.70696 -0.00533174 0)
(1.75683 -0.233908 2.00938e-20)
(2.53365 -0.143172 4.08155e-20)
(1.55513 -0.590643 0)
(2.13128 0.0660661 1.62345e-19)
(2.56519 -0.119248 4.34672e-20)
(2.67343 0.00572326 1.42692e-24)
(3.15986 -0.641368 4.83624e-19)
(2.15363 -0.191787 0)
(1.78693 0.294228 4.18377e-19)
(1.95275 -0.398467 -4.10493e-20)
(1.45433 -0.692137 5.91032e-21)
(2.09898 -0.154851 0)
(1.50414 0.227409 -6.37107e-19)
(0.477707 -0.565545 -1.55028e-19)
(2.29731 1.39949 -6.1798e-20)
(1.2428 -0.242806 7.33812e-19)
(2.17232 0.00571275 -4.47768e-21)
(-1.31 0.942286 7.6136e-19)
(2.01102 -0.0985336 -2.07237e-19)
(3.5147 -0.136987 -5.95606e-19)
(1.8171 0.109404 -2.75342e-19)
(1.95283 0.0113114 0)
(2.00314 0.0201359 -1.96405e-19)
(1.08336 0.159585 3.5841e-18)
(-0.354928 0.417873 0)
(4.30311 -0.481529 0)
(1.90877 0.0476663 0)
(1.21634 -0.581035 0)
(2.03254 0.284894 0)
(1.17005 -0.213585 0)
(2.67412 -1.0842 -1.12339e-20)
(3.04116 0.881169 -1.94483e-19)
(2.56216 0.41377 0)
(1.76792 0.293478 6.31556e-19)
(0.994088 -0.742696 2.23113e-19)
(2.06633 0.173688 4.15699e-21)
(-1.28473 2.69025 -2.19834e-19)
(1.17096 0.0038021 1.15114e-21)
(0.0200235 0.132879 5.95375e-19)
(1.70335 0.00582047 -4.25871e-20)
(2.87287 0.0498198 1.9108e-20)
(2.01221 0.26548 -1.70571e-19)
(1.88626 0.144447 -3.824e-19)
(1.8999 0.927671 -2.42961e-19)
(3.05173 1.23225 0)
(-2.83335 0.890924 3.43939e-19)
(1.33592 -0.425102 -5.66859e-19)
(2.01174 0.0233996 -6.02775e-19)
(2.63827 -0.495785 5.67588e-19)
(1.99634 -0.0186909 2.68723e-20)
(3.11476 -0.0224093 -6.88241e-19)
(2.21788 -0.221972 -4.81702e-21)
(2.23045 -0.450622 2.45568e-20)
(2.01667 0.144587 1.79283e-19)
(1.64609 1.0864 0)
(2.19599 -0.488334 -4.54726e-20)
(1.73799 0.0314904 -8.33425e-20)
(2.36409 0.237902 0)
(1.93963 -0.25578 0)
(1.96706 -0.869041 -6.4025e-21)
(-1.95117 1.27903 8.48376e-19)
(2.61538 -1.15781 -4.11023e-19)
(1.82907 -0.0461523 0)
(1.97195 -0.0593708 -3.00229e-19)
(1.82615 0.170692 -7.42359e-20)
(-2.77296 1.18971 6.97001e-19)
(2.60143 -0.0667561 1.39188e-20)
(-0.192439 0.26786 0)
(-2.89084 0.888243 3.7372e-19)
(2.59397 -0.0979881 0)
(2.64463 -0.66524 1.21239e-19)
(2.18769 -0.210346 -7.67912e-20)
(2.00245 0.016532 2.20693e-22)
(2.29399 0.675865 -2.51169e-19)
(2.51346 1.23999 -2.49372e-20)
(1.85809 -0.498507 2.41325e-19)
(-1.97197 0.271777 0)
(1.49368 -2.27026 -2.07711e-18)
(1.13551 -1.49482 0)
(2.62166 0.414177 -1.39304e-20)
(-2.79854 1.36056 1.34555e-18)
(4.67654 -0.543575 1.05397e-18)
(1.77919 -0.23315 -2.03666e-20)
(-1.71561 2.45245 -1.67667e-18)
(1.26154 -0.616237 -6.82774e-21)
(1.37818 -0.429636 -3.18409e-19)
(1.59779 0.0722347 9.43798e-21)
(2.00328 -2.27835 1.7081e-18)
(1.24215 -0.55927 2.32868e-19)
(1.43555 -0.450609 3.3897e-19)
(-1.22851 -0.745249 1.37801e-18)
(2.69683 -1.96569 -1.01767e-18)
(1.98528 -0.575986 6.86451e-20)
(-1.44466 -1.02366 6.25046e-19)
(2.46289 0.0392111 -8.27074e-21)
(0.976575 -0.813154 -1.88271e-19)
(2.2952 0.428247 -7.48079e-20)
(2.47269 -0.340399 0)
(1.05278 -0.57762 -1.05424e-18)
(2.10427 -0.0432921 -3.14274e-19)
(1.99431 0.0903495 0)
(2.59578 0.388681 0)
(0.625341 -2.4693 -9.98398e-19)
(3.75488 0.198034 -5.32057e-19)
(2.41983 0.240979 -1.09233e-19)
(2.1723 -0.307362 6.60422e-20)
(1.88794 0.895054 2.13681e-19)
(1.39395 -0.0199401 1.20477e-19)
(-2.73066 1.55548 -6.92265e-20)
(1.76835 0.559009 0)
(1.46818 -0.479497 3.15671e-19)
(-0.178161 0.632865 1.52981e-19)
(-1.81122 2.34776 1.29331e-18)
(1.8523 -0.681789 3.04732e-20)
(1.95275 -0.845265 2.2403e-19)
(1.608 -0.013201 7.11575e-20)
(1.85321 -0.220374 1.29514e-20)
(3.0575 -0.476196 4.98761e-19)
(-2.61937 1.55828 -8.51513e-19)
(2.40211 0.231098 8.33015e-20)
(1.97729 0.0397906 1.40659e-19)
(1.21139 -0.272674 -3.0088e-19)
(1.96018 -0.0926092 1.80556e-19)
(1.17579 -0.304089 0)
(2.38621 0.406974 1.08187e-19)
(2.00546 0.0426457 3.16888e-20)
(1.55384 -0.336012 -1.03767e-19)
(1.71586 1.6428 -5.03825e-20)
(1.95018 -0.567305 6.81464e-20)
(2.11559 0.0321396 5.44243e-20)
(1.42227 0.0727694 -4.71741e-19)
(2.40537 0.188159 0)
(1.76807 -0.212542 -4.0934e-20)
(2.24275 0.0842017 1.48283e-19)
(2.36178 -0.194837 0)
(1.45497 -0.0261092 2.61665e-19)
(2.61037 -0.0682071 0)
(1.6214 1.6357 3.20287e-19)
(2.31885 -0.0272686 0)
(2.1916 -0.545031 0)
(2.46257 -0.0465887 2.28664e-20)
(2.39709 0.181336 7.3056e-20)
(2.95121 0.410846 -2.0691e-19)
(1.93067 0.108467 -1.75266e-19)
(1.52715 1.05227 -1.57435e-19)
(1.99789 0.0682844 -7.80432e-20)
(2.05715 0.29328 0)
(-0.965769 -0.519901 -2.41054e-20)
(2.51149 0.173068 -2.06915e-20)
(2.58013 -0.655399 -2.43141e-19)
(2.45537 -0.33545 0)
(2.81577 0.818914 9.58642e-20)
(2.02143 1.53802 -6.32061e-21)
(2.42203 0.0243958 -3.08628e-20)
(0.462365 2.18618 0)
(-0.727615 2.71659 6.53633e-19)
(2.03464 0.143816 0)
(3.03792 -0.394468 -2.39763e-19)
(-0.3339 0.123989 0)
(1.66495 -0.0452393 0)
(2.79498 -2.17489 0)
(2.27 -0.759508 0)
(-0.0849958 0.926231 -9.17049e-20)
(-2.08863 1.78861 -3.25394e-19)
(1.9219 -0.0473666 -2.30953e-19)
(-2.79529 0.595817 -1.0415e-18)
(1.32479 -0.584818 0)
(-2.43897 0.340669 -8.81683e-19)
(-0.472476 0.125041 -6.65004e-19)
(1.59946 -0.743683 0)
(1.55596 -0.552878 -3.05611e-19)
(1.39619 -0.141856 -1.36693e-20)
(2.28383 0.410963 1.90397e-19)
(2.93773 -0.667198 -4.0266e-19)
(1.87806 0.131688 0)
(2.48715 -0.602433 0)
(3.18269 0.582089 1.01767e-19)
(1.98068 -0.598088 6.9688e-21)
(1.6191 -0.0170948 -2.156e-20)
(0.636509 -2.45216 7.05651e-20)
(1.99941 0.00484198 1.4664e-20)
(2.86857 0.357794 -1.26866e-20)
(2.01638 0.145402 2.56926e-19)
(1.74143 -0.223525 2.11582e-20)
(2.0275 -0.496362 0)
(0.542426 -0.180892 0)
(2.61024 0.188059 0)
(1.68712 0.0252548 0)
(1.83067 -0.322769 1.1766e-19)
(3.00884 0.123456 0)
(-0.731823 2.37162 1.17485e-18)
(2.95241 -0.00255312 8.42025e-20)
(1.40425 -0.466973 -5.13949e-19)
(0.910353 -0.686466 -1.12237e-19)
(-2.44759 1.38348 -6.36941e-19)
(-0.529337 2.25174 -5.47425e-19)
(1.87065 0.0537407 4.33854e-20)
(-2.53577 1.8635 -7.45728e-19)
(1.72737 -0.227666 3.42865e-20)
(2.50586 -0.0331705 0)
(2.38265 -0.0852123 0)
(1.36726 -0.552067 0)
(2.30715 -0.287161 -2.19136e-20)
(2.40148 -1.83999 0)
(1.79153 0.566713 0)
(2.00243 0.00736818 0)
(1.87664 -0.432731 1.03745e-19)
(2.0668 0.175352 -2.66781e-19)
(1.56357 0.0289015 0)
(2.81203 -1.02852 -3.70003e-19)
(1.97569 0.143413 -2.28024e-19)
(2.35935 0.947803 7.90335e-20)
(1.63561 -0.756258 1.23035e-19)
(1.86085 0.618181 2.12834e-21)
(1.94984 -0.879178 -6.05739e-21)
(1.89945 -0.281492 2.91029e-20)
(2.25367 -0.718597 -1.03607e-19)
(2.37734 0.186155 -9.63915e-20)
(1.62235 0.0099548 -4.67562e-20)
(1.85819 0.0438556 -2.51593e-19)
(2.11665 -0.0446677 0)
(1.40229 0.334069 9.91825e-20)
(1.98669 0.0443754 2.65303e-19)
(0.0178701 -0.78721 -1.40531e-19)
(2.209 -0.21403 -2.01624e-20)
(1.13068 -0.238651 -5.26781e-19)
(2.39564 0.165515 1.58841e-20)
(3.01138 0.6499 1.84875e-19)
(1.99643 0.0586725 0)
(1.47825 -0.326199 -1.9284e-20)
(1.81824 -0.0934373 -1.40468e-20)
(2.29673 -0.731572 2.23043e-19)
(-2.71683 0.845856 -1.77413e-18)
(2.10126 0.0355248 1.14629e-19)
(2.64937 0.283041 5.78458e-21)
(2.2278 0.0128502 3.29858e-21)
(2.54777 0.175311 0)
(0.797904 -0.405226 0)
(1.44754 -0.690002 1.81304e-19)
(-0.683277 0.71828 7.23453e-19)
(1.92481 0.0251737 1.73004e-22)
(1.98684 0.0459209 5.25064e-19)
(1.47233 -0.330098 6.23533e-20)
(1.47698 0.211538 0)
(1.83267 0.0601575 0)
(1.6917 -0.377571 -7.71031e-21)
(2.38138 -0.0123569 3.58032e-20)
(1.90262 0.606318 3.94738e-19)
(2.29709 -0.0965045 0)
(2.13754 0.0111868 0)
(2.28647 -0.509665 -1.40907e-19)
(2.07443 -0.146141 1.32129e-19)
(-0.333303 -0.358704 -4.66454e-19)
(1.72761 -0.0950153 0)
(1.25657 -0.175339 1.02227e-19)
(3.26112 -1.06714 -1.74423e-19)
(-1.52504 2.53942 -6.04151e-19)
(2.07879 -0.0235479 -2.26478e-19)
(3.48611 0.739412 0)
(3.74513 0.260844 4.33077e-19)
(0.891546 2.02393 -1.80808e-18)
(-0.316157 -0.380704 0)
(1.72266 0.0296128 -2.99518e-20)
(1.93748 0.080628 -1.77908e-19)
(1.67431 0.0173221 -1.31527e-23)
(2.14742 -0.166074 4.52002e-20)
(1.20141 1.04009 2.5056e-19)
(1.86568 0.0453719 0)
(1.12277 -0.432355 -6.25225e-21)
(1.44159 -0.328146 -5.89631e-20)
(0.873071 2.21116 -8.76272e-19)
(2.02211 0.268036 2.02428e-19)
(-1.75642 0.33064 3.29551e-19)
(2.05255 0.0272694 -5.10842e-19)
(1.77865 -0.287934 -1.15862e-20)
(1.83277 -0.266164 2.27178e-20)
(1.83317 -0.396639 0)
(1.73296 0.0190458 -7.77018e-20)
(1.16955 -0.54702 1.85638e-19)
(2.28027 -0.0666513 -1.23266e-19)
(2.00756 0.0422499 -2.35967e-19)
(3.01054 -0.410298 2.11258e-19)
(1.74041 -0.186005 5.24058e-19)
(2.3597 0.0302788 1.05986e-20)
(1.81816 0.0645613 1.52039e-19)
(1.48937 0.140632 -4.34749e-20)
(3.5021 0.26243 -5.21041e-19)
(2.28461 1.04451 7.97374e-20)
(1.45068 -0.0504691 1.98825e-18)
(1.86962 -0.0163849 0)
(1.49683 -0.498001 0)
(2.90192 0.592872 0)
(1.40161 -0.435649 4.04819e-19)
(2.15942 0.0681811 -3.85909e-19)
(1.81051 0.184236 0)
(1.59919 -0.348407 -2.9381e-19)
(1.80714 0.155626 0)
(1.83878 -0.294082 -1.92008e-19)
(2.55625 -0.690627 -2.66719e-19)
(1.99313 -0.469307 -8.61316e-20)
(1.94414 0.0455566 0)
(1.98547 0.0337352 0)
(2.40452 -0.210312 1.26325e-19)
(2.54128 0.350694 -3.06843e-22)
(2.95724 -0.0381974 1.62689e-19)
(2.16647 1.6277 -7.66324e-21)
(2.22277 -0.114916 0)
(1.86252 -0.66218 -4.7874e-20)
(-0.258006 0.451812 0)