/*--------------------------------*- C++ -*----------------------------------*\
| =========                 |                                                 |
| \\      /  F ield         | OpenFOAM: The Open Source CFD Toolbox           |
|  \\    /   O peration     | Version:  2306                                  |
|   \\  /    A nd           | Website:  www.openfoam.com                      |
|    \\/     M anipulation  |                                                 |
\*---------------------------------------------------------------------------*/
FoamFile
{
    version     2.0;
    format      ascii;
    arch        "LSB;label=32;scalar=64";
    class       volVectorField;
    location    "5.6";
    object      U;
}
// * * * * * * * * * * * * * * * * * * * * * * * * * * * * * * * * * * * * * //

dimensions      [0 1 -1 0 0 0 0];

internalField   nonuniform List<vector> 
13486
(
(7.09453 -1.88226 1.64765e-20)
(7.20122 -0.176105 9.82969e-21)
(9.39752 -0.241169 0)
(5.65886 -4.88058 -5.38429e-21)
(11.4245 -1.7587 -2.53461e-21)
(8.84373 0.431443 -3.55092e-21)
(12.9391 -0.411402 -4.39708e-22)
(9.68557 -3.35628 -4.09923e-21)
(9.10035 -1.92276 0)
(7.38074 1.14905 0)
(-2.40918 5.30005 -5.73456e-21)
(8.66369 0.763875 0)
(6.73387 -2.55196 -1.58832e-20)
(8.32151 1.68449 -5.82571e-21)
(11.6832 -0.0711691 -2.65466e-21)
(7.27521 1.17012 -1.07079e-20)
(0.00123225 -0.0880799 1.75404e-21)
(6.71719 7.0383 -3.918e-20)
(8.01224 0.247256 1.30653e-22)
(7.47769 -1.19375 -1.76015e-20)
(2.1038 -7.12292 -1.25756e-20)
(6.78784 -2.59625 2.04627e-20)
(7.2466 -0.193559 -7.87422e-21)
(12.8781 0.957883 0)
(7.71365 0.962959 3.92909e-21)
(12.5919 0.781344 -4.91599e-21)
(0.206911 0.0787763 3.02316e-21)
(10.6356 -0.10325 -4.37502e-21)
(-1.3068 -3.47707 0)
(10.9203 -0.680387 2.56294e-21)
(-4.32843 -6.67663 -2.30313e-20)
(10.829 1.68824 1.90392e-21)
(11.1902 0.861703 1.61662e-21)
(9.82228 -0.524403 0)
(9.72117 -3.21465 0)
(10.625 -0.530747 -1.12868e-20)
(4.69592 -0.281684 1.50938e-20)
(7.78998 -3.63455 6.97227e-21)
(8.97279 -1.98401 3.52591e-21)
(8.97703 -1.26924 7.39767e-21)
(12.861 -3.73961 0)
(6.05542 -2.89765 -1.88615e-20)
(8.55567 -0.189086 0)
(7.78228 0.80692 -1.81313e-20)
(7.77226 0.82616 7.43496e-21)
(8.56494 0.758604 6.11402e-21)
(-1.16627 0.82339 3.32005e-21)
(-0.650538 -2.1788 1.49945e-20)
(4.04977 -0.234314 -1.17777e-20)
(10.0377 0.279184 -3.6911e-21)
(7.99068 0.00126438 1.34704e-20)
(8 -0.700041 0)
(8.55535 1.89851 -8.03999e-21)
(7.97772 -3.04105 -1.04365e-20)
(2.98333 6.19766 0)
(11.2233 -1.86601 7.39128e-22)
(16.9446 -0.561129 2.21461e-20)
(8.4251 -1.10161 1.40621e-20)
(11.1837 0.970905 1.78138e-21)
(4.37569 -4.13121 0)
(-3.3855 5.93582 -1.04636e-20)
(3.75896 -3.03091 0)
(11.8166 2.31169 -1.24485e-21)
(2.0352 -6.46097 -1.61263e-22)
(-0.334694 -5.42468 0)
(3.61515 -0.510015 6.45171e-21)
(2.45861 -3.10614 8.8695e-22)
(6.82743 -1.08577 5.99958e-21)
(9.10428 -2.0242 -3.70583e-21)
(6.679 0.438365 -7.67918e-21)
(2.99326 -2.57957 -1.02419e-21)
(4.20826 6.84164 -1.66979e-21)
(8.67583 -0.820249 6.1037e-21)
(-1.51665 -0.181881 -2.88929e-22)
(0.660978 -1.81304 1.0908e-21)
(17.0738 0.709109 -4.34089e-21)
(3.00101 -0.901706 -1.14363e-21)
(11.8097 -0.1196 1.08849e-21)
(-1.15173 0.897619 -1.70772e-21)
(9.35639 -0.710969 0)
(13.4151 -2.67343 7.03993e-21)
(7.00764 -0.029457 -6.43765e-22)
(12.0953 2.19319 -2.23894e-22)
(9.37408 -0.546998 -2.88983e-21)
(7.08938 -1.89352 -3.20489e-20)
(5.6838 2.23306 0)
(7.26907 4.34415 -1.51744e-21)
(7.99628 0.0402999 -2.15045e-20)
(7.69322 -0.0639583 -8.6647e-21)
(6.76857 1.56731 -1.4423e-20)
(9.96477 2.61381 7.24055e-22)
(10.2647 -2.69091 -1.40572e-21)
(7.36556 -2.18114 4.0834e-21)
(7.39981 -0.740635 4.87454e-22)
(8.88367 -2.79168 1.44982e-21)
(4.49956 -3.21448 -9.48424e-21)
(0.0565546 0.340727 0)
(-1.94762 -3.02991 -3.21951e-24)
(8.96068 -1.21603 -1.41987e-20)
(0.198126 -0.230137 -4.87493e-23)
(8.43668 -1.24481 0)
(8.28448 1.65499 -2.305e-21)
(-2.59256 -2.87099 1.09565e-21)
(8.03271 -0.914959 -1.66148e-20)
(5.40892 1.95565 0)
(0.328927 -0.224494 -4.20141e-23)
(8.0383 -0.170308 -1.85696e-23)
(9.19318 -1.90879 8.10527e-21)
(-0.835812 0.604358 2.14733e-21)
(9.97551 -4.4673 0)
(8.21629 -3.82058 0)
(12.2534 1.70175 9.53552e-21)
(8.02173 -2.97661 1.33864e-22)
(13.5992 3.44461 8.58033e-23)
(5.97346 -1.63832 0)
(8.12779 -3.80879 -4.62326e-21)
(7.60975 1.02697 0)
(10.2763 -0.456247 0)
(8.67608 -0.795324 0)
(5.53559 0.610801 9.75601e-21)
(6.58484 7.47195 1.24104e-20)
(-4.17266 5.84139 0)
(8.70732 -2.59345 0)
(8.42945 -1.81603 -1.11421e-20)
(9.14614 -3.19542 0)
(8.01279 -0.804718 0)
(10.0084 -0.76915 1.18935e-22)
(8.27793 0.17258 1.02343e-20)
(9.68429 -0.413182 2.27926e-21)
(0.921523 -4.49332 -7.74749e-21)
(7.61108 -0.569335 1.91148e-21)
(-1.68583 0.22992 -8.61136e-22)
(0.265343 1.15811 1.49486e-22)
(-0.782484 -0.00431251 1.46515e-22)
(7.99515 -0.00454595 -2.12957e-21)
(7.51023 0.480828 -1.18426e-20)
(4.33085 0.0419147 -5.83843e-21)
(9.60724 -4.16064 0)
(4.73603 0.511064 -3.15969e-21)
(9.7007 -2.65005 -1.76704e-21)
(10.5475 0.760237 5.71202e-22)
(8.57049 2.13852 6.8956e-21)
(9.82127 1.60807 0)
(9.80504 -0.412296 0)
(9.00785 -0.0405646 1.32912e-21)
(11.4056 1.66513 -4.03575e-21)
(4.26616 0.984107 -3.89519e-21)
(3.33034 1.06204 0)
(9.96071 0.41787 0)
(-1.06155 -4.01228 0)
(7.99632 0.0142662 2.85709e-22)
(12.0781 -0.71321 0)
(11.8094 -3.14861 -7.36787e-21)
(6.99608 -0.0492208 -5.48177e-21)
(8.17667 0.63073 0)
(10.5442 -0.435605 0)
(9.84888 -4.24267 0)
(9.78718 -2.45277 2.30509e-20)
(8.45038 -3.3595 1.33258e-20)
(8.64259 -5.86399 4.23933e-21)
(9.23772 0.17501 -4.13213e-21)
(8.49051 -3.29503 -1.98985e-20)
(10.9723 4.21317 -4.33692e-21)
(5.38377 -2.72099 8.18501e-21)
(8.17695 -0.881047 0)
(8.58719 1.79462 6.06789e-21)
(8.21624 1.47718 1.45146e-20)
(4.21156 -1.92173 -2.19225e-20)
(5.13475 0.588704 9.7388e-21)
(-0.748628 -0.088772 3.49033e-23)
(-2.28697 0.656593 4.50445e-22)
(8.17689 0.55024 7.74511e-21)
(8.00246 0.0720729 -2.01251e-20)
(10.2862 0.0580293 1.40209e-22)
(16.2375 -2.44289 1.95008e-21)
(-9.23771 -2.11889 0)
(8.00987 2.3691 -1.19241e-20)
(10.6495 1.13265 -5.29022e-22)
(8.07041 -0.185795 -1.91771e-20)
(9.66981 1.53055 0)
(9.26519 -1.36708 1.36464e-20)
(12.8811 3.0145 5.59034e-22)
(10.2272 0.599762 -8.08785e-23)
(-3.32418 1.88288 0)
(7.38984 -0.532579 6.93672e-21)
(10.0832 -0.075057 2.06216e-21)
(6.58035 -1.0141 -1.76462e-21)
(10.3811 -0.593396 1.48962e-21)
(12.787 -3.6772 0)
(7.46025 -3.57808 -7.05101e-21)
(4.0726 0.235265 0)
(9.95408 0.209723 0)
(8.87545 -1.1582 0)
(5.76484 0.815993 -1.25676e-20)
(9.28406 -1.10087 0)
(-3.23286 4.93445 -1.73938e-21)
(-1.20669 -5.14493 1.73855e-20)
(9.31032 0.110175 -2.0748e-21)
(7.04067 -3.43849 -3.38165e-21)
(8.56868 1.66259 4.65678e-21)
(-3.17585 -7.14664 2.88922e-20)
(8.30376 0.218786 -3.25385e-22)
(7.73208 -3.69272 -8.07953e-21)
(11.7156 -4.54129 -2.40486e-21)
(8.59988 -6.08553 -5.07017e-21)
(9.14926 -1.06735 8.56246e-21)
(6.4015 7.61019 -3.33026e-20)
(8.27449 -0.695597 1.34489e-20)
(9.08715 -1.25237 0)
(7.94408 -0.643383 0)
(10.5899 -0.227366 -4.49562e-21)
(12.2544 -0.89881 1.30455e-20)
(7.52838 -1.09585 1.617e-20)
(8.01321 -0.134892 -1.61279e-23)
(8.90389 0.521672 4.095e-21)
(9.32466 -1.75491 -2.48425e-21)
(10.9363 -0.441853 0)
(6.8553 1.57328 3.24268e-20)
(7.68228 -2.18563 0)
(9.86254 2.38904 0)
(0.238885 -0.14002 -3.33081e-21)
(10.0049 0.49071 0)
(9.61479 -2.65137 4.00802e-21)
(10.2421 0.223083 0)
(7.90331 2.29003 -1.85045e-21)
(6.86531 -3.21898 5.58823e-21)
(9.04603 0.987682 4.07322e-22)
(-10.3709 -6.59663 7.73413e-21)
(10.1819 -1.19151 1.85648e-22)
(8.16877 3.47084 -2.76786e-23)
(9.26292 -1.32132 -4.41828e-21)
(13.4981 -0.771974 3.92384e-20)
(10.6897 0.860543 -8.47611e-22)
(5.98362 -2.87539 6.49423e-21)
(-2.80192 -6.15115 0)
(6.4644 -3.14264 6.44597e-22)
(10.1544 -0.618128 -3.85925e-21)
(10.463 0.257309 -2.01225e-21)
(6.61294 -3.15717 1.78436e-20)
(9.96075 0.454976 0)
(11.2845 1.10125 0)
(7.97455 0.0734963 3.10813e-20)
(11.9271 0.64114 0)
(6.28915 -3.11234 5.74884e-21)
(9.15741 -2.70537 7.64403e-21)
(7.7684 -0.558659 0)
(9.49746 0.231716 -1.29583e-21)
(12.0775 -0.319393 7.76685e-21)
(0.272882 -0.562991 8.63995e-22)
(7.72237 0.718026 0)
(-6.22419 0.560596 -4.85955e-22)
(5.8823 -1.56564 2.5474e-21)
(7.65157 -3.72104 5.47673e-21)
(8.80841 -1.90727 0)
(9.91732 -1.17331 -4.8445e-21)
(-7.93266 -0.946276 4.01097e-21)
(10.9539 1.73613 -1.56092e-21)
(9.72012 -2.06168 3.13921e-21)
(10.0484 -3.42336 -2.41397e-20)
(11.3477 0.839518 2.58291e-21)
(7.48185 -0.160028 0)
(9.21024 -3.10563 2.58639e-22)
(11.7279 -0.00600971 5.72943e-21)
(-9.44729 -1.30165 -5.00806e-21)
(11.0899 -3.20157 1.93159e-21)
(-3.27116 2.07419 0)
(9.7461 -1.14301 7.35409e-21)
(-3.63267 -8.24757 -2.41253e-20)
(8.70162 -0.122477 -7.71167e-21)
(6.51183 5.39229 0)
(6.51855 1.0635 1.05833e-20)
(8.00138 -0.108787 -5.40378e-21)
(10.8669 -0.597409 0)
(8.13026 1.21855 5.56716e-21)
(7.09919 -3.35276 7.45404e-21)
(12.3129 -0.770474 -4.3195e-21)
(9.67467 -0.957486 0)
(-4.88994 0.429289 0)
(9.2156 -1.73319 7.95301e-21)
(4.7476 1.3276 7.746e-21)
(-7.33955 3.13309 1.49482e-21)
(9.49438 -0.735459 -4.97104e-21)
(7.98325 -0.210053 1.15067e-20)
(9.54458 1.67558 -8.88732e-21)
(-4.38059 5.33181 1.15629e-20)
(0.195244 -0.241864 4.22108e-21)
(10.4629 0.968032 -2.14451e-21)
(9.29109 -0.559666 -2.99714e-21)
(8.09881 2.22767 3.32656e-21)
(8.60303 -0.1321 0)
(-2.49942 -5.14881 0)
(7.24309 -4.69586 -5.72407e-21)
(8.01638 -3.73883 5.28604e-21)
(7.99941 0.000856386 -2.07174e-21)
(10.04 -0.550152 -4.56063e-21)
(10.2758 -0.619512 0)
(9.48303 -0.0314037 5.11878e-21)
(8.12364 0.956438 -5.54543e-21)
(8.01665 -0.271289 -1.0381e-20)
(13.2638 -1.36955 -1.01209e-20)
(10.9693 4.27472 5.3929e-21)
(5.70998 7.19212 3.30853e-21)
(5.83589 1.21859 -6.60092e-21)
(11.0591 1.46834 -1.54717e-21)
(4.76808 0.0292747 -3.52833e-21)
(9.67025 -4.76845 0)
(8.38561 -1.23357 0)
(8.6675 0.14706 2.43579e-21)
(8.78035 3.79824 1.29103e-21)
(4.43262 0.319652 0)
(6.86576 4.67714 4.44997e-21)
(4.86561 -3.8955 0)
(7.77032 2.21703 6.93297e-21)
(12.1878 1.6766 8.93512e-21)
(4.30474 4.95396 0)
(7.53949 0.379952 -7.46796e-21)
(6.91232 -4.38492 8.24928e-21)
(7.64805 -0.0859676 -7.34457e-22)
(8.21716 -0.683928 -1.51046e-20)
(9.81681 -1.23841 0)
(3.63488 -0.590295 -1.14591e-20)
(7.18174 -3.61618 -3.24233e-22)
(8.06648 -0.0884442 2.43541e-21)
(7.34051 -0.631951 -9.35473e-21)
(4.63977 -0.193844 1.05594e-20)
(10.4434 2.46715 -7.96725e-22)
(10.5603 -1.07899 -5.33335e-21)
(9.54898 -0.705245 0)
(7.43595 0.485609 -2.90526e-23)
(10.7484 -1.00599 -1.67737e-22)
(7.98926 -0.0160404 3.1063e-20)
(10.4242 -2.68832 0)
(9.95003 3.03954 7.53192e-22)
(6.61373 -0.193458 0)
(13.2967 -0.290473 2.39355e-20)
(9.15592 -2.55988 -3.63155e-21)
(4.9135 -2.39163 8.13263e-21)
(12.0224 -0.934744 4.58762e-21)
(7.93505 0.2344 0)
(8.92983 -2.95278 1.17128e-20)
(9.71928 -1.18181 -6.81541e-21)
(7.32069 -0.616065 8.84618e-21)
(10.8715 -1.00887 1.92854e-21)
(10.2554 0.59515 3.00525e-21)
(-5.02098 2.84953 -5.00564e-21)
(0.40936 -3.01003 4.21579e-21)
(9.96114 -0.329077 0)
(5.90404 -2.4122 1.90461e-20)
(9.92753 2.40673 0)
(6.74436 -3.98335 1.45876e-22)
(9.50887 -0.0681214 8.2965e-21)
(7.66696 0.8687 -7.21415e-21)
(8.30817 1.22413 4.98857e-21)
(-0.341862 0.709285 -3.66927e-21)
(8.02764 -0.241574 1.29096e-20)
(9.37056 0.00759158 0)
(-1.48066 -0.368551 -4.35449e-23)
(9.9842 -0.717137 -2.37209e-21)
(10.2818 2.74687 5.90515e-22)
(11.7167 -1.15222 9.35569e-21)
(9.48237 0.221287 0)
(9.91864 2.86944 8.4524e-22)
(7.62625 -0.342013 2.02935e-20)
(7.98812 -0.125001 1.6453e-20)
(10.9546 -0.805636 0)
(8.64644 -1.68322 -9.35009e-22)
(10.238 -0.56406 3.62457e-21)
(-2.03932 0.614374 2.8853e-22)
(7.43864 -1.1897 2.24281e-21)
(9.93845 -0.604054 2.26252e-21)
(8.88462 -0.177297 -8.2893e-22)
(9.89669 -0.344184 0)
(7.56858 2.26695 -7.92628e-21)
(-6.57164 1.77018 1.02016e-21)
(8.61867 0.971109 -8.05352e-21)
(8.00245 -0.00447941 1.12207e-20)
(6.48048 0.0112382 0)
(7.86343 -3.7079 1.24396e-20)
(4.54084 5.49262 0)
(9.68792 3.27042 1.28973e-21)
(8.78425 -0.15595 0)
(10.4812 -3.17816 -3.15866e-22)
(6.71734 -1.62521 -4.67497e-21)
(6.65141 0.919348 2.39557e-20)
(-1.97173 0.405764 -1.91273e-21)
(9.8147 -1.08972 0)
(8.51702 0.128809 -1.09736e-20)
(7.96054 0.241134 -8.97949e-21)
(1.10826 -0.17037 -8.53193e-22)
(3.20156 -6.47795 4.69809e-21)
(7.60557 -1.13416 -2.43606e-20)
(10.8168 -0.428691 -4.40738e-22)
(8.06177 0.306242 7.54654e-21)
(7.31896 -2.60245 0)
(6.52286 -0.48438 1.04157e-20)
(5.63934 1.5109 9.71413e-21)
(3.99084 -3.69721 2.5998e-21)
(-6.12672 0.840041 -3.15272e-21)
(0.809588 0.0509809 -1.80501e-21)
(10.445 0.925061 0)
(1.25566 -0.0143216 0)
(7.10794 2.14594 0)
(9.23904 -0.388079 0)
(8.47587 -3.02781 -1.72938e-20)
(12.712 -0.0524511 0)
(6.15262 3.5461 0)
(7.45049 -0.649185 3.6143e-21)
(10.652 1.11029 5.43566e-22)
(9.78825 -0.397612 -6.11079e-21)
(7.27685 -0.0434586 3.4977e-20)
(8.00033 0.0551622 -4.527e-21)
(7.04554 3.58393 0)
(10.7905 -0.147133 0)
(7.98937 -0.275403 1.10758e-20)
(8.11317 0.0283672 1.95398e-21)
(5.44567 0.710043 0)
(-3.42446 1.8275 3.78701e-21)
(10.9592 -3.29501 -2.16675e-21)
(-1.69676 -0.769777 0)
(9.73593 0.520001 4.61295e-21)
(8.08083 -0.135545 -1.28778e-20)
(13.0033 3.45096 2.42764e-20)
(5.90381 -2.39068 0)
(7.95042 0.249636 1.58749e-20)
(9.23181 0.660466 0)
(10.3913 -0.544333 0)
(8.31231 0.395194 -1.52341e-21)
(7.96295 -0.202728 6.122e-21)
(0.322421 0.206843 -3.96017e-21)
(8.1824 1.40284 4.56104e-21)
(6.88279 -2.29742 -7.83275e-21)
(9.08217 -0.354186 1.02701e-21)
(8.10354 0.349649 6.11841e-21)
(7.8954 2.19255 2.17209e-20)
(11.4872 -3.04226 0)
(11.8791 -0.0478326 2.90344e-21)
(6.67931 -1.43868 0)
(8.21453 -4.22228 -5.83053e-21)
(10.2478 -0.00121502 0)
(6.90396 -1.04544 1.29526e-20)
(-0.743187 0.511224 -2.50236e-21)
(10.9651 -0.327526 0)
(-0.452505 0.053587 1.01887e-23)
(11.0159 -0.158108 3.62752e-22)
(8.83579 -6.72621 -1.73049e-21)
(8.34243 -1.66987 2.03848e-20)
(6.15662 0.780637 -1.48424e-20)
(6.85372 -2.28103 -2.25757e-20)
(9.99872 3.13435 0)
(4.3326 0.124682 -9.31219e-21)
(-5.02403 3.28089 -1.3617e-20)
(7.93163 0.238405 0)
(7.63129 -0.0788831 8.04666e-22)
(9.49453 0.171165 7.47131e-22)
(8.54668 2.70211 0)
(7.99927 -0.0191145 0)
(-2.15501 0.36448 0)
(-8.16136 -2.79068 1.92903e-20)
(10.4162 2.34937 1.05257e-20)
(11.2565 2.20572 -1.41642e-22)
(7.7741 2.08398 0)
(7.9695 -1.44727 1.48278e-20)
(17.0671 -0.883171 -4.14483e-23)
(8.21072 1.29556 -1.106e-20)
(3.08016 -4.86791 1.81312e-20)
(7.784 -0.0677664 0)
(-0.352446 -1.44361 0)
(5.03754 -1.86896 -1.33145e-20)
(7.22537 -2.5957 -5.37793e-21)
(8.87465 -1.03659 0)
(9.04049 -4.17718 -2.43532e-21)
(9.15031 -0.357375 6.9883e-21)
(6.70856 -5.66045 1.58298e-20)
(5.28325 -2.5296 0)
(9.26524 -0.408164 -5.78218e-21)
(6.0916 1.22459 -9.72191e-21)
(9.32504 0.654826 -6.53535e-21)
(9.10601 -2.67698 0)
(-0.0250158 -0.274981 -6.32497e-21)
(7.76296 0.975288 6.05622e-21)
(7.97517 0.118182 3.07381e-21)
(7.72599 0.989316 -1.00686e-20)
(8.75859 1.81314 0)
(7.24957 -0.058941 -9.32367e-21)
(10.0649 1.91143 1.7822e-21)
(0.408739 0.0505101 3.98809e-22)
(7.99772 0.0399091 0)
(2.81296 -6.06168 -4.82035e-21)
(4.22943 -1.76333 0)
(7.98177 0.0699845 -1.25336e-20)
(7.97003 -0.0115847 4.51565e-21)
(8.01747 -0.449921 -2.13919e-21)
(-8.2368 -2.37837 0)
(8.427 -0.308689 -4.20682e-21)
(5.63796 -0.370219 2.83155e-20)
(11.3807 -3.11182 0)
(7.41114 -0.725098 1.09414e-20)
(13.0292 -1.80662 1.16583e-20)
(8.57835 0.0225785 0)
(-3.89376 -7.37275 1.08265e-20)
(9.7473 -0.71017 1.22809e-20)
(8.86179 -0.184665 0)
(0.150747 -0.163754 3.3682e-21)
(7.60912 -0.111377 0)
(8.66004 -3.90767 4.61701e-21)
(-7.56566 0.42642 2.66348e-21)
(5.88217 -0.847008 1.79205e-21)
(8.94619 0.424646 6.8672e-21)
(6.52238 -0.535859 5.39919e-21)
(8.35059 -1.76742 -7.42868e-21)
(9.50844 -1.01872 4.17663e-21)
(8.7627 -3.83974 1.25597e-22)
(9.90444 -0.652419 2.3449e-21)
(8.7198 1.78357 -1.12325e-20)
(10.6841 -4.62098 0)
(7.99924 -0.0091636 -9.95396e-21)
(-1.1487 0.0486039 -5.94066e-22)
(6.77357 -1.4537 0)
(2.61557 3.02623 2.33608e-21)
(6.53982 -0.123059 0)
(6.56314 -2.3739 1.97697e-20)
(10.2971 -3.54535 0)
(7.71125 0.0759548 2.03532e-20)
(9.77966 -0.0912702 -4.78614e-21)
(-6.47216 -7.08265 2.14555e-20)
(-1.62025 -0.217775 -2.10252e-21)
(9.53004 0.274106 -6.09691e-23)
(9.72915 -4.55508 -6.18861e-22)
(8.65625 -2.60671 6.35104e-21)
(7.35489 -2.17414 0)
(-2.05331 1.49302 -2.55644e-21)
(11.6189 -2.85122 3.11748e-22)
(-2.19643 1.85946 -3.06149e-21)
(4.85625 -4.81584 -7.34585e-21)
(7.32921 -2.98166 0)
(8.79529 -0.0111718 -1.09863e-22)
(-3.35423 1.98678 0)
(-3.88643 -3.24828 1.47371e-21)
(14.3891 4.48808 -3.12468e-20)
(5.74349 -2.2608 0)
(9.9788 -2.33516 1.15237e-21)
(-1.64535 -5.05248 0)
(8.58046 2.61486 0)
(8.40591 -3.95598 -6.0806e-21)
(6.73975 -0.29462 8.69597e-21)
(4.60733 0.798175 0)
(7.59321 -0.266353 -5.71047e-21)
(11.0614 1.94993 3.9423e-21)
(-6.41722 2.80365 7.71116e-21)
(8.39917 3.41422 0)
(8.57281 -0.0428139 0)
(-4.84895 3.44008 -6.23432e-21)
(8.39996 -0.927672 0)
(8.1753 -0.444305 0)
(-4.61573 6.77656 -6.82101e-22)
(9.7237 -1.65454 -7.15249e-21)
(8.43769 -2.2754 5.78268e-21)
(11.5847 0.816166 4.19444e-22)
(-2.41614 1.85721 5.4901e-21)
(7.9887 -0.014481 5.09867e-21)
(7.51498 -2.23182 0)
(8.02538 0.911019 -3.70188e-21)
(7.03983 -1.80554 0)
(7.68886 -0.066933 0)
(7.98877 0.142371 0)
(8.31462 0.373765 -1.25004e-21)
(8.21116 -0.716436 6.92913e-21)
(11.091 0.668964 -2.44244e-21)
(7.67131 -2.24589 0)
(-0.268455 0.358325 -2.91959e-21)
(7.07697 2.02563 8.90199e-21)
(9.15291 -3.21917 4.61616e-22)
(9.7139 -0.722327 5.50732e-21)
(11.8577 -0.605059 5.32855e-21)
(8.15495 0.0331952 -7.36404e-21)
(-0.795622 0.4562 0)
(7.99357 1.04176 0)
(5.99014 0.846075 0)
(6.6416 -3.02106 -1.39668e-20)
(-11.469 -7.69958 -2.12103e-20)
(9.74576 0.00763913 0)
(8.064 0.914445 0)
(8.17359 2.49577 5.47954e-21)
(8.45588 -0.0731116 -1.65555e-21)
(7.32201 0.912096 1.40861e-20)
(12.1948 -4.61617 0)
(-3.11907 3.5539 -1.41625e-21)
(8.61737 0.14992 6.65163e-21)
(7.09678 -2.49825 -1.28973e-20)
(8.30755 0.174149 -8.43028e-21)
(8.1632 1.30341 1.36665e-20)
(9.39914 -0.0131504 1.51691e-20)
(6.55613 -2.98074 2.41712e-20)
(7.85613 -4.05945 -4.65988e-21)
(13.53 2.18657 4.27892e-22)
(8.00056 -0.0164147 -2.34061e-21)
(8.38868 -4.03227 -3.26254e-22)
(9.96631 -0.605985 -5.78009e-21)
(5.39633 3.37955 -1.00764e-20)
(8.78851 -4.0916 1.64537e-21)
(6.73887 0.282688 0)
(5.35043 4.2874 2.55044e-22)
(8.65882 -0.0360525 -1.57984e-20)
(9.31522 2.19811 -2.24426e-21)
(6.98369 -2.38665 -1.19215e-20)
(9.05306 -3.1129 -5.43964e-21)
(8.92844 0.0377849 1.40634e-20)
(11.3707 -0.113235 -8.08196e-21)
(6.96883 3.52693 -5.60179e-21)
(10.2999 1.00477 1.11279e-21)
(6.26391 -1.85494 -2.7751e-20)
(8.55727 -0.0337368 -1.41463e-20)
(6.26857 -2.05021 0)
(-8.37514 -5.92016 -3.1722e-20)
(9.09319 -0.0161882 1.70421e-20)
(9.6352 0.732108 -3.81169e-21)
(-1.38457 -0.412204 0)
(9.55474 -4.23927 0)
(7.75978 0.674731 1.3275e-20)
(5.89079 -1.88501 1.73041e-20)
(-0.360229 -4.57722 -2.79555e-20)
(10.5638 -3.12544 -3.72839e-22)
(10.6597 -1.07189 2.7987e-21)
(10.0032 2.3248 0)
(7.72975 0.731197 7.71974e-21)
(6.69523 7.45463 -5.96679e-22)
(8.1456 2.33296 -1.07434e-20)
(9.14857 -1.31403 -8.16969e-21)
(-2.50834 1.90087 -8.88769e-21)
(11.7789 -0.959321 -4.3977e-21)
(11.8374 -0.0172039 2.30433e-21)
(7.47194 2.47497 0)
(10.0745 -1.14948 2.77094e-21)
(8.03033 -0.434389 1.89004e-21)
(14.1137 -1.95705 4.8474e-21)
(5.41231 -2.70057 2.29442e-20)
(9.04886 -1.37346 1.23534e-20)
(8.45728 -6.42028 -1.82123e-21)
(-6.31252 1.86451 -2.80524e-21)
(9.98714 -0.238009 2.0481e-21)
(8.68794 0.0539832 1.27077e-20)
(-3.87288 5.00755 -1.34475e-21)
(7.97109 2.18458 2.0607e-20)
(0.143039 -0.27775 -3.65972e-21)
(6.73594 -3.24435 -6.98279e-21)
(14.6443 -4.06227 0)
(17.1961 1.73229 1.34028e-20)
(-6.87455 6.00983 -9.78444e-21)
(6.69201 -1.70092 2.49014e-20)
(8.44124 0.00202722 0)
(10.4082 4.58292 -3.9966e-21)
(6.43133 -2.76407 5.59231e-21)
(7.98416 0.00447582 -2.19635e-20)
(-4.01151 2.22477 -3.24186e-21)
(4.99427 0.249916 4.4713e-21)
(9.8532 -0.394569 4.1518e-21)
(8.52937 0.17153 1.66687e-20)
(8.76054 -3.94848 -5.84321e-21)
(11.8415 0.735993 2.98246e-21)
(-9.89858 -8.54075 -4.44961e-20)
(8.44827 -0.0322387 1.48276e-20)
(9.01252 -0.326791 -4.50519e-21)
(8.23317 0.218473 -7.46702e-23)
(10.3252 0.0142567 -9.2226e-21)
(6.2796 -2.81624 -1.07915e-20)
(12.6917 1.9927 0)
(-9.29526 -4.29244 1.34596e-20)
(8.60727 0.0376291 1.42351e-21)
(14.1312 2.91862 2.76411e-20)
(9.37803 0.120176 6.41028e-21)
(10.4119 -1.3425 -2.45061e-21)
(7.97484 0.0483716 -1.94715e-20)
(8.02999 0.549401 4.56454e-21)
(-3.31548 1.84959 -3.89255e-21)
(8.85164 -0.403302 0)
(8.3306 -3.58478 -6.76855e-21)
(7.36137 0.836767 7.39409e-21)
(7.35344 -2.93507 0)
(8.22861 0.157015 1.04062e-20)
(6.9126 0.378802 1.04289e-20)
(8.36957 -0.460584 1.33767e-24)
(13.2551 -4.17123 8.95859e-21)
(9.17557 -0.964184 0)
(7.30528 0.186097 1.83336e-20)
(9.31278 -6.74109 -1.47056e-21)
(8.5524 -3.95663 4.72632e-21)
(9.08473 -0.907557 0)
(6.71155 -0.348738 -2.49984e-20)
(7.63759 7.83099 8.02073e-21)
(7.70333 3.33472 1.16687e-20)
(6.31679 -1.89657 2.70547e-20)
(9.37572 -0.257495 3.74015e-21)
(-2.1543 0.133177 -1.05145e-21)
(8.59045 -0.78525 -1.01691e-20)
(11.673 0.237375 -3.56224e-21)
(7.62374 -0.319749 -1.16642e-20)
(8.77518 -0.0414677 0)
(8.00268 -0.0340204 -8.77554e-21)
(0.494641 -0.865862 7.96499e-20)
(-1.42059 -0.280665 0)
(12.202 -0.105821 0)
(14.0907 -2.01722 0)
(0.139452 0.0151719 0)
(7.93103 0.47737 0)
(6.11014 -1.85014 0)
(9.60528 -1.99026 -3.58348e-22)
(11.2724 2.14785 -3.31336e-21)
(9.0921 1.06715 0)
(7.26933 0.0694544 2.70949e-20)
(5.54253 5.51978 1.30787e-20)
(8.05563 0.343345 1.03284e-22)
(-5.98684 6.86756 -3.67986e-21)
(6.00343 -1.24447 7.45873e-23)
(-3.51515 1.98398 2.79394e-21)
(8.02151 0.117 -3.83926e-21)
(9.90656 0.291802 -4.13555e-22)
(7.90557 0.424627 -8.97241e-21)
(7.6892 -0.116339 -1.69367e-20)
(7.02072 1.70726 -1.50774e-20)
(9.81954 3.25664 0)
(3.84491 -6.72469 8.48241e-21)
(6.62849 -2.42711 -2.16361e-20)
(8.02513 0.0190411 -2.60818e-20)
(11.7072 -2.71265 7.35594e-21)
(9.90754 -0.0679729 1.58991e-21)
(13.8974 -1.98713 -1.41538e-20)
(9.8902 -1.11061 -7.88659e-22)
(10.0306 -2.29703 -3.91849e-21)
(7.96659 0.223262 9.30727e-21)
(8.31858 5.53995 0)
(9.4991 -0.987376 4.19211e-21)
(7.51805 -0.713134 -3.46139e-21)
(13.0128 0.399274 0)
(8.86071 -1.56561 0)
(9.20617 -4.08817 -1.18205e-22)
(-2.03386 -0.24936 -1.05049e-21)
(9.80976 -2.1173 8.97862e-21)
(7.07857 -0.708548 0)
(8.34462 -0.694085 -1.40177e-20)
(7.54657 -0.129908 -3.21047e-21)
(-7.17474 -5.21293 6.90206e-21)
(7.30211 -0.314419 6.56994e-21)
(-3.572 1.9296 0)
(2.87266 -7.50715 8.06896e-21)
(7.72524 0.120201 0)
(9.91935 -1.23608 -3.66386e-21)
(9.61723 2.7885 -5.88264e-22)
(8.01484 -0.00932178 3.13657e-24)
(8.21604 1.49048 -2.57018e-20)
(8.42258 2.99195 -4.09203e-22)
(8.42462 -2.57056 1.35592e-20)
(2.50175 -1.94829 0)
(-3.07705 -5.67572 -1.159e-20)
(-0.0336298 4.33256 0)
(9.23007 1.10622 2.25262e-21)
(-7.21619 -5.47118 1.23161e-20)
(13.3103 -0.201259 1.2334e-20)
(8.46645 -3.33344 7.20358e-21)
(-7.09297 1.09859 -2.74563e-20)
(7.84046 -3.63777 -5.45878e-21)
(6.74433 -2.42197 -1.24664e-20)
(4.41425 0.856191 -3.33767e-21)
(-2.21824 -3.42108 9.56113e-21)
(6.31045 -2.84704 8.86065e-21)
(6.92236 -2.49171 1.33732e-20)
(-9.74748 -5.8664 3.38232e-20)
(3.50386 -5.39029 -8.27964e-21)
(8.93858 -2.79069 5.78258e-21)
(-1.46263 0.0425168 1.68355e-21)
(10.8381 0.120325 1.57094e-21)
(5.84417 6.60307 -1.18682e-20)
(8.41138 0.986366 -6.22172e-21)
(11.2064 -1.97838 0)
(0.169721 -0.0179931 -3.77992e-21)
(8.34204 -0.0310424 -1.67983e-20)
(7.95817 0.0974169 0)
(9.17696 1.021 0)
(-9.54193 -1.46105 -1.1809e-20)
(12.063 1.1434 -6.43293e-21)
(8.80415 0.602883 -1.56968e-20)
(9.70611 -1.61763 9.3704e-21)
(7.09414 1.69543 1.28616e-20)
(7.5269 -0.0188857 9.17541e-21)
(-8.0445 -4.58883 -8.4093e-22)
(7.09669 0.760052 0)
(7.05474 -2.57694 1.25866e-20)
(-1.23638 4.01597 6.24662e-22)
(-7.43985 -0.003655 2.09072e-20)
(8.43105 -3.23244 2.07609e-21)
(10.1204 -4.74368 2.83299e-21)
(8.38462 0.000794992 4.80914e-21)
(8.44782 -2.12466 -3.98677e-21)
(10.7061 -0.842763 -3.0817e-21)
(-7.54404 -4.81525 -6.18314e-21)
(8.77868 0.572072 1.18425e-20)
(8.03533 -0.256437 6.39948e-21)
(6.2209 -2.03075 -1.10935e-20)
(8.40725 -0.83996 8.44947e-21)
(6.81405 3.83894 0)
(8.6477 0.953766 1.38983e-20)
(8.05902 -0.151594 1.44398e-21)
(7.29919 -2.0725 -4.14631e-21)
(5.90839 3.17002 -9.715e-21)
(8.81146 -2.7703 4.57342e-21)
(8.18266 -0.0467242 2.63306e-21)
(6.53902 -0.88854 -1.76896e-20)
(13.0593 0.174899 0)
(7.84695 -2.88162 1.3692e-20)
(8.33048 0.200328 1.13985e-20)
(10.1575 -0.707613 0)
(6.77216 -1.14376 9.83743e-21)
(7.67397 -0.36903 0)
(5.47089 3.10682 3.29155e-20)
(10.8486 -0.0339257 0)
(9.78302 -1.00849 0)
(8.69695 0.514429 3.00611e-21)
(8.80247 0.440394 8.98431e-21)
(10.0936 1.29133 3.21845e-21)
(7.83061 -0.0714361 -7.92938e-21)
(6.05427 1.60149 -8.02755e-21)
(7.98053 0.0531488 -3.87475e-21)
(7.96847 0.510237 0)
(-1.30755 0.992426 -4.14051e-22)
(9.06632 0.449524 -7.81059e-21)
(9.93772 -1.1771 8.09525e-21)
(11.2387 -2.01748 0)
(9.42621 2.16002 -2.7056e-21)
(6.7791 3.40095 -1.76325e-21)
(10.7169 0.0807133 7.18034e-21)
(1.93502 0.617577 0)
(-3.26238 6.48112 1.08025e-20)
(8.04045 0.24972 0)
(10.7487 -0.575332 1.67389e-21)
(0.32703 -0.45284 0)
(8.31203 1.40608 0)
(6.14184 -4.43343 0)
(10.056 -3.54036 0)
(-2.65099 4.30621 -7.39472e-22)
(-9.18691 -2.76364 -4.11597e-21)
(8.21318 -0.707222 -1.0387e-20)
(-5.73421 -6.93252 -2.0767e-20)
(6.65491 -2.92993 0)
(-9.74612 -5.64079 -1.54241e-20)
(-0.080152 -0.521263 -8.5695e-22)
(7.91837 -3.69797 0)
(7.34443 -2.80088 -1.30341e-20)
(3.15899 -0.943728 1.83779e-22)
(8.38855 0.924209 1.64911e-20)
(12.5448 -3.73935 -6.93358e-21)
(7.70353 -0.178985 0)
(10.9769 -3.02216 0)
(10.7853 1.93557 8.11313e-23)
(10.0031 -1.01817 -1.40487e-21)
(5.55295 0.0979424 7.11347e-21)
(-7.66031 -1.06381 9.32366e-21)
(8.00632 0.0101588 6.51406e-22)
(16.8732 1.73272 -3.56119e-21)
(7.97758 0.224084 1.32782e-20)
(7.65077 -3.64326 -6.6967e-21)
(9.12264 -2.50725 0)
(-0.856639 1.25243 0)
(11.4778 0.610857 0)
(8.45952 0.526092 0)
(8.23292 -1.9244 5.46889e-21)
(10.3658 0.499294 0)
(-3.55599 5.80907 1.49688e-20)
(5.01988 -1.43233 -4.62719e-23)
(6.85037 -2.53676 -2.01628e-20)
(5.97374 6.15618 -5.27191e-21)
(-10.2041 -4.71907 -6.76186e-21)
(-1.8495 6.0768 -6.13254e-21)
(9.0068 0.0397675 2.07622e-21)
(-8.08742 -2.91155 -5.91097e-21)
(6.99279 -3.65344 -9.31361e-21)
(8.92181 0.374217 0)
(11.2968 -0.476471 0)
(6.3772 3.92073 0)
(10.4089 -1.4671 1.15917e-21)
(-0.51769 -3.52666 0)
(7.12081 0.790932 0)
(7.99928 0.0141605 0)
(8.48911 -2.26018 5.46913e-21)
(8.06194 0.299144 -1.50739e-20)
(6.70147 0.125231 0)
(9.92683 -2.02995 6.11237e-21)
(7.86736 0.184402 -1.10051e-20)
(8.19448 2.22854 2.23854e-20)
(7.98211 -3.65787 6.92636e-21)
(7.22768 1.00373 1.16992e-22)
(9.14 -0.460045 1.0843e-21)
(9.46522 -1.82926 -7.81631e-21)
(9.93876 -1.22715 8.34073e-21)
(8.72473 0.467731 -1.2198e-20)
(6.09022 0.462853 1.63201e-20)
(7.81046 -0.443187 -1.09069e-20)
(8.38253 -0.0228796 0)
(15.2262 4.15809 -2.05633e-20)
(8.00224 -0.132501 1.20251e-20)
(5.30895 7.20977 1.85524e-20)
(9.83507 -1.07143 -2.43831e-21)
(5.96857 -1.94232 -1.88238e-20)
(8.7495 0.390638 2.07238e-21)
(10.0975 1.90101 -2.5782e-21)
(7.98812 0.0874061 0)
(4.26266 3.85608 -1.90311e-21)
(7.77214 -1.47924 4.27846e-21)
(9.59556 -0.976497 -1.39009e-20)
(3.04146 -6.45263 -2.06876e-20)
(8.36448 -0.106558 5.61638e-21)
(13.1443 1.37814 -6.47255e-22)
(9.25882 -0.216569 -2.82619e-21)
(11.0102 0.79683 0)
(7.45516 6.13308 0)
(7.55196 -3.58458 9.13556e-21)
(-3.88177 1.89424 3.50167e-21)
(11.7482 -2.94416 1.41971e-21)
(8.01939 -0.142322 2.37275e-20)
(5.54032 4.2444 6.30465e-21)
(6.70074 -0.459577 0)
(7.7202 -0.485889 0)
(7.78322 -2.13731 -1.83784e-22)
(8.37118 0.274986 4.76348e-21)
(7.32515 0.961968 2.05573e-20)
(9.78402 1.35459 0)
(8.63903 0.0737723 0)
(10.2539 -2.55159 3.4762e-21)
(8.96284 -0.879709 7.2166e-21)
(7.95916 -3.56085 -1.22203e-20)
(9.22329 -0.487659 0)
(6.11139 0.8672 1.1127e-21)
(11.3844 -2.47155 -8.55437e-23)
(-6.88008 5.01744 -9.36315e-21)
(8.54348 -0.343363 -1.13665e-20)
(11.4621 1.90241 0)
(12.4364 1.1198 5.20026e-21)
(2.58138 -0.466499 -3.23796e-20)
(-3.88186 2.33664 0)
(6.71199 0.628117 2.88729e-20)
(7.88035 -0.198902 -7.94953e-21)
(9.46166 -0.852041 2.7159e-23)
(10.5653 2.90774 -9.49067e-22)
(6.96199 6.85336 -9.53611e-22)
(8.79059 0.0447382 0)
(5.96434 -2.4739 -1.59975e-22)
(5.31954 3.60194 -6.30503e-21)
(5.66647 4.20034 -1.86185e-20)
(7.89422 0.442651 1.06248e-20)
(3.94091 0.0260742 6.49426e-20)
(8.21798 -0.0326751 -2.61171e-20)
(9.2042 -6.63101 1.04097e-21)
(9.24602 -2.75025 -8.41401e-21)
(8.35094 -2.14889 0)
(8.93705 -0.185694 1.50953e-20)
(6.18611 -2.89457 7.12334e-21)
(9.60117 -0.101396 -9.43438e-21)
(8.04818 -0.130513 -1.07157e-20)
(10.4927 -0.700162 -2.0261e-21)
(7.78696 -1.41566 2.19781e-20)
(10.2817 0.047997 -1.80214e-21)
(7.69243 -0.429809 6.43575e-21)
(3.29991 1.949 4.96599e-21)
(11.5413 1.06734 -4.28264e-21)
(7.96482 2.38416 1.75442e-20)
(1.43313 -3.85729 2.18563e-20)
(8.69899 0.0390209 0)
(7.41189 3.63014 0)
(12.6816 -0.626648 0)
(6.81113 -2.43508 1.56536e-20)
(7.92502 0.021675 -1.70336e-20)
(7.50198 -0.151414 0)
(7.44952 -2.10045 -1.20807e-20)
(7.51011 -0.229156 0)
(8.24071 -1.76177 -9.08176e-21)
(9.83491 -1.2553 8.65115e-21)
(9.00047 -2.36723 -6.50329e-21)
(8.88931 0.0441892 0)
(8.07323 -0.28148 0)
(9.5747 -0.728104 -5.61643e-21)
(9.06697 0.920021 -4.0523e-22)
(10.1603 0.16318 -2.12862e-21)
(6.89011 3.69687 -6.15211e-22)
(10.0984 1.95058 0)
(8.48502 -3.15296 -3.38971e-21)
(-1.25155 -0.0623598 0)
(4.18769 0.678298 -1.20547e-20)
(8.49893 3.02593 0)
(12.4337 1.21715 1.49104e-21)
(6.27286 -1.78171 7.22873e-21)
(7.28171 -1.49628 7.18898e-21)
(8.55459 -0.601752 5.48969e-21)
(4.8098 -1.73929 -6.03163e-20)
(8.88464 -1.05964 1.80816e-20)
(7.9241 0.486325 -1.10093e-22)
(13.8051 -1.98597 1.74276e-20)
(9.40069 -1.96133 -3.09809e-21)
(-0.646854 0.119957 1.87397e-22)
(8.96341 1.36858 0)
(8.05575 -0.0657635 -1.06267e-23)
(7.57644 -2.30118 0)
(8.84328 -2.38155 8.49174e-21)
(8.57348 -3.12594 -1.70968e-21)
(7.82767 -1.31967 -7.15481e-21)
(8.84097 -1.32205 1.03812e-21)
(9.66101 0.251508 5.51206e-21)