/*--------------------------------*- C++ -*----------------------------------*\
| =========                 |                                                 |
| \\      /  F ield         | OpenFOAM: The Open Source CFD Toolbox           |
|  \\    /   O peration     | Version:  2306                                  |
|   \\  /    A nd           | Website:  www.openfoam.com                      |
|    \\/     M anipulation  |                                                 |
\*---------------------------------------------------------------------------*/
FoamFile
{
    version     2.0;
    format      ascii;
    arch        "LSB;label=32;scalar=64";
    class       volVectorField;
    location    "9.7";
    object      U;
}
// * * * * * * * * * * * * * * * * * * * * * * * * * * * * * * * * * * * * * //

dimensions      [0 1 -1 0 0 0 0];

internalField   nonuniform List<vector> 
13486
(
(4.83244 -0.955823 3.11324e-20)
(5.21117 0.490847 1.78872e-20)
(6.97163 -0.0135803 0)
(2.13925 -3.23043 -2.56746e-20)
(7.84066 -0.606649 2.05626e-20)
(7.02032 0.403805 -9.95637e-21)
(7.42006 1.44321 -3.65123e-22)
(6.8919 -2.20698 -2.16494e-20)
(6.30376 -1.14011 0)
(5.76175 1.63064 0)
(-3.54079 4.45098 5.79021e-21)
(7.58862 -0.528554 0)
(4.50833 -1.56202 -2.99223e-20)
(6.81346 1.82118 -1.31135e-20)
(7.04618 0.30243 1.59734e-20)
(5.68165 1.69159 -1.94317e-20)
(1.03217 -0.416862 -7.84706e-21)
(4.75373 -4.00067 5.19358e-20)
(6.79462 -0.0939649 5.20515e-22)
(5.2114 -0.422627 -3.40662e-20)
(-7.15396 4.44247 -1.0316e-20)
(4.55516 -1.59729 3.85484e-20)
(5.26837 0.47589 -1.4329e-20)
(8.85144 -1.71097 0)
(5.99597 1.35915 7.73538e-21)
(8.77726 -1.696 5.91005e-21)
(1.25914 -0.84399 -6.26363e-21)
(7.4053 -0.36256 -3.88728e-20)
(10.1699 -5.90693 0)
(7.32416 -1.14678 2.68911e-20)
(-5.53036 4.65332 4.45092e-21)
(6.12777 -0.138294 -2.75683e-20)
(8.73648 -0.45758 -1.52748e-20)
(6.35807 -0.376802 0)
(6.91633 -2.08584 0)
(3.06972 0.285023 -2.60237e-20)
(9.33957 -6.0194 2.07307e-20)
(5.39957 -2.49985 1.74991e-20)
(5.86372 2.552 7.79212e-21)
(6.2107 -0.685372 2.03132e-20)
(9.62025 -1.7681 0)
(3.91586 -1.89102 -3.43872e-20)
(8.14425 -0.0829589 0)
(6.01239 1.16661 -3.61381e-20)
(6.02924 1.17501 1.49225e-20)
(7.66237 -0.568122 2.28194e-20)
(-1.94132 2.61543 -1.68526e-20)
(9.61837 -7.23932 -5.24969e-21)
(9.56217 -5.87767 -1.63497e-20)
(7.65067 0.0268025 -1.94109e-20)
(5.98182 0.030949 2.76559e-20)
(6.37133 1.02241 0)
(6.91232 -1.61336 -3.80544e-20)
(5.54729 -2.01154 -2.52927e-20)
(4.35129 -4.72069 0)
(7.69631 -0.810434 -1.28507e-20)
(4.99934 -1.38726 -1.68189e-20)
(6.72875 1.29376 3.24106e-20)
(8.69635 -0.378481 -2.0252e-20)
(0.947498 -1.9991 0)
(-2.41063 4.5125 5.76428e-21)
(2.70548 -4.52919 0)
(10.7418 1.85744 8.86861e-21)
(-6.44366 4.74081 -1.55093e-22)
(7.91331 -3.43996 0)
(7.32519 -6.14013 8.154e-21)
(2.3246 -2.27877 -6.06903e-21)
(4.71364 -0.233561 1.06126e-20)
(6.32092 -1.21367 -1.11918e-20)
(2.27318 0.108459 -1.48373e-20)
(1.48113 -2.9036 7.00813e-21)
(4.47723 -4.55011 2.67167e-21)
(6.07052 -0.368572 1.52228e-20)
(-1.042 -0.185923 8.88165e-21)
(4.9884 -6.55373 6.67966e-22)
(5.24451 -1.43873 3.80516e-21)
(5.80843 -6.81986 -7.84411e-21)
(7.15778 0.301248 -6.27877e-21)
(-2.13352 2.91076 7.60418e-21)
(4.11302 -2.65123 0)
(-1.19931 5.62936 1.67061e-20)
(5.0612 0.685802 -1.13896e-21)
(11.689 2.28412 9.11484e-22)
(8.14289 0.307097 -7.16231e-21)
(4.8299 -0.980501 -6.064e-20)
(4.36123 3.52923 0)
(-0.976037 2.56232 -9.60452e-22)
(5.98826 0.0653531 -4.40762e-20)
(5.6811 0.402799 -1.69127e-20)
(5.24541 2.2063 -2.48072e-20)
(5.69846 -0.768313 -1.99527e-20)
(7.3033 -1.63472 -1.25712e-20)
(5.03471 -1.24019 8.17026e-21)
(5.23633 -0.0299522 9.18976e-22)
(6.21256 -1.79956 4.38095e-21)
(5.15769 -6.68773 2.09867e-21)
(1.05968 -0.795672 0)
(-7.24318 -0.414951 -1.73343e-21)
(6.20763 -0.655032 -3.8864e-20)
(0.871808 -0.261753 -8.74568e-23)
(4.17317 1.97434 0)
(6.76554 1.81548 -5.20972e-21)
(-8.03093 -0.302405 9.8939e-23)
(5.90383 1.34852 -3.83932e-20)
(3.92752 3.28553 0)
(0.529206 -0.0568035 -5.09441e-23)
(5.95526 0.0741311 -5.81515e-24)
(5.15785 2.32183 1.78336e-20)
(-2.10727 2.80675 -1.05653e-20)
(7.15882 -3.11397 0)
(5.60903 -2.58618 0)
(5.88573 0.637086 -3.06439e-20)
(5.57782 -1.96319 9.08302e-23)
(6.56758 -1.60344 1.30298e-21)
(3.87018 -0.639798 0)
(5.50541 -2.58126 -1.67554e-20)
(5.92725 1.43983 0)
(6.66313 -0.330854 0)
(6.07799 -0.354338 0)
(8.86626 -4.92587 2.07418e-20)
(4.99777 -3.981 -2.32624e-20)
(-3.3903 5.06016 0)
(6.07094 -1.64838 0)
(4.82488 2.50952 -2.47889e-20)
(6.45123 -2.11496 0)
(6.99389 0.762984 0)
(6.74371 -0.477177 5.60792e-22)
(6.35243 0.226177 2.38941e-20)
(6.05302 -0.163641 7.45685e-21)
(8.74126 -4.2491 4.08666e-21)
(6.61305 0.691331 4.39691e-21)
(-2.13643 2.7727 4.31757e-21)
(-0.807782 0.336504 -1.44356e-20)
(-0.491799 -0.104517 -1.32611e-20)
(5.9915 0.0111751 -4.38408e-21)
(5.67247 0.949148 -2.26005e-20)
(2.72587 1.02741 -8.56783e-21)
(7.18434 -3.01621 0)
(8.46549 -4.19339 -7.25604e-21)
(6.82091 -1.64533 -7.72663e-21)
(8.37419 -0.0366933 2.18585e-20)
(7.06231 -1.79973 3.23196e-20)
(6.57718 -0.703427 0)
(3.79674 -2.49591 0)
(7.74754 -0.205867 4.20782e-21)
(12.5651 -0.940554 9.8209e-21)
(12.0334 2.63385 -5.84435e-21)
(0.337775 2.47476 0)
(7.88914 0.0706686 0)
(10.8572 -5.75946 0)
(6.00415 0.0192557 6.07315e-22)
(7.63089 0.216126 0)
(3.29836 3.32312 -1.74841e-20)
(4.9868 0.654061 -9.53914e-21)
(6.3597 0.803707 0)
(8.00664 0.0353135 0)
(7.30923 -3.00886 0)
(4.64693 7.66085 -1.15722e-20)
(5.95052 -2.28119 3.82426e-20)
(3.74132 2.70013 2.76863e-20)
(7.52585 0.0777442 -1.62644e-20)
(5.96494 -2.22619 -5.76858e-20)
(4.7757 -0.499845 1.69242e-20)
(3.55826 -1.7783 1.52722e-20)
(6.58706 0.997975 0)
(7.101 1.84665 1.52511e-20)
(6.65022 1.65862 3.21485e-20)
(2.22613 -0.844659 -3.33016e-20)
(11.4059 3.33653 1.52217e-20)
(-0.494414 -0.217608 -3.59552e-21)
(-1.48672 -0.006822 3.41804e-23)
(6.34324 0.729479 1.7212e-20)
(5.98924 0.123972 -4.18493e-20)
(6.81093 -0.238517 1.14279e-21)
(-3.25313 -8.31982 1.63249e-20)
(-3.3057 1.24692 0)
(6.67068 2.56731 -2.50838e-20)
(8.65897 0.147846 -2.65484e-20)
(5.9623 0.0619936 -4.02735e-20)
(6.57869 -0.748014 0)
(6.38833 -0.780728 4.24358e-20)
(6.65174 -1.58069 2.6701e-21)
(6.78685 -0.282668 2.04784e-23)
(-0.363764 0.531145 0)
(8.5175 0.858198 1.70983e-20)
(7.30671 -0.310531 1.78317e-20)
(10.1064 -2.84954 -1.55019e-21)
(7.0267 -0.820183 9.15639e-21)
(10.2335 -1.65503 0)
(5.03935 -2.39838 -2.17213e-20)
(9.05968 -5.52753 0)
(6.96592 -0.200675 0)
(5.43226 1.04881 0)
(4.90398 1.83104 -1.9701e-20)
(5.24998 0.699264 0)
(-4.41932 4.69427 1.55553e-21)
(8.0001 -3.88871 -1.00176e-20)
(7.29837 0.0063519 -8.60107e-21)
(4.70318 -2.31086 -7.48714e-21)
(7.04124 1.72596 1.10614e-20)
(-5.16022 3.20063 -7.40375e-21)
(6.38384 0.265227 -7.64225e-22)
(5.32491 -2.5331 -2.02778e-20)
(8.19747 -3.08025 5.65675e-21)
(3.4528 2.85282 -3.35743e-20)
(5.19723 0.624644 2.1235e-20)
(3.02007 -2.40714 2.32041e-20)
(5.86165 -0.207686 2.9732e-20)
(5.53666 1.72991 0)
(8.34741 0.799157 0)
(7.20587 -0.440269 -3.00748e-20)
(9.13541 -2.11558 -1.10664e-20)
(5.25684 -0.345474 3.13146e-20)
(5.93382 0.0886235 -2.63318e-24)
(7.01916 0.497646 1.14819e-20)
(6.04611 -2.93572 -5.64306e-21)
(7.47629 -0.986262 0)
(5.3108 2.10149 5.58012e-20)
(5.28008 -1.27128 0)
(8.49948 2.04845 0)
(0.959998 -0.367805 1.50466e-20)
(7.81253 0.11477 0)
(6.75628 -1.67071 1.81534e-20)
(7.93823 0.119818 0)
(6.77946 -2.33687 -7.17146e-21)
(4.65154 -2.17374 1.13252e-20)
(7.30471 0.905354 1.20954e-21)
(-4.26811 1.54306 -1.23892e-21)
(5.94752 -1.87944 2.71766e-22)
(-0.881211 1.77462 3.56385e-21)
(6.38974 -0.742406 -1.36383e-20)
(12.7748 4.66863 5.39896e-21)
(8.46079 -0.0970393 -2.77264e-20)
(3.87739 -1.86685 1.16628e-20)
(-9.77909 0.919116 0)
(4.37147 -2.13077 1.36905e-21)
(6.76614 -0.71713 -1.82283e-20)
(6.95089 -0.21782 -5.86203e-21)
(4.33422 -2.07613 3.73737e-20)
(6.85171 -0.280915 0)
(8.75245 -0.541064 0)
(5.98858 0.104136 6.46768e-20)
(7.20606 -1.03618 0)
(4.16257 -2.05256 1.27598e-20)
(4.04313 3.25707 1.61337e-20)
(5.59453 0.0326518 0)
(7.14919 -0.061405 -5.66924e-21)
(8.08525 -1.47461 -2.95169e-20)
(0.533929 -0.476122 -2.08991e-20)
(5.93561 1.09635 0)
(-7.18529 3.22755 1.84473e-21)
(3.79485 -0.569808 4.1707e-21)
(5.135 -2.48953 2.18544e-20)
(4.47591 2.26884 0)
(5.24698 -1.83849 -1.08515e-20)
(-2.1684 1.00173 -1.11568e-23)
(6.2189 -0.235917 2.42265e-20)
(6.17668 -3.03885 7.13082e-21)
(6.46259 6.76449 1.21149e-20)
(8.73476 -0.624108 -1.19567e-20)
(5.46083 0.407339 0)
(4.95208 3.87529 4.38629e-22)
(7.02967 0.26189 -3.64722e-20)
(-2.95002 1.3495 1.393e-23)
(8.03688 -1.94441 -1.72583e-20)
(-0.182908 0.61353 0)
(4.95794 -1.76662 1.92366e-20)
(-7.65172 4.17219 2.4143e-21)
(6.26077 -0.0220711 -1.8908e-20)
(5.68525 -5.7549 0)
(4.63934 1.85296 1.71098e-20)
(5.95168 0.0769847 -1.11449e-20)
(7.3619 -1.02789 0)
(7.7225 -1.0691 2.09112e-20)
(4.74688 -2.24541 1.51698e-20)
(8.12673 -1.63033 1.64577e-20)
(4.6199 -1.59836 0)
(4.50162 -7.37823 0)
(3.78484 2.00505 1.78454e-20)
(11.9708 0.4215 1.32498e-20)
(4.88003 -7.80946 -1.65121e-20)
(6.51874 -0.438106 -1.70047e-20)
(5.88985 0.122161 2.36847e-20)
(9.76122 -1.86067 6.05212e-21)
(-4.51962 5.84944 -6.13096e-21)
(0.179263 -0.219172 -1.36138e-20)
(8.42918 0.157161 -2.5683e-20)
(5.65495 -0.230528 -9.80552e-21)
(6.48962 -2.56629 1.17296e-20)
(6.15102 -0.0225576 0)
(-12.0855 1.8604 0)
(1.9629 6.60895 -8.91455e-21)
(5.43517 -2.53847 1.62084e-20)
(6.00272 0.0217801 -4.26828e-21)
(6.50048 -0.557767 -1.87337e-20)
(6.88454 -0.757613 0)
(7.16032 -0.0814858 2.06756e-20)
(8.1544 -0.967579 -1.84248e-20)
(5.86965 0.0905824 -2.14813e-20)
(8.88325 0.848483 1.2897e-20)
(4.58098 -0.661454 -2.04735e-20)
(3.44656 -3.20863 1.44518e-22)
(12.3781 0.876528 -1.12917e-20)
(6.28749 -0.128092 2.65527e-20)
(9.65342 -4.03726 -5.92465e-21)
(7.38131 -3.40041 0)
(12.26 4.3225 0)
(6.55089 -0.0777847 1.06878e-20)
(-0.691746 2.51893 -2.6777e-21)
(8.89671 -6.06586 0)
(5.72882 4.07769 2.66899e-20)
(3.74514 -3.83375 0)
(6.41874 2.49222 1.35703e-20)
(6.05681 0.589034 -3.12946e-20)
(2.86845 -0.594747 0)
(5.65082 0.852218 -1.41001e-20)
(2.94746 5.81766 1.29474e-20)
(5.64613 0.391414 -1.41999e-21)
(5.83386 -0.193863 -3.30023e-20)
(5.43474 -1.71426 0)
(8.60961 -6.54205 -1.4464e-20)
(4.00698 6.90528 3.50781e-22)
(5.98425 0.0729543 5.11111e-21)
(5.20078 0.0793365 -1.7412e-20)
(2.81558 0.966325 1.56771e-20)
(5.94278 -0.733098 4.0232e-20)
(7.05764 -0.555528 -5.71565e-20)
(6.54724 -0.431733 0)
(9.20818 -0.359319 1.80177e-22)
(7.1331 -0.456634 -1.14524e-20)
(5.98423 0.017113 6.36845e-20)
(7.37137 -1.58063 0)
(5.41497 -0.847919 -1.03764e-20)
(4.63218 0.605604 0)
(7.58875 1.38254 -4.09805e-20)
(6.39288 -1.62497 -1.24709e-20)
(3.09689 -1.46347 1.3515e-20)
(7.64423 0.150217 -2.15755e-20)
(6.0011 0.386518 0)
(4.23549 4.04207 2.47953e-20)
(5.70943 -1.63627 -1.92754e-20)
(5.21526 0.0919745 1.64655e-20)
(7.24218 -0.459812 4.34769e-20)
(6.74009 -0.264561 2.83667e-20)
(-5.39241 5.56659 5.75751e-21)
(8.92465 -7.46852 -4.72981e-22)
(6.76313 -0.319969 0)
(3.78782 -1.39853 3.26934e-20)
(8.52279 2.03777 0)
(3.83002 5.9445 -7.21091e-22)
(6.56948 -0.18845 3.49673e-20)
(8.79767 -0.995392 -2.15247e-20)
(7.85926 -1.16696 1.77699e-20)
(1.29008 -0.763477 6.16891e-21)
(5.88255 0.093957 2.67601e-20)
(3.4618 -0.0989982 0)
(-1.20638 -0.458744 7.91169e-21)
(6.75184 -0.456406 -1.13606e-20)
(-0.525189 1.95545 4.96192e-21)
(8.18589 -2.4513 -1.11886e-20)
(7.60818 -0.0718722 0)
(5.71746 -1.29617 2.83742e-20)
(5.53487 0.235447 3.92357e-20)
(5.947 0.0955583 3.39208e-20)
(7.3206 -1.20918 0)
(5.68766 0.247456 -3.03077e-21)
(6.769 -0.673188 1.71198e-20)
(-1.70785 2.46265 -2.57442e-21)
(5.16267 -0.404108 4.32032e-21)
(6.74249 -0.411605 1.08359e-20)
(8.94094 -0.0865396 -2.34243e-21)
(6.71845 -0.324224 0)
(7.57295 -3.01501 -2.76654e-20)
(-7.34926 4.11428 -1.51446e-21)
(6.89221 1.02181 -2.042e-20)
(5.99985 0.0262558 2.30621e-20)
(4.73477 0.00815486 0)
(4.80556 5.34582 2.51133e-20)
(4.64611 -1.22355 0)
(8.47032 2.94603 7.72109e-21)
(6.2905 -0.0554527 0)
(7.56511 -1.94311 -2.04094e-22)
(4.55942 -0.704137 -8.36541e-21)
(4.54208 1.54881 3.90942e-20)
(-1.2306 2.25462 1.12833e-20)
(4.91561 -1.48162 0)
(6.63679 0.177437 -2.74051e-20)
(6.00487 0.414799 -1.8705e-20)
(1.01276 -0.510249 5.92055e-21)
(-4.38988 7.94114 -9.06057e-22)
(5.32113 -0.39024 -4.80699e-20)
(7.48696 -0.968223 -1.11295e-20)
(6.14586 0.448306 1.63148e-20)
(5.0197 -1.62462 0)
(4.50352 0.364203 1.73722e-20)
(7.56706 -4.64884 2.35826e-20)
(3.32507 -4.71246 1.37707e-20)
(-7.14581 3.65676 5.45919e-21)
(1.03275 -0.529674 1.05704e-20)
(8.45636 0.12566 0)
(0.9985 -0.5214 0)
(5.76861 2.64107 0)
(6.42008 -0.200195 0)
(13.7701 1.56162 -1.42542e-20)
(7.23901 1.25129 0)
(8.90627 -7.21452 0)
(5.28101 0.0345916 6.87881e-21)
(8.64701 0.129307 2.72777e-20)
(6.67464 -0.331283 -2.61921e-20)
(5.27428 0.592548 6.37565e-20)
(6.00599 0.0595855 -9.58934e-21)
(6.11428 3.90193 0)
(7.70343 -0.732268 0)
(5.85098 0.105083 2.28169e-20)
(6.00335 0.0489888 4.09823e-21)
(4.06778 1.81299 0)
(-0.958578 0.636597 -7.42795e-21)
(8.02743 -1.93876 1.93591e-20)
(-1.56983 -0.606815 0)
(6.85104 -0.2837 2.64031e-20)
(5.95474 0.0830915 -2.6927e-20)
(3.10446 1.68058 -2.00489e-20)
(3.77391 -1.37175 0)
(5.98213 0.427913 3.26291e-20)
(7.41465 0.519964 0)
(6.99381 -0.778197 0)
(6.43787 0.500422 -3.53304e-21)
(5.87006 0.134733 1.25201e-20)
(0.976831 -0.855751 8.21217e-21)
(6.58612 1.61377 9.8552e-21)
(4.65343 -1.33352 -1.49074e-20)
(6.31808 -0.1837 2.86814e-21)
(6.16315 0.474553 1.33519e-20)
(7.4315 -3.05672 7.12597e-20)
(8.3025 -1.48598 0)
(8.21126 -1.28515 -1.54661e-20)
(4.54586 -0.535326 0)
(3.14473 6.45874 -1.00161e-20)
(6.77862 -0.271233 0)
(4.7676 -0.211635 2.30611e-20)
(-1.58862 1.39018 1.49132e-20)
(7.62306 -0.877272 0)
(-0.471894 0.0643995 -5.92098e-22)
(7.78389 -0.793725 2.26275e-20)
(3.12478 6.7981 1.06871e-20)
(5.78369 -0.905558 4.73729e-20)
(4.33094 1.49126 -2.34748e-20)
(4.62846 -1.30649 -4.20506e-20)
(8.91589 2.82781 0)
(9.17939 -4.61599 -1.92347e-20)
(-5.88494 6.25242 1.15122e-20)
(5.97402 0.438676 0)
(5.63059 0.440972 1.55575e-21)
(7.97072 -0.0216249 4.07502e-21)
(7.28043 2.7224 0)
(6.00356 0.00884415 0)
(-3.94852 2.14443 0)
(-2.09989 0.725183 -5.47113e-22)
(10.4387 -2.11408 -7.16802e-21)
(11.4339 -0.911755 5.43808e-22)
(6.38641 2.36609 0)
(5.5345 -0.685642 3.14625e-20)
(-4.37909 -4.4977 -3.54695e-20)
(6.58225 1.49477 -2.473e-20)
(-1.27243 0.379563 3.22892e-20)
(5.79008 0.317413 0)
(9.57003 -6.92477 0)
(3.05938 -0.829222 -2.10571e-20)
(4.94423 -1.61659 -1.07836e-20)
(6.15099 -0.53354 0)
(6.24584 -2.86147 -1.79151e-20)
(2.9766 0.920555 1.57549e-20)
(3.19597 -6.26016 -6.32013e-21)
(3.35218 -1.55547 0)
(5.13234 0.129477 -1.68773e-20)
(8.33214 -4.35274 -2.248e-20)
(7.45061 0.499044 -2.18296e-20)
(6.36843 -1.70554 0)
(0.094919 0.0328336 2.06273e-20)
(8.21502 -0.947073 2.01218e-20)
(5.98342 0.15901 6.34202e-21)
(3.22624 0.00707285 -1.90955e-20)
(7.25445 1.80714 0)
(5.25286 0.589291 -1.70709e-20)
(8.60851 1.42922 1.06341e-20)
(1.06199 -0.516132 -2.16995e-21)
(5.99051 0.0805165 0)
(-5.36127 7.74552 9.29909e-22)
(2.38174 -0.723548 0)
(5.99556 0.0782938 -2.61205e-20)
(5.97944 0.0709833 9.24764e-21)
(5.78039 0.0237895 -4.38835e-21)
(-3.13471 1.02855 0)
(7.17791 0.160336 -1.10566e-20)
(3.80592 0.61721 4.45502e-20)
(8.22762 -1.78437 0)
(5.231 -0.011915 2.07276e-20)
(8.95606 0.393815 -1.48385e-20)
(6.52634 0.0651868 0)
(-7.26247 4.23765 -1.11901e-21)
(3.75182 -2.50186 2.40091e-20)
(8.77396 -0.133279 0)
(-0.344698 0.521076 -1.41966e-20)
(5.5986 0.392816 0)
(6.18573 -2.74883 1.64227e-20)
(-7.43729 3.08342 -2.38652e-21)
(9.84154 -3.00856 1.57412e-21)
(7.07556 0.408708 2.00259e-20)
(4.49784 0.31748 9.06608e-21)
(5.77271 -0.978405 -1.75207e-20)
(4.51894 -1.25585 1.06059e-20)
(6.19174 -2.66732 8.17869e-23)
(6.70032 -0.440945 1.02132e-20)
(7.22461 1.79983 -2.85607e-20)
(7.66763 -3.16552 0)
(5.99676 0.00933389 -2.04577e-20)
(-1.81159 -0.220242 7.19478e-21)
(4.62476 -0.555448 0)
(6.24214 -5.38336 8.12854e-21)
(2.3736 0.607147 0)
(4.35401 -1.38023 3.60621e-20)
(7.46516 -2.31125 0)
(4.4509 0.442584 4.55931e-20)
(6.75613 -0.178695 -2.00464e-20)
(-6.79564 3.00064 -4.2541e-21)
(-4.17093 1.81488 -9.63144e-21)
(7.40908 -0.0745391 -2.66727e-22)
(6.68268 -3.07857 1.85212e-20)
(6.0287 -1.6557 1.72451e-20)
(5.02515 -1.24297 0)
(1.0239 -0.223968 3.4984e-21)
(8.41056 -1.4152 -3.94334e-21)
(1.36547 -0.31883 3.87809e-21)
(5.79433 -6.91242 1.04846e-21)
(5.03344 -1.96262 0)
(6.6044 0.0152819 -2.54726e-22)
(-0.608065 0.699826 0)
(-8.07848 0.262355 5.31105e-22)
(3.08233 1.5309 2.56294e-20)
(6.05959 7.04045 0)
(6.98011 -1.38852 6.02929e-21)
(7.90517 -3.27689 0)
(7.29034 2.619 0)
(5.85758 -2.71802 -2.15429e-20)
(4.7161 0.487832 1.48742e-20)
(3.06413 -3.13598 0)
(5.54396 0.3028 -1.09612e-20)
(11.747 -0.606173 -9.50718e-21)
(-7.17035 4.7201 -5.34046e-21)
(7.25294 3.42383 0)
(6.34283 -0.0312127 0)
(-5.60395 6.24268 4.59157e-21)
(5.89442 -0.395939 0)
(8.32454 0.431637 0)
(-2.17233 4.36281 2.88554e-22)
(6.70265 -0.963798 -2.8955e-20)
(5.85475 -1.38629 1.45294e-20)
(8.82003 -0.830135 -1.68725e-21)
(1.09379 -0.258447 -7.66954e-21)
(5.97337 0.0502884 1.04477e-20)
(5.14405 -1.30224 0)
(6.28764 1.17059 -7.82845e-21)
(4.79996 -0.894083 0)
(6.70925 0.107564 0)
(5.99273 0.201404 0)
(6.42444 0.47366 -2.92143e-21)
(5.8263 -0.201977 1.50591e-20)
(7.65504 -0.933561 -7.21668e-21)
(5.25952 -1.31782 0)
(1.45399 -0.859165 5.38493e-21)
(5.72853 2.494 1.60631e-20)
(6.45351 -2.14084 1.76308e-21)
(5.6908 -0.27762 1.71482e-20)
(7.9186 -1.55087 -3.0844e-20)
(6.14157 0.0662442 -1.56697e-20)
(-1.5694 1.16455 0)
(7.92736 -0.927126 0)
(4.40567 1.73647 0)
(4.44553 -1.99551 -2.67339e-20)
(0.488247 -1.43239 2.33289e-21)
(5.52181 5.22505 0)
(6.33912 1.16536 0)
(5.87537 -1.57696 2.82013e-20)
(5.85491 -0.0484874 -4.57737e-21)
(5.63372 1.41388 2.57117e-20)
(8.69276 -3.13516 0)
(-2.88278 2.04189 1.78998e-21)
(6.73336 0.192118 1.74722e-20)
(4.83769 -1.52244 -2.53509e-20)
(6.43571 0.210741 -2.0369e-20)
(6.58055 1.50783 2.96502e-20)
(9.95677 -2.10905 -4.52738e-21)
(4.38755 -1.97326 4.59482e-20)
(6.49295 -3.3869 -1.78429e-20)
(6.83151 -1.43646 2.82695e-21)
(5.99615 0.00811246 -4.84411e-21)
(5.7918 -2.7248 -5.71337e-21)
(3.27876 -2.16822 -1.07338e-20)
(4.47587 4.51192 -1.50499e-20)
(6.05543 -2.78995 9.05593e-21)
(9.30695 0.139709 0)
(1.26555 1.10119 4.13942e-21)
(6.40851 -0.0228943 -3.5459e-20)
(7.93447 1.99758 -7.76361e-21)
(4.74403 -1.42085 -2.28756e-20)
(6.37532 -2.06675 -1.84741e-20)
(6.20808 -0.0210674 5.25711e-20)
(7.97433 -0.179882 -3.02124e-20)
(8.61402 -6.60534 -1.484e-20)
(8.42493 0.264219 1.36387e-20)
(4.11003 -0.871332 -4.769e-20)
(6.52419 -0.0196343 -3.23521e-20)
(4.09197 -1.06089 0)
(-4.52989 1.44831 5.04161e-21)
(6.53849 0.0452087 3.92065e-20)
(4.48714 1.30939 -8.27177e-21)
(-0.912528 -0.379203 0)
(7.00111 -2.99516 0)
(5.9662 1.03208 2.64111e-20)
(3.77667 -0.875217 2.88988e-20)
(6.73963 -1.42106 4.39611e-21)
(7.57794 -1.9732 -1.11845e-20)
(7.1358 -0.526285 3.13943e-20)
(8.64869 1.95119 0)
(5.96029 1.11144 1.53256e-20)
(4.35703 -3.30513 1.35559e-22)
(6.80023 2.47455 -2.36173e-20)
(6.31744 -0.733342 -2.34478e-20)
(0.936995 -0.0886628 1.26081e-20)
(7.84393 -1.65626 3.04056e-20)
(8.18831 -1.36266 -6.48098e-21)
(6.19032 2.78467 0)
(6.13979 -1.42064 9.92906e-21)
(5.79266 0.0131759 3.91681e-21)
(-4.30163 0.240649 2.09395e-20)
(3.58429 -1.76341 4.15265e-20)
(6.25919 -0.761715 3.525e-20)
(2.73242 2.95323 -1.3535e-20)
(-6.95294 4.1397 4.59151e-21)
(7.02059 -0.334025 1.46967e-20)
(6.44945 0.0711549 2.9086e-20)
(-4.45274 5.69061 8.16153e-22)
(6.59549 2.40394 4.29484e-20)
(0.312451 0.0982192 1.54254e-20)
(4.43994 -2.14438 -1.48394e-20)
(-14.164 -0.297877 0)
(5.49009 -1.44621 -1.45481e-20)
(-2.92827 4.22876 3.06268e-22)
(4.5306 -0.776304 4.48026e-20)
(9.46831 -1.78504 0)
(4.28339 -0.374351 1.91456e-20)
(4.24288 -1.76031 1.0231e-20)
(5.99061 0.0409135 -4.50927e-20)
(-4.30598 3.72717 6.98949e-21)
(3.16108 -3.57473 6.4639e-21)
(6.70256 -0.329877 1.80613e-20)
(6.5961 0.183776 4.18502e-20)
(6.28543 -2.78692 -2.32146e-20)
(7.31459 -1.0584 9.97786e-21)
(1.98403 -1.10641 2.93074e-21)
(6.38874 -0.0129142 3.32902e-20)
(6.28847 -0.163543 -1.23698e-20)
(6.27026 0.272548 -5.32384e-23)
(7.2155 0.0240838 -2.88363e-20)
(4.13597 -1.82644 -1.97039e-20)
(6.86548 -1.42824 0)
(-4.62669 0.993888 -1.14292e-21)
(6.44206 0.0687701 3.02716e-21)
(3.63266 1.58419 -2.64781e-20)
(7.35136 0.0843099 1.85384e-20)
(7.06024 -0.700092 -1.76516e-20)
(6.00014 0.0306656 -4.03723e-20)
(6.15548 0.790906 9.64238e-21)
(-1.0759 0.628163 7.63491e-21)
(8.36815 0.383216 0)
(4.45389 5.47854 -1.30396e-20)
(8.98574 -0.822256 2.20616e-20)
(5.05603 -1.91727 0)
(6.26857 0.224139 2.37936e-20)
(9.38416 -0.0952249 2.84598e-20)
(7.86611 0.290303 3.34361e-24)
(10.5268 -2.22105 -3.33389e-21)
(5.3185 0.412426 0)
(5.42354 0.767815 3.38748e-20)
(3.05783 0.860225 1.72327e-20)
(5.85137 -2.6841 1.88512e-20)
(6.28992 -0.476867 0)
(4.71241 0.448907 -4.29918e-20)
(5.62653 -4.09636 -2.24444e-20)
(6.60559 3.53764 2.42582e-20)
(4.14651 -0.921146 4.65753e-20)
(9.19685 -0.149703 1.00755e-20)
(-4.30113 2.17009 -7.62187e-21)
(6.02351 -0.323199 -2.42499e-20)
(8.29363 -1.04806 2.13603e-20)
(5.51775 0.243848 -2.23692e-20)
(7.42317 -0.206449 0)
(5.99813 0.0178796 -1.81921e-20)
(9.07842 0.984384 6.21581e-20)
(-1.03961 -0.372798 0)
(8.65184 -2.06337 0)
(-0.879827 -0.964437 0)
(1.09204 -0.501838 0)
(6.05917 0.742353 0)
(3.96841 -0.859277 0)
(6.32784 -2.68863 -5.65495e-23)
(10.9164 -1.15583 6.57384e-21)
(7.37103 0.9663 0)
(5.33461 0.67816 4.94655e-20)
(5.5378 -5.86555 4.06672e-20)
(6.12686 0.478336 7.28735e-23)
(-2.5114 4.40416 6.74209e-22)
(3.93578 -0.274861 2.07055e-23)
(-1.3835 1.30379 -6.58324e-21)
(5.98173 0.0024737 -1.63572e-20)
(7.72534 0.00382628 -2.49331e-21)
(6.00605 0.704586 -1.8412e-20)
(5.69758 0.359455 -3.29947e-20)
(5.61665 2.26626 -2.62312e-20)
(8.76483 3.04016 0)
(-4.94327 5.75001 4.30196e-21)
(4.40735 -1.43111 -3.95069e-20)
(6.01953 0.0205178 -5.41407e-20)
(8.45394 -1.29438 -2.69741e-20)
(7.00833 -0.0387194 4.3378e-21)
(10.5432 0.853305 7.77591e-21)
(6.73509 -0.632279 -3.61998e-21)
(6.99049 -1.36156 -2.13219e-20)
(6.01136 0.370682 1.93876e-20)
(6.26424 4.44725 0)
(4.45919 -0.965816 1.04068e-20)
(5.34939 -0.0272503 -6.60078e-21)
(6.77622 1.25486 0)
(4.5332 1.86954 0)
(6.70664 -2.92327 -8.35452e-23)
(-5.32919 1.81693 -7.44999e-21)
(6.31774 -2.78041 2.5272e-20)
(7.97787 0.694509 0)
(5.91155 -0.228492 -3.14822e-20)
(5.53144 0.405357 -6.14209e-21)
(-5.95218 1.25546 -7.16173e-22)
(8.68679 0.661376 1.65524e-20)
(-2.17959 1.91088 0)
(-4.88885 5.75191 5.48694e-21)
(8.68836 0.155 0)
(5.97674 -1.53308 -1.17509e-20)
(5.73732 -1.04264 -2.10591e-20)
(6.00407 0.015874 -1.20939e-24)
(6.65406 1.684 -5.6813e-20)
(7.22761 3.04821 -3.76437e-22)
(5.85153 -1.62641 3.51865e-20)
(-1.55712 2.4324 0)
(8.1385 -4.41865 1.09598e-20)
(4.84837 -5.37683 0)
(7.52164 0.95511 7.38825e-21)
(-7.25174 1.26379 -8.08482e-22)
(9.16676 -2.0484 -1.32438e-20)
(5.20723 5.17059 1.42743e-20)
(-1.45214 1.42707 -4.16723e-22)
(5.33317 -2.46555 -2.17724e-20)
(4.52318 -1.43592 -2.33255e-20)
(7.96785 -4.55342 -7.93477e-21)
(8.18191 -4.63627 -8.8332e-21)
(4.18128 -1.84655 1.613e-20)
(4.68509 -1.50417 2.56609e-20)
(-0.404237 -0.673348 -5.06347e-21)
(8.75838 -3.70938 5.18724e-21)
(6.27049 -1.80763 1.83911e-20)
(-1.48511 1.91255 -1.17987e-20)
(7.62769 -0.305068 5.4708e-21)
(4.88336 -5.26039 -3.57213e-20)
(6.69877 1.10624 -1.45648e-20)
(7.77514 -0.864407 0)
(1.04764 -0.522135 2.0006e-20)
(6.25941 -0.0290058 -3.68309e-20)
(5.97052 0.212058 0)
(7.44575 0.88844 0)
(5.96097 -7.33421 1.53196e-20)
(8.80595 -1.13069 1.39873e-20)
(6.99501 0.591358 -4.26438e-20)
(6.67065 -0.933517 3.79849e-20)
(5.63364 2.21766 2.29801e-20)
(5.02434 -0.0863229 3.67727e-20)
(-6.46941 1.35112 2.6386e-22)
(5.35413 1.38666 0)
(4.80066 -1.59217 2.47227e-20)
(-2.57128 3.23981 -1.67172e-21)
(-2.18446 1.52968 3.2728e-22)
(5.91126 -2.16857 5.90979e-21)
(7.79906 -3.39031 -6.6638e-21)
(5.86996 -0.0434957 1.8923e-20)
(4.83249 2.84448 -8.8053e-21)
(7.08058 -1.19339 -2.89391e-20)
(-6.33568 1.30249 8.42203e-22)
(6.9609 0.570725 3.21498e-20)
(5.8987 0.0791473 1.33635e-20)
(4.06085 -1.03676 -1.91133e-20)
(5.90243 -0.328774 1.91836e-20)
(9.26336 -6.77368 0)
(6.92029 1.00357 3.55025e-20)
(5.97333 0.0625992 3.03764e-21)
(4.98586 -1.15083 -8.0745e-21)
(5.1546 3.8935 -1.47281e-20)
(6.16906 -1.78867 1.33137e-20)
(6.07292 0.0223664 5.86348e-21)
(4.52186 -0.0206287 -3.04731e-20)
(6.8818 1.1557 0)
(6.01962 5.46041 2.57097e-20)
(6.51352 0.234132 2.75503e-20)
(6.51454 -0.449282 0)
(4.64753 -0.274776 1.72524e-20)
(8.6527 0.656463 0)
(4.53853 3.78818 4.90815e-20)
(7.6219 -0.102723 0)
(4.4638 -1.12129 0)
(7.69917 -0.281975 1.11065e-20)
(6.90684 0.44618 2.39386e-20)
(8.32565 0.699433 2.14615e-20)
(5.79747 0.273683 -1.57935e-20)
(4.58476 2.2692 -1.25844e-20)
(5.97791 0.144237 -8.02787e-21)
(6.11151 0.770309 0)
(-0.504539 3.82167 5.98755e-22)
(7.18824 0.401243 -2.33455e-20)
(5.86558 -1.51916 2.52111e-20)
(7.77745 -0.870002 0)
(7.98482 1.95228 -9.96648e-21)
(5.80917 3.84527 -3.00274e-21)
(7.8482 -0.27819 2.30812e-20)
(5.36036 -0.65348 0)
(-1.1501 3.80393 -4.07437e-21)
(6.06756 0.377657 0)
(7.26999 -0.943085 1.46391e-20)
(0.541194 -0.431468 0)
(7.13408 2.9587 0)
(6.57383 -3.69548 0)
(7.24917 -2.33601 0)
(-4.71565 4.11502 1.03086e-21)
(-2.14767 0.512846 1.7485e-22)
(5.79559 -0.193548 -2.25424e-20)
(-6.68843 2.1591 3.1799e-21)
(4.43424 -1.9109 0)
(-3.77185 0.90548 2.12797e-21)
(0.224906 -0.39186 2.07289e-20)
(5.49712 -2.55234 0)
(5.04579 -1.80124 -2.72462e-20)
(3.59578 -6.09169 2.24175e-21)
(6.66264 1.05136 3.88105e-20)
(9.99662 -2.05655 7.53441e-21)
(5.66803 0.318577 0)
(7.86519 -1.6483 0)
(9.54411 1.27338 -4.97564e-21)
(3.01566 -1.80274 -2.9803e-21)
(10.6154 -4.48245 1.32294e-20)
(5.27112 -7.29536 9.99178e-22)
(5.99761 0.00353578 1.34897e-21)
(5.57707 -1.49746 1.8824e-22)
(6.01824 0.360905 2.77624e-20)
(4.90323 5.99858 -1.14523e-20)
(6.37383 -1.56664 0)
(0.35965 -0.400033 0)
(7.37763 -0.994509 0)
(3.0148 -0.061575 0)
(5.70336 -1.08615 1.25442e-20)
(8.06937 -0.0758087 0)
(-3.61942 4.72434 -1.08397e-20)
(9.02544 -2.0766 8.54727e-23)
(4.60979 -1.55011 -3.83624e-20)
(5.83056 -5.46114 -1.88686e-20)
(-3.2324 0.90377 5.1912e-22)
(-2.43269 3.48126 5.89131e-21)
(6.50829 0.0973046 4.63136e-21)
(-5.80864 1.40645 6.02168e-22)
(4.48757 6.58738 -1.37372e-20)
(7.98469 -0.166896 0)
(7.19149 -0.0846857 0)
(5.07895 -8.05704 0)
(7.09354 -0.772768 9.45143e-21)
(8.70229 -3.63778 0)
(5.40508 1.35127 0)
(6.00535 0.00589404 0)
(5.88671 -1.37148 1.37879e-20)
(6.13904 0.451563 -3.25626e-20)
(3.03571 -1.19484 0)
(6.59529 -2.48277 2.19753e-20)
(5.92198 0.381437 -2.2354e-20)
(6.81892 2.36697 4.98171e-20)
(5.56276 -2.52445 1.77718e-20)
(5.57032 1.54547 5.58423e-23)
(4.10628 -2.95453 1.83502e-21)
(5.11917 2.1655 -1.75385e-20)
(5.57146 -1.96896 1.94081e-20)
(6.87856 0.482235 -3.2682e-20)
(9.77566 -4.23761 3.43236e-20)
(5.6179 0.08459 -2.17388e-20)
(6.32041 -0.01171 0)
(3.66847 1.56965 1.99394e-20)
(5.94106 0.0901929 2.48542e-20)
(4.52479 -3.83884 -2.54156e-20)
(6.69724 -0.635116 -1.05159e-20)
(3.85045 -0.928878 -3.14345e-20)
(6.91621 0.395406 5.59753e-21)
(8.59302 1.47083 -1.53837e-20)
(5.9908 0.132373 0)
(7.246 -2.39693 1.2179e-20)
(7.88121 1.34176 9.23568e-21)
(5.02317 -1.88641 -3.35296e-20)
(-4.09617 2.30578 -3.68401e-20)
(6.08384 0.0308336 1.26196e-20)
(6.96809 -1.25493 -2.96721e-21)
(8.87523 -0.161374 -7.54296e-21)
(7.73907 -1.05103 0)
(6.32718 -4.47002 0)
(5.1784 -2.45045 2.12666e-20)
(-4.16115 3.26656 -7.54969e-21)
(5.63264 1.03003 1.74692e-21)
(5.94217 0.088431 4.92113e-20)
(8.04171 -4.50235 -3.25651e-20)
(4.69464 0.35509 0)
(5.57203 0.103177 0)
(5.35142 -1.24131 -1.15168e-22)
(7.60857 -0.0330975 1.71056e-20)
(5.67601 1.46208 3.80583e-20)
(6.68773 -0.616402 0)
(6.08 -0.229129 0)
(7.18827 -1.49471 3.0645e-20)
(6.22172 -0.452785 1.92663e-20)
(2.81335 -2.29944 -3.94298e-21)
(5.69872 -0.0651975 0)
(6.73415 3.37643 -2.70083e-21)
(7.37578 -2.25221 5.48836e-21)
(-3.1698 4.38385 8.89284e-22)
(6.0845 -0.0879505 -2.66853e-20)
(10.2341 -0.760934 0)
(9.04824 -1.16184 -1.12951e-20)
(5.99497 -1.08893 4.34971e-21)
(1.18698 -2.50371 0)
(3.4967 -0.152133 5.70403e-20)
(5.821 0.192983 -1.60222e-20)
(2.48674 0.31181 7.48781e-23)
(5.53408 -0.819018 1.20921e-20)
(4.91412 4.91254 -8.13118e-21)
(6.45198 0.0569929 0)
(3.83202 -1.4624 -1.05013e-22)
(8.30957 -5.80887 2.55014e-20)
(5.28846 -1.4743 7.89734e-21)
(6.02869 0.719054 2.18027e-20)
(-0.612169 1.56532 -2.22536e-20)
(5.99936 0.0292572 -5.996e-20)
(3.30982 2.71848 7.57996e-21)
(4.92223 3.23473 -1.7759e-20)
(5.78321 -1.2831 0)
(6.34316 -0.0733814 3.59354e-20)
(4.11935 -1.8982 1.30336e-20)
(6.64608 -0.164574 -3.72077e-20)
(5.98218 0.0567478 -2.24072e-20)
(7.00685 -1.00803 -1.41979e-20)
(5.41011 -0.649579 4.50612e-20)
(7.45627 -0.231879 -6.36908e-21)
(5.53288 0.136989 1.25264e-20)
(6.74294 -5.4828 2.1992e-20)
(8.8096 -0.740862 1.95024e-20)
(6.66753 2.59144 3.74877e-20)
(6.92004 -1.72133 -3.43292e-21)
(6.03215 -0.0601493 0)
(1.63504 -5.40677 0)
(10.9115 3.5392 0)
(4.58319 -1.44702 2.94043e-20)
(6.06559 0.0447796 -3.57707e-20)
(5.50092 0.428064 0)
(5.09451 -1.18279 -2.43664e-20)
(5.48385 0.368973 0)
(5.71414 -0.974066 -2.09644e-20)
(6.03625 -1.62592 2.63385e-20)
(6.27493 -1.46728 -2.03967e-20)
(6.55174 0.0547013 0)
(5.9126 0.0543774 0)
(5.81796 -0.369678 -1.71323e-20)
(7.30297 0.82592 -1.20332e-21)
(7.68538 -0.168642 -1.7073e-20)
(6.04389 4.05681 -3.13782e-22)
(6.17994 -0.614975 0)
(5.93676 -2.10787 -9.91284e-21)
(-1.36044 -0.489901 0)
(3.07232 1.63875 -1.76121e-20)
(7.30055 3.03317 0)
(7.02344 -1.23993 5.86138e-21)
(4.12146 -0.810575 1.23808e-20)
(5.00781 -0.647012 1.37191e-20)
(5.4262 -0.300561 1.61809e-20)
(9.35764 -2.28134 1.99515e-20)
(6.16665 -0.542331 4.80243e-20)
(6.06788 0.756938 -7.91525e-23)
(9.93936 1.20054 -9.28524e-21)
(6.52727 -1.17503 -1.10347e-20)
(-0.851196 0.0598135 -9.2156e-21)
(7.35142 1.28625 0)
(5.99286 0.0644391 -1.36374e-24)
(5.19541 -1.35935 0)
(4.38243 3.03563 1.82861e-20)
(6.01414 -2.08403 -5.28584e-21)
(5.44653 -0.576097 -1.4767e-20)
(5.03785 0.690855 3.3648e-21)
(7.55395 0.119254 2.1696e-20)
(5.35655 -0.311347 3.08139e-20)
(7.00879 -0.262303 -1.91725e-20)