/*--------------------------------*- C++ -*----------------------------------*\
| =========                 |                                                 |
| \\      /  F ield         | OpenFOAM: The Open Source CFD Toolbox           |
|  \\    /   O peration     | Version:  2306                                  |
|   \\  /    A nd           | Website:  www.openfoam.com                      |
|    \\/     M anipulation  |                                                 |
\*---------------------------------------------------------------------------*/
FoamFile
{
    version     2.0;
    format      ascii;
    arch        "LSB;label=32;scalar=64";
    class       volScalarField;
    location    "1.2";
    object      p;
}
// * * * * * * * * * * * * * * * * * * * * * * * * * * * * * * * * * * * * * //

dimensions      [0 2 -2 0 0 0 0];

internalField   nonuniform List<scalar> 
13486
(
37.0026
28.4261
1.51701
-3.30116
13.3532
-6.21736
6.33834
21.8023
25.4363
11.8884
-171.838
5.20681
39.2334
-6.53657
9.73448
12.5052
-115.4
-0.398315
7.22325
33.0209
-3.53824
38.8541
27.7815
-26.9506
9.97958
-25.0314
-140.534
-14.8969
0.00832772
-12.5618
-3.04769
6.7001
-30.1394
-9.21753
21.7921
-0.0523325
-0.225077
31.0602
-2.1443
24.9217
5.49398
40.8983
0.156877
10.5083
10.2228
4.91746
-170.07
0.0036787
-0.309204
-16.5747
19.77
-2.49526
2.72372
31.3717
-0.990315
13.8908
0.460848
-2.52498
-27.8794
-0.0205546
-126.653
-0.000306757
-81.1188
-3.40105
-11.4711
-0.232873
-3.82034
36.6342
25.348
-0.849911
-3.6479
-1.81562
25.1317
-86.031
-0.110004
0.51232
-0.0517569
9.55834
-206.664
-4.58769
-0.0169278
28.3502
-89.5036
1.59545
37.1584
5.17584
-10.4065
18.6957
23.4761
13.9461
4.31563
19.1097
35.6177
30.9822
26.7275
0.00117928
-135.534
-3.81395
24.8757
-131.762
-0.0302661
-5.40845
-3.87724
-2.45333
12.4055
-138.411
23.5698
-2.34809
-200.421
18.2544
25.7228
5.79249
31.3043
0.401256
43.5088
25.9681
10.419
-8.79645
25.3053
-0.307701
-0.345145
-126.612
27.8243
-2.32481
24.8875
-2.49029
17.9808
3.59483
-7.71299
-10.2253
-2.45396
-171.631
-67.0619
-73.9434
20.9906
18.495
39.0296
18.6326
-0.241
22.2073
-24.5371
2.83052
6.43534
-4.52655
0.632431
-87.9733
-6.50432
33.611
-17.6087
0.0282435
11.8162
9.53573
0.104367
29.3687
4.6695
1.35144
15.2982
1.5413
28.2185
0.169426
-13.655
28.1818
2.99632
40.5655
-2.56249
-11.2501
-2.55098
49.9589
-7.87921
-72.0049
-64.2137
4.80936
15.3932
13.3372
0.0441443
-14.0391
-10.4274
-29.2859
23.7263
6.47062
23.7842
0.499593
10.4024
-36.4228
1.12717
-14.8479
0.00695286
-11.684
6.57554
27.6931
-0.358291
1.19735
-3.0132
31.376
-3.38923
-172.351
-10.2992
-13.7243
34.224
-9.39091
-3.17706
3.12045
31.0444
12.969
-0.0123216
-3.53614
-0.874172
26.7028
-2.88532
1.36901
-13.0383
-18.0009
32.5369
23.5349
-6.19785
-7.00064
-13.4521
14.3484
33.8663
-37.0523
-122.439
-17.9278
22.6556
-14.0172
0.700492
36.5898
-10.5051
-5.7189
-5.96249
-9.90015
23.4547
-9.55755
-25.3988
41.7724
-4.21096
35.3191
-10.0165
1.0957
35.6915
10.7267
-29.2827
14.7563
0.604528
33.8403
-2.05475
27.4246
11.1779
-18.2294
-86.8322
12.1672
-8.11867
43.8418
24.7262
-2.5045
-4.95288
-18.913
6.52229
-6.76211
0.303467
-29.1371
25.9578
-1.79861
9.58455
-16.9629
14.8848
-37.1766
-6.03692
-3.44181
23.5844
-1.51914
23.6871
22.9885
-13.856
3.23572
36.7023
-17.8637
-4.89988
-4.05519
-2.65575
-4.82991
-4.61357
20.5856
23.9994
-49.901
-110.589
-164.481
-26.1628
-7.99337
0.885778
23.5771
-4.00925
-0.612531
27.3595
21.1905
-9.60664
-10.8572
-13.7195
2.90887
24.5618
5.90541
2.09533
-0.800242
-7.08289
7.10747
-0.401994
11.7516
0.189881
11.2668
-7.4822
-0.307417
-60.5061
-3.40407
-5.7116
5.86218
-132.572
18.6773
-0.510718
23.5214
26.7296
-6.61185
-0.223921
-0.829916
23.5377
31.1386
40.9635
4.76919
16.1039
20.1868
1.13754
15.116
19.1685
18.4307
3.61763
33.1204
6.09483
25.3077
45.3702
10.093
13.4796
-1.68279
-6.32603
30.6606
14.7224
10.6973
-35.9817
0.0347086
16.6007
43.7064
-37.3205
-0.700252
16.1374
1.64893
3.03658
-123.566
24.3631
-0.179542
-83.9305
17.7903
-5.88599
-17.4544
8.2897
3.79778
26.5461
23.1279
-13.2032
-0.0687663
-10.3587
-136.79
33.3741
18.0759
0.356841
16.8822
-0.0815284
-11.2202
-4.59495
20.0192
23.2248
-1.08689
-127.332
-46.0119
23.0156
17.9057
38.8375
24.729
-140.587
-5.05291
-0.571198
13.0104
-87.114
-2.09505
31.9606
-14.6278
8.24336
35.6701
35.5752
-0.149299
-3.69985
-9.73637
-90.2383
-26.6946
-86.9879
2.84749
21.7468
-2.58942
6.27621
-9.46829
30.6809
-28.5617
17.6483
26.8947
12.1379
-20.0524
-16.4985
24.624
23.0565
28.8383
-29.4913
15.3468
-57.5377
11.086
23.5416
2.9344
43.7703
14.2115
-11.9649
-11.1841
2.93322
23.7928
-146.124
-1.31445
38.4583
22.0451
7.99979
0.0665469
12.7436
-19.6399
38.5064
-0.805167
13.7461
35.9663
-123.587
-14.0703
-79.134
-16.4017
-7.97146
29.4022
27.8757
38.5765
-45.5178
-0.385887
-41.8647
13.8707
23.9594
-16.5023
-21.9561
22.7475
-6.25677
-14.0432
-50.2523
-78.7053
-4.08151
31.0614
0.0019883
-0.842195
-3.69971
22.4134
-0.00645411
47.3064
36.1811
25.1133
21.0218
0.0332507
0.0186305
45.1448
-4.86164
-0.152163
-12.4109
25.4655
-164.748
2.41176
15.5403
-0.170055
-13.226
27.2983
-33.8781
-96.4474
14.4239
-2.15393
49.4576
14.6504
20.1423
26.0633
-14.8244
2.02025
38.8723
13.5286
31.3797
6.38637
4.77689
-3.61615
-4.42963
0.28337
-158.68
24.1293
25.667
-8.49697
0.04273
-6.90257
36.0211
29.5967
-5.01038
26.0861
18.3258
-12.7828
15.353
20.0582
-66.4878
38.0674
-0.0544594
-0.788435
40.4111
18.2832
0.000855842
16.3802
-4.17417
-4.61347
9.47291
17.2471
28.0774
35.8217
-72.3559
12.4787
-74.7793
0.0276825
35.098
4.59653
-30.1067
-4.31976
2.46228
0.440572
20.6519
-10.8074
-21.3292
26.1131
32.8324
-4.34962
26.0765
-89.7366
-15.1211
-30.3941
7.51853
-52.1859
26.8966
1.77601
-117.85
21.5112
29.4958
-29.0488
-63.9029
20.2887
34.8362
5.64518
37.2297
1.8856
14.7452
3.2099
26.7347
0.474134
33.9634
-128.277
4.11014
24.8687
-7.06116
-16.1875
23.5229
-115.943
3.24347
28.2926
38.9328
-5.64837
-2.33397
4.72083
1.5768
21.9178
15.5676
10.2049
-127.939
-1.8027
37.0537
1.76906
-0.516916
-23.4751
39.0655
-8.09166
0.54597
22.3307
20.1816
-4.3016
-13.5016
22.5405
0.994197
-23.255
7.03739
-25.7002
37.7741
25.3986
17.007
17.848
-1.85341
-26.3493
42.1764
5.36743
42.3136
-5.29853
23.7544
-0.00486678
-89.7422
17.069
12.1137
44.1923
-15.132
17.3083
15.6827
-38.8285
11.749
-0.355625
-11.7288
24.3579
-62.4698
-15.6002
-20.3248
-5.10263
-7.67683
25.9435
-0.00248097
41.4379
24.7426
0.0803628
-13.0149
-12.6405
5.7806
-118.962
-7.70011
-149.195
35.1332
-0.0253973
0.535088
-50.5283
39.0677
0.0243918
2.54192
40.5589
20.3413
-20.4266
-4.46809
17.3896
-0.223318
24.9488
0.528105
-6.75404
6.97791
22.3002
5.05598
19.9836
41.0985
0.577604
-8.42217
23.5233
2.89403
-6.97596
17.4092
16.4088
8.80923
-24.7986
1.7084
-1.1544
1.30576
35.0025
5.17607
0.783185
1.61506
3.83065
-3.74687
24.1973
0.33993
24.1694
23.3462
33.5334
-0.0959581
-21.481
41.9331
0.104304
-5.45788
25.4291
-20.727
27.0192
0.568958
22.3063
-5.23027
-81.5206
-21.7024
0.0251156
-102.424
11.2664
43.1112
-7.64728
-66.4194
-11.7303
24.6605
-2.38629
8.78362
-67.6193
42.3077
-23.5492
12.5865
-17.1809
12.3305
23.5318
7.36109
-45.1481
-3.07107
40.0082
23.1084
12.017
22.2564
3.65219
19.5804
20.3677
12.8015
-72.1918
-4.80466
30.2169
6.26047
-2.76861
21.8877
-4.78208
-7.61697
-1.6524
26.1524
25.0592
-6.14701
1.14375
-17.406
-3.16554
1.50769
-7.71453
3.68359
22.2775
-3.01465
-25.2815
29.4494
-1.26973
-8.55665
-3.4389
-14.0395
-6.07248
-20.2375
-1.38808
-26.2924
24.984
39.2131
-0.0269295
-8.60336
40.6294
37.9998
-5.35678
-11.0631
26.292
-120.304
0.719562
-1.33419
-1.49826
14.4155
-96.3379
8.26552
14.7137
-12.8296
-5.29186
-29.4845
-5.54721
21.6752
8.78854
15.7314
-6.95417
19.868
37.1357
-281.454
-22.9849
28.5822
11.0738
15.4467
-2.05471
-12.2609
-7.14827
-5.19016
24.492
42.4562
26.8487
-3.55014
-4.79987
23.5609
36.0284
-12.5366
27.0334
23.8743
37.3037
6.62825
-1.26545
1.30914
-6.15273
36.8279
1.15928
-1.3673
16.7451
-4.85056
5.51109
-4.52573
-26.4209
22.5571
20.1297
15.5244
9.88567
-193.179
-8.56706
-7.20556
14.3461
-27.0547
-16.6106
0.55276
-32.2877
-114.972
10.9193
-12.2923
-84.9483
-126.394
-8.06839
19.4806
-187.63
-13.0271
27.0739
-4.36891
39.0759
-5.90042
-88.3593
30.1668
35.2528
0.100306
-0.893619
8.06539
24.4609
15.3413
-49.5941
-4.09408
-0.414039
-5.17476
22.1787
0.544444
12.567
-0.982007
25.4508
-150.125
0.49891
-0.169391
30.2673
-20.7491
-166.379
-23.5303
38.5919
-3.53893
-8.7987
-220.591
23.8268
-9.05669
-0.767924
4.6255
11.8086
-4.8395
17.518
-11.4403
19.006
22.5456
29.0481
9.0104
-1.10403
-8.37053
17.0794
-10.8391
30.5691
15.4603
-4.6943
-2.50056
-5.4222
-3.97202
-0.370642
27.1937
7.45868
4.25281
23.2427
-1.05946
19.9617
43.7821
-4.4271
-34.421
14.9511
-19.0513
-1.56473
-5.62831
-3.62215
24.0098
0.729197
0.350525
0.473981
0.566417
32.6053
-17.9134
0.00432865
23.4061
-15.3755
34.2374
27.2575
33.2386
4.99351
14.4536
6.86226
1.35452
19.2918
24.1062
-4.58952
-7.11374
-128.919
-11.257
-44.5828
24.206
-63.5166
-31.8262
-32.1978
-4.64682
-0.321212
23.7049
-0.127202
4.2253
-73.0843
23.2302
43.3542
-9.96984
-103.171
11.9312
-1.11649
23.8077
-0.0127223
-2.13365
29.9472
-2.66168
41.2221
16.525
23.2958
-11.8451
31.9239
0.873994
27.5284
-0.0084898
-29.9591
-10.4224
-16.8773
16.0226
-5.84086
-0.873938
38.8059
23.3913
25.598
35.1967
26.3866
30.147
-6.95742
26.2174
23.216
24.5419
-6.4612
-10.8037
-17.2251
-22.9451
5.83098
28.5165
-86.4419
40.3849
-25.3522
0.731007
41.9846
35.2141
-7.18897
-20.3365
24.7799
10.9633
2.29371
23.5439
-78.3966
-12.3777
23.2116
34.444
-2.08978
28.0251
31.5712
0.0722357
-13.2047
31.4918
10.1768
-0.386905
-105.54
1.56116
-25.7537
21.9995
16.1473
-0.347491
-2.03523
-14.0911
6.0398
-1.41394
4.90957
35.5187
-2.10574
46.8245
24.3937
7.08922
27.3762
-21.6742
-66.2414
-7.9362
23.8531
-2.11389
-76.6724
-3.16627
9.88239
12.5652
-1.59782
19.049
-101.92
13.2471
-2.59124
-1.00826
19.9055
6.91186
32.3502
24.3688
24.9467
23.6899
-7.16694
-24.5505
-20.7641
1.83431
-6.23248
-11.5137
19.526
-4.05531
-0.775514
-0.236467
1.33415
-66.1977
17.3892
9.56248
0.0287917
-14.6799
11.4718
-17.7479
-21.1026
1.87919
-6.37766
27.9592
16.4647
32.571
-79.2649
20.7164
0.531395
34.3671
-4.28235
10.928
-0.862357
-5.78339
40.1461
40.3656
19.8126
14.8938
15.2579
23.1811
40.715
17.5441
-27.8718
-56.5851
3.75913
-25.1477
-185.96
23.2959
23.5715
-3.8832
8.4778
21.7189
22.4033
44.3031
-75.2464
17.8113
-93.6884
-25.386
34.8349
-4.85937
20.7666
-4.59111
2.96941
9.03239
45.9447
-11.1446
-17.1267
10.17
2.26533
-47.7676
-82.4782
-0.406774
26.4414
-1.3092
14.8519
37.9043
34.4636
-3.78122
-45.6815
-7.17577
1.78856
29.826
23.02
34.7796
14.1907
-218.654
36.5256
23.2692
-44.3755
19.6047
24.192
31.6219
-98.4089
-3.98616
0.0448045
19.3663
40.1047
12.5116
2.65092
-25.935
44.4029
-274.623
-24.2111
41.6305
20.0442
-0.96123
19.6404
-3.70341
14.232
-9.84898
-263.233
-1.51356
-9.75863
-1.37056
-8.15968
-121.28
-102.34
-135.561
6.17887
-87.3216
-8.85831
17.9222
21.567
14.8881
-114.443
6.10247
1.25692
-7.81474
46.467
16.9943
-18.9698
20.3196
-10.0118
-11.3756
21.3851
21.3284
23.388
46.9723
0.0571978
-4.92862
-26.8478
1.10415
17.4189
25.329
-12.016
36.9545
15.212
25.1854
-3.81756
-4.13279
0.796869
26.0651
23.6516
27.4457
23.5292
42.8117
42.7524
-10.1714
20.3697
31.0041
-18.1641
34.9398
-1.62656
42.1768
34.7511
-1.54846
27.1142
10.37
19.3943
0.942194
23.9118
-23.9292
21.4341
9.56671
17.8033
-5.99251
23.6822
-1.40291
5.56526
40.7895
40.6994
16.6815
-77.7783
4.92147
4.60415
-4.73842
17.7627
36.4189
-83.4487
24.5521
24.0537
11.5592
25.8398
-28.6356
-4.66671
-0.350387
43.4738
7.23982
-5.34579
27.4454
-6.08059
0.712084
9.98048
3.58613
17.1374
12.0036
-12.0461
14.3147
20.6152
17.1997
19.1734
42.7254
34.8081
31.531
29.7337
40.3421
11.8626
-1.87118
-1.14471
-29.1014
40.0669
-4.17898
24.4646
22.4246
-19.3248
13.2971
26.8736
-18.4514
11.8137
13.8028
47.5193
-118.013
10.287
-3.94053
29.0913
1.69623
-4.37573
39.5153
33.9771
24.1666
23.8347
-10.859
12.5843
-159.039
42.6051
0.141838
45.6425
-1.0608
1.3991
-89.3707
15.1048
-83.33
3.63541
-2.82768
6.66098
-9.06634
6.05025
-4.56966
-0.0434611
-6.27348
-78.5028
-14.4789
-53.6148
-26.843
-3.66522
-4.00965
-113.056
26.0046
26.4362
30.7325
22.6604
9.5769
8.78467
49.1841
23.8432
-158.046
-0.0364129
-4.85625
17.3338
21.5506
36.9536
-24.6034
-24.6293
21.2997
0.0279245
5.00852
30.0863
-77.0471
-30.3191
-145.058
43.1438
-3.75377
17.1389
31.3777
0.0404497
19.6935
-1.11782
-120.917
-94.7447
0.233259
14.7225
29.6873
30.7492
-56.6269
-77.0247
17.6221
-235.973
-12.6708
-7.40324
4.58012
-9.01962
-5.33156
-4.42412
-112.42
-26.7144
38.1209
-3.60801
41.3009
-53.1917
-5.67149
9.05868
-2.59049
35.4405
25.3556
28.5757
-21.7978
-9.91569
-131.681
34.493
-78.6134
16.4255
-1.16061
28.7961
35.0533
-1.39094
23.6472
39.7656
27.4709
25.9537
-51.2779
-1.95065
9.88446
-19.5507
-2.85813
15.5142
19.09
1.59209
-167.443
4.92685
0.402169
22.3384
19.3554
-13.3511
42.0192
1.41122
0.0231851
1.81682
22.5385
-10.9906
0.028159
26.9999
-15.5207
1.42342
-7.80602
27.0313
22.592
21.4421
-4.71967
21.6934
27.5204
27.9779
-9.8242
0.740509
3.3887
21.2456
-25.362
-65.6983
-8.34109
-36.0694
-3.62219
0.039363
-2.63067
0.47249
-88.711
-18.2256
-75.7609
0.30483
-9.69472
6.87043
-56.9363
25.4315
49.9727
6.30916
-6.2796
9.09491
0.3578
4.84515
0.158774
-11.9356
-27.463
1.99291
32.8275
0.0558179
39.1663
0.110166
21.6057
20.8045
10.5622
-88.8928
16.3707
42.5805
-4.03849
22.6279
22.4201
36.8348
2.03972
33.8455
27.4163
-87.0545
29.03
-126.878
-226.563
34.7486
20.1023
-47.6383
-0.801399
31.477
4.60802
-14.9804
0.468896
0.840642
17.7143
11.5025
23.6586
23.7471
20.6624
-49.9646
-14.9832
-9.1232
23.1183
45.7713
-13.2258
-283.925
-86.497
25.82
1.92513
1.76878
12.3011
-0.0405132
19.471
-4.19191
5.28905
36.5952
8.23908
-1.50672
-3.23518
-3.94186
-19.3516
-99.115
-26.5501
-30.8437
28.3843
11.1835
-16.5385
38.0578
-0.0295798
-108.809
-6.9006
-236.572
26.9177
-71.3443
5.94671
24.8537
-8.19418
-10.1199
-4.26354
-162.979
-5.03691
25.7466
-77.3569
-1.39202
-146.742
22.4155
25.8437
-3.63776
30.9917
28.8937
37.8236
38.4336
27.8206
2.8525
42.8332
-156.496
24.3667
5.65078
-52.3578
29.1292
-7.21027
37.0543
9.68423
-31.4594
-79.4631
-137.388
25.4687
-8.49308
-9.39135
-5.48162
-21.8696
-0.910623
13.4747
2.59803
18.4818
43.0991
-79.3345
-24.6466
-17.809
26.6218
17.101
-16.9149
49.6267
-1.74099
0.342418
14.1835
-27.1028
22.0868
25.5894
28.4575
29.435
-0.286037
13.8639
23.4448
4.23446
-13.9416
-0.0339144
27.3575
27.1573
34.4437
-3.90362
1.86546
14.431
12.7223
3.06552
-41.0418
18.8009
-5.51838
20.1153
24.4115
-107.649
39.3546
-17.4777
41.4196
28.5963
-55.955
0.043736
-0.220619
7.86776
24.9899
-36.2061
33.648
22.0754
13.9665
0.426665
4.09545
-8.14141
14.0154
-125.98
16.2041
-4.88412
22.7412
-54.1437
-1.61702
-8.94713
29.6914
35.7754
10.1119
-47.8331
10.1598
-4.05616
1.27527
11.8258
-4.45077
-3.50299
41.4328
-15.2002
-3.60382
-22.8251
-226.473
-4.58965
23.0354
-116.695
-7.83839
24.8714
16.0112
25.8376
-6.60867
10.7894
41.5376
-46.8284
22.6817
7.22288
-5.35729
6.28358
4.67449
-14.1081
42.4118
28.4111
-10.361
40.3518
32.2749
29.4203
-221.371
-60.3856
17.822
-33.8187
-3.37746
-76.3378
-30.1651
-67.4902
19.5239
8.74285
15.4129
16.8002
-2.98469
19.6782
23.0083
-255.166
26.9245
13.4057
22.9404
-4.10136
-0.449338
-3.85182
-104.471
-5.14043
-8.919
22.5764
-52.184
38.4017
-19.0792
22.1446
16.5576
-0.235997
4.82342
24.8676
9.5873
3.95862
22.2722
0.528588
-0.997043
36.2189
27.9158
-17.8086
-63.0108
-2.05312
20.3193
-2.02083
12.5799
-53.6704
-2.18728
-4.12737
-2.59413
21.2256
21.8628
2.07378
9.2954
-2.80812
-1.22245
-44.1096
29.4591
-3.46614
23.5251
-0.0037329
19.5555
25.7005
12.3742
22.9902
-0.403881
-4.69674
-0.371726
-47.6188
-7.32321
-17.2105
-3.64315
-4.78819
17.907
-3.7549
22.4784
-1.35379
-0.14808
-43.2478
-1.54003
25.3593
-100.523
23.8292
5.25809
-27.531
0.293969
-4.00381
17.3579
23.3692
-1.12557
3.48538
-44.3808
29.7489
1.52513
7.0518
-34.9339
30.6144
11.3948
-0.0562513
25.643
25.7095
29.7904
5.56179
29.229
-46.8583
0.256519
-4.52562
24.8269
14.0189
5.58368
2.97242
-36.1296
-31.943
13.9197
1.33209
-36.4566
39.0842
-55.6733
29.6178
17.472
-9.30701
-2.02775
-0.214488
-3.9401
0.476648
2.17763
21.8674
-0.276917
23.5064
-45.5356
12.6387
-2.81229
6.16993
-39.1855
31.4425
41.7242
26.2414
15.3048
6.88794
14.4893
-144.292
0.160915
-4.84728
-4.65227
-19.1567
-66.0836
-38.6812
-15.9254
21.9585
25.1707
-88.1329
5.10619
26.9109
-16.3256
-42.7773
25.4649
-2.03156
-139.966
0.443424
-7.67989
0.0203896
38.6705
-3.68224
24.1201
-28.329
-18.8491
-16.098
24.2548
6.5719
20.5145
-22.0742
-20.3937
-0.136513
4.5127
27.4685
21.389
2.50559
-3.60554
-9.5007
43.5983
-3.74208
28.0238
31.4432
-3.65389
-2.599
10.5561
-84.0985
-36.5422
19.973
12.3601
23.4941
-8.89432
25.9921
0.711598
34.4458
5.69343
20.4002
30.5479
18.9026
3.33522
-22.8566
5.67792
-204.189
22.1849
9.29209
29.6478
0.14517
37.5864
3.04835
40.3066
-2.75546
31.5393
-5.7694
18.192
-136.235
22.354
11.424
8.77074
35.6381
23.1768
4.99
-14.9162
13.56
21.6592
-1.57751
-90.6015
17.6864
-1.10462
31.6761
-3.10588
38.4068
3.84953
49.4266
38.0599
19.1619
17.802
-140.068
-0.738073
40.9845
-4.15353
-3.61847
-4.24026
39.9148
10.4771
21.112
32.1501
-19.9039
26.0664
-7.63621
29.6383
0.594934
28.3674
24.562
34.8079
-2.01453
-211.893
6.0777
-4.10633
11.1233
6.42055
-6.46585
30.6227
35.8474
0.237818
9.46511
-6.82641
32.8849
19.9332
22.6488
13.1883
-4.62984
-39.4764
-3.67947
24.1702
-43.7939
-1.86958
-2.94475
17.869
11.2269
-15.8338
42.85
-2.88084
38.3323
9.1365
38.1317
-11.7007
5.13969
-0.111844
0.960246
20.5098
22.9736
-2.21787
-1.85135
-3.63611
-1.78966
36.1834
-9.89136
-2.12591
-4.13963
-2.4242
10.4745
30.6572
12.8253
0.136405
0.138248
23.1782
45.8058
-4.40859
-0.0911149
24.2716
0.159653
10.0995
-1.27604
18.8184
-1.95458
-80.6706
-6.38577
-5.29535
-5.44635
-17.563
-61.9054
-15.1413
-2.49018
17.9101
25.7534
19.6765
44.6681
-149.367
39.0375
-58.8669
37.7337
-35.0582
-21.8997
43.2634
8.24593
-7.84117
25.4769
-2.16614
27.6044
-6.47879
-137.21
3.05114
-14.714
-17.589
-0.0446371
-5.18757
7.58052
31.3392
-37.9972
8.7316
-46.3851
5.71114
-3.32013
-1.56323
1.51351
-2.29123
-36.3097
30.0926
-1.08473
34.2872
8.70958
-106.647
6.49189
-24.1751
-0.0556214
19.7344
30.5635
43.8302
17.0392
19.9727
12.4628
-80.1658
42.4471
46.0787
25.9788
-18.0185
-8.5265
-211.86
22.7637
16.7261
8.73045
18.61
-3.41683
-1.07324
-252.24
35.3406
1.84372
0.615004
-4.69989
24.1892
2.99475
48.7548
45.8155
21.6359
-0.860475
7.03556
-55.5377
8.12355
46.7518
5.00619
-0.0669081
18.7433
0.102629
3.51247
-6.41116
-9.76024
4.10329
1.55678
10.2991
-0.0961856
5.72816
34.4573
9.97958
25.5783
-5.35941
-11.3155
41.8851
-56.2354
3.47994
7.80672
8.76551
1.83515
-3.5988
6.42833
0.156868
3.17297
48.556
-87.5798
-75.3575
-22.7196
-18.1579
3.78012
8.33979
-3.57902
-59.3593
-0.049587
-77.1663
-22.0574
-19.4175
2.47457
-0.213638
0.313233
48.2758
0.0872295
6.33528
-5.48756
3.10095
-81.1793
-9.04081
33.2983
23.8117
6.48199
-2.26312
23.1875
25.579
0.262951
-58.36
-3.79536
32.9046
-16.8465
21.2822
-1.46139
37.8817
0.392474
-6.14011
-0.178326
25.976
-13.1434
20.6104
-20.1665
46.8283
-3.83307
-8.51039
-188.816
9.45787
-4.13179
-22.766
-4.06824
1.8821
13.225
-10.7342
-3.13235
-3.47208
3.62167
-15.558
-22.1235
19.2053
-228.215
21.4541
-4.41415
26.3977
42.3442
23.5645
-86.2586
25.3066
1.79065
3.88714
-3.69874
-12.1048
-151.846
-9.62685
-10.0569
13.0384
-2.4598
-19.5266
-0.397954
-117.898
11.9523
22.9807
-24.7226
-3.90356
-10.8163
-0.0811448
-2.24199
14.6418
-53.9608
-4.59079
23.6765
-1.48854
15.9354
-26.2664
-160.051
-64.0307
-145.653
46.4569
7.46881
-19.2487
5.23708
39.7251
42.0091
-6.9145
-7.84186
23.0539
-1.04863
-15.9435
40.5629
13.2594
22.7885
49.2019
-9.94607
9.14461
1.48596
36.3597
24.5557
26.0002
29.9565
15.8372
0.436234
0.95178
9.88358
4.77432
-92.9858
42.1246
-13.8704
-15.2678
-0.0786591
-15.7035
12.0096
-4.80404
-8.48785
4.90973
25.9555
25.5617
28.8674
-149.389
35.7294
41.0457
-75.7389
15.2076
-4.73948
-4.22286
3.64222
12.4661
-5.58452
-16.6054
-29.0424
45.7287
-134.236
28.749
24.182
33.3513
19.4193
19.0816
-2.53344
0.284983
16.2073
-2.42369
-277.97
-43.1551
1.60657
-3.67138
30.1469
-10.2974
-0.747681
2.77738
-78.4561
-5.19441
-125.781
21.5357
-7.66907
-8.43616
8.30855
-27.702
8.43488
-97.1377
-4.46144
25.8712
-111.619
41.8951
-0.175594
43.6054
0.12011
-4.91797
3.13318
20.1768
21.2111
-55.7329
-4.53942
-7.38434
2.53114
17.7123
49.4492
33.3646
8.65414
-15.7711
13.4508
-1.49394
28.8994
-3.04075
12.6882
-3.99247
-4.25404
-83.2487
11.1205
0.397587
-81.5339
14.2259
15.5814
40.8111
43.1878
-100.705
-151.027
-2.96092
-26.2043
42.8927
2.82767
-12.2941
8.51288
16.3238
-4.78402
2.36387
0.332065
-1.95756
23.4245
-4.01882
8.46403
-7.09887
-20.654
-51.465
-8.94275
-51.4873
-48.2561
27.567
-8.08947
-5.39257
-8.26086
-0.238731
46.2183
19.7497
21.7414
-8.52028
12.5018
-3.62429
10.4317
5.33711
-3.48245
-65.9708
42.8144
25.4126
-2.72754
-84.6607
48.0765
-5.04368
-42.5054
-3.714
13.5687
-4.63634
-4.23201
36.5065
-3.97913
22.9759
7.71265
-3.69064
1.77196
-21.4563
11.6326
-50.6944
-2.11061
6.00835
24.0575
-4.4961
-54.1525
3.53776
-11.0681
-28.7011
-27.8809
45.1672
14.4252
-42.2231
13.0351
4.22621
39.7829
14.3195
-81.2748
15.6442
30.5782
27.8753
-15.0045
20.6462
-2.09776
42.5258
0.301201
24.1476
-72.4744
-14.3358
-0.106129
-4.27408
16.2049
6.35244
-87.1211
-5.33495
29.3
-1.35273
-4.43263
34.2387
17.8046
33.2443
21.3151
-21.3067
0.162805
-1.64038
24.6611
-0.0136977
30.8839
20.4451
41.814
-3.6836
32.3119
14.2206
41.5564
-3.80499
-18.9884
43.0336
-3.76736
20.1928
-147.593
37.6711
41.2066
25.7162
-37.5922
22.9192
32.0041
-15.1828
8.64404
-6.13862
34.1945
-4.09497
-2.75489
-158.589
-168.762
31.3514
13.4651
-249.479
12.9286
41.2308
-14.4797
-6.14384
-182.441
-23.1389
22.0562
-5.72601
22.0201
23.0116
-257.675
46.3021
-2.53141
34.7301
35.5551
0.472226
-0.309396
22.2872
-42.6209
-6.68205
22.3522
19.0203
-11.7325
23.3112
-3.70644
35.2834
25.7998
9.52412
3.36104
28.3561
-3.17277
13.5355
33.1583
4.42682
-0.0260738
31.8482
26.5062
-17.565
-75.4499
20.0014
27.8647
42.2299
-88.8009
44.6238
41.746
45.1223
-3.51432
30.7285
-59.8406
23.4554
33.8525
31.8829
27.5145
36.5439
48.8434
20.1007
-86.242
4.71271
-56.581
48.3254
13.2251
-1.99905
-3.68801
22.1419
35.9238
23.3975
8.30362
-4.19351
35.8376
-70.2691
26.8959
-4.15204
9.12008
-1.13574
10.1892
15.9551
-27.5035
-23.1171
-4.98171
-10.7787
-3.5585
30.0444
-7.26475
1.31481
22.8312
-112.456
17.2804
-0.0567044
-92.3122
-77.6738
-77.3461
34.7499
37.046
-4.62621
7.59006
31.4176
27.0647
0.274593
-21.5895
27.0905
-85.9759
33.8606
-75.9667
32.7873
13.8988
1.00158
30.2812
16.5712
32.5444
8.77915
9.7323
-13.3624
-83.5382
-207.418
-3.71637
31.8633
-34.8697
-5.45742
-33.5639
34.6045
32.3199
7.06699
18.8381
35.4748
-46.6567
23.6291
-5.04271
-15.2864
23.4131
-6.17061
-145.425
-26.1031
-113.149
-8.48994
-49.0297
-4.87839
-246.869
-90.1541
20.2149
42.4264
46.477
40.2755
-34.1012
27.1223
-84.2912
22.5671
35.0457
1.30744
31.2292
-32.4215
8.57422
-14.512
-4.40116
34.0457
-18.4939
28.2407
-164.002
-8.89207
-132.839
27.8036
27.9532
23.2171
-135.879
23.162
-5.013
-223.055
-196.092
7.91453
42.9981
-56.3214
-8.42557
-4.71829
23.3772
22.2837
-2.48494
13.4784
-163.003
35.9473
32.2648
-4.90764
-7.56943
35.3503
-6.72906
-126.38
-2.31947
31.9178
36.2904
-51.1513
18.7459
-5.32958
41.6106
-278.876
-14.6007
-4.36152
39.2181
-2.63705
-12.1398
-2.03762
34.1343
17.7275
33.5877
-4.96939
-51.6737
27.525
47.5491
-91.1629
23.3096
-3.15603
-257.615
-2.86221
8.81268
-4.23016
18.4311
-3.86471
14.237
-3.48704
-18.5716
30.5417
37.1283
22.8792
-39.4167
-14.8673
29.4276
-160.718
10.0676
-16.264
11.9818
-275.35
25.3782
29.2485
-3.40319
27.7974
41.5379
-6.43003
21.0774
27.4098
-170.445
13.463
-12.4976
12.0223
10.2805
18.0399
0.0404781
8.20777
-6.2644
-48.7941
35.0958
11.1545
2.44761
-7.84609
-6.39876
24.6165
-210.348
44.9932
-120.049
-143.203
-2.84826
30.8846
28.5355
33.7087
-90.0171
40.0799
-58.9337
20.837
-1.11717
-121.308
21.3746
10.9653
-7.53813
17.1296
-42.2395
18.649
-108.885
-7.20143
-0.0217361
-63.3111
-80.5491
22.5918
40.7823
-21.083
-67.0161
31.8139
-59.9279
37.2005
13.2086
-1.84812
12.4397
23.6391
12.9125
-2.62074
3.96179
-2.84572
4.33128
7.29197
-140.658
-5.55643
0.808266
16.6275
-3.71292
48.6406
26.9933
23.517
37.8632
1.90102
26.704
-32.1874
-125.369
-9.7855
23.0691
47.8329
22.6578
-20.8336
34.8817
24.3129
24.5489
-6.71104
-3.23083
12.6287
45.3064
4.24695
-18.5258
27.6871
35.8269
27.0094
24.2006
29.8614
17.3072
-4.24284
-16.381
27.1247
-77.9471
-76.5595
23.7599
-12.0111
3.60823
9.73118
27.4037
28.5993
28.6733
-4.51476
33.3833
34.3271
4.56302
30.1126
25.9975
19.4879
17.5747
18.4163
12.4854
-2.63393
31.0095
30.1815
-0.680564
23.3449
-4.79189
-0.425444
40.4021
31.0034
0.140489
-37.1895
1.23597
32.1928
18.5126
3.96259
-1.30828
1.79745
-7.25519
3.3975
-6.59271
-6.73858
19.6626
-5.60234
-54.543
-145.861
38.6309
-4.14772
-39.432
-10.2846
40.8546
-4.5974
5.21083
2.95402
-204.11
18.409
21.6529
16.2657
36.4738
19.1362
-2.03429
-76.0363
-27.5333
0.204437
27.7157
-0.10875
-65.4068
-274.277
-8.57239
-54.2699
-7.90747
-76.0944
-5.77652
7.11755
22.8137
32.8741
-7.42159
-4.52002
36.4573
26.9368
-46.1995
-5.15183
-61.4345
15.434
-0.886504
13.0195
19.1871
-1.16445
-5.17984
-6.15125
4.7666
-48.4229
-88.6435
1.20828
-23.0128
-102.603
-231.304
-18.6993
1.73662
-68.0189
12.4187
-70.0441
23.0925
20.3293
6.89476
31.1565
-42.2884
41.2656
-15.6739
-1.22221
-24.4314
24.1703
14.4005
-75.3113
-95.5645
23.9465
28.9035
42.6918
-48.6595
-93.6271
-30.1796
-5.09704
0.0669583
-138.437
10.1806
-154.844
13.9564
-74.3775
20.2874
3.87252
-3.37927
36.9143
21.8236
-19.5302
-0.830951
-34.8469
-85.1115
31.2956
46.516
-68.7535
30.9263
22.6053
0.0187155
-3.11488
30.3039
28.8901
-85.88
-4.30943
-10.4066
-40.9708
-22.851
-173.114
-19.844
14.8331
-3.57988
26.2603
-121.808
-246.794
21.6839
-20.6483
-167.698
-1.11555
17.7061
-180.432
-13.654
-261.641
-112.726
-157.919
43.4183
-105.654
-6.84699
-77.5761
26.3128
-155.302
-3.10522
-66.2465
-164.841
-14.0285
28.0173
0.00400046
-140.105
21.0654
0.0078688
-13.4756
-113.681
-166.379
18.2302
20.4434
23.5497
-157.693
37.4044
-10.0581
0.0355506
0.296086
-39.8649
-19.0048
-152.5
-36.3918
4.89093
8.15075
-6.10077
-7.74043
-26.5951
23.4116
-108.78
23.3416
-107.981
13.4472
-8.23622
-1.9432
-2.03767
49.6129
-1.09088
-195.572
-119.675
-23.8421
23.224
-2.74911
-1.45381
0.615214
-266.249
-39.7365
-84.6849
-160.737
27.8816
-271.425
1.43949
-264.948
-3.67166
21.1846
0.502675
11.7482
-12.5807
32.8658
-115.448
-20.1681
35.2918
9.82177
-134.002
-7.63176
-98.5533
-24.4681
-9.71546
31.7434
-7.31517
8.92155
-88.1079
-80.5298
-226.249
-254.955
-49.0248
16.2055
-5.98138
23.4607
7.49096
-80.0387
41.2452
-25.8185
29.6123
36.855
-207.847
-0.425374
25.7732
22.386
20.5695
-26.8139
-52.6826
-53.9572
23.3911
5.09236
-26.4404
-149.139
14.7593
28.3981
-6.69141
-0.272372
-1.1957
34.6189
-31.6616
-34.8286
-0.732938
19.6082
0.188141
-1.76647
37.5415
30.0232
-4.41441
-33.7012
31.3927
10.4793
-3.91989
23.8337
-11.0506
-40.4237
-66.9798
-33.0249
29.1709
26.994
-4.27816
-16.1965
-3.29813
-0.484139
27.2406
-34.2059
20.5271
33.0479
35.5422
-6.52807
23.9671
22.2414
28.1895
29.8304
-5.29665
29.7317
0.0171958
23.4937
12.5741
25.9374
-24.4455
30.539
29.3898
20.502
14.8058
-17.9133
18.0077
0.393411
-19.4919
34.0144
31.8384
-20.3232
27.7257
-32.0629
-90.9876
26.7004
26.108
-56.4542
-4.51349
-95.1336
-27.8113
-22.8767
-5.35101
-59.5446
-8.50148
22.4375
44.445
31.8583
-8.0257
-4.02642
26.5654
10.512
-2.90194
-40.4861
-14.3449
-32.7117
-88.1058
-84.6018
22.0476
-3.73767
9.00246
0.275158
0.272968
-1.48052
0.479218
4.99152
13.6415
15.1419
-15.0307
14.1958
-73.9577
-84.5831
16.8482
11.614
-3.37403
1.82736
15.0146
-1.93442
8.2271
-15.4074
23.625
20.1598
39.4819
23.4836
-26.3924
-8.83103
-15.8082
-13.03
-1.08535
-0.564981
-5.90794
-21.8675
44.8092
1.41067
-0.458841
36.8372
-4.55482
-17.2574
-6.45239
-26.4179
-113.061
8.56009
-27.2708
24.6115
-6.67481
-23.8229
-0.756689
-7.73594
-22.413
-2.5461
-14.2393
17.9092
-3.72066
-5.21443
-29.6254
9.31167
-26.0278
25.9253
37.9633
-12.2867
26.3158
14.4482
16.0146
41.3334
-5.2295
13.2643
12.3307
8.24561
35.8156
-8.64811
-4.98382
-2.70061
25.6217
38.0291
-8.21228
-4.33587
-27.9093
-22.3873
10.9412
-19.3715
-50.3356
-13.9295
8.25504
-81.688
4.52703
7.61779
20.2887
3.1609
-86.6758
-10.5432
-1.65634
-4.93543
40.4058
45.0257
33.6563
46.274
20.5015
22.7317
28.7485
24.9564
21.5656
-22.7047
25.2223
-8.69642
-85.5556
36.4083
-6.46717
-25.5051
42.681
-1.74214
-50.7275
11.1724
9.13171
29.3975
-143.638
21.4922
38.8115
-4.557
-78.5286
-39.6254
16.9437
-79.3081
32.2376
-5.17353
29.4567
23.1867
-5.02516
28.8214
-15.6657
-72.0002
-80.0231
-13.1568
30.3644
-24.2617
23.25
-2.26425
-151.898
-3.11836
-2.29068
-26.1579
-16.1947
-136.86
30.4202
3.02093
-149.182
-12.2492
14.447
5.51962
-25.6466
10.2955
-2.36714
10.184
-170.5
13.1069
4.79851
16.981
-4.10815
22.9651
14.8259
5.50761
-121.166
46.8201
-21.976
-235.284
22.8428
19.9637
-163.696
-23.8625
-19.3806
16.1892
13.4427
-22.0114
-4.53165
-7.76466
46.6686
-3.80278
-5.50352
-2.66287
-13.6076
18.0243
-7.63943
22.3461
14.3358
-84.3897
15.643
-88.0669
20.6676
9.27461
25.0354
15.9371
0.0659673
0.0506957
12.4596
26.063
4.29115
1.18519
-181.725
-14.558
-13.1221
19.6521
-209.721
12.3963
-173.33
30.5624
-168.37
-7.84006
32.6678
29.2223
9.9958
-7.12162
-64.6389
26.6559
0.351272
30.1337
12.0333
-0.959701
24.0372
6.90971
5.33463
3.56195
-13.0249
-19.6156
15.2166
-1.49524
33.449
6.79213
46.848
-2.97885
4.92371
29.4709
1.5601
6.00664
25.7032
21.4402
15.0511
-26.8657
-1.92534
23.1173
15.9169
9.00111
-42.1918
-5.64792
-21.2249
-173.593
-14.5117
20.9121
-0.0324937
18.3852
-3.63584
39.777
29.728
7.57243
20.4492
7.00037
-142.004
21.8637
17.7929
-0.550934
10.1496
30.1568
27.1635
-2.91886
-40.3188
-42.3217
22.1436
11.5008
-0.483372
25.4888
-48.2562
23.2428
-64.9692
23.8725
9.96173
-3.00021
9.12419
28.3471
-4.06245
25.2737
32.5424
3.36206
-9.67875
12.3885
0.998536
37.7941
-120.643
34.2783
28.7911
-171.216
-14.8363
-0.0688476
-13.0037
-84.0707
-6.65134
22.2931
34.4409
26.5532
35.1361
15.6582
31.8171
8.83215
1.49061
9.62876
-0.250469
0.61266
19.9879
0.356724
36.2092
6.00388
-259.609
16.34
36.0685
37.7354
-121.437
14.264
-22.2452
-86.5528
10.8349
5.23167
-4.80829
11.2046
37.3607
-129.799
-98.8416
-63.2309
9.29305
2.48119
2.24027