/*--------------------------------*- C++ -*----------------------------------*\
| =========                 |                                                 |
| \\      /  F ield         | OpenFOAM: The Open Source CFD Toolbox           |
|  \\    /   O peration     | Version:  2306                                  |
|   \\  /    A nd           | Website:  www.openfoam.com                      |
|    \\/     M anipulation  |                                                 |
\*---------------------------------------------------------------------------*/
FoamFile
{
    version     2.0;
    format      ascii;
    arch        "LSB;label=32;scalar=64";
    class       volVectorField;
    location    "1.2";
    object      U;
}
// * * * * * * * * * * * * * * * * * * * * * * * * * * * * * * * * * * * * * //

dimensions      [0 1 -1 0 0 0 0];

internalField   nonuniform List<vector> 
13486
(
(5.56171 -0.7054 1.83434e-20)
(6.76815 1.18038 8.0718e-21)
(9.08077 0.232668 0)
(3.8447 -1.86879 -2.4523e-21)
(8.81907 -2.15474 6.57373e-21)
(9.57663 0.527834 1.22103e-21)
(9.82537 -1.84445 1.55266e-22)
(7.55841 -2.80242 -1.02015e-20)
(7.37502 -1.48208 0)
(7.95524 2.94997 0)
(-5.30627 -4.7116 -6.43521e-20)
(10.0629 -0.246748 0)
(4.96284 -1.44207 -1.84367e-20)
(9.76127 2.77404 1.79324e-21)
(9.34447 -1.67762 3.28581e-21)
(7.83699 3.1443 -4.4289e-21)
(-8.59946 6.82614 4.20305e-20)
(5.36424 -1.50925 -4.98012e-22)
(9.29932 -0.0505248 7.35049e-23)
(6.38684 -0.0594376 -1.81308e-20)
(4.29659 -2.51612 -1.09951e-21)
(5.01997 -1.48454 2.37518e-20)
(6.84788 1.21599 -6.46609e-21)
(9.77392 -3.94718 0)
(8.14596 2.46846 1.31189e-21)
(9.66149 -3.65674 -4.45156e-21)
(-12.2384 5.13235 5.50857e-20)
(9.8252 -0.462999 1.3337e-20)
(8.02923 0.116525 0)
(8.83044 -1.39193 -7.70008e-21)
(4.42944 -2.49194 -8.09069e-22)
(9.84011 -1.28083 -3.80004e-21)
(11.5667 -1.54258 1.31127e-20)
(8.17179 -0.371896 0)
(7.57205 -2.68732 0)
(7.62608 -0.0380293 1.31834e-23)
(7.62503 0.480298 -2.25001e-22)
(6.02208 -2.76197 9.75348e-21)
(6.86587 0.196166 -3.41817e-22)
(7.52614 -0.825701 9.23844e-21)
(9.16999 -3.22838 0)
(4.2539 -1.99296 -2.18515e-20)
(8.18299 0.0316434 0)
(8.19621 2.15647 -6.68551e-21)
(8.27017 2.18984 2.70377e-21)
(10.0131 -0.275645 2.21057e-21)
(1.93079 9.82974 1.09939e-19)
(7.99717 0.116974 -6.56546e-24)
(7.67061 0.378603 1.77272e-22)
(10.3604 -0.0313383 7.13904e-21)
(7.92288 0.172477 9.49437e-21)
(7.1135 0.112833 0)
(10.5357 -0.624692 -2.23433e-21)
(6.26894 -2.24262 -1.40244e-20)
(5.52619 -1.90483 0)
(8.75661 -2.20384 -4.3341e-21)
(8.2674 0.546739 -1.91554e-22)
(7.02517 0.0927717 -1.47464e-21)
(11.2777 -1.50709 1.49736e-20)
(7.70054 0.651224 0)
(-3.33813 -7.98225 -5.32479e-20)
(7.71524 0.683739 0)
(16.4171 0.761203 -2.41009e-20)
(4.36958 -2.51361 -1.28716e-23)
(6.2297 -3.9433 0)
(7.68753 0.526673 -9.7809e-23)
(3.55555 -1.87071 -2.3943e-21)
(5.57018 0.489195 6.03561e-21)
(7.42725 -1.59431 -5.38702e-21)
(7.60988 0.0403319 2.3801e-22)
(3.53108 -1.66086 2.76464e-21)
(5.84321 -1.76412 -8.86425e-23)
(7.65482 -0.379782 6.77536e-21)
(-1.71595 -1.88063 -2.48427e-20)
(7.76459 0.534854 -2.51963e-23)
(8.27963 0.530632 4.1703e-23)
(7.7689 0.555859 5.66833e-24)
(9.35354 -1.74876 -1.34947e-21)
(1.38615 8.31025 -7.24301e-20)
(6.6702 -1.21249 0)
(7.93868 0.0374999 2.28688e-23)
(6.50163 1.64364 -5.18457e-22)
(18.482 0.651717 9.42404e-22)
(9.62739 0.287333 -2.42129e-22)
(5.52613 -0.735108 -3.57397e-20)
(6.00891 7.25903 0)
(3.81857 -1.94035 -4.59895e-21)
(7.94103 0.2531 -1.42674e-20)
(7.33356 0.820544 -6.55391e-21)
(7.20818 4.09818 -4.58917e-21)
(10.0974 -1.22392 -1.82319e-21)
(7.97618 -2.43109 -5.29989e-21)
(5.77001 -1.1283 4.72377e-21)
(6.55083 0.446596 4.62273e-22)
(7.0387 -2.16092 2.2307e-21)
(8.02236 0.108011 2.27295e-24)
(-12.0664 5.21941 0)
(3.45971 -2.41715 1.26401e-21)
(7.57045 -0.810952 -1.76193e-20)
(-10.3218 8.61334 7.65379e-22)
(8.07781 -0.0375661 0)
(9.70794 2.76442 5.88726e-22)
(3.31651 -2.49112 1.30088e-22)
(7.20097 0.0772612 1.7181e-21)
(5.45853 7.04602 0)
(-9.12582 8.39653 1.01975e-21)
(7.76628 0.267458 6.29075e-24)
(6.73227 0.125537 -8.11966e-22)
(2.01718 9.97115 8.54442e-20)
(7.66721 -3.54188 0)
(6.40113 -3.03436 0)
(9.79129 -1.59717 -3.66253e-21)
(6.30788 -2.16533 1.21756e-22)
(8.28482 0.319912 1.65453e-23)
(4.13925 -0.0305447 0)
(6.28635 -2.98544 -8.56686e-21)
(8.05026 2.61065 0)
(8.29857 -0.365998 0)
(7.5307 -0.308395 0)
(7.7519 0.35369 -1.20393e-22)
(5.52102 -1.41637 2.77285e-22)
(-3.18912 -7.77181 0)
(6.937 -1.9555 0)
(6.78089 0.134597 1.12447e-21)
(7.17702 -2.52711 0)
(7.20601 0.126377 0)
(8.48726 -1.14143 2.03322e-22)
(8.64975 0.392545 1.70489e-21)
(7.78503 -0.20286 -1.18677e-21)
(6.56764 -3.38529 -2.10835e-21)
(7.17095 0.101107 -1.78778e-22)
(3.18192 9.29482 -2.84679e-20)
(-5.63361 -0.163008 3.04003e-20)
(-2.01635 -1.18662 3.07194e-20)
(7.94581 0.109808 -1.56477e-21)
(7.70909 1.80555 -6.86813e-21)
(3.75071 3.23164 -4.93243e-21)
(7.54079 -3.43399 0)
(7.69932 0.346635 2.92198e-23)
(7.63449 -2.29032 -3.56636e-21)
(11.1908 -0.616547 -1.36867e-20)
(10.4739 -0.727124 1.84656e-21)
(9.88357 -0.913374 0)
(6.54339 -1.14623 0)
(8.39644 0.0798317 8.84897e-23)
(17.343 -3.85175 -4.52427e-20)
(11.4816 0.806648 1.81576e-21)
(-3.80138 6.89527 0)
(10.4791 -0.117714 0)
(8.02359 0.106008 0)
(8.15259 0.110468 1.26249e-22)
(9.35172 -1.93038 0)
(7.98063 0.0601691 -2.39339e-23)
(6.33919 1.57659 -4.39224e-21)
(8.7793 1.32792 0)
(9.36787 0.3213 0)
(7.45254 -3.35934 0)
(1.30874 -0.576502 -3.94432e-22)
(6.65979 -2.58369 2.02812e-20)
(8.08109 1.48886 5.25505e-23)
(10.0997 0.0926121 4.64368e-21)
(6.69016 -2.51316 -3.04703e-20)
(9.82496 -1.09001 7.91189e-22)
(3.88121 -1.90978 9.62432e-21)
(7.17916 0.0961804 0)
(10.1645 2.86336 -3.65082e-21)
(9.51467 2.55369 -1.70053e-21)
(1.60259 -0.276698 -2.29216e-20)
(11.7263 1.11876 -5.01623e-21)
(-1.93325 -2.84027 8.19817e-21)
(-2.57925 0.308681 -1.18793e-22)
(8.72502 1.22101 1.61826e-21)
(8.04245 0.411186 -1.09505e-20)
(9.0581 -0.945218 3.08774e-22)
(7.94305 0.0667433 1.31977e-23)
(2.3717 -5.66477 0)
(10.0621 4.31134 5.02575e-21)
(11.8095 -0.616387 1.95766e-20)
(7.65532 0.251831 -1.62579e-20)
(9.86621 -0.862636 0)
(7.82151 -1.13524 1.8896e-20)
(8.2919 0.353737 3.70536e-23)
(9.36796 -0.951037 -1.55687e-22)
(-4.40084 1.1052 0)
(10.1066 0.630568 3.82902e-22)
(9.50101 -0.35814 -6.06523e-21)
(8.08133 0.0861228 -1.34924e-23)
(8.71989 -0.932746 -2.37668e-21)
(8.96846 -3.24268 0)
(5.77496 -2.78124 -1.14942e-20)
(7.69498 0.398337 0)
(8.74467 0.202903 0)
(6.98986 -0.0140398 0)
(5.90322 3.74379 -9.11572e-21)
(6.91666 -0.131308 0)
(-5.25303 -4.93353 -1.4928e-20)
(6.42961 -3.61116 5.00019e-21)
(10.2374 0.0423837 2.52163e-21)
(5.32894 -2.59759 -4.35397e-21)
(10.0403 2.63534 -1.75293e-21)
(4.41149 -2.5895 8.90734e-22)
(8.71663 0.546516 -4.55596e-23)
(5.9557 -2.82099 -1.13023e-20)
(8.0703 -3.39017 2.2857e-21)
(8.1166 1.3469 -4.86602e-23)
(7.06684 -0.142167 -1.3755e-21)
(5.14055 -1.82312 -3.56568e-22)
(7.24813 -0.109935 1.36959e-20)
(6.9142 -0.0299033 0)
(9.92375 0.564999 0)
(9.4136 -0.519402 8.65327e-21)
(8.49598 -3.5492 6.42167e-21)
(6.45591 0.0328605 1.6648e-20)
(7.60623 0.216893 5.31218e-23)
(9.64827 0.678947 -1.40811e-21)
(7.20666 -1.71728 8.46467e-22)
(9.13313 -1.2596 0)
(7.37526 3.81556 1.28866e-20)
(6.06497 -1.23151 0)
(12.7751 2.65179 0)
(-8.19623 7.59821 -7.51203e-20)
(10.5549 -0.0704593 0)
(7.57114 -2.24805 8.38505e-21)
(10.1869 0.127663 0)
(10.8775 -0.569297 -2.30998e-22)
(5.12964 -2.35533 6.825e-21)
(10.2368 1.21493 -2.61903e-22)
(4.09626 -3.23852 6.8952e-22)
(7.22337 -1.11029 1.00902e-22)
(3.75235 -1.25263 5.66221e-22)
(7.76609 -1.08243 -6.0506e-21)
(6.8598 -2.11552 4.22015e-21)
(11.2131 -0.881265 1.72321e-20)
(4.14429 -1.91891 7.47007e-21)
(3.74991 -2.67954 0)
(4.89282 -2.3626 8.08847e-22)
(8.42577 -0.726881 4.00418e-21)
(8.84905 0.205014 -1.72038e-22)
(4.92949 -2.34396 2.22171e-20)
(9.43909 -0.606904 0)
(11.2849 -1.91809 0)
(8.09726 0.236488 1.6784e-20)
(8.44414 0.251565 0)
(4.74542 -2.33287 7.41151e-21)
(6.60584 0.435143 -7.1523e-22)
(7.15085 0.394844 0)
(9.72354 -0.0243027 -1.20174e-21)
(9.28322 -2.60762 1.44984e-20)
(4.25206 -2.07282 6.09195e-20)
(8.05641 1.991 0)
(0.550827 -3.05387 -8.00148e-22)
(4.0214 0.0952116 2.67015e-21)
(5.83295 -2.85961 1.09517e-20)
(6.69379 0.0987059 0)
(6.91058 -0.965319 1.04589e-21)
(1.78134 -6.67634 1.25637e-21)
(9.77447 -1.25392 3.00703e-21)
(7.14682 -1.74861 -1.06963e-21)
(2.12379 -2.08287 4.13043e-22)
(11.3612 -1.74189 9.94627e-21)
(7.12567 1.03324 0)
(6.64998 0.44762 -1.39748e-23)
(9.37207 -1.69737 -7.64446e-21)
(1.77308 -6.32951 -1.56878e-21)
(8.44541 -2.86046 -6.9005e-21)
(-4.81723 0.920029 0)
(7.32869 -1.11764 -2.31893e-21)
(4.32026 -2.57969 -1.22603e-21)
(8.16819 -0.111793 -7.8362e-21)
(5.71494 -1.8003 0)
(6.01756 3.77698 6.47163e-21)
(7.76737 0.26545 -4.39866e-21)
(9.04722 -1.347 0)
(10.3411 -0.273926 1.43724e-21)
(5.23871 -2.44575 9.12188e-21)
(9.16929 -2.39617 -8.09373e-21)
(6.94394 -0.88244 0)
(5.91149 -2.41246 0)
(6.61483 0.00071326 -9.00984e-22)
(11.1293 0.127536 -2.82534e-21)
(5.86015 -2.44471 2.20777e-21)
(8.20123 -0.780447 -6.73919e-21)
(7.68292 0.352698 9.68954e-21)
(11.5188 -5.52574 -1.32738e-20)
(-4.59718 -6.81062 5.37484e-20)
(-12.0861 6.78187 1.04796e-19)
(11.4956 -0.322735 1.65091e-20)
(7.82577 -0.277752 1.56056e-21)
(11.1564 -0.56379 9.44585e-23)
(7.82053 -0.164866 0)
(3.85118 -2.57383 0)
(7.22988 0.967885 2.04358e-22)
(6.22913 -2.95455 8.58496e-21)
(8.01072 0.0484431 -1.53753e-21)
(8.41284 -0.640036 3.74368e-21)
(8.55609 -0.844318 0)
(9.86748 -0.0946295 -5.94271e-21)
(10.3511 -0.254224 -9.95028e-22)
(7.68136 0.26812 -8.87036e-21)
(9.68257 -2.3749 2.63076e-21)
(7.97969 -0.904196 -9.86378e-22)
(5.12829 -1.779 1.22545e-22)
(11.6823 0.197219 2.40778e-21)
(9.71727 -1.27276 3.59697e-21)
(7.63446 0.327683 6.90446e-23)
(7.03972 -3.41662 0)
(0.575231 -0.665797 0)
(9.17795 -0.0518111 2.42096e-21)
(4.57531 -1.16486 3.27822e-21)
(7.66899 0.455759 0)
(8.88931 6.02773 -5.19481e-20)
(3.24721 -1.65163 0)
(9.57501 4.22974 -1.3754e-21)
(10.0145 -1.55529 -3.58198e-21)
(10.1638 -10.8366 0)
(7.63129 1.50865 -4.12037e-21)
(7.25312 1.00509 -2.76533e-22)
(7.27287 0.875901 -5.59145e-22)
(7.37318 -0.0730643 -1.50027e-20)
(7.44624 -1.10732 0)
(7.70098 0.460329 1.75766e-22)
(7.1397 0.772581 7.63313e-24)
(7.92526 0.115873 2.04706e-21)
(6.36113 0.612346 -8.63862e-21)
(2.38191 3.39363 9.11167e-21)
(10.1889 -1.17148 3.4838e-21)
(8.53236 -1.62476 -1.94014e-20)
(8.25394 -0.764294 0)
(10.3832 0.222601 1.50614e-22)
(8.68845 -1.69195 -3.67148e-21)
(7.93567 0.208986 2.06801e-20)
(8.09022 -2.45092 0)
(9.75512 -1.277 -7.22792e-22)
(5.66445 1.76713 0)
(9.59265 -1.95603 -6.54486e-21)
(7.27504 -2.03443 -6.06539e-21)
(3.04498 -1.36751 8.99431e-21)
(9.26525 -1.98352 -5.43209e-21)
(8.09765 0.785714 0)
(6.57923 0.544483 -9.54829e-22)
(7.29078 -1.12082 2.487e-21)
(6.47616 0.597046 8.169e-21)
(8.76671 -1.73469 1.40263e-20)
(9.395 -0.993499 6.08863e-21)
(-4.72291 -1.37659 -1.40944e-20)
(8.00019 0.0953494 7.57441e-25)
(8.75277 -0.876956 0)
(3.91664 -1.21196 2.12917e-20)
(12.8634 2.69215 0)
(7.16337 1.00191 -1.17038e-23)
(8.75175 -0.483672 1.10569e-20)
(10.4353 -0.0268095 -6.62245e-22)
(10.3639 -0.325124 1.01407e-21)
(-11.3115 4.86644 -5.35562e-20)
(7.63099 0.267084 1.10922e-20)
(7.83086 0.0418587 0)
(-3.0581 -2.49675 -2.05884e-20)
(8.51812 -1.1453 -4.04225e-21)
(4.25059 -0.691901 -1.21258e-21)
(8.51381 -3.28315 6.02605e-21)
(10.2822 -0.0809147 0)
(10.6236 -1.17976 1.96736e-21)
(6.95486 0.801024 1.71799e-20)
(7.782 0.432363 1.32622e-20)
(8.84931 -1.43965 0)
(7.96622 0.0316399 -1.4665e-24)
(8.56285 -0.747375 -3.76069e-21)
(4.34772 9.17246 1.16858e-20)
(6.19454 -0.00598083 2.31947e-21)
(8.5163 -1.00331 3.85554e-21)
(8.27965 -0.0858061 -5.01151e-23)
(8.73716 -0.828876 0)
(10.8225 -0.391301 -1.07998e-22)
(-0.330544 -3.06073 1.30771e-21)
(9.57097 1.54497 2.10101e-21)
(7.94453 0.187704 7.88644e-21)
(6.58442 0.00500947 0)
(6.9296 0.832185 -7.61231e-22)
(13.1471 -11.1652 0)
(13.0375 4.02073 -1.06932e-20)
(8.14746 -0.107846 0)
(8.06088 -2.7793 -1.79493e-22)
(5.25798 -0.26888 -5.03248e-21)
(5.99543 3.04225 1.55165e-20)
(3.11489 9.88369 -5.40293e-20)
(7.04787 -0.872472 0)
(9.07229 0.301254 7.13648e-23)
(8.09567 0.817308 -4.21158e-21)
(0.609131 0.239319 -1.75913e-20)
(4.46058 -2.40237 1.05266e-22)
(6.52707 -0.0793659 -2.50234e-20)
(9.26219 -1.26518 3.97533e-21)
(8.35342 0.805244 2.57325e-21)
(5.67428 -1.66046 0)
(5.45071 1.49227 9.40686e-21)
(7.77828 0.320924 -6.65076e-23)
(3.46722 -1.83429 1.40758e-21)
(-0.198824 -2.85773 -4.0243e-21)
(-3.31196 4.97773 -3.72491e-20)
(11.5306 -0.361283 0)
(-1.32094 2.67909 0)
(8.29267 4.7148 0)
(8.1104 -0.336013 0)
(1.73703 -2.07428 -1.01396e-21)
(9.62804 -1.87548 0)
(7.84069 -3.44208 0)
(6.64485 0.511393 3.39451e-21)
(11.7539 -0.618986 -2.01146e-20)
(8.64067 -0.778144 -9.02248e-21)
(6.85403 1.37691 2.76246e-20)
(7.99651 0.125026 -2.06137e-21)
(9.7197 7.03443 0)
(9.61564 -1.12145 0)
(7.59863 0.259404 9.48502e-21)
(7.9953 0.0739681 1.62122e-21)
(5.04115 3.86803 0)
(-3.38475 0.925973 1.09687e-20)
(8.35254 -2.90861 7.74048e-21)
(-1.71818 1.93685 0)
(9.35802 -0.66354 5.8751e-21)
(7.85606 0.221042 -1.07955e-20)
(4.27754 -1.32899 -8.26323e-22)
(3.90734 -1.17403 0)
(7.90641 0.910761 8.11932e-21)
(10.2028 0.652867 0)
(8.71293 -0.871176 0)
(8.771 0.723909 -2.0973e-22)
(7.73272 0.381419 5.00953e-21)
(-12.7086 5.73915 -7.21843e-20)
(9.45578 2.52061 -1.00437e-22)
(5.28734 -1.22543 -9.01823e-21)
(8.09866 -0.296198 1.16697e-21)
(8.40393 0.814123 1.94384e-21)
(11.2386 -0.369415 -5.18271e-22)
(8.66834 -2.87787 0)
(9.61947 -2.373 7.6338e-21)
(5.3416 -0.0410596 0)
(7.14247 0.926923 2.61881e-22)
(9.02384 -0.967666 0)
(5.66288 0.506967 1.28186e-20)
(-3.01449 11.1361 -7.10486e-20)
(9.34048 -1.18874 0)
(1.08529 0.536179 1.55967e-21)
(9.64989 -1.22122 -9.22239e-21)
(4.96478 2.93719 -4.96936e-21)
(6.90131 -0.934632 2.43495e-20)
(5.70796 3.07287 -9.65021e-21)
(5.27212 -1.21001 -2.56641e-20)
(14.0385 3.5946 0)
(7.65107 0.357947 1.62328e-22)
(-5.16196 -2.40868 -3.72572e-20)
(8.02374 0.915102 0)
(7.20801 0.991011 6.12596e-22)
(10.1132 -0.0942612 -1.50751e-21)
(11.0954 4.41267 0)
(7.98917 0.0257457 0)
(0.949055 -1.00595 0)
(2.67016 -5.85676 4.78141e-21)
(11.2126 -6.1981 1.57219e-20)
(15.1922 -4.31632 3.15432e-21)
(9.45495 4.01731 0)
(6.73602 -0.525872 1.63694e-20)
(7.93492 0.0640002 -1.25324e-23)
(9.39033 2.36899 7.64819e-22)
(4.79673 -2.5371 2.28701e-21)
(7.62336 0.78408 0)
(7.9986 0.104392 0)
(2.89052 -0.283803 -1.4181e-20)
(5.58535 -1.61701 -6.38914e-21)
(7.6425 -0.71666 0)
(6.93007 -3.26021 -8.39365e-21)
(8.14005 0.0794458 -1.53768e-23)
(7.99974 0.0859262 -4.88045e-24)
(3.30032 -1.43292 0)
(7.15698 -0.104883 1.55374e-21)
(7.74604 0.251925 5.93184e-23)
(10.2721 0.583988 5.33069e-21)
(7.2051 -2.12659 0)
(-12.2532 8.05503 -1.59911e-19)
(10.4118 -0.205114 1.08667e-21)
(7.97083 0.384248 1.72352e-21)
(7.79075 0.122292 1.13467e-22)
(10.4018 2.73325 0)
(6.82624 1.39544 -7.32405e-21)
(12.5688 1.51044 -8.79313e-21)
(-5.75771 6.68378 7.29465e-21)
(7.98515 0.151199 0)
(4.37404 -2.40386 -1.08013e-22)
(1.87235 -0.072478 0)
(8.16805 0.196506 -6.66423e-21)
(7.96408 0.311937 3.15052e-21)
(7.41063 0.294295 -1.85381e-21)
(2.01804 -6.09371 0)
(9.65223 0.114 -4.71085e-22)
(4.42 2.18187 2.54277e-20)
(8.60831 -2.8561 0)
(6.50774 0.493625 1.04821e-20)
(9.49411 -2.42666 -3.02523e-21)
(8.54358 0.102525 0)
(4.25769 -2.65675 6.01893e-22)
(6.58124 -1.06578 -2.12154e-21)
(8.25077 0.0208252 0)
(-9.47423 8.61593 9.44284e-20)
(7.17738 0.974614 0)
(6.87797 -3.12857 8.41485e-21)
(0.637209 -3.30436 2.35781e-21)
(8.08938 0.0822016 1.37846e-23)
(9.70243 0.524948 -2.95392e-21)
(5.38111 1.46935 5.01355e-21)
(6.93611 -1.0619 -8.9182e-21)
(7.01566 -0.819221 -1.05416e-21)
(6.89711 -3.05887 8.51672e-23)
(8.44099 -1.02016 3.68421e-21)
(10.389 2.72598 7.33215e-21)
(8.03457 -3.65465 0)
(8.03522 0.127227 -6.98855e-21)
(-5.39487 2.71318 -1.44119e-20)
(5.40848 -0.0753927 0)
(7.80205 0.398532 -1.95193e-23)
(7.36959 0.0315322 0)
(4.8077 -1.21625 2.2504e-20)
(7.94372 -3.01482 0)
(7.95282 -0.0353965 -2.60272e-23)
(8.89557 -0.458534 -6.32643e-21)
(4.3 -2.79175 1.16535e-21)
(2.00892 -1.53497 2.09808e-21)
(9.96 -0.262879 -4.93555e-23)
(6.90757 -3.32217 8.13541e-21)
(6.89424 -1.94301 8.98261e-21)
(5.75544 -1.1546 0)
(-7.89897 2.89308 -1.85388e-20)
(8.73341 -2.74562 -1.56339e-21)
(-8.49061 2.80954 -2.19323e-20)
(7.99084 0.0977391 -1.13629e-25)
(5.63935 -2.12228 0)
(8.73415 0.0566941 -2.32494e-23)
(-4.18546 0.612966 0)
(3.00752 -2.56297 1.38337e-22)
(4.89684 -1.51861 1.26717e-21)
(-1.25996 0.631023 0)
(7.94647 -2.16854 2.64379e-21)
(6.21508 -3.76481 0)
(11.1673 4.19554 0)
(6.5601 -3.11698 -1.10515e-20)
(5.80708 1.53009 7.60795e-21)
(6.28379 -1.57375 0)
(6.97169 0.937599 -4.66958e-21)
(16.632 -4.00075 5.42018e-20)
(-1.08434 -3.47101 8.44892e-21)
(11.2474 5.68048 0)
(8.3815 -0.0187216 0)
(-5.57583 -2.38862 -1.94922e-20)
(7.31606 -0.306509 0)
(9.77136 0.294095 0)
(-1.21474 -10.0112 -3.1126e-21)
(7.95937 -1.58833 -1.23688e-20)
(6.76364 -1.58634 7.6042e-21)
(11.1827 -2.11467 1.41977e-21)
(-7.68437 2.21501 3.45183e-20)
(7.88721 0.229116 3.64255e-21)
(5.91724 -1.26989 0)
(8.77017 1.90598 -8.50745e-22)
(5.52401 -0.609299 0)
(9.60416 0.120126 0)
(7.90916 0.39627 0)
(8.76587 0.692743 -1.6826e-22)
(7.26143 -0.05335 6.93951e-21)
(8.42298 0.184915 -1.16891e-22)
(6.06569 -1.33604 0)
(-11.6124 4.6294 -4.65045e-20)
(8.23815 4.49186 6.92083e-22)
(7.17831 -2.57132 8.71602e-22)
(7.67942 -0.185095 -2.4934e-21)
(9.00928 -2.30226 1.26558e-20)
(8.04128 0.0802529 -6.30359e-21)
(-1.92097 11.3638 0)
(10.2932 -0.23583 0)
(5.4661 3.63368 0)
(4.84686 -2.0982 -1.65545e-20)
(5.25165 -3.1831 -1.89081e-21)
(-0.24681 -1.25428 0)
(8.897 1.87946 0)
(10.7115 -0.835699 9.15675e-22)
(7.922 -0.182881 -1.83982e-21)
(7.62571 2.68058 6.74921e-21)
(8.22771 -3.40264 0)
(-10.3008 1.59786 -1.84583e-20)
(9.16219 0.340101 -8.19411e-22)
(5.46802 -1.47745 -1.51944e-20)
(8.83972 0.352527 -5.69078e-22)
(9.44418 2.36363 1.45224e-22)
(7.93916 -5.18942 5.44186e-21)
(4.78068 -2.06374 2.85345e-20)
(6.96944 -2.38317 3.69646e-21)
(8.30833 0.269236 4.09286e-23)
(7.9439 0.0444438 -1.84092e-21)
(6.2058 -3.03108 -2.54546e-21)
(6.51911 -1.02333 9.62329e-22)
(6.94919 9.42562 1.11433e-21)
(6.76812 -3.22415 4.37929e-21)
(10.3328 0.283877 0)
(4.63068 -2.71514 2.73449e-21)
(8.4376 0.0485351 -4.49179e-21)
(11.751 2.88668 4.57731e-21)
(5.37991 -1.34172 -1.38362e-20)
(7.12919 -2.47464 -9.29087e-21)
(8.23786 -0.146498 1.74831e-20)
(9.59487 -0.330036 -1.00473e-20)
(6.21077 -1.06461 9.14882e-22)
(11.5763 -0.13479 -8.61172e-21)
(4.50044 -0.451029 -3.01422e-20)
(8.51946 -0.0164388 -3.29023e-21)
(4.45012 -0.753271 0)
(4.1184 -3.1154 -2.88312e-21)
(8.00654 0.0922696 1.63111e-20)
(7.42525 0.00736828 -9.95023e-24)
(-1.0244 -0.445702 0)
(7.28327 -3.36496 0)
(8.1377 1.82472 5.63207e-21)
(3.94096 -0.40543 1.87356e-20)
(5.92705 -4.90141 -6.01243e-21)
(8.17308 -2.76309 -4.76063e-21)
(8.61857 -1.67749 1.06461e-20)
(12.9443 2.4281 0)
(8.14815 2.0418 2.97745e-21)
(5.18954 -1.61055 -1.16925e-22)
(10.2434 4.11501 5.17753e-21)
(7.74749 -0.967016 -1.06431e-20)
(-7.13135 2.21091 -5.35064e-20)
(8.96609 -2.17132 -1.23565e-20)
(9.65872 -2.56144 4.17383e-21)
(9.14529 4.85134 0)
(7.8098 -1.17412 -1.66499e-21)
(7.43136 0.222163 1.71925e-21)
(7.96872 0.0611801 2.95843e-24)
(3.84857 -1.84382 2.64674e-20)
(7.56288 -0.947465 1.60299e-20)
(7.95493 1.29947 -2.87251e-24)
(-0.997307 -3.03968 -4.39277e-21)
(8.85471 -0.399057 -4.3369e-21)
(8.50413 0.083054 2.92133e-21)
(-6.99804 -5.43631 -7.11663e-21)
(9.86981 4.01176 -5.88527e-21)
(-10.7864 8.9744 -1.02599e-19)
(5.04939 -2.4208 -8.76309e-21)
(7.9655 0.0332691 0)
(8.29038 0.51559 -1.80476e-22)
(-1.29666 -7.61591 -8.63198e-21)
(5.23814 -0.379962 2.69395e-20)
(8.17159 0.0880073 0)
(8.76504 -0.965147 6.78794e-22)
(4.60144 -1.72449 6.45845e-21)
(7.90604 0.187532 -1.54631e-20)
(-2.59941 -0.821124 -7.36204e-21)
(6.21649 -1.56014 -6.66855e-22)
(8.63655 -0.82562 6.18339e-21)
(9.0521 0.236929 -3.2076e-22)
(6.9628 -3.18256 -1.16612e-20)
(8.47804 0.190022 1.44394e-22)
(5.25025 -3.46497 -5.01176e-21)
(8.42177 0.0477596 4.21423e-21)
(8.09181 -0.256024 -5.03542e-21)
(8.59657 0.491163 -1.22814e-22)
(8.79865 -0.132975 -1.07048e-20)
(4.42337 -1.80328 -1.24771e-20)
(8.25514 0.317715 0)
(3.0529 -4.21167 2.44459e-21)
(8.15806 0.121626 1.21219e-21)
(3.23769 -1.16593 -1.7204e-21)
(9.61496 0.149984 -2.31931e-21)
(8.42915 -1.64938 -6.59041e-21)
(7.97625 0.0368268 -1.15337e-20)
(8.41175 1.34705 1.5321e-21)
(-3.49268 0.317599 -1.12745e-20)
(9.77067 0.271871 0)
(6.88888 0.718565 3.93718e-22)
(10.4322 0.105571 6.78761e-22)
(5.66226 -2.05175 0)
(8.59165 0.39496 2.22232e-21)
(10.4335 0.315734 5.15824e-22)
(9.65836 0.258921 1.2096e-25)
(9.64547 -3.65179 -1.02288e-21)
(7.09064 -0.168679 0)
(7.09536 1.44037 1.32337e-20)
(8.11157 1.08645 1.26512e-22)
(6.65308 -3.14477 9.49086e-21)
(7.9124 -0.721976 0)
(5.7626 1.53292 -2.20555e-20)
(5.59855 -1.38874 8.44102e-23)
(10.2757 6.00663 -1.20775e-20)
(4.55554 -0.521856 2.94943e-20)
(8.36187 -0.00185658 1.61569e-22)
(1.41542 -1.47196 1.88693e-21)
(7.65598 -0.280301 -1.08629e-20)
(9.99315 -2.05953 -1.12759e-20)
(6.85473 0.763658 -9.90343e-21)
(8.35798 0.0630039 0)
(7.98297 0.100125 -6.9327e-21)
(-1.61738 -0.50416 4.47237e-21)
(-2.93856 -3.44656 0)
(9.01808 -3.74538 0)
(7.96413 0.041989 0)
(-7.82693 7.7683 0)
(8.20202 1.33156 0)
(4.26332 -0.404718 0)
(7.40965 -1.7141 -7.24874e-23)
(13.9402 -4.38756 -2.11681e-20)
(10.3506 1.29142 0)
(6.82384 1.31032 1.98081e-20)
(6.76394 -1.83702 -2.09626e-21)
(8.33144 0.894322 2.04818e-22)
(-1.24448 -8.34394 -6.68363e-21)
(4.36503 0.527921 -9.18361e-23)
(-2.86899 0.0201791 7.36271e-21)
(8.78322 0.00437018 -3.92433e-21)
(10.3832 -0.116923 9.71361e-22)
(8.06133 1.23078 -3.88582e-21)
(7.5923 0.744903 -1.30802e-20)
(8.0011 4.19846 -3.41321e-21)
(13.937 4.54566 0)
(4.50838 -2.55906 3.90841e-22)
(4.85313 -1.25768 -2.46399e-20)
(8.13095 0.00331932 -2.11559e-20)
(8.83118 -2.72395 -9.29716e-21)
(8.389 -0.159162 1.73037e-21)
(10.2949 -2.72717 1.25319e-21)
(8.22959 -1.29318 -1.39318e-21)
(7.99918 -2.12795 -9.17213e-21)
(8.03596 0.670702 4.36531e-21)
(9.04547 6.80938 0)
(7.00418 -0.67155 -9.81453e-22)
(6.74662 0.419359 -3.08157e-21)
(9.61947 -1.79605 0)
(6.77685 0.0142547 0)
(7.30225 -3.34787 -7.2862e-23)
(1.68977 -1.64391 1.9041e-21)
(7.37398 -1.74877 -4.25868e-21)
(7.28067 0.212663 0)
(7.56193 -0.117644 -1.41813e-20)
(7.13369 1.02784 -2.55486e-21)
(3.41096 -3.51753 1.26607e-21)
(10.241 0.518632 4.37804e-22)
(-2.06968 -0.43465 0)
(4.39099 -2.52085 4.62258e-22)
(10.3 0.347359 0)
(7.64099 -1.13485 1.82334e-21)
(10.0919 -1.21241 -1.72744e-21)
(8.05547 0.0700545 -1.85724e-23)
(9.54783 2.59707 3.03597e-21)
(11.0767 4.99915 -1.17981e-21)
(6.71948 -1.86278 1.85848e-20)
(4.58422 -2.25788 0)
(6.19509 -3.27771 -4.67662e-21)
(6.06525 -1.85354 0)
(10.5399 1.21306 -2.25856e-21)
(3.29074 -3.44272 2.19809e-21)
(8.92583 -3.63173 8.37162e-21)
(6.80947 0.580719 -4.62561e-22)
(1.52281 -7.49094 -1.13427e-20)
(5.9829 -2.80322 -1.09616e-20)
(5.03354 -1.29874 -1.43265e-20)
(7.66708 0.296579 1.39416e-23)
(6.33026 -3.15499 3.81017e-21)
(4.50147 -1.85044 1.02288e-20)
(5.25974 -1.42464 1.55209e-20)
(5.02511 -2.99861 2.18947e-21)
(6.72649 -3.54004 -2.51359e-21)
(7.08308 -2.19192 9.22446e-21)
(0.931774 10.3982 4.92925e-20)
(8.49037 0.0633023 1.20066e-22)
(5.39936 -1.53643 1.4953e-21)
(9.30034 1.69031 1.72505e-22)
(8.65875 -2.2603 0)
(-4.4103 5.14388 -7.61315e-20)
(8.27252 -0.0319766 -5.45813e-21)
(7.98329 0.525424 0)
(10.4442 1.14465 0)
(5.93642 -2.56098 -2.7571e-21)
(10.7637 -2.96924 -1.30938e-20)
(9.65843 0.74043 4.5544e-21)
(7.91604 -1.50466 1.62569e-20)
(7.85851 3.9957 3.49477e-21)
(7.22917 -0.0324635 1.13502e-20)
(3.01258 -3.79864 -2.46213e-22)
(7.19764 2.76974 0)
(5.38107 -1.55798 1.48167e-20)
(0.724904 -0.301644 2.68609e-20)
(1.44621 -7.29201 8.1632e-21)
(6.65269 -2.467 3.13381e-21)
(7.3186 -3.40083 -2.69261e-21)
(8.54906 -0.00923938 5.51631e-21)
(6.80259 0.25109 3.48756e-22)
(8.68644 -1.31509 8.17709e-21)
(2.85742 -3.96202 -1.6404e-21)
(9.53837 0.739232 -3.38109e-21)
(7.61316 0.215725 5.56496e-21)
(4.41854 -0.717 -1.21351e-20)
(7.24783 -0.230469 8.93658e-21)
(6.40224 -1.08997 0)
(9.61865 1.47577 -3.35223e-21)
(7.74081 0.223881 1.22643e-21)
(5.70921 -1.00133 -4.73166e-21)
(8.07767 7.21625 4.08371e-21)
(6.99956 -2.135 6.844e-21)
(8.12156 0.0483115 2.415e-21)
(5.36595 0.884552 -1.72959e-20)
(9.73444 -1.8096 0)
(6.93397 0.585599 -7.91713e-22)
(8.93668 0.349309 7.84855e-22)
(7.58175 -0.26089 0)
(5.57593 0.438546 9.97806e-21)
(10.139 0.450513 0)
(7.11129 7.48108 -1.14715e-21)
(9.37292 -0.13914 0)
(7.02559 -0.752288 0)
(9.96988 -0.0850265 1.1907e-21)
(9.57774 0.666114 -1.92552e-21)
(11.689 0.531438 -1.40018e-20)
(7.63731 0.663286 -5.87765e-21)
(6.14945 4.54824 -3.91643e-21)
(8.16037 0.363397 -2.12326e-21)
(8.34752 1.3184 0)
(14.2063 1.60997 -9.56211e-21)
(9.83741 0.510933 3.85346e-21)
(7.68186 -1.11208 -3.74872e-21)
(8.66805 -2.2372 0)
(11.9047 2.80598 6.84592e-21)
(8.9338 7.10544 8.58146e-22)
(8.44554 0.0754669 4.12335e-22)
(5.80573 -8.1806 0)
(-1.00008 -9.39853 3.64406e-20)
(8.10277 0.61176 0)
(8.91211 -1.14956 -4.13472e-21)
(3.43875 -2.38661 0)
(15.9632 0.565033 0)
(6.89303 -2.51663 0)
(7.80012 -2.99343 0)
(-7.86847 -2.66852 -1.18919e-20)
(2.94238 -5.40166 -9.75136e-22)
(7.29063 -0.0548727 -1.03659e-20)
(4.19513 -2.81748 -1.4326e-21)
(4.86946 -1.98116 0)
(4.37448 -3.31434 -1.27083e-21)
(2.50386 -1.40824 -6.04271e-20)
(6.14209 -2.82972 0)
(5.65982 -1.88877 -1.60125e-20)
(7.76136 0.557822 4.11512e-25)
(9.24063 1.54836 -7.09633e-22)
(9.30592 -3.29546 2.71248e-21)
(7.47264 0.643493 0)
(8.40468 -2.75575 0)
(13.9642 0.705258 8.08713e-21)
(6.48623 -0.832506 2.35661e-22)
(7.66181 0.369479 -1.34498e-22)
(5.89408 -2.54262 3.36566e-23)
(8.03035 0.0623524 5.11123e-22)
(8.25164 0.517968 8.16401e-24)
(8.094 0.741547 6.1661e-21)
(7.09555 0.776313 3.47022e-22)
(7.2533 -1.98992 0)
(-12.7549 4.7023 0)
(8.35889 0.205739 0)
(7.67174 0.0747566 0)
(6.7584 -1.14585 6.62248e-21)
(10.7603 -0.372794 0)
(-3.55715 -7.69095 1.09162e-19)
(7.62199 -5.10127 -3.68334e-22)
(5.10772 -1.44563 -2.34551e-20)
(6.64618 -1.7968 1.34721e-21)
(3.31127 -4.34082 -1.34464e-21)
(-0.0616589 -8.78117 -7.10992e-20)
(7.93655 0.0737911 1.91752e-21)
(1.96962 -4.35044 -2.04648e-21)
(7.19809 0.838995 4.04808e-22)
(10.0428 -0.0754963 0)
(9.09597 -1.62032 0)
(6.81784 -2.24915 0)
(8.42693 -1.72821 3.49524e-21)
(6.54121 -3.75936 0)
(7.35137 2.69559 0)
(7.98229 0.0572494 0)
(6.84848 -1.58077 7.1034e-21)
(8.28506 0.876503 -5.16623e-21)
(7.28984 0.0636843 0)
(7.61307 -1.72617 -4.05244e-21)
(7.95971 0.89476 -6.49435e-21)
(10.28 3.90439 -1.10913e-20)
(6.19711 -2.79509 9.82322e-21)
(7.58527 2.99199 4.49641e-23)
(6.59724 -1.2937 -1.78293e-22)
(6.66319 0.0256644 8.85492e-22)
(7.07414 -1.04932 -2.03852e-21)
(9.52474 0.757773 2.74589e-21)
(7.6614 0.363315 -2.81618e-22)
(7.24505 0.422431 -9.75924e-21)
(8.36519 0.0275824 0)
(4.68488 -1.39132 1.29872e-21)
(7.67107 0.252153 9.79257e-21)
(5.46555 -1.611 3.45478e-22)
(8.23608 -1.215 -4.07114e-21)
(4.06831 -0.520605 -2.03796e-20)
(9.44348 0.639109 -4.89767e-22)
(12.6498 1.71591 1.27204e-20)
(8.06223 0.433803 0)
(8.19289 -4.66054 4.4601e-21)
(7.08368 0.230563 -2.87783e-22)
(7.06323 -1.08679 3.87981e-21)
(4.37762 -2.44273 -2.60959e-21)
(7.88931 0.061163 5.24662e-21)
(8.32073 0.301666 -5.73927e-23)
(8.17242 -0.0124712 -1.01144e-22)
(8.28064 0.182269 0)
(5.79426 -1.24284 0)
(5.76229 -2.70281 1.21489e-20)
(-2.34931 -0.4862 7.95199e-21)
(7.99411 0.0626538 -2.77438e-24)
(7.79722 0.265771 1.96443e-20)
(8.24957 -4.75078 -1.10783e-20)
(5.73317 1.38763 0)
(7.23014 0.587271 0)
(6.16313 -1.21101 -6.68971e-23)
(9.92217 -0.0878959 1.78528e-21)
(7.74237 2.70447 8.7158e-21)
(9.82209 -0.83089 0)
(8.81005 -0.000365473 0)
(8.01215 -2.34447 1.30528e-20)
(7.71281 -0.612949 8.483e-21)
(0.454437 -0.218629 -6.8406e-22)
(7.64537 -0.112949 0)
(15.2884 1.81474 1.4795e-20)
(8.05268 -2.27487 -1.59604e-21)
(-1.16294 -7.08658 -1.15649e-20)
(7.83998 -0.0330239 -1.13899e-20)
(14.1222 -3.18183 0)
(11.0535 -2.94902 1.03002e-20)
(6.66294 -7.58223 -1.19753e-20)
(0.458511 -0.0298664 0)
(7.63755 0.0585923 -2.19248e-22)
(7.6356 0.531404 -6.41874e-21)
(8.02783 0.035429 -1.32948e-25)
(10.4688 -1.23783 9.99555e-22)
(6.63965 7.13236 1.51901e-20)
(8.51261 -0.0101637 0)
(3.98141 -1.29152 -1.27785e-22)
(8.53953 -3.72857 8.2384e-21)
(10.457 -10.6759 -4.89907e-20)
(8.20416 1.2861 4.60145e-21)
(4.61894 -2.18912 5.63923e-22)
(7.93747 -0.00251553 -2.49197e-20)
(7.93258 1.43485 -2.24376e-24)
(6.63125 0.328462 7.8728e-22)
(6.72318 -1.43769 0)
(7.18475 0.0865031 -1.64886e-21)
(4.3502 -1.89439 8.27021e-21)
(8.7603 -0.407527 -1.20881e-20)
(7.76995 0.175682 -8.87536e-21)
(8.70736 -1.1144 3.77107e-21)
(6.57357 -0.429764 2.38321e-20)
(8.39827 -0.0255472 -1.55313e-22)
(7.06528 0.6142 5.61888e-21)
(7.84135 0.342825 5.5206e-24)
(11.2213 -2.17351 -1.62438e-20)
(10.0843 4.34774 -8.54948e-21)
(6.05981 -5.05346 4.67928e-21)
(8.16017 -0.137878 0)
(5.43473 -2.12216 0)
(4.19309 -1.97808 0)
(5.13759 -1.33191 1.80293e-20)
(8.04637 0.0883494 -1.42202e-20)
(7.2089 1.0908 0)
(5.84571 -1.07187 -1.40281e-20)
(7.10025 1.03637 0)
(6.80998 -0.996112 -1.08862e-20)
(7.45893 -1.08419 -3.90216e-21)
(7.18121 -1.84604 -1.00434e-20)
(8.58605 0.0476146 0)
(7.75317 0.239485 0)
(7.62831 -0.347406 2.24704e-21)
(10.2865 1.05571 2.60559e-22)
(10.2482 -0.395565 6.83224e-21)
(9.55133 7.30003 -6.49252e-22)
(9.96418 -1.07323 0)
(6.69364 -2.3847 -5.19e-21)
(-5.29049 -4.1528 0)
(2.8082 3.36181 -9.13828e-21)
(11.2428 4.9244 0)
(8.36982 0.282104 1.27313e-22)
(4.5381 -0.335514 7.82124e-21)
(5.78323 -0.238762 7.73174e-21)
(7.66541 -0.123997 -2.21551e-21)
(7.38001 -4.68021 -1.95812e-20)
(7.725 -0.733445 2.14627e-20)
(8.15738 1.33265 -2.05544e-22)
(9.48743 -2.64115 -1.48835e-21)
(7.6739 -1.66814 -5.02625e-21)
(-1.6174 -0.0493455 2.43161e-20)
(10.4827 1.77298 0)
(7.93668 0.175902 4.55891e-23)
(5.96837 -1.34666 0)
(6.70766 0.321931 -7.87443e-22)
(6.77038 -2.3934 -2.70047e-21)
(6.6161 -0.326949 -7.84178e-21)
(7.94331 0.0877526 1.6282e-24)
(10.1511 0.152964 -6.19444e-21)
(6.60423 0.032924 1.60007e-20)
(9.52502 -0.481193 -3.96748e-21)
(7.7359 0.41536 0)
(-10.5896 0.722857 0)