/*--------------------------------*- C++ -*----------------------------------*\
| =========                 |                                                 |
| \\      /  F ield         | OpenFOAM: The Open Source CFD Toolbox           |
|  \\    /   O peration     | Version:  2306                                  |
|   \\  /    A nd           | Website:  www.openfoam.com                      |
|    \\/     M anipulation  |                                                 |
\*---------------------------------------------------------------------------*/
FoamFile
{
    version     2.0;
    format      ascii;
    arch        "LSB;label=32;scalar=64";
    class       surfaceScalarField;
    location    "8.5";
    object      phi;
}
// * * * * * * * * * * * * * * * * * * * * * * * * * * * * * * * * * * * * * //

dimensions      [0 3 -1 0 0 0 0];

oriented        oriented;

internalField   nonuniform List<scalar> 
7520
(
-0.942999
0.763384
0.179615
-1.31116
-0.199527
1.51069
-0.0898033
-1.84609
1.9359
0.245628
-0.0352273
-0.210401
0.194894
2.21601
-2.41091
-0.0964979
0.10392
-0.00742166
-0.314855
2.11849
-1.80364
-0.16826
-2.15075
2.31901
-1.54408
1.45428
0.811859
-0.106334
-0.705526
0.410387
0.135944
-0.546332
-0.244584
-1.51468
1.75926
0.543149
0.0491015
-0.592251
-0.105859
0.145927
-0.0400682
-2.33727
0.991387
1.34588
0.0657551
1.49169
-1.55745
0.332958
0.0232883
-0.356247
0.153105
-0.548706
0.395601
0.0310837
0.0252856
-0.0563693
-0.120137
0.453095
-0.419181
-0.252559
0.67174
-1.02464
1.0904
-0.050464
-0.33372
0.384184
0.155128
-0.150825
-0.00430269
0.0726413
-0.104297
0.0316557
0.264292
-0.254763
-0.00952941
0.883292
1.1147
-1.99799
-0.0443692
0.34012
-0.295751
-0.0132355
0.0443192
0.242772
-0.04474
-0.198032
-1.06949
1.6911
-0.621608
-0.0516113
-0.0202883
0.0718996
-1.85159
2.03427
-0.182683
0.3318
-0.557064
0.225264
-0.309539
-1.2296
1.53914
-0.30596
0.936192
-0.630232
0.267232
-0.560338
0.293106
0.833195
-1.60329
0.770096
0.0909644
-0.322195
0.231231
-0.0537138
-0.117032
0.170746
-0.0277528
0.273381
0.132634
-0.592309
0.459675
0.298957
-0.0346651
2.01464
-1.57778
-0.436862
-0.559477
-0.580001
1.13948
-1.46384
1.59186
-0.128017
-0.0811912
-0.217722
0.298914
0.278467
-0.0846012
-0.193866
-1.30646
0.236973
0.287612
-0.0811677
-0.206444
1.78
0.173186
-1.95318
-0.709746
0.235786
0.47396
-0.0277412
0.0260922
0.00164901
1.06918
0.504725
-1.5739
0.0149104
-0.111408
-0.770775
0.110271
0.660504
0.367726
-1.25547
0.887749
-0.0474915
-0.127058
0.17455
-0.126259
0.0746481
-2.30965
1.22703
1.08262
1.56513
-0.678008
-0.887121
0.0547552
0.138825
-0.19358
-1.28063
0.971091
0.759466
-0.216317
-0.000826078
-0.0269151
0.00444738
-0.110306
1.20658
-2.52794
1.32136
0.125854
1.65414
-1.27961
0.989529
0.290078
0.332828
-0.247587
-0.085241
-0.525179
0.892905
-0.359191
-0.474222
0.833413
0.361943
-0.0955991
-0.266344
-0.371223
0.286223
0.0850007
1.06043
-1.63517
0.57474
0.137651
-0.119963
-0.0176882
1.89795
-0.523245
-1.37471
0.4308
-0.773156
0.342356
1.55765
-1.06617
-0.491473
-0.846377
0.075602
-1.57106
-0.738586
0.784416
-0.781716
-0.00269994
0.235217
-0.637314
0.402097
-0.201526
0.533326
-0.456677
0.609781
0.262128
-0.0193562
0.0237445
-0.0442204
0.0204759
1.23972
0.658227
-2.0039
2.45356
-0.449662
0.708896
0.856233
-1.01518
1.1137
-0.0985235
-0.00690298
-0.0901784
0.0970813
1.36934
-1.61393
0.252385
0.200652
-0.109688
-0.175216
0.40215
-0.226934
0.0072102
0.0934701
-0.10068
-0.545909
0.375863
0.170046
1.48662
-0.426192
-0.758639
0.637829
0.12081
1.19233
-1.36966
0.177326
-0.0943284
0.118983
-0.0246541
0.153566
0.034528
-0.188094
2.70687
-1.79205
-0.914819
0.541071
-0.392794
-0.550205
-1.34349
0.818314
-1.92319
1.60833
0.176875
-0.0816968
-0.0951779
0.536187
-0.1258
-0.172086
0.170771
0.00131432
-0.0860074
0.105283
-0.0192754
2.00612
-1.17292
-0.16241
0.0226545
0.139755
-0.760699
0.341518
0.0404172
0.00197268
-0.0423899
0.757005
0.0274106
-0.738556
0.468487
0.270069
0.468429
-1.46475
0.996317
0.0474965
0.107631
-0.168656
-0.54109
-0.333658
0.0779783
0.25568
0.957137
-0.145277
0.706701
-0.647265
-0.0594357
0.00604704
-0.0993625
0.0933154
-0.280531
0.264
0.0165315
0.721055
-1.90149
1.18044
0.401559
-0.452023
-0.345988
-0.0654508
0.411439
-0.0483627
-0.114047
-0.377625
-0.15009
0.527715
0.152098
0.0330054
-0.185103
-0.0654639
0.217562
-0.559969
-0.178587
-0.592093
-0.379166
0.971259
-1.5989
2.5799
-0.980997
0.35185
-0.366272
0.0144218
-1.14321
-0.200283
-0.0357151
-0.0539881
0.0897032
1.43068
-0.361501
-0.630844
0.435551
0.195293
-0.0873909
0.300207
-0.212817
0.31028
-0.078398
-0.231882
0.256599
-2.10269
0.32259
-1.78643
-2.53304
1.2272
1.30584
-0.84588
-0.433728
-1.8995
1.92134
-0.0218421
2.19953
0.156395
-2.35593
0.19932
-0.253033
0.969399
-0.316743
-0.652656
-0.265076
-0.137244
0.40232
0.379937
-2.27943
-1.849
-0.00258835
0.0136945
0.01005
0.0683781
-0.131954
0.0635754
0.296045
-0.343537
1.39916
-0.206832
-0.162231
0.134478
-0.0141149
0.00135372
0.0127612
0.778887
-0.42416
-0.354727
-0.464706
-1.87257
-0.090085
-0.174991
0.0444295
-0.598159
0.55373
0.196702
0.244099
-0.440801
-1.5012
0.88712
0.614079
1.16916
-0.97427
-0.130486
0.507536
-0.37705
-0.136054
0.208695
0.540373
-0.258913
-0.281459
0.51311
-0.688326
0.244826
-0.325994
0.865063
0.304655
-1.16972
0.312424
-0.356793
-0.316773
-1.43604
1.75281
1.27828
0.666167
0.706973
-0.471755
-1.30047
0.99451
-0.700293
0.936028
-0.235735
-0.0046837
-0.0300212
0.0347048
0.246807
-0.284235
0.037428
-0.372717
1.12972
-0.274043
-0.167539
0.441582
0.354824
-0.158123
-0.870156
0.914585
0.572203
-1.03494
0.462738
-0.493949
-0.0519599
0.696742
-0.42951
0.149274
-0.0116233
-0.0583352
0.107636
-0.0493007
0.0756278
-0.161635
-0.5263
-0.0591808
0.585481
0.13455
0.227393
-1.10261
-0.532557
-0.755809
-0.745391
0.0134018
0.090775
-0.104177
0.713063
0.0176416
-0.730704
-1.66514
0.0662369
-1.22841
2.24187
-1.01346
0.371
0.169372
-0.302605
0.40497
-0.102365
-0.754769
0.586113
0.549868
-1.10934
1.74084
-0.0537771
-1.68707
-1.43243
1.90097
-0.46854
-0.0264972
0.0948754
0.36002
1.54894
-1.90896
0.0353757
-0.174255
0.13888
-0.139566
1.81824
-1.67867
-0.000390316
0.12757
-0.127179
-0.911538
1.26624
-0.354697
-0.0965182
-0.658251
-0.0591315
-0.467169
0.280699
-0.194136
-1.97726
2.1714
0.0378898
-0.0126042
-1.83771
0.735093
-0.561095
0.0403927
0.520702
0.108171
-0.102124
0.133992
1.5783
-1.71229
-0.493812
-0.604321
1.09813
-0.533009
0.422284
0.110725
2.98341
-1.97298
-1.01042
0.498084
-0.991897
0.080096
-0.0776883
-0.0024077
0.0962413
0.751533
-0.847774
0.0565229
-0.0593693
0.00284639
0.840527
0.80316
-1.64369
-0.254238
-0.504401
-0.090401
0.228533
-0.138132
-0.922188
0.682974
0.239213
-0.0838058
0.0442723
0.0395335
1.17454
-0.461479
1.02476
-1.90142
0.87666
-2.743
1.18836
1.55464
-1.15254
-1.59045
-0.35068
0.441892
-0.0912119
0.220652
-0.1249
-0.0957517
1.07373
-1.72833
0.654604
0.0304563
1.09073
-1.12119
-0.396092
-0.385624
1.09654
-0.231478
1.33473
1.29837
-2.6331
-0.194302
0.0951637
0.0991388
0.0174158
-0.939603
1.85605
-0.443942
-1.4121
0.14267
-0.107294
-0.0249078
0.431409
-0.40812
1.03253
0.823515
0.161009
0.670507
-0.831516
0.381377
-0.0412572
-0.062331
-0.00507617
0.0674072
0.382205
-0.279324
-0.10288
-1.83753
0.886312
0.951214
0.246174
-0.0255224
0.885916
-1.47801
0.0613177
-0.117604
0.0562861
0.13947
0.138997
-1.61687
1.56244
0.054427
1.14138
-0.569176
0.000419384
-0.0276049
0.0271855
0.0244005
-0.0391641
0.0147636
0.13186
-0.22746
1.77346
-0.566882
-0.138914
0.375459
-0.236545
0.00076999
-0.0148849
0.677953
-0.542008
0.60101
-0.19886
-0.675108
0.705564
0.0310605
-0.0893957
2.11849
0.00741417
-0.0136079
0.00619374
0.171033
0.429977
-0.212973
0.139227
0.0737454
-0.0606693
0.214236
0.583012
-0.450379
1.21897
-0.249571
0.469815
-0.380612
-0.0892024
0.313811
-1.22535
-0.0173624
-0.360262
-2.16003
1.96589
0.0469411
0.0331549
-2.32829
0.252636
-0.340027
0.110191
0.178345
-0.288536
-0.621908
-1.21562
1.35703
1.34984
1.65202
-0.764904
-1.51468
0.113009
0.593692
0.28033
-0.263316
-0.0170135
0.177383
-0.255067
0.0776838
-1.21214
0.632135
-0.221178
-0.260543
0.481722
0.260293
-0.366626
-0.0974335
-2.00964
2.10708
0.935288
0.228712
-1.52374
1.29502
0.950082
1.08419
-1.17601
1.56615
-1.20613
-0.0608517
0.409162
-0.34831
-0.859141
0.754495
0.104646
-0.234245
0.0953303
-0.0936453
0.345209
-0.251563
-0.228572
-0.239279
0.467852
-0.536318
1.81459
-0.299223
-0.371206
0.670429
-0.424388
0.343197
0.212861
-1.22804
-0.114016
0.051685
0.00959114
-1.94164
0.970069
0.971574
0.411215
-0.362113
0.00901082
-0.0197758
0.371626
1.30699
1.67642
1.64865
-0.489379
-1.15927
0.128524
-0.046204
-0.0823203
0.618191
0.939456
0.146117
0.134212
0.488277
-2.17685
1.68857
-0.0918886
0.0736036
0.0182851
0.892886
0.593736
-0.223598
-0.098597
0.707134
-0.546125
-0.551976
1.43527
0.166324
0.0105508
1.25535
-0.786925
0.154475
-0.147264
1.80157
-0.152924
0.106955
0.427325
0.0424902
0.0209918
0.311837
-1.75
-0.850722
0.905504
-0.0547818
0.00652948
-0.126492
1.83883
0.0158735
-1.8547
-0.734652
0.43543
0.241753
0.0685274
-0.321743
0.0741552
0.0346003
-1.10077
1.54938
-1.58654
0.0371587
0.000367796
-0.234531
0.234163
-0.615964
1.50885
-0.843997
1.56505
0.0180843
-0.0177165
0.725594
-0.257107
1.94572
-0.576376
-0.00150585
0.160377
-0.158872
-0.0904744
-0.0764829
0.166957
0.125817
0.00270788
-0.319967
-0.714611
-0.00795548
-0.281226
0.289182
1.1403
1.4396
-1.56603
1.24926
0.123058
-0.469045
-1.2197
0.860509
-1.12992
1.33775
-0.207831
0.524649
-1.66422
1.52465
1.73137
-0.491643
1.33049
0.68415
-0.0735032
0.263029
1.28635
-1.31698
0.295294
1.02169
0.278305
-0.323045
0.212165
0.0340091
-0.222987
0.157523
-0.16369
-1.41409
0.396467
-1.22288
0.826416
-1.54309
1.06573
0.477366
0.373318
-0.847539
-0.21712
0.271875
0.0969574
-0.267134
0.188129
0.0790052
-0.576571
0.446085
1.16166
0.569705
-1.43243
-0.124011
-0.15652
1.64809
-1.45317
-0.194919
-0.378818
1.92776
-1.64587
2.44182
-0.795953
-0.684797
0.99025
-0.305453
0.0752528
-1.35588
0.124133
-0.249033
-0.290321
0.442817
-0.152497
0.131441
-0.0969133
1.34341
0.634626
-1.15261
0.51798
-0.0259404
-1.55197
1.57791
-0.0565737
-0.115512
0.00597412
-0.446186
0.440212
-0.31772
0.916986
-0.599265
0.208465
-0.144179
-0.0642854
0.396973
-0.279917
-0.117056
-1.98347
1.78394
2.58086
-0.530706
-2.05015
0.0728771
0.00525638
-0.0781335
-0.00118843
0.178572
0.124765
-0.618714
-0.837578
1.67811
0.0458202
-0.00540301
1.74084
-1.00195
1.09819
0.0740524
-0.0740524
-0.326315
0.420752
-2.42465
2.24894
-0.925827
-1.32311
-1.48958
0.818688
0.670895
-0.0004226
0.0557316
-0.055309
1.00133
-1.18144
0.180113
-0.559686
-0.181368
0.741054
0.464946
-1.88229
1.41734
-0.0657587
-0.793382
-0.217217
0.126743
-0.165908
-0.553905
0.719813
0.691864
0.460549
-1.15241
-1.39677
-0.427764
0.697534
-0.26977
-0.675375
0.860195
-0.18482
1.45494
-1.32095
0.314767
-0.322722
0.101268
-0.293533
-0.0776906
-1.61344
1.79768
-0.184237
-1.11166
1.66344
-0.551779
-0.0195962
0.14678
-0.127184
-1.73481
-0.793132
-0.026521
0.0132854
-1.69205
0.463643
-0.388638
0.294993
-0.155794
-0.529003
-0.0643753
-0.0275133
-0.782363
2.11709
0.0565846
-0.390304
-1.53101
0.143916
1.38709
0.178436
-0.167518
-0.0109179
-0.896505
0.196212
0.233441
-0.591747
0.358306
1.60655
-0.15476
-1.45179
-0.011623
0.240075
-0.228452
-0.344706
0.405753
1.19547
-1.60122
-0.744122
1.73551
0.143173
0.682795
0.747883
0.00702065
1.56484
0.236727
-1.41136
1.38542
0.36787
0.00453891
-0.372409
0.461365
0.0194617
-0.480827
-1.96303
0.317162
-0.0216747
-0.570634
-0.552154
-0.298568
0.272582
0.756592
-0.180826
-0.575767
0.196202
0.102755
-0.520522
1.24143
-0.720907
0.167842
-0.244325
-0.0562328
0.30304
0.254476
-0.544797
0.182403
0.3643
-0.546703
-0.0882984
-0.0591317
0.14743
0.512201
0.167436
-0.679637
-0.00570754
-0.14943
0.155138
-0.30214
0.333782
-0.0316422
-0.00879267
-0.245031
0.253824
0.352827
-0.0745219
0.348538
-0.526026
0.177488
1.56201
-1.04472
-0.953269
-0.108879
0.217537
-0.108658
0.0639025
-0.0765066
-0.29021
-0.242799
1.07231
-0.315721
-0.0333822
-1.22022
1.2536
-0.318077
-0.0155812
-0.00871622
-0.551253
0.238791
0.158183
0.18564
-0.18603
-1.27535
-0.039062
-0.087849
0.126911
1.26488
-0.960226
1.28094
1.29992
0.129302
-0.0679845
-0.149993
-1.71532
1.86531
0.803572
0.349375
-1.15295
0.307894
-1.01043
0.678196
0.33223
0.13781
0.0406261
0.00302752
0.0849269
-0.0879544
2.0601
-1.08817
-0.971935
0.139039
-0.309692
0.170654
0.736381
0.277576
-1.01396
0.0714428
0.105665
-0.177107
1.71257
0.0184956
-1.73106
-0.468897
-0.0798083
-0.271288
0.327873
0.0362147
0.0482106
-0.0844253
-0.667814
0.211137
0.0251672
0.0201547
-0.0453219
-0.316223
-0.642923
0.959147
1.10694
0.499608
0.98858
-1.02196
0.737506
-1.05523
-1.90062
1.80319
-0.0659398
-0.0334226
0.258059
-0.584914
0.326855
0.693789
0.958236
1.12794
-1.33437
0.206428
1.2351
-0.552302
-0.142778
0.0965738
-0.0153438
0.0478788
-0.032535
-1.8117
-0.486776
2.29848
-0.392861
0.451076
-0.0582147
0.0157557
0.0582967
0.242146
1.97387
-0.143967
-0.0503354
1.14302
-1.63885
0.495828
-0.650062
-0.362984
1.01305
1.48279
-0.458027
0.801825
0.541485
-0.678729
-0.280608
0.00746937
0.273139
0.0263851
-0.224417
-0.456578
1.0912
0.0159649
0.0405581
-0.273615
-0.271612
0.545227
0.00827282
0.993055
0.498038
-0.877205
-0.460557
-0.381055
0.459033
0.732151
-0.887945
0.115849
-0.0931941
0.0105684
-0.418689
-1.9417
0.896974
-0.0232057
-0.260549
0.283755
0.0514536
-0.0399863
-0.0114673
0.221506
0.869223
0.168992
-0.0301676
0.0336645
-1.66907
1.6354
0.486996
-0.552002
0.065006
-0.0376335
0.0692421
-0.0316086
-0.769533
1.166
-0.106426
-0.339314
0.44574
-0.282501
0.515942
-0.948344
1.45235
-0.504001
-0.402201
0.438746
-0.0365442
2.23094
-0.0314068
0.52687
-0.00560394
-0.521266
-0.549014
0.398924
-0.18332
0.468386
1.42745
1.02611
0.10807
-1.95202
1.84395
-0.825687
-0.193965
1.01965
-0.234653
0.236111
-0.00145846
-0.0562604
-0.445435
0.501696
-0.0589045
-0.0518674
0.110772
-0.100087
-0.0139293
-0.321727
-0.0977652
-0.0065319
-0.07055
0.122235
-0.156273
0.431243
-0.274971
-0.252075
0.310369
-0.0582946
-0.0588338
0.186873
-0.128039
0.771911
-0.395057
-0.045144
0.000923565
0.624251
-1.20317
0.578921
1.19939
-0.977885
-0.00282545
-0.347599
0.350424
-0.703053
-0.666604
-1.37463
1.50049
0.284929
-0.601672
-1.28203
0.825412
0.456617
0.376979
-0.09792
-0.279059
1.74318
-1.74318
-1.69307
0.122008
-0.477184
-0.200643
-0.626366
0.827009
0.544189
-0.511031
-0.0331575
0.0361098
0.0818717
-0.135206
0.0533341
-0.0153685
0.216249
-0.20088
-0.366977
1.20858
-0.841599
0.346033
0.221231
-0.567264
0.776534
-0.701282
-1.08581
0.260128
-0.0497769
-0.234856
0.284633
-0.0101221
-1.30686
-0.419311
-1.20189
0.782582
0.734832
-0.00670579
0.218472
-0.211766
-0.289689
0.373148
-0.0834588
-0.284653
0.194252
-0.0837598
0.327094
-0.216904
0.038633
0.142092
0.147702
-0.289794
0.0376022
0.0102767
0.509385
-0.160847
-0.331598
0.342346
-0.0107483
0.00716936
0.0181424
-0.0253117
0.0948781
0.00427005
-0.0991481
-0.0669909
0.176573
-0.109582
-0.503407
1.32982
0.451664
-1.09632
0.644659
-0.159275
-0.0790495
0.238324
-0.00985374
-2.65169
2.66155
0.853399
-0.533863
-0.319536
0.460604
-0.0598544
-0.195213
0.0725778
-0.0706052
-0.0559382
0.194977
0.270698
-0.921221
0.650523
-0.385367
-1.2315
-0.298045
0.695381
-0.397335
-0.106758
0.0583955
0.431673
-0.297254
-0.134418
0.898832
-0.274582
-0.834197
0.566876
-0.491723
-0.0751531
-0.552382
0.331204
-0.128796
0.564347
-0.105216
0.129617
-1.73286
-0.0591921
-0.310371
0.564848
0.00900197
-0.226219
-0.05238
0.019845
0.280386
-0.287091
-0.0827775
-1.27758
0.774174
1.97098
-0.15274
-1.97726
2.25097
-1.09739
-1.15357
-0.113049
0.488912
-0.102663
-0.743714
0.428243
-0.352615
-0.257723
-0.0228856
-0.451204
-0.440677
0.891881
0.147623
0.189078
-0.336701
0.049959
-0.895839
-1.97598
-0.315557
-0.348685
0.664242
0.343362
0.143634
-0.256142
-0.0429283
0.299071
0.507707
-0.106148
0.168424
0.208555
2.13499
-1.67005
-0.819397
0.368193
-0.261065
-0.0575717
0.318636
-0.049755
-0.122691
-1.05875
0.485411
0.153325
-0.638736
-0.0902749
-0.0359845
0.927247
-1.19862
0.271374
-0.648391
-0.0604581
1.80364
-0.706003
-0.497168
1.33565
-2.24807
0.912423
-2.40084
1.19522
1.20562
0.158804
0.104037
-0.262842
0.152473
1.08576
0.0391303
0.821834
-0.860964
0.093314
0.282145
0.143766
-0.0708886
0.16555
-0.467987
0.302436
1.28698
-1.43697
0.0551098
0.280279
-0.403253
0.122974
-1.61168
-0.0813874
-0.614598
-0.198329
0.0894503
0.120437
0.00282103
-0.123258
-0.635002
0.307473
0.327529
-0.410946
0.350095
-1.05805
-0.422683
1.48074
-0.136432
-0.0457183
0.0452957
-0.426844
0.470381
-0.0435369
-0.370409
1.43614
-0.166298
-0.956909
-0.532674
1.48397
-0.598051
1.02674
-1.39372
0.00759805
-0.0425775
0.0349794
1.05698
-0.625174
-1.78573
-0.351434
-0.106724
0.458158
-0.0539819
0.211505
0.171663
-0.472938
0.301275
0.356316
0.253466
0.817882
0.401088
-0.101858
0.317464
-0.0726381
-0.384773
0.364998
-0.171024
0.0510068
0.120017
0.252921
-0.103753
-0.149168
-0.150571
-0.0417149
0.192286
0.246755
0.161836
-0.408591
0.106135
-0.0128199
-0.178372
-0.0561587
-0.028296
1.14219
0.0497751
0.179445
-0.22922
0.0848286
-0.144411
0.059582
-0.0764158
-0.0555414
0.131957
0.590132
0.260525
-0.688289
-0.100645
0.377273
-0.0812279
-0.288287
0.152233
-0.136505
-0.0377506
1.79096
-0.987795
0.028741
-0.194415
0.165674
-1.5808
0.206165
-0.0965546
-0.00755839
0.104113
-0.0442118
-0.039594
-1.43295
-0.967889
0.382326
-0.0699018
-0.656249
-1.5206
-0.577547
0.303932
-0.180885
-0.245959
0.819061
-0.751054
-1.70461
1.81268
-2.23592
0.42421
-0.147955
0.0125668
0.135388
0.0514569
-0.222566
-0.376014
0.59858
-0.314442
0.0778967
-0.235875
-1.29596
1.53184
-0.482687
-0.904838
1.38753
0.44766
0.381954
-0.829613
-0.00233647
0.227627
0.339249
-0.283444
-0.261353
-0.178245
-0.100729
0.278975
0.0506495
0.351671
0.282787
0.148886
0.388847
-0.625928
-0.0250438
0.032458
-0.55226
0.640631
-0.0883707
-0.169236
0.427902
-1.31875
0.108222
-0.0174466
-1.66291
0.452514
0.0752007
-1.04106
-0.436951
-0.158568
-0.941258
-0.298326
1.23958
-0.097729
0.525972
-0.463653
1.28234
-0.321065
-1.01623
-0.925468
-1.25242
1.43254
0.100752
-0.321387
0.0231883
-0.0783706
0.0551823
-0.662326
0.583002
0.0793239
0.689365
-0.785883
-0.38649
0.363284
-1.13126
-0.150767
0.0419821
-0.0513351
0.00935307
-0.318316
0.830516
-1.42841
-0.160311
1.58873
0.0260679
0.0115343
0.0734583
-0.556663
0.483204
-0.243035
0.41513
0.12594
-0.200639
-0.078989
0.279628
-1.29586
0.851915
-0.282519
-0.0319232
-0.177309
-0.132384
-0.364211
0.0836232
0.0322255
-0.0452989
0.0312201
-0.0237569
-0.0606684
0.309358
1.25309
-0.59275
1.92324
1.02618
0.604249
-0.785617
0.0338001
-1.46221
-0.293557
-0.338427
0.408516
-0.0700889
0.221205
0.042795
0.0159319
0.0113378
-0.0576935
0.132342
-0.224284
1.92739
-1.70311
0.182113
-0.840363
-0.129792
-0.267709
-0.0758272
0.986798
-0.292032
0.374828
-0.0827956
-0.111936
-1.54243
1.65436
0.461421
0.255763
0.288426
-0.381227
-0.524132
0.951799
-0.427668
0.0614554
0.010398
-0.0503842
-0.123028
0.43274
-0.309712
0.0722142
0.424013
-0.496227
-0.146079
-0.610533
0.756612
-0.287637
-0.0691564
-2.03725
-0.000622878
0.214274
-0.21578
0.0392209
-0.344031
0.0615121
0.336567
-0.685252
2.33068
-1.00029
-1.33038
-0.158921
0.430415
-0.443794
0.517252
-0.163309
-0.328414
-0.183126
-0.0107401
0.409685
-0.611211
-0.148378
0.820261
-0.966339
0.147472
-0.0982653
-0.0492068
-0.398086
-1.94315
1.09451
0.848645
-2.07653
2.06668
-1.10263
0.286898
0.81573
-0.0479882
0.278427
-0.230439
0.701283
0.37103
-0.0854307
0.206723
-0.0231264
-0.0623803
0.0244914
-0.271407
-0.0258473
1.13904
1.19163
-0.0312698
0.0261936
1.63824
-1.48185
-0.0449395
-1.3885
1.43344
1.20386
-0.0616722
-0.302128
-0.0865105
0.358105
0.116323
-0.257295
-0.0680666
0.280232
0.812458
-1.4657
0.653243
0.108072
2.28798
-1.36949
-0.918485
0.0150275
0.0500804
0.00565126
0.234698
0.895025
1.02498
-0.902976
0.866322
-1.34901
-1.23453
0.00837211
1.22616
-1.62625
0.768774
0.857473
0.0996319
0.0226031
2.45296
0.0298892
-2.48285
-0.719911
1.33501
-0.615094
0.0703786
0.239991
-0.722218
0.0468428
-0.0078141
0.0547552
-1.34809
0.218171
-0.0219801
0.0178883
0.00409175
-0.109728
0.212633
-0.102905
0.122954
-0.462716
0.339762
0.554856
0.350648
-0.527428
-0.107575
0.060837
0.847879
-0.913637
-0.0704461
-0.0615074
-0.263024
0.0565795
0.930441
-0.177861
-0.75258
-0.142829
-0.0693237
0.212153
0.241135
-0.520399
0.279264
-0.265856
-1.58198
0.811564
0.770415
0.103479
0.852047
0.262281
-1.11433
-0.239984
0.227845
-0.25216
0.0243149
0.175408
-0.0365286
-0.262185
0.00604286
-0.303993
-1.16514
0.915567
-0.450216
0.788639
-0.338423
-0.575116
-0.725354
1.72391
-0.753844
-0.0984905
0.183904
-1.38991
0.0629978
-1.37625
1.31325
0.0363135
0.0719425
-0.108256
0.874572
-0.476118
-0.398455
0.307794
-0.00758674
0.00307721
-1.41682
0.841702
-0.564425
1.24262
0.0796091
0.598343
0.314854
0.226066
0.0268555
0.834331
-0.398901
0.0172845
0.67208
-0.946243
0.405153
-1.24296
0.338122
0.973946
-1.08588
-1.68462
1.46034
-0.0398833
-1.44982
0.207702
1.24212
0.398612
0.296769
0.0438986
-0.904844
0.704201
-0.123983
-0.126633
0.250616
-2.48631
0.963904
1.5224
0.409686
0.818802
-1.22849
0.0656171
-1.31804
0.764131
0.0917248
-0.855856
-0.470259
-0.3063
-0.9134
-0.0601053
-0.0142405
0.0585128
1.51028
-1.49179
-0.045814
-0.963492
-0.618488
0.264696
-0.000853041
-1.23368
1.13359
-0.28154
-1.52465
0.00997603
-0.282464
-0.887253
0.347785
-0.41415
1.90062
0.21787
0.161217
-1.21997
0.143264
-0.110259
0.191488
-0.42006
0.324274
-0.558722
0.234447
-0.0266714
0.0387241
-0.0120527
-0.544113
0.538509
0.242373
0.139831
-1.1114
1.15517
-0.043776
-0.73377
1.03962
-2.15844
1.11882
-0.546641
-0.0616512
0.101185
-1.47554
0.141639
1.3339
-0.39095
0.915599
-0.668129
0.718088
0.156394
0.941205
0.522831
-0.983388
-0.833285
-0.193193
1.02648
-1.05285
-1.47514
1.23927
-0.128295
0.131649
-0.0033543
0.0625824
-0.0941909
0.893848
-1.35043
-0.378776
0.250209
0.128567
0.263679
-0.000600395
-0.263079
-1.05147
0.440934
0.0413477
0.027328
-0.237729
0.404821
2.28718
0.165778
-0.787452
0.826582
-0.26901
0.0917009
-1.22043
2.31277
-1.09235
-0.0792024
0.0670029
0.0822715
0.397319
-0.0131358
1.03497
1.2069
0.616756
-0.873864
0.278268
-2.25125
-0.178004
0.138942
0.15617
-1.1164
-0.229911
-0.96871
-0.218104
0.0558734
0.805704
-0.400883
-0.808365
-0.585055
0.986144
0.190776
-1.70794
0.285009
1.42293
-0.0693152
0.484446
1.24982
-1.14163
-0.290802
0.759456
-0.32009
-0.439366
0.88277
-0.325661
-0.557109
-0.184681
0.0405022
0.664532
-0.669839
0.00530656
-1.47493
0.954054
0.520881
0.540681
0.911664
0.00105928
0.119378
0.783869
-0.523344
-2.2275
1.00057
1.22693
-2.1714
1.68462
1.05416
0.631198
-1.68536
0.815943
-0.740341
1.67867
-0.552866
-1.1258
-1.0632
0.181825
-0.0852511
-0.140585
-0.101448
0.196612
-0.0421785
0.125432
-0.0832539
-0.0203499
0.306573
-1.85013
-0.300626
0.380808
-0.215258
-0.0344299
-0.0249394
0.882911
-0.480589
-0.402322
0.793008
-0.485535
-0.131029
0.12984
-0.12234
1.25028
0.0644316
-0.028118
-0.29569
-0.755777
-1.47328
0.532021
-0.0622479
-0.0885773
0.137109
0.130887
0.112138
-0.0889494
-0.50591
-0.46252
0.10383
-0.0834322
-0.0203975
0.184342
-0.748932
-0.343475
1.09241
-0.306417
-0.0376137
-0.0711146
1.19743
1.01018
-2.2076
-0.410449
0.858109
0.223288
-0.08881
0.642927
-0.827292
-0.87332
1.70061
-0.922055
-0.900155
0.459478
0.286589
-0.16651
-0.12008
1.04781
-1.03017
-0.162022
2.0455
-1.00588
-0.192222
0.113824
-0.426642
-0.66968
0.0533659
2.07707
-1.80319
-0.27388
-0.908979
-0.5643
-0.309939
0.16979
0.0726998
-1.0214
-0.229813
1.25121
0.230681
-0.509447
0.581662
-1.63527
-1.35376
0.620935
0.732822
-0.18544
-0.00453906
0.189979
0.951675
-0.605718
-0.345957
0.111358
-0.169051
0.0814296
0.0893418
0.710638
-1.76869
0.752642
0.130128
-0.367527
-0.45187
0.272964
-0.0838865
0.154535
0.205028
-0.953961
0.0342605
0.374901
0.000915285
-0.294448
-0.403495
0.320549
0.082946
0.95532
0.723349
0.509381
0.0545886
0.75109
0.000368313
-0.751458
1.66422
-1.37921
-0.349964
-0.0539639
0.149015
0.0263935
0.176862
-0.0847685
-0.205026
0.00374209
-0.132037
0.537796
-0.139526
-1.81046
-0.0259424
-0.159497
-0.0735796
-0.00479103
1.09807
-1.56172
0.807315
-0.376599
-0.430716
0.00438991
0.114593
-0.0246144
0.00263427
0.381013
0.072329
0.0751011
0.532163
-0.364727
-2.67666
1.24296
1.4337
-0.103013
0.0128347
-0.00125474
0.115028
0.1471
-0.293036
-0.298711
0.715904
-1.5432
-0.0432149
-0.95505
2.15247
0.577194
-0.0669149
-0.510279
-0.557234
-0.461198
-0.0498335
0.0928207
-1.10302
0.471531
-0.715413
0.243883
0.474273
-0.490888
0.0166154
0.00401392
1.10144
1.34038
-1.36334
1.37921
-2.38328
1.80115
0.582134
1.20872
-2.16377
2.54756
-1.24057
-1.05367
-1.09257
0.121454
0.0666749
-0.0582843
-0.387901
-1.54116
0.0913428
-0.041467
-1.2929
1.20722
-1.979
0.77178
-0.0614787
0.260798
-0.370476
0.0816281
-0.118172
0.966421
1.32156
-2.27256
1.05213
-0.142691
-0.779365
-1.33474
-0.401356
-0.0895322
2.07653
-2.10794
-0.110592
-1.1218
-0.104597
1.27471
-0.868954
-1.8186
1.8016
0.0170015
0.422673
2.23887
0.400521
0.0103219
-0.410843
1.43312
-0.566798
0.241739
0.0444696
0.694249
-0.702965
0.0950283
0.131037
0.745934
0.728195
-1.47413
-0.494999
-0.345298
1.03798
-1.05685
0.0188644
0.608003
-0.454678
-1.64885
0.681688
0.967163
0.705583
0.168989
-0.934254
-0.244148
1.12611
-1.72416
0.286642
-0.570085
-0.180227
0.33246
-0.651178
0.428612
-1.71314
-0.729093
2.44223
-0.31852
0.480356
-0.405453
0.61659
1.22453
-1.7572
0.0829453
1.36219
-1.95494
-0.239952
-0.123608
0.218539
-1.19642
0.103663
0.659721
0.515938
0.00328689
-0.557192
-2.04329
0.33868
0.0218467
0.0457542
-0.0676009
0.0748462
-0.32641
1.15007
1.1009
1.26142
-0.990043
0.0766545
-0.0153282
-0.263996
0.447332
-0.369945
0.623411
-0.607468
-0.923879
2.1326
-0.138566
0.242045
-0.795031
-0.58131
1.37634
-1.35649
0.636574
-0.0683573
0.0890531
0.0429041
-1.4496
-0.0814061
-0.15962
0.631151
-1.47006
-1.2066
2.07707
0.550385
-1.29578
0.961853
-0.611205
-0.226852
0.58694
-0.247691
-0.247148
0.244323
-1.44732
0.272882
-0.797014
1.22224
-2.14612
-0.800199
-0.149549
0.548473
-0.19889
-1.61971
1.32975
-1.7667
1.35114
0.635555
-1.60715
0.971594
1.50624
-0.55219
1.75926
-0.823285
-1.17696
2.00024
0.575053
1.26883
-1.03815
-0.615441
-0.738316
-1.28479
-1.09849
0.450977
-0.924639
1.52936
-0.604717
-0.141822
1.3645
-1.22268
-1.01362
-0.951987
1.96561
0.902295
0.135686
0.256441
0.36137
-0.18723
0.192231
-0.00500076
0.0155396
-0.259864
0.47103
-1.38001
-0.642644
-0.387827
-0.274498
-0.0913874
0.543901
0.151083
0.68233
-1.95299
0.418164
1.53482
-0.036567
-1.62782
1.66438
0.0259408
-0.256383
0.0555031
0.481432
-1.75225
1.75225
-0.209874
-0.0444958
0.25437
-0.564381
1.02493
-0.484754
0.0833984
-0.712826
-0.176138
0.527809
-1.36334
-0.00450365
-1.29168
0.289722
1.26169
-1.27181
-1.22228
0.200876
-0.10062
0.484823
-0.384203
0.139047
0.525485
-0.0266663
-5.03042e-06
-0.977865
-1.21046
0.171343
1.03912
-1.3842
-0.146978
-1.00697
-1.15147
0.0775285
-0.278167
0.166714
0.461526
-0.624835
-0.0569195
0.0331626
0.386883
-0.31967
-0.331508
-1.0233
1.48179
-0.458491
0.321252
0.189174
-0.223729
0.404127
-0.180398
-0.385006
0.145727
0.350044
-0.567494
0.21745
-1.10868
1.91149
-0.857331
-1.44949
-1.97716
0.434733
-1.90997
0.0522943
0.9354
1.1247
0.157208
-1.04446
1.40829
0.389391
0.583743
-0.504134
0.644367
0.614344
0.201599
2.09793
-0.875692
-0.941798
-0.611412
1.55321
1.14993
-0.0269126
-1.12302
-0.03925
-0.105161
-0.206731
0.187135
0.141395
1.35429
-1.49568
-1.26145
1.08588
0.175564
1.26145
-1.46034
0.225548
-0.287026
-1.35004
1.04374
0.0835596
-0.0845811
0.0717612
-1.66875
0.145018
1.60997
-0.97442
-0.283697
-0.0804479
0.131455
-0.45004
0.780566
0.258992
-0.0883379
0.5191
-0.828812
0.181149
-0.245435
-0.582696
-0.0546188
0.664193
-2.07516
0.523197
-0.0859031
0.452913
-0.367009
-1.05079
-0.928214
0.0930832
0.673274
0.468105
-0.889784
0.102332
-0.24189
-0.278509
0.122349
-2.19931
1.14564
0.0650194
-0.0353983
-0.251693
0.0196153
-0.0649142
-0.0990966
-1.39922
0.630303
-1.68474
1.05444
0.0673934
0.259329
-0.326722
0.01513
-0.278446
-1.02659
1.31632
0.488947
0.369162
1.31312
-1.14163
0.194862
0.0468908
1.71809
-1.99022
0.272126
0.315662
0.154719
-0.814091
-0.0417642
0.372565
-0.479288
0.034978
-0.0151331
-1.27199
0.331301
-0.0548501
-0.276451
-1.49325
0.197221
1.29603
0.0762937
-0.0502257
-0.0337773
0.143625
-0.109847
1.18058
-1.18143
-0.0760199
0.114744
0.6041
0.222909
0.017557
-0.00820394
-0.0765959
0.134991
0.193973
0.659073
-0.853046
-0.422064
-0.0406519
-0.922087
-1.01898
1.94106
0.162432
-0.138644
0.304319
-0.955062
2.06668
-0.0857942
0.137251
0.0549863
0.0775454
0.144659
2.2091
-1.07006
-1.23661
0.794117
-0.521235
-1.0645
2.29143
-0.0575033
0.129832
-0.193444
0.209199
-0.0388184
-0.190402
-0.291931
0.191201
-0.307749
0.701098
-0.239572
1.19564
0.0796335
-0.0600181
0.267547
-0.0490754
0.0396773
0.227527
0.0527042
0.469936
-0.789606
0.216295
-0.249513
0.0332179
0.11891
-0.046968
0.197122
0.800041
-0.997163
-0.248758
0.122125
0.453531
-0.55126
2.33938
-1.19908
1.02236
0.893656
0.0894151
0.501583
-1.18914
0.35327
-0.459418
-0.382783
1.67482
0.460169
-1.5077
1.5077
1.63701
-0.873509
1.08637
-0.0461845
1.53398
-1.48779
0.909658
1.03479
0.977057
-2.6902
0.154567
-1.12091
-1.35186
-0.201014
-1.43371
1.63472
-0.409943
-0.142439
0.0766097
1.25524
0.169283
-0.273036
-0.667571
1.54742
-0.879846
-0.174199
0.269228
-0.0109972
-0.135114
0.272924
2.60982
-1.08599
-1.52384
1.61312
-1.47148
1.11579
0.221969
0.0224389
-0.00435463
0.0142355
1.56406
0.524007
0.708802
0.532627
0.0235298
0.202992
-0.226522
-0.346035
0.213651
0.186749
-0.200849
0.0140998
0.16613
-0.225208
0.0590784
0.467891
-0.407054
0.339148
-0.508384
0.677158
-0.564149
0.0287055
0.0410231
-0.00491331
0.22003
0.0820759
-0.302106
-0.257643
0.247999
0.00964328
2.10794
-1.69825
0.411673
-0.43092
0.0192469
-1.51028
-0.350338
0.26911
-0.992457
1.90212
0.260804
-0.336631
2.62451
-1.64746
0.247601
-0.320239
-0.165383
0.368941
-1.31063
0.00313004
1.50793
1.30757
-1.08904
-0.104563
0.15206
-0.0996022
-1.48694
-0.296742
0.287212
0.24379
-0.373582
-0.375786
0.292991
-0.0893785
-1.33723
1.29229
-1.44293
1.48009
-1.15682
-0.510403
0.421201
0.691203
0.393232
-0.419079
-0.0646092
0.109367
0.347744
-0.457111
-0.367027
1.39956
-0.875026
-1.10539
-2.39914
-0.0873023
0.0833
0.00400232
-0.0141536
1.44444
-1.43029
1.5786
-0.663036
0.328742