/*--------------------------------*- C++ -*----------------------------------*\
| =========                 |                                                 |
| \\      /  F ield         | OpenFOAM: The Open Source CFD Toolbox           |
|  \\    /   O peration     | Version:  2306                                  |
|   \\  /    A nd           | Website:  www.openfoam.com                      |
|    \\/     M anipulation  |                                                 |
\*---------------------------------------------------------------------------*/
FoamFile
{
    version     2.0;
    format      ascii;
    arch        "LSB;label=32;scalar=64";
    class       volVectorField;
    location    "0.6";
    object      U;
}
// * * * * * * * * * * * * * * * * * * * * * * * * * * * * * * * * * * * * * //

dimensions      [0 1 -1 0 0 0 0];

internalField   nonuniform List<vector> 
13486
(
(7.143 -1.05978 2.60962e-20)
(8.4519 1.48485 1.13855e-20)
(10.7476 0.0744333 0)
(5.83672 -3.02574 -7.85791e-21)
(11.3054 -2.77348 8.64851e-21)
(11.8461 0.387818 1.73036e-21)
(12.7319 -2.45125 -4.67412e-22)
(9.67331 -3.54552 -1.4102e-20)
(9.50274 -2.00772 0)
(10.1788 3.35946 0)
(5.6832 -9.67786 -1.61216e-20)
(12.0028 0.252373 0)
(6.5192 -2.07185 -2.63088e-20)
(12.378 3.06767 3.28281e-21)
(12.0646 -2.05873 4.11402e-21)
(9.99557 3.56684 -5.93723e-21)
(-14.3006 5.70473 7.21759e-20)
(8.40302 -3.05882 -8.22502e-21)
(11.4942 -0.210234 1.05136e-22)
(8.0223 -0.337823 -2.5706e-20)
(7.23842 -3.89923 -3.29857e-21)
(6.58088 -2.12478 3.38942e-20)
(8.58438 1.32817 -9.12051e-21)
(10.2736 -3.0025 0)
(10.0943 2.75178 1.63916e-21)
(10.3186 -2.82758 -4.00977e-21)
(-3.16998 -0.523918 1.46952e-20)
(10.9371 -0.383905 1.47125e-20)
(10.0857 0.0529435 0)
(10.0836 -1.13897 -8.48318e-21)
(6.74462 -3.21255 -2.20806e-21)
(12.7367 -1.43955 -4.60716e-21)
(12.3287 -1.97205 1.31215e-20)
(9.67871 -0.212846 0)
(9.76639 -3.42512 0)
(9.8599 -0.039748 -3.01566e-22)
(9.91555 0.287569 -1.23089e-22)
(7.88766 -3.6326 1.37616e-20)
(9.33453 0.328847 -2.94672e-22)
(9.66148 -1.1441 1.30078e-20)
(11.7363 -4.05939 0)
(6.01714 -2.82894 -3.13027e-20)
(10.3867 -0.107174 0)
(10.2936 2.33462 -8.55201e-21)
(10.3367 2.30707 3.43172e-21)
(11.9575 0.24812 3.47237e-21)
(11.2673 -9.2142 2.00583e-19)
(10.0865 0.0959615 5.10812e-23)
(9.90287 0.303692 1.18305e-22)
(11.7668 -0.193005 8.5967e-21)
(9.72798 0.0481791 1.33447e-20)
(9.60609 0.0687296 0)
(12.8981 0.458928 -2.55621e-21)
(8.095 -2.96423 -1.98076e-20)
(6.54593 -2.69905 0)
(11.2027 -2.81983 -5.78663e-21)
(10.0958 0.309602 -4.61328e-22)
(9.32318 0.218646 -1.20223e-21)
(12.1012 -1.92231 1.53504e-20)
(9.86383 0.371547 0)
(6.17173 -7.4847 -1.28782e-20)
(9.82494 0.293552 0)
(16.5524 -3.78483 -2.80966e-20)
(7.22799 -3.62359 -3.81072e-23)
(8.32403 -3.05505 0)
(9.8769 0.320937 4.63668e-23)
(5.99733 -3.11562 -8.04948e-21)
(7.37794 0.211058 8.59577e-21)
(9.49138 -2.12481 -7.57109e-21)
(9.77832 -0.0212371 2.99681e-22)
(5.49086 -2.69569 9.29457e-21)
(7.83721 -2.62543 -4.4137e-22)
(9.651 -0.675287 9.58389e-21)
(0.362226 11.3845 -4.48654e-20)
(9.89178 0.292592 1.84268e-23)
(10.1657 0.277391 1.08406e-22)
(9.87891 0.220777 2.26086e-23)
(12.0838 -2.17266 -1.71095e-21)
(9.32102 -11.204 -8.39359e-20)
(8.05367 -0.0918153 0)
(9.77253 -0.0129558 1.13951e-22)
(8.20868 1.98637 -7.28203e-22)
(16.6519 -5.01564 -2.11974e-21)
(10.8816 0.0893376 -4.99329e-22)
(7.10305 -1.09602 -5.08424e-20)
(8.37403 7.85849 0)
(8.93647 1.91654 -1.06803e-22)
(9.87841 0.102124 -1.97624e-20)
(9.34074 1.21651 -9.16703e-21)
(9.11818 4.80603 -6.13874e-21)
(13.5432 -1.03577 -1.44295e-21)
(10.2797 -3.15397 -7.27689e-21)
(7.39601 -1.625 6.71326e-21)
(8.26787 0.341467 6.57636e-22)
(9.06535 -2.84028 3.13436e-21)
(9.94575 0.0813372 4.42563e-24)
(-3.19605 -1.28449 0)
(8.01172 -3.87771 3.91981e-21)
(9.62662 -1.16291 -2.48705e-20)
(-12.8881 3.62906 5.35849e-21)
(9.96183 0.00820065 0)
(12.161 3.09289 1.08062e-21)
(7.72628 -3.64499 2.16637e-23)
(9.24409 0.159552 1.44405e-21)
(7.07385 7.86112 0)
(-12.836 1.93497 3.68581e-21)
(9.80865 0.337654 1.07634e-22)
(9.26092 0.421044 -6.2782e-22)
(8.42433 -7.77962 1.22342e-19)
(9.99053 -4.60795 0)
(8.55549 -4.03759 0)
(12.6745 -1.93612 -4.27424e-21)
(8.11787 -2.86939 1.67411e-22)
(10.1562 0.226368 3.93884e-23)
(5.71864 -0.365588 0)
(8.3403 -3.94598 -1.18845e-20)
(10.3223 2.91999 0)
(9.69627 -0.12572 0)
(9.85014 -0.646087 0)
(9.76966 0.165071 -8.99914e-24)
(6.41557 -3.40397 4.26106e-21)
(5.59841 -7.72731 0)
(8.88576 -2.57568 0)
(9.29971 0.369509 9.61166e-22)
(9.26598 -3.32515 0)
(9.37956 0.137893 0)
(10.7504 -1.468 2.83153e-22)
(10.6638 0.173794 2.00126e-21)
(9.6145 -0.186178 -1.33669e-21)
(8.26165 -2.62152 -2.56508e-21)
(9.56561 0.141786 -1.74728e-22)
(10.3939 -7.63878 -5.08043e-20)
(9.26928 7.64506 7.99792e-20)
(0.445644 -0.406652 5.74973e-20)
(9.99658 -0.0685978 -2.21833e-21)
(9.52889 2.26176 -9.45999e-21)
(4.94164 3.10312 -7.15354e-21)
(9.55754 -4.2985 0)
(9.83791 0.139423 9.50373e-24)
(9.828 -2.9665 -4.95848e-21)
(12.274 -1.14718 -1.50309e-20)
(13.1279 0.470569 2.07722e-21)
(12.7232 -0.582075 0)
(8.31738 -0.151066 0)
(10.0808 -0.0100926 8.96447e-23)
(13.5203 -5.39013 -3.17308e-20)
(10.8442 1.66304 -4.29889e-22)
(-3.13631 5.98674 0)
(12.1375 -0.424666 0)
(10.0135 0.0842059 0)
(10.1841 0.079646 1.71117e-22)
(11.9585 -2.39675 0)
(10.0713 0.0524033 -1.19259e-22)
(7.99147 1.67049 -6.25692e-21)
(10.7723 1.58756 0)
(10.9825 0.0635674 0)
(9.84873 -4.41318 0)
(3.96945 -2.66051 2.70081e-22)
(8.50332 -3.4216 2.84992e-20)
(10.0832 0.769768 6.57074e-22)
(12.1208 0.0370326 6.0181e-21)
(8.55085 -3.33289 -4.28136e-20)
(12.327 -3.44673 -1.44186e-21)
(5.39786 -2.6877 1.37402e-20)
(9.31046 0.139504 0)
(12.6755 2.86979 -6.18954e-21)
(11.9228 2.71999 -3.58653e-21)
(2.2722 -0.634915 -3.30287e-20)
(10.738 1.63121 1.16362e-21)
(0.993455 0.248074 1.5762e-20)
(8.14357 5.46587 9.25495e-21)
(10.9239 1.30777 1.89448e-21)
(10.1193 0.171952 -1.45128e-20)
(11.493 -1.07201 4.21576e-22)
(9.94461 -0.0094069 -3.03427e-23)
(7.09913 -3.97032 0)
(12.437 4.58576 8.82138e-21)
(12.9837 -1.51632 2.15302e-20)
(9.93921 0.23309 -2.29114e-20)
(12.7211 -0.46352 0)
(9.87429 -1.61357 2.65377e-20)
(10.1947 0.127572 4.99522e-23)
(12.021 -1.04979 -1.86075e-22)
(5.18955 -2.72789 0)
(11.1502 0.630627 1.36716e-21)
(10.8825 -0.2458 -6.68495e-21)
(10.0278 0.0421581 -2.23852e-23)
(10.0725 -0.765936 -2.70578e-21)
(11.4602 -4.18748 0)
(7.73992 -3.74631 -1.61001e-20)
(9.92442 0.229309 0)
(10.2111 0.141279 0)
(9.28351 0.219141 0)
(9.09477 5.01397 -1.31442e-20)
(9.19499 0.19238 0)
(4.77321 -9.73372 -3.17432e-21)
(8.3 -2.81715 5.995e-21)
(12.0603 -0.0961001 3.20404e-21)
(7.2137 -3.51606 -6.16498e-21)
(12.4737 2.60391 -2.97789e-21)
(7.31932 -3.39775 2.34923e-21)
(10.7793 0.285737 -5.89949e-23)
(7.85621 -3.72885 -1.59471e-20)
(10.9532 -4.51889 2.86061e-21)
(10.0231 0.714386 -8.32393e-22)
(9.19802 0.106127 -1.28407e-21)
(7.37598 -2.12741 -2.26061e-21)
(9.14713 -0.144457 1.9456e-20)
(9.18009 0.175325 0)
(11.0593 0.538601 0)
(10.6977 -0.517539 1.0025e-20)
(9.79617 -2.72624 6.20112e-21)
(8.10176 -0.173243 2.36048e-20)
(9.56388 0.0495749 2.83733e-22)
(11.9191 0.621039 -1.99549e-21)
(8.61059 -1.08996 9.51999e-22)
(10.2733 -1.00986 0)
(9.55391 4.46001 1.74542e-20)
(7.84416 -1.70105 0)
(15.7695 1.48476 0)
(-14.593 4.40992 -1.37537e-19)
(11.9959 -0.356069 0)
(9.77179 -2.93681 1.16489e-20)
(11.7813 -0.0366974 0)
(13.0138 1.267 -3.20321e-22)
(6.79853 -3.13041 9.70697e-21)
(12.3479 1.08605 -3.79567e-22)
(7.4037 -3.47363 1.38845e-21)
(8.89385 -0.555768 2.07057e-22)
(9.05416 1.90697 -1.93458e-23)
(9.96597 -1.54022 -8.50036e-21)
(10.2435 -2.97596 1.03753e-20)
(12.2183 -1.36747 1.89968e-20)
(5.85367 -2.72906 1.07077e-20)
(7.38985 -3.51645 0)
(6.62167 -3.2158 1.1478e-21)
(9.70138 -0.478064 4.58133e-21)
(10.466 0.0886383 -2.82516e-22)
(6.80966 -3.24779 3.153e-20)
(11.6943 -0.622864 0)
(11.9543 -2.23188 0)
(10.012 0.261747 2.23987e-20)
(10.2042 0.122602 0)
(6.50469 -3.21277 1.05122e-20)
(9.33145 0.493973 -3.90589e-22)
(8.89853 0.502104 0)
(11.7151 -0.263087 -1.6613e-21)
(10.2749 -1.9552 1.46169e-20)
(-3.86631 5.84657 1.01453e-19)
(10.0827 2.42032 0)
(7.4419 -3.83684 -1.73008e-21)
(5.57244 -0.226211 3.81384e-21)
(7.83919 -3.83822 1.51214e-20)
(9.18698 0.350836 0)
(8.63888 -0.294197 1.03155e-21)
(7.02571 -4.19726 1.10847e-21)
(12.8469 -1.35424 3.51894e-21)
(8.65447 -1.02648 -1.20298e-21)
(4.77065 -3.93827 -2.8284e-22)
(12.008 -2.17855 9.57154e-21)
(9.02604 1.11221 0)
(9.34583 0.547726 -4.66027e-23)
(12.0725 -2.08789 -9.66287e-21)
(6.99966 -4.10099 -1.38407e-21)
(10.7889 -3.68016 -9.11644e-21)
(5.15692 -2.92898 0)
(9.13452 -0.484124 -2.60674e-21)
(6.92619 -3.41754 -3.24591e-21)
(9.80133 -0.0982598 -1.07791e-20)
(5.48065 -4.76072 0)
(7.7534 4.5062 8.99432e-21)
(9.93739 0.262004 -6.13064e-21)
(10.3086 -1.17094 0)
(12.2458 0.560655 2.26236e-21)
(7.08674 -3.32159 1.2983e-20)
(10.2074 -1.88564 -8.15768e-21)
(8.79028 -0.2156 0)
(7.44765 -2.43212 0)
(9.16917 0.359164 -6.60838e-22)
(10.9898 1.65633 7.81359e-22)
(7.3875 -2.31368 4.18471e-21)
(10.6889 -1.19413 -9.47173e-21)
(9.57224 0.40158 1.3478e-20)
(10.785 -4.37403 -8.86888e-21)
(5.07465 -7.09858 1.1832e-20)
(-8.66913 0.660535 8.12333e-20)
(12.6732 -1.0496 1.91105e-20)
(9.61803 -0.184348 1.75769e-21)
(12.9613 1.19344 3.8888e-23)
(10.0703 0.105723 0)
(7.40553 -3.52236 0)
(9.71802 0.56512 -1.02695e-22)
(8.25505 -3.89413 1.20287e-20)
(9.87856 0.0891081 -2.14622e-21)
(9.96121 -0.455525 4.21439e-21)
(9.8392 -0.498498 0)
(11.9693 -0.296886 -7.663e-21)
(12.0501 0.595881 -1.85341e-21)
(9.68222 0.291781 -1.25964e-20)
(12.4681 -3.14201 3.17049e-21)
(10.295 -3.22277 1.2685e-21)
(5.35328 -2.43147 -5.49266e-22)
(10.9271 1.72245 -6.65883e-22)
(12.6687 -1.40348 4.35696e-21)
(9.78724 0.150947 3.06346e-23)
(9.4337 -4.66555 0)
(-1.27432 -0.639863 0)
(11.6323 -0.381431 3.4286e-21)
(8.72135 1.58563 1.07844e-22)
(9.95444 0.242528 0)
(11.23 6.99424 -8.60375e-20)
(5.0103 -2.60554 0)
(11.859 4.64467 -2.68682e-21)
(12.8144 -1.76079 -4.04551e-21)
(9.53414 -7.03532 0)
(9.36672 1.85095 -5.57264e-21)
(9.66543 0.585349 1.32623e-22)
(9.24915 1.21822 -7.78469e-22)
(9.14675 -0.130454 -2.12266e-20)
(9.13645 -0.566178 0)
(9.75185 0.310369 -3.90535e-23)
(9.72787 0.398264 3.99189e-23)
(10.1031 0.135188 2.87604e-21)
(8.13774 0.712297 -1.22177e-20)
(3.37376 3.29066 1.33533e-20)
(13.3932 -1.25083 2.50299e-21)
(11.0163 -2.04154 -2.66447e-20)
(10.3138 -0.999713 0)
(11.61 0.812312 1.02865e-22)
(11.1812 -2.10903 -5.02232e-21)
(9.82981 -0.0416937 2.86674e-20)
(10.4205 -3.19405 0)
(14.303 -1.14774 4.39495e-23)
(7.09538 1.72202 0)
(12.5013 -2.50376 -6.59066e-21)
(9.32695 -2.655 -8.48513e-21)
(4.20878 -1.82015 1.2983e-20)
(11.8515 -2.50162 -7.01946e-21)
(10.5153 1.09711 0)
(9.43689 0.561486 -4.98924e-22)
(8.98641 -0.616225 2.70408e-21)
(8.27874 0.605232 1.15535e-20)
(11.2554 -2.1692 1.91674e-20)
(11.9643 -1.02976 8.0922e-21)
(5.67928 -4.13651 -3.77823e-21)
(10.0452 0.0256299 -5.5058e-23)
(10.9508 -1.13765 0)
(5.39446 -1.59821 3.05927e-20)
(15.915 1.26288 0)
(9.71867 0.606806 -7.79153e-23)
(11.0971 -0.583832 1.53808e-20)
(11.9235 0.787822 -1.88184e-21)
(12.214 0.639362 1.6601e-21)
(-1.66689 -1.9408 -8.7234e-21)
(9.40057 0.391605 1.56571e-20)
(9.99864 -0.0632027 0)
(-1.18496 8.55638 -3.60335e-20)
(10.9507 -1.48851 -5.65565e-21)
(8.81941 1.61602 -1.32132e-22)
(9.58216 -2.53884 5.90401e-21)
(12.3777 -0.111458 0)
(13.9531 -0.600626 2.32177e-22)
(8.90191 0.858559 2.42243e-20)
(9.60398 0.369431 1.85305e-20)
(10.1309 -1.18 0)
(10.047 0.0422203 1.17993e-22)
(10.0421 -0.527195 -4.30274e-21)
(11.9479 -5.70918 3.36356e-20)
(7.90964 -0.280582 3.28715e-21)
(10.8064 -1.21229 5.39438e-21)
(10.2798 -0.0705697 -3.42375e-23)
(11.1151 -1.04376 0)
(12.9013 1.43018 -4.65835e-23)
(6.95634 -3.85865 1.60361e-21)
(11.9609 1.53061 3.5019e-21)
(9.79904 0.127995 1.12271e-20)
(8.75006 0.153072 0)
(9.53145 0.507143 -2.81262e-22)
(10.0544 -6.59783 0)
(17.3792 4.54085 -1.82334e-20)
(9.85649 -0.0409288 0)
(10.4227 -3.60773 -2.69442e-22)
(6.82134 -0.479013 -7.15583e-21)
(6.91561 2.94696 2.12409e-20)
(13.8637 -6.93292 -1.22793e-19)
(8.78188 -0.276788 0)
(11.2049 0.50363 5.59123e-22)
(10.0715 0.968444 -5.65861e-21)
(-15.7976 9.22229 -5.93226e-20)
(6.95523 -3.5381 3.53224e-22)
(8.33 -0.278555 -3.5519e-20)
(10.5412 -1.0555 4.30664e-21)
(10.5054 0.936986 3.24022e-21)
(7.35144 -2.23682 0)
(6.97232 1.48241 1.34497e-20)
(9.83742 0.169144 -2.85352e-23)
(5.43571 -2.97867 4.47398e-21)
(7.2198 -3.86157 -5.72142e-21)
(-15.6592 8.40551 -1.13318e-19)
(12.7547 -1.19997 0)
(-15.5478 8.63003 0)
(10.8455 5.74627 0)
(10.3641 -0.51298 0)
(3.34887 -2.7281 -3.96919e-21)
(12.4563 -2.50518 0)
(10.272 3.4732 0)
(8.32384 0.56158 4.78244e-21)
(12.7904 -1.50849 -2.2122e-20)
(11.0354 -1.04223 -1.26786e-20)
(8.63071 1.55586 3.90463e-20)
(9.97622 0.121043 -2.86522e-21)
(12.0116 7.81396 0)
(10.8751 -1.08458 0)
(9.41402 0.3171 1.32737e-20)
(9.90053 0.0170303 2.22936e-21)
(7.18755 4.99389 0)
(5.68626 -2.76929 3.66196e-21)
(10.7685 -3.79076 1.02263e-20)
(9.6271 5.5618 0)
(11.8231 -0.543034 7.97404e-21)
(10.1019 0.169842 -1.52674e-20)
(6.00768 -0.581888 -6.06596e-22)
(5.39995 -1.53115 0)
(9.83519 0.879695 1.10632e-20)
(12.2847 0.351552 0)
(10.1269 -0.693954 0)
(10.8431 0.922816 -2.28805e-22)
(9.62297 0.415966 6.97371e-21)
(-4.83157 -0.982012 -1.94354e-20)
(11.7009 2.69465 -5.25575e-22)
(6.85289 -1.71455 -1.2858e-20)
(10.2148 -0.519531 1.61934e-21)
(10.4113 0.845182 2.43854e-21)
(12.7536 1.40557 1.39465e-22)
(11.1878 -3.69217 0)
(10.5102 -2.01462 7.71015e-21)
(7.00132 -0.228475 0)
(9.57814 0.513725 -4.63871e-23)
(11.403 -1.11098 0)
(7.37061 0.223006 1.82241e-20)
(0.0841133 -1.60141 -1.9534e-19)
(10.3789 -1.05161 0)
(-2.27518 -1.41875 2.45297e-21)
(10.8444 -1.07197 -9.99939e-21)
(9.6519 1.42465 2.87897e-22)
(8.90848 -1.41686 3.44134e-20)
(7.36763 3.50474 -1.36374e-20)
(6.80846 -1.66654 -3.65969e-20)
(17.8493 3.97407 0)
(9.87443 0.19056 7.2443e-23)
(5.35963 -4.25636 -9.95239e-21)
(10.3332 0.99172 0)
(9.29158 1.3614 8.52876e-22)
(12.0779 -0.233093 -1.8208e-21)
(13.7908 4.47562 0)
(10.1996 0.100273 0)
(5.76422 -2.76459 0)
(7.20311 -3.98361 4.91457e-21)
(10.6247 -4.47098 1.05044e-20)
(13.1186 -4.92828 1.27786e-21)
(11.8581 4.45992 0)
(8.59555 -0.885195 2.31536e-20)
(10.0272 0.0096952 1.18732e-24)
(11.5162 2.50372 1.87703e-21)
(7.59098 -3.89171 7.05628e-21)
(9.68702 0.776811 0)
(9.99719 0.0291466 0)
(3.97681 -0.576053 -2.03879e-20)
(7.23349 -2.21398 -9.08481e-21)
(9.54551 -0.982787 0)
(9.33094 -4.3585 -1.14868e-20)
(10.0722 -0.0113496 5.38767e-23)
(10.0286 0.0531044 -2.29995e-23)
(4.5708 -1.90034 0)
(9.21751 -0.0567422 1.64965e-21)
(9.80866 0.179495 5.26909e-23)
(12.2322 0.344121 7.176e-21)
(9.23583 -2.78201 0)
(-8.22783 -0.35893 -1.25077e-19)
(12.0987 0.750267 2.02412e-21)
(10.2853 0.595987 2.4163e-21)
(10.1219 0.0653522 5.37441e-23)
(12.8657 2.61684 0)
(8.48966 1.56113 -1.03792e-20)
(14.8132 -0.108627 -1.24648e-20)
(-15.4784 7.91304 2.09358e-20)
(9.9802 0.40151 0)
(6.77913 -3.49455 -3.62431e-22)
(2.55085 -0.375733 0)
(10.0516 0.248404 -8.90204e-21)
(10.1888 0.354581 4.39719e-21)
(9.3278 0.239866 -2.57797e-21)
(7.03336 -4.01542 0)
(11.2767 -0.0134273 -8.31958e-22)
(5.79338 2.03959 3.65111e-20)
(11.0023 -3.6235 0)
(8.18146 0.385325 1.4939e-20)
(12.164 -3.12048 -3.64593e-21)
(10.8743 0.0644985 0)
(7.1814 -3.50618 1.55873e-21)
(8.34563 -0.118408 -1.99217e-21)
(10.1741 -0.0714418 0)
(-10.4115 -0.177945 1.20205e-19)
(9.20146 1.32954 0)
(8.77377 -4.0252 1.17216e-20)
(7.07307 -3.78533 3.31351e-21)
(10.0079 0.0447857 2.32377e-23)
(11.7397 0.637063 -4.11248e-21)
(6.92137 1.50511 7.13347e-21)
(8.84933 -1.55576 -1.26094e-20)
(8.89601 -0.244885 -1.10578e-21)
(8.8784 -3.96938 1.29066e-22)
(10.6131 -1.17759 5.15699e-21)
(12.9031 2.53805 1.22853e-20)
(10.5665 -4.80168 0)
(9.89745 0.237948 -9.95332e-21)
(10.2499 7.80738 -4.26554e-20)
(7.01005 -0.222891 0)
(9.95729 0.0925539 2.46687e-23)
(9.65553 -0.0144941 0)
(6.33128 -1.74239 3.21358e-20)
(10.1741 -3.88462 0)
(9.9477 0.130723 5.48315e-22)
(11.0982 -0.374274 -8.80176e-21)
(7.26163 -3.39644 2.76717e-21)
(6.2887 -3.04997 5.91467e-21)
(12.0127 0.0701075 -6.93938e-23)
(9.42595 -4.51106 1.08194e-20)
(8.84091 -2.59721 1.26542e-20)
(7.38118 -1.64147 0)
(2.9688 -2.21281 -1.66676e-21)
(11.3144 -3.49309 -2.06484e-21)
(2.71274 -2.26888 -2.1407e-21)
(9.94163 0.0594349 -6.39128e-24)
(7.36894 -2.82887 0)
(10.6737 0.111013 -2.97833e-23)
(5.35116 -2.8742 0)
(7.67512 -3.68296 6.49726e-23)
(6.9557 -1.30363 8.30071e-22)
(1.07318 -1.13509 0)
(10.1557 -2.76597 3.66721e-21)
(8.30386 -2.98149 0)
(13.8273 4.20526 0)
(8.49739 -4.0583 -1.53873e-20)
(7.39523 1.43572 1.0863e-20)
(7.39393 -0.222189 0)
(8.70716 0.973305 -6.55368e-21)
(13.5557 -5.38944 3.7404e-20)
(6.65146 -3.89615 7.1715e-21)
(14.4174 6.01414 0)
(10.1455 -0.126737 0)
(4.81177 -4.56941 -4.60974e-21)
(9.39147 -0.636938 0)
(10.9524 0.397098 0)
(6.09702 -7.04322 -7.96151e-22)
(10.1516 -2.08457 -1.7305e-20)
(8.7042 -2.1876 1.07183e-20)
(11.6461 -2.44501 1.35158e-21)
(3.36346 -2.26645 3.47306e-21)
(9.75876 0.372986 5.23024e-21)
(7.62729 -1.77192 0)
(10.8864 2.21171 -9.98561e-22)
(7.08695 -0.958459 0)
(10.7053 0.195641 0)
(10.2795 0.802887 0)
(10.9641 0.905729 -1.79781e-22)
(9.21624 -0.0493957 9.82778e-21)
(10.2704 0.0816168 -2.54754e-22)
(7.85656 -1.82018 0)
(-2.38397 -0.506166 -9.01441e-21)
(10.4101 5.28262 3.43186e-22)
(9.24993 -3.36759 1.21437e-21)
(9.28762 -0.220234 -2.84687e-21)
(10.1181 -1.83047 1.30706e-20)
(10.1507 0.20552 -8.86382e-21)
(-1.08907 1.01808 0)
(12.186 0.547036 0)
(7.73448 4.63596 0)
(6.41695 -2.83338 -2.35896e-20)
(7.54308 -3.0991 -3.41045e-21)
(-0.578338 -3.18095 0)
(10.9761 2.3367 0)
(13.3095 0.882808 5.25504e-23)
(10.1001 -0.254685 -2.60468e-21)
(9.91693 2.99223 9.03943e-21)
(11.2035 -4.53309 0)
(0.75284 -5.50751 -3.51475e-21)
(11.5704 0.337048 -1.37423e-21)
(7.09904 -2.08409 -2.16164e-20)
(11.011 0.32419 -4.43594e-22)
(11.7274 2.55997 -8.05706e-22)
(9.23862 -3.61304 4.61815e-21)
(6.3457 -2.79454 4.06955e-20)
(8.40473 -1.78107 4.35016e-21)
(10.3445 0.231632 6.90775e-23)
(9.84184 0.148422 -2.59312e-21)
(8.35821 -4.09366 -3.40053e-21)
(8.55197 0.0128286 8.63792e-22)
(10.414 10.4673 1.91462e-21)
(9.09102 -4.29723 6.05816e-21)
(11.2388 0.809307 0)
(9.50903 2.28129 -3.36602e-23)
(10.2893 -0.0718325 -5.83762e-21)
(14.5455 2.15312 7.32696e-21)
(6.98816 -1.89386 -1.9719e-20)
(9.19078 -3.25361 -1.29963e-20)
(10.5583 -0.120267 2.43934e-20)
(11.6306 0.0120645 -1.40183e-20)
(13.3197 4.88076 7.56068e-21)
(12.8969 -0.974164 -9.89468e-21)
(6.04519 -0.752315 -4.29557e-20)
(10.8767 0.00279056 -3.99432e-21)
(6.03429 -1.04529 0)
(7.32359 -3.37714 -5.95503e-21)
(9.87716 -0.150909 2.32991e-20)
(9.81902 0.0360072 1.43786e-22)
(0.131895 11.2887 0)
(9.62239 -4.41718 0)
(9.94761 2.13275 7.29083e-21)
(5.48646 -0.692541 2.67675e-20)
(8.35572 -3.53882 -6.03291e-21)
(10.4433 -3.55819 -6.45445e-21)
(11.1006 -2.10055 1.46048e-20)
(15.9504 0.929041 0)
(9.89975 2.31388 3.86289e-21)
(6.33503 -3.10925 -1.61132e-22)
(12.7939 4.25039 8.96018e-21)
(9.83772 -1.42197 -1.49615e-20)
(3.56435 -2.51734 -5.59353e-21)
(10.0528 -1.69569 -1.28607e-20)
(10.5915 -2.10257 4.06651e-21)
(11.569 5.46067 0)
(9.27557 -0.630879 -1.89144e-21)
(9.43322 0.218665 2.41752e-21)
(9.92825 -0.0891751 -3.99575e-23)
(5.34456 -2.59535 3.79545e-20)
(9.70128 -1.34283 2.2524e-20)
(9.95985 0.635917 -3.84673e-22)
(6.87812 -3.88797 -4.15924e-21)
(10.3858 -0.308623 -5.11087e-21)
(10.6981 0.103068 3.57212e-21)
(4.88368 -7.61989 -1.51161e-21)
(12.3246 4.25863 -1.08496e-20)
(-10.5456 1.35909 -1.30609e-19)
(6.92958 -3.33096 -1.24413e-20)
(9.96809 0.0417807 0)
(10.1267 0.214302 -3.34997e-22)
(6.29507 -5.05452 -3.3681e-21)
(6.93115 -0.687129 3.82822e-20)
(10.0872 0.0389929 0)
(10.9376 -3.19496 -3.58196e-21)
(6.12205 -2.39073 9.23686e-21)
(9.85623 0.135157 -2.1742e-20)
(6.70656 -3.45434 -4.01206e-21)
(7.2398 -0.0848686 -6.3098e-22)
(10.8442 -1.01835 8.66338e-21)
(11.2449 0.224583 -1.18734e-21)
(8.85556 -4.06681 -1.61969e-20)
(10.1369 0.141899 2.92882e-22)
(7.62081 -3.16845 -7.93026e-21)
(10.4775 0.0549094 5.48257e-21)
(10.172 -0.35967 -7.14779e-21)
(10.6575 0.575004 -1.41626e-22)
(10.7666 -0.235792 -1.48425e-20)
(5.95901 -2.46584 -1.78564e-20)
(10.0824 0.137722 0)
(7.26526 -3.65218 3.81056e-21)
(9.88649 0.183924 1.71589e-21)
(6.83177 0.0534193 -9.22466e-22)
(11.991 0.0511727 -3.41985e-21)
(10.8301 -2.15036 -9.08964e-21)
(9.88823 0.0571796 -1.62528e-20)
(10.4946 1.51634 1.95492e-21)
(5.31691 -2.64107 -3.76389e-21)
(11.0974 0.270897 0)
(9.64861 0.616685 1.53961e-22)
(11.8603 0.86499 1.92877e-21)
(7.41813 -2.75164 0)
(10.5602 0.40515 2.52015e-21)
(11.4909 0.852941 2.28406e-21)
(10.8232 0.176942 2.11098e-25)
(12.3258 -4.65248 -5.70828e-22)
(9.2174 -0.0178957 0)
(9.2258 1.93466 1.84752e-20)
(10.0617 0.529535 5.21424e-22)
(8.88521 -4.17355 1.31948e-20)
(10.0109 -1.04178 0)
(7.40066 1.40201 -3.14238e-20)
(7.38534 -3.6193 5.80868e-21)
(12.9507 7.04485 -1.92975e-20)
(6.11655 -0.802621 4.20438e-20)
(10.1281 -0.0917114 3.53114e-23)
(6.60082 -3.13813 4.44665e-21)
(9.40924 -0.466642 -1.53247e-20)
(10.7851 -1.86918 -1.14458e-20)
(8.74468 0.734365 -1.39749e-20)
(10.3447 -0.0577445 0)
(9.88507 0.056854 -9.73916e-21)
(-2.05134 -0.359386 1.73067e-20)
(0.240392 4.23936 0)
(9.80905 -2.85717 0)
(9.96433 -0.0497493 0)
(-14.9039 6.98034 0)
(10.1142 1.52022 0)
(5.84781 -0.712953 0)
(8.74378 -1.12223 -1.03134e-22)
(12.3893 -4.50684 -1.49945e-20)
(12.675 1.06449 0)
(8.13155 1.61967 2.76196e-20)
(3.56962 -3.36257 -2.20085e-20)
(10.1937 0.999486 2.97562e-22)
(6.23031 -5.53009 -1.9457e-21)
(5.89024 0.335601 -1.27611e-22)
(6.14285 -3.02549 3.22004e-21)
(11.3189 0.00322099 -5.43169e-21)
(11.8366 -0.230257 1.14822e-21)
(9.88641 1.44612 -5.11989e-21)
(9.45451 1.12947 -1.83127e-20)
(10.0196 4.83716 -4.34131e-21)
(17.1978 3.95554 0)
(7.05709 -3.78338 1.08509e-21)
(6.38997 -1.82122 -3.51842e-20)
(10.1925 0.0682287 -2.97406e-20)
(11.3271 -3.40734 -1.19601e-20)
(10.0299 -0.144404 2.47545e-21)
(13.0358 -3.21485 1.40068e-21)
(10.4702 -1.66191 -1.93893e-21)
(10.1905 -2.6982 -1.27091e-20)
(10.2674 0.715829 5.86522e-21)
(15.0624 9.51634 0)
(8.90408 -0.191282 -1.01577e-21)
(8.35894 0.373111 -4.33732e-21)
(12.577 -2.27339 0)
(9.21362 0.343782 0)
(9.27802 -4.20068 -8.39255e-23)
(6.96163 -3.277 4.96962e-21)
(8.62628 -1.13969 -4.75369e-21)
(9.5227 0.105602 0)
(9.23309 -0.229635 -2.01254e-20)
(9.1295 1.15869 -3.5774e-21)
(7.27541 -3.50894 2.2869e-21)
(11.3836 0.597548 1.23908e-21)
(6.39634 -3.10433 0)
(7.0086 -3.97833 1.33454e-21)
(11.5767 0.759364 0)
(9.2278 -0.744473 2.12633e-21)
(13.8878 -0.754296 -1.04878e-21)
(9.98153 0.107082 -9.59505e-23)
(11.8811 2.82278 6.41232e-21)
(14.2261 5.26135 -1.80524e-21)
(8.61437 -2.49005 2.62122e-20)
(6.82158 -2.96835 0)
(7.98347 -2.69762 -6.22248e-21)
(6.61192 -1.89822 0)
(12.859 0.794287 -3.20179e-21)
(7.36396 -3.47864 4.71443e-21)
(9.9939 -2.8623 7.86232e-21)
(9.54769 0.561282 -2.16161e-22)
(7.04542 -4.41035 -7.37788e-21)
(7.97863 -3.74333 -1.52396e-20)
(6.61788 -1.88006 -2.04313e-20)
(9.94249 0.212459 8.3068e-24)
(8.06376 -2.57133 5.06698e-21)
(6.02613 -2.54181 1.46432e-20)
(6.88866 -2.05172 2.21202e-20)
(7.59194 -3.17643 4.3081e-21)
(8.35789 -2.68205 -2.97263e-21)
(9.09688 -2.87594 1.29463e-20)
(9.77762 -3.35159 1.43821e-19)
(10.1486 -0.00492864 1.57341e-22)
(5.02521 -3.22827 1.80529e-20)
(11.7316 1.81232 5.72759e-22)
(11.1284 -2.88613 0)
(-16.5755 6.34284 -2.05447e-19)
(10.0874 0.159386 -7.25965e-21)
(9.93614 0.781274 0)
(12.5913 0.938116 0)
(7.47515 -2.46064 -4.64422e-21)
(11.1892 -2.70041 -1.1745e-20)
(11.7249 0.846611 6.91654e-21)
(10.1774 -2.02347 2.27381e-20)
(10.1091 4.7065 4.36361e-21)
(9.97609 -0.144667 1.57187e-20)
(7.32554 -3.54792 -7.17172e-23)
(9.13422 3.17095 0)
(7.05725 -2.19237 2.10786e-20)
(6.95535 -12.2455 1.29737e-20)
(7.02477 -4.28027 5.57468e-21)
(8.48952 -3.27322 4.40574e-21)
(9.77665 -4.63572 -3.36987e-21)
(11.1503 -0.164657 7.69639e-21)
(9.40697 0.409691 2.54485e-22)
(10.0178 -1.07419 9.06023e-21)
(7.17935 -3.55467 -3.18345e-21)
(11.7585 0.750101 -5.11604e-21)
(9.55074 0.372088 7.88114e-21)
(5.98581 -1.01247 -1.73047e-20)
(9.27344 -0.54813 1.2572e-20)
(12.9733 5.4699 0)
(11.955 1.52604 -5.61219e-21)
(10.0429 0.342992 1.73627e-21)
(7.3674 -1.43081 -6.73489e-21)
(10.5423 7.27614 5.48082e-21)
(8.98362 -2.79158 9.62367e-21)
(9.96495 0.0957968 3.42094e-21)
(6.84759 0.729566 -2.46604e-20)
(12.7966 -2.28488 0)
(9.60214 0.478777 -2.89136e-22)
(10.9006 0.544088 6.06404e-22)
(9.32522 -0.0346414 0)
(7.34853 0.17689 1.41999e-20)
(11.3224 0.602892 0)
(8.77908 8.16519 -3.82772e-21)
(11.6947 -0.155452 0)
(8.89864 -0.0190335 0)
(11.9351 0.104088 1.7548e-21)
(11.7294 0.667229 -2.77776e-21)
(13.3534 -0.312442 -1.77877e-20)
(9.50719 0.617275 -8.23774e-21)
(7.6707 4.88161 -5.50049e-21)
(10.0667 0.614044 -2.83784e-21)
(10.3279 1.44948 0)
(15.9039 -10.93 -9.42991e-21)
(11.8264 0.497185 5.24502e-21)
(9.17308 -0.648408 -4.33237e-21)
(11.1425 -2.85416 0)
(14.8218 2.01905 1.10974e-20)
(11.1426 7.58948 1.27713e-21)
(10.2025 -0.0701205 6.67721e-22)
(8.22813 -4.6351 0)
(6.66803 -6.74421 9.0526e-21)
(10.0772 0.539145 0)
(10.0932 -0.900283 -4.62995e-21)
(-2.58269 4.53351 0)
(17.0425 -6.70487 0)
(8.3798 -1.90684 0)
(10.0036 -3.81263 0)
(3.20651 -9.34695 -3.27698e-21)
(7.26065 -3.91258 -1.07954e-21)
(9.36852 -0.0710387 -1.46843e-20)
(7.40422 -3.48956 -3.41443e-21)
(6.40783 -2.69514 0)
(7.43399 -3.43016 -2.47506e-21)
(-3.5885 7.20469 -1.00623e-19)
(8.03807 -3.71857 0)
(7.40914 -2.53176 -2.2728e-20)
(9.86618 0.339765 2.62327e-23)
(11.4846 1.68279 -2.08398e-21)
(11.927 -4.15555 3.02015e-21)
(8.97827 0.927779 0)
(10.8539 -3.591 0)
(15.1333 -1.91945 9.50866e-21)
(8.59088 0.165469 1.98763e-22)
(9.76419 0.211197 -8.75921e-23)
(7.50408 -2.41562 -1.27527e-22)
(10.0911 -0.147189 7.26091e-22)
(10.2431 0.117321 -2.10084e-23)
(10.1142 0.610902 8.23367e-21)
(9.52141 0.598696 9.76633e-23)
(9.31794 -2.57186 0)
(-4.83022 -1.86044 0)
(10.3052 0.0792006 0)
(9.78601 -0.0489675 0)
(8.65361 -1.66947 9.35855e-21)
(12.0403 -0.760306 0)
(5.46196 -8.86693 2.48753e-20)
(8.95324 -3.59358 -2.50398e-22)
(6.69332 -2.07511 -3.34414e-20)
(4.55224 -4.74818 1.13629e-20)
(7.30239 -3.67664 -2.10166e-21)
(7.05226 -10.4832 -1.83615e-20)
(10.3456 -0.0150003 2.71055e-21)
(6.96832 -3.70408 -2.99604e-21)
(9.64652 0.628573 1.05097e-22)
(11.9867 0.301454 0)
(11.7428 -1.98515 0)
(5.71377 3.39126 0)
(10.7939 -2.22438 4.81115e-21)
(8.40962 -2.87414 0)
(9.29324 2.95903 0)
(10.1446 -0.0772328 0)
(8.76992 -2.16557 1.00367e-20)
(10.1429 0.981813 -6.54079e-21)
(9.65424 0.0966532 0)
(8.90144 -1.1641 -4.56955e-21)
(9.97 0.957676 -8.95743e-21)
(12.6717 4.02181 -1.91428e-20)
(8.099 -3.6761 1.38483e-20)
(9.76628 3.37408 5.48244e-23)
(8.07264 -0.234363 -1.7034e-22)
(9.09528 0.438217 6.49483e-22)
(8.71522 -0.487657 -2.08608e-21)
(11.5187 0.79109 3.96606e-21)
(9.84427 0.264615 -1.82231e-22)
(9.14225 0.490543 -1.37237e-20)
(10.6131 0.122184 0)
(7.24659 -0.397124 6.42195e-22)
(9.49711 0.214215 1.36564e-20)
(6.14212 -2.8238 3.80378e-21)
(10.408 -1.59077 -5.70577e-21)
(5.63892 -0.804907 -2.91164e-20)
(11.6529 0.638471 -7.127e-22)
(15.2221 0.179987 1.80322e-20)
(10.0541 0.25975 0)
(9.93821 2.74163 2.36518e-22)
(9.46211 0.19209 -2.76087e-22)
(8.69025 -0.421465 4.18378e-21)
(7.28048 -3.84331 -8.05185e-21)
(9.7063 0.0872131 7.3356e-21)
(10.3452 0.18364 -7.69006e-23)
(9.88956 0.0299339 -4.36139e-25)
(10.1718 0.141154 0)
(9.18154 -3.78967 0)
(7.61651 -3.59164 1.71755e-20)
(6.45652 -3.27271 4.3333e-21)
(9.94783 -0.02723 4.26441e-23)
(9.74934 0.219779 2.75092e-20)
(10.002 2.86169 -8.98123e-22)
(7.40778 1.22944 0)
(8.9424 0.675317 0)
(8.00945 -1.62942 -9.83302e-23)
(11.7696 0.0476124 2.74384e-21)
(9.93636 3.07894 1.14363e-20)
(12.6305 -0.431812 0)
(10.1579 0.0137755 0)
(10.2987 -2.99698 1.78921e-20)
(9.75866 -0.951029 1.20067e-20)
(1.56247 -0.339364 -2.18325e-21)
(9.35586 -0.236628 0)
(18.1572 -6.98772 1.57872e-20)
(9.1102 -1.62625 -1.70836e-21)
(6.29945 -4.8823 -4.18721e-21)
(9.84326 -0.0916195 -1.60767e-20)
(12.7156 -4.16252 0)
(11.2975 -2.85187 9.26275e-21)
(8.40868 -4.45351 -7.98431e-21)
(1.73866 -0.231958 0)
(9.83644 -0.110121 -1.96864e-22)
(9.63927 0.413351 -8.98788e-21)
(10.0923 0.0468173 -1.58059e-26)
(13.8551 -1.46481 5.41706e-22)
(11.466 10.2055 2.40016e-20)
(10.1975 -0.159607 0)
(5.48915 -1.70511 -1.96154e-22)
(10.0452 3.20269 9.83635e-22)
(9.66196 -6.38825 -1.97797e-20)
(10.1505 1.57833 6.06282e-21)
(7.09894 -3.05116 2.52724e-21)
(9.74016 -0.0766933 -3.55853e-20)
(10.0826 0.555135 2.10662e-22)
(9.20577 0.495113 4.29934e-22)
(8.55868 -1.89857 0)
(9.28851 0.0160255 -1.4473e-21)
(5.86891 -2.60434 1.18255e-20)
(10.961 -0.587558 -1.6937e-20)
(10.0682 0.33861 -1.24448e-20)
(10.1637 -0.869712 4.25888e-21)
(8.39129 -0.731317 3.37808e-20)
(10.138 0.0765405 -2.40716e-22)
(8.8969 0.680249 7.92752e-21)
(9.96405 0.233971 8.0849e-23)
(11.7998 -2.45973 -1.56132e-20)
(12.715 4.6057 -1.47912e-20)
(8.35572 -3.61654 4.7164e-21)
(10.5141 -0.307202 0)
(7.70222 2.70573 0)
(5.31448 -3.02022 0)
(6.71565 -1.91479 2.57087e-20)
(10.5681 0.050699 -1.97679e-20)
(8.99962 1.18701 0)
(7.53776 -1.58637 -1.99432e-20)
(8.87395 1.19051 0)
(8.70835 -1.47961 -1.53766e-20)
(9.15335 -0.65191 -4.45434e-21)
(9.20436 -2.47383 -1.41305e-20)
(10.3769 0.244583 0)
(9.51296 0.276035 0)
(9.57302 -0.250861 2.49924e-21)
(12.3134 0.854039 3.7762e-22)
(11.6826 -0.438448 7.95686e-21)
(11.5121 8.33254 -5.02934e-22)
(13.0378 -0.944802 0)
(8.59335 -3.1672 -7.29647e-21)
(-3.28777 3.94401 0)
(3.45345 3.11369 -1.33234e-20)
(14.1699 5.27243 0)
(10.0823 0.120359 1.3624e-22)
(6.09613 -0.642839 1.11439e-20)
(7.6587 -0.628388 1.0977e-20)
(9.58039 -0.101234 -2.48071e-21)
(8.76352 -3.43594 -1.76801e-20)
(9.64043 -0.998208 3.03622e-20)
(10.0867 1.44598 -3.20706e-22)
(12.0498 -3.34116 -1.5752e-21)
(9.76876 -2.17226 -7.04811e-21)
(-2.70215 2.32855 3.58921e-20)
(12.8725 1.61613 0)
(10.0057 0.236382 1.9432e-22)
(7.69233 -1.84612 0)
(9.29544 0.484753 -4.93539e-22)
(8.67788 -3.18184 -3.79414e-21)
(8.47296 -0.665615 -1.11228e-20)
(10.2415 0.01111 -1.31008e-22)
(11.9104 0.00333717 -8.02783e-21)
(8.32931 -0.19455 2.27087e-20)
(11.8778 -0.412173 -5.41943e-21)
(9.80032 0.236422 0)
(1.95512 -5.39167 0)
(10.9712 0.222757 6.59633e-22)
(13.2844 -0.466044 0)