/*--------------------------------*- C++ -*----------------------------------*\
| =========                 |                                                 |
| \\      /  F ield         | OpenFOAM: The Open Source CFD Toolbox           |
|  \\    /   O peration     | Version:  2306                                  |
|   \\  /    A nd           | Website:  www.openfoam.com                      |
|    \\/     M anipulation  |                                                 |
\*---------------------------------------------------------------------------*/
FoamFile
{
    version     2.0;
    format      ascii;
    arch        "LSB;label=32;scalar=64";
    class       volScalarField;
    location    "0.7";
    object      p;
}
// * * * * * * * * * * * * * * * * * * * * * * * * * * * * * * * * * * * * * //

dimensions      [0 2 -2 0 0 0 0];

internalField   nonuniform List<scalar> 
13486
(
53.8154
41.7412
2.61256
-9.67232
18.2291
-9.49902
9.39365
30.9248
36.5511
16.2289
-70.1245
7.034
57.0915
-11.8021
13.284
17.5923
-252.067
-4.39637
11.5316
48.0494
-8.90784
56.5698
40.507
-26.0817
13.2993
-24.6209
-75.8359
-17.7337
0.175514
-14.676
-7.22253
8.13289
-33.5005
-11.1798
30.8907
-0.0967502
-0.167449
44.7788
-1.97941
35.9677
5.19536
59.8136
0.34268
14.4254
14.0315
6.67804
-395.897
0.338833
-0.0413817
-21.9767
29.5108
-2.64266
2.60905
45.3033
-4.64123
19.2083
0.866669
-3.14302
-31.9411
0.213146
-47.2349
0.326843
-108.168
-8.52321
-14.1402
0.0400252
-11.2521
53.4487
36.4092
-0.665265
-10.8973
-4.00122
36.5037
-138.002
0.248882
0.974225
0.391563
13.0291
-367.04
-5.06937
0.000218463
41.0807
-117.051
3.21782
53.9664
7.38686
-2.93565
27.0714
34.2478
20.1802
4.71305
26.9007
51.7126
45.2691
38.412
-0.00822046
-70.3106
-10.7555
35.755
-263.04
-0.0165812
-9.84077
-10.8269
-2.26049
19.5185
-274.183
34.1598
-2.10677
-378.204
25.5597
36.8174
6.58992
45.2284
1.12571
63.2278
37.0211
14.0836
-10.8953
36.8151
-0.0436774
-5.75586
-47.4644
40.0559
-2.19578
35.5763
-2.51895
25.6247
4.07779
-9.62134
-12.9863
-2.59951
-386.927
-113.856
-131.052
30.0072
26.7235
57.6552
26.1171
-0.148281
31.6141
-30.0647
2.81955
8.27449
-5.0885
0.443424
-74.8282
-0.15892
44.3978
-23.5976
-0.134839
16.5851
13.0249
-0.149618
42.9418
5.88325
2.03466
20.6961
4.28127
40.5736
0.771399
-19.5255
40.5338
2.62804
59.2467
-2.62716
-19.2352
-5.46012
72.1444
0.20768
-133.043
-122.085
5.87352
20.7703
18.7772
-0.0780737
-15.0502
-17.4434
-36.1246
33.8225
8.59336
34.2551
0.435493
14.4756
-5.74933
2.80218
-17.8885
0.0091964
-13.9406
7.23832
39.7354
-0.0470955
2.12646
-3.10114
46.9057
-3.88903
-70.8365
-13.2364
-18.3961
49.5285
-15.7196
-7.51871
3.70243
44.7742
17.5189
0.853603
-3.8463
-4.76443
38.5151
-2.96667
2.8546
-15.275
-19.0901
47.439
34.0151
-9.21888
-8.63333
-15.5541
21.0705
49.0999
-61.771
-278.559
-23.8734
32.2897
-18.7725
-0.461762
53.2525
-16.2905
-10.7591
-7.70318
-1.79923
33.8135
-24.6121
-30.7954
61.091
-10.4012
51.2408
-11.9879
2.09321
51.783
14.9698
-32.2908
21.1005
1.2222
49.0355
-1.38965
39.8049
16.3834
-19.8477
-135.045
17.0178
-11.2824
63.7056
35.1622
-2.32886
-5.87523
-16.5462
7.74072
-8.65721
3.50274
-31.5172
37.7121
-1.35252
13.0635
-15.8918
20.3192
-6.39358
-7.3217
-8.09739
33.7214
-13.2895
34.5615
32.9004
-16.2486
4.76872
53.4319
-19.3626
-5.88216
-8.02226
-2.65989
-0.466702
-8.04028
29.6729
34.6727
-39.6036
-37.9573
-179.181
-32.9097
-9.96396
-0.906159
33.4961
-10.3301
-0.215417
39.1685
30.49
-11.6673
-13.0417
-18.2694
4.44306
35.7015
7.08717
-0.0114384
-4.54111
-0.0854854
8.90071
-0.133225
15.3059
3.00117
16.0583
-2.60713
-0.00598506
-83.6546
-9.3837
-10.9158
6.32043
-60.9559
27.1331
-0.0958722
34.3482
39.1506
-8.01213
0.0366848
-0.519166
33.9365
45.2918
61.1291
5.22519
22.8105
28.9789
3.19612
21.2643
27.5284
25.8403
2.9556
48.9894
7.98309
36.1712
66.1736
13.7598
19.0238
-1.00506
-7.89195
44.704
20.7838
14.874
-9.71698
-0.0924643
23.9127
63.7343
-62.1931
-0.379729
23.5264
3.14694
4.53131
-53.7278
35.1799
-0.250407
-117.064
25.383
-1.49544
-18.5275
10.1508
4.0095
38.5465
33.3248
-15.3668
0.193928
-12.5096
-359.61
48.4765
25.519
0.678403
24.0097
-2.15445
-10.9249
-8.01205
29.0203
33.9541
-0.464151
-60.0867
-88.6058
33.6193
24.9971
56.5688
35.3315
-379.92
-6.02253
-1.41851
18.39
-228.163
-5.72251
46.475
-17.3375
10.8673
51.8066
52.2758
0.00489196
-10.3184
-10.5959
-263.55
-33.1267
-243.627
3.59678
31.4272
-10.4679
8.70122
-18.3014
44.4864
-35.425
25.5664
38.9926
16.7129
-30.8874
-19.2446
35.734
33.4167
42.1432
-5.99585
21.023
-160.107
15.2253
33.9153
-0.622286
63.8239
20.235
-17.6427
-13.5997
3.51809
34.9449
-84.6225
-3.55622
56.006
31.7514
11.0544
-1.84482
17.0829
-21.8126
56.2137
-0.352801
19.5122
52.3754
-356.977
-16.9678
-129.955
-19.4216
-0.110096
42.616
41.2239
56.1719
-89.3404
-0.167845
-10.9867
19.2874
34.8071
-21.8377
-35.0002
32.2335
-9.68273
-15.4432
-39.219
-69.7809
-8.57199
45.0173
0.178771
-2.74989
-9.84542
32.4631
0.391117
68.8756
52.5763
36.3547
29.6485
0.163672
-0.135027
65.8614
-5.75754
-0.153097
-17.4874
36.5536
-192.985
3.87981
21.6108
0.30034
-21.8439
39.7022
-50.9871
-276.076
19.7866
-5.89266
71.5701
19.1609
28.9779
38.0726
-15.177
4.2494
57.2364
18.2726
45.8395
7.68871
6.21381
-8.30793
-4.64458
0.378499
-267.337
35.5019
36.6485
-11.4143
0.00192018
-10.371
52.8482
42.8521
-5.95554
37.2956
26.1525
-21.1384
20.9205
29.5762
-147.611
55.5005
0.121175
-0.835127
58.8175
25.538
0.348608
23.6821
-9.12417
-10.312
13.472
23.8337
40.4702
51.9869
-14.6656
16.7181
-16.081
0.0103434
50.9472
5.4823
-6.39696
-11.0405
-0.679899
4.92019
29.4165
-13.6654
-34.9584
37.3034
48.3626
-6.26247
37.9719
-79.2054
-11.1729
-48.0923
10.3735
-13.7457
39.0396
3.18215
-42.2205
30.8545
42.5728
-30.903
-11.9219
29.2662
50.5455
7.07311
54.1514
4.20981
20.9381
3.69032
38.612
0.584808
49.2328
-60.9099
5.68114
35.5591
-8.42034
-18.0464
33.3973
-343.92
4.81878
41.8966
56.7957
-10.0353
-1.97082
5.54622
-0.487552
31.1389
22.0585
12.9769
-48.4277
-4.06977
53.8725
1.34325
-2.23974
-22.398
56.9664
-10.3502
0.958332
31.3695
28.1213
-4.65328
-18.2056
32.0358
2.83587
-2.32332
9.0563
-42.3226
54.9669
36.3798
25.5238
24.1221
-22.5827
-33.8994
61.2872
6.2649
61.4938
-10.355
34.3501
0.419973
-127.837
23.7008
16.7078
64.284
-16.6203
24.0885
22.1343
-66.142
16.3763
-4.56997
-20.1854
35.1637
-10.8724
-17.3729
-21.9776
-9.20791
-9.27608
37.8265
0.00346483
60.6373
35.6488
0.574717
-10.635
-15.5015
7.07937
-40.2335
-13.6367
-258.98
50.9856
-0.049173
0.872881
-21.8442
56.8474
-0.0808368
3.20179
59.2038
29.5459
-7.48235
-5.62133
24.9562
-1.06282
35.5846
1.16887
-10.9706
8.44758
32.0986
6.89387
29.674
60.0409
1.13158
-12.9563
33.3806
0.231944
-10.3347
24.7296
23.2296
11.957
-6.7444
3.5148
-0.61371
2.83356
50.7972
7.10077
2.8103
3.31463
2.42395
-4.08059
35.255
0.893437
34.3694
33.6867
49.1568
-6.47507
-33.6059
60.947
0.304057
-9.72933
37.1673
-22.974
39.4095
0.650804
32.0003
-14.0695
-126.959
-21.7291
-0.00882329
-275.09
15.5669
62.659
-9.51782
-58.6609
-17.9005
35.2933
-11.6363
12.2826
-26.2755
61.5105
-6.07107
17.1781
-22.3132
17.3023
34.002
10.0877
-76.8818
-7.75629
58.2184
32.6401
16.0654
32.1033
3.41568
28.1097
28.9448
17.8171
-122.288
-5.48863
43.8918
8.32083
-2.89508
30.9819
-10.9506
-9.26896
-1.55606
37.95
36.5285
-11.6336
3.46067
-7.09016
-8.11366
2.8953
-9.07436
3.16773
31.9748
-6.18397
-40.8843
42.5147
-4.64073
-11.6497
-7.59134
-21.4184
-11.6537
-20.575
-0.866268
-18.4255
35.7177
57.0171
-0.0579652
-11.656
59.3219
55.2787
-9.47785
-13.5009
37.7455
-355.054
1.16236
-11.9428
-3.40066
19.9453
-273.328
10.95
20.6792
-19.3754
-9.04904
-30.1055
-8.70546
30.9675
11.9236
21.7779
-12.3093
28.7192
53.9829
-215.514
-17.4183
41.105
14.3182
21.991
-1.72854
-14.4848
-12.401
-8.20565
35.1627
61.7086
38.8858
-37.2909
-8.25705
33.8001
52.3149
-18.7974
38.9821
33.968
54.4705
8.83176
-1.03656
1.21403
-7.35283
53.6396
3.56306
2.58575
24.4403
-5.39235
7.79315
-7.12609
-36.7295
32.131
30.8606
21.9977
12.931
-218.636
-12.5811
-8.48998
19.8815
-44.6961
-22.6552
0.59709
-24.6319
-42.5206
14.5724
-14.4651
-134.743
-162.452
-10.5434
27.3627
-85.0214
-14.9939
39.3419
-9.3779
56.9774
-10.6751
-133.827
43.3944
51.1793
0.27004
-2.29071
9.54105
35.2475
21.0969
-66.8632
-4.24759
-0.159542
-8.95198
31.9893
0.859398
17.7634
-0.612176
36.5387
-91.2635
1.07526
0.216359
43.9063
-25.9015
-60.6586
-21.7104
56.1848
-9.22978
-13.1745
-96.0936
33.6558
-13.1268
-0.322704
6.78527
16.3356
-25.9592
24.8491
-14.1276
27.3756
32.1548
42.0018
11.9385
-1.24921
-10.2055
23.9252
-18.6566
44.0338
21.9369
-5.30413
-2.27571
-6.27197
-6.20204
-0.153802
39.4622
10.0039
-0.186522
33.5611
-5.57022
28.5121
63.6212
-7.08108
-52.6032
21.5649
-7.52885
-1.37706
-6.44899
-9.69431
34.8486
1.08588
0.808051
0.599306
-4.65196
47.1005
-7.56459
-0.0919478
33.5967
-8.38105
50.1197
39.4762
48.1846
7.27602
20.6869
9.16064
2.37131
27.1921
34.9474
-11.5889
-9.13384
-171.832
-13.0242
-20.2895
34.9361
-57.4894
-31.9301
-24.4409
-12.1877
-0.436456
34.0004
0.0989991
4.89874
-118.65
33.6067
63.2268
-12.5014
-52.1099
16.5545
-4.59231
34.2796
0.668642
-1.63599
43.2877
-2.82238
60.2151
24.154
33.7856
-14.2027
46.3662
1.31622
39.8822
0.0165473
-32.2321
-17.7314
-17.6015
23.4122
-11.1278
-4.65692
56.4957
33.4268
37.0239
51.1054
38.1782
43.6669
-8.65392
37.7388
33.8317
35.7061
-7.72927
-16.4596
-21.1766
-33.3823
6.95591
41.0434
-125.872
62.1632
-41.1447
1.22192
61.0377
51.1173
-8.78798
-19.8295
36.0824
15.2702
-0.0949362
33.8678
-120.915
-19.8154
33.3094
49.9388
-1.61168
40.3142
45.787
0.452306
-17.4741
45.8134
14.4378
0.0639477
-33.7793
2.7986
-35.269
31.266
23.9277
-0.0276438
-5.77735
-16.1735
7.52855
-1.72038
7.0218
51.8928
-2.08474
68.1518
35.3824
10.1601
39.9176
-7.79962
-109.411
-12.6449
34.6309
-1.6205
-134.633
-7.35822
13.6639
17.6099
-0.907083
26.5423
-310.197
18.4601
-14.2068
-0.486374
28.4308
9.39281
46.8704
34.8274
36.2075
34.2124
-8.43534
-28.0008
-26.1249
3.43203
-10.5324
-14.5043
27.9869
-8.6669
-0.503928
0.0877185
-0.269333
-27.1976
24.6028
12.7586
1.06825
-16.5468
16.0929
-23.6609
-23.0625
3.08701
-9.43554
40.2309
23.9872
47.0715
-133.232
29.7329
1.09336
49.8791
-8.55891
15.0907
-6.96484
-9.42736
58.3577
59.5318
28.5965
20.3009
21.4482
33.2515
59.284
24.6772
-31.4517
-23.6616
5.71247
-39.8983
-235.197
33.0475
34.0121
-25.9016
10.1941
30.6095
32.07
64.5869
-63.3088
25.714
-276.312
-18.3708
50.8926
-5.91756
29.6744
-8.6599
4.37823
13.1111
66.9101
-0.103416
-21.2893
13.8923
3.56524
-11.2579
-127.281
-3.83484
38.6341
1.08227
20.353
55.1049
49.9907
-3.9733
-79.393
-0.150863
1.35638
42.9055
34.3077
50.4828
20.3036
-91.161
53.0682
33.1716
-63.2696
27.7861
35.1388
45.7341
-51.9111
-10.0761
0.0873402
28.6575
58.6526
17.6114
1.6441
-35.288
64.7063
-169.243
-30.43
60.8411
28.8535
-44.5152
28.0687
-10.7965
19.9427
-12.1621
-158.289
-0.813983
-13.1835
-2.65196
-9.97524
-355.747
-268.075
-150.964
11.3181
-248.652
-10.8764
31.6849
31.1371
20.3682
-337.289
7.42426
0.781302
-9.34877
67.6882
23.8564
-24.1057
28.421
-11.9782
-13.6381
30.2614
30.142
33.8811
68.3274
0.0947205
-5.99097
-25.5788
2.87512
24.535
36.1774
-18.9168
53.7732
21.7971
36.3419
-8.60318
-4.24128
1.62296
37.516
33.976
39.248
34.3669
62.1762
62.4479
-12.1344
29.428
45.2003
-23.5881
50.6838
-1.51777
61.5554
50.3678
-2.71968
39.4303
13.8011
27.4821
1.5958
34.4724
-27.815
30.9393
13.0389
24.778
-9.17362
33.7627
-1.53317
6.47612
59.4882
59.4339
23.6744
-131.105
6.98065
4.13453
-5.46456
25.7024
52.9151
-127.693
35.6025
34.5078
16.5217
37.1672
-16.1834
-8.88611
-0.0654197
63.3685
9.48589
0.340166
40.3651
-8.79827
0.913767
13.4583
5.23072
24.1239
15.6562
-14.5036
20.2147
29.2537
24.1078
27.1255
62.0943
50.5065
45.4768
59.217
59.0478
16.3797
-1.77053
-5.12779
-47.4254
58.2823
-8.82157
35.4664
32.2266
-9.11618
18.5725
39.0126
-18.8326
16.3156
19.4715
69.1151
-47.7325
14.531
-47.1973
41.8039
2.86942
-10.4667
57.4712
49.2548
34.6784
34.4507
-13.0874
15.978
-290.469
62.1852
0.321999
66.4439
-7.41881
-1.57645
-208.809
20.5938
-119.865
3.98814
-2.73741
7.5723
-3.53681
7.86724
-10.8644
-0.198557
-9.73195
-135.48
-17.6191
-72.9528
-3.27636
-3.77896
-10.2933
-38.1976
37.2943
37.9602
45.485
32.1498
13.2798
12.9495
71.0084
34.5986
-102.953
0.0965409
-8.08941
24.7169
31.1276
53.7445
-32.2768
-32.1412
30.0668
0.17772
8.04935
43.8034
-130.948
-10.0833
-315.78
63.0492
-10.9116
24.0181
45.5893
-4.02958
28.0362
-1.01843
-41.4672
-27.4805
1.1603
20.9344
42.8562
44.6292
-74.0027
-127.697
24.4899
-339.988
-14.9497
-8.53107
5.4895
-11.4213
-1.88849
-11.1145
-40.7123
-26.5541
55.4675
-9.10429
59.9846
-14.8087
-7.69759
12.2495
-13.8751
51.4478
36.2289
41.7716
-6.61751
-12.2235
-49.4541
49.9458
-128.013
23.5817
-0.746516
42.0674
50.8633
-1.05739
34.8676
57.8012
39.6075
37.3714
-80.6009
-5.36183
13.5533
-21.949
-2.64001
21.7069
26.7413
2.56092
-70.4089
7.19227
0.74526
31.7433
27.206
-15.9509
61.3122
2.90111
-0.0527872
3.22938
32.0276
-13.5711
0.0785717
38.9627
-25.4289
2.81084
-11.6497
38.6026
32.0289
30.6409
-1.53279
31.5272
39.9812
40.3559
-11.9239
1.15186
3.92266
30.5952
-34.1993
-211.37
-12.9103
-58.3464
-10.3152
-0.0465855
-2.69735
0.734724
-131.474
-24.478
-31.2484
0.791961
-11.9828
9.2699
-10.4063
36.5376
72.2121
8.41208
-9.70041
12.4077
-0.415201
7.53424
0.0452714
-14.228
-22.6591
4.27715
47.5833
-0.0241891
56.9588
-0.0249133
30.845
29.608
14.7214
-246.996
22.7192
62.1131
-10.6152
32.5224
32.2779
53.593
3.77075
49.0671
39.2515
-183.838
41.6824
-54.5076
-212.882
50.4243
29.9478
-67.456
-2.77866
45.8179
3.97114
-16.4785
0.253721
0.732287
25.5223
15.8292
34.253
33.8883
29.4706
-85.0561
-18.1982
-11.2931
33.2854
66.7243
-15.3613
-203.042
-236.277
36.8953
3.57687
3.46219
16.4466
-3.40405
27.7542
-15.8212
5.56343
55.0808
11.171
-6.5744
-7.62939
-10.6048
-20.7965
-288.088
-26.5731
-11.3361
40.7908
15.5486
-19.5498
56.2158
0.156428
-35.8972
-10.1152
-207.013
38.8609
-113.235
7.55457
35.806
-1.27562
-11.9924
-7.8533
-104.792
-9.97516
37.4769
-30.5394
-1.30011
-298.609
32.3552
37.6217
-10.7851
44.9407
41.8063
55.0583
55.9971
40.0385
4.45641
62.9033
-327.907
34.8961
7.97007
-32.373
42.2054
-12.334
54.0468
13.159
-47.2776
-265.23
-348.611
36.8381
-13.0458
-12.1744
0.793804
-34.6797
-6.79372
19.3321
2.60778
26.2941
62.9804
-132.491
-24.7184
-24.2061
38.1059
24.6992
-18.1679
71.7392
-1.9165
0.853146
19.8563
-43.6381
31.3419
36.884
41.1261
42.3427
-6.58535
19.3062
33.76
6.61061
-30.5399
0.0696187
39.4659
39.4044
49.9645
-9.91271
2.83995
19.141
18.1911
0.712681
-30.9862
27.0164
-9.54942
28.4618
35.2023
-264.819
57.3728
-17.9347
60.6789
41.3199
-25.9309
0.0921044
0.0981262
11.1474
36.233
-21.0428
48.7527
32.1542
19.0258
0.167251
6.25969
-14.0085
18.9668
-289.132
22.5669
-9.59393
32.7707
-187.808
-3.11539
-10.9023
43.3363
52.0093
14.5981
-186.602
13.8784
-4.47472
3.02071
16.4162
-12.2904
-8.13792
60.2102
-24.829
-7.66307
-26.5629
-163.023
-10.1995
32.9202
-277.214
-9.46558
36.1128
22.7061
37.4889
-9.52848
15.53
60.4018
-89.3746
32.407
9.36333
-12.3985
8.41271
6.79495
-16.1283
61.7229
41.1801
-13.1048
59.3151
46.7928
42.8152
-355.948
-210.722
24.6573
-53.113
-4.98404
-73.3692
-48.7511
-69.465
27.899
12.3086
21.5979
23.8246
-7.85184
27.6912
33.0983
-133.614
38.5374
19.2089
32.9108
-4.58489
-0.515148
-10.8033
-301.93
-10.1882
-10.6285
32.1851
-32.5011
55.9314
-8.76905
31.7715
22.9228
0.121919
6.72571
36.1191
12.9799
4.58128
32.1142
-1.02776
-5.97541
52.6577
40.8268
-18.8833
-50.1421
-1.50849
29.2331
-3.95911
16.4283
-69.1103
-3.78803
-4.79894
0.457369
30.6092
30.9332
-3.33464
12.3394
-5.42753
-1.18165
-27.7496
42.8927
-10.2011
34.6816
0.202788
28.5894
37.3468
17.1002
33.0617
5.43843
-10.9125
0.0322232
-114.579
-12.3307
-17.8805
-18.8605
-14.8537
25.2058
-6.00947
32.1641
-4.3461
-4.36534
-73.5576
-1.26925
36.8629
-30.4741
34.5756
7.35334
-22.5697
-2.66494
-10.976
25.5421
33.3401
-1.21177
5.24599
-105.733
42.7412
3.01729
9.14085
-9.91998
44.3481
16.2349
-0.13818
37.2543
37.0907
43.1701
15.0023
42.5778
-88.4879
1.12822
-8.09092
35.4092
19.7008
7.91226
1.8274
-29.84
-16.3232
19.4676
2.23312
-19.2082
58.7141
-89.8413
42.8461
25.2414
-12.3063
-2.11025
1.56029
-4.0261
0.145215
3.76608
31.1264
0.210888
34.6689
-76.9658
16.7427
-7.17063
7.10056
-31.1212
45.3617
60.7472
38.3592
20.9002
7.60984
20.5097
-90.007
-2.54209
-0.812292
-5.29223
-19.8448
-28.809
-30.5871
-19.2096
31.5513
36.0065
-93.9967
7.8685
39.4692
-20.7358
-59.4741
36.8822
-2.17974
-49.6551
0.303653
-11.1399
0.11878
57.2414
-0.716171
34.5754
-45.449
-28.0699
-20.608
34.8919
7.9874
29.2605
-36.936
-24.9984
0.983472
6.01425
39.7956
30.5678
2.52658
-7.56878
-11.5895
63.3571
-9.07007
40.566
45.3791
-7.57531
-2.87838
15.0319
-244.81
-37.3876
28.8076
17.3395
34.3664
-13.1802
37.6586
-0.108393
50.1144
7.91315
29.4245
44.5217
27.2676
3.72802
-6.65687
7.53278
-202.378
31.3035
12.7431
42.8969
-0.0621387
54.6543
4.63038
58.8806
-27.9924
45.602
-9.5415
26.238
-72.5624
31.7337
16.1434
11.4233
52.9887
33.2918
6.68801
-18.4805
19.6206
31.44
-1.62007
-264.874
25.4393
0.915632
46.0126
-9.18397
55.8598
4.84755
71.2938
55.4807
26.8775
24.7377
-69.8839
-1.09607
59.5855
0.365501
-5.69451
-4.7076
59.4154
14.6852
30.3075
48.7276
-28.9034
37.9187
-9.40102
42.8141
0.908048
40.8255
35.8804
50.4734
-1.81181
-353.881
8.45185
-11.1471
15.4822
7.2927
0.288886
44.8806
52.055
0.442005
12.0416
-7.73387
47.5738
28.7222
32.5331
18.6006
-8.17067
-133.954
-9.04886
34.6782
-74.8876
-6.16139
0.366096
25.4489
16.1465
-19.2789
62.2646
-5.97044
55.8901
11.4533
57.2828
-13.5828
5.16717
0.243391
1.25628
29.1407
32.8506
-14.7974
-5.40272
-21.5713
-5.27053
52.6108
-16.5284
-2.94626
-13.0701
-6.6367
13.3596
44.2735
17.633
0.897145
0.358254
33.5729
66.757
-10.7779
0.740967
34.9353
-2.38545
13.9027
-0.729493
26.3155
-5.15389
-257.372
-12.0797
-9.51771
-6.58655
-0.95591
-61.1899
-16.6995
-5.06276
25.077
37.4347
28.6393
65.2326
-55.4221
57.9581
-106.985
56.0063
-21.604
-30.9146
63.1334
10.7433
-11.4525
36.2206
-2.20336
39.6914
-16.6967
-286.742
4.54821
-17.2805
-19.9392
-0.113083
-6.30734
10.0623
45.2384
-26.0707
11.5787
-74.6256
6.65914
-8.88653
-1.39427
-0.797352
-6.36176
-57.5631
44.3307
-1.06279
50.9535
12.2136
-36.3713
8.60441
-40.0238
0.311037
28.5346
44.3032
63.8178
23.1845
28.5035
17.1205
-131.825
61.7321
67.1265
37.5638
-27.8844
-12.9951
-194.308
32.8254
23.5382
11.7612
26.8083
-7.85463
-1.03944
-123.046
52.2486
-3.96608
0.87782
-10.683
34.6554
6.34353
70.7147
66.698
31.1494
-3.97134
9.28115
-95.7916
10.7261
68.0313
5.15152
0.0525197
26.481
0.265687
4.78736
-8.29876
-13.8302
6.57936
0.653435
14.6114
0.0204422
7.46037
49.9653
12.7558
37.0947
-11.0235
-15.7043
61.1428
-46.3171
1.97634
9.44163
11.6243
1.09182
-10.9635
6.48714
1.03973
0.975671
70.2793
-238.776
-81.2333
-21.6412
-30.0805
8.75987
10.8666
-10.7785
-62.5827
-0.0813733
-108.848
-36.435
-21.9597
1.93848
1.54942
-0.77012
70.1052
-0.889653
8.48711
-6.81732
3.70638
-144.625
-10.9568
48.6928
33.9273
8.4661
-7.03463
34.2128
36.9885
-2.18198
-25.1054
-0.672998
48.3468
-20.9314
30.8048
-2.47195
55.0799
0.380355
-11.4805
-9.18733
37.7606
-16.0366
29.5709
-29.7048
68.1508
-10.6899
-12.3357
-82.7769
12.8552
-10.9878
-29.9392
-10.8792
3.6918
17.4878
-14.1631
-8.6449
-3.93185
3.78014
-17.1691
-36.1497
27.8005
-231.825
30.8459
-11.0312
38.3325
61.5499
33.7252
-130.497
36.3209
3.68547
3.5392
-4.18313
-16.6461
-203.834
0.314613
-12.1591
17.4781
-4.4627
-31.3944
0.0853811
-67.8102
16.9206
32.6441
-34.499
-10.5735
-17.2813
0.114094
-6.28644
20.7483
-86.7846
-11.1014
33.9972
-4.8936
21.8979
-30.4824
-78.1477
-13.3485
-54.417
67.57
9.46899
-22.8659
6.61176
58.2832
61.3755
-11.9539
-9.57531
33.5964
-0.926993
0.265887
59.1692
19.0319
32.3169
71.2674
-16.9141
11.7384
1.24003
52.9439
35.5304
37.3551
44.253
23.2889
0.446977
1.43863
12.9889
6.884
-275.547
61.2897
-19.7897
-24.9049
-0.0163532
-17.2592
16.8045
-10.6587
-10.2104
6.36243
37.3334
36.9602
41.6115
-102.17
52.2173
59.7164
-77.6139
22.2086
-5.78601
-6.57741
2.23667
17.3872
-19.7286
-21.4793
-35.605
66.5805
-61.865
41.5808
34.6413
48.2824
27.4798
27.5837
-6.15646
0.296133
22.1566
-2.22316
-198.425
-65.1992
2.95607
-10.1835
43.725
-13.8653
-0.495333
2.98914
-118.924
-11.1699
-306.446
31.1293
-9.44972
-0.685348
11.1462
-24.9297
11.3413
-96.9843
-5.39689
37.5651
-38.7106
60.9888
-0.170064
63.9258
0.169045
-0.849979
4.88116
29.1581
30.4683
-103.811
-4.9776
-12.9245
4.61669
25.1676
71.2995
48.345
11.6422
-19.9156
18.8201
-5.68129
41.615
-6.85588
17.6823
-9.65028
-10.6537
-145.736
14.2482
0.240924
-132.93
20.4544
22.4066
59.3262
62.906
-284.396
-193.912
-11.4544
-42.4965
62.5861
7.22541
-21.0889
12.0226
22.9859
-9.30138
0.56432
-0.497625
-2.34919
33.3811
-8.36905
10.2882
-17.7343
-31.2867
-87.4356
-14.8733
-88.6751
-78.1214
39.7074
-12.6029
-11.0424
-9.90721
-3.87409
67.253
27.7639
30.8791
-10.7693
17.4891
-6.23825
14.3604
6.71892
-10.4241
-236.576
62.6046
36.9947
-4.86754
-157.873
69.8222
-11.2868
-157.703
-9.31991
18.7964
-11.1745
-9.03257
53.2137
-6.88754
33.0965
10.0847
-10.4663
-1.20388
-0.67525
16.9554
-93.862
-3.97261
7.63276
35.0948
-10.9781
-123.358
7.08063
-12.9448
-46.6744
-43.564
65.5543
20.1707
-21.036
17.879
4.75184
57.8822
20.1634
-267.113
21.7973
44.5905
40.0697
-18.1358
29.281
-5.9337
62.1575
0.5988
34.8384
-17.765
-17.1204
0.286277
-10.136
22.4138
8.47878
-270.248
-11.3875
42.3974
-4.64497
-6.42615
49.6863
25.4271
48.3168
30.0994
-26.1959
0.207625
-3.07942
35.5256
0.0552379
44.7422
28.8605
60.7779
-10.5986
46.979
19.055
60.5009
-10.7806
-28.9265
62.565
-10.7775
28.3798
-73.4057
54.9078
60.0044
37.5146
-65.442
32.2339
46.4672
-16.6938
11.4808
-11.2067
49.5969
-10.8921
-6.81413
-227.836
-255.838
45.4503
18.2467
-288.169
18.2296
59.9347
-24.4574
-10.7475
-288.345
-32.3335
31.3056
-7.02403
31.3029
33.2451
-304.338
67.3655
-2.90991
50.772
51.6131
1.69585
-0.356939
31.9735
-62.2491
-8.4775
31.8508
27.058
-19.1456
33.6045
-9.92101
53.6992
37.0861
12.9925
2.55201
40.6851
-7.35878
18.724
48.014
6.73271
0.143534
46.1425
38.2342
-23.0346
-132.671
28.2045
40.2088
61.5875
-163.587
65.107
61.6676
65.709
-7.65046
44.5287
-14.3829
33.8043
49.0315
46.3295
39.6844
53.1521
70.7692
28.6801
-196.981
3.51771
-211.248
70.0814
18.8739
-5.59934
-10.7117
32.4137
52.6041
34.139
11.0287
-4.61548
52.2606
-77.3494
38.7981
-10.9426
11.8431
-1.2232
12.6807
22.826
-8.04944
-10.0609
-8.65518
-12.5989
-7.57755
43.4723
-12.1726
3.35259
32.9076
-67.819
24.0266
0.320351
-63.962
-18.527
-229.456
50.4374
53.9787
-11.0468
10.8872
45.6599
39.2893
0.48442
-20.041
39.0898
-252.41
49.0834
-58.5512
47.6716
19.6696
0.615869
44.1553
23.4068
47.1972
11.9106
12.9953
-15.9421
-138.661
-100.199
-3.18298
46.2151
-26.7052
-10.1307
-27.0451
51.2762
46.8186
8.92492
26.8843
51.5798
-71.1759
34.1068
-5.09705
-18.5353
33.7064
-11.405
-82.1124
-40.5536
-310.681
-10.2277
-24.3659
-5.01243
-204.356
-130.613
28.9332
61.6447
67.642
58.562
-25.8988
39.0264
-23.7732
32.5384
51.0622
0.93944
45.2544
-27.5181
11.6768
-17.9025
-7.0711
49.3939
-30.3675
40.7985
-130.757
-14.4659
-331.712
40.3006
40.3988
33.2593
-57.0625
33.4763
-12.5646
-310.24
-321.456
10.4455
62.6682
-96.9348
-10.5968
-11.1904
34.293
32.0235
-2.43431
19.1918
-88.3516
52.3926
48.2736
-9.66338
-12.2546
51.3389
-11.6659
-48.3684
-4.20738
46.4028
52.7674
-10.0159
26.304
-9.62116
60.5105
-244.376
-16.2752
-6.90136
57.0821
-4.43378
-15.3549
-6.02877
49.4892
25.5102
48.7256
-7.77691
-83.1664
39.733
69.0962
-109.335
33.089
-5.44819
-303.139
-5.20126
11.8028
-11.3745
25.7409
-10.1232
19.979
-7.90988
-20.7764
44.3053
54.012
33.1338
-57.8532
-16.5495
42.3151
-94.5138
13.7243
-20.6896
16.7864
-169.226
36.8769
42.1861
-5.67288
39.8497
60.5929
-9.62238
29.8266
39.8838
-322.303
18.8101
-18.4796
16.7868
13.5038
25.664
0.132934
11.0679
-7.50605
-75.2286
50.9291
14.8069
1.87667
-12.2364
-8.0192
36.0087
-124.291
65.5645
-46.8994
-373.359
-10.632
45.0543
41.2781
48.8079
-291.25
58.4653
-38.0795
29.4208
-0.140472
-85.7028
30.8479
15.3958
-8.99172
24.3486
-163.783
26.5235
-285.038
-12.0709
0.0197982
-53.81
-64.5434
32.1881
59.3101
-0.60279
-17.9368
46.0769
-68.227
54.062
17.3324
-3.07299
17.5952
34.5269
18.3398
-6.82922
9.90522
-4.49245
5.38345
9.48353
-83.8961
-11.578
1.35364
23.1844
-7.62351
70.3147
38.8614
33.7429
55.1484
1.66267
38.6246
-27.6499
-321.921
-13.6477
33.4979
69.4787
32.8415
-31.8852
50.6247
34.6317
35.0901
-0.829512
-5.72996
18.0967
66.0521
8.8545
-20.7791
42.2499
52.0457
38.6841
34.9085
43.2061
25.265
-10.6209
-16.4106
39.1056
-115.275
-125.113
34.3565
-14.8554
2.95381
12.5117
39.419
41.029
41.4299
-8.28137
48.3872
49.7773
4.45156
43.5087
37.4938
29.0591
25.4335
25.611
17.6107
-2.91668
45.0475
43.4698
-7.73216
33.3526
-8.78064
-0.115723
58.7229
44.8642
0.154844
-12.5857
-6.62762
46.5184
26.1063
4.0788
-1.3037
3.82358
-11.0545
5.75733
-9.95201
-9.85475
27.54
-8.8622
-43.3185
-66.3217
56.291
-11.9201
-120.537
-11.7915
59.3979
-8.83108
5.96778
2.8916
-254.876
26.6026
31.7727
22.7076
53.0418
27.617
-3.45566
-265.129
-11.9618
0.320872
40.1503
-4.15996
-13.8813
-259.746
-11.4807
-139.792
-11.7007
-91.1761
-7.58001
9.65551
32.546
47.5372
-10.5081
-6.56411
52.973
39.0021
-8.02177
-9.87826
-238.826
21.8203
-0.549508
18.8443
27.6007
-4.15482
-9.02227
-9.96027
5.80526
-32.9743
-278.124
2.91965
-21.0354
-303.651
-266.032
-12.4874
3.53759
-227.709
17.4562
-14.9024
33.2764
29.1716
8.60626
45.6134
-22.2398
60.2187
-17.714
-2.08061
-38.6389
34.7793
20.6044
-131.707
-275.077
34.7031
41.8688
62.2652
-15.1408
-286.304
-20.541
-5.99343
0.106215
-62.7321
13.4166
-170.154
19.9784
-18.7623
28.6113
4.98834
-3.55379
53.7075
31.3242
-31.4875
-0.771623
-51.8448
-206.577
46.0482
67.7684
-107.775
44.614
32.9351
-0.1235
-12.1621
44.2512
42.1739
-97.0579
-8.52351
-14.1215
-23.5418
-36.6684
-120.915
-32.4833
21.062
-8.60258
38.1057
-43.0229
-253.397
31.426
-33.6505
-236.428
-2.44628
25.6257
-264.923
-21.2799
-281.258
-40.9228
-209.136
63.4658
-308.758
-10.8389
-23.2691
38.3976
-345.531
-7.24805
-71.925
-60.949
-16.899
40.4448
-0.0160853
-68.7743
29.9684
0.16684
-15.4077
-75.7767
-79.1183
25.7352
29.2529
34.2799
-344.382
54.5085
-12.7156
0.0900293
1.33792
-69.8351
-17.1179
-74.5904
-30.8996
5.45845
11.107
-1.40756
-13.0132
-31.4727
33.6776
-42.2915
32.8585
-60.5422
19.2667
-10.2167
-5.15354
-6.79833
72.3868
-4.85617
-295.955
-203.958
-26.0633
33.4694
-0.451121
-8.62501
0.94675
-250.776
-12.632
-133.253
-115.835
39.9781
-163.277
1.23745
-292.808
-6.02326
30.3503
1.94861
15.9965
-17.1464
47.5842
-304.374
-20.4089
51.2097
13.5055
-318.661
-12.6573
-64.8701
-28.4656
-14.9467
45.9694
-12.2984
12.0155
-259.044
-58.9246
-102.85
-132.917
-156.153
22.3284
-9.33508
34.3256
9.84216
-44.4983
51.9651
-19.1534
43.3695
53.5919
-278.239
-2.15894
37.3508
32.5519
29.0195
-24.7209
-43.0326
-46.3332
32.7658
6.458
-28.1642
-84.513
20.6121
41.1404
-11.3311
-4.06429
-2.56244
50.2109
-50.3237
-56.1058
-0.528782
28.1963
-1.70377
-4.77082
54.6995
43.7285
-1.47482
-26.2755
45.4531
14.3311
-6.91288
33.8836
-13.1798
-33.9879
-54.7034
-26.7493
42.453
38.8063
-4.61193
-20.3746
-9.05691
-3.18772
39.2774
-25.4726
28.9759
47.881
51.6063
-10.4702
34.637
31.7122
40.3838
42.9282
-9.28775
42.9111
0.116377
33.8607
17.4287
37.6039
-8.29966
44.4338
42.6721
29.5292
20.9129
-18.5413
25.5615
1.29034
-23.1203
49.2939
47.0381
-19.006
43.8953
-27.0576
-119.407
38.5636
37.8843
-60.2046
-7.04174
-288.748
-23.829
-36.4403
-11.2893
-59.3918
-14.3021
32.3924
64.7693
46.0226
-11.0387
-9.88235
38.2652
14.7579
-7.29843
-33.5025
-15.9138
-54.7403
-125.592
-129.975
31.3284
-19.9824
12.2402
0.34625
0.311461
-6.11032
0.877622
5.98929
18.9198
21.5824
-17.1302
19.7589
-99.0479
-34.7889
24.3762
16.2119
-3.61383
8.62188
21.4668
-1.54229
10.8499
-17.8479
34.0604
28.7978
57.5014
33.8673
-24.0305
-14.6546
-20.046
-14.9936
-1.09898
-0.320037
-7.80544
-19.9864
65.229
2.40554
-3.63311
53.5594
-11.0199
-28.836
-17.0461
-9.12596
-344.902
10.9867
-41.9034
35.2521
-8.93394
-22.4303
-10.5755
-11.5136
-29.3876
-6.54205
-2.30623
24.9582
-10.8862
-11.3709
-45.6123
12.8552
-29.3463
37.8456
55.344
-14.4997
38.2639
20.237
22.9091
60.0943
-10.4784
18.5093
17.7488
11.4466
52.0563
-15.2924
-6.33115
-6.81327
37.0162
55.4888
-12.754
-7.09899
-28.3759
-25.0767
15.588
-19.7601
-64.8963
-15.5815
10.9841
-234.448
6.84697
10.0019
28.8551
5.28183
-174.17
-11.3783
-1.19688
-8.32706
59.0552
65.6677
48.7717
67.2875
29.1984
38.5831
41.2844
35.6327
31.0258
-22.8053
36.3918
-13.951
-126.44
52.9264
-8.11296
-30.5754
61.9894
-3.26032
-22.4079
15.8071
11.5503
42.7631
-195.657
30.9891
56.9668
-10.8685
-118.746
-55.3588
23.9174
-19.2878
46.626
-7.61472
42.9617
33.683
-11.4177
41.6832
-20.5701
-233.9
-200.799
-15.3826
43.8295
-26.5651
33.4447
-2.6664
-82.8645
1.01538
-6.70186
-41.6817
-17.2209
-378.181
43.9823
3.60566
-243.592
-20.2892
20.316
7.59012
-21.4386
14.1136
-0.696345
14.0763
-301.465
18.2901
5.94112
23.3753
-4.69172
32.9332
21.4619
7.06673
-325.939
68.1395
-28.9423
-307.428
33.6632
28.3024
-143.095
-28.1301
-6.77579
22.7318
18.8306
-24.832
-6.56907
-10.6215
67.8656
-27.7445
-11.5643
1.36918
-16.935
25.3436
-9.18193
32.7415
20.1587
-21.4413
22.3661
-267.159
29.1667
13.5992
36.0989
22.5639
0.103069
0.0907178
17.3887
37.805
3.39852
2.82143
-332.737
-24.5011
-17.1648
28.4894
-324.958
17.3987
-360.777
44.0595
-97.5973
-12.3566
47.3894
42.2381
13.6335
-9.6544
-210.338
38.7265
-2.26663
43.9116
16.002
-7.61759
34.6178
8.85873
6.99451
4.19015
-15.5535
-20.2743
21.5066
-4.28291
48.4929
9.96003
68.2826
-4.54982
6.81338
42.8182
0.710947
8.65709
37.171
30.536
21.2233
-28.4986
-1.76571
33.6717
22.7584
12.1247
-28.1077
-6.87529
-12.1998
-133.941
-16.9142
29.6885
0.754111
26.3587
-6.75883
58.1987
44.0843
9.97106
29.2787
9.21355
-346.376
31.5109
25.3835
-1.56725
14.0765
43.8003
39.2238
-2.2639
-29.852
-67.6487
31.8016
15.9671
-9.15471
36.8643
-24.976
33.2236
-95.7456
34.35
13.7754
-2.24383
12.4891
41.0168
-4.78084
36.5118
47.113
5.1874
-11.7522
17.1582
0.315131
54.884
-75.6674
49.7115
41.6715
-89.3559
-16.2818
-0.203598
-15.2369
-24.7352
-11.2008
32.2054
50.0493
39.0988
51.027
22.3047
46.2731
12.0109
3.31163
13.5674
1.67234
-0.063391
28.8038
0.93322
52.8333
7.79045
-281.158
22.6737
52.43
55.0188
-47.7655
20.0847
-21.6993
-133.525
15.0416
6.39989
-11.304
15.2665
55.1909
-371.649
-70.7851
-18.3122
13.1124
4.66258
2.33548
34.139
35.834
-6.66552
0.603015
-5.47473
-8.20405
32.0062
32.2352