/*--------------------------------*- C++ -*----------------------------------*\
| =========                 |                                                 |
| \\      /  F ield         | OpenFOAM: The Open Source CFD Toolbox           |
|  \\    /   O peration     | Version:  2306                                  |
|   \\  /    A nd           | Website:  www.openfoam.com                      |
|    \\/     M anipulation  |                                                 |
\*---------------------------------------------------------------------------*/
FoamFile
{
    version     2.0;
    format      ascii;
    arch        "LSB;label=32;scalar=64";
    class       surfaceScalarField;
    location    "9.4";
    object      phi;
}
// * * * * * * * * * * * * * * * * * * * * * * * * * * * * * * * * * * * * * //

dimensions      [0 3 -1 0 0 0 0];

oriented        oriented;

internalField   nonuniform List<scalar> 
20045
(
0.269189
-0.305823
0.0366338
-0.556071
0.222769
0.333301
0.186357
1.01813
-1.20449
-0.0375473
0.101991
-0.0644441
-0.510099
0.417948
0.0921507
-0.303766
1.10291
-0.799145
-0.439116
0.0462533
0.392863
0.0207343
0.261791
-0.282526
0.275669
0.214753
-0.490422
-0.36811
-0.0745948
0.442705
-0.1604
-0.0723406
0.232741
1.06915
-0.513628
-0.555524
0.206918
-0.204307
-0.00261103
-0.596438
0.512556
0.0838826
-0.0531278
0.452765
-0.399637
-0.514085
0.145974
-0.0056905
-0.10951
0.115201
0.0238512
-0.129868
0.106017
-0.777046
1.14751
-0.370461
-0.389474
0.00139688
0.388077
-0.442444
0.371236
0.0712077
0.0735959
0.133322
-0.100823
-0.455247
0.928401
0.204988
-1.13339
0.41059
0.0775232
-0.488113
-0.31901
1.24741
0.0359158
-0.0353431
-0.000572672
-0.749263
1.44569
-0.696431
0.770464
0.199155
-0.969619
-1.56411
0.884369
0.679743
0.0868553
0.436387
-0.523243
0.598031
-0.486569
-0.111462
-0.189177
0.773403
-0.584226
1.40854
-0.796299
-0.612238
-0.329354
0.350088
0.951568
-0.454922
-0.496646
0.530017
0.180937
-0.710954
-0.0332777
0.210993
-0.177716
-1.09007
0.547486
0.542581
0.310998
0.289994
-0.600992
-0.0366072
0.328667
-0.29206
0.0770213
-0.110728
0.0337063
1.05858
-1.06002
0.00144134
0.713897
-0.246967
-0.466929
0.317436
0.39646
0.479779
0.589373
-0.0826653
-0.157333
0.239998
0.674167
0.181252
-0.855419
0.760793
-0.230776
0.129991
0.960643
-1.09063
0.663234
-1.09947
0.436235
0.983255
-0.696104
-0.287151
-0.551615
-0.364909
0.916524
-0.0532686
-0.169359
0.222627
0.181614
-0.261461
0.0798469
-0.362888
-0.147211
0.193766
0.941525
-1.13529
0.836772
0.126177
-0.962949
0.754543
-0.94372
0.840705
-0.696631
-0.144074
-0.263469
-0.105753
0.369222
0.196843
0.643862
0.214031
-0.801502
0.587471
-0.318279
-0.124165
0.418206
0.0289634
-0.447169
0.568101
0.211714
-0.779815
0.0640828
-0.142985
0.0789024
-0.345446
0.0539033
0.291543
0.470487
-0.194817
0.728816
-0.741937
0.0131209
0.0896025
-0.0255197
0.191133
-0.00951917
-0.133035
-0.554199
0.687234
0.095094
-0.100512
0.00541754
0.598963
0.0210196
-0.619983
0.979928
-0.786162
-0.134158
0.733121
0.311108
-0.364236
0.256908
-0.027116
-0.229792
0.0330949
-0.633354
0.600259
0.505179
0.553214
-1.05839
0.442772
-0.376502
-0.0662705
0.595249
-0.381218
-1.31162
0.208889
1.10273
-0.00183509
0.271024
-0.208634
0.267647
-0.0590127
0.244361
-0.645451
0.401091
-0.794333
0.0210002
0.773333
0.496779
0.115911
-0.61269
-0.409558
0.350619
0.058939
-0.605282
-0.0589938
0.664276
0.4332
-0.111358
-0.321841
0.219949
-0.325203
0.105254
-0.112639
-0.403451
0.51609
0.326758
-0.356745
0.0299873
0.772196
0.110998
-0.883194
0.0255879
0.0103279
-0.0554799
0.248969
-0.193489
0.653535
-0.342537
0.0129529
-0.119494
0.106541
0.64539
0.306178
-0.216232
-0.380206
0.289575
-0.345055
-0.210836
1.04761
0.0282438
-0.236878
0.123205
-0.110252
0.211041
0.625564
-0.836605
0.550254
-1.0088
0.458542
0.174243
-0.262884
0.223821
0.0390626
-0.123149
0.158619
-0.0354693
0.478335
-0.450856
-0.0274797
-0.279346
0.226078
0.735447
-1.45872
0.723274
-0.116992
0.183697
-0.0667049
0.0254696
-0.151094
0.125624
0.546286
-0.135696
0.959394
0.449143
-0.621423
0.488388
0.545203
-0.82972
0.284516
0.165794
-0.141943
-0.336043
0.0725746
-0.437719
0.349529
0.0881901
-0.539813
0.0660244
-0.337193
0.271169
0.667764
0.315491
0.541038
-0.753253
0.212215
0.800941
0.0861514
-0.887092
-1.05326
0.73033
0.322926
-0.0509067
-0.633905
0.684811
1.01462
-0.346853
0.182237
-0.33957
0.114343
-0.0184665
-0.0958768
-0.033795
0.0260957
0.00769933
0.57714
0.394748
-0.971888
0.606274
-0.553012
-0.0532615
-0.153168
0.0582061
0.0949618
-0.191306
-0.0715779
0.924664
-0.379461
-0.37962
0.382972
-0.00335214
0.549806
-1.15198
0.602176
0.130963
-0.682578
0.469562
0.228222
-0.697783
0.745859
-0.712764
0.958254
-0.132919
-0.825335
0.471613
-0.617989
0.146376
0.917215
-0.543849
-0.373365
-0.134583
0.185454
-0.0508714
-0.0855425
1.12758
-1.04204
1.05807
-0.287606
-0.820236
0.0191704
0.801065
-0.528518
0.359934
0.168584
0.948413
-0.443234
0.131708
0.311065
-0.624766
0.75441
-0.129644
-0.889999
1.07636
0.00511921
-0.210458
0.205339
-0.245546
-0.105756
0.351302
-0.0238827
-0.208782
0.232664
0.654913
0.130015
-0.784928
1.38276
-0.700914
-0.681847
-0.252699
0.228817
0.280145
-0.505304
0.225159
0.091126
-0.0141047
-0.90694
-0.43358
0.640209
-0.206629
-0.630547
0.463314
0.167233
-0.00842122
-0.0474074
0.0558287
0.482373
0.434842
-0.0148512
-0.0189438
-0.0260475
0.140391
-0.685529
0.0607634
-0.746286
0.927024
-0.180738
-0.691716
0.731787
-0.0400706
-0.524672
-0.435847
0.960519
0.119195
0.350919
-0.470114
0.409852
-0.428005
0.0181527
1.03954
-0.0708929
-0.968648
-0.00346838
-0.761204
0.764673
-0.353543
0.823105
0.192314
-0.5841
0.391786
-0.655701
1.39115
-0.765511
0.548364
0.217147
-0.0324383
0.0391001
-0.00666174
0.526075
-1.23793
0.711851
-1.13196
0.382696
-0.548586
-0.515152
1.41159
-0.840728
-0.570861
-0.382602
0.345995
0.150431
-0.159694
0.00926383
-0.571384
-0.203443
0.774827
-0.972888
1.36984
-0.396954
1.03381
-0.796828
-0.23698
0.0280746
-0.209402
0.181327
-0.374803
-0.502454
0.877258
0.0257579
-0.186158
-0.559274
0.508368
-0.722055
-0.221927
0.943982
0.105163
0.0282299
-0.133393
0.136655
-0.570235
-0.370375
0.45723
0.853099
-0.0521578
-0.161605
0.128327
-0.187043
0.240967
-0.0539236
-0.279029
0.933942
-0.953932
0.579129
-0.195627
0.0552267
0.1404
-0.742543
0.153121
0.589422
0.295908
0.737901
1.30531
-0.779238
0.88574
-1.54291
0.657173
0.768156
-1.44919
0.681036
0.0545507
-0.444025
-0.509031
0.720072
0.636094
-0.93986
0.706209
-1.11158
0.405372
-1.65894
0.916467
0.742474
-0.046409
-0.363149
0.195779
0.161684
-0.357463
0.693604
-0.253256
-0.440348
-0.125184
-0.786262
0.700719
-0.278386
-0.101234
0.660706
0.98875
-0.758962
-0.229789
-0.0120293
-0.144529
0.156558
0.637545
0.132606
-0.770151
-0.269109
-0.29596
0.565069
-0.39655
0.972175
-0.575625
-0.489431
0.733791
0.605341
-0.413027
-0.0512727
0.452784
-0.401511
0.983531
-0.433725
0.106225
-0.00863354
-0.0975917
-0.274066
-0.18835
0.462415
-0.121482
0.126205
-0.00472317
1.40983
-0.8515
-0.558328
0.254047
-1.22693
-0.133091
0.011609
-0.825695
0.2394
0.586295
1.35514
-0.581733
0.229028
-0.975314
1.60923
-0.694938
-0.914288
-0.0141442
0.119307
0.944625
-0.550361
-0.394265
-0.618848
0.116159
0.502689
-0.902878
0.89559
0.00728793
0.66623
-1.33333
0.667104
0.0406857
-0.00814996
-0.0325357
-0.468398
0.602464
-0.134066
0.0374585
0.249686
-0.287144
-0.168666
0.0516741
-0.144923
0.0217732
-0.583012
-0.425784
0.38708
-0.985791
0.598711
-0.508029
0.438279
0.0697495
0.397626
0.200406
1.0518
-0.345595
-0.4311
0.185555
0.593318
0.761818
-0.520708
0.0494103
0.471298
0.446471
0.498154
0.406049
0.0467164
-0.493175
-0.0148542
-0.313537
-0.0647477
0.378284
0.0108159
-0.0432542
-1.02534
0.628786
0.416031
-0.642025
0.225994
-0.959109
0.929888
0.0292208
-0.382991
0.388172
-0.00518137
-0.166364
-0.134269
0.300633
0.759726
-0.84433
0.0846033
-0.956079
-0.702861
1.20058
-0.751313
-0.449269
-0.107502
0.0954724
1.4025
-0.736275
-0.61109
0.99817
-0.633921
0.287605
0.346316
0.976167
-0.284824
-0.691343
1.03342
-0.333622
-0.699795
-0.374514
-0.259407
0.871278
-0.531594
-0.339684
-0.188997
0.811154
-0.622158
-0.125032
-0.55828
0.683312
0.090161
0.216094
-0.306255
-0.123982
-0.027603
0.151585
1.25144
-1.10049
-0.150951
-0.557778
-0.495479
0.618376
0.370374
-0.880622
-0.0784873
0.169197
-0.443263
0.362055
-0.802837
0.440781
0.0029828
0.147448
-0.534565
1.1117
0.593924
0.815904
1.54709
-0.911993
-0.635093
-0.800695
0.578769
0.658005
-1.1323
0.474297
-0.630521
-0.0625662
0.693087
-0.377455
-0.0933539
0.470809
0.474293
-0.194148
-0.148519
-0.0471085
0.489568
-0.0936077
-0.392961
-0.556358
0.83381
-0.277452
-0.223339
0.0362959
-0.341506
0.290234
0.0996209
-1.0025
0.320524
-0.809954
0.189409
-0.173293
0.230582
-0.057289
0.0146408
-0.0521882
-0.461486
0.337476
0.12401
0.347231
0.131104
0.587388
-0.336069
-0.251319
0.469981
0.136293
-0.432693
0.794749
0.579992
-0.0832127
-0.22904
-0.513503
1.28729
-1.09163
-0.19566
0.749038
-0.902171
0.452548
0.449623
0.800811
-0.882374
0.0815631
-0.467229
0.35459
-0.133974
-0.0191938
-0.127424
-0.477858
0.351576
-0.568318
0.216742
0.421237
0.450041
0.634255
-1.08512
0.450861
0.304247
-0.566427
0.26218
-0.974609
0.180276
0.0430483
0.390151
-0.463793
0.677602
-0.213809
-0.228463
0.317948
-0.0894851
-0.505728
0.0666116
-0.127663
-0.263839
0.391501
0.103424
0.000635703
-0.104059
-0.273726
-0.254792
0.348057
0.455859
-0.803916
0.879689
-0.433219
0.261954
-0.453381
-0.013848
0.510576
-0.206329
-0.655585
-0.109925
0.176983
-0.152523
-0.0244595
0.94484
-0.270672
-0.513778
0.773018
-0.259241
-0.1338
0.159477
-0.0256775
0.665914
0.0276903
-0.428884
-0.373952
-0.542532
0.946112
-0.40358
0.567538
-1.07187
0.504328
0.568994
0.631588
-0.026243
0.026507
-0.000264
0.110304
-0.740825
0.605225
-0.90846
0.303235
0.0598671
0.035227
-0.115527
0.656566
-0.408238
0.728761
-0.675653
1.44381
0.173683
-0.950729
-0.714422
0.383761
0.330661
0.668891
-0.134864
-0.534027
0.951134
-0.191408
-0.647645
-0.509388
-0.432374
0.695586
0.0796366
0.183919
-0.263556
0.331301
-0.329904
-0.765314
0.649786
0.828431
0.230147
-0.807715
0.293937
0.980469
-0.362093
-0.314615
0.29095
0.0236652
0.0203572
-0.600955
0.580598
-0.897141
0.15878
0.738361
0.732812
-0.732812
-0.441996
0.864337
-0.42234
0.248029
0.339359
0.596171
-0.307034
-0.289137
-0.991321
1.03455
-0.0432273
0.372819
-0.0208901
-0.351929
0.286037
-0.101099
-0.184938
0.129048
-0.295412
0.261874
0.455166
-1.06626
-0.838585
0.98816
-0.149575
-0.298203
0.64626
0.0374145
0.0157307
-0.0531452
0.325259
-0.430547
0.105289
-0.388933
0.443483
1.45289
-1.11817
-0.334721
-0.101345
-0.505123
0.606467
-0.260653
0.278888
-0.0182351
0.157284
-0.287336
0.130052
-0.845051
0.34925
0.495801
0.0613651
0.0406264
-0.320561
0.00594623
-0.031323
-0.0676148
0.0989379
0.670572
0.580872
0.0783526
-0.0409381
-0.0646862
-0.245802
0.310488
-0.535656
0.842126
-0.306469
0.092837
0.170579
-0.263416
0.372967
-0.326714
0.648436
-0.255889
-0.392548
0.0404643
-0.443915
0.246752
0.792789
0.47011
0.275451
-0.745561
0.488378
-0.39919
-0.0891874
-1.01298
0.192744
-0.362134
0.155061
0.207073
0.465498
0.770198
-1.2357
-0.652563
0.589997
0.0492291
-0.920783
0.871554
-0.144254
0.172329
-0.0293605
0.0357122
-0.00635172
0.0580604
-0.371597
-0.0311077
0.0887172
-0.0576094
-0.662631
-0.163064
0.622095
0.262049
-0.122897
-0.139153
-0.147751
0.0139518
0.14161
-0.688418
0.546809
0.261409
0.510372
-0.771781
0.499596
-0.701731
0.845798
-0.144066
-0.737753
0.548756
-0.0125527
-0.0227904
-0.375084
-0.255462
-0.284247
0.0667252
0.217522
-0.915091
0.379435
0.647547
-0.748892
0.441896
0.538574
-0.37681
0.336644
0.0401659
0.22046
-1.1936
0.973141
0.181648
-0.292084
0.110436
0.365146
-0.79403
-0.62216
-0.0695563
-0.343694
-0.00175205
0.165346
-0.176449
0.0111022
0.496811
0.00581185
-0.0237477
0.0179359
1.18163
-0.71613
-0.507622
0.85964
-0.352017
0.283267
0.196842
-0.48011
-0.346493
0.202238
-0.246967
-0.03728
0.413323
0.182848
-0.251412
-0.578308
0.118479
0.0585036
0.597469
0.439182
0.14081
-0.939857
1.06985
0.114527
-0.422549
0.308022
-0.0901184
-0.825913
0.916031
-0.0721282
0.0815533
-0.00942512
-0.436139
0.555334
-0.572151
0.447119
0.680516
-0.208903
-0.385569
-0.0759167
-0.00163447
-0.435956
0.43759
0.406735
-0.931408
-0.107883
-0.450086
0.557969
-0.116086
0.243001
-0.126915
-0.639656
0.0219989
0.617657
0.895898
-0.714646
-0.00475704
0.0998289
-0.0950719
-0.236476
-0.0241764
0.184213
0.387831
-0.572044
0.128312
-0.157162
0.0288504
0.551896
0.31474
-0.866637
-0.313266
1.08546
0.0982634
0.00516023
-0.296739
-0.618833
0.915572
0.337713
0.586951
0.933517
-0.672108
-0.385136
0.257473
-0.15582
0.0318376
-0.44094
1.09894
0.11409
-0.753403
0.639312
0.817505
-0.131188
-0.686317
-0.455199
0.661313
-0.206114
0.387555
-0.446786
-0.366216
0.813002
0.121119
-0.0956967
-0.0254219
-0.271091
-0.493278
0.764369
-0.125501
0.45076
0.0556044
-0.0640256
0.513265
-0.784356
-0.691818
-0.225685
0.917503
-0.0434177
-0.508671
0.552089
-0.142255
1.17549
-1.20051
0.0250236
0.215379
-0.11713
-0.0982495
-0.0388203
-0.33799
0.255899
0.260191
-0.353199
-0.0242559
-0.809296
1.01161
-0.202316
-0.14591
0.561941
0.197629
0.54823
-0.800627
-0.259393
-0.0201165
-0.0939591
0.114076
0.534356
-0.0951746
-0.226654
0.246994
-0.0203399
0.340814
-0.303356
-1.20001
0.651422
0.909864
0.193047
-0.102521
0.259805
-0.218652
0.501919
1.0381
-0.582938
-0.231189
0.00453451
-0.139099
-0.626215
0.18501
0.260752
-0.255633
-0.922107
0.0249664
-0.0571553
0.228164
-0.0465163
-0.731523
0.480945
0.250578
0.611822
0.116994
0.214138
-0.0757652
-0.138372
0.335974
-0.292257
-0.0437168
-0.706429
0.251507
-1.05838
0.515847
0.613064
-0.430536
-0.182528
0.00376853
0.0889427
-0.0927113
0.957928
-0.00621874
-0.951709
0.189903
0.0131972
-0.2031
-0.155459
-0.28226
0.249624
-0.0296745
-0.0386063
0.0381929
0.000413362
0.434857
-0.0160855
-0.418772
-0.000163801
-0.0384425
0.77243
-0.661432
-0.0307739
-0.158829
0.189603
-1.00839
0.199097
0.00973953
-0.10068
0.390256
0.083757
0.178292
-0.117611
-0.31349
0.242038
0.203363
-0.445401
0.359246
0.0589595
0.401757
-0.28723
0.223156
-0.197687
0.0961575
-0.32462
0.545165
0.179279
-0.724444
0.560376
-0.0681309
-0.492245
-0.358766
-0.259223
-0.320237
0.0840869
0.23615
0.356607
-0.378728
0.0221215
1.10891
-0.0429331
-1.06598
-0.165966
0.0973683
0.0685982
-0.517911
0.697891
-0.179979
0.591637
0.627862
-1.2195
0.314947
-0.4207
-0.314742
0.464374
-0.149632
0.231466
0.107675
-0.339141
-1.16377
0.833384
0.330382
0.0352046
0.00298833
-0.848983
0.157165
0.332668
-0.199171
-0.133497
0.452544
-0.589303
0.136759
-0.104317
-0.201506
0.170029
1.00546
0.826453
-0.156354
-0.670099
-0.822516
0.120784
0.343302
-0.572342
0.904759
-1.37465
0.469891
-0.112645
0.308425
-0.000655073
-0.359234
0.294548
-0.172281
0.238306
-0.178463
-0.858787
1.03725
0.737418
0.665086
-0.750472
0.782807
-0.0323352
0.159539
0.00580782
-0.563307
-0.217445
-0.126481
0.141833
-0.0153518
0.0760162
0.286828
-0.362844
-0.192149
0.435433
-0.243284
-0.0828955
0.535439
-0.714822
-0.0519518
0.766773
-0.734428
-0.253463
0.98789
0.444959
-0.355995
-0.0889641
-0.246121
0.00927543
0.236845
0.0613477
0.0107497
-0.0720975
-0.990198
0.0460844
0.944114
0.0240538
0.208298
-0.232352
0.791661
-0.886782
0.0951216
-0.482967
-0.0336785
0.76162
-0.727941
0.0139202
-0.140402
-0.0228673
-1.04931
1.07218
0.706083
-1.36178
-0.947027
0.826773
0.120254
0.149424
-0.0211118
0.789592
-0.591963
-0.0605591
-0.182272
0.242831
-0.0130439
0.158646
-0.145602
-0.154156
0.857017
-0.702861
0.696404
-0.333215
-0.363189
1.03092
-0.972957
-0.0579612
0.716201
-0.252337
-0.463863
0.0423131
-0.245112
0.202799
-0.315801
-0.0213919
-0.926732
0.808156
0.118576
0.0479261
-0.974658
-0.299094
0.432333
-0.133239
-0.540958
-0.559536
0.213354
-0.175427
-0.0379274
-0.787084
-0.221309
-0.200557
0.139669
0.0608883
-0.512432
0.243322
-0.899658
0.872426
0.0272318
-0.154532
-0.0460761
-0.0544355
0.211435
-0.0215319
-0.573967
0.105568
0.161403
-0.179654
0.0182517
0.0701346
0.145794
-0.215928
0.425874
-0.0530545
-0.214852
0.650976
0.0149375
0.355496
-0.137602
0.0312256
0.106376
-0.0838569
0.493709
-0.64592
0.42914
0.21678
0.0385348
-0.00333022
1.38136
-0.643942
0.993871
-0.773411
-0.203041
-0.152555
0.355596
0.629555
-1.13701
0.507453
0.579379
-0.622797
0.924449
-0.423553
-0.500896
-0.00450234
-0.552656
-0.093264
-0.524149
0.904875
-0.380727
-0.0292873
-0.401305
1.28705
-1.05649
0.269407
0.235902
-0.145741
-0.0905287
0.103088
0.129622
-0.0034173
-0.485958
-0.470748
1.59683
-0.616897
-0.475486
0.289835
0.185652
0.054274
0.231763
-0.646078
-0.467368
1.11345
0.175666
0.298627
-0.00621836
-0.153557
0.159775
0.822014
-0.0462585
0.0400941
0.00616437
0.719487
-0.174322
-0.337605
-1.00624
0.16766
-0.237312
0.0144126
0.222899
0.666855
0.942371
-0.0457021
-0.281123
0.326825
0.972789
0.0581296
0.636178
-0.894234
0.258056
-0.821539
-0.00151664
0.823056
-0.763584
0.991652
-0.228068
0.150196
-0.00722933
-0.142967
-0.600176
1.30626
-0.0300022
-0.526686
0.556688
0.0226792
-0.773151
0.363207
-0.199256
-0.163951
-0.934326
1.22094
-0.286614
-0.209364
0.564044
-0.35468
1.1629
-0.514622
-0.648277
0.0146518
-0.591132
0.57648
0.0323027
0.00340958
-0.501923
1.09356
0.399299
-0.841296
1.05263
-0.485091
-0.197492
0.166718
-0.850929
0.0293896
1.14306
-0.5088
-0.00220141
-1.30942
0.316379
0.0122877
0.425822
0.585333
-1.01115
0.547218
-0.147368
-0.399849
0.431337
-0.890631
0.459294
-0.1535
0.00879694
0.144703
-0.19773
-0.50864
0.70637
0.360428
-0.264271
-0.113873
-0.0730421
0.186915
0.108043
0.248658
-0.356702
0.078666
0.134688
-0.918695
1.07004
-0.151343
-0.0939766
0.0218484
0.469601
0.21274
-0.682341
0.447748
0.770169
-1.21792
0.183214
0.485677
-0.0173683
0.975622
-0.00907443
0.791184
-0.782109
0.144454
-0.0516174
0.0709839
-0.0185067
-0.0524772
1.46858
-1.0146
-0.453976
0.437871
0.486579
-0.118864
0.103576
0.0152883
-0.260899
0.782972
-0.522073
0.000816579
0.179353
-0.180169
0.820272
-1.18231
0.362037
-0.171136
-0.572823
0.743959
0.810423
-0.172879
0.270176
0.277042
-0.475274
0.110518
0.364756
0.296614
-0.801737
0.244345
-0.465218
0.220873
0.193058
-0.0544505
-0.138608
0.0140827
0.01822
-0.058239
0.551612
-0.493373
-0.191863
1.15251
0.746765
-0.621216
-0.125549
0.647716
-0.531805
-0.483973
0.165922
0.318051
0.131787
-0.438821
0.376988
-0.282079
-0.0949099
0.0691394
0.144998
0.14126
0.733869
-0.875129
0.276185
0.158672
0.11699
-0.851418
-0.471889
0.0509275
0.420962
-0.365764
-0.218025
0.583788
0.519312
-0.277275
-0.838323
0.54012
0.224921
-0.179521
-0.0453998
-0.465917
0.997468
-0.531551
-0.433739
0.474204
-0.503698
0.460059
0.0436391
-0.591282
1.00849
-0.417207
-0.0192448
0.226637
-0.207392
-0.175223
0.178991
-0.291309
-0.587138
0.943257
-0.356119
-0.561857
0.714978
0.494094
-0.530961
0.0368674
0.10399
0.425097
-0.529088
-1.22583
0.789734
0.436095
0.0160755
-0.0188218
0.00274632
0.0587096
0.682357
-0.836513
1.08177
-0.452211
-0.282768
-0.431653
-0.704186
0.695112
0.465419
-0.00210536
0.347131
0.104911
-0.452042
-0.355094
0.325045
0.0300486
-0.439496
0.428961
0.0105354
-0.228559
-0.286808
0.515367
0.201761
0.443035
-0.644796
-0.703595
-0.263415
0.96701
-0.387689
0.491679
0.858955
0.609624
-0.935945
0.56256
0.373385
-0.571361
0.20814
0.363221
0.00511924
0.197013
-0.248279
0.0512659
-0.507338
-0.702906
0.474348
0.143978
0.212337
-0.170024
-0.220278
0.296294
0.160744
-0.794649
0.0224155
0.304343
0.231324
-0.012252
-0.219072
-0.681862
-0.525545
1.20741
-0.278134
-0.197141
-0.48727
-0.0888011
0.576071
0.0784109
0.245938
-0.324349
0.00225452
1.12834
-0.739508
-0.388834
0.191093
0.63536
0.106828
-0.111589
-0.352621
0.46421
-0.752199
1.05153
-0.299328
-0.545331
-0.24773
0.79306
-0.478621
0.163879
-0.358309
-0.125664
0.827162
-0.416471
-0.410691
0.430917
-0.00304564
-0.427872
0.343409
0.0757631
-0.419172
-0.180341
0.204395
0.0350051
-0.0726267
0.0376216
-0.133082
-0.0311854
-0.221514
-0.00515399
0.433494
0.393668
-0.372987
0.920473
-0.477182
1.36155
0.46385
-0.0329324
-0.830579
0.285249
0.739622
-0.629317
-0.121891
-0.654307
0.136396
0.110182
-0.409276
0.690802
-0.670445
0.833704
-0.0328926
-0.200578
-0.124625
-0.217867
-0.0756922
0.293559
-0.313657
-0.0430889
0.720568
0.153985
-0.874552
-0.00565183
-0.247158
0.25281
-0.13073
0.476212
-0.939398
0.463186
0.85246
-0.060799
-1.09467
1.20479
-0.110114
0.21018
-0.156276
-1.02655
-0.199276
-0.278426
0.831467
-0.0233106
0.572187
1.07114
-0.391264
-0.679872
-0.617597
-0.0370142
0.654611
0.259951
0.447895
-0.707846
-0.700678
0.0610221
-0.172764
-0.0988483
0.271612
-0.474706
0.588797
0.149547
0.48692
-0.636466
0.19171
-0.197625
0.0059148
-0.940078
0.118787
0.821291
0.511764
0.570002
-0.284478
0.523903
0.192297
-0.244816
-0.117318
0.859036
-0.991955
0.491116
-0.0632499
-0.427866
0.456029
-0.141082
0.668753
0.0267682
-0.695521
0.86973
-1.34691
-0.00182203
0.0425077
-0.193776
0.332879
-0.139103
-1.07926
1.0564
-0.0364897
0.315111
-0.278621
-0.0438919
0.0849615
-0.0410697
-0.497314
0.0611748
-0.266612
0.609914
0.166545
0.446519
-0.159727
0.173647
-0.613424
0.317464
0.0505964
-0.0587463
-0.198092
0.189361
0.00873101
0.21376
-0.239038
0.0252775
-0.51057
0.53159
0.121026
-0.608296
-0.0755122
-0.30709
-0.0109488
0.563322
-0.552374
0.332498
-0.397246
0.0902498
-0.715981
0.625731
-0.211503
0.811762
-0.600259
0.251986
-0.808344
-0.486102
-0.0228168
-0.924211
0.64278
0.954045
-0.716841
-0.121482
-0.490814
-0.411357
-0.436427
0.172588
-0.0421771
-0.0382521
0.0804292
1.43373
-0.766875
0.782346
-0.177121
-0.24288
-0.158584
0.401464
-1.1816
0.568152
0.613447
-0.312914
0.240574
-0.650328
0.61665
0.16731
-0.0937143
-0.272473
-0.496191
0.466188
0.28305
-0.27786
-0.00519005
-0.117435
0.838002
-0.381302
0.39186
-0.0105574
0.817694
-1.23336
0.552535
0.680824
0.139918
0.273609
-0.413527
0.550504
-0.151323
-0.399181
-0.532646
0.323282
-0.530311
-0.018292
0.361701
0.883397
-0.973515
0.423379
-0.191912
-0.371911
0.668525
-0.785594
0.554639
0.230955
0.852176
-1.23706
0.384881
-0.668667
0.730942
-0.0622748
0.381724
-0.465581
0.0129016
0.19483
0.250129
0.263885
-0.897239
0.393154
-1.16502
0.716815
0.448208
0.22424
-0.841838
0.582398
-0.0229666
-0.595881
0.135956
0.24031
1.03197
-0.355121
-0.676852
0.0612648
0.235293
-0.601057
0.162219
-0.929711
0.892697
-0.735694
0.288908
0.452318
-0.649445
0.316798
0.332648
-0.896635
0.535307
0.361328
-0.192847
0.129518
-0.245604
-1.02088
0.714508
0.30637
0.709452
-1.30963
-0.907723
-0.0109717
1.34723
-0.44247
0.0926277
0.12876
-0.221388
-0.0234291
-0.141846
0.165275
-0.0301831
0.439025
0.522942
-0.352414
-0.297031
0.143749
0.216679
0.200027
0.36455
-0.564577
0.392067
-0.230383
-0.0323918
-1.01097
1.04336
-0.319255
0.342576
-0.696119
-0.584358
-0.427519
1.01188
0.239013
-0.350371
-0.687478
0.20553
0.481948
0.0346884
0.0143428
-0.0490312
0.694502
-0.872965
0.114065
-0.30784
0.706107
0.618498
-1.3246
-0.396621
-0.0788653
-0.82678
0.231435
0.595345
-0.807646
0.63651
0.267645
-1.01984
0.0872863
0.403829
0.0318348
0.00285362
-0.026855
0.84436
-0.580724
0.747833
-0.167109
0.77541
0.00322799
-0.778638
-0.522787
-0.0112341
-0.162059
0.062053
0.670759
0.129442
0.0300345
0.296023
0.586461
-0.338431
0.485866
-0.111797
-0.3277
-0.848438
-0.0512192
-0.803177
0.277523
-0.827883
0.173531
0.197108
-0.370639
0.76641
0.0501111
-0.816521
-0.108351
0.101122
-0.349056
-0.709324
-0.757696
-0.124678
-0.511791
1.38152
-0.330723
0.466098
-0.135375
-0.959582
0.27772
-0.291357
0.491385
-0.299385
-0.432138
-0.570448
-0.271346
0.289499
-0.252031
0.322166
0.952891
-0.121424
0.590619
-0.206749
-0.38387
-0.0236303
0.476414
0.263738
0.992853
-0.943624
-0.026614
-0.223973
0.329227
-0.46393
0.51334
-0.461532
-0.579865
0.23154
0.167556
-0.399096
-0.768297
0.0354854
-0.129877
0.757427
-0.627549
-0.027288
-1.06739
-0.643659
0.776265
1.43966
-0.657214
-0.782448
-0.106696
0.261757
0.676576
-0.332899
-0.343677
0.26727
-0.298455
0.0302473
0.0407365
-0.157378
0.00637603
0.151002
-0.0979259
0.445057
-0.592795
1.30225
-0.0150755
-0.160351
-0.268231
-0.0931087
0.36134
-0.0280899
0.722592
0.72604
-0.0763374
-0.649702
-0.385737
0.56995
0.382553
0.400419
-0.477034
0.00514433
0.537566
-0.210151
-0.327415
-0.0523298
0.037344
0.0149858
0.142198
-0.739627
0.597429
-0.895503
0.137807
0.220023
-0.550375
0.827898
-0.0129122
0.280182
0.133377
-0.4641
-0.876842
0.444468
-1.00883
0.307917
-0.451317
0.062384
-0.359683
-0.547931
0.907614
-0.78175
-0.0049752
-0.0444358
0.049411
0.979321
-0.770432
0.752254
-0.492303
0.11897
0.517199
-0.63617
0.155429
-0.328193
-0.472008
-0.333401
0.805409
0.233521
-0.451599
0.218078
-0.709695
1.35005
-0.640357
0.661354
-0.469785
-0.191569
0.595102
0.0223147
-0.617417
-0.511446
-0.721913
-0.304852
-0.0388416
0.394892
0.619725
-0.00924745
0.096653
-0.0874055
-0.665329
-0.161451
0.61077
0.536736
-0.524914
0.637592
-0.112678
-0.0869382
0.127032
-0.0475896
0.235938
-0.188348
0.0228727
-0.404175
-0.115472
-0.905406
-0.923362
0.208826
0.0160952
0.200412
-0.570787
0.082738
0.681703
-0.764441
-0.478318
-0.0956484
0.468797
0.410892
0.0667729
-0.258079
0.0385775
0.100327
-0.138904
0.016419
-0.325244
0.308825
0.0874849
0.300687
0.373523
0.81763
-0.396393
0.764695
-0.422119
-0.113445
-0.251438
0.364884
0.714812
0.0963425
0.00339482
-0.663835
0.466105
0.205311
-0.233401
-0.396353
-0.751826
1.14818
-0.579158
-0.602442
-1.05389
1.08505
-0.0311621
0.241126
-0.305051
0.229359
0.532661
0.284969
-0.221103
0.56973
-0.348627
-0.257306
-0.48463
-0.285328
-0.492538
0.777865
0.436284
-0.260618
0.480427
-0.236082
0.550985
-0.90004
0.4107
-0.333177
-0.45052
0.889015
-0.438495
0.671666
0.404676
0.316296
-0.720973
1.06215
-0.587522
-0.47463
-0.745853
-0.589187
1.02532
-0.436136
0.244733
0.345886
-0.292293
0.27938
0.407186
0.755714
-0.210029
0.1866
0.0202512
-0.0144393
0.899114
-0.504366
0.491714
0.942016
-0.404025
0.217133
0.186892
0.191965
-0.395006
0.694676
-0.0259228
0.311367
-0.218739
-0.619824
-0.113277
0.733102
0.184682
-0.0243256
-0.160356
0.149351
0.0660275
0.125771
-0.889355
-0.285489
0.34355
0.635328
-0.579163
-0.0561656
0.177825
0.359741
-0.150149
0.0743835
0.287258
0.194071
-0.48133
-0.331841
1.08638
-0.175384
-0.516151
1.04517
-0.529016
-0.234324
0.342367
0.242817
-0.0511069
1.05491
-0.542723
-0.337898
0.202367
0.348137
0.301127
-0.376639
-0.167525
0.148281
-0.278913
-0.139172
-0.00857925
0.107693
-0.160134
0.765493
-0.605359
0.0514055
-0.0827286
-0.266256
0.083984
-0.321459
0.0166072
-0.860036
0.563297
0.260752
0.203622
-0.324659
0.415134
-0.0904757
0.203766
0.0638806
0.739957
0.42481
-1.16477
-0.10653
-0.0129706
0.119501
0.188897
-0.69652
0.978485
0.461178
0.734392
-0.651654
-1.03013
-0.0474873
-0.0220825
0.0519211
0.425512
0.388689
0.341724
-0.730413
0.411281
-0.0787822
-0.0275906
-0.306273
-0.0977522
-0.52811
-0.357059
0.488846
0.463311
0.396328
0.513543
-0.518253
0.00470964
0.183202
0.00615868
-0.0614329
0.247216
-0.0334558
0.661929
0.156035
-0.817964
0.349633
-0.0665832
-0.223848
0.137788
0.0860602
-0.337028
-0.0165621
0.35359
0.217797
0.555196
-0.772993
0.194896
0.324416
0.636767
-0.0190118
-0.260334
0.248633
0.337828
0.0170721
-0.0102542
-0.00681789
-0.996395
0.481243
0.787742
-0.611452
-0.17629
0.0131713
-0.131941
0.11877
0.73252
-0.790759
0.547833
-0.111548
0.395727
0.356527
-0.132377
-0.00679456
-0.104349
0.0257509
0.0785982
-0.48141
-0.116985
0.999264
-0.513062
-0.486201
0.416983
-0.00622785
-0.410755
0.421546
-0.671517
0.249971
-0.0816201
0.463104
0.0474721
-0.547567
1.19934
-0.65177
-0.0837035
-0.0206455
-0.467148
0.434221
-0.0423612
0.663416
0.00314979
-0.666565
-0.330133
-0.0208024
0.252126
0.123962
-0.0203863
0.150456
0.182423
-0.477009
0.28486
0.0107378
-0.0708754
-0.0924513
0.120695
-0.376439
0.495409
0.00112899
0.259623
0.222497
-0.180915
0.578541
-0.0350514
0.548595
-0.142635
-0.115778
-0.191949
0.479208
-0.122433
0.838978
-0.716545
-0.731609
-0.117374
-0.799846
1.248
-0.448149
0.0363349
0.397886
0.315612
-0.0538208
-0.0148416
-0.244357
0.259199
-0.790226
0.247503
0.12215
-0.126907
0.553326
-1.1994
0.40907
-1.0279
-0.819119
1.02411
-0.448191
0.489407
-0.295336
0.0096826
-0.547466
0.689664
0.00111133
-0.14564
0.10187
-0.457865
-0.10742
-0.551984
0.659404
-0.576446
0.578089
1.36375
-0.896072
-0.467678
-0.204887
0.0724991
0.209948
0.0196679
-0.229616
-0.739573
0.158849
0.183878
0.00917979
-0.00485006
-0.120564
0.125414
0.514407
-1.31425
0.090405
0.411537
0.0486188
-0.460156
-0.93572
0.813286
0.134653
0.0360096
-0.170663
0.36103
-0.948168
-0.13739
0.000448323
0.136942
0.172575
-0.0379221
-0.00203809
0.670948
-0.487734
0.532099
0.479284
-0.284388
-0.820225
0.235867
-0.599441
0.505245
0.0941955
0.699052
-1.0954
-0.480511
-0.265019
0.74553
-0.0253569
0.385291
-0.290334
0.269444
1.02571
-0.150551
-0.875162
-0.0124937
-0.835945
0.546173
0.0489289
0.342757
0.33382
-0.152399
-0.00115769
0.134828
-0.215769
-0.352548
0.0378937
-0.0325613
-0.00533241
0.0135834
-0.58508
0.571497
-0.151147
0.374449
-0.223302
0.479411
-1.07643
0.597018
-0.0643853
-0.488627
-0.0281781
0.014146
0.609744
-0.33621
-0.168099
0.504309
-0.338063
-0.324568
0.425033
-0.257477
0.240948
0.168973
-0.409921
-0.0451687
-0.27949
-0.757336
-0.102474
-0.05607
0.158544
0.207466
0.144347
-0.351812
0.363068
-0.755634
0.392566
0.0545181
-0.509766
0.150756
-1.08508
-0.59646
-0.790645
1.38711
-0.841891
0.029755
0.812136
-1.07946
-0.71178
0.0431131
-0.306981
0.293203
0.0137783
-1.35252
-0.294521
0.95645
0.373979
-0.170616
0.112542
-0.304491
-0.128106
0.452522
0.141425
0.0948944
-0.363126
0.0141935
-0.11711
0.102916
-0.159842
0.0252588
-0.0784898
0.0916612
-0.294547
0.434466
-0.957204
0.573055
0.384149
-0.0193818
-0.129137
0.461518
0.194562
-0.00987976
0.317672
-0.538775
-0.452804
-0.234673
-0.50863
0.159134
0.349495
-0.0652188
0.242713
-0.177494
-0.412362
0.428781
-0.0804357
0.669858
0.978156
-0.252116
0.442057
-0.78012
0.381426
-0.486572
0.105147
0.108191
-0.00836201
0.025109
0.00139801
-0.896511
0.536828
0.0332656
0.383717
0.0128283
-0.183886
0.171058
-1.45915
0.569153
0.318176
-0.506526
-0.17914
-0.017625
-0.207064
0.224689
-0.522669
0.186458
-0.986998
0.871526
1.40252
-0.69641
-0.210309
0.19798
0.0123284
-0.082599
-0.0113601
-0.14224
-0.639395
0.185297
0.454099
-0.135019
0.122048
0.0241063
0.308373
-0.33248
0.311411
0.236422
0.124892
-0.065698
-0.0591936
-0.277352
0.278481
0.0838538
-0.0239867
0.394833
-0.876106
0.931954
0.040835
-0.565081
-0.0803705
0.844431
-0.0414588
-0.802973
-0.147526