/*--------------------------------*- C++ -*----------------------------------*\
| =========                 |                                                 |
| \\      /  F ield         | OpenFOAM: The Open Source CFD Toolbox           |
|  \\    /   O peration     | Version:  2306                                  |
|   \\  /    A nd           | Website:  www.openfoam.com                      |
|    \\/     M anipulation  |                                                 |
\*---------------------------------------------------------------------------*/
FoamFile
{
    version     2.0;
    format      ascii;
    arch        "LSB;label=32;scalar=64";
    class       surfaceScalarField;
    location    "4.6";
    object      phi;
}
// * * * * * * * * * * * * * * * * * * * * * * * * * * * * * * * * * * * * * //

dimensions      [0 3 -1 0 0 0 0];

oriented        oriented;

internalField   nonuniform List<scalar> 
7520
(
-1.01745
0.79429
0.223158
-1.35943
-0.183421
1.54285
-0.00231141
-1.84932
1.85163
0.233832
-0.031814
-0.202018
0.0248473
1.46842
-1.49327
-0.0891747
0.0959207
-0.00674599
-0.285857
2.08016
-1.7943
-0.147679
-1.71773
1.86541
-1.44745
1.44514
0.853558
-0.0853871
-0.76817
-0.0180214
-0.21831
0.236331
-0.238622
-1.71314
1.95176
0.710004
-0.105119
-0.604885
-0.0983701
0.13655
-0.03818
-1.88889
0.955111
0.933781
0.138034
1.58375
-1.72178
-0.0648125
-0.0506192
0.115432
-0.225408
0.149379
0.0760291
0.0249385
0.0524648
-0.0774033
0.0413448
-0.106157
-0.418815
-0.268564
0.687379
-1.07312
1.21116
-0.0298155
-0.315908
0.345724
0.138915
-0.141478
0.00256281
-0.00354438
-0.133075
0.13662
0.252799
-0.246206
-0.00659313
0.870142
1.11593
-1.98607
-0.035955
0.317097
-0.281142
-0.0610866
0.0860251
0.197343
-0.0310387
-0.166304
-1.14755
1.75767
-0.610125
-0.0475911
-0.0179572
0.0655483
-1.84266
1.96585
-0.123183
-0.295978
0.327081
-0.0311034
-0.272349
-1.24026
1.51261
-0.5272
1.01568
-0.488475
0.27125
-0.543028
0.271778
0.789033
-1.53478
0.745752
0.0922766
-0.31896
0.226684
-0.0445691
-0.101537
0.146106
-0.0278278
0.26166
0.398373
0.397819
-0.796193
0.287708
-0.0349091
2.18105
-1.63132
-0.549727
-0.483419
-0.674028
1.15745
-1.49837
1.62379
-0.125419
-0.0315366
0.0725523
-0.0410157
0.261753
-0.0764279
-0.185325
-1.34174
0.19419
0.274366
-0.0756578
-0.198709
1.79226
0.155505
-1.94777
-0.721362
0.252244
0.469118
0.197481
-0.198481
0.000999634
1.01386
0.529763
-1.54362
0.0145819
-0.103757
-0.761789
0.126103
0.635686
0.386225
-1.25089
0.864669
-0.0421893
-0.123357
0.165547
-0.116168
0.0685764
-2.19697
1.09876
1.09821
1.10823
-0.51478
-0.593449
-0.0176456
0.004328
0.0133176
-1.2592
0.986849
0.833141
-0.123137
-0.0255247
0.223006
0.00405795
-0.102428
1.11617
-2.23038
1.11421
0.153187
1.63908
-1.24316
0.986546
0.256617
0.316363
-0.238139
-0.0782236
-0.521079
0.907304
0.234437
-0.923898
0.689461
0.34087
-0.0939741
-0.246896
0.438401
-0.46748
0.0290789
0.726797
-1.45261
0.725816
0.127065
-0.111128
-0.0159376
2.11306
-0.941312
-1.17175
0.410966
-0.773943
0.362976
1.70229
-1.20306
-0.499226
-0.822253
0.0604644
-1.48592
-0.711047
1.19371
0.139312
-1.33302
0.239721
-0.625059
0.385338
-0.0634507
-0.232527
-0.0686242
-0.156784
0.214301
-0.0169588
0.0147101
-0.0472705
0.0325604
1.06734
1.04572
-1.80889
2.04463
-0.235743
0.6996
0.408629
-0.959626
1.12066
-0.161035
0.0398523
-0.0174344
-0.0224179
1.36273
-1.60135
0.242552
0.196636
-0.104359
0.470983
0.254177
-0.72516
0.00739739
0.0835955
-0.0909929
-0.551512
0.404117
0.147395
1.32695
-0.600151
-0.725275
0.6306
0.0946749
0.76629
-0.978816
0.212527
-0.0875104
0.110172
-0.022662
-0.0047621
-0.00152184
0.00628394
2.3635
-1.37011
-0.993395
0.53707
-0.447369
-0.570079
-1.36827
0.847188
-1.89546
1.6096
0.16437
-0.0776065
-0.0867638
-0.132656
0.114634
-0.157962
0.156731
0.00123068
-0.184219
0.259771
-0.0755523
1.88807
-1.09903
0.309631
-0.13548
-0.174152
-0.779092
0.360277
-0.0271863
-0.0467327
0.073919
-0.113418
1.30713
-0.786855
0.468986
0.317869
1.29801
-2.04091
0.742899
0.0377732
0.101142
-0.177426
-0.543936
-0.380281
0.0919568
0.288324
1.05759
-0.204036
-0.348302
0.259789
0.0885128
-0.0738281
0.198976
-0.125148
0.0443519
-0.0447191
0.000367187
0.725423
-1.84059
1.11517
0.387443
-0.417258
-0.34828
-0.0511692
0.399449
0.226561
0.08307
0.113094
-0.274995
0.161901
0.141476
0.0320273
-0.173503
-0.0639751
0.205451
-0.613536
-0.173319
0.0289628
-0.637293
0.60833
-0.75659
1.74311
-0.986517
0.397313
-0.417
0.0196868
-1.17082
-0.197449
-0.0336531
-0.0497324
0.0833855
1.37079
-0.356926
-0.640197
0.423153
0.217043
-0.00044679
0.115348
-0.114901
0.289952
-0.0749843
-0.214968
0.222652
-2.07198
0.316591
-1.81496
-2.17651
0.813636
1.36287
-0.841511
-0.401652
-1.25203
1.04611
0.205911
1.90503
0.305403
-2.21043
0.181772
-0.226341
-0.160599
1.21569
-1.05509
-0.260466
-0.391965
0.652431
0.057503
-1.30953
-1.85273
0.0100637
0.00162897
0.0130812
0.0625428
-0.119178
0.0566349
0.286242
-0.328431
0.861353
-0.0950629
-0.154316
0.126488
-0.0379811
0.00924448
0.0287366
0.754888
-0.4244
-0.330488
-0.476193
-1.4127
0.00648553
-0.266952
0.0340404
-0.57104
0.536999
0.138396
-0.0957469
-0.0426494
-1.59303
0.947107
0.645924
0.618949
-0.594101
-0.053715
0.448852
-0.395137
-0.173281
0.169736
0.520751
-0.242434
-0.278316
1.03977
-0.56879
0.237472
-0.313129
0.889118
0.324372
-1.21349
0.299155
-0.33511
-0.399335
-1.42293
1.82227
1.27559
0.668857
0.696827
-0.457106
-1.31367
0.786473
-0.706906
0.908622
-0.201717
0.00679965
-0.0340698
0.0272702
0.276145
-0.323545
0.0473995
-1.49543
1.38201
-0.275767
-0.149971
0.425738
0.103303
0.0350929
-0.852278
0.886319
0.53871
-1.08459
0.545884
-0.527679
-0.0238328
0.673628
-0.402378
0.137742
-0.0106763
-0.379714
0.150077
0.229637
0.0639273
-0.248146
-0.36252
-0.11172
0.474241
0.13196
0.208911
-0.767706
-0.684906
-0.766739
-0.826293
0.0512888
-0.067684
0.0163952
1.68011
-0.689299
-0.990811
-1.16819
0.411595
-1.15651
2.12545
-0.968947
0.361907
0.158843
-0.257386
0.141123
0.116263
-0.768089
0.590663
0.626588
-1.11001
1.74642
-0.0649069
-1.68152
-1.48661
1.92988
-0.443267
-0.0231784
0.0857212
0.376521
1.4217
-1.79822
0.0339655
-0.165515
0.13155
-0.11542
1.78007
-1.66465
0.00170536
0.10911
-0.110815
-0.882133
1.23156
-0.349425
-0.0971394
-0.67095
0.0733697
-0.43589
0.264357
-0.174385
-1.63226
1.80665
-0.0163366
0.0688014
-1.5919
0.824196
0.226131
-0.177318
-0.0488127
-0.0849208
0.0110927
0.124219
1.58978
-1.714
-0.575946
-0.550644
1.12659
-0.510569
0.400219
0.11035
2.47898
-1.62331
-0.855669
0.441109
-1.01705
-0.178841
0.209615
-0.0307745
0.112825
0.718311
-0.831136
0.0453732
-0.048751
0.00337784
0.831513
0.802908
-1.63442
-0.223037
-0.502238
-0.0582895
0.165616
-0.107326
-0.931724
0.691562
0.240162
-0.0728432
0.0390177
0.0338256
1.46533
0.214783
1.08358
-2.02364
0.94006
-2.80009
1.22119
1.5789
-1.16784
-1.63225
-0.3746
0.48958
-0.11498
0.304761
-0.377454
0.0726927
0.654272
-1.53279
0.87852
0.0556802
1.0584
-1.11408
-0.876595
1.01591
1.12812
-0.239005
1.10715
1.14094
-2.24809
-0.182143
0.0876513
0.0944915
0.027322
-0.959046
1.86121
-0.481987
-1.37923
0.134553
-0.100588
0.0934756
-0.143017
0.0923981
1.07197
0.789244
0.177154
0.667148
-0.844302
0.359346
-0.042249
0.00613222
0.0531119
-0.0592442
0.194449
-0.315371
0.120923
-1.8124
0.853069
0.959331
0.0505885
0.254173
0.811225
-0.782263
0.493583
-0.0335836
-0.459999
0.132933
0.12882
-1.85757
1.80715
0.0504199
1.19825
-0.659542
0.0296203
0.197687
-0.227308
-0.0398742
-0.126926
0.1668
0.118773
-0.212747
1.66895
-0.55278
0.0306075
-0.0103029
-0.0203046
0.00198416
-0.0399652
-0.318195
0.0998855
0.921713
-0.667535
-0.656666
0.712346
-0.376622
-0.00309192
2.08016
0.0196517
-0.0198115
0.000159775
0.0216425
0.90007
-0.199387
0.128653
0.0707339
0.021638
-0.0264001
-0.355162
0.753535
1.17743
-1.33803
0.413965
-0.369374
-0.0445907
0.316971
-1.1991
0.188754
-0.07566
-1.83944
1.66505
-0.226788
0.0479471
-1.98712
0.22023
-0.220677
-0.0700237
-0.0555372
0.125561
-0.593406
-1.21899
1.40872
0.954776
1.72213
-0.77502
-1.71314
0.0925509
-0.440853
0.0477193
0.212449
-0.260169
0.174337
-0.234339
0.0600012
-1.27637
0.602341
-0.193093
-0.262147
0.45524
0.334978
-0.420366
-0.118694
-1.91456
2.03325
0.990935
0.223267
-1.51139
1.28812
0.91544
1.05041
-0.767782
1.49537
-1.11885
-0.0536873
0.390484
-0.336797
-0.874351
0.762318
0.112034
0.00988526
0.0207222
-0.0832917
0.325934
-0.242643
-0.26719
-0.249785
0.516976
-0.521426
1.79701
-0.27585
-0.364129
0.639979
0.0711864
-0.102723
0.264161
-1.22379
0.0370841
-0.0309519
0.00841029
-1.84192
1.00392
0.837999
0.363732
-0.468851
0.00842862
-0.0247231
0.422037
1.08671
1.39228
1.65032
-0.538703
-1.11162
0.117361
-0.0432754
-0.0740861
0.742353
0.959932
0.150259
-0.10254
0.687573
-2.00242
1.31484
-0.0271426
0.0369883
-0.00984574
0.497586
0.829361
-0.217418
-0.101542
0.743213
-0.56606
-0.578394
1.44854
0.153668
0.0107023
1.86144
-0.563431
0.143389
-0.135992
1.77331
-0.122996
0.1009
0.399647
0.0143183
0.0177062
0.298656
-1.73995
-0.839435
0.981875
-0.14244
0.0057565
-0.116884
1.77162
0.0204916
-1.79211
-0.710855
0.435005
0.222796
0.0671562
-0.30699
0.0688509
0.0125093
-1.21557
1.54292
-1.58309
0.0401653
0.0202433
-0.306705
0.286462
-0.815393
1.31298
-0.811708
1.53713
0.0520029
-0.0317596
0.783819
-0.314832
1.95359
-0.590859
0.00519535
0.118582
-0.123778
-0.0662758
-0.0976433
0.163919
0.114482
0.00287931
-0.0686312
-0.743161
-0.227597
0.00907591
0.218521
0.527667
1.21544
-1.73872
1.33938
0.112679
-0.460959
-0.780648
1.01509
-1.13852
1.33496
-0.196439
0.531851
-1.80235
1.68693
2.03987
-0.972528
1.32516
0.855885
-0.0664544
0.254049
1.28887
-1.31639
0.312891
1.0035
0.250039
-0.281078
0.258442
-0.207853
-0.211031
0.147056
-0.103914
-1.52741
0.51173
-1.20025
0.688524
-1.18599
0.500013
0.685973
-0.154675
-0.769223
0.00980635
-0.0274519
0.0861398
-0.0262341
0.188556
-0.162322
-0.541445
0.48773
1.05603
0.983837
-1.48661
0.0168614
0.0274905
1.61559
-1.43073
-0.184855
-0.389051
1.81075
-1.57099
2.50622
-0.93523
-0.775277
1.0404
-0.265122
0.131946
-1.39114
-0.182552
-0.194902
-0.270747
0.426584
-0.155837
-0.0178558
0.0163339
1.33919
0.707827
-1.27896
0.571135
-0.0305836
-1.55633
1.58691
-0.0522429
-0.105719
-0.00507671
-0.47176
0.476837
-0.773774
1.65492
-0.881144
0.197449
-0.137287
-0.0601626
-0.520173
0.603716
-0.0835431
-1.96645
1.78303
2.04365
-0.440346
-1.60331
-0.137628
0.0770929
0.0605355
0.00745537
0.166882
0.106602
-0.634281
-0.822773
1.65429
-0.0429525
0.0157662
1.74642
-0.978821
1.09165
0.0264778
-0.0264778
-0.137954
0.235945
-2.04483
2.25658
-0.940114
-1.31647
-0.719946
0.869946
-0.149999
-0.00535143
-0.310196
0.315547
1.05632
-1.19717
0.140847
-0.562567
-0.24901
0.811577
0.863534
-1.99766
1.13413
-0.077431
-0.79692
-0.209352
0.143076
-0.221251
-0.566669
0.78792
0.758844
0.421151
-1.18
-1.31083
-0.428626
0.688465
-0.259839
-0.95383
1.16355
-0.209725
1.44639
-1.32217
-0.0983346
-0.129262
-0.0450685
-0.0150622
0.453463
-1.17231
0.995122
0.177187
-1.29318
1.85714
-0.563957
-0.0168244
0.130661
-0.113837
-1.47716
-0.753219
-0.0570276
-0.004059
-1.6147
0.458193
-0.368082
0.28479
-0.243583
-0.531695
0.0338391
-0.0609817
-0.691981
1.79913
0.0428655
-0.358774
-1.52138
0.110004
1.41138
0.955192
-0.986801
0.0316092
-0.874299
0.167393
0.214569
-0.564926
0.350357
1.61921
-0.150908
-1.4683
-0.0145254
-0.0526173
0.0671427
-0.379677
0.753185
0.619154
-1.37234
-0.44716
1.40227
0.243435
0.64235
0.728436
-0.0718309
1.58113
0.192181
-1.43381
1.40323
-0.100906
-0.0391974
0.140104
-0.0802101
-0.117089
0.197299
-2.04006
0.469069
-0.112655
0.510474
-0.617075
-0.22236
0.249228
0.861492
-0.303467
-0.558026
0.190703
0.0970053
-1.1298
1.86197
-0.732166
0.147439
-0.245082
-0.0717854
0.34793
0.25179
-0.522538
-0.206376
0.0658753
0.140501
0.315169
-0.0377449
-0.277424
0.700722
-1.1693
0.46858
-0.015
0.00282692
0.0121731
-0.288006
0.320157
-0.0321511
0.120925
-0.46483
0.343905
0.303939
-0.0539001
0.0412094
0.394546
-0.435755
1.34184
-1.02402
-0.962053
-0.147812
-0.465409
0.613221
0.0960708
-0.0272695
-0.269438
-0.241131
1.11403
-0.25254
0.0271924
-1.26251
1.23532
-0.355707
-0.024574
-0.0374776
-0.576058
-0.314454
-0.205719
0.168522
-0.166817
-1.3971
-0.0348493
-0.0791189
0.113968
1.31068
-0.986309
1.08423
0.959429
0.431321
0.0622618
-0.160903
-1.59319
1.7541
0.677537
0.510702
-1.18824
-0.126194
-1.03794
0.613073
0.424872
1.19208
-0.236889
0.0197693
0.0144255
-0.0341948
2.21427
-1.21259
-1.00168
0.135064
-0.30261
0.167545
0.681262
0.438531
-1.11979
0.0700436
0.100317
-0.170361
1.70481
0.0372299
-1.74204
0.0338331
0.115546
-0.253401
0.296266
0.0541323
-0.000436354
-0.0536959
0.199667
-0.268291
0.0477831
0.023271
-0.0710541
-0.501431
-0.665216
1.16665
1.10576
0.513449
1.01228
-0.985088
0.603893
-1.37767
-1.84492
1.72622
0.138389
0.060587
0.24937
-0.604076
0.354706
0.738417
0.98371
1.14825
-1.34032
0.192068
1.2006
-0.558255
-0.130401
0.0871253
0.107905
-0.334951
0.227046
-1.52747
-0.324578
1.85205
-0.42206
0.449448
-0.0273883
-0.00648589
0.0329637
0.304342
1.16408
-0.136591
-0.0455522
1.00278
-2.06199
1.05921
-0.805723
-0.320899
1.12662
1.60875
-0.525174
-0.0300992
0.556748
-0.948713
-0.261767
0.00454984
0.257217
0.0191867
-0.185491
-0.481559
1.18939
0.0114503
0.0339229
-0.147968
0.143409
0.00455902
0.0418056
1.01452
0.111837
-0.74913
-0.411357
-0.415743
0.5077
0.718528
-0.962111
-0.17727
0.0417901
-0.0712829
0.163681
-1.9331
0.90908
0.050801
0.10333
-0.154131
-0.312062
0.222476
0.0895859
0.197728
0.860673
0.00206045
0.00226755
0.00908443
-1.65517
1.64609
0.0337131
-0.633834
0.600121
-0.0221713
0.063013
-0.0408417
-0.690533
1.20226
-0.147798
-0.3542
0.501998
-0.280291
0.49486
-0.228785
1.24429
-1.0155
-0.649891
0.535149
0.114742
2.01012
-0.105093
-0.119243
-0.153836
0.273079
-0.0330284
-0.241967
-0.176163
-0.152041
1.13365
0.910978
0.28471
-1.36999
1.08528
-0.807938
-0.176673
0.984611
0.0457758
0.136744
-0.18252
0.0697745
0.242269
-0.312044
-0.155293
-0.0423252
0.197618
0.0153961
0.0216881
-1.03813
-0.14571
0.0126349
-0.0440911
0.0131391
-0.122444
0.38934
-0.266896
-0.228563
0.262698
-0.0341347
-0.0455904
0.0620019
-0.0164115
0.78964
-0.387953
-0.0612876
0.0140171
-0.230058
-0.593828
0.823886
1.17184
-0.974114
0.0127793
-0.352627
0.339848
-0.54695
-0.431867
-1.37053
1.52371
1.11585
0.0998369
-1.34985
0.839494
0.510361
0.217401
-0.0941155
-0.123286
1.74311
-1.74311
-1.61763
0.13171
-1.00596
-0.188021
-0.651209
0.83923
0.577158
-0.53673
-0.0404282
-0.204157
-0.298941
0.195856
0.103085
0.00454843
0.19684
-0.201388
-0.487294
1.26305
-0.77576
0.133339
-0.189398
0.0560598
0.806837
-0.674891
-1.05631
0.248369
-0.0390515
-0.21376
0.252811
0.0159516
-1.33234
-0.522717
-1.20987
0.687151
0.731634
0.0127735
0.233836
-0.246609
-0.271876
0.329037
-0.0571611
-0.225798
0.167509
-0.0823778
-0.145138
0.0751139
0.0359622
-0.0484295
0.131991
-0.0835613
-0.267911
-0.0670402
-0.311431
0.35264
0.112231
-0.135461
0.02323
-0.0834212
-0.116025
0.199446
-0.125697
0.0121045
0.113593
-0.0644134
0.166717
-0.102304
-0.638153
1.32668
0.584415
-1.12902
0.544606
-0.14967
-0.0805401
0.230211
-0.0452297
-2.24606
2.29129
0.889625
-0.573619
-0.316006
0.442256
-0.0388128
-0.195526
-0.0545227
0.00778998
-0.0538293
0.188894
0.289675
-0.925053
0.635378
-0.452105
-1.40547
-0.201949
0.830657
-0.628708
0.169463
0.0570987
0.403861
-0.271234
-0.132627
0.321271
-0.551329
-0.486387
-0.085219
-0.0827437
0.167963
-0.524179
0.331086
-0.154519
0.577672
-0.193571
0.153697
-1.59569
0.225587
-0.287402
0.539193
0.0332558
-0.242608
0.35718
-0.130134
0.317375
-0.304602
-0.0834589
-1.28837
0.650213
1.98198
-0.201908
-1.63226
2.24884
-1.08743
-1.16141
-0.080241
0.484358
-0.0821772
-0.740076
0.515894
-0.451967
-0.243633
-0.0181339
-0.588972
-0.40188
0.990851
-0.0405152
0.0611827
-0.0206674
0.0236379
-0.865149
-1.90547
-0.311834
-0.324139
0.635973
0.438008
-0.404295
-0.242233
-0.0378542
0.280087
0.465438
-0.0779956
0.163916
0.0534853
1.99987
-1.13633
-0.905113
0.316141
-0.249159
-0.0501172
0.299276
-0.0454539
-0.105771
-1.0914
0.00670973
-0.258311
0.251601
-0.0822651
-0.0339024
0.920295
-1.17995
0.25966
-0.667341
-0.0511905
1.7943
0.105553
-0.699382
1.24989
-2.04621
0.796323
-1.99838
1.33631
0.662064
0.150648
0.103228
-0.253876
0.151988
1.19196
0.0106594
0.84499
-0.855649
-0.0536927
0.0433898
0.037778
-0.175406
-0.0299822
-0.273461
0.303443
1.26429
-1.42519
0.216996
0.0696666
0.0150471
-0.0847136
-1.46089
-0.156747
-0.582895
-0.840479
0.692667
0.107671
0.003385
-0.111056
-0.627612
0.302536
0.325077
-0.391413
0.337726
-1.09564
-0.544116
1.63976
-0.147919
0.271132
-0.276484
0.308899
-0.602522
0.293623
-0.667266
1.16728
-0.154034
-0.880386
0.160439
0.766371
0.0448548
0.909911
-1.3972
-0.0552717
0.0486308
0.00664093
1.11817
-0.411081
-1.08219
-0.342994
-0.0720661
0.41506
-0.0548065
0.201862
-0.132089
0.0236384
0.108451
0.120732
-0.277516
-0.161936
1.33937
-0.221395
0.304239
-0.0667676
-0.425492
0.400769
-0.179408
0.0734933
0.105915
0.245264
-0.106668
-0.138596
-0.141037
-0.0416534
0.182691
0.156034
-0.110576
-0.0454586
-0.258753
0.133605
-0.220192
-0.0865126
-0.0277058
1.20491
-0.343462
0.0910986
0.252363
-0.0835784
0.10825
-0.0246719
0.11553
-0.375015
0.259485
0.0375918
0.231424
-0.66005
0.134359
0.360421
-0.0741784
-0.146394
-0.0268869
-0.128537
-0.0369785
1.79718
-0.994275
0.0777806
-0.294414
0.216633
-1.60143
0.2309
-0.0570744
0.0950143
-0.0379398
-0.0396224
-0.0332208
-0.683929
-1.31445
0.357712
-0.0585571
-0.856208
-1.14621
0.0686661
-0.216634
-0.320752
0.629651
0.995279
-0.749518
-1.06013
1.34484
-1.84887
0.321402
-0.142544
0.0722651
0.0702792
0.141017
-0.179976
-0.393136
0.573113
0.0353464
-0.055651
-0.455769
-0.840197
1.29597
-0.823473
-1.05803
1.8815
0.603486
0.343848
-0.947333
0.00331384
0.217517
-0.302736
-0.260802
-0.261736
-0.171235
-0.104413
0.275649
0.256636
0.395795
0.274943
0.128918
0.107605
-0.599236
-0.0104728
0.0301245
-0.688359
0.913054
-0.224695
-0.142315
0.0291513
-0.896051
-0.064152
-0.00353205
-0.774832
-0.153054
0.314955
-0.766893
-0.0153692
-0.136013
-0.891617
-0.332951
1.22457
-0.173595
0.68949
0.225877
0.644069
-0.292452
-1.00698
-0.926115
-1.28557
1.42642
0.0753757
0.184489
0.0159747
-0.0665924
0.0506177
-0.629911
0.574579
0.0553316
0.712857
-0.809996
0.263114
-0.212313
-1.12702
-0.222838
-0.257902
0.325021
-0.0671193
1.14001
-0.439286
-1.46444
-0.137719
1.60216
-0.0833875
-0.184523
0.120236
0.220875
-0.341111
-0.232048
0.396431
0.140639
0.0161451
0.0185298
-0.0346749
-1.30501
0.82302
0.00277972
0.0325667
-0.171915
-0.130695
-0.325776
-0.0875899
-0.0896799
0.300753
0.265607
0.0543872
-0.108083
0.348216
1.45894
-0.726436
2.0516
1.02218
0.60376
-0.85277
-0.0201173
-1.44432
-0.109517
-0.324572
0.381201
-0.0566293
-0.0272043
-0.0175148
-0.160551
0.00880657
-0.054511
0.123087
-0.0949256
1.55356
-1.45863
0.178059
-0.849008
-0.122426
-0.258785
-0.0696462
0.0669889
-0.282197
0.356605
-0.0744081
-0.00940057
-1.43181
1.44121
0.631192
0.269269
0.307889
-0.666717
-0.57063
0.946943
-0.376313
-0.0651103
-0.0992782
0.321754
-0.529282
0.754088
-0.224806
-0.0431611
-0.384429
0.42759
-0.159854
-0.607384
0.767238
-0.275817
-0.0592925
-2.03136
-0.0892903
0.181011
-0.175815
0.0289432
0.0526146
-0.0498348
0.340563
-0.664702
2.1836
-0.925776
-1.25782
-0.0301944
0.422999
0.29017
-0.169933
-0.224002
0.141258
-0.172458
-0.0128668
-0.37469
0.311239
-0.305986
0.837557
-0.997411
0.13578
-0.0917242
-0.0440562
-0.370292
-1.93384
1.05939
0.874452
-1.78562
1.74039
-1.18181
0.392089
0.789716
0.134794
-0.158119
0.0233245
0.603824
0.510209
-0.147605
0.1968
0.0354553
0.138307
-0.125335
-0.259625
-0.0116088
1.04531
1.13829
0.0759741
-0.0228622
1.52799
-1.22259
-0.0283384
-1.39324
1.42157
1.23456
-0.0296543
-0.291539
-0.0765432
0.0944592
0.0179109
-0.251775
0.124603
0.133838
0.468385
-1.60704
1.13865
0.120333
2.39575
-1.48563
-0.91012
-0.0223619
-0.261346
-0.0488504
1.40781
-0.0258045
1.36203
-1.23032
1.07017
-1.89364
-1.24783
0.0234319
1.2244
-0.968164
-0.0150233
0.983187
-0.0435824
0.0567216
2.18744
-0.00412847
-2.18331
-1.74179
1.89217
-0.150381
0.0447879
0.21791
-1.06736
0.11353
-0.0037652
-0.223023
-1.34859
0.210072
-0.00720604
-0.00911643
0.0163225
-0.0898345
0.22299
-0.133155
0.147487
-0.492955
0.345468
0.522367
0.459508
-0.524662
-0.10295
0.0738366
0.866136
-0.943567
-0.0650403
-0.0541375
-0.251239
0.0525304
-0.191398
1.49437
-1.30297
-0.291975
0.78541
-0.493435
0.054339
-0.41502
0.360681
-0.821257
-1.52285
0.707128
0.81572
-0.0238349
0.849694
0.22007
-1.06976
-0.413564
0.219067
-0.243131
0.0240637
0.167345
-0.0357953
-0.246295
0.00406244
-0.287013
-1.21641
-0.121619
-0.393734
0.791761
-0.398026
-0.748576
-0.565098
1.76959
-0.765667
-0.101127
0.18415
-1.37798
0.0192079
-1.36191
1.34271
-0.270649
-0.02717
0.297819
0.865535
-0.901019
0.0354835
0.135928
-0.0205801
-0.100657
-1.43124
0.682662
-0.664023
1.2771
-0.243913
-0.0742825
0.294902
0.216981
0.028283
0.807788
-0.372783
0.00921148
0.703646
-0.953418
0.409482
-1.89269
0.834658
1.25144
-1.26084
-1.48207
1.38715
-0.0222114
-1.45663
0.203997
1.25263
0.592526
0.238131
0.0331401
-0.909989
0.721968
-0.110918
-0.127937
0.238855
-1.41925
0.225467
1.19378
0.323446
0.787986
-1.11143
0.0112741
-1.29684
0.775359
0.0929099
-0.868269
0.126016
0.253861
-1.03451
0.0459436
-0.0116822
0.0506998
1.51037
-1.47314
0.216677
-0.985168
-0.53768
0.784846
-0.00508111
-1.24275
1.10682
-0.257128
-1.68693
-0.0262088
-0.303772
-0.909718
0.332179
0.124484
1.84492
0.23524
0.111839
-1.20324
0.13433
-0.102302
0.193383
-0.460573
0.325123
-0.554624
0.229501
0.250628
-0.0320483
-0.21858
0.158995
-0.312831
-0.0874818
0.28193
-1.13897
1.18264
-0.0436669
-0.740306
1.0866
-1.78716
0.700558
-0.747776
-0.056389
0.0902145
-1.45741
0.109331
1.34808
-0.361994
0.893845
-0.66706
0.690698
0.158027
0.956824
0.595688
-1.00705
-0.819353
-0.178219
0.997571
-0.709897
-1.20801
0.752243
-0.121589
0.124793
-0.00320401
0.0504152
-0.091257
0.971819
-1.45338
-0.23209
-0.464658
0.696748
-0.164908
0.13652
0.0283876
-1.0688
0.46142
0.0364542
0.0247678
-0.226786
0.40541
1.95677
0.230667
-0.794692
0.805351
-0.261549
0.089634
-1.10192
1.75187
-0.64995
-0.0737657
0.0626711
0.0750705
0.367514
-0.0217905
0.950871
1.17458
0.628436
-0.943269
0.282511
-1.90582
-0.164138
0.129289
0.111426
-1.09773
-0.221971
-0.957983
-0.20628
0.0519636
0.784705
-0.379294
-1.1301
0.446451
0.892921
0.181512
-1.67543
0.319871
1.35556
-0.0820325
0.478463
0.673887
-1.19174
-0.294874
0.744771
-0.33333
-0.411441
0.854732
-0.28322
-0.571512
-0.174778
0.0374907
0.624996
-0.660286
0.0352907
-1.36583
0.296669
1.06916
1.07945
0.164839
0.000617606
0.107053
0.755684
-0.52426
-1.7889
0.641882
1.14702
-1.80665
1.48207
0.815767
0.798545
-1.61431
0.780657
-0.720193
1.81863
-0.616736
-1.2019
-1.04132
0.167194
-0.0800691
-0.014403
-0.100259
0.18791
-0.0361147
0.11366
-0.0775452
-0.235237
-0.232243
-1.54595
-0.171782
0.067036
-0.0970182
-0.03158
-0.017171
1.02315
-0.478626
-0.544522
0.780013
-0.477477
-0.115052
0.122507
-0.108301
1.25655
-0.321191
0.0505419
-0.278195
-0.790608
-1.44568
0.554058
-0.0669767
-0.0745011
0.121576
0.09619
0.0995593
-0.0835846
-0.502301
-0.487422
0.0925037
-0.0768097
-0.015694
0.175404
-0.914767
-0.344021
1.25879
0.0209089
0.0317057
0.17025
1.04884
0.99691
-2.04575
-0.382215
0.985701
0.210018
-0.08353
0.609584
-0.890229
-0.655453
1.54568
-0.929404
-0.978242
0.576363
0.298246
-0.201649
-0.096597
0.551185
-1.24048
-0.146152
1.53711
-0.450508
-0.176612
0.101628
-0.39304
-0.735982
0.0693642
1.95632
-1.72622
-0.230095
-0.860843
-0.584833
-0.0386456
0.160209
0.0650666
-1.01666
-0.219592
1.23626
0.213859
0.517607
-0.560768
-1.67529
-1.69457
0.685709
1.00886
-0.157016
-0.00483868
0.161855
0.941809
-0.552068
-0.389741
0.102769
-0.15728
0.075725
0.0810059
0.90135
-1.99699
0.758412
0.09632
-0.31657
-0.588543
0.0523281
0.00885459
0.145712
-0.0159469
-0.89882
0.0264603
0.364024
-0.540106
0.525043
-0.0895051
-0.00676946
0.0962745
0.98137
0.837261
0.570016
0.055964
0.70234
-0.556241
-0.146099
1.80235
-1.48248
-0.0610752
-0.521997
0.141892
0.025453
0.208411
0.0285146
-0.112076
0.00354813
-0.125137
0.533785
0.0658012
-1.79114
-0.0192834
-0.137733
-0.0692292
0.00263684
1.054
-0.828125
0.887575
-0.47601
-0.411565
0.00381815
0.106354
-0.0108799
0.00367386
0.396856
0.0683419
-0.345766
-0.838437
-0.330865
-2.16634
0.877248
1.28909
-0.0204662
0.00303175
0.0636757
0.10044
0.113862
-0.271844
-0.293082
0.479844
-1.37007
0.238333
-0.959069
2.00791
0.62007
-0.083759
-0.536311
-0.665262
-0.490348
-0.0463824
0.0872136
-1.11554
0.479043
-0.732516
0.253473
-0.229161
0.171041
0.0581203
-0.103145
1.29405
1.21217
-1.46199
1.48248
-1.62427
1.14682
0.477451
1.05159
-2.01066
2.15045
-1.06374
-1.04559
-0.983103
-0.0165102
0.205067
-0.0517546
-0.420006
-1.53559
0.0789579
-0.0273789
-1.31294
1.24116
-1.98044
0.739272
-0.0512711
0.233043
-0.463277
0.269132
-0.15439
1.0244
1.37135
-1.79213
0.690212
-0.135733
-0.793671
-1.34352
0.228684
-0.0576427
1.78562
-1.89071
-0.128676
-1.11206
0.0997084
1.13193
-0.378747
-1.48854
1.64171
-0.153166
0.412302
1.87899
0.434975
-0.0684338
-0.366541
1.86743
-0.797262
0.229509
-0.302008
0.720111
-0.757589
0.0878483
0.129133
0.406874
1.00315
-1.41002
-0.601215
-0.455875
1.02071
-1.06728
0.0465758
-0.298865
0.0405548
-1.73942
0.74752
0.991904
0.978164
-0.112629
-0.286387
0.0582062
0.854447
-0.809592
0.283028
-0.54383
-0.175717
0.14883
-0.630457
0.450481
-1.11675
-0.839108
1.95586
-0.181001
0.0704248
-0.0178046
-0.250486
1.03857
-0.87813
0.0535796
1.33092
-2.05736
-0.00511475
-0.250412
0.213005
-1.18712
0.0743926
0.719898
0.396541
0.0434072
-0.610076
-1.45116
0.391037
0.0667511
0.273945
-0.340696
0.0680783
-0.310721
1.15821
1.09063
1.24338
-0.983718
0.0352723
-0.205883
-0.109488
0.437802
-0.0658321
-0.211684
-0.696507
-0.957244
2.00883
-0.182258
0.158423
-0.686726
-1.13438
1.8211
-2.0788
0.337008
-0.0649128
0.230254
0.0292309
-1.45268
-0.0687023
-0.17544
0.654483
-1.00446
-1.16188
1.95632
0.558756
-1.38505
1.01479
-0.555279
-0.219122
-0.133625
-0.169111
-0.235588
0.248367
-1.61724
0.212968
-0.783598
1.06139
-2.01863
-0.797955
-0.194478
-0.0474889
-0.0884343
-1.40011
0.856693
-0.872062
1.35117
0.824123
-1.50286
0.678739
1.59543
-1.29876
1.95176
-0.940216
-1.01935
1.95957
0.493423
1.25526
-1.0414
-0.685121
-1.00945
-0.842084
-0.782189
0.454217
-0.643577
1.54998
-0.906398
-0.110596
1.34253
-1.23193
-1.01919
-0.94086
1.96005
0.907912
0.112796
0.231022
0.374479
-0.467098
0.319337
0.14776
-0.00393177
-0.241151
0.502553
-1.3634
-0.781025
-0.385264
-0.244647
-0.212565
0.059511
-0.300671
0.990131
-1.97985
0.901658
1.07819
-0.0174739
-1.66915
1.68662
0.0440119
-0.239768
0.0383798
0.608636
-1.89546
1.89546
-0.0418125
-0.0154074
0.0572199
-0.642685
1.06384
0.211576
0.0171074
-0.772445
-0.330063
0.725858
-1.46199
-0.0329068
-1.26826
0.289438
1.28989
-1.27394
-1.19548
0.178812
-0.258324
0.154978
0.103346
0.102562
0.522433
0.276028
-0.0253999
-0.951288
-1.18258
0.163672
1.01891
-1.37845
-0.153815
-0.599765
-1.18739
-0.0349747
0.0511198
0.157775
-0.317564
0.0935627
-0.017436
0.0718232
0.363497
-0.275418
-0.355039
-0.674294
1.34075
-0.666452
0.322907
0.202395
-0.230034
0.396993
-0.166959
-0.424482
0.174696
0.419302
-0.53184
0.112538
-1.08835
1.79526
-0.979493
-1.27444
-1.67958
0.24777
-1.25317
0.0490166
1.02345
1.19082
0.113692
-1.02341
1.13613
-0.141012
-0.346046
0.102133
0.649643
0.609819
0.170839
1.9982
-0.936813
-1.03777
-0.833925
1.87169
1.1572
-0.0361008
-1.1211
0.137252
-0.0290018
-0.189908
0.173084
0.137234
1.34366
-1.48089
-1.29871
1.26084
0.0378733
1.29871
-1.38715
0.211264
-0.262535
-0.809558
1.06342
0.0754702
0.344588
-0.210984
-1.64835
0.136961
1.57878
-0.754657
-0.358351
-0.0628385
0.136332
-0.430261
0.936374
0.252565
-0.0850198
0.654671
-0.879476
0.174255
-0.234418
-0.573768
-0.0512914
0.739102
-2.06056
0.504228
-0.0675502
0.425835
-0.358285
-1.04297
-0.937464
0.08992
0.65314
0.545112
-0.864009
0.0693173
-0.0952696
-0.31975
0.100618
-2.07926
1.03367
0.0404916
-0.0183377
-0.286264
0.0461015
0.254651
0.0308621
-1.42511
0.729689
-1.47886
0.74917
0.0578184
0.243759
-0.301578
0.267636
-0.0551864
-1.02408
1.31352
0.622581
0.36312
1.33579
-1.19174
0.182805
0.0399907
1.66952
-1.95814
0.288618
-0.170194
-0.432328
-0.82309
-0.0451794
0.368879
-0.440945
0.246691
-0.376825
-1.15025
-0.109075
-0.0189803
0.128055
-1.46648
0.172948
1.29354
0.269124
-0.352512
0.0866221
0.183378
-0.27
1.18684
-1.19192
-0.280859
0.248811
0.628924
0.210306
-0.341073
0.273954
0.363351
-0.306252
0.180651
0.669289
-0.84994
-0.423874
-0.0690805
-0.937998
-1.01833
1.95633
-0.16907
-0.244316
0.46095
-1.00101
1.74039
0.417561
-0.276544
0.0486196
0.0456859
-0.0322613
2.04592
-1.00061
-1.20432
0.763767
-0.550799
-0.550588
1.69761
0.365773
-0.297431
-0.0395751
0.0330892
0.337801
-0.0854386
-0.287599
0.183186
-0.28775
-0.213425
-0.104139
1.07697
-0.333068
0.37917
0.303559
-0.0697234
0.0360771
0.16127
-0.0274316
0.486464
-0.761881
0.20497
-0.234681
0.0297111
-0.36782
0.34065
0.178008
0.894621
-1.07263
-0.233527
0.10559
0.457204
-0.630799
1.57533
-1.04766
1.00645
0.901473
0.108124
0.553209
-1.08235
0.346431
-0.424427
-0.343893
1.11503
0.884839
-1.52043
1.52043
1.72889
-0.815843
1.08
-0.0163598
1.51826
-1.5019
0.936439
1.00801
0.871769
-1.98852
0.111143
-1.10855
-1.32925
-0.208712
-1.43041
1.63913
-0.404685
-0.119494
0.0704259
0.939053
0.153249
-0.259917
-0.965691
1.65311
-0.687421
-0.175169
0.263017
-0.018814
0.170094
1.02199
2.44758
-0.960074
-1.48751
1.58994
-1.48061
1.13373
0.201232
0.0468747
0.00512816
0.0383198
1.55146
0.565496
1.09483
0.767137
0.0207489
0.192352
-0.213101
-0.342484
0.211788
0.176986
-0.18905
0.0120632
0.157549
-0.211995
0.0544462
0.510246
-0.436409
0.330132
-0.472447
-0.439376
0.531927
0.0227496
-0.244282
0.0401245
-0.60287
0.550075
0.0527942
-0.0270204
0.0168527
0.0101677
1.89071
-1.56727
0.202936
-0.00385481
-0.199082
-1.51037
-0.33704
0.262862
-1.00358
1.94002
0.255098
-0.324745
1.99924
-1.12747
0.242635
-0.309403
-0.153454
-0.39044
-1.35064
-0.0615777
1.61774
1.31369
-1.10068
-0.102715
0.140488
-0.0878529
-1.49523
-0.288396
0.281803
0.239643
-0.362069
-0.360299
0.285891
-0.0806266
-1.33078
1.30244
-1.4549
1.49507
-1.185
-0.467594
0.423003
0.653595
0.378597
-0.390206
-0.0553164
0.0577784
0.345089
-0.402867
-0.354419
1.42639
-0.978273
-0.998117
-1.97544
-0.0773377
0.0736878
0.00364985
-0.0438912
1.47185
-1.42796
1.05247