/*--------------------------------*- C++ -*----------------------------------*\
| =========                 |                                                 |
| \\      /  F ield         | OpenFOAM: The Open Source CFD Toolbox           |
|  \\    /   O peration     | Version:  2306                                  |
|   \\  /    A nd           | Website:  www.openfoam.com                      |
|    \\/     M anipulation  |                                                 |
\*---------------------------------------------------------------------------*/
FoamFile
{
    version     2.0;
    format      ascii;
    arch        "LSB;label=32;scalar=64";
    class       surfaceScalarField;
    location    "1.6";
    object      phi;
}
// * * * * * * * * * * * * * * * * * * * * * * * * * * * * * * * * * * * * * //

dimensions      [0 3 -1 0 0 0 0];

oriented        oriented;

internalField   nonuniform List<scalar> 
20045
(
0.982586
-1.06011
0.0775199
-2.08875
0.730589
1.35816
0.77224
3.92568
-4.69792
0.0453572
0.0478317
-0.0931889
-1.63403
1.59823
0.0358021
-1.24959
4.50095
-3.25135
-1.98256
0.867371
1.11519
0.121662
0.842121
-0.963783
0.951766
0.800521
-1.75229
-1.67146
-0.180885
1.85235
-0.349912
-1.09867
1.44858
4.47985
-2.10894
-2.37091
0.673524
-0.699226
0.0257019
-2.53689
2.23538
0.30151
-0.648038
2.07803
-1.42999
-2.15443
0.482967
-0.0921002
-0.124385
0.216485
1.37404
-1.11261
-0.261426
-3.42353
5.06045
-1.63691
-1.48394
0.13256
1.35137
0.0417493
-0.190077
0.148327
0.21211
0.461413
-0.23292
-1.85583
1.46055
2.36766
-3.82821
1.621
0.458548
-2.07955
-2.39754
3.85809
-1.07862
1.26059
-0.18197
-2.49749
4.82896
-2.33147
3.38892
0.523623
-3.91255
-4.76311
2.59289
2.17022
-0.631859
0.0215298
0.610329
2.82645
-1.97167
-0.854776
-1.61228
3.34353
-1.73125
4.92369
-2.77205
-2.15164
-1.08303
1.20469
4.32633
-2.16315
-2.16318
2.81729
0.213967
-3.03126
-0.122381
0.750326
-0.627945
-3.70635
1.69079
2.01556
1.16579
1.01524
-2.18103
0.108695
0.800254
-0.908949
0.337438
-0.458032
0.120594
4.49286
-4.488
-0.00486169
2.97596
-1.14925
-1.82671
1.4157
1.56027
1.98418
2.49567
-0.806513
1.41797
-0.611454
2.5137
1.05691
-3.57061
3.3743
-0.557009
0.387376
3.80086
-4.18824
2.5848
-4.38543
1.80063
3.42836
-2.44727
-0.981088
-2.39647
-1.63871
4.03519
-0.187766
-0.577402
0.765168
1.46174
-0.484592
-0.977146
-1.35099
-0.283041
-0.308099
3.28002
-2.97192
2.9803
0.308474
-3.28877
2.10503
-3.71731
3.84588
-2.30666
-1.53922
-0.15474
-1.10305
1.2578
1.84755
1.99833
1.09526
-3.73243
2.63717
0.273022
-0.231273
2.45724
-0.579424
-1.87782
3.21952
0.176933
-3.39645
0.142914
-0.13693
-0.00598469
-1.34113
0.355817
0.985316
1.66644
-0.714672
3.5189
-3.5962
0.077296
0.156803
-0.0138889
-0.0632581
1.525
-0.528267
-2.03759
2.56586
0.107571
-0.806447
0.698876
3.56669
-0.896578
-2.67011
2.65691
-2.965
0.17636
3.39033
0.83657
-1.48461
-0.196918
-1.04243
1.23935
0.681952
-2.38062
1.69867
2.04592
2.33286
-4.37879
1.78014
-1.37569
-0.404449
2.92292
-1.82766
-5.09199
0.935926
4.15606
0.0504048
0.932181
-1.14112
1.27887
-0.137743
1.06174
-2.50198
1.44024
-3.22494
0.144255
3.08069
2.05259
0.302768
-2.35536
-1.6429
1.54034
0.10256
-2.83754
-0.434841
3.27238
1.40666
-0.257086
-1.14957
0.795699
-1.11481
0.319109
-0.331909
-1.58845
1.92036
1.12305
-1.20832
0.0852733
2.97609
0.730355
-3.70645
-1.20103
0.122408
-0.345296
0.419298
-0.0740026
2.36792
-1.20213
0.226768
-0.0824467
-0.144322
2.95792
1.36841
-0.870825
-1.66607
-0.00174398
-0.343552
-0.668146
3.64845
-0.118816
-1.02231
-0.306513
0.533281
0.864003
2.41425
-3.27825
2.01391
-3.40841
1.39449
-1.00343
-0.912611
0.787386
0.125225
-0.543278
0.674899
-0.131621
2.43417
-1.76109
-0.673084
-0.961534
0.773768
2.49025
-4.41443
1.92418
-0.325689
0.631157
-0.305468
0.103387
-0.652467
0.54908
2.30053
-0.679533
3.55881
1.36488
-2.31165
1.78338
2.70475
-3.70715
1.0024
0.981857
0.392182
-1.25423
1.09949
-1.49565
1.19934
0.296311
-1.69243
0.195393
-1.13146
0.936065
2.38518
1.04317
2.19144
-2.80831
0.616872
3.19919
0.417314
-3.6165
-4.3731
3.33427
1.03884
0.0305301
-2.16352
2.13299
3.59582
-1.21063
0.514266
0.903701
-0.480969
0.200569
0.2804
-0.208289
0.0898855
0.118404
2.27628
1.61326
-3.88954
2.36344
-2.31344
-0.0500012
-0.780148
0.324326
0.455822
-0.642084
-0.270527
4.18669
-1.48194
-1.26022
1.33134
-0.0711246
2.58249
-4.57972
1.99723
0.644203
-3.04068
2.2523
0.844144
-3.09645
2.65114
-1.96919
4.06843
-0.499185
-3.56925
2.14376
-4.04155
1.89779
3.96295
-2.25139
-1.71156
-0.275625
0.840607
-0.564982
-0.141093
4.32015
-4.17906
4.23193
-0.843012
-3.33699
0.120942
3.21605
-1.8504
1.62372
0.226678
3.94656
-1.90064
0.679237
1.1009
-2.49175
3.11199
-0.620234
-3.2139
3.98614
0.04953
-0.77792
0.72839
0.231092
-0.296313
0.0652208
-0.0737135
-0.718108
0.791822
4.84554
-1.92719
-2.91835
5.54343
-2.74345
-2.79998
-0.861609
0.787896
1.41803
-2.71563
1.2976
0.415486
-0.0780487
-3.11542
-1.82856
2.75364
-0.92508
-2.66905
1.9054
0.763649
-0.0752633
-0.0655739
0.140837
2.07622
1.88673
-0.221023
0.0127338
-0.612859
0.13189
-2.82964
0.337881
-2.94189
3.72607
-0.784187
-2.57132
2.95877
-0.387447
-2.31414
-1.69171
4.00585
-1.83137
1.378
0.453373
1.82945
-1.84315
0.0136958
3.79672
0.204746
-4.00146
0.0269633
-2.97021
2.94325
-1.39272
3.64503
0.750445
-2.11165
1.3612
-1.84765
4.3379
-3.27347
2.11921
1.15426
1.07346
-1.28601
0.212543
1.94043
-5.00697
3.06654
-3.88626
1.38877
-2.40794
-1.67733
4.39693
-2.64027
-1.75666
-1.03172
1.14041
0.645302
-0.688021
0.042719
-3.00295
-0.526116
3.52907
-3.55167
4.89951
-1.34783
3.53769
-2.63814
-0.899551
0.361268
-1.02683
0.665567
-1.12307
-1.78615
2.90921
1.1151
-1.46501
-1.91768
1.94821
-2.95915
-0.932347
3.89149
0.451877
0.111079
-0.562956
0.616039
-2.4446
-0.0130668
-0.618792
3.47143
-0.27224
-0.625419
0.503038
-0.682667
0.813352
-0.130685
1.23666
3.60888
-3.10849
1.98542
0.826255
0.0579185
-0.884173
-2.75331
0.515289
2.23802
1.07953
2.45816
5.21558
-3.27515
2.99398
-5.04527
2.05129
0.818954
-3.60401
2.78506
0.109932
-1.59387
-1.91914
2.78314
2.6192
-3.8688
1.50405
-3.03227
1.52822
-5.17241
2.96262
2.20979
-0.0423316
-1.60057
0.698543
0.519241
-1.21778
3.01129
-1.03944
-1.97185
-0.174547
-3.0232
2.8821
-0.970576
-0.289639
2.58428
4.32754
-3.49221
-0.835331
-0.0379761
-0.516427
0.554403
2.65143
0.526986
-3.17842
1.05798
-0.906114
-0.151865
-0.786357
2.78305
-1.99669
-1.76861
2.83035
2.19598
-1.44553
-0.327612
0.859849
-0.532237
3.86572
-1.28323
0.437297
-0.0448576
-0.39244
0.402959
-0.565221
0.162262
-0.522643
0.545373
-0.0227299
4.34348
-2.7183
-1.62518
0.970087
-4.52176
-0.580481
0.0578379
-3.45582
1.15131
2.30452
4.9291
-1.58558
0.988099
-3.92999
5.21938
-2.31357
-2.90581
-0.0687641
0.520641
3.12474
-1.65273
-1.47201
-2.43599
0.566364
1.86962
-3.8705
3.92149
-0.0509971
1.25448
-3.74528
2.4908
-0.160526
-0.13787
0.298396
-1.8383
2.51584
-0.677532
-0.732398
1.21272
-0.480324
-0.574844
0.249155
-0.653622
0.110344
-2.10294
-1.30547
1.57024
-3.13728
1.56705
1.18171
0.537416
-1.71912
1.58953
1.23692
2.74717
-1.24313
0.0227885
0.208304
2.82852
2.10058
-1.9776
0.0654431
1.91216
1.294
1.83074
1.48129
0.596741
-0.173761
1.35547
-1.0983
-0.0782461
1.17654
-0.223306
1.29677
-2.94108
2.15472
-0.632313
0.412329
0.219985
-3.58767
3.4717
0.115976
-1.29254
2.08306
-0.79052
-0.856555
-0.405051
1.26161
3.02609
-3.29369
0.267604
-3.16367
-2.00874
5.09338
-3.19305
-1.90034
-0.412999
0.375023
4.09528
-2.8408
-1.65604
3.22628
-0.810338
-0.526434
1.33677
3.25193
-0.787771
-2.46416
4.37489
-1.50556
-2.86933
-1.50612
0.695782
3.27595
-1.93278
-1.34316
-0.650459
3.1246
-2.47414
2.65776
-4.34006
1.6823
1.4109
-0.0712686
-1.33963
1.27012
-0.528234
-0.741888
5.10655
-4.2085
-0.898045
-2.40868
-1.96443
2.85353
1.474
-3.26984
-0.317836
0.346618
0.0563408
0.315289
-2.29824
1.98295
0.014909
0.630393
-2.17196
4.44824
1.71455
2.62893
4.77631
-2.88408
-1.89223
-4.18806
3.25571
2.81612
-4.76832
1.9522
-2.48004
-0.175878
2.65591
-0.893861
-0.69219
1.58605
2.27323
-0.855194
0.0130872
0.813168
2.12349
-0.0901286
-1.88154
-2.70603
3.62693
-0.9209
-0.804275
0.121608
-0.319995
-0.00761724
0.522902
-4.3934
1.30634
-3.07496
0.371352
-0.837616
1.06635
-0.228729
0.0339766
0.0113806
-1.97544
1.51789
0.457549
1.34305
1.09112
1.17578
1.20863
-2.38441
1.95932
0.404118
-1.97578
2.29107
2.25168
-0.199086
-0.797436
-1.95587
3.99972
-3.14362
-0.856095
3.43348
-2.88958
0.91152
1.97806
3.12554
-3.41622
0.290683
-1.74429
1.41239
-0.484001
-0.296147
-0.451471
-2.38607
1.09824
-2.09879
1.00055
1.64838
1.62756
2.73325
-4.50695
1.7737
0.865025
-2.08189
1.21686
-3.88518
0.660241
0.0424823
1.36418
-2.2437
3.42826
-1.18456
-1.00068
1.18661
-0.185924
-1.56448
-0.418081
-0.475222
-0.874647
1.34987
0.358878
0.00847252
-0.36735
-1.28771
-0.56269
1.51958
1.77398
-3.29356
2.88144
-1.58743
1.05864
-1.80433
0.0600397
1.7945
-0.929476
-2.60545
-0.668015
0.907232
-1.45496
0.547724
3.83614
-1.32243
-1.80294
2.95405
-1.15111
-0.450227
0.504378
-0.0541512
2.96968
0.0416166
-0.6621
-1.63614
-1.95128
3.60539
-1.65411
2.46804
-4.50258
2.03453
2.3677
2.72568
1.12706
-1.21549
0.0884325
0.381143
-2.86118
2.62622
-3.94816
1.32194
0.734949
-0.627378
-0.294467
2.48591
-1.41068
2.71702
-2.66239
3.48135
0.858544
-4.28208
-3.48878
1.87546
1.61331
2.48815
-0.377814
-2.11033
3.7007
-0.674609
-1.80048
-2.09021
-1.86148
2.05801
-0.969025
0.42741
0.541615
1.23765
-1.10509
-2.79851
2.50405
3.54229
0.950569
-3.08008
1.27714
4.19094
-1.3374
-0.236101
1.10646
-0.870357
0.117188
-2.53245
2.41526
-3.60327
0.687072
2.91619
3.35202
-3.35202
-1.06162
2.69092
-1.6293
2.67176
-1.49599
2.7463
-1.43721
-1.30909
-3.70418
3.86549
-0.161312
1.30005
-0.173332
-1.12671
1.02515
-0.427212
-0.597935
0.421244
-1.2778
-0.454759
1.71559
-3.37163
-3.36511
3.92576
-0.560647
-1.10683
2.6264
0.538204
-0.0819695
-0.456234
-0.422306
0.393508
0.0287983
-1.49919
1.60913
4.62669
-3.76887
-0.857825
-0.307382
-2.09955
2.40694
-0.870514
0.968471
-0.0979566
0.466265
-1.07495
0.608686
-3.90867
1.48403
2.42464
-0.0163931
0.0642248
-0.895145
0.659044
0.199315
-0.412392
0.213076
2.35783
2.74872
0.29015
0.248054
-0.144509
-1.17148
1.31599
-1.99087
3.15218
-1.16132
-0.123
0.48227
-0.35927
1.67781
-0.81044
2.84041
-0.912567
-1.92784
0.0287178
-1.61717
0.46462
3.3321
1.67748
1.16378
-2.84126
1.80192
-1.62733
-0.174586
-4.06424
0.727251
-1.62827
0.648327
0.979946
1.83401
2.38576
-4.21977
-2.49501
2.31913
0.279707
-3.61379
3.33408
-0.488511
0.849779
1.08825
-1.32756
0.239309
0.079466
-1.17776
1.19651
-0.773931
-0.422577
-2.63848
-0.817347
2.44121
0.482681
0.0452962
-0.527977
-0.445338
-0.0048882
0.696597
-2.83818
2.14158
0.972819
2.14746
-3.12028
1.51285
-2.82972
3.49047
-0.660747
-2.8575
2.20704
0.798438
0.462156
-1.54549
-1.12356
-0.985455
0.281068
0.704386
-3.40997
1.41911
2.6632
-2.97058
1.72351
2.46742
-1.14733
1.16681
-0.0194848
1.61425
-4.02695
2.4127
0.573763
-1.04738
0.473613
1.69904
-2.36114
-2.4993
-0.0720217
-1.19015
-0.150988
0.316566
0.504516
-0.821083
1.46302
-0.0757779
-0.136562
0.21234
3.98478
-2.15077
-1.81509
3.38694
-1.57184
1.02723
0.69956
-1.72679
-1.43512
0.946609
-0.7987
-0.186754
1.88774
0.858565
-0.802387
-2.90476
1.60734
-0.700112
2.47058
1.59045
0.661225
-3.60832
3.99569
0.516035
-1.87002
1.35398
-0.353918
-3.29194
3.64585
-0.778943
0.750294
0.0286491
-0.724209
-1.10716
-1.83671
4.49447
4.17176
-2.028
-1.73961
-0.235833
0.0588954
-1.63359
1.5747
1.61041
-3.92455
-0.530592
-1.84646
2.37705
-0.158953
0.00113023
0.157823
-2.59865
0.212098
2.38655
3.74677
-2.68987
-0.0925951
0.324389
-0.231794
-0.824105
-0.0464092
0.684152
1.38883
-2.07299
0.531142
-0.651803
0.120661
2.56257
1.43163
-3.9942
-1.50733
4.48343
0.363619
-0.00474103
-1.12001
-2.19325
3.31326
1.35241
2.83429
3.75401
-2.78119
-1.32982
0.854597
0.612403
0.657719
-1.80017
4.6163
0.573827
-3.08533
2.5115
3.54453
-0.568135
-2.9764
-1.97641
2.84974
-0.873329
1.569
-1.79592
-1.73428
3.53019
0.195582
-0.292876
0.0972937
-1.15854
-1.91709
3.07562
-0.0767644
-0.345542
0.0918698
-0.167133
2.0186
-3.17714
-2.82708
-0.843072
3.67015
-0.245484
-1.88946
2.13494
1.20424
5.1951
-5.32139
0.126287
0.806733
-0.581647
-0.225086
0.0333844
-1.18071
1.00555
0.914809
-1.22008
0.326221
-3.16578
4.03563
-0.869846
-0.477491
-0.154822
1.16724
1.4839
-3.50091
-0.987092
-0.432744
1.01359
-0.580847
2.13046
-0.540006
-0.78297
0.860352
-0.077382
0.331979
-1.06438
-4.64409
2.23615
3.70172
0.79923
-0.510496
0.976761
-0.771142
1.79837
3.30374
-1.58815
-0.802757
0.0197874
-0.403203
-2.39531
0.777229
0.889248
-0.839718
-3.66746
0.0641964
0.583648
0.81717
-0.243407
-3.75292
2.55471
1.19821
2.98139
0.537514
0.692626
-0.206091
-0.486536
1.06224
-0.989823
-0.0724147
-3.39208
1.22893
-3.99535
2.04407
-0.115162
0.670718
-0.555556
-0.233578
0.66941
-0.435832
4.2742
-0.00293022
-4.27127
0.720102
0.0483829
-0.768485
-0.528957
-0.966689
0.8515
-0.055801
1.19209
-1.19519
0.00310625
1.49104
-0.235887
-1.25515
-0.0411239
1.23321
3.29818
-2.56782
-0.119843
-0.533265
0.653108
-4.09486
0.929081
-0.197751
-0.535275
0.533531
-0.287438
0.770119
-0.0506983
0.0734868
0.933625
0.608827
-1.54245
1.76125
0.695994
1.77721
-1.26117
0.834391
-0.731004
0.23758
-1.23826
2.40616
-0.0330432
-2.37312
2.11499
-0.117443
-1.99755
-2.54141
-1.50015
-0.517229
-0.756568
1.2738
1.63018
-1.68986
0.0596793
4.30643
-0.0844041
-4.22203
-1.22058
-0.475421
1.696
-1.94514
2.57656
-0.631418
2.20702
2.5734
-4.78043
0.0229863
-1.12604
-1.02598
1.65708
-0.631097
0.80751
0.376531
-1.18404
-4.36249
2.30705
2.05544
-1.06026
-0.134937
-3.37631
0.549238
1.12818
-0.713443
-0.414741
1.96093
-2.44704
0.486115
-0.316931
-0.743174
0.765368
4.42974
3.26625
-0.525311
-2.74094
-3.41806
0.588337
1.31794
-2.11538
2.88568
-4.52583
1.64014
-0.354806
1.05335
-0.0739705
-1.47363
1.32912
-0.60684
0.802233
-0.571778
-3.17573
3.74751
1.69763
2.39765
-2.90017
3.09579
-0.195623
-0.256429
0.572996
-2.40062
-1.01388
-0.442889
0.490304
-0.0474146
1.37649
-1.03366
-0.342826
0.197401
-0.118485
-0.0789158
-0.242657
2.20359
-3.18677
-0.357736
3.54451
-3.05721
-0.933677
3.99089
1.87593
-1.36659
-0.509334
-0.859943
0.0996239
0.760319
-1.35298
-0.108779
1.46176
-3.99154
0.220058
3.77148
0.121854
0.683436
-0.80529
3.15485
-3.58563
0.430784
-2.07608
3.68752
0.0617461
-3.74927
0.0276396
-0.470529
-0.500824
-2.0915
2.59232
2.35706
-4.20471
-3.77984
3.28911
0.490726
0.639487
-0.108345
2.7219
-1.55466
-0.148829
-1.05268
1.20151
-0.0397982
0.649635
-0.609836
-0.786527
3.61168
-2.82515
3.18539
-1.66353
-1.52186
4.00986
-3.84835
-0.161519
3.15976
-1.1555
-2.00426
0.193002
-0.849803
0.656801
-1.08585
-0.045609
-3.86869
3.39159
0.477098
0.219581
-4.08827
-1.11057
1.95451
-0.843938
-2.36881
-1.8397
0.707794
-0.628171
-0.0796228
-3.20946
-0.885405
-0.670847
0.42884
0.242007
0.533795
0.524184
-3.6852
3.50854
0.176658
-0.829507
-0.862522
0.0560752
0.769162
-0.04906
-2.3831
0.544799
0.472919
-0.600916
0.127998
-3.10399
1.31356
1.79042
1.36429
-0.0642457
-0.983651
2.79736
0.172312
1.36659
0.127722
0.882152
-1.00987
-0.325162
2.15462
-2.35457
1.51471
0.839865
-1.12903
0.0687711
3.99061
-2.29298
3.46738
-1.85312
-0.984754
-0.55998
1.54473
1.66189
-3.37309
1.7112
2.16446
-2.40994
3.84829
-1.70464
-2.14365
-0.0207348
-1.98531
-0.369261
-3.80067
3.16854
0.632126
0.589229
-1.25883
4.25281
-4.17448
0.965022
1.4733
-0.0623995
-0.325256
-0.739257
0.562457
-0.0170847
-1.94225
-2.00389
4.877
-2.22009
-0.128021
1.33139
-1.20337
0.248336
0.776811
-2.59489
-1.51917
4.11405
0.980571
1.29265
0.00219311
-0.519432
0.517239
3.27187
-0.967652
-0.255319
1.22297
2.42897
-0.0228042
-1.4026
-4.00117
0.636059
-0.818864
0.0431989
0.775665
2.24857
2.97081
1.63704
-0.84284
-0.794197
3.87189
0.137977
2.36612
-3.3327
0.966586
-3.24752
-0.0885469
3.33607
-3.13007
4.05549
-0.925412
0.488635
-0.00392492
-0.48471
-1.78917
4.14623
-1.39715
0.590939
0.806212
0.160971
-3.06114
0.739299
-0.167459
-0.57184
-3.77367
4.9593
-1.18564
-0.924334
2.06383
-1.13949
4.64301
-2.0421
-2.6009
-0.0664427
-2.34157
2.40801
-1.19451
-0.133054
-2.03662
4.24365
1.63815
-2.69977
4.41657
-1.94853
-0.68108
0.561237
-3.44396
0.19644
4.76305
-2.02981
-0.0971789
-4.99481
0.894884
-0.0946305
1.2774
1.99458
-3.27198
2.15145
-0.459872
-1.69158
3.55526
-3.8154
0.260137
-0.653219
0.0406278
0.612591
-0.759374
-1.86833
2.62771
1.34033
-1.10275
-1.44374
0.52415
0.91959
0.433958
1.14929
-1.58325
0.307668
0.400125
-3.49294
4.13471
-0.641776
-0.567625
-0.211319
1.72099
0.789864
-2.51085
2.27436
1.89112
-4.16548
0.575519
1.91263
-0.0836032
4.15203
-0.00878389
3.12585
-3.11706
-0.124631
0.0016318
0.397402
0.210024
-0.607426
3.67075
-3.50997
-0.160775
1.76544
2.08285
-0.235608
0.244283
-0.00867582
-1.1653
3.2079
-2.0426
0.068266
0.561948
-0.630214
1.93756
-3.20997
1.27241
-2.02482
-2.19091
4.21573
3.34908
-0.697642
1.1923
0.959153
-1.64118
-0.40668
2.04786
1.07991
-3.17947
-0.850972
-0.523444
1.37442
0.718705
-0.319578
-0.399127
-0.14157
-1.05294
-0.316237
3.28665
-2.97042
-0.621677
4.42254
3.06571
-2.44615
-0.61956
2.4645
-2.16173
-2.0258
0.584187
1.44161
0.587762
-2.02497
-0.13546
0.287123
-0.151663
0.193276
0.49935
0.597737
2.90698
-3.50472
0.785032
0.706008
0.474108
-3.53132
-1.64394
0.683447
0.960489
-1.23376
-0.915313
2.14907
1.8121
-0.878473
-3.32236
2.21554
1.08321
-0.820773
-0.262434
-1.74136
3.20101
-1.45965
-1.67583
1.70454
-1.64023
2.13083
-0.4906
-2.15996
3.4229
-1.26293
-0.0841507
0.789936
-0.705786
-0.658628
0.42505
-1.09471
-2.26518
3.48787
-1.22269
-2.12087
2.63616
2.00442
-2.00076
-0.00365993
1.02812
-0.661013
-0.367108
-4.95688
3.35
1.60688
-0.150514
1.05413
-0.903619
0.137562
2.73224
-3.51876
3.17647
-1.51459
-1.44096
-2.04782
-2.80607
2.79728
1.97392
-0.0685251
1.56699
0.43846
-2.00545
-1.20804
1.10577
0.102268
0.612551
-0.701016
0.0884649
-0.38548
-1.32399
1.70947
-0.603574
1.87638
-1.2728
-2.97651
-1.04034
4.01685
0.473305
0.554815
3.11283
0.557921
-3.0665
2.10593
0.96057
0.936628
-1.75977
0.823147
0.0216802
0.608548
-0.823492
0.214944
-2.55626
-2.08937
1.70389
0.490829
0.729821
-0.536819
1.07747
0.299022
0.0230978
-2.18662
0.102785
1.02026
-0.489781
1.0391
-0.549319
-2.47217
-1.81766
4.28983
-0.287527
-1.35366
-1.96374
-0.43615
2.39989
0.49985
0.666103
-1.16595
-0.0400256
4.41679
-2.82604
-1.59075
0.667525
2.59872
0.372565
1.18616
-1.56915
0.382995
-1.69335
3.83233
-2.13898
-2.21215
-1.03753
3.24968
-1.70703
0.68105
-1.62455
-0.401246
4.43261
-1.86343
-2.56919
0.985499
-1.22657
0.241073
1.53183
0.168518
-1.70034
-0.584895
0.706749
1.21661
-1.51984
0.303232
1.47404
-0.0971402
-0.764469
-0.0465908
2.63528
1.79734
-1.44773
3.13852
-1.55622
4.14911
0.219713
0.765787
-3.39306
1.18091
2.81867
-2.43753
-0.363179
-2.42297
0.477828
0.745622
-1.85619
2.89737
-2.78018
3.22816
-0.102621
-0.734485
-0.380322
-1.05375
-0.291767
1.34551
-1.07595
-0.132375
2.91561
0.530783
-3.44639
0.131513
-0.977881
0.846369
0.0375819
1.22844
-3.10079
1.87235
3.44666
-0.291808
-3.63611
3.92539
-0.289281
0.832264
-0.476447
-4.28206
-0.674814
-1.20258
3.50053
-0.10894
1.56238
4.41917
-1.58859
-2.83059
-2.54627
-0.141621
2.68789
0.797537
2.04987
-2.84741
-2.72611
0.12746
-0.630246
-0.567683
1.19793
-1.83696
2.41078
0.482505
2.0586
-2.5411
-1.28578
1.26975
0.016029
-3.83605
0.485851
3.3502
1.24537
1.9311
-0.85114
2.27489
0.884873
-1.16983
-0.458439
3.08737
-3.58656
-1.1909
-1.38083
2.57172
0.989028
-0.966042
2.63107
0.198349
-2.82942
2.65516
-4.21139
0.0762226
-0.236749
-1.95181
2.51753
-0.56572
-2.53144
2.03061
-0.0598188
1.01094
-0.951119
-1.47386
0.449285
1.02457
0.849055
-1.57326
-0.964689
2.28263
0.50838
-0.623542
-0.544095
0.571734
0.312579
-1.21869
-0.164839
0.0269691
-0.706536
0.674621
0.0319144
0.722906
-0.827037
0.104131
-2.64018
1.74361
0.570253
-2.53399
-0.0330294
-0.998688
0.0950651
2.14922
-2.24429
1.18213
-1.26037
0.712484
-3.23334
2.52086
-1.08471
2.76048
-1.67577
0.735694
-3.44172
-0.319962
-0.0999635
-3.67988
2.16495
2.71205
-2.93674
-0.385623
-1.97207
-0.917508
-1.50712
0.632471
1.13042
0.0213865
-1.15181
4.68601
-2.43744
3.43357
-0.80735
-0.879787
-0.545701
1.42549
-4.53599
1.90349
2.6325
-1.60284
0.504171
0.0279447
3.65958
0.564908
-0.352797
-1.69922
-0.4772
-0.919952
1.29096
-1.35705
0.0660814
-0.481752
3.39736
0.464609
0.764944
-1.22955
2.61056
-5.07308
2.26845
2.80463
0.887132
0.728979
-1.61611
2.37145
-1.0886
-1.28286
-1.93564
1.01131
-2.4971
0.0648066
1.46702
3.53999
-3.89391
1.48181
-0.674302
-1.60248
2.68239
-3.66259
2.63541
1.02718
2.07891
-3.38014
1.30123
-2.75538
2.87297
-0.117597
1.69415
-2.01931
0.04379
0.930859
0.945066
0.418804
-2.79942
1.14899
-3.6924
1.9629
1.72949
0.902271
-3.44854
2.82454
-0.180566
-2.25542
0.458084
0.784595
4.00228
-1.32868
-2.6736
-1.17587
0.969053
-2.20281
0.541185
-3.77188
3.63026
-3.1479
1.35198
1.88912
-2.80629
1.48938
1.31691
-3.22796
2.10793
1.12003
-0.909345
-0.215872
0.0569196
-3.77706
2.65517
1.12189
2.37389
-4.16305
-3.45907
-0.0338677
4.46221
-1.57652
1.10049
0.284415
-1.38491
-0.0875994
-0.54332
0.63092
-1.11817
1.85635
2.08314
-1.72796
-1.07833
0.667448
0.67288
0.87546
1.31584
-2.1913
1.34406
-0.824816
-0.139632
-4.28238
4.42201
-1.22357
1.64944
-3.04216
-2.62707
-1.72666
4.35373
0.89801
-1.1551
-2.54623
0.781801
1.76443
-0.0305248
0.0532548
-0.0227301
3.39055
-3.96233
0.101559
-2.05337
1.76006
1.6734
-3.43346
-1.09013
0.962108
-3.09228
0.873484
2.21879
-4.03809
2.01327
2.18165
-3.875
1.97851
-3.16941
0.0114779
-0.0420027
-0.126842
3.67137
-2.32383
2.87014
-0.546306
3.66191
0.00236247
-3.66428
-2.67854
-0.0592422
-0.778374
0.195268
3.15675
0.385621
0.118756
1.11245
1.09086
1.58091
1.90041
-0.00209995
0.614651
-3.4539
-0.231291
-2.56401
1.1235
-2.77623
0.606881
0.700054
-1.30693
3.16364
0.129459
-3.2931
-0.366991
0.363066
-1.24226
-2.7531
-2.96231
-0.453918
-1.63047
4.28563
-1.27502
1.69933
-0.424306
-3.56086
1.08869
-1.00518
1.88064
-1.28094
-2.47198
-1.53397
-1.21999
1.23368
-1.94097
-1.16302
4.05534
-0.554806
2.40521
-1.16946
-1.23575
0.443812
0.416037
0.889616
3.88217
-3.60246
0.0268229
-0.801555
1.12066
-1.87271
1.93816
-1.65093
-1.89825
0.780019
0.605465
-1.38548
-3.41264
0.0606224
-0.453353
2.88681
-2.43346
-0.198216
-3.43789
-2.67822
3.20521
5.26349
-2.29902
-2.96448
-0.516486
1.16481
3.08578
-1.68908
-1.3967
0.919752
-1.01689
0.41335
-0.015948
-0.666217
0.0856477
0.580569
-0.413445
1.98044
-1.83428
4.20816
-0.131606
-0.496565
-0.979632
-0.265993
1.24563
-0.0936397
3.48419
0.0290685
1.7415
-1.77057
-1.39442
2.07857
1.6611
1.5468
-1.24244
-0.401492
1.88849
-0.698159
-1.19033
-0.29098
0.12707
0.16391
0.58202
-3.1099
2.52788
-3.4891
0.526794
0.773379
-1.67274
2.79624
-0.0319322
0.951684
0.410855
-1.68588
-3.80929
1.9478
-3.989
1.24555
-1.66753
0.16834
-1.60428
-2.12761
3.7319
-3.43088
0.285181
1.19414
-1.47932
3.79156
-2.85563
3.06045
-2.26291
0.603062
1.97412
-2.57718
0.842368
-1.47261
-2.54179
-0.542233
3.08402
0.0223275
0.596763
-0.61909
-1.73076
3.88659
-2.15583
3.05042
-1.91168
-1.13875
2.93066
0.101001
-3.03166
-2.13007
-2.94301
-1.20664
0.0164978
1.34529
2.25053
-0.072513
0.297592
-0.225079
-2.48613
-0.606151
2.79753
2.26292
-1.98693
2.35121
-0.364281
-1.27915
1.02383
-0.317851
1.3159
-0.998047
1.08295
-0.618345
-0.396286
-3.38078
-3.12047
0.965752
0.117454
-0.640875
0.627808
0.224873
2.82464
-3.04951
-1.87958
-0.503522
1.74747
1.13397
0.256361
-0.898444
-0.531532
0.739469
-0.207937
0.36327
-1.32301
0.95974
1.1004
0.982658
0.71885
3.05798
-1.4096
3.33877
-1.68933
-0.363611
-0.903267
1.26688
2.8284
0.296196
0.129696
-2.44847
1.6891
2.47122
-2.56486
-2.0545
-2.13256
4.18706
-2.46581
-2.07019
-4.25
4.42134
-0.171347
0.603372
-1.40361
1.11184
2.05127
1.00672
-0.504031
-0.231193
0.735224
-1.17339
-2.4228
-0.190049
-2.65267
2.84272
1.82279
-0.842221
0.450824
-1.3018
2.15189
-3.39415
1.7666
-1.30805
-1.83712
5.14258
-3.30547
2.25984
1.87994
1.05244
-2.93238
4.26327
-2.46093
-1.80233
-1.75259
-2.56159
4.33237
-1.77079
1.19966
1.20555
-0.989582
0.95765
1.58647
3.05654
-0.740546
0.652946
0.0543213
-0.130099
3.62625
-2.01298
1.70151
2.9845
-1.42171
0.732526
0.689188
0.760325
-1.74508
2.838
-0.206926
1.81982
-0.719328
-2.54934
-0.499359
3.0487
0.643206
-0.142163
-0.501044
0.464809
0.341924
0.544098
-3.67417
-0.976934
1.0564
2.65462
-2.29389
-0.360725
0.575003
1.31348
-0.483873
0.277782
0.85005
0.844258
-1.69431
-1.92734
4.03237
0.807947
-2.16798
4.385
-2.21702
-1.08421
1.51817
-1.17334
-0.112442
4.07744
-2.00596
-1.26387
1.22195
1.1495
1.04272
-1.07575
-0.621917
0.537766
-1.04386
-0.459803
0.0144648
1.98085
-0.517598
3.01696
-2.49936
0.336205
-0.136889
-1.39282
0.340137
-1.1129
-0.0937459
-3.46992
2.34991
0.823716
0.833361
-0.477328
-0.535653
1.01298
1.00736
0.271502
3.14951
1.62056
-4.77007
-0.284874
-0.0977075
0.382582
1.0708
-2.88589
3.45073
1.81276
2.90788
-2.683
-4.36176
0.386768
0.12237
-0.461882
1.73718
2.06988
1.94782
-4.0177
1.28429
-0.102165
-0.145417
-1.12873
-0.292987
-1.83109
-1.65705
2.24482
2.44132
0.945618
2.09501
-2.17759
0.0825815
0.653996
0.0206252
-0.23248
0.857197
-0.134291
2.84742
0.75655
-3.60397
1.29943
-0.0084643
-0.766346
0.455191
0.311155
-1.16799
-0.00581688
1.17381
1.21375
2.20363
-3.41738
0.80107
1.01103
2.55957
-0.0707175
-0.890816
3.02906
-1.9382
-0.162653
0.20375
-0.0410964
-3.67693
1.9996
3.10747
-2.50337
-0.604106
0.0577713
-0.489715
0.431943
3.14302
-3.45925
2.04336
-0.220567
1.33403
1.72642
-0.385335
-0.0744686
-1.60687
0.543192
1.06367
-2.22189
-0.411849
3.99346
-2.04222
-1.95124
2.01526
-0.34936
-1.6659
1.46127
-2.48579
1.02452
-0.153323
1.83082
-0.0363146
-1.21155
2.71619
-1.50464
-1.00138
-0.605487
-1.31904
-0.207488
0.972432
3.5943
-0.00634166
-3.58796
-1.13106
-0.948564
0.458783
0.192601
0.0516824
1.77678
0.740742
-0.672212
0.869612
-0.122242
0.317577
-0.562282
0.443467
-1.38647
1.98954
0.0577863
0.831462
-0.104122
-1.16109
2.75061
-0.218777
2.31379
-0.628059
-0.357387
-0.833698
1.68375
-0.695607
3.34128
-2.64567
-2.9726
-0.403715
-2.19954
3.4343
-1.23476
-1.18911
0.981626
1.05636
-0.214242
-0.0699667
-0.805819
0.875786
-2.97846
0.9725
0.317204
-0.409799
1.82768
-4.42257
1.34272
-3.53597
-1.25841
3.62606
-1.65698
1.74374
-0.899478
0.0414876
-2.29039
2.87241
-0.00782409
-0.508603
0.565294
-1.93189
-0.323258
-2.17717
2.50043
0.193226
1.63719
4.77918
-3.15398
-1.6252
-0.727099
0.257951
0.775088
0.0706393
-0.845727
-2.86258
0.538745
0.59991
0.118795
-0.0387185
-0.393013
0.431732
1.44751
-3.64705
0.299273
1.58252
0.110434
-1.69296
-3.69847
3.00287
0.501056
0.123321
-0.624377
1.1708
-3.43599
-0.431525
-0.0277484
0.459273
0.652575
-0.151519
-0.0657804
2.49768
-1.92216
2.14361
1.6944
-0.893333
-3.73857
1.1115
-2.37296
1.89153
0.481435
2.03788
-4.09238
-1.7432
-1.04661
2.78981
0.294973
1.32875
-0.995323
0.821991
4.10861
-0.615788
-3.49282
-0.0181874
-3.43572
2.69216
0.238498
1.43985
1.64593
-0.487735
-0.0316968
0.483661
-0.973733
-1.12505
0.273645
-0.336441
0.0627953
0.0187444
-3.70646
3.68772
-0.142315
0.947987
-0.805672
1.38882
-3.38725
1.99843
-0.419253
-1.89418
-0.140669
0.137084
2.36532
-1.15681
-0.648485
1.80529
-1.20688
-1.43159
1.48364
-0.878179
1.5113
-1.01934
-0.491963
-1.3083
0.830975
-2.73183
-0.457763
-0.0741437
0.531907
0.387875
1.06461
-1.45249
0.300202
-2.70623
2.40602
0.0182797
-1.87411
0.633504
-4.40717
-1.51658
-2.67614
4.19272
-3.3934
0.170785
3.22262
-4.5686
-2.79234
0.0369587
-0.918505
0.956071
-0.037566
-4.27074
-1.21823
4.06564
1.25255
-0.643721
0.273005
-1.1067
-0.560915
1.57194
0.482325
0.261984
-1.24162
0.0598843
-0.5216
0.461716
-0.572687
0.297062
-0.345569
0.40334
-0.871762
1.75889
-3.42278
2.12998
1.2928
-1.03486
1.04795
2.06864
0.618922
0.024284
-0.878544
0.374512
-1.66747
-0.878756
-1.82159
0.648694
1.1729
0.450801
0.882762
-1.33356
-1.32936
1.69263
-0.243483
2.4815
3.08109
-3.05202
1.94118
-3.14806
1.48832
-2.05159
0.563275
0.302066
0.022323
-1.17868
-0.0368166
-3.68746
2.08318
0.456926
1.55833
0.0443954
-0.656567
0.612172
-5.45503
2.24114
-0.406598
-0.158623
-0.630216
-0.0741595
-0.704009
0.778168
-1.87644
0.719633
-3.63938
3.2431
3.73445
-1.97439
-0.768316
0.691388
0.0769277
0.443125
0.570467
-0.470243
-3.68331
1.21074
2.47257
-0.439273
0.341565
-0.30537
1.0839
-0.778531
1.40117
0.642187
0.434281
-0.33335
-0.100931
-0.864325
0.922111
0.352169
0.38278
1.98731
-2.94774
3.60671
0.265176
-2.04421
-0.457769
3.33689
-0.0689716
-3.26792
-0.613402
0.275626
0.337775
1.93958
-3.88182
0.192372
1.38166
-1.57403
-0.0501632
-0.0279501
0.0781132
-3.28162
3.25743
0.0241938
-1.61289
2.32538
2.46406
0.72133
3.29557
-1.18545
-2.11012
0.029433
-0.139139
0.109706
-1.3255
-1.02992
-0.0559243
-0.992446
-0.0374781
0.0440748
-1.11384
1.06977
-0.30303
3.31924
-3.01621
-3.06458
1.19691
1.86767
0.96667
3.30753
0.128862
0.0438284
-0.172691
1.95621
0.854557
-2.81076
0.303457
0.826964
-1.42303
3.50268
-2.07965
-3.04023
0.490891
2.35538
0.945994
-2.68919
-0.00817775
-0.39322
0.401398
3.78245
-1.01245
-2.77
1.41365
0.71997
-4.09831
2.09442
3.96433
-4.10396
-1.77194
0.43434
1.3376
-0.214071
-0.319862
1.39901
-1.07915
-0.806367
0.48879
0.317576
-0.0373153
0.397326
-0.360011
0.180787
-0.304631
0.123844
-1.92088
4.07277
-0.970605
1.0295
0.438521
-0.743891
1.21311
-1.81899
0.605875
-2.1
-1.56258
-1.5792
0.226216
1.20074
-0.0130588
-1.18768
3.60642
0.167664
-3.77408
0.43175
2.22287
-0.761927
-0.446108
-1.90478
0.271191
1.79643
1.60481
-3.40124
-0.0160671
-0.0379475
0.0540146
-0.0804331
1.14267
0.180474
1.02328
-1.20375
3.88472
-1.66268
-2.22203
-3.81263
0.636898
1.22456
-2.58391
0.428337
2.15557
1.27021
-2.68089
-0.404668
-0.130607
-1.19795
0.0192763
-2.47502
3.52394
-1.04891
0.456628
0.10828
-0.279824
0.0897471
-0.781546
0.64994
-1.66964
1.19422
-2.04089
2.63952
-0.598637
2.42099
-1.37138
-1.0496
2.32322
-1.22282
0.768632
0.199839
-0.757009
0.625388
-0.0754843
-1.3002
1.27291
-2.93643
-2.72928
1.51772
-1.65479
1.54601
0.448783
0.203792
-0.0707392
0.020576
3.07208
-3.08768
0.0156026
2.86659
-1.65105
0.619138
1.03191
0.29931
-1.10087
-0.99486
-3.1086
-0.788505
0.646343
-0.537308
-0.909163
1.44647
-2.69522
0.57435
0.65605
1.40847
-2.06452
0.357896
-0.335569
-0.945365
-2.20199
4.0931
-0.229504
-2.23466
0.882588
-1.7106
0.82801
-0.840135
1.0965
-2.08046
-3.37457
-0.312373
-1.16148
2.2891
-3.61308
3.16818
0.444898
-0.0559984
-1.02703
0.060963
-1.12754
1.06657
-3.38394
-1.66133
-0.501814
0.474065
3.50576
1.70982
0.97089
2.86525
-2.66173
-1.84085
3.16769
-0.164215
-3.00348
2.40399
-2.38089
4.3257
-2.8658