/*--------------------------------*- C++ -*----------------------------------*\
| =========                 |                                                 |
| \\      /  F ield         | OpenFOAM: The Open Source CFD Toolbox           |
|  \\    /   O peration     | Version:  2306                                  |
|   \\  /    A nd           | Website:  www.openfoam.com                      |
|    \\/     M anipulation  |                                                 |
\*---------------------------------------------------------------------------*/
FoamFile
{
    version     2.0;
    format      ascii;
    arch        "LSB;label=32;scalar=64";
    class       surfaceScalarField;
    location    "4";
    object      phi;
}
// * * * * * * * * * * * * * * * * * * * * * * * * * * * * * * * * * * * * * //

dimensions      [0 3 -1 0 0 0 0];

oriented        oriented;

internalField   nonuniform List<scalar> 
20045
(
0.25163
-0.276072
0.0244421
-0.539641
0.187981
0.351659
0.160426
0.889691
-1.05012
0.0563324
-0.0805992
0.0242668
-0.424931
0.415126
0.00980465
-0.279484
1.09638
-0.816901
-0.51349
0.224151
0.289339
0.035609
0.218683
-0.254292
0.23728
0.215069
-0.452349
-0.413861
-0.0619358
0.475797
0.275339
-0.0429529
-0.232386
1.13264
-0.56027
-0.572374
0.185484
-0.184702
-0.000782704
-0.647878
0.544226
0.103653
-0.167326
0.538498
-0.371172
-0.550461
0.136599
0.0977732
0.0719005
-0.169674
0.452893
-0.343209
-0.109684
-0.848449
1.24485
-0.396399
-0.380273
0.0274268
0.352846
0.199673
-0.181532
-0.018141
0.0646803
0.120804
-0.0637822
-0.475858
0.258299
0.442138
-0.700437
0.428914
0.0937804
-0.522695
-0.472654
0.730953
-0.306113
0.320347
-0.0142336
-0.570271
1.09906
-0.528784
0.879125
0.115006
-0.994131
-1.05342
0.599926
0.453489
-0.0637293
-0.177241
0.24097
0.728599
-0.512119
-0.21648
-0.42312
0.746078
-0.322958
1.11415
-0.648646
-0.465505
-0.281902
0.317511
1.09936
-0.541066
-0.558291
0.729013
0.12003
-0.849043
-0.0309273
0.189312
-0.158384
-0.995058
0.383489
0.611569
0.309982
0.256203
-0.566185
0.0261195
0.199804
-0.225923
0.0657877
-0.095338
0.0295503
1.07754
-1.07789
0.000345577
0.746202
-0.26277
-0.483432
0.335006
0.411196
0.533333
0.599311
-0.0044105
0.263454
-0.259043
0.626907
0.287136
-0.914043
0.930983
-0.20197
0.0611836
0.91637
-0.977553
0.650008
-1.09966
0.449655
0.917415
-0.682805
-0.23461
-0.599413
-0.457836
1.05725
-0.0449742
-0.155677
0.200652
0.434824
-0.104515
-0.330309
-0.351864
-0.0730671
0.0413379
0.741633
-0.782971
0.82636
0.0354902
-0.86185
0.397473
-0.820593
1.06609
-0.719585
-0.346506
0.293565
0.0240113
-0.317576
0.429936
0.636156
0.422605
-0.932798
0.510193
0.162594
0.0370796
0.355377
0.0914688
-0.446846
0.824834
0.124386
-0.94922
-0.0252777
0.087734
-0.0624563
-0.341071
0.080718
0.260353
0.429691
-0.192411
0.922831
-0.938964
0.016133
-0.0523241
0.0270464
-0.0589834
0.493807
-0.12971
-0.520983
0.650693
-0.0164473
-0.0936732
0.11012
0.914827
-0.157803
-0.757024
0.693842
-0.652504
-0.0292226
0.944049
0.217684
-0.385009
-0.245766
-0.0492332
0.294999
0.245362
-0.586867
0.341505
0.521063
0.609024
-1.13009
0.458555
-0.352976
-0.105579
0.811482
-0.388878
-1.16228
0.216665
0.945616
0.00754012
0.244089
-0.270986
0.315541
-0.044555
0.500971
-0.468297
-0.0326736
-0.804426
0.0370074
0.767419
0.521005
0.0803453
-0.60135
-0.437551
0.395902
0.0416485
-0.735041
-0.110138
0.845179
0.3678
-0.063317
-0.304483
0.203614
-0.295199
0.0915847
-0.0747852
-0.415487
0.490272
0.300398
-0.317235
0.0168372
0.748177
0.203564
-0.951741
-0.250199
-0.0559143
0.00894917
-0.117333
0.108383
0.61782
-0.307839
0.0861209
0.166263
-0.252384
0.74366
0.355696
-0.242767
-0.405112
-0.144307
0.153256
-0.139151
0.965511
0.00604603
-0.277032
-0.242228
0.328349
0.225449
0.60384
-0.829289
0.61347
-0.901869
0.2884
-0.250176
-0.21021
0.18335
0.0268602
-0.099306
0.126759
-0.0274528
0.630572
-0.458144
-0.172428
-0.251944
0.20697
0.662544
-1.07583
0.413289
-0.0891471
0.162637
-0.0734899
0.0230606
-0.123333
0.100272
0.589729
-0.160815
0.826642
0.287509
-0.587508
0.457798
0.698301
-1.0127
0.314396
0.303184
0.14971
0.230061
0.063504
-0.392636
0.321017
0.0716194
-0.381588
0.0473647
-0.296354
0.248989
0.664802
0.252612
0.563884
-0.71778
0.153896
0.814002
0.0844492
-0.898451
-0.995162
0.770542
0.224619
-0.20391
-0.337911
0.541822
0.97372
-0.308918
-0.106804
0.370258
0.068484
-0.103386
0.034902
-0.046675
0.0194293
0.0272456
0.570424
0.402193
-0.972617
0.605777
-0.577988
-0.0277884
-0.177959
0.102339
0.0756207
-0.150862
-0.0593474
1.13364
-0.435341
-0.328377
0.352138
-0.023761
0.626345
-1.04032
0.413976
0.198619
-0.798032
0.572916
0.233284
-0.806199
0.643797
-0.398434
0.972681
-0.132296
-0.840386
0.192222
-0.772725
0.580504
1.10725
-0.918499
-0.188746
-0.135689
0.235889
-0.100201
0.0101002
0.996047
-1.00615
1.07303
-0.193901
-0.825448
0.0269956
0.798453
-0.480396
0.421047
0.0593492
1.02202
-0.50096
0.173687
0.284868
-0.63832
0.770439
-0.132119
-0.723782
0.884208
0.0107285
-0.153676
0.142947
0.0292279
-0.0434043
0.0141764
-0.0153027
-0.191938
0.207241
0.923907
-0.0972157
-0.826692
1.2875
-0.633191
-0.654309
-0.224907
0.209605
0.361495
-0.686104
0.324609
0.0774618
-0.0116741
-0.821956
-0.4917
0.688455
-0.196755
-0.671387
0.500811
0.170576
-0.0119823
-0.0277977
0.03978
0.266434
0.840812
-0.0526906
0.00601566
-0.00470934
0.0731934
-0.701671
0.0633511
-0.734365
0.932748
-0.198383
-0.66141
0.762768
-0.101358
-0.606909
-0.424901
1.03181
-0.0789975
-0.154286
0.233284
0.44807
-0.483073
0.035003
0.797602
0.126904
-0.924506
0.0143444
-0.758003
0.743659
-0.37138
0.944296
0.200601
-0.549454
0.348853
-0.405127
1.06767
-0.838194
0.548029
0.290165
0.0247694
-0.0485777
0.0238083
0.383722
-1.12263
0.738908
-0.889093
0.318822
-0.618658
-0.405921
0.995406
-0.617722
-0.377685
-0.26934
0.29546
0.124333
-0.131362
0.00702931
-0.773683
-0.190812
0.964495
-0.804743
1.13274
-0.327994
0.937195
-0.649313
-0.287882
0.0786572
-0.252221
0.173564
-0.224631
-0.499905
0.724536
0.0714963
0.203842
-0.458866
0.254955
-0.65526
-0.220462
0.875721
0.0903535
0.0250919
-0.115445
0.114993
-0.606693
0.159757
-0.223486
0.863671
-0.0496684
-0.141774
0.110846
-0.130518
0.159076
-0.0285582
-0.0855388
1.00945
-0.77069
0.546059
0.323356
-0.0142132
-0.309143
-0.698221
0.129286
0.568935
0.328982
0.608214
1.17061
-0.78689
0.690447
-1.14752
0.457073
0.22849
-0.699306
0.470816
0.0284558
-0.408729
-0.48873
0.714179
0.660971
-0.940456
0.255393
-0.678456
0.423063
-1.14461
0.637998
0.506609
-0.0263285
-0.411222
0.181145
0.145271
-0.326416
0.693557
-0.189234
-0.504323
0.264037
-0.686923
0.697023
-0.257545
-0.0708321
0.63224
1.11482
-0.920698
-0.194118
-0.0109409
-0.129444
0.140385
0.673819
0.100153
-0.773973
0.176972
0.0932439
-0.270216
-0.0919783
0.612299
-0.520321
-0.0592239
0.560195
0.57247
-0.371869
-0.056675
0.155181
-0.0985063
0.86556
-0.239215
0.0916121
-0.00778501
-0.0838271
0.149995
0.0402715
-0.190267
-0.104935
0.108803
-0.00386867
0.992276
-0.645474
-0.346801
0.232378
-1.03712
-0.114586
0.00965126
-0.88065
0.284261
0.596389
1.03705
-0.290973
0.24575
-0.980115
1.26163
-0.58723
-0.674397
-0.0118693
0.102223
0.869212
-0.344825
-0.524387
-0.617119
0.145361
0.471758
-0.96418
0.966875
-0.00269505
0.273216
-0.763474
0.490258
-0.0444204
-0.0178516
0.0622719
-0.481406
0.630156
-0.148751
-0.0383007
-0.0701922
0.108493
-0.147943
0.058796
-0.115216
0.0159099
-0.629163
-0.272706
0.44696
-0.745159
0.298198
0.28801
-0.238827
-0.0491825
0.412776
0.315823
0.599405
-0.344012
0.00510087
0.024127
0.63742
0.39963
-0.49906
0.0185312
0.480529
0.257357
0.611855
0.383906
0.154592
0.248489
0.0395206
-0.28766
-0.0201713
0.307832
-0.0434494
0.0682189
-0.65238
0.560402
-0.197556
0.272346
-0.0747894
-0.899581
0.85894
0.0406411
-0.413353
0.625978
-0.212625
-0.217064
-0.113846
0.33091
0.763699
-0.829028
0.0653289
-0.687256
-0.457352
1.3008
-0.856434
-0.444367
-0.0946615
0.0837206
0.853918
-0.580701
-0.329611
0.776571
-0.0909588
-0.257466
0.348425
0.819507
-0.110894
-0.708613
1.15555
-0.115249
-1.0403
-0.386591
0.295632
0.830343
-0.483883
-0.34646
-0.162236
0.782804
-0.620568
0.573392
-0.734968
0.161576
0.112458
-0.276292
0.163834
0.375425
-0.0818219
-0.293603
1.1773
-0.925915
-0.251388
-0.53003
-0.465132
0.791051
0.323765
-0.817479
-0.0821013
-0.0465402
0.196535
0.176951
-0.803197
0.626246
0.00419914
0.120134
-0.53996
1.11038
0.362516
0.62976
1.08702
-0.678525
-0.408497
-0.761306
0.540844
0.772532
-1.20887
0.43634
-0.626381
-0.0416669
0.668047
-0.233237
-0.177634
0.410871
0.577114
-0.215619
0.0579012
0.265455
0.237052
-0.0268095
-0.485309
-0.711818
0.992565
-0.280747
-0.149749
0.0192304
-0.0602476
0.0035726
0.118883
-1.08306
0.489663
-0.548887
0.157299
-0.225848
0.315714
-0.0898657
-0.00290187
0.0592343
-0.516891
0.372504
0.144386
0.352444
0.278128
-0.397054
0.659298
-0.262244
0.491325
0.114452
-0.642566
0.819517
0.580671
-0.0596662
-0.198569
-0.499651
0.96242
-0.697925
-0.264496
0.944863
-0.912878
0.29289
0.619988
0.79791
-0.864002
0.066092
-0.430591
0.355805
-0.118634
-0.0593253
-0.12023
-0.614811
0.283767
-0.546433
0.262666
0.422508
0.407835
0.769919
-1.10886
0.338944
0.224434
-0.539394
0.31496
-0.972984
0.168558
0.00946616
0.358334
-0.58256
0.888168
-0.305607
-0.259766
0.311361
-0.0515948
-0.406364
-0.107126
-0.131915
-0.223725
0.35564
0.086086
0.000780462
-0.0868665
-0.333465
-0.146931
0.371148
0.447777
-0.818925
0.82955
-0.572193
0.31004
-0.451175
0.0205842
0.464957
-0.240523
-0.670441
-0.167753
-0.0747798
-0.00127381
0.0760536
0.975853
-0.348946
-0.453289
0.750374
-0.297084
-0.119202
0.139631
-0.0204289
0.746611
-0.0530542
-0.231679
-0.571519
-0.498418
0.919651
-0.421233
0.693114
-1.13429
0.441173
0.551807
0.748994
0.268867
-0.215591
-0.0532756
0.0887614
-0.715142
0.6885
-1.04445
0.355952
0.138636
-0.155083
-0.0710137
0.634898
-0.0732025
0.562866
-0.468886
0.697376
0.190501
-1.03895
-0.907015
0.494172
0.412843
0.645166
-0.104365
-0.540801
0.935806
-0.172107
-0.415417
-0.537105
-0.484422
0.441548
-0.186168
-0.144176
0.330344
0.320524
-0.293097
-0.713366
0.642352
0.853072
0.224471
-0.786383
0.333094
1.1164
-0.325353
0.125296
-0.0812418
-0.0440544
-0.00312067
-0.608445
0.611565
-0.901889
0.170038
0.731851
0.72966
-0.72966
-0.255392
0.853147
-0.597755
0.359338
-0.756392
0.670453
-0.411314
-0.259139
-0.924636
0.955395
-0.0307596
0.341001
-0.0467334
-0.294268
0.264757
-0.107652
-0.157105
0.112762
-0.329826
-0.292972
0.480601
-0.810212
-0.839013
0.994486
-0.155473
-0.287438
0.658586
0.0437853
0.00446883
-0.0482541
-0.11425
0.208891
-0.0946413
-0.379829
0.408285
1.02474
-0.826542
-0.198196
-0.0940597
-0.519892
0.613952
-0.23538
0.253352
-0.0179722
0.12387
-0.280044
0.156174
-1.05358
0.438558
0.615021
-0.0589878
-0.0216114
0.106392
0.0189043
0.0393783
-0.0218877
-0.0174906
0.492174
0.685129
0.0211079
0.0226774
-0.0600165
-0.287799
0.347815
-0.49372
0.791262
-0.297542
-0.00682595
0.0765916
-0.0697656
0.434741
-0.210591
0.801507
-0.0647555
-0.736751
0.00256471
-0.418052
0.0292832
0.768319
0.422716
0.304753
-0.727469
0.467456
-0.415722
-0.0517338
-1.01297
0.187521
-0.431888
0.190548
0.241341
0.408614
0.532883
-0.941497
-0.62786
0.586193
0.0458945
-0.914722
0.868828
-0.129729
0.208387
0.0148828
-0.0305441
0.0156613
0.0209825
-0.308643
0.0799062
0.00361216
-0.0835184
-0.67794
-0.20271
0.618185
0.110672
0.0447876
-0.155459
-0.126648
0.00744516
0.167023
-0.708734
0.54171
0.201484
0.546533
-0.748017
0.316881
-0.71127
0.858675
-0.147406
-0.723174
0.560937
0.136452
0.183894
-0.400889
-0.270498
-0.257405
0.0641479
0.193257
-0.863462
0.369742
0.662555
-0.756615
0.384347
0.732057
-0.300348
0.305111
-0.00476329
0.335997
-0.839282
0.503285
0.15175
-0.269078
0.117328
0.554031
-0.78571
-0.643219
-0.0181912
-0.31396
-0.0271104
0.0369688
0.248893
-0.285862
0.337482
-0.000574144
-0.0338118
0.0343859
0.878047
-0.469433
-0.798602
0.837051
-0.0384489
0.259595
0.183364
-0.442959
-0.371872
0.242142
-0.217667
-0.0397383
0.37177
0.298683
-0.25975
-0.752947
0.0474108
-0.122191
0.6148
0.417542
0.163129
-0.866847
0.928031
0.0865888
-0.454008
0.367419
-0.0852794
-0.828272
0.913552
0.0476379
-0.0517439
0.00410608
0.222086
-0.301084
-0.177726
0.751117
0.81941
-0.627188
-0.428701
-0.0881897
0.00719724
-0.410177
0.40298
0.405064
-1.01197
-0.107943
-0.480283
0.588226
0.0370424
-0.13947
0.102427
-0.652139
0.0537349
0.598404
0.960848
-0.673712
-0.0157769
0.0855325
-0.0697555
-0.214718
-0.0206621
0.181779
0.354886
-0.536665
0.0961541
-0.121834
0.0256799
0.643878
0.374358
-1.01824
-0.40168
1.14986
0.0828531
0.00323292
-0.25557
-0.57099
0.82656
0.401527
0.732116
0.900618
-0.699135
-0.353445
0.22153
0.289796
0.0856284
-0.398228
1.17076
0.135266
-0.76761
0.632344
0.940207
-0.142018
-0.79819
-0.453685
0.711924
-0.258239
0.403674
-0.351614
-0.489004
0.840618
-0.0739315
0.013474
0.0604574
-0.285479
-0.484
0.769479
0.0850835
-0.199334
0.0346754
-0.0466576
0.506082
-0.791561
-0.706531
-0.207432
0.913963
-0.0689064
-0.473883
0.542789
0.094203
1.14065
-1.16662
0.0259771
0.212305
-0.148375
-0.0639299
0.00833434
-0.308682
0.262893
0.227379
-0.316492
0.0832546
-0.812684
1.01627
-0.203588
0.0270157
-0.224572
0.362874
0.280923
-0.830584
-0.247304
-0.0747394
0.337766
-0.263026
0.538784
-0.121243
-0.197233
0.217992
-0.0207583
-0.133224
0.0949237
-1.16501
0.54635
0.923313
0.173072
-0.128261
0.252132
-0.203879
0.463474
0.79846
-0.317859
-0.205752
0.00851844
-0.0953722
-0.617994
0.23477
0.207304
-0.196575
-0.918721
0.0168319
0.0751969
0.211308
-0.0595578
-1.00255
0.634219
0.368333
0.774952
0.147879
0.190277
-0.0639614
-0.126316
0.27786
-0.261236
-0.0166239
-0.843349
0.302284
-1.01912
0.520698
-0.259491
0.217202
0.0422882
0.0042565
-0.0523042
0.0480477
1.04711
-0.00546026
-1.04165
0.141315
0.00788142
-0.149196
-0.133111
-0.259525
0.226925
-0.0233105
0.103697
-0.121015
0.0173173
0.38824
-0.0605881
-0.327652
-0.0535738
0.157271
0.849271
-0.645707
-0.0280791
-0.144049
0.172128
-1.01258
0.199894
-0.0336949
0.0226112
-0.166918
-0.109472
0.220144
0.00400673
0.00109414
0.247133
0.154251
-0.401384
0.423712
-0.0683348
0.427248
-0.340659
0.191368
-0.168307
0.064995
-0.324761
0.595688
-0.0464695
-0.549219
0.540175
-0.040731
-0.499444
-0.60108
-0.171645
0.118242
-0.0767017
-0.0415406
0.387973
-0.446454
0.0584808
1.10633
-0.0391753
-1.06715
0.0631321
-0.166621
0.103489
-0.491679
0.656326
-0.164647
0.49059
0.605114
-1.0957
-0.31029
0.334302
-0.26123
0.430711
-0.169482
0.217077
0.0913633
-0.308441
-0.912517
0.442861
0.469656
-0.124565
0.00354987
-0.842791
0.13626
0.303422
-0.1847
-0.118722
0.470202
-0.610258
0.140055
-0.0853055
-0.190766
0.170529
0.970116
0.820638
-0.138848
-0.68179
-0.834266
0.122997
0.342071
-0.54064
0.678464
-1.0889
0.410432
-0.101029
0.282174
0.0186678
-0.39945
0.339434
-0.162563
0.209928
-0.114274
-0.760073
0.874347
0.379365
0.474552
-0.74277
0.774714
-0.0319439
-0.195196
0.232165
-0.657064
-0.25911
-0.113372
0.127053
-0.0136807
0.181053
-0.335172
0.154119
0.022203
0.0139852
-0.0361882
-0.0870587
0.557261
-0.821582
-0.124004
0.945586
-0.734262
-0.242551
0.976813
0.476138
-0.35725
-0.118889
-0.165915
0.0191157
0.1468
-0.0693212
-0.197323
0.266645
-0.9841
0.0380827
0.946017
0.0236194
0.187185
-0.210805
0.800907
-0.897953
0.0970457
-0.508832
0.504326
0.101138
-0.605464
0.0123647
-0.125737
-0.219929
-0.396144
0.616073
0.62456
-1.02969
-0.948821
0.823652
0.125169
0.111595
-0.015441
0.650714
-0.28784
-0.0582231
-0.241596
0.299819
-0.00818287
0.122229
-0.114046
-0.305479
0.923465
-0.617986
0.619297
-0.760523
0.141226
1.02944
-0.972109
-0.057328
0.797099
-0.337502
-0.459596
0.0409955
-0.222132
0.181136
-0.289134
-0.00721959
-0.939891
0.828133
0.111759
0.0569786
-0.99687
-0.59479
0.804867
-0.210077
-0.57985
-0.346066
0.185746
-0.16117
-0.0245769
-0.792069
-0.220509
-0.177263
0.11811
0.0591526
0.256496
-0.079524
-0.896214
0.853956
0.0422574
-0.199472
-0.114882
0.0212087
0.152594
-0.0112789
-0.600279
0.118874
0.131179
-0.157186
0.0260064
-0.441908
0.360219
0.0816883
0.356739
-0.0157374
-0.255627
0.627379
0.119232
0.367387
0.0794926
0.280222
-0.359715
-0.110719
0.558789
-0.612285
0.388821
0.223464
-0.0914173
-0.0331472
0.84668
-0.467315
0.703236
-0.367238
-0.231765
-0.174674
0.406438
0.324727
-0.769992
0.445265
0.543719
-0.612625
0.98943
-0.431535
-0.557895
-0.00372593
-0.512011
-0.100274
-0.780638
0.992588
-0.21195
0.0370005
-0.26751
0.957957
-1.05871
0.266642
-0.106537
0.218995
-0.110568
-0.316968
0.111784
-0.00298108
-0.491404
-0.521519
1.15757
-0.463728
0.321221
-0.117959
-0.203262
0.0620164
0.20274
-0.663624
-0.365508
1.02913
0.238042
0.339072
-0.00512515
-0.138103
0.143228
0.820047
0.0236773
-0.0454277
0.0217504
0.5546
0.0410882
-0.363667
-1.01479
0.17578
-0.204796
0.00878815
0.196008
0.568308
0.693319
0.263688
0.0658316
-0.329519
0.972445
0.0569917
0.592022
-0.840961
0.24894
-0.82858
-0.00386526
0.832446
-0.764967
0.99412
-0.229153
0.133932
-0.00615039
-0.127782
-0.39042
1.01498
-0.012931
0.246665
-0.233734
0.0243809
-0.767151
0.151672
-0.0188782
-0.132794
-0.916807
1.18746
-0.270656
-0.243538
0.537022
-0.293484
1.16214
-0.511608
-0.650529
0.00445562
-0.599373
0.594918
-0.0336533
0.00310919
-0.477526
0.968116
0.56064
-0.816032
1.09991
-0.406793
-0.179216
0.151137
-0.862503
0.0339224
1.17382
-0.403906
-0.0256728
-1.13661
0.221955
-0.0221509
0.265522
0.542786
-0.808308
0.546976
-0.125287
-0.421689
0.678392
-0.975935
0.297543
-0.123515
0.00944602
0.114069
-0.200657
-0.466924
0.667581
0.349112
-0.284117
-0.468543
0.174929
0.293613
0.140562
0.279722
-0.420283
0.0765964
0.10915
-0.855496
1.00727
-0.151771
0.0520839
-0.00444608
0.444275
0.199715
-0.64399
0.491237
0.387639
-0.878876
0.152462
0.492704
-0.0189328
0.991614
0.00251542
0.784505
-0.787021
-4.06994e-06
-0.00682188
0.0354851
0.0853747
-0.12086
0.699572
-0.640788
-0.0587836
0.447082
0.542348
0.0624376
-0.0985373
0.0360998
-0.280453
0.804452
-0.523999
0.0117603
0.150302
-0.162062
0.358383
-0.713683
0.3553
-0.572713
-0.238726
0.811439
0.812294
-0.138474
0.297092
0.249884
-0.463626
-0.0861048
0.549731
0.290088
-0.80998
-0.250787
0.323794
-0.073007
0.181393
-0.0738109
-0.107582
-0.0303979
-0.00325542
-0.0775768
0.66885
-0.591273
-0.117591
1.03396
0.768977
-0.624428
-0.14455
0.624916
-0.544571
-0.532325
0.168278
0.364047
0.0414353
-0.452749
-0.185646
0.140024
0.0456212
0.0589971
0.13128
0.137774
0.73515
-0.872925
0.204995
0.183245
0.121027
-0.85529
-0.422159
0.172404
0.249755
-0.313508
-0.240186
0.553694
0.470989
-0.223856
-0.840486
0.553049
0.311285
-0.256487
-0.0547975
-0.491279
0.775911
-0.284632
-0.438244
0.440809
-0.425061
0.552331
-0.12727
-0.642831
0.898683
-0.255852
-0.0206263
0.194265
-0.173638
0.082802
-0.0785455
-0.320073
-0.629366
0.950047
-0.320681
-0.543909
0.673195
0.501236
-0.513758
0.0125218
-0.0111116
-0.204896
0.216008
-1.11542
0.810801
0.304619
-0.0221566
0.0101552
0.0120014
-0.023052
0.594442
-0.899921
0.714497
-0.38977
-0.370298
-0.536717
-0.696658
0.699174
0.497962
0.00284925
0.371857
0.149976
-0.521833
-0.319757
0.298213
0.0215444
0.320215
-0.269645
-0.0505701
0.109085
-0.419999
0.310913
-0.213816
0.506256
-0.29244
-0.75511
-0.216992
0.972102
0.179566
-0.190678
0.55807
0.141502
-0.89235
0.689614
0.202736
0.341008
-0.127111
-0.213897
0.003244
0.173366
-0.222236
0.0488709
-0.652052
-0.351166
0.460252
0.128807
0.192224
-0.151229
0.306774
-0.125722
0.172014
-0.509926
0.0323062
0.268091
-0.304228
0.228368
0.0758598
-0.572605
-0.446992
1.0196
-0.0873007
-0.376326
-0.513891
-0.0794091
0.5933
0.131142
0.173086
-0.304228
-0.0114939
1.12927
-0.738986
-0.39028
0.168312
0.652326
0.0571832
0.441893
-0.408611
-0.0332822
-0.292131
0.769887
-0.477756
-0.568656
-0.230098
0.798754
-0.442583
0.181354
-0.410622
-0.121704
0.956176
-0.43992
-0.516256
-0.160117
-0.0312959
0.191413
0.384684
0.0516825
-0.436367
-0.16184
0.185459
0.0129845
0.134893
-0.147877
0.102181
-0.0210749
-0.203832
-0.00683888
0.520586
0.43559
-0.478082
0.861571
-0.322219
0.922145
-0.196524
0.0364065
-0.838291
0.269635
0.714652
-0.625891
-0.100667
-0.616183
0.124504
0.117158
-0.711948
0.701058
-0.704178
0.818138
-0.0202273
-0.187523
-0.107676
-0.277106
-0.0802544
0.35736
-0.28809
-0.0291448
0.714228
0.141223
-0.855451
0.0270999
-0.248183
0.221083
0.00968026
0.315575
-0.918753
0.603178
0.860619
-0.0597122
-0.894272
0.932044
-0.0377716
0.209411
-0.128693
-1.02029
-0.0951296
-0.335329
0.859408
-0.0312758
0.307181
1.11264
-0.42288
-0.689758
-0.610071
-0.0607492
0.67082
0.122979
0.519056
-0.642036
-0.686328
0.0341889
-0.171496
-0.140938
0.312434
-0.463982
0.599248
0.139572
0.506932
-0.646505
-0.639409
0.216013
0.423396
-0.926877
0.0951316
0.831745
0.215341
0.499156
-0.220722
0.531296
0.265803
-0.292816
-0.139072
0.728354
-0.86065
-0.0560263
-0.33994
0.395967
-0.434783
0.124493
0.667949
0.0409866
-0.708935
0.614314
-0.936533
0.00700516
-0.0514255
-0.554617
0.893014
-0.338398
-0.600999
0.38107
-0.0135214
0.265121
-0.2516
0.0635554
-0.20646
0.142905
0.258064
-0.0359776
-0.240433
0.582504
-0.037059
-0.222432
-0.144051
0.156416
0.320446
-0.227203
-0.0437081
0.0258566
-0.175627
0.169772
0.00585504
0.193924
-0.217194
0.0232706
-0.706046
0.548243
0.110981
-0.624872
-0.0110658
-0.258274
0.0201013
0.535454
-0.555555
0.309256
-0.329427
0.28107
-0.790299
0.50923
-0.343349
0.660534
-0.317186
0.23992
-0.951738
0.0553019
-0.0259284
-0.922893
0.457459
0.70011
-0.734646
-0.105841
-0.656662
-0.256217
-0.395645
0.17192
0.212057
0.109394
-0.321451
1.12975
-0.56144
0.907665
-0.219165
-0.222219
-0.146874
0.369094
-1.03685
0.410358
0.626496
0.223705
-0.266658
-0.0864049
0.590731
0.150965
-0.0862845
-0.499458
0.227322
-0.240253
-0.266749
0.32148
-0.054731
-0.108274
0.822502
0.179678
-0.154426
-0.0252527
0.846922
-1.26797
0.587243
0.680725
0.229833
0.189061
-0.418894
0.484002
-0.113489
-0.370513
-0.503092
0.259554
-0.367397
0.00840881
0.376275
0.885875
-0.971155
0.386934
-0.169856
-0.3856
0.675688
-0.975634
0.69389
0.281744
0.392526
-0.748154
0.355628
-0.686654
0.724743
-0.0380895
0.408045
-0.518764
0.0136846
0.227944
0.248194
0.0430773
-0.629944
0.190344
-0.890588
0.404243
0.486345
0.239714
-0.849785
0.732815
-0.0472937
-0.569825
0.134219
0.196459
1.01555
-0.336257
-0.679289
-0.402193
0.256087
-0.569595
0.14294
-0.950681
0.889931
-0.727561
0.375947
0.468766
-0.7122
0.776758
-0.0645583
-0.885525
0.594111
0.291414
-0.278289
-0.0927403
0.129783
-0.98448
0.685414
0.299065
0.610881
-1.0013
-0.838205
-0.017291
1.08557
-0.407107
0.329586
0.124367
-0.453953
-0.0198729
-0.125464
0.145337
0.0015207
0.484917
0.526816
-0.804782
0.0925822
0.169937
0.179175
0.226969
0.333372
-0.560341
0.357909
-0.212638
-0.0451022
-1.05472
1.09983
-0.322517
0.411677
-0.783057
-0.560307
-0.395173
0.95548
0.238023
-0.30134
-0.647013
0.204195
0.442818
0.000957875
0.00706022
-0.0080181
0.78318
-0.897454
0.242917
-0.797534
0.452459
0.283372
-0.735832
0.194277
0.126944
-0.784001
0.21869
0.565311
-0.837748
0.265035
0.478494
-0.770625
0.394658
-0.450684
-0.000857413
0.00181529
-0.041017
0.981224
-0.585147
0.726486
-0.141339
0.935964
0.00115543
-0.93712
-0.692698
-0.00838804
-0.21746
0.0645322
0.665127
0.111725
0.0279062
-0.00327492
-0.230295
0.589633
0.488524
0.0934194
0.226796
-0.833223
-0.0629908
-0.866177
0.413038
-0.757863
0.163317
0.175668
-0.338985
0.83784
0.0441496
-0.88199
-0.0953176
0.0891672
-0.317207
-0.701909
-0.755599
-0.108404
-0.344551
0.958865
-0.318081
0.433119
-0.115038
-0.840232
0.267627
-0.260772
0.487741
-0.387457
-0.615095
-0.275097
-0.301231
0.336234
-0.44469
0.00278209
0.988997
-0.129588
0.322043
-0.106992
-0.215051
0.0822051
0.0729763
0.237513
0.983717
-0.937823
0.00217647
-0.208536
0.300121
-0.473668
0.492199
-0.426099
-0.482584
0.197714
0.165689
-0.363402
-0.766851
0.0371915
-0.110155
0.730935
-0.62078
-0.0889254
-0.805347
-0.672446
0.772599
1.22832
-0.531196
-0.69712
-0.125287
0.315835
0.801049
-0.430654
-0.370395
0.244814
-0.265889
0.0776145
-0.0421293
-0.197785
0.0452764
0.152509
-0.136275
0.508132
-0.403257
1.01414
-0.029093
-0.132077
-0.257555
-0.0725912
0.330147
-0.0126876
0.795868
0.149819
0.197631
-0.34745
-0.35456
0.536338
0.402753
0.4017
-0.323445
-0.0987134
0.485301
-0.17293
-0.312371
-0.0505984
0.0320589
0.0185396
0.107314
-0.756175
0.648861
-0.878904
0.123306
0.202393
-0.364395
0.777433
-0.00365449
0.248469
0.11038
-0.428461
-0.974582
0.49016
-0.951673
0.318482
-0.416876
0.0370471
-0.398836
-0.5485
0.947336
-0.943759
-0.137771
0.236215
-0.0984446
0.85784
-0.641176
0.703918
-0.580938
0.147611
0.494641
-0.642252
0.199338
-0.370834
-0.688603
-0.225046
0.91365
-0.124705
0.299859
-0.175155
-0.399274
0.837186
-0.437912
0.78604
-0.495741
-0.290299
0.782516
0.0203232
-0.802839
-0.512636
-0.755332
-0.304437
-0.0095236
0.348631
0.625089
-0.0123826
0.0815172
-0.0691346
-0.635059
-0.148942
0.668825
0.576023
-0.504272
0.59879
-0.0945171
-0.0086238
-0.0368039
0.086083
0.372727
-0.45881
0.0208515
0.158827
-0.111058
-0.873421
-0.842477
0.318397
-0.00711182
-0.13459
0.294347
0.0706865
0.693467
-0.764154
-0.487444
-0.112836
0.603451
0.226099
0.0633395
-0.214202
-0.139991
-0.129619
0.26961
0.0941276
-0.342851
0.248723
0.272677
0.353302
0.196486
0.775404
-0.352896
0.858648
-0.446971
-0.102538
-0.230809
0.333347
0.709832
0.0729725
0.0250262
-0.626076
0.425418
0.474822
-0.48751
-0.482561
-0.417926
0.900487
-0.590119
-0.446736
-0.958217
0.997426
-0.0392089
-0.0714841
-0.361927
0.281672
0.525996
0.249409
0.0581292
-0.262966
0.204837
-0.310777
-0.628187
-0.146056
-0.718422
0.864478
0.46708
-0.229038
-0.381963
0.131176
0.553803
-0.87101
0.441014
-0.347234
-0.342178
0.965573
-0.623395
0.447406
0.479558
0.27544
-0.754998
1.00848
-0.612823
-0.395662
-0.348045
-0.718365
1.10709
-0.388729
0.194817
0.127227
-0.259352
0.255697
0.398266
0.763871
-0.188635
0.168762
0.0275072
-0.0280813
0.901388
-0.499195
0.433637
0.696111
-0.373318
0.193832
0.179486
0.220457
-0.452221
0.708139
-0.0401903
0.56528
-0.235694
-0.648178
-0.0925847
0.740762
0.167841
-0.0299164
-0.137924
0.123023
0.0892821
0.133057
-0.898024
-0.256573
0.277556
0.657666
-0.573746
-0.0839205
0.142272
0.343029
-0.132875
0.0689135
0.219217
0.222287
-0.441504
-0.467707
0.86518
0.205835
-0.50677
1.10176
-0.594987
-0.267161
0.407723
-0.304609
-0.3348
1.04825
-0.499861
-0.317619
0.0932765
0.390725
0.270609
-0.281675
-0.139145
0.118519
-0.27144
-0.122819
-0.00382913
0.580684
-0.137851
0.764456
-0.626605
-0.0657512
0.10513
-0.328604
0.0870079
-0.293344
-0.0110926
-0.855129
0.599559
0.209
0.221711
0.0754322
-0.31866
0.243228
0.265374
0.0501671
0.786313
0.427074
-1.21339
-0.0854441
-0.017756
0.1032
-0.213233
-0.585369
0.805106
0.42321
0.735155
-0.664469
-1.11659
0.110543
0.027016
-0.165359
0.43581
0.67664
0.208403
-0.885043
0.335574
-0.0263179
-0.0288743
-0.293924
-0.0793941
-0.505168
-0.451903
0.493339
0.145467
0.691584
0.542178
-0.538429
-0.00374946
0.161745
0.0080275
-0.0656962
0.224804
-0.0308801
0.707519
0.17325
-0.880769
-0.485578
0.218829
-0.202749
0.124502
0.0782467
-0.311462
0.0044073
0.307055
0.379768
0.442949
-0.822717
0.212023
0.258965
0.645018
-0.0146896
-0.237255
0.430011
-0.660306
-0.0425399
0.058348
-0.0158081
-0.919898
0.513976
0.778817
-0.623056
-0.155761
0.0113594
-0.116236
0.104877
0.78314
-0.860717
0.551077
-0.0839969
0.25053
0.453388
-0.11114
-0.0116785
0.181846
-0.110583
-0.0712634
-0.548147
-0.103103
0.998981
-0.510396
-0.488585
0.53398
0.113003
-0.646983
0.368316
-0.641562
0.273247
0.0287462
0.474184
-0.00922667
-0.165812
0.548298
-0.382486
0.102536
0.0793101
-0.2889
-0.200983
0.0465576
0.683378
0.00239796
-0.685776
-0.321157
-0.233777
-0.0704508
-0.0933166
-0.00522075
0.354168
0.538846
-0.129224
0.151427
-0.000779799
0.0361997
-0.128763
0.134809
-0.354621
0.502232
0.0128429
0.194461
-0.284167
-0.295012
0.707788
-0.0289762
0.571154
-0.126912
-0.0978267
-0.220224
0.439441
-0.19635
0.792111
-0.595761
-0.743804
-0.0989868
-0.42121
0.757612
-0.336401
-0.0454766
-0.155507
0.2773
-0.0586174
-0.0193526
-0.207351
0.226703
-0.749239
0.249378
0.0934061
-0.109183
0.445408
-1.10903
0.302109
-0.873099
-0.210829
0.652967
-0.311829
0.452793
-0.230506
0.0131959
-0.592151
0.699465
0.00117519
-0.130619
0.131255
-0.488505
-0.0824002
-0.548576
0.630976
0.244218
0.307365
1.13586
-0.743158
-0.392706
-0.197931
0.0601343
0.18061
0.0200987
-0.200708
-0.718493
0.133346
0.156813
0.0245801
-0.00513047
-0.105214
0.110345
0.381169
-0.802379
0.0762428
0.404422
0.0222163
-0.426638
-0.878456
0.682105
0.119472
0.0329673
-0.152439
0.306621
-0.935986
-0.121093
-0.00098284
0.122076
0.152949
-0.033477
0.0103859
0.649573
-0.497111
0.542325
0.440139
-0.228115
-0.80117
0.240863
-0.608119
0.489496
0.118623
0.412724
-0.895285
-0.436225
-0.273893
0.710117
0.0764493
0.344598
-0.262713
0.215979
1.00562
-0.132118
-0.873503
0.000130149
-0.833353
0.711973
0.0705427
0.381218
0.419831
-0.13591
-0.00219236
0.118718
-0.256181
-0.290252
0.0528094
-0.0781991
0.0253897
0.0187228
-0.693503
0.67478
-0.0404675
0.23949
-0.199023
0.282978
-0.809775
0.526797
-0.0941379
-0.48385
-0.0275328
0.0189976
0.604497
-0.293102
-0.174984
0.468086
-0.312802
-0.365138
0.388081
-0.222393
-0.0431627
-0.151291
0.194453
-0.264208
0.33964
-0.83466
-0.118818
-0.0226124
0.141431
0.10036
0.276623
-0.376983
0.678878
-0.830598
0.15172
0.0105354
-0.486394
0.139943
-1.05675
-0.443544
-0.579893
1.02344
-0.848177
0.0369782
0.811199
-1.16383
-0.706373
0.0197196
-0.230971
0.238765
-0.00779342
-0.962273
-0.309186
1.01671
0.326511
-0.17226
0.0694074
-0.289632
-0.151118
0.410083
0.125725
0.0737852
-0.331341
0.0129302
-0.0992235
0.0862933
-0.20346
0.0677714
-0.0671373
0.0784966
-0.226386
0.45622
-0.930742
0.596124
0.334618
-0.313057
0.370958
0.537949
0.170508
-0.00266726
-0.223327
0.281456
-0.419526
-0.227487
-0.472307
0.173829
0.298478
0.0606313
-0.0754728
0.0148414
-0.344252
0.43838
-0.0615878
0.630523
0.579708
-0.42989
0.490422
-0.803224
0.388871
-0.51965
0.130779
0.0866187
-0.00108627
-0.237777
0.0221861
-0.943383
0.544547
-0.0954694
0.629449
0.0140364
-0.164048
0.150012
-1.22604
0.502257
-0.153794
0.194066
-0.163239
-0.0160471
-0.18806
0.204107
-0.485757
0.192655
-0.944846
0.833787
0.82021
-0.367751
-0.148312
0.132719
0.0155923
0.231862
0.105904
-0.126223
-0.982991
0.38098
0.60201
-0.117461
0.0997049
-0.0573986
0.234599
-0.1772
0.357928
0.193149
0.0263192
0.0331571
-0.0594764
-0.218908
0.231751
0.01937
0.119266
0.51787
-0.753725
0.929397
0.0430481
-0.20863