/*--------------------------------*- C++ -*----------------------------------*\
| =========                 |                                                 |
| \\      /  F ield         | OpenFOAM: The Open Source CFD Toolbox           |
|  \\    /   O peration     | Version:  2306                                  |
|   \\  /    A nd           | Website:  www.openfoam.com                      |
|    \\/     M anipulation  |                                                 |
\*---------------------------------------------------------------------------*/
FoamFile
{
    version     2.0;
    format      ascii;
    arch        "LSB;label=32;scalar=64";
    class       volScalarField;
    location    "4.7";
    object      p;
}
// * * * * * * * * * * * * * * * * * * * * * * * * * * * * * * * * * * * * * //

dimensions      [0 2 -2 0 0 0 0];

internalField   nonuniform List<scalar> 
13486
(
6.32321
6.02474
-0.0926465
-16.8158
-4.10447
0.206139
-5.46232
-0.903574
1.83084
3.58304
-10.2372
0.515443
6.64737
0.350109
-2.74947
3.87208
-10.5958
2.0709
0.540408
5.73967
-19.9729
6.47668
5.89221
-20.5785
3.37533
-19.4368
-11.4782
-4.28372
-0.0115051
-6.41786
-19.5314
-0.223014
-5.08261
-3.40098
-0.833612
-0.0148384
-0.677413
3.11487
-0.610946
2.49836
-11.4237
7.10816
-0.100781
3.27138
3.16293
0.496323
-15.3592
-0.0156273
-0.648692
-2.47622
4.08434
-0.833303
0.765019
3.3904
0.5241
-3.5817
-2.3562
-0.803157
-5.16477
-0.921754
-13.2919
-0.960638
-4.0766
-20.1025
-52.9584
-0.759539
-17.0247
7.05088
1.68305
-0.497329
-16.8528
1.16045
3.0492
-12.7855
-0.959954
-2.06806
-0.911266
-3.0605
-13.4223
-1.28933
-0.00683859
6.28001
-3.83699
-0.0088411
6.32547
4.42482
0.233914
3.95547
4.77233
4.15807
0.945576
-1.85685
5.63204
5.86249
1.60267
-0.00587751
-11.6009
-18.6512
2.38937
-11.6127
0.0212729
0.580999
-19.6413
-0.797043
4.97373
-12.1017
4.272
-0.598909
-14.3653
-3.39041
0.389816
-1.06719
3.40848
-1.01925
8.6399
0.932166
3.42611
-3.29009
3.10486
-0.573955
2.1256
-12.2081
2.17965
-0.618389
0.57394
-0.78167
0.0998144
1.87551
-3.03862
-42.6514
-0.76858
-15.9902
-16.7322
-10.522
4.17201
4.51269
10.0264
-3.03788
-0.540042
-0.325056
-4.24734
0.824227
0.413915
-1.33475
-0.393362
1.45312
0.0221506
7.34288
-2.67117
-0.00726877
3.17036
-4.41156
0.00398433
6.44873
2.16428
-0.116054
-4.90975
-19.2046
1.97473
-0.431044
-1.55478
1.98284
1.97357
7.0198
-0.836668
-0.475799
0.974107
10.7342
0.0285935
-10.6451
-17.9029
2.19699
3.62111
-0.294757
-0.0273381
-32.6867
-0.00462146
-4.17748
4.21761
0.422656
1.70854
-0.881684
-0.106208
-10.9422
0.0801688
-4.09544
0.00196989
-4.73094
-10.6399
1.45723
-0.633005
-0.399407
-0.893596
7.46065
-1.07277
-9.62611
-45.6929
-1.87562
4.33942
-0.245045
-19.7554
1.80989
3.12888
-7.17535
-0.476166
-1.13694
0.463093
3.98373
-0.831414
0.0773573
-4.32113
-29.7254
5.66375
4.29409
0.226035
-5.62696
-6.12557
4.22938
4.93191
-5.40406
-10.9035
-2.69457
-0.0436278
-1.84791
0.845887
5.47532
-0.56963
-32.2213
-2.83082
0.169222
1.67494
-19.4643
-4.35773
7.41511
-22.0184
4.85213
-4.08874
-0.346423
4.98784
0.295503
-5.77773
3.55567
-0.572888
4.23516
-0.463504
5.0007
0.513463
-12.6025
-10.9134
3.54575
-17.2852
8.82596
0.493572
-0.629615
-1.88005
-32.8482
0.00687973
-5.5661
-17.2397
-6.51506
5.31227
-0.464819
-2.4554
-31.2544
-4.43423
-10.9307
-2.81107
-21.153
3.08008
1.84013
6.03885
4.28491
-6.26304
0.598554
5.4918
-10.8828
-1.85529
-11.0059
-0.673758
0.0323306
-12.6304
1.27921
4.3831
-13.9479
-11.5011
-12.4682
-3.60702
-3.10058
0.770599
3.1826
-21.2323
-0.513828
1.27642
4.19277
-3.9663
-4.43199
-1.77631
0.5155
4.36319
-9.08804
2.24667
0.664584
0.0175977
-0.402879
-0.551388
-6.92877
-20.6273
0.604357
0.142651
-0.654412
-9.57393
-16.4793
0.785757
-0.718464
-13.595
4.62479
-0.524241
4.82871
4.09639
-3.49246
-0.724407
-0.519428
4.20874
5.98688
9.82255
0.78826
-1.196
1.13463
0.346618
-1.6815
3.97754
-2.34031
1.21291
7.18425
-6.22064
1.14341
8.80294
-4.3415
3.40884
-0.438832
-3.03376
5.97666
-2.03648
-0.211107
-11.3998
-0.0129349
0.299198
8.24519
-5.35197
-0.503197
0.646871
0.460322
0.571203
-11.449
4.32327
-0.212872
-13.0855
0.0807062
0.0828193
-26.1765
0.525178
1.08114
5.16639
4.30545
-6.54873
0.00400119
-4.3341
-18.978
5.84124
0.236224
-0.102077
0.438242
0.749651
-16.9449
0.459526
4.13506
4.26619
-0.461731
-13.1397
-9.14262
2.87401
-2.72621
7.2103
6.26686
-17.791
-2.01102
1.15255
3.34133
-7.62781
-17.0535
5.48636
-6.20096
2.7077
5.31462
7.52843
-0.537734
-16.8497
-16.3297
-7.98392
-3.99662
-7.62998
2.74864
2.13086
-21.2463
-4.85265
0.624999
5.75015
-4.41545
0.700568
5.74476
3.2262
-1.28984
-5.6928
4.40372
4.23586
7.28757
-11.0231
-4.28864
-19.6182
0.26618
4.23839
1.89077
8.32309
3.53599
-0.981562
-4.64522
1.82735
4.42592
-11.5033
1.30706
6.4491
2.20657
2.67322
0.680894
-5.72137
-10.5927
7.30082
-0.506771
-0.15342
6.92187
-14.5916
-6.00248
-10.0832
-6.04297
-0.0741564
3.76014
6.95489
6.57653
-9.77774
-0.577226
-11.5984
3.47018
4.92677
-2.47313
-2.71115
4.27988
-13.6379
-35.6617
-16.299
0.341363
1.11008
4.63901
-0.0306644
1.3788
-18.0836
4.55841
-0.0125788
9.87169
5.54599
2.74576
-1.47075
-0.0399067
-0.0116109
8.68968
-1.98552
-0.526394
-0.918304
1.19317
-12.8021
0.515032
3.66526
-0.305129
-0.974663
5.89766
-4.28817
-8.60722
3.43092
-17.0486
10.6904
3.48091
4.12978
4.52886
-30.994
0.158027
8.73587
-5.11732
5.89562
-8.44053
2.06947
-22.2093
-1.21465
-0.129998
-13.1975
4.99958
0.697459
-18.606
-0.00160587
0.0292341
7.52829
3.71444
-1.93459
0.907046
0.465304
-0.840987
-4.72741
4.13931
-18.7578
7.11288
-0.774634
-0.478877
7.14152
-2.77828
-0.0475887
0.756749
-24.3903
-14.7525
0.508405
-3.77531
2.36833
5.6065
-10.4226
-5.65984
-10.4283
-0.0103196
4.93405
2.06956
-11.0259
-20.2641
2.48698
-16.7037
-0.683955
-51.094
-2.55154
0.92566
7.0394
-0.767908
5.14851
1.76596
-16.3888
-3.41741
2.57579
-11.3145
3.73169
0.121202
-14.915
0.381351
3.2112
-7.65323
-10.5557
4.13241
5.26915
2.42813
6.48321
0.127368
3.61034
1.89682
4.22742
-0.387358
4.91035
-11.4917
2.62418
0.499096
-2.95934
-10.7965
4.10941
-14.3546
0.537489
6.74238
6.3449
-30.9397
-11.7012
2.24358
0.949401
2.3825
4.4032
-8.18626
-9.9281
0.934076
5.89956
1.56886
1.4807
-49.5406
6.45283
-14.0268
-0.844821
4.2512
-1.71026
-1.21981
1.24158
-0.927495
0.238495
0.296538
2.5204
-3.65671
6.18661
0.865907
0.956686
1.10187
1.15002
-3.37706
8.02974
2.1749
7.96302
-30.3311
3.3905
-0.0335792
-13.0926
-4.10818
3.52643
8.7017
-63.9776
-3.04438
-1.51026
-5.84015
3.43369
1.80183
-0.537278
2.0623
-10.622
-10.046
-12.2003
0.775597
-4.25816
4.44919
-0.0218418
7.29065
2.26917
-0.519525
-16.198
-4.11139
2.27819
-10.5417
0.365326
-12.7322
4.74712
-0.00134931
-2.18989
-20.775
7.17096
-0.01791
2.1804
7.0009
4.12334
-11.2918
-0.667532
0.556798
1.24472
0.281305
-0.53317
-37.0885
2.49279
2.4004
2.1443
1.69067
7.2162
-0.755419
-32.6744
4.11637
0.889452
-0.0462093
-1.09122
3.7652
2.86657
-11.1176
0.124131
-0.464931
0.445301
4.92435
2.19737
0.319155
0.0506336
-12.8223
-1.27948
5.29972
-0.703377
0.0407075
2.22547
7.03718
2.44452
-1.71604
7.92309
-0.110609
-14.0844
3.40001
-8.84639
5.22431
-0.374254
4.23554
-22.0473
-11.3733
-27.2997
-0.0147021
-9.39198
3.24931
8.36231
-6.49755
-1.66714
-0.800005
5.44312
1.61715
2.76952
-19.057
8.65998
-11.1931
0.661234
-2.73174
3.44331
4.78264
3.20556
-8.18641
-20.1029
6.94426
4.32724
-5.87348
2.41785
-12.3845
0.294818
-0.725982
3.30105
-9.76307
-1.70105
5.60184
-4.33362
-0.742597
-1.13668
-15.3486
-6.50253
-0.632209
3.88348
5.17223
-29.7769
0.135663
-11.3137
-19.9958
0.242713
-4.27074
1.09473
4.22925
0.814595
-2.94017
2.8916
-8.93445
-37.2712
-1.31776
-1.24374
-27.9099
-27.4032
-0.481961
-31.8681
0.19733
6.66718
-0.550746
-35.7532
7.03279
6.23211
-28.5776
-42.9739
1.42258
-19.0152
-0.482199
1.46869
1.16314
-3.49474
-8.78209
2.77975
3.63236
-1.00812
-19.0142
-9.57722
0.308388
0.50876
3.46103
0.893579
-28.5188
5.06081
5.95377
-11.6476
-31.3552
2.13365
-7.79532
1.03505
-0.576169
-5.87611
-27.5096
0.442471
4.2793
8.01429
3.77583
1.20544
0.444177
4.22098
5.85061
1.11992
1.79442
3.74816
7.4295
-4.46096
-0.504836
1.50509
-2.62189
7.15796
0.178981
1.89205
0.890198
-1.75287
0.452348
0.476379
-3.1992
4.52315
5.10097
3.65072
2.9975
-4.31439
-0.321666
-3.88091
-3.32246
-4.00097
-0.361109
-0.402048
-46.9306
-16.0794
3.1198
-5.47399
-10.9004
-2.61513
-16.3279
-2.12009
-9.30815
-37.0394
4.28382
-25.621
6.4244
-33.513
-11.1553
2.70542
5.05388
-1.06829
1.26585
-9.64364
4.86018
-4.13749
-4.6086
-1.04898
-0.572669
-16.6846
4.25733
-2.33638
3.31825
-0.503148
1.31328
-11.5607
-0.484882
-0.205108
3.83674
-3.72147
-10.8025
-52.9297
6.37057
1.7862
-34.9295
-10.8699
3.71699
-27.1897
-0.518632
0.474473
-2.3035
0.926952
-1.20347
-50.6412
4.89045
4.26516
3.01758
2.82159
-0.515975
-7.16886
3.95373
-0.327954
2.91113
4.29696
-1.43819
-0.619091
-2.30489
0.594774
-0.550656
4.94132
2.55861
1.80816
4.30398
1.5865
0.466619
8.52655
0.483293
-4.52039
3.62797
0.40625
-0.615858
-2.59335
-19.0392
3.66757
-0.719451
-0.107197
-0.385384
2.29061
3.68277
-11.3996
0.00168876
4.30971
0.474987
7.21432
5.12621
4.73094
0.506652
4.04494
0.379172
-0.284552
-1.57222
2.51549
-22.4052
-2.97525
-5.31723
-11.7214
-20.1241
3.33466
-2.23671
-9.56325
-49.2753
-22.7494
-0.283543
4.53826
-0.126759
1.06528
-10.0128
4.24017
8.11522
0.516494
-16.213
3.3628
-7.04636
3.47547
-0.463479
-0.490917
3.52313
-0.956885
7.24442
0.860983
4.22011
-5.14222
5.03666
-0.495205
5.20539
-0.792259
-7.19409
0.108354
-64.8731
0.872132
0.581476
-19.6809
6.49887
4.24124
5.26935
5.4809
5.28128
3.88207
-3.87941
1.73884
4.2819
4.21812
-2.70185
-0.560683
-3.45649
-2.1062
0.4596
2.15132
-11.2685
8.83752
-3.03026
-0.65198
8.06103
6.09339
-2.9845
-55.5897
2.66206
3.17986
-12.8707
1.03692
-10.6366
-0.883967
4.21423
5.06476
-0.515524
1.98388
4.99717
0.00269912
-1.39806
5.41296
0.407138
-0.603183
-10.2763
-0.0369858
-3.10109
4.52983
4.93141
-0.671367
-11.3514
-9.17386
0.289732
-0.624181
0.464484
6.91585
-0.731283
9.4583
3.41266
0.546514
4.08418
-11.5784
-13.6745
-26.0429
3.69999
-0.545974
-9.42805
-19.0615
2.9433
3.60999
-0.447027
-2.69729
-21.676
-2.53408
1.72326
-0.486036
1.07759
0.402683
4.38401
4.37078
5.11057
2.27437
-3.00285
-5.56277
-3.5509
0.0824975
-34.5061
1.46217
0.948596
-23.945
-0.523395
-0.660649
2.34553
-20.848
0.952585
3.2462
-0.26899
-10.0293
-0.134788
-2.40789
-9.8385
0.551402
0.536602
1.99777
3.76045
3.70395
-10.1685
4.15096
-0.448158
5.72061
1.03851
3.12024
2.2208
0.293058
7.22519
8.996
1.80392
-4.60758
3.69352
0.777806
7.27905
-1.85831
-5.24875
-19.049
0.511404
-2.22182
-6.22154
4.22222
3.27145
0.867539
-8.92267
-1.14023
2.33485
8.50877
-0.36686
4.0864
-8.38556
1.5704
6.76405
-2.09118
0.18536
-23.5447
3.57974
0.509527
9.21772
-0.00102168
-3.63512
2.99021
0.547406
-11.2733
-10.8257
2.47887
5.20314
-0.241832
-4.28708
6.27821
5.80575
-1.22139
-7.78011
-0.124368
1.82682
2.5754
2.98393
4.88627
0.889065
-10.8222
5.47375
0.0613197
-4.63635
-1.0584
4.8751
3.60569
-16.0703
-21.5918
0.00314175
4.11405
6.76361
0.654927
2.19695
-3.11296
8.6053
-11.6626
-4.07079
7.41104
4.11058
1.01136
0.633551
-17.1894
-2.19032
-13.8992
-11.9341
-0.48032
-26.284
1.03998
-7.23276
-17.6892
-9.50674
-0.597707
-9.59627
-7.64251
-16.367
5.78437
4.51656
-5.09391
-20.9471
0.119976
1.74303
-2.97915
9.3922
-2.24335
-3.09498
4.13133
-8.29436
-26.926
-1.1945
-1.382
3.28618
9.70149
-0.0180936
-1.9808
-22.6205
0.110741
-1.75077
0.47919
-0.854836
5.6003
4.28364
4.49432
-22.538
-1.0515
-0.510478
1.59841
4.20827
1.4861
4.49168
8.75129
7.80919
-8.0363
4.14115
5.41442
-3.0402
4.69667
-0.631549
7.64456
4.57828
1.04284
5.18125
3.07384
-1.01092
-0.366717
5.01662
-5.19044
1.49459
-4.04489
-2.88392
0.174297
3.55782
-0.597101
0.553359
7.12512
7.07895
-1.05275
-10.4493
0.497486
-13.0775
-1.72591
4.47387
5.68222
-10.2485
4.2603
1.36207
0.277175
1.64006
-20.8722
-24.1178
-0.647652
9.35579
-2.5703
-0.159517
5.70546
0.14829
-1.65319
2.93272
0.531891
3.95375
-6.99838
-4.94576
0.796325
-0.892756
-2.41446
-1.39469
8.19088
6.03882
3.29627
7.74271
6.76292
-2.11555
-0.674419
0.104477
-3.54
7.13195
-24.5271
2.65678
0.871046
-12.962
-2.29795
3.98619
-51.8573
0.326223
3.99719
9.83071
-11.2815
0.36231
0.902877
2.26656
-0.124087
-22.998
6.81863
4.55261
1.52863
3.69168
-10.1274
-5.9528
-13.2697
7.78706
-1.09093
9.12038
-16.592
2.01981
-13.6907
-4.97765
-12.393
1.2335
-0.738341
2.42401
0.316638
2.34654
-23.0283
-0.00336957
-25.1623
-9.97803
-3.76873
-4.83636
0.225177
-1.30359
-17.3599
-12.4945
1.11661
1.34904
7.17576
4.24659
-0.0549567
0.487741
10.9483
2.53672
-11.6231
-0.0337549
0.436341
4.01861
1.61427
5.62627
-3.09426
-3.23591
-1.40556
-0.00389591
0.506266
6.10943
-10.676
-12.296
-12.6012
7.94742
-17.5722
0.916005
4.74665
-18.1008
-0.103934
-0.553784
-10.4578
-10.5818
-0.590288
3.66882
3.08226
4.65039
-3.55187
-10.2972
-3.24905
-12.8571
-8.14747
-3.02907
0.987045
-19.1323
0.0469758
-21.3239
-11.1152
-15.7382
6.25154
-20.2093
7.88445
-11.8174
-4.72325
-0.593263
1.57318
5.15644
0.434803
6.11626
0.361155
-12.7343
-9.42138
4.47687
-9.8692
3.7492
-0.490679
6.54583
5.50326
-0.506839
3.73846
7.11426
2.32367
3.87046
-7.76606
-11.4801
-0.123087
-8.49157
-0.67282
-2.5407
-2.66572
-0.107767
-8.839
0.447179
-0.840673
-0.536114
-2.06994
-4.38412
7.61033
0.0549575
-0.00624081
0.493122
4.2415
-39.501
-0.0276973
2.53645
-1.43758
-0.245549
-0.189885
1.2792
4.24179
4.20038
-0.0126009
4.48358
5.07269
3.00609
-7.21225
-0.631347
2.02383
1.13082
-3.04259
-21.0818
-35.4731
-4.77082
-17.7516
0.0590045
-0.688112
-1.43058
-10.8604
-2.59284
-22.3289
-0.768955
-21.7026
2.53517
-10.8002
4.55121
10.8773
2.53678
-23.7099
2.91918
1.53351
0.491701
-0.0824325
-7.91712
-53.7585
0.177914
4.50915
-0.00657102
6.80273
-0.0560702
4.18564
-0.45577
0.00730608
-14.9235
-4.51604
9.13753
-16.7417
4.29536
4.25727
5.57126
0.183233
4.5195
1.49799
-13.1063
2.25421
-11.4109
-14.6235
4.66806
4.11377
-4.89301
1.47875
5.49168
-11.8793
-60.087
-1.355
-0.416437
4.38725
3.07633
4.92608
0.319676
1.79786
-9.46237
-3.99715
-7.71586
4.9075
9.04041
-9.01825
-10.4255
-16.2651
0.68873
0.103933
0.118661
-5.96549
1.79714
-0.16611
-19.868
-0.213447
8.89857
2.71198
1.91592
-20.0201
-16.4591
-13.2463
-8.93078
-14.3141
-13.2814
5.7786
3.08344
-5.15062
8.51249
-0.0362536
-9.80338
-23.9472
-14.4304
2.40969
-9.75485
2.35989
1.68242
0.0479764
-6.9193
-8.17655
-11.6496
-28.5536
5.18383
-20.5615
-0.592738
-12.6531
4.27341
3.94294
-17.7156
4.81199
3.5887
6.13399
7.07981
2.40489
0.4919
9.45285
-13.1684
0.988234
-7.77418
-35.0176
5.96402
-31.5359
7.49455
2.91396
-3.92821
-22.511
-18.3026
4.92078
-37.6572
-35.219
0.0476038
-1.87511
1.81528
3.43979
1.67413
-0.805189
7.9384
-11.1321
-17.6393
-0.107572
1.1134
4.27675
-20.7531
10.7123
-0.62665
-0.92358
4.08556
-3.90693
4.23031
2.0762
3.35047
2.42243
2.21009
-2.09943
2.31871
0.478891
-20.1611
-0.111412
1.94006
4.09277
4.73502
-20.2686
-0.110766
-5.40239
3.35306
1.19396
-34.6698
4.26148
-28.3321
4.08945
4.55117
-10.087
6.54939
-51.7145
9.02312
2.73528
-24.9551
-0.0150607
-0.807866
3.33587
4.87837
-29.7271
4.7793
4.56558
-4.80236
-0.316452
0.446278
0.0700202
-4.91972
-11.2939
-2.81723
-27.6005
4.27907
-21.1833
-16.2662
-7.84989
5.4838
5.12384
3.80033
-21.1933
2.99255
-1.27401
0.00352248
3.13231
-22.2797
-21.8442
7.74212
-1.33909
-1.20683
-5.26615
-13.4762
-20.7209
4.34463
-10.7655
-3.94247
4.90867
-1.06133
4.20807
-13.3921
0.337699
8.42096
-9.34937
4.88182
0.00995897
-18.0871
2.38835
0.478209
-0.578598
8.49675
3.10948
0.597347
8.76539
4.42703
5.71919
-13.2367
-21.8444
-3.66544
-4.42665
-17.7851
-0.804169
-3.82656
-1.73019
0.469803
0.485475
-2.42589
-1.20109
-18.265
-1.98875
5.21538
-10.5912
1.13747
3.46197
4.23815
-1.28788
-0.308271
-18.1935
-9.54447
-14.2287
-4.42225
5.20431
-32.6849
6.08092
-12.1573
4.22818
-3.56092
-0.660505
-7.92527
3.1254
3.05602
1.90345
1.1951
1.80045
1.3679
5.31144
6.3888
-23.6126
-5.36943
-14.0852
4.37079
1.01204
-6.39454
-3.33597
0.928476
-1.77724
-0.182825
1.57057
-1.10868
2.02699
3.04425
0.87441
-0.576437
-40.258
6.01049
-16.071
3.55853
-0.0072842
4.1464
3.38334
3.26537
1.52244
-12.3233
-24.0523
-0.597435
-17.3757
-31.0589
-48.1694
1.48934
-23.5176
4.17424
0.665369
4.23656
-14.4341
1.21014
-6.30945
-0.621342
3.29125
-10.7429
2.45573
0.474485
-55.976
-15.6834
-17.1393
0.980664
4.43631
-0.574835
0.503486
-13.7743
2.5313
-5.83345
-0.0392117
-11.5631
4.78561
0.458049
-0.246873
4.06855
2.20387
3.95621
2.99386
6.48039
-9.95454
-0.633984
-11.6944
0.271691
3.43282
0.493116
-10.945
-29.1941
-19.5214
-1.83586
-0.251545
-25.0152
8.7474
-8.57964
3.38389
0.721114
-37.498
-0.74189
-0.344966
-0.910787
1.43048
0.496133
4.44557
-0.635867
4.25299
-6.43638
-6.95258
-21.4755
-1.33504
-30.0116
3.29064
8.29953
4.30168
-4.42563
-9.56753
4.063
-11.5376
-6.13139
-0.0720175
-1.6329
-30.3997
-24.7349
-34.5192
-4.98471
1.1775
0.62327
-0.536986
0.516863
4.8416
-3.1338
-4.28917
4.88273
-0.701417
-10.2053
-0.285081
-0.235334
-0.00830539
8.62903
-0.0964028
0.903338
-3.53472
-2.01236
-3.05923
1.88303
-1.15167
0.0264517
-2.66697
-4.04168
-0.264013
-4.80885
5.2401
1.68685
1.69214
-10.0984
-3.63908
8.61239
-20.7174
3.2571
3.28525
1.08777
-0.897601
0.429708
-18.1959
0.646076
4.29238
3.56567
2.47819
-31.8151
4.87448
1.47576
6.76292
-4.02311
4.39871
5.26544
4.22198
0.732064
-11.0588
2.29678
-14.2924
-0.895608
2.91263
3.98378
1.27284
6.11373
0.506451
6.88464
1.26417
3.59968
0.284217
0.812393
-4.34004
4.23893
-0.0162825
2.88941
8.30299
4.46477
0.623326
-3.69164
0.554784
4.20164
-0.61901
-8.11627
1.10842
-0.258265
5.1242
-16.7607
6.34876
2.02235
11.1128
7.40273
-2.19355
-3.51312
-6.39352
1.14456
7.61485
0.025853
0.656937
-1.37348
9.28323
3.25114
0.984564
8.41815
-2.12817
3.95979
-3.67705
3.18564
-1.86332
2.20115
3.06317
4.62707
-0.732796
-12.6084
0.54506
-15.3993
-0.232209
-10.7446
-0.112708
6.85956
5.86469
-0.191869
-6.94903
-2.94505
3.88505
1.53444
1.49533
3.39169
-7.83556
-17.6052
-20.8461
4.53712
-6.78591
-7.56257
2.38237
-0.84712
0.413824
-3.61101
8.67718
-25.3755
6.08634
-8.07357
8.62601
-8.47954
-0.00591508
-0.76216
-0.510906
1.75583
4.2404
1.09356
-5.93295
1.33219
-9.327
5.28548
-0.452767
0.911675
-23.9198
-3.22523
-7.98894
3.21474
-4.167
-0.574457
-1.12385
4.31991
9.10679
-15.9599
-0.293101
1.40272
-3.42332
2.96204
-0.45907
-2.51011
-4.41984
-21.8317
0.88999
-28.0118
-3.04832
0.125298
-1.70627
-62.7836
1.0344
3.84099
3.5296
4.08896
8.56411
-12.8233
9.10954
-14.3412
8.33714
-32.2325
-2.51473
8.03809
2.73988
-41.4832
0.739791
-0.746769
1.80373
-21.4695
-12.072
0.481236
-5.56602
-8.36762
-0.0251338
-2.09891
2.61814
3.26748
-42.7084
2.75225
-6.12945
0.425889
-24.5064
-0.606599
2.51696
-21.7818
-4.70426
7.46397
-0.474187
7.86655
0.485476
-10.9205
2.54746
-2.98944
-0.825342
4.04575
4.48354
9.36226
3.91962
4.58976
-3.90002
-11.1658
9.02898
9.17677
4.92105
-1.88183
-29.5061
-14.2306
1.62921
-1.96234
-0.481492
5.19758
-20.4162
-0.566985
-9.92216
8.16898
1.9632
1.40328
-24.1229
0.819035
3.11856
10.4849
9.69082
2.02252
1.89478
-2.73247
-11.8251
3.02233
9.95556
-7.46214
-0.860148
-1.26513
-0.0301981
0.599704
0.0993683
-0.489451
0.464007
1.04953
0.552017
-0.681068
2.3291
5.32604
-8.45355
3.53542
-26.6783
-0.795104
7.51907
-6.92197
0.891297
-8.39659
2.85029
2.20964
-16.4594
-9.7705
-0.524344
1.19364
10.737
-13.2029
-0.822948
-46.5931
-1.80652
-11.7103
-8.5876
-16.9037
-2.23865
-0.272464
-5.13363
-2.68876
-7.87222
2.15783
-0.32558
1.2792
10.3407
1.44684
0.510173
-3.22175
1.77503
-9.90518
-4.7529
6.81466
3.77155
0.557042
-2.2515
2.94874
3.85159
-3.95433
-22.9461
-0.146537
6.86401
-3.69126
4.18431
1.0317
6.45731
0.604327
-29.896
1.99286
4.39263
-3.88912
4.30698
-2.17097
9.50051
-18.4882
-0.279917
-9.54789
3.24547
-19.8399
-2.85569
-19.9733
0.308909
-6.25117
-35.5195
-23.2132
-1.1916
0.978983
-25.4036
-2.77577
1.50705
-14.7639
0.996947
-21.7207
4.37642
8.78441
0.537955
-10.0998
1.39407
0.198099
0.809598
-1.40121
-0.959766
-11.985
-0.0433364
-9.16876
-6.36161
0.922638
-1.43205
-17.5382
-4.36638
0.65103
4.25302
-2.46241
-17.6617
-0.633039
-0.562841
-3.59364
-0.67214
-6.77672
-18.8683
5.24149
-16.2454
-4.47884
-4.86003
-6.2358
-10.8812
-13.7472
10.889
-0.413408
-4.87957
2.80375
8.54582
7.54362
-33.7185
-3.68435
4.22368
-0.558532
0.00133153
8.66378
0.397511
-0.633722
10.8795
-0.28886
-7.93119
1.55804
6.91043
4.40829
1.42532
6.69681
3.67672
-1.71921
-0.43531
2.88168
0.566973
-8.41904
8.2921
-0.10654
-1.29691
-0.652748
-20.2104
-0.651619
-25.3545
-4.55892
0.65001
2.07683
4.79472
2.39259
-11.5211
7.25833
7.92056
-0.204275
0.638989
-1.41392
-0.104058
0.609084
3.44499
-21.348
-3.07722
-0.212367
9.19231
-11.4415
3.03066
3.67357
4.08249
-1.40859
1.28019
-4.72186
-1.16538
-4.2696
-0.77543
-12.2364
-5.24473
-0.183469
-18.1959
4.34139
-36.518
-0.577912
1.94935
-9.80245
-25.0811
-11.1486
2.19169
-3.47372
0.0835298
2.79889
-40.7371
-0.244966
0.245423
-1.32067
4.14925
-10.4152
8.79388
-0.497137
9.72969
-0.00649336
-0.0268949
0.27426
4.15116
0.82261
-8.94741
-1.54475
0.164795
0.239109
-0.705959
11.0233
4.1295
-2.70573
-3.48626
-1.82221
1.31604
2.37486
-4.37009
3.48428
-22.1874
-22.2154
-9.65027
-7.36937
-1.53578
-9.83797
3.49527
0.564937
7.50669
9.14258
-9.00379
-11.6831
1.18386
-3.30295
7.89387
-9.9826
-0.59071
2.74279
3.7219
-27.1795
-8.39498
0.612079
-0.72976
-0.0428449
-22.6151
-7.47098
0.662556
-2.29822
-6.94101
-0.229581
-7.91524
-6.12586
2.45426
-37.7937
-28.1664
-6.4017
2.44246
9.47144
-2.27458
4.23139
-13.9812
-0.428487
0.667258
-2.111
2.25158
-17.6955
-22.4823
7.82053
4.04614
0.844066
-9.42384
10.0761
-23.559
-20.1353
-21.4164
-3.39351
-20.4015
-25.3725
6.66718
0.602404
1.0957
2.62377
-17.9024
2.92428
0.0983886
0.622284
-9.16543
0.981731
2.39677
2.42915
-17.3443
-18.0777
-10.155
-8.12566
-4.16623
-3.50613
9.45793
3.61108
-25.1447
-3.85676
1.99795
7.18429
-1.56461
-21.505
-2.76966
5.57366
1.65597
-6.03057
4.32404
-6.25257
7.69488
-1.47368
4.78975
-11.0789
-5.19277
-0.654818
-23.0911
-3.71432
2.42947
-18.6264
-20.3267
3.49284
-6.87703
0.50732
5.85257
3.88525
5.64049
4.18998
-4.1175
-0.0845221
1.09745
1.75456
-0.00813115
3.61051
-1.66194
7.79272
-17.9908
5.41644
-5.37251
8.6827
-17.4053
-2.04888
8.42576
-19.2744
-2.02529
-11.0133
5.85512
8.2591
4.3341
-6.64102
4.23945
4.47302
-22.4834
3.08167
-32.9728
5.12535
-20.9961
-20.1513
-12.8936
-13.6509
4.36059
-4.97889
-14.2597
-0.255722
8.11699
-1.078
0.389685
-14.0879
-2.7378
-1.15539
-3.32335
4.22645
1.88967
-12.9464
9.74598
-0.892655
6.93875
4.98443
-0.218581
-0.233287
0.53774
-4.77882
-4.72677
-0.0474263
-0.57617
-0.651673
1.78889
-19.6366
8.5689
5.00928
-0.576788
-13.5504
1.91079
-18.142
3.72466
4.20783
0.476264
-0.453762
4.14773
2.42298
-2.83302
-10.8462
-1.73615
2.72662
7.72429
-14.4443
8.54018
9.80844
8.90603
-8.28204
4.26441
-11.0608
4.19055
4.28991
5.69284
2.74901
5.63579
10.4152
4.31582
-16.5424
-11.5667
-21.7513
10.3272
-0.0104679
-7.97338
-17.2349
4.99008
7.35254
2.9588
-0.469577
-1.35313
6.70455
-1.66685
1.9701
-18.5042
2.81314
-0.576945
-8.10223
0.378258
-11.1813
-13.0409
-23.5126
-7.28335
-0.751796
4.15621
0.10078
0.385187
1.9738
-2.54086
-3.79433
-0.619516
-1.63693
-10.8051
-19.2988
5.30275
6.84683
-22.7931
3.87638
5.20493
6.66602
-0.165984
-57.7757
2.73293
-8.4367
5.80415
-1.78384
5.59537
3.78289
1.57311
5.4468
0.938832
4.62413
-0.375193
2.89204
-3.75965
-10.2768
-6.99378
-0.509093
4.48485
-46.3808
-32.0907
-42.979
7.74591
4.26339
2.68233
-0.433236
6.41195
-5.63508
1.82059
0.372982
-3.85946
1.92351
-31.7507
-11.4782
-3.22047
-10.2679
-4.18887
-27.4215
0.270349
-14.3058
-11.4264
0.801867
8.26036
9.39608
7.42943
-47.0308
2.03996
-10.6762
2.0341
7.11088
1.69728
4.39525
-37.8722
-0.145293
-4.37169
0.585664
5.1387
-2.16835
2.80641
-12.0869
-0.223561
-11.7382
4.57635
2.84489
4.22549
-10.2477
2.01101
-24.0695
-14.5283
-14.3027
-0.31196
7.96152
-7.67085
-12.2138
-19.8574
3.29792
4.24656
-0.848594
3.38925
-10.5852
6.58771
7.39995
-28.9796
-0.0232541
5.69266
-35.0962
-15.4225
0.959914
5.36764
6.05663
-10.8654
-2.30812
0.516313
8.12387
-12.0508
-53.1374
0.512036
6.90465
0.916193
-3.72769
-9.58097
4.66195
3.90304
4.96334
0.357179
-6.44806
2.83607
10.1224
-10.6685
-0.397074
0.768715
-11.0049
0.84599
0.0195758
-15.8625
-2.60995
-17.685
3.50673
-20.4849
-9.61438
4.30126
5.68803
2.07935
-4.50336
-47.1479
2.41979
-11.3269
-4.68093
-3.41926
-0.176284
-10.134
5.47694
2.60261
0.70657
1.69624
7.43181
-20.0478
-1.14213
4.43301
-13.7037
3.58899
-1.05517
-0.507182
-6.27049
4.0162
-0.0213328
-0.0301455
-2.83959
-6.67288
4.81382
-5.78165
1.8166
-39.4077
-4.89135
4.1993
-11.7094
8.81125
-11.2445
-13.6156
-16.6209
5.48067
2.59308
4.21806
-22.4976
6.83197
-24.5368
-1.65343
0.340776
2.07128
4.3697
0.0434864
-2.87239
-0.799291
-20.2075
3.92323
-9.97834
-35.6137
0.0142521
-2.90588
-0.239853
0.166558
7.4385
0.0521253
-11.0864
4.20075
-2.58682
6.00653
-5.99778
1.07832
4.01606
4.47577
-0.137133
-13.6565
-8.44341
0.796854
2.14409
2.68187
-0.541632
-22.215
-1.06687
-4.17423
0.956448
10.5389
2.10167
4.07799
5.95055
1.79867
4.78012
-32.3115
-19.0149
-39.7179
4.2019
10.1354
2.12581
-2.33911
4.97947
0.0643409
0.409828
-0.00136511
0.740057
0.454437
8.83474
-14.7153
-8.81982
8.13298
5.12167
1.30445
2.66726
4.17602
0.932481
-21.0853
-37.0897
2.81431
-12.3362
-9.87905
3.76098
-40.9523
-14.0135
-7.10731
1.79885
2.07509
2.67159
0.702943
4.33239
4.50553
0.260992
3.0056
2.19458
5.55126
4.63413
-3.04793
-0.308995
-0.894233
5.15293
2.74588
2.18074
0.140029
0.63791
-0.646334
7.38383
3.39773
-0.03156
-13.3512
1.71209
3.57098
-1.71044
2.42544
-0.582565
0.303144
-38.241
0.487878
-14.6776
-0.00540608
-2.34992
-14.5429
-10.6916
-10.045
6.2375
-15.5495
-16.6123
-19.1754
7.67111
-21.7892
0.658159
1.97817
-14.5958
4.72319
4.24313
-2.42952
5.41387
1.45107
0.982875
-22.4375
-14.2637
-0.0987963
5.65515
2.56129
-10.7792
-11.329
-31.1517
-18.3588
-19.58
-2.04708
-2.48129
2.54057
4.23643
3.8323
-25.633
0.160025
5.55784
3.88793
-10.7826
0.74218
-22.4208
-1.195
0.412894
0.523592
4.03843
-5.04673
-24.9574
-32.0137
2.22184
-34.064
-20.4001
0.0253622
-59.5331
-9.64176
-14.7851
-17.7689
0.0581503
-21.1954
-0.117331
-10.7439
4.42929
4.16429
-1.50476
5.61868
-27.3913
7.30737
-9.26405
1.18476
-2.99798
2.73592
0.612526
-10.4499
-21.1083
4.56158
5.76317
7.8646
-12.5094
-9.50074
-34.6987
-2.35449
-0.0213245
-11.1761
-6.1084
-11.9618
0.60862
-10.9478
-1.97192
-9.3365
-1.14367
6.65674
1.2995
-1.59496
-0.463841
-4.31391
-15.5995
6.72612
9.3459
-15.3924
3.09162
2.77334
-0.0120166
-21.0321
5.3949
5.67214
-1.20969
-18.7149
-39.1569
-32.3188
-2.74247
-12.0983
-2.2723
4.02345
0.20019
5.06411
-9.45791
-14.5615
4.37804
-2.40381
-13.458
1.26644
4.57329
-14.0296
-1.07908
-13.5486
-11.1314
-12.582
8.06776
-20.8365
0.146755
-11.0687
3.77849
-13.0876
-5.92791
-2.00898
-13.0641
-3.89281
3.07619
-0.0930273
-11.5364
1.87075
0.03425
-40.4477
0.956214
-9.59108
-1.60598
0.148181
4.14451
-15.8703
5.74197
-35.6683
-0.0105572
-0.255054
-7.22763
-35.5059
-10.534
-25.3235
0.758692
2.6574
0.050439
0.0519598
-4.57545
1.14342
-18.5265
4.40418
-6.82493
3.41941
-4.62175
-14.3853
1.6947
10.9177
-19.0799
-14.3894
-10.0738
-7.07456
4.22423
-0.207309
2.00618
-3.39584
-8.9893
-12.4852
-11.4265
-11.7461
1.71689
-10.7375
1.49726
-11.7399
0.671351
1.91775
-0.228983
-4.19608
-1.15075
4.05707
-10.36
-39.9597
4.83883
-0.670771
-11.809
-0.0387069
-3.15826
-4.87614
-0.348383
4.28248
-33.575
2.95299
-8.06763
-2.73101
-10.2483
-9.13741
-19.247
-3.88877
-18.1385
3.95709
2.79225
-20.1194
1.25679
-34.3015
5.62496
5.63036
-14.6249
1.54116
3.65538
4.25633
-1.52569
-34.6035
-9.3343
-6.31915
4.18563
2.19838
-7.96777
-2.57158
-2.66739
5.69303
0.241279
1.51944
1.21393
4.84551
-4.07726
-4.47065
-0.584686
4.06458
1.74602
1.07625
5.83769
5.25407
-0.0337273
-47.3702
4.0605
3.10436
0.678703
-0.150479
-13.0048
-18.8861
-3.16718
-42.4487
5.60457
1.58508
-1.71388
-3.60413
1.25584
-9.90408
2.36636
-49.2614
-2.14625
4.18911
4.97514
-35.0553
3.66459
0.104082
1.89466
2.57835
0.541367
2.8097
-0.0233709
4.43785
3.73777
4.26965
-11.5511
4.9922
4.0382
4.13363
3.89652
-44.2842
-1.05955
-0.652995
-5.22167
4.36926
7.32694
-57.2121
7.35796
-36.8323
-11.4704
2.71838
3.77796
-2.71626
0.514289
-9.09564
-53.6727
-2.20663
-26.5365
-2.3033
-0.162007
1.59573
9.48735
3.43722
-29.8548
-22.0411
2.00195
3.03221
-20.2937
-22.3965
-49.4994
-4.67042
-11.8229
-10.236
4.22228
1.04341
2.92498
-0.843017
-0.682595
-0.296982
-0.221292
0.704988
-3.12966
4.56161
-8.52926
-5.75035
-4.84697
-21.7053
0.609759
3.2084
-1.21782
-8.69591
3.99036
-0.718064
2.79953
-5.11756
3.97883
1.61968
6.73603
4.1435
-39.1787
-0.237068
-3.75153
-46.8228
-0.569474
-0.601427
-4.85183
-60.2209
9.73649
-0.093231
-3.21363
5.64426
-18.2523
-1.71488
-22.4934
-12.2135
-20.8975
-7.19849
-3.37762
0.892744
-8.52915
-41.9641
2.05796
-41.1267
-3.12412
-17.4163
0.151469
4.00852
-18.2285
-24.7228
-3.70461
0.0819762
-5.73772
4.02154
5.96187
-47.8797
4.14292
-1.35875
3.73134
7.68438
-15.3766
3.55566
0.535331
2.80301
5.1654
0.0822404
-2.3374
-15.4658
3.66237
5.95453
-39.9156
0.091267
-10.807
-7.04378
3.16438
-44.0017
-3.61815
-54.4374
2.82296
-8.3588
0.47942
-0.0598704
4.25828
0.47448
-15.6368
0.508147
-0.541973
-9.71903
6.89731
8.68003
4.39225
10.0821
4.77058
4.55658
2.09671
0.553033
5.34407
-21.1952
2.67439
-0.212262
-11.7663
6.18728
-2.89498
-4.44103
8.46748
1.03169
-23.0045
3.16051
2.82023
5.2182
-5.69496
4.40167
8.30657
-16.6395
-11.6426
-4.1343
0.913345
-10.8952
3.83384
0.359123
5.49181
4.1968
-23.1895
3.65197
-2.30876
-20.8599
-18.3436
-39.9419
3.04624
-7.79399
4.33089
-0.802225
-11.2884
0.0415112
-2.59399
-2.6901
-54.889
-17.7349
3.61069
1.8096
-12.5137
-0.820576
3.9291
0.523772
-54.6
3.19145
-0.228511
3.04552
-13.7231
3.81677
2.09802
-4.0099
-1.44977
2.76344
0.65375
2.31355
-10.9804
9.74591
-2.92968
-14.2809
2.86396
1.65225
-12.1412
-4.68686
-11.1241
-2.30494
-1.60676
-6.52072
0.45747
-0.243699
10.1359
1.11596
-21.5825
0.00454503
-4.03374
-2.09592
-3.94859
2.07082
3.96371
-10.6529
0.744519
-9.22201
-1.72951
0.483827
1.83362
3.81331
-0.0173413
-0.0364966
-1.74435
4.11525
0.280726
-0.0489497
-13.9947
-1.04131
-1.35298
4.70686
-14.3839
-0.698829
-15.0923
2.91381
-11.1516
0.000286405
4.61008
3.84183
3.4581
-13.9916
-21.1945
4.23573
-1.73265
5.04157
3.19728
2.06238
3.79357
0.140408
2.2342
0.696989
-5.34506
-20.5013
3.96786
-13.244
4.96447
0.579155
10.2414
0.80082
2.15894
4.21126
1.48543
0.508381
4.00232
-0.192115
0.317698
-8.83025
-0.564906
2.34723
0.441384