/*--------------------------------*- C++ -*----------------------------------*\
| =========                 |                                                 |
| \\      /  F ield         | OpenFOAM: The Open Source CFD Toolbox           |
|  \\    /   O peration     | Version:  2306                                  |
|   \\  /    A nd           | Website:  www.openfoam.com                      |
|    \\/     M anipulation  |                                                 |
\*---------------------------------------------------------------------------*/
FoamFile
{
    version     2.0;
    format      ascii;
    arch        "LSB;label=32;scalar=64";
    class       volVectorField;
    location    "4.7";
    object      U;
}
// * * * * * * * * * * * * * * * * * * * * * * * * * * * * * * * * * * * * * //

dimensions      [0 1 -1 0 0 0 0];

internalField   nonuniform List<vector> 
13486
(
(2.99213 -0.512092 1.53276e-18)
(3.36005 0.444683 8.65068e-19)
(5.35649 0.0218999 0)
(-3.97533 1.6739 -5.64832e-18)
(4.96938 -0.645998 -1.01946e-18)
(4.80716 0.361431 -2.11842e-20)
(5.04537 0.261034 -8.16828e-20)
(4.2176 -1.40295 1.73605e-19)
(4.00769 -0.703259 0)
(3.90277 1.34503 0)
(0.0795303 3.93706 -1.76193e-18)
(4.81386 -0.156024 0)
(2.68251 -0.884105 -1.51375e-18)
(4.6859 1.44543 -3.32715e-20)
(4.76611 -0.0480219 -4.46298e-19)
(3.82168 1.32714 -6.52841e-19)
(3.18926 -1.54256 1.77588e-18)
(-0.0157382 -1.11201 9.92709e-19)
(4.2784 -0.0357329 2.79955e-21)
(3.31032 -0.165151 -1.57298e-18)
(-5.79747 1.39266 -3.28464e-18)
(2.72697 -0.922422 1.97226e-18)
(3.40768 0.424404 -6.8816e-19)
(8.22544 1.12203 0)
(3.9971 1.08618 2.20096e-19)
(8.23329 0.789528 -1.86859e-18)
(0.370868 -0.0108036 2.09249e-18)
(6.30696 -0.231877 1.9046e-18)
(3.92547 0.422252 0)
(6.42211 -0.807648 -1.94968e-18)
(-5.74467 1.08265 -2.5042e-18)
(4.4106 -0.0861089 8.65395e-20)
(6.33391 0.784906 1.02398e-18)
(5.14414 -0.518892 0)
(4.24155 -1.3293 0)
(3.3698 0.033746 9.02445e-21)
(3.1214 -0.217408 -2.91241e-19)
(3.23215 -1.49371 4.69573e-19)
(3.70281 -0.48066 -4.69627e-20)
(4.01932 -0.435538 4.4949e-19)
(5.91075 -1.39104 0)
(2.14654 -1.0475 -1.82545e-18)
(4.30095 0.0172365 0)
(4.03786 0.92209 -1.02364e-18)
(4.07675 0.901137 4.25934e-19)
(4.8036 -0.1628 1.09949e-19)
(-2.94169 -3.20402 5.0913e-18)
(3.84874 0.402969 2.27251e-21)
(3.09246 -0.17342 2.20062e-19)
(5.57803 0.198188 5.25605e-19)
(4.00057 0.0289323 9.74278e-19)
(3.83675 -0.166879 0)
(4.67605 -0.402704 -2.99935e-19)
(3.39963 -1.22349 -7.37433e-19)
(-0.246419 -1.79277 0)
(4.86136 -0.663627 4.91387e-19)
(5.60125 -0.121675 4.55862e-19)
(3.85908 -0.272537 -2.35434e-19)
(6.42249 0.90196 1.39183e-18)
(3.17242 -0.554671 0)
(-0.914756 5.78862 -2.45388e-18)
(3.18399 -0.573318 0)
(6.16788 0.495107 -7.01555e-19)
(-5.84711 1.27774 -3.66773e-20)
(2.29486 -3.64009 0)
(3.07587 -0.273869 -1.54564e-19)
(-4.40887 1.98504 -5.21842e-18)
(2.93624 0.00336191 5.83144e-19)
(4.0057 -0.756632 -1.84036e-19)
(3.24645 0.0223128 7.48923e-20)
(-4.04589 2.04649 5.95863e-18)
(-0.201577 -1.54509 3.24903e-20)
(4.0178 -0.228917 4.04193e-19)
(-1.25591 1.2922 -1.7892e-18)
(2.92696 -0.403937 -3.8538e-20)
(5.54998 0.117444 -9.37348e-20)
(2.82647 -0.337925 1.39708e-19)
(4.79569 -0.0353042 1.95891e-19)
(-2.72693 -3.58591 -2.2447e-18)
(3.76406 -1.81755 0)
(3.72407 0.0825334 -3.28661e-22)
(3.25043 0.636467 -5.54674e-20)
(6.00395 0.118737 -3.33764e-19)
(5.44691 -0.0392704 1.91509e-21)
(2.98153 -0.515511 -3.01151e-18)
(2.56444 2.9494 0)
(2.93902 -0.776686 4.56391e-20)
(4.01468 0.0630411 -1.49656e-18)
(3.76409 0.336647 -6.64626e-19)
(3.57879 1.80867 -8.04761e-19)
(4.28809 -0.296741 -1.41737e-19)
(4.51242 -1.10303 2.28588e-19)
(3.10987 -0.69007 3.68386e-19)
(3.36293 0.0621752 4.38339e-20)
(3.86814 -1.13696 6.93316e-20)
(3.80759 0.329194 -5.98674e-22)
(0.360068 -0.0971791 0)
(-5.14419 2.722 3.1459e-18)
(4.04509 -0.430305 -8.60764e-19)
(2.62974 -1.41796 4.94739e-20)
(3.69595 0.0429873 0)
(4.64998 1.42882 -2.2869e-20)
(-5.27654 2.64439 2.11676e-19)
(3.82751 -0.235679 2.76407e-19)
(2.59857 2.80703 0)
(2.06005 -1.56228 4.07476e-20)
(3.95085 0.0608074 -1.46097e-21)
(3.72334 -0.546332 -1.00325e-19)
(-3.13491 -3.38212 3.1171e-18)
(4.28302 -1.86919 0)
(3.22342 -1.51345 0)
(4.2982 0.242354 3.33662e-19)
(3.42783 -1.17689 1.48368e-20)
(5.46067 0.858525 -1.84125e-20)
(2.27716 -0.199796 0)
(3.05673 -1.49812 -1.3146e-19)
(3.98085 1.12217 0)
(5.57278 -0.49867 0)
(4.00787 -0.207476 0)
(3.1291 -0.0237473 -1.37526e-19)
(0.399096 -1.2093 -4.46572e-19)
(-1.39732 5.51709 0)
(3.79334 -1.01049 0)
(3.72169 -0.483711 1.50713e-19)
(3.9842 -1.32644 0)
(3.83164 -0.16348 0)
(4.4502 -0.362833 1.10158e-21)
(4.30048 0.150877 4.23846e-19)
(4.67803 -0.343128 -2.29355e-19)
(4.17576 -4.55418 -4.83468e-18)
(3.76622 -0.127745 -2.9371e-20)
(-2.95615 -4.05946 -1.31163e-18)
(1.62803 1.8055 3.81264e-18)
(-0.708588 0.686128 2.12618e-18)
(4.00052 0.0111458 -1.55356e-19)
(3.76242 0.727848 -8.50452e-19)
(1.36377 1.15138 -5.83227e-19)
(4.26277 -1.7933 0)
(3.13637 0.0109212 3.93734e-20)
(4.25278 -1.05089 -6.00631e-22)
(6.07489 0.614737 -1.1742e-18)
(4.65599 -0.404733 2.61639e-19)
(4.50629 -0.208263 0)
(3.8447 -1.69896 0)
(4.65091 0.0351294 -2.65698e-20)
(4.06397 1.36613 2.99432e-19)
(4.06055 -0.329883 -3.18255e-21)
(0.746652 2.96418 0)
(5.61749 0.276972 0)
(3.95636 0.397204 0)
(4.02681 0.0113188 1.68268e-20)
(4.99834 -0.219617 0)
(3.74414 0.0604772 3.45905e-22)
(3.20208 0.610876 -4.83941e-19)
(4.30111 0.603472 0)
(5.68037 0.0270976 0)
(4.13421 -1.84069 0)
(1.8328 2.8359 3.86939e-18)
(3.62414 -1.4156 6.95573e-19)
(3.54111 -0.412774 -1.44093e-19)
(5.45673 0.128311 2.51989e-19)
(3.65189 -1.35039 -1.03591e-18)
(3.96475 -0.367421 3.42669e-19)
(1.9846 -0.935366 7.92453e-19)
(3.89138 -0.202531 0)
(4.87952 1.4595 -9.74523e-20)
(4.55823 1.30222 2.64046e-19)
(1.11354 -0.352902 -2.3446e-18)
(3.98972 -0.298475 1.35342e-20)
(-0.734813 0.764807 5.80171e-19)
(1.61892 1.6137 2.09992e-19)
(4.28832 0.544742 3.50948e-19)
(3.99111 0.12866 -1.3099e-18)
(4.56771 -0.175261 -4.61973e-21)
(3.72593 0.169284 -4.1902e-21)
(-4.22489 4.09827 0)
(4.60597 1.99175 -1.48951e-20)
(6.04707 0.797623 1.43598e-18)
(3.96679 0.0541584 -1.44319e-18)
(4.53957 -0.22353 0)
(4.13956 -0.499527 6.53097e-19)
(5.34873 0.800433 -2.99635e-20)
(4.5572 -0.160336 8.49322e-21)
(1.20793 -0.604304 0)
(5.15933 -0.175068 1.23505e-20)
(5.79818 -0.20467 -8.49711e-19)
(4.20547 0.392774 -7.30796e-23)
(5.97832 -0.696189 -4.71274e-19)
(5.78567 -1.33618 0)
(2.84895 -1.35693 -2.62998e-19)
(3.06344 -0.0952532 0)
(5.32227 0.104823 0)
(3.95156 -0.396839 0)
(2.66031 1.41804 -1.09505e-18)
(4.07645 -0.491711 0)
(-0.155102 2.85259 -4.33984e-19)
(2.68319 -4.48607 1.08653e-17)
(5.66624 0.102705 1.69368e-19)
(2.68181 -1.31528 -2.53407e-19)
(4.84815 1.37128 -5.35541e-21)
(-5.42426 0.928102 2.68623e-18)
(4.32369 0.194335 -1.29196e-20)
(3.12453 -1.49296 -5.4619e-19)
(4.62 -1.8193 -6.82978e-19)
(3.55341 -0.446539 1.77016e-19)
(4.13805 -0.458853 -2.2105e-19)
(-1.15131 -0.937232 1.16666e-19)
(3.85762 -0.125787 1.01353e-18)
(3.91462 -0.408425 0)
(5.22284 -0.138537 0)
(6.29654 -0.354548 1.41155e-18)
(8.75265 -0.813531 5.64155e-18)
(3.34393 -0.137204 1.43328e-18)
(3.93038 0.0598233 -1.48861e-21)
(4.80604 0.43878 2.43878e-20)
(5.04851 -2.56419 3.43262e-19)
(6.4099 -0.596775 0)
(3.58396 1.74422 1.92362e-18)
(3.28527 -0.716496 0)
(5.92589 1.51752 0)
(2.34803 -1.63503 -3.28792e-18)
(5.66112 0.361693 0)
(4.1963 -1.05863 -3.11061e-20)
(5.38485 0.133156 0)
(4.71862 -0.526637 -6.43619e-20)
(2.73705 -1.27354 4.88952e-19)
(5.01214 0.759465 -6.93521e-21)
(-5.10831 0.999251 1.9463e-18)
(4.68476 -1.65138 5.80633e-20)
(3.22523 -0.82219 -9.24564e-21)
(4.14713 -0.492183 -2.15279e-19)
(5.81556 0.118788 5.041e-18)
(6.12678 0.671119 1.46768e-18)
(2.15154 -1.0442 6.38277e-19)
(-5.50706 2.14891 0)
(2.55755 -1.2364 5.28797e-20)
(5.70304 -0.698893 8.27125e-19)
(5.36996 0.0913733 2.42275e-20)
(2.39691 -1.14568 1.44696e-18)
(4.58937 -0.122279 0)
(6.61141 1.05414 0)
(4.00709 0.0910965 1.98486e-18)
(5.3078 0.419289 0)
(2.3398 -1.15818 4.44593e-19)
(3.59292 -0.560108 -8.12038e-20)
(3.66582 0.074731 0)
(4.68288 -0.0231281 -2.82655e-20)
(7.92286 -0.462441 4.70266e-18)
(-1.3153 0.818751 3.66342e-18)
(3.9763 0.865905 0)
(-4.35124 3.85985 -1.13325e-18)
(2.21049 -0.138379 2.59325e-19)
(2.78927 -1.3612 9.52327e-20)
(3.74682 -0.553209 0)
(4.27661 -1.55304 1.91727e-19)
(-3.9086 4.90816 1.09871e-18)
(4.38951 -0.110013 1.58042e-20)
(4.91459 -2.71126 -4.3686e-19)
(3.40319 2.7207 -3.86873e-18)
(6.67824 0.884158 1.15377e-18)
(3.58693 0.360454 0)
(3.57474 -0.550108 -4.80004e-21)
(4.70526 -0.0435782 9.92415e-19)
(-4.03336 4.44607 -1.33598e-18)
(4.86395 -1.28933 9.64261e-19)
(1.28439 -0.719192 0)
(4.76331 -1.55729 -5.26003e-19)
(-5.84761 1.23591 -3.70051e-18)
(4.28205 -0.00790771 -5.08041e-19)
(1.65487 -1.15626 0)
(3.00952 1.64904 8.08184e-19)
(3.96203 0.072206 -4.05619e-19)
(6.44428 -0.672098 0)
(4.80565 -0.285205 1.24394e-19)
(2.7161 -1.29576 6.44667e-19)
(7.63556 -0.899793 -2.65685e-18)
(4.30532 -1.40536 0)
(0.256961 -4.34488 0)
(3.77717 -0.625323 -1.11913e-19)
(4.24705 -0.371064 6.0206e-21)
(0.0368921 -4.76184 2.92937e-18)
(4.30347 -0.298375 -2.12145e-19)
(3.90986 0.100849 8.71456e-19)
(5.42022 3.20136 -1.97579e-18)
(-1.64619 5.07465 2.74996e-18)
(3.31227 -0.487281 3.88977e-18)
(5.90302 0.754666 1.08108e-18)
(4.52563 -0.420033 2.99843e-19)
(5.08829 -0.535235 9.83389e-20)
(4.1601 0.00846097 0)
(-5.67167 2.04643 0)
(3.42011 -0.505952 9.41039e-20)
(3.11214 -1.48376 2.08058e-19)
(3.99333 0.0264457 -1.52253e-19)
(5.73411 -0.673277 7.6083e-19)
(5.84683 -0.713683 0)
(5.0436 -0.0250607 -3.78785e-19)
(4.87951 -0.257273 -9.68302e-20)
(3.89502 0.0729498 -7.90744e-19)
(5.66728 -0.122682 -1.81708e-18)
(3.68801 -0.444927 -3.9917e-19)
(-1.08916 -0.864627 1.06603e-19)
(4.34567 -0.329215 -5.21667e-21)
(4.44944 -0.0761245 -5.81486e-20)
(3.19381 -0.0745752 4.59092e-20)
(4.01345 -1.81807 0)
(4.20499 0.180929 0)
(4.30698 -0.0534652 6.6277e-20)
(3.17033 -0.866612 -2.93175e-20)
(3.08657 -0.141306 0)
(3.77621 2.76406 -3.61518e-18)
(-3.66957 1.43576 0)
(4.43895 1.92872 1.23479e-19)
(4.30357 0.201613 1.64699e-19)
(1.22344 6.10317 0)
(3.74904 0.684836 -5.41574e-19)
(3.40739 -0.493503 -1.3982e-19)
(3.74568 0.306348 -5.77145e-20)
(3.84106 -0.118095 -1.14313e-18)
(5.00302 -1.56989 0)
(3.02182 -0.228624 2.83004e-19)
(3.43655 -0.461405 2.0652e-21)
(3.98326 0.0588038 1.82716e-19)
(3.33744 0.177126 -8.33751e-19)
(1.60614 1.1222 1.04925e-18)
(4.34723 -0.24361 3.42496e-19)
(4.58187 -0.469895 7.57902e-19)
(4.34351 -0.295226 0)
(5.04079 -0.253881 7.52909e-22)
(4.65738 -0.437291 2.99961e-19)
(4.00687 0.0259514 2.17034e-18)
(4.60074 -1.05053 0)
(4.14521 -0.349443 -1.27887e-19)
(2.93997 0.615749 0)
(5.15938 0.359465 3.07864e-18)
(3.98671 -1.0171 -1.21743e-19)
(1.72726 -0.811632 8.16878e-19)
(4.99056 -0.275184 1.04366e-18)
(4.02614 0.31249 0)
(3.54874 -0.549832 -1.25217e-19)
(4.85847 -1.58257 5.76288e-19)
(3.35284 0.168532 7.86166e-19)
(4.71177 -0.429601 -8.90849e-19)
(4.5604 -0.153537 -4.62847e-20)
(-1.82131 3.13195 -1.94342e-18)
(3.85829 0.371193 5.36964e-22)
(4.48951 -0.217 0)
(2.19579 -0.763114 1.94141e-18)
(5.93374 1.437 0)
(3.43407 -0.489545 -2.28952e-21)
(4.50472 -0.116446 2.33047e-19)
(4.96039 -0.285655 -1.01352e-19)
(4.83083 -0.276461 1.03129e-19)
(0.211621 -0.241679 -2.39883e-18)
(3.91196 0.0752022 9.83339e-19)
(3.54411 0.0512711 0)
(-1.05928 1.55729 -1.72797e-18)
(4.45827 -0.347248 -1.77879e-20)
(3.2742 -0.829469 6.97582e-21)
(8.27308 -1.74112 4.2304e-18)
(5.00281 -0.0377948 0)
(4.43009 -0.372241 3.10414e-19)
(3.63134 0.21674 1.65698e-18)
(3.94704 0.0826317 1.23998e-18)
(6.45522 -0.878348 0)
(3.7633 0.0388566 -4.32175e-22)
(5.8686 -0.671275 -7.76922e-19)
(-1.48786 -2.9155 8.20088e-19)
(3.27744 -0.17706 1.99792e-19)
(4.45725 -0.313644 1.68594e-20)
(4.43518 0.0157924 7.46309e-21)
(4.47105 -0.24526 0)
(4.74121 -0.565046 -2.2669e-19)
(-4.16204 4.25767 1.01955e-18)
(4.75113 0.799979 -7.42305e-20)
(3.99589 0.0338642 8.13923e-19)
(3.04785 0.0289949 0)
(3.48838 -0.480752 -1.54433e-19)
(1.52866 6.14666 0)
(6.22561 2.50297 -9.11293e-19)
(4.30479 -0.028796 0)
(4.58529 -1.29313 -3.95126e-20)
(2.78502 -0.312136 -4.55096e-19)
(3.04374 1.46312 1.86999e-18)
(-2.52308 -2.98686 -3.56058e-18)
(4.41447 -1.40849 0)
(4.52329 0.138703 -3.20134e-19)
(4.03424 0.333167 -5.42654e-19)
(0.219519 -0.799955 -8.12276e-19)
(-5.95747 1.5749 4.15983e-19)
(3.39517 -0.16608 -2.12815e-18)
(6.45612 -0.487935 8.31621e-19)
(4.13169 0.338098 4.04997e-19)
(3.06805 -0.951622 0)
(2.83194 0.460348 9.86821e-19)
(3.11473 0.0886794 -1.2183e-19)
(-4.09901 1.70631 3.30109e-18)
(-4.16864 3.91832 -3.45772e-18)
(0.740381 -1.29204 -1.58784e-18)
(5.99948 0.686386 0)
(0.031475 -1.04878 0)
(3.87669 2.10485 0)
(4.25716 -0.123306 0)
(4.47977 -0.385595 -2.56327e-18)
(4.91141 0.420434 0)
(2.79445 -0.677444 0)
(3.41093 0.121596 3.13153e-19)
(6.07056 0.872297 -1.50576e-18)
(4.43231 -0.23593 -1.70546e-19)
(3.43945 0.508581 2.92887e-18)
(4.01451 0.0359552 -2.74293e-19)
(4.35899 3.04602 0)
(6.39181 -0.214452 0)
(3.88368 0.0764325 8.48331e-19)
(3.98304 0.0399824 1.47356e-19)
(2.62254 1.55478 0)
(1.14677 -0.511679 2.12057e-18)
(4.83726 -1.33512 -1.09282e-18)
(0.844864 1.32433 0)
(4.59559 -0.118919 6.74722e-20)
(3.96562 0.0602968 -9.77413e-19)
(2.34211 0.97799 -4.4126e-19)
(2.17837 -0.747614 0)
(4.00885 0.331394 1.00408e-18)
(5.14079 0.497801 0)
(5.96045 -0.672259 0)
(4.3524 0.386028 -6.0897e-20)
(3.89529 0.107182 4.66811e-19)
(0.586199 -0.0390831 -2.7096e-18)
(4.48597 1.28249 1.28557e-19)
(2.83326 -0.73787 -7.3926e-19)
(4.25846 -0.0994612 5.94824e-20)
(4.13921 0.35572 3.21113e-19)
(5.15294 -0.581783 5.50872e-19)
(5.0969 -1.24166 0)
(7.58137 -0.145521 1.93635e-18)
(2.78989 -0.205088 0)
(3.43363 -0.501164 8.73848e-20)
(4.53725 -0.202523 0)
(2.98224 0.0290897 1.22095e-18)
(-3.3829 -2.85209 -3.81144e-18)
(6.40038 -0.449738 0)
(-0.312412 0.598454 9.37902e-20)
(6.48634 -0.232345 -1.68391e-18)
(3.32931 -0.61095 -1.34918e-20)
(3.68143 -0.529069 1.53993e-18)
(2.81585 1.42441 -1.22619e-18)
(2.80543 -0.73666 -2.16267e-18)
(6.66167 2.42106 0)
(3.1248 -0.056117 1.2519e-19)
(-2.14888 3.88504 -4.92535e-18)
(4.01085 0.359105 0)
(3.71633 0.351915 6.24869e-20)
(5.5623 0.0875796 -1.12614e-19)
(5.13858 2.18842 0)
(4.00539 0.0146771 0)
(-2.2048 1.99563 0)
(-4.01613 3.85996 5.70479e-18)
(5.70631 4.10903 2.36682e-18)
(4.59106 1.99515 -1.52881e-19)
(4.37927 1.86033 0)
(3.5379 -0.374398 1.22922e-18)
(3.68962 0.163985 8.10539e-21)
(4.4811 1.18349 -2.77734e-19)
(-5.12915 1.39062 5.62616e-18)
(3.84338 0.235728 0)
(3.87985 0.40097 0)
(1.67407 -0.329053 -1.43284e-18)
(3.00753 -0.925538 -4.7868e-19)
(4.00718 -0.318963 0)
(3.43636 -1.62695 2.81454e-19)
(3.78503 0.0445383 -5.95898e-21)
(3.82169 0.296794 1.53805e-21)
(1.89029 -0.882663 0)
(4.21527 -0.206893 3.25664e-19)
(3.14662 0.0338326 1.08697e-19)
(5.13375 0.455661 1.91044e-19)
(3.96826 -1.07555 0)
(3.54587 -0.697889 -5.90013e-18)
(4.90107 -0.28133 1.05469e-19)
(3.99962 0.129708 2.0325e-19)
(3.4042 0.0588238 4.16641e-20)
(4.9988 1.44126 0)
(3.39283 0.519143 -7.79206e-19)
(5.83428 1.08185 -5.63336e-19)
(1.42413 -1.42614 3.26994e-19)
(4.02112 0.0708446 0)
(-5.80551 1.26669 -4.33331e-19)
(1.17025 -0.265122 0)
(4.01649 0.067949 -7.9145e-19)
(3.98758 0.0833368 3.25525e-19)
(3.8074 0.0356064 -1.65806e-19)
(-4.0717 4.29546 0)
(5.00818 -0.0152259 -1.99106e-20)
(2.31241 0.720778 2.82981e-18)
(4.99178 -1.21897 0)
(3.35245 0.0929976 9.917e-19)
(5.58786 -0.294486 2.05313e-18)
(4.4726 0.0115327 0)
(-5.56898 0.975401 1.82358e-18)
(3.82539 -1.62922 -2.9522e-19)
(4.47446 0.00902602 0)
(1.88443 -1.35683 3.84095e-18)
(3.69056 0.336 0)
(3.72823 -1.65225 1.08901e-19)
(-4.43636 3.94806 2.27897e-18)
(4.19035 0.432954 3.27469e-24)
(4.84876 0.374254 -1.72291e-20)
(2.82066 0.452346 5.17271e-19)
(3.6682 -0.573959 -5.62831e-19)
(4.42185 -1.26275 -2.04436e-19)
(3.74723 -1.62688 1.57577e-20)
(4.4161 -0.324393 5.62135e-20)
(4.98168 1.43204 2.31516e-19)
(4.49443 -1.9196 0)
(3.994 0.019998 -7.21871e-19)
(1.18867 1.54326 -2.11204e-18)
(2.85234 -0.213795 0)
(2.86147 0.173797 -5.52372e-20)
(3.1388 0.0269887 0)
(2.58397 -0.773615 1.91226e-18)
(4.52479 -1.50522 0)
(3.56152 0.019819 -2.13145e-20)
(4.54342 -0.142537 -1.35148e-19)
(-5.36779 0.816177 3.39482e-18)
(-3.19257 2.41811 3.20824e-18)
(4.8391 -0.0390526 -1.29946e-21)
(3.66236 -1.7152 -8.27538e-19)
(3.75466 -1.00633 3.74058e-19)
(3.1085 -0.692177 0)
(1.01634 -0.699822 -1.26904e-18)
(5.12556 -1.0045 2.1223e-19)
(0.958395 -0.733606 -1.48366e-18)
(3.82212 0.345117 -8.88262e-22)
(3.02473 -1.16537 0)
(4.40209 -0.00315263 -4.95069e-21)
(1.22227 -0.618767 0)
(-5.19217 2.90159 2.06574e-19)
(2.50678 1.00828 4.89273e-19)
(3.66121 2.42458 0)
(4.34695 -0.93966 -3.34494e-20)
(2.3596 -3.47909 0)
(5.20352 1.97399 0)
(3.45833 -1.6044 -1.49575e-19)
(3.00024 0.544369 7.92551e-19)
(3.10667 -2.07424 0)
(3.64916 0.265297 -4.64212e-19)
(4.23544 1.34531 -5.20398e-19)
(-3.94328 4.45295 4.47373e-18)
(5.05454 2.67999 0)
(4.27384 -0.0474627 0)
(-1.66333 3.37737 -2.13388e-18)
(3.8554 -0.223933 0)
(5.24513 -0.0515873 0)
(-1.51506 6.02998 -7.61688e-20)
(4.29903 -0.624525 -1.32499e-19)
(3.64424 -0.828917 3.97929e-19)
(7.00372 0.960717 1.74058e-19)
(1.10394 -0.625871 2.69142e-18)
(3.99177 0.0768874 3.67828e-19)
(3.17443 -0.755805 0)
(4.24933 0.883807 -1.72123e-19)
(2.96262 -0.464345 0)
(4.87602 -0.000782015 0)
(3.99172 0.165867 0)
(4.32519 0.348251 -4.98795e-20)
(3.80772 -0.114466 5.41275e-19)
(5.17866 0.344247 4.32101e-20)
(3.26927 -0.757981 0)
(0.0775253 -0.00600993 -1.96921e-18)
(3.92149 2.0148 3.29245e-19)
(3.97335 -1.34773 6.40571e-21)
(4.73464 -0.46789 -5.15194e-19)
(7.4498 -0.880728 4.3009e-18)
(4.15917 0.0752957 -5.46138e-19)
(-3.38549 -2.31279 0)
(4.85965 -0.264971 0)
(2.90736 1.45882 0)
(2.62287 -1.15749 -1.31092e-18)
(-2.96868 -2.07493 -5.09778e-18)
(4.41749 2.3532 0)
(4.29972 0.908908 0)
(4.76106 -0.530208 2.93125e-19)
(4.00773 -0.00433522 -9.67083e-20)
(3.74627 1.09866 9.40157e-19)
(4.71295 -1.83307 0)
(1.43518 -0.984653 -6.85152e-19)
(4.59081 0.156004 1.44896e-19)
(2.93796 -0.854227 -1.18946e-18)
(4.37165 0.137628 -2.91427e-19)
(4.45891 1.19356 4.39746e-19)
(7.02222 1.76235 5.85235e-18)
(2.58033 -1.17125 2.28662e-18)
(5.51189 -4.60019 3.09204e-18)
(5.41674 0.683525 -3.31487e-20)
(3.99749 0.0132951 -1.74217e-19)
(3.18876 -1.44272 1.33322e-19)
(3.88066 -1.51078 1.25191e-19)
(2.98845 3.63765 -1.9811e-19)
(3.39196 -1.59653 -9.79575e-20)
(5.0128 -0.235004 0)
(3.02808 -0.695529 -1.41957e-20)
(4.31267 -0.0455178 -8.01724e-19)
(5.55901 1.56243 3.30401e-19)
(2.88387 -0.789581 -1.11245e-18)
(3.9355 -1.29805 -1.76705e-19)
(4.04069 -0.0165932 5.19945e-19)
(5.24419 -0.0958027 -2.94019e-19)
(2.73206 -0.582148 -2.77953e-19)
(5.85541 0.71326 -5.91484e-19)
(2.44366 -0.398356 -2.80223e-18)
(4.40347 -0.00758407 -6.54382e-19)
(2.41637 -0.508594 0)
(-5.7612 1.24552 -7.92864e-18)
(4.16941 0.0602213 1.18212e-18)
(3.124 0.00235749 1.75108e-21)
(-1.35261 1.35803 0)
(4.03119 -1.79956 0)
(3.99603 0.780258 8.09472e-19)
(2.18791 -0.386296 1.78662e-18)
(0.204629 0.00152009 -1.20004e-17)
(4.64095 -1.2857 3.57338e-19)
(4.62598 -0.483579 -4.36033e-19)
(6.02874 1.40982 0)
(4.01307 0.855971 4.45588e-19)
(-0.416407 -0.99483 -7.43402e-20)
(4.69679 2.05018 9.88545e-20)
(4.09225 -0.458174 -4.67769e-19)
(1.2497 -0.6677 -4.38728e-18)
(7.2567 -1.08305 -3.94553e-18)
(7.77384 -0.0925633 1.0199e-18)
(4.27977 2.26495 0)
(5.41374 -1.40821 -4.62582e-19)
(3.82844 0.0293552 1.48174e-19)
(3.71886 0.112423 -4.02769e-21)
(2.00709 -0.967403 2.2089e-18)
(4.03888 -0.469431 7.06154e-19)
(3.64966 -0.490077 8.97763e-20)
(-3.97072 4.16158 -2.50787e-18)
(5.54169 -0.40722 -7.23519e-19)
(4.35831 -0.0241951 5.84517e-19)
(-1.00867 4.38167 -3.25573e-19)
(4.54215 1.90975 1.76155e-19)
(2.36862 -1.36105 -4.16996e-18)
(2.46113 -1.18925 -5.84908e-19)
(3.7727 0.0936137 0)
(5.62462 0.326517 3.773e-19)
(-2.8082 5.89713 -2.05336e-18)
(2.77378 -0.363322 2.44548e-18)
(4.39889 0.343119 0)
(3.90951 -0.588339 4.18492e-19)
(2.49113 -1.02514 5.39725e-19)
(3.99585 0.0537284 -1.58558e-18)
(-0.773916 1.52978 -2.07581e-18)
(3.15295 -1.97181 -5.30148e-20)
(4.44578 -0.231477 1.08913e-19)
(4.49466 0.14651 4.70242e-19)
(3.79502 -1.67558 -3.87122e-20)
(5.2675 0.42975 -7.73381e-20)
(-2.34061 -1.99601 -1.35321e-17)
(4.27737 -0.0349093 7.52359e-19)
(4.23021 -0.0872059 -2.66616e-19)
(4.23436 0.192649 -1.78943e-20)
(4.66923 -0.0379542 -4.77404e-19)
(2.40766 -1.05224 -1.04763e-18)
(5.33019 0.656263 0)
(-5.00188 3.27472 4.72149e-18)
(4.22628 0.0849216 1.05848e-19)
(2.99204 0.911638 -3.09349e-19)
(4.93141 0.110311 2.00568e-20)
(4.54871 -0.572009 1.78362e-19)
(3.99921 0.0299 -1.30859e-18)
(4.1308 0.59868 2.46857e-19)
(1.06644 -0.450741 -2.17778e-18)
(5.34928 -0.0488488 0)
(3.48056 -0.489645 8.09387e-20)
(4.97747 -0.306531 1.03612e-19)
(3.04877 -1.1342 0)
(4.21795 0.146432 4.70192e-19)
(5.02793 -0.265413 1.028e-19)
(5.26046 -0.0316712 1.95952e-24)
(6.11393 -1.40698 1.77326e-18)
(4.24575 -0.460555 0)
(3.56875 0.602052 1.44192e-18)
(3.81719 -0.625849 -1.40951e-19)
(3.29049 -1.56333 2.29241e-20)
(4.13322 -0.309404 0)
(3.0006 0.475421 -2.27897e-18)
(0.824521 -1.00931 -5.14892e-19)
(4.62332 2.78127 -5.26738e-19)
(2.46615 -0.439515 2.69186e-18)
(4.59882 0.0388206 -3.77459e-20)
(-2.81539 2.28255 2.40636e-18)
(3.96272 -0.196208 -7.2213e-19)
(7.22557 0.119391 -2.40682e-18)
(3.60991 0.227639 -9.6885e-19)
(4.42567 0.0464296 0)
(3.99959 0.0291013 -6.54218e-19)
(1.52236 0.0121525 1.23254e-17)
(-0.788595 1.20872 0)
(8.49754 -0.164822 0)
(3.72028 0.107968 0)
(2.03806 -1.52669 0)
(4.05896 0.576386 0)
(2.32242 -0.374327 0)
(5.42621 -2.48755 -4.85858e-20)
(4.82225 2.3943 -1.46099e-19)
(5.05825 0.818169 0)
(3.54105 0.565662 2.20139e-18)
(1.80321 -1.44974 7.52144e-19)
(4.12297 0.363781 1.52204e-20)
(-2.42579 5.95945 -8.00544e-19)
(2.33028 0.0440559 2.16067e-21)
(1.05212 -0.440143 1.8554e-18)
(3.83827 0.00283916 -1.0457e-19)
(5.62998 0.186018 8.03376e-20)
(4.01411 0.538211 -5.44295e-19)
(3.76972 0.284059 -1.31139e-18)
(3.81846 1.86906 -7.36847e-19)
(6.38913 2.38404 0)
(-5.83244 1.14865 1.36353e-18)
(2.64033 -0.818641 -2.09996e-18)
(4.01754 0.0228895 -1.97977e-18)
(5.14266 -1.07996 2.20324e-18)
(4.4357 0.00975791 9.30087e-20)
(6.15833 -0.508718 -2.66464e-18)
(4.38365 -0.452737 -7.09493e-21)
(4.36279 -0.913579 1.27555e-19)
(4.03784 0.298802 5.67623e-19)
(3.60159 2.5199 0)
(4.35231 -1.10178 -1.75813e-19)
(3.45153 0.0688592 -2.92909e-19)
(4.81495 0.435842 0)
(3.83188 -0.556489 0)
(4.00388 -1.76447 -2.29661e-20)
(-4.03101 2.85474 2.78098e-18)
(5.27337 -2.66383 -1.8652e-18)
(3.62585 -0.144112 0)
(3.89243 -0.118657 -1.05264e-18)
(3.63445 0.354778 -2.57953e-19)
(-5.52171 2.27753 2.70662e-18)
(5.11843 -0.169125 2.28177e-20)
(0.508076 0.0546745 0)
(-5.9027 1.2842 1.43014e-18)
(5.15436 -0.218375 0)
(5.34198 -1.51329 4.95038e-19)
(4.3007 -0.36834 -2.07081e-19)
(4.00939 0.0156225 4.2661e-22)
(4.59773 1.3305 -4.70087e-19)
(5.05944 2.46325 -1.06033e-19)
(3.65956 -0.959658 8.56573e-19)
(-4.29423 0.254196 0)
(1.83639 -4.78629 -9.94344e-18)
(1.97662 -3.01616 0)
(5.16918 0.820503 -1.0383e-19)
(-5.50208 2.68236 5.19177e-18)
(9.09641 -0.155394 5.29013e-18)
(3.51982 -0.494436 -8.16759e-20)
(-3.54624 5.32006 -6.66552e-18)
(2.95088 -1.43468 -2.65845e-20)
(2.72398 -0.826148 -1.16101e-18)
(3.09041 0.0537425 4.34892e-20)
(3.03045 -4.7047 8.17594e-18)
(2.46015 -1.08019 8.6769e-19)
(2.82972 -0.876132 1.25171e-18)
(-3.1133 -1.36485 5.8919e-18)
(4.45584 -4.27628 -4.99774e-18)
(3.90862 -1.13955 2.3817e-19)
(-3.06254 -2.76489 3.65124e-18)
(5.18097 0.100353 -3.74711e-20)
(1.76376 -1.58389 -6.2933e-19)
(4.56476 0.844304 -1.86805e-19)
(4.83777 -0.719004 0)
(1.74785 -1.5183 -3.30709e-18)
(4.18796 -0.0381696 -9.2e-19)
(3.98221 0.186567 0)
(5.12529 0.767654 0)
(0.147163 -4.94485 -4.69753e-18)
(7.54296 1.15653 -2.00951e-18)
(4.77635 0.488657 -1.4716e-19)
(4.2878 -0.62289 1.65038e-19)
(3.79932 1.78427 6.54284e-19)
(3.03613 -0.0230323 3.12415e-19)
(-5.35725 3.09773 -3.12125e-19)
(3.53224 1.1417 0)
(2.88379 -0.929559 1.17772e-18)
(-0.181358 0.81716 5.53807e-19)
(-3.55431 4.96643 5.11851e-18)
(3.63509 -1.327 1.08329e-19)
(4.2484 -1.9013 8.02193e-19)
(3.75337 -0.0267738 1.83821e-19)
(3.66572 -0.47657 4.99667e-20)
(6.24569 -0.954518 1.97901e-18)
(-5.11638 3.15918 -3.27289e-18)
(4.73681 0.479883 1.17189e-19)
(3.92613 0.0652854 4.83361e-19)
(2.40429 -0.509771 -1.11058e-18)
(3.8631 -0.185767 6.33908e-19)
(2.15974 -0.537559 0)
(4.72951 0.823008 1.53941e-19)
(3.9761 0.057369 1.08581e-19)
(3.06634 -0.635136 -3.79739e-19)
(3.4486 3.27493 -6.0802e-20)
(3.84158 -1.11693 2.40067e-19)
(4.22894 0.0469167 1.8853e-19)
(2.84028 0.159052 -1.72046e-18)
(4.89853 0.297335 0)
(3.50361 -0.450534 -1.63538e-19)
(4.40832 0.187011 3.97307e-19)
(4.9396 -0.510063 0)
(2.88836 -0.0477308 9.54605e-19)
(5.16555 -0.165381 0)
(3.33339 3.21793 8.53504e-19)
(5.02836 -0.0509422 0)
(4.34531 -1.24201 0)
(4.87914 -0.110543 5.14839e-20)
(4.73881 0.376053 1.29672e-19)
(5.73022 0.818807 -8.22011e-19)
(3.85245 0.211778 -5.96438e-19)
(3.06161 2.15418 -5.21869e-19)
(3.98864 0.145218 -2.53361e-19)
(4.10669 0.594088 0)
(-0.628397 -3.45259 -7.01609e-21)
(4.9475 0.372938 6.06578e-20)
(5.20847 -1.49252 -9.83079e-19)
(4.80985 -0.727319 0)
(5.63439 1.53261 5.29882e-19)
(4.05739 3.06667 6.5784e-21)
(5.11749 0.072912 -1.44859e-19)
(0.0953465 5.56323 0)
(-0.978208 6.1562 2.32897e-18)
(4.06956 0.282708 0)
(6.19485 -0.738112 -9.34404e-19)
(-1.19132 0.729008 0)
(3.98089 -1.00931 0)
(5.22424 -5.18197 0)
(4.40217 -1.50708 0)
(0.966864 0.909403 -2.87663e-19)
(-4.15565 3.74024 -1.27753e-18)
(3.7934 -0.0909129 -8.17791e-19)
(-5.63957 0.919665 -4.27907e-18)
(2.61847 -1.12283 0)
(-5.14698 0.614764 -3.65948e-18)
(-1.48048 0.831404 -3.58448e-18)
(3.30083 -1.52467 0)
(3.0627 -1.06303 -1.12716e-18)
(2.88938 -0.467195 -5.3893e-20)
(4.54027 0.818966 4.58217e-19)
(5.66567 -1.4451 -1.44606e-18)
(3.74506 0.262455 0)
(4.8375 -1.23529 0)
(5.9365 0.910053 3.38362e-19)
(3.88082 -1.32014 2.86208e-20)
(3.18942 -0.109271 -9.23764e-20)
(0.267935 -5.02855 3.15481e-19)
(3.99566 0.00485737 4.85182e-20)
(5.67365 0.422308 -1.8485e-20)
(4.02876 0.296023 8.18873e-19)
(3.45831 -0.457836 8.49923e-20)
(3.96761 -0.974361 0)
(2.13821 -0.00467547 0)
(5.24822 0.385305 0)
(3.33331 0.0445217 0)
(3.60662 -0.634155 4.23859e-19)
(5.93436 0.398813 0)
(-0.91357 4.90917 3.73587e-18)
(5.36449 1.02178 5.13306e-19)
(2.77048 -0.898938 -1.91364e-18)
(1.57544 -1.28905 -3.82907e-19)
(-4.85959 2.72468 -2.48191e-18)
(-0.26939 4.29313 -1.79611e-18)
(4.11294 0.0757046 1.48717e-19)
(-4.95197 3.78728 -2.84148e-18)
(3.43379 -0.457824 1.37271e-19)
(4.94227 -0.0844211 0)
(4.73153 -0.224697 0)
(2.65647 -1.09256 0)
(4.55918 -0.594553 -1.1299e-19)
(3.9939 -3.81711 0)
(3.6088 1.114 0)
(4.00375 0.00654087 0)
(3.69163 -0.848869 3.65679e-19)
(4.13985 0.355925 -8.13317e-19)
(3.25871 0.0428109 0)
(5.75921 -2.36041 -1.6421e-18)
(3.94554 0.300026 -7.51169e-19)
(4.73443 1.85041 -2.12681e-19)
(3.32938 -1.52958 4.51369e-19)
(3.72555 1.24477 4.63298e-21)
(3.76842 -1.90294 -2.68497e-20)
(3.74746 -0.607246 1.1081e-19)
(4.47153 -1.61059 -4.2048e-19)
(4.69058 0.379573 -1.65016e-19)
(3.18089 -0.0550904 -2.04418e-19)
(3.68673 0.0930257 -8.82552e-19)
(4.24726 -0.033211 0)
(2.97713 0.843505 2.22666e-19)
(3.94216 0.0701974 9.05299e-19)
(-0.129254 -1.34408 -4.41892e-19)
(4.36553 -0.433889 -4.51225e-20)
(2.24804 -0.432167 -1.95583e-18)
(4.72218 0.340752 2.61797e-20)
(5.86278 1.14375 8.05894e-19)
(3.99242 0.127066 0)
(2.77344 -0.635224 -5.68238e-20)
(3.62017 -0.229628 -5.38884e-20)
(4.5621 -1.62297 9.03765e-19)
(-5.42672 1.37873 -6.1797e-18)
(4.09756 0.0322129 4.01843e-19)
(5.37405 0.550568 2.98446e-20)
(4.5899 0.0568744 2.93512e-20)
(5.1226 0.372367 0)
(1.56199 -0.739508 0)
(3.07532 -1.45871 6.62113e-19)
(-0.995746 1.57212 2.24201e-18)
(3.76602 0.0527451 2.60812e-23)
(3.94596 0.0744563 1.80248e-18)
(2.85029 -0.657824 1.84432e-19)
(2.9527 0.427793 0)
(3.63072 0.116169 0)
(3.33263 -0.731754 -2.79993e-20)
(4.71791 -0.0428847 8.62798e-20)
(3.82131 1.19544 1.27432e-18)
(4.54877 -0.196345 0)
(4.77308 0.0693172 0)
(4.46855 -1.02387 -5.52095e-19)
(4.08877 -0.286416 4.49246e-19)
(-0.869533 -1.65581 -1.74862e-18)
(4.16259 -0.298378 0)
(3.85791 -1.37224 3.8743e-19)
(6.99426 -2.44705 -8.23839e-19)
(-2.82919 5.50286 -2.16413e-18)
(4.07415 -0.0515401 -7.87149e-19)
(5.84862 2.22811 0)
(7.68371 1.33622 1.65474e-18)
(0.832396 5.06651 -8.32763e-18)
(-1.28258 -1.85973 0)
(3.32904 0.057096 -1.29468e-19)
(3.86027 0.156525 -6.11064e-19)
(3.62818 0.0347163 -6.98311e-23)
(4.29767 -0.275971 1.15129e-19)
(2.6222 2.49487 1.13175e-18)
(4.14024 0.0439377 0)
(2.2249 -0.807606 -2.38759e-20)
(2.68704 -0.64969 -1.72025e-19)
(1.85232 5.9522 -3.81446e-18)
(4.04298 0.531526 6.47723e-19)
(-3.82717 0.635275 1.56378e-18)
(4.14809 0.0349262 -1.81052e-18)
(3.49546 -0.47902 -4.17564e-20)
(3.62331 -0.569815 8.92182e-20)
(3.60116 -0.773072 0)
(3.64164 0.00823002 -2.88503e-19)
(2.39512 -1.10493 6.89061e-19)
(4.49176 -0.139124 -3.15514e-19)
(3.98468 0.0561461 -8.01329e-19)
(6.08429 -0.810956 8.0387e-19)
(3.43165 -0.37361 1.90223e-18)
(5.02619 0.0840399 4.59483e-20)
(3.59877 0.135767 5.39217e-19)
(2.8287 0.110819 -2.0676e-19)
(6.94221 1.11213 -1.88465e-18)
(4.57789 2.04577 -5.35539e-20)
(1.17745 0.351175 9.45317e-18)
(3.88265 -0.0278701 0)
(2.90062 -0.987578 0)
(5.76831 0.499996 0)
(2.77098 -0.84153 1.49064e-18)
(4.18197 0.0717856 -1.28489e-18)
(3.60805 0.376571 0)
(3.1533 -0.672793 -1.0739e-18)
(3.6051 0.30709 0)
(3.62431 -0.562786 -6.87325e-19)
(5.14377 -1.57527 -1.09754e-18)
(3.90505 -0.923265 -2.96546e-19)
(4.23054 0.0408952 0)
(3.9339 0.049152 0)
(4.974 -0.543057 4.64409e-19)
(5.01953 0.689321 6.93838e-21)
(5.77872 0.043094 6.65991e-19)
(4.36056 3.2569 -2.50575e-20)
(4.41192 -0.208872 0)
(3.66082 -1.28563 -1.70696e-19)
(-0.63845 1.2746 0)
(1.88788 1.6205 -1.08333e-18)
(5.08966 2.47584 0)
(5.31176 0.530387 -5.2196e-20)
(2.4462 -0.369176 7.37511e-19)
(3.14355 -0.301984 6.58157e-19)
(3.87954 -0.326545 -4.73804e-19)
(6.17691 -0.0808455 -2.50344e-17)
(4.03399 -0.341612 1.14102e-18)
(4.07588 0.565005 -1.49001e-20)
(6.18537 -0.35148 3.09225e-18)
(4.12829 -0.763899 -9.46876e-20)
(-0.283562 1.11712 1.56335e-18)
(5.06659 1.04489 0)
(3.98924 0.0568712 -3.41585e-22)