/*--------------------------------*- C++ -*----------------------------------*\
| =========                 |                                                 |
| \\      /  F ield         | OpenFOAM: The Open Source CFD Toolbox           |
|  \\    /   O peration     | Version:  2306                                  |
|   \\  /    A nd           | Website:  www.openfoam.com                      |
|    \\/     M anipulation  |                                                 |
\*---------------------------------------------------------------------------*/
FoamFile
{
    version     2.0;
    format      ascii;
    arch        "LSB;label=32;scalar=64";
    class       volVectorField;
    location    "6.7";
    object      U;
}
// * * * * * * * * * * * * * * * * * * * * * * * * * * * * * * * * * * * * * //

dimensions      [0 1 -1 0 0 0 0];

internalField   nonuniform List<vector> 
13486
(
(3.43669 -0.863769 1.80885e-18)
(3.55031 -0.000610629 1.00085e-18)
(4.85207 -0.0824792 0)
(5.12044 -2.89549 -2.30609e-18)
(5.63203 -0.874233 -1.57709e-19)
(4.46984 0.188082 -1.92363e-19)
(6.35132 -0.105978 1.45563e-20)
(4.72357 -1.64061 -5.62145e-19)
(4.46763 -0.898126 0)
(3.81192 0.695767 0)
(-1.79256 1.41256 -3.09793e-18)
(4.47004 0.236853 0)
(3.22028 -1.21768 -1.77485e-18)
(4.35128 0.820372 -2.33644e-19)
(5.70972 -0.0044983 -9.12908e-20)
(3.75718 0.670086 -8.4209e-19)
(1.52687 -0.530747 1.59108e-18)
(4.65917 4.51444 -6.66505e-18)
(4.01475 0.0860385 1.48142e-20)
(3.66498 -0.523078 -1.91052e-18)
(5.56129 -3.8967 -1.9769e-18)
(3.25189 -1.24062 2.32213e-18)
(3.58391 0.000504116 -7.95064e-19)
(4.70852 -1.56712 0)
(3.91455 0.564384 2.95207e-19)
(4.48063 -1.25336 2.17392e-19)
(-0.159463 0.289844 1.83727e-18)
(5.36603 0.0479385 -1.13513e-18)
(2.32102 -0.306449 0)
(5.01488 0.64069 1.42739e-18)
(6.13243 -2.63539 -3.28509e-18)
(5.32355 0.771689 -8.14638e-20)
(5.50597 0.000942649 3.15266e-19)
(5.57022 0.227027 0)
(4.74574 -1.56738 0)
(3.03132 0.0227474 -7.26218e-20)
(3.82751 -0.469612 4.32463e-19)
(3.72345 -1.73651 7.96081e-19)
(5.10777 -1.97194 -1.38974e-19)
(4.40772 -0.590486 8.56493e-19)
(6.27884 -1.81608 0)
(2.56795 -1.27329 -2.05641e-18)
(4.76193 0.0442542 0)
(3.95022 0.471442 -1.38577e-18)
(3.9777 0.452411 5.77987e-19)
(4.40382 0.232985 6.93645e-19)
(-0.0707999 1.20538 2.42216e-18)
(2.667 -0.257436 -7.62288e-20)
(3.81889 -0.4298 -3.29609e-19)
(4.94795 0.0863593 -2.21231e-19)
(4.00126 0.0219179 1.28145e-18)
(5.51369 -0.815251 0)
(4.10169 0.698109 -1.14126e-18)
(3.90005 -1.48253 -1.19277e-18)
(3.56085 4.29429 0)
(5.52168 -0.883896 -1.95056e-20)
(3.52384 -0.480993 -2.24661e-19)
(5.77517 -1.25043 -3.70741e-19)
(5.39405 -0.041432 1.69194e-19)
(3.73964 -0.650491 0)
(-1.91325 0.265918 -3.76786e-18)
(3.68731 -0.643979 0)
(6.09327 1.74973 -8.24199e-19)
(6.01464 -3.67013 -2.55493e-20)
(-2.38321 -3.87669 0)
(3.81221 -0.519645 2.1658e-19)
(3.85599 -2.62911 -1.31053e-18)
(3.32328 -0.437093 6.49944e-19)
(4.48289 -0.955722 -4.49897e-19)
(2.93336 0.0844348 -8.43558e-20)
(4.37834 -2.48584 1.52172e-18)
(3.65122 4.22507 -3.92178e-19)
(4.31865 -0.371438 6.77084e-19)
(-1.03501 -0.577747 -1.35368e-18)
(3.74299 -0.530188 4.63644e-20)
(3.20876 -0.478437 5.1044e-20)
(3.70378 -0.480976 -1.57891e-19)
(5.76679 -0.0622796 4.12351e-20)
(-0.276624 1.97497 -1.51737e-18)
(3.34723 3.72514 0)
(3.35415 0.0281029 3.2215e-20)
(3.45217 0.11127 -6.30936e-20)
(5.18739 1.68516 1.58485e-19)
(4.857 -0.163438 -2.05775e-19)
(3.43428 -0.872672 -3.56369e-18)
(2.77609 1.68302 0)
(1.04712 -1.96686 -4.4457e-19)
(4.00495 0.0433315 -1.97944e-18)
(3.84907 0.041452 -8.24486e-19)
(3.49962 0.983247 -1.12774e-18)
(4.89172 1.22366 -1.14831e-19)
(5.0248 -1.3366 -2.3989e-19)
(3.56777 -0.999045 4.62744e-19)
(3.63588 -0.306304 5.19242e-20)
(4.34883 -1.36439 1.74165e-19)
(2.9552 -0.0294766 2.54844e-20)
(-0.207066 0.416616 0)
(3.09349 -3.14681 6.04191e-19)
(4.43802 -0.577772 -1.64209e-18)
(1.47192 -0.347015 1.33239e-20)
(3.33502 0.0342906 0)
(4.31087 0.830701 -9.86845e-20)
(2.82885 -3.46758 7.02529e-20)
(5.57456 -1.08709 4.21024e-19)
(2.71184 1.55557 0)
(1.25183 -0.165253 1.21849e-20)
(4.00723 -0.039611 8.89834e-22)
(5.19139 -2.35106 -4.1475e-19)
(-0.135957 1.76893 1.81785e-18)
(4.7793 -2.09934 0)
(3.65478 -1.7062 0)
(5.92262 0.783273 5.27483e-19)
(3.91363 -1.43915 9.77589e-21)
(4.73716 -0.223154 1.73276e-20)
(2.8095 -0.683668 0)
(3.46782 -1.69111 -5.82907e-19)
(3.89624 0.57192 0)
(6.04679 0.122626 0)
(4.30536 -0.348291 0)
(3.79384 -0.328023 2.29125e-19)
(4.03515 5.03935 2.6373e-18)
(-1.83996 0.688618 0)
(4.26599 -1.24969 0)
(5.21542 -2.0169 4.66061e-19)
(4.47185 -1.55499 0)
(5.62625 -0.777049 0)
(4.95479 -0.39012 1.53401e-20)
(4.19524 0.0593179 7.21561e-19)
(6.07299 -0.10882 2.22673e-19)
(-1.87476 -1.03239 -1.48418e-18)
(5.23225 -0.618963 -3.16119e-20)
(-0.13477 1.10762 -6.02523e-19)
(2.31427 -0.307889 1.87707e-18)
(-0.714307 -0.0290909 1.89006e-18)
(3.99844 0.012296 -2.04759e-19)
(3.78786 0.303573 -1.04301e-18)
(2.07542 0.331468 -6.1547e-19)
(4.73323 -2.02347 0)
(3.78015 -0.291368 -7.0247e-20)
(4.7631 -1.2688 -2.3266e-19)
(5.22693 0.229913 -1.31411e-19)
(4.19945 0.81718 9.78541e-19)
(4.79935 0.683126 0)
(4.72291 2.42157 0)
(5.03853 0.0885725 8.05238e-20)
(6.01189 1.19371 -3.36862e-18)
(2.98619 -0.58108 -4.30364e-19)
(1.18708 1.20501 0)
(4.96469 0.0881253 0)
(2.37318 -0.203176 0)
(4.01776 0.0158817 2.3501e-20)
(5.88736 -0.402074 0)
(3.36348 0.0284445 -3.38846e-20)
(3.41517 0.0851314 -5.45047e-19)
(4.15283 0.316185 0)
(5.18413 -0.111932 0)
(4.57984 -2.08039 0)
(0.966416 -1.15741 1.26028e-18)
(4.12798 -1.65459 1.56212e-18)
(3.36438 -0.826279 5.04809e-19)
(4.70219 0.0592734 -2.13523e-19)
(4.15395 -1.5935 -2.38222e-18)
(5.28551 2.01222 -2.44856e-19)
(2.3531 -1.13724 9.04708e-19)
(5.86039 -0.984953 0)
(4.47433 0.847734 1.63289e-19)
(4.27104 0.737498 7.22125e-19)
(1.8947 -0.858187 -2.34516e-18)
(2.86475 -0.613822 1.09565e-18)
(-0.708052 -0.131337 5.03664e-19)
(1.24953 -0.70638 -2.36683e-20)
(4.15354 0.278143 5.49496e-19)
(3.99302 0.0757742 -1.75636e-18)
(5.0885 -0.0025378 2.17312e-20)
(3.29106 0.0255289 3.02925e-20)
(-0.335858 -5.24086 0)
(4.26456 1.19639 -4.42978e-19)
(5.35131 0.213073 4.18183e-19)
(4.02191 -0.0444761 -1.94387e-18)
(4.73066 0.665244 0)
(4.56635 -0.648042 1.61026e-18)
(4.80983 -0.172805 3.73555e-20)
(5.05907 0.20724 2.07017e-21)
(-0.884347 0.366285 0)
(4.315 -0.320403 5.34117e-19)
(4.83687 0.0824418 5.103e-19)
(5.02989 0.134542 9.08779e-20)
(5.34197 0.489369 3.76969e-19)
(6.22938 -1.74821 0)
(3.21848 -1.53584 -7.73271e-19)
(3.78145 -0.383127 0)
(5.10037 -0.0263168 0)
(6.09893 -1.68849 0)
(2.87224 0.606192 -1.22057e-18)
(6.50464 -1.91605 0)
(-1.85746 1.93162 -7.73629e-19)
(-2.65773 -1.7927 2.60464e-18)
(4.74951 0.0519276 -1.16453e-19)
(3.08097 -1.51233 -3.61437e-19)
(4.45561 0.794246 1.67905e-19)
(5.53796 -3.65555 4.45139e-18)
(4.20486 0.0911415 -2.25442e-20)
(3.59338 -1.72177 -9.27453e-19)
(5.12556 -2.07243 -2.34203e-19)
(3.38098 -0.794679 -6.12513e-19)
(6.63425 -1.69065 -6.58336e-19)
(5.45057 3.7945 -3.69231e-18)
(4.10116 -0.330153 1.44433e-18)
(5.9162 -1.71078 0)
(4.43865 -0.311385 0)
(5.45671 0.0995165 -1.03156e-18)
(2.77295 -1.20519 -1.02541e-18)
(3.68551 -0.48464 1.74085e-18)
(3.99853 -0.0354711 1.23739e-21)
(4.47056 0.2286 2.21608e-19)
(3.14463 4.13555 1.22531e-19)
(4.99291 0.449986 0)
(3.54295 0.961647 2.52548e-18)
(3.73939 -1.01015 0)
(5.02509 0.981789 0)
(1.51736 -0.506667 -3.04577e-18)
(4.9005 0.151847 0)
(4.711 -1.2768 5.2065e-19)
(4.96192 0.0786335 0)
(3.70625 0.766141 -2.56461e-19)
(3.23575 -1.52766 6.16889e-19)
(4.58881 0.418867 1.55799e-20)
(2.6502 -5.83779 1.8325e-18)
(7.20637 2.11045 -5.08796e-19)
(1.07614 -2.3472 -2.51964e-19)
(4.57634 -0.631213 -5.21788e-19)
(5.17189 -0.710763 2.95381e-18)
(5.25567 0.117861 1.59955e-19)
(2.61128 -1.29071 7.08737e-19)
(3.65834 -4.68412 0)
(2.92304 -1.41619 7.18008e-20)
(5.64597 0.470779 -7.22287e-19)
(5.05137 -0.0209216 -1.39686e-19)
(2.75962 -1.33 1.91069e-18)
(4.8714 0.187014 0)
(5.47214 -0.147479 0)
(4.0033 0.060096 2.66667e-18)
(5.37884 -0.0658528 0)
(2.66153 -1.32485 6.43171e-19)
(4.4377 -2.31651 -3.42913e-19)
(3.8474 -0.210467 0)
(4.55863 0.11147 -1.60162e-19)
(4.30235 -0.171068 -1.81425e-18)
(0.507909 -0.474177 2.9469e-18)
(3.9233 0.429051 0)
(0.161634 -2.22214 -1.08999e-19)
(2.75478 -0.639685 2.70945e-19)
(3.14906 -1.53403 6.92623e-19)
(5.30418 -2.41073 0)
(8.25708 1.28243 2.55858e-18)
(-0.681242 -4.78079 4.04397e-19)
(5.31395 0.773499 1.08009e-19)
(2.90827 4.78016 -1.53974e-19)
(1.31219 -1.24147 -1.34185e-18)
(5.38757 -0.0897656 1.07196e-19)
(3.734 -0.00705816 0)
(4.31197 -2.21277 2.51694e-21)
(5.69965 -0.0366277 1.64012e-19)
(-0.737849 -4.51446 -5.15289e-19)
(5.40261 -1.54451 5.36652e-20)
(-1.02603 0.410217 0)
(8.73512 1.78674 -1.46709e-18)
(5.58151 -3.45664 -3.75339e-18)
(4.47365 -0.0343765 -8.40564e-19)
(2.24024 4.02613 0)
(3.18657 0.825516 9.57406e-19)
(3.98939 -0.0119936 -5.35285e-19)
(4.93269 0.432847 0)
(4.18126 0.353179 6.63634e-19)
(3.21529 -1.54468 8.23889e-19)
(4.34375 0.0902119 1.03577e-18)
(8.10592 0.180493 0)
(0.128268 6.40345 0)
(5.48947 -2.89276 -7.09673e-19)
(3.05255 -0.449071 8.46232e-19)
(0.459204 5.83844 6.11533e-18)
(4.71333 -0.340044 -5.98984e-19)
(3.9765 -0.0446903 1.14882e-18)
(6.5719 -2.36061 -1.86136e-18)
(-2.12027 0.754279 3.73176e-18)
(0.569538 0.310053 3.10359e-18)
(5.13884 0.220179 1.28884e-19)
(5.43305 0.0341018 -2.9092e-19)
(3.9017 0.737681 4.66026e-19)
(4.30311 -0.026229 0)
(4.11059 -4.22129 0)
(3.70168 -1.19663 -1.58656e-19)
(3.5206 -1.67628 6.06251e-19)
(3.99505 0.0158794 -2.00652e-19)
(5.72789 0.403413 -6.75984e-19)
(5.47566 0.505274 0)
(4.61006 -0.0335738 2.8536e-19)
(4.16051 0.231198 -6.29153e-19)
(3.98716 -0.0876232 -1.05049e-18)
(6.45948 -0.698686 -8.78891e-19)
(5.27552 2.13377 3.13643e-19)
(5.47754 4.08607 3.16071e-19)
(3.06657 -0.523274 -7.29522e-19)
(5.38687 0.677483 9.76767e-20)
(3.89357 -0.318885 -7.52708e-20)
(4.39986 -2.01662 0)
(2.59799 -0.589002 0)
(4.36814 0.0607633 3.08679e-19)
(0.855842 -2.65538 6.15011e-19)
(3.79352 -0.418144 0)
(4.05014 2.71718 -2.85433e-18)
(4.58523 -2.65882 0)
(4.14483 1.14312 3.41833e-19)
(5.87785 0.768124 4.19331e-19)
(1.69291 -0.120789 0)
(3.76496 0.266156 -6.62892e-19)
(3.73482 -1.14587 2.38853e-19)
(3.83755 0.019061 -7.07868e-20)
(4.07908 -0.313224 -1.60607e-18)
(7.51874 2.11652 0)
(3.81216 -0.483202 -3.93594e-19)
(3.9286 -1.27533 4.25557e-21)
(4.02373 -0.010101 2.45915e-19)
(3.60679 -0.225012 -9.76513e-19)
(2.19255 0.291677 1.09851e-18)
(5.03054 1.14937 2.87728e-19)
(5.18703 -0.545322 -9.79135e-19)
(4.74265 -0.335879 0)
(4.04523 -0.052302 -1.09443e-20)
(5.29802 -0.510296 -7.23467e-20)
(4.00411 0.0216806 2.8699e-18)
(5.14699 -1.27949 0)
(4.85516 1.44649 -3.34987e-20)
(3.24014 0.0451807 0)
(6.38141 -0.0852706 1.80654e-18)
(4.48647 -1.23193 -4.58456e-19)
(2.2086 -1.0848 8.45277e-19)
(5.85292 -0.490234 2.54451e-19)
(4.0069 0.149852 0)
(4.1818 -2.09885 -3.00908e-19)
(7.35924 2.25241 8.20547e-19)
(3.6038 -0.230456 9.21039e-19)
(5.363 -0.500923 4.81054e-19)
(5.07689 0.226738 5.09047e-19)
(-1.6146 -0.0166414 -1.28331e-18)
(2.70537 -0.134907 5.87151e-22)
(4.92856 -0.140917 0)
(2.78226 -1.14022 2.08982e-18)
(5.03819 0.92956 0)
(3.79794 -1.25907 -6.74973e-21)
(4.85536 -0.0269763 1.04416e-18)
(4.03167 0.11223 -7.83584e-19)
(4.15647 0.342693 6.04618e-19)
(-0.423568 0.500769 -2.09948e-18)
(3.99349 -0.0757026 1.30842e-18)
(3.48415 0.0201475 0)
(-1.05554 -0.869545 -1.2531e-18)
(4.96546 -0.344313 -3.08626e-19)
(1.44294 -3.1101 -6.39416e-19)
(3.19871 -0.53965 -1.0331e-18)
(4.64185 0.0470128 0)
(4.6552 1.3075 4.31562e-19)
(3.78789 -0.103566 2.02942e-18)
(3.98608 -0.0163783 1.63532e-18)
(4.91279 0.605163 0)
(3.36819 0.0261432 -7.05694e-21)
(5.55039 0.436328 6.78225e-19)
(0.0669086 0.56254 3.24642e-19)
(3.63445 -0.534855 2.40813e-19)
(4.9291 -0.304091 2.92292e-19)
(4.97295 0.082185 -3.28515e-20)
(4.90728 -0.199771 0)
(3.54791 0.670293 -1.11302e-18)
(-0.283214 -1.81866 1.69255e-19)
(4.42467 0.436954 -3.82222e-19)
(3.99696 0.0242442 1.07161e-18)
(3.02919 0.0292631 0)
(3.95638 -1.51674 5.50942e-20)
(1.69576 -0.0971615 0)
(5.41256 1.14553 -5.24619e-19)
(4.51894 -0.0475786 0)
(5.11146 -1.54481 -3.28421e-20)
(3.23993 -0.719529 -5.09376e-19)
(3.19854 0.685938 2.16521e-18)
(0.11766 0.601502 -1.18879e-18)
(8.93275 0.506133 0)
(4.3692 0.0648143 -7.05623e-19)
(4.01575 0.161966 -7.36761e-19)
(1.35644 -0.796048 -8.95097e-19)
(7.34346 -2.48426 4.59644e-19)
(3.72971 -0.491061 -2.63739e-18)
(4.97539 0.318762 -4.62698e-19)
(4.0755 0.170838 5.83704e-19)
(3.55117 -1.23878 0)
(3.16039 -0.0999358 1.06978e-18)
(3.71428 -0.302284 2.198e-19)
(4.33886 -2.67572 1.22158e-18)
(-0.215767 -1.66741 -5.20809e-19)
(1.5243 -0.77985 -1.81614e-18)
(5.21083 0.270095 0)
(1.41721 -0.81779 0)
(3.67619 1.27905 0)
(4.56503 -0.158408 0)
(3.43813 -0.800557 -1.39028e-18)
(6.2521 0.117007 0)
(1.24647 0.325064 0)
(3.66608 -0.24632 3.75797e-19)
(5.31497 0.256259 -4.36593e-19)
(4.8491 -0.205747 -7.90464e-19)
(3.60453 0.0601158 3.39853e-18)
(4.01159 0.0217444 -3.78864e-19)
(4.00232 2.04023 0)
(5.01233 0.179483 0)
(3.97693 -0.0973929 1.12063e-18)
(3.98551 0.0313672 1.98024e-19)
(2.87975 0.613806 0)
(-0.71499 0.242339 1.00773e-18)
(5.34718 -1.60418 -6.08977e-20)
(0.395458 -1.31053 0)
(4.90334 0.196074 6.201e-19)
(4.02256 -0.0353144 -1.3064e-18)
(6.25174 1.31744 1.92703e-18)
(2.76281 -1.12001 0)
(3.99406 0.158505 1.33602e-18)
(4.6771 0.261717 0)
(5.39038 0.465666 0)
(4.20965 0.192452 -1.05367e-19)
(3.96407 -0.0516264 6.09628e-19)
(-0.068477 0.304501 -2.38294e-18)
(4.22191 0.721405 2.54965e-19)
(3.328 -1.08047 -8.78957e-19)
(4.54515 -0.139167 1.15958e-19)
(4.08275 0.180001 4.67261e-19)
(3.75447 0.617968 3.02011e-18)
(5.62208 -1.53587 0)
(4.69034 -0.186232 -6.94506e-19)
(3.22812 -0.622979 0)
(3.77231 -1.31342 -1.20273e-19)
(5.05191 -0.0292581 0)
(3.35747 -0.395993 1.3747e-18)
(-0.0956576 -0.0923715 -2.36241e-18)
(4.98747 0.335091 0)
(-0.321899 0.349364 9.08555e-20)
(5.00515 0.172648 7.51175e-19)
(2.43832 -1.86941 1.57866e-19)
(4.08212 -0.777441 2.31549e-18)
(3.01957 0.608815 -1.40251e-18)
(3.29996 -1.07059 -2.50766e-18)
(5.3361 1.18908 0)
(3.81715 -0.335966 -2.11183e-19)
(-1.70038 -0.170368 -3.41618e-18)
(3.99878 0.16953 0)
(3.81429 0.0332943 7.66283e-20)
(4.74704 0.0340284 4.93159e-20)
(4.65187 1.34682 0)
(4.00249 0.00801271 0)
(0.880725 -0.856917 0)
(-0.59254 -5.53621 2.12117e-18)
(5.74099 -3.06339 2.29184e-18)
(6.06796 1.01194 2.91219e-19)
(4.10439 1.10327 0)
(3.91974 -0.653588 1.64286e-18)
(3.31018 -0.000606485 -6.64979e-20)
(4.22562 0.666229 -6.06438e-19)
(5.63908 -3.26584 3.3829e-18)
(3.89618 0.024814 0)
(2.60666 -0.28805 0)
(2.32694 -0.813874 -1.46097e-18)
(3.49939 -1.22 -5.98876e-19)
(4.37124 -0.470927 0)
(3.89096 -1.84375 -3.80589e-19)
(3.44858 0.0463057 4.84368e-20)
(3.00078 0.0789819 -3.46319e-20)
(2.43414 -1.1933 0)
(5.98049 -1.13839 3.52828e-20)
(3.75993 -0.281174 -2.02997e-19)
(4.654 0.232848 -2.8437e-19)
(4.45823 -1.29563 0)
(0.728984 0.320626 -4.71868e-18)
(4.11318 0.204809 6.85875e-19)
(3.99205 0.0771221 2.70099e-19)
(3.52096 0.0224349 -1.11208e-19)
(4.5543 0.84746 0)
(3.57023 0.0610771 -9.07776e-19)
(5.13705 0.818201 -2.8552e-19)
(1.59647 -0.737044 3.90385e-19)
(4.01666 0.0449761 0)
(6.77058 -2.87727 -4.56801e-19)
(1.92927 -0.78621 0)
(4.01349 0.0523312 -1.07082e-18)
(3.98819 0.0296991 4.27316e-19)
(3.97277 -0.182636 -2.16226e-19)
(-0.297119 -4.72294 0)
(4.44315 -0.0830232 -3.37333e-19)
(2.72898 0.0323615 2.97552e-18)
(5.54286 -1.49362 0)
(3.63451 -0.282414 1.17976e-18)
(6.32987 -0.787381 9.90964e-19)
(4.39161 -0.0273439 0)
(5.22585 -4.17185 1.84381e-18)
(4.69096 1.73165 -9.91428e-18)
(5.0109 0.0742824 0)
(0.797317 0.362905 3.05671e-18)
(3.8015 0.0186618 0)
(4.22979 -1.88979 5.60449e-19)
(0.0734187 -2.36639 3.7504e-19)
(4.8386 -0.496512 -9.66343e-20)
(4.501 0.195391 3.55553e-19)
(3.16844 -0.105366 5.61314e-19)
(4.09449 -0.811443 -8.60498e-19)
(8.50465 -0.389582 -1.11447e-18)
(4.25665 -1.86666 1.0831e-20)
(4.87935 -0.333116 3.05126e-19)
(4.53232 0.845131 -2.71023e-19)
(5.00859 -2.16159 0)
(3.99662 0.0166248 -9.50314e-19)
(0.576793 -0.933009 -9.2853e-19)
(3.28315 -0.630236 0)
(3.66917 -0.396479 8.11597e-20)
(2.86959 0.084052 0)
(3.12208 -1.12269 2.1707e-18)
(5.01493 -1.74845 0)
(3.19075 0.0201838 1.22258e-19)
(4.88868 -0.060236 -5.93655e-19)
(4.62365 -4.92739 4.28453e-18)
(1.52363 -1.34598 7.26606e-20)
(4.57933 0.0935072 -7.25879e-21)
(4.11051 -1.92273 5.28343e-20)
(4.2302 -1.2476 7.29639e-19)
(3.56972 -1.01171 0)
(-0.981456 0.553583 -1.06216e-18)
(5.69423 -1.31494 1.32124e-21)
(-0.963642 0.631719 -1.28464e-18)
(2.81832 -0.0680782 2.64626e-20)
(3.54578 -1.44684 0)
(4.33996 -0.0377954 -8.07571e-21)
(-0.893622 0.258803 0)
(2.58517 -3.43452 1.01787e-19)
(6.73499 1.83324 -2.3922e-18)
(-0.234898 -0.55367 0)
(4.88508 -1.14851 1.5765e-19)
(-2.25179 -3.23551 0)
(4.67668 1.1843 0)
(3.93385 -1.82879 -7.42114e-19)
(3.28342 -0.00461496 8.74867e-19)
(-0.528028 5.55906 0)
(3.7851 -0.0649137 -5.63461e-19)
(5.56814 1.36793 3.5784e-18)
(-0.735866 -1.56544 1.17556e-18)
(4.63819 1.7207 0)
(4.25924 -0.0604171 0)
(-1.82891 0.206996 -1.69258e-18)
(4.16725 -0.417806 0)
(4.57775 -0.170655 0)
(-1.72875 -0.0468728 -2.54297e-19)
(4.79534 -0.775831 -9.12559e-19)
(4.10943 -1.082 6.71392e-19)
(5.35458 -0.244935 1.2736e-20)
(-1.02338 0.461506 2.17628e-18)
(3.99213 0.0346898 4.83991e-19)
(3.64538 -1.0546 0)
(4.09421 0.46938 -2.58122e-19)
(3.40742 -0.825906 0)
(4.18612 -0.075531 0)
(3.99092 0.0944226 0)
(4.19704 0.166919 -8.63741e-20)
(4.04519 -0.319937 7.45936e-19)
(5.50553 -0.0324165 -1.22128e-19)
(3.73542 -1.05106 0)
(-0.357462 0.368916 -1.71641e-18)
(3.75485 1.16544 5.61638e-19)
(4.47318 -1.58312 5.79097e-20)
(6.02246 -0.0999571 4.48978e-19)
(4.31813 0.179522 -2.12036e-18)
(4.17792 0.0583573 -7.47874e-19)
(-0.0338025 -0.233963 0)
(4.19254 0.259565 0)
(3.075 0.652647 0)
(3.16392 -1.45488 -1.56068e-18)
(0.714367 -3.33459 -9.49252e-18)
(4.30483 -0.198225 0)
(4.1259 0.490271 0)
(3.91789 0.988657 8.53337e-19)
(4.2321 -0.00623693 -1.87838e-19)
(3.71686 0.532971 1.16523e-18)
(5.20169 -2.09676 0)
(-1.74416 1.75044 -7.49755e-19)
(4.40854 0.0784771 4.12597e-19)
(3.43333 -1.165 -1.45675e-18)
(4.23957 0.0501826 -5.62113e-19)
(4.20501 0.66405 8.09325e-19)
(2.1551 -3.7719 4.48614e-19)
(3.12077 -1.45693 2.70162e-18)
(-0.215956 3.4073 -2.18057e-19)
(5.17118 -0.143536 4.028e-20)
(3.99932 0.00689519 -2.31002e-19)
(3.58182 -1.6385 -9.60201e-20)
(5.85749 0.0379109 4.85069e-18)
(2.87398 2.27319 -6.49321e-19)
(3.83884 -1.80918 2.13859e-19)
(4.05364 -0.160947 0)
(1.02345 -1.14376 -6.50633e-20)
(4.29626 -0.0633148 -1.21361e-18)
(4.87238 0.944321 1.15106e-19)
(3.3812 -1.11952 -1.33089e-18)
(4.42489 -1.5225 -6.76469e-19)
(4.2827 0.033436 1.69729e-18)
(5.62757 -0.0314647 -9.58443e-19)
(2.39742 1.30908 -8.0573e-19)
(5.16653 0.276734 -3.74628e-20)
(2.97239 -0.828258 -3.02611e-18)
(4.32623 -0.0358249 -1.04213e-18)
(2.9585 -0.917557 0)
(2.7348 -5.49752 -7.60808e-18)
(4.36509 0.0304857 1.80393e-18)
(2.78576 0.00284702 -2.77575e-20)
(-0.899441 -0.679781 0)
(4.4845 -2.03099 0)
(3.93671 0.376537 1.05789e-18)
(2.75282 -0.835155 1.88573e-18)
(-1.02654 -5.48037 -2.55516e-18)
(5.16957 -1.52906 -1.26821e-19)
(5.24298 -0.555337 5.1764e-19)
(5.11216 0.975915 0)
(3.94098 0.417866 5.9669e-19)
(4.4464 3.06019 -2.39304e-19)
(4.33539 1.25615 -3.31157e-19)
(4.49768 -0.611106 -9.66148e-19)
(-1.04777 0.538335 -3.45849e-18)
(4.38072 0.404924 1.98759e-18)
(4.624 -0.24114 -1.89757e-19)
(4.02102 1.41206 0)
(6.59891 1.45771 2.83061e-19)
(3.98791 -0.177374 1.95461e-19)
(3.3484 0.0300708 3.63528e-20)
(2.40862 -1.18844 2.47651e-18)
(4.4448 -0.630832 1.44079e-18)
(3.38671 -0.857421 -2.40295e-19)
(-0.65227 -1.39971 -5.41809e-19)
(4.96173 0.184492 5.03278e-19)
(4.33057 -0.0500746 9.34241e-19)
(-2.04546 0.674705 -4.60874e-19)
(4.22325 1.1371 8.73247e-19)
(1.12989 0.0340618 -3.31148e-18)
(2.83762 -1.37876 -8.02009e-19)
(3.35571 0.0574377 0)
(3.65215 -0.462917 -1.9703e-19)
(-1.68863 -2.30779 -1.3012e-18)
(3.23867 -0.763608 2.75736e-18)
(5.56789 -0.0349231 0)
(4.97546 2.2808 -2.91772e-19)
(3.04646 -1.34182 6.13052e-19)
(3.99111 0.0290112 -2.08583e-18)
(-0.880763 -0.218933 -7.5561e-19)
(-0.248611 4.75939 -2.13661e-18)
(4.87309 -0.185532 5.31795e-19)
(4.32908 0.0639546 1.06205e-18)
(4.29548 -1.91256 -7.34072e-19)
(5.50196 -0.0730444 1.62847e-19)
(-0.717956 -4.14264 -1.51302e-17)
(4.24288 -0.0502638 1.1392e-18)
(4.5012 -0.130762 -5.08413e-19)
(4.15475 0.0892168 -1.49787e-20)
(4.98399 0.00476888 -1.09671e-18)
(2.97166 -1.36466 -1.18611e-18)
(5.10468 -0.117692 0)
(0.636006 -6.0288 1.94982e-18)
(4.24487 0.0732069 1.44412e-19)
(6.79705 1.36263 1.96301e-18)
(4.60684 0.0430068 3.64414e-19)
(5.12382 -0.681316 -3.61256e-19)
(3.99852 0.0248959 -1.73735e-18)
(4.05756 0.295413 3.47385e-19)
(-0.685115 0.0627347 -1.03854e-18)
(4.70143 -0.169708 0)
(4.00602 -1.58717 -2.52671e-20)
(3.95871 0.0565496 8.01411e-19)
(3.5624 -1.41783 0)
(4.1463 0.0551901 7.54299e-19)
(3.98464 -0.117428 1.05727e-18)
(4.64684 -0.168098 9.8429e-23)
(6.48326 -1.81043 8.99818e-19)
(6.78924 -1.52189 0)
(3.67178 0.152931 1.70994e-18)
(3.43251 -0.708009 2.82996e-19)
(3.73026 -1.76461 5.84569e-19)
(4.49755 -0.414212 0)
(3.29224 -0.0531805 -2.52042e-18)
(4.16688 5.14532 1.65013e-18)
(4.27655 1.80109 9.19345e-20)
(2.99569 -0.854397 2.89852e-18)
(5.29853 0.0219183 1.42876e-19)
(1.05285 -1.17123 8.46289e-20)
(4.24189 -0.352654 -1.12337e-18)
(4.88277 -0.114208 7.12742e-19)
(3.77922 -0.100044 -1.1751e-18)
(4.5911 0.077401 0)
(3.99947 0.00993044 -8.71127e-19)
(0.176585 -0.373158 6.61998e-18)
(-1.35717 -0.295636 0)
(3.69494 -1.277 0)
(3.34193 0.0313981 0)
(1.61325 -0.685902 0)
(4.0044 0.291004 0)
(2.86982 -0.81764 0)
(2.88056 3.24128 1.68391e-19)
(6.50794 0.322079 -1.87702e-18)
(4.612 0.474566 0)
(3.64623 0.129529 2.57476e-18)
(1.62798 4.57494 -2.18735e-18)
(4.07114 0.186868 1.44221e-20)
(-1.78114 -1.7112 -7.28054e-19)
(2.82551 -0.476038 1.74072e-21)
(-0.658084 0.0104187 7.20589e-19)
(3.52854 0.0621104 -4.7943e-19)
(4.84681 0.0739984 -2.93383e-20)
(3.97789 0.258925 -7.26714e-19)
(3.85021 0.0160125 -1.62446e-18)
(3.69591 1.02553 -1.09612e-18)
(5.27298 1.22682 0)
(6.31549 -3.33429 9.59326e-19)
(3.16331 -1.15668 -2.39045e-18)
(4.01996 0.0296642 -2.63263e-18)
(5.71944 -1.36716 5.68424e-19)
(4.72533 0.0117084 1.77605e-19)
(6.80791 -1.1136 -1.44327e-18)
(4.88429 -0.532548 -1.02528e-19)
(4.91475 -1.11548 -5.42131e-19)
(4.01881 0.144175 7.7092e-19)
(4.89357 2.67164 0)
(8.73227 -1.46008 -1.00764e-18)
(3.69925 -0.284824 -3.54399e-19)
(6.29938 0.274896 0)
(5.74486 -2.42381 0)
(4.50359 -1.99243 -1.72151e-20)
(1.26237 -1.52351 1.07492e-19)
(3.07273 3.70631 4.23623e-19)
(4.86477 -0.496085 0)
(4.13075 -0.298537 -1.52086e-18)
(3.76716 0.00920011 -3.11746e-19)
(1.77765 -6.0869 1.21835e-18)
(4.24675 -0.253597 5.26998e-19)
(-0.468699 -0.157109 0)
(5.96168 -3.57785 1.07462e-18)
(4.21402 -0.192088 0)
(6.67049 1.93168 -1.03961e-19)
(4.65321 1.34053 -2.93034e-19)
(4.00107 0.0143417 4.64581e-23)
(4.29175 0.754209 -1.28702e-18)
(4.61183 1.55076 -9.396e-20)
(4.12645 -1.21348 1.55428e-18)
(7.3911 0.282382 0)
(-2.49044 -0.790512 -4.70575e-18)
(0.8825 6.20929 0)
(4.68667 0.482364 4.9782e-20)
(2.15908 -5.75306 2.45332e-18)
(3.21006 -1.28069 -1.07382e-18)
(4.16813 -1.73064 -3.41659e-20)
(-1.06995 -4.52032 -2.80478e-18)
(3.33638 -1.60906 -6.78525e-19)
(3.24216 -1.15717 -1.34553e-18)
(3.7276 -0.308098 -7.65524e-20)
(-2.17438 0.443834 3.81864e-18)
(3.01823 -1.38897 9.81102e-19)
(3.34589 -1.19322 1.499e-18)
(0.973648 -2.31004 1.16338e-17)
(-2.3252 -2.29615 -8.67126e-19)
(4.38489 -1.35984 7.03083e-19)
(-0.0483885 0.0359083 1.43236e-18)
(5.40245 0.0544088 1.07768e-19)
(1.50195 4.25689 2.09763e-18)
(4.29664 0.469183 -3.76905e-19)
(5.45922 -0.956758 0)
(1.47312 -0.700359 -3.65336e-18)
(4.17716 -0.046607 -1.34054e-18)
(3.98683 0.0928382 0)
(4.66086 0.417555 0)
(-0.69688 5.01227 -7.74466e-18)
(5.3404 -0.800686 -2.0808e-19)
(4.45671 0.258608 -8.51349e-19)
(4.77516 -0.774515 1.18772e-18)
(3.67533 1.03111 9.2518e-19)
(3.21953 -0.00704872 1.11993e-18)
(1.33767 -5.61599 -1.3966e-19)
(3.58399 0.500466 0)
(3.39755 -1.23278 1.44594e-18)
(-0.603533 2.82875 6.56435e-19)
(-0.950055 -4.22465 2.13356e-18)
(4.13374 -1.57176 2.3901e-19)
(4.64107 -2.07946 2.75082e-19)
(3.68224 -0.0122827 6.3072e-19)
(4.93649 -1.93388 1.16917e-19)
(5.08842 0.738189 -1.46594e-18)
(1.5245 -5.25242 -1.04745e-18)
(4.43886 0.253035 6.35867e-19)
(4.00279 -0.08096 6.50031e-19)
(2.94688 -0.921312 -1.20062e-18)
(4.15446 -0.388465 9.23904e-19)
(2.10277 1.51095 0)
(4.41214 0.458957 7.01995e-19)
(4.01874 -0.0299021 1.46735e-19)
(3.5285 -0.96159 -4.60952e-19)
(3.27297 2.04489 -5.38632e-19)
(4.31529 -1.34148 5.4457e-19)
(4.28892 0.0116866 2.72699e-19)
(3.21661 -0.347727 -1.88519e-18)
(6.24162 0.120977 0)
(4.19921 -1.50904 3.34993e-20)
(4.25063 0.0915206 7.65842e-19)
(6.82002 -0.470325 0)
(3.28959 -0.478659 1.05266e-18)
(4.29475 -0.25443 0)
(3.12369 2.00628 2.20266e-18)
(5.37363 0.0066196 0)
(9.37877 -0.740862 0)
(4.51162 0.130517 3.34552e-19)
(4.43371 0.187873 5.0891e-19)
(5.13417 0.392466 -2.94382e-19)
(3.90916 0.0172175 -7.56949e-19)
(3.12787 1.15809 -6.79466e-19)
(3.99413 0.0736351 -3.36739e-19)
(4.03976 0.2962 0)
(1.80264 2.11104 -3.11265e-19)
(4.55896 0.191795 -3.91513e-19)
(7.38025 1.53141 1.186e-19)
(5.44665 -0.970318 0)
(4.9277 0.93423 2.12003e-19)
(3.74594 2.08589 -7.74327e-20)
(5.54195 0.0736973 4.22039e-19)
(-0.225372 -5.48905 0)
(-1.77382 -0.525907 3.06769e-18)
(4.03993 0.138438 0)
(5.17663 0.561612 6.96323e-19)
(0.452391 -0.396025 0)
(3.37284 1.41774 0)
(-0.613508 3.52991 0)
(4.89677 -1.74977 0)
(-1.74417 2.18568 -4.43109e-19)
(-0.459603 -5.91368 -4.75875e-19)
(4.04318 -0.309615 -1.12731e-18)
(4.03826 -5.1299 -4.06186e-18)
(3.16261 -1.42099 0)
(1.7555 -5.84239 -3.79065e-18)
(0.15675 -0.411069 -2.9233e-18)
(3.78483 -1.7627 0)
(3.56863 -1.34763 -1.4826e-18)
(3.67367 -0.520672 5.71146e-20)
(4.28856 0.443003 9.70145e-19)
(6.08269 -1.78256 -6.10156e-19)
(3.84415 -0.0228093 0)
(5.3789 -1.5061 0)
(5.43874 1.03015 3.07546e-19)
(7.09553 -2.29481 1.05133e-18)
(3.9026 -0.364409 1.5453e-19)
(-0.975468 6.03836 8.53153e-19)
(3.99922 0.00925091 6.43751e-20)
(3.44999 -0.442747 6.50876e-21)
(4.01441 0.152374 1.10927e-18)
(3.98286 -1.32587 -6.70404e-20)
(4.46439 -1.1999 0)
(-0.205616 0.659769 0)
(5.4302 -0.047108 0)
(3.20585 0.00916286 0)
(4.03301 -0.893176 6.28352e-19)
(5.04658 0.18309 0)
(-1.76288 1.4703 6.23811e-18)
(1.75062 -4.04458 -2.2498e-20)
(3.29219 -1.22042 -2.27289e-18)
(2.10035 3.78289 8.43187e-19)
(0.452028 -6.40693 -9.07572e-19)
(-1.09195 2.19548 -3.40388e-18)
(4.2922 0.0416363 2.16148e-19)
(0.244615 -4.65716 -7.49073e-19)
(3.90394 -1.22006 -1.72508e-19)
(4.61232 0.0837551 0)
(5.51605 -0.234931 0)
(-0.412476 2.95005 0)
(5.12863 -0.71734 1.81531e-19)
(-1.859 -2.44162 0)
(3.60417 0.526487 0)
(4.00071 0.0137637 0)
(4.15141 -1.08631 6.23011e-19)
(4.07268 0.175526 -1.16905e-18)
(2.91078 0.149165 0)
(3.74757 2.95865 9.09668e-19)
(3.95549 0.123971 -9.75071e-19)
(4.35543 1.09959 6.74222e-19)
(3.83385 -1.77305 7.9887e-19)
(3.70487 0.632543 8.6437e-21)
(4.03846 4.27579 -7.21007e-19)
(5.28828 -2.7882 7.03149e-19)
(8.17057 1.94508 -3.37211e-18)
(4.41585 0.188417 -6.88251e-19)
(3.85766 -0.308436 3.53953e-19)
(3.8659 -0.178145 -1.11415e-18)
(4.22401 -0.0454598 0)
(7.11951 1.90465 -1.48819e-18)
(3.98965 -0.0266935 1.19557e-18)
(3.85716 3.87203 3.38058e-18)
(4.85362 -0.512457 -3.12673e-19)
(2.80173 -0.869021 -2.06995e-18)
(4.42612 0.179783 1.17344e-19)
(5.15416 0.75267 4.09037e-19)
(3.9912 0.0758522 0)
(1.18183 -0.394736 -3.51463e-19)
(5.01742 -0.820686 -7.29899e-21)
(6.99254 2.24696 3.71992e-18)
(5.32365 -3.74615 -3.96339e-18)
(4.20191 -0.0284904 5.89858e-19)
(5.41106 -0.108391 -4.55061e-20)
(5.3938 0.0587897 -1.06207e-19)
(5.48409 -0.0320801 0)
(3.62517 3.65942 0)
(3.54951 -1.69605 1.00981e-18)
(-0.642106 -0.240057 8.14754e-19)
(3.3715 0.0325191 6.95241e-21)
(3.99371 -0.0281535 2.38309e-18)
(1.1896 -0.131456 1.0872e-18)
(3.26004 -0.0905316 0)
(3.81423 -0.189398 0)
(3.78821 -1.01455 -1.79651e-20)
(4.32104 0.0561084 5.02301e-19)
(3.75641 0.595487 1.63339e-18)
(4.797 0.562671 0)
(4.41675 -0.0273296 0)
(5.02084 -1.24123 5.63309e-19)
(4.42979 -0.416133 8.21817e-19)
(1.49713 -0.98682 -9.01369e-19)
(5.8788 -0.213788 0)
(2.77462 1.30154 3.66668e-19)
(3.5512 1.63259 4.9852e-19)
(-1.71649 -1.82714 -1.46647e-18)
(4.27282 -0.147439 -1.22021e-18)
(7.24957 0.415326 0)
(5.56277 -0.615342 1.34036e-19)
(0.56611 -5.4 -3.09404e-18)
(0.352656 -0.0303141 0)
(3.43304 0.0125223 3.37847e-19)
(3.92857 -0.0371877 -7.83906e-19)
(3.31611 0.0291496 3.11557e-22)
(5.02328 1.32324 3.66135e-20)
(3.89756 3.36157 9.65144e-19)
(4.19335 0.0348088 0)
(2.80622 -1.16986 -1.66703e-20)
(1.20325 0.074208 -1.0367e-18)
(2.32009 -1.4378 -7.29092e-18)
(3.99323 0.248894 8.64844e-19)
(7.38745 0.155842 6.60311e-18)
(4.25142 0.00270015 -2.74819e-18)
(3.42689 -0.896451 1.36272e-19)
(4.58073 -2.45658 3.76142e-19)
(4.06207 -1.02691 0)
(4.43016 -0.135734 -5.40143e-19)
(2.96445 -1.41408 7.76849e-19)
(4.83038 -0.0609023 -1.14182e-18)
(4.01579 -0.0180337 -1.07354e-18)
(5.25756 0.607333 -6.22088e-19)
(3.82278 -0.663398 2.45763e-18)
(5.17238 0.0629827 -1.26736e-19)
(3.80027 -0.16747 6.60896e-19)
(3.68174 -0.401906 2.57047e-19)
(5.41905 -0.279602 -1.71209e-19)
(4.2347 1.21519 6.08568e-19)
(-0.865421 -5.58421 1.95908e-18)
(4.10695 0.02099 0)
(-0.581691 0.921699 0)
(5.35824 -0.569868 0)
(3.28675 -1.16585 1.74332e-18)
(4.17483 0.0607208 -1.7275e-18)
(3.74371 0.0107877 0)
(3.61451 -0.983178 -1.35983e-18)
(3.74844 -0.0377644 0)
(4.04133 -0.822639 -1.03144e-18)
(7.23273 2.18735 -1.39567e-19)
(4.40004 -1.15099 -7.93042e-19)
(4.27208 0.0347617 0)
(4.02324 -0.0938821 0)
(6.32413 -0.266791 -2.80107e-19)
(4.59964 0.379662 -1.55788e-20)
(4.86239 0.0394527 -2.59886e-19)
(3.98672 2.2721 -7.23003e-20)
(4.93503 0.892625 0)
(4.15094 -1.52792 -4.03523e-19)
(-0.862419 -0.206014 0)
(2.22274 0.632746 -1.20397e-18)
(4.63182 1.52966 0)
(5.28972 -0.0777631 9.56437e-20)
(2.97192 -0.791921 7.9535e-19)
(3.55066 -0.65959 7.85772e-19)
(5.05402 -0.172784 4.36774e-19)
(0.215446 -3.21213 -1.22082e-18)
(4.38741 -0.480892 2.07678e-18)
(4.01431 0.275135 -1.2646e-20)
(6.76467 -1.09788 1.66087e-18)
(4.61997 -0.939697 -3.79614e-19)