/*--------------------------------*- C++ -*----------------------------------*\
| =========                 |                                                 |
| \\      /  F ield         | OpenFOAM: The Open Source CFD Toolbox           |
|  \\    /   O peration     | Version:  2306                                  |
|   \\  /    A nd           | Website:  www.openfoam.com                      |
|    \\/     M anipulation  |                                                 |
\*---------------------------------------------------------------------------*/
FoamFile
{
    version     2.0;
    format      ascii;
    arch        "LSB;label=32;scalar=64";
    class       surfaceScalarField;
    location    "1.4";
    object      phi;
}
// * * * * * * * * * * * * * * * * * * * * * * * * * * * * * * * * * * * * * //

dimensions      [0 3 -1 0 0 0 0];

oriented        oriented;

internalField   nonuniform List<scalar> 
20045
(
0.982152
-1.03291
0.0507569
-2.0916
0.723725
1.36788
0.732076
3.76786
-4.49993
0.278286
-0.316907
0.0386219
-1.6263
1.59726
0.0290416
-1.18949
4.42435
-3.23486
-1.99727
0.896277
1.10099
0.123954
0.840541
-0.964495
0.940651
0.800275
-1.74093
-1.65163
-0.218543
1.87017
0.761242
-1.46308
0.70184
4.491
-2.1207
-2.3703
0.688557
-0.708055
0.0194983
-2.54115
2.21473
0.326423
-0.667701
2.10648
-1.43878
-2.17341
0.52178
0.409355
-0.103807
-0.305548
1.53845
-1.17332
-0.365132
-3.49594
5.09602
-1.60009
-1.49778
0.120936
1.37684
0.436283
-0.479735
0.0434511
0.222677
0.46588
-0.232276
-1.85933
1.07109
2.31177
-3.38286
1.66157
0.444157
-2.10572
-2.39509
3.46618
-1.45583
1.59972
-0.143892
-2.46661
4.70274
-2.23612
3.42186
0.490633
-3.91249
-4.49032
2.4361
2.05422
-0.411954
-0.343881
0.755835
2.82
-1.95918
-0.860816
-1.63164
3.28309
-1.65145
4.69465
-2.64233
-2.05232
-1.08459
1.20854
4.35591
-2.17323
-2.18268
2.86507
0.326534
-3.1916
-0.125453
0.761065
-0.635612
-3.68273
1.53663
2.14611
1.14728
1.03167
-2.17895
0.114369
0.798168
-0.912537
0.332674
-0.453756
0.121082
4.38718
-4.3948
0.0076134
2.99814
-1.13504
-1.8631
1.40759
1.59054
1.99924
2.49176
-0.610626
1.83025
-1.21963
2.51123
1.08499
-3.59623
3.51436
-0.649293
0.336059
3.73552
-4.07158
2.59378
-4.40347
1.8097
3.45992
-2.51605
-0.943875
-2.41011
-1.64451
4.05463
-0.189397
-0.576657
0.766054
1.57592
-0.431337
-1.14459
-1.34855
-0.277747
-0.0916559
3.11747
-3.02582
3.06838
0.227423
-3.2958
1.98508
-3.61672
4.07129
-2.57118
-1.50011
1.0602
-1.11608
0.0558824
1.81629
2.255
0.699433
-3.54426
2.84482
0.481578
-0.0452942
1.81116
-0.143373
-1.66778
3.26309
0.292084
-3.55517
-0.0246105
0.243021
-0.21841
-1.32713
0.325137
1.00199
1.66152
-0.720864
3.59275
-3.66068
0.0679226
-0.173376
0.148765
-0.192472
1.7684
-0.481295
-2.06728
2.54858
0.161911
-0.880124
0.718212
3.62233
-0.793632
-2.8287
2.70088
-2.79254
0.0713639
3.55097
0.827007
-1.49471
-0.817468
-1.05549
1.87296
0.742697
-2.33636
1.59366
2.06729
2.34841
-4.4157
1.7599
-1.36416
-0.395734
2.88512
-2.18568
-4.96424
0.958391
4.00585
0.0697006
0.912451
-1.18203
1.31848
-0.136453
0.802097
-2.38805
1.58596
-3.21478
0.154955
3.05983
2.05892
0.32514
-2.38406
-1.70506
1.58096
0.124105
-2.81846
-0.474626
3.29309
1.4085
-0.249826
-1.15868
0.787992
-1.10252
0.314527
-0.279246
-1.59084
1.87009
1.14093
-1.22254
0.0816082
2.96868
0.753498
-3.72218
-1.35527
-0.100565
-0.225915
-0.0118197
0.237734
2.36702
-1.21974
0.513006
0.290713
-0.803719
2.98715
1.36876
-0.889682
-1.65147
-0.346348
0.120434
-0.601784
3.67017
-0.138752
-1.04327
-0.65914
1.17215
0.8696
2.40007
-3.26967
2.12347
-3.36361
1.24014
-1.42809
-0.911606
0.785688
0.125917
-0.541454
0.672422
-0.130968
2.4556
-1.77287
-0.682727
-0.968106
0.778709
2.5556
-4.34822
1.79262
-0.302325
0.623979
-0.321654
0.104297
-0.651384
0.547087
2.32812
-0.666551
3.39106
1.30359
-2.2769
1.79561
2.73472
-3.84073
1.10601
1.03422
0.504232
-0.310848
1.37104
-1.50975
1.21482
0.294932
-1.55926
0.192405
-1.13829
0.945889
2.4476
1.01232
2.1707
-2.78143
0.610727
3.16847
0.421146
-3.58962
-4.25841
3.25376
1.00465
-0.335303
-1.72439
2.05969
3.64769
-1.20009
0.0913715
1.73888
0.361687
-0.505014
0.143327
-0.320277
0.126843
0.193434
2.27653
1.60258
-3.87912
2.38455
-2.3077
-0.0768463
-0.79172
0.343732
0.447988
-0.641862
-0.269744
4.31561
-1.58089
-1.26231
1.34357
-0.0812605
2.5066
-4.44571
1.93911
0.658289
-3.0684
2.27792
0.849759
-3.12768
2.58749
-1.8448
4.03951
-0.535454
-3.50406
2.03485
-4.28461
2.24976
4.71129
-3.09961
-1.61168
-0.263914
0.871232
-0.607318
-0.07817
4.19753
-4.11936
4.22886
-0.807002
-3.34111
0.132277
3.20883
-1.84497
1.63769
0.207279
3.96258
-1.89529
0.657438
1.10246
-2.51236
3.11182
-0.599467
-3.08355
3.81563
0.0497671
-0.780654
0.730887
0.359511
-0.470836
0.111324
-0.0722726
-0.716097
0.788369
4.16723
-1.194
-2.97323
5.38517
-2.64172
-2.74345
-0.857787
0.785515
1.22478
-2.59524
1.37046
0.408895
-0.0762203
-3.11783
-1.88353
2.75791
-0.874379
-2.65984
1.91357
0.746266
-0.077083
-0.0655373
0.14262
1.99068
2.72062
-0.355656
0.0353784
0.387246
-0.0255583
-2.83461
0.322257
-2.95026
3.74791
-0.797646
-2.56598
2.98003
-0.414048
-2.34467
-1.68807
4.03275
-1.40069
0.403519
0.997172
1.8043
-1.855
0.0507027
3.69423
0.246666
-3.9409
0.0418133
-2.97361
2.9318
-1.39517
3.67309
0.763649
-2.13431
1.37066
-1.72639
4.28199
-3.29057
2.11746
1.17311
0.712477
-0.934332
0.221855
1.78314
-4.87317
3.09004
-3.81018
1.34357
-2.39723
-1.65512
4.20149
-2.51293
-1.68856
-1.02977
1.14414
0.64547
-0.687916
0.0424457
-3.04005
-0.610098
3.65015
-3.37834
4.68588
-1.30754
3.50285
-2.53435
-0.968504
0.369572
-1.03832
0.668745
-1.02424
-1.80796
2.83221
1.37057
-0.609329
-1.76734
1.43203
-2.8394
-0.943314
3.78272
0.455641
0.111022
-0.566664
0.552844
-2.43638
0.32212
-0.734074
3.42696
-0.258488
-0.633342
0.507889
-0.686517
0.816506
-0.129989
0.36782
3.79941
-3.03591
2.01166
1.05185
-0.021871
-1.02998
-2.72913
0.558013
2.17112
1.15099
2.35186
5.09317
-3.31003
2.91433
-4.90776
1.99343
0.703002
-3.0986
2.39559
0.100364
-1.59814
-1.93138
2.80098
2.59217
-3.78166
1.33036
-2.89713
1.56677
-4.89097
2.82412
2.06686
-0.06958
-1.63548
0.705105
0.509281
-1.21439
2.85135
-0.88386
-1.96749
0.700068
-2.90899
2.83082
-0.981765
-0.280544
2.54577
4.3833
-3.49775
-0.885547
-0.0338161
-0.516255
0.550071
2.66282
0.502212
-3.16503
0.865914
-0.17587
-0.690044
-0.653061
2.63185
-1.97879
-1.81718
2.61928
2.22106
-1.45741
-0.318391
0.837496
-0.519104
3.74718
-1.24059
0.433065
-0.0422882
-0.390777
0.556719
-0.226815
-0.329903
-0.521994
0.547496
-0.0255018
4.14222
-2.60017
-1.54205
0.963613
-4.34195
-0.580374
0.0583798
-3.46886
1.17125
2.29761
4.76463
-1.48154
0.987008
-3.93727
5.11202
-2.30712
-2.8049
-0.0693977
0.525039
3.0747
-1.43994
-1.63476
-2.40597
0.566615
1.83936
-3.89465
3.94947
-0.0548274
1.09217
-3.42383
2.33165
-0.121417
-0.208974
0.330391
-1.862
2.52973
-0.667724
-0.612043
0.648047
-0.0360048
-0.566299
0.263974
-0.651388
0.109934
-2.176
-1.18761
1.59771
-3.03398
1.43627
1.60358
-0.290695
-1.31288
1.56242
1.25758
2.61095
-1.28059
0.0471423
0.312369
2.79758
1.96706
-1.95176
0.0693848
1.88238
1.05651
2.01819
1.48812
0.618364
0.596348
1.00723
-1.09605
-0.0776783
1.17372
-0.268632
0.981109
-2.77205
2.11899
-0.693757
0.738906
-0.0451486
-3.57717
3.45199
0.125172
-1.32459
2.18167
-0.857078
-0.821085
-0.412416
1.2335
3.06027
-3.32476
0.26449
-3.02913
-1.86184
5.14542
-3.2481
-1.89733
-0.407771
0.373955
3.79672
-2.70454
-1.52631
3.12403
-0.571703
-0.779643
1.35135
3.15096
-0.654082
-2.49688
4.89016
-1.24716
-3.643
-1.49328
0.921577
3.26726
-1.91788
-1.34937
-0.618925
3.09626
-2.47734
3.15918
-4.12166
0.962473
1.53804
-1.03931
-0.49873
1.59009
-0.54107
-1.04902
4.99739
-4.08488
-0.91251
-2.37508
-1.88333
2.84407
1.53923
-3.2824
-0.294763
0.103742
0.452977
0.324075
-2.65786
2.33378
0.0163642
0.629106
-2.17027
4.4468
1.61332
2.52889
4.55658
-2.74942
-1.80716
-4.12889
3.18558
2.87516
-4.81404
1.93888
-2.46642
-0.180487
2.6469
-0.874287
-0.705693
1.57998
2.12787
-0.903092
0.154546
0.897304
1.79055
-0.0799671
-1.87922
-2.76665
3.75941
-0.992755
-0.807654
0.121137
-0.296424
-0.0219678
0.519601
-4.41425
1.1193
-2.93648
0.474307
-0.919442
1.19105
-0.271606
-0.0129398
0.291225
-1.99456
1.50152
0.493039
1.35606
1.09955
-1.09099
2.46039
-1.3694
1.95829
0.426254
-2.43093
2.75501
2.25696
-0.198038
-0.816324
-1.9128
3.84196
-2.95832
-0.883644
3.58962
-3.1357
0.866517
2.26918
3.13145
-3.42356
0.292115
-1.65938
1.38014
-0.467433
-0.324287
-0.426734
-2.39173
1.09859
-2.11336
1.01477
1.65792
1.60934
2.87062
-4.54603
1.67541
0.858993
-2.08339
1.2244
-3.8716
0.656819
0.0396567
1.36885
-2.21906
3.47674
-1.25768
-1.01331
1.21977
-0.206455
-1.5475
-0.449769
-0.487354
-0.873828
1.36118
0.366886
0.00713536
-0.374021
-1.3003
-0.544667
1.50599
1.76128
-3.26727
2.86009
-1.80359
1.06991
-1.76042
0.101043
1.7899
-0.930908
-2.60949
-0.681083
0.357947
-0.916493
0.558546
3.84781
-1.33657
-1.78863
2.93488
-1.14624
-0.452374
0.510687
-0.0583126
2.92806
-0.0767067
-0.560157
-2.0977
-1.95032
3.61166
-1.66134
2.54301
-4.53081
1.98781
2.3839
2.76152
1.38145
-1.2887
-0.0927591
0.357986
-2.8244
2.66893
-4.037
1.36807
1.09984
-0.937925
-0.287785
2.45849
-1.35255
2.47185
-2.38176
3.08476
0.818313
-4.31425
-3.53574
1.88605
1.6497
2.52162
-0.39832
-2.1233
3.74007
-0.6798
-1.6662
-2.08677
-1.88623
1.95641
-1.34007
-0.125709
1.46578
1.26238
-1.14144
-2.77827
2.49048
3.46313
0.924051
-3.0717
1.28307
4.30184
-1.45778
0.165344
0.524234
-0.689578
0.0833146
-2.50428
2.42096
-3.59538
0.677887
2.9175
3.34677
-3.34677
-0.827426
2.87027
-2.04285
1.80011
-2.8911
2.73414
-1.62265
-1.11148
-3.65731
3.8152
-0.15789
1.29862
-0.172465
-1.12615
1.02477
-0.463631
-0.561138
0.42198
-1.24306
-1.2487
1.74698
-3.27329
-3.33584
3.8941
-0.55826
-1.1196
2.62559
0.353406
-0.0213883
-0.332017
-0.42368
0.60537
-0.18169
-1.49833
1.5987
4.4058
-3.61146
-0.794336
-0.326058
-2.0923
2.41836
-0.887093
0.978519
-0.0914267
0.481105
-1.10849
0.627381
-4.0266
1.57687
2.44973
-0.239633
-0.0772746
-0.321716
0.48706
-0.0247823
-0.335317
0.360099
2.27802
2.71937
0.352154
0.00125184
-0.184336
-1.17485
1.35918
-1.96448
3.11776
-1.15328
-0.127731
0.470716
-0.342985
1.69208
-0.795802
3.00569
-1.1264
-1.87929
-0.0116963
-1.57915
0.417527
3.2767
1.65589
1.19108
-2.84697
1.79679
-1.62607
-0.170719
-4.06382
0.722719
-1.68373
0.699586
0.984148
1.78219
2.28756
-4.06975
-2.48877
2.30828
0.26467
-3.59604
3.33137
-0.484934
0.854505
0.693463
-0.910682
0.217218
0.0799993
-1.17604
0.267384
-0.642865
0.375481
-2.63623
-0.832629
2.44189
0.495198
0.0756036
-0.570802
-0.453133
0.00075897
0.703207
-2.83205
2.12884
0.938186
2.1482
-3.08638
1.45207
-2.84062
3.4754
-0.634781
-2.82796
2.20903
0.793169
0.806555
-1.55162
-1.10821
-1.00121
0.274259
0.726949
-3.37537
1.41089
2.66131
-2.98736
1.81308
2.48877
-1.14348
1.16381
-0.0203283
1.65376
-3.81525
2.16149
0.541482
-1.04057
0.499092
2.03736
-2.59751
-2.51516
-0.0508151
-1.2249
-0.10223
0.138072
0.972366
-1.11044
1.37667
0.0226164
-0.268346
0.245729
3.82212
-2.03994
-0.622313
1.7714
-1.14909
1.04677
0.678728
-1.7255
-1.40716
0.922224
-0.821381
-0.179827
1.59993
1.1342
-0.901126
-2.93961
1.12449
-0.766544
2.46449
1.57636
0.680591
-3.50731
3.84337
0.443629
-1.83763
1.394
-0.358315
-3.29444
3.65276
-0.350616
0.298474
0.0521421
0.128086
-1.52878
-1.08247
4.24165
4.396
-2.36115
-1.72417
-0.270393
0.0585258
-1.61765
1.55912
1.60935
-3.95403
-0.50912
-1.8482
2.35732
0.000761994
-0.36886
0.368098
-2.5968
0.238837
2.35796
3.76632
-2.68133
-0.100377
0.32942
-0.229042
-0.833644
-0.053449
0.679283
1.40446
-2.08374
0.531624
-0.650688
0.119063
2.59591
1.45043
-4.04634
-1.54032
4.509
0.36834
-0.00145461
-1.06345
-2.14754
3.21099
1.4463
2.8693
3.71573
-2.77755
-1.34585
0.858492
0.952231
0.637861
-1.78339
4.65854
0.567145
-3.06853
2.50139
3.62105
-0.588809
-3.03224
-1.91224
2.86132
-0.949083
1.56451
-1.65086
-1.74416
3.39503
0.209255
-0.304451
0.0951964
-1.15663
-1.92457
3.0812
0.141895
-0.565575
0.0882483
-0.165331
2.03297
-3.18961
-2.81228
-0.835315
3.6476
-0.247884
-1.88942
2.1373
0.999867
5.06669
-5.18814
0.121458
0.829317
-0.616952
-0.212365
0.0342936
-1.17777
1.00463
0.865458
-1.21816
0.343876
-3.12691
3.97733
-0.850422
-0.161567
-0.53219
1.19801
1.38949
-3.43503
-0.959765
-0.607769
1.44191
-0.834145
2.1159
-0.539532
-0.786018
0.8659
-0.0798818
-0.171443
-0.4406
-4.60395
2.20672
3.68526
0.739094
-0.520554
1.00166
-0.760616
1.80738
3.21864
-1.47166
-0.81109
0.0250716
-0.381335
-2.39693
0.845672
0.891053
-0.841285
-3.65404
0.0586546
0.654629
0.815479
-0.273996
-3.83605
2.54407
1.29198
3.03824
0.554518
0.711003
-0.220283
-0.49072
1.06346
-0.990053
-0.073404
-3.43264
1.25941
-4.0387
2.08838
-0.597918
0.756619
-0.158701
-0.163051
0.241833
-0.078782
4.31324
0.00669216
-4.31993
0.721992
0.0481074
-0.7701
-0.528395
-0.981353
0.853248
-0.0652554
1.00947
-1.07854
0.069069
1.48369
-0.236694
-1.247
-0.18666
1.19613
3.31817
-2.56467
-0.124038
-0.53292
0.656958
-4.0669
0.939995
-0.240868
-0.292107
-0.0542418
-0.338933
0.834132
0.0011447
0.0459976
0.943064
0.59911
-1.54217
1.61336
0.197799
1.73181
-1.28818
0.835297
-0.731
0.247584
-1.2609
2.45131
-0.120121
-2.33119
2.13619
-0.120395
-2.0158
-2.7895
-1.49511
-0.027614
-0.692858
0.720472
1.60862
-1.7473
0.138686
4.30283
-0.0982674
-4.20457
-0.591696
-0.725909
1.31761
-1.92599
2.55088
-0.624889
2.11321
2.51963
-4.63284
-1.33817
0.222097
-1.01745
1.66524
-0.647794
0.803811
0.378634
-1.18244
-4.21667
2.14476
2.07191
-1.00562
-0.0729252
-3.35895
0.546664
1.13768
-0.714714
-0.422961
1.93768
-2.44218
0.504502
-0.276083
-0.756825
0.744602
4.32208
3.27149
-0.542427
-2.72906
-3.40041
0.559786
1.30595
-2.12227
2.77292
-4.38416
1.61124
-0.360147
1.06525
0.0261883
-1.53033
1.34599
-0.609477
0.801882
-0.545873
-3.03901
3.58489
1.54615
2.25057
-2.87987
3.07438
-0.194515
-0.632255
0.770327
-2.43014
-0.985177
-0.442477
0.489437
-0.0469597
0.957944
-1.12688
0.168938
0.230349
-0.177758
-0.0525909
-0.281383
2.21906
-3.17804
-0.351692
3.52974
-3.03194
-0.97569
4.00763
1.87936
-1.37945
-0.499908
-0.863888
0.101427
0.762461
-1.04955
-0.536414
1.58596
-3.93802
0.219127
3.71889
0.1157
0.701013
-0.816712
3.17033
-3.58432
0.413991
-2.06074
2.95502
-0.0874569
-2.86756
0.0293064
-0.471784
-0.632685
-1.8557
2.48839
2.41231
-4.1387
-3.77961
3.29468
0.484929
0.639704
-0.10808
2.62935
-1.43135
-0.155777
-1.11044
1.26622
-0.0407248
0.648693
-0.607969
-0.910169
3.69549
-2.78532
3.13732
-1.53796
-1.59937
3.99764
-3.83825
-0.159393
3.1696
-1.27337
-1.89623
0.185336
-0.863012
0.677676
-1.0976
-0.0406953
-3.83868
3.35761
0.481062
0.208878
-4.04755
-1.30899
2.2677
-0.958706
-2.34633
-1.73856
0.699188
-0.630425
-0.0687632
-3.18876
-0.878144
-0.675864
0.432397
0.243467
0.80303
0.0628842
-3.65376
3.48465
0.169112
-0.83673
-0.868664
-0.0114598
0.771582
-0.0495903
-2.38005
0.51805
0.469194
-0.602172
0.132978
-2.24841
1.21329
1.03512
1.36202
-0.0634021
-0.984801
2.64151
0.286543
1.39469
0.237094
0.949849
-1.18694
-0.350894
2.15519
-2.37295
1.52622
0.846728
-0.941633
-0.0639842
3.72818
-2.18204
3.2693
-1.61554
-0.978183
-0.602415
1.5806
1.53443
-3.21664
1.68221
2.17018
-2.41806
3.87717
-1.71401
-2.16316
-0.020691
-1.99984
-0.37311
-3.50577
3.7241
-0.218338
0.49662
-1.2086
4.12294
-4.15863
0.969871
0.892797
0.645244
-0.353478
-1.26691
0.564255
-0.0167597
-1.93755
-2.03106
4.74957
-2.04869
0.791562
0.616867
-1.40843
0.284663
0.740106
-2.6131
-1.48398
4.09708
0.680442
1.44743
-0.00245386
-0.520978
0.523431
3.27166
-0.548984
-0.306934
0.855918
2.40117
0.0501434
-1.41582
-3.98819
0.652353
-0.820266
0.0417706
0.778495
2.22759
2.88443
1.23075
-0.225799
-1.00495
3.8541
0.143542
2.32443
-3.29653
0.972101
-3.2713
-0.0874665
3.35877
-3.08353
3.97674
-0.893208
0.494274
-0.00820496
-0.486069
-1.65996
4.07228
-0.812447
0.978964
-0.166517
0.166714
-3.04658
0.727816
-0.121204
-0.606612
-3.75994
4.91903
-1.15909
-0.9342
2.07428
-1.14008
4.63991
-2.04268
-2.59723
-0.0507752
-2.35015
2.40092
-0.854649
-0.0560322
-2.01591
4.12912
1.93815
-2.76557
4.45434
-1.91134
-0.687528
0.56349
-3.4463
0.174997
4.81818
-1.94756
-0.113734
-4.85051
0.897197
-0.0990287
1.19088
2.00186
-3.19274
2.15854
-0.456059
-1.70248
3.06024
-3.81919
0.758947
-0.650827
0.0402691
0.610558
-0.753777
-1.85968
2.61346
1.38217
-1.13458
-1.62087
0.622726
0.998146
0.471078
1.1599
-1.63098
0.313409
0.385779
-3.44891
4.09468
-0.645767
-0.175957
-0.174659
1.76347
0.758821
-2.52229
2.27783
1.68315
-3.96098
0.594555
1.92706
-0.0694632
4.10897
-0.00593851
3.13253
-3.12659
-0.128306
0.000574742
0.449949
0.386052
-0.836001
3.14675
-3.12229
-0.0244663
1.78069
2.09648
-0.167503
-0.0479739
0.215477
-1.15841
3.23101
-2.0726
0.0765921
0.552564
-0.629156
1.75289
-3.04332
1.29043
-2.3865
-1.97794
4.36444
3.29902
-0.6362
1.20277
0.955774
-1.74906
-0.482039
2.2311
1.0952
-3.1875
-1.39171
0.554655
0.837052
0.716015
-0.333626
-0.382389
-0.196897
-0.657753
-0.283235
3.31356
-3.03032
-0.575824
4.31135
3.07862
-2.45865
-0.619968
2.49308
-2.16794
-2.09301
0.630125
1.46288
0.307729
-1.93038
-0.463393
0.446609
0.0167832
0.206281
0.504722
0.596136
2.90786
-3.504
0.779608
0.704084
0.517196
-3.54914
-1.64715
0.702021
0.945128
-1.22789
-0.910576
2.13847
1.8078
-0.86474
-3.34155
2.22195
1.22957
-0.915727
-0.313841
-1.76774
3.11835
-1.35061
-1.70595
1.69425
-1.63476
2.1566
-0.52184
-2.22531
3.38464
-1.15934
-0.0822267
0.786487
-0.70426
-0.211683
0.0486316
-1.14424
-2.34698
3.54546
-1.19847
-2.09624
2.65425
1.96977
-1.97719
0.00742252
0.509139
-0.842758
0.333619
-4.87578
3.38114
1.49464
-0.17807
0.690334
-0.512263
0.018185
2.67364
-3.58381
3.01817
-1.48374
-1.48868
-2.04706
-2.79812
2.79218
1.96862
-0.0550512
1.54347
0.509365
-2.05284
-1.22415
1.12176
0.102396
0.908741
-0.839851
-0.0688902
0.00636004
-1.43098
1.42462
-0.758386
1.94924
-1.19086
-2.95496
-0.97199
3.92695
0.678416
-0.169277
2.74321
0.403541
-3.0883
2.37108
0.717225
1.53754
-1.51709
-0.0204473
0.0215945
0.633906
-0.843741
0.209834
-2.5803
-1.70438
1.71074
0.49182
0.741438
-0.556102
1.10596
-0.148016
0.272179
-1.99657
0.109415
1.03152
-1.14352
1.11945
0.0240742
-2.39122
-1.80585
4.19707
-0.259458
-1.4896
-1.98077
-0.400785
2.38155
0.503207
0.66009
-1.1633
0.0417518
4.39865
-2.81189
-1.58675
0.670175
2.60131
0.344054
1.45086
-1.56181
0.110952
-1.45407
3.6273
-2.17322
-2.22563
-0.968975
3.1946
-1.70617
0.68872
-1.65118
-0.441831
4.42546
-1.82828
-2.59717
0.129404
-0.780497
0.651093
1.55702
0.170827
-1.72785
-0.600761
0.716461
1.14686
-1.4595
0.312641
1.24684
-0.0960835
-0.761704
-0.047382
2.63727
1.78819
-1.58959
3.12622
-1.48156
3.91766
-0.427236
0.55664
-3.36193
1.13631
2.7945
-2.43651
-0.362455
-2.37893
0.452939
0.818053
-2.12705
2.88233
-2.79902
3.21749
-0.0860423
-0.723692
-0.378827
-1.08917
-0.308488
1.39766
-1.09394
-0.128598
2.91563
0.528147
-3.44377
0.109125
-0.975469
0.866344
0.0573177
1.07703
-3.20532
2.12829
3.42914
-0.258812
-3.56313
3.80591
-0.242778
0.826279
-0.501142
-4.28588
-0.589893
-1.24495
3.448
-0.0903845
1.4509
4.45324
-1.61399
-2.83925
-2.49742
-0.147934
2.64535
0.723778
2.02616
-2.74994
-2.71297
0.116164
-0.646453
-0.554837
1.20129
-1.85233
2.41947
0.491503
2.05474
-2.54624
-2.10272
1.99043
0.112291
-3.77004
0.437283
3.33276
1.10219
1.91598
-0.845345
2.19096
0.978645
-1.18415
-0.499586
2.99024
-3.52569
-1.33407
-1.20985
2.54392
-0.625849
-0.712326
2.64584
0.187848
-2.83369
2.50535
-3.98691
0.0912978
-0.212715
-2.53807
2.69801
-0.159946
-2.42672
1.79404
-0.0600052
1.01212
-0.952113
-1.06518
-0.368711
1.43389
1.24205
-1.11396
-0.949293
2.25524
0.159079
-0.756997
-0.545785
0.575092
0.857417
-1.03329
-0.216289
0.00731527
-0.715012
0.684918
0.030094
0.731066
-0.836334
0.105268
-2.73761
1.94398
0.532445
-2.51321
-0.0293611
-1.00041
0.0912906
2.16601
-2.2573
1.1784
-1.25607
0.616644
-3.17525
2.55861
-1.11577
2.65848
-1.54271
0.805875
-3.57253
-0.0424244
-0.10306
-3.67655
2.00611
2.74347
-2.961
-0.380552
-2.32977
-0.805924
-1.51626
0.642433
1.16018
0.282673
-1.44286
4.56781
-2.34022
3.52779
-0.858859
-0.889261
-0.533429
1.42269
-4.40784
1.86207
2.54578
-0.721698
-0.741384
0.143134
2.81188
0.57474
-0.352063
-1.80663
0.329421
-1.14187
-0.0230666
-0.508574
0.531641
-0.458996
3.37462
0.788622
0.0550749
-0.843697
2.90387
-5.06523
2.29023
2.775
0.897824
0.723193
-1.62102
2.47447
-1.16241
-1.31206
-1.93854
1.00434
-1.91071
0.0563228
1.5007
3.52867
-3.88699
1.48092
-0.677109
-1.58795
2.68314
-3.75291
2.70012
1.05279
1.89726
-3.1837
1.28645
-2.77039
2.88894
-0.118555
1.66069
-2.01159
0.0460526
0.911761
0.967594
0.360718
-2.69708
0.974964
-3.5929
1.82361
1.7693
0.91052
-3.40794
2.85828
-0.190185
-2.21579
0.464584
0.80342
4.00059
-1.33689
-2.6637
-1.36579
0.962899
-2.19079
0.545786
-3.75044
3.60251
-3.00522
1.35435
1.89558
-2.96406
1.35537
1.60869
-3.30643
2.2102
1.09622
-0.961052
-0.327458
0.32822
-3.76001
2.64688
1.11314
2.38606
-4.04602
-3.40595
-0.0429601
4.34295
-1.57003
1.20949
0.354427
-1.56392
-0.0891556
-0.549394
0.63855
-0.727054
1.87581
2.06921
-1.62116
-1.3429
0.682144
0.700023
0.882986
1.32674
-2.20973
1.33621
-0.826934
-0.104599
-4.25288
4.35748
-1.26165
1.65686
-3.05203
-2.56227
-1.64958
4.21186
0.905472
-1.1553
-2.54413
0.777073
1.76706
-0.0306852
0.0837378
-0.0530526
3.3161
-3.86197
-0.42318
-2.11489
1.67238
1.4883
-3.16068
-0.153524
0.945086
-3.07607
0.869891
2.20618
-4.23904
1.85254
2.22294
-3.67701
1.60533
-2.9394
0.0131537
-0.0438389
-0.114417
3.73546
-2.30397
2.88085
-0.576878
3.7096
-0.00565858
-3.70394
-2.69369
-0.06655
-0.852892
0.189652
3.15712
0.394044
0.116643
1.38453
-0.781853
2.58196
1.92022
0.190683
0.718058
-3.42862
-0.225134
-3.13795
1.29464
-2.73458
0.596138
0.704304
-1.30044
3.18168
0.177855
-3.35954
-0.369953
0.361748
-1.24907
-2.78963
-2.97353
-0.450035
-1.5594
4.06475
-1.26653
1.69034
-0.423813
-3.47306
1.08183
-1.04222
1.92521
-1.37161
-2.46444
-1.4191
-1.21896
1.26966
-1.60545
-0.64296
4.00872
-0.560721
2.27895
-1.02181
-1.25714
0.426392
0.411103
0.908165
3.87625
-3.61158
0.0180028
-0.799298
1.11382
-1.90249
1.97187
-1.64988
-1.85613
0.779078
0.612279
-1.39136
-3.40694
0.060168
-0.437927
2.89018
-2.45225
-0.24366
-3.31947
-2.66439
3.1666
5.09421
-2.26574
-2.82848
-0.496546
1.19613
3.1115
-1.70799
-1.40351
0.923126
-1.01921
0.5567
-0.106751
-0.703324
0.108496
0.594829
-0.471894
2.01537
-1.73426
4.12032
-0.159902
-0.470522
-1.00275
-0.244431
1.24718
-0.087725
3.40383
0.0885846
1.26803
-1.35662
-1.40297
2.08225
1.65443
1.57658
-1.23433
-0.412814
1.87814
-0.681012
-1.19712
-0.340143
0.176149
0.163994
0.49236
-3.05917
2.56681
-3.49923
0.525703
0.777528
-1.4884
2.78304
-0.0290235
0.952149
0.409208
-1.67574
-3.83271
1.94648
-3.90621
1.26449
-1.63713
0.138791
-1.60434
-2.10969
3.71403
-3.54971
-0.189562
1.34923
-1.15966
3.68507
-2.72668
2.98271
-2.25893
0.599226
1.97965
-2.57888
0.833691
-1.48014
-2.70045
-0.652105
3.35255
-0.250857
0.877885
-0.627029
-1.61414
3.66058
-2.04644
3.04832
-1.88795
-1.16038
3.04091
0.0903208
-3.13123
-2.11875
-2.94648
-1.18997
-0.0349297
1.3377
2.30999
-0.0736459
0.302095
-0.228449
-2.48168
-0.594385
2.79267
2.30336
-1.93611
2.31254
-0.376425
-0.872498
0.565564
0.297173
1.43197
-1.72914
0.740192
0.0484304
-0.413637
-3.34637
-3.07799
1.12842
0.10115
-0.555886
0.878006
0.235992
2.7993
-3.0353
-1.8981
-0.481955
1.99759
0.862499
0.253071
-0.894933
-0.905633
-0.13123
1.03686
0.375006
-1.32779
0.952785
1.16246
1.01921
0.540498
3.04896
-1.39105
3.34646
-1.6896
-0.35361
-0.90704
1.26065
2.82115
0.275112
0.138708
-2.44563
1.69185
2.55037
-2.63809
-2.0182
-2.01361
4.03181
-2.39467
-2.01317
-4.10722
4.28659
-0.179374
0.103869
-1.44686
1.13837
2.06566
0.983308
-0.0886976
-0.661492
0.750189
-1.1851
-2.47558
-0.322909
-2.79944
3.12235
1.64124
-0.960798
-0.765099
-0.626608
2.15481
-3.40389
1.77735
-1.3332
-0.869666
4.22205
-3.35238
2.11404
1.9145
1.0421
-2.95661
4.15849
-2.46498
-1.6935
-1.53743
-2.61618
4.37172
-1.75555
1.06813
1.21082
-0.998465
0.969442
1.5879
3.05201
-0.748629
0.659473
0.269068
-0.246451
3.6149
-2.01232
1.68306
2.88475
-1.43498
0.724708
0.710273
0.802529
-1.78071
2.82963
-0.183787
1.94875
-0.739262
-2.58946
-0.461286
3.05075
0.65225
-0.140721
-0.511529
0.462556
0.366761
0.558731
-3.64226
-0.975636
1.05564
2.65978
-2.30558
-0.354204
0.559125
1.31901
-0.49617
0.275888
0.840233
0.851947
-1.69218
-1.91217
3.89726
1.17152
-2.16084
4.4073
-2.24646
-1.09392
1.565
-2.04253
-0.0601822
4.0659
-2.02978
-1.25262
1.21528
1.25919
1.04505
-1.07441
-0.618436
0.536209
-1.05094
-0.463951
0.0108178
2.41806
-0.524265
3.02291
-2.49865
0.163226
-0.188008
-1.43817
0.327728
-1.15226
-0.0377086
-3.39326
2.32982
0.813208
0.852031
-0.0357968
-0.91571
0.951506
1.03807
0.280405
3.15227
1.62699
-4.77926
-0.288589
-0.0988305
0.38742
1.48328
-2.10559
3.36509
1.72912
2.90623
-2.67024
-4.39956
0.532794
0.216557
-0.586649
1.73787
3.75772
-0.192302
-3.56541
1.27772
-0.0993235
-0.136063
-1.1605
-0.274486
-1.84503
-1.74142
2.04915
0.994056
0.777343
2.10621
-2.16196
0.0557416
0.661181
0.0237373
-0.20532
0.865466
-0.1344
2.81899
0.80392
-3.62291
0.0695047
-0.0925713
-0.775267
0.461274
0.313993
-1.18698
0.00479825
1.18218
1.1664
2.17663
-3.34303
0.81038
0.997424
2.58437
-0.0715216
-0.896584
2.2633
-3.04515
-0.262329
0.384102
-0.121773
-3.65931
2.00419
3.09881
-2.4992
-0.599609
0.057266
-0.486553
0.429287
3.20595
-3.48918
2.0817
-0.440458
1.24773
1.73498
-0.39221
-0.0717411
-1.33846
0.634623
0.70384
-2.16769
-0.412242
3.97656
-2.0278
-1.94876
2.07874
-0.263418
-1.81532
1.44796
-2.4855
1.03754
0.00338801
1.83265
-0.0427447
-0.986589
2.4559
-1.46931
-0.597562
-0.740901
-1.09071
-0.701775
0.75685
3.54327
0.00279855
-3.54607
-1.14607
-1.05391
-0.0896146
0.0423217
-0.0902956
2.22271
0.4753
-0.50821
0.738559
0.0168367
0.326332
-0.596532
0.45778
-1.3672
1.96643
0.056948
0.834105
-1.03134
-1.17344
2.73586
-0.197788
2.304
-0.608217
-0.362235
-0.841909
1.68214
-0.683719
3.26299
-2.57927
-2.95777
-0.401182
-2.00971
3.22095
-1.21125
-0.861849
0.160075
1.05611
-0.21557
-0.0681404
-0.806524
0.874664
-3.00217
0.972396
0.315075
-0.415452
1.795
-4.4081
1.27697
-3.42451
-0.843484
3.15525
-1.49204
1.7404
-0.888453
0.0456337
-2.33662
2.82898
-0.0118028
-0.504452
0.548828
-1.92828
-0.328607
-2.16758
2.49619
0.595052
1.51359
4.69335
-3.10342
-1.58994
-0.737183
0.243881
0.777413
0.0750206
-0.852433
-2.84672
0.542748
0.580923
0.135092
-0.0343207
-0.399756
0.434077
1.40999
-3.41969
0.313896
1.59028
0.07698
-1.66726
-3.62171
2.93799
0.504607
0.118972
-0.623579
1.16149
-3.50847
-0.439242
-0.022104
0.461346
0.655636
-0.151029
-0.0439208
2.54062
-1.94606
2.14593
1.68942
-0.879037
-3.64833
1.08606
-2.39774
1.90747
0.490261
1.92203
-3.94023
-1.72631
-1.05144
2.77775
0.312707
1.32498
-0.994268
0.821803
4.05888
-0.589781
-3.4691
-0.0225893
-3.40604
2.77377
0.267139
1.45012
1.66137
-0.494596
-0.026382
0.48283
-0.98477
-1.12859
0.279851
-0.543388
0.263537
0.0459348
-3.80489
3.75895
-0.134785
0.946701
-0.811917
1.27073
-3.27101
2.00028
-0.411491
-1.89621
-0.132631
0.0115057
2.35657
-1.1403
-0.65076
1.79106
-1.18927
-1.44696
1.4887
-0.876418
0.791725
-1.01332
0.221599
-1.11145
1.07565
-3.02336
-0.47864
-0.0537588
0.532398
0.372894
1.08294
-1.45584
1.4975
-1.62421
0.126703
0.031172
-1.8905
0.638669
-4.39861
-1.63069
-2.50296
4.13365
-3.39165
0.157585
3.23407
-4.59098
-2.798
0.0276111
-0.91873
0.957205
-0.0384751
-4.07232
-1.27273
4.09172
1.25114
-0.652026
0.266296
-1.1082
-0.572894
1.57032
0.483801
0.263521
-1.26627
0.0611551
-0.52643
0.465275
-0.589449
0.325535
-0.339636
0.396902
-0.866822
1.76465
-3.50102
2.21585
1.28518
-1.10234
1.25689
2.11798
0.638295
0.0139553
-0.862421
0.773724
-1.67162
-0.872513
-1.81254
0.649281
1.16326
0.466918
0.370224
-0.837142
-1.32027
1.69528
-0.269974
2.44109
2.43541
-2.34682
1.94382
-3.13309
1.52154
-2.07139
0.549847
0.304593
0.0248272
-1.349
0.0603049
-3.71755
2.1132
0.309858
1.76888
0.0484521
-0.666062
0.617609
-5.24393
2.16038
-0.556328
0.329513
-0.637459
-0.0749146
-0.709496
0.78441
-1.85424
0.713946
-3.66954
3.25591
3.47234
-1.79996
-0.771381
0.693885
0.0774962
0.693644
0.74827
-0.473562
-3.78196
1.33739
2.44457
-0.445336
0.346505
-0.310953
1.08697
-0.776017
1.24053
0.841167
0.477498
-0.36799
-0.109508
-0.863607
0.920555
0.365541
0.734295
1.98806
-2.87939
3.59555
0.258545
-2.13061
-0.257448
3.34416
-0.0928844
-3.25127
-0.290716
0.49658
-0.205864
1.95889
-3.89645
0.550395
1.09764
-1.64803
0.282229
-0.344304
0.0620744
-3.17692
3.14642
0.0305002
-1.62752
2.24417
2.80798
0.329344
3.29369
-1.15891
-2.13478
-0.0353396
-0.333509
0.368848
-1.35016
-1.03716
-0.0604379
-1.00385
-0.0333108
0.0625638
-1.13528
1.07272
-0.297914
3.32298
-3.02506
-3.07193
1.20233
1.8696
0.96018
3.35306
0.145917
0.0301656
-0.176083
1.93438
0.831977
-2.76636
0.0395827
1.1206
-1.4116
3.52946
-2.11786
-3.02455
0.435086
2.36468
0.936954
-2.66326
-0.010636
-0.388918
0.399554
3.67249
-0.944237
-2.72825
1.32616
0.718347
-4.12909
2.09803
3.95884
-4.06344
-1.79212
0.470019
1.3221
-0.326831
-0.504026
1.05076
-0.546738
-1.37056
0.796815
0.573744
-0.034621
0.396899
-0.362278
-0.173871
0.116815
0.0570557
-1.9211
4.07591
-0.964678
1.0232
0.430578
-0.741531
1.24189
-1.83443
0.592535
-2.16476
-1.58815
-1.51113
0.461588
1.15801
0.0657268
-1.22373
3.8401
-0.653904
-3.18619
0.422241
2.23754
-0.773828
-0.450323
-1.88533
0.267683
1.87369
1.52404
-3.39772
0.104717
-0.173288
0.0685715
-0.0791638
1.14262
-0.116432
1.50697
-1.39054
3.68181
-1.5999
-2.08191
-3.64313
0.604117
1.24603
-2.44981
0.536308
1.9135
1.16117
-2.51372
0.113866
-0.405973
-1.21515
-0.133848
-2.48176
3.2464
-0.764636
0.469171
0.105569
-0.344101
-0.135634
-0.774813
0.614911
-1.25323
0.527317
-1.86375
2.56181
-0.698062
2.41906
-1.36208
-1.05697
2.44444
-1.28198
0.779746
0.198773
-0.755415
0.624447
-0.075163
-1.289
1.54198
-3.07993
-2.4576
1.47101
-1.74251
1.2061
0.449894
0.205742
0.109304
0.172925
3.06615
-3.08036
0.0142142
3.01518
-1.65575
0.644169
1.01158
0.280036
-1.07933
-0.834241
-3.1414
-0.796743
0.656022
-0.541926
-0.90929
1.45122
-2.70435
0.60811
0.87918
1.2879
-2.16708
0.29281
-0.543667
-0.954469
-2.17106
3.85421
-0.349994
-2.14689
0.886878
-1.70959
0.822709
-0.839612
1.09268
-1.98221
-3.26172
0.337565
-1.40274
2.33449
-3.6684
2.79362
0.874778
-0.051226
-1.03336
0.0614486
-1.12796
1.06651
-3.29289
-1.61487
-0.503485
0.481381
3.50265
1.59052
0.955604
2.8922
-2.72863
-1.80218
3.1679
-0.167855
-3.00005
2.22189
-1.94971