/*--------------------------------*- C++ -*----------------------------------*\
| =========                 |                                                 |
| \\      /  F ield         | OpenFOAM: The Open Source CFD Toolbox           |
|  \\    /   O peration     | Version:  2306                                  |
|   \\  /    A nd           | Website:  www.openfoam.com                      |
|    \\/     M anipulation  |                                                 |
\*---------------------------------------------------------------------------*/
FoamFile
{
    version     2.0;
    format      ascii;
    arch        "LSB;label=32;scalar=64";
    class       volScalarField;
    location    "1.75";
    object      p;
}
// * * * * * * * * * * * * * * * * * * * * * * * * * * * * * * * * * * * * * //

dimensions      [0 2 -2 0 0 0 0];

internalField   nonuniform List<scalar> 
13486
(
2.22208
1.77844
0.20266
-0.581118
0.666619
-0.0248668
0.21299
1.21893
1.50046
0.794245
-0.876135
0.437193
2.33946
-0.223848
0.509588
0.880609
-1.83532
-1.14074
0.552487
2.00184
-0.51192
2.31138
1.74814
-0.488693
0.750969
-0.462224
-0.664441
-0.312259
-0.0267266
-0.245358
-0.397131
0.333851
-0.658497
-0.177637
1.22329
0.0301143
0.0813522
1.80726
0.0698452
1.50966
0.0029822
2.42929
0.0343391
0.758102
0.721882
0.425272
-4.12718
-0.0201664
0.0790605
-0.40264
1.33061
0.0417747
0.364129
1.83781
-0.393724
0.732785
0.112794
0.0382036
-0.639925
0.0769232
-0.808758
0.0901436
-1.81066
-0.493549
-0.287368
0.0791822
-0.589698
2.22993
1.49027
0.047487
-0.591701
-0.480474
1.52276
-7.90331
0.0730405
0.0972956
0.0737968
0.494
-2.81606
0.047622
0.00432518
1.80651
-1.89397
0.220091
2.23101
0.949366
0.171092
1.24884
1.48127
0.888727
0.201695
1.04996
2.12863
1.90807
1.55258
0.0167214
-0.675119
-0.57151
1.48518
-1.62788
0.0116928
-0.140714
-0.566025
0.0430977
1.16915
-1.69808
1.50344
0.0665035
-3.41989
0.91856
1.42792
0.159524
1.83656
0.0759709
2.6321
1.49673
0.753979
-0.15118
1.53716
0.071336
-0.892255
-0.803597
1.62635
0.0614934
1.42338
0.0442464
1.05693
0.435161
-0.123133
-0.227459
0.0379342
-4.13472
-7.31307
-6.34012
1.38887
1.19934
2.74025
0.964054
0.0645278
1.26534
-0.595705
0.354065
0.426694
0.0435494
0.060766
-1.12339
0.230696
1.8825
-0.434953
0.00568352
0.912423
0.461459
0.00307155
1.84331
0.476727
0.193873
0.716085
-0.104049
1.63427
0.139583
-0.300064
1.63477
-0.288452
2.42257
0.041517
-0.452076
0.00404771
3.07931
0.23304
-6.41429
-7.5709
0.478238
1.06984
0.782944
0.0150842
-0.541356
-0.491237
-0.726886
1.51291
0.452842
1.40786
0.0690048
0.631899
-0.713511
0.252651
-0.320889
0.0060151
-0.237423
0.0889836
1.57969
0.068221
0.151643
0.0383861
1.97386
0.0267192
-0.870465
-0.243039
-0.298357
1.99754
-0.366291
-0.390043
0.405452
1.8108
0.454545
0.126297
0.0223552
-0.891217
1.63253
0.0572222
0.260441
-0.255451
-0.335313
1.97529
1.5066
-0.0150161
-0.0627296
-0.271173
0.90858
2.01615
-1.69309
-1.90416
-0.452372
1.30117
-0.306447
0.296203
2.16419
-0.283513
-0.409121
-0.0461755
0.163404
1.39124
-0.403557
-0.609537
2.47964
-0.519477
2.081
-0.194154
0.151295
2.10276
0.66505
-0.624087
1.05938
0.0895263
1.98064
0.0889321
1.70716
0.722338
-0.348186
-7.42826
0.852788
-0.61397
2.66586
1.44466
0.0562699
-0.00156627
-0.577434
0.325939
-0.0544195
-0.0453121
-0.579732
1.63031
0.0912203
0.497127
-0.577333
0.742511
-0.715627
-0.0499648
-0.423028
1.43933
0.113452
1.52223
1.47425
-0.276423
0.380872
2.16808
-0.332254
0.00487119
-0.0999908
0.0567511
0.243619
-0.0841824
1.23895
1.51736
-0.708456
-0.777636
-0.752805
-0.632218
-0.14829
0.296649
1.44702
-0.52506
0.114516
1.55381
1.40226
-0.181635
-0.213417
-0.279573
0.365589
1.55566
0.161268
-0.394194
-0.898534
0.236829
0.369149
0.0619814
0.481556
-0.465426
0.762979
0.156115
0.0792744
-5.54441
-0.581102
-0.224812
0.159388
-0.900502
1.22659
0.11777
1.48451
1.64346
-0.0706592
0.0757186
0.105304
1.50072
1.91957
2.68855
0.229462
0.925345
1.21043
0.317854
0.84843
1.26389
0.996327
0.125708
2.06024
0.206018
1.46385
2.71634
0.501709
0.956961
0.0922621
-0.0550118
1.90061
0.811925
0.642538
-0.701917
0.00613652
0.994389
2.61801
-1.64358
0.119453
0.954748
0.336371
0.370833
-0.695786
1.5447
0.0448078
-7.33717
1.03417
0.147569
-0.326819
0.537278
0.235687
1.66175
1.48117
-0.263587
0.00726702
-0.201647
-5.02515
2.0217
1.04914
-0.00190348
1.01607
0.298809
-0.633551
-0.0471596
1.33729
1.51071
0.105176
-0.890482
-3.24442
1.4198
0.960163
2.34735
1.60474
-4.99973
-0.00759244
0.226895
0.935739
-7.02879
-0.399237
1.94317
-0.314114
0.682738
2.11701
2.19795
0.0639955
-0.588955
-0.632084
-5.39209
-0.639405
-6.65072
0.382387
1.32537
-0.625387
0.252372
0.21766
1.88112
-0.686758
1.07196
1.67687
0.918794
-1.15721
-0.348078
1.55159
1.50903
1.90852
-0.686958
0.766899
-8.51333
0.690732
1.50873
-0.334722
2.62838
0.993749
-0.298387
-0.215406
0.387477
1.50875
-0.661202
0.0957674
2.29233
1.33016
0.664327
0.295383
0.584017
-0.40176
2.33684
0.114382
0.82556
2.19294
-7.15551
-0.291213
-6.11041
-0.352855
0.149524
1.76305
1.79037
2.30635
-3.28503
0.0691239
-0.705606
0.97097
1.50856
-0.389355
-1.28686
1.49092
-0.625484
-0.528495
-0.700477
-1.08055
-0.103471
1.86721
0.0153236
0.124828
-0.56333
1.42662
-0.00345336
2.89917
2.1528
1.51918
1.16159
0.00638121
-0.00353043
2.69889
-0.0289303
0.0647076
-0.288418
1.47736
-0.827834
0.361563
1.07472
0.0575064
-0.554207
1.72536
-1.21342
-4.01115
1.00646
-0.402983
3.06808
1.04363
1.34715
1.62269
-0.562184
0.238707
2.46096
0.651943
1.92906
0.21526
0.481772
-0.421489
0.0469595
0.0434398
-1.51232
1.53123
1.46348
-0.609202
0.00320644
-0.0654826
2.21846
1.76849
-0.00718237
1.49298
1.08506
-0.54754
0.730653
1.33519
-8.42857
2.3088
0.0654287
0.0624837
2.41254
0.969054
0.0372902
0.989635
-0.403616
-0.616854
0.631408
0.866324
1.65085
2.1341
-0.705042
0.58141
-0.725377
-0.000729874
2.07371
0.496154
-0.69987
-0.564286
-0.535754
-0.0337054
1.18072
-0.280925
-1.21262
1.49721
2.0351
0.0875265
1.62629
-1.21381
-0.646506
-1.79483
0.675135
-0.720172
1.64543
0.243629
-0.790778
1.2588
1.7476
-0.563894
-0.734015
1.3479
2.07918
0.493201
2.24085
0.229657
1.02685
0.423022
1.66212
0.0695811
2.02286
-0.684701
0.357231
1.418
-0.119297
-0.317149
1.49475
-8.05937
0.367383
1.74352
2.30642
-0.289732
-0.0218627
0.437765
0.297645
1.3592
1.06203
0.340199
-0.75156
0.169306
2.20511
0.352689
0.147198
-0.452525
2.32169
-0.107026
0.0789998
1.46022
1.1394
0.0428172
-0.196787
1.23918
0.283068
0.18251
0.668855
-1.27832
2.25117
1.46131
1.04174
1.05286
0.2316
-0.64709
2.53786
0.536785
2.54323
-0.414258
1.4632
0.00358125
-8.6543
0.822948
0.849161
2.66943
-0.378985
0.915422
0.887778
-1.73124
0.810923
-1.41924
-0.619037
1.44868
-0.739102
-0.305112
-0.405489
-0.258338
-0.109665
1.61263
0.00349918
2.46194
1.48517
0.138566
-0.643267
-0.264239
0.586215
-0.786933
-0.351921
-1.43333
2.0652
-0.000920243
0.111431
-0.683434
2.35464
0.000929354
-0.345074
2.40927
1.31893
-0.682501
0.0850351
1.04715
0.253184
1.40698
0.0840917
-0.306287
0.645445
1.34785
0.508314
1.21086
2.44505
0.083415
-0.500854
1.4807
-0.222649
-0.0504848
0.99456
1.13134
0.675302
-0.69198
0.260602
0.0981034
0.324065
2.07039
0.5359
0.303523
0.2225
-0.106937
0.00962255
1.50002
0.120932
1.37501
1.41327
2.06033
-0.74447
-1.26878
2.52344
0.0668925
-0.623031
1.56998
-0.423893
1.68547
0.0581612
1.47002
-0.627263
-5.94001
-0.399385
0.0121407
-2.88303
0.819467
2.60219
-0.0896312
-0.971252
-0.342251
1.53812
0.133365
0.706461
-0.712395
2.58362
-0.694009
0.792174
-0.40874
0.88341
1.49723
0.575534
-3.01835
-0.477244
2.38367
1.50554
0.548098
1.37524
-0.0690862
1.15652
1.16103
0.914619
-5.69888
-0.00873247
1.8623
0.198119
0.0496681
1.20553
-0.613784
-0.0799224
0.051417
1.6111
1.59029
-0.483502
0.279677
-0.676638
-0.495312
0.294958
-0.112654
0.216025
1.46383
-0.0467904
-1.48962
1.73023
-0.408749
-0.190243
0.0588098
-0.439604
-0.494945
-0.365882
0.0928661
-0.5993
1.39868
2.33565
0.0703297
-0.180093
2.41559
2.26385
-0.300698
-0.239838
1.52344
-6.61313
0.0750885
0.120223
0.122569
0.771776
-3.52968
0.761271
1.03815
-0.377671
-0.120836
-0.555275
-0.0244109
1.26814
0.663237
0.949526
-0.508066
1.28352
2.21754
-1.34986
-0.595063
1.65787
0.377948
0.963563
0.0718904
-0.231036
-0.523204
0.014677
1.54305
2.54958
1.64227
0.222811
-0.03544
1.50623
2.15725
-0.257257
1.57819
1.49762
2.26368
0.238929
0.0921551
0.322863
-0.093045
2.25015
0.27825
0.0137781
1.04805
-0.00751071
0.431056
0.0428494
-0.808271
1.42518
1.17126
1.06117
0.736211
-1.96961
-0.132949
-0.0935778
0.780813
-1.34145
-0.793467
0.0762088
-0.56289
-0.789834
0.822331
-0.241985
-7.20218
-2.02821
-0.113243
1.05704
-0.876724
-0.512635
1.67311
-0.418617
2.3152
-0.390678
-7.67076
1.75187
2.087
0.0754789
0.154151
0.183889
1.53799
0.774514
-1.4517
0.0510297
0.0738724
-0.0954837
1.46148
0.123522
0.90986
0.102267
1.48195
-0.680746
0.0815166
0.0328686
1.80437
-0.485062
-0.850314
-0.442864
2.29291
0.104181
-0.488844
-0.962954
1.50493
-0.558488
0.105374
0.431784
0.657746
0.189442
0.994563
-0.271266
1.22727
1.47319
1.71458
0.722463
0.0667767
-0.114955
1.14283
-0.527965
1.77903
1.01861
0.0444339
0.0566274
-0.0138293
0.0522357
0.0633522
1.68799
0.689101
-0.342268
1.49106
-0.868198
1.17481
2.63774
0.0447906
-1.29934
1.06041
0.216758
0.0663614
-0.0312904
-0.546034
1.50707
0.0852418
0.049386
0.0772424
-0.158633
1.89794
-0.674688
0.0102926
1.5041
0.205793
2.11812
1.70991
1.97916
0.438442
0.937782
0.463301
0.158594
1.07486
1.45686
-0.664131
-0.126479
-2.22502
-0.201834
-0.67775
1.49775
-0.973417
-0.58612
-0.548589
-0.654747
0.0429532
1.50083
0.0374083
0.146035
-6.07808
1.5079
2.59551
0.215313
-0.847915
0.856341
-0.438866
1.46596
0.145442
0.076786
1.783
0.0325012
2.45326
1.02303
1.48743
-0.242354
1.92516
0.0769419
1.7184
0.0727148
-0.58611
-0.499388
-0.392584
1.02152
0.180885
-0.251281
2.30713
1.50533
1.60863
2.09997
1.64292
1.79953
-0.0846294
1.53824
1.51388
1.54725
-0.0912596
-0.265408
-0.39974
-1.47992
0.331569
1.6565
-5.57392
2.38226
-1.47078
0.0858587
2.53099
2.12222
-0.119033
-0.38459
1.49839
0.796779
-0.110233
1.38387
-5.47335
-0.427905
1.48465
2.0517
0.0774628
1.62889
1.90717
0.0047718
-0.281646
1.91816
0.668098
0.0706841
-0.747261
0.222228
-0.768185
1.40221
1.1085
0.0911554
-0.380687
-0.275604
0.316869
0.0570707
0.439412
2.17556
0.052429
2.83076
1.51415
0.542522
1.67542
-0.681693
-5.2215
-0.558047
1.4937
0.0682298
-5.46015
-0.378185
0.782938
0.883357
0.0914444
1.00391
-5.80595
0.721514
0.139264
0.107433
1.18685
0.474958
1.92291
1.54676
1.56357
1.42944
-0.115221
-0.530112
-0.481405
0.251679
-0.307948
-0.133069
1.16558
-0.379027
0.0350452
0.108393
-0.415524
-0.70708
1.02735
0.71349
0.169068
-0.286489
0.690539
-0.449969
-0.423358
0.341023
0.180877
1.62608
1.12675
1.90058
-6.2086
1.36339
0.0755985
2.07137
-0.194582
0.816225
-0.0326331
-0.0644175
2.40947
2.5351
1.21753
0.733889
1.04394
1.34771
2.43693
0.97992
-0.596525
-0.701047
0.389749
-1.50357
-2.17649
1.50705
1.47373
0.185448
0.250177
1.20849
1.35967
2.66043
-1.02503
1.18596
-5.62466
-0.0249733
2.13367
-0.0292965
1.22031
-0.271484
0.674877
0.612306
2.78331
0.167869
-0.37981
0.801129
0.356862
-0.715079
-5.56082
-1.08083
1.65287
0.163761
0.748111
2.26197
2.07941
0.0190481
-2.78926
0.157318
0.303281
1.73233
1.4409
2.05941
0.908493
-0.967188
2.16035
1.32678
-1.38045
1.11155
1.52741
1.8625
-0.831848
-0.634093
0.000668677
1.28829
2.37393
0.806725
-0.294358
-0.741861
2.67398
-1.17463
-0.601775
2.47943
1.34648
0.222338
1.17286
-0.581558
0.78001
-0.145017
-1.12076
0.090394
-0.570766
0.208967
-0.105865
-7.29071
-2.55883
-1.85435
0.00726535
-5.92496
-0.624441
1.37533
1.39091
0.685038
-5.87756
0.292008
0.272258
-0.116015
2.81647
0.939439
-0.460562
1.34961
-0.154991
-0.572837
1.18398
1.17102
1.48151
2.86193
0.00651839
-0.0353381
-0.484235
0.264184
0.976065
1.43246
-0.404049
2.18507
1.03049
1.58766
-0.404102
0.0520217
0.0869672
1.52443
1.50959
1.57657
1.49648
2.61795
2.54689
-0.168132
1.34531
1.89441
-0.446895
2.05485
0.0614102
2.5165
2.03511
0.184029
1.68706
0.760268
1.10363
0.149464
1.51093
-0.523101
1.28992
0.469365
0.946767
-0.0165725
1.47455
0.0566951
0.338368
2.42849
2.42122
0.963312
-6.02764
0.43969
-0.123495
-0.00783041
1.20741
2.17001
-5.92923
1.54915
1.40777
0.71564
1.51609
-0.646234
-0.253011
0.096708
2.68362
0.324371
0.166858
1.71385
-0.0134834
0.0926289
0.788565
0.386714
1.15434
0.46902
-0.254947
0.863993
1.16221
0.935306
1.07664
2.57364
2.10088
1.83948
2.02261
2.37436
0.666047
0.0523808
-0.701207
-1.75835
2.40027
-0.364372
1.48008
1.31983
-0.671706
0.733689
1.64512
-0.367761
0.732629
0.946598
2.89697
-0.703663
0.662678
0.212205
1.68565
0.214788
-0.503511
2.35839
2.00814
1.42382
1.49658
-0.188079
0.583878
-1.86767
2.5415
0.0616913
2.76266
-0.408937
-0.102652
-11.2057
0.702814
-6.49071
0.156409
0.0574026
0.643261
0.172623
0.57111
-0.524136
0.00134963
-0.140981
-6.44323
-0.3306
-1.54846
0.18692
0.0161971
-0.606595
-0.781658
1.49882
1.52972
1.92301
1.4654
0.580816
0.615838
3.1055
1.44469
-0.691374
0.0138028
-0.0218105
1.1613
1.3075
2.18973
-0.659092
-0.63031
1.16911
0.00131549
0.441224
1.85602
-5.94046
-0.687009
-2.72781
2.57132
-0.579037
1.01396
1.88979
-0.51026
1.15655
0.0813013
-0.740555
-0.728861
0.124319
1.03258
1.75489
1.85401
-1.37622
-6.26557
0.915791
-2.26548
-0.241521
-0.12452
0.229029
-0.142326
0.141394
-0.554435
-0.711209
-0.491403
2.27286
-0.51454
2.49158
-0.71898
-0.000422327
0.520005
0.157873
2.09723
1.43344
1.75242
0.187802
-0.149628
-0.768302
2.02058
-6.29259
1.13364
0.0994993
1.8019
2.09352
0.0889652
1.49131
2.38546
1.61922
1.60729
-3.27389
-0.383425
0.599866
-0.402971
0.0603852
0.854548
1.00206
0.219021
-0.844532
0.427662
0.130572
1.26236
1.05376
-0.282565
2.50808
0.249866
-0.00708391
0.341911
1.47924
-0.224325
0.00753241
1.60276
-0.649261
0.168164
-0.121197
1.55131
1.48034
1.41766
0.135055
1.40888
1.71574
1.66498
-0.164748
0.0928467
0.384605
1.2691
-0.706668
-9.23226
-0.47317
-1.47728
-0.577049
0.0266981
0.0507412
0.0798096
-5.33061
-0.463182
-0.716451
0.124943
-0.155099
0.613707
-0.736211
1.58741
3.10513
0.543888
-0.126566
0.699496
0.238991
0.432984
0.0538653
-0.229738
-0.52308
0.250951
1.94855
0.00412964
2.34191
0.0656164
1.42419
1.18996
0.64203
-11.1335
0.772667
2.62663
-0.62025
1.49796
1.44178
2.17988
0.273534
1.99963
1.57642
-10.9604
1.68235
-0.704274
-1.14923
2.04541
1.35953
-1.47468
0.0191505
1.91861
-0.0281607
-0.341818
0.0819338
0.0733726
1.15366
0.853329
1.49385
1.3655
1.24928
-3.05373
-0.338186
-0.140802
1.46163
2.75413
-0.251591
-1.34258
-11.2832
1.46414
0.235487
0.221795
0.552599
-1.40859
1.13216
-0.535275
0.158964
2.40603
0.748731
-0.307499
-0.412331
-0.601719
-0.383731
-4.9798
-0.495799
-0.684805
1.7656
0.852879
-0.369238
2.41767
0.0104872
-0.756959
-0.122319
-1.1435
1.59375
-5.66778
0.564976
1.46798
0.159854
-0.171909
-0.0434622
-0.719787
-0.405197
1.61852
-0.72355
0.0721344
-2.20232
1.44372
1.60029
-0.581108
1.87189
1.72881
2.2524
2.31464
1.63854
0.374878
2.69245
-2.82482
1.42561
0.171507
-0.632863
1.80097
-0.48442
2.26606
0.746416
-1.11569
-6.20777
-4.37081
1.59446
-0.459033
-0.186589
0.23074
-1.29676
-0.462778
0.975894
0.388924
1.05339
2.56873
-6.16374
-0.46336
-0.693665
1.52336
1.12928
-0.322885
3.06682
0.0598494
0.122565
0.964563
-1.27092
1.44849
1.51631
1.69753
1.7081
-0.370296
0.761628
1.42138
0.401917
-0.610807
0.0391607
1.59084
1.66291
2.03745
-0.609002
0.193166
0.657119
0.96268
0.211556
-0.584761
1.24484
-0.231659
1.34108
1.54005
-2.12853
2.33486
-0.343747
2.5773
1.67719
-0.679634
0.00771302
0.0908311
0.606731
1.57544
-0.626715
2.0065
1.41943
0.685792
0.0590128
0.402556
-0.301829
0.68142
-2.50692
0.867376
-0.386682
1.46326
-7.38796
-0.0531705
-0.133101
1.82985
2.11586
0.762256
-6.45351
0.762927
0.0178688
0.23582
0.888358
-0.6001
-0.538368
2.49007
-0.645642
0.0458785
-0.497351
-1.02756
-0.0977842
1.51504
-2.40913
-0.114196
1.56146
0.923877
1.60363
-0.636224
0.667747
2.53067
-2.86607
1.4398
0.415169
-0.404508
0.622549
0.418969
-0.883353
2.58153
1.68781
0.206525
2.51887
1.92082
1.81367
-2.48337
-8.19474
0.88016
-1.32051
-0.116395
-1.18379
-1.26518
-1.17344
1.15739
0.569431
0.852493
0.964318
-0.472131
1.07225
1.45803
-1.09683
1.53284
0.9619
1.49599
0.019507
0.0658693
-0.576024
-5.22185
-0.619253
-0.14895
1.44137
-0.652372
2.26228
-0.673647
1.44619
0.852203
0.1086
0.138922
1.51929
0.707338
0.448532
1.32032
0.133831
-0.961717
2.14122
1.76167
-0.332207
-0.850606
-0.0541077
1.3222
0.112173
0.543734
-1.2877
0.162931
-0.0106172
0.155399
1.28449
1.20833
-0.0807898
0.696429
0.0736662
0.0617805
-0.593957
1.83014
-0.604469
1.46112
-0.0144047
1.29819
1.57839
0.893384
1.36578
-0.0334952
-0.510835
0.102881
-6.14357
-0.496777
-0.331424
0.167382
-0.315364
1.20544
0.0852196
1.45679
-0.369065
-1.16149
-1.84851
0.0597524
1.5479
-0.724591
1.4402
0.428739
-0.50694
-0.352769
-0.596922
1.04927
1.55883
0.0632017
0.383436
-5.71644
1.72801
-0.190321
0.39268
-0.695408
1.85563
0.723433
0.0517203
1.59377
1.52604
1.79064
0.406211
1.8295
-3.09756
0.127072
-0.0676175
1.40936
1.00245
0.459092
0.0256303
-0.560013
-0.659085
0.774892
0.185431
-0.641871
2.39322
-3.57458
1.75848
1.05982
-0.19633
0.0462168
0.163586
0.0562169
0.28666
0.354154
1.4022
0.118092
1.50163
-1.88564
0.482414
-0.502299
0.192765
-0.57576
1.836
2.53516
1.6271
0.761002
0.164852
0.98154
-0.662545
-0.377652
0.138712
-0.0107308
-0.354537
-0.693975
-0.567885
-0.345141
1.305
1.43673
-1.483
0.439008
1.67976
-0.371238
-1.28051
1.59932
0.0528297
-0.807086
0.0557093
-0.0791017
0.0019349
2.40876
0.137569
1.40574
-1.16666
-0.611763
-0.368255
1.43516
0.234408
1.20483
-1.14765
-0.475354
0.172778
0.130166
1.70903
1.29684
0.357349
-0.128362
-0.178723
2.63699
-0.572183
1.67504
1.83433
-0.0876185
0.0405044
0.673092
-10.996
-0.367505
1.30592
0.879182
1.42831
-0.516432
1.62228
0.287182
2.11411
0.122934
1.32551
1.86974
1.24831
0.367991
-0.691109
0.568322
-1.03437
1.24299
0.712352
1.78367
0.26287
2.24518
0.378453
2.39145
0.183656
1.85671
-0.0691431
1.09371
-1.01594
1.44315
0.695939
0.64727
2.27686
1.48169
0.41797
-0.332273
0.836413
1.43135
0.0561591
-4.72513
1.07373
0.158321
1.91926
-0.58684
2.28591
0.461158
3.14663
2.31321
1.04135
0.896594
-0.981593
0.228775
2.45882
0.237103
0.0909207
0.0109982
2.53775
0.751964
1.25537
2.20794
-0.616026
1.61443
-0.105238
1.75229
0.106847
1.65293
1.50711
2.04316
0.040907
-2.63661
0.45797
-0.610346
0.664561
0.0732836
0.164643
1.90794
2.15097
0.0390934
0.398306
-0.107358
1.92466
1.21347
1.35085
0.972871
-0.0289824
-5.45323
-0.498313
1.52585
-1.95191
-0.414471
0.188844
1.02301
0.698869
-0.355508
2.61342
-0.463884
2.26246
0.317308
2.37427
-0.221371
0.144729
0.104223
0.112446
1.23477
1.48013
0.246301
-0.411678
0.17673
-0.402847
2.13624
-0.365749
0.167195
-0.536514
-0.309008
0.366869
1.8001
0.644446
0.123682
0.0714396
1.47838
2.76517
-0.60796
0.16846
1.42743
-0.442618
0.813183
0.0962739
1.00671
-0.383286
-5.34591
-0.326801
-0.247799
0.00543375
0.221611
-1.03394
-0.357474
0.0431136
1.19725
1.58004
1.32669
2.67696
-0.836578
2.50302
-4.96187
2.32467
-0.617701
-0.653152
2.58409
0.654301
-0.274972
1.47932
0.0469511
1.60305
-0.667813
-2.09656
0.367265
-0.315467
-0.35671
0.0197761
-0.00767732
0.650576
1.83033
-0.585902
0.717541
-1.77984
0.310119
-0.461026
0.0651059
-0.798331
-0.464283
-1.4213
1.99018
0.0586377
2.16999
0.59431
-0.716698
0.540216
-1.15135
0.105601
1.31164
1.8463
2.71993
1.14216
1.25672
0.641157
-6.48414
2.61968
2.77972
1.62234
-0.633606
-0.531603
-1.05295
1.36014
0.935677
0.50046
1.23492
-0.374418
0.0594544
-1.08644
2.2585
-0.0173058
0.300403
-0.499443
1.40795
0.440866
3.01903
2.81487
1.3253
0.129463
0.280074
-3.69646
0.597042
2.89085
-0.0570289
0.0817904
1.06136
0.0103967
0.395906
-0.0131307
-0.138625
0.445351
0.282408
0.660893
0.0658944
0.53077
2.06023
0.313758
1.57362
-0.483267
-0.191942
2.49547
-0.803889
-0.0855041
0.267002
0.679791
0.25007
-0.597427
0.155551
0.128742
0.22357
3.06252
-11.0365
-1.36928
-0.421967
-0.988764
0.0288692
0.257921
-0.581392
-1.09239
0.053249
-1.89686
-1.0484
-0.403712
0.244804
0.191929
0.277847
2.97502
0.222016
0.47466
0.0076847
0.420039
-6.14845
-0.157393
2.02826
1.48543
0.466382
-0.224967
1.44954
1.58504
-0.402581
-0.687062
0.133068
2.02198
-0.370713
1.40792
0.2081
2.26634
0.30405
-0.470273
0.0549251
1.60882
-0.275745
1.33047
-0.638879
2.83575
-0.572199
-0.112732
-0.892538
0.687659
-0.571898
-0.623495
-0.55893
0.320886
0.554829
-0.508395
-0.595197
0.0239737
0.268038
-0.303881
-1.04544
1.19529
-1.2513
1.27162
-0.545384
1.63551
2.59683
1.36707
-5.66489
1.47907
0.288032
-0.0137007
-0.00397078
-0.228418
-0.86055
0.182605
-0.164366
0.539871
0.10633
-1.09721
-0.202484
-0.982723
0.754096
1.51667
-1.62634
-0.590216
-0.339114
0.0651173
-0.237542
0.857465
-3.51932
-0.585814
1.49694
-0.380828
0.767253
-0.582152
-1.01671
-0.733555
-0.838275
3.04553
0.401095
-0.420773
0.437174
2.45035
2.50147
-0.456072
-0.122768
1.4787
0.0577557
0.188184
2.51587
0.825741
1.27637
3.07678
-0.355051
0.324343
0.333762
2.21785
1.55371
1.51512
1.86385
1.08695
0.0719351
0.136063
0.746498
0.431025
-6.50356
2.55811
-0.688195
-0.792898
0.0687458
-0.300247
0.707629
-0.484614
-0.135855
0.412073
1.53559
1.60752
1.6833
-0.648871
2.18805
2.48533
-1.27617
0.926682
0.0584439
0.11814
-0.0536932
0.898917
-0.184305
-0.371526
-0.705294
2.77258
-0.700819
1.70236
1.51868
1.95214
1.08508
1.16563
-0.310885
0.0660946
0.795211
0.0407377
-1.26604
-1.51831
0.188898
-0.571685
1.81711
-0.4926
0.094023
0.362781
-6.22888
-0.508342
-3.13448
1.31311
-0.110733
0.157067
0.765549
-0.49178
0.494314
-1.49661
0.0537262
1.60725
-0.742182
2.56454
0.0639279
2.76147
0.00426525
0.141797
0.291394
1.31626
1.25534
-2.40436
0.00710254
-0.230876
0.295279
1.02333
3.10315
1.95936
0.424765
-0.344932
0.751509
-0.337401
1.68523
-0.120185
0.909282
-0.48002
-0.527813
-5.73936
0.421399
0.0664243
-6.20234
1.00235
0.940667
2.45204
2.66573
-4.16061
-0.786758
0.242057
-1.10796
2.55929
-0.0238779
-0.592421
0.713206
1.11436
-0.361544
-0.135484
0.304498
0.0518606
1.33225
-0.353086
0.34001
0.219326
-0.71552
-2.03647
-0.274858
-2.19556
-1.77545
1.62987
-0.441432
-0.470124
-0.111532
-1.94689
2.82
1.05227
1.41804
-0.119939
0.742412
0.0918395
0.562991
0.522167
-0.579035
-7.8125
2.55084
1.57675
0.100028
-8.57089
2.93874
-0.531488
-7.61959
-0.481855
0.710358
-0.570225
-0.388801
2.20562
0.0156249
1.35683
0.65554
-0.571148
-0.850652
0.171098
0.7393
-2.44219
0.132011
0.507709
1.45479
-0.59751
-6.92344
-0.0251014
-0.201006
-1.34054
-1.11468
2.75877
1.01072
-0.652811
0.664514
0.466321
2.39033
0.81156
-9.41836
0.856613
1.87621
1.59833
-0.32428
1.32886
-0.369394
2.52894
0.0700271
1.52617
-0.736784
-0.292651
0.0671045
-0.489545
0.827783
0.574889
-10.5746
-0.5786
1.74169
-0.442404
0.0743577
2.06539
1.22009
2.0112
1.38524
-0.498907
0.0286813
0.169095
1.45867
-0.0103616
1.82996
1.1178
2.50951
-0.577192
1.95688
0.656063
2.55679
-0.576078
-0.638055
2.60418
-0.563766
1.08618
-0.725712
2.22601
2.51037
1.60468
-2.40669
1.48882
1.90939
-0.289672
0.671313
-0.424261
2.04189
-0.548685
-0.450489
-1.03193
-1.32505
1.87586
0.656554
-1.62392
0.757307
2.50417
-0.742907
-0.156967
-1.69142
-0.706822
1.2145
-0.00940763
1.42044
1.38042
-1.82457
2.8408
0.0276338
2.12089
2.09469
0.168791
0.038802
1.29998
-1.39418
-0.0662247
1.28226
1.09801
-0.375071
1.38954
-0.533937
2.29654
1.61222
0.549267
-0.177015
1.63493
-0.353836
0.924907
1.95646
0.420019
0.0568482
1.8956
1.57648
-0.41242
-6.15155
1.09669
1.65022
2.52644
-10.5094
2.67252
2.71669
2.72338
-0.115641
1.84153
-0.727446
1.49651
1.98636
1.93772
1.63469
2.17162
3.00971
1.30484
-11.0915
-0.00760739
-6.17563
2.98232
0.786207
-0.388026
-0.590757
1.40071
2.20326
1.44789
0.469874
0.00951333
2.18155
-1.32889
1.57311
-0.585639
0.741258
0.0644055
0.339574
0.960302
-0.693385
-0.676032
-0.252376
-0.189883
0.0788634
1.80509
-0.211483
0.313378
1.37861
-1.00874
0.86007
0.0680636
-0.990514
-0.735366
-10.7178
2.0762
2.24117
-0.533659
0.70827
1.90559
1.76498
0.0409502
-0.48573
1.61453
-7.92016
2.04231
-0.959925
1.98817
0.95371
0.311795
1.85631
0.980779
1.93947
0.509983
0.756427
-0.270369
-5.59023
-1.09771
0.0810467
1.90298
-0.549461
-0.373795
-0.543171
2.15626
1.91927
0.56442
1.08652
2.1443
-1.6342
1.40503
0.155291
-0.324443
1.39704
-0.456087
-0.691551
-1.01786
-4.51883
-0.132375
-0.658627
0.149612
-1.18886
-7.48619
1.20831
2.56413
2.81265
2.42561
-0.55582
1.59017
-0.745283
1.3681
2.14352
0.290129
1.86902
-0.539868
0.511432
-0.301897
0.0542984
2.03508
-1.04565
1.67076
-0.708137
-0.235059
-3.97419
1.71803
1.65774
1.49398
-0.745538
1.39574
-0.615802
-1.82711
-2.08776
0.449959
2.56908
-2.19434
-0.11803
-0.578817
1.47207
1.44491
0.0340342
0.990883
-0.77457
2.1757
2.01236
-0.373725
-0.164599
2.11797
-0.423913
-0.812582
0.131193
1.93718
2.17994
-0.728736
1.01573
-0.138511
2.51866
-1.47889
-0.312069
0.06367
2.35186
0.131683
-0.250582
-0.391451
2.01974
1.22753
2.00307
0.0141629
-1.89207
1.6399
2.94155
-5.36839
1.30899
0.0871945
-1.94891
0.104501
0.537445
-0.608293
0.986617
-0.571333
1.02732
-0.359462
-0.374492
1.83481
2.19815
1.3881
-1.29705
-0.308104
1.70705
-0.732166
0.493631
-0.353404
0.728984
-1.24268
1.60997
1.71051
0.0564238
1.60351
2.47723
-0.0995883
1.17791
1.68819
-2.38416
0.942042
-0.322579
0.713091
0.461354
1.19186
0.0110102
0.496571
-0.0697074
-3.55233
2.06692
0.523001
-0.303571
-0.410224
-0.0417789
1.54535
-0.925231
2.70989
-0.713938
-5.54702
-0.297961
1.88764
1.66543
1.97548
-6.49885
2.38106
-0.693391
1.13396
0.281591
-1.16723
1.3892
0.676225
-0.113785
0.99458
-5.81735
1.2097
-2.89606
-0.440367
0.00213902
-0.912616
-1.02148
1.30542
2.44568
0.172504
-0.732793
1.89594
-1.21821
2.21882
0.583761
0.168102
0.859481
1.50336
0.760611
-0.363742
-0.0303816
0.138854
0.431057
0.586385
-1.12139
-0.561671
0.113696
0.808747
-0.181322
3.01359
1.58517
1.51511
2.24045
0.312385
1.66175
-0.531278
-4.34844
-0.461807
1.51081
2.92456
1.37601
-0.750827
2.06805
1.37444
1.39723
0.153585
0.062916
0.78981
2.72116
0.040733
-0.379816
2.1162
2.11223
1.54938
1.46993
1.79638
1.02865
-0.643563
-0.536438
1.6194
-5.95498
-5.983
1.49027
-0.484006
-0.215127
0.396542
1.5941
1.65614
1.68171
-0.0727746
1.96989
2.01884
0.0774459
1.76769
1.54294
1.33332
1.14397
0.952431
0.743143
0.0289355
1.88484
1.75505
-0.209851
1.33148
-0.0847877
0.0955519
2.42444
1.8245
0.018408
-0.690847
0.0742418
1.88042
1.03102
0.341578
0.0702743
0.308114
-0.254457
0.378597
-0.626885
-0.0525198
1.04583
-0.0658041
-0.751969
-0.759967
2.28534
-0.597887
-4.8382
-0.613633
2.4577
-0.22526
0.322425
0.361123
-1.34859
1.1823
1.41304
0.898704
2.15557
1.1941
0.173388
-8.373
-0.676166
0.0399123
1.72434
-0.748378
-0.733993
-1.59944
-0.164594
-5.36086
-0.599958
-1.51487
-0.0653137
0.631044
1.47556
1.91997
-0.132806
0.130431
2.16381
1.64363
-0.72628
-0.18846
-6.73922
0.887853
0.291579
0.797731
1.30334
-0.479311
-0.217
-0.231862
0.449222
-0.633509
-9.73796
0.239819
-0.479692
-6.17011
-1.41841
-0.645512
0.240136
-5.01657
0.749335
-0.734983
1.4761
1.33796
0.271491
1.91091
-0.646125
2.45818
-0.310905
0.192696
-1.01147
1.46892
0.87983
-6.25036
-4.80965
1.51918
1.7922
2.55224
-0.70897
-7.73481
-0.596706
-0.0365123
0.00460775
-0.716435
0.461187
-0.714962
0.871194
-0.738394
1.09174
0.050137
0.0267771
2.22735
1.30392
-1.11785
0.0655992
-1.2137
-11.3345
1.92997
2.81024
-6.65019
1.80462
1.40432
0.00239017
-0.517203
1.85768
1.78706
-1.56898
-0.211386
-0.47955
-0.628231
-0.980564
-0.754801
-0.960711
0.995195
0.104417
1.63881
-0.769267
-1.44467
1.39994
-0.926284
-1.10956
0.174409
1.14455
-1.41026
-0.448292
-1.63697
-0.717872
-0.888765
2.59087
-4.97073
-0.107874
-0.742158
1.61448
-3.42537
-0.139442
-1.24267
-0.867846
-0.316277
1.66601
0.0270431
-0.689292
1.28087
0.0193737
-0.26809
-1.10482
-0.806705
1.02468
1.1992
1.50707
-3.63783
2.20833
-0.198043
-0.000198268
0.159739
-2.33331
-0.559481
-0.751491
-0.570575
0.313382
0.707089
0.144487
-0.209411
-0.612585
1.37443
-0.780018
1.55039
-0.918943
0.991737
-0.123954
-0.381553
-0.133621
3.0398
-0.58816
-1.7662
-2.69252
-0.495082
1.50466
0.1275
-0.0628844
0.1142
-1.68118
-0.701308
-6.7544
-0.679172
1.60423
-1.17395
0.322548
-1.79511
0.111739
1.30684
0.166896
0.607646
-0.251963
1.93616
-3.7079
-0.379927
2.07695
0.562881
-3.25048
-0.201587
-0.969188
-0.554542
-0.220854
1.89138
-0.471881
0.672136
-7.03737
-0.945106
-1.02037
-1.14751
-6.00354
0.81902
-0.0876883
1.50131
0.597626
-0.779176
0.101895
-0.588894
1.82962
2.19015
-1.56217
0.133223
1.58842
1.46638
1.13023
-0.477668
-0.755576
-0.810382
1.5063
0.496766
-0.527057
-1.08356
0.808793
1.762
-0.147792
-1.35891
0.159882
2.04982
-1.26349
-1.42663
0.0865246
1.30125
0.134844
-0.167067
2.22216
1.83618
0.138459
-0.532347
1.86728
0.775746
0.00200067
1.34334
-0.192818
-0.618814
-0.908527
-0.527497
1.80475
1.56538
-0.0178529
-0.363809
0.121517
-0.374604
1.60745
-0.540471
1.07477
1.9503
2.09134
-0.251764
1.4976
1.28678
1.63059
1.73143
-0.0810128
1.74158
0.0140299
1.49808
0.840638
1.61367
-0.686671
1.85689
1.77025
1.3658
0.99524
-0.344239
1.02414
0.12902
-0.43336
1.99885
2.01322
-0.477181
1.8682
-0.523256
-5.29203
1.59543
1.60266
-1.07729
0.0684304
-6.81861
-0.515781
-1.31769
-0.495312
-1.0287
-0.29102
1.34467
2.73484
1.85829
-0.154172
-0.491834
1.56242
0.848206
-0.475797
-0.604147
-0.298686
-1.48974
-6.36931
-5.53425
1.43255
0.175163
0.821624
0.0598587
0.0551781
-0.157004
0.0623757
0.343765
0.719532
1.03679
-0.29863
0.606057
-1.5815
-0.734063
1.02414
0.873257
0.0188019
0.0011407
1.00414
0.0454938
0.620781
-0.330437
1.50949
1.2363
2.35269
1.50686
-0.467281
-0.261493
-0.367576
-0.273995
0.0577034
0.0893757
-0.0109122
-0.470712
2.79577
0.240535
-0.500767
2.1843
-0.592978
-0.854417
-0.400074
-0.684363
-6.77168
0.348557
-1.00027
1.42676
-0.0559214
-0.431937
0.0240612
-0.291944
-0.585103
-0.393549
0.216965
1.18415
-0.576025
-0.519135
-1.08973
0.574766
-0.552569
1.60554
2.24132
-0.267868
1.63013
0.819369
1.10913
2.48422
-0.614323
0.935083
0.77899
0.769102
2.11731
-0.392109
-0.029345
-0.364301
1.57639
2.23761
-0.426847
0.129879
-0.526782
-0.468963
0.811663
-0.369958
-1.25178
-0.303352
0.627117
-8.3376
0.440556
0.446833
1.31407
0.370987
-10.7376
0.203387
0.0742584
-0.037987
2.39266
2.69528
1.98563
2.89833
1.32542
1.19381
1.65965
1.42829
1.36946
-0.426204
1.51657
-0.219737
-6.84032
2.19094
-0.0830025
-0.598067
2.58824
0.143488
-0.673748
0.839537
0.759599
1.80851
-2.27298
1.38757
2.39794
-0.605286
-5.47214
-1.20151
1.04422
-0.739718
1.89808
0.0289794
1.81489