/*--------------------------------*- C++ -*----------------------------------*\
| =========                 |                                                 |
| \\      /  F ield         | OpenFOAM: The Open Source CFD Toolbox           |
|  \\    /   O peration     | Version:  2306                                  |
|   \\  /    A nd           | Website:  www.openfoam.com                      |
|    \\/     M anipulation  |                                                 |
\*---------------------------------------------------------------------------*/
FoamFile
{
    version     2.0;
    format      ascii;
    arch        "LSB;label=32;scalar=64";
    class       surfaceScalarField;
    location    "1.75";
    object      phi;
}
// * * * * * * * * * * * * * * * * * * * * * * * * * * * * * * * * * * * * * //

dimensions      [0 3 -1 0 0 0 0];

oriented        oriented;

internalField   nonuniform List<scalar> 
20045
(
0.262936
-0.298797
0.0358613
-0.554525
0.218646
0.335879
0.141472
0.815893
-0.957365
0.104682
-0.134773
0.0300903
-0.455377
0.435716
0.019661
-0.237097
1.02634
-0.789239
-0.552796
0.222662
0.330133
0.0356929
0.232775
-0.268468
0.246311
0.226022
-0.472333
-0.369778
-0.100598
0.470377
-0.0625939
0.297224
-0.23463
1.02346
-0.538253
-0.485208
0.204685
-0.201118
-0.00356669
-0.63657
0.485309
0.151262
-0.153367
0.555367
-0.402
-0.539826
0.170048
-0.0767113
0.083827
-0.0071157
0.153871
0.0291339
-0.183005
-0.81065
1.1776
-0.366952
-0.378872
0.00122453
0.377647
0.224465
-0.217978
-0.00648665
0.0737261
0.130959
-0.0943258
-0.460199
0.29243
0.2895
-0.58193
0.444796
0.0583912
-0.503187
-0.31816
0.61059
0.116765
-0.121269
0.00450408
-0.494599
0.974502
-0.479902
0.879267
0.117561
-0.996828
-0.954953
0.59091
0.364042
-0.0822321
-0.178388
0.26062
0.742273
-0.582491
-0.159781
-0.342701
0.611396
-0.268695
1.09037
-0.637344
-0.453031
-0.299398
0.335091
1.13384
-0.559427
-0.57441
0.720563
0.146707
-0.86727
-0.0333676
0.20604
-0.172672
-1.077
0.429474
0.647526
0.319696
0.261003
-0.580698
0.0258319
0.223213
-0.249045
0.0736015
-0.106653
0.0330518
1.07124
-1.08041
0.00916967
0.733621
-0.240713
-0.492909
0.313786
0.419835
0.516166
0.507296
0.42187
-0.501374
0.0795034
0.614796
0.294512
-0.909308
0.948632
-0.228069
0.0549957
0.823041
-0.878037
0.649967
-1.09606
0.446097
0.9651
-0.710611
-0.254489
-0.410006
-0.497203
0.907209
-0.046366
-0.166747
0.213113
0.10654
0.0492966
-0.155836
-0.369481
-0.0858961
0.0754191
0.709527
-0.784946
0.871088
0.0441229
-0.915211
0.341163
-0.683865
1.07146
-0.749393
-0.322063
-0.0318958
0.268439
-0.236543
0.406712
0.664744
0.464785
-0.747793
0.283008
0.201521
0.0229442
0.244292
0.180138
-0.42443
0.816952
0.155674
-0.972626
-0.0346559
0.133585
-0.0989292
-0.340753
0.0531651
0.287588
0.448422
-0.202111
0.974691
-0.990715
0.0160243
-0.0857168
0.0510609
-0.139771
0.246311
-0.139979
-0.520137
0.660116
0.161625
-0.027643
-0.133982
0.894438
-0.120918
-0.77352
0.693349
-0.61793
-0.0753815
0.96982
0.253575
-0.406942
-0.237144
0.427795
-0.190651
0.388523
-0.687393
0.29887
0.507495
0.605441
-1.11294
0.453452
-0.381728
-0.0717241
0.612472
-0.147687
-1.03247
0.173289
0.859176
-0.00272164
0.265658
-0.233789
0.306912
-0.0731231
0.568666
-0.806587
0.23792
-0.80026
0.0368009
0.763459
0.509853
0.0996597
-0.609513
-0.452768
0.376184
0.0765843
-0.821995
0.0303283
0.791667
0.389551
-0.0704289
-0.319122
0.21277
-0.318493
0.105723
-0.108525
-0.398545
0.50707
0.318025
-0.336255
0.0182301
0.734479
0.206169
-0.940648
0.10107
0.0156948
0.0114009
-0.162329
0.150928
0.632568
-0.312873
-0.0967441
0.0492527
0.0474914
0.768341
0.365495
-0.277099
-0.359472
-0.19513
0.206531
-0.156063
1.02715
0.0359241
-0.269713
0.00620618
-0.10295
0.223644
0.611866
-0.83551
0.657289
-0.983168
0.325879
0.184726
-0.235743
0.205024
0.0307198
-0.113979
0.145626
-0.0316471
0.676397
-0.533295
-0.143102
-0.267578
0.221212
0.671437
-1.0552
0.383765
-0.114921
0.182404
-0.0674825
0.0254455
-0.140864
0.115418
0.567443
-0.122648
0.822647
0.267728
-0.601804
0.461826
0.689849
-1.02687
0.337019
-0.159154
0.313025
0.223634
-0.25553
-0.415632
0.340019
0.0756127
-0.419711
0.0514711
-0.314386
0.262915
0.690208
0.274893
0.570401
-0.741468
0.171068
0.803174
0.081373
-0.884547
-1.02971
0.816507
0.2132
-0.285838
-0.225535
0.511373
1.02006
-0.32985
-0.458223
-0.0431504
0.603816
-0.445882
-0.157934
-0.0147637
0.0074341
0.00732958
0.567602
0.408243
-0.975845
0.618205
-0.567573
-0.0506325
-0.167791
0.0722984
0.0954925
-0.168619
-0.0671245
1.14701
-0.457159
-0.347187
0.37036
-0.0231729
0.547947
-0.898933
0.350986
0.29391
-0.703916
0.45938
0.32173
-0.781109
0.732616
-0.344092
0.973408
-0.133359
-0.84005
0.103211
-0.500778
0.397567
0.94062
-0.668313
-0.272307
-0.149606
0.216528
-0.0669219
0.0263836
0.886597
-0.91298
1.05606
-0.176798
-0.821592
0.0186664
0.802925
-0.516975
0.439327
0.077648
1.00052
-0.493026
0.139512
0.31394
-0.646545
0.760817
-0.114273
-0.66409
0.805562
0.0118882
-0.177537
0.165649
0.154418
-0.173955
0.0195372
-0.0174559
-0.202666
0.220122
0.85684
-0.0167812
-0.840059
1.19317
-0.578734
-0.614439
-0.239043
0.221587
0.69997
-0.910755
0.210786
0.0865984
-0.012997
-0.866674
-0.511507
0.640942
-0.129434
-0.639867
0.5191
0.120767
-0.00903902
-0.0443686
0.0534076
0.333734
0.606886
-0.0126894
-0.00207433
0.407365
0.196451
-0.688273
0.0417284
-0.724392
0.93235
-0.207958
-0.694357
0.769066
-0.0747094
-0.611186
-0.41837
1.02956
0.0570662
-0.287854
0.230788
0.396296
-0.485516
0.0892196
0.648774
0.130123
-0.778896
0.00540654
-0.751294
0.745888
-0.437032
0.896412
0.207134
-0.569988
0.362855
-0.380206
1.05164
-0.826785
0.581458
0.245327
-0.079968
0.0896135
-0.0096455
0.379452
-1.0027
0.62325
-0.815137
0.320538
-0.616344
-0.396622
0.913255
-0.59901
-0.314246
-0.292881
0.318713
0.141458
-0.149605
0.00814709
-0.766529
-0.215166
0.981695
-0.749611
1.06084
-0.31123
0.990501
-0.686458
-0.304044
0.0329001
-0.22603
0.193129
-0.225999
-0.537608
0.763606
-0.242429
0.179835
-0.42737
0.141532
-0.611321
-0.216556
0.827876
0.100996
0.0276306
-0.128626
0.0444274
-0.555935
0.155621
-0.237853
0.851142
-0.0479678
-0.157252
0.123884
-0.151904
0.185227
-0.0333223
-0.161194
1.01803
-0.808353
0.582354
0.0968356
0.0961818
-0.193017
-0.71557
0.154464
0.561106
0.349833
0.640669
1.05269
-0.673235
0.638617
-1.03054
0.391925
0.295841
-0.633878
0.338037
0.0506246
-0.429496
-0.48341
0.707054
0.645361
-0.882459
0.133175
-0.63705
0.503874
-1.03486
0.536495
0.498369
-0.0694555
-0.383313
0.18636
0.161899
-0.34826
0.57994
-0.0905787
-0.489361
-0.0274586
-0.605173
0.631556
-0.270972
-0.0762154
0.581853
0.833725
-0.79537
-0.038355
-0.0120201
-0.14247
0.15449
0.662384
0.0508438
-0.713227
0.167747
0.135487
-0.303234
0.0105742
0.573298
-0.583873
-0.280698
0.849364
0.590729
-0.383595
-0.060581
0.183408
-0.122827
0.74411
-0.196163
0.102458
-0.00851532
-0.0939425
0.18491
0.0542746
-0.239184
-0.117024
0.121484
-0.00446004
0.925521
-0.616445
-0.309076
0.238466
-0.988078
-0.127912
0.0108881
-0.841102
0.236178
0.604924
0.85837
-0.246974
0.246681
-0.971073
1.22262
-0.58206
-0.64056
-0.0133292
0.114325
0.958159
-0.410262
-0.547897
-0.609535
0.120188
0.489347
-0.964593
0.964883
-0.000289789
0.307341
-0.680719
0.373378
0.0984164
0.0871928
-0.185609
-0.492422
0.620568
-0.128146
0.0326896
-0.20983
0.17714
-0.16754
0.0526185
-0.132721
0.0187427
-0.682121
-0.301047
0.537364
-0.782714
0.24535
0.183627
-0.30418
0.120553
0.497555
0.244717
0.533984
-0.400809
0.0366918
0.117726
0.512587
0.345783
-0.522364
0.0438719
0.478493
0.317068
0.641091
0.417934
0.137433
0.284019
-0.100392
-0.303716
-0.0247056
0.328422
0.0155853
-0.0955533
-0.609747
0.620321
-0.221789
0.294139
-0.0723497
-0.905614
0.866998
0.0386164
-0.0586952
0.599415
-0.54072
-0.175278
-0.147141
0.322419
0.765965
-0.827427
0.0614625
-0.585628
-0.449236
1.11236
-0.790912
-0.321443
-0.105033
0.0930126
0.753756
-0.446415
-0.28503
0.822394
0.0329896
-0.274131
0.241142
0.900918
-0.119349
-0.781569
0.963197
-0.195214
-0.767983
-0.293968
0.326958
0.851647
-0.499961
-0.351687
-0.169231
0.790368
-0.621136
0.348731
-0.54297
0.194239
-0.253679
0.040363
0.213316
-0.154958
0.0521281
0.102829
1.01683
-0.781778
-0.235051
-0.550926
-0.478781
0.681832
0.151893
-0.818966
-0.0866481
-0.0534076
0.238317
0.243666
-0.850689
0.607023
0.00416437
0.137294
-0.53795
1.10555
0.310106
0.615414
0.997648
-0.652614
-0.345034
-0.826754
0.610198
0.700156
-1.04134
0.341181
-0.618387
-0.0504475
0.668835
-0.257493
-0.18501
0.442503
0.829798
-0.129828
-0.0263282
0.123164
0.294884
-0.0922965
-0.490195
-0.708053
1.01453
-0.306475
-0.174872
0.0229676
-0.0692865
0.00870545
0.114071
-1.07866
0.611502
-0.8922
0.182103
-0.270833
0.391373
-0.12054
-0.00364022
0.108323
-0.516742
0.32912
0.187622
0.426309
0.250088
-0.0849082
0.329494
-0.244586
0.483319
0.134886
-0.615122
0.858788
0.578566
-0.0687127
-0.223528
-0.492041
0.987089
-0.653712
-0.333377
0.963659
-0.974868
0.360656
0.614211
0.795462
-0.866162
0.0706996
-0.460702
0.352177
-0.138239
-0.0295519
-0.231267
-0.590728
0.306573
-0.567943
0.26137
0.428754
0.422894
0.64772
-0.942471
0.294751
0.248131
-0.563856
0.315725
-0.97699
0.17673
0.012831
0.37672
-0.713549
0.869062
-0.155513
-0.233902
0.322262
-0.0883606
-0.451444
-0.101352
-0.139159
-0.235781
0.37494
0.100016
0.000544996
-0.100561
-0.345889
-0.171086
0.37652
0.449987
-0.826507
0.911006
-0.593939
0.377342
-0.451385
-0.00931691
0.491697
-0.243567
-0.690891
-0.135894
-0.153365
0.210619
-0.0572542
0.963049
-0.348253
-0.478495
0.766501
-0.288006
-0.132637
0.158294
-0.0256572
0.703948
-0.124008
-0.305309
-0.54538
-0.517366
0.926636
-0.40927
0.597818
-0.95546
0.357642
0.423811
0.688544
-0.105802
0.0922218
0.0135799
0.106642
-0.72503
0.687881
-1.0533
0.365416
-0.0644357
0.22606
-0.0833006
0.653701
-0.197106
0.808607
-0.330674
0.626515
0.193118
-1.00377
-0.848628
0.605671
0.242957
0.658481
-0.126189
-0.532292
0.934858
-0.168894
-0.418458
-0.530909
-0.482107
0.381203
0.581165
-0.502496
-0.0786692
0.323812
-0.322588
-0.736901
0.653601
0.859931
0.211308
-0.8008
0.322306
0.832775
-0.150943
0.161376
-0.220069
0.0586928
-0.0499794
-0.559148
0.609127
-0.906391
0.172089
0.734302
0.749674
-0.749674
-0.328756
0.91941
-0.590654
0.291999
-0.376907
0.624984
-0.445663
-0.179321
-0.938076
0.9665
-0.0284237
0.359602
-0.0466828
-0.312919
0.279342
-0.0994078
-0.179934
0.13783
-0.313108
0.122942
0.557795
-0.842825
-0.806222
0.96158
-0.155358
-0.290591
0.667111
-0.24364
-0.00962508
0.253266
-0.15131
0.227817
-0.0765068
-0.377733
0.428358
0.927804
-0.71661
-0.211194
-0.096846
-0.517293
0.614139
-0.255913
0.270986
-0.0150728
0.154201
-0.290789
0.136587
-1.06519
0.454206
0.610979
-0.0996229
-0.0351498
0.219358
-0.0579818
-0.0703834
0.215745
-0.145361
0.411681
0.605148
-0.193368
-0.050273
-0.102071
-0.249956
0.352027
-0.490922
0.790527
-0.299605
-0.00882998
0.0931067
-0.0842767
0.469015
-0.246353
0.799994
-0.064637
-0.735357
0.035737
-0.434282
0.00255803
0.646216
0.441394
0.298526
-0.73992
0.490199
-0.406428
-0.0837719
-1.00913
0.187543
-0.417795
0.213701
0.204094
0.328274
0.499932
-0.828207
-0.634301
0.583853
0.0487769
-0.908922
0.860145
-0.15311
0.18601
-0.0779098
0.0853521
-0.00744235
0.0248179
-0.328534
-0.590445
0.216903
0.373542
-0.674697
-0.166406
0.617272
0.199522
0.0996228
-0.299145
-0.146319
0.0136821
0.171734
-0.712964
0.54123
0.149723
0.527507
-0.67723
0.260642
-0.713568
0.850174
-0.136606
-0.72085
0.551619
-0.0611826
-0.0600862
-0.417988
-0.221879
-0.277875
0.0639644
0.213911
-0.864478
0.373556
0.657981
-0.754827
0.214094
0.618681
-0.321225
0.323055
-0.00182985
0.220548
-0.709365
0.488817
0.176981
-0.286323
0.109342
0.535965
-0.841274
-0.649535
-0.0448217
-0.336797
-0.0039562
-0.125472
-0.202671
0.328143
0.342175
0.0674228
-0.0626467
-0.00477604
0.76642
-0.438146
-0.759873
0.973334
-0.213461
0.263373
0.202505
-0.465878
-0.370552
0.217443
-0.242626
-0.0352492
0.264374
0.36061
-0.281636
-0.745231
-0.222395
0.0690299
0.621721
0.427612
0.150954
-0.780925
0.83592
0.0125571
-0.391311
0.378754
-0.0878066
-0.829724
0.91753
0.0890311
-0.0928847
0.00385357
0.318572
-0.261506
-0.194848
0.543579
0.565933
-0.462722
-0.384658
-0.132084
-0.00817184
-0.416412
0.424584
0.410201
-1.02139
-0.0552106
-0.497448
0.552658
0.031128
-0.1855
0.154372
-0.652873
0.0407043
0.612169
0.956525
-0.662012
-0.00618994
0.098819
-0.0926291
-0.229951
-0.025962
0.193494
0.360034
-0.553529
0.11184
-0.140773
0.0289327
0.668566
0.380198
-1.04876
-0.406919
1.1414
0.0946519
0.0053641
-0.263477
-0.569087
0.832564
0.420041
0.726967
0.821344
-0.671621
-0.373294
0.234135
-0.0773188
-0.0776389
-0.300402
1.00056
0.124127
-0.75861
0.634483
0.951832
-0.136729
-0.815103
-0.361459
0.66812
-0.306661
0.395874
-0.227786
-0.50211
0.729896
-0.0949178
0.17926
-0.0843418
-0.274929
-0.496911
0.77184
0.066598
-0.217908
0.0533971
-0.0624361
0.506797
-0.781726
-0.683616
-0.20816
0.891776
-0.0430943
-0.496895
0.539989
-0.00383525
1.07633
-1.11757
0.0412394
0.2223
-0.127227
-0.0950729
0.0050156
-0.326241
0.252801
0.254268
-0.339463
0.0819696
-0.76786
0.97598
-0.20812
0.025923
-0.247712
0.499272
0.233343
-0.831783
-0.248625
0.107781
-0.167172
0.0593914
0.538576
-0.110964
-0.214418
0.236383
-0.0219642
-0.187007
0.219696
-1.15253
0.536189
0.883054
0.143283
-0.109363
0.263564
-0.220586
0.483959
0.833926
-0.276131
-0.222273
0.00785436
-0.107858
-0.629043
0.279483
0.232308
-0.22042
-0.929319
0.0229281
-0.18308
0.222779
-0.0457973
-1.01137
0.621478
0.389892
0.806988
0.167703
0.211637
-0.0751914
-0.136446
0.295729
-0.275811
-0.0199176
-0.887938
0.328512
-1.02778
0.51041
-0.285681
0.232731
0.0529501
0.0126154
-0.0855238
0.0729085
1.01427
0.00917945
-1.02345
0.16314
0.00915582
-0.172296
-0.14001
-0.275622
0.244367
-0.031597
-0.0696589
0.0704608
-0.000801882
0.411373
-0.0603528
-0.351021
0.0104138
-0.0800727
0.849702
-0.643533
-0.0284526
-0.156273
0.184726
-0.967398
0.199539
0.0117038
0.0432686
-0.238398
-0.247446
0.446968
0.055934
-0.0192423
0.257246
0.165339
-0.422585
0.389026
-0.144734
0.373474
-0.360917
0.213235
-0.187789
0.0950683
-0.32897
0.760898
-0.211537
-0.549362
0.552636
-0.0601312
-0.492505
-0.418036
-0.0827422
0.178682
0.0323001
-0.210982
0.331376
-0.440115
0.108739
1.09968
-0.0307142
-1.06896
0.184786
0.0420525
-0.226839
-0.492319
0.671647
-0.179329
0.448598
0.533399
-0.981996
0.0383096
0.230129
-0.276417
0.448502
-0.172085
0.231423
0.0930847
-0.324508
-0.751789
0.387869
0.36392
0.067158
0.00330283
-0.82825
0.144635
0.324739
-0.191143
-0.133596
0.439174
-0.60524
0.166066
-0.101577
-0.19722
0.149446
0.926888
0.836931
-0.160855
-0.676076
-0.823396
0.109828
0.327945
-0.551473
0.647899
-1.05776
0.409861
-0.112627
0.298987
-0.0047318
-0.401656
0.299585
-0.171077
0.222548
-0.101452
-0.773805
0.875256
0.3965
0.357256
-0.711832
0.759097
-0.0472653
0.140797
-0.266269
-0.617526
-0.232723
-0.125247
0.140542
-0.0152955
0.127691
-0.31171
0.184019
0.0861897
0.0247931
-0.110983
-0.123245
0.562419
-0.576185
-0.245341
0.821526
-0.759451
-0.254066
1.01352
0.463496
-0.381485
-0.0820106
-0.193081
0.0211936
0.171888
0.151637
0.0587473
-0.210385
-0.951964
0.0387087
0.913256
0.0217186
0.20453
-0.226248
0.783791
-0.879704
0.0959131
-0.473199
0.312398
0.199257
-0.511655
0.0140815
-0.139328
-0.302866
-0.282777
0.585644
0.625201
-1.00541
-0.949666
0.820217
0.129449
0.129974
-0.0181341
0.729125
-0.229852
-0.0836717
-0.205047
0.288719
-0.00969297
0.141236
-0.131544
-0.237262
0.776895
-0.539632
0.86805
-0.670178
-0.197872
0.991115
-0.958001
-0.0331136
0.768356
-0.385777
-0.38258
0.0395269
-0.238923
0.199396
-0.305589
-0.00879694
-0.958376
0.831176
0.1272
0.0533687
-1.01175
-0.187698
0.686896
-0.499198
-0.517668
-0.26411
0.211829
-0.17392
-0.0379091
-0.74732
-0.220078
-0.198656
0.137968
0.060688
0.273368
-0.105621
-0.911856
0.857723
0.0541332
-0.219372
0.125427
-0.15307
0.176204
-0.0130636
-0.588585
0.0961633
0.159251
-0.177593
0.0183417
-0.336404
0.363608
-0.0272045
0.379325
-0.0197229
-0.257283
0.500981
0.202968
0.379855
0.0270959
0.0565655
-0.0836614
-0.161439
0.557735
-0.632796
0.402408
0.230389
0.0696749
-0.00251692
0.755953
-0.359454
0.574786
-0.354239
-0.178489
-0.213347
0.391837
0.244356
-0.734539
0.490183
0.56911
-0.612204
0.984972
-0.425196
-0.559776
-0.00419546
-0.527231
-0.105566
-0.712361
0.991798
-0.279437
-0.041387
-0.24033
0.878947
-1.00574
0.258416
-0.233241
-0.0204383
-0.156396
0.113987
0.124774
-0.00329012
-0.486437
-0.523307
1.11812
-0.424769
0.18294
-0.27616
0.0932201
0.0532254
0.226116
-0.656144
-0.358669
1.01481
0.640226
0.189571
-0.00645428
-0.152489
0.158944
0.822056
0.119354
0.00860638
-0.12796
0.575698
0.1852
-0.359406
-0.979132
0.17291
-0.22336
0.0106473
0.212713
0.561152
0.661469
0.205039
0.121365
-0.326404
0.943406
0.0477093
0.591298
-0.85088
0.259582
-0.825448
-0.00302969
0.828477
-0.786135
1.01644
-0.230308
0.149408
-0.00734566
-0.142062
-0.368495
0.993696
0.0633235
0.264031
-0.327355
0.0433662
-0.755198
0.398916
-0.0693786
-0.329537
-0.877092
1.14024
-0.263143
-0.247055
0.559439
-0.312384
1.16051
-0.510066
-0.650443
0.0220909
-0.605419
0.583328
0.0787129
0.0066392
-0.411402
0.86
0.556194
-0.88495
0.921487
-0.323669
-0.192119
0.163667
-0.86128
0.0358322
0.997106
-0.349386
-0.00357596
-1.02889
0.246808
-0.0235951
0.262435
0.578992
-0.841426
0.559814
-0.147316
-0.412497
0.61363
-0.957001
0.343371
-0.141687
0.0102629
0.131424
-0.208192
-0.476833
0.685024
0.364806
-0.269738
-0.260842
0.461667
-0.200825
0.174628
0.237356
-0.411984
0.0782498
0.133579
-0.82893
0.975596
-0.146666
0.0828094
0.00622171
0.438429
0.218935
-0.657363
0.370391
0.378263
-0.748654
0.174158
0.484323
-0.0156785
0.989087
0.00395968
0.784905
-0.788865
-0.00194356
-0.00688642
0.119562
-0.083176
-0.036386
0.633594
-0.513397
-0.120198
0.445716
0.539255
0.127918
-0.0339319
-0.0939858
-0.265151
0.79937
-0.534219
0.000979537
0.177852
-0.178832
0.247792
-0.664987
0.417195
-0.413255
-0.166588
0.579843
0.747697
-0.0853129
0.280316
0.279497
-0.187914
-0.415635
0.603548
0.28807
-0.805362
0.0672074
0.211677
-0.278884
0.19411
-0.0593674
-0.134742
0.00208713
0.0766258
-0.0898511
0.761156
-0.671305
-0.101775
0.924816
0.760369
-0.628811
-0.131558
0.640363
-0.540703
-0.529324
0.203653
0.325671
-0.0634924
-0.38217
-0.20977
0.179931
0.0298383
0.0687219
0.142915
0.1414
0.729081
-0.870481
0.221107
0.190267
0.128034
-0.887484
-0.460083
0.182033
0.27805
-0.328717
-0.244056
0.572773
0.495294
-0.238048
-0.838322
0.547731
0.369017
-0.32196
-0.0470567
-0.567981
0.815206
-0.247225
-0.427845
0.463582
-0.482627
0.598946
-0.116319
-0.699172
0.975485
-0.276313
-0.0222968
0.213065
-0.190768
0.135002
-0.122386
-0.389257
-0.648306
0.993603
-0.345297
-0.533736
0.6882
0.500071
-0.528874
0.0288029
-0.0558697
-0.217344
0.273214
-0.991203
0.694032
0.297171
0.00330879
-0.0751656
0.0718568
-0.0082489
0.529141
-0.766403
0.678209
-0.433853
-0.217786
-0.630842
-0.696694
0.700653
0.47129
0.0478096
0.311671
0.19266
-0.50433
-0.339028
0.317502
0.0215265
0.288164
-0.277284
-0.0108796
0.194496
-0.421489
0.226993
-0.345779
0.450135
-0.104356
-0.744072
-0.150903
0.894975
0.201842
-0.257711
0.432301
0.201294
-0.968807
0.707042
0.261765
0.236722
0.0702901
-0.307012
0.00393913
0.194834
-0.2446
0.0497662
-0.645145
-0.24114
0.435636
0.142954
0.207655
-0.168128
0.274592
-0.1469
0.253315
-0.478851
0.0340304
0.283995
0.21353
-0.568514
0.354984
-0.553231
-0.41656
0.969791
0.224278
-0.412192
-0.516131
-0.047341
0.563472
0.131363
0.188593
-0.319957
0.0329999
1.11804
-0.725536
-0.392508
0.194296
0.642635
0.00362456
0.434159
-0.332011
-0.102148
-0.275852
0.632244
-0.356391
-0.566019
-0.197197
0.763215
-0.462728
0.186311
-0.370357
-0.158967
1.06528
-0.451896
-0.613384
-0.247152
0.0265936
0.220559
0.354526
0.0857594
-0.440286
-0.178018
0.199736
-0.0212251
0.304605
-0.283379
-0.067458
-0.0232482
-0.215795
-0.00785448
0.618683
0.446597
-0.498734
0.928209
-0.251624
0.842535
-0.249671
0.00251838
-0.80677
0.240751
0.721825
-0.615183
-0.120406
-0.632125
0.139806
0.461923
-0.64962
0.648169
-0.698148
0.814864
-0.0194023
-0.194265
-0.124228
-0.238599
-0.107603
0.346202
-0.305487
-0.0307679
0.708802
0.131118
-0.83992
-0.000555645
-0.250767
0.251322
-0.0136119
0.381382
-0.988223
0.606841
0.842723
-0.0589325
-0.89317
0.911956
-0.0187857
0.208159
-0.154994
-0.884591
-0.106612
-0.322271
0.847907
-0.0167307
0.265946
0.996684
-0.394566
-0.602118
-0.576975
-0.0647324
0.641708
0.0508894
0.484634
-0.535523
-0.691145
0.0382719
-0.196926
-0.101788
0.298715
-0.465479
0.589606
0.164978
0.491569
-0.656547
-0.418197
-0.0155088
0.433706
-0.862117
0.0689829
0.793134
0.128665
0.549544
-0.238117
0.459856
0.308501
-0.250963
-0.166833
0.708032
-0.841391
0.108782
-0.366759
0.257977
-0.253601
0.29191
0.670885
0.0441764
-0.715062
0.601207
-0.852831
-0.0335492
0.131966
-0.206702
0.568922
-0.36222
-0.56858
0.265713
-0.0163657
0.281629
-0.265264
0.195585
0.0270921
-0.222677
0.242574
0.0759974
-0.263268
0.591213
-0.0465746
-0.239107
-0.158265
0.172347
0.344979
-0.209491
0.236614
-0.149421
-0.192074
0.184861
0.00721303
0.210252
-0.232786
0.0225339
-0.699838
0.57892
0.0807547
-0.596886
-0.0150431
-0.277838
0.00104195
0.553739
-0.554781
0.325926
-0.350631
0.32794
-0.663305
0.335365
-0.453707
0.737401
-0.283693
0.262733
-0.970785
0.140191
-0.0216564
-0.92801
0.426378
0.69174
-0.72893
-0.109392
-0.656921
-0.317946
-0.416796
0.181015
-0.119812
-0.0384984
0.15831
1.09637
-0.535221
0.919488
-0.231607
-0.226809
-0.160236
0.387045
-0.904777
0.360903
0.543874
0.271301
0.0259234
-0.175799
0.488198
0.164396
-0.0906704
-0.47433
0.295665
-0.232341
-0.0267426
0.265394
-0.238651
-0.114677
0.823479
0.182024
-0.243054
0.0610304
0.896621
-1.12716
0.537752
0.589412
0.220627
0.217559
-0.438186
0.64257
-0.519853
-0.122717
-0.52572
0.278665
-0.247232
-0.0284312
0.382957
0.886339
-0.974146
0.407393
-0.17597
-0.387257
0.675327
-1.01952
0.719454
0.300071
0.277311
-0.699196
0.421885
-0.684937
0.724249
-0.0393121
0.359356
-0.520795
0.0139658
0.190952
0.272543
-0.0545296
-0.632864
0.218797
-0.929851
0.355953
0.573898
0.243873
-0.820848
0.732892
-0.0297155
-0.579819
0.141677
0.498538
1.01027
-0.337837
-0.672435
-0.110637
0.258905
-0.587622
0.16023
-0.913885
0.849152
-0.608293
0.380507
0.46687
-0.814582
0.601198
0.213384
-0.935479
0.616093
0.319386
-0.356552
-0.13007
0.161198
-0.965639
0.679986
0.285653
0.609638
-0.978133
-0.81871
-0.0102202
1.04958
-0.401678
0.757483
-0.318519
-0.438965
-0.0222284
-0.138719
0.160948
0.122662
0.469611
0.526863
-0.673826
-0.140756
0.14898
0.215826
0.200981
0.355444
-0.556425
0.38147
-0.21957
-0.0347232
-0.9519
0.986623
-0.348873
0.328821
-0.765853
-0.562435
-0.378185
0.940621
0.248552
-0.318981
-0.664859
0.212388
0.452471
-0.00818163
0.0347969
-0.0266153
0.84703
-0.948482
0.350685
-0.557387
0.496163
0.170825
-0.666988
0.267027
-0.0840868
-0.78376
0.228908
0.554852
-0.605949
0.192694
0.350635
-0.626487
0.394949
-0.286166
0.00288787
-0.0110695
-0.0428712
0.994703
-0.583519
0.732422
-0.148903
0.96456
-0.00356724
-0.960992
-0.683221
0.00450772
-0.275341
0.0442986
0.705375
0.128581
0.029713
0.126168
-0.00215538
0.294155
0.495218
0.0400148
0.248149
-0.837626
-0.0742304
-0.873555
0.429467
-0.839729
0.177298
0.18075
-0.358047
0.876584
0.0476151
-0.924199
-0.106861
0.0995151
-0.326566
-0.701211
-0.758518
-0.107643
-0.279303
0.88051
-0.316168
0.450492
-0.134324
-0.815799
0.262568
-0.283462
0.484444
-0.408133
-0.603237
-0.239202
-0.263251
0.352471
-0.447079
0.110675
1.0018
-0.153897
0.638829
-0.510619
-0.12821
0.0970891
0.0863188
0.258799
0.966913
-0.918136
-0.0222936
-0.215931
0.321654
-0.465525
0.509397
-0.447395
-0.525047
0.207656
0.174683
-0.382339
-0.767089
0.0174154
-0.127711
0.742673
-0.614962
-0.116787
-0.776383
-0.658728
0.709572
1.08335
-0.470192
-0.613156
-0.0926248
0.306326
0.810631
-0.364575
-0.446056
0.259463
-0.282712
0.0222161
0.097346
-0.176438
0.0129368
0.163502
-0.173637
0.485307
-0.382881
0.992519
-0.0149648
-0.158955
-0.261892
-0.0928789
0.354771
-0.00702303
0.854053
0.243357
0.095611
-0.338968
-0.360308
0.553802
0.383524
0.415846
-0.354389
-0.105693
0.506437
-0.181648
-0.324788
-0.0367251
0.0466132
-0.00988812
0.0426292
-0.686254
0.643625
-0.886375
0.127857
0.212113
-0.414442
0.843909
-0.00477994
0.264243
0.132145
-0.448313
-0.99624
0.514133
-0.877273
0.298539
-0.439771
0.0620379
-0.351199
-0.553333
0.904532
-0.960398
-0.0058878
-0.175848
0.181736
0.766681
-0.593392
0.604462
-0.553572
0.139723
0.508637
-0.64836
0.160872
-0.357798
-0.672464
-0.266349
0.938813
-0.0904889
0.268892
-0.178403
-0.41675
0.756212
-0.339462
0.808885
-0.591809
-0.217076
0.832073
0.0202036
-0.852277
-0.442828
-0.684336
-0.301469
-0.0353281
0.372779
0.647278
-0.00897556
0.0956443
-0.0866687
-0.62358
-0.16018
0.657177
0.520425
-0.503643
0.615812
-0.112169
0.168301
-0.159695
0.209194
0.374424
-0.583618
-0.0535175
0.235541
-0.0930015
-0.872638
-0.913177
0.42063
-0.0516129
-0.142171
0.297792
0.0875918
0.68536
-0.772952
-0.49718
-0.0914054
0.620892
0.290114
0.0688455
-0.237464
0.590405
-0.584765
-0.00563948
0.0831557
-0.354661
0.271505
0.573644
0.0257708
0.262489
0.792849
-0.364096
0.819766
-0.490945
-0.115939
-0.238241
0.35418
0.705588
0.08478
0.00970209
-0.643807
0.435615
0.643178
-0.650201
-0.395081
-0.369706
0.764787
-0.522497
-0.38228
-0.88523
0.905711
-0.0204807
-0.106671
-0.35239
0.244786
0.533452
0.259397
0.0676964
-0.278141
0.210445
-0.329228
-0.661487
-0.192548
-0.698484
0.891032
0.829657
-0.18943
-0.237346
0.304553
0.551123
-0.877689
0.414432
-0.356041
-0.412919
0.941283
-0.528364
0.339204
0.444034
0.314162
-0.758196
0.911136
-0.569458
-0.341679
-0.338973
-0.650729
0.931251
-0.280522
0.524459
0.11437
-0.275911
0.271131
0.398754
0.761755
-0.205236
0.183008
0.0570237
0.0103991
0.90103
-0.492786
0.428611
0.667762
-0.396136
0.215092
0.181044
0.244918
-0.423407
0.711128
-0.0402428
0.56707
0.190414
-0.643683
-0.0450411
0.688725
0.181919
-0.0239581
-0.157961
0.149214
0.0730866
0.14962
-0.935755
-0.271168
0.295986
0.639791
-0.568469
-0.0713221
0.150411
0.356025
-0.148666
0.073475
0.235644
0.227908
-0.463552
-0.387275
0.728438
-0.0644829
-0.406911
0.965368
-0.558457
-0.230082
0.40471
-0.0183955
-0.399801
1.01121
-0.495873
-0.323093
0.539502
0.103068
0.287868
-0.302911
-0.15643
0.134133
-0.27318
-0.137594
-0.0087243
0.399345
-0.134653
0.764139
-0.629486
-0.172627
0.102244
-0.313556
0.108509
-0.314762
0.013293
-0.88679
0.623313
0.222214
0.226288
0.100535
-0.306031
0.205496
0.224876
0.082036
0.739244
0.413258
-1.1525
-0.105507
-0.0127234
0.118231
-0.00364076
-0.756233
0.715978
0.36737
0.744299
-0.656708
-0.951131
-0.0376086
-0.014509
-0.419995
0.426447
0.57976
0.297717
-0.877476
0.357881
-0.031955
-0.025012
-0.298929
-0.0972074
-0.545918
-0.477229
0.413736
0.343084
0.630251
0.547965
-0.513521
-0.0344442
0.177176
0.00768462
-0.0710783
0.240222
-0.0299699
0.752454
0.156294
-0.908748
-0.327451
0.300708
-0.219285
0.136174
0.0831113
-0.328041
0.00329796
0.324743
0.403681
0.292914
-0.696595
0.218944
0.27635
0.641405
-0.0133978
-0.25418
0.339044
-0.341199
-0.102243
0.137012
-0.0347694
-0.902118
0.505496
0.781825
-0.622573
-0.159252
0.0126804
-0.129565
0.116885
0.786283
-0.876134
0.680546
0.149111
0.173543
0.430919
-0.130851
-0.00674382
0.279568
-0.27112
-0.00844774
-0.487252
-0.115376
0.99748
-0.507141
-0.490339
0.795361
-0.323026
-0.472335
0.385963
-0.65952
0.273557
0.0339622
0.49084
0.000857665
-0.0470654
0.448457
-0.401392
0.0252924
0.254276
-0.347915
-0.209832
-0.0332215
0.757877
0.0039153
-0.761792
-0.387676
0.430266
-0.216736
-0.0750568
0.0411249
0.0913037
0.477618
-0.160502
0.246691
0.0223773
0.00952845
-0.104163
0.140087
-0.360289
0.500012
0.0133935
0.218914
0.087909
-0.230971
0.728526
0.00293971
0.545026
-0.131975
-0.114483
-0.226915
0.462559
-0.184093
0.705362
-0.521269
-0.737371
-0.0908796
-0.313999
0.702719
-0.38872
0.0523404
-0.262173
0.293446
-0.060671
-0.0200297
-0.223286
0.243316
-0.74724
0.251366
0.11925
-0.12544
0.431117
-1.08726
0.306759
-0.875846
-0.250897
0.540397
-0.308669
0.475224
-0.247315
0.0130224
-0.592539
0.635168
0.00147017
-0.14394
0.0932535
-0.474739
-0.0944351
-0.545491
0.639926
0.258654
0.275417
1.09146
-0.702685
-0.388773
-0.20914
0.0635701
0.200727
0.0209509
-0.221678
-0.723587
0.140068
0.182187
0.0119224
-0.0047188
-0.119207
0.123926
0.423993
-0.737992
0.0846855
0.401248
0.0491867
-0.450435
-0.784822
0.600729
0.131881
0.035942
-0.167823
0.333152
-0.981458
-0.136691
0.000592132
0.136099
0.168946
-0.0370648
0.00961539
0.660682
-0.486524
0.548502
0.461562
-0.242617
-0.818296
0.25586
-0.605162
0.50406
0.101102
0.372224
-0.767305
-0.447725
-0.280653
0.728379
0.0649199
0.374407
-0.277312
0.230629
0.966491
-0.127821
-0.83867
-0.000308985
-0.837317
0.753047
0.0790261
0.466487
0.344144
-0.151613
-0.000876622
0.132567
-0.25701
-0.310933
0.0364729
-0.0708632
0.0343903
-0.00314904
-0.769188
0.772337
-0.0478652
0.2673
-0.219435
0.265624
-0.826301
0.560678
-0.0724505
-0.495122
-0.0254215
-0.0261738
0.594114
-0.306216
-0.182528
0.488744
-0.340419
-0.334278
0.4073
-0.232617
-0.238966
0.0266518
0.212315
-0.206693
0.307228
-0.865012
-0.109619
-0.0505399
0.160159
0.141001
0.268896
-0.409897
0.588523
-0.891354
0.30283
0.0417325
-0.501931
0.134526
-1.01162
-0.462722
-0.541905
1.00463
-0.841848
0.0410602
0.800787
-1.02444
-0.702067
0.0171301
-0.253805
0.261203
-0.00739838
-0.878313
-0.292217
1.04467
0.344945
-0.179605
0.0769069
-0.303821
-0.155229
0.431579
0.139943
0.0948598
-0.356752
0.0141831
-0.111565
0.0973817
-0.182387
0.0327807
-0.0749568
0.0876372
-0.25388
0.474507
-0.976699
0.613059
0.36364
-0.166105
0.139777
0.524036
0.191548
-0.00962864
-0.217004
0.2847
-0.424265
-0.240594
-0.493962
0.179448
0.314514
-0.0233619
-0.175258
0.19862
-0.372323
0.455479
-0.0878257
0.648931
0.529745
-0.286389
0.458981
-0.7994
0.4073
-0.501902
0.0946015
0.106695
-0.00787627
0.0971341
-0.00491235
-0.908405
0.557205
0.352431
0.44293
0.0141873
-0.179006
0.164818
-1.11263
0.448538
-0.181981
0.236256
-0.175878
-0.0142294
-0.203084
0.217313
-0.506927
0.20071
-0.90732
0.814318
0.757343
-0.26118
-0.171986
0.154573
0.0174134
-0.0253386
-0.141834
-0.14141
-0.987356
0.397105
0.590252
-0.133138
0.120414
-0.0669264
0.27159
-0.204664
0.703216
-0.0226703
-0.0044121
0.0553143
-0.0509022
-0.2389
0.252293
0.0944679
-0.158904
0.651276
-0.818521
0.877269
0.0661364
-0.498211
-0.308375