/*--------------------------------*- C++ -*----------------------------------*\
| =========                 |                                                 |
| \\      /  F ield         | OpenFOAM: The Open Source CFD Toolbox           |
|  \\    /   O peration     | Version:  2306                                  |
|   \\  /    A nd           | Website:  www.openfoam.com                      |
|    \\/     M anipulation  |                                                 |
\*---------------------------------------------------------------------------*/
FoamFile
{
    version     2.0;
    format      ascii;
    arch        "LSB;label=32;scalar=64";
    class       volVectorField;
    location    "1.75";
    object      U;
}
// * * * * * * * * * * * * * * * * * * * * * * * * * * * * * * * * * * * * * //

dimensions      [0 1 -1 0 0 0 0];

internalField   nonuniform List<vector> 
13486
(
(1.52338 -0.288414 5.40588e-19)
(1.70585 0.199551 2.5333e-19)
(2.07689 0.019137 0)
(1.00334 -0.547296 -1.9278e-19)
(2.44378 -0.532774 1.61617e-19)
(2.3067 0.0251694 1.9179e-21)
(2.73154 -0.397225 5.10577e-21)
(2.08143 -0.763193 -2.78405e-19)
(1.99804 -0.430298 0)
(2.04861 0.568776 0)
(1.62869 -0.91325 -1.5124e-19)
(2.28927 0.0831892 0)
(1.40195 -0.496684 -5.34792e-19)
(2.4492 0.441416 3.31408e-20)
(2.57035 -0.298075 8.25994e-20)
(2.01137 0.569579 -1.48847e-19)
(-0.496077 -0.307774 2.75862e-19)
(0.452427 0.485043 -6.10326e-19)
(2.25884 -0.0165686 2.81004e-21)
(1.6639 -0.111128 -5.46938e-19)
(1.43423 -0.846076 -7.28147e-20)
(1.41881 -0.509964 6.9062e-19)
(1.72236 0.205011 -2.02435e-19)
(2.01102 -0.417675 0)
(2.08875 0.451139 4.86637e-20)
(1.99904 -0.378795 -4.10882e-20)
(0.878972 -0.442379 1.20129e-19)
(2.08689 -0.051351 1.40627e-19)
(2.05209 -0.0113332 0)
(1.98215 -0.139358 -7.39443e-20)
(1.33641 -0.762046 -5.1169e-20)
(2.63638 -0.014686 -9.51444e-20)
(2.25303 -0.30412 1.40715e-19)
(2.00075 -0.0289891 0)
(2.09074 -0.736409 0)
(1.93634 0.0169653 -9.44738e-21)
(1.99281 0.0253118 3.47422e-20)
(1.60436 -0.754115 2.7272e-19)
(1.9465 0.0508389 5.00341e-21)
(1.99509 -0.259378 2.75684e-19)
(2.58193 -0.866624 0)
(0.958568 -0.479397 -6.20373e-19)
(2.00838 -0.0588239 0)
(2.08687 0.37341 -2.3623e-19)
(2.096 0.369258 9.76198e-20)
(2.29922 0.0914104 9.78992e-20)
(2.35556 -2.30358 1.3885e-18)
(2.00746 -0.00274811 9.55511e-22)
(1.99877 0.0210458 -2.66285e-20)
(2.31496 -0.0565279 8.69802e-20)
(1.98294 0.0462656 3.12209e-19)
(1.94574 0.00492584 0)
(2.31153 0.209008 -1.3927e-19)
(1.73255 -0.65702 -3.98729e-19)
(0.809044 0.171332 0)
(2.4142 -0.539214 -1.11153e-19)
(2.00963 0.0396713 -2.04122e-20)
(1.95538 0.0262073 1.19573e-20)
(2.24969 -0.302846 1.63842e-19)
(2.02212 0.0661991 0)
(1.67386 -0.855448 -1.55188e-19)
(1.97407 0.0503001 0)
(2.73142 -0.711756 -2.8004e-19)
(1.42213 -0.844793 -9.02316e-22)
(1.65493 -0.434882 0)
(2.02604 0.0393927 1.58699e-20)
(1.02829 -0.543486 -1.82018e-19)
(1.49792 -0.0482113 1.82869e-19)
(1.9987 -0.45044 -1.57657e-19)
(1.97431 0.0179157 -5.93219e-21)
(0.833987 -0.426877 2.08801e-19)
(0.683464 0.26886 -1.09062e-20)
(1.97088 -0.133775 2.04835e-19)
(0.352022 1.48432 -1.06533e-18)
(1.99788 0.00577106 4.32922e-21)
(2.03145 0.0317488 4.45119e-21)
(2.02903 -0.00218917 -1.1366e-20)
(2.58284 -0.325721 -3.40135e-20)
(1.8646 -2.13578 -4.35592e-19)
(1.81826 0.0599438 0)
(2.00153 -0.00897822 9.30229e-22)
(1.67873 0.279508 -1.61101e-20)
(2.68305 -0.86918 -3.15371e-20)
(2.11088 0.0179372 -1.69948e-20)
(1.51756 -0.302847 -1.05877e-18)
(1.49104 1.44599 0)
(1.9362 0.17796 3.75282e-20)
(1.99057 0.0375141 -4.72921e-19)
(1.898 0.173535 -2.05643e-19)
(1.93885 0.80214 -1.59174e-19)
(2.61494 0.204209 -4.20691e-20)
(2.20942 -0.649632 -1.44785e-19)
(1.58858 -0.390025 1.3944e-19)
(1.69696 0.0126927 1.42084e-20)
(1.92819 -0.621775 6.37704e-20)
(2.00449 -0.0158677 5.17265e-22)
(1.01656 -0.493884 0)
(1.4489 -0.761254 8.67627e-20)
(2.01126 -0.264599 -5.26134e-19)
(-0.161278 -0.736274 3.72837e-20)
(2.10981 0.00412189 0)
(2.41133 0.443493 8.68296e-21)
(1.49498 -0.775769 -9.87417e-22)
(1.95118 0.0241212 -1.46432e-20)
(1.45163 1.38494 0)
(-0.107803 -0.869469 3.84747e-20)
(1.98042 0.0706867 6.7229e-22)
(1.92996 0.0410403 1.22893e-20)
(2.11578 -2.23907 7.38935e-19)
(1.93943 -0.880474 0)
(1.39488 -0.667865 0)
(2.79459 -0.156414 -5.18961e-20)
(1.73997 -0.639282 2.96032e-21)
(2.0648 0.0206999 1.40349e-21)
(1.19096 -0.160524 0)
(1.33211 -0.657845 -2.37903e-19)
(2.08029 0.458975 0)
(2.01626 -0.0262706 0)
(1.97693 -0.140223 0)
(1.99693 0.0201528 1.66262e-20)
(0.72114 0.838465 1.55258e-19)
(1.65683 -0.851567 0)
(1.89436 -0.564702 0)
(1.9725 0.0589574 -1.47679e-20)
(1.97767 -0.714946 0)
(1.95223 0.0160082 0)
(2.2572 -0.256228 5.98648e-21)
(2.15042 0.05157 9.98788e-20)
(1.98358 0.0170501 -1.02968e-20)
(1.64151 -0.358904 -2.51646e-20)
(1.96035 0.0243554 1.77577e-21)
(2.43406 -2.30371 -3.39185e-19)
(3.34563 0.0770824 1.63455e-18)
(-0.0907727 -0.00358926 1.28509e-18)
(2.00272 0.0230007 -5.16259e-20)
(1.92669 0.343189 -2.27259e-19)
(0.805064 0.586693 -1.57493e-19)
(1.95677 -0.873662 0)
(1.99962 0.0156848 -4.7734e-21)
(2.09986 -0.617824 -1.00415e-19)
(2.33582 -0.204084 -1.63912e-19)
(2.3345 0.224971 1.18182e-19)
(2.46226 0.0809197 0)
(1.82439 0.0515226 0)
(2.07188 0.000812792 5.04963e-21)
(2.27802 -0.763699 -2.92182e-19)
(2.08573 0.153746 -2.93533e-20)
(0.426095 1.40632 0)
(2.32609 -0.0693779 0)
(2.01068 0.0276004 0)
(2.00418 0.00835317 4.79575e-21)
(2.58652 -0.42284 0)
(2.00211 -0.0041058 -9.76456e-22)
(1.6586 0.281428 -1.3689e-19)
(2.16615 0.216698 0)
(2.10349 0.0180378 0)
(1.75409 -0.802805 0)
(0.837996 -0.703927 1.55221e-20)
(1.83645 -0.744706 5.67451e-19)
(2.03155 0.074118 4.2225e-20)
(2.34145 -0.00117151 4.99357e-20)
(1.8432 -0.72438 -8.61988e-19)
(3.02628 0.330296 -5.59756e-20)
(0.853004 -0.410659 2.72693e-19)
(1.95878 0.0204156 0)
(2.52758 0.388242 -7.49005e-20)
(2.36009 0.409401 -7.69488e-21)
(0.603808 -0.23108 -6.70774e-19)
(2.078 0.151565 7.58025e-20)
(-0.135406 0.100467 3.54313e-19)
(3.76362 -0.121053 1.16483e-19)
(2.17613 0.198555 7.74209e-20)
(1.98785 0.119856 -3.86816e-19)
(2.37654 -0.137633 8.8887e-21)
(2.01037 0.0145846 1.66235e-21)
(1.60917 -0.721993 0)
(2.52584 0.732691 1.17449e-19)
(2.36466 -0.261265 2.37614e-19)
(1.97308 0.0414478 -5.17401e-19)
(2.44664 0.0933963 0)
(2.06132 -0.311669 5.54566e-19)
(2.04477 0.0164371 2.55761e-21)
(2.43658 -0.0753008 -4.04083e-21)
(0.749381 -0.370648 0)
(2.14385 0.0528627 4.50609e-20)
(2.15682 -0.0438134 -6.44005e-20)
(2.0226 0.0066783 -1.28962e-21)
(2.00519 -0.0630355 -2.42406e-20)
(2.5977 -0.840443 0)
(1.1932 -0.576359 -3.05965e-19)
(2.00987 0.0328326 0)
(2.06521 -0.0122565 0)
(1.93593 0.0296526 0)
(1.4153 0.680628 -2.89615e-19)
(1.91532 0.0188223 0)
(1.59992 -0.907897 -4.00057e-20)
(1.6334 -0.380863 5.69299e-20)
(2.26737 -0.0282793 2.66739e-20)
(1.19549 -0.590361 -1.18501e-19)
(2.47951 0.360132 -3.39082e-20)
(1.35237 -0.733481 5.27759e-20)
(2.18717 0.0718237 -2.94191e-21)
(1.48572 -0.717019 -3.15343e-19)
(1.85602 -0.80624 3.75886e-20)
(2.04735 0.0546693 -5.1961e-20)
(1.92528 0.0358174 4.38184e-21)
(0.544191 -0.593528 -1.87384e-19)
(1.91127 -0.0882791 4.17077e-19)
(1.89494 0.0321245 0)
(2.11718 0.0560196 0)
(2.02675 -0.0526428 8.71758e-20)
(1.87004 -0.361345 5.96982e-20)
(1.68072 -0.0917942 5.00518e-19)
(1.95153 0.0520649 1.00171e-21)
(2.30213 0.0776346 -2.21031e-21)
(1.80941 -0.0793558 3.55941e-21)
(2.00687 -0.136526 0)
(1.94062 0.797417 4.15512e-19)
(1.66795 -0.409957 0)
(2.95322 -0.0205957 0)
(-0.475276 -0.384829 -5.66466e-19)
(2.33492 -0.0902413 0)
(2.08222 -0.613383 2.3313e-19)
(2.28043 0.0123548 0)
(2.26567 0.275645 -2.42325e-20)
(1.37801 -0.651708 1.92386e-19)
(2.42368 0.11199 -3.36087e-21)
(1.47322 -0.676869 2.55461e-20)
(1.8575 -0.0190236 1.76871e-21)
(1.95082 0.164976 -1.49001e-21)
(2.06194 -0.298415 -1.77986e-19)
(1.40773 -0.241163 1.11339e-19)
(2.32448 -0.223856 2.06859e-19)
(0.991498 -0.485797 2.12411e-19)
(1.50473 -0.792395 0)
(1.16098 -0.564937 2.28037e-20)
(2.00124 -0.0803639 3.88118e-20)
(2.05796 0.00636366 -9.27232e-21)
(1.01492 -0.491554 6.15818e-19)
(2.35153 -0.0236455 0)
(2.21401 -0.32729 0)
(1.99108 0.0658286 5.90115e-19)
(2.0394 0.0115203 0)
(1.02025 -0.508299 2.06041e-19)
(1.9579 0.0648298 1.40391e-20)
(1.83318 0.0363861 0)
(2.28678 -0.0125306 -3.87208e-20)
(1.97045 -0.278897 1.36656e-19)
(-1.26892 1.45699 2.49419e-18)
(2.05593 0.359906 0)
(1.58019 -0.784539 -3.89297e-20)
(1.15821 -0.131485 7.84748e-20)
(1.12667 -0.551837 3.00747e-19)
(1.9562 0.0594245 0)
(1.86787 0.00957444 -5.40229e-22)
(1.63939 -0.730257 1.9953e-20)
(2.62482 0.00201088 7.27824e-20)
(1.78536 -0.0617861 -4.4992e-21)
(0.758889 -0.669594 -1.63929e-20)
(2.1938 -0.329215 9.7486e-20)
(1.82851 0.158892 0)
(1.95129 0.0684063 -4.8306e-22)
(2.57737 -0.304841 -1.95517e-19)
(1.63405 -0.729953 -2.48973e-20)
(2.33947 -0.764736 -1.67334e-19)
(0.909689 -0.442575 0)
(1.87658 -0.0214346 -8.88981e-21)
(1.38285 -0.770238 -7.4771e-20)
(2.0332 -0.00537532 -2.4159e-19)
(1.76076 0.621748 0)
(1.64066 0.751716 2.0086e-19)
(1.98225 0.0887068 -1.40093e-19)
(2.01167 -0.140319 0)
(2.26833 0.145881 8.15496e-20)
(1.30212 -0.62798 2.5516e-19)
(1.9838 -0.260027 -7.60478e-20)
(1.85756 0.00651857 0)
(1.35052 -0.162704 0)
(1.93606 0.050001 9.83955e-21)
(2.09829 0.169857 5.71801e-20)
(1.38685 -0.168838 1.81867e-20)
(2.15878 -0.201967 -2.01886e-19)
(1.95602 0.0702222 3.05499e-19)
(2.0385 -0.579636 -9.2446e-20)
(1.65401 -0.827311 1.81652e-19)
(0.779721 -0.800966 2.42811e-19)
(2.3569 -0.200258 1.99205e-19)
(1.93799 -0.00614645 1.35047e-20)
(2.24732 0.259601 3.86938e-20)
(2.03209 -0.0282086 0)
(1.49374 -0.802335 0)
(1.9985 0.0564925 -2.10518e-20)
(1.36737 -0.658934 2.3392e-19)
(1.98372 0.0365564 -5.082e-20)
(1.95445 -0.0375077 3.52194e-20)
(1.99705 -0.0525272 0)
(2.16698 -0.0161228 -6.23412e-20)
(2.22615 0.137596 -6.81719e-20)
(1.89734 0.0534103 -2.80943e-19)
(2.69841 -0.570235 3.95484e-20)
(3.03237 0.501258 6.44404e-20)
(0.537456 -0.469577 -4.74235e-20)
(2.09924 0.169748 -4.91712e-20)
(2.61645 -0.0398294 9.04412e-20)
(2.00093 0.0252508 -5.87811e-21)
(1.5289 -0.701919 0)
(0.391684 -0.0540329 0)
(2.30203 -0.00876935 8.1403e-20)
(1.94373 0.163108 -3.00189e-20)
(2.00036 0.0274675 0)
(2.66615 1.57357 -2.12083e-18)
(0.867155 -0.465193 0)
(2.42264 0.743889 -2.35472e-20)
(2.78502 -0.137241 -4.91417e-20)
(1.89767 -0.863059 0)
(1.91842 0.326805 -1.39571e-19)
(1.96752 0.0676899 3.05768e-20)
(1.88049 0.175214 -1.76149e-20)
(1.90292 -0.0749499 -4.59807e-19)
(1.87491 -0.038318 0)
(2.01305 0.0347938 -2.99682e-20)
(1.98426 0.0523429 1.15378e-21)
(1.98221 0.0550194 6.51523e-20)
(1.68788 0.0510396 -2.65505e-19)
(0.895151 0.554433 2.89236e-19)
(2.62564 0.165459 7.84662e-20)
(2.32494 -0.363371 -5.50207e-19)
(2.16667 -0.194282 0)
(2.18077 0.118859 1.48239e-22)
(2.36764 -0.369936 -9.78971e-20)
(2.01147 0.0147143 6.86169e-19)
(2.23885 -0.652395 0)
(2.65654 0.281056 -8.24971e-21)
(1.52693 0.260795 0)
(2.74892 -0.425127 -1.11054e-19)
(1.98873 -0.580874 -1.73898e-19)
(0.792715 -0.380527 2.53505e-19)
(2.55904 -0.44683 -1.34813e-19)
(2.04356 0.211097 0)
(1.96332 0.0680898 2.56092e-20)
(1.86142 -0.0349502 1.17019e-20)
(1.69666 0.0649528 2.50724e-19)
(2.38884 -0.372679 3.86746e-19)
(2.43166 -0.0875162 1.803e-19)
(1.59481 -0.773376 -1.28143e-19)
(2.00268 0.00802957 -1.85664e-21)
(2.24557 -0.16219 0)
(1.15906 -0.443825 6.12794e-19)
(2.93304 -0.0521748 0)
(1.96454 0.0606254 5.53799e-23)
(2.25729 -0.0784207 3.3022e-19)
(2.20537 0.120518 -7.38888e-20)
(2.26452 0.139749 6.49908e-20)
(0.981633 -0.464959 -1.47559e-19)
(1.94051 0.0465311 3.50602e-19)
(1.98231 0.00214348 0)
(0.684262 1.27533 -8.95026e-19)
(2.26222 -0.254341 -1.17453e-19)
(1.94396 0.150952 1.55935e-20)
(1.88701 -0.335493 5.60226e-20)
(2.28168 0.00309844 0)
(2.54704 0.278668 6.20285e-20)
(1.82201 0.105623 5.34114e-19)
(1.94546 0.0802732 4.25061e-19)
(1.98967 -0.141511 0)
(2.02558 0.00734421 -7.89326e-22)
(1.98031 -0.065736 -3.64522e-20)
(2.82036 -2.24135 2.91877e-19)
(1.65871 -0.119112 6.9505e-20)
(2.24172 -0.225129 1.11645e-19)
(2.06379 -0.00483412 -6.43606e-23)
(2.26257 -0.169867 0)
(2.22085 0.258936 -9.14855e-20)
(1.59477 -0.783297 3.82127e-20)
(2.34577 0.190241 1.38732e-20)
(1.98289 0.0241581 2.62525e-19)
(1.43341 0.00155724 0)
(1.97218 0.0469261 3.54395e-20)
(1.92565 -0.835248 0)
(3.53026 0.285444 -3.37441e-19)
(2.07483 -0.0797656 0)
(2.23372 -0.744635 -5.88356e-21)
(1.41879 -0.197449 -1.491e-19)
(1.62463 0.682644 4.82549e-19)
(2.79268 -2.30005 -9.5361e-19)
(1.86983 -0.000945819 0)
(2.24309 0.0353578 -6.56728e-20)
(2.03809 0.200152 -1.50686e-19)
(-2.16152 0.784315 -8.31761e-19)
(1.29545 -0.832544 9.66176e-21)
(1.70236 -0.104917 -7.55649e-19)
(2.05555 -0.137654 4.17916e-20)
(2.09567 0.168089 1.03524e-19)
(1.56907 -0.520391 0)
(1.46194 0.202787 2.8672e-19)
(2.00241 0.0188052 1.48174e-20)
(0.940998 -0.502626 1.11021e-19)
(1.58391 -0.780677 -1.32724e-19)
(-1.81484 0.423497 -1.07116e-18)
(2.36418 -0.208785 0)
(-2.14059 0.752903 0)
(2.12935 0.931243 0)
(2.08084 -0.0984978 0)
(0.751421 -0.21473 -7.66995e-20)
(2.73597 -0.375606 0)
(2.00893 0.253225 0)
(1.71147 0.0308723 1.0342e-19)
(2.34633 -0.268049 -2.45505e-19)
(2.22113 -0.162642 -2.71442e-19)
(1.75368 0.248288 8.5692e-19)
(2.00649 0.00822848 -7.78475e-20)
(2.5454 1.4227 0)
(2.10482 -0.137509 0)
(1.94706 0.0507228 2.98907e-19)
(1.99168 0.0552706 5.2451e-20)
(1.43276 0.723257 0)
(0.724559 -0.369448 1.32175e-19)
(2.3201 -0.780643 1.88401e-19)
(3.52395 -0.372684 0)
(2.33719 -0.0280859 1.80311e-19)
(1.99035 0.0487101 -3.45222e-19)
(1.93306 -0.715949 8.78542e-20)
(1.15195 -0.429069 0)
(2.01304 0.210791 2.81282e-19)
(2.3713 0.0208626 0)
(1.99598 -0.0822447 0)
(2.19031 0.154795 -1.2923e-20)
(1.93392 0.0770052 1.58893e-19)
(0.962207 -0.491718 -1.55225e-19)
(2.3297 0.419711 1.13872e-20)
(1.45085 -0.419927 -2.64871e-19)
(2.06196 -0.0952716 3.51887e-20)
(2.09489 0.159231 8.0366e-20)
(2.21461 0.24584 2.40228e-19)
(2.41919 -0.760157 0)
(2.03706 -0.272069 7.73315e-20)
(1.42233 -0.140813 0)
(1.98991 0.0669302 -2.02537e-20)
(2.35558 -0.145425 0)
(1.51684 -0.0251579 3.86584e-19)
(1.11644 -2.25176 -1.82143e-18)
(2.02855 -0.130641 0)
(-0.495717 -0.171545 5.5723e-20)
(2.08334 -0.154364 -9.80208e-20)
(2.00676 0.129657 4.43037e-20)
(1.84586 -0.316586 7.22213e-19)
(1.52783 0.663016 -3.09827e-19)
(1.44231 -0.407689 -7.52759e-19)
(3.48165 0.2212 0)
(1.99758 0.0133389 -1.48972e-20)
(1.62265 -0.785172 -3.01948e-19)
(2.03384 0.224597 0)
(1.86479 0.188299 1.91778e-20)
(2.30841 -0.0346636 -1.79941e-20)
(2.82399 0.648237 0)
(2.00469 0.0139171 0)
(0.721282 -0.365056 0)
(1.61447 -0.710167 8.39829e-20)
(2.00917 -0.596491 1.10629e-19)
(2.27207 -0.703041 7.24296e-21)
(2.3826 0.712724 0)
(1.76598 -0.223787 4.90429e-19)
(2.058 0.0188531 -4.24585e-21)
(2.33113 0.400659 -1.83599e-20)
(1.39306 -0.810832 1.65996e-19)
(1.93577 0.147376 0)
(2.03789 -0.00358874 0)
(0.899075 -0.223308 -4.19537e-19)
(1.54435 -0.513343 -1.85061e-19)
(1.99267 -0.211487 0)
(1.44513 -0.69996 -2.22155e-19)
(2.08701 -0.0147509 1.88375e-21)
(2.02251 0.00462398 4.52978e-23)
(0.892856 -0.427228 0)
(1.90124 -0.00463153 4.64519e-21)
(2.00552 0.0225322 -1.35603e-20)
(2.38365 0.0301903 6.25303e-20)
(1.97745 -0.601293 0)
(0.730508 -0.873948 -3.7597e-19)
(2.25212 0.128109 7.43739e-20)
(1.98025 0.0754822 6.11654e-20)
(2.01126 -0.00619241 -6.60356e-21)
(2.56114 0.339751 0)
(1.73411 0.236104 -2.27994e-19)
(2.70797 -0.15941 -1.61526e-19)
(-1.39539 0.103875 1.27514e-19)
(2.02524 0.0138482 0)
(1.32857 -0.821958 -9.81923e-21)
(0.656837 -0.203985 0)
(2.00821 0.037554 -2.39051e-19)
(1.93334 0.063597 1.0476e-19)
(1.919 -0.00771577 -5.82611e-20)
(1.62177 -0.728766 0)
(2.09775 -0.035266 -2.86216e-20)
(1.2191 0.332193 7.93041e-19)
(2.39003 -0.754386 0)
(1.68795 0.0134688 3.22908e-19)
(2.66946 -0.581136 -4.49516e-20)
(2.11487 0.0124927 0)
(1.40209 -0.75677 3.36378e-20)
(1.83977 0.0536893 1.08849e-20)
(2.02159 -0.0100763 0)
(0.324036 -1.21985 4.36231e-19)
(1.86552 0.172433 0)
(1.83421 -0.837306 2.30134e-19)
(1.59219 -0.783235 7.45777e-20)
(2.03327 0.0106196 1.25058e-21)
(2.31362 0.0735743 -1.89495e-20)
(1.4597 0.192097 1.52164e-19)
(1.83797 -0.342859 -2.66456e-19)
(1.87295 0.00376716 -1.53522e-21)
(1.8671 -0.841157 2.49048e-21)
(2.23075 -0.226038 1.08576e-19)
(2.55813 0.350322 1.55431e-19)
(2.01411 -0.896425 0)
(2.03008 -0.00640325 -2.32854e-19)
(3.34197 -0.154812 -8.40801e-19)
(1.4492 -0.150384 0)
(2.0106 0.025554 5.10075e-21)
(1.97522 -0.015565 0)
(1.35541 -0.435879 6.4998e-19)
(2.20056 -0.812825 0)
(2.03373 0.0184818 1.52045e-20)
(2.25014 -0.0685547 -1.88239e-19)
(1.41131 -0.713511 5.77577e-20)
(0.831176 -0.420893 1.34153e-19)
(2.27636 -0.0341555 -1.66297e-21)
(1.47881 -0.702929 1.92191e-19)
(1.88099 -0.559569 2.55665e-19)
(1.58452 -0.398272 0)
(0.731944 -0.359621 -8.70876e-20)
(2.44362 -0.694952 -3.94593e-20)
(0.812882 -0.379033 -1.02765e-19)
(2.01831 0.0202078 -1.57205e-21)
(1.57106 -0.629925 0)
(2.10797 0.00505847 -1.20342e-21)
(0.82434 -0.396269 0)
(1.52145 -0.786951 -1.43406e-21)
(1.81437 -0.946386 -9.66198e-20)
(0.48608 -0.500882 0)
(2.1603 -0.567785 7.42678e-20)
(1.63513 -0.427568 0)
(2.81384 0.578063 0)
(1.61941 -0.764682 -3.03547e-19)
(1.55195 0.233654 2.31039e-19)
(1.75417 0.109715 0)
(1.82514 0.129347 -1.45581e-19)
(2.31782 -0.773037 3.4032e-19)
(1.61492 -0.789517 1.7271e-19)
(2.95149 0.964983 0)
(2.13418 -0.0423974 0)
(1.63902 -0.791077 -1.31486e-19)
(1.90247 -0.145872 0)
(2.1756 0.0395115 0)
(1.68204 -0.839866 -1.85864e-21)
(2.13801 -0.409857 -3.58235e-19)
(1.83093 -0.470161 2.21084e-19)
(2.16408 -0.346911 1.37092e-20)
(0.662286 -0.316022 1.87441e-19)
(1.94117 0.0551916 1.19585e-19)
(1.61953 -0.426917 0)
(2.19212 0.319045 -3.58444e-20)
(1.50786 -0.269757 0)
(2.13641 0.0242098 0)
(2.02179 0.0575498 0)
(2.18627 0.134776 -1.09896e-20)
(1.88646 -0.0727105 2.13171e-19)
(2.03262 0.0141075 -8.50971e-21)
(1.66211 -0.429968 0)
(0.853979 -0.412225 -1.17557e-19)
(2.15142 0.877839 3.68215e-20)
(1.97696 -0.728849 2.41582e-20)
(1.97497 0.00231594 -2.09657e-20)
(1.96445 -0.248813 1.23453e-19)
(2.04554 0.000300458 -2.00382e-19)
(1.07544 -1.94586 0)
(2.26371 0.129483 0)
(1.54803 0.692098 0)
(1.34834 -0.620792 -4.67173e-19)
(1.41982 -0.51963 -4.46045e-20)
(0.558991 -0.314187 0)
(2.20938 0.322532 0)
(2.30335 0.267784 8.39531e-20)
(2.068 -0.0505247 -5.6014e-20)
(1.95909 0.480563 2.24557e-19)
(1.85018 -0.79668 0)
(1.56399 -0.792182 -5.05814e-20)
(2.26197 0.0511618 2.5646e-20)
(1.51123 -0.480313 -4.4291e-19)
(2.19357 0.0594614 -6.37352e-20)
(2.318 0.38952 5.15781e-20)
(1.83218 -0.498633 5.13031e-20)
(1.34754 -0.624868 8.1558e-19)
(1.71496 -0.160274 2.46759e-20)
(2.03293 0.0126416 3.0735e-21)
(1.99702 0.0244718 -5.95341e-20)
(1.31332 -0.616848 -7.00065e-20)
(1.84119 0.0497134 -6.03944e-21)
(1.77289 1.86111 1.23646e-20)
(1.46061 -0.698038 1.14671e-19)
(2.1558 0.100616 0)
(1.9916 0.195653 -1.00522e-20)
(2.10819 0.0221283 -2.10109e-19)
(2.82415 0.202014 1.12644e-19)
(1.47952 -0.44921 -4.03807e-19)
(1.96043 -0.700616 -2.63203e-19)
(2.11183 0.00568342 5.3193e-19)
(2.32856 -0.0615621 -3.0358e-19)
(2.08286 0.361 -5.78873e-20)
(2.37216 -0.202144 -1.01251e-19)
(1.27482 -0.256973 -8.83496e-19)
(2.0485 -0.019251 -1.65201e-19)
(1.26225 -0.312847 0)
(1.46177 -0.684575 -1.10916e-19)
(2.01407 -0.0110876 5.02545e-19)
(1.91598 -0.00976094 -8.35447e-22)
(0.391276 1.49462 0)
(1.72015 -0.790633 0)
(2.0714 0.327441 1.96436e-19)
(1.14662 -0.253708 5.50116e-19)
(1.67574 -0.529582 -7.20654e-20)
(2.2568 -0.737902 -1.2481e-19)
(2.34695 -0.376501 2.99789e-19)
(2.94772 -0.0937652 0)
(2.08661 0.356528 1.04161e-19)
(0.3675 -0.111344 6.8025e-20)
(2.57921 0.710949 1.30677e-19)
(2.03275 -0.28506 -3.15771e-19)
(0.829279 -0.400569 -3.04097e-19)
(1.97603 -0.220786 -1.20712e-19)
(2.02413 -0.287348 4.11e-20)
(2.38734 0.935656 0)
(1.91196 -0.0614004 -1.2192e-20)
(1.91573 0.0171472 5.33183e-20)
(2.01769 0.0089228 4.49432e-22)
(0.88969 -0.434447 7.47948e-19)
(2.01346 -0.282323 4.73008e-19)
(2.00649 0.056308 -2.28177e-20)
(1.59608 -0.782124 -1.03788e-19)
(2.01694 -0.044777 -4.28167e-20)
(2.11124 -0.0481723 1.46883e-19)
(1.64265 -0.835195 -2.35095e-20)
(2.48255 0.698031 -1.27558e-19)
(0.205679 -1.01967 -4.73569e-19)
(1.05191 -0.514116 -2.48033e-19)
(2.01993 -0.00587915 0)
(2.04465 0.00930272 -1.95936e-20)
(1.67248 -0.780521 -5.9092e-20)
(1.41303 -0.22519 8.0282e-19)
(2.04458 0.0211375 0)
(2.93526 0.567841 -7.07851e-20)
(1.31672 -0.568398 1.84908e-19)
(2.02416 0.0546051 -5.09264e-19)
(1.22615 -0.611963 -1.25569e-19)
(1.77092 0.114987 6.15863e-21)
(2.24474 -0.171711 1.84934e-19)
(2.241 0.0415966 9.48096e-20)
(1.8571 -0.847733 -3.18343e-19)
(2.03847 0.00396072 1.11936e-20)
(1.47148 -0.528736 -1.05844e-19)
(2.10566 -0.0103702 1.97366e-19)
(2.08567 -0.0833342 -1.51244e-19)
(2.13412 0.0740952 -5.89307e-21)
(2.20497 -0.041088 -3.27757e-19)
(1.25617 -0.573825 -3.57209e-19)
(2.04185 0.0264408 0)
(1.56205 -0.721004 6.89142e-20)
(2.04508 -0.00198068 3.80805e-20)
(1.98586 -0.388141 6.60243e-20)
(2.27811 0.0302002 -4.78554e-21)
(2.28159 -0.409353 -1.8576e-19)
(1.99273 0.0263862 -3.96233e-19)
(2.1061 0.253574 5.86027e-20)
(0.648596 -0.325763 -1.35759e-19)
(2.09969 0.0171377 0)
(1.97988 0.0636131 -1.77656e-20)
(2.19105 0.130826 7.56387e-20)
(1.57803 -0.615335 0)
(2.14079 0.0915932 1.13084e-19)
(2.17088 0.114282 9.32014e-20)
(2.12437 0.00883113 8.32431e-24)
(2.6261 -0.863248 1.7848e-20)
(1.93193 0.0151073 0)
(1.83544 0.277763 4.10258e-19)
(2.01687 0.0625715 2.37813e-20)
(1.42911 -0.688679 2.55081e-19)
(2.04639 -0.191328 0)
(1.55181 0.193798 -6.68304e-19)
(1.18151 1.19911 1.23586e-19)
(2.70974 1.16368 -3.53014e-19)
(1.28596 -0.276705 8.57797e-19)
(1.98669 0.0158237 2.00718e-20)
(0.871355 -0.443305 1.06169e-19)
(1.96077 -0.13764 -3.32793e-19)
(2.08255 -0.269322 -1.15119e-19)
(1.8094 0.0996142 -3.08422e-19)
(2.03445 0.00749957 0)
(1.98708 0.0384066 -2.25923e-19)
(0.0970442 -0.139754 3.58182e-19)
(-0.0732201 1.03153 0)
(1.92537 -0.384332 0)
(2.01002 -0.000902281 0)
(-1.00528 -0.112281 0)
(2.06495 0.254211 0)
(1.21592 -0.250643 0)
(1.84355 -0.0865005 -1.74269e-21)
(2.22928 -0.645358 -1.47513e-19)
(2.44057 0.117198 0)
(1.82124 0.278135 6.20887e-19)
(1.66973 0.507642 5.84383e-20)
(2.0786 0.181588 5.29553e-21)
(1.67952 -0.792953 -3.25215e-20)
(1.22043 -0.0139706 -2.13723e-21)
(0.817067 -0.40977 1.14476e-19)
(2.0857 -0.00855347 -1.23254e-19)
(2.28892 -0.0765766 1.15824e-20)
(2.04024 0.258206 -1.38852e-19)
(1.89615 0.161977 -4.11735e-19)
(2.07832 0.813179 -1.31976e-19)
(3.38907 0.293198 0)
(1.39064 -0.865552 3.0922e-20)
(1.37391 -0.449532 -7.12526e-19)
(2.01729 0.0293724 -6.93327e-19)
(2.45707 -0.703064 -2.1079e-19)
(2.08164 -0.0243926 5.35601e-20)
(2.81759 -0.668003 -1.9024e-20)
(2.20052 -0.315206 -4.0777e-20)
(2.17283 -0.553694 -2.57071e-19)
(2.02387 0.144567 1.56872e-19)
(3.2533 1.48409 0)
(1.90161 0.018363 -9.63754e-22)
(1.73394 0.0176513 -9.48861e-20)
(2.77603 -0.332195 0)
(1.93705 0.0420585 0)
(1.92399 -0.877607 -3.45183e-21)
(1.11135 -0.564535 1.12063e-19)
(1.80426 -0.0882066 -2.33272e-20)
(1.9772 0.017399 0)
(1.92078 -0.0874229 -4.36554e-19)
(1.84812 0.154194 -7.98671e-20)
(1.53022 -0.727201 4.26774e-20)
(2.14284 0.0760585 4.80156e-20)
(0.8109 -0.404054 0)
(1.40219 -0.867355 3.49929e-20)
(2.17751 0.0908434 0)
(1.89832 -0.0598128 1.25908e-20)
(2.56051 0.279742 -4.98837e-20)
(1.97837 0.0325281 -3.82269e-22)
(2.37823 0.416301 1.53909e-20)
(2.8734 0.834698 -3.99368e-20)
(1.83706 -0.540431 5.31163e-19)
(1.22991 -0.757256 0)
(1.58511 -0.3451 -4.98901e-20)
(1.48822 0.154241 0)
(2.4642 0.0838386 -3.51134e-20)
(1.53026 -0.740839 9.28414e-20)
(1.90849 -0.371908 7.45465e-20)
(1.96449 0.0581822 1.64373e-20)
(1.6594 -0.73359 -1.27945e-19)
(1.22977 -0.602487 -2.94665e-19)
(1.41051 -0.456303 -4.12281e-19)
(1.9948 0.0241398 -5.37198e-21)
(1.58842 -0.328819 4.10493e-20)
(1.2986 -0.589745 2.93889e-19)
(1.46381 -0.480437 4.53212e-19)
(1.41096 -0.52689 6.36948e-20)
(1.67959 -0.354318 -2.73526e-20)
(1.94551 -0.622904 2.62953e-19)
(2.66363 -2.43797 1.40315e-18)
(2.02587 0.0138755 7.10611e-21)
(1.61692 0.473574 -5.20162e-20)
(2.28515 0.255377 -2.42283e-20)
(2.38393 -0.568332 0)
(-1.36587 0.321061 -1.38155e-18)
(2.07197 0.0122022 -2.51264e-19)
(2.01724 0.0582622 0)
(2.4547 0.0912808 0)
(1.41849 -0.240806 -2.82595e-20)
(2.1195 -0.380247 -1.20835e-19)
(2.31957 0.0995639 5.18529e-21)
(2.13564 -0.401029 4.69614e-19)
(2.05151 0.778263 1.24277e-19)
(1.69011 -0.0349183 3.40497e-19)
(1.54989 -0.739753 6.51364e-22)
(1.86521 0.503076 0)
(1.49637 -0.508563 4.34208e-19)
(1.66477 -1.31597 6.65394e-20)
(1.65361 -0.73256 9.71046e-20)
(1.83284 -0.709211 8.75133e-20)
(1.6352 -0.737229 -4.41019e-20)
(2.08588 -0.0486787 1.72655e-19)
(1.94584 0.0381504 -6.61667e-21)
(1.97944 -0.126337 7.83662e-20)
(1.56202 -0.744783 -6.21463e-20)
(2.3052 0.0992795 -1.41128e-21)
(1.95383 0.0240295 1.74941e-19)
(1.25664 -0.304191 -3.52643e-19)
(1.91187 -0.126059 2.71642e-19)
(2.0552 0.385804 0)
(2.34218 0.193604 -1.12439e-20)
(1.98623 0.0534371 3.90925e-20)
(1.57196 -0.367395 -1.39031e-19)
(2.02116 1.62782 6.3567e-20)
(1.91467 -0.609584 1.9608e-19)
(1.98608 -0.00821225 7.55023e-20)
(1.47049 0.0499668 -5.23719e-19)
(2.73306 -0.339589 0)
(1.97418 0.0438234 3.01363e-20)
(2.20202 0.0815268 8.67147e-20)
(1.90626 -0.00814959 0)
(1.48723 -0.0633319 2.99143e-19)
(2.14612 0.0767974 0)
(1.90112 1.65659 4.01673e-20)
(2.28244 -0.0125995 0)
(1.88071 0.0186189 0)
(2.26733 0.0311081 4.75442e-20)
(2.27388 0.0845739 1.14183e-20)
(2.5018 -0.159078 -2.09924e-19)
(1.9409 0.134032 -1.87554e-19)
(1.69622 1.0084 -1.22102e-19)
(2.01028 0.0644138 -7.31591e-20)
(2.09132 0.25293 0)
(2.30944 -1.32963 -7.75564e-20)
(2.3405 0.0500671 2.98739e-20)
(1.89397 -0.0590725 -2.42137e-20)
(2.38351 -0.562094 0)
(2.84323 0.187558 1.70441e-19)
(2.36561 1.46003 2.04401e-20)
(2.01962 -0.00614622 2.78524e-20)
(1.75108 -0.662863 0)
(1.70007 -0.836378 1.20722e-19)
(2.06055 0.181902 0)
(1.99542 -0.130805 -4.012e-20)
(-0.794945 1.09323 0)
(2.58757 -1.07717 0)
(1.70388 -0.178274 0)
(2.15442 -0.807926 0)
(1.54639 -0.931205 -2.66009e-20)
(1.60381 -0.700776 -1.85302e-20)
(1.90112 -0.0756532 -3.19824e-19)
(1.4311 -0.723622 -6.93752e-20)
(1.37626 -0.61454 0)
(1.46724 -0.656998 -4.20154e-20)
(-1.16433 1.67267 -2.45918e-18)
(1.62536 -0.763556 0)
(1.57692 -0.579863 -4.63329e-19)
(2.0228 0.0276282 3.94073e-21)
(2.27758 0.244701 5.49723e-20)
(2.57093 -0.856109 3.39063e-20)
(1.87168 0.134804 0)
(2.33276 -0.735538 0)
(2.68984 -0.446989 1.12404e-19)
(1.84517 0.0608933 -1.56911e-21)
(1.99829 0.0211538 1.11755e-20)
(1.40906 -0.223587 3.83024e-21)
(2.01255 -0.00451451 1.67287e-20)
(1.99177 0.0599158 2.14235e-21)
(2.02039 0.165729 2.23815e-19)
(1.98486 0.0530008 -1.70747e-20)
(1.98317 -0.558392 0)
(1.19975 -0.66071 0)
(2.03588 0.0119447 0)
(2.00961 -0.0120971 0)
(1.80856 -0.360673 1.96038e-19)
(2.27283 -0.111244 0)
(1.6355 -0.893841 2.83793e-19)
(1.78575 -0.511071 -3.47465e-21)
(1.43603 -0.498981 -6.80922e-19)
(1.66024 0.588003 -2.47148e-20)
(1.56807 -0.702499 -3.87253e-20)
(1.67722 -0.98821 -1.57815e-19)
(1.91773 0.0285362 6.0381e-20)
(1.59239 -0.753224 -5.96242e-20)
(1.98687 0.0505326 -2.73899e-20)
(2.2544 0.0667859 0)
(2.48251 -0.326923 0)
(1.87482 0.30548 0)
(2.28508 -0.430389 9.80087e-20)
(1.66207 -0.399318 0)
(1.89326 0.507079 0)
(1.99478 0.00440233 0)
(1.85133 -0.47275 2.06225e-19)
(2.07332 0.182979 -2.07165e-19)
(1.98859 -0.011071 0)
(1.84007 -0.103758 -2.74618e-20)
(1.98011 0.192717 -2.18056e-19)
(2.56747 0.621233 -2.71116e-19)
(1.66151 -0.775129 2.75506e-19)
(1.95929 0.543484 -9.48437e-23)
(1.81008 0.0504424 9.53389e-22)
(1.9349 0.0553237 -9.71319e-21)
(1.845 -0.00739517 -1.9878e-21)
(2.30304 0.0876046 -1.42364e-20)
(2.00347 0.0248055 2.47438e-20)
(1.83542 0.0452877 -3.01191e-19)
(2.10815 -0.0436065 0)
(2.06312 -0.528106 -4.83972e-20)
(1.96377 0.0689534 3.11877e-19)
(0.513163 0.325345 2.40111e-19)
(2.1896 -0.30199 -1.19208e-19)
(1.17477 -0.271349 -6.0021e-19)
(2.29093 0.099361 2.38031e-21)
(2.74318 -0.148238 2.32543e-19)
(1.9985 0.115027 0)
(2.00995 0.2142 -2.72458e-20)
(1.96169 0.0353973 5.47222e-21)
(1.86832 -0.00720799 1.1838e-20)
(1.42541 -0.835939 -1.90367e-19)
(1.98053 -0.00296652 1.64737e-19)
(2.0431 0.0113503 -3.42439e-21)
(1.99036 0.00316773 -1.85314e-20)
(2.02642 0.0122714 0)
(1.95951 1.07005 0)
(1.4801 -0.709731 3.37116e-19)
(1.09735 -0.548595 1.34613e-19)
(1.98878 0.00939058 9.9222e-22)
(1.94256 0.0712794 6.27805e-19)
(2.0275 0.21849 8.14937e-20)
(1.52056 0.18078 0)
(1.81948 0.0501671 0)
(1.69023 -0.410136 -2.97091e-21)
(2.27039 0.0209891 7.48365e-20)
(2.00017 0.512625 2.94832e-19)
(2.44866 0.0472675 0)
(2.03977 -0.010077 0)
(2.20727 -0.627912 3.49712e-19)
(2.02199 -0.17812 2.55051e-19)
(0.354837 -0.159768 -4.73065e-20)
(1.95792 -0.00579791 0)
(2.64911 -1.14437 1.38088e-19)
(1.87183 -0.194159 -1.43608e-20)
(1.67054 -0.776197 -8.12731e-20)
(1.97926 -0.0455609 -3.51518e-19)
(2.26478 -0.611895 0)
(2.13374 -0.400802 9.55158e-20)
(1.76123 -0.640706 -9.75085e-20)
(0.183814 -0.0118763 0)
(2.04514 0.0130819 2.19195e-20)
(1.92941 0.10359 -2.02695e-19)
(1.99904 -0.000372172 2.21636e-23)
(2.67638 0.219363 1.61362e-20)
(2.35349 1.79889 6.79957e-19)
(1.93696 -0.0034167 0)
(1.17426 -0.463696 -4.14319e-21)
(2.02656 0.235382 -7.42004e-20)
(1.91286 -0.806046 -2.01721e-19)
(2.05208 0.25066 1.64796e-19)
(1.15377 -0.785443 9.9154e-20)
(1.97976 -0.0266361 -7.66956e-19)
(2.0081 0.067561 1.21662e-20)
(1.96049 0.0562568 -1.54408e-20)
(1.8149 -0.439053 0)
(1.93484 0.0129795 1.13716e-20)
(1.22379 -0.575643 2.34657e-19)
(2.23491 -0.104186 -3.65974e-19)
(2.00084 0.0629683 -2.82589e-19)
(2.01075 -0.0910379 3.85111e-20)
(1.72394 -0.215838 7.1863e-19)
(2.04445 0.01032 -7.30637e-21)
(1.80562 0.0520453 1.74994e-19)
(2.01244 0.0297993 1.82305e-20)
(2.17561 -0.354378 -1.58683e-19)
(2.53372 0.739682 -2.03844e-19)
(1.69417 -0.534266 5.644e-20)
(2.03712 0.0303224 0)
(1.90193 0.239428 0)
(1.15403 -0.25069 0)
(1.43172 -0.463069 5.26864e-19)
(2.06203 0.0505511 -4.57714e-19)
(1.83331 0.164235 0)
(1.60958 -0.382374 -4.12852e-19)
(1.82053 0.141644 0)
(1.81841 -0.334861 -3.21962e-19)
(1.8897 -0.0437985 -2.30362e-20)
(1.95541 -0.528431 -2.89416e-19)
(1.96946 0.00968028 0)
(1.95687 0.024231 0)
(1.92127 0.00539731 1.51307e-20)
(2.39217 0.0887624 3.35209e-21)
(2.24698 -0.0773635 7.86433e-20)