/*--------------------------------*- C++ -*----------------------------------*\
| =========                 |                                                 |
| \\      /  F ield         | OpenFOAM: The Open Source CFD Toolbox           |
|  \\    /   O peration     | Version:  2306                                  |
|   \\  /    A nd           | Website:  www.openfoam.com                      |
|    \\/     M anipulation  |                                                 |
\*---------------------------------------------------------------------------*/
FoamFile
{
    version     2.0;
    format      ascii;
    arch        "LSB;label=32;scalar=64";
    class       surfaceScalarField;
    location    "4.5";
    object      phi;
}
// * * * * * * * * * * * * * * * * * * * * * * * * * * * * * * * * * * * * * //

dimensions      [0 3 -1 0 0 0 0];

oriented        oriented;

internalField   nonuniform List<scalar> 
20045
(
0.250889
-0.272431
0.021542
-0.538067
0.192887
0.34518
0.16834
0.910186
-1.07853
0.055846
-0.0774581
0.0216121
-0.423641
0.413737
0.00990436
-0.280695
1.10002
-0.819327
-0.512612
0.222534
0.290077
0.0354564
0.217523
-0.252979
0.237555
0.211802
-0.449356
-0.41173
-0.0605279
0.472258
0.205157
-0.120351
-0.0848061
1.1378
-0.553597
-0.584207
0.181251
-0.182383
0.00113151
-0.644193
0.542708
0.101485
-0.166343
0.535826
-0.369482
-0.5471
0.13537
0.0633043
-0.00801499
-0.0552893
0.441184
-0.333004
-0.108179
-0.853159
1.24405
-0.390888
-0.383958
0.0340371
0.349921
0.173432
-0.160051
-0.0133807
0.0615733
0.119678
-0.0691917
-0.468875
0.267118
0.478473
-0.745592
0.420615
0.0977164
-0.518331
-0.506255
0.773373
-0.316222
0.344701
-0.0284787
-0.591866
1.1348
-0.542931
0.880091
0.116972
-0.997063
-1.08367
0.609208
0.474464
-0.0700193
-0.153099
0.223118
0.724361
-0.508232
-0.216128
-0.424834
0.775197
-0.350363
1.12801
-0.654204
-0.47381
-0.280303
0.315759
1.09112
-0.542703
-0.548413
0.732262
0.107593
-0.839856
-0.0302915
0.186891
-0.156599
-0.973219
0.378884
0.594335
0.299874
0.259315
-0.559189
0.0261486
0.198067
-0.224216
0.0653451
-0.0944124
0.0290673
1.07181
-1.07373
0.00192538
0.749661
-0.276304
-0.473357
0.345792
0.403869
0.526541
0.611263
-0.0819498
0.347069
-0.265119
0.62924
0.285934
-0.915175
0.923248
-0.190985
0.0709586
0.925555
-0.996513
0.64937
-1.09902
0.449654
0.904505
-0.670628
-0.233877
-0.603754
-0.439322
1.04308
-0.0448598
-0.154003
0.198863
0.426656
-0.104268
-0.322388
-0.350453
-0.0731878
0.0246512
0.755488
-0.780139
0.812458
0.0382875
-0.850745
0.429027
-0.853861
1.05932
-0.704272
-0.355047
0.255696
-0.0422214
-0.213475
0.436871
0.622448
0.376122
-0.940995
0.564873
0.146506
0.0269257
0.388936
0.0588364
-0.447773
0.828832
0.109634
-0.938465
-0.0215962
0.0801789
-0.0585827
-0.338845
0.0842174
0.254628
0.427377
-0.189823
0.906517
-0.922279
0.0157619
-0.0484423
0.0268461
-0.0581377
0.484794
-0.123933
-0.523128
0.647061
-0.0426649
-0.0749533
0.117618
0.918276
-0.169592
-0.748684
0.691624
-0.666973
-0.0164429
0.934719
0.217034
-0.383377
-0.202483
-0.150432
0.352915
0.223449
-0.590923
0.367474
0.524727
0.605152
-1.12988
0.455039
-0.354023
-0.101015
0.821705
-0.445583
-1.20098
0.228627
0.972354
0.00959283
0.241296
-0.276022
0.31662
-0.0405989
0.217041
-0.37209
0.155049
-0.804473
0.0361151
0.768358
0.516728
0.0761145
-0.592842
-0.433771
0.39533
0.0384407
-0.728902
-0.11277
0.841672
0.365054
-0.0625665
-0.302487
0.203268
-0.292483
0.0892151
-0.0807572
-0.412702
0.493459
0.297825
-0.316057
0.0182323
0.752552
0.199562
-0.952114
-0.291393
-0.0248292
-0.0103756
-0.0812793
0.0916549
0.610937
-0.311063
0.0963386
0.0828387
-0.179177
0.737149
0.353968
-0.241172
-0.403022
-0.122505
0.11213
-0.139401
0.951859
0.00225162
-0.278273
-0.186295
0.282633
0.229886
0.602782
-0.832668
0.592179
-0.87869
0.28651
-0.284433
-0.208947
0.182353
0.026594
-0.099067
0.126379
-0.027312
0.623633
-0.454914
-0.168719
-0.249592
0.204732
0.662307
-1.08331
0.421003
-0.0861706
0.160523
-0.0743519
0.0229726
-0.122981
0.100009
0.579299
-0.158684
0.827419
0.300594
-0.583091
0.459158
0.696548
-1.00454
0.307993
0.292707
0.148477
0.126456
0.12924
-0.391659
0.318954
0.0727049
-0.38104
0.0480635
-0.294949
0.246886
0.65347
0.251035
0.563573
-0.717122
0.15355
0.812956
0.0911588
-0.904115
-0.988403
0.763124
0.225279
-0.174507
-0.367154
0.541661
0.958561
-0.305091
-0.0162596
0.363328
0.0181224
-0.0572303
0.0391079
-0.0522437
0.0278377
0.0244061
0.569119
0.402091
-0.971209
0.607939
-0.580662
-0.0272779
-0.179039
0.106619
0.0724195
-0.149873
-0.0590738
1.12308
-0.426531
-0.326024
0.349186
-0.0231619
0.634562
-1.06902
0.434462
0.184258
-0.788012
0.571787
0.229314
-0.801101
0.648025
-0.424575
0.974158
-0.129909
-0.84425
0.26379
-0.862532
0.598741
1.27436
-1.00381
-0.270554
-0.133307
0.238484
-0.105176
0.00293314
1.01937
-1.0223
1.07317
-0.193081
-0.826507
0.0276049
0.798902
-0.479093
0.419788
0.0593054
1.01849
-0.493767
0.170915
0.284124
-0.639987
0.778618
-0.138631
-0.743557
0.911897
0.0107518
-0.152497
0.141745
0.02442
-0.0327857
0.00836571
-0.0166899
-0.189394
0.206084
0.952356
-0.136772
-0.815584
1.30134
-0.642108
-0.659229
-0.223961
0.207271
0.324831
-0.658445
0.333614
0.0769249
-0.0115798
-0.810029
-0.484228
0.68617
-0.201942
-0.667509
0.498969
0.16854
-0.0124653
-0.0251749
0.0376402
0.322549
0.951812
-0.048172
-0.00407174
-0.0360089
0.0541313
-0.707004
0.0670174
-0.732313
0.932552
-0.20024
-0.659
0.760492
-0.101492
-0.605738
-0.424657
1.0304
-0.170761
-0.0785656
0.249327
0.455445
-0.485665
0.0302206
0.837237
0.113678
-0.950916
0.0142503
-0.757437
0.743187
-0.366867
0.938654
0.199921
-0.549395
0.349474
-0.412676
1.07498
-0.834891
0.54468
0.290211
0.0992454
-0.136353
0.0371078
0.399901
-1.16537
0.765466
-0.912978
0.321111
-0.62089
-0.405201
1.02651
-0.630224
-0.396286
-0.267467
0.293616
0.123895
-0.130921
0.00702537
-0.774811
-0.180412
0.955223
-0.809942
1.14177
-0.331824
0.922216
-0.644898
-0.277317
0.0844987
-0.254591
0.170093
-0.233894
-0.4866
0.720493
0.148369
0.056788
-0.461628
0.287121
-0.662177
-0.220006
0.882183
0.0894188
0.024829
-0.114248
0.119134
-0.603363
0.13985
-0.20987
0.869666
-0.0567099
-0.140207
0.109915
-0.129398
0.157645
-0.0282463
-0.0497883
1.00214
-0.768069
0.534175
0.312582
-0.014196
-0.298386
-0.697777
0.129018
0.568759
0.320658
0.601557
1.21263
-0.812725
0.705027
-1.17865
0.473623
0.215393
-0.726699
0.511306
0.0245364
-0.408495
-0.485202
0.715088
0.661094
-0.941788
0.281455
-0.698701
0.417246
-1.18227
0.664052
0.51822
-0.0235657
-0.410205
0.179941
0.143074
-0.323015
0.70877
-0.206803
-0.501967
0.146143
-0.705072
0.708005
-0.255311
-0.0707135
0.63916
1.10331
-0.892263
-0.211046
-0.0110349
-0.128345
0.13938
0.677388
0.100817
-0.778205
0.185548
0.0539229
-0.23947
-0.117008
0.633117
-0.516109
-0.204673
0.421713
0.571853
-0.371933
-0.0561095
0.151225
-0.0951152
0.891837
-0.257274
0.0907736
-0.00797393
-0.0827996
0.141092
0.0125163
-0.153609
-0.104003
0.107716
-0.00371375
1.01538
-0.654775
-0.360603
0.235648
-1.04559
-0.113539
0.00953659
-0.881265
0.286638
0.594627
1.09083
-0.315629
0.249211
-0.981524
1.26643
-0.589753
-0.676678
-0.0117474
0.101166
0.838203
-0.337466
-0.500737
-0.61576
0.141925
0.473835
-0.959011
0.960807
-0.00179658
0.277399
-0.795864
0.518465
-0.0296178
-0.0382848
0.0679026
-0.469755
0.631934
-0.162179
-0.0879886
0.0147304
0.0732582
-0.145713
0.0595426
-0.114935
0.0158676
-0.604952
-0.273738
0.433159
-0.755893
0.322734
0.363822
-0.21064
-0.153181
0.408677
0.315684
0.621477
-0.340022
0.00995006
0.0144699
0.662965
0.427861
-0.498779
0.0165972
0.482182
0.247442
0.590761
0.382275
0.153551
0.240885
0.122937
-0.286679
-0.019461
0.30614
-0.0566744
0.15592
-0.672436
0.555428
-0.186544
0.245068
-0.0585236
-0.904291
0.866434
0.0378574
-0.384472
0.61162
-0.227148
-0.220006
-0.110877
0.330883
0.764581
-0.828309
0.0637282
-0.715379
-0.466893
1.30774
-0.84525
-0.462487
-0.0940062
0.0829713
0.888536
-0.611137
-0.350255
0.783414
-0.10319
-0.247143
0.350333
0.803467
-0.120385
-0.683082
1.33845
-0.240008
-1.09844
-0.388414
0.285224
0.828819
-0.484141
-0.344679
-0.157135
0.780285
-0.62315
0.624564
-0.806333
0.181769
0.192817
-0.252117
0.0592993
0.392934
-0.119146
-0.273788
1.20702
-0.95941
-0.247607
-0.525757
-0.462647
0.750971
0.352338
-0.824543
-0.0797486
-0.0254666
0.166559
0.150073
-0.775474
0.6254
0.00410314
0.119792
-0.54051
1.10963
0.377799
0.637579
1.1167
-0.689809
-0.426887
-0.756665
0.536659
0.756973
-1.22109
0.464115
-0.626445
-0.0378989
0.664344
-0.232051
-0.17741
0.409462
0.545551
-0.22072
0.0549103
0.257671
0.33464
-0.0257215
-0.482511
-0.711148
0.985051
-0.273903
-0.148423
0.019025
-0.0581796
0.00207019
0.119682
-1.07869
0.31436
-0.519033
0.148437
-0.218446
0.304775
-0.086329
-0.00270109
0.0585471
-0.518719
0.378028
0.140691
0.348682
0.274951
-0.364423
0.684173
-0.31975
0.495123
0.112816
-0.644736
0.794809
0.571912
-0.0551845
-0.198726
-0.499051
0.971486
-0.718299
-0.253187
0.936425
-0.88618
0.270543
0.615637
0.797777
-0.864295
0.0665177
-0.437574
0.356817
-0.115374
-0.0636644
-0.116875
-0.612026
0.281885
-0.543184
0.261299
0.421269
0.407551
0.767443
-1.13814
0.370692
0.223008
-0.536877
0.313869
-0.972549
0.168076
0.00891734
0.356136
-0.579707
0.890135
-0.310428
-0.261413
0.309232
-0.0478196
-0.406053
-0.106559
-0.130131
-0.223316
0.353447
0.0839168
0.000836825
-0.0847537
-0.332596
-0.146497
0.375303
0.447899
-0.823202
0.796346
-0.548904
0.29905
-0.454044
0.0164699
0.462617
-0.239609
-0.667008
-0.167883
-0.00918999
-0.10192
0.11111
0.975909
-0.346669
-0.453245
0.749267
-0.296022
-0.116885
0.136223
-0.019338
0.745882
-0.0371126
-0.203774
-0.5717
-0.498061
0.920244
-0.422183
0.681579
-1.15067
0.469092
0.576721
0.731016
0.296253
-0.268913
-0.0273398
0.087722
-0.714167
0.682165
-1.04025
0.358089
0.112085
-0.15475
-0.0714713
0.635044
-0.164626
0.478987
-0.50915
0.724543
0.188764
-1.04192
-0.902848
0.493103
0.409745
0.635621
-0.101015
-0.534606
0.93302
-0.168439
-0.41962
-0.534773
-0.483936
0.46192
-0.266513
-0.0419901
0.308503
0.321774
-0.287737
-0.712397
0.640925
0.853695
0.218111
-0.785643
0.332398
1.10565
-0.354676
0.109163
-0.00315134
-0.106011
-0.00557267
-0.608468
0.614041
-0.903231
0.170331
0.7329
0.727929
-0.727929
-0.235673
0.824233
-0.58856
0.423051
-0.787474
0.674264
-0.404096
-0.270168
-0.927115
0.961217
-0.0341024
0.339708
-0.0472304
-0.292478
0.262196
-0.109532
-0.152664
0.109762
-0.329768
-0.282773
0.468078
-0.818333
-0.848648
1.00132
-0.152672
-0.285718
0.66102
0.0570587
0.00428953
-0.0613482
-0.106022
0.190787
-0.0847649
-0.382886
0.407422
1.05784
-0.857561
-0.200279
-0.0880743
-0.524847
0.612921
-0.231736
0.25033
-0.018594
0.11897
-0.278897
0.159926
-1.04774
0.427434
0.620307
-0.0569327
-0.0205254
0.0419225
0.0672402
0.00578302
-0.0526879
0.0469049
0.515436
0.691581
0.0540151
0.0030436
-0.0547452
-0.290057
0.344802
-0.493468
0.791609
-0.298141
-0.00646386
0.0752774
-0.0688135
0.433438
-0.210903
0.99688
-0.540287
-0.456593
0.00761147
-0.420313
0.0475279
0.789709
0.424257
0.302783
-0.72704
0.467564
-0.410917
-0.0566467
-1.01286
0.186358
-0.433705
0.187589
0.246116
0.426084
0.54627
-0.972354
-0.624516
0.586617
0.0458329
-0.915029
0.869196
-0.126229
0.210727
0.0869501
-0.118615
0.0316644
0.0203371
-0.307016
0.119735
-0.0549852
-0.0647501
-0.676633
-0.204632
0.617032
0.110297
0.0231982
-0.133495
-0.12299
0.00610488
0.167453
-0.709329
0.541876
0.20924
0.544027
-0.753267
0.336701
-0.71611
0.863519
-0.147409
-0.714572
0.557437
0.174196
0.170505
-0.400604
-0.266906
-0.255791
0.0659319
0.189859
-0.860066
0.366598
0.666801
-0.754875
0.426929
0.678719
-0.298652
0.303766
-0.00511447
0.358893
-0.875419
0.516525
0.147399
-0.266294
0.118895
0.552431
-0.756204
-0.641058
-0.0179423
-0.306273
-0.0325717
0.0466179
0.23435
-0.280968
0.342461
-0.00454201
-0.0293951
0.0339371
0.909139
-0.483056
-0.748491
0.700055
0.0484365
0.259798
0.180853
-0.440651
-0.370607
0.244379
-0.214475
-0.0413157
0.387485
0.286779
-0.248273
-0.756268
0.157672
-0.166862
0.615352
0.405813
0.166099
-0.878219
0.949178
0.0954538
-0.461431
0.365977
-0.0856893
-0.827878
0.913567
0.00191399
-0.00807661
0.00616262
0.172258
-0.343019
-0.203576
0.82814
0.894827
-0.631037
-0.433192
-0.0855269
0.0110791
-0.41088
0.399801
0.405503
-1.01124
-0.10667
-0.478614
0.585284
0.0306392
-0.126755
0.0961153
-0.653827
0.052338
0.601489
0.96086
-0.674926
-0.0173878
0.0832253
-0.0658375
-0.212718
-0.0190181
0.179107
0.356912
-0.536019
0.0955778
-0.121272
0.0256944
0.638927
0.370579
-1.00951
-0.397556
1.15011
0.0811173
0.00279956
-0.256038
-0.567379
0.823417
0.393259
0.72982
0.911555
-0.702315
-0.350852
0.220721
0.255887
0.137047
-0.425956
1.18293
0.134528
-0.766459
0.63193
0.936016
-0.138199
-0.797817
-0.460014
0.711346
-0.251331
0.398372
-0.379762
-0.475457
0.855219
0.0286626
-0.0490131
0.0203505
-0.283105
-0.486859
0.769964
0.0741753
-0.180197
0.0316444
-0.0441096
0.506478
-0.789583
-0.706998
-0.206482
0.91348
-0.0641885
-0.476074
0.540262
0.162319
1.15641
-1.18184
0.0254297
0.210544
-0.151619
-0.0589257
0.00880783
-0.30746
0.262137
0.231322
-0.315245
0.0831935
-0.809756
1.01718
-0.207422
0.0109887
-0.197533
0.338656
0.309369
-0.827534
-0.246197
-0.114191
0.347987
-0.233796
0.537987
-0.132174
-0.196233
0.216825
-0.0205917
-0.108083
0.0200943
-1.16779
0.546898
0.931642
0.16838
-0.132657
0.251627
-0.200644
0.460441
0.803901
-0.335823
-0.204336
0.00810335
-0.0963471
-0.61605
0.226155
0.205875
-0.195123
-0.917939
0.0147087
0.0837264
0.209159
-0.0617596
-0.998706
0.639148
0.359557
0.764102
0.142415
0.186033
-0.060858
-0.125175
0.276339
-0.260418
-0.0159208
-0.835617
0.292914
-1.02575
0.527688
-0.228037
0.206421
0.0216153
-0.0102633
-0.0169798
0.0272431
1.04314
-0.00489216
-1.03825
0.140306
0.00779251
-0.148098
-0.133762
-0.257897
0.224767
-0.0214996
0.176815
-0.192833
0.0160175
0.38639
-0.0606493
-0.32574
-0.0492652
0.22608
0.84847
-0.648908
-0.0270076
-0.143109
0.170117
-1.01134
0.20158
-0.0494031
-0.00761439
-0.114891
-0.0912316
0.201528
0.00751443
0.00243564
0.246059
0.153152
-0.39921
0.426549
-0.0376132
0.435016
-0.339563
0.190558
-0.167585
0.0615943
-0.323007
0.610712
-0.0366762
-0.574036
0.528971
-0.0336049
-0.495366
-0.635263
-0.227269
0.0845286
-0.133828
0.0492989
0.394473
-0.446508
0.0520356
1.1105
-0.0418142
-1.06869
-0.0261202
-0.187064
0.213184
-0.495781
0.655742
-0.159961
0.509255
0.623899
-1.13315
-0.293385
0.251164
-0.261626
0.42903
-0.167404
0.214586
0.0924304
-0.307017
-0.957431
0.467542
0.48989
-0.187259
-0.00557361
-0.843637
0.136639
0.300248
-0.183799
-0.116449
0.477819
-0.615813
0.137993
-0.0819755
-0.190456
0.17881
0.9776
0.819957
-0.134867
-0.685091
-0.840792
0.124682
0.34115
-0.539877
0.681312
-1.09549
0.414181
-0.0995184
0.27946
0.00485962
-0.395404
0.340659
-0.160855
0.208918
-0.112563
-0.767811
0.880374
0.386319
0.502217
-0.74427
0.774186
-0.0299165
-0.155029
0.201647
-0.644367
-0.260846
-0.112497
0.125992
-0.0134948
0.198748
-0.32474
0.125992
0.0296876
0.00988064
-0.0395682
-0.0819309
0.55975
-0.801488
-0.110168
0.911656
-0.733386
-0.242182
0.975569
0.475401
-0.355802
-0.119599
-0.164445
0.0190135
0.145432
-0.17341
-0.154367
0.327778
-1.0007
0.0447012
0.956003
0.0253601
0.183851
-0.209212
0.808974
-0.90311
0.0941354
-0.507274
0.572773
0.073057
-0.645831
0.0118742
-0.124371
-0.205534
-0.420228
0.625762
0.622956
-1.03563
-0.948349
0.823438
0.12491
0.110964
-0.015386
0.656364
-0.317708
-0.0545746
-0.247285
0.301859
-0.00800892
0.121625
-0.113616
-0.287937
0.945075
-0.657137
0.460457
-0.30418
-0.156277
1.03154
-0.976869
-0.0546681
0.798188
-0.326426
-0.471762
0.0431266
-0.220697
0.177571
-0.286521
-0.00842798
-0.938585
0.825636
0.112948
0.0539083
-0.992493
-0.402621
0.6474
-0.244779
-0.586671
-0.372739
0.18335
-0.159904
-0.0234459
-0.7894
-0.221937
-0.174442
0.115596
0.0588463
0.238192
-0.0526446
-0.891352
0.852001
0.0393513
-0.19669
-0.117323
0.0423694
0.151393
-0.0110878
-0.599997
0.130242
0.12735
-0.154345
0.0269953
-0.481158
0.352523
0.128635
0.354671
-0.0149628
-0.254992
0.64597
0.0999127
0.35563
0.0775723
0.272738
-0.350311
-0.106743
0.562188
-0.610163
0.389428
0.220735
-0.164217
-0.0230423
0.879266
-0.492947
0.73903
-0.380136
-0.236008
-0.169888
0.405897
0.343738
-0.786098
0.44236
0.546848
-0.611037
0.989709
-0.432779
-0.55693
-0.00363881
-0.511357
-0.098806
-0.804826
0.984671
-0.179845
0.0813773
-0.276833
0.981861
-1.06131
0.271914
0.011938
0.180879
-0.107638
-0.300486
0.110692
-0.00297584
-0.493085
-0.518929
1.16922
-0.477595
0.321529
-0.0372028
-0.284326
0.0635111
0.198685
-0.666717
-0.367893
1.03461
0.202154
0.343397
-0.00429281
-0.136395
0.140688
0.819701
-0.0449305
-0.0650104
0.109941
0.584923
0.0257886
-0.361386
-1.02275
0.174107
-0.203885
0.00871589
0.195169
0.568025
0.698406
0.279367
0.0333574
-0.312725
0.976873
0.0546637
0.59061
-0.83931
0.2487
-0.831435
-0.00692686
0.838361
-0.758144
0.982139
-0.223995
0.131691
-0.0055375
-0.126154
-0.399415
1.02237
-0.0695907
0.246391
-0.176801
0.0203294
-0.764599
0.155231
-0.0390389
-0.116192
-0.933072
1.20354
-0.270469
-0.243114
0.534904
-0.291791
1.16116
-0.510592
-0.65057
-0.000784592
-0.598176
0.598961
-0.118244
-0.000370164
-0.493574
1.00283
0.549031
-0.784704
1.12541
-0.443828
-0.177006
0.149998
-0.865523
0.0340885
1.2119
-0.444452
-0.0246924
-1.17629
0.220155
-0.0220883
0.271969
0.531797
-0.803766
0.548751
-0.124959
-0.423792
0.699889
-0.975727
0.275838
-0.123169
0.00949604
0.113673
-0.197393
-0.470199
0.667591
0.346628
-0.285033
-0.454961
0.172881
0.28208
0.136239
0.284484
-0.420723
0.0761753
0.107174
-0.858074
1.00694
-0.148862
0.0221928
-0.0202788
0.448943
0.19355
-0.642493
0.518024
0.396827
-0.914851
0.150759
0.484861
-0.0131969
0.987355
0.00314798
0.783371
-0.786519
9.68624e-06
-0.00647354
0.0259407
0.0749985
-0.100939
0.729971
-0.68243
-0.0475407
0.449437
0.540272
-0.031266
0.00439895
0.0268671
-0.283606
0.805763
-0.522157
0.0128417
0.147346
-0.160188
0.386823
-0.734752
0.347929
-0.585276
-0.295096
0.880373
0.818681
-0.141293
0.295731
0.25302
-0.455195
-0.111567
0.566762
0.285294
-0.810141
-0.299253
0.290355
0.00889834
0.180007
-0.0765592
-0.103447
-0.0428569
-0.0753874
-0.0683685
0.65118
-0.582812
-0.126291
1.05185
0.769878
-0.62037
-0.149508
0.619237
-0.543122
-0.527745
0.163554
0.364191
0.0584801
-0.462576
-0.165801
0.127787
0.0380144
0.0562998
0.129733
0.137185
0.735629
-0.872814
0.203792
0.182597
0.119356
-0.852742
-0.41991
0.172563
0.247347
-0.312028
-0.23969
0.551717
0.468661
-0.222603
-0.841883
0.556165
0.301343
-0.247213
-0.0541294
-0.47783
0.779126
-0.301296
-0.432816
0.440427
-0.425136
0.55015
-0.125014
-0.620408
0.882234
-0.261826
-0.020765
0.193656
-0.172891
0.0373077
-0.047571
-0.311878
-0.622135
0.936202
-0.314067
-0.544753
0.673771
0.504644
-0.507718
0.00307328
0.0290146
-0.204975
0.17596
-1.16124
0.839241
0.322004
-0.0350343
0.0822268
-0.0471926
-0.0192947
0.625974
-0.913911
0.732969
-0.389231
-0.370145
-0.532703
-0.696087
0.699235
0.494307
0.00466201
0.378503
0.144503
-0.523006
-0.319156
0.296452
0.0227036
0.297607
-0.252291
-0.0453159
0.0822077
-0.40964
0.327432
-0.215555
0.513505
-0.29795
-0.756785
-0.22504
0.981826
0.175398
-0.146383
0.598575
0.131396
-0.861487
0.672906
0.188581
0.404465
-0.235489
-0.168976
0.00321039
0.168165
-0.218371
0.050206
-0.654482
-0.375814
0.458022
0.127398
0.190126
-0.147
0.300657
-0.101909
0.147841
-0.514995
0.0309674
0.266858
-0.274886
0.265682
0.00920442
-0.579094
-0.449152
1.02825
-0.0696083
-0.385586
-0.512907
-0.0818571
0.594764
0.130522
0.172377
-0.302898
-0.00260345
1.13039
-0.738597
-0.39179
0.168676
0.651281
0.0618952
0.427542
-0.409542
-0.0179993
-0.30733
0.81015
-0.50282
-0.573989
-0.228126
0.802115
-0.440919
0.179292
-0.410062
-0.117682
0.932487
-0.434957
-0.497529
-0.101555
-0.0811715
0.182727
0.382454
0.0515897
-0.434044
-0.158088
0.183448
0.15335
-0.0794438
-0.0739057
0.193824
-0.0227123
-0.201248
-0.00680082
0.507324
0.425162
-0.458804
0.837688
-0.33747
0.946678
-0.170182
0.0686271
-0.845298
0.271309
0.711942
-0.62422
-0.0982668
-0.612116
0.116335
0.204987
-0.607608
0.700999
-0.706571
0.814369
-0.0165921
-0.187527
-0.104956
-0.282644
-0.0765074
0.359151
-0.285799
-0.0302586
0.718962
0.140698
-0.85966
0.0316295
-0.248467
0.216837
0.00830138
0.297274
-0.889465
0.59219
0.868035
-0.0590606
-0.89994
0.942087
-0.0421469
0.208912
-0.124695
-1.05544
-0.105802
-0.337218
0.853916
-0.0282799
0.326071
1.12266
-0.420521
-0.702134
-0.614748
-0.055732
0.67048
0.146282
0.517958
-0.664241
-0.685056
0.0312286
-0.168299
-0.145874
0.314173
-0.465145
0.599673
0.136081
0.510874
-0.646955
-0.539366
0.27786
0.261506
-0.931476
0.0890364
0.842439
0.235727
0.497242
-0.219932
0.542294
0.255895
-0.298382
-0.135323
0.738328
-0.868236
-0.126721
-0.351252
0.477973
-0.355917
0.0625318
0.668048
0.0422327
-0.710281
0.62761
-0.96508
0.0130564
-0.0426742
-0.590887
0.862396
-0.271508
-0.609556
0.404022
-0.0129748
0.263769
-0.250795
-0.0776325
-0.133684
0.211317
0.280895
-0.108637
-0.238023
0.579173
-0.0173197
-0.210717
-0.142785
0.154659
0.287814
-0.233891
-0.0544575
0.0161727
-0.173814
0.167695
0.0061187
0.191813
-0.214385
0.0225722
-0.704992
0.5354
0.114326
-0.627232
-0.0107994
-0.256668
0.0265696
0.536751
-0.563321
0.308058
-0.327519
0.252086
-0.801118
0.549032
-0.318476
0.662131
-0.343655
0.230736
-0.941884
0.0391276
-0.0256082
-0.922741
0.46955
0.699669
-0.737925
-0.103958
-0.649938
-0.236242
-0.393527
0.170212
0.262259
0.0763703
-0.338629
1.13938
-0.571358
0.902601
-0.220435
-0.222494
-0.14411
0.366604
-1.06686
0.429315
0.637545
0.0874303
-0.207782
-0.0578904
0.630664
0.148671
-0.0870976
-0.496039
0.184958
-0.254548
-0.149426
0.181458
-0.0320315
-0.107532
0.826494
0.192021
-0.101952
-0.0900692
0.822974
-1.28053
0.588152
0.692382
0.228592
0.187885
-0.416478
0.591667
-0.222289
-0.369379
-0.502334
0.25922
-0.402791
0.0086746
0.37378
0.88598
-0.97167
0.384572
-0.169986
-0.390427
0.67572
-0.960151
0.684436
0.275715
0.421684
-0.772029
0.350345
-0.686724
0.722853
-0.0361289
0.41717
-0.523914
0.0130768
0.227687
0.247715
0.0626619
-0.653585
0.198515
-0.899075
0.426212
0.472863
0.240358
-0.855106
0.736778
-0.0460399
-0.56972
0.133632
0.178429
1.01124
-0.333289
-0.677951
-0.391142
0.25556
-0.567588
0.140192
-0.949073
0.893341
-0.74691
0.367148
0.467407
-0.861759
0.409571
0.452187
-0.872015
0.587915
0.2841
-0.265958
-0.0855429
0.116182
-0.987639
0.689688
0.297951
0.608237
-1.00765
-0.844877
-0.0131973
1.08717
-0.405857
0.320375
0.111501
-0.431876
-0.0197517
-0.123936
0.143687
-0.0799647
0.483721
0.526037
-0.393417
-0.468342
0.173355
0.173273
0.225106
0.335889
-0.560994
0.354436
-0.211362
-0.0478832
-1.06392
1.1118
-0.319414
0.412782
-0.779649
-0.560662
-0.397136
0.957798
0.236374
-0.298941
-0.649649
0.203052
0.446597
0.00304502
0.00651569
-0.00956071
0.772834
-0.885397
0.142537
-0.733424
0.449597
0.309782
-0.759379
0.136091
0.185438
-0.786774
0.215287
0.571487
-0.897187
0.311911
0.506393
-0.813723
0.409864
-0.536585
0.00114746
0.00189756
-0.0368789
0.972895
-0.588932
0.727981
-0.139048
0.925358
0.000204359
-0.925562
-0.692477
-0.00923778
-0.209208
0.062825
0.665104
0.108398
0.0278248
0.603463
-0.234628
0.657679
0.486272
0.0849553
0.212651
-0.834209
-0.0571424
-0.854614
0.394374
-0.73184
0.161111
0.176104
-0.337215
0.822963
0.0489792
-0.871943
-0.0938267
0.0882892
-0.320515
-0.705235
-0.756222
-0.108073
-0.359547
0.987156
-0.319418
0.430402
-0.110984
-0.846305
0.267211
-0.259822
0.484928
-0.381265
-0.61744
-0.294466
-0.304654
0.334874
-0.440344
-0.0408147
0.980581
-0.126665
0.516587
-0.171875
-0.344711
0.0831915
0.0680331
0.234097
0.984724
-0.938891
0.00586506
-0.207798
0.297013
-0.472262
0.488859
-0.423138
-0.482572
0.197604
0.163592
-0.361196
-0.763803
0.0358739
-0.108172
0.729281
-0.62111
-0.0843896
-0.81555
-0.677055
0.777872
1.25869
-0.539494
-0.719192
-0.129656
0.317245
0.796237
-0.430347
-0.36589
0.242155
-0.264867
0.0605519
-0.0346112
-0.20021
0.0498878
0.150322
-0.131869
0.510372
-0.416866
1.0251
-0.0303455
-0.129558
-0.257249
-0.0681296
0.325379
-0.011798
0.784632
0.119072
0.234111
-0.353183
-0.356629
0.535735
0.4054
0.400363
-0.321105
-0.0988047
0.482854
-0.172986
-0.309868
-0.0470163
0.0356646
0.0113517
0.110724
-0.761032
0.650307
-0.879225
0.123003
0.20073
-0.357804
0.752177
-0.00554396
0.247699
0.106188
-0.425606
-0.973517
0.489581
-0.963671
0.321563
-0.41707
0.034184
-0.399446
-0.547003
0.946448
-0.93668
-0.0826291
0.28349
-0.200861
0.886422
-0.657795
0.723176
-0.576894
0.149548
0.497217
-0.646766
0.203783
-0.372083
-0.691079
-0.208209
0.899288
-0.111338
0.280121
-0.168784
-0.403916
0.868456
-0.46454
0.781661
-0.490979
-0.290683
0.76239
0.0220307
-0.784421
-0.522125
-0.758409
-0.302519
-0.00375451
0.342128
0.616433
-0.0129147
0.0791868
-0.0662721
-0.641403
-0.14537
0.665986
0.57806
-0.502824
0.594886
-0.092062
-0.103343
0.0383326
0.0686148
0.35744
-0.426055
0.078697
0.113324
-0.111247
-0.876391
-0.816608
0.303879
-0.00253662
-0.133136
0.272986
0.0702473
0.69554
-0.765787
-0.479514
-0.120483
0.585314
0.211033
0.0633433
-0.213216
-0.196344
-0.0223778
0.218721
0.0937391
-0.34097
0.247231
0.304315
0.307305
0.174295
0.773745
-0.352476
0.855173
-0.442391
-0.100819
-0.229965
0.330784
0.708617
0.0716686
0.030269
-0.625978
0.428586
0.447076
-0.458874
-0.495478
-0.44522
0.940698
-0.599732
-0.467128
-0.986809
1.0242
-0.037387
-0.0453727
-0.363266
0.286758
0.524682
0.249063
0.0375866
-0.235539
0.197953
-0.306697
-0.615581
-0.129135
-0.722334
0.851469
0.431198
-0.229044
-0.356395
0.0571418
0.548356
-0.868871
0.441122
-0.343405
-0.310419
0.979724
-0.669305
0.47535
0.480141
0.273011
-0.753153
1.02754
-0.618698
-0.408842
-0.357395
-0.697522
1.1163
-0.418778
0.158904
0.357682
-0.258675
0.253131
0.398831
0.762331
-0.186305
0.166553
0.0258823
-0.0304244
0.902886
-0.500796
0.431968
0.707416
-0.369529
0.189418
0.180111
0.216176
-0.452184
0.711745
-0.0436972
0.536227
-0.215851
-0.653375
-0.0885859
0.741961
0.166393
-0.0308461
-0.135547
0.118788
0.0917558
0.130687
-0.888831
-0.255764
0.276101
0.653166
-0.572968
-0.080198
0.142261
0.340593
-0.129714
0.0688564
0.218172
0.221028
-0.4392
-0.475322
0.904349
0.253152
-0.524286
1.11283
-0.588545
-0.271745
0.407984
-0.335122
-0.204244
1.04755
-0.500421
-0.324122
0.221295
0.370372
0.269224
-0.280024
-0.138662
0.117897
-0.269456
-0.120122
-0.00286766
0.599731
-0.134729
0.760625
-0.625896
0.023632
-0.017849
-0.330982
0.0836972
-0.285233
-0.0172858
-0.846502
0.590464
0.209288
0.219742
0.0535421
-0.296427
0.242885
0.27106
0.0455601
0.785751
0.4275
-1.21325
-0.0820256
-0.0185501
0.100576
-0.325706
-0.422786
0.820105
0.438581
0.735119
-0.664872
-1.12348
0.131552
0.0135356
-0.162254
0.427957
0.726734
0.15643
-0.883164
0.333634
-0.0255762
-0.0308383
-0.2944
-0.0751288
-0.4961
-0.446548
0.505028
0.0131447
0.68691
0.537632
-0.539666
0.00203346
0.160277
0.00741822
-0.060681
0.221773
-0.0299605
0.694892
0.177696
-0.872588
-0.329131
0.179705
-0.200467
0.122892
0.0775753
-0.308516
0.0037107
0.304806
0.358893
0.477087
-0.83598
0.211388
0.257274
0.645806
-0.0145921
-0.235
0.503582
-0.738211
-0.0425064
0.0570087
-0.0145023
-0.918029
0.512827
0.777824
-0.623004
-0.15482
0.0113764
-0.115243
0.103866
0.788182
-0.85655
0.524797
-0.093599
0.273909
0.449267
-0.107554
-0.0125678
-0.0323873
-0.0237569
0.0561442
-0.553589
-0.101801
0.998269
-0.509914
-0.488355
0.557487
-0.011797
-0.54569
0.367323
-0.639168
0.271846
0.0232462
0.471885
-0.00926734
-0.191049
0.573913
-0.382864
-0.0308634
-0.00152389
-0.276173
-0.206735
0.104783
0.675704
0.000974914
-0.676679
-0.313068
-0.255094
-0.0197918
0.0101865
-0.00578755
0.426537
0.435859
-0.130262
0.15995
0.00132717
0.0566529
-0.131917
0.134168
-0.351986
0.501534
0.012946
0.192929
-0.238334
-0.294713
0.70339
-0.0342233
0.571856
-0.122273
-0.0949403
-0.218738
0.436909
-0.193317
0.807154
-0.613837
-0.744105
-0.0995323
-0.44829
0.780476
-0.332186
-0.113582
-0.0931528
0.275969
-0.0584466
-0.019579
-0.206491
0.22607
-0.753795
0.253374
0.0890098
-0.106398
0.446044
-1.11276
0.305911
-0.87329
-0.216453
0.694926
-0.326126
0.451039
-0.230011
0.0129398
-0.594066
0.70479
0.00140284
-0.129748
0.131421
-0.487223
-0.0836501
-0.549542
0.633192
0.21741
0.337888
1.14885
-0.750521
-0.398329
-0.195923
0.0569316
0.179688
0.019649
-0.199337
-0.721352
0.13242
0.153366
0.0266407
-0.00559992
-0.103038
0.108638
0.375263
-0.823553
0.0755963
0.406365
0.0202246
-0.42659
-0.893075
0.699758
0.118112
0.0328612
-0.150973
0.299557
-0.921692
-0.118318
-0.00189871
0.120217
0.151275
-0.0331635
0.000614892
0.64589
-0.495131
0.541481
0.438532
-0.227144
-0.798571
0.23791
-0.608414
0.48611
0.122304
0.435075
-0.930554
-0.43509
-0.27197
0.70706
0.076234
0.343554
-0.261831
0.214601
1.01553
-0.132252
-0.883278
-0.00326077
-0.830949
0.696492
0.0658988
0.376814
0.419422
-0.133052
-0.00334302
0.117356
-0.255336
-0.287848
0.0544002
-0.0666798
0.0122796
0.021715
-0.684123
0.662408
-0.0398465
0.237461
-0.197615
0.293398
-0.813447
0.52005
-0.095999
-0.484663
-0.0288661
0.0250052
0.60377
-0.293011
-0.172213
0.465224
-0.310794
-0.365839
0.385835
-0.222242
0.051699
-0.223952
0.172253
-0.270889
0.324431
-0.820214
-0.120368
-0.0183779
0.138745
0.101122
0.273943
-0.375064
0.711051
-0.761281
0.0502309
0.0190834
-0.487958
0.139318
-1.07239
-0.436093
-0.593437
1.02953
-0.847232
0.0364309
0.810801
-1.16865
-0.703058
0.0163341
-0.229271
0.23713
-0.00785929
-0.989771
-0.315322
1.01021
0.324113
-0.170961
0.0689689
-0.287707
-0.150198
0.407472
0.123901
0.0684506
-0.3257
0.012688
-0.098323
0.085635
-0.206227
0.0729193
-0.0666432
0.0780197
-0.225251
0.453843
-0.912966
0.58599
0.326975
-0.304435
0.359346
0.538976
0.167172
-0.00077894
-0.219089
0.256676
-0.421351
-0.228298
-0.470433
0.171516
0.298916
0.0961977
-0.0149296
-0.0812681
-0.342255
0.435994
-0.0581833
0.626942
0.598148
-0.479076
0.489206
-0.8
0.382881
-0.514172
0.131291
0.0832048
2.04742e-05
-0.28024
0.0113271
-0.940753
0.541307
-0.0174599
0.574947
0.0134134
-0.162278
0.148865
-1.26145
0.517896
-0.145757
0.158273
-0.162072
-0.0149624
-0.186323
0.201285
-0.483098
0.190087
-0.953361
0.842114
0.843724
-0.394127
-0.147087
0.131541
0.0155455
0.197338
0.150649
-0.123918
-0.97754
0.36681
0.61073
-0.11458
0.09603
-0.0570894
0.232385
-0.175295
0.328801
0.195996
0.0262941
-0.0162274
-0.0100667
-0.217498
0.230444
-0.00279617
0.114881
0.51999