/*--------------------------------*- C++ -*----------------------------------*\
| =========                 |                                                 |
| \\      /  F ield         | OpenFOAM: The Open Source CFD Toolbox           |
|  \\    /   O peration     | Version:  2306                                  |
|   \\  /    A nd           | Website:  www.openfoam.com                      |
|    \\/     M anipulation  |                                                 |
\*---------------------------------------------------------------------------*/
FoamFile
{
    version     2.0;
    format      ascii;
    arch        "LSB;label=32;scalar=64";
    class       volVectorField;
    location    "1.8";
    object      U;
}
// * * * * * * * * * * * * * * * * * * * * * * * * * * * * * * * * * * * * * //

dimensions      [0 1 -1 0 0 0 0];

internalField   nonuniform List<vector> 
13486
(
(5.50501 -0.581246 1.9008e-20)
(6.52579 1.2327 8.7504e-21)
(10.4678 0.215218 0)
(-4.14494 0.917624 -1.68565e-20)
(8.81909 -2.00968 6.58732e-21)
(9.87776 0.760967 6.7488e-22)
(9.88583 -1.71076 1.40559e-22)
(7.48111 -2.70735 -1.04241e-20)
(7.43032 -1.49781 0)
(7.89841 3.07928 0)
(-5.24497 10.7977 -5.93351e-20)
(9.94693 -0.392511 0)
(4.91054 -1.49964 -1.89882e-20)
(9.67298 3.2871 6.05419e-22)
(9.3433 -1.44313 3.35663e-21)
(7.72974 3.21086 -5.58823e-21)
(3.00391 -1.20208 2.72185e-20)
(3.4994 -1.86101 3.26143e-21)
(9.05695 -0.0998208 8.53117e-23)
(6.13355 -0.0664304 -1.90039e-20)
(-3.152 -1.49742 -5.34671e-21)
(4.97067 -1.54011 2.44623e-20)
(6.62352 1.19335 -7.0097e-21)
(13.7774 -4.4779 0)
(8.21395 2.54913 1.79414e-21)
(13.3679 -4.41997 -1.06299e-20)
(-3.1119 4.21968 3.48786e-20)
(11.0377 -0.695338 2.01851e-20)
(7.9788 0.344467 0)
(10.3028 -1.8661 -1.40947e-20)
(-1.93059 -3.57584 -2.73196e-21)
(9.63937 -1.08627 -4.38553e-21)
(13.3097 -0.711727 1.83136e-20)
(9.12946 -0.627888 0)
(7.48452 -2.58584 0)
(7.32724 0.0445022 6.53361e-23)
(6.74619 0.760408 -1.25308e-21)
(5.924 -2.74382 1.001e-20)
(6.73835 -0.611804 -6.51274e-22)
(7.57208 -0.903082 9.60536e-21)
(9.18288 -3.11893 0)
(4.17485 -1.95355 -2.24745e-20)
(8.42011 0.000662056 0)
(8.20864 2.12327 -8.83338e-21)
(8.23569 2.14759 3.57132e-21)
(9.9683 -0.410667 2.78299e-21)
(-2.35931 7.87352 5.59005e-20)
(7.90257 0.348256 3.65606e-24)
(6.76229 0.735778 9.5135e-22)
(11.2558 0.151009 8.27534e-21)
(7.96704 0.10865 1.07149e-20)
(6.98135 -0.180649 0)
(10.0363 -0.718832 -3.92599e-21)
(6.13009 -2.13204 -1.4423e-20)
(3.65611 -2.51431 0)
(8.72953 -2.04946 -4.37039e-21)
(8.75413 1.72475 2.56968e-22)
(7.00565 -0.368606 -2.66083e-21)
(13.2491 -0.611502 2.13006e-20)
(6.14984 1.38064 0)
(-5.54434 10.1329 -8.17898e-20)
(6.19384 1.42925 0)
(16.5089 4.30307 -1.74504e-20)
(-3.12517 -1.45568 -5.3387e-23)
(7.28683 -9.24308 0)
(6.64052 0.914835 -6.41732e-22)
(-4.96227 1.37012 -2.04672e-20)
(5.59123 0.284547 6.31395e-21)
(7.43984 -1.57822 -5.5558e-21)
(6.98762 0.0676615 6.3241e-22)
(-5.19796 1.60211 2.3633e-20)
(3.66115 -2.30985 1.19755e-22)
(7.63398 -0.412316 7.10882e-21)
(-1.08684 -4.98012 -1.81905e-20)
(6.71243 1.21659 -1.45994e-22)
(8.85166 1.6446 -5.23533e-23)
(6.83413 1.1671 3.57518e-22)
(9.36037 -1.50997 -1.37201e-21)
(-3.14036 10.36 -3.0551e-20)
(7.04646 -2.00758 0)
(7.7674 0.0822897 5.6527e-24)
(6.44554 1.61141 -5.63697e-22)
(12.6024 4.14605 1.55278e-21)
(10.6525 0.11522 -8.98646e-23)
(5.45537 -0.637474 -3.70314e-20)
(5.66145 7.00998 0)
(6.17829 -1.20892 -8.53964e-22)
(7.99404 0.212884 -1.62135e-20)
(7.38323 0.906349 -7.23714e-21)
(7.05978 4.19733 -6.10291e-21)
(9.86504 -1.04724 -2.51693e-21)
(7.91187 -2.29795 -5.40465e-21)
(5.69709 -1.15234 4.88405e-21)
(6.43828 0.428846 4.90868e-22)
(6.83894 -2.0561 2.29398e-21)
(7.89731 0.278272 -3.93647e-24)
(-4.3964 4.97298 0)
(-7.31873 1.06146 1.60415e-20)
(7.59295 -0.922465 -1.8334e-20)
(3.24306 -1.92547 -3.62853e-22)
(7.79807 0.0552439 0)
(9.57334 3.28155 1.3011e-22)
(-7.56383 0.437189 1.4545e-21)
(6.87442 -0.295889 3.12348e-21)
(5.22901 6.77188 0)
(3.10791 -1.32581 1.29588e-22)
(7.8188 0.230753 3.39388e-23)
(6.79104 -0.742546 -1.49179e-21)
(-3.22699 11.2868 3.78605e-20)
(7.54721 -3.45256 0)
(6.23244 -2.94161 0)
(9.63675 -1.27993 -3.98786e-21)
(6.17963 -2.06168 1.2311e-22)
(8.74516 0.959994 6.34716e-24)
(4.05234 -0.0318962 0)
(6.11114 -2.90148 -8.76953e-21)
(8.06371 2.6604 0)
(9.39183 -0.605928 0)
(7.63901 -0.373567 0)
(7.01202 0.634073 -5.38573e-22)
(3.85946 -1.83726 -1.42083e-21)
(-7.93983 10.5601 0)
(6.79889 -1.87233 0)
(6.71982 -0.645577 2.09068e-21)
(7.06795 -2.48086 0)
(6.96934 -0.171885 0)
(8.48391 -1.03513 2.1084e-22)
(8.70401 0.431866 3.07657e-21)
(8.45142 -0.339596 -1.97411e-21)
(7.73284 -7.44463 -7.95746e-21)
(6.94026 -0.116563 -3.29084e-22)
(-3.28226 9.15871 -1.38774e-20)
(-2.68955 -3.72232 2.58767e-20)
(-1.00019 0.848306 2.48311e-20)
(7.95209 0.0715957 -1.75503e-21)
(7.50811 1.88887 -8.08872e-21)
(3.76775 3.37338 -5.1566e-21)
(7.41655 -3.3328 0)
(7.01393 0.571887 1.59645e-22)
(7.55059 -2.15266 -3.65289e-21)
(12.5994 0.19962 -1.76657e-20)
(10.1639 -0.76026 3.28691e-21)
(9.74462 -0.837117 0)
(7.02534 -1.8707 0)
(9.0207 0.0773721 5.08642e-23)
(18.2988 1.08512 -5.241e-20)
(8.65941 -0.18389 -1.90467e-22)
(-3.44502 6.87963 0)
(11.3914 0.229399 0)
(7.98653 0.318554 0)
(8.08633 0.0545517 1.58858e-22)
(9.30579 -1.72577 0)
(7.80201 0.0579625 -5.91599e-24)
(6.1988 1.56922 -4.75544e-21)
(8.74771 1.4478 0)
(10.6294 0.239599 0)
(7.39479 -3.30786 0)
(-0.120307 0.330341 1.60419e-22)
(6.56102 -2.57615 2.08253e-20)
(8.64284 -1.04842 -1.79856e-20)
(10.8759 0.156142 4.76491e-21)
(6.59175 -2.49583 -3.12874e-20)
(9.86105 -1.1652 1.88261e-21)
(3.81072 -1.87133 9.90259e-21)
(7.03166 -0.27907 0)
(10.1455 3.31886 -2.18214e-21)
(9.29575 2.96717 9.53246e-22)
(1.41645 -0.17506 -2.32727e-20)
(8.50388 -0.31067 4.39401e-22)
(-1.27429 0.0112084 6.58687e-21)
(-2.97018 -5.23877 9.69724e-22)
(8.66317 1.30636 2.67195e-21)
(7.90883 0.288625 -1.29878e-20)
(9.06031 -0.820848 3.24423e-22)
(7.7652 0.164436 -1.12209e-23)
(-8.23917 -4.6701 0)
(9.53303 4.515 2.52624e-21)
(13.1824 0.602962 2.36126e-20)
(7.77678 0.171962 -1.7701e-20)
(9.76043 -0.7669 0)
(7.67809 -1.11182 1.95744e-20)
(8.8141 0.889279 1.77538e-23)
(9.35592 -0.825145 -1.42259e-22)
(-12.0838 6.41883 0)
(10.614 -0.19613 2.67759e-22)
(10.5161 -0.549638 -9.14175e-21)
(8.16686 0.299472 -8.11397e-24)
(9.96602 -1.22767 -4.03591e-21)
(8.99103 -3.13239 0)
(5.63251 -2.71201 -1.17482e-20)
(6.90852 0.713899 0)
(9.87037 0.281957 0)
(7.14023 -0.570033 0)
(5.3131 3.3741 -9.88722e-21)
(7.23175 -0.6955 0)
(-7.55626 11.228 -1.70856e-20)
(7.29413 -8.37227 1.79166e-20)
(11.1277 0.100714 2.6853e-21)
(5.28818 -2.58789 -4.47555e-21)
(10.0254 3.1055 -7.51348e-22)
(-1.92932 -3.43786 2.54883e-21)
(8.74731 0.530134 -9.19282e-23)
(5.88399 -2.81007 -1.15995e-20)
(8.07586 -3.35857 2.2395e-21)
(8.93761 0.01406 2.18527e-20)
(7.32784 -0.674267 -2.28372e-21)
(2.62125 -2.26073 1.13466e-21)
(7.44783 -0.129065 1.45033e-20)
(7.05299 -0.553328 0)
(10.6221 -0.0780382 0)
(10.6639 -0.699486 1.38299e-20)
(11.9273 -5.93646 1.92526e-20)
(6.22059 0.051907 1.7452e-20)
(7.60884 0.212187 4.0783e-23)
(9.87706 0.93634 -7.78285e-22)
(8.04314 -2.82259 1.52438e-21)
(10.607 -1.69019 0)
(7.14285 3.9157 1.61318e-20)
(5.92212 -1.28633 0)
(12.3061 3.86921 0)
(4.0069 -0.712779 -5.21347e-20)
(11.4108 0.324814 0)
(7.49868 -2.12926 8.58725e-21)
(10.9443 0.233098 0)
(10.1358 -0.793399 -6.14044e-22)
(5.00142 -2.27618 7.02217e-21)
(10.3234 1.66226 -1.84919e-22)
(-3.32144 -6.71774 4.5437e-21)
(7.95973 -1.8157 2.5635e-22)
(6.15743 -1.00954 2.21157e-23)
(7.71658 -1.0882 -6.27218e-21)
(7.1463 -1.93785 5.1067e-21)
(12.767 0.039475 2.214e-20)
(4.06009 -1.87824 7.6833e-21)
(-6.15083 -2.08663 0)
(4.85991 -2.35167 8.31805e-22)
(9.50456 -0.989994 6.8641e-21)
(9.91959 0.235933 -2.3209e-23)
(4.88727 -2.32675 2.28512e-20)
(9.34877 -0.576297 0)
(13.5212 -1.09636 0)
(8.03863 0.276309 1.99898e-20)
(9.04108 0.628908 0)
(4.71318 -2.32401 7.61498e-21)
(6.45374 -0.796009 -1.34726e-21)
(7.12892 0.333795 0)
(9.68159 -0.0388405 -1.3054e-21)
(11.9371 -3.24009 3.05289e-20)
(1.93292 -3.26678 4.0266e-20)
(8.0404 2.00582 0)
(-12.3351 2.7986 -1.26175e-20)
(3.93485 0.0640869 2.74868e-21)
(5.68201 -2.78182 1.12254e-20)
(6.76093 -0.757259 0)
(7.5 -1.74454 1.61082e-21)
(-8.64036 -4.51659 1.27374e-20)
(9.63525 -1.07767 3.60185e-21)
(7.92793 -2.86434 -1.92628e-21)
(0.0294598 -0.612988 -1.67982e-22)
(13.4377 -1.02536 1.57436e-20)
(7.04529 0.945924 0)
(6.40211 -0.837444 2.40303e-24)
(9.37293 -1.46542 -7.81687e-21)
(-9.38311 -2.9384 -1.59042e-20)
(8.42122 -2.77952 -6.92556e-21)
(-11.9922 6.7764 0)
(8.03825 -1.78368 -3.87767e-21)
(-2.7737 -3.30282 -4.87567e-21)
(8.10851 0.0115575 -8.31064e-21)
(4.68055 -1.44477 0)
(5.9187 3.82112 7.24913e-21)
(7.77114 0.262301 -4.80391e-21)
(10.57 -1.80006 0)
(10.1296 -0.497705 2.21237e-21)
(5.14547 -2.39211 9.3841e-21)
(11.4647 -3.18311 -1.70778e-20)
(7.53032 -1.60815 0)
(4.41164 -4.23516 0)
(6.79455 -0.878865 -1.60001e-21)
(9.12249 -0.086546 4.49596e-22)
(4.60675 -4.5484 2.76452e-21)
(8.28666 -0.762472 -7.01463e-21)
(7.72229 0.344171 1.05193e-20)
(18.1637 -3.80432 -3.25371e-20)
(-9.17636 9.868 9.33325e-20)
(-1.15377 3.84411 5.4e-20)
(12.6267 0.521955 1.88487e-20)
(8.53573 -0.439858 2.59588e-21)
(11.1149 -0.7799 8.83412e-22)
(8.03473 -0.0785934 0)
(-5.6118 -1.10229 0)
(5.37052 -0.447093 1.75315e-21)
(6.05766 -2.87176 8.77495e-21)
(7.99874 0.0862699 -1.71231e-21)
(9.38768 -0.921622 6.32477e-21)
(9.74275 -1.1519 0)
(10.3383 -0.0485831 -6.27906e-21)
(10.1425 -0.432415 -1.63438e-21)
(7.64946 0.247763 -9.63283e-21)
(9.73763 -2.22419 2.35652e-21)
(7.59529 -0.97637 -2.23275e-21)
(2.80632 -2.35173 1.44796e-22)
(8.93347 -0.0673156 -3.83142e-22)
(9.59183 -1.09292 4.18871e-21)
(6.85135 0.56209 2.48046e-22)
(7.03172 -3.40456 0)
(1.10824 -0.604304 0)
(8.78974 -0.120063 2.65364e-21)
(6.23937 -1.38746 6.89748e-22)
(6.86973 0.728035 0)
(7.97107 5.59862 -4.14271e-20)
(-3.45773 1.1358 0)
(9.10588 4.47805 -2.0115e-22)
(9.93704 -1.265 -4.05124e-21)
(8.88384 3.09456 0)
(7.55673 1.71621 -4.90641e-21)
(4.97003 -0.384117 -2.63195e-21)
(7.39071 0.910913 -6.17372e-22)
(7.34227 -0.116779 -1.5957e-20)
(8.19529 -1.87859 0)
(6.73324 0.88863 1.15166e-21)
(5.87245 -0.374382 -6.45181e-23)
(7.84829 0.182875 2.22889e-21)
(6.46479 0.589747 -9.20107e-21)
(2.27647 3.34332 9.51658e-21)
(9.9235 -1.03453 4.88198e-21)
(8.60873 -1.47179 -1.99282e-20)
(8.33474 -0.739356 0)
(10.4006 -0.370526 5.36321e-23)
(8.7289 -1.51759 -3.74414e-21)
(7.99123 0.104686 2.3488e-20)
(8.00205 -2.32172 0)
(9.67438 -1.14271 -1.17476e-21)
(5.59107 1.72519 0)
(9.61973 -1.73632 -5.77153e-21)
(7.20845 -1.97377 -6.22782e-21)
(2.96188 -1.29749 9.24601e-21)
(9.23081 -1.79332 -5.40963e-21)
(8.09602 0.798358 0)
(6.33099 -0.798349 -2.21429e-21)
(8.1177 -1.81647 4.2837e-21)
(6.55643 0.621269 8.70086e-21)
(8.7756 -1.54217 1.43548e-20)
(9.34893 -0.840055 6.56287e-21)
(-13.1538 6.93338 -5.52328e-20)
(7.91252 0.336769 -2.48484e-24)
(8.76569 -0.776564 0)
(3.79702 -1.12013 2.19096e-20)
(12.2776 3.88978 0)
(5.35453 -0.553833 1.7802e-22)
(8.72852 -0.43513 1.15861e-20)
(10.2772 -0.478018 -1.4265e-21)
(10.101 -0.502494 1.64338e-21)
(-5.67479 5.68593 -4.19691e-20)
(7.71617 0.240616 1.20367e-20)
(7.5288 0.0659594 0)
(-1.77344 -4.33763 -1.48797e-20)
(8.51471 -1.04276 -4.19484e-21)
(6.66723 -1.32484 -6.64771e-22)
(11.2201 -5.42657 1.59502e-20)
(10.4109 -0.126217 0)
(10.3111 -1.10016 3.04132e-21)
(7.06169 0.682546 1.86337e-20)
(7.81158 0.316947 1.4528e-20)
(10.3724 -1.99574 0)
(7.82404 0.0370065 -6.10648e-24)
(9.69989 -1.08448 -6.4467e-21)
(-3.73451 6.51327 7.96671e-21)
(6.14489 -0.0657125 2.42871e-21)
(8.54455 -0.900198 4.00109e-21)
(8.68362 0.0150825 -2.67311e-23)
(8.70263 -0.734947 0)
(10.0818 -0.785762 -1.99847e-21)
(-12.5203 3.67628 1.52474e-20)
(9.70114 1.85971 5.96972e-22)
(8.01329 0.103367 8.98154e-21)
(6.49498 0.0222798 0)
(5.9244 -0.639631 -2.70712e-21)
(9.99182 3.25122 0)
(12.3089 4.72699 -8.22477e-21)
(8.16872 -0.0535971 0)
(7.98895 -2.6637 -1.87353e-22)
(5.13008 -0.153343 -5.21428e-21)
(6.06275 3.19875 1.7309e-20)
(-2.6744 5.96161 -3.03992e-20)
(7.64831 -1.58869 0)
(9.1871 0.316391 -1.50839e-21)
(8.06596 0.883781 -5.19967e-21)
(7.09465 -2.68537 -1.93014e-20)
(-1.15985 -2.19271 2.71378e-22)
(6.34984 -0.0336799 -2.6314e-20)
(10.7864 -1.6087 6.92445e-21)
(8.27288 0.825223 3.49778e-21)
(5.58239 -1.69893 0)
(5.33345 1.35772 9.96882e-21)
(7.15471 0.646915 -4.03363e-22)
(-4.14094 1.24913 1.01014e-20)
(-13.1226 3.42893 -5.07599e-20)
(7.86299 -1.62807 -3.5107e-20)
(12.7137 0.542554 0)
(8.45635 -2.80604 0)
(8.11869 4.90721 0)
(8.18962 -0.320154 0)
(2.27369 -2.09654 -1.58432e-21)
(9.58863 -1.62862 0)
(5.66172 -0.834798 0)
(6.49369 0.496362 3.61145e-21)
(13.0574 0.617394 -2.4262e-20)
(8.6176 -0.696236 -9.41515e-21)
(6.6788 1.42249 3.01566e-20)
(8.01497 0.121976 -2.5845e-21)
(9.20922 6.88049 0)
(11.1575 -1.32589 0)
(7.59475 0.283526 1.02934e-20)
(7.8779 0.0714528 1.77014e-21)
(4.81774 3.73809 0)
(-12.262 6.2044 5.28845e-20)
(8.31117 -2.82745 7.76858e-21)
(-3.02727 -4.19769 0)
(9.36826 -0.564878 6.34361e-21)
(7.92623 0.219505 -1.18112e-20)
(1.46659 -0.037716 -1.499e-21)
(3.78425 -1.0718 0)
(7.95689 0.859248 9.78882e-21)
(10.5158 0.998997 0)
(9.91462 -1.16282 0)
(8.87304 0.911976 -4.28036e-22)
(7.75833 0.380253 5.50435e-21)
(-2.60544 3.79692 -4.56351e-20)
(9.17659 2.87381 6.57818e-22)
(5.18207 -1.19379 -9.30849e-21)
(8.08931 -0.315733 1.22228e-21)
(8.36104 0.878672 2.70679e-21)
(11.0282 -0.810105 4.8712e-21)
(8.64868 -2.77303 0)
(11.9728 -2.65661 1.49645e-20)
(5.16328 0.00377466 0)
(5.66335 -0.5248 1.47652e-21)
(8.98811 -0.808733 0)
(5.66439 0.320066 1.3473e-20)
(-0.200967 3.03842 -5.21122e-20)
(10.8746 -1.49727 0)
(0.158517 0.477011 1.14222e-21)
(11.2626 -1.49429 -1.53323e-20)
(7.14422 -1.50003 -1.58649e-21)
(6.94834 -0.953486 2.53075e-20)
(5.63894 3.0927 -1.06763e-20)
(5.16567 -1.14044 -2.65132e-20)
(12.8525 4.978 0)
(6.91756 0.636784 5.58063e-22)
(-12.8945 7.59761 -1.36942e-19)
(8.00796 0.915892 0)
(7.30362 0.973966 6.76388e-22)
(11.0315 0.0315049 -1.78568e-21)
(10.4773 4.60864 0)
(8.01176 0.0726041 0)
(-10.5138 4.30748 0)
(-7.469 -6.57935 5.13196e-20)
(17.4638 -5.01052 3.85402e-20)
(16.1826 0.846809 2.52898e-21)
(9.04381 4.28929 0)
(6.67883 -0.59758 1.71217e-20)
(7.7414 0.191648 2.50735e-23)
(9.18693 2.68864 -1.21788e-21)
(-3.39884 -0.378225 1.07342e-20)
(7.64789 0.723733 0)
(7.93639 0.340792 0)
(2.79498 -0.23353 -1.4496e-20)
(5.50146 -1.67341 -6.58444e-21)
(7.58319 -0.681365 0)
(6.79738 -3.18143 -8.57224e-21)
(7.95491 0.0355598 -1.53176e-23)
(7.90139 0.253081 7.5336e-24)
(3.20377 -1.35557 0)
(7.68682 -0.352566 2.62977e-21)
(7.11875 0.573998 4.26573e-22)
(10.636 0.9643 4.62297e-21)
(7.09859 -2.03982 0)
(-0.0127312 3.07512 -8.14451e-20)
(10.2079 -0.42908 1.78492e-21)
(7.98074 0.418258 2.06873e-21)
(7.32838 0.133771 2.03989e-22)
(10.355 3.24588 0)
(6.69448 1.39125 -8.00253e-21)
(12.6719 2.919 -7.0574e-21)
(6.34672 -0.870997 6.75212e-21)
(8.03533 0.241664 0)
(-1.35741 -2.07976 -2.78463e-22)
(1.75686 -0.0350446 0)
(8.06234 0.208471 -7.92538e-21)
(7.94684 0.267862 3.55754e-21)
(7.41559 0.227902 -2.01919e-21)
(-9.82983 -5.1006 0)
(10.4453 0.0422139 -4.14783e-22)
(4.26169 2.09845 2.67625e-20)
(8.60364 -2.76481 0)
(6.40313 0.422322 1.11029e-20)
(9.53987 -2.26236 -2.70922e-21)
(8.83499 0.111029 0)
(-3.03166 -3.99717 2.87208e-21)
(7.06639 -1.87362 -2.84405e-21)
(8.73358 0.0332585 0)
(0.34448 2.20094 5.01528e-20)
(7.28413 0.890585 0)
(6.72064 -3.05944 8.60048e-21)
(-12.2277 1.88783 2.91597e-20)
(8.14397 0.331916 8.69795e-24)
(9.95029 0.802789 -2.00242e-21)
(5.27323 1.3041 5.29302e-21)
(6.9296 -1.05314 -9.27507e-21)
(7.64924 -1.46092 -1.71636e-21)
(6.74386 -2.99818 8.67983e-23)
(8.50596 -0.91107 3.82889e-21)
(10.3552 3.21817 4.51908e-21)
(7.95614 -3.58022 0)
(7.97734 0.0569693 -7.96185e-21)
(-3.12325 -4.20464 -1.26177e-20)
(5.26639 0.0135001 0)
(7.26302 0.910407 -9.54974e-23)
(7.00315 0.0503805 0)
(4.74342 -1.18783 2.32041e-20)
(7.90907 -2.91896 0)
(7.66695 0.0345583 -1.34124e-22)
(8.7929 -0.39059 -6.63639e-21)
(-3.12856 -4.91808 5.34457e-21)
(-9.687 3.85231 3.69021e-20)
(10.0667 -0.154093 -5.37715e-23)
(6.85035 -3.27797 8.23466e-21)
(6.75311 -1.86669 9.2515e-21)
(5.65456 -1.18278 0)
(-9.12509 5.55058 -2.99693e-20)
(8.70985 -2.60278 -1.56828e-21)
(-10.286 7.14449 -3.58222e-20)
(7.90606 0.294207 -2.90595e-24)
(5.4694 -1.99577 0)
(8.83416 0.0849859 -3.72639e-23)
(-11.9562 6.47304 0)
(-8.12042 0.0427056 1.94442e-21)
(2.32051 -0.55802 1.85724e-21)
(-1.26057 1.45051 0)
(7.88556 -2.02814 2.70549e-21)
(7.33975 -9.05766 0)
(10.4915 4.43101 0)
(6.3949 -3.03418 -1.12968e-20)
(5.68326 1.466 8.12612e-21)
(6.46367 -2.22431 0)
(7.16762 0.763257 -5.10009e-21)
(15.4222 2.00531 5.92833e-20)
(-12.8836 4.45866 7.74086e-20)
(10.6401 5.68131 0)
(8.40866 0.000740959 0)
(-12.6384 8.31872 -6.11656e-20)
(7.32826 -0.404566 0)
(10.5243 0.0108793 0)
(-7.51387 9.98701 -2.46933e-21)
(7.96992 -1.49602 -1.27332e-20)
(6.71483 -1.54185 7.85565e-21)
(13.667 -1.50274 2.32244e-21)
(-10.4584 6.96884 6.52473e-20)
(7.94216 0.206612 4.10043e-21)
(5.79983 -1.3179 0)
(8.62761 2.10309 -1.35066e-21)
(5.45628 -0.457258 0)
(10.2047 0.0856272 0)
(7.96373 0.488661 0)
(8.87617 0.869687 -3.44334e-22)
(7.37232 -0.107646 7.38473e-21)
(8.90722 0.41954 -7.15336e-23)
(5.88322 -1.36833 0)
(-3.92289 4.29349 -3.29855e-20)
(8.01823 4.63373 1.83945e-21)
(7.091 -2.53507 8.93104e-22)
(8.56026 -0.419198 -4.16788e-21)
(11.2481 -3.05934 2.63439e-20)
(8.18998 0.0935518 -6.83003e-21)
(0.373972 2.6337 0)
(10.1377 -0.440628 0)
(5.4402 3.67669 0)
(4.66626 -1.99442 -1.70239e-20)
(1.14484 -7.73715 -5.90569e-21)
(-0.918506 -1.24365 0)
(8.75022 2.09045 0)
(10.5183 -0.814016 2.42923e-21)
(7.86071 -0.014416 -1.91754e-21)
(7.57518 2.66865 8.22061e-21)
(8.26624 -3.38224 0)
(-8.69803 9.19146 -1.65603e-20)
(9.36815 0.328353 1.06838e-22)
(5.39222 -1.54375 -1.56526e-20)
(8.87591 0.404611 -1.78763e-21)
(9.14574 2.68343 2.39842e-21)
(13.782 -8.64737 2.41988e-20)
(4.60709 -1.96709 2.93434e-20)
(7.83916 -4.09426 7.92081e-21)
(8.90235 0.843594 1.47539e-23)
(7.95672 0.0574196 -2.01363e-21)
(6.1099 -2.96458 -2.60592e-21)
(7.0951 -1.76912 1.2299e-21)
(6.40392 8.91334 -2.95966e-22)
(6.62451 -3.13486 4.46527e-21)
(10.282 -0.346488 0)
(6.34571 -1.09864 5.05822e-23)
(8.48381 0.0136898 -6.42523e-21)
(11.3686 3.5522 3.42685e-21)
(5.28939 -1.37469 -1.42737e-20)
(7.00168 -2.41944 -9.53553e-21)
(8.23126 -0.108532 1.82395e-20)
(10.0707 -0.234309 -1.0482e-20)
(6.1766 -0.638201 -1.20238e-21)
(12.5851 0.785836 -9.96107e-21)
(4.43244 -0.383203 -3.10646e-20)
(8.81578 0.0396036 -5.13725e-21)
(4.36135 -0.624654 0)
(-3.15889 -5.66421 -1.96794e-20)
(8.2824 0.0546143 1.74313e-20)
(7.05084 0.0121605 1.17893e-23)
(-1.21352 -4.55641 0)
(7.21078 -3.30414 0)
(8.10538 1.88624 7.16899e-21)
(3.85315 -0.336549 1.92563e-20)
(7.55274 -11.7045 -3.76485e-20)
(8.10136 -2.65311 -4.82781e-21)
(8.67507 -1.5061 1.09277e-20)
(12.5453 3.79411 0)
(8.12014 2.04223 3.88809e-21)
(3.15047 -1.96498 -1.07384e-22)
(9.74778 4.33284 2.79575e-21)
(7.5997 -1.01347 -1.106e-20)
(-9.96196 6.22566 -1.0606e-19)
(10.9422 -3.03138 -2.52503e-20)
(12.3198 -2.90562 8.44134e-21)
(8.78611 5.00495 0)
(8.73364 -1.71651 -3.00624e-21)
(7.44943 0.152677 1.85465e-21)
(7.76474 0.115379 -1.74604e-23)
(3.77125 -1.80617 2.72195e-20)
(7.58202 -1.02725 1.66575e-20)
(5.51885 0.229125 7.7988e-21)
(-13.2595 3.9351 -4.33107e-20)
(9.81212 -0.620107 -6.95962e-21)
(8.57457 0.136503 4.59177e-21)
(-8.42541 10.2807 -1.15106e-20)
(9.39516 4.27791 -1.99178e-21)
(2.93249 -1.31042 -5.44938e-20)
(5.01079 -2.40561 -9.01009e-21)
(7.81689 0.0812539 0)
(8.82203 1.47959 6.92653e-23)
(-11.064 5.23729 -4.49296e-20)
(5.09537 -0.249631 2.79216e-20)
(8.32107 0.253328 0)
(8.36342 -1.22371 2.30553e-21)
(4.42303 -1.6645 6.64536e-21)
(7.98679 0.180862 -1.74641e-20)
(-12.4039 6.24076 -5.03476e-20)
(6.43823 -2.16994 -5.98577e-22)
(8.66726 -0.739656 6.44983e-21)
(9.09728 0.350615 2.0986e-21)
(6.80433 -3.10212 -1.19178e-20)
(9.02021 0.659716 8.80341e-23)
(1.4146 -8.34558 -2.38322e-20)
(8.60353 0.0345873 6.02576e-21)
(8.05186 -0.2599 -5.26665e-21)
(8.52549 0.533712 -1.63354e-22)
(9.14816 -0.0756129 -1.12269e-20)
(4.25156 -1.73714 -1.28343e-20)
(8.92126 0.815279 0)
(-7.45854 -5.77902 2.74252e-20)
(8.29085 0.105197 1.31774e-21)
(2.99637 -0.380289 -1.68151e-21)
(10.0434 0.245981 -1.50324e-21)
(8.47105 -1.53526 -6.76521e-21)
(8.0444 0.0957795 -1.34912e-20)
(8.35966 1.42593 2.10064e-21)
(-11.6515 6.2135 -5.43598e-20)
(10.6183 0.063699 0)
(6.10644 -0.639156 1.38614e-21)
(10.3719 -0.457205 1.46208e-21)
(5.5104 -1.94476 0)
(8.52948 0.448486 3.62652e-21)
(10.3296 -0.393006 1.54866e-21)
(10.5305 0.112743 6.11194e-26)
(9.64717 -3.54721 -7.41273e-22)
(7.47791 -0.642492 0)
(7.00444 1.64409 1.47289e-20)
(8.77052 3.81732 -5.71501e-21)
(6.47893 -3.04684 9.69112e-21)
(7.8375 -0.737079 0)
(5.64472 1.47847 -2.35424e-20)
(4.15854 -1.62959 -1.42895e-21)
(9.74109 6.09493 -8.74775e-21)
(4.48708 -0.433269 3.03943e-20)
(8.65059 0.030878 1.76815e-22)
(-10.3047 4.23655 3.18254e-20)
(7.57879 -0.340692 -1.14882e-20)
(12.2045 -2.10676 -2.08351e-20)
(7.03503 0.666618 -1.07389e-20)
(8.67631 0.0628948 0)
(7.9751 0.0699934 -7.63224e-21)
(-1.52199 -0.4906 7.265e-21)
(-0.663835 -2.64429 0)
(12.4529 -5.58606 0)
(7.77582 0.105801 0)
(4.7691 -1.00752 0)
(8.14123 1.39341 0)
(4.18608 -0.339622 0)
(8.34948 -2.8312 -2.18793e-22)
(17.2407 -0.612908 -2.94813e-20)
(10.4398 1.79353 0)
(7.02322 1.59689 2.19699e-20)
(4.90186 -1.63905 1.22695e-21)
(8.27166 0.938403 2.07624e-22)
(-10.5034 7.31313 -2.19322e-20)
(4.21541 0.50663 -6.3583e-23)
(-12.2996 6.37694 4.42087e-20)
(8.44943 -0.0250645 -4.21632e-21)
(11.2572 0.0772163 1.17324e-21)
(8.07847 1.30094 -4.94539e-21)
(7.49397 0.845903 -1.44504e-20)
(7.80955 4.3222 -5.18532e-21)
(12.8893 5.12284 0)
(-2.37757 -1.66372 1.08177e-21)
(4.80951 -1.27507 -2.54063e-20)
(8.08873 0.0367816 -2.31192e-20)
(8.82522 -2.57683 -9.21477e-21)
(8.6808 -0.0434177 1.82515e-21)
(10.3361 -2.50576 8.24159e-22)
(8.2037 -1.2089 -1.44101e-21)
(7.935 -1.98566 -9.38945e-21)
(8.00338 0.784219 5.38946e-21)
(8.01477 5.84786 0)
(7.56296 -1.28895 -1.57786e-21)
(6.53415 0.402156 -3.32718e-21)
(9.60904 -1.52178 0)
(6.8778 -0.786334 0)
(7.14876 -3.24265 -7.87143e-23)
(-9.85357 3.30877 3.23951e-20)
(8.24598 -2.89422 -8.03962e-21)
(6.73845 -0.0490492 0)
(7.49132 -0.170095 -1.5062e-20)
(7.16619 0.927367 -2.80046e-21)
(-6.86198 -4.64358 1.3214e-20)
(10.5844 -0.227058 4.5313e-22)
(-12.2024 6.24105 0)
(-2.59135 -1.31016 1.64691e-21)
(10.4114 -0.331223 0)
(8.61903 -1.8219 3.21769e-21)
(9.94081 -1.05691 -2.42169e-21)
(8.04037 0.0888335 -2.41165e-23)
(9.31291 3.00635 -1.6814e-21)
(10.5182 5.14398 -1.02077e-21)
(6.5444 -1.7969 1.91568e-20)
(0.295875 -2.9732 0)
(6.24584 -7.49356 -1.41738e-20)
(5.46529 -2.78967 0)
(10.734 1.81601 -1.77398e-21)
(-6.83196 -4.26766 2.16877e-20)
(12.6323 -5.51274 2.26915e-20)
(6.25274 -0.646775 -1.33291e-21)
(-7.92286 -3.11116 -9.57098e-20)
(5.83694 -2.73274 -1.11929e-20)
(4.98605 -1.31803 -1.47752e-20)
(7.10824 0.643873 1.46579e-22)
(6.8016 -6.81988 1.15941e-20)
(4.32617 -1.77273 1.0522e-20)
(5.19496 -1.48909 1.60117e-20)
(1.1754 -7.52677 7.38399e-21)
(7.99698 -7.51948 -8.56161e-21)
(6.89147 -2.08085 9.48149e-21)
(-2.37054 4.47419 3.63749e-20)
(9.21255 0.140341 5.06835e-23)
(5.06113 -1.88061 -1.0434e-21)
(9.3346 2.0266 -8.61837e-22)
(8.63651 -2.11544 0)
(5.15538 -0.109928 -6.51398e-20)
(8.30455 0.0108623 -7.59033e-21)
(8.03509 0.541418 0)
(10.5903 1.65443 0)
(4.80521 -5.18311 -4.47996e-21)
(13.8806 -2.61375 -2.44345e-20)
(9.8043 1.09923 2.08137e-21)
(7.96805 -1.45502 1.6736e-20)
(7.67535 4.12231 4.97626e-21)
(7.13159 -0.0885366 1.18796e-20)
(-8.19529 -3.63657 -1.79839e-21)
(7.05459 2.75094 0)
(5.31284 -1.62487 1.52647e-20)
(-2.85991 10.7875 1.11493e-20)
(-9.44128 -2.39845 7.17759e-20)
(6.54684 -2.43718 3.21865e-21)
(7.32278 -3.39501 -2.63819e-21)
(8.33956 -0.0880489 5.88984e-21)
(6.60896 -0.628187 7.2014e-22)
(10.0679 -1.80906 1.47749e-20)
(-9.22246 -4.37863 -1.91419e-20)
(9.63778 1.05716 -1.52613e-21)
(7.67743 0.202602 6.02499e-21)
(4.3336 -0.601197 -1.25044e-20)
(7.35423 -0.313726 9.41468e-21)
(5.19144 -0.583875 0)
(9.70581 1.80755 -8.84658e-22)
(7.83144 0.171144 1.33423e-21)
(5.6177 -0.996591 -4.89501e-21)
(7.77966 7.28167 2.50331e-21)
(6.79647 -2.02719 7.04366e-21)
(8.09991 0.0330764 2.60952e-21)
(5.27552 0.687525 -1.81202e-20)
(9.78913 -1.59316 0)
(6.21091 -0.514963 -2.37816e-21)
(8.90259 0.428884 2.42111e-21)
(8.37168 -0.506329 0)
(5.48819 0.253325 1.04216e-20)
(10.5046 -0.219446 0)
(6.58465 7.45192 2.83001e-21)
(9.74527 -0.182729 0)
(7.55932 -1.41552 0)
(10.0568 -0.284998 1.4055e-21)
(9.71642 0.854703 -5.1656e-22)
(12.2714 1.45289 -1.35137e-20)
(7.6161 0.636771 -6.53322e-21)
(5.9301 4.62613 -4.52836e-21)
(7.84986 0.423941 -2.50636e-21)
(8.28285 1.41395 0)
(1.70559 7.24964 -5.26226e-21)
(10.1063 0.795137 2.77904e-21)
(8.40655 -1.84916 -6.55544e-21)
(8.65884 -2.10367 0)
(11.493 3.50437 5.09122e-21)
(8.57682 6.92524 5.32115e-22)
(9.0909 0.130383 2.53441e-22)
(7.72716 -8.72633 0)
(-4.346 9.08872 7.2276e-20)
(8.14539 0.725532 0)
(10.2565 -1.54159 -7.35031e-21)
(1.24383 -2.85533 0)
(4.8247 4.51191 0)
(7.66755 -4.54358 0)
(7.75415 -2.88479 0)
(-7.06704 10.8481 -8.70244e-21)
(-5.88014 -6.99354 -1.04679e-20)
(7.29934 -0.0987532 -1.10349e-20)
(-3.81851 -4.42722 -7.85788e-21)
(4.67589 -1.88006 0)
(-2.59419 -6.78089 -7.93813e-21)
(1.62812 -3.70338 -3.99379e-20)
(6.035 -2.81117 0)
(5.54126 -1.83266 -1.64662e-20)
(6.72773 1.33015 -1.55831e-22)
(9.24491 1.91287 2.04875e-21)
(9.30254 -3.17772 2.52569e-21)
(7.37292 0.754649 0)
(8.32824 -2.65475 0)
(14.3991 2.89336 6.783e-21)
(7.07338 -1.59325 3.20342e-22)
(6.85549 0.557141 -4.82696e-22)
(4.69165 -4.86435 1.05244e-22)
(7.9903 -0.00620544 5.64567e-22)
(8.79435 1.4493 1.15751e-23)
(8.03819 0.767761 7.66646e-21)
(5.8367 -0.459987 1.23817e-21)
(7.24806 -1.93661 0)
(-4.9484 6.20256 0)
(9.0002 0.553812 0)
(7.23444 0.0944372 0)
(6.74378 -1.11903 6.87383e-21)
(11.8309 0.0696497 0)
(-6.95305 10.7862 1.29685e-19)
(12.3602 -10.215 -1.49984e-21)
(5.06001 -1.51336 -2.4181e-20)
(5.10681 -1.64642 -6.35966e-22)
(-7.40339 -6.24489 -1.598e-20)
(-3.1809 10.8752 -6.06768e-20)
(8.24127 0.125404 2.0682e-21)
(-9.82454 -2.63338 -2.53872e-20)
(5.62632 -0.34633 2.06421e-21)
(10.0901 -0.237569 0)
(9.10736 -1.45287 0)
(5.91614 -1.47241 0)
(8.47238 -1.61129 3.58406e-21)
(8.18511 -8.3882 0)
(7.17606 2.69411 0)
(8.09122 -0.0149311 0)
(6.79597 -1.53422 7.35164e-21)
(8.35927 0.883086 -7.01763e-21)
(6.79045 0.113476 0)
(8.65178 -2.82715 -7.80504e-21)
(7.86947 0.852633 -7.60587e-21)
(9.73457 4.12735 -6.05056e-21)
(6.09216 -2.78064 1.00839e-20)
(7.44847 2.98351 4.53087e-23)
(6.94673 -2.03741 -2.16313e-22)
(6.81263 -0.854376 1.5725e-21)
(7.71239 -1.80483 -3.25341e-21)
(9.57602 0.908355 8.45056e-22)
(6.96075 0.538071 -9.64603e-22)
(7.11936 0.419442 -1.05179e-20)
(8.4825 0.0423688 0)
(3.91143 -0.234652 1.22391e-21)
(7.7075 0.231658 1.07588e-20)
(3.55768 -2.08718 -1.51999e-21)
(8.16798 -1.13665 -4.20382e-21)
(3.97681 -0.420688 -2.09459e-20)
(9.69478 0.737267 -1.75635e-22)
(12.6315 3.00021 1.02094e-20)
(8.03283 0.350398 0)
(6.11448 -0.772033 7.15739e-23)
(6.71651 -0.126089 -6.30195e-22)
(7.78713 -1.7972 6.40187e-21)
(-3.5576 -0.871991 -1.22469e-20)
(7.99871 0.0594485 5.64821e-21)
(8.9997 0.790528 -1.59926e-23)
(8.53612 0.0469263 -1.42074e-22)
(8.86843 0.420141 0)
(4.51391 -1.32203 0)
(5.70225 -2.6914 1.24831e-20)
(-12.3449 5.80951 5.43858e-20)
(7.80818 0.0537541 -3.2607e-25)
(7.80147 0.228705 2.14769e-20)
(5.96551 -1.01353 -3.51261e-23)
(5.6416 1.29676 0)
(7.02199 0.491562 0)
(6.0284 -1.25654 -8.09239e-23)
(9.92534 -0.146408 2.1379e-21)
(7.69099 2.77281 1.10007e-20)
(9.68263 -0.769336 0)
(9.73929 0.115446 0)
(7.94334 -2.19951 1.33028e-20)
(7.73183 -0.652989 8.88458e-21)
(0.0200954 1.01783 -7.62336e-22)
(8.0781 -0.252381 0)
(2.55097 4.85837 7.07696e-21)
(9.55793 -3.49635 -3.47005e-21)
(-11.9578 4.57686 -5.25271e-20)
(7.83593 -0.0937667 -1.21242e-20)
(17.9498 -0.2243 0)
(14.3322 -2.20443 1.94055e-20)
(10.0015 -9.21038 -7.33217e-20)
(0.651116 0.762414 0)
(7.25734 0.13547 -6.43221e-22)
(7.59405 0.468742 -7.04073e-21)
(7.78624 0.048395 -2.75703e-25)
(10.2049 -1.12009 1.45845e-21)
(5.87332 5.91844 1.18877e-20)
(8.55277 0.0608547 0)
(3.85262 -1.20742 -1.26426e-22)
(5.93061 -0.756975 -5.37804e-23)
(11.4603 1.21623 -9.51606e-20)
(8.13094 1.32568 5.85616e-21)
(0.562421 -2.72398 6.1753e-23)
(7.93872 0.0411026 -2.66716e-20)
(5.78397 -0.36708 -5.04492e-21)
(6.51014 -0.797931 1.48297e-21)
(6.69037 -1.39931 0)
(6.90034 -0.0163445 -2.94433e-21)
(4.19674 -1.82303 8.50569e-21)
(8.7383 -0.417407 -1.27685e-20)
(7.82783 0.176876 -9.70584e-21)
(10.02 -1.50493 6.5985e-21)
(6.55815 -0.555453 2.49137e-20)
(9.13591 0.0785939 -5.12021e-23)
(7.0172 0.539036 6.05614e-21)
(7.22192 0.902483 -3.65466e-22)
(13.7282 -1.51602 -2.58069e-20)
(9.58162 4.56406 -4.65596e-21)
(8.08996 -11.0358 2.9278e-20)
(8.0905 -0.163865 0)
(6.11552 -1.37591 0)
(4.79874 -1.84865 0)
(5.07171 -1.3583 1.85929e-20)
(8.16572 0.0767721 -1.54961e-20)
(7.13606 0.97917 0)
(5.73051 -1.10358 -1.45013e-20)
(7.07626 0.865852 0)
(6.84769 -0.993462 -1.12923e-20)
(8.34381 -1.92559 -6.99086e-21)
(7.19454 -1.79326 -1.03376e-20)
(8.69131 0.0645677 0)
(7.67021 0.164544 0)
(8.42135 -0.591076 3.70967e-21)
(10.374 1.53888 1.8397e-22)
(11.0967 -0.19355 9.03587e-21)
(9.10847 7.21309 -6.533e-22)
(9.75921 -0.939798 0)
(6.56899 -2.33002 -5.33357e-21)
(-0.482721 -2.17855 0)
(2.85869 3.4255 -9.60212e-21)
(10.6788 5.10994 0)
(8.96395 0.750851 4.44191e-23)
(4.47901 -0.288634 8.06072e-21)
(5.91426 -0.401526 8.041e-21)
(8.00033 -0.249132 -3.72347e-21)
(11.7582 -9.77573 -8.43852e-20)
(7.63551 -0.727256 2.24527e-20)
(8.13191 1.41626 -2.1154e-22)
(9.54823 -2.50876 -9.60843e-22)
(7.67248 -1.63851 -5.17442e-21)
(-0.203483 0.22134 1.83104e-20)
(10.5201 2.32587 0)
(7.87621 0.15722 2.94599e-23)
(5.86358 -1.39705 0)
(6.5351 -0.70356 -1.52728e-21)
(6.65134 -2.34752 -2.77284e-21)
(6.54789 -0.383248 -8.18777e-21)
(7.76582 0.0142227 6.77977e-24)
(10.7684 0.290629 -6.35615e-21)
(6.43844 0.0494084 1.68353e-20)
(9.56393 -0.425266 -4.38394e-21)
(6.88757 0.645006 0)
(-9.59759 9.12621 0)
(10.6618 0.112837 1.18715e-22)