/*--------------------------------*- C++ -*----------------------------------*\
| =========                 |                                                 |
| \\      /  F ield         | OpenFOAM: The Open Source CFD Toolbox           |
|  \\    /   O peration     | Version:  2306                                  |
|   \\  /    A nd           | Website:  www.openfoam.com                      |
|    \\/     M anipulation  |                                                 |
\*---------------------------------------------------------------------------*/
FoamFile
{
    version     2.0;
    format      ascii;
    arch        "LSB;label=32;scalar=64";
    class       volScalarField;
    location    "9";
    object      p;
}
// * * * * * * * * * * * * * * * * * * * * * * * * * * * * * * * * * * * * * //

dimensions      [0 2 -2 0 0 0 0];

internalField   nonuniform List<scalar> 
5098
(
0.218749
0.792588
0.122312
0.876833
-3.13877
1.24877
0.465808
-1.17028
0.135438
0.77839
-6.12216
0.252429
-0.729841
1.72609
-0.828062
-0.0406795
-5.55259
-5.44518
-1.91233
-5.38177
1.52906
-0.0384139
-1.21872
2.67713
-3.42084
1.16417
1.22336
-0.131139
-1.91019
-2.06373
0.17246
2.00534
1.11894
-4.82935
0.195039
-1.36858
0.415649
0.936757
1.61114
-0.87439
0.809508
-4.92567
1.11202
0.283771
0.414108
0.858145
-5.26786
2.09017
0.137673
0.949466
0.598174
1.75924
-2.90013
0.72809
1.26292
1.71192
1.41915
0.674848
2.01727
-0.303663
0.0655212
-4.82309
0.198369
-0.518304
-2.90647
1.76745
-0.0184211
0.540763
0.233849
0.50924
1.40296
0.0162464
-0.495726
-0.316989
-0.129303
0.939673
-0.0939222
1.83009
0.444966
1.65647
-0.351147
-1.58469
1.07929
-5.10406
-5.73594
-2.26002
3.11592
-0.109412
-1.10902
0.0509806
-0.0506843
-2.61795
0.259295
0.884135
1.61677
0.458997
0.448965
1.93533
-0.105264
-0.146418
-10.171
1.15764
-4.98085
-0.0938886
1.79548
0.384686
1.35026
0.493363
2.14485
-5.92396
0.672611
-1.72252
0.913268
-2.96722
1.48026
-1.94662
-2.31049
-0.227193
-0.206829
2.62432
1.70613
1.05934
0.667411
-3.24666
-2.66977
-5.19523
0.638999
-1.08565
1.8445
-2.94992
-3.68373
1.90892
1.86145
-0.0599373
-8.05524
-2.59324
-0.0439069
1.31878
1.61141
0.69555
1.81507
-6.69666
-0.319967
0.131391
0.864467
-0.097195
0.312576
-3.18787
-0.792017
-0.838349
-6.15145
-2.76713
-3.85779
1.13324
3.11661
2.47494
0.687069
-9.48431
0.815031
-1.96249
0.243403
-0.952259
-2.66419
0.994926
-4.4163
0.247459
-3.64067
-1.5557
-3.38209
0.731852
0.381389
0.963961
0.801182
-0.0962816
0.243969
0.936455
1.03416
-1.3061
1.15843
3.05109
-0.904252
-2.21731
0.561979
-4.19092
0.955082
-0.062017
1.8873
0.388292
0.893743
-3.16433
-1.82857
0.301245
-0.603817
-0.13906
0.224485
-2.78046
-0.660977
-2.53965
0.000819857
0.663787
-3.15582
1.69455
0.431249
0.782574
0.716641
2.46539
-0.306884
1.66172
0.302043
-0.646016
0.80239
1.64751
0.0468444
0.820804
-0.914578
-1.86701
-0.16384
-6.08164
-2.57687
0.968934
-0.0526275
1.28819
-0.0637275
-0.129268
-2.89283
0.642728
2.90911
1.24632
-0.00782926
-3.45148
1.54897
2.68225
-0.858966
-0.00823145
0.215578
0.222947
1.58672
-2.75931
-1.41354
1.22526
-1.62254
0.778094
0.0113437
2.25216
1.43731
0.220905
1.65066
-5.95139
-5.63918
0.210332
0.878171
-0.243028
-1.93532
-2.88074
1.15582
-2.77551
-7.89322
1.0085
2.02679
-0.126925
-0.0869244
-2.91131
-3.26453
-0.467336
-0.0388934
-4.68067
-1.96273
-6.47591
0.636655
1.25634
-3.13221
0.384051
-1.95006
0.648256
1.96875
-4.00766
-5.4879
-6.36621
-1.68327
0.827152
-3.58464
-0.995336
-2.91312
-1.04846
-5.76422
-6.78808
1.1769
-0.0973558
0.243876
0.257831
-3.29572
-2.72585
2.331
0.446833
-0.19006
0.917777
0.0965307
0.207209
1.21339
1.10054
-0.114403
-0.300535
1.18643
1.41682
-4.64167
0.180111
-0.333252
0.951006
0.614988
-5.36574
-0.00852787
-2.05203
1.18858
-0.263418
-0.882534
3.07189
-0.0216036
-0.0658504
0.298965
2.3661
0.419118
-2.60989
-1.25416
-2.10949
-0.103094
1.67245
0.934605
1.23062
2.09873
-0.188206
0.451678
0.28838
1.61695
-1.95731
0.432188
0.559124
-0.35618
0.979819
0.484431
0.652178
-0.401947
0.5623
0.408177
1.2529
-1.87089
-0.0928791
0.621196
-2.01597
-0.240512
0.245595
-2.78063
2.60749
2.32228
-3.27894
-0.290195
-3.47938
-3.02528
0.24535
1.81464
-0.0652261
1.25962
0.116832
0.325607
-0.11665
0.242755
2.01491
1.26063
1.08656
-1.96309
-2.82397
1.87086
0.32024
-1.58062
-0.000743177
-0.0372993
-4.85458
0.59253
0.393666
-1.32663
-0.126931
0.772659
-5.32305
1.2237
-0.350331
0.152413
-0.864866
0.277024
-2.78674
0.848948
-6.12699
1.22715
0.351368
1.25508
0.694553
1.49389
-0.792927
0.997661
-2.29053
0.775348
-1.13844
-2.89903
2.36877
1.81909
1.24507
-1.94013
0.745177
0.628043
-4.34636
0.236666
-0.9515
1.24064
-2.0916
-2.87747
0.508404
-0.428393
-0.925855
1.39298
2.61356
-0.631948
0.0627353
0.705778
1.48652
0.283824
0.983176
-3.63212
-2.6465
-0.0387138
-2.50057
0.286478
-0.0979192
-0.0400066
-1.94048
-0.00387563
0.208918
-0.674893
-2.09185
0.0241867
-1.13319
1.17456
-0.495981
1.15908
0.562967
1.13443
-5.6807
1.6738
-0.416285
-1.87291
-0.772325
-1.86864
0.625176
-5.56137
0.248122
1.25071
-5.88332
-5.83569
0.166276
-4.80595
-0.376852
0.27408
-1.31262
1.06297
-0.232729
2.53379
-0.733995
0.882318
-5.70337
-2.98096
-4.07901
-4.67316
0.748095
-1.84869
-2.0861
-3.15713
-1.38674
1.21744
-1.37305
-1.90603
1.35173
-1.45841
1.03022
1.4068
0.199049
-2.68119
-0.622051
0.327614
0.323106
0.721977
-1.02376
1.05541
0.807925
-1.56053
-3.14661
0.275398
-0.529302
-2.36305
-0.00848752
1.41492
-2.13848
1.26503
1.17378
-5.34776
-1.22945
-1.95999
-6.13151
-1.95617
-2.6292
1.14292
1.028
-1.00277
0.121262
-2.58985
1.24288
1.79611
0.259636
0.928796
0.592744
2.37042
-2.91371
-0.85856
2.11989
-4.31239
-2.54637
2.31135
-0.156772
-2.05457
-0.00372917
-1.66829
-2.50065
-0.139971
-1.93815
0.325429
2.87199
-4.69771
0.474859
-8.94682
0.392862
0.993764
-0.487788
-2.8974
-5.80097
1.23475
-3.38574
-2.90372
1.18553
-5.70106
-4.76165
0.204925
-7.91362
2.98997
-1.82996
-0.537676
0.529708
0.0374779
-2.09123
-0.790864
-6.06071
-4.0318
1.24278
-5.69306
-1.16524
-6.00677
-2.09967
0.934604
-2.88107
-3.55927
-3.58631
-2.10276
-0.165417
-3.43079
-2.17636
-1.56105
-2.39167
-2.49174
1.47356
1.76364
3.06249
-3.0264
1.1375
2.10007
-10.1352
0.563436
-6.97828
0.946152
-5.74565
0.655952
-0.433468
-0.135924
1.24403
1.18578
-2.90779
-2.64601
2.4635
-0.579708
-5.00519
0.312269
0.958117
-1.17608
1.08309
-1.42964
-1.20879
-0.26259
2.23382
-1.92936
-3.31244
1.92396
-6.38966
1.69181
-3.72688
-2.92438
-2.86102
-6.72539
-2.90182
-2.34555
1.79302
-1.40712
-1.16033
1.87744
-0.890191
0.584305
0.495001
2.36754
-1.98138
1.40505
0.741631
-0.13436
-0.248171
-2.99411
-0.729965
-3.12158
0.0113369
-4.50353
-0.130454
1.89339
-3.22725
-0.0751363
0.820311
2.53784
-2.90074
1.9836
3.01494
-1.2087
0.280833
-0.914175
1.25848
2.02059
1.653
-1.81789
-0.0586622
-0.130021
-4.37524
0.329847
0.189778
0.78197
-7.8335
0.0869294
-1.1399
-5.23146
-0.882166
-0.233127
0.0560616
0.826739
0.601436
-6.47993
2.05183
1.03192
1.79128
0.598839
-4.16846
-0.725227
-0.369862
1.97578
2.52643
-1.94098
1.49162
-4.59439
-3.26197
-3.22513
0.816904
-1.8929
-1.95395
-4.66796
-6.1009
-0.46302
0.110344
-1.21047
0.215414
1.22435
-1.93775
1.16991
-0.0470756
1.17351
-2.89534
-8.99026
0.00944687
2.15478
-2.70007
-6.31228
-0.514627
-1.9881
0.671112
-3.07439
-1.39813
1.82252
-4.84111
-5.69446
-2.16402
-7.66942
-1.92095
0.913723
0.294722
2.65877
2.12044
1.76682
-3.97437
-2.84047
-1.86675
-1.96108
0.623425
-2.77294
-2.50456
-3.04683
-4.64133
1.45716
-2.83375
0.6228
-3.478
1.70974
1.22776
-3.66454
0.628566
-2.08995
2.73
-0.233729
-0.187249
-1.12153
-5.11129
-9.00733
-5.26433
-2.52437
1.70754
-1.74537
-0.956644
-2.75954
-3.02699
-0.820294
-4.82662
-0.606622
-0.295966
-0.0359209
0.706413
-4.5084
0.985697
1.80895
-3.07426
-0.879349
-3.7943
0.849922
-1.96206
0.679363
-0.93194
-4.46406
0.0418873
-2.80159
-3.77266
-3.43939
-8.46866
1.02163
0.231155
-1.79965
-1.37928
-1.121
1.22554
0.472317
-2.33629
-4.21903
2.83414
-0.581705
1.65172
-2.75449
0.990739
-2.86906
-4.87899
0.254223
-2.95156
-5.81236
1.92791
1.84073
-5.00211
0.191677
-4.86128
1.47295
-1.8921
-2.89312
-2.9017
-3.1137
-1.98545
-0.109827
0.227371
1.20302
-0.240761
0.324996
-3.30573
-0.408305
-5.11954
-2.70223
1.21167
-1.35638
1.98237
-0.793685
1.61222
1.02146
0.77236
-5.3779
0.464871
-0.565192
-0.310988
1.00573
0.728787
-0.280405
-2.3932
-2.89559
-10.5249
-5.43834
1.05218
0.0209021
0.801517
-2.87743
-2.69365
3.0166
-5.00629
0.818898
-0.0218533
1.80866
-2.32774
1.57708
-5.71707
-4.71608
2.1189
-5.12793
-1.9509
1.01016
2.24371
0.756012
0.00686164
-0.855015
-0.759848
-3.52446
-1.55028
-2.78401
0.692602
-3.78008
-2.01007
-2.9235
-0.609265
-0.00364988
-1.89192
-0.814975
-2.76546
1.11742
0.570384
0.301056
-9.45086
-2.38142
1.87546
-2.88117
-1.13911
-2.80651
0.18738
-2.8405
-2.85747
-3.06079
-0.453307
-0.223738
1.2964
-2.88906
-8.27472
-2.10576
0.0672381
0.0391888
-2.70212
0.297603
-2.90635
1.25124
-7.63839
2.43912
2.03856
-0.240492
1.29559
1.25084
1.40813
2.53382
0.99459
-3.9909
-10.278
-3.09681
-10.8285
-0.0940461
-3.29668
1.28641
-2.29393
1.47126
1.61671
0.155847
0.115451
-5.19979
-0.430505
-1.29961
-0.2611
1.93292
0.767163
0.268078
0.409569
-2.93156
-10.9369
-7.033
-2.17088
-1.15957
0.228346
0.501951
-6.65981
-2.16532
2.07452
0.583825
1.70809
1.68032
0.840833
-0.389966
-0.540525
-0.736474
-2.99608
0.846595
-0.0368467
-0.335742
1.26159
2.24603
-4.49559
-0.489707
0.531829
1.52282
-5.82733
-0.434012
-2.19506
2.6658
1.18262
-2.47913
0.0872059
0.0062193
-5.6833
1.28964
1.31608
0.266641
0.892122
-1.75616
-5.89065
0.283735
0.641949
1.90204
-0.0431071
1.6892
-3.00107
-6.29991
-2.87109
1.26901
1.67932
-1.74354
-0.859505
2.64493
0.793918
0.0889008
0.315746
2.46171
0.747716
0.535664
0.474076
1.14854
-0.581127
-0.657574
1.46555
2.91515
0.278213
-9.35064
-1.70188
-0.853911
-3.3618
1.62183
1.10146
-1.3973
0.00285646
0.923333
-0.0399455
0.462757
0.0470773
1.48515
1.52209
-1.9158
2.42588
0.854118
-1.41754
0.00698552
-0.0611415
-0.0534356
0.332786
0.752594
1.08488
0.852098
0.430897
-7.40386
-8.74962
0.947891
0.390954
1.80577
-2.13889
0.834303
0.881576
-0.101602
1.03365
1.52408
-0.0185189
0.016324
0.164674
1.35798
-1.71588
-0.809135
-0.879362
1.59417
0.322823
1.1423
2.31295
-3.59132
2.21174
2.6026
-0.932929
-1.1782
-3.85509
2.94042
-1.86888
1.1531
2.42562
0.933898
-2.91413
1.13007
0.30195
2.66072
-0.548839
0.430256
2.76965
2.04451
0.0571579
2.71233
1.82058
0.151316
-5.04745
-3.68382
0.00471683
0.0372449
0.767668
1.74561
-2.02215
-0.246954
1.21094
-0.148036
2.22137
-1.10789
2.55491
-1.95223
-4.06467
-0.308566
-1.06855
1.77107
-0.0932665
0.363846
-4.7119
1.76788
0.371564
1.35087
1.08507
-6.15575
0.295344
-0.23005
-1.21977
-0.163131
1.99615
0.629302
-0.0507771
-0.194236
-0.362704
-4.26321
1.71694
0.153787
1.1379
-0.42129
-2.643
-5.09896
0.336013
-0.024207
2.31942
-0.407123
0.392248
-4.86407
-8.93394
1.57629
2.34917
-3.81254
1.48578
0.970317
-4.54631
0.611899
-1.09059
2.88794
-1.23347
-1.17428
1.12057
-7.62987
1.90281
-2.98823
-3.35398
-0.0553061
-2.5438
-2.87816
-2.43385
0.656883
-0.247333
-2.90107
0.00269984
0.579722
-1.07441
1.28666
2.05377
1.25877
1.33192
-5.82805
-5.85524
0.12404
0.492367
-1.96273
0.00750066
-0.0557291
0.000479721
0.677933
1.56109
0.875148
0.968551
1.16753
-0.923821
-0.548825
-2.18893
0.163051
-1.62382
2.6551
1.22451
0.918994
-5.64923
-0.760374
0.434348
-0.196579
-5.4329
-1.90008
-0.651263
-0.985959
0.686204
-1.99192
-0.178952
0.747194
-2.90131
0.26514
2.02419
-1.09277
-1.1055
-0.234087
1.37601
-6.96241
0.289832
-10.8588
-0.00649699
-5.40782
-5.55122
1.00486
-3.51477
-0.67802
-0.610047
-4.15692
-6.59121
-2.33453
1.32218
0.225091
-4.68895
1.95817
-2.95606
1.13655
0.13829
-1.91112
-0.672754
-1.78346
-3.12657
0.226149
1.24671
0.979842
0.349289
-2.94169
1.72583
-6.07187
-1.18795
0.00697593
-3.31289
-0.174144
0.0255046
1.57246
-3.00342
-1.97214
-9.71026
1.15824
1.28065
-4.82055
0.363797
-0.0414123
-0.208771
0.211232
0.294583
-0.142148
-3.50899
-4.79807
2.13793
0.220496
-0.0461263
-0.364081
0.00293283
1.28094
-4.20022
-0.690749
-7.37921
1.17842
-0.138495
-0.0269916
0.258687
0.0013248
0.539266
0.308887
1.04459
-0.28401
-2.13013
0.328732
1.44744
-0.122536
0.98864
0.995343
1.38927
1.284
0.787455
0.997079
2.43631
0.417982
-1.09159
-0.474926
-3.54888
0.278326
-0.522544
0.90541
0.335884
2.38254
-0.0204698
0.228835
-6.97586
0.0397398
-5.56352
-0.353866
-3.09228
0.544438
-6.57416
0.688278
1.0564
1.32372
-3.1987
1.47986
-2.97666
0.77226
1.33721
0.836886
-5.53607
-1.59861
-5.07585
0.71037
-5.25812
-1.98279
0.942912
-0.59074
-0.0657738
1.06066
1.73424
-0.777795
1.99128
-0.382638
-2.50227
-1.60637
-0.842928
-0.0833258
-0.558973
-2.54933
2.19286
-0.00132726
0.892345
-2.27449
-7.11502
1.66363
1.59055
0.00615078
-0.137909
1.32963
-2.4503
-0.0891613
1.22474
-0.576822
-0.648224
-0.875337
-0.471419
2.25675
-2.93954
1.18955
-0.159322
-0.271163
2.65933
0.587934
0.0579243
1.36907
-10.4922
1.01409
1.16801
0.399654
1.2477
0.0391265
1.16857
1.34921
-0.223395
1.44567
-3.22689
-1.54165
0.00228139
-2.03126
1.97635
-2.902
-2.41406
0.399378
-0.268641
-0.664701
-3.00881
0.679979
0.168034
0.979956
0.871916
-0.497602
-2.8951
0.106161
-9.22586
1.47466
-1.22942
-2.89519
-1.56552
-6.18324
1.19526
-2.92617
-3.01254
1.28692
-2.96784
0.906787
1.20964
-2.85278
-3.09954
1.23084
2.02431
-2.11709
1.21408
-2.66181
-1.09384
-3.53171
0.283266
-0.888923
-3.12575
2.54303
-1.61309
-2.66642
-0.0048734
-0.853565
1.38662
-0.506389
-2.02739
-3.05899
-4.30055
-9.80573
-2.88383
-0.711656
1.79743
0.11808
-5.58907
0.00186747
-2.89529
2.20472
2.58548
-2.8719
-0.434262
0.292057
-2.95363
0.220719
2.21691
-1.57587
-2.59245
1.19371
1.21203
1.16992
-0.932788
-0.306897
0.00060482
-1.00956
-0.930083
-0.779879
1.12428
-0.602378
0.307902
0.0624772
1.24766
1.04783
-0.456778
1.00472
1.2064
1.1793
0.00176674
2.27227
-0.942907
2.09102
-0.128337
1.9675
2.86936
-0.259966
0.0920282
0.725154
1.2736
-1.86228
0.951464
-0.194783
-0.267506
0.408633
1.4819
0.522674
0.614366
1.13712
-0.816644
-3.6316
2.7127
-2.91009
0.614796
-4.42069
-0.546018
-2.8765
1.15345
0.644089
1.04886
0.787141
-1.0016
-0.342889
0.922472
-0.0188289
-0.891932
-2.60638
0.491055
-3.08183
0.272408
1.10066
2.54917
1.24351
1.17034
1.03735
0.490896
2.35221
1.0985
1.24922
0.617802
-6.42318
-1.4487
0.20155
-0.559069
2.75021
-2.43252
0.218549
0.00083577
-0.766873
2.5288
1.05397
0.0319866
-5.15467
-0.345592
-0.953116
-0.169376
1.30824
1.64619
-0.150713
1.56924
0.152924
2.24217
-2.32759
-0.147081
0.715113
0.427951
0.434925
1.74842
0.685265
0.0170418
1.1852
0.0473702
-8.70773
1.40364
1.82355
-0.521956
-3.34256
-2.89486
-2.04235
-0.758349
-3.02954
-0.0281365
1.23539
-0.0758248
-0.709867
0.508695
-1.79521
-0.762025
-0.282437
-2.44699
-4.35728
0.200144
-2.90358
-2.93162
0.859412
1.2503
1.16262
-5.24085
0.901778
-1.34093
1.30982
2.18058
-3.25387
-0.00541452
-0.152507
1.95837
0.447432
-6.2218
-0.65332
-2.05747
-0.161703
0.0991108
2.30696
-0.156476
0.000282213
0.925958
-0.474812
0.00252756
1.09439
0.214052
-0.420509
-2.11516
-3.1123
1.02036
-2.82663
-0.166982
-1.22017
-3.15549
1.2524
1.13265
2.52124
0.215708
2.42884
0.06104
1.59248
-4.15432
-1.71455
-8.5835
1.66702
0.683776
0.246676
0.365605
-2.74196
-7.15596
0.00599448
-0.279006
-0.146011
-0.430931
-0.240764
0.108628
1.10534
1.38693
-2.31028
0.0538357
0.105118
-0.377378
-0.260734
1.1775
-0.341855
1.02095
-0.783941
-0.12361
1.36801
-2.59851
-0.499917
-0.000555111
-0.220432
-2.04349
1.25882
-1.80164
-0.124236
-0.171154
-3.31701
-1.65377
-0.189971
1.90039
1.6134
0.00231669
-1.82034
-8.09849
1.08647
-0.0424637
-0.508843
-0.00322275
0.254014
0.08304
-0.133313
-1.62207
0.00320871
0.907518
-0.327229
0.331111
-2.79518
-1.99388
0.927919
0.86819
0.0325177
0.229918
0.917088
0.681788
-0.558492
-0.676633
-0.218501
-6.59339
-0.12345
0.996073
-3.07421
-0.0762135
0.0650557
-0.0126929
-0.443988
0.0581
-0.152458
-0.0812839
1.48474
1.12013
-2.01865
-0.12915
-3.30399
-5.72822
0.61558
-0.179025
1.75547
-1.38864
1.19839
0.91104
-0.813201
-1.93086
-9.74793
-1.94076
-6.1982
1.19279
-0.178791
-0.0815749
-2.90442
0.938621
-0.428882
1.40114
-0.0163294
0.0226015
1.63761
-0.00681796
-0.0325747
-1.56649
1.39214
0.104138
1.27781
1.16033
-9.41123
-0.123794
1.30842
-2.23799
1.31001
-4.28905
1.21529
-3.74683
-0.120099
0.0160455
1.0578
1.11728
-1.20292
1.22808
0.894004
-0.190984
1.61373
0.856453
-3.68024
1.24664
-0.138978
-0.0169605
-1.6078
-4.48945
-0.134456
-2.96507
0.00173019
1.22621
1.25263
-0.20276
-0.336178
0.929101
-0.06342
1.24348
-5.86919
0.00164758
-0.65155
-2.82257
-0.661345
-7.01542
-0.114742
-3.07222
-0.135503
-2.02193
0.421808
-0.193007
-5.0563
-0.205796
0.254685
1.86208
-2.61187
0.000192222
-0.710437
0.387576
-0.315586
-3.65989
-1.48774
0.854901
-0.233197
0.618869
1.31404
0.0024241
-0.135987
-0.794095
-0.137052
-0.110109
-1.60613
1.24471
-0.700147
-0.000615123
-1.55528
-5.18281
-0.0424487
-0.139964
-1.05467
-4.93496
0.0957473
0.10352
-0.132564
-0.175038
5.3088e-05
0.00575049
-5.45338
-1.50034
-5.90738
0.827989
-0.857261
-0.132687
0.92816
0.96673
-0.134183
0.00378937
0.955635
0.487128
0.00382444
-5.49185
-0.0142741
0.676815
0.183909
-4.36531
0.00167228
0.830346
0.0422225
1.11088
1.0492
-0.144395
0.589534
1.1746
-0.349981
-4.43986
-0.133124
-1.13775
1.12049
1.24344
0.00678254
-0.0696472
-0.140406
-0.169725
-0.128559
-0.12815
-4.70986
-0.00119543
1.24687
0.113674
-0.157869
1.24934
-0.147845
2.18352
-0.138951
0.115469
0.0721925
-0.162251
1.33658
-0.127745
-0.138331
-11.1624
-0.0987035
1.13997
0.85145
-0.136896
1.26617
-0.182738
-0.0286404
1.16777
-1.34531
1.03978
-0.193314
0.10298
-0.586938
0.385435
-1.09745
-7.06503
-0.415281
1.09665
0.821712
0.0782625
0.966151
-0.00165912
-0.238847
-0.20268
0.44045
-0.74687
-7.3248
-0.142199
-0.00127459
-0.270403
-0.159168
-0.471789
-3.42131
1.97406
-6.57458
-2.90137
1.93697
0.00842027
-0.225942
-0.135247
-0.406301
0.0673548
-0.351704
-0.151567
-1.98202
-11.0908
0.629572
1.25144
-0.198712
-0.170615
0.127855
-6.75478e-05
-0.0293351
-0.128318
-0.143569
-0.213954
1.22786
-4.53786
-6.04252
0.9114
-0.193413
-2.00589
-0.108243
-5.94408
-0.0517186
0.395221
-2.01709
1.34684
-0.235602
-0.243122
-2.89432
-0.182048
-0.305413
-0.146679
-4.04438
-6.03552
1.90999
-5.12789
-0.923397
0.000602733
-1.18308
-0.0523536
-0.151202
-3.02913
0.00179735
-0.124887
-0.288209
-0.168425
-0.106434
1.59694
0.294721
-0.0193738
-0.110427
-0.12112
-3.94984
-0.197361
-1.704
-0.131246
-0.291316
1.39503
0.121578
1.25676
-0.0224412
0.0488629
-0.058088
0.00115612
0.00280739
-1.94566
-5.33082
-0.305399
0.277863
0.189385
0.873429
-0.0645047
-0.0911223
-0.04268
1.20307
-0.13011
0.203066
0.256123
0.00484837
-0.144075
-2.43536
-0.120064
-0.000517267
-0.257335
1.26104
0.00291348
-0.195358
-0.0490845
0.632474
-0.164058
-0.960073
0.00487442
-0.0524416
-2.90348
-0.154233
-0.124217
-0.386381
-0.0282921
1.18761
-0.0596805
-1.37338
-0.133782
-0.14306
0.297252
-0.121965
-0.133697
-3.3822
-2.94508
-0.113404
1.48553
1.40659
-0.00569288
-0.140376
-1.47486
-0.00134742
0.26764
-2.91694
-0.0440518
1.30806
0.444974
-0.00767187
-0.0343179
-2.78027
1.19893
-0.0897583
-0.011483
-0.0233209
-2.88254
0.0555996
-0.110558
-3.06912
0.922564
0.342915
-0.634316
0.260226
-0.020623
1.25386
-0.0323767
0.00407623
-0.0496854
-0.0240051
-6.52806
-0.14923
-0.144271
-0.00783095
-0.139122
-0.00167434
0.114787
-0.0160601
-0.0513737
-0.385814
-0.246291
-0.0773942
0.00212852
2.59615
-0.106768
0.0201763
-0.00605056
-0.0757297
-0.501999
-0.0954725
0.0120045
0.308668
-0.089647
-0.106297
-0.0582263
-0.0223995
1.26839
-0.0107139
-0.102279
0.0245316
0.00685658
0.00365109
0.0306543
-0.113599
0.724125
-0.153581
-1.20302
0.52295
-0.0567443
-0.0713449
-0.0618221
0.00437227
-3.00257
-4.2333
0.163089
-0.112442
-0.0342525
0.00176049
-2.18664
1.21834
0.91008
-0.0445032
-0.379144
-0.156192
-0.0606288
1.25959
-0.0119335
-0.221274
1.4198
-0.0947125
1.38233
-0.0860297
-0.144668
-0.0488781
-0.0213153
-0.0135228
1.54297
-0.136098
0.00173783
-0.532056
-0.643357
0.489456
1.38527
-0.00271997
-0.456705
-0.193197
-0.00371332
0.00125974
0.233064
-2.81106
0.00155999
-0.0518042
-0.11097
-0.121058
-0.114001
-0.116437
-0.727176
0.00183427
-0.0138828
-0.296779
1.33898
-1.47103
-0.0191255
-0.129633
1.19543
1.43878
-0.00216485
-0.00140348
-3.33609
-3.64968
0.000853716
-0.0680864
-0.0177866
-0.0938035
6.65323e-05
-3.2566
-0.00338151
0.00491232
-0.047799
1.8626
-0.0251263
-0.120232
-0.214331
-5.52849
-0.0210834
0.880747
0.0222909
1.08407
0.00221537
-2.92359
-0.0151137
-0.136465
-0.290964
-0.370985
-0.231974
-0.00416868
-0.01396
-0.124908
-0.0149676
-0.0260544
-0.0939714
-0.00504583
-0.0160455
-0.10412
1.25552
-0.0292162
-0.585652
1.15797
-0.0415413
-0.0917058
-1.24236
0.842848
-0.105321
-10.8186
-0.0340644
-0.0283948
-2.31713
0.053115
-0.0638508
-0.0450874
-0.0593227
-0.086292
-3.77651
-0.00825368
-2.87007
-0.18143
-0.0464932
-2.62278
-2.61141
-0.00404146
-0.0235442
-0.0582997
0.159372
-0.0684776
-0.0760889
0.677336
-0.00376886
-0.00835916
-0.0181618
-7.35779
-0.0321755
0.00510097
-0.0607849
-0.129135
-0.180012
-0.14026
-0.0123536
-5.57874
1.92173
-0.0475025
-0.0379465
-0.0259232
-5.90704
1.29723
-0.143095
0.0944229
0.00130367
1.3637
-0.0308781
0.230081
-0.0707607
0.00179856
-0.00988662
-0.0692022
-1.94508
-0.450365
0.234035
-0.157734
-0.024834
-0.0145487
-0.147191
0.624552
-0.265213
-0.00773754
-0.0249749
-0.138748
1.45317
-0.1567
-0.0110143
-0.00260408
-0.105663
-0.0548641
-0.0169542
1.27568
0.476973
2.1344
-0.00084797
-5.17412
-0.336463
2.6193
-0.737518
-0.0809376
-0.0241837
-0.0897199
-0.841908
1.28901
-0.328005
-0.264663
-0.0715451
-2.87743
-0.108906
-0.0905297
-0.0288131
3.00344
1.09119
1.7053
-0.188821
1.23036
-0.0234385
-8.1331
-2.92525
1.07925
-3.00197
-2.95935
-0.0108173
-0.538923
-0.218948
-0.0817864
-1.65087
-0.268474
-1.06737
0.888599
-7.44706
-0.0953491
1.10324
-0.136736
-1.80627
-0.0226671
-0.0239669
-0.0630763
1.52603
-0.0695414
-6.06313
-0.0349605
-2.04005
0.00078488
-0.470104
-0.472029
1.93983
-3.06122
-0.335574
-0.630722
-0.0107067
-0.0387341
1.11896
1.31377
-0.114119
-0.335887
-3.08616
-0.418121
-1.24721
2.45803
0.993974
0.179035
-0.119365
-0.533215
-0.0846888
0.767393
-0.0636585
-0.700419
-0.0608451
0.943745
1.24766
0.467208
-2.81783
0.306999
-0.524135
-0.0127404
-2.83332
-0.0947665
-0.546823
0.984017
-0.0400986
-3.16653
-0.0508572
1.85597
-1.46949
-0.334795
-0.233203
-0.990534
0.0382244
-2.03616
2.36227
-0.0919176
-6.08464
-3.13824
-0.708186
-0.0636628
0.743316
-0.562259
-0.106256
-1.06321
-2.86721
1.35609
-0.113475
0.0224836
-0.732337
-1.04606
-0.138768
-2.91219
-0.0559915
-4.34439
2.576
-0.067686
-3.02343
2.19227
-0.000701717
-0.0778315
-0.143209
-0.00184133
1.54583
-3.24065
1.2454
1.20901
-0.075134
-0.371161
1.19028
1.04622
-0.0698964
-0.526513
-3.78074
-6.86959
1.23729
-0.128201
-1.52904
-2.99312
-0.191635
-2.70762
-0.132259
-0.146626
1.31667
-0.220046
-0.199793
-3.476
-0.0428819
-0.0312433
-0.0336776
-2.95978
-8.8623
0.0132956
-0.164785
0.0784385
-0.838465
-0.0970704
2.43018
-0.0852707
-2.95121
0.218302
-0.0187907
0.355515
-0.150915
1.21383
-0.0842462
0.752343
-2.65614
-0.114866
1.5433
-3.40204
-6.03228
1.57841
0.915359
-0.142017
-0.145864
1.2215
0.472506
-0.0412855
0.578893
2.31125
-0.859507
0.661762
-0.648057
-0.103224
1.72653
-2.50743
0.0375349
-0.0945734
1.30532
-0.42122
0.725747
0.58162
0.863007
-4.58986
-0.112496
0.0928177
-0.0505525
-0.0231754
-8.68356
-4.54091
-0.0928551
-0.0448724
-5.24804
-0.0936434
-0.48948
-2.12824
0.985935
1.24481
1.10422
-0.0730613
-0.65034
-0.288199
0.752724
-0.0571332
-0.112653
2.31616
-0.0436132
-0.062135
0.0693931
-3.01071
1.42334
-0.0682011
-0.702192
-2.8871
0.0385344
0.888203
-1.53431
-3.09867
-0.412459
-0.0309971
0.0712482
1.17453
-4.13089
-7.00631
0.0802995
0.427087
-0.226239
0.00120189
-0.103598
-0.00445071
-0.217724
0.745777
-0.0759719
2.83958
1.71998
-0.160963
-0.0943374
-3.53191
2.01671
-0.0329336
0.311127
2.71044
-0.0270662
0.144499
0.859389
2.39406
0.192917
-2.73636
1.13111
-2.46361
-0.000524639
-0.466042
0.093303
-3.52018
2.25672
0.101357
-0.0225439
0.0184569
-2.80003
0.128559
2.5991
-0.0248777
-0.0675997
-0.131792
1.16569
-0.311713
0.298719
0.877164
0.519177
-0.126229
-0.235166
-8.20877
0.070648
0.251109
-0.0421901
-0.102099
2.13908
-0.0623504
-0.110707
1.3081
-0.00432252
-0.0052083
0.0410337
0.030062
1.00104
-0.019386
0.251494
-1.27887
-0.0489787
-0.1583
-7.29351
-0.151722
0.0488707
-0.0406282
-0.0390815
-0.277062
-0.0532461
-0.0655969
-0.000777177
0.148414
-0.159925
-0.437783
-2.68318
-0.0651607
-1.01954
0.349645
-0.0102885
0.250421
-0.303556
-3.44515
-0.045008
1.28444
-0.505606
-0.155255
0.0508199
-0.410827
1.52796
-0.0434929
-1.82861
0.177997
2.95631
2.50539
-0.0880387
0.239748
-1.89756
-0.00240888
1.26417
1.24705
0.812109
-0.0111299
-0.0103011
0.0315031
1.97733
0.105758
0.460198
0.257816
-5.4985
0.15165
0.037428
1.30284
1.75887
-0.16611
-7.73406
-0.143644
1.23471
1.62876
-0.00708213
0.00686529
-0.39098
2.48729
-0.00621389
-0.119015
-0.00366756
0.0560086
-0.0149164
-0.0126227
1.24256
-0.00788365
-0.00606281
-0.0643742
-1.86794
-0.098334
0.00328356
1.66763
0.995241
0.968692
0.0172913
-7.80695
2.75757
-0.0742923
0.0442381
0.981329
-0.541203
0.423863
1.25993
1.10457
0.00297447
-5.77929
-1.53477
1.23511
-0.708425
-0.000288442
-0.131643
0.999084
0.593034
-0.0117364
-0.0738567
0.724813
-0.34499
-4.81494e-05
0.0523918
-0.00728126
-0.564804
-0.270357
1.19657
2.14229
-4.00026
1.8295
-0.0624104
-0.990403
-0.0123991
-4.11023
0.283969
-5.66082
0.204083
0.128911
-0.00769567
-0.0555623
0.262322
2.87344
0.00101644
1.39087
1.14062
-0.190242
-0.039864
0.249865
-0.444013
-0.511641
-5.13077
-0.100498
-0.0567296
-0.0322811
-0.426108
1.58192
0.540462
0.262332
0.16678
-1.94965
0.0572753
-0.283761
0.213795
0.32232
0.0870754
-1.45829
1.42614
0.973677
-0.843222
-0.22438
-0.0060127
0.954395
1.26603
1.36219
-1.90268
-7.60624
-1.87298
0.00350988
1.23705
-1.39386
1.42227
-0.00281313
0.0395801
-4.89951
-1.95146
1.26441
-0.50804
1.29891
0.670455
0.107818
0.0615297
-0.993908
-6.17908
-0.350454
-1.16828
1.2024
0.195803
1.44401
1.43715
-0.0974196
1.40408
0.0742991
-0.00415431
0.875928
1.35413
-1.56193
0.000783609
1.19996
0.884229
0.186677
1.26661
0.600435
1.16847
-0.132486
-0.246141
0.042591
-2.91579
0.663167
0.572506
0.611675
-3.97214
1.40966
-0.00156242
-0.959674
0.00090036
1.29777
0.339943
1.00736
-0.0407196
-2.93568
-0.657466
-0.0774115
-2.10881
1.0449
1.06482
-3.6527
-0.71064
0.185187
-0.0762654
-0.814148
1.30978
1.84691
-0.123173
0.238936
0.44987
0.220687
0.293997
-0.00789549
0.786216
-5.68319
-0.0633128
-1.38589
-1.40096
-0.215398
1.46936
0.896297
-0.192132
-0.0488991
-0.0658237
1.24325
1.24306
0.727184
-1.87625
1.51265
1.19169
1.27461
0.183978
0.0359977
0.157024
0.35683
0.724041
-6.65197
1.29209
-0.380895
0.262577
1.32679
-0.655039
-7.35627
1.93336
2.06038
0.124042
0.147685
0.803033
1.09806
0.0544195
0.0754241
-0.170378
-0.211723
-1.37095
-1.3038
-1.79021
-1.24194
-0.279887
1.24041
2.16881
0.0907804
1.25193
0.122605
3.15669
-0.879128
1.21107
0.0664166
-1.96694
-5.95905
3.1235
0.179945
-0.135108
3.0532
0.463823
-2.42536
0.718929
2.98262
0.386328
2.89806
1.04353
0.0609469
-4.9777
2.73531
-0.2328
-0.106424
-1.97645
0.65578
-0.00342125
0.99951
2.49808
-0.000906998
0.226563
1.22454
0.669398
0.826162
1.25927
-0.210861
-5.29563
-2.09117
2.41836
0.158426
-5.0922
0.175107
0.102618
2.34706
-0.103216
0.211055
-5.00251
2.27044
-2.33296
-4.91787
2.19584
1.33877
-4.80766
-1.27642
-4.80212
0.944612
1.54137
-4.77949
2.07519
1.22996
0.224323
-4.61587
1.20737
0.839694
0.212188
-1.24028
-3.18066
1.33571
1.22381
-6.4901
1.01804
0.587233
-0.84458
-2.79956
1.86209
-0.980892
1.25146
-3.31577
-4.24841
-4.13145
-3.98087
-3.82641
-3.69071
-3.56611
-1.01075
-3.42978
-3.16577
2.1371
1.79503
-0.630075
1.09399
0.204311
1.17477
-3.10263
1.74007
-0.000989669
-3.05263
1.17772
-3.12124
-3.0095
-0.0343624
1.5963
1.2427
1.06875
0.955502
1.27375
-1.18801
-2.9727
1.54042
-2.93835
0.059235
-2.57701
-2.90849
1.29955
1.47423
-0.127468
1.23339
-0.00328928
1.23558
-2.91597
-0.856035
0.345986
1.40859
-0.779124
-1.9605
1.3433
-4.36885
-0.740795
-1.18992
-2.90172
1.28379
0.708517
0.245556
1.26104
0.378049
-0.106542
-0.0856899
-2.90884
-3.2447
1.21026
0.2093
-0.0642014
1.33645
0.131238
-6.12956
-1.31458
-2.91279
1.15277
-4.3748
0.880572
-0.345959
-0.00223773
-2.91779
1.08265
1.2001
-3.24762
1.00685
-2.92435
-0.174938
-0.595576
-1.95176
-4.77073
0.948335
-2.91192
0.85477
-2.90551
-5.93506
1.12464
-0.00980593
1.05819
-0.0651041
0.779003
-2.83382
-1.30623
2.35531
1.33826
-2.83472
-10.1473
0.712129
-5.17465
-5.27719
1.37313
-2.71739
1.22854
0.642607
-0.0686067
0.527506
-0.425303
1.24455
1.1726
0.129789
-3.46042
-2.59414
-1.95661
0.554603
0.131851
-0.812672
-0.803514
-2.74561
-1.57736
-3.61766
0.987003
0.480821
1.90351
0.584639
2.03154
1.14219
-2.28681
-1.07351
0.765293
-5.10777
1.02067
-0.0580041
0.0217298
1.0534
1.23924
-0.211729
-2.13134
-4.4325
0.320146
-3.71642
0.0549682
1.04772
1.58285
0.747905
2.20824
-7.01466
0.767964
0.233453
-1.99004
0.395052
-1.15744
0.218583
1.4857
1.30487
1.14061
-1.87598
0.115084
-0.00185705
-0.0908216
-0.219049
-0.331169
-0.473244
-1.85076
0.0304707
-0.602186
1.08607
-0.891728
-2.9981
2.31564
-1.8029
-0.213797
-3.16984
1.18643
-1.88236
1.42946
-1.77921
0.291088
-1.79385
-3.73349
-1.84624
1.2428
-0.404516
-1.72361
-1.9003
-2.94643
-8.59112
1.27314
-1.55111
-1.97103
1.25714
1.27955
-1.03046
-7.25114
1.37377
0.268727
-4.20518
0.457062
0.894075
1.7254
-1.64015
0.269785
-8.48794
1.52065
-5.53368
-1.1065
-4.16518
1.05852
1.08309
0.530439
-2.78605
0.944252
1.44824
-0.0284165
-2.98304
1.06812
0.176766
0.376321
-0.476549
1.06897
-3.58389
-0.0061533
-6.8729e-05
0.955164
-1.16757
1.57394
0.568539
-2.32036
0.901696
-1.98222
1.50542
1.28698
1.38752
1.43301
0.191531
0.35378
-2.34014
-0.963361
-1.73632
-0.105159
0.330829
1.27406
-1.79712
-0.894793
2.48779
0.000609211
1.02124
1.0445
-4.20134
-0.0552736
-0.274491
0.106191
0.948075
0.533043
1.19343
1.18839
0.903274
0.382348
1.44324
-1.96574
-0.0115016
-2.46823
-7.66354
-0.0793575
-2.8164
0.913977
-4.03339
0.97388
-0.526144
-3.11814
0.247087
-1.32486
-2.76408
-7.76384
0.216299
1.34662
-0.443906
-0.822457
-0.034484
0.846136
0.216017
-6.64028
-0.0138883
0.253614
0.466467
-4.4377
1.22526
0.612346
1.21987
-5.8087
0.222425
-0.0144329
-0.0340782
0.535426
-3.7683
0.621459
-0.049252
-0.0231911
1.0846
1.64364
-0.406773
-2.7683