/*--------------------------------*- C++ -*----------------------------------*\
| =========                 |                                                 |
| \\      /  F ield         | OpenFOAM: The Open Source CFD Toolbox           |
|  \\    /   O peration     | Version:  2306                                  |
|   \\  /    A nd           | Website:  www.openfoam.com                      |
|    \\/     M anipulation  |                                                 |
\*---------------------------------------------------------------------------*/
FoamFile
{
    version     2.0;
    format      ascii;
    arch        "LSB;label=32;scalar=64";
    class       surfaceScalarField;
    location    "9";
    object      phi;
}
// * * * * * * * * * * * * * * * * * * * * * * * * * * * * * * * * * * * * * //

dimensions      [0 3 -1 0 0 0 0];

oriented        oriented;

internalField   nonuniform List<scalar> 
7520
(
-0.919484
0.748746
0.170738
-1.31548
-0.189686
1.50517
-0.0993666
-1.82302
1.92238
0.25634
-0.0371461
-0.219194
0.105491
2.45889
-2.56438
-0.102568
0.110601
-0.0080325
-0.308667
2.09685
-1.78818
-0.138297
-2.23293
2.37123
-1.53269
1.43332
0.737326
-0.100011
-0.637316
0.434328
0.171607
-0.605936
-0.23866
-1.48007
1.71873
0.47111
0.128607
-0.599717
-0.113874
0.156323
-0.0424491
-2.42131
0.996937
1.42437
0.0600541
1.46554
-1.5256
0.333742
-0.0188781
-0.314864
0.190694
-0.559468
0.368774
0.031167
0.0225936
-0.0537606
-0.0668945
0.400637
-0.427949
-0.233144
0.661093
-0.999115
1.05917
-0.0645876
-0.350542
0.415129
0.170701
-0.158148
-0.012553
0.0437109
-0.0338383
-0.00987267
0.273264
-0.265799
-0.00746493
0.892292
1.10926
-2.00156
-0.0513979
0.360865
-0.309468
-0.00850656
0.0396736
0.276489
-0.0545103
-0.221978
-1.02319
1.65586
-0.632677
-0.0557745
-0.0222037
0.0779782
-1.85785
2.05262
-0.194772
0.543936
-0.748041
0.204105
-0.318316
-1.20641
1.52473
-0.284363
0.913823
-0.62946
0.256163
-0.572693
0.31653
0.839036
-1.62183
0.782799
0.0923516
-0.341154
0.248803
-0.0607758
-0.128925
0.189701
-0.0284722
0.284813
0.0931083
-0.608049
0.51494
0.310041
-0.0367771
1.94043
-1.55539
-0.38504
-0.53367
-0.564178
1.09785
-1.47519
1.59431
-0.119127
-0.106694
-0.181593
0.288287
0.297164
-0.0909263
-0.206237
-1.285
0.26181
0.298326
-0.0841207
-0.214206
1.74664
0.174175
-1.92081
-0.708117
0.22821
0.479908
-0.0212747
0.0210448
0.000229859
1.09643
0.496707
-1.59314
0.0158864
-0.118455
-0.772352
0.0987451
0.673607
0.3543
-1.25506
0.900757
-0.0517571
-0.130396
0.182153
-0.136095
0.080321
-2.3569
1.23611
1.12079
1.58266
-0.643046
-0.939614
0.0403757
0.101135
-0.141511
-1.26767
0.949358
0.737133
-0.266023
0.00606069
-0.0273354
0.00478129
-0.118655
1.21189
-2.60575
1.39386
0.124145
1.6225
-1.29853
0.982422
0.316107
0.347079
-0.255563
-0.0915164
-0.534355
0.888655
-0.546412
-0.358734
0.905146
0.381335
-0.0979288
-0.283406
-0.389742
0.48447
-0.0947287
1.11897
-1.69661
0.577648
0.145846
-0.127052
-0.0187931
1.94936
-0.555815
-1.39354
0.448599
-0.781009
0.33241
1.45676
-0.992763
-0.464001
-0.866745
0.0943925
-1.61332
-0.743582
0.629881
-0.718128
0.0882469
0.249117
-0.662783
0.413666
-0.107225
0.651161
-0.423147
0.613841
0.297735
-0.0212461
0.0321012
-0.0422367
0.0101355
1.26929
0.680073
-1.9846
2.49958
-0.514978
0.693521
0.889139
-1.04388
1.11582
-0.0719343
-0.0194026
-0.0803439
0.0997465
1.36114
-1.5998
0.26118
0.210508
-0.118156
-0.250275
0.403799
-0.153524
0.00705896
0.100629
-0.107688
-0.554299
0.367051
0.187248
1.52634
-0.407377
-0.796637
0.653394
0.143243
1.09288
-1.04194
-0.050935
-0.100235
0.126204
-0.0259688
0.387326
-0.0345553
-0.352771
2.70789
-1.81242
-0.895465
0.547344
-0.384247
-0.535237
-1.34552
0.81116
-1.90793
1.59926
0.188629
-0.0868621
-0.101767
0.564857
-0.130529
-0.18282
0.181376
0.00144346
-0.0770957
0.0922305
-0.0151347
2.02342
-1.18439
-0.166661
0.0330793
0.133582
-0.749493
0.321544
0.0424989
0.00998262
-0.0524815
0.731708
-0.101826
-0.711399
0.456012
0.255387
0.587528
-1.64614
1.05861
0.0577329
0.112968
-0.152354
-0.555763
-0.308518
0.0618005
0.246718
0.883628
-0.146301
0.665587
-0.616394
-0.0491932
0.0277799
-0.0968164
0.0690365
-0.189641
0.171709
0.0179319
0.719884
-1.91423
1.19435
0.417387
-0.481975
-0.353703
-0.0720216
0.425725
-0.0625747
-0.104086
-0.367492
-0.11005
0.477543
0.162122
0.0349489
-0.197071
-0.0688671
0.230989
-0.537282
-0.174118
-0.481505
-0.180978
0.662483
-1.7505
2.63773
-0.887233
0.327788
-0.344026
0.0162379
-1.12939
-0.216124
-0.037878
-0.0582214
0.0960994
1.44492
-0.348488
-0.625835
0.44114
0.184695
-0.157942
0.430055
-0.272113
0.328409
-0.081664
-0.246745
0.259347
-2.08236
0.300245
-1.77543
-2.4054
1.17648
1.22892
-0.840268
-0.45826
-2.11014
2.07327
0.0368669
2.19953
0.147082
-2.34661
0.213817
-0.274593
1.04693
-0.555311
-0.491621
-0.268138
-0.099644
0.367782
0.331719
-2.44186
-1.85416
-0.00369184
0.0247291
0.00737207
0.0733708
-0.142781
0.0694103
0.303913
-0.35567
1.09218
0.000697989
-0.169964
0.141492
-0.0120824
0.000625472
0.0114569
0.809126
-0.419985
-0.389141
-0.461763
-1.95954
-0.103128
-0.16501
0.0526332
-0.616899
0.564266
0.160383
0.253684
-0.414066
-1.45975
0.849365
0.61038
1.21662
-1.11113
-0.179883
0.55533
-0.375447
-0.0717507
0.115462
0.564691
-0.270681
-0.29401
0.441827
-0.692102
0.252865
-0.336986
0.873852
0.294705
-1.16856
0.324508
-0.375906
-0.316961
-1.41243
1.72939
1.28214
0.662304
0.734181
-0.485064
-1.25901
0.974643
-0.719696
0.963047
-0.243351
-0.0155071
-0.0258458
0.0413529
0.237809
-0.273553
0.0357442
-0.202562
0.93427
-0.280662
-0.181463
0.462125
0.314403
-0.154021
-0.888873
0.941506
0.574464
-1.01635
0.441884
-0.490944
-0.0633552
0.719376
-0.463213
0.158193
-0.0123478
-0.0396565
0.0782792
-0.0386227
0.0738511
-0.150947
-0.569164
0.0312763
0.537887
0.138059
0.243276
-1.17852
-0.518094
-0.756575
-0.70317
0.00210075
0.100689
-0.10279
0.566332
0.0528579
-0.61919
-1.68806
-0.0624353
-1.22889
2.26302
-1.03414
0.386299
0.178392
-0.232992
0.323842
-0.0908503
-0.754462
0.602108
0.540196
-1.07387
1.73175
-0.0528308
-1.67892
-1.45365
1.91556
-0.461904
-0.0290055
0.102376
0.352308
1.54496
-1.89727
0.0371611
-0.185012
0.147851
-0.156892
1.8366
-1.67971
-0.00207727
0.141627
-0.13955
-0.930832
1.29024
-0.359406
-0.0731014
-0.681361
-0.150426
-0.418737
0.278831
-0.205548
-2.05135
2.2569
0.0383096
-0.0157161
-1.8985
0.719982
-0.591567
0.0634836
0.528083
0.105344
-0.0775638
0.137582
1.5779
-1.71548
-0.458898
-0.633095
1.09199
-0.544503
0.435254
0.109249
3.03445
-1.99571
-1.03874
0.522758
-0.981655
0.10082
-0.0977332
-0.003087
0.0893119
0.773348
-0.86266
0.0667721
-0.0690741
0.00230207
0.854704
0.790551
-1.64525
-0.28729
-0.509347
-0.113135
0.273668
-0.160532
-0.912446
0.662771
0.249675
-0.092722
0.0482197
0.0445022
0.977196
-0.410864
1.01279
-1.86
0.847209
-2.69104
1.15967
1.53138
-1.12212
-1.56892
-0.347876
0.416224
-0.0683483
0.0890698
-0.0364441
-0.0526256
1.14155
-1.73186
0.590313
0.012191
1.11625
-1.12844
-0.27985
-0.438278
1.08837
-0.214521
1.33361
1.28616
-2.61977
-0.209734
0.104898
0.104836
0.00228739
-0.914733
1.84168
-0.414225
-1.42745
0.152072
-0.11491
-0.0267096
0.428997
-0.447876
1.00274
0.838943
0.183705
0.628044
-0.811749
0.401774
-0.0409081
-0.0636176
-0.0195735
0.0831911
0.249938
-0.180317
-0.0696215
-1.85438
0.894812
0.959564
0.143654
-0.0545838
0.759211
-1.24072
0.150189
-0.179354
0.0291646
0.148125
0.149039
-1.60641
1.56291
0.0435026
1.11809
-0.543628
0.00878037
-0.0343859
0.0256055
0.0139736
0.00572766
-0.0197013
0.142695
-0.240624
1.80036
-0.588472
-0.121527
0.329552
-0.208025
0.000695713
-0.0127781
0.739625
-0.568018
0.548298
-0.144499
-0.701164
0.713355
0.038147
-0.0778035
2.09685
0.0057849
-0.0127697
0.00698482
0.192958
0.35534
-0.226622
0.148459
0.0781634
-0.0663332
0.453659
0.606127
-0.513018
1.00676
0.0401754
0.513117
-0.394473
-0.118644
0.309863
-1.2407
-0.0371259
-0.330367
-2.21539
2.00985
0.0620643
0.0387558
-2.35369
0.257197
-0.41514
0.18086
0.0852282
-0.266088
-0.632615
-1.22176
1.35727
1.35062
1.61026
-0.760896
-1.48007
0.096229
0.569358
0.286538
-0.251971
-0.0345668
0.183477
-0.271397
0.0879204
-1.18356
0.619383
-0.247737
-0.26308
0.510817
0.299346
-0.399357
-0.0896972
-2.00215
2.09185
0.89929
0.240392
-1.52688
1.28649
0.957778
1.09484
-1.04813
1.54591
-1.1936
-0.0553565
0.419611
-0.364255
-0.850508
0.751452
0.0990561
-0.194291
0.0727643
-0.102829
0.362164
-0.259335
-0.218289
-0.229532
0.447821
-0.537354
1.81949
-0.31711
-0.379282
0.696392
-0.444394
0.3377
0.184864
-1.22875
-0.138316
0.0746985
0.0103656
-1.99683
0.99118
1.00565
0.446464
-0.317857
0.00922205
-0.0237352
0.351523
1.33954
1.69491
1.64548
-0.472616
-1.17286
0.138096
-0.0491905
-0.088905
0.560204
0.89656
0.165492
0.121045
0.413275
-2.12398
1.7107
-0.0742404
0.0522942
0.0219462
0.929948
0.596396
-0.23991
-0.101244
0.69859
-0.514886
-0.550841
1.44313
0.177375
0.0112544
1.42191
-0.834378
0.163423
-0.156364
1.81094
-0.165465
0.114194
0.452115
0.0610023
0.0238079
0.323271
-1.73375
-0.860635
0.87567
-0.0150352
0.00700491
-0.134057
1.84911
0.0204118
-1.86952
-0.758393
0.441283
0.258195
0.0702134
-0.334285
0.0787223
0.0319666
-1.02473
1.54278
-1.60183
0.0590593
-0.000946599
-0.223345
0.224292
-0.604617
1.53457
-0.858155
1.57804
0.0161417
-0.0170883
0.697546
-0.241534
1.91911
-0.557973
-0.00593296
0.190545
-0.184612
-0.112466
-0.0570297
0.169496
0.135228
0.00286753
-0.270117
-0.760714
0.0222879
-0.250464
0.228176
1.26285
1.37488
-1.51536
1.1984
0.135624
-0.489327
-1.34741
0.800998
-1.12014
1.34381
-0.223673
0.521836
-1.65744
1.50055
1.76128
-0.491999
1.33201
0.608425
-0.0784977
0.245611
1.29716
-1.32425
0.314332
1.00992
0.301051
-0.355561
0.106157
0.0374962
-0.236677
0.16781
-0.205775
-1.34962
0.371507
-1.18532
0.813812
-1.56003
1.09998
0.460047
0.466497
-0.825231
-0.181788
0.222164
0.105637
-0.378064
0.349821
0.028243
-0.615299
0.435417
1.18602
0.575262
-1.45365
-0.103642
-0.0859989
1.66561
-1.44952
-0.216085
-0.370919
1.91588
-1.64474
2.41301
-0.768273
-0.653349
0.953915
-0.300567
0.0570357
-1.32471
0.0956468
-0.132091
-0.29897
0.461628
-0.162658
0.243944
-0.278499
1.34966
0.584863
-1.0753
0.49044
-0.0274514
-1.55308
1.58053
-0.0600554
-0.122764
0.0270561
-0.441859
0.414803
-0.297078
0.832671
-0.535593
0.218902
-0.151534
-0.0673678
0.401391
-0.263948
-0.137444
-1.96179
1.7721
2.67131
-0.576164
-2.09515
0.0800941
0.0200729
-0.100167
-0.00695833
0.190435
0.140571
-0.631515
-0.823608
1.67831
0.0505945
-0.00809565
1.73175
-1.01889
1.1082
0.0392129
-0.0392129
-0.346788
0.442968
-2.42757
2.24263
-0.919869
-1.32276
-1.53474
0.794634
0.740102
-0.0181951
0.0700752
-0.0518801
0.969043
-1.16467
0.195628
-0.544601
-0.166183
0.710784
0.923745
-1.91565
0.991902
-0.0431795
-0.807328
-0.228847
0.116381
-0.152945
-0.536532
0.689477
0.657472
0.481396
-1.13887
-1.41753
-0.427356
0.717348
-0.289992
-0.721929
0.824364
-0.102435
1.45402
-1.31644
0.309884
-0.287596
0.0859411
-0.111722
-0.27802
-1.78972
2.00056
-0.210842
-1.02175
1.60446
-0.582705
-0.0218886
0.159269
-0.13738
-1.80151
-0.804244
-0.0236245
0.0151179
-1.69869
0.469803
-0.406204
0.303375
-0.139176
-0.514173
-0.0698872
-0.0043532
-0.790344
2.12395
0.0665789
-0.417121
-1.53432
0.147596
1.38672
0.0724462
-0.137474
0.0650275
-0.913461
0.193766
0.250567
-0.61545
0.364883
1.60929
-0.168493
-1.4408
-0.0462088
0.185435
-0.139226
-0.32082
0.297835
1.2991
-1.59693
-0.807593
1.80453
0.13054
0.700873
0.744046
-0.0153961
1.55665
0.254293
-1.41902
1.39157
0.361073
-0.028621
-0.332452
0.512844
0.0199719
-0.532816
-1.91801
0.273275
-0.0153079
-0.592741
-0.525813
-0.334821
0.299392
0.71894
-0.162107
-0.556833
0.203841
0.106201
-0.465709
1.32459
-0.85888
0.184022
-0.241052
-0.0532646
0.291074
0.26701
-0.56598
0.211605
0.348537
-0.560142
-0.102674
-0.0580967
0.160771
0.409515
0.283453
-0.692968
-0.00234048
-0.110926
0.113267
-0.313599
0.345485
-0.0318864
-0.0138017
-0.22018
0.233981
0.39023
-0.0891793
0.162556
-0.621923
0.459367
1.55482
-1.06059
-0.940962
-0.148972
0.250887
-0.101915
0.0590579
-0.0747739
-0.298374
-0.246129
1.02922
-0.310282
-0.003168
-1.23061
1.23378
-0.303276
-0.00524223
-0.00604146
-0.53124
0.22447
0.176921
0.199596
-0.201674
-1.22753
-0.042439
-0.0941736
0.136613
1.25877
-0.964066
1.3463
1.32501
0.104535
0.0456543
-0.156577
-1.72285
1.87943
0.789877
0.321746
-1.11162
0.283552
-0.977121
0.65673
0.320391
0.0543402
0.018106
-0.00999483
0.0824154
-0.0724206
2.03713
-1.0739
-0.963226
0.142518
-0.324893
0.182374
0.720396
0.243328
-0.963724
0.0760019
0.109174
-0.185176
1.71495
0.0285271
-1.74348
-0.463225
-0.0962434
-0.287269
0.353848
0.0338736
0.0479595
-0.0818331
-0.680199
0.257052
0.022999
0.019887
-0.042886
-0.279694
-0.623849
0.903542
1.09929
0.510004
0.993925
-0.997093
0.705576
-1.00265
-1.88009
1.7904
-0.0895865
-0.00722984
0.284157
-0.582533
0.298376
0.679783
0.930478
1.1249
-1.31138
0.186481
1.25194
-0.551071
-0.153499
0.104308
-0.0113261
0.0633091
-0.051983
-1.88834
-0.491585
2.37992
-0.382089
0.462268
-0.0801789
0.0131575
0.0260554
0.347454
2.11143
-0.153046
-0.0566876
1.14326
-1.7059
0.562641
-0.617195
-0.360462
0.977657
1.45562
-0.442831
0.774633
0.523095
-0.622739
-0.297457
0.00980439
0.287653
0.0316119
-0.25359
-0.450638
1.0355
0.0205733
0.0461988
-0.23388
-0.287377
0.521257
-0.00360821
0.972651
0.337363
-0.518341
-0.436925
-0.372154
0.433955
0.720719
-0.859895
0.131245
-0.0981656
-0.00940432
-0.438471
-1.94384
0.883249
0.309244
-0.415026
0.105782
0.0483277
-0.0400766
-0.00825109
0.239785
0.876464
0.122073
-0.0209383
0.0366107
-1.65577
1.61916
0.37078
-0.206262
-0.164518
-0.0536709
0.0759445
-0.0222736
-0.762447
1.13395
-0.0975841
-0.327612
0.425196
-0.289311
0.539878
-0.970412
1.40781
-0.437393
-0.364997
0.410734
-0.0457369
2.2199
-0.0203695
0.585964
0.0332614
-0.619225
-0.516825
0.406775
-0.189797
0.497448
1.51303
0.986552
0.126021
-2.1483
2.02228
-0.8403
-0.191556
1.03186
-0.197753
0.220953
-0.0231997
-0.283424
-0.437767
0.721191
-0.0800797
-0.0145889
0.0946686
-0.0954085
-0.0429075
-0.502877
-0.0305343
-0.00330399
-0.0414534
0.116152
-0.180295
0.464857
-0.284562
-0.271291
0.345763
-0.074472
-0.0827752
0.174458
-0.0916825
0.753739
-0.397626
-0.0310512
-0.0111856
0.628897
-1.11653
0.487631
1.22895
-0.989161
-0.0323101
-0.340153
0.372463
-0.423071
-0.61887
-1.35855
1.48269
0.0534694
-0.60878
-1.29055
0.820047
0.470507
0.445286
-0.0689402
-0.376345
1.72864
-1.72864
-1.70478
0.0914594
-0.519877
-0.199183
-0.619739
0.818921
0.521757
-0.506323
-0.0154337
0.0370016
0.0796536
-0.159042
0.0793888
-0.0321591
0.230245
-0.198086
-0.358005
1.19865
-0.840648
0.307473
0.251695
-0.559169
0.754249
-0.697214
-1.09331
0.253007
-0.0577107
-0.252331
0.310042
-0.0346678
-1.28958
-0.395442
-1.15963
0.764188
0.956197
-0.0286672
0.219049
-0.190381
-0.305689
0.40697
-0.101281
-0.327426
0.214291
-0.0882181
0.329804
-0.148944
0.0414124
0.134628
0.0984112
-0.233039
0.0455045
0.0178046
0.604746
-0.44219
-0.307513
0.322641
-0.0151276
0.00549959
0.0149767
-0.0204763
0.0785738
0.0327575
-0.111331
-0.0707524
0.188158
-0.117406
-0.479549
1.29336
0.424216
-1.05701
0.632795
-0.17046
-0.0823545
0.252814
0.000320439
-2.66287
2.66255
0.828911
-0.528847
-0.300064
0.444664
-0.0743115
-0.197086
0.0794085
-0.0694259
-0.0605548
0.203073
0.281789
-0.898606
0.616817
-0.394036
-1.21238
-0.357086
0.646247
-0.289161
-0.0940791
0.0315044
0.456557
-0.319124
-0.137433
0.805692
-0.176795
-0.866505
0.549518
-0.452413
-0.0971051
-0.585947
0.33821
-0.120267
0.561406
-0.0386542
0.0526278
-1.71106
-0.101364
-0.320778
0.587789
-0.0150662
-0.213781
-0.0632193
0.0112363
0.259432
-0.288099
-0.0847221
-1.23159
0.752044
1.96579
-0.129194
-2.05135
2.25767
-1.0989
-1.15877
-0.132923
0.499974
-0.125697
-0.741048
0.406358
-0.332507
-0.270681
-0.0267764
-0.390366
-0.463634
0.854001
0.140359
0.147959
-0.288319
0.085164
-0.925432
-1.96554
-0.327307
-0.359463
0.68677
0.096126
0.274654
-0.26885
-0.047315
0.316165
0.54323
-0.125843
0.135627
0.309659
2.20622
-1.28248
-0.791289
0.400923
-0.27223
-0.0640137
0.336244
-0.0524186
-0.132519
-1.03215
0.468594
0.201836
-0.67043
-0.0975129
-0.0385826
0.941714
-1.21641
0.2747
-0.640438
-0.059537
1.78818
-0.736632
-0.379897
0.889615
-2.25864
1.36903
-2.19909
0.900856
1.29824
0.171057
0.109639
-0.280695
0.151863
1.04214
0.0619574
0.814309
-0.876266
0.0914431
0.238109
0.176247
-0.0961525
0.28666
-0.529278
0.242618
1.29946
-1.45604
0.0452561
0.248507
-0.379241
0.130734
-1.6571
-0.0476803
-0.627525
-0.188581
0.0396092
0.130025
0.00236659
-0.132392
-0.66287
0.327243
0.335627
-0.419784
0.364428
-1.02897
-0.418536
1.44751
-0.139208
-0.0575492
0.039354
-0.525151
0.678093
-0.152942
-0.341981
1.44196
-0.177788
-0.930447
-0.60429
1.34526
-0.586052
1.03896
-1.39697
0.0123033
-0.0478795
0.0355762
1.0574
-0.588744
-1.97563
-0.362935
-0.130242
0.493176
-0.0560281
0.223838
0.190395
-0.459977
0.269583
0.317492
0.296348
0.998899
0.00785709
-0.0896395
0.328043
-0.0751778
-0.370434
0.346699
-0.168495
0.0331896
0.135305
0.268702
-0.10734
-0.161363
-0.160237
-0.0432703
0.203507
0.200729
0.174724
-0.375453
0.110124
-0.0410871
-0.172167
-0.0511782
-0.0268145
1.12625
0.0437167
0.204858
-0.248575
0.0830551
-0.152865
0.0698095
-0.058379
-0.0319659
0.0903449
0.561157
0.280892
-0.708247
-0.101986
0.391138
-0.0872255
-0.200075
0.128324
-0.145709
-0.0393032
1.78871
-0.99816
0.00316705
-0.18853
0.185363
-1.56658
0.208032
-0.0865765
-0.0180484
0.104625
-0.0478278
-0.0448942
-1.33591
-0.863184
0.404011
-0.0795024
-0.61073
-1.51325
-0.569188
0.335308
-0.0626801
-0.462471
0.766423
-0.766135
-1.82406
1.95009
-2.30116
0.412822
-0.127787
-0.0201097
0.147896
0.0309072
-0.255503
-0.376239
0.631742
-0.28159
0.073565
-0.205216
-1.40014
1.60536
-0.625297
-0.63739
1.26269
0.366769
0.414202
-0.78097
0.00311045
0.184049
0.36547
-0.286961
-0.279019
-0.191556
-0.104558
0.296114
0.012283
0.355499
0.292217
0.16434
0.335357
-0.648085
-0.0245389
0.0303238
-0.532695
0.582986
-0.0502912
-0.189758
0.388866
-1.31239
0.118022
-0.0173328
-1.66708
0.436598
0.0409453
-0.913647
-0.32707
-0.151593
-0.960555
-0.274398
1.23495
-0.0873592
0.493717
-0.57909
1.37372
-0.34498
-1.01765
-0.926198
-1.21476
1.41038
0.118939
-0.332776
0.0321083
-0.09106
0.0589517
-0.701189
0.604306
0.0968839
0.707832
-0.780934
-0.168247
0.477491
-1.11855
-0.172006
0.0576973
-0.0568016
-0.000895775
-0.461336
0.870851
-1.40987
-0.166587
1.57645
0.00958687
0.0359176
0.0112145
-0.636237
0.625023
-0.258678
0.435332
0.112012
-0.180493
-0.0505059
0.230999
-1.27392
0.859691
-0.256058
-0.0255319
-0.189737
-0.135155
-0.394868
0.0916319
0.039613
-0.0487688
0.0199001
-0.0268817
-0.0549514
0.322705
1.2402
-0.541582
1.87359
1.03299
0.594233
-0.760415
0.0389382
-1.4488
-0.277833
-0.351967
0.432849
-0.0808819
0.157475
0.0142345
-0.00993289
0.0154702
-0.0616184
0.141939
-0.23179
2.01072
-1.77893
0.150714
-0.832074
-0.133145
-0.275624
-0.0800456
0.965367
-0.299622
0.390087
-0.0904652
-0.136342
-1.55308
1.68942
0.380048
0.236488
0.285268
-0.339737
-0.503565
0.961987
-0.458421
0.0713439
0.00552201
-0.0455986
0.0451708
0.0791974
-0.124368
0.0945062
0.42966
-0.524166
-0.157236
-0.600051
0.757287
-0.29815
-0.0777556
-2.01462
0.0160445
0.239103
-0.245036
0.0500987
-0.309228
0.0531694
0.349463
-0.708926
2.37359
-1.00802
-1.36556
-0.178184
0.429627
-0.588119
0.599333
-0.116002
-0.336411
-0.196051
-0.0101866
0.623984
-0.731208
-0.131016
0.811874
-0.96911
0.157717
-0.104844
-0.0528732
-0.40893
-1.9265
1.08697
0.839537
-2.10389
2.10421
-1.06859
0.265203
0.803383
-0.0356084
0.245261
-0.209653
0.687407
0.341814
-0.115326
0.215089
-0.0114218
-0.0130606
0.0335352
-0.283048
-0.0360751
1.16374
1.20985
-0.04708
0.0275064
1.63361
-1.48653
-0.0460705
-1.38801
1.43408
1.18717
-0.0609179
-0.310467
-0.0957367
0.178531
0.133004
-0.27391
-0.0692195
0.175377
0.800121
-1.40068
0.600563
0.129271
2.24638
-1.34515
-0.901227
0.019856
0.0514858
0.0185894
0.0158931
0.918377
0.968822
-0.877363
0.707751
-1.33305
-1.21668
-0.0222654
1.23894
-1.45305
0.998842
0.454209
0.110272
0.00587963
2.42156
0.054776
-2.47633
-0.635246
1.28967
-0.654424
0.0883232
0.25744
-0.717879
-0.00405036
-0.0113428
0.0734071
-1.3556
0.235465
-0.0144953
0.0249082
-0.0104129
-0.135982
0.211669
-0.0756864
0.0966655
-0.446578
0.349912
0.57294
0.302729
-0.541188
-0.121682
0.0440699
0.861079
-0.904258
-0.0749484
-0.0678328
-0.273143
0.058937
0.956608
-0.37923
-0.577378
0.0601216
-0.355345
0.295223
0.342858
-0.566092
0.223235
0.105292
-1.55626
0.790192
0.76607
0.0768075
0.852057
0.277836
-1.12989
-0.212005
0.239915
-0.264007
0.0240926
0.18554
-0.0376888
-0.27658
0.0077292
-0.319545
-0.972501
1.01268
-0.484682
0.792406
-0.307723
-0.550474
-0.708532
1.75546
-0.764283
-0.102853
0.190947
-1.373
0.070371
-1.3577
1.28732
0.0430435
0.0878257
-0.130869
0.694228
-0.156248
-0.53798
0.410695
0.0193607
0.0236957
-1.36699
0.816512
-0.548593
1.20532
0.132678
0.606947
0.332498
0.241713
0.0269894
0.86061
-0.419327
0.0375883
0.670244
-0.940304
0.384541
-1.19991
0.562519
0.985312
-1.12165
-1.76531
1.53352
0.00148387
-1.43995
0.20681
1.23314
0.301001
0.345246
0.0520432
-0.896973
0.69779
-0.136303
-0.130579
0.266882
-2.48946
1.13626
1.3532
0.433196
0.805939
-1.23913
0.0685505
-1.28331
0.78959
0.0536545
-0.843244
-0.54222
-0.459622
-0.887788
-0.0371298
-0.0160924
0.0643121
1.5247
-1.49617
-0.0319424
-0.952683
-0.60358
0.144791
0.025779
-1.24246
1.15428
-0.302222
-1.50055
0.0204793
-0.265187
-0.90337
0.363576
-0.467092
1.88009
0.216752
0.147536
-1.17969
0.153233
-0.118284
0.18464
-0.40293
0.328915
-0.583229
0.254315
-0.0460818
0.0161118
0.02997
-0.596461
0.629722
0.178167
0.0717716
-1.0921
1.15393
-0.0618277
-0.728547
0.925792
-2.1547
1.22891
-1.02603
-0.0658086
0.110311
-1.45358
0.122047
1.33153
-0.425825
0.94766
-0.662465
0.747629
0.155934
0.909833
0.514467
-0.951392
-0.845585
-0.192671
1.03826
-1.35779
-1.57222
1.367
-0.135844
0.139669
-0.0038247
0.075485
-0.0977586
0.847689
-1.29833
-0.210299
0.418025
-0.207726
0.154412
0.313129
-0.467541
-1.04289
0.442843
0.0454848
0.0288618
-0.248056
0.397397
2.27407
0.147486
-0.780872
0.842829
-0.284219
0.0944814
-1.18522
2.34496
-1.15975
-0.0840886
0.0706634
0.08753
0.422943
-0.0078133
1.04382
1.2192
0.604091
-0.845625
0.286123
-2.28183
-0.189266
0.146827
0.120494
-1.08456
-0.237394
-0.979021
-0.228971
0.0590061
0.82888
-0.431484
-0.454152
-0.843218
0.851075
0.200109
-1.71795
0.274771
1.44317
-0.061494
0.496826
1.22773
-1.15308
-0.30057
0.784043
-0.337799
-0.446244
0.916554
-0.35746
-0.559094
-0.194361
0.0428273
0.680597
-0.681107
0.000510466
-1.49604
0.944968
0.55107
0.529418
0.878388
0.00141481
0.128611
0.814419
-0.533528
-2.2589
1.09082
1.16807
-2.2569
1.76531
1.03215
0.631353
-1.6635
0.833687
-0.739294
1.60875
-0.541288
-1.06747
-1.08298
0.194796
-0.0904873
-0.101663
-0.10552
0.210417
-0.0487145
0.136664
-0.0879498
0.187728
0.296742
-1.87474
-0.358189
0.525593
-0.238933
-0.0368357
-0.0322384
0.833914
-0.46051
-0.373403
0.828264
-0.501021
-0.144021
0.137062
-0.115234
1.24013
0.0817025
-0.038659
-0.289865
-0.753028
-1.48945
0.528898
-0.0579726
-0.100175
0.149801
0.131167
0.125246
-0.0931382
-0.515012
-0.423255
0.114523
-0.0888706
-0.0256525
0.196786
-0.786175
-0.287891
1.07407
-0.285684
-0.0235436
-0.0470302
1.23845
1.01723
-2.25568
-0.434461
0.801229
0.234889
-0.0933966
0.621909
-0.825627
-0.934431
1.76006
-0.909604
-0.871975
0.408341
0.286206
-0.132324
-0.153882
0.994203
-0.941345
-0.183561
2.04728
-1.12149
-0.205251
0.123587
-0.41761
-0.639401
0.0387285
2.06198
-1.7904
-0.271584
-0.930622
-0.558831
-0.287798
0.180568
0.0796194
-1.00981
-0.250159
1.25997
0.249926
-0.547356
0.641862
-1.61683
-1.32533
0.617951
0.707377
-0.207145
-0.00429157
0.211436
0.967154
-0.639218
-0.327935
0.118908
-0.180526
0.0859672
0.0954089
0.694915
-1.72389
0.763417
0.153136
-0.396959
-0.394329
0.217238
-0.0692786
0.164204
0.151685
-0.93786
0.027918
0.391693
0.24275
-0.354472
-0.518502
0.507857
0.010645
0.921793
0.686961
0.482721
0.054132
0.683198
0.100837
-0.784035
1.65744
-1.38267
-0.329243
0.131101
0.158147
0.0273932
0.150224
-0.075686
-0.157353
0.0045706
-0.140415
0.546687
-0.144484
-1.79329
-0.0308431
-0.176302
-0.0777971
-0.0132629
1.11311
-1.6922
0.770886
-0.353113
-0.417774
0.00471202
0.121492
-0.00894605
-0.00554925
0.380822
0.0686578
0.0921134
0.587931
-0.304478
-2.64773
1.25996
1.38777
-0.0958564
0.0155124
-0.00531573
0.126097
0.171638
-0.307488
-0.307962
0.76821
-1.59384
-0.040099
-0.95495
2.1934
0.557027
-0.0689285
-0.488098
-0.526834
-0.433785
-0.0725375
0.0988774
-1.11437
0.447763
-0.702036
0.254272
0.562112
-0.588045
0.025933
0.019892
1.07027
1.34274
-1.36226
1.38267
-2.54759
1.85458
0.693013
1.25998
-2.21493
2.6236
-1.28406
-1.06205
-1.10992
0.236523
0.113298
-0.0830901
-0.358769
-1.51624
0.0762905
-0.0135211
-1.29786
1.20324
-1.98259
0.779358
-0.0693569
0.283174
-0.347867
0.0668783
-0.112615
0.956738
1.28964
-2.31516
1.12994
-0.133633
-0.77597
-1.32976
-0.525003
-0.0630421
2.10389
-2.12426
-0.0973079
-1.13029
-0.114688
1.22436
-0.926529
-1.89101
1.82889
0.0621147
0.361716
2.30083
0.389047
0.0559726
-0.44502
1.36189
-0.654136
0.252926
0.0454147
0.674887
-0.680929
0.10286
0.138853
0.749591
0.695107
-1.4447
-0.467406
-0.299035
1.05414
-1.05606
0.0019195
0.661356
-0.45952
-1.59656
0.653434
0.943131
0.335566
0.358662
-0.96662
-0.170537
1.1122
-1.69825
0.300473
-0.587434
-0.130788
0.259111
-0.681423
0.42592
-1.42303
-1.16231
2.58534
-0.27378
0.448503
-0.388345
0.645397
1.26175
-1.86604
0.109552
1.35673
-1.89831
-0.196632
-0.101185
0.227026
-1.21619
0.105711
0.643035
0.516759
-0.00291704
-0.533615
-2.20203
0.37797
-0.0139716
0.0388029
-0.0248313
0.0808153
-0.34015
1.15919
1.09849
1.28231
-1.00761
0.0856732
0.00049135
-0.180808
0.464539
-0.336892
0.63324
-0.579717
-0.901713
2.16169
-0.0858034
0.162611
-0.848476
-0.632244
1.48072
-1.32053
0.68528
-0.073711
0.0628716
0.0274733
-1.44509
-0.0892318
-0.174416
0.62218
-1.46487
-1.18287
2.06198
0.547597
-1.25077
0.938536
-0.635806
-0.18642
0.572469
-0.207
-0.268328
0.236018
-1.41765
0.313854
-0.81742
1.28043
-2.18214
-0.797916
-0.111848
0.518622
-0.221376
-1.66963
1.33851
-1.66558
1.35083
0.655813
-1.64511
0.989295
1.51127
-0.566301
1.71873
-0.784831
-1.22083
2.00566
0.549255
1.29473
-1.04481
-0.626725
-0.698603
-1.43234
-1.11526
0.439739
-0.946514
1.55074
-0.604227
-0.145806
1.3672
-1.22139
-1.01691
-0.949509
1.96642
0.898598
0.155543
0.273231
0.375112
-0.196026
0.174617
0.0214089
0.0409246
-0.281976
0.473491
-1.40411
-0.614942
-0.400161
-0.301028
-0.0650697
0.501667
0.265444
0.639702
-1.92875
0.389443
1.53931
-0.0400314
-1.62676
1.66679
0.0257866
-0.273718
0.0756315
0.41954
-1.71319
1.71319
-0.341754
-0.0459688
0.387723
-0.524677
1.00607
-0.610903
0.0859001
-0.695994
-0.142574
0.498073
-1.36226
0.0222904
-1.30203
0.283142
1.24414
-1.2788
-1.23724
0.227435
-0.0741305
0.404627
-0.330497
0.148595
0.532002
-0.0516933
0.00561145
-0.992165
-1.2119
0.158017
1.05389
-1.37729
-0.0122538
-1.09282
-1.06188
0.0527845
-0.233278
0.174833
0.498414
-0.614416
-0.0572367
0.030355
0.396382
-0.356115
-0.325308
-1.07822
1.51256
-0.434341
0.343201
0.191084
-0.225298
0.420779
-0.195482
-0.36763
0.138098
0.316408
-0.597327
0.280919
-1.02999
1.86369
-0.831544
-1.48559
-2.01938
0.466302
-2.02108
0.0559495
0.926383
1.11074
0.111593
-1.01496
1.56013
0.440435
0.662216
-0.529538
0.634216
0.620604
0.213083
2.12837
-0.847947
-0.839957
-0.630006
1.46996
1.16486
-0.0498526
-1.11501
-0.0433016
-0.109563
-0.220809
0.198921
0.152843
1.35191
-1.50475
-1.31215
1.12165
0.190494
1.31215
-1.53352
0.238352
-0.307709
-1.49093
1.03131
0.0899522
-0.0912752
0.0501882
-1.66261
0.135723
1.65829
-1.00248
-0.265662
-0.0991477
0.132337
-0.470774
0.715202
0.27024
-0.087866
0.339809
-0.464178
0.189119
-0.256487
-0.603277
-0.0595066
0.707272
-2.08023
0.527154
-0.10239
0.481369
-0.378979
-1.05579
-0.926799
0.108798
0.678455
0.439637
-0.901177
0.120306
-0.327026
-0.239066
0.138381
-2.22701
1.16496
0.0613601
-0.0610702
-0.227029
0.0376239
-0.0863927
-0.0875586
-1.37843
0.617014
-1.73954
1.12252
0.0749968
0.273415
-0.348411
0.0325721
-0.284543
-1.05858
1.34172
0.410159
0.39107
1.30821
-1.15308
0.205716
0.0524787
1.70547
-1.95902
0.25355
0.341838
0.336255
-0.82986
-0.0133848
0.382918
-0.51316
-0.0374207
0.048657
-1.22433
0.325933
-0.0718487
-0.254084
-1.50737
0.207563
1.29981
-0.0147157
0.0243026
-0.0228457
0.0515643
-0.0287186
1.19344
-1.16766
-0.00215716
0.018269
0.604083
0.214838
0.0557819
-0.0566777
-0.088158
0.119662
0.206514
0.669449
-0.875964
-0.430276
-0.0163018
-0.920875
-1.01825
1.93912
0.170291
-0.110079
0.295441
-0.916781
2.10421
-0.100597
0.131504
0.061716
0.098703
0.142292
2.25093
-1.0872
-1.25314
0.825938
-0.512083
-1.16004
2.32812
-0.0723864
0.141044
-0.13866
0.151817
-0.0308257
-0.217749
-0.309379
0.204821
-0.307342
0.69802
-0.199607
1.2168
0.10355
-0.0659259
0.250907
-0.0318583
0.0424781
0.139404
0.0359729
0.469471
-0.825586
0.226672
-0.262919
0.0362475
0.145599
-0.0577737
0.213746
0.750729
-0.964475
-0.262973
0.132394
0.436807
-0.524166
2.43122
-1.16837
1.02357
0.88865
0.052859
0.477304
-1.20978
0.364425
-0.490267
-0.374198
1.51636
0.689862
-1.52101
1.52101
1.57523
-0.888016
1.07288
-0.0503405
1.54041
-1.49007
0.909591
1.03485
1.24562
-2.66865
0.119943
-1.08905
-1.35453
-0.172946
-1.45021
1.62315
-0.422099
-0.163848
0.0823548
1.25296
0.180757
-0.288097
-0.667054
1.58792
-0.920862
-0.182736
0.285597
-0.00231205
-0.0856918
0.140032
2.59869
-1.08634
-1.51235
1.58718
-1.46514
1.11121
0.232601
0.0221021
-0.00596036
0.0146942
1.5632
0.508732
0.553209
0.771379
0.0258422
0.212689
-0.238531
-0.365428
0.230273
0.195639
-0.211328
0.0156891
0.173988
-0.236887
0.0628991
0.443439
-0.399369
0.350679
-0.540437
0.6661
-0.569871
0.0363758
0.0401057
-0.0031041
0.291368
-0.0698057
-0.221562
-0.193583
0.18887
0.0047138
2.12426
-1.69106
0.292334
-0.312941
0.020607
-1.5247
-0.36319
0.275964
-0.994936
1.90453
0.268464
-0.34851
2.73887
-1.49325
0.25641
-0.331588
-0.175325
0.485937
-1.28915
-0.260614
1.45807
1.32313
-1.09611
-0.105946
0.163679
-0.120621
-1.48121
-0.308427
0.300962
0.254249
-0.387394
-0.390626
0.300161
-0.098914
-1.33934
1.29327
-1.44352
1.50258
-1.13577
-0.548385
0.429742
0.708024
0.408619
-0.444694
-0.0734802
0.143637
0.355944
-0.49958
-0.386472
1.38921
-0.838799
-1.13917
-2.44479
-0.0949206
0.0906593
0.00426135
-0.0271404
1.45265
-1.42551
1.3882