/*--------------------------------*- C++ -*----------------------------------*\
| =========                 |                                                 |
| \\      /  F ield         | OpenFOAM: The Open Source CFD Toolbox           |
|  \\    /   O peration     | Version:  2306                                  |
|   \\  /    A nd           | Website:  www.openfoam.com                      |
|    \\/     M anipulation  |                                                 |
\*---------------------------------------------------------------------------*/
FoamFile
{
    version     2.0;
    format      ascii;
    arch        "LSB;label=32;scalar=64";
    class       volVectorField;
    location    "9";
    object      U;
}
// * * * * * * * * * * * * * * * * * * * * * * * * * * * * * * * * * * * * * //

dimensions      [0 1 -1 0 0 0 0];

internalField   nonuniform List<vector> 
5098
(
(2.34649 1.01818 0)
(2.05651 0.0887967 -6.78238e-20)
(2.49992 -0.0337483 -1.38659e-21)
(1.66913 -0.731393 3.43274e-19)
(3.56432 -1.06855 0)
(1.01805 -0.485962 0)
(2.49258 0.0154004 1.25408e-19)
(3.05458 -0.173275 1.82738e-21)
(2.68583 -0.0486966 -3.10903e-20)
(1.7355 -0.258228 3.13773e-19)
(-2.81571 1.24907 0)
(1.98505 -0.00949601 5.23324e-20)
(2.23716 0.279973 2.17093e-20)
(1.06059 -0.521207 0)
(2.64239 -0.534103 1.68278e-19)
(1.82352 0.0754044 -1.37582e-21)
(-2.39398 0.82702 -8.98957e-19)
(-2.39447 1.82379 0)
(-0.238903 0.207527 1.91835e-19)
(-2.20317 0.823746 1.02898e-18)
(1.78244 0.467809 -8.44237e-20)
(1.76195 0.0746311 -5.07827e-21)
(2.48429 -0.782919 0)
(0.88999 -0.0481007 2.59442e-20)
(-0.0845502 0.205279 0)
(1.58584 -0.637158 0)
(1.99537 -0.000157259 1.14775e-19)
(2.08353 -0.820284 -1.09303e-20)
(-0.322926 0.192259 -5.8931e-19)
(2.33103 -0.921559 0)
(2.29821 -0.0720641 -2.89167e-20)
(0.841511 -0.412429 0)
(2.09571 0.0422521 -9.73781e-20)
(-2.81547 1.11389 0)
(2.4749 0.385365 1.41416e-20)
(3.67599 0.607879 6.61053e-19)
(2.02019 -0.393417 4.64587e-20)
(2.10828 -0.00588722 -2.14262e-21)
(1.43916 -0.497039 3.74405e-19)
(1.76398 -0.775245 0)
(1.68495 -0.74984 -1.45648e-19)
(-0.0782778 2.52386 -9.286e-19)
(1.61006 -0.637185 0)
(2.45633 -0.340754 7.95813e-20)
(2.29872 0.671575 -5.99266e-20)
(2.04248 0.0628447 9.54078e-21)
(-2.41944 1.04719 3.09572e-19)
(1.20432 -0.426081 0)
(2.27504 -0.0786532 0)
(1.66337 -0.692627 3.7415e-20)
(2.18018 0.123643 1.29024e-19)
(1.63473 0.388527 -4.47037e-19)
(0.203722 -0.115112 7.28588e-23)
(2.12562 -0.0434462 8.17756e-20)
(1.07824 -0.534952 -1.97369e-19)
(1.6335 0.0604393 0)
(1.86663 0.226135 -2.32991e-19)
(1.77896 -0.687926 0)
(0.986955 -0.488202 0)
(2.09769 -0.016505 -4.02138e-20)
(1.67217 -0.482217 -1.80972e-20)
(-1.48753 0.820381 -8.84359e-19)
(2.48549 0.419872 0)
(2.13352 0.304824 0)
(0.255713 -0.129441 1.11043e-18)
(0.93555 -0.471955 2.99113e-19)
(2.56151 0.0720691 -2.81395e-21)
(2.24469 0.180383 3.18872e-20)
(2.17598 -0.155639 2.84766e-20)
(1.84125 -0.73781 7.22916e-20)
(1.906 0.163627 7.95212e-21)
(0.937906 -1.34755 -1.31913e-21)
(2.20255 -0.827906 0)
(-1.09149 0.425792 0)
(1.87191 -0.34056 2.69186e-20)
(1.27243 -0.615908 -1.83768e-19)
(1.71748 -0.230836 0)
(1.57165 0.137503 3.6341e-19)
(2.16928 -0.300098 1.01812e-19)
(1.66858 0.101706 0)
(1.7882 -0.0626822 0)
(0.870321 1.5987 2.06767e-19)
(1.80922 -0.304509 2.98548e-19)
(-2.72481 1.19217 -1.91278e-19)
(-2.2619 1.80438 5.67584e-19)
(2.15685 -0.858617 -8.51824e-19)
(0.221667 0.134554 -2.57214e-19)
(1.72886 -0.251849 7.08877e-22)
(3.06147 -0.00148161 6.36889e-20)
(1.54215 -0.451221 -1.15908e-20)
(2.29701 -0.0826747 3.35072e-22)
(1.00347 -0.510985 4.24289e-19)
(2.45212 -0.0432961 -7.00235e-20)
(1.68462 -0.712482 -1.82612e-19)
(1.41647 -0.518683 6.57484e-20)
(0.501851 -0.876287 -1.1505e-19)
(1.23066 -0.605087 -8.99358e-20)
(1.49827 0.195605 2.78311e-19)
(1.79935 -0.313222 8.62464e-21)
(2.22705 -0.383685 1.65541e-20)
(2.37208 -0.527339 -9.42629e-19)
(1.13821 -0.55943 -2.19489e-19)
(1.77771 1.79655 -1.29644e-18)
(2.5292 -0.0945635 8.54832e-21)
(1.58875 0.110705 -4.13101e-19)
(2.22954 1.06952 0)
(1.93506 0.208419 2.5086e-19)
(2.30215 0.0943349 7.84928e-20)
(1.15026 -0.473689 5.92409e-20)
(-2.7447 1.31237 0)
(1.21551 -0.57612 -3.10421e-19)
(0.752891 0.301786 2.7338e-19)
(1.93 -0.0276073 -1.56881e-19)
(1.04488 -0.39879 1.05783e-19)
(1.72507 0.5413 1.23039e-19)
(-0.480589 0.270155 0)
(1.40569 1.46324 7.57657e-19)
(2.35909 1.3827 0)
(1.549 -0.328346 -4.07909e-20)
(0.926968 -0.0960182 -3.91801e-19)
(1.69942 0.365938 3.67203e-19)
(1.41068 1.67882 -3.93736e-19)
(1.6612 -0.327066 -2.00974e-19)
(-0.756842 2.26092 -4.33544e-19)
(0.41302 -0.597332 -5.6933e-19)
(-1.31688 0.543234 1.14976e-19)
(2.29377 -0.0350571 6.47691e-20)
(2.43496 -0.743032 2.75644e-19)
(1.44012 -0.193682 -8.76851e-20)
(1.02639 -0.398653 -1.98684e-19)
(-1.22266 2.10418 -6.20725e-19)
(1.2449 -0.561616 -4.1202e-19)
(1.26872 -0.559073 3.41805e-19)
(2.27569 1.38754 -1.12665e-20)
(0.481396 -1.6441 -2.91451e-18)
(3.68514 -0.0528729 5.03762e-19)
(1.71415 2.10205 -4.83819e-21)
(1.91539 0.201541 1.7519e-19)
(0.986801 -0.486376 0)
(2.13014 -0.046578 -2.76002e-19)
(1.59719 0.472681 -3.03335e-19)
(3.57277 0.336974 9.13536e-19)
(2.02042 -0.877089 -1.02189e-19)
(2.46646 -0.0339582 -6.40765e-21)
(2.02733 0.0483054 -6.74718e-20)
(2.43485 -0.0131366 0)
(2.16389 -0.170175 4.88113e-20)
(3.09789 -1.70992 0)
(2.86766 0.028802 2.79647e-19)
(2.00338 -0.872034 -1.16022e-19)
(1.36813 1.95502 -8.20659e-19)
(1.4209 0.879193 0)
(3.40952 -1.60323 3.81227e-19)
(2.07976 0.038776 0)
(0.219477 0.0603121 -3.13199e-19)
(0.940009 -0.37502 -1.55835e-19)
(1.77842 -0.685228 -1.52412e-19)
(2.03333 -1.23409 -6.35836e-19)
(1.63707 -0.748344 -1.25741e-19)
(-0.134979 0.0821769 6.35028e-19)
(2.09875 -0.367807 -7.79962e-20)
(2.6696 -0.568817 -2.19695e-19)
(0.463221 0.701627 -2.70039e-19)
(1.90406 -0.193931 -1.7722e-19)
(-2.03089 1.70493 -4.00537e-19)
(2.27341 -0.114956 -5.26853e-20)
(3.616 -1.3906 -1.41162e-18)
(2.62764 -0.117431 0)
(-0.623303 0.671406 3.87726e-19)
(1.84217 -0.556329 -1.90628e-19)
(0.574905 -1.02751 8.18397e-20)
(1.66273 -0.66187 -1.30247e-19)
(2.14579 0.54916 2.06839e-19)
(2.07167 -0.778914 -3.60865e-20)
(2.59488 -0.0437425 0)
(1.93349 0.00480744 0)
(1.83377 -0.299599 -1.06101e-19)
(3.16642 0.645556 -1.9085e-20)
(1.84357 -0.172782 2.79179e-19)
(0.397464 -0.00802885 0)
(1.53024 1.94598 0)
(1.7802 1.37074 -4.51044e-19)
(1.92686 -0.529011 1.84311e-19)
(-1.92135 1.74303 0)
(1.93943 -0.199095 0)
(2.54438 0.853722 2.11517e-20)
(1.54817 0.223306 0)
(2.04507 -0.37741 1.35694e-19)
(1.12996 -0.545432 3.35967e-19)
(0.330995 0.242194 -2.2833e-19)
(0.786105 0.55543 0)
(1.51714 0.408299 7.83243e-20)
(2.23702 -0.857014 0)
(1.86905 -0.36438 2.62297e-20)
(2.28289 -0.101046 5.49153e-21)
(1.1101 -0.448338 -4.7979e-19)
(2.2375 0.606567 1.19388e-19)
(3.9479 0.174496 0)
(2.0964 0.0362444 5.30892e-22)
(1.88681 -0.533663 -2.66425e-20)
(-0.922745 1.59996 -9.16275e-19)
(1.70755 0.298207 5.49492e-21)
(2.30362 0.675836 -5.14482e-20)
(2.35602 0.0111105 7.63266e-21)
(1.53361 -0.00117804 1.02293e-19)
(0.912617 -0.378499 -1.1032e-19)
(2.66564 0.124644 -5.87347e-21)
(1.30933 -0.608414 0)
(2.40961 -0.0540133 0)
(1.5898 -0.746656 2.10035e-19)
(2.03584 -0.138982 -8.37112e-20)
(1.74594 0.261953 2.88553e-19)
(1.7172 0.541708 -6.9363e-20)
(2.07397 0.0901554 -2.50127e-19)
(2.45272 -0.0789178 -2.59513e-19)
(-0.15329 0.240589 -1.58698e-19)
(1.95275 -0.383255 0)
(-2.71613 1.49719 -1.24948e-18)
(0.643545 -0.530145 7.85872e-20)
(2.00039 0.0521929 1.55489e-19)
(2.27859 -0.0616109 1.30039e-21)
(1.69315 -0.348284 0)
(2.64768 0.103322 -9.71828e-21)
(2.27507 -0.112158 -2.80226e-20)
(0.768685 -0.206947 1.27232e-19)
(2.10009 -0.131858 0)
(0.525542 -0.163339 0)
(1.98573 0.00939977 0)
(2.17413 -0.407616 0)
(2.60868 -0.812369 -7.9566e-20)
(1.78729 0.37653 0)
(0.722577 -0.317015 -4.22694e-19)
(1.68371 0.863395 -2.26258e-19)
(1.90449 0.056663 1.6959e-21)
(2.56841 -0.0661275 -3.70704e-20)
(2.28853 -0.0557639 0)
(1.38956 1.26956 -2.85898e-19)
(-0.00309652 0.624537 -9.27574e-19)
(3.18271 0.443879 0)
(1.91174 -0.0341403 2.25296e-19)
(0.548449 1.58723 -7.07117e-19)
(2.16476 0.571662 0)
(2.73246 -0.00800901 0)
(1.15513 -0.29777 6.69725e-19)
(1.78583 0.409491 -4.09973e-19)
(2.27649 -0.0323729 -5.13184e-20)
(1.18281 -0.56639 6.1144e-20)
(-2.73643 1.33347 -8.44491e-19)
(-2.71469 0.937713 0)
(2.35695 -0.0384825 1.39383e-20)
(2.07218 0.740441 -1.96299e-19)
(2.10644 -0.81164 -7.59264e-20)
(-0.677361 0.0211793 2.5868e-19)
(-0.436184 1.22222 4.7137e-19)
(1.99916 0.0268805 -1.67656e-19)
(0.0916138 0.485258 8.58949e-19)
(1.63882 -1.70643 2.51675e-18)
(0.542366 0.227895 -2.66615e-19)
(1.23814 -0.447038 -2.62074e-19)
(1.70073 0.00796505 1.70655e-20)
(2.55407 0.849506 -4.06438e-21)
(0.33348 -0.116273 5.10965e-19)
(0.0936736 0.0147892 5.573e-19)
(2.14677 -0.862614 0)
(2.14473 0.0647378 1.87482e-21)
(-2.01178 1.20989 2.90117e-19)
(-0.103249 0.0694122 -7.45635e-19)
(-2.69205 1.12593 0)
(0.468221 -0.653421 0)
(1.89667 -0.0292024 -2.08172e-20)
(0.51597 0.29608 2.81033e-19)
(1.78405 0.0881071 -1.21519e-19)
(-0.201009 0.0924855 -3.34359e-19)
(0.680994 -0.627429 0)
(1.24487 -0.511133 2.8795e-21)
(1.24982 1.89653 -8.58909e-19)
(-0.272023 2.51369 -1.27722e-18)
(1.93203 1.51976 0)
(2.6591 -0.496734 0)
(2.02856 -0.111382 0)
(-1.35987 1.98702 -3.46696e-19)
(2.9647 -0.188143 1.87818e-19)
(0.805662 -0.171774 -5.39858e-19)
(2.88375 -0.112808 -2.08686e-19)
(3.7077 0.13831 -8.58086e-19)
(-1.36879 1.25824 0)
(1.98193 0.0207106 0)
(2.70642 -0.0374197 4.23944e-20)
(2.32747 -0.1176 4.27314e-20)
(1.55038 -0.000588637 -8.45428e-20)
(-0.480578 2.34421 0)
(-1.26702 -0.651886 3.74563e-19)
(1.16143 -0.0951748 -2.00873e-19)
(2.31788 0.549689 -6.84464e-20)
(2.19148 -0.572649 -4.5816e-20)
(1.06549 -0.237595 -1.93257e-19)
(2.51259 0.148121 0)
(2.28676 -0.0913029 -3.49471e-20)
(2.03562 0.00701156 0)
(2.06413 0.0369839 -9.98069e-20)
(2.34754 -0.0941363 -3.48376e-20)
(2.71783 0.110059 4.05256e-20)
(1.70439 -0.44977 3.16217e-19)
(1.84952 0.387631 2.34958e-19)
(-1.89024 1.14706 -4.71525e-19)
(1.97534 -0.743962 -2.52436e-20)
(2.20694 1.70542 -2.92301e-20)
(2.09114 -0.0038979 0)
(1.94634 -0.388055 0)
(-2.61492 1.03808 0)
(2.28905 -0.125738 1.02387e-21)
(-0.856616 -0.0558758 2.7777e-20)
(0.944911 -0.467527 2.44033e-19)
(2.0383 -0.0846772 -8.5619e-20)
(2.30055 0.324834 1.35023e-19)
(0.28727 -0.0204415 6.1896e-19)
(1.70669 2.00893 4.92529e-20)
(2.65199 0.102543 9.21286e-21)
(2.26265 -0.0449619 1.47454e-19)
(0.989858 -0.424051 0)
(2.29531 -0.301785 -1.2443e-19)
(-1.25759 -0.684399 -7.26051e-19)
(3.17554 0.295869 -3.88194e-19)
(0.106127 -0.483346 -1.84015e-20)
(1.79683 -0.286429 9.74992e-21)
(1.42321 -0.470156 2.64923e-19)
(2.06209 0.797478 0)
(1.99621 0.0623359 -8.14747e-20)
(1.16575 -0.479071 -6.20422e-19)
(1.54619 -0.324612 3.9438e-20)
(1.45343 -0.689889 0)
(2.31688 -0.0576389 -4.545e-20)
(1.14632 -0.55387 1.66742e-19)
(2.76252 -0.519299 3.76164e-19)
(1.87455 -0.737994 -8.08581e-20)
(2.3036 0.0888396 -1.24061e-19)
(2.26076 0.00517262 -1.83691e-20)
(1.08156 -0.532462 2.35404e-19)
(2.17601 -0.0511138 8.4208e-20)
(1.94571 -0.33624 0)
(2.04601 -0.889827 9.99778e-20)
(1.81844 -0.740174 -3.06256e-19)
(2.20804 -0.244209 2.74845e-20)
(1.99824 0.019421 3.1637e-20)
(1.34137 0.94637 0)
(1.75318 -0.287099 0)
(2.1529 -0.037194 -8.04635e-20)
(0.282283 0.244013 1.47415e-19)
(2.41206 1.32842 0)
(2.2342 -0.0438898 5.21093e-20)
(2.27127 -0.931291 -1.2896e-20)
(0.985725 0.236858 -5.46244e-19)
(0.987249 -0.42743 -3.50797e-19)
(-1.13766 1.78287 3.37273e-19)
(1.93821 -0.0829517 5.03148e-20)
(-1.31644 1.79347 1.34413e-18)
(4.00744 0.0709842 -6.94043e-19)
(1.96813 -0.0230671 0)
(1.47813 -0.160054 -7.73597e-20)
(1.17817 -1.44062 0)
(1.97456 0.0642344 -3.86535e-19)
(2.13719 -0.33737 0)
(1.99868 -0.00288755 -4.81099e-20)
(1.6815 -0.251149 2.21563e-20)
(2.51921 -0.312136 -6.63926e-20)
(1.2229 -0.486097 3.45716e-19)
(1.97797 0.0397421 -2.95048e-19)
(1.99039 0.153564 -4.52185e-19)
(2.52237 -0.961789 0)
(-0.0501992 0.860763 0)
(1.29344 -0.525773 -3.26209e-19)
(2.45562 -0.356262 0)
(3.24205 0.940612 -5.02582e-19)
(1.5839 -0.376176 0)
(0.735143 -1.41949 1.76594e-21)
(-1.84351 0.96479 7.74767e-19)
(1.89918 -0.559702 2.30692e-19)
(1.17041 0.59843 -5.62499e-20)
(2.57507 -0.146942 0)
(1.67493 -0.257627 -2.42262e-20)
(1.7466 0.0237585 -1.27511e-19)
(-1.44229 0.568458 -1.24186e-19)
(1.9778 0.017674 -1.51221e-19)
(2.76464 0.104008 -3.33842e-20)
(2.56368 -0.166447 -2.6427e-20)
(2.76939 1.13221 1.24239e-19)
(2.43096 0.479354 7.05504e-20)
(-0.121774 0.829606 -2.03754e-19)
(1.82566 -0.507986 0)
(1.50508 1.82177 1.37352e-18)
(1.98585 0.0881143 -1.45168e-19)
(2.15069 -0.157142 0)
(1.9928 0.0189589 1.1177e-19)
(1.29199 -0.613232 -1.2298e-19)
(1.55823 1.10161 2.29453e-19)
(2.62624 0.408601 0)
(1.49968 -0.70218 6.12691e-20)
(-0.915113 -0.987864 0)
(2.15748 0.0617905 5.9252e-20)
(2.8645 -0.379113 -2.19035e-19)
(0.197466 0.785517 7.37026e-19)
(1.12622 -0.112069 0)
(1.57988 0.205286 1.96047e-19)
(1.97983 0.033512 1.22801e-19)
(-0.417492 0.239456 0)
(1.58858 0.0139118 0)
(2.0822 -0.133701 0)
(-0.230382 0.154202 9.02641e-19)
(1.20292 0.701122 -3.21495e-20)
(2.97452 0.0987081 0)
(1.99292 0.000371 0)
(1.58173 -2.16011 5.71612e-19)
(0.567904 -0.143867 0)
(2.3014 0.495215 6.76458e-20)
(2.55012 1.26443 3.62162e-20)
(1.87205 0.0236863 -1.18331e-19)
(1.81975 0.346337 -6.85234e-21)
(0.981035 0.304841 6.27435e-19)
(2.53034 1.41876 -6.59203e-20)
(2.26531 -0.080515 4.76007e-22)
(2.16956 -0.0480947 7.26749e-20)
(1.67747 -0.200096 -1.74058e-19)
(1.24646 -0.515366 -1.67019e-22)
(2.00992 0.00629054 0)
(-1.47557 1.88975 -1.3013e-18)
(0.873428 -0.54403 0)
(-1.06707 0.226963 1.86726e-20)
(2.67581 -1.85136 0)
(1.93795 -0.371386 0)
(1.52326 -0.711196 1.73888e-20)
(2.32676 0.112147 8.09801e-21)
(-0.24747 0.103111 -6.62983e-19)
(2.13405 0.0183166 -6.80677e-22)
(1.97701 -0.70662 4.47608e-20)
(2.70307 1.20152 5.9079e-20)
(-0.0378437 -0.485393 5.68979e-19)
(2.66969 0.0312874 3.97692e-21)
(2.42203 -0.841864 -1.78913e-19)
(1.96317 0.0298909 -2.49374e-19)
(0.323543 -0.401468 0)
(1.87093 -0.129402 -2.88327e-19)
(1.97092 -0.445478 1.20979e-19)
(1.99163 0.0940318 -5.82776e-19)
(-1.74621 0.553999 -8.13822e-19)
(1.4943 1.09532 -1.7204e-19)
(2.48471 1.3201 7.12351e-20)
(3.45298 0.542022 0)
(2.55563 -0.502855 0)
(-0.0410904 0.107325 -2.4059e-19)
(2.13501 -0.0793709 4.45446e-20)
(-2.68012 1.06495 0)
(2.27251 -0.04549 -3.64264e-20)
(1.99944 0.00998483 -2.50369e-19)
(-2.36221 0.733341 -5.06224e-19)
(-2.92029 1.10636 2.0366e-18)
(2.51031 -0.20131 -2.02934e-21)
(-0.580707 2.53627 -3.49771e-20)
(2.29128 -0.0576345 1.73538e-19)
(2.07348 -0.370286 3.95616e-20)
(3.054 1.23156 3.51768e-19)
(1.62384 -0.657557 1.78052e-19)
(1.44939 -0.268417 5.54579e-21)
(1.0722 0.17826 4.46815e-19)
(1.77749 1.85536 0)
(1.83842 -0.487447 1.0593e-19)
(-2.53287 1.60234 0)
(1.08803 -0.226386 -1.40901e-18)
(0.390071 2.30161 0)
(-1.51371 0.869556 -1.86417e-18)
(1.7444 -0.716624 -1.86917e-19)
(0.547698 0.470475 -1.10703e-19)
(2.57917 -0.906193 0)
(-1.93748 0.0854928 0)
(3.25241 0.403784 0)
(1.99601 0.0686948 1.06387e-19)
(-0.207898 -0.715215 -5.04273e-19)
(-0.143051 0.396299 4.83108e-19)
(1.66285 -0.329605 -8.31139e-21)
(2.96709 1.25534 -4.2871e-19)
(2.02859 0.217238 0)
(1.13158 1.66404 4.16529e-19)
(2.20626 1.29092 -2.76978e-20)
(-0.889523 -1.16233 -2.04614e-19)
(1.85098 -0.828796 -1.63253e-19)
(2.27223 -0.377201 8.7058e-21)
(1.34068 -0.637635 1.07467e-19)
(2.20082 0.473845 0)
(2.86047 -0.348175 2.04936e-19)
(0.0077078 0.0963311 3.25656e-19)
(2.00361 -0.0211945 7.77195e-21)
(3.23039 1.08526 -2.52519e-19)
(3.02061 -1.76802 0)
(2.36918 0.802557 0)
(0.373955 0.0982894 0)
(0.76148 -0.503163 0)
(1.76548 0.0312356 0)
(1.49477 -0.575588 9.49783e-20)
(3.30266 1.23516 4.11869e-19)
(1.53993 -0.64053 2.34919e-19)
(2.08692 0.0451016 1.82165e-19)
(-2.38824 1.67225 0)
(2.40801 -0.889235 2.87412e-21)
(-0.31285 0.426236 0)
(-2.40848 1.79751 -1.07104e-18)
(-0.240123 0.210402 2.7426e-19)
(3.12 0.919129 -2.64642e-19)
(1.98175 0.0764728 2.92381e-19)
(2.0309 0.22607 -1.03823e-19)
(2.91654 0.589325 -1.43652e-19)
(2.55125 0.0241315 0)
(0.0744149 -0.615768 5.44676e-19)
(2.00926 -0.00481975 0)
(1.52726 0.739066 1.71674e-20)
(2.31016 -0.135172 0)
(2.062 0.189016 -1.44868e-19)
(2.10183 -0.0669241 0)
(1.02009 -0.395295 -2.48551e-19)
(0.363508 -0.278898 9.29842e-19)
(2.68189 -0.276236 -1.6217e-19)
(1.39992 0.271749 4.04059e-19)
(-0.365766 0.254301 -1.84321e-18)
(3.36287 -1.18905 0)
(1.12634 -0.267041 -9.48763e-19)
(1.63476 -0.229732 -1.27293e-20)
(3.15274 0.506462 -6.87432e-19)
(1.68081 0.018962 -2.09681e-21)
(2.22453 0.778754 6.15828e-19)
(1.97502 0.900954 0)
(1.98384 -0.847588 5.45084e-21)
(1.99854 -0.85434 0)
(2.21769 -0.160033 1.10534e-20)
(0.579455 -0.198609 6.68843e-20)
(-1.86665 2.05779 0)
(2.32619 0.47883 0)
(0.445366 -0.907641 -1.74023e-18)
(2.31638 0.740907 0)
(1.55368 1.55917 3.61778e-19)
(2.64269 1.08292 -1.10243e-19)
(1.03107 -0.30271 -4.53154e-19)
(-2.78233 0.97531 -8.54865e-19)
(1.98405 0.00707716 -2.39858e-21)
(-0.363575 1.98663 -1.85957e-19)
(0.300225 -0.230488 -5.84465e-19)
(1.93175 -0.0240011 3.33381e-19)
(-2.24737 0.698144 5.78889e-19)
(-1.33119 0.751661 0)
(2.42075 0.186793 4.24601e-20)
(-0.753649 -0.609443 2.19994e-18)
(0.514132 0.116226 7.46811e-20)
(3.25367 0.710411 5.31546e-19)
(2.41144 1.58948 0)
(1.96571 -0.48303 -1.23389e-19)
(1.6459 -0.288646 3.74775e-22)
(1.21412 0.726665 -4.36893e-20)
(2.91912 0.0192083 -2.92312e-19)
(-2.87536 1.15896 5.4763e-19)
(-1.46293 2.19434 8.21487e-19)
(1.55304 -0.625726 -5.78054e-20)
(-2.8318 1.11066 -6.36736e-21)
(3.05499 0.0249466 -3.5256e-19)
(-2.84915 1.09011 -6.15454e-19)
(2.96192 -1.39358 0)
(1.96933 -0.147616 -2.50949e-19)
(-1.04621 -0.206841 0)
(-2.2166 1.44675 -8.66366e-19)
(-0.690795 0.0913978 1.73855e-19)
(-0.904138 -0.140521 4.2831e-19)
(1.69882 -0.266327 8.83773e-21)
(-0.183923 0.210553 7.66661e-20)
(-0.838374 0.225196 0)
(2.58582 -0.740667 -6.68747e-19)
(2.72217 -0.874512 -3.51525e-19)
(-1.00126 0.0378079 -3.97463e-19)
(1.73827 0.453645 0)
(1.66158 0.431788 0)
(0.316364 0.209814 0)
(0.910604 -2.06397 -4.03893e-19)
(1.9521 -0.0580692 -2.94374e-19)
(1.38717 0.0815277 0)
(2.38636 -0.535833 0)
(2.24382 0.207477 -3.70593e-20)
(1.09882 1.86413 -1.2972e-20)
(2.07084 0.301666 -4.4604e-19)
(3.42334 0.781858 -1.39514e-18)
(1.61599 0.039402 1.00605e-19)
(2.08949 -0.0521248 -6.7228e-20)
(1.67044 -0.227417 3.80139e-20)
(1.90487 0.496298 -3.0735e-20)
(1.75299 1.09501 0)
(0.331071 -0.239227 -6.31154e-22)
(-0.501423 -0.738444 0)
(1.10757 0.0752859 0)
(2.89946 0.476883 -2.09487e-19)
(-2.21542 1.86595 0)
(2.42645 0.459736 0)
(1.97929 -0.107411 3.90767e-19)
(2.2421 -0.899814 0)
(1.99657 0.177164 4.59496e-19)
(3.20035 0.881117 2.51743e-19)
(2.991 0.894841 8.11265e-20)
(1.46753 -0.373901 -5.02985e-21)
(1.10745 1.08831 2.91954e-19)
(2.65822 -0.817542 -1.36875e-20)
(2.85115 -0.869067 6.05982e-20)
(1.26842 -0.504869 3.26538e-19)
(-1.88041 1.09928 0)
(1.0628 -0.52717 0)
(-1.44557 1.29587 -1.03665e-18)
(0.399431 -0.278878 -1.23729e-18)
(-1.86769 0.730515 0)
(-2.22812 0.900273 1.52818e-18)
(0.226522 -0.168782 0)
(-0.264163 -0.618999 5.40147e-19)
(1.23423 -0.579489 -4.04247e-19)
(3.31656 0.754946 -1.13505e-20)
(2.91734 1.02416 1.71765e-19)
(1.31149 -0.462825 6.44275e-20)
(2.96811 -0.0113518 1.46496e-19)
(2.16849 0.917435 0)
(2.24754 0.914867 0)
(1.15737 -0.0367115 0)
(-0.574907 0.29449 -2.62734e-19)
(1.49544 -0.572254 0)
(2.16759 0.668625 0)
(1.61906 0.0193544 0)
(1.96688 0.348977 4.51196e-20)
(0.804847 -0.398628 2.01539e-19)
(2.3094 -0.761567 1.43321e-19)
(0.53286 -1.93793 1.18597e-18)
(1.728 -0.408368 0)
(-1.59178 2.15604 0)
(2.19375 -0.513747 4.22403e-20)
(1.57227 0.469323 6.47212e-19)
(-0.293531 0.368955 -4.94445e-19)
(2.58065 -0.0740483 3.59726e-21)
(1.86737 -0.45403 1.80618e-19)
(1.04698 0.322421 -1.00632e-18)
(0.367215 -0.292173 0)
(1.17211 1.11906 -6.93863e-19)
(0.482323 0.227345 -6.30665e-19)
(3.03538 0.767841 0)
(2.21572 -0.008308 0)
(2.28241 -0.0459916 0)
(2.05819 0.0401212 -3.4906e-19)
(1.45875 0.198259 -4.05895e-19)
(1.6896 0.0786096 0)
(2.01322 1.23081 6.84003e-19)
(2.00198 -0.851115 -1.50121e-20)
(2.11999 0.0739832 -1.92483e-20)
(-1.86771 1.28728 5.61941e-19)
(2.13275 -0.184824 0)
(2.48938 0.114951 -4.86857e-20)
(1.89105 -0.397377 0)
(-0.476134 -0.697516 -2.15569e-18)
(1.92713 -0.838209 0)
(2.45121 -0.697657 -5.05729e-19)
(3.4098 0.799335 1.26387e-20)
(2.35413 0.196099 1.39415e-19)
(2.15191 0.0785437 0)
(2.00955 -0.805443 0)
(1.71319 -0.710773 -2.21906e-19)
(2.24568 0.44539 -7.47419e-20)
(-2.55888 1.59054 6.14568e-19)
(0.979779 -0.474736 3.41844e-19)
(1.965 -0.0706012 0)
(1.59804 0.151361 -5.91014e-19)
(2.39799 0.0214902 -1.01714e-19)
(1.19376 -2.27683 -5.48351e-19)
(2.19897 -0.479662 1.20262e-19)
(2.32867 -0.609968 0)
(1.28559 -0.403597 4.71695e-19)
(1.05819 0.108921 -6.09196e-19)
(3.12485 1.04617 6.22513e-21)
(1.81449 0.173724 -7.01452e-19)
(-2.07757 1.32602 5.19313e-19)
(-0.024847 0.631462 -1.20181e-18)
(2.77381 1.2036 1.22372e-18)
(2.11797 -0.0365421 -2.19094e-20)
(0.256889 0.324991 5.24326e-19)
(-0.197249 0.13391 -2.07941e-21)
(-2.21957 1.5323 9.60731e-19)
(-2.42303 1.58723 1.14493e-18)
(1.90857 -0.152408 8.11412e-20)
(2.28072 -0.0654972 0)
(0.286488 -0.465281 4.18237e-19)
(1.35583 -0.646803 3.45018e-20)
(1.7775 -0.257266 1.51376e-19)
(-0.250888 0.30276 0)
(1.73462 -0.405494 -3.74602e-20)
(1.74744 0.106082 -1.73858e-21)
(2.05818 0.0334146 0)
(0.471417 -0.165688 4.07878e-19)
(-1.67475 1.12044 5.29068e-19)
(1.77187 -0.377326 0)
(1.1551 -0.444946 0)
(1.50498 -2.23165 -5.53205e-19)
(1.57028 -2.44365 -2.4285e-19)
(2.86179 0.446391 7.24067e-20)
(-0.413756 0.306883 0)
(1.93204 0.000310932 -1.91707e-19)
(3.6949 -0.96542 -3.16887e-19)
(2.55383 -0.603083 -4.89503e-20)
(1.3172 -0.526125 3.95859e-19)
(-2.25906 1.69861 -7.66998e-19)
(-2.2312 1.9572 6.26291e-19)
(3.46011 1.05432 -5.39123e-21)
(2.35528 1.45786 0)
(1.59816 0.821085 -5.22596e-19)
(1.68931 -0.644352 1.21185e-19)
(1.79276 1.77477 3.8168e-20)
(0.898851 0.464269 0)
(1.24456 -0.278483 -4.39266e-19)
(1.32627 -0.572219 -4.73208e-19)
(-1.83201 1.7293 7.6757e-19)
(0.509944 -0.53302 -6.32864e-19)
(1.85911 1.32885 0)
(-0.171008 0.477117 -3.04652e-19)
(2.21651 0.577655 0)
(-1.07958 -0.895006 -4.55591e-19)
(-0.122195 0.777953 7.2452e-19)
(0.106776 0.375796 0)
(-2.01121 1.85537 3.15333e-19)
(1.71404 -0.147112 -7.09415e-20)
(1.0568 -0.472471 2.51167e-19)
(1.81159 -0.668748 1.65086e-19)
(-0.986092 0.967392 -1.61867e-18)
(1.30007 -0.601149 0)
(1.99495 0.0137487 1.22226e-19)
(0.587398 0.343664 0)
(2.2204 0.228607 -7.62231e-21)
(-0.617822 0.436034 -6.07487e-19)
(0.673951 -0.27922 2.54824e-19)
(2.0588 -0.563646 0)
(2.11143 -0.76388 3.32911e-20)
(3.11352 0.447107 1.01939e-19)
(-2.03981 2.00914 1.38266e-18)
(-1.82467 0.581053 0)
(-2.07961 1.97654 -1.23596e-18)
(2.67511 1.01982 -6.20873e-19)
(1.65786 0.145376 7.57539e-19)
(2.87615 -1.11593 0)
(2.90448 -0.252767 4.07246e-19)
(-0.556154 0.464182 5.87058e-19)
(1.12465 -0.288772 -1.08985e-19)
(2.41998 -0.38437 -1.2249e-19)
(-2.22336 1.31794 0)
(2.20734 -0.885759 -8.34042e-20)
(1.31049 0.0716087 -3.13046e-21)
(2.03951 0.101978 -1.0052e-22)
(2.359 0.0177549 0)
(-1.64778 2.22769 5.39182e-19)
(1.78727 -0.468974 3.41819e-21)
(1.3663 -0.427315 4.89061e-20)
(1.0699 0.617034 0)
(2.35557 -0.785399 1.62617e-19)
(-1.56595 1.53511 1.24109e-18)
(1.87732 -0.409378 -2.30475e-19)
(-0.254892 0.0907626 0)
(1.04056 -0.468253 -1.65894e-19)
(2.38076 -0.738526 -1.08859e-19)
(-2.00697 1.44649 -9.49398e-19)
(1.56266 -0.398885 0)
(0.982765 -0.398988 8.73803e-19)
(2.01049 -2.34918 0)
(-1.23938 2.07436 6.65953e-19)
(1.80257 -1.8877 0)
(1.94459 -0.107647 -1.49487e-19)
(2.18916 -0.120636 -5.72311e-20)
(2.2907 1.24346 -3.42123e-19)
(1.36693 -1.98769 0)
(2.36225 -0.913863 2.91576e-19)
(2.00759 0.00994763 0)
(2.31885 0.454469 0)
(2.69694 -0.925907 -3.03893e-19)
(-1.46221 2.20136 5.10255e-19)
(0.682871 -0.128428 1.63152e-19)
(2.36058 -0.435285 4.94607e-20)
(1.71327 0.236935 2.59035e-19)
(-0.826212 1.66405 -5.63117e-19)
(2.05848 0.318371 2.03766e-19)
(0.387496 -0.30128 -9.25975e-20)
(0.58091 2.26582 0)
(2.4323 0.29984 0)
(0.345082 -0.208027 0)
(-2.73311 0.791889 2.58067e-18)
(1.28454 -0.463728 -2.89588e-19)
(1.55265 0.0575699 0)
(-1.9727 0.92092 1.8894e-18)
(2.28205 -0.0501997 -3.82514e-20)
(-2.14914 1.16896 -6.61736e-19)
(1.4798 -0.547131 -7.90278e-20)
(2.66533 -0.856044 0)
(1.06364 -0.33118 7.81208e-19)
(0.494437 -0.119107 -9.27287e-19)
(0.191695 0.291287 0)
(-0.339906 0.445996 -4.19201e-19)
(1.61576 0.0265572 -1.86615e-20)
(2.70089 -0.278801 1.02655e-19)
(1.99675 0.0315789 1.93696e-19)
(2.49673 1.15233 -8.18945e-20)
(2.377 0.231493 -1.2475e-20)
(-1.22489 -0.502793 0)
(2.19322 -0.760436 0)
(-1.55005 0.661446 1.96281e-18)
(-0.136217 -0.671004 0)
(1.72357 -0.365319 -3.85271e-20)
(2.53727 -0.699745 4.03005e-19)
(1.10991 -0.526177 3.50508e-19)
(2.55187 -0.288586 -1.49603e-19)
(1.76923 0.277357 -2.64834e-19)
(1.64541 -0.640339 -1.28635e-19)
(1.74867 -0.657767 -1.97524e-19)
(1.04225 -2.00969 0)
(1.88027 -0.672798 1.26263e-19)
(2.16519 -0.230543 0)
(2.0918 0.203147 -4.44562e-21)
(1.84252 1.16382 4.74732e-20)
(0.56919 -0.414982 1.98284e-19)
(2.28271 -0.156829 5.51216e-20)
(0.0683902 -0.58458 -4.38597e-19)
(0.330741 -0.275949 0)
(0.234104 -0.536901 -6.71601e-19)
(-0.853184 2.63561 -9.30635e-19)
(2.04627 0.493278 -2.34733e-19)
(2.03563 -0.749489 9.20292e-21)
(2.12966 0.0163067 -7.07748e-21)
(0.65625 -0.531454 2.15989e-19)
(2.55553 -0.911896 5.12364e-19)
(0.472409 0.0390751 0)
(-2.29638 1.23367 1.99378e-18)
(1.88615 -0.352408 1.25848e-19)
(2.15528 0.0461632 5.69893e-23)
(1.30253 -0.579171 6.97678e-19)
(-1.11173 -0.250393 3.70027e-20)
(1.68298 0.523785 0)
(-2.83953 1.13593 -1.03933e-18)
(-1.7399 2.19126 -8.01378e-20)
(1.20114 -0.386452 -5.79884e-19)
(-2.68018 0.756196 1.23903e-18)
(1.90977 0.957227 -1.43716e-19)
(2.07051 0.440233 4.81017e-21)
(1.07771 -0.444465 2.66632e-19)
(1.91448 -0.346354 0)
(2.52035 0.207758 -3.10894e-21)
(2.65454 -0.0472152 -4.76507e-21)
(2.78101 1.02047 -1.51739e-19)
(-1.04506 -0.742903 0)
(3.2207 1.25594 3.27601e-21)
(-0.694421 -0.766884 4.36572e-19)
(1.7632 -0.737878 3.80224e-19)
(0.137523 0.0873859 1.0709e-20)
(-0.863922 -1.07035 -3.17628e-19)
(1.09967 -0.255359 1.50826e-18)
(2.27696 -0.727897 -1.98298e-19)
(2.3245 0.0130435 5.62533e-22)
(-0.538231 -0.0595493 -9.65707e-21)
(2.9069 0.0964578 3.07407e-20)
(0.342883 0.764061 0)
(1.99732 0.0231925 0)
(2.26349 0.529256 0)
(1.94676 -0.685989 -7.43885e-20)
(2.03193 -1.11685 1.61561e-18)
(-0.9666 0.12004 0)
(1.32845 -0.425025 -1.18912e-19)
(0.00019886 0.689459 0)
(3.31542 0.613589 0)
(-1.09623 -0.100156 0)
(1.8502 0.00791693 0)
(1.01335 -0.381041 -2.7164e-19)
(0.496229 -0.21585 0)
(2.2535 1.13253 7.64739e-19)
(1.15068 0.0211252 0)
(1.38784 -0.0323117 0)
(1.93427 0.151241 2.66587e-21)
(0.384852 -0.318558 0)
(3.22514 0.631958 0)
(-0.772901 0.260755 0)
(2.54626 -0.0164907 7.825e-21)
(1.65082 -0.21072 0)
(2.86661 -0.820559 4.72146e-20)
(1.10965 -0.563684 2.76268e-21)
(0.588629 -0.150509 -2.62866e-19)
(1.98259 0.015924 5.4891e-19)
(0.131111 -0.0619053 -1.10428e-18)
(1.09659 0.688298 -5.68054e-19)
(1.46868 0.578392 0)
(2.24016 -0.0277801 -1.63149e-20)
(1.76887 -0.211728 -1.478e-19)
(1.48211 1.43313 1.87907e-19)
(1.83176 0.308096 4.06214e-19)
(0.899942 -0.334134 -5.99077e-19)
(1.63933 -0.70718 -1.89757e-19)
(1.48496 1.7173 9.80511e-20)
(-0.713961 0.533998 0)
(2.95639 0.732005 -4.38611e-19)
(-0.379929 0.293538 7.91347e-19)
(2.62167 0.36309 -5.3641e-21)
(-0.506784 0.603214 0)
(1.90681 0.00591251 -2.18124e-19)
(2.2035 1.04473 -6.00044e-19)
(1.46525 -0.597282 3.22338e-19)
(1.35617 -0.621293 -4.10083e-19)
(1.86592 -0.832722 0)
(1.96858 -0.824283 0)
(2.40314 1.30013 1.2039e-18)
(2.31824 -0.106023 8.63125e-20)
(3.283 0.636943 -2.97203e-19)
(1.79328 -0.0578142 4.25647e-20)
(1.31064 -0.392907 -1.13567e-19)
(1.86634 -0.508433 1.73747e-19)
(2.4222 0.314 0)
(2.33575 0.309123 -5.02124e-20)
(0.997637 -0.109552 -1.17048e-18)
(1.65887 0.854724 2.97201e-18)
(3.2602 0.311992 -9.98016e-19)
(-0.712504 0.444301 3.70871e-19)
(3.0672 0.657409 2.48164e-19)
(2.39869 0.764088 -4.77442e-20)
(2.26906 0.615293 0)
(-2.68715 1.42255 0)
(2.78087 -0.77513 3.24753e-20)
(1.26363 -0.305756 0)
(1.9834 -0.348806 5.75107e-20)
(1.66445 0.194237 4.43542e-19)
(1.68072 0.393975 -1.42856e-19)
(1.71407 -0.671262 4.33012e-19)
(1.25535 -0.0225693 2.12861e-21)
(1.35801 -0.0732802 0)
(2.03195 -0.0900705 -8.13726e-21)
(-0.848841 0.283401 -5.96532e-19)
(2.11052 0.254526 0)
(1.94333 0.208477 0)
(2.16003 -0.793398 -4.3926e-20)
(1.90863 0.49519 2.54432e-19)
(1.18353 -0.220483 0)
(4.38624 0.20808 1.80833e-19)
(2.86096 0.0487236 9.93486e-20)
(2.28144 0.335574 9.10364e-20)
(1.77157 0.372761 4.15109e-19)
(-2.95425 1.02729 -1.15019e-18)
(1.18414 -1.64949 0)
(-0.242893 -0.536363 -1.02406e-18)
(0.637899 -0.285022 9.12851e-19)
(1.99482 0.0140452 1.20606e-20)
(-0.485268 -0.666335 -4.62216e-19)
(2.00155 -0.772035 2.43446e-21)
(2.57022 0.410284 -6.05186e-21)
(0.532233 2.15133 0)
(1.98369 0.104814 2.66528e-21)
(1.87966 -0.00803131 6.61415e-20)
(1.97976 -0.0101989 -4.76761e-20)
(2.12765 0.469831 -2.29251e-19)
(2.67191 -0.708461 0)
(-2.78932 0.911648 0)
(2.56483 0.0245333 0)
(2.2247 0.415291 -1.58506e-19)
(1.182 -0.558919 5.37341e-19)
(2.10814 1.62349 -1.79416e-21)
(1.56546 -0.148609 0)
(0.336871 -0.0982769 -2.19212e-19)
(-2.75534 0.939117 1.10695e-18)
(-0.450968 1.1463 0)
(1.90104 0.21043 -1.27277e-19)
(1.67708 0.177768 -1.4528e-19)
(3.32472 0.239931 -8.14451e-20)
(2.01662 -0.321481 1.02284e-19)
(0.798708 -0.296636 0)
(2.13679 0.179609 -2.51769e-19)
(2.16021 -0.332705 0)
(2.14783 -0.163831 1.30196e-20)
(1.09011 0.00592396 0)
(2.11237 0.783326 2.19212e-19)
(1.84193 -0.694275 -1.32064e-19)
(2.26928 0.809825 0)
(1.88945 -0.0970958 -2.87196e-19)
(2.20124 -0.650452 -9.53709e-20)
(2.17222 -1.08281 0)
(1.26215 -0.595645 0)
(0.631811 0.094087 -8.28946e-20)
(2.19912 -0.146632 -6.68407e-21)
(-0.787084 -0.259664 -9.53896e-19)
(0.839765 1.79919 2.15065e-19)
(2.87019 -0.02448 -8.55818e-21)
(0.790195 0.681745 4.93671e-19)
(1.77154 0.316862 -1.75093e-21)
(2.00206 0.497541 0)
(3.05989 1.07789 2.56688e-19)
(1.93277 -0.845562 0)
(1.63736 -0.735069 -1.94272e-19)
(2.02673 -0.823324 2.31252e-20)