/*--------------------------------*- C++ -*----------------------------------*\
| =========                 |                                                 |
| \\      /  F ield         | OpenFOAM: The Open Source CFD Toolbox           |
|  \\    /   O peration     | Version:  2306                                  |
|   \\  /    A nd           | Website:  www.openfoam.com                      |
|    \\/     M anipulation  |                                                 |
\*---------------------------------------------------------------------------*/
FoamFile
{
    version     2.0;
    format      ascii;
    arch        "LSB;label=32;scalar=64";
    class       volScalarField;
    location    "3.2";
    object      p;
}
// * * * * * * * * * * * * * * * * * * * * * * * * * * * * * * * * * * * * * //

dimensions      [0 2 -2 0 0 0 0];

internalField   nonuniform List<scalar> 
13486
(
13.2717
13.2678
-0.536616
-41.0051
-12.3089
0.391211
-17.0652
-4.83403
1.98797
9.94214
-25.2591
-0.195249
13.7335
2.97045
-9.82708
10.1666
-22.7793
0.851601
-0.444739
11.9533
-49.0986
13.4071
13.0275
-26.8394
8.5276
-28.2519
-32.9173
-12.0319
-0.0931505
-16.326
-47.7619
-3.434
-15.0637
-9.84328
-4.67144
-0.063222
-1.4211
5.06468
-1.16877
3.60105
-30.0127
14.8523
-0.181156
8.33278
8.30793
-0.14754
-54.4558
-0.0474695
-1.37191
-7.76759
9.06589
-1.8428
0.519449
5.87961
-4.8417
-11.4419
-5.08128
-1.70957
-15.1924
-1.63869
-24.1259
-1.96209
-30.5642
-49.6363
-136.683
-1.58526
-40.164
15.2128
1.69054
-1.09369
-39.6623
-2.56347
5.506
-20.6387
-1.97847
-2.58691
-1.91905
-10.6828
-47.5959
-3.01733
-0.0230685
14.0482
-31.7133
-0.392617
13.224
11.1881
1.24864
8.8981
10.7701
11.7912
-0.394611
-7.01437
11.3824
12.5116
1.47534
-0.0170417
-32.6964
-40.4706
3.6392
-26.3446
0.0540478
3.3498
-41.8383
-1.71599
13.4902
-27.6921
8.93705
-1.14577
-50.6315
-10.2157
-1.14936
-6.66583
5.87214
-2.73194
18.937
-0.416323
8.88367
-8.28034
5.65946
-1.21828
0.479927
-25.1456
2.9435
-1.2078
-1.04667
-1.71167
-2.08909
4.57416
-7.11343
-129.553
-1.72883
-57.5654
-25.4278
-14.3229
9.10559
10.6718
21.8073
-9.68148
-1.18756
-3.30982
-12.1447
0.438583
-1.20889
-2.93991
-0.876839
-11.8309
0.261337
20.3517
-8.08927
-0.0118856
7.41535
-14.0394
-0.00834989
14.5077
5.55221
-0.564361
-14.305
-55.4236
2.31199
-0.876816
-4.92797
2.33009
0.737138
14.5908
-1.83782
0.86623
4.12018
23.8796
-0.0542429
-14.3754
-29.211
5.52701
8.25712
-3.1121
-0.0745797
-49.6819
3.05025
-12.6726
8.7852
-1.09387
1.87706
-2.25417
-2.74746
-30.9943
-0.242188
-11.8158
0.00563335
-12.6567
-29.9053
1.25699
-1.35677
-0.939851
-1.9492
18.0158
-2.34319
-27.4917
-137.633
-5.251
8.24181
1.50181
-48.8337
4.46182
5.04232
-18.4373
-1.28699
-2.54495
-6.44956
7.81977
-1.92395
-0.268673
-12.0942
-45.7431
11.7962
8.96047
0.398337
-15.6642
-15.5156
11.8146
9.67537
-12.1671
-23.6152
-8.11288
-2.7526
-5.29615
0.867112
10.7402
-1.03733
-65.4317
-7.97089
1.22593
1.79338
-55.7702
-12.681
15.6471
-47.1067
9.43328
-11.0387
-0.848466
9.77431
-1.46666
-16.0252
8.21992
-1.36793
7.85308
-0.737132
10.5502
-0.732526
-24.1876
-14.4678
8.85602
-36.0301
19.3168
-1.55607
-1.25393
-4.54152
-47.242
-2.88791
-15.4004
-48.4532
-16.0309
11.8188
-0.740536
-9.3721
-46.6544
-13.6545
-31.0741
-7.97786
-52.6292
5.65253
3.93023
15.061
9.1085
-15.6077
0.159931
10.8138
-22.993
-4.59473
-48.2586
-1.23754
0.570193
-46.5891
0.839494
9.31202
-14.9071
-27.2596
-35.9533
-11.4698
-7.69743
0.846705
5.86066
-46.6743
-0.907131
0.878447
8.97881
-10.4938
-12.1286
-5.27895
0.142855
9.18709
-25.2459
1.78288
-7.55692
0.329459
-3.72869
-1.16931
-19.2351
-57.916
-0.820452
1.05828
-1.39823
-9.86923
-41.0164
4.69794
-5.61366
-4.49895
10.8298
-0.967648
10.8748
8.09697
-9.20715
-1.48963
-0.921011
8.80144
12.8693
22.5497
-0.581893
-5.64999
0.574604
0.10862
-6.65889
8.93941
-7.98959
0.270077
16.1713
-18.368
0.327035
19.1952
-13.6991
8.06898
-0.663349
-8.52847
12.8313
-7.35636
-2.97499
-31.0482
-0.061612
-1.62942
17.7701
-12.5411
-0.871012
-0.503143
0.211659
0.151848
-32.9074
9.11364
-0.508406
-16.6883
-1.9867
0.906886
-42.3613
-0.364031
0.628838
11.2615
9.16183
-16.3294
0.00227357
-11.7068
-64.7952
12.2543
-1.62135
-0.33387
-1.36061
0.811439
-34.576
2.08959
8.91977
8.81767
-0.726214
-2.00677
-11.6739
5.14695
-9.50741
15.3513
15.1796
-62.1349
-4.96246
2.78809
7.98324
-17.3164
-47.2221
11.3281
-14.9685
6.48346
10.55
16.8896
-1.21162
-40.2827
-34.4876
-17.3878
-12.0327
-17.6878
8.35068
3.20265
-57.3605
-16.2047
1.94808
12.3628
-12.6549
-0.749943
12.9877
7.44048
2.0402
-14.3506
9.32556
8.79297
17.2523
-30.6523
-13.2222
-40.8364
-1.55829
8.83579
-3.62854
17.9188
8.38223
-2.63143
-12.681
4.5557
9.44894
-32.5753
4.55395
13.5016
3.34543
6.36823
0.755392
-16.3255
-20.8921
15.6282
-0.881243
-2.96947
14.928
-47.3316
-15.0841
-12.9977
-14.879
0.358926
6.81147
16.7256
13.7122
-11.6021
-1.23316
-31.2816
8.27283
11.0075
-7.98326
-1.0438
9.0145
-32.4632
-52.7086
-14.492
-13.189
5.10298
9.18744
-0.0865407
4.58473
-45.6003
10.1281
-0.0216701
21.6414
11.0495
4.37258
-6.27288
-0.0148492
-0.0519257
18.967
-5.03971
-1.15178
-2.95853
0.394268
-35.9827
0.208006
8.42651
-0.672808
-0.25049
13.1165
-11.5842
-18.311
8.0243
-46.2532
23.6004
8.04987
9.0745
9.37669
-47.3938
-0.183132
19.6816
-15.4225
12.5681
-23.7459
5.02534
-53.0349
-2.3717
-0.338058
-31.9197
11.0712
-0.808725
-36.8248
-0.0224759
-0.102911
16.8512
6.72786
-4.9105
-0.314999
-1.34731
0.166557
-14.0862
8.97368
-35.789
15.2211
-1.72767
-1.08954
15.0358
-9.50026
-0.161386
-0.314479
-55.4688
-33.9703
-0.768219
-11.4625
3.24535
11.3941
-30.8196
-16.5246
-31.3825
-0.064765
9.50893
4.5914
-31.2361
-41.8758
-2.96423
-53.2451
-4.3628
-139.999
-1.05918
-0.270159
15.8427
-1.54139
11.3452
-14.1308
-33.6966
-2.30258
6.05135
-31.6067
7.06101
-0.227261
-24.809
-1.58259
5.2665
-17.2265
-30.9648
9.12568
10.4595
6.48142
13.609
-0.378623
8.21309
4.56229
8.2513
-0.951548
9.62849
-32.2544
8.57011
-1.17429
-7.57752
-23.7249
8.47396
-46.168
0.119692
16.8207
13.0191
-87.0073
-35.858
6.18488
1.07918
3.79912
10.8328
-22.3477
-30.0632
2.11662
11.9211
3.83527
4.75575
-56.9408
13.1804
-44.1489
-2.19504
9.02506
-7.00185
-2.60299
6.30868
-4.69874
0.0372339
1.12
5.81836
-5.62989
12.7293
-0.385986
0.133915
0.944914
2.20469
-11.1675
17.3962
5.22431
17.135
-63.1692
6.59266
-0.124393
-17.1557
-12.0059
8.70953
18.9485
-94.3746
-10.0919
-6.29952
-13.6335
8.78656
-2.25674
2.2853
2.73249
-31.036
-21.8688
-22.7031
5.45954
-11.0009
9.25125
-0.0472668
15.3354
3.04086
-0.980267
-33.587
-11.4164
5.32082
-27.4648
3.7884
-30.4196
9.17617
-0.0113454
-5.84787
-32.89
15.3141
-0.0175191
2.39654
14.6445
8.99017
-30.669
-1.05477
-1.07433
2.96433
-1.71636
-1.33699
-97.2015
5.75325
3.77568
5.1882
2.13941
15.0987
-1.93987
-54.2503
8.45285
-4.48509
-0.360373
-5.20928
8.49393
7.04756
-30.7096
-0.218906
-0.729583
0.246521
9.48153
5.24137
0.131717
-0.420066
-33.4115
-2.93932
12.3376
-1.42995
-2.49945
3.15591
15.8291
2.00472
0.957369
17.1011
-0.125034
-32.9113
6.15859
-19.0593
11.3517
-0.86588
8.99595
-61.9854
-14.2658
-37.0693
-0.0428335
-19.4475
7.85679
18.1257
-17.0277
-12.9815
-1.52072
12.5181
3.0156
6.65701
-30.2412
19.0408
-31.2078
-0.481886
-8.34908
8.17644
10.6222
9.54971
-9.03369
-52.0079
14.6707
9.01904
-16.9138
3.85402
-33.5099
-1.74548
-4.40914
7.90552
-12.91
-4.23649
11.9102
-13.9868
-1.46451
-5.32059
-34.583
-17.751
-1.35311
7.45379
11.4577
-54.5149
-0.176667
-30.7268
-51.5659
0.0124537
-11.1123
0.301708
8.99162
4.13068
-1.28839
4.66129
-30.1218
-130.958
-6.87772
-2.66856
-52.3121
-38.4303
-0.80231
-43.4081
-1.91798
13.9767
-1.23978
-128.047
14.6775
12.8542
-80.7036
-122.299
1.03225
-60.638
-1.13268
2.44356
3.50318
-11.5963
-18.8845
6.40932
8.29337
-2.14416
-76.2743
-19.7214
0.857286
-1.26451
9.82072
0.037866
-50.6691
12.3509
11.9365
-30.1916
-42.5467
2.84348
-21.5325
0.532175
-1.08191
-15.1841
-49.4947
1.00276
9.01628
17.3382
7.12078
2.30519
1.88413
8.81552
11.8663
5.34252
1.88711
7.54867
16.5118
-14.2451
-0.852122
3.69018
-6.69353
15.3822
-0.138121
9.3292
0.495833
-4.21716
-0.181205
1.22277
-9.55387
10.0194
14.665
8.38679
7.41362
-32.3972
-0.975174
-10.096
-11.5202
-6.28407
3.12398
-1.00625
-47.7323
-24.0414
7.38214
-14.735
-14.7596
-36.937
-51.9189
-7.89906
-30.157
-56.3608
8.369
-57.4088
13.2099
-69.5826
-15.3513
4.14792
9.86219
-2.3711
3.69648
-26.7507
10.7219
-12.5081
-18.3811
-2.09738
-1.19516
-74.2404
9.02288
-6.68742
7.8212
-0.899201
0.685769
-34.572
-1.21871
-0.489075
7.05698
-10.8048
-24.3454
-63.432
13.2119
2.78755
-57.6803
-18.9189
7.42224
-45.9241
-0.95429
-0.141605
-8.68592
2.69604
-5.51437
-133.823
12.1668
9.00324
4.97984
6.77595
-1.01293
-18.7892
9.03562
2.43946
4.59044
11.0351
-2.92097
-1.13362
-5.767
1.51106
-1.16519
10.4443
6.04509
-2.76311
9.07571
-1.93455
-1.3122
18.5481
1.10338
-11.8004
8.23943
1.34615
-1.28331
-6.45582
-46.4501
7.30932
-1.83771
-0.130892
-0.934683
3.32143
6.6802
-29.7332
-0.0187668
9.07271
1.58579
16.035
10.852
9.19586
-0.173826
10.6811
-1.20808
-0.375376
-6.51585
3.94375
-64.8826
-7.47348
-42.6445
-25.8818
-33.4376
6.30135
-13.5462
-18.7539
-48.4325
-64.5878
-0.627572
9.80921
-0.191192
0.00931073
-12.6678
8.77339
17.4251
1.71819
-6.28043
8.11258
-29.1251
6.87883
-1.06374
-0.804555
6.02035
-2.11044
15.1874
-0.102917
8.85165
-13.9092
10.114
-1.15709
11.0217
-1.85241
-17.0187
3.15071
-95.7849
-0.333918
2.06452
-51.7192
13.6314
8.8196
11.7288
11.0456
11.7257
7.15264
-10.2395
1.69
8.87794
8.80502
-6.63351
-1.27661
-10.3662
1.0117
-1.3018
2.87035
-14.1292
22.1552
-1.54896
-1.59061
17.436
12.7647
-7.4936
-78.8056
4.24999
7.80994
-34.488
-0.0881856
-12.6341
-1.08257
8.83424
10.0522
-0.893527
2.38345
10.0604
0.0105554
-4.38278
11.2145
-1.11547
-1.27729
-31.1988
-0.423667
-9.3592
10.0484
13.1999
-1.36078
-36.8041
-20.8615
-1.98975
-1.35508
-0.161033
14.9889
-1.59674
20.7105
6.49923
-0.263076
7.99401
-30.0597
-11.8808
-45.6847
7.41605
-0.982564
-11.3263
-50.479
6.83825
8.7949
-0.664331
-9.08717
-67.3136
-8.72681
3.09093
-0.789679
0.500504
-1.11444
8.34884
9.30809
11.3974
3.29276
-6.94788
-15.4611
-10.3958
-0.276745
-92.6771
5.86127
0.221276
-57.4272
-1.05072
-1.33415
3.20453
-30.4612
0.318086
8.42043
-0.0523799
-22.3975
-2.73572
-7.29465
-19.9807
0.319363
1.94644
2.40759
8.50701
6.66569
-13.4203
8.97563
-1.13289
11.7089
5.83348
7.40793
4.45414
1.25205
15.1861
20.1912
1.90021
-14.0634
8.68577
-0.54741
15.2878
-7.26191
-14.4341
-30.746
0.0185921
0.0254049
-38.2636
8.74432
6.10561
2.42138
-24.4778
-5.45305
3.6448
18.4048
-10.4114
9.25892
-19.5358
3.33641
14.6903
-5.21069
-2.29686
-72.9417
10.3405
-0.61546
20.0349
0.314319
-10.5835
6.9454
0.259632
-31.2389
-12.7563
2.94112
11.4122
-0.185316
-12.9426
12.9516
11.9442
-2.79809
-10.7101
0.141429
4.91945
3.78111
5.34098
9.42684
-0.178542
-17.2507
11.0028
-2.26816
-16.5028
-5.26869
10.8515
6.28889
-5.71834
-59.2972
0.036079
9.0709
14.0845
-0.633931
2.76177
-9.89672
18.5928
-28.5265
-11.566
15.5744
8.99522
2.10978
-1.00762
-40.7889
-7.72493
-36.0033
-28.7251
-0.817568
-43.8632
2.41014
-19.1411
-56.5705
-20.4176
-33.1547
-32.4402
-16.9575
-34.8359
15.9088
10.0571
-14.8112
-66.7868
-2.6264
4.81524
-7.53376
20.4999
-8.29311
-9.08429
9.03258
-20.2608
-43.9164
-5.40325
-5.9667
6.16031
21.4236
-0.0230274
-5.00518
-29.8835
-0.197801
-7.05355
-1.26583
-1.10268
11.1123
10.6421
9.41506
-54.3609
-1.84111
-1.1317
1.37679
8.75756
1.16319
9.69926
19.196
16.6601
-19.9376
9.03472
11.3249
-9.09792
9.05567
-1.33843
16.1889
8.83357
2.3876
11.1217
7.58419
-5.05941
-0.975707
11.2997
-14.5738
1.27185
-13.1332
-9.77609
0.186557
6.87882
-1.36282
-1.02472
14.921
14.6992
-5.30888
-13.7426
-0.133946
-35.4119
-4.28988
10.3487
11.3946
-13.9361
8.93868
1.00511
-1.56237
1.47288
-35.6259
-73.2048
-1.24164
21.0441
-9.64413
0.0436623
12.7939
-0.022885
-3.58204
6.82838
0.0650715
8.9741
-19.663
-13.2829
-0.182013
-4.65226
-8.08392
-5.94247
17.7791
12.6387
5.54612
21.6857
14.2245
-8.23227
-1.46311
-5.34516
-2.42273
14.9827
-62.6143
4.29437
-0.313678
-31.2027
-8.26388
7.81915
-80.8477
-1.41843
9.98433
21.6282
-32.8047
-1.21774
2.31253
2.95299
-0.611917
-48.7438
14.3055
8.60495
1.36448
7.37137
-25.309
-17.7763
-31.6859
16.5824
-2.5655
19.8366
-45.1016
2.49762
-31.8629
-14.5559
-14.3813
0.624619
-1.38544
5.45106
1.30442
5.50333
-46.9604
-0.00983358
-97.7597
-13.0382
-11.2903
-19.5607
0.983058
-3.31371
-46.0785
-27.1321
0.225979
0.787752
17.0284
8.93489
-2.58614
-0.641459
24.5793
4.04917
-35.8785
-0.100537
1.57121
9.11769
1.57722
11.1222
-10.0727
-10.356
-6.00726
-0.022494
-0.162621
13.4643
-14.9324
-31.2019
-29.4572
16.9962
-39.2737
0.3016
9.4312
-46.6877
-3.07748
-1.09934
-31.552
-32.5249
-1.0698
8.63049
4.98182
9.21638
-20.0967
-12.5295
-10.4079
-40.3458
-19.5232
-7.42737
-0.106581
-55.7718
0.825901
-43.125
-33.0864
-23.8765
12.7159
-48.3004
17.0445
-31.3578
-16.4641
-4.24701
3.71499
10.2129
-1.26081
14.0598
1.52118
-33.1693
-29.3307
8.59147
-12.1349
8.57375
-0.829274
15.0244
11.0878
-0.840973
7.33585
14.9819
3.25467
7.47215
-8.2465
-35.4594
-2.81562
-18.8729
-1.258
-9.10544
-8.89182
-0.583804
-28.7833
-0.157678
-1.72023
-3.92756
-7.66227
-12.1951
16.0973
-0.298446
-0.085219
0.240763
8.97201
-112.166
-0.109048
3.68115
-1.45953
-0.492334
-0.524939
0.727432
8.9469
9.01565
0.640527
9.91503
10.7229
4.96761
-17.6625
-1.64943
5.44251
0.274139
-9.73563
-50.7882
-61.0017
-12.3304
-41.5222
0.110386
-1.41325
-3.42438
-10.3414
-7.84893
-27.9665
-1.47679
-60.5292
5.96743
-31.3065
9.63513
24.1006
6.55427
-97.1363
7.18562
4.10373
-0.170059
-0.179168
-19.2723
-55.8859
-0.270806
8.71055
-0.0548168
14.2739
-0.166027
9.00406
-3.72436
-2.48331
-39.7622
-12.988
20.4174
-45.3127
9.01956
9.13082
11.0392
-0.426221
8.55966
1.16486
-27.6375
2.93682
-33.2579
-38.5743
8.9054
9.02896
-17.8319
6.2513
11.473
-32.0682
-108.526
-4.12179
-1.03618
10.4423
7.31462
11.1527
-1.80866
2.06445
-13.748
-11.1641
-19.8011
11.1725
19.6256
-20.9603
-24.0082
-41.5121
-0.747702
-0.301155
-0.356468
-16.9863
-3.309
-2.96287
-51.3148
-4.13983
21.2
6.36705
0.66196
-51.4983
-36.1789
-23.8159
-20.3647
-23.1536
-31.7479
12.7898
7.23365
-13.3142
19.0573
-0.0956653
-29.1827
-95.885
-38.809
3.39092
-11.6818
5.58092
1.64112
0.661617
-17.5116
-34.384
-36.5806
-62.0181
11.4254
-28.5523
-1.23576
-29.1921
9.16224
7.7658
-39.3953
9.63136
6.44211
12.4638
15.1731
3.44117
0.0992763
21.2132
-32.117
-0.321397
-22.3622
-27.3441
13.1332
-55.8156
16.5497
7.05224
-10.4988
-65.039
-65.1659
10.7713
-64.8134
-118.722
-0.331091
0.63745
1.12547
7.86027
3.94205
-4.35291
16.9808
-15.2696
-26.2328
3.84831
0.252431
10.1999
-34.6671
23.9728
-1.33861
-1.78667
10.2159
-6.75759
9.01003
2.60557
5.91799
3.31306
3.27867
-7.65649
3.41806
-0.0996807
-58.0622
-0.364788
2.49141
8.07355
9.03547
-54.7064
-0.493515
-15.6006
7.65871
0.965968
-26.657
9.54043
-90.2675
9.03424
9.76842
-21.1918
13.5132
-86.1287
20.149
4.46066
-31.0253
0.00519691
-1.74526
9.91982
10.7072
-38.4328
9.26591
10.1114
-14.1913
-0.765975
-0.0586697
2.26877
-14.8914
-24.8585
-9.74813
-59.6427
9.11701
-50.7244
-43.6367
-19.8208
11.7155
9.88324
10.7231
-52.1564
7.12355
-2.92013
-0.355588
7.38902
-62.6964
-59.4953
16.6612
-1.08864
-7.84149
-14.3647
-37.6982
-55.9165
9.0336
-22.8277
-10.3178
10.8038
-5.3435
8.58576
-32.1908
-1.3214
18.5553
-16.4445
11.1456
-2.55048
-50.3018
5.45404
-0.177666
4.76714
18.5781
5.24022
1.86036
19.5524
8.46485
12.4344
-43.3097
-54.3343
-10.789
-11.3782
-48.8596
-16.4268
-8.77491
-16.5973
-1.34192
-0.592101
-8.77962
-5.62113
-49.6921
-7.50427
11.926
-21.4384
0.39508
7.93015
8.88639
-2.85536
-0.70589
-39.7921
-23.1538
-33.0797
-11.4964
11.9151
-26.4942
12.5255
-30.5967
9.00671
-11.0996
-1.35547
-22.2038
5.62619
7.73817
4.71274
0.452253
6.56506
-2.51084
10.3862
14.6216
-37.1262
-9.64848
-38.6272
9.75968
2.94349
-17.9803
-18.4244
2.05984
-3.86908
-0.0253447
1.49849
-5.25655
2.59584
7.72274
2.71989
-1.20015
-35.6133
13.113
-36.2945
6.96478
0.0214469
9.11739
6.21857
7.67728
1.36573
-35.9595
-48.3719
-1.06701
-25.6846
-55.0787
-84.8775
2.99033
-64.661
9.31349
1.45806
8.97789
-43.6982
-4.26352
-16.9347
-1.30319
6.11063
-32.8235
3.80015
-0.219883
-58.578
-43.17
-37.2133
0.249841
9.21427
-1.17431
0.048785
-11.9265
3.65954
-22.73
-2.77109
-30.9761
9.61497
-1.02522
-0.639945
8.17078
2.94381
7.31695
11.2267
14.7111
-14.7052
-1.37196
-44.5812
-1.78278
7.95672
-0.247452
-29.6179
-28.7377
-34.3848
-7.17322
-0.863652
-35.2802
20.7287
-8.80787
5.83055
-0.667913
-125.256
-1.55944
-0.88924
-1.61234
3.46872
0.196407
9.80697
-1.16678
8.91575
-18.4641
-18.6385
-60.6884
-6.93524
-25.9029
5.4688
18.1938
8.79238
-13.5105
-27.1083
10.0596
-34.1136
-25.0747
0.464768
-4.04561
-45.2473
-29.9318
-30.9815
-13.2164
0.409889
-0.890048
-21.7454
-0.119398
10.1344
-9.18015
-15.6699
10.6374
-1.5658
-27.4758
-0.684192
-0.754655
-0.0607318
19.6615
0.348111
-0.396784
-8.06934
-5.01521
-9.26795
2.27284
-6.55525
-2.75449
-2.66873
-11.6593
-0.485736
-16.0905
11.1996
1.77214
4.37788
-43.373
-10.2817
18.7833
-57.1012
5.6946
5.49461
5.05745
-2.1504
-1.06149
-47.0652
-0.842387
9.60382
8.62587
3.89769
-52.9491
10.5351
3.63494
14.6924
-13.9776
9.92438
10.9386
9.52401
0.329533
-29.5646
5.42469
-39.4938
-4.8399
7.07269
7.39912
3.07627
12.3378
0.0954882
14.3341
2.79143
6.28104
1.38807
-0.488538
1.39612
9.08414
-2.54337
7.53344
19.2704
9.66836
-0.256811
-11.173
-1.01455
9.02461
-1.30067
-17.832
0.444259
-0.43796
10.3845
-37.7031
13.1534
4.85064
24.6085
16.0972
-8.05691
-10.6289
-0.256655
2.77007
16.4249
-0.025869
1.4778
-3.20714
21.356
8.18234
-0.0712299
18.8939
-5.88087
7.76535
-9.6518
5.32781
-4.91376
2.92112
5.4439
8.89251
-1.70165
-46.5616
-0.181295
-34.9188
-3.03031
-28.6603
0.115232
15.7346
11.8893
-0.562354
-20.2884
-6.78423
7.0186
1.32798
1.25326
7.74698
-33.2916
-28.7949
-48.2719
9.75494
-16.9629
-29.4351
8.11047
-4.48421
-1.1049
-10.5493
18.9806
-70.3778
12.4749
-22.1655
20.1496
-20.6515
-3.28701
-1.46765
-1.16905
2.04377
8.95803
1.43509
-25.3477
3.39704
-33.0444
10.3558
0.752652
2.03558
-65.5487
-19.0059
-22.0717
5.35791
-12.4729
-1.21615
-2.78105
9.14594
19.7883
-35.4941
-0.11654
1.04135
-18.8137
6.87802
-0.750572
-8.8518
-22.4788
-65.4764
6.69808
-88.7355
-8.06696
0.387831
-15.0589
-112.084
3.77345
8.82652
6.53032
8.95771
18.4993
-22.9596
20.8952
-14.557
19.2702
-39.6094
-7.42939
17.2265
6.7235
-116.456
-0.873273
-1.65056
1.84222
-60.6298
-27.0663
0.0565816
-13.6708
-18.6286
-0.0862267
-5.538
6.20476
5.43442
-40.0984
6.42321
-18.4301
-1.55668
-69.7028
-1.2643
2.95435
-60.6289
-12.7284
17.1776
-1.01253
18.2444
-0.641972
-33.0068
6.67588
-4.28805
-1.62623
8.94387
8.70423
20.7734
8.90897
10.9244
-11.9188
-13.8587
20.0626
19.9753
10.6744
-4.01762
-49.4536
-39.1522
1.6025
-7.62901
-3.85676
13.2528
-51.0871
-1.16639
-14.2102
18.7148
3.34927
3.36232
-49.5568
-0.669248
9.98902
23.2302
21.58
2.93268
6.7453
-9.86962
-15.5522
8.45804
21.9914
-25.203
-1.51353
-5.71014
-0.035544
0.0776399
-0.0504504
-2.23035
-0.104196
0.997486
-0.495944
-1.6642
5.77989
10.646
-23.1017
6.61846
-52.4089
-3.0826
15.8705
-13.3869
-1.22329
-23.9287
6.96971
7.4288
-37.2634
-26.4413
-1.25734
1.16654
23.7286
-35.0479
-19.876
-60.1983
0.00746719
-32.2987
-23.5948
-38.6143
-16.0122
-0.688735
-31.0088
-3.66741
-17.6706
7.37343
-0.166935
3.08766
23.1088
3.92181
-0.261019
-8.38069
4.09972
-12.5127
-12.3389
15.2896
7.6101
-0.149963
-14.9688
5.45127
7.51322
-20.4446
-31.3134
0.176917
15.4114
-10.6204
8.98792
2.38709
13.5093
0.54211
-56.2297
3.83267
9.06254
-10.6782
9.63039
-5.73718
20.9035
-41.3882
-1.0112
-28.6426
8.62502
-40.8665
-9.12952
-42.682
-0.00741662
-17.4778
-56.1992
-67.1664
-2.80314
0.331672
-45.4636
-4.04879
1.80335
-38.6398
-0.0193849
-44.1705
8.95734
19.3725
-1.34757
-11.2455
0.881461
-0.429778
-1.46604
-3.42118
-3.69004
-33.0767
0.196689
-23.6634
-17.6378
2.68212
1.22493
-48.2839
-1.04151
-0.57112
8.84747
1.03208
-38.0428
-0.644542
-1.31582
-19.3459
-4.26844
-7.72442
-39.11
11.9604
-46.3912
-13.3371
-14.0161
0.22332
-32.8172
-20.5722
24.2721
-3.65859
-13.401
8.75135
19.2499
15.9431
-61.571
-9.6458
8.87062
-1.16367
0.188267
19.1884
-1.44848
-4.11671
24.5824
1.09573
-21.8534
3.96337
14.7196
9.40081
0.961788
15.3782
8.46097
-5.17534
-1.13811
6.88954
-0.146943
-21.0497
17.9493
4.65434
0.352918
-1.48192
-36.4161
-4.33838
-51.3063
-11.7953
-0.236324
2.57386
10.3581
3.4061
-33.6117
16.0469
17.1199
-18.0704
-0.516002
-2.94846
0.531604
-2.10026
8.06317
-57.8091
-9.23546
0.673093
20.048
-32.7886
5.00911
7.1794
7.46204
-5.91407
0.723354
-21.3577
-3.76919
-12.8979
-1.68231
-29.0607
-16.4345
-0.560087
-41.7955
8.40651
-58.6575
-1.1268
5.14898
-12.5042
-48.9864
-24.7405
3.30566
-9.08079
0.817296
6.39501
-45.1206
-3.11306
-21.7642
-2.50431
8.36715
-29.674
19.5968
-1.22516
21.7506
-0.0331603
0.538239
-0.137276
9.16976
-0.457431
-28.791
-3.62035
2.04218
-0.00021175
-4.26948
25.2166
7.46218
-10.1803
-10.745
-7.10732
-1.91223
3.34197
-23.3477
8.17653
-49.7799
-46.1407
-13.5213
-20.9204
-5.15099
-12.7593
8.02349
-0.658906
15.9516
20.3021
-19.9339
-33.0499
2.00508
-6.89754
16.887
-29.7149
1.62598
6.38832
8.537
-65.9986
-24.5306
0.578207
-1.72152
-2.68908
-57.4672
-21.8643
1.79323
-5.51983
-22.8106
0.740524
-22.6347
-19.7222
3.55487
-66.4964
-54.974
-16.5226
0.857705
20.728
-7.98917
9.15411
-41.635
-3.70903
1.30265
-8.48449
5.35249
-39.8209
-59.5749
16.6746
8.13372
2.33781
-16.6335
22.3128
-46.6998
-43.288
-49.1206
-10.6615
-41.2009
-56.7071
14.3064
2.00321
0.201488
6.23753
-42.0386
-2.32546
0.519985
-0.628696
-23.3717
2.48473
6.42921
3.67321
-37.1921
-31.1409
-28.7769
-20.0508
-7.44868
-8.24625
21.0844
8.32126
-35.6132
-11.744
4.81446
15.1774
-6.57193
-57.2698
-9.95203
11.859
1.50891
-14.9503
9.70276
-26.9133
16.3803
-4.69675
10.5404
-33.2282
-13.6943
-1.53694
-49.3011
-11.4048
5.82354
-50.6953
-40.2487
6.33032
-25.2424
0.841639
12.1506
8.7136
11.6163
8.95754
-11.7274
-0.203529
2.63949
1.89037
-0.00275013
6.27585
-6.45509
16.6755
-40.9906
11.1217
-15.7065
19.1628
-41.608
-4.87084
18.2957
-42.1978
-7.46823
-33.0134
11.7953
18.0592
8.88851
-7.86989
8.89776
8.66159
-40.6187
7.82693
-65.3195
10.0893
-43.8862
-53.3687
-33.6391
-34.3066
8.37781
-14.7943
-38.447
-3.03088
17.6265
0.908198
2.44955
-35.6423
-8.0449
-5.25149
-8.31163
9.08424
2.27217
-37.0965
21.6957
-2.07285
15.3178
9.70745
-0.716871
-0.586535
-1.09293
-15.7298
-12.4333
-2.7384
-4.02895
-0.667803
2.08785
-46.6784
20.2358
10.9798
-4.19352
-36.2524
2.13263
-49.544
9.09641
7.75377
-0.0885965
-1.1114
7.6433
3.38253
-8.58815
-14.0935
-6.72653
4.21236
16.3614
-27.6353
18.5128
22.1792
19.3415
-32.7878
8.14841
-31.6208
8.73249
7.93254
12.0984
4.23157
11.2732
22.9813
9.71856
-37.469
-31.1807
-58.6272
22.9823
-2.49003
-29.9428
-37.9619
11.5656
16.3114
5.38013
-3.84577
-3.21442
14.2728
-19.7778
2.43593
-39.0758
6.54499
-1.20774
-22.9971
-1.39276
-30.1351
-31.4144
-66.8803
-17.567
-3.84678
7.87379
1.68561
0.152628
2.47332
-0.606469
-11.3381
-1.38495
-2.86315
-32.1428
-47.3397
10.531
14.7271
-45.9813
11.1586
10.6362
15.6832
-0.438764
-68.0364
4.2175
-20.9377
12.0429
-7.69552
11.5254
9.17586
3.81387
11.5527
0.329699
9.0306
-3.47932
6.87924
-11.115
-11.8763
-3.98483
-0.568544
8.74387
-40.7173
-67.55
-38.9568
17.9629
8.00601
7.16328
-3.46768
13.674
-18.0759
2.19946
1.61124
-11.5531
2.39694
-60.2255
-33.9253
-7.44881
-24.3937
-10.9082
-34.8931
1.50298
-36.246
-14.2422
-0.549785
17.8999
20.6942
15.8561
-46.5441
2.5519
-31.6844
2.63602
15.6778
4.49121
8.49426
-36.9321
-2.84763
-11.9691
1.39629
10.1524
-0.596679
4.4554
-36.9766
0.225907
-28.9291
9.29603
4.5139
8.84511
-31.3233
2.59028
-68.755
-38.2954
-37.3389
-3.35402
17.1151
-26.2902
-35.037
-40.1376
6.35018
9.12548
-2.07008
7.81357
-34.0449
14.1162
17.3593
-67.1535
0.581771
11.5165
-67.0741
-21.1902
2.30695
11.0451
12.4188
-32.5047
-8.30903
3.05474
17.6381
-29.791
-108.331
1.10122
14.4796
2.02326
-10.8349
-34.5485
8.93675
8.70129
9.81342
0.814118
-21.9136
4.46934
22.2413
-9.73756
-3.51223
1.87569
-35.3511
2.19552
-2.32282
-35.4049
-9.05295
-44.0536
8.00318
-52.7575
-21.2008
8.22598
11.3449
2.75762
-14.3912
-92.7808
3.38734
-35.2903
-14.5318
-9.92926
-2.86145
-21.0406
12.2907
3.88996
2.122
1.61302
15.656
-81.0059
-5.40795
8.92013
-33.7023
8.48229
-2.56768
-3.95413
-18.4801
9.15649
-0.0870409
-2.51828
-6.71218
-7.06444
9.27993
-17.2842
0.690938
-74.4409
-13.6053
8.71598
-35.9017
19.116
-32.9921
-43.6959
-44.3848
11.5043
4.20671
7.85916
-65.95
14.2091
-15.0276
-6.58594
0.457253
-7.87204
9.63786
-2.37223
-6.90546
-4.654
-47.5627
8.88634
-21.2288
-64.7507
-0.0931256
-11.4396
-10.2912
-2.2742
15.7652
0.418015
-32.357
7.78622
-18.0554
12.1896
-17.1992
2.44422
10.8026
9.60982
-2.70413
-41.577
-24.6889
1.79242
5.78146
6.88359
-0.89903
-42.9114
-2.41365
-12.348
5.72238
23.5883
2.72058
8.4137
12.0558
4.84598
10.0519
-32.7202
-66.007
-65.9908
8.7433
22.7974
2.89385
-5.3241
9.72647
-2.37877
-1.37738
0.606611
2.2752
-1.20747
19.2001
-36.6624
-19.5231
18.2592
10.0079
0.69955
4.37289
7.9652
0.348077
-59.8459
-53.1992
4.46623
-14.917
-11.6213
7.48801
-64.0282
-37.1971
-20.1631
1.85664
2.49986
4.28439
3.25869
8.11867
8.50936
-2.67038
4.82994
2.82844
14.6445
11.5599
-9.79611
-3.30703
-2.14904
10.5465
4.20507
2.16714
-2.07108
2.98022
-1.28546
15.6973
5.78739
-0.0708653
-31.4795
2.88314
6.28087
-6.75727
7.72166
-1.19778
-0.0390189
-117.857
-0.0183344
-33.3374
-0.170778
-8.25426
-58.933
-13.9904
-30.9467
12.7943
-35.3671
-24.1597
-36.8888
16.5465
-72.0457
-0.765928
5.34395
-37.2128
11.7169
9.19104
-8.87216
10.6799
1.1117
2.29923
-60.3872
-32.2284
-0.281136
12.5989
3.8853
-31.7344
-30.8154
-106.898
-35.8271
-38.0474
-24.7154
-6.27481
6.00722
8.94341
6.92709
-94.0932
1.35149
11.103
7.41637
-30.9603
4.36109
-60.9315
-5.65888
0.336268
-1.0504
8.86543
-23.1294
-86.881
-104.675
6.02855
-26.3154
-56.0844
-0.32495
-70.2717
-24.9901
-39.461
-34.5167
-0.378915
-62.8636
-2.64296
-31.7948
9.56673
9.19516
-6.89328
11.8491
-36.8901
15.3497
-20.8031
2.67549
-6.20622
4.59536
-0.783324
-14.2834
-66.6374
9.85217
12.568
16.7761
-31.4746
-26.614
-44.8818
-5.66297
-0.0376694
-33.2951
-18.0612
-34.8855
-0.86509
-32.1122
-7.3244
-25.5615
-3.2234
14.1476
0.741026
0.896141
-1.01848
-12.2763
-37.1648
15.345
20.3894
-18.7017
5.01474
4.91032
-0.0577459
-55.6732
11.3311
12.388
-24.6989
-67.7423
-63.0782
-38.6522
-5.04972
-37.76
-2.42093
9.98074
-1.01655
11.0549
-29.2647
-36.554
9.62975
-3.57685
-34.8851
3.4422
11.3538
-35.4589
-1.9285
-34.989
-33.3399
-33.9436
17.2755
-68.2628
0.732726
-30.3088
7.1695
-33.5615
-27.6742
-17.8774
-18.8931
-11.076
5.21557
-0.260086
-33.2803
2.39495
-0.0330352
-90.1342
-3.66926
-31.4494
-6.49696
-2.35102
8.59024
-59.9713
11.5128
-110.106
-0.0283995
-0.660164
-10.8047
-48.7409
-32.8626
-24.2461
-0.494437
6.26267
0.784971
1.31737
-13.5899
0.380404
-21.8505
9.16042
-0.269821
7.80617
-11.9846
-42.0442
1.98982
26.1121
-52.4768
-36.389
-51.2045
-17.074
8.81934
-0.0218916
3.52676
-6.60684
-26.7751
-31.1781
-15.5127
-36.372
1.62977
-22.5168
3.61697
-33.9287
1.29388
2.62694
-0.822829
-13.0752
-4.03822
7.39299
-23.1854
-57.1906
9.41245
-4.56003
-27.5028
1.0394
-3.65256
-13.9506
-0.802972
8.09361
-59.8175
7.41806
-20.2407
-8.1418
-13.6934
-14.2354
-40.5425
-11.8892
-75.6848
8.03567
7.24496
-9.72676
23.3126
-46.0421
12.1211
11.0394
-38.2724
5.17957
6.95076
9.01061
-6.12489
-39.641
-13.5478
-13.0322
8.6846
5.31027
-18.0694
-1.02319
-9.30798
12.5202
1.65471
-3.02767
3.33086
9.37886
-10.0957
-11.4778
-1.125
8.9274
6.31115
-1.05849
11.7178
11.0022
0.562119
-44.2584
7.47691
7.52843
2.41668
-2.94042
-28.66
-20.1829
-11.1042
-40.3404
12.0781
1.33346
-4.24192
-10.5175
1.8601
-32.8785
3.36999
-47.0858
-7.29465
7.71875
9.70119
-104.137
7.20201
-2.40741
2.04071
3.80249
2.42998
4.35719
-0.0656277
9.50956
9.85907
8.71865
-31.0076
10.1803
7.65142
8.97544
9.40218
-73.0923
-5.14074
-1.41524
-13.8732
8.1596
17.0044
-67.6947
18.7817
-37.0088
-11.522
4.21984
7.1848
-16.2982
0.931058
-24.0514
-55.0991
-0.25175
-51.5462
-15.1838
1.32636
1.51807
21.3696
5.90301
-112.406
-49.0044
2.44088
7.03358
-55.5611
-23.1153
-104.742
-9.68552
-14.4561
-10.4329
9.0626
2.56487
6.66896
-2.30497
-2.27452
-6.64255
-0.592943
-0.606347
-9.97748
11.8096
-19.5337
-16.005
-11.3442
-25.1362
-0.895697
7.46324
-3.10145
-23.3261
9.81568
-1.64722
7.35788
-13.3879
8.06788
1.51921
14.0621
8.59752
-44.7264
0.606372
-11.2153
-110.011
-1.19828
-1.15019
-15.7252
-67.2725
21.746
-0.572466
-19.1233
11.3322
-37.9809
-0.980464
-62.8304
-30.934
-63.7386
-20.7714
-8.41445
-0.440607
-28.2686
-50.9911
4.14926
-112.098
-9.60267
-44.8736
0.911772
9.17643
-40.5274
-47.8309
-9.45841
-2.10681
-15.1746
8.00283
12.0935
-119.655
8.23084
-5.92902
8.43137
16.4188
-34.5157
8.36065
-0.946599
6.37701
9.97456
3.09525
-5.73209
-48.2019
7.00771
12.1176
-71.9613
1.09915
-20.6838
-17.0677
7.57907
-67.02
-17.621
-119.355
7.27457
-20.5844
-0.0737188
-2.67196
9.51336
-0.010829
-31.2673
1.58872
-0.985969
-38.265
14.3775
18.8909
8.22718
22.3137
11.0335
17.2678
2.55038
-1.3292
13.1884
-31.9833
4.23222
0.16197
-14.8368
12.842
-6.85837
-13.124
18.4483
2.92609
-32.3533
7.37394
6.56243
11.0053
-41.7504
9.72611
18.6149
-36.3327
-11.6188
-14.512
0.00660424
-32.2119
6.87302
0.713415
11.827
8.77503
-44.9949
6.63667
-7.06614
-52.603
-41.7945
-59.0627
4.87152
-17.9039
9.02047
-1.85813
-34.4267
-0.409567
-15.9808
-0.938212
-100.063
-61.025
6.24879
4.5112
-31.0148
-0.0178806
9.71702
-0.196435
-59.3799
7.9229
-0.0511369
7.11051
-33.3929
9.75011
5.44175
-12.0227
-3.46672
5.02916
-0.584962
5.76565
-27.5858
21.4907
-8.93799
-38.3156
5.26113
1.68691
-36.9478
-13.3177
-30.0981
-8.43615
-6.60652
-16.12
0.840904
-0.851935
22.8995
3.0098
-41.3719
-0.541005
-11.5263
-7.36
-10.3383
2.78318
9.93788
-31.5892
-0.376957
-25.297
-6.79922
-0.773876
2.0388
8.80262
-0.0772651
-0.0503174
-7.19826
8.1961
-2.80571
-0.43575
-35.8747
0.45056
-4.52819
10.9142
-37.4478
-4.41089
-55.9648
4.59761
-35.7961
0.360492
8.94472
7.10901
9.84723
-32.2011
-58.335
8.47183
-17.0692
10.3583
7.38592
3.33595
7.59251
-2.12052
5.64725
0.24448
-13.9661
-32.3754
9.64748
-39.9755
9.88389
-0.336046
23.058
1.71979
5.07995
8.11651
3.53643
-0.218928
7.98829
-3.03527
-1.62033
-19.0525
-1.06558
3.51867
-1.20114
-9.71511
-38.5193
-8.50985
-33.5567
-38.1199
-16.6087
9.17309
-0.941955
8.86121
3.31601
18.6827
16.5513
6.45033
-1.84497
6.26277
-32.4254
11.5789
0.347639
3.48963
-2.27931
9.22853
4.9254
-0.935897
-32.3439
-16.0146
-0.32099