/*--------------------------------*- C++ -*----------------------------------*\
| =========                 |                                                 |
| \\      /  F ield         | OpenFOAM: The Open Source CFD Toolbox           |
|  \\    /   O peration     | Version:  2306                                  |
|   \\  /    A nd           | Website:  www.openfoam.com                      |
|    \\/     M anipulation  |                                                 |
\*---------------------------------------------------------------------------*/
FoamFile
{
    version     2.0;
    format      ascii;
    arch        "LSB;label=32;scalar=64";
    class       volScalarField;
    location    "6.8";
    object      p;
}
// * * * * * * * * * * * * * * * * * * * * * * * * * * * * * * * * * * * * * //

dimensions      [0 2 -2 0 0 0 0];

internalField   nonuniform List<scalar> 
13486
(
17.745
15.6893
-0.291937
-33.2679
-2.9614
1.39764
-8.55736
3.487
8.65284
9.7713
-39.364
5.62184
18.5309
1.64203
-1.47053
10.0915
-27.3468
13.8045
5.52738
16.0607
-39.1513
18.2598
15.4104
-31.4723
8.65917
-27.7697
-32.0312
-6.37023
1.73384
-9.25582
-37.2575
4.25259
-12.1207
-6.35424
3.60892
-4.47711
-15.9079
11.5748
-5.38729
9.60432
-16.361
19.536
1.37994
8.75684
8.65325
5.58781
-34.4231
1.3847
-11.5772
-4.66406
11.5407
0.0515722
6.67792
12.1675
7.55908
-2.22374
2.19593
-1.11125
-11.8698
-38.2111
-45.6543
-38.0401
-12.1261
-39.8128
-65.4266
-19.758
-36.965
18.7227
8.44559
13.8861
-36.4151
10.0737
10.7842
-26.782
-15.4092
1.26455
-13.4608
-2.18386
-37.787
-4.60293
-3.44331
16.1121
-12.1616
0.715107
17.7588
9.26675
-2.90332
11.1672
13.2142
11.1126
7.19894
1.59055
16.3595
15.8996
8.5023
0.0673028
-32.2224
-43.5167
9.62601
-29.7111
-3.91325
2.13416
-45.889
0.0723806
11.95
-30.9907
12.2865
-5.80498
-36.4237
-0.780922
6.57819
1.37304
12.1469
3.02293
22.4327
7.08465
8.91836
-1.66372
10.9057
-21.1416
11.3702
-42.0616
9.65809
-4.94375
6.53513
0.373383
5.06139
5.51863
-1.79355
-50.3855
1.38885
-36.7999
-26.8478
-26.6153
11.8246
11.9008
23.261
-0.382421
-14.4778
4.60236
-8.71632
6.17413
5.73503
-2.41511
1.27748
-3.60076
-3.83081
19.8341
-5.10932
1.25064
8.85181
-5.038
-2.75427
16.5636
6.12863
-0.338443
-4.03047
-49.2207
9.30564
-21.8527
-2.70171
9.30985
9.88637
19.3164
-0.127417
-0.520858
3.33098
26.8154
-2.41946
-26.5854
-30.3835
6.14982
9.9854
4.11152
-6.47448
-75.2373
0.277087
-9.51691
12.2452
5.72461
8.34286
2.9069
4.38189
-27.4406
1.01833
-6.42517
0.33041
-6.63801
-15.5567
8.5072
-11.6358
-0.357892
0.689313
18.8705
-1.43263
-37.7863
-54.2643
-2.57761
14.2384
0.318179
-38.1961
5.39739
11.5531
-7.19032
-20.2601
-0.370004
10.1804
12.3777
-0.943386
1.08567
-6.74618
-35.5577
15.8697
12.3044
1.3651
-7.53189
-8.93942
11.2488
14.9772
-11.875
-28.1777
-5.11561
5.04942
-2.90954
5.70977
16.1949
-0.446069
-59.0359
-4.28802
-3.32492
8.25216
-38.6023
-9.25187
20.2031
-48.4784
15.1609
-5.81805
0.289286
15.453
5.29402
-13.1062
9.90604
1.89401
13.8827
-10.9471
14.0254
5.71582
-18.5284
-26.0046
9.45056
-45.7827
22.7374
6.10726
-5.48021
-3.30111
-77.0589
4.74546
-8.17962
-45.4828
-13.4088
14.3612
-11.2662
-1.0673
-75.5733
-3.62751
-28.2122
-3.85089
-43.0319
10.5225
6.99159
15.4463
12.2295
-9.11811
5.70389
16.2716
-16.8871
-2.69157
-12.6502
-4.96611
-3.12523
-13.4967
7.30155
12.5731
-40.8818
-39.1104
-35.9736
-8.0976
-2.71916
5.78178
10.6672
-46.4324
-55.5363
8.1998
11.7486
-4.66495
-6.63823
-2.71528
5.1845
12.6531
-14.5857
10.2976
9.71509
-4.05002
3.93409
-4.43893
-7.98812
-34.5787
5.65214
-3.72961
-17.6092
-20.826
-31.941
2.36383
2.36313
-37.3912
12.0463
-61.2617
13.2629
12.5496
-4.26321
-13.1049
-32.1465
12.1886
16.1316
24.0913
6.59704
2.28159
7.08872
2.34745
1.45344
11.2399
0.81266
7.65137
18.4088
-9.52781
7.53159
23.0611
-4.69148
9.46321
-13.2138
-3.82265
16.0014
0.865196
4.22264
-30.7549
1.22553
5.31764
21.8747
-11.8775
-43.6852
6.12335
4.42923
5.73429
-31.7167
12.5659
4.19749
-27.3291
5.11623
-4.04687
-30.4171
5.752
7.4045
14.1923
12.2717
-9.72199
-0.685912
-6.15508
-36.7017
16.3146
5.38816
1.2217
5.53298
4.84028
-45.4854
2.23047
11.5089
12.2073
-24.3582
-35.7457
-18.5499
10.1599
-0.286325
19.3309
15.7034
-32.514
-2.62497
3.7521
9.33071
-23.175
-35.9441
15.4772
-9.05232
7.47339
15.8846
19.3845
-38.1515
-34.2338
-44.1732
-23.2278
-8.49807
-23.1016
6.51415
8.94666
-33.2437
-7.3714
0.265581
15.7527
-9.2845
6.01235
15.1611
8.91311
-3.01097
-9.00383
12.7319
12.1503
17.9761
-27.0337
-3.24313
-30.2471
5.229
12.2691
8.86671
21.9703
9.79173
-1.30919
-6.745
5.32789
12.6216
-31.9892
3.83438
18.2261
9.04305
7.35346
5.22046
-6.01238
-15.4445
19.3978
-40.088
4.22347
18.4053
-27.8424
-9.08782
-26.3261
-9.33644
-12.3289
12.36
17.3719
18.3649
-18.5972
-9.18226
-31.5237
9.65316
13.4274
-4.82154
-4.95059
12.1384
-34.1577
-78.2035
-40.8448
-9.88977
2.99582
14.0757
-5.50772
4.07511
-35.2574
12.615
1.40272
24.9023
16.2917
10.1032
2.32027
-5.28091
0.111148
22.8945
-0.506472
-28.1655
-1.5757
7.59752
-36.7398
5.4089
10.1707
10.8307
-1.44285
15.3492
-9.36871
-23.9576
9.677
-32.3764
26.553
9.751
11.5912
13.0983
-73.953
2.42228
21.7874
-5.09606
16.0258
-12.667
6.06895
-44.4071
-3.75944
1.31566
-35.1914
13.5417
6.78893
-49.2027
0.392949
0.982626
19.4776
12.35
-2.83236
7.19268
5.60289
-1.23042
-3.88619
11.5741
-29.3259
19.0744
-26.913
13.041
19.5456
-0.242796
-4.69454
6.23926
-47.3623
-37.5679
5.49963
-1.80094
9.89279
16.4129
-27.6703
-6.13069
-28.4202
0.648483
15.1438
5.66545
-28.6544
-47.4834
10.5033
-47.0811
3.64931
-64.9288
-4.82524
7.22149
18.142
-3.57384
14.1092
-7.32779
-44.439
-8.2475
7.1652
-29.5988
12.0085
1.59056
-48.9309
5.72709
11.4283
-15.3557
-27.4782
11.6437
15.6512
6.67036
17.9875
2.04548
9.83773
5.38795
12.6328
1.90205
14.9718
-31.583
6.92589
6.44605
-2.9192
-16.1641
12.0207
-26.56
5.42605
17.6171
18.0504
-48.8707
-34.3051
6.30686
6.2344
9.297
11.1882
-10.3076
-30.4446
3.11988
16.9933
4.78445
4.19998
-75.3371
18.167
-16.2721
2.60997
12.0456
1.70259
-3.2357
2.37212
3.64816
2.7928
-2.94864
6.91579
-6.99553
17.624
7.05188
6.4349
7.2962
4.07791
-7.96496
21.2671
6.29624
21.1653
-56.0686
11.0541
-4.97299
-26.8439
-2.19681
9.3602
22.6238
-85.7485
-0.799995
1.76898
-12.5651
9.29024
12.1072
-0.400146
8.98209
-27.5505
-14.747
-17.5326
2.83232
-4.96121
12.9887
-5.34965
19.9437
9.22558
-36.9108
-42.8759
-6.07692
6.37468
-36.3997
1.35781
-32.9258
14.9732
-1.11587
2.41519
-61.9582
19.3707
0.497963
10.1003
19.3556
11.5574
-30.6352
-3.61571
5.76013
3.92777
6.0682
1.98027
-58.4819
6.84937
9.31747
6.15767
8.13592
19.7371
2.49133
-68.4863
11.9884
4.67924
0.917353
2.72233
10.4235
7.79896
-28.211
1.72232
-21.4048
4.37928
15.1065
6.23226
3.35558
0.890905
-18.6585
-0.0569102
14.1517
-24.3717
5.40321
9.10677
18.2972
10.8068
-3.95112
21.0444
1.13816
-35.0702
11.2169
-14.8852
14.3463
1.53789
12.0492
-35.3724
-26.7026
-33.7197
-3.55644
-25.4204
8.80061
21.895
-8.34337
-13.4612
-0.93595
14.3221
5.04037
7.67345
-58.6024
22.1785
-27.7388
5.97204
-5.06653
9.23072
13.1276
8.35396
-16.7753
-39.4281
19.2464
12.2288
-6.43821
9.2993
-20.2963
5.42325
3.60628
9.22408
-24.9023
-2.4186
15.3959
-5.96195
-2.86357
3.12418
-39.5393
-8.72371
0.649043
12.0696
13.9594
-62.1206
1.48629
-28.9703
-39.3662
3.08034
-5.0328
7.12937
12.031
3.20738
-6.23898
11.0581
-15.0119
-46.2214
-1.55291
-1.94784
-60.3671
-34.3891
-15.884
-77.8083
5.94158
18.6628
-24.1056
-42.4181
19.3876
17.7439
-47.3494
-48.4237
8.15813
-29.7718
1.05577
4.62316
3.59126
-2.29238
-24.5776
7.57909
9.91084
-1.42246
-20.9516
-18.9673
1.6676
5.96677
8.81309
6.45732
-63.1006
13.0432
17.0162
-46.2922
-76.1842
9.71535
-9.55973
6.98693
-7.49312
-8.44232
-63.0561
1.83077
12.515
21.3087
12.0205
3.96439
2.10508
12.2153
16.7295
1.4296
8.83917
11.6631
19.5801
-6.3612
-17.2226
4.62166
-1.67066
18.8489
1.70851
6.29874
6.89563
-2.60092
5.38848
2.12625
-7.09109
12.5381
14.048
10.1105
8.2309
-11.5362
0.238329
-4.51034
-2.27731
-7.58521
-1.26132
1.46411
-90.7754
-52.7656
8.56901
-8.23239
-26.0652
-8.98948
-17.7398
1.02257
-37.1055
-78.2652
12.7717
-49.9266
18.1971
-59.2115
-26.038
10.8212
15.3861
-18.8054
3.85255
-13.6008
13.3952
-2.83673
-12.1267
-3.24724
-9.67046
-18.6262
12.0574
2.67086
9.15791
-28.026
7.79621
-33.386
1.85337
5.46231
12.6709
-7.17525
-40.5448
-74.2235
18.0939
5.79108
-71.7128
-42.9703
11.5649
-63.8825
-38.6025
5.21985
-0.394474
1.31884
2.49788
-61.5776
12.7406
12.1075
11.1853
7.80486
9.19125
-9.33667
10.806
-0.056777
11.1859
11.2583
-1.99982
-4.70184
-3.61074
2.36905
-13.9589
13.9038
7.16922
6.58248
12.2965
10.8659
5.75027
22.2964
2.06676
-9.75383
9.94889
-0.67658
-1.78511
-3.17498
-36.6932
11.5338
2.21116
1.08643
2.02982
10.0057
12.911
-29.4445
-1.2318
12.3168
-0.16593
18.5766
14.1696
14.5616
5.2295
10.7918
5.61451
0.416025
1.99274
9.69557
-41.9448
-3.29631
-15.192
-14.3416
-61.1595
11.0484
-10.3312
-19.8307
-90.9025
-41.1046
5.84614
12.762
-1.79937
7.43835
-26.1433
12.1801
21.5966
0.577566
-44.6183
9.11243
-12.2075
11.3157
-30.0892
-9.0727
11.9802
2.1266
19.8195
6.40882
12.1838
-7.71667
14.7942
1.02189
14.2988
-23.7607
-15.0458
0.249774
-88.0184
6.12734
-1.11378
-34.3959
18.3737
12.187
14.2034
16.0703
14.3697
12.7097
-5.08765
8.57842
12.2194
12.4334
-1.6719
-0.561547
-6.13743
-4.3836
5.86299
9.7275
-27.0401
23.0733
-6.39079
2.15833
21.2323
17.0236
-2.94238
-70.5223
10.001
8.70989
-21.1572
7.01124
-27.0511
-1.14207
12.161
15.3284
-8.99969
9.32123
14.6834
-1.10937
-2.23046
15.3103
5.4902
-14.7302
-27.9528
0.641058
-6.85772
12.4138
12.3997
-43.0721
-17.2305
-12.7759
5.40988
7.21487
5.266
18.3389
0.858425
24.2693
11.1729
5.68931
12.634
-30.3928
-30.0711
-61.9618
11.5942
-7.25499
-24.8967
-34.3304
8.06056
9.53339
-14.5666
0.120664
-36.865
-0.326873
6.23411
-28.5365
7.01571
5.59743
13.8684
12.6275
13.8623
9.23822
-2.57446
-11.7469
-6.88049
1.22366
-55.3159
2.07086
6.80613
-45.923
9.73136
-66.948
10.7283
-63.1127
6.77496
8.49972
-7.13367
-14.7519
4.38233
-4.59158
-15.5812
4.98759
-0.677455
9.32797
10.4449
12.8862
-26.8263
11.6569
1.96208
16.2381
3.30909
8.56681
10.6156
1.64876
19.559
22.3571
7.81756
-3.93325
10.1818
6.65782
19.7606
1.23311
-11.0529
-57.7602
5.4555
-5.458
-16.8099
12.1415
10.8125
0.991864
-11.9603
3.01598
9.2412
22.3715
-9.64297
11.1012
-23.6805
-1.61487
18.016
-0.476083
5.14423
-37.8114
7.8231
5.64839
23.6745
-3.59198
-6.27671
8.17937
5.43529
-29.0686
-26.784
14.2754
14.26
-11.3385
-3.18886
17.7719
16.3979
-1.06689
-16.8153
-6.70179
5.02418
10.5249
10.2929
15.0279
6.27064
-40.9908
16.3378
5.4626
-11.2724
2.89881
13.4335
12.472
-42.5412
-37.6173
0.351767
11.3974
18.9259
5.89701
10.6411
-7.12018
22.4933
-46.1053
-8.30423
20.1292
11.5301
2.43474
5.9528
-36.2335
0.554513
-16.9042
-45.6822
-14.6228
-63.9995
3.43667
-9.68496
-29.6527
-25.928
-6.74609
-30.414
-23.3062
-43.6109
14.9031
12.3705
-4.47024
-34.8051
5.08687
4.83305
-2.4528
24.0672
0.420423
-5.79551
11.5407
-10.6585
-65.54
3.03432
2.60457
10.8386
24.7011
0.649204
-0.534885
-35.5621
1.16198
1.36859
6.43784
-1.00938
16.5032
11.035
12.9238
-45.0895
-3.01431
0.637384
8.35051
12.2178
8.40922
12.6697
22.4082
21.0169
-10.4795
11.569
15.2649
-5.63752
14.8508
0.144209
20.6157
14.6836
3.38712
14.2474
8.41076
3.01699
-2.71513
13.5844
-10.7782
7.67574
-4.2272
-0.53635
1.36852
11.1867
7.60921
5.95598
19.5695
19.4154
2.58312
-26.5926
5.14622
-19.9644
-1.05135
11.6749
16.5431
-26.8961
12.5139
7.80525
5.25342
8.38067
-59.9015
-37.8775
-58.6449
23.5647
-1.31513
-12.1618
15.2078
1.23729
1.47897
8.09133
5.59409
10.7961
-8.12665
-7.07694
6.33274
3.45321
0.577494
2.35213
21.6136
16.8569
11.9691
21.8473
19.0602
-0.0231315
0.844432
9.44904
-7.77558
19.4321
-45.8779
9.96438
6.71322
-35.2848
0.0432921
12.4277
-70.349
5.31865
10.3512
24.9526
-30.9767
5.43957
2.16975
9.86106
-0.535526
-49.8491
18.9221
14.3654
8.05732
11.559
-13.4113
-6.83315
-34.4408
20.9388
-12.9201
23.4869
-27.2461
9.77612
-26.4779
-4.24482
-26.75
8.03173
-3.65096
6.53662
-2.71422
6.53299
-51.3608
-1.15127
-28.6533
-27.0849
-5.77904
-12.0073
-2.83262
0.795535
-29.4999
-42.7324
7.56772
8.01129
18.2352
12.1171
4.54147
5.63924
27.0537
9.72105
-34.9233
-7.82975
2.02172
10.8982
7.88591
16.5088
-7.10377
-7.23206
2.56905
-1.29395
5.31513
16.1929
-26.8016
-33.4308
-30.7039
21.2974
-41.0921
6.74214
14.2942
-26.9087
4.47242
9.60129
-28.4109
-29.4902
-25.313
10.0847
11.2931
14.0279
-11.7677
-27.2212
-0.974697
-43.3954
-11.5755
-2.26041
6.88215
-20.1581
-5.18847
-49.5857
-31.0084
-24.8436
17.6871
-40.4228
20.8542
-32.3302
-7.6566
3.3139
5.14408
15.6345
6.4358
16.1085
-1.49564
-16.2756
-27.7843
14.4905
-26.6243
10.4363
-20.5269
16.6618
16.0579
-15.6213
11.4997
19.3525
9.8086
12.048
-17.6888
-18.4078
4.35902
-13.8393
-2.8827
-0.354441
0.246965
-0.225618
-34.3899
5.31298
-22.5732
4.19822
1.19072
-7.01508
20.5276
0.874747
1.2348
5.17216
12.0919
-43.2587
2.26445
9.99621
-2.47417
-0.130335
0.585165
8.04666
12.1045
11.8733
-5.71809
12.3906
14.1455
10.9729
-9.47941
1.89651
5.67261
6.98643
-6.99177
-30.9233
-70.6575
-11.0389
-37.4455
-2.92378
-3.48087
3.38241
-27.0108
-4.983
-66.3278
-23.4495
-22.832
6.9105
-25.8437
13.0557
26.9675
6.90865
-25.9112
7.94455
4.3561
5.17122
1.06925
-10.9792
-91.4169
2.72558
14.1872
0.965671
18.8192
1.04924
11.8495
4.15069
4.58729
-26.1485
-2.97824
22.9848
-27.5984
12.1596
12.1134
16.428
2.75029
14.3088
8.40418
-26.2227
9.83984
-31.3137
-50.6261
14.7089
11.5588
-11.9901
4.44565
15.4554
-17.5034
-76.0251
3.63952
1.86135
11.6018
8.6601
13.4635
5.85377
8.10793
-19.0491
-5.9357
-9.75008
13.3018
23.4113
-12.9024
-40.9187
-27.3901
6.85104
1.56047
1.75756
-6.50337
14.3928
4.53866
-30.4247
3.90972
22.3802
7.53205
9.3006
-40.7059
-40.6593
-17.6124
-23.9161
-24.0092
-37.0422
15.4288
8.55776
-8.24437
21.2972
-7.94958
-26.1569
-25.0711
-50.5966
9.79811
-24.4828
6.49218
8.34814
-6.1278
-9.20662
-8.96624
-35.6003
-54.6265
14.0962
-62.5062
0.799251
-31.8368
12.1418
12.1876
-42.0189
14.3108
12.0421
17.4813
19.1337
9.98024
5.02504
23.5893
-33.3393
6.95678
-12.5328
-74.1593
15.7607
-65.29
19.5467
8.10953
-8.60268
-36.4417
-33.987
13.6594
-72.0754
-38.2564
-2.50372
-4.30737
11.332
9.36098
4.99743
3.44625
21.2756
-26.7381
-26.084
-0.702638
7.65366
11.3721
-24.9112
26.7457
-2.1535
-22.6534
10.5246
-7.53664
11.9743
9.08027
11.6326
10.1403
12.2295
0.571868
9.2769
4.92317
-36.5824
-3.35982
9.30209
12.6389
14.7211
-31.0159
-0.542404
-5.03083
9.17723
7.79189
-65.821
11.4667
-40.3395
11.5183
12.8983
-27.138
18.433
-64.8454
22.5892
10.7698
-70.5441
0.74755
-15.5799
8.64038
13.534
-77.2019
14.6892
12.5269
-4.23095
1.90906
4.83313
0.939589
-4.66036
-28.4387
-0.693709
-52.6207
12.1926
-32.2979
-34.0678
-10.3294
15.1743
15.5062
9.66771
-31.4936
8.20881
-2.11973
0.548914
8.80863
-41.0778
-38.021
20.6827
-2.30276
-0.533814
-10.4676
-47.1307
-42.605
12.2489
-26.913
-4.33572
13.5473
2.49696
12.6127
-33.9675
5.37865
21.7341
-18.7041
13.1945
4.74022
-33.1835
6.52528
4.93859
0.158064
21.9686
11.2238
-0.197215
22.0575
13.9206
15.4924
-41.5942
-31.1347
-1.23632
-9.71349
-38.4423
-7.35831
-8.61097
-8.45873
5.70117
5.6573
-0.117596
2.36591
-31.3238
1.32886
13.6301
-41.5425
7.80692
9.41873
12.1321
-2.10779
1.58518
-43.2951
-24.5591
-35.497
-5.34491
13.5391
-76.4646
17.654
-32.7638
12.0032
-1.64468
-78.9024
-12.3691
10.8181
8.27092
5.77237
7.2126
4.94267
11.7849
15.9112
16.2506
-28.4636
-23.891
-30.268
11.9392
3.31675
-6.94936
-11.1638
3.0889
0.172491
-14.0941
7.80617
3.18138
9.77928
8.18856
3.02064
4.01994
-82.775
15.8525
-39.4776
11.2679
0.645059
11.4636
11.3145
8.99993
7.90608
-28.8971
-53.296
-75.3819
-27.5064
-65.9973
-58.6301
4.4346
-46.4789
11.1499
2.43145
12.0712
-33.286
12.4686
-14.028
-0.0831865
11.1857
-30.3362
9.56766
5.432
-90.5755
-26.0462
-42.6313
6.62752
12.4479
0.290238
5.38275
-24.6322
10.4259
-23.5501
4.58731
-30.3551
14.2283
5.59002
-53.9118
12.3542
9.31208
12.7373
8.75857
16.6472
-19.0658
-29.2492
-11.6223
6.00215
9.57456
5.47351
-18.1752
-57.0397
-57.6825
0.955647
-0.594921
-68.8799
22.2
-19.678
11.8159
6.05177
-42.7702
3.71999
-9.76037
-3.11455
4.25016
5.16198
12.3223
-84.4201
12.2507
-14.4669
-7.39807
-41.8095
0.941756
-58.3491
11.8972
21.5892
12.8203
-3.49753
-14.4893
10.5475
-33.0814
-15.4707
-8.78161
-1.34155
-37.0297
-70.1748
-65.1384
-7.98503
7.14878
6.68456
-7.71704
5.23699
13.6928
-5.23803
-10.7519
13.6112
0.0439405
-38.2197
1.89617
0.597633
1.10439
21.5705
-11.3215
6.87471
-7.8387
-4.01274
-5.31599
8.66661
1.44208
4.79531
-5.32343
-7.77149
-8.6203
-7.94975
14.3689
8.00233
5.14473
-10.5009
-5.99516
22.3786
-36.7246
11.4225
11.9287
3.15464
1.52132
5.53679
-27.7182
-7.0552
11.7942
9.41264
9.58339
-69.1814
13.6684
4.36446
17.9043
-6.56449
12.0343
14.9494
11.4906
6.5168
-29.3887
6.4358
-46.7554
3.50486
7.96267
12.7552
4.08414
17.3521
5.28803
19.1134
3.06863
12.4485
1.68031
6.22334
-17.0029
12.0524
4.54955
7.90881
20.8078
12.5819
5.92813
-5.75094
5.67672
11.9056
1.48606
-23.708
6.74566
-13.125
14.8923
-40.1497
18.0099
5.69003
27.0989
19.5391
0.872493
-1.12386
-23.1212
3.7451
20.4394
-2.98414
2.47635
-1.64691
22.7254
8.68487
6.72966
19.5313
-4.47048
12.2295
-4.01345
11.5123
1.61838
9.73291
10.6598
14.7277
4.33186
-35.3792
5.53507
-39.0852
4.19396
-15.301
-11.5479
17.4874
16.698
3.6802
-9.40115
-2.17955
13.1706
7.57219
7.79015
9.30107
-8.78425
-29.5895
-42.7202
12.837
-14.609
-8.18118
5.20619
3.29277
5.52258
-5.62403
22.2901
-48.095
17.6026
-10.7456
21.7944
-11.5529
4.79141
-70.9139
0.874045
8.06526
12.1446
5.64629
-4.64156
3.79482
-14.4296
15.887
0.00732952
3.09472
-44.8275
1.11463
-9.98564
11.7068
-3.20395
-36.276
-14.4449
12.3084
23.507
-40.7555
-10.6093
7.8652
-6.14589
8.1585
-18.6452
0.270477
-2.24372
-37.4487
3.19004
-41.1971
-5.47325
-1.59125
-12.8391
-79.5436
3.30165
10.9013
11.4768
11.4382
22.5002
-44.3011
22.4056
-26.9082
21.101
-80.6549
-5.32466
21.4589
7.54406
-60.9907
6.71268
3.34801
8.89522
-35.4275
-29.8756
4.92841
-8.01418
-12.8065
-5.55746
-4.10785
7.19847
11.8706
-88.4052
7.57695
-13.5893
5.88314
-47.7326
0.585519
10.9859
-43.4071
-10.8538
18.2195
10.9187
19.8685
5.78
-30.4736
6.95454
-6.27478
-71.1901
11.4008
13.7068
23.5602
10.7207
12.3648
-2.84021
-26.5253
22.7914
23.6809
13.7323
-3.55365
-66.0071
-46.5703
8.04155
0.868159
3.65006
13.1648
-37.483
4.05224
-38.6809
20.3821
9.95166
4.32212
-52.4676
6.69606
7.53165
26.1445
24.4432
8.74947
4.69391
-1.71467
-23.1156
8.06331
24.9561
-26.7992
-52.1138
2.48531
0.48511
5.75944
1.20978
-0.625563
4.79831
5.81681
5.89357
-34.9516
6.50422
15.6673
-10.8119
11.488
-56.9865
-1.26311
20.3651
-24.7618
7.04003
-12.0364
7.75466
5.77127
-40.1169
-14.092
-22.6435
7.73603
26.414
-25.9079
-9.29913
-63.4032
-3.32175
-33.7521
-11.7901
-38.8452
-11.9794
-59.426
-13.0918
-5.38452
-12.7049
5.89961
-4.00928
4.09838
25.9087
4.24053
5.52686
-5.32393
5.10502
-26.4884
-5.77649
17.9305
11.6677
5.55817
2.27081
10.3743
11.9863
-9.32982
-66.7966
-10.7942
17.9175
-6.12899
11.7946
3.41023
18.0827
5.41309
-61.5664
9.3319
12.9103
-4.78015
11.9185
-4.56216
24.3699
-41.9268
0.272957
-38.1201
8.5396
-47.2358
-6.41296
-45.7802
3.23691
-6.53846
-75.0143
-45.3146
0.675494
7.12194
-29.8985
-5.41218
7.89235
-49.7852
6.80139
-49.6183
12.9385
22.374
6.14384
-26.896
7.90815
2.73611
6.86633
0.800841
-1.743
-33.7577
-4.4751
-12.1734
-6.6784
3.1221
-3.27895
-33.7783
-18.9608
5.90148
12.1734
-4.83853
-43.2919
-0.518967
-34.9351
0.0033473
3.24985
-17.7792
-46.4232
13.8531
-38.9157
-3.275
-10.473
-23.7837
-28.3827
-47.5569
26.2398
3.91551
-8.91649
7.3275
21.6565
20.4305
-65.4456
-4.00103
12.1545
5.50322
-5.11265
21.8721
5.33875
4.09226
26.9419
0.0866397
-10.4207
4.76616
18.3956
12.7268
8.05348
17.1746
10.2617
5.09408
0.216995
7.97847
5.72543
-23.3052
21.5475
0.17792
-2.1381
-37.8713
-24.3991
3.14033
-54.3316
-5.46833
6.20979
9.1077
13.4996
10.1322
-32.3861
18.946
20.8335
-9.96195
6.08277
-5.09687
-1.52563
6.11119
9.22706
-40.9103
-5.34286
-5.02079
23.6248
-31.7506
11.1363
11.4848
13.5392
2.40746
7.10016
-1.48602
4.72406
-2.93614
-1.53249
-46.9917
-12.2121
-0.490032
-39.3789
13.44
-74.9501
-20.2964
5.42119
-26.5888
-55.5869
-27.3296
8.92499
-3.51835
-5.80395
7.57022
-66.1029
4.23029
-5.44754
-4.30201
12.4946
-28.7498
22.3643
-60.2852
24.0991
-3.04843
-7.45628
4.14922
11.594
6.47396
-18.9715
-1.9514
1.20746
3.59038
3.43285
27.4242
13.5305
-1.87548
-5.77031
0.959861
7.95687
10.0944
-1.91772
9.31783
-46.1374
-49.0987
-27.6967
-9.15984
4.96633
-27.4476
9.68367
5.99016
20.1378
23.1353
-24.5239
-33.4353
5.89641
-7.02151
21.1815
-26.3152
-0.790271
7.52397
10.3784
-49.0942
-28.5645
4.93885
3.75946
5.20407
-42.3054
-10.9228
0.314038
-4.64268
-16.0177
0.384611
-16.7719
-13.7161
10.0106
-70.4596
-58.6631
-8.38335
15.5358
24.1227
0.970987
11.9633
-16.0387
3.63349
2.37728
-0.323271
6.23194
-40.8526
-33.287
21.0339
12.2877
2.93073
-24.8075
25.4441
-53.705
-29.9424
-43.6975
-1.726
-49.2263
-48.8101
18.1993
2.40262
7.12695
7.26909
-36.6165
12.7794
-5.99822
5.82366
-18.1184
3.18227
6.76459
9.52853
-43.5765
-28.4147
-22.6338
-11.1045
-8.25031
-7.59429
23.9828
9.82874
-69.897
-2.62682
5.84323
19.4689
1.43138
-30.9569
-0.955836
15.4599
8.67434
-9.1255
11.9575
-4.7694
20.8036
4.74812
13.2356
-27.8455
-7.8446
-29.5675
-49.4532
-1.90768
6.72667
-28.194
-50.3009
12.0571
-6.21068
2.013
16.4561
10.8598
15.9341
11.7834
-7.92286
2.36087
3.40559
8.47918
0.238198
12.3234
2.18132
20.7867
-39.9528
15.4468
-5.17217
22.0865
-34.2657
-4.03556
21.9787
-43.328
1.40486
-33.1779
17.0533
21.381
12.7709
-13.0575
12.1253
13.983
-26.5007
7.99295
-62.44
15.289
-47.4634
-38.7435
-35.2332
-37.6791
13.6756
-4.6945
-52.4967
4.1729
21.1464
-1.7296
1.74046
-40.2797
-5.8638
3.1974
-5.30072
12.0142
8.51263
-48.5328
24.6776
2.4345
18.3171
15.3733
-6.21705
6.86363
6.15396
-11.1295
-7.10954
5.0127
3.7319
-0.875401
8.42309
-38.5438
21.292
13.8478
3.31759
-20.5386
9.18881
-31.5405
9.89501
13.6778
4.86679
-60.3005
13.3457
9.72223
-5.30934
-26.6207
1.92844
10.4806
20.7277
-26.9791
22.5126
23.9571
23.0813
-7.88901
13.4104
-27.0563
12.1623
13.9317
15.8805
10.428
16.4984
26.0221
11.8691
-27.8066
-17.4983
-34.5751
25.9055
4.58768
-8.05619
-41.9558
13.2396
19.1464
10.3114
3.69492
-1.71781
18.0161
-9.37574
9.18764
-45.1711
7.72284
2.76145
-10.6409
5.4781
-28.7235
-36.3456
-47.2346
-9.90704
-0.483858
13.1119
1.15708
4.25123
8.6144
-13.672
-1.69724
-32.8841
-12.8919
-27.9391
-29.1788
15.6716
18.5577
-51.5642
9.21129
14.9702
16.6672
3.10616
-94.7868
10.3443
-23.3235
16.3012
-14.5236
15.7715
10.0656
4.54791
15.2223
6.68904
14.3103
3.92484
8.0025
-5.30308
-26.4421
-25.6281
-3.47052
13.9995
-80.8332
-57.4504
-74.7369
19.6912
13.6624
7.33683
4.11865
17.601
-12.7098
8.54121
-1.89588
-6.22132
8.63854
-62.5065
-33.1053
-6.8246
-25.3484
-4.97293
-74.9736
-1.57386
-50.971
-26.3682
6.31819
21.6007
24.1592
19.9583
-87.4283
9.29246
-28.3123
8.68449
18.5758
4.77111
13.7185
-69.9874
4.40604
-6.6123
2.20827
15.2953
-3.56356
10.7001
-36.2548
0.328328
-27.8602
13.4296
10.6881
12.1324
-30.0648
8.7352
-47.7901
-49.6529
-43.493
4.09683
21.3391
-17.1603
-15.1066
-48.6714
10.9813
12.0717
1.72351
9.39486
-35.365
17.9689
18.7867
-52.4785
0.875645
16.3698
-65.5778
-50.3344
3.05947
15.3151
17.1102
-27.4981
0.663893
2.09788
21.253
-46.4638
-64.0961
2.1391
18.948
2.89173
-5.26632
-13.5393
14.5945
10.8479
14.9953
1.81133
-14.8438
10.5803
25.3048
-27.3235
4.59082
2.71675
-40.9616
2.86034
4.76964
-39.7212
0.0600085
-34.4319
9.67112
-38.6062
-16.0798
13.4196
16.6718
8.8026
-10.4931
-56.2505
10.2063
-35.1094
-5.19199
-5.63585
4.29733
-41.2262
14.4499
10.5123
2.66251
8.76637
20.1644
-20.8631
2.9925
13.142
-36.1872
9.64531
-1.46981
3.44181
-8.00498
11.0802
1.74242
4.67931
-2.12695
-16.1622
15.0135
-6.95473
9.78976
-69.0756
-7.18179
12.4116
-42.3191
22.9351
-30.7856
-29.4024
-29.5263
15.3281
10.5958
13.8648
-35.1636
18.9946
-57.2086
2.10445
-0.338254
-2.61691
12.1443
4.65893
-1.84475
3.10177
-32.6308
11.114
-26.0564
-67.0687
-2.14612
-15.358
-13.1378
5.36692
20.0317
-6.89073
-28.7578
13.4248
-10.6189
17.1757
-6.32461
3.2813
10.2949
12.6555
4.42289
-22.0888
-19.364
2.78544
6.08384
7.30474
-6.33997
-53.5872
-0.552674
-2.49252
3.36177
26.2804
9.38573
12.0138
17.2497
5.07902
13.581
-58.0963
-39.9579
-75.5913
12.117
25.6169
8.85921
-4.70165
15.2266
5.52074
6.25769
-6.04129
2.73382
5.51056
23.0599
-37.5549
-14.1537
18.642
15.606
8.02337
9.96415
13.1289
6.70564
-35.7524
-80.8906
10.5073
-27.3437
-26.5758
11.5596
-80.4693
-20.9743
-9.25472
8.87256
9.48166
10.6738
2.47174
13.9471
14.3802
5.4475
11.2716
9.28554
14.1633
12.0631
-0.456534
3.96487
1.97209
14.8292
10.8695
9.35752
5.61244
2.32291
-36.1711
19.8951
12.0424
0.718851
-37.5007
8.79271
12.5681
1.70428
6.47373
0.174587
3.14636
-54.6235
4.97406
-37.8546
1.06834
0.780102
-14.6689
-32.9385
-32.2279
17.8527
-39.2627
-26.2944
-50.8418
20.4668
-31.0758
6.3357
5.49466
-45.9285
12.3924
11.9846
-0.114802
16.1398
7.35501
3.20832
-31.7398
-40.3001
1.17909
15.1587
13.3359
-25.0204
-45.1279
-32.1387
-33.0979
-50.9787
-11.2897
-1.66856
6.98399
12.1274
13.1068
-25.7283
-1.07095
16.3789
12.2041
-25.8525
2.40009
-34.089
2.20751
0.551953
5.63819
11.2386
-3.61742
-34.4787
-45.0646
6.28814
-70.3072
-29.16
0.607444
-91.3786
-24.1677
-52.4625
-49.4537
0.90692
-36.4274
4.46355
-26.891
12.5006
11.6633
1.04773
15.5938
-74.7879
19.9223
-13.981
3.52022
-6.28269
10.0929
5.86707
-26.6651
-39.6906
12.8491
15.4267
21.0695
-35.3144
-23.7654
-83.1391
-0.800921
1.02073
-31.859
-7.68791
-34.6503
5.78255
-26.376
1.50699
-16.8577
1.27609
18.2133
7.35737
-3.45422
12.2001
-9.58718
-26.7305
17.4702
24.0141
-29.1768
11.5249
10.0183
-0.44868
-31.2908
15.1133
15.3486
-8.72871
-24.1921
-77.0748
-81.2067
-5.63013
-37.5067
-4.36209
10.6376
1.33187
13.9985
-28.9636
-51.7309
12.2021
-4.69699
-37.2408
3.73978
12.0396
-40.4518
-1.71096
-50.0024
-30.7746
-35.1207
21.5156
-38.8172
1.17572
-30.4718
11.9457
-32.003
-4.35852
-9.24448
-45.6582
-5.61784
11.1316
-9.92033
-32.1119
8.35953
-2.21538
-44.2097
-3.15448
-34.8474
1.8503
5.07336
12.1198
-34.6596
16.8345
-37.745
0.636706
-7.2248
-14.2786
-81.3466
-33.2599
-50.6167
6.61013
7.39314
-4.61861
0.925162
-10.0829
7.30402
-57.9598
12.4074
-26.8189
9.4016
-5.59751
-29.0663
9.25344
27.8768
-30.1671
-44.0396
-21.7674
-13.6147
12.1321
-13.5797
9.46153
2.67775
-35.602
-34.6937
-26.6285
-34.7886
8.77174
-42.0668
4.59323
-43.6773
2.40401
8.50854
-6.0529
-3.87303
-1.98094
13.3951
-26.0348
-54.9647
15.1409
2.99638
-28.834
0.925611
-17.4429
-10.2122
-0.10086
13.591
-67.2612
7.93424
-23.4529
-17.1044
-38.9437
-36.3204
-32.8096
-2.18968
-19.1752
11.8469
7.46451
-51.8308
23.0572
-82.1658
15.3871
16.4284
-46.7231
4.27135
11.7228
12.0887
2.41901
-56.455
-28.7421
-19.8803
12.1066
6.15505
-15.6242
-11.9769
-0.570776
15.2855
1.37599
13.1338
3.69585
14.9622
-8.96663
-10.4892
-16.9488
11.3565
4.77235
7.80227
16.978
14.859
-7.18655
-79.9978
13.1555
8.46952
2.5368
5.06041
-15.5016
-41.6959
-18.7071
-73.1083
15.2325
8.46468
0.800512
-5.9405
3.71104
-25.175
9.84189
-84.6641
1.56363
13.6347
15.3673
-51.1155
11.4929
5.23486
9.10824
10.5436
2.02465
10.8957
-5.41921
12.5626
9.92229
12.7068
-30.0987
14.5228
12.8446
11.6067
10.3647
-53.747
2.82363
-21.6874
-9.28494
14.0986
18.5407
-95.2044
18.6396
-63.7948
-27.3058
10.2823
11.9187
-10.3043
2.02187
-23.8362
-87.0722
-4.9725
-57.8041
-11.2304
0.638751
7.94461
24.0021
12.2611
-31.8238
-46.6427
9.13175
8.37254
-39.8988
-47.5013
-59.6594
-10.0774
-26.9501
-25.8866
12.0031
1.96851
7.86892
3.32909
3.42298
4.74666
1.41251
6.23941
-1.24648
11.5294
-12.513
-5.38085
-20.2777
-64.1518
5.86106
8.75228
0.421924
-26.282
10.6134
4.11925
7.70995
-7.97834
11.8965
7.68368
18.776
12.1112
-61.4449
0.404056
-6.16065
-53.6358
1.70649
-27.7225
-7.15083
-93.6136
24.3568
-0.00156012
-1.89008
16.5973
-45.4157
-3.17583
-44.2052
-33.7204
-32.7793
-9.87495
-7.1531
6.91332
-11.1843
-59.4071
9.19163
-61.7304
-6.61974
-34.3956
-1.74503
11.052
-42.0605
-56.1498
-8.04027
4.88
-11.7799
12.3263
17.2935
-57.1634
12.5423
1.96124
10.3262
20.526
-40.0973
9.54791
5.67662
7.56941
15.5675
0.868859
-0.865098
-29.7349
11.7179
17.3177
-71.5817
-1.0249
-20.1847
-12.9794
8.6083
-60.3091
-10.6986
-66.5182
7.7079
-23.6939
5.11406
4.63102
11.7896
4.71321
-27.0806
-0.898844
-9.88103
-10.5008
19.158
22.8158
14.0663
25.0317
12.5964
16.4265
9.52711
6.34778
13.9444
-27.4042
10.0439
0.415533
-26.512
17.3677
-2.48256
-9.52475
21.9569
3.42341
-66.4128
8.61992
7.75706
14.7196
-13.4986
12.1951
21.0919
-42.5494
-27.0023
-10.2927
6.49902
-25.4501
12.9521
1.76759
15.1739
12.1452
-53.768
12.1429
-4.03004
-29.4919
-28.0972
-81.4462
11.3411
-14.6526
12.2753
2.92453
-33.7379
-2.30377
0.978278
-6.3221
-70.6213
-32.1056
12.2177
5.35628
-33.3103
-1.01336
10.412
5.30486
-93.9219
8.53968
-14.564
8.26611
-37.3991
10.0324
6.13285
-2.20586
-0.502663
10.1081
6.01741
6.44109
-26.3867
24.6704
-6.1438
-49.8523
10.2618
7.79655
-36.0436
-9.59526
-27.2151
0.202532
1.36882
-11.9392
1.99124
0.586749
25.3248
2.53818
-52.647
-2.00143
-6.22635
1.21128
-4.81466
8.74645
10.4757
-27.5347
6.17114
-23.7988
1.91796
5.5537
8.63259
10.4003
2.1061
0.469954
0.852802
12.4608
5.34085
-0.0791015
-39.4918
-1.87078
-2.36797
12.3466
-45.593
3.08693
-33.7459
11.1875
-36.1555
0.764707
14.2881
12.4985
9.15538
-35.7748
-36.3693
12.7329
-2.57944
14.5434
8.78825
8.56312
11.7098
5.17928
6.37618
6.30621
-7.82547
-27.1691
10.5853
-30.8466
15.0038
5.47156
25.6051
2.74283
6.08092
13.1332
4.51892
5.5676
12.259
4.70302
5.28235
-17.1775
-7.51614
9.30622
5.61252
-1.48983
-84.6197
-4.886
-46.36
-37.454
-10.025
11.7804
-11.436
11.0851
2.80012
21.4114
17.7661
7.25978
5.42934
7.03259
-29.385
13.181
6.74688
3.91385
4.73994
13.907
10.7953
-4.52432
-70.7518
-12.6325
6.67504
0.493891
9.27635
12.5787
-78.1625
6.22529
-14.8148
9.9531
8.1629
-5.15868
7.77472
11.8654
-0.390652
9.10518
13.2461
5.05786
-12.7098
9.81169
5.74039
18.1539
-7.97508
15.6549
11.3024
-35.7914
-49.6134
-51.5816
-8.23105
-28.2631
-62.9687
12.0552
16.8892
13.9438
16.327
10.2721
14.6113
7.7745
2.68374
8.15101
-4.80725
4.45439
8.22187
-16.0311
19.0648
5.92672
-35.5752
10.6304
17.0403
19.1425
-52.8614
2.89918
-55.5348
-26.3354
8.46173
-4.95624
-52.0369
9.46674
20.8282
-28.6526
-8.87391
-33.1369
7.80248
3.34601
4.98537
7.85561
7.73416
-48.8391
-1.3299
-1.32467
-27.5275
12.3089
11.925
13.3234
-0.206046
-16.9887
1.10942
-0.704762
-19.2245
0.3409
7.52846
4.98723
1.45958
-3.01477
-4.84533
-9.01167
10.4362
-35.2376
5.34867
12.6527
4.07234
6.6041
-30.7903