/*--------------------------------*- C++ -*----------------------------------*\
| =========                 |                                                 |
| \\      /  F ield         | OpenFOAM: The Open Source CFD Toolbox           |
|  \\    /   O peration     | Version:  2306                                  |
|   \\  /    A nd           | Website:  www.openfoam.com                      |
|    \\/     M anipulation  |                                                 |
\*---------------------------------------------------------------------------*/
FoamFile
{
    version     2.0;
    format      ascii;
    arch        "LSB;label=32;scalar=64";
    class       volScalarField;
    location    "1.1";
    object      p;
}
// * * * * * * * * * * * * * * * * * * * * * * * * * * * * * * * * * * * * * //

dimensions      [0 2 -2 0 0 0 0];

internalField   nonuniform List<scalar> 
13486
(
36.637
28.2392
1.74054
-3.94765
12.8806
-6.16724
6.27264
21.3353
25.0754
12.0061
-124.492
4.99803
38.8562
-6.83632
9.43363
12.6356
-141.66
-0.749364
7.43414
32.6999
-4.08146
38.4922
27.5987
-22.9455
9.92662
-21.3922
-120.184
-13.7339
0.0137472
-11.4497
-3.39693
6.42667
-27.5463
-8.49947
21.3301
-0.104695
-0.0827661
30.6375
-1.78269
24.6055
4.83458
40.4801
0.153454
10.2192
10.0541
4.66826
-204.717
0.116424
-0.0869209
-16.1916
19.993
-2.04338
2.38373
30.9494
-1.12971
13.4866
0.667213
-2.05928
-25.9543
0.113654
-87.8103
0.145472
-81.4967
-3.88586
-10.2385
-0.0506899
-4.64214
36.3341
24.9528
-0.687607
-4.54114
-2.60268
24.8628
-89.5731
0.00761337
0.690863
-0.0279909
9.29096
-243.136
-4.10544
-0.00549393
28.1095
-90.111
1.97753
36.8262
5.60977
-10.6896
18.5858
23.3183
13.9335
3.93216
18.6694
35.2499
30.6734
26.2923
0.0443053
-113.629
-4.53843
24.5433
-158.266
0.101795
-5.55236
-4.5838
-2.02311
13.562
-165.006
23.4124
-1.93931
-240.779
17.7474
25.1617
5.46547
30.8915
0.661502
43.1774
25.4082
10.4108
-8.15533
25.0553
-0.230492
-1.07445
-88.2554
27.4414
-1.91011
24.4467
-1.88147
17.6062
3.22303
-7.06991
-9.27732
-1.95365
-209.17
-62.2072
-76.8982
20.9189
18.4338
39.0062
18.1339
-0.249255
21.7895
-23.2059
2.44452
6.11306
-4.1494
0.790765
-75.9964
-5.30491
30.185
-17.0043
-0.0478171
11.9997
9.28366
0.00516628
29.1583
4.46395
1.61328
14.7549
1.58129
27.7741
0.366482
-13.421
27.737
2.67277
40.1408
-2.1344
-11.7748
-2.80112
49.517
-4.40766
-78.0832
-62.643
4.5244
14.724
13.0384
0.0511186
-10.5706
-10.657
-28.1747
23.6176
6.1275
23.421
0.724524
10.1641
-18.9031
1.60083
-13.8202
0.0250972
-10.6816
5.87019
27.1689
-0.0860119
1.18584
-2.54483
31.2883
-2.96305
-130.804
-9.29337
-13.5777
33.8911
-9.64517
-3.49035
2.96842
30.6316
12.3601
0.51641
-3.06638
-1.37492
26.3658
-2.47084
1.63472
-11.8959
-15.4865
32.2786
23.4305
-6.06956
-6.42895
-12.2241
14.3643
33.4984
-39.036
-149.677
-17.2877
22.2199
-13.78
0.470516
36.2143
-10.7623
-5.82439
-5.37837
-8.82571
23.1004
-10.9294
-24.0738
41.3797
-4.74513
34.9692
-9.22358
1.33397
35.3429
10.4683
-26.6497
14.6743
0.586441
33.498
-1.47811
27.3073
10.5546
-16.3471
-90.1833
12.0327
-5.92167
43.5061
24.1836
-2.06545
-4.51588
-13.134
6.16681
-6.32287
0.622109
-26.4355
25.8169
-1.44019
9.28455
-11.953
14.3667
-19.8135
-5.54205
-3.79081
23.4043
-3.22288
23.6299
22.7137
-12.6379
3.17251
36.3227
-15.6908
-4.49564
-4.33364
-2.2161
-4.30882
-4.48276
20.2722
23.5547
-40.295
-76.007
-170.179
-25.0129
-7.54795
0.392932
23.198
-4.62391
-0.30749
26.8216
20.7406
-8.81493
-9.85865
-13.3972
2.81821
24.3705
5.64454
2.44066
-1.0736
-4.68303
6.84772
-0.235707
11.1495
-0.151076
10.9024
-5.87295
-0.0320748
-59.8595
-3.99505
-6.02036
5.47321
-94.7106
18.5918
-0.149653
23.2651
26.4423
-6.11638
-0.0638417
-0.556584
23.1896
30.9853
41.0883
4.34424
15.7879
19.9568
1.47878
14.7892
18.7097
17.9638
3.21366
32.9704
5.76311
24.8913
45.0397
9.79257
13.0588
-1.28715
-5.93517
30.4676
14.4162
10.4368
-19.9824
0.0431013
16.3362
43.3662
-39.1755
-0.313824
15.9034
1.72793
2.85321
-98.1417
24.1019
-0.0565264
-89.9095
17.7097
-5.19994
-15.1631
7.65958
3.12073
26.3988
22.7205
-11.9818
0.000598277
-9.48597
-167.023
33.1145
17.7242
0.023395
16.6071
-0.850463
-7.16337
-4.82215
20.163
23.1219
-0.654121
-90.5186
-51.3351
22.9852
17.4182
38.4565
24.5006
-173.857
-4.70746
-0.707594
12.7524
-94.0749
-2.51874
31.6505
-13.5636
8.0351
35.2828
35.4208
0.0251443
-4.42344
-6.29455
-102.755
-25.3504
-95.7343
2.98425
21.7891
-3.94789
6.18087
-22.4702
30.6145
-27.4614
17.4503
26.7196
11.9577
-20.0837
-15.0795
24.5033
22.75
28.6798
-14.993
14.8305
-60.4442
10.7627
23.5527
2.74
43.4359
14.0212
-12.1744
-10.259
2.69809
23.7737
-127.147
-1.60706
38.1641
21.8196
7.67606
-0.427625
12.2381
-17.6713
38.1762
-0.507818
13.4514
35.6613
-155.364
-13.0327
-74.8449
-15.151
-3.14543
29.0858
27.8702
38.2242
-50.684
-0.217268
-22.954
13.5588
23.606
-15.9276
-22.3222
22.3437
-4.65644
-10.8371
-40.28
-68.3866
-4.46168
30.7344
-0.0189136
-0.999827
-4.23417
22.0643
0.063232
46.9156
35.8017
24.7715
20.5222
0.0487026
0.0442018
44.829
-4.35226
-0.230235
-12.3968
25.0648
-171.787
2.49065
15.3598
-0.169223
-13.7299
27.1883
-34.5973
-114.636
13.9383
-2.58829
49.0463
13.9588
19.9588
25.7685
-10.8419
2.29862
38.8135
13.0291
31.1737
6.10015
4.22161
-3.98844
-4.01708
0.292228
-182.324
24.0021
25.1255
-6.16868
0.0155997
-6.97911
35.8897
29.2489
-4.58077
25.5593
18.0583
-13.3361
14.8053
20.3663
-69.7013
37.7354
0.192778
-0.597101
40.0585
17.7773
-0.00833604
16.1813
-4.46217
-4.27553
9.27186
16.7266
27.6869
35.4513
-46.1384
12.0161
-47.6599
-0.00706246
34.7001
4.33403
-15.4742
-4.87075
2.2037
1.25733
20.2332
-9.6706
-21.9611
25.5737
32.602
-4.23465
25.752
-77.6542
-8.93888
-30.4187
7.11608
-30.4253
26.6669
2.13283
-79.4189
21.1558
29.0942
-26.0855
-39.7465
20.3288
34.4416
5.34453
36.89
1.96249
14.2695
2.95066
26.5509
0.612766
33.5804
-104.353
3.98583
24.4192
-6.52375
-14.5644
23.1996
-144.218
3.08498
28.3004
38.5148
-5.60178
-1.59293
4.50809
0.862846
21.8
15.4352
9.59209
-96.3028
-2.29561
36.6723
1.50516
-0.677071
-19.2191
38.6396
-7.43776
0.603362
21.976
19.6737
-3.94198
-12.2393
22.0245
1.40564
-25.3502
6.72055
-26.7314
37.4306
24.9546
16.9097
17.4762
-1.49
-25.4186
41.7914
5.38003
41.9378
-5.45632
23.2448
-0.147146
-91.8773
16.5574
12.03
43.7961
-12.7254
16.8212
15.3553
-41.0581
11.6828
-0.730911
-12.0922
24.0812
-38.6908
-13.9209
-18.1741
-5.30985
-7.12546
25.81
-0.0262403
41.0366
24.3877
0.276187
-7.71472
-11.7752
5.75955
-80.7191
-8.12982
-172.732
34.7936
0.0347454
0.694318
-30.1787
38.7787
0.0651056
3.30875
40.1592
19.9736
-10.5187
-4.23634
17.1324
-0.376619
24.4162
0.789134
-6.49559
6.57462
21.7915
4.82151
19.6295
40.7057
0.604821
-7.62895
22.9115
1.61468
-7.15429
17.077
16.4045
8.38266
-12.5274
2.15406
-0.743109
1.27852
34.6005
5.19383
1.16576
2.1531
3.12311
-3.33575
24.0276
0.664803
23.6199
23.0814
33.3012
-0.973072
-21.1938
41.5437
0.327075
-4.32058
25.2121
-18.6276
26.72
0.357996
22.0167
-6.50804
-85.193
-18.3065
-0.00676164
-126.938
11.0452
42.6951
-6.89497
-57.4582
-11.8797
24.3002
-3.30166
8.40864
-42.271
42.0209
-11.5512
12.2745
-16.4757
12.2424
23.2849
7.45244
-46.9022
-3.5342
39.653
22.6905
11.5411
21.5439
3.41224
19.2971
19.9881
12.5501
-70.4247
-4.26019
29.8825
5.76211
-2.29387
21.381
-4.53706
-6.8861
-1.32495
25.8316
24.9118
-6.18203
1.80534
-8.77035
-3.6809
1.30325
-7.00132
2.89423
21.8744
-3.05146
-25.6949
29.0554
-1.65986
-7.86773
-3.88358
-14.1328
-6.02306
-17.2523
-0.971837
-17.0769
24.4546
38.8283
-0.12577
-7.92837
40.2192
37.6451
-5.37852
-9.89458
25.866
-147.82
0.913732
-2.12146
-1.67853
13.9958
-115.98
8.22196
14.5329
-12.8554
-5.21799
-26.1347
-5.75468
21.2401
8.85403
15.4067
-6.57748
19.7855
36.7581
-259.827
-15.0744
28.1437
10.468
15.2327
-1.63034
-11.2162
-6.73491
-5.25883
24.1876
42.0572
26.4484
-4.46867
-5.08711
23.3465
35.679
-10.3782
26.6371
23.844
37.0037
6.18869
-0.884005
1.17531
-6.03539
36.4745
1.86497
1.39393
16.3972
-4.33821
4.79757
-4.57638
-26.1991
21.9985
20.066
15.2251
9.56324
-194.616
-8.61017
-6.55174
13.9736
-28.1163
-16.3389
0.455851
-23.7882
-77.5575
10.9199
-11.2925
-90.2273
-130.379
-7.43858
18.98
-151.16
-10.2224
26.8347
-4.66981
38.6627
-5.82562
-91.3036
29.7166
34.8458
0.0317832
-1.06805
7.45228
24.1829
14.8646
-49.2038
-3.60522
-0.292545
-5.02351
21.9519
0.62049
12.4739
-0.532023
25.0845
-131.484
0.497008
-0.230007
29.8997
-19.7105
-115.37
-19.1361
38.2718
-3.80804
-7.74024
-169.486
23.7951
-7.57883
-0.466738
4.72011
11.5075
-5.14409
17.165
-10.2192
18.9407
22.1953
28.6611
8.78932
-0.770012
-7.59259
16.9709
-11.2155
30.1385
15.431
-4.243
-2.06247
-4.8406
-4.0639
-0.217021
26.9929
7.20255
3.5019
23.2812
-1.70149
19.5835
43.3519
-4.78378
-35.3804
14.9007
-33.926
-1.38485
-5.08553
-4.20486
23.8758
0.630238
0.292671
0.590852
-0.621018
32.2465
-9.09632
0.0978825
23.1972
-35.3454
33.9695
27.2246
32.8245
5.07377
14.4651
6.54286
1.57814
18.8996
23.8337
-4.78397
-6.76308
-129.375
-10.178
-26.724
24.0347
-55.1689
-28.0471
-23.6772
-4.93893
-0.08378
23.4253
-0.109716
4.22732
-72.0109
22.9659
43.0149
-29.2119
-72.9729
12.0059
-1.46776
23.3216
0.430072
-1.47738
29.5504
-2.18926
40.8184
16.55
22.9849
-10.8244
31.618
0.631392
27.3693
0.154645
-26.9262
-10.8088
-14.0126
15.8488
-7.51514
-2.18198
38.4551
22.8713
25.3256
34.8283
26.0687
29.7757
-6.45495
25.85
22.7547
24.2988
-6.06213
-10.8915
-16.0984
-23.4454
5.49896
28.0916
-84.9415
40.0569
-25.8857
0.729081
41.6294
34.8621
-6.55799
-16.8239
24.5128
10.9123
1.85126
23.1596
-80.3007
-12.7901
22.9226
34.0857
-1.52886
27.6009
31.2583
-0.0822658
-12.8631
31.2303
10.2144
-0.20287
-76.465
1.91707
-25.3704
21.3665
16.0428
-0.139349
-2.36187
-12.6488
5.72357
-1.20599
4.92985
35.278
-2.0403
46.4211
24.1315
7.15198
27.1585
-11.1068
-66.9754
-6.9244
23.7379
-1.63386
-74.7787
-3.47829
9.60488
12.4203
-1.08148
18.5442
-127.998
12.8981
-3.87314
-0.494332
19.5264
6.70269
31.9465
23.9164
24.5748
23.3987
-6.60212
-22.5397
-19.8087
1.99879
-6.08015
-9.26778
19.3285
-4.29588
-0.820711
-0.124819
1.75313
-42.0149
17.0712
9.39869
0.649461
-13.126
11.2048
-17.1162
-19.2117
1.78009
-11.3709
27.5283
16.399
32.1998
-76.7652
20.4921
0.475171
34.0212
-4.35664
11.0223
-1.8925
-6.03695
39.7644
40.2753
19.6748
14.3772
14.8959
22.7818
40.3592
17.1212
-25.579
-34.7758
3.75664
-24.9185
-192.959
23.2795
23.4364
-7.75908
7.85331
21.2086
21.8843
43.9508
-64.1685
17.6316
-111.052
-21.3696
34.5609
-4.52671
20.3687
-4.66219
2.64344
8.83758
45.5565
-3.81346
-16.0024
9.79479
2.16658
-26.9033
-79.8671
-0.856891
26.2228
-0.140632
14.374
37.5023
34.1169
-3.29991
-48.0412
-2.94307
1.56781
29.3663
23.0159
34.3745
13.9523
-162.492
36.1257
22.8249
-44.7612
19.1968
23.9309
31.2195
-70.2811
-4.32647
-0.00202125
19.2232
39.6844
12.0059
1.7013
-25.5109
44.0321
-236.326
-23.1927
41.2351
20.0241
-3.24805
19.3454
-4.46833
13.9081
-8.95785
-224.019
-1.09264
-7.74205
-1.31304
-7.45353
-149.345
-127.103
-131.627
8.90074
-97.449
-6.12086
19.0272
21.2441
14.3403
-142.395
5.85775
1.08118
-7.12365
46.0738
16.5891
-18.0699
20.0194
-9.11107
-8.68633
20.9002
20.8298
23.2949
46.5911
0.0454939
-4.39619
-22.6216
1.6423
17.0373
24.8128
-12.3459
36.56
15.1935
24.9844
-4.16104
-3.66282
0.775485
25.6969
23.5434
26.9285
23.2267
42.527
42.4015
-9.24222
20.117
30.7437
-17.4375
34.5932
-1.34772
41.8143
34.413
-1.77364
26.8407
9.90378
18.9796
1.58325
23.6975
-22.187
21.1775
9.2996
17.2809
-6.02949
23.3974
-1.28462
5.23472
40.4029
40.2816
16.3711
-79.362
5.1073
4.0199
-4.13712
17.5999
36.0515
-77.5328
24.3039
23.6141
11.3644
25.4701
-16.9496
-4.72362
-0.123829
43.2226
6.95722
-1.83633
27.2443
-5.93431
0.737379
9.29172
3.59977
16.9408
11.4207
-11.0449
13.7821
20.1544
16.8233
18.8077
42.3227
34.4504
31.1286
31.7655
39.9146
11.5884
-1.61661
-1.5426
-29.4289
39.7278
-4.48347
24.152
22.044
-10.3776
12.9671
26.6302
-15.4476
11.4298
13.764
47.1115
-91.1239
10.2008
-5.63181
28.6046
1.49916
-4.88178
39.1689
33.5757
23.7822
23.6997
-9.87376
11.9872
-184.904
42.2509
0.101143
45.2484
-1.94325
0.296817
-93.3963
14.5546
-85.0419
3.31549
-2.35333
5.85617
-11.3635
5.60628
-5.06296
0.0547709
-6.06155
-75.6756
-13.8539
-53.52
-21.4876
-3.03943
-4.44971
-76.5786
25.5656
26.0064
30.7424
22.4599
9.32479
8.91398
48.9196
23.5756
-140.618
0.101578
-5.15367
17.0567
21.3032
36.5618
-23.6779
-23.6093
20.7986
-0.0284389
5.25057
29.882
-79.6609
-16.4348
-175.258
42.8014
-4.55266
16.8869
31.0728
-0.916662
19.298
-0.95675
-87.8443
-65.1707
0.469912
14.7192
29.2967
30.4478
-55.8059
-75.1914
17.1181
-265.965
-11.5798
-6.81183
3.98257
-8.25095
-3.65721
-4.92856
-84.2757
-23.2531
37.7265
-4.17863
40.9513
-31.1312
-5.25994
8.83157
-4.38237
35.0412
24.8168
28.3155
-31.4931
-9.08843
-96.6345
34.1506
-74.6671
16.2127
-0.748786
28.5391
34.6877
-0.902858
23.4531
39.3909
27.1104
25.715
-51.155
-2.33779
9.63787
-17.9247
-2.32749
15.1338
18.5834
1.65019
-129.635
4.68736
0.48343
21.8944
18.8692
-12.344
41.6631
1.58334
0.00485586
1.95093
22.4566
-9.82531
0.00713878
26.6421
-16.1176
1.7419
-7.93379
26.4933
22.345
21.4285
-4.00418
21.581
27.3461
27.6188
-9.03505
0.68711
3.13714
20.9691
-24.7343
-72.6128
-7.66988
-37.515
-4.3705
0.0613851
-2.17156
0.699358
-90.6341
-17.6198
-48.3385
0.577687
-8.80951
6.52026
-33.2738
25.0517
49.5655
5.99421
-5.92391
8.85588
0.142573
4.96738
0.192207
-10.9222
-20.9402
2.46985
32.422
0.0253727
38.8318
0.113945
21.2715
20.3712
10.3177
-98.9296
15.8413
42.3578
-4.50728
22.3011
22.1917
36.4421
2.4065
33.4369
26.9023
-89.6616
28.5509
-99.793
-222.731
34.3891
19.8815
-48.0753
-0.914889
31.2411
3.83214
-12.7648
0.607436
0.571472
17.6447
11.2854
23.544
23.3347
20.3698
-51.5355
-14.1421
-8.51656
22.791
45.4248
-11.9722
-257.118
-94.0698
25.2752
2.0486
1.98187
11.8163
-0.326032
19.0811
-6.12872
5.15307
36.7947
7.99211
-2.37111
-3.62431
-4.29291
-17.2195
-120.261
-23.1499
-17.4319
28.1657
11.1492
-15.4538
38.1209
0.0972692
-73.9606
-6.52029
-224.87
26.5302
-68.7319
5.46799
24.54
-4.95952
-9.17493
-4.29763
-146.456
-5.23406
25.5842
-49.3878
-1.07022
-175.124
22.2729
25.6937
-4.39116
30.7003
28.5908
37.4491
38.1109
27.4578
2.81121
42.7069
-187.983
23.9676
5.77347
-37.2915
28.7391
-6.91422
36.7988
9.63764
-32.0797
-102.053
-165.224
25.1136
-7.71673
-8.56856
-1.95403
-22.0328
-1.47427
13.0047
2.21655
18.1675
42.7544
-83.1924
-21.3941
-16.2991
26.0953
17.0121
-14.8958
49.2399
-1.41547
0.47365
14.0538
-28.0126
21.6512
25.2417
28.1057
28.9532
-1.15675
13.4695
23.1353
4.28036
-15.552
-0.293257
26.9725
26.9374
34.0418
-4.24694
1.69259
13.8641
12.7868
2.10255
-31.4877
18.7043
-5.42054
19.9422
24.1094
-132.906
38.9481
-14.7684
41.2497
28.2208
-34.763
0.0503103
0.0795997
8.03838
24.7443
-22.6109
33.2759
21.8171
13.4972
0.663775
4.15638
-8.24473
13.5004
-154.356
15.7607
-5.02062
22.5397
-66.2667
-0.333782
-8.18236
29.4334
35.4202
10.2556
-60.3742
9.74153
-3.63291
1.64297
11.7431
-5.04667
-3.91418
41.0541
-15.756
-3.91536
-21.1805
-207.109
-3.6109
22.6627
-144.204
-7.08819
24.5341
15.7091
25.5837
-4.77144
10.7183
41.2777
-51.819
22.4692
6.9383
-6.11924
6.23152
4.49859
-12.3208
42.0924
28.0748
-27.3522
40.2755
31.8862
29.2558
-262.64
-76.1009
17.3168
-34.969
-2.46556
-68.5993
-31.3862
-61.8178
19.1189
8.7712
15.0692
16.4926
-3.76916
19.195
22.6092
-202.904
26.3938
13.2377
22.4567
-3.65543
-0.189618
-4.49497
-128.795
-4.46267
-8.14277
22.2117
-36.2085
37.9851
-10.0747
21.7276
16.0781
-0.0146387
4.98277
24.7843
9.44134
3.33139
21.9195
0.260828
-1.50496
35.8415
27.6662
-15.4467
-51.8251
-0.535419
20.1672
-2.14046
11.9963
-52.854
-2.24213
-3.6703
-0.766204
21.0187
21.3669
0.285396
9.18521
-2.87735
-1.03235
-30.0833
29.2133
-4.01261
23.5423
0.071158
19.3661
25.5497
11.9981
22.6493
0.839409
-5.15353
-0.152352
-48.1121
-6.79404
-14.5202
-4.32249
-5.90715
17.7716
-3.67579
22.3006
-1.78202
-0.617587
-46.0381
-1.28183
25.2351
-70.929
23.545
5.25081
-20.9819
-0.359924
-4.4363
17.1985
22.7906
-1.01454
3.46164
-58.2426
29.28
1.28436
6.83997
-18.6449
30.3597
11.3107
0.120127
25.4371
25.3329
29.5073
5.65947
29.0125
-49.8464
0.57661
-4.5995
24.293
13.8173
5.35795
2.48409
-28.8114
-18.3698
13.6319
1.63206
-21.5434
38.8514
-56.0724
29.265
17.1471
-8.5048
-1.71394
0.231127
-3.42342
0.142024
2.20498
21.5572
-0.0513123
23.2349
-48.4568
12.0512
-3.29491
5.81369
-30.9595
31.0364
41.4485
25.9299
14.7822
6.36732
14.3561
-127
-0.268317
-2.87654
-4.12782
-16.4587
-41.2648
-30.4265
-14.9001
21.6286
24.6998
-82.4838
5.17617
26.6747
-15.6741
-42.7532
25.1764
-1.80535
-98.2051
0.307275
-7.62431
0.0391842
38.5719
-2.45264
23.7484
-29.3369
-19.0499
-15.4747
23.8675
6.22294
20.1136
-22.9781
-19.2287
0.568028
4.27168
27.1551
21.133
2.23773
-3.92871
-8.82679
43.1995
-4.19315
27.6814
31.035
-3.92473
-2.04024
10.5074
-95.6254
-35.7547
19.8502
12.275
23.2294
-7.76587
25.7346
0.406602
34.1244
5.15119
20.1189
30.2988
18.6593
2.91338
-11.854
5.52434
-202.379
21.6761
8.97321
29.3298
-0.0661038
37.2109
3.12363
39.8943
-3.50143
31.1236
-5.95619
17.9717
-102.588
21.8736
11.1468
8.32595
35.6641
22.995
4.80145
-14.1966
13.2582
21.579
-1.15469
-104.565
17.481
-0.0421764
31.3907
-3.6735
38.0348
3.68051
49.1032
37.7317
18.6642
17.2965
-103.692
-0.70589
40.5723
-3.19977
-3.91557
-3.80358
39.578
10.2448
20.7712
32.0369
-19.9202
25.8751
-6.99612
29.2426
0.679735
27.9406
24.4711
34.4726
-1.6683
-243.658
5.97125
-4.38292
10.8576
5.74425
-1.79511
30.3664
35.4906
0.217493
9.00548
-6.2977
32.5149
19.5925
22.3339
12.9984
-4.52345
-53.9445
-4.20851
23.8659
-46.8975
-2.19874
-2.18617
17.5583
10.9729
-15.1141
42.5338
-2.82162
37.9249
8.64839
38.1468
-10.6475
5.09098
0.0887388
0.823877
20.0891
22.6834
-1.98679
-2.20449
-3.33117
-2.17746
35.8066
-10.272
-2.45722
-4.47812
-2.89431
9.85788
30.2396
12.4652
0.437349
0.106602
22.9925
45.4328
-4.39772
0.412041
23.9444
-0.223102
9.64063
-0.904966
18.3137
-2.17411
-103.001
-5.52131
-5.22702
-5.04914
-11.7771
-55.3117
-12.9098
-2.63173
17.3831
25.3545
19.5462
44.3424
-103.563
38.9955
-65.631
37.6211
-22.2292
-21.5732
42.9247
7.94889
-7.34623
24.9297
-1.8991
27.1751
-7.62454
-165.231
2.99913
-13.6375
-15.99
0.0289685
-4.66799
7.40075
30.9329
-27.0058
8.37398
-48.484
5.36293
-3.82216
-1.13999
2.7224
-2.73712
-37.8091
30.114
-0.772133
34.3285
8.64065
-78.0332
6.06679
-25.0613
0.102097
19.4577
30.3065
43.6045
16.6791
19.8079
12.1222
-85.7948
42.1871
45.7154
25.7031
-18.3773
-7.50192
-206.955
22.4722
16.3525
8.46474
18.5442
-3.71674
-0.90512
-199.708
35.341
-0.0416414
0.210985
-5.11412
23.7793
3.09384
48.3827
45.5296
21.5672
-0.809332
6.72171
-58.9431
8.1428
46.4406
3.57642
0.0526315
18.2948
-0.0014812
3.41419
-6.60861
-9.63944
4.31536
0.828454
10.3556
0.0978303
5.39578
34.0828
9.34287
25.2715
-5.52583
-10.8833
41.5088
-46.7642
4.0267
7.36745
8.3375
1.78574
-4.32502
5.86331
0.459073
1.75197
48.2696
-95.3072
-69.7685
-18.8062
-18.7152
4.33598
7.88066
-4.41778
-54.3505
0.0815972
-78.4974
-23.0109
-17.7705
2.41124
0.724937
0.194844
47.9238
-0.112874
5.95064
-5.0176
2.74381
-76.9012
-8.3923
33.0735
23.5186
6.09515
-2.63665
22.9421
25.3837
-0.0943323
-35.6419
-2.02203
32.6588
-15.6622
21.0705
-1.46611
37.4953
0.177418
-6.08846
-1.27214
25.7804
-12.2843
20.1189
-20.2981
46.4144
-4.54836
-8.40153
-148.185
9.51282
-4.6781
-22.124
-4.7139
2.15033
12.6444
-8.98571
-3.44763
-2.89982
3.18361
-13.6512
-22.9858
19.0995
-231.117
21.2002
-4.95231
26.1435
42.0906
23.1708
-81.0687
24.9043
2.40054
3.93703
-3.22022
-11.9749
-166.616
-3.28632
-9.12939
12.4547
-2.49041
-19.3908
0.259852
-89.2828
11.3371
22.9341
-24.2298
-4.3817
-11.1224
0.0597971
-2.64159
14.3854
-52.5107
-4.84528
23.4442
-1.93809
15.3971
-24.4314
-119.173
-39.5644
-101.493
46.325
7.20409
-17.9127
5.28401
39.5989
41.6293
-6.76437
-7.21907
22.7938
-0.999599
-4.91051
40.4006
13.0132
22.2717
48.9064
-10.0951
8.66649
1.51784
36.1228
23.996
25.6148
29.8543
15.571
0.387568
0.963338
9.15712
4.59219
-108.829
41.8118
-13.975
-15.8752
0.0129359
-13.7537
11.7396
-5.18724
-7.7302
4.63511
25.5919
25.4174
28.4557
-136.23
35.4782
40.7437
-68.9126
15.0486
-4.34486
-4.36223
4.03242
12.364
-6.91538
-15.8271
-28.7924
45.3219
-108.154
28.3745
23.8878
32.9943
18.9953
18.7259
-2.9085
0.341266
15.6705
-2.11267
-251.436
-44.3264
1.59477
-4.37041
29.8311
-8.75384
-0.456713
2.53592
-73.5255
-5.46088
-154.526
21.0384
-7.02092
-6.10496
8.33379
-22.4659
8.15427
-88.2695
-4.22307
25.5674
-80.9028
41.6508
0.0851299
43.4579
-0.0732221
-3.14715
3.33598
19.9462
20.8558
-61.8624
-4.07137
-7.57193
2.99862
17.4178
49.1938
33.0236
8.35664
-15.1437
13.116
-1.82388
28.4714
-3.55855
12.4803
-4.47203
-4.84342
-81.56
10.5333
0.386358
-74.4981
14.4306
15.4554
40.4263
42.9687
-123.576
-163.689
-1.58708
-27.1443
42.5573
5.59831
-12.7882
8.2716
15.964
-4.94153
1.38384
-0.107967
-1.69215
22.966
-4.25083
7.95524
-23.5893
-21.0205
-55.0714
-9.17232
-55.4264
-50.6503
27.2029
-7.48757
-5.66187
-7.46018
-0.477513
45.8211
19.2503
21.3167
-7.79687
12.1925
-3.83658
10.1214
4.85013
-4.27426
-82.9848
42.4569
25.1545
-2.91372
-89.207
47.678
-5.37972
-48.8952
-4.21994
13.1907
-4.98946
-4.57523
36.1445
-4.21654
22.592
7.50777
-4.36626
1.50949
-8.91739
11.0267
-55.7652
-2.30842
5.81634
23.7761
-4.6235
-43.4722
4.79339
-10.0046
-29.7006
-28.7125
44.8479
14.3071
-25.4366
12.6651
4.05948
39.4372
14.0358
-96.8362
15.2258
30.3438
27.3474
-14.0991
20.1504
-2.3624
42.1566
0.300451
23.8975
-45.4756
-13.4035
-0.0070732
-4.76714
15.7056
5.95491
-100.344
-5.27163
28.9636
-1.73211
-4.52399
33.8922
17.7031
32.9469
20.8479
-20.023
0.189371
-1.78189
24.3234
0.0612671
30.4596
19.9669
41.39
-4.48813
32.0204
13.651
41.3105
-4.49169
-19.2994
42.6748
-4.52684
19.691
-121.381
37.2672
40.8963
25.5834
-39.6867
22.3961
31.6726
-13.4276
8.4465
-6.08189
33.811
-4.74724
-3.21152
-175.303
-187.581
31.0026
12.983
-262.88
12.6333
40.8851
-15.0036
-6.32062
-206.391
-22.9108
21.5501
-5.24757
21.8643
22.7707
-273.468
45.9896
-2.25364
34.4753
35.1893
0.705598
-0.0714324
21.95
-43.2745
-6.26687
21.9266
18.6584
-12.1595
22.9754
-4.2825
35.2106
25.4836
9.23939
2.74816
27.8455
-3.45256
13.3409
32.7552
4.35657
0.126537
31.4258
26.157
-16.9492
-81.2609
19.5414
27.481
41.8838
-89.98
44.3019
41.6311
44.7205
-3.78036
30.377
-35.5927
23.1839
33.514
31.6285
27.1458
36.1572
48.4234
20.0112
-84.4633
3.98481
-75.7081
47.9884
13.0372
-2.35755
-4.32515
21.8005
35.7265
22.9993
8.02836
-3.74796
35.4776
-65.941
26.5087
-4.64214
8.56335
-1.04228
9.58335
15.7484
-14.3183
-12.3654
-5.03996
-9.67913
-3.59957
29.7083
-7.49465
1.72398
22.5199
-86.1665
16.7611
-0.0156008
-73.7373
-50.5067
-87.0447
34.3681
36.7533
-5.09752
7.67455
31.1074
26.9918
0.289654
-17.0488
26.7575
-99.3379
33.5152
-62.4131
32.4811
13.855
0.900156
30.0567
15.9989
32.1506
8.54652
9.31262
-12.2417
-78.8351
-159.148
-3.15642
31.5156
-26.0643
-5.53371
-26.0404
34.5275
31.9209
6.93276
18.5221
35.1618
-48.2242
23.2938
-6.29271
-14.8467
23.0763
-6.15751
-124.751
-26.7165
-140.496
-7.63594
-30.0836
-5.05283
-238.948
-94.0628
19.9138
42.035
46.0645
39.9504
-25.1156
26.7312
-55.459
22.3127
34.8062
1.09441
30.8614
-25.7419
8.3063
-13.6019
-4.41318
33.6769
-19.1588
27.8845
-155.772
-9.18036
-164.253
27.5217
27.6019
22.4469
-106.882
22.9044
-5.16069
-250.145
-226.446
7.67665
42.6732
-60.1853
-7.7141
-4.89026
23.5695
21.982
-2.06936
13.3484
-138.283
35.6764
32.323
-5.03835
-7.85191
35.0156
-6.5891
-87.0185
-2.55764
31.6568
35.9526
-29.5855
18.2695
-5.50086
41.2739
-272.401
-12.5689
-4.5581
38.8759
-2.93261
-11.2375
-2.32112
33.7216
17.6627
33.2072
-5.33614
-54.3741
27.1617
47.1894
-89.6333
22.7943
-3.40254
-269.405
-3.00429
8.4782
-4.56324
17.9261
-4.46033
14.0388
-3.75975
-16.7698
30.2285
36.7238
22.7067
-39.9927
-12.9064
28.9628
-140.707
9.76159
-15.6536
11.7363
-234.544
25.1704
28.8389
-3.56924
27.3008
41.1754
-6.18523
20.6352
27.1661
-200.795
13.3003
-12.5356
11.7787
9.84812
17.6048
0.0284117
7.92879
-5.79482
-48.9055
34.7197
10.6941
2.62782
-7.29875
-6.06163
24.5253
-182.632
44.6194
-91.2615
-176.567
-3.42527
30.5978
28.1652
33.348
-112.021
39.6783
-43.7277
20.3459
-1.31013
-99.4404
21.4496
10.7012
-7.00895
16.816
-55.5728
18.46
-135.667
-6.79747
-0.164568
-53.6579
-67.2163
22.1776
40.4128
-8.23202
-42.2713
31.4034
-56.3151
36.8162
12.6332
-2.08629
12.5403
23.4535
12.6851
-2.9176
5.34494
-3.18946
4.08697
7.07696
-110.684
-5.53742
0.923703
16.1103
-3.91885
48.3258
26.6021
23.2528
37.4558
1.81457
26.4058
-25.909
-152.263
-8.50178
23.0596
47.5057
22.4447
-21.2256
34.4849
23.7921
24.0937
-3.8052
-3.36636
12.4615
44.9711
5.14226
-16.8182
27.8312
35.4496
26.4953
23.9038
29.5425
17.1101
-4.46854
-12.2673
26.78
-84.5923
-71.8125
23.3843
-9.95406
2.96467
9.23504
26.972
28.1136
28.2931
-4.58334
32.9655
33.9657
4.57306
29.7047
25.6577
19.5226
17.4728
17.9017
12.2373
-2.16058
30.7478
29.7368
-1.86392
22.9255
-4.99212
-0.277472
39.9794
30.5948
0.11042
-20.2712
-1.34175
31.8092
18.1172
3.84239
-1.01431
2.27007
-6.88541
3.467
-4.8756
-6.90134
19.1654
-5.44922
-44.5176
-117.165
38.2237
-4.65784
-50.419
-7.09115
40.4738
-4.69417
4.80629
2.63348
-220.383
18.3684
21.4478
15.8662
36.0845
18.9916
-2.13445
-94.76
-15.2644
0.269472
27.5763
-0.866241
-39.7881
-274.257
-7.89653
-64.6245
-6.16108
-72.6806
-5.2842
6.73341
22.5612
32.5131
-6.96754
-4.47009
36.0642
26.6572
-25.6913
-5.52234
-79.7646
15.1486
-1.09184
12.7529
19.1097
-1.48003
-5.10507
-5.9542
4.58645
-36.0009
-103.77
1.58609
-18.2813
-127.051
-241.439
-11.022
2.00529
-89.6895
12.1248
-44.7591
22.8111
20.1224
6.57596
30.9781
-25.8376
40.8876
-14.1343
-1.45459
-25.0665
23.8656
14.2579
-76.9013
-119.164
23.6845
28.5662
42.3434
-28.3852
-113.797
-19.8721
-4.60471
0.0641947
-110.64
9.77106
-159.153
13.6366
-47.753
19.7925
4.02274
-2.95961
36.5974
21.4851
-19.8055
-0.607187
-35.4589
-86.3599
31.0052
46.143
-65.5566
30.5092
22.9018
-0.0190691
-4.60345
30.1183
28.6824
-80.3146
-4.41163
-9.04408
-25.8955
-23.5215
-160.561
-20.6196
14.6554
-3.71468
25.8711
-90.8369
-253.795
21.4003
-21.3268
-184.706
-1.22539
17.8024
-201.269
-13.8305
-272.427
-83.1883
-171.772
43.0794
-130.418
-7.05932
-49.3383
26.1038
-187.738
-3.45609
-61.4049
-112.829
-12.8415
27.6403
0.0158469
-115.646
20.6636
0.0249577
-11.7736
-91.2527
-136.291
17.8084
20.0681
23.3589
-186.969
37.0108
-9.09756
0.0414681
0.71544
-42.0673
-13.5633
-125.856
-29.4754
4.45198
7.44802
-4.13337
-8.02956
-24.9434
22.9926
-73.5344
22.917
-80.1661
13.4187
-7.75432
-2.36488
-2.4512
49.3906
-1.94427
-220.867
-130.912
-21.5368
22.6694
-1.43664
-2.24165
0.540316
-262.476
-22.5978
-89.1763
-149.091
27.3609
-227.882
0.954457
-278.099
-3.77692
21.0217
0.877838
11.3839
-12.3556
32.4527
-142.368
-17.0033
34.9455
9.54854
-164.261
-7.82412
-76.713
-22.7952
-9.84488
31.3663
-6.8713
8.58167
-100.873
-64.793
-170.455
-204.599
-61.9449
15.7005
-5.8012
23.3126
7.39254
-56.3909
38.5752
-17.2241
29.4996
36.4711
-227.587
-0.568255
25.57
21.9839
20.0869
-22.084
-43.5026
-45.5553
22.9422
4.68985
-23.7198
-116.234
14.4134
28.1548
-6.91373
-0.452248
-1.251
34.2131
-32.9633
-36.2618
-0.503768
19.3314
-0.0989968
-2.17788
37.1389
29.752
-2.8444
-25.9187
30.9956
10.3768
-4.12104
23.3035
-10.0222
-33.1084
-55.8135
-25.7309
28.8743
26.5751
-3.74392
-15.5411
-4.26139
-0.970286
26.8713
-25.4763
20.0443
32.6384
35.182
-6.2839
23.7047
21.8209
27.6924
29.3741
-5.5188
29.3119
0.0535211
23.3723
12.5193
25.6986
-13.0088
30.2488
29.0686
20.2988
14.5792
-15.0829
17.6546
0.6609
-18.2116
33.6611
31.7866
-15.9588
28.0415
-25.553
-86.792
26.3504
25.8569
-51.979
-4.59124
-115.887
-21.7687
-23.0126
-5.62189
-53.5539
-8.75841
22.1416
44.2072
31.4667
-7.41123
-4.55061
26.1971
10.7504
-3.36756
-32.7849
-12.3874
-34.2631
-91.0877
-79.2598
21.965
-4.22857
8.62907
0.213444
0.230966
-1.81382
0.428104
4.62805
13.2641
15.195
-13.6341
13.6513
-72.4962
-55.47
16.6662
11.2518
-2.97605
3.12749
15.016
-1.75898
7.94002
-14.197
23.4271
19.694
39.127
23.4076
-21.6207
-9.05681
-15.0131
-11.4327
-0.974285
-0.351583
-5.47937
-17.2536
44.6085
1.85141
-0.80632
36.4348
-4.68938
-18.0135
-7.21095
-13.8639
-141.076
8.18296
-27.8672
24.1744
-6.45265
-19.6186
-2.06941
-7.28084
-21.8729
-2.94404
-15.0377
17.5785
-4.48854
-5.52345
-30.3541
9.03171
-23.9998
25.7016
37.5596
-10.81
26.1337
14.0835
15.9768
40.9468
-4.57536
13.1883
12.2095
8.62099
35.4487
-9.03874
-4.47504
-2.94654
25.3792
37.6171
-7.7017
-4.19332
-24.5265
-20.389
10.6569
-16.2727
-49.4816
-11.8672
7.84681
-93.0223
4.64988
7.37275
20.0595
3.25355
-87.4061
-33.4596
-1.29148
-4.90435
39.9786
44.6987
33.2438
46.0297
20.4132
22.9721
28.2436
24.4725
21.4801
-19.3517
24.8142
-8.91832
-87.6327
36.0731
-5.93461
-23.9932
42.342
-1.83512
-30.0491
11.0788
8.75666
29.1461
-150.745
21.2307
38.6853
-4.5419
-77.6821
-39.5826
16.8705
-50.7719
31.8211
-5.32078
29.2204
23.0159
-5.32293
28.5137
-15.1525
-80.0543
-84.929
-10.6401
29.9464
-21.9264
22.779
-1.90688
-129.975
-1.83908
-2.39529
-26.2604
-13.6426
-170.515
30.0362
2.51077
-170.292
-12.6786
14.1658
5.73377
-19.3297
10.006
-1.48001
10.0988
-198.003
12.966
4.4158
16.4526
-3.73721
22.7066
14.4169
5.29014
-150.521
46.4407
-21.3402
-261.487
23.0532
19.7039
-159.929
-22.253
-9.86147
15.8398
13.1197
-20.0689
-4.8697
-7.98866
46.3862
-4.02351
-5.34783
-0.695079
-12.4347
17.6295
-6.97638
22.1644
14.1255
-55.6573
15.5452
-104.641
20.1696
9.24123
24.6851
15.6624
0.0296851
-0.0178335
12.1534
25.8803
4.3962
1.62588
-214.531
-15.1173
-12.7855
19.4873
-241.078
12.1477
-206.315
30.1343
-145.808
-8.02732
32.2812
28.8642
10.0511
-4.9885
-84.2406
26.4245
-0.0757002
29.9059
11.5479
-1.6805
23.8122
6.66604
5.06092
3.16707
-11.9734
-17.0636
15.0568
-1.92971
33.0825
6.56626
46.648
-2.9762
4.76839
29.1839
1.21483
5.80104
25.4097
21.0065
14.7614
-24.0501
-1.53582
22.9085
15.853
8.73763
-30.2758
-5.12167
-11.9447
-164.056
-13.2573
20.6532
0.687011
18.4082
-3.77311
39.644
29.7517
7.28507
20.0725
6.81861
-174.725
21.869
17.6775
-0.788951
9.87178
29.8322
26.7959
-2.36556
-30.7501
-44.0098
21.8233
11.2267
-1.48357
25.2722
-29.9656
22.7976
-67.2485
23.5333
9.85606
-2.32236
8.71343
28.0453
-3.61146
24.9127
32.133
3.33549
-8.88084
12.3773
0.651405
37.4911
-95.2647
33.9136
28.4255
-145.89
-12.8264
0.0579865
-11.913
-53.5657
-6.43551
22.1254
34.1133
26.4612
34.8012
15.3292
31.4707
8.57513
1.73465
9.60352
0.613215
0.428646
20.2066
0.524175
35.98
5.61447
-270.904
16.2343
35.7417
37.4323
-83.8622
13.9335
-18.6091
-89.4224
10.6706
3.34541
-5.19484
11.2033
37.3401
-161.473
-80.1576
-38.5459
8.78333
2.2387