/*--------------------------------*- C++ -*----------------------------------*\
| =========                 |                                                 |
| \\      /  F ield         | OpenFOAM: The Open Source CFD Toolbox           |
|  \\    /   O peration     | Version:  2306                                  |
|   \\  /    A nd           | Website:  www.openfoam.com                      |
|    \\/     M anipulation  |                                                 |
\*---------------------------------------------------------------------------*/
FoamFile
{
    version     2.0;
    format      ascii;
    arch        "LSB;label=32;scalar=64";
    class       volScalarField;
    location    "3.3";
    object      p;
}
// * * * * * * * * * * * * * * * * * * * * * * * * * * * * * * * * * * * * * //

dimensions      [0 2 -2 0 0 0 0];

internalField   nonuniform List<scalar> 
13486
(
2.34279
1.86231
0.164881
-0.319283
0.759037
-0.180807
0.339199
1.30949
1.58935
0.770129
-3.51492
0.402178
2.46728
-0.338728
0.60154
0.866211
-7.856
-0.0961039
0.540908
2.11106
-0.265805
2.43794
1.8238
-0.911927
0.738985
-0.858569
-3.80879
-0.592482
0.0075239
-0.463692
-0.192048
0.435439
-1.18687
-0.335988
1.31325
0.0226486
0.0523692
1.90558
0.0102163
1.59182
0.18192
2.56128
0.0399307
0.746243
0.707768
0.383221
-11.244
0.0108908
0.0526184
-0.678872
1.35519
-0.0167954
0.230045
1.93976
-0.132269
0.821398
0.0821034
-0.0180654
-1.14301
0.0711557
-2.16102
0.0674934
-3.40224
-0.250054
-0.448335
0.054903
-0.341827
2.34638
1.57911
0.0259702
-0.342254
-0.130619
1.60262
-5.54185
0.0618874
0.0842811
0.0611398
0.587055
-12.1568
-0.0784677
0.00698788
1.88242
-3.78905
0.191455
2.35232
0.802069
0.0412109
1.28316
1.53844
0.848941
0.267077
1.13903
2.24601
2.00547
1.64608
0.00450217
-3.47961
-0.344948
1.56638
-8.41868
0.0228144
-0.247858
-0.34727
-0.0129571
1.01525
-8.76905
1.56081
0.0100745
-12.105
1.01973
1.51739
0.360211
1.93881
0.0685605
2.7597
1.5894
0.738094
-0.314152
1.61507
0.0444755
-0.124231
-2.1504
1.72163
0.00549667
1.51484
-0.00657596
1.13092
0.365101
-0.272602
-0.396301
-0.00753835
-10.7455
-4.25536
-5.31245
1.42039
1.23214
2.78432
1.06271
0.0427402
1.35343
-1.02091
0.209789
0.423911
-0.077596
0.0684748
-2.59278
0.120973
1.70834
-0.740328
0.00357415
0.888884
0.55779
0.00898506
1.92158
0.41769
0.163687
0.834838
0.0404529
1.72884
0.120422
-0.530845
1.72967
0.187647
2.55396
-0.0185873
-0.598486
-0.0894979
3.19634
0.127501
-5.31391
-3.95836
0.434284
1.06081
0.845419
0.00673257
-0.496525
-0.599179
-1.24136
1.56614
0.439315
1.49296
0.0706751
0.676168
-0.418493
0.208281
-0.604166
0.0010801
-0.44356
0.252346
1.67162
0.0492636
0.121049
-0.0320607
1.99904
-0.0513625
-3.60283
-0.407306
-0.558631
2.1007
-0.506473
-0.20124
0.344953
1.90949
0.59811
0.113508
-0.0580319
-0.0478383
1.7169
-0.0266176
0.205606
-0.508632
-0.612121
2.08302
1.56077
-0.181924
-0.219663
-0.494046
0.877068
2.12802
-2.11585
-8.20421
-0.769953
1.38897
-0.56311
0.0445804
2.28086
-0.47802
-0.324074
-0.16702
0.0584943
1.47528
-0.194119
-1.06144
2.61254
-0.322458
2.18961
-0.37139
0.121631
2.21264
0.708096
-1.14596
1.03903
0.0766696
2.08306
0.0360936
1.78884
0.74107
-0.645052
-5.7925
0.850465
-0.36263
2.79222
1.53546
0.00424349
-0.111804
-0.559769
0.4153
-0.213818
0.0734527
-1.06593
1.70357
0.0406451
0.589996
-0.530597
0.845665
-0.438183
-0.170813
-0.224581
1.51069
-0.508213
1.52673
1.52432
-0.514375
0.28632
2.28459
-0.618597
-0.111566
-0.202245
-0.00780801
0.109447
-0.210519
1.31433
1.57408
-1.47302
-1.73968
-7.19225
-1.05945
-0.291519
0.0686508
1.52523
-0.317111
0.0763945
1.64572
1.44
-0.354539
-0.401997
-0.534318
0.281266
1.61059
0.284651
0.164933
-0.062476
0.124184
0.467605
0.04272
0.626292
-0.226952
0.757596
0.0493726
0.04972
-4.98762
-0.312224
-0.32137
0.360442
-2.55695
1.26022
0.0789384
1.541
1.72282
-0.204469
0.0560809
0.0639272
1.55208
2.01613
2.74328
0.301326
1.00115
1.28623
0.228175
0.926083
1.2914
1.08779
0.215784
2.14905
0.327827
1.5539
2.85507
0.595651
0.948116
0.048181
-0.186951
1.99457
0.891479
0.695411
-0.465793
0.00351057
1.06084
2.75335
-2.11259
0.0750407
1.02464
0.234511
0.277005
-2.76922
1.59879
0.0239364
-5.43603
1.10612
0.0566326
-0.599581
0.56696
0.203034
1.73567
1.5295
-0.486021
0.00253213
-0.383355
-9.08923
2.13189
1.11906
0.0366247
1.07952
0.0363879
-0.364131
-0.171102
1.38797
1.5792
0.0632631
-2.43718
-3.38113
1.48893
1.05405
2.47362
1.62289
-9.75375
-0.12544
0.121145
0.921689
-6.37673
-0.140303
2.04882
-0.566093
0.646274
2.23356
2.29807
0.0440614
-0.330032
-0.35228
-6.93116
-1.07598
-6.5305
0.30777
1.40762
-0.302646
0.377265
-0.257831
1.97484
-1.17663
1.13637
1.75181
0.904514
-1.30156
-0.638779
1.61312
1.57342
1.92422
-0.36276
0.869808
-3.94079
0.732721
1.56577
0.220178
2.76336
0.993106
-0.517998
-0.416955
0.326515
1.57447
-4.16371
0.0129041
2.41757
1.41025
0.63113
0.0569143
0.69563
-0.738158
2.46151
0.0723614
0.889099
2.30712
-9.42761
-0.528277
-5.46134
-0.643575
0.102347
1.86342
1.80747
2.43206
-3.40868
0.0466556
-0.513813
0.966641
1.56984
-0.657924
-1.44881
1.54819
-0.328744
-0.505132
-1.45316
-2.42229
-0.192574
1.97127
0.00698239
0.0446856
-0.291167
1.48205
0.00989429
3.02725
2.27079
1.60212
1.25631
0.0255956
0.005992
2.83767
-0.126594
0.0452059
-0.501652
1.56813
-7.75471
0.261252
1.08233
0.0324933
-0.735924
1.80177
-1.7534
-7.32354
1.01177
-0.151779
3.18459
1.03089
1.36537
1.70401
-0.505112
0.212878
2.54839
0.758668
2.02979
0.337078
0.424556
-0.239431
-0.0682503
0.0417861
-9.32511
1.60174
1.55433
-0.37133
0.00107944
-0.221192
2.32214
1.86869
-0.12432
1.58425
1.1576
-0.714592
0.845909
1.38999
-3.85774
2.43285
0.0500163
0.0309689
2.54265
1.06512
0.0128436
1.04357
-0.259309
-0.341339
0.638051
0.972286
1.74732
2.25143
-0.959465
0.6898
-1.02181
0.00553952
2.18633
0.416652
-0.379726
-0.349902
0.201576
0.0709206
1.26636
-0.427042
-1.37272
1.58892
2.12608
-0.0978037
1.70072
-2.82892
-0.381693
-1.91579
0.640901
-0.652975
1.7312
0.216948
-1.8619
1.33968
1.8484
-1.04116
-0.832341
1.37133
2.19428
0.457619
2.3629
0.20823
1.03875
0.350696
1.74313
0.0593771
2.13492
-3.09972
0.285376
1.50952
-0.248519
-0.58256
1.53033
-8.87892
0.292535
1.76898
2.43231
-0.284664
0.0679812
0.396004
0.101125
1.41865
1.07316
0.493274
-2.56477
0.0463841
2.32551
0.259349
0.0723709
-0.783166
2.44832
-0.284104
0.0698342
1.513
1.23704
-0.0677296
-0.475125
1.33081
0.214666
0.0281849
0.597053
-1.56537
2.37417
1.55324
1.09615
1.12683
-1.21487
-1.08672
2.66923
0.457821
2.67546
-0.30902
1.52964
0.0199609
-5.58032
0.931888
0.847869
2.80156
-0.541059
1.0104
0.964468
-2.25321
0.806343
-0.0615246
-0.739882
1.53633
-0.764096
-0.561408
-0.745246
-0.36069
-0.262362
1.69278
0.00851948
2.59413
1.57211
0.106032
-0.364964
-0.49846
0.498896
-1.95546
-0.454669
-8.87415
2.17196
0.00118111
0.0822703
-0.810216
2.48088
0.000409512
0.139652
2.53957
1.37228
-0.33933
-0.084065
1.11213
0.150832
1.4972
0.0716021
-0.327167
0.591998
1.43874
0.458656
1.29091
2.57659
0.0698439
-0.411638
1.52739
0.22982
-0.21079
1.07077
1.15014
0.663586
-0.356694
0.214486
0.0586772
0.219856
2.18312
0.471662
0.214338
0.199912
0.0925484
-0.0748612
1.56062
0.106443
1.46373
1.49129
2.1561
-0.149609
-1.38664
2.65494
0.0316484
-0.333919
1.64943
-0.778273
1.76359
0.062025
1.51239
-0.29981
-5.62506
-0.734083
0.0045521
-7.61684
0.814018
2.73301
-0.252234
-2.11378
-0.54584
1.59915
-0.444276
0.675942
-1.03342
2.70314
-0.342596
0.822131
-0.708255
0.884933
1.5543
0.517437
-3.17592
-0.222656
2.5136
1.58744
0.656824
1.41947
0.0814287
1.23201
1.24578
0.901179
-5.05993
-0.108671
1.95667
0.34286
-0.0149213
1.29653
-0.342039
-0.242346
0.01474
1.69651
1.65679
-0.366038
0.221723
-0.326508
-0.240872
0.222021
-0.252118
0.212677
1.50285
-0.146564
-1.63526
1.82979
-0.0682741
-0.334504
-0.191813
-0.672485
-0.362169
-0.670165
0.0484807
-0.637984
1.48681
2.46374
0.0450692
-0.333631
2.54627
2.38796
-0.272805
-0.420715
1.6159
-8.89477
0.0768315
-0.366852
0.035823
0.861292
-7.34744
0.729985
1.04226
-0.595697
-0.236017
-1.04828
-0.169906
1.35111
0.61592
0.999886
-0.384016
1.30529
2.33856
-9.22132
-0.595511
1.75384
0.52734
1.01782
0.0179223
-0.450618
-0.389767
-0.130535
1.59625
2.68229
1.72518
-1.50726
-0.164458
1.55791
2.27579
-0.481726
1.67262
1.54844
2.37451
0.371756
0.0477826
0.233705
-0.202221
2.36736
0.225231
-0.213226
1.07592
-0.10953
0.401977
-0.100396
-1.27515
1.47695
1.10939
1.06931
0.723807
-7.36544
-0.312888
-0.232701
0.868513
-1.65206
-0.949825
0.0632215
-0.885669
-1.84334
0.810037
-0.458612
-5.76835
-4.87885
-0.288787
1.15023
-4.28072
-0.488612
1.76022
-0.27354
2.44177
-0.32346
-5.83023
1.84902
2.20126
0.0672406
0.0703555
0.33657
1.59792
0.874987
-2.38132
-0.0540344
0.0484816
-0.227196
1.51742
0.0753225
0.900798
0.0625272
1.57204
-4.44047
0.0654115
0.0235753
1.90663
-0.844184
-2.94883
-0.749453
2.41875
-0.433051
-0.420596
-4.44447
1.55369
-0.416953
0.0684147
0.377188
0.736844
-0.647206
1.07326
-0.443314
1.24153
1.53616
1.81406
0.695082
0.0343531
-0.282878
1.16914
-0.648232
1.87677
1.02269
-0.0872693
0.00397309
-0.136404
-0.0676594
0.0427754
1.77114
0.622035
0.238289
1.54434
-0.0989114
1.25046
2.77053
-0.0959811
-1.8359
1.0605
-0.0552324
0.0169238
-0.150325
-0.286919
1.55529
0.0737511
0.0341857
0.0550164
-0.211028
1.99978
-0.330512
0.00448887
1.55468
-0.104397
2.21648
1.79115
2.09046
0.419421
0.932331
0.467087
0.127841
1.16215
1.53913
-0.259162
-0.255738
-5.47533
-0.399467
-0.735198
1.56285
-2.05925
-1.11182
-0.874526
-0.250357
0.030906
1.56304
0.0256814
0.251885
-5.2864
1.57427
2.73043
-0.164361
-2.14077
0.856432
-0.0561445
1.52856
0.111015
0.0317537
1.88418
-0.0308184
2.58487
1.08134
1.54737
-0.446807
2.03311
0.0759803
1.80193
0.0509143
-1.07819
-0.600977
-0.580338
1.04116
-0.166753
-0.122628
2.43401
1.5754
1.67796
2.21618
1.7131
1.90171
-0.225837
1.63059
1.58701
1.60432
-0.211502
-0.464164
-0.68615
-1.62269
0.37498
1.75266
-5.74393
2.37556
-1.62628
0.0714661
2.66114
2.23847
-0.249622
-0.644959
1.58044
0.788425
0.0561256
1.46938
-5.89432
-0.626043
1.54167
2.16545
0.0267203
1.72419
2.01262
0.00179196
-0.519857
2.02146
0.693033
0.0469674
-1.75776
0.189838
-1.21293
1.44424
1.05161
0.0643599
-0.127611
-0.508211
0.384922
0.0129922
0.390618
2.28644
-0.00596086
2.96604
1.57108
0.524328
1.7622
-0.351799
-4.78847
-0.402948
1.5519
0.021831
-4.95878
-0.191714
0.765489
0.887425
0.0506754
1.10029
-7.3959
0.801245
-0.683436
0.0654511
1.26077
0.475254
2.03114
1.59094
1.63221
1.51086
-0.250164
-0.957145
-0.850609
0.201007
-0.308708
-0.317999
1.23722
-0.245516
0.0273227
0.0737496
0.117191
-1.05878
1.10688
0.696912
0.140957
-0.52912
0.752765
-0.757382
-0.782305
0.22562
-0.118594
1.72133
1.15475
2.00274
-5.4546
1.40706
0.0603447
2.18628
-0.296437
0.809551
-0.29666
-0.204671
2.53896
2.62425
1.30668
0.839771
1.0509
1.43289
2.56731
1.06367
-1.06385
-0.905484
0.324349
-1.61252
-7.70717
1.56556
1.53023
-0.592261
0.393236
1.29958
1.43132
2.79585
-2.29902
1.21809
-7.18947
-0.331502
2.2417
-0.134129
1.30036
-0.235018
0.492855
0.618173
2.91812
0.102366
-0.68162
0.779713
0.245314
-0.570354
-5.74539
-0.118463
1.7301
0.126801
0.848395
2.38558
2.19397
-0.0694708
-2.98268
0.104377
0.245507
1.82866
1.5017
2.17221
0.955139
-4.20965
2.27906
1.41555
-2.15602
1.19655
1.59133
1.96591
-2.03368
-0.254264
0.00155564
1.32378
2.50323
0.825001
0.0675314
-1.18974
2.80906
-7.75614
-1.02253
2.61202
1.36753
-1.30994
1.24926
-0.332532
0.859127
-0.339232
-7.33456
0.0453708
-0.423228
0.0777732
-0.27289
-8.94713
-7.57934
-4.75849
0.156165
-6.69541
-0.355756
1.24415
1.43339
0.802984
-8.07791
0.394207
0.209109
-0.25774
2.95115
1.02479
-0.77457
1.36927
-0.343768
-0.44153
1.27502
1.26234
1.5237
2.98984
0.00280786
-0.130273
-0.905002
0.210289
1.05831
1.52306
-0.602379
2.30344
1.04235
1.65358
-0.240566
-0.0565149
0.0844716
1.61603
1.56331
1.66925
1.55285
2.73921
2.68122
-0.356213
1.37612
1.99187
-0.750904
2.16284
0.0124616
2.64962
2.1418
0.0776577
1.76727
0.748518
1.18661
0.109294
1.57262
-0.938572
1.36763
0.564145
1.04208
-0.167707
1.53117
0.0212691
0.363719
2.55929
2.55254
1.0387
-5.48435
0.411593
0.0649137
-0.118363
1.24384
2.28877
-5.60655
1.60621
1.49526
0.762846
1.60737
-0.568425
-0.238921
0.0667442
2.78722
0.45177
0.114589
1.78935
-0.163744
0.0889863
0.785012
0.317412
1.1806
0.602755
-0.457012
0.935282
1.24813
1.02223
1.16209
2.70531
2.21479
1.93921
1.88226
2.5032
0.743349
0.0053968
-0.0862903
-1.89563
2.52982
-0.24761
1.56237
1.40188
-0.362642
0.81229
1.72928
-0.629718
0.779235
0.949056
3.02716
-2.49804
0.683726
-0.964591
1.78011
0.165325
-0.319014
2.48728
2.11801
1.51015
1.54855
-0.38158
0.717984
-9.81396
2.67555
0.0494949
2.89662
-0.163206
0.0124139
-5.66139
0.81727
-5.53189
0.19251
-0.0145239
0.561001
0.0175241
0.527819
-0.338209
0.00330868
-0.268127
-5.35163
-0.612175
-2.56935
0.0519412
-0.0655869
-0.286135
-1.78135
1.59122
1.62266
1.96824
1.53657
0.62614
0.606699
3.19991
1.5249
-4.93564
0.0106999
-0.153065
1.18723
1.38039
2.30791
-1.08997
-1.0613
1.26077
0.00444394
0.425504
1.94737
-5.56776
-0.427849
-9.96019
2.70649
-0.342497
1.09381
1.9957
-0.225109
1.23472
0.0193044
-2.23382
-1.55022
0.108119
1.03502
1.85525
1.95817
-2.44335
-5.3742
1.01452
-12.2304
-0.461887
-0.253866
0.251426
-0.325325
0.0509078
-0.350407
-2.20205
-0.924076
2.3973
-0.275512
2.6211
-0.691374
-0.177319
0.586882
-0.734563
2.2126
1.52362
1.82653
-0.00447456
-0.342762
-2.59773
2.1261
-5.34286
1.13487
0.054075
1.8688
2.20941
0.0456497
1.54969
2.5141
1.71437
1.68338
-3.41266
-0.125004
0.646979
-0.737316
-0.00635838
0.937976
1.09784
0.172372
-3.70794
0.39294
0.0991716
1.35198
1.14602
-0.532564
2.64071
0.2045
0.00149706
0.239604
1.52571
-0.410734
0.0143534
1.69556
-0.857996
0.152344
-0.280946
1.64383
1.53056
1.45953
0.0540625
1.45964
1.79754
1.75955
-0.343675
0.0750451
0.330555
1.34916
-1.14615
-4.34029
-0.408023
-1.97878
-0.330113
0.0261076
-0.00687468
0.0692125
-5.94813
-0.781048
-1.22256
0.102888
-0.345174
0.575414
-0.668512
1.65514
3.2176
0.51325
-0.265883
0.688093
0.165137
0.405729
0.0273883
-0.433091
-0.809781
0.220327
2.05884
0.00423036
2.46928
0.0250191
1.45606
1.27422
0.683355
-6.00362
0.886224
2.73126
-0.289818
1.55384
1.50123
2.29822
0.221181
2.10948
1.66896
-5.70434
1.77687
-2.79265
-9.25711
2.15366
1.37085
-2.3363
-0.0632814
2.02031
0.144486
-0.541332
0.063171
0.0619107
1.18585
0.838436
1.55319
1.45474
1.33776
-3.22115
-0.618621
-0.319933
1.51486
2.89146
-0.479343
-8.6422
-5.60588
1.55501
0.202748
0.206265
0.665015
-0.00404378
1.20921
-0.231724
0.355202
2.42554
0.705575
-0.164019
-0.205441
-0.350067
-0.706616
-7.62738
-0.930074
-0.458042
1.84686
0.834102
-0.656125
2.51012
0.0108866
-1.85395
-0.278978
-9.05558
1.68669
-5.02298
0.516158
1.55546
0.0779552
-0.355758
-0.201801
-5.0926
-0.292389
1.69073
-1.21581
0.0257168
-9.63087
1.49871
1.67344
-0.346135
1.97612
1.82762
2.37566
2.43992
1.73498
0.288232
2.79073
-10.5767
1.51362
0.291977
-1.20438
1.88775
-0.382441
2.38257
0.728673
-1.61145
-5.81354
-8.88843
1.66148
-0.414146
-0.358027
0.147302
-1.41512
-0.144991
0.962879
0.28872
1.133
2.70378
-5.55913
-0.85964
-0.947676
1.615
1.15877
-0.592204
3.17794
0.0149221
0.0974251
0.968512
-1.60821
1.48997
1.60526
1.79393
1.80346
-0.177176
0.838657
1.49592
0.360598
-0.281547
0.0202964
1.68524
1.75011
2.14883
-0.258956
0.165522
0.783526
0.944478
0.154607
-1.11267
1.28316
-0.264574
1.35473
1.60275
-7.66108
2.46258
-0.585814
2.6783
1.77529
-0.976136
0.00474123
0.0580254
0.545591
1.63517
-0.745314
2.11818
1.47056
0.789336
0.0554161
0.344275
-0.424784
0.787804
-8.8168
0.954812
-0.278163
1.51422
-4.06063
0.012162
-0.302567
1.92356
2.22877
0.709913
-4.32471
0.755446
-0.0739223
0.201191
0.872647
-0.236105
-0.22567
2.62118
-0.842971
-0.197374
-0.890188
-7.62794
-0.0669056
1.59951
-8.37061
-0.264355
1.62832
0.997763
1.67564
-0.327934
0.708353
2.6503
-3.10474
1.4919
0.472982
-0.182765
0.540018
0.383279
-1.17834
2.70701
1.78442
-0.200342
2.62121
2.02893
1.90304
-12.4338
-4.32988
0.984011
-1.81978
-0.050232
-2.51053
-1.64278
-2.39376
1.23192
0.599932
0.934825
1.04045
-0.212211
1.16488
1.51582
-6.24582
1.62409
0.969028
1.5504
-0.0730984
0.0321401
-0.346241
-8.055
-0.336857
-0.313581
1.49711
-1.24801
2.38687
-0.348333
1.49841
0.949946
0.0731675
0.260305
1.60486
0.695161
0.362347
1.40223
0.0600251
-0.0843458
2.25628
1.82873
-0.612032
-1.86231
0.0396567
1.36544
0.0167706
0.68545
-2.28534
0.0546189
-0.0940239
0.110722
1.35953
1.29938
-0.0410634
0.685742
-0.0325355
0.0261301
-0.991943
1.91852
-0.356254
1.52323
0.00703848
1.33684
1.65695
0.88396
1.44787
0.0769963
-0.337921
0.078738
-4.17733
-0.390482
-0.574957
-0.999285
-0.116271
1.23295
-0.04388
1.52127
-0.0856421
-0.019357
-2.44606
0.0156311
1.62575
-1.72298
1.51936
0.414773
-0.795597
-0.127456
-0.350267
1.11849
1.6384
0.0262076
0.310737
-4.9277
1.82414
0.113113
0.460871
-0.440936
1.95794
0.766571
0.0305509
1.6629
1.61518
1.89059
0.225637
1.90508
-3.26555
0.106794
-0.210807
1.49936
0.993852
0.433266
0.159656
-1.08165
-0.581425
0.851747
0.152058
-0.682112
2.44369
-3.71729
1.85851
1.12554
-0.361311
-0.00550616
0.132259
-0.0432604
0.191721
0.257873
1.45168
0.076076
1.55239
-2.5442
0.620815
-0.212161
0.37668
-1.11912
1.93575
2.65944
1.70025
0.86636
0.309419
0.990539
-4.40922
0.0148347
0.0742481
-0.111627
-0.644034
-1.09666
-1.07777
-0.631129
1.38545
1.52829
-3.18747
0.426115
1.75785
-0.651909
-2.02548
1.66808
0.000392527
-2.33304
0.0487106
-0.247445
0.00502475
2.4881
0.0780632
1.49326
-1.53623
-0.911451
-0.628988
1.52066
0.399162
1.28458
-1.35417
-0.823253
0.137984
0.285654
1.79298
1.37282
0.283892
-0.190636
-0.354231
2.76623
-0.249127
1.76932
1.93357
-0.176698
-0.0223776
0.716057
-5.48505
-0.866272
1.34881
0.879988
1.50634
-0.424483
1.69449
0.199949
2.22214
0.293259
1.36725
1.96527
1.2874
0.261188
-0.34618
0.510177
-8.39386
1.33431
0.699769
1.88304
0.158955
2.36777
0.291816
2.52153
-1.16072
1.96019
-0.210789
1.17313
-2.93876
1.48282
0.750962
0.627874
2.3368
1.53563
0.364226
-0.621373
0.895504
1.46992
0.0173401
-7.02736
1.14147
0.121866
2.02329
-0.349516
2.41135
0.394741
3.23691
2.43137
1.13438
0.99896
-2.89067
0.116343
2.58938
0.137756
-0.0400973
-0.0842711
2.58056
0.746514
1.33495
2.19413
-0.935396
1.6887
-0.257839
1.85332
0.0873721
1.74904
1.5852
2.14912
-0.00637943
-11.5955
0.476344
-0.347958
0.723876
0.233994
0.113465
1.98006
2.26913
0.0333046
0.512652
-0.239873
2.02765
1.28725
1.43085
0.962423
-0.203451
-4.14498
-0.280274
1.58785
-2.54161
-0.106588
0.0307255
1.10009
0.745819
-0.64634
2.73684
-0.15034
2.38682
0.44809
2.43571
-0.419077
0.347825
0.0743826
0.0811468
1.32735
1.52793
-0.580645
-0.113519
-0.935724
-0.105532
2.25117
-0.525674
0.0479904
-0.194105
-0.134486
0.514251
1.90119
0.737052
0.105296
0.0484559
1.54071
2.90112
-0.344631
0.130259
1.51448
0.0161996
0.795129
0.0567043
1.10165
-0.120945
-5.98216
-0.49739
-0.260505
-0.143421
0.0906793
-2.17572
-0.547604
-0.0507461
1.20576
1.66221
1.34972
2.81481
-2.53369
2.55863
-4.47626
2.40113
-0.765813
-1.01881
2.7191
0.631385
-0.347685
1.57252
-0.00232983
1.69743
-0.311835
-9.10633
0.297342
-0.582917
-0.659781
0.00692878
-0.12377
0.617785
1.92957
-0.940787
0.689079
-2.47479
0.367142
-0.168402
0.0224143
0.20478
-0.183664
-1.94922
2.0272
0.039267
2.23628
0.601206
-1.97317
0.506957
-1.39512
0.0731197
1.33338
1.94937
2.83185
1.16905
1.297
0.731706
-5.5843
2.72875
2.91609
1.69134
-0.913991
-0.417118
-8.39943
1.44206
1.01761
0.567781
1.22816
-0.209327
0.0297766
-5.66982
2.32628
-0.0704587
0.194857
-0.327965
1.49615
0.287829
3.13548
2.92955
1.38759
0.0522429
0.419737
-3.69535
0.56627
3.00888
0.175307
0.0690873
1.14386
0.0138124
0.314927
-0.16326
-0.326905
0.35488
0.0687022
0.724247
0.048042
0.487546
2.17452
0.464024
1.65268
-0.339318
-0.395924
2.62826
-1.70788
0.284944
0.394211
0.662681
0.18061
-0.355248
0.304972
0.107596
0.133876
3.16754
-6.01427
-2.88423
-0.742066
-1.1317
0.149488
0.390096
-0.341567
-2.19175
0.0321922
-3.34219
-1.28883
-0.735281
0.178512
0.151958
0.166144
3.08805
0.144799
0.474213
-0.147171
0.323386
-5.4972
-0.325094
2.12642
1.5379
0.487132
-0.15344
1.49127
1.65694
0.0348938
-0.953847
0.0756624
2.1175
-0.670461
1.446
0.0788887
2.38964
0.134349
-0.355366
-0.288917
1.69166
-0.535364
1.37392
-0.961915
2.96932
-0.343076
-0.300044
-4.24411
0.66488
-0.353134
-1.00801
-0.341865
0.250747
0.684547
-0.460279
-0.228054
-0.0529913
0.231209
-0.561824
-1.3008
1.25628
-9.89909
1.35251
-0.344843
1.7117
2.71326
1.45439
-5.73825
1.56916
0.228943
0.292596
-0.0706493
-0.453778
-7.76019
0.119294
-0.350013
0.66649
0.00317982
-1.21877
-0.0884035
-2.66787
0.784243
1.57025
-1.78919
-0.350261
-0.527146
0.0463186
-0.151673
0.926483
-3.48094
-0.352953
1.55855
-0.111953
0.876684
-1.03699
-3.23228
-0.782033
-2.45344
3.11393
0.48713
-0.759436
0.372895
2.54924
2.63447
-0.374455
-0.269749
1.53567
0.02775
0.114851
2.62226
0.877878
1.36655
3.16403
-0.500237
0.451337
0.24443
2.33599
1.60488
1.60702
1.93466
1.0985
0.0562247
0.10226
0.722472
0.377404
-7.0591
2.6855
-0.867928
-0.942489
0.0469048
-0.555934
0.772672
-0.32673
-0.293903
0.352761
1.62537
1.67331
1.78041
-4.71057
2.29482
2.61354
-2.75395
0.985042
-0.0909372
-0.107688
0.291683
0.900916
-0.0991247
-0.665269
-1.03205
2.90558
-3.17065
1.80022
1.5651
2.05562
1.17095
1.23782
-0.136003
0.0503501
0.905015
-0.0125237
-8.77163
-2.24486
0.151238
-0.333579
1.91894
-0.445308
0.0524268
0.307374
-5.34921
-0.347823
-9.00893
1.4029
-0.262163
0.071437
0.73702
-0.887398
0.553301
-3.33319
-0.0831594
1.67604
-1.96577
2.67451
0.0404932
2.85695
0.00695616
0.0736178
0.258796
1.35817
1.33411
-3.31254
-0.0975744
-0.353008
0.249774
1.10072
3.17711
2.06234
0.527293
-0.639359
0.828439
-0.149709
1.78221
-0.172384
0.909988
-0.281857
-0.331831
-5.1207
0.55708
0.0508982
-5.27091
1.02011
0.996579
2.58211
2.77821
-7.65393
-7.39328
-0.574884
-1.44776
2.69359
0.126867
-0.721742
0.685023
1.12395
-0.266174
0.119136
0.104715
-0.000383394
1.42224
-0.230258
0.458036
-0.29749
-1.03225
-2.87241
-0.430339
-2.89603
-2.55619
1.72471
-0.39732
-0.340424
-0.276175
-0.0451222
2.95051
1.14662
1.45254
-0.299996
0.80443
-0.0328122
0.645675
0.473929
-0.343992
-4.90845
2.68522
1.64966
-0.00998609
-5.93627
3.06374
-0.353214
-3.94822
-0.27304
0.797864
-0.354652
-0.261196
2.32504
-0.101147
1.43905
0.628573
-0.321016
0.145277
0.091657
0.762639
-3.12107
0.0324212
0.469811
1.53553
-0.348303
-4.07814
0.112817
-0.393356
-1.69587
-1.50495
2.87406
1.02014
-0.763123
0.75515
0.396544
2.51881
0.887138
-5.44137
0.942219
1.97226
1.69186
-0.590878
1.36897
-0.12512
2.66273
0.0503646
1.58513
-0.944945
-0.55147
0.0454985
-0.304991
0.925825
0.534431
-6.01056
-0.360317
1.84119
-0.073329
-0.0763508
2.17884
1.22771
2.12049
1.445
-0.865587
0.0228669
0.0705596
1.54539
0.00476957
1.93373
1.20948
2.64092
-0.341587
2.06432
0.773502
2.67074
-0.316462
-0.937611
2.73368
-0.341596
1.17997
-3.73363
2.34766
2.63254
1.68543
-2.6272
1.54365
2.01758
-0.541846
0.653009
-0.341704
2.15496
-0.340608
-0.188085
-8.42916
-9.36284
1.98182
0.760031
-11.5418
0.82105
2.62979
-0.88126
-0.273903
-10.4549
-1.0924
1.30703
-0.154743
1.4781
1.46462
-11.8083
2.95898
-0.0246121
2.22675
2.20594
0.137542
0.0221801
1.38339
-2.10965
-0.206744
1.36859
1.1771
-0.55744
1.4706
-0.288281
2.32261
1.68138
0.614175
0.0137338
1.72813
-0.186529
0.933847
2.06372
0.350314
0.0400743
2.0022
1.66774
-0.732016
-5.48435
1.18804
1.74538
2.65934
-5.44057
2.80985
2.78288
2.8578
-0.185118
1.94425
-0.737935
1.54994
2.09003
2.03908
1.72852
2.29046
3.13025
1.3484
-5.06792
0.159467
-4.74475
3.09983
0.848287
-0.12114
-0.353525
1.452
2.30982
1.48939
0.540726
-0.0856051
2.29762
-2.67097
1.66686
-0.352227
0.716553
0.0239289
0.483779
1.02543
-0.383114
-0.387966
-0.120938
-0.379622
-0.195136
1.90529
-0.349511
0.235405
1.45698
-2.67398
0.964378
0.0473465
-2.44071
-1.0543
-4.97776
2.19115
2.36159
-0.345498
0.586082
2.01072
1.80658
0.031202
-0.700188
1.70689
-6.51745
2.15396
-2.20621
2.09721
0.966389
0.234975
1.95239
1.03084
2.04884
0.574708
0.729777
-0.533158
-5.72287
-4.42578
-0.0108436
2.01032
-0.958982
-0.302974
-0.986546
2.22836
2.02771
0.540556
1.16269
2.26017
-2.43215
1.48728
-0.0451
-0.621633
1.48146
-0.357379
-4.03081
-1.39041
-8.60417
-0.295746
-0.892912
-0.0186563
-9.32643
-5.80816
1.28345
2.69312
2.94542
2.5549
-0.919651
1.68488
-1.17447
1.44585
2.24948
0.223516
1.97425
-1.00203
0.560435
-0.5717
-0.0820886
2.14789
-1.21084
1.7672
-5.9189
-0.395779
-9.7088
1.80193
1.75327
1.54905
-2.97147
1.47509
-0.222261
-11.8288
-11.5447
0.51856
2.70346
-3.12741
-0.292951
-0.356375
1.52644
1.48321
-0.0171288
0.97433
-4.42254
2.29363
2.06802
-0.281431
-0.315742
2.23488
-0.359307
-2.09858
0.0271078
2.04176
2.29872
-0.600498
1.10825
-0.245769
2.64551
-10.2238
-0.522579
-0.0819037
2.47931
0.0207006
-0.500414
-0.118531
2.13075
1.22903
2.11507
-0.13115
-2.75338
1.73257
3.06329
-5.90459
1.39893
-0.0200896
-11.273
-0.00993196
0.577872
-0.349336
1.08126
-0.298685
1.02024
-0.208409
-0.686515
1.93647
2.3181
1.46428
-1.94912
-0.535129
1.8026
-4.70013
0.588847
-0.6491
0.780088
-7.60936
1.67423
1.80842
-0.0550913
1.6966
2.60898
-0.2607
1.26825
1.77294
-10.8553
0.948303
-0.547845
0.777857
0.569977
1.22215
0.0102325
0.538331
-0.2106
-3.49221
2.1771
0.628205
0.217004
-0.381155
-0.197614
1.61102
-6.16497
2.84513
-2.47749
-10.5854
-0.122127
1.9877
1.76331
2.08036
-6.48278
2.5104
-1.44371
1.22622
0.123275
-3.10628
1.43273
0.720278
-0.250739
1.07042
-4.27002
1.26721
-8.00383
-0.377019
0.0146979
-1.98159
-2.36339
1.39152
2.57569
0.0997435
-0.866183
2.00255
-2.33615
2.34
0.708134
0.066192
0.832861
1.5624
0.821298
-0.150475
0.140345
0.00514263
0.382574
0.564974
-3.26252
-0.364989
0.097765
0.916325
-0.27738
3.12043
1.67969
1.53423
2.36336
0.24947
1.73905
-1.00179
-8.10111
-0.437014
1.54988
3.03849
1.45596
-1.06292
2.18192
1.46442
1.4882
0.0796222
-0.0514599
0.837487
2.85869
0.119641
-0.693959
2.11145
2.22561
1.64149
1.54483
1.89635
1.10084
-0.261324
-0.545116
1.71063
-5.62945
-5.55387
1.51927
-0.481198
-0.0131265
0.513658
1.68836
1.75022
1.77946
-0.174545
2.07846
2.12594
0.324742
1.8677
1.63303
1.28769
1.15872
1.05083
0.80384
-0.026585
1.98702
1.85222
-0.210742
1.41993
-0.190376
0.0625927
2.55386
1.92687
0.0217002
-0.513712
-0.112008
1.98169
1.11628
0.283317
0.0249746
0.255191
-0.326678
0.322648
-0.334853
-0.204978
1.14109
-0.232681
-1.59176
-3.42317
2.41071
-0.340768
-4.09754
-0.385549
2.58766
-0.232381
0.339799
0.306383
-10.1533
1.20393
1.4514
0.982575
2.27233
1.25261
0.0492346
-5.5135
-0.448179
0.0318493
1.79936
-0.127259
-0.800836
-10.53
-0.3328
-4.14344
-0.373652
-3.02825
-0.190593
0.583558
1.5273
2.02212
-0.293627
-0.112146
2.28241
1.73459
-0.530814
-0.285136
-5.07013
0.960386
0.114102
0.866459
1.31625
-0.0645662
-0.249909
-0.285611
0.407744
-1.23307
-6.0761
0.205562
-0.734657
-7.97164
-10.6799
-0.427628
0.199882
-5.54494
0.799749
-0.901017
1.52853
1.37285
0.422667
2.01099
-0.799496
2.58975
-0.572666
0.102899
-1.3396
1.54692
0.947377
-5.38077
-6.67101
1.58046
1.87852
2.68617
-0.635481
-7.25783
-0.714399
-0.151192
0.00903261
-3.25941
0.567752
-6.89306
0.916592
-0.983705
1.18486
0.173897
-0.0490764
2.34892
1.38125
-1.24244
0.0327303
-1.78558
-5.42147
2.01406
2.94647
-4.64095
1.90333
1.4736
0.00584257
-0.219763
1.95885
1.87347
-3.30212
-0.220009
-0.454292
-0.841557
-1.2695
-5.74562
-1.17691
1.00756
-0.228011
1.71078
-2.22622
-10.8546
1.44747
-1.17696
-8.85205
0.0848363
1.16558
-9.89337
-0.66446
-11.43
-2.20566
-8.00546
2.72668
-7.33665
-0.251237
-1.08168
1.69867
-10.7934
-0.173373
-2.46853
-2.77286
-0.5686
1.76262
0.0167922
-3.54019
1.35644
0.0204981
-0.48309
-2.89752
-4.08119
1.10824
1.28032
1.55771
-9.63839
2.32831
-0.378818
0.00178755
0.138458
-2.62041
-0.575185
-3.84695
-1.10263
0.316258
0.667524
0.0649585
-0.350558
-1.0709
1.46021
-1.75893
1.62633
-2.38822
0.980837
-0.285473
-0.119945
-0.195975
3.08949
-0.294284
-10.997
-6.04084
-0.8938
1.55189
0.0768351
-0.254686
0.0810343
-9.80396
-0.5484
-5.67355
-5.32286
1.69685
-7.24331
0.241253
-11.3113
-0.0333696
1.35921
0.134967
0.699748
-0.487998
2.04232
-8.54716
-0.68133
2.1864
0.631077
-9.57727
-0.348638
-2.44552
-0.976395
-0.399796
1.99826
-0.388155
0.657656
-6.6718
-2.23265
-4.69444
-6.05774
-4.11907
0.919439
-0.24708
1.53207
0.575907
-1.77854
-0.378852
-0.65727
1.91911
2.30838
-10.8108
0.0610809
1.66417
1.53108
1.22158
-0.874106
-1.58608
-1.69756
1.55374
0.455044
-0.957891
-3.2779
0.891542
1.84508
-0.281286
-0.0495856
0.0743196
2.16237
-1.70526
-1.8762
0.0520777
1.3346
0.0599622
-0.161085
2.34364
1.93528
0.0616704
-0.936375
1.973
0.769749
-0.111006
1.43287
-0.39107
-1.21737
-2.01573
-0.959541
1.89311
1.65888
-0.0802147
-0.657068
-0.324309
-0.0406039
1.70121
-0.903454
1.16925
2.05756
2.20282
-0.305629
1.56117
1.37218
1.7239
1.8277
-0.200663
1.84048
0.0107314
1.55143
0.83129
1.68376
-0.375784
1.95727
1.86763
1.39381
1.013
-0.604774
1.10317
0.1074
-0.767706
2.10437
2.07568
-0.655287
1.79484
-0.967559
-5.97098
1.68597
1.68717
-2.09167
-0.0784163
-7.40914
-0.839495
-1.44697
-0.349167
-2.09776
-0.439169
1.42398
2.84251
1.95841
-0.313953
-0.29405
1.65546
0.82828
-0.211796
-1.18091
-0.511244
-1.86957
-5.63984
-5.80303
1.48195
-0.625426
0.787474
0.0424409
0.041836
-0.155581
0.0452725
0.329771
0.80519
1.02279
-0.550943
0.73278
-2.5095
-1.37981
1.08895
0.858876
-0.0529591
0.133478
1.01955
-0.00223348
0.596435
-0.604157
1.53277
1.29783
2.48132
1.55288
-0.843652
-0.42064
-0.641657
-0.475203
0.0319456
0.057995
-0.179296
-0.690749
2.90171
0.174609
-0.0215655
2.30435
-0.352972
-1.03323
-0.197761
-0.394453
-8.11658
0.463229
-1.41582
1.51547
-0.228666
-0.771336
-0.345222
-0.348134
-0.970216
-0.168693
0.0752597
1.20818
-0.346349
-0.355223
-1.53987
0.614471
-0.998765
1.67881
2.36461
-0.456264
1.71014
0.89215
1.12748
2.61503
-0.337959
0.940283
0.827031
0.720545
2.23056
-0.505213
-0.153466
-0.162073
1.65333
2.36162
-0.400043
-0.123633
-0.993198
-0.846818
0.800046
-0.653729
-2.16271
-0.499681
0.609286
-6.25199
0.382734
0.501015
1.35551
0.312503
-5.09318
-0.118697
0.0334265
-0.211009
2.52306
2.83363
2.09429
3.00793
1.36892
0.875259
1.75336
1.51943
1.39883
-0.792263
1.60047
-0.382131
-5.69464
2.31031
-0.22316
-1.04085
2.71505
0.0455897
-0.836884
0.832822
0.727643
1.90109
-6.28714
1.43366
2.49922
-0.348606
-5.80414
-1.88253
1.11019
-1.08308
2.00279
-0.123861
1.90371
1.54514
-0.358192
1.82621
-0.645967
-4.86256
-4.73257
-0.500428
1.87988
-0.906608
1.60119
-0.0119092
-4.14221