/*--------------------------------*- C++ -*----------------------------------*\
| =========                 |                                                 |
| \\      /  F ield         | OpenFOAM: The Open Source CFD Toolbox           |
|  \\    /   O peration     | Version:  2306                                  |
|   \\  /    A nd           | Website:  www.openfoam.com                      |
|    \\/     M anipulation  |                                                 |
\*---------------------------------------------------------------------------*/
FoamFile
{
    version     2.0;
    format      ascii;
    arch        "LSB;label=32;scalar=64";
    class       volVectorField;
    location    "1.1";
    object      U;
}
// * * * * * * * * * * * * * * * * * * * * * * * * * * * * * * * * * * * * * //

dimensions      [0 1 -1 0 0 0 0];

internalField   nonuniform List<vector> 
13486
(
(6.85764 -0.771854 2.91957e-20)
(8.22817 1.57652 1.29777e-20)
(11.79 0.25513 0)
(3.8085 -2.18976 -2.80208e-21)
(10.9502 -2.68816 1.06576e-20)
(12.1302 0.681372 1.8961e-21)
(12.3424 -2.38675 7.61675e-23)
(9.38768 -3.39724 -1.64199e-20)
(9.26439 -1.85534 0)
(9.90234 3.66698 0)
(-10.0918 -1.78052 -1.29601e-19)
(12.5416 -0.494756 0)
(6.17601 -1.84156 -2.93494e-20)
(12.2845 3.97371 2.18074e-21)
(11.7148 -2.02649 5.29452e-21)
(9.75742 3.85385 -7.62666e-21)
(-7.71003 7.26184 5.51346e-20)
(6.19242 -1.99381 -1.37913e-22)
(11.7781 -0.141524 1.20281e-22)
(7.87118 -0.129532 -2.89354e-20)
(3.96993 -3.13189 -1.50814e-21)
(6.28673 -1.90783 3.78112e-20)
(8.43336 1.57808 -1.0396e-20)
(13.4609 -5.35749 0)
(10.436 3.0627 2.29648e-21)
(13.1835 -4.97752 -8.97849e-21)
(-15.4549 7.82783 9.35779e-20)
(12.6388 -0.713068 2.46054e-20)
(9.99646 0.200048 0)
(11.4551 -1.87939 -1.43395e-20)
(4.28273 -3.25947 -1.16742e-21)
(12.1643 -1.59673 -6.22566e-21)
(15.2046 -1.61421 2.43692e-20)
(10.4841 -0.565469 0)
(9.41006 -3.25307 0)
(9.51449 0.0497134 7.11729e-23)
(9.36576 0.673421 -6.40864e-22)
(7.46032 -3.45202 1.55954e-20)
(8.29539 -0.00735186 -6.65802e-22)
(9.37988 -1.0399 1.47674e-20)
(11.3798 -3.95607 0)
(5.22042 -2.44352 -3.46831e-20)
(10.1992 -0.0233024 0)
(10.294 2.72612 -1.14693e-20)
(10.3779 2.7564 4.61446e-21)
(12.5095 -0.498116 3.63408e-21)
(1.43589 12.4975 1.3168e-19)
(9.9902 0.193267 -1.25969e-23)
(9.34823 0.661739 4.88813e-22)
(13.3903 -0.00808957 1.27491e-20)
(9.9149 0.200391 1.52831e-20)
(8.68067 -0.0179095 0)
(12.8385 -0.982201 -4.20271e-21)
(7.75705 -2.75257 -2.24043e-20)
(6.76299 -2.44522 0)
(10.8505 -2.72483 -7.02177e-21)
(10.3707 0.893303 -2.15402e-22)
(8.7172 -0.0482656 -2.73787e-21)
(14.8485 -1.60406 2.7818e-20)
(9.40637 1.16504 0)
(-8.13031 -5.74903 -1.25893e-19)
(9.44144 1.10931 0)
(21.0014 2.15597 -3.73002e-20)
(4.08051 -3.01087 -1.70062e-23)
(7.49774 -5.98036 0)
(9.36085 0.815873 -2.81625e-22)
(2.77007 -1.98295 -2.98061e-21)
(7.02744 0.464845 9.60024e-21)
(9.25144 -1.97198 -8.61877e-21)
(9.24089 0.0659637 4.91225e-22)
(3.16769 -1.885 3.44168e-21)
(6.35718 -2.27664 -9.72944e-23)
(9.64775 -0.476104 1.08139e-20)
(-1.52855 -1.4919 -3.68228e-20)
(9.52696 0.910311 -3.23187e-23)
(10.4262 0.894702 5.85019e-23)
(9.53421 0.788412 1.01001e-22)
(11.7237 -2.10826 -2.18706e-21)
(0.675237 11.7281 -8.7778e-20)
(8.40328 -1.82762 0)
(9.87732 0.0852545 -4.86082e-23)
(8.00456 1.95304 -8.34139e-22)
(21.1587 2.11407 2.27617e-21)
(12.3705 0.429231 -3.36476e-22)
(6.78959 -0.828223 -5.68915e-20)
(7.19699 8.70277 0)
(7.36561 -2.39264 -3.51867e-21)
(9.84539 0.397615 -2.32118e-20)
(9.24111 1.14271 -1.0632e-20)
(8.98821 5.3428 -8.27918e-21)
(12.4193 -1.36358 -2.90058e-21)
(9.93225 -2.99148 -8.53793e-21)
(7.06734 -1.36788 7.5261e-21)
(7.92906 0.574268 7.40887e-22)
(8.74466 -2.67027 3.57463e-21)
(9.95093 0.153802 1.60196e-24)
(-16.9161 8.63736 0)
(1.52731 -2.80896 2.41534e-21)
(9.4643 -1.00785 -2.81654e-20)
(-11.0419 10.4966 7.84589e-22)
(9.87579 0.0950417 0)
(12.1097 4.0005 6.65904e-22)
(1.48193 -2.9944 4.67828e-22)
(8.78648 -0.00713778 3.1955e-21)
(6.52213 8.78097 0)
(-9.05828 10.3035 1.00799e-21)
(9.78723 0.290632 1.10606e-22)
(8.2228 -0.180211 -1.54425e-21)
(0.939376 12.588 1.0148e-19)
(9.59747 -4.40377 0)
(8.06679 -3.79814 0)
(12.05 -1.90454 -6.14675e-21)
(7.84493 -2.66956 1.80957e-22)
(10.4349 0.576841 3.01588e-23)
(5.10278 0.126296 0)
(7.8305 -3.70182 -1.37321e-20)
(10.2555 3.20487 0)
(10.6909 -0.549155 0)
(9.3552 -0.461887 0)
(9.51732 0.559505 -3.37352e-22)
(6.48169 -1.86254 1.11515e-22)
(-9.07322 -5.39689 0)
(8.57359 -2.37631 0)
(8.27104 -0.0380575 2.14499e-21)
(8.93713 -3.15319 0)
(8.82706 0.0368751 0)
(10.514 -1.35381 3.25965e-22)
(10.7946 0.523456 3.02962e-21)
(10.009 -0.188276 -2.10796e-21)
(8.07422 -5.09292 -4.00136e-21)
(8.62307 0.0815931 -3.17296e-22)
(1.92954 11.5201 -3.39203e-20)
(-7.26335 -2.73366 4.83373e-20)
(-3.45076 -2.28699 4.3589e-20)
(9.96379 0.119196 -2.56071e-21)
(9.53705 2.32234 -1.14382e-20)
(5.11134 4.11855 -7.83151e-21)
(9.27008 -4.14 0)
(9.39794 0.462381 9.98124e-23)
(9.51514 -2.77454 -5.72259e-21)
(14.4482 -0.407953 -2.49427e-20)
(12.8713 -1.06173 3.45646e-21)
(12.3013 -1.11543 0)
(8.33054 -1.80463 0)
(10.7397 0.0249947 1.46592e-22)
(23.8967 -2.7032 -8.37276e-20)
(12.3852 -1.37438 1.8369e-21)
(-4.54179 8.41151 0)
(13.4646 -0.0621651 0)
(10.0061 0.191582 0)
(10.249 0.112117 2.12061e-22)
(11.5757 -2.38071 0)
(9.89611 0.0589908 5.08725e-23)
(7.58723 1.82297 -7.06647e-21)
(10.9745 1.69375 0)
(12.3043 0.28384 0)
(9.50417 -4.25645 0)
(2.37969 -1.24409 -5.77501e-22)
(8.20264 -3.23063 3.24752e-20)
(10.0003 2.81283 -1.40308e-21)
(12.8525 0.0494819 8.09193e-21)
(8.24672 -3.1419 -4.88014e-20)
(12.2166 -2.23585 5.2986e-22)
(4.74624 -2.3295 1.52886e-20)
(8.77101 0.0247916 0)
(13.0147 3.87112 -5.06576e-21)
(11.7153 3.61312 -1.22533e-21)
(1.80605 -0.147642 -3.6186e-20)
(11.8573 -1.55506 -5.59654e-21)
(-2.36544 -2.98954 1.2052e-20)
(-5.29608 1.45049 2.09004e-21)
(10.9606 1.58581 2.92754e-21)
(10.0863 0.515401 -1.78303e-20)
(11.2739 -1.18374 4.97115e-22)
(9.85949 0.123003 -1.67467e-23)
(-0.00684138 -9.33618 0)
(12.0409 5.61622 6.17029e-21)
(15.3189 -0.380338 3.54812e-20)
(9.61663 0.241784 -2.62872e-20)
(12.3486 -1.03319 0)
(9.67098 -1.33302 3.0243e-20)
(10.373 0.476063 4.97372e-23)
(11.6325 -1.13876 -2.64503e-22)
(-9.68933 3.29532 0)
(12.9762 0.489029 3.05255e-22)
(12.2153 -0.593086 -1.11805e-20)
(10.1123 0.207878 -9.88e-24)
(11.2557 -1.21681 -4.37243e-21)
(11.0467 -4.03536 0)
(7.25434 -3.50089 -1.83826e-20)
(9.37365 0.601619 0)
(11.2259 0.213609 0)
(8.56863 -0.222299 0)
(7.32496 4.9052 -1.47159e-20)
(8.6351 -0.356099 0)
(-10.0116 -0.177317 -3.10398e-20)
(7.78817 -5.4138 9.45233e-21)
(12.9843 0.0064419 4.4736e-21)
(6.72424 -3.25998 -6.94924e-21)
(12.8251 3.59449 -2.26517e-21)
(4.22248 -3.40134 1.30622e-21)
(10.7963 0.547207 -8.38441e-23)
(7.38807 -3.5203 -1.8072e-20)
(10.4026 -4.30183 3.79938e-21)
(10.0454 2.56652 1.71976e-21)
(8.78917 -0.342029 -2.4864e-21)
(5.90669 -2.32151 -1.91743e-22)
(8.99523 -0.245308 2.19103e-20)
(8.52066 -0.209568 0)
(12.8462 0.55134 0)
(12.2377 -0.617644 1.58342e-20)
(11.2673 -5.36607 1.27292e-20)
(7.9698 0.0133433 2.65708e-20)
(9.51228 0.235611 1.45084e-22)
(12.1082 0.951194 -2.18662e-21)
(9.29385 -2.49852 1.49957e-21)
(11.7303 -1.78909 0)
(9.36293 5.04611 2.25499e-20)
(7.39481 -1.45149 0)
(16.3426 3.59651 0)
(-7.44193 8.39136 -1.00191e-19)
(13.5293 0.0713624 0)
(9.43524 -2.74401 1.34581e-20)
(13.0068 0.0849573 0)
(13.143 -1.21868 -5.17964e-22)
(6.27088 -2.78266 1.08889e-20)
(12.7857 1.73953 -4.12939e-22)
(3.67936 -4.87133 1.23374e-21)
(9.17694 -1.59409 2.72509e-22)
(7.04447 -2.33218 6.81645e-23)
(9.6943 -1.3633 -9.68346e-21)
(9.41704 -2.7942 7.00157e-21)
(14.5499 -0.711935 3.13876e-20)
(5.08355 -2.37282 1.18526e-20)
(2.65976 -3.65414 0)
(6.13092 -2.93356 1.29134e-21)
(10.8277 -0.938132 7.34392e-21)
(11.2801 0.109806 -2.29464e-22)
(6.24777 -2.9437 3.54683e-20)
(11.7691 -0.786107 0)
(14.9539 -2.22013 0)
(10.0718 0.318768 2.74316e-20)
(10.5978 0.454116 0)
(6.07009 -2.9843 1.1846e-20)
(7.77218 0.0807238 -1.40279e-21)
(8.82538 0.448235 0)
(12.1533 -0.286287 -1.94131e-21)
(12.4908 -3.41443 2.81837e-20)
(5.21 -2.44414 9.09267e-20)
(10.1221 2.58656 0)
(-3.50897 -3.12253 -2.9889e-21)
(4.97583 0.276077 4.23188e-21)
(7.36837 -3.60633 1.75913e-20)
(8.2091 -0.214149 0)
(8.72084 -1.50494 1.81576e-21)
(-1.18075 -10.2489 4.13342e-21)
(12.1639 -1.58145 4.8582e-21)
(9.2012 -2.48989 -1.89493e-21)
(3.41771 -3.79206 6.04772e-22)
(15.0048 -1.92324 1.88955e-20)
(8.67763 1.16065 0)
(7.83775 0.179313 1.84042e-23)
(11.7458 -2.05244 -1.23411e-20)
(-1.10204 -9.717 -5.16143e-21)
(10.4719 -3.51498 -1.12279e-20)
(-10.6979 3.60774 0)
(9.15493 -1.57626 -4.10596e-21)
(4.0155 -3.40057 -1.76646e-21)
(10.2407 0.00980511 -1.25505e-20)
(6.93335 -1.31398 0)
(7.20047 4.65167 1.06213e-20)
(9.89378 0.363992 -7.06745e-21)
(11.6649 -1.88476 0)
(12.7759 -0.587866 2.42113e-21)
(6.43654 -2.9349 1.45631e-20)
(12.2468 -3.20659 -1.57029e-20)
(8.7261 -1.39808 0)
(6.82233 -3.22002 0)
(8.16735 -0.400958 -1.73909e-21)
(12.2624 -0.771175 -2.52783e-21)
(6.92213 -3.42354 3.36685e-21)
(10.2995 -0.993131 -1.07733e-20)
(9.60427 0.533662 1.55905e-20)
(17.3135 -7.07365 -2.88153e-20)
(-10.0093 -3.32843 1.25993e-19)
(-13.2997 9.49268 1.47126e-19)
(14.693 -0.228334 2.92453e-20)
(10.0371 -0.354137 2.77188e-21)
(14.1248 -1.24251 4.36266e-22)
(9.97564 0.0306478 0)
(2.94513 -3.48905 0)
(8.43256 1.40633 7.06072e-22)
(7.74244 -3.64201 1.37306e-20)
(10.0825 0.0807982 -2.48229e-21)
(10.7846 -0.855682 6.82036e-21)
(11.0238 -1.09872 0)
(12.592 -0.0788521 -1.05153e-20)
(12.8412 -0.424898 -1.7032e-21)
(9.55108 0.263368 -1.43134e-20)
(12.0801 -3.05468 4.59425e-21)
(9.50903 -2.16102 -9.42492e-22)
(6.10832 -2.20853 1.66774e-22)
(11.7183 -1.16601 2.15424e-21)
(12.0631 -1.56482 5.89819e-21)
(9.3561 0.52341 1.54127e-22)
(9.06976 -4.48064 0)
(-0.182589 -0.689265 0)
(11.3046 -0.305667 3.87613e-21)
(7.22796 -2.06722 2.86445e-21)
(9.43171 0.655331 0)
(10.8629 7.11593 -6.61786e-20)
(3.21269 -1.81257 0)
(11.5127 5.57903 -1.29473e-21)
(12.5157 -1.85375 -5.97949e-21)
(15.0515 -11.4493 0)
(9.32815 2.00924 -6.84133e-21)
(8.48051 1.5943 -1.01332e-21)
(9.15527 1.18852 -9.05157e-22)
(9.2147 -0.236309 -2.40855e-20)
(9.36829 -1.70742 0)
(9.42259 0.676876 4.91525e-22)
(8.39042 1.00364 -2.07685e-24)
(9.8807 0.292793 3.29255e-21)
(7.78196 0.800127 -1.38229e-20)
(2.47888 4.45776 1.43181e-20)
(12.7651 -1.4587 5.4274e-21)
(10.7418 -1.94053 -3.12186e-20)
(10.3363 -1.0167 0)
(13.1203 -0.190962 1.07839e-22)
(10.8676 -2.03761 -5.93252e-21)
(9.97486 0.146316 3.36314e-20)
(10.0577 -3.01599 0)
(12.4203 -1.39402 -9.28512e-22)
(7.09543 2.08675 0)
(11.9852 -2.43297 -1.02885e-20)
(9.07138 -2.52994 -9.71411e-21)
(3.8487 -1.70267 1.43033e-20)
(11.4825 -2.46477 -8.86187e-21)
(9.99511 1.02292 0)
(7.71931 0.343349 -2.09253e-21)
(9.23704 -1.64116 4.46611e-21)
(7.93223 0.85272 1.30714e-20)
(10.9008 -2.07999 2.26183e-20)
(11.7302 -1.18708 9.79345e-21)
(-10.6548 0.262545 -4.48883e-20)
(9.98892 0.174463 1.58217e-23)
(10.8546 -1.05765 0)
(4.77534 -1.4545 3.38452e-20)
(16.2366 3.60307 0)
(8.25152 1.41721 3.27249e-23)
(10.8329 -0.631217 1.77047e-20)
(13.0357 -0.285302 -1.20214e-21)
(12.8352 -0.607796 1.74071e-21)
(-16.4604 8.31152 -1.0239e-19)
(9.49201 0.328888 1.79018e-20)
(9.76676 0.0619213 0)
(-3.53509 -1.29982 -3.02013e-20)
(10.537 -1.38412 -6.47293e-21)
(6.78271 -1.79679 -1.52101e-21)
(11.215 -4.86782 1.19279e-20)
(12.836 -0.0834113 0)
(13.1089 -1.28535 3.13639e-21)
(8.91383 0.796234 2.76132e-20)
(9.84305 0.424843 2.13283e-20)
(11.4224 -1.96811 0)
(9.91486 -0.0139906 1.49588e-23)
(11.0392 -1.01335 -6.89734e-21)
(2.78973 11.0095 1.41573e-20)
(7.78479 -0.0777505 3.69942e-21)
(10.5559 -1.177 6.17392e-21)
(10.4355 0.0372034 -2.93585e-23)
(10.7944 -0.948369 0)
(13.2137 -1.07283 -7.42553e-22)
(-4.71072 -3.53153 5.12975e-21)
(12.1806 2.10916 2.88111e-21)
(9.98681 0.145215 1.28127e-20)
(8.35239 -0.0267209 0)
(7.97898 0.96189 -2.00913e-21)
(18.7112 -11.6002 0)
(16.4332 6.20242 -1.58218e-20)
(10.1025 -0.132181 0)
(9.99265 -3.37511 -2.81737e-22)
(6.44822 -0.165562 -8.01093e-21)
(7.40132 3.68966 2.546e-20)
(2.04278 11.2277 -6.50575e-20)
(8.89102 -1.37106 0)
(11.3764 0.443783 -8.36001e-23)
(9.96496 1.09946 -7.01934e-21)
(2.6928 -1.7233 -2.82237e-20)
(4.50508 -2.85826 1.40659e-22)
(8.12499 -0.130266 -3.99801e-20)
(11.9966 -1.72913 7.46732e-21)
(10.4321 1.04446 4.36576e-21)
(7.08189 -2.04916 0)
(6.8772 1.70384 1.50661e-20)
(9.55966 0.483223 -2.26389e-22)
(3.07444 -1.99363 1.6021e-21)
(-4.46265 -2.02204 -1.59707e-20)
(-0.746194 3.46413 -5.6732e-20)
(14.7945 -0.117504 0)
(1.23179 -0.537404 0)
(10.3305 6.21895 0)
(10.1589 -0.34322 0)
(2.68582 -2.67677 -1.90688e-21)
(11.9577 -2.35339 0)
(7.27699 -1.91387 0)
(7.96769 0.751814 5.43597e-21)
(15.1903 -0.304504 -3.64572e-20)
(10.7025 -0.923948 -1.4459e-20)
(8.28338 1.7586 4.47286e-20)
(9.95567 0.235848 -3.40523e-21)
(11.532 9.14575 0)
(12.5579 -1.3776 0)
(9.45823 0.306697 1.52746e-20)
(9.80353 0.0945586 2.62661e-21)
(6.1732 4.85098 0)
(-8.35072 2.8633 3.72671e-20)
(10.3304 -3.5715 1.25947e-20)
(-2.31479 3.78421 0)
(11.6692 -0.804454 9.40943e-21)
(9.7478 0.234358 -1.75605e-20)
(4.61966 -0.510675 -1.70337e-21)
(4.74816 -1.37958 0)
(9.86717 1.17124 1.33897e-20)
(12.9237 0.847447 0)
(11.1908 -1.16389 0)
(11.0452 1.0811 -3.97785e-22)
(9.4398 0.438521 8.09662e-21)
(-16.8295 8.76432 -1.22573e-19)
(11.5063 3.52536 2.37828e-22)
(6.5252 -1.45297 -1.43547e-20)
(10.0677 -0.32874 1.85659e-21)
(10.5019 1.01502 3.31077e-21)
(14.2739 -0.942009 2.66345e-22)
(10.7482 -3.52277 0)
(12.794 -3.15263 1.48216e-20)
(6.57941 0.135253 0)
(8.24023 1.23114 7.97598e-22)
(11.2381 -1.19303 0)
(7.07578 0.395999 2.04357e-20)
(-3.89199 12.6764 -9.04146e-20)
(12.0807 -1.66365 0)
(1.2201 -0.417165 2.17463e-21)
(12.6364 -1.58066 -1.73364e-20)
(3.69821 -1.3644 -1.44299e-20)
(8.61753 -1.09739 3.88867e-20)
(6.97643 3.85738 -1.57196e-20)
(6.49184 -1.43289 -4.08604e-20)
(17.8144 5.19702 0)
(9.33556 0.51027 2.60014e-22)
(-10.3434 -0.468196 -1.13428e-19)
(9.98428 1.2502 0)
(9.1092 1.32703 9.91673e-22)
(12.7568 -0.0304963 -2.70255e-21)
(13.4426 5.61739 0)
(9.982 0.0758177 0)
(-2.4498 0.10706 0)
(0.458358 -10.0307 1.46409e-20)
(16.6276 -8.64576 3.41323e-20)
(20.3263 -3.75189 5.58148e-21)
(11.4729 5.26716 0)
(8.34002 -0.681137 2.61082e-20)
(9.83373 0.100726 2.14564e-23)
(11.512 3.23701 1.78241e-22)
(4.24936 -2.85777 2.73501e-21)
(9.46364 1.02231 0)
(9.9746 0.179542 0)
(3.53413 -0.202051 -2.24676e-20)
(6.98423 -2.00068 -1.01732e-20)
(9.48504 -0.754078 0)
(8.87544 -4.13557 -1.35939e-20)
(10.0971 0.0320211 -1.75827e-23)
(9.95742 0.133648 1.49351e-24)
(4.13312 -1.79093 0)
(9.12254 -0.283883 2.79585e-21)
(9.53828 0.464193 2.99986e-22)
(12.9725 0.830883 9.00182e-21)
(8.97376 -2.61536 0)
(-13.7604 10.2678 -2.239e-19)
(12.8801 -0.387851 1.86007e-21)
(9.86918 0.500796 2.88773e-21)
(9.58684 0.158651 9.30445e-23)
(13.3212 3.63328 0)
(8.26403 1.73914 -1.18951e-20)
(15.7488 2.22564 -1.40798e-20)
(-3.55172 5.90089 1.20162e-20)
(10.0566 0.211703 0)
(4.50244 -3.00054 -1.44328e-22)
(2.21559 0.0922451 0)
(10.1497 0.301082 -1.1007e-20)
(9.91835 0.4254 5.12898e-21)
(9.23914 0.226823 -3.02042e-21)
(-1.09783 -9.45441 0)
(12.4619 0.119602 -6.98643e-22)
(5.32534 2.75511 4.04527e-20)
(10.6917 -3.51134 0)
(7.87772 0.595007 1.68012e-20)
(11.7624 -3.07798 -5.28387e-21)
(10.6201 0.0989072 0)
(3.92011 -3.56672 9.15968e-22)
(8.3424 -1.73531 -3.58904e-21)
(10.4809 0.0658911 0)
(-9.69928 11.2038 1.23796e-19)
(8.98915 1.16362 0)
(8.41669 -3.82567 1.34872e-20)
(-3.29062 -3.50078 8.75769e-21)
(10.1091 0.243368 9.76717e-24)
(12.298 0.771181 -4.81531e-21)
(6.78426 1.62775 8.01018e-21)
(8.64266 -1.24414 -1.4246e-20)
(8.87896 -1.26365 -1.86963e-21)
(8.49112 -3.76282 1.36877e-22)
(10.483 -1.19205 5.90559e-21)
(13.3099 3.65388 1.02816e-20)
(10.1834 -4.60985 0)
(9.94036 0.0690599 -1.13505e-20)
(-7.95197 4.23348 -2.44606e-20)
(6.63481 0.0970362 0)
(9.64041 0.603721 -2.01245e-23)
(9.11206 0.0681579 0)
(5.92133 -1.50811 3.58197e-20)
(9.84967 -3.63809 0)
(9.80869 0.0426421 -1.49485e-22)
(11.095 -0.549906 -1.01189e-20)
(3.99896 -3.86886 1.81964e-21)
(-1.36767 -0.854249 7.69087e-21)
(12.6153 -0.168239 -7.95718e-23)
(8.93743 -4.27756 1.32485e-20)
(8.5109 -2.36846 1.43823e-20)
(7.06004 -1.38282 0)
(-13.7976 5.46112 -4.56111e-20)
(10.8372 -3.33685 -2.55189e-21)
(-14.0135 6.34861 -5.4562e-20)
(9.95079 0.160005 -1.34454e-24)
(6.97808 -2.51158 0)
(10.9496 0.166281 -4.18632e-23)
(-9.98579 3.32393 0)
(1.08778 -3.33647 4.30052e-22)
(5.93333 -1.16392 2.31783e-21)
(-0.469872 -0.0622599 0)
(9.80574 -2.62493 4.24774e-21)
(7.47164 -5.68497 0)
(13.4096 5.27227 0)
(8.01857 -3.80289 -1.7715e-20)
(7.23064 1.77419 1.21983e-20)
(7.9892 -2.00999 0)
(9.04871 0.988995 -7.55147e-21)
(21.9754 -2.86159 9.84307e-20)
(-5.61075 -3.37787 3.19837e-20)
(13.7242 7.3619 0)
(10.4413 0.0339235 0)
(-11.2652 0.185924 -5.65776e-20)
(9.08716 -0.439527 0)
(12.6672 0.256675 0)
(-6.16389 -8.41938 -6.88248e-21)
(9.92767 -1.95874 -1.9825e-20)
(8.41096 -1.88114 1.21602e-20)
(14.8511 -2.45318 2.71389e-21)
(-13.2389 5.46157 8.89833e-20)
(9.79012 0.285395 5.96339e-21)
(7.22531 -1.51723 0)
(10.8778 2.57659 -1.56467e-21)
(6.7886 -0.613784 0)
(12.2668 0.184742 0)
(9.92546 0.555725 0)
(11.1346 1.04865 -3.13224e-22)
(9.04713 -0.186732 1.11296e-20)
(10.4793 0.305175 -2.35912e-22)
(7.40704 -1.56915 0)
(-15.6026 7.22827 -8.50033e-20)
(10.2314 5.90326 1.89795e-21)
(8.91975 -3.19177 1.39889e-21)
(9.88681 -0.494254 -4.44559e-21)
(11.9961 -3.15208 2.43661e-20)
(10.2256 0.043328 -1.01272e-20)
(-2.74355 12.6342 0)
(12.8271 -0.441222 0)
(6.39111 4.43314 0)
(5.86188 -2.49464 -2.6321e-20)
(5.61717 -4.55101 -3.15587e-21)
(-1.08737 -2.75763 0)
(11.0992 2.57086 0)
(13.3662 -1.37842 2.43702e-21)
(9.84537 -0.136721 -2.90235e-21)
(9.51984 3.18907 1.13904e-20)
(10.636 -4.3165 0)
(-15.0976 5.74808 -3.5909e-20)
(11.5798 0.467229 -1.27681e-21)
(6.81279 -1.80947 -2.419e-20)
(11.0336 0.359982 -1.20062e-21)
(11.4498 3.24089 1.43149e-21)
(10.6431 -8.20997 1.19259e-20)
(5.78109 -2.47195 4.53596e-20)
(8.87162 -3.39447 6.52211e-21)
(10.4864 0.584168 6.17849e-23)
(9.97548 0.0763543 -2.94183e-21)
(7.93834 -3.87229 -4.12617e-21)
(8.28734 -1.54957 1.5988e-21)
(8.7483 10.8282 1.00153e-21)
(8.6284 -4.06195 7.07773e-21)
(13.0287 0.0188876 0)
(9.59964 -3.08216 9.91669e-22)
(10.5453 0.0337063 -7.48149e-21)
(14.703 3.62554 6.89464e-21)
(6.66985 -1.61602 -2.20378e-20)
(8.87871 -3.099 -1.49032e-20)
(10.1731 0.0594762 2.7851e-20)
(11.9809 -0.198807 -1.60053e-20)
(7.59126 -2.06936 1.20294e-21)
(14.8006 0.0445377 -1.52501e-20)
(5.54224 -0.477987 -4.79139e-20)
(10.7177 0.0552305 -5.7734e-21)
(5.46581 -0.862254 0)
(3.71952 -4.58133 -5.15068e-21)
(10.1448 0.0774841 2.62178e-20)
(9.25361 -0.0262288 2.2894e-23)
(-1.54591 0.540085 0)
(9.26573 -4.24457 0)
(10.1758 2.35963 9.59861e-21)
(4.88414 -0.390692 2.97531e-20)
(6.95086 -7.97147 -1.2973e-20)
(10.1504 -3.38282 -7.70204e-21)
(10.7943 -2.00489 1.71355e-20)
(16.607 3.49795 0)
(10.2692 2.63396 5.11005e-21)
(6.11996 -2.11887 -1.36649e-22)
(12.2947 5.28151 6.5899e-21)
(9.63574 -1.2302 -1.70376e-20)
(-12.7345 5.12416 -1.39385e-19)
(11.8424 -2.94198 -2.37107e-20)
(12.9751 -3.40361 8.17325e-21)
(11.2415 6.31909 0)
(9.99657 -1.58703 -3.03801e-21)
(9.40549 0.246597 2.77245e-21)
(9.8725 0.110961 -2.67885e-23)
(4.71825 -2.27428 4.20048e-20)
(9.46898 -1.24706 2.56562e-20)
(9.70469 2.40669 6.59085e-22)
(-6.01367 -2.16526 -1.77711e-20)
(11.4457 -0.595079 -7.93071e-21)
(10.6736 0.153136 5.13991e-21)
(-12.0545 -3.16082 -1.65091e-20)
(11.8475 5.25701 -6.82598e-21)
(-11.5164 11.0194 -1.34507e-19)
(6.40562 -3.04479 -1.39957e-20)
(9.91589 0.030043 0)
(10.4624 0.844138 -2.37633e-22)
(-5.31998 -8.60817 -2.53069e-20)
(6.41858 -0.300838 4.29111e-20)
(10.2076 0.18318 0)
(10.6077 -1.4856 -3.30491e-22)
(5.58434 -2.16119 1.02639e-20)
(10.0163 0.190085 -2.49341e-20)
(-7.70395 0.887266 -2.76822e-20)
(7.9498 -2.05449 -1.00206e-21)
(10.7301 -0.962861 9.90582e-21)
(11.3238 0.383598 -2.0012e-22)
(8.51274 -3.86961 -1.87278e-20)
(10.7166 0.420512 2.23471e-22)
(5.40942 -5.08687 -9.17418e-21)
(10.5574 0.0548971 7.0103e-21)
(10.0213 -0.29955 -7.98676e-21)
(10.7311 0.676353 -2.429e-22)
(11.0204 -0.102751 -1.73015e-20)
(5.37072 -2.24603 -1.98161e-20)
(10.5063 0.461481 0)
(1.33602 -6.94861 6.07292e-21)
(10.1625 0.0772761 1.95064e-21)
(4.50738 -0.0832944 -3.1407e-21)
(12.2975 0.272311 -3.84527e-21)
(10.5249 -1.99853 -1.06013e-20)
(9.99286 0.0776231 -1.88991e-20)
(10.473 1.82946 2.63663e-21)
(-9.27672 2.88922 -3.83063e-20)
(12.6273 0.283599 0)
(7.97906 0.788071 1.02093e-21)
(13.0867 -0.207828 1.23212e-21)
(7.06009 -2.47938 0)
(10.7259 0.506255 3.88396e-21)
(13.0824 -0.177065 9.58261e-22)
(12.4383 0.383243 1.50372e-25)
(12.0524 -4.59208 -1.83771e-21)
(8.92745 -0.409292 0)
(8.80907 2.16668 2.15647e-20)
(10.1071 1.91762 -1.40568e-22)
(8.39129 -3.92937 1.5242e-20)
(9.85493 -0.786167 0)
(7.27381 1.81597 -3.5348e-20)
(6.64926 -1.72592 3.30712e-22)
(12.7475 7.56349 -1.61462e-20)
(5.61386 -0.575144 4.689e-20)
(10.4925 0.0898949 3.68307e-22)
(-2.43079 -0.473188 7.75717e-21)
(9.46337 -0.340379 -1.74527e-20)
(13.1712 -2.76185 -2.17585e-20)
(8.93679 0.715799 -1.59194e-20)
(10.4801 0.000156968 0)
(9.86489 0.102158 -1.11978e-20)
(-2.40543 -0.364146 8.35989e-21)
(-2.8249 -5.47594 0)
(12.1036 -5.30882 0)
(9.90563 0.097842 0)
(-6.06111 7.5649 0)
(10.3445 1.69628 0)
(5.25712 -0.401062 0)
(9.50517 -2.58601 -1.61744e-22)
(19.2719 -4.53884 -4.07281e-20)
(12.9806 1.8508 0)
(8.49697 1.89434 3.21082e-20)
(7.5585 -1.84919 -2.57514e-21)
(10.3464 1.11608 3.56936e-22)
(-4.9064 -9.12101 -1.81692e-20)
(5.33374 0.848833 -1.19832e-22)
(-7.1601 2.07271 2.67279e-20)
(10.7838 0.0323121 -6.22738e-21)
(13.2685 -0.0461027 1.74338e-21)
(10.131 1.68512 -6.5489e-21)
(9.44072 0.989186 -2.12684e-20)
(9.9877 5.50488 -6.46726e-21)
(17.059 6.776 0)
(4.29837 -3.0389 4.86391e-22)
(6.00623 -1.58858 -3.92191e-20)
(10.1327 0.0497798 -3.38189e-20)
(10.9888 -3.31515 -1.52436e-20)
(10.8279 -0.104278 2.77649e-21)
(12.756 -3.32961 2.72868e-21)
(10.2572 -1.53983 -2.23726e-21)
(9.86062 -2.57059 -1.47392e-20)
(10.1341 0.930335 7.27562e-21)
(10.1184 9.02619 0)
(8.83195 -1.15167 -1.72927e-21)
(8.23078 0.638888 -4.94827e-21)
(12.0089 -2.21751 0)
(8.30494 -0.353563 0)
(8.94058 -4.01503 -1.01757e-22)
(-1.51991 -0.938854 7.15039e-21)
(9.3972 -2.5693 -7.53299e-21)
(8.78722 0.269332 0)
(9.31987 -0.264227 -2.27205e-20)
(8.82025 1.09456 -4.13227e-21)
(2.08667 -5.56058 2.91939e-21)
(13.0761 0.349787 5.48856e-22)
(-6.48642 1.50191 0)
(4.14645 -3.08132 5.82272e-22)
(13.0657 0.0432857 0)
(9.78287 -1.63989 3.24347e-21)
(12.4506 -1.31473 -2.74608e-21)
(10.1416 0.152559 -3.97932e-23)
(11.7406 3.68251 2.17131e-21)
(13.4869 6.52234 -1.65135e-21)
(8.25887 -2.23885 2.97543e-20)
(4.96414 -2.7114 0)
(7.46669 -4.87992 -8.38409e-21)
(7.26061 -2.51685 0)
(13.2644 1.78478 -3.60581e-21)
(1.8377 -5.34531 4.51664e-21)
(11.9799 -5.23115 1.6748e-20)
(7.96461 0.587026 -1.08587e-21)
(-1.15452 -11.3748 -3.78959e-20)
(7.52416 -3.52581 -1.76041e-20)
(6.25122 -1.61171 -2.28082e-20)
(9.51993 0.572529 8.94005e-23)
(7.71156 -4.67314 6.83481e-21)
(5.44888 -2.29944 1.62442e-20)
(6.56799 -1.77681 2.47213e-20)
(5.49448 -4.263 3.67949e-21)
(8.3375 -5.35056 -4.73416e-21)
(8.80159 -2.703 1.4787e-20)
(-0.0890147 11.7375 6.2858e-20)
(10.8689 0.100088 1.83683e-22)
(7.64233 -2.06543 2.22792e-21)
(11.682 2.36966 -1.84963e-22)
(10.7254 -2.77871 0)
(-2.80593 5.12173 -1.12871e-19)
(10.3064 -0.0108591 -9.26291e-21)
(9.99793 0.692329 0)
(13.0412 1.66314 0)
(6.9637 -3.68429 -4.40027e-21)
(14.4527 -3.73384 -2.58156e-20)
(12.0668 1.13886 7.05877e-21)
(9.88476 -1.90782 2.60669e-20)
(9.61008 5.12589 6.45557e-21)
(9.24555 -0.0679647 1.78003e-20)
(1.19774 -6.01615 -7.60629e-22)
(8.96216 3.43894 0)
(6.7541 -1.95533 2.35895e-20)
(-1.85965 6.68935 3.70091e-20)
(-1.69118 -10.1343 2.74548e-20)
(8.20662 -3.08165 5.01718e-21)
(9.4044 -4.45876 -4.47576e-21)
(10.5974 -0.117986 8.85585e-21)
(8.17891 0.0673894 6.96678e-22)
(11.1708 -1.81191 1.5197e-20)
(0.817262 -6.33203 -4.14318e-21)
(11.9333 1.07461 -5.23705e-21)
(9.65009 0.265852 8.96092e-21)
(5.43344 -0.82678 -1.92963e-20)
(9.03266 -0.325656 1.42972e-20)
(7.80315 -1.79908 0)
(12.3521 2.07767 -4.67944e-21)
(9.68754 0.248525 1.98264e-21)
(6.98016 -1.20268 -7.53037e-21)
(9.81439 8.2727 5.75048e-21)
(8.67088 -2.63706 1.09723e-20)
(10.0152 -0.000189763 3.89513e-21)
(6.71464 0.844427 -2.75511e-20)
(12.2588 -2.24816 0)
(8.17016 0.651451 -1.76207e-21)
(11.2112 0.392268 1.63243e-21)
(9.67905 -0.441681 0)
(6.98385 0.410841 1.58384e-20)
(13.0164 0.331479 0)
(8.88706 8.81984 -1.5017e-21)
(11.664 -0.105477 0)
(8.87539 -1.24471 0)
(12.6074 -0.195846 1.90048e-21)
(11.9111 0.884551 -2.86086e-21)
(14.9073 0.792382 -2.3861e-20)
(9.45603 0.886388 -9.52773e-21)
(7.19353 5.57772 -6.55137e-21)
(10.2181 0.466757 -3.46763e-21)
(10.3529 1.81077 0)
(15.157 5.71202 -1.37115e-20)
(12.5056 0.84521 6.34476e-21)
(9.69355 -1.59558 -6.68127e-21)
(10.757 -2.76828 0)
(14.9524 3.50511 1.03066e-20)
(10.5978 8.84577 9.90004e-22)
(10.7478 0.0150673 6.78684e-22)
(6.81757 -13.6318 0)
(-5.74142 -8.68492 8.93506e-20)
(10.1525 0.848943 0)
(11.438 -1.607 -7.68742e-21)
(4.66441 -2.53796 0)
(18.2644 2.90398 0)
(8.77369 -3.76318 0)
(9.67055 -3.60007 0)
(-12.4997 3.51654 -2.14171e-20)
(1.24828 -9.19925 -2.8844e-21)
(8.99126 -0.165731 -1.66322e-20)
(3.86392 -3.94277 -2.30427e-21)
(5.91395 -2.38861 0)
(4.15193 -4.97776 -2.28456e-21)
(3.22546 -1.51041 -9.01928e-20)
(7.59314 -3.52734 0)
(7.12487 -2.34717 -2.55085e-20)
(9.57473 0.920178 -4.80116e-23)
(11.6273 2.24997 -3.03034e-23)
(11.6032 -4.07192 4.54311e-21)
(9.33526 0.972779 0)
(10.3884 -3.37734 0)
(17.9508 1.59713 1.36031e-20)
(8.27731 -1.41073 4.11989e-22)
(9.3334 0.52162 -2.7849e-22)
(6.98415 -3.59027 5.00695e-23)
(9.94648 0.0158049 8.2879e-22)
(10.4531 0.825762 1.91415e-23)
(10.0275 0.969295 1.03048e-20)
(8.24719 1.02744 8.3631e-22)
(9.04509 -2.45591 0)
(-15.6039 7.75174 0)
(10.5056 0.352335 0)
(9.53649 0.00307888 0)
(8.38542 -1.33609 1.05778e-20)
(13.8074 -0.269034 0)
(-8.78436 -3.24418 2.35531e-19)
(10.1527 -8.09303 -8.87131e-22)
(6.39335 -1.83708 -3.73645e-20)
(7.61723 -1.75425 1.13011e-21)
(1.89172 -7.302 -3.47408e-21)
(-3.40359 -0.329037 -1.42465e-19)
(10.139 0.111228 3.09982e-21)
(-0.721581 -6.66709 -6.43656e-21)
(8.3564 1.19939 1.10785e-21)
(12.5099 -0.197663 0)
(11.396 -1.99141 0)
(8.67577 -1.65937 0)
(10.4352 -2.08073 5.62641e-21)
(8.01355 -5.65174 0)
(9.21218 3.28622 0)
(10.0437 0.0120288 0)
(8.50377 -1.87526 1.13523e-20)
(10.456 1.10308 -8.79172e-21)
(8.9105 0.0632194 0)
(9.73393 -2.62647 -7.26035e-21)
(9.91188 1.12046 -1.06574e-20)
(12.27 5.058 -1.42304e-20)
(7.67819 -3.5042 1.571e-20)
(9.40192 3.59017 1.50915e-22)
(8.32829 -1.90185 -2.94741e-22)
(8.16555 -0.311183 1.7092e-21)
(8.92414 -1.52147 -3.51929e-21)
(11.8157 0.967633 4.13484e-21)
(9.41814 0.420784 -4.53585e-22)
(8.89386 0.601653 -1.57209e-20)
(10.4184 0.0191981 0)
(6.13317 -0.227951 2.37773e-21)
(9.65289 0.256025 1.58225e-20)
(6.48116 -2.04258 1.12697e-22)
(10.1837 -1.40733 -6.51812e-21)
(5.02202 -0.550258 -3.23639e-20)
(11.9032 0.775021 -7.55946e-22)
(15.9364 2.53369 2.03681e-20)
(10.0481 0.528411 0)
(9.51198 -1.96058 1.3102e-21)
(8.69719 0.207028 -5.83995e-22)
(9.01273 -1.56339 6.82774e-21)
(3.90049 -2.89871 -3.12074e-21)
(9.79758 -0.00964755 8.45337e-21)
(10.5232 0.468192 -6.67596e-23)
(10.3703 0.0762278 -3.2871e-22)
(10.4168 0.330665 0)
(6.59055 -1.20452 0)
(7.17532 -3.37856 1.94095e-20)
(-7.73713 1.29737 2.99015e-20)
(9.88042 -0.0161651 1.61022e-23)
(9.72215 0.226301 3.16731e-20)
(7.60102 -2.07953 -3.52173e-21)
(7.34946 1.57029 0)
(8.94668 0.544807 0)
(7.59458 -1.41665 -1.12447e-22)
(12.3557 -0.183092 2.84132e-21)
(9.67228 3.26047 1.50577e-20)
(12.1971 -1.03046 0)
(11.443 0.189928 0)
(9.94956 -2.86837 2.10166e-20)
(9.66307 -0.665423 1.35781e-20)
(0.921122 -0.117404 -1.07713e-21)
(9.76137 -0.229916 0)
(16.4053 3.63639 2.05442e-20)
(10.3426 -3.25559 -2.98416e-21)
(-5.26894 -6.80979 -3.46003e-20)
(9.68569 -0.105564 -1.8199e-20)
(19.279 -2.70201 0)
(14.9761 -3.59879 2.03268e-20)
(9.14679 -13.4887 -3.30859e-20)
(1.04278 -0.0376423 0)
(9.44176 0.143195 -4.39563e-22)
(9.43046 0.510965 -1.03771e-20)
(9.91496 0.0444919 -9.96281e-26)
(13.118 -1.54027 1.49594e-21)
(7.90655 8.52542 1.75213e-20)
(10.6366 0.101312 0)
(4.84394 -1.56844 -2.02859e-22)
(9.21403 -1.66173 2.79033e-21)
(14.6269 -11.6999 -1.1816e-19)
(10.2374 1.6792 7.75502e-21)
(4.95829 -2.63198 6.30331e-22)
(9.83071 0.032739 -4.01142e-20)
(9.73664 2.67675 -4.02268e-22)
(7.887 -0.0288214 1.54409e-21)
(8.37927 -1.69631 0)
(8.80038 0.00770699 -3.05833e-21)
(5.26082 -2.34047 1.31257e-20)
(10.8675 -0.56637 -1.94758e-20)
(9.73739 0.200491 -1.43005e-20)
(11.2356 -1.52271 6.97568e-21)
(8.1847 -0.592832 3.80095e-20)
(10.7789 0.104891 -2.03821e-22)
(8.93931 0.563568 9.04503e-21)
(9.63073 0.69216 -1.03233e-22)
(14.9149 -2.59761 -3.08804e-20)
(12.338 5.69577 -1.07653e-20)
(7.29036 -8.2103 1.00639e-20)
(10.129 -0.0875529 0)
(8.1473 -1.76642 0)
(5.30365 -2.7247 0)
(6.38637 -1.64942 2.8705e-20)
(10.0929 0.109708 -2.28816e-20)
(8.83166 1.13667 0)
(7.11919 -1.26222 -2.23543e-20)
(9.0678 1.0504 0)
(8.48655 -1.16036 -1.73768e-20)
(9.44765 -1.67159 -7.03317e-21)
(8.95876 -2.23863 -1.60951e-20)
(10.7348 0.0669469 0)
(9.70714 0.270816 0)
(9.77034 -0.546546 3.88802e-21)
(12.8628 1.61534 4.10821e-22)
(12.9681 -0.371682 1.24452e-20)
(11.2632 9.57533 -7.69521e-22)
(12.412 -1.31253 0)
(8.27822 -2.97981 -8.31542e-21)
(-5.8193 -5.38931 0)
(2.89017 4.10677 -1.48277e-20)
(13.6821 6.41853 0)
(10.6749 0.486766 1.12556e-22)
(5.58962 -0.299121 1.2431e-20)
(7.21918 -0.335219 1.23109e-20)
(9.57895 -0.296808 -3.95192e-21)
(9.62737 -7.34862 -4.15634e-20)
(9.51778 -0.787814 3.43573e-20)
(10.3569 1.76565 -3.71971e-22)
(11.6579 -3.21264 -3.23624e-21)
(9.53705 -2.10002 -8.05542e-21)
(-2.00325 -2.8175 3.32453e-20)
(13.1821 2.37607 0)
(9.93258 0.222124 8.74544e-24)
(7.3084 -1.61093 0)
(8.00858 0.0831545 -1.54505e-21)
(8.36467 -2.99947 -4.32881e-21)
(8.20092 -0.449142 -1.25016e-20)
(9.88504 -0.0492041 -1.66088e-23)
(12.9811 0.120457 -1.07942e-20)
(8.19641 0.00808924 2.55716e-20)
(11.7978 -0.542538 -6.42868e-21)
(9.40507 0.566558 0)
(-15.3895 4.19544 0)
(12.3952 0.513345 4.44497e-22)
(14.8799 0.845615 0)