/*--------------------------------*- C++ -*----------------------------------*\
| =========                 |                                                 |
| \\      /  F ield         | OpenFOAM: The Open Source CFD Toolbox           |
|  \\    /   O peration     | Version:  2306                                  |
|   \\  /    A nd           | Website:  www.openfoam.com                      |
|    \\/     M anipulation  |                                                 |
\*---------------------------------------------------------------------------*/
FoamFile
{
    version     2.0;
    format      ascii;
    arch        "LSB;label=32;scalar=64";
    class       surfaceScalarField;
    location    "9.5";
    object      phi;
}
// * * * * * * * * * * * * * * * * * * * * * * * * * * * * * * * * * * * * * //

dimensions      [0 3 -1 0 0 0 0];

oriented        oriented;

internalField   nonuniform List<scalar> 
20045
(
0.815731
-0.930389
0.114658
-1.67184
0.67217
0.99967
0.401278
2.64149
-3.04276
-0.0753441
0.389727
-0.314383
-1.46087
1.22814
0.232733
-0.83438
3.19707
-2.36269
-1.21572
0.177854
1.03786
0.0689292
0.766808
-0.835737
0.79517
0.65593
-1.4511
-1.08898
-0.259783
1.34877
-0.201393
-0.235674
0.437067
3.64785
-1.69681
-1.95104
0.635573
-0.62918
-0.00639343
-1.81364
1.48856
0.325079
-0.24556
1.35336
-1.1078
-1.55873
0.469746
-0.0150586
-0.0464796
0.0615382
1.87691
-2.29493
0.418014
-2.64966
3.88629
-1.23663
-1.15763
-0.00709372
1.16473
-1.38008
1.20013
0.179956
0.225596
0.409977
-0.299543
-1.3723
1.34543
1.23525
-2.58068
1.26611
0.204733
-1.47084
-1.34695
2.69238
0.0623908
-0.0796828
0.0172921
-1.74217
3.37563
-1.63346
6.24132
-1.32997
-4.91135
-3.41777
1.84085
1.57692
0.121761
0.536073
-0.657834
1.82226
-1.25703
-0.565233
-1.01039
2.20024
-1.18985
3.47325
-1.94444
-1.52882
-0.968984
1.03791
1.11164
-0.674398
-0.437241
0.674062
3.38384
-4.0579
-0.108978
0.666728
-0.557751
-3.32929
-0.0665774
3.39587
0.94896
0.826672
-1.77563
-0.10557
0.923338
-0.817768
0.297637
-0.414064
0.116426
4.36237
-4.2913
-0.0710672
2.16166
-0.736437
-1.42522
0.94443
1.21723
1.63349
2.01436
-0.521176
0.424031
0.0971453
1.09749
3.94734
-5.04484
4.03696
-3.36289
0.253111
2.6469
-2.90001
1.97681
-3.29403
1.31722
3.75783
-3.04093
-0.7169
-2.57612
-0.988283
3.5644
-0.155881
-0.510968
0.666849
2.66181
-1.48748
-1.17433
-1.0697
-0.391169
1.21273
1.30508
-2.51781
3.7933
-0.480224
-3.31307
1.49752
-2.50792
1.2723
-2.91807
1.64576
-0.389037
-0.049543
0.43858
-1.87266
3.14496
1.00895
-2.61692
1.60798
-1.12215
-0.257938
2.48262
-0.17253
-2.31009
0.0764753
3.7278
-3.80427
0.333268
-0.576198
0.24293
-1.04033
0.149765
0.890568
1.38723
-0.592057
1.34621
-1.4902
0.143985
0.376476
-0.0432077
0.722621
1.93919
-0.419663
-1.5865
2.00616
0.0914446
-0.158421
0.0669767
0.533326
2.38397
-2.91729
2.38259
-1.16986
-3.05841
3.59174
0.803134
-1.04869
0.469362
-0.477631
0.00826966
-0.402615
-0.65277
1.05539
0.897013
-0.868866
-0.0281473
1.33715
-1.14301
-0.194135
2.22726
-1.21831
-3.66144
0.697624
2.96381
-0.00944256
0.825174
-0.631991
0.853022
-0.221031
3.01912
-0.774605
-2.24452
-2.38889
0.0710722
2.31782
1.50221
0.316396
-1.81861
-1.2616
1.04834
0.213257
-1.5289
-0.63012
2.15902
1.26369
-0.307327
-0.956362
0.66008
-0.984851
0.324771
-0.339344
-1.19922
1.53857
0.977959
-1.05974
0.0817846
0.943228
3.10866
-4.05189
0.0745881
-0.0121973
-0.319842
0.989821
-0.669979
1.91738
-0.968424
-0.00655278
-0.0359955
0.0425482
1.26202
-0.150378
-0.708266
-1.10537
0.850062
-1.1699
-0.115108
3.90841
0.0847608
-0.716752
-0.0130494
0.00649661
0.641961
1.8357
-2.47766
3.09853
-2.70214
-0.396389
-0.0518144
-0.829287
0.702311
0.126975
-0.460094
0.57977
-0.119676
1.3641
-1.13008
-0.234015
-0.83654
0.680658
2.9242
-3.36002
0.435817
-0.370959
0.578685
-0.207726
0.085704
-0.555661
0.469957
1.6481
-0.381997
2.5122
0.961058
-1.82963
1.40997
1.16354
-4.31853
3.15499
2.30777
-0.430863
-0.55238
0.163343
-1.30395
1.04604
0.25791
-0.230761
0.188015
-0.997234
0.809219
2.89493
0.862899
1.64659
-2.20675
0.560157
2.36312
0.276462
-2.63958
-3.0715
2.32573
0.745768
0.0224281
-2.45504
2.43261
4.15685
-1.26191
0.429069
-0.00503793
0.03145
0.00626319
-0.0377132
-0.0751121
0.0421202
0.0329919
1.72606
1.18791
-2.91397
1.82881
-1.67653
-0.152279
-0.440357
0.093845
0.346512
-0.597262
-0.232025
4.49299
-3.32945
-1.11082
1.13689
-0.0260719
1.75163
-3.13875
1.38711
-0.00281351
-2.57331
1.87437
0.378693
-2.25306
0.916958
-1.31957
3.58859
-0.589898
-2.9987
1.02658
-2.31368
1.2871
3.50289
-3.71602
0.213129
-0.37637
0.5329
-0.15653
-0.059635
3.02145
-2.96181
5.32799
0.913326
-2.46684
0.06575
2.40109
-1.48341
1.0551
0.428312
1.10789
-0.210873
0.390327
0.946822
-1.88041
2.25667
-0.376269
-2.34391
2.74519
0.0147148
-0.715422
0.700707
-0.700493
-0.115119
0.815612
-0.0686464
-0.626102
0.694748
1.60812
-0.471475
-1.13665
3.98365
-1.90836
-2.07529
-0.753531
0.684885
0.360513
-1.02588
0.665362
0.364838
-0.0672006
-3.15604
-1.36837
1.89515
-0.526783
-1.88544
1.43434
0.4511
-0.0373723
-0.153582
0.190954
0.0309354
3.47196
-0.0697879
-0.00532417
-0.22269
0.25414
-2.05611
0.175709
-2.2268
2.78366
-0.556856
-1.9789
2.21899
-0.240081
1.51266
0.691409
-2.20407
0.159605
0.175058
-0.334663
1.17548
-1.31224
0.136764
2.5482
0.162748
-2.71095
0.00257387
-2.24462
2.24205
-0.833319
2.70769
0.59997
-1.72873
1.12876
-0.598738
3.52294
-2.396
1.54718
0.848814
0.101567
-0.0835455
-0.018021
1.01847
-3.51922
2.50076
-2.7288
0.986633
-4.08183
-0.626376
3.1253
-1.88154
-1.24376
-1.15515
1.04958
0.549187
-0.587288
0.0381007
-0.88371
-3.07668
3.96039
-2.3942
3.55762
-1.16342
3.51686
-1.89815
-1.61871
0.0692056
-0.663636
0.59443
-0.146055
-2.04034
2.1864
0.341242
-0.542635
-2.4078
2.43023
-2.05592
-0.669985
2.72591
0.386658
0.0983804
-0.485038
0.306515
-1.67488
-0.210509
0.33227
2.53072
-0.167599
-0.549596
0.440618
-0.641347
0.803831
-0.162483
0.268516
1.33961
-2.26885
2.1228
0.861801
0.415743
-1.27754
-2.1671
0.456625
1.71048
1.76475
1.75211
3.69405
-2.67558
2.11266
-3.54355
1.43089
1.10334
-3.07279
1.96945
0.168798
-1.32643
-1.49074
2.1327
1.91094
-2.74532
1.45436
-2.25068
0.796315
-3.70221
2.1126
1.58961
-0.186642
-1.07496
0.583234
0.492927
-1.07616
1.9823
-0.618139
-1.36416
-0.051054
-2.07853
2.01889
-0.829271
-0.281546
1.92773
4.30065
-2.87809
-1.42257
-0.0373819
-0.463603
0.500985
1.93307
0.299016
-2.23209
0.169233
-0.464448
0.295214
-0.696726
1.9826
-1.28588
2.23163
0.787489
1.78728
-1.18731
0.0167498
1.32866
-1.34541
2.63574
-0.884108
0.39428
-0.0329053
-0.361375
-0.628017
-0.617477
1.24549
-0.451022
0.469278
-0.0182562
3.03284
-1.90543
-1.12741
0.84025
-3.23445
-0.499918
0.0488965
-2.615
0.88924
1.72576
3.33124
-1.131
0.699247
-2.92605
4.42063
-2.53868
-1.88195
-0.0581964
0.444854
2.21442
0.985262
-3.19968
-1.83183
0.349283
1.48255
-2.95897
2.97492
-0.0159522
1.04826
-2.73573
1.68747
-0.0175408
-0.0118223
0.0293631
-1.42244
1.8155
-0.393061
0.0763608
0.9043
-0.980661
-0.533471
0.162513
-0.556075
0.0959816
-2.89203
0.189893
0.940096
-1.90496
0.964864
-0.503804
0.215405
0.2884
0.940385
0.881873
2.17813
-0.723771
-1.06155
0.361056
1.82403
1.50722
-1.55375
0.133139
1.42062
-1.52285
3.73727
1.11438
0.238979
-0.375203
-0.128601
-0.930862
-0.173514
1.10438
0.0308302
0.0707363
-1.93894
1.24221
0.561184
-0.962829
0.401645
-2.72589
2.62827
0.0976221
-3.41869
2.84536
0.573326
-0.458191
-0.429149
0.88734
2.26975
-2.50317
0.233424
-2.23063
-1.47158
4.4135
-2.67439
-1.73911
-0.36789
0.330508
2.9998
-1.95154
-0.972905
1.913
-1.72124
-0.12679
1.84803
1.92295
0.868007
-2.79096
3.65129
0.481938
-4.13323
-1.90729
0.186047
2.5641
-1.52813
-1.03597
-0.533603
2.38917
-1.85556
1.10088
-2.44148
1.34061
0.351625
0.322003
-0.673629
0.0283519
-0.00906338
-0.0192886
3.50024
-2.86689
-0.633349
-1.67238
-1.39912
2.42213
1.87852
-2.48042
-0.245472
0.605555
-1.23357
-1.93369
0.163167
1.77052
0.0100099
0.539177
-1.60786
3.33391
1.18828
1.84456
3.36757
-2.03593
-1.33165
-2.75643
2.08644
2.52092
-4.10416
1.58324
-1.86943
-0.165681
2.03511
-1.04989
-0.275402
1.32529
1.07459
-0.714079
-0.50797
1.36977
-0.0647341
-0.0473736
-1.20965
-1.5256
4.59314
-3.06754
-0.787111
0.145764
-1.15336
1.17011
0.356466
-3.31544
2.358
-0.126367
3.15325
-0.723591
0.920635
-0.197044
0.0587472
-0.134091
-1.41392
0.969391
0.444532
0.823932
0.540164
0.348915
0.426806
-0.775721
1.41456
0.414252
-1.69103
-0.242653
1.73266
-0.230444
-0.672869
-1.49424
2.53806
-2.09234
-0.445726
3.46031
-1.71458
-1.69984
3.41442
2.36528
-2.60281
0.237534
-1.39964
1.06029
-0.414991
-0.0253662
-0.013904
-1.515
0.97506
-1.66652
0.691463
1.27416
1.28995
2.83231
-3.82514
0.992833
0.824156
-1.65191
0.827753
-2.91879
0.529894
0.106132
1.15756
-0.941559
1.86918
-0.927625
-0.675394
0.96983
-0.294437
-1.3678
0.152088
-0.396592
-0.764728
1.16132
0.36952
0.00277386
-0.372293
-0.815506
-0.667903
1.07605
1.35492
-2.43097
1.8958
-3.41865
0.599123
-1.35791
-0.0417269
1.46879
-0.644632
-1.92697
-0.46903
0.796644
-0.852157
0.0555124
4.51077
-3.41328
-1.4427
2.27962
-0.83692
-0.4234
0.498868
-0.0754683
2.03688
-0.0545777
2.66366
-2.50049
-1.52187
2.76664
-1.24477
2.45087
-3.9593
1.50842
2.05863
2.35487
-0.0674599
0.07435
-0.00689014
0.309018
-2.17845
0.877401
-1.51323
0.635831
0.138922
-0.0474779
-0.283628
1.93022
1.85571
0.502291
-1.75688
2.86023
0.587444
-3.23711
-2.13268
0.627632
1.50505
1.98386
-0.385219
-1.59864
2.81559
-0.545849
-1.30517
-0.70109
0.582275
1.46214
-0.459197
0.397884
0.0613131
0.988603
-0.995696
-2.21777
1.93414
3.43211
0.93026
-2.38411
0.941413
4.32027
-1.89813
-1.0234
1.02199
0.00141078
-0.0102542
-1.74662
1.75687
-2.69507
0.484592
2.21048
2.48614
-2.48614
2.61289
1.00351
-3.61639
1.06757
-0.71865
1.76357
-1.00992
-0.753654
-2.81488
2.92994
-0.115062
1.10602
-0.0743558
-1.03167
0.8761
-0.303248
-0.572852
0.411747
-0.869938
-0.0301283
1.14569
-2.11859
-2.43177
2.87586
-0.444085
-0.876795
1.95284
0.0137278
0.0018581
-0.0155859
0.867392
-0.885845
0.0184528
-1.15464
1.32344
3.29841
-2.65801
-0.640394
-0.276694
-1.52933
1.80602
-0.793966
0.84633
-0.0523641
0.498138
-0.882088
0.38395
-4.07716
3.2911
0.786056
0.180284
0.209443
-1.12006
0.0966524
-0.0140425
-0.0178423
0.0318848
1.61615
1.88409
0.0200627
-0.00633498
-0.254637
-0.705922
0.96056
-1.53032
2.4349
-0.904587
0.456418
0.531871
-0.988288
1.01052
-0.83267
2.16579
1.42575
-3.59153
0.123333
-1.32256
0.2995
2.2487
1.32796
0.87214
-2.2001
1.47396
-1.20706
-0.266898
-3.03564
0.568799
-1.08605
0.508758
0.577294
1.27028
1.71246
-2.98274
-1.91621
1.75053
0.200181
-2.73218
2.532
-0.452059
0.521265
0.115184
-0.116854
0.00167026
0.157282
-1.08814
0.20344
0.0690116
-0.272451
-1.98804
-0.62696
1.83827
0.460167
-0.218651
-0.241515
-0.460575
0.037175
0.457934
-2.09076
1.63283
0.629056
1.55821
-2.18726
1.08937
-2.10253
2.53067
-0.428145
-2.17892
1.64532
-0.0462125
-0.0334703
-1.16506
-0.720375
-0.87135
0.204678
0.666672
-2.62601
1.0957
1.95282
-2.22951
1.91679
2.40347
-1.08365
0.976977
0.106671
0.953526
-2.80741
1.85389
0.562767
-0.894382
0.331615
2.85734
-0.193678
-1.8766
-0.102303
-1.04738
0.00704456
0.336118
0.0226114
-0.35873
1.06778
0.0358451
-0.0831413
0.0472961
2.82368
-1.5534
-2.9575
1.24423
1.71328
0.824198
0.604106
-1.4283
-1.04708
0.595021
-0.757906
-0.113444
1.09835
0.665225
-3.101
-1.21753
0.790129
0.00651561
1.81285
1.29573
0.43693
-2.63212
2.88523
0.238736
-1.20087
0.962137
-0.275229
-2.47339
2.74861
-0.49378
0.558079
-0.0642996
-0.0699285
0.229534
-1.34538
2.44625
2.39263
-1.36604
-1.12275
-0.291171
-0.0177243
-1.28865
1.30637
-0.436879
1.94954
-0.262536
-1.38497
1.6475
-0.41189
0.970546
-0.558656
-1.9296
0.100815
1.82878
5.71246
-1.76512
-0.0201481
0.324916
-0.304768
-0.719026
-0.0749404
0.569337
1.10973
-1.67907
0.472809
-0.56888
0.0960711
1.03124
-0.0311528
-1.00009
-2.34394
3.28717
0.356685
0.012835
-0.628758
-1.98787
2.61663
3.17968
1.31331
2.64558
-2.01653
-1.14952
0.752924
-0.00874369
0.0370956
-1.50557
4.02649
0.364641
-2.27863
1.91399
1.68609
-0.190601
-1.49549
-1.25101
1.96964
-0.718634
1.17442
-1.11726
-1.27302
2.39028
0.0490686
-0.0285985
-0.0204701
-0.82521
-1.47035
2.29556
-0.16719
1.03458
0.174492
-0.211864
1.53288
-2.35809
-2.08666
-0.664049
2.75071
-0.137459
-1.49293
1.63039
-0.200145
3.33305
-3.44218
0.109132
0.667274
-0.341459
-0.325815
-0.0899982
-0.99365
0.763181
0.775385
-0.995258
-0.0546318
-2.38722
3.01818
-0.630964
-0.270019
0.831203
0.148787
0.768171
-3.27192
-1.01939
0.00756122
0.110642
-0.118203
1.60301
-0.307277
-0.697353
0.761498
-0.064145
0.970956
-0.894596
-5.36638
1.28455
2.67853
0.518545
-0.300683
0.798821
-0.666296
1.49049
1.97539
-0.829706
-0.71109
0.0137372
-0.352406
-1.86537
0.644148
0.809618
-0.794903
-2.76237
0.0672982
-0.0192509
0.696037
-0.13327
-3.47352
0.483511
2.99
1.18562
0.160591
0.65965
-0.234191
-0.425459
0.990554
-0.8642
-0.126354
-1.23164
0.557245
-3.09644
1.57456
0.593057
-0.231451
-0.361606
-0.0123744
0.53198
-0.519605
3.22953
-0.00121176
-3.22832
0.651834
0.0559375
-0.707772
-0.454691
-0.849256
0.755979
-0.0958986
-0.0500474
0.0540714
-0.00402397
1.27145
-0.0661196
-1.20533
0.00847384
-0.0585213
4.69197
-1.5833
-0.0944583
-0.481578
0.576036
-3.07073
0.683516
0.0316384
-0.412394
1.26246
0.137936
0.322231
-0.368417
-0.693132
0.735393
0.576617
-1.31201
2.13443
0.348186
1.15416
-0.915427
0.730251
-0.644547
0.307464
-0.982858
-0.0836971
1.2257
-1.142
1.66663
-0.187192
-1.47944
-1.59642
-0.71726
-1.01648
0.150749
0.865728
1.01758
-1.15358
0.136006
3.25589
-0.082182
-3.1737
-0.855807
0.150744
0.705063
-1.51469
2.05458
-0.539896
1.53251
1.99939
-3.5319
0.483756
-0.533299
-0.890789
1.36279
-0.472001
0.700526
0.306339
-1.00687
-2.92649
1.66878
1.25771
0.0465411
0.00753028
-2.54128
0.454614
1.00474
-0.596731
-0.408009
1.34301
-1.77638
0.433367
-0.318568
-0.611821
0.498437
2.83461
2.4681
-0.443854
-2.02425
-2.46732
0.364792
1.00079
-1.67366
2.11591
-3.98286
1.86696
-0.342888
0.926123
0.00712819
-1.09736
0.842722
-0.517047
0.705062
-0.351658
-2.17104
2.5227
1.32927
1.67053
-2.20408
2.34338
-0.1393
0.0356191
0.300499
-2.04553
-0.635333
-0.402181
0.450267
-0.0480856
1.51326
-0.89252
-0.620741
-0.500312
0.927906
-0.427593
-0.279154
1.62217
-3.05516
0.433066
2.62209
-2.36214
-0.720852
3.08299
1.34411
-1.09749
-0.24662
-0.829868
0.0370536
0.792815
-0.380105
-0.0332143
0.41332
-2.87618
0.129866
2.74631
0.0717785
0.634096
-0.705874
2.32799
-2.6198
0.291814
-1.4276
1.3336
1.32679
-2.66039
0.0369568
-0.439138
-0.0729863
-2.08475
2.15774
2.80211
-3.40084
-2.83858
2.47967
0.358913
0.56522
-0.0924111
1.00582
-0.857033
-0.21434
-0.556335
0.770675
-0.0439542
0.571506
-0.527552
-1.27288
3.25867
-1.98579
1.33081
-3.83602
2.50521
3.03008
-2.89764
-0.132435
2.19543
-0.89047
-1.30496
0.127606
-0.747717
0.620111
-0.942402
-0.0548318
-3.0307
2.6704
0.360301
0.157636
-3.18834
-3.94245
4.02469
-0.0822447
-1.64787
-1.21902
0.665217
-0.543646
-0.121572
-2.3966
-0.674136
-0.625297
0.432596
0.192701
-0.15409
0.323324
-2.82647
2.69581
0.130654
-0.2004
-0.110379
-0.0480422
0.717188
-0.0653539
-1.73368
0.311236
0.508864
-0.569174
0.0603106
-1.2805
1.6053
-0.324797
1.24216
-0.136138
-0.67685
1.83254
0.204339
1.07906
-0.446385
1.7466
-1.30022
-0.336438
1.51191
-1.9252
1.24547
0.679733
0.0227474
0.0237938
2.95029
-1.62102
2.37241
-1.41888
-0.549905
-0.516143
1.06605
1.2217
-2.34628
1.12458
1.6977
-1.83516
-0.969131
0.0250054
0.944126
-0.0197841
-1.62322
-0.301982
-1.1076
0.828173
0.279424
0.00551692
-0.869751
2.98241
-3.13346
0.736863
0.591267
-0.239642
-0.34285
-0.00548818
0.4836
-0.0143215
4.97025
-1.25116
2.93373
-0.551133
-0.794989
0.38696
0.408028
0.16286
0.71324
-3.64402
-0.95896
4.60298
-0.0444871
1.11908
-0.0139741
-0.476772
0.490746
2.46141
-0.51179
0.119101
0.392689
1.0423
-1.126
-1.05615
-2.92178
0.490005
-0.730559
0.0452837
0.685275
2.44519
1.97544
1.49202
-0.963918
-0.5281
2.90613
0.123948
1.81154
-2.55489
0.743354
-2.42677
-0.0274324
2.4542
-2.42761
3.12586
-0.69825
0.467405
-0.0176114
-0.449794
-0.690808
3.49292
-0.0856259
-0.399371
0.484997
0.124255
-2.32833
0.731739
-0.283131
-0.448608
-2.80022
3.62448
-0.82426
-0.658936
1.65621
-0.997278
3.48624
-1.54103
-1.94521
0.0383297
-1.77187
1.73354
-0.114845
-0.00200931
-1.53883
3.07134
4.08731
-1.47442
3.86755
-1.41667
-0.598683
0.504224
-2.54166
0.114888
4.08759
-1.25528
-0.053172
-3.60827
0.912987
0.0103515
0.357019
2.02197
-2.37899
1.64584
-0.441321
-1.20452
0.553645
-1.37528
0.821638
-0.557725
0.0287601
0.528965
-0.607359
-1.46154
2.0689
1.1043
-0.796839
-2.09686
-0.411228
2.50809
0.376482
0.69945
-1.07593
0.246043
0.419174
-3.71784
4.36497
-0.647124
-0.549814
0.0560342
1.35643
0.633333
-1.98977
1.46406
1.44706
-2.91112
0.530396
1.45346
-0.0295907
3.61819
-0.0283085
2.36709
-2.33878
0.680308
-0.22389
0.0437709
0.0932539
-0.137025
2.96998
-2.42027
-0.549714
-0.873871
-0.0952606
-0.044595
0.05186
-0.00726501
-0.799688
2.36663
-1.56695
0.00253792
0.56401
-0.566548
1.69831
-2.41468
0.716364
-1.23344
-1.16719
2.40063
2.34617
-0.413103
0.811763
0.834074
-3.28657
1.38464
1.90193
0.863237
-2.39257
0.479877
-0.716274
0.236398
0.605127
-0.161418
-0.443709
0.0809519
-0.195797
-0.2162
2.31446
-2.09826
-0.412961
3.05986
2.25987
-1.86542
-0.394443
1.92428
-1.60789
-1.48281
0.553504
0.929309
0.234668
-1.24458
1.14443
-1.04754
-0.096887
0.213614
0.446036
0.449171
2.17887
-2.62804
0.797744
0.473706
0.392292
-2.75443
-1.29175
0.0809892
1.21076
-1.03332
-0.680828
1.71414
1.52876
-0.793368
-2.51275
1.63596
0.919922
-0.698971
-0.220952
-1.26052
1.92405
-0.66353
-1.29467
1.418
-1.27346
1.23544
0.0380113
-2.93199
2.73353
0.198451
-0.0614035
0.697524
-0.636121
-0.781729
0.769354
-0.552368
-3.02828
4.74425
-1.71597
-1.63212
2.08875
1.48513
-1.57909
0.093962
0.287077
0.298231
-0.585308
-3.53793
2.75224
0.785688
0.0728256
0.175077
-0.247903
0.0222815
1.82751
-3.10039
2.19072
-0.969023
-1.20769
-0.924992
-2.10814
2.07983
1.38781
0.0465223
0.980888
0.381964
-1.36285
-1.05626
0.976115
0.0801492
0.19892
-0.167779
-0.0311413
-0.809204
-1.45406
2.26326
0.320834
1.63282
-1.95365
-2.1577
-0.646789
2.80449
-0.471172
0.758248
2.19886
0.771125
-2.26431
4.3861
-2.12179
-0.508461
0.438202
0.0702586
0.0220444
0.60464
-0.764339
0.159699
-0.89748
-2.58601
1.7768
0.453431
0.649283
-0.521677
1.09161
0.421646
0.145324
-2.60036
0.0804945
0.897464
-0.084768
0.513785
-0.429017
-1.90349
-1.70596
3.60945
-2.23958
-1.04699
-1.48167
-0.219415
1.70109
0.259284
0.687649
-0.946933
0.00447364
3.32062
-2.13368
-1.18694
0.545037
1.92306
0.188475
0.947795
-1.94685
0.999052
-1.28991
2.55883
-1.26891
-1.65562
-0.675421
2.33104
-1.4026
0.511815
-1.05534
-0.427477
3.16648
-1.44284
-1.72364
0.66268
-0.127863
-0.534817
1.02544
0.250298
-1.27574
-0.552149
0.623927
-0.0043735
-0.284211
0.288584
-0.293056
-0.0873669
-0.666164
-0.0260378
1.82861
1.33787
-3.16409
3.09752
-1.1253
2.96615
0.632644
0.0300357
-2.45917
0.803545
2.16852
-1.8595
-0.379254
-1.92174
0.407051
-0.321784
-3.62067
2.01651
-2.02676
2.45234
-0.0870677
-0.6008
-0.384051
-0.587542
-0.289118
0.87666
-0.940846
-0.118898
2.23185
0.402642
-2.63449
-0.0305534
-0.750761
0.781314
-0.262933
-1.79088
-2.87327
4.66415
2.51112
-0.183133
-2.86037
2.96974
-0.109366
0.633976
-0.48421
-3.41772
-0.120209
-0.801882
2.75649
-0.0860933
0.714874
3.58623
-1.32449
-2.26174
-1.79391
-0.147861
1.94177
0.490559
1.42776
-1.91832
-2.07856
0.148961
-0.562519
-0.240432
0.802951
-1.41112
1.77576
0.440597
1.46923
-1.90983
-0.890815
0.257324
0.633492
-2.70775
0.287524
2.42023
0.930998
1.25972
-0.810415
1.51442
0.681007
-0.68172
-0.404333
2.61571
-3.20561
0.82788
-1.14541
0.317527
0.40597
0.077786
1.98959
0.103878
-2.09347
1.89175
-3.01705
0.00637532
-0.0239161
-1.38032
2.20248
-0.822161
-2.08714
2.01415
-0.100059
0.925028
-0.824969
-0.503041
0.125251
0.37779
-0.204166
0.134238
-0.78596
1.78675
0.324601
0.268457
-0.493979
0.530936
-0.135729
-0.328719
0.00309179
-0.0149141
-0.627049
0.599351
0.0276981
0.648913
-0.724972
0.0760593
-1.14657
3.53054
0.320004
-1.80168
-0.241165
-0.913984
-0.00823971
1.67259
-1.66435
0.970044
-1.14356
0.586691
-2.20389
1.6172
-0.513658
1.07289
-0.559233
3.26784
-4.79345
-0.959493
-0.0667861
-2.77179
0.473681
2.46004
-2.17217
-0.340581
-3.69738
1.9828
-1.294
0.52927
0.042686
0.0215256
-0.0642116
4.05815
-1.61296
1.15974
-0.282334
-0.708722
-0.484698
1.19342
-3.14531
1.34143
1.80388
-0.549722
0.314048
-1.11285
2.44645
0.513237
-0.287641
-2.03405
-0.276072
0.190446
0.292249
-0.308984
0.0167348
-0.376973
2.60882
-0.638123
0.684694
-0.0465706
1.1575
-4.11692
1.92143
2.19549
0.49351
0.715716
-1.20923
1.04081
1.0895
-2.1303
-1.56875
0.909811
-2.58033
-0.0845642
1.11
2.64616
-2.92139
1.25907
-0.558547
-1.13444
1.99768
-1.83996
1.1132
0.726764
1.7805
-2.51013
0.729636
-2.02628
2.1784
-0.152129
1.08956
-1.426
0.0396791
0.561535
0.782576
0.90788
-1.56065
-0.969081
-2.4639
1.3414
1.1225
0.690715
-2.48463
1.49214
-0.07568
-1.75615
0.358244
0.513087
3.05113
-1.0329
-2.01822
-1.5723
0.733597
-1.76691
0.511401
-2.75127
2.60341
-2.09449
0.97723
1.37254
-1.82878
3.67982
-1.85104
-4.35508
3.14003
1.21504
-0.481301
0.489388
-0.901278
-2.89437
2.04127
0.853104
2.71421
-3.40502
-3.57876
-0.139083
4.04275
-1.92684
0.342183
1.98901
-2.33119
-0.0759358
-0.479558
0.555494
-0.438965
0.406796
1.56039
-3.91395
2.08516
0.428419
0.675884
0.603623
1.07879
-1.68242
1.1774
-0.684471
-0.200228
-3.34714
3.54736
-0.997194
1.3802
-2.21352
-1.61066
-1.23587
2.84653
0.716649
-1.02398
-2.01616
0.62992
1.38624
0.177719
0.0683255
-0.246045
2.39101
-2.74267
0.593956
-1.97428
1.28906
1.3391
-2.62816
-0.632778
-0.16221
-2.38353
0.682939
1.70059
-2.41894
1.18549
1.24953
-2.53945
1.38014
-0.552264
0.212502
-0.0347824
-0.207754
1.89384
-1.74384
2.20992
-0.466079
1.01225
0.0533534
-1.0656
-1.57168
-0.0494616
-0.674129
0.143764
2.34238
0.40054
0.098328
-1.74816
0.615838
0.451727
1.46018
-0.00586356
0.204783
-2.6517
-0.174767
-0.839081
3.09348
-2.10821
0.532406
0.57522
-1.10763
3.10905
0.0749155
-3.18397
-0.351839
0.334227
-0.98303
-2.11341
-2.24273
-0.360081
-1.16336
3.05511
-0.977587
1.38988
-0.412296
-2.9237
1.02022
-0.858478
1.4621
-3.15208
-0.321432
-1.10246
-0.774561
0.911325
-2.10974
0.829241
3.17503
-0.41854
-0.32868
-0.298482
0.627162
-0.139152
1.46781
0.809318
2.9203
-2.72012
-0.0686288
-0.669941
0.994711
-1.39811
1.53125
-1.37502
-1.16134
0.672329
0.51118
-1.18351
-2.54071
0.0545656
-0.370264
2.21782
-1.84755
-0.254674
-2.6057
-1.94475
2.24377
3.6878
-1.63188
-2.05591
-0.261263
0.770022
2.04236
-1.25742
-0.784935
0.801634
-0.889001
0.136479
-0.0927077
-0.416476
-0.0502392
0.466715
-0.355276
1.33616
-0.852474
3.56668
-0.0438679
-0.499778
-0.802867
-0.287398
1.09026
-0.039334
2.43035
1.362
0.450526
-1.81253
-1.10257
1.67191
1.16334
1.20329
-1.3346
0.0428547
1.5779
-0.599829
-0.978069
-0.0693449
-0.014554
0.0838989
0.316298
-2.15063
1.83433
-2.64934
0.406607
0.661851
0.547859
2.54562
-0.0317677
0.833402
0.410499
-1.38809
-0.809725
1.392
-2.81006
0.901694
-1.3488
0.194156
-1.24072
-1.61093
2.85165
-4.29421
0.154091
0.340942
-0.495033
2.71993
-2.02231
2.08105
-1.59049
0.392855
1.53218
-1.92504
0.440695
-1.00321
-0.0208979
-2.91565
2.93655
0.0869609
0.384714
-0.471675
-1.33368
2.90542
-1.57174
1.96986
-1.1022
-0.86766
1.59982
-0.177929
-1.42189
-1.6675
-2.44941
-0.922311
-0.125067
1.49313
2.66372
-0.0374345
0.310108
-0.272673
-1.90477
-0.478752
2.08343
1.80285
-1.53167
1.87252
-0.340853
-0.62992
0.749021
0.00307635
1.03151
-1.03459
0.0893329
-0.727456
-0.305451
-2.58892
-2.61623
0.888342
0.0315809
-0.147928
-0.0625819
0.223013
2.06106
-2.28407
-1.44796
-0.285712
3.8137
-1.9179
0.209312
-0.806574
-0.543727
0.316656
0.227071
0.11643
-0.968284
0.851854
-0.50072
3.34608
-2.69387
2.39126
-1.1171
2.50782
-1.12762
-0.350794
-0.743787
1.09458
2.12467
0.264497
0.0239175
-1.94665
1.33929
1.77723
-1.81656
-1.34116
-1.5293
2.87046
-1.69907
-1.44624
-2.88016
2.9524
-0.0722412
0.599498
-0.932846
0.643728
1.58907
0.802184
-0.337185
0.263398
0.0737873
-0.772396
-0.717802
-2.32523
0.467578
1.85766
1.11587
-1.16035
0.529141
-0.0492644
1.64011
-2.62314
1.22253
-1.01779
-0.224529
2.05626
-1.83173
1.61661
1.37748
0.803803
-2.18128
2.97056
-1.75806
-1.2125
-1.34335
-2.37663
3.9132
-1.53657
1.1087
-1.43738
-0.867881
0.836114
1.21094
2.2753
-0.658475
0.582539
0.0710494
-0.0352042
2.70106
-1.51315
1.96873
2.08942
-1.21479
0.658447
0.556344
0.619635
-1.16954
2.09182
-0.102224
2.93111
-2.58893
-1.87072
-0.271339
2.14205
0.567948
-0.0750986
-0.492849
0.481973
0.185301
0.38283
-2.81044
-0.838985
0.996267
1.92977
-1.72909
-0.200679
0.504439
1.07346
-0.465452
0.231261
0.809676
0.59904
-1.40872
-1.24323
2.74075
-0.329314
-1.79214
3.66036
-1.86822
-0.659122
1.0356
-0.230586
-0.66023
3.06407
-1.51402
-0.966399
-0.426989
1.46779
0.85979
-1.10096
-0.545664
0.48426
-0.814474
-0.440892
-0.0196831
1.22544
-0.449965
2.28956
-1.83959
-0.00695818
-0.00708436
-0.87198
0.315646
-0.981922
0.0596111
-2.48396
1.8552
0.733155
0.629635
-0.814595
-0.433963
1.24856
0.544191
0.308831
2.40969
1.31543
-3.72512
-0.333112
-0.0484602
0.381573
-2.43418
-0.523323
2.44
1.2478
2.1902
-1.96719
-3.88219
-0.0656778
0.0671337
0.210909
1.28141
2.23215
-0.480962
-1.75119
1.18147
-0.211431
-0.0810447
-0.915952
-0.298838
-1.91183
-1.15682
1.39149
-1.70932
2.95355
1.56148
-1.54237
-0.019108
0.580569
0.018782
-0.186612
0.749117
-0.100204
2.15023
0.573677
-2.72391
0.208398
0.0838504
-0.682913
0.418831
0.264083
-1.00511
-0.0345264
1.03964
0.915175
1.40479
-2.31996
0.598694
0.930066
1.91604
-0.0533103
-0.783229
1.31906
-0.703222
0.241834
-0.101117
-0.140717
-3.69655
3.07017
2.35025
-1.84363
-0.506621
0.0474113
-0.4463
0.398889
2.40433
-2.62053
2.31721
-1.20134
0.863631
1.21742
-0.413306
-0.0275859
-0.325228
0.251847
0.0733812
-1.5226
-0.384744
2.9957
-1.5364
-1.4593
2.24847
0.511927
-2.76039
1.19863
-1.97744
0.778817
-0.395914
1.37727
0.0915194
-1.12131
2.31006
-1.18875
-0.100076
-0.225152
1.54939
0.738858
-0.0541642
2.47214
0.0116869
-2.48383
-0.634178
-0.422513
0.337745
0.0553918
-0.00353183
0.943195
1.25929
-1.11669
0.616381
0.00222046
-0.215758
-0.259768
0.344529
-1.09736
1.49022
0.0151273
0.794491
-0.145844
-0.795805
1.73619
-0.0678824
1.62936
-0.416942
-0.370547
-0.590249
1.39993
-0.498743
2.33617
-1.83743
-2.20095
-0.34033
-1.70894
2.55202
-0.843078
0.0565769
0.682281
0.932326
-0.165518
-0.0448157
-0.730833
0.775649
-2.25865
0.744637
0.388639
-0.408787
1.20279
-4.84681
0.885543
-2.87341
-1.34444
2.57969
-0.766982
1.43145
-0.832411
0.0309389
-1.67839
1.99469
-0.000741805
-0.462861
0.28572
-1.38321
-0.302764
-1.6374
1.94016
-0.50147
0.492162
3.88403
-2.38537
-1.49866
-0.621668
0.207724
0.683745
0.0611408
-0.744886
-2.1871
0.443261
0.582334
0.0227929
-0.0209326
-0.388831
0.409764
0.999838
-2.70878
0.260459
1.22212
0.150426
-1.37255
-2.60848
2.10974
0.443803
0.113523
-0.557326
1.47694
-4.50522
-0.426606
-0.00355976
0.430166
0.576674
-0.132871
-0.000320907
1.9918
-1.46141
1.60394
1.40362
-0.804925
-2.41845
0.807794
-1.80034
1.50726
0.293085
1.4616
-2.80276
-1.37809
-0.813054
2.19115
-0.0158076
1.07091
-0.847478
0.773122
2.93874
-0.408639
-2.5301
-0.00868636
-2.64301
0.671327
0.928497
0.734732
1.30763
-0.469476
-0.0072953
0.450654
-0.680895
-0.985629
0.101686
-0.1391
0.037414
0.101352
-2.366
2.26465
-0.477151
1.10731
-0.630154
0.585662
-2.27856
1.69289
-0.202481
-1.47405
-0.08493
0.018545
1.79826
-0.9638
-0.520343
1.48414
-0.90353
-1.08451
1.25949
-0.74831
0.48823
0.326814
-0.815044
-1.6589
0.844303
-2.34613
-0.307215
-0.197116
0.504331
0.463658
0.512218
-0.975876
2.73457
-1.51681
-1.21776
0.156799
-1.5291
0.448387
-3.2486
-2.02475
-1.06493
3.08968
-2.53591
0.105551
2.43035
-3.83766
-2.12274
0.0964634
-0.904517
0.874887
0.0296303
-3.0449
-0.947792
3.09802
1.09282
-0.516207
0.311267
-0.901517
-0.403187
1.33325
0.442439
0.29224
-1.09511
0.0521396
-0.442952
0.390812
-0.41282
0.0364501
-0.305801
0.353212
-0.782581
1.27609
-4.28347
2.74261
1.54086
-1.878
1.37003
1.39954
0.597945
-0.0299969
-0.391428
0.0542429
-1.30006
-0.716098
-1.49452
0.496057
0.998462
-0.120613
0.920379
-0.799766
-1.15177
1.2682
-0.250136
1.96062
3.04322
-1.68122
1.47588
-2.37941
1.17806
-1.46789
0.289834
0.345593
-0.0206765
0.069854
0.00449598
-2.81345
1.57273
0.154019
2.09445
0.0394815
-0.582653
0.543171
-3.82496
1.48105
0.593731
-1.21121
-0.550725
-0.0514173
-0.626601
0.678019
-1.54024
0.576437
-2.76845
2.463
2.85527
-1.56621
-0.729615
0.686944
0.0426712
0.133014
-0.0223721
-0.447539
-3.31678
2.93862
0.378165
-0.431066
0.382606
0.0876982
0.922375
-1.01007
0.796345
1.52086
0.104605
0.0463038
-0.150909
-0.821621
0.836748
0.0404953
0.0984272
0.661496
-2.06398
2.72821
0.177918
1.2897
-2.06431
2.49674
-0.0902328
-2.40651
-0.474798
-0.676505
1.1513
2.86999
2.10026
-0.423525
2.13035
-1.70683
-0.0968908
-0.0341632
0.131054
-1.99157
1.96796
0.0236103
-1.01487
1.60156
-2.02056
3.35137
2.87806
-0.846806
-2.03125
0.0906307
0.19297
-0.283601
-0.230377
-0.907036
-0.035366
-0.864561
-0.0424753
0.184858
-0.900082
0.715224
-0.244166
2.51004
-2.26588
-2.23462
0.901739
1.33288
0.732822
2.49671
0.07578
0.178439
-0.254219
1.51351
0.66467
-2.17818
-0.00191961
0.0446056
1.47439
-2.23991
0.765526
-2.14602
0.275301
1.72844
0.728539
-2.10663
-0.00499272
-0.337849
0.342841
2.59477
-0.663117
-1.93166
0.946898
0.652709
1.74274
-2.99389
2.90657
-3.1068
-1.34417
0.233042
1.11113
-0.0719665
0.325642
0.597297
-0.922939
-0.113166
-0.0296718
0.142838
-0.0263063
0.368724
-0.342418
0.702705
-0.837709
0.135004
-1.49949
3.13961
-0.831052
0.813327
0.897781
-0.810083
0.922786
-1.49199
0.569199
-0.981568
-0.858395
-0.435988
0.055883
-0.0644534
0.000735696
0.0637177
1.12592
-0.197549
-0.928372
0.244428
1.68534
-0.677499
-0.378765
-1.56991
0.281259
1.06885
1.17743
-2.24627
-0.0212662
-0.0378858
0.059152
-0.0242211
1.01478
0.487151
-0.110274
-0.376877
2.89183
-1.25625
-1.63558
-2.64343
0.47239
1.23403
-2.17336
0.168904
2.00445
2.20665
-0.350945
-1.13121
0.718813
0.0709619
-0.00110784
-1.43062
2.3861
-0.955477
0.437837
0.0753997
0.512591
0.687537
-0.676481
0.632613
-0.694331
0.845075
-2.00999
1.70715
0.302841
1.67774
-0.989792
-0.687952
3.02172
-3.52244
0.695463
0.150867
-0.666106
0.54643
-0.171836
-0.971178
-2.90618
-0.929843
-2.25013
1.12882
-0.568905
0.53569
0.399358
0.177316
-0.0847932
-0.0120976
2.26835
-2.32694
0.0585913
2.29643
-1.28126
0.607519
0.673743
0.305983
-0.975923
1.51283
-2.36581