/*--------------------------------*- C++ -*----------------------------------*\
| =========                 |                                                 |
| \\      /  F ield         | OpenFOAM: The Open Source CFD Toolbox           |
|  \\    /   O peration     | Version:  2306                                  |
|   \\  /    A nd           | Website:  www.openfoam.com                      |
|    \\/     M anipulation  |                                                 |
\*---------------------------------------------------------------------------*/
FoamFile
{
    version     2.0;
    format      ascii;
    arch        "LSB;label=32;scalar=64";
    class       volScalarField;
    location    "6";
    object      p;
}
// * * * * * * * * * * * * * * * * * * * * * * * * * * * * * * * * * * * * * //

dimensions      [0 2 -2 0 0 0 0];

internalField   nonuniform List<scalar> 
13486
(
22.2544
18.2618
5.23807
-30.1266
8.35772
0.318333
6.64782
12.851
15.5565
10.1355
-45.9352
4.90187
23.3141
0.531079
7.71352
10.5649
-37.2645
2.35961
6.46425
20.2309
-21.1223
23.1022
17.9196
-20.0748
8.97485
-17.8598
-41.7411
-5.28948
0.159564
-4.88055
-16.1797
6.02011
-13.8148
-0.735685
12.8865
-0.834089
-50.1744
18.3354
-5.12223
15.5335
1.74461
24.1764
2.12965
9.16655
9.00606
4.80816
-32.9863
0.122569
-47.7894
-5.74599
13.8174
5.22014
2.12205
18.6718
-0.818169
8.67865
3.7426
1.16407
-12.9975
-28.4768
-52.3746
-26.9275
-25.9732
-20.3907
-25.2475
-43.5446
-35.0502
22.3394
15.4677
-8.12537
-34.992
-0.0963677
15.846
-33.7216
-26.2289
3.95292
-24.5152
7.57822
-33.5719
-7.57669
-0.409332
18.4084
-26.2194
5.27977
22.3268
9.42009
-91.7281
13.1975
15.6357
11.4816
3.67634
11.4252
21.37
19.3632
15.9954
0.0202939
-42.608
-43.3415
15.5044
-37.5457
-0.743953
1.11463
-44.0024
8.49843
12.353
-37.2637
15.4848
-4.05267
-33.1846
10.3251
15.0369
7.13018
18.6429
3.51007
25.9783
15.2603
9.23939
0.236303
15.9705
-22.684
2.26837
-51.6377
16.7173
-2.69775
14.7915
5.80976
11.6968
5.3695
1.55183
-20.0511
7.02328
-32.9347
-30.8979
-33.6272
14.3403
13.2062
25.3823
10.5604
-21.1014
13.3308
-10.3765
2.18821
5.13249
-9.00275
3.61298
-28.5342
-3.74775
20.7685
-6.26379
0.10355
9.76652
7.06678
-0.362958
18.8794
6.03976
5.35609
8.38758
0.342253
16.7263
1.37175
-3.8579
16.7202
-0.710061
23.9986
6.72166
-2.01362
2.53023
29.8372
-1.8241
-33.5306
-36.3011
6.09004
11.3509
9.36198
-0.413135
-69.3848
-1.02584
-12.5039
15.5472
5.14577
14.8119
3.42061
7.77371
-49.8723
5.11846
-5.22328
0.0151559
-3.15981
2.17427
16.282
-33.7958
5.0407
4.1619
20.4887
4.23462
-45.3958
-20.5182
-3.44478
20.3514
-1.03704
-16.9823
5.22617
18.3204
6.6007
0.856673
5.58779
-0.0686746
16.827
4.28446
5.19398
-4.25075
-17.694
19.9998
15.4778
0.310183
-2.22
-5.25433
11.684
20.3446
-15.1995
-37.1427
-6.37919
13.6023
-4.018
0.12368
21.6685
-1.94939
-35.6006
-1.49555
-90.4609
14.6568
-9.45515
-10.8835
24.7099
-36.419
20.9526
-1.58738
5.41879
21.1902
7.92896
-13.9933
11.2418
3.89945
20.0336
-12.3731
17.4986
8.23432
-11.8085
-33.6865
10.0493
-60.3653
26.2105
14.5528
-4.37134
-2.79599
-73.0447
5.70124
-5.48938
1.27643
-13.9566
16.9595
-14.6713
7.70835
-72.3904
8.49835
-50.8647
-1.38248
-19.5923
14.9995
-0.16158
16.6111
15.2
-5.38504
3.32669
21.7536
-10.7563
-0.736698
-8.69823
-3.72234
-0.0661423
-9.38419
13.2184
15.703
-30.9156
-52.3822
-38.574
-10.4283
1.13726
0.221737
15.0882
-33.6364
-23.2643
16.0616
14.3264
-1.03735
-2.57458
-3.68992
3.53434
15.997
3.60875
-0.699689
0.125427
-3.77675
6.23393
-38.9024
5.9494
-8.74247
8.37007
-72.7064
-35.3218
-25.7954
-27.949
1.38031
7.12657
-48.0919
13.374
-21.141
15.6374
16.8848
-1.80823
-46.2912
-29.0632
15.4109
19.4845
26.2271
3.83942
10.5081
13.0218
3.55906
9.97767
13.2977
10.9791
2.86157
20.9414
5.80419
15.2245
26.9067
7.23084
10.4816
-14.4853
-0.144333
19.2655
9.72802
7.94596
-55.1432
0.102139
11.0927
25.941
-15.3755
-21.8947
10.8798
3.07669
3.21832
-43.4498
15.891
-5.59851
-33.6401
11.6611
-68.6514
-15.7031
6.82896
2.58793
17.1479
15.245
-5.61821
-0.0791823
-2.01212
-33.0208
20.4385
11.7851
1.85002
11.2166
-0.511192
-62.3165
1.23219
13.9019
15.4037
-20.2686
-46.2449
-22.5052
14.7748
10.4495
23.363
16.9039
-32.536
-1.27875
3.19448
10.2985
-35.1144
-9.7423
19.6734
-5.43147
7.83412
21.2667
22.1312
-10.3671
-31.9883
-61.3003
-35.8161
-10.7907
-35.3538
6.20051
14.0904
-4.57374
6.52751
-39.0752
19.2134
-12.0387
11.6605
17.4977
9.86578
-4.71824
-6.68823
16.0286
15.3253
19.4726
-51.697
8.73974
-35.3377
8.11686
15.5399
6.56059
25.9916
10.8996
-2.86711
-2.74161
5.09387
15.6925
-41.8172
3.12161
22.9599
14.1161
7.6764
-0.297663
7.20505
-10.9184
23.2512
-24.1949
9.5651
21.9903
-34.5488
-5.60052
-32.9304
-6.90342
-45.8644
17.9817
18.7825
23.0278
-22.5288
-30.8041
-55.2785
10.7087
15.8423
-5.58105
-7.00156
15.082
-53.8805
-68.2777
-32.8688
-28.3418
2.10903
19.0092
-0.471484
3.40322
-23.7386
15.0251
0.122436
28.1992
21.5707
15.6984
12.1783
-1.38534
-0.00686092
26.7904
6.21342
-14.7025
-3.07553
15.3007
-38.7216
3.26765
11.6111
-9.76719
-3.10144
17.7417
-13.2524
-36.3017
10.9333
-9.84997
29.5919
11.0466
13.9033
16.7345
-70.8841
4.63995
24.256
7.69909
19.5661
3.97932
6.01212
-22.8789
-7.42197
2.20905
-37.3209
16.0207
15.0801
-62.5341
0.0714947
-0.148139
22.3243
18.0383
1.59262
15.3525
11.9411
-2.83231
8.43149
13.9758
-33.2359
23.003
-6.13379
-5.18323
24.0348
10.5657
-1.33553
10.9763
-26.3375
-52.5287
7.28999
9.69658
16.8661
21.466
-47.0366
7.12887
-47.194
0.0499933
20.8524
5.76678
-51.1245
-46.5287
7.19931
-0.0722157
12.5308
-25.2469
-6.88219
15.3711
20.7146
-8.22305
16.8943
-28.9214
-62.6144
-10.6971
7.46819
-53.7975
16.8646
4.99243
-54.7889
13.3572
17.786
-14.6983
-47.755
13.98
20.8897
6.62312
22.4097
4.71869
11.0995
5.20631
16.9431
3.43456
20.3808
-42.6645
6.66124
14.7593
2.20882
-9.902
15.3746
-34.492
3.56777
19.1168
23.0578
-21.6173
2.82982
6.15886
0.740453
14.1547
11.9546
4.7606
-44.4132
2.39993
22.0806
4.44565
3.57183
-33.5312
23.1331
-9.05742
3.61237
14.8883
11.7735
-8.63078
1.70468
13.0871
4.21292
-98.4521
7.16406
-9.55147
22.5314
15.116
11.0687
11.9275
-8.13529
-10.5656
25.1541
6.36595
25.193
-33.7918
15.2141
-1.29932
-33.6021
9.49448
9.95363
26.3117
-39.3224
10.1199
10.2551
-16.2842
9.82158
1.44522
-1.77929
15.1967
-47.9957
-9.22001
-12.0381
1.91714
-0.85619
16.6529
-0.539312
24.5067
15.3851
-1.22392
-61.6527
-3.69883
6.49673
-50.6076
0.226068
-37.7321
20.8484
-0.0846459
3.72685
-67.7052
23.473
0.382041
-0.377326
24.0272
13.8941
-54.8857
-9.38692
11.4974
3.41085
14.6354
3.7705
-25.8325
7.08722
14.3013
6.16604
13.1094
24.3305
3.63825
-58.5904
15.3169
8.81588
-0.126851
11.1177
12.0445
8.13694
-52.8284
5.07831
-21.4423
3.14509
20.8075
6.26761
3.71113
5.02194
0.440045
6.24284
16.1365
2.42393
14.1763
14.7633
20.9892
2.44158
-5.81708
25.0027
1.58492
-53.4145
16.1051
-11.1736
17.3687
3.64846
14.9258
-6.84818
-33.7861
-17.9947
-0.385524
-36.7519
9.4382
25.6809
-4.70255
-27.115
-2.53256
16.2831
-0.518638
8.10068
-64.0979
25.4324
-52.3751
9.08369
-5.89561
10.0091
15.6087
8.34568
-20.3627
-16.0936
23.8041
15.2605
6.91006
14.1434
1.26665
12.502
12.4263
10.1487
-31.011
1.50852
18.9376
7.13863
-0.389007
12.7228
-53.4743
-4.39027
-1.44101
16.5597
16.4954
-48.1742
4.81047
-53.4367
-17.5187
4.51518
-1.6239
2.70427
14.8802
2.36208
-8.44619
17.6854
-5.17134
-18.7548
-6.78647
-3.75744
-48.7158
-18.4534
-18.4091
-74.1083
14.6142
23.3384
-15.1607
-17.2466
24.0569
22.6491
-22.1028
-19.6104
15.7502
-33.3137
4.11199
-2.69364
2.88055
8.84084
-36.4599
7.97012
11.1843
-3.11245
-11.5347
-16.4549
0.623849
13.4524
8.8777
10.6415
-55.5238
14.1664
22.1204
-36.7466
-73.8172
16.9774
5.32683
11.1043
-6.44945
-4.23371
-57.893
0.809651
15.8831
25.2793
16.8115
-9.48701
1.07964
15.4498
21.6262
0.616816
16.2039
15.5299
22.8034
7.46056
-22.6214
4.2414
3.0159
22.4189
4.87083
5.95808
11.3308
-0.586895
5.33482
1.19579
-10.1596
14.9706
14.7135
11.5052
8.69671
-32.6594
-1.02897
-0.862443
8.86849
-10.2816
-2.58694
3.7116
-66.2858
-56.0381
9.26911
-4.08592
-33.639
-29.904
-10.5962
11.3429
-43.2552
-65.4508
17.0941
-27.8457
23.1599
-34.797
-33.7018
17.8019
20.9769
-19.6525
3.18315
3.40498
16.0412
8.92265
-19.1159
-8.18588
-45.4647
-10.7405
14.9106
3.8341
10.0872
-23.184
15.3547
-41.2171
3.76333
-5.26608
18.3887
-8.20956
-47.5639
-32.9399
22.9731
0.920584
-57.9179
-43.3541
15.4629
-65.9908
-26.8887
5.29465
8.46512
-15.9125
11.1136
-23.4682
13.7637
15.0239
17.5632
8.25576
8.31093
-4.75962
12.3593
-1.41862
18.0665
11.9477
-6.05544
-6.01817
-1.408
1.49261
-30.1927
17.357
7.46306
9.07736
15.3829
1.78424
12.6925
26.0478
1.12653
-13.6143
11.3017
-60.6009
-3.27975
-1.51203
-23.6377
15.494
3.81271
1.53622
3.31117
4.43419
19.3157
-54.6842
-0.207057
15.4282
-53.0939
21.3394
17.4927
20
5.5572
11.3705
5.42761
5.67334
11.6056
15.2081
-13.134
1.91762
-31.5853
-8.68763
-67.9438
15.5108
-25.3059
-17.83
-62.2256
-6.99883
-8.38854
15.6224
-3.08291
3.17265
-32.6839
15.3997
25.724
-42.3785
-51.1968
9.84052
-3.99194
15.4005
-0.585207
-11.4661
18.0915
9.38169
24.4006
11.2223
15.3535
-3.89505
19.5076
4.21815
17.5885
-8.14735
-14.9068
-1.05679
-39.4927
10.6017
-35.834
-6.19413
23.1183
15.3752
16.7256
21.1338
17.0654
18.334
-0.823802
15.8368
15.3898
15.9189
2.846
-2.07326
-6.15941
-5.98008
4.74518
16.9664
-33.7663
24.7837
-8.63908
3.7775
25.0654
21.3417
2.01055
-29.3729
15.5732
9.31072
0.503678
14.4273
-33.6217
-2.7978
15.3203
20.6672
-8.47427
16.6791
19.3525
-0.161589
-3.45206
19.4567
7.69829
-34.4888
-46.1229
5.32241
-9.84169
14.6843
12.8807
-60.1785
-7.79201
-7.56028
5.15291
6.20315
5.35229
21.8119
6.68433
27.8242
15.5771
6.47469
17.2013
-55.6956
-33.9733
-63.2046
15.5188
-8.91116
-32.9169
-15.5681
8.65362
10.2068
-17.2513
10.9008
-33.2202
8.97346
-0.955315
-23.8966
12.842
5.47259
19.4758
15.8297
16.354
14.9367
2.13806
-11.6554
-8.08934
4.89763
-24.9898
1.23031
12.6639
-22.4077
-2.14571
-43.6853
0.527185
-65.3947
11.591
8.76533
4.01097
-8.95359
8.38085
-6.05956
-11.4662
2.69288
-47.5824
16.6618
12.0728
19.2804
-34.0428
14.1467
3.62061
20.8242
2.54617
9.26474
2.74055
0.55076
23.9301
24.8635
12.7487
8.39089
11.4216
14.2097
24.2126
10.8172
-12.5027
-64.8461
4.17522
-7.50995
-32.1091
15.3576
15.1583
-20.1538
3.99782
12.6619
14.2696
26.3075
-27.8434
12.7535
-35.7944
-2.56597
21.4636
5.55538
12.928
-16.783
7.72203
7.14049
27.3084
-58.002
-6.15225
8.80929
2.84857
-53.7451
-33.4212
3.16206
17.1219
-3.49431
8.66187
22.6019
20.8926
4.41438
-20.1322
-40.0111
4.61389
17.6032
14.8629
20.7056
10.137
-43.4998
21.7049
13.9313
-17.3288
11.9719
16.0047
18.8537
-50.0658
-10.3669
0.0325926
13.5125
23.7276
9.06733
1.30817
-10.0412
26.3736
-38.2529
-10.0902
24.6373
13.8501
-10.062
12.5764
-33.2031
9.48685
-10.4603
-38.8651
-14.6617
-68.041
2.83185
-5.58929
-33.9694
-36.874
-30.3538
4.05025
-35.5861
-60.1239
15.6797
14.5924
8.08605
-32.8136
5.40607
4.3725
1.8107
27.632
10.429
-6.87015
13.8513
-5.2649
-69.4296
12.5769
12.3884
15.1618
28.0129
0.282222
5.28561
-20.2848
5.08361
10.8177
14.8777
-2.65049
21.9119
11.7926
16.3327
-22.3468
-8.79456
4.45507
15.725
15.5086
16.1907
15.5368
25.7166
25.3254
-5.3164
13.9026
19.2497
-6.53764
20.7265
1.64528
24.9939
20.6167
2.75492
17.3715
8.91727
11.9111
4.67866
15.8988
-10.9251
13.6656
7.22268
10.3503
0.374993
15.2114
7.1573
4.41293
24.1756
24.0853
10.794
-33.4669
5.82831
0.683304
4.25305
13.0512
21.7303
-34.2286
15.9551
14.7995
8.41901
15.6449
-69.9563
-16.1238
-47.7299
26.2983
7.20251
-25.4615
17.7493
0.215551
4.069
8.69729
3.91279
12.4022
6.1152
-3.98263
10.157
12.4524
10.5491
11.686
25.4652
21.1351
18.6212
23.5014
23.8535
8.53778
4.50946
-0.795587
-10.2013
23.8784
-22.351
15.4059
13.9323
-58.1672
9.07017
16.9334
-28.8612
8.55903
10.9941
28.2981
-43.4969
7.71566
-15.4094
17.1584
5.44279
-35.3871
23.5293
20.2287
14.9094
15.4688
-5.75638
6.66438
-37.3436
25.2486
-3.05146
27.132
-3.22755
1.22814
-34.149
8.26008
-33.6582
2.79671
-1.77287
6.73457
-88.0445
6.66637
-41.5613
-0.128232
-14.0452
-34.426
-4.91636
-19.9967
-94.6473
8.54465
-19.6325
-53.5315
15.4722
15.7525
20.0165
15.1242
7.29752
7.17551
29.7459
15.093
-40.9748
-0.569263
1.00631
12.484
13.7597
21.9126
-9.5893
-9.64297
12.3795
-0.183698
5.67584
19.0598
-33.967
-57.127
-36.9604
25.5529
-42.1166
11.4595
19.1942
-2.91882
12.3592
7.68797
-44.725
-45.0415
1.03876
11.2744
17.8296
18.8791
-21.0625
-34.2094
10.1273
-34.1275
-6.28576
1.91639
3.2874
-10.3494
-56.4388
-46.9777
-44.2193
-17.4719
22.6625
-23.3757
24.7071
-55.1498
-8.42972
7.27604
-2.39689
21.1091
14.879
18.4027
-85.5813
-8.11775
-44.691
20.4921
-34.0597
12.0084
-19.668
18.658
21.0697
-16.5278
15.3806
23.7353
16.6239
16.4771
-21.1725
-8.35
7.49365
-10.3881
-5.10663
9.73469
10.9322
5.42863
-44.0737
5.19281
1.99039
13.245
11.3635
-4.16703
24.9126
5.25002
0.0875974
2.99762
15.0362
-18.0514
0.201542
16.4825
-4.32874
5.60305
-0.646991
15.936
15.0852
14.544
-48.2022
14.7654
17.5683
17.0874
-4.72904
3.92438
5.41116
13.4711
-9.78736
-33.7929
-53.6081
-14.8013
-33.1107
-0.310295
-1.13947
3.36916
-33.867
-6.40813
-64.6329
1.84276
-10.9966
7.11067
-49.2184
16.4
29.9457
6.94568
-12.2985
8.32544
3.82168
5.74365
1.36661
-5.63994
-60.0245
4.98999
19.7466
0.283049
23.3726
1.29214
14.5058
12.7096
7.82816
-34.1348
9.00447
25.7689
-21.0888
15.1161
14.9431
21.8362
4.51463
20.165
16.1688
-33.9119
17.1291
-43.1063
-37.6949
20.592
13.8786
-18.3701
3.80875
19.4867
1.10336
-30.2098
3.32474
3.58365
12.8129
9.42213
15.7894
14.211
13.3397
-22.3934
-5.32039
-5.01814
15.4567
27.1759
-7.27605
-36.8977
-34.2043
15.1489
5.05275
4.51448
6.94247
1.80565
12.2783
-4.48903
6.10316
24.3782
7.89515
1.47483
-18.2914
-49.8901
-11.8232
-36.2025
-17.1859
-58.7298
18.1743
9.30782
-6.61657
23.8617
-0.501105
-46.4861
-12.9323
-37.9947
16.4034
-31.1271
6.59112
15.2581
-71.9221
-4.36256
-8.38095
-40.5281
-30.8525
16.7972
-63.3193
-6.77334
-36.9158
14.9641
16.4612
-43.5959
19.0285
17.6852
22.5043
23.1584
16.7932
3.88331
26.2451
-36.4031
14.739
4.80314
-59.2422
18.5126
-51.7143
22.7063
8.63615
-12.1972
-34.3814
-32.5233
16.5369
-52.6206
-16.8087
0.0701779
-6.17984
1.09961
10.4306
4.79006
11.6839
25.525
-33.6011
-17.0102
-1.77335
15.6582
12.5631
-13.61
29.6393
-2.84478
1.21679
11.1703
-10.3136
14.7629
15.7068
17.4145
17.3278
2.46077
9.34279
14.8194
5.30996
-10.5638
-3.12628
16.45
17.1194
20.4979
-17.4937
5.3597
7.82397
10.2212
2.18321
-42.0341
13.2417
-17.4589
13.7983
15.9386
-37.0895
23.3246
-25.5131
25.2873
17.2883
-68.693
0.359644
-38.8771
8.65574
16.3374
-72.9777
20.1935
14.8664
8.08421
3.09075
5.74713
-0.29406
7.94383
-36.9132
9.83274
-28.8331
15.1145
-34.7314
1.32734
-5.38476
18.6808
21.1701
9.8545
-35.0951
8.77819
-0.260002
5.45169
9.68522
-6.20734
-12.7075
24.717
-4.12818
-5.31972
-10.2965
-38.8559
-0.446976
15.2914
-37.1143
-0.189137
16.2749
10.5102
16.5259
-54.5187
7.96759
25.0325
-21.9308
15.2602
5.98703
-6.60946
6.6916
5.37189
-0.925129
25.4421
17.327
-52.2123
24.8125
19.4595
18.6291
-34.0128
-34.6712
10.1074
-13.4257
-1.30564
-25.2444
-11.7283
-23.6982
12.4904
7.15072
9.75773
10.8139
-6.02669
11.5031
15.4681
-40.0329
15.8188
10.4991
15.2037
-0.437755
-9.65707
-44.9041
-35.9912
-52.6534
-1.36187
15.2969
-62.9289
22.7713
-56.818
14.8196
9.64762
-31.3421
4.67315
15.7914
8.62651
5.63962
13.9592
4.38796
0.892134
21.4715
18.2215
-15.1965
-29.8446
-0.638015
13.9993
2.55625
6.58622
-20.1618
2.40957
7.46567
-24.8966
13.6046
12.7526
1.75563
8.5266
2.18068
-10.6584
-65.9403
18.7122
-47.8283
15.2904
0.0963753
13.6081
16.2427
9.87286
14.4013
2.69118
-41.5761
-24.5841
-32.3076
-55.3878
-23.3622
-2.51317
-6.20905
12.8263
1.57705
14.9873
-6.68067
1.29239
-18.1823
-3.76464
16.0505
-45.1241
15.0462
5.42026
-54.6552
-2.57061
-50.696
11.3534
15.5084
-21.4989
4.15307
-32.0804
17.5343
5.99541
5.87059
-55.6584
18.8759
8.44161
-1.52737
16.3993
15.8037
18.2225
8.63744
18.8783
-22.7017
1.14118
-9.13321
14.5786
10.7727
5.5598
1.41746
-31.2691
-68.2842
9.43892
5.81177
-71.8156
24.2245
-23.6916
17.9403
11.5584
-17.6576
9.87152
2.02085
-9.2579
3.76581
3.26908
14.7195
-25.7711
15.4362
-18.9432
6.4602
-11.3092
7.34512
-34.945
18.5603
25.0776
16.7457
8.64125
3.16419
11.2751
-41.4362
0.876837
-47.571
4.74993
-18.2762
-66.6812
-38.1242
-6.1885
13.8162
14.9225
-26.3108
5.78624
17.2212
-5.57271
-16.67
16.5633
3.24165
-48.9059
2.9274
-0.485431
0.290695
23.8804
-44.2598
14.6259
-10.8287
-6.24696
-5.42332
15.0578
7.18443
12.7546
-7.50068
-8.23898
3.49569
7.21649
17.5499
13.6946
4.84258
-8.1143
-0.984939
26.0006
-12.3085
17.2049
18.5944
2.30299
8.81967
7.94639
-33.9022
-8.49799
13.8405
10.0854
14.9241
-61.5549
16.7768
3.8843
21.2479
8.29608
14.0375
18.9967
13.3002
2.85343
-54.203
6.53668
-38.385
12.975
8.39948
18.1581
3.62635
22.3763
3.83683
23.8549
-6.10437
18.814
0.578801
11.9448
-40.8567
14.849
8.3485
8.15936
22.8993
15.3905
4.12692
-5.10888
9.5424
14.6042
0.297602
-36.0257
11.4567
-4.71749
19.4435
-44.4008
22.8643
5.58077
29.7878
23.0935
11.2066
10.1116
-42.3951
3.18438
24.4753
1.83853
1.65308
1.8273
24.6855
9.10478
13.3689
21.187
-6.78582
16.5576
-0.0944051
17.8716
4.16185
16.923
15.6313
20.6443
8.43406
-32.564
6.08124
-50.6401
8.19256
2.41669
-31.8563
19.5988
21.5449
1.31644
5.43362
2.60978
19.485
12.9055
14.2232
10.387
-7.85027
-31.4616
-25.8355
15.8298
-18.5676
-5.56526
4.76574
11.407
8.28068
-5.2982
25.6778
-4.70867
22.7185
4.81945
23.9678
-5.71127
5.49334
-30.5409
4.43406
13.2361
15.1702
-4.50749
-4.68463
-4.23083
-6.70841
21.4556
-1.42337
2.42944
-8.79093
-3.45974
5.00303
18.2919
8.21311
-0.863912
-3.08061
15.3234
27.2114
-52.5384
2.80047
14.9246
0.880418
8.79894
-17.8382
10.8962
-4.00551
-34.0333
2.41341
-17.7042
-3.85776
-23.5351
-25.0968
-32.8241
2.50509
12.6981
16.2505
13.7058
26.4739
-50.3657
24.4678
-31.6312
23.3602
-72.8303
-7.8192
25.6486
7.84715
-25.2109
15.0335
9.75186
16.4071
-7.9955
-37.377
4.14987
-5.40583
-9.02754
-0.389618
-1.35341
7.50002
18.5421
-67.4222
8.01496
-18.4343
4.8235
-7.11328
-9.45505
-1.94733
-9.74336
-14.714
19.9604
2.98497
22.0047
7.05068
-44.3168
6.99028
-8.65186
-26.6728
13.6344
18.7451
26.5128
12.2963
13.8474
8.19679
-33.5929
25.7068
27.372
16.7734
-5.73041
-62.1076
-38.3713
14.3232
10.4455
7.03816
13.94
-17.4126
-14.5996
-40.66
22.5437
1.63165
3.87526
-39.1854
14.6018
7.36202
29.1525
27.43
13.9277
4.07605
7.35943
-26.3687
8.11993
28.0175
9.39115
-34.1144
11.5388
0.438926
3.53499
0.281765
-1.91164
5.48702
0.750844
8.04259
-5.53957
6.55385
20.7387
4.62274
16.1888
-41.7746
-2.48997
24.8115
-28.1923
2.77497
4.21136
8.1029
5.34054
-45.2016
2.98324
1.53091
2.2736
29.247
-34.3496
-25.6524
-27.9781
-5.14823
3.91222
4.35273
-39.9514
-23.0727
-1.20054
-25.1851
-7.67184
-9.74628
5.49783
4.99522
3.63446
28.8272
3.68118
5.92179
-4.3985
4.93209
-33.8378
-1.29693
20.7661
15.4864
6.15284
-3.2145
14.8902
16.2963
1.52152
-67.7431
-37.353
20.6494
-5.85117
14.4189
2.81071
22.68
0.628597
-44.593
1.30945
16.6674
-4.02646
14.0713
-6.92682
27.8434
-39.2255
-0.921473
-43.5848
8.7638
-48.639
-8.6377
-41.5442
4.42356
6.9577
-63.5269
-10.3003
8.77369
2.87924
-15.0237
-7.74327
12.7543
-37.3733
13.5462
-44.2392
16.8369
25.5166
14.2355
-34.6729
15.3223
4.10776
3.13608
8.0887
-3.02118
-38.3981
-30.3667
-7.18155
6.85573
2.34052
-4.99815
-0.692308
-41.0174
8.76529
15.3178
-6.7905
-49.3217
-2.06213
-10.284
-4.28307
9.9895
-21.8876
-52.2152
15.842
-7.74781
8.83694
-11.6208
-42.7461
-48.9998
-51.2067
28.5838
6.41247
-8.15534
7.12966
24.3349
24.8713
-46.7999
0.353002
15.2704
-12.1961
-37.8607
24.755
9.35954
13.3348
29.5279
-1.33126
4.93861
4.41617
22.1576
15.9473
15.6238
19.3325
11.7429
2.2365
4.95187
8.49455
4.39625
-35.6929
25.2057
-1.0977
-3.834
-3.81224
-13.1559
8.70828
-38.6484
-1.35636
3.97415
15.8638
16.6058
17.2111
-40.9211
22.0277
24.6109
-27.0266
10.4807
-6.76826
-11.8496
3.5455
10.0635
-5.67512
-5.70175
-6.62623
27.2035
-42.9579
17.432
15.5411
19.7538
11.7671
12.4302
-4.48421
1.73089
9.024
8.33944
-37.1453
-17.3107
5.28869
-34.8538
18.5065
-60.0402
-65.3725
5.11876
-33.6207
-45.1272
-37.0016
13.8014
0.113346
-79.7568
7.95633
-32.0437
6.726
-28.2651
-11.2077
16.5061
-45.303
25.3077
-4.28347
26.7203
-0.352071
-55.248
5.72301
13.829
13.3708
-23.5028
0.691732
-9.62156e-05
5.69152
11.3635
29.8926
19.7384
7.47484
-5.35876
9.24491
-0.105312
17.2069
-4.9464
10.1595
-28.1922
-39.4719
-35.5442
5.53932
2.089
-36.937
10.9342
10.6457
24.3331
26.1317
-36.2867
-38.6434
-3.97312
-9.81862
25.4291
3.97713
-2.26267
7.94447
11.9184
-25.4683
5.97539
0.346735
8.43192
13.9057
-19.744
4.77935
-40.8982
-7.08154
-21.2629
-0.98305
-21.0458
-19.0662
16.7082
-48.6337
-41.393
-3.66784
2.18289
27.5412
11.3729
14.6012
-9.67163
8.94069
1.53485
8.02078
6.26341
-40.5099
-34.54
25.3478
16.2904
2.12259
-34.1027
28.6296
-47.2036
-32.0462
-25.1238
8.76098
-51.2127
-24.9005
22.1694
1.47032
14.2367
7.59494
-31.5477
5.56844
-70.6912
8.45749
-22.2334
2.43809
6.76058
15.1591
-52.5195
-33.3326
3.82671
-5.43895
-11.1841
-10.6211
26.9976
11.0079
-70.9132
8.41656
5.79483
23.7768
9.65466
-34.1162
9.62634
19.1223
16.3182
-6.21436
14.0791
-4.88457
25.1786
1.80049
15.8965
-49.4819
-5.86174
-9.28584
-32.8535
9.46099
6.84797
-34.1759
-55.66
17.8577
-4.74215
1.10537
20.8141
12.7358
20.3063
14.4148
-8.70287
1.02939
2.70862
15.2104
0.0316689
18.5447
12.0144
24.8917
-37.1471
19.8143
7.71429
25.1703
-29.2718
-6.2982
25.6904
-39.2248
11.6699
-42.4514
22.3121
24.8045
16.5592
-16.2187
15.1705
19.3746
-13.6815
8.19964
-39.3202
20.5445
-41.7135
-11.8486
-38.1086
-37.6551
19.0385
7.80422
-35.8559
9.15789
24.7424
-3.33689
0.62403
-37.0391
-8.52424
12.8004
-4.06325
14.7709
14.5292
-35.071
27.7531
9.81557
21.4717
21.1022
4.8748
-6.23637
13.7613
-16.6564
-5.19258
13.4887
11.9398
-2.48352
14.6115
-24.872
23.1806
16.7175
7.4784
0.130898
16.6936
-14.6977
10.6643
19.7386
5.55434
-1.633
19.1609
16.2221
-6.26656
-33.522
11.803
16.9304
25.0503
-33.9817
26.4761
26.2378
26.8106
-7.43512
18.7294
-52.0406
15.4222
20.0495
19.7268
16.7785
21.7597
29.1275
13.8778
-33.9106
1.49894
-33.9978
28.923
9.33429
-6.0814
-47.285
15.0227
22.1628
14.8147
6.81432
2.15213
21.8406
-24.1967
16.2521
-50.1559
8.20854
-10.8952
4.79959
10.7758
-54.4202
-58.5849
-5.22316
-4.88332
-6.25297
18.3895
-0.0613684
3.48239
14.4467
-37.874
9.74325
-10.2584
-34.5336
-47.6883
-34.406
20.8613
22.4653
-44.348
9.25869
19.3464
18.2601
1.43833
-57.0021
16.5901
-35.1825
20.6177
-30.6418
20.0759
10.9056
4.13161
18.9405
10.9999
19.6567
6.98611
8.53378
-4.08043
-33.4927
-40.2828
-13.7111
19.3183
-52.5214
-29.8884
-43.8043
21.8698
19.4251
7.39293
11.9527
21.6002
-18.491
14.7788
-35.5426
-5.41432
14.6931
-43.9989
-42.1398
-9.69778
-36.5365
-0.693305
-70.2395
-37.6204
-37.3976
-33.6908
12.906
25.3377
27.6352
24.0865
-60.1301
16.361
-49.8874
14.3509
21.6403
4.3339
18.9965
-37.6798
6.77802
-5.08225
1.25837
20.489
-5.47364
17.1342
-39.992
-1.04804
-36.5653
17.5214
17.0189
15.2394
-43.4948
14.6221
-9.1155
-35.8833
-36.2673
6.51113
25.5185
-22.6384
-8.77473
-53.259
15.2237
14.86
8.32378
10.5446
-41.7414
21.8991
20.7708
-27.9772
-0.379274
21.2683
-41.7869
-53.8084
2.30939
19.6326
21.8292
-50.4254
11.0072
1.06608
24.9264
-35.88
-24.9546
1.24179
23.425
2.14039
-3.60662
-6.98964
20.3489
12.7205
20.2341
0.827973
-20.2611
16.8178
28.4356
-33.7196
13.6591
1.89248
-34.4078
2.04546
6.7886
-50.8564
10.7235
-25.5453
10.9249
-17.7503
-11.0699
18.6643
22.0126
14.5187
-15.4831
-22.3545
17.3815
-41.2063
7.03612
-5.59731
8.65918
-37.9032
16.7238
17.4549
1.78931
16.4123
24.6276
-12.0074
12.4716
17.3016
-36.605
10.567
-3.05492
8.71292
6.087
12.7953
0.191152
6.52583
3.34492
-19.1891
20.8198
6.5893
-1.75828
-43.1651
-4.66131
15.9664
-40.2583
26.7326
-43.9706
-34.9312
-2.65679
19.1979
17.2239
19.9983
-34.0816
23.7459
-48.4642
12.0758
0.860271
-34.7803
14.5187
8.08364
1.66233
11.0656
-35.2269
13.0999
-36.7871
-45.9607
-0.432131
-27.5115
-31.4788
13.6711
24.3016
-61.6206
-51.8805
19.167
-22.2107
22.1853
7.04511
2.5997
10.6488
15.5914
9.1761
-11.1676
5.93361
2.03879
5.92682
7.43382
-37.715
-54.915
4.95309
9.25411
2.54531
29.1012
16.3356
15.4147
22.4429
4.68227
17.0753
-31.0379
-33.1108
-55.2445
15.3031
28.5424
14.422
-7.1408
20.7978
14.2669
14.5961
-64.1467
1.87367
9.03775
26.8937
2.92243
-10.0926
20.1476
21.2561
15.9073
15.2715
18.3207
11.4259
-15.9064
-69.6853
16.6388
-33.6547
-32.4282
15.3457
-60.9094
-0.141446
5.47413
16.3393
16.8852
17.2999
1.50433
19.8965
20.3538
4.83458
17.9776
15.9207
14.9014
12.9733
10.524
8.93882
8.50791
19.1485
17.8427
2.64995
14.0071
1.33126
-65.205
24.107
18.5119
0.627273
-58.5679
0.802194
19.0484
11.2864
6.16839
-18.1747
4.39459
-21.7661
4.48695
-55.7321
0.0247398
11.295
-10.5831
-30.5156
-42.9601
22.8962
-50.2849
-29.6189
-64.2912
24.428
-14.0155
4.03634
5.19292
-37.1958
13.4012
14.6094
10.0433
21.6298
12.5168
2.50467
-33.6753
-60.7088
1.66461
17.8286
3.00666
-49.8155
-35.3686
-15.2012
-33.9502
-62.2941
-25.4026
3.9338
7.21781
15.1503
19.4476
-12.6934
-15.1301
21.6905
16.8991
-50.0299
1.43705
-32.7846
10.2229
1.46181
9.27012
13.3934
-3.67085
-15.2484
-18.8919
6.16743
-52.3772
-33.9187
5.37192
-50.8224
-36.0104
-36.8291
-65.3676
4.97218
-34.7639
8.88125
-48.0958
15.3168
13.9445
7.19045
19.4029
-71.8407
24.453
-8.88383
2.89512
-8.92769
15.297
10.0328
-33.5703
-32.838
15.7635
18.371
25.3216
-57.0048
-35.4649
-72.983
5.70467
0.405154
-42.7554
6.1867
-39.2126
9.73578
-50.3622
11.7039
3.61684
8.73633
22.3359
13.7793
-5.28357
-8.39858
-13.703
-33.74
19.8665
27.6341
-34.6283
18.2944
14.656
-0.01826
-6.18286
18.9432
18.3869
-26.8871
-11.9751
-58.8227
-71.6156
-8.06468
-40.2445
-6.43589
11.4475
-3.88294
16.9485
-45.6985
-36.5092
14.6461
-6.94168
-37.8078
3.08673
13.0176
-37.3055
-3.48467
-35.5462
-44.1505
-38.2001
25.7148
-32.7735
-0.0133006
-52.3128
16.5957
-36.2779
-5.9541
-23.366
-49.1593
-4.39269
17.1334
-0.498456
-42.0794
13.5863
-0.481846
-18.9927
-34.8633
-42.4415
11.2007
12.7892
15.4741
-32.4072
22.1592
-16.1254
0.295539
4.55547
-17.5904
-71.5219
-42.2375
-29.2396
3.73805
7.74152
-68.0245
-0.323468
-11.607
14.4386
-57.1301
15.4603
-42.2377
10.5546
-1.53435
-9.30658
0.789067
30.0496
-4.44095
-36.6526
-31.6739
-12.0365
15.2625
-28.4478
0.970455
3.12773
-34.8736
-56.8977
-33.669
-40.1046
16.3975
-38.4151
4.23864
-34.9184
1.59225
13.6757
5.51589
7.76021
-3.25246
19.5524
-36.489
-23.7834
20.941
7.67021
-36.5349
-0.344741
-38.8314
-10.8292
-1.51803
19.1768
-50.8905
8.22295
-35.2796
-34.678
-42.2907
-39.3465
-35.5101
9.32956
-11.4617
15.4318
7.57903
-52.2459
23.912
-73.1413
18.7156
21.8307
-36.7796
3.64903
16.3259
14.9907
12.1305
-27.1378
-28.6077
-26.2025
15.3487
6.14311
-13.9118
-39.7303
9.42366
18.1347
0.199898
1.64206
3.01663
20.6265
-12.4117
-14.0138
-73.3915
13.5718
4.18502
0.0733392
22.2419
18.7526
-51.9823
-47.1745
18.936
9.0361
1.61028
13.969
-8.42546
-28.7077
-29.6216
-39.5306
18.4551
16.0768
7.12833
-5.60316
-0.555736
-2.96162
16.5426
-55.2426
11.7974
19.689
21.0907
-20.951
15.5238
13.5093
16.632
17.6158
0.969046
17.7307
-0.561121
15.5012
10.3685
16.5946
-55.5601
18.8952
18.0686
14.0425
11.2937
-22.6423
11.3729
2.33424
-8.40846
20.1445
20.5476
-56.9707
19.8836
-32.8571
-33.9231
16.4177
16.5097
-21.7302
1.13289
-35.4735
-52.6505
-7.01288
-44.5258
-23.6047
-0.653925
14.161
26.822
18.8267
-14.4345
-30.4797
16.11
9.11765
-12.9793
-30.6096
-22.9652
-13.285
-33.7171
-32.2639
14.7703
-7.04664
8.30872
1.39083
1.3244
-1.77386
2.55584
4.06011
8.92379
12.0883
-7.84966
7.49572
-22.2969
-62.16
11.2667
9.56051
9.30356
4.57407
11.489
9.0479
7.88401
-5.97765
15.4877
12.9585
23.4802
15.4445
-28.3713
-0.964485
-5.5161
-20.9567
-22.3534
-69.7391
-6.98971
-52.4114
27.1607
5.32879
-0.914378
21.8894
-53.4741
-5.0538
-8.50877
-57.2109
-33.5701
5.09448
-10.2587
14.8076
-7.68209
-26.9435
1.66315
-26.4915
-8.61209
-12.9968
-24.8536
12.7217
-41.0714
-47.9684
-11.3655
7.07218
-12.2968
16.5047
22.4872
-21.8037
16.7491
9.76314
11.8772
24.6409
-54.8696
10.4632
8.93598
8.01718
21.2009
-0.349541
5.77288
-12.6591
16.256
22.5104
-47.044
-9.43679
-16.3276
-11.2257
9.2487
-25.274
-19.0541
-25.8889
7.90797
-34.8702
5.80867
6.21618
13.9022
4.48599
-33.6748
-61.3886
-12.8563
-8.71908
23.8999
26.7113
20.0263
27.9122
14.2213
17.247
16.9164
14.746
15.1815
-16.3439
15.7244
-0.936415
-33.598
21.9334
3.03115
-10.8604
25.5235
2.7071
-69.1468
9.37177
8.25475
18.4648
-31.5954
14.5449
23.8284
-53.496
-33.999
-15.4865
11.3848
-48.3491
19.2043
0.784091
18.571
15.3421
-49.9809
17.6809
-4.82899
-33.4672
-33.9134
-64.4513
18.0791
-12.5557
15.3517
8.00104
-41.6615
3.52616
-3.93156
-8.53797
-28.0094
-33.2948
18.3441
5.12908
-37.7256
-2.60541
11.2051
5.92953
-61.0703
8.97975
-28.3197
8.89712
-36.7999
10.5799
6.05335
9.50396
5.7395
14.7542
10.2384
6.46177
-36.0976
27.9025
-8.27329
-35.6446
14.8237
12.9496
-39.2516
-10.4013
-52.8258
10.108
9.28653
-10.6015
1.137
-0.417792
27.9643
-9.29883
-56.7059
2.69579
-4.28612
10.9718
-0.431447
14.2614
11.206
-46.906
10.6297
-34.9968
11.9533
7.35552
15.3894
11.7517
0.17532
0.473811
8.84883
16.6142
5.04939
5.67908
-36.048
-3.55111
-3.61333
13.8732
-35.7197
8.90271
-32.1319
18.0601
-41.1668
-0.504229
19.7031
17.9197
9.30115
-55.8118
-34.1772
16.8981
1.51109
18.7526
9.63182
1.85722
15.5933
5.65904
6.37217
2.87317
-4.51095
-15.2245
11.5248
-7.01935
20.1797
6.33188
28.3506
1.96778
6.10882
18.1653
4.16644
5.89195
16.3898
13.0801
10.286
-14.6689
-8.20194
14.7095
10.7795
7.57159
-62.6809
-4.403
-63.8319
-39.6298
-6.2199
14.2022
2.3762
13.0506
1.89461
24.3395
19.5333
7.50907
12.858
7.21006
-35.9576
14.8688
11.6963
3.29873
7.59315
18.608
16.7074
-10.5658
-45.7478
-17.2019
13.8103
8.45111
2.56993
16.376
-70.8195
14.1209
-23.6041
15.1368
8.75479
-13.6414
8.25978
17.4309
5.81443
15.5866
19.3988
4.36169
-6.46384
10.2683
0.436717
22.6712
-37.8334
20.6669
17.4907
-41.7468
-20.5811
-4.234
-4.36316
-50.6965
-37.1713
14.924
21.0152
17.1494
21.172
11.6082
19.4286
8.15277
4.42049
8.6552
4.59064
3.9507
13.1393
1.38533
22.2595
4.71506
-33.8539
12.0224
21.7174
22.8828
-55.1827
9.77152
-24.984
-33.6411
9.16326
11.3851
-49.8375
9.77435
23.3241
-33.9682
-34.4861
-54.6419
8.31055
4.23837
4.69988
14.6859
15.1507
-7.85225
-1.12826
-54.3519
-49.1958
14.8023
14.6252
15.5967
9.56246
2.3839
10.4849
5.8387
-25.8582
8.07955
13.3472
9.79187
11.6209
-4.98003
-0.985049
-45.3485
15.4769
-38.0321
5.85261
18.6438
12.9238
-15.9307
-44.0902
-64.5947
-10.3944
11.4861
5.40643
-1.93372
15.5597
12.2444
-6.56196
-4.81381
9.2668
7.79756
-49.6233
14.2715
9.31284
-6.83535
9.05588