/*--------------------------------*- C++ -*----------------------------------*\
| =========                 |                                                 |
| \\      /  F ield         | OpenFOAM: The Open Source CFD Toolbox           |
|  \\    /   O peration     | Version:  2306                                  |
|   \\  /    A nd           | Website:  www.openfoam.com                      |
|    \\/     M anipulation  |                                                 |
\*---------------------------------------------------------------------------*/
FoamFile
{
    version     2.0;
    format      ascii;
    arch        "LSB;label=32;scalar=64";
    class       surfaceScalarField;
    location    "6";
    object      phi;
}
// * * * * * * * * * * * * * * * * * * * * * * * * * * * * * * * * * * * * * //

dimensions      [0 3 -1 0 0 0 0];

oriented        oriented;

internalField   nonuniform List<scalar> 
20045
(
0.770864
-0.851626
0.0807622
-1.62239
0.604635
1.01775
0.458985
2.72374
-3.18273
-0.640864
0.902481
-0.261617
-1.28427
1.25174
0.0325262
-0.856925
3.252
-2.39508
-1.49994
0.663737
0.836204
0.102274
0.665243
-0.767517
0.719953
0.648045
-1.368
-1.186
-0.203116
1.38912
-0.365862
-0.157323
0.523185
3.418
-1.66222
-1.75578
0.571749
-0.575156
0.00340657
-1.88203
1.57017
0.311863
-0.516137
1.62553
-1.10939
-1.6094
0.423402
-0.00758483
-0.119511
0.127096
1.15754
-1.42336
0.265819
-2.61286
3.805
-1.19214
-1.13425
0.0461571
1.0881
-0.691096
0.475326
0.21577
0.195719
0.37603
-0.229434
-1.39295
0.979564
1.62363
-2.6032
1.25635
0.270795
-1.52714
-1.70145
2.68102
0.0570499
-0.0631541
0.00610419
-1.78384
3.32889
-1.54505
2.73037
0.0310069
-2.76138
-3.22954
1.61003
1.61951
-0.790344
0.351677
0.438667
2.25014
-1.57059
-0.679542
-1.18785
2.33002
-1.14218
3.1967
-1.78798
-1.40872
-0.85691
0.959184
2.54114
-1.1762
-1.36494
-0.672272
3.41314
-2.74086
-0.102393
0.611605
-0.509212
-1.56536
-1.44981
3.01517
0.934289
0.773182
-1.70747
0.0726616
0.646386
-0.719048
0.267292
-0.369752
0.10246
3.97838
-3.96658
-0.0118001
2.21477
-0.797193
-1.41757
1.00193
1.21284
1.57436
1.84364
-0.21494
0.27064
-0.0556995
1.53075
1.10607
-2.63682
3.37508
-4.04735
0.22161
2.70577
-2.92738
1.95294
-3.29335
1.34041
2.96901
-3.20485
0.235842
-1.69107
-1.33091
3.02199
-0.138725
-0.471293
0.610018
1.90836
-1.00154
-0.906817
-1.06105
-0.223223
0.422702
1.46699
-1.88969
3.68638
-1.3428
-2.34358
1.4003
-2.58815
-0.597345
0.342804
0.254541
-0.501635
-0.00249814
0.504133
-0.851451
0.254107
0.94327
-2.63112
1.68785
-0.342256
-0.34884
2.07868
-0.20224
-1.87644
-1.39669
2.93274
-1.53605
0.333251
-0.856722
0.523471
-1.01838
0.207574
0.810807
1.29937
-0.57942
3.23315
-2.8967
-0.336449
0.757809
-0.424558
0.439035
1.46933
-0.403393
-1.54756
1.95095
0.0757004
-0.15272
0.0770194
-0.916835
1.8658
-0.948961
1.75613
-1.33343
-2.64677
1.72993
0.640306
-1.15644
0.066694
-0.296337
0.229643
-1.09891
-0.632806
1.73172
1.45137
1.55676
-3.00813
1.34951
-1.08291
-0.266599
2.24569
-1.30241
-3.86235
0.758683
3.10367
0.0173216
0.753542
-0.781568
0.94531
-0.163741
0.708576
-1.8375
1.12893
-2.40542
0.0970093
2.30841
1.52954
0.256596
-1.78613
-1.27529
1.12323
0.152066
-2.30793
-0.225386
2.53331
1.11516
-0.196324
-0.918832
0.622056
-0.906344
0.284288
-0.275149
-1.20763
1.48278
0.911424
-0.968236
0.0568124
1.94994
0.83976
-2.7897
0.0225112
0.0345387
-0.198236
0.850085
-0.651849
1.8531
-0.918807
0.0114395
-0.0890501
0.0776106
1.75559
0.785547
-0.712214
-1.16982
0.679103
-0.877339
0.935812
2.75057
-0.00174749
-0.779821
0.0107716
0.000667859
0.65925
1.81119
-2.47044
2.6269
-1.15989
-1.46702
-0.148246
-0.719086
0.621502
0.0975845
-0.407447
0.508684
-0.101237
1.95035
-1.34491
-0.605433
-0.766461
0.627736
2.13508
-2.85752
0.722436
-0.300729
0.521425
-0.220696
0.0818138
-0.493719
0.411905
1.70564
-0.449295
2.28824
0.908468
-1.77259
1.3692
0.542024
-4.94788
4.40586
1.22381
-0.0662676
-0.617867
0.116232
-1.20012
0.976176
0.223939
1.06154
0.148876
-0.900517
0.751642
3.29993
-0.330919
1.70671
-2.17188
0.465166
2.37804
0.286752
-2.66479
-2.8554
2.2361
0.619299
-0.155655
-1.8939
2.04955
3.51006
-0.21013
0.160039
0.110601
0.0133407
-0.047051
0.0337103
-0.0802963
0.0464929
0.0338034
1.71278
1.20052
-2.9133
1.81007
-1.71744
-0.0926295
-0.513805
0.180192
0.333614
-0.508446
-0.210641
5.3869
-4.84487
-0.996782
1.06503
-0.0682432
1.85971
-3.20947
1.34976
0.605232
-2.2963
1.68602
0.743466
-2.42948
0.933251
-2.03216
3.36028
-0.528375
-2.83191
1.25137
-2.65314
1.40177
5.54043
-3.33807
-2.20235
-0.277968
0.5959
-0.317933
-0.0155801
3.03779
-3.02221
2.93154
-0.201169
-2.47657
0.0809184
2.39565
-1.43967
1.26202
0.177655
2.62656
-1.17519
0.466007
0.883506
-1.88887
2.29574
-0.406872
-2.38502
2.844
0.0373751
-0.590736
0.553361
-0.254666
0.417648
-0.162982
-0.0524527
-0.577463
0.629915
2.91902
-1.41682
-1.5022
4.04964
-1.93381
-2.11583
-0.684201
0.631748
1.63256
-2.54278
0.910224
0.326348
-0.0590558
-2.26904
-1.41135
1.98126
-0.569907
-1.96204
1.46406
0.497983
-0.0436387
-0.104701
0.14834
2.16289
3.37754
-0.0618303
-0.018466
-0.221519
0.23486
-2.09387
0.205002
-2.20311
2.79067
-0.587556
-1.9964
2.31175
-0.31535
-1.72507
-1.21122
2.93629
-0.257427
0.0223316
0.235096
1.26766
-1.38081
0.113146
2.5814
0.234272
-2.81567
0.0226474
-2.23926
2.21662
-1.14086
2.82687
0.609344
-1.66475
1.0554
-0.85717
2.99225
-2.54621
1.66028
0.885935
0.535535
-0.535677
0.000141607
1.29998
-3.78278
2.4828
-2.71103
0.927192
-2.00698
-0.693101
2.95762
-1.70973
-1.24789
-0.83251
0.905172
0.491862
-0.524021
0.0321591
0.412264
-4.24068
3.82842
-2.40573
3.5187
-1.11297
2.41458
-0.680223
-1.73436
0.196312
-0.741227
0.544915
0.388636
-1.43241
1.04377
0.303881
-0.669743
-1.90117
1.74551
-2.08406
-0.694429
2.77849
0.350727
0.0908612
-0.441588
0.340747
-1.7521
-0.230247
-0.560097
2.55696
-0.178926
-0.502951
0.400558
-0.5162
0.619631
-0.103431
1.1195
1.79952
-1.10311
1.49174
0.340965
0.553199
-0.894164
-2.10451
0.421495
1.68302
1.77198
0.642602
3.94036
-2.64038
1.99661
-3.43294
1.43633
0.567192
-2.59495
2.02776
0.116887
-1.25114
-1.46477
2.12402
1.93946
-2.79638
1.70032
-2.23552
0.535204
-3.51731
2.14539
1.37192
-0.115921
-1.15937
0.549867
0.445617
-0.995483
2.04653
-0.615691
-1.43083
-0.0966349
-2.09601
2.08043
-0.77924
-0.217543
1.96558
2.9967
-2.52921
-0.467483
-0.0337047
-0.422884
0.456589
1.97886
0.312356
-2.29121
0.903159
-0.472243
-0.430916
-1.13783
1.89412
-0.756288
-0.283877
0.992454
1.72914
-1.1198
-0.292815
0.766175
-0.47336
2.69253
-0.832825
0.352754
-0.0321715
-0.320582
-0.165682
-0.487682
0.653364
-0.410535
0.426912
-0.0163772
2.82013
-1.70707
-1.11306
0.797505
-3.20324
-0.454358
0.0438229
-2.65335
0.862551
1.7908
3.38117
-1.05115
0.733257
-2.93637
3.90552
-2.06475
-1.84077
-0.0534925
0.404219
0.699717
1.90851
-2.60823
-1.82292
0.395353
1.42757
-2.95859
2.96496
-0.00636753
0.757811
-2.56378
1.80597
0.0162497
-0.0310946
0.0148449
-1.41449
1.86378
-0.449294
-0.0806461
0.933366
-0.85272
-0.477187
0.176458
-0.4876
0.0801531
-2.35068
1.19079
0.00799231
-1.47438
1.46639
0.176123
-0.120823
-0.0552994
1.28183
0.968305
2.35549
-0.655176
0.0516946
-0.306361
1.98295
1.39822
-1.49826
0.0667128
1.43155
-2.07562
2.77534
1.14701
0.478512
0.0963634
0.0797594
-0.869374
-0.0641258
0.9335
0.0408319
0.494703
-1.88157
0.743738
-0.426367
0.0190856
0.407282
-2.68678
2.59448
0.0923043
-1.81342
2.57123
-0.757819
-0.562733
-0.362559
0.925292
2.2698
-2.48418
0.214378
-2.25743
-1.25988
3.86063
-2.48969
-1.37094
-0.335017
0.301312
2.89289
-2.13508
-1.25858
1.26657
-1.25454
-0.33701
1.59155
0.534757
1.34591
-1.88067
5.77224
-2.13341
-3.63882
-1.70638
0.451836
2.51533
-1.4658
-1.04953
-0.497237
2.35233
-1.85509
1.72808
-2.85497
1.12688
0.307054
0.423818
-0.730872
0.0927231
-0.0189767
-0.0737464
3.59843
-2.9015
-0.696925
-1.57201
-1.28339
2.04717
0.949521
-2.44884
-0.237943
0.387908
-0.55359
-2.95119
0.52017
2.43102
0.0136075
0.478255
-1.61795
3.33073
1.18648
1.63366
3.16233
-1.83985
-1.32249
-2.76687
2.07244
2.20295
-3.62928
1.42633
-1.866
-0.132342
1.99835
-0.717618
-0.520361
1.23798
2.24289
-0.610332
-0.610645
0.95161
2.43416
-0.0748492
-1.49574
-0.930131
5.66391
-4.73377
-0.607131
0.0909313
-0.363947
0.0711326
0.349758
-3.30835
0.668627
-0.952505
3.78734
-0.759587
0.987486
-0.2279
0.0892989
-0.730163
-1.48316
1.051
0.432164
1.03389
0.91646
0.561064
0.338639
-0.899703
1.45052
0.359551
-2.58059
-0.370599
1.71423
-0.184696
-0.62883
-1.47568
2.14837
-2.01971
-0.128661
2.01645
0.0158947
-3.38937
3.37347
2.35885
-2.58133
0.222472
-1.33599
1.06084
-0.387063
-0.126742
-0.435144
-1.87278
0.854488
-1.64783
0.793345
1.27991
1.23542
2.23333
-3.50369
1.27037
0.673801
-1.62638
0.952581
-2.91496
0.509534
0.0304608
1.0847
-1.91396
2.70308
-0.789116
-0.728408
0.939624
-0.211216
-1.19746
-0.30248
-0.398532
-0.679911
1.07844
0.315868
0.00348623
-0.319354
-1.00007
-0.439597
1.10968
1.34328
-2.45296
0.635385
-2.711
0.266803
-1.35228
0.0162901
1.40036
-0.726559
-2.03292
-0.513297
0.869143
-0.941816
0.0726725
2.71776
-1.18701
-1.37631
2.27198
-0.895665
-0.379493
0.438881
-0.0593879
2.12717
-0.0806474
3.30142
-2.78126
-1.49506
2.76588
-1.27082
1.91798
-3.43807
1.5201
1.73967
2.12096
-0.0333223
-0.00214787
0.0354702
0.278358
-2.14436
1.66443
-2.32763
0.663196
0.170308
-0.0946077
-0.213415
1.92013
0.411323
0.257304
-2.00532
2.57252
0.576315
-3.18918
-2.68661
1.59915
1.08746
1.92684
-0.322833
-1.604
2.79468
-0.524874
-1.08415
-1.4304
-1.13175
1.45526
-0.208931
0.145501
0.0634293
0.962917
-0.91676
-2.15382
1.94041
3.15724
0.821139
-2.37708
1.00077
2.89108
-0.8439
-0.86348
0.988922
-0.125442
0.0112422
-1.80425
1.79301
-2.70626
0.505495
2.20076
2.47767
-2.47767
2.90125
0.189301
-3.09055
1.13097
-0.569907
1.88756
-1.11708
-0.770483
-2.77605
2.89068
-0.114633
1.03027
-0.138437
-0.89183
0.815793
-0.318085
-0.497708
0.361054
-0.923787
-0.0488919
0.454698
-1.71328
-2.4667
2.91035
-0.443649
-0.85961
1.96929
0.0848454
0.0166024
-0.101448
-0.270343
-0.100213
0.370556
-1.1309
1.24779
3.16044
-2.66428
-0.49616
-0.255676
-1.55681
1.81248
-0.723172
0.779099
-0.0559276
0.417829
-0.851666
0.433837
-4.68571
4.13052
0.555184
0.563708
0.338773
-1.04652
0.183036
-0.0174253
-0.105262
0.122688
1.60339
1.99504
0.110214
-0.0253689
-0.205869
-0.796375
1.00224
-1.4927
2.38803
-0.895337
-0.0745237
0.368304
-0.293781
1.27756
-0.613828
6.57013
-3.86974
-2.70038
0.0580414
-1.26567
0.234615
2.34679
1.27747
0.915439
-2.19291
1.41911
-1.22617
-0.192936
-3.03398
0.557412
-1.19929
0.540045
0.659245
1.38199
1.5639
-2.94589
-1.88247
1.75013
0.194629
-2.71989
2.52526
-0.407907
0.604219
0.585603
-0.615862
0.0302587
0.0654663
-0.934841
0.194022
0.0234053
-0.217427
-2.03649
-0.616855
1.83384
-0.129943
0.42114
-0.291197
-0.398359
0.0188655
0.491484
-2.11519
1.62371
0.637101
1.596
-2.2331
1.11777
-2.11563
2.5656
-0.449969
-2.15175
1.65451
-0.00126415
-0.06189
-1.18617
-0.775869
-0.801657
0.202039
0.599618
-2.58413
1.09144
1.98067
-2.23635
1.13346
1.75762
-0.910151
0.920202
-0.0100518
1.21037
-2.82106
1.61069
0.484569
-0.830597
0.346028
3.13003
0.17139
-1.94756
-0.0488358
-0.969949
-0.0484313
0.232267
0.0220105
-0.254278
0.903011
0.0508484
-0.0665544
0.015706
2.79892
-1.41693
-4.2673
1.25045
3.01685
0.781394
0.566292
-1.34769
-1.07822
0.670318
-0.679184
-0.122473
1.12616
0.7614
-4.65926
-0.288621
0.863883
0.0052602
1.83476
1.23668
0.47755
-2.68318
2.90479
0.262405
-1.28829
1.02589
-0.26717
-2.4774
2.74457
-0.863365
0.938768
-0.0754032
0.215558
-0.472985
-1.21858
2.94666
2.75948
-1.50811
-1.21586
-0.267298
0.00819166
-1.23813
1.22994
1.18126
-2.90634
-0.311661
-1.40583
1.71749
-0.310113
0.770391
-0.460278
-1.94104
0.140906
1.80013
2.7679
-1.66183
-0.044781
0.279775
-0.234994
-0.662975
-0.0601963
0.560361
1.06249
-1.62286
0.397063
-0.489486
0.0924229
1.46946
0.772129
-2.24159
-1.32911
3.27905
0.309242
0.00662635
-0.413606
-1.73248
2.14609
4.32891
1.05799
2.69677
-2.05966
-1.07328
0.674753
0.0216155
0.0711076
-1.31878
3.52174
0.401265
-2.30223
1.90096
2.49791
-0.495219
-2.00269
-1.32058
2.05353
-0.732948
1.18968
-1.1343
-1.33747
2.47176
0.138298
-0.1248
-0.0134975
-0.851846
-1.45427
2.30611
-0.342143
0.0718004
0.120572
-0.164211
1.52067
-2.37252
-2.11028
-0.634537
2.74482
-0.176254
-1.44367
1.61993
0.118695
3.50315
-3.56
0.0568458
0.646694
-0.406293
-0.240401
0.0224639
-0.932615
0.768398
0.714382
-0.95434
0.236722
-2.40165
3.0424
-0.640743
-0.566648
0.140281
-0.666582
1.59983
-3.03217
-0.934407
-0.0263117
0.166699
-0.140387
1.59991
-0.363222
-0.627955
0.692926
-0.0649712
0.825699
-0.906345
-3.14968
1.14269
2.71938
0.532617
-0.351498
0.769327
-0.624767
1.40616
1.44413
-0.989428
-0.649296
0.0213414
-0.288138
-1.86568
0.660676
0.701683
-0.664308
-2.75695
0.0506957
-0.0274972
0.648926
-0.164357
-3.02993
0.138783
2.89114
1.51617
1.71698
0.592055
-0.198158
-0.393897
0.844961
-0.78917
-0.0557917
-1.86697
0.690771
-3.09011
1.59505
-0.0393593
0.592616
-0.553257
-0.089297
0.864719
-0.775422
3.21178
-0.00880368
-3.20297
0.546582
0.0361448
-0.582727
-0.408702
-0.791414
0.695843
-0.0737868
0.175436
-0.162308
-0.0131278
1.17375
-0.180255
-0.993494
0.0644374
0.110998
2.54535
-1.70559
-0.0890075
-0.438514
0.527521
-3.09702
0.695365
0.0499264
-0.350631
1.02973
-0.542751
0.412808
-0.176382
0.228077
0.747076
0.470171
-1.21725
1.81241
0.266272
1.23064
-0.968238
0.661804
-0.57999
0.237855
-0.966263
1.41415
0.986649
-2.4008
1.61775
-0.126004
-1.49175
-1.75092
-0.902218
-0.920058
0.0560752
0.863983
1.10379
-1.24819
0.144403
3.27627
-0.0795906
-3.19668
-0.958212
0.187116
0.771096
-1.47808
1.98674
-0.508655
1.58896
2.06392
-3.65287
0.565383
-0.567881
-0.791816
1.30016
-0.508343
0.658467
0.277688
-0.936155
-3.00573
1.54728
1.45844
-0.13321
-0.0290984
-2.53324
0.422955
0.927638
-0.562932
-0.364705
1.40668
-1.81679
0.41011
-0.267602
-0.584024
0.559507
2.94365
2.45854
-0.411391
-2.04715
-2.50227
0.386647
0.999433
-1.62826
1.92692
-3.58581
1.65889
-0.309653
0.85952
-0.0108111
-1.13846
0.932588
-0.487786
0.636662
-0.282318
-1.81979
2.10211
1.09051
1.80238
-2.19644
2.33199
-0.135554
0.0523474
0.17992
-1.88961
-0.717171
-0.365365
0.407506
-0.0421412
1.74584
-1.5633
-0.182534
-0.0231592
0.0431909
-0.0200317
-0.243167
1.64984
-2.17524
-0.435713
2.61095
-2.33119
-0.714663
3.04585
1.3947
-1.07469
-0.320011
-0.653079
0.0724376
0.580641
-0.663865
0.0842687
0.579596
-2.91716
0.135845
2.78131
0.0756956
0.575248
-0.650943
2.34719
-2.64818
0.300988
-1.49783
2.39563
0.401381
-2.79701
0.0297362
-0.395101
-0.0852164
-1.90725
1.99247
2.05758
-2.91475
-2.84076
2.47343
0.367329
0.475174
-0.0781105
1.08924
-1.75582
-0.181222
-0.70579
0.887012
-0.0307529
0.488848
-0.458095
-0.724253
2.94794
-2.22368
4.77625
-2.434
-2.34226
3.05315
-2.92248
-0.130678
2.30052
-0.939999
-1.36052
0.129753
-0.688953
0.5592
-0.87322
-0.0272974
-3.00269
2.65308
0.349613
0.167193
-3.16988
-1.9796
3.12477
-1.14517
-1.71568
-1.18582
0.593473
-0.505757
-0.0877157
-2.42261
-0.674407
-0.562765
0.376026
0.18674
0.600128
0.303031
-2.79209
2.66783
0.124262
-0.397507
-0.121326
-0.0313935
0.585421
-0.0388389
-1.77825
0.363764
0.428941
-0.507035
0.0780943
-2.52188
1.65308
0.868803
1.07984
-0.0495696
-0.771894
1.87925
0.24792
1.06659
-0.467513
1.16358
-0.696062
-0.330231
1.59789
-1.85762
1.17582
0.681804
-0.248797
0.115587
2.84736
-1.75685
2.43865
-1.22828
-0.633555
-0.508392
1.14195
1.32077
-2.11278
0.792013
1.6465
-1.82275
2.71585
-1.25284
-1.46302
-0.0169978
-1.54854
-0.309079
-2.53705
1.51174
1.02531
0.0688641
-0.881286
2.87789
-3.16413
0.74152
0.642326
-0.335273
-0.32981
-0.01554
0.440275
-0.0133631
-1.38
-1.35491
2.62643
-0.870303
-0.655442
0.331277
0.324164
0.181551
0.634242
-2.29546
-0.728397
3.02386
1.33844
0.904454
-0.00730687
-0.431888
0.439194
2.45844
-0.848565
0.120011
0.728554
2.43326
-1.01911
-1.09961
-2.95757
0.49087
-0.655259
0.0320948
0.623165
2.0414
1.86412
1.93732
-0.574614
-1.36271
2.93431
0.118849
1.77711
-2.51595
0.738834
-2.44224
-0.0392574
2.48149
-2.39555
3.0952
-0.699654
0.416568
-0.0114839
-0.405084
-0.870935
2.92852
-0.420169
0.336084
0.0840857
0.121913
-2.31835
0.118772
0.31085
-0.429622
-2.83463
3.67318
-0.838548
-0.73655
1.62198
-0.885431
3.4843
-1.53491
-1.94939
0.00173443
-1.77355
1.77182
-0.514489
-0.101373
-1.60923
3.19818
3.29051
-0.389262
3.37827
-1.46029
-0.548812
0.459805
-2.56732
0.125082
3.7784
-1.54507
-0.0918002
-3.77055
0.713852
-0.0674653
-0.196044
1.45138
-1.25534
1.63733
-0.390584
-1.24675
1.70888
-1.72894
0.0200624
-0.49227
0.0321109
0.460159
-0.608265
-1.40864
2.0169
1.06087
-0.823011
-1.29047
0.175744
1.11472
0.393346
0.777005
-1.17035
0.238825
0.354648
-3.2961
3.86737
-0.571272
-0.849372
-0.013993
1.32507
0.607798
-1.93287
1.68286
1.24356
-2.92642
0.471827
1.45501
-0.0425611
3.40284
-0.00855554
2.35393
-2.34538
-0.0430119
-0.0315118
0.0933992
0.0638347
-0.157234
2.55397
-2.41656
-0.137411
1.27427
1.44159
-0.13997
0.117689
0.0222803
-0.837605
2.39566
-1.55806
0.0284549
0.488033
-0.516488
1.91476
-2.38927
0.474508
-1.46009
-1.32529
2.78538
2.40848
-0.429628
0.861981
0.775348
-2.40923
-0.0433862
2.45262
0.84553
-2.40234
0.442228
-0.638592
0.196364
0.568951
-0.204202
-0.364748
0.127978
-0.642467
-0.210659
2.32675
-2.11609
-0.38856
3.09433
2.29176
-1.86024
-0.431523
1.87844
-1.62185
-1.54185
0.519117
1.02273
0.201197
-1.31828
0.568183
-0.225972
-0.342211
0.182654
0.409401
0.442233
2.1812
-2.62344
0.623918
0.549832
0.39192
-2.72311
-1.28851
0.505897
0.782615
-0.944312
-0.725986
1.6703
1.427
-0.679925
-2.51532
1.65571
0.986921
-0.753979
-0.232942
-0.271661
1.17396
-0.902295
-1.28687
1.34492
-1.22906
1.61732
-0.388269
-2.32551
1.32068
1.00484
-0.0673816
0.629023
-0.561641
-0.92912
0.839823
-0.320759
-4.23756
4.49756
-0.259999
-1.60759
2.02909
1.49116
-1.5288
0.0376328
0.503796
-0.371094
-0.132702
-3.74818
2.67953
1.06865
0.096498
0.571978
-0.668475
0.225927
2.00127
-2.72552
2.04001
-0.719243
-0.972566
-1.71405
-2.09666
2.0881
1.4463
0.0177562
1.05958
0.40718
-1.46676
-0.974613
0.908183
0.0664298
0.32838
-0.84637
0.51799
-0.317509
-1.43446
1.75197
-0.170248
1.9754
-1.80516
-2.21344
-0.665802
2.87924
0.133691
0.370105
2.20056
0.353407
-0.62738
3.14837
-2.52099
0.0739173
0.0686318
-0.142549
0.0164145
0.536059
-0.692543
0.156484
-0.356796
-1.9612
1.64369
0.409261
0.596112
-0.466359
1.60285
0.142989
0.0840561
-1.97795
0.0962821
0.815142
-0.0333713
0.232223
-0.198852
-1.81094
-1.57019
3.38113
-0.919359
-1.48987
-1.50039
-0.248864
1.74925
0.392009
0.525378
-0.917387
-0.00167208
3.33272
-2.13794
-1.19478
0.512856
1.94568
0.195044
1.09924
-1.7549
0.655661
-1.13148
2.65793
-1.52646
-1.67659
-0.699179
2.37577
-1.3365
0.544688
-1.15915
-0.382692
3.1703
-1.44088
-1.72942
0.446139
-0.471408
0.0252684
1.10584
0.187928
-1.29376
-0.497957
0.573652
0.303479
-0.389594
0.0861153
-0.046906
-0.0689892
-0.615212
-0.0334486
1.83781
1.33249
-2.83751
1.3877
-1.162
2.77203
0.178283
0.267857
-2.50268
0.826089
2.134
-1.85565
-0.323941
-1.85836
0.380272
0.973015
-2.95261
2.07495
-2.06371
2.4316
-0.0727441
-0.571114
-0.33523
-0.709438
-0.275569
0.985007
-0.875861
-0.0923753
2.20621
0.404904
-2.61111
0.0396929
-0.740139
0.700446
0.0485092
-2.88596
-0.717854
3.60382
2.54025
-0.193058
-2.36546
2.44831
-0.0828546
0.625211
-0.417637
-3.34861
-0.399576
-0.89066
2.74817
-0.0950949
1.17246
3.40078
-1.2766
-2.12419
-1.8297
-0.140598
1.97029
0.472382
1.48819
-1.96057
-2.05456
0.11352
-0.532572
-0.33622
0.868792
-1.39067
1.79193
0.406465
1.50912
-1.91559
-0.667346
0.433255
0.234091
-2.75446
0.293736
2.46073
1.17177
0.868242
-0.669037
1.5769
0.723623
-0.789667
-0.409623
2.4338
-2.96218
0.0906562
-1.4328
1.34214
0.43494
0.130443
1.98795
0.126004
-2.11395
1.66666
-2.82865
0.00969844
0.00655125
-1.44045
2.05541
-0.614966
-2.04319
1.95797
-0.0447647
0.804065
-0.7593
-0.627324
0.283318
0.344006
0.511231
-0.295673
-0.742698
1.74213
0.449281
-0.488641
-0.449303
0.479039
0.76454
-1.23678
0.0155524
-0.046647
-0.572089
0.550136
0.0219531
0.592406
-0.666
0.0735945
0.121036
1.74476
0.351189
-1.85158
-0.0392987
-0.793211
0.0471616
1.63024
-1.67741
0.932203
-0.996329
0.603709
-2.27558
1.67187
0.402374
1.01042
-1.41279
4.54201
-5.47214
-0.607135
-0.0718202
-2.76894
0.796778
1.82966
-2.19896
-0.316366
-3.09851
3.11441
-1.20114
0.521234
0.178442
-0.0038482
-0.174594
3.58885
-1.54745
1.93212
-0.267685
-0.670036
-0.450168
1.1202
-3.18774
1.30257
1.88517
-0.632249
0.474926
-0.354104
2.74974
0.467459
-0.27174
-1.8568
0.145263
-0.565433
0.533141
-0.391651
-0.14149
-0.378595
2.5848
-0.156631
0.4535
-0.296869
-0.259331
-3.9087
1.80162
2.10708
0.697472
0.563397
-1.26087
3.77985
-0.728295
-3.05155
-1.52113
0.784584
-2.10341
-0.0164848
1.12232
2.65076
-2.91793
1.17458
-0.516115
-1.16056
2.00609
-4.52064
2.411
2.10964
1.90866
-2.39491
0.486244
-2.04688
2.16693
-0.120055
1.16673
-1.49696
0.0395157
0.638698
0.756001
1.22577
-1.85857
-1.81592
-1.90944
1.35688
0.552556
0.694913
-2.52461
1.00465
-0.115833
-1.70709
0.353797
0.539912
3.02695
-1.01134
-2.01561
-0.984326
0.772344
-1.71666
0.457396
-2.78738
2.64678
-2.1602
1.0259
1.4
-6.2688
2.32133
3.94747
-3.41987
4.3738
-0.953928
-0.0153191
0.223328
-0.533441
-2.87041
2.0166
0.853809
2.0685
-2.93944
-3.20307
-0.0930241
3.54301
-1.61609
1.10615
0.245622
-1.35177
-0.0677006
-0.439996
0.507696
-0.752067
1.19616
1.56218
-2.38856
-3.88024
0.475749
0.585117
0.645928
1.0244
-1.67032
1.09066
-0.64504
-0.168046
-3.21125
3.37929
-0.970706
1.22212
-2.36298
-1.61064
-1.22999
2.84063
0.717782
-0.914107
-1.96009
0.624433
1.33565
-0.278156
-0.0881346
0.36629
2.32862
-2.61094
0.380856
-1.8213
1.05562
1.60345
-2.65907
-0.522031
-0.133411
-2.33961
0.662819
1.67679
-2.71155
1.25147
1.52764
-2.65912
1.87899
-1.78833
-0.236353
-0.041803
0.133153
2.36476
-1.748
2.17866
-0.430662
1.8624
0.0446559
-1.90706
-2.13935
-0.0468842
-0.712702
0.146097
2.33158
0.346424
0.092457
4.18157
0.664089
0.466882
1.45415
-0.480649
0.809029
-2.6254
-0.166697
-1.41755
2.71537
-0.806855
0.500555
0.532803
-1.03336
2.93895
0.534654
-3.4736
-0.312295
0.300811
-0.961506
-2.1286
-2.23713
-0.344196
-1.20821
2.87486
-0.95156
1.3162
-0.36464
-2.76198
0.95104
-0.800276
1.4462
-3.32498
0.29505
-1.02278
-0.842721
0.955868
-2.15086
-0.371013
3.15892
-0.410745
3.59717
0.262489
-3.85966
0.270874
0.495301
0.738099
2.90803
-2.7134
-0.00710087
-0.633906
0.918193
-1.40969
1.4764
-1.2948
-0.847943
0.602292
0.500213
-1.10251
-2.53452
0.0568496
-0.341115
2.18294
-1.84182
-0.180302
-2.18516
-1.98872
2.30107
3.72885
-1.6025
-2.12634
-0.313244
0.853289
2.46431
-1.3016
-1.16271
0.740327
-0.809316
0.116029
-0.0226293
-0.48147
0.0190263
0.462443
-0.375235
1.43482
-0.960949
3.02945
-0.0771405
-0.428617
-0.77777
-0.236496
1.01427
-0.00784476
2.33646
0.399012
1.09581
-1.49482
-1.06107
1.62143
1.20359
1.19207
-0.999008
-0.289503
1.46842
-0.525767
-0.942654
-0.0637773
-0.0264925
0.0902697
0.334884
-2.22637
1.89149
-2.62972
0.392594
0.617985
1.71187
1.0035
-0.0160844
0.756412
0.357405
-1.30897
-2.3692
1.23745
-2.85871
0.924898
-1.27455
0.143643
-1.20703
-1.65096
2.85799
-4.5293
0.320349
0.432091
-0.752439
2.88653
-2.12785
2.13791
-1.66552
0.429494
1.50206
-1.93155
0.539563
-1.07213
-1.15688
1.76184
-0.604964
0.462763
0.520183
-0.982946
-1.0888
2.76486
-1.67605
2.43249
-1.55685
-0.875636
3.93919
0.126273
-4.06546
-1.58251
-2.3262
-0.910056
-0.0598935
0.269492
3.24057
-0.0437182
0.263747
-0.220028
-1.88019
-0.459416
2.0435
1.7615
-1.49893
1.80679
-0.307867
-0.788184
0.908195
0.123025
1.10548
-1.22851
0.290488
-0.44712
-0.310502
-2.5599
-1.12564
0.966295
0.0206261
-0.80458
0.574333
0.201456
2.08274
-2.2842
-1.44019
-0.338064
2.92471
-2.28932
0.20243
-0.710876
-0.151455
0.187159
-0.0357045
0.284976
-1.03274
0.747761
1.26711
1.30412
-2.90921
2.34064
-1.06073
2.5791
-1.35697
-0.317701
-0.69928
1.01698
2.11968
0.232641
0.0711093
-1.893
1.28473
1.50696
-1.51481
-1.48228
-1.43204
2.91432
-1.76676
-1.42099
-2.98755
3.10741
-0.119857
0.37402
-1.03077
0.755197
1.58616
0.754479
-0.535178
-0.301389
0.836567
-0.086888
-2.80981
1.95586
-1.02621
-0.92965
2.04544
-0.707004
0.428058
0.0141702
1.65381
-2.61532
1.28524
-1.01445
-0.0505897
2.63361
-2.58302
1.75855
1.45551
0.827781
-2.2833
3.03106
-1.81412
-1.21694
-1.1382
-1.97792
3.26562
-1.28769
-0.518792
4.11596
-0.790068
0.773984
1.19599
2.28832
-0.602077
0.534377
0.0835676
-0.0327192
2.70623
-1.50571
1.68403
1.90481
-1.14071
0.600612
0.5401
0.631939
-1.26549
2.11429
-0.126347
2.04955
-0.943398
-1.90458
-0.294453
2.19903
0.524139
-0.0896595
-0.43448
0.411634
0.23506
0.390228
-2.78578
-0.775556
0.841022
1.9539
-1.72081
-0.233094
0.433319
1.0351
-0.416001
0.217842
0.662187
0.670848
-1.33303
-1.39814
2.79844
-0.307315
-1.58894
3.33415
-1.74521
-0.736531
1.12988
-0.305135
-0.36221
3.05413
-1.49988
-0.948953
0.384882
3.39496
0.819888
-0.859187
-0.487488
0.420106
-0.80702
-0.392128
-0.00623109
1.43418
-0.418933
2.27963
-1.86069
0.0597397
-0.077165
-1.01298
0.307192
-0.909978
-7.74385e-05
-2.07639
1.66279
0.633702
0.666457
-0.592647
-0.915712
1.50836
0.673196
0.272113
2.34293
1.33731
-3.68024
-0.27295
-0.0589876
0.331937
-3.76111
-0.506194
2.42081
1.30804
2.19072
-1.98926
-3.2967
-0.0943287
0.0522513
-0.0666584
1.29492
3.47793
-0.818618
-2.65931
1.01507
-0.0828656
-0.0893352
-0.887044
-0.253668
-1.29915
-1.251
1.4522
-2.90081
4.15126
1.58144
-1.59101
0.00956882
0.528898
0.0212383
-0.181571
0.688138
-0.0957324
2.14214
0.579808
-2.72195
0.322455
0.210686
-0.623994
0.378873
0.245122
-0.942124
0.00907423
0.93305
0.958927
1.44402
-2.40295
0.640827
0.786174
1.9256
-0.045813
-0.720648
1.56782
-0.903732
0.354212
-0.453966
0.099755
-2.24794
1.55484
2.33658
-1.86222
-0.47436
0.0441158
-0.402493
0.358378
2.40225
-2.61291
2.06247
-0.0170268
0.852169
1.28574
-0.352091
-0.040037
-0.459121
0.144936
0.314185
-1.60608
-0.344466
2.9948
-1.5318
-1.463
2.85412
0.480202
-3.33432
1.11428
-1.93735
0.823072
-0.293014
1.42895
-0.0285912
-0.979091
1.98435
-1.00526
-0.305478
-0.153643
2.29733
0.30057
0.15293
2.51561
0.00712938
-2.52274
-0.480608
-0.260354
0.226983
0.140485
-0.0227954
1.13877
0.916645
-0.659141
0.635982
0.00495188
-0.11315
-0.359545
0.357798
-1.06486
1.49436
0.0437411
0.657942
-0.0059533
-0.914286
2.19612
-0.101043
1.68249
-0.374832
-0.316668
-0.663644
1.32583
-0.554309
2.39018
-1.83587
-2.22318
-0.310058
-1.78216
2.36796
-0.585794
-0.17251
0.47308
0.839445
-0.174202
-0.0573787
-0.643176
0.700555
-2.23163
0.731745
0.3102
-0.354981
0.801754
-3.09722
0.640944
-2.37343
-0.878668
2.5023
-1.10325
1.36819
-0.697341
0.0376666
-1.72394
2.05883
-0.00226171
-0.420623
0.359538
-1.43423
-0.264254
-1.63796
1.90222
0.025968
1.49161
3.69719
-2.30749
-1.3897
-0.598852
0.192333
0.617613
0.0614612
-0.679074
-2.15991
0.411908
0.509791
0.0591593
-0.0236799
-0.341108
0.364788
0.747567
-2.52973
0.235261
1.19969
0.100701
-1.30039
-2.64923
2.09492
0.405313
0.104219
-0.509532
-0.281967
-3.95559
-0.375121
-0.0106549
0.385776
0.52701
-0.121697
-0.00680906
1.94401
-1.47218
1.61006
1.33089
-0.690064
-2.40179
0.791156
-1.80698
1.46375
0.343228
1.35738
-2.83966
-1.31749
-0.827591
2.14509
0.229612
1.0324
-0.790163
0.651726
2.99097
-0.420121
-2.57085
-0.0130937
-2.6123
3.26391
0.675271
1.21556
1.24875
-0.417813
-0.0140741
0.40327
-0.774002
-0.873831
0.0968365
-0.147579
0.0507423
0.0775293
-2.3824
2.30487
-0.135809
0.767646
-0.631836
0.430559
-1.8043
1.37374
-0.264056
-1.45339
-0.0877277
0.0302821
1.79289
-0.884555
-0.528402
1.41296
-0.937142
-1.09935
1.17663
-0.676414
0.462712
0.216545
-0.679257
-1.75181
1.15916
0.798987
-0.337843
-0.114354
0.452198
0.264615
0.856874
-1.12149
4.33333
-2.17862
-2.15471
0.0788145
-1.47177
0.449169
-3.2838
-1.31935
-1.25394
2.57329
-2.54557
0.120912
2.42466
-3.47855
-2.1112
0.0643201
-0.732047
0.758271
-0.026224
-2.91794
-0.951068
3.09321
0.988068
-0.517896
0.21168
-0.875323
-0.454264
1.24044
0.400317
0.241833
-1.0196
0.0491139
-0.400767
0.351653
-0.417447
0.139479
-0.27377
0.317886
-0.674625
1.3721
-3.64526
3.58162
0.0636376
-1.54627
0.935623
1.51097
0.533108
-0.00896901
-1.13278
0.597598
-1.258
-0.702084
-1.4284
0.522569
0.905831
-0.0791375
0.937963
-0.858825
-1.03544
1.32041
-0.216339
1.89936
2.52326
-2.12425
1.48199
-2.41913
1.1634
-1.52026
0.356863
0.282898
-0.00312316
0.00967233
-0.0118202
-2.8387
1.63166
-0.752537
3.60666
0.0404376
-0.534162
0.493725
-4.01074
1.62572
0.0300121
-0.517694
-0.509889
-0.0492231
-0.573512
0.622735
-1.46871
0.584159
-2.74679
2.43629
2.70797
-1.65235
-0.58166
0.524577
0.0570828
0.123353
0.0433457
-0.398801
-2.64995
2.33184
0.318105
-0.378688
0.319701
-0.216484
0.840518
-0.624034
1.70483
0.357636
0.148697
-0.0644347
-0.0842619
-0.687637
0.731378
0.0798893
0.0904188
1.73051
-0.979602
2.75131
0.182998
-2.55722
0.719716
2.51061
-0.0800574
-2.43056
-0.433486
-0.250825
0.684311
1.36021
-2.74021
0.0519241
1.64308
-1.695
-0.0787803
-0.0529005
0.131681
-1.83832
1.77648
0.0618467
-1.04388
1.64759
2.49035
2.2859
2.45231
-0.422588
-2.02972
0.0759562
0.499447
-0.575403
-0.194049
-0.820284
-0.0529362
-0.799558
-0.0207256
0.104491
-0.885898
0.781408
-0.228557
2.49743
-2.26887
-2.39108
0.921426
1.46966
0.74127
2.47051
0.101832
0.098693
-0.200525
1.465
0.657608
-2.12261
0.0569108
0.121531
-1.00432
2.62505
-1.62073
-2.20144
0.296862
1.748
0.743008
-2.0605
-0.00451435
-0.306153
0.310667
2.64068
-0.644943
-1.99573
0.924995
0.571644
-2.83103
1.47611
2.85518
-3.02323
-1.34384
0.294613
1.04923
-0.0953275
0.309845
0.649644
-0.959489
-0.13901
0.0244581
0.114552
-0.0258926
0.325867
-0.299975
0.859377
-0.942535
0.0831581
-1.48557
3.13938
-0.772083
0.780274
0.355342
-0.571826
0.966901
-1.42692
0.460016
-2.80622
-1.71442
-0.679673
0.0158078
0.0691024
-0.0115387
-0.0575637
1.64913
0.495942
-2.14507
0.277642
1.67626
-0.629952
-0.344661
-1.48193
0.243802
1.11882
1.20233
-2.32115
-0.0142652
-0.0530739
0.0673391
-0.0645319
0.909493
0.144234
0.170926
-0.315159
2.69301
-0.996962
-1.69604
-2.26232
0.442532
0.819269
-2.01349
0.0739395
1.93955
0.510989
-0.0996662
-0.796537
0.445906
-0.0266082
0.0362806
-1.76249
2.45476
-0.692268
0.392047
0.0754124
0.0598663
0.41546
-0.625708
0.548567
-0.694723
0.881838
-2.23367
2.13867
0.0949973
1.89926
-1.07546
-0.823796
3.08966
-1.82255
0.634475
0.144625
-0.596832
0.495595
-0.0988405
-0.984074
3.05238
-5.48638
-1.84571
0.866619
-0.637477
0.721745
0.365765
0.161245
-0.0567192
-0.0220611
2.29049
-2.3168
0.0263057
0.40455
-1.2757
0.53465
0.741046