/*--------------------------------*- C++ -*----------------------------------*\
| =========                 |                                                 |
| \\      /  F ield         | OpenFOAM: The Open Source CFD Toolbox           |
|  \\    /   O peration     | Version:  2306                                  |
|   \\  /    A nd           | Website:  www.openfoam.com                      |
|    \\/     M anipulation  |                                                 |
\*---------------------------------------------------------------------------*/
FoamFile
{
    version     2.0;
    format      ascii;
    arch        "LSB;label=32;scalar=64";
    class       volVectorField;
    location    "6";
    object      U;
}
// * * * * * * * * * * * * * * * * * * * * * * * * * * * * * * * * * * * * * //

dimensions      [0 1 -1 0 0 0 0];

internalField   nonuniform List<vector> 
13486
(
(4.39017 -0.698869 1.10259e-20)
(5.06117 0.782895 5.19465e-21)
(6.94038 -0.000883483 0)
(-6.23885 2.62585 -2.10571e-20)
(6.90839 -1.63584 4.1641e-21)
(7.16574 0.382155 -6.17641e-23)
(7.32953 -1.27867 -1.95447e-22)
(5.9525 -2.18971 -6.01498e-21)
(5.78201 -1.22631 0)
(5.94704 2.01828 0)
(-0.903416 3.62232 -1.55945e-20)
(7.64755 -0.121202 0)
(3.99747 -1.30833 -1.09594e-20)
(7.2408 1.98945 -6.83552e-23)
(7.25364 -1.26854 2.66926e-21)
(5.85857 2.11128 -3.61814e-21)
(1.21456 -0.640235 1.23456e-20)
(3.00738 -3.31746 2.07139e-21)
(6.89457 -0.0188603 6.65225e-23)
(4.89056 -0.216171 -1.11242e-20)
(-4.51647 0.125827 -7.38887e-21)
(4.04258 -1.33718 1.41187e-20)
(5.13661 0.782552 -4.16131e-21)
(8.89424 -2.89892 0)
(6.17797 1.64492 1.19227e-21)
(8.40345 -2.68536 -3.18965e-21)
(0.552258 -0.124254 1.60225e-20)
(7.08831 -0.485523 4.72625e-21)
(5.62556 -0.587672 0)
(6.66484 -1.4695 -2.90243e-21)
(-0.342696 -3.28619 -4.45734e-21)
(7.73335 -0.913022 -3.36756e-21)
(8.6304 -0.849327 5.90218e-21)
(5.83357 -0.29591 0)
(5.97772 -2.10988 0)
(4.34255 0.189495 6.17022e-22)
(3.99728 -6.28001 -4.26547e-20)
(4.78264 -2.24496 5.75671e-21)
(4.2608 5.41662 -5.92965e-22)
(5.8684 -0.745681 5.75818e-21)
(7.33333 -2.42445 0)
(3.37234 -1.62747 -1.29218e-20)
(7.32367 -0.0152132 0)
(6.15823 1.41038 -5.80235e-21)
(6.18874 1.40859 2.36024e-21)
(7.65414 -0.142085 2.22328e-21)
(-0.83871 1.42445 2.15953e-20)
(5.6806 -0.532441 -3.58342e-23)
(6.70622 -7.25506 3.26435e-20)
(7.61633 -0.0826658 2.41004e-21)
(5.97598 0.0890506 6.54237e-21)
(5.95389 2.81872 0)
(7.59648 -0.2779 -1.77121e-21)
(4.95193 -1.836 -8.34924e-21)
(4.08338 -4.24642 0)
(6.85571 -1.67344 -2.71772e-21)
(4.75514 -0.340563 -1.41279e-21)
(6.41673 3.23932 2.79798e-21)
(8.6165 -0.824043 6.85419e-21)
(-1.37233 -1.20165 0)
(-0.292651 3.8304 -1.98622e-20)
(-0.277346 -1.86047 0)
(10.2027 0.489923 -7.80656e-21)
(-4.2946 0.269137 -7.69833e-23)
(6.66332 -5.80127 0)
(1.82279 -5.26457 -1.97952e-20)
(-7.25633 2.9542 -2.24914e-20)
(4.37614 0.0802954 3.67653e-21)
(5.78947 -1.29438 -3.28447e-21)
(7.41921 -1.58311 1.40231e-21)
(-6.69883 2.93507 2.59698e-20)
(4.07204 -3.90283 -5.34712e-24)
(5.84249 -0.372991 4.26904e-21)
(-1.19166 0.154252 -9.83824e-21)
(1.46225 -4.74812 -3.31877e-21)
(4.70606 -0.309741 3.29243e-22)
(2.09279 -5.12246 6.21489e-21)
(7.24507 -1.31239 -1.06966e-21)
(-0.976754 1.6932 -1.13845e-20)
(3.04932 -4.20256 0)
(5.38769 0.18557 -1.95538e-22)
(4.92557 1.06177 -3.34481e-22)
(11.4981 0.442735 -1.70281e-22)
(7.81524 0.275643 -8.14918e-22)
(4.37656 -0.733923 -2.14778e-20)
(4.46246 4.76027 0)
(4.36639 -0.777965 -4.12026e-20)
(5.98837 0.135572 -9.98537e-21)
(5.59467 0.601862 -4.36034e-21)
(5.41878 2.79054 -4.20822e-21)
(7.92172 -0.457179 -1.57276e-21)
(6.31266 -1.90227 -3.196e-21)
(4.55915 -1.01562 2.83524e-21)
(5.01108 0.208003 2.88502e-22)
(5.53656 -1.7537 1.33604e-21)
(5.82903 -0.423023 5.29569e-24)
(0.332831 0.0693698 0)
(-7.30383 2.76208 1.4556e-20)
(5.88641 -0.729244 -1.09994e-20)
(0.753054 -0.371461 -7.17846e-23)
(4.73309 0.129443 0)
(7.15724 1.99805 -8.42434e-23)
(-6.81554 2.14311 8.29486e-22)
(4.7541 3.22382 -3.54072e-21)
(4.03707 4.54218 0)
(0.242094 0.0107501 -3.27523e-23)
(5.87783 0.160187 1.95174e-23)
(3.45608 4.97519 -1.87862e-21)
(-0.89607 1.63586 1.44752e-20)
(5.93681 -2.7192 0)
(4.73503 -2.23894 0)
(7.81132 -1.56983 -4.44483e-21)
(4.97876 -1.78485 6.7466e-23)
(5.64298 -0.498492 1.19647e-22)
(3.38478 -0.258815 0)
(4.6356 -2.21857 -5.04637e-21)
(6.10709 1.75086 0)
(5.86584 -0.272289 0)
(5.82627 -0.355284 0)
(7.91606 -6.77176 -1.1271e-20)
(4.04359 -3.17719 -7.79773e-22)
(-0.990428 4.13156 0)
(5.4447 -1.59484 0)
(3.25132 4.33091 1.42106e-21)
(5.65822 -2.0345 0)
(6.91521 2.40183 0)
(6.56575 -0.870936 1.32031e-22)
(6.45208 0.259576 2.42296e-21)
(5.27748 -0.0372595 1.98445e-22)
(6.47272 -5.24914 -4.44119e-21)
(6.38824 2.6606 5.37999e-22)
(-0.966482 1.14333 -5.49653e-21)
(1.69803 0.909436 1.54411e-20)
(-0.634525 0.168293 1.43603e-20)
(5.98846 0.043792 -1.06874e-21)
(5.70371 1.22724 -4.97579e-21)
(2.50536 1.85237 -3.10043e-21)
(5.91586 -2.68808 0)
(8.87212 -6.04608 2.65941e-21)
(6.02357 -1.79647 -2.14623e-21)
(8.315 -0.349207 -5.8421e-21)
(7.67055 -0.266289 1.43232e-21)
(7.63245 -0.495642 0)
(3.20742 -4.31155 0)
(7.2459 -0.0899018 5.26826e-22)
(11.799 -0.631537 -1.51006e-20)
(12.0319 -0.329084 7.25486e-22)
(-1.35721 3.76466 0)
(7.84293 -0.0837423 0)
(5.6073 -0.587512 0)
(6.00413 0.0498148 1.03821e-22)
(7.21212 -1.4341 0)
(5.21455 0.151216 2.04644e-22)
(4.85427 1.00804 -2.83058e-21)
(6.5057 0.909831 0)
(7.56482 0.0473355 0)
(5.65823 -2.54385 0)
(-2.62746 0.598204 -3.56212e-22)
(5.25547 -2.106 1.20259e-20)
(4.50681 2.97587 7.01025e-22)
(7.72688 0.0141597 1.25677e-21)
(5.27534 -2.0528 -1.8076e-20)
(8.72061 -0.0682467 -1.59368e-22)
(3.07606 -1.52868 5.69294e-21)
(6.05913 2.52058 0)
(7.56192 1.958 -7.33807e-22)
(6.99545 1.84577 1.46509e-21)
(1.59804 -0.44935 -1.3714e-20)
(11.9991 -0.315311 -2.03277e-21)
(-0.619714 0.157221 3.89436e-21)
(-2.83276 1.78563 4.94397e-22)
(6.48816 0.832319 1.96456e-21)
(5.98656 0.233448 -8.19748e-21)
(7.03048 -0.726716 2.16682e-22)
(5.75242 0.0294483 -1.27572e-22)
(0.317267 -1.80159 0)
(7.23788 2.91875 5.03552e-22)
(8.73462 -0.237898 8.30488e-21)
(5.87863 0.135711 -1.06558e-20)
(7.59623 -0.447424 0)
(5.9991 -0.909607 1.17702e-20)
(5.80203 -0.458666 2.40849e-22)
(7.33004 -0.664323 -8.66714e-23)
(-4.2867 2.90017 0)
(8.18179 0.504199 1.86314e-21)
(7.06618 -0.420032 -2.14298e-21)
(5.40193 -0.670721 -2.36185e-23)
(6.3396 -0.935409 -6.3471e-22)
(7.22866 -2.42921 0)
(4.27203 -2.05524 -6.75357e-21)
(7.3159 -7.15904 0)
(6.8152 -0.122134 0)
(3.90939 2.85014 0)
(4.64458 2.45631 -6.00044e-21)
(3.19733 1.66931 0)
(-1.75673 3.96087 -4.66833e-21)
(6.48756 -5.53693 9.8888e-21)
(7.50319 -0.0515895 6.5303e-22)
(4.10965 -2.03598 -2.58395e-21)
(7.4667 1.81527 -7.93769e-23)
(-0.275835 -3.4611 4.56692e-21)
(6.48078 0.297478 -7.44754e-23)
(4.69837 -2.26212 -6.67078e-21)
(6.10212 -2.56092 1.13132e-21)
(4.27886 3.23573 -7.12496e-22)
(3.3279 1.75746 2.43227e-21)
(2.53344 -4.27392 8.3538e-24)
(5.63793 -0.141546 8.63024e-21)
(4.08984 3.52359 0)
(7.96677 0.522051 0)
(6.76683 -0.486984 2.68028e-21)
(7.41365 -3.37247 6.73857e-21)
(4.93622 -0.138962 1.02166e-20)
(5.85803 0.168682 2.9935e-23)
(7.17037 0.482415 7.12278e-23)
(5.00093 -3.1815 4.98589e-22)
(6.9902 -1.3057 0)
(5.5251 2.65514 1.05989e-20)
(4.78702 -1.08918 0)
(9.20289 1.68472 0)
(1.0309 -0.458954 -2.352e-20)
(7.83981 -0.0466049 0)
(5.98389 -1.77706 5.03398e-21)
(7.90375 0.084678 0)
(7.48339 -0.178976 -1.16562e-22)
(4.11815 -1.92296 4.04434e-21)
(7.54184 0.855536 -4.94394e-23)
(1.02586 -4.65145 4.35225e-21)
(4.30241 -2.15404 8.16182e-23)
(2.30172 -0.128923 3.64742e-21)
(6.02458 -0.891117 -3.77437e-21)
(6.18446 -0.765217 4.57276e-21)
(8.45432 -0.443915 7.33906e-21)
(3.33983 -1.59809 4.42146e-21)
(-4.43417 -0.0953207 0)
(3.83993 -1.87902 4.79912e-22)
(6.0015 -0.808806 7.05135e-22)
(6.67788 -0.134968 -7.42971e-22)
(3.76394 -1.81218 1.3178e-20)
(7.19515 -0.399597 0)
(8.71265 -1.02597 0)
(5.99891 0.19463 1.26302e-20)
(6.28356 -0.475786 0)
(3.60727 -1.78916 4.38568e-21)
(2.95056 5.25496 -4.0598e-21)
(5.42373 0.200384 0)
(7.33911 -0.046569 -9.06511e-22)
(7.68025 -2.18081 9.09918e-21)
(-0.126627 -0.15572 2.34338e-20)
(6.05474 1.34386 0)
(-7.09417 4.08501 -7.82608e-21)
(3.30001 -0.174193 1.59746e-21)
(4.2396 -2.07797 6.45507e-21)
(2.97712 4.36221 0)
(3.10295 -2.49353 6.21063e-22)
(0.479441 -0.850776 5.12121e-21)
(7.81423 -0.876541 2.64673e-21)
(5.3838 -3.29287 -6.30038e-22)
(-2.51327 0.826592 3.72999e-22)
(8.6032 -1.05074 4.87486e-21)
(5.34843 0.641163 0)
(2.52757 6.06772 4.18158e-22)
(7.24382 -1.25926 -6.14928e-21)
(0.470181 -0.764063 -6.39429e-21)
(6.64778 -2.21402 -3.93439e-21)
(-4.24737 3.26069 0)
(4.34696 -2.22374 -2.26671e-22)
(-1.38993 -2.65133 -7.25284e-21)
(6.13215 -0.0138998 -5.02302e-21)
(5.90885 -2.72563 0)
(4.59686 2.49957 4.4797e-21)
(5.89459 0.171789 -2.89171e-21)
(6.72966 -1.28913 0)
(7.65391 -0.209618 1.45895e-21)
(4.18778 -1.98443 5.4026e-21)
(7.7142 -2.40847 -5.10318e-21)
(2.96498 -2.35281 0)
(4.87903 -4.82456 0)
(2.44289 3.22601 -1.69809e-21)
(11.3082 -1.44127 -8.54049e-22)
(4.82083 -4.69152 4.47326e-21)
(6.32756 -0.637776 -4.31364e-21)
(5.79575 0.234071 6.31689e-21)
(10.8998 -2.34565 -8.47287e-21)
(-2.23432 4.55645 2.52888e-20)
(-0.431232 0.507568 2.46061e-20)
(8.46459 -0.189732 6.60086e-21)
(5.51156 -0.175776 -2.60949e-22)
(7.54721 -0.434583 -4.58049e-23)
(6.01441 -0.0206362 0)
(-4.83823 0.342606 0)
(0.793348 6.78226 8.07458e-21)
(4.6236 -2.21332 5.04428e-21)
(6.00179 0.0609763 -1.04467e-21)
(5.85945 -0.644181 3.05704e-22)
(6.20692 -0.89008 0)
(6.952 -0.093674 -1.54252e-21)
(7.83962 -0.210325 -1.2751e-21)
(5.75595 0.194206 -5.78568e-21)
(7.53318 -1.60644 1.6252e-21)
(7.94277 0.298128 2.79467e-22)
(3.0383 -4.2608 3.48561e-22)
(11.7965 -1.81145 7.27824e-22)
(7.71609 -0.92346 3.17479e-21)
(10.1407 -6.80401 8.00115e-21)
(5.30775 -2.52827 0)
(2.63518 -0.524032 0)
(6.71367 -0.0947868 1.80282e-21)
(2.1132 0.702684 3.07611e-20)
(5.20756 -6.91896 0)
(6.49776 4.34483 -2.26276e-20)
(-6.5741 2.84565 0)
(6.92382 2.89146 3.98268e-22)
(7.73645 -1.45573 -4.24078e-21)
(4.4105 0.942 0)
(5.68391 1.11277 -3.03535e-21)
(1.10764 5.77145 -1.14727e-20)
(5.57967 0.590451 -3.70662e-22)
(5.6309 -0.122288 -9.50724e-21)
(4.79659 -1.87368 0)
(4.57361 -6.68034 3.52716e-20)
(1.05595 7.88433 9.38388e-22)
(5.91113 0.140065 1.3432e-21)
(4.96355 0.332804 -5.41633e-21)
(2.41669 1.81895 5.77284e-21)
(7.96783 -0.539696 2.88643e-21)
(6.71003 -1.21756 -1.26703e-20)
(6.3571 -0.628964 0)
(8.16144 -0.149104 9.32255e-23)
(6.79583 -1.24739 -2.41881e-21)
(5.98033 0.0786244 1.44489e-20)
(6.38896 -1.91435 0)
(8.16893 -0.343595 -5.47181e-22)
(4.42221 1.02457 0)
(7.37273 -1.40908 -6.28071e-21)
(5.72462 -1.64966 -3.64902e-21)
(2.56777 -1.19095 5.33579e-21)
(7.17321 -1.45239 -3.84955e-21)
(6.0421 0.536413 0)
(2.92943 5.66779 -8.39777e-21)
(4.04876 -1.64191 -3.32334e-23)
(5.00574 0.347871 5.1219e-21)
(6.8363 -1.27562 9.26388e-21)
(7.26953 -0.67895 4.51975e-21)
(-5.77301 5.09296 -2.04664e-20)
(5.7035 -0.501795 6.40896e-24)
(6.7345 -0.668677 0)
(3.25254 -1.10486 1.26348e-20)
(9.21576 1.62088 0)
(1.83577 6.40046 -8.21393e-22)
(6.61176 -0.357141 7.43121e-21)
(7.94837 -0.280951 -1.39669e-21)
(7.77339 -0.267334 1.09159e-21)
(0.147605 0.199726 -1.91906e-20)
(5.77558 0.189346 7.22945e-21)
(4.53623 0.410355 0)
(-1.20642 0.0871321 -8.5075e-21)
(6.58768 -0.874776 -2.64259e-21)
(0.417873 1.12453 -1.35121e-20)
(7.89995 -3.79211 5.27799e-21)
(7.76913 -0.0124552 0)
(7.82942 -0.269684 1.37779e-21)
(5.40182 0.447101 1.10806e-20)
(5.88335 0.199431 8.76119e-21)
(6.69263 -1.54622 0)
(5.12288 0.103946 3.31996e-23)
(6.15047 -0.776553 -6.62256e-22)
(-0.905182 0.899364 2.91166e-21)
(4.83317 -0.186592 1.42074e-21)
(6.58287 -0.769577 2.52055e-21)
(7.70754 0.0183737 -2.71852e-22)
(6.68152 -0.627835 0)
(7.47012 -0.319036 1.81085e-22)
(-6.78988 4.4909 7.75192e-21)
(7.12605 1.05578 -3.40634e-22)
(6.0002 0.0862402 5.48549e-21)
(4.7067 0.00812732 0)
(3.25186 6.85436 -1.40111e-20)
(5.6527 0.83133 0)
(9.73799 2.89276 -4.89315e-21)
(6.16229 -0.0552575 0)
(6.37346 -2.15824 -1.0371e-22)
(4.12767 -0.399917 -3.02543e-21)
(4.52844 2.10682 1.05353e-20)
(-0.729696 0.880491 -1.27579e-20)
(3.64992 -1.64857 0)
(6.77584 0.19441 -1.78186e-21)
(6.05012 0.575227 -3.33628e-21)
(0.819428 -0.536244 -7.5823e-21)
(-2.39195 -1.36868 4.85351e-22)
(5.0146 -0.201314 -1.54198e-20)
(6.86824 -1.25613 1.65338e-21)
(6.23331 0.553483 2.36986e-21)
(4.49843 -1.40913 0)
(4.25305 0.783244 5.85596e-21)
(7.57923 -5.3624 -5.1946e-21)
(-7.01058 2.9375 1.2466e-20)
(-7.10141 4.31678 -2.70437e-20)
(0.91257 -0.640802 -1.45353e-20)
(8.4152 -0.187604 0)
(0.754052 -0.590792 0)
(6.15162 3.23303 0)
(6.25529 -0.258109 0)
(2.19364 -1.3296 -1.49062e-21)
(7.38542 -1.42186 0)
(12.2496 -7.35628 0)
(5.04389 0.261271 2.12657e-21)
(8.63808 -0.231104 -8.53301e-21)
(6.60959 -0.592788 -5.95632e-21)
(5.16752 0.900301 1.7973e-20)
(6.01302 0.0945441 -1.67495e-21)
(6.95444 4.67214 0)
(7.26859 -1.0304 0)
(5.74157 0.212353 6.17e-21)
(5.96341 0.068916 1.07167e-21)
(3.99114 2.61901 0)
(-4.64361 3.06655 2.11463e-20)
(6.60153 -2.25737 4.41328e-21)
(-2.47453 0.0333921 0)
(7.21685 -0.406895 4.29771e-21)
(5.8764 0.160334 -7.11061e-21)
(1.17729 -2.43894 -2.24365e-21)
(3.24165 -1.06793 0)
(6.01453 0.587287 6.19831e-21)
(7.59122 0.433484 0)
(6.4235 -0.972808 0)
(6.56325 0.556254 -3.4177e-22)
(5.78009 0.249427 3.30511e-21)
(0.620302 -0.15746 -2.09751e-20)
(6.90898 1.81185 6.47422e-22)
(4.15766 -1.07794 -5.37943e-21)
(6.18017 -0.238856 7.45098e-22)
(6.25058 0.581105 1.85529e-21)
(7.15395 -0.467114 -1.64917e-21)
(6.85747 -2.18819 0)
(7.74496 -1.92138 4.38304e-21)
(4.1525 -0.224374 0)
(1.28174 7.14139 8.01744e-21)
(6.97524 -0.721433 0)
(4.43518 0.0909576 7.85479e-21)
(-1.7688 0.89707 -1.92706e-20)
(7.31817 -1.22084 0)
(-0.503522 0.0728986 6.44248e-22)
(7.52833 -1.14331 -4.00109e-21)
(5.25648 8.71574 -2.90546e-20)
(5.35962 -0.83764 1.4874e-20)
(4.31438 2.05702 -6.5419e-21)
(4.14326 -1.04511 -1.53178e-20)
(10.2196 2.69039 0)
(8.78063 -6.84314 1.29053e-20)
(-5.50999 5.11715 -4.90525e-20)
(6.01473 0.605481 0)
(5.5473 0.662077 4.06099e-22)
(8.06822 -0.112941 -5.16073e-22)
(8.00852 2.91852 0)
(6.00094 0.0307522 0)
(-7.16121 3.99107 0)
(0.971237 -2.08284 2.20312e-20)
(11.0349 -2.92412 1.00353e-20)
(10.9123 -0.542739 6.16011e-22)
(6.8625 2.74716 0)
(5.17091 -0.549591 1.00331e-20)
(5.79485 0.0757427 2.48368e-22)
(6.87823 1.673 -1.38072e-21)
(-5.65027 1.61515 1.48069e-20)
(5.727 0.490332 0)
(5.6382 -0.554167 0)
(2.47519 -0.428178 -8.44819e-21)
(4.43037 -1.38846 -3.81082e-21)
(5.85787 -0.577456 0)
(5.08228 -2.39899 -4.8754e-21)
(4.62431 0.144489 -4.0728e-22)
(5.74214 -0.365171 3.3941e-24)
(2.81163 -1.27239 0)
(4.92685 0.657224 -1.87885e-21)
(8.36288 -5.95322 5.95267e-21)
(7.59859 0.414395 1.25736e-21)
(5.68797 -1.7153 0)
(-0.359563 0.556794 -3.71107e-20)
(7.75772 -0.187754 1.39255e-21)
(5.99361 0.27915 1.29325e-21)
(5.24487 0.32207 2.48445e-21)
(7.71007 1.86165 0)
(5.12645 0.893486 -4.78101e-21)
(9.03501 0.980331 -3.46243e-21)
(1.06631 -0.675028 3.16355e-21)
(5.99956 0.155022 0)
(-1.79387 -1.13481 -4.98029e-22)
(1.74716 -0.312302 0)
(6.00773 0.14347 -5.03268e-21)
(5.969 0.186684 2.17641e-21)
(5.62614 0.141008 -1.20695e-21)
(-0.19049 -0.731394 0)
(7.04452 0.156182 -1.13952e-21)
(3.49738 1.21814 1.58221e-20)
(6.77667 -2.18673 0)
(4.97532 0.219655 6.53133e-21)
(7.46892 -1.70142 -1.86833e-21)
(6.57857 0.0834888 0)
(-1.27719 -2.78666 3.8737e-21)
(2.84712 -3.60582 -3.88369e-21)
(7.65718 -0.0100712 0)
(-0.948744 0.917438 2.30547e-20)
(5.5186 0.598722 0)
(5.39872 -2.46989 4.94048e-21)
(-6.5999 3.61933 1.59103e-20)
(5.52696 -0.67434 2.70868e-23)
(7.21432 0.392887 -1.64343e-22)
(4.21263 0.743472 3.0983e-21)
(5.34961 -0.919171 -5.45986e-21)
(2.96137 -1.31202 2.02764e-22)
(5.43146 -2.4367 4.69406e-23)
(6.53657 -0.768056 2.4018e-21)
(7.69507 1.84802 1.62194e-21)
(6.20477 -2.7918 0)
(5.99527 0.0613269 -4.8631e-21)
(-0.014598 0.0907533 -8.44635e-21)
(4.2215 -0.24708 0)
(5.19953 -4.39842 -7.45562e-22)
(4.16827 -1.09547 0)
(3.85682 -1.10664 1.33867e-20)
(6.27892 -2.34288 0)
(4.4252 0.0774874 -1.13168e-21)
(6.7831 -0.318869 -4.25318e-21)
(-0.119936 -3.77964 7.094e-21)
(-8.28297 4.49354 2.38264e-20)
(7.59899 -0.0472676 -3.85748e-23)
(5.14062 -2.46682 4.58187e-21)
(5.41688 -1.58972 5.39424e-21)
(4.54095 -1.03111 0)
(-1.30554 0.975327 -1.21436e-20)
(6.92095 -2.07512 -8.99092e-22)
(-1.20625 1.17151 -1.40831e-20)
(5.8246 -0.44834 7.98838e-24)
(4.48686 -1.73696 0)
(6.72137 0.023049 -2.8312e-23)
(-4.45591 3.25519 0)
(-6.54001 2.06362 7.52319e-22)
(1.61152 -2.52475 3.18433e-21)
(-3.22731 1.40991 0)
(6.20894 -1.67305 1.6043e-21)
(6.50286 -5.83329 0)
(8.0139 2.78323 0)
(5.06655 -2.40192 -6.49087e-21)
(4.5188 0.887977 4.78115e-21)
(5.20784 -5.35751 0)
(5.42452 0.519459 -3.03612e-21)
(11.037 -0.300484 1.69465e-20)
(-6.42644 4.75262 3.52299e-20)
(8.15671 3.80075 0)
(6.42214 -0.0198569 0)
(-5.194 5.04722 -2.08437e-20)
(5.64101 -0.355737 0)
(8.08031 0.342975 0)
(-0.00905606 3.65247 1.6665e-22)
(6.19087 -1.24295 -7.68278e-21)
(5.30804 -1.3088 4.59131e-21)
(8.63903 -1.33873 7.11615e-22)
(-1.58738 1.37931 2.61129e-20)
(5.95489 0.150107 2.49895e-21)
(4.66009 -1.11044 0)
(6.48172 1.34939 -9.54784e-22)
(4.36236 -0.633321 0)
(6.61299 0.11134 0)
(6.00301 0.334119 0)
(6.54698 0.53166 -2.78878e-22)
(5.6071 -0.116578 4.38566e-21)
(7.04437 -0.570052 -7.96226e-22)
(4.77034 -1.1458 0)
(0.438183 -0.0362167 -1.54073e-20)
(6.09222 3.04596 1.62119e-21)
(5.6562 -2.06401 5.16733e-22)
(4.44476 -0.169539 7.08439e-22)
(7.33102 -2.12142 7.64473e-21)
(6.08392 0.0773415 -4.12762e-21)
(-1.77787 0.677084 0)
(7.68032 -0.173868 0)
(4.35554 2.43564 0)
(3.91573 -1.7413 -9.80312e-21)
(4.95086 -6.8877 -6.67099e-21)
(0.479506 0.575139 0)
(6.54431 1.33879 0)
(7.8073 -0.215914 4.36721e-22)
(5.75568 -0.0655106 -1.17651e-21)
(5.75354 1.78073 5.17484e-21)
(6.2264 -2.57112 0)
(-4.17612 4.18028 -6.13278e-21)
(6.87689 0.203987 7.29989e-22)
(4.33285 -1.28643 -9.05246e-21)
(6.54271 0.231634 -1.64878e-21)
(6.88691 1.67985 2.17502e-21)
(9.50375 -4.97914 7.68929e-21)
(3.86274 -1.71529 1.68957e-20)
(6.16782 -4.14323 4.16765e-21)
(5.88029 -0.446604 2.73903e-22)
(5.992 0.0320061 -1.22393e-21)
(4.60327 -2.22647 -1.48668e-21)
(2.87905 -3.42848 1.92779e-21)
(5.02462 6.06856 -1.25815e-21)
(4.98129 -2.37285 2.54206e-21)
(8.61367 -0.00427512 0)
(11.7554 -1.85287 1.05448e-20)
(6.50461 -0.0115541 -4.56772e-21)
(8.53671 1.8664 1.72341e-21)
(4.24517 -1.17863 -8.24969e-21)
(5.61849 -1.99297 -5.52864e-21)
(6.21161 -0.0566807 1.14931e-20)
(7.97299 -0.236913 -6.60505e-21)
(8.15524 -1.93312 3.72518e-21)
(8.42518 -0.0600153 -3.41343e-21)
(3.62891 -0.547302 -1.79782e-20)
(6.56254 0.00397471 -3.79381e-21)
(3.58692 -0.741734 0)
(0.967112 -4.29683 -1.86908e-20)
(6.41433 0.0568826 1.04984e-20)
(3.82541 0.104957 2.16393e-22)
(-1.06285 0.145955 0)
(5.53028 -2.54854 0)
(6.08598 1.25676 4.60098e-21)
(3.25781 -0.51658 1.11506e-20)
(7.77347 -7.02689 -1.48737e-20)
(6.43037 -2.14665 -2.7814e-21)
(6.75011 -1.24164 6.94937e-21)
(9.34008 1.51481 0)
(6.09535 1.35399 2.53376e-21)
(3.11156 -3.87431 -1.83133e-22)
(7.38743 2.75686 7.3214e-22)
(5.9447 -0.829773 -6.62796e-21)
(-2.03302 1.79836 -4.21212e-20)
(7.47628 -2.26628 -7.33537e-21)
(7.83818 -2.00426 2.55165e-21)
(6.70303 3.29369 0)
(5.07312 -1.69978 -2.5422e-22)
(5.6379 0.122506 1.10373e-21)
(5.53748 0.15608 -2.2311e-22)
(3.0916 -1.5112 1.56514e-20)
(5.88842 -0.84126 9.98097e-21)
(3.46337 3.53387 9.05434e-22)
(-6.66684 4.49401 -2.03185e-20)
(6.61255 -0.417207 -1.40444e-21)
(6.56836 0.0832704 3.39783e-21)
(-2.11375 4.44317 -3.17987e-21)
(7.12824 2.73843 3.86552e-22)
(-0.0579862 0.212148 -2.50502e-20)
(3.8643 -1.87796 -5.1959e-21)
(5.47041 0.080262 0)
(4.93375 -0.399276 -1.26411e-21)
(-1.1594 3.44111 -1.28362e-20)
(4.09666 -0.482244 1.61927e-20)
(6.04171 -0.752762 0)
(8.20656 0.370212 7.38662e-23)
(3.72121 -1.49807 3.82693e-21)
(5.97928 0.107723 -1.06614e-20)
(-7.1572 5.11978 -2.10901e-20)
(5.18922 -4.84869 -1.43885e-21)
(6.64653 -0.632782 4.0869e-21)
(6.72618 0.18865 2.62233e-21)
(5.46046 -2.5003 -6.8424e-21)
(6.58375 -0.539097 1.05984e-21)
(5.14798 -6.98585 -1.8794e-20)
(6.42108 0.00491282 4.2848e-21)
(6.1495 -0.199383 -3.21438e-21)
(6.35897 0.322039 -8.63296e-23)
(7.16031 -0.0236023 -6.94218e-21)
(3.60813 -1.56109 -7.38712e-21)
(5.91173 -0.426047 0)
(-0.575427 -2.4906 1.65183e-20)
(6.39322 0.0794479 7.93604e-22)
(1.33797 -2.23978 -4.36446e-21)
(7.47469 0.062993 6.43596e-23)
(6.5844 -1.27918 -4.19311e-21)
(5.9985 0.0508337 -8.42348e-21)
(6.27487 0.943501 1.40824e-21)
(-4.63609 3.41556 -2.17357e-20)
(7.98507 0.314425 0)
(1.97495 6.94707 7.32702e-21)
(7.98576 -0.20244 1.43153e-21)
(4.51187 -1.69196 0)
(6.36347 0.272492 2.70035e-21)
(8.37838 -0.0590599 2.03943e-21)
(7.76211 0.24502 3.59679e-25)
(7.64976 -2.73231 -1.00728e-22)
(3.45954 1.27481 0)
(5.37745 1.06505 8.83973e-21)
(3.62218 1.63587 8.32748e-22)
(4.90981 -2.32183 5.55853e-21)
(6.04325 -0.56755 0)
(4.48751 0.849216 -1.38351e-20)
(4.53697 -2.4299 -1.09069e-21)
(7.41443 4.10633 -3.56772e-21)
(3.66276 -0.598224 1.75831e-20)
(8.06214 -0.0290766 1.08671e-21)
(-8.38879 4.66072 1.89203e-20)
(5.78884 -0.301001 -6.87385e-21)
(7.88976 -1.61022 -6.03556e-21)
(5.36407 0.438527 -6.3752e-21)
(6.78444 -0.0677386 0)
(5.9848 0.0716059 -4.63017e-21)
(-0.120194 -0.575154 7.204e-21)
(-1.31592 0.0698987 0)
(8.24516 -3.53773 0)
(5.54326 0.160041 0)
(1.22481 -0.688826 0)
(6.14558 0.913736 0)
(3.47097 -0.517491 0)
(5.29723 -3.2714 -1.61122e-22)
(10.8063 -1.03935 -8.19753e-21)
(7.61447 0.902297 0)
(5.25213 0.978907 1.31231e-20)
(5.83684 -3.63687 -1.04003e-21)
(6.20801 0.598142 1.12579e-22)
(-0.630773 3.67059 -5.76323e-21)
(3.50583 0.151676 -4.04327e-23)
(-5.65468 3.85507 1.833e-20)
(6.12186 0.00963738 -2.85479e-21)
(7.7249 -0.11293 3.3734e-22)
(6.07984 0.887104 -3.18129e-21)
(5.62194 0.555292 -8.66501e-21)
(5.9221 2.82192 -3.80402e-21)
(9.96252 2.92702 0)
(-3.86428 -0.00212695 1.66889e-21)
(3.89942 -1.1561 -1.46577e-20)
(6.01624 0.0343225 -1.40279e-20)
(6.9538 -2.037 -5.35808e-21)
(6.88408 -0.0530598 1.10765e-21)
(8.10249 -1.85777 3.67827e-22)
(6.40935 -1.00944 -8.90789e-22)
(6.24479 -1.6387 -5.59981e-21)
(6.05062 0.515898 3.45803e-21)
(7.19236 4.86501 0)
(2.65238 -1.56693 2.88834e-22)
(5.11961 0.193892 -1.95559e-21)
(7.37405 -1.4694 0)
(2.73931 3.3847 0)
(5.71394 -2.61339 -5.01931e-23)
(-7.96019 4.1193 2.06329e-20)
(5.42955 -3.1586 -2.77942e-21)
(8.65581 3.62517 0)
(5.69839 -0.173775 -8.99145e-21)
(5.43398 0.6226 -1.67043e-21)
(-1.41164 -2.70259 9.43707e-21)
(8.20787 0.373894 1.68011e-21)
(-6.2987 4.25391 0)
(-4.35757 0.241311 2.49389e-21)
(7.75002 0.0699745 0)
(4.98177 -1.56731 3.10417e-22)
(7.93855 -0.309797 -1.22028e-21)
(6.00069 0.0666106 -1.01827e-23)
(7.00303 1.87298 -2.58276e-21)
(8.05417 3.35502 -5.85173e-22)
(5.26397 -1.52961 1.11656e-20)
(0.771739 -4.22901 0)
(6.07875 -5.45311 -9.84278e-21)
(5.45589 -4.21968 0)
(7.76952 0.858943 -6.24327e-22)
(-2.10901 -2.26786 1.79469e-20)
(7.78968 -3.10143 7.39686e-21)
(2.4456 6.78518 -6.30185e-21)
(1.20707 -0.263015 -3.21241e-20)
(4.41272 -2.06759 -6.41985e-21)
(4.02421 -1.17308 -8.53052e-21)
(7.96512 -5.5818 2.0532e-21)
(5.98602 -5.08719 8.0497e-21)
(3.66211 -1.58108 6.05627e-21)
(4.19509 -1.26239 9.25415e-21)
(4.67485 -6.41687 8.66872e-21)
(6.38925 -5.05409 -4.67145e-21)
(5.57657 -1.7704 5.52736e-21)
(-1.46648 0.933188 1.37321e-20)
(7.03597 -0.173605 6.6161e-22)
(6.4012 -3.68753 1.4641e-21)
(6.93457 1.19166 -9.12577e-22)
(6.80551 -1.72541 0)
(1.15057 -0.61929 -2.89731e-20)
(6.30293 -0.0179067 -5.24483e-21)
(5.98558 0.357386 0)
(7.68877 0.802861 0)
(5.03271 -4.94383 -5.8735e-21)
(8.73868 -1.77936 -7.32256e-21)
(7.16512 0.577547 -5.68596e-22)
(6.17709 -1.20703 1.00921e-20)
(5.89728 2.75456 3.4887e-21)
(5.12331 -0.0928675 7.54144e-21)
(-2.01136 -1.7964 -7.95014e-22)
(5.39621 1.81747 0)
(4.29934 -1.35971 8.82832e-21)
(-0.387403 2.33121 3.48073e-21)
(0.715217 0.0203092 2.46152e-20)
(5.24089 -2.01291 1.86034e-21)
(5.56761 -2.53293 -1.33272e-21)
(5.98379 -0.0606783 3.84399e-21)
(3.44926 4.87567 1.28432e-21)
(6.37068 -1.39012 2.92171e-21)
(-2.60899 -1.50562 -1.38324e-20)
(7.13226 0.564713 4.52708e-22)
(5.79068 0.171809 3.61273e-21)
(3.56887 -0.718484 -7.22995e-21)
(5.64442 -0.280968 5.60121e-21)
(9.37473 -2.00548 0)
(7.15859 1.03248 7.1927e-22)
(5.89717 0.135234 8.03619e-22)
(4.51981 -0.931194 -2.8379e-21)
(5.8315 4.94383 1.74652e-22)
(5.49963 -1.73169 4.10118e-21)
(5.96918 0.0361615 1.57085e-21)
(4.19699 0.342841 -1.05756e-20)
(7.27269 -1.34911 0)
(2.51797 7.59097 -1.35468e-20)
(6.62843 0.252338 2.23326e-21)
(5.34571 -0.178422 0)
(4.33456 0.0451601 6.06412e-21)
(8.079 0.376076 0)
(5.0035 4.93973 4.96206e-21)
(7.64115 -0.151603 0)
(3.26279 -1.77796 0)
(7.67726 -0.0245145 1.19064e-21)
(7.04892 0.4404 6.59792e-22)
(8.48771 0.379997 -5.39796e-21)
(5.74183 0.436374 -3.94911e-21)
(4.68196 3.0327 -2.92971e-21)
(5.97946 0.273643 -1.57697e-21)
(6.21849 0.937118 0)
(2.42924 0.777342 -2.62497e-21)
(7.32211 0.368214 3.96475e-22)
(4.92518 -1.83487 -3.62324e-22)
(6.80533 -1.7112 0)
(8.60298 1.79914 2.67075e-21)
(6.516 4.6886 1.04616e-22)
(7.14786 -0.154546 2.74811e-21)
(6.73739 -4.16547 0)
(0.602999 3.41501 1.71987e-20)
(6.12073 0.50542 0)
(6.66842 -1.18504 -1.39416e-21)
(-0.0893261 -0.0882914 0)
(8.93892 0.440391 0)
(5.21185 -3.8483 0)
(6.15929 -2.31952 0)
(-2.26583 3.87161 -2.63398e-21)
(0.923108 -2.66758 -4.82176e-21)
(5.5703 -0.116817 -6.55635e-21)
(-0.370893 -3.41844 -9.34788e-21)
(3.91025 -1.65467 0)
(2.3055 -5.49658 -7.2434e-21)
(-0.36992 -0.0722073 -2.32427e-20)
(4.85755 -2.28944 0)
(4.51337 -1.5809 -9.525e-21)
(1.22421 -3.53418 -2.41888e-21)
(6.88553 1.13631 2.29467e-21)
(7.4195 -2.49174 1.21199e-21)
(5.57646 0.51291 0)
(6.62866 -2.13036 0)
(9.69333 0.539988 2.9972e-21)
(2.34776 -2.7643 5.12394e-22)
(9.101 -7.0758 -1.39161e-20)
(5.08426 -5.08592 2.31162e-22)
(5.99247 0.0178872 3.42946e-22)
(4.89529 -0.401259 -6.68638e-24)
(6.05869 0.509827 4.92671e-21)
(2.89537 7.28396 8.40228e-21)
(5.71376 -1.60804 0)
(-1.15809 1.10642 0)
(6.43218 -0.530801 0)
(4.13171 0.37272 0)
(5.25108 -0.988458 4.01999e-21)
(8.00272 -0.28068 0)
(-0.917702 3.79541 3.31066e-20)
(8.566 -5.50634 -1.73089e-22)
(4.10044 -1.30165 -1.39624e-20)
(6.25381 -2.46052 -1.32516e-22)
(0.394661 -3.28163 -9.41578e-21)
(0.279528 2.87747 -1.52248e-20)
(6.39485 0.107575 1.24527e-21)
(-3.0743 -0.0468843 -1.45641e-20)
(2.04934 7.34531 1.48628e-20)
(7.87704 0.0130864 0)
(7.08643 -1.24287 0)
(8.5917 -6.11882 0)
(6.56345 -1.34522 2.22446e-21)
(6.8863 -5.61247 0)
(5.50263 1.76053 0)
(6.00588 0.0215219 0)
(5.35831 -1.2998 4.30971e-21)
(6.21156 0.563832 -4.74758e-21)
(8.62517 -1.2428 0)
(5.65387 -2.70374 -2.0495e-21)
(5.92765 0.553806 -4.71482e-21)
(7.37644 2.62818 -1.66656e-21)
(4.93279 -2.27744 5.80517e-21)
(5.68943 1.95965 3.13804e-23)
(3.10693 -4.20543 -3.37419e-22)
(3.05179 4.75012 1.66888e-21)
(3.97152 -1.90945 -5.30732e-22)
(7.03731 0.480045 -8.33024e-22)
(9.3466 -6.89943 -2.11074e-20)
(5.44754 0.237053 -6.24338e-21)
(6.34331 0.00482207 0)
(1.99021 -2.22926 3.35943e-21)
(5.86998 0.184289 6.47739e-21)
(3.8533 -3.69961 -1.01774e-21)
(6.38233 -0.95416 -2.59996e-21)
(3.34063 -0.583703 -1.2129e-20)
(7.06007 0.390248 1.27456e-22)
(9.02065 1.03193 5.00891e-21)
(5.99961 0.241403 0)
(13.7945 -6.59621 1.47289e-20)
(8.81656 4.71251 -5.32556e-22)
(3.93196 -2.29513 1.25704e-21)
(-5.31995 1.09975 -1.68932e-20)
(5.96485 0.0516563 3.39318e-21)
(6.12192 -0.431826 -3.07332e-22)
(7.77206 -0.0226576 -8.01648e-22)
(6.59358 -0.640096 0)
(5.34993 -0.917719 0)
(4.58708 -2.19525 7.19128e-21)
(-6.81587 4.73586 2.27809e-20)
(5.26534 0.14945 -4.19741e-23)
(5.86554 0.17925 1.29155e-20)
(12.8898 -5.86613 -3.95326e-20)
(4.4601 0.743912 0)
(5.40389 0.288484 0)
(4.87382 -1.07648 -4.84241e-23)
(7.43697 0.0777096 1.91146e-21)
(5.82316 1.82879 7.04301e-21)
(7.60412 -0.46813 0)
(5.99938 -0.204166 0)
(6.31986 -1.82687 7.83075e-21)
(5.96109 -0.510005 5.3467e-21)
(0.327389 3.79143 3.9839e-22)
(5.08603 0.0275024 0)
(9.78215 0.349447 3.76843e-21)
(6.23862 -2.51051 -1.22287e-21)
(-1.71547 3.622 -1.62593e-20)
(5.92644 -0.0721371 -7.28561e-21)
(10.1186 -0.809649 0)
(9.1547 -1.76156 5.81179e-21)
(8.26654 -5.44459 -2.18147e-20)
(-0.995329 1.93548 0)
(4.95594 0.397815 -7.92358e-21)
(5.7337 0.337243 -4.22767e-21)
(4.18342 0.186524 -3.76038e-24)
(8.0847 -0.441006 7.79773e-22)
(5.28772 5.29563 6.79323e-21)
(6.40717 0.064832 0)
(3.29736 -1.169 -7.6452e-23)
(13.5068 -7.83336 3.06212e-20)
(6.55758 0.115716 -2.45872e-20)
(6.10969 0.890489 3.76716e-21)
(1.08518 -4.12394 1.99437e-21)
(5.8815 0.0394776 -1.60502e-20)
(3.86832 3.24805 1.53612e-23)
(2.85864 5.71668 4.46881e-21)
(5.26942 -1.20454 0)
(6.89639 1.03714 5.70571e-21)
(3.59402 -1.63073 4.89481e-21)
(6.67411 -0.312036 -8.14775e-21)
(5.91455 0.131877 -5.85366e-21)
(6.27752 -1.20166 1.22436e-21)
(5.06136 -0.502229 1.45769e-20)
(6.91816 -0.146098 -7.74679e-22)
(5.36848 0.314659 3.59474e-21)
(5.42669 -4.75586 -4.09635e-21)
(8.77894 -1.22596 -7.9814e-21)
(7.25284 2.92774 -1.2611e-21)
(7.84318 -6.87051 1.16327e-20)
(6.06655 -0.100555 0)
(7.83144 -8.80812 0)
(4.43734 -0.817386 0)
(4.09336 -1.19038 1.07356e-20)
(6.0307 0.0598383 -9.36537e-21)
(5.39697 0.671287 0)
(4.6268 -0.98515 -8.42146e-21)
(5.36136 0.61106 0)
(5.28009 -0.891867 -6.62693e-21)
(4.28992 -1.8588 -5.35679e-22)
(5.65314 -1.50101 -6.06338e-21)
(6.51789 0.0623625 0)
(5.80059 0.139576 0)
(5.03251 -0.242788 -8.28464e-22)
(7.54329 0.767355 4.91853e-23)
(7.59081 -0.302318 2.46978e-21)
(6.87261 4.88271 -3.47546e-22)
(7.81726 -0.571588 0)
(5.26731 -1.95233 -3.08766e-21)
(-0.882766 0.438599 0)
(2.7163 2.20301 -5.80356e-21)
(8.12118 3.30273 0)
(6.11121 -0.442245 6.35191e-22)
(3.65485 -0.4727 4.66659e-21)
(4.63003 -0.414936 4.68618e-21)
(5.62556 -0.0861998 7.24114e-22)
(8.11154 -5.32619 -2.90408e-20)
(5.88539 -0.589033 1.349e-20)
(6.15975 0.925337 -1.12741e-22)
(7.5425 -1.71169 -4.06278e-22)
(5.97578 -1.34406 -3.08055e-21)
(-0.678389 0.094396 1.01305e-20)
(7.67313 1.25066 0)
(5.93057 0.130748 1.56618e-23)
(4.69857 -1.15705 0)
(3.0162 4.98489 -3.25452e-21)
(5.32518 -1.9513 -1.61136e-21)
(5.09156 -0.41997 -4.78681e-21)
(4.92592 0.121623 -3.68582e-23)
(7.591 0.0573391 -1.67648e-21)
(5.05566 -0.12518 9.86703e-21)