/*--------------------------------*- C++ -*----------------------------------*\
| =========                 |                                                 |
| \\      /  F ield         | OpenFOAM: The Open Source CFD Toolbox           |
|  \\    /   O peration     | Version:  2306                                  |
|   \\  /    A nd           | Website:  www.openfoam.com                      |
|    \\/     M anipulation  |                                                 |
\*---------------------------------------------------------------------------*/
FoamFile
{
    version     2.0;
    format      ascii;
    arch        "LSB;label=32;scalar=64";
    class       surfaceScalarField;
    location    "2.9";
    object      phi;
}
// * * * * * * * * * * * * * * * * * * * * * * * * * * * * * * * * * * * * * //

dimensions      [0 3 -1 0 0 0 0];

oriented        oriented;

internalField   nonuniform List<scalar> 
20045
(
0.753022
-0.817193
0.0641707
-1.59553
0.580444
1.01508
0.52645
3.10817
-3.63462
-0.618998
0.853069
-0.234071
-1.29361
1.20624
0.0873737
-0.938003
3.34266
-2.40466
-1.43501
0.502284
0.932731
0.0930336
0.656039
-0.749072
0.732387
0.606368
-1.33875
-1.22587
-0.15275
1.37862
-0.851457
-0.249355
1.10081
3.29406
-1.56134
-1.73272
0.531095
-0.539356
0.00826139
-1.87632
1.6364
0.239921
-0.395551
1.50267
-1.10712
-1.60362
0.377744
-0.185159
-0.131164
0.316322
0.386562
-0.632789
0.246227
-2.53848
3.71291
-1.17443
-1.12386
0.0706787
1.05318
-0.93924
0.740711
0.198529
0.177509
0.353586
-0.204745
-1.39078
2.66555
0.632105
-3.29765
1.21769
0.320952
-1.53864
-0.894277
3.55982
0.0820576
-0.0726564
-0.00940117
-2.02655
4.04423
-2.01768
2.38879
0.512362
-2.90115
-4.38226
2.43333
1.94893
-0.568212
0.984336
-0.416124
2.01167
-1.47797
-0.533698
-0.649004
2.25457
-1.60556
4.27436
-2.32777
-1.94659
-0.841006
0.934039
3.07211
-1.51412
-1.55799
1.64294
0.313348
-1.95629
-0.0931721
0.577035
-0.483863
-3.03738
1.53448
1.50291
0.893196
0.79204
-1.68524
0.0421195
0.673545
-0.715664
0.247512
-0.340786
0.0932743
3.52072
-3.51598
-0.00473948
2.21674
-0.823928
-1.39281
1.02814
1.1886
1.46615
1.82792
-0.0501843
-0.79018
0.840364
1.96066
0.627818
-2.58848
2.14585
-0.502901
0.390488
2.82484
-3.21532
1.95848
-3.29096
1.33248
2.75252
-1.88275
-0.869766
-1.7235
-1.1963
2.9198
-0.15452
-0.435568
0.590088
0.834582
-0.740112
-0.0944698
-1.02489
-0.268722
-0.793107
3.53555
-2.74244
2.27991
0.399139
-2.67905
2.109
-2.758
2.04546
-1.74381
-0.301656
-0.984843
-0.246392
1.23124
0.592251
1.45321
1.09818
-2.57622
1.47804
-0.573364
-0.365876
2.34237
-1.06126
-1.28112
1.78001
0.331063
-2.11107
0.294788
-0.810637
0.515849
-0.999429
0.226484
0.772945
1.27828
-0.54589
2.43069
-2.48111
0.0504193
0.698603
-0.403815
0.454093
0.380489
-0.384219
-1.55622
1.94044
0.744358
-0.510429
-0.233929
1.8439
-0.287934
-1.55597
2.30105
-3.09416
-0.0301971
1.8741
0.710501
-1.10605
1.0604
0.169414
-1.22982
0.204775
-1.77306
1.56829
1.50936
1.66228
-3.17164
1.33431
-1.04855
-0.28576
2.11041
-1.01223
-3.89945
0.620227
3.27923
0.0317442
0.721278
-0.830258
0.943348
-0.113089
0.747779
-1.80617
1.05839
-2.40019
0.0874879
2.3127
1.52259
0.255486
-1.77807
-1.23485
1.13274
0.102111
-2.02766
-0.273839
2.30149
1.09712
-0.215047
-0.882076
0.612309
-0.871673
0.259364
-0.251189
-1.20278
1.45397
0.862066
-0.934018
0.0719517
2.2681
0.405478
-2.67358
0.0761329
0.0059247
-0.151124
0.838069
-0.686944
1.82721
-0.934014
-0.205089
-0.0453898
0.250479
2.10685
0.965256
-0.656625
-1.21969
0.835718
-0.986842
-0.646317
2.92623
-0.059521
-0.770738
0.044592
-0.249681
0.645479
1.82591
-2.47139
1.52095
-2.81062
1.28967
1.01022
-0.704985
0.605772
0.0992129
-0.402457
0.502861
-0.100404
1.68967
-1.32794
-0.361732
-0.742673
0.588154
1.8238
-3.87084
2.04704
-0.259596
0.479072
-0.219476
0.0784915
-0.485772
0.407281
1.7079
-0.490207
2.9691
1.30527
-1.75758
1.37336
1.72714
-2.41245
0.685315
0.594216
-0.207654
-1.18341
0.198565
-1.16209
0.930385
0.231704
-1.51643
0.153597
-0.877469
0.723872
1.81661
0.935912
1.62982
-2.14284
0.513025
2.37831
0.299336
-2.67764
-3.62989
2.60822
1.02167
0.961203
-2.70814
1.74694
2.85158
-1.03498
0.077454
-0.867634
0.909649
-0.19361
-0.71604
-0.118901
0.112613
0.00628862
1.71503
1.19541
-2.91044
1.78465
-1.71522
-0.0694341
-0.563177
0.231824
0.331353
-0.499741
-0.205244
2.74237
-1.01523
-0.969796
1.02069
-0.0508987
1.67761
-3.40179
1.72418
0.472059
-2.19556
1.58112
0.66635
-2.24747
2.07
-1.86523
3.28066
-0.415936
-2.86472
1.41472
-2.08494
0.670222
2.90719
-1.94974
-0.957454
-0.233561
0.628105
-0.394544
-0.238115
3.35398
-3.11586
3.14853
-0.759743
-2.47705
0.0795777
2.39747
-1.43553
1.17841
0.257118
2.85405
-1.34469
0.489469
0.844843
-1.87059
2.30692
-0.436334
-2.6043
3.13075
0.0318129
-0.59338
0.561567
-0.313869
0.487078
-0.173209
-0.062295
-0.55063
0.612925
1.86448
0.527801
-2.39228
4.19536
-2.08653
-2.10883
-0.666384
0.604089
1.02444
-1.93211
0.90767
0.302445
-0.0549334
-2.52907
-1.35425
2.02073
-0.666487
-1.98008
1.42423
0.555858
-0.0485102
-0.0744093
0.12292
1.26548
1.64171
-0.0448055
-0.0740956
-0.00133639
0.910986
-2.10279
0.232205
-2.20398
2.78327
-0.579296
-1.96562
2.2189
-0.25328
-1.60232
-1.29558
2.8979
-0.0210073
1.10458
-1.08357
1.33143
-1.35906
0.0276365
2.97009
-0.112554
-2.85753
0.0113905
-2.23813
2.22674
-1.06208
2.6432
0.572571
-1.63189
1.05932
-1.87742
3.70122
-2.3947
1.60316
0.791534
0.101067
-0.0812696
-0.0197972
1.56625
-3.72066
2.15441
-3.21861
1.19206
-1.6836
-1.42356
3.8936
-2.33182
-1.56179
-0.850174
0.892293
0.48205
-0.514086
0.0320354
-1.81612
-0.424075
2.24019
-2.97355
4.13312
-1.15957
2.84232
-2.20726
-0.635061
0.239043
-0.736826
0.497783
-1.04289
-1.36638
2.40926
0.29358
-1.14504
-1.69386
2.65506
-2.26238
-0.713556
2.97593
0.335763
0.0834573
-0.41922
0.441932
-1.79618
-0.948125
0.379913
2.5701
-0.191799
-0.477067
0.383895
-0.523275
0.634652
-0.111376
-0.949446
2.81392
-2.59985
1.55697
-0.302332
0.379068
-0.0767369
-2.09305
0.404257
1.68879
0.788241
2.05408
3.91607
-2.34982
2.58114
-4.32705
1.7459
2.12614
-4.67103
2.54489
0.0895116
-1.21337
-1.47165
2.11713
1.92939
-2.8674
1.93105
-2.95281
1.02176
-4.6637
2.60511
2.05859
-0.0580069
-1.17684
0.549873
0.411447
-0.961321
2.17922
-0.731393
-1.44783
-0.230548
-2.33334
2.09523
-0.742109
-0.227687
1.93299
3.14177
-2.52485
-0.616924
-0.0278886
-0.391074
0.418963
1.95952
0.399232
-2.35876
-0.0526617
-1.16482
1.21749
-1.08845
2.62008
-1.53164
-1.32775
2.07553
1.6962
-1.12363
-0.338266
0.898797
-0.560531
2.88036
-1.20275
0.325462
-0.0306392
-0.294822
-0.537803
-0.53189
1.06969
-0.386398
0.404643
-0.018245
3.80701
-2.34528
-1.46173
0.791998
-3.76555
-0.428985
0.0425875
-2.55388
0.808004
1.74588
3.89445
-1.63988
0.728302
-2.93228
4.44426
-1.82647
-2.61779
-0.0505391
0.386302
2.65189
-1.54575
-1.10614
-1.81443
0.397216
1.41722
-2.88789
2.9046
-0.016718
1.83767
-3.84019
2.00252
0.269057
0.0992309
-0.368288
-1.3935
1.86664
-0.473145
0.0355116
0.8635
-0.899012
-0.438148
0.178552
-0.482613
0.0801564
-1.61783
-1.19279
1.09426
-2.66918
1.57492
-1.21291
1.28495
-0.0720382
1.1964
0.815263
2.76418
-0.833135
-0.222295
-0.0915738
1.75686
2.13759
-1.48033
0.0547797
1.42555
1.26364
1.38826
1.13859
0.364083
-1.32488
0.111971
-0.839972
-0.0887198
0.928692
0.100615
0.00045139
-2.77984
1.69139
0.297643
-0.926311
0.628668
-2.71814
2.63065
0.087495
-0.926465
1.14063
-0.214166
-0.608439
-0.319748
0.928187
2.27047
-2.49315
0.222687
-2.71328
-1.95042
3.73457
-2.35874
-1.37582
-0.308576
0.280687
4.05718
-2.21951
-1.62963
2.72389
-1.97656
0.84931
1.12725
2.72222
-0.791041
-1.93118
3.25004
-0.868679
-2.38137
-1.23497
-0.741582
2.4927
-1.47932
-1.01338
-0.504835
2.35903
-1.85419
-0.401255
-2.37535
2.77661
0.341135
0.834936
-1.17607
-0.343651
-0.13111
0.474761
3.73328
-3.2292
-0.504079
-2.05001
-1.57987
2.05934
1.08244
-2.48543
-0.232714
0.425188
-0.962991
1.07853
-2.2779
1.19936
0.0115085
0.470542
-1.61794
3.33296
1.57666
2.23035
4.21723
-2.52398
-1.69325
-3.08969
2.37614
2.05909
-3.49148
1.43239
-1.86029
-0.14235
2.00264
-0.779577
-0.465673
1.24525
1.65087
-0.626428
-0.579751
0.277419
1.3003
-0.142723
-1.33525
-1.68954
2.3978
-0.708262
-0.619886
0.0966106
-0.465109
0.126842
0.360293
-3.24818
0.971825
-2.29958
0.329729
-0.630883
0.810756
-0.179873
0.0726062
-0.691604
-1.46315
1.10136
0.36179
1.02029
0.669381
2.18002
-0.771661
-1.40836
1.45026
0.334396
-1.13819
2.21672
1.70344
-0.180848
-0.614496
-1.47856
3.46987
-2.97654
-0.49333
2.09336
-2.52268
1.29995
1.22273
2.36093
-2.58958
0.228653
-1.30564
1.05445
-0.37416
-0.189018
-0.360052
-1.6676
0.890689
-1.61249
0.721796
1.24739
1.2453
1.96739
-3.29891
1.33152
0.723492
-1.59901
0.875513
-2.91714
0.516954
0.0478218
1.0493
-1.58266
2.39786
-0.8152
-0.745105
0.915626
-0.170521
-1.25479
-0.180225
-0.359819
-0.67409
1.03391
0.28562
0.00425989
-0.28988
-0.924965
-0.510567
1.11414
1.34435
-2.4585
2.48314
-1.21951
0.690028
-1.3403
0.0346634
1.39838
-0.674883
-1.95322
-0.441473
0.988396
-0.905096
-0.0833
2.82468
-0.864013
-1.39015
2.23004
-0.839897
-0.346673
0.397188
-0.050515
2.17833
0.000889895
-1.26438
-1.01352
-1.50176
2.73946
-1.2377
1.78666
-3.29132
1.50466
1.73493
1.99964
-0.0639496
0.102495
-0.0385458
0.29362
-2.15391
1.85537
-2.77102
0.915652
0.258884
0.485474
-0.252099
1.88192
-1.10346
2.07528
-2.14307
4.26921
0.609304
-3.14778
-2.47249
1.33831
1.13418
1.90642
-0.31349
-1.59293
2.79851
-0.528039
-1.77715
-1.54266
-1.32344
1.87195
0.576578
-0.15658
-0.419998
0.950514
-0.879835
-2.13523
1.88313
2.76258
0.758142
-2.33206
0.941914
3.06964
-1.01031
-0.97011
0.990183
-0.0200732
0.0834667
-1.86591
1.78244
-2.70609
0.500819
2.20527
2.47453
-2.47453
-1.26359
2.42807
-1.16448
1.35796
0.822061
1.99572
-1.06682
-0.928905
-2.80302
2.92958
-0.126559
1.00008
-0.118026
-0.882053
0.785916
-0.324506
-0.46141
0.329189
-0.937628
0.654032
1.26473
-2.89436
-2.4935
2.9167
-0.423199
-0.858478
1.97262
-0.41181
0.0659003
0.34591
-0.0187858
-0.515023
0.533809
-1.12001
1.20952
4.10748
-3.18089
-0.926585
-0.243397
-1.55505
1.79845
-0.683778
0.745291
-0.0615125
0.376478
-0.825636
0.449158
-2.53481
0.92
1.61482
0.548085
0.304983
-1.0545
0.0843943
-0.2356
0.268453
-0.0328532
1.94104
1.79223
-0.180622
-0.231188
-0.140571
-0.842187
0.982757
-1.50793
2.38931
-0.881384
-0.0399641
0.416925
-0.376961
1.20831
-0.706027
1.81194
-0.649049
-1.16289
0.0387417
-1.24152
0.618989
2.3511
1.28673
0.873849
-2.16057
1.38414
-1.21865
-0.165495
-3.03594
0.558895
-1.20789
0.495165
0.712724
1.34123
2.20868
-3.5499
-1.88633
1.74398
0.195123
-2.71671
2.52159
-0.371717
0.61076
0.191266
-0.157127
-0.0341392
0.0841025
-0.924075
-0.592552
0.749747
-0.157195
-1.98349
-0.570391
1.8373
0.226276
-0.230343
0.00406645
-0.357099
0.0104262
0.493583
-2.11153
1.61795
0.778432
1.56145
-2.33988
1.36963
-2.1029
2.57867
-0.475771
-2.15422
1.64939
-0.0283538
-0.0443026
-1.15586
-0.824225
-0.759762
0.20038
0.559382
-2.59042
1.08249
1.98415
-2.22754
1.27927
1.79037
-0.911267
0.893759
0.0175079
0.688944
-3.42335
2.7344
0.443897
-0.795779
0.351882
0.983726
-2.2481
-1.87394
-0.0916778
-0.935514
-0.0639151
0.757545
-0.593445
-0.1641
1.39419
0.0214264
-0.104264
0.0828378
3.39771
-2.05648
-1.52112
2.48663
-0.965513
0.787055
0.536398
-1.32345
-1.06688
0.695165
-0.629816
-0.129946
1.34363
0.652089
-0.5993
-1.81315
0.784768
0.203627
1.83793
1.22546
0.477973
-2.72645
3.11694
0.37086
-1.37264
1.00178
-0.272163
-2.47652
2.74868
-0.67382
0.761196
-0.0873765
-1.29414
1.27313
-2.43207
2.03082
2.16602
-0.751303
-1.26449
-0.19866
0.021891
-1.2242
1.20231
1.21551
-2.81782
-0.376102
-1.37402
1.75012
-0.292801
0.810044
-0.517243
-1.93502
0.1363
1.79872
2.71184
-2.08402
-0.0576736
0.255531
-0.197857
-0.634165
-0.0496135
0.529183
1.074
-1.60318
0.397496
-0.486917
0.0894211
1.82085
1.01721
-2.83806
-1.00126
3.26936
0.282183
0.00343703
-0.970966
-1.79562
2.76658
0.88322
1.85915
2.81834
-2.0399
-1.01827
0.658447
-0.368808
0.025157
-1.32479
3.38388
0.394293
-2.29716
1.90287
2.46549
-0.416746
-2.04874
-1.44139
2.08948
-0.648094
1.1794
-1.27649
-1.24348
2.51997
0.112018
0.122811
-0.23483
-0.851507
-1.45607
2.30757
-0.561404
0.542618
0.0904712
-0.138981
1.52579
-2.3773
-2.10032
-0.643488
2.74381
-0.168329
-1.45084
1.61917
-0.220304
3.89391
-4.01748
0.123579
0.630475
-0.438982
-0.191493
-0.00779264
-0.903475
0.766276
0.687696
-0.945785
0.166208
-2.40531
3.0488
-0.643485
-0.727485
1.02513
0.641345
1.42866
-2.73517
-0.780806
0.229277
-0.238035
0.0087574
1.5907
-0.36524
-0.605282
0.665554
-0.0602714
0.991125
-0.955613
-3.51383
1.83023
2.74342
0.59924
-0.367687
0.744165
-0.59452
1.38157
2.83131
-1.56658
-0.622146
0.0168635
-0.3239
-1.81133
0.579343
0.688596
-0.656783
-2.76251
0.0564195
-0.593888
0.625488
-0.181591
-2.27835
1.71065
0.567694
2.05043
0.380253
0.547634
-0.176379
-0.371255
0.833929
-0.765911
-0.0680176
-2.37807
0.863943
-3.05956
1.5578
1.24609
-0.388178
-0.857913
-0.0325046
0.705294
-0.67279
3.16065
-0.000536529
-3.16011
0.546796
0.0381665
-0.584962
-0.406273
-0.755816
0.668853
-0.0565441
-0.209188
0.197907
0.0112806
1.1459
-0.146052
-0.999845
0.00644429
-0.215632
2.35156
-1.94608
-0.0926804
-0.407298
0.499979
-3.09812
0.692808
0.109996
-0.300668
1.13639
0.181319
0.0449576
-0.119726
-0.102569
0.7057
0.482322
-1.18802
1.14805
1.19433
1.30178
-0.930922
0.638949
-0.560458
0.201654
-0.946759
1.57991
0.326977
-1.90689
1.60217
-0.117052
-1.48512
-1.26439
-0.820547
-1.0182
0.177305
0.840894
1.18654
-1.24716
0.0606134
3.26184
-0.0792435
-3.1826
-1.06844
0.462293
0.606144
-1.48035
1.97843
-0.498077
1.77235
1.85505
-3.62741
1.10252
-1.34891
-0.80316
1.27567
-0.472511
0.616309
0.283917
-0.900226
-3.36742
2.37875
0.98867
0.204022
-0.00611502
-2.53276
0.432438
0.897508
-0.559844
-0.337664
1.44298
-1.81619
0.373211
-0.244605
-0.572587
0.504206
3.3897
2.45984
-0.41674
-2.0431
-2.5197
0.4168
1.00944
-1.62394
2.52893
-3.80124
1.2723
-0.288898
0.838771
0.0121833
-1.11663
0.976054
-0.468419
0.622016
-0.573273
-2.61207
3.18534
2.05308
2.0041
-2.19358
2.32959
-0.136009
0.573345
0.184199
-1.75655
-0.737692
-0.336595
0.373794
-0.0371987
1.36895
0.292583
-1.66153
0.103781
0.188972
-0.292753
-0.193976
1.63696
-2.3031
-0.262507
2.5656
-2.33941
-0.710853
3.05027
1.39532
-1.03952
-0.355801
-0.66698
0.0658718
0.601108
0.155136
0.0894764
-0.244612
-2.94918
0.162734
2.78645
0.0788687
0.542296
-0.621165
2.34149
-2.65659
0.315097
-1.53196
0.643247
2.44585
-3.08909
0.025102
-0.361697
0.330353
-2.83628
2.50593
1.7849
-3.66232
-2.83825
2.47399
0.364266
0.475833
-0.0783369
2.18106
-1.53972
-0.125283
-0.755271
0.880554
-0.0319918
0.48672
-0.454729
-0.502274
2.59569
-2.09342
2.00769
-1.0442
-0.963494
3.04017
-2.90894
-0.131231
2.32065
-0.859862
-1.46079
0.13134
-0.655652
0.524313
-0.838306
-0.0391627
-2.95691
2.60636
0.350556
0.165611
-3.12253
-0.713161
1.29676
-0.583599
-1.65066
-1.57854
0.540757
-0.473193
-0.0675648
-2.42313
-0.674988
-0.515899
0.337322
0.178577
-0.86256
0.809898
-2.80407
2.68585
0.118212
-0.557211
-0.0244355
-0.485994
0.589334
-0.0425381
-1.78032
0.386826
0.375939
-0.461497
0.0855573
-0.725398
0.241333
0.484065
1.06836
-0.0682792
-0.708316
2.0072
0.171128
1.04271
-0.399082
0.427403
-0.0283204
-0.252985
1.58441
-1.81319
1.17575
0.637442
0.193058
0.0109641
3.9348
-1.88171
2.91552
-2.22657
-0.706416
-0.441923
1.14834
1.77532
-3.11915
1.34383
1.64957
-1.8179
2.78068
-1.26576
-1.51493
-0.0153245
-1.53512
-0.278074
-1.48728
2.7825
-1.29522
-0.0280159
-1.0602
3.64135
-3.15572
0.732581
1.03471
-0.693572
-0.257702
0.273869
0.416373
-0.0117303
-1.4502
-1.41538
4.78996
-2.48891
-1.43465
0.917142
0.517512
0.188673
0.597243
-1.92184
-1.29148
3.21333
0.664509
0.98636
-0.00488261
-0.397619
0.402502
2.4593
-0.67561
0.230269
0.445341
1.91283
-0.332921
-1.04533
-2.971
0.477497
-0.632706
0.0337561
0.59895
1.77985
2.66441
0.934038
-1.51305
0.579016
2.9233
0.11687
1.80076
-2.52862
0.727857
-2.43533
-0.0517126
2.48705
-2.40092
3.08679
-0.685866
0.380548
-0.00884901
-0.371699
-1.74628
3.53118
-0.426121
-1.09679
1.52291
0.118708
-2.31229
0.843366
-0.314422
-0.528944
-2.84398
3.72773
-0.883755
-0.676736
1.58656
-0.90982
3.48301
-1.53611
-1.9469
-0.0235534
-1.75546
1.77901
-0.114067
-0.04306
-1.48876
3.26112
1.10383
-2.36742
3.21977
-1.43311
-0.520672
0.427992
-2.57154
0.136204
3.46528
-1.49789
-0.000483596
-3.89897
0.725222
-0.0516774
1.18266
1.56119
-2.74385
1.62725
-0.37226
-1.25499
0.894831
-2.94512
2.05029
-0.486071
0.0300069
0.456064
-0.574163
-1.41557
1.98973
1.02521
-0.823556
-0.551516
-0.025256
0.576772
0.334684
0.836821
-1.17151
0.229034
0.311723
-2.77921
3.29323
-0.514014
-0.716571
0.0427519
1.33774
0.58595
-1.92369
1.34055
2.16114
-3.50169
0.461039
1.44538
-0.0662171
3.34687
-0.0148685
2.35645
-2.34159
-0.019171
-0.0207931
0.485772
-0.230227
-0.255545
4.6088
-3.15282
-1.45598
1.30848
1.4722
-0.0294468
0.21998
-0.190533
-0.850808
2.39388
-1.54307
0.0414559
0.435649
-0.477105
2.28111
-3.16542
0.884306
-0.562948
-1.70631
2.26925
2.48147
-0.521941
0.873972
0.753279
-1.15575
0.0708734
1.08487
0.837759
-2.39281
0.765617
-1.42185
0.656237
0.536702
-0.218089
-0.318613
0.185433
-0.2995
-0.216462
2.29046
-2.074
-0.571536
3.39637
2.29579
-1.8526
-0.443193
1.87371
-1.61822
-1.52496
0.463832
1.06113
0.37947
-1.44629
0.7977
-0.426712
-0.370989
0.164024
0.383609
0.444631
2.17946
-2.62409
0.637475
0.508422
0.367869
-2.70728
-1.29743
0.439658
0.857776
-0.971588
-0.67716
1.64875
1.39574
-0.690036
-2.50617
1.64769
0.818799
-0.630304
-0.188495
-1.31585
2.73197
-1.41613
-1.274
1.31274
-1.29705
1.52543
-0.228376
-1.6458
2.80755
-1.16175
-0.0620199
0.606939
-0.544919
-0.833399
0.800895
-0.671696
-1.62668
2.65532
-1.02864
-1.61057
2.01482
1.48215
-1.51422
0.0320703
0.505403
0.776514
-1.28192
-3.68595
2.39062
1.29533
0.159958
0.230751
-0.390709
0.224336
2.0575
-2.55978
2.97558
-1.20026
-1.00508
-1.46741
-2.10049
2.08562
1.46153
-0.0373024
1.14312
0.335428
-1.47855
-0.951161
0.872363
0.0787981
-0.712444
0.1796
0.532844
-1.45067
-0.543708
1.99438
0.196448
1.23518
-1.43163
-2.17727
-0.782404
2.95967
-0.746191
1.25159
2.82735
1.78145
-2.63161
1.56399
1.06763
-1.4782
0.397655
1.08054
0.0167902
0.493188
-0.646206
0.153018
-1.65159
-2.57886
1.12819
0.375666
0.563636
-0.432297
0.0612924
1.30765
-0.472136
-2.23601
0.0743984
0.787668
0.542268
-0.178423
-0.363844
-2.08761
-1.53497
3.62258
-0.505364
-0.650381
-1.47543
-0.301822
1.77725
0.338279
0.551443
-0.889721
0.0825717
3.32141
-2.13125
-1.19016
0.519014
1.94083
0.304199
-0.499657
-1.25973
1.75939
-2.1403
3.02994
-0.889635
-1.6463
-0.766961
2.41326
-1.31119
0.508032
-1.19802
-0.326941
3.10104
-1.39567
-1.70536
1.22667
-0.309533
-0.917137
1.12923
0.149332
-1.27856
-0.464893
0.543761
-0.016352
-0.162819
0.179171
-0.19325
-0.0830805
-0.583303
-0.0323282
1.78591
1.31513
-1.03626
2.57073
-1.36488
3.79822
1.16793
0.0587372
-2.52844
0.882142
2.13471
-1.84109
-0.286865
-1.84932
0.368962
0.439815
-1.15298
2.12879
-2.04532
2.44007
-0.0791467
-0.565308
-0.306365
-0.775351
-0.224765
1.00012
-0.829083
-0.104935
2.2213
0.414031
-2.63533
0.0652867
-0.724481
0.659194
-0.0887383
1.35219
-2.63585
1.28366
2.55149
-0.209993
-3.12526
3.43451
-0.309256
0.614946
-0.388462
-3.10285
-0.583103
-0.900634
2.69465
-0.0882928
1.51546
3.28093
-1.18902
-2.09191
-1.89403
-0.0912224
1.98525
0.703177
1.40835
-2.11153
-2.05265
0.117636
-0.484478
-0.396149
0.880627
-1.3868
1.7811
0.381922
1.51907
-1.90099
-0.549873
-0.227875
0.777748
-2.84809
0.362294
2.48579
1.445
1.53058
-0.686612
1.65831
0.662345
-0.853502
-0.354386
2.57791
-2.99384
1.44974
-0.402537
-1.0472
1.41063
-0.308113
1.9803
0.131158
-2.11146
2.40699
-3.77187
-0.0724086
0.341466
-0.800606
1.68201
-0.881403
-2.57625
2.9066
-0.0536194
0.790352
-0.736733
-0.628349
0.568297
0.0600527
-1.04074
-0.253398
-0.7356
1.74504
0.686857
0.559235
-0.415088
0.44019
-1.29394
0.129115
0.521869
-0.422638
-0.545021
0.520415
0.0246051
0.554555
-0.632684
0.0781298
-1.31036
1.02243
0.403606
-1.87904
-0.0680739
-0.7821
0.047866
1.62738
-1.67524
0.899487
-0.988207
0.516974
-2.2258
1.70883
-0.658037
2.24053
-1.58249
0.598867
-2.28841
-1.73463
-0.068925
-2.76933
2.57024
2.21972
-2.19536
-0.310805
-1.34098
-1.18171
-1.16272
0.488625
-0.167464
-0.173892
0.341356
3.96801
-2.18817
2.40797
-0.552599
-0.664722
-0.419827
1.08455
-3.48477
1.65477
1.83
-1.25219
1.00284
-1.77251
2.41576
0.438781
-0.261271
-0.855591
-1.30703
0.880905
1.2863
-1.14551
-0.140789
-0.370834
2.59213
-0.906643
1.12623
-0.21959
2.28368
-3.77367
1.68262
2.09105
0.602922
0.620257
-1.22318
1.52234
-0.519698
-1.00264
-1.48868
0.81194
-2.75512
0.0265359
1.10269
2.64817
-2.92033
1.1287
-0.512389
-1.17332
2.01108
-2.58044
1.8354
0.745037
2.41487
-3.34078
0.92591
-2.04347
2.16252
-0.119053
1.23297
-1.48596
0.0320141
0.674764
0.720554
0.626092
-2.39916
1.10439
-3.14246
1.91834
1.22411
0.667047
-2.56108
1.7985
-0.115149
-1.69928
0.3529
0.613023
3.02643
-1.01943
-2.00699
-0.178695
0.72392
-1.69551
0.417395
-2.79911
2.70788
-2.25805
0.981557
1.39647
-1.81959
0.976421
0.843169
-2.52645
1.48916
1.03728
-0.522373
0.339175
-0.631975
-2.88214
2.02757
0.854574
1.83421
-3.58049
-2.76782
-0.01139
3.72631
-1.19737
0.407599
0.266634
-0.674233
-0.0683674
-0.412476
0.480844
-0.515652
1.31139
1.55477
-1.05446
-0.765127
0.4893
0.53591
0.646581
1.01281
-1.65939
1.04833
-0.636879
-0.0976073
-3.14821
3.24582
-0.928852
1.14062
-2.2027
-2.08016
-1.39212
3.47228
0.680905
-0.895952
-1.93124
0.591037
1.34021
-0.158043
-0.114652
0.272696
2.63319
-3.20646
0.849037
-1.64964
1.78083
1.89144
-3.67227
-1.22299
-0.211662
-2.35049
0.658365
1.69213
-2.11985
1.5569
0.768248
-2.90855
0.399301
1.05044
-0.132945
-0.0250981
-0.0689189
2.5344
-1.73637
2.17921
-0.442844
2.5704
0.00893191
-2.57934
-1.8565
-0.04528
-0.585603
0.142016
2.33252
0.310823
0.0863655
0.75748
2.2733
-0.915344
1.44498
-0.689163
-0.0232804
-2.63513
-0.168935
-2.43673
0.775629
-2.32138
0.453463
0.531234
-0.984698
2.44014
0.112093
-2.55223
-0.284572
0.275723
-0.966097
-2.09346
-2.23337
-0.356208
-1.43427
3.84125
-0.946072
1.28662
-0.34055
-2.9814
0.893795
-0.786962
1.43354
-0.688701
-1.58964
-1.61056
-0.891046
0.918683
-0.722124
-0.00327342
3.09097
-0.396322
1.63856
-0.646446
-0.992117
0.26835
0.630447
0.693568
2.92288
-2.72776
0.00181901
-0.627564
0.886928
-1.40876
1.46354
-1.25924
-1.53154
0.599023
0.473279
-1.0723
-2.5294
0.0548713
-0.346949
2.19273
-1.84578
-0.0786378
-3.04662
-1.97309
2.37233
4.14726
-1.92604
-2.22122
-0.372565
0.86773
2.22216
-1.16979
-1.05237
0.705033
-0.788114
0.154939
0.330833
-0.517694
0.0638061
0.453887
-0.313357
1.45648
-1.74102
3.57524
-0.0898915
-0.383301
-0.772924
-0.206022
0.978946
-0.143568
2.77676
1.51802
0.484278
-2.0023
-1.06912
1.59831
1.21656
1.17732
-1.04947
-0.247964
1.4564
-0.54103
-0.915367
-0.31006
0.234515
0.0755455
0.433736
-2.29565
1.86192
-2.63553
0.402159
0.60861
-1.54377
2.3194
-0.0324781
0.737511
0.329894
-1.27597
-2.7355
1.41205
-2.99991
0.913378
-1.23916
0.11915
-1.15405
-1.61224
2.76629
-2.23723
0.293022
-0.108998
-0.184024
2.9024
-2.28217
2.24568
-1.5425
0.427258
1.49897
-1.92623
0.585604
-1.07008
-1.24493
-0.891164
2.1361
0.91741
-0.670632
-0.246778
-1.94472
3.8033
-1.85858
2.18282
-1.42709
-0.755735
2.10138
0.0673893
-2.16877
-1.57704
-2.19663
-0.896914
-0.0386003
1.1493
1.70228
-0.0472796
0.237616
-0.190336
-1.89428
-0.456214
2.01307
1.69983
-1.51023
1.80353
-0.293305
-0.614569
0.844838
-0.239221
0.958864
-0.719643
0.200253
-1.1069
-0.309232
-2.57291
-2.58002
0.746611
0.0721877
-0.335215
-0.61291
0.201394
2.0811
-2.2825
-1.4207
-0.359628
1.31474
1.1684
0.191702
-0.691444
0.456389
-0.359721
-0.0966682
0.213893
-0.989464
0.775571
0.41555
0.725082
1.08709
2.32958
-1.08218
2.4215
-1.28087
-0.284668
-0.68644
0.971108
2.11246
0.246564
0.0764805
-1.86456
1.29039
1.45492
-1.59849
-1.17931
-2.13783
3.31715
-1.7304
-1.75437
-3.23295
3.31755
-0.0845981
1.22662
-1.03605
0.811283
1.55761
0.771964
-1.07385
1.15813
-0.0842742
-0.815242
-1.66586
-0.801753
-1.2678
2.06955
1.34558
-0.68107
1.47128
-0.705659
1.62988
-2.59597
1.30958
-0.988627
-1.35074
2.72374
-1.37301
1.99008
1.34858
0.840921
-2.1895
3.17557
-1.78215
-1.39342
-2.0828
-1.87238
3.16941
-1.29702
0.73726
0.901304
-0.769023
0.736545
1.2041
2.27891
-0.567528
0.499161
0.0679673
-0.0465409
2.70339
-1.50799
1.31984
2.64817
-1.10265
0.563376
0.539276
0.585341
-1.29176
2.10953
-0.129236
0.956853
-0.549255
-1.88778
-0.366642
2.25443
0.493231
-0.0986949
-0.394536
0.370294
0.260181
0.383101
-2.78402
-0.750051
0.834154
1.94671
-1.71404
-0.232669
0.446825
1.00957
-0.382773
0.206395
0.685843
0.619452
-1.3053
-1.0146
3.1236
-0.504711
-1.58187
3.21356
-1.63169
-0.79142
1.1261
0.42012
-0.969993
3.0649
-1.52648
-0.958952
0.649364
0.872973
0.796661
-0.864735
-0.473964
0.411944
-0.789659
-0.35699
-0.00010905
0.459715
-0.417323
2.27137
-1.85405
-0.415161
0.179561
-1.01971
0.264442
-0.877054
-0.0198605
-2.83694
1.86597
0.649592
0.626079
-1.75519
1.13926
0.615938
0.734339
0.209009
2.2936
1.2608
-3.55439
-0.237167
-0.0634733
0.300641
0.481588
-2.0027
2.83597
1.31128
2.1875
-1.98611
-3.19717
-0.283668
-0.155121
0.0426993
1.28868
1.10626
1.14205
-2.24831
1.01046
-0.110976
-0.0962702
-0.878245
-0.224407
-1.41719
-1.22192
1.60139
1.31476
1.17187
1.55897
-1.6124
0.0534318
0.505303
0.0151127
-0.172375
0.655339
-0.100785
2.10016
0.577145
-2.6773
1.26402
0.0222784
-0.587408
0.351868
0.23554
-0.897199
-0.00851765
0.905716
0.862204
1.53087
-2.39307
0.597681
0.798056
1.92157
-0.0646053
-0.678068
1.40216
0.871147
0.341459
-0.518497
0.177039
-2.87665
1.4531
2.33947
-1.85844
-0.481031
0.0420786
-0.369777
0.327699
2.34188
-2.55834
1.56373
-0.21815
1.11155
1.13413
-0.312554
-0.0444368
-0.465789
0.142317
0.323472
-1.46074
-0.315211
2.9951
-1.53489
-1.46021
1.2565
-0.147467
-1.10903
1.14058
-1.90829
0.767716
-0.262552
1.3794
0.018977
-1.78489
3.30117
-1.51628
-0.288163
-0.177626
-1.31687
1.0888
0.037432
2.57727
-0.0101612
-2.56711
-0.750551
-0.0850365
0.627304
0.208531
0.0114485
0.540228
1.14178
-0.819797
0.923579
0.0878307
-0.191004
-0.395178
0.335657
-1.06214
1.4894
0.0348495
0.653747
0.299809
-0.752582
1.94898
-0.146869
1.70583
-0.598243
-0.284447
-0.61127
1.29711
-0.365246
2.47572
-2.11047
-2.21624
-0.316517
-2.31564
3.40503
-1.0894
-0.0757397
1.16454
0.82153
-0.165492
-0.051003
-0.624101
0.675104
-2.27202
0.745543
0.263755
-0.321428
1.53491
-3.45676
1.20805
-3.00366
-2.77706
3.40917
-1.33004
1.34215
-0.722698
0.0328478
-1.68986
2.1236
-0.0057551
-0.385319
0.396383
-1.4359
-0.26891
-1.63987
1.90878
-1.11566
1.52302
4.08829
-2.72621
-1.36208
-0.563692
0.201944
0.595217
0.05572
-0.650937
-2.15892
0.422554
0.462704
0.073998
-0.023228
-0.310164
0.333392
1.3324
-3.64803
0.243061
1.18554
0.0852344
-1.27078
-2.78244
2.4172
0.379263
0.0919969
-0.47126
1.03996
-2.66664
-0.340945
-0.0123016
0.353247
0.492106
-0.112843
-0.0324811
1.92547
-1.46443
1.59848
1.30316
-0.70548
-2.93349
0.853333
-1.79815
1.45208
0.34607
1.9871
-3.16641
-1.32765
-0.793502
2.12116
0.141399
1.03702
-0.767188
0.649162
3.05549
-0.468118
-2.58737
-0.0135371
-2.62159
1.90311
0.198275
1.07269
1.14948
-0.381689
-0.0159298
0.368997
-0.706276
-0.90621
0.185848
-0.135373
-0.0504751
0.0217582
-2.53905
2.51729
-0.176895
0.799231
-0.622336
1.27575
-2.88981
1.61406
-0.28101
-1.43421
-0.0918688
0.0815835
1.78777
-0.893802
-0.491557
1.38536
-0.937234
-1.04626
1.14855
-0.67527
0.780287
0.404317
-1.1846
-1.19494
-0.560257
-2.04668
-0.347582
-0.0709448
0.418527
0.384701
0.689265
-1.07397
1.08612
-2.26399
1.17787
0.0590519
-1.44983
0.487589
-3.33156
-1.14555
-2.79354
3.93909
-2.55089
0.119025
2.43186
-3.33842
-2.10977
0.0663015
-0.72888
0.743936
-0.0150557
-3.76608
-0.931046
3.0312
0.970636
-0.488314
0.232872
-0.844142
-0.415033
1.21309
0.368084
0.214794
-0.987718
0.0449877
-0.387663
0.342675
-0.436725
0.203165
-0.253203
0.295281
-0.712582
1.3155
-2.68648
1.57561
1.11087
-0.614914
0.0351631
1.52197
0.490585
0.00264617
-0.0413508
-1.0325
-1.26085
-0.670393
-1.40099
0.488138
0.912855
-0.220905
0.974867
-0.753962
-1.0638
1.27769
-0.19679
1.88559
3.28924
-1.77122
1.41132
-2.34855
1.12936
-1.52423
0.394868
0.24814
0.00739062
0.0732087
0.0292866
-2.74829
1.59424
0.200339
1.05616
0.0343624
-0.507377
0.473014
-4.2976
1.69331
0.565275
-1.09716
-0.482182
-0.0589197
-0.536637
0.595556
-1.44388
0.550074
-2.77121
2.46198
3.8373
-2.05647
-0.588982
0.536426
0.052556
0.194439
-0.432473
-0.364173
-2.16909
0.419788
1.7493
-0.34359
0.280117
-0.200219
0.864445
-0.664226
0.954091
0.609638
0.468482
0.118828
-0.58731
-0.676933
0.711783
0.576712
-0.317828
1.39278
-2.43684
2.74277
0.180538
-1.51668
-0.28949
2.50506
-0.0723755
-2.43269
-0.450483
-0.641922
1.09241
1.36803
-2.81823
-1.73424
2.43151
-0.697271
-0.0878499
-0.00847553
0.0963255
-2.61828
2.62731
-0.00902523
-1.09274
1.60971
1.35596
0.651732
2.70643
-0.985632
-1.7208
0.0906901
0.507398
-0.598088
-0.348471
-0.799555
-0.038751
-0.764983
-0.0345719
0.0663226
-0.834482
0.768159
-0.233127
2.50297
-2.26984
-2.24729
0.832293
1.415
0.719925
2.44073
0.102975
0.0573522
-0.160328
1.4721
0.634788
-2.10689
0.250639
-0.418103
-1.10228
2.54726
-1.44498
-2.24993
0.362142
1.7452
0.712403
-2.04006
-0.00622751
-0.287419
0.293647
2.86701
-0.880326
-1.98669
1.21636
0.555936
-2.97077
1.55539
2.85888
-2.95649
-1.33623
0.313488
1.02274
-0.290494
0.488167
0.514285
-1.00245
0.18791
-0.562471
0.374561
-0.0246066
0.299443
-0.274837
0.845609
-0.904533
0.0589236
-1.48395
3.11382
-0.746318
0.768209
0.408298
-0.608517
0.912121
-1.40243
0.490311
-1.48639
-1.09404
0.136598
0.0185371
-0.192511
0.0278433
0.164668
2.87348
-1.6037
-1.26978
0.280343
1.66636
-0.606489
-0.344672
-1.44721
0.223009
1.21797
1.06956
-2.28753
-0.0402151
-0.00773019
0.0479453
-0.0511592
0.885088
0.72813
-1.06173
0.333595
3.79416
-1.76765
-2.02651
-3.30678
0.694711
0.834082
-2.86481
-0.21083
3.07564
0.940052
-2.04351
-1.02285
0.722181
0.142849
-0.0696401
-1.01576
2.93466
-1.9189
0.363765
0.075016
0.252493
0.488217
-0.587754
0.497863
-0.616969
1.07926
-2.334
2.19144
0.142565
1.75719
-1.05934
-0.697852
1.33223
-0.916678
0.599099
0.146192
-0.578678
0.478274
-0.0729545
-0.975597
0.82535
-1.86955
-3.20076
1.41587
-0.114167
0.203643
0.338571
0.153536
-0.0570128
-0.0308372
2.28248
-2.3152
0.0327126
2.45602
-1.24784
0.501485
0.746352
0.242808
-0.870372
-1.07186
-2.35718
-0.603874
0.505179
-0.420578
-0.69455
1.11513
-2.06275
0.452181
0.523787
1.0023
-1.52608