/*--------------------------------*- C++ -*----------------------------------*\
| =========                 |                                                 |
| \\      /  F ield         | OpenFOAM: The Open Source CFD Toolbox           |
|  \\    /   O peration     | Version:  2306                                  |
|   \\  /    A nd           | Website:  www.openfoam.com                      |
|    \\/     M anipulation  |                                                 |
\*---------------------------------------------------------------------------*/
FoamFile
{
    version     2.0;
    format      ascii;
    arch        "LSB;label=32;scalar=64";
    class       volScalarField;
    location    "0.6";
    object      p;
}
// * * * * * * * * * * * * * * * * * * * * * * * * * * * * * * * * * * * * * //

dimensions      [0 2 -2 0 0 0 0];

internalField   nonuniform List<scalar> 
13486
(
32.5277
24.7597
1.11745
-9.33595
10.2312
-5.43582
3.58076
18.2549
21.9956
9.61628
-17.9865
4.94794
34.6014
-7.58169
7.06369
10.1226
-75.5706
-11.8244
6.07608
28.89
-8.54552
34.2514
24.161
-12.5141
8.03676
-11.6252
-8.34388
-8.85592
0.251442
-7.55357
-6.69905
4.14931
-16.0025
-5.47594
18.246
0.0113443
0.114243
26.8949
-0.604721
21.498
1.56713
36.0869
0.512327
8.34004
8.08903
4.69087
-145.497
0.270969
-0.0129276
-11.4064
16.9336
-1.27038
2.36623
27.2621
-9.55068
10.788
0.442407
-1.19491
-15.0598
0.257718
-16.1098
0.191733
-45.0164
-8.29351
-8.03786
0.36563
-10.3882
32.3024
21.7514
-0.428313
-10.2616
-10.3047
21.8111
-140.51
0.104888
0.354942
0.217547
6.8827
-102.287
-1.98618
0.164688
24.6156
-46.2244
2.10399
32.6332
6.29938
0.448221
16.0959
20.1273
11.8518
1.37042
15.7475
31.2653
27.0591
22.9494
0.140717
-8.05043
-10.0663
21.5225
-68.9875
0.0856381
-6.34388
-10.0028
-1.19065
12.4615
-70.5268
20.1061
-0.799033
-110.342
14.7988
21.9686
3.10698
27.2212
0.203405
38.6613
22.0269
8.14992
-6.23072
22.0683
0.0246366
-17.9259
-16.0085
24.067
-0.865661
21.1968
-1.22994
15.0359
2.84617
-4.58602
-7.33406
-1.30492
-139.055
-133.215
-92.9982
18.2897
15.5443
36.3156
15.1322
0.000626862
18.7259
-14.907
2.39224
4.75894
-1.93678
0.394292
-28.1197
1.55062
29.5476
-11.7287
-0.126845
9.99048
6.6519
-0.36299
25.7439
3.34741
2.69092
11.6634
-0.472892
24.2954
0.960973
-9.5225
24.2675
-6.72955
35.6363
-1.36002
-11.986
-3.68198
45.2715
1.57394
-93.5315
-138.319
3.55515
12.5041
11.0563
-0.0493647
-10.8595
-11.6404
-17.4389
20.3607
4.72619
20.4101
0.886743
8.34262
-10.4121
2.40273
-9.14202
0.0374977
-7.13393
2.69905
23.7807
0.1759
1.04007
-1.46755
28.4474
-1.71827
-17.597
-7.37543
-9.86553
29.9532
-9.601
-7.00764
1.91793
26.8794
9.49393
0.907481
-1.98859
-7.05879
23.1732
-1.37969
2.32823
-7.67913
-9.55011
28.5142
20.2763
-5.23626
-4.17845
-8.0128
12.3542
29.6406
-35.538
-78.2697
-12.1855
19.1697
-10.4523
1.66231
32.1002
-9.16124
-8.33536
-3.46169
0.394057
20.1876
-17.4914
-14.9924
36.993
-9.23247
30.9497
-6.65399
1.14994
31.3168
8.54795
-15.1629
12.6254
0.693693
29.5741
-0.44312
23.7392
9.78401
-9.71009
-113.753
9.97422
-11.1068
39.012
20.8158
-1.16498
-2.60217
-11.4306
3.87036
-4.19196
-0.116227
-14.8879
22.6741
-0.330388
6.96273
-11.2982
11.4663
-10.1861
-3.37759
-7.35497
20.0815
-18.1176
21.3487
19.5659
-8.34834
3.49481
32.2448
-9.7274
-2.74066
-5.64026
-1.08979
1.84058
-5.44462
17.763
21.0364
-16.9016
-14.5481
-24.6584
-16.1892
-4.97234
1.87864
20.2842
-9.22506
0.33584
23.4381
18.1478
-5.98375
-6.49875
-9.56773
3.67089
21.1968
2.78216
-5.91868
-8.37846
1.7319
4.48105
-0.0248676
7.91207
1.50854
8.71967
0.200809
0.220953
-68.2338
-9.18713
-7.12487
3.12899
-21.004
15.998
0.373726
20.1695
23.3052
-4.06025
0.0592537
0.0129564
20.3505
27.2546
38.516
1.3011
13.2745
17.5284
2.87818
12.2543
16.105
15.0593
0.47062
29.5796
2.65109
21.7212
40.6343
7.20168
10.7884
-0.222219
-4.03565
26.7944
11.911
8.53448
-11.4271
0.159201
14.2266
38.9202
-35.6913
0.142051
13.6022
3.12409
3.5713
-7.75264
20.7223
-0.0488027
-118.652
15.0437
0.203033
-9.1002
7.61416
0.167332
23.1111
19.722
-7.85435
-0.0100169
-6.40156
-156.811
29.3135
15.316
0.505209
13.9386
1.45256
-11.3659
-4.3846
16.5555
20.7899
0.0280166
-20.9536
-58.2082
20.2381
14.4754
34.2156
21.3365
-163.71
-2.76373
-0.635735
10.1587
-175.011
-5.71698
27.8763
-8.70688
6.44625
31.281
31.589
0.188247
-9.74503
-11.3408
-150.461
-16.2432
-168.379
1.55508
18.9454
-9.33559
3.7739
0.606879
26.9643
-17.1566
14.6169
23.6828
10.4782
-20.2135
-9.6401
21.396
19.6823
26.0861
-11.2057
11.8958
-167.304
8.78149
20.2943
-1.86691
38.9981
11.1842
-9.4903
-6.7736
2.53207
20.8462
-8.71875
-2.57334
33.9313
18.4413
6.09598
1.8741
9.35639
-10.6454
34.0222
0.0325458
11.4438
31.7358
-208.776
-8.43081
-90.7427
-9.91088
0.727493
25.662
25.1448
34.0248
-59.2126
0.175489
-11.5483
12.1765
20.5305
-10.813
-23.0041
19.554
-11.1807
-10.8028
-16.7159
-27.0404
-5.75336
27.0485
-0.0697097
-1.77982
-9.4259
19.5459
0.159995
42.5859
31.7668
21.6792
17.3788
0.12697
-0.00143066
40.4442
-2.914
0.0183774
-9.56369
21.8056
-29.8513
3.51034
13.7407
0.307791
-13.3715
23.7761
-27.1473
-127.834
12.0429
-6.09845
44.8316
12.481
17.073
22.8079
-11.0455
2.72418
34.9502
10.1427
27.5855
3.15567
3.46555
-7.54936
-1.77896
0.400015
-59.2539
21.1697
21.8149
-11.1069
0.0344235
-5.72687
31.8987
25.7599
-2.91232
22.2055
15.4942
-13.1152
11.758
17.0382
-161.802
33.4998
0.202114
0.0735613
35.7254
14.791
-1.09909
13.1537
-7.6426
-11.19
7.57471
13.6915
24.2762
31.4257
-9.43304
9.10214
-9.25911
0.0998533
30.719
3.92836
-11.3645
-10.0699
-2.26109
0.429666
17.275
-7.92158
-22.9579
22.2382
29.0869
-1.72015
22.5521
-29.6098
-11.4843
-32.2229
6.38555
-11.6905
23.4595
2.77798
-15.7733
18.2605
25.5555
-14.4848
-9.88952
17.8209
30.5395
4.0342
32.8293
2.41767
12.257
2.17865
23.2768
0.565507
29.7268
-7.50403
3.02977
21.1847
-4.37461
-8.87014
19.6522
-216.126
3.66528
25.6336
34.238
-7.17574
-3.09714
3.53366
1.34219
19.2758
12.9736
6.39961
-11.3991
-1.46618
32.5728
1.22567
-1.7273
-11.1203
34.3769
-5.06407
0.629106
18.7343
16.4139
-1.7699
-8.80719
18.9212
2.98436
0.61881
5.04291
-25.1773
33.2918
21.6728
15.4189
14.6683
-0.914286
-16.827
37.4003
4.53505
37.5478
-8.27755
20.5314
0.366505
-144.543
13.6249
9.63347
39.3481
-9.46054
13.8804
12.8094
-37.5803
9.5468
-8.14657
-12.8476
21.0835
-9.71553
-8.6955
-10.6483
-6.27917
-4.66834
22.4708
0.0478159
36.6369
21.4974
0.57965
-11.4469
-7.54655
5.03026
-14.5583
-8.91138
-61.6121
30.8134
-0.110999
0.864578
-12.9686
34.5139
0.00933238
-4.63101
35.82
16.6998
-11.4235
-1.58132
14.3375
-0.328411
21.1729
0.723505
-7.67269
4.88925
19.3486
3.99513
17.031
36.3276
0.74654
-10.0129
20.2968
0.574141
-5.19843
14.4076
14.2486
6.82034
-11.7316
2.42851
-0.107566
3.08344
30.6338
4.03318
2.93363
2.62045
-0.275809
-2.10074
21.2631
0.48344
20.3744
20.1829
29.4639
-29.6348
-21.6601
37.1871
0.176919
-11.1689
22.0269
-11.1575
23.3482
0.575548
19.3853
-11.9625
-93.209
-10.7086
-0.0464239
-104.501
8.91919
38.3048
-4.55177
-23.4658
-10.1285
20.9448
-8.83859
6.85422
-13.6245
37.4958
-10.7582
10.652
-11.6311
10.0313
20.0753
5.71218
-53.5423
-7.59546
35.337
19.913
8.67313
18.358
0.640109
16.593
17.0027
10.6414
-82.4793
-2.78319
26.2853
3.09197
-1.16119
18.2623
-11.3061
-4.41153
-0.611348
22.6784
21.8463
-9.48019
2.77183
-11.4351
-8.01101
3.01159
-4.504
-0.0611775
19.3931
-4.11486
-26.7369
25.5486
-5.32867
-6.76634
-4.00196
-11.4159
-9.53317
-10.3259
-0.199944
-11.9198
21.2558
34.5691
0.117083
-6.67792
35.8709
33.4609
-7.16642
-7.394
22.5836
-197.108
0.612598
-9.83015
-2.1754
11.2633
-119.988
6.66537
12.6478
-11.1761
-5.70128
-13.8921
-4.98797
18.4566
6.84238
13.2179
-9.88981
17.0755
32.6554
-38.166
-11.7366
24.6456
7.32731
12.5193
-0.687336
-7.38369
-10.0432
-4.53438
20.8883
37.6796
23.3299
-1.32451
-4.90583
20.242
31.6435
-10.4469
23.2835
20.3756
32.8447
3.74925
-0.308049
0.968381
-3.94259
32.3944
2.75621
1.07268
14.8342
-2.78506
5.54452
-3.8223
-18.8417
18.971
18.2814
12.6892
7.8543
-54.8169
-6.78086
-4.02651
11.2245
-26.3187
-15.4805
0.97225
-12.6763
-15.8745
9.50525
-7.43613
-107.704
-51.9528
-5.24362
15.9542
-18.0498
-10.5968
23.4304
-7.91792
34.3947
-8.25126
-122.501
26.0504
30.8742
0.164246
-1.70283
4.24181
21.1126
11.9814
-31.9623
-1.62665
-0.0605126
-5.5552
19.1782
0.715518
10.5191
-0.0692056
21.8304
-10.0882
0.753482
0.685289
26.344
-12.9477
-17.3892
-10.949
34.0532
-17.0244
-9.93102
-22.1602
20.6367
-10.6701
0.0282385
5.08952
9.1227
-0.417555
14.5417
-7.86662
16.2215
19.8819
25.1815
6.98842
-0.0811687
-5.04418
14.9296
-11.9504
26.4429
12.7809
-1.94919
-0.907088
-2.93111
-3.52001
0.135774
23.7131
6.40594
-0.732159
20.3242
-11.4573
16.8876
38.8867
-3.63989
-28.5228
12.2388
0.816427
-0.317062
-3.1099
-9.07815
20.8199
0.756084
0.182656
0.43707
-40.763
28.3595
-11.5352
-0.225302
20.6685
0.718789
30.1009
23.7101
29.0201
4.61002
12.1939
5.18536
1.67908
15.9369
21.0403
-11.6044
-4.29712
-58.3206
-6.69824
-12.7161
20.9689
-23.4134
-14.7145
-12.5278
-12.6301
0.0496514
20.7223
-0.465569
0.493995
-90.5321
19.6882
38.5664
0.703962
-19.4188
9.79224
-4.90315
20.1703
0.552096
-0.555423
25.9891
-1.25816
36.4072
13.2255
19.8116
-7.2178
27.901
0.594916
24.0049
0.18371
-15.1151
-11.6398
-9.7683
13.9784
0.00935303
-1.34558
34.2211
20.4634
22.4433
30.913
22.77
26.2567
-4.40147
22.5142
20.4952
21.0864
-3.44803
-9.13887
-10.6121
-21.4116
3.24836
24.5881
-83.1487
37.1301
-27.1469
0.76708
37.2397
30.9175
-4.36439
-10.1325
21.5044
8.77723
-1.68547
20.0836
-78.2519
-11.3894
19.8185
30.168
-0.712073
24.163
27.6041
0.526307
-9.31333
27.4515
8.45282
0.19695
-11.2196
2.09889
-18.4161
18.6077
14.1655
0.178065
-5.31776
-8.28883
3.68452
-0.553492
5.03389
31.4411
-0.581724
42.1244
21.1324
5.78748
23.8215
-11.337
-91.1264
-10.5707
20.7201
-0.770363
-93.0587
-6.30762
7.64402
10.2623
-0.438726
15.4591
-167.616
10.482
-14.1538
0.0674624
17.3672
5.47523
28.147
21.1652
21.4131
20.3868
-3.68272
-13.5428
-13.2127
2.30097
-7.46522
-9.86107
16.9233
-7.49867
-0.0843217
0.0950413
-6.43109
-13.7817
14.9385
7.53323
1.09369
-8.33967
9.50722
-12.3462
-11.2396
3.24291
-0.0203755
24.0873
14.1601
28.3305
-93.9432
18.1662
0.59165
30.0413
-4.70895
8.82128
-44.2476
-5.49638
35.4534
36.2579
17.1859
11.4193
12.6912
19.7501
36.0449
14.3576
-15.2683
-13.2282
4.12362
-25.8673
-62.3795
19.8895
20.3192
-1.02637
4.83537
18.027
19.1228
39.5478
-24.7894
15.5004
-159.209
-14.2458
30.7506
-3.18059
17.6431
-6.69567
4.01246
8.10167
41.1919
0.838347
-10.7101
8.1192
3.20926
-11.4452
-82.9364
-22.1749
23.0216
0.898546
11.4908
33.3535
30.1652
-2.04039
-51.3453
0.65507
0.823084
25.745
19.5296
30.4538
11.5215
-22.3471
32.0351
19.669
-31.0804
16.2999
21.0287
27.5034
-19.2997
-9.77885
0.135713
16.5373
35.346
10.6354
-8.73187
-17.7664
39.6155
-30.694
-15.1094
36.7788
17.2912
-0.276913
16.6944
-10.045
11.4939
-6.12167
-28.9243
-0.307379
-10.8572
-0.614785
-4.90943
-210.487
-96.1874
-47.7505
0.287952
-155.98
-11.2362
19.4236
18.0902
11.37
-172.722
3.14784
0.244664
-4.49364
41.7698
13.798
-12.1647
17.2014
-5.96577
-10.9566
17.8062
17.7281
19.8684
42.1301
0.110011
-2.84333
-12.0982
2.89534
14.2807
21.5316
-10.8973
32.4469
12.6886
21.9806
-7.38683
-1.56213
0.627721
22.3816
20.2138
23.4775
20.5058
37.9827
37.9636
-6.14791
17.1888
27.223
-11.6834
30.5997
-0.599814
37.3771
30.4288
-0.964297
23.6283
8.3301
16.1445
1.43944
20.851
-13.388
18.1566
6.72443
14.3281
-5.00032
20.6003
-0.0747304
2.95176
36.0471
35.8477
13.7822
-87.1737
5.30764
0.571704
-2.799
15.6044
32.0248
-85.1035
21.1139
20.6327
9.50444
22.2004
-12.0248
-6.85592
0.192549
38.8681
4.61394
0.653039
24.2215
-5.6245
1.00788
8.55771
3.89764
14.3057
8.3219
-7.43392
11.7311
17.2149
14.0578
15.8885
37.9227
30.4916
27.3177
35.1116
35.6283
9.23783
-0.826453
-6.06135
-30.3188
35.4253
-7.12078
21.2252
19.1626
-11.5282
10.5347
23.4014
-9.8657
9.38076
11.2737
42.785
-7.52119
8.38325
0.00320119
25.0592
1.96517
-9.09565
34.8774
29.7083
20.8095
20.7027
-6.26308
8.5391
-76.0119
37.8
0.350955
40.8757
-6.57054
-12.6368
-211.223
11.5149
-106.455
-0.989576
-1.18876
4.72353
0.438027
4.23533
-9.50457
-0.0224271
-5.92297
-102.724
-9.25664
-34.2525
0.770151
-2.2777
-10.0436
-14.7784
22.2842
22.6923
27.7067
19.6613
7.47999
7.57354
44.6278
20.5809
-12.3637
-0.250603
-4.67012
14.6932
18.4213
32.3911
-16.2384
-16.0762
17.6839
-0.177119
4.95556
26.2827
-88.4336
-11.5357
-101.859
38.3508
-10.269
14.6693
27.3557
-4.81441
16.4626
-0.423589
-10.3525
-8.16522
0.881293
12.6533
25.7826
26.8288
-33.7101
-94.278
14.112
-78.1502
-7.42739
-4.64375
0.955675
-5.78871
0.03021
-10.0856
-7.79527
-12.7335
33.5514
-8.61729
36.5395
-11.9564
-3.28869
6.80675
-6.7077
31.0355
21.5524
25.2047
0.720303
-6.04146
-12.2529
30.1753
-96.8534
13.5591
-0.228072
25.1612
30.7288
-0.280744
20.5616
35.1226
23.7853
22.7233
-53.2739
-6.51052
7.94711
-10.6615
-1.2349
12.4778
15.5544
2.13973
-16.5033
4.99669
0.539898
18.7665
15.8682
-8.44085
37.2499
2.13944
0.0163824
3.15522
19.4217
-7.27798
-0.116682
23.3146
-15.3132
1.79209
-6.29774
23.082
19.8012
18.4237
0.0208016
19.0127
24.124
24.248
-5.94639
0.694669
2.06415
18.224
-17.3956
-193.734
-9.68196
-32.2669
-9.73783
0.130381
-1.08359
0.683688
-75.3093
-12.4461
-14.3874
0.359988
-6.22693
5.34346
-10.3396
21.8375
45.4343
4.49364
-5.89463
7.17423
-0.384326
5.38042
0.594106
-7.14706
-11.9714
2.79528
28.6742
0.137379
34.5877
0.413476
18.1133
17.4344
8.5834
-230.899
12.9122
37.8573
-10.204
19.4262
19.4326
32.3164
2.68739
29.5879
23.4723
-201.219
24.9872
-8.03755
-35.1377
30.4087
17.5938
-32.7661
-2.19664
27.579
0.7482
-9.07128
0.700527
0.633652
15.0879
9.3109
20.5609
20.1845
17.3747
-57.6392
-9.43686
-5.64468
19.981
41.0839
-7.91221
-37.3324
-224.536
21.9745
2.54896
3.01817
8.89161
-7.2489
16.3604
-11.6546
2.45305
35.6026
6.82328
-21.1352
-6.96797
-10.7348
-10.2101
-148.609
-12.3597
-11.7847
24.812
9.00973
-10.0558
34.2785
-0.155984
-11.6394
-5.66607
-35.1395
23.2304
-89.5455
4.82774
21.4823
0.798849
-6.04224
-5.1222
-13.0636
-8.02239
22.4262
-14.2691
-0.786111
-85.2911
19.7133
22.4911
-10.2642
27.0782
25.1595
33.273
33.9741
24.0659
3.39952
38.4815
-102.011
20.7965
2.94947
-14.5184
25.391
-9.62254
32.7264
7.37308
-25.0246
-165.873
-145.92
21.9522
-9.56687
-6.70278
1.83875
-22.5986
-14.7572
11.0446
1.81479
15.4752
38.3199
-96.0809
-11.7523
-13.252
22.7325
14.1781
-9.25791
44.8561
-0.787373
0.601004
11.4057
-25.8092
19.1583
22.0006
24.7602
25.3689
-30.7147
11.1172
20.1825
4.51452
-21.5404
-0.460872
23.5774
23.6554
30.1301
-9.87943
2.81817
10.6632
10.952
-0.386656
-14.106
15.711
-6.7132
17.8779
20.848
-82.9544
34.6661
-9.36972
37.0516
24.7149
-13.4913
0.156109
0.075386
6.31666
21.7914
-12.5447
29.4282
19.0663
10.6356
0.449039
3.87018
-8.55592
10.5859
-92.6687
12.9882
-7.8168
19.5631
-165.293
-0.127945
-5.41105
25.9295
31.3695
8.54331
-152.854
7.7154
-2.08885
2.51441
10.0496
-12.5581
-8.90335
36.6691
-15.1188
-4.44349
-12.6138
-26.7832
-8.98632
20.1317
-93.6379
-4.87952
21.5256
13.2026
22.3679
-11.5512
8.58746
36.7671
-56.2839
19.6012
5.03365
-10.7306
5.13979
4.91558
-11.2247
37.6634
24.631
0.481861
36.1736
28.2228
25.6362
-90.7237
-182.698
14.2653
-29.1799
-6.87395
-29.3043
-27.8176
-28.3208
16.556
7.45185
12.3527
13.8336
-8.00098
16.157
19.7315
-26.8342
23.0525
11.1604
19.3932
-2.06921
0.347258
-10.1526
-154.672
-11.1324
-5.34358
19.0654
-14.7435
33.7662
-11.3867
18.7875
13.1152
0.046568
2.3319
21.7603
7.32664
2.88899
19.0354
-1.10773
-9.06185
31.7618
24.4944
-9.38165
-20.0806
-3.50138
17.0522
-2.41361
8.81402
-31.189
-1.74348
-1.87174
0.736096
18.1041
18.2446
-8.79568
7.29322
-3.41577
-0.371369
-13.4235
25.8158
-10.5454
19.8286
0.174802
17.3743
22.5659
10.096
19.8272
-2.06497
-9.41215
0.483811
-116.618
-9.81647
-9.22141
-7.86579
-8.14339
15.2346
-2.93695
19.129
-4.80521
-5.27086
-40.8264
-0.187529
22.2418
-8.02904
20.4325
5.38639
-11.7476
-3.64385
-10.7834
14.3859
20.3827
-0.28316
3.97654
-99.4591
25.6276
-0.828726
4.56287
-11.5358
26.7478
9.73684
-0.0410948
22.4489
22.1723
25.9681
7.31265
25.9631
-59.1756
0.90837
-5.17012
21.0201
12.2679
5.11838
-1.18038
-13.6195
-12.1165
11.2651
1.51905
-12.3685
35.5475
-59.5466
25.7539
14.6277
-6.89942
-0.746923
1.05253
-1.55153
-0.0421141
3.48232
18.6294
0.44993
20.2115
-42.1627
8.94245
-7.76075
3.56363
-14.1252
27.2375
36.9919
22.8971
11.8001
3.141
11.9582
-9.93051
-3.8851
0.34521
-2.52136
-9.78496
-13.9755
-13.9621
-9.45333
18.849
21.445
-35.6796
5.06961
23.519
-10.7095
-29.2552
22.2316
-0.625748
-15.6734
0.77909
-5.77461
0.0495135
34.6045
0.218145
20.5814
-25.7407
-15.182
-10.7108
20.7776
3.8213
17.235
-22.9448
-12.3316
1.13789
2.40179
23.8747
18.2585
1.93003
-6.0635
-5.8136
38.7458
-8.94687
24.3394
27.2689
-5.15781
-1.68644
8.71295
-226.772
-24.2134
17.4526
10.1117
20.1974
-10.2455
22.4683
-1.98427e-06
30.2338
2.69513
17.0625
26.6989
16.1394
3.11338
-11.2302
4.1308
-31.2872
18.4755
7.24081
25.8305
0.108966
33.0687
3.67331
35.5555
-4.84749
27.4552
-5.5514
15.3783
-24.4002
18.992
9.00707
6.70471
32.7562
19.9622
4.08305
-9.43545
11.4023
18.8392
-0.506365
-139.137
14.6736
0.938573
27.7523
-9.51553
33.8297
2.5653
44.8412
33.547
15.6509
14.2897
-23.239
-0.801494
36.2559
1.75812
-3.50604
-2.18248
35.7723
8.32058
17.9381
29.5616
-15.3817
22.857
-4.8522
25.7306
0.530169
24.4879
21.2048
30.4735
-0.553983
-92.6798
6.31793
-11.3735
8.96684
2.77824
0.498167
26.8653
31.4606
0.306207
6.05878
-4.2772
28.6396
17.0443
19.4742
11.1672
-4.64636
-110.818
-8.40379
20.6354
-42.306
-6.00052
-1.31372
14.8849
9.11429
-10.1232
38.0249
-6.75108
33.727
5.58881
34.9617
-7.06623
1.9924
0.199894
1.47246
17.6375
19.636
-0.453505
-5.56656
-2.28361
-6.32763
31.7464
-9.99778
-2.09046
-12.4325
-6.67287
6.69495
26.635
9.77933
0.866072
0.304704
19.9292
41.0941
-11.0623
1.06357
20.8328
-3.66956
8.36514
-0.0820535
15.3023
-7.52651
-146.945
-6.02142
-6.95787
-2.92089
1.26413
-25.0692
-9.34983
-3.30436
14.5995
22.4826
16.6597
39.9283
-17.3528
35.4315
-92.7885
33.8573
-12.5203
-16.3933
38.4679
6.44217
-7.56465
21.5617
-1.02958
23.7546
-13.3512
-83.1282
3.66097
-8.92624
-10.0182
0.00240721
-2.90929
5.89389
27.1898
-13.1129
7.08633
-38.9179
3.38987
-8.49906
-0.709669
-6.50706
-6.74998
-31.5574
27.1261
-0.684707
31.2443
6.88609
-7.68237
4.52755
-24.2523
0.364686
16.566
26.5812
39.1838
14.9309
16.6684
9.54675
-97.4369
37.7808
41.379
22.5426
-15.6702
-10.3269
-30.5437
19.5057
13.6083
6.44512
16.0917
-6.96326
-0.38474
-26.3169
31.8997
-17.8457
0.411755
-9.19133
20.6782
4.15805
44.0293
40.921
18.6176
-2.98422
4.24197
-69.1071
6.05411
41.9645
1.24583
0.259247
15.5345
0.236874
3.79359
-4.84823
-7.28496
3.91982
1.00066
9.1205
0.237604
4.04268
30.1684
6.33395
21.8073
-9.17167
-7.79563
37.0779
-19.345
-0.778609
4.33547
6.74732
0.177863
-10.539
2.66128
1.37534
-0.92261
43.9517
-224.328
-32.6116
-10.7456
-19.2565
2.48647
4.98364
-10.2263
-26.2037
-0.0105555
-46.4267
-22.0477
-10.8201
0.586937
1.43005
-0.0596246
43.4766
-0.568076
5.61858
-2.84909
2.51067
-90.0095
-5.45929
29.1626
20.6283
6.41302
-6.70559
20.4668
22.0499
-3.78176
-13.4594
0.152498
28.9698
-10.3631
17.8905
-1.22845
33.3694
2.12418
-9.22347
-31.0877
22.819
-8.49378
17.8552
-16.1167
42.0484
-9.96901
-6.3941
-18.9147
7.16935
-10.1694
-15.4926
-9.8813
3.14735
9.47109
-10.3829
-8.65578
-2.22898
1.03347
-8.67081
-21.6189
16.5943
-40.7332
18.1694
-9.84596
22.98
37.5596
20.0653
-74.3939
21.7072
2.24232
-1.09587
-2.2973
-8.93016
-34.853
1.25182
-5.90385
9.53848
-2.64535
-20.2211
-2.83321
-23.4991
10.1468
19.8256
-24.9278
-10.3848
-9.91109
0.150564
-6.99679
11.9965
-57.8648
-10.6033
19.9768
-5.28179
12.3792
-14.6407
-24.3052
-10.3845
-17.5065
42.3715
5.07928
-11.1479
3.64394
35.4392
37.2018
-9.1843
-5.08602
20.3202
-0.34989
0.987856
36.0934
10.9297
19.0836
44.5308
-10.3882
5.73476
1.0448
31.9743
21.2482
22.3115
26.8759
13.4133
0.334605
0.470962
7.68264
4.86801
-173.535
37.3841
-13.1964
-16.0121
0.130187
-8.58929
9.58806
-9.0668
-5.23477
3.89623
22.358
22.0191
24.9413
-10.3603
31.4875
36.3827
-30.1767
13.2563
-2.00878
-1.29411
-0.89429
9.94711
-10.1084
-11.0649
-24.2948
40.9339
-9.19768
24.9562
20.8615
29.085
16.1252
16.4809
-6.15447
0.3992
12.5941
-0.979055
-35.2272
-33.5565
1.50756
-9.6645
26.2093
-10.1088
-0.100065
1.47878
-92.8705
-9.52182
-113.474
18.6342
-5.25068
0.540186
6.51865
-12.0502
6.29671
-36.2175
-1.88889
22.6691
-10.6761
37.1435
0.0699428
39.3841
-0.0835316
0.146844
3.82321
16.9374
17.9958
-55.5749
-2.28395
-7.92907
3.00781
14.8063
44.7814
29.0924
6.01239
-10.426
10.7368
-13.0665
24.9676
-6.10558
10.7548
-8.50138
-9.43594
-91.544
7.35077
0.336058
-111.708
12.227
13.0881
36.0851
38.5168
-130.582
-29.0028
-1.76613
-24.3091
38.0926
-1.96815
-13.4116
7.11914
13.3674
-7.49609
-0.323696
2.3102
-1.09442
19.8096
-7.07251
4.8826
0.430622
-17.1766
-45.6338
-8.83926
-46.8427
-39.65
23.825
-9.29654
-9.07139
-4.98977
-10.6854
41.4305
16.2162
18.4415
-5.35306
9.9091
-2.99445
7.86977
3.84757
-10.06
-186.343
38.0164
22.363
-2.90172
-164.335
43.2551
-9.78728
-157.109
-8.43211
10.5774
-10.2879
-7.65386
32.1632
-3.95009
19.6103
6.16944
-9.79274
-3.48637
0.827233
9.90392
-52.4862
-2.18106
4.27881
20.9016
-10.8307
-130.106
-0.191608
-6.661
-27.2819
-24.0845
40.1737
11.9673
-12.7205
10.0514
3.4793
35.1269
11.5472
-214.263
12.4921
26.6767
23.9512
-9.00853
17.7128
-7.54078
37.7332
0.309129
20.9611
-11.0256
-8.55063
0.0870805
-8.81983
12.8258
5.1871
-230.21
-10.5708
25.4758
-5.69957
-3.68397
29.9547
14.9459
29.0843
18.3036
-12.7508
0.0486573
-1.53122
21.2991
0.0927644
26.8768
16.9098
37.0344
-9.91927
28.2726
10.5304
36.8993
-9.99419
-15.9008
38.2422
-9.8763
16.6078
-10.9949
33.1201
36.4755
22.3018
-42.9965
19.3019
27.9197
-8.32781
6.67002
-8.64522
29.9361
-9.82305
-6.95486
-43.1298
-53.3489
27.3395
10.1155
-55.7874
10.7023
36.4695
-15.2679
-6.63961
-66.7668
-16.8992
18.4589
-3.08716
18.4588
19.8462
-61.1149
41.5377
-0.6736
30.7173
31.1665
1.294
-0.454799
18.9922
-31.4822
-3.9138
18.8411
15.907
-10.986
19.9536
-9.14884
33.5877
22.34
7.36435
-0.188534
24.3669
-7.06167
10.8135
28.952
4.39933
0.247218
27.7528
22.8566
-11.3809
-90.4398
16.5399
24.1365
37.4635
-184.398
39.8721
38.4494
40.3155
-5.99183
26.7463
-11.5387
20.1088
29.565
27.9579
23.8391
32.1015
44.0898
17.2502
-203.425
0.279578
-154.056
43.534
11.1408
-6.63273
-10.4384
18.7218
31.7199
20.3139
5.86816
-2.13737
31.4922
-31.643
23.188
-10.5919
7.75796
-0.303113
6.32232
13.6859
-11.3668
-11.5434
-5.51896
-6.42034
-3.40219
26.2718
-7.53932
2.99549
19.8454
-23.879
13.7945
0.181522
-23.4548
-10.1498
-215.114
30.44
32.6418
-9.71918
7.21634
27.446
23.9345
0.390411
-11.1318
23.456
-187.731
29.6179
-22.7588
28.6976
11.3496
0.41143
26.3512
14.2366
28.3754
6.58266
8.24109
-7.75198
-82.6529
-26.5051
-1.14191
27.7998
-12.8689
-7.95945
-13.0304
31.0239
28.1737
5.19803
15.8397
31.1857
-36.038
20.4353
-0.179805
-9.56694
20.096
-9.06518
-9.87767
-22.3808
-141.325
-5.19002
-13.1874
-0.150492
-35.1541
-119.282
17.1882
37.6261
41.6614
35.6203
-12.8431
23.389
-12.0093
19.7469
30.8235
0.396172
27.2643
-12.9933
6.5793
-9.58416
-4.24215
29.7825
-19.5981
24.4895
-15.8744
-8.37777
-133.395
24.2356
24.2678
19.723
-11.0932
20.1368
-13.4822
-67.0537
-79.4287
5.56714
38.2127
-49.9958
-5.22705
-10.4941
20.2873
19.3166
-0.829379
10.8661
-14.1916
31.7235
29.1217
-7.75904
-6.98564
31.0694
-8.77797
-16.8472
-2.24293
27.8799
31.9108
-10.5931
15.2764
-6.20316
36.8454
-44.5311
-8.76442
-3.82247
34.5999
-2.34201
-8.00196
-5.96504
29.8565
15.4089
29.3817
-4.22093
-41.1768
23.924
42.8012
-69.3895
19.5911
-2.85924
-61.6045
-3.06442
6.83292
-11.1639
14.9341
-9.56061
11.6857
-6.71982
-10.3159
26.6878
32.5946
19.7993
-29.6327
-8.72912
25.3864
-13.009
7.12876
-10.5169
9.77953
-32.4567
21.8767
25.3118
-3.21276
23.846
36.7849
-5.38235
17.5642
24.0792
-90.6164
10.8928
-9.8171
9.57123
6.97621
15.0043
-0.00716295
6.20969
-3.80201
-50.4928
30.7288
7.84403
-5.6226
-8.88945
-3.7462
21.4356
-21.6321
40.2439
-8.73059
-172.123
-7.24849
27.0757
24.7052
29.419
-175.31
35.3737
-16.1419
17.2786
2.32725
-29.0982
18.4123
9.07517
-4.80047
14.2109
-136.866
16.9332
-103.973
-9.13611
0.613085
-21.8416
-24.645
19.0418
36.1037
0.965237
-11.8409
27.708
-29.1351
32.6915
9.40215
-1.37041
10.2242
20.7486
10.4786
-5.91397
1.37554
-2.56521
2.81275
5.47126
-27.1702
-10.3234
0.897388
13.1945
-4.82458
43.6783
23.3267
20.2724
33.2858
0.954014
23.0836
-12.8788
-137.024
-9.73275
19.9921
42.913
19.3929
-17.5974
30.5682
20.5557
20.8694
0.530796
-3.32058
10.5078
40.5809
1.49067
-10.2626
26.3347
31.4226
23.1054
20.7409
26.1374
14.5921
-11.2686
-11.069
23.5185
-96.3605
-87.0233
20.1509
-10.1948
0.0853309
6.32586
23.589
24.5899
24.8305
-5.37487
29.1667
30.0021
0.760528
26.1182
22.3653
17.6546
14.8014
14.8457
10.1163
-1.14825
27.2036
26.102
-35.3412
19.7439
-5.33438
0.101339
35.6967
26.9652
-0.402489
-11.9099
-10.2675
27.9776
15.2558
1.991
-0.534064
3.2107
-7.28896
4.34904
-11.1471
-5.05001
16.0913
-4.95409
-18.0528
-12.5755
34.0004
-11.4614
-96.7378
-11.1854
36.1269
-6.526
2.41517
1.71131
-47.5356
15.5737
18.7163
13.083
32
16.0397
-1.8982
-200.669
-11.7681
0.0350188
24.4275
-37.2075
-10.8164
-48.3942
-6.28514
-117.266
-11.006
-37.5167
-3.52355
5.67245
19.5878
28.6168
-5.78278
-0.925463
31.9869
23.4273
-10.6115
-6.61822
-168.855
12.6698
2.00577
10.6046
16.4992
-4.55543
-6.60857
-6.86548
3.43366
-14.7939
-225.427
2.29351
-11.2615
-171.629
-48.1219
-11.6294
2.20251
-134.141
9.96811
-10.0268
19.9315
17.8558
4.00857
27.3176
-12.8113
36.5094
-8.87265
-1.30415
-21.8408
20.8658
12.0317
-92.5181
-137.418
20.5863
25.1107
37.9093
-12.1359
-199.663
-12.212
-2.92363
-0.0085072
-9.65596
6.9815
-23.1187
11.5368
-11.5598
16.7406
0.442197
-2.22072
32.5637
18.8858
-20.5451
0.349662
-27.2472
-213.572
27.4905
41.8583
-116.688
26.8015
19.3767
-0.0639389
-8.47404
26.4774
25.1955
-38.6167
-6.52454
-10.0143
-12.8682
-21.2931
-16.2703
-20.0933
12.2062
-2.79724
22.7429
-12.6554
-48.4252
18.4639
-20.062
-43.5153
-1.30048
14.9762
-52.7131
-12.3455
-53.1586
-8.08185
-34.2651
38.629
-152.108
-6.3986
-12.5611
22.9576
-121.203
-6.03133
-30.0614
-18.5506
-8.60935
24.2612
-0.219956
-8.63673
17.8527
0.267644
-8.08433
-26.5068
-15.1719
14.9821
17.3001
20.6153
-115.49
32.8718
-6.8033
0.167863
1.08116
-45.0437
-11.3173
-12.1544
-14.0396
2.12279
6.83595
0.217382
-7.83254
-15.3769
19.9255
-16.2931
20.4765
-21.87
11.4994
-5.14296
-6.24619
-19.2731
45.0287
-5.5928
-64.6261
-71.8479
-12.5898
20.2328
0.0423472
-31.9781
0.562542
-48.7095
-11.9147
-102.938
-12.9747
23.905
-30.8596
0.738451
-57.4351
-2.18991
18.706
1.33746
8.70795
-9.75498
28.6743
-123.308
-10.2395
30.9223
7.66239
-112.872
-7.48685
-23.1401
-13.6947
-8.41953
27.6873
-9.4959
6.71261
-180.796
-22.6351
-24.1994
-28.5133
-133.427
12.7358
-5.35398
20.0521
5.47356
-17.6524
36.7227
-11.9386
25.8338
32.2816
-57.2601
-1.89117
22.3916
19.4101
17.0501
-11.8274
-18.0592
-19.4614
19.8036
3.37163
-13.4005
-26.4676
11.699
24.7224
-6.79881
-8.78266
-1.54675
30.2975
-27.9168
-31.2931
-0.140964
16.6011
-1.58248
-10.9819
32.9919
26.1264
0.139835
-12.6822
27.2808
8.43387
-4.01744
20.0903
-6.47262
-15.1351
-21.6308
-12.7277
25.4015
23.2122
-2.39018
-11.0075
-5.85121
-3.9296
23.5182
-12.5816
17.0252
28.8536
31.1614
-7.1312
21.0567
18.7714
24.1817
25.7615
-5.78901
25.7588
0.169884
20.5513
10.2167
22.5789
-11.361
26.8003
25.4894
17.7571
12.0911
-9.42557
14.9686
0.816047
-11.3923
29.711
28.4541
-10.8542
27.8084
-12.7844
-77.544
23.1013
22.6308
-25.7897
-3.65812
-182.945
-12.0711
-24.2804
-9.4249
-24.797
-8.59093
19.0756
39.7093
27.6602
-6.15843
-8.7573
22.9458
9.42294
-7.28763
-14.989
-8.5365
-31.889
-101.209
-79.5482
19.2799
-2.45781
7.44717
0.265898
0.203212
-9.33353
0.00978869
2.97599
10.6889
12.8872
-8.69074
10.8593
-52.3245
-15.0079
13.8752
9.29066
-1.87863
1.42171
12.3426
-0.736129
6.07517
-9.15264
20.4667
17.3127
34.8625
20.2608
-11.6765
-8.6596
-10.0372
-8.08305
-0.317522
-0.0593525
-3.45959
-11.0153
40.2166
1.68447
-5.7953
32.3233
-10.7547
-18.3827
-13.0541
-11.4848
-198.446
5.26901
-22.8704
20.9861
-4.22759
-11.1166
-36.0995
-7.59893
-14.8854
-6.39499
1.36473
14.9124
-10.136
-9.72164
-24.7967
7.35737
-14.0569
22.1647
33.3543
-7.94046
22.9232
11.7463
14.2106
36.6225
-11.2188
10.8603
10.0026
7.22313
31.3711
-9.84215
-2.80026
-6.19487
22.3437
33.4234
-9.17616
-1.21396
-13.2029
-12.3419
8.90932
-9.94119
-29.711
-8.58678
6.24037
-189.241
4.65761
5.39859
17.3857
4.35892
-191.493
0.541866
-0.448226
-4.61349
35.6557
40.2948
29.3921
41.5596
17.4451
22.3965
24.7292
21.215
18.532
-10.934
21.7217
-8.13827
-108.32
32.0827
-4.02036
-14.782
37.8478
-1.98033
-12.9638
8.77545
6.92598
25.7003
-60.8337
18.5498
34.5271
-10.9596
-83.7737
-27.5318
14.0967
-10.6196
28.0952
-4.04247
25.7211
20.1202
-10.0032
25.0902
-10.1949
-210.713
-205.918
-10.4757
26.3447
-12.6137
20.2041
-1.11996
-10.8396
1.89366
-7.17921
-27.5725
-9.28758
-174.637
26.4804
1.69806
-49.6457
-12.1239
11.8753
5.53608
-11.6162
8.12603
-0.000967376
8.68484
-74.5564
10.5591
3.56245
13.3956
-2.29223
19.6454
12.5249
3.94236
-146.133
42.0023
-14.9293
-65.7381
20.1552
17.1532
-17.7056
-13.8672
-11.0839
13.0999
10.7581
-12.0121
-4.08763
-5.69127
41.7404
-0.981753
-10.4789
1.84007
-9.33611
14.8002
-4.58232
18.9805
11.7303
-9.7401
13.0895
-200.987
17.0885
7.91153
21.5234
13.3122
0.0469101
0.111018
9.83138
22.8058
1.13328
1.99556
-89.0657
-15.5907
-9.62895
16.8588
-78.4364
9.87816
-117.627
26.4525
-14.0158
-7.04675
28.5164
25.4694
7.99891
-11.3798
-138.277
23.202
-4.2953
26.235
9.6532
-31.348
20.7993
4.71168
4.17728
3.15064
-8.08284
-9.92028
12.4027
-5.37434
29.244
6.13938
42.317
-2.55641
3.98572
25.6145
0.972626
5.67906
22.2767
18.0282
12.6018
-13.156
-0.671798
19.9951
13.7172
6.31834
-13.3653
-3.1009
-11.6995
-16.919
-8.54711
16.8772
0.56048
15.7548
-4.32127
35.3683
26.816
5.9401
17.3439
5.42214
-134.005
18.5254
15.0951
-0.803946
8.04652
26.3646
23.4857
-1.02869
-13.7511
-36.2736
18.9237
8.93521
-28.4523
22.1165
-13.2064
19.807
-44.7585
20.5342
8.24233
-0.613295
7.45046
24.6858
-2.4389
21.7658
28.3804
4.06977
-5.7129
10.1961
1.65258
33.3945
-25.8552
30.0141
24.9906
-15.0556
-8.48046
0.056543
-7.80942
-12.3148
-8.48519
18.5716
30.21
22.9063
30.8419
13.4177
27.8128
7.04544
2.97792
7.85597
1.24612
-0.068407
17.4748
0.987564
31.9826
4.44526
-57.3334
13.9303
31.7763
33.271
-16.9312
11.6336
-10.7594
-109.346
8.98349
2.01349
-10.0901
8.6855
33.5258
-197.942
-25.6161
-12.3208
7.60983
3.49909
1.1726
20.4417