# Moment      
# CofR        : (0.000000e+00 0.000000e+00 0.000000e+00)
#
# Time        	total_x total_y total_z	pressure_x pressure_y pressure_z	viscous_x viscous_y viscous_z
0.005          -2.362890e+02 2.157190e+02 2.695953e+02 -2.447717e+02 1.901873e+02 5.912692e+02 8.482769e+00 2.553170e+01 -3.216740e+02
0.01           -2.439946e+02 2.068403e+02 5.346215e+02 -2.523670e+02 1.828289e+02 8.472203e+02 8.372446e+00 2.401139e+01 -3.125988e+02
0.015          -1.988827e+02 1.706067e+02 1.191616e+02 -2.071621e+02 1.480662e+02 4.217622e+02 8.279411e+00 2.254049e+01 -3.026006e+02
0.02           -1.880221e+02 1.647705e+02 -7.367066e+00 -1.960845e+02 1.436047e+02 2.826701e+02 8.062354e+00 2.116580e+01 -2.900372e+02
0.025          -1.860219e+02 1.609591e+02 2.084912e+01 -1.937205e+02 1.409618e+02 2.972006e+02 7.698558e+00 1.999735e+01 -2.763515e+02
0.03           -1.890537e+02 1.582379e+02 1.158321e+02 -1.963556e+02 1.392257e+02 3.791911e+02 7.301847e+00 1.901222e+01 -2.633590e+02
0.035          -1.943864e+02 1.544372e+02 2.839342e+02 -2.013648e+02 1.363028e+02 5.360200e+02 6.978367e+00 1.813444e+01 -2.520858e+02
0.04           -2.059800e+02 1.549871e+02 4.894499e+02 -2.126606e+02 1.376466e+02 7.311417e+02 6.680643e+00 1.734050e+01 -2.416918e+02
0.045          -2.226094e+02 1.594849e+02 7.402722e+02 -2.290452e+02 1.428437e+02 9.730223e+02 6.435824e+00 1.664123e+01 -2.327501e+02
0.05           -2.321169e+02 1.595510e+02 9.240856e+02 -2.383726e+02 1.435288e+02 1.149440e+03 6.255762e+00 1.602218e+01 -2.253545e+02
0.055          -2.388669e+02 1.590119e+02 1.072906e+03 -2.449578e+02 1.435014e+02 1.291992e+03 6.090816e+00 1.551045e+01 -2.190856e+02
0.06           -2.438342e+02 1.596219e+02 1.167290e+03 -2.497658e+02 1.445320e+02 1.380802e+03 5.931529e+00 1.508993e+01 -2.135123e+02
0.065          -2.463872e+02 1.585394e+02 1.228787e+03 -2.521733e+02 1.438328e+02 1.436932e+03 5.786054e+00 1.470656e+01 -2.081450e+02
0.07           -2.560421e+02 1.604430e+02 1.395154e+03 -2.616712e+02 1.461082e+02 1.597552e+03 5.629056e+00 1.433473e+01 -2.023982e+02
0.075          -2.635869e+02 1.618538e+02 1.514483e+03 -2.690293e+02 1.478802e+02 1.710593e+03 5.442376e+00 1.397366e+01 -1.961101e+02
0.08           -2.727887e+02 1.639818e+02 1.650900e+03 -2.780096e+02 1.503618e+02 1.840293e+03 5.220850e+00 1.362001e+01 -1.893927e+02
0.085          -2.803622e+02 1.659117e+02 1.763991e+03 -2.853466e+02 1.526299e+02 1.946622e+03 4.984432e+00 1.328174e+01 -1.826313e+02
0.09           -2.859816e+02 1.671014e+02 1.845978e+03 -2.907569e+02 1.541347e+02 2.022508e+03 4.775223e+00 1.296671e+01 -1.765294e+02
0.095          -2.901358e+02 1.673707e+02 1.911160e+03 -2.947360e+02 1.546953e+02 2.082424e+03 4.600217e+00 1.267542e+01 -1.712642e+02
0.1            -2.937392e+02 1.666410e+02 1.985390e+03 -2.981793e+02 1.542420e+02 2.151968e+03 4.440091e+00 1.239901e+01 -1.665780e+02
0.105          -3.022795e+02 1.688362e+02 2.103359e+03 -3.065760e+02 1.567195e+02 2.265600e+03 4.296500e+00 1.211671e+01 -1.622408e+02
0.11           -3.088190e+02 1.697083e+02 2.205570e+03 -3.129870e+02 1.578919e+02 2.363601e+03 4.167932e+00 1.181636e+01 -1.580317e+02
0.115          -3.171267e+02 1.719993e+02 2.322201e+03 -3.211770e+02 1.604964e+02 2.476102e+03 4.050243e+00 1.150294e+01 -1.539006e+02
0.12           -3.201190e+02 1.720386e+02 2.370949e+03 -3.240513e+02 1.608502e+02 2.520752e+03 3.932211e+00 1.118838e+01 -1.498025e+02
0.125          -3.233379e+02 1.726349e+02 2.418826e+03 -3.271407e+02 1.617513e+02 2.564511e+03 3.802818e+00 1.088355e+01 -1.456845e+02
0.13           -3.263175e+02 1.732968e+02 2.462553e+03 -3.299868e+02 1.627048e+02 2.604180e+03 3.669261e+00 1.059195e+01 -1.416269e+02
0.135          -3.284355e+02 1.735391e+02 2.493127e+03 -3.319749e+02 1.632220e+02 2.630857e+03 3.539353e+00 1.031706e+01 -1.377305e+02
0.14           -3.318881e+02 1.739967e+02 2.544912e+03 -3.353026e+02 1.639387e+02 2.678927e+03 3.414448e+00 1.005791e+01 -1.340150e+02
0.145          -3.349782e+02 1.742391e+02 2.588696e+03 -3.382733e+02 1.644315e+02 2.719134e+03 3.295116e+00 9.807599e+00 -1.304376e+02
0.15           -3.397472e+02 1.754062e+02 2.653845e+03 -3.429310e+02 1.658474e+02 2.780803e+03 3.183851e+00 9.558748e+00 -1.269583e+02
0.155          -3.425966e+02 1.758225e+02 2.694352e+03 -3.456761e+02 1.665093e+02 2.817926e+03 3.079576e+00 9.313229e+00 -1.235734e+02
0.16           -3.453122e+02 1.763293e+02 2.735403e+03 -3.482928e+02 1.672540e+02 2.855712e+03 2.980590e+00 9.075353e+00 -1.203092e+02
0.165          -3.495144e+02 1.775906e+02 2.793156e+03 -3.523974e+02 1.687411e+02 2.910311e+03 2.883006e+00 8.849488e+00 -1.171555e+02
0.17           -3.531934e+02 1.787369e+02 2.842350e+03 -3.559801e+02 1.701005e+02 2.956448e+03 2.786609e+00 8.636352e+00 -1.140981e+02
0.175          -3.564798e+02 1.797010e+02 2.885449e+03 -3.591744e+02 1.712666e+02 2.996588e+03 2.694601e+00 8.434462e+00 -1.111388e+02
0.18           -3.608772e+02 1.809966e+02 2.946227e+03 -3.634832e+02 1.727535e+02 3.054476e+03 2.605930e+00 8.243083e+00 -1.082491e+02
0.185          -3.650803e+02 1.822296e+02 2.999835e+03 -3.675990e+02 1.741717e+02 3.105206e+03 2.518630e+00 8.057938e+00 -1.053711e+02
0.19           -3.682355e+02 1.830302e+02 3.038168e+03 -3.706687e+02 1.751560e+02 3.140668e+03 2.433186e+00 7.874209e+00 -1.024995e+02
0.195          -3.704378e+02 1.834363e+02 3.064314e+03 -3.727874e+02 1.757440e+02 3.163966e+03 2.349602e+00 7.692354e+00 -9.965154e+01
0.2            -3.733829e+02 1.843551e+02 3.096034e+03 -3.756508e+02 1.768415e+02 3.192895e+03 2.267937e+00 7.513570e+00 -9.686010e+01
0.205          -3.753227e+02 1.846663e+02 3.118388e+03 -3.775100e+02 1.773285e+02 3.212521e+03 2.187272e+00 7.337744e+00 -9.413319e+01
0.21           -3.773548e+02 1.849007e+02 3.142461e+03 -3.794624e+02 1.777362e+02 3.233931e+03 2.107578e+00 7.164497e+00 -9.147029e+01
0.215          -3.797808e+02 1.854783e+02 3.171307e+03 -3.818123e+02 1.784847e+02 3.260210e+03 2.031423e+00 6.993609e+00 -8.890295e+01
0.22           -3.810535e+02 1.852187e+02 3.188762e+03 -3.830129e+02 1.783925e+02 3.275214e+03 1.959416e+00 6.826208e+00 -8.645173e+01
0.225          -3.820926e+02 1.849156e+02 3.202169e+03 -3.839847e+02 1.782524e+02 3.286295e+03 1.892013e+00 6.663189e+00 -8.412586e+01
0.23           -3.829403e+02 1.845060e+02 3.213437e+03 -3.847706e+02 1.780015e+02 3.295380e+03 1.830291e+00 6.504492e+00 -8.194253e+01
0.235          -3.832354e+02 1.839575e+02 3.217492e+03 -3.850079e+02 1.776067e+02 3.297380e+03 1.772470e+00 6.350781e+00 -7.988726e+01
0.24           -3.839107e+02 1.837875e+02 3.225277e+03 -3.856265e+02 1.775839e+02 3.303211e+03 1.715796e+00 6.203625e+00 -7.793443e+01
0.245          -3.839048e+02 1.833859e+02 3.224141e+03 -3.855651e+02 1.773233e+02 3.300210e+03 1.660293e+00 6.062630e+00 -7.606920e+01
0.25           -3.836877e+02 1.830131e+02 3.219576e+03 -3.852941e+02 1.770867e+02 3.293849e+03 1.606396e+00 5.926397e+00 -7.427334e+01
0.255          -3.845739e+02 1.831840e+02 3.226867e+03 -3.861275e+02 1.773915e+02 3.299380e+03 1.553656e+00 5.792522e+00 -7.251285e+01
0.26           -3.854293e+02 1.835236e+02 3.232046e+03 -3.869293e+02 1.778634e+02 3.302787e+03 1.499943e+00 5.660130e+00 -7.074084e+01
0.265          -3.869811e+02 1.842572e+02 3.243707e+03 -3.884267e+02 1.787309e+02 3.312639e+03 1.445564e+00 5.526367e+00 -6.893252e+01
0.27           -3.883430e+02 1.849737e+02 3.253154e+03 -3.897341e+02 1.795838e+02 3.320233e+03 1.391038e+00 5.389896e+00 -6.707888e+01
0.275          -3.900998e+02 1.858398e+02 3.267051e+03 -3.914366e+02 1.805900e+02 3.332227e+03 1.336857e+00 5.249783e+00 -6.517619e+01
0.28           -3.916199e+02 1.867156e+02 3.275561e+03 -3.929030e+02 1.816100e+02 3.338783e+03 1.283135e+00 5.105564e+00 -6.322167e+01
0.285          -3.932342e+02 1.875019e+02 3.287467e+03 -3.944650e+02 1.825442e+02 3.348703e+03 1.230812e+00 4.957695e+00 -6.123542e+01
0.29           -3.946701e+02 1.881251e+02 3.298659e+03 -3.958494e+02 1.833175e+02 3.357888e+03 1.179333e+00 4.807648e+00 -5.922947e+01
0.295          -3.958572e+02 1.886486e+02 3.307044e+03 -3.969865e+02 1.839929e+02 3.364256e+03 1.129270e+00 4.655770e+00 -5.721195e+01
0.3            -3.973148e+02 1.891614e+02 3.320602e+03 -3.983963e+02 1.846568e+02 3.375822e+03 1.081454e+00 4.504526e+00 -5.522001e+01
0.305          -3.988048e+02 1.896624e+02 3.336614e+03 -3.998389e+02 1.853041e+02 3.389891e+03 1.034056e+00 4.358330e+00 -5.327715e+01
0.31           -4.009245e+02 1.904979e+02 3.358834e+03 -4.019146e+02 1.862822e+02 3.410224e+03 9.900791e-01 4.215678e+00 -5.139002e+01
0.315          -4.028424e+02 1.911606e+02 3.380149e+03 -4.037880e+02 1.870817e+02 3.429700e+03 9.456625e-01 4.078928e+00 -4.955114e+01
0.32           -4.045603e+02 1.917388e+02 3.400381e+03 -4.054606e+02 1.877896e+02 3.448148e+03 9.002557e-01 3.949157e+00 -4.776730e+01
0.325          -4.060443e+02 1.923081e+02 3.417401e+03 -4.068996e+02 1.884817e+02 3.463456e+03 8.553211e-01 3.826465e+00 -4.605499e+01
0.33           -4.074002e+02 1.928184e+02 3.433620e+03 -4.082120e+02 1.891081e+02 3.478039e+03 8.117708e-01 3.710367e+00 -4.441889e+01
0.335          -4.082368e+02 1.931341e+02 3.442146e+03 -4.090063e+02 1.895336e+02 3.485000e+03 7.695346e-01 3.600580e+00 -4.285334e+01
0.34           -4.098991e+02 1.938557e+02 3.459577e+03 -4.106284e+02 1.903595e+02 3.500936e+03 7.292642e-01 3.496225e+00 -4.135938e+01
0.345          -4.110149e+02 1.943073e+02 3.469927e+03 -4.117056e+02 1.909108e+02 3.509857e+03 6.906871e-01 3.396547e+00 -3.992954e+01
0.35           -4.126448e+02 1.950177e+02 3.486278e+03 -4.132991e+02 1.917171e+02 3.524840e+03 6.542593e-01 3.300596e+00 -3.856128e+01
0.355          -4.137646e+02 1.954703e+02 3.498109e+03 -4.143850e+02 1.922618e+02 3.535368e+03 6.204179e-01 3.208502e+00 -3.725906e+01
0.36           -4.149318e+02 1.959428e+02 3.510200e+03 -4.155193e+02 1.928213e+02 3.546213e+03 5.875499e-01 3.121536e+00 -3.601314e+01
0.365          -4.159279e+02 1.963026e+02 3.521325e+03 -4.164831e+02 1.932629e+02 3.556145e+03 5.552401e-01 3.039727e+00 -3.482036e+01
0.37           -4.171952e+02 1.967851e+02 3.535741e+03 -4.177181e+02 1.938225e+02 3.569410e+03 5.228971e-01 2.962596e+00 -3.366985e+01
0.375          -4.184220e+02 1.972349e+02 3.547620e+03 -4.189125e+02 1.943462e+02 3.580170e+03 4.904565e-01 2.888698e+00 -3.254978e+01
0.38           -4.197199e+02 1.977123e+02 3.560904e+03 -4.201785e+02 1.948953e+02 3.592364e+03 4.586543e-01 2.816963e+00 -3.145984e+01
0.385          -4.211090e+02 1.982159e+02 3.576392e+03 -4.215371e+02 1.954694e+02 3.606792e+03 4.281271e-01 2.746510e+00 -3.039999e+01
0.39           -4.223109e+02 1.986427e+02 3.590129e+03 -4.227101e+02 1.959657e+02 3.619501e+03 3.992669e-01 2.676986e+00 -2.937149e+01
0.395          -4.233455e+02 1.989413e+02 3.602446e+03 -4.237178e+02 1.963331e+02 3.630821e+03 3.722574e-01 2.608198e+00 -2.837507e+01
0.4            -4.240107e+02 1.990855e+02 3.610147e+03 -4.243576e+02 1.965455e+02 3.637555e+03 3.469257e-01 2.539999e+00 -2.740841e+01
0.405          -4.251746e+02 1.994319e+02 3.624105e+03 -4.254978e+02 1.969594e+02 3.650578e+03 3.231693e-01 2.472536e+00 -2.647271e+01
0.41           -4.259195e+02 1.995411e+02 3.633541e+03 -4.262202e+02 1.971354e+02 3.659104e+03 3.006947e-01 2.405655e+00 -2.556353e+01
0.415          -4.267253e+02 1.997139e+02 3.643614e+03 -4.270044e+02 1.973726e+02 3.668309e+03 2.790123e-01 2.341290e+00 -2.469546e+01
0.42           -4.276847e+02 1.999298e+02 3.655182e+03 -4.279439e+02 1.976517e+02 3.679045e+03 2.592260e-01 2.278049e+00 -2.386332e+01
0.425          -4.279640e+02 1.998045e+02 3.660115e+03 -4.282043e+02 1.975880e+02 3.683177e+03 2.402546e-01 2.216566e+00 -2.306169e+01
0.43           -4.288957e+02 2.000174e+02 3.672059e+03 -4.291163e+02 1.978601e+02 3.694338e+03 2.206637e-01 2.157312e+00 -2.227863e+01
0.435          -4.295018e+02 2.000912e+02 3.680449e+03 -4.297027e+02 1.979915e+02 3.701962e+03 2.009192e-01 2.099748e+00 -2.151308e+01
0.44           -4.301550e+02 2.001753e+02 3.689274e+03 -4.303352e+02 1.981314e+02 3.710026e+03 1.801844e-01 2.043960e+00 -2.075259e+01
0.445          -4.309163e+02 2.003403e+02 3.698970e+03 -4.310756e+02 1.983511e+02 3.718973e+03 1.593926e-01 1.989149e+00 -2.000277e+01
0.45           -4.314666e+02 2.003968e+02 3.707344e+03 -4.316054e+02 1.984617e+02 3.726609e+03 1.388534e-01 1.935092e+00 -1.926537e+01
0.455          -4.323342e+02 2.006285e+02 3.718398e+03 -4.324529e+02 1.987466e+02 3.736941e+03 1.187754e-01 1.881901e+00 -1.854276e+01
0.46           -4.332710e+02 2.008829e+02 3.730713e+03 -4.333702e+02 1.990533e+02 3.748547e+03 9.918241e-02 1.829617e+00 -1.783476e+01
0.465          -4.344668e+02 2.012731e+02 3.746102e+03 -4.345471e+02 1.994947e+02 3.763248e+03 8.037838e-02 1.778447e+00 -1.714605e+01
0.47           -4.354537e+02 2.015963e+02 3.757930e+03 -4.355152e+02 1.998673e+02 3.774399e+03 6.155872e-02 1.728985e+00 -1.646904e+01
0.475          -4.365394e+02 2.019705e+02 3.771064e+03 -4.365827e+02 2.002895e+02 3.786874e+03 4.323240e-02 1.681037e+00 -1.581000e+01
0.48           -4.377815e+02 2.024337e+02 3.785901e+03 -4.378067e+02 2.007990e+02 3.801067e+03 2.517628e-02 1.634692e+00 -1.516576e+01
0.485          -4.389149e+02 2.028443e+02 3.800228e+03 -4.389220e+02 2.012545e+02 3.814760e+03 7.102201e-03 1.589721e+00 -1.453203e+01
0.49           -4.402992e+02 2.033753e+02 3.817133e+03 -4.402886e+02 2.018298e+02 3.831042e+03 -1.058730e-02 1.545540e+00 -1.390848e+01
0.495          -4.415959e+02 2.038943e+02 3.832936e+03 -4.415685e+02 2.023926e+02 3.846235e+03 -2.742011e-02 1.501732e+00 -1.329901e+01
0.5            -4.426244e+02 2.042683e+02 3.845906e+03 -4.425801e+02 2.028094e+02 3.858602e+03 -4.426288e-02 1.458902e+00 -1.269645e+01
0.505          -4.440978e+02 2.048673e+02 3.864141e+03 -4.440373e+02 2.034502e+02 3.876253e+03 -6.046908e-02 1.417124e+00 -1.211181e+01
0.51           -4.453895e+02 2.053981e+02 3.880654e+03 -4.453136e+02 2.040213e+02 3.892206e+03 -7.584203e-02 1.376839e+00 -1.155156e+01
0.515          -4.465216e+02 2.058456e+02 3.895038e+03 -4.464309e+02 2.045070e+02 3.906054e+03 -9.076540e-02 1.338568e+00 -1.101635e+01
0.52           -4.479998e+02 2.064824e+02 3.913115e+03 -4.478947e+02 2.051802e+02 3.923621e+03 -1.051244e-01 1.302232e+00 -1.050635e+01
0.525          -4.490986e+02 2.069502e+02 3.926617e+03 -4.489800e+02 2.056826e+02 3.936640e+03 -1.186336e-01 1.267584e+00 -1.002332e+01
0.53           -4.501169e+02 2.073717e+02 3.940209e+03 -4.499843e+02 2.061371e+02 3.949755e+03 -1.326123e-01 1.234629e+00 -9.546138e+00
0.535          -4.511747e+02 2.078228e+02 3.953096e+03 -4.510284e+02 2.066205e+02 3.962173e+03 -1.462940e-01 1.202307e+00 -9.076654e+00
0.54           -4.524696e+02 2.084183e+02 3.969744e+03 -4.523100e+02 2.072480e+02 3.978356e+03 -1.595520e-01 1.170227e+00 -8.612295e+00
0.545          -4.535770e+02 2.089130e+02 3.984216e+03 -4.534048e+02 2.077750e+02 3.992368e+03 -1.722072e-01 1.138061e+00 -8.151987e+00
0.55           -4.547204e+02 2.094090e+02 3.998621e+03 -4.545364e+02 2.083033e+02 4.006320e+03 -1.840237e-01 1.105788e+00 -7.698630e+00
0.555          -4.558120e+02 2.098780e+02 4.012142e+03 -4.556166e+02 2.088043e+02 4.019392e+03 -1.953242e-01 1.073686e+00 -7.249999e+00
0.56           -4.571624e+02 2.104767e+02 4.029153e+03 -4.569559e+02 2.094345e+02 4.035955e+03 -2.065179e-01 1.042224e+00 -6.802791e+00
0.565          -4.585411e+02 2.110951e+02 4.046073e+03 -4.583238e+02 2.100837e+02 4.052435e+03 -2.172873e-01 1.011382e+00 -6.362788e+00
0.57           -4.598811e+02 2.116630e+02 4.063143e+03 -4.596531e+02 2.106819e+02 4.069070e+03 -2.279170e-01 9.811018e-01 -5.926541e+00
0.575          -4.611583e+02 2.121676e+02 4.079201e+03 -4.609198e+02 2.112166e+02 4.084691e+03 -2.385089e-01 9.510222e-01 -5.490419e+00
0.58           -4.623510e+02 2.126464e+02 4.094803e+03 -4.621022e+02 2.117254e+02 4.099860e+03 -2.488485e-01 9.210541e-01 -5.057283e+00
0.585          -4.634902e+02 2.130527e+02 4.109752e+03 -4.632312e+02 2.121616e+02 4.114379e+03 -2.589443e-01 8.910938e-01 -4.626710e+00
0.59           -4.647927e+02 2.135293e+02 4.125846e+03 -4.645234e+02 2.126680e+02 4.130039e+03 -2.693311e-01 8.613692e-01 -4.193248e+00
0.595          -4.657150e+02 2.138168e+02 4.138714e+03 -4.654354e+02 2.129848e+02 4.142479e+03 -2.795570e-01 8.319415e-01 -3.765007e+00
0.6            -4.672531e+02 2.143606e+02 4.158373e+03 -4.669633e+02 2.135578e+02 4.161713e+03 -2.898154e-01 8.027968e-01 -3.339824e+00
0.605          -4.685480e+02 2.147877e+02 4.175831e+03 -4.682479e+02 2.140137e+02 4.178748e+03 -3.001476e-01 7.739463e-01 -2.917728e+00
0.61           -4.700362e+02 2.152819e+02 4.194218e+03 -4.697258e+02 2.145367e+02 4.196718e+03 -3.104592e-01 7.452929e-01 -2.500099e+00
0.615          -4.712904e+02 2.156850e+02 4.210691e+03 -4.709691e+02 2.149679e+02 4.212771e+03 -3.212945e-01 7.170481e-01 -2.080579e+00
0.62           -4.723737e+02 2.159746e+02 4.225560e+03 -4.720410e+02 2.152853e+02 4.227219e+03 -3.326702e-01 6.892700e-01 -1.659714e+00
0.625          -4.734485e+02 2.162664e+02 4.239470e+03 -4.731042e+02 2.156046e+02 4.240711e+03 -3.443024e-01 6.617507e-01 -1.240921e+00
0.63           -4.748027e+02 2.167398e+02 4.257307e+03 -4.744466e+02 2.161051e+02 4.258134e+03 -3.560425e-01 6.346385e-01 -8.278463e-01
0.635          -4.759953e+02 2.171429e+02 4.272737e+03 -4.756276e+02 2.165347e+02 4.273162e+03 -3.677271e-01 6.081981e-01 -4.248159e-01
0.64           -4.772373e+02 2.176089e+02 4.288710e+03 -4.768584e+02 2.170265e+02 4.288747e+03 -3.789562e-01 5.824085e-01 -3.749979e-02
0.645          -4.783719e+02 2.180333e+02 4.303315e+03 -4.779813e+02 2.174755e+02 4.302975e+03 -3.905546e-01 5.578102e-01 3.406935e-01
0.65           -4.791192e+02 2.182833e+02 4.313797e+03 -4.787166e+02 2.177489e+02 4.313085e+03 -4.025760e-01 5.343158e-01 7.120060e-01
0.655          -4.800123e+02 2.186298e+02 4.325829e+03 -4.795978e+02 2.181183e+02 4.324757e+03 -4.144753e-01 5.115779e-01 1.072024e+00
0.66           -4.808606e+02 2.189728e+02 4.337497e+03 -4.804344e+02 2.184834e+02 4.336076e+03 -4.261850e-01 4.894060e-01 1.421502e+00
0.665          -4.819964e+02 2.195039e+02 4.351867e+03 -4.815589e+02 2.190362e+02 4.350107e+03 -4.375594e-01 4.677378e-01 1.759330e+00
0.67           -4.829110e+02 2.199475e+02 4.364259e+03 -4.824619e+02 2.195007e+02 4.362166e+03 -4.490952e-01 4.467367e-01 2.093047e+00
0.675          -4.837469e+02 2.203426e+02 4.375185e+03 -4.832859e+02 2.199164e+02 4.372757e+03 -4.609367e-01 4.261645e-01 2.427782e+00
0.68           -4.847308e+02 2.208498e+02 4.388126e+03 -4.842579e+02 2.204440e+02 4.385364e+03 -4.728508e-01 4.058100e-01 2.761348e+00
0.685          -4.856667e+02 2.213377e+02 4.400666e+03 -4.851821e+02 2.209523e+02 4.397572e+03 -4.845694e-01 3.853955e-01 3.093301e+00
0.69           -4.864585e+02 2.217489e+02 4.411611e+03 -4.859627e+02 2.213843e+02 4.408187e+03 -4.958468e-01 3.645816e-01 3.423952e+00
0.695          -4.877677e+02 2.224063e+02 4.428136e+03 -4.872604e+02 2.220627e+02 4.424375e+03 -5.072497e-01 3.436481e-01 3.760968e+00
0.7            -4.887878e+02 2.229098e+02 4.441093e+03 -4.882697e+02 2.225874e+02 4.436998e+03 -5.180845e-01 3.223698e-01 4.095154e+00
0.705          -4.897645e+02 2.233740e+02 4.453498e+03 -4.892363e+02 2.230732e+02 4.449073e+03 -5.282244e-01 3.007666e-01 4.424216e+00
0.71           -4.910180e+02 2.239913e+02 4.469742e+03 -4.904806e+02 2.237122e+02 4.464999e+03 -5.374598e-01 2.791207e-01 4.742706e+00
0.715          -4.923915e+02 2.246301e+02 4.486544e+03 -4.918459e+02 2.243726e+02 4.481498e+03 -5.455739e-01 2.575094e-01 5.046220e+00
0.72           -4.936000e+02 2.251906e+02 4.501838e+03 -4.930473e+02 2.249543e+02 4.496504e+03 -5.527055e-01 2.363486e-01 5.333963e+00
0.725          -4.949311e+02 2.257787e+02 4.518403e+03 -4.943721e+02 2.255630e+02 4.512797e+03 -5.590255e-01 2.156750e-01 5.606206e+00
0.73           -4.960951e+02 2.263013e+02 4.533612e+03 -4.955305e+02 2.261058e+02 4.527748e+03 -5.645755e-01 1.955131e-01 5.863608e+00
0.735          -4.974096e+02 2.268519e+02 4.550619e+03 -4.968402e+02 2.266762e+02 4.544511e+03 -5.694156e-01 1.757083e-01 6.107332e+00
0.74           -4.985220e+02 2.273006e+02 4.565513e+03 -4.979477e+02 2.271443e+02 4.559164e+03 -5.743336e-01 1.563054e-01 6.348893e+00
0.745          -4.995679e+02 2.277045e+02 4.580262e+03 -4.989880e+02 2.275671e+02 4.573665e+03 -5.798757e-01 1.373461e-01 6.596638e+00
0.75           -5.006316e+02 2.280958e+02 4.595269e+03 -5.000461e+02 2.279774e+02 4.588423e+03 -5.855830e-01 1.184001e-01 6.845940e+00
0.755          -5.020726e+02 2.286860e+02 4.614366e+03 -5.014812e+02 2.285864e+02 4.607271e+03 -5.914084e-01 9.959626e-02 7.095173e+00
0.76           -5.032452e+02 2.290994e+02 4.631037e+03 -5.026478e+02 2.290185e+02 4.623693e+03 -5.974024e-01 8.097362e-02 7.344119e+00
0.765          -5.042435e+02 2.294231e+02 4.646135e+03 -5.036400e+02 2.293607e+02 4.638543e+03 -6.034523e-01 6.241198e-02 7.592088e+00
0.77           -5.055678e+02 2.299013e+02 4.665273e+03 -5.049589e+02 2.298576e+02 4.657441e+03 -6.089316e-01 4.377089e-02 7.831689e+00
0.775          -5.065776e+02 2.302240e+02 4.681047e+03 -5.059628e+02 2.301984e+02 4.672973e+03 -6.148497e-01 2.552332e-02 8.074459e+00
0.78           -5.076974e+02 2.305692e+02 4.697780e+03 -5.070764e+02 2.305618e+02 4.689462e+03 -6.209920e-01 7.462755e-03 8.318086e+00
0.785          -5.090055e+02 2.310192e+02 4.716371e+03 -5.083782e+02 2.310296e+02 4.707809e+03 -6.273205e-01 -1.041550e-02 8.561844e+00
0.79           -5.102653e+02 2.314488e+02 4.735529e+03 -5.096314e+02 2.314769e+02 4.726723e+03 -6.338618e-01 -2.803952e-02 8.805588e+00
0.795          -5.112678e+02 2.317450e+02 4.751026e+03 -5.106271e+02 2.317903e+02 4.741977e+03 -6.407212e-01 -4.529159e-02 9.049569e+00
0.8            -5.123595e+02 2.320977e+02 4.768656e+03 -5.117117e+02 2.321599e+02 4.759364e+03 -6.478221e-01 -6.213462e-02 9.292700e+00
0.805          -5.136986e+02 2.325936e+02 4.788638e+03 -5.130439e+02 2.326723e+02 4.779108e+03 -6.546942e-01 -7.868736e-02 9.530435e+00
0.81           -5.150674e+02 2.331187e+02 4.808839e+03 -5.144058e+02 2.332132e+02 4.799076e+03 -6.616321e-01 -9.453299e-02 9.763380e+00
0.815          -5.162604e+02 2.335632e+02 4.827488e+03 -5.155919e+02 2.336729e+02 4.817498e+03 -6.685216e-01 -1.097783e-01 9.990214e+00
0.82           -5.173357e+02 2.339818e+02 4.844666e+03 -5.166604e+02 2.341061e+02 4.834455e+03 -6.753524e-01 -1.243788e-01 1.021035e+01
0.825          -5.183887e+02 2.343943e+02 4.861460e+03 -5.177066e+02 2.345326e+02 4.851037e+03 -6.820983e-01 -1.382515e-01 1.042275e+01
0.83           -5.194873e+02 2.348537e+02 4.878844e+03 -5.187985e+02 2.350051e+02 4.868217e+03 -6.887658e-01 -1.514117e-01 1.062712e+01
0.835          -5.205967e+02 2.353821e+02 4.896120e+03 -5.199008e+02 2.355457e+02 4.885292e+03 -6.958249e-01 -1.635311e-01 1.082860e+01
0.84           -5.216821e+02 2.359106e+02 4.914168e+03 -5.209801e+02 2.360858e+02 4.903153e+03 -7.020215e-01 -1.752011e-01 1.101589e+01
0.845          -5.224489e+02 2.362679e+02 4.927037e+03 -5.217410e+02 2.364543e+02 4.915843e+03 -7.079111e-01 -1.863627e-01 1.119477e+01
0.85           -5.236212e+02 2.368633e+02 4.944580e+03 -5.229078e+02 2.370603e+02 4.933217e+03 -7.133575e-01 -1.969942e-01 1.136279e+01
0.855          -5.245072e+02 2.373514e+02 4.959449e+03 -5.237887e+02 2.375582e+02 4.947928e+03 -7.184986e-01 -2.068290e-01 1.152082e+01
0.86           -5.251598e+02 2.377234e+02 4.971510e+03 -5.244365e+02 2.379394e+02 4.959842e+03 -7.232665e-01 -2.160046e-01 1.166884e+01
0.865          -5.261845e+02 2.382853e+02 4.987087e+03 -5.254569e+02 2.385100e+02 4.975280e+03 -7.276372e-01 -2.247167e-01 1.180772e+01
0.87           -5.276813e+02 2.391211e+02 5.009243e+03 -5.269500e+02 2.393543e+02 4.997308e+03 -7.312945e-01 -2.331515e-01 1.193526e+01
0.875          -5.288370e+02 2.397653e+02 5.025763e+03 -5.281026e+02 2.400067e+02 5.013704e+03 -7.343871e-01 -2.413314e-01 1.205909e+01
0.88           -5.299755e+02 2.403522e+02 5.041508e+03 -5.292385e+02 2.406019e+02 5.029328e+03 -7.370188e-01 -2.497574e-01 1.218049e+01
0.885          -5.312598e+02 2.410012e+02 5.060124e+03 -5.305207e+02 2.412595e+02 5.047828e+03 -7.390591e-01 -2.583368e-01 1.229600e+01
0.89           -5.319984e+02 2.413495e+02 5.073203e+03 -5.312580e+02 2.416168e+02 5.060799e+03 -7.403940e-01 -2.673073e-01 1.240393e+01
0.895          -5.332341e+02 2.419702e+02 5.091338e+03 -5.324923e+02 2.422463e+02 5.078823e+03 -7.418344e-01 -2.761506e-01 1.251452e+01
0.9            -5.343836e+02 2.425295e+02 5.108943e+03 -5.336407e+02 2.428144e+02 5.096324e+03 -7.429321e-01 -2.848658e-01 1.261930e+01
0.905          -5.356011e+02 2.431038e+02 5.127032e+03 -5.348574e+02 2.433972e+02 5.114316e+03 -7.436945e-01 -2.933212e-01 1.271606e+01
0.91           -5.364979e+02 2.435037e+02 5.141950e+03 -5.357537e+02 2.438052e+02 5.129144e+03 -7.442583e-01 -3.015046e-01 1.280568e+01
0.915          -5.375007e+02 2.439349e+02 5.157802e+03 -5.367561e+02 2.442442e+02 5.144917e+03 -7.445186e-01 -3.093100e-01 1.288494e+01
0.92           -5.385386e+02 2.443947e+02 5.174740e+03 -5.377938e+02 2.447111e+02 5.161782e+03 -7.448222e-01 -3.164206e-01 1.295740e+01
0.925          -5.396276e+02 2.448616e+02 5.191888e+03 -5.388825e+02 2.451846e+02 5.178865e+03 -7.450965e-01 -3.229199e-01 1.302327e+01
0.93           -5.407324e+02 2.453300e+02 5.209184e+03 -5.399872e+02 2.456590e+02 5.196101e+03 -7.452535e-01 -3.290555e-01 1.308241e+01
0.935          -5.418187e+02 2.458095e+02 5.226824e+03 -5.410735e+02 2.461443e+02 5.213690e+03 -7.452154e-01 -3.347655e-01 1.313335e+01
0.94           -5.428194e+02 2.462351e+02 5.243378e+03 -5.420745e+02 2.465753e+02 5.230203e+03 -7.448116e-01 -3.402315e-01 1.317436e+01
0.945          -5.439912e+02 2.467650e+02 5.261544e+03 -5.432466e+02 2.471102e+02 5.248330e+03 -7.445855e-01 -3.451460e-01 1.321415e+01
0.95           -5.449680e+02 2.472099e+02 5.278184e+03 -5.442240e+02 2.475597e+02 5.264938e+03 -7.439897e-01 -3.498165e-01 1.324597e+01
0.955          -5.459060e+02 2.476376e+02 5.294150e+03 -5.451633e+02 2.479920e+02 5.280882e+03 -7.427140e-01 -3.543734e-01 1.326736e+01
0.96           -5.469335e+02 2.481383e+02 5.312075e+03 -5.461915e+02 2.484966e+02 5.298786e+03 -7.420020e-01 -3.582904e-01 1.328937e+01
0.965          -5.478545e+02 2.485734e+02 5.327788e+03 -5.471136e+02 2.489354e+02 5.314484e+03 -7.408989e-01 -3.620362e-01 1.330348e+01
0.97           -5.488283e+02 2.490498e+02 5.344261e+03 -5.480883e+02 2.494154e+02 5.330941e+03 -7.399838e-01 -3.656073e-01 1.331926e+01
0.975          -5.499620e+02 2.496341e+02 5.362203e+03 -5.492228e+02 2.500031e+02 5.348868e+03 -7.392208e-01 -3.689305e-01 1.333499e+01
0.98           -5.510544e+02 2.501828e+02 5.379485e+03 -5.503161e+02 2.505551e+02 5.366135e+03 -7.383490e-01 -3.722840e-01 1.334938e+01
0.985          -5.523433e+02 2.508463e+02 5.399437e+03 -5.516059e+02 2.512222e+02 5.386072e+03 -7.373281e-01 -3.759836e-01 1.336468e+01
0.99           -5.535346e+02 2.514668e+02 5.418290e+03 -5.527984e+02 2.518470e+02 5.404907e+03 -7.361891e-01 -3.801943e-01 1.338271e+01
0.995          -5.544926e+02 2.519683e+02 5.434720e+03 -5.537575e+02 2.523532e+02 5.421313e+03 -7.351114e-01 -3.849200e-01 1.340678e+01
1              -5.553375e+02 2.523873e+02 5.449052e+03 -5.546031e+02 2.527775e+02 5.435607e+03 -7.344816e-01 -3.902695e-01 1.344457e+01
1.005          -5.564872e+02 2.529914e+02 5.468430e+03 -5.557531e+02 2.533878e+02 5.454937e+03 -7.341008e-01 -3.963810e-01 1.349250e+01
1.01           -5.575185e+02 2.534770e+02 5.486061e+03 -5.567845e+02 2.538803e+02 5.472509e+03 -7.340678e-01 -4.032595e-01 1.355146e+01
1.015          -5.582303e+02 2.538218e+02 5.500650e+03 -5.574961e+02 2.542327e+02 5.487032e+03 -7.341635e-01 -4.109523e-01 1.361800e+01
1.02           -5.591465e+02 2.542177e+02 5.515892e+03 -5.584116e+02 2.546369e+02 5.502193e+03 -7.348941e-01 -4.192163e-01 1.369953e+01
1.025          -5.599777e+02 2.545876e+02 5.531578e+03 -5.592411e+02 2.550154e+02 5.517781e+03 -7.365862e-01 -4.277886e-01 1.379747e+01
1.03           -5.610371e+02 2.550501e+02 5.549806e+03 -5.602990e+02 2.554873e+02 5.535906e+03 -7.381376e-01 -4.372037e-01 1.390044e+01
1.035          -5.619793e+02 2.554692e+02 5.567754e+03 -5.612392e+02 2.559163e+02 5.553742e+03 -7.400969e-01 -4.470581e-01 1.401181e+01
1.04           -5.629364e+02 2.558690e+02 5.585919e+03 -5.621942e+02 2.563264e+02 5.571793e+03 -7.421154e-01 -4.573779e-01 1.412598e+01
1.045          -5.635742e+02 2.561198e+02 5.600245e+03 -5.628294e+02 2.565875e+02 5.585992e+03 -7.448097e-01 -4.677334e-01 1.425257e+01
1.05           -5.642804e+02 2.563901e+02 5.615719e+03 -5.635327e+02 2.568684e+02 5.601335e+03 -7.477018e-01 -4.783302e-01 1.438452e+01
1.055          -5.648623e+02 2.565692e+02 5.630041e+03 -5.641117e+02 2.570583e+02 5.615523e+03 -7.506104e-01 -4.890809e-01 1.451801e+01
1.06           -5.654905e+02 2.567857e+02 5.643837e+03 -5.647369e+02 2.572857e+02 5.629183e+03 -7.535941e-01 -4.999970e-01 1.465329e+01
1.065          -5.660268e+02 2.569478e+02 5.657452e+03 -5.652697e+02 2.574584e+02 5.642660e+03 -7.571012e-01 -5.105823e-01 1.479112e+01
1.07           -5.669062e+02 2.572903e+02 5.673850e+03 -5.661466e+02 2.578118e+02 5.658928e+03 -7.596427e-01 -5.215408e-01 1.492125e+01
1.075          -5.674080e+02 2.574395e+02 5.686655e+03 -5.666457e+02 2.579717e+02 5.671607e+03 -7.622601e-01 -5.322108e-01 1.504858e+01
1.08           -5.682508e+02 2.577837e+02 5.702787e+03 -5.674857e+02 2.583262e+02 5.687614e+03 -7.651029e-01 -5.425129e-01 1.517358e+01
1.085          -5.687908e+02 2.579859e+02 5.715952e+03 -5.680225e+02 2.585382e+02 5.700656e+03 -7.683145e-01 -5.522199e-01 1.529612e+01
1.09           -5.689650e+02 2.579890e+02 5.725602e+03 -5.681933e+02 2.585504e+02 5.710188e+03 -7.716960e-01 -5.613825e-01 1.541408e+01
1.095          -5.695107e+02 2.582099e+02 5.738482e+03 -5.687367e+02 2.587806e+02 5.722964e+03 -7.740274e-01 -5.706493e-01 1.551816e+01
1.1            -5.698935e+02 2.583671e+02 5.749685e+03 -5.691168e+02 2.589461e+02 5.734065e+03 -7.766489e-01 -5.790567e-01 1.562040e+01