/*--------------------------------*- C++ -*----------------------------------*\
| =========                 |                                                 |
| \\      /  F ield         | OpenFOAM: The Open Source CFD Toolbox           |
|  \\    /   O peration     | Version:  2306                                  |
|   \\  /    A nd           | Website:  www.openfoam.com                      |
|    \\/     M anipulation  |                                                 |
\*---------------------------------------------------------------------------*/
FoamFile
{
    version     2.0;
    format      ascii;
    arch        "LSB;label=32;scalar=64";
    class       volVectorField;
    location    "4.5";
    object      U;
}
// * * * * * * * * * * * * * * * * * * * * * * * * * * * * * * * * * * * * * //

dimensions      [0 1 -1 0 0 0 0];

internalField   nonuniform List<vector> 
13486
(
(6.48498 -1.24595 1.34807e-20)
(6.94458 0.61608 7.50437e-21)
(9.18047 0.137234 0)
(10.817 -3.53034 -1.22954e-19)
(10.5279 -0.578499 -5.84278e-21)
(9.30672 0.531561 -9.99401e-22)
(9.65292 2.28532 -5.84883e-22)
(9.30552 -2.91052 7.95729e-22)
(8.43561 -1.44142 0)
(7.68071 2.12052 0)
(-3.00812 2.45123 -1.21526e-20)
(9.96304 -0.87226 0)
(6.06421 -2.05282 -1.32245e-20)
(9.06308 2.38951 -2.01501e-21)
(9.29722 0.639712 -9.29913e-22)
(7.57139 2.21679 -6.87408e-21)
(-0.375999 0.640656 1.18614e-20)
(6.19972 -5.36947 8.70539e-21)
(9.08658 -0.183873 9.16386e-23)
(6.96303 -0.557909 -1.38032e-20)
(-0.89384 6.17894 -4.78911e-20)
(6.12648 -2.10186 1.70373e-20)
(7.0255 0.591745 -6.01151e-21)
(11.6948 -1.27581 0)
(8.00179 1.77119 2.34122e-21)
(11.8057 -1.3793 -4.66092e-21)
(-1.19374 0.467962 1.40761e-20)
(9.88987 -0.400821 6.19979e-21)
(7.50126 -1.06745 0)
(10.1272 -1.31048 -4.49581e-21)
(-6.5237 7.37944 -1.81811e-20)
(7.79837 0.11963 -3.49123e-21)
(11.545 -0.383113 7.50449e-21)
(9.02029 -0.45182 0)
(9.34193 -2.71993 0)
(6.26087 0.199379 7.11906e-22)
(9.38758 -5.75925 -1.21391e-19)
(7.30021 -3.35496 4.54014e-21)
(6.98865 4.38679 4.72827e-22)
(8.27923 -0.845937 4.83144e-21)
(13.5314 -0.846047 0)
(5.41362 -2.56746 -1.61565e-20)
(9.54501 -0.0339291 0)
(8.0064 1.51056 -1.09419e-20)
(8.03067 1.52473 4.45975e-21)
(10.0704 -0.901887 3.96564e-21)
(-2.49996 4.23001 2.78025e-20)
(7.67512 -1.03878 -4.42859e-23)
(12.8439 -7.84998 9.15645e-20)
(10.1258 0.0872113 2.13502e-21)
(7.96201 0.042863 9.19727e-21)
(8.4721 2.42233 0)
(8.52778 -2.52051 -5.26934e-21)
(7.45645 -2.66242 -7.09982e-21)
(5.52249 -6.08844 0)
(10.3372 -0.869849 2.90716e-21)
(5.38716 -0.319841 -1.01298e-21)
(8.05475 2.3802 5.84808e-21)
(11.3834 -0.252992 8.84727e-21)
(-3.65266 0.769268 0)
(-2.09819 3.74735 -1.20852e-20)
(-1.30056 1.35488 0)
(14.467 1.81014 -1.09348e-20)
(-1.07647 3.95767 -5.33488e-22)
(10.8786 -1.09857 0)
(4.11252 -4.78608 -6.06549e-20)
(8.15532 -3.8006 -1.18071e-19)
(6.33245 -0.308438 4.95418e-21)
(8.46958 -1.54909 -2.09749e-21)
(10.5471 -3.18868 5.82259e-23)
(11.8602 -5.76239 1.36337e-19)
(5.95973 -6.3898 1.79579e-22)
(8.08929 -0.460999 4.19648e-21)
(-1.22524 0.438274 -8.77653e-21)
(0.846115 -5.90758 -1.19208e-20)
(5.41003 -0.275867 2.68538e-22)
(2.62084 -7.37418 2.56194e-20)
(9.43673 0.637299 5.58108e-22)
(-3.11168 3.98429 -1.61632e-20)
(4.908 -3.83668 0)
(7.56063 0.176971 -2.1674e-22)
(6.7533 0.896052 -4.94327e-22)
(15.494 2.01654 1.41408e-21)
(10.4123 0.640828 -9.8118e-22)
(6.48172 -1.26956 -2.62001e-20)
(5.93787 4.66298 0)
(-0.445153 2.03058 -3.11085e-20)
(7.98304 0.0941426 -1.44708e-20)
(7.56858 0.509594 -6.21238e-21)
(6.9862 2.90166 -8.99318e-21)
(6.93972 -0.641374 -3.01832e-21)
(9.87775 -2.1047 1.29794e-21)
(6.74637 -1.62094 3.23367e-21)
(7.00082 -0.0599596 3.79846e-22)
(8.34963 -2.35236 7.60649e-22)
(7.91453 -0.860309 1.11432e-23)
(-1.30975 0.575207 0)
(-3.97919 -3.67524 5.04973e-20)
(8.28343 -0.807891 -9.29357e-21)
(-0.462543 0.803599 2.03505e-23)
(6.77452 0.14772 0)
(8.9694 2.37699 -8.42616e-22)
(-3.46185 -1.43831 -4.4357e-21)
(7.5938 2.77424 -7.05344e-21)
(5.27632 4.31688 0)
(-0.792019 1.09221 3.36012e-23)
(7.94288 0.0797802 -7.32366e-24)
(6.10858 3.82106 1.16779e-21)
(-3.14232 3.97487 1.83742e-20)
(9.86147 -4.40129 0)
(7.8812 -3.61367 0)
(7.74748 1.2519 -2.50107e-21)
(7.49459 -2.58914 1.59696e-22)
(6.68778 -1.07597 1.32139e-22)
(5.22474 -0.844584 0)
(7.7873 -3.62583 -1.41531e-21)
(7.88301 1.86446 0)
(9.08256 -0.417331 0)
(8.09514 -0.441415 0)
(13.6996 -8.92474 -2.9714e-20)
(6.53689 -5.45507 -2.70246e-21)
(-3.27017 3.79561 0)
(8.15294 -2.14385 0)
(5.67168 3.83111 -2.03587e-21)
(8.69498 -2.7925 0)
(9.41981 2.16058 0)
(8.93126 -0.521998 6.47057e-23)
(8.42662 0.298993 5.11904e-21)
(8.27603 -0.179555 3.90449e-22)
(12.5093 -2.43489 -1.52025e-20)
(8.80606 2.28679 8.20429e-22)
(-3.49163 4.46637 -7.24232e-21)
(0.0809444 0.778136 1.26786e-20)
(-0.475345 -0.0769973 1.28459e-20)
(7.98905 0.0144509 -1.46839e-21)
(7.56804 1.24173 -8.05174e-21)
(3.68445 1.20369 -5.07466e-21)
(9.64956 -3.85717 0)
(13.8965 -7.82142 6.28061e-21)
(9.18844 -2.11422 -3.71967e-22)
(11.0108 0.0544073 -6.98958e-21)
(8.70867 -2.90033 4.30275e-21)
(8.36586 -0.878793 0)
(4.97342 -3.90879 0)
(9.43622 -0.143443 6.34186e-22)
(15.5029 -1.68138 -2.24657e-20)
(16.1628 3.36079 1.25305e-20)
(0.389764 3.35535 0)
(10.4325 0.150803 0)
(7.47679 -1.05333 0)
(7.9675 0.0181979 1.73263e-22)
(10.1704 0.524107 0)
(7.31548 0.156345 2.26835e-22)
(6.65467 0.816238 -4.26026e-21)
(8.46056 1.04667 0)
(9.79121 0.244109 0)
(10.6665 -4.17067 0)
(7.31225 9.43217 1.66946e-20)
(8.02743 -3.03418 7.26057e-21)
(5.39853 3.8278 -4.26591e-21)
(10.0031 0.128195 5.2617e-22)
(8.02633 -2.95558 -1.06852e-20)
(5.90582 0.00498828 3.07892e-21)
(4.88522 -2.43742 6.9732e-21)
(8.81039 2.16991 0)
(9.44285 2.44349 1.30314e-21)
(8.8386 2.1737 6.08695e-21)
(2.91528 -1.09117 -2.01741e-20)
(14.9316 4.3796 -3.28811e-20)
(-0.516766 -0.178336 3.50184e-21)
(-1.74755 1.53474 5.79612e-22)
(8.42435 0.938434 4.07694e-21)
(7.94521 0.163578 -1.28672e-20)
(8.97159 -0.213819 1.09115e-22)
(7.98899 -0.147145 -1.21638e-22)
(-7.6403 1.92472 0)
(8.87025 3.38662 -3.82419e-21)
(11.3458 0.272388 9.65277e-21)
(7.93902 0.058271 -1.35266e-20)
(8.35628 -0.974886 0)
(8.52725 -0.972919 8.13577e-21)
(6.9523 -1.16519 2.52052e-22)
(8.90204 -0.292455 6.70671e-23)
(-0.23571 0.255599 0)
(11.5251 1.31906 1.79841e-21)
(9.95651 -0.354241 -2.78706e-21)
(7.22228 -1.00537 -5.28969e-23)
(9.53668 -0.963363 -9.04749e-22)
(14.89 -2.66905 0)
(7.12554 -3.39473 -3.21558e-21)
(13.0214 -9.39052 0)
(8.7628 -0.136916 0)
(6.67359 1.74906 0)
(7.33727 2.73515 -9.84097e-21)
(6.56863 1.12303 0)
(-3.29233 2.25683 -3.39865e-21)
(11.4892 -1.75203 3.22354e-20)
(9.88006 0.0444711 3.20719e-22)
(6.54806 -3.18599 -2.48475e-21)
(9.35251 2.26411 1.45797e-21)
(-7.87466 9.02356 1.66661e-20)
(8.47814 0.348495 -1.60478e-22)
(7.25287 -3.42904 -5.26114e-21)
(10.9522 -3.24753 -6.9237e-21)
(5.19022 4.33635 5.30932e-21)
(7.07 1.09883 4.22878e-21)
(3.22184 -1.93112 4.64459e-21)
(7.81325 -0.269213 9.67582e-21)
(6.33435 2.54901 0)
(10.9326 1.27069 0)
(9.65145 -0.472579 3.42428e-21)
(12.9458 -1.59204 1.16782e-20)
(7.03378 -0.450171 1.26729e-20)
(7.89296 0.102986 -3.105e-24)
(9.29205 0.663899 1.15253e-21)
(8.26887 -4.10135 5.42955e-22)
(10.2727 -1.11514 0)
(7.08109 2.74155 2.1094e-20)
(7.06225 -1.65588 0)
(11.3458 2.68095 0)
(-0.312219 0.724295 -2.25781e-20)
(10.3546 0.215078 0)
(9.11064 -2.16501 6.10285e-22)
(10.5113 0.172932 0)
(9.71285 -4.29245 -1.92869e-22)
(6.26698 -2.89711 4.44622e-21)
(9.68028 1.18893 6.41734e-23)
(-9.88736 5.29934 9.48989e-21)
(8.06144 -2.83334 9.27848e-22)
(0.019394 0.954526 5.05984e-21)
(8.52161 -0.902939 -2.6596e-21)
(17.6299 5.49437 6.22839e-20)
(11.1024 0.00634851 8.73191e-21)
(5.30748 -2.51111 5.62072e-21)
(-9.32831 3.9941 0)
(6.00313 -2.90632 4.91189e-22)
(9.19698 -0.884582 8.55342e-22)
(8.61149 -0.14886 -8.87021e-22)
(6.11409 -2.90572 1.37783e-20)
(8.90312 -0.347374 0)
(11.4271 -0.402718 0)
(8.00759 0.142358 1.98417e-20)
(7.69492 -1.15833 0)
(5.86689 -2.88566 4.20195e-21)
(4.82055 4.56143 -1.25004e-21)
(7.47314 0.00826147 0)
(9.42505 -0.104237 -9.36339e-22)
(10.9414 -1.31226 1.39824e-20)
(0.397736 -0.247889 2.16338e-20)
(7.89332 1.41822 0)
(-7.49112 0.200008 -7.68765e-21)
(5.12508 -0.756006 2.24011e-21)
(7.37612 -3.56854 1.12024e-21)
(5.22872 3.25048 0)
(6.86567 -2.69701 -7.68451e-22)
(-5.10595 1.90624 5.5928e-21)
(8.08292 -0.0801673 3.52303e-21)
(8.76345 -4.34589 -6.86107e-22)
(7.45836 7.1075 -1.74768e-20)
(11.4544 -0.562142 6.49353e-21)
(7.2754 0.507 0)
(6.14412 5.72443 5.12346e-22)
(9.3217 0.593748 1.94879e-21)
(-6.59783 2.61467 -6.98293e-21)
(10.8034 -2.42127 8.77169e-21)
(-0.727719 0.471834 0)
(6.78157 -2.24463 1.24879e-21)
(-10.7678 10.029 -3.66579e-20)
(8.24007 -0.0353886 -5.29563e-21)
(7.20683 -7.50003 0)
(6.20336 2.48443 7.81579e-21)
(7.94024 0.088328 -3.80317e-21)
(10.046 -1.20935 0)
(10.1841 -1.74278 3.24037e-21)
(6.4725 -3.032 5.88533e-21)
(10.9421 -1.76053 -7.85168e-21)
(5.87838 -2.5529 0)
(4.12249 -9.96012 0)
(4.06596 2.44131 1.67556e-21)
(16.205 0.644999 -1.90653e-20)
(4.48505 -10.531 1.61136e-20)
(8.64172 -0.506822 -3.06529e-21)
(7.85722 0.138628 8.19592e-21)
(11.855 -1.48389 -8.53313e-21)
(-4.40558 4.03923 1.64272e-20)
(-1.94285 1.11388 2.33484e-20)
(11.0652 0.307161 7.31516e-21)
(8.56438 -0.294226 -5.13426e-22)
(8.68608 -4.04562 7.01691e-23)
(8.15345 -0.0348687 0)
(-7.44226 4.57641 0)
(2.61398 8.05584 1.06539e-20)
(7.6533 -3.5349 2.43505e-21)
(7.99982 0.0309646 -1.42752e-21)
(8.91059 -0.787918 1.98943e-22)
(9.42855 -0.946609 0)
(9.53619 -0.0728045 -6.95374e-22)
(10.8361 -1.48578 -2.6105e-21)
(7.83282 0.0957615 -7.40481e-21)
(11.7676 1.34732 -1.15827e-20)
(5.16665 0.175567 -3.66992e-21)
(4.21017 -3.40697 2.75873e-22)
(16.2706 0.91784 1.62483e-20)
(8.18 0.043234 3.54098e-21)
(16.3928 -6.64492 1.61937e-20)
(10.7517 -5.70039 0)
(16.9679 8.67274 0)
(8.52663 -0.0996046 1.75754e-21)
(-0.084932 2.24793 2.09743e-20)
(10.1341 -8.44901 0)
(7.76071 5.48732 -1.76065e-20)
(8.44232 -1.20514 0)
(8.5367 3.2865 2.85252e-21)
(7.92114 1.18106 -3.39119e-21)
(3.48066 -1.2677 0)
(7.50298 1.07343 -5.04804e-21)
(4.59671 8.14997 -1.59372e-20)
(7.51686 0.484803 -5.2977e-22)
(7.78351 -0.26072 -1.08812e-20)
(7.49389 -2.29864 0)
(9.547 -7.46863 1.09884e-19)
(4.22402 9.0577 6.39027e-22)
(7.96979 0.0863778 1.71319e-21)
(6.96344 0.0914678 -7.28442e-21)
(3.68324 1.23981 9.20515e-21)
(7.48907 -0.778324 6.43859e-21)
(9.39302 -0.595193 1.70766e-22)
(8.6799 -0.497355 0)
(12.3882 -0.584631 4.15224e-22)
(9.48694 -0.440984 8.87699e-22)
(7.96563 0.0163354 2.09081e-20)
(10.0179 -1.99776 0)
(6.99865 -0.917059 -1.64236e-21)
(6.16107 0.778157 0)
(10.0314 2.26575 1.3163e-20)
(8.59323 -2.10852 -1.55296e-21)
(4.16874 -1.93516 7.30299e-21)
(10.2172 0.47999 5.17523e-21)
(7.99943 0.492615 0)
(5.01665 5.01447 -4.76672e-21)
(7.66401 -2.26892 -1.44726e-21)
(6.9789 0.0972076 6.88842e-21)
(9.65499 -0.440194 -1.8323e-21)
(8.78285 -0.255612 3.36151e-21)
(-4.56832 3.45886 -1.46857e-20)
(7.71386 -0.982143 -3.15306e-24)
(8.94763 -0.33848 0)
(5.08208 -1.822 1.67811e-20)
(11.3568 2.68724 0)
(5.5855 7.59595 -6.47986e-22)
(8.58328 -0.201378 5.62663e-21)
(11.798 -1.51279 -2.1025e-21)
(10.3903 -1.85893 2.58866e-21)
(-1.2949 0.451769 -1.63428e-20)
(7.84025 0.104915 9.21461e-21)
(7.3326 0.255494 0)
(-1.30636 0.0954993 -7.2347e-21)
(8.94511 -0.490517 -1.30813e-21)
(0.704527 1.71571 -7.37455e-21)
(11.6987 -2.25295 8.8885e-21)
(10.0073 -0.142151 0)
(6.77721 -1.34346 4.08254e-21)
(7.39182 0.276423 1.50556e-20)
(7.92089 0.111458 1.15627e-20)
(10.0356 -1.47856 0)
(7.19192 0.112827 2.92396e-23)
(9.26549 -0.843101 -8.03329e-22)
(-2.75157 4.45998 2.94504e-21)
(6.90637 -0.531319 1.76737e-21)
(8.93864 -0.447329 1.24771e-21)
(10.0243 -0.0279427 -2.81051e-22)
(8.85951 -0.34891 0)
(11.2859 -4.87907 3.16415e-22)
(-7.73932 1.89272 5.63238e-21)
(9.15236 1.33633 -2.70812e-21)
(7.99452 0.0339292 7.64711e-21)
(6.50238 0.0107832 0)
(5.93976 6.70325 -1.18906e-20)
(6.3596 -2.15172 0)
(11.1931 3.97566 -3.87947e-21)
(8.28247 -0.0738667 0)
(10.2433 -2.44985 -3.53152e-22)
(6.11722 -0.914394 -3.92761e-21)
(5.94047 1.91135 1.78128e-20)
(-1.55343 3.55397 -1.45026e-20)
(6.45361 -2.17707 0)
(8.76765 0.240951 -4.67582e-21)
(8.01114 0.537302 -5.56512e-21)
(0.919439 -0.31559 -7.56571e-21)
(-3.13012 14.6126 4.07424e-21)
(7.11184 -0.516882 -1.88517e-20)
(10.127 -1.03298 2.47989e-21)
(8.17837 0.574268 4.32287e-21)
(6.7449 -2.14057 0)
(6.02536 0.45465 8.61106e-21)
(11.6086 -7.96317 -1.39009e-20)
(9.27912 -2.25919 7.08918e-20)
(-7.26235 0.966359 -2.02019e-20)
(0.74904 0.112819 -1.4429e-20)
(11.1195 0.249098 0)
(0.882802 -0.091022 0)
(7.74015 3.48478 0)
(8.54098 -0.239676 0)
(13.6708 5.45508 -3.28887e-20)
(9.67992 1.95004 0)
(9.21864 -10.3825 0)
(7.05634 0.0304736 2.79053e-21)
(11.3256 0.241509 -9.91811e-21)
(8.80985 -0.362498 -3.84798e-21)
(7.04199 0.744619 2.64322e-20)
(8.01792 0.0913195 -2.76131e-21)
(8.12829 5.12382 0)
(10.3286 -0.793372 0)
(7.81519 0.118138 7.92564e-21)
(8.04158 0.0465274 1.37203e-21)
(5.36431 2.42164 0)
(-0.187396 0.234264 1.51438e-20)
(11.0334 -2.50984 -9.8396e-21)
(-2.53544 -0.80477 0)
(8.94636 -0.355645 3.86112e-21)
(7.95146 0.0994186 -9.09041e-21)
(4.29659 3.01801 -3.99707e-21)
(5.07059 -1.78982 0)
(7.98324 0.547484 1.00822e-20)
(9.86508 0.709797 0)
(9.54247 -0.992259 0)
(8.55196 0.650759 -7.5326e-22)
(7.83518 0.15744 4.34953e-21)
(-1.14274 0.534165 -1.84329e-20)
(8.7474 2.10911 2.08223e-21)
(6.25326 -1.74015 -6.44385e-21)
(8.38964 -0.212645 6.89278e-22)
(8.19724 0.624088 3.45279e-21)
(11.1198 -4.41985 -4.79558e-21)
(11.2843 -1.9634 0)
(11.0166 -1.22478 6.46015e-21)
(6.09292 -0.696144 0)
(3.46536 7.77539 8.56632e-21)
(8.90296 -0.262308 0)
(6.40347 -0.282108 1.05953e-20)
(-1.85737 3.0545 -2.0836e-20)
(10.4558 -0.978219 0)
(-0.843174 -0.0160723 5.75363e-22)
(10.6031 -0.847452 -5.72928e-21)
(4.84775 8.1593 -2.67725e-20)
(7.73992 -1.15612 1.45361e-20)
(5.72527 1.9034 -1.12309e-20)
(6.21987 -1.71443 -1.88205e-20)
(11.9668 3.74893 0)
(14.6733 -8.34971 3.03337e-20)
(-4.54772 3.6153 -3.49869e-20)
(7.95982 0.565679 0)
(7.50249 0.54447 5.80412e-22)
(10.4267 0.0171893 -4.76666e-22)
(9.66223 3.60713 0)
(8.00108 0.0052882 0)
(0.176383 -0.569498 0)
(-4.81583 1.02057 2.53146e-20)
(13.3265 -1.55832 1.01067e-20)
(14.0899 -1.42963 1.2805e-21)
(8.50129 3.10931 0)
(7.40551 -0.891865 1.1142e-20)
(8.08737 -0.0891384 2.30906e-22)
(8.74909 1.95596 -4.79701e-21)
(4.82598 4.26488 9.84139e-20)
(7.71979 0.389544 0)
(7.57568 -1.05575 0)
(4.06612 -1.08651 -1.20554e-20)
(6.64227 -2.12534 -4.28345e-21)
(8.20153 -0.653996 0)
(8.83146 -4.01627 2.48568e-21)
(6.75461 0.169834 -4.5762e-22)
(7.80334 -0.741667 -1.39962e-23)
(4.47246 -2.03598 0)
(7.96022 0.280076 -2.72058e-21)
(13.4201 -8.06628 1.37818e-20)
(9.8409 0.667635 -3.369e-22)
(8.56443 -2.22432 0)
(-1.82522 1.3188 -3.53216e-20)
(10.8941 -1.52554 2.85094e-21)
(7.98109 0.223255 1.99409e-21)
(9.26123 -0.533071 2.45472e-21)
(9.63858 2.38756 0)
(7.01244 0.758502 -7.02683e-21)
(11.4223 1.83636 -2.99563e-21)
(0.5132 0.348809 3.00974e-21)
(8.00637 0.104874 0)
(-3.0367 12.3752 -4.18196e-21)
(3.13865 -0.919721 0)
(8.02221 0.105932 -7.94494e-21)
(7.9746 0.09761 3.07673e-21)
(7.73022 0.0130424 -1.54521e-21)
(-7.19613 2.01699 0)
(9.83045 0.421323 -1.63925e-21)
(5.06067 0.78292 2.40663e-20)
(11.0354 -1.95806 0)
(6.99343 -0.0322365 8.52514e-21)
(11.4781 0.973991 1.33376e-20)
(8.50907 0.0786343 0)
(-8.64926 10.3291 1.58333e-20)
(4.63732 -3.71499 2.99657e-22)
(9.96919 -0.0370724 0)
(-1.68265 1.56793 2.23514e-20)
(7.44383 0.492156 0)
(8.36711 -3.70586 1.43655e-21)
(-9.33723 0.244384 1.33542e-20)
(7.2669 -1.03108 5.49931e-23)
(9.353 0.550202 1.61444e-21)
(6.01518 0.398414 4.48208e-21)
(7.7139 -1.25233 -5.24943e-21)
(5.64313 -2.11274 1.26492e-21)
(8.41573 -3.56664 1.52861e-22)
(8.8716 -0.491646 1.36609e-21)
(9.59492 2.35439 -2.18892e-21)
(10.8604 -4.38762 0)
(7.99282 0.0147767 -6.78193e-21)
(-1.31204 -0.474981 -6.94441e-21)
(6.2064 -0.719815 0)
(7.11873 -7.74982 -2.96802e-21)
(10.8266 -3.36983 0)
(5.85919 -1.81088 1.6768e-20)
(10.1872 -3.06127 0)
(6.40973 0.0936073 -1.32009e-21)
(8.88158 -0.200505 -3.24745e-21)
(-9.54615 7.66859 2.30195e-20)
(-0.634122 -3.33441 2.62273e-20)
(9.747 -0.141094 -4.48661e-23)
(9.34715 -4.25348 -7.80487e-21)
(8.0939 -2.16238 3.87736e-21)
(6.73595 -1.61779 0)
(-0.202557 -0.00356928 -9.8927e-21)
(11.4805 -1.60487 2.1427e-21)
(-0.735085 -0.00323058 -1.14389e-20)
(7.90069 -0.892191 1.27649e-23)
(6.77442 -2.59735 0)
(8.87819 0.0368005 -5.69747e-23)
(-0.696796 0.248377 0)
(-9.4151 -2.76518 -2.4387e-21)
(4.15173 3.10711 4.88586e-21)
(8.21079 8.38619 0)
(9.39946 -1.73565 7.53212e-23)
(10.4937 -0.206826 0)
(9.69258 3.45537 0)
(7.99755 -3.70505 -1.9285e-21)
(6.28873 0.604523 7.01965e-21)
(5.63265 -5.95472 0)
(7.4093 0.361991 -4.22046e-21)
(14.6884 -1.38405 2.69579e-20)
(-7.60831 3.24608 2.47589e-20)
(9.63902 4.54035 0)
(8.55113 -0.0279104 0)
(-4.33388 3.18924 -1.48334e-20)
(7.86797 -0.502885 0)
(10.9585 0.753859 0)
(-2.46676 4.48936 3.82003e-22)
(8.95716 -1.16999 -3.12742e-21)
(7.85484 -1.79338 3.86365e-21)
(11.5192 -0.744823 9.66007e-22)
(-0.14486 0.05717 2.10881e-20)
(7.9516 0.0682184 3.49298e-21)
(6.88749 -1.69495 0)
(8.36748 1.51851 -2.01661e-21)
(6.44337 -1.16044 0)
(9.26454 0.325152 0)
(7.99298 0.264638 0)
(8.52672 0.61993 -6.13692e-22)
(7.774 -0.271649 5.01669e-21)
(9.41327 -0.951802 -8.26873e-22)
(7.03371 -1.71617 0)
(-1.02346 0.381892 -1.32592e-20)
(7.62261 3.28605 4.68486e-21)
(8.69017 -2.81912 1.21917e-22)
(7.96681 -0.296951 1.22389e-21)
(10.8504 -1.58593 1.22641e-20)
(8.07589 0.064794 -5.16799e-21)
(-1.52961 2.70905 0)
(10.3903 -1.47623 0)
(5.85846 2.3407 0)
(5.96238 -2.63735 -1.15928e-20)
(-1.42618 0.192351 -2.61913e-20)
(7.96487 6.57957 0)
(8.43584 1.50952 0)
(6.7788 -3.00234 2.73042e-21)
(7.75471 -0.0524355 -1.12119e-21)
(7.50893 1.82782 9.33042e-21)
(11.8533 -3.1668 0)
(-3.32849 1.00332 -5.18449e-21)
(8.88383 0.257732 2.48742e-21)
(6.49822 -1.99904 -1.04172e-20)
(8.52397 0.278078 -3.88387e-21)
(8.74806 1.97246 6.38677e-21)
(11.8153 -0.935907 1.05092e-20)
(5.87744 -2.60511 2.01188e-20)
(9.91033 -5.14462 8.21217e-21)
(7.10585 -1.26825 3.04022e-22)
(7.9923 0.00725226 -1.6291e-21)
(8.29069 -3.94049 1.39786e-21)
(4.19502 -3.42177 3.70945e-22)
(6.08523 5.97075 -5.20922e-21)
(8.54894 -3.91174 -6.60475e-22)
(12.902 0.164538 0)
(0.218287 -0.328939 1.45099e-20)
(8.64526 -0.0153027 -8.60622e-21)
(10.5376 2.64006 8.7834e-22)
(6.37123 -1.85873 -9.77467e-21)
(8.58764 -2.7322 -2.17659e-21)
(8.24776 -0.028703 9.45835e-21)
(10.4487 -0.183592 -5.43557e-21)
(10.1939 -9.07806 1.44319e-20)
(11.0819 0.396831 -3.84996e-21)
(5.54232 -1.14472 -2.40409e-20)
(8.55039 0.00588037 -7.45423e-21)
(5.52483 -1.38559 0)
(-9.7793 4.27204 -4.25636e-20)
(8.79046 0.0470794 1.18563e-20)
(5.5962 0.118966 2.36454e-22)
(-1.09315 0.0612593 0)
(10.0272 -4.16244 0)
(7.96088 1.33336 8.24974e-21)
(5.10022 -1.14631 1.52636e-20)
(9.65243 0.552442 -2.41981e-20)
(10.2756 -2.5386 2.90671e-21)
(9.50648 -0.546095 -2.4048e-22)
(11.5501 2.52261 0)
(7.9503 1.43732 4.71191e-21)
(5.41454 -3.84624 -6.10062e-22)
(9.04707 3.26502 -3.10659e-21)
(8.44271 -0.912097 -5.15068e-21)
(-0.396687 0.110457 -3.39505e-20)
(10.6872 -1.79212 -1.1525e-20)
(10.9391 -1.23315 3.89026e-21)
(8.23263 3.68357 0)
(8.54379 -1.94551 -9.38541e-23)
(7.73499 -0.00237205 1.37183e-21)
(7.75019 0.0888735 -2.42336e-22)
(4.87701 -2.38603 1.97024e-20)
(8.34876 -0.937874 7.81537e-21)
(4.40229 4.89149 4.32745e-21)
(-7.50393 2.08019 -1.30485e-20)
(9.60348 -0.476983 -1.80855e-21)
(8.69355 0.0821779 6.68628e-21)
(-4.01653 3.65291 -2.13327e-21)
(8.77354 3.16014 7.628e-21)
(-1.00621 1.262 -2.42859e-20)
(6.24217 -2.98792 -5.3038e-21)
(7.59934 0.0339174 0)
(5.7459 -0.390893 -1.1495e-21)
(-5.22801 7.32864 -1.16026e-20)
(6.07979 -1.00578 2.08814e-20)
(7.78851 -1.07291 0)
(5.3228 -0.138925 3.06322e-21)
(5.70107 -2.31068 4.76074e-21)
(7.99575 0.058955 -1.49952e-20)
(-2.50932 1.57477 -1.40416e-20)
(5.31768 -5.07692 -1.30502e-21)
(8.85935 -0.357323 2.61513e-21)
(8.7807 0.242808 7.01656e-21)
(8.50235 -3.7605 -9.92152e-22)
(8.33838 -1.26914 1.18844e-21)
(-0.337914 0.900815 -5.85509e-20)
(8.45127 -0.00468686 8.07441e-21)
(8.35326 -0.187205 -3.03369e-21)
(8.33976 0.360701 -1.01263e-22)
(9.55598 0.00101611 -6.14392e-21)
(5.54075 -2.3869 -9.20842e-21)
(7.13732 -1.28628 0)
(-11.458 2.13252 2.40161e-20)
(8.61902 0.0676307 9.97439e-22)
(5.13282 2.92376 -4.66025e-21)
(9.8442 0.132432 1.69949e-21)
(9.432 -0.78945 -2.2876e-22)
(7.99154 0.0545443 -1.27062e-20)
(8.20137 1.02917 2.63985e-21)
(-0.28929 0.220453 -1.55658e-20)
(10.7927 0.718677 0)
(5.01952 7.09955 5.76858e-21)
(12.1187 -1.24518 2.15493e-21)
(6.79713 -2.53591 0)
(8.34454 0.295347 5.42653e-21)
(12.7815 -0.154822 1.96479e-21)
(10.3791 0.591497 4.45569e-25)
(15.3382 -4.09685 1.94651e-20)
(6.97079 0.713569 0)
(7.28839 1.01842 1.33882e-20)
(4.11112 2.71673 -1.77327e-21)
(8.22532 -3.73961 7.16679e-22)
(8.36966 -0.580764 0)
(6.28455 0.566801 -2.01719e-20)
(7.2778 -5.80066 -1.76137e-21)
(8.78066 4.68474 1.3627e-21)
(5.59393 -1.20034 2.34532e-20)
(10.3208 -0.0768601 1.17728e-21)
(-1.01577 -0.964248 1.66321e-20)
(8.03825 -0.411847 -7.11788e-21)
(11.0523 -0.955165 -8.80971e-21)
(7.36623 0.300014 -8.71089e-21)
(8.97182 -0.107592 0)
(7.99496 0.0180981 -6.11995e-21)
(13.6818 -4.21274 1.4362e-19)
(-1.54024 0.0257126 0)
(11.8511 -1.70938 0)
(7.75693 0.109505 0)
(0.178958 0.514965 0)
(8.05993 0.960281 0)
(5.36041 -1.12471 0)
(8.8164 -3.74489 1.4976e-24)
(13.3392 -1.33804 -1.0826e-20)
(9.74628 1.27032 0)
(7.01086 0.817253 1.99101e-20)
(7.29411 -8.30738 -8.22182e-21)
(8.16173 0.628458 1.24152e-22)
(-3.6911 7.32849 -3.90842e-21)
(5.30749 -0.37963 3.93364e-23)
(-0.618542 0.466638 1.28422e-20)
(8.02779 -0.00546503 -2.73167e-21)
(10.2721 0.0618595 3.35944e-22)
(7.99885 0.912125 -5.52541e-21)
(7.59833 0.43971 -1.22067e-20)
(7.4816 2.97785 -8.82705e-21)
(11.7971 4.0825 0)
(0.293197 4.2775 1.69666e-20)
(5.9346 -1.87777 -1.83413e-20)
(8.03027 0.0175826 -1.82758e-20)
(11.3886 -1.45929 1.70259e-20)
(9.39128 -0.0422063 1.06917e-21)
(13.2516 2.90301 -2.01256e-20)
(8.96902 -0.716344 -3.7516e-22)
(9.41212 -1.70801 -1.86325e-22)
(8.00327 0.474998 5.76826e-21)
(8.63545 6.36885 0)
(5.78301 -1.72908 1.29219e-21)
(7.14043 -0.0565159 -2.62873e-21)
(8.97012 2.0399 0)
(5.06231 2.6296 0)
(9.12209 -3.91536 -1.14905e-22)
(-0.0644324 -2.17526 2.06701e-20)
(9.00189 -3.85345 -2.97569e-21)
(10.3662 3.02063 0)
(7.88251 -0.300991 -9.99412e-21)
(7.36513 0.509198 -2.35512e-21)
(-13.9648 3.92473 1.59508e-20)
(11.7903 1.01947 1.84683e-21)
(-0.902726 0.471694 0)
(0.591555 6.05419 1.97427e-20)
(11.1593 0.188826 0)
(8.15437 -2.0248 -2.4781e-22)
(7.16522 -1.23044 -3.27004e-21)
(8.03703 0.020505 -3.17021e-24)
(8.8351 2.20347 -1.07825e-20)
(9.59832 4.02664 -6.66201e-22)
(7.84564 -2.11987 8.70691e-21)
(-2.07081 5.6376 0)
(11.0123 -3.30519 -4.22221e-20)
(6.44964 -7.52246 0)
(9.92942 1.25633 -1.04095e-23)
(-14.3754 3.07861 4.36628e-20)
(12.8467 -1.47735 1.15189e-20)
(5.87865 6.70681 -4.34954e-21)
(-3.80236 2.45651 -3.43811e-20)
(7.57893 -3.49864 -8.27744e-22)
(6.08221 -1.88434 -1.04014e-20)
(12.3293 -8.04421 5.5445e-21)
(12.1796 -4.18936 3.44679e-20)
(5.58941 -2.42435 7.57406e-21)
(6.29123 -1.9793 1.09649e-20)
(-2.5105 1.40353 2.78899e-20)
(11.9146 -2.302 -1.44295e-20)
(8.44791 -2.3741 2.77618e-21)
(-1.78843 3.35346 1.48025e-20)
(9.09631 -0.288211 8.04333e-22)
(6.13953 -7.02311 6.65556e-21)
(8.89874 1.44609 -2.72113e-21)
(10.4983 -0.928572 0)
(0.20576 0.329524 -2.82117e-20)
(8.39911 -0.0233076 -9.49438e-21)
(7.96992 0.271996 0)
(9.87153 1.17272 0)
(5.2101 -10.9075 -2.63092e-20)
(11.4632 -0.971556 -9.84816e-21)
(9.26254 0.779745 -4.8301e-21)
(8.909 -1.1365 4.03364e-21)
(7.50032 2.90956 7.67649e-21)
(7.05995 -0.0620357 6.25816e-21)
(-15.4305 3.01513 3.81676e-21)
(7.14898 1.7997 0)
(6.44618 -2.09617 1.01692e-20)
(-3.2804 1.7138 4.72257e-21)
(-4.79514 2.95005 2.64442e-20)
(7.95467 -2.87585 1.15004e-21)
(11.5312 -5.7385 8.15633e-21)
(7.97512 -0.0547427 3.30672e-21)
(5.8617 4.39689 3.3302e-23)
(9.69138 -1.42902 4.45403e-21)
(-14.2401 2.33086 -2.4993e-20)
(9.22861 0.749306 3.66802e-21)
(7.86065 0.0802531 4.56054e-21)
(5.47839 -1.35804 -9.62728e-21)
(7.87726 -0.416337 6.03842e-21)
(11.2198 -9.02146 0)
(9.17416 1.30998 4.73604e-21)
(7.95254 0.0602874 1.01756e-21)
(6.6816 -1.49538 -3.33792e-21)
(6.84723 5.0224 -3.81322e-21)
(8.30201 -2.35398 2.53852e-21)
(7.92294 0.0135292 1.84084e-21)
(6.0398 -0.0430117 -1.47127e-20)
(9.06843 1.78137 0)
(6.60597 7.11322 -8.47604e-21)
(8.64547 0.309618 5.25599e-21)
(8.27821 -0.416031 0)
(6.22606 -0.3658 8.19434e-21)
(11.423 1.02493 0)
(6.02886 4.97269 1.78692e-20)
(9.99918 -0.122791 0)
(6.04831 -1.6547 0)
(10.1735 -0.516351 1.95928e-21)
(9.1479 0.590281 3.06903e-21)
(10.9514 0.939391 -5.08216e-21)
(7.73427 0.345439 -5.57912e-21)
(6.06038 2.87169 -5.65711e-21)
(7.91418 0.185285 -2.48138e-21)
(8.13538 0.998643 0)
(1.37137 3.29381 -6.83117e-21)
(9.49586 0.545847 -1.60999e-21)
(7.97211 -2.03147 8.21497e-22)
(10.5001 -0.932656 0)
(10.6198 2.56942 1.59057e-21)
(7.68229 5.04235 -6.04857e-22)
(9.34337 -0.237031 3.24138e-21)
(7.30979 1.17942 0)
(-0.752128 3.90963 9.89697e-21)
(8.09962 0.482413 0)
(9.96308 -1.11818 -2.12524e-21)
(0.452277 -0.213607 0)
(11.3418 2.384 0)
(10.7487 -6.27533 0)
(9.88284 -3.07729 0)
(-3.67141 1.65076 -2.32282e-21)
(-5.15895 1.0337 -5.59818e-21)
(7.73617 -0.253948 -7.51998e-21)
(-11.6742 6.7772 -3.04108e-20)
(5.96318 -2.52362 0)
(-7.29173 3.21476 -1.52649e-20)
(-0.0926378 -0.0389753 -2.14575e-20)
(7.44547 -3.42967 0)
(6.77769 -2.37411 -1.01009e-20)
(0.646142 -4.66526 -9.70218e-21)
(8.84222 1.3697 7.10482e-21)
(13.8461 -1.77535 -1.58559e-20)
(7.57302 0.388246 0)
(10.6638 -2.15126 0)
(12.5727 1.43877 3.58489e-21)
(3.40339 -3.52288 -1.84221e-22)
(17.0903 -6.0332 -2.81954e-20)
(4.84789 -10.8209 1.44068e-21)
(7.98959 0.00669963 4.5427e-22)
(5.83045 -0.503351 -8.69263e-23)
(8.01978 0.462049 8.1978e-21)
(6.02887 7.50875 6.84152e-21)
(8.58422 -2.03182 0)
(-2.32977 1.11812 0)
(8.1964 -1.16225 0)
(6.53896 0.318219 0)
(7.63606 -1.41033 3.93602e-21)
(10.662 0.0227846 0)
(-3.13733 2.77152 2.27334e-20)
(10.2058 -0.763225 5.43315e-22)
(6.19817 -2.03548 -1.66773e-20)
(7.33522 -7.53145 4.27172e-21)
(-7.58099 2.47018 -1.34284e-20)
(-3.07919 1.31595 -1.26156e-20)
(8.79078 0.106577 1.45311e-21)
(-12.6821 1.17318 -1.77197e-20)
(5.62868 8.57804 1.50376e-20)
(10.441 -0.347137 0)
(9.53829 0.0933459 0)
(5.98778 -8.93277 0)
(9.46581 -0.892736 -5.00241e-23)
(11.9813 -1.19568 0)
(7.1966 1.75064 0)
(8.01849 0.0101771 0)
(7.88879 -1.77917 3.67366e-21)
(8.16845 0.575699 -8.64795e-21)
(12.0854 -0.881105 0)
(9.22792 -3.35472 -2.38349e-21)
(7.90264 0.503878 -7.25143e-21)
(9.07522 3.12324 6.3167e-21)
(7.52637 -3.38408 4.39853e-21)
(7.42211 2.02803 1.0109e-22)
(5.17319 -4.95519 -1.03241e-22)
(5.79643 3.41215 -1.64675e-21)
(7.62722 -2.65658 1.50109e-21)
(9.12126 0.631618 -4.0925e-21)
(16.3734 -7.3552 -4.5997e-20)
(7.49723 0.0986351 -8.06997e-21)
(8.3747 -0.00417707 0)
(5.0909 2.834 3.48207e-21)
(7.91026 0.104638 8.47051e-21)
(5.82672 -4.96493 -3.95591e-21)
(8.91501 -0.742611 -1.24918e-21)
(5.19496 -1.21857 -1.6604e-20)
(9.16825 0.522638 6.77911e-22)
(11.442 1.88582 4.33358e-21)
(7.99687 0.182033 0)
(7.93481 -3.77709 3.97894e-20)
(9.98791 3.58806 8.33977e-22)
(6.53744 -2.55499 -2.55835e-21)
(1.77494 3.93234 -1.12298e-19)
(8.08122 0.0226854 3.92232e-21)
(7.47686 -1.2781 -3.52318e-22)
(9.93759 -0.0794679 -8.75155e-22)
(8.81363 -1.04198 0)
(8.05033 -6.43855 0)
(7.03448 -3.30071 6.43921e-21)
(-2.26884 1.15994 1.51668e-20)
(7.37559 0.163497 -4.76448e-23)
(7.91569 0.103425 1.67537e-20)
(8.23571 -7.38486 -1.12555e-19)
(6.28052 0.434607 0)
(7.44954 0.104512 0)
(7.16173 -1.61215 -2.02479e-22)
(9.96934 -0.169268 3.05469e-21)
(7.5585 1.88695 1.31687e-20)
(8.57282 -0.811116 0)
(7.95228 -0.218629 0)
(9.69193 -1.86235 -3.27647e-21)
(8.28208 -0.551445 4.82818e-21)
(1.07273 -1.34318 -1.86658e-20)
(7.96759 -0.0950249 0)
(10.7372 3.43591 6.68159e-21)
(10.5137 -2.86182 -1.72321e-21)
(-4.85643 6.752 -1.31803e-20)
(8.09478 -0.114926 -7.91605e-21)
(12.6468 -1.02095 0)
(11.7193 -0.966411 7.84975e-21)
(8.32089 0.765148 -1.74665e-20)
(-0.773731 -0.152868 0)
(8.85726 -0.292096 -7.90947e-21)
(7.75802 0.227737 -5.67681e-21)
(6.36992 0.198603 -4.14517e-24)
(6.41996 -0.579443 2.06694e-21)
(6.8405 7.10311 5.45233e-21)
(8.68214 0.0588596 0)
(5.14588 -1.90525 -1.83918e-22)
(8.84845 -7.79659 9.61062e-20)
(6.74285 -1.80354 -1.52735e-20)
(8.02642 0.927291 6.54301e-21)
(-2.18428 4.99651 1.80217e-21)
(7.87336 0.0254814 -1.8167e-20)
(5.12191 4.06885 -1.36989e-21)
(6.36674 5.14657 1.37597e-21)
(7.75864 -1.65531 0)
(9.08869 1.14298 7.53747e-21)
(5.48176 -2.48751 6.09866e-21)
(8.73108 -0.187489 -6.32289e-21)
(7.96219 0.053632 -7.53037e-21)
(9.5025 -1.15172 1.6901e-21)
(7.22929 -0.841318 1.68062e-20)
(8.92326 -0.23218 -9.42406e-22)
(7.3918 0.161624 4.79587e-21)
(8.008 -8.46841 -1.73452e-20)
(11.5065 -0.619521 -1.06545e-20)
(8.86645 3.41365 5.16538e-21)
(9.66208 0.264495 1.90545e-20)
(8.04812 -0.0527305 0)
(2.68 -7.80374 0)
(12.0531 5.3223 0)
(6.15798 -1.90066 1.30312e-20)
(7.90684 0.0412785 -1.19608e-20)
(7.34222 0.519257 0)
(6.81972 -1.53915 -9.51226e-21)
(7.32214 0.450252 0)
(7.64402 -1.24262 -6.49824e-21)
(8.36226 -2.24634 3.80115e-22)
(8.43838 -1.88916 -3.3489e-21)
(8.79287 0.0559687 0)
(7.88751 0.0444056 0)
(7.95678 -0.483542 -1.57316e-21)
(9.72402 1.09629 -6.38438e-23)
(10.3243 -0.136426 2.85472e-21)
(7.95482 5.31272 -5.70178e-22)
(7.79803 -0.622172 0)
(7.97619 -2.78766 -1.81318e-21)
(-1.45279 -0.13951 0)
(3.96108 2.09761 -9.88352e-21)
(9.71349 4.03448 0)
(7.36213 -1.29882 7.82032e-22)
(5.55688 -1.06063 6.26448e-21)
(6.70654 -0.847333 5.76657e-21)
(8.55105 -0.239271 1.25796e-21)
(10.586 -0.79982 -4.70446e-20)
(8.22754 -0.672925 1.20971e-20)
(8.07715 0.977754 -1.41865e-22)
(13.045 1.86871 2.52715e-20)
(8.74073 -1.47992 -1.4406e-21)
(-1.19452 0.0187048 9.15025e-21)
(9.7422 1.69511 0)
(7.98296 0.0763959 -6.16484e-25)
(6.95736 -1.77717 0)
(5.43422 4.78068 -4.92064e-22)
(8.10483 -2.75852 -8.38044e-22)
(7.28312 -0.74511 -5.45994e-21)
(6.96151 0.131023 -3.24631e-23)
(9.9032 0.186759 -7.01886e-22)
(7.16231 -0.405002 1.20969e-20)
(9.16458 -0.360213 -3.03416e-21)
(14.103 -8.26613 0)
(-3.32192 1.09589 0)