/*--------------------------------*- C++ -*----------------------------------*\
| =========                 |                                                 |
| \\      /  F ield         | OpenFOAM: The Open Source CFD Toolbox           |
|  \\    /   O peration     | Version:  2306                                  |
|   \\  /    A nd           | Website:  www.openfoam.com                      |
|    \\/     M anipulation  |                                                 |
\*---------------------------------------------------------------------------*/
FoamFile
{
    version     2.0;
    format      ascii;
    arch        "LSB;label=32;scalar=64";
    class       volScalarField;
    location    "6.6";
    object      p;
}
// * * * * * * * * * * * * * * * * * * * * * * * * * * * * * * * * * * * * * //

dimensions      [0 2 -2 0 0 0 0];

internalField   nonuniform List<scalar> 
13486
(
2.51663
2.0762
0.0408765
-1.51504
0.758429
-0.171315
0.307449
1.37154
1.67914
1.02569
-8.67281
0.434527
2.64258
-0.129476
0.606453
1.12151
-5.01479
0.178609
0.593162
2.28367
-0.953097
2.61088
2.03813
-3.30113
0.971491
-2.9851
-5.21937
-1.24162
0.00266098
-1.2012
-0.573074
0.485588
-2.25188
-0.829417
1.37499
0.0112139
-0.0349404
2.03499
-0.184683
1.68684
0.106843
2.74546
0.0330682
0.964162
0.927436
0.411855
-4.25015
0.0033867
-0.0334941
-1.044
1.53023
-0.205073
0.342149
2.06976
0.109318
0.827088
0.0255771
-0.206782
-2.14252
-0.0573311
-10.4594
-0.0443124
-2.95428
-0.857203
-2.71291
-0.0341473
-1.95413
2.54185
1.66762
-0.0681431
-1.98705
0.131882
1.7066
-4.24511
-0.0267363
0.0286898
-0.0231038
0.587668
-4.11713
-0.258364
0.0041192
2.10688
-2.97225
0.058948
2.5253
1.03157
-0.0937439
1.45466
1.73228
1.12869
0.373721
1.1796
2.40641
2.19332
1.74425
0.00349468
-5.30418
-2.77385
1.65936
-4.98292
0.027812
-0.0368984
-2.79177
-0.200782
1.21617
-4.96683
1.72602
-0.190719
-4.3543
1.05242
1.60336
0.390954
2.06834
0.0407861
2.96284
1.68428
0.977186
-0.771295
1.72131
-0.0230992
0.176408
-9.97278
1.82771
-0.190157
1.59973
-0.192721
1.17907
0.486232
-0.679784
-1.7773
-0.187415
-4.03314
-5.06403
-3.69797
1.60028
1.4522
2.97398
1.09978
-0.0211471
1.41808
-1.73748
0.335178
0.494543
-0.269337
0.0361144
-4.06381
-0.0161961
1.8484
-1.13538
0.00150185
1.05429
0.543108
0.00533723
2.1484
0.57688
0.0330998
0.84827
-0.0984893
1.83724
-1.10719
-0.752034
1.838
0.304868
2.73691
-0.209392
-0.409436
0.109275
3.38411
-0.0173099
-3.71132
-5.16913
0.590577
1.24432
0.883365
0.00184449
-7.72316
-0.30386
-1.97641
1.72704
0.505685
1.57453
0.0412216
0.717605
-6.72095
0.0746011
-1.22623
0.000899056
-1.07985
0.184286
1.77413
-0.0260454
0.0413747
-0.237391
2.23966
-0.272238
-8.31192
-1.96344
-0.799608
2.24786
-0.325483
-0.623187
0.462156
2.03952
0.582939
-0.922403
-0.281816
0.13362
1.84904
-0.224687
0.0800966
-1.1612
-2.48095
2.25542
1.72662
-0.167209
-0.602006
-1.24415
1.15558
2.27658
-2.08779
-5.00336
-1.15759
1.45756
-0.81086
0.261327
2.44368
-0.465374
-2.32197
-0.469872
-0.103837
1.55558
-0.36745
-1.8183
2.79982
-1.98663
2.34408
-0.925215
0.0403798
2.36865
0.754065
-2.32123
1.22179
0.0462758
2.22877
-0.178545
1.96122
0.788501
-1.92685
-3.76195
1.06966
-5.69681
2.99654
1.62345
-0.197024
-0.359507
-9.30154
0.473633
-0.573865
-0.0678053
-2.2883
1.90481
-0.175389
0.59838
-8.73839
0.852605
-6.77971
-0.481986
-0.809868
1.57997
0.140739
1.78612
1.69528
-1.28655
0.338098
2.44771
-1.78672
-0.362889
-0.252805
-0.209636
-0.00125126
-0.308333
1.3784
1.74501
-5.57169
-9.43987
-4.98902
-1.62441
-0.707874
0.253754
1.59762
-1.83614
-0.191662
1.74576
1.61506
-0.879952
-0.998178
-0.763232
0.308323
1.77481
0.218008
0.291912
0.1396
-0.00979246
0.511788
-0.0362325
0.615338
-0.396485
0.823092
-0.102945
-0.0281363
-3.66797
-1.4029
-0.0300261
0.397716
-9.68923
1.48274
-0.216655
1.73676
1.86023
-0.561001
-0.0319153
-0.15294
1.71618
2.20932
2.9431
0.395819
1.03256
1.34839
0.183956
0.950684
1.46614
1.12324
0.340913
2.37644
0.287946
1.64085
3.05548
0.58316
1.1268
-0.175802
-0.518513
2.1901
0.912302
0.734809
-7.58312
0.00297499
1.1068
2.94893
-2.11813
-0.196816
1.07544
0.237133
0.320235
-5.43871
1.76223
-0.0121943
-4.349
1.15316
-0.12005
-2.3039
0.608004
0.345689
1.92594
1.69977
-1.25
0.00251944
-0.954578
-4.11672
2.30811
1.16707
0.0270188
1.1272
0.23695
-6.49545
-0.0702656
1.56281
1.75883
-0.174791
-9.2682
-3.09329
1.56
1.08571
2.66272
1.88166
-4.22345
-0.388309
0.18595
1.10046
-4.86599
-0.338072
2.2178
-1.37085
0.813306
2.39004
2.51936
-0.0114417
-1.66357
-6.21226
-4.98163
-1.72975
-4.91911
0.601751
1.48042
-0.464226
0.352942
0.0415036
2.16152
-1.9452
1.18845
1.97013
1.07253
-0.899202
-1.44353
1.7799
1.74228
2.16565
-6.73669
0.880135
-5.30662
0.778771
1.7282
0.251794
2.95937
1.17448
-0.607089
-1.03197
0.456444
1.74412
-5.20802
0.215914
2.59068
1.48629
0.795112
0.225651
0.684487
-2.03473
2.65429
-0.181889
0.927912
2.50253
-5.14543
-1.29429
-3.6289
-1.48009
-0.205314
1.98857
2.05805
2.60686
-3.23961
-0.02836
-7.78235
1.14793
1.76655
-1.02614
-1.13885
1.72078
-5.21589
-7.93516
-6.21999
-4.01805
0.0912567
2.11661
0.00155526
0.239567
-1.07606
1.67083
0.0040214
3.2258
2.43026
1.70053
1.31597
0.012286
0.00142671
3.03787
-0.418522
-0.017974
-0.598519
1.65679
-4.99063
0.290576
1.27014
-0.0165678
-0.586163
2.01972
-1.9143
-5.00105
1.18198
-0.376302
3.37276
1.20294
1.54655
1.86343
-8.09911
0.132236
2.77423
0.754828
2.21676
0.27903
0.560659
-0.94844
-0.261565
0.0304366
-4.91854
1.79852
1.64471
-5.88058
0.00211867
-0.234354
2.54028
1.99347
-0.38628
1.67766
1.20851
-0.540687
0.859918
1.56916
-5.23566
2.62316
0.000749627
-0.062982
2.72515
1.09927
-0.0051341
1.09528
-1.1963
-4.55899
0.682592
1.0001
1.85556
2.41125
-6.2921
0.67722
-6.25533
0.00285037
2.33941
0.555797
-6.79841
-3.09416
0.257573
-0.0617179
1.3206
-2.53567
-1.08073
1.68321
2.35076
-0.165025
1.89322
-3.82946
-7.05588
-1.46367
0.788187
-7.83182
1.85571
0.106527
-11.0511
1.40222
1.96708
-2.3989
-6.35953
1.5513
2.34841
0.650315
2.53956
0.119756
1.21557
0.48115
1.88425
0.0388727
2.28313
-5.34595
0.577304
1.59383
-0.630282
-1.69614
1.71188
-5.16389
0.323151
2.02568
2.60609
-1.15095
-0.0348533
0.584757
0.285303
1.48279
1.32145
0.463611
-6.34309
0.100896
2.489
0.361508
0.273633
-5.63855
2.62312
-0.826166
0.0430476
1.68715
1.29396
-0.268163
-0.236069
1.39754
0.140707
-0.0558419
0.747953
-1.4568
2.54233
1.64219
1.15807
1.19243
0.168547
-1.60455
2.86591
0.598229
2.86917
-2.00394
1.61196
0.00843561
-4.31296
0.955331
1.06228
3.00185
-5.28426
1.03698
0.991951
-2.27969
1.0271
0.17636
-0.453638
1.62298
-6.44733
-1.59971
-2.15112
-0.0485036
-0.700166
1.84838
0.00243298
2.77979
1.6623
-0.781983
-6.78749
-1.14728
0.638235
-8.99652
-0.168753
-4.94079
2.32449
0.00104007
0.034674
-11.1239
2.66807
0.00244281
0.277016
2.72101
1.54952
-6.79009
-0.168187
1.16159
0.22644
1.58117
0.0438745
-1.78458
0.733307
1.51505
0.590941
1.35798
2.76093
0.0433206
-5.34075
1.71102
0.267282
-0.246818
1.10747
1.32874
0.84305
-6.68489
0.107855
-0.167746
0.217431
2.33571
0.611352
0.165685
0.0738522
0.00445124
-0.3061
1.78285
-0.289829
1.54384
1.57659
2.37844
0.193275
-0.972592
2.8499
0.0210982
-5.01427
1.76356
-1.99271
1.95137
0.0333524
1.68526
-0.465211
-3.90034
-2.95164
0.00209943
-5.00115
1.00294
2.93155
-0.699733
-4.03107
-0.54427
1.82357
0.104799
0.844582
-11.4367
2.91316
-6.68018
0.876931
-1.11544
1.07856
1.74602
0.799863
-2.82563
-0.649626
2.69449
1.76057
0.640178
1.47992
-0.0192018
1.28662
1.29753
1.08107
-3.62799
-0.363629
2.1395
0.326603
-0.218197
1.35958
-4.56951
-0.670534
-0.144021
1.82515
1.85579
-3.60174
0.100449
-6.51805
-0.742949
0.147949
-0.678882
0.348868
1.67968
0.0610863
-1.26132
1.94677
-0.0813903
-1.29877
-0.0734765
-0.704952
-3.53281
-2.63883
-0.164716
-10.5653
1.56892
2.64008
-0.0143525
-1.26557
2.72838
2.5573
-1.03523
-1.89471
1.71068
-4.80198
0.0367998
0.0888444
0.178478
0.869366
-4.99553
0.876446
1.22477
-0.61841
-0.473996
-2.71117
-0.134152
1.41549
0.893244
1.06758
-4.41235
1.55517
2.50312
-5.28153
-10.0885
1.86479
0.502745
1.11332
-0.180131
-1.14831
-4.68774
-0.0890506
1.75789
2.87755
1.85018
0.1578
-0.0723027
1.71975
2.43936
-0.202599
1.77352
1.68112
2.5834
0.353281
-0.153869
0.336421
-0.543293
2.56511
0.112788
0.0436751
1.13292
-0.3651
0.417545
-0.0660206
-1.58729
1.66526
1.36895
1.25481
0.908522
-2.37715
-0.358816
-0.626108
0.877951
-1.56054
-0.589011
0.0362277
-11.5325
-11.5246
0.983984
-1.14827
-3.73199
-2.7106
-0.847688
1.19439
-7.39498
-7.3723
1.90163
-1.3956
2.61593
-2.26092
-3.80051
1.97241
2.35525
-0.0244781
0.212363
0.27998
1.79052
0.885547
-2.57468
-0.259105
-0.0380792
-0.416839
1.69347
0.0359571
1.08282
-0.158249
1.66064
-5.15787
0.0419375
-0.012843
2.03451
-1.43908
-9.23603
-5.69641
2.59059
0.127358
-5.41785
-8.3715
1.6823
-5.92737
-0.162705
0.39384
0.748548
0.0314173
1.10925
-2.45338
1.49462
1.7091
1.92924
0.863525
-0.0832396
-0.798726
1.35938
-0.377662
2.00304
1.27518
-0.265951
-0.19863
-0.411529
-0.0230613
-0.0314202
1.94281
0.774559
0.297789
1.71724
0.158213
1.30709
2.97007
-0.0645705
-1.97184
1.24169
0.00432544
-0.145129
-0.438752
-1.05366
1.67414
0.0438324
0.0217173
0.0384315
0.205567
2.13905
-6.61445
0.00348555
1.72308
0.0138639
2.4372
1.97008
2.23601
0.428323
1.18441
0.528789
0.018045
1.20493
1.63124
-0.488406
-0.640327
-2.59112
-1.2148
-10.6753
1.66931
-3.71594
-2.8797
-10.8481
-0.443684
-0.0161686
1.74198
0.00219245
0.360009
-3.83142
1.75178
2.92481
0.0287813
-9.70763
1.04895
-0.0423792
1.62042
-0.972665
-0.1808
2.00755
-0.221402
2.76944
1.13346
1.71187
-1.10948
2.18844
0.0345324
1.98233
-0.00168289
-2.41029
-0.287436
-5.65569
1.105
-0.0230482
-0.301288
2.60799
1.74719
1.87968
2.37408
1.91133
2.0302
-0.610562
1.72515
1.76301
1.76018
-0.560979
-0.466497
-1.20304
-1.18377
0.453782
1.86346
-3.90238
2.57333
-1.27104
0.044258
2.8589
2.41382
-0.631108
-4.13815
1.6767
0.978086
-0.0462971
1.545
-3.75499
-0.565356
1.70961
2.31628
-0.179194
1.83163
2.16734
0.00218607
-0.722778
2.1898
0.741614
-0.0298683
-6.68508
0.0515131
-1.53917
1.63884
1.31629
-0.0854628
-0.187931
-1.42512
0.455711
-0.122406
0.408073
2.48453
-0.177006
3.16601
1.68105
0.573562
1.89668
-6.91794
-4.40543
-5.50131
1.671
-0.181691
-3.53214
-0.548725
0.92604
1.09947
-0.173791
1.14148
-4.45536
0.814176
0.133798
-0.173512
1.32117
0.536061
2.17065
1.75724
1.83056
1.59705
-0.640293
-1.94821
-1.41408
0.0905217
-1.5233
-0.0251363
1.29513
-0.996289
-0.0793402
-0.0993471
0.265844
-11.9723
1.16149
0.926453
-0.613994
-1.51453
0.792478
-1.0859
-2.08382
0.267391
-0.0279627
1.82815
1.33035
2.14186
-3.66218
1.5852
0.0410006
2.35287
0.0178581
0.984476
0.190238
-0.133996
2.72313
2.84645
1.37843
0.847129
1.23847
1.5043
2.7509
1.09555
-2.03475
-11.0764
0.348123
-1.16509
-2.24161
1.74163
1.61186
0.0258714
0.343803
1.36266
1.50942
2.99306
-4.19251
1.40824
-5.05415
-0.126081
2.44038
-0.430358
1.35865
-0.654546
0.72673
0.662298
3.11764
-0.185968
-1.23015
0.944073
0.285724
-7.69062
-3.78388
0.195301
1.92153
-1.01228
0.855474
2.55535
2.36302
-0.296937
-2.68645
-0.227099
0.414442
1.94946
1.57446
2.32341
1.01206
-8.58779
2.44034
1.48855
-2.36306
1.24288
1.78235
2.09768
-9.41348
-0.525198
0.00117555
1.50508
2.68304
0.881338
0.256605
-1.55532
3.00687
-6.08572
-1.6914
2.79887
1.54613
0.106096
1.30688
-1.79036
0.877405
-1.04349
-6.36038
-0.167186
-6.42549
0.142519
-0.767942
-4.97544
-4.99731
-2.72174
0.0324933
-4.93483
-5.86321
1.4508
1.62558
0.811491
-4.42761
0.455363
0.381329
-0.652281
3.15108
1.05198
-1.25104
1.54555
-0.979709
-6.9067
1.33337
1.32122
1.60933
3.18971
0.00498244
-0.419663
-3.47432
0.0844817
1.09018
1.60994
-0.555342
2.46758
1.28722
1.8167
-0.966819
-0.254424
0.0390457
1.70942
1.72333
1.77239
1.73094
2.94754
2.87268
-1.00937
1.55345
2.16295
-1.20915
2.31529
-0.146972
2.83864
2.29295
0.141555
1.95329
0.936947
1.23187
-0.0371772
1.77681
-1.8573
1.43817
0.552962
1.0729
-0.178
1.6207
-0.115196
0.446996
2.74206
2.73606
1.07314
-3.68861
0.413482
-0.031359
-0.383661
1.4599
2.4495
-3.6644
1.7645
1.57538
0.809875
1.69905
-9.35807
-0.654252
-0.0961049
3.00139
0.459148
-0.274801
2.00035
-0.185396
0.0376399
0.941975
0.346975
1.36832
0.585507
-1.11641
0.99105
1.30035
1.04945
1.20469
2.90281
2.39035
2.07209
2.02148
2.68283
0.757321
-0.160409
0.121239
-1.47469
2.71276
-0.995552
1.65689
1.4717
-7.07672
0.827394
1.86196
-3.95285
0.826321
1.19013
3.2257
-5.49413
0.736901
0.0837129
1.89523
0.0318331
-2.00562
2.66603
2.26442
1.59182
1.66223
-1.12867
0.719377
-4.91967
2.86661
0.00849536
3.09604
-0.297235
0.240156
-4.60436
0.826463
-4.17971
0.333638
-0.219925
0.699042
-0.0755281
0.671276
-2.57665
0.00146831
-0.703979
-3.63364
-1.19494
-2.65974
-0.0702274
-0.29477
-0.869725
-9.94511
1.6843
1.71888
2.21506
1.71176
0.670387
0.652222
3.37981
1.61478
-5.14186
0.00222206
-0.0783547
1.37876
1.45176
2.47303
-1.51834
-1.54001
1.3198
0.00230049
0.437658
2.15491
-3.73926
-7.59365
-4.99458
2.8996
-2.72905
1.14633
2.14345
-0.36977
1.28707
-0.0978246
-6.26327
-5.87975
-0.598868
1.22415
1.97447
2.10445
-2.73266
-3.70586
1.04339
-4.23781
-1.26795
-0.648458
0.368407
-1.0327
-0.128577
-3.12009
-5.60675
-2.96602
2.56735
-1.06705
2.81772
-8.15641
-0.376182
0.623705
0.110478
2.36755
1.61029
2.05186
-0.0317851
-1.04818
-6.66436
2.27554
-3.604
1.31471
-0.157601
2.10776
2.3681
-0.157597
1.66893
2.69704
1.81827
1.81244
-2.77993
-0.198403
0.688942
-1.87478
-0.213815
0.957139
1.13876
0.0377436
-7.40734
0.406233
-0.172328
1.41785
1.1885
-1.19724
2.82908
0.0710855
0.00156863
0.254607
1.7001
-1.74655
0.00621622
1.79775
-0.740637
0.00703841
-0.311295
1.74385
1.70526
1.63538
-0.142817
1.64548
1.97248
1.87055
-0.959177
0.0456246
0.503596
1.41639
-1.51571
-5.31561
-4.80816
-2.03205
-1.76644
0.0387541
-0.206884
0.0391288
-3.81188
-1.14486
-12.8348
-0.241097
-1.14517
0.730395
-6.81423
1.8222
3.40228
0.699094
-0.679029
0.868684
0.310762
0.413648
0.0238567
-1.19412
-10.0756
0.138993
2.20087
0.00342679
2.64743
0.0295849
1.63182
1.32894
0.726948
-4.89019
0.904366
2.94777
-0.88147
1.73036
1.66983
2.46162
0.142003
2.25472
1.7719
-4.45183
1.89172
-5.4884
-5.14619
2.30563
1.54774
-2.49933
0.221547
2.19188
0.0597054
-3.98177
0.0381781
0.0404152
1.40266
1.00192
1.75453
1.53184
1.40488
-3.11819
-1.22449
-0.903944
1.72051
3.09152
-1.34577
-5.38241
-4.86553
1.64547
0.100199
0.112341
0.649916
0.183817
1.26011
-0.390027
0.404788
2.6336
0.849981
0.153425
-0.700499
-3.83964
-2.11318
-5.08078
-2.8531
-7.92535
2.05196
0.998537
-1.41439
2.73636
0.00182423
-7.01088
-0.763541
-5.31277
1.78756
-3.62761
0.663583
1.64185
-0.133674
-0.978669
-0.232412
-5.19043
-1.70376
1.88658
-12.3072
-0.122511
-4.95778
1.67103
1.80741
-2.90383
2.12658
1.94954
2.54368
2.6284
1.84159
0.2971
3.00477
-4.99458
1.5952
0.235895
-10.9188
2.09565
-4.13405
2.59463
0.898791
-1.76645
-4.93548
-3.68422
1.84795
-4.84103
-1.37629
-0.0124
-1.00393
0.153185
1.13738
0.391925
1.17478
2.89674
-3.82274
-2.86187
-0.652047
1.71181
1.37269
-2.07867
3.36577
-0.153276
-0.142351
1.21303
-1.55395
1.6643
1.69743
1.91118
1.92154
0.173728
0.856623
1.5838
0.37298
-0.4407
-0.00135431
1.78711
1.88481
2.29805
-0.597683
0.031028
0.791439
1.11653
0.321621
-7.68828
1.47372
-0.829834
1.53143
1.77714
-4.99899
2.63792
-3.58898
2.89712
1.88647
-12.6793
0.00514322
-0.0311186
0.832125
1.82302
-11.8229
2.26425
1.6599
0.789246
0.0364001
0.338931
-0.226157
0.787595
-5.00255
0.973732
-1.45359
1.68721
-5.44128
-0.148477
-0.867893
2.10486
2.3876
0.992981
-5.38381
0.926503
-0.30543
0.0423159
1.03825
-0.398461
-0.510168
2.81397
-0.708101
-0.0539018
-1.7843
-5.6666
-0.242755
1.76984
-5.00414
-0.698059
1.81747
1.02977
1.82152
-5.43972
0.757368
2.85932
-3.07228
1.69959
0.526853
-0.340343
0.682305
0.388512
-0.898989
2.91206
1.89791
0.0155754
2.84161
2.16904
2.09846
-4.31681
-5.38122
1.01323
-1.91722
-0.213211
-3.46707
-1.63275
-3.23677
1.28723
0.645637
0.954638
1.07414
-0.365873
1.21003
1.73815
-7.05606
1.72133
1.14404
1.71835
-0.305509
-0.015568
-2.98394
-5.14378
-4.78514
-0.815328
1.72243
-11.6329
2.55825
-6.88088
1.67165
0.969656
-0.10952
0.200806
1.70869
0.893015
0.495096
1.47382
0.338273
0.156022
2.41672
2.06668
-2.24795
-4.93181
-0.0950127
1.55857
0.127542
0.681956
-2.69152
0.0976014
-0.368113
-0.313331
1.42984
1.36204
0.230736
0.887031
0.0766726
-0.107822
-11.9297
2.12504
-3.56339
1.61706
0.0034524
1.51668
1.7718
1.05762
1.525
-0.0366652
-2.61232
-0.169636
-5.06157
-4.58761
-3.16995
0.104914
-0.303086
1.42795
-0.00110866
1.69195
-0.217234
0.162553
-2.45944
-0.142152
1.7357
-5.81202
1.61013
0.437259
-9.29195
-0.257804
-3.86268
1.16797
1.81176
-0.109936
0.332576
-4.44927
1.9446
0.0558862
0.514936
-7.50018
2.1082
0.818329
0.00232726
1.80387
1.70887
2.02002
0.481536
2.13664
-3.23329
-0.461804
-0.311614
1.58334
1.17014
0.462995
0.0725097
-5.54196
-9.4101
0.872555
0.0185817
-11.0257
2.66809
-3.02697
1.97941
1.17669
-1.43155
-0.16851
-1.12411
-0.245629
0.294321
0.274469
1.64003
-0.156474
1.72057
-2.5437
0.60761
-0.499419
0.402924
-6.19903
2.06837
2.86406
1.84885
0.877353
0.247171
1.22777
-5.18072
0.00505376
-0.162156
-0.368083
-2.66719
-13.0529
-6.90345
-1.35978
1.4555
1.61474
-3.21737
0.436151
1.92665
-1.088
-2.29408
1.85093
-0.169831
-8.94195
0.0342839
-0.300958
0.00418361
2.71653
-0.175063
1.57235
-1.54009
-1.01288
-1.05161
1.60519
0.428147
1.34065
-1.14292
-1.47297
-0.743309
0.264669
1.97705
1.44377
0.408846
-0.194057
-0.870286
2.96769
-0.586629
1.88394
2.06537
0.0956056
-0.209241
0.767912
-4.96239
-0.774487
1.53741
1.08832
1.59475
-5.82269
1.87354
0.307568
2.42383
0.283005
1.5581
2.13287
1.47376
0.363583
-6.80644
0.651473
-5.03739
1.40113
0.87665
2.01327
0.236906
2.53511
0.312353
2.70223
0.0793919
2.09098
-0.130504
1.22603
-6.85922
1.66103
0.79216
0.828466
2.57117
1.71448
0.439847
-1.18564
0.944443
1.64468
-0.136197
-4.98421
1.19579
-1.16793
2.18175
-3.08045
2.58323
0.527566
3.41102
2.63032
1.17577
1.02941
-7.67552
0.184466
2.78149
-0.0110297
-0.00332223
-0.32287
2.7881
0.956279
1.40018
2.40145
-1.08255
1.82137
-0.675925
1.97234
0.0334294
1.85857
1.68909
2.30088
-0.16283
-3.64244
0.501474
-4.15569
0.762775
0.162123
-0.234164
2.21647
2.4334
0.0219797
0.477791
-0.613162
2.16892
1.35043
1.5062
1.13466
-0.249922
-5.01808
-1.18993
1.76483
-2.54421
-0.0635423
0.313219
1.14032
0.793297
-1.16996
2.94334
-0.323579
2.55772
0.40458
2.66467
-1.18516
0.401835
-0.0860649
0.0390625
1.38972
1.69736
0.208905
-0.024748
0.081991
-0.116604
2.41106
-0.39025
0.0874857
-0.37041
0.0198783
0.486454
2.02632
0.735107
-0.626924
0.00660861
1.71011
3.10072
-4.34182
-0.941024
1.5964
0.0519264
0.955441
-0.168987
1.14037
0.00237946
-4.70634
-0.18302
-0.839425
-0.374798
-0.0210374
-3.56326
-4.42778
0.128357
1.38749
1.78033
1.52818
3.01342
-10.3335
2.77568
-4.48589
2.63317
-12.1468
-1.25574
2.91274
0.803488
-1.87721
1.66416
-0.169716
1.80185
-0.481022
-4.96975
0.30164
-1.35126
-1.70199
0.00207001
-0.38042
0.777209
2.0608
-12.1966
0.848527
-2.497
0.445305
-0.340309
-0.13106
0.304247
-0.425008
-2.03877
2.27159
-0.068883
2.47514
0.646982
-5.68838
0.69802
-1.24805
-0.0776644
1.51074
2.09073
3.04316
1.35505
1.51204
0.73102
-3.80129
2.94429
3.11586
1.87457
-0.945387
-5.63741
-5.13263
1.51956
1.04541
0.60735
1.49729
-0.648659
-0.100448
-7.3834
2.56178
0.21713
0.288447
-2.30974
1.57601
0.556192
3.32728
3.13505
1.46096
0.344619
0.424908
-3.73542
0.811666
3.20918
0.0929502
-0.0647541
1.18457
0.00795979
0.368482
-0.190042
-0.432903
0.364335
0.286348
0.771722
0.000211002
0.645378
2.33073
0.428143
1.77025
-2.71707
-0.547803
2.81603
-4.65057
0.348546
0.342511
0.840918
0.465983
-3.23934
0.242841
-0.7082
0.313493
3.35394
-4.80843
-3.268
-4.591
-0.837189
0.0380406
0.338079
-2.55031
-3.18626
0.0025949
-2.97263
-1.15138
-1.81173
0.457977
-0.299702
0.241378
3.28312
0.281013
0.501982
-0.36752
0.436396
-3.59913
-0.844983
2.34192
1.66499
0.512635
0.012368
1.5617
1.78713
0.0490039
-12.1592
-0.180874
2.33755
-1.21347
1.62293
0.141456
2.56327
0.228284
-3.17868
0.199908
1.84628
-1.17869
1.5615
-1.08933
3.16949
-2.31653
-0.346997
-7.78055
0.906403
-3.39994
-1.38296
-2.53743
0.191472
0.679133
-6.66492
-0.468296
-0.275648
0.36176
-2.12798
-1.18354
1.3287
-5.01853
1.41894
-2.82967
1.86344
2.92561
1.52968
-3.63466
1.65673
0.146101
0.358234
-0.308496
-0.612988
-4.98025
-0.168883
-1.01922
0.657008
0.103787
-0.836687
-0.246002
-6.7503
0.85011
1.74553
-1.34885
-3.62956
-0.476141
-0.00789241
-0.0179905
0.959678
-2.65642
-3.93725
1.77817
-0.264556
0.892254
-1.92538
-7.62438
-6.88206
-10.7355
3.28693
0.532082
-1.52894
0.659245
2.77279
2.82267
-3.70377
-0.698042
1.70592
-0.0963389
-0.146358
2.84047
0.922566
1.43683
3.34463
-0.336405
0.407538
0.358948
2.52813
1.77261
1.70044
2.17061
1.2779
0.0317621
0.0402557
0.888987
0.421716
-5.07335
2.88659
-0.527927
-0.696211
0.0015649
-1.93694
0.804467
-2.34832
-0.774034
0.434055
1.71939
1.85218
1.89323
-5.12334
2.50572
2.8116
-3.45034
1.0354
-0.246848
-0.101508
0.349757
1.08925
-0.290601
-1.09902
-0.790985
3.10561
-5.43808
1.91447
1.68499
2.19959
1.21438
1.29619
-0.0125095
0.0281103
0.925221
-0.204263
-5.55395
-2.36656
0.0116637
-1.92661
2.05751
-6.10097
-0.103631
0.473813
-3.60054
-2.97263
-5.03774
1.47373
-0.677984
-0.12727
0.886681
-5.6759
0.597289
-3.23523
-0.248405
1.81936
-6.3724
2.89084
-0.00174921
3.06574
0.00304436
-0.15142
0.223123
1.539
1.39857
-3.14337
-0.343057
-0.18106
0.196348
1.14169
3.34844
2.20693
0.531628
-1.14786
0.848503
0.13004
1.89612
-0.0582646
1.09957
-1.34547
-2.31637
-3.56485
0.533408
0.030739
-3.62851
1.19402
1.04769
2.77036
2.99129
-5.04523
-4.99025
0.20908
-1.42855
2.88574
0.0176479
-0.463615
0.840272
1.30249
-1.24104
0.0382815
0.221178
-0.164039
1.49639
-0.791031
0.415769
0.0361218
-1.11253
-2.78898
-0.320486
-2.85619
-2.57359
1.82995
-4.24631
-2.75844
-0.766151
0.199138
3.15137
1.19252
1.63004
-0.889898
0.839568
-0.00485315
0.658563
0.620577
-2.54024
-5.28117
2.87684
1.79127
0.0752104
-4.15071
3.26067
-3.21288
-5.42071
-1.15739
0.804394
-3.70522
-1.2069
2.51199
-0.0148594
1.5128
0.784028
-1.6052
0.232496
-0.114342
0.825298
-3.08674
0.115183
0.651973
1.62584
-4.14282
-5.18619
0.0206988
-1.10709
-1.65155
-1.54589
3.08247
1.20221
-11.6104
0.756333
0.531127
2.70335
0.911204
-5.13534
0.959664
2.15231
1.79815
-1.3967
1.55946
-0.034658
2.85296
0.0281585
1.77495
-7.19291
-1.27609
-0.00460575
-1.75879
0.942598
0.686518
-5.0085
-4.34523
1.96188
-0.0459709
-0.0696763
2.35092
1.40575
2.28958
1.62437
-1.53204
0.0183029
0.151143
1.63107
0.00196401
2.06008
1.25972
2.83225
-2.12373
2.22983
0.776985
2.88515
-1.47947
-1.01789
2.93341
-2.30822
1.23033
-5.54621
2.5153
2.83886
1.83596
-2.35095
1.71364
2.15925
-1.9531
0.872668
-2.74956
2.30682
-2.565
-0.479873
-4.94889
-4.90869
2.12046
0.756031
-4.83334
0.858627
2.83151
-0.617303
-0.104422
-4.90149
-1.34807
1.37038
-0.411071
1.65298
1.54548
-4.5118
3.16218
-0.211667
2.4346
2.36212
-0.49198
-0.0139095
1.45024
-2.28648
-0.57025
1.43444
1.22252
-0.476026
1.5514
-1.14017
2.54334
1.87067
0.649958
-0.0916186
1.8376
-0.485107
1.14752
2.20534
0.365015
0.00392329
2.13711
1.76691
-1.15724
-3.75633
1.23534
1.85299
2.84891
-4.47907
3.00813
2.9861
3.05697
-0.150258
2.08024
-7.64965
1.71598
2.2366
2.21733
1.83469
2.45149
3.32275
1.53694
-4.8056
0.075012
-5.28031
3.29457
0.889951
-0.0712073
-3.38751
1.66981
2.52337
1.55647
0.581332
-0.321738
2.48737
-3.1439
1.76547
-3.65147
0.874322
-0.110559
0.450793
1.0724
-7.12681
-7.3353
-0.287581
-1.04774
-0.0554859
2.03964
-0.207931
0.202901
1.53769
-6.08415
0.990388
-0.00709589
-5.45048
-6.69496
-5.04739
2.34586
2.5499
-2.87089
0.850769
2.17224
2.05824
0.0232667
-9.03685
1.81133
-4.97737
2.3266
-4.8438
2.26611
1.17741
0.352849
2.12782
1.09903
2.19313
0.615791
0.895581
-1.16943
-3.66858
-7.17528
-0.197726
2.15229
-9.38113
-1.81855
-7.90293
2.46615
2.16524
0.742846
1.20922
2.4446
-2.50498
1.56977
-0.065957
-1.2033
1.56422
-3.21273
-5.25384
-1.43813
-5.13178
-0.767625
-12.6595
-0.083442
-5.36573
-3.83822
1.34433
2.89277
3.14601
2.74396
-10.6528
1.78608
-7.59844
1.52673
2.4599
0.375855
2.11321
-6.65124
0.606431
-1.23294
-0.0315396
2.30054
-0.956217
1.87751
-5.06387
-0.323794
-5.11419
1.95296
1.86194
1.71906
-6.07085
1.55723
-0.386648
-4.86007
-4.91627
0.563295
2.89664
-2.96105
-0.857577
-3.99346
1.60279
1.66048
-0.201233
1.14818
-5.72926
2.48056
2.31241
-1.48477
-0.252203
2.39679
-3.19061
-11.4035
0.104118
2.20717
2.46627
-6.96965
1.14605
-0.0533951
2.84581
-4.90369
-3.07804
-0.0578013
2.65915
0.0838499
-1.16313
-0.121009
2.27778
1.40852
2.26522
-0.112551
-2.71417
1.83973
3.26028
-3.7682
1.47247
0.0366379
-4.00727
0.0685074
0.625774
-4.12743
1.11678
-1.19426
1.19575
-0.632132
-1.86078
2.07339
2.48288
1.54724
-2.14537
-2.76339
1.92016
-5.32337
0.572757
-1.13782
0.819891
-5.95676
1.88887
1.92399
0.0249439
1.80237
2.79506
-0.647045
1.32476
1.9201
-4.95088
1.14344
-0.626077
0.811047
0.542674
1.40723
0.00504478
0.588212
-0.570196
-2.6673
2.3307
0.608418
0.306822
-3.64814
-0.521949
1.76417
-6.09676
3.04389
-5.62438
-5.12832
-0.267417
2.16151
1.87311
2.22596
-4.79943
2.68955
-8.98622
1.28086
0.129186
-4.67004
1.61649
0.762483
-0.646492
1.10859
-5.29608
1.43702
-5.02001
-3.71623
0.00776237
-4.22407
-4.56276
1.45984
2.76231
-0.129967
-7.77161
2.13835
-2.9545
2.50498
0.704524
0.141787
1.10433
1.73695
0.860662
-0.281149
0.0631547
0.0482979
0.557207
0.752588
-5.52913
-4.1181
0.0318776
0.937163
0.0231986
3.31141
1.77954
1.70854
2.53197
0.411124
1.9079
-5.41748
-3.67666
-5.47858
1.72643
3.23728
1.53494
-1.11667
2.33385
1.54477
1.57021
-0.145192
0.0377874
0.884313
3.0583
-0.0215637
-1.81317
2.33162
2.38311
1.74112
1.63839
2.03155
1.15592
-0.534195
-8.79242
1.8163
-4.19209
-3.59576
1.64316
-6.81085
-0.120257
0.478629
1.79159
1.86201
1.89101
0.0116393
2.22067
2.27559
0.380871
1.98931
1.72818
1.54425
1.40538
1.08669
0.841637
-0.211003
2.14839
1.97525
0.171645
1.49272
-0.013987
-0.0846262
2.74118
2.05422
0.0116056
-8.20115
0.202686
2.11829
1.15399
0.556938
-0.117485
0.195174
-1.50149
0.325468
-5.33271
-0.235644
1.18706
-0.462828
-5.37097
-6.05431
2.58281
-3.99079
-4.77348
-6.39547
2.78154
-0.532291
0.42962
0.481231
-4.91406
1.44587
1.62992
1.00502
2.43357
1.31324
0.113402
-5.14456
-7.91343
0.0238689
2.00609
0.207475
-7.12432
-4.59539
-1.14639
-5.09948
-5.66856
-3.05983
-0.517033
0.740635
1.69741
2.16303
-0.862765
-0.0795344
2.44309
1.86319
-6.88686
-0.0183272
-5.21428
0.989899
0.150285
0.912459
1.49735
-0.00197712
-0.667548
-1.01755
0.58784
-9.53332
-5.04757
0.0525032
-8.43856
-5.18471
-4.95568
-7.67634
0.0781378
-4.79238
0.840625
-6.68617
1.70598
1.55256
0.446426
2.18844
-12.0836
2.77474
-1.57966
0.184078
-1.32947
1.64162
0.998634
-3.70077
-4.2545
1.75818
2.07934
2.8779
-8.34163
-5.14713
-11.609
-0.462706
0.00731939
-5.57718
0.540822
-5.02259
0.970923
-7.51721
1.23528
0.0966007
-0.262242
2.53289
1.45179
-0.870737
-0.0592228
-1.96561
-4.74883
2.24094
3.14666
-4.84402
2.03167
1.54291
0.00161301
-0.391262
2.13154
2.07025
-3.11829
-0.417897
-6.13799
-12.7773
-1.20744
-5.15041
-1.0095
1.23636
-0.00817909
1.89796
-7.00632
-4.9803
1.63025
-1.07098
-4.91723
0.213042
1.4051
-4.87767
-0.637902
-4.74895
-5.67279
-4.96608
2.92112
-4.13552
-0.195108
-8.29453
1.82397
-5.05367
-0.0845157
-3.10577
-10.4326
-1.19313
1.87461
0.00449581
-5.30795
1.42784
0.0158369
-2.16443
-5.04941
-6.31782
1.14499
1.33709
1.71681
-3.32932
2.49459
-1.49092
0.00291893
-0.621541
-2.49265
-9.44529
-5.76861
-5.11909
0.414319
0.818274
-0.129734
-0.226392
-1.90247
1.53611
-12.4269
1.803
-7.36092
1.15453
-0.754282
-0.284713
0.131268
3.25552
-0.441672
-4.89482
-2.8172
-2.05444
1.72374
-0.199221
0.151353
0.0124086
-4.09154
-8.13248
-3.85291
-5.07489
1.80371
-6.28793
0.326938
-4.35344
-0.00814728
1.43346
-0.457644
0.694523
-0.663518
2.18213
-5.07464
-3.49698
2.34065
0.664688
-5.04969
-0.25183
-6.00193
-1.85018
-0.391852
2.13569
-4.20275
0.851954
-5.00423
-5.34336
-8.06032
-6.84416
-5.26496
0.935889
-0.556332
1.68275
0.782837
-9.83023
-0.289588
-10.8486
2.10721
2.47334
-4.90107
0.286713
1.78555
1.70232
1.27295
-4.55148
-4.82895
-4.23399
1.731
0.597709
-2.285
-6.21945
0.907606
2.04713
-0.157738
0.169681
0.195097
2.31249
-1.76222
-1.89238
-0.0978113
1.51319
0.329551
0.107719
2.51074
2.10481
-0.148683
-8.43946
2.10602
0.952439
0.0049393
1.51001
-1.20937
-4.89868
-4.64674
-7.09725
2.08368
1.75903
-0.357629
-1.1742
0.066143
-0.0919925
1.80361
-9.77727
1.21911
2.19804
2.35873
-1.27771
1.67987
1.43807
1.83296
1.94821
-0.0507607
1.95948
0.00250215
1.72623
1.0785
1.83345
-7.11682
2.11493
1.99932
1.57301
1.22406
-3.17208
1.14172
-0.404562
-1.58881
2.2523
2.31816
-8.73297
1.99922
-5.93101
-3.97221
1.78858
1.813
-3.01743
-0.0621416
-5.14908
-9.13711
-1.06214
-3.05282
-3.32745
-0.293886
1.49935
3.05388
2.09307
-1.02576
-1.52963
1.75245
0.988713
-0.560424
-5.31894
-2.7225
-1.82574
-4.01514
-3.66515
1.65531
0.0425627
0.93979
0.0240538
0.023631
0.0605491
0.0250687
0.42541
0.814283
1.29244
-1.4858
0.733908
-2.53331
-12.9743
1.13804
1.03032
-0.276974
0.02551
1.24112
-0.159679
0.79459
-1.34386
1.68779
1.3642
2.65857
1.71543
-4.84585
-0.323384
-1.19502
-2.34387
-0.106889
-0.0943886
-0.422937
-8.37712
3.10923
0.0407697
0.0495585
2.46752
-4.19905
-0.823689
-0.37397
-7.35739
-4.74612
0.422259
-1.52849
1.59808
-0.586323
-4.39152
0.164128
-2.01092
-1.41944
-0.450403
-0.0132874
1.3972
-2.54172
-3.28608
-1.65481
0.661038
-2.02576
1.81364
2.53459
-2.28167
1.849
0.918229
1.30589
2.80591
-4.82114
1.13278
0.875833
0.878666
2.3896
-0.240382
-0.458448
-0.370771
1.77567
2.53216
-4.21549
-0.080772
-2.71573
-1.95685
0.982229
-3.57768
-2.57438
-3.01202
0.803354
-4.85815
0.392205
0.552506
1.54264
0.307747
-4.6955
0.00340294
-0.164355
-0.317312
2.70442
3.03354
2.23879
3.20859
1.58655
0.993773
1.86593
1.60486
1.65016
-2.84951
1.69814
-0.322254
-3.95856
2.4817
-0.589234
-1.83036
2.9184
0.146641
-11.6659
1.00608
0.881173
2.07229
-2.39394
1.62029
2.72196
-4.3777
-4.00881
-2.1593
1.16212
-6.94726
2.13809
-0.112324
2.08804
1.71205
-3.50929
1.94887
-0.980132
-5.17698
-4.99528
-7.45248
2.00329
-2.16498
1.77293
-0.187771
-5.3562
-0.00733422
-0.00705845
-1.2422
-3.62167
-4.62861
2.03819
0.451858
-4.95664
-0.526887
1.21043
0.459026
-10.0044
0.945078
-0.190198
0.952328
-4.90786
1.12201
0.565852
0.963834
-0.335763
1.55377
1.01776
0.636612
-5.16278
3.1873
-1.36103
-4.79034
1.55567
1.36117
-5.0184
-1.76722
-6.56467
1.00285
0.855934
-1.87451
-0.0788068
-0.290159
3.17958
0.0580582
-4.42716
-0.0177773
-1.19274
1.1111
-0.6777