/*--------------------------------*- C++ -*----------------------------------*\
| =========                 |                                                 |
| \\      /  F ield         | OpenFOAM: The Open Source CFD Toolbox           |
|  \\    /   O peration     | Version:  2306                                  |
|   \\  /    A nd           | Website:  www.openfoam.com                      |
|    \\/     M anipulation  |                                                 |
\*---------------------------------------------------------------------------*/
FoamFile
{
    version     2.0;
    format      ascii;
    arch        "LSB;label=32;scalar=64";
    class       surfaceScalarField;
    location    "6.6";
    object      phi;
}
// * * * * * * * * * * * * * * * * * * * * * * * * * * * * * * * * * * * * * //

dimensions      [0 3 -1 0 0 0 0];

oriented        oriented;

internalField   nonuniform List<scalar> 
20045
(
0.245105
-0.267221
0.0221153
-0.530562
0.186909
0.343653
0.19883
0.985644
-1.18447
-0.0689228
0.115528
-0.0466051
-0.423323
0.407906
0.0154179
-0.305473
1.13121
-0.825736
-0.504497
0.212644
0.291853
0.0317992
0.216764
-0.248563
0.240787
0.204533
-0.445319
-0.418864
-0.0478809
0.466745
-0.180941
-0.191857
0.372797
1.13009
-0.540458
-0.589632
0.173807
-0.176446
0.00263844
-0.640295
0.555542
0.0847539
-0.158197
0.526936
-0.368739
-0.543955
0.125091
0.0119086
-0.0422708
0.0303621
0.324212
-0.281649
-0.0425627
-0.830916
1.22504
-0.394128
-0.374801
0.0264316
0.348369
-0.0906902
0.0360589
0.0546313
0.0578659
0.115941
-0.0627012
-0.467861
0.426405
0.571786
-0.998192
0.409555
0.111557
-0.521111
-0.592996
1.0194
0.00234806
-0.00155766
-0.000790395
-0.674528
1.27007
-0.595543
0.860069
0.135463
-0.995532
-1.25707
0.688498
0.568574
-0.212164
0.0950478
0.117116
0.712359
-0.50514
-0.207218
-0.383254
0.842158
-0.458904
1.20541
-0.702978
-0.502436
-0.278577
0.310376
1.04488
-0.508726
-0.536149
0.707917
0.0522266
-0.760144
-0.0295413
0.182911
-0.15337
-0.962271
0.44423
0.518041
0.297927
0.260875
-0.558802
0.0229695
0.202244
-0.225213
0.062974
-0.0903502
0.0273762
1.07045
-1.07183
0.00137472
0.745567
-0.280278
-0.465288
0.349596
0.39597
0.511079
0.619011
-0.128144
0.0889624
0.0391814
0.644617
0.263019
-0.907636
0.846774
-0.138856
0.0862598
0.979196
-1.06546
0.650632
-1.09985
0.44922
0.883639
-0.635543
-0.248097
-0.59239
-0.423495
1.01589
-0.0457602
-0.148553
0.194313
0.371477
-0.145467
-0.22601
-0.345657
-0.0776661
-0.10325
0.858283
-0.755032
0.761767
0.0824583
-0.844225
0.562684
-0.945938
0.952996
-0.563631
-0.389365
-0.173898
-0.167162
0.34106
0.465804
0.487192
0.269523
-0.894896
0.625373
0.00237254
-0.0930627
0.763971
-0.184713
-0.579259
0.809157
0.0381098
-0.847267
0.0626709
-0.126882
0.0642109
-0.333364
0.0830431
0.250321
0.424399
-0.183612
0.83228
-0.845786
0.0135058
0.117395
-0.0547246
0.00954234
0.361935
-0.126136
-0.521978
0.648114
0.0771597
-0.1375
0.0603407
0.899502
-0.233978
-0.665524
0.67511
-0.77836
0.0538877
0.845614
0.2211
-0.379297
0.0611906
-0.182469
0.121279
0.172412
-0.611698
0.439286
0.519503
0.597587
-1.11709
0.449065
-0.345995
-0.10307
0.72405
-0.454527
-1.33097
0.242181
1.08878
0.00875168
0.236354
-0.273855
0.307973
-0.0341175
0.29116
-0.665469
0.374308
-0.803627
0.0356186
0.768009
0.518168
0.0740576
-0.592226
-0.422738
0.391323
0.0314153
-0.717333
-0.105733
0.823066
0.363648
-0.0673055
-0.296342
0.199456
-0.285743
0.0862866
-0.0792153
-0.406094
0.485309
0.289435
-0.310399
0.0209637
0.760806
0.180734
-0.94154
-0.0296921
0.0320401
-0.0875667
0.18584
-0.0982729
0.609659
-0.311732
0.0214038
-0.0608419
0.039438
0.704647
0.340228
-0.226965
-0.41333
0.105566
-0.193133
-0.167534
0.929301
-0.00361047
-0.270245
0.0643839
-0.0429801
0.230461
0.602427
-0.832888
0.521015
-0.888412
0.367397
-0.0669531
-0.208561
0.181652
0.0269094
-0.0985576
0.125916
-0.0273584
0.61392
-0.454096
-0.159824
-0.243824
0.198064
0.637153
-1.13654
0.49939
-0.0827664
0.155344
-0.0725775
0.0224891
-0.122104
0.099615
0.581075
-0.17152
0.865955
0.339458
-0.585026
0.458889
0.681133
-0.934086
0.252952
0.248993
0.0752188
-0.358231
0.184332
-0.384282
0.309956
0.0743265
-0.441256
0.0497181
-0.290898
0.24118
0.618188
0.265451
0.551365
-0.714613
0.163248
0.81419
0.0933006
-0.907491
-0.986981
0.739169
0.247812
0.0317702
-0.635623
0.603853
0.927781
-0.309593
0.153572
-0.0646092
0.130332
-0.0594341
-0.0708976
-0.0488898
0.0369829
0.0119069
0.569718
0.402174
-0.971893
0.597199
-0.57925
-0.0179489
-0.174493
0.106706
0.0677865
-0.149732
-0.0588287
1.05598
-0.374847
-0.324724
0.343096
-0.018372
0.64155
-1.15367
0.512119
0.176234
-0.768624
0.563172
0.22621
-0.789382
0.686947
-0.514535
0.965021
-0.130677
-0.834344
0.543365
-0.944504
0.401139
1.02137
-0.659144
-0.362223
-0.126407
0.232965
-0.106559
-0.0225638
1.09067
-1.06811
1.07605
-0.215983
-0.826058
0.0272122
0.798846
-0.476945
0.412228
0.0647167
1.00367
-0.484165
0.17091
0.278155
-0.633071
0.780884
-0.147813
-0.84486
1.04369
0.0103276
-0.153711
0.143383
-0.0036505
0.0106749
-0.00702439
-0.0173026
-0.184432
0.201734
1.13912
-0.375922
-0.763198
1.37537
-0.686461
-0.688906
-0.219313
0.202011
0.337398
-0.65742
0.320022
0.0740947
-0.0111207
-0.803077
-0.468937
0.691418
-0.222481
-0.67526
0.488526
0.186734
-0.0123957
-0.0211871
0.0335829
0.470315
0.551051
-0.0255639
-0.0233259
0.00457019
0.125762
-0.711583
0.0785127
-0.732556
0.932007
-0.199451
-0.661969
0.756163
-0.0941947
-0.586789
-0.431536
1.01833
-0.3211
0.33212
-0.0110201
0.459433
-0.469865
0.0104313
0.964469
0.0473074
-1.01178
0.016202
-0.759654
0.743452
-0.36162
0.924792
0.190728
-0.542014
0.351286
-0.482582
1.11974
-0.826527
0.543313
0.283214
0.233762
-0.250279
0.0165179
0.503661
-1.2706
0.766941
-1.00077
0.326242
-0.607321
-0.431183
1.17158
-0.703032
-0.468549
-0.269967
0.292936
0.122786
-0.129814
0.00702772
-0.755861
-0.129246
0.885107
-0.885805
1.24395
-0.358143
0.912554
-0.677853
-0.234701
0.0868544
-0.251073
0.164218
-0.290155
-0.460223
0.750378
0.214861
-0.395801
-0.573004
0.604775
-0.699049
-0.225976
0.925025
0.0881243
0.0242221
-0.112346
0.144294
-0.613231
-0.0861682
-0.125996
0.874537
-0.060347
-0.137754
0.108213
-0.13098
0.160111
-0.0291314
0.235306
0.903814
-0.805512
0.515357
0.162548
0.0378769
-0.200425
-0.701642
0.135332
0.56631
0.281293
0.631262
1.3367
-0.833034
0.769056
-1.32403
0.554973
0.263306
-0.995883
0.732577
0.0291832
-0.403984
-0.485618
0.716079
0.661778
-0.967251
0.402098
-0.805145
0.403047
-1.36275
0.778528
0.584217
-0.0143152
-0.408423
0.178035
0.138433
-0.316468
0.73781
-0.240984
-0.496826
-0.0489333
-0.756416
0.733852
-0.250042
-0.0746819
0.676318
1.06214
-0.859665
-0.202477
-0.010157
-0.124312
0.134469
0.676205
0.124488
-0.800693
0.284824
-0.330501
0.0456771
-0.209079
0.734618
-0.525538
-0.441337
0.732498
0.564009
-0.373281
-0.0571519
0.1665
-0.109348
0.973938
-0.332389
0.0869634
-0.00809082
-0.0788726
0.0343881
-0.18997
0.155582
-0.101943
0.105858
-0.0039145
1.15427
-0.726079
-0.428192
0.245716
-1.13152
-0.111385
0.0094418
-0.873375
0.283053
0.590323
1.27203
-0.429871
0.248462
-0.981018
1.33922
-0.588564
-0.750657
-0.0115894
0.0997138
0.820793
-0.442478
-0.378315
-0.610872
0.140498
0.470374
-0.934525
0.940566
-0.00604023
0.348135
-0.987179
0.639044
0.033084
-0.0404107
0.00732673
-0.46558
0.631956
-0.166376
-0.120125
0.33158
-0.211455
-0.14081
0.0580441
-0.114497
0.0159395
-0.545958
-0.342453
0.412866
-0.824994
0.412127
0.103501
0.206545
-0.310047
0.407138
0.305221
0.732338
-0.33024
0.00036517
-0.00401567
0.711092
0.560938
-0.489783
0.0115035
0.47828
0.3505
0.470293
0.381109
0.145826
-0.140579
0.24408
-0.282774
-0.0228911
0.305666
-0.011155
0.244917
-0.778179
0.569099
-0.135379
0.0180727
0.117306
-0.928994
0.893459
0.0355345
-0.334022
0.519068
-0.185046
-0.220375
-0.103965
0.32434
0.764764
-0.828671
0.0639072
-0.828581
-0.534164
1.28825
-0.818683
-0.469563
-0.0911083
0.0809512
1.07914
-0.731009
-0.435154
0.84802
-0.261007
-0.106262
0.367268
0.84919
-0.208183
-0.641006
1.12355
-0.312534
-0.811018
-0.408093
0.147086
0.832048
-0.492781
-0.339267
-0.158435
0.782026
-0.623591
0.566199
-1.07322
0.507021
0.259931
0.11134
-0.371271
-0.0282513
0.00435644
0.0238949
1.28041
-1.05815
-0.222257
-0.515661
-0.471321
0.707593
0.354548
-0.848338
-0.0806554
0.124717
-0.0903288
0.129762
-0.592813
0.463051
0.00382442
0.118962
-0.539918
1.10964
0.452377
0.701894
1.27382
-0.770027
-0.503793
-0.778179
0.552203
0.719735
-1.20645
0.48672
-0.627756
-0.0377671
0.665523
-0.236537
-0.171332
0.407869
0.54091
-0.203512
-0.0306871
0.193235
0.464409
-0.0310012
-0.474139
-0.680838
0.911481
-0.230643
-0.150623
0.0196437
-0.0688116
0.0116597
0.116586
-1.05111
0.354224
-0.795561
0.0909128
-0.190148
0.261147
-0.0709996
0.0133909
-0.0823137
-0.502731
0.38055
0.122181
0.349135
0.264785
0.420405
0.103629
-0.524033
0.492998
0.104201
-0.439451
0.569212
0.570998
-0.0528291
-0.204706
-0.496936
1.05891
-0.829514
-0.229396
0.861384
-0.744353
0.267989
0.476364
0.799591
-0.864805
0.0652142
-0.433074
0.353858
-0.109983
-0.06451
-0.118571
-0.598762
0.286284
-0.538672
0.252388
0.417136
0.414912
0.699253
-1.14038
0.441125
0.228399
-0.53307
0.304671
-0.97242
0.168793
0.012728
0.35092
-0.570764
0.869795
-0.299031
-0.254422
0.302358
-0.0479359
-0.40678
-0.0977169
-0.122077
-0.22532
0.347397
0.0781992
0.000913651
-0.0791129
-0.32544
-0.151504
0.377464
0.444718
-0.822182
0.757027
-0.406527
0.280731
-0.449708
0.0166341
0.461844
-0.233445
-0.664415
-0.162112
0.281989
-0.358688
0.0766983
0.976305
-0.331688
-0.463094
0.750327
-0.287234
-0.111207
0.128618
-0.017411
0.74433
-0.00651964
-0.221963
-0.37085
-0.508045
0.927222
-0.419178
0.628811
-1.13652
0.507714
0.591787
0.69646
0.0241283
-0.0573328
0.0332044
0.0868462
-0.714602
0.663316
-1.00372
0.340406
0.0912383
-0.0140786
-0.0801438
0.631509
-0.354368
0.708593
-0.689237
0.952543
0.189499
-1.02042
-0.883582
0.485032
0.39855
0.635825
-0.098874
-0.536951
0.93448
-0.169717
-0.478544
-0.530225
-0.469947
0.547741
-0.0323061
0.202303
-0.169997
0.316056
-0.289625
-0.717033
0.636889
0.843922
0.226532
-0.786399
0.323305
1.0473
-0.339706
-0.177026
0.328789
-0.151763
0.0200706
-0.630384
0.610313
-0.902416
0.16985
0.732566
0.726365
-0.726365
-0.304591
0.704547
-0.399956
0.575392
-0.154988
0.678375
-0.373995
-0.30438
-0.958049
0.992231
-0.0341814
0.334724
-0.0431419
-0.291582
0.256698
-0.107115
-0.149583
0.104604
-0.324978
0.121265
0.455239
-0.890393
-0.859893
1.01334
-0.153451
-0.282517
0.659981
0.108722
0.000409538
-0.109131
-0.102315
0.0466234
0.055692
-0.374507
0.403691
1.21139
-0.982158
-0.229229
-0.0828628
-0.527812
0.610674
-0.222998
0.243992
-0.0209946
0.117321
-0.271893
0.154572
-0.985731
0.370502
0.615229
0.0661441
0.0493838
-0.302238
0.125212
0.0262543
-0.108691
0.082437
0.597906
0.682502
0.095953
0.0127687
-0.0434249
-0.292144
0.335569
-0.505582
0.80388
-0.298299
-0.00348206
0.0793393
-0.0758572
0.427183
-0.214539
0.708029
-0.220924
-0.487105
0.00666286
-0.412756
0.12965
0.834819
0.432289
0.295317
-0.727606
0.459108
-0.410605
-0.0485034
-1.01261
0.186547
-0.42308
0.173124
0.249956
0.479495
0.621209
-1.1007
-0.626071
0.588304
0.0446787
-0.913936
0.869257
-0.121092
0.207947
0.238367
-0.266498
0.0281316
0.0230223
-0.305797
-0.00344326
0.0402144
-0.0367712
-0.672839
-0.200536
0.618629
0.0696998
0.00502496
-0.0747248
-0.115844
0.00463721
0.17137
-0.709772
0.538402
0.240527
0.545104
-0.785632
0.401554
-0.713821
0.872107
-0.158286
-0.716761
0.558326
0.0147671
-0.0163248
-0.392236
-0.283024
-0.248572
0.0652061
0.183366
-0.874787
0.369206
0.66961
-0.752473
0.428384
0.618915
-0.298803
0.300818
-0.00201497
0.402872
-1.04775
0.644877
0.143398
-0.260307
0.116909
0.394278
-0.616241
-0.638019
-0.0239495
-0.303502
-0.029862
0.0786013
-0.052725
-0.0258763
0.382806
-0.00217274
-0.0266753
0.028848
1.03651
-0.557012
-0.489904
0.880495
-0.390591
0.260955
0.177829
-0.438785
-0.362634
0.241542
-0.207573
-0.0409989
0.433346
0.245029
-0.201253
-0.732833
0.364067
-0.0820779
0.616088
0.403713
0.167284
-0.938062
1.02432
0.121904
-0.470467
0.348563
-0.0856484
-0.82808
0.913728
-0.232957
0.239988
-0.00703084
-0.220007
-0.101092
-0.523297
1.0895
0.992465
-0.4491
-0.433845
-0.0688856
0.00936505
-0.407724
0.398359
0.408658
-0.995448
-0.128678
-0.469207
0.597885
-0.0662049
0.0934735
-0.0272685
-0.651868
0.0546772
0.597191
0.951379
-0.68836
-0.0175976
0.078388
-0.0607904
-0.207333
-0.0156641
0.17939
0.357592
-0.536981
0.0960804
-0.121439
0.0253589
0.610765
0.351538
-0.962302
-0.38044
1.14125
0.0761665
0.00203272
-0.27099
-0.577429
0.848419
0.339201
0.71678
0.947107
-0.70658
-0.342243
0.220166
-0.0405732
0.0123219
-0.448117
1.16785
0.136656
-0.767335
0.630679
0.903548
-0.143928
-0.75962
-0.485526
0.713948
-0.228422
0.396407
-0.428241
-0.443247
0.871488
0.0658605
-0.0975433
0.0316828
-0.284909
-0.485221
0.77013
-0.0697833
-0.0325321
0.0272819
-0.0396776
0.505768
-0.790678
-0.7073
-0.206625
0.913924
-0.0662145
-0.476026
0.542241
0.191541
1.20566
-1.22661
0.0209522
0.203902
-0.14777
-0.0561321
0.00506335
-0.303867
0.257698
0.227611
-0.31354
0.0770025
-0.816231
1.02518
-0.208951
-0.191461
0.0560814
0.298674
0.388273
-0.821485
-0.250344
-0.0188653
-0.0317993
0.0506646
0.533803
-0.13009
-0.192936
0.212726
-0.0197899
0.204661
-0.324786
-1.17873
0.571405
0.941852
0.189358
-0.127546
0.244866
-0.197231
0.458186
0.871637
-0.416398
-0.200182
0.00724596
-0.105463
-0.61157
0.205891
0.205899
-0.195572
-0.918546
0.0161295
0.00112692
0.204734
-0.0613359
-0.94349
0.649479
0.294011
0.699468
0.132813
0.179238
-0.0576109
-0.121627
0.275049
-0.256362
-0.0186867
-0.787843
0.279117
-1.03151
0.52347
0.0747266
0.147259
-0.221985
-0.0457677
0.214665
-0.168898
1.01941
-0.00196081
-1.01745
0.141214
0.00797133
-0.149185
-0.134441
-0.249841
0.218923
-0.0194671
0.155383
-0.145069
-0.0103142
0.383207
-0.0567088
-0.326499
0.0300827
0.1253
0.837286
-0.656553
-0.0285501
-0.136882
0.165432
-1.02084
0.204606
-0.0119129
-0.143808
0.249374
-0.051029
0.120729
-0.000699667
0.00106484
0.238188
0.156996
-0.395183
0.541272
0.2227
0.443534
-0.32163
0.187898
-0.165409
0.0615922
-0.316014
0.620549
-0.000885884
-0.619663
0.531042
-0.0323512
-0.498691
-0.580084
-0.36442
-0.236606
-0.0998506
0.336457
0.403517
-0.433123
0.0296052
1.11328
-0.0408738
-1.0724
-0.344708
-0.00986066
0.354569
-0.493023
0.656142
-0.163119
0.576121
0.66224
-1.23836
0.170486
-0.337647
-0.265899
0.424971
-0.159072
0.20873
0.0945735
-0.303303
-1.11787
0.613299
0.504573
-0.122445
-0.022624
-0.844108
0.136808
0.292807
-0.181106
-0.111701
0.487889
-0.615276
0.127386
-0.0812604
-0.18596
0.186853
1.01881
0.819637
-0.134295
-0.685342
-0.8488
0.134979
0.338024
-0.54273
0.740067
-1.15901
0.418946
-0.0956388
0.273674
-0.00556371
-0.385925
0.3425
-0.156164
0.205882
-0.128757
-0.790535
0.919293
0.459902
0.619242
-0.744652
0.773286
-0.028634
0.0554079
0.0231934
-0.614668
-0.25803
-0.1081
0.120542
-0.0124422
0.465493
-0.272863
-0.19263
0.0231875
0.0187054
-0.0418929
-0.0672195
0.555109
-0.775363
-0.104454
0.879818
-0.722573
-0.248912
0.971485
0.47403
-0.346701
-0.12733
-0.166807
0.018433
0.148374
-0.321178
0.0600223
0.261156
-1.01548
0.0454394
0.970042
0.0267455
0.176944
-0.203689
0.807655
-0.907952
0.100297
-0.520914
0.937842
0.133679
-1.07152
0.0101939
-0.118294
-0.125879
-0.571563
0.697442
0.605244
-1.08783
-0.948256
0.823313
0.124943
0.111556
-0.0154755
0.707407
-0.408734
-0.0462217
-0.247315
0.293536
-0.00827743
0.121871
-0.113594
-0.203152
0.91597
-0.712818
0.76162
-0.411623
-0.349997
1.03638
-0.98087
-0.0555132
0.791972
-0.299193
-0.492779
0.0435914
-0.214624
0.171033
-0.279744
-0.0111543
-0.920812
0.810062
0.11075
0.0538791
-0.974691
-0.274817
0.508398
-0.233582
-0.593779
-0.464372
0.177735
-0.155542
-0.0221934
-0.798761
-0.222076
-0.168829
0.111518
0.0573104
0.0812266
0.203598
-0.882517
0.851511
0.0310061
-0.177078
-0.115079
-0.0224218
0.152711
-0.0114973
-0.602135
0.136555
0.122016
-0.148701
0.0266852
-0.826733
0.412976
0.413757
0.353393
-0.0186696
-0.246786
0.679902
0.0644277
0.351678
0.00542335
0.217228
-0.222651
-0.0860583
0.545492
-0.602048
0.389289
0.212759
-0.169806
0.0473612
1.05424
-0.594342
0.897888
-0.495016
-0.245084
-0.15324
0.398323
0.438954
-0.891408
0.452453
0.545699
-0.611914
0.977873
-0.431974
-0.545899
-0.00338677
-0.508665
-0.0933832
-0.859822
0.749354
0.110468
0.0921829
-0.321532
1.09059
-1.0677
0.268939
0.373479
-0.113548
-0.0893144
0.0455186
0.108737
-0.00287881
-0.493382
-0.510022
1.25921
-0.584098
-0.217564
0.323847
-0.106283
0.0617535
0.194944
-0.662758
-0.389401
1.05216
0.210238
0.330672
-0.00294561
-0.130214
0.133159
0.820483
-0.262802
-0.0126961
0.275499
0.632808
-0.0122599
-0.35411
-1.03139
0.171493
-0.200786
0.00915815
0.191627
0.575676
0.763545
0.523965
-0.338184
-0.185781
0.981994
0.0543893
0.602383
-0.85474
0.252357
-0.83101
-0.0120179
0.843028
-0.750109
0.977225
-0.227116
0.12445
-0.00435618
-0.120094
-0.46326
1.0685
-0.322226
0.0330319
0.289194
0.0205674
-0.76522
0.138441
-0.043641
-0.0948005
-0.957393
1.24476
-0.287369
-0.234007
0.529509
-0.295501
1.16155
-0.510951
-0.650602
-0.00964923
-0.593228
0.602877
-0.236002
-0.0304958
-0.525289
1.10141
0.400064
-0.704655
1.11352
-0.484708
-0.172232
0.143682
-0.869053
0.0380435
1.20432
-0.505067
-0.0250038
-1.30596
0.222647
-0.0204034
0.329233
0.520402
-0.849636
0.543995
-0.11889
-0.425104
0.954815
-0.967102
0.0122869
-0.122626
0.00911212
0.113514
-0.19631
-0.473486
0.669796
0.338647
-0.277054
-0.348172
0.111242
0.23693
0.119613
0.289935
-0.409549
0.0742272
0.103508
-0.878959
1.0292
-0.150238
-0.199968
-0.0329891
0.446392
0.19815
-0.644542
0.577704
0.50318
-1.08088
0.149297
0.486528
-0.017327
0.982348
0.00293025
0.783383
-0.786313
0.00422488
-0.00770693
0.0840946
-0.00384101
-0.0802536
1.00829
-0.923548
-0.0847384
0.447234
0.530639
-0.0763615
0.0350431
0.0413184
-0.288578
0.804575
-0.515996
0.0130855
0.142149
-0.155235
0.513698
-0.853988
0.340291
-0.445376
-0.573657
1.01903
0.842804
-0.166599
0.299591
0.244404
-0.418919
-0.0851971
0.504116
0.280394
-0.808205
-0.00842574
-0.282232
0.290658
0.174887
-0.0750481
-0.099839
0.00561668
-0.241619
-0.0693908
0.612707
-0.543316
-0.148072
1.12727
0.77035
-0.616838
-0.153512
0.616904
-0.542846
-0.518468
0.152486
0.365982
0.109298
-0.483293
0.051345
0.0208685
-0.0722135
0.0535681
0.12567
0.137377
0.735112
-0.872489
0.205132
0.178075
0.120353
-0.842926
-0.418745
0.16491
0.253835
-0.317628
-0.230264
0.547892
0.46393
-0.225742
-0.839613
0.557096
0.258712
-0.208832
-0.049879
-0.462086
0.840704
-0.378618
-0.426321
0.432984
-0.425574
0.542169
-0.116595
-0.559605
0.889877
-0.330273
-0.0199882
0.191214
-0.171226
-0.232387
0.186619
-0.291447
-0.570815
0.88183
-0.311016
-0.54079
0.676122
0.49922
-0.502065
0.0028452
0.273385
-0.0836721
-0.189713
-1.25706
0.84284
0.414219
-0.00378006
0.229016
-0.225236
0.0537175
0.690235
-0.893386
0.837072
-0.398117
-0.359513
-0.524069
-0.696787
0.699718
0.499687
-0.0111611
0.389274
0.122253
-0.511527
-0.312293
0.287202
0.0250905
0.0916022
-0.155471
0.063869
-0.146124
-0.36399
0.510114
-0.139346
0.486005
-0.346659
-0.753205
-0.255483
1.00869
0.0338631
0.239522
0.827763
0.180523
-0.800689
0.532495
0.268193
-0.00026713
-0.239402
0.239669
0.00328967
0.161399
-0.211154
0.0497551
-0.64653
-0.614154
0.46803
0.121505
0.184533
-0.140942
0.303482
0.162011
0.00164937
-0.637273
0.0262161
0.263219
0.136179
0.0352926
-0.171472
-0.608017
-0.474804
1.08282
-0.0839543
-0.334964
-0.505105
-0.099655
0.60476
0.124275
0.174879
-0.299154
-0.010501
1.13117
-0.738891
-0.392276
0.167553
0.652084
0.0895991
0.281557
-0.432471
0.150914
-0.464693
0.984335
-0.519642
-0.56771
-0.252346
0.820056
-0.43748
0.171581
-0.411777
-0.106691
0.876858
-0.425242
-0.451616
0.313577
-0.281234
-0.0323422
0.385546
0.0444243
-0.42997
-0.151555
0.178301
0.304235
-0.392541
0.0883063
0.206278
-0.023488
-0.195825
-0.00669631
0.469337
0.407521
-0.368661
0.81289
-0.406095
1.09459
0.151372
0.162205
-0.858293
0.290583
0.713102
-0.626255
-0.0946017
-0.614759
0.121736
0.205435
-0.480251
0.722105
-0.702034
0.816492
-0.0169014
-0.183759
-0.101984
-0.282325
-0.066427
0.348752
-0.2771
-0.0332985
0.705243
0.150418
-0.855661
0.0298702
-0.24178
0.21191
0.00160891
0.340522
-0.80595
0.465428
0.873732
-0.0660768
-0.961486
1.021
-0.0595091
0.204936
-0.121893
-1.07986
-0.177196
-0.328546
0.839065
-0.0290033
0.409551
1.12059
-0.410748
-0.709837
-0.634872
-0.0417952
0.676668
0.201939
0.509517
-0.711456
-0.682041
0.0301725
-0.159767
-0.147674
0.307441
-0.463457
0.600113
0.126221
0.514879
-0.6411
-0.105866
0.157881
-0.0520149
-0.961385
0.109153
0.852232
0.326099
0.510973
-0.221382
0.558864
0.233108
-0.300771
-0.122309
0.775041
-0.905718
-0.0671132
-0.399619
0.466732
0.313065
-0.142579
0.665358
0.0471216
-0.712479
0.704187
-1.11028
0.0101442
0.0229398
-0.423339
0.580246
-0.156907
-0.684897
0.559018
-0.0155759
0.261878
-0.246302
-0.381442
0.180064
0.201378
0.103011
-0.323019
-0.242752
0.580776
0.192877
-0.11815
-0.136809
0.147003
-0.00479854
-0.325703
0.0180997
-0.0585104
-0.170422
0.16421
0.00621141
0.183982
-0.20865
0.0246678
-0.66021
0.426233
0.133126
-0.638232
-0.0139361
-0.256031
0.0265502
0.535161
-0.561711
0.303812
-0.326704
0.174129
-0.797196
0.623067
-0.282542
0.718806
-0.436264
0.183129
-0.863967
-0.126536
-0.0254756
-0.92278
0.567891
0.691317
-0.739049
-0.100563
-0.478548
-0.265805
-0.387751
0.162431
0.092188
-0.0211637
-0.0710243
1.20176
-0.626086
0.865694
-0.202379
-0.222784
-0.140524
0.363308
-1.15252
0.488826
0.663695
-0.414718
0.222861
-0.0939506
1.03179
0.14353
-0.0856636
-0.419219
-0.188754
-0.133472
0.374571
-0.337619
-0.0369523
-0.115437
0.82068
-0.023492
0.267936
-0.244444
0.662268
-1.28734
0.583743
0.703599
0.220569
0.192509
-0.413078
0.58691
-0.268199
-0.318711
-0.496359
0.262351
-0.757717
0.0166338
0.368912
0.886005
-0.971653
0.37959
-0.17086
-0.394303
0.674696
-0.883052
0.629457
0.253595
0.556331
-0.897497
0.341166
-0.687422
0.720854
-0.0334322
0.422996
-0.509054
0.0124892
0.235032
0.238998
0.115837
-0.727535
0.303232
-0.974167
0.516331
0.457837
0.233411
-0.868283
0.710228
-0.0450901
-0.565782
0.132405
0.143466
1.01388
-0.333887
-0.679992
-0.272107
0.245676
-0.563304
0.135102
-0.958578
0.916782
-0.774147
0.345906
0.46855
-0.70501
0.379665
0.325346
-0.822969
0.531435
0.291534
-0.23955
-0.00742741
-0.0587775
-0.9963
0.694968
0.301333
0.604403
-1.06766
-0.865354
-0.0136048
1.14423
-0.404163
0.254818
0.0918082
-0.346627
-0.0195885
-0.121452
0.14104
-0.266583
0.473442
0.528261
-0.431732
-0.273278
0.167429
0.171218
0.222738
0.332268
-0.555006
0.347584
-0.209151
-0.0425692
-1.06589
1.10846
-0.308923
0.408215
-0.769835
-0.565838
-0.411894
0.977732
0.230562
-0.297868
-0.649152
0.201685
0.447467
-0.0155842
-0.00869824
0.0242825
0.730779
-0.859537
0.0653129
-0.488651
0.479877
0.43475
-0.914627
-0.32564
0.108076
-0.792568
0.221334
0.571234
-0.983715
0.538339
0.520892
-0.985585
0.521878
-0.588991
-0.0153868
-0.00019747
-0.0294251
0.932973
-0.587425
0.72544
-0.138015
0.875847
0.00131158
-0.877158
-0.676497
-0.0117353
-0.178412
0.0641483
0.662216
0.101646
0.0269719
0.276297
0.396989
0.178403
0.481772
-0.0529679
0.14457
-0.829346
-0.0531706
-0.624516
0.283896
-0.726374
0.155847
0.176855
-0.332702
0.788995
0.0463158
-0.835311
-0.0887525
0.0843964
-0.326806
-0.704708
-0.757656
-0.107149
-0.429146
1.13333
-0.314997
0.42796
-0.112963
-0.880189
0.272172
-0.258215
0.480952
-0.313335
-0.630155
-0.40678
-0.307706
0.318137
-0.578445
-0.248288
0.961969
-0.122903
0.599757
-0.287966
-0.311791
0.0798422
0.0866575
0.226605
0.985026
-0.940347
0.00943648
-0.204275
0.290562
-0.470988
0.482491
-0.420015
-0.503415
0.19971
0.156665
-0.356375
-0.763775
0.0374107
-0.10824
0.730092
-0.621852
-0.0702813
-0.891205
-0.678636
0.803124
1.37067
-0.590645
-0.780023
-0.135715
0.308839
0.783213
-0.420167
-0.363046
0.235834
-0.259322
0.0433929
0.0407017
-0.19619
0.0521475
0.144042
-0.112397
0.50167
-0.473674
1.07808
-0.0299645
-0.125577
-0.25246
-0.0680176
0.320478
-0.0156323
0.746411
0.0905385
0.457158
-0.547696
-0.357209
0.536599
0.410959
0.393616
-0.325435
-0.0933105
0.480663
-0.17704
-0.303624
-0.0692828
0.0556461
0.0136368
0.13722
-0.779509
0.642289
-0.879975
0.122319
0.197169
-0.443385
0.727281
-0.00708987
0.242924
0.108412
-0.423409
-0.944465
0.474518
-1.01792
0.331456
-0.411877
0.0373693
-0.397193
-0.545919
0.943112
-0.862078
0.141914
0.191859
-0.333774
0.990634
-0.748454
0.76658
-0.56464
0.151202
0.494841
-0.646043
0.204787
-0.364555
-0.622517
-0.140695
0.763213
0.0748141
0.0942464
-0.16906
-0.467858
1.02964
-0.561779
0.768839
-0.487562
-0.281277
0.690812
0.0209736
-0.711786
-0.529882
-0.75746
-0.297583
-0.00591914
0.345099
0.582682
-0.0130494
0.073782
-0.0607326
-0.640283
-0.152285
0.658694
0.56635
-0.501715
0.59738
-0.0956656
-0.30251
0.289814
-0.0229012
0.320667
-0.297766
0.220535
-0.244027
-0.115097
-0.881203
-0.812046
0.247526
0.0111854
-0.190443
0.104275
0.066929
0.69707
-0.763999
-0.474664
-0.127471
0.44285
0.314177
0.0620427
-0.211775
0.0088804
0.177334
-0.186214
0.0868092
-0.336417
0.249608
0.264111
0.254957
0.225999
0.778887
-0.361752
0.844654
-0.436439
-0.0969208
-0.228093
0.325014
0.710667
0.071359
0.0317382
-0.627041
0.43073
0.335991
-0.351623
-0.511537
-0.562518
1.07406
-0.620911
-0.53161
-1.06142
1.10615
-0.0447326
0.251102
-0.353082
0.286655
0.522065
0.256822
-0.214195
0.0243737
0.189821
-0.283998
-0.561788
-0.0529785
-0.645673
0.698652
0.415104
-0.204866
0.256519
-0.264945
0.550422
-0.877228
0.445544
-0.333988
-0.621175
1.33932
-0.718142
0.586385
0.470391
0.277164
-0.747555
1.07473
-0.629336
-0.445397
-0.470045
-0.65461
1.09385
-0.439244
0.310126
0.289631
-0.253522
0.246432
0.398939
0.762614
-0.182004
0.162416
0.0227422
-0.024915
0.902061
-0.499887
0.435861
0.765902
-0.36388
0.187678
0.176202
0.202769
-0.447853
0.712961
-0.0476035
0.438922
-0.184104
-0.649267
-0.114327
0.763594
0.161728
-0.0306223
-0.131106
0.114113
0.0897889
0.130249
-0.880358
-0.252389
0.275412
0.655656
-0.570859
-0.0847971
0.146555
0.334108
-0.124728
0.0671172
0.22131
0.21347
-0.43478
-0.467912
1.0306
0.041615
-0.539856
1.10903
-0.569179
-0.275718
0.395332
-0.0943459
-0.0115198
1.04917
-0.518913
-0.329425
0.302467
0.284443
0.267319
-0.281255
-0.137583
0.117595
-0.272404
-0.114224
-0.00161986
0.418808
-0.132478
0.760181
-0.627703
0.110344
-0.0840894
-0.322311
0.0749967
-0.285041
-0.0125417
-0.847235
0.576245
0.2136
0.211372
-0.214466
-0.0860656
0.300532
0.270702
0.0372703
0.78104
0.424293
-1.20533
-0.076078
-0.0186341
0.0947121
0.218654
-0.708558
0.892232
0.478436
0.733539
-0.66661
-1.10273
0.0193591
-0.0258899
-0.0991793
0.432168
0.258976
0.678811
-0.937787
0.333299
-0.0294862
-0.0312581
-0.288421
-0.0754586
-0.476279
-0.421192
0.53049
0.562156
0.318339
0.530421
-0.547252
0.0168302
0.157258
0.00695227
-0.0645902
0.216068
-0.0320863
0.674468
0.169777
-0.844244
0.351424
0.0231469
-0.193767
0.116888
0.076879
-0.301409
-0.00124588
0.302655
0.301949
0.542623
-0.844572
0.203505
0.260425
0.643454
-0.0166314
-0.227193
0.642657
-0.245668
0.0126836
-0.0236737
0.0109901
-0.939833
0.508649
0.778494
-0.623398
-0.155096
0.0113196
-0.110499
0.0991798
0.759501
-0.828891
0.490633
-0.0755293
0.33716
0.429419
-0.101254
-0.0129702
-0.420393
0.133466
0.286927
-0.555763
-0.0968434
0.998804
-0.510477
-0.488327
0.532148
-0.0887172
-0.44343
0.373657
-0.635353
0.261696
-0.0607377
0.466093
-0.00424916
-0.319046
0.733314
-0.414268
-0.282358
-0.138035
-0.357839
0.0896393
0.178297
0.681781
0.00479495
-0.686576
-0.297658
-0.0529762
0.189155
0.0444731
-0.00943003
0.386887
0.193359
-0.146749
0.169937
-0.0127382
0.0293419
-0.132167
0.128557
-0.350316
0.501518
0.0120306
0.193869
0.211184
-0.284516
0.691654
-0.0489842
0.579406
-0.120368
-0.0891274
-0.21137
0.432681
-0.183496
0.85267
-0.669174
-0.744266
-0.0998418
-0.575537
0.908865
-0.333328
-0.211075
0.300714
0.272441
-0.0556767
-0.0184051
-0.204023
0.222428
-0.766144
0.247231
0.0835529
-0.101151
0.468527
-1.13129
0.339253
-0.916682
-0.385853
0.95764
-0.427762
0.446579
-0.233109
0.01194
-0.586862
0.724082
0.00034255
-0.124655
0.140699
-0.4874
-0.0826886
-0.550479
0.633168
-0.0442019
0.424866
1.21849
-0.796733
-0.421757
-0.188041
0.0568382
0.177039
0.0189029
-0.195942
-0.718979
0.131554
0.148479
0.0264078
-0.00609449
-0.096808
0.102902
0.392593
-0.96813
0.076217
0.397657
0.02324
-0.420897
-0.942599
0.759103
0.115446
0.0313724
-0.146818
0.302444
-0.873259
-0.111174
-0.00297163
0.114145
0.147806
-0.0323608
-0.0021368
0.642376
-0.493079
0.53718
0.433683
-0.230178
-0.799975
0.234137
-0.605721
0.480763
0.124958
0.532756
-1.04429
-0.444156
-0.266072
0.710228
0.0695674
0.34266
-0.257883
0.214742
1.05097
-0.147577
-0.903394
-0.00956914
-0.819777
0.632914
0.057898
0.373009
0.410204
-0.125685
-0.00452854
0.111773
-0.2461
-0.292571
0.0551846
-0.0463889
-0.00879575
0.0202226
-0.662836
0.642613
-0.0446075
0.241739
-0.197131
0.354967
-0.884063
0.529096
-0.10296
-0.47629
-0.0303898
0.0285093
0.604862
-0.295903
-0.165131
0.461033
-0.311414
-0.361425
0.381202
-0.224537
0.341739
-0.0965973
-0.245141
-0.404717
0.19025
-0.675496
-0.117046
-0.0161692
0.133215
0.106384
0.265551
-0.371935
0.224038
-0.77085
0.546812
0.0114701
-0.479331
0.147074
-1.10447
-0.381677
-0.699037
1.08071
-0.847587
0.0376659
0.809921
-1.15452
-0.701986
0.0145645
-0.230166
0.236849
-0.00668323
-1.13218
-0.308092
0.982559
0.322654
-0.165659
0.0720024
-0.283373
-0.143078
0.403503
0.119956
0.0704583
-0.322919
0.0124261
-0.0971456
0.0847195
-0.202944
0.0765376
-0.0641061
0.0754257
-0.228651
0.44922
-0.873617
0.543496
0.330121
-0.267864
0.237177
0.52577
0.161606
0.000121692
-0.243204
0.0290094
-0.421903
-0.22725
-0.466656
0.164071
0.302584
0.0470393
0.284205
-0.331244
-0.344837
0.431646
-0.0645956
0.630905
0.923199
-0.83266
0.48748
-0.798893
0.375992
-0.517139
0.141146
0.07741
0.000978011
-0.0513574
-0.00597541
-0.936556
0.539363
0.114338
0.417809
0.0128248
-0.159031
0.146206
-1.4302
0.585341
-0.0335897
-0.15638
-0.157586
-0.0174006
-0.179086
0.196486
-0.478946
0.183043
-0.964094
0.848997
0.993936
-0.514059
-0.148685
0.13347
0.0152155
-0.0670154
0.0352161
-0.117268
-0.93181
0.299603
0.632207
-0.108965
0.0903305
-0.0541312
0.235614
-0.181483
0.304544
0.186089
0.170086
-0.148051
-0.0220353
-0.217269
0.2293
0.0873682
0.00387011
0.510282
-0.767788
0.937993