/*--------------------------------*- C++ -*----------------------------------*\
| =========                 |                                                 |
| \\      /  F ield         | OpenFOAM: The Open Source CFD Toolbox           |
|  \\    /   O peration     | Version:  2306                                  |
|   \\  /    A nd           | Website:  www.openfoam.com                      |
|    \\/     M anipulation  |                                                 |
\*---------------------------------------------------------------------------*/
FoamFile
{
    version     2.0;
    format      ascii;
    arch        "LSB;label=32;scalar=64";
    class       surfaceScalarField;
    location    "5.8";
    object      phi;
}
// * * * * * * * * * * * * * * * * * * * * * * * * * * * * * * * * * * * * * //

dimensions      [0 3 -1 0 0 0 0];

oriented        oriented;

internalField   nonuniform List<scalar> 
20045
(
0.777353
-0.86787
0.0905164
-1.63607
0.623351
1.01272
0.402274
2.67497
-3.07725
-0.460258
0.673164
-0.212906
-1.2992
1.27702
0.0221774
-0.828659
3.21599
-2.38734
-1.59488
0.699882
0.894997
0.107226
0.66969
-0.776915
0.722953
0.660309
-1.38326
-1.16025
-0.226355
1.38661
-0.220862
-0.154665
0.375526
3.49931
-1.69521
-1.8041
0.584986
-0.584914
-7.17731e-05
-1.87825
1.54324
0.335011
-0.507826
1.65372
-1.14589
-1.60344
0.443186
0.00608431
-0.0746147
0.0685304
1.63531
-1.42444
-0.210877
-2.63767
3.83339
-1.19571
-1.13546
0.0300633
1.10539
-0.546549
0.324109
0.22244
0.203068
0.381918
-0.248754
-1.38732
0.868499
1.55892
-2.42742
1.27032
0.246172
-1.51649
-1.6277
2.4962
-0.127676
0.134564
-0.00688778
-1.69672
3.19708
-1.50037
2.63281
0.0540424
-2.68685
-3.03151
1.54178
1.48972
-0.918268
0.393944
0.524324
2.17042
-1.58046
-0.589964
-1.22232
2.26957
-1.04725
3.10002
-1.72373
-1.37629
-0.864292
0.971518
2.65959
-1.25443
-1.40515
-0.0607917
3.39898
-3.33819
-0.10419
0.619951
-0.51576
-2.27945
-1.83933
4.11878
0.951522
0.773247
-1.72477
0.0881234
0.632518
-0.720642
0.272135
-0.377946
0.105811
4.01751
-3.99657
-0.0209447
2.20735
-0.778562
-1.42879
0.984733
1.22262
1.61477
1.88454
-0.140691
0.267492
-0.126801
1.51016
1.0557
-2.56585
3.60286
-3.66365
0.200088
2.65981
-2.8599
1.95281
-3.29373
1.34092
3.86356
-3.94755
0.0839935
-1.92532
-1.20367
3.12899
-0.137423
-0.479877
0.6173
1.8358
-0.849824
-0.98598
-1.07938
-0.219825
0.643225
1.43619
-2.07942
4.83007
-1.65148
-3.17858
1.28293
-2.50525
0.451161
-1.52975
1.07858
-0.297652
-0.000204194
0.297856
-1.51785
1.96901
1.00292
-2.63418
1.63125
-0.175823
-0.370727
2.00634
-0.0750547
-1.93128
-0.598689
3.36053
-2.76184
0.266475
-0.647263
0.380788
-1.02122
0.192989
0.828235
1.31301
-0.590058
2.0188
-2.12201
0.103211
0.605976
-0.339501
0.165574
1.67023
-0.416316
-1.54957
1.96589
0.0751604
-0.15474
0.0795794
0.276986
1.86803
-2.14501
1.86952
-1.22629
-2.58044
2.85743
0.678071
-1.1859
-0.0612815
-0.275485
0.336766
-0.354122
-0.773024
1.12715
1.42183
1.61116
-3.03299
1.34737
-1.09962
-0.247747
2.26619
-1.26327
-3.64932
0.685284
2.96403
0.00881776
0.768536
-0.752347
0.934068
-0.181721
4.15187
-1.87147
-2.28039
-2.40501
0.0970312
2.30798
1.52442
0.268217
-1.79264
-1.28391
1.11129
0.172627
-2.14388
-0.221694
2.36558
1.12528
-0.192242
-0.933037
0.62621
-0.9219
0.29569
-0.292718
-1.20178
1.4945
0.925389
-0.979535
0.0541456
1.90883
0.797372
-2.70621
-0.155558
0.0278817
-0.17817
0.673043
-0.494873
1.87158
-0.920056
0.0217137
-0.0264099
0.00469614
1.82062
0.838963
-0.729734
-1.14852
0.547812
-0.725982
0.953388
3.87668
0.020505
-0.772852
-0.0786946
0.100408
0.659762
1.81107
-2.47083
3.50771
-1.72489
-1.78282
-0.201972
-0.721615
0.624377
0.0972383
-0.409063
0.510656
-0.101593
1.93706
-1.47912
-0.45794
-0.7753
0.637877
2.25917
-2.86258
0.603411
-0.316018
0.533558
-0.217539
0.0825321
-0.496004
0.413472
1.69679
-0.426466
2.28105
0.818974
-1.7889
1.37259
1.19055
-4.47442
3.28387
1.24223
0.393079
-0.402595
0.104943
-1.21465
0.991136
0.223518
1.22826
0.147469
-0.909867
0.762399
3.94373
-0.0801732
1.72466
-2.19352
0.46886
2.3785
0.281684
-2.66019
-2.8643
2.28828
0.57602
-0.256096
-1.80944
2.06553
4.5698
-0.626062
0.0825828
0.184909
0.15457
-0.182233
0.0276632
-0.0867147
0.0457187
0.0409961
1.71275
1.20106
-2.91382
1.82073
-1.71079
-0.109937
-0.497283
0.161756
0.335526
-0.509793
-0.211822
4.8706
-3.68005
-1.00639
1.08006
-0.0736742
1.84323
-3.11974
1.27651
0.397308
-2.32263
1.68986
0.690672
-2.38053
0.958369
-1.31249
3.43646
-0.525572
-2.91088
0.984805
-2.52293
1.53812
4.02363
-3.59622
-0.427411
-0.29872
0.583822
-0.285102
0.0114424
2.9636
-2.97504
2.84943
-0.216621
-2.47669
0.0804747
2.39621
-1.48061
1.29983
0.180777
2.65792
-1.23609
0.445815
0.901555
-1.89641
2.28902
-0.39261
-2.29668
2.69895
0.0390478
-0.591086
0.552038
0.0284315
0.110234
-0.138666
-0.0506572
-0.586494
0.637151
2.00411
-0.774167
-1.22995
3.98623
-1.89016
-2.09607
-0.691865
0.641208
1.40184
-2.13238
0.730543
0.332374
-0.0602385
-2.99417
-1.42425
1.96211
-0.537867
-1.94658
1.47434
0.472245
-0.0428682
-0.113669
0.156537
0.583314
3.44031
-0.0693112
-0.0174035
-0.14519
0.29976
-2.08646
0.190047
-2.20449
2.79124
-0.586759
-2.0142
2.32436
-0.310157
-1.73318
-1.15455
2.88773
-0.0654774
-0.182996
0.248473
1.24161
-1.38045
0.138845
2.45876
0.291899
-2.75066
0.0217606
-2.23876
2.217
-1.09409
2.78394
0.620505
-1.683
1.0625
-0.698856
2.95802
-2.54272
1.667
0.875712
0.54227
-0.565714
0.0234442
1.11307
-3.55085
2.43778
-2.60841
0.911698
-1.92803
-0.719799
2.83765
-1.6619
-1.17576
-0.823575
0.911698
0.494431
-0.526706
0.0322749
-0.48787
-3.29773
3.7856
-2.38334
3.5063
-1.12296
3.30339
-1.01264
-2.29075
0.168755
-0.727753
0.558997
0.67318
-2.0802
1.40702
0.254799
-0.475661
-1.83138
1.57529
-2.0421
-0.683726
2.72582
0.353807
0.0922485
-0.446055
0.307012
-1.73126
-0.298684
-0.619585
2.55099
-0.172487
-0.508614
0.404424
-0.516102
0.616713
-0.100611
0.526492
1.47762
-1.48584
2.15902
0.683174
0.284902
-0.968076
-2.11738
0.435449
1.68193
2.34244
0.960952
3.71005
-2.59698
1.94267
-3.29885
1.35618
0.520544
-2.43215
1.91161
0.132143
-1.2676
-1.4645
2.12426
1.93852
-2.76718
1.53393
-1.98041
0.446482
-3.3653
2.02558
1.33971
-0.140887
-1.14303
0.552089
0.458947
-1.01104
2.00744
-0.577718
-1.42972
-0.0203256
-2.03599
2.04744
-0.79091
-0.215478
1.94413
3.41544
-2.55082
-0.864621
-0.0351639
-0.430451
0.465615
1.97771
0.283797
-2.26151
0.969613
-0.45595
-0.513663
-0.505274
1.32412
-0.818842
2.87177
1.28009
1.7474
-1.1269
-0.252646
0.648662
-0.396016
2.61259
-0.76936
0.360272
-0.0317076
-0.328565
-0.0858859
-0.504229
0.590115
-0.415211
0.431282
-0.016071
2.69957
-1.66279
-1.03677
0.81124
-3.19458
-0.459346
0.0441352
-2.66419
0.867733
1.79646
3.22118
-0.951615
0.731776
-2.93626
3.95149
-2.17538
-1.77611
-0.0539632
0.40777
0.786693
2.45493
-3.24162
-1.81967
0.379349
1.44032
-2.97945
2.98268
-0.00323413
0.717069
-2.4153
1.69823
0.0153977
-0.0293176
0.0139199
-1.42449
1.85583
-0.431341
-0.0901156
0.781238
-0.691123
-0.489489
0.17347
-0.489415
0.0803526
-3.14395
1.41906
-0.141256
-0.901419
1.04267
0.142436
-0.304158
0.161723
1.28755
0.882869
2.12654
-0.592616
0.13334
-0.104909
1.94115
1.28004
-1.51352
0.0845158
1.429
-2.66017
3.44686
1.18972
0.463999
0.198923
-0.0564873
-0.880839
-0.0578465
0.938685
0.00325744
0.539013
-1.58718
1.08191
-0.525413
0.0855219
0.439891
-2.69542
2.59925
0.0961663
-3.20317
3.4474
-0.24423
-0.53866
-0.381975
0.920635
2.27145
-2.48366
0.212206
-2.15451
-1.21079
4.04766
-2.55774
-1.48992
-0.340928
0.305764
2.75222
-2.03515
-0.924298
0.783043
-1.27051
-0.399493
1.67001
0.742005
1.98412
-2.72613
4.25036
-0.328363
-3.922
-1.72724
0.456732
2.53568
-1.47469
-1.06099
-0.500576
2.35511
-1.85453
1.68727
-2.54771
0.86044
0.248175
0.260356
-0.508532
0.268662
-0.0683774
-0.200284
3.51396
-2.8024
-0.711554
-1.55022
-1.31408
2.08045
1.33499
-2.4534
-0.242019
0.375003
-0.460889
-2.38419
1.31434
1.06985
0.0139536
0.480478
-1.6181
3.33085
1.07507
1.6245
3.00995
-1.78374
-1.22621
-2.7023
2.01858
2.33924
-3.80201
1.46276
-1.86343
-0.13896
2.00239
-0.70299
-0.554374
1.25736
1.9775
-0.575667
-0.294065
0.977238
0.654146
-0.132327
-1.44813
-1.07428
4.92872
-3.85444
-0.605197
0.0890951
-0.258035
0.00538938
0.347558
-3.32701
3.19255
-0.320773
3.11499
-0.78471
1.02168
-0.236974
0.080076
-0.540334
-1.48231
1.02914
0.453168
1.15949
0.777568
-0.093675
1.13694
-1.04327
1.44473
0.375993
-1.3384
-1.04579
1.7192
-0.194774
-0.643726
-1.47366
1.9158
-1.85007
-0.0657373
2.8003
0.951012
-3.20657
2.25556
2.35931
-2.58027
0.22096
-1.3505
1.05778
-0.394137
-0.103146
-0.409242
-1.73464
0.865811
-1.67166
0.805854
1.29202
1.24366
2.54385
-3.63523
1.09138
0.68385
-1.65195
0.968097
-2.91476
0.509754
0.0259497
1.09933
-1.69361
2.41247
-0.718858
-0.716114
0.948894
-0.23278
-1.25382
-0.341064
-0.408697
-0.684192
1.09289
0.327242
0.00317431
-0.330417
-1.03128
-0.449321
1.10777
1.34476
-2.45253
0.499952
-3.16012
0.328619
-1.35052
2.1005e-05
1.42348
-0.739627
-2.04187
-0.500845
0.652313
-0.74999
0.0976772
2.65452
-1.14436
-1.38872
2.2916
-0.902873
-0.388945
0.452354
-0.0634096
2.11953
-0.112086
3.33996
-2.02562
-1.50632
2.78659
-1.28027
2.15851
-3.64628
1.48777
1.84134
2.20632
0.14544
-0.17558
0.0301401
0.28307
-2.1465
1.75316
-2.54576
0.792601
0.144681
-0.0695207
-0.21381
1.93847
2.79815
0.394395
-1.85248
2.37302
0.569621
-3.20729
-2.46835
1.33965
1.1287
1.93975
-0.339426
-1.60032
2.79468
-0.523223
-1.00592
-1.42004
-1.17712
1.34716
-0.206164
0.087269
0.118895
0.965407
-0.935344
-2.17191
1.9581
3.16217
0.855344
-2.39706
1.00834
3.44627
-1.36582
-0.683367
0.809197
-0.12583
-0.0165251
-1.77832
1.79485
-2.70597
0.505026
2.20095
2.47715
-2.47715
3.85897
-0.791005
-3.06796
1.44589
-1.53957
1.87051
-1.12916
-0.741347
-2.78497
2.89803
-0.113058
1.04384
-0.145483
-0.898359
0.828007
-0.312808
-0.515199
0.377278
-0.915937
-0.123582
0.200096
-1.12439
-2.4573
2.90764
-0.450345
-0.861386
1.96915
0.056539
0.0099402
-0.0664792
-0.475038
0.0856874
0.38935
-1.13218
1.26432
3.04284
-2.55596
-0.486881
-0.261633
-1.55317
1.8148
-0.737477
0.789654
-0.0521772
0.437597
-0.860076
0.422479
-4.32413
3.1098
1.21433
0.404501
0.268663
-0.854768
0.171401
-0.00842882
-0.0658812
0.0743101
1.51765
1.99631
0.0677164
-0.0111774
-0.228968
-0.774114
1.00308
-1.49615
2.39927
-0.903119
-0.0979041
0.34554
-0.247636
1.36216
-0.662281
4.69232
-0.380267
-4.31205
0.0767476
-1.27853
0.166369
2.29239
1.28797
0.922678
-2.21065
1.43404
-1.22062
-0.213415
-3.03416
0.55747
-1.18847
0.548856
0.639609
1.31905
1.49808
-2.81712
-1.8863
1.74734
0.194201
-2.71896
2.52476
-0.423611
0.592366
0.577015
-0.626189
0.0491742
0.060116
-0.940955
0.131313
0.072435
-0.203748
-2.04494
-0.619244
1.83283
0.018492
0.0611776
-0.0796696
-0.41245
0.0235056
0.489217
-2.1149
1.62568
0.596945
1.59759
-2.19453
1.05391
-2.11941
2.55772
-0.438308
-2.15345
1.65287
0.0990534
0.0355102
-1.19431
-0.752271
-0.814546
0.20034
0.614206
-2.59474
1.09859
1.97678
-2.23841
1.60506
1.84121
-0.914699
0.933258
-0.0185591
1.20074
-2.72708
1.52634
0.502818
-0.844092
0.341273
2.18458
1.15539
-1.95964
-0.0545546
-0.987078
-0.0341461
0.187239
0.0636
-0.250839
0.888331
0.0577504
-0.0765856
0.0188352
2.66794
-1.34889
-3.59462
1.41369
2.18094
0.782323
0.581552
-1.36387
-1.07962
0.656012
-0.696339
-0.118207
1.08418
0.786329
-3.5582
-0.916222
0.698667
-0.0463543
1.83398
1.25096
0.46824
-2.63076
2.83085
0.231035
-1.26064
1.02961
-0.267041
-2.47741
2.74445
-0.730106
0.785455
-0.0553481
0.55459
-0.620067
-0.925942
2.61321
2.63787
-1.65306
-1.19299
-0.289321
-0.0035546
-1.24339
1.24694
1.12356
-2.85674
-0.281928
-1.41533
1.69726
-0.286806
0.558878
-0.272072
-1.94083
0.136431
1.8044
2.69283
-1.63714
-0.0399805
0.290721
-0.250741
-0.671924
-0.0655529
0.572571
1.06447
-1.63704
0.397755
-0.490848
0.0930936
1.54547
0.846768
-2.39224
-1.28151
3.19035
0.319055
0.00818752
-0.368109
-2.06867
2.43678
3.22862
1.64198
2.65084
-2.0539
-1.08925
0.680558
0.142833
0.125829
-1.37729
3.71653
0.39994
-2.30155
1.90161
2.58841
-0.561217
-2.02719
-1.27872
2.03684
-0.758114
1.18528
-1.07696
-1.36386
2.44083
0.0813873
-0.0760912
-0.0052961
-0.85123
-1.45484
2.30607
-0.421312
-0.0537259
0.13253
-0.175398
1.52087
-2.3721
-2.10993
-0.634924
2.74485
-0.162354
-1.45476
1.61711
0.0159271
3.36687
-3.46207
0.0951951
0.65379
-0.39293
-0.26086
0.0305808
-0.94528
0.764557
0.729945
-0.970673
0.267683
-2.40073
3.0383
-0.637568
-0.64675
0.121337
0.0960661
0.862303
-3.07646
-0.92011
-0.0510078
0.27255
-0.221542
1.6014
-0.350439
-0.633823
0.699873
-0.0660497
0.677322
-0.767437
-3.07189
1.14387
2.70518
0.51081
-0.339468
0.777065
-0.63921
1.42153
0.931512
-0.731416
-0.656406
0.0225829
-0.28954
-1.88237
0.683389
0.703932
-0.664884
-2.75676
0.0507862
-0.0138774
0.658436
-0.155618
-3.28107
0.907973
2.3731
1.04722
0.971577
0.605926
-0.206812
-0.399114
0.849481
-0.797604
-0.0518767
-1.97676
0.722324
-3.1099
1.60358
-0.0325115
0.660579
-0.628067
-0.0829403
0.723586
-0.640645
3.23058
-0.0131256
-3.21746
0.547515
0.0357234
-0.583239
-0.410696
-0.803958
0.707674
-0.0814639
0.305009
-0.288121
-0.0168877
1.18965
-0.191513
-0.998138
0.0459917
0.259017
2.4712
-1.67382
-0.0878338
-0.447563
0.535397
-3.09376
0.693033
0.0113006
-0.316326
0.864139
-0.217879
0.236372
-0.0495203
0.182861
0.76155
0.470377
-1.23193
1.88538
0.12096
1.20695
-0.975917
0.667155
-0.584623
0.25555
-0.971664
0.508171
1.27991
-1.78808
1.62884
-0.142001
-1.48684
-1.73936
-0.783573
-0.729877
0.0188964
0.71098
1.07718
-1.24177
0.164587
3.27451
-0.0799754
-3.19454
-0.72574
0.0958401
0.6299
-1.47972
2.00082
-0.521097
1.53944
1.97732
-3.51676
0.312968
-0.313173
-0.795886
1.31545
-0.519562
0.672187
0.275695
-0.947882
-2.87546
1.42791
1.44756
-0.243827
-0.0442935
-2.53313
0.423206
0.942561
-0.565902
-0.376658
1.3857
-1.81114
0.425444
-0.280445
-0.587425
0.498666
2.86821
2.45966
-0.413642
-2.04602
-2.49363
0.374219
0.992712
-1.63644
2.02943
-3.7736
1.74418
-0.318891
0.87098
-0.0101172
-1.14049
0.911525
-0.495989
0.643457
-0.232581
-1.89534
2.12792
1.05428
1.69794
-2.19559
2.3307
-0.135106
0.00768246
0.179556
-1.96067
-0.702345
-0.372667
0.41663
-0.0439635
1.77844
-1.60083
-0.177609
0.0952375
-0.146356
0.0511181
-0.265163
1.65086
-2.37679
-0.12657
2.50336
-2.33761
-0.719113
3.05672
1.38615
-1.08867
-0.297484
-0.651139
0.0755311
0.575608
-0.554193
0.020528
0.533665
-2.90562
0.127764
2.77785
0.0725952
0.587639
-0.660234
2.34604
-2.64133
0.295296
-1.47624
2.05526
0.429667
-2.48493
0.0323298
-0.404997
-0.0891472
-1.75673
1.84588
2.21725
-2.9161
-2.84089
2.47335
0.367538
0.476062
-0.0783076
1.00455
-0.908483
-0.195814
-0.680047
0.875861
-0.0305894
0.490122
-0.459533
-1.04129
3.10671
-2.06542
2.95904
-4.84626
1.88722
3.0513
-2.9202
-0.131106
2.29242
-0.963934
-1.32849
0.126953
-0.699334
0.572381
-0.885656
-0.0242119
-3.0248
2.67294
0.351861
0.166754
-3.19156
-3.98763
4.66368
-0.676046
-1.69968
-1.10272
0.608662
-0.513082
-0.0955801
-2.41867
-0.675088
-0.575355
0.388158
0.187196
0.648231
0.321382
-2.79616
2.66942
0.126735
-0.431287
-0.121265
-0.0334746
0.585428
-0.0379131
-1.77092
0.34643
0.446465
-0.520412
0.0739469
-2.282
1.73947
0.54253
1.08852
-0.0446739
-0.786136
1.83838
0.281148
1.07726
-0.0638913
1.10549
-1.0416
-0.353207
1.59482
-1.8796
1.18431
0.695289
-0.342087
0.09826
2.72882
-1.67454
2.32852
-1.12778
-0.606413
-0.527079
1.13349
1.14633
-1.95013
0.803803
1.65741
-1.81976
2.70771
-1.20669
-1.50102
-0.0176739
-1.56184
-0.317762
-1.56413
1.11087
0.45326
0.0793205
-0.809779
2.75245
-3.1603
0.74163
0.45541
-0.207235
-0.351315
-0.129702
0.444889
-0.0136073
-1.32941
-1.39959
2.64647
-0.776955
-0.434629
0.169299
0.265329
0.175599
0.652408
-2.2881
-0.970862
3.25896
1.04668
0.930824
-0.00976535
-0.441004
0.450769
2.45783
-0.691235
0.0571893
0.634046
1.72286
-1.21469
-1.10909
-2.95254
0.495249
-0.660856
0.031759
0.629097
2.17317
1.77832
1.93448
-0.503828
-1.43065
2.93156
0.119747
1.78073
-2.52605
0.745329
-2.44215
-0.0345204
2.47667
-2.40862
3.11285
-0.704225
0.428436
-0.0137609
-0.414675
-0.704066
2.92131
-0.360518
0.352488
0.00802989
0.121902
-2.31749
0.752527
-0.240938
-0.511589
-2.82065
3.64424
-0.823591
-0.750523
1.64557
-0.895052
3.48462
-1.53505
-1.94957
0.0158046
-1.77979
1.76398
-0.534417
-0.0917724
-1.52306
3.0625
3.54267
0.3163
3.58637
-1.42785
-0.556842
0.469008
-2.56382
0.121668
3.91056
-1.36671
-0.0485734
-3.60074
0.70922
-0.0767019
-0.468612
1.96888
-1.50027
1.6426
-0.40459
-1.23801
1.05612
-1.49186
0.435739
-0.494251
0.0325074
0.461744
-0.619072
-1.4139
2.03297
1.07208
-0.816529
-1.89781
0.734213
1.1636
0.406836
0.755901
-1.16274
0.239457
0.369205
-3.29998
3.88871
-0.588728
-0.703333
-0.0267734
1.32433
0.619607
-1.94394
1.65014
1.133
-2.78314
0.48766
1.45209
-0.053821
3.49028
-0.00815173
2.35392
-2.34577
-0.0925059
-0.00539817
0.0813451
0.0721213
-0.153466
2.38103
-2.26025
-0.120784
1.22957
1.47814
-0.0823328
0.0711856
0.0111472
-0.82841
2.39307
-1.56466
0.0222615
0.504314
-0.526576
1.70866
-2.12262
0.413956
-1.54494
-1.07593
2.62087
2.377
-0.39929
0.850261
0.792338
-3.51011
0.727473
2.78264
0.850654
-2.40382
0.308834
-0.379623
0.0707895
0.577335
-0.19476
-0.382574
0.0724014
-0.606818
-0.209159
2.33384
-2.12468
-0.360703
3.02051
2.288
-1.86509
-0.42291
1.88779
-1.61957
-1.54025
0.538299
1.00195
0.158427
-1.28759
0.41049
-0.0612364
-0.349254
0.189982
0.415944
0.442252
2.18146
-2.62371
0.623928
0.565722
0.393569
-2.73118
-1.31205
0.551142
0.760908
-0.951874
-0.73714
1.68901
1.44466
-0.683109
-2.5163
1.65491
1.01594
-0.776738
-0.239198
-0.398433
0.832491
-0.434058
-1.28486
1.36161
-1.33759
1.73034
-0.392751
-3.28986
1.96197
1.32789
-0.0684971
0.633723
-0.565226
-0.756951
0.674011
-0.271745
-4.56539
5.97017
-1.40479
-1.60631
2.04176
1.49013
-1.54193
0.0517979
0.509391
-0.405223
-0.104168
-3.55209
2.66619
0.885904
0.049914
0.553649
-0.603563
0.234668
1.85749
-2.89878
1.81841
-0.672077
-0.949765
-1.51858
-2.09622
2.08807
1.43482
0.039511
1.03231
0.423504
-1.45581
-0.986551
0.922831
0.0637201
0.280876
-0.812812
0.531936
-0.25545
-1.41584
1.67129
-0.343671
2.2927
-1.94902
-2.21611
-0.627805
2.84392
0.130063
0.379328
2.0554
0.325631
-0.227818
3.58963
-3.36181
0.174889
0.181338
-0.356227
0.0164047
0.551338
-0.706772
0.155434
-1.09552
-1.92577
1.67032
0.418671
0.605606
-0.478653
1.61171
0.166722
0.186589
-1.99603
0.101312
0.824077
-0.0749569
0.190771
-0.115814
-1.854
-1.60382
3.45783
-1.80873
-1.70138
-1.50867
-0.226894
1.73556
0.405632
0.526649
-0.932281
-0.00094552
3.33148
-2.13722
-1.19427
0.515185
1.94448
0.160889
1.17496
-1.79061
0.615645
-0.984325
2.48451
-1.50019
-1.6836
-0.674549
2.35815
-1.35165
0.555764
-1.13631
-0.403938
3.19221
-1.45273
-1.73948
0.466833
-0.449138
-0.0176945
1.08653
0.207639
-1.29417
-0.509649
0.582244
0.273134
-0.353113
0.0799792
-0.129269
-0.0669676
-0.624897
-0.0344259
1.85181
1.34039
-3.66357
1.82424
-1.10763
2.64941
0.227208
0.239625
-2.48832
0.804714
2.13731
-1.85424
-0.335897
-1.8719
0.392184
0.331522
-4.31915
2.04966
-2.06619
2.43094
-0.0716368
-0.573591
-0.348309
-0.683281
-0.288078
0.971359
-0.889384
-0.0901506
2.20856
0.401936
-2.6105
0.0228792
-0.742418
0.719539
0.0245744
-3.82917
-0.179675
4.00884
2.53193
-0.185895
-2.62027
2.56418
0.0560944
0.626156
-0.433167
-3.32588
-0.22621
-0.879095
2.76728
-0.0943364
0.533079
3.46463
-1.30947
-2.15516
-1.80563
-0.156832
1.96247
0.416882
1.49662
-1.9135
-2.05729
0.116461
-0.54611
-0.312885
0.858995
-1.39235
1.79229
0.41983
1.5007
-1.92053
-0.878366
0.567488
0.310878
-2.71965
0.273255
2.4464
0.916732
0.901675
-0.673744
1.54879
0.743628
-0.765755
-0.422711
2.51298
-3.03855
0.227736
-1.72544
1.4977
0.163081
0.149888
1.98946
0.123749
-2.11321
1.62578
-2.73341
0.00928542
0.00611227
-1.54438
2.21736
-0.672982
-1.94357
1.85442
-0.041436
0.809575
-0.768139
-0.466225
0.173305
0.292921
0.66358
-0.10899
-0.755654
1.74837
0.525453
-0.557964
-0.458136
0.490466
0.784983
-1.24093
0.01654
-0.0458576
-0.578977
0.557319
0.0216587
0.603962
-0.675554
0.0715922
-0.709271
2.5773
0.328578
-1.83724
-0.0257971
-0.797778
0.0355827
1.63868
-1.67426
0.946943
-1.00479
0.669441
-2.2694
1.59996
-0.476567
0.787154
-0.310587
3.83653
-4.91081
-0.552284
-0.0719381
-2.76895
0.727266
1.91921
-2.19805
-0.318242
-2.56576
3.51677
-1.21649
0.532297
0.319375
0.0213455
-0.340721
3.71233
-1.53916
2.12096
-0.367801
-0.671765
-0.462311
1.13408
-3.09523
1.24395
1.85128
-0.424924
0.270259
-0.431437
2.4867
0.476093
-0.273025
-2.4757
0.349051
-0.709569
0.319206
-0.257516
-0.0616896
-0.376703
2.58526
-0.198334
0.425421
-0.227088
-1.02199
-3.97587
1.85587
2.12
0.699972
0.585253
-1.28523
3.50129
0.375872
-3.87716
-1.54268
0.792162
-1.90644
-0.038387
1.12492
2.65098
-2.91802
1.19027
-0.518085
-1.15693
2.00758
-4.15724
1.81727
2.33997
1.77558
-2.20042
0.424834
-2.04736
2.16843
-0.121076
1.14261
-1.49582
0.0409731
0.616164
0.769986
0.84189
-1.61491
-2.40195
-1.29036
1.10527
0.185097
0.70341
-2.50904
1.37052
-0.102572
-1.7171
0.354314
0.813704
3.02675
-1.01034
-2.01641
-1.25886
0.783285
-1.73516
0.468726
-2.7784
2.62157
-2.11746
1.0405
1.39889
-4.10437
4.32682
-0.22245
-5.09067
4.911
0.179666
0.0337509
0.0975572
-0.384363
-2.86868
2.01858
0.850095
2.19997
-2.90404
-3.23412
-0.0658627
3.75864
-1.72922
1.4441
0.586368
-2.03047
-0.06792
-0.44584
0.51376
-0.641321
1.23788
1.56225
-4.47622
0.371857
0.464366
0.607713
0.631192
1.03788
-1.66907
1.10783
-0.648884
-0.192526
-3.24602
3.43855
-0.987275
1.23685
-2.33094
-1.61838
-1.22784
2.84622
0.730743
-0.922985
-1.97567
0.635304
1.34037
-0.289406
0.0162844
0.273122
2.40699
-2.63957
0.43427
-1.97865
0.947057
1.54758
-2.49464
-0.330201
-0.104427
-2.34903
0.67167
1.67736
-2.6181
1.07315
1.50612
-2.49045
1.9987
-1.77097
-0.180912
-0.108494
0.0801862
2.50822
-1.7475
2.18254
-0.435046
2.06359
0.0295357
-2.09313
-1.9153
-0.0471478
-0.737562
0.146351
2.3308
0.358948
0.0934061
0.216091
0.10162
1.34427
1.45959
-0.506379
0.787254
-2.6265
-0.169659
-1.03763
3.4763
-1.02138
0.513737
0.533677
-1.04741
3.47324
0.593572
-4.06681
-0.321562
0.307801
-0.967699
-2.1422
-2.2381
-0.342165
-1.12933
2.75511
-0.952151
1.33098
-0.378829
-2.82155
0.96755
-0.815858
1.44705
-2.66733
-0.613744
-0.934314
-0.823554
0.962399
-2.18653
-0.0954748
3.18347
-0.41619
1.58381
-0.882998
-0.700812
0.30547
0.343192
0.751678
2.90799
-2.71379
-0.0233822
-0.637439
0.933129
-1.40578
1.4903
-1.31097
-0.933334
0.605957
0.510582
-1.11654
-2.53406
0.0569151
-0.346507
2.18621
-1.83971
-0.390688
-2.22959
-1.98594
2.26974
3.60758
-1.54494
-2.06263
-0.29535
0.844206
2.34422
-1.23374
-1.11047
0.751244
-0.818212
0.123952
-0.0426064
-0.464337
0.00254523
0.461792
-0.390039
1.42234
-0.817815
3.01778
-0.0688482
-0.444234
-0.779995
-0.249605
1.0296
0.0292386
2.37775
0.502845
0.926882
-1.42973
-1.06341
1.63599
1.19374
1.19933
-0.986482
-0.325568
1.48266
-0.526543
-0.956115
-0.0559534
-0.0480813
0.104035
0.303161
-2.19623
1.89307
-2.6287
0.390595
0.623669
2.20275
1.27355
-0.0132919
0.764536
0.373762
-1.32591
-2.4377
1.26058
-2.81217
0.922011
-1.29103
0.158852
-1.21719
-1.66085
2.87804
-4.21395
0.208107
0.404258
-0.612365
2.72585
-2.04057
2.09034
-1.67346
0.426351
1.50565
-1.932
0.516435
-1.06254
0.994069
-1.70013
0.706062
0.535173
0.44545
-0.980623
-0.984923
2.54374
-1.55882
2.32193
-1.51896
-0.802967
3.92442
-0.741734
-3.18269
-1.59666
-2.37921
-0.911367
-0.0757117
0.856021
3.71377
-0.0425791
0.274899
-0.23232
-1.88068
-0.468346
2.04591
1.78748
-1.50079
1.82119
-0.320404
-0.653968
0.711158
0.173319
1.11989
-1.29321
0.248352
-0.446686
-0.307394
-2.56128
-1.46082
1.00702
0.00891631
-0.878833
0.580149
0.203733
2.08095
-2.28468
-1.44901
-0.321905
3.48603
-2.98608
0.204718
-0.714511
-0.155266
0.0757526
0.0795133
0.288312
-1.05121
0.762896
0.312124
3.13528
-3.35676
2.35868
-1.06666
2.55988
-1.32303
-0.328989
-0.7035
1.03249
2.11808
0.237025
0.0594651
-1.90893
1.28986
1.74882
-1.71958
-1.46558
-1.31995
2.78553
-1.74387
-1.35136
-2.87588
2.95563
-0.0797495
0.333654
-1.02031
0.732228
1.59999
0.758688
-0.601985
-0.277377
0.879362
-0.545335
-1.57667
-0.900662
0.945748
-0.0450861
1.67918
-0.632501
0.167779
0.141055
1.6622
-2.6299
1.26988
-1.02371
-0.291406
2.28013
-1.98873
1.7439
1.45026
0.841026
-2.29128
2.97429
-1.80014
-1.17415
-1.07694
-2.1289
3.52112
-1.39222
1.83802
-0.254213
-0.798478
0.785186
1.19606
2.28856
-0.610726
0.542806
0.0995367
-0.0417863
2.70619
-1.50513
1.80186
1.91047
-1.15539
0.614985
0.540402
0.643302
-1.24972
2.11309
-0.123635
2.60047
-1.15637
-1.90586
-0.267524
2.17339
0.532086
-0.0847151
-0.447371
0.428947
0.224843
0.391083
-2.79971
-0.784015
0.844131
1.95431
-1.72319
-0.231117
0.433135
1.04952
-0.426272
0.219459
0.665719
0.685463
-1.35118
-1.40039
2.68332
-0.210324
-1.64334
3.44886
-1.80552
-0.717282
1.12412
-0.473872
-0.404494
3.05434
-1.49916
-0.954237
0.153504
3.34778
0.829629
-0.855426
-0.490402
0.421905
-0.814016
-0.402899
-0.00955136
1.56194
-0.420452
2.28252
-1.86206
0.0112037
-0.0196326
-0.997742
0.317695
-0.92667
0.0153035
-2.41114
2.04303
0.636611
0.678837
-0.651182
-0.873261
1.52444
0.645987
0.288081
2.36201
1.35189
-3.7139
-0.286856
-0.0567808
0.343637
-2.94946
-0.645167
2.33462
1.27295
2.19161
-1.98787
-3.50618
-0.0270732
0.0679982
-0.655581
1.28942
2.45366
-0.472072
-1.98159
1.02307
-0.0761231
-0.0851275
-0.889619
-0.265768
-1.95445
-1.25938
1.41781
-1.97736
3.39104
1.58863
-1.57837
-0.0102615
0.53491
0.022409
-0.185721
0.697652
-0.0936893
2.15753
0.57873
-2.73626
0.204382
0.114824
-0.634584
0.387692
0.246892
-0.956349
0.014056
0.942293
1.00462
1.37579
-2.38041
0.654445
0.790214
1.92337
-0.0431366
-0.732163
1.77834
-1.67672
0.203837
-0.241464
0.0376276
-2.18479
1.46499
2.33683
-1.86196
-0.474878
0.0441199
-0.411231
0.367112
2.41879
-2.62795
1.64812
0.0310627
0.789809
1.30053
-0.366011
-0.0368881
-0.371773
0.142634
0.229139
-1.60209
-0.353269
2.99492
-1.53178
-1.46314
4.05622
0.25292
-4.30914
1.12323
-1.95652
0.833288
-0.242763
1.45369
-0.0302166
-1.03706
2.09119
-1.05414
-0.229307
-0.142466
3.25821
0.314151
0.11127
2.49262
0.0121234
-2.50474
-0.347035
-0.225483
0.150526
0.0866287
-0.0154431
1.17058
1.04678
-0.33353
0.428767
0.00183518
-0.0735297
-0.33914
0.359646
-1.06858
1.49493
0.046062
0.65787
-0.0679969
-0.807447
2.095
-0.0795206
1.66815
-0.351292
-0.329436
-0.679178
1.3449
-0.572237
2.34376
-1.77152
-2.22303
-0.310104
-1.75279
2.26828
-0.51549
-0.0953004
0.409452
0.847959
-0.178269
-0.0589106
-0.647581
0.706492
-2.23463
0.735471
0.327956
-0.367937
1.01764
-3.30574
0.533119
-2.60179
-0.800833
2.35976
-0.884664
1.38738
-0.701915
0.0390169
-1.72747
2.03063
-0.000938103
-0.429513
0.336167
-1.42483
-0.273296
-1.634
1.9073
0.0138288
0.527983
3.74881
-2.3308
-1.41801
-0.610532
0.192179
0.623021
0.0627604
-0.685781
-2.16218
0.414684
0.526048
0.0512866
-0.0224584
-0.352476
0.374934
0.647677
-2.40047
0.234803
1.20068
0.116111
-1.31679
-2.60289
2.03066
0.411231
0.106884
-0.518115
0.929632
-5.49502
-0.387254
-0.0082309
0.395485
0.534692
-0.123461
0.00202124
1.95398
-1.46632
1.61357
1.34842
-0.693973
-2.41423
0.795843
-1.80566
1.47462
0.331042
1.27768
-2.74326
-1.32444
-0.838457
2.1629
0.234168
1.06566
-0.800166
0.654683
2.96411
-0.403102
-2.56101
-0.0107462
-2.61575
2.36199
1.56244
1.13143
1.21279
-0.429482
-0.0115221
0.413612
-0.787758
-0.883906
0.0953644
-0.161241
0.065877
0.0906664
-2.3298
2.23914
-0.112636
0.753264
-0.640628
0.127314
-1.84458
1.71727
-0.248205
-1.46259
-0.084285
0.0187788
1.7908
-0.889736
-0.539254
1.42899
-0.942071
-1.10287
1.19124
-0.680662
0.337549
0.174162
-0.511711
-1.78044
1.12926
0.0934074
-0.332427
-0.132825
0.465251
0.342038
0.828328
-1.17037
3.03618
-1.74631
-1.28987
0.100248
-1.48756
0.439888
-3.26053
-1.45602
-1.18503
2.64105
-2.54507
0.120165
2.4249
-3.60401
-2.11214
0.0647867
-0.730376
0.760564
-0.030188
-2.79122
-0.955619
3.11315
0.998266
-0.527889
0.209479
-0.888657
-0.465871
1.25608
0.408734
0.255114
-1.03511
0.049782
-0.403549
0.353767
-0.415126
0.116406
-0.279096
0.323216
-0.695676
1.39565
-4.90842
3.98446
0.923953
-1.3296
1.03553
1.50069
0.546927
-0.014841
-1.13504
0.533053
-1.26134
-0.714332
-1.44451
0.533435
0.911078
-0.0249286
0.729926
-0.704998
-1.05575
1.34406
-0.230346
1.91228
2.3851
-1.88225
1.48985
-2.43192
1.1759
-1.51068
0.334776
0.297534
-0.00681344
-0.168564
-0.00701676
-2.85531
1.63811
0.223769
3.83245
0.0417133
-0.540682
0.498968
-3.8097
1.51302
-0.0116583
-0.492571
-0.51679
-0.0467488
-0.584104
0.630853
-1.48495
0.595213
-2.74374
2.43634
2.49835
-1.55129
-0.580635
0.52212
0.058515
0.192409
0.0801409
-0.409712
-2.91824
2.11649
0.801749
-0.39082
0.334039
-0.238697
0.844439
-0.605742
1.29957
0.34855
0.131246
-0.0260693
-0.105177
-0.688991
0.735053
0.0615623
0.0831188
1.4627
-1.30574
2.74918
0.182375
0.815498
-2.68697
2.51026
-0.0828576
-2.42741
-0.416617
-0.207924
0.624542
1.39267
-2.72208
0.034216
1.6475
-1.68172
-0.0611134
-0.0743202
0.135434
-1.80009
1.75385
0.0462376
-1.00286
1.6723
-1.29305
4.25209
3.04002
-0.501898
-2.53812
0.0812649
0.3239
-0.405165
-0.142238
-0.828608
-0.057048
-0.810789
-0.0178181
0.124968
-0.894888
0.76992
-0.228042
2.49699
-2.26895
-2.38189
0.909468
1.47242
0.749179
2.4814
0.0980391
0.116458
-0.214498
1.46996
0.668254
-2.13821
0.0658865
0.253489
-0.954554
2.55316
-1.5986
-2.17777
0.27191
1.74798
0.752665
-2.07711
-0.00408527
-0.309849
0.313934
2.55725
-0.593093
-1.96416
0.857571
0.574813
-2.84073
1.44114
2.84074
-3.03327
-1.34338
0.277598
1.06578
-0.0932433
0.192233
0.55318
-0.745413
-0.228007
0.05625
0.171757
-0.0255875
0.334261
-0.308674
0.660742
-0.730386
0.0696442
-1.49291
3.1551
-0.787396
0.783841
0.320173
-0.55887
0.982267
-1.44383
0.461566
-2.97596
-1.18128
-0.60305
0.0488568
0.227554
-0.0103142
-0.21724
1.32379
0.0248404
-1.34863
0.275095
1.67921
-0.640766
-0.345786
-1.50072
0.25733
1.038
1.26151
-2.29951
-0.0132674
-0.0568257
0.0700931
-0.0684103
0.917891
0.0615943
0.254632
-0.316227
2.55062
-0.934909
-1.61571
-2.23252
0.337176
0.846993
-1.93492
0.067836
1.86708
2.75671
0.0414447
-0.69917
0.382844
-0.192951
0.0243878
-1.69115
2.29881
-0.607655
0.40208
0.0740124
-0.0303294
0.354438
-0.636371
0.567523
-0.569894
0.665734
-2.34853
1.82079
0.527742
1.88447
-1.09787
-0.786608
4.36445
-4.05233
0.646916
0.142738
-0.601105
0.499512
-0.11885
-0.980774
-1.75147
-3.0948
-1.78019
0.743134
-0.549999
0.570527
0.371698
0.162994
-0.0300186
-0.0310948
2.29007
-2.31749
0.0274175
-0.286499
-1.27837
0.553747