/*--------------------------------*- C++ -*----------------------------------*\
| =========                 |                                                 |
| \\      /  F ield         | OpenFOAM: The Open Source CFD Toolbox           |
|  \\    /   O peration     | Version:  2306                                  |
|   \\  /    A nd           | Website:  www.openfoam.com                      |
|    \\/     M anipulation  |                                                 |
\*---------------------------------------------------------------------------*/
FoamFile
{
    version     2.0;
    format      ascii;
    arch        "LSB;label=32;scalar=64";
    class       volScalarField;
    location    "3";
    object      p;
}
// * * * * * * * * * * * * * * * * * * * * * * * * * * * * * * * * * * * * * //

dimensions      [0 2 -2 0 0 0 0];

internalField   nonuniform List<scalar> 
13486
(
23.4307
23.9946
4.1058
-128.978
-17.8495
8.55824
-32.3423
-4.48924
6.90144
20.205
-33.9213
7.65352
24.0617
11.3374
-14.5725
20.6784
-31.3132
-23.9867
6.19912
21.8088
-153.537
23.5739
23.7006
-24.3854
18.1918
-20.0007
-28.0983
-9.61196
-1.65704
-10.2225
-187.333
-2.95146
-25.4769
-9.49182
-4.25018
-0.0914707
-0.284371
11.3674
-3.22503
9.62406
-52.2017
25.5106
-0.598426
17.912
17.8932
7.82323
-21.1112
-0.984704
-0.330108
-2.45329
18.2947
-3.9714
10.2549
12.5901
-40.9105
-15.8189
-0.113386
-3.79286
-20.1329
-0.0712947
-37.9625
-0.117009
-8.71679
-151.767
-25.8078
-0.226435
-125.491
26.4234
6.4599
-0.807604
-122.795
-40.4597
12.7257
-19.5684
-0.218799
-1.06138
-0.244983
-16.3029
-25.2214
-62.0425
-0.0196245
25.2505
-14.7527
4.95555
23.3836
27.1369
-0.415398
18.2001
20.4905
23.336
3.6334
-8.3344
20.7555
22.7096
5.80866
-0.251326
-27.8773
-118.33
9.72664
-33.2395
0.086635
11.7776
-123.943
-3.71051
29.8904
-33.7727
17.9117
-3.83059
-25.0142
-14.0498
1.81358
-14.1559
12.5846
-0.458817
31.4422
2.43872
18.6865
-9.05791
12.8839
-0.371512
-16.8125
-35.8193
8.14414
-3.69342
1.73151
-3.47909
1.14157
13.1963
-7.6634
-16.9695
-3.53752
-19.6772
-14.2092
-22.26
18.28
20.7247
38.7015
-13.0819
-0.453943
-1.82053
-12.1249
10.3074
4.50789
-52.4511
0.761852
-85.0381
7.89175
39.3865
-3.04582
-0.843328
16.5217
-22.6693
0.0122673
25.8546
14.3803
4.05859
-22.0406
-96.8403
7.1282
1.72673
1.75486
7.14008
-1.71633
24.776
-3.99369
9.17505
12.7323
38.6288
6.33526
-21.2704
-9.34211
14.3401
17.4626
-0.309517
-0.110962
-103.574
11.1801
-14.3743
17.705
4.88738
6.95636
-0.771881
0.639728
-40.7226
6.18182
-9.36125
-0.907314
-10.4649
-54.1382
5.54546
-0.382724
2.26808
-5.32022
31.5652
-6.8815
-32.0759
-17.899
1.27651
16.1204
9.49578
-189.831
13.043
11.2949
-29.0951
1.35087
-7.08826
-48.0562
16.1151
-5.15183
6.13178
-9.92047
11.3478
21.5938
17.9535
8.34829
-47.9739
-10.3232
23.2998
18.3389
1.22808
-31.9031
-2.8917
-0.864405
1.27683
12.1269
19.6407
7.01799
-248.089
-24.8716
-0.111068
6.86411
-113.931
-13.4545
26.8093
-160.689
17.7743
-10.3262
2.56484
18.2911
3.5465
-26.346
17.4066
-0.199406
15.6392
-2.62484
20.0091
5.01047
-9.66942
-15.2131
18.5276
-70.2281
32.0619
0.418899
-4.50829
-30.3472
-84.8296
-1.62032
-64.7612
-92.356
-29.1451
21.9588
-2.17874
-13.7712
-92.9879
-20.4861
-39.8712
-22.8685
-196.809
13.2073
-10.3463
27.6984
18.239
-10.6861
9.16832
19.8017
-9.73599
-25.8345
-93.0913
-5.55364
9.30436
-94.0451
5.67273
18.4702
-114.026
-34.0393
-33.8401
-9.69238
-8.11837
12.3535
13.4788
-161.298
0.311109
4.87866
18.1712
-10.3492
-10.5253
0.987787
9.24588
18.244
-45.3044
-1.12084
-55.8892
7.40098
-3.32903
-0.412929
-31.259
-122.294
4.82622
-2.67789
-0.365775
-8.93147
-127.16
13.56
-12.6317
-77.5486
20.9896
0.345059
20.6983
16.5671
-19.8027
-0.284867
-0.274405
17.7513
23.2264
38.1205
3.60498
-5.39215
5.309
8.75051
-7.19059
18.2486
-10.0435
3.87822
28.1691
-34.8751
4.05089
31.7717
-21.7382
17.3695
-1.95525
-22.157
23.2304
-8.67897
0.292388
-41.1107
-0.680822
1.93724
29.7049
0.312336
0.239869
4.16062
9.56981
9.46421
-27.8322
18.1449
-0.38643
-24.3781
1.11054
-3.56992
6.05038
6.00387
7.12491
21.1171
18.2949
-10.5413
0.0125074
-10.6199
-13.2029
22.1762
1.50243
-0.728661
2.47663
12.8152
-62.2753
10.4674
18.1198
17.7789
-0.483525
-85.7115
-6.50275
12.5071
-12.9992
26.4258
28.0865
-15.6886
-23.522
11.1023
17.2473
-22.3343
-135.117
20.9142
-11.0776
15.4384
19.4707
29.0616
-0.424611
-128.955
-63.3066
-25.4024
-10.9561
-22.8975
19.3014
9.4657
-116.244
-29.3647
10.9493
22.5024
-13.7071
3.43459
23.7165
16.5661
11.975
-11.4989
18.4209
17.7565
30.934
-43.7776
-19.7975
-6.38424
3.33345
17.8062
-37.9716
29.9515
17.6756
5.0707
-10.5831
13.2042
18.6526
-28.4762
13.2455
23.719
9.67656
15.2931
12.5228
-24.6244
-15.2127
26.8925
0.0290757
-0.170185
26.0501
-23.826
-10.7779
-26.9701
-11.7205
2.0437
14.1922
30.2836
24.0226
-6.75701
-0.363291
-40.4266
17.5669
20.9026
-2.83891
5.47743
18.1071
-68.6298
-92.1432
-112.863
-96.6177
14.1356
17.7332
-0.109726
13.358
-137.515
19.7094
-0.980075
35.3696
20.2166
10.8714
-7.32884
0.0528383
-0.280141
31.4471
-7.28523
-0.443366
4.46791
4.1715
-34.5525
9.4235
17.7079
-0.347013
7.86291
23.8625
-1.42124
-27.4049
17.2307
-141.851
38.2748
17.3226
18.3344
18.4269
-91.7801
5.98558
33.3893
-23.6574
22.73
-41.7573
13.658
-209.165
-42.5001
-0.498566
-35.5567
21.0068
2.02918
-71.6706
-0.72954
7.88229
28.9405
14.1797
-21.0695
2.82675
1.91205
8.22642
-21.4094
18.1667
-10.7018
26.3137
-0.590374
-0.775392
25.9044
-12.8074
-0.165785
4.54387
-238.579
-78.9405
5.21485
-16.6137
8.64161
20.7526
-31.1294
-26.3076
-30.8783
-0.459847
17.9479
13.0569
-43.4088
-122.193
-36.7499
-93.9512
-3.48412
-34.5122
5.80136
2.88073
27.6888
-116.697
21.2342
-76.0075
-54.785
3.16481
14.8964
-37.4485
14.9141
5.84691
-39.4391
1.3685
11.7476
-32.3316
-32.0185
18.3666
19.4415
15.551
23.9315
5.76052
17.4431
13.1502
16.5887
-0.248076
18.2663
-27.9181
19.2709
1.5348
-7.68132
-7.28799
17.2695
-22.0082
9.06418
29.7092
22.878
-172.775
-77.1772
15.2644
11.7957
10.475
21.3021
-36.8613
-25.385
10.2977
21.5021
12.3743
13.5017
-15.1505
23.1164
-39.666
-0.318013
18.1324
-8.95351
-39.7226
24.0012
-4.35209
8.10971
3.95268
14.612
3.3107
22.6824
2.80476
5.3575
6.0522
13.8056
-8.8432
29.2599
13.8239
28.8309
-251.45
14.6039
-0.0596896
-18.4907
-17.2167
18.35
31.4332
-46.6417
-13.8326
-6.58802
0.610827
18.462
-34.0079
10.3429
8.22503
-32.6422
-8.74534
-14.4248
14.8389
-15.8606
18.2131
-0.0515503
26.296
8.7393
1.37523
-57.3709
-9.71002
14.0144
-33.326
12.2025
-34.7505
17.5197
-0.00854779
-0.74561
-45.8717
26.3757
-0.758308
4.09883
25.3109
18.255
-47.0853
-104.058
2.91449
11.3473
0.594289
-0.0719944
-165.384
14.5107
10.3725
13.9123
7.98004
25.9613
-0.339669
-158.362
17.2639
-35.1707
7.52196
-4.7196
17.6833
16.1742
-46.0019
5.85065
-0.753719
9.63238
17.897
13.9759
8.76723
5.11845
-59.6604
-7.63897
22.8638
1.05018
-0.916409
9.16817
27.5234
-9.31923
8.90728
28.8293
-0.535319
-71.2216
13.5461
-16.6528
21.2309
0.693175
18.0959
-127.6
-25.1579
-5.11861
-0.0349699
-29.1602
17.1392
30.27
-36.6552
-118.918
6.57004
23.1125
-22.5293
15.6272
-43.7026
31.7639
-45.9938
5.1051
-3.44217
17.537
20.3959
20.5788
-5.82303
-143.916
25.3412
18.1031
-26.8452
10.7226
-62.0088
1.32645
-3.69747
17.0854
-17.2132
-17.4369
21.8916
-27.8579
-5.45492
-5.452
-79.4245
-42.7062
-2.05797
15.5286
21.4876
-193.162
6.63472
-49.1545
-140.852
8.03789
-16.7099
6.12701
18.1005
12.7397
4.68219
10.7971
-123.941
-38.7963
-123.519
5.35266
-179.719
1.70504
-1.18167
-70.0704
0.505514
24.405
-0.455636
-28.7276
25.3185
22.8077
-178.223
-2.97356
5.21343
-16.1498
0.983585
-15.9467
12.0336
-16.1928
-27.7257
15.359
17.5408
5.9946
-72.0418
-36.9832
9.00997
1.9425
20.7248
5.12394
-157.001
23.3214
21.4887
-36.4919
-70.5854
7.92518
-36.1325
6.18907
-3.08498
-10.7616
-146.837
9.20184
17.9994
29.1796
14.9538
13.2406
10.2338
17.7604
21.4627
20.5032
6.51568
15.8573
28.3051
-28.1969
-0.903599
12.1812
-8.32183
26.6523
6.88593
24.8369
5.71874
-19.7374
7.26897
9.38409
-2.90695
19.5531
28.0587
17.6546
16.6286
-27.317
6.85467
-17.7436
-16.7573
2.69625
14.53
0.46588
-65.6733
-42.2996
16.4881
-10.5315
-15.2613
-17.5644
-34.1372
-9.90908
-29.4569
-121.911
16.808
-239.407
23.2021
-247.774
-15.6793
9.89503
18.484
-0.159028
12.2974
-46.7554
20.4186
-17.7138
-13.4845
-28.4306
-0.39495
-85.698
18.1233
-0.244098
16.9977
-0.358622
4.64491
-27.8181
-0.113118
-0.37733
14.5158
-8.26385
-34.257
-19.7484
23.2963
-4.38623
-167.263
-37.7339
15.6996
-102.769
-0.115099
7.43748
-11.4637
-8.60075
-5.33851
-19.5259
23.1143
18.1007
11.4125
15.8002
-0.899101
-23.5335
18.4565
10.6316
10.5764
21.595
-73.2509
-4.87401
-30.6249
9.7078
-0.382853
19.9136
14.8733
-34.9166
18.1588
-28.597
1.91614
30.8551
9.32736
-0.493212
17.4191
8.00717
-1.83555
-29.6864
-141.927
15.5754
-0.311096
-0.336807
-0.425312
5.90567
13.7412
-49.9376
0.0117245
18.1565
8.81177
27.8613
20.4421
17.6451
7.15483
21.0949
4.63888
3.31121
-7.35512
10.3288
-119.583
-7.42849
-14.7341
-9.20396
-46.2472
14.0237
-108.277
-48.0571
-59.1188
-120.016
-0.369886
19.1759
-0.0762093
3.43905
-20.5062
17.7006
29.2287
8.56528
-89.8582
17.4515
-123.65
14.9509
1.24028
-2.91915
12.9135
-5.03258
25.9798
4.7382
17.8163
-10.6499
19.1678
0.950349
20.6834
-0.5467
-31.0106
11.5239
-48.6181
4.80816
-5.56958
-98.3128
23.8872
17.7498
21.8434
20.3167
21.8178
14.8605
-21.3102
6.27745
17.8395
17.6848
-7.90334
6.73422
-6.85544
11.7233
3.24586
7.96324
-32.1118
37.9459
4.39464
-0.278278
29.3524
22.8571
-6.57541
-10.4321
10.7248
17.067
-61.2043
3.75877
-36.0908
7.09777
17.805
18.8029
-2.94358
7.22433
19.0292
0.0431069
2.31421
20.7478
4.42049
-0.396726
-28.0072
4.94147
-3.38271
19.6591
26.1971
-0.136418
-142.959
-9.33233
0.883887
-1.97619
7.3517
26.1589
-3.04695
33.8319
14.3112
6.42571
16.2719
-46.9731
-14.9864
-110.364
15.7213
-3.1678
-20.7052
-186.655
15.8359
18.4092
-1.58395
-12.3272
-7.82313
-11.3024
-0.579056
-0.367559
5.17922
4.94978
16.4054
18.3921
21.4472
9.3187
-6.49622
-18.2197
-7.44043
5.3718
-181.898
20.2623
4.79943
-234.938
-0.696954
0.116049
2.05488
-44.6373
5.30742
18.0642
2.93271
-7.0782
0.832599
-1.6672
-17.211
10.1091
-4.90248
7.27159
17.7333
13.7476
-25.8207
18.1677
-0.22952
21.3536
15.6488
16.5205
1.70291
9.51135
26.1219
34.0846
7.94317
-21.2326
18.0703
3.0268
26.2639
-8.55616
-21.7598
-43.6749
8.48329
7.57831
-23.1102
17.657
13.8353
-7.58096
-42.1394
-5.91252
10.1137
30.6139
-119.95
18.7336
-25.6095
24.9191
25.7142
-6.94884
0.162497
-161.203
26.9613
5.61743
32.9407
2.37788
-7.3008
15.9717
9.95657
-38.8277
-30.9775
-18.0004
21.3235
2.84252
-18.7818
23.0117
21.7379
-7.6058
-3.6516
2.01361
13.6704
9.36389
12.7719
17.8635
5.15148
-43.4326
20.0728
-0.207414
-5.175
-5.14452
20.6145
13.2022
-93.724
-119.063
-0.826204
18.367
24.4574
4.86909
4.95497
-4.33595
30.8907
-36.5296
-10.4345
26.5069
18.2226
9.74749
2.70767
-129.309
-9.33727
-5.6672
-36.0246
-1.50724
-95.4697
10.6913
-32.4697
-18.7156
-29.5517
-27.9328
-72.7576
-24.2244
-68.2197
32.5727
19.6675
-22.4656
-10.3142
-1.6352
13.5479
-7.40251
33.6068
-10.3223
-4.8919
18.3116
-14.5762
-90.1163
-5.55643
-6.61626
13.9392
34.9527
-0.734805
-7.30621
-23.2726
6.4177
-8.24032
1.34147
7.0573
20.1874
21.0446
18.5267
-220.861
-30.5134
1.29906
5.77948
17.6673
5.13948
19.0213
31.9556
28.228
-12.3395
18.2966
20.953
-4.76826
17.2738
-1.99417
27.4802
16.9558
10.6712
20.9305
16.8251
-4.52401
2.82662
21.2935
-17.284
6.30012
-20.9534
-13.0885
8.17589
14.9196
-1.95116
3.9796
25.683
25.1458
-4.8161
-26.008
7.03474
-64.824
-10.4373
20.4259
20.738
-30.3024
17.8749
5.48464
3.1406
5.97514
-52.3659
-160.082
-0.0371984
34.9062
-16.4805
2.45137
23.2904
7.74605
-1.48329
15.8411
8.79417
18.334
-32.1156
-10.4545
5.24628
-4.02785
-9.97664
-6.40302
29.7706
22.7067
12.0508
40.7967
24.8356
-10.6408
-2.48632
-51.3774
3.29046
25.8117
-234.297
10.8437
3.3768
-48.4516
-10.4791
16.0812
-1.90243
3.45197
20.0696
35.2487
-27.7543
4.15153
11.0169
8.12639
4.09022
-179.117
24.8718
16.6491
6.04672
15.6359
-8.87489
-28.9299
-35.728
28.0393
-0.664223
32.6681
-84.1692
4.89396
-16.9305
-22.221
-24.5624
5.51602
-5.70238
14.1765
-0.979104
14.2643
-156.226
-0.019413
-73.6429
-24.7818
-9.02675
-6.62211
4.08885
-7.53466
-128.002
-36.219
3.84559
4.73208
29.8627
17.9773
1.07555
5.44474
40.1709
10.5435
-28.3364
-0.161089
9.90676
18.494
6.79738
20.018
-6.13483
-6.5324
-6.7742
-0.0274687
7.10709
24.1679
-27.5702
-43.2476
-33.7727
28.7252
-115.015
5.33806
18.1284
-91.5703
-1.07195
-1.21949
-26.8639
-28.6269
1.28071
18.0138
11.3753
17.8067
-14.7345
-23.6331
-14.4548
-30.1406
-8.98398
-7.8206
5.04764
-11.3772
-4.82336
-127.202
-27.7167
-28.0045
22.6106
-149.966
28.7586
-37.7867
-186
-3.06357
-13.8816
18.9942
1.38336
25.1581
5.71987
-9.60717
-26.7607
16.5642
-22.5142
17.8314
-0.748946
26.7036
20.401
-1.17213
15.6325
25.843
8.7213
15.5712
-8.39814
-140.807
0.58984
-15.0796
-6.48568
-11.7571
-11.7317
4.26259
-29.4803
7.48215
0.5987
-3.00226
-9.43576
-9.93567
27.4058
5.86716
-0.701291
9.5527
18.0503
-0.776229
-2.20967
9.53201
6.7679
3.60884
7.38295
4.40378
18.0128
18.1763
-5.89397
19.4325
20.2667
11.4826
-13.9738
-0.134902
14.3031
4.6201
-4.97125
-8.24232
-183.097
-1.18893
-129.58
0.141385
-4.8795
-0.626619
-38.5898
-2.5042
-47.4296
0.966035
-2.78665
14.8472
-34.7704
18.8478
38.9791
15.6462
-71.0245
16.3225
12.7244
7.00809
-0.794234
-8.86737
-63.6456
6.17313
16.9239
-3.06581
24.8161
-0.726608
18.1493
-2.43216
1.26235
-16.9675
-19.0409
34.022
-124.377
18.1048
18.2802
20.0631
5.93221
16.6006
5.22927
-16.1449
8.0503
-26.834
-36.1092
17.0819
18.2518
-7.73457
15.7387
21.1545
-58.4621
-21.5338
-0.51666
-0.163505
20.4458
16.44
21.0603
0.515042
7.76391
-2.63523
-8.71255
-13.7458
21.2624
32.3739
-8.08794
-37.301
-17.193
2.19528
5.54217
5.70542
-26.7304
-44.2107
-0.867367
-98.9035
-9.50524
37.317
15.3187
-19.5736
-188.325
-93.1389
-12.5839
-27.1477
-27.7892
-43.5512
23.2572
16.3117
-11.0726
32.5344
-0.229435
-28.7555
-55.0458
-34.8721
9.0733
-18.8695
14.3428
6.38705
-0.0467128
-12.1922
-101.235
-28.3665
-252.092
21.4059
-45.288
-1.38908
-34.2096
18.3225
16.0698
-111.772
18.4351
13.7908
22.2035
26.1772
8.98002
8.87949
35.4554
-33.9536
3.0641
-40.9562
-69.02
23.7322
-185.029
28.3843
16.0985
-0.613152
-2.64657
-12.0825
20.4593
-186.74
-14.9056
5.10622
8.10437
-23.7066
17.0464
12.3488
-3.25798
28.7344
-24.369
-19.8593
18.9838
3.82994
20.1373
2.01396
38.8662
-2.08401
0.426479
20.3941
2.1549
18.1387
7.9159
12.9227
8.73528
-17.4575
-9.1519
9.58877
7.34536
-109.555
-0.407095
7.53355
16.4189
17.2746
-120.88
3.93598
-24.6956
16.7873
7.6952
-70.2573
19.1115
-121.789
18.2691
19.0802
-30.9841
23.6565
-1.9387
33.7226
10.5796
-49.6416
-1.05223
-0.208925
21.1742
20.3849
-58.7723
17.706
19.7139
-21.2106
-0.43527
7.27061
10.5447
-22.6438
-32.1373
-12.991
-254.129
18.2492
-0.0239799
-78.5871
-21.4133
21.6022
18.4622
22.2605
-0.398945
16.1888
-13.4706
5.4616
16.5087
-121.721
-121.064
28.2141
7.05103
-102.356
-15.7289
-33.1125
-95.8286
18.0946
-31.3371
-14.1658
20.5775
-4.95181
17.2737
-66.1547
3.81038
31.046
-0.652209
21.0862
0.488625
-100.826
14.1752
7.13296
18.8735
31.0406
11.9004
7.0341
32.8903
16.5537
22.6845
-28.3096
-4.67
-15.2567
0.388496
-91.4775
-65.0508
1.52526
-52.5609
2.00236
5.67942
-11.1903
-5.39192
-101.403
-9.12658
22.33
-39.9343
4.05359
17.1255
17.8885
-15.3506
-0.403953
-114.476
-27.6577
-75.2978
-12.4677
22.3861
-73.4394
22.1672
-47.8794
18.1258
-15.5127
0.0674687
-41.3387
12.8415
17.0812
13.2849
4.7508
16.1285
-33.721
19.1464
26.1438
3.20682
-151.175
-72.1383
19.3208
11.4507
-29.1178
-18.506
10.272
-6.57319
2.04238
6.67801
-5.42969
7.67088
17.0662
11.261
-1.26706
-67.4792
23.7278
-93.4317
15.0268
-0.720914
18.4238
13.7143
16.8229
6.16409
-71.4825
-169.713
0.434681
-5.33439
-165.983
6.98479
-6.14281
-108.781
18.7674
9.61482
18.065
-122.671
-44.2172
-0.443348
-1.82223
13.6909
-28.3167
10.1466
7.24032
-55.3471
-81.983
-93.8013
5.3793
18.2726
-1.12309
8.63646
-24.1091
9.12847
-84.1181
-0.571183
-42.6055
18.4313
4.27131
-0.757743
16.6793
8.45353
14.9745
26.0559
26.1781
-2.38858
1.10455
-87.7731
0.407847
17.0774
7.09823
-54.4339
-53.2855
-48.6378
-8.33202
3.24212
-52.7719
35.2697
-10.2022
12.7029
3.53077
-20.5683
-3.06817
2.47915
-22.2617
11.9239
9.43145
19.3102
0.302415
17.8767
-0.0874192
-29.8157
-122.831
-14.5133
-68.3941
11.9356
30.5185
17.5623
-20.147
-47.7791
20.1331
-28.1969
-107.47
-1.90362
-10.8025
6.19743
-52.4514
-55.929
-10.6035
4.69453
2.03591
-35.2503
7.03607
19.4345
-5.12279
-6.68345
20.2509
-2.8798
-32.9408
-0.514626
7.03588
-3.21263
33.2133
-1.31223
3.03233
2.29915
2.86423
-5.07365
7.53206
-11.925
-0.636329
4.981
-9.60661
2.73608
-33.5577
21.0256
7.14653
13.0267
-86.5937
-9.84969
31.2183
-123.32
12.6004
12.0031
13.8892
-4.97206
4.37309
-13.867
25.1268
19.1031
18.1709
10.3397
-138.527
20.1117
12.1412
25.7773
-31.0799
19.5164
20.4209
19.0601
9.62766
-45.7846
14.1633
-35.3381
-4.91325
16.1815
15.129
11.3213
22.0665
8.84576
24.8441
-7.64337
13.2357
9.67053
3.76623
-91.3518
18.2323
0.979885
16.7936
33.2182
18.9934
7.52296
-8.63115
3.78994
18.1705
-1.76215
-26.0758
5.66831
2.56924
19.5235
-105.329
23.2125
13.469
40.1304
27.6103
-10.1203
-14.9837
-86.0754
11.1271
27.9044
6.76919
9.69752
-13.1874
36.7237
17.6373
3.97565
33.849
1.77867
16.0181
-14.1604
11.9322
-0.362242
8.07338
12.5887
17.0426
-3.27153
-24.5221
6.80801
-86.1007
0.098827
-50.4565
2.61233
27.7235
21.5185
-12.8694
-33.6138
-5.93816
14.2506
6.68406
6.02825
16.9161
-103.005
0.574277
-166.868
19.0635
-0.726638
-119.479
22.2429
-3.39149
4.20264
-7.43303
31.6152
-109.008
22.1866
-36.6289
34.3508
-9.68654
-7.21262
0.170422
1.20699
7.7536
18.0073
14.0367
-99.4121
-10.3091
-136.645
19.1587
8.93283
10.1939
-114.076
-69.6416
-37.3012
11.8258
-18.4269
1.13347
-0.759825
18.2693
32.5689
-83.9252
2.51906
5.41259
-106.077
15.8936
-0.971309
-11.6678
-79.5798
-1.30126
18.8243
-147.418
-108.57
7.13707
-86.7512
-28.5496
12.339
18.2515
14.1433
18.2082
30.9111
-39.6423
35.6479
-14.0937
32.711
-59.6645
0.302729
28.9912
15.7663
-106.035
1.53846
-3.45395
6.37991
-126.166
-33.7291
8.58701
-10.9333
-12.7518
-0.131696
-32.6241
15.0801
11.8956
-68.7432
15.3442
0.25337
2.18844
-110.47
-1.61573
-5.11607
-120.737
-0.53801
30.7068
-0.779842
31.5408
5.50425
-27.9726
15.7697
3.96824
0.0952694
18.166
17.0803
34.4682
18.2908
21.0003
-17.3657
-20.6633
33.422
32.8525
20.2716
4.4696
-132.354
-35.3366
6.63033
-9.13638
-2.31132
25.1673
-204.947
-1.09627
-43.3229
32.2633
8.63873
11.8992
-182.415
2.58024
24.6119
37.7636
35.427
9.03348
16.5433
-17.938
-5.0169
18.2568
36.0189
-83.5664
0.0699873
-5.67167
-0.19331
9.1927
7.95831
4.99137
7.20645
11.1794
5.46037
-0.579329
14.627
19.7729
-38.7121
14.3185
-200.828
4.06475
27.0102
-142.18
-6.14272
-41.4457
16.0424
17.4368
-104.253
-45.1381
1.45881
8.82928
38.8583
-18.6337
-42.7045
-8.34425
7.40828
-86.9991
-40.0789
-114.726
-63.6351
-0.800507
-7.17598
4.46037
-15.2062
17.0946
3.89479
11.3794
37.6376
12.5174
6.81383
-136.495
12.549
-28.2124
-12.745
26.7019
16.0093
6.83401
-58.814
12.8792
15.6874
-102.18
-47.8349
-1.42312
26.9342
-7.25787
18.136
10.6399
23.7987
11.5774
-207.666
8.70537
17.9468
-9.16966
19.0826
1.82769
34.1477
-128.042
6.77085
-31.8545
18.4477
-117.108
-4.42789
-132.706
7.90554
-27.6218
-135.189
-117.715
-6.51593
7.12439
13.7519
4.2071
7.62565
-36.6365
3.98819
-136.654
17.7467
32.3182
1.43888
-35.1896
5.0392
5.91693
-3.54156
-7.87153
3.2807
-33.3811
3.87912
-10.6595
-27.859
11.0727
9.00481
-88.7361
-103.164
5.16174
17.8264
10.9512
-98.6651
7.463
-0.452439
-69.082
-2.74021
-7.87221
-99.9858
22.405
-122.862
-19.8724
-18.8519
-73.2916
-33.4788
-41.6396
40.3117
-2.51355
-11.8783
19.2674
32.3736
27.1535
-211.527
-13.1305
17.8759
-1.1028
4.07115
32.2259
3.0348
-3.48939
40.0791
9.46442
-36.7543
12.4541
25.6705
18.5103
5.04549
27.2265
17.7595
-1.14534
1.82201
15.9016
8.04996
-24.7036
30.1018
16.3311
7.94629
-0.708241
4.42297
-2.76508
-195.352
-14.1631
7.66964
7.77701
19.8582
8.80313
-29.4804
27.7593
28.9239
-60.6456
4.32509
-97.7786
-93.394
-10.014
17.3494
-104.862
-4.96996
19.2951
32.9808
-26.1127
11.4565
15.3763
14.9596
-6.25258
5.79191
-81.9563
-2.50134
-19.1934
-3.73089
-36.4153
-5.35971
3.73961
-131.194
16.6589
-152.545
-0.424476
13.9686
-23.7411
-170.213
-31.7702
9.77182
-11.9188
-0.454186
15.3544
-25.8323
-0.445263
-42.3793
-80.7572
16.9296
-27.1354
32.6216
-0.618699
36.2945
-0.0477217
-1.81306
7.10482
18.455
3.35293
2.75196
-16.2118
10.504
7.10671
-3.00707
41.1486
14.9564
-16.4502
-7.52582
-8.20575
-29.6762
8.69173
-80.3049
17.4883
-185.383
-153.671
-23.7655
-34.4242
-1.66474
-26.0372
17.219
3.94458
27.2261
33.7453
-28.0176
-32.5076
14.9252
2.91509
28.4866
-67.9967
9.47063
15.3076
17.8158
-241.64
-100.119
12.0431
-3.49743
-0.910046
-219.882
-37.0069
7.4803
3.05308
-0.950577
8.97915
1.91277
-0.186448
9.18708
-203.354
-210.092
-23.495
-28.559
34.0191
-10.1016
18.3606
-28.5017
-1.67488
9.39145
-11.7739
14.0755
-117.778
-4.79253
28.2573
16.6302
10.7024
-16.3073
36.3039
-144.034
-4.87563
-172.433
-14.646
-110.612
-246.035
25.0571
10.292
4.1718
15.1245
-132.422
-44.2035
3.59626
5.09513
1.65517
10.8367
15.4054
9.89349
-90.4591
-3.43542
-60.883
-10.1073
1.62514
1.2002
34.6768
17.616
-53.2169
-17.0689
13.4509
26.1529
-7.15989
-10.9151
-13.47
21.7451
6.02902
-11.1672
19.1838
-99.5127
27.848
-2.02633
20.1853
-32.2724
-10.6142
-0.504041
-186.557
-16.0248
14.6766
-16.1812
-100.124
13.6099
-122.049
8.77856
22.0221
17.9339
21.2559
18.1184
-10.1415
-5.75057
11.0584
6.85463
-0.155128
13.3083
-7.40324
28.1804
-127.376
20.6048
-24.5142
32.1059
-132.92
3.38283
30.5462
-131.302
-9.36597
-25.3442
21.2307
30.3662
17.7044
-1.6874
17.9398
16.9228
7.9108
17.2611
-238.499
18.9534
-138.741
-132.644
-35.3401
-36.6213
16.5292
-22.6257
-35.2065
-0.0478146
29.6844
8.51306
10.923
-37.0471
-1.07845
-5.29321
-95.2073
18.245
7.72146
-33.1931
35.4997
-4.97916
26.6473
18.178
2.49186
-0.419732
1.94485
-3.06724
-53.4627
-0.954062
-2.67967
7.63367
7.35661
-147.142
35.3203
20.7363
-2.7294
-67.9364
6.82887
-180.829
18.7884
15.3757
7.16631
-0.900697
15.363
9.06781
-3.89015
-23.7146
-7.76104
10.2954
27.7711
-16.8764
30.8116
37.9114
31.942
-83.7516
16.2241
-36.0214
17.6605
15.6379
22.0605
10.3492
20.5391
37.2812
19.2408
-17.2295
-56.2379
2.06129
37.4425
0.922446
-118.428
-103.399
22.0391
28.0792
12.812
-2.62681
-11.8757
25.0223
-40.4909
7.48131
-102.314
15.4797
-1.24958
-38.3611
2.53047
-44.3258
-46.658
-96.2241
-11.4035
-111.649
15.8555
9.95034
9.00017
8.11119
-105.924
-16.1542
-0.513772
-128.245
-30.8314
-14.077
19.5722
25.6295
-147.93
25.3848
19.9095
28.2789
-6.82907
-64.9863
10.3664
-22.3261
21.8678
-141.403
21.1422
18.8696
12.3494
21.3529
5.41764
17.4186
-1.27878
15.8959
-9.23189
-33.0814
-57.565
-18.8802
17.0388
-57.163
-249.59
-54.7378
30.8858
15.9184
16.49
-1.69902
24.1779
-2.45515
7.50216
-16.6426
-8.89434
7.88391
-220.281
-26.9368
1.73663
-29.3024
-12.8629
-54.6573
-15.2951
-35.8716
-17.0311
3.36173
30.0189
33.8549
27.1161
-60.2656
7.57906
-31.797
8.39836
27.1861
13.1673
16.7749
-46.4408
0.338717
-9.57231
9.63442
19.0631
6.60481
10.6256
-30.8641
8.45491
-31.4815
18.1811
10.8278
17.8308
-25.5531
8.23968
-122.602
-35.837
-36.2146
-1.60543
28.79
1.29866
-33.9015
-102.714
14.177
18.286
-4.9684
16.9616
-25.5302
24.7768
30.3728
-251.128
8.8014
21.0027
-229.722
-43.317
10.6051
20.4826
22.3071
-36.7675
-10.6216
11.408
29.6746
-35.3727
-1.69536
9.24645
25.1322
10.2389
-9.42312
-134.519
17.1394
17.9319
18.5542
8.91437
-1.96721
10.7309
36.3312
-38.6249
-2.49155
10.0918
-31.0987
10.531
1.73093
-88.9524
-11.8654
-137.048
17.2137
-203.791
-11.911
16.3268
20.5097
8.5754
-2.81153
9.79835
8.77321
-27.19
-22.9948
-6.40747
0.41082
-39.7453
22.6938
9.56807
10.4348
5.95061
26.7854
-72.0249
-5.473
17.7534
-35.5738
17.8943
5.15285
-1.98982
-30.3111
18.5882
-1.91709
1.06403
-5.28559
-3.71678
17.603
-27.7314
-1.70702
-214.666
-76.8903
17.5458
-29.9774
31.6339
-26.4374
-27.0912
-80.5104
21.225
10.1763
15.511
-5.82492
24.7048
-93.6241
-7.6419
10.7077
-84.1438
19.07
1.51974
-6.92722
-3.65788
5.39501
18.1898
-30.7615
-216.466
-0.0917
-140.014
-124.514
-0.101968
26.9511
3.49158
-34.5152
15.5796
-33.9261
21.8765
-27.7206
10.698
21.7711
18.9037
0.533458
-149.88
-58.1561
10.0676
14.7082
16.0438
-87.8281
-114.89
0.482008
-17.8447
15.0495
38.3364
7.91264
17.1784
21.5696
13.6119
19.3338
-41.2588
-9.05149
-174.207
17.675
37.0028
8.82642
3.063
18.2946
-0.576646
1.25115
-0.68325
10.6203
3.60189
31.7562
-82.0644
-13.3943
33.929
18.6709
4.53904
11.0131
16.0214
5.47492
-120.254
-103.746
10.7773
-31.7903
-29.5313
15.8255
-144.64
-69.2807
-33.3172
6.42186
7.332
10.2129
11.75
15.9636
16.4645
-6.83553
11.0304
8.19938
28.2748
22.2182
-13.5692
-0.606928
-5.37112
19.8006
10.0466
-12.3429
0.147486
11.4892
-0.17249
26.8666
12.4972
-0.32673
-42.1694
10.6307
13.1932
-7.91778
17.5085
-1.2613
7.69833
-106.124
8.15682
-69.0123
7.81137
-10.7022
-89.8417
-135.225
-24.6203
22.6572
-89.0339
-0.643389
-68.9323
28.0655
-126.649
4.26268
14.1869
-37.4884
22.3526
18.4191
-11.3968
19.5982
6.41554
10.623
-7.46058
-45.5199
-1.00226
23.0259
-7.00813
-33.7513
-34.9852
-23.8059
3.04419
-77.8332
-21.5901
-8.3751
14.8648
17.9727
14.1676
-48.6209
-62.9261
20.2852
15.4105
-38.1177
12.9886
-1.97252
-5.5188
11.1693
3.83951
18.0403
-115.557
-121.961
-118.741
15.002
-71.8304
-12.2696
5.64681
-51.209
-26.8508
-36.1012
-53.9067
5.17617
2.1485
0.780145
-31.4505
18.8823
18.4781
-12.426
21.6991
-53.7167
26.3314
-9.41107
10.9607
2.37928
11.3674
4.01514
-23.9114
-3.15947
19.2173
22.9259
28.3349
-39.497
-24.0547
-69.776
-5.13924
-1.76904
-26.0411
-29.4484
-32.6705
3.99447
-33.1464
-8.89236
-50.727
-8.62906
24.7873
5.34836
8.26101
-0.613825
-2.43675
-14.7807
27.0003
33.425
-21.1773
11.2656
12.1219
-0.222167
-110.24
20.993
22.6282
-23.861
-110.817
-150.73
-61.7179
3.92511
-30.0994
5.44738
20.0473
-90.313
20.8699
-27.1732
-35.9644
19.038
4.91128
-36.2576
11.9224
21.8422
-37.3144
6.229
-34.6038
-27.7245
-34.2572
29.1302
-5.8258
8.96532
-33.8776
15.1417
-33.1588
-80.7392
-39.2376
-43.4037
-8.88621
11.8735
-0.620251
-26.8561
8.31016
-0.000702654
14.8855
-99.3852
-25.7844
-7.01396
0.0648093
17.4328
-14.6683
20.8126
-2.86456
-1.061
2.50193
-0.885972
-84.3947
-25.8163
-60.5912
5.00325
15.166
-2.15298
9.56677
-16.8018
4.5208
-48.3681
18.2398
-104.898
16.9723
-15.2534
-143.459
-29.6415
41.9787
-102.29
-36.8181
-6.38937
-21.2684
17.8002
-1.02087
-17.4081
-0.107408
-34.4894
-40.85
-20.0754
-29.8985
6.04909
-38.708
12.0747
-32.2396
9.44184
8.62997
1.70455
-20.0021
2.79283
14.8399
-30.3198
5.85271
17.7596
-3.56691
-32.2917
9.29882
-120.56
-16.2609
7.28355
16.0389
-190.519
16.6683
-23.1847
-137.627
-43.4579
-44.5332
2.6722
-17.1707
-74.0734
16.6694
16.5297
-92.6684
38.0776
-73.3367
22.199
19.9111
-37.406
14.038
14.8679
18.0993
-6.75749
-16.8854
-137.008
-137.354
17.5767
14.0613
-27.7765
-83.015
-12.2227
22.8676
9.9487
-34.8231
11.8974
17.7867
1.11995
0.394409
-0.454807
18.173
15.69
-43.2676
21.0972
20.5122
-3.95602
-51.4589
15.1386
16.7417
10.8348
-1.52227
-5.27502
-80.8384
-143.283
-45.5911
22.1933
5.60037
-9.42311
-7.00762
-51.9072
-112.155
8.9566
-56.5587
-8.78622
15.3607
18.2304
-119.509
15.3945
-0.26684
6.57675
9.42903
10.8467
10.2874
-0.0816558
18.7662
20.0295
17.4408
-45.064
19.3008
15.5547
18.1804
19.115
8.09949
-4.6296
0.971912
-12.6981
15.9724
29.7622
-70.3648
35.6087
-36.5145
-38.9876
10.4224
15.1378
-50.1393
8.98393
-24.9534
-51.8461
6.51345
-185.725
-73.1479
9.4611
6.54059
35.1686
12.6566
-33.9333
-178.264
7.50434
16.0314
-133.343
-80.8006
4.5678
1.31537
-24.9251
-36.443
18.2085
-21.9845
15.6794
-3.53839
-4.89892
-49.1527
-0.361464
5.36886
-13.6409
23.2323
-9.89221
-24.4449
23.8066
-48.8345
3.247
16.5866
-7.86865
-74.9351
19.7436
-3.11043
16.6515
-10.6831
16.6972
6.93682
24.5263
17.4466
-18.1857
8.91189
-8.26073
6.11035
-1.1235
-0.296924
-150.015
-54.4494
35.8807
4.54256
-108.904
20.568
-94.7094
6.84255
-120.127
-44.9575
-13.6005
-34.8451
1.70205
2.87549
-100.787
-8.48163
-4.68824
-127.596
-5.35022
-163.608
7.80728
18.6407
-122.611
-156.46
0.107137
2.29955
-21.8586
16.4381
21.5556
-2.47032
16.6863
-5.88846
17.7963
27.8655
-76.4889
17.722
4.20612
15.285
18.5498
11.4391
-6.23282
-172.92
14.9553
21.6266
-200.78
-75.7296
-33.8925
-18.1107
16.7464
4.69157
-12.9709
-9.44912
16.5259
-21.1533
7.18926
0.315083
18.9565
8.12421
-14.6177
7.11729
-1.96751
-112.466
24.9098
31.3432
16.0705
36.7816
21.039
36.7992
7.522
1.22499
24.531
-10.9452
10.6522
8.38731
-20.3654
22.9431
-5.77255
-14.5335
30.799
11.3752
-46.5848
16.4883
15.5117
20.5799
-18.1891
19.1982
31.4816
-86.6584
-33.5193
-6.94136
4.89703
-31.3081
14.0848
8.69818
21.7754
17.7256
-135.726
14.0854
-1.537
-9.99448
-12.0173
-122.918
11.0954
-21.5951
18.0516
-4.24466
-26.4674
5.64892
-67.7672
5.25199
-4.11762
-17.6697
13.268
13.1568
-34.4982
8.03935
19.6845
6.86505
-66.3259
17.2986
-1.55029
16.18
-35.8876
19.8061
14.2319
-17.597
-8.10151
12.241
4.3145
14.6234
-29.5193
35.1273
-3.9702
-34.4352
12.5354
7.28981
-31.541
-15.2574
-48.8057
-10.6386
-7.24016
-17.6338
8.88426
6.99282
37.451
-9.87654
-107.144
4.48171
-9.68396
-8.68205
-16.079
8.68272
19.9982
-29.9941
4.52159
-22.0587
-8.08978
5.31361
7.04964
18.1879
-1.93566
-0.202746
-8.53703
16.6361
-8.93727
5.01833
-35.0907
8.33324
1.92204
21.0792
-35.2777
-2.90969
-18.0741
10.652
-27.6021
8.55999
17.2841
14.7751
20.3595
-66.0111
2.13803
17.021
-100.576
19.5895
16.4969
6.8075
15.9987
1.37134
14.4767
9.52992
-10.6523
-2.6945
19.4524
-122.732
18.6585
6.40277
37.7563
9.87502
13.7192
16.2675
11.981
6.95069
16.4102
-1.27642
2.27943
-27.4469
-2.49168
9.79206
2.8794
-15.5677
-59.6705
-71.3779
-50.3388
-31.5045
-10.9044
18.4467
1.40997
18.1824
11.8175
31.5246
29.002
15.4066
1.00801
15.1977
-31.2977
21.6425
5.41505
12.0057
1.83573
17.8808
11.5174
-7.92948
-65.1575
-1.88588
3.44899
-9.48143
7.69532
17.4214
-54.5459
1.79671
-6.76434
11.1562
16.0494
-7.97157
15.6377
13.5874
-7.79291
8.13562
14.6712
8.39165
-16.0705
19.734
11.8771
24.0374
-96.4189
19.839
11.8991
-26.7417
13.0621
-0.67483
-10.8394
-32.8078
-234.166
18.1128
22.966
20.3385
21.0235
18.0291
18.7434
15.9622
7.75787
16.346
3.5403
12.6837
8.29225
0.287609
27.6586
5.80874
-31.8942
18.4894
22.303
26.7463
-47.7021
-3.57076
-2.72608
-17.4092
16.3043
-36.7577
-126.411
19.7941
31.8585
-21.2608
-113.785
-36.5592
15.5707
5.88379
12.6701
5.69259
4.8181
-111.524
5.34761
-7.06497
-35.3655
19.1195
18.1809
21.0015
-11.341
-52.0772