/*--------------------------------*- C++ -*----------------------------------*\
| =========                 |                                                 |
| \\      /  F ield         | OpenFOAM: The Open Source CFD Toolbox           |
|  \\    /   O peration     | Version:  2306                                  |
|   \\  /    A nd           | Website:  www.openfoam.com                      |
|    \\/     M anipulation  |                                                 |
\*---------------------------------------------------------------------------*/
FoamFile
{
    version     2.0;
    format      ascii;
    arch        "LSB;label=32;scalar=64";
    class       surfaceScalarField;
    location    "3";
    object      phi;
}
// * * * * * * * * * * * * * * * * * * * * * * * * * * * * * * * * * * * * * //

dimensions      [0 3 -1 0 0 0 0];

oriented        oriented;

internalField   nonuniform List<scalar> 
20045
(
1.15743
-1.37252
0.215093
-2.3242
1.06697
1.25723
0.517179
3.99792
-4.5151
1.08799
-1.46671
0.378718
-2.22291
1.85282
0.370087
-1.15929
4.15839
-2.9991
-2.23251
0.261617
1.9709
0.0944292
1.11563
-1.21006
1.1635
0.939676
-2.10318
-1.2131
-0.458675
1.67177
0.139317
-0.60013
0.460813
3.81495
-1.93995
-1.87501
0.93813
-0.912296
-0.0258333
-2.18288
1.77474
0.408136
-0.156271
2.01795
-1.86168
-1.92606
0.712959
-0.0260033
-0.596432
0.622435
0.0699851
1.99319
-2.06317
-3.13934
4.49058
-1.35124
-1.58022
-0.132466
1.71269
1.90965
-1.54629
-0.363368
0.346439
0.59169
-0.580984
-1.74322
1.41893
2.04662
-3.46555
1.68554
0.111451
-1.79699
-2.07273
3.49166
0.38812
-0.392775
0.00465555
-2.55446
5.42611
-2.87165
1.74786
1.21577
-2.96364
-5.88969
3.9698
1.91989
1.70542
-1.9802
0.27478
2.44877
-2.41745
-0.031323
-0.822926
3.32934
-2.50641
6.44031
-3.69275
-2.74756
-1.41075
1.50518
3.67606
-1.81048
-1.86558
2.21532
0.935333
-3.15065
-0.152148
0.95771
-0.805562
-4.94498
2.87234
2.07264
1.35532
1.2008
-2.55613
-0.0443317
1.29745
-1.25312
0.465437
-0.648397
0.18296
5.3612
-5.29269
-0.0685079
2.71049
-0.802334
-1.90816
1.09154
1.61895
1.78265
2.0323
-0.46965
0.458994
0.0106555
2.41492
0.0528276
-2.46775
3.38956
-1.17424
0.620583
3.59863
-4.21922
2.66281
-4.39159
1.72878
4.52829
-2.91491
-1.61337
-1.45418
-1.51045
2.96463
-0.227999
-0.73659
0.964589
-2.54258
2.55171
-0.00913609
-1.60092
-0.621988
0.790047
2.18864
-2.97869
3.49015
0.972981
-4.46313
3.05762
-3.88054
3.70261
-3.01542
-0.687196
0.290605
-0.656616
0.366011
0.950762
2.75185
-0.860503
-1.10199
1.96249
1.16687
0.742786
-1.38244
0.0693965
1.31304
2.42476
1.04532
-3.47008
-0.409577
1.29751
-0.887932
-1.4091
0.0771112
1.33199
2.01158
-0.848082
3.22775
-3.2989
0.0711483
-1.11861
0.709036
-2.35508
-0.187495
-0.628157
-2.23862
2.86678
-0.330993
-0.0617101
0.392703
2.81292
0.0648792
-2.8778
2.74653
-1.95649
-0.709656
3.52258
1.50887
-1.66514
0.306695
-0.604032
0.297336
-0.869369
-3.95347
4.82284
1.79511
1.93045
-3.72556
1.72398
-1.64494
-0.0790388
0.562104
-1.42261
-4.72505
0.634694
4.09035
-0.0620489
1.21948
-0.56532
0.95125
-0.38593
-0.123429
-2.14543
2.26886
-3.17084
0.0637756
3.10706
1.85206
0.673784
-2.52584
-1.6083
1.21416
0.394139
-2.79064
0.562231
2.22841
1.86105
-0.466019
-1.39504
0.938366
-1.44268
0.504315
-0.610159
-1.56101
2.17117
1.41613
-1.54194
0.125801
2.70936
0.071954
-2.78131
0.295952
0.0921672
-0.175718
-0.947857
1.12358
2.75863
-1.40331
0.0684593
-0.569067
0.500608
2.53293
1.14313
-0.871332
-1.31155
-1.43085
1.25513
-1.30917
4.79932
0.29162
-0.85694
0.557957
-0.489498
0.689838
2.59401
-3.28385
2.06733
-4.61247
2.54514
-0.162955
-1.21235
1.02825
0.184104
-0.719948
0.90248
-0.182531
2.23658
-2.42086
0.184282
-1.21351
0.985514
3.26028
-5.02112
1.76084
-0.61125
0.859905
-0.248655
0.127078
-0.864127
0.737049
2.02601
-0.340463
4.72417
1.71614
-2.62594
1.99778
2.16128
-3.67825
1.51697
-1.47327
1.54326
-0.231801
0.522406
-1.8961
1.51786
0.378234
-2.87765
0.280061
-1.44907
1.16901
2.80333
1.72496
2.24534
-3.19597
0.950636
3.08506
0.329794
-3.41485
-5.92274
4.4126
1.51013
-0.691309
1.73262
-1.04131
4.62372
-1.82039
0.368726
0.090268
0.237755
-0.685074
0.447319
-0.240051
0.109429
0.130622
2.31451
1.56776
-3.88227
2.4715
-2.07557
-0.395935
-0.501496
-0.016107
0.517603
-0.865529
-0.346823
4.03791
-1.87662
-1.62636
1.6531
-0.0267354
2.05558
-4.60104
2.54546
0.780816
-2.23499
1.28367
1.37599
-2.65966
4.37937
-5.24874
4.79027
-0.582901
-4.20737
2.73192
-1.60682
-1.12509
2.76417
-1.17025
-1.59391
-0.599903
0.562783
0.0371195
-0.500088
4.46833
-3.96825
3.47945
-1.73158
-3.2725
0.0714397
3.20106
-2.41166
1.64833
0.763328
3.38192
-1.58681
0.337016
1.38697
-2.45
2.85334
-0.403336
-3.34344
3.86062
0.03192
-1.09399
1.06207
-0.131607
-0.597281
0.728888
-0.105675
-0.89544
1.00111
2.25964
0.692502
-2.95214
5.35779
-2.68014
-2.67765
-1.08946
0.983781
2.56735
-2.34423
-0.223126
0.577699
-0.112261
-4.22408
-1.60545
2.25239
-0.64694
-2.28456
1.7661
0.518464
-0.0190804
-0.313685
0.332766
1.96738
0.79679
-0.23672
-0.00333095
0.524691
-0.286936
-2.58974
0.139738
-3.01503
3.71259
-0.697562
-3.00848
3.03384
-0.0253548
-1.80978
-1.53766
3.34744
-1.58254
0.50637
1.07617
1.33561
-1.55191
0.216305
4.47646
-0.626001
-3.85045
-0.15553
-2.95638
3.11191
-1.75008
3.03375
0.839024
-2.49162
1.6526
-1.82108
5.08136
-3.03293
2.42835
0.60458
-0.504284
0.575098
-0.0708137
2.08255
-4.49797
2.41542
-4.33087
1.7764
-1.26459
-3.1174
5.51204
-3.73103
-1.78101
-1.59989
1.55556
0.847691
-0.907694
0.060003
-2.34157
-1.12958
3.47115
-3.77343
5.41954
-1.64611
4.60624
-3.90351
-0.70273
-0.138207
-0.661923
0.80013
-2.19091
-1.98745
4.17836
0.409341
-0.270024
1.25132
-1.94263
-2.91492
-0.846241
3.76116
0.589705
0.14087
-0.730575
0.406945
-2.01239
1.8041
-0.0986742
3.26261
-0.17755
-0.80239
0.650242
-0.990199
1.21858
-0.22838
-1.25826
3.5179
-4.55245
2.36154
1.91364
-2.37962
0.46598
-3.08406
0.728228
2.35583
0.985907
3.62033
4.76433
-2.68178
3.82259
-5.95447
2.13188
1.87085
-2.86412
0.993274
0.346808
-1.92703
-2.1329
2.82274
2.39747
-3.55676
1.36974
-6.00488
4.63514
-6.27174
2.98283
3.28891
-0.377091
-1.23121
0.82861
0.742572
-1.57118
2.23904
-0.881383
-1.35766
-0.595071
-3.11003
2.60995
-1.20257
-0.423785
2.44287
2.89053
-2.44437
-0.446161
-0.0544223
-0.671077
0.725499
2.33328
0.51742
-2.8507
0.218163
-0.134799
-0.0833639
-1.28621
5.18447
-3.89826
-2.93484
2.81141
2.57633
-1.73731
-0.659513
2.23959
-1.58007
3.97554
-1.91996
0.613671
-0.0457888
-0.567882
1.49647
0.123008
-1.61947
-0.680226
0.709183
-0.0289568
5.62603
-3.80891
-1.81712
1.17376
-4.94719
-0.757006
0.0767802
-3.1851
0.736631
2.44847
5.72216
-2.39282
0.882646
-3.89767
6.59157
-3.20277
-3.3888
-0.0886917
0.678397
4.19154
-2.9155
-1.27604
-2.44722
0.310098
2.13712
-3.7621
3.6642
0.0979028
2.28838
-4.15685
1.86847
-0.0495489
-0.175595
0.225144
-1.90651
2.2606
-0.354095
-0.352205
-0.442407
0.794612
-0.797245
0.185995
-0.878227
0.158279
-2.21254
-2.39993
2.08392
-5.74062
3.65669
1.71533
-0.0113115
-1.70402
2.13386
0.314909
5.72321
-4.35347
-1.74076
1.60915
2.76252
2.95965
-2.21896
0.39102
1.82794
2.37272
1.81882
1.92183
0.0961212
0.595801
1.11953
-1.3695
-0.245268
1.61477
0.000873819
-0.505158
-4.99122
3.70501
-0.340325
1.53046
-1.19014
-3.84974
3.69517
0.154565
1.33663
-0.721461
-0.615164
-0.42278
-0.702696
1.12548
2.95409
-3.40945
0.455352
-3.2797
-2.99204
4.0349
-2.68175
-1.35315
-0.543539
0.489117
4.47602
-2.18763
-3.42925
5.51318
4.19252
-1.3453
-2.84722
4.64085
-1.87885
-2.762
3.1772
-1.46268
-1.71451
2.91321
1.27931
3.66112
-2.24409
-1.41702
-0.932029
3.34947
-2.41744
1.58487
-1.4696
-0.115272
0.392058
-0.286459
-0.105599
-0.524601
-0.085565
0.610166
4.95173
-4.54361
-0.408119
-3.32073
-2.60201
1.94946
0.941064
-3.48371
-0.366027
-0.330733
1.8272
1.6726
-3.35273
1.68014
0.0114397
0.836251
-2.13008
4.44459
1.95966
3.66637
6.08894
-4.0303
-2.05864
-4.12093
3.27469
2.27156
-3.84333
1.57177
-2.47041
-0.402399
2.87281
-1.625
-0.5856
2.2106
1.94176
0.625592
3.05383
-1.14019
2.00695
-0.830872
-1.58657
-2.28015
3.67679
-1.39664
-1.19416
0.203963
-1.2733
0.61379
0.365308
-4.12741
0.288069
-3.22291
1.04799
-0.9269
1.16555
-0.238651
-0.126717
1.21471
-1.68505
1.09469
0.590363
1.99153
0.245042
0.210662
-0.951655
0.740993
1.75477
0.716734
-1.60529
3.27788
2.34533
-0.493271
-1.04821
-2.03585
6.91844
-5.04828
-1.87016
3.36009
-3.87522
2.13913
1.7361
3.11841
-3.5597
0.441285
-2.00614
1.39598
-0.644722
0.143227
-1.12694
-1.66369
1.55243
-2.45753
0.905098
1.76003
1.90108
1.99181
-3.69876
1.70695
1.36184
-2.46279
1.10095
-3.9012
0.730356
0.164434
1.69662
-2.43597
2.3796
0.056372
-0.768258
1.3285
-0.560244
-2.45769
0.225171
-0.564828
-1.12092
1.68575
0.576185
0.00767122
-0.583856
-1.25942
-1.15224
1.27554
1.87627
-3.15181
3.84495
-1.47223
1.92721
-1.80379
-0.202341
2.24832
-0.886486
-2.78699
-0.245936
-0.195992
0.121807
0.0741853
3.00535
-0.590423
-2.24986
3.26594
-1.01608
-0.631807
0.75261
-0.120802
2.01286
0.226184
-2.0214
-1.33133
-2.2674
3.854
-1.5866
1.81949
-3.5916
1.77212
1.81155
2.22335
-0.299334
0.268144
0.0311907
0.591076
-3.06149
2.26873
-3.46123
1.1925
0.281911
-0.612904
-0.544053
2.78939
-2.7446
3.03267
-1.19357
3.06442
0.674913
-3.81425
-2.38973
1.94247
0.447259
2.8036
-0.719386
-2.08421
3.82819
-0.874092
-2.90687
-1.85453
-1.56083
2.28003
-0.354465
0.227906
0.126558
1.36312
-1.49559
-3.27626
2.73221
4.13065
1.23055
-3.38262
1.13275
2.85018
-0.900714
0.779618
-0.520871
-0.258748
0.0275456
-2.19061
2.16307
-3.58429
0.622363
2.96193
3.38784
-3.38784
-2.22032
3.69225
-1.47193
-0.897691
1.10835
1.81089
-1.06924
-0.741651
-3.97083
4.13055
-0.159716
1.61426
-0.110042
-1.50422
1.26112
-0.370484
-0.890637
0.646699
-1.06948
0.0142617
2.43458
-5.86384
-3.14232
3.70822
-0.565898
-1.25572
2.53127
0.539997
0.0631037
-0.6031
0.605011
0.779136
-1.38415
-1.57479
1.9216
5.58916
-4.05067
-1.53849
-0.481121
-1.90405
2.38517
-1.16613
1.22575
-0.0596229
0.812925
-1.2128
0.39987
-3.72037
1.89006
1.83031
-0.965659
-0.501054
0.704081
0.0755374
-0.0449174
-0.581624
0.626541
2.86121
2.09053
0.598289
-0.0582922
-0.422426
-0.741336
1.16376
-2.19801
3.46427
-1.26626
0.117483
0.986186
-1.10367
1.85093
-1.58931
2.00432
-1.44356
-0.560764
0.332962
-1.89397
1.30119
3.17526
2.0146
1.08974
-3.10434
2.07602
-1.52448
-0.551538
-4.04515
0.772652
-1.21613
0.621771
0.594357
1.54223
3.15063
-4.69286
-2.69635
2.29395
0.295231
-3.65786
3.36263
-0.631372
0.493165
-0.551597
0.65457
-0.102973
0.218286
-1.58779
0.0853613
-0.510399
0.425038
-2.70952
-0.475584
2.43848
2.79719
-1.56262
-1.23456
-0.706707
0.0749
0.44074
-2.66801
2.22727
1.07408
1.85232
-2.9264
1.48175
-2.74569
3.23876
-0.493066
-3.02601
2.09398
-0.140975
-0.2518
-1.44728
-0.83728
-1.26312
0.271402
0.991723
-3.72992
1.53191
2.48674
-2.96786
1.25773
1.59245
-1.59955
1.47325
0.126294
0.922616
-4.18123
3.25861
0.888105
-1.29619
0.408083
1.33211
-3.35351
-2.59006
-0.418417
-1.53612
0.127023
0.0245715
-0.12917
0.104599
2.30946
0.0017336
-0.208179
0.206446
4.40715
-2.86492
-1.55603
3.4914
-1.93536
1.16871
0.901501
-2.07021
-1.29151
0.660135
-1.13154
-0.131587
1.06381
0.747078
-1.33752
-2.34073
-0.020264
-0.175728
2.317
1.92642
0.418916
-3.49798
4.11857
0.268331
-1.35835
1.09002
-0.378663
-3.29071
3.66938
0.694078
-0.787773
0.0936949
-0.661006
-0.921534
0.365257
1.21961
1.54254
1.18938
-1.2688
-0.416246
-0.0862345
-1.81856
1.9048
1.44952
-3.2593
-0.26891
-1.73074
1.99965
0.4798
-1.54205
1.06225
-2.46478
-0.0872487
2.55203
2.5497
-2.49688
0.0232235
0.503341
-0.526564
-1.0401
-0.126023
0.815076
1.59657
-2.41164
0.740434
-0.887298
0.146864
2.19852
1.21231
-3.41084
-0.847544
3.5569
0.559458
0.0167267
-2.0394
-2.65186
4.69125
1.76105
2.27685
3.55735
-2.48328
-1.66621
1.10139
-0.617997
0.0933961
-1.43626
3.70782
0.403919
-2.9816
2.57768
3.10666
-0.417561
-2.6891
-1.54152
2.32903
-0.787512
1.49503
-1.80762
-0.964048
2.77166
0.679498
-0.634784
-0.0447144
-1.06305
-1.97714
3.04019
1.55922
-0.954212
0.328129
-0.347209
2.07178
-3.13483
-2.72455
-0.945126
3.66967
-0.0234625
-2.17121
2.19468
1.10217
4.77142
-4.97179
0.200372
0.915673
-0.329811
-0.585861
-0.120432
-1.47912
0.991699
1.17947
-1.62593
0.000924799
-3.15018
3.95595
-0.80577
1.22501
-1.56533
0.122605
4.25677
-4.16573
-1.12695
-0.106075
-0.358168
0.464243
2.10828
-0.181865
-1.00451
1.0937
-0.0891926
-0.857951
0.505746
-4.85841
3.59381
3.41124
0.747147
-0.289228
1.10215
-0.979456
2.14816
5.4817
-3.04712
-1.01918
0.0146775
-0.633954
-2.64231
0.71087
1.1798
-1.14788
-3.69367
0.109374
0.610053
1.00313
-0.115024
-3.47349
1.72843
1.74505
2.6896
0.53815
0.977733
-0.367561
-0.610172
1.43182
-1.25272
-0.179098
-2.86387
1.05339
-4.29887
2.03147
-1.38973
0.35483
1.0349
-0.00938817
-0.763668
0.773056
3.91738
-0.0602682
-3.85712
0.999993
0.0851318
-1.08512
-0.662623
-1.23348
1.10614
-0.167778
-0.358767
0.329724
0.0290434
1.90838
-0.128863
-1.77951
-0.0580046
-0.300763
2.31614
-2.24418
-0.132602
-0.698417
0.831019
-4.03245
0.88227
0.0235009
-0.127644
-1.3032
1.51398
1.28321
-0.0933699
-1.64739
1.05426
0.862344
-1.9166
-1.50474
0.122296
1.31007
-1.04174
1.07087
-0.943797
0.550553
-1.31881
1.60491
2.14098
-3.74589
2.3636
-0.459275
-1.90432
0.0313761
-1.6382
0.623302
-0.347555
-0.275747
1.11232
-1.30091
0.188589
4.31018
-0.110798
-4.19939
0.16398
-0.201257
0.0372775
-2.11825
2.93323
-0.814976
2.28304
2.16525
-4.44829
-0.49805
-0.158566
-1.34437
1.99019
-0.64582
1.01914
0.441511
-1.46065
-5.01972
3.08671
1.93301
0.25766
0.0720635
-3.39674
0.672195
1.46804
-0.847419
-0.620618
1.60519
-2.22732
0.62213
-0.514711
-0.857809
0.547487
4.22393
3.31133
-0.674831
-2.6365
-3.15946
0.413765
1.32993
-2.37814
3.49596
-5.68239
2.18643
-0.517353
1.34596
-0.00338189
-1.34586
0.923438
-0.742565
1.02263
-0.928277
-4.22326
5.15153
2.84099
1.63502
-2.93486
3.15416
-0.219302
0.151903
-0.127331
-2.03178
-0.644809
-0.58171
0.655438
-0.0737278
-2.7473
2.05211
0.695197
-0.502984
2.38236
-1.87937
-0.447137
2.05233
-1.86346
-0.549748
2.41321
-3.35851
-1.00728
4.36578
1.64252
-1.49332
-0.149201
-1.26789
0.0917528
1.17614
0.129243
0.0431486
-0.172392
-3.7163
0.186428
3.52988
0.085474
0.935916
-1.02139
3.01105
-3.37567
0.364621
-1.71619
0.765003
-0.487186
-0.277816
0.0608897
-0.6426
-3.68342
0.99418
2.68924
3.22113
-5.04221
-3.7835
3.31168
0.471821
0.89352
-0.153086
4.37564
-4.25303
-0.342734
-0.462427
0.805161
-0.0673251
0.890115
-0.82279
-0.315308
2.84493
-2.52962
2.58467
-0.415
-2.16967
4.00498
-3.82761
-0.177368
2.40935
-0.851868
-1.55748
0.161875
-1.08202
0.92015
-1.36088
-0.0881853
-4.22457
3.66911
0.55546
0.172936
-4.3975
-0.567858
0.985247
-0.417388
-1.97384
-2.56977
0.999247
-0.780214
-0.219033
-3.14222
-0.890224
-0.929269
0.665386
0.263883
0.426049
-0.207886
-3.9593
3.76433
0.194971
-0.665354
-0.312019
0.250308
1.09168
-0.0916879
-2.15891
0.252404
0.806188
-0.854248
0.0480592
0.737591
-1.41278
0.675188
1.81638
-0.202122
-0.910358
2.12151
-0.108651
1.45827
2.56722
-1.798
-0.769211
-0.423857
1.75947
-2.76791
1.80907
0.958848
0.375326
-0.117665
4.56795
-1.72695
3.24775
-2.32514
-0.552298
-0.68273
1.23503
1.93649
-5.08711
3.15063
2.45849
-2.48196
3.25934
-1.50809
-1.75125
-0.0347265
-2.34287
-0.425045
-1.83352
3.44965
-1.61613
0.102431
-1.27302
5.09561
-4.12325
0.981033
0.248311
0.143747
-0.457225
0.451882
0.731255
-0.0220719
-1.76193
-1.62214
4.19414
-1.4476
0.513921
0.253566
-0.767487
0.178662
1.08246
-2.5751
-2.53622
5.11132
2.15911
-0.217345
-0.0295738
-0.694602
0.724176
3.28518
0.481886
-0.0296889
-0.452197
4.14646
-2.54155
-1.36802
-3.77761
0.635281
-1.0535
0.0683329
0.985164
3.07908
3.51249
-2.53379
0.41768
2.11611
3.82955
0.175434
2.58501
-3.62244
1.03743
-3.19268
0.0227953
3.16989
-3.43791
4.38348
-0.945567
0.689715
-0.0325911
-0.657124
-1.78279
5.00392
-1.27457
1.49812
-0.223555
0.188962
-3.12382
3.07543
-1.90583
-1.1696
-3.59033
4.71576
-1.12542
-0.897841
2.43521
-1.53737
4.64905
-2.05813
-2.59092
0.19256
-2.36524
2.17268
0.586075
0.0684946
-1.7365
4.01954
1.43087
-3.65119
3.51104
-1.69155
-0.864605
0.732003
-3.29695
0.104263
3.86152
-1.86971
0.107015
-4.83206
1.33295
-0.0354976
2.45064
2.32885
-4.77949
2.17935
-0.734265
-1.44508
1.5152
-3.16744
1.65224
-0.867716
0.0419198
0.825796
-0.850647
-2.10835
2.959
1.5338
-0.983248
-0.360109
1.55681
-1.1967
0.471839
0.750258
-1.2221
0.335813
0.663434
-4.30206
5.12226
-0.820207
0.767043
-0.0729645
1.89104
0.950072
-2.84111
1.80326
2.64634
-4.4496
0.896975
1.90662
-0.157586
4.94785
-0.0758849
3.18111
-3.10523
0.193975
-0.0764919
-0.0171855
0.318809
-0.301623
3.34718
-2.83549
-0.511698
1.56107
1.69827
-0.679456
0.558442
0.121014
-0.90028
3.01943
-2.11915
-0.0418171
0.87344
-0.831622
1.84125
-5.80348
3.96223
0.4266
-2.50993
2.08333
2.99156
-0.658286
0.921431
1.25792
1.31989
-0.194959
-1.12493
1.26015
-3.1642
-0.713603
0.236879
0.476724
0.855859
-0.1308
-0.725059
0.00924874
0.576827
-0.202803
3.00119
-2.79839
-0.860765
4.4594
2.87772
-2.51741
-0.360304
2.7182
-2.04441
-1.81357
0.785233
1.02834
0.212156
-1.28139
-1.68367
0.829815
0.853855
0.332408
0.645325
0.613275
2.90091
-3.51419
1.17538
0.733
0.527713
-3.88622
-2.24226
0.464669
1.77759
-1.57532
-0.918748
2.49407
2.24206
-1.1878
-3.3413
2.08557
1.13455
-0.854784
-0.279764
-2.27891
5.11877
-2.83987
-1.72742
2.06038
-2.54969
2.31281
0.236881
-2.23158
4.63631
-2.40472
-0.0883302
1.00638
-0.918051
0.744299
-0.753687
-4.16362
-2.45366
4.1879
-1.73424
-2.25284
2.98107
1.92431
-2.24712
0.322807
0.685431
-1.38672
0.701284
-4.45755
2.70574
1.75181
0.000885254
-0.553881
0.552996
-0.516802
2.52302
-2.83833
4.87671
-2.94022
-0.274943
-2.11479
-2.83847
2.76259
1.67349
0.092609
1.09086
0.453632
-1.54449
-1.53728
1.41969
0.117594
1.21819
0.479681
-1.69787
1.51332
0.847908
-2.36123
-0.805978
-1.99322
2.79919
-2.54444
-1.01228
3.55673
1.56759
-0.882157
2.00733
1.33985
-4.11547
2.15246
1.96301
1.02243
-1.49124
0.468808
0.0347637
0.90951
-1.12235
0.212836
-1.95931
2.34269
-0.829371
0.660142
0.940857
-0.778983
-2.05534
-0.69196
1.02276
0.709858
0.109191
1.30694
0.102533
0.113652
-0.216185
-2.94819
-2.25051
5.19871
0.222291
1.09759
-1.85841
-0.256223
2.11464
0.364236
1.04486
-1.40909
4.20345e-05
4.40554
-2.82894
-1.5766
0.821452
2.48988
0.447117
0.306546
2.64582
-2.95237
-2.20445
4.34313
-2.13868
-2.05391
-0.920584
2.97449
-2.04652
0.702151
-1.17333
-0.64024
4.35549
-1.945
-2.4105
-0.423071
-1.07023
1.4933
1.16208
0.472114
-1.6342
-0.816976
0.902449
0.254349
-0.803264
0.548915
1.01112
-0.132622
-0.956834
-0.0493147
2.53538
1.82011
-1.25349
4.12583
-1.27014
5.23994
-1.24603
0.822954
-3.13079
1.07689
3.03385
-2.44277
-0.593456
-2.75367
0.635418
0.0397412
-0.6076
2.54288
-2.51534
3.36205
-0.243638
-0.845627
-0.597053
-0.556378
-0.411453
0.967831
-1.36389
-0.17804
3.11747
0.523469
-3.64094
-0.180065
-1.00322
1.18329
-0.698761
2.36935
-4.12368
1.75433
3.22503
-0.213986
-5.04639
5.69116
-0.644773
0.850412
-0.773301
-3.58792
-0.869629
-0.899112
3.73393
-0.0648256
3.2028
3.87614
-1.46568
-2.41046
-2.33846
-0.141407
2.47987
1.28911
1.47148
-2.76059
-2.86867
0.403891
-0.786571
-0.14629
0.932861
-1.93562
2.33954
0.723948
1.80549
-2.52944
0.172299
0.65798
-0.830278
-3.55896
0.479038
3.07992
1.4025
3.47421
-1.23668
1.78857
0.620777
-0.687961
-0.528167
3.829
-4.4119
-1.75296
1.56009
0.192873
0.290529
-0.788579
2.68834
0.028247
-2.71659
3.87698
-5.14712
0.0684739
-0.118023
-1.03446
0.256523
0.777932
-1.7852
-1.89821
-0.145488
1.33993
-1.19444
-0.324396
0.0266969
0.297699
1.12814
-1.78915
-1.18592
2.51585
-0.685497
-0.704228
-0.716524
0.777414
-0.455038
0.320239
-0.187114
0.0115188
-0.90645
0.86
0.0464497
0.94632
-1.04888
0.102563
-2.4193
2.48418
0.385238
-2.24365
-0.24841
-1.35148
-0.248683
2.37521
-2.12652
1.44006
-1.68533
-0.675791
-2.2386
2.9144
-0.287419
4.3014
-4.01398
1.28752
-3.56768
3.21975
-0.0832372
-3.70026
1.33714
2.857
-2.78036
-0.560939
-1.85447
-2.02075
-1.87775
0.756831
-0.242657
-0.274747
0.517404
5.94267
-2.86359
2.96695
-0.698225
-1.00702
-0.718649
1.72567
-4.66205
2.36254
2.29951
-0.402443
-0.197687
1.03891
-0.273908
0.748369
-0.40193
1.14167
-0.140139
-1.13443
0.107632
-0.633934
0.526302
-0.495444
3.61291
1.42209
-0.531308
-0.890782
3.47124
-4.45533
1.99482
2.46051
0.543882
1.29754
-1.84142
0.816632
1.00403
-1.82066
-2.2995
1.40166
1.32072
-0.26464
1.42672
3.52018
-3.89884
1.82711
-0.807967
-1.3859
2.64605
-3.47563
2.47914
0.996492
1.70223
-5.50781
3.80558
-2.59104
2.95752
-0.366484
1.25178
-1.67563
0.0512603
0.560881
1.08164
2.73458
-6.68805
2.42831
-6.74524
4.03238
2.71286
0.851585
-3.19005
2.33927
0.0412544
-2.48847
0.48257
1.5128
4.15043
-1.5096
-2.64084
-0.361894
0.987506
-2.56283
0.764371
-3.50973
3.36832
-2.534
0.726385
1.77697
-2.1817
0.423507
1.75819
-4.02509
2.20229
1.8228
-1.56077
-0.788222
1.26802
-3.99431
2.86004
1.13427
3.28089
-5.06368
-4.32662
0.0245627
5.70556
-2.2096
1.20655
-1.07717
-0.129385
-0.116069
-0.696272
0.812341
0.482771
1.52739
2.01753
-0.449706
-1.73199
0.459279
1.07452
0.651947
1.60231
-2.25426
1.71894
-0.976364
-0.112133
-3.74546
3.85759
-1.36518
0.922642
-2.67272
-2.66023
-1.87824
4.53848
1.03965
-1.50567
-2.8821
0.893099
1.989
-0.0659621
0.293593
-0.22763
4.40558
-5.33385
-0.945389
-0.0890662
4.4767
-0.0575326
-4.41916
0.0723546
0.441566
-3.38333
1.00846
2.37487
-2.58803
3.01463
2.41578
-4.62023
-1.51583
-0.237131
-0.0410649
-0.0248972
-0.146187
3.25285
-2.25088
3.06452
-0.813639
3.12379
0.0129976
-3.13678
-1.87374
-0.0660052
-0.860895
0.169156
3.21868
0.610386
0.142223
1.55461
-0.377918
-0.519773
1.97744
2.02557
-0.807377
-3.68797
-0.271329
-3.09178
0.769702
-3.68521
0.778478
0.827597
-1.60608
3.78088
0.151819
-3.9327
-0.528072
0.49548
-1.46034
-2.83853
-2.95921
-0.600487
-1.50095
5.37792
-1.34667
1.99774
-0.651067
-4.25335
1.30516
-1.32396
1.97591
-1.79652
-1.67696
-2.2572
-0.863137
1.07944
1.81049
-1.07289
4.33937
-0.605434
2.09898
0.951303
-3.05028
0.392634
1.84695
1.18091
3.91113
-3.6159
-0.294653
-0.949864
1.45418
-1.79365
2.18467
-1.98648
-3.64578
0.98265
0.733388
-1.71604
-3.4407
0.0528564
-0.660753
3.11695
-2.4562
-0.128361
-4.91802
-2.37941
2.89683
5.47893
-2.66182
-2.8171
-0.237129
0.8589
2.67061
-0.897977
-1.77263
1.15719
-1.28981
0.334148
-0.351333
-0.428749
-0.188217
0.616966
-0.417424
1.50828
-1.93549
5.21638
0.00120476
-0.781419
-1.11032
-0.483134
1.59345
-0.255718
4.66129
-0.798658
0.233283
0.565375
-1.58025
2.39532
1.37735
1.64207
-2.0179
-0.224351
2.29783
-0.892362
-1.40547
-0.11694
-0.00753123
0.124471
0.518296
-2.66779
2.14949
-3.60982
0.650614
0.950685
-2.91129
3.681
-0.0525302
1.20972
0.665566
-2.01224
-3.2649
1.70407
-3.7816
1.10146
-1.9569
0.382106
-1.23013
-2.26951
3.49964
-3.47031
-0.0221378
-0.0770301
0.0991679
3.54359
-2.90889
2.90179
-1.61268
0.315233
2.17459
-2.48982
0.389069
-1.17564
-1.9726
-1.53593
3.50854
-2.2057
0.920245
1.28546
-3.05539
4.65191
-1.59652
2.70784
-2.42118
-0.286658
2.7089
0.117445
-2.82635
-1.83014
-2.62519
-1.23571
-0.300415
2.00756
2.61616
-0.0402913
0.489488
-0.449196
-2.65444
-0.728888
2.38447
2.10611
-2.13604
2.69562
-0.559571
0.295604
-0.325293
0.542063
0.779862
-1.32192
0.710032
0.712057
-0.376172
-3.61814
-4.16479
1.10428
0.0302644
1.4053
0.398799
0.360414
2.69383
-3.05424
-1.94835
-0.210567
1.67904
2.16591
0.302034
-1.16756
-0.155687
0.103961
0.0517264
0.0285126
-1.4219
1.39339
0.00754145
-0.729003
1.83777
3.4307
-1.67067
2.83951
-1.91687
-0.532125
-1.06307
1.5952
2.80466
0.544814
-0.138838
-2.78351
1.93286
3.54246
-3.79818
-1.62832
-2.9469
4.57522
-2.15319
-2.50886
-4.00987
4.02491
-0.0150374
-0.481688
-1.05202
0.640572
2.21218
1.21852
1.47007
-0.790071
-0.679999
-1.11317
-2.18573
-1.28648
-2.05076
3.33724
1.92995
0.229153
-0.075782
-0.637821
2.16897
-3.62931
1.46128
-1.34983
-2.0243
3.20522
-1.18092
1.51256
1.44249
1.5179
-2.96039
4.04987
-2.13617
-1.9137
-2.37797
-1.99237
3.38024
-1.38787
-0.586552
2.68553
-1.26114
1.20861
1.62654
3.02251
-0.950544
0.834475
0.113727
-0.111994
3.59293
-2.02517
2.3363
3.60637
-1.76103
0.992575
0.768455
0.782537
-1.33484
2.70165
-0.0133086
-0.0361203
1.24267
-2.3219
-0.395267
2.71717
0.818776
-0.0708005
-0.747975
0.761146
0.154526
0.506341
-3.94425
-1.23563
1.45392
2.44912
-2.34818
-0.10094
0.756534
1.5413
-0.692289
0.324728
1.22729
0.84946
-2.07675
-1.37397
4.43159
0.490445
-1.70252
3.61467
-1.91214
-0.699448
1.17129
-0.518979
0.691278
4.08029
-2.10569
-1.37802
-1.00994
1.82658
1.33411
-1.58252
-0.80281
0.71448
-1.14491
-0.664389
-0.0423181
-0.967387
-0.762384
3.07434
-2.31195
0.514553
-0.55947
-0.893283
0.430856
-1.44438
0.208677
-4.8
2.7606
1.11702
0.873165
2.11607
0.331443
-2.44752
0.483984
0.467266
2.73523
1.73885
-4.47408
-0.545281
-0.0478008
0.593082
1.36276
-2.91879
3.85961
1.61932
2.92756
-2.56715
-3.42863
0.143716
0.217208
-1.83338
1.64421
1.11155
1.5878
-2.69935
1.74426
-0.304201
-0.0903013
-1.27254
-0.488492
-2.10181
-1.19631
1.40846
2.34359
1.14781
1.97812
-1.90429
-0.073833
0.838824
0.0211767
-0.275662
1.08344
-0.137119
2.89965
0.705653
-3.6053
0.924446
-0.816814
-0.989864
0.614372
0.375491
-1.45643
-0.0625004
1.51893
0.0501483
2.42263
-2.47278
0.850212
1.39185
2.46951
-0.0773497
-1.13616
-0.95129
0.573372
-0.550265
1.11014
-0.559878
-4.6231
1.5057
3.17024
-2.41268
-0.757558
0.0679181
-0.66573
0.597812
3.09077
-3.29357
1.14544
0.784513
1.82986
1.07193
-0.646065
-0.0183239
-0.748751
0.556422
0.192329
-1.73983
-0.57386
3.99742
-2.05405
-1.94336
0.369137
0.271448
-0.640585
1.81211
-2.84561
1.0335
0.33185
2.01691
0.231416
1.54565
1.5125
-3.05815
-0.236673
-0.512078
-2.43643
-1.29387
0.762565
3.32898
-0.00102404
-3.32796
-4.10125
-0.0347284
0.137261
0.686638
-0.128195
1.37734
-1.12081
-2.64527
2.14229
0.0166648
0.261674
-0.184645
0.476265
-1.62173
1.93696
0.0327871
1.14702
0.072219
-0.251564
2.38542
-0.0303442
2.00846
-0.921248
-0.585573
-0.843641
2.07093
-0.302814
3.18986
-2.88705
-2.89646
-0.500281
-1.5445
5.16143
-3.61692
-0.835319
-0.458554
1.35175
-0.236125
-0.0634144
-1.05021
1.11362
-3.17008
1.06439
0.653379
-0.630156
3.02251
-5.59761
2.37702
-5.02887
-0.835312
2.88194
-1.79223
2.11996
-1.2705
0.0402005
-1.98206
2.50036
0.000557475
-0.671634
0.195314
-1.68863
-0.58247
-2.14199
2.72446
1.57984
4.08822
5.68382
-3.68737
-1.99645
-0.8951
0.405673
0.999075
0.0828736
-1.08195
-3.02422
0.77334
0.894219
-0.0383598
-0.0268966
-0.586386
0.613282
3.49136
-5.03587
0.388715
1.66414
0.324992
-1.98913
-3.60757
3.30475
0.647864
0.160284
-0.808148
1.79431
-4.24798
-0.638291
0.00456798
0.633723
0.843455
-0.195591
-0.00808165
2.78408
-1.88711
2.1013
2.06209
-1.21188
-3.84951
1.18928
-2.34397
2.1406
0.203373
2.76751
-4.39583
-2.02734
-1.1052
3.13254
-0.133403
1.78174
-1.24092
1.13087
3.82792
-0.587169
-3.24075
0.00524792
-3.69322
2.48362
0.225276
1.77983
0.890777
-0.696631
0.00202878
0.67844
-0.910306
-1.54723
0.209627
-0.374488
0.164862
0.0219654
-2.95174
2.92977
-0.496875
1.54297
-1.04609
2.48044
-5.0406
2.56016
-0.0537795
-2.02179
-0.104188
0.00144726
2.3731
-1.41891
-0.736657
2.15557
-1.53002
-1.17949
1.82599
-1.09261
0.163203
-0.692539
0.529336
3.48434
-1.36827
-3.25909
-0.343422
-0.406735
0.750157
1.15522
0.525328
-1.68055
1.02725
-2.94521
1.91796
0.428371
-2.17159
0.627678
-4.21801
-2.22807
-2.33106
4.55914
-3.36361
0.123656
3.23996
-3.73431
-2.87841
0.287379
-1.29345
1.27703
0.0164163
-5.23198
-1.15993
4.05958
1.60363
-0.741282
0.473933
-1.31757
-0.566449
1.9583
0.654407
0.493134
-1.60345
0.0734146
-0.681787
0.608373
-0.466763
-0.13314
-0.481543
0.549461
-1.36788
1.91176
-4.32342
2.40062
1.92281
2.79212
0.261711
1.56595
0.894856
-0.0760801
1.11666
0.353408
-1.85854
-1.02356
-2.17272
0.681962
1.49076
0.0805871
-0.351452
0.270865
-1.85688
1.8854
-0.44846
2.80429
-0.406434
-0.392223
1.59786
-3.12788
1.58063
-1.79532
0.214694
0.566966
-0.0636251
0.249034
0.0191098
-3.4829
2.25278
-0.60293
0.972067
0.0513831
-0.836893
0.78551
-5.34698
2.00353
-1.54724
1.67025
-0.789938
-0.069529
-0.910672
0.980201
-2.23449
0.815576
-3.79525
3.41908
5.35468
-0.877985
-1.10851
1.03201
0.0764977
-0.425442
0.0672737
-0.665187
-3.43231
1.86287
1.56944
-0.660327
0.612527
-0.215951
1.52936
-1.3134
1.70125
-0.555813
0.067333
-0.378767
0.311434
-1.17442
1.20721
-0.160186
0.442097
2.10466
-4.11043
3.59991
0.229636
-2.69961
0.554182
3.29868
-0.167811
-3.13087
-0.0849167
1.45521
-1.37029
1.54594
-3.30787
2.47219
-3.97739
1.5052
0.101634
-0.19436
0.0927258
-3.93871
4.05588
-0.117168
-1.74185
1.06606
2.60734
-0.022674
4.56539
-1.93179
-2.6336
-0.270959
-0.943904
1.21486
-0.518259
-1.31784
-0.0430411
-1.24942
-0.0684211
0.411688
-1.17733
0.765641
-0.370375
3.37283
-3.00246
-2.88434
0.684694
2.19965
0.954147
2.96324
0.0528715
0.362298
-0.415169
2.17393
0.940364
-3.1143
0.279643
-0.5223
-1.28785
2.92462
-1.63677
-2.71765
0.395747
2.19514
0.982174
-3.00951
-0.00876449
-0.517896
0.52666
3.89066
-1.46019
-2.43048
1.91683
0.942967
-3.49151
1.86937
3.38192
-3.49405
-1.76361
0.147905
1.61571
-0.15728
-0.234613
-0.0092363
0.24385
0.382897
0.0152381
-0.398135
-0.0399627
0.579094
-0.539132
-1.20224
1.18888
0.0133646
-2.13385
4.30282
-1.2302
1.14397
1.03368
-1.24963
1.29397
-2.1898
0.895834
-1.91741
-1.55822
0.16003
-0.0307869
-0.276861
0.0187376
0.258124
3.38222
-1.79961
-1.5826
0.153244
2.29587
-0.986455
-0.550826
-2.2817
0.463138
2.79007
-0.0667658
-2.72331
0.0461256
-0.165499
0.119374
-0.0395688
1.47139
0.465982
0.208009
-0.67399
4.84542
-3.08082
-1.7646
-5.20473
0.981471
0.113617
-1.60251
3.01571
-1.41319
0.308965
-3.05356
1.20254
-1.33018
0.253617
-0.00458362
-2.40378
3.46308
-1.05929
0.651048
0.0973212
-0.672006
-0.87428
-0.977106
0.97831
-0.0733944
-0.127863
-0.927527
4.01286
-3.08533
2.31676
-1.84367
-0.473089
-1.16104
1.16858
1.02005
0.205695
-0.981682
0.799151
-0.401994
-1.24295
2.0503
-2.4653
-2.2849
3.83055
-0.0651462
0.108295
0.578782
0.264673
0.0698802
0.0317536
2.98876
-3.12498
0.136217
3.80022
-1.70401
0.962216
0.741795
0.479944
-1.42981
-1.97122
-3.27178
-0.999583
0.928782
-0.671996
-1.11105
1.78305
-3.0219
0.769061
0.70678
0.847439
-1.55422
-1.37645
-0.829252
-0.455997
-1.82968
4.47602
0.531
-3.293
0.841795
-2.09336
1.25156
-1.10698
1.40902
-2.22432
-3.12266
-0.0735565
-0.250839
2.046
-3.0861
1.45521
1.63089
-0.127842
-1.28291
0.168682
-1.48719
1.31851
-3.72835
-2.22612
-0.686285
0.690853
2.9051
1.85923
1.26342
1.74193
-2.05703
-1.53457
3.20949
-0.231945
-2.97754
-0.52757
1.55033
2.93406
-2.52609
-0.407978
1.24351
0.756649
-2.00016
-1.54786
2.26773
-0.71987
-5.34121