/*--------------------------------*- C++ -*----------------------------------*\
| =========                 |                                                 |
| \\      /  F ield         | OpenFOAM: The Open Source CFD Toolbox           |
|  \\    /   O peration     | Version:  2306                                  |
|   \\  /    A nd           | Website:  www.openfoam.com                      |
|    \\/     M anipulation  |                                                 |
\*---------------------------------------------------------------------------*/
FoamFile
{
    version     2.0;
    format      ascii;
    arch        "LSB;label=32;scalar=64";
    class       volVectorField;
    location    "3";
    object      U;
}
// * * * * * * * * * * * * * * * * * * * * * * * * * * * * * * * * * * * * * //

dimensions      [0 1 -1 0 0 0 0];

internalField   nonuniform List<vector> 
13486
(
(6.84707 -1.61384 1.1578e-20)
(7.09996 0.0493175 6.84538e-21)
(9.97868 -0.135551 0)
(11.3231 -5.06789 -9.00466e-20)
(11.429 -0.932896 -9.12979e-21)
(9.04102 0.66141 -1.66146e-21)
(12.6818 1.74106 6.15596e-23)
(9.68426 -3.11976 1.79688e-21)
(8.95834 -1.63527 0)
(7.34847 1.50854 0)
(-3.27094 1.50996 -1.19915e-20)
(8.57102 0.0203923 0)
(6.36734 -2.33573 -1.12394e-20)
(8.33497 2.07225 -2.87156e-21)
(10.9469 0.975303 -5.08192e-21)
(7.28767 1.52716 -6.93754e-21)
(6.8311 -3.08167 1.06333e-20)
(0.985428 8.44837 -2.21228e-20)
(8.02289 0.0606128 6.50259e-23)
(7.32124 -0.950153 -1.20051e-20)
(12.119 -3.4758 -4.77197e-20)
(6.4308 -2.38517 1.44799e-20)
(7.15055 0.0241032 -5.4836e-21)
(11.1927 -3.63925 0)
(7.693 1.24063 2.43906e-21)
(11.7702 -2.85818 -2.88434e-21)
(3.17435 -1.06146 1.08543e-20)
(11.935 0.0566312 8.5411e-21)
(6.16699 2.07106 0)
(12.3367 -0.0211135 -6.50028e-21)
(10.1493 4.58267 -4.81998e-20)
(9.10831 2.01943 1.73497e-21)
(13.6719 1.40738 1.15268e-20)
(11.5928 -0.369981 0)
(9.7403 -2.9609 0)
(6.28445 0.0913449 7.34938e-23)
(7.04323 -0.775628 -2.63795e-22)
(7.59148 -3.47402 3.55831e-21)
(8.48463 -2.06143 -5.29509e-22)
(8.81436 -1.00793 3.58944e-21)
(13.9754 -3.24099 0)
(5.98209 -2.89815 -1.36949e-20)
(9.78036 0.206262 0)
(7.76851 1.02875 -1.13211e-20)
(7.77795 1.05784 4.63055e-21)
(8.51353 0.01591 3.53545e-21)
(-2.31589 1.77864 1.38991e-20)
(5.87947 1.49292 2.63642e-22)
(7.02861 -0.732177 2.04281e-22)
(10.9884 0.557797 9.29414e-22)
(7.98399 0.00524469 8.61761e-21)
(8.97654 -0.887169 0)
(7.44289 0.245786 -7.90411e-21)
(7.81447 -2.8359 -5.63253e-21)
(-0.425524 9.45894 0)
(11.1214 -1.19242 4.54994e-21)
(7.36388 -0.730006 7.02469e-23)
(9.06643 -1.33464 -2.22238e-21)
(13.3808 1.26594 1.13669e-20)
(7.03779 -0.986673 0)
(-3.93061 0.130112 -1.49901e-20)
(7.25898 -1.05985 0)
(5.82251 5.38427 -2.38085e-21)
(12.3991 -3.4996 -5.65167e-22)
(-5.63962 3.50435 0)
(7.06999 -0.836217 -1.15465e-22)
(9.88793 -5.33541 -7.967e-20)
(6.61949 -0.790327 4.36238e-21)
(8.9562 -1.73752 -1.41368e-21)
(6.59192 0.0651533 2.19541e-22)
(11.0978 -5.41822 9.19953e-20)
(0.394362 10.576 -1.88625e-21)
(8.54237 -0.636301 3.36773e-21)
(-1.8743 -2.70689 -6.37003e-21)
(7.08544 -0.941897 -2.21795e-23)
(7.14987 -0.705811 -5.27408e-23)
(7.02449 -0.910554 7.99975e-23)
(11.1067 0.991712 2.17232e-21)
(-2.48391 2.81902 -9.09411e-21)
(13.1606 -9.04979 0)
(6.63067 0.162148 -1.68141e-24)
(6.84067 0.24969 -4.54342e-22)
(4.9036 5.60203 2.37187e-21)
(9.9829 -0.258734 -7.60147e-22)
(6.85067 -1.62962 -2.24942e-20)
(5.60336 3.27272 0)
(5.5445 -4.28078 -1.24431e-22)
(8.01901 0.0543483 -1.37383e-20)
(7.65621 0.0203858 -5.74415e-21)
(6.72738 2.0824 -9.25344e-21)
(7.75205 2.08035 -1.12163e-21)
(10.3699 -2.32916 2.18996e-21)
(7.13285 -1.93266 2.73981e-21)
(7.27196 -0.512498 3.3643e-22)
(8.79848 -2.5524 5.11409e-22)
(6.17526 0.987566 -5.29493e-23)
(3.039 -1.32041 0)
(8.85484 -5.96975 3.90464e-20)
(8.80669 -0.959747 -6.92843e-21)
(5.55568 -2.49849 1.24369e-22)
(6.81433 0.0700863 0)
(8.3208 2.05643 -1.15038e-21)
(8.27448 -7.23224 1.18656e-21)
(8.93489 -1.1582 2.57484e-21)
(5.20983 2.92929 0)
(4.91202 -2.36826 9.06284e-23)
(8.05096 -0.171926 -1.3736e-23)
(8.54386 -2.4534 -1.31172e-21)
(-2.78741 2.84616 1.14944e-20)
(10.0931 -4.42176 0)
(8.27585 -3.80758 0)
(10.2291 3.08202 8.65281e-21)
(7.86749 -2.77106 1.49988e-22)
(9.82336 0.0413863 -2.18421e-23)
(5.58169 -1.28612 0)
(8.16682 -3.80464 -6.38561e-22)
(7.60486 1.3201 0)
(12.0314 -0.415398 0)
(8.54061 -0.61127 0)
(7.0046 -0.660422 -1.74866e-22)
(1.23586 6.85466 9.09945e-21)
(-3.33784 0.444064 0)
(8.59883 -2.34868 0)
(8.57308 -2.10538 1.79437e-21)
(9.09597 -2.98284 0)
(9.03914 -0.870904 0)
(9.66709 -0.421257 1.63345e-23)
(8.30321 0.226125 5.84432e-21)
(11.4544 -0.501958 -1.19423e-21)
(-2.67195 5.74595 -5.40733e-21)
(8.75087 -0.734365 -2.58176e-22)
(-2.46012 2.43457 -3.41617e-21)
(3.26952 -2.6672 5.52996e-21)
(-2.20299 -0.0929989 9.07193e-21)
(7.9974 -0.00273343 -1.36291e-21)
(7.45927 0.646709 -7.79779e-21)
(4.05173 0.744134 -4.58988e-21)
(10.0664 -4.2469 0)
(6.95306 -0.590981 6.65144e-23)
(9.65873 -2.33205 1.0505e-22)
(12.2212 1.63133 -7.1302e-21)
(7.54733 0.372993 6.82233e-21)
(8.38931 1.13135 0)
(12.7814 -7.98776 0)
(10.5617 0.144395 1.52633e-22)
(3.80249 8.881 -4.58105e-20)
(5.65961 -2.34196 -1.82223e-21)
(1.74067 1.67895 0)
(11.1315 0.821302 0)
(6.49509 2.19699 0)
(7.97916 -0.000970168 1.76368e-22)
(11.7431 0.464912 0)
(6.74717 0.129478 1.75972e-24)
(6.79959 0.233375 -3.9024e-21)
(8.17811 0.795698 0)
(10.4149 -0.208076 0)
(10.3185 -4.37022 0)
(8.1067 3.86828 4.10659e-20)
(8.33735 -3.16896 5.21147e-21)
(6.73736 -1.39808 9.88538e-22)
(9.77846 0.30452 -7.1905e-22)
(8.37566 -3.10996 -7.59187e-21)
(7.27415 3.938 -4.1748e-22)
(5.31084 -2.71379 5.84666e-21)
(9.22035 -1.04321 0)
(8.57551 2.19646 2.65293e-21)
(8.224 1.84653 7.67361e-21)
(3.6624 -1.6894 -1.7806e-20)
(5.55968 -2.43158 4.405e-21)
(-2.16052 -0.517631 2.32359e-21)
(1.77196 -4.22986 -7.47237e-22)
(8.14828 0.695488 4.52814e-21)
(8.02829 0.085954 -1.26494e-20)
(9.654 0.330491 -1.85873e-23)
(6.5704 0.349831 -2.57103e-23)
(-3.13661 -8.1443 0)
(8.06855 2.73941 -5.48981e-21)
(12.4189 2.50008 9.5015e-21)
(8.0545 -0.180865 -1.21358e-20)
(8.37855 0.981844 0)
(9.08788 -1.10088 5.35728e-21)
(9.87669 0.00684356 -5.43164e-23)
(9.35751 0.709288 5.80387e-23)
(4.67371 -2.66445 0)
(9.31465 -0.686312 2.17741e-21)
(11.3447 0.053841 -3.8658e-21)
(8.7767 2.65244 4.63605e-22)
(12.1525 -0.15506 -2.10578e-21)
(13.8297 -3.11863 0)
(7.46936 -3.56202 -2.18642e-21)
(6.97859 -0.740853 0)
(10.4073 -0.0396661 0)
(9.41104 -1.89317 0)
(5.88346 1.33448 -9.2375e-21)
(9.79103 -2.11423 0)
(-2.72665 1.5004 -3.15836e-21)
(-4.45603 6.47881 8.50691e-21)
(9.92078 0.21383 -2.11008e-22)
(6.81063 -3.29702 -2.03097e-21)
(8.57223 2.11032 2.19672e-21)
(9.25613 5.0935 5.28623e-20)
(8.33564 0.294222 -1.8456e-22)
(7.52264 -3.5376 -4.1234e-21)
(12.1176 -4.68044 -6.2963e-21)
(6.62213 -1.26964 -1.16374e-21)
(9.94228 -2.04142 -2.69165e-21)
(3.1132 11.5983 -2.18977e-20)
(8.20985 -0.530385 8.22935e-21)
(9.3318 -1.88581 0)
(9.51364 -0.638442 0)
(11.981 -0.0558777 6.61476e-21)
(8.60257 -0.562472 -4.68097e-21)
(7.38931 -0.853513 1.10222e-20)
(7.95187 -0.138973 -2.45117e-23)
(9.08959 0.771975 1.91603e-21)
(17.4208 -0.755339 7.06801e-21)
(12.2132 -0.0312992 0)
(6.70405 1.97236 2.1271e-20)
(7.49422 -1.94401 0)
(9.00577 3.12373 0)
(5.71281 -2.84906 -1.99781e-20)
(10.8554 0.93735 0)
(9.57925 -2.36195 -4.8636e-22)
(10.8201 0.367352 0)
(6.79195 -0.215585 -1.80102e-21)
(6.55662 -3.07673 3.69629e-21)
(9.21669 1.46273 1.69041e-22)
(-0.815831 -0.882289 3.151e-20)
(13.9864 -2.90753 1.88801e-21)
(5.91971 -4.05424 -4.25828e-22)
(9.08977 -1.02287 -1.77019e-21)
(17.2365 1.10799 6.15279e-20)
(12.4695 1.6122 8.81074e-21)
(5.90638 -2.86761 4.78373e-21)
(9.5452 -6.59111 0)
(6.26438 -3.02957 4.05032e-22)
(12.1136 -0.304098 4.11674e-21)
(10.3946 -0.0629219 -3.59597e-22)
(6.3946 -3.03929 1.13853e-20)
(9.13777 0.371826 0)
(14.1564 0.603938 0)
(7.99603 0.0873571 1.95274e-20)
(10.847 -0.0509332 0)
(6.14581 -3.0162 3.43749e-21)
(7.95767 -2.30958 -9.4827e-22)
(7.71265 -0.409651 0)
(9.19301 0.13901 -5.68396e-22)
(11.6959 -0.533846 7.96664e-21)
(0.556871 -1.72723 1.07421e-20)
(7.70724 0.930428 0)
(3.73491 -5.03965 -1.04829e-20)
(5.48612 -1.20567 1.96298e-21)
(7.75226 -3.75454 1.17171e-22)
(8.67021 -2.47232 0)
(13.1657 -4.59608 6.8282e-21)
(-4.0523 -8.29468 6.2968e-21)
(9.12151 2.02721 -7.77287e-22)
(19.9649 -0.562657 -8.93149e-21)
(11.6658 4.32566 -4.29927e-20)
(14.0344 0.999561 1.01564e-20)
(7.38955 -0.0106762 0)
(7.9453 -2.30434 -3.08511e-23)
(10.9773 1.01077 1.13395e-20)
(-4.0292 -8.57869 -7.86268e-21)
(11.3241 -2.84006 9.17786e-21)
(4.45057 -2.8732 0)
(13.4517 -2.42337 -8.81527e-21)
(10.5701 2.05739 -6.66683e-20)
(8.78587 -0.0841611 -4.37138e-21)
(-0.975752 5.20384 0)
(6.4086 1.63863 7.52262e-21)
(8.00133 -0.137177 -3.45909e-21)
(12.2146 0.0505015 0)
(8.13189 -0.105638 3.88583e-21)
(6.79388 -3.20975 4.89191e-21)
(11.9979 -0.0315088 -4.38797e-21)
(12.3344 -4.28184 0)
(-3.4516 14.0378 0)
(8.80452 -2.77975 -1.82262e-21)
(5.69111 -2.14265 4.0595e-21)
(-3.91974 12.8 4.3918e-20)
(9.24264 -0.497401 -1.85866e-21)
(7.98332 -0.198034 7.38449e-21)
(3.2087 -3.90233 -3.00488e-20)
(-2.50821 -0.158621 1.67467e-20)
(5.2582 -1.09405 2.17732e-20)
(11.9117 2.03352 5.81894e-21)
(11.0133 -0.48068 1.57036e-21)
(7.85834 -0.259128 3.29174e-21)
(8.53528 -0.0829862 0)
(11.2078 -6.68989 0)
(7.06081 -1.37344 -1.1917e-22)
(8.02322 -3.70446 1.66524e-21)
(7.98194 0.00106075 -1.32297e-21)
(11.9675 -0.367853 4.00788e-21)
(12.167 -0.242109 0)
(10.503 0.0228877 6.84246e-22)
(8.19309 -0.254427 -3.5073e-21)
(8.0039 -0.23494 -6.64039e-21)
(13.7063 0.142976 -1.85234e-20)
(7.14044 4.01878 6.98988e-22)
(3.02019 12.531 2.80745e-21)
(6.05644 -2.38805 -3.45936e-21)
(9.38799 1.89946 -1.30073e-21)
(7.10834 -0.6133 6.58168e-23)
(10.357 -4.92416 0)
(12.2586 0.295942 0)
(8.31929 0.0871949 1.01856e-21)
(5.97586 -4.69333 5.19175e-22)
(6.9908 -0.75981 0)
(7.34048 4.88282 -1.15633e-20)
(9.77388 -4.71328 0)
(7.8247 2.6061 3.57089e-21)
(9.91346 3.01919 7.22583e-21)
(-7.43311 2.88392 0)
(7.45882 0.541577 -4.92405e-21)
(7.34133 -1.37939 1.88664e-22)
(7.59344 -0.00175939 -4.89804e-22)
(8.11852 -0.542542 -9.3303e-21)
(13.3797 -2.1834 0)
(6.97657 -0.809934 2.02749e-22)
(7.47273 -1.50968 4.7008e-23)
(8.09597 -0.0995367 1.54254e-21)
(7.22018 -0.393863 -6.49255e-21)
(4.39882 0.360341 8.36288e-21)
(8.12843 2.14951 2.91331e-21)
(10.2854 -0.554776 6.84618e-21)
(9.27868 -0.476875 0)
(8.59988 -0.803878 -5.89748e-23)
(10.4426 -0.387846 2.48456e-21)
(7.97426 -0.0259596 1.98392e-20)
(10.4707 -2.2934 0)
(7.30464 2.34331 -7.29212e-22)
(6.37804 0.148111 0)
(12.6163 1.97302 3.54406e-20)
(9.0502 -2.29282 -8.27629e-22)
(4.72192 -2.18476 6.32374e-21)
(11.7126 0.153713 1.0434e-20)
(7.97393 0.257007 0)
(7.75041 -2.19873 -1.10019e-21)
(13.5847 -2.2997 8.67113e-21)
(7.20229 -0.381193 6.1396e-21)
(10.587 -0.383552 -7.59281e-21)
(9.37326 0.767073 2.75884e-22)
(0.0800235 -1.39065 -1.54943e-20)
(6.0965 1.40886 -6.00345e-23)
(9.53641 -0.0751595 0)
(5.51138 -2.13501 1.44354e-20)
(9.21168 3.2238 0)
(7.28313 -1.48037 -4.4021e-23)
(9.2299 0.0217767 2.88031e-21)
(8.26744 -0.653163 -4.31018e-21)
(8.06003 -0.0925758 3.48816e-21)
(2.5329 -1.42706 -1.2285e-20)
(8.03062 -0.208291 8.24969e-21)
(6.77904 0.00554806 0)
(-2.21866 -3.92488 -6.35096e-21)
(9.65864 -0.346988 -2.93503e-22)
(6.62504 -4.36975 -9.09977e-22)
(9.34339 0.403626 -1.57327e-21)
(9.44219 0.0493339 0)
(7.55452 1.89611 3.98736e-21)
(7.55998 -0.205664 1.3618e-20)
(7.97972 -0.150388 1.05303e-20)
(12.2952 0.127689 0)
(6.83064 0.123326 -7.75005e-24)
(12.0833 -0.267221 -3.8664e-21)
(-1.48577 1.66145 1.69681e-21)
(7.28339 -0.935313 1.53687e-21)
(9.61754 -0.290836 2.79947e-22)
(10.3219 0.176112 9.66613e-23)
(9.49578 -0.118464 0)
(6.63422 -0.523544 -7.80836e-21)
(2.9121 -4.14131 7.88481e-21)
(8.69541 1.3118 -4.04085e-21)
(8.00523 -0.00292828 7.1404e-21)
(6.59765 0.0158983 0)
(7.3817 -1.7589 -3.59724e-22)
(-5.32285 2.20871 0)
(9.64107 2.57629 -1.67104e-21)
(8.83492 -0.105273 0)
(10.6374 -2.81407 -3.73539e-22)
(6.45385 -1.32864 -3.41036e-21)
(6.61129 1.37669 1.71352e-20)
(-1.74699 1.18532 -5.64753e-21)
(12.7314 -3.674 0)
(8.69032 0.183238 -5.8946e-21)
(7.95167 0.264061 -5.6022e-21)
(4.98786 -2.87091 -4.64759e-21)
(10.7724 2.43205 6.86217e-21)
(7.45301 -0.898843 -1.63576e-20)
(12.1902 0.0383559 2.92427e-21)
(7.99163 0.354027 4.55864e-21)
(7.0971 -2.39664 0)
(6.25107 -0.131715 7.7288e-21)
(6.84012 -0.646835 -2.04074e-22)
(10.0917 -5.20943 5.16392e-20)
(2.91298 -4.61141 -2.99733e-20)
(5.26684 -3.04768 -1.03382e-20)
(12.0515 2.05572 0)
(4.88891 -2.87466 0)
(7.1317 2.6268 0)
(9.0421 -0.265495 0)
(14.4695 -1.79483 -3.20408e-20)
(11.9463 2.1014 0)
(3.87932 -2.9574 0)
(7.35622 -0.424532 2.47483e-21)
(12.4425 2.50049 -9.76292e-21)
(9.44334 -0.193597 -1.6935e-21)
(7.12443 0.170573 2.42613e-20)
(8.00891 0.0660918 -2.79394e-21)
(7.33114 4.09811 0)
(12.1697 0.120026 0)
(7.94624 -0.235669 7.10521e-21)
(7.95061 0.019771 1.23946e-21)
(4.48312 1.07137 0)
(5.10546 -2.6588 1.81663e-20)
(11.2725 -2.88639 -1.02952e-20)
(-0.286485 -4.03365 0)
(9.16325 0.409291 1.66917e-21)
(8.10119 -0.134991 -8.1786e-21)
(9.94835 8.30269 1.27383e-20)
(5.48845 -2.10332 0)
(7.90245 0.28243 1.00085e-20)
(9.64394 1.10155 0)
(12.1336 -0.173912 0)
(8.3593 0.509102 -8.70212e-22)
(7.94958 -0.190282 3.94338e-21)
(3.54626 -1.19132 -1.42131e-20)
(8.20122 1.76247 2.50019e-21)
(6.58866 -2.05963 -5.49169e-21)
(8.93306 -0.238661 5.20153e-22)
(8.09666 0.407512 3.67399e-21)
(7.71629 -0.648596 2.07466e-20)
(11.7955 -2.46311 0)
(12.3954 -0.600151 5.36273e-21)
(6.43049 -1.13575 0)
(7.23569 -1.4939 -4.66954e-23)
(9.64956 0.227251 0)
(6.67911 -0.756176 9.35825e-21)
(-0.0429761 -1.27377 -1.36321e-20)
(12.1859 0.0277972 0)
(-1.29611 0.951738 5.49515e-22)
(12.1914 0.05503 -6.56456e-21)
(6.26554 -2.47339 1.13597e-21)
(8.20651 -1.4158 1.18089e-20)
(6.06779 1.20936 -1.06798e-20)
(6.55432 -2.0399 -1.61026e-20)
(9.3432 2.73738 0)
(7.00812 -0.663363 1.64097e-22)
(-0.399445 -1.48124 -3.55899e-20)
(7.92043 0.265039 0)
(7.58443 0.0218456 5.36626e-22)
(10.2658 0.361704 -2.41668e-22)
(8.58754 3.02445 0)
(7.99863 -0.0178583 0)
(6.23118 -3.90249 0)
(-2.9866 -6.33255 3.21288e-20)
(5.46368 -4.39898 3.55877e-20)
(6.01626 8.87254 6.53829e-22)
(7.78716 2.47885 0)
(7.80716 -1.19725 9.40843e-21)
(6.54288 0.320097 6.18143e-23)
(8.22284 1.63693 -5.99096e-21)
(12.048 -4.6097 8.74346e-20)
(7.75737 -0.0503976 0)
(5.97048 1.67149 0)
(4.70268 -1.57081 -1.0553e-20)
(6.99014 -2.39064 -3.60636e-21)
(8.70555 -0.796411 0)
(9.23139 -4.22725 2.98299e-21)
(7.03751 0.0611613 -1.79326e-23)
(6.41347 0.943739 6.5063e-23)
(5.07564 -2.30956 0)
(10.1041 -1.41058 2.27397e-21)
(6.94956 -0.585434 1.78244e-22)
(9.68398 1.08183 -2.19335e-21)
(9.02855 -2.41836 0)
(5.23667 -1.392 -3.3212e-20)
(8.24155 -0.44887 3.83034e-21)
(7.98344 0.117385 1.9439e-21)
(6.6566 -0.0449007 1.04863e-22)
(8.72413 2.25535 0)
(7.09979 0.16211 -6.44831e-21)
(9.72015 3.48752 -2.24333e-22)
(5.59783 -3.07349 2.2605e-21)
(7.93942 0.041606 0)
(10.737 2.71734 -7.04178e-21)
(3.73868 -1.48562 0)
(8.02817 0.0527289 -7.85834e-21)
(7.96784 -0.0042361 2.88575e-21)
(7.9728 -0.349805 -1.38232e-21)
(-0.516471 -8.05918 0)
(9.81391 -0.153796 -1.43618e-21)
(5.38736 0.117396 2.17061e-20)
(11.6625 -2.64921 0)
(7.29684 -0.493617 7.53042e-21)
(13.4256 -0.238018 2.13342e-20)
(8.61476 0.0230944 0)
(9.95177 0.590265 3.38632e-20)
(11.9043 -7.81496 -1.99975e-20)
(10.4246 0.202534 0)
(3.82454 -1.54908 2.15819e-20)
(7.52306 -0.0112443 0)
(8.63265 -3.82329 6.90786e-22)
(3.32036 -5.29253 1.76346e-20)
(8.64162 3.1066 -4.80752e-22)
(9.16248 0.636989 3.05084e-21)
(6.26238 -0.178602 4.00831e-21)
(8.14347 -1.48905 -4.23392e-21)
(12.1335 -3.4746 -4.19187e-21)
(8.63477 -3.68787 1.5203e-22)
(9.57201 -0.36673 5.03316e-22)
(8.68408 2.29281 -4.77452e-21)
(10.7458 -4.50583 0)
(8.00602 -0.0156473 -6.3333e-21)
(0.535053 -4.70757 -1.26524e-21)
(6.5289 -1.15193 0)
(6.77605 -0.872619 -9.89466e-23)
(6.57208 0.0416386 0)
(6.17081 -2.12817 1.43478e-20)
(10.4583 -3.31422 0)
(6.71791 0.0527837 -1.51019e-22)
(9.38195 -0.0205746 -1.68882e-21)
(7.48732 0.797291 6.70022e-20)
(7.04907 -4.47168 3.6631e-20)
(9.3479 0.139939 -2.77352e-23)
(9.95124 -4.60997 -7.98515e-21)
(8.54565 -2.36552 2.87892e-21)
(7.13367 -1.92966 0)
(2.84323 -2.07781 -7.92492e-21)
(11.957 -2.28627 1.90871e-21)
(2.90447 -2.16766 -9.18291e-21)
(6.1252 1.12163 -4.5092e-23)
(7.07878 -2.78662 0)
(8.68028 0.0056114 -6.27304e-23)
(5.13103 -2.85961 0)
(8.20734 -6.63947 8.35546e-22)
(9.3844 7.52519 -1.74094e-20)
(15.2446 6.07971 0)
(9.92235 -1.9548 -3.42714e-22)
(-4.80594 3.73738 0)
(8.5611 2.97157 0)
(8.35538 -3.8769 -9.52629e-22)
(6.49667 0.0186042 6.33087e-21)
(6.44355 -9.14731 0)
(7.54083 -0.138599 -3.84334e-21)
(4.72746 9.02034 4.50654e-20)
(1.69138 -3.69003 3.07712e-20)
(8.58103 3.73119 0)
(8.36904 -0.0364714 0)
(-0.480868 -1.23442 -1.43697e-20)
(8.27312 -0.727113 0)
(9.57713 -0.312002 0)
(-4.10042 -0.312318 -5.87943e-22)
(9.5797 -1.30115 -9.83125e-22)
(8.29544 -2.00737 3.00877e-21)
(14.5525 0.219655 1.51749e-21)
(3.24868 -2.21006 1.76199e-20)
(7.96393 -0.014037 3.26376e-21)
(7.30553 -1.99273 0)
(8.01834 1.148 -2.19729e-21)
(6.80113 -1.53477 0)
(9.10841 -0.106485 0)
(7.9437 0.146495 0)
(8.35127 0.479595 -7.09646e-22)
(8.16242 -0.567373 4.2863e-21)
(10.9132 0.00128843 5.27576e-23)
(7.48412 -2.0087 0)
(2.61401 -1.23537 -1.02057e-20)
(7.14608 2.48752 5.19139e-21)
(9.08999 -3.00108 3.26908e-23)
(11.1932 -0.878409 -2.6707e-21)
(11.7305 -0.132913 6.11442e-21)
(8.24391 0.0407745 -4.62465e-21)
(-0.06379 -1.1921 0)
(8.25281 -0.239559 0)
(5.52782 1.26384 0)
(6.27512 -2.87966 -9.74342e-21)
(-3.80054 8.9883 -5.27214e-20)
(14.1113 5.74342 0)
(8.05998 1.1685 0)
(7.13137 0.286066 6.69142e-21)
(8.30351 -0.0317416 -8.56311e-22)
(7.27564 1.20155 9.24008e-21)
(12.6988 -4.77346 0)
(0.970867 -0.209227 -3.55723e-21)
(8.81026 0.219435 3.39085e-21)
(6.84242 -2.28144 -8.80406e-21)
(8.39386 0.238668 -4.6764e-21)
(8.17416 1.65615 7.56736e-21)
(-0.932326 -3.36369 4.082e-21)
(6.18295 -2.84131 1.69411e-20)
(7.25549 8.33757 1.66074e-20)
(10.2353 -0.0564979 -2.48789e-23)
(8.01564 -0.00607245 -1.49384e-21)
(8.63847 -4.10614 1.5548e-21)
(11.6805 -6.81967 9.84461e-21)
(5.42517 4.25989 -6.22017e-21)
(8.94547 -4.11484 -9.52839e-22)
(8.67041 -0.828469 0)
(5.51325 -3.63774 -4.3905e-22)
(8.44615 -0.0312125 -9.33451e-21)
(9.06096 2.73159 -5.12183e-22)
(6.70955 -2.15719 -8.30632e-21)
(8.99673 -2.89814 -1.19713e-21)
(8.60681 0.0412053 5.66591e-21)
(11.1025 -0.102452 -3.2561e-21)
(3.06455 -0.577016 -6.98481e-21)
(11.7349 2.26694 -3.20671e-21)
(5.86947 -1.53887 -2.08697e-20)
(8.614 -0.0303915 -8.20908e-21)
(5.85365 -1.75772 0)
(3.06819 -0.949894 -1.32969e-19)
(9.06707 0.0207607 1.01345e-20)
(5.93595 0.0512911 9.45279e-24)
(-1.31878 -3.06282 0)
(9.95054 -4.31557 0)
(7.74547 0.867706 8.38937e-21)
(5.4798 -1.55479 1.32625e-20)
(-6.52617 -0.50306 -1.79461e-20)
(10.7207 -2.82344 3.46376e-21)
(10.3732 -0.497911 -3.9363e-21)
(9.01306 3.34936 0)
(7.71217 0.946648 4.84268e-21)
(2.25947 10.5602 -1.15324e-21)
(8.15136 2.74278 -4.8191e-21)
(8.97295 -1.05671 -3.68476e-21)
(3.05465 -2.31153 -2.89019e-20)
(12.0978 0.206701 -6.54434e-21)
(12.0315 -0.806031 3.33039e-21)
(7.55917 2.90784 0)
(13.0969 -0.988405 -3.24372e-21)
(8.01132 -0.335502 1.21149e-21)
(6.64533 0.237269 -2.07478e-23)
(5.32218 -2.6903 1.67393e-20)
(8.88027 -1.10198 5.61905e-21)
(6.65735 -1.22829 -4.04151e-22)
(2.56558 -3.9758 -1.8848e-20)
(11.5604 -0.0581505 -3.2778e-21)
(8.49824 0.076223 7.36725e-21)
(-2.43264 0.0831574 -2.08105e-21)
(7.99456 2.58195 1.00964e-20)
(4.68703 -2.00744 -2.34499e-20)
(6.51395 -3.11516 -4.37584e-21)
(6.76788 0.264247 0)
(7.88602 -0.509303 1.64588e-22)
(-2.61068 -3.43074 -8.67863e-21)
(6.42954 -1.4144 1.81083e-20)
(10.2487 1.64688 0)
(6.46098 3.67981 1.19381e-21)
(6.00972 -2.589 4.04847e-21)
(7.99489 0.0210484 -1.40523e-20)
(3.98375 -2.3818 -1.86996e-20)
(8.64541 -11.5447 -1.51647e-20)
(9.47459 -0.162575 1.11899e-21)
(8.55795 0.253509 8.90946e-21)
(8.77336 -3.88166 4.6802e-24)
(11.086 -0.060306 -7.29675e-23)
(-6.21774 6.31637 -1.09404e-19)
(8.46172 -0.0283241 8.75763e-21)
(8.86928 -0.221536 -2.32426e-21)
(8.23362 0.272484 -6.5761e-23)
(10.0987 0.0537728 -4.28416e-21)
(5.89416 -2.66094 -7.82641e-21)
(10.1462 -0.111084 0)
(-0.0874086 -8.2321 4.62353e-20)
(8.53977 0.040764 8.94457e-22)
(10.1062 7.39974 1.71162e-20)
(9.56598 0.242256 2.88862e-21)
(10.2084 -0.865535 1.50762e-21)
(8.00983 0.048668 -1.2286e-20)
(8.01187 0.682434 2.77845e-21)
(5.53779 -2.58699 -1.8672e-20)
(9.74933 -0.289647 0)
(7.58662 -1.81178 2.17965e-22)
(8.24911 -0.83647 4.41769e-21)
(7.10732 -2.73754 0)
(8.2078 0.186618 6.05625e-21)
(8.53405 -0.924247 5.41876e-21)
(9.71213 -0.255775 3.70759e-25)
(14.2142 -3.73966 1.66696e-20)
(10.192 -2.01318 0)
(7.26009 0.407488 1.25136e-20)
(6.8184 -1.13849 3.89733e-22)
(8.62885 -3.94787 -5.95276e-23)
(8.91286 -0.695222 0)
(6.47412 -0.0269754 -1.81702e-20)
(2.50265 6.24377 5.93275e-21)
(7.89498 3.7789 3.77416e-21)
(5.90947 -1.59053 2.03394e-20)
(10.5354 0.227778 -3.01311e-22)
(6.382 -4.06919 2.62135e-20)
(8.47761 -0.621174 -5.84425e-21)
(12.6002 -0.378364 -8.88054e-21)
(7.57241 -0.182459 -7.87832e-21)
(9.82729 0.211977 0)
(8.01918 -0.0237481 -5.59646e-21)
(2.9114 0.0258722 1.45473e-19)
(-3.02606 -1.12385 0)
(9.72402 -1.71428 0)
(6.6494 0.230029 0)
(5.86867 -3.09445 0)
(7.90039 0.574477 0)
(5.70189 -1.52705 0)
(16.6791 0.207685 1.38898e-21)
(8.06878 6.43119 -3.56175e-20)
(9.2466 1.58635 0)
(7.12863 0.285236 1.8613e-20)
(-1.94416 2.6675 -1.61102e-20)
(8.04717 0.392497 9.65916e-23)
(-3.6142 -2.46825 -3.89648e-21)
(5.63095 -0.874223 6.14173e-23)
(5.22656 -2.60241 1.65839e-20)
(7.749 0.0734188 -1.6426e-21)
(10.8263 0.572741 2.18831e-22)
(7.88818 0.509928 -5.61049e-21)
(7.62753 -0.0556236 -1.12431e-20)
(7.07882 2.18532 -9.33809e-21)
(9.17064 2.8604 0)
(12.1446 -2.22883 1.84765e-20)
(6.23915 -2.18608 -1.56916e-20)
(8.04328 0.020255 -1.66534e-20)
(12.0766 -2.05398 1.9986e-20)
(9.7656 -0.0332674 8.2758e-22)
(15.1717 -0.736689 -2.63743e-20)
(9.63585 -0.743888 -6.93742e-23)
(9.95752 -1.93303 1.35561e-21)
(7.9481 0.249204 5.8067e-21)
(8.41338 5.55487 0)
(11.5491 -3.32811 -3.40339e-21)
(7.40845 -0.498579 -2.35595e-21)
(11.7134 2.56895 0)
(8.98727 -2.489 0)
(9.36089 -4.07193 -1.47353e-22)
(6.19756 -4.28633 2.97324e-20)
(17.2258 0.34665 -2.39433e-20)
(8.23935 -0.575605 0)
(8.27991 -0.529717 -8.46446e-21)
(7.45509 -0.00796921 -2.16036e-21)
(3.09682 -8.16274 3.1615e-20)
(9.1678 -0.680726 2.30879e-21)
(5.32272 -2.80679 0)
(11.5183 -2.1215 2.10859e-20)
(9.11909 -0.840327 0)
(13.286 -0.969849 4.18897e-21)
(7.27683 1.96169 -2.49212e-21)
(8.07806 -0.0178866 1.33061e-24)
(8.23773 1.86253 -1.35887e-20)
(8.56849 3.37976 -5.17272e-22)
(8.30648 -2.32871 6.65581e-21)
(5.91427 6.72733 0)
(-4.03019 8.35896 -1.86012e-20)
(-6.5008 7.97109 0)
(9.41789 1.70333 7.80332e-22)
(4.84711 -8.40023 7.04028e-20)
(10.6102 -1.43849 -3.28088e-22)
(7.74542 -1.95372 -3.72755e-22)
(-5.39232 -6.05909 -2.95854e-20)
(7.95071 -3.6788 6.87528e-23)
(6.38783 -2.18641 -8.8718e-21)
(6.8505 -0.660203 7.05968e-23)
(-2.43915 7.63749 1.51265e-20)
(5.91782 -2.69109 6.44167e-21)
(6.6145 -2.26545 9.31776e-21)
(-4.66765 11.3448 7.72902e-20)
(-2.17293 5.80061 -2.26964e-21)
(8.86843 -2.55389 1.7425e-21)
(-1.39785 0.243448 7.13414e-21)
(10.8874 0.124662 1.47731e-22)
(-2.73958 2.75789 1.57066e-20)
(8.43373 1.28977 -3.38382e-21)
(11.2035 -1.25553 0)
(5.69131 -3.1046 -2.1992e-20)
(8.27674 -0.0272417 -1.01145e-20)
(7.95057 0.121171 0)
(9.36476 1.54997 0)
(-3.50934 14.3393 -4.1389e-20)
(14.5483 -2.1035 -1.82193e-20)
(8.95913 0.878908 -7.59983e-21)
(9.56477 -1.25684 1.24476e-21)
(7.09803 2.16076 8.03395e-21)
(7.18419 -0.0237887 3.59956e-21)
(3.35466 -8.50327 3.23238e-22)
(7.01103 1.12381 0)
(6.77289 -2.36447 8.5969e-21)
(-2.88899 4.29423 3.44381e-21)
(-2.88785 -6.66771 2.34163e-20)
(8.30759 -3.03224 8.30074e-22)
(10.8804 -4.87571 7.41722e-21)
(8.05997 -0.0243237 1.9974e-21)
(8.36427 -2.01983 4.88573e-22)
(12.3707 0.0236262 6.97754e-21)
(4.46666 -10.6404 -3.45297e-20)
(8.91473 0.836979 5.7392e-21)
(8.04037 -0.228893 4.07005e-21)
(5.8106 -1.73113 -8.34147e-21)
(8.33014 -0.647145 5.04669e-21)
(1.60737 -0.739592 0)
(8.70687 1.31404 6.97699e-21)
(8.05605 -0.165513 9.1234e-22)
(7.07389 -1.81837 -2.84512e-21)
(6.22232 3.9149 -5.24105e-21)
(8.72855 -2.53772 1.77636e-21)
(8.32137 -0.0324067 1.60024e-21)
(6.34481 -0.558818 -1.30398e-20)
(12.0193 2.01546 0)
(7.72832 -1.71044 -5.69919e-22)
(8.41798 0.268734 6.31913e-21)
(11.6951 -1.28614 0)
(6.5184 -0.8403 7.20731e-21)
(9.28904 -0.715209 0)
(5.57778 3.72527 2.06359e-20)
(10.5483 -0.0350819 0)
(11.9841 -3.43932 0)
(8.79945 -0.0411145 1.60561e-21)
(8.95943 0.649733 4.47554e-21)
(10.705 2.49705 -2.06259e-21)
(7.81405 -0.0563234 -5.17728e-21)
(5.9639 2.1028 -5.57252e-21)
(8.04577 0.0509562 -2.4382e-21)
(7.97188 0.63198 0)
(-1.77002 5.0242 -1.80559e-21)
(9.33507 0.700135 -3.3429e-21)
(13.2575 -1.46929 -9.43704e-21)
(11.2974 -1.33188 0)
(9.12572 2.81449 -4.98592e-22)
(7.02881 4.02441 -8.65341e-22)
(11.0929 0.191444 3.57855e-22)
(-7.06556 -5.03146 0)
(-4.50023 -0.736516 1.26444e-20)
(8.03741 0.275358 0)
(12.2267 -0.0403812 -3.55408e-21)
(0.846106 -1.49254 0)
(2.50548 5.30011 0)
(6.93617 8.31036 0)
(10.1645 -3.31774 0)
(-2.04418 1.98358 -1.84962e-21)
(-5.00894 -8.0405 -7.78977e-21)
(8.15267 -0.548212 -6.4338e-21)
(7.37414 0.0162091 -7.742e-20)
(6.26039 -2.77341 0)
(-1.51404 1.64717 -5.56013e-20)
(-0.0170553 -1.6793 -1.06544e-20)
(7.73901 -3.54546 0)
(7.1098 -2.60225 -8.39528e-21)
(7.15869 -1.00645 -1.98938e-23)
(8.42111 1.21584 8.94306e-21)
(13.5401 -3.29274 -1.46055e-20)
(7.6688 -0.111495 0)
(11.1472 -2.5353 0)
(10.8795 5.48456 1.18539e-21)
(10.8597 -5.78361 1.48423e-21)
(7.16432 -0.650648 -1.33094e-22)
(-4.17545 14.3717 -3.01587e-21)
(7.98811 0.00180235 4.15744e-22)
(7.6775 -0.372276 6.40899e-23)
(7.95585 0.247258 8.26873e-21)
(7.40487 -1.52259 1.53361e-22)
(9.02966 -2.22546 0)
(4.18548 -0.784622 0)
(10.979 0.017113 0)
(6.34822 0.0480579 0)
(8.06147 -1.65457 3.20604e-21)
(11.7162 1.03323 0)
(-3.27228 1.18499 2.42625e-20)
(-2.11815 -2.41262 -7.23189e-22)
(6.51413 -2.32026 -1.41657e-20)
(-2.89908 1.25802 5.6777e-21)
(-1.22587 -8.64296 -2.34592e-20)
(-3.95019 2.8975 -1.301e-20)
(8.96817 0.0598857 1.26642e-21)
(1.9736 -7.60643 -2.14911e-20)
(7.29564 -1.40358 9.28037e-23)
(8.90249 -0.0980994 0)
(10.7821 0.317105 0)
(0.455709 -4.76459 0)
(10.2145 -0.976072 -1.00884e-21)
(-3.83096 3.86985 0)
(7.03124 1.10031 0)
(8.01032 0.00755167 0)
(8.33605 -1.99331 2.85746e-21)
(8.13413 0.350459 -9.11922e-21)
(6.73549 0.146227 0)
(15.0122 0.377286 -1.146e-20)
(7.87936 0.20379 -7.02805e-21)
(8.19971 2.58117 9.98202e-21)
(7.77025 -3.48272 3.41132e-21)
(7.21178 1.34807 1.0952e-22)
(13.9129 -9.30002 -3.00169e-21)
(8.65207 -2.81068 1.79128e-21)
(13.874 -3.74161 -1.2237e-20)
(8.85019 0.692708 -6.04933e-21)
(7.10841 -0.611545 -2.81807e-22)
(7.7535 -0.306445 -7.19535e-21)
(8.39176 -0.018331 0)
(10.1959 6.41141 -1.28191e-20)
(7.97801 -0.145472 7.6862e-21)
(0.852286 8.36246 1.25228e-20)
(9.59788 -0.759413 -3.84568e-22)
(5.56266 -1.61418 -1.44275e-20)
(8.90731 0.582217 1.0222e-21)
(9.64179 3.33294 3.24524e-22)
(8.00168 0.0957816 0)
(4.15851 -3.19542 -2.17862e-21)
(8.28264 -0.948501 -3.41253e-22)
(13.5558 -3.76395 2.00202e-20)
(11.3432 -4.62494 -9.9777e-20)
(8.37458 -0.0813262 3.39054e-21)
(10.7221 -0.133126 2.09035e-23)
(10.5281 0.226433 2.19012e-22)
(11.0137 0.0611684 0)
(0.941652 2.93194 0)
(7.29646 -3.40842 5.18713e-21)
(4.76634 -2.58533 2.01971e-20)
(6.75995 0.140148 -7.59885e-26)
(8.02208 -0.146474 1.51401e-20)
(4.51146 -3.49611 6.67105e-21)
(6.46717 -0.1345 0)
(7.63793 -0.33897 0)
(7.59367 -1.88861 -1.99147e-22)
(8.69995 -0.0540551 2.41689e-21)
(7.28706 1.28148 1.32727e-20)
(8.53758 0.918128 0)
(9.60271 -0.106578 0)
(10.212 -2.14794 -5.29743e-21)
(8.7901 -0.669073 3.69913e-21)
(2.13788 -0.752754 -1.87403e-20)
(10.8986 -0.60707 0)
(0.467318 4.74901 1.25844e-21)
(13.0973 1.63222 -1.04297e-21)
(-2.54608 -3.3531 -1.09271e-20)
(8.51811 -0.259828 -6.64141e-21)
(11.227 7.02052 0)
(16.1015 -1.75456 1.39814e-20)
(-7.0693 -3.84633 -2.11892e-20)
(-0.557816 1.08711 0)
(6.56507 -0.0218017 -3.31562e-22)
(7.87528 -0.171625 -5.17103e-21)
(6.92641 0.0667061 -1.86366e-25)
(7.92578 2.43499 5.82907e-22)
(6.83658 6.88091 3.85651e-21)
(8.6251 0.0486074 0)
(5.55036 -2.20873 -1.65774e-22)
(3.44852 -2.90345 -6.28673e-21)
(-5.60704 0.683874 -4.44726e-20)
(7.90694 0.541016 6.64375e-21)
(6.90002 8.73973 5.60124e-20)
(8.29436 -0.00425543 -1.55516e-20)
(6.93786 -1.43173 2.31207e-22)
(8.11795 -2.46956 1.04379e-21)
(8.19088 -1.8702 0)
(8.43865 -0.178062 -3.13563e-21)
(5.88352 -2.77833 5.16269e-21)
(9.2912 -0.0147085 -3.5165e-21)
(8.03355 -0.131152 -6.7977e-21)
(12.2265 -0.0728772 3.37958e-21)
(7.61017 -1.16388 1.43497e-20)
(10.5723 0.0930429 -1.9328e-22)
(7.60635 -0.276546 4.31011e-21)
(6.74175 -0.881596 -2.74801e-22)
(14.6659 0.0233282 -1.66727e-20)
(7.98953 2.76071 7.7982e-21)
(-7.03415 -1.11083 1.40835e-20)
(8.35032 0.0435653 0)
(3.40641 -7.00058 0)
(15.5142 0.837364 0)
(6.47719 -2.1998 1.1106e-20)
(8.09214 0.0294216 -1.07939e-20)
(7.44016 -0.0132103 0)
(7.23249 -1.84513 -8.04527e-21)
(7.41087 -0.0863801 0)
(8.07365 -1.49527 -5.29806e-21)
(13.7821 -1.19206 -1.19624e-20)
(8.88511 -2.08433 -2.1388e-21)
(8.72206 0.0416234 0)
(8.07759 -0.258173 0)
(11.2034 -1.12921 2.72536e-21)
(9.28012 1.39664 -1.68173e-22)
(11.1855 0.343669 2.68521e-21)
(7.22428 4.28659 -5.44686e-22)
(8.32491 1.67684 0)
(8.3615 -2.95583 -1.27406e-21)
(-2.45921 -1.89091 0)
(4.11679 1.15983 -9.07517e-21)
(8.57075 3.31342 0)
(10.5137 -0.120958 -1.28159e-23)
(5.86986 -1.46219 5.44389e-21)
(7.06526 -1.22629 4.98392e-21)
(10.0991 -0.555268 -2.10448e-21)
(-2.25096 -1.98138 -7.828e-21)
(8.73234 -0.83347 9.26127e-21)
(7.88822 0.59454 -1.02452e-22)
(14.7969 -0.417639 3.23485e-20)
(9.24008 -1.6314 -7.2882e-22)
(-1.10287 0.110022 1.01268e-20)
(9.07748 1.9054 0)
(8.07719 -0.0715214 -1.12979e-23)
(7.36384 -2.06765 0)
(8.19872 -2.19792 -1.1436e-21)
(8.49218 -2.9287 -5.51552e-22)
(7.67056 -1.06886 -4.64947e-21)
(6.76313 0.0783067 8.60438e-24)
(10.2388 0.448497 9.59177e-22)
(7.49824 -0.795371 1.05052e-20)
(9.11863 0.345618 -1.6475e-21)
(7.06477 -0.694784 0)