/*--------------------------------*- C++ -*----------------------------------*\
| =========                 |                                                 |
| \\      /  F ield         | OpenFOAM: The Open Source CFD Toolbox           |
|  \\    /   O peration     | Version:  2306                                  |
|   \\  /    A nd           | Website:  www.openfoam.com                      |
|    \\/     M anipulation  |                                                 |
\*---------------------------------------------------------------------------*/
FoamFile
{
    version     2.0;
    format      ascii;
    arch        "LSB;label=32;scalar=64";
    class       volVectorField;
    location    "1.3";
    object      U;
}
// * * * * * * * * * * * * * * * * * * * * * * * * * * * * * * * * * * * * * //

dimensions      [0 1 -1 0 0 0 0];

internalField   nonuniform List<vector> 
13486
(
(4.26288 -0.596306 1.00926e-20)
(5.03119 1.03003 4.44758e-21)
(6.59719 0.0785044 0)
(2.84698 -1.32938 -1.98585e-21)
(6.69012 -1.63466 3.48187e-21)
(7.18279 0.439131 6.20419e-22)
(7.41959 -1.44202 5.02621e-24)
(5.73564 -2.11689 -5.48139e-21)
(5.67295 -1.17108 0)
(6.05911 2.2061 0)
(-0.596966 -6.72575 -2.0078e-20)
(7.46113 -0.0512289 0)
(3.83512 -1.2135 -1.01126e-20)
(7.42832 2.10327 1.06505e-21)
(7.10812 -1.24466 1.74487e-21)
(6.01396 2.34756 -2.44666e-21)
(-8.25137 5.38152 2.9576e-20)
(4.49159 -1.40986 -8.89281e-22)
(6.98756 -0.1141 4.13505e-23)
(4.79101 -0.0863125 -9.97578e-21)
(4.1622 -2.11293 -8.13233e-22)
(3.88326 -1.23527 1.30278e-20)
(5.08063 1.02189 -3.56286e-21)
(6.72338 -2.39286 0)
(6.3312 1.81372 7.13545e-22)
(6.71977 -2.19485 -1.82991e-21)
(-7.36254 2.21651 2.06428e-20)
(6.95664 -0.324309 6.23419e-21)
(6.04927 0.0560674 0)
(6.36308 -0.883315 -3.5362e-21)
(3.87852 -1.90185 -5.62114e-22)
(7.45707 -0.936716 -2.01649e-21)
(7.98099 -1.26577 5.95038e-21)
(6.03659 -0.147775 0)
(5.76932 -2.03666 0)
(5.77978 -0.00408362 1.126e-23)
(5.83469 0.226417 5.688e-23)
(4.62508 -2.17941 5.28364e-21)
(5.40091 0.248351 -1.14783e-22)
(5.77272 -0.730318 5.05778e-21)
(6.97701 -2.4478 0)
(3.17946 -1.51663 -1.19653e-20)
(6.09928 0.0761279 0)
(6.21306 1.35803 -3.62813e-21)
(6.25909 1.37536 1.4532e-21)
(7.57429 -0.091036 1.22853e-21)
(3.79595 3.98813 7.84782e-20)
(6.02694 0.0491517 4.69757e-24)
(5.83046 0.231521 -4.30136e-23)
(7.60749 -0.139469 3.48898e-21)
(6.01068 0.113807 5.19343e-21)
(5.54409 0.114385 0)
(7.95421 -0.245612 -9.29473e-22)
(4.78403 -1.78128 -7.64467e-21)
(3.96643 -1.41413 0)
(6.63748 -1.66167 -2.30551e-21)
(6.13984 0.286988 -1.67156e-22)
(5.40792 0.125358 -5.54071e-22)
(7.83589 -1.21859 6.84606e-21)
(5.87501 0.342567 0)
(0.825848 -7.15562 -1.38812e-20)
(5.85683 0.335608 0)
(11.4635 -0.949815 -1.25304e-20)
(4.29419 -2.14672 -9.47306e-24)
(4.90574 -2.33363 0)
(5.82603 0.225139 2.99133e-23)
(3.09283 -1.49459 -1.98106e-21)
(4.2462 0.234434 3.32328e-21)
(5.67457 -1.25669 -2.93262e-21)
(5.77211 0.0185361 7.81484e-23)
(2.54508 -1.12717 2.28747e-21)
(4.80105 -1.36665 -6.79749e-23)
(5.77717 -0.365979 3.71416e-21)
(-1.26058 0.58111 -1.50368e-20)
(5.9018 0.276575 8.30368e-24)
(6.1737 0.277013 3.67259e-23)
(5.88114 0.273898 -4.54155e-23)
(7.11061 -1.30241 -7.17006e-22)
(3.15904 1.80433 -4.85282e-20)
(4.79736 -0.56121 0)
(6.01233 -0.00111923 9.35009e-24)
(4.92457 1.28292 -2.8652e-22)
(12.2775 -1.4745 1.42638e-22)
(6.97845 0.159669 -1.68987e-22)
(4.25193 -0.632558 -1.9662e-20)
(4.47381 5.26573 0)
(3.70615 1.70326 -1.11632e-21)
(6.05087 0.16247 -7.83431e-21)
(5.68114 0.611604 -3.60302e-21)
(5.50334 3.07028 -2.50509e-21)
(7.83868 -0.98024 -9.06004e-22)
(6.09814 -1.8675 -2.84389e-21)
(4.42834 -0.916599 2.59128e-21)
(4.8821 0.357892 2.55172e-22)
(5.35739 -1.68593 1.21237e-21)
(6.0196 0.0529004 5.83438e-25)
(-6.74523 2.01436 0)
(4.1453 -2.07249 9.65829e-22)
(5.7791 -0.709473 -9.65539e-21)
(-8.96752 6.04132 1.08543e-21)
(6.07147 -0.00382105 0)
(7.31924 2.12708 3.49443e-22)
(3.82001 -1.94226 5.29131e-23)
(5.50275 0.151595 6.46128e-22)
(4.09368 5.09451 0)
(-8.23232 5.44587 8.56621e-22)
(5.75124 0.19974 3.11071e-23)
(5.35941 0.207016 -2.6915e-22)
(3.9954 3.98296 5.94416e-20)
(5.74371 -2.63673 0)
(4.61333 -2.18507 0)
(7.46506 -1.16582 -1.89933e-21)
(4.809 -1.72588 6.78698e-23)
(6.19752 0.172095 9.63359e-24)
(3.17378 -0.0468775 0)
(4.5162 -2.16446 -4.62832e-21)
(6.27821 1.95487 0)
(6.11397 -0.136193 0)
(5.70035 -0.329689 0)
(5.85658 0.161415 3.87574e-24)
(4.42319 -1.57096 5.59044e-22)
(0.201388 -6.90885 0)
(5.24876 -1.50254 0)
(5.36145 0.221711 3.85539e-22)
(5.44326 -1.97769 0)
(5.55456 0.136156 0)
(6.40125 -0.844471 1.10918e-22)
(6.47773 0.282445 9.59206e-22)
(5.7837 -0.025086 -5.60149e-22)
(5.03572 -2.08815 -9.796e-22)
(5.53896 0.108135 -6.02698e-23)
(4.92734 3.89731 -2.01223e-20)
(-1.21346 -0.268822 1.59978e-20)
(-0.853327 -1.50964 1.92481e-20)
(6.00579 0.0565346 -8.70442e-22)
(5.68847 1.3042 -3.80859e-21)
(2.51567 2.29347 -2.73084e-21)
(5.72161 -2.61099 0)
(5.87081 0.175882 -2.80041e-24)
(5.86211 -1.76065 -1.92593e-21)
(7.98011 -0.585001 -6.49723e-21)
(7.99078 -0.27793 7.37111e-22)
(7.56063 -0.633601 0)
(4.82623 -0.556728 0)
(6.09142 0.0107331 7.16965e-23)
(10.2945 -3.31976 -1.79862e-20)
(7.42482 1.61496 1.77768e-22)
(-2.00164 4.54525 0)
(7.61409 -0.142071 0)
(6.01772 0.0578927 0)
(6.03865 0.103205 7.10841e-23)
(7.08154 -1.4643 0)
(5.99031 0.0131558 -9.78554e-24)
(4.85671 1.23435 -2.42597e-21)
(6.52133 0.933229 0)
(6.69325 0.0939877 0)
(5.48614 -2.49411 0)
(1.43006 -0.969718 -1.17939e-22)
(5.08296 -2.02538 1.09953e-20)
(6.09752 0.680661 3.44749e-22)
(7.56396 -0.00246945 2.30309e-21)
(5.09803 -1.96904 -1.65176e-20)
(7.14609 -1.17264 4.4833e-22)
(2.9086 -1.42746 5.27428e-21)
(5.53163 0.0789769 0)
(7.79082 2.03797 -2.12934e-21)
(7.16569 2.01255 -1.03682e-21)
(1.3545 -0.307483 -1.26919e-20)
(7.26689 1.58239 -3.68583e-22)
(-0.553045 -1.29342 5.46101e-21)
(-0.507011 1.39202 1.45768e-21)
(6.45112 0.839354 8.98005e-22)
(6.01492 0.306415 -6.05232e-21)
(6.84413 -0.708362 1.68215e-22)
(5.97967 0.0336651 -8.21521e-24)
(3.33839 -2.90883 0)
(7.48136 3.16393 3.01521e-21)
(8.35302 -0.719015 9.47346e-21)
(5.8776 0.110017 -8.91068e-21)
(7.55882 -0.58426 0)
(5.86827 -0.925379 1.03219e-20)
(6.1139 0.109054 2.49375e-23)
(7.11294 -0.669296 -9.51027e-23)
(0.30974 -0.715575 0)
(7.11678 0.475008 3.98334e-22)
(6.82939 -0.277076 -2.85727e-21)
(6.06529 0.0460158 -4.16151e-24)
(6.32052 -0.552368 -1.11122e-21)
(6.86541 -2.46931 0)
(4.15804 -2.00132 -6.19412e-21)
(5.86702 0.224751 0)
(6.48477 0.054118 0)
(5.42301 0.0794005 0)
(4.45493 2.70763 -5.05642e-21)
(5.32822 0.0223803 0)
(-1.61666 -6.94929 -3.86716e-21)
(4.94234 -2.16936 2.30585e-21)
(7.55568 -0.0280066 1.22308e-21)
(4.01532 -1.99388 -2.38116e-21)
(7.70037 1.88549 -1.01431e-21)
(3.89338 -1.95765 6.01251e-22)
(6.52677 0.295758 -2.68362e-23)
(4.5579 -2.19972 -6.12258e-21)
(5.8766 -2.51277 1.13745e-21)
(6.07661 0.644422 -4.13663e-22)
(5.37669 -0.0129309 -5.70741e-22)
(4.32274 -1.49232 -3.93085e-22)
(5.50387 -0.0551214 7.54724e-21)
(5.37388 0.0605636 0)
(7.01831 0.434142 0)
(6.82371 -0.341004 4.08819e-21)
(6.01968 -2.20785 2.70432e-21)
(4.83397 -0.00832301 9.15999e-21)
(5.70579 0.203994 3.82195e-23)
(7.22769 0.51722 -7.1548e-22)
(5.24703 -0.989695 3.92705e-22)
(6.50493 -0.838995 0)
(5.58417 2.90245 7.01656e-21)
(4.65141 -0.991252 0)
(9.5866 1.45203 0)
(-8.05395 5.65623 -5.34231e-20)
(7.68118 -0.10471 0)
(5.83348 -1.74256 4.52487e-21)
(7.44914 0.0357152 0)
(8.31622 0.00236805 -3.88084e-23)
(3.96141 -1.81537 3.73948e-21)
(7.61125 0.829508 -1.39962e-22)
(3.93083 -2.21903 4.08174e-22)
(5.33087 -0.576772 5.98039e-23)
(4.04869 1.37831 2.54455e-22)
(5.89952 -0.897634 -3.30548e-21)
(5.11443 -1.24075 2.52708e-21)
(7.97506 -0.725025 8.19497e-21)
(3.13535 -1.48041 4.09471e-21)
(3.74792 -2.05323 0)
(3.75412 -1.8342 4.43014e-22)
(6.17373 -0.382088 1.87266e-21)
(6.45005 0.0902011 -1.03525e-22)
(3.67499 -1.7667 1.21741e-20)
(7.13232 -0.450847 0)
(7.78169 -1.47762 0)
(6.01419 0.303336 9.32297e-21)
(6.26035 0.148416 0)
(3.53175 -1.7545 4.03958e-21)
(5.31103 0.409239 -1.96774e-22)
(5.40928 0.293494 0)
(7.16985 -0.0378806 -6.50262e-22)
(6.5943 -1.6297 6.34594e-21)
(2.77666 -0.809739 3.76119e-20)
(6.16504 1.24165 0)
(2.77127 -2.12429 -4.08112e-22)
(3.08991 0.0336234 1.47115e-21)
(4.12859 -2.02497 5.9209e-21)
(5.33867 0.186042 0)
(5.081 -0.467921 4.48015e-22)
(3.03935 -3.30943 4.08644e-22)
(7.45728 -0.902715 1.58019e-21)
(5.24594 -1.02556 -4.96235e-22)
(1.82194 -1.61792 1.23504e-22)
(7.82829 -1.37865 4.40153e-21)
(5.34281 0.702812 0)
(5.32761 0.396518 -2.24455e-24)
(7.13359 -1.25437 -4.06258e-21)
(3.09018 -3.16472 -5.10241e-22)
(6.39875 -2.18763 -3.61456e-21)
(0.0349103 -0.936571 0)
(5.44136 -0.57375 -1.03747e-21)
(3.85181 -1.98563 -8.55795e-22)
(5.99492 -0.0211795 -4.30279e-21)
(5.51225 -1.62593 0)
(4.5762 2.79001 3.54996e-21)
(5.82534 0.21544 -2.42352e-21)
(6.49798 -0.898304 0)
(7.70411 0.0523859 7.55524e-22)
(4.037 -1.88918 4.99542e-21)
(6.52499 -1.52151 -3.5413e-21)
(5.149 -0.404155 0)
(4.53771 -1.64178 0)
(5.25685 0.175881 -3.09704e-22)
(7.76405 1.55716 -5.01646e-22)
(4.55198 -1.65064 1.26425e-21)
(6.25497 -0.65125 -3.68981e-21)
(5.80111 0.298403 5.32542e-21)
(7.41163 -3.49246 -4.80853e-21)
(-0.599286 -6.00198 1.29752e-20)
(-9.10379 3.44024 5.71331e-20)
(8.20051 -0.5056 8.05878e-21)
(5.85287 -0.0797291 7.36579e-22)
(8.25703 -0.0543907 -1.25182e-22)
(5.95024 -0.0314186 0)
(3.83743 -2.04889 0)
(5.71695 0.529225 -3.39819e-23)
(4.50422 -2.15756 4.62637e-21)
(6.0094 0.0388384 -8.53373e-22)
(6.10361 -0.380288 1.74317e-21)
(6.23204 -0.473524 0)
(7.27532 -0.0739259 -2.89428e-21)
(7.64066 0.0786401 -5.62395e-22)
(5.62105 0.150696 -4.91605e-21)
(7.30897 -1.81299 1.34557e-21)
(6.03658 -0.897709 -5.39202e-22)
(3.90838 -1.34851 6.04237e-23)
(7.61913 1.55116 4.27497e-22)
(7.41053 -0.93281 1.90777e-21)
(5.82592 0.179241 2.17262e-24)
(5.11351 -2.44197 0)
(0.527517 -0.417316 0)
(6.94711 -0.151299 1.33561e-21)
(3.97511 1.15725 6.81557e-22)
(5.86599 0.20336 0)
(6.76023 4.42785 -3.02247e-20)
(2.44426 -1.22525 0)
(7.17415 3.15165 -8.69768e-22)
(7.5702 -1.10849 -1.86653e-21)
(6.97489 -7.37913 0)
(5.73929 1.15265 -2.30495e-21)
(5.71289 0.533803 5.6205e-23)
(5.64709 0.604546 -3.07378e-22)
(5.57906 -0.0285824 -8.27927e-21)
(5.49649 -0.639542 0)
(5.88093 0.262947 -5.6506e-23)
(5.62303 0.446912 1.65853e-23)
(5.99885 0.126395 1.12498e-21)
(4.70592 0.488195 -4.77063e-21)
(2.16381 2.23977 5.12645e-21)
(7.69694 -0.917936 1.68718e-21)
(6.53862 -1.19497 -1.04739e-20)
(6.22724 -0.631104 0)
(7.51643 0.44011 5.57318e-23)
(6.61767 -1.24012 -1.97083e-21)
(5.96905 0.124821 1.13574e-20)
(6.17083 -1.88638 0)
(7.79636 -1.13039 -3.61997e-22)
(4.38723 1.24001 0)
(7.33852 -1.52079 -3.30809e-21)
(5.53278 -1.5764 -3.28976e-21)
(2.3766 -1.09219 4.95162e-21)
(7.0164 -1.50588 -2.87037e-21)
(6.05075 0.584598 0)
(5.32235 0.432627 -2.16569e-22)
(5.388 -0.589982 1.14009e-21)
(4.7924 0.507277 4.51129e-21)
(6.67743 -1.26971 7.55059e-21)
(7.11479 -0.70102 3.31092e-21)
(0.151443 -2.30708 -2.32337e-21)
(6.0101 0.0430752 -3.50414e-24)
(6.5861 -0.688048 0)
(3.07309 -1.0226 1.17076e-20)
(9.64473 1.43995 0)
(5.65048 0.517478 5.40953e-25)
(6.58842 -0.391395 5.99914e-21)
(7.6642 0.252012 -4.43615e-22)
(7.73107 0.024811 5.27848e-22)
(-6.009 1.48873 -1.64558e-20)
(5.68654 0.146247 6.14676e-21)
(5.95796 0.0187992 0)
(-2.43116 -0.796678 -1.163e-20)
(6.41682 -0.862904 -2.20658e-21)
(4.24202 1.0021 -2.60232e-22)
(5.97793 -2.03048 2.55394e-21)
(7.60087 -0.0840687 0)
(8.05315 -0.908845 8.04256e-22)
(5.39919 0.508869 9.46931e-21)
(5.79769 0.251833 7.31578e-21)
(6.391 -0.924982 0)
(6.03509 0.00288628 -1.90644e-23)
(6.19779 -0.47555 -1.75879e-21)
(6.05884 4.31589 9.38893e-21)
(4.69125 -0.0468419 1.27621e-21)
(6.40692 -0.725055 2.10468e-21)
(6.18512 -0.00985147 -3.67538e-23)
(6.56618 -0.645679 0)
(8.33543 0.18635 3.30842e-22)
(2.42203 -2.24503 4.16235e-22)
(7.19024 1.10386 1.15087e-21)
(5.92585 0.135975 4.40026e-21)
(4.84896 -0.0163475 0)
(5.55025 0.486209 -1.01744e-22)
(7.69314 -6.81688 0)
(10.3384 2.8987 -6.53769e-21)
(6.03118 -0.0818997 0)
(6.1441 -2.11402 -9.81367e-23)
(4.01574 -0.284761 -2.77318e-21)
(4.52806 2.36324 8.53463e-21)
(4.80373 4.77296 -3.96968e-20)
(5.26983 -0.452342 0)
(6.8705 0.156915 3.43667e-23)
(6.03676 0.627415 -2.31121e-21)
(-2.20597 3.52297 -1.23e-20)
(4.10812 -1.98169 8.15363e-23)
(4.94372 -0.0737079 -1.37729e-20)
(6.659 -0.81746 1.8248e-21)
(6.32869 0.560458 1.42403e-21)
(4.34007 -1.27938 0)
(4.16676 0.994606 5.21451e-21)
(5.95464 0.205644 -1.5456e-23)
(2.80945 -1.3829 1.15606e-21)
(2.48706 -2.16837 -1.45242e-21)
(-5.61565 5.55245 -2.68438e-20)
(8.18136 -0.528949 0)
(-3.99108 4.71613 0)
(6.3421 3.52474 0)
(6.15274 -0.270211 0)
(1.29367 -1.42224 -7.99835e-22)
(7.33215 -1.4711 0)
(6.84976 1.81939 0)
(4.93664 0.402184 1.87322e-21)
(8.27317 -0.71933 -9.73363e-21)
(6.49503 -0.577682 -4.92194e-21)
(5.10597 1.08524 1.52169e-20)
(6.01682 0.121768 -1.16877e-21)
(7.31219 5.0091 0)
(6.93469 -0.768551 0)
(5.6616 0.197896 5.23626e-21)
(5.97476 0.00305277 9.0314e-22)
(3.87212 2.91151 0)
(0.883999 -0.890543 1.61183e-21)
(6.33655 -2.22648 4.05451e-21)
(-0.0577349 3.47869 0)
(7.07199 -0.449536 3.20135e-21)
(5.93409 0.149809 -5.96205e-21)
(3.11932 -0.706192 -4.34191e-22)
(3.06463 -0.98399 0)
(6.05912 0.659708 4.42516e-21)
(7.57161 0.397411 0)
(6.27728 -0.538985 0)
(6.59819 0.502017 -1.20098e-22)
(5.73868 0.316074 2.76756e-21)
(-7.49828 2.62719 -2.71004e-20)
(7.04213 1.98478 -8.76917e-23)
(3.9727 -0.964664 -4.94868e-21)
(6.06575 -0.252665 6.40689e-22)
(6.34766 0.549781 1.07031e-21)
(8.29484 0.114433 -1.07086e-21)
(6.58764 -2.18821 0)
(6.80059 -1.55116 3.37014e-21)
(4.07711 -0.122752 0)
(5.64729 0.528286 -1.53654e-23)
(6.81848 -0.694343 0)
(4.30463 0.236692 7.07134e-21)
(-2.47806 7.29615 -5.37259e-20)
(6.61289 -0.78375 0)
(-0.399305 0.775177 8.74026e-22)
(6.8692 -0.847212 -4.22278e-21)
(5.43087 1.44951 -1.30764e-22)
(5.2292 -0.759197 1.33471e-20)
(4.32229 2.33402 -5.31294e-21)
(3.96238 -0.931105 -1.41036e-20)
(10.8199 2.4921 0)
(5.89517 0.205765 1.01952e-23)
(-0.0113784 -2.49116 -6.29494e-21)
(5.98902 0.712176 0)
(5.58376 0.646693 3.36764e-22)
(7.47943 -0.137481 -7.34136e-22)
(8.40735 3.05122 0)
(5.97413 0.0387815 0)
(2.57568 -1.32255 0)
(3.37111 -2.93829 1.76381e-21)
(7.21776 -3.68847 5.69505e-21)
(9.60722 -3.30965 1.09614e-21)
(7.11096 2.98435 0)
(5.04338 -0.493105 8.99793e-21)
(6.00116 0.00668371 4.76245e-24)
(6.97838 1.81212 4.32324e-22)
(4.30778 -2.08624 1.69982e-21)
(5.65834 0.661713 0)
(6.03788 0.066949 0)
(2.28038 -0.282578 -7.83073e-21)
(4.27317 -1.25942 -3.5025e-21)
(5.72299 -0.576643 0)
(4.95561 -2.34093 -4.49718e-21)
(6.16991 0.0540409 -5.96485e-24)
(6.02189 0.0457644 -4.53053e-24)
(2.6007 -1.16262 0)
(5.60569 -0.0113097 7.19126e-22)
(5.86912 0.132229 -8.58594e-24)
(7.59435 0.381102 2.75308e-21)
(5.52024 -1.66532 0)
(-8.73593 4.23182 -8.74309e-20)
(7.70934 0.166986 6.14197e-22)
(6.00203 0.262441 9.95251e-22)
(6.01828 -0.00689676 -6.61685e-24)
(7.92249 1.93342 0)
(5.07539 1.09399 -4.04058e-21)
(9.23857 0.591772 -4.81976e-21)
(-7.14029 6.11244 5.13984e-21)
(5.94392 0.139628 0)
(3.98053 -1.9162 -8.36646e-23)
(1.5008 -0.167047 0)
(6.02626 0.0623968 -3.74533e-21)
(5.93412 0.223161 1.75157e-21)
(5.5328 0.171891 -1.01693e-21)
(3.21415 -3.01044 0)
(7.00552 0.0523668 -3.39792e-22)
(3.38484 1.51543 1.41564e-20)
(6.52722 -2.1771 0)
(4.82492 0.402102 5.78773e-21)
(7.21619 -1.82721 -1.54733e-21)
(6.48957 0.0590928 0)
(3.78559 -2.01905 4.08972e-22)
(4.84125 -0.466986 -9.19885e-22)
(6.20519 0.032282 0)
(-8.02318 4.6773 6.15032e-20)
(5.54465 0.568784 0)
(5.21576 -2.38813 4.52873e-21)
(2.78914 -2.24613 8.80887e-22)
(6.08858 0.0531321 4.14998e-24)
(7.25659 0.421991 -1.53871e-21)
(4.11487 0.959164 2.77507e-21)
(5.24569 -0.855506 -4.89326e-21)
(5.27064 -0.348518 -4.76354e-22)
(5.23657 -2.3513 4.44942e-23)
(6.38096 -0.738698 2.01384e-21)
(7.92735 1.88462 4.27449e-21)
(5.99111 -2.71643 0)
(6.00014 0.0768459 -3.89958e-21)
(-1.09719 4.05844 -8.74974e-21)
(4.12714 -0.144257 0)
(5.93991 0.146929 1.29003e-23)
(5.66236 0.030135 0)
(3.68049 -1.01391 1.23588e-20)
(6.03578 -2.27061 0)
(6.00115 0.00772708 -4.02096e-23)
(6.52625 -0.339358 -3.43331e-21)
(3.85381 -2.06499 7.58671e-22)
(2.99369 -1.40827 1.31097e-21)
(7.48055 0.00913695 -2.60123e-23)
(4.98213 -2.39903 4.30591e-21)
(5.22427 -1.49898 4.89563e-21)
(4.41038 -0.922624 0)
(-2.13711 0.523952 -3.53762e-21)
(6.65921 -2.07337 -8.17472e-22)
(-2.69858 -0.175036 -4.17685e-21)
(5.98793 0.0501877 9.57678e-25)
(4.33043 -1.63057 0)
(6.54444 -0.020184 -1.32215e-23)
(0.572003 -0.95728 0)
(3.70795 -1.99992 2.81978e-23)
(3.62153 -1.0332 6.34403e-22)
(0.0832085 -0.289655 0)
(6.02006 -1.64868 1.42728e-21)
(4.86226 -2.25444 0)
(8.36738 2.86905 0)
(4.91134 -2.33012 -5.9515e-21)
(4.49014 1.08593 4.20783e-21)
(4.49903 -0.881558 0)
(5.3632 0.571268 -2.57418e-21)
(10.2647 -3.44759 2.14554e-20)
(2.06115 -2.41966 2.13723e-21)
(8.56486 3.98245 0)
(6.23668 -0.0460288 0)
(-0.607001 -2.80365 -3.53469e-21)
(5.54633 -0.29628 0)
(6.99217 0.248252 0)
(1.15681 -6.94107 -8.35332e-22)
(6.0329 -1.22436 -6.72703e-21)
(5.14078 -1.25333 4.15313e-21)
(7.70763 -1.52596 6.23615e-22)
(-1.86508 -0.172146 6.18192e-21)
(5.97355 0.179349 2.01314e-21)
(4.52542 -1.00372 0)
(6.50206 1.3768 -4.56029e-22)
(4.24763 -0.529681 0)
(6.81727 0.103223 0)
(5.96923 0.362163 0)
(6.59989 0.512156 -9.53674e-23)
(5.48601 -0.023291 3.83055e-21)
(6.27438 0.0905277 -6.73816e-23)
(4.63462 -1.04407 0)
(-6.40991 1.91102 -1.52845e-20)
(6.30226 3.32695 3.1104e-22)
(5.43567 -2.00094 4.70624e-22)
(5.60948 -0.0956455 -1.13515e-21)
(6.42762 -1.43527 5.6174e-21)
(6.14099 0.0995264 -3.46606e-21)
(-1.59482 8.02177 0)
(7.63962 0.117707 0)
(4.27117 2.71204 0)
(3.71324 -1.60387 -9.06927e-21)
(4.31796 -2.07076 -1.05517e-21)
(-0.243857 -1.12656 0)
(6.54984 1.36104 0)
(8.34501 -0.232887 2.26382e-22)
(5.92126 -0.0550122 -9.99564e-22)
(5.80629 1.95601 3.72057e-21)
(5.96399 -2.51719 0)
(-4.61153 -2.3752 -5.68682e-21)
(6.88314 0.143752 -3.97447e-22)
(4.17319 -1.16163 -8.32729e-21)
(6.51815 0.258457 -3.72605e-22)
(7.0344 1.82959 3.13277e-23)
(5.71209 -2.99276 2.10048e-21)
(3.66766 -1.58282 1.56322e-20)
(5.21593 -1.48031 1.74028e-21)
(6.24032 0.184223 3.03023e-23)
(5.96064 0.0405161 -1.01092e-21)
(4.47159 -2.16585 -1.37538e-21)
(4.82 -0.373961 4.15299e-22)
(5.20605 6.70689 4.15256e-22)
(4.85521 -2.31594 2.3413e-21)
(7.3409 0.505602 0)
(4.11155 2.85995 4.39427e-22)
(6.31013 -0.0181051 -2.50155e-21)
(8.76493 1.79986 2.64352e-21)
(4.0744 -1.05883 -7.5948e-21)
(5.40936 -1.93968 -5.03074e-21)
(6.19296 -0.170658 9.66795e-21)
(7.2041 -0.226142 -5.55615e-21)
(7.11743 -2.20926 2.54364e-21)
(8.24868 -0.428376 -4.16923e-21)
(3.41998 -0.381498 -1.65852e-20)
(6.41509 0.000259869 -1.7966e-21)
(3.39167 -0.621115 0)
(3.91514 -2.16446 -1.72461e-21)
(6.08744 -0.00181337 8.88686e-21)
(5.63372 0.0447121 -1.25854e-23)
(-0.995818 1.02378 0)
(5.37042 -2.49567 0)
(6.17094 1.11456 3.10496e-21)
(3.06919 -0.361605 1.03126e-20)
(4.79224 -2.80913 -2.45646e-21)
(6.20209 -2.10251 -2.52883e-21)
(6.57453 -1.21856 5.74398e-21)
(9.73776 1.20463 0)
(6.22349 1.29652 1.61746e-21)
(4.07264 -1.34843 -1.277e-22)
(7.63564 2.95898 3.04798e-21)
(5.83622 -0.808195 -5.83121e-21)
(-1.74713 -0.310578 -9.27914e-21)
(6.35465 -1.32799 -5.49531e-21)
(6.78068 -1.60107 1.80307e-21)
(6.99982 3.59472 0)
(5.71526 -0.651867 -7.71621e-22)
(5.57851 0.159434 9.46882e-22)
(5.99433 0.0372834 1.437e-23)
(2.90922 -1.40729 1.4492e-20)
(5.74761 -0.798991 8.78264e-21)
(6.01808 0.643046 -1.52821e-22)
(2.15959 -2.30618 -1.13565e-21)
(6.39661 -0.274793 -2.06742e-21)
(6.44886 0.0713041 1.60384e-21)
(-1.40955 -5.38331 -1.74917e-21)
(7.35622 2.97638 -3.59214e-21)
(-8.45768 5.59883 -6.68256e-20)
(3.7772 -1.83486 -4.79598e-21)
(5.9851 0.00334326 0)
(6.13405 0.271503 -1.52959e-22)
(1.66601 -4.82789 -1.76084e-21)
(3.97039 -0.353702 1.48456e-20)
(6.09922 0.0333553 0)
(5.90823 -0.966656 4.34531e-22)
(3.53043 -1.3874 3.54044e-21)
(5.97034 0.106679 -8.47199e-21)
(1.40625 -1.56636 -1.27198e-21)
(4.39609 -0.819127 -3.26007e-22)
(6.51937 -0.611125 3.37325e-21)
(6.71604 0.116807 -1.50532e-22)
(5.27473 -2.41997 -6.27541e-21)
(6.18023 0.10429 1.05434e-22)
(4.33646 -2.20977 -2.61123e-21)
(6.28889 0.00906221 2.34437e-21)
(6.06153 -0.254131 -2.7588e-21)
(6.35153 0.274657 -6.89097e-23)
(6.59101 -0.154855 -5.93915e-21)
(3.39543 -1.4431 -6.83709e-21)
(6.15777 0.125825 0)
(3.5687 -2.43797 1.19166e-21)
(6.21752 0.151667 6.65966e-22)
(2.82045 -0.651477 -7.1215e-22)
(7.10984 0.147094 -1.16415e-21)
(6.4209 -1.25927 -3.56762e-21)
(5.98732 0.0650144 -6.37754e-21)
(6.27889 0.919826 8.33039e-22)
(1.04608 -0.821824 -1.65672e-21)
(7.02406 0.242859 0)
(5.52471 0.481565 6.15032e-23)
(7.61964 0.394132 4.5468e-22)
(4.35512 -1.58104 0)
(6.34636 0.280614 1.23804e-21)
(7.45254 0.514828 5.23435e-22)
(6.80716 0.153944 8.69387e-26)
(7.27076 -2.74521 -3.95521e-22)
(5.43236 -0.0179941 0)
(5.29189 1.17349 7.28846e-21)
(6.11309 0.517779 1.73418e-22)
(4.78287 -2.26563 5.10258e-21)
(5.97674 -0.574813 0)
(4.43622 1.03203 -1.21929e-20)
(4.6276 -1.43988 5.98213e-22)
(7.7705 4.36914 -6.91553e-21)
(3.45444 -0.448833 1.62284e-20)
(6.22613 -0.0117997 1.1135e-22)
(3.02192 -1.46898 9.82852e-22)
(5.70835 -0.279206 -6.00249e-21)
(7.01104 -1.4093 -5.02386e-21)
(5.37747 0.548601 -5.45942e-21)
(6.17802 0.0203913 0)
(5.9334 0.0302205 -3.84317e-21)
(-0.8871 -0.494948 3.50657e-21)
(-2.58773 -1.92044 0)
(6.26802 -2.2458 0)
(5.98644 0.0350393 0)
(-8.27264 6.3379 0)
(6.25739 0.921662 0)
(3.27247 -0.353102 0)
(5.36632 -1.02198 -4.18464e-23)
(8.958 -3.15992 -8.35558e-21)
(7.68216 0.862397 0)
(5.15243 1.08084 1.08799e-20)
(4.55023 -1.51745 -2.44116e-21)
(6.24349 0.606949 1.20578e-22)
(1.44139 -5.46468 -1.43222e-21)
(3.32347 0.314463 -5.28129e-23)
(1.34355 -1.21905 1.16979e-21)
(6.67888 -0.080207 -2.14612e-21)
(7.61795 -0.171526 4.73741e-22)
(6.13119 0.985601 -2.14415e-21)
(5.67154 0.524459 -7.22674e-21)
(6.10119 3.10372 -1.86716e-21)
(10.4625 2.81604 0)
(4.3467 -2.16608 2.98059e-22)
(3.72768 -1.0654 -1.35315e-20)
(6.15874 0.0162692 -1.16864e-20)
(6.71658 -2.05237 -4.83817e-21)
(6.16877 -0.0893305 9.49522e-22)
(7.76974 -1.99312 5.52401e-22)
(6.26237 -0.970392 -7.58466e-22)
(6.04167 -1.60888 -4.95463e-21)
(6.04878 0.506349 2.39555e-21)
(7.3859 5.06922 0)
(5.26134 -0.281483 -4.3216e-22)
(5.08419 0.332149 -1.69862e-21)
(7.38936 -1.3922 0)
(5.31071 0.127273 0)
(5.51622 -2.52524 -4.5137e-23)
(3.16484 -1.62185 1.09968e-21)
(5.37279 -1.04309 -1.96045e-21)
(5.64272 0.121948 0)
(5.65945 -0.106398 -7.83216e-21)
(5.43485 0.617906 -1.40901e-21)
(3.67713 -2.25634 6.78191e-22)
(7.23127 0.462697 4.02565e-22)
(1.82457 -1.31082 0)
(4.19549 -2.11855 3.50384e-22)
(7.39887 0.491664 0)
(5.62501 -0.659858 8.31399e-22)
(8.01331 -0.941593 -7.51215e-22)
(5.9151 0.119789 2.03981e-24)
(7.14998 2.02798 1.85008e-21)
(8.43774 3.50962 -6.81292e-22)
(5.06885 -1.46613 1.01441e-20)
(3.9298 -1.68486 0)
(4.81063 -2.05992 -2.25084e-21)
(4.45943 -1.31114 0)
(7.82036 0.784973 -1.2028e-21)
(3.59258 -2.19097 1.32612e-21)
(6.25227 -2.21475 3.52263e-21)
(5.46778 0.408474 -9.43824e-23)
(2.90892 -3.74905 -3.08992e-21)
(4.29204 -2.01522 -5.89325e-21)
(3.8425 -1.07183 -7.86438e-21)
(5.90701 0.156519 4.48818e-24)
(4.88443 -1.9876 1.83289e-21)
(3.45823 -1.46033 5.6055e-21)
(4.02983 -1.14634 8.51951e-21)
(4.30631 -2.03072 1.25237e-21)
(5.1456 -2.13131 -1.15109e-21)
(5.40146 -1.72536 5.01203e-21)
(2.18906 6.35845 3.70315e-20)
(6.2822 0.0760033 5.36766e-23)
(4.14111 -1.51041 2.21122e-21)
(6.99189 1.18262 8.31301e-23)
(6.5691 -1.7215 0)
(-5.99742 4.59707 -5.58142e-20)
(6.13038 -0.00640144 -3.11021e-21)
(5.96752 0.423879 0)
(7.75056 0.752987 0)
(4.61236 -1.73404 -1.50218e-21)
(7.41299 -1.97506 -5.51925e-21)
(7.17909 0.578088 2.33383e-21)
(6.0031 -1.18388 8.84221e-21)
(6.05947 3.01172 1.8888e-21)
(5.39326 0.01845 6.2382e-21)
(3.50584 -2.28121 -5.9106e-23)
(5.3506 2.04183 0)
(4.13973 -1.23638 8.12061e-21)
(2.49117 -5.93554 1.25555e-20)
(2.90067 -3.56516 2.28351e-21)
(5.06285 -1.93228 1.69993e-21)
(5.34163 -2.44059 -1.33994e-21)
(6.45682 0.0102538 2.99533e-21)
(5.38611 0.263033 1.14514e-22)
(6.32331 -0.814238 3.77147e-21)
(3.45642 -2.30787 -9.02236e-22)
(7.12288 0.563516 -1.73282e-21)
(5.76072 0.116537 3.05264e-21)
(3.37384 -0.591543 -6.67609e-21)
(5.57755 -0.238169 4.90506e-21)
(7.21483 -2.14724 0)
(7.20855 1.0453 -1.82033e-21)
(5.93003 0.135203 6.70872e-22)
(4.3931 -0.836517 -2.59702e-21)
(6.07154 5.38189 2.10489e-21)
(5.32435 -1.65908 3.72379e-21)
(6.00667 0.00698604 1.33472e-21)
(4.12284 0.531691 -9.54652e-21)
(7.42374 -1.40969 0)
(5.53372 0.407839 -1.57453e-22)
(6.62282 0.288105 5.03318e-22)
(5.62167 -0.122533 0)
(4.25376 0.194219 5.50018e-21)
(7.19594 0.474564 0)
(5.20969 5.48367 -2.46957e-22)
(7.00358 -0.162675 0)
(5.29646 -0.352289 0)
(7.43123 0.00742361 6.61241e-22)
(7.16046 0.443646 -9.60356e-22)
(8.50301 0.124422 -7.20879e-21)
(5.71402 0.564462 -3.22748e-21)
(4.70168 3.40978 -2.12571e-21)
(6.07098 0.254235 -1.15587e-21)
(6.28081 0.917757 0)
(11.6751 -2.65017 -4.7652e-21)
(7.35447 0.367962 1.97945e-21)
(5.58947 -0.618244 -1.71535e-21)
(6.574 -1.70458 0)
(8.87155 1.69272 3.96439e-21)
(6.79278 5.08658 4.82747e-22)
(6.23956 0.0537927 3.63783e-22)
(4.61445 -4.03565 0)
(2.04942 -7.30017 8.79532e-21)
(6.06495 0.517823 0)
(6.39311 -0.730915 -1.91825e-21)
(2.57295 -0.752516 0)
(12.8186 -2.37718 0)
(5.18099 -1.5535 0)
(5.93012 -2.24348 0)
(-2.83388 -5.91882 -4.06289e-21)
(3.49627 -2.84397 -3.79122e-22)
(5.56726 -0.0408931 -5.72156e-21)
(3.85928 -2.0932 -9.29905e-22)
(3.72721 -1.52398 0)
(3.99948 -2.22181 -7.28672e-22)
(1.80204 0.355725 -3.73075e-20)
(4.69672 -2.21806 0)
(4.35277 -1.45559 -8.76168e-21)
(5.90161 0.295663 2.02248e-23)
(6.94594 1.11843 -3.88983e-22)
(7.05616 -2.47842 1.2962e-21)
(5.54936 0.440425 0)
(6.38911 -2.11064 0)
(9.8948 -0.336112 4.08721e-21)
(4.88918 -0.263007 9.83725e-23)
(5.81027 0.163401 -8.11954e-24)
(4.60177 -1.71217 -5.52885e-24)
(5.97757 0.0234306 2.86266e-22)
(6.1566 0.244003 1.25179e-23)
(5.97246 0.482781 3.43986e-21)
(5.61362 0.46306 4.83378e-23)
(5.51358 -1.5232 0)
(-7.91884 1.60824 0)
(6.26144 0.11982 0)
(5.77904 0.0632905 0)
(5.12991 -0.904686 3.6285e-21)
(7.67831 -0.415344 0)
(-0.169341 -7.35414 2.94267e-20)
(5.50261 -2.94361 -1.31162e-22)
(3.93567 -1.19512 -1.28718e-20)
(3.71344 -1.54272 1.01579e-21)
(3.67472 -2.50618 -6.49014e-22)
(2.21521 -8.62736 -2.20536e-20)
(6.0063 0.0758815 1.05223e-21)
(3.17002 -2.47449 -8.8667e-22)
(5.65559 0.470644 -4.96913e-24)
(7.40144 0.0167827 0)
(6.9468 -1.25647 0)
(2.88648 -1.91087 0)
(6.39983 -1.32783 1.89153e-21)
(5.03099 -2.22321 0)
(5.47726 1.97114 0)
(5.96546 -0.0166044 0)
(5.20345 -1.24694 3.88794e-21)
(6.21707 0.594809 -2.86091e-21)
(5.64021 0.023755 0)
(5.50861 -1.03265 -1.8697e-21)
(5.88222 0.551599 -3.59893e-21)
(7.55666 2.80005 -6.53482e-21)
(4.75619 -2.20414 5.3257e-21)
(5.78707 2.18331 2.83153e-23)
(4.79516 -0.639637 -8.17733e-23)
(5.27216 0.197249 3.04377e-22)
(5.23142 -0.509195 -9.23131e-22)
(7.08816 0.424061 1.38365e-21)
(5.82273 0.163039 -1.82627e-23)
(5.42104 0.327221 -5.38721e-21)
(6.24477 0.00534061 0)
(3.34097 -0.723802 5.20563e-22)
(5.81852 0.21335 5.39271e-21)
(4.31341 -1.56477 4.93325e-22)
(6.22199 -0.896942 -2.21671e-21)
(3.15017 -0.439355 -1.12175e-20)
(7.07341 0.35994 -2.52151e-22)
(9.31724 0.700431 6.97251e-21)
(6.00384 0.220543 0)
(5.63551 3.44377 3.0567e-21)
(5.54571 0.178307 -9.5039e-23)
(5.27563 -0.573928 1.77817e-21)
(4.17416 -2.04706 -1.93957e-21)
(5.92839 -0.0127915 2.89675e-21)
(6.21634 0.158306 -3.42046e-23)
(6.07143 -0.0440335 -8.091e-23)
(6.26501 0.0585747 0)
(4.541 -1.40549 0)
(4.45141 -2.1379 6.61383e-21)
(1.62308 -1.41174 1.37387e-21)
(6.02491 0.0497412 -5.74926e-24)
(5.84951 0.210521 1.08505e-20)
(6.10295 3.24726 -1.07459e-20)
(4.40309 0.92666 0)
(5.35845 0.364911 0)
(4.72844 -0.981818 -3.80012e-23)
(7.34428 0.0128586 1.01113e-21)
(5.89588 2.01502 4.80452e-21)
(7.49697 -0.56052 0)
(6.33443 -0.0118904 0)
(6.11905 -1.8066 6.99831e-21)
(5.81333 -0.470618 4.65705e-21)
(0.414873 0.00774271 -4.29149e-22)
(5.74402 -0.0546975 0)
(13.001 -1.5988 7.59739e-21)
(5.79988 -1.35271 -7.13636e-22)
(1.66286 -4.5721 -2.359e-21)
(5.88737 -0.0409041 -6.26313e-21)
(9.1969 -2.6505 0)
(7.50891 -2.00603 4.34547e-21)
(4.94815 -3.88421 -3.88823e-21)
(0.338011 0.12129 0)
(5.80905 0.0849849 -3.64001e-24)
(5.82871 0.304159 -3.55063e-21)
(6.03414 0.0337539 7.20675e-26)
(7.9798 -0.98166 5.44416e-22)
(5.25115 5.33353 9.00369e-21)
(6.28862 0.0514279 0)
(3.11485 -1.08544 -7.18153e-23)
(6.6102 2.59754 1.0272e-20)
(6.7274 -6.4578 -1.37168e-20)
(6.17946 0.989468 2.53902e-21)
(4.02 -1.73337 4.66827e-22)
(6.09693 -0.0276213 -1.36074e-20)
(5.98839 0.622501 8.8785e-23)
(5.29631 0.346177 2.16596e-22)
(5.11138 -1.13624 0)
(5.48264 -0.0122705 -6.71779e-22)
(3.36357 -1.49885 4.53287e-21)
(6.55739 -0.26934 -6.715e-21)
(5.90223 0.105787 -4.90595e-21)
(6.31603 -0.684723 1.76676e-21)
(4.95912 -0.426051 1.30905e-20)
(6.32237 0.0331533 -8.89654e-23)
(5.34831 0.396686 3.09625e-21)
(5.88917 0.20959 4.90139e-23)
(7.736 -1.5772 -7.18247e-21)
(7.56956 3.18869 -5.10709e-21)
(4.85123 -2.90675 1.91629e-21)
(6.12706 -0.140308 0)
(2.23832 -0.343581 0)
(2.96358 -1.29242 0)
(3.91947 -1.08373 9.89571e-21)
(6.19818 0.0847544 -7.81471e-21)
(5.39659 0.704311 0)
(4.49747 -0.883471 -7.69289e-21)
(5.39278 0.680687 0)
(5.18007 -0.820272 -5.95673e-21)
(5.49929 -0.622632 -1.83e-21)
(5.47058 -1.42286 -5.46468e-21)
(6.38974 0.127389 0)
(5.7398 0.0967906 0)
(5.72218 -0.158534 1.04346e-21)
(7.57541 0.746276 1.39243e-22)
(7.44779 -0.255523 3.27969e-21)
(7.20469 5.26015 -3.32473e-22)
(7.60728 -0.807374 0)
(5.09133 -1.8763 -2.81732e-21)
(-3.22829 -1.16232 0)
(2.54861 2.54793 -4.94619e-21)
(8.51247 3.4425 0)
(6.20345 0.13981 7.63275e-23)
(3.44042 -0.286094 4.30335e-21)
(4.48678 -0.294437 4.24959e-21)
(5.77702 -0.0477121 -1.04304e-21)
(5.40994 -2.75039 -7.81132e-21)
(5.76796 -0.588081 1.17824e-20)
(6.34399 0.937118 -1.23377e-22)
(7.18275 -1.97619 -6.45647e-22)
(5.82105 -1.35159 -2.73164e-21)
(-1.11779 -0.462851 1.41824e-20)
(7.78226 1.23714 0)
(5.9411 0.170357 1.72512e-23)
(4.55955 -1.04244 0)
(5.39737 0.320618 -2.40022e-22)
(5.14234 -1.87217 -1.46501e-21)
(5.01791 -0.342222 -4.302e-21)
(6.00212 0.0242066 2.11657e-23)