/*--------------------------------*- C++ -*----------------------------------*\
| =========                 |                                                 |
| \\      /  F ield         | OpenFOAM: The Open Source CFD Toolbox           |
|  \\    /   O peration     | Version:  2306                                  |
|   \\  /    A nd           | Website:  www.openfoam.com                      |
|    \\/     M anipulation  |                                                 |
\*---------------------------------------------------------------------------*/
FoamFile
{
    version     2.0;
    format      ascii;
    arch        "LSB;label=32;scalar=64";
    class       volVectorField;
    location    "8.3";
    object      U;
}
// * * * * * * * * * * * * * * * * * * * * * * * * * * * * * * * * * * * * * //

dimensions      [0 1 -1 0 0 0 0];

internalField   nonuniform List<vector> 
5098
(
(2.44195 1.03056 0)
(2.07644 0.0840308 -5.35312e-20)
(2.52717 -0.0316999 -1.83057e-21)
(1.57762 -0.696671 5.47198e-19)
(3.13202 -1.10657 0)
(0.937776 -0.448414 0)
(2.51226 0.0255488 6.64502e-20)
(2.94501 -0.23726 2.09145e-21)
(2.71738 -0.0358622 -3.79698e-20)
(1.88092 -0.297687 2.77429e-19)
(-2.56819 0.976927 0)
(2.05051 -0.0109319 1.09013e-19)
(2.32023 -0.0471117 7.66915e-21)
(0.972497 -0.474194 0)
(2.51288 -0.462076 1.62736e-19)
(1.86556 0.0646404 -8.78195e-22)
(-2.34651 1.06101 -8.13137e-19)
(-2.53541 1.64131 0)
(-0.254656 0.230564 2.73343e-19)
(-2.33276 1.07444 9.29059e-19)
(1.79992 0.546947 -8.48478e-20)
(1.81145 0.0745561 -3.71727e-21)
(2.25191 -0.792562 0)
(0.803228 0.0128667 2.797e-20)
(-0.864322 0.707471 0)
(1.5168 -0.601667 0)
(1.98591 0.0121133 1.25051e-19)
(1.93572 -0.792272 8.78037e-20)
(-0.32994 0.243692 -8.36548e-19)
(1.96192 -0.812506 0)
(2.35836 -0.129453 -6.66169e-20)
(0.756141 -0.368322 0)
(2.04229 0.0504176 -1.20148e-19)
(-2.1547 0.370646 0)
(2.5052 0.387609 -1.40218e-20)
(3.70269 0.533558 9.48239e-19)
(1.9172 -0.441009 9.42249e-20)
(2.05857 -0.0276352 -2.09846e-21)
(1.3446 -0.434839 4.68824e-19)
(1.54018 -0.696494 0)
(1.58714 -0.712385 -2.48644e-19)
(0.147919 2.29034 -1.42104e-18)
(1.53657 -0.604962 0)
(2.54458 -0.262315 7.44252e-20)
(2.39838 0.718947 -2.25511e-20)
(2.06087 0.0766168 8.55475e-21)
(-2.43987 1.16072 3.18874e-19)
(1.10691 -0.382212 0)
(2.32964 -0.148293 0)
(1.58354 -0.663703 5.87802e-20)
(2.2314 0.131807 9.80404e-20)
(1.62663 0.409786 -4.74264e-19)
(0.258014 -0.169461 8.77915e-22)
(2.09758 -0.0690234 1.27445e-19)
(0.998922 -0.495885 -2.68786e-19)
(1.60627 0.0831345 0)
(1.85292 0.256701 -2.5134e-19)
(1.68715 -0.672633 0)
(0.891109 -0.439882 0)
(2.02385 -0.0457736 -4.18685e-20)
(1.67444 -0.3767 -7.35713e-21)
(-2.06188 1.10737 -1.00669e-18)
(2.53139 0.421156 0)
(2.2371 -0.011029 0)
(0.280439 -0.186656 1.41664e-18)
(0.848294 -0.426064 3.64267e-19)
(2.44049 0.025677 1.26174e-21)
(2.30728 0.179302 2.1878e-20)
(2.16427 -0.219787 9.8163e-20)
(1.73814 -0.714679 1.51032e-19)
(1.90272 0.194374 1.23555e-20)
(1.09033 -1.05541 1.01684e-20)
(2.0286 -0.804844 0)
(-0.889023 -0.219481 0)
(1.81535 -0.286103 3.5772e-20)
(1.17997 -0.573099 -2.84469e-19)
(1.65685 -0.249239 0)
(1.55223 0.179719 4.07532e-19)
(2.3715 -0.293889 8.92979e-20)
(1.64285 0.144988 0)
(1.75555 -0.0690187 0)
(1.42591 1.54668 4.09395e-19)
(1.73384 -0.277542 4.10168e-19)
(-2.06576 0.398915 -1.51053e-19)
(-2.42497 1.48634 6.92443e-19)
(1.79856 -0.750724 -3.41596e-19)
(0.120308 0.230361 -2.63967e-19)
(1.66614 -0.247754 -4.60402e-22)
(3.01723 -0.102768 7.43167e-20)
(1.51794 -0.377312 -4.42404e-22)
(2.28482 -0.162536 -3.38712e-21)
(1.1088 -0.435094 5.88309e-19)
(2.46691 -0.0568823 -1.37092e-19)
(1.59999 -0.682862 -2.91502e-19)
(1.33371 -0.46326 8.2534e-20)
(0.607384 -0.813008 -1.01344e-19)
(1.12379 -0.558317 -2.02828e-19)
(1.47664 0.262796 3.06642e-19)
(1.72665 -0.272488 1.43778e-20)
(2.09064 -0.436807 -4.73131e-20)
(2.87387 -1.51122 -7.89358e-19)
(1.05525 -0.518675 -3.10846e-19)
(0.337382 0.722686 -6.24389e-19)
(2.56379 -0.0690606 6.3782e-21)
(1.55103 0.165426 -4.63231e-19)
(2.30145 1.09968 0)
(1.93988 0.228113 2.68442e-19)
(2.32627 0.107304 4.49181e-20)
(1.05609 -0.431867 6.82301e-20)
(-2.55517 1.02249 0)
(1.11837 -0.533506 -5.81746e-19)
(0.879213 0.362983 3.95e-19)
(1.9212 0.00262536 -2.09324e-19)
(1.06921 -0.229145 1.34493e-19)
(1.74315 0.620604 1.22847e-19)
(-0.408016 0.182913 0)
(1.97134 1.34306 1.31391e-18)
(2.49899 1.44103 0)
(1.30491 -0.388806 -6.97449e-20)
(0.833661 -0.0381824 -4.26073e-19)
(1.69102 0.397282 3.89502e-19)
(1.48087 1.86105 -2.64025e-19)
(1.87551 -0.354258 -1.76639e-19)
(-0.723393 2.44409 -6.5335e-19)
(0.637539 -0.509867 -7.97429e-19)
(-2.04142 0.991624 9.1274e-20)
(2.2604 -0.0424123 1.05262e-19)
(2.22053 -0.754383 3.68121e-20)
(1.37873 -0.17555 -1.03784e-19)
(1.11119 -0.248923 -2.60119e-19)
(-1.5465 2.21461 -9.00436e-19)
(1.14706 -0.512535 -4.89655e-19)
(1.17524 -0.510425 4.08353e-19)
(2.40991 1.45299 -5.27054e-20)
(0.904516 -2.25337 -2.26934e-18)
(3.58984 -0.364561 5.77533e-19)
(1.83694 2.31882 2.56749e-19)
(1.90874 0.239437 1.84863e-19)
(0.904403 -0.443064 0)
(2.09589 -0.0748464 -4.18342e-19)
(1.58238 0.521501 -3.18249e-19)
(2.40287 -0.0910062 4.50468e-19)
(1.85369 -0.826126 1.24409e-19)
(2.49738 -0.00859976 -9.00215e-21)
(2.0193 0.0850016 -6.02375e-20)
(2.68379 -0.0835502 0)
(2.13592 -0.226793 1.12413e-19)
(2.73706 -1.62706 0)
(2.88298 -0.00400674 3.86698e-19)
(1.7836 -0.797839 5.57393e-21)
(1.97749 1.28503 -1.11366e-18)
(1.66033 0.789435 0)
(2.94753 -1.5566 2.97621e-19)
(2.09087 0.0464807 0)
(0.11251 0.138172 -3.2806e-19)
(0.849933 -0.332262 -1.72983e-19)
(1.69354 -0.669318 -2.8355e-19)
(2.30008 -1.83963 -4.73193e-19)
(1.53449 -0.707255 -2.07345e-19)
(-0.163032 0.109341 8.9579e-19)
(1.98518 -0.413266 -2.29183e-19)
(2.53455 -0.494102 -2.1619e-19)
(0.49351 0.60872 -3.67926e-19)
(1.83175 -0.158285 -2.49487e-19)
(-2.3338 1.65229 -5.38042e-19)
(2.34712 -0.163832 -8.04028e-20)
(3.15896 -1.42008 -1.11954e-18)
(2.43962 -0.335756 0)
(-1.37406 1.13367 5.42123e-19)
(1.73744 -0.540449 -3.23158e-19)
(0.739804 -0.893424 7.2062e-20)
(1.59027 -0.636823 -2.01817e-19)
(2.13504 0.580716 1.73279e-19)
(1.92989 -0.759325 1.473e-19)
(2.61709 -0.0540395 0)
(1.94116 0.00327408 0)
(1.75226 -0.260376 -1.53454e-19)
(3.28281 0.607202 -1.46084e-20)
(1.77614 -0.163116 3.64882e-19)
(0.300774 0.0753147 0)
(1.60406 2.05793 0)
(2.47674 1.11822 -8.56643e-19)
(1.8078 -0.53407 3.68116e-19)
(-2.25391 1.7232 0)
(1.87348 -0.15521 0)
(2.63108 0.82228 2.12541e-19)
(1.52449 0.278041 0)
(1.93068 -0.420348 3.10864e-19)
(1.04465 -0.506339 5.40662e-19)
(0.374438 0.369204 -2.77319e-19)
(0.871905 0.596811 0)
(1.65873 0.0649336 1.76053e-19)
(2.0584 -0.829296 0)
(1.78839 -0.29788 3.4902e-20)
(2.37153 -0.155953 8.68217e-21)
(1.08117 -0.334874 -6.35922e-19)
(2.89354 0.628622 2.87962e-19)
(3.82115 -0.150045 0)
(2.06943 0.043078 -2.5424e-21)
(1.7723 -0.521768 -5.38771e-20)
(-1.42402 2.01206 -1.30737e-18)
(1.67187 0.336533 5.87685e-21)
(2.39768 0.724982 -3.11115e-20)
(2.34793 0.0157396 6.57429e-21)
(1.51641 -0.0077192 1.53626e-19)
(0.823125 -0.338198 -1.23058e-19)
(2.70109 0.115634 -1.29514e-20)
(1.21132 -0.556614 0)
(2.39115 -0.0736628 0)
(1.39802 -0.666971 -7.38545e-20)
(1.97637 -0.142612 -1.23253e-19)
(1.71191 0.314691 3.10375e-19)
(1.8705 0.111656 -1.70899e-19)
(2.04684 0.0743502 -2.22135e-19)
(2.34764 -0.0737926 -2.97858e-19)
(-0.118817 0.253521 -2.28546e-19)
(1.8736 -0.305077 0)
(-2.65737 1.29257 -1.37837e-18)
(0.894033 -0.476662 1.11664e-19)
(1.99558 0.048639 1.46425e-19)
(2.2777 -0.158247 -1.26198e-20)
(1.64026 -0.313677 0)
(2.59208 0.100493 -6.13809e-21)
(2.28285 -0.205748 5.25117e-20)
(0.546082 -0.134146 1.63581e-19)
(2.03285 -0.134135 0)
(0.432032 -0.114594 0)
(1.98214 0.0366811 0)
(2.0518 -0.456578 0)
(2.11491 -0.737398 -3.73489e-20)
(1.83413 0.425475 0)
(0.637461 -0.270187 -4.60684e-19)
(2.30044 0.89507 -4.94221e-19)
(1.94834 0.0368064 3.99616e-22)
(2.63722 -0.0443212 -4.81261e-20)
(2.35254 -0.0521754 0)
(1.39651 1.41266 -2.38871e-19)
(-0.392944 1.4896 -1.23367e-18)
(3.22388 0.268321 0)
(1.86626 -0.00257715 2.77861e-19)
(1.09503 1.63367 -1.36478e-18)
(2.1953 0.618796 0)
(2.73915 0.00421882 0)
(1.05423 -0.252468 7.54241e-19)
(1.81454 0.474182 -4.21156e-19)
(2.29198 -0.0940399 -1.16514e-19)
(1.08953 -0.517549 7.63616e-20)
(-2.63982 1.09629 -9.07181e-19)
(-2.41047 0.975916 0)
(2.36568 -0.0970927 3.26028e-20)
(2.12606 0.837034 -1.50371e-19)
(1.95058 -0.786453 1.32263e-19)
(-0.524643 -0.0921703 3.65992e-19)
(-0.893347 1.92275 6.34121e-19)
(1.96803 0.0303978 -2.06698e-19)
(-0.375206 1.30258 1.13758e-18)
(2.15385 -2.28845 1.94288e-18)
(0.17408 0.0428617 -2.10688e-19)
(1.14115 -0.403851 -3.05704e-19)
(1.70809 0.0292414 1.68082e-20)
(2.64552 0.82601 3.01853e-20)
(0.280914 -0.166876 6.52642e-19)
(-0.485732 0.439798 7.5794e-19)
(1.97518 -0.826393 0)
(2.09371 0.0241178 3.34422e-23)
(-2.38952 1.33614 3.51507e-19)
(-0.132073 0.0897512 -1.05134e-18)
(-2.5007 0.740193 0)
(0.6337 -0.641091 0)
(1.84584 0.00447214 -2.56863e-20)
(0.503857 0.351051 3.41376e-19)
(1.8203 0.0923544 -6.43904e-20)
(-0.194043 0.113668 -4.71412e-19)
(0.843155 -0.567105 0)
(1.15103 -0.466561 2.61874e-21)
(-0.0258379 0.895289 -4.56362e-19)
(0.0665972 2.24799 -1.83441e-18)
(2.6094 0.503698 0)
(2.40544 -0.606821 0)
(1.98948 -0.121234 0)
(-1.72398 2.13724 -5.04664e-19)
(2.85789 -0.207756 2.14768e-19)
(0.560488 -0.12247 -6.88851e-19)
(2.8244 -0.148635 -2.38642e-19)
(2.87766 -0.264983 -4.22997e-19)
(-1.83076 0.810521 0)
(1.96126 0.0179265 0)
(2.67387 -0.0224208 4.89548e-20)
(2.40687 -0.151988 6.49291e-20)
(1.5941 -0.00321825 -1.7053e-19)
(-0.462372 2.53276 0)
(-1.1762 -0.785276 4.72389e-19)
(1.07565 -0.0513716 -2.24049e-19)
(2.42539 0.569805 -2.98775e-20)
(2.02741 -0.587745 1.54756e-19)
(0.855251 -0.218813 -1.63446e-19)
(2.53748 0.131803 0)
(2.34571 -0.153442 -6.43792e-20)
(2.02888 0.0269605 0)
(2.07669 0.0186073 -1.22807e-19)
(2.46894 -0.115677 -4.14932e-20)
(2.72931 0.0807276 8.39357e-20)
(1.63251 -0.395234 4.28338e-19)
(1.87005 0.420657 2.38267e-19)
(-2.35376 1.33927 -5.73168e-19)
(1.85122 -0.727068 -1.1968e-19)
(2.35533 1.80451 -7.31101e-20)
(2.08161 -0.00248488 0)
(1.85574 -0.418014 0)
(-2.47695 1.08007 0)
(2.27467 -0.190886 1.79449e-20)
(-0.649698 -0.169266 3.80996e-20)
(0.869071 -0.430911 3.44851e-19)
(1.95099 -0.0724841 -9.22303e-20)
(2.36994 -0.0241149 5.85301e-20)
(0.191333 0.0558264 6.45811e-19)
(1.81308 2.17485 5.56276e-21)
(2.56182 0.0599256 3.83101e-21)
(2.2475 -0.0829559 3.2459e-19)
(0.898511 -0.38225 0)
(2.51573 -0.300827 -1.07814e-19)
(-1.15565 -0.78655 -9.49182e-19)
(3.23731 0.176478 -5.27818e-19)
(0.329592 -0.579413 -2.38833e-20)
(1.78298 -0.263768 1.48179e-20)
(1.32474 -0.406983 3.22327e-19)
(2.10633 0.873629 0)
(1.9816 0.077501 -8.94622e-20)
(1.06933 -0.437468 -7.18039e-19)
(1.31667 -0.246793 6.55529e-20)
(1.33788 -0.642567 0)
(2.31486 -0.0840703 -9.56972e-20)
(1.05323 -0.506074 2.1054e-19)
(2.47599 -0.610912 1.46443e-19)
(1.76534 -0.716787 -1.94908e-19)
(2.31382 0.0781907 -9.05498e-20)
(2.3008 -0.153196 -6.51612e-21)
(0.99904 -0.492533 3.61677e-19)
(2.14649 -0.0373699 1.4832e-19)
(1.85942 -0.361024 0)
(1.8782 -0.839995 -1.16046e-19)
(1.71635 -0.715217 -6.23952e-19)
(2.41194 -0.267923 2.73812e-20)
(1.97772 0.0585464 3.60372e-20)
(1.4372 0.997183 0)
(1.71624 -0.236017 0)
(2.11739 -0.0548348 -1.28039e-19)
(0.310063 0.252012 2.07536e-19)
(2.55495 1.37857 0)
(2.29156 -0.0536954 9.94784e-20)
(1.84189 -0.774544 -8.29238e-21)
(0.917442 0.331273 -5.7792e-19)
(0.894514 -0.386842 -3.94304e-19)
(-1.6131 2.06458 4.81294e-19)
(1.87564 -0.0987828 5.23571e-20)
(-1.80386 1.9949 1.94267e-18)
(3.80942 -0.12744 -7.02766e-19)
(2.07257 -0.014537 0)
(1.41092 -0.134824 -9.06672e-20)
(1.31151 -1.06914 0)
(1.97211 0.0859669 -4.28991e-19)
(2.02558 -0.400496 0)
(2.03005 -0.0248669 -9.65617e-20)
(1.616 -0.230602 3.01389e-20)
(2.63022 -0.231255 -6.21063e-20)
(1.12695 -0.441684 4.033e-19)
(1.97621 0.0702082 -3.35325e-19)
(2.00659 0.22402 -4.42621e-19)
(2.1955 -0.889666 0)
(-0.373922 1.72289 0)
(1.20155 -0.479578 -3.8964e-19)
(2.58718 -0.273589 0)
(3.3777 0.929156 -6.58959e-19)
(1.58859 -0.344962 0)
(0.957599 -1.21585 -1.36119e-20)
(-2.28406 1.19917 8.80201e-19)
(1.78385 -0.555096 4.44691e-19)
(0.517311 0.425436 -6.01816e-20)
(2.39682 -0.333358 0)
(1.63358 -0.233701 -3.29904e-20)
(1.72117 0.00571928 -1.78795e-19)
(-2.14125 1.05881 -1.15867e-19)
(1.96137 0.0312479 -1.8099e-19)
(2.76922 0.0662113 -5.89594e-20)
(2.5956 -0.121895 -3.10145e-20)
(2.93258 1.14766 2.06655e-19)
(2.49494 0.459161 1.43256e-20)
(-0.633581 1.7176 -2.77242e-19)
(1.72776 -0.481804 0)
(-0.0284042 0.734439 6.91592e-19)
(1.97886 0.103458 -1.57308e-19)
(2.33652 -0.218097 0)
(1.99036 0.0271698 1.26381e-19)
(1.19183 -0.569566 -2.22352e-19)
(1.56695 1.23463 1.9932e-19)
(3.04915 0.442798 0)
(1.40636 -0.660274 9.01769e-20)
(-0.948168 -0.792851 0)
(2.1688 0.052818 5.09427e-20)
(2.73398 -0.410295 -2.25228e-19)
(0.232996 0.676641 9.37747e-19)
(1.03879 -0.0695771 0)
(1.56007 0.245239 2.14248e-19)
(1.98324 0.0365153 1.37383e-19)
(-0.357751 0.1615 0)
(1.61204 0.0315432 0)
(2.0382 -0.15642 0)
(-0.617689 0.346222 1.13809e-18)
(0.945533 0.257007 -5.55691e-20)
(2.947 0.023662 0)
(2.00267 0.0195083 0)
(1.62341 -1.95559 3.47597e-19)
(0.438619 -0.261886 0)
(2.37225 0.458254 4.45034e-20)
(2.69955 1.30408 9.40182e-20)
(1.9115 0.748095 -6.69263e-20)
(1.82716 0.381403 -6.06272e-21)
(0.911817 0.414587 6.64281e-19)
(2.68876 1.47372 -1.1426e-19)
(2.31267 -0.152749 3.4105e-21)
(2.15013 -0.0584865 1.11098e-19)
(1.61508 -0.153548 -2.12014e-19)
(1.31712 -0.357735 -5.10584e-23)
(2.00744 0.0144298 0)
(-1.86818 2.00254 -1.87633e-18)
(1.02573 -0.472246 0)
(-0.650749 -0.552572 -2.79117e-20)
(2.37046 -1.62528 0)
(2.04642 -0.283278 0)
(1.37036 -0.648426 -1.17231e-19)
(2.23001 0.0698406 5.38268e-22)
(-0.253362 0.153391 -9.37077e-19)
(2.11889 0.029145 3.2597e-21)
(1.85849 -0.697852 1.95431e-19)
(2.8603 1.23761 1.19791e-19)
(0.22573 -0.587672 8.37267e-19)
(2.66859 0.0263405 5.31895e-21)
(2.20351 -0.825182 -3.07559e-20)
(1.95197 0.0440032 -2.59075e-19)
(0.566861 0.0355635 0)
(1.8119 -0.12615 -3.78255e-19)
(1.85736 -0.462624 2.428e-19)
(1.99836 0.113098 -5.89644e-19)
(-2.25829 1.07762 -6.48958e-19)
(1.49507 1.22766 -1.60767e-19)
(2.62981 1.36307 1.50015e-19)
(3.51791 0.24023 0)
(2.4184 -0.412271 0)
(-0.0218001 0.143015 -3.47706e-19)
(2.11479 -0.0883701 6.93191e-20)
(-2.4464 1.10539 0)
(2.26669 -0.0811814 -8.13416e-20)
(1.99394 0.000918508 -2.81628e-19)
(-2.27613 1.00049 -4.07158e-19)
(-2.50289 0.962445 1.86979e-18)
(2.56499 -0.154645 -2.90519e-21)
(-0.460934 2.42213 -4.30607e-20)
(2.3048 -0.188487 -3.24652e-20)
(1.96493 -0.428724 1.43929e-19)
(3.2346 1.25073 5.19925e-19)
(1.55168 -0.627442 2.63293e-19)
(1.32678 -0.0261508 5.78139e-21)
(1.00863 0.270613 4.79661e-19)
(1.8962 1.93668 0)
(1.73742 -0.455245 1.61432e-19)
(-2.57365 1.40517 0)
(0.979673 -0.0972788 -1.79047e-18)
(0.847636 2.0285 0)
(-2.08804 1.13601 -2.21966e-18)
(1.65305 -0.691238 -3.33773e-19)
(0.712437 0.541489 -1.64232e-19)
(2.26149 -0.854924 0)
(-1.37941 -0.571817 0)
(3.28526 0.14589 0)
(1.99503 0.0860733 1.1451e-19)
(-0.262951 -0.451096 -6.07372e-19)
(-0.139716 0.407893 6.94048e-19)
(1.61724 -0.299243 -8.19486e-21)
(3.15443 1.27004 -6.0758e-19)
(2.05529 0.255971 0)
(1.13235 1.86366 3.37597e-19)
(2.32424 1.3484 2.61094e-20)
(-1.07939 -1.01375 -2.32725e-19)
(1.64955 -0.754292 5.50569e-20)
(2.39414 -0.283303 7.25414e-21)
(1.22031 -0.587645 3.17348e-19)
(2.22846 0.467628 0)
(2.7336 -0.384584 2.10391e-19)
(0.137227 -0.186651 2.44551e-19)
(1.97075 -0.0317222 1.75331e-20)
(3.38418 1.07132 -3.43498e-19)
(2.6019 -1.58397 0)
(2.4632 0.81793 0)
(0.87723 0.187348 0)
(0.963222 -0.496453 0)
(1.78757 0.0316831 0)
(1.41869 -0.522099 1.23375e-19)
(3.51367 1.2134 5.29269e-19)
(1.46797 -0.602259 3.26127e-19)
(2.05664 0.0573953 2.17365e-19)
(-2.52551 1.4698 0)
(2.17891 -0.859271 3.20999e-21)
(-0.342311 0.424061 0)
(-2.49286 1.49681 -1.2772e-18)
(-0.275721 0.227605 3.87369e-19)
(3.34965 0.889341 -3.17893e-19)
(1.98736 0.107856 2.96231e-19)
(2.02808 0.2399 -1.01403e-19)
(3.18011 0.652647 -2.51637e-19)
(2.58159 0.0159262 0)
(0.32668 -0.524566 7.61894e-19)
(2.00458 0.0221561 0)
(1.4837 0.88167 1.60263e-20)
(2.39584 -0.149136 0)
(2.10329 0.231869 -1.35e-19)
(2.07865 -0.0770492 0)
(0.928888 -0.355354 -2.7899e-19)
(0.27408 -0.0923203 1.20005e-18)
(2.56608 -0.288491 -1.77119e-19)
(1.35204 0.382647 4.35108e-19)
(-0.872153 0.53195 -2.33557e-18)
(2.92219 -1.21927 0)
(1.02764 -0.221763 -1.06796e-18)
(1.53392 -0.313983 -1.91037e-20)
(3.29211 0.473247 -8.52652e-19)
(1.73887 0.0149118 -4.94091e-22)
(2.95975 0.693849 1.26425e-18)
(2.2572 0.92314 0)
(1.83072 -0.803989 -3.37371e-20)
(1.67204 -0.736755 0)
(2.3666 -0.205154 1.25177e-20)
(0.485007 -0.144585 7.16331e-20)
(-2.16433 1.90749 0)
(2.39452 0.454417 0)
(1.24425 -1.74727 -1.50419e-18)
(2.40268 0.777722 0)
(1.61197 1.71047 2.47426e-19)
(2.78422 1.09168 -1.98365e-19)
(0.898807 -0.195344 -5.82727e-19)
(-2.39469 0.953528 -7.39012e-19)
(1.98178 0.0301635 -4.95978e-21)
(-1.38387 0.822805 -1.00863e-19)
(0.337766 -0.200831 -7.55106e-19)
(1.88778 0.00233827 4.18949e-19)
(-2.30091 0.99371 4.6497e-19)
(-1.89694 1.01245 0)
(2.45271 0.191261 -2.4257e-20)
(0.0708565 -1.54394 1.9351e-18)
(0.412501 0.209055 7.86047e-20)
(3.3748 0.662419 6.95778e-19)
(2.57802 1.66405 0)
(1.84805 -0.496813 -2.44975e-19)
(1.77083 -0.254094 -1.36789e-22)
(1.46664 0.778195 -6.23141e-20)
(2.93234 0.000567841 -3.94613e-19)
(-2.47803 0.788924 5.11915e-19)
(-1.77235 2.20618 1.19322e-18)
(1.48282 -0.586898 -7.93207e-20)
(-2.52947 0.954273 2.86903e-20)
(2.97815 -0.104493 -4.18193e-19)
(-2.5101 0.741093 -5.74928e-19)
(2.61777 -1.26613 0)
(1.9352 -0.146893 -3.50611e-19)
(-1.10567 -0.516991 0)
(-1.82994 0.332416 -5.97597e-19)
(-0.690344 -0.187219 2.07001e-19)
(-0.737935 -0.315912 5.76344e-19)
(1.44855 -0.396998 1.56968e-20)
(-0.927071 0.671079 1.05177e-19)
(-0.84304 0.00719648 0)
(2.33278 -0.760486 -1.84778e-19)
(2.38201 -0.836414 -1.42185e-19)
(-1.02901 -0.253416 -5.21662e-19)
(1.77575 0.496139 0)
(1.66772 0.468008 0)
(0.223977 0.309623 0)
(1.17181 -2.16302 -2.7118e-19)
(1.90392 -0.0329612 -3.71378e-19)
(1.3217 0.179301 0)
(2.72052 -1.38316 0)
(2.27119 0.192031 -2.54246e-20)
(1.73525 1.1012 -4.89168e-20)
(2.09054 0.313531 -4.12785e-19)
(2.50785 0.0706235 -7.13849e-19)
(1.64261 0.0391759 7.66672e-20)
(2.04485 0.00261782 -6.71928e-20)
(1.57294 -0.269349 5.8275e-20)
(1.9275 0.524649 -3.00799e-20)
(1.794 1.20103 0)
(0.348737 -0.197807 -2.77839e-21)
(-0.248903 -0.631894 0)
(1.03706 0.144882 0)
(2.93699 0.493563 -3.56081e-19)
(-2.4342 1.72667 0)
(2.4952 0.457264 0)
(1.94895 -0.119572 5.41955e-19)
(2.00371 -0.844853 0)
(2.03275 0.248777 4.51196e-19)
(3.32173 0.853777 3.42237e-19)
(3.14127 0.897944 1.16517e-19)
(1.2591 -0.140578 -7.23083e-21)
(1.06178 1.26493 2.80139e-19)
(2.37476 -0.813511 -5.20143e-21)
(2.33199 -0.813287 2.7411e-20)
(1.1752 -0.458387 3.84995e-19)
(-1.93235 0.746641 0)
(0.970023 -0.478466 0)
(-2.10491 1.57656 -1.44826e-18)
(0.278356 -0.0565122 -1.60101e-18)
(-1.26039 -0.404354 0)
(-2.1007 0.772058 8.44826e-19)
(0.29454 -0.195358 0)
(0.0171925 -0.635566 7.7767e-19)
(1.13832 -0.528786 -4.8873e-19)
(3.40948 0.728855 -1.54788e-20)
(3.07423 1.03338 2.55024e-19)
(1.21771 -0.413611 7.70134e-20)
(2.92429 -0.057534 1.87604e-19)
(2.23464 0.976886 0)
(2.3217 0.940045 0)
(1.07908 0.0113328 0)
(-0.563436 0.191523 -3.63364e-19)
(1.42191 -0.52629 0)
(2.22907 0.763708 0)
(1.64168 0.0148619 0)
(2.13508 0.0130083 -9.57095e-21)
(0.963465 -0.236758 2.64896e-19)
(2.12063 -0.759212 -1.58098e-20)
(0.865428 -2.17612 7.84983e-19)
(1.68752 -0.362943 0)
(-1.88706 2.01204 0)
(2.02666 -0.544476 -1.40856e-19)
(1.54671 0.533894 6.78186e-19)
(-1.07403 0.93757 -6.77491e-19)
(2.55848 -0.0435308 3.40514e-21)
(1.77218 -0.439106 2.87967e-19)
(0.983275 0.44018 -1.05565e-18)
(0.24141 -0.0580488 0)
(1.14626 1.26608 -6.57505e-19)
(0.395636 0.346233 -6.5595e-19)
(3.17783 0.761305 0)
(2.18675 -0.0490492 0)
(2.1571 -0.0491191 0)
(2.05464 0.0247075 -4.03952e-19)
(1.42439 0.286539 -4.41552e-19)
(1.65886 0.122356 0)
(2.19781 1.30499 9.75248e-19)
(1.85909 -0.812668 1.63789e-19)
(2.2356 -0.124663 2.3192e-20)
(-2.33082 1.42287 7.28271e-19)
(2.10411 -0.247695 0)
(2.49202 0.10503 -8.74136e-22)
(1.80651 -0.395684 0)
(-0.192608 -1.42387 -1.90253e-18)
(1.79305 -0.798139 0)
(2.23948 -0.724084 -6.65575e-20)
(2.62966 0.142555 3.03141e-22)
(2.25803 0.751149 8.84739e-20)
(2.2674 -0.130501 0)
(1.87417 -0.777309 0)
(1.62885 -0.683657 -3.63666e-19)
(2.31029 0.407818 -4.91628e-20)
(-2.53536 1.23639 6.98319e-19)
(0.887961 -0.428774 3.96291e-19)
(1.93384 -0.07632 0)
(1.57831 0.195783 -6.55943e-19)
(2.41282 0.0225641 -7.75123e-20)
(1.38103 -2.33626 -3.57891e-19)
(2.16684 0.384996 1.3851e-19)
(2.4944 -0.17675 0)
(1.18434 -0.354519 5.52232e-19)
(0.98741 0.189808 -6.56037e-19)
(3.30579 1.01329 7.95465e-21)
(1.79092 0.227052 -7.65874e-19)
(-2.4308 1.42631 6.55321e-19)
(-0.0165756 0.439761 -1.49987e-18)
(2.5459 0.438199 6.75099e-19)
(2.07066 -0.0217475 -3.14026e-20)
(0.344038 0.339772 7.64075e-19)
(-0.227386 0.166313 -1.68283e-21)
(-2.46209 1.51154 1.21642e-18)
(-2.48545 1.24724 1.35672e-18)
(1.86582 -0.0762362 8.10925e-20)
(2.33046 -0.134757 0)
(0.350586 -0.216484 5.43754e-19)
(1.22863 -0.592704 1.35577e-19)
(1.68585 -0.221807 1.97265e-19)
(-0.269409 0.314886 0)
(1.67399 -0.361998 -5.10248e-20)
(1.79568 0.124499 -9.62541e-22)
(2.05634 0.0398996 0)
(0.380662 -0.25643 5.20463e-19)
(-1.39378 0.18923 5.52982e-19)
(1.73429 -0.309327 0)
(1.06112 -0.404337 0)
(1.55616 -2.04655 -3.36381e-19)
(1.65083 -2.47877 -1.78597e-19)
(2.85962 0.450716 1.26437e-19)
(-0.390685 0.245052 0)
(1.91692 -0.00692507 -2.9124e-19)
(3.27718 -1.07248 -2.76825e-19)
(2.3221 -0.667119 -1.43528e-20)
(1.22633 -0.477175 4.76231e-19)
(-2.46922 1.60294 -1.00013e-18)
(-2.41412 1.67278 7.96157e-19)
(3.61934 1.00164 -6.88973e-21)
(2.86087 0.637044 0)
(1.77079 0.884198 -7.51543e-19)
(1.61632 -0.62577 1.87805e-19)
(1.89222 1.92941 9.33587e-20)
(0.824478 0.579022 0)
(1.14746 -0.238743 -5.00261e-19)
(1.23454 -0.523134 -5.74019e-19)
(-2.20919 1.75984 1.06121e-18)
(0.723876 -0.400656 -8.48513e-19)
(1.98739 1.39766 0)
(-0.181711 0.480291 -4.37721e-19)
(2.24795 0.56714 0)
(-0.888015 -0.801583 -6.11902e-19)
(-0.0898867 0.725462 9.98868e-19)
(0.0889317 0.609389 0)
(-2.31474 1.73088 4.23016e-19)
(1.6448 -0.103172 -8.65738e-20)
(1.12374 -0.356746 3.24708e-19)
(1.72226 -0.659229 3.09435e-19)
(-1.82743 1.43709 -2.2644e-18)
(1.20494 -0.549858 0)
(1.99154 0.0184804 1.34976e-19)
(0.537123 0.178889 0)
(2.2442 0.238154 -5.76733e-21)
(-0.695517 0.354293 -8.4072e-19)
(0.592411 -0.233347 2.76301e-19)
(2.43353 -0.42251 0)
(1.96328 -0.750597 -1.45375e-19)
(3.18234 0.286496 1.41333e-19)
(-2.29267 1.78904 1.82487e-18)
(-1.02994 -0.166465 0)
(-2.30458 1.72129 -1.63039e-18)
(2.91946 0.96927 -8.02801e-19)
(1.64443 0.19012 8.40473e-19)
(2.60118 -0.994465 0)
(2.77775 -0.285782 4.47943e-19)
(-0.66208 0.2178 7.79133e-19)
(1.14234 -0.144098 -1.32209e-19)
(2.24924 -0.47483 -4.25586e-21)
(-2.47186 1.37919 0)
(2.07149 -0.735601 -7.3416e-20)
(1.48673 0.357574 -1.95796e-21)
(2.24291 -0.13716 5.88293e-20)
(2.37371 0.0275671 0)
(-1.9809 2.15463 7.69337e-19)
(1.70837 -0.432531 1.71324e-21)
(1.26546 -0.371529 5.90173e-20)
(1.16577 0.561913 0)
(2.15725 -0.780287 1.45341e-20)
(-2.06065 1.6677 1.74797e-18)
(1.78703 -0.394406 -3.62712e-19)
(-0.261932 0.120269 0)
(1.19167 -0.396904 -1.29662e-19)
(2.18066 -0.746489 1.12816e-21)
(-2.36242 1.48245 -1.22278e-18)
(1.5499 -0.316053 0)
(0.897886 -0.293842 1.15436e-18)
(2.00624 -2.2421 0)
(-1.54353 2.21232 9.69911e-19)
(2.00203 -2.2276 0)
(1.92636 -0.122899 -2.0285e-19)
(2.17274 -0.168961 -1.52642e-19)
(2.47046 1.31007 -4.87639e-19)
(1.385 -1.71615 0)
(2.1344 -0.87103 4.19684e-20)
(2.00413 0.0124787 0)
(2.38606 0.443422 0)
(2.33019 -0.87907 -1.23632e-19)
(-1.76744 2.1571 7.30399e-19)
(0.589907 -0.0632424 1.75253e-19)
(2.19052 -0.491295 -1.09175e-20)
(1.68232 0.28638 2.82009e-19)
(-1.53362 0.659121 -3.2923e-19)
(2.07247 0.278056 1.89441e-19)
(0.29975 -0.141558 -1.19252e-19)
(1.10652 1.88581 0)
(2.45773 0.295667 0)
(0.144276 0.109482 0)
(-2.30392 0.201398 2.31718e-18)
(1.18968 -0.417288 -3.40827e-19)
(1.50718 0.116759 0)
(-2.35208 1.17323 1.98024e-18)
(2.31353 -0.106908 -1.0356e-19)
(-2.44278 1.28228 -7.65044e-19)
(1.39835 -0.490782 -1.02726e-19)
(2.36267 -0.850785 0)
(0.897849 -0.209691 1.00295e-18)
(0.379864 -0.199644 -1.18422e-18)
(0.238233 0.432414 0)
(-0.393875 0.424327 -5.91458e-19)
(1.62033 0.0434022 -1.83803e-20)
(2.75445 -0.200597 9.99015e-20)
(1.95279 0.0551675 2.31825e-19)
(2.62703 1.17208 -1.87747e-19)
(2.40838 0.231895 -3.42524e-21)
(-1.35802 -0.684632 0)
(2.02945 -0.753172 0)
(-2.24881 1.13765 1.95654e-18)
(0.097931 -0.5596 0)
(1.67091 -0.327487 -5.19899e-20)
(2.30109 -0.728317 1.06437e-19)
(1.01232 -0.477712 4.11064e-19)
(2.4199 -0.273521 -1.64716e-19)
(1.7324 0.342966 -2.84861e-19)
(1.57387 -0.613872 -1.90209e-19)
(1.66866 -0.644545 -3.29122e-19)
(1.47269 -2.34411 0)
(1.77941 -0.667471 2.77334e-19)
(2.13435 -0.182489 0)
(2.25089 -0.0858468 -1.78677e-21)
(1.90344 1.27081 3.47802e-20)
(0.688846 -0.371208 1.54958e-19)
(2.23855 -0.260096 -6.98118e-20)
(0.302202 -0.597011 -6.39467e-19)
(0.359092 -0.22765 0)
(0.885535 -1.3846 -6.36699e-19)
(-0.880165 2.47948 -1.36688e-18)
(2.04421 0.534648 -2.14846e-19)
(1.90153 -0.734294 1.96339e-19)
(2.16345 0.0209486 -6.0961e-21)
(0.839327 -0.376501 2.95205e-19)
(2.11825 -0.817448 2.24007e-19)
(0.369074 0.110165 0)
(-2.49629 1.31505 2.27211e-18)
(1.80862 -0.343605 1.94187e-19)
(2.10147 0.0315261 -8.39745e-23)
(1.20593 -0.529118 8.44005e-19)
(-0.918517 -0.388737 3.2886e-20)
(1.70882 0.583997 0)
(-2.30305 0.58876 -9.03582e-19)
(-2.05364 2.05851 -1.11966e-19)
(1.10411 -0.343703 -6.66023e-19)
(-2.09174 0.0131729 1.04319e-18)
(2.11303 1.00345 -2.09021e-19)
(2.05844 0.476919 5.20481e-21)
(0.984235 -0.403831 3.03454e-19)
(1.83063 -0.344241 0)
(2.55418 0.197865 -7.74167e-20)
(2.60745 -0.0507481 -6.0033e-21)
(2.9265 1.02355 -2.41843e-19)
(-1.20474 -0.794423 0)
(3.40526 1.26055 1.12818e-20)
(-0.475231 -0.646902 5.86969e-19)
(1.66893 -0.708911 6.76226e-19)
(0.0370156 -0.152868 1.19578e-20)
(-0.928311 -0.76497 -3.9996e-19)
(0.888125 -0.146853 1.92668e-18)
(2.0965 -0.731688 8.33172e-20)
(2.27595 0.0171998 -2.47195e-21)
(-0.400037 -0.154091 -8.42761e-21)
(2.93401 0.106745 4.23625e-20)
(0.399745 0.680888 0)
(2.00005 0.023385 0)
(2.33962 0.527477 0)
(1.83369 -0.680475 -2.21011e-19)
(2.55 -1.94606 1.32069e-18)
(-1.09637 -0.184204 0)
(1.23115 -0.374564 -1.40582e-19)
(-0.338619 1.4177 0)
(3.5775 0.594168 0)
(-1.29136 -0.440601 0)
(1.90548 -0.00271862 0)
(0.855419 -0.27476 -3.5667e-19)
(0.342515 -0.227503 0)
(2.91357 0.830399 1.18828e-18)
(1.21302 0.0293943 0)
(1.45669 0.224553 0)
(1.92635 0.207912 2.05448e-21)
(0.321737 -0.133226 0)
(3.52846 -0.264449 0)
(-0.831571 0.0762404 0)
(2.57036 0.0267919 1.02391e-20)
(1.73131 -0.171 0)
(2.45675 -0.826727 2.00668e-20)
(1.1799 -0.420764 7.64475e-22)
(0.389556 -0.112688 -3.36253e-19)
(1.97797 0.0421723 6.09239e-19)
(-0.0931845 -0.158935 -5.10068e-19)
(1.04838 0.844472 -5.78198e-19)
(1.42016 0.703173 0)
(2.2885 -0.165173 -6.35634e-21)
(1.68158 -0.175091 -1.926e-19)
(1.49664 1.58703 1.70437e-19)
(1.82665 0.376008 4.21183e-19)
(0.811569 -0.29144 -6.59647e-19)
(1.55689 -0.672864 -2.88645e-19)
(2.16625 1.45914 1.59742e-19)
(-0.00506682 -0.582995 0)
(2.76283 0.135225 -2.41488e-19)
(0.369487 -0.835532 7.50101e-19)
(2.66041 0.39616 -4.36012e-20)
(-1.38238 1.21213 0)
(1.87107 0.0394888 -2.60135e-19)
(2.43545 1.03787 -8.23438e-19)
(1.38518 -0.549574 4.16158e-19)
(1.26221 -0.570309 -5.13629e-19)
(1.73259 -0.787872 0)
(1.83731 -0.789732 0)
(3.0186 0.779072 1.60475e-18)
(2.289 -0.234029 -1.42029e-20)
(3.37994 0.62473 -4.26385e-19)
(1.75196 -0.0389486 4.59519e-20)
(1.20879 -0.343551 -1.32331e-19)
(1.75241 -0.490177 2.9535e-19)
(2.47162 0.306946 0)
(2.38959 0.300684 -1.92695e-20)
(0.726192 -0.104637 -1.48087e-18)
(2.1603 -0.409004 3.06303e-18)
(2.05672 -0.0551555 -4.82292e-19)
(-0.793133 0.331922 5.07328e-19)
(3.1867 0.637443 3.5605e-19)
(2.48702 0.777567 1.29403e-21)
(2.34649 0.624152 0)
(-2.52057 1.0666 0)
(2.45017 -0.805186 1.41678e-20)
(1.16271 -0.264565 0)
(1.88656 -0.376621 1.14351e-19)
(1.64072 0.232766 4.84895e-19)
(1.66446 0.439767 -1.50262e-19)
(1.63741 -0.651684 7.16172e-19)
(1.38569 0.385589 1.70166e-21)
(1.33319 -0.0482778 0)
(1.9273 -0.0825821 -9.20999e-21)
(-0.892158 0.000215481 -7.34583e-19)
(2.12513 0.279549 0)
(2.17834 -0.0901986 0)
(2.00223 -0.773588 4.63887e-20)
(1.93585 0.528762 2.50188e-19)
(1.0923 -0.17919 0)
(4.26867 -0.250955 1.57096e-19)
(2.88183 0.0191564 1.57924e-19)
(2.34856 0.325667 6.49966e-20)
(1.74703 0.459428 4.3971e-19)
(-2.47112 0.833544 -1.05073e-18)
(1.23875 -1.29424 0)
(0.00233854 -0.63965 -1.49878e-18)
(0.561241 -0.245456 9.95216e-19)
(1.96896 0.0291815 1.44536e-20)
(-0.250972 -0.653341 -6.64564e-19)
(1.87198 -0.750906 1.49055e-20)
(2.6132 0.445275 1.04894e-19)
(0.908852 1.69029 0)
(1.97895 0.163915 2.42471e-21)
(1.8432 0.0295878 7.9851e-20)
(2.03613 -0.00580466 -9.97565e-20)
(2.11445 0.508452 -1.92045e-19)
(2.3916 -0.749655 0)
(-2.35588 0.875364 0)
(2.59206 0.00967933 0)
(2.29689 0.425673 -1.20574e-19)
(1.08253 -0.507847 6.38143e-19)
(2.23527 1.72026 -3.77848e-20)
(1.49559 -0.104691 0)
(-0.0340113 0.289458 -2.85714e-19)
(-2.43262 0.477175 1.07118e-18)
(-0.989454 1.96183 0)
(1.92516 0.259083 -1.33951e-19)
(1.65784 0.230933 -1.59796e-19)
(3.37104 0.0687124 -1.04706e-19)
(2.00978 0.543143 1.10607e-19)
(0.713346 -0.252142 0)
(2.1599 0.212952 -2.15384e-19)
(2.0499 -0.385154 0)
(2.10256 -0.247503 1.19002e-20)
(1.0142 0.0614414 0)
(2.17609 0.874515 1.67966e-19)
(1.74806 -0.681801 -2.85183e-19)
(2.3498 0.859718 0)
(1.86339 -0.114356 -3.69464e-19)
(2.28805 0.0445797 -1.72854e-19)
(2.0161 -0.896818 0)
(1.1696 -0.549239 0)
(0.544911 0.178131 -8.72496e-20)
(2.32542 -0.195425 -9.59403e-21)
(0.0103064 -1.08023 -8.85059e-19)
(-0.441477 0.769439 1.37352e-19)
(2.87285 -0.0456117 -3.21697e-21)
(0.924107 0.463864 6.04602e-19)
(1.75984 0.387375 -1.86761e-21)
(2.0198 0.530907 0)
(3.21499 1.06391 3.58596e-19)
(1.78952 -0.800693 0)
(1.54367 -0.695939 -3.08156e-19)
(1.88589 -0.791996 -2.328e-19)