/*--------------------------------*- C++ -*----------------------------------*\
| =========                 |                                                 |
| \\      /  F ield         | OpenFOAM: The Open Source CFD Toolbox           |
|  \\    /   O peration     | Version:  2306                                  |
|   \\  /    A nd           | Website:  www.openfoam.com                      |
|    \\/     M anipulation  |                                                 |
\*---------------------------------------------------------------------------*/
FoamFile
{
    version     2.0;
    format      ascii;
    arch        "LSB;label=32;scalar=64";
    class       surfaceScalarField;
    location    "3.4";
    object      phi;
}
// * * * * * * * * * * * * * * * * * * * * * * * * * * * * * * * * * * * * * //

dimensions      [0 3 -1 0 0 0 0];

oriented        oriented;

internalField   nonuniform List<scalar> 
20045
(
0.828141
-0.945617
0.117476
-1.67293
0.69864
0.974288
0.446577
3.08788
-3.53446
0.266531
-0.162635
-0.103896
-1.56324
1.25795
0.305286
-0.934467
3.27394
-2.33947
-1.32852
0.0652836
1.26324
0.0566879
0.802525
-0.859212
0.844926
0.639853
-1.48478
-1.05266
-0.234968
1.28762
0.00563152
-0.696516
0.690885
3.07586
-1.4662
-1.60966
0.638657
-0.632926
-0.00573108
-1.71557
1.50427
0.211302
-0.0993856
1.33518
-1.2358
-1.49449
0.441829
-0.0602366
-0.212929
0.273165
-0.45183
0.270752
0.181078
-2.40226
3.50404
-1.10178
-1.1669
-0.0198389
1.18674
-0.631825
0.40953
0.222295
0.226327
0.412331
-0.332925
-1.34
2.3291
0.51769
-2.84679
1.20869
0.213785
-1.42247
-0.786808
3.11591
0.210996
-0.145713
-0.0652825
-1.99902
4.09171
-2.09268
2.11069
0.675012
-2.7857
-4.53934
2.74133
1.79801
0.888733
1.09293
-1.98166
1.71686
-1.48798
-0.228886
-0.71616
2.34002
-1.62386
4.53751
-2.47589
-2.06162
-1.00966
1.06635
2.92406
-1.43409
-1.48997
1.53439
0.649148
-2.18354
-0.108586
0.673549
-0.564963
-3.32475
1.7507
1.57405
0.933719
0.885736
-1.81946
-0.111564
0.986626
-0.875062
0.308306
-0.426526
0.118219
3.66714
-3.66622
-0.000921886
2.10083
-0.713438
-1.38739
0.92153
1.1793
1.36791
1.70795
-0.941074
0.237156
0.703918
1.9998
0.412968
-2.41277
2.3285
-0.794111
0.418943
2.81106
-3.23
1.9993
-3.28903
1.28972
2.99612
-2.05531
-0.940811
-1.55235
-1.02414
2.57649
-0.166684
-0.51272
0.679404
-0.417047
-0.425788
0.842834
-1.09566
-0.467582
0.715693
2.09794
-2.81363
2.46487
0.463723
-2.9286
2.09305
-2.80921
2.6033
-2.14117
-0.462127
-0.164863
-0.565103
0.729966
0.611954
1.99134
0.523114
-2.60454
2.08143
-0.330095
-0.30173
-0.984866
1.85613
-0.871261
1.64941
0.750471
-2.39988
0.134574
-0.0421683
-0.092406
-1.03894
0.131872
0.907073
1.42846
-0.58353
2.41724
-2.46344
0.0462069
-0.0152431
0.149817
0.434402
-0.851449
-0.409146
-1.64567
2.05482
0.653969
-0.446479
-0.20749
1.81808
0.123916
-1.94199
2.66256
-1.94686
-0.540936
2.35901
1.00081
-1.10019
1.38241
-0.832405
-0.550005
-0.0621024
-2.07946
2.14156
1.46341
1.55882
-3.02223
1.30533
-1.14818
-0.157151
1.88841
-1.3653
-3.76726
0.544156
3.2231
-0.00952401
0.837665
-0.565401
0.772151
-0.20675
0.485566
-1.74357
1.25801
-2.37426
0.0436307
2.33063
1.45359
0.388043
-1.84163
-1.17961
0.982697
0.196913
-1.76627
-0.0806691
1.84694
1.32476
-0.350307
-0.974454
0.674242
-1.00049
0.32625
-0.36767
-1.18541
1.55308
0.995154
-1.09455
0.0993953
2.26472
0.236073
-2.5008
0.0581679
0.152828
-0.243781
0.388925
-0.145144
1.95887
-1.02515
-0.067022
-0.114967
0.181989
2.00957
0.914492
-0.601546
-1.11403
0.307825
-0.551607
-0.713519
3.17839
0.0897172
-0.655118
0.027821
-0.094843
0.582255
1.89331
-2.47556
1.59975
-3.0873
1.48754
0.441336
-0.860184
0.726188
0.133996
-0.486584
0.612614
-0.12603
1.39119
-1.4236
0.0324133
-0.855165
0.688481
2.58098
-4.19571
1.61473
-0.380473
0.580544
-0.200071
0.0879305
-0.585344
0.497413
1.58659
-0.377909
3.16166
1.37585
-1.86929
1.46015
1.53411
-2.4983
0.964189
-0.0200844
-0.431746
-0.724103
0.55924
-1.34035
1.06033
0.280022
-1.725
0.206246
-1.03107
0.82482
1.97224
1.02388
1.59596
-2.26436
0.668407
2.34144
0.277423
-2.61887
-3.961
2.81145
1.14955
-2.21405
-0.153352
2.3674
3.083
-1.11076
1.05127
-0.814115
0.349644
0.286215
-0.63586
0.136925
-0.0819022
-0.0550229
1.73751
1.17416
-2.91166
1.80714
-1.62709
-0.180055
-0.431024
0.0737375
0.357287
-0.619637
-0.240547
2.74894
-1.21483
-1.15894
1.16576
-0.00681802
1.6804
-3.4504
1.77
0.36328
-1.91563
1.29561
0.708139
-2.00375
2.3894
-2.4515
3.42101
-0.417348
-3.00366
1.21524
-2.29964
1.0844
2.59603
-1.56735
-1.02868
-0.346021
0.460665
-0.114644
-0.288578
3.38084
-3.09226
3.06157
-0.95088
-2.46007
0.0557297
2.40434
-1.62676
1.06781
0.558946
2.73216
-1.26875
0.354516
0.950811
-1.83502
2.2215
-0.386477
-2.61506
3.06164
0.0137939
-0.760736
0.746942
-0.753307
-0.711323
1.46463
-0.0789056
-0.630318
0.709224
1.90906
0.354606
-2.26367
4.17744
-2.09635
-2.08109
-0.770569
0.691663
0.911499
-1.35364
0.442137
0.37924
-0.0709341
-2.76883
-1.21483
1.85842
-0.643586
-1.83561
1.32614
0.509466
-0.0253745
-0.180175
0.20555
1.35591
1.24012
0.0912726
0.0456524
-0.536105
0.885749
-2.02316
0.188137
-2.24847
2.77526
-0.526792
-2.09047
2.17014
-0.079674
-1.47443
-1.2755
2.74993
0.140804
0.842104
-0.982908
1.17086
-1.19382
0.0229578
3.10083
-0.147028
-2.9538
-0.0556253
-2.23917
2.29479
-1.0466
2.34222
0.57954
-1.77291
1.19337
-1.70346
4.28444
-2.22593
1.65148
0.574447
-0.108525
0.143045
-0.0345197
1.57915
-3.59639
2.01724
-3.243
1.24397
-1.48789
-1.65998
4.07523
-2.57558
-1.49964
-1.21874
1.10718
0.57638
-0.616919
0.0405389
-1.62984
-0.730281
2.36012
-2.94668
4.15523
-1.20855
3.1099
-2.47607
-0.633829
0.0322447
-0.590339
0.558094
-1.25448
-1.44242
2.6969
0.582979
-0.577347
-1.37669
-0.837367
-2.26982
-0.690558
2.96038
0.40287
0.0996132
-0.502483
0.450197
-1.66503
-0.935938
1.82467
2.5126
-0.171155
-0.560657
0.452071
-0.685284
0.859511
-0.174227
-0.806994
2.71606
-2.93086
1.67638
-0.723767
-0.203655
0.927423
-2.22047
0.474185
1.74629
0.822878
2.28702
3.79899
-2.21985
2.72983
-4.4323
1.70247
2.73661
-4.0279
1.29129
0.183843
-1.35075
-1.54772
2.12997
1.86554
-2.80001
2.21609
-3.76936
1.55327
-4.79176
2.48778
2.30399
-0.165009
-1.0146
0.598043
0.495608
-1.09365
2.17493
-0.919824
-1.25511
-0.175204
-2.36365
2.07507
-0.847544
-0.3114
1.90762
2.82681
-2.15277
-0.674034
-0.0366461
-0.46696
0.503606
1.8601
0.434705
-2.29481
-1.14444
-0.690307
1.83475
-1.25849
3.12172
-1.86323
-1.63688
2.12245
1.8295
-1.24996
-0.194828
1.5279
-1.33307
2.92842
-1.24803
0.406227
-0.0349255
-0.371301
-0.220359
-0.639848
0.860206
-0.467085
0.486867
-0.0197813
4.04721
-2.55237
-1.49484
0.838434
-3.78511
-0.518519
0.0514339
-2.41232
0.675207
1.73712
3.91673
-1.57671
0.671174
-2.91964
4.89659
-2.21878
-2.67782
-0.0606415
0.463512
2.86618
-1.75807
-1.10812
-1.8319
0.306817
1.52508
-2.81906
2.79672
0.0223429
2.04718
-3.60598
1.5588
-0.00508231
0.0791465
-0.0740641
-1.38962
1.76204
-0.372415
0.0445247
0.461134
-0.505659
-0.535157
0.154684
-0.589619
0.103036
-1.69992
-1.38738
1.18102
-3.17034
1.98932
-1.00138
0.977978
0.0234039
1.23889
0.47797
3.62977
-1.41368
-1.63233
0.879021
1.81391
2.10282
-1.57947
0.183152
1.39632
1.43399
1.43219
1.25607
0.0791094
-1.05711
0.0557293
-0.965688
-0.204569
1.17026
0.0373372
-0.145862
-3.22368
1.96519
1.44009
-1.95862
0.518533
-2.82591
2.7322
0.0937094
-0.977335
0.673081
0.304254
-0.423853
-0.423883
0.847736
2.24556
-2.53569
0.290136
-2.63177
-2.16
3.42419
-2.1274
-1.29679
-0.373965
0.337319
3.87989
-1.83271
-1.99976
3.18078
-1.26894
1.38709
-0.118145
3.0197
-0.982659
-2.03704
2.92652
-0.916561
-2.00996
0.138327
-1.40727
2.61947
-1.6113
-1.00818
-0.608215
2.453
-1.84478
0.605233
-2.21969
1.61445
0.574303
0.137568
-0.711872
-0.177743
-0.00152945
0.179273
3.80559
-3.33338
-0.472211
-2.2825
-1.6785
1.72043
1.10637
-2.57411
-0.2518
0.514278
-0.734637
1.12913
-2.41811
1.28898
0.0087257
0.567655
-1.60035
3.33786
1.63269
2.41452
4.44719
-2.75696
-1.69023
-3.08351
2.39295
1.86272
-3.23886
1.37614
-1.86641
-0.224637
2.09105
-1.19597
-0.292516
1.48848
1.26284
-0.351344
-0.000545497
-0.723222
1.35918
-0.363825
-1.12415
-1.60721
2.52213
-0.914919
-0.839596
0.154313
-1.22862
1.03379
0.311776
-3.13084
0.742411
-2.3793
0.698669
-0.531383
0.642952
-0.111569
0.0321168
0.234414
-1.29932
0.957814
0.341504
1.11044
0.280743
0.31324
-0.363347
0.050107
1.37249
0.434651
-1.22785
2.35697
1.73346
-0.279874
-0.699888
-1.52058
4.07551
-3.39001
-0.685505
2.29856
-2.73291
1.42264
1.31027
2.36187
-2.64824
0.286372
-1.42479
1.05712
-0.423055
-0.00796958
-0.443122
-1.32315
1.09254
-1.72554
0.633005
1.256
1.36347
1.78041
-3.11923
1.33882
0.956773
-1.72422
0.767445
-2.92489
0.550627
0.135363
1.1894
-1.36308
1.85573
-0.492652
-0.640981
0.954984
-0.314002
-1.60442
0.275894
-0.381369
-0.807408
1.18878
0.3758
0.00410231
-0.379903
-0.81005
-0.816706
1.02715
1.37293
-2.40007
2.6653
-1.23131
0.851833
-1.35554
-0.069248
1.57057
-0.613797
-1.95191
-0.274018
0.366968
-0.323978
-0.0429903
2.70951
-0.709706
-1.57857
2.32668
-0.748115
-0.42925
0.504785
-0.0755344
1.932
0.242937
-1.34642
-1.07169
-1.61647
2.79344
-1.17698
1.59945
-3.06769
1.46825
1.64586
1.77833
-0.0737823
0.00224704
0.0715352
0.371443
-2.23785
1.75807
-2.63441
0.876341
0.278015
0.375954
-0.371354
1.96731
-1.40575
2.14816
-1.2668
4.00341
0.57389
-2.97615
-1.9786
1.10728
0.87132
2.01615
-0.435241
-1.58091
2.84728
-0.601722
-2.05156
-1.4931
-1.25723
1.89482
-0.494012
0.901914
-0.407902
0.996791
-1.01663
-2.31697
1.94562
2.87079
0.796344
-2.41878
0.840218
2.78148
-1.06105
-0.593839
0.569735
0.0241039
0.100112
-1.78538
1.68527
-2.68747
0.464611
2.22286
2.4964
-2.4964
-1.4131
2.61724
-1.20414
0.0937615
0.219478
1.59038
-0.689862
-0.900521
-2.9176
3.04248
-0.124889
1.14282
-0.0595204
-1.0833
0.885501
-0.300401
-0.5851
0.404741
-0.828594
0.557259
1.38722
-3.38699
-2.43797
2.85503
-0.417053
-0.895799
1.92295
-0.0986746
0.0534226
0.045252
1.36411
-1.23912
-0.124989
-1.16371
1.34755
4.22357
-3.1586
-1.06497
-0.292142
-1.49166
1.7838
-0.802337
0.856871
-0.0545337
0.511296
-0.868656
0.35736
-2.50623
1.15609
1.35014
-0.163504
0.000868839
-0.59761
0.00377183
-0.143605
0.00262204
0.140983
2.00205
1.80354
0.0662706
-0.164945
-0.202042
-0.678466
0.880508
-1.59386
2.4978
-0.903933
0.391501
0.596394
-0.987894
1.12626
-1.06098
1.74101
-0.84319
-0.897819
0.153835
-1.33924
0.671729
2.4291
1.42249
0.798587
-2.22108
1.47744
-1.17787
-0.299572
-3.03698
0.576917
-0.970015
0.409905
0.560109
1.25823
2.30561
-3.56384
-1.96865
1.74402
0.213948
-2.74212
2.52817
-0.438997
0.471242
-0.101187
0.119917
-0.0187304
0.179065
-1.14475
0.0513647
0.643005
-0.694369
-1.95964
-0.452688
1.83768
1.00715
-0.676559
-0.330586
-0.467254
0.0380043
0.407911
-2.04715
1.63924
0.826351
1.48799
-2.31434
1.31826
-2.07216
2.50987
-0.437707
-2.22419
1.61597
0.0284472
-0.174161
-1.08568
-0.749927
-0.879472
0.206197
0.673275
-2.69641
1.10254
1.92359
-2.21574
1.31626
1.46523
-1.16008
1.03169
0.128384
0.487329
-3.26731
2.77998
0.577439
-0.904723
0.327283
1.05704
-2.40346
-1.84691
-0.243557
-1.06254
0.0235979
0.857443
-0.377664
-0.479779
1.5918
0.204386
-0.121622
-0.0827641
3.38376
-2.12553
-1.36446
2.51847
-1.15401
0.855878
0.604727
-1.46061
-0.994095
0.555098
-0.764281
-0.115191
1.30963
0.280748
-0.854999
-1.6433
0.289542
0.0774258
1.78084
1.34239
0.391074
-2.72054
3.13948
0.397443
-1.22419
0.826749
-0.284582
-2.46834
2.75292
-0.0410631
0.0457051
-0.00464194
-1.10426
1.24506
-1.21826
1.82349
2.49805
-1.28281
-1.09623
-0.203091
-0.0165008
-1.3169
1.3334
1.19269
-2.66712
-0.333204
-1.29776
1.63096
-0.29296
0.124015
0.168946
-1.89521
0.0308818
1.86433
2.5273
-2.11433
-0.00850036
0.325232
-0.316732
-0.727888
-0.0744492
0.559927
1.1628
-1.72273
0.503856
-0.603649
0.0997928
1.73592
0.957459
-2.69338
-0.83944
3.10416
0.364519
0.0112814
-1.15586
-1.91615
3.07201
1.10518
1.64376
2.79975
-1.9734
-1.17017
0.788798
-0.167662
-0.0100813
-1.27471
3.13744
0.326035
-2.25241
1.92637
2.3402
-0.362235
-1.97797
-1.38545
1.9264
-0.540959
1.14451
-1.50962
-1.01008
2.5197
0.230735
-0.0988896
-0.131846
-0.809307
-1.47923
2.28854
0.130831
1.23328
0.190822
-0.216197
1.54575
-2.35506
-2.05291
-0.703441
2.75635
-0.0945948
-1.54764
1.64223
-0.215007
3.72021
-3.86022
0.140011
0.655365
-0.31542
-0.339945
-0.11893
-1.04115
0.755853
0.797223
-1.09448
-0.101491
-2.38454
3.00982
-0.625278
-0.19537
1.63546
0.477768
1.91163
-2.85117
-0.815051
0.109477
-0.0263818
-0.0830947
1.58831
-0.245925
-0.712179
0.775396
-0.0632167
0.59234
-0.547815
-3.53392
2.04603
2.67022
0.603718
-0.276091
0.787388
-0.670916
1.52679
3.27604
-1.88882
-0.722187
0.0100082
-0.437626
-1.87935
0.472975
0.839203
-0.825409
-2.77137
0.0838951
-0.48474
0.704351
-0.126911
-2.21312
1.22371
0.989418
2.02061
0.396625
0.663778
-0.235432
-0.428346
1.03558
-0.891873
-0.143707
-2.25772
0.823627
-3.12061
1.50414
1.99497
-1.63661
-0.358363
0.0276929
0.0807863
-0.108479
3.01197
-0.00597859
-3.00599
0.691248
0.0602924
-0.751541
-0.479386
-0.860964
0.769063
-0.0948217
-0.136435
0.0870168
0.0494181
1.3449
-0.0525076
-1.29239
-0.106948
-0.0294868
2.16407
-1.928
-0.0969854
-0.483653
0.580639
-3.06176
0.677216
0.041858
-0.325928
0.633753
0.599327
0.407819
-0.368415
-1.26391
0.733823
0.623105
-1.35693
0.352768
-1.33763
1.17043
-0.772986
0.749822
-0.661891
0.324152
-0.965133
1.61548
1.01601
-2.63149
1.69711
-0.240422
-1.45669
-1.5793
-0.720341
-0.616714
0.132108
0.484605
1.02038
-1.02395
0.00357097
3.25172
-0.0840537
-3.16766
-0.374987
0.138657
0.23633
-1.55243
2.10568
-0.55325
1.77353
1.75905
-3.53258
0.204594
-0.769697
-0.962044
1.40646
-0.444414
0.702989
0.325881
-1.02887
-3.32282
2.25753
1.06529
0.0682856
0.0187312
-2.54785
0.494942
1.02373
-0.610926
-0.412807
1.33177
-1.73181
0.400033
-0.325267
-0.62035
0.447328
3.27288
2.47849
-0.478442
-2.00005
-2.44975
0.377585
1.01766
-1.71755
2.71327
-4.15735
1.44408
-0.347276
0.945319
-0.0156144
-1.0139
0.811863
-0.520432
0.726677
-0.714789
-2.8105
3.52529
2.30308
1.57681
-2.21764
2.37042
-0.152775
0.413498
0.443944
-1.593
-0.589354
-0.40521
0.453125
-0.0479157
-1.30478
2.09889
-0.794111
-0.706307
1.55219
-0.845882
-0.236542
1.56832
-2.0132
-0.116893
2.13009
-2.43484
-0.737064
3.17191
1.29278
-1.06161
-0.231176
-0.888767
0.0420696
0.846698
0.0616437
0.0549826
-0.116626
-2.88102
0.15644
2.72458
0.0727765
0.641095
-0.713872
2.30292
-2.60421
0.301289
-1.41889
-0.481825
2.22194
-1.74011
0.0366269
-0.441836
-1.20665
-3.0061
4.21275
2.41832
-4.12178
-2.83535
2.4829
0.352455
0.60348
-0.0996237
2.50679
-2.02902
-0.18094
-0.487591
0.668531
-0.0473299
0.606578
-0.559248
-0.396843
2.43367
-2.03682
1.97462
-0.776749
-1.19787
3.02455
-2.88978
-0.134767
2.05873
-0.633457
-1.42527
0.128816
-0.755716
0.6269
-0.960151
-0.0709147
-3.03121
2.64865
0.382557
0.14144
-3.17265
-0.898332
1.14216
-0.243826
-1.64828
-1.68509
0.668645
-0.543744
-0.124901
-2.3887
-0.673061
-0.629376
0.436613
0.192763
-1.82276
0.678314
-2.89312
2.76582
0.127301
-0.521805
-0.0634492
-0.38303
0.7616
-0.0703521
-1.6851
0.295474
0.516765
-0.572689
0.0559243
0.988855
0.286426
-1.27528
1.30885
-0.166033
-0.631678
2.10829
-0.17629
1.0486
-0.10926
-0.527847
0.637107
-0.206674
1.37754
-1.96253
1.30698
0.655553
0.124736
-0.0564508
3.88146
-1.57838
2.58859
-2.10126
-0.568306
-0.418115
0.986421
1.79523
-3.47794
1.68271
1.75426
-1.84885
2.64825
-1.23438
-1.41387
-0.0202989
-1.68127
-0.281256
-1.51032
2.62436
-1.11404
-0.0469789
-1.01538
3.74522
-3.12387
0.735171
0.704838
-0.130535
-0.236007
0.137298
0.501559
-0.0146929
-1.41989
-1.32434
4.09307
-1.43051
-0.826733
0.709712
0.117021
0.160561
0.724939
-1.86696
-1.50664
3.3736
0.59465
0.668193
-0.0132203
-0.480637
0.493858
2.46391
0.0513524
0.0500436
-0.101396
2.48784
-0.872359
-0.996293
-2.91096
0.472991
-0.747676
0.0490939
0.698582
2.09305
2.80354
-1.84182
0.111331
1.73049
2.89677
0.127785
1.88035
-2.62698
0.746633
-2.41179
-0.0229868
2.43478
-2.49801
3.18208
-0.68407
0.470458
-0.0161849
-0.454273
-1.6793
4.09762
-0.118397
-1.15491
1.2733
0.129118
-2.34676
1.23793
-0.843583
-0.394351
-2.79729
3.67572
-0.878422
-0.620112
1.71501
-1.0949
3.48608
-1.54477
-1.94131
0.0445689
-1.74476
1.7002
0.110875
0.0090423
-1.40799
3.18152
1.13563
-2.54873
3.01642
-1.41697
-0.603707
0.506721
-2.52349
0.111702
3.26535
-1.48494
0.0431938
-3.81045
0.974458
0.0121679
1.42342
1.67256
-3.09597
1.62538
-0.464309
-1.16107
1.24391
-2.5332
1.28929
-0.588828
0.0287292
0.560099
-0.589748
-1.53137
2.12112
1.09306
-0.768908
0.170987
-0.35302
0.182033
0.27086
0.693819
-0.964679
0.245574
0.423071
-2.95303
3.48628
-0.533257
-0.102294
0.0612313
1.40545
0.643648
-2.0491
1.21209
2.18542
-3.39752
0.574159
1.44199
-0.0865836
3.50759
-0.0548567
2.38143
-2.32657
0.608368
-0.216868
0.272261
-0.14773
-0.124531
3.97846
-2.49365
-1.4848
1.27518
1.37307
-0.187499
0.238835
-0.0513359
-0.766405
2.32037
-1.55397
-0.00149108
0.569927
-0.568436
2.45489
-3.88152
1.42663
-1.19296
-1.41085
2.60381
2.42046
-0.560354
0.770758
0.854623
-1.20014
0.696088
0.504047
0.879049
-2.37071
0.188038
-0.834165
0.646127
0.597745
-0.144059
-0.453686
-0.00651585
0.117391
-0.173929
2.14332
-1.96939
-0.596492
3.40755
2.21498
-1.8555
-0.359478
1.96642
-1.57838
-1.38754
0.499529
0.888009
0.577543
-1.2674
0.453838
-0.376671
-0.0771674
0.215146
0.448632
0.457403
2.17505
-2.63246
0.865525
0.479377
0.37792
-2.81276
-1.45433
0.105484
1.34885
-1.12354
-0.637478
1.76102
1.5823
-0.848477
-2.49709
1.60129
0.644288
-0.481861
-0.162427
-1.41254
3.12585
-1.71331
-1.29397
1.4478
-1.59392
1.37471
0.21921
-1.71808
3.09354
-1.37546
-0.060248
0.714779
-0.654531
-0.284753
0.312446
-1.31447
-1.71513
2.84839
-1.13325
-1.67651
2.1507
1.46323
-1.60802
0.144795
0.344344
0.993681
-1.33803
-3.56356
2.24602
1.31754
-0.0097764
-0.110028
0.119805
0.123743
2.00628
-2.40312
3.33907
-1.54384
-0.710976
-1.26762
-2.12896
2.07411
1.34983
-0.0236866
1.00581
0.237796
-1.24361
-1.08435
0.99025
0.0940981
-1.07687
1.91152
-0.834646
1.19847
-1.21632
0.0178574
1.27713
0.847699
-2.12483
-2.05163
-0.835803
2.88743
-0.794384
1.13873
1.96139
2.01707
-2.83495
1.63136
1.20359
-1.10146
0.270922
0.830534
0.0237859
0.608271
-0.769298
0.161027
-1.40105
-0.350246
1.54871
0.457238
0.653526
-0.52471
-2.02574
0.720963
2.34295
-2.49631
0.0644557
0.930698
0.402248
0.659588
-1.06184
-2.22696
-1.63333
3.86029
-1.19029
-0.00984844
-1.41331
-0.28013
1.69344
0.214706
0.758205
-0.972911
0.0432361
3.31817
-2.13488
-1.18329
0.586056
1.89243
0.368833
-1.30334
0.458333
0.845007
-1.84133
2.82576
-0.984433
-1.58724
-0.757529
2.34476
-1.44674
0.484701
-1.00507
-0.382463
3.05166
-1.39643
-1.65523
0.984466
-0.111687
-0.872779
0.976573
0.254985
-1.23156
-0.555338
0.628114
-0.321856
-0.590234
0.91209
-0.123477
-0.0997179
-0.670851
-0.0292566
1.73731
1.31435
-1.04947
2.80017
-1.21812
3.95945
0.956632
0.0278347
-2.45677
0.869532
2.22339
-1.85194
-0.383802
-1.96954
0.417105
0.140587
-1.03892
2.05128
-1.95116
2.49394
-0.132069
-0.613704
-0.386788
-0.542245
-0.241043
0.783288
-0.955853
-0.138696
2.29092
0.411607
-2.70253
-0.0521235
-0.744372
0.796496
-0.467655
1.50696
-2.83925
1.33229
2.49874
-0.19582
-3.41065
3.88272
-0.472072
0.630804
-0.498933
-2.94616
-0.617402
-0.723185
2.71105
-0.0623968
1.86349
3.09862
-1.12046
-1.97816
-1.84875
-0.0817269
1.93048
0.831235
1.35185
-2.18308
-2.10859
0.213371
-0.529631
-0.220269
0.7499
-1.4282
1.75423
0.446792
1.43508
-1.88187
0.2943
-0.104955
-0.189345
-2.80231
0.382245
2.42006
1.47097
1.8681
-0.880949
1.59797
0.460766
-0.648446
-0.321569
2.79769
-3.21503
0.854742
0.0616691
-0.916412
0.792568
-0.587975
1.98814
0.0769184
-2.06506
2.68371
-3.90184
-0.00195924
-0.00312307
-0.967315
1.29847
-0.331155
-4.25585
3.0492
-0.115742
0.964549
-0.848807
-0.43699
0.0389915
0.397999
-1.19372
0.0894645
-0.817242
1.8349
0.439634
1.55534
-0.49743
0.534057
-2.1759
1.48559
0.243089
-0.163943
-0.636529
0.605946
0.0305834
0.652525
-0.731082
0.0785565
-1.63174
1.75565
0.377152
-1.79046
-0.255029
-0.963715
-0.0753806
1.70849
-1.63311
1.00899
-1.21356
0.233764
-2.36348
2.12972
-0.53461
2.56074
-2.02613
0.851765
-2.45897
-1.16501
-0.0606483
-2.7747
1.32922
2.76385
-2.12729
-0.369804
-1.4297
-1.30321
-1.32594
0.518531
-0.0247883
-0.271221
0.29601
4.34871
-2.25565
2.28147
-0.523399
-0.732296
-0.486142
1.21844
-3.52144
1.70253
1.81891
-0.822094
0.125578
-1.73883
1.257
0.516084
-0.289758
-0.281247
-1.31809
1.19969
0.148858
-0.713262
0.564404
-0.373448
2.66437
-0.679037
0.78897
-0.109932
2.47968
-3.57078
1.58402
1.98676
0.375588
0.883022
-1.25861
1.42851
-0.0664682
-1.36204
-1.62267
1.00255
0.479441
-0.0895007
1.06607
2.64052
-2.9251
1.28532
-0.582328
-1.10687
1.98592
-2.56042
1.82945
0.730962
2.40264
-3.96325
1.56062
-1.98885
2.19319
-0.204335
1.10266
-1.30933
0.03702
0.54133
0.751454
1.05131
-3.13076
1.31978
-3.71844
2.34322
1.37522
0.644658
-2.49341
1.66713
-0.0363615
-1.79553
0.361934
0.561375
3.08759
-1.08449
-2.0031
0.705154
0.689372
-1.81291
0.515274
-2.72946
2.64773
-2.3111
0.801476
1.34706
-1.75127
0.718219
1.03306
-2.72253
1.57162
1.1509
-0.596715
-0.0788927
-0.214068
-2.9626
2.0985
0.864106
2.34837
-4.02767
-2.94636
-0.00666449
4.12188
-1.4086
0.031855
0.248311
-0.280166
-0.0792477
-0.48692
0.566168
0.041576
1.23905
1.53987
-0.789569
-0.961706
0.401905
0.691154
0.56342
1.12301
-1.68643
1.19567
-0.700062
-0.0759122
-2.99792
3.07383
-0.953155
0.952234
-1.99884
-2.04536
-1.4127
3.45806
0.718808
-1.06911
-2.06731
0.619962
1.44734
-0.174017
0.326543
-0.152526
2.79433
-3.50912
0.0923105
-1.05963
2.66619
1.22541
-3.8916
-0.818822
-0.00791088
-2.45749
0.703027
1.75446
-2.75293
1.55997
0.94929
-2.79062
-0.0459208
0.900663
-0.0696096
-0.104407
-0.0752499
2.41545
-1.71956
2.25216
-0.5326
2.45021
0.00809655
-2.45831
-1.44375
-0.052677
-0.478706
0.135944
2.36046
0.404261
0.100523
0.95144
0.404237
-0.310475
1.44858
0.377379
-1.45425
-2.71328
-0.179837
-2.31731
0.753792
-2.51186
0.527685
0.59845
-1.12614
2.52723
0.14458
-2.67181
-0.354921
0.338736
-1.04786
-2.07275
-2.23551
-0.412731
-1.33802
4.02174
-0.991119
1.41241
-0.421293
-3.14038
0.913412
-0.899067
1.46249
-1.09037
-1.12276
-1.50891
-0.771951
0.794909
-0.399065
1.38792
3.12745
-0.416402
1.65786
-0.307373
-1.35049
-0.0380863
1.56598
0.814468
2.9515
-2.73756
-0.116242
-0.684395
1.01064
-1.37783
1.56098
-1.40321
-1.91904
0.710797
0.501474
-1.21227
-2.54659
0.0501905
-0.421627
2.27484
-1.85321
-0.00134878
-3.4093
-1.88904
2.32375
4.16403
-1.96976
-2.19427
-0.280394
0.6903
1.93509
-0.886319
-1.04877
0.812914
-0.912632
0.11488
0.157381
-0.398587
-0.0706204
0.469207
-0.22764
1.23346
-1.70168
4.05005
-0.03815
-0.505594
-0.81156
-0.296598
1.10816
-0.2394
3.03373
2.48989
-0.788694
-1.7012
-1.1508
1.71073
1.12824
1.19213
-1.45691
0.00257849
1.63685
-0.648029
-0.988817
-0.124808
-0.0226019
0.14741
0.478956
-2.20169
1.72273
-2.68884
0.453323
0.676458
-1.75837
2.51216
-0.0439054
0.85682
0.421439
-1.41256
-2.61648
1.35926
-2.97854
0.882188
-1.37531
0.211603
-1.03522
-1.60293
2.63815
-2.37358
-0.21482
0.0252009
0.189619
2.79944
-2.25528
2.30095
-1.46972
0.322566
1.56895
-1.89152
0.411377
-0.941008
-1.40364
-1.04651
2.45015
-0.0807202
-1.45987
1.54059
-2.26095
3.85506
-1.5941
1.90465
-1.4359
-0.468745
2.0346
0.073816
-2.10842
-1.49571
-2.07507
-0.918597
-0.143945
1.25269
1.83031
-0.0338798
0.314484
-0.280604
-1.9615
-0.495985
1.88748
1.61656
-1.57344
1.92728
-0.353839
-0.136941
0.186985
-0.481355
0.598576
-0.117221
0.128601
-0.807639
-0.302332
-2.66027
-2.80784
0.538976
0.105312
1.34519
-2.28113
0.242956
2.04015
-2.2831
-1.42058
-0.264517
1.34703
1.31827
0.212444
-0.832081
-0.536852
0.674268
-0.137415
0.0116905
-0.978195
0.966504
-0.138522
0.811603
1.18754
2.4523
-1.1963
2.18647
-1.23424
-0.349981
-0.760653
1.11063
2.12228
0.330712
-0.0197127
-1.99262
1.40287
1.56361
-1.80301
-1.20103
-2.10554
3.30657
-1.71677
-1.80467
-3.14632
3.1885
-0.0421792
0.257069
-0.840076
0.599032
1.58371
0.868585
-0.337418
1.99014
-1.65273
-0.811174
-1.65227
-0.893953
-1.46623
2.36018
1.23771
-0.643059
0.846194
-0.658156
1.58967
-2.63753
1.19255
-0.978761
-1.27492
2.59711
-1.32219
1.62051
1.14795
0.979325
-2.12728
3.16796
-1.73473
-1.43323
-2.05521
-1.65373
2.92081
-1.26709
0.456887
1.20097
-0.894492
0.850587
1.22155
2.26453
-0.664907
0.585659
0.0654546
0.138931
2.69482
-1.52066
1.54112
2.80759
-1.23256
0.668207
0.564353
0.529868
-1.09817
2.06002
-0.0718723
0.478192
-0.446337
-1.80608
-0.375202
2.18128
0.571091
-0.0755005
-0.49559
0.486395
0.16897
0.371115
-2.86912
-0.873063
1.05213
1.8808
-1.73146
-0.149334
0.546603
1.09024
-0.468561
0.23313
0.882702
0.576288
-1.45899
-1.05195
3.14501
-0.124453
-1.50264
3.00785
-1.5052
-0.644192
0.915052
0.319842
-0.0255427
3.08745
-1.57618
-0.997938
0.24832
1.18019
0.912073
-1.1671
-0.563532
0.503284
-0.816059
-0.447259
-0.0199957
1.0872
-0.50287
2.29229
-1.78942
-0.123901
-0.0197043
-0.759511
0.27192
-0.996139
0.0775418
-3.1058
1.94994
0.800254
0.606204
-0.384317
1.9276
-1.54328
0.494283
0.277868
2.17588
1.24777
-3.42365
-0.342989
-0.0450132
0.388002
0.702942
-2.0674
2.8866
1.27743
2.18744
-1.94448
-2.92844
-0.0854445
-0.0099279
0.150902
1.26187
1.02354
1.00309
-2.02663
1.25655
-0.247567
-0.0824408
-0.926435
-0.306125
-1.50744
-0.886802
1.46434
1.47234
1.04612
1.49449
-1.52196
0.0274747
0.590092
0.0158533
-0.185391
0.756743
-0.104217
2.1032
0.542798
-2.646
0.827326
-0.678468
-0.687244
0.420826
0.266418
-1.02777
-0.0560257
1.0838
0.622523
1.85894
-2.48146
0.583709
0.998591
1.89104
-0.0626929
-0.792472
0.289038
0.115199
-0.233819
0.564988
-0.331169
-3.00988
1.3499
2.36677
-1.81625
-0.550521
0.0494391
-0.453517
0.404078
2.29701
-2.47094
1.52474
-0.287033
1.22344
1.07751
-0.421186
-0.0260723
-0.628139
0.79225
-0.164112
-1.44835
-0.389846
2.99497
-1.54056
-1.45441
0.961767
0.150073
-1.11184
1.29296
-2.02539
0.732428
-0.205672
1.40044
0.170128
-0.835598
3.57137
-2.73578
0.111766
-0.739904
-1.48793
0.789558
-0.000588281
2.51023
-0.00597129
-2.50426
-1.47888
-0.645934
1.04818
0.279151
-0.0403156
0.686318
0.612152
-1.64201
0.935706
0.0688927
-0.136476
-0.226649
0.316366
-1.14724
1.46981
0.0120077
0.827195
0.365061
-0.423566
1.66246
-0.11677
1.61126
-0.697671
-0.376869
-0.565056
1.44776
-0.330915
2.48032
-2.1494
-2.17437
-0.373482
-2.08417
3.8888
-1.80463
-0.0123893
0.801947
0.96431
-0.161785
-0.0420898
-0.753057
0.795146
-2.34367
0.767498
0.402184
-0.410684
1.75901
-3.62597
1.45469
-3.37084
-2.15145
2.66914
-1.35037
1.48733
-0.911039
0.0277194
-1.57478
2.05373
-0.00179711
-0.465163
0.27239
-1.334
-0.352882
-1.63682
1.9897
-1.83198
1.97218
4.28303
-2.8512
-1.43183
-0.615142
0.254776
0.700551
0.0593459
-0.759897
-2.22583
0.50627
0.586714
0.0110303
-0.0229006
-0.392127
0.415027
1.88258
-3.96675
0.289546
1.22831
0.172293
-1.40061
-2.78435
2.45343
0.450001
0.112416
-0.562417
1.15229
-2.86742
-0.42997
-0.0050319
0.435002
0.585762
-0.135761
-0.0259901
2.01585
-1.4417
1.57503
1.45094
-0.867231
-2.91417
0.868812
-1.77123
1.52597
0.245267
1.99522
-3.19625
-1.45668
-0.783406
2.24008
-0.124797
1.19261
-0.878265
0.818744
2.99388
-0.471878
-2.522
-0.0105612
-2.70272
1.85322
0.18138
1.0302
0.904893
-0.472504
-0.0081327
0.456955
-0.631757
-1.09379
-0.0497593
0.00059838
0.0491609
0.0225923
-2.35076
2.32817
-0.50077
1.18071
-0.679942
1.53189
-3.26681
1.73492
-0.158331
-1.46876
-0.0867929
-0.171381
1.80176
-1.02063
-0.499142
1.51977
-1.02463
-0.935003
1.29094
-0.789465
0.552084
0.20846
-0.760544
1.67333
-2.05765
-2.29759
-0.288203
-0.21218
0.500383
0.703541
0.368977
-1.07252
0.933306
-2.17812
1.24482
0.200493
-1.5405
0.490913
-3.28821
-1.77772
-2.06323
3.84095
-2.53138
0.0975194
2.43386
-3.09565
-2.14012
0.151264
-0.949039
0.915756
0.033283
-3.91361
-0.885567
2.98877
1.1375
-0.514396
0.352221
-0.917277
-0.382219
1.38081
0.445026
0.302041
-1.1136
0.0525636
-0.463965
0.411401
-0.355424
0.00940257
-0.316999
0.366438
-0.930195
1.30578
-2.89559
1.67518
1.22041
0.844248
-0.844793
1.25817
0.601904
-0.0308134
1.7067
-2.04412
-1.35287
-0.714433
-1.53644
0.469328
1.06711
-0.113709
0.473119
-0.35941
-1.2897
1.30139
-0.263462
2.00975
2.44117
0.048725
1.26994
-2.29457
1.13669
-1.41826
0.281567
0.353737
-0.0285054
0.00596517
-0.00371813
-2.62208
1.58686
-0.103083
1.06485
0.0370478
-0.590088
0.55304
-4.21894
1.60388
0.49267
-1.13252
-0.554152
-0.0559361
-0.630515
0.686451
-1.57877
0.558142
-2.83687
2.53454
4.36956
-1.70337
-0.778296
0.732478
0.045818
0.173405
-0.199787
-0.45287
-1.96685
0.96912
0.997733
-0.437111
0.392098
0.0458763
1.00823
-1.0541
0.955839
0.568902
0.41067
0.0439048
-0.454575
-0.853666
0.865673
0.5125
-0.234485
1.14475
-2.70073
2.72266
0.174108
-1.6748
-0.0687756
2.48537
-0.0966118
-2.38876
-0.509448
-0.378646
0.888094
1.26836
-2.68825
-0.152919
0.0777216
0.0751975
-0.148106
0.0597568
0.0883497
-2.75555
2.79861
-0.0430628
-1.39811
1.63188
1.59492
0.379698
2.94713
-1.07623
-1.87091
-0.0324115
-0.285156
0.317568
-0.586534
-0.937762
-0.0223895
-0.881109
-0.0566524
0.202734
-0.855003
0.652269
-0.271263
2.52779
-2.25653
-2.09702
0.629153
1.46787
0.692872
2.3191
0.0616077
0.193364
-0.254972
1.58003
0.65354
-2.23357
0.245825
-0.270614
-1.1
2.41813
-1.31813
-2.1721
0.36602
1.69032
0.696148
-2.15282
-0.00593565
-0.352081
0.358017
2.94155
-0.956757
-1.98479
1.29326
0.672689
-2.83401
1.50966
2.70803
-2.78394
-1.32688
0.199358
1.12752
-0.00932952
0.241409
0.207529
-0.448937
-0.0347892
-0.257772
0.292561
-0.0284823
0.37886
-0.350378
0.164511
-0.246175
0.0816641
-1.53943
3.1291
-0.844399
0.827898
0.93333
-0.887454
0.900012
-1.55035
0.65034
-1.43991
-1.12051
0.0781071
-0.0164633
0.00297815
0.00909471
-0.0120729
2.65443
-1.2982
-1.35623
0.195238
1.68556
-0.687533
-0.396816
-1.60317
0.286267
1.61746
1.04237
-2.65983
-0.0598353
-0.00844397
0.0682792
-0.0150487
1.05063
1.2317
-0.644999
-0.586697
3.92492
-2.1318
-1.79313
-3.60423
0.793728
0.579315
-4.26058
1.39709
2.86349
0.756775
-2.16253
-0.694725
0.368797
-0.0284811
0.0344463
-0.973809
2.56582
-1.59201
0.439932
0.0761523
0.0599951
0.349535
-0.678508
0.640358
-0.439003
0.577661
-3.74405
3.52648
0.21757
1.62365
-1.17563
-0.448024
0.995105
-1.13363
0.702341
0.15453
-0.686605
0.560575
-0.19853
-0.949645
1.06517
-1.84192
-3.14824
2.31264
0.116585
-0.0616023
0.403138
0.182624
-0.122905
-0.0252019
2.24499
-2.33757
0.0925797
2.64259
-1.25566
0.621513
0.634152
0.306749
-0.991144
-1.20789
-2.42526
-0.697193
0.621693
-0.457241
-0.800816
1.25806
-2.18322
0.506709
0.280836