/*--------------------------------*- C++ -*----------------------------------*\
| =========                 |                                                 |
| \\      /  F ield         | OpenFOAM: The Open Source CFD Toolbox           |
|  \\    /   O peration     | Version:  2306                                  |
|   \\  /    A nd           | Website:  www.openfoam.com                      |
|    \\/     M anipulation  |                                                 |
\*---------------------------------------------------------------------------*/
FoamFile
{
    version     2.0;
    format      ascii;
    arch        "LSB;label=32;scalar=64";
    class       surfaceScalarField;
    location    "5.1";
    object      phi;
}
// * * * * * * * * * * * * * * * * * * * * * * * * * * * * * * * * * * * * * //

dimensions      [0 3 -1 0 0 0 0];

oriented        oriented;

internalField   nonuniform List<scalar> 
20045
(
0.549169
-0.627227
0.0780582
-1.12824
0.465203
0.66304
0.325572
2.05102
-2.37659
0.225546
-0.190199
-0.0353468
-1.04077
0.840559
0.200207
-0.59014
2.14247
-1.55233
-0.892408
0.0538627
0.838545
0.0395835
0.534221
-0.573804
0.558263
0.430679
-0.988942
-0.704896
-0.166868
0.871764
-0.167498
0.020604
0.146894
2.06067
-0.985534
-1.07514
0.421713
-0.418772
-0.00294074
-1.17146
0.995603
0.17586
-0.0721892
0.890745
-0.818556
-1.01456
0.309661
-0.128192
0.0115166
0.116676
-0.0928235
-0.00482799
0.0976515
-1.58991
2.32033
-0.730419
-0.782496
-0.00861161
0.791107
-0.521006
0.416979
0.104027
0.147784
0.273929
-0.224079
-0.904163
2.07528
-0.308384
-1.76689
0.824379
0.132074
-0.956453
0.0691491
2.00613
0.176937
-0.167204
-0.00973345
-1.35688
2.81419
-1.45732
1.40673
0.45926
-1.86599
-3.25738
1.99918
1.2582
0.519133
0.750691
-1.26982
1.15413
-0.989564
-0.164566
-0.247051
1.34965
-1.10259
3.16166
-1.68518
-1.47649
-0.671198
0.710781
1.92785
-0.942002
-0.985849
1.04266
0.426031
-1.46869
-0.0722104
0.44796
-0.37575
-2.21862
1.15594
1.06268
0.62123
0.586417
-1.20765
-0.0738644
0.678501
-0.604637
0.189762
-0.264948
0.0751866
2.35362
-2.35435
0.000736141
1.40331
-0.469037
-0.934273
0.613353
0.789957
0.917925
1.14275
-0.106751
-0.276259
0.38301
1.34584
0.268156
-1.61399
1.57073
-0.528069
0.281928
1.82188
-2.10381
1.33023
-2.19757
0.867338
2.00811
-1.39111
-0.616999
-1.04049
-0.692411
1.7329
-0.11116
-0.3435
0.45466
0.019392
-0.346141
0.326749
-0.731383
-0.309383
0.602639
1.29758
-1.90022
1.67188
0.30146
-1.97334
1.47196
-1.71901
1.76434
-1.43853
-0.325803
-0.36311
-0.107159
0.470268
0.43308
1.33126
0.705271
-1.73568
1.03041
-0.365848
-0.155158
-0.403692
0.515705
-0.112013
1.13371
0.489698
-1.62341
0.0546069
0.0287894
-0.0833963
-0.697116
0.0968715
0.600244
0.948356
-0.390094
1.56283
-1.59246
0.0296282
-0.0951032
0.14971
0.257285
-0.237893
-0.264802
-1.10888
1.37368
0.375099
-0.283
-0.0920987
1.26042
0.0656201
-1.32604
1.74203
-1.13939
-0.346352
1.60677
0.662138
-0.734327
0.603145
-0.0104524
-0.592692
-0.148931
-1.20317
1.3521
0.971965
1.0512
-2.02317
0.883949
-0.769618
-0.114331
1.41153
-0.706255
-2.54062
0.37667
2.16395
-0.00616473
0.555333
-0.384058
0.520707
-0.136649
0.400843
-1.22049
0.81965
-1.58382
0.0365751
1.54724
0.982677
0.254422
-1.2371
-0.815169
0.678494
0.136675
-1.18324
-0.0516574
1.2349
0.88268
-0.232662
-0.650018
0.449538
-0.664733
0.215195
-0.242267
-0.805112
1.04738
0.660423
-0.72321
0.0627864
1.51865
0.15272
-1.67137
0.0699598
0.106977
-0.180821
0.29131
-0.11049
1.31433
-0.6931
-0.177402
0.0781753
0.0992263
1.32135
0.606501
-0.435496
-0.735966
0.273373
-0.454193
-0.466486
2.13837
0.0867629
-0.47082
-0.103498
-0.0739033
0.397385
1.25868
-1.65606
1.07277
-2.0529
0.98013
0.496394
-0.56924
0.481212
0.0880281
-0.300065
0.382931
-0.0828665
0.936641
-0.943435
0.00679418
-0.571057
0.459897
1.66979
-2.93298
1.26319
-0.24726
0.381647
-0.134386
0.0587944
-0.365237
0.306443
1.07441
-0.250034
2.15944
1.00222
-1.24429
0.979486
1.03533
-1.68639
0.651067
0.144283
-0.237107
-0.377652
0.0145426
-0.885257
0.706069
0.179188
-1.14585
0.139427
-0.687825
0.548398
1.33718
0.670923
1.0709
-1.51111
0.440217
1.56566
0.172203
-1.73786
-2.6295
1.82253
0.806974
-0.30092
-0.423748
0.724668
2.0705
-0.733321
0.100196
-0.376455
0.41124
-0.0252801
-0.38596
-0.0411685
0.033115
0.00805356
1.15718
0.785158
-1.94234
1.21518
-1.08706
-0.128116
-0.290847
0.0895448
0.201302
-0.411366
-0.157874
1.85698
-0.821657
-0.772224
0.772278
-5.34587e-05
0.997881
-2.16697
1.16909
0.247068
-1.28756
0.870792
0.472378
-1.34317
1.46993
-1.61886
2.19605
-0.278962
-1.91708
0.662953
-1.21452
0.551564
1.76808
-1.00573
-0.762356
-0.272077
0.347042
-0.0749655
-0.200416
2.1918
-1.99139
2.05069
-0.643957
-1.64104
0.039462
1.60158
-1.08463
0.716444
0.368186
1.82797
-0.856001
0.243641
0.640309
-1.23698
1.48293
-0.245951
-1.75444
2.08001
0.013625
-0.491581
0.477956
-0.490617
-0.448416
0.939033
-0.0511914
-0.422532
0.473724
1.24952
0.233604
-1.48312
2.73077
-1.36476
-1.36601
-0.51541
0.464219
0.624301
-0.935194
0.310893
0.22938
-0.0396189
-1.85759
-0.859564
1.25069
-0.391128
-1.23238
0.918264
0.314117
-0.0224635
-0.107359
0.129823
0.968313
0.79977
-0.0204507
-0.0207178
-0.123281
0.534521
-1.34677
0.109784
-1.49518
1.84912
-0.353941
-1.38976
1.44299
-0.0532361
-0.983411
-0.854586
1.838
0.236095
0.615333
-0.851429
0.789991
-0.839592
0.0496012
1.93914
-0.133948
-1.80519
-0.0290793
-1.50138
1.53045
-0.709204
1.58
0.381171
-1.17485
0.793682
-1.24636
2.91614
-1.49855
1.10237
0.396186
-0.114027
0.131235
-0.0172083
1.05648
-2.41915
1.36267
-2.21333
0.856451
-1.00018
-1.12096
2.86698
-1.80503
-1.06195
-0.785274
0.71141
0.361331
-0.385178
0.0238472
-1.10652
-0.485681
1.5922
-1.97739
2.78642
-0.809036
2.09873
-1.66551
-0.433215
0.0261517
-0.400514
0.374362
-0.8495
-0.966951
1.81645
-0.0324569
-0.135041
-0.38969
0.0887697
-1.48004
-0.452692
1.93273
0.251567
0.0639294
-0.315496
0.252279
-1.11184
-0.644999
1.16413
1.66978
-0.104124
-0.363186
0.290976
-0.433502
0.552912
-0.11941
-0.504636
1.75415
-1.98419
1.13469
-0.345452
-0.0735405
0.418992
-1.48904
0.314823
1.17422
0.559717
1.53901
2.55153
-1.49506
1.87672
-3.07308
1.19635
2.37549
-3.02612
0.650633
0.120454
-0.90295
-1.02926
1.42664
1.23972
-1.82986
1.84914
-2.65365
0.804519
-3.41697
1.74994
1.66703
-0.114421
-0.700748
0.396211
0.329964
-0.726176
1.36074
-0.486325
-0.874414
-0.0500168
-1.52551
1.32509
-0.561466
-0.210758
1.25073
1.87313
-1.43618
-0.436951
-0.0250979
-0.308324
0.333422
1.24677
0.251724
-1.4985
-0.678335
-0.6237
1.30203
-1.00854
2.17657
-1.16803
-1.02957
1.43041
1.21683
-0.835663
-0.139496
1.02344
-0.883948
1.83745
-0.839568
0.253422
-0.0203849
-0.233037
-0.310953
-0.429966
0.740918
-0.291249
0.302569
-0.0113204
2.87465
-1.77637
-1.09827
0.546893
-2.52428
-0.321512
0.0302632
-1.61044
0.449178
1.16126
2.4506
-1.10095
0.454324
-1.9495
3.3185
-1.49013
-1.82837
-0.0367651
0.288332
1.9079
-1.15536
-0.752542
-1.23312
0.217141
1.01598
-1.85582
1.83884
0.016987
1.80863
-2.77683
0.968198
0.0938262
0.0518484
-0.145675
-0.937133
1.18445
-0.247317
0.069194
0.31504
-0.384234
-0.352012
0.104752
-0.360091
0.0600261
-1.13676
-0.916137
0.690196
-2.0828
1.39261
-0.928894
0.760422
0.168472
0.820746
0.333385
2.54897
-0.699836
-1.01506
0.524447
0.960548
1.49005
-1.05712
0.12033
0.93679
0.937384
0.970515
0.832859
0.0578862
-0.878498
-0.0503964
-0.633206
-0.133954
0.76716
0.00892842
-0.122955
-2.28794
1.2794
0.970233
-1.35488
0.384652
-1.88441
1.8258
0.0586106
-0.702634
0.644699
0.0579357
-0.307051
-0.281133
0.588184
1.50482
-1.6904
0.185575
-1.83038
-1.58659
2.29586
-1.43099
-0.864876
-0.243172
0.218074
2.90001
-1.09138
-1.3993
2.0895
-0.992871
0.791277
0.201594
2.00448
-0.651695
-1.35278
2.0034
-0.695552
-1.30785
-0.211381
-0.78149
1.73431
-1.0661
-0.668214
-0.398144
1.63054
-1.2324
-0.500746
-0.969448
1.47019
0.00312321
0.270207
-0.27333
-0.219226
0.0523842
0.166841
2.35661
-2.0833
-0.27331
-1.50767
-1.12183
1.15326
0.71987
-1.73097
-0.153443
0.357007
-0.66796
0.731321
-1.61085
0.879526
0.00571652
0.355614
-1.06361
2.22079
1.1865
1.68815
3.14213
-1.92488
-1.21725
-1.87124
1.41855
1.24735
-2.17032
0.922966
-1.24876
-0.142231
1.39099
-0.788407
-0.183186
0.971594
0.848387
-0.224086
-0.0698373
-0.275614
0.997675
-0.234375
-0.755189
-1.08559
1.69667
-0.611073
-0.525729
0.0922273
-0.817523
0.678027
0.209366
-2.06519
0.552387
-1.58196
0.464209
-0.386178
0.496687
-0.110509
0.0123234
0.213222
-0.903927
0.64998
0.253947
0.736514
0.200127
0.989213
-0.542161
-0.447052
0.929024
0.286154
-0.835279
1.5666
1.16594
-0.183264
-0.46942
-1.01962
2.77707
-2.42313
-0.353941
1.55974
-1.8255
0.935295
0.890203
1.5815
-1.76377
0.18227
-0.951263
0.708997
-0.274354
-0.0164927
-0.293158
-0.890083
0.723661
-1.14621
0.422549
0.829762
0.904548
1.18352
-2.0867
0.903179
0.633887
-1.14449
0.510602
-1.9501
0.366283
0.0925155
0.790165
-0.916984
1.25384
-0.336859
-0.444572
0.647119
-0.202547
-1.06153
0.169119
-0.254172
-0.539476
0.793648
0.240156
0.00149388
-0.24165
-0.542917
-0.541714
0.681835
0.91454
-1.59638
1.77687
-0.839487
0.489127
-0.907653
-0.0436105
1.03909
-0.405199
-1.3068
-0.191748
0.0442389
0.00525647
-0.0494953
1.8149
-0.469064
-1.0367
1.53873
-0.502029
-0.2792
0.330426
-0.0512256
1.3254
0.03534
-0.880926
-0.729921
-1.081
1.86344
-0.782436
1.0671
-2.05232
0.985221
1.10038
1.19549
-0.0814606
0.0170849
0.0643757
0.238336
-1.48709
1.16835
-1.75666
0.588306
0.138713
0.236386
-0.24447
1.31537
-0.878288
1.43068
-0.59443
2.96992
0.376343
-1.96625
-1.3271
0.741043
0.586061
1.3526
-0.290581
-1.06202
1.9039
-0.399077
-1.50744
-0.994036
-0.840602
1.36576
0.111146
-0.0011925
-0.109954
0.667519
-0.676131
-1.53703
1.29256
1.83695
0.516664
-1.60978
0.573076
1.84617
-0.692906
-0.469815
0.385857
0.0839576
0.0268045
-1.17031
1.1435
-1.79262
0.312911
1.47971
1.60987
-1.60987
-0.921223
1.7454
-0.82418
0.534426
0.454787
1.16767
-0.597197
-0.570476
-1.94305
2.03504
-0.0919894
0.757533
-0.038873
-0.71866
0.585699
-0.202174
-0.383525
0.271974
-0.579025
0.211343
0.857213
-2.25651
-1.60864
1.8965
-0.287854
-0.600909
1.28274
-0.245867
0.000899991
0.244967
0.952833
-0.867041
-0.0857911
-0.780529
0.900984
2.97953
-2.15604
-0.823485
-0.212708
-0.992782
1.20549
-0.530617
0.569748
-0.0391313
0.334433
-0.583119
0.248685
-1.69458
0.789868
0.904708
-0.14685
-0.0433488
-0.435066
-0.0347488
-0.103622
0.210989
-0.107368
1.28037
1.07624
-0.17254
-0.0733277
-0.147668
-0.463359
0.611026
-1.06679
1.66964
-0.602857
0.183386
0.428431
-0.611817
0.755187
-0.701324
1.23992
-0.532057
-0.70786
0.095671
-0.900783
0.47182
1.46732
0.949867
0.536686
-1.48655
0.992311
-0.790733
-0.201578
-2.03029
0.389248
-0.691614
0.304472
0.387141
0.756654
1.64982
-2.40647
-1.31176
1.16953
0.129779
-1.82895
1.69917
-0.300293
0.326445
-0.107398
0.127279
-0.0198817
0.122454
-0.75566
-0.252836
0.50711
-0.254274
-1.30815
-0.302281
1.2296
0.642522
-0.401028
-0.241494
-0.306327
0.0271272
0.267713
-1.36319
1.09548
0.5046
0.990857
-1.49546
0.942099
-1.37787
1.65417
-0.276299
-1.47812
1.07997
-0.0357991
-0.131404
-0.742404
-0.489976
-0.582015
0.138077
0.443938
-1.8056
0.73881
1.27883
-1.49153
0.855737
0.990428
-0.763976
0.680217
0.083759
0.0025146
-2.20394
2.20142
0.376291
-0.598033
0.221742
0.72164
-1.60257
-1.22975
-0.160002
-0.704196
0.00708055
0.444438
-0.20261
-0.241827
1.14915
0.02922
-0.0547852
0.0255652
2.30013
-1.54347
-0.952997
1.69456
-0.741559
0.570059
0.399967
-0.970026
-0.686925
0.386632
-0.506308
-0.0757072
0.82375
0.343923
-0.571991
-1.1144
-0.0636582
0.107897
1.18225
0.898645
0.267297
-1.78041
2.06234
0.211366
-0.81319
0.601824
-0.18696
-1.64567
1.83263
0.0292292
-0.0339527
0.00472344
-0.816311
1.05241
-1.22797
0.727228
1.24195
-0.578999
-0.740452
-0.163475
-0.00898969
-0.876244
0.885234
0.796431
-1.77984
-0.19509
-0.893234
1.08832
-0.139827
0.084987
0.0548399
-1.2706
0.0252205
1.24538
1.69168
-1.42353
-0.00971501
0.212101
-0.202386
-0.483561
-0.0470565
0.367544
0.781233
-1.14878
0.311613
-0.378078
0.0664651
1.14096
0.632266
-1.77322
-0.555279
2.07393
0.230615
0.00954125
-0.730594
-1.30025
2.03084
0.751011
1.10597
1.80581
-1.30121
-0.778536
0.524364
-0.102323
-0.116903
-0.855523
2.10287
0.218221
-1.49885
1.28063
1.56913
-0.241716
-1.32741
-0.875256
1.29065
-0.415389
0.768232
-0.837351
-0.746801
1.58415
-0.029081
0.150452
-0.121371
-0.538511
-0.98841
1.52692
0.0507463
0.902086
0.118766
-0.14123
1.02831
-1.56682
-1.37545
-0.460346
1.83579
-0.0705071
-1.02798
1.09848
-0.263164
2.44549
-2.52758
0.082094
0.441285
-0.221668
-0.219617
-0.0818301
-0.682146
0.510145
0.537233
-0.725727
-0.0626802
-1.60179
2.01534
-0.413548
-0.194428
1.16466
0.222196
1.24773
-1.81296
-0.541396
0.240496
-0.103092
-0.137404
1.06796
-0.169312
-0.473395
0.51457
-0.0411754
0.503445
-0.434251
-2.38002
1.37984
1.76834
0.374128
-0.193676
0.52811
-0.440487
1.01055
2.18653
-1.32932
-0.479811
0.00641612
-0.288112
-1.24891
0.375436
0.559913
-0.546288
-1.84669
0.0540641
-0.376117
0.467403
-0.0911121
-1.50844
0.816886
0.691558
1.31052
0.252319
0.438904
-0.152606
-0.286299
0.679007
-0.590889
-0.088118
-1.47325
0.531248
-2.09099
1.00999
1.37123
-1.06441
-0.306816
0.0199426
0.00323839
-0.023181
1.97966
-0.00886403
-1.9708
0.444721
0.0321984
-0.47692
-0.315494
-0.569763
0.509139
-0.0596013
-0.0247323
0.00845017
0.0162821
0.890259
-0.0232935
-0.866965
-0.0338325
0.00910023
1.44856
-1.29584
-0.0645087
-0.323411
0.387919
-2.0334
0.431603
0.0238373
-0.249274
0.522647
0.340221
0.302301
-0.229476
-0.785588
0.485081
0.416929
-0.90201
-0.127154
-0.276538
0.776287
-0.564921
0.493094
-0.4343
0.209684
-0.654256
0.891839
0.583281
-1.47512
1.13281
-0.157297
-0.975512
-0.819076
-0.395441
-0.477485
0.190406
0.287078
0.686679
-0.73559
0.0489106
2.18436
-0.0632487
-2.12111
0.0645919
0.0750199
-0.139612
-1.02666
1.38976
-0.363093
1.18763
1.1951
-2.38273
0.544935
-0.652094
-0.642737
0.937676
-0.294939
0.468838
0.220721
-0.689559
-2.05254
1.62384
0.428702
-0.00817715
0.0166273
-1.69912
0.323674
0.677589
-0.405604
-0.271985
0.877073
-1.15973
0.282653
-0.217905
-0.409322
0.307241
2.13824
1.65599
-0.32262
-1.33337
-1.61492
0.237051
0.678312
-1.14773
1.84264
-2.81037
0.96773
-0.230649
0.62686
-0.0115008
-0.709686
0.562018
-0.346364
0.485791
-0.483468
-1.91069
2.39416
1.89648
1.00354
-1.48887
1.58051
-0.0916361
0.202478
0.24196
-1.06994
-0.414951
-0.266612
0.298557
-0.0319447
-0.395312
1.07571
-0.680399
-0.428573
1.00346
-0.574887
-0.180667
1.05774
-1.34007
-0.0943898
1.43446
-1.59413
-0.493092
2.08723
0.874352
-0.720489
-0.153863
-0.565908
0.0157546
0.550153
0.083994
0.234961
-0.318955
-1.90248
0.0917767
1.8107
0.0506231
0.424766
-0.475389
1.5375
-1.72542
0.187924
-0.937494
-1.02365
1.97397
-0.950317
0.026666
-0.293278
-0.0621568
-2.11493
2.17708
1.58567
-2.83202
-1.89163
1.65484
0.236787
0.369338
-0.0577252
1.58438
-1.36219
-0.132816
-0.328742
0.461559
-0.0294869
0.381628
-0.352141
-0.258585
1.62852
-1.36993
1.3534
-0.594224
-0.759177
2.02886
-1.93369
-0.095175
1.39903
-0.501411
-0.897621
0.0884328
-0.501717
0.413284
-0.641087
-0.0467376
-1.97975
1.72962
0.250131
0.100446
-2.0802
-0.586669
0.823296
-0.236627
-1.02329
-1.06001
0.441066
-0.362581
-0.0784849
-1.58123
-0.452167
-0.414978
0.289536
0.125442
-1.21748
0.539141
-1.90816
1.8369
0.0712556
-0.332292
-0.00399706
-0.279003
0.493349
-0.0486278
-1.12856
0.191426
0.335599
-0.374057
0.0384585
0.909959
-0.0922633
-0.817695
0.869326
-0.111793
-0.420827
1.27108
0.0543206
0.715413
-0.107143
-0.171275
0.278418
-0.17269
0.962681
-1.29524
0.86713
0.428106
0.0610596
-0.0692368
2.94674
-1.05027
1.73326
-1.73074
-0.378464
-0.315215
0.693679
1.38791
-2.4699
1.082
1.16606
-1.23657
1.77168
-0.821521
-0.950161
-0.0115266
-1.11097
-0.184262
-1.02865
1.74602
-0.717372
-0.0916279
-0.731334
2.60806
-2.08823
0.506998
0.0842815
-0.0811583
-0.189612
0.136998
0.311626
-0.00905755
-0.947707
-0.889571
2.52523
-0.7832
-0.867468
0.465491
0.401977
0.108156
0.477543
-1.2595
-1.00431
2.26381
0.41006
0.438326
-0.00949451
-0.318482
0.327977
1.64314
0.114742
0.0191174
-0.133859
1.44597
-0.554128
-0.659914
-1.93111
0.32247
-0.497384
0.0327702
0.464614
1.40656
1.91194
-0.678072
-0.388025
1.0661
1.93228
0.0965826
1.25918
-1.75991
0.500726
-1.61786
-0.00273575
1.62059
-1.64002
2.10031
-0.460283
0.312165
-0.0121788
-0.299987
-1.1711
2.75677
-0.0818077
-0.982406
1.06421
0.0728136
-1.56168
0.821777
-0.536684
-0.285092
-1.84362
2.40074
-0.557121
-0.411531
1.13828
-0.726746
2.32549
-1.02929
-1.29619
0.0458541
-1.18164
1.13579
0.117579
0.00969997
-0.955536
2.14317
0.779946
-1.70117
2.01732
-0.950219
-0.404546
0.340037
-1.67837
0.0605074
2.18754
-1.00402
0.0255763
-2.5662
0.654785
0.0237157
0.963479
1.14338
-2.10686
1.09627
-0.312263
-0.784007
0.876389
-1.67487
0.798484
-0.368686
0.018275
0.350411
-0.392378
-1.02042
1.41279
0.732431
-0.522748
-0.106014
-0.120164
0.226178
0.216094
0.472519
-0.688613
0.162075
0.27899
-1.94834
2.2888
-0.340462
-0.0127617
0.0419909
0.935384
0.432221
-1.36761
0.528675
1.73398
-2.26265
0.385539
0.96706
-0.0473508
2.2434
-0.0312113
1.58573
-1.55452
0.315575
-0.132189
0.194817
-0.0697803
-0.125037
3.05122
-1.48441
-1.5668
0.848973
0.922709
0.0685482
0.0581467
-0.126695
-0.50104
1.54646
-1.04542
0.00130355
0.371594
-0.372898
2.04961
-2.83178
0.782175
-0.41148
-0.840894
1.25237
1.5749
-0.328131
0.524491
0.571778
-0.861103
0.28187
0.579233
0.604374
-1.59716
0.494877
-0.826705
0.331828
0.397952
-0.102931
-0.29502
0.0104972
0.107082
-0.124097
1.29159
-1.16749
-0.397171
2.21905
1.47353
-1.24101
-0.232512
1.30901
-1.05458
-0.953217
0.345652
0.607565
0.263668
-0.860865
0.369932
-0.338758
-0.0311743
0.140009
0.298896
0.298288
1.45713
-1.75542
0.569425
0.320834
0.241791
-1.83593
-0.977985
0.0974285
0.880556
-0.744055
-0.430257
1.17431
1.0514
-0.566314
-1.66853
1.06762
0.493834
-0.387239
-0.106596
-0.881901
2.09124
-1.20934
-0.866889
0.962559
-1.06255
0.929043
0.13351
-1.14103
2.05452
-0.913491
-0.0403169
0.478061
-0.437744
-0.143979
0.163922
-0.604046
-1.1677
1.91699
-0.749288
-1.11732
1.43214
0.984141
-1.07714
0.0930019
0.287053
0.805879
-1.09293
-2.39434
1.51417
0.880174
-0.00185771
-0.102221
0.104078
0.00408474
1.34625
-1.60484
2.36468
-0.976769
-0.486038
-0.841067
-1.41331
1.3821
0.909425
0.00883817
0.66684
0.209871
-0.876711
-0.720289
0.65752
0.0627695
-0.651478
1.04828
-0.396802
-0.397881
0.0657921
0.332089
0.746149
0.549795
-1.29594
-1.37515
-0.503019
1.87817
-0.678237
0.96529
1.1596
1.89161
-1.89273
1.10832
0.784411
-1.03775
0.42762
0.610128
0.0142448
0.402315
-0.50825
0.105936
-0.943565
-0.668779
0.270898
0.302671
0.433952
-0.345519
-0.998026
0.602714
0.697829
-1.12158
0.0417622
0.618661
0.125388
0.0843985
-0.209786
-1.47444
-1.09882
2.57327
-0.602524
-0.258579
-0.963973
-0.165222
1.1292
0.147073
0.5109
-0.657973
0.0394672
2.22184
-1.43673
-0.785115
0.393827
1.26217
0.199748
-0.794972
-0.0208794
0.815851
-1.4686
1.75048
-0.281887
-1.06259
-0.479565
1.54216
-0.966755
0.324018
-0.687845
-0.265372
1.87377
-0.900266
-0.973504
0.843265
-0.0805261
-0.762739
0.661632
0.170225
-0.831858
-0.36646
0.417084
-0.547355
0.199381
0.347974
-0.277326
-0.0675061
-0.447904
-0.012996
1.02666
0.847115
-0.712084
1.86803
-0.855368
2.85455
0.837747
0.00551781
-1.61812
0.555534
1.48147
-1.24314
-0.252902
-1.30981
0.28315
0.161132
-0.747801
1.34766
-1.32085
1.665
-0.0834987
-0.409429
-0.255303
-0.399572
-0.164437
0.564009
-0.63481
-0.0883999
1.51637
0.288188
-1.80456
-0.027102
-0.498203
0.525305
-0.307366
0.988194
-1.89823
0.910038
1.6589
-0.1214
-2.35083
2.67163
-0.320797
0.42506
-0.328188
-1.98046
-0.413882
-0.532388
1.77306
-0.0434414
1.30463
2.07561
-0.755906
-1.3197
-1.19995
-0.0743765
1.27432
0.478104
0.871051
-1.34915
-1.4102
0.139602
-0.356519
-0.170237
0.526756
-0.953504
1.17173
0.31667
0.955437
-1.27211
-0.29179
-0.216175
0.507965
-1.82595
0.23204
1.59391
1.17698
1.1877
-0.584311
1.01269
0.386342
-0.454014
-0.2376
1.85018
-2.12914
1.03094
-0.05648
-0.97446
0.737252
-0.192317
1.3415
0.0429298
-1.38443
1.91513
-2.7705
-0.0205429
0.114369
-0.586538
1.12259
-0.53605
-2.15357
2.09141
-0.0762665
0.640172
-0.563906
-0.0552872
0.140765
-0.0854776
-0.96805
0.151739
-0.540562
1.21887
0.327824
1.0434
-0.330286
0.356952
-1.50045
0.876752
0.218392
-0.166543
-0.422909
0.401317
0.0215918
0.434632
-0.488644
0.054012
-1.10734
1.17296
0.228122
-1.1921
-0.155298
-0.629976
-0.042475
1.13623
-1.09375
0.678223
-0.812177
0.283844
-1.4069
1.12306
-0.289216
1.6476
-1.35839
0.567719
-1.65331
-1.00635
-0.0427061
-1.84892
0.744268
1.78096
-1.41807
-0.250453
-0.97051
-0.854988
-0.884828
0.345352
-0.136628
-0.196834
0.333462
2.94333
-1.53678
1.52004
-0.351685
-0.49105
-0.322788
0.813838
-2.25802
1.12826
1.12975
-0.210496
0.2311
-1.56518
0.54153
0.342657
-0.194873
-0.420764
-1.00899
0.927184
0.112417
-0.170327
0.0579103
-0.246728
1.7631
-0.611843
0.66289
-0.0510469
1.65694
-2.39819
1.0664
1.3318
0.254428
0.57627
-0.830698
1.02031
-0.181224
-0.83909
-1.0762
0.664673
0.126015
-0.0581535
0.719786
1.76147
-1.94843
0.858811
-0.389973
-0.727125
1.3315
-1.6692
1.19118
0.478024
2.04779
-2.95355
0.905753
-1.32814
1.46951
-0.14137
0.73786
-0.91055
0.0250509
0.36536
0.508992
0.708623
-1.91179
0.867717
-2.4719
1.64095
0.830952
0.438467
-1.63841
1.12468
-0.0319993
-1.20112
0.250674
0.420749
2.06267
-0.7241
-1.33857
0.252457
0.464136
-1.20819
0.336902
-1.80948
1.7351
-1.427
0.589653
0.895613
-1.24423
0.564697
0.679529
-1.8248
1.06607
0.758735
-0.295332
0.0430652
-0.182892
-1.98942
1.40226
0.587159
1.55727
-2.72837
-1.94119
-0.00714883
2.77195
-0.929303
0.158461
0.201324
-0.359785
-0.0518075
-0.31661
0.368418
0.112884
0.833929
1.03341
-0.63096
-0.613266
0.27449
0.457942
0.385199
0.741446
-1.12665
0.797614
-0.467649
-0.0541827
-1.99007
2.04425
-0.649196
0.635893
-1.3451
-1.33665
-0.916396
2.25305
0.478382
-0.711044
-1.37563
0.407569
0.968066
-0.0489176
0.167776
-0.118859
1.75676
-2.24023
0.447744
-1.03428
1.93003
1.11964
-3.04967
-0.677786
-0.189682
-1.63895
0.462026
1.17693
-1.34487
0.933387
0.211003
-1.6796
0.0310601
0.99988
-0.0359618
-0.0129558
-0.0536168
1.62274
-1.15182
1.50364
-0.35182
1.60034
0.00765498
-1.60799
-0.968641
-0.0250044
-0.361174
0.0991626
1.5107
0.266085
0.064341
0.608957
1.15159
-0.617162
0.972485
0.154991
-0.806469
-1.79527
-0.11289
-1.53328
0.514195
-1.66955
0.350963
0.400085
-0.751049
1.64546
0.0995769
-1.74503
-0.235129
0.22295
-0.699751
-1.39124
-1.497
-0.266771
-0.940142
2.85527
-0.66422
0.943786
-0.279566
-2.0728
0.598356
-0.597902
0.983102
-0.752475
-0.755969
-1.09199
-0.520923
0.570524
-0.083335
0.993294
2.03385
-0.260785
1.12736
-0.30933
-0.818031
-0.0484817
1.07193
0.540392
1.97256
-1.84278
-0.0729783
-0.455562
0.670757
-0.920347
1.04068
-0.931538
-1.24615
0.472578
0.336823
-0.809401
-1.65253
0.0426671
-0.275844
1.51563
-1.23978
0.010954
-2.36179
-1.2565
1.50823
2.74806
-1.30804
-1.44001
-0.196234
0.500706
1.30395
-0.607322
-0.696628
0.542135
-0.609641
0.0759842
0.118833
-0.30285
-0.0117906
0.31464
-0.196932
0.863773
-1.16694
2.72421
-0.0282565
-0.334324
-0.541792
-0.19495
0.736742
-0.138697
1.89546
1.87615
-0.706453
-1.1697
-0.777168
1.14471
0.742954
0.80351
-0.99111
0.0131251
1.08649
-0.428405
-0.65808
-0.121449
0.0746584
0.0467901
0.26762
-1.43714
1.16952
-1.79035
0.293354
0.44694
-1.1586
1.67279
-0.029318
0.571453
0.275389
-0.93961
-1.73306
0.892459
-1.94913
0.584366
-0.915505
0.134976
-0.68943
-1.07828
1.76771
-1.60008
0.0478862
-0.229553
0.181667
1.89718
-1.52051
1.43318
-0.955081
0.215866
1.04534
-1.2612
0.285046
-0.641565
-0.962768
-0.687004
1.64977
0.121823
-0.928809
0.806985
-1.8143
2.92019
-1.1059
1.28131
-0.962494
-0.318816
1.2984
0.044456
-1.34286
-0.997605
-1.40059
-0.613308
-0.090888
0.829723
1.24078
-0.0220661
0.204508
-0.182442
-1.31291
-0.326048
1.2478
1.07253
-1.04742
1.28015
-0.232733
0.0543396
-0.0352222
-0.140644
0.480276
-0.339632
0.0878161
-0.699659
-0.208543
-1.78088
-1.87068
0.455082
0.0387523
0.713584
-1.35858
0.168799
1.35559
-1.52439
-0.957634
-0.170924
0.915351
0.861519
0.138382
-0.549748
0.0354897
-0.121759
0.0862691
0.0098251
-0.649762
0.639937
0.080467
0.564232
0.774893
1.63127
-0.801504
1.4713
-0.835407
-0.230207
-0.510466
0.740673
1.41956
0.21098
-0.00918602
-1.33003
0.93765
0.696711
-0.835408
-0.629149
-1.50049
2.12963
-1.07748
-1.18054
-2.0963
2.13061
-0.0343189
0.397639
-0.589586
0.425149
1.05609
0.575173
-0.330245
1.30825
-0.978009
-0.535102
-1.05736
-0.578778
-1.00755
1.58633
0.83804
-0.42798
0.859358
-0.364481
1.08146
-1.78121
0.800051
-0.667977
-0.921909
1.68993
-0.768021
1.13245
0.772168
0.655359
-1.42753
2.04012
-1.11554
-0.924585
-1.67526
-1.11072
1.95687
-0.846158
0.395114
0.732248
-0.596209
0.566891
0.8192
1.50629
-0.441635
0.389827
0.0413725
-0.0121525
1.79582
-1.01066
1.03049
1.91284
-0.819697
0.44342
0.376276
0.386422
-0.764886
1.38098
-0.0394801
0.515234
-0.356773
-1.21652
-0.212266
1.42879
0.380318
-0.049757
-0.330561
0.319219
0.122066
0.239589
-1.87961
-0.57973
0.702184
1.25631
-1.1602
-0.0961095
0.361777
0.724709
-0.307369
0.154763
0.594482
0.383135
-0.977618
-0.531003
2.00296
-0.361214
-1.00329
2.01318
-1.0099
-0.442954
0.659048
0.171986
-0.463776
2.07172
-1.06533
-0.665636
0.288012
0.732302
0.615087
-0.770385
-0.371784
0.331467
-0.546418
-0.290973
-0.0153541
0.401057
-0.337621
1.53939
-1.20177
-0.321245
0.217624
-0.50694
0.178198
-0.65931
0.0460019
-1.99665
1.26606
0.533669
0.404007
-0.46263
1.17678
-0.714149
0.367727
0.15298
1.45486
0.833717
-2.28857
-0.222265
-0.0294304
0.251695
0.42969
-1.38269
1.92038
0.827678
1.46544
-1.29665
-1.96624
0.000933653
-0.0454643
0.0382695
0.842228
0.694163
0.706843
-1.40101
0.845272
-0.167049
-0.0577789
-0.61626
-0.203436
-1.02071
-0.700628
0.964296
0.960266
0.734291
1.01827
-1.01503
-0.00323442
0.390909
0.0104087
-0.117245
0.504518
-0.0698857
1.37592
0.340995
-1.71691
0.190695
-0.0782781
-0.458696
0.27997
0.178726
-0.680347
-0.0385488
0.718896
0.492818
1.01635
-1.50917
0.388118
0.663277
1.26653
-0.0402778
-0.530779
0.551747
0.599841
-0.114762
0.32858
-0.213818
-2.03231
0.911354
1.57985
-1.21632
-0.363531
0.0328456
-0.294196
0.26135
1.50996
-1.63406
1.02835
-0.190309
0.744322
0.688862
-0.275643
-0.0153297
0.0847417
0.176076
-0.260818
-0.886603
-0.255513
1.99796
-1.02681
-0.971146
0.736649
0.0366238
-0.773272
0.85345
-1.34725
0.4938
-0.118061
0.928061
0.111025
-0.935244
2.50153
-1.56629
0.214167
-0.129426
-0.977378
0.720642
-0.0577516
1.55274
0.00203487
-1.55478
-0.783989
-0.20147
0.326858
0.0323293
0.0258174
0.317165
0.805423
-1.05573
0.627153
0.0384497
-0.120026
-0.159681
0.246444
-0.771892
0.987758
0.000140599
0.559773
0.0342972
-0.294319
1.11506
-0.055662
1.07393
-0.417701
-0.244331
-0.374914
0.969397
-0.196451
1.59433
-1.39788
-1.45623
-0.242888
-1.72974
2.9455
-1.21576
0.0607719
0.65987
0.640002
-0.105781
-0.0288451
-0.501567
0.530412
-1.57203
0.506695
0.259687
-0.269402
1.18174
-2.44124
0.955478
-2.25573
-2.01156
1.70317
-0.904985
0.990075
-0.60694
0.0171864
-1.07782
1.34544
-0.000101411
-0.308222
0.180252
-0.900741
-0.231177
-1.09379
1.32496
-1.25884
1.29516
2.86106
-1.89871
-0.962354
-0.41225
0.163624
0.458884
0.039895
-0.498779
-1.48555
0.333734
0.384527
0.0134247
-0.012932
-0.258535
0.271467
1.29854
-3.02827
0.18691
0.82456
0.108618
-0.933178
-1.79463
1.59818
0.295891
0.0739837
-0.369874
0.7605
-1.9282
-0.284117
-0.00272934
0.286847
0.381723
-0.0858321
-0.00598405
1.35227
-0.966728
1.05962
0.971131
-0.583013
-1.86762
0.530962
-1.19607
1.02386
0.172209
1.41003
-2.03918
-0.965776
-0.522214
1.48799
-0.0766659
0.79311
-0.594139
0.555266
1.97341
-0.293097
-1.68032
-0.0172323
-1.77804
1.1851
0.113301
0.691676
0.612275
-0.31308
-0.00540172
0.298136
-0.42311
-0.723101
0.0698366
-0.0687981
-0.00103851
0.0189474
-1.41383
1.39488
-0.313435
0.77357
-0.460135
1.07187
-2.24744
1.17557
-0.103052
-0.984011
-0.0587944
0.0150514
1.20563
-0.684496
-0.334867
1.01936
-0.683822
-0.624333
0.861737
-0.524915
0.358953
0.345573
-0.704526
0.541345
-1.00397
-1.54155
-0.20239
-0.130832
0.333221
0.468643
0.24851
-0.717153
0.665192
-1.47632
0.811132
0.132441
-1.0366
0.314594
-2.15822
-1.2789
-1.25881
2.53771
-1.68467
0.0621356
1.62253
-2.07323
-1.42977
0.101636
-0.634467
0.604074
0.0303934
-2.74517
-0.593685
1.9696
0.7587
-0.341771
0.233623
-0.608537
-0.251374
0.914651
0.293109
0.198779
-0.740571
0.0331106
-0.286093
0.252983
-0.296853
0.024776
-0.193334
0.226179
-0.615632
0.87006
-1.94681
1.13915
0.807655
0.321153
-0.39099
0.89655
0.399577
-0.0192594
0.974137
-1.30438
-0.908645
-0.46699
-1.02779
0.316032
0.711757
-0.106798
0.23991
-0.133112
-0.849644
0.859469
-0.169378
1.3436
1.45113
0.425017
0.851324
-1.53515
0.768445
-0.956351
0.187905
0.228117
-0.0160159
0.0322798
-0.015195
-1.75305
1.06362
0.0126362
0.724012
0.024664
-0.391156
0.366492
-2.84221
1.08777
0.467153
-0.897118
-0.368241
-0.0372658
-0.421793
0.459059
-1.05608
0.371583
-1.9105
1.70196
3.32643
-1.3964
-0.490599
0.458765
0.0318334
0.261056
-0.364148
-0.297049
-1.36111
0.704033
0.657077
-0.284388
0.254957
0.0471274
0.654854
-0.701981
0.624861
0.403488
0.23089
0.194887
-0.425777
-0.575919
0.57606
0.265761
-0.127047
0.767805
-1.79272
1.82537
0.106913
-1.11393
-0.106563
1.6639
-0.0773247
-1.58658
-0.369585
-0.384237
0.753821
0.851609
-1.79932
-0.933461
0.671869
0.261592
-0.0363529
-0.00739612
0.043749
-1.70276
1.71946
-0.0166951
-0.72131
1.00515
1.04606
0.307343
1.94385
-0.691534
-1.25231
-0.0341554
-0.178554
0.212709
-0.107446
-0.623348
-0.0177394
-0.587872
-0.035476
0.124867
-0.566957
0.442089
-0.173626
1.68399
-1.51036
-1.40656
0.42967
0.976889
0.458046
1.52162
0.0470092
0.121974
-0.168984
1.05384
0.432962
-1.4868
0.145787
-0.282415
-0.736184
1.61669
-0.880502
-1.43149
0.214965
1.13189
0.47064
-1.43642
-0.00227855
-0.216918
0.219196
1.84265
-0.591673
-1.25097
0.819356
0.449216
-1.90017
1.0106
1.78543
-1.83961
-0.894568
0.141405
0.753163
-0.114262
0.195656
-0.0379552
-0.157701
0.0235634
-0.397004
0.37344
-0.0161283
0.236939
-0.22081
0.082474
-0.140024
0.0575503
-1.02788
2.10934
-0.563801
0.554812
0.619653
-0.572525
0.60039
-1.02985
0.429464
-0.931448
-0.737757
0.215617
-0.131623
0.0153713
-0.00850568
-0.00686565
1.73815
-0.831724
-0.906422
0.126006
1.1303
-0.453975
-0.266314
-1.06485
0.188611
0.796891
0.676643
-1.47353
-0.0248542
-0.00990026
0.0347545
-0.00754735
0.686554
0.530806
-0.652083
0.121277
2.90895
-1.63031
-1.27864
-2.47962
0.568929
0.393832
-2.41013