/*--------------------------------*- C++ -*----------------------------------*\
| =========                 |                                                 |
| \\      /  F ield         | OpenFOAM: The Open Source CFD Toolbox           |
|  \\    /   O peration     | Version:  2306                                  |
|   \\  /    A nd           | Website:  www.openfoam.com                      |
|    \\/     M anipulation  |                                                 |
\*---------------------------------------------------------------------------*/
FoamFile
{
    version     2.0;
    format      ascii;
    arch        "LSB;label=32;scalar=64";
    class       volVectorField;
    location    "5.1";
    object      U;
}
// * * * * * * * * * * * * * * * * * * * * * * * * * * * * * * * * * * * * * //

dimensions      [0 1 -1 0 0 0 0];

internalField   nonuniform List<vector> 
13486
(
(3.19781 -0.632297 1.30088e-18)
(3.43334 0.289212 8.40447e-19)
(5.27253 -0.00424023 0)
(1.17585 -1.18577 -9.98028e-18)
(5.35411 -0.3119 -1.65722e-18)
(4.68946 0.332541 -1.16496e-19)
(5.13862 1.02937 -1.24398e-19)
(4.61472 -1.44545 7.08106e-19)
(4.24474 -0.683392 0)
(3.8227 1.12892 0)
(0.312877 1.169 -1.10722e-18)
(4.61729 -0.1472 0)
(2.92421 -0.999413 -1.27125e-18)
(4.51396 1.31669 -2.33577e-19)
(4.83393 0.422094 -6.89725e-19)
(3.75457 1.10832 -7.91822e-19)
(-0.0255155 -0.84837 7.91349e-19)
(-0.593876 -0.234343 7.45015e-19)
(4.14219 -0.0333622 1.07697e-21)
(3.46635 -0.270731 -1.36495e-18)
(-3.21107 1.26002 -5.9397e-18)
(2.96782 -1.03885 1.65926e-18)
(3.47383 0.270198 -6.68232e-19)
(7.04762 2.56775 0)
(3.93101 0.919274 2.73275e-19)
(6.99111 2.48893 -1.21023e-18)
(1.56327 -0.289685 1.4162e-18)
(6.29543 -0.0946764 1.55111e-18)
(3.82568 0.583002 0)
(6.74797 -0.336696 -1.95719e-18)
(-6.05993 4.25007 -3.81209e-18)
(4.14912 0.262853 2.32936e-19)
(5.88666 0.804052 6.25634e-19)
(5.4452 -0.545249 0)
(4.63297 -1.35781 0)
(3.27349 0.0344543 1.19141e-20)
(3.29872 -0.334831 -2.18112e-19)
(3.51371 -1.61857 2.27316e-19)
(3.86756 -0.596902 -2.89611e-20)
(4.17813 -0.42574 2.31207e-19)
(7.00762 -1.05395 0)
(2.38834 -1.16717 -1.56857e-18)
(4.36694 0.016465 0)
(3.97843 0.775447 -1.25149e-18)
(4.0071 0.755821 5.20505e-19)
(4.60526 -0.149542 8.16056e-20)
(-1.71699 -1.66464 6.25945e-18)
(3.72159 0.539179 7.16104e-21)
(3.2479 -0.314369 1.65358e-19)
(5.42922 0.206788 2.96638e-19)
(4.00055 0.00716092 9.58883e-19)
(4.03213 -0.184121 0)
(4.35728 -0.405008 -3.05967e-19)
(3.6702 -1.32362 -4.08909e-19)
(-1.17996 -1.11042 0)
(5.22413 -0.379949 8.47016e-19)
(4.55498 -0.694583 1.93589e-19)
(4.08042 -0.325333 -1.78919e-19)
(5.89577 0.879723 8.8333e-19)
(3.39032 -0.515914 0)
(-0.409986 3.28299 -1.10066e-18)
(3.44277 -0.529867 0)
(6.8678 0.361851 -1.02376e-18)
(-3.03539 1.09664 -7.57457e-20)
(0.437698 1.39329 0)
(3.28046 -0.385882 -1.11393e-19)
(0.444829 -0.895682 -7.34383e-18)
(3.09578 -0.140665 5.3251e-19)
(4.25745 -0.738485 -1.87543e-20)
(3.22139 0.023269 5.44084e-20)
(0.533056 -0.852141 8.52849e-18)
(-1.06291 -0.736514 4.73213e-21)
(4.14141 -0.237839 2.73724e-19)
(-0.935038 2.3709 -9.95578e-19)
(3.24595 -0.494147 -2.60062e-20)
(4.5348 -0.518826 -4.49765e-20)
(3.17736 -0.484048 9.9082e-20)
(4.88209 0.46359 3.02522e-19)
(-2.26536 -2.62933 -2.62053e-18)
(3.96199 -2.45307 0)
(3.61948 0.086431 -2.13654e-21)
(3.33066 0.44727 -5.46226e-20)
(6.96365 -0.396871 -3.49657e-19)
(5.35796 -0.0663497 -2.54118e-21)
(3.19305 -0.6321 -2.55445e-18)
(2.57809 2.41176 0)
(2.9627 -0.997634 9.21755e-20)
(4.00589 0.031384 -1.5088e-18)
(3.80668 0.215448 -6.51424e-19)
(3.48635 1.52467 -1.06942e-18)
(3.84073 -0.064689 -1.15362e-19)
(4.91363 -1.05401 5.49103e-19)
(3.32148 -0.788164 2.97617e-19)
(3.47397 -0.059782 3.98432e-20)
(4.15464 -1.17981 -2.09641e-21)
(3.67649 0.417801 -2.3792e-21)
(1.15512 -0.16448 0)
(-2.66152 0.137025 2.92972e-18)
(4.20243 -0.413353 -4.44947e-19)
(-0.558434 -1.10352 2.27597e-20)
(3.59241 0.0463414 0)
(4.48876 1.29722 -9.60372e-20)
(-3.39952 0.284806 -7.56642e-20)
(4.03757 -0.274823 2.10013e-19)
(2.56688 2.27223 0)
(-0.966485 -1.20275 5.73614e-20)
(3.99279 0.0126507 -3.35589e-21)
(3.88678 -0.685584 -5.9123e-20)
(-2.77172 -2.66252 3.71034e-18)
(4.8211 -2.04168 0)
(3.5917 -1.66769 0)
(4.04237 0.831434 5.83653e-19)
(3.69496 -1.27359 1.53263e-20)
(5.69998 0.436909 -2.40062e-20)
(2.50319 -0.381788 0)
(3.40318 -1.65793 2.02377e-19)
(3.90905 0.950185 0)
(5.93508 -0.542208 0)
(4.13745 -0.212679 0)
(3.2219 -0.19323 -1.16352e-19)
(-0.139138 -0.755902 -3.55074e-19)
(-0.703438 2.58874 0)
(4.06545 -1.05593 0)
(3.89211 -0.598711 9.53141e-20)
(4.32053 -1.38414 0)
(4.03597 -0.177343 0)
(4.59111 -0.230078 -6.43354e-21)
(4.24432 0.122406 5.78031e-19)
(5.06258 -0.445344 -2.17524e-19)
(2.84327 -1.03218 -6.26745e-18)
(3.94059 -0.140413 -2.24834e-20)
(-1.14772 -1.66409 -1.63182e-18)
(1.46463 2.8727 2.38102e-18)
(-0.225731 0.207637 1.15899e-18)
(3.99796 -0.000961151 -1.50245e-19)
(3.75324 0.576835 -9.10381e-19)
(1.62168 0.821737 -5.95494e-19)
(4.77333 -1.93468 0)
(3.20711 -0.15858 3.51559e-20)
(4.60131 -1.0171 1.54921e-19)
(5.78126 0.57113 -7.84272e-19)
(4.32325 -0.388849 2.6853e-19)
(4.24519 -0.0435378 0)
(4.11241 -2.26923 0)
(4.77382 0.0549332 -3.59726e-20)
(5.13121 0.0292349 4.22266e-19)
(3.78155 -0.678519 -6.40586e-21)
(0.90815 2.1875 0)
(5.43695 0.287502 0)
(3.87055 0.552279 0)
(4.02339 -0.00163771 1.90194e-20)
(5.2201 0.274196 0)
(3.64054 0.0604372 2.24829e-21)
(3.27741 0.421296 -4.81278e-19)
(4.23009 0.517445 0)
(5.64194 -0.00903872 0)
(4.79885 -2.08944 0)
(4.6121 5.1995 4.82759e-18)
(3.92428 -1.51299 8.14269e-20)
(3.4721 -0.445031 -9.30379e-20)
(5.30939 0.128068 7.37981e-20)
(3.9569 -1.43893 -8.76931e-20)
(3.07928 0.0992914 3.26025e-19)
(2.20704 -1.04247 6.74087e-19)
(4.1104 -0.230221 0)
(4.70038 1.35492 1.52827e-19)
(4.41862 1.17275 6.76647e-19)
(1.42052 -0.532952 -2.23425e-18)
(3.73782 -0.626538 1.03448e-20)
(-0.279894 0.282809 3.22803e-19)
(1.65867 2.77642 3.39473e-19)
(4.21858 0.461012 4.67257e-19)
(3.99032 0.0781932 -1.40659e-18)
(4.56406 0.0147976 -1.64832e-20)
(3.60613 0.199774 -4.90047e-21)
(-3.80252 3.85587 0)
(4.38592 1.79818 -4.88192e-19)
(5.7266 0.679415 9.14794e-19)
(4.00762 0.0127601 -1.30694e-18)
(4.28836 -0.0920093 0)
(4.32825 -0.467406 1.16526e-19)
(5.69263 0.533472 -4.45743e-20)
(4.46593 0.0402694 1.8013e-20)
(1.08327 -0.533339 0)
(5.04501 -0.228542 1.96528e-20)
(5.74029 -0.0747096 -6.90251e-19)
(4.24153 0.569084 2.45769e-21)
(6.22096 -0.494896 -4.40675e-19)
(6.76376 -1.04077 0)
(3.17239 -1.50028 1.13628e-19)
(3.2009 -0.277316 0)
(5.32497 0.0683549 0)
(4.20591 -0.510438 0)
(2.74862 1.10455 -1.14953e-18)
(4.3493 -0.655316 0)
(0.216924 0.850965 -3.07246e-19)
(1.2214 -0.41131 1.4263e-17)
(5.52734 0.103093 7.27865e-20)
(2.95028 -1.44497 -1.69936e-19)
(4.68195 1.26944 1.60613e-19)
(-6.57357 3.69012 3.65494e-18)
(4.26131 0.162327 -1.79999e-20)
(3.4107 -1.62389 -2.64686e-19)
(5.38373 -1.95417 -1.1387e-18)
(3.32704 -0.365885 1.13184e-19)
(4.43317 -0.62342 -1.96613e-19)
(-1.45206 0.417017 -9.42889e-20)
(3.97226 -0.173687 8.11139e-19)
(4.15972 -0.515902 0)
(5.12243 -0.193775 0)
(6.37878 -0.221648 1.24659e-18)
(9.23467 2.19477 5.57508e-18)
(3.49889 -0.244791 1.2433e-18)
(3.96595 0.0151215 -2.89604e-21)
(4.68814 0.398386 1.3413e-19)
(6.26354 -3.29602 5.72104e-19)
(6.63555 -0.180097 0)
(3.50555 1.46561 2.41054e-18)
(3.50324 -0.801781 0)
(5.76202 1.58321 0)
(-0.416515 -0.798155 -1.43699e-18)
(5.46662 0.365527 0)
(4.53393 -1.03096 -4.05838e-19)
(5.25078 0.131996 0)
(4.34815 -0.574526 -7.40929e-20)
(2.99062 -1.39564 3.81019e-19)
(4.87173 0.705915 7.58166e-21)
(-6.44578 2.79427 1.83041e-18)
(5.29156 -2.06388 9.18905e-20)
(3.20197 -1.04012 -8.66653e-21)
(4.32451 -0.452338 -4.52641e-20)
(8.03318 2.47744 7.79688e-18)
(5.79146 0.658799 9.79295e-19)
(2.39369 -1.16642 5.55759e-19)
(-5.17986 0.820096 0)
(2.80786 -1.35626 3.80284e-20)
(6.01144 -0.623423 8.12159e-19)
(5.3621 0.0692899 1.69625e-20)
(2.65331 -1.26697 1.06629e-18)
(4.49714 -0.00957662 0)
(5.9418 0.96616 0)
(4.00275 0.054624 2.13461e-18)
(5.56212 0.291361 0)
(2.58194 -1.27604 2.96118e-19)
(3.7177 -0.676087 -3.90358e-20)
(3.74476 -0.0150689 0)
(4.5687 -0.000271163 5.68627e-21)
(7.85201 0.770424 4.11229e-18)
(-1.0866 1.03959 2.29884e-18)
(3.93025 0.71717 0)
(-2.53136 2.25702 -6.69029e-19)
(2.44167 -0.326003 2.40462e-19)
(3.13892 -1.52401 -3.52284e-19)
(3.91673 -0.694283 0)
(4.69757 -1.9937 2.40865e-19)
(-3.30257 4.44537 5.77656e-19)
(4.09958 0.22977 -7.38735e-20)
(6.08879 -3.62007 -7.29719e-19)
(5.71408 4.90387 -4.67741e-18)
(6.04279 0.942769 6.75629e-19)
(3.64513 0.227868 0)
(3.68823 -0.660175 -4.34793e-21)
(4.74626 0.432878 1.5508e-18)
(-3.33856 4.06109 -7.03644e-19)
(5.39132 -1.1926 1.70016e-18)
(1.15274 -0.663695 0)
(5.35749 -1.88408 -6.59652e-19)
(-6.56357 3.5956 -6.0983e-18)
(4.35894 -0.00794753 -3.79268e-19)
(1.36221 -1.41553 0)
(3.03094 1.33593 9.03221e-19)
(3.97852 0.0249764 -3.78281e-19)
(6.62241 -0.200744 0)
(4.55066 -0.303852 1.18095e-19)
(2.98016 -1.42243 4.97581e-19)
(7.58778 0.501093 -2.35391e-18)
(4.71095 -1.78541 0)
(-1.31964 -2.15825 0)
(3.95865 -0.800152 -7.41523e-20)
(3.93382 -0.699901 3.29766e-20)
(-1.48076 -3.31029 5.03046e-18)
(4.42605 -0.223545 -1.63471e-20)
(3.95049 0.0352664 8.0013e-19)
(4.65211 2.59097 -2.97859e-19)
(-0.407017 1.81229 1.44362e-18)
(1.25788 -1.15812 2.43151e-18)
(5.64978 0.678826 7.04944e-19)
(4.83195 -0.508731 2.84253e-19)
(4.70105 -0.575726 1.17076e-19)
(4.23419 0.0104284 0)
(-5.21032 0.550848 0)
(3.52945 -0.540369 5.03299e-20)
(3.45155 -1.63378 -8.41724e-20)
(3.99872 0.00895839 -1.46465e-19)
(6.06759 -0.60552 7.50963e-19)
(6.12953 -0.572594 0)
(4.92356 -0.0174567 -1.49653e-19)
(4.64417 -0.275685 -1.00263e-19)
(3.95133 0.0121018 -7.18708e-19)
(6.16474 0.730936 -2.6471e-18)
(3.11196 -0.0195217 -3.72916e-19)
(-1.74179 0.842651 1.14349e-19)
(4.08932 -0.672547 -2.85233e-20)
(4.2274 0.28025 -1.87585e-19)
(3.30169 -0.199938 3.50639e-20)
(4.83502 -2.17676 0)
(7.95105 1.70021 0)
(4.22129 -0.02067 -7.17621e-21)
(3.15034 -1.10587 -6.89415e-20)
(3.25176 -0.307178 0)
(3.53382 2.68159 -1.8452e-18)
(1.93541 -1.56616 0)
(4.24029 1.71944 3.54834e-19)
(4.0273 0.779665 3.92868e-19)
(0.666041 3.49353 0)
(3.73373 0.536662 -5.88925e-19)
(3.41816 -0.489987 -7.44212e-20)
(3.77917 0.197483 -5.66493e-20)
(3.94901 -0.166697 -9.37053e-19)
(5.66363 -1.836 0)
(3.24176 -0.369797 2.0408e-19)
(3.54664 -0.51588 1.19476e-21)
(4.01398 0.0233658 1.66304e-19)
(3.45878 0.048716 -7.68978e-19)
(1.79599 0.793675 1.05312e-18)
(3.92421 0.0218854 3.19469e-19)
(4.78683 -0.256575 1.77011e-18)
(4.45742 -0.225716 0)
(4.84705 -0.327367 -2.37621e-21)
(4.86832 -0.188445 5.41995e-19)
(4.00679 0.00298326 2.18577e-18)
(5.03845 -0.930423 0)
(3.64329 -0.112215 -1.30133e-19)
(3.05158 0.402098 0)
(5.30575 1.1147 4.25099e-18)
(4.28522 -1.01936 9.77315e-20)
(1.96397 -0.936072 7.40757e-19)
(5.23575 0.255406 1.60257e-18)
(4.00819 0.230216 0)
(3.67055 -0.644529 -5.60232e-20)
(5.48032 -1.86927 7.12477e-19)
(3.45747 0.033794 7.25133e-19)
(4.9358 -0.157585 -1.73943e-18)
(4.48213 0.054351 -2.58977e-19)
(0.61018 0.431333 -1.36487e-18)
(3.73351 0.491801 -2.87422e-22)
(4.55481 -0.0744516 0)
(2.4509 -0.899572 1.73712e-18)
(5.8036 1.56555 0)
(3.48666 -0.504102 -2.78292e-21)
(4.5298 -0.0326145 -9.08356e-20)
(4.73354 -0.334396 -1.16036e-19)
(4.57233 -0.290094 1.07402e-19)
(0.552669 0.015802 -1.70719e-18)
(3.96202 0.0179021 8.90964e-19)
(3.45522 0.0402746 0)
(-1.04013 2.39505 -9.54057e-19)
(4.58143 -0.186546 1.27985e-19)
(3.28043 -1.07808 3.10111e-20)
(8.63194 1.18242 4.07897e-18)
(4.8459 -0.0414025 0)
(3.93795 -0.21391 3.36609e-19)
(3.70221 0.100308 1.5556e-18)
(3.97445 0.029604 1.15894e-18)
(6.72391 -0.350426 0)
(3.66906 0.0486893 -6.88939e-22)
(6.17582 -0.534692 -7.62834e-19)
(-0.212227 -0.711505 9.59156e-19)
(3.43987 -0.287715 1.73249e-19)
(4.57441 -0.184127 -1.21317e-19)
(4.49499 0.0119964 1.39218e-20)
(4.54365 -0.134711 0)
(4.38249 -0.621548 -2.71265e-19)
(-2.52417 2.94087 5.3955e-19)
(4.62653 0.732148 -3.00908e-19)
(3.99826 0.0122332 7.95515e-19)
(3.05821 0.0278469 0)
(3.57787 -0.552366 -7.25067e-20)
(1.26148 3.75821 0)
(5.67764 2.60277 -4.79105e-19)
(4.38736 -0.024332 0)
(5.05573 -1.26472 -4.69363e-20)
(2.98546 -0.451418 -4.03604e-19)
(3.06097 1.16849 2.03269e-18)
(-0.790332 -0.839846 -4.21815e-18)
(4.86798 -1.77421 0)
(4.43716 0.117467 -5.2845e-19)
(4.01242 0.248067 -6.10318e-19)
(-2.13106 0.737382 -7.7938e-19)
(-2.8275 5.33652 8.4013e-19)
(3.53976 -0.262311 -1.83322e-18)
(6.52315 -0.0773413 7.28511e-19)
(4.091 0.269174 4.88562e-19)
(3.30092 -1.04998 0)
(2.95805 0.251804 9.53037e-19)
(3.14474 -0.131084 -1.1801e-19)
(1.53513 -1.34025 5.55972e-18)
(-2.2233 2.33392 -1.89851e-18)
(-2.02767 0.344044 -1.15885e-18)
(5.73687 0.625318 0)
(-2.22773 0.755148 0)
(3.72663 1.83971 0)
(4.35516 -0.0995493 0)
(7.74062 0.0188224 -4.72348e-18)
(4.96567 1.15452 0)
(2.73883 -0.839106 0)
(3.52095 0.00487579 2.84998e-19)
(5.74622 0.697286 -9.57873e-19)
(4.50906 -0.136337 1.17771e-19)
(3.50374 0.344907 2.8772e-18)
(4.01114 0.0236687 -3.06189e-19)
(4.02383 2.70201 0)
(6.31744 0.119756 0)
(3.93804 0.010406 7.71857e-19)
(3.99632 0.0318118 1.35036e-19)
(2.69685 1.19153 0)
(1.10294 -0.46467 1.41965e-18)
(5.38868 -1.23932 -1.92986e-18)
(1.01753 2.88327 0)
(4.50962 -0.00456007 -1.13208e-19)
(4.00059 0.0141549 -8.89728e-19)
(2.10229 1.91022 -7.25009e-20)
(2.43192 -0.886725 0)
(3.99311 0.244772 1.10367e-18)
(4.99284 0.465253 0)
(6.23098 -0.476366 0)
(4.28385 0.328609 -8.61784e-20)
(3.93835 0.0377582 4.34227e-19)
(1.77075 -0.207664 -1.82567e-18)
(4.35468 1.14575 2.40824e-19)
(3.06272 -0.851991 -6.16635e-19)
(4.34864 -0.0787744 3.45917e-20)
(4.10173 0.287405 3.91833e-19)
(4.77002 -0.630449 6.72814e-19)
(5.69948 -1.09024 0)
(7.13626 0.950523 1.6248e-18)
(2.97706 -0.34704 0)
(3.55454 -0.559473 4.51689e-20)
(4.54967 -0.0162055 0)
(3.13927 -0.114933 1.11821e-18)
(-3.29596 -0.346953 -4.5393e-18)
(6.50815 -0.0868487 0)
(-0.434578 0.107587 4.85483e-20)
(6.36302 0.138098 -1.36841e-18)
(3.29624 -0.72936 4.84019e-20)
(3.86877 -0.576751 1.064e-18)
(2.85259 1.11134 -1.32952e-18)
(3.02981 -0.852744 -1.84023e-18)
(6.10894 2.52139 0)
(3.2339 -0.21106 1.02047e-19)
(0.648137 0.380601 -3.23542e-18)
(3.99395 0.267285 0)
(3.75793 0.225762 6.13297e-20)
(5.36947 0.106699 -6.48513e-20)
(4.85174 2.04992 0)
(4.0052 0.00544184 0)
(0.317837 0.00205069 0)
(-3.6991 3.97466 3.22656e-18)
(4.75592 3.60298 3.55818e-19)
(4.89576 0.279127 -1.32287e-19)
(4.19467 1.65917 0)
(3.71114 -0.445325 9.71057e-19)
(3.5751 0.195084 1.06627e-20)
(4.35549 1.05823 -5.60858e-19)
(-1.00761 -0.379853 1.17172e-17)
(3.87217 0.147024 0)
(3.76838 0.546961 0)
(1.93326 -0.512564 -1.3411e-18)
(3.23905 -1.02485 -3.80634e-19)
(4.15846 -0.307844 0)
(3.89747 -1.82227 7.93308e-19)
(3.68562 0.0503285 -8.48585e-21)
(3.70517 0.376136 2.99094e-21)
(2.14103 -1.01515 0)
(4.48933 -0.321648 3.46238e-19)
(3.20765 -0.137692 1.00758e-19)
(4.99154 0.42705 -5.16705e-20)
(4.26054 -1.08979 0)
(0.879377 -1.19745 -3.65151e-18)
(4.66658 -0.313795 1.09217e-19)
(3.99459 0.078438 2.149e-19)
(3.34473 0.0347588 4.13385e-20)
(4.8238 1.35227 0)
(3.46838 0.358991 -7.65594e-19)
(5.7456 1.03923 -3.83621e-19)
(-1.57683 -0.162405 1.44871e-19)
(4.01386 0.0400622 0)
(-3.83063 4.32604 -9.08334e-19)
(1.47178 -0.4551 0)
(4.01558 0.0412808 -8.53672e-19)
(3.98844 0.0309068 3.21825e-19)
(3.88955 -0.0350407 -1.49648e-19)
(-3.55403 4.04947 0)
(4.9226 -0.0346256 -2.19965e-20)
(2.46701 0.446162 2.77378e-18)
(5.54517 -1.04324 0)
(3.47932 -0.0215258 8.94695e-19)
(6.13173 0.397121 2.98648e-18)
(4.43243 0.00227922 0)
(-6.37053 2.94233 2.54035e-18)
(4.04451 -2.17069 -3.87704e-19)
(4.54919 0.0157458 0)
(-1.2843 -1.4926 1.99361e-18)
(3.73623 0.216658 0)
(4.06939 -1.77798 -2.21501e-19)
(-2.92775 2.52002 1.24039e-18)
(4.20838 0.636702 -2.69248e-21)
(4.73256 0.338412 1.83612e-19)
(2.95999 0.244148 4.94322e-19)
(3.86085 -0.612266 -3.83554e-19)
(4.84651 -1.59207 -2.38889e-19)
(4.08015 -1.74083 1.83597e-20)
(4.5267 -0.207273 -6.47905e-20)
(4.80096 1.34207 -2.53457e-19)
(5.0986 -2.10125 0)
(3.99728 0.000403314 -7.05683e-19)
(1.26406 3.14064 -1.42298e-18)
(3.04538 -0.356509 0)
(2.94938 -0.249259 -6.08124e-20)
(3.12938 0.0204057 0)
(2.81985 -0.893336 1.64692e-18)
(5.00038 -1.52876 0)
(3.45582 0.0236233 -2.62565e-20)
(4.57947 -0.0677173 4.65682e-20)
(-6.72963 2.98462 4.25895e-18)
(-0.188338 0.39976 2.33295e-18)
(4.70976 -0.0158001 8.12345e-23)
(4.24721 -1.95739 -1.57532e-18)
(4.01813 -1.05424 1.33446e-19)
(3.32605 -0.78557 0)
(-0.0905874 -0.130837 -9.68442e-19)
(5.72325 -0.750829 3.88799e-19)
(0.0293306 -0.271441 -1.16732e-18)
(3.69519 0.44631 -1.83858e-21)
(3.27812 -1.2812 0)
(4.37055 -0.0174911 -6.45628e-21)
(1.21017 -0.536086 0)
(-3.61122 0.703511 -3.95824e-20)
(2.07522 1.8482 4.82536e-21)
(5.31521 4.33138 0)
(4.68833 -0.868264 -1.60666e-19)
(-0.10778 1.83428 0)
(4.91484 1.87696 0)
(3.80136 -1.7465 2.85107e-19)
(3.10572 0.345794 7.69073e-19)
(3.07076 -2.89881 0)
(3.71003 0.144385 -4.42859e-19)
(5.11671 -0.197622 -3.27319e-19)
(-2.286 3.13824 2.28041e-18)
(4.70153 2.47354 0)
(4.25824 -0.0544315 0)
(0.920624 -0.576342 -1.41351e-18)
(3.98488 -0.256173 0)
(5.14086 -0.0856617 0)
(-1.21569 4.10367 3.19829e-20)
(4.54131 -0.531592 3.36837e-19)
(3.88384 -0.881973 2.18891e-19)
(6.18101 1.09426 1.01127e-19)
(0.0376922 -0.368778 1.97955e-18)
(3.99242 0.0331285 3.61112e-19)
(3.39109 -0.842789 0)
(4.163 0.763803 -2.31451e-19)
(3.16649 -0.586296 0)
(4.726 -0.0226514 0)
(3.98687 0.108046 0)
(4.25886 0.2934 -7.01563e-20)
(3.91458 -0.166374 4.46406e-19)
(5.42105 0.292737 6.64746e-20)
(3.48652 -0.836896 0)
(0.783291 -0.155309 -1.36897e-18)
(3.77774 1.73453 5.49414e-19)
(4.32077 -1.40605 -3.00479e-20)
(5.08345 -0.578011 -5.12835e-19)
(7.81153 0.299804 4.13596e-18)
(4.18269 0.068727 -4.91446e-19)
(-3.23736 -0.0442174 0)
(4.62405 -0.283072 0)
(2.93475 1.14836 0)
(2.87941 -1.27759 -1.08694e-18)
(-4.8528 1.63247 -5.65918e-18)
(5.11827 3.66029 0)
(4.21025 0.78743 0)
(4.37932 -0.563349 3.2763e-19)
(4.06505 0.00197871 -5.94197e-20)
(3.70727 0.909812 1.08409e-18)
(5.56949 -1.99318 0)
(2.57863 0.0573081 -5.57476e-19)
(4.49299 0.135965 2.89256e-19)
(3.16478 -0.954649 -9.67923e-19)
(4.30515 0.11163 -4.36998e-19)
(4.33897 1.06737 7.57537e-19)
(4.81419 4.02934 3.69506e-18)
(2.83193 -1.29386 1.90058e-18)
(6.45628 -4.32337 5.85568e-18)
(5.78964 0.402355 -4.28738e-20)
(4.00053 0.00350479 -1.64544e-19)
(3.62946 -1.61599 3.18267e-19)
(4.11995 -1.98315 1.68749e-19)
(2.83892 3.03178 -5.31979e-19)
(3.82094 -1.77736 -3.35718e-19)
(4.84997 -0.313641 0)
(2.97436 -0.893932 -2.57967e-20)
(4.29132 -0.0531318 -9.91468e-19)
(5.34394 1.53148 1.47562e-19)
(3.11178 -0.895507 -9.20671e-19)
(4.26053 -1.34936 1.69466e-19)
(4.05146 -0.000922432 3.84938e-20)
(5.29856 -0.0638677 -2.17631e-20)
(2.544 -0.783357 -2.95212e-19)
(5.63666 0.643635 -3.89974e-19)
(2.67565 -0.549505 -2.52105e-18)
(4.36881 -0.017167 -8.38966e-19)
(2.65816 -0.651221 0)
(-6.95129 2.78216 -7.56355e-18)
(4.24178 0.0564502 9.55995e-19)
(3.02183 0.00660616 2.67101e-21)
(-1.26806 2.62826 0)
(4.63937 -2.01527 0)
(3.94809 0.643155 9.43892e-19)
(2.4319 -0.554703 1.62895e-18)
(0.195727 4.17116 -8.15848e-18)
(5.11518 -1.24206 7.22599e-19)
(4.84193 -0.251006 -9.95117e-19)
(5.92799 1.46472 0)
(3.95644 0.710266 5.3773e-19)
(-1.07935 0.240893 -9.17905e-20)
(4.47233 1.8586 -3.63745e-19)
(4.27113 -0.434352 -1.94836e-19)
(0.266837 -0.737566 -3.16964e-18)
(7.60056 -0.0319887 -3.73127e-18)
(7.38851 0.873742 6.48128e-19)
(4.07292 2.00266 0)
(6.08771 -1.46777 -5.54708e-19)
(3.91388 -0.0368638 1.30485e-19)
(3.6085 0.129339 -5.14365e-21)
(2.23405 -1.08022 1.90423e-18)
(4.21678 -0.45111 3.02823e-19)
(3.49511 -0.44052 5.29795e-20)
(-2.05064 2.58639 -1.31372e-18)
(5.66718 -0.264045 -6.42878e-19)
(4.33239 -0.034522 7.51197e-19)
(0.167729 1.2142 -1.84755e-19)
(4.33484 1.71631 9.15452e-19)
(-0.884244 -1.37219 -2.16937e-18)
(2.72306 -1.31424 -4.20779e-19)
(3.67448 0.11689 0)
(4.69101 -0.496426 2.06696e-19)
(-2.07571 4.85989 -9.2288e-19)
(2.97939 -0.496646 2.15771e-18)
(4.53111 0.462619 0)
(2.94652 -0.211699 4.34361e-19)
(2.7447 -1.14849 4.62354e-19)
(3.99369 0.0206058 -1.56126e-18)
(1.13667 -0.621933 -1.37865e-18)
(3.10532 -2.7296 -1.03407e-19)
(4.5199 -0.116357 -8.81446e-20)
(4.42 0.126242 7.89562e-19)
(4.15105 -1.80297 4.72624e-19)
(5.52536 0.29003 -1.066e-19)
(-4.48388 2.08951 -1.35414e-17)
(4.2591 -0.0417672 9.3065e-19)
(4.32576 -0.0732348 -1.62921e-19)
(4.19157 0.152415 -1.41346e-20)
(4.729 -0.00902797 -2.20923e-19)
(2.65908 -1.17391 -8.99278e-19)
(5.70421 0.457669 0)
(-5.03083 3.11622 3.18422e-18)
(4.24701 0.0797336 9.55972e-20)
(2.69281 1.85925 1.46281e-19)
(4.81651 0.104316 1.94784e-19)
(4.78496 -0.386225 5.0037e-19)
(3.99984 0.0199186 -1.36221e-18)
(4.08403 0.49666 3.01217e-19)
(1.0328 -0.450405 -1.45774e-18)
(5.24725 -0.0818976 0)
(3.59655 -0.567151 3.81907e-20)
(4.76016 -0.380564 1.18639e-19)
(3.29919 -1.24692 0)
(4.17549 0.110515 6.13153e-19)
(4.84253 -0.352732 1.27083e-19)
(5.16623 -0.0644676 3.34762e-24)
(7.34937 -1.12071 2.98335e-18)
(4.57358 -0.62469 0)
(3.59667 0.440563 1.46287e-18)
(3.62016 -0.411841 -7.76313e-20)
(3.67622 -1.72674 -3.90906e-19)
(4.26748 -0.283078 0)
(3.10496 0.281389 -2.20375e-18)
(0.419722 -0.70597 -4.94822e-19)
(4.30662 2.49375 1.83937e-19)
(2.70102 -0.586052 2.41277e-18)
(4.7225 0.0461838 -6.9005e-20)
(0.118325 0.321613 1.66844e-18)
(4.08674 -0.219253 -5.30093e-19)
(6.75915 0.784953 -1.85253e-18)
(3.6874 0.116613 -9.11406e-19)
(4.51335 0.058954 0)
(4.00461 0.00664283 -6.14871e-19)
(3.86749 0.384367 2.33668e-17)
(-0.673338 1.34125 0)
(8.14654 2.48585 0)
(3.61464 0.130763 0)
(-0.826854 -0.568304 0)
(4.01971 0.467174 0)
(2.55694 -0.528121 0)
(6.83183 -2.95775 -3.91372e-20)
(4.86919 0.768692 2.23621e-19)
(4.91922 0.755791 0)
(3.56989 0.404051 2.22802e-18)
(1.38562 -1.7571 5.92569e-19)
(4.08417 0.288466 1.17555e-20)
(-1.83487 4.842 -3.49593e-19)
(2.53298 -0.157394 9.45806e-21)
(1.08238 -0.493528 1.24899e-18)
(3.70145 0.0155804 8.50228e-21)
(5.44231 0.206809 4.94649e-20)
(3.98163 0.429346 -6.25079e-19)
(3.80972 0.177009 -1.27133e-18)
(3.69618 1.58425 -1.04735e-18)
(5.86756 2.41165 0)
(-2.45722 1.84621 3.03741e-18)
(2.88005 -0.942254 -1.80808e-18)
(4.02117 0.0160856 -1.84153e-18)
(5.74033 -0.910964 3.61168e-18)
(4.51561 0.0168719 5.88723e-20)
(6.93234 0.394397 -3.90151e-18)
(4.56102 -0.326326 4.63177e-20)
(4.69259 -0.828959 5.63621e-19)
(4.01623 0.222846 6.38485e-19)
(3.41996 2.43465 0)
(4.74123 -1.39966 -1.95283e-19)
(3.56171 -0.0456387 -2.72625e-19)
(4.80413 1.12219 0)
(4.02583 -0.710547 0)
(4.41205 -1.90313 -2.87717e-20)
(-0.992947 0.735959 1.86825e-18)
(6.61839 -3.38529 -3.07277e-18)
(3.77958 -0.162517 0)
(3.99794 -0.155909 -8.42068e-19)
(3.69218 0.224869 -2.48764e-19)
(-6.09125 2.43363 2.0042e-18)
(4.99196 -0.225421 3.14261e-20)
(1.00159 -0.555681 0)
(-2.31226 1.71528 3.15967e-18)
(5.01072 -0.290306 0)
(6.04445 -1.62617 6.14521e-19)
(3.8248 -0.196124 -2.12666e-19)
(4.00734 -0.00492907 1.33289e-21)
(4.44389 1.19668 -1.21023e-18)
(4.74113 2.28506 -7.78967e-20)
(3.91303 -1.01867 3.83529e-19)
(-3.04369 3.6239 0)
(0.360341 -2.09805 -1.45151e-17)
(0.87327 -3.99659 0)
(5.0252 0.758935 -5.71584e-21)
(-5.87569 2.24326 4.49808e-18)
(9.17918 2.55318 4.54938e-18)
(3.63733 -0.575188 -4.0595e-20)
(-2.8757 4.66388 -3.30069e-18)
(3.31562 -1.60127 4.53684e-19)
(2.96003 -0.94398 -9.7682e-19)
(3.1438 -0.157082 4.15075e-20)
(1.10666 -1.96153 1.18525e-17)
(2.71 -1.20376 7.4714e-19)
(3.05835 -0.986178 1.03638e-18)
(-5.55744 1.97884 6.13266e-18)
(3.56614 -0.490619 -6.88122e-18)
(4.19518 -1.17441 -7.52753e-20)
(-1.3632 -0.171221 4.22117e-18)
(5.34346 0.100112 -4.49223e-20)
(1.2937 -1.91164 -4.6828e-19)
(4.45409 0.759262 -3.25814e-19)
(5.24018 -0.433851 0)
(-0.688812 -0.283796 -1.77271e-18)
(4.18234 -0.0446039 -1.10071e-18)
(3.97796 0.124272 0)
(4.97638 0.721038 0)
(-1.98168 -2.71202 -7.36716e-18)
(6.16646 1.53224 -1.06249e-18)
(4.66378 0.447435 -5.68915e-19)
(4.52136 -0.535962 -4.52385e-19)
(3.69408 1.52812 8.9193e-19)
(3.00891 -0.0225731 -5.2553e-21)
(-5.39727 2.54325 -5.10374e-20)
(3.52574 0.909052 0)
(3.11078 -1.03484 9.60647e-19)
(-2.07791 -2.36894 3.69392e-19)
(-2.83843 4.44953 2.55991e-18)
(3.93618 -1.41504 1.51969e-20)
(5.1486 -2.29601 1.33816e-18)
(3.66717 -0.0264908 3.18776e-20)
(3.81612 -0.58049 2.90995e-20)
(6.60394 -0.538843 1.96819e-18)
(-5.03024 2.64349 -2.30595e-18)
(4.62745 0.433668 4.26606e-19)
(3.97522 0.00811536 4.3428e-19)
(2.64214 -0.657617 -9.95299e-19)
(3.99457 -0.222421 4.90026e-19)
(1.93733 -0.756664 0)
(4.61131 0.74257 5.3707e-19)
(4.01032 0.0173913 9.82131e-20)
(3.27406 -0.734378 -3.14911e-19)
(3.24743 2.76846 -4.37217e-19)
(4.12051 -1.16114 3.22517e-20)
(4.27825 0.0412208 1.59331e-19)
(2.98638 -0.0243575 -1.60166e-18)
(4.91975 1.0046 0)
(3.61899 -0.523148 -8.65367e-20)
(4.33981 0.157977 5.954e-19)
(5.34074 -0.644763 0)
(3.04223 -0.200199 8.71886e-19)
(5.04201 -0.228 0)
(3.12775 2.70534 1.84919e-18)
(5.0639 -0.0272764 0)
(4.75181 -1.56925 0)
(4.71059 -0.104174 3.47707e-20)
(4.62649 0.336605 3.4905e-19)
(5.57627 0.765455 -5.15568e-19)
(3.88012 0.120356 -5.83152e-19)
(3.02254 1.76624 -6.36869e-19)
(3.98611 0.0894486 -2.71999e-19)
(4.06277 0.48519 0)
(1.35559 -2.73752 -3.69127e-19)
(4.82282 0.340263 -1.79591e-19)
(5.89058 -1.66458 -1.20957e-18)
(5.19759 -0.439279 0)
(5.42183 1.51465 2.73536e-19)
(3.78023 2.69256 -7.0134e-20)
(5.33327 0.0843769 -1.99106e-19)
(-0.136728 5.61293 0)
(-0.708811 4.37248 9.39501e-19)
(4.04803 0.212652 0)
(6.48506 -0.395222 -9.14369e-19)
(-0.787832 0.804768 0)
(5.39513 -1.22047 0)
(5.53356 -4.36278 0)
(4.84412 -1.54583 0)
(0.623818 0.733032 -2.56334e-19)
(-4.08065 4.00323 -7.46683e-19)
(3.90284 -0.138581 -6.76268e-19)
(-7.13353 2.85579 -5.25198e-18)
(2.87263 -1.24509 0)
(-6.56525 2.61147 -3.40422e-18)
(-1.36922 1.49617 -2.25804e-18)
(3.59177 -1.6521 0)
(3.3066 -1.16915 -8.48543e-19)
(3.24655 -0.548699 -3.4409e-20)
(4.43204 0.728346 8.33999e-19)
(6.56666 -1.30971 -2.32138e-18)
(3.78973 0.151868 0)
(5.36473 -1.14199 0)
(6.0934 0.700801 3.65618e-19)
(4.11532 -1.75454 3.20718e-20)
(3.32201 -0.228182 -7.2079e-20)
(-1.3349 -3.1947 8.67861e-20)
(3.99793 0.000117798 4.56484e-20)
(4.87173 -0.403158 3.58855e-20)
(4.01011 0.21813 9.16797e-19)
(3.57569 -0.510604 4.39471e-20)
(4.26211 -0.982511 0)
(2.61554 -0.160751 0)
(5.48977 0.293395 0)
(3.23014 0.0382308 0)
(3.81067 -0.695046 2.92968e-19)
(5.6979 0.417436 0)
(-0.1889 1.33527 2.07445e-18)
(3.95828 4.54878 5.51484e-19)
(3.00797 -1.01135 -1.59466e-18)
(1.25301 -1.53285 -3.33596e-19)
(-5.09747 3.18168 -1.61616e-18)
(-0.499321 0.734898 -9.34615e-19)
(4.18767 0.0683002 1.24633e-19)
(-4.42247 2.87787 -1.68448e-18)
(3.55382 -0.502824 7.48565e-20)
(4.79408 -0.0817597 0)
(4.87299 0.158094 0)
(2.40489 -1.46971 0)
(4.81477 -0.421329 -2.89934e-19)
(2.23388 1.02096 0)
(3.56954 0.899314 0)
(4.00345 0.00118872 0)
(3.92893 -0.901062 2.00704e-19)
(4.1015 0.283091 -9.78894e-19)
(3.22801 0.0637289 0)
(7.23183 -2.5285 -2.38389e-18)
(3.94296 0.209256 -7.88996e-19)
(4.51409 1.69838 7.37667e-19)
(3.61613 -1.65316 1.96319e-19)
(3.68915 1.03268 1.07337e-20)
(4.01898 -2.58383 -4.18005e-20)
(3.91435 -0.779421 7.34318e-20)
(4.98121 -2.04062 -5.37437e-19)
(4.58772 0.33898 -4.65839e-19)
(3.28949 -0.185175 -1.67177e-19)
(3.76822 0.00507724 -8.00338e-19)
(4.2371 -0.0397248 0)
(2.6083 1.70359 -1.24187e-19)
(3.97319 0.0187695 8.38839e-19)
(-0.788596 -0.596107 -2.99792e-19)
(4.53778 -0.326155 1.00815e-19)
(2.48952 -0.589459 -1.78521e-18)
(4.61162 0.311295 7.78716e-20)
(5.78732 1.14352 5.48834e-19)
(3.98928 0.0818377 0)
(2.74335 -0.811202 -8.33627e-20)
(3.7811 -0.260311 -3.59223e-20)
(5.10316 -2.04125 1.20094e-18)
(-1.96527 -0.0780335 -1.31539e-17)
(4.15882 0.0184525 3.32821e-19)
(5.71935 0.342609 3.72718e-20)
(4.73984 0.0614708 5.31979e-20)
(5.38662 0.334954 0)
(1.36416 -0.761847 0)
(3.35456 -1.58715 3.97059e-19)
(1.06355 -0.592354 1.47822e-18)
(3.66121 0.0682835 3.71223e-22)
(3.98234 0.0272824 1.65663e-18)
(2.82814 -0.837824 2.68055e-19)
(3.06819 0.234316 0)
(3.72251 0.0113414 0)
(3.54879 -0.8133 -3.51809e-20)
(4.57158 -0.0465448 5.53123e-20)
(3.76219 0.993831 1.52076e-18)
(4.31936 -0.0564889 0)
(4.72737 0.0470203 0)
(4.85339 -0.910024 -1.32654e-18)
(4.22141 -0.276546 2.64908e-19)
(1.86392 -0.588122 -2.80477e-18)
(4.4698 -0.412811 0)
(4.93464 -0.951626 7.76227e-19)
(8.36347 -1.51868 -1.0586e-18)
(-2.01011 4.54449 -1.02006e-18)
(4.16256 -0.0673456 -6.11904e-19)
(5.2102 0.807138 0)
(6.28069 1.439 8.86083e-19)
(0.725289 5.41821 -3.92795e-18)
(0.182919 0.387416 0)
(3.272 0.0373585 -1.26555e-19)
(3.89864 0.075282 -5.74719e-19)
(3.51184 0.0353361 -7.85227e-23)
(3.801 -0.00350301 1.05361e-19)
(2.58881 2.49687 6.11911e-19)
(4.16336 0.0376252 0)
(2.48065 -0.941993 -2.65197e-20)
(2.60849 -0.798577 -2.51582e-19)
(1.50568 4.05115 1.29644e-19)
(4.00349 0.427029 7.43846e-19)
(-2.33983 3.79021 1.86627e-18)
(4.21178 0.0256587 -1.47058e-18)
(3.43122 -0.42917 -2.52929e-20)
(3.74058 -0.687885 4.2883e-20)
(3.82856 -0.829716 0)
(3.71474 0.0144238 -2.48749e-19)
(2.64455 -1.22969 5.91993e-19)
(4.52326 -0.0627351 2.34108e-20)
(4.01407 0.018598 -7.3418e-19)
(6.39551 -0.527723 7.68259e-19)
(3.60164 -0.450804 1.5567e-18)
(5.16887 0.102293 5.28937e-20)
(3.68564 0.0366072 4.98674e-19)
(2.95927 -0.287485 -1.96756e-19)
(6.06914 1.08176 -1.1033e-18)
(4.35356 1.8566 6.85898e-19)
(0.0407739 4.50535 6.57139e-18)
(3.87244 -0.00990324 0)
(2.74665 -1.29761 0)
(7.35299 2.49315 0)
(3.00287 -0.955301 1.25303e-18)
(4.18989 0.0645168 -1.17488e-18)
(3.6669 0.23866 0)
(3.36362 -0.766922 -8.59984e-19)
(3.66693 0.178102 0)
(3.82446 -0.61613 -4.72875e-19)
(5.85221 -1.78088 -1.4153e-18)
(4.18573 -0.938303 2.55682e-20)
(4.2458 0.0370194 0)
(3.98776 -0.00278178 0)
(5.39184 -0.679746 4.81243e-19)
(4.88423 0.642958 -7.58391e-21)
(5.59445 0.110045 4.6558e-19)
(4.01177 2.88147 -3.69062e-20)
(4.08692 0.0132848 0)
(3.9597 -1.37168 -7.06631e-21)
(-0.668368 1.24507 0)
(2.00704 1.21341 -1.15148e-18)
(4.77797 2.30017 0)
(5.64125 0.370681 -6.32155e-20)
(2.6697 -0.52345 6.65713e-19)
(3.32665 -0.412865 5.63684e-19)
(4.09359 -0.45007 -4.70951e-19)
(4.63165 4.15606 -1.84725e-17)
(4.1785 -0.333697 6.71695e-19)
(4.0318 0.460173 -1.21156e-20)
(6.95587 0.636319 4.53687e-18)
(4.38506 -0.716488 7.89295e-20)