/*--------------------------------*- C++ -*----------------------------------*\
| =========                 |                                                 |
| \\      /  F ield         | OpenFOAM: The Open Source CFD Toolbox           |
|  \\    /   O peration     | Version:  2306                                  |
|   \\  /    A nd           | Website:  www.openfoam.com                      |
|    \\/     M anipulation  |                                                 |
\*---------------------------------------------------------------------------*/
FoamFile
{
    version     2.0;
    format      ascii;
    arch        "LSB;label=32;scalar=64";
    class       surfaceScalarField;
    location    "6.1";
    object      phi;
}
// * * * * * * * * * * * * * * * * * * * * * * * * * * * * * * * * * * * * * //

dimensions      [0 3 -1 0 0 0 0];

oriented        oriented;

internalField   nonuniform List<scalar> 
20045
(
0.245426
-0.265128
0.0197022
-0.530821
0.186523
0.344298
0.194197
0.969413
-1.16361
-0.0144487
0.0399687
-0.02552
-0.421736
0.409437
0.0122994
-0.301482
1.12773
-0.826247
-0.507473
0.21855
0.288924
0.0330236
0.215952
-0.248975
0.239313
0.205002
-0.444315
-0.419741
-0.048954
0.468695
-0.125363
-0.205782
0.331145
1.13503
-0.543709
-0.591321
0.174573
-0.177183
0.00260942
-0.643985
0.554923
0.0890614
-0.162305
0.530576
-0.368271
-0.545853
0.126112
-0.00246631
-0.0338264
0.0362927
0.359585
-0.290782
-0.0688033
-0.839918
1.23572
-0.395804
-0.374452
0.0274062
0.347046
-0.00495288
-0.031131
0.0360839
0.0581558
0.116417
-0.0626066
-0.468214
0.375685
0.564386
-0.940071
0.412095
0.108743
-0.520838
-0.58678
0.962465
-0.0803391
0.0925121
-0.012173
-0.653523
1.23795
-0.584424
0.869217
0.129131
-0.998348
-1.21521
0.667409
0.547806
-0.166692
0.0127204
0.153972
0.717381
-0.506403
-0.210977
-0.397116
0.833202
-0.436086
1.18674
-0.693589
-0.493152
-0.278106
0.31113
1.05553
-0.515688
-0.53984
0.721492
0.0646174
-0.786109
-0.029668
0.183429
-0.153761
-0.948916
0.420116
0.5288
0.293929
0.26162
-0.555549
0.0245829
0.198508
-0.22309
0.0632731
-0.0908993
0.0276262
1.07051
-1.07177
0.00126516
0.747896
-0.281241
-0.466655
0.350432
0.397464
0.513745
0.621284
-0.135629
0.170954
-0.0353244
0.637975
0.273741
-0.911716
0.872841
-0.151349
0.0760073
0.973546
-1.04955
0.650138
-1.09984
0.4497
0.879194
-0.63816
-0.241034
-0.598274
-0.423356
1.02163
-0.0457669
-0.149324
0.195091
0.382124
-0.125303
-0.256821
-0.346879
-0.0748576
-0.0566507
0.821266
-0.764615
0.768615
0.0683332
-0.836948
0.533439
-0.930555
1.00181
-0.61393
-0.387883
-0.086755
-0.175698
0.262453
0.466377
0.535436
0.260908
-0.878805
0.617898
0.0549635
-0.0599163
0.620043
-0.11427
-0.505773
0.823474
0.0560968
-0.879571
0.0373732
-0.0540057
0.0166325
-0.333815
0.0814509
0.252364
0.423188
-0.183875
0.849754
-0.863593
0.0138393
0.0584988
-0.0211256
-0.0183244
0.400448
-0.126582
-0.521618
0.6482
0.0595469
-0.137449
0.0779023
0.913882
-0.217432
-0.69645
0.681108
-0.737759
0.0348112
0.87907
0.218128
-0.380433
-0.021027
-0.226996
0.248023
0.183567
-0.60718
0.423613
0.521943
0.599706
-1.12165
0.450414
-0.346825
-0.103589
0.720854
-0.459946
-1.31175
0.243654
1.06809
0.012198
0.233228
-0.276103
0.310489
-0.0343869
0.270676
-0.654057
0.383381
-0.803788
0.0361609
0.767627
0.518553
0.0744389
-0.592991
-0.424493
0.393372
0.0311215
-0.721837
-0.103352
0.825189
0.362643
-0.0646505
-0.297992
0.199302
-0.282245
0.0829435
-0.0799634
-0.406439
0.486402
0.291677
-0.311678
0.0200005
0.755854
0.188711
-0.944565
-0.12396
0.0436213
-0.0802535
0.114135
-0.0338812
0.606175
-0.312246
0.00286552
-0.048627
0.0457615
0.712628
0.3429
-0.230565
-0.41342
0.0255101
-0.105764
-0.157683
0.926299
-0.00350237
-0.2726
0.0508467
-0.0479812
0.229818
0.602581
-0.832399
0.527633
-0.871857
0.344224
-0.156656
-0.207551
0.181006
0.0265453
-0.0983043
0.125494
-0.02719
0.620369
-0.454401
-0.165968
-0.245085
0.199318
0.645629
-1.11957
0.473944
-0.0816977
0.154903
-0.0732058
0.0225888
-0.121886
0.0992971
0.581235
-0.16914
0.857638
0.329102
-0.585191
0.458609
0.689883
-0.956574
0.266692
0.254925
0.104661
-0.290404
0.203649
-0.38523
0.311297
0.0739335
-0.421283
0.0489808
-0.291532
0.242552
0.621292
0.257902
0.556369
-0.714413
0.158044
0.814608
0.0923428
-0.906951
-0.98844
0.743501
0.244939
-0.0265695
-0.535645
0.562214
0.927117
-0.305825
0.122577
0.0483769
0.131417
-0.0750503
-0.0563669
-0.059455
0.0441379
0.0153171
0.569466
0.40223
-0.971696
0.597892
-0.580111
-0.0177811
-0.174799
0.107431
0.0673673
-0.148895
-0.0586559
1.07814
-0.388255
-0.324006
0.344409
-0.0204029
0.646806
-1.13715
0.490341
0.17287
-0.771143
0.56556
0.226537
-0.792098
0.677807
-0.49424
0.966992
-0.132669
-0.834323
0.535699
-0.978905
0.443206
1.07001
-0.681799
-0.38821
-0.12671
0.235222
-0.108511
-0.0116585
1.07264
-1.06098
1.07737
-0.208149
-0.826263
0.0275523
0.798711
-0.476173
0.414844
0.0613291
1.00885
-0.486909
0.171793
0.278621
-0.634412
0.781535
-0.147123
-0.823711
1.01791
0.0105639
-0.152135
0.141571
0.0160274
-0.020128
0.00410063
-0.0170407
-0.18513
0.202171
1.16633
-0.454732
-0.711598
1.36005
-0.677508
-0.682538
-0.219931
0.202891
0.352276
-0.669007
0.316731
0.0744476
-0.0111745
-0.795843
-0.475472
0.692052
-0.21658
-0.676033
0.49185
0.184182
-0.0128044
-0.0203245
0.0331289
0.500077
0.569931
-0.0317567
-0.0276983
0.0186235
0.112794
-0.711657
0.0772451
-0.732771
0.932727
-0.199956
-0.658454
0.75575
-0.097296
-0.593861
-0.429956
1.02382
-0.373299
0.265501
0.107798
0.45751
-0.475044
0.0175344
0.935467
0.0671442
-1.00261
0.015876
-0.758973
0.743097
-0.362571
0.928131
0.190584
-0.540899
0.350315
-0.459736
1.10537
-0.830214
0.542755
0.287458
0.242364
-0.271625
0.0292608
0.487987
-1.26674
0.778753
-0.978881
0.325357
-0.61285
-0.421665
1.13751
-0.686275
-0.451234
-0.266754
0.291336
0.122658
-0.129648
0.00698992
-0.767788
-0.142564
0.910352
-0.869084
1.21571
-0.346625
0.905925
-0.665382
-0.240543
0.0877075
-0.252716
0.165009
-0.275249
-0.461837
0.737086
0.226088
-0.351451
-0.50652
0.47995
-0.689597
-0.226958
0.916555
0.0882009
0.0242946
-0.112496
0.138063
-0.613535
-0.00807696
-0.158615
0.873705
-0.0590963
-0.138013
0.108344
-0.129262
0.15765
-0.0283877
0.237703
0.928628
-0.78912
0.513871
0.213093
0.0165455
-0.229638
-0.699688
0.132415
0.567273
0.286948
0.618978
1.32676
-0.838773
0.755903
-1.28997
0.534072
0.228367
-0.906449
0.678082
0.0291727
-0.403625
-0.485965
0.715783
0.662302
-0.963784
0.368663
-0.773899
0.405236
-1.3206
0.752792
0.567811
-0.0137912
-0.410702
0.17846
0.135445
-0.313904
0.728882
-0.23167
-0.497212
-0.0510933
-0.743373
0.731714
-0.25131
-0.0726961
0.670449
1.07846
-0.865544
-0.212913
-0.0102936
-0.124812
0.135106
0.678123
0.118192
-0.796314
0.273632
-0.213931
-0.0597012
-0.186642
0.707774
-0.521132
-0.455754
0.726429
0.563172
-0.372588
-0.0547564
0.155876
-0.10112
0.958347
-0.311541
0.0874782
-0.00808424
-0.0793939
0.0846743
-0.141601
0.056927
-0.102123
0.106001
-0.0038771
1.12004
-0.710171
-0.409868
0.239792
-1.10888
-0.111559
0.0094357
-0.875171
0.285326
0.589845
1.24063
-0.407429
0.248246
-0.981018
1.31439
-0.587459
-0.726928
-0.0115901
0.099791
0.799787
-0.409155
-0.390633
-0.61156
0.142105
0.469454
-0.944474
0.947521
-0.00304732
0.326469
-0.938949
0.61248
0.0336112
-0.0505811
0.0169699
-0.466563
0.633659
-0.167096
-0.149604
0.285961
-0.136357
-0.14054
0.0588419
-0.114127
0.0158228
-0.548377
-0.323481
0.415366
-0.806374
0.391008
0.258958
0.0895002
-0.348458
0.408274
0.309107
0.699977
-0.331314
0.00378318
0.0122442
0.706032
0.534599
-0.489337
0.010895
0.478442
0.314196
0.485591
0.380869
0.149707
-0.0152853
0.274243
-0.283175
-0.0208148
0.303989
-0.0299278
0.272292
-0.749283
0.562641
-0.157887
0.0965493
0.061338
-0.92798
0.889765
0.0382153
-0.339331
0.546869
-0.207538
-0.221701
-0.104744
0.326445
0.765597
-0.828204
0.0626071
-0.803571
-0.517031
1.29347
-0.822308
-0.471164
-0.0914677
0.0811741
1.03121
-0.704745
-0.414714
0.83008
-0.203214
-0.153861
0.357076
0.828087
-0.18977
-0.638317
1.15281
-0.313374
-0.83944
-0.397508
0.194294
0.829605
-0.491085
-0.338519
-0.157637
0.78133
-0.623692
0.644917
-1.07101
0.426093
0.282074
0.0322183
-0.314292
0.0611048
-0.0305098
-0.030595
1.26702
-1.03313
-0.233882
-0.519722
-0.468718
0.716599
0.361858
-0.845449
-0.0825308
0.0896456
-0.00497128
0.0779621
-0.617934
0.539972
0.00392308
0.118735
-0.540141
1.10961
0.43339
0.686649
1.23721
-0.751432
-0.485775
-0.771667
0.544709
0.725402
-1.21174
0.486337
-0.627407
-0.0382087
0.665616
-0.23253
-0.173734
0.406264
0.555211
-0.202935
0.00318074
0.209912
0.471016
-0.0284927
-0.477911
-0.693412
0.934209
-0.240797
-0.148418
0.0191559
-0.0624328
0.00767641
0.115744
-1.06022
0.334293
-0.790047
0.105053
-0.197014
0.272336
-0.0753221
0.00843504
-0.0228837
-0.507589
0.379787
0.127802
0.349785
0.270584
0.269819
0.260419
-0.530237
0.493626
0.104266
-0.549305
0.627267
0.57158
-0.0530273
-0.203064
-0.496623
1.03152
-0.799852
-0.231665
0.888091
-0.758275
0.229319
0.528956
0.799091
-0.864031
0.0649404
-0.434061
0.354098
-0.109932
-0.0648668
-0.12022
-0.601617
0.283677
-0.539816
0.256139
0.41676
0.412844
0.707941
-1.14336
0.435416
0.225124
-0.533837
0.308713
-0.972275
0.168487
0.0107662
0.351877
-0.576321
0.87106
-0.294739
-0.255657
0.302897
-0.04724
-0.404206
-0.103267
-0.124341
-0.223821
0.348162
0.0785441
0.000939385
-0.0794835
-0.328078
-0.148095
0.377582
0.444697
-0.822279
0.736903
-0.422707
0.282234
-0.449758
0.0156965
0.461025
-0.235901
-0.66449
-0.165723
0.235058
-0.336492
0.101434
0.976952
-0.338977
-0.457233
0.749071
-0.291839
-0.111752
0.128959
-0.0172067
0.742668
-0.0137861
-0.15827
-0.459664
-0.503019
0.924481
-0.421461
0.635304
-1.14086
0.505558
0.592434
0.701038
0.110316
-0.149635
0.0393192
0.0866144
-0.714021
0.671852
-1.01342
0.341569
0.0929421
-0.0333953
-0.0754827
0.631852
-0.355831
0.690124
-0.65185
0.880217
0.190045
-1.02996
-0.883218
0.486008
0.39721
0.635481
-0.0981523
-0.537329
0.934368
-0.168771
-0.462423
-0.533009
-0.473119
0.527036
-0.0670909
0.159437
-0.0923463
0.314778
-0.287372
-0.714389
0.638907
0.846664
0.223846
-0.785243
0.32801
1.06862
-0.352022
-0.0887579
0.271231
-0.182473
0.0166713
-0.628234
0.611562
-0.902622
0.170369
0.732253
0.726088
-0.726088
-0.250414
0.699909
-0.449495
0.586489
-0.316671
0.684469
-0.387369
-0.2971
-0.954802
0.98976
-0.0349586
0.335238
-0.0448968
-0.290341
0.255487
-0.106797
-0.14869
0.105218
-0.326919
0.055486
0.454143
-0.868857
-0.858343
1.01362
-0.155273
-0.282912
0.660494
0.112987
-0.00350557
-0.109481
-0.104371
0.0955988
0.00877241
-0.375149
0.404321
1.17688
-0.954801
-0.222081
-0.0825745
-0.528348
0.610923
-0.224234
0.24496
-0.0207256
0.117175
-0.272533
0.155358
-1.00665
0.387589
0.619063
0.0160443
0.0239244
-0.227483
0.138725
0.0316148
-0.102516
0.0709015
0.575125
0.69189
0.0884816
0.0245051
-0.0445754
-0.293275
0.33785
-0.509472
0.804288
-0.294816
-0.00469357
0.07637
-0.0716764
0.429601
-0.211051
0.728665
-0.236218
-0.492447
0.00697155
-0.41341
0.105486
0.829981
0.427512
0.298318
-0.72583
0.458826
-0.410107
-0.048719
-1.01275
0.186491
-0.426954
0.177453
0.249501
0.466333
0.605829
-1.07216
-0.626318
0.58811
0.0449096
-0.91353
0.868621
-0.121627
0.209334
0.241959
-0.280933
0.0389741
0.0213585
-0.304533
0.00123265
0.017743
-0.0189756
-0.672767
-0.202405
0.618457
0.079265
0.0166303
-0.0958953
-0.115567
0.00381502
0.17213
-0.710604
0.538474
0.231241
0.546254
-0.777496
0.386077
-0.71445
0.870871
-0.156421
-0.715838
0.5582
0.073736
0.0187762
-0.394536
-0.281497
-0.248475
0.0662775
0.182197
-0.873986
0.364514
0.670096
-0.75267
0.435295
0.633325
-0.296935
0.300792
-0.00385693
0.393909
-1.00823
0.614322
0.145055
-0.260759
0.115704
0.462164
-0.620434
-0.636934
-0.0215195
-0.303868
-0.0299466
0.0441083
-0.0182336
-0.0258747
0.37331
-0.00899993
-0.0257108
0.0347108
1.0086
-0.542265
-0.38807
0.798085
-0.410015
0.261928
0.174865
-0.436794
-0.364689
0.243062
-0.205369
-0.0431057
0.422214
0.262255
-0.212761
-0.743813
0.358178
-0.12312
0.616827
0.403616
0.167964
-0.928056
1.00406
0.11217
-0.467826
0.355657
-0.0855732
-0.828147
0.91372
-0.192919
0.192071
0.000848577
-0.132928
-0.240371
-0.455702
1.10062
1.02083
-0.485135
-0.434585
-0.0730041
0.0113215
-0.409244
0.397923
0.407694
-1.00155
-0.124852
-0.472001
0.596853
-0.0393058
0.0162883
0.0230174
-0.652437
0.0558695
0.596568
0.957747
-0.684007
-0.0188836
0.0782051
-0.0593215
-0.207958
-0.0162759
0.175432
0.358044
-0.533475
0.0952987
-0.120725
0.0254264
0.61772
0.357926
-0.975646
-0.387188
1.14304
0.0766172
0.00192693
-0.264757
-0.57526
0.840017
0.355299
0.72284
0.937048
-0.705806
-0.344093
0.219753
-0.00979218
0.070897
-0.447726
1.17313
0.137115
-0.767532
0.630417
0.913863
-0.145225
-0.768639
-0.478229
0.714473
-0.236243
0.396219
-0.417357
-0.45104
0.868397
0.0548131
-0.0837337
0.0289205
-0.285502
-0.484639
0.770141
-0.0218572
-0.0825139
0.0262201
-0.0390245
0.505462
-0.790964
-0.707782
-0.206299
0.91408
-0.0654767
-0.476954
0.542431
0.250216
1.20021
-1.22051
0.0203028
0.204163
-0.148343
-0.0558203
0.00719215
-0.304127
0.258139
0.228263
-0.312746
0.0802163
-0.816012
1.02466
-0.208644
-0.126587
-0.0313003
0.305238
0.372569
-0.823437
-0.248337
-0.0162053
-0.00157946
0.0177847
0.534502
-0.130886
-0.193215
0.213226
-0.0200106
0.111825
-0.261429
-1.17617
0.563318
0.939822
0.187907
-0.128576
0.245751
-0.195158
0.457086
0.852096
-0.397953
-0.20072
0.00750497
-0.101267
-0.613123
0.213822
0.204659
-0.194095
-0.918258
0.0156362
0.0198561
0.204549
-0.0594943
-0.963648
0.648357
0.315291
0.716213
0.133541
0.179113
-0.056845
-0.122268
0.273928
-0.256705
-0.0172232
-0.798329
0.282641
-1.02611
0.523094
-0.0314334
0.173382
-0.141949
-0.0477374
0.167328
-0.11959
1.0244
-0.00169367
-1.02271
0.139918
0.00781247
-0.14773
-0.134327
-0.250903
0.216418
-0.0171161
0.212722
-0.204341
-0.00838147
0.382941
-0.0586937
-0.324247
0.0178963
0.194826
0.840806
-0.652095
-0.028296
-0.137615
0.165911
-1.02012
0.204105
-0.0296657
-0.12345
0.14896
-0.0667318
0.145997
0.00562624
-0.00184306
0.240472
0.154605
-0.395078
0.476686
0.143357
0.440739
-0.32857
0.18804
-0.165451
0.0612863
-0.316943
0.627243
-0.015478
-0.611765
0.531473
-0.0319754
-0.499498
-0.607096
-0.371809
-0.15465
-0.147626
0.302276
0.402064
-0.439077
0.0370131
1.11259
-0.0406825
-1.07191
-0.301446
-0.064095
0.365541
-0.493431
0.656554
-0.163123
0.560767
0.664302
-1.22507
0.0584431
-0.234141
-0.263968
0.424804
-0.160836
0.206653
0.0959919
-0.302645
-1.0912
0.585698
0.505506
-0.176987
-0.027354
-0.843902
0.136121
0.289807
-0.181126
-0.108681
0.487496
-0.616433
0.128937
-0.0786018
-0.186526
0.188508
1.0117
0.819924
-0.134774
-0.68515
-0.847375
0.132925
0.338012
-0.541077
0.72242
-1.13921
0.416785
-0.0933618
0.271822
-0.0136448
-0.38803
0.343454
-0.15715
0.20613
-0.126019
-0.782173
0.908192
0.437004
0.594209
-0.744813
0.773725
-0.0289123
0.025769
0.0183393
-0.619304
-0.25947
-0.108672
0.121286
-0.012614
0.357418
-0.28701
-0.0704087
0.0273369
0.014869
-0.0422059
-0.0691284
0.556624
-0.784319
-0.0982537
0.882573
-0.720783
-0.246475
0.967258
0.475505
-0.349205
-0.1263
-0.164372
0.0186757
0.145696
-0.329301
0.0247421
0.304559
-1.01365
0.0432282
0.970418
0.0266994
0.177438
-0.204138
0.808181
-0.907541
0.0993601
-0.519388
0.913635
0.0544799
-0.968115
0.0104785
-0.119151
-0.143739
-0.526182
0.669921
0.60979
-1.06953
-0.948369
0.823219
0.12515
0.110654
-0.0153552
0.6949
-0.389663
-0.0473615
-0.249492
0.296854
-0.00807728
0.121107
-0.113029
-0.214239
0.924546
-0.710307
0.784254
-0.402805
-0.381449
1.03602
-0.979836
-0.0561879
0.793586
-0.307193
-0.486393
0.0440893
-0.214853
0.170763
-0.281407
-0.0101254
-0.924169
0.812935
0.111233
0.053136
-0.977305
-0.304379
0.522881
-0.218503
-0.595312
-0.437821
0.176126
-0.155491
-0.0206358
-0.798569
-0.221548
-0.168038
0.109829
0.058209
0.14801
0.125623
-0.886632
0.853419
0.0332126
-0.180609
-0.129668
-0.00778142
0.151066
-0.0111484
-0.603115
0.136553
0.119957
-0.148088
0.0281312
-0.787665
0.381817
0.405848
0.351923
-0.0166854
-0.25016
0.668791
0.0738773
0.352418
0.0338858
0.229032
-0.262918
-0.0938346
0.551344
-0.599707
0.38844
0.211267
-0.214369
0.0373821
1.0103
-0.573299
0.861203
-0.467294
-0.24318
-0.157972
0.401152
0.417149
-0.863438
0.446289
0.545108
-0.610585
0.981648
-0.433008
-0.54864
-0.0034211
-0.507313
-0.092394
-0.943796
0.870855
0.0729414
0.116581
-0.309556
1.06546
-1.06741
0.268843
0.338248
-0.0561741
-0.0952574
0.0346414
0.10889
-0.00288937
-0.494051
-0.512507
1.22903
-0.547926
-0.0675431
0.265846
-0.198303
0.0630376
0.192449
-0.665832
-0.381256
1.04709
0.231113
0.324098
-0.00311884
-0.131025
0.134144
0.820507
-0.235568
-0.0386254
0.274193
0.62665
0.000592655
-0.357731
-1.03043
0.172088
-0.200983
0.0089203
0.192063
0.571246
0.743141
0.430738
-0.201655
-0.229083
0.981706
0.0543185
0.60721
-0.854264
0.247054
-0.83098
-0.0109203
0.841901
-0.75138
0.975303
-0.223923
0.125436
-0.00451082
-0.120925
-0.441195
1.05099
-0.3103
0.136845
0.173455
0.0205378
-0.765351
0.131224
-0.0332977
-0.0979261
-0.955225
1.24089
-0.28567
-0.237266
0.530613
-0.293347
1.16178
-0.511011
-0.650766
-0.00817223
-0.594786
0.602959
-0.251753
-0.0291804
-0.525947
1.08671
0.442799
-0.693213
1.11684
-0.481538
-0.172805
0.144509
-0.868553
0.0375729
1.20785
-0.499906
-0.0272328
-1.28451
0.219666
-0.0211588
0.31354
0.517291
-0.83083
0.546208
-0.119195
-0.427013
0.847803
-0.970103
0.1223
-0.122263
0.00924917
0.113014
-0.193132
-0.475749
0.668881
0.339587
-0.278301
-0.379923
0.137492
0.242431
0.125099
0.288813
-0.413912
0.0751777
0.100949
-0.871451
1.02109
-0.149638
-0.150233
-0.042686
0.444769
0.196265
-0.641034
0.56243
0.480657
-1.04309
0.148315
0.487166
-0.0168179
0.98381
0.00313627
0.783204
-0.786341
0.00237166
-0.00706524
0.0807451
0.00396067
-0.0847057
0.921877
-0.86466
-0.057217
0.448547
0.533101
-0.0617394
0.031903
0.0298364
-0.288718
0.805791
-0.517072
0.0147024
0.140234
-0.154936
0.480767
-0.818846
0.338079
-0.485133
-0.55168
1.03681
0.837116
-0.158994
0.300972
0.245236
-0.424343
-0.104045
0.528388
0.280481
-0.80883
-0.121987
-0.140592
0.262579
0.174899
-0.075063
-0.0998356
-0.0129249
-0.238828
-0.0718696
0.623023
-0.551154
-0.137281
1.11083
0.771248
-0.617367
-0.153881
0.617527
-0.543088
-0.520435
0.153027
0.367408
0.0939981
-0.481367
-0.0220657
0.0605774
-0.0385117
0.0529377
0.126175
0.137152
0.735258
-0.87241
0.203218
0.179723
0.121172
-0.841955
-0.415989
0.167884
0.248104
-0.315317
-0.233043
0.54836
0.464011
-0.223539
-0.840087
0.557175
0.269919
-0.218845
-0.0510742
-0.461956
0.82329
-0.361334
-0.426959
0.433931
-0.423312
0.546012
-0.1227
-0.562886
0.875788
-0.312902
-0.020285
0.191325
-0.17104
-0.172411
0.124674
-0.293132
-0.583784
0.890018
-0.306234
-0.541007
0.673422
0.499631
-0.501809
0.00217789
0.234729
-0.157541
-0.0771884
-1.25122
0.851776
0.399443
-0.0197394
0.232179
-0.212439
0.0328978
0.685645
-0.899883
0.809126
-0.391977
-0.356452
-0.526766
-0.696738
0.699875
0.500849
-0.00899865
0.386721
0.130348
-0.517069
-0.312859
0.287701
0.0251575
0.160175
-0.184337
0.0241626
-0.0716606
-0.363916
0.435577
-0.169463
0.496306
-0.326843
-0.757044
-0.245945
1.00299
0.106217
0.128512
0.771081
0.150796
-0.786447
0.560536
0.225911
0.183141
-0.322835
0.139694
0.0032308
0.160851
-0.211139
0.0502881
-0.651354
-0.523447
0.451787
0.122317
0.185186
-0.141097
0.29504
0.0623788
0.0347574
-0.570402
0.0277269
0.263951
0.0928798
0.0400002
-0.13288
-0.601703
-0.466874
1.06858
-0.0699204
-0.354422
-0.508024
-0.0964626
0.604486
0.127152
0.172744
-0.299896
-0.00692625
1.13101
-0.738771
-0.392239
0.167233
0.652691
0.0800725
0.329391
-0.418344
0.0889525
-0.433787
0.95526
-0.521473
-0.569354
-0.248024
0.817378
-0.437134
0.173166
-0.41369
-0.106745
0.886075
-0.427405
-0.458669
0.216119
-0.275422
0.059303
0.386558
0.0454171
-0.431976
-0.152317
0.179016
0.333134
-0.3953
0.0621652
0.272641
-0.0231761
-0.196755
-0.00672179
0.475706
0.410369
-0.383201
0.803316
-0.38992
1.05733
0.04609
0.170029
-0.856643
0.28729
0.712194
-0.62558
-0.0928604
-0.615604
0.122174
0.200961
-0.50534
0.720274
-0.703602
0.815397
-0.0163068
-0.184486
-0.0977595
-0.284218
-0.0682624
0.35248
-0.279282
-0.0323965
0.707217
0.148552
-0.85577
0.0304191
-0.243757
0.213338
0.00628842
0.30196
-0.802045
0.500085
0.873105
-0.0649242
-0.944299
0.998079
-0.0537804
0.204905
-0.123454
-1.08404
-0.167179
-0.331579
0.842154
-0.0292187
0.39014
1.12447
-0.41449
-0.709982
-0.631257
-0.0452374
0.676494
0.187801
0.512097
-0.699897
-0.681382
0.0289449
-0.160669
-0.148713
0.309382
-0.462815
0.59993
0.127662
0.514918
-0.64258
-0.228055
0.266354
-0.0382987
-0.956595
0.107989
0.848607
0.307108
0.502018
-0.219727
0.554287
0.2393
-0.301137
-0.125817
0.764811
-0.89748
-0.177778
-0.384138
0.561916
0.192084
-0.133641
0.665979
0.0464796
-0.712458
0.685294
-1.07521
0.0137655
0.0198457
-0.476281
0.617167
-0.140886
-0.653897
0.510158
-0.014333
0.261128
-0.246795
-0.368237
0.145961
0.222276
0.217967
-0.350895
-0.241004
0.579017
0.130167
-0.1616
-0.13757
0.148049
0.107655
-0.321586
0.00586376
-0.0564449
-0.170816
0.16467
0.00614589
0.1853
-0.209541
0.0242414
-0.680788
0.463356
0.129516
-0.63754
-0.0119981
-0.254756
0.0269192
0.535281
-0.5622
0.304374
-0.325189
0.18812
-0.794825
0.606705
-0.286745
0.704246
-0.417501
0.194717
-0.888129
-0.0681171
-0.02566
-0.922709
0.534748
0.694286
-0.739321
-0.100767
-0.532253
-0.226023
-0.387789
0.163968
0.188235
-0.0211684
-0.167067
1.18062
-0.609371
0.877923
-0.206071
-0.223826
-0.139283
0.363109
-1.13157
0.470041
0.661527
-0.36155
0.155769
-0.0215322
0.935167
0.144187
-0.0860316
-0.443376
-0.0875111
-0.222789
0.324929
-0.285458
-0.0394709
-0.113814
0.821032
0.0828471
0.182354
-0.265201
0.691483
-1.29135
0.586471
0.704882
0.224185
0.189722
-0.413907
0.59898
-0.276381
-0.322599
-0.497225
0.259959
-0.62079
0.0154114
0.371147
0.885978
-0.971551
0.378418
-0.171765
-0.394318
0.674799
-0.903084
0.642828
0.260256
0.52309
-0.860086
0.336996
-0.687765
0.720901
-0.0331365
0.420246
-0.51408
0.012614
0.234646
0.24086
0.102853
-0.710033
0.27971
-0.951826
0.494141
0.457685
0.234974
-0.866231
0.721447
-0.0468679
-0.564692
0.132757
0.147854
1.01356
-0.333882
-0.67968
-0.309106
0.24893
-0.564247
0.134659
-0.959488
0.91425
-0.767861
0.350504
0.469912
-0.724628
0.38006
0.344568
-0.828479
0.545378
0.2831
-0.244052
-0.0406332
0.00132741
-0.993631
0.694222
0.299409
0.601571
-1.04277
-0.859006
-0.0124448
1.12524
-0.402821
0.287357
0.0840983
-0.371456
-0.0195854
-0.121744
0.14133
-0.255307
0.475844
0.527597
-0.438436
-0.286192
0.168355
0.171232
0.223291
0.331447
-0.554739
0.345279
-0.209834
-0.04288
-1.06737
1.11025
-0.311207
0.410138
-0.772709
-0.56355
-0.408775
0.972325
0.232438
-0.297088
-0.64808
0.198645
0.449435
-0.0031975
5.28777e-05
0.00314462
0.739721
-0.86574
0.0371321
-0.513413
0.463494
0.406111
-0.869605
-0.226388
0.158845
-0.789724
0.22022
0.569504
-0.998618
0.513484
0.525706
-0.959493
0.501996
-0.679773
-0.00443139
0.00123388
-0.0330816
0.946945
-0.587514
0.725278
-0.137764
0.889717
0.000351001
-0.890068
-0.679672
-0.0112407
-0.185773
0.0641439
0.661944
0.101686
0.0272724
0.290229
0.246776
0.339714
0.48253
-0.00298385
0.163158
-0.831045
-0.0555872
-0.706093
0.301128
-0.710283
0.153707
0.178548
-0.332255
0.794616
0.047749
-0.842364
-0.0894491
0.0849383
-0.322464
-0.70365
-0.757376
-0.106655
-0.411725
1.09702
-0.316844
0.427464
-0.11062
-0.87142
0.269717
-0.257311
0.480603
-0.334748
-0.628899
-0.385172
-0.306668
0.324203
-0.531904
-0.255761
0.965504
-0.123349
0.606528
-0.289738
-0.31679
0.0799814
0.0758947
0.227128
0.985339
-0.94043
0.0102942
-0.204637
0.287581
-0.471511
0.482406
-0.418983
-0.492744
0.19849
0.157346
-0.355836
-0.763617
0.0375289
-0.108413
0.729669
-0.621256
-0.0728756
-0.871423
-0.680194
0.798386
1.33867
-0.576242
-0.762433
-0.1346
0.312053
0.786038
-0.422436
-0.363602
0.237186
-0.260362
0.0436806
0.0370645
-0.197277
0.0527837
0.144493
-0.11969
0.506412
-0.455097
1.05667
-0.0316086
-0.123882
-0.252524
-0.0690208
0.321545
-0.0148886
0.75461
0.0443782
0.428699
-0.473077
-0.358129
0.533561
0.410943
0.394847
-0.320575
-0.0954137
0.479123
-0.175215
-0.303907
-0.0702461
0.0617709
0.00847519
0.130146
-0.774964
0.644818
-0.879532
0.122156
0.196446
-0.414255
0.715383
-0.00655964
0.243746
0.106969
-0.423813
-0.952244
0.479125
-1.00683
0.329327
-0.413082
0.0379336
-0.398849
-0.54581
0.944659
-0.886377
0.108858
0.233205
-0.342062
0.97601
-0.732356
0.756144
-0.568343
0.152284
0.493881
-0.646165
0.206204
-0.366873
-0.662306
-0.148429
0.810735
0.00881075
0.156689
-0.1655
-0.44657
0.988554
-0.541984
0.772739
-0.488951
-0.283788
0.71226
0.0212142
-0.733474
-0.530701
-0.760651
-0.298911
-0.00495773
0.342201
0.584916
-0.0136363
0.0738189
-0.0601826
-0.638891
-0.150834
0.662916
0.572806
-0.500774
0.596313
-0.095539
-0.293499
0.254874
-0.000493044
0.343359
-0.342866
0.233657
-0.15081
-0.113198
-0.880433
-0.797455
0.261911
0.00800784
-0.170796
0.162719
0.0673236
0.697045
-0.764369
-0.476103
-0.127013
0.46663
0.270274
0.0624287
-0.211324
0.0083124
0.16408
-0.172392
0.0902144
-0.337898
0.247683
0.285442
0.261427
0.167656
0.776795
-0.360035
0.847483
-0.437344
-0.0943946
-0.229309
0.323703
0.710608
0.0707218
0.0326926
-0.625241
0.432109
0.361044
-0.375933
-0.507296
-0.538817
1.04611
-0.620423
-0.511145
-1.04929
1.09409
-0.0448038
0.143728
-0.356151
0.287889
0.521837
0.254958
-0.126548
-0.0711093
0.197657
-0.288676
-0.574917
-0.0608676
-0.693527
0.754395
0.436707
-0.205594
0.104009
-0.225996
0.549007
-0.871471
0.444879
-0.336136
-0.302531
1.21642
-0.913893
0.563733
0.475259
0.273429
-0.748688
1.06547
-0.628927
-0.436539
-0.445802
-0.660711
1.10062
-0.439909
0.306961
0.299567
-0.254725
0.248166
0.398991
0.762786
-0.182548
0.162963
0.0236849
-0.0326848
0.902254
-0.500024
0.434715
0.745901
-0.365168
0.187501
0.177667
0.206703
-0.449883
0.713315
-0.0473364
0.471066
-0.183708
-0.649838
-0.111391
0.761229
0.16203
-0.0329449
-0.129085
0.114137
0.0900264
0.128406
-0.879786
-0.252716
0.274074
0.656603
-0.571073
-0.0855303
0.144628
0.334494
-0.124548
0.0677034
0.219009
0.216294
-0.435303
-0.472873
1.00631
0.125254
-0.540944
1.11381
-0.572862
-0.275143
0.400241
-0.22046
-0.00759537
1.04948
-0.516002
-0.329447
0.306323
0.292657
0.266767
-0.278765
-0.137371
0.117086
-0.266776
-0.114496
-0.00107139
0.469155
-0.131825
0.760405
-0.62858
0.111189
-0.0795739
-0.325622
0.0761295
-0.283567
-0.0153439
-0.846136
0.581379
0.211636
0.213169
-0.110428
-0.161202
0.27163
0.272767
0.0377219
0.787325
0.42201
-1.20933
-0.0751874
-0.0195909
0.0947782
0.325838
-0.713908
0.872597
0.466077
0.733856
-0.666532
-1.10844
0.0567318
-0.0265655
-0.124998
0.433321
0.699378
0.236253
-0.93563
0.331565
-0.0271907
-0.0326555
-0.289885
-0.0752832
-0.475581
-0.432077
0.526075
0.61062
0.187465
0.533184
-0.546855
0.0136709
0.157592
0.00707735
-0.065037
0.216974
-0.0316746
0.676341
0.170946
-0.847287
0.280945
0.043984
-0.194625
0.117823
0.0768026
-0.303398
0.000791113
0.302607
0.313802
0.527055
-0.840857
0.20601
0.258001
0.644446
-0.0164719
-0.228613
0.653768
-0.406993
-0.0173569
0.0179481
-0.000591163
-0.934004
0.512339
0.778005
-0.624028
-0.153976
0.0113047
-0.111153
0.0998485
0.76504
-0.836909
0.501435
-0.0647277
0.320155
0.435989
-0.100523
-0.0139727
-0.412794
0.117656
0.295138
-0.562021
-0.0975333
0.99875
-0.510271
-0.488479
0.536844
-0.0802699
-0.456574
0.370913
-0.635803
0.264889
-0.0379614
0.467895
-0.00687032
-0.287662
0.685655
-0.397992
-0.283025
-0.129768
-0.319817
-0.0289992
0.211353
0.677579
0.00595391
-0.683533
-0.295757
-0.0499058
0.142786
0.0378903
-0.00598722
0.436917
0.18025
-0.130443
0.15778
-0.0140347
0.0584774
-0.133278
0.129775
-0.349387
0.501671
0.0125622
0.192097
0.16775
-0.287955
0.696228
-0.0461532
0.579337
-0.122239
-0.0888237
-0.214298
0.433307
-0.193291
0.846378
-0.653086
-0.744757
-0.0991455
-0.54484
0.87242
-0.32758
-0.247357
0.218358
0.272362
-0.0564109
-0.0188889
-0.203994
0.222883
-0.764934
0.248933
0.0818378
-0.100721
0.46083
-1.12666
0.329179
-0.904439
-0.324461
0.888847
-0.414964
0.447069
-0.230776
0.0122422
-0.589352
0.719498
0.000520282
-0.125332
0.139108
-0.488313
-0.080879
-0.550673
0.631552
0.0467949
0.408156
1.1972
-0.783717
-0.413481
-0.189299
0.0564247
0.177192
0.0190865
-0.196278
-0.719302
0.131788
0.148327
0.0265715
-0.00614964
-0.0975169
0.103667
0.384718
-0.929558
0.0757496
0.398061
0.0239601
-0.422021
-0.935354
0.742063
0.115764
0.0315765
-0.147341
0.295762
-0.879545
-0.111904
-0.00304177
0.114946
0.148219
-0.0324548
-3.04631e-05
0.641092
-0.492776
0.538605
0.434087
-0.228076
-0.797874
0.234324
-0.606348
0.480407
0.125941
0.513327
-1.02062
-0.443193
-0.264863
0.708056
0.0730349
0.341809
-0.25821
0.213313
1.04503
-0.146278
-0.89875
-0.00824977
-0.822795
0.651184
0.061076
0.374258
0.41178
-0.126546
-0.00447893
0.112564
-0.249743
-0.290074
0.061941
-0.0509749
-0.0109661
0.020562
-0.668485
0.647923
-0.041729
0.237626
-0.195897
0.33945
-0.86119
0.521741
-0.103348
-0.476763
-0.0305198
0.0362302
0.603781
-0.294372
-0.166114
0.460486
-0.310168
-0.362598
0.380479
-0.223133
0.306811
-0.1721
-0.134712
-0.342995
0.232567
-0.723173
-0.117249
-0.016203
0.133452
0.102475
0.270375
-0.37285
0.0806036
-0.636622
0.556019
0.0107862
-0.479
0.145371
-1.1006
-0.397305
-0.664739
1.06204
-0.847671
0.0375515
0.810119
-1.16025
-0.701954
0.0141893
-0.228153
0.235543
-0.00738976
-1.098
-0.308824
0.985165
0.321978
-0.167372
0.0701857
-0.284484
-0.14581
0.403811
0.119598
0.0700236
-0.322548
0.0124668
-0.0971638
0.084697
-0.204508
0.0777979
-0.0644354
0.0757401
-0.226383
0.450569
-0.878559
0.552671
0.325888
-0.272769
0.27595
0.532411
0.160211
0.00181955
-0.239036
0.112488
-0.423752
-0.224328
-0.466281
0.165469
0.300811
0.0803158
0.229371
-0.309687
-0.342649
0.432863
-0.0632385
0.630511
0.787453
-0.743074
0.488774
-0.798942
0.378159
-0.517455
0.139296
0.0765337
0.00167138
-0.137183
-0.0124514
-0.936206
0.537358
0.108601
0.428243
0.0129722
-0.159445
0.146473
-1.39982
0.576108
-0.0865027
-0.0550985
-0.158201
-0.0170389
-0.180229
0.197268
-0.478174
0.183802
-0.962188
0.84899
0.950303
-0.486809
-0.14688
0.131519
0.0153617
-0.0472678
0.0456884
-0.118054
-0.949807
0.32225
0.627557
-0.108761
0.0891697
-0.0549589
0.231723
-0.176764
0.328412
0.173023
0.161513
-0.154988
-0.00652437
-0.216035
0.228597
0.0765237
0.0164184
0.514607
-0.752656
0.937659
0.044047
-0.540831