/*--------------------------------*- C++ -*----------------------------------*\
| =========                 |                                                 |
| \\      /  F ield         | OpenFOAM: The Open Source CFD Toolbox           |
|  \\    /   O peration     | Version:  2306                                  |
|   \\  /    A nd           | Website:  www.openfoam.com                      |
|    \\/     M anipulation  |                                                 |
\*---------------------------------------------------------------------------*/
FoamFile
{
    version     2.0;
    format      ascii;
    arch        "LSB;label=32;scalar=64";
    class       volVectorField;
    location    "3.8";
    object      U;
}
// * * * * * * * * * * * * * * * * * * * * * * * * * * * * * * * * * * * * * //

dimensions      [0 1 -1 0 0 0 0];

internalField   nonuniform List<vector> 
13486
(
(2.80618 -0.397329 2.34344e-18)
(3.27586 0.591141 1.17714e-18)
(5.34459 0.0715893 0)
(-3.55128 1.37193 -4.4816e-18)
(4.569 -0.941454 5.53745e-19)
(4.95238 0.376462 5.0286e-20)
(4.94927 -0.657407 -5.25387e-21)
(3.82153 -1.37216 -1.12406e-18)
(3.79013 -0.721413 0)
(3.95481 1.5656 0)
(-2.0792 5.3925 -4.99545e-18)
(4.99122 -0.178267 0)
(2.47853 -0.770291 -2.32391e-18)
(4.83241 1.63238 -1.63067e-21)
(4.70804 -0.592947 3.19801e-19)
(3.85872 1.5427 -7.9254e-19)
(2.13882 -0.386973 3.39583e-18)
(1.43447 -1.12749 6.32933e-19)
(4.44162 -0.0618146 1.09005e-20)
(3.14278 -0.0697887 -2.41119e-18)
(-3.34136 0.0590028 -1.68852e-18)
(2.52149 -0.803415 3.02318e-18)
(3.32593 0.569775 -9.3692e-19)
(7.43615 -1.75 0)
(4.04773 1.26573 2.68426e-19)
(7.26456 -1.65312 -1.43968e-18)
(1.15626 -0.527253 3.95732e-18)
(5.78211 -0.351772 2.57056e-18)
(4.01222 0.19684 0)
(5.40219 -0.943415 -1.86714e-18)
(-2.32686 -1.46604 -9.0198e-19)
(4.80277 -0.456817 -5.08434e-19)
(6.65287 -0.195456 2.11802e-18)
(4.58932 -0.322083 0)
(3.83111 -1.307 0)
(3.57546 0.0125992 -2.22356e-22)
(3.24373 0.321994 -1.94399e-19)
(2.98171 -1.38327 1.15031e-18)
(3.46581 -0.359056 -7.72153e-20)
(3.84922 -0.452301 1.15533e-18)
(4.84244 -1.58247 0)
(1.91989 -0.931723 -2.69575e-18)
(4.19559 0.0129934 0)
(4.08583 1.08036 -1.26252e-18)
(4.1346 1.05695 5.25311e-19)
(4.98314 -0.183111 3.5326e-19)
(-2.35625 1.34387 6.37823e-18)
(3.98566 0.189656 4.83787e-22)
(3.29432 0.326052 1.47432e-19)
(5.63975 0.0742989 9.74339e-19)
(4.00038 0.0572926 1.42278e-18)
(3.57975 -0.111149 0)
(5.03359 -0.355473 -5.53439e-19)
(3.14674 -1.14146 -1.68365e-18)
(1.51244 -1.51158 0)
(4.49454 -0.9561 -4.01017e-19)
(4.59293 1.1291 8.2714e-20)
(3.57516 -0.195847 -3.35491e-19)
(6.63233 -0.156327 2.50426e-18)
(2.77021 0.499441 0)
(-2.16471 5.3977 -6.72237e-18)
(2.76767 0.545096 0)
(7.88669 1.43176 -1.84579e-18)
(-3.16253 0.109033 -1.69957e-20)
(4.22785 -5.35798 0)
(3.18793 0.384901 -1.00414e-19)
(-4.03715 1.55963 -4.78872e-18)
(2.79832 0.134741 8.12605e-19)
(3.78787 -0.780559 -6.59127e-19)
(3.43536 0.0271618 8.19368e-20)
(-3.85668 1.56342 5.48253e-18)
(1.54621 -1.3971 2.57164e-20)
(3.89872 -0.220913 8.70321e-19)
(-1.75961 -0.717041 -1.86187e-18)
(3.16463 0.588584 -2.53635e-20)
(4.65211 1.04944 -1.54866e-20)
(3.21583 0.585242 6.46888e-20)
(4.71619 -0.624013 -1.27252e-19)
(-2.13402 2.07812 -3.25638e-18)
(3.60134 -1.11763 0)
(3.89563 0.0399491 1.35654e-21)
(3.17134 0.810539 -7.37788e-20)
(6.91637 1.24001 4.48406e-21)
(5.45243 0.0552972 -1.32559e-20)
(2.78806 -0.39865 -4.60878e-18)
(2.51402 3.39419 0)
(3.08254 -0.600608 -5.20673e-20)
(4.00262 0.100021 -2.14606e-18)
(3.71858 0.462062 -9.43782e-19)
(3.62025 2.08034 -9.30689e-19)
(4.8935 -0.491452 -3.3542e-19)
(4.09243 -1.1591 -5.67424e-19)
(2.90973 -0.566692 6.04895e-19)
(3.24723 0.175375 6.3898e-20)
(3.54816 -1.0898 2.64723e-19)
(3.9575 0.167198 3.53383e-23)
(1.11008 -0.633385 0)
(-4.8417 1.62614 3.32774e-18)
(3.87645 -0.450142 -2.209e-18)
(2.43753 -0.179799 1.09764e-20)
(3.90828 0.0183053 0)
(4.79133 1.62003 -1.25602e-20)
(-5.04131 1.26132 2.34085e-19)
(3.55666 -0.166143 3.93413e-19)
(2.58727 3.26009 0)
(2.25504 0.158488 3.12794e-20)
(3.9158 0.110771 2.70305e-21)
(3.48117 -0.407637 -1.72136e-19)
(-2.142 1.86162 4.4406e-18)
(3.77302 -1.70317 0)
(2.89413 -1.3751 0)
(4.78453 -0.495333 -4.46557e-19)
(3.173 -1.10054 1.27607e-20)
(4.55156 0.585457 -2.76545e-22)
(2.06343 -0.0482999 0)
(2.75312 -1.35816 -9.78228e-19)
(4.02911 1.30152 0)
(4.84884 -0.280445 0)
(3.88269 -0.2111 0)
(3.42803 0.294502 -7.70791e-20)
(1.59549 -1.06787 -2.70839e-19)
(-2.91501 5.40142 0)
(3.49724 -0.975001 0)
(3.46813 -0.361077 2.46934e-19)
(3.62648 -1.26085 0)
(3.56651 -0.10838 0)
(4.32031 -0.496643 2.40993e-20)
(4.36355 0.186443 4.69841e-19)
(4.20099 -0.143248 -2.69956e-19)
(4.49895 -4.64711 -1.73488e-18)
(3.54109 -0.0813824 -4.09192e-20)
(-2.35179 0.83544 -1.59411e-18)
(0.301968 0.525012 3.28422e-18)
(-0.341883 0.348482 2.30448e-18)
(3.9968 0.0276809 -2.30569e-19)
(3.75963 0.885675 -1.11302e-18)
(1.14866 1.44665 -6.80356e-19)
(3.78512 -1.66775 0)
(3.45011 0.286174 2.17045e-20)
(3.90259 -1.08559 -4.05496e-19)
(6.27658 0.133123 -2.1673e-18)
(5.02833 -0.371182 4.7084e-19)
(4.85968 -0.380245 0)
(3.6474 -1.05207 0)
(4.45959 0.0181128 2.49342e-21)
(8.43655 0.659792 -4.19861e-18)
(4.29441 -0.155907 -3.32771e-20)
(0.617572 3.60858 0)
(5.69767 0.0850973 0)
(4.02858 0.181185 0)
(4.03612 0.0308052 2.19527e-20)
(4.75025 -0.760456 0)
(3.91479 0.0314045 -1.428e-21)
(3.13941 0.781132 -6.33338e-19)
(4.38118 0.699897 0)
(5.57891 0.101322 0)
(3.52465 -1.6221 0)
(-1.09349 0.264549 4.03682e-19)
(3.34243 -1.31979 2.36146e-18)
(4.05069 -1.6172 -1.08458e-18)
(5.52417 0.0665205 5.32912e-19)
(3.36415 -1.26485 -3.60159e-18)
(4.87445 -0.59303 2.78536e-19)
(1.77396 -0.834563 1.18833e-18)
(3.60396 -0.13085 0)
(5.04869 1.64382 -1.81324e-19)
(4.68939 1.4887 2.34312e-19)
(0.84208 -0.189873 -2.87077e-18)
(4.21552 -0.139929 8.97298e-20)
(-0.387644 0.366097 6.20388e-19)
(-1.00424 0.303924 1.06636e-19)
(4.36346 0.635535 4.08269e-19)
(3.98767 0.186194 -1.77585e-18)
(4.58643 -0.35829 3.5436e-20)
(3.89532 0.0878852 -7.44442e-22)
(-5.00521 0.913204 0)
(4.74782 2.24772 4.00503e-20)
(6.53287 0.221429 2.87439e-18)
(3.92443 0.0943246 -2.28848e-18)
(4.86967 -0.352246 0)
(3.93727 -0.543535 2.28907e-18)
(4.54149 0.533265 5.7495e-22)
(4.70137 -0.356704 -1.38117e-20)
(-3.75157 2.55978 0)
(5.28513 -0.107279 5.98015e-20)
(5.41529 -0.327254 -1.15967e-18)
(4.13423 0.178821 -1.04548e-21)
(5.24534 -0.66333 -5.34287e-19)
(4.81464 -1.52075 0)
(2.55846 -1.22996 -1.24386e-18)
(3.36633 0.344576 0)
(5.03968 0.125528 0)
(3.6583 -0.285136 0)
(2.549 1.69911 -1.31872e-18)
(3.73654 -0.353782 0)
(-2.8405 5.4036 -1.37542e-18)
(4.51556 -5.48814 3.80904e-18)
(5.65643 0.0459197 3.31604e-19)
(2.45026 -1.20351 -5.00213e-19)
(5.02167 1.55549 -4.76434e-20)
(-2.42035 -1.64248 9.00937e-19)
(4.39349 0.228178 -1.40626e-20)
(2.87803 -1.38076 -1.33675e-18)
(3.81856 -1.62449 1.22087e-19)
(4.20563 -1.63261 1.32472e-18)
(3.79539 -0.330879 -2.95861e-19)
(0.714156 -1.41423 1.9759e-19)
(3.72942 -0.0915541 1.81136e-18)
(3.61851 -0.301813 0)
(5.32105 -0.0662241 0)
(5.66975 -0.410499 1.77773e-18)
(6.68313 -2.63174 2.71448e-18)
(3.1865 -0.0356507 2.19876e-18)
(3.88576 0.110665 2.56402e-21)
(4.94473 0.483158 -5.78859e-20)
(4.25965 -1.5318 2.14733e-19)
(5.49309 -0.816434 0)
(3.61591 2.01558 2.26142e-18)
(3.05174 -0.629048 0)
(6.28436 1.8646 0)
(2.39044 -0.116743 -6.58397e-18)
(5.75877 0.163174 0)
(3.86653 -1.08713 9.35475e-19)
(5.49053 0.0907562 0)
(5.10945 -0.38208 -8.76672e-20)
(2.5103 -1.16048 8.28058e-19)
(5.21209 0.80967 -1.94062e-20)
(-2.86909 -2.9433 1.18771e-18)
(4.11834 -1.02103 3.07656e-20)
(3.21762 -0.612619 -1.46256e-20)
(3.96869 -0.544073 -7.37126e-19)
(3.36562 -0.617835 1.02132e-18)
(6.35449 0.0359554 2.7089e-18)
(1.92129 -0.922452 9.23317e-19)
(-4.42251 0.0970808 0)
(2.33782 -1.1301 9.75614e-20)
(5.0109 -0.536045 9.15446e-19)
(5.09166 0.0974189 5.83643e-21)
(2.17314 -1.04078 2.60391e-18)
(4.69954 -0.232156 0)
(6.791 -0.262145 0)
(4.01284 0.133505 2.68931e-18)
(4.68116 0.369433 0)
(2.12791 -1.05707 8.83093e-19)
(3.3596 -0.454237 -1.53562e-19)
(3.57924 0.156682 0)
(4.7812 -0.0362298 -1.57877e-19)
(6.27181 -1.43671 3.94857e-18)
(-0.150457 -0.655248 4.04724e-18)
(4.01225 1.02358 0)
(-5.8937 2.74563 -1.87878e-18)
(1.98945 0.0140246 3.40122e-19)
(2.47213 -1.21383 1.21537e-18)
(3.48388 -0.409406 0)
(3.90385 -0.952688 2.0486e-19)
(-4.33262 1.20199 1.73196e-18)
(4.79926 -0.463953 4.33579e-19)
(4.1875 -1.58837 -2.72614e-19)
(-1.05345 0.33049 -4.20169e-19)
(6.74264 -0.248443 1.84544e-18)
(3.52373 0.485762 0)
(3.33464 -0.441233 -2.99857e-21)
(4.70573 -0.612688 -7.64913e-19)
(-5.28399 1.52527 -2.141e-18)
(4.32416 -1.37923 -6.16912e-19)
(-3.65515 2.85913 0)
(4.16969 -0.978813 -5.08854e-19)
(-3.25808 -1.04238 -1.62366e-18)
(4.17696 0.00190148 -1.02592e-18)
(2.29266 -0.825005 0)
(2.96195 1.92952 9.64352e-19)
(3.91763 0.125604 -6.22214e-19)
(5.52644 -0.87614 0)
(5.06152 -0.251861 2.93666e-19)
(2.4855 -1.1812 1.1046e-18)
(6.00527 -1.48183 -2.21679e-18)
(3.92012 -0.869359 0)
(2.00067 -2.78409 0)
(3.52264 -0.457999 -1.86361e-19)
(4.50514 -0.15758 6.98172e-20)
(2.01196 -3.02204 5.98465e-19)
(4.17499 -0.372594 -8.3468e-19)
(3.86114 0.167646 1.35062e-18)
(8.80494 -0.711719 -3.53228e-18)
(-3.50917 5.2562 7.93316e-18)
(1.21999 -0.888323 6.55403e-18)
(6.20195 0.286243 2.1005e-18)
(4.13647 -0.208412 3.53163e-19)
(5.45131 -0.396688 1.2865e-19)
(4.09583 0.0153647 0)
(-4.51463 0.539663 0)
(2.92305 -0.435354 1.96632e-19)
(2.81251 -1.353 9.66074e-19)
(3.9916 0.0486796 -2.26665e-19)
(5.00613 -0.504034 8.51608e-19)
(5.13022 -0.611391 0)
(5.00583 -0.0511435 -7.55193e-19)
(5.08381 -0.219588 -2.24267e-19)
(3.83908 0.136818 -1.24022e-18)
(5.02836 -0.934633 -2.16794e-21)
(3.8702 -0.50178 -3.39077e-19)
(0.914742 -1.44554 3.2307e-20)
(4.52927 -0.130306 -6.05682e-20)
(4.77769 -0.461963 4.86458e-19)
(3.36353 0.233063 3.53275e-20)
(3.26844 -1.50959 0)
(1.17685 -0.318445 0)
(4.41531 -0.0795353 3.29992e-19)
(3.22423 -0.641373 5.80387e-20)
(3.31667 0.347402 0)
(3.66878 2.69544 -4.15411e-18)
(-3.48567 1.53982 0)
(4.565 2.18084 1.17959e-19)
(4.83265 -0.508218 -4.88233e-19)
(3.45964 3.083 0)
(3.73854 0.839069 -6.96586e-19)
(2.77162 -0.481671 -2.95442e-19)
(3.71388 0.416931 -8.13084e-20)
(3.73697 -0.0758813 -1.99553e-18)
(4.32024 -0.984106 0)
(3.23579 0.401586 1.83459e-19)
(3.08357 -0.311759 -5.1496e-21)
(3.94651 0.0972828 2.88595e-19)
(3.20998 0.294247 -1.19424e-18)
(1.44305 1.382 1.25005e-18)
(4.89776 -0.489659 6.47566e-19)
(4.37867 -0.681762 -2.14385e-18)
(4.20932 -0.363517 0)
(5.19639 -0.185067 6.28858e-21)
(4.45187 -0.688689 -3.61012e-19)
(4.00673 0.0556425 3.11434e-18)
(4.15855 -1.14615 0)
(4.82841 -0.528077 -1.63946e-19)
(2.83146 0.799796 0)
(4.94476 -0.642074 -2.21664e-19)
(3.69512 -1.01762 -7.18318e-19)
(1.48603 -0.686269 1.0927e-18)
(4.71261 -0.798717 -4.57889e-19)
(4.03832 0.404538 0)
(3.30704 -0.458679 -2.42256e-19)
(4.22845 -1.00868 5.52765e-19)
(3.23862 0.28774 1.12602e-18)
(4.48797 -0.701294 1.47609e-18)
(4.68481 -0.35836 7.43746e-19)
(-5.00316 3.97824 -5.03223e-18)
(3.9859 0.175148 5.29484e-22)
(4.42327 -0.360647 0)
(1.95653 -0.635388 2.67926e-18)
(6.31339 1.81309 0)
(2.94885 -0.460892 5.41334e-21)
(4.49249 -0.181022 1.34724e-18)
(5.15045 -0.217803 -2.12027e-19)
(5.06211 -0.252785 2.23844e-19)
(1.04288 -0.520887 -4.67764e-18)
(3.8579 0.134375 1.54838e-18)
(3.76214 0.0444112 0)
(-1.37303 -0.10887 -1.71505e-18)
(4.34506 -0.502742 -4.73306e-19)
(3.30054 -0.617995 -4.22294e-20)
(6.21658 -2.67418 2.22358e-18)
(5.13927 -0.0565505 0)
(5.06897 -0.505731 4.31319e-19)
(3.56226 0.324933 2.41396e-18)
(3.92014 0.143487 1.89644e-18)
(5.44332 -1.00184 0)
(3.92656 0.016335 -1.28017e-21)
(5.12798 -0.56929 -8.59871e-19)
(-2.6953 -0.00846951 9.97668e-19)
(3.11034 -0.0717387 3.05439e-19)
(4.35274 -0.442861 4.48543e-19)
(4.29604 0.00782798 -2.96566e-21)
(4.40726 -0.347767 0)
(5.0869 -0.386486 -2.96988e-19)
(-5.90162 3.15352 1.97169e-18)
(4.89497 0.885113 1.54647e-20)
(3.9966 0.0610113 1.19622e-18)
(3.02152 0.0307182 0)
(3.13936 -0.432908 -2.95768e-19)
(3.52458 3.26531 0)
(6.29586 2.80669 -9.86245e-19)
(4.20072 -0.0298284 0)
(4.11012 -1.32828 -2.78408e-20)
(2.59645 -0.184943 -6.50464e-19)
(2.99017 1.7404 2.26914e-18)
(-2.93707 0.502731 -3.5781e-18)
(3.98707 -0.870633 0)
(4.65605 0.159622 -2.70659e-19)
(4.05619 0.428876 -7.09649e-19)
(2.86261 -1.4726 -1.97977e-18)
(-2.0113 -0.580271 1.07607e-19)
(3.24192 -0.0785107 -3.32199e-18)
(5.65483 -0.751252 9.0741e-19)
(4.16915 0.421956 5.02677e-19)
(2.86128 -0.860212 0)
(2.69657 0.636029 1.28493e-18)
(3.50288 0.328591 -5.52927e-20)
(-3.81115 1.60465 2.69564e-18)
(-5.98145 2.919 -6.4702e-18)
(3.32979 -1.15329 -4.19445e-18)
(6.28584 0.254114 0)
(3.21564 -1.37239 0)
(3.94623 2.37821 0)
(4.15445 -0.154502 0)
(1.73459 -0.491238 -4.37924e-19)
(4.87427 -0.586143 0)
(2.91235 -0.47414 0)
(3.28818 0.22945 4.60163e-19)
(6.50845 0.28937 -3.01124e-18)
(4.36154 -0.333315 -1.10823e-18)
(3.37304 0.672783 3.97166e-18)
(4.01975 0.0555931 -3.60797e-19)
(4.53101 3.37911 0)
(5.78631 -0.577543 0)
(3.82038 0.142663 1.32572e-18)
(3.97056 0.0486285 2.30734e-19)
(2.52291 1.86727 0)
(-3.95148 2.52271 5.1462e-18)
(4.29233 -1.40508 6.98093e-19)
(-2.00887 -0.414891 0)
(4.69712 -0.229201 7.42521e-19)
(3.92886 0.104258 -1.53909e-18)
(0.570413 0.238883 -2.76128e-19)
(1.94148 -0.614919 0)
(4.02249 0.427516 1.33049e-18)
(5.32049 0.476206 0)
(5.21274 -0.635909 0)
(4.43111 0.455236 -6.63233e-20)
(3.86044 0.177328 7.1216e-19)
(1.1093 -0.577814 -5.10655e-18)
(4.60423 1.46049 1.33326e-19)
(2.62673 -0.614544 -1.14945e-18)
(4.14385 -0.126357 1.47873e-19)
(4.18311 0.434822 3.9363e-19)
(5.46621 -0.409876 7.29094e-19)
(4.48795 -1.37096 0)
(6.35907 -1.17181 1.95253e-18)
(2.6179 -0.0763345 0)
(3.02786 -0.420703 1.66923e-19)
(4.54506 -0.378995 0)
(2.84487 0.157176 1.70714e-18)
(-1.11439 -0.0703428 -6.16219e-18)
(5.58923 -0.711432 0)
(-0.360753 0.23141 1.05033e-19)
(5.83129 -0.646423 -2.01282e-18)
(3.46119 -0.569388 -1.21789e-19)
(3.48241 -0.493373 3.08367e-18)
(2.73993 1.71529 -1.4592e-18)
(2.60122 -0.608468 -3.26395e-18)
(6.73521 2.82939 0)
(3.39148 0.286298 7.88096e-20)
(-4.92987 4.25485 -1.29159e-17)
(4.03071 0.461419 0)
(3.67407 0.47548 8.80362e-20)
(5.64226 -0.0296803 -2.06882e-19)
(5.31404 2.4643 0)
(4.00444 0.0257899 0)
(-5.07122 2.5699 0)
(-4.15179 -0.37477 7.80395e-18)
(8.67399 -0.861741 4.37085e-18)
(7.45418 0.828064 1.63292e-19)
(4.5032 2.10374 0)
(3.3763 -0.308932 2.13493e-18)
(3.87701 0.0942796 2.74317e-21)
(4.59569 1.35349 -2.68587e-19)
(-3.27655 0.808878 3.10311e-18)
(3.81403 0.332738 0)
(3.99567 0.185599 0)
(1.42815 -0.171848 -1.81974e-18)
(2.80606 -0.829607 -7.95004e-19)
(3.85611 -0.334948 0)
(3.0144 -1.45026 -8.97354e-19)
(4.00588 0.0363603 -2.46941e-21)
(3.96 0.14709 -1.89507e-22)
(1.63771 -0.748558 0)
(3.92873 -0.136875 3.5155e-19)
(3.47838 0.289098 5.72536e-20)
(5.3148 0.423954 4.88621e-19)
(3.66797 -1.06238 0)
(1.13509 -0.655053 -9.81171e-18)
(5.10892 -0.223032 2.44266e-19)
(4.0089 0.186975 2.79275e-19)
(3.65064 0.0742759 2.54092e-20)
(5.1969 1.62836 0)
(3.31491 0.678181 -1.05976e-18)
(6.39581 1.30626 -9.51653e-19)
(3.27786 -0.918531 8.21467e-19)
(4.02758 0.11308 0)
(-2.15472 -0.730801 -1.09781e-19)
(0.910488 -0.103202 0)
(4.02505 0.106429 -1.07321e-18)
(3.98083 0.140892 4.72941e-19)
(3.71774 0.103504 -2.59277e-19)
(-4.6872 0.429836 0)
(5.05377 0.0326585 -6.44428e-20)
(2.13344 0.961745 3.52745e-18)
(4.42141 -1.35957 0)
(3.21556 0.196797 1.45718e-18)
(4.95825 -0.975206 2.99552e-21)
(4.50866 0.025083 0)
(-3.08603 -1.50652 8.80924e-19)
(3.6377 -1.01487 -3.44778e-19)
(4.32251 0.00998152 0)
(1.80204 0.33233 6.28801e-18)
(3.64529 0.450901 0)
(3.42098 -1.54426 9.4606e-19)
(-5.98804 2.47724 3.92655e-18)
(4.12833 0.191226 1.15869e-21)
(5.0067 0.406171 -1.96807e-19)
(2.66924 0.62661 6.80401e-19)
(3.47824 -0.552563 -1.14425e-18)
(3.98669 -0.788094 -2.227e-19)
(3.44603 -1.52881 1.11129e-20)
(4.31358 -0.446701 4.4095e-19)
(5.17272 1.62619 4.03036e-19)
(3.90504 -1.73806 0)
(3.99026 0.0446945 -1.06071e-18)
(-1.49319 -0.230444 -1.73706e-18)
(2.68125 -0.0888052 0)
(3.53898 0.48858 -1.39174e-20)
(3.35938 0.0313475 0)
(2.38342 -0.651169 2.8238e-18)
(4.05545 -1.48424 0)
(3.77419 0.0091984 -4.01549e-21)
(4.51262 -0.183366 -7.62216e-19)
(-2.81818 -2.08637 1.63022e-18)
(-5.42054 2.7197 5.54814e-18)
(4.97644 -0.0561253 -6.58225e-21)
(3.11178 -1.48519 7.31796e-19)
(3.47114 -0.970051 1.06022e-18)
(2.89709 -0.575713 0)
(-0.95075 0.940167 -2.81064e-18)
(4.53348 -1.22983 -1.51141e-19)
(-0.708121 0.940738 -3.31464e-18)
(3.96083 0.172875 6.62789e-22)
(2.80655 -1.07213 0)
(4.45654 0.0160912 -5.7085e-21)
(-3.9561 2.85105 0)
(-5.1552 1.37598 2.48226e-19)
(0.49397 0.0138498 3.32432e-19)
(-0.713996 0.502256 0)
(4.04595 -1.01823 2.96714e-19)
(4.40991 -5.54789 0)
(5.3919 2.22699 0)
(3.15764 -1.48342 -1.25049e-18)
(2.89749 0.711942 1.04419e-18)
(3.24548 -1.2724 0)
(3.57403 0.373249 -6.64278e-19)
(7.18733 0.934164 4.34116e-18)
(-5.87206 3.49234 9.11922e-18)
(5.21939 2.94568 0)
(4.29316 -0.0406197 0)
(-4.69482 4.40132 -5.71253e-18)
(3.72111 -0.19978 0)
(5.33977 0.0168083 0)
(-2.71043 5.34463 -9.40036e-20)
(4.04976 -0.725546 -1.45747e-18)
(3.40925 -0.799802 9.33915e-19)
(6.83258 -0.403936 2.66653e-19)
(-1.25174 1.39363 6.15195e-18)
(3.98135 0.12423 5.38687e-19)
(2.95747 -0.654332 0)
(4.32916 1.0228 -2.03091e-19)
(2.78296 -0.352643 0)
(5.02119 0.0556474 0)
(3.98866 0.23021 0)
(4.41476 0.417483 -5.41416e-20)
(3.70389 -0.0689842 9.30157e-19)
(4.60886 0.251167 -6.03577e-21)
(3.02758 -0.672308 0)
(1.05506 -0.551755 -3.79674e-18)
(3.98889 2.28619 3.62186e-19)
(3.62447 -1.28974 9.91645e-20)
(4.26743 -0.258176 -5.72832e-19)
(5.94007 -1.45471 3.52255e-18)
(4.12477 0.0794104 -8.78746e-19)
(-0.954034 -0.251925 0)
(5.07281 -0.226007 0)
(2.84971 1.73068 0)
(2.38727 -1.04219 -2.04647e-18)
(-0.223381 -4.16856 -1.72966e-18)
(0.237669 0.288394 0)
(4.38661 1.05103 0)
(5.18649 -0.405583 3.77084e-19)
(3.95671 -0.0299027 -2.34701e-19)
(3.76778 1.29039 1.16366e-18)
(3.8124 -1.61981 0)
(-3.19716 4.50539 -1.52849e-18)
(4.7264 0.179532 7.63479e-20)
(2.73962 -0.749599 -1.91796e-18)
(4.46095 0.158554 -2.89598e-19)
(4.57517 1.36787 4.68047e-19)
(8.07763 -3.1329 3.92106e-18)
(2.35192 -1.04968 3.55462e-18)
(4.23845 -2.49459 1.25529e-18)
(4.58716 0.526436 -1.18555e-22)
(3.99572 0.0262602 -2.6413e-19)
(2.78005 -1.28896 -2.77149e-19)
(3.66332 -0.951089 1.47334e-19)
(3.04861 4.14513 -1.35827e-19)
(3.00157 -1.4355 4.60684e-19)
(5.15419 -0.16568 0)
(3.18673 -0.48417 2.34877e-21)
(4.34369 -0.0354839 -9.57172e-19)
(5.83742 1.8136 4.4709e-19)
(2.68245 -0.67579 -1.74864e-18)
(3.587 -1.23451 -1.08712e-18)
(4.01795 -0.033764 2.1809e-18)
(5.13238 -0.134307 -1.23366e-18)
(2.8953 -0.403917 -2.02696e-19)
(6.18098 0.323031 -1.11131e-18)
(2.2339 -0.264261 -3.86253e-18)
(4.44548 0.00672738 -7.60994e-19)
(2.20322 -0.378324 0)
(-3.12941 -2.1867 -4.96835e-18)
(4.07727 0.0599784 2.1875e-18)
(3.34725 -0.00124878 -4.08906e-22)
(-1.83786 -0.879047 0)
(3.46721 -1.59928 0)
(4.03962 0.927895 1.01726e-18)
(1.96369 -0.243047 2.393e-18)
(4.026 -5.16883 -7.28634e-18)
(4.1582 -1.33138 -4.8189e-19)
(4.41168 -0.7094 1.16216e-18)
(6.49073 1.76907 0)
(4.06444 1.01228 5.52175e-19)
(1.13229 -1.19105 -1.63771e-20)
(4.85057 2.3158 1.82678e-19)
(3.90064 -0.493605 -1.32409e-18)
(-1.70481 1.70007 -9.98721e-18)
(5.79379 -1.44062 -3.34309e-18)
(6.52878 -1.26261 1.0836e-18)
(4.3858 2.54314 0)
(4.59932 -0.941199 -4.1199e-19)
(3.74832 0.0942682 2.37285e-19)
(3.88895 0.0661212 -1.778e-21)
(1.78765 -0.856075 3.24453e-18)
(3.86201 -0.496755 1.97451e-18)
(3.15441 -1.4704 5.60391e-19)
(-5.95921 3.27975 -5.33679e-18)
(5.00012 -0.433361 -8.9693e-19)
(4.40453 -0.00828844 6.78828e-19)
(-3.17451 5.21026 -9.65354e-19)
(4.68751 2.15571 1.04689e-19)
(2.16056 0.0421702 -6.80771e-18)
(2.2355 -1.0825 -1.07998e-18)
(3.91916 0.0510568 0)
(4.609 0.936424 3.62114e-20)
(-4.27502 4.70751 -4.34939e-18)
(2.57544 -0.241352 3.52132e-18)
(4.22149 0.154931 0)
(4.25101 -0.574284 3.20621e-19)
(2.26683 -0.904906 8.01842e-19)
(3.97643 0.0896905 -2.31462e-18)
(-5.3854 3.56921 -5.17762e-18)
(3.25793 -1.22441 -6.59265e-20)
(4.37833 -0.347052 7.49161e-19)
(4.59677 0.161502 3.84411e-19)
(3.47402 -1.5669 -1.30455e-18)
(4.66148 0.363739 4.04638e-21)
(0.0503139 -4.73785 -6.26232e-18)
(4.30198 -0.0245496 8.98262e-19)
(4.12621 -0.111108 -6.41474e-19)
(4.29045 0.229299 -2.60988e-20)
(4.57676 -0.0628461 -1.38707e-18)
(2.17482 -0.929987 -1.5512e-18)
(4.5863 0.478235 0)
(-4.68348 -0.779896 5.03719e-18)
(4.20184 0.0911669 1.6953e-19)
(1.67402 0.0156444 -3.67914e-19)
(5.04119 0.102249 -1.34417e-19)
(4.3135 -0.753779 -7.22568e-19)
(3.9992 0.0441603 -1.81977e-18)
(4.18882 0.714647 3.04128e-19)
(-3.96572 2.79945 -5.33785e-18)
(5.3946 0.0233208 0)
(3.18867 -0.395084 1.52007e-19)
(5.17453 -0.219147 2.16731e-19)
(2.83171 -1.04406 0)
(4.28237 0.183267 5.4112e-19)
(5.18083 -0.183771 2.29682e-19)
(5.3428 0.0508841 1.01038e-23)
(5.0152 -1.58323 1.56155e-19)
(3.86191 -0.326257 0)
(3.52524 0.754603 1.93009e-18)
(4.37294 0.514483 -1.08739e-18)
(2.9456 -1.41732 1.04299e-18)
(4.00463 -0.337898 0)
(2.88715 0.636226 -3.01907e-18)
(1.74942 -0.881948 -2.85571e-19)
(4.7768 3.07662 -7.06378e-19)
(2.25828 -0.307152 3.7249e-18)
(4.4051 0.014955 6.39888e-21)
(-5.64174 2.90121 4.52165e-18)
(3.83043 -0.176771 -1.42941e-18)
(6.36458 -0.899974 -2.6799e-18)
(3.52748 0.329485 -1.40047e-18)
(4.24376 0.0298987 0)
(3.99558 0.0538525 -9.98749e-19)
(0.112362 -0.287204 2.06735e-18)
(-0.905798 0.438189 0)
(7.06349 -2.38951 0)
(3.89119 0.0617768 0)
(2.99163 -0.684929 0)
(4.08599 0.699324 0)
(2.11093 -0.239491 0)
(4.44874 -1.54126 -3.55122e-20)
(7.84961 0.478409 -2.58946e-18)
(5.2772 0.894233 0)
(3.49259 0.718819 2.92583e-18)
(2.37414 -0.94554 3.4607e-19)
(4.1618 0.454581 2.47978e-20)
(-3.77907 4.96598 -1.9178e-18)
(2.12403 0.21367 -7.30977e-21)
(-4.64579 2.97125 4.50754e-18)
(3.99624 0.00145817 -5.13011e-19)
(5.68262 0.0107297 1.42369e-19)
(4.03911 0.659074 -6.95134e-19)
(3.72771 0.395895 -1.87553e-18)
(3.87769 2.13875 -8.37766e-19)
(6.53131 2.73714 0)
(-2.73615 -0.0484289 3.90342e-19)
(2.43238 -0.689784 -3.1034e-18)
(4.02002 0.0244065 -3.03608e-18)
(4.56027 -1.26876 -7.00174e-19)
(4.32018 -0.012618 2.20863e-19)
(5.36335 -1.20058 -3.1672e-19)
(4.19779 -0.576318 -1.64454e-19)
(4.07267 -0.998594 -1.02091e-18)
(4.056 0.383801 7.4218e-19)
(3.39604 2.40483 0)
(3.94156 -0.70272 -2.03184e-19)
(3.33279 0.176126 -4.25093e-19)
(4.88569 -0.540173 0)
(3.56535 -0.40378 0)
(3.63098 -1.64273 -1.4883e-20)
(-5.40977 2.51183 4.79135e-18)
(4.35936 -1.61121 -1.13865e-18)
(3.42259 -0.0593307 0)
(3.76765 -0.0906044 -1.89638e-18)
(3.57855 0.47486 -3.64937e-19)
(-4.68526 -1.206 2.63943e-18)
(5.26782 -0.110661 7.90592e-20)
(-5.02212 3.11703 0)
(-2.93683 0.0447183 5.38607e-19)
(5.24969 -0.146171 0)
(4.53895 -0.987864 4.36234e-19)
(4.92655 -0.498327 -3.34898e-19)
(4.00546 0.0409184 -1.07362e-21)
(4.73359 1.50842 -4.17507e-19)
(5.21983 2.74291 -1.18394e-19)
(3.37186 -0.916307 2.22096e-18)
(-1.11155 -1.39944 0)
(3.30163 -4.81361 -2.90918e-18)
(2.58812 -1.68191 0)
(5.41773 0.88925 -2.11189e-19)
(-4.91269 -0.424491 4.66427e-18)
(6.99291 -2.27403 2.98518e-18)
(3.24694 -0.382945 -1.4837e-19)
(-4.00392 2.14238 -1.15013e-17)
(2.62201 -1.28228 -1.20868e-18)
(2.52199 -0.70364 -1.77469e-18)
(3.47887 0.33132 1.98174e-20)
(3.76307 -4.30777 2.40672e-18)
(2.23119 -0.955939 1.27907e-18)
(2.63565 -0.762058 1.96681e-18)
(-0.0149264 -3.99374 2.16136e-18)
(4.87429 -4.62316 -1.69758e-18)
(3.58829 -1.09819 1.08893e-18)
(-2.7386 -0.105735 4.15916e-18)
(4.72099 0.0768549 6.5047e-22)
(2.4134 -1.05364 -2.85194e-19)
(4.6913 0.960191 -1.79922e-19)
(4.4328 -0.992264 0)
(2.7023 -0.686758 -8.10668e-18)
(4.18828 -0.0287661 -1.12045e-18)
(3.98935 0.262877 0)
(5.34911 0.799932 0)
(2.28388 -3.62636 -1.01008e-18)
(7.00166 -0.916906 -2.80845e-18)
(4.92856 0.531671 1.17591e-19)
(4.03803 -0.714774 1.90476e-18)
(3.85015 2.05371 7.57193e-19)
(3.102 -0.0139272 1.40538e-18)
(-5.54622 0.345175 -4.05243e-19)
(3.50975 1.35865 0)
(2.69202 -0.825109 1.89467e-18)
(-1.68009 4.54253 9.34408e-19)
(-4.50868 1.93321 8.77299e-18)
(3.34796 -1.24133 3.61666e-19)
(3.43923 -1.56217 -1.43329e-19)
(3.89657 -0.0206165 7.24554e-19)
(3.41532 -0.357518 8.38755e-20)
(5.29842 -0.963892 1.95186e-18)
(-5.32163 -0.142357 -3.77525e-18)
(4.87203 0.520947 -7.50141e-20)
(3.86988 0.122295 7.70561e-19)
(2.19553 -0.374705 -1.53732e-18)
(3.71619 -0.152441 1.17508e-18)
(2.45341 -0.371317 0)
(4.88583 0.929858 -5.59071e-21)
(3.93417 0.0962849 1.72638e-19)
(2.87733 -0.518156 -6.01525e-19)
(3.53365 3.71026 3.02302e-20)
(3.53155 -1.07128 8.14818e-19)
(4.17045 0.046918 3.28405e-19)
(2.69216 0.307269 -2.3305e-18)
(4.89634 -0.588558 0)
(3.22404 -0.328747 -2.74369e-19)
(4.50136 0.207462 3.95152e-19)
(4.38298 -0.275943 0)
(2.75174 0.0905627 1.3237e-18)
(5.27621 -0.0966249 0)
(3.44213 3.6461 7.15542e-19)
(4.94032 -0.0753101 0)
(3.95193 -0.77835 0)
(5.04754 -0.118119 1.77686e-19)
(4.86727 0.413545 7.12055e-21)
(6.16734 0.63056 -1.65326e-18)
(3.82205 0.309277 -8.58587e-19)
(3.06253 2.49132 -5.94543e-19)
(3.99229 0.213779 -3.41661e-19)
(4.15269 0.71515 0)
(-0.437994 1.91663 -3.98343e-19)
(5.11283 0.385972 2.9244e-19)
(4.46023 -0.9532 -8.89418e-19)
(4.43153 -0.99058 0)
(5.91957 1.77544 6.95325e-19)
(4.21028 3.39468 2.3394e-20)
(4.64997 0.0502504 1.14319e-20)
(3.44376 -1.11735 0)
(-1.69783 5.19846 5.97933e-18)
(4.0886 0.362568 0)
(5.34032 -0.819814 -9.58144e-19)
(0.102552 -0.499294 0)
(3.60918 0.79743 0)
(4.17778 -2.78836 0)
(3.96519 -1.47641 0)
(-2.81166 5.17919 -7.58409e-19)
(-4.0656 -0.812906 -1.6595e-18)
(3.67903 -0.0484832 -1.40211e-18)
(-3.4144 -1.6721 -2.2157e-18)
(2.39503 -1.00605 0)
(-2.73545 -2.84898 -2.04198e-18)
(-0.309742 -0.763749 -3.97397e-18)
(3.04155 -1.41263 0)
(2.851 -0.976312 -1.99284e-18)
(3.14125 0.661514 -2.96146e-20)
(4.65907 0.936296 4.26435e-19)
(4.81921 -1.57112 5.90421e-20)
(3.68888 0.37299 0)
(4.30921 -1.32212 0)
(7.01792 1.16348 8.06295e-19)
(3.65161 -0.860366 3.89059e-20)
(3.3618 0.234665 -6.79571e-20)
(2.14206 -3.35078 8.02021e-20)
(3.99286 0.00866642 7.38132e-20)
(4.58475 0.915378 -9.34539e-21)
(4.0423 0.38665 1.07104e-18)
(3.08416 -0.350549 1.47508e-19)
(3.69599 -0.975783 0)
(0.614538 0.002721 0)
(4.64133 0.309972 0)
(3.56344 0.0478417 0)
(3.40873 -0.593468 8.41147e-19)
(5.97893 0.0632062 0)
(-2.51941 5.43704 1.08034e-17)
(7.10316 -4.52833 -3.84498e-19)
(2.56903 -0.785686 -2.97538e-18)
(2.32669 -0.923293 -1.81951e-19)
(-4.48442 -1.32105 -2.82523e-18)
(-1.35014 5.26245 -4.77302e-18)
(4.05854 0.0772069 2.6065e-19)
(-5.4007 1.02609 -3.86839e-18)
(2.99429 -0.349415 2.41914e-19)
(5.07221 -0.0897824 0)
(4.59829 -0.640182 0)
(2.871 -0.766768 0)
(4.31148 -0.777292 3.79213e-19)
(5.07441 -5.2141 0)
(3.6109 1.32486 0)
(4.00915 0.0132917 0)
(3.46348 -0.819522 8.65596e-19)
(4.17684 0.439346 -1.01031e-18)
(3.3726 0.0533518 0)
(4.63085 -1.54977 -1.10357e-18)
(3.9409 0.398414 -1.02695e-18)
(4.89562 2.09174 -3.90648e-19)
(3.07243 -1.41798 1.16157e-18)
(3.74717 1.45065 7.56027e-22)
(3.60028 -1.16697 -2.7219e-20)
(3.5052 -0.446206 1.84469e-19)
(4.01197 -0.99365 -4.1989e-19)
(4.8224 0.415068 9.89729e-21)
(3.40836 0.246436 -1.33956e-19)
(3.59557 0.174665 -1.34551e-18)
(4.27297 -0.0264314 0)
(1.83657 0.122523 2.80641e-19)
(3.90181 0.122876 1.39451e-18)
(1.40177 -1.26477 -2.95623e-19)
(4.18946 -0.545069 -4.82806e-19)
(2.02814 -0.293571 -2.617e-18)
(4.85652 0.364771 -5.45759e-21)
(6.42554 1.28989 1.36003e-18)
(3.99809 0.183182 0)
(2.9953 -0.424102 -2.53537e-20)
(3.42478 -0.109127 -7.72135e-20)
(4.05471 -1.00015 8.37711e-19)
(-3.28922 0.578804 -3.45264e-18)
(4.02067 0.034508 7.16873e-19)
(4.64209 0.455893 3.38907e-23)
(4.34185 0.0302929 -3.85625e-21)
(4.57551 0.256786 0)
(2.02304 -0.632043 0)
(2.83023 -1.34696 1.42468e-18)
(-5.28779 3.26344 5.66823e-18)
(3.92916 0.03084 6.17275e-22)
(3.90799 0.125024 2.7982e-18)
(3.00316 -0.460373 8.91554e-20)
(2.82912 0.583796 0)
(3.54414 0.214112 0)
(3.10916 -0.657055 -1.53916e-20)
(4.87654 -0.0474572 2.82013e-19)
(3.85883 1.3973 1.56073e-18)
(4.84665 -0.330351 0)
(4.69145 0.0685856 0)
(4.0999 -1.11839 1.35825e-18)
(3.96333 -0.302621 1.07604e-18)
(0.136391 1.41561 -2.23199e-19)
(3.87976 -0.14362 0)
(2.27085 0.504194 7.29884e-19)
(5.20763 -1.90021 -5.03431e-19)
(-4.45311 4.11308 -4.94565e-18)
(3.98488 -0.0344445 -1.5035e-18)
(8.16207 0.340887 0)
(7.14718 -0.740523 2.25764e-18)
(4.98356 -1.845 -9.82711e-18)
(-0.0516195 1.04721 0)
(3.59305 0.0739113 -8.20269e-20)
(3.80764 0.238473 -9.14868e-19)
(3.84462 0.0260054 -3.58024e-23)
(5.00862 -0.525985 1.946e-19)
(2.3688 2.25539 1.2803e-18)
(4.13287 0.0472384 0)
(1.98562 -0.6789 -1.80442e-20)
(2.91879 -0.439544 -9.03167e-20)
(4.18928 2.1974 -7.93134e-18)
(4.0689 0.649294 8.27223e-19)
(-0.743484 -1.51426 2.75863e-19)
(4.09806 0.0378758 -3.33138e-18)
(2.99031 -1.56491 -3.12783e-19)
(3.38829 -0.441801 1.68746e-19)
(3.39352 -0.745744 0)
(3.54957 0.0116556 -3.75786e-19)
(2.1576 -0.976895 1.01826e-18)
(4.46538 -0.182789 -1.47867e-18)
(3.94639 0.0961616 -1.25535e-18)
(5.26793 -0.80276 8.65859e-19)
(3.26728 -0.300173 3.15658e-18)
(4.65363 0.0541281 1.28769e-21)
(3.51185 0.226713 7.94493e-19)
(3.50466 0.499214 -5.61439e-20)
(6.85606 -0.428542 -3.00593e-18)
(4.70755 2.30959 -1.53343e-19)
(4.12165 -5.17619 5.58641e-18)
(3.88768 -0.052134 0)
(3.01657 -0.701979 0)
(3.0071 -0.472524 0)
(2.5728 -0.720616 2.28472e-18)
(4.15252 0.0812498 -2.01686e-18)
(3.54907 0.504898 0)
(2.95684 -0.572021 -1.7832e-18)
(3.54232 0.427981 0)
(3.4336 -0.524212 -1.37746e-18)
(4.40094 -1.00632 -9.4e-19)
(3.64897 -0.916994 -1.1966e-18)
(4.2333 0.0430544 0)
(3.87445 0.101287 0)
(4.40018 -0.290819 5.07102e-19)
(5.20773 0.727095 1.94193e-20)
(5.6965 -0.145214 1.07536e-18)
(4.5526 3.5868 -1.21109e-20)
(4.85816 -0.425954 0)
(3.36854 -1.19954 -6.13097e-19)
(-0.711579 0.750404 0)
(1.74154 1.9404 -1.25254e-18)
(5.26038 2.74479 0)
(4.62027 0.425542 1.15518e-21)
(2.247 -0.22902 1.01225e-18)
(2.98843 -0.204626 1.00731e-18)
(3.73622 -0.16186 -5.14073e-19)
(6.13078 -4.28614 -1.24489e-17)
(3.88737 -0.351261 2.7252e-18)
(4.10381 0.683838 -2.18974e-20)
(5.10721 -1.13101 3.71303e-19)
(3.90511 -0.813919 -5.86134e-19)
(-0.343176 0.8497 1.70013e-18)
(5.285 1.15056 0)
(3.95896 0.0934459 2.87421e-21)
(2.99773 -0.66471 0)