/*--------------------------------*- C++ -*----------------------------------*\
| =========                 |                                                 |
| \\      /  F ield         | OpenFOAM: The Open Source CFD Toolbox           |
|  \\    /   O peration     | Version:  2306                                  |
|   \\  /    A nd           | Website:  www.openfoam.com                      |
|    \\/     M anipulation  |                                                 |
\*---------------------------------------------------------------------------*/
FoamFile
{
    version     2.0;
    format      ascii;
    arch        "LSB;label=32;scalar=64";
    class       volScalarField;
    location    "3.25";
    object      p;
}
// * * * * * * * * * * * * * * * * * * * * * * * * * * * * * * * * * * * * * //

dimensions      [0 2 -2 0 0 0 0];

internalField   nonuniform List<scalar> 
13486
(
2.33832
1.85884
0.165001
-0.328524
0.756868
-0.177304
0.336421
1.30683
1.58663
0.769112
-3.24707
0.402957
2.46278
-0.336706
0.59988
0.864782
-7.8827
-0.107869
0.5396
2.10708
-0.272446
2.43341
1.8205
-0.892896
0.738059
-0.841113
-3.55608
-0.582144
0.00765943
-0.455353
-0.195721
0.43407
-1.16683
-0.328837
1.31061
0.0237015
0.0523643
1.90218
0.0121101
1.58907
0.179565
2.55681
0.0407078
0.745229
0.706883
0.384978
-11.4044
0.0118762
0.0535437
-0.670205
1.35284
-0.0147739
0.230453
1.93614
-0.142814
0.819232
0.0800858
-0.0157402
-1.12401
0.0698455
-2.00588
0.065601
-3.36439
-0.256293
-0.443223
0.0550196
-0.352245
2.34205
1.57632
0.0269982
-0.352736
-0.142632
1.60018
-5.51879
0.0614352
0.0852627
0.0620736
0.585255
-12.1546
-0.0726439
0.00640772
1.8789
-3.74406
0.192916
2.34784
0.802153
0.0515048
1.28086
1.53582
0.848445
0.260377
1.13662
2.24188
2.00181
1.64301
0.0039769
-3.23475
-0.356667
1.56381
-8.42846
0.0219705
-0.24576
-0.358495
-0.0111881
1.01574
-8.77937
1.55944
0.0127637
-12.1771
1.01735
1.5144
0.360493
1.93517
0.0688711
2.7549
1.58634
0.737294
-0.308602
1.61287
0.0456273
-0.138042
-1.98973
1.71841
0.00773839
1.51195
-0.00447207
1.12899
0.36744
-0.266683
-0.3913
-0.00557936
-10.8948
-4.20963
-5.32958
1.41846
1.22993
2.78172
1.0603
0.0429169
1.35083
-1.00468
0.20951
0.422267
-0.0723721
0.0703603
-2.5278
0.128032
1.70893
-0.729349
0.00336315
0.888358
0.555616
0.00782965
1.91791
0.418605
0.164466
0.832484
0.0386361
1.72567
0.121564
-0.524697
1.72651
0.174001
2.54948
-0.0166062
-0.595942
-0.0879704
3.19179
0.134043
-5.33129
-3.9375
0.43497
1.06291
0.843879
0.00691262
-0.49665
-0.596818
-1.2235
1.56411
0.438038
1.49034
0.0713663
0.675115
-0.407411
0.209144
-0.594662
0.000905044
-0.435687
0.250086
1.66857
0.0488289
0.120081
-0.0300667
1.99675
-0.0485742
-3.32878
-0.402577
-0.551333
2.09662
-0.503972
-0.204872
0.346406
1.90609
0.595728
0.114539
-0.0549737
-0.0545063
1.7138
-0.0235742
0.207613
-0.499396
-0.600457
2.07901
1.55849
-0.178604
-0.213804
-0.485146
0.876462
2.12416
-2.10641
-8.2395
-0.758915
1.38634
-0.555063
0.0486358
2.27622
-0.472183
-0.327616
-0.162042
0.065872
1.47264
-0.196264
-1.04392
2.60811
-0.330666
2.1852
-0.363729
0.123206
2.20819
0.70743
-1.12633
1.04066
0.076868
2.07906
0.0381846
1.78564
0.739428
-0.63241
-5.80889
0.849314
-0.374561
2.78753
1.53246
0.00631385
-0.107396
-0.55658
0.413609
-0.208336
0.0707589
-1.04711
1.70038
0.0426046
0.588425
-0.529956
0.843389
-0.424247
-0.166313
-0.229003
1.50802
-0.570583
1.52462
1.52197
-0.505661
0.28817
2.27993
-0.606993
-0.107479
-0.20357
-0.00519145
0.117212
-0.21094
1.31208
1.57213
-1.4339
-1.60839
-6.98504
-1.04373
-0.285814
0.0736326
1.52306
-0.325383
0.0771744
1.64267
1.43674
-0.346894
-0.395048
-0.528071
0.283622
1.60817
0.281512
0.149835
-0.0700181
0.130501
0.466312
0.0430939
0.623861
-0.228656
0.754859
0.056404
0.0511926
-5.00268
-0.32126
-0.319362
0.360519
-2.43362
1.25786
0.0799954
1.53825
1.72006
-0.199533
0.0556246
0.065557
1.55012
2.01251
2.7406
0.295672
0.999203
1.28438
0.232453
0.924091
1.28861
1.08536
0.206491
2.14503
0.324624
1.55098
2.85024
0.59348
0.947088
0.0497545
-0.182084
1.991
0.889429
0.694201
-0.453078
0.00302996
1.05918
2.74865
-2.10222
0.0763318
1.02334
0.23815
0.27947
-2.55147
1.59654
0.024838
-5.39422
1.10422
0.0625853
-0.588326
0.566672
0.195372
1.73319
1.52773
-0.476574
0.00300036
-0.376797
-9.26956
2.12781
1.11746
0.0360036
1.078
0.0439243
-0.374938
-0.167965
1.38578
1.57701
0.0646285
-2.32675
-3.36912
1.48666
1.05165
2.46883
1.62043
-9.96499
-0.121012
0.12364
0.92021
-6.44595
-0.143815
2.04498
-0.555213
0.646847
2.22931
2.29374
0.0443127
-0.339694
-0.364148
-7.02143
-1.05924
-6.61123
0.308972
1.40575
-0.305297
0.374908
-0.199862
1.9713
-1.15897
1.13447
1.74879
0.903168
-1.30008
-0.62815
1.61049
1.57117
1.92221
-0.359987
0.867517
-3.95517
0.73173
1.56474
0.222253
2.75861
0.991593
-0.511536
-0.408822
0.328032
1.57202
-3.90145
0.014137
2.41312
1.40946
0.631232
0.064472
0.693371
-0.723617
2.45672
0.0735683
0.887457
2.30288
-9.67144
-0.517689
-5.49683
-0.63228
0.105626
1.85997
1.80521
2.42757
-3.39675
0.0474196
-0.496062
0.965889
1.56691
-0.648174
-1.44543
1.54523
-0.343455
-0.506258
-1.41369
-2.36424
-0.190853
1.96761
0.00763137
0.0460243
-0.299021
1.47863
0.0110706
3.02249
2.26647
1.59955
1.2536
0.0256254
0.00573579
2.83287
-0.123305
0.0455682
-0.49502
1.56518
-7.56472
0.262891
1.08351
0.0319357
-0.731623
1.79838
-1.73939
-7.42058
1.01236
-0.155356
3.18008
1.03315
1.36286
1.70166
-0.505661
0.213649
2.54443
0.756416
2.02602
0.334172
0.425293
-0.243879
-0.0630782
0.0446487
-9.28491
1.5989
1.55132
-0.382677
0.000732561
-0.217666
2.31777
1.86528
-0.12007
1.58122
1.15573
-0.711138
0.843584
1.38629
-3.85217
2.42815
0.0508682
0.0324567
2.5381
1.0627
0.0141798
1.04098
-0.263307
-0.356471
0.635148
0.969918
1.74401
2.24727
-0.873874
0.687542
-0.936004
0.00449779
2.18207
0.41641
-0.374588
-0.361175
0.201799
0.0660604
1.26391
-0.422749
-1.36954
1.58587
2.12213
-0.0906637
1.69784
-2.76093
-0.389822
-1.91415
0.641788
-0.61786
1.72822
0.217996
-1.7372
1.33723
1.84503
-1.02168
-0.764917
1.36985
2.19024
0.457527
2.35839
0.211449
1.03882
0.352226
1.74026
0.0592875
2.13104
-2.86873
0.286589
1.50663
-0.242965
-0.571184
1.52693
-9.11992
0.295052
1.76632
2.42771
-0.285905
0.060203
0.396336
0.0997088
1.41743
1.07111
0.490901
-2.35002
0.049117
2.32111
0.261862
0.0738045
-0.767463
2.44375
-0.278659
0.0702961
1.50958
1.23436
-0.0628323
-0.472295
1.32802
0.217581
0.0420355
0.596877
-1.55824
2.36975
1.55029
1.09446
1.12348
-1.14662
-1.07136
2.66431
0.458035
2.67059
-0.31299
1.52848
0.0195937
-5.55531
0.92954
0.847152
2.79662
-0.53467
1.00803
0.962419
-2.2419
0.805508
-0.0714881
-0.737292
1.53372
-0.700616
-0.551157
-0.730398
-0.358615
-0.257172
1.69028
0.00854235
2.58969
1.56945
0.106297
-0.374607
-0.489411
0.500084
-1.80185
-0.452484
-8.83526
2.16764
0.000800428
0.0813155
-0.784221
2.47608
0.00129037
0.118414
2.53511
1.37012
-0.344316
-0.0768922
1.11012
0.153093
1.49423
0.0720031
-0.32769
0.591947
1.43692
0.460401
1.2891
2.57214
0.0707866
-0.416247
1.52259
0.237109
-0.206307
1.0686
1.14818
0.663858
-0.35737
0.215469
0.0603487
0.222602
2.17889
0.472449
0.218827
0.200847
0.0901512
-0.0722208
1.55762
0.106873
1.4608
1.48899
2.15201
-0.172904
-1.38517
2.65005
0.03361
-0.349077
1.64637
-0.763375
1.76045
0.0618494
1.51017
-0.302553
-5.62554
-0.719153
0.00509782
-7.70332
0.814129
2.72808
-0.246849
-2.06264
-0.540655
1.59607
-0.483314
0.677375
-0.986517
2.69861
-0.346168
0.818387
-0.698644
0.88439
1.55223
0.518041
-3.16559
-0.228269
2.50905
1.58412
0.654558
1.419
0.0781938
1.22991
1.24334
0.901945
-5.07918
-0.105071
1.9533
0.340941
-0.0122176
1.29381
-0.35692
-0.236675
0.0167497
1.69389
1.65382
-0.371737
0.22511
-0.334397
-0.246943
0.224408
-0.246282
0.205027
1.50037
-0.144629
-1.63264
1.82633
-0.0711473
-0.331326
-0.192616
-0.665403
-0.368628
-0.656949
0.0499459
-0.629356
1.48387
2.45917
0.0453741
-0.330158
2.54179
2.38349
-0.274437
-0.415083
1.61286
-9.14289
0.0761077
-0.39494
0.0376991
0.859075
-7.4362
0.731497
1.0415
-0.58952
-0.235982
-1.02731
-0.166507
1.34856
0.616114
0.99764
-0.390343
1.30261
2.33412
-8.84215
-0.588277
1.75064
0.524967
1.01604
0.0201782
-0.442176
-0.396641
-0.127331
1.59434
2.67736
1.72163
-1.44196
-0.161526
1.55535
2.27156
-0.479534
1.66949
1.54712
2.37025
0.369638
0.0493156
0.235729
-0.19706
2.36307
0.227752
-0.211439
1.07168
-0.105259
0.403776
-0.0971678
-1.26081
1.47486
1.10891
1.06933
0.723608
-7.20669
-0.306782
-0.227418
0.866319
-1.64447
-0.948045
0.0642191
-0.864376
-1.7257
0.809987
-0.449679
-5.78419
-4.80575
-0.283633
1.14774
-3.97487
-0.489656
1.75752
-0.27796
2.4372
-0.326418
-5.8441
1.84577
2.19703
0.0672571
0.0718136
0.334318
1.59593
0.872687
-2.35602
-0.0492898
0.0489405
-0.226972
1.51424
0.0747623
0.901242
0.0639847
1.5691
-4.17187
0.0667731
0.0242277
1.90308
-0.831205
-2.72443
-0.734852
2.41424
-0.484383
-0.424184
-4.12789
1.55263
-0.423906
0.0698236
0.383594
0.735072
-0.589337
1.07113
-0.437909
1.23878
1.53369
1.81069
0.69527
0.0355457
-0.276453
1.16773
-0.645763
1.87344
1.02062
-0.0813324
0.00609848
-0.131892
-0.0643489
0.0428785
1.7682
0.622702
0.242913
1.54193
-0.108951
1.24826
2.76556
-0.0928905
-1.8222
1.0611
-0.0279501
0.0192347
-0.145562
-0.294348
1.55409
0.0737398
0.036172
0.0555977
-0.24289
1.99605
-0.337968
0.00405821
1.55279
-0.0705134
2.21233
1.78767
2.08659
0.420352
0.930675
0.465706
0.129071
1.15974
1.53693
-0.267232
-0.250712
-5.40086
-0.391834
-0.715236
1.56114
-2.01278
-1.08899
-0.854172
-0.257965
0.0310341
1.56089
0.0248487
0.244406
-5.30637
1.57188
2.72579
-0.122682
-2.05236
0.856458
-0.0592915
1.52802
0.111547
0.0339119
1.88073
-0.0288539
2.58045
1.07827
1.54626
-0.438319
2.02933
0.0759477
1.79824
0.0511181
-1.05805
-0.598953
-0.572474
1.03557
-0.132421
-0.125597
2.4295
1.5728
1.67456
2.21209
1.71012
1.89819
-0.220719
1.6275
1.58387
1.6022
-0.205411
-0.458716
-0.674613
-1.62137
0.372101
1.74942
-5.74286
2.37386
-1.62322
0.072554
2.6562
2.23428
-0.244554
-0.633534
1.57789
0.788786
0.0532576
1.46675
-5.91609
-0.620485
1.53978
2.16149
0.0284302
1.72103
2.00892
0.00236272
-0.513504
2.01767
0.690937
0.0480108
-1.60363
0.191695
-1.19889
1.44231
1.0512
0.0655056
-0.130789
-0.498168
0.382003
0.0159935
0.394945
2.28222
-0.00342603
2.96106
1.56928
0.524573
1.75921
-0.356345
-4.74132
-0.410814
1.5496
0.0236781
-4.97792
-0.195048
0.76483
0.886316
0.0522072
1.09784
-7.59588
0.799234
-0.785907
0.0664449
1.25914
0.473889
2.02738
1.58911
1.62937
1.50851
-0.244903
-0.940623
-0.837483
0.203323
-0.309751
-0.316337
1.23544
-0.248939
0.0272698
0.0747542
0.098342
-1.01242
1.1062
0.696268
0.142486
-0.519329
0.751239
-0.745232
-0.76744
0.229701
-0.0884476
1.71815
1.15279
1.999
-5.48495
1.40464
0.0611489
2.18228
-0.294493
0.810189
-0.337444
-0.201901
2.5343
2.6204
1.30469
0.837494
1.05006
1.43025
2.56275
1.06139
-1.04598
-0.869255
0.325746
-1.61157
-7.58276
1.56268
1.53024
-0.524642
0.39096
1.29686
1.42941
2.79104
-2.24187
1.21746
-7.31272
-0.328049
2.2375
-0.129991
1.29796
-0.236882
0.493525
0.61643
2.91316
0.106368
-0.670977
0.779041
0.247951
-0.543751
-5.75796
-0.137434
1.72697
0.128212
0.846106
2.38115
2.18991
-0.0655814
-2.97484
0.106741
0.246356
1.82545
1.50066
2.16806
0.955173
-3.91355
2.27465
1.41286
-2.13471
1.19415
1.5888
1.9622
-1.9545
-0.262465
0.00160977
1.32326
2.49869
0.819763
0.0472194
-1.17493
2.80418
-7.35525
-1.00688
2.60759
1.36503
-1.14656
1.24689
-0.342448
0.85718
-0.332714
-6.93637
0.0472927
-0.430255
0.0810035
-0.266973
-9.19614
-7.64928
-4.66775
0.145241
-6.77095
-0.368089
1.24373
1.43051
0.80068
-8.3072
0.391756
0.210053
-0.252231
2.94618
1.02253
-0.762613
1.36873
-0.336319
-0.44736
1.27241
1.25969
1.52316
2.9851
0.00327129
-0.126335
-0.885713
0.212268
1.05611
1.52007
-0.597253
2.29879
1.04054
1.65105
-0.24462
-0.0516009
0.0838451
1.61298
1.56134
1.66619
1.55088
2.73463
2.67674
-0.349482
1.37421
1.9881
-0.739725
2.15851
0.0136478
2.64515
2.13755
0.0812306
1.7643
0.7488
1.18424
0.109395
1.56998
-0.922529
1.36503
0.562048
1.03968
-0.164245
1.53104
0.02375
0.360821
2.55483
2.54807
1.03666
-5.50659
0.412244
0.0626323
-0.114423
1.24191
2.28444
-5.63859
1.60416
1.49256
0.761154
1.60437
-0.563891
-0.240443
0.067333
2.78332
0.450609
0.117092
1.78611
-0.158856
0.0898823
0.784719
0.318988
1.17904
0.60047
-0.448912
0.932728
1.24567
1.01994
1.15971
2.70038
2.21064
1.93572
1.88257
2.49865
0.741588
0.0076085
-0.0939513
-1.89337
2.52521
-0.250768
1.55989
1.39928
-0.368322
0.810379
1.72651
-0.618411
0.777211
0.947388
3.02233
-2.29359
0.682631
-0.821401
1.77699
0.165334
-0.326527
2.48271
2.11397
1.50754
1.54697
-0.373871
0.715562
-9.81581
2.67105
0.0498141
2.89167
-0.16545
-0.00903922
-5.68834
0.814988
-5.49778
0.183122
-0.0114991
0.56149
0.0312241
0.529583
-0.346802
0.00294344
-0.266628
-5.38603
-0.601802
-2.54326
0.0630968
-0.0628907
-0.294399
-1.65223
1.58823
1.61964
1.96486
1.53425
0.624739
0.603137
3.19611
1.52202
-4.66307
0.0108421
-0.149325
1.18615
1.37833
2.30322
-1.07515
-1.04655
1.2581
0.00470929
0.429129
1.94399
-5.58528
-0.424158
-10.0489
2.70199
-0.354452
1.09248
1.99188
-0.22751
1.23245
0.0215743
-2.0385
-1.41246
0.108591
1.0339
1.85176
1.95462
-2.41137
-5.40072
1.01214
-12.1237
-0.453052
-0.249516
0.244333
-0.31935
0.0563568
-0.361052
-2.0149
-0.90462
2.39278
-0.282447
2.61616
-0.654605
-0.172122
0.585466
-0.822005
2.20838
1.52063
1.82303
0.0151815
-0.335884
-2.38223
2.12191
-5.37851
1.13413
0.0557908
1.86521
2.20535
0.0470677
1.5485
2.50942
1.71117
1.68091
-3.40655
-0.128107
0.64579
-0.723577
-0.00386748
0.935815
1.0954
0.173424
-3.43121
0.394583
0.0998474
1.34931
1.14354
-0.522136
2.63623
0.206852
0.000997864
0.244137
1.52337
-0.404856
0.0141637
1.69246
-0.853069
0.152278
-0.275385
1.64077
1.52899
1.45616
0.0588809
1.45743
1.79453
1.75627
-0.336617
0.0751101
0.330995
1.34698
-1.13192
-4.44785
-0.411534
-1.96721
-0.339834
0.0254862
-0.00500761
0.0700236
-5.95413
-0.768763
-1.16742
0.103099
-0.339033
0.576059
-0.625862
1.65293
3.21316
0.5132
-0.264184
0.688608
0.166553
0.405288
0.0264253
-0.425259
-0.792965
0.220228
2.05503
0.00404228
2.46473
0.025851
1.45382
1.27177
0.682096
-6.11914
0.88388
2.72719
-0.298242
1.55061
1.49915
2.29361
0.223537
2.10548
1.6659
-5.70747
1.77374
-2.57282
-8.95835
2.14935
1.36769
-2.31358
-0.0617175
2.01655
0.14218
-0.533702
0.0633985
0.0612919
1.18346
0.837568
1.55062
1.45196
1.33529
-3.21185
-0.608281
-0.313597
1.51228
2.88656
-0.469987
-8.26947
-5.69964
1.55199
0.20504
0.208728
0.662749
-0.0112502
1.20698
-0.233576
0.354542
2.42353
0.707654
-0.180367
-0.209483
-0.364433
-0.692583
-7.76631
-0.911
-0.452391
1.84345
0.834195
-0.644761
2.50584
0.0112844
-1.69601
-0.276094
-8.72471
1.68364
-5.04031
0.516978
1.55277
0.0828109
-0.349009
-0.202234
-4.81102
-0.296304
1.68767
-1.15729
0.0267929
-9.68131
1.49683
1.67066
-0.358521
1.97257
1.82422
2.37116
2.43516
1.73171
0.290536
2.78701
-10.6673
1.51079
0.288198
-1.16788
1.88431
-0.387563
2.3782
0.729154
-1.59829
-5.99723
-9.04059
1.65905
-0.416756
-0.353373
0.152503
-1.41346
-0.16001
0.963118
0.294351
1.13093
2.69926
-5.57304
-0.842047
-0.944685
1.61196
1.15681
-0.581226
3.17367
0.0159247
0.0983807
0.966616
-1.59974
1.48844
1.60242
1.7906
1.8003
-0.194347
0.836796
1.49318
0.361053
-0.28388
0.0214187
1.682
1.7473
2.14472
-0.266881
0.165625
0.781136
0.94405
0.146207
-1.08395
1.2823
-0.265286
1.35302
1.60077
-7.70249
2.45802
-0.575838
2.67426
1.77193
-0.941462
0.00587603
0.0575454
0.545994
1.63243
-0.729737
2.11431
1.46811
0.787072
0.0553094
0.344144
-0.4225
0.785549
-8.89918
0.952567
-0.281667
1.51273
-4.165
0.0023672
-0.29647
1.92001
2.22423
0.709748
-4.43027
0.75574
-0.0703387
0.202114
0.872526
-0.241627
-0.232394
2.61628
-0.838422
-0.199746
-0.874904
-7.27828
-0.072286
1.59569
-8.44593
-0.259398
1.62619
0.995929
1.67352
-0.342575
0.708226
2.64567
-3.09694
1.48949
0.471105
-0.18496
0.540691
0.384803
-1.17454
2.70224
1.78109
-0.150482
2.6169
2.02516
1.89963
-12.3869
-4.46441
0.981649
-1.80719
-0.0570898
-2.46021
-1.63375
-2.34901
1.2298
0.597417
0.932722
1.03829
-0.214187
1.16238
1.51296
-5.87072
1.62105
0.967455
1.54874
-0.0694193
0.0320816
-0.358282
-8.21591
-0.351928
-0.307836
1.49442
-1.20896
2.38222
-0.35458
1.49654
0.947612
0.0741064
0.256095
1.60245
0.694653
0.365124
1.39986
0.0612891
-0.0936393
2.25169
1.82528
-0.600281
-1.81189
0.0295901
1.36337
0.019367
0.682985
-2.25383
0.0575528
-0.0892434
0.112769
1.35771
1.29668
-0.061827
0.685413
-0.0299027
0.0269734
-0.966812
1.9153
-0.370218
1.52173
0.00818387
1.3351
1.65461
0.884493
1.44518
0.0663314
-0.345806
0.0791213
-4.16585
-0.395939
-0.564994
-1.10784
-0.120912
1.23186
-0.0406884
1.518
-0.0882225
-0.0259558
-2.43354
0.0180959
1.62274
-1.57148
1.517
0.413966
-0.779561
-0.129705
-0.364297
1.11751
1.63541
0.0269494
0.312242
-4.86929
1.82095
0.114545
0.458683
-0.432988
1.95426
0.765504
0.0314702
1.66042
1.61239
1.88716
0.226414
1.90149
-3.25702
0.1075
-0.210844
1.49637
0.993021
0.430929
0.156244
-1.05549
-0.57428
0.849901
0.152124
-0.670415
2.44091
-3.70988
1.85512
1.12334
-0.356895
-0.00356973
0.133404
-0.0386869
0.193312
0.260599
1.44888
0.0771403
1.55061
-2.53062
0.618464
-0.218147
0.376656
-1.0913
1.93226
2.65465
1.69756
0.864073
0.306999
0.988528
-4.14455
0.0133833
0.0776804
-0.108393
-0.631953
-1.05356
-1.05087
-0.619224
1.3831
1.52539
-3.13175
0.427352
1.75507
-0.642781
-2.00452
1.66575
0.00283848
-2.14953
0.0490472
-0.241669
0.00592537
2.48429
0.0812663
1.49046
-1.52702
-0.902571
-0.621443
1.51804
0.398766
1.28219
-1.3499
-0.810051
0.1398
0.283473
1.79009
1.37047
0.285077
-0.193067
-0.347754
2.76137
-0.256456
1.76616
1.93008
-0.174834
-0.0199169
0.716041
-5.61077
-0.858682
1.34665
0.878988
1.50445
-0.429183
1.69179
0.201776
2.21799
0.29201
1.3647
1.96168
1.28645
0.262099
-0.349325
0.511455
-8.12331
1.33153
0.700006
1.87966
0.160203
2.36332
0.294015
2.51702
-1.19411
1.95651
-0.20778
1.17134
-2.82041
1.48095
0.74927
0.627465
2.33341
1.5335
0.363521
-0.612032
0.894231
1.46753
0.0197141
-7.11052
1.13868
0.123564
2.01948
-0.362449
2.40685
0.395893
3.23312
2.42712
1.1319
0.996588
-2.76502
0.119126
2.58445
0.143956
-0.0366162
-0.0808657
2.57819
0.745786
1.33262
2.19238
-0.926019
1.68582
-0.252718
1.84988
0.087165
1.74582
1.58305
2.14485
-0.00497557
-11.5684
0.475725
-0.362733
0.72261
0.231713
0.115921
1.97627
2.2649
0.034226
0.510289
-0.234684
2.0238
1.28483
1.42826
0.96156
-0.202956
-4.15155
-0.287036
1.58564
-2.53013
-0.11041
0.0318276
1.09797
0.746327
-0.636642
2.73219
-0.156173
2.38219
0.445795
2.43247
-0.411133
0.346963
0.0756284
0.08073
1.32461
1.52542
-0.570489
-0.117944
-0.992052
-0.108824
2.24661
-0.522057
0.0510939
-0.1996
-0.140087
0.511916
1.89764
0.734892
0.106034
0.0494451
1.5376
2.89618
-0.359492
0.130865
1.51183
0.0140032
0.795781
0.0580138
1.09921
-0.12585
-6.14566
-0.495586
-0.261471
-0.137933
0.0996549
-2.12908
-0.540198
-0.0490458
1.20505
1.65934
1.34717
2.81008
-2.35162
2.55593
-4.44022
2.3972
-0.749639
-1.0079
2.71453
0.631748
-0.346673
1.56947
0.000466434
1.6943
-0.314109
-9.15881
0.298766
-0.573269
-0.647009
0.00669696
-0.11919
0.61781
1.92608
-0.917218
0.689677
-2.46029
0.363883
-0.173864
0.0235777
0.195727
-0.188871
-1.93641
2.02423
0.0391674
2.23249
0.601027
-1.80285
0.506682
-1.38886
0.0738253
1.33098
1.94592
2.82771
1.16753
1.29448
0.729576
-5.60348
2.72455
2.91114
1.6887
-0.906214
-0.422972
-8.11259
1.4397
1.01543
0.566288
1.22616
-0.21266
0.031275
-5.31689
2.32254
-0.0922668
0.197168
-0.335272
1.49335
0.288427
3.13108
2.92537
1.38428
0.0537472
0.418799
-3.68168
0.566211
3.00457
0.176776
0.069372
1.14152
0.0151655
0.316421
-0.160983
-0.320082
0.355877
0.0657061
0.720241
0.0488633
0.488602
2.17051
0.461719
1.65067
-0.345746
-0.388674
2.62381
-1.66369
0.283857
0.391795
0.66268
0.181835
-0.368614
0.302613
0.108132
0.125375
3.16348
-6.10177
-2.83216
-0.727337
-1.12897
0.147039
0.387725
-0.353357
-2.15042
0.0332564
-3.3107
-1.28282
-0.721892
0.179593
0.15307
0.166377
3.08387
0.14618
0.472916
-0.141711
0.328245
-5.53764
-0.318657
2.12244
1.53653
0.486478
-0.160032
1.48863
1.65476
0.0333689
-0.918365
0.0784296
2.11343
-0.658988
1.44329
0.083345
2.38513
0.140981
-0.360766
-0.325089
1.68939
-0.526231
1.3728
-0.952734
2.96436
-0.353973
-0.294188
-3.93672
0.664326
-0.365137
-0.994973
-0.352441
0.252988
0.68223
-0.462606
-0.235667
-0.0497991
0.225507
-0.551278
-1.29429
1.25568
-9.63171
1.35009
-0.354792
1.70942
2.70878
1.45168
-5.77193
1.56626
0.231349
0.2903
-0.0685972
-0.447498
-7.61963
0.123048
-0.342703
0.664221
0.0057622
-1.21681
-0.0926579
-2.56747
0.779469
1.56761
-1.7875
-0.363943
-0.521901
0.0471277
-0.156927
0.92484
-3.48463
-0.366012
1.55569
-0.114941
0.874388
-1.01953
-3.07885
-0.72212
-2.28525
3.11066
0.485469
-0.746214
0.373852
2.54482
2.63005
-0.378577
-0.264568
1.53297
0.0290517
0.118742
2.61787
0.876112
1.36373
3.16048
-0.497266
0.44902
0.246487
2.33169
1.60331
1.60404
1.93099
1.09926
0.0566322
0.103407
0.722966
0.378579
-7.18976
2.68068
-0.865866
-0.939386
0.0473167
-0.545443
0.771157
-0.33339
-0.286993
0.351149
1.62252
1.67083
1.77714
-4.45698
2.29068
2.60862
-2.69939
0.983696
-0.0848558
-0.0984247
0.292307
0.900233
-0.10258
-0.655255
-1.02769
2.90063
-2.93272
1.79693
1.56395
2.05166
1.16851
1.23564
-0.14115
0.0508807
0.902686
-0.0100628
-8.37836
-2.22725
0.15254
-0.343613
1.9155
-0.44779
0.0541728
0.308251
-5.38532
-0.355405
-9.1239
1.39743
-0.256772
0.0770688
0.738215
-0.867796
0.551545
-3.27157
-0.0772458
1.67366
-1.78956
2.67013
0.0416376
2.85339
0.0072425
0.0772876
0.257882
1.35669
1.33168
-3.30251
-0.0935018
-0.350688
0.252112
1.09871
3.17373
2.05836
0.525771
-0.629988
0.826747
-0.163967
1.77891
-0.176245
0.908878
-0.28816
-0.340613
-5.14486
0.554809
0.0509197
-5.30265
1.02007
0.993961
2.57731
2.77397
-7.77472
-7.2369
-0.58823
-1.43915
2.68906
0.114901
-0.719074
0.685851
1.12351
-0.269163
0.120527
0.111111
0.00182031
1.41949
-0.233229
0.455601
-0.232365
-1.02339
-2.85679
-0.426491
-2.88526
-2.54005
1.72155
-0.399926
-0.346183
-0.269655
-0.0565272
2.94568
1.14412
1.45082
-0.294184
0.803231
-0.0277822
0.644044
0.475844
-0.355603
-5.07754
2.68075
1.64788
-0.00750938
-5.9489
3.05909
-0.362121
-3.99765
-0.279294
0.795726
-0.366405
-0.264817
2.32073
-0.0978851
1.43642
0.629099
-0.330289
0.142781
0.0978522
0.756532
-3.11406
0.035193
0.470009
1.53281
-0.362435
-4.07399
0.103076
-0.385314
-1.68722
-1.49499
2.86984
1.01948
-0.744787
0.752992
0.396749
2.51406
0.88539
-5.62967
0.940011
1.96893
1.68877
-0.580654
1.36688
-0.129476
2.6583
0.0511104
1.58322
-0.871988
-0.542321
0.0454262
-0.311799
0.9235
0.535213
-6.19054
-0.372228
1.83784
-0.0767466
-0.0728489
2.17477
1.22611
2.11652
1.44177
-0.851602
0.0234096
0.0724797
1.5427
0.00530196
1.93008
1.20693
2.63609
-0.35211
2.06047
0.771231
2.66628
-0.325497
-0.928685
2.72878
-0.352049
1.17741
-3.46936
2.34299
2.62785
1.68301
-2.62032
1.54151
2.01379
-0.531765
0.652287
-0.345433
2.15104
-0.350659
-0.192932
-8.3136
-9.27479
1.97817
0.757774
-11.2924
0.819637
2.62499
-0.878548
-0.271682
-10.3904
-1.08049
1.30429
-0.149366
1.47528
1.46223
-11.5686
2.95469
-0.0225943
2.22273
2.20147
0.138202
0.0217675
1.38095
-2.09078
-0.201409
1.36603
1.17492
-0.552793
1.46816
-0.295709
2.32047
1.67841
0.612718
0.0113501
1.72505
-0.189524
0.93263
2.0598
0.34888
0.0405456
1.9985
1.66476
-0.721656
-5.50217
1.18554
1.74218
2.65482
-5.41464
2.8051
2.77996
2.85284
-0.187798
1.94074
-0.690928
1.54778
2.08596
2.03525
1.72541
2.28608
3.12568
1.34644
-5.08877
0.157059
-4.87936
3.09546
0.846743
-0.125141
-0.36691
1.44904
2.30553
1.4864
0.53942
-0.0819898
2.29329
-2.62541
1.6637
-0.365403
0.716475
0.0250006
0.481489
1.02322
-0.381405
-0.390638
-0.126372
-0.371742
-0.195598
1.90172
-0.346541
0.238953
1.45443
-2.5804
0.962025
0.0481732
-2.36555
-0.966721
-5.08185
2.18713
2.35721
-0.354724
0.586187
2.007
1.80321
0.0318803
-0.688648
1.70383
-6.61938
2.1499
-2.14569
2.09333
0.964839
0.237416
1.94847
1.02721
2.04501
0.572981
0.73091
-0.523326
-5.75302
-4.17545
-0.00628268
2.00657
-0.935376
-0.305801
-0.962295
2.22433
2.02398
0.540332
1.16053
2.25591
-2.41386
1.48477
-0.0293304
-0.610707
1.47901
-0.362073
-3.76526
-1.38078
-8.76308
-0.289215
-0.865962
-0.00612983
-8.97331
-5.82465
1.28123
2.68825
2.9405
2.55005
-0.897399
1.68166
-1.08209
1.44359
2.24542
0.224703
1.97064
-0.977968
0.55913
-0.561011
-0.0788047
2.14397
-1.20735
1.76396
-5.65431
-0.391559
-9.86572
1.79859
1.75006
1.5466
-2.73506
1.47237
-0.229205
-11.6883
-11.508
0.51738
2.69885
-3.1125
-0.287204
-0.368786
1.5271
1.48107
-0.0143428
0.974295
-4.12942
2.28939
2.06433
-0.284566
-0.311518
2.23075
-0.362518
-1.96269
0.0301127
2.03797
2.2944
-0.566014
1.10582
-0.243686
2.64066
-9.87567
-0.514457
-0.0785087
2.47471
0.0239946
-0.489118
-0.122042
2.12671
1.22786
2.11119
-0.127007
-2.7364
1.72939
3.05879
-5.91073
1.39607
-0.0170866
-11.031
-0.00736228
0.576377
-0.363973
1.07884
-0.306917
1.02025
-0.211506
-0.673092
1.93293
2.31349
1.46228
-1.93148
-0.526173
1.79941
-4.41627
0.58661
-0.6394
0.778309
-7.2277
1.67123
1.80509
-0.0519974
1.69352
2.60451
-0.257993
1.26567
1.76974
-10.8935
0.947319
-0.540779
0.776247
0.567662
1.22021
0.0102366
0.536941
-0.205374
-3.49591
2.17273
0.625931
0.208002
-0.383092
-0.192218
1.60885
-5.81629
2.84021
-2.27266
-10.8105
-0.125198
1.984
1.76002
2.07631
-6.69072
2.5059
-1.39822
1.22362
0.132172
-3.01081
1.43103
0.718768
-0.244978
1.06833
-4.34576
1.26506
-8.10134
-0.380354
0.0146699
-1.93176
-2.3011
1.38895
2.57096
0.104934
-0.80615
1.99883
-2.2979
2.33561
0.705851
0.0685968
0.832002
1.55985
0.820193
-0.153596
0.130375
0.0086343
0.382741
0.564855
-3.14318
-0.375527
0.0981959
0.914003
-0.275378
3.11641
1.67656
1.53094
2.35874
0.250542
1.73628
-0.978325
-8.25632
-0.438644
1.54777
3.03433
1.45376
-1.05428
2.17777
1.46149
1.48535
0.0835488
-0.0488558
0.834994
2.85383
0.113015
-0.680746
2.10964
2.22113
1.63844
1.54186
1.89292
1.10023
-0.269608
-0.543359
1.70754
-5.5941
-5.59487
1.51828
-0.481341
-0.0154549
0.511325
1.68524
1.74711
1.77614
-0.172628
2.07452
2.12172
0.324098
1.86421
1.6302
1.28682
1.15655
1.04843
0.802388
-0.0245494
1.98329
1.84893
-0.231815
1.41727
-0.188503
0.0640331
2.54904
1.92323
0.0212308
-0.502168
-0.134775
1.97802
1.11392
0.284151
0.0263917
0.257502
-0.325847
0.324336
-0.349362
-0.202045
1.13859
-0.230622
-1.54923
-3.16584
2.40613
-0.355202
-4.09719
-0.395691
2.58271
-0.233841
0.336441
0.306663
-9.97382
1.20156
1.44964
0.980339
2.26776
1.25062
0.0522738
-5.7141
-0.445883
0.0342811
1.79633
-0.151425
-0.741976
-10.2108
-0.32855
-4.1716
-0.384874
-2.98196
-0.186077
0.583652
1.52558
2.01831
-0.290156
-0.100098
2.27805
1.73154
-0.504966
-0.283131
-5.23542
0.958544
0.124068
0.86579
1.3141
-0.0683184
-0.250853
-0.285694
0.40793
-1.19704
-6.28423
0.207422
-0.721416
-8.14654
-10.4353
-0.432502
0.202159
-5.67794
0.798892
-0.829796
1.52647
1.37154
0.422125
2.00732
-0.779312
2.5853
-0.561697
0.104992
-1.33091
1.54494
0.945312
-5.39975
-6.83172
1.57814
1.87524
2.68161
-0.608083
-7.42189
-0.701655
-0.14784
0.00898681
-3.0141
0.565426
-6.67266
0.914098
-0.909287
1.18231
0.168169
-0.0467265
2.34444
1.37903
-1.24036
0.0323885
-1.77055
-5.46634
2.01029
2.9415
-4.57212
1.8999
1.47279
0.00531468
-0.221072
1.95514
1.8702
-3.24802
-0.221721
-0.45571
-0.820781
-1.26195
-5.45792
-1.17194
1.00543
-0.230054
1.70833
-2.03969
-10.5768
1.44561
-1.1706
-8.73239
0.0866096
1.1632
-9.79007
-0.658723
-11.15
-2.01631
-7.85978
2.72214
-7.51595
-0.2479
-1.00323
1.69624
-10.9246
-0.176708
-2.42594
-2.58451
-0.558404
1.75938
0.0173749
-3.28954
1.35456
0.0213336
-0.47526
-2.80643
-3.79106
1.10594
1.27795
1.55534
-9.73548
2.32363
-0.373486
0.0018182
0.139826
-2.612
-0.57132
-3.57548
-1.07635
0.312452
0.667679
0.0702864
-0.347453
-1.05303
1.45748
-1.66166
1.62275
-2.29898
0.981007
-0.280027
-0.122896
-0.207709
3.08668
-0.296989
-10.915
-6.01782
-0.877453
1.54932
0.0790414
-0.280038
0.0819628
-9.52789
-0.530379
-5.68992
-5.05828
1.69377
-6.85468
0.242885
-11.0416
-0.0293732
1.35612
0.135184
0.697561
-0.481777
2.03843
-8.6789
-0.66811
2.18201
0.629569
-9.70093
-0.344929
-2.36474
-0.96017
-0.394727
1.99458
-0.392472
0.657416
-6.77586
-2.16731
-4.38169
-5.70522
-4.16479
0.917123
-0.24503
1.53067
0.575808
-1.71345
-0.371859
-0.64787
1.91555
2.30369
-10.6613
0.0621903
1.66172
1.52913
1.21904
-0.855242
-1.54507
-1.65573
1.5514
0.455956
-0.93998
-3.14653
0.889468
1.84165
-0.278324
-0.0585138
0.0763542
2.15827
-1.69455
-1.86607
0.0536444
1.33164
0.0612157
-0.171184
2.339
1.93171
0.065939
-0.91399
1.96935
0.769596
-0.108379
1.42997
-0.383332
-1.1876
-1.96201
-0.936816
1.88962
1.6558
-0.0756863
-0.647917
-0.339697
-0.0426682
1.6981
-0.882299
1.16671
2.05367
2.19838
-0.305482
1.55964
1.36959
1.72081
1.82448
-0.198366
1.83707
0.0107885
1.54893
0.82989
1.68161
-0.376926
1.95361
1.86425
1.39143
1.01133
-0.593815
1.101
0.107763
-0.754151
2.10023
2.07178
-0.646174
1.79375
-0.944938
-5.94621
1.68299
1.68449
-2.05443
-0.074893
-7.56898
-0.821412
-1.44486
-0.356007
-2.05558
-0.436131
1.42144
2.83851
1.95484
-0.310318
-0.300878
1.6524
0.828515
-0.217223
-1.15184
-0.503299
-1.86085
-5.63335
-5.82632
1.47941
-0.613038
0.78825
0.0428429
0.042177
-0.164328
0.0470998
0.326431
0.803053
1.02131
-0.540555
0.730441
-2.49114
-1.31386
1.08667
0.858689
-0.0503351
0.131213
1.01774
-0.00026153
0.596189
-0.594035
1.53063
1.29673
2.47682
1.5505
-0.825672
-0.416327
-0.632868
-0.468096
0.0330487
0.0588288
-0.173939
-0.679627
2.8978
0.176138
-0.0249877
2.29991
-0.366556
-1.02962
-0.200255
-0.394679
-8.37312
0.460744
-1.40431
1.51263
-0.223508
-0.755652
-0.385554
-0.347546
-0.956593
-0.172194
0.086859
1.20689
-0.35771
-0.363312
-1.52795
0.613071
-0.980778
1.6768
2.35992
-0.449884
1.70723
0.890389
1.12637
2.61019
-0.352784
0.93962
0.824353
0.721758
2.22601
-0.502848
-0.149246
-0.165202
1.65064
2.35691
-0.40191
-0.113181
-0.972937
-0.830987
0.799606
-0.641256
-2.13454
-0.492658
0.608876
-6.3251
0.383479
0.49922
1.35329
0.315467
-5.08257
-0.081467
0.0350911
-0.209742
2.51856
2.82883
2.09029
3.00392
1.36657
0.878829
1.75027
1.51653
1.39595
-0.776565
1.59773
-0.378014
-5.69948
2.30593
-0.218459
-1.02423
2.71027
0.04801
-0.810753
0.832658
0.728224
1.8976
-6.20405
1.43235
2.49469
-0.363075
-5.78652
-1.86314
1.10734
-0.992922
1.99901
-0.120493
1.90009
1.54176
-0.367719
1.82283
-0.637094
-4.99945
-4.78648
-0.500082
1.87638
-0.889072
1.59773
-0.00901691