/*--------------------------------*- C++ -*----------------------------------*\
| =========                 |                                                 |
| \\      /  F ield         | OpenFOAM: The Open Source CFD Toolbox           |
|  \\    /   O peration     | Version:  2306                                  |
|   \\  /    A nd           | Website:  www.openfoam.com                      |
|    \\/     M anipulation  |                                                 |
\*---------------------------------------------------------------------------*/
FoamFile
{
    version     2.0;
    format      ascii;
    arch        "LSB;label=32;scalar=64";
    class       surfaceScalarField;
    location    "3.25";
    object      phi;
}
// * * * * * * * * * * * * * * * * * * * * * * * * * * * * * * * * * * * * * //

dimensions      [0 3 -1 0 0 0 0];

oriented        oriented;

internalField   nonuniform List<scalar> 
20045
(
0.254617
-0.281686
0.027069
-0.545563
0.198184
0.347379
0.150167
0.870449
-1.02062
0.0627172
-0.0866763
0.023959
-0.429724
0.419587
0.0101364
-0.273582
1.07963
-0.806045
-0.52173
0.226823
0.294907
0.035935
0.221407
-0.257342
0.237737
0.217385
-0.455122
-0.408887
-0.0680399
0.476927
0.250036
0.104505
-0.354541
1.10941
-0.565431
-0.543983
0.190073
-0.189568
-0.000504621
-0.646877
0.527347
0.11953
-0.167916
0.543346
-0.375429
-0.553328
0.144441
0.0652346
0.199458
-0.264692
0.462187
-0.366393
-0.0957942
-0.846951
1.23581
-0.388861
-0.378424
0.0180485
0.360376
0.216387
-0.200903
-0.0154838
0.0660989
0.123974
-0.0708618
-0.474701
0.259648
0.387843
-0.647491
0.421753
0.0935143
-0.515267
-0.419867
0.679515
-0.183512
0.174017
0.0094948
-0.542836
1.05443
-0.511598
0.879887
0.112519
-0.992406
-1.01081
0.590451
0.420355
-0.064008
-0.196162
0.26017
0.738013
-0.521474
-0.216539
-0.408151
0.702547
-0.294396
1.09872
-0.636974
-0.461741
-0.285543
0.321478
1.10645
-0.552085
-0.554362
0.728059
0.132048
-0.860106
-0.0311526
0.191659
-0.160506
-1.02724
0.397161
0.630079
0.313329
0.256032
-0.569361
0.02654
0.20282
-0.22936
0.0675211
-0.0978196
0.0302985
1.07594
-1.07649
0.000553339
0.748377
-0.27388
-0.474497
0.34364
0.404737
0.538405
0.571009
0.19638
0.00838887
-0.204769
0.625557
0.288738
-0.914296
0.940285
-0.212227
0.0636426
0.887256
-0.950899
0.651831
-1.10028
0.448449
0.938956
-0.698197
-0.24076
-0.550004
-0.50104
1.05104
-0.0436472
-0.159223
0.202871
0.44725
-0.118628
-0.328622
-0.355541
-0.0741829
0.057911
0.726754
-0.784665
0.843369
0.0349418
-0.878311
0.367463
-0.775614
1.07073
-0.734645
-0.336082
0.206001
0.137722
-0.343723
0.418716
0.652011
0.479341
-0.906293
0.426952
0.179945
0.0364422
0.317253
0.127123
-0.444376
0.818001
0.139175
-0.957176
-0.0252318
0.0929019
-0.0676701
-0.3408
0.0734146
0.267386
0.431758
-0.194021
0.943032
-0.956377
0.0133449
-0.0539668
0.028735
-0.0411296
0.48838
-0.134649
-0.51618
0.650829
0.0074748
-0.0804764
0.0730016
0.911455
-0.145847
-0.765607
0.694067
-0.636156
-0.0398192
0.951274
0.221235
-0.389151
-0.293953
0.214697
0.0792566
0.298677
-0.602401
0.303724
0.523073
0.605806
-1.12888
0.456417
-0.360126
-0.0962903
0.777266
-0.297925
-1.11033
0.203195
0.907136
0.00544974
0.249168
-0.260702
0.313749
-0.053047
0.613608
-0.706768
0.0931599
-0.804086
0.0370854
0.767001
0.520036
0.0793134
-0.59935
-0.442347
0.389846
0.0525008
-0.757229
-0.111764
0.868993
0.371466
-0.0636395
-0.307826
0.205309
-0.300009
0.0946997
-0.0871011
-0.408044
0.495146
0.304774
-0.322107
0.0173327
0.744632
0.206519
-0.951151
-0.112911
-0.0706017
0.0175908
-0.140706
0.123115
0.621187
-0.307858
0.00399038
0.248065
-0.252056
0.749992
0.356455
-0.254753
-0.392124
-0.17062
0.188211
-0.142805
0.986174
0.0148424
-0.275544
-0.283367
0.287358
0.226163
0.606154
-0.832317
0.635182
-0.931763
0.296581
-0.0975734
-0.214007
0.186633
0.0273737
-0.101168
0.129228
-0.0280601
0.635989
-0.465282
-0.170707
-0.25431
0.210663
0.664708
-1.06682
0.402109
-0.097618
0.168692
-0.0710739
0.0233271
-0.125538
0.10221
0.576597
-0.154844
0.816054
0.282662
-0.58873
0.454081
0.694579
-1.02
0.325421
0.338855
0.123332
0.280978
-0.0749765
-0.399299
0.326845
0.0724544
-0.392059
0.0483704
-0.300358
0.251987
0.678568
0.260388
0.567746
-0.722541
0.154794
0.81127
0.0825989
-0.893869
-1.00075
0.781815
0.218936
-0.234929
-0.300412
0.535341
0.996416
-0.317847
-0.286605
0.294994
0.187094
-0.183765
-0.00332948
-0.041001
0.00903291
0.0319681
0.569073
0.402007
-0.97108
0.606489
-0.578771
-0.0277172
-0.175237
0.093457
0.0817801
-0.153541
-0.060466
1.14047
-0.44589
-0.331595
0.355629
-0.0240342
0.60417
-0.989639
0.385469
0.258682
-0.808687
0.564173
0.252835
-0.817008
0.658173
-0.359496
0.969849
-0.129257
-0.840592
0.11955
-0.655939
0.536389
0.996042
-0.782772
-0.21327
-0.14008
0.231296
-0.0912165
0.0175024
0.958135
-0.975637
1.07142
-0.191535
-0.825146
0.0258367
0.79931
-0.486277
0.425756
0.060521
1.01704
-0.493963
0.164227
0.29219
-0.639947
0.770214
-0.130267
-0.698987
0.849154
0.0109173
-0.156709
0.145791
0.0599218
-0.0735115
0.0135897
-0.0158938
-0.194031
0.209925
0.89509
-0.0569534
-0.838137
1.25933
-0.609775
-0.649554
-0.227865
0.211971
0.323344
-0.676884
0.35354
0.0794704
-0.0119492
-0.841002
-0.500737
0.675434
-0.174697
-0.666883
0.50792
0.158963
-0.0111108
-0.0322295
0.0433403
0.281116
0.714926
-0.0596129
0.0186119
0.0652266
0.121868
-0.698476
0.0585295
-0.733509
0.932301
-0.198792
-0.667612
0.767061
-0.0994485
-0.611418
-0.42255
1.03397
0.00424206
-0.231562
0.22732
0.433653
-0.484303
0.0506502
0.742555
0.136633
-0.879188
0.011132
-0.75524
0.744108
-0.390476
0.954649
0.202383
-0.554757
0.352374
-0.393631
1.05834
-0.840676
0.555567
0.28511
-0.0540436
0.0542335
-0.00018984
0.375429
-1.06921
0.69378
-0.858218
0.315382
-0.619682
-0.399691
0.955984
-0.602076
-0.353907
-0.272664
0.299204
0.126428
-0.133618
0.00719025
-0.7708
-0.202839
0.973639
-0.779467
1.10271
-0.323242
0.963184
-0.662247
-0.300937
0.0645561
-0.244519
0.179963
-0.222253
-0.518105
0.740358
-0.0691173
0.319153
-0.453085
0.218156
-0.639476
-0.218755
0.858232
0.0914159
0.0255693
-0.116985
0.0928739
-0.593611
0.176554
-0.240562
0.859458
-0.0481883
-0.14354
0.112387
-0.133173
0.1623
-0.0291274
-0.117874
1.01296
-0.780252
0.557999
0.325318
-0.00974756
-0.31557
-0.702519
0.137429
0.56509
0.340905
0.622278
1.12417
-0.748739
0.671582
-1.10355
0.431966
0.247629
-0.669782
0.422153
0.0371211
-0.415545
-0.48901
0.715173
0.656252
-0.929834
0.21411
-0.65347
0.439359
-1.10035
0.60001
0.500342
-0.0388859
-0.403461
0.180323
0.149895
-0.330218
0.663821
-0.160313
-0.503508
0.3133
-0.660232
0.677735
-0.260272
-0.0713221
0.619853
1.0419
-0.94057
-0.101331
-0.0116623
-0.132552
0.144214
0.675417
0.0826965
-0.758114
0.174847
0.125906
-0.300753
-0.0533512
0.586469
-0.533118
-0.141016
0.754624
0.576429
-0.374047
-0.0542451
0.153855
-0.0996099
0.821641
-0.217471
0.0940179
-0.00804989
-0.085968
0.169328
0.0598474
-0.229176
-0.106728
0.110362
-0.00363389
0.952166
-0.625493
-0.326673
0.234162
-1.01363
-0.116461
0.00973343
-0.88022
0.277683
0.602537
0.968378
-0.265831
0.245397
-0.978906
1.23886
-0.585888
-0.652971
-0.0120095
0.103425
0.909678
-0.366403
-0.543275
-0.615634
0.141035
0.474599
-0.969754
0.965853
0.00390144
0.280236
-0.727571
0.447335
-0.062978
0.00990992
0.0530681
-0.475993
0.634785
-0.158792
0.0172347
-0.164294
0.147059
-0.154099
0.0564814
-0.117413
0.0162451
-0.655806
-0.275957
0.478459
-0.743992
0.265533
0.218103
-0.270194
0.0520914
0.421608
0.316405
0.56824
-0.35413
0.0189238
0.040998
0.596662
0.371715
-0.495797
0.00999782
0.485799
0.280599
0.629079
0.388693
0.154652
0.263066
-0.0449632
-0.291017
-0.0203144
0.311331
-0.0082414
-0.0458022
-0.629042
0.575691
-0.214912
0.299918
-0.0850055
-0.890261
0.858758
0.0315032
-0.477332
0.538341
-0.0610087
-0.204773
-0.124561
0.329334
0.758153
-0.822939
0.0647857
-0.64928
-0.451071
1.2582
-0.859981
-0.398219
-0.0970557
0.0853935
0.813697
-0.533462
-0.301371
0.77983
-0.077639
-0.262294
0.339933
0.851034
-0.104764
-0.74627
1.01575
-0.124431
-0.891317
-0.375252
0.297613
0.835397
-0.485932
-0.349465
-0.159202
0.781867
-0.622664
0.492204
-0.648892
0.156688
-0.0583007
-0.178954
0.237255
0.249033
0.00632666
-0.25536
1.12392
-0.872011
-0.251906
-0.538578
-0.462173
0.817232
0.22467
-0.811664
-0.0785964
-0.0582556
0.227584
0.208115
-0.829719
0.621604
0.00409746
0.12233
-0.539941
1.10901
0.339825
0.61234
1.04453
-0.659886
-0.384644
-0.767657
0.548901
0.773988
-1.16715
0.393158
-0.628706
-0.0355987
0.664304
-0.235697
-0.180077
0.415774
0.573586
-0.250242
0.0508238
0.274494
0.232976
-0.0312421
-0.490232
-0.710964
1.00457
-0.293606
-0.152814
0.0196411
-0.0589817
0.00473661
0.118508
-1.08826
0.607873
-0.748889
0.169485
-0.239396
0.337252
-0.0978561
-0.00243623
0.0651535
-0.516661
0.360606
0.156055
0.357192
0.278797
-0.296038
0.495594
-0.199557
0.493689
0.112799
-0.633708
0.841822
0.576033
-0.0559961
-0.208154
-0.494365
0.959809
-0.673514
-0.286294
0.950048
-0.942751
0.322504
0.620247
0.792119
-0.860697
0.0685778
-0.443032
0.355931
-0.124887
-0.0503498
-0.128409
-0.62882
0.286501
-0.551211
0.26471
0.425689
0.409707
0.739866
-1.04657
0.306702
0.226982
-0.54492
0.317938
-0.973902
0.169816
0.00927031
0.362196
-0.606714
0.933928
-0.327214
-0.252181
0.313749
-0.0615677
-0.412756
-0.108974
-0.134345
-0.226205
0.360549
0.0891626
0.000695364
-0.089858
-0.337195
-0.149082
0.366905
0.451601
-0.818506
0.870224
-0.589625
0.330767
-0.4524
0.00936843
0.469945
-0.242963
-0.675766
-0.16491
-0.124155
0.119275
0.00487938
0.977458
-0.351901
-0.458106
0.754714
-0.296608
-0.122085
0.143939
-0.0218547
0.740097
-0.0762757
-0.265523
-0.564196
-0.502779
0.926513
-0.423734
0.685014
-1.07677
0.391753
0.500819
0.757382
0.138495
-0.0787817
-0.0597131
0.0871624
-0.715868
0.689631
-1.0499
0.360267
0.122278
-0.114804
-0.0720265
0.639773
-0.099967
0.70784
-0.419242
0.66687
0.189796
-1.03675
-0.946374
0.536679
0.409696
0.641833
-0.0958037
-0.546029
0.930758
-0.172604
-0.410797
-0.537201
-0.48909
0.419037
0.0273162
-0.325711
0.298395
0.321047
-0.302998
-0.717553
0.645527
0.859456
0.21648
-0.79257
0.334464
1.02735
-0.210114
0.136668
-0.164066
0.0273979
-0.0121254
-0.6009
0.613026
-0.900562
0.170281
0.730281
0.730375
-0.730375
-0.285826
0.885766
-0.59994
0.28714
-0.583177
0.653427
-0.421811
-0.231616
-0.920451
0.956345
-0.0358943
0.345197
-0.0475108
-0.297686
0.266737
-0.104092
-0.162645
0.120747
-0.32552
-0.259289
0.507056
-0.808427
-0.823024
0.97952
-0.156496
-0.292004
0.658909
-0.0653402
-0.0148571
0.0801973
-0.128494
0.222634
-0.0941398
-0.377768
0.414889
0.985074
-0.784132
-0.200942
-0.0957454
-0.514641
0.610386
-0.241344
0.257586
-0.0162415
0.132138
-0.282012
0.149873
-1.06665
0.448132
0.618514
-0.0643612
-0.0223151
0.174584
-0.0379162
0.0872128
0.128244
-0.215457
0.458382
0.665534
-0.156574
0.0912334
-0.0709277
-0.276479
0.347407
-0.492438
0.792109
-0.299671
-0.00669094
0.0777077
-0.0710168
0.441451
-0.214628
0.711692
0.198344
-0.910037
0.0123565
-0.420401
0.0106796
0.731875
0.427473
0.307207
-0.73468
0.473046
-0.417039
-0.0560073
-1.01209
0.186947
-0.427231
0.196042
0.231189
0.386128
0.513775
-0.899904
-0.624689
0.589091
0.0479907
-0.915144
0.867153
-0.137552
0.202108
-0.0577043
0.0605161
-0.00281182
0.0211631
-0.31218
-0.083985
0.118955
-0.0349695
-0.68175
-0.19847
0.617286
0.137067
0.0376648
-0.174732
-0.131718
0.00963366
0.163907
-0.703348
0.539441
0.18328
0.543363
-0.726644
0.296098
-0.719276
0.857389
-0.138113
-0.712053
0.552851
0.0433776
0.13064
-0.406719
-0.260163
-0.264728
0.0655415
0.199186
-0.859917
0.367479
0.659013
-0.754758
0.272398
0.754948
-0.303751
0.308558
-0.00480696
0.296901
-0.787292
0.490391
0.157976
-0.272046
0.114069
0.54735
-0.812873
-0.647466
-0.020146
-0.321193
-0.0196073
0.00154323
0.213804
-0.215347
0.335794
0.00458233
-0.0442249
0.0396426
0.83778
-0.451652
-0.789721
0.920629
-0.130908
0.258938
0.190834
-0.449772
-0.372471
0.234919
-0.225148
-0.0395801
0.338654
0.314773
-0.269349
-0.750651
-0.101202
-0.0229532
0.615508
0.405888
0.170144
-0.835281
0.898923
0.0637667
-0.435745
0.371979
-0.084393
-0.829661
0.914054
0.0720162
-0.0742438
0.00222761
0.279272
-0.27503
-0.166608
0.658813
0.717874
-0.598324
-0.416712
-0.0999485
0.00153506
-0.412127
0.410592
0.40449
-1.01591
-0.0989421
-0.484441
0.583383
0.0353237
-0.150586
0.115262
-0.64953
0.0397312
0.609799
0.959116
-0.670377
-0.0127563
0.0890339
-0.0762776
-0.21907
-0.0222744
0.187538
0.35437
-0.541908
0.0981085
-0.124263
0.0261548
0.654023
0.373365
-1.02739
-0.40387
1.1485
0.0853148
0.00384782
-0.251634
-0.573486
0.825121
0.410495
0.729974
0.874765
-0.691485
-0.358662
0.224318
0.282374
-0.0333404
-0.347414
1.1214
0.130539
-0.763589
0.63305
0.948428
-0.140359
-0.808069
-0.425394
0.698582
-0.273188
0.402184
-0.311569
-0.502796
0.814365
-0.273141
0.184925
0.0882161
-0.282508
-0.486562
0.76907
0.0863352
-0.21483
0.0397513
-0.0508621
0.50657
-0.789078
-0.708859
-0.207769
0.916628
-0.0659419
-0.477397
0.543339
0.0315034
1.11828
-1.14137
0.0230893
0.215694
-0.142703
-0.0729909
0.00846077
-0.312211
0.258794
0.236351
-0.320233
0.0845356
-0.807605
1.01622
-0.208614
0.0377316
-0.252644
0.416325
0.241848
-0.834001
-0.242488
0.039468
0.24292
-0.282388
0.540171
-0.134282
-0.200341
0.221239
-0.0208979
-0.158022
0.175257
-1.16062
0.540937
0.913412
0.166214
-0.121602
0.25374
-0.209663
0.468601
0.800278
-0.293222
-0.20859
0.00824855
-0.0961838
-0.621369
0.25004
0.210966
-0.200049
-0.918249
0.0176867
-0.0187584
0.213095
-0.0551185
-1.01148
0.634846
0.376632
0.797347
0.145685
0.195912
-0.0666667
-0.129245
0.281026
-0.264344
-0.0166824
-0.857349
0.305264
-1.02429
0.521508
-0.291768
0.233185
0.0585831
0.0129782
-0.0669544
0.0539762
1.05159
-0.00670727
-1.04489
0.144097
0.00803512
-0.152132
-0.13474
-0.264559
0.230293
-0.0249842
-0.00588886
-0.00391715
0.00980601
0.392626
-0.0612769
-0.331349
-0.0324747
0.0265859
0.848079
-0.64156
-0.0268143
-0.148295
0.175109
-1.00766
0.20005
-0.00347085
0.045634
-0.216254
-0.111816
0.248883
0.0159348
0.00298905
0.250104
0.155421
-0.405525
0.418544
-0.101291
0.41217
-0.348403
0.194637
-0.17131
0.0729199
-0.325101
0.601924
-0.0969575
-0.504967
0.527252
-0.0280811
-0.499171
-0.545819
-0.11012
0.146246
-0.00399637
-0.14225
0.371575
-0.44453
0.0729549
1.10586
-0.0408264
-1.06503
0.142409
-0.0727251
-0.0696834
-0.491899
0.662891
-0.170992
0.479569
0.570443
-1.05001
-0.1846
0.322322
-0.264561
0.434862
-0.170301
0.220906
0.0909658
-0.311872
-0.850569
0.413837
0.436732
-0.00924356
0.0053264
-0.845593
0.136734
0.306987
-0.184822
-0.122165
0.47382
-0.615627
0.141807
-0.0894687
-0.192218
0.166369
0.951909
0.822099
-0.142829
-0.67927
-0.833077
0.113801
0.334519
-0.542673
0.666895
-1.07829
0.411392
-0.104014
0.284337
0.0255842
-0.398589
0.327661
-0.164217
0.212588
-0.106801
-0.758577
0.865379
0.381451
0.432246
-0.745346
0.776418
-0.0310721
-0.196315
0.197858
-0.666327
-0.251724
-0.116487
0.130664
-0.0141764
0.165446
-0.342978
0.177532
0.0387134
0.00293909
-0.0416525
-0.0882135
0.562034
-0.775411
-0.200525
0.975936
-0.739462
-0.252035
0.991498
0.479886
-0.365429
-0.114457
-0.169277
0.0194764
0.149801
0.0712181
-0.160879
0.0896607
-0.975771
0.0443171
0.931454
0.0236622
0.192238
-0.2159
0.801376
-0.889251
0.0878759
-0.505662
0.423891
0.138847
-0.562738
0.0127316
-0.129219
-0.237515
-0.360836
0.598351
0.628256
-1.02189
-0.948811
0.823492
0.125319
0.113863
-0.0157548
0.66672
-0.250395
-0.0653559
-0.231669
0.297025
-0.00836558
0.124665
-0.1163
-0.294252
0.869642
-0.57539
0.80501
-0.772929
-0.0320819
1.02895
-0.975997
-0.0529486
0.791974
-0.354298
-0.437676
0.0418567
-0.228166
0.186309
-0.292594
-0.00776389
-0.95836
0.835941
0.122419
0.0479958
-1.00636
-0.184006
0.90373
-0.719723
-0.563919
-0.308093
0.193934
-0.164078
-0.0298563
-0.78526
-0.222395
-0.183399
0.124768
0.0586303
0.277119
-0.102272
-0.895785
0.851051
0.0447341
-0.203326
-0.0646927
-0.0157837
0.155597
-0.0114993
-0.605361
0.129368
0.14061
-0.163401
0.0227908
-0.399503
0.367879
0.0316237
0.360855
-0.0156581
-0.258419
0.59358
0.146517
0.360905
0.0695438
0.297485
-0.367028
-0.12623
0.559883
-0.617203
0.39158
0.225623
0.01679
-0.0260335
0.809803
-0.428351
0.654613
-0.357712
-0.216773
-0.184268
0.401042
0.292421
-0.748283
0.455862
0.54605
-0.611992
0.989273
-0.430679
-0.558594
-0.00380175
-0.514747
-0.102456
-0.754433
0.995638
-0.241205
-0.0178198
-0.257244
0.928827
-1.05155
0.266286
-0.230137
0.171836
-0.123697
-0.243899
0.113441
-0.00307962
-0.488489
-0.51905
1.14467
-0.450607
0.238505
-0.201841
-0.0366644
0.0582256
0.208511
-0.66321
-0.361829
1.02504
0.191491
0.382095
-0.00505792
-0.141599
0.146657
0.822112
0.089383
-0.00707386
-0.0823091
0.50862
0.0933047
-0.365097
-0.995241
0.172217
-0.208126
0.00909422
0.199032
0.56247
0.67639
0.248667
0.0956365
-0.344304
0.971188
0.0577578
0.587721
-0.837282
0.249561
-0.832231
-0.000165069
0.832396
-0.770945
1.0015
-0.230558
0.137333
-0.00620767
-0.131125
-0.380838
1.00909
0.0356253
0.256102
-0.291727
0.0231741
-0.76852
0.198958
-0.0400467
-0.158912
-0.908001
1.17756
-0.269557
-0.246473
0.542947
-0.296474
1.16193
-0.51106
-0.650868
0.0115548
-0.606865
0.59531
0.0544963
0.00601987
-0.452093
0.931662
0.563934
-0.84976
1.03749
-0.352476
-0.1822
0.155386
-0.865133
0.0329019
1.10534
-0.365475
-0.0168156
-1.09352
0.22542
-0.0225997
0.259026
0.558542
-0.817567
0.553113
-0.125482
-0.427631
0.651585
-0.971091
0.319506
-0.125896
0.00957657
0.116319
-0.20415
-0.469497
0.673647
0.352264
-0.279344
-0.488723
0.143417
0.345305
0.149107
0.267674
-0.416782
0.0758961
0.118038
-0.855312
0.994528
-0.139215
0.0638989
0.00811732
0.43906
0.202466
-0.641526
0.450668
0.374268
-0.824937
0.149324
0.492508
-0.0190245
0.988874
0.00370912
0.783087
-0.786796
-0.00010551
-0.00658543
0.00655549
0.106626
-0.113182
0.667689
-0.589807
-0.0778824
0.446616
0.542656
0.238378
-0.242774
0.00439561
-0.270872
0.794711
-0.523839
0.0072408
0.159564
-0.166805
0.319296
-0.686453
0.367157
-0.535496
-0.182159
0.717655
0.79422
-0.118803
0.299171
0.253943
-0.461432
0.0407706
0.420661
0.293561
-0.808202
-0.0856024
0.266894
-0.181292
0.184994
-0.0697518
-0.115242
-0.00599313
0.0604894
-0.0679182
0.685856
-0.617938
-0.109542
0.996799
0.761905
-0.628979
-0.132926
0.625582
-0.546269
-0.530692
0.177726
0.352966
0.00735438
-0.429165
-0.199289
0.155747
0.0435419
0.0612257
0.134686
0.1374
0.73495
-0.87235
0.20732
0.185306
0.123547
-0.86301
-0.427852
0.175486
0.252366
-0.314359
-0.242828
0.557186
0.475799
-0.225695
-0.843051
0.551047
0.330662
-0.275096
-0.0555664
-0.517562
0.780379
-0.262817
-0.431285
0.443642
-0.433069
0.560912
-0.127843
-0.670601
0.925401
-0.254799
-0.0209853
0.197555
-0.17657
0.109717
-0.0967388
-0.334174
-0.637427
0.96665
-0.329223
-0.539477
0.676906
0.506864
-0.505339
-0.00152517
-0.0440428
-0.21278
0.256822
-1.06225
0.766305
0.295949
-0.000762213
-0.0581723
0.0589345
-0.0193443
0.559546
-0.853798
0.69091
-0.39849
-0.381574
-0.564801
-0.696489
0.700198
0.493049
0.0148703
0.35428
0.162741
-0.517021
-0.324825
0.304284
0.020541
0.33293
-0.283468
-0.0494624
0.138606
-0.427791
0.289185
-0.197052
0.465437
-0.268385
-0.75835
-0.193876
0.952226
0.192923
-0.236966
0.5097
0.157989
-0.932436
0.706372
0.226064
0.269653
-0.00989839
-0.259754
0.00333196
0.178613
-0.228758
0.050145
-0.656151
-0.318289
0.456895
0.132275
0.197265
-0.155408
0.310882
-0.145436
0.199839
-0.500251
0.0328569
0.271917
-0.284073
0.0840036
0.200069
-0.563984
-0.440257
1.00424
-0.147956
-0.313476
-0.512639
-0.0779947
0.590634
0.132351
0.175075
-0.307426
-0.0347626
1.12358
-0.735621
-0.387959
0.16947
0.652628
0.0358695
0.444228
-0.398504
-0.0457237
-0.273976
0.714396
-0.44042
-0.57334
-0.220989
0.794329
-0.4474
0.182839
-0.399584
-0.131108
0.978762
-0.441547
-0.537215
-0.21712
0.00885153
0.208268
0.380647
0.0585725
-0.439219
-0.166126
0.189788
-0.170873
0.412278
-0.241405
-0.000541149
-0.0214641
-0.206401
-0.00697685
0.543175
0.435587
-0.492639
0.8898
-0.295754
0.886206
-0.227927
0.0108074
-0.83881
0.26547
0.711084
-0.623922
-0.107502
-0.617453
0.125554
0.668323
-0.852329
0.690278
-0.702403
0.810157
-0.0180385
-0.18918
-0.110829
-0.266784
-0.087666
0.35445
-0.29264
-0.0294664
0.721323
0.133211
-0.854534
0.0194391
-0.247624
0.228185
0.00838227
0.34103
-0.952159
0.611129
0.853913
-0.0525373
-0.89402
0.927152
-0.0331326
0.208631
-0.135217
-0.968984
-0.0932698
-0.33214
0.859309
-0.0233673
0.282717
1.0862
-0.420777
-0.665419
-0.606532
-0.0578322
0.664364
0.0938409
0.512793
-0.606634
-0.690372
0.040842
-0.179944
-0.129298
0.309242
-0.46561
0.596149
0.144085
0.502324
-0.646409
-0.698782
0.0697418
0.62904
-0.909853
0.0857267
0.824126
0.181462
0.509449
-0.22319
0.511076
0.280898
-0.281478
-0.145752
0.72166
-0.850917
0.0222756
-0.346274
0.323998
-0.388091
0.203491
0.670069
0.0379173
-0.707986
0.603727
-0.899482
-0.000802356
-0.0621756
-0.43785
0.852199
-0.414349
-0.585738
0.348224
-0.0135872
0.268182
-0.254594
0.223965
-0.230666
0.00670075
0.248463
0.0308089
-0.246357
0.580876
-0.0522362
-0.239532
-0.147883
0.160615
0.351106
-0.2252
-0.0327926
0.0427025
-0.177981
0.171797
0.00618369
0.198891
-0.220784
0.0218924
-0.707921
0.562074
0.110988
-0.623627
-0.0111871
-0.261477
0.023259
0.544782
-0.568041
0.312863
-0.333178
0.314267
-0.762899
0.448632
-0.390811
0.67571
-0.2849
0.248824
-0.959788
0.0689759
-0.0256196
-0.923192
0.444434
0.70024
-0.73388
-0.109171
-0.661843
-0.280908
-0.401689
0.175484
0.081732
0.116788
-0.19852
1.11912
-0.556651
0.911982
-0.222351
-0.221994
-0.151619
0.373613
-0.995252
0.390999
0.604253
0.338268
-0.233763
-0.123637
0.547528
0.154845
-0.0887465
-0.436562
0.272108
-0.236482
-0.323257
0.423286
-0.100029
-0.103728
0.825051
0.174136
-0.205996
0.0318599
0.869854
-1.23009
0.576104
0.65399
0.231627
0.191415
-0.423042
0.267564
-0.253655
-0.0139086
-0.509256
0.262783
-0.325962
0.00147275
0.379174
0.886316
-0.970709
0.391533
-0.170627
-0.381589
0.67515
-0.994505
0.708339
0.286166
0.352653
-0.72218
0.369527
-0.684193
0.732349
-0.0481558
0.394414
-0.520644
0.013678
0.224161
0.255725
0.00133081
-0.603732
0.195228
-0.888241
0.375958
0.512283
0.240631
-0.847162
0.735221
-0.0455097
-0.570124
0.12986
0.236623
1.01593
-0.334738
-0.68119
-0.407522
0.258758
-0.573117
0.147851
-0.93695
0.879117
-0.69537
0.383801
0.466691
-0.750602
0.710148
0.0404532
-0.906342
0.602536
0.303805
-0.301772
-0.105884
0.141207
-0.966376
0.679147
0.28723
0.612319
-0.993156
-0.83806
-0.0172518
1.07389
-0.406995
0.288242
0.204454
-0.492695
-0.0200416
-0.127193
0.147235
0.0886208
0.479835
0.526918
-0.814383
0.0637816
0.163313
0.188951
0.226095
0.337568
-0.563663
0.36228
-0.212386
-0.0466545
-1.02561
1.07227
-0.329166
0.401856
-0.792332
-0.562971
-0.388571
0.951542
0.240455
-0.304094
-0.653723
0.209275
0.444448
-0.00395822
0.0129646
-0.00900639
0.803989
-0.91079
0.379536
-0.817386
0.460935
0.243621
-0.704556
0.22833
0.0101756
-0.784763
0.223396
0.561367
-0.749269
0.213773
0.436965
-0.710941
0.391689
-0.369413
-0.00253951
-0.00141872
-0.0372358
0.985664
-0.591686
0.733543
-0.141857
0.950226
-0.00635624
-0.94387
-0.718477
-0.00578422
-0.233612
0.0607394
0.669636
0.115758
0.0281813
-0.102691
-0.153729
0.440869
0.491032
0.0958444
0.237086
-0.833383
-0.0624022
-0.872307
0.426344
-0.792747
0.167342
0.175787
-0.34313
0.849252
0.0444334
-0.893685
-0.0978134
0.0916057
-0.322369
-0.701918
-0.754364
-0.106333
-0.320212
0.92394
-0.31657
0.438208
-0.121638
-0.831134
0.26715
-0.262663
0.488758
-0.399952
-0.611526
-0.253907
-0.290324
0.340975
-0.450467
0.0509641
0.997507
-0.138198
0.401426
-0.43713
0.0357034
0.0831067
0.0707482
0.244155
0.987852
-0.939861
0.0110666
-0.209427
0.304126
-0.47369
0.483688
-0.431657
-0.492053
0.199852
0.168853
-0.368704
-0.766534
0.0361588
-0.107781
0.731418
-0.623637
-0.100035
-0.793985
-0.674337
0.757034
1.17535
-0.506908
-0.668444
-0.116789
0.31283
0.819023
-0.43398
-0.385042
0.24778
-0.269244
0.102731
-0.0961751
-0.192237
0.0355456
0.156691
-0.147862
0.502142
-0.39562
1.00794
-0.0231426
-0.140935
-0.25876
-0.0781029
0.336863
-0.0106504
0.814639
0.187405
0.155961
-0.343366
-0.354642
0.542181
0.39447
0.400241
-0.327228
-0.100624
0.487718
-0.173099
-0.314619
-0.0308805
0.0139987
0.0168818
0.0857606
-0.737363
0.651602
-0.882966
0.128602
0.202973
-0.38305
0.809394
-0.00394504
0.251725
0.118341
-0.43491
-0.990283
0.501193
-0.931641
0.321865
-0.423211
0.0454433
-0.391409
-0.550132
0.94154
-0.95349
-0.140942
0.0837293
0.0572123
0.823338
-0.620143
0.671179
-0.577338
0.143274
0.509144
-0.652418
0.187619
-0.367563
-0.684797
-0.243492
0.928288
-0.132785
0.315033
-0.182248
-0.400855
0.802388
-0.401533
0.801536
-0.509766
-0.29177
0.796982
0.0237606
-0.820743
-0.49156
-0.738534
-0.303739
-0.0174543
0.358099
0.638317
-0.0111261
0.084989
-0.0738629
-0.629895
-0.154868
0.667697
0.568115
-0.50273
0.601874
-0.0991442
0.103789
-0.110863
0.137312
0.366856
-0.504168
-0.0312719
0.205408
-0.104179
-0.862197
-0.875688
0.348256
-0.0175936
-0.139156
0.31571
0.0707633
0.694166
-0.764929
-0.484771
-0.120591
0.620006
0.250218
0.0643922
-0.217933
0.0202527
-0.328724
0.308471
0.0947184
-0.346271
0.251553
0.0449031
0.493438
0.223924
0.779835
-0.354145
0.863344
-0.461488
-0.106692
-0.231076
0.337768
0.710236
0.0716303
0.0348323
-0.631798
0.427648
0.521863
-0.532513
-0.45949
-0.393155
0.852645
-0.572669
-0.422583
-0.935443
0.959634
-0.0241905
-0.0943106
-0.359339
0.271673
0.529578
0.250257
0.0746676
-0.2898
0.215132
-0.316363
-0.640014
-0.165627
-0.709932
0.875559
0.478417
-0.286925
-0.304145
0.218543
0.549047
-0.871416
0.436051
-0.342537
-0.372081
0.950711
-0.57863
0.408948
0.477705
0.28161
-0.759316
0.978232
-0.602805
-0.375427
-0.336624
-0.721291
1.04987
-0.32858
0.489607
-0.0881806
-0.262846
0.258901
0.400333
0.761595
-0.191426
0.171384
0.0338952
-0.0293129
0.901726
-0.499719
0.434459
0.684662
-0.379069
0.1993
0.179769
0.225839
-0.442612
0.705748
-0.035679
0.630414
-0.342172
-0.648515
-0.0817117
0.730227
0.172035
-0.0276516
-0.144383
0.130958
0.0847357
0.138579
-0.909524
-0.259501
0.280664
0.653489
-0.573435
-0.0800542
0.142326
0.345392
-0.136925
0.070258
0.22136
0.224501
-0.445861
-0.448391
0.815854
0.065053
-0.469
1.067
-0.598003
-0.256837
0.405944
-0.182061
-0.516721
1.04859
-0.492712
-0.318952
0.383346
-0.115782
0.273608
-0.284795
-0.141766
0.12078
-0.272196
-0.12623
-0.00548859
0.535714
-0.142676
0.768354
-0.625678
-0.207636
0.294849
-0.325021
0.0933521
-0.300656
-0.00308229
-0.866778
0.615143
0.211772
0.22309
0.0932267
-0.33594
0.242714
0.254356
0.0593926
0.78258
0.428482
-1.21106
-0.0910684
-0.0158132
0.106882
-0.0994232
-0.690297
0.770843
0.404509
0.735897
-0.665134
-1.0687
0.0412071
0.0718501
-0.149867
0.431448
0.630237
0.254669
-0.884906
0.339366
-0.0265029
-0.0289794
-0.294879
-0.0841899
-0.521226
-0.46123
0.468585
0.251453
0.669176
0.539277
-0.538347
-0.000929973
0.164006
0.00779138
-0.0616932
0.227941
-0.0290493
0.708408
0.182579
-0.890987
-0.575458
0.252201
-0.207312
0.127989
0.0793235
-0.314986
0.00445514
0.310531
0.400852
0.393043
-0.793895
0.214633
0.261167
0.648841
-0.0125989
-0.241711
0.358322
-0.512051
-0.0533505
0.0738934
-0.0205429
-0.912341
0.51265
0.778369
-0.62066
-0.157709
0.0116303
-0.119416
0.107786
0.799063
-0.866981
0.620817
-0.1424
0.217783
0.453396
-0.11663
-0.00959997
0.425434
-0.22169
-0.203743
-0.531257
-0.105863
0.998777
-0.510538
-0.488239
0.969432
-0.602891
-0.366541
0.369124
-0.644535
0.275411
0.0285407
0.478946
-0.00900064
-0.128461
0.512124
-0.383663
0.244074
0.18136
-0.31243
-0.197945
-0.00805132
0.695285
0.000561706
-0.695847
-0.3338
-0.129092
-0.15498
-0.253657
0.0108834
0.223941
0.628258
-0.12058
0.159293
-0.0283296
0.0102904
-0.121932
0.136774
-0.358149
0.501423
0.0130335
0.197933
-0.305458
-0.297009
0.718617
-0.0296983
0.568976
-0.128975
-0.102194
-0.222332
0.443692
-0.199151
0.766997
-0.567846
-0.7442
-0.101393
-0.384067
0.73423
-0.350163
0.0177903
-0.215735
0.280676
-0.0592689
-0.0196515
-0.210338
0.22999
-0.74574
0.253028
0.101186
-0.113942
0.437304
-1.10051
0.297951
-0.871437
-0.216516
0.604359
-0.302905
0.457549
-0.233049
0.0131132
-0.596762
0.682523
0.00187206
-0.134424
0.126858
-0.492287
-0.0798395
-0.552059
0.631898
0.270917
0.27591
1.12235
-0.730849
-0.391505
-0.201837
0.0549172
0.183677
0.0200384
-0.203716
-0.728338
0.136652
0.164343
0.0206511
-0.00514004
-0.108147
0.113287
0.38691
-0.770977
0.0779116
0.40153
0.0302695
-0.431799
-0.848593
0.649442
0.121445
0.0342488
-0.155694
0.316572
-0.953998
-0.124354
-0.000838033
0.125192
0.155584
-0.0341387
0.00374923
0.654584
-0.50526
0.538555
0.444889
-0.230257
-0.800387
0.237416
-0.614204
0.487194
0.12701
0.388631
-0.848121
-0.437205
-0.277646
0.714851
0.0767931
0.348963
-0.265931
0.21842
0.99339
-0.131497
-0.861894
0.00270236
-0.836085
0.728109
0.0688733
0.398688
0.420334
-0.139155
-0.00244419
0.121904
-0.258757
-0.292454
0.049663
-0.107253
0.0575905
0.0284335
-0.717749
0.689315
-0.0408859
0.243099
-0.202213
0.27065
-0.811142
0.540492
-0.0946219
-0.48415
-0.0268322
0.0054381
0.603303
-0.295211
-0.177206
0.472417
-0.319008
-0.362741
0.393189
-0.224336
-0.152559
-0.0428952
0.195454
-0.256697
0.349924
-0.850424
-0.115999
-0.0313727
0.147371
0.103833
0.278102
-0.381934
0.634977
-0.867496
0.232519
0.017788
-0.492489
0.137932
-1.04593
-0.4495
-0.563327
1.01283
-0.845459
0.0349919
0.810467
-1.13533
-0.704047
0.0198537
-0.234432
0.242318
-0.00788585
-0.922289
-0.317695
1.0261
0.329475
-0.174054
0.0700665
-0.292398
-0.152817
0.413984
0.129707
0.0799027
-0.338662
0.0130161
-0.100323
0.0873072
-0.197852
0.0577719
-0.0688762
0.0805065
-0.229135
0.460762
-0.94724
0.605594
0.341646
-0.326566
0.377389
0.534316
0.176718
-0.00468331
-0.2297
0.304368
-0.419113
-0.23461
-0.478437
0.176223
0.302214
0.00440253
-0.130844
0.126442
-0.347961
0.442679
-0.0661672
0.631257
0.560468
-0.373064
0.487654
-0.806662
0.393298
-0.519501
0.126204
0.0921518
-0.00311788
-0.10191
0.0231279
-0.94351
0.552101
0.632526
0.336907
0.013826
-0.166075
0.152249
-1.17729
0.478304
-0.171402
0.23125
-0.167533
-0.0136993
-0.192698
0.206397
-0.491272
0.196061
-0.92535
0.821171
0.790257
-0.329322
-0.151274
0.135412
0.0158619
0.267279
-0.0243591
-0.129494
-0.981574
0.384017
0.597557
-0.121604
0.105791
-0.0586378
0.238883
-0.180245
0.361903
0.258914
0.0124196
0.174316
-0.186736
-0.222123
0.235157
-0.000509537
0.122788
0.552354
-0.775365
0.930332