/*--------------------------------*- C++ -*----------------------------------*\
| =========                 |                                                 |
| \\      /  F ield         | OpenFOAM: The Open Source CFD Toolbox           |
|  \\    /   O peration     | Version:  2306                                  |
|   \\  /    A nd           | Website:  www.openfoam.com                      |
|    \\/     M anipulation  |                                                 |
\*---------------------------------------------------------------------------*/
FoamFile
{
    version     2.0;
    format      ascii;
    arch        "LSB;label=32;scalar=64";
    class       volVectorField;
    location    "3.25";
    object      U;
}
// * * * * * * * * * * * * * * * * * * * * * * * * * * * * * * * * * * * * * //

dimensions      [0 1 -1 0 0 0 0];

internalField   nonuniform List<vector> 
13486
(
(1.45307 -0.233321 5.68946e-19)
(1.69036 0.287344 2.64337e-19)
(2.22809 0.0142484 0)
(0.643778 -0.324334 -1.09597e-19)
(2.32447 -0.553571 1.83927e-19)
(2.39692 0.104693 1.74242e-20)
(2.54689 -0.465316 3.23045e-21)
(1.98688 -0.739987 -2.98107e-19)
(1.92335 -0.409163 0)
(2.05767 0.723261 0)
(0.610709 -2.27334 -5.9574e-19)
(2.49048 0.0286248 0)
(1.31899 -0.442477 -5.62845e-19)
(2.50169 0.617662 4.71701e-20)
(2.43993 -0.392977 9.84858e-20)
(2.01975 0.72201 -1.46672e-19)
(-2.41761 1.58717 1.31892e-18)
(1.52436 -0.559431 -4.80049e-20)
(2.29474 0.00418742 2.7297e-21)
(1.62234 -0.0613446 -5.75637e-19)
(1.36895 -0.69799 -4.04692e-20)
(1.33766 -0.456618 7.26386e-19)
(1.71344 0.287597 -2.11277e-19)
(2.18944 -0.681526 0)
(2.06082 0.571536 4.76528e-20)
(2.17886 -0.627152 -7.47875e-20)
(-1.53881 0.396881 6.9259e-19)
(2.28134 -0.087514 2.60758e-19)
(2.03129 0.0162929 0)
(2.08625 -0.245878 -1.38438e-19)
(1.44459 -0.688027 -2.56597e-20)
(2.54954 -0.278544 -1.21675e-19)
(2.55412 -0.397775 2.49408e-19)
(1.98993 -0.0511975 0)
(1.99595 -0.715021 0)
(1.88237 -0.0052866 -5.1588e-21)
(1.99142 0.0610043 2.3095e-20)
(1.48409 -0.702375 2.87106e-19)
(1.87085 0.0731958 7.53188e-22)
(1.95816 -0.256626 2.9024e-19)
(2.365 -0.815788 0)
(0.880735 -0.439915 -6.52745e-19)
(2.01289 -0.00191036 0)
(2.08749 0.496451 -2.32359e-19)
(2.10732 0.492591 9.57415e-20)
(2.482 0.0292555 8.74144e-20)
(1.77256 0.332892 3.56212e-18)
(2.02839 0.0114996 -1.1377e-21)
(1.98524 0.0509925 -1.75703e-20)
(2.48613 -0.0469338 1.44177e-19)
(1.99706 0.0261671 3.22236e-19)
(1.90758 0.0363891 0)
(2.66047 0.0549478 -8.798e-20)
(1.64871 -0.6286 -4.20103e-19)
(1.43317 -0.552204 0)
(2.29591 -0.559064 -1.238e-19)
(2.05885 0.0597553 -1.50576e-20)
(1.87949 0.0379445 -3.98705e-21)
(2.55098 -0.388709 2.87724e-19)
(1.99791 0.0836893 0)
(0.908722 -2.02488 -4.1151e-19)
(2.00198 0.0880815 0)
(3.45763 -0.443953 -4.99499e-19)
(1.38833 -0.709907 -4.75074e-22)
(1.70175 -0.695625 0)
(1.99046 0.061671 1.17003e-20)
(0.71989 -0.353471 -1.08611e-19)
(1.44676 0.033127 1.92088e-19)
(1.92528 -0.432668 -1.66695e-19)
(1.92886 -0.00218315 -3.97862e-21)
(0.526386 -0.251202 1.24498e-19)
(1.50309 -0.564148 -4.0018e-21)
(1.95059 -0.126587 2.15158e-19)
(-0.703211 -0.130479 -7.67436e-19)
(2.00281 0.0727241 2.68341e-21)
(2.05559 0.0583985 3.52658e-21)
(1.99919 0.0704243 -9.00521e-21)
(2.44241 -0.412652 -4.02031e-20)
(1.72944 -0.235715 -2.02206e-18)
(1.63908 -0.0831419 0)
(2.01558 0.00566999 1.80146e-21)
(1.6364 0.384372 -1.67723e-20)
(3.57048 -0.691052 -3.64072e-20)
(2.2599 0.0495005 -1.4764e-20)
(1.44612 -0.245908 -1.11399e-18)
(1.42779 1.63835 0)
(1.70783 0.463775 1.30222e-20)
(2.0016 0.0507532 -4.83722e-19)
(1.87664 0.222841 -2.13388e-19)
(1.91925 0.958418 -1.49156e-19)
(2.69673 -0.250995 -5.90829e-20)
(2.11242 -0.640982 -1.56374e-19)
(1.50729 -0.338191 1.46842e-19)
(1.66078 0.0850622 1.49158e-20)
(1.84725 -0.595896 6.74666e-20)
(2.0248 0.0114837 3.07593e-22)
(-1.43925 0.295611 0)
(1.26511 -0.601132 5.50476e-20)
(1.97217 -0.254722 -5.54175e-19)
(-2.51301 1.59047 6.45564e-20)
(2.05399 0.00592803 0)
(2.46132 0.621503 1.39545e-20)
(1.3544 -0.641578 5.86526e-22)
(1.88291 0.0391476 4.33074e-21)
(1.3949 1.57978 0)
(-2.46945 1.39347 6.15517e-20)
(1.96514 0.0630026 1.31877e-21)
(1.84842 0.0779673 2.70284e-21)
(1.64928 0.164995 2.55025e-18)
(1.75347 -0.799465 0)
(1.24038 -0.597844 0)
(2.5663 -0.359578 -1.11017e-19)
(1.6544 -0.609839 3.04007e-21)
(2.06647 0.0379745 1.17142e-21)
(1.10199 -0.0830384 0)
(1.18693 -0.589344 -2.52253e-19)
(2.06859 0.5857 0)
(2.03938 -0.0418058 0)
(1.93781 -0.128767 0)
(1.98493 0.0396314 1.08277e-20)
(1.44428 -0.565805 3.33958e-20)
(0.704756 -1.95757 0)
(1.82107 -0.54205 0)
(1.86084 0.0719222 -1.47473e-21)
(1.89005 -0.688369 0)
(1.89847 0.032012 0)
(2.19475 -0.288747 6.37126e-21)
(2.18228 0.052966 8.42208e-20)
(1.92149 -0.0126381 -2.0799e-20)
(1.70545 -0.618496 -4.13994e-20)
(1.91121 0.0310207 -1.75583e-22)
(2.08546 0.342259 -9.05831e-19)
(1.36315 -0.00355289 9.11956e-19)
(-0.415221 -0.149535 1.07403e-18)
(2.0001 0.0198678 -5.28867e-20)
(1.91828 0.417622 -2.33426e-19)
(0.698405 0.713763 -1.592e-19)
(1.78027 -0.798622 0)
(1.99124 0.0385465 -3.26714e-21)
(2.00949 -0.602512 -1.06956e-19)
(2.56523 -0.216338 -2.79288e-19)
(2.69984 0.0168042 7.19965e-20)
(2.57544 -0.153702 0)
(1.65743 -0.0764814 0)
(2.05913 8.07745e-05 4.81865e-21)
(2.95749 -1.03346 -6.51957e-19)
(2.24793 0.404696 -1.6573e-20)
(0.325548 1.64554 0)
(2.49612 -0.0680132 0)
(2.03351 0.0132892 0)
(2.00902 0.0213202 4.69178e-21)
(2.43953 -0.478081 0)
(2.0302 0.00498554 -1.89109e-21)
(1.6137 0.382802 -1.42345e-19)
(2.19194 0.274676 0)
(2.20228 0.033501 0)
(1.55191 -0.711509 0)
(0.336637 -0.290964 -1.15876e-20)
(1.75173 -0.715912 5.99211e-19)
(2.05139 0.156283 3.7529e-20)
(2.43311 -0.0272179 8.938e-20)
(1.75772 -0.696059 -9.10247e-19)
(2.42031 -0.356555 2.37258e-20)
(0.781354 -0.375019 2.86795e-19)
(1.89018 0.029977 0)
(2.60181 0.5709 -9.78559e-20)
(2.40861 0.587708 -3.62337e-20)
(0.482526 -0.154111 -6.94793e-19)
(2.23443 0.391691 4.35927e-20)
(-0.422301 -0.266155 2.91068e-19)
(0.777911 -0.0328149 -3.72101e-20)
(2.18211 0.24801 7.11057e-20)
(2.00157 0.100821 -3.82304e-19)
(2.34436 -0.225629 9.59332e-21)
(2.02518 0.00924995 1.01764e-21)
(1.35073 -0.859037 0)
(2.53453 0.938564 1.4142e-19)
(2.67869 -0.270311 4.00388e-19)
(1.96939 0.0626819 -5.35008e-19)
(2.56943 -0.129825 0)
(2.00404 -0.304474 5.86684e-19)
(2.06181 0.044389 2.46157e-21)
(2.42503 -0.193447 -4.598e-21)
(0.391727 -0.279327 0)
(2.29189 0.1372 3.70663e-20)
(2.2509 -0.0818844 -1.19667e-19)
(2.03904 0.0117515 -2.26741e-22)
(2.09917 -0.144445 -4.47061e-20)
(2.41064 -0.803788 0)
(1.06236 -0.514396 -3.23828e-19)
(1.99069 0.0443135 0)
(2.11624 0.00645947 0)
(1.86969 0.0376564 0)
(1.35477 0.817363 -2.93872e-19)
(1.8545 0.0227138 0)
(0.259729 -2.12061 -1.21949e-19)
(1.69799 -0.645559 9.60524e-20)
(2.37148 -0.0230081 4.97647e-20)
(1.08411 -0.538186 -1.24532e-19)
(2.5678 0.539569 -4.76646e-20)
(1.44503 -0.687691 2.74731e-20)
(2.19461 0.0585936 -2.49206e-21)
(1.35379 -0.657506 -3.31817e-19)
(1.63005 -0.715044 5.07248e-20)
(2.04326 0.156461 -4.54771e-20)
(1.84612 0.0156149 -1.05279e-20)
(1.44307 -0.546425 -1.28604e-20)
(1.87826 -0.0418055 4.37776e-19)
(1.8664 0.0396581 0)
(2.29274 0.122284 0)
(2.21954 -0.0886025 1.65901e-19)
(1.98923 -0.616528 1.07022e-19)
(1.63779 -0.0440948 5.26823e-19)
(1.95977 0.0626498 8.66618e-22)
(2.40381 0.137218 -2.00759e-20)
(1.77398 -0.255892 1.2919e-20)
(2.12725 -0.233782 0)
(1.91547 0.947931 4.01193e-19)
(1.58709 -0.368354 0)
(3.14304 0.307241 0)
(-2.45602 1.56392 -2.42708e-18)
(2.5136 -0.0672613 0)
(1.99246 -0.596731 2.48678e-19)
(2.446 -0.0153022 0)
(2.75132 0.162186 -7.92229e-21)
(1.27974 -0.610207 2.02396e-19)
(2.52884 0.215281 -5.69987e-21)
(1.45691 -0.724341 1.97802e-20)
(1.80351 -0.136642 2.47723e-21)
(1.73484 0.414311 5.9124e-22)
(2.01357 -0.29555 -1.88404e-19)
(1.17353 -0.232789 5.24951e-20)
(2.56976 -0.25897 3.51651e-19)
(0.909283 -0.443782 2.23378e-19)
(1.46995 -0.711407 0)
(1.05894 -0.518874 2.39353e-20)
(2.03712 -0.101384 7.262e-20)
(2.13882 0.00604077 -8.30311e-21)
(0.92118 -0.448252 6.47374e-19)
(2.40503 -0.112782 0)
(2.51291 -0.440058 0)
(2.00829 0.0601352 5.83849e-19)
(2.06837 0.0234872 0)
(0.923601 -0.461054 2.16127e-19)
(1.86367 0.118015 6.11209e-21)
(1.81127 0.0898942 0)
(2.31864 -0.0189533 -4.0824e-20)
(2.13231 -0.456406 2.48548e-19)
(0.602039 -0.25904 1.93612e-18)
(2.06173 0.478996 0)
(1.27138 -0.676692 -2.39013e-20)
(1.0681 -0.0523715 8.20712e-20)
(0.993215 -0.488395 3.19296e-19)
(1.85121 0.0735147 0)
(1.75503 -0.0871048 1.07951e-20)
(1.31961 -0.933642 1.87465e-20)
(2.56442 -0.269342 9.49625e-20)
(1.76355 -0.258244 -1.63349e-20)
(0.23186 -0.252899 1.21712e-20)
(2.47651 -0.431055 1.76067e-19)
(1.79394 0.254741 0)
(1.87052 0.110822 -7.66713e-22)
(2.44279 -0.399182 -2.31486e-19)
(1.32026 -0.900975 -2.34156e-20)
(2.22096 -0.7489 -1.89652e-19)
(0.428187 -0.33954 0)
(1.82614 -0.133395 -3.14769e-20)
(1.45117 -0.701779 -4.03458e-20)
(2.02074 -0.00707648 -2.5221e-19)
(1.42263 -0.961732 0)
(1.60297 0.89177 2.00644e-19)
(1.96069 0.0698919 -1.44394e-19)
(2.1411 -0.235887 0)
(2.55292 0.0797294 6.36938e-20)
(1.19858 -0.583085 2.68201e-19)
(2.13677 -0.425806 -1.38595e-19)
(1.76632 -0.0726145 0)
(1.51656 -0.530972 0)
(1.83848 0.0706665 7.02174e-23)
(2.30039 0.425408 2.92936e-20)
(1.53055 -0.529232 5.05652e-20)
(2.11336 -0.21231 -2.13717e-19)
(1.93512 0.0901576 3.15182e-19)
(2.36191 -0.967642 -1.86902e-19)
(0.513331 -1.71749 3.83505e-19)
(-2.32316 0.708579 2.21051e-18)
(2.60777 -0.202209 3.29223e-19)
(1.88558 -0.0228733 2.72795e-20)
(2.73727 0.174145 7.47233e-21)
(2.00762 -0.00837191 0)
(1.46052 -0.707949 0)
(1.95969 0.12956 -1.42433e-20)
(1.22335 -0.592259 2.4717e-19)
(1.99533 0.0252812 -5.22318e-20)
(2.02 -0.0886482 6.78037e-20)
(2.06715 -0.123558 0)
(2.04119 -0.0311865 -1.14898e-19)
(2.50901 0.102936 -5.11739e-20)
(1.92281 0.0824588 -2.89846e-19)
(2.52818 -0.587554 6.43927e-20)
(2.08956 -0.357146 -3.15329e-20)
(1.41112 -0.547263 -3.14786e-22)
(2.28029 0.409997 -2.52221e-20)
(2.53663 -0.276755 1.15011e-19)
(1.98292 0.0473713 -3.93581e-21)
(1.33064 -0.611984 0)
(0.3758 -0.0874921 0)
(2.33961 -0.0201557 8.23113e-20)
(1.68695 0.364743 -1.1496e-20)
(1.99093 0.0481902 0)
(2.40524 1.50821 -1.88611e-18)
(0.520798 -0.267171 0)
(2.42983 0.94058 -3.48102e-20)
(2.57109 -0.351777 -1.10834e-19)
(2.1365 -1.86064 0)
(1.90781 0.410263 -1.42542e-19)
(1.97224 0.1278 2.11261e-20)
(1.87357 0.219204 -1.82776e-20)
(1.88078 -0.0411354 -4.81165e-19)
(1.84753 -0.147811 0)
(1.98844 0.0530472 -2.12463e-20)
(1.94293 0.110695 7.4494e-22)
(1.97207 0.0599269 6.73416e-20)
(1.64442 0.127028 -2.78285e-19)
(0.799956 0.683867 2.95329e-19)
(2.64084 -0.250824 1.03513e-19)
(2.2474 -0.403558 -5.94446e-19)
(2.12444 -0.212483 0)
(2.4237 0.167859 2.30807e-21)
(2.2831 -0.412381 -1.0789e-19)
(2.00013 0.0334483 7.00966e-19)
(2.13876 -0.644703 0)
(2.74427 -0.293038 -2.00526e-20)
(1.47782 0.37229 0)
(2.55075 -0.476965 -1.71331e-19)
(1.91187 -0.562847 -1.84272e-19)
(0.712191 -0.337396 2.66218e-19)
(2.41898 -0.492638 -1.57467e-19)
(2.02997 0.169804 0)
(1.87703 0.126309 1.33457e-20)
(1.83345 -0.147156 3.52885e-20)
(1.65425 0.137066 2.62775e-19)
(2.29805 -0.418146 4.22349e-19)
(2.42079 -0.201327 1.94135e-19)
(0.629817 -0.741848 -8.22146e-20)
(2.03199 0.0133836 3.43485e-22)
(2.24223 -0.21242 0)
(1.05986 -0.386438 6.43032e-19)
(3.14529 0.29065 0)
(1.95159 0.130584 -7.36775e-22)
(2.25179 -0.110372 3.51299e-19)
(2.48224 0.163925 -5.15425e-20)
(2.5419 0.0849588 4.79366e-20)
(-1.15204 0.155205 -5.1575e-19)
(1.9397 0.0783041 3.62406e-19)
(2.01006 0.0093169 0)
(-0.928299 -0.404204 -6.21626e-19)
(2.20617 -0.290426 -1.25245e-19)
(1.71918 0.334421 6.41585e-21)
(1.99105 -0.575148 1.01051e-19)
(2.45142 -0.00748077 0)
(2.74991 -0.217463 4.98824e-20)
(1.80686 0.186165 5.57243e-19)
(1.94981 0.0830161 4.38165e-19)
(2.09661 -0.257148 0)
(2.05094 -0.0024753 -3.53176e-22)
(2.05505 -0.121175 -6.82067e-20)
(2.3832 0.599342 4.6222e-19)
(1.60642 -0.0618447 7.31806e-20)
(2.20501 -0.254026 1.19053e-19)
(2.05306 0.00138385 -2.38172e-21)
(2.23212 -0.204726 0)
(2.71877 0.246762 -1.70818e-20)
(1.15734 -0.691391 2.23258e-20)
(2.42406 0.316059 3.84967e-20)
(1.9894 0.0326296 2.72299e-19)
(1.37178 0.025823 0)
(1.92263 0.130494 2.18822e-20)
(2.2566 -1.68891 0)
(3.53451 0.681817 -3.48424e-19)
(2.03283 -0.0214972 0)
(2.12735 -0.728656 -5.79268e-21)
(1.34895 -0.137021 -1.56808e-19)
(1.58813 0.82307 4.88234e-19)
(2.02544 0.760851 -1.81594e-18)
(1.7884 -0.0821677 0)
(2.30162 0.0421047 -3.95992e-20)
(2.03366 0.183309 -1.48383e-19)
(-0.497417 0.660512 -6.34745e-19)
(1.39251 -0.707534 3.60261e-21)
(1.66473 -0.0588462 -7.95052e-19)
(2.187 -0.219695 7.41559e-20)
(2.08205 0.165083 9.90343e-20)
(1.49087 -0.482503 0)
(1.39955 0.298155 2.99005e-19)
(2.00502 0.0372191 1.02224e-20)
(0.612169 -0.306513 6.35774e-20)
(1.19192 -0.677312 -7.89366e-20)
(-1.40447 1.44829 -1.38213e-18)
(2.61099 -0.204971 0)
(-0.884927 1.09029 0)
(2.10498 1.10299 0)
(2.06501 -0.0911151 0)
(0.647448 -0.172747 -3.72892e-20)
(2.53745 -0.447256 0)
(2.05028 0.942155 0)
(1.67695 0.105656 1.08438e-19)
(2.64537 -0.271846 -4.14051e-19)
(2.21214 -0.199887 -2.8801e-19)
(1.73297 0.341134 8.93477e-19)
(2.00915 0.018878 -7.70178e-20)
(2.50258 1.62704 0)
(2.2684 -0.229639 0)
(1.9158 0.091274 3.09467e-19)
(2.01502 0.0462297 5.47045e-20)
(1.37297 0.868266 0)
(0.473327 -0.288827 6.87709e-20)
(2.20367 -0.762383 2.13464e-19)
(0.359914 0.270812 0)
(2.40007 -0.116613 1.91345e-19)
(1.97957 0.0533777 -3.58025e-19)
(1.05599 -0.316093 -3.65615e-20)
(1.05427 -0.371517 0)
(2.00608 0.202515 2.81228e-19)
(2.50892 0.0835176 0)
(2.0762 -0.136223 0)
(2.20648 0.154962 -1.10765e-20)
(1.90863 0.0949365 1.65046e-19)
(-1.69423 0.497061 -9.0792e-19)
(2.36464 0.592117 4.52856e-21)
(1.38066 -0.363605 -2.7876e-19)
(2.06787 -0.0796142 3.71281e-20)
(2.09591 0.171656 7.62393e-20)
(2.70365 0.254887 4.3458e-20)
(2.29266 -0.746132 0)
(2.22559 -0.431216 1.39126e-19)
(1.35751 -0.0711926 0)
(1.94167 0.126645 -1.29843e-20)
(2.32622 -0.230057 0)
(1.4711 0.0483108 4.05758e-19)
(-0.241113 1.8382 -2.65345e-18)
(2.16752 -0.207399 0)
(-0.309068 0.214556 5.14198e-20)
(2.25214 -0.247638 -1.75658e-19)
(1.9281 0.316382 2.96043e-20)
(1.78921 -0.287882 7.61782e-19)
(1.48468 0.802976 -3.11448e-19)
(1.37034 -0.35105 -7.92255e-19)
(3.5339 0.629361 0)
(1.98768 0.0390266 -1.00507e-20)
(0.594573 -0.788706 -2.2047e-19)
(2.02313 0.203033 0)
(1.8587 0.254143 1.99007e-20)
(2.49917 -0.0421797 -2.99549e-20)
(2.85548 0.902873 0)
(2.00462 0.0212277 0)
(0.583638 -0.281791 0)
(1.38267 -0.872609 8.23243e-20)
(2.29688 -1.01669 2.24374e-19)
(2.88017 -0.98413 2.68905e-20)
(2.38675 0.902726 0)
(1.72524 -0.184824 5.16947e-19)
(2.03327 0.00888739 -2.03358e-21)
(2.3591 0.546969 1.10478e-21)
(1.14387 -0.587412 8.88451e-20)
(1.93126 0.135819 0)
(2.02719 0.0175457 0)
(0.793472 -0.145158 -4.37489e-19)
(1.46726 -0.473369 -1.94892e-19)
(1.953 -0.197811 0)
(1.27454 -0.620358 -2.39438e-19)
(2.07567 0.00933899 3.33912e-21)
(2.02762 0.00528972 -7.17287e-22)
(0.803355 -0.378466 0)
(1.89854 0.00474186 2.02155e-20)
(1.99082 0.0378756 -9.58339e-21)
(2.50221 0.0692942 1.06838e-19)
(1.8977 -0.57984 0)
(-2.315 0.796441 -3.43766e-18)
(2.50884 0.127798 5.58221e-20)
(2.00017 0.0910558 6.07029e-20)
(2.0092 0.0150219 -4.84237e-21)
(2.64464 0.535767 0)
(1.7068 0.331027 -2.37791e-19)
(2.9979 0.0588148 -2.28316e-19)
(-1.86468 1.66023 2.71881e-19)
(2.00402 0.0498919 0)
(1.4007 -0.710936 -3.66498e-21)
(0.532548 -0.12272 0)
(1.99889 0.0490924 -2.34719e-19)
(1.99077 0.0717154 1.06808e-19)
(1.87447 0.0602937 -6.0629e-20)
(1.32757 -0.873503 0)
(2.17601 0.0431681 -2.55095e-20)
(1.14545 0.446677 8.20588e-19)
(2.26597 -0.741101 0)
(1.64776 0.0858091 3.39165e-19)
(2.50426 -0.595836 -7.32958e-20)
(2.17139 -0.0159626 0)
(1.45277 -0.704724 1.99527e-20)
(1.66996 -0.0546007 -1.52351e-20)
(2.05271 0.00845123 0)
(-2.31974 1.042 2.67502e-18)
(1.84409 0.245967 0)
(1.70734 -0.78552 2.43952e-19)
(1.24964 -0.701236 4.74545e-20)
(2.04244 0.014475 2.48121e-22)
(2.40712 0.111391 -4.95917e-20)
(1.39088 0.279303 1.58945e-19)
(1.78076 -0.315788 -2.81047e-19)
(1.80056 -0.0715865 -1.2911e-20)
(1.75354 -0.796915 2.51899e-21)
(2.18534 -0.257949 1.15679e-19)
(2.64375 0.542668 2.00699e-19)
(1.8178 -0.813049 0)
(2.00058 0.0253121 -2.41474e-19)
(0.468923 -0.000384492 -4.29648e-19)
(1.38322 -0.0842111 0)
(2.02042 0.0468814 3.99917e-21)
(1.90345 0.014936 0)
(1.26822 -0.382203 6.83986e-19)
(2.09592 -0.790145 0)
(1.98348 -0.00599997 7.0316e-21)
(2.24548 -0.0995841 -1.99992e-19)
(1.45374 -0.700545 3.62912e-20)
(0.648986 -0.30512 7.77414e-20)
(2.38099 -0.0178369 -1.6955e-21)
(1.29988 -0.617161 2.15444e-19)
(1.80711 -0.536772 2.70158e-19)
(1.50261 -0.347425 0)
(-0.13479 -0.0552296 -1.06146e-19)
(2.31574 -0.690866 -4.44303e-20)
(-0.198006 -0.127661 -1.2762e-19)
(2.02188 0.00671943 4.81508e-22)
(1.48916 -0.599375 0)
(2.21994 -0.0273894 -1.01877e-21)
(0.503429 -0.317559 0)
(1.40781 -0.66784 3.13569e-22)
(1.16837 -0.362207 4.86711e-20)
(0.058539 -0.186686 0)
(2.06911 -0.560899 7.94091e-20)
(1.68682 -0.677648 0)
(2.85209 0.816178 0)
(1.46831 -0.697448 -3.21712e-19)
(1.50353 0.343088 2.41091e-19)
(1.47636 -0.144771 0)
(1.78829 0.211421 -1.51891e-19)
(3.03407 -1.03202 7.76672e-19)
(1.08038 -0.729407 1.06978e-19)
(2.92056 1.21771 0)
(2.14896 -0.038415 0)
(0.449332 -0.877802 -1.15568e-19)
(1.88302 -0.118637 0)
(2.30235 0.0529889 0)
(0.953227 -1.89338 -2.24128e-20)
(2.06764 -0.412026 -3.8078e-19)
(1.76203 -0.443727 2.33454e-19)
(2.43441 -0.474254 2.47797e-20)
(-0.0485855 -0.111474 1.88119e-19)
(2.00094 0.064441 1.22552e-19)
(1.53707 -0.381055 0)
(2.20814 0.439094 -3.34291e-20)
(1.44025 -0.215454 0)
(2.19134 0.0256221 0)
(1.99829 0.0992208 0)
(2.20975 0.139511 -9.19341e-21)
(1.85728 -0.0372771 2.23651e-19)
(2.08113 0.0184076 -6.94969e-21)
(1.57963 -0.387757 0)
(-1.28482 0.341777 -4.91603e-19)
(2.13394 1.05061 2.66995e-20)
(1.88764 -0.702241 2.56743e-20)
(1.93083 -0.0219209 -4.2335e-20)
(2.10859 -0.410381 2.227e-19)
(2.05656 0.0709407 -2.04143e-19)
(-0.182983 2.10779 0)
(2.52054 0.0926317 0)
(1.5016 0.828328 0)
(1.25394 -0.575779 -4.91201e-19)
(1.52324 -0.665725 -4.67353e-20)
(0.226751 -0.119306 0)
(2.23121 0.445311 0)
(2.79198 0.0772733 2.32498e-20)
(2.00427 -0.0421627 -5.87728e-20)
(1.95994 0.615466 2.25951e-19)
(1.62054 -0.70415 0)
(-0.70771 -0.845537 -1.73797e-19)
(2.32581 0.0564497 4.99984e-21)
(1.43754 -0.43539 -4.66182e-19)
(2.22933 0.0421784 -4.68781e-20)
(2.35206 0.549523 3.3179e-20)
(1.93125 -0.827256 8.6012e-20)
(1.25307 -0.579345 8.57927e-19)
(1.74085 -0.420353 6.32902e-20)
(2.07289 0.0291923 2.59198e-21)
(1.99822 0.0127846 -6.17503e-20)
(1.15333 -0.5419 -7.58621e-20)
(1.68203 -0.0421134 6.3803e-21)
(1.7361 2.06846 4.23793e-20)
(1.29472 -0.620876 1.23029e-19)
(2.3653 0.176828 0)
(1.87817 0.577842 -2.85881e-21)
(2.18947 -0.0427116 -1.90114e-19)
(2.95018 0.453799 1.37709e-19)
(1.40894 -0.397728 -4.251e-19)
(1.87331 -0.674973 -2.79e-19)
(2.02754 0.0203288 5.62065e-19)
(2.42492 -0.0424299 -3.20783e-19)
(2.85416 0.789704 2.57938e-19)
(2.63431 -0.192564 -1.6768e-19)
(1.18411 -0.191572 -9.27631e-19)
(2.10503 -0.0284336 -1.40952e-19)
(1.17023 -0.256449 0)
(1.45793 -0.710972 -8.37405e-20)
(1.93973 0.00551103 5.2438e-19)
(1.80254 -0.00887656 -2.08308e-21)
(-0.633882 0.0597101 0)
(1.52471 -0.702128 0)
(2.06318 0.446754 1.96539e-19)
(1.05629 -0.18526 5.76593e-19)
(1.68118 -0.811451 -1.0344e-19)
(2.15001 -0.724074 -1.36738e-19)
(2.26249 -0.416552 3.24199e-19)
(3.1844 0.225837 0)
(2.07302 0.48019 1.02976e-19)
(1.43561 -0.545081 -3.08559e-21)
(2.59001 0.922972 1.57637e-19)
(1.98212 -0.278404 -3.33965e-19)
(0.03002 -0.231393 -2.87934e-19)
(2.10143 -0.378961 -2.17788e-19)
(2.20679 -0.452924 7.41222e-20)
(2.36963 1.1298 0)
(1.909 -0.164948 -2.8003e-20)
(1.88109 0.0599302 5.59008e-20)
(2.02423 0.006842 1.84929e-21)
(0.81598 -0.397004 7.86919e-19)
(1.96318 -0.277883 5.00081e-19)
(2.0328 0.149907 -1.76862e-20)
(1.10642 -0.702289 -5.9094e-20)
(2.08931 -0.0839323 -8.28256e-20)
(2.23598 -0.0255854 1.25129e-19)
(0.393318 -1.80127 -5.17662e-20)
(2.4909 0.898418 -1.67472e-19)
(-2.35219 1.29677 -2.89607e-18)
(0.95315 -0.468362 -2.59887e-19)
(2.01606 0.000432374 0)
(2.05903 0.0649433 -1.30034e-20)
(1.03052 -1.23519 -6.81323e-20)
(1.34284 -0.165696 8.44171e-19)
(2.0553 0.0192157 0)
(2.08374 -0.378852 1.90797e-20)
(1.22074 -0.51735 1.94556e-19)
(1.99435 0.0455614 -5.24373e-19)
(0.821394 -0.497383 -6.30334e-20)
(1.45986 -0.124387 -5.64881e-21)
(2.22097 -0.208817 1.95894e-19)
(2.26982 0.0409101 5.46541e-20)
(1.72477 -0.793779 -3.38144e-19)
(2.06354 0.0262737 9.66069e-21)
(1.5378 -0.693534 -1.17128e-19)
(2.11388 -0.0471683 1.78285e-19)
(2.04539 -0.0696063 -1.60723e-19)
(2.15058 0.0820767 -5.7395e-21)
(2.16075 -0.0390521 -3.50745e-19)
(1.15724 -0.523115 -3.75813e-19)
(2.06728 0.0356682 0)
(1.38767 -0.778699 5.85742e-20)
(2.1076 0.0703671 3.93229e-20)
(0.938613 -0.168446 -5.72817e-20)
(2.35334 0.0257008 -3.19583e-20)
(2.20538 -0.432715 -1.99498e-19)
(2.00139 0.0173169 -4.01091e-19)
(2.12099 0.279444 5.76541e-20)
(0.462894 -0.261284 -7.06715e-20)
(2.29884 0.0437868 0)
(1.92035 0.123154 -1.09231e-20)
(2.47432 0.190371 5.2755e-20)
(1.49645 -0.583892 0)
(2.15673 0.0631539 1.01004e-19)
(2.40113 0.191388 6.64012e-20)
(2.24847 0.0468539 7.23392e-24)
(2.39728 -0.807218 -7.8874e-21)
(1.86567 0.010441 0)
(1.80451 0.372437 4.26212e-19)
(2.05205 0.119208 2.02981e-20)
(1.26894 -0.614637 2.7078e-19)
(2.01691 -0.189846 0)
(1.49926 0.300614 -6.9812e-19)
(1.51172 -0.58743 4.05378e-20)
(2.6616 1.38633 -3.79587e-19)
(1.19469 -0.215608 9.01315e-19)
(2.04885 -0.0220652 1.2128e-20)
(0.702081 -0.332465 5.99337e-20)
(1.91943 -0.0971432 -3.49063e-19)
(2.26742 -0.405349 -2.07005e-19)
(1.78615 0.186105 -3.21919e-19)
(2.0119 0.00647611 0)
(1.98737 0.0393408 -2.33826e-19)
(0.103042 -0.116263 1.74841e-19)
(-0.993646 -0.387747 0)
(2.06853 -0.634086 0)
(2.0201 -0.000986282 0)
(-2.19237 1.73267 0)
(2.05253 0.2871 0)
(1.12552 -0.183929 0)
(1.81096 -0.267849 -2.03305e-21)
(2.75195 -0.941042 -3.18212e-19)
(2.55384 0.221423 0)
(1.78396 0.372809 6.44092e-19)
(1.19522 -0.737289 -2.13395e-19)
(2.08063 0.177248 6.45526e-21)
(0.994252 -1.41523 -4.73903e-20)
(1.13587 0.0677056 -2.56638e-21)
(0.59501 -0.339065 5.70526e-20)
(1.99032 0.00882319 -1.27375e-19)
(2.49324 -0.0723539 1.97811e-20)
(2.04199 0.265361 -1.38934e-19)
(1.88483 0.204863 -4.27562e-19)
(2.06293 0.98153 -1.18773e-19)
(3.43806 0.685945 0)
(1.35598 -0.711066 1.37396e-20)
(1.28846 -0.395638 -7.49631e-19)
(2.01135 0.0338746 -7.24175e-19)
(2.3276 -0.698758 -2.50334e-19)
(2.03654 -0.0215484 5.55485e-20)
(2.61496 -0.662448 1.35428e-20)
(2.1386 -0.333257 -4.33886e-20)
(2.08417 -0.549697 -2.75061e-19)
(2.03312 0.160437 1.54492e-19)
(2.61586 1.45198 0)
(1.8051 -0.0485439 -1.11607e-20)
(1.69839 0.0860514 -9.9448e-20)
(2.55944 -0.422234 0)
(1.8388 0.0564445 0)
(1.77178 -0.814647 -3.39867e-21)
(0.906815 -0.4243 6.47565e-20)
(1.79507 -0.275551 -6.71219e-20)
(1.92397 0.0413261 0)
(1.90537 -0.0513357 -4.57748e-19)
(1.8147 0.258686 -8.31258e-20)
(1.41897 -0.742497 3.4078e-20)
(2.3181 0.131628 3.86997e-20)
(0.638517 -0.33636 0)
(1.33418 -0.698835 1.70954e-20)
(2.37733 0.164339 0)
(1.88905 -0.171483 2.8804e-20)
(2.76057 -0.230668 -4.68491e-20)
(1.9983 0.0297175 7.76771e-23)
(2.42613 0.596043 6.57692e-20)
(2.87252 1.08621 -3.98346e-20)
(1.76045 -0.516601 5.60953e-19)
(1.4004 -0.631712 0)
(1.65065 -0.603756 -8.90021e-20)
(1.41762 -0.441707 0)
(2.59824 0.189303 -5.32282e-20)
(1.4133 -0.731854 6.79458e-20)
(2.04248 -0.622399 1.34408e-19)
(1.90781 0.116913 9.40875e-21)
(1.30286 -1.0167 -1.3252e-19)
(1.08796 -0.536168 -3.12699e-19)
(1.33224 -0.402062 -4.34445e-19)
(2.00458 0.0457085 -3.58434e-21)
(1.66263 -0.58562 7.30072e-20)
(1.20094 -0.539303 3.09092e-19)
(1.39033 -0.4294 4.77039e-19)
(1.51438 -0.656424 5.65446e-20)
(1.73155 -0.620004 -4.72068e-20)
(1.86393 -0.598002 2.78402e-19)
(1.23218 1.43534 1.82351e-18)
(2.08019 0.00387402 6.10631e-21)
(1.22907 -0.670597 1.7861e-19)
(2.34936 0.364412 -1.38239e-20)
(2.27029 -0.580894 0)
(-1.72001 1.31158 -2.7898e-18)
(2.09005 -0.0426593 -2.41872e-19)
(2.00071 0.121889 0)
(2.57144 0.185305 0)
(1.55512 -0.551198 -6.02447e-20)
(2.3722 -0.573815 -2.24035e-19)
(2.40965 0.150508 6.47094e-20)
(2.0637 -0.401833 4.99153e-19)
(2.0394 0.940429 1.15406e-19)
(1.55599 -0.00876177 3.57587e-19)
(1.39107 -0.745948 -1.75314e-21)
(1.83708 0.635048 0)
(1.42078 -0.462917 4.56803e-19)
(1.27345 -2.17456 4.41629e-19)
(1.29807 -0.97795 9.90086e-20)
(1.74794 -0.681044 9.2455e-20)
(1.42768 -0.646932 -5.95099e-20)
(1.91905 -0.000537961 1.83243e-19)
(1.87452 0.0813237 -2.03892e-21)
(2.07553 -0.22957 1.47731e-19)
(1.37964 -0.749205 -4.6183e-20)
(2.39656 0.153138 -4.57705e-20)
(1.94373 0.071198 1.80958e-19)
(1.1651 -0.245311 -3.70344e-19)
(1.87965 -0.0846714 2.85496e-19)
(2.69356 0.635957 0)
(2.4192 0.303398 -5.44959e-20)
(1.96453 0.0623872 4.04307e-20)
(1.49282 -0.313473 -1.46401e-19)
(1.98532 1.83843 9.43867e-20)
(1.83474 -0.584316 2.07324e-19)
(2.03221 0.000743215 7.81959e-20)
(1.39904 0.133238 -5.48608e-19)
(2.53981 -0.429051 0)
(1.91827 0.105189 1.62849e-20)
(2.23763 0.0546298 6.38575e-20)
(1.92408 -0.0320147 0)
(1.42667 0.0261423 3.14427e-19)
(2.32233 0.137488 0)
(1.87159 1.85233 -4.79206e-20)
(2.37404 -0.0115296 0)
(1.79909 -0.0636107 0)
(2.46896 0.0248379 4.5259e-20)
(2.37829 0.122764 -1.71579e-20)
(2.755 -0.0643344 -3.26549e-19)
(1.92973 0.130657 -1.94056e-19)
(1.66037 1.18205 -1.16791e-19)
(2.0052 0.084489 -7.32278e-20)
(2.08918 0.29596 0)
(3.81269 -1.38177 -1.76302e-19)
(2.44206 0.0971121 6.8454e-20)
(1.87578 -0.152564 -5.89724e-20)
(2.26917 -0.575335 0)
(2.97554 0.443405 2.07123e-19)
(2.33404 1.64715 2.50176e-20)
(2.07867 5.74535e-06 2.4452e-20)
(1.66754 -1.09598 0)
(1.16232 -1.89791 2.65881e-19)
(2.05008 0.15665 0)
(2.09946 -0.202892 -7.48632e-20)
(0.569926 -0.293532 0)
(3.82465 -1.05411 0)
(1.73026 -0.446934 0)
(2.05415 -0.7851 0)
(-0.0781086 -1.87928 -1.29091e-19)
(1.3994 -0.852575 -1.7719e-20)
(1.85569 -0.0338028 -3.3545e-19)
(1.45321 -0.707805 -4.51555e-20)
(1.28399 -0.568427 0)
(1.47062 -0.723914 -3.47518e-20)
(0.389269 -0.212497 -1.92907e-18)
(1.50083 -0.709363 0)
(1.49554 -0.545222 -4.87643e-19)
(1.99659 0.068416 3.42273e-21)
(2.33396 0.354239 2.53018e-20)
(2.41072 -0.825477 5.67942e-20)
(1.88157 0.185231 0)
(2.21782 -0.72237 0)
(3.16425 -0.255704 1.8792e-19)
(1.70232 -0.0134132 1.28336e-21)
(1.97675 0.0498622 7.56864e-21)
(1.55214 -0.546202 6.84832e-22)
(2.00167 0.0100629 1.73551e-20)
(2.06426 0.0623354 4.37152e-22)
(2.0337 0.163624 2.22254e-19)
(1.93449 0.118936 -1.05281e-20)
(1.90943 -0.541915 0)
(-1.72557 0.197452 0)
(2.08547 0.0324559 0)
(1.9692 0.00734624 0)
(1.75004 -0.333417 2.06721e-19)
(2.50023 -0.147529 0)
(0.602905 -2.19529 8.71939e-19)
(1.8712 -0.831074 -7.81649e-21)
(1.35837 -0.446194 -7.16637e-19)
(1.17557 -0.773334 1.04684e-19)
(1.41245 -0.789576 -3.22293e-20)
(1.10798 -2.5423 -6.58679e-19)
(1.93443 0.00740709 6.22302e-20)
(1.32222 -0.775266 -4.51196e-20)
(1.94548 0.120372 -1.80579e-20)
(2.45351 0.0270811 0)
(2.37662 -0.399993 0)
(0.794096 0.316122 0)
(2.20267 -0.450817 1.05438e-19)
(1.72 -0.661872 0)
(1.87272 0.637779 0)
(1.99933 0.0156677 0)
(1.7813 -0.446008 2.17738e-19)
(2.07679 0.171678 -1.9904e-19)
(1.93375 0.0143585 0)
(1.84791 -0.279066 -6.62207e-20)
(1.99436 0.166341 -2.22524e-19)
(2.57996 0.823802 -3.28669e-19)
(1.5459 -0.726502 2.90114e-19)
(1.96167 0.686789 -4.86766e-22)
(1.63077 -0.104656 -1.53833e-21)
(1.83784 0.07331 -6.93027e-23)
(1.77815 -0.115005 -2.39433e-20)
(2.37084 0.131598 2.6831e-20)
(1.98938 0.044396 1.66966e-20)
(1.82023 0.0951462 -3.15452e-19)
(2.12871 -0.0453926 0)
(1.04985 -0.221592 4.35553e-20)
(1.96661 0.0760373 3.23485e-19)
(1.42142 -0.557986 2.59524e-20)
(2.13282 -0.319057 -1.26687e-19)
(1.08515 -0.206775 -6.28828e-19)
(2.36506 0.110856 -5.20216e-21)
(3.02963 0.0720104 3.28385e-19)
(1.9956 0.0927489 0)
(1.9923 0.727046 6.34475e-21)
(1.91317 0.0482222 1.52384e-21)
(1.78301 -0.123383 5.08241e-20)
(1.24912 -0.639187 -1.0182e-19)
(2.00158 0.0198776 1.70387e-19)
(2.08103 0.0343907 -2.93763e-21)
(2.04833 0.00250378 -9.38755e-21)
(2.07301 0.0225741 0)
(1.65042 -0.616198 0)
(1.35823 -0.655549 3.54564e-19)
(0.786609 -0.444797 6.76476e-20)
(2.04051 0.00339019 4.15991e-22)
(1.96681 0.0726968 6.49269e-19)
(2.00606 0.781749 -3.09183e-20)
(1.46574 0.2807 0)
(1.80831 0.120186 0)
(1.61251 -0.371046 -3.01587e-21)
(2.42242 0.00767619 7.22592e-20)
(2.00839 0.658104 2.92754e-19)
(2.54523 -0.13005 0)
(2.04206 0.00191444 0)
(2.10862 -0.61985 3.78113e-19)
(1.98741 -0.177527 2.68934e-19)
(0.11895 -0.0343928 -1.77983e-20)
(1.87452 -0.0148374 0)
(4.10997 -0.884815 3.19639e-19)
(1.92916 -0.375829 -2.7566e-20)
(1.03346 -1.16762 -8.5228e-20)
(1.98785 -0.0291269 -3.65331e-19)
(2.79786 -0.831658 0)
(2.39702 -0.593462 1.77096e-19)
(1.72307 -1.0526 -1.55357e-19)
(0.0293654 0.0187268 0)
(1.99951 0.0188366 1.40817e-20)
(1.93227 0.121542 -2.10681e-19)
(2.00203 -0.0202642 1.53429e-23)
(2.71494 -0.281385 2.96264e-20)
(1.83838 1.50016 5.96554e-19)
(1.88827 0.0429013 0)
(1.07506 -0.407676 -4.2206e-21)
(2.02842 0.874057 3.38481e-20)
(2.13738 -1.61687 -4.82644e-19)
(2.05088 0.261276 1.64888e-19)
(1.39931 -0.623631 1.53361e-20)
(1.98947 -0.011255 -7.99398e-19)
(2.02446 0.154504 1.00644e-20)
(1.85707 0.103364 -6.72282e-21)
(1.74535 -0.408484 0)
(1.89201 0.00341865 -7.61403e-21)
(1.12435 -0.525394 2.46914e-19)
(2.22665 -0.106165 -3.88104e-19)
(1.97761 0.0635561 -2.93432e-19)
(2.09002 -0.18724 6.95816e-20)
(1.68092 -0.173937 7.57217e-19)
(2.07645 0.00823291 -7.06516e-21)
(1.79803 0.126142 1.83245e-19)
(2.01173 0.0535961 1.28531e-20)
(2.45452 -0.482676 -2.86629e-19)
(2.53917 0.954273 -2.41074e-19)
(1.69929 -0.83615 8.07832e-20)
(1.97237 -0.00312966 0)
(1.29656 0.551398 0)
(0.957272 -0.2025 0)
(1.35656 -0.408801 5.54738e-19)
(2.15331 0.0674276 -4.76476e-19)
(1.80326 0.274157 0)
(1.53113 -0.333594 -4.34864e-19)
(1.77844 0.240471 0)
(1.75817 -0.306277 -3.39606e-19)
(1.86333 -0.16248 -6.10502e-20)
(1.88524 -0.510928 -3.06294e-19)
(1.96084 0.0458034 0)
(1.94984 0.0655444 0)
(1.94319 -0.0280125 3.59225e-20)
(2.5187 0.17968 5.68586e-21)
(2.41053 -0.0898993 1.33492e-19)
(2.54836 1.73684 -8.52922e-21)
(2.60412 -0.211125 0)
(1.75489 -0.662165 -1.55748e-19)