/*--------------------------------*- C++ -*----------------------------------*\
| =========                 |                                                 |
| \\      /  F ield         | OpenFOAM: The Open Source CFD Toolbox           |
|  \\    /   O peration     | Version:  2306                                  |
|   \\  /    A nd           | Website:  www.openfoam.com                      |
|    \\/     M anipulation  |                                                 |
\*---------------------------------------------------------------------------*/
FoamFile
{
    version     2.0;
    format      ascii;
    arch        "LSB;label=32;scalar=64";
    class       surfaceScalarField;
    location    "0.2";
    object      phi;
}
// * * * * * * * * * * * * * * * * * * * * * * * * * * * * * * * * * * * * * //

dimensions      [0 3 -1 0 0 0 0];

oriented        oriented;

internalField   nonuniform List<scalar> 
20045
(
1.1033
-1.24699
0.143688
-2.29068
0.941931
1.34875
0.475237
3.26544
-3.74068
0.567111
-0.700739
0.133629
-1.99298
1.77133
0.221642
-0.852078
3.88318
-3.03111
-2.11338
0.538802
1.57458
0.111358
1.00112
-1.11248
1.05635
0.853373
-1.90972
-1.3716
-0.533466
1.90506
-0.421861
1.27213
-0.850274
3.84361
-2.03424
-1.80937
0.845616
-0.845497
-0.000119653
-2.5092
1.78974
0.719464
-0.382495
2.03636
-1.65386
-2.10326
0.731658
-0.0538011
-0.604055
0.657856
2.12807
-0.661932
-1.46613
-2.96368
4.43966
-1.47597
-1.57424
0.000643497
1.57359
0.697458
-0.700577
0.0031187
0.291372
0.554245
-0.449134
-1.84155
1.245
0.919852
-2.16485
1.83231
0.0969674
-1.92928
-1.03505
2.28005
0.804506
-0.840092
0.0355853
-1.81178
3.73488
-1.9231
3.48505
0.422076
-3.90713
-3.74757
2.43103
1.31654
0.0234572
-0.534577
0.51112
2.62686
-2.23927
-0.387593
-1.15373
2.23221
-1.07847
4.27247
-2.47474
-1.79773
-1.25476
1.36612
4.61459
-2.31956
-2.29503
2.84968
0.608619
-3.4583
-0.141477
0.887442
-0.745965
-4.34739
1.7896
2.55779
1.27525
1.06611
-2.34137
-0.011514
1.11921
-1.1077
0.441623
-0.599146
0.157523
4.27016
-4.31977
0.0496029
2.91944
-0.892151
-2.02729
1.15968
1.75976
1.88654
1.95707
1.24608
-0.990357
-0.255726
2.43274
1.11173
-3.54447
3.78276
-0.933075
0.261737
3.12955
-3.39128
2.69765
-4.39819
1.70054
3.95644
-2.91782
-1.03862
-1.59388
-1.80492
3.39881
-0.213146
-0.671097
0.884243
1.10449
0.438794
-1.54328
-1.513
-0.479977
0.383534
2.70804
-3.09158
3.51672
0.179645
-3.69637
1.39269
-2.54643
4.28334
-2.99526
-1.28809
-0.257507
1.11516
-0.857653
1.55027
2.73308
1.43876
-2.49587
1.05711
0.666848
0.0306104
0.698264
0.966592
-1.66486
3.21256
0.680856
-3.89341
-0.198005
0.64935
-0.451345
-1.40201
0.184927
1.21708
1.84674
-0.790391
3.84528
-3.9912
0.145924
-0.534849
0.336844
-1.21853
2.32302
-0.603189
-2.09685
2.70004
-1.31831
1.42352
-0.105212
3.48325
-0.509477
-2.97377
2.77378
-2.39024
-0.285407
3.76865
1.1926
-1.5751
-1.19129
1.25105
-0.0597554
1.58704
-2.83717
1.25013
1.94964
2.33848
-4.28812
1.78953
-1.57262
-0.216906
2.03928
-0.600518
-4.00153
0.590917
3.41061
-0.0133052
1.11661
-0.93824
1.31596
-0.377721
2.14632
-3.24121
1.09489
-3.30029
0.0768813
3.22341
1.96386
0.443089
-2.40695
-1.88252
1.49467
0.387854
-2.86425
0.171202
2.69305
1.67479
-0.374427
-1.30037
0.894901
-1.32349
0.428589
-0.460539
-1.60452
2.06506
1.30499
-1.41138
0.106391
2.99003
0.78654
-3.77657
0.702127
0.102379
0.0709511
-0.619138
0.548186
2.56536
-1.29011
0.0556061
-0.682923
0.627316
3.14294
1.47165
-1.18824
-1.32096
-0.650418
0.721369
-0.586811
4.10353
0.160708
-1.09895
0.79532
-0.739714
0.734977
2.53168
-3.26666
2.68452
-4.00173
1.31721
0.0547896
-1.10361
0.945746
0.157861
-0.696825
0.869086
-0.172261
2.33781
-2.13978
-0.19803
-1.12201
0.908865
2.72792
-4.16368
1.43575
-0.498165
0.781183
-0.283018
0.129073
-0.835658
0.706585
2.21937
-0.387057
3.29534
0.977127
-2.48528
1.88209
2.74536
-4.10485
1.3595
0.483883
1.64418
0.821185
-1.07869
-1.72691
1.37597
0.350944
-1.66287
0.241575
-1.3213
1.07973
2.83843
1.11801
2.18404
-2.9982
0.814164
3.12748
0.296902
-3.42438
-4.1315
3.27333
0.858167
-1.44508
-0.68325
2.12833
4.10456
-1.26613
-1.37257
0.382209
1.95614
-2.04873
0.0925872
-0.398114
0.447436
-0.0493221
2.28849
1.59818
-3.88667
2.52257
-2.22576
-0.296817
-0.707343
0.169003
0.53834
-0.780075
-0.323531
4.58731
-1.84195
-1.472
1.51801
-0.0460068
2.02111
-3.3352
1.31409
0.851619
-2.4455
1.5875
1.24005
-2.82755
3.0762
-1.48916
3.82232
-0.437997
-3.38432
0.538987
-1.84354
1.30455
3.70914
-2.51339
-1.19575
-0.470764
0.794499
-0.323735
0.0434063
3.35683
-3.40023
4.21443
-0.729379
-3.4047
0.122808
3.28189
-2.1494
1.62549
0.523911
3.96183
-2.01219
0.500183
1.28935
-2.62905
2.97403
-0.34498
-2.59389
3.06913
0.0372274
-1.01001
0.972784
0.86661
-1.3761
0.509487
-0.0909316
-0.826457
0.917389
3.32234
-0.00490324
-3.31743
4.52956
-2.19128
-2.33827
-1.00097
0.910037
2.1738
-2.6842
0.510407
0.546231
-0.104608
-3.50463
-2.04363
2.37447
-0.330843
-2.45622
2.09652
0.359704
-0.0555096
-0.218728
0.274238
1.42639
2.28275
0.0620017
-0.460116
1.93054
0.025605
-2.68192
0.0528684
-2.85477
3.73122
-0.876451
-2.80124
2.94531
-0.144063
-2.38007
-1.65889
4.03896
0.334835
-1.09287
0.758031
1.41578
-1.92863
0.512849
2.37216
0.433823
-2.80598
-0.0855714
-2.90866
2.99423
-1.68721
3.2747
0.778791
-2.28095
1.50216
-1.44251
4.17043
-3.02555
2.24112
0.784435
-0.558407
0.655808
-0.097401
1.49517
-3.87002
2.37485
-3.08587
1.27409
-2.49556
-1.49108
3.55291
-2.37518
-1.17773
-1.3849
1.37339
0.823826
-0.881956
0.05813
-3.03724
-0.864702
3.90195
-2.8707
4.1091
-1.23839
3.98261
-2.68043
-1.30218
0.0521181
-0.910821
0.858702
-0.961327
-2.13357
3.0949
-1.04487
0.623007
-1.71065
0.26557
-2.38677
-0.735957
3.12273
0.582951
0.13313
-0.716081
0.0436843
-2.08731
0.56055
-0.537093
3.31718
-0.189703
-0.752111
0.610634
-0.910732
1.09433
-0.183593
-0.709631
4.03197
-3.30988
2.34855
1.8817
-0.910925
-0.970777
-2.82055
0.615078
2.20547
1.34349
2.63912
4.11843
-2.62326
2.51622
-3.97539
1.45916
1.32979
-2.45837
1.12858
0.225421
-1.79966
-2.02725
2.76223
2.51972
-3.3718
0.44535
-2.65042
2.20507
-4.036
2.01699
2.01901
-0.397934
-1.48459
0.783701
0.660626
-1.44433
1.9676
-0.199218
-1.76838
-0.736724
-2.3038
2.3472
-1.1068
-0.365201
2.14279
3.05911
-2.84721
-0.211907
-0.0471985
-0.62401
0.671209
2.52256
0.132318
-2.65487
0.383157
0.640248
-1.02341
0.0904136
2.28541
-2.37582
-1.29106
3.43739
2.35297
-1.57418
-0.650521
1.75788
-1.10736
2.74942
-0.728312
0.571784
-0.0536413
-0.518142
0.567459
0.228874
-0.796333
-0.661789
0.69672
-0.0349314
3.66814
-2.48291
-1.18523
0.968433
-3.83914
-0.741753
0.0799644
-3.18961
0.919532
2.27008
3.22652
-0.994314
1.03123
-3.886
4.82566
-2.32887
-2.49679
-0.0910117
0.673963
3.91306
-1.74057
-2.17249
-2.41752
0.411241
2.00628
-3.66969
3.65516
0.0145304
1.33196
-2.61983
1.28787
0.495614
-0.204625
-0.290988
-2.02093
2.42536
-0.404437
0.163664
-0.790325
0.626661
-0.723793
0.225628
-0.850527
0.153702
-2.72888
-1.27285
2.27392
-3.2298
0.955882
0.545813
-1.09874
0.552926
1.93311
0.693747
2.12519
-1.67984
-0.476098
1.34271
1.80519
1.42133
-2.09197
0.231587
1.86038
1.35432
2.55874
1.7424
0.293961
0.998685
-0.452872
-1.25202
-0.160695
1.41271
0.0983056
-0.656713
-2.45144
2.54185
-0.548474
0.799047
-0.250574
-3.56899
3.37042
0.198567
-0.893384
2.76403
-1.87064
-0.64565
-0.615141
1.26079
2.95808
-3.29134
0.333266
-2.17631
-1.85969
4.16403
-2.90064
-1.26339
-0.508983
0.461785
2.92061
-1.58865
-1.14059
3.4145
0.573173
-1.5644
0.991226
3.64548
-0.563467
-3.08202
3.74289
-0.871303
-2.87158
-1.18399
1.75717
3.35187
-2.00562
-1.34625
-0.750484
3.20509
-2.45461
1.10676
-2.01354
0.906779
-1.05063
0.253995
0.796631
-0.908998
0.0980847
0.810913
3.76602
-2.93764
-0.828382
-2.27195
-1.85954
2.40979
0.649326
-3.25929
-0.309702
-0.196145
0.763604
1.04909
-3.41384
2.36475
0.0175201
0.806306
-2.22474
4.51324
1.21501
2.45313
3.95011
-2.59266
-1.35745
-3.76598
3.03002
2.59271
-3.9841
1.39139
-2.44837
-0.318665
2.76703
-1.26869
-0.63478
1.90347
2.45433
-0.280532
1.22012
0.661581
1.2295
-0.513113
-1.72615
-2.81963
4.06588
-1.24625
-1.0917
0.180969
-0.944964
0.294444
0.377748
-4.04744
2.39207
-3.68314
0.745512
-1.12164
1.75001
-0.628364
-0.0261626
0.593273
-2.06388
1.18802
0.875864
1.72633
0.611486
-0.0557667
1.13745
-1.08169
1.86778
0.654795
-2.39213
3.44123
2.34013
-0.376274
-0.878213
-1.94233
4.05108
-2.6054
-1.44568
3.82118
-3.88711
1.48555
2.40156
3.12717
-3.45614
0.328972
-1.87864
1.4181
-0.648499
-0.0588436
-0.87223
-1.99202
1.34419
-2.29462
0.950434
1.63255
1.71932
2.35613
-3.57274
1.21661
1.13121
-2.28202
1.15081
-3.91573
0.615432
0.121201
1.55359
-2.4299
2.89048
-0.460584
-0.896169
1.32309
-0.426919
-2.03803
-0.0753519
-0.532215
-1.00605
1.53826
0.521329
0.00669005
-0.528019
-1.24518
-0.904216
1.37597
1.80586
-3.18183
3.68449
-2.33017
1.59965
-1.8087
-0.0699412
2.01465
-0.883444
-2.62325
-0.402307
-0.576419
0.82069
-0.244272
3.89324
-1.4605
-1.98028
3.00291
-1.02264
-0.57321
0.673905
-0.100695
2.52809
-0.560488
-1.26964
-2.1442
-2.03357
3.59181
-1.55824
2.23225
-3.66397
1.43173
1.66484
2.49919
-0.736064
0.659063
0.0770013
0.489146
-2.93752
2.75204
-4.17979
1.42775
-1.64323
0.324915
-0.356204
2.54024
-0.919722
3.3118
-1.13343
2.46322
0.803455
-3.76714
-2.92002
2.00959
0.91043
2.67642
-0.557508
-2.11891
3.71982
-0.76174
-1.73057
-2.06076
-1.89947
1.46719
1.30848
-1.43081
0.122335
1.27661
-1.27596
-3.02267
2.66647
3.47041
0.799758
-3.07371
1.09343
3.15244
-0.742654
0.55413
-0.806783
0.252653
-0.2927
-2.05175
2.34445
-3.65668
0.631969
3.02472
3.47015
-3.47015
-1.35836
3.69508
-2.33672
1.1793
-1.23506
2.10815
-1.74826
-0.359897
-3.65853
3.82562
-0.167089
1.47854
-0.143628
-1.33491
1.16805
-0.406284
-0.761762
0.634278
-1.27993
-0.0640882
2.30448
-3.44506
-3.20098
3.71717
-0.516193
-1.26794
2.64391
0.443424
0.0743364
-0.51776
-0.431398
0.470325
-0.038927
-1.54065
1.76607
3.53512
-2.67836
-0.85676
-0.492986
-1.98352
2.47651
-1.06174
1.13879
-0.0770489
0.686145
-1.20803
0.521889
-4.25557
1.83235
2.42322
-0.488547
-0.212192
0.79983
-0.245699
-0.0597475
-0.607272
0.667019
1.578
2.18802
0.616597
-0.173173
-0.516702
-0.897528
1.41423
-1.9837
3.11088
-1.12718
-0.0229998
0.793327
-0.770328
1.80327
-1.26446
3.26353
-0.461404
-2.80213
0.219838
-1.82436
-0.00560783
2.37776
1.76855
1.15952
-2.92808
2.04514
-1.64857
-0.396571
-4.0943
0.689608
-1.70382
1.07482
0.629005
1.19413
1.98131
-3.17544
-2.65716
2.33849
0.336077
-3.66955
3.33347
-0.661326
0.713444
-0.581382
0.681124
-0.0997416
0.16655
-1.41857
-2.00057
0.216
1.78457
-2.61285
-0.576756
2.44611
2.11845
-0.845607
-1.27285
-0.619364
0.0461537
0.586445
-2.76565
2.1792
0.494277
2.05086
-2.54513
0.960248
-2.83539
3.29264
-0.457248
-2.85447
2.10399
-0.370875
-0.469217
-1.68036
-0.775866
-1.17402
0.291032
0.882984
-3.47849
1.49479
2.50371
-2.9967
1.02242
2.13002
-1.38289
1.33258
0.0503073
0.63212
-2.6345
2.00238
0.751224
-1.21089
0.45967
2.12327
-3.39291
-2.51675
-0.284498
-1.44059
0.0385859
-0.946831
-0.178381
1.12521
1.35881
-0.539304
0.871667
-0.332363
2.92984
-1.73572
-2.9384
3.90965
-0.971253
1.11225
0.791612
-1.90386
-1.46644
0.805118
-1.01823
-0.155787
0.65054
1.45761
-1.14777
-2.95708
-0.86531
0.288891
2.39231
1.83426
0.505873
-2.86673
3.12847
-0.110733
-1.3771
1.48784
-0.213545
-3.31415
3.5277
0.608615
-0.635299
0.026684
1.18597
-0.851137
-0.851789
1.95855
2.02485
-1.48587
-1.40889
-0.654996
-0.0469347
-1.69552
1.74246
1.60482
-3.98489
-0.0672675
-1.96376
2.03103
0.0839425
-0.646695
0.562752
-2.51347
0.0685208
2.44495
3.83912
-2.72739
-0.0360145
0.445366
-0.409352
-0.959949
-0.101795
0.766974
1.46341
-2.23039
0.697579
-0.841231
0.143651
2.61645
1.52859
-4.14505
-1.64337
4.6334
0.508297
0.0130317
-0.992817
-2.40165
3.39446
1.70122
2.88609
3.08451
-2.59024
-1.50777
0.975558
-0.825276
-0.0837219
-1.20571
3.79842
0.509372
-3.12517
2.6158
3.70732
-0.509637
-3.19768
-1.18176
2.50407
-1.32231
1.59601
-0.757852
-1.85706
2.61492
0.727929
-0.697956
-0.029972
-1.12838
-1.94957
3.07795
0.0697486
-0.501147
0.237905
-0.293415
1.91893
-3.04731
-2.80112
-0.758758
3.55987
-0.112571
-2.1058
2.21837
-0.0941808
4.1931
-4.27392
0.0808205
0.943201
-0.478351
-0.46485
-0.0563939
-1.32649
0.991371
1.07369
-1.43678
0.168093
-2.9935
3.79804
-0.804539
0.191503
-0.739976
2.05383
1.02236
-3.38538
-0.934382
-0.0976539
-0.759976
0.857629
2.15881
-0.324544
-0.916121
1.0057
-0.0895819
-0.64587
0.809534
-4.61761
2.12204
3.38101
0.502175
-0.408362
1.09451
-0.85692
1.96917
3.41483
-1.11035
-0.937107
0.0209859
-0.48589
-2.53678
1.19272
1.06514
-1.02792
-3.719
0.062314
-0.0700294
0.911805
-0.160581
-4.03864
2.45615
1.58249
3.22944
0.615838
0.880301
-0.314054
-0.566247
1.27
-1.14057
-0.129429
-3.65635
1.33679
-4.07226
2.03869
-0.899702
0.575172
0.32453
0.0852042
-0.585087
0.499883
3.88037
-0.113521
-3.76685
0.923263
0.0718138
-0.995077
-0.604129
-1.12279
1.01833
-0.123427
-0.56405
0.58259
-0.0185394
1.72296
-0.169639
-1.55332
0.0583395
-0.62239
3.24193
-2.45539
-0.131061
-0.643853
0.774914
-3.86872
0.875215
0.0744262
0.18619
-0.836608
0.606707
1.51175
0.370833
-0.846931
0.993312
0.759531
-1.75284
1.49796
-0.799694
1.32577
-1.4365
0.993386
-0.864313
0.437089
-1.33326
3.22077
-0.857414
-2.36336
2.27867
-0.322237
-1.95643
-1.44767
-0.395874
0.63148
0.154543
-0.786023
1.07425
-1.67245
0.598205
4.02708
-0.158907
-3.86817
0.703673
0.192763
-0.896437
-1.93733
2.68007
-0.742743
1.76964
2.00475
-3.77439
0.296723
0.818436
-1.18566
1.83227
-0.646616
0.935816
0.401676
-1.33749
-2.75865
1.51427
1.24438
0.536129
0.0464609
-3.3935
0.592382
1.35221
-0.795496
-0.556712
1.58165
-2.2944
0.712747
-0.421982
-0.825007
0.499609
3.69349
3.15559
-0.53058
-2.62501
-3.19157
0.356183
1.31537
-2.19358
2.55163
-4.18945
1.63782
-0.45912
1.24282
-0.0339363
-1.59956
1.08286
-0.694243
0.935818
-0.404062
-3.08614
3.4902
1.65644
1.26416
-2.77216
2.96826
-0.196102
0.107341
-1.05417
-2.31926
-0.832166
-0.543312
0.600779
-0.0574675
0.0281984
-1.07137
1.04317
0.270998
1.44924
-1.72023
-0.620361
2.20201
-2.21156
-0.739159
2.95072
-3.02237
-0.971399
3.99377
1.79718
-1.58308
-0.214106
-1.14352
0.092658
1.05086
0.623478
0.293061
-0.916538
-3.62578
0.138002
3.48777
0.101805
0.84166
-0.943466
3.10108
-3.44651
0.345433
-1.74762
0.958328
0.981002
-1.93933
0.0413875
-0.584699
-1.42942
-1.05245
2.48187
2.53889
-3.9814
-3.86074
3.54309
0.317648
0.850551
-0.152972
3.00664
-0.952802
-0.40822
-0.77688
1.1851
-0.0537248
0.843777
-0.790053
-0.809792
2.9056
-2.09581
3.46968
-2.58963
-0.880054
3.81156
-3.65987
-0.151691
2.89129
-1.56919
-1.32211
0.182091
-1.00518
0.823087
-1.26035
-0.0609499
-3.90777
3.33108
0.576692
-0.036302
-3.87147
-1.00805
2.69646
-1.68841
-1.90959
-1.02805
0.904389
-0.742725
-0.161664
-2.98828
-0.880443
-0.840874
0.576568
0.264306
0.828197
-0.44504
-3.61816
3.46346
0.154703
-1.0399
0.602964
0.820558
0.99673
-0.0734669
-2.32955
0.308622
0.680643
-0.767483
0.0868396
-1.12958
1.42753
-0.297954
1.62173
-0.143188
-0.93783
1.70986
0.818224
1.53321
1.30215
0.476366
-1.77851
-0.802039
2.21782
-2.55596
1.63326
0.922703
0.557203
-0.0210738
2.96689
-1.31044
2.10642
-1.4743
-0.53728
-0.961279
1.49856
0.893845
-2.94792
2.05407
2.30488
-2.41745
3.97761
-1.72629
-2.25132
-0.0273628
-2.13941
-0.416549
-2.80068
3.98268
-1.18201
-0.175303
-1.00647
3.5227
-4.01681
1.02853
-0.897021
-0.153606
-0.740611
0.697666
0.721287
-0.0245673
-1.94286
-2.06816
4.43344
-1.65966
0.613292
-1.05713
0.443836
0.219656
0.94839
-2.67045
-1.32747
3.99791
1.78793
0.666395
-0.0144675
-0.642803
0.65727
3.32962
0.612912
0.0563107
-0.669223
2.46454
0.756236
-1.30516
-3.85095
0.649968
-0.967452
0.0646861
0.902766
2.2221
2.60356
0.425023
0.784371
-1.20939
3.67788
0.133679
2.44299
-3.44233
0.999339
-3.23824
0.0547236
3.18352
-2.91678
3.92405
-1.00726
0.622539
-0.0145184
-0.60802
-1.4097
3.94858
0.329464
0.836813
-1.16628
0.215244
-2.9874
2.60085
-1.24955
-1.3513
-3.37993
4.37592
-0.995985
-0.939615
2.26953
-1.32992
4.78193
-2.06448
-2.71744
0.193855
-2.44821
2.25435
0.614879
0.0662444
-1.60589
3.37554
2.18706
-3.54542
3.47505
-1.2428
-0.800984
0.669924
-3.34468
0.106438
3.74099
-1.38485
0.00619288
-4.00772
1.16318
-0.0439664
1.09151
2.34856
-3.44007
2.23281
-0.63545
-1.59736
2.39565
-3.8059
1.41025
-0.8379
0.0450129
0.792887
-0.772231
-1.93136
2.70359
1.53302
-1.09593
-2.14489
1.69237
0.45252
0.813802
0.760303
-1.5741
0.339906
0.564484
-3.23438
3.88622
-0.651843
0.557825
0.0507894
1.75265
0.80868
-2.56133
1.25989
1.57976
-2.83965
0.766885
1.90953
-0.160364
3.98268
0.0875267
3.11086
-3.19839
0.142316
-0.165316
-0.805191
-0.324519
1.12971
2.49463
-1.8919
-0.602722
1.82175
2.15586
-0.745407
0.597917
0.14749
-1.00933
3.2178
-2.20846
0.00686019
0.752577
-0.759437
0.920322
-2.70567
1.78535
-1.38586
-0.747216
2.13307
2.77982
-0.257265
1.04764
1.18517
-1.32476
-1.43075
2.75551
1.17364
-3.15716
0.349762
0.732426
-1.08219
0.836828
-0.235464
-0.601364
0.0296687
0.585211
-0.26571
3.61864
-3.35293
-0.382322
3.51187
2.96525
-2.52175
-0.443495
2.56975
-2.12666
-2.09847
0.907155
1.19132
-0.546688
-1.20157
-0.635934
0.5975
0.0384333
0.283019
0.597281
0.471651
2.95051
-3.42216
0.994187
0.728769
0.590804
-3.61317
-1.92094
0.481907
1.43903
-1.38786
-0.894404
2.28227
2.02771
-1.0344
-3.41193
2.14399
1.37907
-1.51623
0.137164
-2.31867
3.31878
-1.00011
-1.70372
1.92356
-2.1872
2.28254
-0.0953396
-2.79584
3.96647
-1.17063
-0.0886372
0.918302
-0.829664
0.663381
-0.578177
-1.7301
-2.58841
3.98469
-1.39628
-2.16771
2.78279
1.97521
-2.15053
0.175328
-0.296454
-0.658916
0.955371
-3.78885
2.62821
1.16064
0.032197
-0.572862
0.540665
0.0309143
2.09319
-2.90298
2.69327
-1.79943
-0.71918
-2.20084
-2.75069
2.83822
1.81978
0.276737
1.03166
0.892938
-1.9246
-1.41341
1.30902
0.104384
0.661043
-0.108597
-0.552446
1.05593
-1.75746
0.701534
-1.66707
2.19248
-0.525413
-2.85626
-0.487922
3.34418
0.623153
-0.919607
1.531
0.963621
-3.90208
2.82098
1.0811
0.766844
0.375122
-1.14197
0.0311854
0.789277
-1.01377
0.224495
-2.55435
-0.734012
1.78994
0.608071
0.868977
-0.686886
0.808771
-0.780573
1.25731
-1.94056
0.113457
1.19153
0.234711
-1.42951
1.1948
-2.14343
-1.65447
3.7979
0.623772
-1.94854
-2.07666
-0.126569
2.20322
0.445331
0.862447
-1.30778
-0.0174782
4.19063
-2.60361
-1.58701
0.693382
2.4622
-0.0764415
2.13481
-1.32543
-0.809383
-1.18415
2.39571
-1.21156
-2.1954
-0.693393
2.88879
-1.87459
0.688937
-1.39895
-0.699524
4.92352
-1.90275
-3.02077
-0.912854
0.192083
0.720771
1.36358
0.408598
-1.77218
-0.732903
0.834709
0.260484
0.948152
-1.20864
-0.331896
-0.121019
-0.87995
-0.0491898
3.04287
1.88065
-1.95551
3.74511
-0.928158
3.35919
-0.85852
-0.0543339
-3.07594
0.88054
2.85715
-2.368
-0.500969
-2.46499
0.527656
1.61376
-2.62181
2.45608
-2.74878
3.22731
-0.100133
-0.810924
-0.512565
-0.806271
-0.557141
1.36341
-1.26146
-0.149927
2.89395
0.509898
-3.40384
-0.0545588
-1.02854
1.0831
-0.383933
1.55609
-3.98519
2.4291
3.26537
-0.164294
-3.58018
3.6843
-0.104124
0.846516
-0.661589
-3.3557
-0.433149
-1.21449
3.49234
-0.16126
1.09616
3.82112
-1.50151
-2.3196
-2.20814
-0.283118
2.49126
0.212847
1.75591
-1.96876
-2.76585
0.252378
-0.901946
-0.273911
1.17586
-1.79762
2.307
0.694631
1.88611
-2.58074
-1.5052
0.204855
1.30034
-3.20576
0.126981
3.07878
0.420591
2.27268
-1.06767
1.67266
1.21863
-0.898069
-0.805751
2.66652
-3.10452
0.592617
-1.42654
0.833926
-0.885795
1.18252
2.67897
0.115809
-2.79478
2.40917
-3.33732
-0.0730889
0.568702
-0.829426
1.90739
-1.07796
-2.37838
0.948966
-0.104822
1.19823
-1.0934
0.733619
0.271492
-1.00511
0.78571
0.400262
-1.0998
2.41517
-0.244145
-0.655557
-0.670757
0.712145
1.18019
-0.539946
-0.0941243
-0.110501
-0.837668
0.793981
0.0436871
0.856448
-0.967541
0.111093
-2.79896
2.28948
0.209643
-2.2863
-0.156556
-1.22835
-0.0418319
2.2408
-2.19897
1.34001
-1.50071
1.10397
-2.27866
1.17469
-1.84362
3.02021
-1.17659
1.06104
-3.88068
0.95082
-0.147464
-3.71328
1.74938
2.68405
-2.97195
-0.43998
-2.58792
-1.29919
-1.72355
0.717504
-0.602716
-0.254926
0.857642
4.34447
-2.12236
3.69465
-0.942612
-0.930011
-0.648947
1.57896
-3.43129
1.38749
2.0438
1.01987
0.252265
-0.848879
1.80721
0.684794
-0.393423
-2.32413
1.05367
-0.724207
0.131074
0.942464
-1.07354
-0.441936
3.33588
0.580424
-0.867733
0.287309
3.60881
-4.2687
1.99869
2.27001
0.672268
1.05409
-1.72636
2.69116
-1.94573
-0.745433
-2.17075
1.23113
-0.74406
-0.183893
1.54747
3.6268
-3.84035
1.68851
-0.752689
-1.56459
2.73822
-4.00102
2.796
1.20503
1.03886
-2.84516
1.80629
-2.72411
2.94587
-0.221762
1.24779
-2.04983
0.0497739
0.641844
1.15534
-0.23353
-2.60364
0.9166
-3.79353
1.43826
2.35527
0.936803
-3.14494
2.91811
-0.0646904
-2.35283
0.36721
1.75524
4.05327
-1.36789
-2.68538
-1.88046
0.981893
-2.36976
0.687503
-3.6011
3.31798
-2.13296
1.37511
1.9336
-3.27654
2.25507
1.02147
-3.75616
2.43702
1.31914
-1.50812
-0.434481
0.518423
-3.84581
2.73413
1.11168
2.41421
-3.82391
-3.15515
-0.0792238
4.16017
-1.60854
2.43276
-0.384962
-2.04779
-0.108859
-0.64957
0.758428
0.645109
1.90106
2.02602
-2.56709
-0.709444
0.578196
0.954826
0.752477
1.47795
-2.23043
1.56733
-0.906704
-0.218711
-3.54254
3.76125
-1.46141
1.13014
-2.81735
-2.24893
-1.45089
3.69982
0.974644
-1.34907
-2.66383
0.819961
1.84387
0.0326539
0.277871
-0.310525
3.38615
-3.79022
0.961132
-1.79056
2.17959
0.508066
-2.68765
0.984394
-0.371102
-3.09532
0.933672
2.16165
-2.22136
0.835499
1.19486
-2.379
1.49757
-0.90495
0.0813422
-0.0486883
-0.165567
3.87288
-2.27751
2.92648
-0.648972
3.8672
0.000145708
-3.86735
-2.25869
0.636664
-1.75831
0.179701
3.29045
0.538462
0.135443
0.696442
0.219422
0.959875
1.95592
0.83474
-0.173697
-3.31319
-0.304973
-3.51031
1.65709
-3.39766
0.723141
0.763329
-1.48647
3.50718
0.181426
-3.68861
-0.472008
0.457489
-1.30003
-2.77223
-2.97153
-0.484618
-1.03857
3.44774
-1.30787
1.83696
-0.52909
-3.24295
1.09952
-1.20565
1.95813
-1.65302
-2.38562
-0.953465
-0.912344
1.42519
-1.77062
0.641042
3.97693
-0.484593
2.63015
-1.93373
-0.696419
0.520182
1.23769
1.08031
3.80371
-3.46763
-0.116764
-0.909382
1.33797
-1.84867
2.08026
-1.78693
-2.18481
0.888292
0.68531
-1.5736
-3.45473
-0.0154192
-0.547708
2.99773
-2.45002
-0.488482
-3.0917
-2.52364
2.65596
4.01919
-1.77097
-2.24822
-0.180397
1.25521
2.91033
-1.23039
-1.67994
1.05953
-1.18055
-1.33959
0.534399
-0.547279
-0.107087
0.654366
-0.778022
1.80968
-1.49479
3.909
-0.0711549
-0.67157
-1.09124
-0.372759
1.464
-0.0891281
3.47528
1.13298
0.22438
-1.35736
-1.44288
2.20985
1.54174
1.67605
-1.62351
-0.297428
2.09326
-0.785127
-1.30814
0.801837
0.652909
-1.45475
0.0541282
-2.56439
2.51026
-3.53531
0.563782
0.893088
-1.71964
3.37673
-0.0409298
1.10046
0.527659
-1.83553
-3.85662
1.95715
-3.31862
1.12734
-1.82744
0.286788
-1.28285
-2.16628
3.44913
-3.82178
0.00798007
-0.749947
0.741967
2.88993
-2.29902
2.2287
-2.01585
0.433342
2.11419
-2.54753
0.579006
-1.48095
-2.64225
-1.1038
3.74605
-0.754274
0.805356
-0.0510822
-1.74043
2.96122
-1.22078
2.8768
-2.23394
-0.642859
3.34808
0.0798467
-3.42792
-1.70114
-2.56756
-1.28034
-0.160252
1.53139
2.57317
-0.0579717
0.426993
-0.369022
-2.43462
-0.660705
2.50016
1.9395
-2.05092
2.49438
-0.443461
0.715124
-0.658813
1.42289
0.714696
-2.13759
-0.257474
0.837898
-0.389483
-3.45632
-3.67516
1.87491
-0.495839
-0.12112
0.68167
0.261559
2.77442
-3.03598
-2.03373
-0.295817
2.45739
1.22709
0.283454
-1.06353
1.41087
-1.56242
0.151554
0.189813
-1.36641
1.17659
2.13162
0.632411
1.10716
3.1465
-1.51395
2.99005
-1.85991
-0.469379
-0.972522
1.4419
2.81976
0.385329
0.00827196
-2.57846
1.80623
3.29175
-3.38088
-1.40383
-1.5021
2.90594
-1.94431
-1.48698
-3.29106
3.40832
-0.117261
-0.64635
-1.46015
0.903007
2.10994
1.03656
0.431836
-0.876511
0.444675
-1.3384
-2.6528
-0.865247
-2.67315
3.5384
2.41528
-0.627348
-0.827138
1.1769
2.28315
-3.58317
1.58823
-1.49127
-1.68656
3.68881
-2.00226
1.22645
1.63943
1.27398
-2.91341
3.43966
-2.15838
-1.28128
-1.37461
-2.36499
3.49976
-1.13477
1.97933
0.650826
-1.14669
1.10576
1.58797
3.19396
-0.876656
0.767797
-0.280875
-0.25843
3.60659
-2.00841
1.71112
2.63335
-1.61632
0.875613
0.740702
1.09739
-1.63467
2.79396
-0.114986
2.54769
-0.114936
-2.50019
-0.0935039
2.5937
0.7575
-0.10018
-0.657319
0.66331
0.279892
0.563141
-3.47992
-1.12754
1.29408
2.60716
-2.34559
-0.261573
0.650295
1.44297
-0.623081
0.309027
1.06215
0.863796
-1.92595
-1.38539
2.77809
-0.324702
-1.55271
3.61207
-2.05936
-0.842734
1.65654
-0.332625
-1.17257
3.98341
-1.94365
-1.31564
2.05511
0.636055
1.2025
-1.35906
-0.73922
0.650583
-1.0355
-0.596187
-0.0231769
1.27764
-0.651024
3.06577
-2.41475
0.643897
-0.703645
-1.41023
0.633347
-1.33502
0.0546783
-3.51833
2.52552
0.957206
0.875065
0.818213
-1.25009
0.431875
0.76307
0.552891
2.72909
1.68602
-4.41512
-0.446513
-0.0695069
0.51602
0.125789
-3.06419
2.69049
1.32871
2.9439
-2.68234
-3.5707
-0.161636
-0.537753
-1.66101
1.72116
2.22132
1.17846
-3.39977
1.56371
-0.223695
-0.122194
-1.21262
-0.403697
-2.21837
-1.8483
1.30161
1.46828
2.44137
2.16908
-1.94202
-0.227055
0.770991
0.02299
-0.288108
0.990135
-0.133687
2.79407
0.722284
-3.51635
-1.13589
1.26697
-0.911507
0.548739
0.362768
-1.3412
-0.0239038
1.3651
1.39805
1.02435
-2.4224
0.82654
1.20117
2.52792
-0.0798684
-1.04214
1.36312
-1.1437
-0.522643
0.647293
-0.12465
-3.52738
2.0363
3.09713
-2.55439
-0.542743
0.0734496
-0.612634
0.539184
3.0002
-3.26591
2.25075
0.164529
0.661809
1.56689
-0.551905
-0.0442817
0.891205
-1.1432
0.251994
-1.7572
-0.525649
3.79792
-1.9236
-1.87432
3.01369
-1.03234
-1.98135
1.60398
-2.62955
1.02557
0.160802
1.90224
0.112411
-0.0201829
1.75082
-1.73064
-0.193625
1.08483
-1.44469
-0.689743
-0.17799
3.60408
-0.0169385
-3.58714
-1.66681
1.23685
-1.00214
0.711613
-0.113695
0.473616
1.43377
-1.87056
2.14156
0.00932567
0.00950447
-0.398794
0.559502
-1.55798
1.99132
0.0541921
1.01095
-0.0199464
-0.629022
2.56214
0.0782832
2.09079
-0.516886
-0.504484
-0.833347
1.8955
-0.634432
2.6105
-1.97606
-3.11449
-0.279012
-1.13973
2.87135
-1.73163
0.252988
-0.942731
1.2382
-0.237079
-0.0721723
-0.950421
1.02259
-2.93698
0.993334
0.519301
-0.555316
1.6716
-4.34205
1.1526
-3.55425
-1.13141
2.05126
-1.24181
1.96318
-1.09939
0.0382506
-2.29427
2.3484
-0.00503584
-0.618975
0.28056
-1.86364
-0.347345
-2.17854
2.52589
0.766675
1.16302
4.23279
-2.71864
-1.51415
-0.83526
0.318646
0.91529
0.0815144
-0.996805
-2.93807
0.660565
0.793045
0.0437824
-0.0334735
-0.524521
0.557995
1.80803
-2.94776
0.215132
1.61806
0.195105
-1.81317
-2.9745
2.34007
0.606745
0.139378
-0.746123
1.36386
-3.95228
-0.570254
-0.0134663
0.58372
0.796396
-0.189651
0.0913977
2.68918
-1.9223
2.23637
1.86529
-1.03875
-3.31119
1.06226
-2.33773
2.01704
0.320694
1.48618
-2.89001
-1.81599
-1.03955
2.85554
0.0336644
1.59182
-1.15046
1.00683
3.61613
-0.399089
-3.21704
0.0804251
-3.39361
3.0804
0.267682
1.72363
1.18671
-0.626261
-0.0165414
0.615013
-0.967725
-1.3269
-0.183961
0.566145
-0.382184
0.0873757
-3.64901
3.56163
-0.36221
1.28063
-0.918419
1.07071
-3.3461
2.27539
-0.155791
-2.06996
-0.118289
0.687706
2.30944
-1.29387
-0.682347
1.97622
-1.34805
-1.26481
1.67438
-0.989071
-0.906598
0.16121
0.745387
-0.420545
1.23876
-3.5075
-0.428457
-0.268652
0.697108
0.795801
0.784158
-1.57996
2.23286
-3.54584
1.31299
0.263918
-2.10547
0.500505
-3.88044
-1.85618
-2.13847
3.99464
-3.489
0.15304
3.33595
-3.87197
-2.82538
0.101272
-1.15046
1.15163
-0.00117748
-3.41375
-1.18949
3.98356
1.4599
-0.700373
0.388547
-1.22189
-0.599497
1.80066
0.590913
0.393882
-1.48512
0.0717212
-0.681031
0.60931
-0.525653
0.0548896
-0.450665
0.524115
-1.13873
1.811
-3.90631
2.44287
1.46344
-0.431159
1.65128
1.96719
0.800261
-0.0427612
-0.488269
0.920105
-1.72425
-0.939583
-2.00078
0.688043
1.31274
-0.116096
-0.655868
0.771965
-1.58724
1.77706
-0.375908
2.58138
2.06159
-0.928607
1.624
-2.97204
1.68599
-1.96531
0.279319
0.469816
-0.0244494
0.695066
-0.0360034
-3.50335
2.2205
1.17533
1.83836
0.0504351
-0.77262
0.722185
-4.32429
1.73039
-0.553422
0.782296
-0.730753
-0.0739426
-0.824423
0.898366
-2.07049
0.776617
-3.61885
3.22937
3.11052
-0.930929
-1.02269
0.937021
0.0856674
-0.838645
0.0786693
-0.603727
-3.90972
1.5936
2.31612
-0.579816
0.510309
-0.201902
1.32721
-1.1253
2.04505
0.205705
-0.550195
-0.57674
1.12694
-1.04675
1.10094
-1.33229
-0.310932
2.1713
-3.3593
3.43169
0.246194
-2.072
-1.16922
3.31481
-0.100605
-3.21421
0.224629
0.569438
-0.794067
2.01112
-3.95398
1.6627
0.119749
-1.78245
0.593375
0.0851918
-0.678567
-3.2122
3.21187
0.000330851
-0.687472
1.79145
1.78452
1.68516
3.60985
-1.24001
-2.36984
-0.0156993
-0.567446
0.583145
1.07518
-1.19097
-0.0693766
-1.14559
-0.0453797
0.287684
-1.24724
0.959557
-0.253809
3.32536
-3.07155
-2.88364
0.856387
2.02726
0.905522
2.97485
0.139497
0.227312
-0.366808
2.02109
0.875609
-2.8967
0.124672
-0.727388
-1.3703
3.56893
-2.19863
-2.64003
0.139832
2.29485
0.982484
-2.79847
-0.00974809
-0.513623
0.523371
2.72915
-0.496941
-2.2322
0.819554
0.846129
-4.16024
2.09208
3.35451
-3.57322
-1.78538
0.253915
1.53147
0.0283919
0.0226002
-0.731571
0.708971
0.794074
0.051556
-0.84563
-0.0414814
0.530595
-0.489114
-0.65926
0.693845
-0.0345848
-1.76546
4.04861
-1.10871
1.06178
0.848423
-1.05032
1.23483
-2.0135
0.778666
-2.35214
-1.64888
0.867377
-0.2439
-0.596679
-0.0297398
0.626419
3.92644
-1.46373
-2.46272
0.294083
2.31308
-0.910553
-0.502853
-2.09076
0.395232
0.591868
1.50042
-2.09229
0.461587
-0.272356
-0.189231
-0.0556221
1.32562
-1.27111
0.225338
1.04577
3.0431
-1.74047
-1.30262
-3.47485
0.388714
0.492215
-2.35061
1.25828
1.09233
2.2731
-3.19282
0.752705
-0.566515
0.618726
0.0763399
-1.21361
2.10191
-0.888303
0.579374
0.10542
-0.380657
-0.31992
-0.911681
0.840526
0.895941
-0.703177
-1.12332
2.60625
-1.48292
2.33528
-1.63904
-0.696231
2.84006
-0.708439
0.928604
0.210189
-0.903804
0.731543
-0.267833
-1.30479
0.719639
-3.30927
-1.74128
1.7211
1.03655
-0.743487
0.539247
0.257149
1.12476
-0.531386
3.09192
-3.04218
-0.0497425
3.74315
-1.75114
0.873221
0.877921
0.398381
-1.30776
-1.16421
-3.10896
-0.917858
0.817677
-0.609238
-1.03693
1.64617
-2.85901
0.691304
1.43567
0.511153
-1.94682
-0.258114
-0.49616
-0.642527
-1.34521
2.92496
-0.684339
-2.39768
0.853606
-1.91458
1.06097
-0.996588
1.28004
-1.6374
-2.68688
-0.204504
0.938123
2.11997
-3.65155
2.24435
1.4072
-0.0796518
-1.17511
0.116023
-1.32199
1.20597
-2.52319
-1.4522
-0.633963
0.620497
2.7353
1.38313
0.885807
3.00743
-2.43477
-1.2292
3.12468
-0.147522
-2.97716
2.06403
-0.806722
4.43773
-2.74816
-1.68957