/*--------------------------------*- C++ -*----------------------------------*\
| =========                 |                                                 |
| \\      /  F ield         | OpenFOAM: The Open Source CFD Toolbox           |
|  \\    /   O peration     | Version:  2306                                  |
|   \\  /    A nd           | Website:  www.openfoam.com                      |
|    \\/     M anipulation  |                                                 |
\*---------------------------------------------------------------------------*/
FoamFile
{
    version     2.0;
    format      ascii;
    arch        "LSB;label=32;scalar=64";
    class       volVectorField;
    location    "0.2";
    object      U;
}
// * * * * * * * * * * * * * * * * * * * * * * * * * * * * * * * * * * * * * //

dimensions      [0 1 -1 0 0 0 0];

internalField   nonuniform List<vector> 
13486
(
(6.34397 -1.10249 1.36642e-20)
(7.11785 0.766627 5.75372e-21)
(8.38895 -0.18885 0)
(4.95735 -2.73469 -1.08718e-20)
(10.3941 -1.64302 1.53555e-21)
(8.98344 0.264851 7.23028e-22)
(11.2839 0.173877 4.5747e-22)
(8.75618 -3.00902 -5.55521e-21)
(8.16421 -1.49696 0)
(8.20221 1.61341 0)
(6.94508 -2.79384 -5.07098e-21)
(8.69773 0.36137 0)
(5.88309 -1.97227 -1.37951e-20)
(9.64551 1.1074 1.8668e-21)
(10.2765 -0.123301 7.97899e-22)
(8.04983 1.97972 -2.76729e-21)
(6.67908 -3.37372 6.80437e-21)
(7.26409 1.70315 3.89628e-22)
(8.0574 -0.233242 4.56905e-23)
(6.88772 -0.292069 -1.30435e-20)
(4.3607 -2.82383 -4.2112e-21)
(5.93989 -1.97793 1.77723e-20)
(7.1047 0.420697 -4.60912e-21)
(7.57737 -0.944471 0)
(8.6244 1.29395 6.85129e-22)
(7.46634 -0.960409 -1.316e-21)
(6.25722 -3.10075 6.25357e-21)
(7.73219 -0.197593 5.24445e-21)
(7.8744 -0.0765032 0)
(7.76462 -0.18655 -3.33514e-21)
(3.69529 -1.09595 -2.59588e-21)
(9.49079 0.666877 -1.61506e-21)
(8.34853 -0.75369 4.52269e-21)
(7.89126 -0.244316 0)
(8.74118 -2.80759 0)
(8.40278 -0.0165275 4.56614e-22)
(7.9182 0.0784656 -1.25578e-22)
(7.06938 -3.21185 6.79768e-21)
(7.79797 0.0982553 -1.61175e-22)
(7.96115 -0.974593 6.09938e-21)
(12.3752 -2.78342 0)
(5.52047 -2.59703 -1.66135e-20)
(8.23869 0.0128679 0)
(8.20887 1.38883 -3.81602e-21)
(8.47336 1.10071 1.48385e-21)
(8.52743 0.17389 1.63841e-21)
(8.15812 -3.95449 1.61093e-20)
(8.11711 0.173673 -1.00705e-22)
(7.95477 0.0460692 1.1681e-22)
(8.9051 -0.29223 3.84357e-21)
(8.61985 0.316916 6.22889e-21)
(7.93442 -0.0242746 0)
(8.55301 0.71146 -2.35549e-21)
(7.10514 -2.56254 -9.85682e-21)
(6.84034 1.30744 0)
(10.2993 -1.62196 -1.3609e-21)
(7.6802 0.294206 -2.81043e-22)
(7.90977 0.215861 -7.93349e-22)
(8.55649 -0.823929 5.02883e-21)
(8.07547 0.453125 0)
(6.9362 -2.66025 -5.18843e-21)
(8.00637 -0.148686 0)
(9.37718 -2.10223 -6.23143e-21)
(4.58262 -2.92719 -5.72299e-23)
(6.79491 -0.658683 0)
(8.15596 -0.0333594 -6.97224e-23)
(5.27907 -2.67153 -9.51491e-21)
(6.39769 -0.403351 4.51872e-21)
(8.22877 -1.6586 -3.47655e-21)
(7.86506 0.164756 4.00417e-22)
(5.05765 -2.65652 1.09867e-20)
(7.06618 1.43866 9.0872e-24)
(8.1251 -0.628817 4.73688e-21)
(10.0195 -6.96499 -3.52351e-20)
(7.69683 0.147223 5.50488e-23)
(7.99417 -0.299156 1.31884e-22)
(7.84477 0.0445093 5.21102e-23)
(10.1701 -0.287186 -3.16516e-22)
(7.81616 -3.77014 -7.3244e-21)
(7.37348 0.189723 0)
(7.8049 -0.146492 -5.96851e-22)
(6.6456 0.885777 -3.84907e-22)
(8.98955 -2.26939 -2.89471e-22)
(8.20619 -0.0826568 -3.01511e-22)
(6.35349 -1.23541 -2.65723e-20)
(7.09849 5.51535 0)
(7.77482 0.465883 -6.08325e-23)
(8.06764 0.461427 -9.17622e-21)
(7.55351 0.560161 -4.56109e-21)
(7.77632 2.82223 -2.24006e-21)
(8.73529 0.979644 -8.82546e-22)
(9.2351 -2.27417 -2.66227e-21)
(6.67211 -1.63036 3.43431e-21)
(7.03772 -0.0714337 3.38886e-22)
(7.99097 -2.39652 1.44329e-21)
(8.12641 0.151339 2.91308e-23)
(6.7484 -3.31999 0)
(5.36388 -2.59086 4.00374e-21)
(8.20449 -0.983411 -1.1649e-20)
(6.89828 -3.46928 1.13007e-24)
(7.96428 -0.281315 0)
(9.39031 1.18671 6.36189e-22)
(5.27446 -2.44133 -2.01092e-22)
(7.86279 0.0348101 9.11498e-22)
(6.32705 5.30868 0)
(6.80202 -3.51649 6.99773e-23)
(8.00109 -0.0380701 -1.60347e-22)
(8.02841 0.18866 -3.18122e-22)
(8.02199 -3.87194 9.9642e-21)
(9.137 -4.19508 0)
(7.93913 -3.65149 0)
(9.96982 0.961428 -1.3501e-22)
(7.23937 -2.50513 1.57763e-22)
(8.39538 -0.187311 5.41092e-24)
(5.09039 -0.730254 0)
(7.82106 -3.70972 -5.32009e-21)
(8.0544 1.59697 0)
(7.81189 0.0112965 0)
(7.77663 -0.606502 0)
(7.9368 0.0581072 3.72681e-23)
(7.35902 1.6087 -1.39864e-22)
(6.90253 -2.6533 0)
(7.82392 -2.05164 0)
(7.96291 0.128262 6.86452e-22)
(8.33427 -2.81437 0)
(8.05238 0.106843 0)
(9.32494 -0.61272 1.20585e-22)
(8.41452 0.271171 1.10843e-21)
(8.05792 -0.0271359 -4.00987e-22)
(6.85255 -0.515261 -1.00356e-21)
(7.89218 0.18616 -7.55319e-23)
(8.26326 -4.03247 -4.09864e-21)
(13.4822 -5.45713 2.97402e-20)
(-0.621952 3.63205 5.30635e-20)
(8.1836 -0.17003 -1.04014e-21)
(7.72593 1.29616 -4.72895e-21)
(4.20232 2.22403 -4.07636e-21)
(9.15987 -3.84846 0)
(7.94518 0.0905164 2.73437e-23)
(8.77768 -2.24765 -2.00932e-21)
(8.51474 -0.700282 -5.41396e-21)
(8.33674 0.309043 2.04341e-21)
(8.92592 0.525974 0)
(7.81879 0.128772 0)
(8.58202 0.0682677 1.71087e-22)
(8.46773 -2.03364 -7.69635e-21)
(8.05942 0.279673 -2.28372e-22)
(-2.60669 3.74081 0)
(8.87731 -0.0358331 0)
(8.04389 0.0479098 0)
(7.99534 0.291591 8.52473e-23)
(10.5754 -0.488235 0)
(7.99163 -0.154325 6.2465e-22)
(6.87069 0.781343 -3.21759e-21)
(8.46445 0.381331 0)
(7.84292 0.094965 0)
(9.82682 -4.21153 0)
(8.88742 -2.93851 7.61031e-21)
(7.646 -2.98 1.34585e-20)
(7.95079 0.274247 3.67334e-22)
(8.37064 -0.129199 2.03436e-21)
(7.7428 -2.88602 -2.00656e-20)
(8.90883 1.59196 2.08388e-22)
(5.04179 -2.46878 7.26272e-21)
(7.92053 0.279787 0)
(9.50908 0.956144 -2.92826e-21)
(9.21338 1.12976 -2.11456e-21)
(2.91639 -1.03979 -1.88115e-20)
(8.21517 0.202258 6.01974e-22)
(-2.49252 5.67097 1.47286e-20)
(13.2519 -5.62225 -8.94074e-22)
(8.67071 0.634015 9.88966e-22)
(8.02894 0.801666 -7.33296e-21)
(9.02251 -0.0430329 1.72911e-22)
(8.05941 0.104137 1.11963e-23)
(6.01147 -1.98427 0)
(10.066 2.02957 5.58798e-21)
(8.89537 -0.987839 6.92499e-21)
(7.82012 0.0663817 -1.1559e-20)
(9.11504 0.596958 0)
(8.21108 -1.08153 1.2318e-20)
(7.94056 0.0523721 9.43202e-24)
(8.99072 0.0473228 -2.13693e-22)
(5.62656 -2.67451 0)
(8.25981 0.124999 5.51261e-22)
(8.23381 0.02084 -2.25748e-21)
(7.97965 -0.0582839 1.58977e-23)
(7.83024 -0.183537 -9.31543e-22)
(12.2942 -3.38561 0)
(7.27971 -3.4855 -7.4591e-21)
(7.91976 0.0435971 0)
(7.71987 -0.163152 0)
(7.7893 0.348904 0)
(7.78441 2.65225 -6.96497e-21)
(7.62945 -0.063437 0)
(6.95432 -2.86202 -1.41831e-21)
(6.87192 -0.563847 2.38228e-21)
(8.42023 -0.0285735 1.06711e-21)
(6.58945 -3.15457 -3.13354e-21)
(9.71645 0.841477 -1.66036e-21)
(3.91634 -0.874537 2.34073e-21)
(8.54302 0.433947 -1.38111e-23)
(7.06557 -3.32265 -7.87718e-21)
(10.5389 -4.04162 -8.7851e-22)
(7.96364 0.10636 -5.01238e-22)
(7.94277 0.0980677 -5.06063e-22)
(6.40546 2.12797 -1.13295e-22)
(7.86523 -0.53996 9.30455e-21)
(7.61107 0.0358136 0)
(8.37082 0.230493 0)
(7.74854 -0.125484 4.17274e-21)
(7.40627 -0.690635 2.19175e-21)
(6.86444 -0.361176 1.19768e-20)
(7.61645 -0.0176243 2.67939e-22)
(8.60692 -0.0433221 -8.33815e-22)
(7.63309 -0.0130811 3.25718e-22)
(7.87206 -0.240002 0)
(8.00565 2.62362 8.52296e-21)
(7.01559 -1.69962 0)
(10.4232 -0.664951 0)
(6.71942 -3.34942 -1.33903e-20)
(9.15393 -0.305356 0)
(8.73452 -2.25713 4.76633e-21)
(9.05461 0.205079 0)
(8.17333 0.911378 -3.72984e-22)
(6.14098 -2.84566 5.03717e-21)
(9.23165 0.156414 -1.77032e-22)
(5.28355 -1.38409 9.7278e-22)
(7.29656 -0.0634483 9.70362e-23)
(7.81223 0.209691 2.24076e-22)
(8.27998 -0.965054 -3.97972e-21)
(13.3274 -1.35414 2.32747e-20)
(8.49401 -0.944345 6.77131e-21)
(5.37396 -2.50775 5.69424e-21)
(5.08573 -2.40175 0)
(6.20749 -2.93756 5.88979e-22)
(7.7257 -0.119636 1.82504e-21)
(8.58615 -0.250649 -2.255e-23)
(6.24291 -2.90767 1.62454e-20)
(8.70616 0.00991424 0)
(8.32545 -0.99493 0)
(8.03894 0.274614 1.12898e-20)
(7.98499 -0.0101145 0)
(6.23568 -3.07352 5.3558e-21)
(7.99925 0.0197638 -1.29041e-22)
(7.63235 -0.0502768 0)
(8.2178 0.2372 -5.39735e-22)
(7.28693 -0.573267 5.25182e-21)
(-4.16569 1.26839 8.71131e-20)
(8.13214 0.96193 0)
(5.82456 -2.57506 -1.54601e-21)
(5.0163 -0.611682 2.07786e-21)
(7.53482 -3.65238 6.5363e-21)
(7.77159 0.0134394 0)
(7.69557 0.304248 4.51817e-22)
(6.21132 -2.07917 6.98559e-22)
(9.40445 0.548628 1.17803e-21)
(7.29415 -0.0412399 -4.11588e-22)
(8.53952 -1.92227 -7.96935e-21)
(8.12039 -0.698697 3.15793e-21)
(7.2175 0.277664 0)
(7.89604 0.100313 -1.35921e-22)
(10.1467 -0.0367852 -1.93525e-21)
(6.17148 -2.02633 -8.72224e-22)
(10.0499 -2.83004 -1.18316e-21)
(6.11085 -3.01003 0)
(7.50142 0.0874789 -9.68065e-22)
(4.21045 -1.68434 -4.15138e-21)
(7.95771 0.188111 -5.14417e-21)
(7.75059 0.914862 0)
(6.56761 2.8761 4.93762e-21)
(7.83252 0.147146 -3.07827e-21)
(7.81856 -0.284375 0)
(8.36953 0.411483 1.2965e-21)
(6.26237 -2.93898 6.71792e-21)
(7.87415 -0.547934 -2.97968e-21)
(7.64638 0.102418 0)
(6.56329 0.521401 0)
(7.74799 0.013101 -3.42577e-22)
(8.03797 0.277598 8.54065e-22)
(6.5678 0.442348 7.04283e-22)
(8.3205 -0.635752 -4.34204e-21)
(7.99217 0.152482 6.84578e-21)
(7.69257 -1.54428 -2.71289e-21)
(6.74485 -2.77108 6.41933e-21)
(6.97707 -3.43675 1.20442e-20)
(8.88273 -0.630881 6.7985e-21)
(7.66772 -0.0536211 5.27283e-22)
(8.19366 0.570389 5.78279e-22)
(8.19051 -0.167318 0)
(4.95981 -2.32538 0)
(7.93047 0.109545 1.06877e-22)
(7.69902 -3.63119 5.57954e-21)
(7.85444 0.296925 -1.02669e-21)
(8.03613 -0.0469388 1.7203e-21)
(7.78629 -0.172171 0)
(9.05759 0.229361 -2.568e-21)
(8.6395 0.253111 -1.12326e-21)
(7.78597 0.167694 -6.3429e-21)
(11.6575 -1.16083 -2.32448e-21)
(8.73175 1.5972 -3.22267e-22)
(6.45373 1.98504 3.57779e-23)
(8.00149 0.489374 -7.27823e-22)
(9.51402 0.548077 1.6478e-21)
(7.99341 0.015051 1.67454e-23)
(9.74708 -4.81939 0)
(10.3154 0.37325 0)
(9.09465 0.100339 1.11705e-21)
(7.95612 0.421965 -1.67988e-22)
(8.0024 0.128454 0)
(9.22214 0.883342 -8.13897e-20)
(5.01923 -2.76736 0)
(9.69818 2.54614 -2.21641e-21)
(10.051 1.095 -3.41183e-22)
(7.58566 -2.32496 0)
(7.74304 0.821262 -2.75206e-21)
(8.03903 0.123075 -1.44813e-22)
(7.49193 0.436518 -3.73195e-22)
(7.17835 -0.205593 -1.0373e-20)
(7.57682 0.101221 0)
(7.99521 0.0346476 1.55883e-22)
(7.88712 0.0704882 -1.23722e-22)
(8.09943 0.0588274 1.36726e-21)
(6.94085 0.203526 -6.27934e-21)
(4.14923 1.68381 7.75557e-21)
(9.18112 0.825045 1.75337e-21)
(9.60574 -1.17534 -9.63676e-21)
(8.5679 -0.454297 0)
(8.37156 0.327406 -7.29538e-23)
(9.63951 -0.845348 -1.54073e-21)
(8.01389 0.309012 1.35131e-20)
(9.60304 -2.29717 0)
(8.92243 1.07951 -3.84536e-22)
(6.08898 0.8899 0)
(11.2496 0.244064 3.48648e-21)
(8.09633 -2.1112 -3.81121e-21)
(4.32496 -2.02847 7.03046e-21)
(10.5557 -0.63487 -7.15239e-22)
(7.98522 0.793812 0)
(7.91113 0.108065 -9.15199e-23)
(7.71221 -0.0968614 1.04988e-21)
(6.85321 0.0982799 5.93798e-21)
(9.514 -0.869968 5.96636e-21)
(9.09483 0.134711 3.42996e-21)
(6.31096 -2.85908 -4.77664e-21)
(8.10058 -0.375296 9.31943e-23)
(8.49939 -0.257423 0)
(4.96428 -1.82206 1.64201e-20)
(10.4107 -0.654395 0)
(7.9325 0.245397 -6.3464e-23)
(8.40232 -0.0156287 6.73128e-21)
(8.7385 0.211793 -8.98298e-22)
(8.50226 0.368622 1.06881e-21)
(6.58517 -3.24569 -6.87775e-21)
(7.66331 -0.0482451 7.84986e-21)
(8.04823 -0.0581375 0)
(10.6523 -5.07246 -2.54796e-20)
(8.5356 -0.847166 -2.37706e-21)
(7.87476 0.239903 2.39844e-23)
(7.14676 -0.728555 2.17268e-21)
(8.94197 -0.0344354 0)
(8.70195 0.925884 1.37589e-21)
(7.3479 0.328333 1.22216e-20)
(7.8419 -0.00528864 9.17329e-21)
(7.84192 -0.356882 0)
(7.93129 -0.0467245 -1.64277e-22)
(7.94683 -0.154297 -1.71406e-21)
(8.51829 -4.3251 2.62774e-21)
(6.7933 -0.654324 1.66862e-21)
(8.94093 -0.769911 2.26727e-21)
(7.94162 -0.0527743 -6.3071e-23)
(8.78176 -0.258507 0)
(8.20389 0.357536 -1.39288e-21)
(5.94888 -2.6305 1.4736e-21)
(8.80587 0.53099 1.73131e-21)
(8.16874 0.384438 5.4502e-21)
(7.4949 0.380593 0)
(7.97081 0.238856 -1.69958e-22)
(7.25807 -2.08609 0)
(12.5458 -1.07313 -9.31316e-21)
(8.19787 -0.0680227 0)
(9.47801 -2.77989 -1.39503e-22)
(6.03266 -0.795091 -3.78285e-21)
(7.41967 2.18686 1.10829e-20)
(8.41547 -4.18737 -1.05654e-20)
(7.58099 0.0586589 0)
(8.77829 0.25923 6.86037e-22)
(8.01272 0.256363 -2.68291e-21)
(3.80322 -2.90561 -5.79505e-21)
(2.66733 -2.61983 8.25766e-22)
(6.97651 -0.565413 -1.81088e-20)
(7.84195 -0.345648 1.65208e-21)
(8.48637 0.441929 1.58874e-21)
(6.562 -2.06275 0)
(6.19528 0.69226 7.21088e-21)
(7.9769 0.0507082 -1.06476e-22)
(5.00639 -2.78914 6.23433e-21)
(5.94234 -2.6083 -5.14613e-21)
(5.96376 -3.47828 -9.50306e-21)
(8.64561 -0.609219 0)
(4.68666 -3.70842 0)
(8.52428 3.59085 0)
(8.06635 -0.19327 0)
(9.39055 -0.50207 -7.34126e-21)
(11.3354 0.424728 0)
(7.87973 0.495724 0)
(7.23519 -0.155136 2.46916e-21)
(8.22712 -0.793314 -7.11518e-21)
(8.95536 -0.599122 -5.50479e-21)
(7.33099 0.88641 1.93999e-20)
(8.24729 0.258816 -1.34666e-21)
(11.1111 4.49354 0)
(8.21463 -0.42156 0)
(8.15122 -0.237055 6.59819e-21)
(8.27575 0.113773 1.04342e-21)
(5.94799 2.80809 0)
(5.65111 -2.64906 5.19671e-21)
(10.1714 -2.79056 1.32719e-21)
(11.9903 -6.07998 0)
(9.10621 -0.0773224 2.81472e-21)
(7.92281 -0.0999792 -7.46704e-21)
(9.24626 4.05636 1.38188e-21)
(4.9361 -1.75544 0)
(7.94838 0.751404 5.28305e-21)
(8.94276 0.09211 0)
(7.82894 -0.103286 0)
(8.48382 0.640335 -1.31473e-22)
(7.48253 0.124753 3.487e-21)
(6.60121 -3.24522 -8.19777e-21)
(9.00692 1.1909 -3.7284e-22)
(6.17142 -1.61346 -6.71002e-21)
(8.28966 -0.318561 7.10793e-22)
(8.36866 0.418021 9.74178e-22)
(8.23505 0.337644 3.79802e-21)
(10.321 -2.73583 0)
(7.86992 -0.550542 2.59539e-21)
(6.01265 -0.513153 0)
(8.04641 0.126856 1.7459e-22)
(9.48445 -0.24832 0)
(6.31464 -0.292506 9.45239e-21)
(7.37433 -5.0563 -1.50767e-20)
(7.65101 -0.358008 0)
(8.07271 1.40409 2.25782e-21)
(7.96624 -0.351821 -3.38275e-21)
(7.86403 0.241169 3.91229e-22)
(7.61112 -1.18277 1.70823e-20)
(6.29607 2.08128 -7.37645e-21)
(5.99297 -1.70759 -1.91572e-20)
(12.5393 -0.829443 0)
(7.99905 -0.0309557 1.07805e-22)
(6.35539 -2.89704 -1.11689e-20)
(7.95355 0.515185 0)
(7.63469 0.400875 4.08869e-22)
(8.72427 0.1189 -7.41375e-22)
(10.9601 1.70481 0)
(7.88757 0.185026 0)
(5.18785 -2.59296 0)
(6.06135 -1.92537 3.08181e-21)
(7.41288 -1.53257 3.213e-21)
(7.90835 -1.79124 2.28687e-22)
(9.39308 2.49214 0)
(6.88849 -0.803874 1.1897e-20)
(8.08507 0.152323 -6.48888e-23)
(8.80577 1.10717 1.03791e-21)
(4.71291 -2.70185 9.97939e-21)
(7.5108 0.463571 0)
(8.10543 0.13444 0)
(4.01144 -0.949228 -1.12782e-20)
(6.44604 -2.11221 -4.7119e-21)
(8.03772 -0.960526 0)
(8.77758 -4.06401 -4.10683e-21)
(8.01549 -0.284179 -2.53765e-23)
(8.08211 -0.013004 2.25098e-23)
(4.50596 -2.04808 0)
(8.12706 -0.125551 1.11979e-21)
(8.02674 0.0186906 1.51848e-22)
(8.85909 -0.164676 2.89756e-21)
(8.04274 -2.33955 0)
(6.98625 -3.42762 -1.82287e-20)
(8.25826 0.439752 1.22672e-21)
(8.18031 0.214098 1.15719e-21)
(7.70097 0.0419638 -5.14306e-22)
(9.63862 0.557133 0)
(7.2272 0.854404 -5.05034e-21)
(9.68868 -0.848904 -4.35092e-21)
(6.48292 -3.32812 1.9773e-21)
(7.9327 0.0782117 0)
(2.36872 -2.02965 -8.47312e-22)
(3.13164 -0.785361 0)
(7.99373 0.332902 -4.19314e-21)
(7.67099 0.406945 2.07615e-21)
(7.82079 -0.362759 -1.17032e-21)
(6.08989 -2.14583 0)
(8.13325 0.218888 -2.84366e-22)
(5.27899 1.1797 2.01276e-20)
(10.1276 -2.62101 0)
(6.87279 -0.019608 7.60412e-21)
(11.5075 -1.07475 2.6768e-21)
(8.1287 0.085588 0)
(4.18936 -1.63233 1.65291e-21)
(7.59073 -0.00908083 -6.47567e-22)
(8.24887 0.253092 0)
(6.78977 -3.50138 1.26297e-20)
(7.44698 0.202829 0)
(7.91206 -3.53109 5.20465e-21)
(5.90098 -2.51935 2.87713e-21)
(8.15706 -0.0154031 -1.88131e-23)
(8.63249 -0.0868397 -7.93926e-22)
(6.03721 0.461157 3.76935e-21)
(7.49703 -1.21944 -6.22619e-21)
(7.73025 0.0797767 -4.07147e-22)
(7.8493 -3.43606 9.04793e-23)
(9.22764 -0.890558 2.16818e-21)
(9.73457 0.743837 5.99576e-21)
(9.74031 -4.1674 0)
(7.7891 0.158989 -4.82272e-21)
(12.6655 -6.11522 -1.35213e-20)
(6.08566 -0.738023 0)
(8.01863 0.0454135 3.28247e-23)
(7.96501 0.238464 0)
(5.63457 -1.80611 1.70608e-20)
(9.34629 -3.15223 0)
(8.08704 0.0811396 -5.42127e-22)
(8.91449 -0.407221 -3.92765e-21)
(4.57464 -1.26402 2.57363e-21)
(5.55053 -2.7545 5.57974e-21)
(8.67789 0.385164 -2.6456e-23)
(8.89712 -4.10187 2.41588e-21)
(7.79668 -2.13995 6.02658e-21)
(6.63872 -1.6269 0)
(5.79464 -2.82746 -3.68055e-21)
(10.5493 -2.41747 -2.82336e-22)
(6.07858 -2.99359 -4.23718e-21)
(7.63392 -0.0330094 -1.16265e-23)
(6.55361 -2.53815 0)
(8.61944 0.157294 -1.5026e-23)
(5.88184 -2.92537 0)
(5.35539 -2.52599 -1.32409e-22)
(8.99799 3.75391 -2.33312e-21)
(8.8603 -0.80936 0)
(8.95719 -2.01303 1.41217e-21)
(6.51262 -0.647917 0)
(10.6697 1.52789 0)
(7.69471 -3.64092 -6.84952e-21)
(6.59758 0.56261 5.63369e-21)
(7.43586 0.51478 0)
(7.38555 0.339881 -3.22311e-21)
(8.27545 -2.1462 8.68824e-21)
(6.0058 -2.66923 6.44175e-21)
(11.7523 2.30895 0)
(7.81928 -0.00447225 0)
(6.46293 -2.92169 -4.84674e-21)
(7.44347 -0.535816 0)
(8.51407 0.247382 0)
(6.91829 -2.5359 -3.1337e-23)
(8.75205 -1.44948 -7.47517e-21)
(7.66436 -1.90095 5.15764e-21)
(7.9976 -0.876669 4.43562e-22)
(5.89397 -2.92806 7.58359e-21)
(7.91754 0.289741 2.49048e-21)
(6.85284 -1.82153 0)
(8.48422 0.981582 -4.83805e-22)
(6.33596 -1.1341 0)
(8.33869 -0.165935 0)
(7.78798 0.536388 0)
(8.73609 0.255335 -2.81396e-23)
(7.53536 -0.373782 4.76032e-21)
(8.06912 0.104888 1.36322e-23)
(6.93885 -1.79537 0)
(6.13756 -3.01859 -5.69238e-21)
(8.64563 2.42615 -2.02549e-22)
(8.29874 -2.8649 5.29044e-22)
(7.95846 0.0625179 -1.38754e-21)
(7.54902 -0.658877 4.60766e-21)
(7.60933 0.0303625 -4.30402e-21)
(7.4328 -5.29191 0)
(8.52582 0.34867 0)
(6.01824 2.55789 0)
(5.77589 -2.51019 -1.2406e-20)
(5.84605 -0.277805 -1.34002e-21)
(12.3025 0.0461498 0)
(8.11418 0.755333 0)
(8.21231 0.728908 1.90663e-21)
(8.16373 -0.246497 -1.25254e-21)
(7.78792 1.58662 4.29345e-21)
(11.1684 -3.98554 0)
(6.77259 -3.11697 -2.12036e-21)
(8.81119 0.324541 -4.88233e-22)
(6.28734 -1.93534 -1.12713e-20)
(8.44283 0.143699 -1.183e-22)
(9.04435 0.952499 -8.23147e-22)
(7.25914 -1.20839 1.72417e-21)
(5.75848 -2.51248 2.1418e-20)
(7.2428 -0.13987 1.47794e-21)
(8.00368 -0.0693627 9.17963e-24)
(8.22927 -0.0919248 -1.27979e-21)
(8.14179 -3.94829 -1.01988e-21)
(7.83301 0.236065 2.22433e-22)
(6.88599 6.78027 9.6946e-22)
(8.54848 -4.00539 2.33113e-21)
(8.03691 0.197623 0)
(7.90533 0.547459 -2.17458e-23)
(8.14866 -0.0651486 -3.11725e-21)
(10.427 0.0635506 3.19992e-21)
(6.22063 -1.75512 -1.03071e-20)
(8.18767 -2.75882 -5.85501e-21)
(8.60494 0.109802 1.09877e-20)
(8.64103 0.521827 -6.3145e-21)
(8.18059 0.645424 -5.18085e-22)
(8.84364 -0.720651 -3.56532e-21)
(5.4507 -1.06091 -2.29984e-20)
(7.97677 -0.0847078 -2.21371e-21)
(5.32629 -1.2518 0)
(5.09216 -1.31892 -4.42154e-21)
(7.68146 -0.0523094 1.13186e-20)
(8.07131 -0.0911517 4.36006e-23)
(7.72515 -5.9383 0)
(9.42913 -4.17121 0)
(8.32898 1.11576 3.34522e-21)
(4.94607 -1.05551 1.44958e-20)
(6.63692 -1.15342 -2.49645e-21)
(9.56765 -2.80029 -1.8877e-21)
(9.55382 -0.909484 5.1451e-21)
(10.6147 -0.954665 0)
(8.45557 0.963667 1.70952e-21)
(6.95173 1.87311 -6.65972e-23)
(10.1233 1.95031 5.37437e-21)
(8.20525 -1.21437 -7.32236e-21)
(5.82377 -2.87991 -1.20455e-20)
(7.86782 -0.486373 -4.7001e-21)
(7.67921 -0.556922 1.56009e-21)
(9.49726 3.01369 0)
(7.80112 -0.0884152 -7.80849e-22)
(7.79232 0.13702 1.18764e-21)
(8.20225 0.0845109 -1.03298e-22)
(5.01863 -2.42814 2.01738e-20)
(8.12299 -1.03878 1.09677e-20)
(8.01513 0.150938 -2.01584e-22)
(5.95996 -2.67416 -3.97022e-21)
(8.26633 -0.386241 -2.22755e-21)
(8.45291 -0.00685387 2.01936e-21)
(6.83492 -2.78335 -8.43208e-22)
(9.6883 1.87573 -6.88211e-21)
(6.88107 -3.51471 -1.37229e-20)
(6.34768 -3.05563 -6.39303e-21)
(8.02684 0.02097 0)
(7.95022 0.0800639 -2.34454e-23)
(6.56542 -2.45123 -2.01774e-21)
(5.83519 -1.04382 2.03765e-20)
(8.17337 0.0659672 0)
(8.81154 1.51113 3.12416e-22)
(5.55383 -2.27332 4.89777e-21)
(7.65746 -0.289314 -1.00352e-20)
(6.14146 -2.89869 -4.78293e-21)
(7.42843 0.479767 -5.4945e-23)
(8.46406 -0.337084 3.88748e-21)
(8.84481 0.166251 -9.90308e-22)
(8.05249 -3.54233 -6.97473e-21)
(8.08008 0.0450916 8.46119e-23)
(5.8078 -0.569872 -3.29976e-21)
(7.92026 -0.0302262 2.89994e-21)
(8.66364 -0.31621 -3.0953e-21)
(8.36827 0.265568 -8.01135e-23)
(7.98723 -0.652988 -7.52694e-21)
(5.40571 -2.32079 -9.4707e-21)
(8.09652 -0.0454832 0)
(5.67078 -1.90155 2.61075e-21)
(8.51452 -0.225279 7.87245e-22)
(9.66491 3.80065 2.14166e-21)
(8.80759 0.324795 -1.40078e-21)
(9.40089 -1.37955 -3.29726e-21)
(8.39399 0.428894 -7.15554e-21)
(8.35378 0.680879 8.59875e-22)
(5.53198 -2.66446 -5.34136e-21)
(8.50857 0.138709 0)
(7.91643 0.0792872 1.00678e-22)
(8.11046 0.459189 9.20703e-22)
(6.59415 -2.46077 0)
(8.38957 0.374843 1.37446e-21)
(8.08325 0.13979 1.51098e-21)
(8.14993 0.157035 1.27546e-25)
(12.3516 -4.04681 5.66734e-21)
(7.8642 0.0755614 0)
(7.23031 0.781647 9.37981e-21)
(8.06244 0.0156455 1.56757e-22)
(8.22781 -3.83481 5.63689e-21)
(8.08382 -0.590298 0)
(6.33536 0.781534 -1.61893e-20)
(7.50259 1.54816 -2.29074e-22)
(10.8878 3.10821 -1.45805e-20)
(5.49415 -1.10252 2.24994e-20)
(7.76427 0.0622043 -1.78193e-23)
(5.71208 -2.82381 4.28585e-21)
(7.77738 -0.24467 -7.44363e-21)
(8.1038 -0.596635 -4.41889e-21)
(7.42582 0.289546 -7.01491e-21)
(7.91297 0.472719 0)
(8.0216 0.124092 -4.95317e-21)
(1.64466 -2.64865 3.73913e-20)
(9.953 -2.99786 0)
(7.47202 -0.893116 0)
(8.05911 0.0406615 0)
(6.66696 -3.4267 0)
(8.63936 0.80098 0)
(5.12291 -1.0632 0)
(7.50498 -0.0661906 9.52557e-24)
(8.04242 -1.77097 -4.00543e-21)
(8.9792 0.272754 0)
(7.40567 0.921597 1.39652e-20)
(7.62779 0.921529 1.34911e-22)
(8.1116 0.334219 5.94671e-22)
(6.59532 -2.4676 -1.11178e-21)
(5.25066 -0.163309 -9.42603e-23)
(5.78707 -2.78861 4.25447e-21)
(9.30793 0.287761 -2.04211e-21)
(8.54757 -0.327573 4.29919e-22)
(8.07193 0.651834 -2.4458e-21)
(7.72257 0.556714 -9.1605e-21)
(8.19079 2.87631 -1.90409e-21)
(12.6512 -0.355323 0)
(4.10947 -2.99501 2.41083e-21)
(5.70539 -1.81374 -1.86766e-20)
(8.12606 0.475525 -1.48298e-20)
(10.6323 -2.36467 1.1018e-22)
(8.53774 -0.11065 1.10629e-21)
(12.5184 -0.564334 -5.57763e-21)
(8.91216 -1.0642 -8.43991e-22)
(9.02045 -1.93019 -5.10178e-21)
(8.10658 0.295172 2.78084e-21)
(15.4137 1.89724 0)
(7.7295 0.049894 -4.52187e-22)
(6.96964 -0.0993654 -2.26585e-21)
(11.132 0.743457 0)
(7.83918 0.0200978 0)
(8.50356 -3.80759 -6.58957e-23)
(5.64506 -2.69707 4.66266e-21)
(7.64505 -0.135964 -1.81036e-21)
(7.85486 0.102672 0)
(7.73814 -0.0908513 -9.67957e-21)
(7.41187 0.380934 -1.76933e-21)
(5.49808 -1.84133 1.66801e-21)
(8.21024 0.313658 4.1175e-22)
(5.78421 -2.81156 0)
(4.22223 -3.13352 2.42952e-21)
(8.45051 0.179064 0)
(7.55427 -0.0486475 8.42371e-22)
(8.92335 1.00649 -6.42062e-22)
(8.20466 0.389322 -3.81569e-22)
(9.14659 1.0355 3.80138e-21)
(11.3426 2.24423 -1.28178e-21)
(7.57535 -2.18304 1.26514e-20)
(2.93066 1.73287 0)
(6.25084 -0.345782 -1.87368e-21)
(7.22064 0.619611 0)
(9.08734 -0.0239607 -1.30932e-21)
(5.48609 -1.96115 3.93363e-21)
(7.44793 -0.70469 2.73247e-21)
(7.84445 0.123767 -2.24054e-23)
(6.29232 -2.13159 -4.43483e-21)
(7.66797 -3.60561 -6.51045e-21)
(5.82896 -1.77788 -1.07753e-20)
(7.97232 0.0541364 3.49934e-23)
(6.62924 -0.297512 1.52319e-21)
(5.44893 -2.37719 7.77207e-21)
(6.06435 -1.88853 1.15622e-20)
(5.5705 -0.302168 1.80222e-21)
(6.90268 -0.510584 -1.19867e-21)
(8.14269 -2.42132 5.90463e-21)
(8.37315 -4.6673 1.22245e-20)
(7.73286 0.00298824 1.4917e-22)
(7.68784 0.763713 8.31368e-23)
(8.90677 0.635102 2.71626e-22)
(10.0566 -1.85401 0)
(6.18147 -2.99614 -1.8079e-20)
(7.68956 0.163876 -2.4973e-21)
(7.61515 0.340641 0)
(9.33923 0.206971 0)
(6.49364 0.152115 -1.03178e-21)
(8.1481 -0.999369 -3.88684e-21)
(8.78356 0.207398 3.21755e-21)
(8.71445 -1.34979 9.77072e-21)
(8.15637 2.77527 2.05428e-21)
(8.15484 -0.159986 7.1859e-21)
(5.6612 -2.05378 1.30104e-22)
(7.6076 1.66182 0)
(6.19904 -2.00054 1.10001e-20)
(7.50639 -3.16969 1.72454e-21)
(6.2057 -2.10807 3.38698e-21)
(7.57514 -2.75456 2.07672e-21)
(10.0283 -4.68234 1.03491e-21)
(9.05246 0.202627 2.96656e-21)
(7.9098 0.0290878 5.68741e-23)
(7.90836 -0.319112 3.55578e-21)
(5.66307 -2.1307 -2.52874e-21)
(8.57507 0.155398 -2.43446e-21)
(7.73303 -0.0102656 3.92871e-21)
(5.31828 -1.25643 -9.27154e-21)
(7.50612 -0.510229 6.43307e-21)
(8.17729 0.697722 0)
(9.17248 0.315616 -2.86905e-21)
(7.80558 0.0374065 8.51299e-22)
(6.51692 -1.38133 -3.49351e-21)
(9.41212 5.80132 3.46714e-21)
(8.07622 -2.37453 4.48012e-21)
(8.23021 -0.252354 1.58243e-21)
(6.2568 -0.027263 -1.31045e-20)
(10.9967 0.38901 0)
(7.90932 0.115153 -1.85856e-22)
(8.64405 0.0686999 2.25355e-22)
(7.55797 -0.00149164 0)
(5.9792 -0.292439 7.46812e-21)
(8.15229 0.197054 0)
(7.83908 5.21808 -1.79258e-22)
(8.86581 -0.276385 0)
(7.67071 0.0915214 0)
(8.59369 0.132445 8.96144e-22)
(8.76967 0.656228 -8.13089e-22)
(9.02007 -0.295267 -6.24334e-21)
(7.66953 0.276593 -4.15661e-21)
(7.48412 3.03161 -2.8016e-21)
(7.68162 0.418979 -1.41226e-21)
(8.03779 0.558196 0)
(8.25618 -2.93198 -1.48443e-21)
(8.76482 0.0341207 1.80932e-21)
(7.74305 0.0545683 -1.71305e-21)
(10.1836 -1.75384 0)
(10.3855 0.0310442 4.58732e-21)
(9.96519 5.02093 1.09754e-21)
(7.91494 0.188191 -4.22853e-22)
(6.78716 -1.57528 0)
(6.93494 -2.48219 4.04836e-21)
(8.03731 0.435583 0)
(7.90676 -0.276477 -1.73257e-21)
(-4.19799 0.560177 0)
(8.70597 -2.68213 0)
(7.16688 -0.146414 0)
(9.07861 -3.13969 0)
(7.00993 -2.99519 -9.5749e-22)
(6.0643 -1.88634 -6.78353e-22)
(8.0168 -0.434668 -7.21247e-21)
(4.58534 -1.58031 -3.15073e-21)
(5.83223 -2.46805 0)
(5.18938 -1.18563 -1.54647e-21)
(-1.2372 -1.31646 -8.64004e-20)
(7.17545 -3.29915 0)
(6.56346 -2.27344 -1.16852e-20)
(7.88266 0.160299 2.44951e-23)
(8.85589 0.536802 -1.29802e-21)
(11.609 -3.18851 -3.03499e-21)
(7.49796 0.425637 0)
(9.85643 -2.75655 0)
(9.11329 -1.55919 2.52413e-21)
(7.68075 0.202381 6.30165e-23)
(7.95173 0.111335 -7.76928e-23)
(6.58282 0.206765 -1.30529e-22)
(7.86616 0.423578 3.6174e-22)
(8.10392 0.108819 -2.3354e-22)
(8.20922 0.71201 3.75219e-21)
(7.94785 0.210722 1.05807e-22)
(8.23603 -2.04997 0)
(6.80096 -3.29751 0)
(8.0062 0.019281 0)
(8.16533 -0.122086 0)
(7.30717 -1.47964 4.66649e-21)
(8.72609 -0.3528 0)
(7.0044 -2.76861 9.58937e-21)
(6.79272 -1.14557 -6.1844e-23)
(6.00532 -1.96134 -1.75606e-20)
(7.68938 0.834109 -2.68601e-22)
(5.63493 -1.81531 -1.48893e-21)
(7.08691 -2.79402 -5.02229e-21)
(7.49107 0.155439 1.30988e-21)
(5.78879 -2.26455 -2.29808e-21)
(7.96343 0.169896 2.08292e-22)
(8.59671 0.194454 0)
(9.88131 -0.386888 0)
(7.58406 0.507767 0)
(9.61315 -1.25099 1.71939e-21)
(6.61967 -0.716501 0)
(7.73635 1.59144 0)
(7.9635 0.367267 0)
(7.67938 -1.70564 4.77208e-21)
(8.37464 0.918175 -3.46522e-21)
(8.02121 -0.139262 0)
(7.67964 -0.0428028 -1.62671e-21)
(8.04229 0.480093 -4.14425e-21)
(10.1076 1.47957 -1.13592e-20)
(7.16001 -3.24789 6.79532e-21)
(7.79306 1.70395 3.38745e-22)
(7.54618 0.371846 -4.50602e-23)
(7.87292 0.331631 3.36688e-22)
(7.59996 -0.03391 -8.74772e-22)
(8.63487 0.210134 1.07027e-21)
(8.02202 0.111973 -1.78898e-22)
(7.30817 -0.165396 -7.07876e-21)
(7.94052 0.169132 0)
(9.70436 3.39133 -1.58782e-21)
(7.69364 0.185725 6.82568e-21)
(7.01071 1.62872 -1.66495e-22)
(8.82184 -0.894071 -2.28357e-21)
(5.01253 -1.10261 -1.57681e-20)
(8.91193 -0.30359 -1.88542e-22)
(9.79834 -0.647489 6.29432e-21)
(7.9092 0.282985 0)
(8.15224 0.340831 -1.6987e-22)
(7.88696 0.134707 -1.22586e-22)
(7.54001 -0.0440616 1.43319e-21)
(4.52504 -2.98393 -1.1387e-20)
(8.00013 -0.0171489 3.61182e-21)
(7.96458 0.0239897 -2.67616e-23)
(7.89677 0.0348113 1.11856e-23)
(7.99271 -0.0940906 0)
(7.91422 1.32158 0)
(6.81195 -3.14347 8.61303e-21)
(6.02395 -2.85701 5.16591e-21)
(7.90961 -0.0586236 1.43683e-22)
(7.93468 -0.0279064 1.35376e-20)
(7.7774 0.397965 5.63555e-22)
(6.59113 0.420418 0)
(7.42498 0.198272 0)
(6.88131 -1.62638 -2.48383e-23)
(8.69601 0.166201 1.32807e-21)
(7.7068 1.48397 5.60848e-21)
(8.92583 0.389906 0)
(7.9513 0.0298291 0)
(9.14782 -2.20798 6.32882e-21)
(8.16263 -0.763413 5.73518e-21)
(4.2639 -2.80492 -4.99314e-21)
(7.87206 -0.0367404 0)
(8.67043 -2.81725 2.57891e-21)
(7.71044 -0.241192 -6.35484e-22)
(6.48476 -2.47461 -2.86823e-21)
(7.66505 -0.373244 -7.88487e-21)
(8.46207 -1.72339 0)
(8.19716 -1.01193 3.06933e-21)
(6.73319 -1.54571 -3.35879e-21)
(0.619325 -1.13056 0)
(8.0079 0.053995 4.65791e-22)
(7.54341 0.277586 -4.47452e-21)
(7.78251 0.0644764 -6.59172e-25)
(8.90236 0.934351 5.35773e-22)
(18.3914 9.65948 1.9667e-20)
(8.04139 -0.231112 0)
(5.00183 -1.89224 -1.21586e-22)
(8.26379 0.629108 -4.80588e-22)
(7.37643 -2.09162 -5.85902e-21)
(8.06093 0.776069 2.89623e-21)
(3.54926 2.37228 2.75603e-21)
(8.17001 0.0738627 -1.74132e-20)
(8.03758 0.0446235 1.54213e-22)
(7.85813 0.140274 1.4204e-22)
(7.65189 -1.75519 0)
(7.53517 0.0195708 -1.31258e-21)
(5.33232 -2.39832 6.26637e-21)
(8.76429 -0.206389 -7.17343e-21)
(7.71038 0.197129 -6.01368e-21)
(7.83208 -0.295098 1.60121e-21)
(7.09085 -0.733103 1.71179e-20)
(8.23368 -0.045234 -1.46775e-22)
(7.36039 -0.10257 3.86353e-21)
(8.03507 0.0725509 6.55106e-24)
(7.99832 -1.13451 -5.14825e-21)
(9.98407 2.2342 -9.41803e-21)
(6.76453 -1.0881 1.94713e-21)
(8.51827 -0.427737 0)
(7.63987 0.391393 0)
(11.9186 -0.0445993 0)
(5.93026 -1.77972 1.35338e-20)
(8.43001 -0.171963 -9.78631e-21)
(7.29601 0.674799 0)
(6.74943 -1.43513 -1.01856e-20)
(7.15648 0.532633 0)
(7.36131 -1.15702 -7.57916e-21)
(7.65134 -0.078565 -1.7379e-21)
(8.19359 -1.98638 -6.506e-21)
(8.33756 -0.112855 0)
(7.85226 0.0538611 0)
(7.81733 0.0894496 1.07334e-21)
(9.09022 0.215399 1.76123e-22)
(8.20962 -0.102544 3.03854e-21)
(11.3049 5.25573 -3.06496e-21)
(8.86185 0.651166 0)
(7.63335 -2.71455 -3.4565e-21)
(9.70523 -1.01082 0)
(3.64782 1.6884 -7.23917e-21)
(11.0857 1.83846 0)
(8.06718 0.0479353 5.03626e-24)
(5.38838 -0.936421 5.98231e-21)
(6.53917 -0.732377 5.70343e-21)
(7.76207 -0.0912444 -1.0379e-21)
(6.95166 -1.13181 -6.53606e-21)
(7.93461 -0.67284 1.46627e-20)
(8.10928 0.793917 -4.65782e-22)
(12.3452 -1.6269 7.06644e-21)
(8.42695 -1.64752 -3.20916e-21)
(11.6168 -0.888745 4.05202e-20)
(9.47348 0.421654 0)
(8.09122 0.0917233 -3.11837e-23)
(6.76716 -1.69994 0)
(7.70567 0.0798824 -1.30893e-22)
(7.76494 -2.69695 -1.72077e-21)
(7.03824 -0.770209 -5.58965e-21)
(7.78878 -0.0726688 1.8239e-22)