/*--------------------------------*- C++ -*----------------------------------*\
| =========                 |                                                 |
| \\      /  F ield         | OpenFOAM: The Open Source CFD Toolbox           |
|  \\    /   O peration     | Version:  2306                                  |
|   \\  /    A nd           | Website:  www.openfoam.com                      |
|    \\/     M anipulation  |                                                 |
\*---------------------------------------------------------------------------*/
FoamFile
{
    version     2.0;
    format      ascii;
    arch        "LSB;label=32;scalar=64";
    class       volVectorField;
    location    "3.7";
    object      U;
}
// * * * * * * * * * * * * * * * * * * * * * * * * * * * * * * * * * * * * * //

dimensions      [0 1 -1 0 0 0 0];

internalField   nonuniform List<vector> 
13486
(
(2.79016 -0.371706 2.37603e-18)
(3.27165 0.592952 1.18795e-18)
(5.32299 0.0802763 0)
(-3.18242 1.15561 -3.92692e-18)
(4.54861 -0.957794 6.12897e-19)
(4.95584 0.36508 5.83381e-20)
(4.94296 -0.708277 -1.01297e-21)
(3.81198 -1.37199 -1.17339e-18)
(3.78609 -0.722866 0)
(3.96059 1.57706 0)
(-1.99739 5.25248 -5.1836e-18)
(4.99105 -0.177806 0)
(2.46892 -0.76766 -2.35665e-18)
(4.84944 1.63368 7.64863e-21)
(4.70451 -0.625065 3.46621e-19)
(3.86328 1.55429 -7.93781e-19)
(1.71309 -0.29659 3.43959e-18)
(1.54826 -1.07973 5.53838e-19)
(4.45065 -0.0682699 1.10699e-20)
(3.12978 -0.0679681 -2.44326e-18)
(-2.86416 -0.130493 -1.42956e-18)
(2.51085 -0.800876 3.06555e-18)
(3.32356 0.57262 -9.45542e-19)
(7.22592 -1.74406 0)
(4.05438 1.27413 2.68126e-19)
(7.0841 -1.65663 -1.37511e-18)
(1.05002 -0.505516 4.05751e-18)
(5.71498 -0.351268 2.54145e-18)
(4.02082 0.182118 0)
(5.31925 -0.918794 -1.80429e-18)
(-1.90852 -1.58435 -7.43473e-19)
(4.82375 -0.48101 -5.19114e-19)
(6.57737 -0.256184 2.11869e-18)
(4.55579 -0.299067 0)
(3.82095 -1.30575 0)
(3.59907 0.00510825 1.2994e-21)
(3.30806 0.344979 -1.6607e-19)
(2.97768 -1.38275 1.177e-18)
(3.44541 -0.341022 -7.50146e-20)
(3.84155 -0.454222 1.18096e-18)
(4.80422 -1.58885 0)
(1.91131 -0.927008 -2.73231e-18)
(4.18251 0.00868485 0)
(4.09052 1.08377 -1.2607e-18)
(4.14117 1.06056 5.24345e-19)
(4.9902 -0.180652 3.55554e-19)
(-2.50948 1.46733 6.31341e-18)
(3.99123 0.175026 6.99e-22)
(3.35457 0.347137 1.26224e-19)
(5.61619 0.063376 9.88972e-19)
(4.0001 0.0570647 1.43547e-18)
(3.56556 -0.107696 0)
(5.04593 -0.356731 -5.46844e-19)
(3.13243 -1.12725 -1.72106e-18)
(1.63474 -1.42449 0)
(4.47421 -0.971283 -4.34518e-19)
(4.50913 1.01175 5.49953e-20)
(3.55345 -0.181944 -3.2411e-19)
(6.5584 -0.219786 2.49812e-18)
(2.90994 0.603046 0)
(-2.03512 5.13007 -6.98638e-18)
(2.91665 0.633003 0)
(7.88075 1.21542 -1.92085e-18)
(-2.70099 -0.112536 -1.43803e-20)
(4.20659 -5.26802 0)
(3.26201 0.416571 -8.42251e-20)
(-3.65941 1.33537 -4.2702e-18)
(2.793 0.140873 8.21907e-19)
(3.77954 -0.780653 -6.76895e-19)
(3.46588 0.0267563 7.56139e-20)
(-3.52308 1.35972 4.89302e-18)
(1.65644 -1.32386 2.27661e-20)
(3.90052 -0.222131 8.86775e-19)
(-2.05399 -0.41404 -1.93389e-18)
(3.2725 0.60391 -2.07182e-20)
(4.55437 0.943876 -9.79456e-21)
(3.32418 0.591598 5.19757e-20)
(4.71072 -0.658972 -1.38886e-19)
(-2.2112 2.23517 -3.18956e-18)
(3.58332 -1.0805 0)
(3.91031 0.0404827 9.40073e-22)
(3.17263 0.816361 -7.44241e-20)
(7.23998 1.02045 -8.38298e-21)
(5.43825 0.062985 -1.26063e-20)
(2.77043 -0.374295 -4.67278e-18)
(2.51395 3.42873 0)
(3.12179 -0.62526 -6.29296e-20)
(4.00352 0.101584 -2.16203e-18)
(3.71911 0.463991 -9.52103e-19)
(3.62457 2.09415 -9.30788e-19)
(4.92792 -0.492523 -3.27452e-19)
(4.07587 -1.15293 -5.97277e-19)
(2.89231 -0.567953 6.14217e-19)
(3.24074 0.183695 6.46429e-20)
(3.52758 -1.08522 2.72222e-19)
(3.96952 0.151957 -3.02383e-23)
(0.992715 -0.537186 0)
(-4.52683 1.37866 3.0486e-18)
(3.87743 -0.454064 -2.25793e-18)
(2.00675 -0.114769 -4.44874e-21)
(3.92042 0.0189881 0)
(4.80805 1.61768 -9.25285e-21)
(-4.70746 0.988757 2.29515e-19)
(3.53342 -0.155756 3.80154e-19)
(2.59252 3.29473 0)
(1.91312 0.15419 1.55997e-20)
(3.91126 0.114221 3.03355e-21)
(3.46211 -0.394196 -1.67708e-19)
(-2.2208 1.97592 4.38891e-18)
(3.75402 -1.69668 0)
(2.88063 -1.36941 0)
(4.81172 -0.542977 -4.62028e-19)
(3.15511 -1.08288 1.27851e-20)
(4.49166 0.538114 3.28691e-22)
(2.06108 -0.0455025 0)
(2.74074 -1.35266 -1.01024e-18)
(4.03434 1.31022 0)
(4.80382 -0.260671 0)
(3.88019 -0.211056 0)
(3.47948 0.302742 -6.64232e-20)
(1.69405 -1.03116 -2.38158e-19)
(-2.84745 5.17713 0)
(3.49083 -0.976043 0)
(3.4436 -0.346753 2.39523e-19)
(3.60904 -1.2604 0)
(3.55028 -0.0990574 0)
(4.31003 -0.497085 2.49233e-20)
(4.36576 0.183873 4.61289e-19)
(4.17229 -0.133946 -2.61637e-19)
(4.39342 -4.4072 -1.51209e-18)
(3.53433 -0.070823 -3.92819e-20)
(-2.36358 0.852201 -1.57364e-18)
(0.591882 0.902487 3.621e-18)
(-0.317067 0.365951 2.3326e-18)
(3.99719 0.0291569 -2.32716e-19)
(3.76124 0.893771 -1.11881e-18)
(1.13835 1.46235 -6.85493e-19)
(3.76768 -1.66282 0)
(3.49559 0.292703 1.84558e-20)
(3.8891 -1.07848 -4.20789e-19)
(6.22598 0.082681 -2.17558e-18)
(5.04094 -0.375095 4.6468e-19)
(4.88159 -0.389726 0)
(3.62774 -1.01932 0)
(4.44035 0.0204928 4.34667e-21)
(8.61647 0.414268 -4.20053e-18)
(4.26303 -0.2529 -3.5529e-20)
(0.609581 3.65975 0)
(5.66635 0.0700475 0)
(4.03211 0.165842 0)
(4.03684 0.032863 2.19454e-20)
(4.73485 -0.793794 0)
(3.92542 0.0305627 -9.89614e-22)
(3.13393 0.789122 -6.38706e-19)
(4.38774 0.700305 0)
(5.53963 0.114758 0)
(3.50137 -1.61394 0)
(-0.828281 0.209702 3.10829e-19)
(3.33509 -1.32272 2.4258e-18)
(4.1511 -1.33486 -1.5115e-18)
(5.49989 0.0605908 5.46704e-19)
(3.35511 -1.26672 -3.70072e-18)
(4.89116 -0.607311 2.46051e-19)
(1.76612 -0.830528 1.20481e-18)
(3.58213 -0.127497 0)
(5.07269 1.64661 -1.97343e-19)
(4.70442 1.48645 2.15458e-19)
(0.825628 -0.179307 -2.89782e-18)
(4.18354 -0.266001 8.86453e-20)
(-0.370979 0.396245 6.30325e-19)
(-0.808003 0.657315 9.03132e-20)
(4.36882 0.633937 4.02984e-19)
(3.98706 0.192097 -1.782e-18)
(4.58194 -0.369662 3.67644e-20)
(3.90645 0.076954 -3.96379e-22)
(-4.80643 0.442389 0)
(4.77204 2.26012 5.44718e-20)
(6.48792 0.15609 2.89507e-18)
(3.92189 0.0979958 -2.31583e-18)
(4.88817 -0.359582 0)
(3.9227 -0.541751 2.34908e-18)
(4.49612 0.48639 1.78608e-21)
(4.70751 -0.374 -1.48793e-20)
(-4.16024 2.71586 0)
(5.29601 -0.0945997 5.57829e-20)
(5.36348 -0.329373 -1.14747e-18)
(4.12864 0.165178 -7.21534e-23)
(5.17978 -0.632242 -5.21041e-19)
(4.77898 -1.52848 0)
(2.54734 -1.22552 -1.28126e-18)
(3.42781 0.354391 0)
(4.99172 0.116127 0)
(3.63507 -0.274795 0)
(2.55881 1.71282 -1.32776e-18)
(3.70662 -0.33948 0)
(-2.83922 5.29063 -1.43451e-18)
(4.37415 -5.18433 3.33142e-18)
(5.6275 0.0372741 3.37639e-19)
(2.4454 -1.20132 -5.10084e-19)
(5.04676 1.55251 -5.6972e-20)
(-2.02578 -1.68922 7.37931e-19)
(4.39997 0.224378 -1.37791e-20)
(2.87336 -1.37977 -1.36774e-18)
(3.78771 -1.61667 1.51199e-19)
(4.24563 -1.13807 1.84367e-18)
(3.76439 -0.318501 -2.85304e-19)
(0.921891 -1.33334 1.78111e-19)
(3.71867 -0.0852508 1.84012e-18)
(3.59717 -0.291047 0)
(5.33035 -0.0460269 0)
(5.59448 -0.396085 1.74865e-18)
(6.47889 -2.60227 2.52215e-18)
(3.17393 -0.0344136 2.2281e-18)
(3.88415 0.113607 2.44844e-21)
(4.94808 0.473713 -6.71578e-20)
(4.22085 -1.46778 2.01005e-19)
(5.41208 -0.805698 0)
(3.62011 2.02892 2.26458e-18)
(3.02694 -0.627478 0)
(6.34428 1.83097 0)
(2.0377 -0.0189466 -6.66604e-18)
(5.72012 0.142286 0)
(3.8531 -1.08014 9.7212e-19)
(5.47015 0.0841875 0)
(5.12643 -0.383808 -8.53563e-20)
(2.50193 -1.15509 8.41735e-19)
(5.22322 0.80043 -2.07737e-20)
(-2.59905 -3.10319 1.04077e-18)
(4.09244 -0.981486 2.83246e-20)
(3.20189 -0.614242 -1.66406e-20)
(3.9574 -0.542802 -7.56235e-19)
(3.26186 -0.614074 8.50293e-19)
(6.29869 -0.0189398 2.72017e-18)
(1.91189 -0.917071 9.3542e-19)
(-4.08167 -0.261746 0)
(2.33275 -1.12759 9.93564e-20)
(4.95397 -0.510145 8.90059e-19)
(5.03654 0.0921067 3.219e-21)
(2.16762 -1.03814 2.65047e-18)
(4.70023 -0.242091 0)
(6.7022 -0.328323 0)
(4.01579 0.135472 2.69871e-18)
(4.632 0.338229 0)
(2.12302 -1.0549 9.00603e-19)
(3.32589 -0.441781 -1.51356e-19)
(3.57794 0.162341 0)
(4.78459 -0.0340946 -1.61321e-19)
(6.14646 -1.42818 3.7828e-18)
(-0.268513 -0.581613 4.2037e-18)
(4.01668 1.02831 0)
(-5.7638 2.50614 -1.81646e-18)
(1.98706 0.0176913 3.4366e-19)
(2.45886 -1.20768 1.25777e-18)
(3.45994 -0.40087 0)
(3.87148 -0.926545 1.95866e-19)
(-4.17915 0.57093 1.69299e-18)
(4.821 -0.485453 4.36422e-19)
(4.14728 -1.52218 -2.5515e-19)
(-0.838359 0.236555 -3.24007e-19)
(6.64409 -0.308073 1.82271e-18)
(3.52121 0.496605 0)
(3.30101 -0.424626 -2.11449e-21)
(4.7065 -0.646891 -8.26221e-19)
(-5.20206 1.09659 -2.09816e-18)
(4.31291 -1.38477 -6.75527e-19)
(-4.04403 2.9565 0)
(4.13354 -0.947972 -4.86864e-19)
(-2.77545 -1.18543 -1.33983e-18)
(4.16912 -0.00672424 -1.04371e-18)
(2.35048 -0.798375 0)
(2.96995 1.94042 9.69035e-19)
(3.91448 0.126601 -6.28392e-19)
(5.44408 -0.863276 0)
(5.07416 -0.249117 2.93169e-19)
(2.47884 -1.17726 1.12316e-18)
(5.89751 -1.46574 -2.12292e-18)
(3.88728 -0.847487 0)
(2.0487 -2.53949 0)
(3.49438 -0.447256 -1.81566e-19)
(4.45489 -0.199837 8.31271e-20)
(2.0687 -2.75674 4.94041e-19)
(4.17022 -0.372294 -8.56995e-19)
(3.85629 0.17084 1.36617e-18)
(8.79634 -0.871501 -3.46488e-18)
(-3.55353 5.06207 8.26631e-18)
(1.0295 -0.969339 6.69119e-18)
(6.15738 0.228583 2.12863e-18)
(4.12348 -0.194193 3.42289e-19)
(5.4616 -0.39817 1.2283e-19)
(4.09306 0.0126052 0)
(-4.11537 0.242156 0)
(2.83757 -0.351229 1.99354e-19)
(2.80081 -1.3483 9.94888e-19)
(3.99181 0.0513183 -2.28934e-19)
(4.94159 -0.481549 8.28435e-19)
(5.06801 -0.577796 0)
(4.97048 -0.0551338 -7.70474e-19)
(5.09168 -0.216443 -2.23191e-19)
(3.83586 0.140816 -1.25539e-18)
(4.99908 -0.972973 6.80297e-20)
(3.85519 -0.524995 -3.024e-19)
(1.09655 -1.35877 2.60764e-20)
(4.47229 -0.193387 -7.20916e-20)
(4.79518 -0.486973 4.95443e-19)
(3.40858 0.246741 3.08803e-20)
(3.23944 -1.49803 0)
(1.03401 -0.286374 0)
(4.41497 -0.0806041 3.37728e-19)
(3.23118 -0.640887 6.91351e-20)
(3.37678 0.360629 0)
(3.66272 2.69408 -4.18484e-18)
(-3.07296 1.31256 0)
(4.588 2.19349 1.12804e-19)
(4.86318 -0.553127 -4.95711e-19)
(3.82305 2.80271 0)
(3.74263 0.84783 -6.99838e-19)
(2.66471 -0.383253 -2.99788e-19)
(3.71444 0.418727 -8.20394e-20)
(3.72179 -0.0721787 -2.02608e-18)
(4.27422 -0.957354 0)
(3.31154 0.424069 1.53868e-19)
(3.03866 -0.255307 -6.9667e-21)
(3.94685 0.0996677 2.91949e-19)
(3.21046 0.300309 -1.20754e-18)
(1.43903 1.39128 1.2603e-18)
(4.93032 -0.498403 6.27686e-19)
(4.36833 -0.692568 -2.24933e-18)
(4.21093 -0.361746 0)
(5.20531 -0.180739 5.91317e-21)
(4.43965 -0.70234 -3.85139e-19)
(4.00957 0.0577893 3.13776e-18)
(4.14357 -1.14302 0)
(4.87407 -0.522278 -1.54128e-19)
(2.81897 0.815768 0)
(4.93335 -0.697965 -3.46889e-19)
(3.68805 -1.01995 -7.40849e-19)
(1.47378 -0.679099 1.10536e-18)
(4.69615 -0.830081 -5.1428e-19)
(4.04263 0.407644 0)
(3.26753 -0.443626 -2.39723e-19)
(4.18968 -0.982212 5.29746e-19)
(3.23627 0.294453 1.13854e-18)
(4.4746 -0.716503 1.56193e-18)
(4.69108 -0.378694 7.66769e-19)
(-5.13637 3.79737 -5.21661e-18)
(3.98628 0.164265 1.67777e-22)
(4.41883 -0.363991 0)
(1.94661 -0.628207 2.71159e-18)
(6.37928 1.77122 0)
(2.86135 -0.400943 8.49557e-21)
(4.48223 -0.189063 1.38546e-18)
(5.152 -0.216238 -2.08488e-19)
(5.07136 -0.249268 2.22586e-19)
(0.780439 -0.235469 -4.77744e-18)
(3.85724 0.14053 1.56735e-18)
(3.77877 0.0569195 0)
(-1.61271 0.240174 -1.81232e-18)
(4.33763 -0.504808 -4.8939e-19)
(3.29865 -0.643566 -4.53249e-20)
(6.07054 -2.62304 2.08199e-18)
(5.15896 -0.0590498 0)
(5.09798 -0.500825 4.15614e-19)
(3.55691 0.332565 2.43992e-18)
(3.92089 0.144838 1.91622e-18)
(5.35998 -0.976176 0)
(3.93902 0.011786 -8.51298e-22)
(5.05841 -0.541955 -8.3602e-19)
(-2.75849 -0.0233367 9.95628e-19)
(3.10282 -0.0710225 3.09466e-19)
(4.35043 -0.443701 4.63794e-19)
(4.28383 0.00230617 -3.14823e-21)
(4.39955 -0.351315 0)
(5.1145 -0.385209 -2.82788e-19)
(-5.81169 2.87554 1.94539e-18)
(4.90128 0.875691 3.13268e-20)
(3.99523 0.0611405 1.20729e-18)
(3.01514 0.0332303 0)
(3.08541 -0.399364 -2.9515e-19)
(3.93195 3.01164 0)
(6.35657 2.85874 -1.02643e-18)
(4.18863 -0.0382279 0)
(4.10322 -1.32969 -2.748e-20)
(2.57743 -0.172467 -6.58343e-19)
(3.00038 1.74963 2.28143e-18)
(-3.09966 0.556553 -3.59312e-18)
(3.95658 -0.846574 0)
(4.65416 0.160739 -2.56236e-19)
(4.05858 0.431542 -7.10266e-19)
(2.69763 -1.33006 -2.05217e-18)
(-1.55836 -0.690797 8.77102e-20)
(3.23164 -0.0752212 -3.36698e-18)
(5.57487 -0.748532 8.8396e-19)
(4.17213 0.421298 5.00736e-19)
(2.84766 -0.860752 0)
(2.68165 0.64801 1.29652e-18)
(3.55079 0.3222 -4.63601e-20)
(-3.41278 1.37879 2.36236e-18)
(-5.90616 2.68302 -6.36687e-18)
(3.09318 -0.997868 -4.28067e-18)
(6.24032 0.200013 0)
(3.01719 -1.21934 0)
(3.95429 2.39399 0)
(4.14674 -0.158551 0)
(1.6502 -0.487959 -3.72091e-19)
(4.87165 -0.644208 0)
(2.90737 -0.443123 0)
(3.27961 0.238472 4.65565e-19)
(6.45857 0.222497 -3.03175e-18)
(4.35118 -0.333304 -1.14044e-18)
(3.37037 0.677262 4.0072e-18)
(4.02048 0.0547246 -3.61103e-19)
(4.54709 3.40628 0)
(5.71614 -0.582796 0)
(3.81862 0.147156 1.34155e-18)
(3.97237 0.0470448 2.33319e-19)
(2.53292 1.8826 0)
(-4.31278 2.62394 5.31373e-18)
(4.28041 -1.40915 7.64396e-19)
(-2.25805 -0.174284 0)
(4.69703 -0.239318 7.62299e-19)
(3.92479 0.107438 -1.55745e-18)
(0.647737 0.15719 -2.5658e-19)
(1.93172 -0.607267 0)
(4.02525 0.430479 1.33453e-18)
(5.31932 0.459911 0)
(5.14732 -0.606107 0)
(4.43438 0.452587 -6.48559e-20)
(3.8613 0.181743 7.20154e-19)
(1.04331 -0.527599 -5.23443e-18)
(4.6171 1.45842 1.28862e-19)
(2.62608 -0.616275 -1.16606e-18)
(4.13139 -0.128683 1.50933e-19)
(4.18833 0.433075 3.91375e-19)
(5.47859 -0.405315 6.89465e-19)
(4.47293 -1.37919 0)
(6.2397 -1.17222 1.89069e-18)
(2.59986 -0.0689356 0)
(2.95895 -0.360811 1.68167e-19)
(4.53933 -0.38799 0)
(2.84052 0.165642 1.72649e-18)
(-1.34889 0.0441321 -6.22966e-18)
(5.51202 -0.709357 0)
(-0.388986 0.2379 1.05545e-19)
(5.75725 -0.654716 -1.97089e-18)
(3.52634 -0.585188 -1.37643e-19)
(3.46986 -0.49192 3.14174e-18)
(2.74938 1.72806 -1.46793e-18)
(2.60176 -0.609069 -3.30907e-18)
(6.86331 2.86055 0)
(3.44069 0.294668 6.88753e-20)
(-5.08283 4.07484 -1.33529e-17)
(4.03192 0.464685 0)
(3.67226 0.479883 8.88281e-20)
(5.61968 -0.0380877 -2.09833e-19)
(5.34676 2.46611 0)
(4.00155 0.0283965 0)
(-5.01686 2.46424 0)
(-4.02445 -0.842597 7.48333e-18)
(8.86476 -1.04594 4.29335e-18)
(7.6096 0.628268 1.61576e-19)
(4.52388 2.11515 0)
(3.3657 -0.302279 2.16923e-18)
(3.88837 0.0799466 1.75305e-21)
(4.6105 1.35344 -2.54895e-19)
(-2.84877 0.564866 2.65556e-18)
(3.81261 0.339979 0)
(4.00436 0.167746 0)
(1.41401 -0.16146 -1.83827e-18)
(2.7945 -0.832257 -8.07335e-19)
(3.85396 -0.332142 0)
(2.99745 -1.44288 -9.4167e-19)
(4.03354 0.0304692 -1.82148e-21)
(3.9687 0.130921 -6.88813e-22)
(1.62484 -0.740599 0)
(3.90105 -0.134893 3.38027e-19)
(3.5223 0.289095 4.85025e-20)
(5.31258 0.412165 5.12608e-19)
(3.65578 -1.06183 0)
(0.892931 -0.793205 -1.00121e-17)
(5.11783 -0.221182 2.43094e-19)
(4.00637 0.190522 2.80773e-19)
(3.67616 0.0742643 2.31941e-20)
(5.22455 1.62775 0)
(3.31246 0.681526 -1.06913e-18)
(6.42684 1.24626 -9.88973e-19)
(2.99725 -0.755317 8.4233e-19)
(4.02813 0.11518 0)
(-1.71431 -0.827249 -8.93731e-20)
(0.895736 -0.0930232 0)
(4.02429 0.10163 -1.07814e-18)
(3.98091 0.144358 4.76829e-19)
(3.71476 0.107087 -2.6247e-19)
(-4.61734 -0.0789743 0)
(5.05185 0.0410116 -6.30855e-20)
(2.13131 0.965039 3.55673e-18)
(4.40812 -1.36831 0)
(3.2087 0.206428 1.4745e-18)
(4.93237 -1.00962 -7.64481e-20)
(4.50228 0.0227463 0)
(-2.70408 -1.65373 7.44087e-19)
(3.61425 -0.981488 -3.30173e-19)
(4.30959 0.0100465 0)
(1.45658 0.216512 6.35583e-18)
(3.64401 0.455953 0)
(3.41003 -1.54195 9.77734e-19)
(-5.85101 2.19096 3.83153e-18)
(4.13068 0.182072 1.60926e-22)
(5.00416 0.399201 -2.13849e-19)
(2.65653 0.638267 6.86765e-19)
(3.47267 -0.552964 -1.16612e-18)
(3.95986 -0.765269 -2.1388e-19)
(3.43582 -1.52749 1.09341e-20)
(4.31071 -0.446127 4.54471e-19)
(5.20374 1.62349 4.34883e-19)
(3.8832 -1.73122 0)
(3.98861 0.0461999 -1.07054e-18)
(-1.25321 0.0367326 -1.90398e-18)
(2.66242 -0.0803469 0)
(3.59796 0.468294 -1.06775e-20)
(3.39052 0.0303584 0)
(2.37583 -0.645219 2.86169e-18)
(4.04283 -1.48215 0)
(3.79145 0.00462551 -6.00489e-21)
(4.4962 -0.194971 -7.83887e-19)
(-2.54352 -2.23903 1.37604e-18)
(-5.22563 2.55928 5.34841e-18)
(4.97296 -0.0631533 -6.72984e-21)
(3.0907 -1.47628 7.89992e-19)
(3.46402 -0.969712 1.08658e-18)
(2.88262 -0.582574 0)
(-1.43538 1.32554 -2.90166e-18)
(4.52021 -1.24343 -1.64493e-19)
(-1.3792 1.47917 -3.44958e-18)
(3.97101 0.154556 3.53679e-22)
(2.79238 -1.05979 0)
(4.45183 0.0171398 -5.63529e-21)
(-4.27649 2.90798 0)
(-4.86768 1.08591 2.42003e-19)
(0.69409 -0.0676427 3.13869e-19)
(-0.671132 0.429776 0)
(4.03739 -1.0143 3.09075e-19)
(4.34828 -5.3982 0)
(5.4213 2.22968 0)
(3.14668 -1.4798 -1.29212e-18)
(2.88594 0.726035 1.05385e-18)
(3.25067 -1.22676 0)
(3.57166 0.382108 -6.71015e-19)
(7.44003 0.71906 4.35932e-18)
(-5.82029 3.2149 9.08399e-18)
(5.25082 2.96454 0)
(4.2976 -0.0411532 0)
(-4.85875 4.25202 -5.915e-18)
(3.71538 -0.199815 0)
(5.33663 0.0269703 0)
(-2.60769 5.09551 -1.00543e-19)
(4.03597 -0.725845 -1.50631e-18)
(3.39588 -0.787759 9.5446e-19)
(6.71976 -0.45766 2.62628e-19)
(-1.84834 1.83784 6.39893e-18)
(3.98487 0.128414 5.4327e-19)
(2.93893 -0.661729 0)
(4.3359 1.02686 -2.01317e-19)
(2.76495 -0.326838 0)
(5.01418 0.0597332 0)
(3.99248 0.238768 0)
(4.41819 0.415391 -5.29282e-20)
(3.68897 -0.0619442 9.44006e-19)
(4.56664 0.23412 -8.30183e-21)
(3.01051 -0.678079 0)
(0.788154 -0.391867 -3.88357e-18)
(3.99579 2.30298 3.5947e-19)
(3.61231 -1.29233 1.02705e-19)
(4.2414 -0.244731 -5.54225e-19)
(5.84115 -1.44331 3.37111e-18)
(4.1248 0.075792 -8.89314e-19)
(-1.20305 -0.102262 0)
(5.08395 -0.223834 0)
(2.86296 1.7439 0)
(2.37551 -1.03538 -2.07637e-18)
(-0.028671 -4.1374 -1.43384e-18)
(0.131793 0.197295 0)
(4.39315 1.05404 0)
(5.19872 -0.412925 3.70076e-19)
(3.95345 -0.0328405 -2.39437e-19)
(3.77497 1.29775 1.16702e-18)
(3.7777 -1.61075 0)
(-3.4586 4.58377 -1.59088e-18)
(4.72982 0.174576 6.46245e-20)
(2.7325 -0.755459 -1.9466e-18)
(4.46335 0.156927 -2.8006e-19)
(4.58975 1.36628 4.55265e-19)
(8.02047 -3.25438 3.64051e-18)
(2.34042 -1.04277 3.60637e-18)
(4.18757 -2.35343 1.1432e-18)
(4.53409 0.483257 1.35441e-21)
(3.99557 0.0286489 -2.66789e-19)
(2.76389 -1.28265 -2.92532e-19)
(3.64335 -0.92286 1.4095e-19)
(3.05513 4.18991 -1.28363e-19)
(2.98576 -1.42868 4.81734e-19)
(5.16993 -0.161272 0)
(3.2277 -0.473455 4.14555e-21)
(4.34092 -0.032421 -9.50348e-19)
(5.87716 1.78785 4.6768e-19)
(2.67901 -0.68098 -1.77411e-18)
(3.56834 -1.23343 -1.12212e-18)
(4.01746 -0.0313473 2.23897e-18)
(5.11037 -0.138745 -1.26655e-18)
(2.90059 -0.440663 -1.8207e-19)
(6.14422 0.269289 -1.12326e-18)
(2.23109 -0.261199 -3.90723e-18)
(4.44058 0.008542 -7.51694e-19)
(2.19593 -0.36971 0)
(-2.79658 -2.40602 -4.35763e-18)
(4.07688 0.0633354 2.21927e-18)
(3.3676 -0.00617578 -6.8946e-22)
(-2.09151 -0.53119 0)
(3.44575 -1.59162 0)
(4.04432 0.933642 1.0177e-18)
(1.95483 -0.234631 2.41963e-18)
(4.14491 -5.32201 -6.64758e-18)
(4.15163 -1.3337 -5.1348e-19)
(4.39988 -0.721626 1.22034e-18)
(6.55611 1.72505 0)
(4.07108 1.01767 5.51747e-19)
(1.27866 -1.13555 -1.37171e-20)
(4.87501 2.32631 2.01013e-19)
(3.88671 -0.491972 -1.35546e-18)
(-2.26366 2.04388 -1.03813e-17)
(5.70117 -1.42268 -3.2055e-18)
(6.40427 -1.26355 1.05029e-18)
(4.40261 2.56062 0)
(4.55017 -0.904344 -3.94933e-19)
(3.74267 0.101043 2.40394e-19)
(3.90437 0.0616886 -9.48907e-22)
(1.77887 -0.851247 3.28818e-18)
(3.84735 -0.497077 2.02109e-18)
(2.96046 -0.918424 7.22914e-19)
(-5.916 3.03397 -5.31585e-18)
(4.93771 -0.415999 -8.8102e-19)
(4.40799 -0.00927765 6.7019e-19)
(-3.21673 5.05398 -1.00686e-18)
(4.71053 2.16586 8.10943e-20)
(1.77049 -0.0050309 -6.88385e-18)
(2.23023 -1.07997 -1.09986e-18)
(3.93174 0.0452435 0)
(4.53606 0.850072 2.06608e-20)
(-4.3388 4.35659 -4.43898e-18)
(2.56003 -0.227692 3.56436e-18)
(4.20998 0.137802 0)
(4.24153 -0.566814 2.73772e-19)
(2.25626 -0.899166 8.12733e-19)
(3.97577 0.0922626 -2.3351e-18)
(-5.37439 3.37565 -5.28338e-18)
(3.25668 -1.18093 -6.37016e-20)
(4.37387 -0.349104 7.71184e-19)
(4.59483 0.164108 3.62046e-19)
(3.46192 -1.56375 -1.35232e-18)
(4.60504 0.333038 8.71742e-21)
(0.191278 -4.69702 -5.40262e-18)
(4.30568 -0.0271801 8.91859e-19)
(4.11377 -0.11021 -6.54549e-19)
(4.28931 0.232467 -2.6822e-20)
(4.57134 -0.0601505 -1.4165e-18)
(2.16362 -0.923486 -1.57222e-18)
(4.53024 0.43922 0)
(-4.41272 -1.26462 4.7034e-18)
(4.2001 0.0910399 1.71519e-19)
(1.52504 0.01074 -3.5607e-19)
(5.03118 0.0975357 -1.48747e-19)
(4.30092 -0.759627 -7.55634e-19)
(3.99954 0.0440507 -1.83068e-18)
(4.19038 0.716565 3.02897e-19)
(-4.22872 2.81166 -5.51264e-18)
(5.39157 0.0362947 0)
(3.14755 -0.367707 1.50986e-19)
(5.18689 -0.217403 2.13113e-19)
(2.81644 -1.03174 0)
(4.28236 0.184377 5.34464e-19)
(5.18381 -0.185878 2.27368e-19)
(5.33617 0.0588202 1.00509e-23)
(4.97609 -1.59165 1.01345e-19)
(3.8355 -0.314893 0)
(3.53 0.763795 1.94459e-18)
(4.3437 1.23444 -9.31618e-19)
(2.93141 -1.41116 1.08147e-18)
(3.98309 -0.337313 0)
(2.88054 0.647472 -3.04741e-18)
(1.83315 -0.860537 -2.5108e-19)
(4.79662 3.09782 -7.2504e-19)
(2.25501 -0.30304 3.76852e-18)
(4.3857 0.0115967 8.78846e-21)
(-5.46975 2.74532 4.40662e-18)
(3.83054 -0.17901 -1.45409e-18)
(6.25193 -0.913589 -2.60926e-18)
(3.51957 0.335786 -1.4154e-18)
(4.23559 0.0203682 0)
(3.99434 0.0553812 -1.00927e-18)
(0.082906 -0.281846 1.75453e-18)
(-0.998187 0.626378 0)
(6.85583 -2.3452 0)
(3.90466 0.0547849 0)
(2.65939 -0.523925 0)
(4.08826 0.701305 0)
(2.10608 -0.234714 0)
(4.39837 -1.47106 -3.40696e-20)
(7.88958 0.292351 -2.57862e-18)
(5.2858 0.881372 0)
(3.49679 0.727246 2.94858e-18)
(2.43408 -0.91555 3.07162e-19)
(4.16387 0.453725 2.54092e-20)
(-3.77697 4.66589 -1.97743e-18)
(2.12199 0.220909 -7.87729e-21)
(-4.90379 2.98169 4.62524e-18)
(4.005 0.000354763 -5.25021e-19)
(5.65503 -0.00350722 1.43636e-19)
(4.04103 0.664248 -6.9552e-19)
(3.72741 0.399118 -1.89268e-18)
(3.88095 2.15546 -8.36226e-19)
(6.63708 2.75926 0)
(-2.28901 -0.270791 3.22207e-19)
(2.42379 -0.684374 -3.14502e-18)
(4.02243 0.025425 -3.068e-18)
(4.54772 -1.28276 -8.07741e-19)
(4.30423 -0.0217423 2.25536e-19)
(5.32517 -1.22923 -2.2574e-19)
(4.1839 -0.575672 -1.70166e-19)
(4.06249 -0.99543 -1.0637e-18)
(4.05684 0.386774 7.42821e-19)
(3.38529 2.40606 0)
(3.91126 -0.685523 -1.95671e-19)
(3.32763 0.183611 -4.29725e-19)
(4.88767 -0.597374 0)
(3.54262 -0.394542 0)
(3.61645 -1.63757 -1.45726e-20)
(-5.22384 2.34372 4.62918e-18)
(4.3134 -1.53882 -1.06642e-18)
(3.41341 -0.044776 0)
(3.76425 -0.0832614 -1.92596e-18)
(3.5748 0.48464 -3.68496e-19)
(-4.38102 -1.48716 2.42971e-18)
(5.28407 -0.0984905 7.57239e-20)
(-5.18111 3.06766 0)
(-2.48982 -0.137305 4.52589e-19)
(5.25794 -0.138124 0)
(4.49134 -0.951777 4.17119e-19)
(4.9582 -0.49047 -3.25058e-19)
(4.00682 0.0409239 -1.18766e-21)
(4.74796 1.50474 -3.84173e-19)
(5.25797 2.75657 -1.19746e-19)
(3.36783 -0.912935 2.27331e-18)
(-0.695425 -1.41493 0)
(3.27822 -4.56078 -2.5024e-18)
(2.61613 -1.60524 0)
(5.42428 0.867678 -2.21153e-19)
(-4.5851 -0.853081 4.25774e-18)
(6.77719 -2.25934 2.79848e-18)
(3.21008 -0.360207 -1.46648e-19)
(-3.83022 1.54581 -1.13683e-17)
(2.60839 -1.27594 -1.25325e-18)
(2.51463 -0.700826 -1.79968e-18)
(3.52336 0.327088 1.65742e-20)
(3.70425 -4.07581 2.06986e-18)
(2.21968 -0.949174 1.29625e-18)
(2.62758 -0.76406 1.9954e-18)
(0.157934 -3.97725 1.79279e-18)
(4.72835 -4.38707 -1.4941e-18)
(3.56553 -1.09209 1.12139e-18)
(-3.04007 -0.0357204 4.22342e-18)
(4.67443 0.0781963 3.28308e-21)
(2.47504 -1.02055 -2.52577e-19)
(4.6975 0.952943 -1.7183e-19)
(4.41365 -1.00488 0)
(2.43678 -0.52531 -8.25242e-18)
(4.19252 -0.0281089 -1.11461e-18)
(3.99314 0.269662 0)
(5.3565 0.782948 0)
(2.26697 -3.31816 -8.24929e-19)
(6.87917 -0.957881 -2.74939e-18)
(4.93045 0.521579 1.52952e-19)
(4.02537 -0.716092 1.96898e-18)
(3.85412 2.06592 7.56315e-19)
(3.10817 -0.0128605 1.44125e-18)
(-5.20736 -0.0496791 -3.76654e-19)
(3.51519 1.36932 0)
(2.68112 -0.82626 1.92275e-18)
(-1.56627 4.36262 9.41649e-19)
(-4.42723 1.42339 8.66276e-18)
(3.3384 -1.24159 3.71477e-19)
(3.40749 -1.54993 -1.77502e-19)
(3.90777 -0.0211285 7.4101e-19)
(3.39257 -0.339385 8.15763e-20)
(5.22294 -0.927988 1.8895e-18)
(-5.0742 -0.519679 -3.52373e-18)
(4.87012 0.513947 -1.00911e-19)
(3.86499 0.130489 7.79967e-19)
(2.18968 -0.367484 -1.55544e-18)
(3.71001 -0.153154 1.19422e-18)
(2.49866 -0.402276 0)
(4.89169 0.917475 -3.30921e-20)
(3.93377 0.0983476 1.74671e-19)
(2.85611 -0.511742 -6.10338e-19)
(3.5405 3.7476 4.02657e-20)
(3.5104 -1.06579 8.36926e-19)
(4.16971 0.0480247 3.32917e-19)
(2.68524 0.32085 -2.35493e-18)
(4.89555 -0.639951 0)
(3.18883 -0.297939 -2.67911e-19)
(4.50327 0.207784 3.82142e-19)
(4.34009 -0.26374 0)
(2.74453 0.0988374 1.33868e-18)
(5.28273 -0.0882991 0)
(3.45107 3.68314 6.96047e-19)
(4.93134 -0.0719259 0)
(3.91826 -0.759216 0)
(5.05569 -0.114434 1.79568e-19)
(4.86999 0.408475 -9.98555e-21)
(6.16292 0.580816 -1.70205e-18)
(3.82063 0.317326 -8.66359e-19)
(3.0668 2.50903 -5.96164e-19)
(3.99446 0.217371 -3.43204e-19)
(4.15717 0.716124 0)
(-0.0979016 1.66491 -3.99319e-19)
(5.10579 0.376356 3.13563e-19)
(4.41136 -0.9187 -8.51121e-19)
(4.41287 -1.0032 0)
(5.96134 1.74627 7.27574e-19)
(4.22279 3.42034 2.51606e-20)
(4.60643 0.041746 2.18008e-20)
(3.64021 -1.86696 0)
(-1.56683 4.87929 6.20668e-18)
(4.09171 0.364671 0)
(5.26641 -0.792433 -9.29792e-19)
(-0.00654123 -0.441789 0)
(4.17922 0.742055 0)
(4.11728 -2.61771 0)
(3.95306 -1.47385 0)
(-2.84371 5.08531 -7.87078e-19)
(-3.86589 -1.23019 -1.57968e-18)
(3.66772 -0.0428299 -1.42291e-18)
(-3.09505 -1.84104 -1.90369e-18)
(2.38319 -0.99933 0)
(-2.37354 -3.04267 -1.77715e-18)
(-0.424307 -0.690781 -4.12069e-18)
(3.03683 -1.41226 0)
(2.83377 -0.966224 -2.02658e-18)
(3.26406 0.67317 -2.35783e-20)
(4.6607 0.929881 4.0401e-19)
(4.7899 -1.57866 1.12994e-19)
(3.68906 0.375996 0)
(4.30083 -1.3277 0)
(7.0416 1.04152 8.38528e-19)
(3.63118 -0.841186 3.76624e-20)
(3.40684 0.251724 -5.95485e-20)
(2.18467 -3.0705 5.98905e-20)
(3.99256 0.00990397 7.45969e-20)
(4.51198 0.827208 -8.03829e-21)
(4.0433 0.388035 1.0724e-18)
(3.03971 -0.299982 1.44743e-19)
(3.69327 -0.981236 0)
(0.157735 0.445637 0)
(4.59575 0.280717 0)
(3.58698 0.0514561 0)
(3.40704 -0.593933 8.56886e-19)
(5.93093 0.0320393 0)
(-2.45131 5.25739 1.1243e-17)
(7.09352 -4.59351 -4.05202e-19)
(2.55875 -0.784792 -3.01789e-18)
(2.38866 -0.896696 -1.62135e-19)
(-4.30998 -1.62956 -2.65035e-18)
(-1.18212 5.06151 -4.93883e-18)
(4.05343 0.0767095 2.64296e-19)
(-5.17925 0.619675 -3.69224e-18)
(2.93663 -0.283298 2.37529e-19)
(5.07204 -0.0919158 0)
(4.59183 -0.663857 0)
(2.91861 -0.750991 0)
(4.29546 -0.781267 3.97321e-19)
(4.9661 -5.04102 0)
(3.62129 1.33439 0)
(4.00881 0.0123271 0)
(3.4499 -0.807667 8.84636e-19)
(4.17846 0.439026 -1.00634e-18)
(3.39311 0.0566369 0)
(4.56723 -1.47378 -1.04161e-18)
(3.93689 0.404209 -1.03248e-18)
(4.91851 2.10116 -4.29601e-19)
(3.06839 -1.41799 1.18932e-18)
(3.75279 1.46014 6.62579e-22)
(3.58077 -1.12671 -2.59811e-20)
(3.48281 -0.437995 1.79717e-19)
(3.98687 -0.956296 -4.01284e-19)
(4.82244 0.412141 3.36143e-20)
(3.45537 0.254402 -1.17224e-19)
(3.59387 0.178759 -1.36133e-18)
(4.27601 -0.02367 0)
(1.71008 0.0773833 2.71587e-19)
(3.90232 0.126386 1.40995e-18)
(1.51871 -1.20682 -2.58843e-19)
(4.17326 -0.543929 -4.98583e-19)
(2.01936 -0.284858 -2.64598e-18)
(4.86257 0.357881 -9.67564e-21)
(6.45886 1.23476 1.41362e-18)
(3.99851 0.186549 0)
(3.05436 -0.403815 -2.48557e-20)
(3.41729 -0.08984 -7.38876e-20)
(4.03185 -0.960136 7.99768e-19)
(-2.84569 0.34613 -2.96186e-18)
(4.01789 0.0396514 7.28023e-19)
(4.58861 0.437408 -1.60203e-21)
(4.31789 0.0190591 -6.00939e-21)
(4.53121 0.235898 0)
(2.08012 -0.609441 0)
(2.82633 -1.34575 1.45492e-18)
(-5.33584 3.14021 5.78423e-18)
(3.94156 0.0242305 7.26323e-22)
(3.90468 0.13083 2.83047e-18)
(3.01474 -0.435067 8.57465e-20)
(2.82115 0.595012 0)
(3.53885 0.221074 0)
(3.08508 -0.652165 -1.49942e-20)
(4.88774 -0.0473 2.84838e-19)
(3.86436 1.40693 1.56293e-18)
(4.86405 -0.341827 0)
(4.67265 0.06205 0)
(4.08397 -1.11218 1.43033e-18)
(3.947 -0.299397 1.09849e-18)
(0.131032 1.32841 -1.95476e-19)
(3.86252 -0.139362 0)
(3.12384 0.502666 7.69813e-19)
(5.11584 -1.82847 -4.73395e-19)
(-4.54023 3.71265 -5.06826e-18)
(3.98387 -0.0341057 -1.52756e-18)
(7.96409 0.183923 0)
(7.02453 -0.793106 2.2083e-18)
(5.18416 -2.45989 -9.58504e-18)
(0.00353323 0.971157 0)
(3.61691 0.07011 -7.32543e-20)
(3.80686 0.242559 -9.24583e-19)
(3.86243 0.028449 -2.76179e-23)
(5.05432 -0.531582 1.86786e-19)
(2.34328 2.23667 1.28778e-18)
(4.13602 0.0455535 0)
(1.97601 -0.672119 -1.79262e-20)
(2.96348 -0.416174 -8.55172e-20)
(4.63869 1.88758 -8.13806e-18)
(4.07034 0.652295 8.27685e-19)
(-0.359362 -1.4685 1.84652e-19)
(4.08735 0.0400724 -3.38041e-18)
(2.95101 -1.12938 -4.28312e-19)
(3.35655 -0.427749 1.66324e-19)
(3.38019 -0.733306 0)
(3.54509 -0.00118022 -3.62125e-19)
(2.14611 -0.970077 1.03207e-18)
(4.45288 -0.190493 -1.51776e-18)
(3.94444 0.097764 -1.26972e-18)
(5.19698 -0.76843 8.42512e-19)
(3.26203 -0.292601 3.20448e-18)
(4.60676 0.0534979 -2.34386e-21)
(3.50653 0.234977 8.03209e-19)
(3.56712 0.479329 -4.38384e-20)
(6.75174 -0.489651 -2.96838e-18)
(4.73087 2.32186 -1.76777e-19)
(4.17064 -5.27513 5.09073e-18)
(3.89356 -0.0467395 0)
(3.03817 -0.687845 0)
(2.84706 -0.484693 0)
(2.56628 -0.720395 2.31698e-18)
(4.14863 0.0813664 -2.03868e-18)
(3.54485 0.516461 0)
(2.92903 -0.568446 -1.81124e-18)
(3.5394 0.438986 0)
(3.43269 -0.528749 -1.40336e-18)
(4.35615 -0.972495 -8.96725e-19)
(3.64337 -0.919681 -1.23074e-18)
(4.23465 0.0408647 0)
(3.86888 0.105012 0)
(4.36395 -0.271696 4.88801e-19)
(5.21386 0.716139 2.07877e-20)
(5.64852 -0.154961 1.07641e-18)
(4.56873 3.61404 -1.08246e-20)
(4.88326 -0.434993 0)
(3.35392 -1.19595 -6.30186e-19)
(-0.838155 0.932083 0)
(1.73828 1.95338 -1.26157e-18)
(5.29793 2.76298 0)
(4.57781 0.40847 4.19768e-21)
(2.2454 -0.2272 1.02381e-18)
(2.98212 -0.204176 1.02101e-18)
(3.73564 -0.149327 -4.96272e-19)
(6.15659 -4.32378 -1.12478e-17)
(3.88068 -0.343685 2.78212e-18)
(4.1093 0.684673 -2.22875e-20)
(5.0563 -1.15783 2.65659e-19)
(3.89285 -0.814782 -6.04367e-19)
(-0.425488 0.983979 1.70963e-18)