/*--------------------------------*- C++ -*----------------------------------*\
| =========                 |                                                 |
| \\      /  F ield         | OpenFOAM: The Open Source CFD Toolbox           |
|  \\    /   O peration     | Version:  2306                                  |
|   \\  /    A nd           | Website:  www.openfoam.com                      |
|    \\/     M anipulation  |                                                 |
\*---------------------------------------------------------------------------*/
FoamFile
{
    version     2.0;
    format      ascii;
    arch        "LSB;label=32;scalar=64";
    class       surfaceScalarField;
    location    "6.6";
    object      phi;
}
// * * * * * * * * * * * * * * * * * * * * * * * * * * * * * * * * * * * * * //

dimensions      [0 3 -1 0 0 0 0];

oriented        oriented;

internalField   nonuniform List<scalar> 
7520
(
-0.98995
0.800811
0.189139
-1.33875
-0.195292
1.53405
-0.0698371
-1.90115
1.97098
0.227613
-0.0304886
-0.197124
0.196909
1.68962
-1.88653
-0.0873434
0.0940214
-0.00667799
-0.314208
2.12825
-1.81404
-0.174444
-1.94045
2.11489
-1.55115
1.48131
0.837256
-0.0928258
-0.74443
0.383766
-0.259692
-0.124075
-0.256261
-1.61691
1.87317
0.701423
-0.106545
-0.594878
-0.0977194
0.135206
-0.037487
-2.04404
0.948503
1.09553
0.0979144
1.55345
-1.65136
0.217612
-0.0882891
-0.129323
-0.155254
-0.272204
0.427459
0.0350111
0.0206504
-0.0556615
-0.0201672
0.237779
-0.400007
-0.28267
0.682677
-1.07083
1.16874
-0.0318673
-0.307307
0.339174
0.134772
-0.139434
0.00466154
0.106988
-0.313563
0.206575
0.245611
-0.240203
-0.00540811
0.855348
1.13251
-1.98785
-0.0353605
0.308843
-0.273483
-0.0265275
0.0615385
0.194693
-0.0311174
-0.163576
-1.14554
1.74437
-0.598823
-0.0473141
-0.0179781
0.0652922
-1.84622
2.02336
-0.177146
-0.21591
0.0360588
0.179851
-0.296673
-1.25303
1.54971
-0.406106
0.979941
-0.573835
0.253682
-0.526498
0.272816
0.801724
-1.59066
0.788938
0.0883144
-0.309113
0.220798
-0.0438904
-0.0992167
0.143107
-0.0274479
0.255061
0.330289
-0.310244
-0.0200454
0.280175
-0.0345635
2.07999
-1.57349
-0.506504
-0.539184
-0.620616
1.1598
-1.49598
1.62609
-0.130105
-0.149974
-0.0621092
0.212084
0.256477
-0.0724561
-0.18402
-1.33695
0.191407
0.266965
-0.0730316
-0.193933
1.80069
0.186898
-1.98759
-0.722894
0.272589
0.450305
0.00381927
0.00203704
-0.00585631
1.05862
0.48214
-1.54076
0.0145158
-0.101859
-0.776064
0.129891
0.646173
0.397068
-1.26348
0.866409
-0.0403127
-0.120335
0.160648
-0.11478
0.0674657
-2.19421
1.11578
1.07843
1.55724
-0.738232
-0.819008
0.0124925
0.155695
-0.168188
-1.29056
0.993891
0.822447
-0.121024
0.0224887
-0.0186695
0.00398368
-0.101703
1.13474
-2.34389
1.20915
0.138359
1.66233
-1.25064
0.978672
0.271973
0.307535
-0.23198
-0.0755553
-0.498578
0.895646
0.0607424
-0.674057
0.613315
0.331405
-0.0907521
-0.240653
0.17473
-0.321708
0.146979
0.938164
-1.53667
0.598502
0.123922
-0.108552
-0.0153696
1.68089
-0.512134
-1.16875
0.393564
-0.742762
0.349199
1.69096
-1.19734
-0.493629
-0.832282
0.0562183
-1.48441
-0.709796
1.20179
-0.637512
-0.56428
0.235313
-0.604816
0.369503
-0.336147
0.120237
-0.488289
0.333035
0.211315
-0.0166218
0.0104171
-0.0472236
0.0368065
0.975187
0.705699
-1.95093
2.28753
-0.336605
0.718797
0.838443
-0.95249
1.11082
-0.158329
0.0122599
-0.0572865
0.0450265
1.37028
-1.62654
0.236476
0.190989
-0.102674
0.335485
0.252821
-0.588306
0.0072849
0.0812159
-0.0885008
-0.513444
0.381341
0.132103
1.38359
-0.445427
-0.715753
0.615375
0.100378
1.01796
-1.61386
0.595896
-0.0858044
0.107762
-0.021958
-0.021842
0.0283898
-0.00654777
2.9671
-1.76716
-1.19995
0.523455
-0.410765
-0.579185
-1.32547
0.826894
-1.93281
1.61861
0.160789
-0.0778609
-0.0829285
0.278035
0.105732
-0.153685
0.152527
0.00115845
-0.120478
0.159781
-0.0393033
1.94277
-1.14105
-0.0939391
0.0231441
0.0707951
-0.763791
0.363784
0.0205006
-0.0439967
0.0234961
0.507872
0.693919
-0.794839
0.499441
0.295398
1.31182
-1.66376
0.351938
0.0353813
0.0993908
-0.198251
-0.524643
-0.381961
0.100382
0.281579
1.03513
-0.197872
0.550835
-0.47501
-0.075825
-0.0529229
-0.0648116
0.117734
-0.178269
0.154996
0.0232737
0.705982
-1.8389
1.13292
0.37757
-0.409437
-0.339486
-0.0484081
0.387894
-0.0283579
-0.0655812
-0.288921
-0.261494
0.550416
0.138615
0.0318171
-0.170432
-0.0633915
0.202006
-0.601471
-0.193368
-0.561322
-0.532413
1.09374
-1.10578
2.20992
-1.10413
0.401963
-0.414843
0.0128796
-1.15131
-0.174163
-0.0329468
-0.0494958
0.0824426
1.39801
-0.339395
-0.642312
0.414249
0.228063
-0.00489087
0.120113
-0.115223
0.281218
-0.0724051
-0.208813
0.2428
-2.14395
0.317639
-1.81362
-2.59471
0.785461
1.80925
-0.837406
-0.413239
-1.39426
1.35
0.0442597
2.0647
0.255108
-2.31981
0.176796
-0.220687
0.416419
0.699579
-1.116
-0.260861
-0.273836
0.534697
0.285836
-1.68009
-1.84796
0.00174079
-0.00349741
0.0139145
0.0607374
-0.112523
0.0517856
0.277936
-0.318248
1.48163
-0.463665
-0.150391
0.122943
-0.0215353
0.00224073
0.0192946
0.744657
-0.406532
-0.338125
-0.441959
-1.60208
-0.0452419
-0.215619
0.0420611
-0.569291
0.52723
0.309981
0.106291
-0.416273
-1.57915
0.944293
0.63486
0.881027
-0.684117
-0.0559006
0.443494
-0.387594
-0.302619
0.409607
0.503655
-0.234361
-0.269294
0.853238
-0.517753
0.231127
-0.304159
0.877495
0.352291
-1.22979
0.291624
-0.326985
-0.336689
-1.46126
1.79795
1.29617
0.648271
0.677814
-0.442501
-1.34685
0.940743
-0.674379
0.893036
-0.218657
0.0116417
-0.0340147
0.0223729
0.270888
-0.312747
0.0418591
-1.0976
1.60547
-0.265301
-0.147883
0.413184
0.411494
-0.101513
-0.838995
0.881056
0.592134
-1.08071
0.488575
-0.500294
-0.0131505
0.659742
-0.40606
0.134383
-0.0104611
-0.355799
0.278094
0.0777052
0.0761661
-0.196644
-0.327415
-0.112337
0.439752
0.127757
0.203648
-0.970725
-0.565941
-0.753311
-0.825842
0.0073267
0.0419706
-0.0492973
1.30227
-0.232925
-1.06935
-1.47491
0.369124
-1.17792
2.1652
-0.987274
0.350011
0.153644
-0.42606
0.47097
-0.0449104
-0.768269
0.570017
0.586613
-1.1258
1.75482
-0.0643566
-1.69046
-1.43787
1.87368
-0.43581
-0.0208019
0.0815393
0.401199
1.50858
-1.90978
0.033057
-0.162751
0.129694
-0.0989817
1.78552
-1.68654
0.00137437
0.106777
-0.108152
-0.89356
1.24717
-0.353606
-0.118146
-0.650122
0.0809886
-0.408404
0.287333
-0.166818
-1.77562
1.94244
0.0252821
-0.00463173
-1.69065
0.719928
-0.141563
-0.264458
0.406021
0.0684245
-0.121347
0.12865
1.58731
-1.71596
-0.569242
-0.550733
1.11997
-0.491166
0.390189
0.100978
2.66984
-1.74276
-0.927079
0.443777
-1.01302
0.0488211
-0.0539912
0.0051701
0.107594
0.736172
-0.843766
0.0383162
-0.041827
0.00351079
0.848265
0.8026
-1.65086
-0.231756
-0.483997
-0.0583364
0.164584
-0.106248
-0.908528
0.693896
0.214631
-0.0664296
0.0367449
0.0296847
1.6688
-0.366532
1.05142
-1.98632
0.934899
-2.8038
1.2163
1.5875
-1.17318
-1.63062
-0.375098
0.493335
-0.118237
0.505118
-0.331814
-0.173304
0.900466
-1.68297
0.782504
0.0619888
1.05206
-1.11405
-0.745447
0.107935
1.1258
-0.248309
1.2009
1.31123
-2.51213
-0.178143
0.0824704
0.0956726
0.0520873
-0.960615
1.86231
-0.484387
-1.37792
0.13271
-0.0996534
0.136472
0.139599
-0.227888
1.06163
0.800675
0.170849
0.676379
-0.847228
0.349503
-0.0406601
-0.0676836
0.0507044
0.0169792
0.520848
-0.43397
-0.0868776
-1.7988
0.856385
0.942415
0.416518
0.0886009
0.765971
-1.32729
0.344997
-0.00624528
-0.338752
0.132226
0.124251
-1.71372
1.65977
0.0539546
1.19052
-0.598385
0.0155831
-0.0311348
0.0155517
0.0202214
-0.236888
0.216666
0.115997
-0.20675
1.7063
-0.571558
-0.0686267
0.315749
-0.247122
0.0014539
-0.0229892
0.107783
-0.367475
0.801067
-0.548246
-0.637537
0.699526
-0.267035
-0.0887642
2.12825
0.0153891
-0.0180148
0.0026257
0.026728
0.774339
-0.195574
0.125219
0.0703548
-0.00178156
-0.0200605
0.182458
0.147831
1.62045
-1.20403
0.410386
-0.361491
-0.0488953
0.317022
-1.21058
0.0769353
-0.365856
-1.95646
1.78964
0.0457974
0.00302376
-2.1309
0.215938
-0.220829
-0.042635
0.052977
-0.010342
-0.591313
-1.20749
1.86352
1.10358
1.72451
-0.78022
-1.61691
0.174569
0.376266
0.186583
-0.17605
-0.0105326
0.175501
-0.24092
0.0654194
-1.24906
0.628443
-0.19327
-0.254487
0.447757
0.294709
-0.387535
-0.110077
-2.03185
2.14193
0.991054
0.202593
-1.49791
1.29532
0.931618
1.09174
-0.731188
1.56981
-1.16861
-0.0485058
0.374652
-0.326146
-0.894008
0.748003
0.146005
-0.197438
0.128811
-0.0813435
0.317605
-0.236262
-0.250769
-0.264103
0.514872
-0.531745
1.82792
-0.275699
-0.350551
0.62625
-0.281191
0.131216
0.25777
-1.21026
-0.057973
-0.00971064
0.00821697
-1.84421
0.966087
0.87812
0.353848
-0.460393
0.00814432
-0.0159372
0.417901
1.15037
1.51947
1.65153
-0.532251
-1.11928
0.113221
-0.0436105
-0.0696103
0.743841
0.947123
0.0932779
0.0933047
0.618821
-2.17735
1.55853
-0.08677
0.104895
-0.0181252
0.746606
0.636985
-0.211143
-0.0979701
0.729075
-0.558227
-0.567307
1.42265
0.14929
0.0114995
1.609
-0.29718
0.139318
-0.132033
1.77118
-0.119649
0.0997636
0.393619
0.0167675
0.0169226
0.290613
-1.74592
-0.830283
0.968055
-0.137772
0.00559185
-0.114144
1.7636
0.0313951
-1.795
-0.69686
0.421161
0.216394
0.0648241
-0.298557
0.0665774
0.0129059
-1.21024
1.54758
-1.55947
0.0118941
0.00626741
-0.266179
0.259911
-0.593554
1.34016
-0.814873
1.52086
0.0276671
-0.0213997
0.775375
-0.275934
1.96519
-0.594915
0.0047387
0.117666
-0.122405
-0.0724243
-0.0890834
0.161508
0.109554
0.00366723
-0.349125
-0.728429
-0.139074
-0.263727
0.4028
0.732373
1.47754
-1.66896
1.33227
0.103361
-0.442847
-0.834476
0.895218
-1.14087
1.32904
-0.188175
0.512901
-1.70409
1.6051
1.49188
-0.516694
1.30097
0.77902
-0.0633482
0.268081
1.2795
-1.30904
0.284425
1.02462
0.244668
-0.275785
0.420568
-0.00405069
-0.207468
0.144077
-0.0792776
-1.49421
0.474994
-1.23462
0.759626
-1.48269
1.01066
0.472026
-0.0256389
-0.648419
-0.194497
0.206989
0.0847099
-0.00701009
0.13582
-0.12881
-0.532941
0.477041
0.794638
0.697243
-1.43787
-0.0931178
-0.0851516
1.60301
-1.42328
-0.179726
-0.416441
1.92502
-1.64867
2.50104
-0.852374
-0.732069
1.03802
-0.305947
0.0892597
-1.37982
0.0971443
-0.428959
-0.26034
0.410958
-0.150617
0.0025765
0.0258133
1.3351
0.707129
-1.27845
0.571323
-0.0263082
-1.54312
1.56943
-0.0506894
-0.102996
-0.00845923
-0.475352
0.483811
-0.443203
1.24736
-0.804161
0.192431
-0.1341
-0.0583306
0.0514565
-0.0351144
-0.0163421
-1.97395
1.77866
2.27699
-0.464148
-1.81284
-0.00207506
0.00667743
-0.00460237
0.00624641
0.169254
0.0959513
-0.596245
-0.844176
1.69244
0.00725856
0.0132421
1.75482
-0.989726
1.09732
0.161163
-0.161163
-0.119348
0.303723
-2.25465
2.2542
-0.943006
-1.3112
-0.945223
0.799667
0.145557
-0.0625047
-0.10633
0.168835
1.02509
-1.21543
0.190346
-0.589565
-0.200528
0.790094
0.656845
-1.98499
1.32815
-0.0879079
-0.806101
-0.208227
0.135803
-0.18581
-0.591203
0.777012
0.754652
0.421136
-1.17579
-1.35676
-0.409298
0.664473
-0.255176
-0.6648
1.02613
-0.361331
1.45778
-1.32913
0.231078
-0.370151
0.0806844
-0.211772
0.386501
-1.25987
1.24577
0.0141049
-1.28847
1.77762
-0.48915
-0.0164768
0.1271
-0.110624
-1.57528
-0.768614
-0.0351503
0.00862281
-1.63794
0.460014
-0.358163
0.27682
-0.180281
-0.551788
0.000840317
-0.0876103
-0.811507
2.01241
0.0432514
-0.350558
-1.51565
0.12073
1.39492
0.620329
-0.460232
-0.160097
-0.859603
0.185224
0.211448
-0.546647
0.3352
1.59548
-0.143834
-1.45165
-0.0503239
0.129866
-0.079542
-0.383557
0.627981
0.909959
-1.53794
-0.586253
1.53476
0.185063
0.676974
0.721041
-0.141592
1.58108
0.190094
-1.41003
1.38372
0.179647
-0.0820782
-0.0975685
0.292639
-0.19875
-0.093889
-2.00756
0.358895
-0.1115
-0.198743
-0.607439
-0.222844
0.25321
0.825722
-0.233321
-0.592401
0.186112
0.0940623
-1.19135
1.68122
-0.489872
0.15192
-0.241003
-0.0633672
0.334255
0.242005
-0.502346
-0.160073
0.433344
-0.273271
-0.058763
-0.0102763
0.0690393
0.821396
-0.475901
-0.345494
-0.0448934
-0.14384
0.188734
-0.279942
0.311708
-0.0317659
0.0248495
-0.333465
0.308616
0.29876
-0.0540924
0.390894
-0.0180019
-0.372892
1.51929
-1.02926
-0.958598
0.036061
-0.168255
0.132194
0.0747515
-0.0793832
-0.265845
-0.225321
1.12784
-0.302114
-0.0403123
-1.23879
1.2791
-0.353494
-0.0284668
-0.00850528
-0.592966
0.115251
-0.0637945
0.163829
-0.162455
-1.36775
-0.033806
-0.0768989
0.110705
1.32942
-0.977129
1.1472
1.12979
0.349732
-0.00473462
-0.141169
-1.6514
1.79257
0.75115
0.440735
-1.19189
0.0901277
-1.04114
0.681268
0.359875
0.55361
0.0667189
0.0396997
0.0470135
-0.0867132
2.15509
-1.15989
-0.995203
0.129997
-0.294139
0.164142
0.719717
0.390514
-1.11023
0.0691609
0.0973132
-0.166474
1.71275
0.0233143
-1.73606
-0.361974
0.0897691
-0.246115
0.289366
0.0397288
0.0321347
-0.0718635
-0.306062
-0.182227
0.0329095
0.0159327
-0.0488422
-0.443221
-0.665717
1.10894
1.13203
0.463444
1.00185
-1.04216
0.777612
-1.22081
-1.89251
1.78243
0.0376504
-0.102462
0.254396
-0.611481
0.357085
0.723141
1.00137
1.14587
-1.34159
0.195727
1.2277
-0.55073
-0.125073
0.0814628
0.0209258
-0.255379
0.234454
-1.65101
-0.436522
2.08753
-0.406966
0.434591
-0.0276258
0.00549339
0.15567
0.197467
1.49216
-0.136628
-0.0415154
0.636163
-1.52945
0.893287
-0.734523
-0.340594
1.07512
1.55673
-0.505305
0.571207
0.566212
-0.840048
-0.254188
0.00471447
0.249473
0.0190565
-0.182632
-0.472833
1.17996
0.00846739
0.0298488
-0.353868
-0.110094
0.463962
0.0128642
1.01222
0.688899
-1.22131
-0.45453
-0.413244
0.513627
0.752577
-0.932858
0.0598279
-0.0366838
-0.135762
-0.0921266
-1.94715
0.917899
-0.0668531
0.0614475
0.00540556
-0.0856027
0.0793881
0.00621464
0.200806
0.85125
0.180858
-0.0251624
0.0321783
-1.69251
1.66033
0.607326
-0.956924
0.349598
-0.0143978
0.0563186
-0.0419208
-0.717231
1.19223
-0.121172
-0.368914
0.490086
-0.267825
0.479273
-0.946955
1.44339
-0.496438
-0.519893
0.50892
0.0109733
2.13337
-0.0686679
0.322824
-0.300942
-0.0218827
-0.495145
0.233651
-0.171042
0.151047
1.28438
1.00315
0.183438
-1.53642
1.35298
-0.808357
-0.189345
0.997701
-0.274683
0.245643
0.0290397
0.132526
-0.0341736
-0.0983519
-0.00831297
-0.179642
0.187955
-0.0958514
0.0378784
-1.0276
-0.307579
-0.00598449
-0.12642
0.116709
-0.123434
0.382566
-0.259133
-0.22384
0.258884
-0.0350437
-0.00968918
0.188443
-0.178754
0.800091
-0.369723
-0.0653613
0.0181377
0.155223
-0.778774
0.623551
1.15983
-0.959022
0.0225044
-0.344361
0.321857
-0.957166
-0.656691
-1.39291
1.53127
0.935721
-0.236142
-1.33685
0.845555
0.491297
0.217708
-0.0906496
-0.127058
1.75918
-1.75918
-1.59082
0.106408
-0.734812
-0.243604
-0.620886
0.86449
0.587315
-0.541127
-0.0461884
-0.0646769
0.0414595
-0.00519391
-0.0362656
-0.00232094
0.202004
-0.199683
-0.440059
1.26305
-0.82299
0.427349
-0.0106898
-0.416659
0.795457
-0.706198
-1.06826
0.259905
-0.0389646
-0.20812
0.247085
0.00893782
-1.31798
-0.483471
-1.2255
0.742033
0.417651
0.0151475
0.229027
-0.244174
-0.265063
0.323397
-0.0583337
-0.223395
0.165059
-0.082249
0.0259483
-0.0685833
0.035553
0.094276
0.267268
-0.361544
-0.182086
-0.0732938
0.0513651
0.339529
-0.106932
0.0749825
0.0319496
0.00966242
-0.00552863
-0.00413379
0.0886694
-0.0796368
-0.00903257
-0.0633523
0.164289
-0.100937
-0.583691
1.34332
0.520598
-1.1336
0.612998
-0.145488
-0.080089
0.225577
-0.0556843
-2.4371
2.49278
0.879068
-0.552451
-0.326617
0.468302
-0.0458943
-0.195026
0.0175236
-0.0615203
-0.053641
0.183638
0.280658
-0.934224
0.653565
-0.428471
-1.28525
-0.194911
0.816354
-0.621442
-0.0852596
0.0569017
0.394679
-0.266352
-0.128327
0.524171
-0.368948
-0.76389
0.422377
-0.462346
0.0399691
-0.515151
0.32188
-0.164961
0.57921
-0.301612
0.321833
-2.01091
0.243757
-0.278029
0.520034
0.0263362
-0.234563
0.226915
0.00753831
0.317314
-0.302166
-0.0797591
-1.30782
0.724131
1.98868
-0.203161
-1.77562
2.24195
-1.09261
-1.14935
-0.0736337
0.454975
-0.086796
-0.745486
0.478803
-0.402637
-0.23637
-0.0178177
-0.583593
-0.399446
0.983039
0.0693747
0.255937
-0.325312
0.0379069
-0.875313
-1.99967
-0.299944
-0.316331
0.616276
0.735918
-0.128592
-0.235142
-0.0367933
0.271936
0.457916
-0.0803464
0.158053
0.0596552
2.01882
-1.36198
-0.896209
0.312616
-0.242423
-0.0488777
0.291301
-0.0434654
-0.146527
-1.06891
0.466135
-0.26957
-0.196565
-0.0810323
-0.0337475
0.907143
-1.1674
0.260259
-0.646811
-0.0548668
1.81404
-0.212832
-0.565943
1.5067
-2.0615
0.554796
-2.10661
1.68107
0.425542
0.144856
0.103486
-0.248342
0.149599
1.16045
-0.0100405
0.839718
-0.829677
2.7004e-05
0.315722
0.0336648
-0.0357399
-0.0197416
-0.269519
0.289261
1.26964
-1.4108
0.099601
0.335785
-0.324118
-0.011667
-1.47795
-0.11287
-0.582298
-0.349
0.385061
0.104631
0.00324201
-0.107873
-0.606434
0.300278
0.306156
-0.375928
0.327422
-1.09635
-0.491829
1.58818
-0.13521
0.00278109
-0.0652858
-0.177377
-0.302185
0.479562
-0.361355
1.37202
-0.150317
-0.859034
-0.0861896
1.11663
-0.350655
1.00101
-1.44107
-0.0263494
-0.00181653
0.028166
1.05881
-0.564447
-1.32208
-0.334482
-0.0752857
0.409768
-0.054178
0.198255
-0.0108
-0.368318
0.379118
0.414101
-0.081066
0.0936995
1.52675
-0.148402
0.295022
-0.063895
-0.422969
0.407032
-0.175452
0.0688891
0.106563
0.242861
-0.1064
-0.136461
-0.138654
-0.0407815
0.179435
0.354476
0.0470325
-0.401508
0.0628297
0.0549048
-0.197163
-0.0690155
-0.0472485
1.18289
-0.000988665
0.0781385
-0.0771499
0.0385644
-0.0794038
0.0408394
-0.00494554
-0.427945
0.43289
0.53364
0.248798
-0.658096
-0.0582545
0.349387
-0.0714511
-0.443914
0.141295
-0.126802
-0.0359485
1.78337
-0.980768
0.0962382
-0.220425
0.124187
-1.60223
0.209323
-0.106868
0.048702
0.0581661
-0.037225
-0.0292047
-0.302194
-1.80441
0.349461
-0.0578363
-0.80033
-1.37702
-0.403411
0.0495431
-0.790329
0.612952
0.956726
-0.733607
-1.31886
1.50229
-2.02101
0.370003
-0.219104
0.0932964
0.125808
0.0120321
-0.182852
-0.382259
0.565111
-0.219148
-0.0279744
-0.360551
-1.00945
1.37
-0.648623
-1.14188
1.7905
0.603451
0.336701
-0.940152
-0.00435949
0.310158
0.112219
-0.249915
-0.252431
-0.16555
-0.102303
0.267853
0.186761
0.347936
0.26723
0.127449
0.448752
-0.577973
-0.0222353
0.0376244
-0.594222
0.790625
-0.196403
-0.142207
0.405159
-1.30831
0.0466005
-0.00462998
-1.07187
0.347514
0.202901
-0.892209
-0.435084
-0.161119
-0.906563
-0.317882
1.22444
-0.129545
0.608347
-0.00764575
0.807312
-0.285079
-1.01525
-0.931907
-1.26713
1.45748
0.0749202
-0.184987
0.011358
-0.0589552
0.0475973
-0.623327
0.56477
0.0585561
0.677674
-0.795821
0.0100735
-0.0769266
-1.14525
-0.191603
-0.231774
0.156105
0.0756685
0.500956
0.32044
-1.45279
-0.162323
1.61511
0.0410435
-0.223129
0.312896
-0.207081
-0.105815
-0.227737
0.375832
0.147623
-0.171717
-0.0280035
0.19972
-1.30676
0.82237
-0.25449
0.0353423
-0.168958
-0.125182
-0.319156
0.0358996
0.0239283
0.0183642
0.273148
-0.00323177
-0.0686317
0.319782
1.33999
-0.647379
1.94835
1.0117
0.630449
-0.830978
0.0445005
-1.49729
-0.282996
-0.316386
0.372821
-0.0564349
0.162581
-0.00758572
0.0791099
0.0142605
-0.0539544
0.12142
-0.188578
1.76329
-1.57471
0.201593
-0.851715
-0.118047
-0.251557
-0.0666913
0.550684
-0.273831
0.346206
-0.0723746
-0.00649751
-1.50157
1.50807
0.627536
0.280793
0.306522
-0.567494
-0.563823
0.941662
-0.377839
-0.0137926
0.00485834
0.0745297
-0.315796
1.05371
-0.737915
0.00634497
0.142527
-0.148872
-0.125267
-0.654707
0.779974
-0.268728
-0.0582572
-2.0383
-0.0224299
0.17833
-0.173591
0.022304
-0.213051
-0.0414391
0.328893
-0.645224
2.23482
-0.941877
-1.29294
-0.105541
0.411227
0.0925468
0.220349
-0.286307
-0.176039
-0.168685
-0.0153354
-0.207043
-0.129105
-0.211278
0.859378
-0.984645
0.131636
-0.0908363
-0.0407993
-0.367968
-1.9697
1.07942
0.890272
-1.92407
1.86838
-1.1512
0.328902
0.822301
-0.041637
0.258797
-0.21716
0.671287
0.456549
-0.00618258
0.191372
-0.0834039
-0.20337
0.0256232
-0.253273
-0.0130793
1.08413
1.15069
0.0370572
0.0136473
1.61615
-1.36104
-0.031329
-1.3967
1.42803
1.23619
-0.0533009
-0.283055
-0.0751082
0.589417
0.0620235
-0.245639
-0.0525828
0.473151
0.751733
-1.62221
0.870474
0.0668892
2.38922
-1.44862
-0.940599
0.00991674
-0.1975
0.0911703
1.05559
0.549877
1.17425
-1.06784
1.11157
-1.76019
-1.24069
0.0181307
1.22256
-1.6351
0.114395
1.52071
0.0400903
0.0766188
2.46313
-0.00670829
-2.45642
-0.78795
1.4797
-0.691754
0.045065
0.213819
-0.931393
0.266593
-0.00219199
0.0479894
-1.34038
0.199512
-0.000254182
-0.0138343
0.0140884
-0.0930411
0.220045
-0.127004
0.146187
-0.494635
0.348448
0.519048
0.449007
-0.499942
-0.106491
0.0800903
0.84916
-0.937067
-0.0636941
-0.0488289
-0.244725
0.0507915
0.485373
0.795557
-1.28093
-0.691271
0.848143
-0.156872
0.0590573
-0.40714
0.348083
-1.00707
-1.5843
0.778794
0.805508
0.107995
0.854221
0.238713
-1.09293
-0.331128
0.214589
-0.237044
0.0224541
0.164116
-0.0344226
-0.239135
0.00399295
-0.279216
-1.54097
0.336935
-0.390996
0.784501
-0.393505
-0.686829
-0.660021
1.70135
-0.735259
-0.100783
0.176597
-1.41535
0.0686708
-1.40637
1.3377
0.0168117
0.0312635
-0.0480752
1.15695
-1.20146
0.0445099
0.138388
-0.0182742
-0.0667779
-1.46401
0.777179
-0.602543
1.28381
-0.35324
0.461023
0.288353
0.212405
0.0304562
0.797508
-0.376347
-0.00138279
0.679057
-0.956559
0.431917
-1.77928
0.637405
1.11442
-1.12092
-1.50592
1.31734
-0.152215
-1.45698
0.186644
1.27034
0.591695
0.224659
0.0330749
-0.947224
0.703621
-0.11127
-0.127749
0.23902
-2.02269
0.434921
1.58777
0.3658
0.81834
-1.18414
0.061918
-1.32905
0.754967
0.111456
-0.866422
-0.229651
0.0757913
-0.910267
-0.0787965
-0.0104129
0.0471578
1.48864
-1.46533
-0.0452982
-0.993926
-0.590376
0.683414
-0.0265132
-1.21418
1.10289
-0.24867
-1.6051
-0.0118106
-0.333825
-0.895961
0.324233
-0.174205
1.89251
0.235738
0.164913
-1.23382
0.132563
-0.100746
0.210488
-0.461258
0.319137
-0.536942
0.217805
0.200368
0.0826306
-0.282999
-0.28519
-0.0157512
0.236626
0.284222
-1.13567
1.13885
-0.00317751
-0.73499
1.15986
-2.04818
0.888316
-0.478292
-0.05429
0.0839748
-1.48198
0.151217
1.33076
-0.369596
0.882497
-0.65537
0.693277
0.156109
0.957037
0.550328
-1.00486
-0.808356
-0.195878
1.00423
-0.380429
-1.31114
0.950587
-0.119184
0.122567
-0.00338287
0.0449345
-0.0868553
0.972496
-1.44533
-0.785687
-0.0578137
0.8435
-0.052926
0.026074
0.026852
-1.09015
0.435443
0.0355656
0.0237901
-0.220915
0.391448
2.21631
0.246824
-0.804556
0.794516
-0.255308
0.0863498
-1.2378
2.04456
-0.806763
-0.0732877
0.061183
0.0732
0.359003
-0.0198293
0.971708
1.19349
0.650562
-0.926496
0.281284
-2.02405
-0.159342
0.125536
0.168297
-1.14543
-0.228889
-0.938513
-0.200852
0.0504609
0.776147
-0.384699
-1.5414
0.267663
1.25909
0.177061
-1.67336
0.296959
1.3764
-0.091158
0.46699
0.769108
-1.1465
-0.291364
0.731716
-0.323437
-0.40828
0.84923
-0.292834
-0.556396
-0.170585
0.0364846
0.634669
-0.659057
0.0243876
-1.30615
1.04821
0.257942
0.353642
1.08975
0.000623588
0.104007
0.743346
-0.494548
-2.06285
0.790132
1.27272
-1.94244
1.50592
0.937835
0.75343
-1.69126
0.795376
-0.739158
1.79019
-0.597317
-1.19287
-1.03725
0.161793
-0.0803305
-0.176646
-0.102558
0.185029
-0.0311103
0.107234
-0.0761242
-0.296872
-0.0248367
-1.73902
-0.201426
0.0713296
-0.0910712
-0.0289495
-0.0128775
0.98481
-0.505316
-0.479494
0.764702
-0.464424
-0.116754
0.123
-0.133852
1.27972
0.0316155
-0.0148039
-0.330631
-0.759518
-1.46892
0.562362
-0.0652643
-0.0741693
0.119548
0.0902454
0.0921888
-0.0808308
-0.480599
-0.469867
0.0854003
-0.0737208
-0.0116795
0.171399
-0.83
-0.440729
1.27073
-0.253319
0.0402678
-0.125041
1.10975
0.994798
-2.10455
-0.376496
0.979947
0.204394
-0.0814517
0.653682
-0.815179
-0.750531
1.56571
-0.951517
-0.966969
0.567523
0.298298
-0.19649
-0.101807
1.00527
-1.23819
-0.149116
1.84688
-0.687014
-0.171423
0.0990181
-0.421041
-0.712556
0.0828119
2.04338
-1.78243
-0.260941
-0.888493
-0.580432
-0.324091
0.157473
0.0631509
-1.02782
-0.207048
1.23487
0.221315
-0.0610476
0.0673925
-1.64801
-1.51742
0.658211
0.859209
-0.154137
-0.00463355
0.158771
0.93554
-0.560101
-0.375439
0.100077
-0.154031
0.0737152
0.0788118
0.812358
-1.90871
0.746251
0.102979
-0.314306
-0.581903
0.324781
-0.0688445
0.143487
0.278478
-1.10848
0.0243937
0.350259
-0.483281
0.27151
-0.082905
0.000534779
0.0823702
0.974807
0.815378
0.560086
0.0579838
0.634934
-0.322982
-0.311951
1.70409
-1.40713
-0.379985
-0.268025
0.139653
0.0244636
0.205256
-0.0584438
-0.303101
0.00407105
-0.123255
0.525553
-0.0371552
-1.80078
-0.0193363
-0.134801
-0.0656008
0.00664558
1.04742
-1.05506
0.870238
-0.424214
-0.446024
0.00368536
0.104077
-0.00661171
0.00635753
0.400583
0.0239879
0.0450514
0.0103283
-0.48623
-2.58072
1.00551
1.57522
-0.061099
0.00381251
-0.0413951
0.0986711
0.112644
-0.265725
-0.280923
0.607373
-1.42255
0.0841921
-0.977344
2.0871
0.617371
-0.0655884
-0.551783
-0.612505
-0.496799
-0.0443274
0.0859416
-1.11754
0.499694
-0.739921
0.240227
0.0311843
-0.166607
0.135423
-0.198466
1.16979
1.33125
-1.37573
1.40713
-1.92987
1.46062
0.469244
1.10649
-2.08383
2.28409
-1.13372
-1.03722
-1.02277
-0.0449266
0.180747
-0.0510621
-0.42429
-1.55578
0.098795
-0.014266
-1.32733
1.2141
-1.97111
0.757017
-0.0506603
0.227456
-0.398626
0.150165
-0.139192
1.02951
1.35971
-2.05116
0.813362
-0.169209
-0.782308
-1.36005
0.0461766
-0.212784
1.92407
-1.99273
-0.133264
-1.08328
0.0713702
1.29112
-0.663136
-1.69173
1.75615
-0.0644243
0.454636
2.03814
0.427843
-0.0656987
-0.362144
1.76299
-0.651419
0.223295
-0.0427971
0.737356
-0.745862
0.084546
0.127859
0.646066
0.844596
-1.49066
-0.565788
-0.447921
1.03652
-1.07544
0.0389138
0.143642
-0.413212
-1.73318
0.737129
0.996051
1.42854
-0.271592
-0.952513
-0.113285
0.881845
-1.2325
0.273027
-0.522942
-0.304609
0.445904
-0.623081
0.440229
-1.36201
-0.687788
2.0498
-0.423546
0.470579
-0.415037
0.23281
1.07861
-1.1648
0.0712535
1.36227
-2.00965
-0.242332
-0.480527
0.209214
-1.16824
0.106181
0.69463
0.457703
0.0142719
-0.605475
-1.65809
0.339236
0.0739507
0.298786
-0.372737
0.0661632
-0.302425
1.13804
1.10392
1.23413
-0.973874
0.077654
-0.091176
-0.342794
0.422498
-0.396417
0.315351
-0.654362
-0.945612
2.0521
-0.274812
0.382807
-0.499467
-1.06945
1.56892
-1.41856
0.630609
-0.0643188
0.345947
0.0869435
-1.45027
-0.0653767
-0.147916
0.64761
-1.25671
-1.32401
2.04338
0.552273
-1.37811
1.00645
-0.557439
-0.210462
0.423069
-0.310849
-0.221119
0.243623
-1.56266
0.213923
-0.777746
1.10986
-2.05547
-0.801219
-0.227627
0.461278
-0.131975
-1.55975
0.976079
-1.41116
1.33483
0.67175
-1.50258
0.830828
1.19919
-0.150981
1.87317
-0.905243
-1.07287
1.97811
0.557257
1.23918
-1.01786
-0.640166
-0.877254
-0.969991
-0.959878
0.438021
-0.77111
1.3955
-0.624391
-0.120807
1.35893
-1.23812
-1.01006
-0.962869
1.97293
0.920676
0.115847
0.243404
0.363749
-0.374114
0.270039
0.104075
0.000160339
-0.241163
0.498124
-1.38662
-0.739877
-0.377927
-0.2454
-0.166039
0.513554
-0.234361
0.847676
-1.98812
0.770789
1.21733
-0.0469755
-1.61838
1.66535
0.0244053
-0.241039
0.0413565
0.606542
-1.84924
1.84924
-0.0477381
-0.0133303
0.0610683
-0.63928
1.06042
-0.0784857
0.124662
-0.762227
-0.291009
0.638945
-1.37573
-0.0809838
-1.27987
0.29014
1.25306
-1.24412
-1.20182
0.173999
-0.176231
0.508657
-0.332426
0.125502
0.509167
0.257254
-0.0568857
-0.962845
-1.19172
0.181455
1.01026
-1.38318
-0.414124
-0.814507
-1.23367
-0.0036325
-0.168084
0.153705
0.128646
-0.414954
-0.0431978
0.039966
0.354378
-0.278802
-0.344279
-0.914078
1.36579
-0.451709
0.322201
0.199077
-0.22443
0.384586
-0.160156
-0.427136
0.163033
0.411179
-0.524056
0.112877
-1.17453
1.90682
-0.968988
-1.3595
-1.8206
0.319032
-1.53444
0.0487072
0.991147
1.16394
0.172115
-1.06808
1.18639
0.059379
0.0258749
-0.379115
0.646548
0.624603
0.170773
2.02659
-0.91673
-1.06991
-0.730451
1.80036
1.13803
-0.00693347
-1.13109
0.0246636
-0.104067
-0.184357
0.16788
0.130223
1.33542
-1.46565
-1.18537
1.12092
0.0644498
1.18537
-1.31734
0.204863
-0.255523
-0.946947
1.02274
0.070957
-0.0356131
0.0905179
-1.67492
0.177007
1.50995
-0.838202
-0.302409
-0.0645008
0.13339
-0.415708
0.928396
0.245114
-0.0809721
0.631895
-1.36981
0.170123
-0.228454
-0.54906
-0.055756
0.618877
-2.04725
0.504126
-0.0695207
0.417961
-0.34844
-1.04192
-0.929196
0.0625895
0.696323
0.494196
-0.876743
0.0721867
-0.0972012
-0.309939
0.0998705
-2.10167
1.06446
0.0662256
-0.0180338
-0.284132
0.0508349
-0.0324707
-0.0816477
-1.42862
0.642721
-1.54098
0.898261
0.0568574
0.236222
-0.29308
0.0241994
-0.200249
-1.03197
1.32211
0.625157
0.35479
1.33697
-1.1465
0.177082
0.0393119
1.73408
-2.02085
0.286774
0.148771
-0.450957
-0.794696
-0.0717263
0.35956
-0.434846
0.358467
-0.350929
-1.26103
0.121482
-0.0980038
-0.0234782
-1.48652
0.1945
1.29202
0.408723
-0.367679
-0.0096456
0.36032
-0.350674
1.16024
-1.18676
-0.326304
0.408934
0.613893
0.250597
-0.270015
0.345684
-0.0329766
0.0898783
0.185995
0.639216
-0.825211
-0.427626
-0.0670086
-0.926828
-1.01254
1.93937
0.0676059
-0.235515
0.359702
-1.01004
1.86838
-0.0342296
0.0462617
0.0435403
0.0482771
0.122318
2.10691
-1.02277
-1.22456
0.756414
-0.542491
-0.742745
2.01546
0.0170077
0.00698019
-0.269212
0.274705
0.043328
-0.120478
-0.280057
0.177754
-0.309363
0.416187
-0.287541
1.11963
-0.0742897
0.125125
0.299415
-0.0703883
0.0351458
0.382651
0.0904999
0.4756
-0.754402
0.199088
-0.227875
0.0287868
-0.0374046
0.0686681
0.173374
0.893056
-1.06643
-0.236835
0.109086
0.479181
-0.608726
1.94107
-1.2087
1.01762
0.902529
0.0927592
0.550667
-1.10688
0.337437
-0.417784
-0.383654
1.28651
0.73231
-1.49038
1.49038
1.71194
-0.831304
1.08907
-0.0127753
1.52675
-1.51397
0.919318
1.02513
0.77513
-2.13714
0.158987
-1.14363
-1.35629
-0.210543
-1.43538
1.64592
-0.39262
-0.12253
0.0687543
1.10649
0.153811
-0.260212
-0.740065
1.4758
-0.735734
-0.173206
0.257752
-0.0206663
-0.203251
0.756861
2.63761
-1.08497
-1.55264
1.61695
-1.46574
1.12622
0.202826
0.0282888
-0.00062174
0.0247228
1.56259
0.557701
1.13733
0.543897
0.0200237
0.186943
-0.206967
-0.331603
0.206422
0.172132
-0.183693
0.0115605
0.153368
-0.20611
0.0527422
0.517713
-0.437623
0.321774
-0.463982
0.423295
-0.248726
0.018468
-0.0651507
0.000473789
-0.385585
0.461711
-0.0761254
-0.309572
0.278802
0.0307699
1.99273
-1.62693
0.488358
-0.475957
-0.0124004
-1.48864
-0.325978
0.254527
-0.981576
1.90089
0.247375
-0.314066
2.14419
-1.36906
0.23569
-0.299585
-0.148792
-0.102955
-1.34445
0.00852154
1.60736
1.27713
-1.06792
-0.102826
0.138208
-0.0722483
-1.48722
-0.279853
0.274445
0.23314
-0.351187
-0.349067
0.276692
-0.0786438
-1.33592
1.30459
-1.45744
1.46934
-1.16414
-0.462016
0.413121
0.660789
0.369568
-0.382647
-0.0489045
0.0596137
0.338746
-0.39836
-0.350329
1.41196
-0.950269
-1.03729
-2.04976