/*--------------------------------*- C++ -*----------------------------------*\
| =========                 |                                                 |
| \\      /  F ield         | OpenFOAM: The Open Source CFD Toolbox           |
|  \\    /   O peration     | Version:  2306                                  |
|   \\  /    A nd           | Website:  www.openfoam.com                      |
|    \\/     M anipulation  |                                                 |
\*---------------------------------------------------------------------------*/
FoamFile
{
    version     2.0;
    format      ascii;
    arch        "LSB;label=32;scalar=64";
    class       surfaceScalarField;
    location    "3.9";
    object      phi;
}
// * * * * * * * * * * * * * * * * * * * * * * * * * * * * * * * * * * * * * //

dimensions      [0 3 -1 0 0 0 0];

oriented        oriented;

internalField   nonuniform List<scalar> 
7520
(
-1.00373
0.773205
0.230529
-1.31749
-0.236828
1.55432
0.0165803
-1.77242
1.75584
0.238585
-0.0329166
-0.205668
-0.0280711
1.42772
-1.39965
-0.0906924
0.0975034
-0.00681098
-0.276221
2.07045
-1.79423
-0.215678
-1.62109
1.83677
-1.37887
1.39545
0.862181
-0.0734
-0.788781
-0.136713
-0.152444
0.289157
-0.249154
-1.72034
1.96949
0.713866
-0.106981
-0.606885
-0.100815
0.139446
-0.0386308
-1.79034
0.908252
0.882085
0.167691
1.56642
-1.73411
-0.131207
-0.0262864
0.157494
-0.149572
0.228428
-0.0788561
0.0418009
0.033888
-0.0756889
0.0446976
-0.175905
-0.396055
-0.275987
0.672043
-1.06032
1.22801
-0.0315554
-0.318453
0.350008
0.143365
-0.143731
0.000366457
-0.0252076
-0.0192272
0.0444348
0.257908
-0.250809
-0.00709955
0.856383
1.15439
-2.01077
-0.0344493
0.320457
-0.286008
-0.0464139
0.0882148
0.20057
-0.0318439
-0.168726
-1.15764
1.75538
-0.597741
-0.0488964
-0.0185311
0.0674275
-1.746
1.94736
-0.201368
-0.303194
0.376774
-0.0735804
-0.252782
-1.23983
1.49261
-0.579203
1.00645
-0.427252
0.277804
-0.555672
0.277868
0.840092
-1.57426
0.734169
0.0906331
-0.321292
0.230659
-0.04528
-0.102592
0.147872
-0.0283465
0.266931
0.443017
0.374006
-0.817024
0.292985
-0.0350773
2.30255
-1.67059
-0.631968
-0.560047
-0.615615
1.17566
-1.48661
1.61788
-0.131275
0.0199414
0.0943501
-0.114291
0.268871
-0.0789437
-0.189927
-1.35589
0.198248
0.279562
-0.0776454
-0.201916
1.83872
0.118023
-1.95674
-0.72779
0.268739
0.459052
0.177607
-0.194541
0.0169334
1.03714
0.490865
-1.52801
0.0146005
-0.105293
-0.779885
0.128451
0.651434
0.36933
-1.28305
0.913719
-0.0428287
-0.125454
0.168283
-0.119991
0.0710945
-2.22371
1.08644
1.13727
1.20112
-0.773707
-0.427417
-0.0141269
-0.0300854
0.0442122
-1.2349
0.982116
0.838187
-0.124321
-0.0639963
0.241604
0.00404371
-0.104859
1.0985
-2.20419
1.10569
0.184798
1.65392
-1.26303
1.00211
0.26091
0.321377
-0.242662
-0.0787151
-0.527982
0.897312
0.217556
-0.920187
0.702631
0.344541
-0.0952756
-0.249265
0.471785
-0.499188
0.0274031
0.674995
-1.46764
0.792648
0.129663
-0.113301
-0.0163616
2.23453
-0.93666
-1.29787
0.413705
-0.770393
0.356688
1.73956
-1.22972
-0.509843
-0.83421
0.0543248
-1.49271
-0.730993
1.01258
0.314825
-1.32741
0.235111
-0.622381
0.38727
-0.00838391
-0.29481
0.107336
-0.256909
0.21776
-0.0171905
0.0179976
-0.0467806
0.028783
1.17888
1.05564
-1.74254
1.93975
-0.197213
0.992339
0.208785
-0.958321
1.12019
-0.161866
0.0939569
0.057866
-0.151823
1.3693
-1.61845
0.246645
0.198408
-0.107775
0.447304
0.300772
-0.748076
0.00771326
0.0848766
-0.0925899
-0.539284
0.386675
0.152609
1.3802
-0.705201
-0.733571
0.637175
0.0963953
0.813418
-0.923429
0.110011
-0.0889119
0.112189
-0.0232772
0.00240899
0.00357097
-0.00597996
2.27019
-1.35039
-0.919804
0.542156
-0.452793
-0.550941
-1.35371
0.825728
-1.81399
1.53777
0.170902
-0.0801657
-0.0907364
-0.228634
0.0919208
-0.161091
0.159865
0.0012269
-0.213566
0.295647
-0.0820816
1.90632
-1.06623
0.423517
-0.173318
-0.250199
-0.754635
0.358579
-0.0489233
-0.0201701
0.0690933
-0.193505
1.20609
-0.78429
0.455594
0.328696
1.25072
-2.03422
0.783498
0.0408159
0.102549
-0.20038
-0.52741
-0.365293
0.0763268
0.288967
1.0837
-0.221523
-0.538864
0.502215
0.0366491
-0.0901525
0.33202
-0.241868
0.0717503
-0.0682565
-0.00349382
0.715289
-1.81679
1.1015
0.390735
-0.42229
-0.352676
-0.0577518
0.410428
0.260247
0.163269
0.196134
-0.141621
-0.0545126
0.14756
0.0324158
-0.179976
-0.0647459
0.212306
-0.620646
-0.163644
0.119038
-0.683131
0.564093
-0.710912
1.62574
-0.914828
0.385207
-0.409545
0.0243375
-1.15867
-0.195039
-0.0340047
-0.0506374
0.0846422
1.40012
-0.362976
-0.642031
0.419993
0.222038
-0.00164568
0.120087
-0.118442
0.293532
-0.0759906
-0.217541
0.233472
-2.00589
0.338027
-1.82464
-2.13908
0.854499
1.28458
-0.858908
-0.404117
-1.23328
0.980753
0.252526
1.89927
0.213207
-2.11247
0.183477
-0.228757
-0.0632662
0.981597
-0.918331
-0.290012
-0.432455
0.722467
0.00415727
-1.23744
-1.76296
0.0169665
0.00592531
0.0120723
0.0649226
-0.124548
0.0596255
0.289909
-0.332738
0.81824
-0.00482182
-0.157514
0.129167
-0.0224366
-0.00508127
0.0275179
0.762548
-0.428985
-0.333563
-0.491434
-1.2989
0.0489018
-0.338914
0.0464614
-0.591036
0.544575
0.0171578
-0.114649
0.0974909
-1.58875
0.936581
0.65217
0.558543
-0.586614
-0.0519865
0.448361
-0.396374
-0.0506411
0.0254335
0.520895
-0.242019
-0.278877
1.03201
-0.584709
0.240875
-0.31852
0.947305
0.213688
-1.16099
0.304127
-0.338576
-0.28882
-1.51325
1.80207
1.27053
0.67391
0.687659
-0.452547
-1.26984
0.690636
-0.691627
0.920837
-0.229209
0.00268602
-0.0329484
0.0302623
0.276556
-0.326294
0.0497387
-1.32237
1.12886
-0.275008
-0.151003
0.426011
-0.0374497
0.0546075
-0.850821
0.897282
0.496397
-1.04897
0.552578
-0.515329
-0.0239543
0.683676
-0.405872
0.140555
-0.0108929
-0.203597
-0.0248806
0.228477
0.0565486
-0.270114
-0.342386
-0.129451
0.471837
0.133597
0.210944
-0.725902
-0.741741
-0.774813
-0.813937
0.0778261
-0.20398
0.126154
1.54183
-0.738234
-0.803594
-1.06737
0.356459
-1.15725
2.12425
-0.966997
0.361879
0.159016
-0.0971617
-0.0357527
0.132914
-0.781728
0.581348
0.59279
-1.15284
1.73299
-0.0541854
-1.6788
-1.4956
1.98371
-0.488111
-0.0247114
0.0896339
0.463429
1.36337
-1.8268
0.0341256
-0.169574
0.135448
-0.104958
1.76548
-1.66052
0.00157994
0.110346
-0.111926
-0.876729
1.22623
-0.349503
-0.121469
-0.660259
0.0853179
-0.427704
0.300389
-0.226628
-1.6048
1.83143
-0.0369054
0.0707934
-1.59982
0.873914
0.276055
-0.0922885
-0.183766
-0.233579
0.143426
0.102121
1.59666
-1.69878
-0.579454
-0.550879
1.13033
-0.517803
0.412027
0.105776
2.38605
-1.56395
-0.8221
0.447696
-1.02715
-0.277279
0.316037
-0.0387577
0.10713
0.726515
-0.833644
0.0499069
-0.0530432
0.00313634
0.813873
0.82189
-1.63576
-0.227342
-0.506228
-0.0595791
0.168851
-0.109272
-0.905831
0.68896
0.216871
-0.0773825
0.0409255
0.0364569
1.18901
0.352819
1.07467
-2.03802
0.963353
-2.77953
1.27526
1.50427
-1.21254
-1.56699
-0.380325
0.478068
-0.0977429
0.0653524
-0.242528
0.177176
0.515296
-1.42581
0.910519
0.0313108
1.07726
-1.10857
-0.789516
1.10434
1.14026
-0.192954
1.03332
1.10783
-2.14115
-0.184103
0.087375
0.0967281
0.0475556
-0.953386
1.86055
-0.479537
-1.38102
0.137044
-0.102918
0.0474212
-0.20503
0.178744
1.04436
0.816191
0.214149
0.687963
-0.902112
0.363918
-0.0434609
0.0198544
0.0294478
-0.0493022
-0.0364206
-0.140791
0.177212
-1.85106
0.88644
0.964623
-0.185592
0.250944
0.873698
-0.754661
0.516472
-0.0251446
-0.491328
0.136722
0.132149
-1.92549
1.86111
0.0643824
1.18064
-0.684239
-0.00914799
0.237352
-0.228204
-0.0309317
-0.0325072
0.0634388
0.119889
-0.215164
1.67613
-0.577629
0.0418859
-0.10608
0.0641942
0.00417684
-0.0266135
-0.372684
0.22024
0.987746
-0.686975
-0.673442
0.704753
-0.288158
0.0845609
2.07045
0.0180608
-0.0186178
0.000556983
0.0490215
0.938725
-0.206469
0.133876
0.0725932
0.0245797
-0.0221707
-0.296139
0.739157
1.00067
-1.06394
0.419955
-0.373092
-0.0468624
0.312112
-1.18884
0.145707
0.0504272
-1.70522
1.47859
-0.285461
0.00818149
-1.9209
0.224249
-0.225895
-0.0704157
-0.0659661
0.136382
-0.62298
-1.22808
1.32076
0.949435
1.74699
-0.810412
-1.72034
0.129217
-0.668081
0.0206718
0.315818
-0.33649
0.175741
-0.2515
0.0757585
-1.23291
0.617298
-0.196057
-0.267022
0.463079
0.385343
-0.458743
-0.120149
-1.89216
2.01231
0.980569
0.177883
-1.4728
1.29491
0.902846
1.04452
-0.818321
1.48735
-1.02393
-0.0500739
0.39425
-0.344177
-0.894065
0.750686
0.143379
0.0624926
-0.0206068
-0.082216
0.329972
-0.247756
-0.274697
-0.240406
0.515103
-0.522463
1.793
-0.273855
-0.378586
0.652441
0.17257
-0.152629
0.262734
-1.22106
-0.0165349
0.0363893
0.0085915
-1.87641
1.0335
0.842909
0.362371
-0.469352
0.00861133
-0.032931
0.418138
1.00486
1.38119
1.65676
-0.544144
-1.11262
0.122312
-0.044538
-0.0777738
0.771363
0.968196
0.218944
-0.198272
0.728441
-1.93183
1.20339
0.114808
-0.0882838
-0.0265238
0.501339
0.878858
-0.221427
-0.0998647
0.763651
-0.549502
-0.556616
1.413
0.160169
0.010733
1.89945
-0.648727
0.146177
-0.138464
1.75366
-0.0968971
0.103039
0.404436
0.0155181
0.01731
0.304067
-1.69597
-0.84922
0.985867
-0.136647
0.00588573
-0.119187
1.76973
0.0338566
-1.80359
-0.715708
0.441853
0.225269
0.0682628
-0.312468
0.0698057
0.00717913
-1.23689
1.56331
-1.58542
0.0221153
0.0263367
-0.322515
0.296178
-0.899831
1.40117
-0.802596
1.51788
0.0632979
-0.0369612
0.782918
-0.327324
1.96417
-0.594874
0.00509154
0.120875
-0.125967
-0.0902859
-0.0747272
0.165013
0.119577
0.00273458
0.0485449
-0.789976
-0.146955
0.0797957
0.0671594
0.519312
1.10643
-1.70768
1.41886
0.110995
-0.463671
-0.760516
0.978072
-1.16104
1.34185
-0.180807
0.535206
-1.85729
1.75233
2.09895
-0.920069
1.22834
1.07421
-0.0697469
0.297286
1.26602
-1.31292
0.274876
1.03804
0.253008
-0.284852
0.00704082
-0.192633
-0.217439
0.152693
-0.0566637
-1.61392
0.563928
-1.21613
0.652207
-1.37344
0.483145
0.890293
-0.14757
-0.772617
0.0633488
-0.0774756
0.086871
-0.0143975
0.219068
-0.204671
-0.53906
0.487073
1.09103
1.00792
-1.4956
0.0351365
0.0366138
1.6513
-1.44857
-0.20273
-0.425383
1.78876
-1.47568
2.45019
-0.974508
-0.786372
1.03323
-0.246862
0.130833
-1.36573
-0.251192
0.0086642
-0.269747
0.428295
-0.158549
-0.0119685
0.0155395
1.33227
0.703131
-1.28828
0.58515
-0.000593104
-1.5688
1.5694
-0.0532414
-0.10785
0.0126511
-0.477735
0.465084
-0.898266
1.65198
-0.753716
0.201378
-0.139675
-0.0617023
-0.558851
0.875723
-0.316872
-1.99063
1.7538
1.9833
-0.455954
-1.52735
-0.0377903
-0.0241629
0.0619532
0.0011513
0.17459
0.103941
-0.61927
-0.844303
1.65818
-0.0587541
0.00983086
1.73299
-0.960245
1.06737
-0.0111365
0.0111365
-0.143849
0.228941
-1.97148
2.24774
-0.925444
-1.3223
-0.700833
0.876072
-0.175239
0.0562985
-0.285722
0.229423
1.01757
-1.15763
0.14006
-0.547331
-0.265146
0.812477
0.894825
-2.00703
1.1122
-0.0721446
-0.82192
-0.21994
0.129654
-0.235587
-0.558023
0.793609
0.765951
0.42912
-1.19507
-1.32593
-0.431379
0.687475
-0.256096
-0.896973
1.08645
-0.189477
1.47159
-1.36946
-0.152095
0.00514009
-0.139622
-0.00126111
0.473046
-1.15116
0.933388
0.217774
-1.47605
2.14242
-0.666376
-0.0169022
0.132047
-0.115144
-1.43151
-0.772683
-0.0480202
0.00160639
-1.62727
0.470022
-0.371473
0.289257
-0.270096
-0.516276
0.085719
0.0290886
-0.660333
1.69365
0.0439844
-0.362437
-1.52812
0.130074
1.39805
0.898308
-1.15993
0.261619
-0.872354
0.180727
0.21635
-0.573701
0.35735
1.58925
-0.129311
-1.45994
-0.00198267
-0.0778806
0.0798632
-0.367674
0.772337
0.486439
-1.25878
-0.451113
1.35936
0.258742
0.665944
0.734176
-0.0324604
1.57034
0.183317
-1.40344
1.40285
-0.155511
-0.0203752
0.175886
-0.18436
-0.0659659
0.250326
-2.02997
0.554286
-0.167899
0.541905
-0.616567
-0.232653
0.254691
0.880407
-0.333266
-0.547142
0.193627
0.0993581
-1.11239
1.87202
-0.759633
0.164123
-0.23885
-0.0753388
0.351894
0.26044
-0.530187
-0.147629
-0.0811532
0.228782
0.332876
0.00429844
-0.337174
0.663778
-1.14788
0.484097
0.00152263
0.0319062
-0.0334289
-0.293356
0.326008
-0.0326523
0.147643
-0.50655
0.358907
0.308242
-0.0552346
0.00470529
0.434359
-0.439064
1.24374
-1.05309
-0.957684
-0.393947
-0.398472
0.792419
0.105806
-0.035013
-0.283991
-0.233812
1.11058
-0.230175
-0.0192595
-1.23456
1.25381
-0.3485
-0.0167939
-0.0512541
-0.569392
-0.441214
-0.117637
0.170154
-0.168574
-1.53271
-0.0351416
-0.080396
0.115538
1.24644
-1.03275
1.06144
0.921868
0.459418
0.0570538
-0.188109
-1.62593
1.81404
0.649102
0.540974
-1.19008
-0.17041
-1.04856
0.64196
0.406601
1.32199
-0.423687
0.0522441
-0.0836814
0.0314373
2.18305
-1.19551
-0.987543
0.136555
-0.307195
0.17064
0.658874
0.46563
-1.1245
0.0712939
0.102399
-0.173693
1.67778
0.0265003
-1.70428
0.154256
0.0741718
-0.25549
0.299475
0.0791875
-0.0251698
-0.0540178
0.298167
-0.19083
0.0531015
-0.00349859
-0.0496029
-0.537439
-0.6655
1.20294
1.1197
0.469555
1.01568
-1.03494
0.454495
-1.35276
-1.83765
1.71751
0.160051
0.17197
0.266247
-0.608701
0.342455
0.765228
0.981764
1.12691
-1.34506
0.218147
1.22509
-0.559142
-0.135524
0.0909855
0.104947
-0.22305
0.118103
-1.44052
-0.32816
1.76868
-0.404787
0.437767
-0.0329802
-0.00346029
-0.00767618
0.344971
1.08275
-0.138887
-0.0452155
1.03858
-2.08079
1.0422
-0.878431
-0.248678
1.12711
1.63115
-0.556477
-0.133359
0.56144
-0.993896
-0.265227
0.00422478
0.261002
0.0195884
-0.188314
-0.494017
1.19715
0.0132956
0.0366113
-0.00218942
0.15396
-0.15177
0.0270233
0.990545
0.0165277
-0.699659
-0.455771
-0.419353
0.49568
0.675897
-0.945993
-0.305009
0.13169
-0.0388936
0.217638
-1.94026
0.887168
0.0577895
0.114833
-0.172622
-0.251299
0.161251
0.0900477
0.216601
0.860654
-0.0349605
0.00487517
-0.0268196
-1.63827
1.66509
-0.0575854
-0.566746
0.624331
-0.0274891
0.0656362
-0.0381471
-0.66241
1.22634
-0.159484
-0.345996
0.50548
-0.281083
0.497434
-0.348615
1.54029
-1.19168
-0.698348
0.543194
0.155154
1.94315
-0.0438851
-0.223191
-0.0872908
0.310482
0.140001
-0.281623
-0.179515
-0.21682
1.05142
0.88833
0.338898
-1.33528
0.996381
-0.804367
-0.182212
0.986579
0.209707
0.100441
-0.310148
0.0674113
0.292834
-0.360246
-0.196754
0.167038
0.0297166
0.0649296
-0.0814644
-0.995632
-0.0268685
0.00764126
0.00769006
0.0286992
-0.125686
0.394406
-0.268719
-0.23137
0.266679
-0.0353086
-0.155551
0.0754401
0.0801106
0.798241
-0.373292
-0.0564138
0.00963314
-0.252273
-0.582248
0.834521
1.19763
-0.981033
0.0100311
-0.348982
0.338951
-0.465395
-0.458034
-1.3516
1.53639
0.940642
0.0409547
-1.28121
0.821422
0.459785
0.224817
-0.0961861
-0.128631
1.73405
-1.73405
-1.61169
0.118976
-0.989758
-0.250132
-0.611053
0.861186
0.57115
-0.547116
-0.0240336
-0.146352
-0.394526
0.215917
0.178609
-0.0166413
0.210869
-0.194227
-0.510067
1.24489
-0.734822
-0.0251018
-0.164878
0.18998
0.802547
-0.671715
-1.05395
0.24958
-0.0399179
-0.215808
0.255725
0.00319108
-1.31611
-0.567033
-1.21935
0.652314
0.78706
-0.00750564
0.237508
-0.230002
-0.274515
0.333521
-0.0590068
-0.22969
0.17011
-0.0835635
-0.166356
0.09594
0.0365278
-0.0584045
0.0289767
0.0294278
-0.197954
-0.0250962
-0.358353
0.363058
0.145023
-0.164253
0.0192298
-0.0991151
-0.106301
0.205416
-0.325938
0.147307
0.178632
-0.0654287
0.171498
-0.106069
-0.681001
1.33321
0.613856
-1.11993
0.506071
-0.153626
-0.0801867
0.233813
-0.0877296
-2.17209
2.25982
0.895129
-0.592811
-0.302319
0.442337
-0.0599609
-0.191539
-0.0393663
0.0191963
-0.0556496
0.192204
0.313126
-0.980526
0.6674
-0.47879
-1.4467
-0.199943
0.834354
-0.634411
0.256467
0.0037805
0.407907
-0.27412
-0.133786
0.315543
-0.567816
-0.381099
-0.22378
0.102048
0.121732
-0.53122
0.335163
-0.161351
0.581344
-0.0672764
0.0363447
-1.49316
0.142773
-0.287579
0.548019
0.0109935
-0.230933
0.270247
-0.152144
0.30488
-0.312386
-0.0839029
-1.29444
0.613437
1.95481
-0.189329
-1.6048
2.22791
-1.09313
-1.13478
-0.0881363
0.474811
-0.0850039
-0.749206
0.525698
-0.469149
-0.247884
-0.0173434
-0.595028
-0.408025
1.00305
-0.0517634
-0.0294531
0.0812165
0.0122488
-0.871157
-1.91898
-0.32644
-0.323636
0.650077
0.36663
-0.424215
-0.246962
-0.0374393
0.284401
0.471653
-0.080918
0.165751
0.059066
1.97859
-1.08377
-0.916275
0.321247
-0.254264
-0.0490872
0.303352
-0.0467106
-0.0736066
-1.08402
-0.150538
-0.168054
0.318592
-0.0851396
-0.0348512
0.905257
-1.17571
0.27045
-0.666453
-0.0601853
1.79423
0.161042
-0.74329
1.22718
-2.0555
0.828318
-1.98999
1.29371
0.696273
0.153121
0.105041
-0.258161
0.147482
1.19985
0.0411967
0.851973
-0.893169
-0.0423722
-0.0637079
0.0970444
-0.134835
-0.0220178
-0.280408
0.302426
1.20401
-1.39211
0.253449
-0.048326
0.117674
-0.0693479
-1.48582
-0.125865
-0.589938
-1.06652
0.672576
0.109004
0.00363825
-0.112642
-0.62401
0.309367
0.314644
-0.397937
0.347863
-1.0994
-0.571828
1.67122
-0.085185
0.273852
-0.217554
0.38872
-0.55907
0.170351
-0.941913
1.42506
-0.159109
-0.908603
0.207771
0.750196
0.123502
0.854192
-1.36426
-0.0363917
0.0553656
-0.0189739
1.18111
-0.347669
-1.05198
-0.345967
-0.075012
0.420979
-0.0540383
0.206732
-0.111124
0.141904
-0.0307802
-0.0461192
-0.210789
-0.0353737
1.03605
-0.247808
0.308885
-0.0680102
-0.424863
0.391932
-0.176991
0.0545251
0.122466
0.251981
-0.108832
-0.143149
-0.146877
-0.0409897
0.187867
0.0214902
-0.102062
0.0805716
-0.35794
0.116072
-0.229728
-0.0927868
-0.0601827
1.17283
-0.390504
0.101075
0.289429
-0.0247389
0.0790026
-0.0542637
0.185125
-0.180223
-0.00490225
-0.13975
0.258385
-0.689764
0.241096
0.364605
-0.0746958
-5.23507e-05
-0.0505887
-0.132867
-0.0367066
1.80726
-0.985372
0.0454393
-0.374012
0.328572
-1.57861
0.227016
-0.0702547
0.0619172
0.00833756
-0.0414938
-0.0358887
-0.741218
-1.24877
0.36125
-0.0571228
-0.853657
-1.07818
0.210997
-0.213187
-0.138258
0.526977
1.02707
-0.751456
-0.986036
1.32493
-1.71775
0.277234
-0.075433
0.0204954
0.0549376
0.0826775
-0.176523
-0.396882
0.573405
0.102735
-0.0385411
-0.491546
-0.776148
1.26769
-0.870841
-1.03107
1.90191
0.611886
0.347605
-0.959491
-0.00105991
0.0696016
-0.293382
-0.260403
-0.269784
-0.174667
-0.102884
0.277551
0.276967
0.4455
0.277151
0.130756
-0.0369143
-0.614019
-0.00613317
0.024194
-0.77397
1.01209
-0.238124
-0.14514
-0.100089
-1.29053
-0.202939
-0.00104107
-0.747562
-0.277547
0.223035
-0.811416
0.0567559
-0.14869
-0.890698
-0.344869
1.23557
-0.191416
0.717114
0.234453
0.641618
-0.295408
-1.00804
-0.932215
-1.24331
1.38337
0.0768723
0.209603
0.0179981
-0.0705801
0.052582
-0.635739
0.580721
0.0550183
0.702802
-0.82427
0.296811
-0.239022
-1.14336
-0.137849
-0.155695
0.276554
-0.120859
1.05844
-0.394666
-1.45207
-0.0934278
1.5455
-0.109667
-0.0882864
0.0637538
0.295703
-0.359457
-0.237189
0.405721
0.136435
0.0631466
0.0215899
-0.0847365
-1.3097
0.830163
0.089275
0.0134603
-0.176015
-0.13118
-0.329749
-0.160692
-0.144317
0.264704
0.160245
0.0703559
-0.124374
0.397052
1.46406
-0.812804
2.04115
1.02832
0.57726
-0.842406
0.00462925
-1.4567
0.0129531
-0.329002
0.384948
-0.0559468
-0.0554523
-0.0128042
-0.234475
0.0140896
-0.0561276
0.127222
-0.0962542
1.5054
-1.40915
0.191429
-0.851689
-0.124893
-0.262174
-0.0705633
0.00690614
-0.28589
0.360259
-0.0743688
-0.00271679
-1.43633
1.43905
0.638244
0.254719
0.316431
-0.724949
-0.586364
0.962208
-0.375844
-0.153969
-0.114552
0.275804
-0.550836
0.645172
-0.094336
0.0661041
-0.474611
0.408507
-0.180453
-0.607487
0.787939
-0.280884
-0.0576919
-2.04482
-0.101474
0.183814
-0.178722
0.0326879
0.121934
-0.0326594
0.34497
-0.668607
2.14126
-0.906196
-1.23506
-0.0906211
0.412973
0.3118
-0.248046
-0.0716361
0.173684
-0.176028
-0.0138994
-0.384439
0.376055
-0.339441
0.794051
-0.974504
0.141429
-0.0950213
-0.0464074
-0.370738
-1.90869
1.03285
0.875838
-1.77869
1.69096
-1.16218
0.419959
0.742219
0.10764
-0.301815
0.194174
0.57622
0.534362
-0.174587
0.200553
0.212477
0.477251
-0.156394
-0.262564
-0.0115562
1.02625
1.115
0.0492562
-0.0198083
1.47553
-1.26232
-0.0342483
-1.40349
1.43774
1.20589
-0.0330555
-0.295581
-0.0758911
0.00682304
0.0831301
-0.254853
0.188609
-0.181568
0.319244
-1.48481
1.16556
0.180551
2.34588
-1.45201
-0.893873
-0.0712485
-0.171693
-0.114029
1.1785
-0.0496397
1.39889
-1.27992
1.03691
-1.90775
-1.25669
0.0119863
1.2447
-0.921403
0.0885379
0.832865
0.00818554
0.0205137
2.10021
0.032781
-2.13299
-1.55564
1.72578
-0.170136
0.045876
0.220803
-0.811075
-0.085898
0.0150431
-0.300504
-1.34751
0.186471
-0.00563316
-0.012009
0.0176422
-0.112908
0.22486
-0.111952
0.136726
-0.49273
0.356004
0.530759
0.455108
-0.512597
-0.111414
0.0587149
0.855335
-0.927479
-0.0670098
-0.0575383
-0.256049
0.0541324
-0.1791
1.313
-1.1339
-0.121067
0.647314
-0.526247
0.0603393
-0.420921
0.360582
-0.671903
-1.52727
0.699356
0.827919
-0.0418429
0.874893
0.231902
-1.10679
-0.450701
0.223746
-0.247164
0.0234181
0.170891
-0.0354432
-0.250555
0.00359259
-0.291704
-0.999403
-0.0645345
-0.396886
0.801585
-0.404699
-0.753081
-0.516759
1.77167
-0.738164
-0.101732
0.186277
-1.33326
0.0393114
-1.35493
1.31562
-0.238406
-0.092878
0.331284
0.805771
-0.705139
-0.100633
0.141655
-0.0215677
-0.0620692
-1.39092
0.637839
-0.641153
1.28311
-0.146381
-0.226304
0.298213
0.222091
0.0298894
0.815488
-0.373635
-0.00173192
0.704534
-0.955883
0.428472
-1.88439
0.853329
1.30747
-1.31019
-1.50327
1.40701
0.105118
-1.4612
0.236667
1.22453
0.600671
0.233683
0.0322482
-0.944835
0.694703
-0.117808
-0.129144
0.246951
-1.30986
0.275536
1.03432
0.290048
0.751035
-1.04108
0.0378042
-1.28112
0.764453
0.0980517
-0.862505
0.211432
0.262342
-1.02286
0.233026
-0.0125941
0.0535196
1.52514
-1.49864
0.357241
-0.999661
-0.527614
0.762304
-0.0236618
-1.23302
1.14015
-0.265255
-1.75233
0.0319929
-0.197421
-0.963572
0.335399
0.197262
1.83765
0.232797
0.108736
-1.19276
0.138435
-0.106019
0.184317
-0.459013
0.33285
-0.553012
0.220162
0.169228
-0.0681864
-0.101041
0.253254
-0.340544
-0.20065
0.164229
-1.13262
1.16602
-0.0333961
-0.753188
1.05056
-1.6583
0.607737
-0.779845
-0.0583939
0.0948508
-1.5062
0.127886
1.37832
-0.366052
0.901258
-0.673465
0.685713
0.150908
1.00109
0.574275
-1.03005
-0.828725
-0.17227
1.001
-0.761788
-1.19315
0.701608
-0.12345
0.126741
-0.00329129
0.0545164
-0.0926635
0.97769
-1.47171
-0.0949544
-0.509057
0.604011
-0.188098
0.160439
0.027659
-1.06009
0.452603
0.0365175
0.0255637
-0.231232
0.409615
1.92985
0.170359
-0.791422
0.832618
-0.265941
0.0899266
-1.00057
1.63737
-0.6368
-0.075898
0.0639758
0.0765797
0.371237
-0.0212286
0.925197
1.19905
0.609463
-0.936787
0.308845
-1.87279
-0.166875
0.131733
0.0823371
-1.11509
-0.214524
-0.961184
-0.21058
0.0530663
0.787036
-0.377421
-0.956777
0.238107
0.797938
0.185016
-1.68852
0.351307
1.33721
-0.0760569
0.481778
0.659282
-1.21521
-0.280391
0.7418
-0.324426
-0.417375
0.856294
-0.280643
-0.575651
-0.177985
0.0383098
0.662061
-0.675854
0.0137935
-1.59529
0.533155
1.06213
1.12832
0.411977
0.000572913
0.108431
0.770363
-0.511978
-1.67702
0.581544
1.09547
-1.83143
1.50327
0.775121
0.804049
-1.57917
0.800877
-0.746552
1.83124
-0.626915
-1.20433
-1.04325
0.173313
-0.082327
0.0289243
-0.103803
0.191177
-0.0384434
0.117619
-0.0791758
-0.239412
-0.259776
-1.4765
-0.144588
0.0730069
-0.0950247
-0.032857
-0.0201862
1.04084
-0.468772
-0.572072
0.78198
-0.472613
-0.122972
0.124124
-0.110457
1.23737
-0.324686
0.0862801
-0.325495
-0.734595
-1.46542
0.574719
-0.0618883
-0.0818431
0.122384
0.0812144
0.10309
-0.0850921
-0.492923
-1.08174
0.0968373
-0.07905
-0.0177874
0.179774
-0.0989069
-1.28785
1.38676
0.106663
0.0152718
0.320118
1.05109
0.973666
-2.02476
-0.388203
1.00009
0.214502
-0.0853353
0.590142
-0.941833
-0.613659
1.55549
-0.936548
-0.985978
0.577953
0.30332
-0.186399
-0.116921
0.3707
-1.10893
-0.165997
1.41495
-0.36439
-0.178678
0.102688
-0.375999
-0.743929
0.085264
1.95791
-1.71751
-0.240405
-0.858747
-0.60667
0.0753017
0.165742
0.064677
-0.993663
-0.236612
1.23028
0.236451
0.538866
-0.472761
-1.63364
-1.798
0.738543
1.05946
-0.159108
-0.00482448
0.163932
0.950653
-0.553064
-0.397589
0.107383
-0.16351
0.0773816
0.0824829
0.886515
-1.98591
0.765237
0.0910561
-0.322722
-0.593553
-0.0502211
0.0207679
0.15116
0.796809
-0.895716
0.0241419
0.370109
-0.557851
0.55659
-0.0862059
0.000972008
0.0852339
0.965788
0.865454
0.569309
0.0567821
0.724428
-0.575493
-0.148936
1.85729
-1.50598
0.0725561
-0.550218
0.145456
0.0254355
0.190412
0.0333251
-0.00389728
0.00392838
-0.127378
0.59663
0.0667107
-1.75616
-0.0198001
-0.139308
-0.0707493
0.000169157
1.03021
-0.795757
0.896796
-0.498899
-0.397897
0.00394247
0.108247
-0.0100994
0.00446622
0.402973
0.0022911
-0.339466
-0.861003
-0.286872
-2.11032
0.884117
1.22621
0.0792889
-0.0214229
0.104861
0.10185
0.11591
-0.271491
-0.30221
0.451434
-1.39327
0.176689
-0.952408
2.0035
0.62592
-0.0986257
-0.527294
-0.713276
-0.476597
-0.070519
0.0904222
-1.12064
0.505608
-0.73831
0.232701
-0.273868
0.244376
0.0294925
-0.0624359
1.32594
1.12425
-1.47213
1.50598
-1.56882
1.05897
0.509854
1.04896
-2.00137
2.07655
-1.0717
-1.03247
-0.970739
-0.032228
0.251296
-0.0722704
-0.405464
-1.5603
0.0991045
-0.044449
-1.30061
1.20258
-1.96912
0.766538
-0.0521309
0.235608
-0.486281
0.333384
-0.178229
0.970992
1.37489
-1.69369
0.693123
-0.16999
-0.766558
-1.34215
0.261365
-0.0169898
1.77869
-1.82257
-0.120578
-1.14838
0.0731033
1.04577
-0.27343
-1.4958
1.62958
-0.133778
0.425082
1.83474
0.437579
-0.0691509
-0.368428
1.87757
-0.840665
0.234279
-0.28155
0.706259
-0.757513
0.0902484
0.131843
0.278032
1.03031
-1.30835
-0.642123
-0.455219
1.02115
-1.05816
0.0370091
-0.343183
0.175129
-1.76817
0.790281
0.977892
0.81504
-0.00926921
-0.466972
0.079834
0.883979
-0.760478
0.294849
-0.555252
-0.0525055
0.00191676
-0.632782
0.456259
-1.06499
-0.881744
1.94674
-0.0142094
-0.0878523
0.126058
-0.316888
1.04567
-0.837897
0.0860291
1.26562
-2.07842
0.0640153
0.00838577
0.191763
-1.1728
0.0709147
0.70229
0.347907
0.056057
-0.61408
-1.40394
0.417904
0.0303984
0.132159
-0.162557
0.0679954
-0.315751
1.14932
1.07859
1.23704
-0.966585
0.0176413
-0.171503
0.0307118
0.443845
0.0847335
-0.295523
-0.709264
-0.960535
2.0095
-0.0680408
0.0261979
-0.743943
-1.1119
1.85584
-1.81519
0.259543
-0.0675336
0.00876363
-0.0136659
-1.45267
-0.075446
-0.149924
0.655533
-1.03226
-1.07806
1.95791
0.575137
-1.38907
1.01881
-0.563706
-0.220069
-0.286893
-0.00648891
-0.23248
0.242511
-1.63215
0.208192
-0.794556
1.04486
-2.00539
-0.801456
-0.0703453
-0.211277
-0.0682515
-1.42755
0.860373
-0.803617
1.33266
0.844827
-1.55609
0.71126
1.69075
-1.1576
1.96949
-0.943628
-1.00935
1.95298
0.534508
1.25201
-1.01556
-0.729369
-1.06863
-0.851423
-0.7174
0.453473
-0.671325
1.59773
-0.92641
-0.138891
1.37719
-1.2383
-1.0276
-0.953123
1.98072
0.896434
0.124719
0.257766
0.371063
-0.492609
0.326818
0.165791
0.0135562
-0.252406
0.484248
-1.343
-0.777483
-0.39052
-0.245219
-0.108968
-0.168579
-0.241894
0.944524
-1.97167
0.924933
1.04674
-0.0476269
-1.6455
1.69313
0.0565284
-0.249582
0.0553551
0.614849
-1.88394
1.88394
-0.045469
-0.0150384
0.0605074
-0.646069
1.07519
0.271596
-0.0102309
-0.777941
-0.36157
0.80707
-1.47213
-0.0213323
-1.2711
0.31086
1.279
-1.27581
-1.20128
0.207615
-0.154138
-0.0924778
0.246616
0.12741
0.53465
0.165695
0.00353271
-0.958992
-1.17998
0.180891
0.999093
-1.4071
-0.0887361
-0.495695
-1.1626
-0.0312122
0.0943588
0.161261
-0.320185
0.248549
-0.00242934
0.0727852
0.363233
-0.271391
-0.361391
-0.640994
1.43318
-0.792189
0.329433
0.207137
-0.231769
0.406149
-0.17438
-0.419198
0.178792
0.422384
-0.537086
0.114702
-1.06928
1.74566
-0.970538
-1.3462
-1.65815
0.22182
-1.19909
0.0506923
1.00353
1.17953
0.0930371
-1.05661
1.11556
-0.182173
-0.368037
0.221657
0.645343
0.625856
0.175021
1.98787
-0.943017
-1.01756
-0.86821
1.88577
1.12165
0.0109315
-1.13258
0.1247
-0.0456971
-0.192308
0.175406
0.108963
1.3511
-1.46006
-1.33876
1.31019
0.028571
1.33876
-1.40701
0.213027
-0.265158
-0.751341
1.01368
0.0782912
0.391092
-0.27502
-1.65371
0.180909
1.62063
-0.775805
-0.368733
-0.0816024
0.136127
-0.432086
0.948276
0.25677
-0.0861297
0.692836
-0.787172
0.1771
-0.238802
-0.567492
-0.0548894
0.790119
-2.07168
0.502879
-0.0685118
0.430559
-0.362047
-1.03272
-0.936402
0.0634844
0.58998
0.590656
-0.879774
0.0883522
-0.0991339
-0.321787
0.102518
-2.03084
0.998364
0.0225508
-0.0391409
-0.273245
-0.0184785
0.283183
0.19567
-1.41739
0.780402
-1.47622
0.695817
0.0586028
0.246082
-0.304684
0.288862
0.0269568
-0.987881
1.29874
0.628226
0.371864
1.33269
-1.21521
0.184796
0.0404736
1.63226
-1.92634
0.294083
-0.240948
-0.318122
-0.820133
-0.042372
0.372326
-0.447338
0.111348
-0.263493
-1.11215
-0.149111
0.00259553
0.146515
-1.46529
0.173304
1.29199
0.116222
-0.225889
0.0861752
0.0495422
-0.135717
1.14908
-1.17274
-0.163636
0.0954494
0.622702
0.238483
-0.265181
0.144322
0.369919
-0.366139
0.182595
0.659954
-0.842549
-0.431901
-0.0608297
-0.930826
-1.01223
1.94306
-0.235415
-0.280025
0.608598
-1.00294
1.69096
0.402429
-0.319752
0.0506095
0.0478866
-0.0912038
2.05143
-1.02517
-1.24604
0.768749
-0.560558
-0.500124
1.5956
0.324938
-0.322647
0.0376779
-0.0411382
0.328469
-0.0390405
-0.291712
0.188827
-0.243596
-0.350173
0.0299878
1.08443
-0.323767
0.305289
0.294235
-0.056727
0.0373125
-0.140516
-0.041052
0.495738
-0.767129
0.209349
-0.239083
0.0297339
-0.377232
0.284354
0.188004
0.89657
-1.08457
-0.247722
0.118579
0.446629
-0.638045
1.47811
-0.958798
1.01362
0.911724
0.0861626
0.565322
-1.05717
0.349888
-0.430806
-0.323969
1.07539
0.903203
-1.54211
1.54211
1.75607
-0.839666
1.1024
-0.0391712
1.51207
-1.4729
0.890368
1.05408
0.899818
-1.96481
0.142327
-1.11683
-1.35633
-0.203523
-1.4516
1.65512
-0.407861
-0.123359
0.0731698
0.892002
0.164765
-0.273597
-0.977418
1.7044
-0.726984
-0.178662
0.26891
-0.0162329
0.400501
0.921494
2.33875
-0.900886
-1.43786
1.60818
-1.48029
1.14886
0.192991
0.0593082
0.00398975
0.0273192
1.56934
0.574809
1.08177
0.790251
0.020698
0.196636
-0.217334
-0.346234
0.215054
0.181006
-0.192961
0.0119558
0.161124
-0.216492
0.0553672
0.499765
-0.44105
0.333761
-0.478901
-0.528097
0.657314
0.0240403
-0.188675
0.0423226
-0.623454
0.569581
0.0538734
0.0559282
-0.0551865
-0.000741648
1.82257
-1.53253
-0.107124
0.251357
-0.144234
-1.52514
-0.339256
0.26456
-0.991321
1.88169
0.257019
-0.327582
1.98076
-1.08094
0.245076
-0.313086
-0.15579
-0.38124
-1.31712
-0.0732655
1.62986
1.27684
-1.08507
-0.101853
0.142668
-0.0904432
-1.49498
-0.29333
0.28623
0.242772
-0.367665
-0.362354
0.287985
-0.0821054
-1.33319
1.29894
-1.46544
1.48755
-1.17238
-0.473347
0.426484
0.657246
0.383292
-0.394848
-0.0592811
0.0595202
0.349072
-0.408593
-0.368346
1.41271
-0.981811
-0.990031
-1.96551
-0.0810274
0.0773631
0.00366427