/*--------------------------------*- C++ -*----------------------------------*\
| =========                 |                                                 |
| \\      /  F ield         | OpenFOAM: The Open Source CFD Toolbox           |
|  \\    /   O peration     | Version:  2306                                  |
|   \\  /    A nd           | Website:  www.openfoam.com                      |
|    \\/     M anipulation  |                                                 |
\*---------------------------------------------------------------------------*/
FoamFile
{
    version     2.0;
    format      ascii;
    arch        "LSB;label=32;scalar=64";
    class       volScalarField;
    location    "7.1";
    object      p;
}
// * * * * * * * * * * * * * * * * * * * * * * * * * * * * * * * * * * * * * //

dimensions      [0 2 -2 0 0 0 0];

internalField   nonuniform List<scalar> 
13486
(
2.48811
2.08578
0.0227314
-2.50153
0.643114
-0.11584
0.208874
1.27208
1.61486
1.08761
-7.20181
0.436231
2.60595
-0.0389784
0.53141
1.17988
-4.90012
0.264181
0.583845
2.26269
-1.71373
2.57287
2.04879
-3.7143
1.02757
-3.37132
-5.04189
-1.30444
0.000738076
-1.34535
-1.11086
0.477944
-2.30289
-0.918411
1.27663
0.00820553
-0.0620049
1.96781
-0.199384
1.63913
-0.106916
2.70867
0.0283732
1.01647
0.981437
0.414441
-4.41149
0.00293395
-0.0585975
-1.03639
1.54497
-0.228344
0.354472
2.00567
0.174039
0.715542
-0.0184472
-0.22827
-2.19649
-0.125517
-8.81503
-0.101758
-2.90583
-1.56691
-4.19241
-0.0657043
-3.02548
2.52989
1.60113
-0.085159
-3.06523
0.204804
1.67176
-3.78839
-0.0663743
-0.0138771
-0.0570322
0.507984
-4.31798
-0.272905
0.00416199
2.1216
-2.94533
0.0499832
2.49603
1.12174
-0.0414248
1.47374
1.74479
1.19781
0.406896
1.07582
2.36985
2.18597
1.66748
0.00126003
-5.07679
-4.00673
1.61161
-4.89023
0.0260679
0.0510647
-4.05256
-0.223313
1.30175
-4.88902
1.72416
-0.203209
-4.51086
0.927586
1.51272
0.376019
2.00461
0.02622
2.94844
1.59837
1.03524
-0.854725
1.68675
-0.0426403
0.262582
-8.44
1.75689
-0.204297
1.51322
-0.214919
1.11715
0.53672
-0.761922
-2.68984
-0.210589
-4.24983
-4.5075
-3.3602
1.61001
1.48686
2.99691
0.978111
-0.0392831
1.32707
-1.7614
0.348073
0.495167
-0.287372
0.0222661
-3.74138
0.0272079
1.92426
-1.12696
0.000195823
1.09105
0.439311
0.00547192
2.16339
0.632097
0.0132163
0.708044
-0.303532
1.76088
-1.43987
-0.724271
1.76198
0.38657
2.69948
-0.232838
-0.313872
0.190618
3.38066
0.0158597
-3.37037
-4.60856
0.644863
1.27326
0.836772
0.000950582
-9.52004
-0.191867
-1.97682
1.72365
0.504732
1.5174
0.0278828
0.688479
-6.35197
0.0869227
-1.2795
0.000380524
-1.18932
-0.0187727
1.69281
-0.0487126
0.00858583
-0.259765
2.27453
-0.297657
-6.91883
-3.03761
-0.779947
2.18995
-0.233926
-1.19092
0.513235
1.97249
0.419101
-1.458
-0.308543
0.182854
1.82519
-0.247198
0.0900065
-1.24726
-3.06553
2.23561
1.72537
-0.11126
-0.714167
-1.37878
1.2221
2.23393
-1.96339
-4.90019
-1.14771
1.369
-0.789721
0.270632
2.39424
-0.398022
-3.83265
-0.532245
-0.0640865
1.49928
-0.688082
-1.84417
2.7654
-3.18481
2.29018
-1.02618
0.00942625
2.31565
0.728287
-2.39233
1.25185
0.0306539
2.1701
-0.182543
1.95418
0.762634
-2.19177
-3.42172
1.1184
-6.67703
2.9837
1.53388
-0.210063
-0.398263
-10.7983
0.472025
-0.681931
-0.249081
-2.38211
1.91396
-0.180466
0.530249
-10.3051
0.721194
-6.37451
-0.54554
-1.56891
1.5497
0.201679
1.83213
1.6977
-1.42208
0.348816
2.39832
-2.02676
-0.402599
-0.343509
-0.222438
0.0605046
-0.424129
1.32776
1.74487
-5.68562
-8.13203
-4.89302
-1.62384
-0.788431
0.266707
1.56949
-3.0125
-0.230175
1.66302
1.624
-0.978663
-1.10371
-0.740752
0.320416
1.77086
0.0477039
0.381751
0.196591
0.0380364
0.497486
-0.0571848
0.454263
-0.723173
0.79679
-0.072709
-0.0514917
-3.36502
-2.34888
0.0730587
0.389192
-8.05223
1.51719
-0.25717
1.7507
1.83792
-0.642093
-0.0609554
-0.180894
1.71373
2.20366
2.96408
0.422674
0.953833
1.29687
0.205747
0.86896
1.48434
1.01574
0.389299
2.38733
0.17513
1.56253
3.03309
0.477174
1.1635
-0.178293
-0.589532
2.18638
0.826906
0.702274
-7.19384
0.00181376
1.05465
2.92357
-2.00353
-0.219349
1.03386
0.254847
0.331829
-5.15195
1.75823
-0.0186268
-3.86596
1.09351
-0.0810631
-2.81084
0.597949
0.38068
1.92829
1.70197
-1.39518
0.00231538
-1.05938
-4.26126
2.28693
1.1093
0.0224807
1.07595
0.249647
-7.29105
-0.00149157
1.57539
1.75716
-0.185265
-7.74553
-2.83495
1.52705
0.971195
2.64155
1.92336
-4.35636
-0.432703
0.239538
1.13792
-4.60867
-0.717568
2.19701
-1.49718
0.859666
2.34395
2.52471
-0.0265074
-2.68893
-7.02438
-4.79642
-1.74029
-4.68032
0.690257
1.44122
-0.784019
0.261988
0.099235
2.15451
-1.95887
1.13884
1.9843
1.1086
-0.740073
-1.54719
1.7765
1.74147
2.2032
-6.49841
0.749905
-4.77215
0.750658
1.72487
0.293427
2.93534
1.21003
-0.553853
-1.14102
0.510592
1.74478
-5.0288
0.294138
2.55695
1.44786
0.841837
0.243767
0.540378
-2.25294
2.63625
-0.204934
0.880151
2.49177
-5.01274
-1.42125
-3.30319
-1.593
-0.120449
1.94498
2.09754
2.57512
-2.98127
-0.0484199
-7.33331
1.18439
1.77986
-1.01932
-0.996265
1.72391
-6.05489
-9.84547
-6.29177
-3.77065
0.188795
2.08366
0.000732358
0.31472
-1.88685
1.68306
0.00272463
3.21603
2.38589
1.65791
1.20858
0.0100378
0.00156084
3.0145
-0.466061
-0.03418
-0.547459
1.57827
-4.87657
0.303947
1.29838
-0.0279652
-0.491704
2.0328
-1.83032
-4.85636
1.2134
-0.772896
3.36935
1.23345
1.5602
1.85356
-9.74261
0.130811
2.78426
0.616872
2.20735
0.115658
0.608188
-1.77609
-0.276401
0.0251985
-4.85317
1.81008
1.55683
-6.92624
0.0011662
-0.179858
2.54327
1.94816
-0.430074
1.59162
1.15179
-0.44378
0.721041
1.58131
-4.67758
2.6034
-0.0155871
-0.0791867
2.69476
0.981824
-0.00900057
1.05575
-2.16852
-5.59563
0.664029
0.871135
1.78702
2.37346
-5.7145
0.536202
-5.67363
0.000455996
2.28676
0.603789
-6.4894
-4.40783
0.311352
-0.252099
1.22961
-4.00243
-0.942896
1.59725
2.36069
-0.154496
1.89867
-3.51755
-7.62979
-1.29033
0.832548
-7.22029
1.82458
0.106842
-9.4191
1.3277
1.90977
-2.52841
-5.80487
1.56438
2.30769
0.710196
2.51259
0.116327
1.24681
0.533968
1.86302
0.0292908
2.23921
-5.09945
0.665237
1.50637
-0.708323
-1.93595
1.7083
-4.99155
0.33382
2.06388
2.56348
-2.13742
-0.156725
0.64619
0.298142
1.44605
1.37018
0.287498
-5.57386
0.152879
2.44859
0.413287
0.348988
-7.07033
2.58134
-1.05778
0.0281704
1.69176
1.18464
-0.283871
-0.0930394
1.2949
0.160133
-0.00063437
0.793658
-1.33671
2.50553
1.55814
1.11936
1.15501
0.18274
-1.59335
2.84577
0.645969
2.84681
-3.38321
1.59164
0.00608309
-3.8574
0.823171
1.11041
2.98493
-7.48416
0.920395
0.910075
-2.17237
1.07782
0.25245
-0.338313
1.56982
-5.88425
-1.82071
-2.39876
0.0615187
-0.799493
1.83831
0.00223108
2.74443
1.61055
-1.27009
-7.42677
-1.2347
0.685519
-7.70543
-0.0629931
-4.86634
2.26972
0.000929143
-0.00123073
-10.6606
2.64537
0.00234788
0.375742
2.68424
1.56304
-6.84447
-0.158186
1.11045
0.279564
1.48961
0.0311571
-3.13433
0.778589
1.47813
0.640436
1.31846
2.7254
0.0290246
-7.23462
1.70835
0.308794
-0.196542
1.02554
1.35396
0.892619
-6.57266
0.107945
-0.17986
0.237907
2.28326
0.660254
0.188364
0.0678143
-0.225103
-0.337534
1.80495
-0.877474
1.4498
1.53149
2.38552
0.283472
-0.815854
2.82883
0.0172064
-5.92944
1.73176
-2.16949
1.95221
0.0210526
1.68956
-0.789031
-3.49531
-3.52423
0.00190867
-4.87442
1.04754
2.91325
-0.832849
-3.86351
-0.476081
1.84544
0.164002
0.889601
-10.447
2.905
-6.63839
0.849946
-1.11218
1.12061
1.75727
0.878861
-2.58443
-1.22826
2.66221
1.76196
0.497957
1.44324
-0.235355
1.2198
1.20737
1.1187
-3.3242
-0.402406
2.13109
0.250587
-0.234138
1.25519
-5.63327
-0.801026
-0.165999
1.80041
1.86581
-5.28238
0.112273
-6.67169
-1.38212
0.167546
-0.777345
0.386073
1.6839
0.145478
-1.10397
1.88234
-0.239537
-2.03423
-0.0526764
-0.637062
-5.15688
-3.1905
-0.175091
-11.6909
1.47621
2.60595
-0.0302989
-1.92887
2.69152
2.51971
-1.93237
-2.80366
1.63273
-4.73956
0.0181113
0.147331
0.245961
0.754889
-4.85512
0.920377
1.25604
-0.55202
-0.704631
-2.88669
-0.0750313
1.34287
0.967442
1.03202
-6.14549
1.59695
2.4622
-4.63451
-11.2248
1.79035
0.330953
1.08131
-0.193073
-1.28166
-6.37846
-0.0308954
1.75293
2.85613
1.82009
0.179851
-0.00517194
1.71744
2.40525
-0.0654281
1.69887
1.66773
2.57899
0.270811
-0.17053
0.388704
-0.608452
2.55383
0.127976
0.172025
1.0936
-0.403617
0.418467
-0.00901359
-1.53395
1.67721
1.43742
1.28419
0.956449
-2.37679
-0.306254
-0.715579
0.766565
-1.43929
-0.44277
0.0232489
-12.926
-9.8227
1.02516
-1.27186
-3.39557
-2.71409
-1.10274
1.08338
-6.23946
-9.41947
1.87958
-2.47653
2.57415
-3.77633
-3.45086
1.90208
2.30475
-0.066688
0.278401
0.088761
1.79874
0.758704
-2.50589
-0.273247
-0.0604813
-0.598095
1.69806
0.00672762
1.12034
-0.180522
1.58464
-4.99078
0.0297479
-0.0200141
1.98817
-1.4598
-7.67559
-7.24939
2.55252
0.189591
-7.40505
-6.80306
1.66905
-7.47392
-0.191583
0.395775
0.670305
0.0804951
1.0247
-3.75025
1.53925
1.71291
1.87132
0.908448
-0.103031
-0.949782
1.38691
-0.268454
1.93431
1.32671
-0.282313
-0.210478
-0.461308
0.0343636
-0.0514265
1.93605
0.819747
0.352933
1.71705
0.236256
1.2423
2.95195
-0.00924074
-1.88586
1.27121
0.0602681
-0.167157
-0.494383
-1.84473
1.65701
0.028706
0.0186054
0.0289138
0.288006
2.07669
-6.77416
0.00346647
1.72271
0.0689525
2.44263
1.96578
2.19247
0.429916
1.23913
0.524824
-0.013504
1.10423
1.58879
-0.93119
-0.718677
-2.70841
-1.45935
-10.3284
1.64304
-3.59051
-3.04556
-12.3465
-0.826018
-0.0261163
1.7463
-0.00300023
0.400734
-3.52044
1.74993
2.89829
0.0908031
-8.34906
1.09232
-0.171749
1.60264
-1.36769
-0.186452
1.9545
-0.247324
2.73375
1.09313
1.71061
-1.22743
2.1586
0.0133907
1.97875
-0.0192885
-2.52237
-0.172426
-7.8165
1.06619
0.026159
-0.61311
2.57325
1.74601
1.88993
2.33694
1.91857
1.98523
-0.699785
1.65402
1.76202
1.7528
-0.629021
-0.401838
-1.22561
-1.01003
0.462596
1.78943
-3.48854
2.61104
-1.11607
0.0288432
2.83988
2.38859
-0.707427
-5.61168
1.63418
1.02386
-0.270785
1.47308
-3.36979
-0.486009
1.70916
2.27328
-0.187921
1.75613
2.13904
0.00211394
-0.691124
2.1703
0.719406
-0.0513743
-5.87323
0.0402266
-1.48986
1.6536
1.38489
-0.136693
-0.40725
-1.62596
0.461555
-0.142065
0.408781
2.47609
-0.199813
3.1503
1.65627
0.565144
1.87099
-6.98368
-3.9025
-7.00536
1.65537
-0.19201
-3.23121
-1.07349
0.96774
1.1458
-0.177832
1.02295
-4.46237
0.726909
0.190474
-0.189022
1.27051
0.531392
2.12451
1.75536
1.84167
1.55161
-0.717061
-2.02803
-1.42748
0.0872914
-2.73107
0.102711
1.24386
-1.86441
-0.0973162
-0.166567
0.369879
-10.9821
1.12128
0.983181
-0.331581
-1.73411
0.756326
-1.06405
-2.2826
0.284019
0.0217451
1.75303
1.35566
2.07964
-3.33325
1.59596
0.0287947
2.32326
0.127496
1.02602
0.266868
-0.0677938
2.69601
2.85538
1.33917
0.71294
1.27148
1.42978
2.72102
0.998046
-2.09443
-10.3142
0.356276
-0.998278
-2.3799
1.73939
1.58557
0.0751045
0.162699
1.25808
1.47158
2.9704
-3.94718
1.43421
-4.88006
0.0167388
2.43254
-0.480709
1.28271
-1.25114
0.830005
0.64628
3.10085
-0.0931928
-1.25902
0.985239
0.300455
-7.15565
-3.39782
0.28652
1.92561
-0.279226
0.727883
2.52043
2.33498
-0.326287
-2.46155
-0.138938
0.47881
1.87793
1.54284
2.2717
0.97838
-6.9263
2.39266
1.39988
-2.28818
1.15023
1.79189
2.03569
-8.19974
-0.991683
0.000822322
1.52204
2.64361
0.853508
0.366275
-1.51158
2.98565
-5.15771
-1.70767
2.76454
1.55939
0.148769
1.24575
-2.83757
0.791769
-1.30832
-5.37683
-0.17613
-7.89889
0.194309
-0.917506
-4.85708
-4.87181
-2.61525
-0.0952004
-4.72177
-6.74706
1.53083
1.64161
0.668787
-4.46282
0.458821
0.447307
-0.733012
3.13554
0.950401
-1.2542
1.55935
-1.15906
-8.37772
1.23123
1.21488
1.58349
3.17955
0.003047
-0.467842
-3.95485
0.098232
0.995014
1.52017
-0.478282
2.41908
1.33598
1.81129
-1.81927
-0.266113
0.0149589
1.63603
1.72041
1.69143
1.7348
2.93796
2.84199
-1.18441
1.56667
2.14654
-1.21354
2.26033
-0.168808
2.80716
2.23714
0.193983
1.95264
0.984043
1.141
-0.0733112
1.79134
-1.92743
1.38719
0.455777
0.956126
-0.12574
1.60474
-0.135358
0.458076
2.70672
2.69904
0.994191
-3.34305
0.414943
-0.26188
-0.426122
1.49301
2.40739
-3.32283
1.75813
1.50958
0.779829
1.62821
-9.63893
-1.2363
-0.152758
3.00384
0.404058
-0.154376
2.0102
-0.135024
0.0025615
0.982399
0.356099
1.39515
0.422993
-1.2291
0.958685
1.20679
0.945791
1.10842
2.88337
2.36586
2.0065
2.08964
2.64329
0.682489
-0.182705
0.176329
-1.30459
2.6837
-1.87386
1.61609
1.4029
-7.28661
0.743679
1.83644
-5.32832
0.796394
1.24049
3.21457
-5.17122
0.714615
0.132441
1.82083
0.0109789
-3.23493
2.63357
2.20977
1.52845
1.64713
-1.34435
0.568462
-4.87678
2.83617
-0.00693414
3.07933
-0.575417
0.351496
-4.217
0.68541
-3.71376
0.381442
-0.234625
0.7453
-0.0204459
0.718165
-3.92345
0.000999591
-1.06622
-3.32142
-1.23618
-2.59515
-0.0122085
-0.328593
-1.60251
-8.53978
1.602
1.63854
2.24373
1.71388
0.645541
0.635563
3.38446
1.5743
-4.99945
0.000624362
-0.0138574
1.40592
1.4023
2.42466
-1.48932
-1.52136
1.21307
0.0013008
0.436548
2.15885
-3.37773
-7.42792
-4.97478
2.86967
-3.94091
1.10645
2.11007
-0.665907
1.21056
-0.118493
-5.5351
-5.38779
-1.32194
1.25834
1.91227
2.07331
-2.65345
-3.37919
0.921965
-4.34041
-1.44797
-0.7288
0.400431
-1.34944
-0.0926119
-4.47225
-5.23761
-3.278
2.52748
-1.89742
2.7983
-7.52727
-0.442917
0.593348
0.165244
2.31929
1.52006
2.06819
0.020224
-1.29772
-5.80806
2.21891
-3.29143
1.34099
-0.174068
2.12939
2.33214
-0.171642
1.6552
2.67006
1.75383
1.78823
-2.52446
-0.431114
0.661295
-2.04533
-0.224959
0.855639
1.02076
0.0181188
-6.28286
0.408154
-0.590761
1.32227
1.07974
-1.27768
2.79785
0.0781338
0.000825647
0.271774
1.70306
-2.51539
0.00489289
1.74006
-0.646514
-0.0223011
-0.257906
1.66116
1.70764
1.64308
-0.106445
1.6584
1.96635
1.81879
-1.11854
0.0294048
0.56483
1.35784
-1.47537
-4.83442
-6.78443
-1.92317
-2.8103
0.0374845
-0.222511
0.023427
-3.39885
-1.12737
-11.6567
-0.774681
-1.50739
0.778839
-6.20018
1.81749
3.40063
0.75621
-0.998683
0.917338
0.373894
0.414303
0.0212893
-1.36982
-11.8997
0.141206
2.15493
0.00425645
2.61737
0.0261542
1.63956
1.24195
0.698378
-4.54749
0.768106
2.9495
-1.64308
1.7334
1.67428
2.41307
0.147004
2.2004
1.69104
-4.05821
1.8173
-5.12986
-4.87277
2.25052
1.56095
-2.42713
0.31545
2.17445
-0.155876
-5.72368
0.0239752
0.0292183
1.43887
1.04092
1.76899
1.44471
1.36439
-2.88309
-1.27227
-1.07026
1.73818
3.07131
-1.54379
-4.59882
-4.4955
1.55744
0.0985588
0.110328
0.504538
0.253181
1.18504
-0.706925
0.407324
2.66545
0.894233
0.23306
-1.33163
-5.0139
-2.38297
-4.94341
-3.13792
-7.77101
2.05794
1.0377
-1.49962
2.74448
0.00145061
-6.12025
-1.08342
-4.93105
1.72762
-3.32182
0.713109
1.57777
-0.0903898
-1.13344
-0.289651
-4.97651
-2.97106
1.89385
-11.0834
-0.145056
-4.92089
1.67594
1.78629
-4.14039
2.09748
1.90541
2.50307
2.60715
1.77702
0.309675
3.00979
-4.98273
1.51744
0.0949957
-11.1565
2.10157
-5.92013
2.59152
0.942845
-1.68326
-4.74102
-3.94284
1.85188
-6.8804
-1.9991
0.00475452
-0.847975
0.233094
1.17187
0.441361
1.09318
2.86703
-3.44351
-3.20985
-0.495289
1.62759
1.4092
-2.48819
3.36481
-0.174189
-0.502019
1.26412
-1.43902
1.67001
1.63781
1.86496
1.84856
0.257657
0.774596
1.54065
0.376486
-0.761014
-0.00627779
1.71516
1.86012
2.24471
-1.12978
0.0109037
0.646294
1.1511
0.362789
-8.38428
1.4973
-1.51149
1.54597
1.77773
-4.8771
2.59742
-4.91193
2.90091
1.82607
-12.039
0.00412886
-0.0646513
0.912009
1.82849
-12.2819
2.21856
1.67335
0.656213
0.0276819
0.344973
-0.134486
0.650656
-4.93639
0.863785
-2.60326
1.69049
-4.95172
-0.379508
-1.03441
2.097
2.33565
1.06785
-4.95081
0.969767
-0.333078
0.0463188
1.07548
-0.698591
-0.978177
2.79177
-0.612029
-0.0293287
-1.85908
-5.098
-0.527743
1.77117
-4.91172
-0.791732
1.8244
0.954128
1.80657
-6.2207
0.733022
2.85069
-2.86494
1.71868
0.519047
-0.642112
0.729269
0.391023
-0.730885
2.89914
1.84606
0.069002
2.84453
2.12446
2.09757
-4.4552
-4.91487
0.885906
-1.8256
-0.469146
-3.31099
-1.52645
-3.11469
1.22392
0.629486
0.856162
0.992104
-0.669448
1.10091
1.76249
-5.73507
1.63713
1.17867
1.71982
-0.332673
-0.026816
-4.22843
-5.01842
-5.7527
-0.921331
1.74848
-11.614
2.51372
-7.0709
1.67667
0.848105
-0.182244
0.0617309
1.6748
0.945017
0.5438
1.41226
0.427149
0.229482
2.3661
2.08861
-2.70465
-4.77804
-0.295663
1.57747
0.191221
0.526555
-2.6084
0.150127
-0.410192
-0.174267
1.3813
1.25833
0.339627
0.940034
0.141672
-0.130261
-12.7715
2.12914
-4.73049
1.60117
0.00190294
1.53353
1.73877
1.09613
1.46736
-0.203907
-3.99385
-0.235296
-4.53669
-6.40043
-4.31401
0.157414
-0.631966
1.45367
0.0541613
1.69559
-0.492249
0.220899
-2.35509
-0.164268
1.70364
-5.35464
1.56777
0.436551
-11.1549
-0.527483
-5.06121
1.13061
1.81316
-0.132596
0.341092
-3.93047
1.87268
-0.0360053
0.507552
-7.20805
2.08033
0.791654
-0.00424846
1.78686
1.65143
1.97851
0.591502
2.15404
-3.00111
-1.17648
-0.417978
1.49161
1.20213
0.460991
-0.122795
-6.20725
-9.50856
0.794688
-0.0153891
-11.1781
2.69146
-2.74641
1.92603
1.12884
-2.14438
-0.193927
-0.564435
-0.256154
0.349725
0.289022
1.65233
-0.237157
1.71929
-2.44371
0.446557
-0.9655
0.380564
-6.82222
2.0027
2.85119
1.83418
0.744409
0.0606603
1.27583
-5.00511
-0.103825
-0.12319
-0.408202
-3.28101
-12.1812
-7.64332
-1.44293
1.39489
1.52792
-3.0468
0.43525
1.9187
-1.09963
-2.22265
1.85341
-0.191776
-7.57304
0.026947
-0.253312
0.00419945
2.73017
-0.131719
1.49498
-1.43933
-0.945139
-1.06156
1.54937
0.405912
1.26257
-1.01706
-1.50864
-0.338675
0.189691
1.97522
1.39675
0.464115
-0.274847
-0.96491
2.95199
-1.10858
1.83789
1.99958
0.190556
-0.235127
0.744053
-4.5937
-0.598233
1.55625
1.13404
1.55439
-7.68073
1.8732
0.363509
2.41788
0.221991
1.57815
2.11531
1.49654
0.374483
-6.75737
0.698956
-4.85383
1.29876
0.92367
1.9732
0.287567
2.49537
0.323182
2.66402
0.129286
2.02937
-0.0633036
1.1759
-5.66911
1.66633
0.758039
0.884035
2.59268
1.7193
0.444661
-1.2212
0.909734
1.6516
-0.158218
-4.81372
1.15966
-0.340137
2.1552
-4.28853
2.54626
0.580012
3.41702
2.61981
1.06514
0.903736
-6.32562
0.236933
2.75935
0.0152476
0.0514085
-0.35387
2.813
1.0078
1.33946
2.44357
-1.02067
1.79917
-0.764449
1.91372
-0.00504032
1.78531
1.65537
2.24537
-0.18797
-3.89593
0.497142
-5.28677
0.7274
-0.0407183
-0.137921
2.2353
2.40027
0.0189589
0.325272
-0.685376
2.108
1.30718
1.44932
1.16837
-0.311244
-4.55154
-2.0907
1.76653
-2.43525
-0.165687
0.426296
1.06113
0.767121
-1.20044
2.93197
-0.639625
2.51338
0.235651
2.68481
-1.37171
0.409642
-0.165991
0.0146943
1.34911
1.69881
0.185381
-0.073951
0.13397
-0.281697
2.36036
-0.304422
0.139864
-0.699916
0.0273133
0.313414
1.96141
0.62167
-1.24395
-0.010789
1.71137
3.08224
-5.46592
-0.504685
1.52993
-0.0115252
0.995645
-0.178114
1.02524
-0.00884414
-4.62244
-0.0509271
-1.56236
-0.425965
0.0247705
-3.43116
-6.33661
0.204053
1.40966
1.75048
1.5425
2.98878
-8.58461
2.79717
-4.00876
2.64835
-12.7633
-1.20436
2.88453
0.852598
-3.23162
1.57653
-0.194802
1.72458
-0.816799
-4.90985
0.312535
-1.45836
-1.87416
0.00114194
-0.424759
0.823857
1.99492
-13.1837
0.892069
-2.40025
0.45521
-0.662537
-0.153174
0.379706
-0.842431
-1.93752
2.3028
-0.0882953
2.49534
0.631933
-5.26371
0.756189
-1.12903
-0.159137
1.52625
2.05642
3.04106
1.38207
1.54287
0.623486
-3.43354
2.94339
3.09735
1.87564
-0.868592
-7.3319
-4.87471
1.46493
0.949103
0.581158
1.55165
-1.2614
-0.122138
-5.92261
2.58067
0.320264
0.339314
-3.63228
1.49586
0.661013
3.32381
3.1317
1.42099
0.437468
0.370334
-3.44247
0.877681
3.20445
0.00149986
-0.133515
1.09216
0.00556263
0.377024
-0.140069
-0.388893
0.368127
0.299945
0.747817
-0.0147159
0.697588
2.29386
0.248697
1.74155
-4.2127
-0.509021
2.78312
-4.60236
0.385298
0.17312
0.890069
0.553354
-4.43888
0.0528404
-1.38958
0.35233
3.35525
-4.46134
-3.10581
-5.8577
-0.707284
-0.090397
0.164838
-3.71329
-3.0847
-0.00400545
-2.93226
-1.03775
-1.96555
0.543581
-0.170605
0.292412
3.28116
0.343426
0.497543
-0.419357
0.485663
-3.27756
-0.957456
2.34616
1.65244
0.505393
0.0405337
1.52851
1.76529
-0.024652
-11.4325
-0.140027
2.34424
-1.24297
1.63136
0.193361
2.53372
0.248062
-4.82072
0.269483
1.83442
-1.24842
1.57855
-1.02345
3.15562
-3.48838
-0.295799
-6.4998
0.967825
-4.7205
-1.35142
-3.77379
0.207587
0.525077
-8.66031
-0.88791
-0.30707
0.389671
-2.62112
-1.07242
1.28883
-4.83436
1.35697
-4.17039
1.84917
2.91976
1.44717
-3.28173
1.58366
0.151434
0.392473
-0.345216
-0.576669
-4.89461
-0.090546
-1.21413
0.50153
0.166221
-0.690293
-0.521151
-5.70118
0.824512
1.74495
-1.16505
-4.85576
-0.401238
-0.0232898
-0.0029556
0.898466
-2.40917
-5.20647
1.79931
-0.592392
0.756518
-1.9744
-6.15495
-6.20448
-8.90016
3.30025
0.515414
-1.59773
0.742974
2.77753
2.78961
-5.51135
-0.787442
1.70648
-0.11798
-0.0698529
2.84068
0.886302
1.33699
3.35139
-0.247379
0.241772
0.413219
2.51399
1.76991
1.62341
2.1898
1.30588
0.0208066
0.0134868
0.933101
0.425487
-4.86975
2.87047
-0.380857
-0.581391
-0.0116622
-2.33979
0.756204
-3.7205
-0.881221
0.440412
1.65741
1.85183
1.82153
-4.98281
2.50443
2.79348
-3.26105
0.996982
-0.259658
-0.0754845
0.379106
1.12949
-0.611127
-1.10746
-0.624425
3.09029
-5.09858
1.85867
1.66778
2.14004
1.11706
1.2516
-0.0243667
0.019428
0.791362
-0.224802
-4.84767
-2.28332
-0.0129388
-3.01507
2.02253
-8.13338
-0.136928
0.534757
-3.29022
-4.44434
-4.98603
1.43931
-0.763119
-0.0779274
0.93067
-6.766
0.576779
-3.03001
-0.260465
1.80316
-5.62891
2.88922
-0.0140004
3.07173
0.00191105
-0.107423
0.22975
1.55384
1.33426
-3.0777
-0.3777
-0.0959474
0.205185
1.06517
3.3593
2.1476
0.465683
-1.17421
0.773015
0.20209
1.82396
-0.0571646
1.14009
-2.3235
-3.56802
-3.25883
0.366821
0.0205326
-3.32315
1.22534
1.00694
2.74609
2.98851
-4.92114
-4.90157
0.186743
-1.32711
2.85656
-0.115791
-0.354409
0.883754
1.32922
-2.28795
-0.0718996
0.242071
-0.190581
1.40471
-1.53007
0.258068
0.0895959
-1.03829
-2.70985
-0.241888
-2.75563
-2.48755
1.76769
-6.24335
-4.30934
-0.903219
0.285993
3.13919
1.07821
1.63811
-1.1333
0.793381
0.0479165
0.592775
0.670382
-3.72932
-4.89373
2.84581
1.77505
0.135539
-3.80569
3.25292
-4.65072
-4.89818
-2.05413
0.700359
-5.04679
-2.20401
2.49284
0.0497283
1.44589
0.830216
-2.61003
0.284914
-0.0506068
0.801251
-2.98046
0.173754
0.709547
1.58183
-5.33613
-4.64768
-0.124383
-1.28604
-1.53504
-1.45169
3.07848
1.23616
-11.5209
0.647555
0.579776
2.67768
0.835596
-4.77524
0.852412
2.14148
1.71853
-1.5145
1.57703
-0.0790722
2.82086
0.0184572
1.78275
-6.42657
-1.37911
-0.0206638
-2.91487
0.820315
0.735931
-4.68775
-5.6666
1.91445
-0.163826
-0.0171566
2.32571
1.42685
2.26498
1.63267
-1.56639
0.016444
0.208235
1.56971
0.000295053
2.00331
1.15402
2.80888
-3.24888
2.20567
0.631987
2.88104
-2.45376
-0.946675
2.91627
-3.49252
1.11795
-5.11844
2.46888
2.82792
1.82357
-2.15544
1.71502
2.11751
-2.39567
0.930327
-4.40955
2.2665
-3.83547
-0.949644
-4.86183
-4.82611
2.0797
0.622004
-4.71111
0.814422
2.81669
-0.501626
-0.0224445
-4.83859
-1.29513
1.26571
-0.471063
1.65911
1.49507
-4.42853
3.15699
-0.23647
2.43191
2.3092
-0.393408
-0.0207122
1.37569
-2.20687
-0.668207
1.34732
1.1413
-0.396239
1.49815
-1.98349
2.57507
1.87464
0.617109
-0.330426
1.76014
-0.976193
1.19244
2.14782
0.370532
-0.00579278
2.08744
1.70938
-1.1549
-3.3947
1.12987
1.79514
2.8192
-4.04108
2.98393
3.00282
3.0387
-0.200573
2.04084
-6.96274
1.71336
2.17843
2.20289
1.77907
2.40699
3.3173
1.5564
-4.36223
-0.135776
-4.92632
3.29071
0.848465
-0.164224
-4.60207
1.6951
2.52312
1.52404
0.558121
-0.353112
2.47188
-3.01026
1.69661
-4.91587
0.917651
-0.133702
0.275766
1.02574
-6.95826
-7.43514
-0.588567
-1.21055
-0.0277377
2.00135
-0.127293
0.223321
1.48984
-5.20223
0.862019
-0.0238496
-4.87317
-5.9636
-4.62737
2.30648
2.53214
-4.25264
0.942619
2.14878
2.0903
0.0204209
-11.2844
1.75796
-4.70795
2.30258
-4.52745
2.24274
1.22055
0.408268
2.11605
1.06253
2.1521
0.590797
0.938733
-1.23549
-3.31122
-5.68604
-0.193884
2.11198
-10.5689
-3.18539
-8.95045
2.48406
2.11578
0.801342
1.13309
2.42537
-2.42409
1.51581
-0.0258722
-1.24678
1.51318
-4.9127
-5.03225
-1.34747
-5.0456
-0.868227
-12.4157
-0.0462358
-4.92666
-3.47432
1.28397
2.87532
3.1323
2.72059
-11.9413
1.71689
-6.71442
1.48117
2.45911
0.437788
2.07399
-7.56813
0.586733
-1.30467
0.0261582
2.26153
-0.829964
1.81958
-4.9588
-0.250991
-5.07485
1.93503
1.80629
1.71984
-5.39357
1.50878
-0.71682
-4.83318
-4.89232
0.545389
2.86932
-2.89561
-1.07733
-5.30437
1.57863
1.66609
-0.226122
1.18112
-5.1842
2.46261
2.3372
-2.68052
-0.183314
2.3628
-4.97323
-9.5816
0.162009
2.18439
2.4351
-6.39322
1.03566
0.0308743
2.82948
-4.469
-4.41111
-0.00400904
2.63082
0.140449
-1.24408
-0.277453
2.22521
1.42956
2.22541
-0.0575068
-2.63575
1.78611
3.25417
-3.36272
1.37483
0.0937991
-3.95035
0.128023
0.607131
-5.27173
1.00183
-2.0724
1.22681
-1.24553
-2.06484
2.03558
2.43532
1.50128
-2.06562
-3.82754
1.84725
-5.01995
0.460162
-1.15972
0.780776
-4.94656
1.90414
1.85415
0.0867612
1.72317
2.76261
-0.892552
1.22417
1.90099
-4.92726
1.18295
-0.569604
0.765364
0.399068
1.43194
0.0033694
0.572405
-0.638066
-2.42027
2.27664
0.469912
0.378652
-5.58561
-0.61571
1.75631
-5.35041
3.02407
-5.19469
-5.05274
-0.543104
2.14708
1.81055
2.16747
-4.65556
2.65152
-8.77479
1.17216
0.177074
-3.99728
1.6293
0.731306
-0.728251
1.03234
-4.88044
1.45687
-4.91547
-5.58964
0.00898735
-4.07965
-4.23082
1.37536
2.73677
-0.0515002
-6.99825
2.09019
-2.85564
2.46677
0.553139
0.198418
1.16922
1.73999
0.818724
-0.581006
-0.0480017
0.102434
0.616934
0.807934
-4.56045
-5.53765
-0.0147487
0.804673
0.12801
3.31215
1.71294
1.70377
2.48658
0.4734
1.90048
-6.20644
-3.9438
-7.60866
1.72526
3.23485
1.49102
-1.03833
2.28435
1.45125
1.48226
-0.102404
0.100798
0.852353
3.0367
-0.182753
-1.9949
2.37336
2.33126
1.65857
1.59928
1.99477
1.11794
-1.00482
-10.7381
1.76475
-3.71538
-3.26391
1.63162
-9.03843
-0.364543
0.322676
1.71484
1.78607
1.8278
0.0929133
2.16505
2.21928
0.397809
1.92289
1.66839
1.60677
1.45136
0.965357
0.797766
-0.235695
2.12615
1.90516
0.252189
1.40514
0.0663338
-0.129265
2.7168
1.99119
0.00874749
-7.91529
0.288094
2.05495
1.05559
0.638248
-0.140409
0.209171
-2.62512
0.334094
-6.23824
-0.183199
1.0716
-0.618155
-5.37932
-5.37682
2.53972
-5.14104
-4.36792
-7.37485
2.76056
-0.949581
0.445266
0.543944
-4.8066
1.48909
1.63802
0.901873
2.38386
1.2719
0.168313
-4.81268
-7.92071
0.0177599
2.01392
0.299766
-6.4233
-4.24477
-1.64219
-4.6673
-6.81633
-2.93728
-0.578475
0.788223
1.69913
2.10164
-1.21661
-0.0473548
2.39733
1.83489
-6.38103
0.0788562
-4.88227
0.915008
0.19562
0.879332
1.5135
-0.0754986
-1.1869
-1.82304
0.647453
-9.80949
-4.74215
0.0582743
-10.4915
-5.02789
-4.8114
-8.18312
0.0718089
-4.67674
0.800969
-5.99497
1.71083
1.56652
0.415525
2.17475
-12.1251
2.74072
-1.78061
0.239119
-1.23287
1.60368
0.961834
-3.36188
-4.34999
1.76144
2.08194
2.84918
-7.79644
-4.91554
-12.6947
-0.516078
0.00636266
-5.13941
0.400753
-4.90592
0.936075
-6.70525
1.12357
-0.0567732
-0.293221
2.5111
1.39442
-0.725689
-0.0749517
-1.88396
-4.34985
2.25404
3.12936
-4.29127
1.9644
1.50896
0.00125473
-0.721661
2.11773
2.07131
-2.97909
-0.713422
-8.27056
-13.1335
-1.10658
-4.96214
-0.897009
1.28217
0.0325434
1.90053
-6.0829
-4.77838
1.64199
-0.966973
-4.83606
0.276336
1.44853
-4.81557
-0.561356
-4.58011
-5.23399
-4.87878
2.89219
-4.26149
-0.129127
-7.36935
1.79682
-5.03897
-0.100778
-2.98844
-8.5489
-1.24749
1.82479
0.00124688
-5.0434
1.38685
0.016652
-2.97963
-4.35109
-5.53098
1.04885
1.26217
1.71268
-3.68496
2.44721
-2.13153
0.00340318
-0.429659
-2.3151
-11.1678
-5.21244
-5.6754
0.432998
0.862574
-0.0840212
-0.148338
-1.93959
1.46835
-10.6696
1.80406
-6.32407
1.18718
-0.861823
-0.608981
0.204791
3.27331
-0.741648
-4.83856
-3.09129
-2.1795
1.72368
-0.158577
0.226278
-0.0464419
-3.7305
-7.69903
-3.47509
-4.95976
1.72468
-5.2213
0.377636
-4.20136
0.0437447
1.39288
-0.444901
0.583471
-0.628083
2.1233
-5.00028
-4.43332
2.28671
0.628501
-5.01944
-0.177258
-5.28061
-1.9056
-0.327591
2.09053
-6.05417
0.904644
-4.76512
-4.91445
-6.46571
-5.49893
-4.79936
0.810281
-0.765119
1.67469
0.840232
-8.96164
-0.127819
-12.1196
2.10284
2.425
-4.833
0.366248
1.75862
1.70621
1.16893
-5.39575
-4.85556
-4.19609
1.72939
0.649201
-2.42976
-5.08297
0.808547
2.05156
-0.0822886
0.237043
0.257992
2.26119
-1.66707
-1.7847
-0.129646
1.52839
0.416914
0.176263
2.46435
2.09009
-0.111807
-9.66821
2.05744
0.997769
0.0735519
1.41446
-1.47213
-5.25654
-4.44914
-8.16342
2.08127
1.68039
-0.398735
-1.20253
0.12222
-0.270888
1.74148
-11.1782
1.10576
2.14076
2.30582
-2.28372
1.66346
1.35427
1.75544
1.87671
0.0259
1.89117
0.00152339
1.72922
1.13524
1.81906
-7.06361
2.09168
1.96222
1.58474
1.26562
-4.20035
1.05741
-1.08406
-1.66705
2.19494
2.34036
-11.1085
2.05779
-6.86921
-3.52755
1.73702
1.78634
-2.93473
-0.00830141
-4.94922
-10.8026
-0.909453
-4.59535
-3.22443
-0.209581
1.44544
3.05433
2.02861
-1.48587
-2.56751
1.68602
1.02817
-1.07962
-5.776
-3.86485
-1.70679
-3.58871
-3.29308
1.66165
0.0923674
0.982747
0.0170736
0.0175087
0.112707
0.0174323
0.439996
0.715038
1.35154
-1.67031
0.584648
-2.26872
-11.5894
1.09076
1.0697
-0.309346
-0.0776444
1.28471
-0.184373
0.850448
-1.43454
1.68007
1.322
2.62372
1.71089
-5.85409
-0.246665
-1.22938
-3.36934
-0.1291
-0.132719
-0.498112
-10.6081
3.11051
0.0268175
0.00250646
2.42144
-5.42949
-0.710814
-0.698979
-7.31087
-4.66899
0.269878
-1.44534
1.51764
-0.724644
-5.47217
0.234745
-3.45775
-1.40393
-0.918114
0.0448253
1.42242
-3.74068
-4.77382
-1.56839
0.639938
-2.10637
1.79397
2.48911
-3.36335
1.82944
0.846307
1.33232
2.78273
-5.85098
1.17206
0.846659
0.921331
2.33799
-0.136935
-0.512708
-0.768597
1.74984
2.4866
-6.26005
-0.0498153
-2.92258
-2.08341
1.02581
-4.63529
-2.49841
-4.42482
0.857999
-4.55731
0.394666
0.540476
1.56007
0.317524
-4.23367
0.0546646
-0.178993
-0.404738
2.66608
3.01035
2.18264
3.20817
1.61484
1.10652
1.79006
1.51675
1.6908
-3.27751
1.654
-0.25155
-3.55199
2.45285
-0.658576
-1.86452
2.90388
0.207188
-11.2069
1.04613
0.923592
2.06033
-2.57994
1.63342
2.72592
-5.52773
-3.56316
-2.08921
1.12034
-6.17281
2.07778
-0.0583204
2.08216
1.71028
-4.9525
1.90657
-0.968596
-4.75054
-4.53604
-9.65173
1.93642
-2.30826
1.77376
-0.211998
-5.04267
0.0102554
0.0157839
-1.07853
-5.06881
-4.64875
1.9839
0.504125
-4.87585
-0.436623
1.25594
0.455797
-12.0516
0.995068
-0.160153
0.994396
-4.87683
1.17491
0.619987
0.832727
-0.371506
1.51975
0.980213
0.689594
-5.08979
3.1787
-1.33703
-4.76459
1.52304
1.32051
-4.9273
-1.81768
-6.63413
0.902476
0.784103
-1.98699
-0.026887
-0.243377
3.18421
0.108356
-5.8081
-0.00126071
-1.25776
1.00914
-0.770493
1.47013
1.25039
-5.76528
1.02481
-4.78875
1.16182