/*--------------------------------*- C++ -*----------------------------------*\
| =========                 |                                                 |
| \\      /  F ield         | OpenFOAM: The Open Source CFD Toolbox           |
|  \\    /   O peration     | Version:  2306                                  |
|   \\  /    A nd           | Website:  www.openfoam.com                      |
|    \\/     M anipulation  |                                                 |
\*---------------------------------------------------------------------------*/
FoamFile
{
    version     2.0;
    format      ascii;
    arch        "LSB;label=32;scalar=64";
    class       volVectorField;
    location    "8.9";
    object      U;
}
// * * * * * * * * * * * * * * * * * * * * * * * * * * * * * * * * * * * * * //

dimensions      [0 1 -1 0 0 0 0];

internalField   nonuniform List<vector> 
13486
(
(3.21004 -0.635504 1.84561e-18)
(3.44938 0.334918 9.93725e-19)
(4.70536 -0.0289062 0)
(-1.5055 -1.2807 -3.22775e-20)
(5.32509 -0.685026 -3.37309e-19)
(4.6674 0.24092 -8.06454e-20)
(5.72812 0.331043 -2.09931e-20)
(4.53118 -1.53207 -4.1315e-19)
(4.20971 -0.766163 0)
(3.90638 1.12223 0)
(-1.53417 3.73081 -4.15467e-18)
(4.71803 -0.145633 0)
(2.97754 -1.03447 -1.83133e-18)
(4.60749 1.1867 -1.32626e-19)
(5.1217 0.0810866 -1.38981e-19)
(3.8324 1.10999 -7.79357e-19)
(1.06262 -0.550445 2.07954e-18)
(2.08101 1.41372 3.97406e-19)
(4.218 -0.00144213 8.42829e-21)
(3.46308 -0.253804 -1.90564e-18)
(-2.55047 -2.93599 -1.45518e-18)
(3.01483 -1.0654 2.39129e-18)
(3.49238 0.324921 -7.90129e-19)
(6.07929 -1.82533 0)
(3.99015 0.91221 2.66965e-19)
(5.86798 -1.75243 -6.33336e-19)
(-0.201244 0.393158 2.93763e-18)
(4.99245 -0.305269 6.21106e-19)
(3.83798 -0.364284 0)
(4.62046 -0.927627 -2.98517e-19)
(-3.62982 -1.21905 -1.30643e-18)
(4.52628 0.324321 -8.32649e-20)
(5.88075 -0.415379 1.06903e-18)
(3.85552 -0.212439 0)
(4.54632 -1.4551 0)
(2.72814 0.0983942 1.78733e-19)
(2.95259 -3.33343 -9.54886e-18)
(3.55093 -1.65091 7.6443e-19)
(2.54735 2.64951 -7.33604e-20)
(4.14241 -0.464863 7.62385e-19)
(6.35015 -1.58445 0)
(2.41473 -1.18634 -2.15398e-18)
(4.67911 0.0010937 0)
(4.02719 0.774736 -1.24458e-18)
(4.06082 0.748394 5.18374e-19)
(4.72529 -0.161547 3.37516e-19)
(-0.464362 1.32667 3.14287e-18)
(3.86498 -0.321188 -8.78704e-21)
(4.55159 -4.08603 7.34125e-18)
(5.06785 -0.04212 2.87247e-19)
(4.0003 0.0289282 1.19446e-18)
(3.69624 1.67705 0)
(4.29809 -0.441342 -4.25451e-19)
(3.68835 -1.36336 -1.14918e-18)
(3.61748 -0.135288 0)
(5.21004 -0.712298 9.29018e-20)
(3.2007 -0.0548487 -3.55393e-19)
(3.86047 1.84299 8.33588e-19)
(5.82361 -0.397332 1.18822e-18)
(-0.559695 0.346095 0)
(-1.76124 3.25283 -5.59463e-18)
(-0.0150687 -0.260572 0)
(6.47683 0.953657 -1.11702e-18)
(-3.40578 -3.19939 -1.98536e-20)
(3.60573 -3.30603 0)
(1.60753 -2.73391 -4.45107e-18)
(-2.22008 -0.0953009 -2.45755e-19)
(3.11474 -0.1267 6.68167e-19)
(4.22579 -0.826279 -3.97683e-19)
(4.19768 -0.703355 9.66615e-21)
(-2.21987 0.0293552 2.85511e-19)
(3.01993 0.325424 1.43368e-20)
(4.09155 -0.241935 6.08439e-19)
(-0.717897 -0.544663 -1.48506e-18)
(0.929244 -2.19522 -6.97294e-19)
(3.11151 -0.0686291 8.2654e-20)
(1.52608 -2.5135 1.40845e-18)
(5.17783 0.0758254 6.50842e-20)
(-0.611884 1.99296 -1.75217e-18)
(2.94557 -2.73644 0)
(3.51086 0.149952 -5.628e-20)
(3.3542 0.490307 -6.30519e-20)
(6.87661 1.01738 7.30792e-20)
(5.32397 0.119947 -1.37768e-19)
(3.20448 -0.643913 -3.63309e-18)
(2.7088 2.47644 0)
(6.15587 -4.0574 -5.35499e-18)
(4.00919 0.0536326 -1.83268e-18)
(3.80518 0.261943 -7.90412e-19)
(3.59343 1.51585 -1.00424e-18)
(4.09332 0.234408 -1.34695e-19)
(4.80497 -1.21802 -1.36725e-19)
(3.33754 -0.803479 4.65048e-19)
(3.48064 -0.0186999 5.1737e-20)
(4.12604 -1.2417 1.56841e-19)
(3.90728 -0.226194 8.06718e-22)
(-0.43203 0.616795 0)
(-3.95502 0.344292 1.48801e-18)
(4.1714 -0.457096 -1.45818e-18)
(0.706847 -0.28562 -2.29144e-20)
(2.93904 0.121219 0)
(4.56878 1.18202 -6.0257e-20)
(-3.689 -0.346074 3.33619e-19)
(3.27739 2.03645 -9.93556e-19)
(2.68645 2.33947 0)
(0.381798 -0.0131995 -1.95561e-20)
(3.97739 0.0347182 2.15008e-22)
(2.10289 2.37101 -3.35508e-19)
(-0.624294 1.83241 2.21449e-18)
(4.64049 -2.0201 0)
(3.52022 -1.64495 0)
(4.7871 0.739129 2.28817e-19)
(3.7034 -1.31383 1.24852e-20)
(3.71122 -0.336808 2.77541e-20)
(2.54736 -0.388545 0)
(3.34206 -1.63244 -5.06086e-19)
(3.97287 0.936869 0)
(4.05726 -0.178496 0)
(4.08427 -0.219055 0)
(5.82349 -4.53373 -2.86526e-18)
(2.46631 0.872769 -3.68779e-20)
(-2.13448 3.52625 0)
(4.0398 -1.11822 0)
(1.76063 2.59579 1.37774e-19)
(4.27078 -1.44564 0)
(4.37363 1.56427 0)
(4.60217 -0.34552 1.14312e-20)
(4.25046 0.11202 5.63445e-19)
(3.48793 -0.0601752 9.43736e-20)
(3.92695 -2.6965 -3.30831e-19)
(4.19408 1.76137 1.38047e-19)
(-0.583743 1.19365 -7.90006e-19)
(0.0102676 0.313041 2.39409e-18)
(-0.339828 -0.0211724 2.06775e-18)
(3.99734 0.0110395 -1.91173e-19)
(3.78989 0.603037 -9.93518e-19)
(1.70304 0.868456 -6.37758e-19)
(4.60374 -1.94127 0)
(6.33228 -4.15208 6.76009e-19)
(4.53407 -1.14409 -1.85754e-19)
(5.56569 -0.082655 -9.76743e-19)
(4.27622 -0.399089 3.60307e-19)
(4.40981 0.0269408 0)
(2.81841 -2.24923 0)
(4.76426 -0.0226877 1.09243e-19)
(8.30333 0.392005 -3.05845e-18)
(6.65523 -1.03947 1.79674e-19)
(0.865816 2.17877 0)
(5.1627 -0.0375125 0)
(3.81495 -0.356211 0)
(4.02364 0.0144168 2.07795e-20)
(5.41081 -0.183982 0)
(3.37641 0.110543 5.92126e-20)
(3.31254 0.464934 -5.46564e-19)
(4.25394 0.493427 0)
(5.26506 0.0369174 0)
(4.49201 -2.01521 0)
(4.23866 0.303677 2.86272e-18)
(3.92959 -1.55335 1.43669e-18)
(3.46206 2.38127 1.12247e-19)
(5.06379 0.0081694 1.01761e-19)
(3.9541 -1.48691 -2.1825e-18)
(3.78876 0.833907 8.65398e-20)
(2.22263 -1.06178 9.44327e-19)
(3.94875 1.49372 0)
(4.78223 1.1879 2.03078e-20)
(4.49638 1.08236 4.90048e-19)
(1.46609 -0.56805 -2.51963e-18)
(6.7358 -1.08039 -5.46554e-19)
(-0.335276 -0.0814413 5.56245e-19)
(-1.22258 -0.0865929 1.00132e-19)
(4.24253 0.439807 4.52144e-19)
(3.99178 0.104303 -1.5976e-18)
(4.67953 -0.083539 1.32307e-20)
(3.82399 0.0900173 -3.93654e-20)
(-1.87362 -1.99989 0)
(4.53565 1.6623 -2.36245e-19)
(5.79434 -0.0337085 1.40323e-18)
(3.98939 0.0340549 -1.81701e-18)
(4.41099 -0.0168381 0)
(4.28792 -0.539851 1.38695e-18)
(3.8133 -0.336395 5.63242e-20)
(4.64623 -0.00925854 -3.96547e-22)
(-3.70309 2.28969 0)
(5.42977 0.0954999 2.75914e-19)
(4.76998 -0.30971 -2.78933e-19)
(3.73801 -0.413697 -9.62586e-21)
(4.42516 -0.58607 -4.98771e-20)
(6.20799 -1.50452 0)
(3.10696 -1.48103 -6.92685e-19)
(5.20863 -4.45706 0)
(4.61586 -0.0704398 0)
(2.56297 1.39142 0)
(2.85616 1.1483 -1.22028e-18)
(2.40331 0.958962 0)
(-2.26721 3.83215 -1.15919e-18)
(3.73198 -2.90843 7.90551e-19)
(4.93052 -0.00459251 6.7434e-20)
(2.95787 -1.45286 -3.57624e-19)
(4.75334 1.12291 7.52738e-20)
(-3.85835 -1.6999 6.69318e-19)
(4.27077 0.136216 -1.73868e-20)
(3.4375 -1.64668 -8.90099e-19)
(5.02999 -1.96555 -3.56492e-19)
(3.32883 2.32797 -1.05329e-19)
(2.7026 0.860701 5.21271e-19)
(1.60328 1.84732 3.37591e-19)
(3.92792 -0.146096 1.35263e-18)
(2.90013 1.58773 0)
(5.34817 0.139022 0)
(4.82824 -0.3171 2.70382e-19)
(5.04086 -2.29895 9.91705e-19)
(3.49283 -0.219125 1.7366e-18)
(3.96178 0.0399404 5.74317e-22)
(4.66751 0.320035 9.28831e-20)
(3.89904 -1.88873 2.07099e-20)
(4.7379 -0.805544 0)
(3.61676 1.46466 2.31847e-18)
(3.50756 -0.826081 0)
(5.68882 1.2237 0)
(0.898973 -0.466738 -3.97257e-18)
(5.2206 0.0172512 0)
(4.48075 -1.15276 4.08659e-19)
(5.1068 0.0238627 0)
(4.1143 -0.732891 -6.71781e-20)
(3.04574 -1.42639 6.27369e-19)
(4.86999 0.54874 5.62617e-22)
(-0.758665 -2.4505 3.63055e-19)
(3.36438 -1.56676 1.57664e-20)
(5.95132 -4.41854 -2.71761e-19)
(4.29572 -0.519332 -4.4922e-19)
(6.13626 -0.0563258 3.6209e-18)
(5.63688 -0.173156 1.21805e-18)
(2.43185 -1.18882 7.44813e-19)
(-2.94768 -1.75731 0)
(2.81191 -1.36184 7.17074e-20)
(4.18043 -0.470624 -3.22233e-20)
(4.525 -0.0730968 -1.45822e-19)
(2.65122 -1.27384 1.92201e-18)
(4.58149 -0.0309995 0)
(5.93293 -0.515429 0)
(4.00645 0.0781988 2.42262e-18)
(4.41299 -0.300249 0)
(2.56715 -1.27632 6.33929e-19)
(1.01108 3.22576 -8.88215e-19)
(3.73153 0.0326358 0)
(4.56019 0.0172483 -9.59002e-20)
(5.28949 -1.4329 1.41437e-18)
(0.375666 -0.474032 3.49544e-18)
(3.97498 0.720899 0)
(-4.14677 1.56321 -1.0653e-18)
(2.48627 -0.33222 2.86656e-19)
(3.04315 -1.48294 5.87382e-19)
(1.57282 2.26361 0)
(2.91935 -1.77195 -4.94913e-20)
(-1.96081 -1.9083 8.60889e-19)
(4.50567 0.300457 1.16976e-19)
(3.72091 -1.92081 -2.62944e-20)
(4.33522 0.419059 -2.94524e-18)
(5.89017 -0.485432 8.80764e-19)
(3.65106 0.278847 0)
(1.09901 3.50552 1.85361e-19)
(5.09492 0.0783036 2.83663e-19)
(-2.0913 -1.18279 -1.07812e-18)
(5.21016 -1.39315 2.67286e-19)
(-3.57488 2.43598 0)
(3.2623 -1.3589 2.04246e-19)
(-3.90554 -2.03469 -1.90574e-18)
(4.28916 -0.00803222 -7.39766e-19)
(5.30858 -2.8014 0)
(3.1152 1.38135 9.26076e-19)
(3.97077 0.0399892 -5.02789e-19)
(4.73664 -0.831713 0)
(4.63971 -0.371551 2.78863e-19)
(3.03515 -1.45259 8.35231e-19)
(5.10725 -1.37667 -7.87146e-19)
(2.63261 -1.41501 0)
(4.2553 -1.40796 0)
(1.35096 1.76211 -2.20239e-19)
(6.41178 -1.28006 -3.09759e-19)
(4.09033 -1.49419 -3.47217e-19)
(4.4003 -0.289028 -4.88942e-19)
(3.93412 0.0704428 1.08331e-18)
(8.03445 -1.56084 -2.30585e-18)
(-2.62981 3.41967 6.43371e-18)
(-0.184487 0.645606 4.37502e-18)
(5.54156 0.0267239 9.31099e-19)
(3.61158 -0.121662 -1.23564e-19)
(4.36096 -0.775961 9.6265e-20)
(4.17099 0.00738497 0)
(-3.46879 -1.86971 0)
(0.769466 4.71892 1.7382e-18)
(3.39503 -1.61708 5.43033e-19)
(3.99607 0.0238612 -1.87455e-19)
(4.15771 -0.41378 -9.7801e-20)
(4.29374 -0.545342 0)
(4.3149 -0.0794174 -1.4435e-19)
(4.82676 -0.343244 -2.5408e-19)
(3.92787 0.0492757 -9.8895e-19)
(6.16364 -0.238358 -1.07813e-18)
(3.5058 0.85291 -1.00543e-19)
(1.47838 1.89021 -2.85495e-20)
(6.44726 -1.32961 2.70102e-19)
(4.60675 0.295959 9.53642e-20)
(7.00286 -4.37293 1.77591e-18)
(4.37012 -1.98883 0)
(4.35905 -0.0271835 0)
(4.29331 -0.00406174 1.94999e-19)
(4.29877 -3.57549 4.77216e-18)
(3.79103 -4.19481 0)
(4.1237 2.91547 -3.41624e-18)
(-0.393925 -1.09486 0)
(4.38333 1.61471 2.40428e-19)
(4.75627 0.716785 1.13081e-19)
(4.11208 1.85476 0)
(3.7669 0.564834 -6.30867e-19)
(1.2075 3.90533 -2.47619e-18)
(3.78827 0.238246 -6.82608e-20)
(3.90841 -0.135341 -1.50574e-18)
(3.45858 -1.29548 0)
(3.04768 -3.45845 7.882e-18)
(0.487341 5.17661 1.02888e-19)
(3.99875 0.0387444 2.29732e-19)
(3.45147 0.0860583 -9.74872e-19)
(1.86511 0.823371 1.14283e-18)
(4.1953 0.259232 2.91452e-19)
(4.81811 -0.460381 -5.53493e-19)
(4.43017 -0.286641 0)
(5.20116 -0.36312 1.15895e-20)
(4.91248 -0.420362 9.39586e-21)
(4.00528 0.0242348 2.6577e-18)
(4.92273 -1.13187 0)
(3.92537 0.301457 -7.44172e-20)
(3.08825 0.444802 0)
(5.77627 0.376283 1.89812e-18)
(4.25395 -1.10837 -3.9423e-19)
(1.98333 -0.947635 9.06715e-19)
(5.41358 -0.246293 4.04535e-19)
(4.01786 0.236001 0)
(1.06395 3.73055 -1.9788e-18)
(3.40838 -1.28092 -2.11051e-19)
(3.45863 0.0772566 9.19245e-19)
(4.97558 -0.411038 1.61171e-19)
(4.63797 -0.00553989 2.93387e-19)
(-4.63783 3.27436 -3.91746e-18)
(3.85339 -0.292851 2.71268e-21)
(4.57988 -0.164718 0)
(2.5044 -0.932774 2.20981e-18)
(5.70884 1.16829 0)
(1.52915 4.10726 -7.24122e-20)
(4.51306 -0.0725979 7.48601e-19)
(4.97501 -0.460573 -2.82408e-19)
(4.68756 -0.378012 2.36292e-19)
(-0.703628 0.754097 -3.59958e-18)
(3.93888 0.0523894 1.23171e-18)
(2.6121 0.327937 0)
(-0.858399 -0.522034 -1.29164e-18)
(4.61168 -0.313687 -2.24526e-19)
(3.51066 -3.6854 -2.70684e-18)
(5.11879 -2.25571 8.21983e-19)
(4.8095 0.0141007 0)
(3.9537 0.0922435 2.41825e-19)
(3.69784 0.153903 1.97334e-18)
(3.96603 0.0503154 1.53557e-18)
(4.65721 -0.93274 0)
(3.30267 0.0772613 1.10474e-20)
(4.32938 -0.50573 3.02674e-20)
(-0.584743 0.698683 4.66151e-19)
(3.43795 -0.264416 2.41013e-19)
(4.5858 -0.277404 2.12763e-19)
(4.93896 0.0414061 -5.75616e-20)
(4.55364 -0.205447 0)
(4.12375 -0.880049 -2.20836e-19)
(-4.1184 1.71921 1.21284e-18)
(4.6384 0.622577 -2.00399e-19)
(3.99671 0.0300684 9.99301e-19)
(3.03594 0.0257096 0)
(1.72868 4.29784 -3.16411e-18)
(4.66784 1.45145 0)
(5.96169 1.83088 -6.8518e-19)
(4.31208 -0.0247628 0)
(4.91437 -1.41682 -3.57665e-20)
(3.01056 -0.454416 -5.26876e-19)
(3.14024 1.19957 2.12305e-18)
(-0.499468 0.782606 -1.76995e-18)
(2.76547 -1.39486 0)
(4.4794 0.100453 -4.77564e-19)
(4.02752 0.256607 -6.62042e-19)
(1.02941 -0.506282 -1.17147e-18)
(-1.59091 -0.527896 5.03355e-19)
(3.53508 -0.238431 -2.60695e-18)
(4.87082 -0.73042 2.38609e-19)
(4.11187 0.265844 5.04324e-19)
(3.32864 -1.07881 0)
(2.99411 0.285678 1.09927e-18)
(5.57209 -3.82948 -1.35158e-18)
(-1.51148 -0.744732 -4.85095e-20)
(-4.40081 1.89239 -3.96935e-18)
(1.00001 -0.569006 -2.32989e-18)
(5.57463 0.00396412 0)
(1.01472 -0.530659 0)
(3.84959 1.80681 0)
(4.30241 -0.11984 0)
(4.65848 -0.623097 -1.90928e-18)
(5.54175 0.521224 0)
(6.48391 -3.17058 0)
(3.51811 0.0470343 3.71741e-19)
(5.7643 0.00729927 -1.46556e-18)
(4.50633 -0.202842 -5.91653e-19)
(3.52281 0.400746 3.36359e-18)
(4.01428 0.0328747 -3.37444e-19)
(4.29192 2.64556 0)
(5.03321 -0.608118 0)
(3.91509 0.0471947 1.0584e-18)
(3.98362 0.0357314 1.84809e-19)
(2.76642 1.22611 0)
(-3.85051 2.26159 3.90903e-18)
(5.18047 -1.45099 -3.03193e-19)
(-1.01422 -0.526397 0)
(4.59318 -0.0260995 3.77213e-19)
(3.9817 0.0384149 -1.225e-18)
(3.98163 2.64747 2.3095e-19)
(2.48578 -0.912229 0)
(4.00402 0.253523 1.21745e-18)
(4.94319 0.297169 0)
(4.4578 -0.570925 0)
(4.29221 0.304812 -8.17021e-20)
(3.92124 0.0713116 5.75349e-19)
(-0.107577 0.288378 -3.80494e-18)
(4.42703 1.06257 1.9328e-19)
(3.09455 -0.877497 -9.0053e-19)
(4.27773 -0.0969866 9.87714e-20)
(4.11701 0.278483 4.00809e-19)
(4.11815 -0.883273 5.3736e-19)
(5.45182 -1.35906 0)
(5.40733 -1.19874 7.27392e-19)
(3.00181 -0.345919 0)
(0.677339 4.96713 1.76911e-18)
(4.64201 -0.117605 0)
(3.15546 -0.09139 1.40343e-18)
(-0.584027 0.425411 -3.02359e-18)
(4.86842 -0.699387 0)
(-0.477892 0.144484 9.53384e-20)
(5.0964 -0.666889 -6.2278e-19)
(6.34299 2.34157 -8.54934e-18)
(3.84721 -0.601774 2.20205e-18)
(2.92902 1.13659 -1.38347e-18)
(3.06471 -0.87066 -2.5848e-18)
(6.14465 1.82311 0)
(6.28834 -4.51387 3.21003e-18)
(-4.48113 3.37927 -9.95696e-18)
(4.00516 0.278547 0)
(3.76232 0.273919 7.3898e-20)
(5.38367 -0.099664 -6.03711e-20)
(5.02389 1.8175 0)
(4.00549 0.0134829 0)
(-4.56474 2.2549 0)
(-1.85223 -2.27762 3.47678e-18)
(8.12177 -1.91205 2.85708e-18)
(7.17854 0.423426 2.05854e-19)
(4.32913 1.56681 0)
(3.69415 -0.443486 1.60164e-18)
(3.8425 0.134313 7.76508e-20)
(4.42001 0.98211 -4.38482e-19)
(-2.11132 -2.51407 1.89256e-18)
(3.86927 0.177388 0)
(3.84301 -0.342898 0)
(1.98743 -0.532792 -1.56362e-18)
(3.27331 -1.05482 -6.06662e-19)
(4.11528 -0.343237 0)
(3.75912 -1.77604 -2.41497e-19)
(2.83919 0.138355 -1.21685e-19)
(3.8562 -0.199574 2.57869e-21)
(2.17956 -1.03692 0)
(3.00062 0.217238 -4.57506e-19)
(6.15366 -4.15482 1.59048e-18)
(4.93041 0.260456 4.91182e-20)
(4.23144 -1.17274 0)
(-0.1658 0.590603 -6.63432e-18)
(4.82158 -0.411212 2.76724e-19)
(3.99625 0.1032 2.47375e-19)
(2.96619 0.29173 6.93361e-19)
(4.89261 1.16351 0)
(3.4802 0.4024 -8.96735e-19)
(5.73617 0.832643 -5.22218e-19)
(1.01266 -0.608995 5.18554e-19)
(4.01708 0.0635302 0)
(-2.3578 -0.899377 -5.14925e-19)
(1.51937 -0.489681 0)
(4.01547 0.0622281 -9.69396e-19)
(3.98968 0.0599307 3.98257e-19)
(3.86117 0.0129608 -2.05168e-19)
(-2.3155 -1.84615 0)
(4.49316 0.0763763 -1.71704e-19)
(2.51475 0.478445 3.10097e-18)
(5.35038 -1.31242 0)
(3.47022 0.0109284 1.17542e-18)
(6.05343 -0.381323 1.21659e-18)
(4.42324 -0.00137849 0)
(-3.86982 -2.76332 6.60414e-19)
(2.58475 -2.80325 -2.56066e-19)
(4.91882 0.0299968 0)
(-0.214385 0.620836 3.96555e-18)
(3.73941 0.26457 0)
(4.06125 -1.80734 4.81638e-19)
(-3.64616 0.971915 2.30026e-18)
(3.78233 -0.407672 1.04757e-20)
(4.6971 0.271521 1.10956e-19)
(2.99007 0.280833 5.77789e-19)
(3.85105 -0.646076 -8.13871e-19)
(2.66614 -1.1513 1.40196e-19)
(4.08298 -1.78119 1.27942e-20)
(4.53568 -0.30717 2.30378e-19)
(4.87022 1.16781 5.10322e-21)
(4.87224 -2.07675 0)
(3.99536 0.0198549 -8.86191e-19)
(-1.3045 -0.317128 -1.3313e-18)
(3.06156 -0.350701 0)
(3.59919 -3.17474 -1.64396e-19)
(2.35083 -0.358824 0)
(2.87421 -0.923056 2.25599e-18)
(4.84809 -1.63408 0)
(2.68545 0.0701995 -3.22971e-19)
(4.55022 -0.0968771 -4.25958e-19)
(-2.01212 -2.42807 7.96478e-19)
(-4.76705 2.30984 2.86426e-18)
(4.67126 0.0140025 -4.30162e-21)
(4.00221 -1.86543 -1.57198e-19)
(4.00278 -1.1154 6.77105e-19)
(3.33942 -0.814319 0)
(-1.79539 1.21774 -2.27388e-18)
(5.49704 -1.10212 5.54063e-20)
(-1.93008 1.45653 -2.72589e-18)
(3.89969 -0.253105 2.32833e-21)
(3.3259 -1.31481 0)
(4.3762 -0.0194034 -6.47875e-21)
(-3.8024 2.44565 0)
(-3.42405 -0.246764 2.71411e-19)
(3.90314 2.43681 -4.02758e-19)
(5.32206 0.924812 0)
(4.63485 -1.02245 1.16861e-19)
(3.53205 -3.09615 0)
(5.06631 1.63313 0)
(3.77979 -1.75557 -6.39132e-19)
(3.14059 0.385016 8.90074e-19)
(3.73033 -2.82348 0)
(3.70636 0.197185 -5.48601e-19)
(7.16869 0.657148 3.24764e-18)
(-4.11227 1.99494 5.84562e-18)
(4.97347 2.27262 0)
(4.27437 -0.0531693 0)
(-4.32466 3.57276 -4.45958e-18)
(3.94899 -0.251037 0)
(5.37974 0.126954 0)
(-1.96669 3.23645 -1.61258e-19)
(4.50329 -0.666811 -7.30641e-19)
(3.87746 -0.933737 6.32821e-19)
(5.91316 -0.635813 1.26131e-19)
(-2.12731 1.57371 5.01888e-18)
(3.98861 0.0595345 4.51342e-19)
(3.41065 -0.871794 0)
(4.21318 0.73512 -2.19082e-19)
(3.17931 -0.589398 0)
(4.2652 0.047489 0)
(3.99047 0.126563 0)
(4.27686 0.272346 -6.68304e-20)
(3.87999 -0.13411 7.05504e-19)
(4.92035 -0.243581 -1.68556e-19)
(3.4988 -0.872109 0)
(-0.401059 0.468387 -2.86468e-18)
(3.91148 1.69509 4.61518e-19)
(4.27294 -1.47581 4.83755e-20)
(3.12805 -0.159147 2.76846e-19)
(5.03049 -1.39623 1.1082e-18)
(4.15165 0.0701494 -6.94756e-19)
(-0.546679 0.350988 0)
(4.73285 -0.349293 0)
(3.00763 1.17903 0)
(2.9381 -1.31946 -1.60782e-18)
(1.62161 -1.57358 3.67306e-19)
(6.27849 1.37941 0)
(4.25568 0.755999 0)
(4.23304 -0.556429 2.62569e-19)
(3.99082 -0.0128415 -1.59057e-19)
(3.76628 0.913716 1.1012e-18)
(5.14269 -1.99397 0)
(-3.21829 3.47662 -1.23781e-18)
(4.53052 0.111033 2.4833e-19)
(3.20293 -0.986341 -1.48335e-18)
(4.30981 0.0967707 -4.08324e-19)
(4.40778 0.99115 6.29531e-19)
(6.25792 -3.75272 1.58831e-18)
(2.89375 -1.32548 2.79025e-18)
(4.28934 -2.1156 2.6055e-19)
(3.98077 -0.360723 6.26755e-20)
(3.99777 0.0127464 -2.15956e-19)
(3.47314 -1.5788 -4.60973e-20)
(2.31454 -2.33266 1.47952e-19)
(3.02617 3.10515 -4.32168e-19)
(3.70535 -1.74165 1.50078e-19)
(5.51324 -0.282388 0)
(7.36606 -3.84036 1.03182e-18)
(4.31434 -0.0530707 -1.01273e-18)
(5.38136 1.24043 2.37887e-19)
(3.14841 -0.927094 -1.36326e-18)
(4.21813 -1.41318 -5.88579e-19)
(4.05947 0.00868988 1.26537e-18)
(5.30795 -0.0632717 -7.15379e-19)
(5.55902 -2.80825 4.03259e-19)
(5.51982 0.0585603 -4.78079e-19)
(2.71671 -0.56849 -3.1775e-18)
(4.35226 -0.0172332 -8.45872e-19)
(2.70096 -0.672075 0)
(-0.523527 -2.3597 -1.65665e-18)
(4.24264 0.0526616 1.62164e-18)
(2.34515 0.0504784 6.40237e-20)
(-0.741626 -0.544969 0)
(4.38139 -1.96035 0)
(3.98946 0.645735 9.68712e-19)
(2.48124 -0.568909 1.99492e-18)
(3.37858 -4.69333 -2.17193e-18)
(4.97183 -1.39991 -1.88812e-20)
(4.87454 -0.46621 2.85888e-19)
(5.81882 1.14384 0)
(4.00625 0.711605 5.39129e-19)
(1.70549 1.78293 2.98495e-20)
(4.62013 1.72035 -1.18826e-19)
(4.2292 -0.496706 -8.4977e-19)
(-2.36293 1.68254 -8.13915e-18)
(4.95097 -1.33044 -1.03584e-18)
(5.52451 -1.3212 4.63683e-19)
(4.24093 1.93174 0)
(3.75219 -1.09221 5.63668e-20)
(3.88166 0.00888732 1.8568e-19)
(3.63109 0.15015 -6.2695e-20)
(2.25512 -1.09863 2.59724e-18)
(4.1793 -0.504651 1.27079e-18)
(2.84785 2.65578 2.03535e-19)
(-4.33652 2.09215 -3.41507e-18)
(4.40594 -0.311507 -1.4092e-19)
(4.35488 -0.0354729 7.57005e-19)
(-2.55726 3.42744 -7.89752e-19)
(4.47733 1.59982 5.39845e-19)
(0.157074 0.200512 -4.29742e-18)
(2.72455 -1.32173 -7.98786e-19)
(3.61077 0.081547 0)
(3.29739 -0.132368 -3.21011e-19)
(-2.75457 1.79759 -2.92277e-18)
(3.00382 -0.506197 2.84735e-18)
(4.09711 -0.425289 0)
(3.55156 0.667218 9.29708e-20)
(2.80371 -1.18274 6.39414e-19)
(3.99236 0.0453345 -1.94391e-18)
(-5.02401 3.16491 -3.6901e-18)
(4.47567 -3.29128 -1.75651e-19)
(4.5329 -0.193449 3.96077e-19)
(4.40893 0.0993515 7.10045e-19)
(4.12993 -1.83083 -6.04937e-19)
(4.67877 -0.319651 2.30293e-19)
(1.71321 -2.31384 -3.45229e-19)
(4.25121 -0.0410283 9.5056e-19)
(4.24998 -0.0852751 -4.33927e-19)
(4.1964 0.137428 -1.77123e-20)
(4.71659 -0.0127928 -8.88425e-19)
(2.72129 -1.21022 -1.23917e-18)
(4.04447 -0.34686 0)
(-1.59515 -2.46318 1.98729e-18)
(4.26338 0.0807163 1.34317e-19)
(4.41903 2.339 5.10299e-19)
(4.7731 0.0502296 1.39807e-19)
(4.78859 -0.580591 -2.32419e-19)
(4.00061 0.0261356 -1.59684e-18)
(4.1128 0.487281 3.04217e-19)
(-3.81396 2.39902 -4.05073e-18)
(5.37713 0.129494 0)
(0.987188 4.63894 1.60012e-18)
(5.11127 -0.501145 2.88698e-19)
(3.3429 -1.28108 0)
(4.18745 0.109777 6.08948e-19)
(5.39151 -0.381674 3.74097e-19)
(5.19834 0.112641 6.05012e-23)
(6.48505 -1.59137 1.20854e-18)
(2.81251 0.491553 0)
(3.62571 0.483607 1.66583e-18)
(2.75235 1.44453 2.14753e-19)
(3.59442 -1.70068 4.79104e-19)
(4.22561 -0.318847 0)
(3.14321 0.319482 -2.56393e-18)
(2.69348 0.583813 9.93019e-20)
(4.56359 2.38196 -2.26087e-19)
(2.74209 -0.602746 3.04993e-18)
(5.22921 -0.00850775 2.53136e-19)
(-5.01169 2.53153 2.49807e-18)
(4.0322 -0.210998 -1.02687e-18)
(5.45595 -0.98826 -1.03717e-18)
(3.68047 0.16628 -1.14749e-18)
(4.37662 -0.0269297 0)
(4.00084 0.0218801 -8.12849e-19)
(1.03398 -0.38177 9.14338e-18)
(-0.793301 -0.315041 0)
(5.61018 -2.21007 0)
(3.63854 0.142853 0)
(1.07773 -0.628375 0)
(4.04255 0.470924 0)
(2.60346 -0.54731 0)
(3.95523 -1.79296 -2.89793e-21)
(7.35624 -0.0461704 -1.77007e-18)
(4.91726 0.609006 0)
(3.59482 0.447037 2.52944e-18)
(5.36448 -2.95217 -7.87498e-19)
(4.10339 0.286501 1.67314e-20)
(-2.53877 2.28701 -1.43556e-18)
(2.5776 -0.148098 -1.73063e-22)
(-4.34081 2.64239 3.29435e-18)
(3.62013 0.0232037 -3.04243e-19)
(5.13535 -0.0800231 4.46493e-20)
(4.00426 0.436706 -6.57696e-19)
(3.80587 0.222284 -1.56166e-18)
(3.82303 1.56386 -9.4981e-19)
(6.00977 1.82471 0)
(-2.41957 -2.85031 1.37001e-18)
(2.92341 -0.963645 -2.48145e-18)
(4.01789 0.0236796 -2.46043e-18)
(5.51531 -1.19057 9.56051e-19)
(4.52016 -0.00192789 1.50521e-19)
(6.5941 -0.642681 -1.76076e-18)
(4.56044 -0.453651 -7.75598e-20)
(4.65322 -0.984397 -3.96855e-19)
(4.03104 0.226632 6.92614e-19)
(4.47649 2.85214 0)
(2.47503 -0.938727 1.60367e-19)
(3.55617 0.000490185 -3.4695e-19)
(5.46941 0.623729 0)
(1.76109 1.67078 0)
(4.34681 -1.91425 -1.94075e-20)
(-4.77086 2.05637 2.57693e-18)
(3.88318 -1.73963 -1.20567e-19)
(5.4579 2.40624 0)
(3.95193 -0.134392 -1.41358e-18)
(3.69314 0.27631 -3.03464e-19)
(-1.33977 -2.1892 1.08329e-18)
(5.37763 0.0109357 2.62523e-19)
(-4.59661 2.76847 0)
(-1.96106 -3.2605 1.12901e-18)
(5.1966 -0.185988 0)
(3.74728 -1.11416 -7.97632e-20)
(3.98405 0.142787 -1.80435e-19)
(4.00045 0.0149906 1.96052e-22)
(4.52522 1.09838 -8.74505e-19)
(4.9576 2.0785 -1.02125e-19)
(3.89944 -1.07357 1.45729e-18)
(-2.11732 2.36038 0)
(3.41206 -2.45846 -3.56185e-19)
(4.64429 -2.31803 0)
(5.01873 0.592486 -5.7487e-20)
(-1.6047 -2.12995 2.11224e-18)
(5.31379 -2.1367 1.14908e-18)
(1.26379 4.26666 -1.38518e-18)
(-1.67988 -1.39155 -6.27331e-18)
(3.22175 -1.55731 -5.55957e-19)
(3.00326 -0.96783 -1.39229e-18)
(5.77976 -3.87182 5.22707e-19)
(3.72476 -2.37523 2.94092e-19)
(2.77208 -1.23737 1.02499e-18)
(3.10817 -1.01463 1.53475e-18)
(2.28128 -1.66044 -4.43097e-19)
(4.05259 -2.90906 -3.92564e-19)
(4.16335 -1.23974 6.22073e-19)
(-0.723992 0.502102 2.04511e-18)
(4.78852 -0.0601705 1.41803e-19)
(5.65485 -2.78179 6.73152e-19)
(4.48314 0.686534 -2.74773e-19)
(5.18083 -0.782912 0)
(1.03823 -0.600593 -4.71463e-18)
(4.19126 -0.0416809 -1.14366e-18)
(3.98126 0.1423 0)
(4.96844 0.527628 0)
(3.76142 -1.57358 3.66618e-19)
(6.01655 -1.10619 -1.3885e-18)
(4.65508 0.361952 -4.06058e-19)
(4.48503 -0.663482 9.50559e-19)
(3.80384 1.51321 8.1978e-19)
(3.08093 -0.0156211 8.00553e-19)
(-1.77503 -1.92731 -7.42089e-20)
(3.58722 0.932453 0)
(3.16283 -1.06466 1.47035e-18)
(-0.63109 3.20334 6.77735e-19)
(-2.38332 -0.665875 4.72229e-18)
(3.93215 -1.46322 2.20325e-19)
(4.61914 -2.06131 4.18761e-19)
(3.63859 -0.0178442 4.4349e-19)
(1.76748 2.97964 1.9926e-19)
(4.52071 -0.906446 2.8726e-19)
(-1.95005 -1.83119 -1.68716e-18)
(4.62069 0.352334 3.08247e-19)
(3.95334 0.0434002 6.08935e-19)
(2.69039 -0.675543 -1.26139e-18)
(3.94766 -0.210133 8.63615e-19)
(5.8703 -2.96537 0)
(4.63382 0.654204 3.76167e-19)
(3.99395 0.0349319 1.36954e-19)
(3.2952 -0.754823 -4.67946e-19)
(3.45387 2.78948 -3.04589e-19)
(4.0929 -1.2195 4.96368e-19)
(4.21432 0.04591 2.49822e-19)
(3.02245 0.00192283 -1.94314e-18)
(5.50371 0.460149 0)
(1.31077 4.62829 -2.69579e-18)
(4.34767 0.130291 5.56764e-19)
(3.70043 -0.198088 0)
(3.07466 -0.182095 1.088e-18)
(5.35523 -0.00492635 0)
(3.31329 2.74909 1.56423e-18)
(5.08071 -0.0231155 0)
(2.52583 -1.13031 0)
(4.81041 -0.0721324 1.70734e-19)
(4.60461 0.273939 2.73556e-19)
(5.55659 0.32464 -8.21943e-19)
(3.87664 0.151095 -7.17874e-19)
(3.13734 1.79462 -6.27681e-19)
(3.98856 0.11289 -3.08295e-19)
(4.08995 0.482837 0)
(1.72907 1.41098 -3.03708e-19)
(4.77186 0.252618 -9.28029e-20)
(3.60892 -1.17026 2.11762e-19)
(5.16581 -0.785633 0)
(5.44182 1.2086 3.88026e-19)
(3.99268 2.68736 -3.59102e-20)
(4.87473 -0.0409685 5.91307e-19)
(3.01094 -3.84089 0)
(-1.45155 2.87923 4.88239e-18)
(4.05479 0.211256 0)
(4.58909 -0.771176 -1.32429e-19)
(0.404633 -0.395743 0)
(4.80071 1.02074 0)
(3.79946 -2.15487 0)
(4.723 -1.63883 0)
(-2.40981 3.89756 -6.14089e-19)
(-1.19162 -3.04679 -7.15018e-19)
(3.86269 -0.115125 -1.06503e-18)
(-1.8971 -1.95628 -1.13707e-18)
(2.93315 -1.28002 0)
(0.049878 -2.40227 -3.82901e-19)
(0.198775 -0.497101 -3.46788e-18)
(3.6176 -1.68047 0)
(3.3461 -1.20191 -1.48764e-18)
(0.782558 -1.67416 -5.47905e-19)
(4.45985 0.662113 6.91898e-19)
(6.02356 -1.60707 -8.52031e-19)
(3.78892 0.198352 0)
(5.18391 -1.34941 0)
(6.17326 0.721832 4.75382e-19)
(2.03382 -2.18969 4.17325e-20)
(6.325 -4.2046 -3.18975e-18)
(3.88763 -1.6617 -6.50762e-20)
(3.99635 0.00753294 6.01768e-20)
(3.26937 -0.165296 1.35056e-20)
(4.02566 0.230288 9.97768e-19)
(1.81873 4.33985 1.65962e-18)
(4.23296 -1.07177 0)
(-1.04188 1.24784 0)
(4.57484 -0.281712 0)
(2.39979 0.239859 0)
(3.80039 -0.72108 6.02916e-19)
(5.33097 -0.0960629 0)
(-1.8812 3.69546 9.00762e-18)
(5.47842 -4.24151 -2.20715e-19)
(3.05446 -1.04282 -2.3349e-18)
(5.75193 -2.81602 3.63188e-19)
(-1.3082 -2.61452 -1.16284e-18)
(-0.682589 3.67165 -4.06562e-18)
(4.19557 0.0688408 1.97485e-19)
(-2.33836 -1.16984 -1.90949e-18)
(1.49971 4.28274 2.90805e-18)
(4.98701 -0.0347456 0)
(5.03932 -0.148243 0)
(5.1667 -3.6435 0)
(4.80002 -0.613018 1.11709e-19)
(3.8714 -3.05998 0)
(3.63815 0.925634 0)
(4.00299 0.00957659 0)
(3.91783 -0.944863 5.84525e-19)
(4.10438 0.274587 -1.01141e-18)
(5.63129 -1.00246 0)
(4.03206 -1.67161 -7.64685e-20)
(3.95303 0.222306 -9.04716e-19)
(4.64953 1.53686 2.33494e-19)
(3.65635 -1.68724 7.61249e-19)
(3.75291 1.04663 6.27954e-21)
(3.15463 -2.5971 -2.26142e-20)
(1.66871 1.97851 2.1772e-19)
(3.16718 -1.64992 1.42895e-19)
(4.58018 0.282615 -3.62079e-19)
(6.71738 -4.52193 -5.2261e-18)
(3.74951 0.0536535 -1.07539e-18)
(4.22924 -0.0378182 0)
(4.27229 2.11435 -4.02223e-19)
(3.96359 0.0438602 1.12339e-18)
(2.14966 1.19308 -2.05234e-19)
(4.52751 -0.439511 -2.41251e-19)
(2.53785 -0.605501 -2.18663e-18)
(4.5991 0.239346 6.00646e-20)
(5.76689 0.807324 7.47774e-19)
(3.99 0.104297 0)
(7.39181 -3.65313 1.25181e-18)
(5.51598 3.2157 -4.89234e-20)
(3.15352 -1.46792 -2.57391e-19)
(-2.22048 -2.77255 -2.09655e-18)
(4.12032 0.0271487 5.37491e-19)
(4.28453 -0.363229 -6.81852e-20)
(5.14769 0.00625409 -1.90954e-19)
(4.70199 -0.260904 0)
(3.0046 0.0608099 0)
(3.38832 -1.61572 9.87185e-19)
(-4.93512 2.9137 4.03487e-18)
(3.41305 0.105959 -1.09165e-20)
(3.96232 0.0460537 2.24187e-18)
(7.08203 -3.14985 -3.46635e-18)
(3.09979 0.272753 0)
(3.7064 0.0657775 0)
(3.55423 -0.83648 -2.08465e-20)
(4.68095 0.0247751 2.81586e-19)
(3.83218 0.994071 1.51405e-18)
(4.47836 -0.011202 0)
(3.94493 -0.067878 0)
(4.78159 -1.09952 3.18474e-19)
(4.17482 -0.30497 7.2637e-19)
(3.98072 -3.17805 -1.24395e-18)
(3.31322 -0.0730023 0)
(4.49617 0.872763 4.8305e-19)
(4.47404 -1.67399 -1.3237e-19)
(-3.28011 1.68143 -3.4779e-18)
(4.10346 -0.054542 -1.10167e-18)
(7.05775 -0.034343 0)
(6.19099 -0.996172 1.10402e-18)
(4.22152 -4.23921 -5.37413e-18)
(1.4864 -1.69909 0)
(2.83534 0.232579 -2.21495e-18)
(3.88928 0.109536 -7.45265e-19)
(2.43286 0.125535 -1.11023e-21)
(4.06416 0.325841 8.02405e-20)
(3.39859 3.12005 1.10288e-18)
(4.16593 0.0407144 0)
(2.53321 -0.971355 -2.04633e-20)
(7.00077 -3.34066 2.76064e-18)
(4.87314 0.662941 -7.23944e-18)
(4.02823 0.42942 7.82687e-19)
(-0.690673 3.89331 7.45729e-19)
(4.14283 0.0301029 -2.47476e-18)
(3.07635 2.57459 -8.56358e-21)
(1.2839 2.96829 9.79134e-19)
(3.82887 -0.871632 0)
(4.20545 0.629555 1.48566e-18)
(2.71284 -1.26644 8.1327e-19)
(4.50855 -0.0979455 -8.47957e-19)
(3.99849 0.0343264 -1.00387e-18)
(4.43611 -0.74579 9.2485e-20)
(3.60176 -0.446379 2.41377e-18)
(4.67266 -0.053821 -1.64381e-19)
(3.68086 0.0868625 6.44262e-19)
(3.75419 -3.31069 -9.47896e-19)
(5.93929 -0.664404 -1.43431e-18)
(4.51159 1.70406 2.86832e-19)
(3.5417 -4.8648 1.65284e-18)
(3.90092 -0.0109525 0)
(5.57017 -4.43344 0)
(6.27516 0.494379 0)
(3.04863 -0.979934 1.79727e-18)
(4.15558 0.0679074 -1.61239e-18)
(3.66998 0.29324 0)
(3.38004 -0.788004 -1.36383e-18)
(3.66706 0.233919 0)
(3.80973 -0.644497 -9.83582e-19)
(3.6357 -1.23451 1.63398e-19)
(4.16402 -1.0192 -7.02877e-19)
(4.25173 0.0399535 0)
(3.96569 0.0308907 0)
(3.45883 -0.24182 -3.00407e-19)
(4.86081 0.489829 -5.6275e-22)
(5.09355 -0.200874 3.18141e-19)
(4.27728 2.87244 -5.04055e-20)
(4.33279 0.165613 0)
(3.94781 -1.41634 -3.68018e-19)
(-0.771556 -0.218653 0)
(2.05441 1.25369 -1.21421e-18)
(4.99438 2.05817 0)
(4.2475 -0.345339 1.41091e-19)
(2.71659 -0.531349 8.35e-19)
(3.33099 -0.409793 7.94022e-19)
(3.50834 -0.00367192 2.69982e-19)
(4.8791 -3.96752 -4.52544e-18)
(4.1343 -0.361842 1.84335e-18)
(4.0612 0.461017 -1.55369e-20)
(6.71291 -0.539303 2.03611e-18)
(4.35263 -0.822844 -3.18429e-19)
(-0.518036 0.14848 1.53204e-18)
(4.93559 0.79642 0)
(4.00229 0.0362689 4.88755e-22)
(3.4576 -0.881708 0)