/*--------------------------------*- C++ -*----------------------------------*\
| =========                 |                                                 |
| \\      /  F ield         | OpenFOAM: The Open Source CFD Toolbox           |
|  \\    /   O peration     | Version:  2306                                  |
|   \\  /    A nd           | Website:  www.openfoam.com                      |
|    \\/     M anipulation  |                                                 |
\*---------------------------------------------------------------------------*/
FoamFile
{
    version     2.0;
    format      ascii;
    arch        "LSB;label=32;scalar=64";
    class       volScalarField;
    location    "7.6";
    object      p;
}
// * * * * * * * * * * * * * * * * * * * * * * * * * * * * * * * * * * * * * //

dimensions      [0 2 -2 0 0 0 0];

internalField   nonuniform List<scalar> 
13486
(
18.0969
18.761
7.89035
-96.3593
-7.45094
7.8099
-14.1022
0.361069
7.61165
17.0206
-14.1991
7.49973
18.4259
11.36
-4.30321
17.2534
-16.0643
2.06003
6.86809
17.108
-108.63
18.1225
18.5771
-8.82023
15.4837
-9.57112
-17.1695
-4.23454
-3.28907
-8.45149
-96.7779
2.83142
-6.30155
-5.31953
0.525485
8.04831
-21.0453
10.29
1.70368
9.35272
-30.1743
19.356
3.04818
15.1376
15.143
7.61074
-33.4956
-18.4168
-27.5861
0.301491
15.0434
2.65497
8.50599
11.1131
-5.0691
-6.28712
1.38849
2.12932
-6.06788
-13.5461
-13.9447
-8.97711
-21.8502
-104.779
-29.4484
-20.3208
-102.18
20.0867
7.32831
3.49427
-99.0759
-2.76809
11.3082
-2.00681
-17.6542
3.5151
-30.4005
-5.42368
-32.7688
-6.66674
1.27468
19.6173
-25.2866
7.71354
18.0468
21.551
5.38351
14.9735
16.5252
19.2671
6.3181
-1.90823
16.3453
17.7854
6.87031
-29.768
-16.5165
-109.82
9.42925
-18.6673
7.00549
11.6232
-114.932
3.01016
23.0886
-19.4434
14.7561
2.01795
-30.7843
-5.76415
4.17724
-2.54961
11.1048
5.36767
23.2664
4.69138
15.8803
-1.07987
11.4226
-41.8232
3.95262
-13.6218
8.34491
1.87837
4.28867
2.34321
4.18538
11.399
-0.640696
-37.7399
2.73165
-34.6086
-1.48874
0.531057
15.0352
16.8745
28.0512
-5.1824
-35.606
2.12017
-3.66772
8.44558
6.15411
-5.7525
4.1287
-16.4594
7.24204
28.2776
0.0534343
-1.44949
13.8498
-9.47118
5.25541
20.0189
12.4853
7.48132
-10.7082
-60.7864
7.6286
1.47718
2.95415
7.64521
5.87876
19.0492
2.61283
9.62626
12.0469
27.7852
7.21415
0.450949
-5.26631
12.4437
14.5262
3.43815
-1.70256
-68.1173
12.4099
-4.39013
14.6099
6.2625
7.67992
5.58932
4.03687
-13.7667
7.33396
-3.9557
0.618353
-5.86932
-32.1176
6.55949
-40.4934
4.87329
2.21714
23.8167
1.21615
-14.7118
-35.4323
2.55397
13.3901
9.906
-93.7486
11.3174
10.2419
-15.4572
1.78641
1.29948
-6.0181
13.4809
2.15902
7.52767
-4.96484
-13.1832
16.9843
14.8038
7.82538
-20.2586
-7.3934
19.1805
14.7871
-0.766781
-16.3601
0.0454275
2.69852
2.60122
9.10585
15.636
6.85771
-122.21
-8.14954
4.7366
7.62423
-64.0407
-4.09975
20.1353
-134.75
14.4505
-5.57229
5.60402
14.7968
5.53379
-6.74893
14.475
4.96197
13.0102
1.48193
16.0781
6.26567
-10.0479
-1.51302
15.5095
-53.3423
23.6534
3.45788
1.76116
-4.95549
-51.8005
3.49132
-22.458
-51.7706
-6.8337
17.4452
1.33179
-3.90823
-54.6177
-9.64152
-13.5961
-7.56573
-113.61
11.6403
8.52012
21.6195
14.9717
-7.20751
8.16721
15.7297
-10.0582
-3.94828
-37.8864
2.29782
7.81358
-41.2263
6.92833
15.1102
-5.67718
-13.2532
-26.1021
-3.1214
-1.74283
9.08881
11.8234
-133.581
-2.37247
6.16221
14.957
-4.42176
-6.22718
2.54364
8.08751
14.9484
-23.9056
6.24336
-6.35172
7.53837
2.57361
-16.8597
-16.7784
-79.772
6.07998
4.16123
-36.9681
5.44656
-91.581
13.7213
-1.40949
-9.24668
17.0238
-2.34795
16.6527
13.7759
-8.08275
-24.324
-1.99544
14.6459
18.1378
27.811
6.43759
0.285644
6.70222
8.002
-0.753716
15.0022
-2.93822
6.78071
21.4381
-15.5056
5.80319
23.3054
-8.95326
14.4816
1.59646
-8.02549
18.1442
-1.59546
3.83787
-15.4503
-24.8526
4.71425
22.0657
-1.03116
-1.12874
5.9762
8.17795
8.14654
-15.7304
14.8887
17.1087
-0.0419754
4.20076
3.70157
-15.4888
6.84015
7.82013
16.8445
15.006
-8.42855
1.11173
-5.79728
-34.6646
17.3629
4.45138
2.63324
4.99177
9.22732
-44.0307
9.68531
14.9432
14.6936
-0.961813
-8.49897
2.01896
11.1478
-4.89996
20.0326
21.6189
-33.7667
-4.32918
9.82357
14.403
-6.71823
-72.4685
16.553
-6.667
13.1399
15.5072
21.9583
-55.4035
-97.886
-44.0806
-9.02915
-3.66218
-7.61031
17.1234
9.24539
-78.3939
-12.7429
7.86643
17.6662
-4.38164
5.57236
18.6068
13.8848
14.0431
-5.79405
15.0735
14.6697
23.3957
-15.3966
-9.23755
-11.3263
5.4161
14.6685
-8.03277
22.2186
14.7064
5.18961
-6.18307
11.4758
15.2239
-17.1993
12.3758
18.2275
9.40813
13.031
9.09605
-12.1834
-9.0551
20.3404
0.301328
3.52622
19.8555
-21.0996
-6.84778
1.49896
-5.93214
3.63545
12.2127
23.037
18.4292
1.46668
-32.4587
-15.2047
14.6242
16.7775
0.0754005
9.23699
14.913
-47.3125
-67.3395
-5.19884
-15.527
13.9076
14.492
-7.24357
12.2829
-99.2322
15.9798
-16.3785
25.715
15.9762
10.1346
-1.50178
11.2834
-29.8729
23.1245
-1.49697
-41.4845
4.85668
5.8585
-26.0578
8.30643
14.6574
10.7151
8.51893
18.7078
-1.90884
-10.7248
14.3398
-77.5893
27.5564
14.3829
15.0717
15.0352
-61.3426
8.24554
24.7057
-11.6028
17.7994
-22.2128
11.8036
-115.442
-3.86136
2.9574
-22.2342
16.8247
4.39107
-55.9139
2.88499
7.35095
21.8555
12.1853
-3.65859
4.90226
4.68871
8.95251
-10.4233
14.9709
-7.33972
19.9708
-70.2818
2.89768
19.6196
-4.8625
9.28002
6.18115
-120.328
-60.142
6.21386
-7.32872
8.65244
16.3384
-11.8259
-13.1116
-12.1182
-29.3471
14.5227
11.3517
-15.1931
-115.221
-7.81596
-53.9076
1.12721
-30.6465
9.13806
4.94152
21.1235
-12.5838
16.9534
-18.6786
-34.4826
9.23643
12.691
-14.0003
12.7033
7.98739
-15.0887
4.22031
10.6275
-7.18839
-11.5093
15.09
15.4962
13.5463
18.4137
7.80426
14.5041
11.4706
13.8455
4.87536
14.742
-15.7764
17.0432
4.1602
-3.30353
-10.8867
14.3335
-19.4345
8.15902
22.7731
17.7245
-61.4754
-40.8069
13.3364
9.10958
9.89719
17.5317
-20.589
-14.8307
9.22112
16.79
10.7574
12.4666
-5.07365
17.864
-48.8656
5.26451
14.9278
-2.42235
-4.58252
19.8028
0.317472
7.95845
5.91993
12.4862
4.38465
17.5383
4.95722
6.44606
7.34137
9.59173
-2.84372
21.8278
11.9534
21.5415
-127.1
12.5363
9.65367
-0.428636
-7.78964
15.3542
23.2264
-18.0872
-5.42713
-0.411215
-1.87194
15.4899
-1.44765
11.7063
8.50045
-11.483
-10.5511
-9.41208
14.7258
-8.07444
14.9084
4.14279
19.8375
8.7923
0.449913
-37.095
-4.13518
12.0287
-12.4981
12.8482
-21.4986
14.2614
3.61197
2.42001
-21.6215
19.9806
1.37049
7.94366
19.2266
15.0122
-19.0072
-9.60722
5.25781
9.98961
3.48798
5.0482
-58.5526
12.4121
9.8254
11.9507
8.37363
19.6255
5.29474
-110.994
14.3228
-6.93351
7.06335
0.617398
14.6707
13.762
-16.7423
8.20302
-0.167726
8.16828
14.4958
11.9922
7.87026
7.99485
-35.4209
0.68555
18.1338
-1.72868
2.57611
9.06674
20.9945
6.57101
12.2843
21.5475
2.35369
-50.9702
11.8661
-7.75316
16.9017
4.20741
14.9003
-91.1448
0.86236
-12.1969
-0.221727
-12.7511
14.4181
22.4837
-19.2009
-11.8645
6.47951
18.3004
5.20256
13.2842
-18.1288
23.5136
-17.3347
6.43784
-0.273984
14.6719
16.4165
17.6723
3.10973
-89.8386
19.2713
14.9076
-13.4128
9.99604
-35.6569
4.27903
1.07011
14.2902
1.77591
-2.40401
17.2456
-10.8018
1.6774
-0.337664
-62.0041
-19.6163
2.29523
13.1242
17.1321
-136.221
7.58287
-21.262
-93.5261
7.96396
-8.45064
7.43542
14.9083
12.1257
9.5785
10.023
-54.2864
-45.279
-26.5643
5.47475
-139.852
-11.2761
1.28398
-38.0071
3.33033
18.6576
-52.7116
-42.013
19.2374
17.6316
-57.5347
-36.058
6.47409
-28.428
4.13073
3.59556
10.9451
-6.57875
-11.3282
13.0279
14.5718
5.91334
-43.1259
-8.08665
8.29439
4.56818
17.7004
6.61375
-128.801
18.7587
16.7844
-22.467
-39.6213
8.15959
-19.8268
7.33197
1.53643
-7.62115
-119.343
8.40535
14.7915
21.7557
12.7612
9.57931
9.47449
14.6555
16.7986
18.0239
7.30609
13.4049
21.3574
-10.8567
0.167537
10.6318
-3.15413
20.25
7.65176
20.4288
7.05139
-2.95795
7.44258
8.53118
-1.02863
15.8761
22.085
14.6289
14.0671
-32.5385
6.5753
-7.88505
-6.7785
3.84805
15.1311
4.13667
-14.7892
-14.4485
13.8682
-7.40475
-1.14503
-31.3474
-51.3003
-3.04435
-15.703
-71.998
13.9637
-129.966
17.9134
-117.36
-1.35871
9.36844
14.8663
-19.3626
11.0747
-26.8539
16.4418
-7.83629
-9.83787
-2.63938
-21.7414
-48.0154
14.9265
2.47967
14.2288
-0.823707
6.18328
-19.0759
4.88723
16.7647
12.4073
-2.42784
-15.2673
-11.0305
17.945
6.33159
-104.482
-15.7316
13.2857
-90.1208
-1.96513
7.56795
-2.9406
7.22385
0.233711
-28.5616
18.6561
14.9142
10.4272
13.4007
2.96621
-18.0393
15.1988
11.66
9.80567
17.783
-8.06767
1.16977
-6.18385
8.79712
-25.7037
15.9998
12.6819
-8.16315
14.906
0.427049
4.64045
22.8571
8.42861
-1.88299
14.5004
7.16424
2.22131
-6.87258
-105.413
13.186
5.10103
2.43497
4.94306
9.91835
11.8408
-22.1002
2.24493
14.8911
7.30617
21.1794
16.3776
14.3598
7.43322
17.4802
6.12942
9.52751
-1.26147
9.79726
-77.5294
-3.12702
-33.5481
-17.3933
-22.0586
12.1636
-12.0604
-7.87229
-13.8083
-75.1513
14.4896
15.5924
15.8092
6.54867
1.42922
14.6423
21.7503
7.5991
-8.01323
14.6327
-51.4715
12.8013
0.201591
0.907022
11.3818
2.89857
19.6888
6.31868
14.6987
-7.22209
15.378
4.1682
16.5393
-77.131
-7.12488
12.6201
-19.7302
6.0566
5.62245
-57.6978
18.3306
14.6809
17.3804
16.0559
17.3301
12.5898
-9.09286
7.19722
14.7347
14.5836
-2.71024
6.59805
-2.25859
13.8008
5.79614
8.19643
0.744139
27.79
9.19452
5.08763
21.8862
17.7486
-3.61125
-13.7264
10.055
14.3938
-36.2688
5.64312
1.61479
7.19818
14.6896
15.0981
1.25783
7.72278
15.3105
2.0954
3.41463
16.4578
5.96982
-32.8628
-13.9062
7.90108
-0.928185
15.9484
20.9465
-6.43998
-59.4021
-10.9332
4.65793
3.15953
7.50226
19.9534
2.41364
24.7471
12.3464
7.11174
13.5893
-19.8232
2.96848
-94.1233
13.2939
1.52325
2.97919
-86.0329
13.3779
15.3817
1.11391
-4.6612
-33.5232
-3.04024
8.18322
-0.323632
6.63603
6.2391
13.5755
15.0738
17.1024
9.16871
-2.2022
-5.93444
-2.07746
8.18525
-60.0671
17.9878
6.39383
-104.756
3.03344
-7.03011
7.41353
-17.996
6.71579
15.3945
3.52776
-11.028
4.07583
0.775325
-8.27985
8.31513
5.16868
7.75912
14.6892
11.8292
1.21138
14.9576
4.98231
16.7672
15.1698
13.8962
9.96701
8.84697
19.7803
25.1422
8.1168
-10.1092
14.9593
5.19108
19.8517
-1.8768
-5.73735
-17.879
7.83303
11.7915
-35.0662
14.6061
12.0452
5.73905
-23.3334
-0.586253
9.67362
22.657
-13.0135
15.3893
-9.69667
20.0906
19.688
-2.36466
3.51235
-48.5994
21.3332
6.61035
24.1634
4.70848
-2.38085
13.4701
8.28364
-14.7056
1.61409
5.3706
17.0007
3.70188
-8.46854
17.7526
17.0113
0.925475
2.55512
4.08355
12.1853
9.02333
11.311
14.4659
6.57232
-13.3552
15.899
3.12715
-7.30166
0.182186
16.5682
11.5036
-7.33916
-78.0355
2.10061
15.1071
18.7003
6.28422
8.68011
-1.45176
22.835
-19.8674
-3.16985
20.0222
14.9946
8.40093
5.11955
-102.315
-1.92863
-28.1338
-17.9241
1.43092
-78.8627
9.4587
-19.1734
-24.5906
-13.868
-30.1308
-34.9814
-7.97553
-50.3525
24.6275
15.9661
-11.1356
-33.4355
3.66026
12.1467
-2.41015
24.5943
-3.05552
-0.914178
15.048
-15.2652
-73.359
-0.301838
-1.06159
12.1168
25.4823
1.89517
-1.88585
-8.39479
7.65645
-1.63626
3.968
7.07716
15.9886
17.339
15.1257
-114.185
-2.19769
4.03712
6.87963
14.5942
6.38618
15.4966
23.6281
21.0526
-14.2342
15.0384
16.6098
-0.863783
14.1136
2.06642
20.6166
13.9226
9.48026
16.6884
14.2224
0.566708
4.51452
17.0568
-5.48137
7.30387
-8.37788
-5.00293
7.54807
12.776
2.9054
6.17465
19.4747
19.2009
0.608659
1.21339
7.45694
-39.2258
-1.35471
16.6018
16.3061
1.19757
14.7057
6.74783
5.33685
7.01359
-30.2984
-55.8065
-4.90377
25.5908
-4.75984
3.68831
18.3234
7.3125
3.89523
13.3645
7.90747
15.1371
-17.2882
-5.94718
6.63898
0.811392
-2.73887
-0.622895
22.1667
17.6572
10.7249
29.3751
18.8803
-2.3997
2.6407
-6.29012
9.01865
19.5748
-97.7703
10.1296
5.47297
-23.1678
-2.56134
13.4675
-12.8936
5.47622
16.6928
25.6484
-15.4301
5.83918
8.55282
8.21948
7.39521
-141.619
18.9602
13.6953
7.1014
13.2495
-17.3012
-15.1927
-21.6863
20.9689
-41.8703
23.9956
-55.444
8.93199
-8.01077
-10.9421
1.07584
7.64729
1.85857
12.1459
5.29904
12.2101
-137.733
-3.91172
-48.8529
1.2169
-3.62663
-11.0891
5.97248
1.01126
-84.6224
-13.5256
5.59557
6.16283
22.7475
14.8205
4.31264
6.42653
28.7297
9.93153
-21.5393
-11.9906
9.08887
15.2586
7.61171
15.949
-1.71756
-2.001
-1.12869
-2.24367
7.47542
18.8223
0.524754
-17.7082
-18.7721
21.3359
-100.273
6.74727
14.7224
-57.8943
2.76852
2.71501
-15.1015
-14.0842
-1.24129
14.9384
10.3604
14.5377
-12.4072
1.14905
-5.93135
-29.6259
-10.9205
-2.87658
6.89587
-44.9524
3.51947
-120.473
-15.1362
-8.4983
17.4951
-112.366
21.5257
-13.9936
-46.9089
2.2604
8.19438
15.1965
3.95339
19.5804
6.17635
-26.1568
-14.5735
13.6844
1.7771
14.7537
0.71356
20.6339
16.1086
-0.470559
13.2361
19.6001
8.73881
13.1675
4.36925
-61.5512
4.03227
-7.96871
0.366845
-3.77469
-4.27024
7.23409
-14.0946
7.52969
-3.11062
1.32394
-2.6757
-5.88803
20.5523
7.58179
-16.0872
8.17319
14.8627
-36.6671
-13.3169
9.24684
7.40821
7.7111
6.99397
5.93665
14.8378
14.9606
2.92411
15.8028
16.2402
10.4914
-13.1184
4.85346
12.5733
6.27215
-1.3422
-16.7662
-113.066
-1.68002
-104.366
7.12589
1.52119
5.18479
2.63251
0.286266
-17.0274
-2.78017
-43.0066
12.6926
-13.0016
15.3316
28.0367
13.5438
-52.6319
13.8793
11.386
7.44926
2.0071
-11.3028
-13.8151
7.60032
13.8983
3.85304
18.9373
1.90893
14.9486
1.85919
4.35459
-11.7999
-8.97814
25.0182
-81.5072
14.915
15.0112
15.9101
7.79785
13.661
6.42469
-5.80406
8.20241
-16.0647
-25.3126
13.9648
15.0145
-8.64585
14.8293
16.7272
-33.9513
-18.3859
5.22404
4.85805
16.6807
13.7484
16.9107
3.59494
8.19286
0.684299
-2.83454
-16.185
17.0147
23.7502
-11.4785
-21.1336
-12.2149
4.483
7.82525
8.08436
-13.3944
-5.3435
2.92677
-59.0922
0.43717
27.1141
12.9928
4.07729
-101.179
-78.2854
-10.1196
-11.123
-8.42547
-18.6992
18.2618
13.6806
-4.86097
24.1607
-14.7927
-13.5586
-55.3014
-24.604
8.95679
2.53098
12.3378
7.31279
4.21604
-12.0571
-43.2908
-22.5857
-125.85
17.0642
-17.98
1.11388
-19.5312
15.0458
13.4798
-98.2268
14.9439
11.9518
17.2512
19.8758
8.89231
7.94952
25.9254
-20.2807
5.19549
-20.6593
-8.55862
18.5613
-131.632
21.4324
13.6087
-1.04518
-30.7982
-37.985
16.424
-107.004
-43.4348
7.2007
11.7899
2.653
14.2296
10.7936
1.47643
21.3369
-0.301753
-8.95702
17.377
5.51746
16.4605
-14.3233
27.9061
2.1946
-2.15771
16.9352
3.17626
14.9279
8.26456
11.4114
8.57896
6.33973
-1.78974
9.33023
7.61002
-72.0459
16.7239
7.96241
13.6754
14.0932
-78.0148
8.11738
-12.4277
14.0395
8.09318
-3.26524
15.6211
-44.6236
15.0222
15.5123
-14.7646
18.1902
-15.649
24.8658
9.91104
-20.1366
2.42203
-25.5719
18.1353
16.3893
-29.0936
14.3879
15.9925
-9.96986
4.71704
7.69457
10.7598
-11.01
-16.4872
-4.70705
-117.688
14.9856
-17.9508
-46.2717
-17.8422
17.0838
14.8578
18.7127
-19.6614
13.667
-0.63786
7.28719
13.8261
-80.905
-75.9017
21.1504
7.83839
-24.6576
-5.31394
-23.143
-57.5631
14.9148
-15.4699
-6.99172
16.5066
0.608329
14.2822
-43.7323
5.67049
23.0704
-1.6544
16.9868
4.22516
-55.8355
12.144
7.45024
17.5525
23.0243
10.7381
7.10104
24.3473
13.6855
17.8254
-30.8483
-19.4456
-6.46609
-1.23686
-49.812
-15.5451
1.34374
-14.2835
4.69887
6.59642
-3.34204
0.227817
-63.5611
-2.58622
17.8162
-17.2157
5.65955
14.2838
14.7633
-0.991548
11.5332
-105.619
-12.218
-55.7569
-6.80731
17.8755
-10.0708
17.2799
-21.4936
14.9235
-6.51159
-7.80011
-20.5755
11.3986
14.5158
11.518
6.33552
14.9621
-1.69599
15.3204
20.3014
-13.3112
-9.34916
-40.9624
15.752
10.3054
-15.3797
-11.2657
9.16357
-0.455294
3.09462
7.54327
-0.29108
9.62796
14.5398
10.1722
0.735796
-13.2777
18.5304
-78.1842
12.8414
-10.0346
15.1418
11.9503
14.0921
7.20063
-35.2887
-140.644
-4.57826
-3.18971
-124.978
-19.1593
7.47634
-67.6144
15.4351
8.72667
14.8767
-64.7745
-6.91704
-4.83971
1.69445
11.9189
-14.3474
9.68238
7.41731
-12.1259
-51.1596
-81.2321
6.61515
15.084
-0.124535
7.85138
3.31416
8.87364
-38.82
3.85419
-16.3654
14.9461
5.92393
-4.18264
13.8877
8.60265
12.7158
21.3385
20.2528
-0.353858
-1.82964
-46.1978
3.36929
14.2581
7.33463
-29.6924
-4.8796
-25.0476
-1.31062
6.50743
-26.4947
26.0904
4.0195
11.2412
5.6425
-43.56
3.21991
2.90367
-1.37361
10.523
8.20467
15.7081
-4.04052
14.7383
-6.16901
-15.9798
-74.6222
-2.77714
-4.60845
10.65
22.6914
14.4599
-9.42668
-27.2728
16.6967
-18.9797
-50.4352
3.19482
-1.16576
-13.4184
-19.2036
-5.07671
-4.91026
6.31111
4.45201
-21.4205
7.46751
15.6999
-1.17214
-6.84249
16.2917
2.38738
-13.7519
4.66382
6.70717
5.54103
24.6952
3.22597
5.18487
1.82194
3.43299
-1.17986
8.04497
-1.69556
3.01456
7.25696
-3.17776
3.77471
-13.9974
16.7414
7.82277
11.3259
-33.1605
-4.86043
23.1087
-79.1577
11.2154
10.7064
13.6737
2.39164
5.94624
-14.8972
19.2966
15.6072
15.2051
9.80968
-105.552
16.1707
10.6809
19.7512
-11.9781
15.8934
16.264
15.5787
8.2102
-17.338
12.1475
-26.934
0.0755203
13.721
12.8099
10.0671
17.1563
7.94309
18.9256
6.63655
11.5179
9.02621
5.77274
-10.4071
14.9884
4.21918
14.4039
24.7895
15.4798
7.41302
-3.46976
5.72271
14.9525
1.9372
-9.45085
6.73923
2.81005
15.64
-90.7371
17.8984
11.7082
28.7593
20.8598
-3.17837
-6.32729
-9.49006
9.78719
20.954
7.2238
8.72175
-0.954565
27.0348
14.9386
5.87974
25.3566
2.53931
13.4566
-6.20904
10.74
2.16971
8.26934
11.2479
13.9638
3.07447
-32.7288
7.28926
-68.5898
3.74486
-28.5722
4.34743
21.2354
16.8395
6.9651
-17.7004
-1.95078
12.163
7.52267
7.12613
14.1135
-48.2921
-5.7205
-121.488
15.5088
-4.55048
-32.1202
19.0208
1.41474
5.85984
-2.50247
23.3974
-78.4257
17.2538
-19.8553
25.4061
-12.5511
1.54982
-8.47507
4.09447
8.19814
14.8241
9.91045
-26.7879
7.86292
-45.8415
15.3113
9.06408
9.1323
-79.1059
-16.952
-20.6041
10.6345
-7.6682
0.580022
-45.9065
14.9897
23.9142
-68.2873
3.45926
6.70975
-36.2255
13.4102
0.850196
-4.14842
-18.5183
-32.3425
17.4605
-49.5587
-20.2078
7.00828
-13.2913
-20.2219
11.5115
14.9479
12.2475
14.9766
22.6918
-14.7957
26.254
1.24497
24.4178
-27.7863
1.02145
21.561
13.4226
-46.1136
4.19962
3.05782
7.18135
-78.9131
-18.5993
7.95737
-5.42818
-8.16151
-15.6536
-6.47324
12.8672
10.6452
-14.8797
13.0145
-7.04374
5.28468
-74.6606
1.90112
4.52303
-71.5396
-2.2064
23.2609
2.79323
23.7351
6.52065
-14.9493
13.677
5.67199
-7.50947
14.9736
14.051
25.2552
15.0862
16.9941
-6.88092
0.0812219
24.6188
24.0852
16.2996
4.5755
-106.216
-26.5773
7.49695
-2.13229
2.69403
20.1956
-95.6978
0.316333
-14.2064
24.0935
9.92198
10.3376
-143.142
4.87264
20.3892
27.2265
25.831
9.00421
15.5549
-5.29226
-0.373374
15.7614
26.1657
-36.3954
-10.5271
-0.105894
1.02136
7.92574
7.32383
5.33049
7.61823
8.89327
6.58263
-74.5056
12.6189
15.7152
-21.492
12.3421
-145.009
4.56722
20.3189
-9.33543
2.96998
-22.6706
13.6622
15.88
-89.9972
-24.9968
-0.286377
8.6191
27.8958
-10.1113
-18.2081
-11.9995
9.90056
-38.5639
-22.0122
-96.5223
-12.7075
-10.9177
-21.4869
6.03083
-7.40816
15.5917
4.82648
10.0644
27.1519
11.1816
7.24356
-25.2908
10.9155
1.67132
-7.68261
20.4317
13.4754
7.34957
-11.2052
11.4319
13.2425
-43.1359
-20.0628
3.38819
20.616
-2.46275
14.945
9.44527
18.2871
8.77216
-140
10.5544
14.7304
-1.78273
15.5856
2.75034
24.9569
-111.9
6.51162
-14.6025
15.7463
-109.32
-0.82259
-122.116
7.92051
-14.4434
-86.0106
-75.8131
1.84168
7.66893
-16.6197
5.56397
8.1908
-25.607
5.88588
-126.863
14.5941
23.8807
4.17339
2.09794
6.43798
7.95125
3.72866
0.979348
4.03361
-23.7549
5.01756
-17.9576
-14.4297
10.0343
12.0445
-56.8035
-11.201
6.36506
14.7227
13.765
-88.4474
7.4247
-64.6381
-18.1634
2.0054
5.59674
-91.507
17.8155
-65.5607
-9.45102
-5.28269
-11.0583
-13.1681
-13.9568
28.9579
2.80227
-4.61515
16.9656
24.0392
20.39
-126.621
-5.8324
14.7346
0.506151
5.12003
23.8956
5.28787
0.912347
28.7229
9.56252
-19.6773
10.9391
19.5991
15.1498
6.40312
20.9379
14.6891
5.4664
3.63158
13.4495
7.5903
-9.53365
22.392
16.3244
9.77564
-60.1583
-15.1309
2.13106
-144.973
-7.99836
7.48926
8.16783
16.0109
8.72919
-19.2187
21.0373
21.6341
-17.4187
6.04979
-10.8636
-6.35833
1.37234
14.5198
-66.1113
-1.19121
17.0889
24.2071
-16.2902
10.456
13.0353
12.6034
-0.54958
6.96438
-20.4899
5.46884
-9.02032
2.22218
-20.4804
-6.35527
7.07627
-109.979
13.7908
-92.5281
-2.86143
12.2985
1.5045
-140.813
-15.7269
9.46085
-5.04499
3.98599
13.0302
-5.96382
3.66562
-21.7185
-8.05075
14.0552
-14.2075
24.1417
-46.9164
26.4377
6.28997
3.45679
7.77944
15.1563
5.49047
-13.1116
-1.75171
10.2841
8.03428
1.67968
29.4299
12.5831
-5.15763
-2.85316
-1.15928
-0.616635
8.65111
-22.0269
14.6292
-132.296
-133.927
0.734125
-18.8171
5.29676
1.21517
14.3267
5.84997
20.4941
24.8025
-11.5464
-23.8114
10.0966
2.83963
21.2547
-31.6585
10.8188
12.989
14.742
-101.434
-43.9519
8.81149
2.95081
2.63096
-94.3905
-19.5924
7.3758
3.18584
-10.2025
8.83846
-9.08435
-8.1841
9.0429
-108.722
-143.69
-15.2201
0.989727
24.8815
-3.23068
15.0796
-42.2776
2.75375
8.51615
-2.80816
12.1439
-103.094
-23.6141
21.0448
13.8663
9.66492
-3.48438
26.2944
-132.572
-12.4804
-121.769
-5.34321
-107.847
-113.882
19.1769
9.46626
5.96181
12.8888
-104.377
-9.00171
5.00422
6.32046
-8.68329
9.71913
13.3829
9.52103
-78.048
-5.27184
-29.7556
-12.9016
2.76532
1.36171
25.3665
14.6415
-25.3069
-6.75485
11.6129
19.8016
-0.629227
-21.2137
-4.85818
17.1617
6.81889
-6.42011
15.6644
-24.9697
20.79
4.56454
16.2791
-13.1509
-5.16873
-79.5178
-141.007
-6.76721
12.5533
-17.1205
-94.6772
11.8095
-39.6751
8.07542
17.2152
14.8319
16.7468
14.9318
-3.24322
5.76606
9.81268
7.60419
-18.9317
11.5855
-1.43963
21.1246
-108.638
16.3343
-12.3845
23.762
-101.491
3.6926
22.667
-116.576
-2.78287
-17.0996
16.6287
22.6065
14.5645
3.70293
14.7871
13.9175
-17.0256
14.8068
-126.509
15.1804
-126.209
-80.0459
-24.2502
-24.3365
13.6778
-10.8706
-25.2526
3.58663
22.1462
10.3075
10.5333
-23.909
0.442822
-0.280646
-18.4505
14.9944
8.16863
-26.5099
25.8601
2.88131
20.338
14.7029
3.62048
14.0879
4.59861
-6.18741
-17.9641
2.69863
1.80295
7.62765
7.96325
-109.818
26.0927
16.6159
2.37506
-40.5111
7.41332
-78.494
15.6316
12.8845
7.58572
-32.6224
12.9044
8.97383
-0.421475
0.680093
-1.63007
9.72472
20.7978
-5.3317
22.7291
27.4507
23.5332
-26.8207
13.4948
-14.0857
14.5805
13.0512
17.325
9.77068
16.1756
26.9378
15.7045
-9.62908
-32.739
-24.8708
27.0165
4.14878
-29.7361
-91.1168
17.5457
21.2703
11.3749
2.63045
-0.667646
19.1932
-16.3807
7.95045
-93.534
13.1203
1.01445
-21.7115
5.05122
-16.8129
-21.5163
-74.8162
-11.5262
-22.3979
13.274
9.71659
8.13894
8.41305
-12.0143
-7.04543
-70.9856
-12.0505
-13.1364
-14.8709
15.5796
19.5513
-132.931
20.7255
15.9039
21.7561
6.52118
-16.5465
9.79346
-7.94381
17.1338
-11.6901
16.6843
15.6614
10.8614
16.8901
6.75441
14.2401
3.20853
13.4358
-3.60115
2.04925
-13.7471
0.822271
14.0049
-6.77563
-107.151
-5.42245
23.27
13.243
14.2121
2.43226
18.6261
-7.79677
8.03287
3.81209
-4.01544
8.28275
-137.106
-17.8973
1.92502
-13.7963
-6.76943
-23.635
3.23599
-22.9064
-0.91159
5.51318
22.3291
24.7733
20.4344
-11.0633
8.01721
-12.476
8.59795
20.6907
11.7048
13.8274
-3.25683
3.99548
-3.88152
8.74073
15.2567
9.17834
9.93344
-24.835
8.17321
-16.9139
14.8357
10.0458
14.7211
-16.09
8.49132
-81.3092
-24.857
-24.3033
3.20723
21.4723
-12.609
-38.1946
-96.2548
12.3055
15.017
2.70491
14.1641
-18.4426
19.0213
23.0065
-113.162
8.33847
16.5034
-117.097
-14.5067
9.53088
16.2669
17.336
-13.3964
-3.403
11.1715
22.1253
-23.2902
-23.0602
8.36067
19.144
9.23839
-3.94044
-44.1253
14.0111
14.8268
14.9499
8.1367
-10.1979
10.0144
26.3392
3.05829
1.56032
9.1115
-29.1206
9.50535
4.67784
-74.1114
-4.2603
-100.862
14.3195
-85.6822
-8.87982
13.5724
16.1954
8.70133
-4.9147
-22.0695
8.65416
-20.2769
-9.99969
-1.87033
3.85788
-18.5026
17.9871
9.21117
9.49511
6.87993
20.1586
-58.8057
-0.22318
14.5187
-21.7604
14.9014
5.3131
2.56588
-15.2976
15.2674
-10.3684
4.39149
-3.42635
6.93692
14.3112
-13.7771
5.53959
-96.4169
-23.2149
14.4835
-20.1363
23.3211
-15.6156
-21.7367
-49.2258
16.796
9.6427
12.9756
-30.5462
18.8356
-5.01122
-1.70854
8.28695
-17.6656
15.5546
4.48595
-0.961884
1.30595
-16.6978
14.9638
-13.8476
-119.4
5.11596
-10.394
-14.2185
3.2361
20.3105
4.84541
-13.1174
13.0499
-13.1587
17.0343
-14.3152
9.59908
18.1854
15.4034
3.92723
-63.4179
-26.6992
8.99432
12.8424
13.7971
-15.111
-111.534
3.41519
-8.24073
14.7423
27.6408
8.23395
14.2789
16.8545
12.0456
15.6431
-4.58834
-39.3869
-88.6825
14.6194
26.7948
8.8613
3.47223
14.7489
2.76683
3.98258
3.78106
9.67231
5.59469
23.3549
-39.6678
-8.34125
25.1705
14.9956
5.97518
10.2342
13.38
6.68337
-77.0189
-55.6969
10.0526
0.805888
2.00351
13.4003
-72.8631
-41.6285
-17.1219
7.22164
7.76376
9.69112
11.2711
13.2534
13.5756
2.03532
10.1283
8.43569
22.1855
18.0644
-5.40835
3.29349
2.69962
15.8434
9.45513
7.04009
3.35236
10.9616
-7.3242
20.2672
11.0543
1.42579
-17.4349
9.96974
11.4637
-1.53129
15.73
0.313781
8.00285
-45.4517
7.87127
-48.41
7.25174
-3.65127
-58.9531
-7.49964
-15.7776
17.548
-72.7343
-3.44002
-54.5679
21.0679
-43.8892
6.40638
12.5423
-26.1128
18.1094
15.113
-3.52538
15.5981
7.34161
9.43386
-24.2608
-21.5082
2.4837
18.1227
7.63955
-13.7328
-24.7169
-50.5007
-9.81559
-65.71
-19.4705
-3.05355
12.7082
14.8103
12.0857
-54.9875
-1.31045
16.0136
13.0475
-13.5596
13.0353
-26.046
0.314314
8.47395
5.74101
14.9133
-30.0843
-43.6615
-49.8938
13.0902
-6.05098
-20.5774
7.5351
-12.7772
-12.2616
-25.4352
-32.9685
7.85292
-30.7777
4.06144
-12.5292
15.3965
15.1705
-1.91976
17.1052
-25.4475
19.8694
-9.83208
9.78064
3.22191
10.4577
5.85611
0.858982
-36.5888
15.6095
18.0126
21.1652
-15.4972
-10.7715
-33.1379
-2.91971
3.02946
-16.8773
-14.6702
-24.7309
5.82654
-13.685
-2.51456
-24.8753
1.04426
18.9823
6.71004
11.5335
3.76864
-2.75445
-9.7455
20.7257
24.4649
0.211406
10.2405
10.9422
-30.1775
-75.1255
16.6498
17.8106
-21.3871
-41.0271
-87.1283
-25.3423
4.42592
-24.3036
7.15003
16.5494
-12.1519
16.6743
-13.5724
-24.7487
15.5318
5.82105
-25.2206
10.7602
17.767
-24.9368
6.34156
-25.5159
-15.3198
-24.8039
21.5805
-36.0834
8.38906
-13.3062
12.8576
-20.0774
-28.8947
-14.6681
-15.1446
-3.44314
10.7429
-14.1225
-17.088
8.52495
4.54148
-27.873
-15.4792
-16.0538
-0.951765
3.45987
14.4327
-39.166
16.3746
-42.2058
1.59173
3.22057
1.52452
-49.8907
-17.9845
-4.33421
6.56642
12.8705
3.93936
9.35849
-4.91692
6.14912
-15.9243
15.0473
-8.39506
14.1677
-8.4417
-73.723
2.98518
30.0876
-66.0064
-24.7603
-36.4618
-6.86567
14.6965
1.94113
6.73547
-1.48077
-26.4646
-15.5645
-0.982852
-23.0835
6.89407
-17.0665
10.5138
-27.9004
8.50237
8.75234
3.11203
-8.38749
3.6923
12.5392
-13.9883
-10.5181
14.439
1.89103
-17.1751
8.94206
-11.9837
-5.10934
6.99584
13.3563
-125.223
14.2202
-8.25201
-11.1041
-14.9814
-15.5691
-12.0275
-7.51898
-57.4408
13.9084
14.2358
-7.27385
28.2596
-36.3157
17.4923
15.8692
-25.3242
13.0738
12.6855
14.9072
-1.01676
-5.21092
-7.755
-9.24375
14.5497
12.1249
-7.45883
-13.0357
-3.9226
17.99
9.57721
-2.23153
10.6449
14.4225
-0.135582
-0.82191
-4.12536
14.9582
14.6427
-3.49556
16.5457
16.3474
3.09701
-6.84836
12.7744
14.1178
9.99158
2.16864
-19.753
-5.86026
-10.8842
-5.39946
17.4918
6.70014
0.0423923
-2.33905
0.255661
-60.4417
8.89326
-9.32419
-2.48721
12.8677
14.7172
-48.3625
13.0667
3.15154
7.29322
9.06029
10.312
9.66193
-1.84329
15.3232
16.7694
14.3914
-18.0211
15.5137
13.0874
14.9654
15.8373
-16.9518
0.627181
0.899211
-4.92352
13.2541
22.5803
-23.1572
26.0897
-5.35336
2.47899
9.83435
12.8751
-11.5559
8.19858
-10.6742
-8.72556
10.6175
-141.507
-12.3233
9.50195
7.44731
25.7428
11.1028
-49.3921
-133.526
7.9778
13.5366
-86.8243
-5.6674
-23.2329
1.17903
0.11677
2.50373
14.9724
4.82563
13.2812
1.51242
5.41045
-11.3548
3.30202
6.66513
-4.59863
18.9999
-9.48602
-12.5728
17.4464
-16.6795
5.47798
13.9299
1.42004
-32.4264
16.2968
2.37218
14.2537
-5.27151
13.9487
7.68306
18.7279
14.4494
-7.16177
8.6387
-3.19967
-27.7408
0.338788
-5.01862
-38.5369
-15.196
26.1671
7.72257
-29.3688
16.2056
-83.5097
8.46071
-58.99
-18.3492
-29.1458
-18.0612
0.859352
5.04125
-48.4152
-8.91362
8.94718
-50.9878
-1.32113
-84.4229
7.12867
15.2987
-108.128
-134.73
-0.000722719
4.90463
-6.07625
13.7257
16.8801
-29.9887
13.883
0.158659
14.6675
20.914
-58.719
14.7813
5.91046
13.0012
14.9275
12.0741
-3.30365
-78.1158
12.7546
16.8935
-97.9386
-3.25413
-8.23688
-6.83804
14.1147
-12.4215
-10.0085
-24.1182
14.1359
-6.96529
7.53261
4.14187
15.5015
7.89175
-6.44074
6.91131
1.08138
-53.1632
18.9675
23.057
13.33
26.6505
17.0651
26.8663
7.83047
3.93907
19.5224
-11.3491
10.0023
8.03231
0.163446
17.7472
-3.05447
-4.49122
22.8543
10.2164
-21.2361
13.8595
13.1383
16.3972
-35.486
15.6359
23.4667
-73.0727
2.34295
-5.60875
6.4329
-13.0959
12.0652
8.01317
17.2133
14.6318
-125.915
12.142
0.911536
-17.8341
-11.3345
-67.1028
10.1554
-7.39543
14.8959
3.03734
-19.1108
7.05588
-17.7541
10.293
-17.5161
-31.3877
11.5874
11.3998
-22.392
8.57039
16.2855
7.30006
-17.0381
14.6432
2.05948
13.6561
-22.5114
16.5197
12.3018
-8.03163
0.0910129
10.9933
6.03584
12.6367
-15.2385
25.5994
-0.652305
-26.4821
11.2142
7.90227
-25.5815
-4.67198
-19.9504
-3.03327
-0.559544
-6.397
8.08533
6.59855
27.1558
7.50313
-102.184
6.89755
-4.64908
-1.99752
-7.69938
8.77196
16.5642
-12.8605
6.15213
-9.28503
-2.00925
6.3549
7.72901
15.0402
-5.94284
0.978674
-1.2731
13.8597
1.22582
6.70204
-23.1546
9.7619
3.23763
17.039
-25.0575
2.03325
-37.0665
9.83422
-20.8744
8.10346
14.1469
12.5815
17.339
-44.0937
-26.2856
14.1072
-30.887
15.7152
13.8097
9.94738
13.4488
4.71608
12.4823
8.1998
-6.29753
-10.8284
16.0759
-69.4765
15.0253
6.94184
27.3002
8.88182
11.8314
13.5476
10.4429
7.29558
13.709
2.55982
4.89356
-7.46672
1.69978
9.45939
5.23708
-4.65259
-11.1447
-15.6617
-28.3394
-25.8302
-7.78381
15.1371
1.34596
14.9535
11.1367
23.4486
22.2341
13.1801
4.05434
13.0389
-18.5124
17.4684
6.70561
10.7299
4.68176
14.5979
10.526
0.881214
-4.77094
-5.10741
5.52021
-1.69875
10.3954
14.3777
-22.3878
4.4249
-16.8954
10.3321
13.5394
1.27875
13.2597
11.843
0.283685
8.40429
12.4305
7.90893
-20.0368
16.5254
9.02796
18.446
-14.1115
15.7723
10.7295
-18.4461
-23.3805
-56.4312
-7.11944
-13.2638
-103.884
14.9146
17.8593
16.3118
16.529
14.9309
15.1015
13.5597
7.88456
13.8244
4.90813
11.2714
8.5399
-1.98677
20.9607
6.68237
-28.4991
15.2519
17.333
20.2749
-14.0849
1.54951
-9.72774
-0.668946
13.7364
-12.6076
-121.359
16.7455
23.7756
-24.2583
-14.6931
-14.1552
13.1936
7.6648
11.0859
6.90463
6.29701
-69.1871
6.78221
4.95718
-11.9049
15.58
14.9598
16.8567
-3.32468
-28.414
-1.69686
6.54441
-10.5196
-1.79579
7.22472
4.6187
-2.48236
3.9852
-7.17938
-22.1849
10.9695
-17.805
7.26238
12.1125
1.47248
0.697899
-14.3297
-36.1079
-9.16893
15.8432
7.63752
-59.1588
14.4253
17.0649
-29.8017
-4.04282
2.80607
-1.83597
-22.4413
4.54013
4.45393
-7.50067
13.5334
-6.32228
14.2692
-58.4143
6.84833
19.9288
9.03873
11.1814
8.15388
14.3435
-9.85284
15.8271
-8.59181
-0.13735