/*--------------------------------*- C++ -*----------------------------------*\
| =========                 |                                                 |
| \\      /  F ield         | OpenFOAM: The Open Source CFD Toolbox           |
|  \\    /   O peration     | Version:  2306                                  |
|   \\  /    A nd           | Website:  www.openfoam.com                      |
|    \\/     M anipulation  |                                                 |
\*---------------------------------------------------------------------------*/
FoamFile
{
    version     2.0;
    format      ascii;
    arch        "LSB;label=32;scalar=64";
    class       volScalarField;
    location    "1.5";
    object      p;
}
// * * * * * * * * * * * * * * * * * * * * * * * * * * * * * * * * * * * * * //

dimensions      [0 2 -2 0 0 0 0];

internalField   nonuniform List<scalar> 
13486
(
38.5257
30.519
0.653744
-6.49351
13.6308
-6.05536
6.23027
22.5536
26.3907
14.5601
-228.875
5.55088
40.8289
-4.81469
9.87521
15.2494
-87.2728
0.0657303
7.57608
34.6861
-5.52853
40.4482
29.9033
-43.1926
12.2713
-37.8569
-120.089
-18.6428
-0.0179241
-16.4017
-4.58577
6.82616
-37.5248
-11.5246
22.5453
-0.0390622
-0.548027
32.1926
-3.11268
25.9381
5.5483
42.5138
0.173176
12.4845
12.3023
5.34733
-68.5321
-0.00772548
-0.578781
-19.5077
21.947
-3.18047
3.96468
32.5614
-1.0203
14.2388
0.37163
-3.23515
-34.8096
-0.639891
-240.404
-0.553398
-56.7889
-5.14166
-19.1272
-0.58805
-8.35905
38.4355
26.2628
-1.22394
-8.27958
-0.410866
26.2579
-90.54
-0.402899
0.322423
-0.322141
9.66764
-86.4718
-4.78878
0.0586612
30.7062
-60.4012
0.708934
38.7079
10.0874
-3.78031
20.6083
25.4357
17.1042
4.63215
19.7135
37.0737
32.8453
27.7397
-0.00399902
-124.165
-12.8317
25.8075
-87.1746
0.0177952
-3.58593
-13.0741
-3.27082
17.1315
-86.487
25.1478
-3.33855
-83.0198
18.8507
26.5352
5.53804
32.4929
0.469647
45.3347
26.8821
12.7426
-10.7455
26.5385
-0.527257
0.125762
-227.516
28.9219
-3.2857
25.7907
-3.12301
18.551
4.5978
-9.32452
-16.126
-3.04816
-63.5203
-107.838
-60.6502
22.7211
20.5987
41.3692
19.2543
-0.507683
22.9797
-29.5689
3.44502
6.81224
-4.95019
0.563008
-93.3712
-3.52635
36.7183
-20.6955
0.073106
13.5111
9.67127
0.0512736
31.6013
6.08287
0.537718
15.7934
1.26265
29.2455
-4.6991
-15.513
29.2209
3.02743
42.1526
-3.32353
-10.0714
-0.813033
52.0064
-3.54534
-64.4337
-104.312
6.18589
16.8422
13.7099
-0.00834708
-60.6525
-7.53417
-34.4925
25.2772
6.87011
24.6921
0.489234
10.7426
-106.725
0.0844558
-18.7306
-0.0119838
-14.924
6.50667
28.6381
-0.628688
0.727865
-3.80527
33.9725
-4.28165
-219.097
-16.3166
-15.6499
35.4877
-8.11577
-4.81177
4.26716
32.1931
13.2945
-3.50137
-4.33611
-0.450084
28.0833
-3.7034
0.318605
-16.5084
-28.1674
34.2114
25.1202
-6.02718
-8.31447
-17.6112
17.3449
35.2513
-37.9317
-84.9047
-20.8332
23.4464
-16.0715
2.18718
37.9785
-10.5449
-12.6583
-7.14076
-4.04425
24.3569
-9.52358
-30.9032
43.4381
-10.057
36.6467
-12.6472
0.807992
37.0288
11.0765
-37.6207
16.7226
0.63109
35.0918
-3.1593
29.1931
11.4472
-25.8883
-74.1687
14.354
-46.3011
45.675
25.6594
-3.46393
-5.84175
-81.0302
6.65585
-8.0601
0.835855
-37.6338
28.0498
-3.03664
9.69908
-73.3201
15.2869
-109.751
-7.2117
-5.46874
24.4439
-0.393687
26.5432
24.5164
-18.1
3.8995
38.0896
-24.5711
-5.77214
-4.31609
-3.61588
-3.38405
-4.52027
21.377
25.6914
-88.1677
-200.457
-101.526
-29.9998
-9.89304
2.69485
24.5573
-8.66326
-1.98665
28.2788
22.8293
-12.0146
-13.7305
-15.7353
3.43641
26.278
6.05366
2.77634
-0.301262
-3.14771
7.18763
-0.681634
12.1423
0.539922
11.9612
-4.24418
-0.59536
-48.3732
-6.10212
-2.70657
5.55883
-247.457
20.9019
-2.30714
25.3937
28.2043
-8.0096
-0.5273
-2.04466
25.0358
33.0858
43.1797
4.94841
16.6068
21.0192
1.25228
15.5291
20.751
18.9981
4.11711
35.3129
6.00923
26.2376
47.3938
10.2596
15.0528
-3.14824
-7.65934
32.6394
15.1267
11.0254
-114.609
-0.00266767
17.1765
45.5782
-38.3091
-2.50408
16.6956
2.10452
3.6155
-130.032
26.1249
-0.294219
-92.027
18.4674
-4.07075
-27.3536
8.36061
4.21842
28.4925
24.6392
-17.3254
-0.0150034
-13.0984
-47.688
34.9835
18.5847
0.233767
17.3822
1.75971
-58.7108
-3.74325
22.0302
24.808
-2.74786
-240.476
-60.4658
24.2253
18.4547
40.523
27.6935
-52.5245
-6.0606
-0.0245531
14.7783
-90.6245
-3.02871
33.5964
-19.1956
9.64789
37.0716
37.6795
-0.330008
-6.96095
-53.9739
-88.1329
-30.8259
-89.0341
6.48634
22.9282
-3.13191
6.21139
-2.85172
32.5712
-33.5783
18.2835
29.1302
13.5839
-14.1232
-21.2324
26.2885
24.7172
31.8903
-98.3197
15.771
-102.586
11.4628
25.3028
2.34311
45.6553
15.9831
-12.8699
-14.3141
4.07253
25.5957
-118.928
0.439582
40.1114
22.8501
9.36605
2.5228
13.0849
-27.2982
40.219
-2.19297
14.1318
37.7832
-81.186
-18.4941
-58.8917
-21.4134
-7.30952
30.6425
30.7862
40.2036
-60.0307
-0.639429
-119.533
15.6032
25.7197
-19.3746
-19.5417
24.2014
-39.8537
-60.8134
-91.8574
-86.8238
-1.37396
32.4363
-0.00586803
0.895824
-5.50441
24.1984
0.039202
49.2877
37.6229
26.1231
21.7694
0.00185602
-0.0439396
47.149
-6.01937
-0.424833
-13.3968
26.4059
-100.453
3.15676
17.3601
-0.395739
-12.3782
29.4684
-34.5802
-87.6775
16.0349
-3.14455
51.469
16.1781
21.9543
27.7233
-67.8776
1.46856
41.1998
13.8899
33.3385
6.52865
5.78159
-6.27753
-4.85503
0.359893
-92.4825
26.236
26.5531
-46.1489
0.0509386
-7.05634
38.0968
30.8153
-5.9926
27.002
18.9486
-11.7866
15.8532
22.1175
-105.248
39.7424
-0.197075
-1.24321
42.1021
18.8612
-0.0537982
16.8922
-7.42511
-29.9691
9.63833
17.8356
29.1766
37.2787
-131.637
12.8002
-133.557
-0.00938676
36.4468
5.45711
-101.315
-15.2365
1.68096
0.739116
21.351
-18.9705
-19.6794
27.0375
34.9873
-3.98948
27.9811
-91.6253
-71.9309
-26.2284
8.71338
-133.097
28.1621
1.05928
-236.156
22.27
30.6623
-38.6861
-127.328
22.1423
36.235
7.37747
38.815
1.29318
16.2711
4.22554
28.2033
0.495693
35.3311
-125.064
7.33053
25.7662
-8.811
-22.573
24.8116
-83.4675
3.84231
30.9491
40.425
-8.5275
-1.84098
6.43053
2.98568
22.8516
18.0746
10.4707
-153.339
-1.59751
38.5373
2.62583
1.32295
-49.9738
40.5802
-10.005
0.600764
23.9314
20.9443
-4.90956
-7.66216
23.2917
0.875151
-3.47808
8.13545
-25.9559
39.3528
26.3368
17.7452
18.1828
0.543699
-30.2067
43.9244
6.56504
44.0953
-11.1036
24.9451
-0.148245
-91.7534
17.6075
14.0959
46.0377
-34.3355
17.8277
16.1377
-40.2331
13.8993
0.0752578
-9.21097
25.3222
-125.564
-21.1736
-28.5579
-1.67316
-9.57145
27.5267
0.0369948
43.073
25.7189
-2.42695
-68.2836
-16.0046
6.76723
-199.078
-5.10753
-90.534
36.4428
-0.00424207
0.473931
-156.502
40.7386
0.053338
4.27626
42.1779
21.9324
-85.6388
-3.86212
18.0078
0.416657
25.7971
0.611822
-11.3528
7.94207
23.1503
6.08365
20.9732
42.7392
0.570531
-30.9893
24.6999
1.58428
-7.1706
17.9599
18.2441
10.3622
-91.8943
1.03491
-2.50201
1.87982
36.3528
6.44085
0.997099
0.727737
3.77254
-4.70207
26.4383
-1.0824
25.0193
24.312
35.595
0.377757
-16.1227
43.6773
0.0518042
-37.2512
26.7682
-28.342
28.8745
0.552053
23.918
-6.0888
-74.608
-34.6103
0.0416855
-87.3912
13.0394
44.8964
-9.28794
-83.7725
-11.8007
26.7251
-1.21768
10.1383
-183.048
44.2359
-87.9815
13.0073
-20.202
14.207
25.4199
10.6012
-51.3955
-4.38867
41.687
24.547
12.3136
22.5554
3.74603
20.2942
21.0639
14.3474
-53.0315
-5.6561
31.9618
6.04474
-3.63889
22.6392
-29.4502
-9.13461
-2.32547
27.5341
27.12
-18.5049
0.473223
-77.899
-4.49588
1.20047
-9.4687
3.97586
23.8631
-1.19952
-22.0189
30.6149
-1.96816
-12.044
-2.69381
-14.376
-18.8726
-31.916
-2.61365
-109.628
25.7974
40.8304
-0.341935
-12.136
42.2355
39.5964
-7.9882
-16.8029
27.2836
-62.1943
0.633455
-0.937024
-0.301609
14.7907
-87.416
9.65785
16.4769
-12.9623
-5.87814
-41.1668
-5.27706
22.4079
11.8946
16.203
-24.5155
22.3295
38.6425
-170.607
-95.9064
29.6357
11.3453
16.1457
-3.05127
-15.8021
-27.6248
-4.86375
25.999
44.2184
28.1452
0.26687
-4.04852
25.0961
37.5049
-6.31098
28.0741
25.392
39.2138
6.48304
-2.3741
2.12035
-7.73173
38.5994
0.526279
3.73601
17.3716
-5.70316
5.67097
-4.32493
-28.8124
24.0984
23.3368
17.0586
11.5443
-90.9555
-8.84707
-8.71569
14.7586
-27.5666
-11.2527
0.377079
-114.663
-244.818
12.6445
-15.9831
-71.5196
-62.3034
-10.1389
20.1202
-191.443
-52.0118
28.5156
-8.11192
40.5965
-12.3146
-75.8249
31.268
36.6208
-0.237616
0.248538
8.1489
26.249
15.7853
-48.2277
-4.58822
-0.669516
-5.59455
23.9265
0.436693
14.329
-2.29062
26.416
-123.44
0.591513
-0.203116
31.4961
-24.9115
-232.902
-50.7083
40.2202
-0.488995
-30.5172
-256.217
25.3546
-41.411
-2.12325
4.89731
12.0486
-2.37424
18.0871
-19.2562
21.6172
24.1206
30.1995
10.4847
-1.56692
-10.4092
18.8277
-8.51917
31.6966
18.0825
-4.78677
-3.46513
-6.30918
-3.59158
-0.6638
28.8622
8.61473
2.92444
24.9422
-0.0634655
20.6051
45.5818
-4.36745
-35.086
16.7371
-3.50723
-2.32004
-6.54824
-5.55181
25.4098
0.640018
0.233367
0.442967
1.07186
33.8245
-79.1622
-0.00271103
25.0198
-2.26577
36.2794
28.9813
34.5978
5.22391
17.1028
7.27387
0.843959
19.9176
25.1375
-4.59115
-9.08805
-65.3007
-14.8642
-147.106
25.4943
-75.8485
-45.0969
-107.664
-4.7746
-0.335289
25.5083
0.0232166
4.7105
-54.6479
24.8165
45.1993
-2.8852
-217.939
13.8045
-1.58848
25.1335
-4.60796
-3.18967
31.1312
-3.46903
42.8548
17.4419
24.9719
-15.2601
33.377
0.644173
29.3098
-0.219562
-39.1757
-7.52303
-39.2533
16.7026
-2.71225
-0.479954
40.4512
24.6658
27.5604
36.6299
28.2163
31.3635
-8.62027
27.2099
24.8058
26.1188
-7.78721
-10.8133
-20.9124
-17.4058
6.16915
29.5713
-77.7992
42.952
-22.6929
0.545135
43.7305
36.7421
-8.74384
-40.9143
25.8961
12.752
2.50177
24.3809
-69.8746
-12.0607
24.7928
35.867
-3.1229
29.0799
33.0287
0.0564059
-14.7779
33.1685
10.6504
-0.709431
-151.246
0.643082
-28.2036
23.5297
19.657
-1.07163
-2.55807
-18.9775
6.2338
-2.10668
5.22263
37.3916
-2.87382
48.858
25.6204
7.41268
28.8138
-87.4262
-101.967
-35.8387
25.4401
-3.12963
-54.3383
-4.64159
11.2299
14.6009
-2.9542
19.6762
-42.404
13.5569
-0.328792
-2.33052
20.6094
7.28674
33.6466
25.8134
26.8045
24.6606
-8.72909
-31.3105
-24.7493
1.07296
-10.1731
-5.25921
20.2803
-6.81894
-1.34031
-1.04318
2.34914
-187.971
17.9133
11.8299
-6.31293
-19.9083
11.8739
-20.2017
-28.9981
2.66149
-2.66244
29.0127
18.2602
33.7863
-59.3772
22.4364
0.5422
35.8481
-0.713018
12.5794
0.464163
-5.23795
41.8135
42.6028
20.6604
15.3139
17.0831
23.9968
42.4337
18.0648
-34.628
-169.56
4.21573
-19.3426
-79.8319
24.7578
24.8666
-2.16607
8.59526
22.4799
23.1933
46.2113
-90.4703
19.6322
-88.4702
-20.9661
36.7091
-5.98849
21.4895
-6.41492
8.04362
9.34056
47.9159
-8.87279
-20.9301
11.608
3.03736
-126.88
-71.5161
0.349327
28.4205
-24.0729
15.2628
39.4456
35.9645
-4.60752
-48.872
-11.3957
3.23952
30.9084
24.5215
36.1235
14.8551
-262.393
37.9526
24.1074
-43.5954
20.2523
26.2282
32.8374
-203.764
-4.3166
0.00170257
21.1618
41.6456
12.9007
3.389
-28.6501
46.3038
-193.519
-29.1323
43.2932
21.9131
0.0630404
20.3144
-7.56537
14.6167
-13.0082
-198.001
-2.82114
-45.5982
-0.835007
-10.1601
-69.0142
-85.2083
-72.2405
5.77958
-88.2468
-50.5673
21.0044
23.2489
15.3538
-46.3339
6.23269
2.75434
-9.28824
48.4628
17.5056
-22.2701
21.7872
-12.8598
-54.0017
22.1132
22.0584
24.7117
48.8941
0.0756074
-6.03989
-42.8918
0.153103
17.9651
26.2064
-11.8519
38.3643
17.7295
26.9182
-6.30874
-4.54392
0.67058
27.0702
25.1969
28.4146
25.2946
44.6989
44.5241
-13.1462
21.8787
32.7339
-21.4508
36.2542
-2.37338
43.9116
36.0527
-0.941246
28.9177
11.8741
20.0231
0.281181
25.9314
-30.3347
22.2577
9.68003
18.3421
-6.11219
24.9109
-2.04581
5.91303
42.4333
42.2947
17.2182
-60.5466
5.11117
4.56996
-5.70099
20.1278
37.8953
-63.7752
26.1618
24.8865
11.9646
26.8077
-108.217
-6.24333
-1.20991
45.5808
7.19153
-18.9223
29.5074
-6.37456
0.480071
11.32
4.14116
18.8552
12.3274
-15.5204
14.8464
21.2647
17.7492
19.8135
44.4936
36.3446
32.6963
31.4252
41.8776
12.1105
-2.63799
-0.6034
-25.0484
41.7704
-6.89727
25.5059
23.2374
-84.3286
13.6281
28.2714
-34.4827
12.2879
16.2536
49.5056
-130.67
10.6579
-0.673136
30.1288
0.57935
-9.80401
41.1702
35.2763
25.0664
25.2652
-14.2856
13.0315
-92.0225
44.3774
-0.0493264
47.5843
-1.2923
1.83546
-93.7662
15.562
-88.4845
4.2272
-3.70971
7.2778
-3.09295
7.22353
-12.6478
-0.0138248
-7.64204
-57.2808
-18.231
-49.5769
-4.11967
-4.46757
-4.93956
-208.687
26.9603
27.4231
33.5424
24.4054
9.89654
9.33434
51.2282
24.9075
-124.704
0.0241013
-4.2853
19.0907
22.4073
38.3651
-27.7814
-27.9477
22.0305
-0.0299998
5.37784
32.1
-66.3784
-104.551
-88.1965
44.9511
-12.0823
17.7018
32.7479
-0.37397
20.357
-1.74103
-151.789
-135.061
-1.75534
16.7495
30.8594
32.1604
-53.0095
-58.056
18.1674
-105.845
-16.8904
-8.9027
4.6616
-11.5437
-4.06633
-15.2341
-133.894
-39.7904
39.6498
-5.75273
43.0479
-136.948
-5.97935
9.2809
-0.678798
36.8053
26.2249
30.6352
-3.62078
-13.2262
-163.167
35.7842
-53.2132
18.1145
-2.49578
31.1565
36.4959
-2.57746
25.185
41.4448
28.553
27.4255
-46.3337
-2.73742
10.1934
-26.6682
-3.72506
15.9556
19.7214
0.587757
-192.639
5.19395
-0.598835
23.1182
19.9727
-16.9692
43.7589
0.261294
-0.0207877
2.50496
24.13
-16.6662
0.0300763
28.061
-15.0274
0.961916
-8.07202
27.9797
24.2433
23.1953
-3.92641
23.7255
29.3526
29.0858
-12.6361
0.556453
4.88564
22.066
-28.1297
-85.5433
-26.9149
-37.3293
-7.4914
0.080894
-3.54587
0.414133
-69.8069
-20.9658
-208.567
-0.780569
-13.2091
8.17386
-129.696
27.0206
52.0237
8.02647
-7.44501
10.7199
1.58705
5.23744
0.142044
-15.8497
-90.7573
1.46497
34.1698
0.036994
40.8326
0.0974351
23.0605
21.4865
10.8356
-93.0302
16.8893
44.7261
-4.76343
24.2385
23.9971
38.2477
1.396
35.1465
28.385
-92.7944
30.0725
-134.985
-133.374
36.0599
21.8637
-45.949
2.04529
33.1503
4.50495
-29.7408
0.388978
0.540558
19.8332
12.7901
25.7758
24.6121
21.4763
-56.7623
-19.005
-11.73
25.0835
47.795
-17.7613
-179.531
-91.429
26.6928
1.11639
1.10049
12.6144
0.0614611
20.1104
-5.00972
5.1757
38.8433
9.60575
-0.0045025
-5.15605
-21.3179
-27.4325
-87.6934
-39.4331
-110.041
30.4356
12.5287
-21.2964
40.1928
-0.0135771
-165.109
-8.42278
-150.181
27.9609
-54.4768
7.09811
25.7837
-4.16102
-13.0392
-4.01023
-129.03
-10.1174
27.7351
-208.309
-2.05385
-88.4997
24.0798
27.3038
-12.9957
32.4265
30.0496
39.3705
40.0668
28.9035
3.18069
44.9211
-89.8311
25.278
5.74371
-157.819
31.0637
-22.9805
38.9861
11.1856
-32.4395
-47.0012
-43.8411
27.1928
-26.2709
-13.6004
-3.12966
-17.216
-0.154924
14.8597
3.56687
19.1577
44.9019
-70.3212
-37.2744
-12.2392
27.5509
19.2955
-25.1285
51.6487
-2.50338
-0.540571
16.6468
-27.816
23.7005
26.5154
29.5826
30.484
0.100377
14.1709
24.4159
4.44997
-14.7486
-0.146916
28.4138
28.679
35.7701
-4.29418
0.845499
14.8928
14.5477
3.66751
-101.3
20.6763
-7.26362
21.8384
26.0811
-86.7966
40.8962
-32.9591
43.5438
29.7387
-174.864
0.0802013
-0.553715
11.3253
26.92
-136.001
35.0188
23.9399
14.3482
0.40529
4.04835
-6.56902
14.3957
-83.7912
16.6568
-9.22606
24.3902
-81.4496
-0.684929
-11.4904
31.5033
37.1259
13.445
-75.7084
11.5132
-4.92309
-0.0438839
13.3194
-4.5795
-3.96496
43.1334
-14.4716
-2.52601
-29.0159
-157.757
-3.75239
24.6117
-86.86
-9.67893
26.6551
16.5032
27.369
-43.1979
11.2288
43.464
-54.8854
24.7018
7.46865
-5.41101
7.27143
4.70077
-7.86764
44.2248
29.5712
-1.56289
42.3983
33.5779
31.3254
-97.1137
-79.4393
18.3947
-34.7472
-3.06138
-75.1333
-30.7178
-67.9974
20.164
9.14037
15.8759
17.3525
-3.04031
20.3198
25.0665
-227.563
27.8391
15.167
24.574
-4.93007
-0.497095
-13.979
-84.2124
-33.3897
-11.1703
24.7529
-159.346
39.8779
-82.0473
23.7543
17.0529
-1.1254
4.88029
26.1597
11.393
4.99415
23.093
3.17974
-0.23586
37.5979
30.367
-26.9202
-94.6053
-1.24141
22.0845
-1.08265
13.0141
-52.0197
-1.65849
-5.12255
-17.4456
22.037
22.6158
2.5412
11.2957
-1.83637
-1.85289
-146.652
31.4373
-19.1287
25.1617
0.0543627
21.2927
27.034
13.775
23.894
-0.236086
-12.7144
-1.70961
-102.235
-25.841
-31.4533
-0.619633
-4.34664
19.8506
-3.35903
23.9929
-2.15152
0.0515742
-43.707
-2.29248
26.5927
-135.892
24.8262
5.55632
-86.1327
0.259561
-21.0692
17.7131
24.864
-1.79651
3.94392
-109.596
30.8266
0.627592
7.275
-108.963
32.1136
11.951
-0.108373
27.1363
26.657
31.0763
9.74618
31.4468
-59.5305
-1.92094
-4.60427
25.6975
15.6097
5.91063
2.95769
-72.0504
-116.307
14.2793
0.360248
-129.368
41.4396
-56.8249
30.8131
18.065
-13.3147
-2.68116
-9.05812
-4.48668
1.31493
2.76637
23.5978
-1.47205
25.0801
-45.132
12.9923
-3.42769
5.93317
-83.5085
32.6051
43.5471
27.8211
15.7489
6.99615
16.8271
-119.87
-0.392348
-5.00292
-5.52274
-30.9214
-196.096
-88.1924
-20.3578
22.7779
26.0722
-73.2629
5.38819
28.6573
-19.8407
-42.66
27.3166
-2.84349
-208.188
0.407749
-8.04615
0.0470065
41.1375
-5.37172
25.0126
-28.9605
-19.829
-19.7835
25.1354
6.48362
21.1978
-21.3298
-24.9425
-7.71936
4.16486
29.3078
22.2047
3.47002
-3.41476
-11.9853
45.395
-4.1788
29.1561
32.6004
-1.09117
-3.33584
11.1137
-83.139
-31.4235
21.8316
14.337
24.5127
-34.6794
27.681
1.46892
36.3158
5.40396
22.3545
32.1609
20.7817
4.17999
-90.5858
6.93944
-128.532
22.9644
10.9087
30.9239
0.752483
39.0951
3.54498
41.885
-0.853704
32.7551
-5.1372
18.8311
-194.952
23.8208
11.7999
10.508
37.9743
24.9827
5.63152
-18.6307
14.0716
23.342
-2.23425
-88.2622
18.0077
-23.8322
33.2045
-14.1126
39.9718
5.00053
51.4971
39.8767
19.7771
18.388
-220.259
0.0403851
42.6713
-3.81018
-3.24685
-5.08043
42.5635
12.4
21.8815
34.8991
-21.1735
27.539
-9.38245
30.8213
0.427473
29.4457
25.8474
36.1169
-2.63218
-82.4346
6.3437
-23.4118
11.4677
6.39177
-12.5055
32.9691
37.3263
0.20869
9.65736
-8.20991
34.1154
20.6251
23.5159
14.8199
-4.2679
-103.421
-6.46877
25.7837
-45.3295
-2.06721
1.77676
18.4697
11.6834
-19.5993
44.7153
-2.87159
39.8087
9.31968
40.4489
-15.5294
5.05702
-0.933224
0.672602
21.1913
24.4798
0.888298
-2.01459
-0.85942
-2.36213
37.559
-9.09837
-1.54056
-4.13363
-1.62468
10.7529
31.8322
13.1513
-3.14517
-0.109867
24.8455
47.7985
-26.2439
-8.84861
25.1899
-0.482646
11.5105
-2.82036
19.4249
-1.85435
-40.6026
-1.0169
-7.31381
-5.94153
-2.87305
-72.9962
-31.1045
-0.898838
19.6799
26.9655
21.492
46.6268
-252.385
41.6344
-95.5849
40.1949
-133.486
-23.4099
45.0927
9.7221
-12.6117
26.4031
-2.85923
28.6277
-7.21027
-86.571
3.25641
-19.0568
-23.7829
-0.0161435
-6.09343
8.87879
32.5015
-132.295
9.90198
-44.2338
6.02658
-3.63091
-2.20731
1.64605
-3.15207
-37.0825
32.9335
-1.57918
36.6105
9.12549
-133.862
8.14066
-23.8729
-0.815257
21.2876
31.9526
45.7998
18.7622
22.0328
12.779
-71.8379
44.4637
48.1002
27.7687
-18.3653
-35.2855
-134.447
23.6566
17.224
8.92338
21.6234
-5.21125
-1.72338
-242.728
37.8267
1.99455
1.55451
-11.9348
25.0716
7.36078
50.7624
47.8219
22.5615
2.46717
6.88932
-68.9936
10.5486
48.6916
3.17585
-0.632858
19.3112
0.0580645
4.22359
-6.43122
-10.673
4.38304
2.54813
10.9199
-0.223637
7.09141
35.8672
10.187
26.8923
-14.1649
-12.3434
43.5908
-84.2547
3.53197
7.96329
10.2186
4.93284
-15.2148
6.59204
-3.123
3.5493
50.515
-95.0601
-71.4526
-44.6613
-16.0278
3.11033
8.44736
-11.1879
-65.0751
-0.0944115
-54.8783
-21.7924
-26.1249
5.25036
-4.45643
0.791778
50.2866
1.26875
6.5318
-5.87106
3.89586
-58.4984
-11.5189
35.2538
25.3651
6.37464
-1.71795
24.3759
26.9857
-0.330005
-176.531
-4.30841
34.9535
-20.5111
22.827
-0.842099
39.4648
1.98125
-16.8999
0.684037
27.6175
-16.6872
22.3118
-21.3968
48.8106
-10.3167
-8.7819
-209.781
11.6865
-16.8406
-25.583
-11.9177
1.69237
13.6099
-42.6579
-3.52976
-4.26086
4.22401
-23.34
-22.0183
20.043
-132.717
22.2647
-13.8227
27.966
44.3183
24.442
-65.3874
26.2284
1.36739
3.83754
-4.50155
-13.4139
-91.9315
-14.7718
-13.0077
13.3878
-1.56183
-15.19
0.235634
-176.597
12.4455
24.7147
-18.0066
-19.062
-10.5733
-0.289916
-1.91367
15.0689
-42.9458
-21.8209
25.7462
-2.33604
16.4217
-32.7075
-230.291
-132.824
-265.924
48.7031
7.66761
-24.4995
8.41423
41.9546
43.7101
-19.8077
-9.7127
24.7163
-1.66001
-10.2598
42.615
13.7719
23.5869
51.2909
-8.80638
9.30365
2.63647
38.1629
26.1983
26.9985
32.2639
17.4895
0.325982
0.837728
11.0419
5.16201
-88.5286
43.8989
-8.10921
-13.5341
-0.165459
-22.9665
12.3221
-11.7058
-10.5568
5.52711
26.9406
27.4239
29.9619
-110.266
37.6981
42.7816
-77.364
15.8393
-4.61346
-3.3571
3.57577
14.3319
-5.00742
-20.0062
-22.9377
47.6399
-135.163
29.8858
25.4929
34.5999
20.0353
19.8005
-2.03023
0.250107
16.7324
-3.29666
-176.617
-43.012
0.836084
-8.41909
31.4698
-38.3074
-1.47585
4.25483
-55.171
-15.1933
-86.9233
22.3208
-9.59743
-4.62233
9.63937
-57.4363
8.68845
-79.018
-4.62463
27.3732
-151.86
43.9756
-0.217797
45.6797
0.0162448
-4.56154
2.8702
21.6926
21.9708
-51.2402
-5.37279
-6.13299
2.26435
18.3197
51.6781
34.6226
8.6607
-19.4356
13.7732
-0.529154
29.995
-2.5857
14.4337
-7.50896
-10.9384
-56.3535
11.4024
0.311789
-54.0194
15.9258
16.213
42.5061
45.1437
-85.0924
-91.472
0.557206
-26.7752
44.6988
3.91321
-10.2262
9.69116
17.8978
-8.38269
0.811204
2.11699
-2.81583
24.2539
-6.32461
8.61767
-2.27128
-21.376
-49.7197
-8.12941
-49.3363
-45.0356
28.656
-23.4818
-13.8278
-10.2878
0.316589
48.13
20.4092
23.2783
-10.729
12.8682
-3.4892
10.5949
6.4159
-10.9778
-62.5202
44.5803
26.9199
-2.06929
-87.8419
50.0546
-16.455
-107.781
-6.35348
13.9159
-19.7137
-7.50842
38.1826
-3.31941
23.7881
9.15664
-7.06031
1.12489
-4.08485
12.1141
-50.379
-1.44033
7.68815
25.0853
-23.748
-116.053
3.65404
-14.4629
-29.5853
-28.5631
47.191
16.0627
-149.239
13.3602
5.07505
41.4566
14.6993
-68.6226
16.0943
32.3462
28.8417
-19.7995
22.307
-2.10693
44.2641
0.238411
25.9598
-142.855
-18.5415
-0.294327
-9.0594
16.6599
7.63669
-85.9034
-25.3242
30.4969
-1.81548
-4.44266
35.791
19.5532
34.8369
22.8575
-26.0042
0.178697
-0.865848
25.5826
0.019916
32.1251
21.1368
43.545
-9.1003
33.8811
14.6465
43.5204
-6.43148
-19.7821
44.81
-10.2378
20.8789
-141.134
39.1086
43.0505
27.4539
-41.0213
24.4723
33.3247
-22.4951
10.6009
-14.6102
35.5786
-11.7897
-3.76379
-94.4758
-97.0785
32.6494
13.8058
-128.649
13.3219
43.0188
-12.43
-4.8383
-100.706
-25.0634
22.8043
-6.33115
23.7125
23.9529
-126.049
48.2251
-3.43575
36.6695
36.9002
-4.11219
-0.375932
23.1087
-41.8734
-7.96467
23.1224
19.6444
-11.3262
24.1899
-5.9136
37.5815
27.6481
9.75484
3.223
29.3533
-4.53664
15.5165
34.4253
4.44565
-0.135108
33.1177
27.511
-20.7156
-66.6087
20.6672
28.9427
43.9972
-89.2712
46.5648
44.0548
47.0374
-3.24294
32.0129
-139.408
25.0593
35.1228
33.6313
28.5817
38.0077
50.85
21.982
-91.6232
4.70467
-43.9724
50.2845
13.7093
-2.32106
-16.8587
24.2077
37.959
24.2682
8.47603
-5.05196
37.548
-66.5766
27.9424
-19.1756
10.3495
-1.87656
10.4173
16.5466
-98.9701
-91.5973
-4.1808
-13.984
-2.71193
31.3157
-6.27152
1.7012
23.7069
-158.29
17.8314
-0.315203
-128.264
-139.734
-87.5779
36.1456
38.7301
-13.9429
11.9663
32.977
29.8713
0.236467
-69.0746
28.1211
-91.7264
35.3828
-104.715
34.3475
16.0053
2.01542
32.002
17.1402
33.8756
9.0274
11.0586
-16.5833
-62.5873
-243.785
-4.09143
33.1895
-103.471
-10.6428
-87.4169
37.1664
33.6259
8.95941
19.4773
37.1434
-44.8454
24.5394
-3.44719
-19.1832
24.2876
-16.5024
-128.566
-26.6596
-87.2753
-10.5033
-164.339
-3.57637
-147.362
-75.0612
20.9396
44.1807
48.4264
41.9642
-112.81
28.1841
-153.844
23.4895
37.0193
2.64964
32.5316
-75.5202
8.86073
-18.4726
-3.92794
35.4519
-16.7591
29.3574
-115.662
-8.36201
-86.4091
29.2869
29.0557
24.5937
-152.162
24.0726
-5.10627
-114.201
-102.2
8.10938
44.8385
-50.626
-10.5817
-21.946
24.8755
23.8332
-3.27911
15.1356
-150.191
37.6605
34.7164
-9.19685
-7.01175
36.8214
-17.087
-264.541
-1.89236
33.5193
37.795
-124.865
19.3346
-3.74487
43.379
-151.772
-25.4311
-4.22401
40.8782
-2.10041
-15.526
-2.44751
35.4545
19.4889
34.9706
-4.9292
-47.2802
28.5959
49.4986
-77.2385
24.1214
-2.65229
-120.71
-2.20292
9.10135
-23.8561
19.0054
-5.88758
15.9678
-5.36734
-25.9496
31.8514
38.5575
23.8278
-39.5078
-24.3142
30.4927
-135.506
10.2385
-19.9814
12.4257
-203.578
27.481
30.3681
-2.71654
28.7925
43.2426
-7.73887
21.8105
28.9112
-92.9449
15.3255
-13.0513
12.3615
10.4968
19.8629
-0.00221378
8.52654
-7.6856
-41.6332
36.4216
11.3922
2.47383
-19.6746
-7.50122
26.2071
-166.832
46.9189
-138.14
-82.8164
-2.33762
32.543
29.6767
34.9715
-48.0732
41.6648
-144.491
21.5446
-0.116679
-125.992
23.2065
11.3495
-9.09871
17.698
-77.5351
20.363
-83.3243
-19.2044
-0.0704225
-85.8534
-100.818
23.3775
42.5011
-4.72738
-145.783
33.0947
-59.7715
38.7101
13.6171
-1.23462
15.3992
25.3555
13.3799
-3.52904
3.61595
-2.53079
5.97313
8.9518
-162.444
-23.4114
0.502033
17.1579
-0.471085
50.6695
28.0412
24.9643
39.3264
3.38867
28.3972
-66.1771
-37.7404
-31.76
24.7291
49.847
23.6037
-21.3879
36.2483
25.1523
25.4402
-4.90048
-2.49566
13.1453
47.2979
3.77735
-25.4618
30.4738
37.1863
27.9586
25.1967
31.1438
17.7797
-4.3559
-68.6107
28.1736
-89.9455
-56.9636
25.1171
-43.6909
3.47894
9.91813
28.4406
29.6257
29.8345
-2.89263
34.6626
35.6244
4.46324
31.2723
26.9693
22.8121
20.1696
19.0166
12.9032
-3.37836
32.5685
31.2809
0.0674328
24.1976
-3.38503
-1.09601
42.0664
32.1973
0.110477
-118.507
1.19177
33.387
19.0945
6.58308
-2.02376
1.66281
-10.8074
3.61886
-41.7333
-6.87492
20.3264
-6.17415
-90.832
-154.5
40.1281
-22.143
-92.9084
-54.3384
42.5599
-5.68201
5.62564
4.40743
-113.56
21.0253
23.3721
16.7447
37.8702
19.9399
-1.42892
-55.0579
-102.209
0.306442
29.7657
0.769566
-136.392
-146.99
-11.3431
-86.5235
-41.6628
-64.3151
-7.18828
8.4467
24.3893
34.0971
-9.44125
-3.13382
37.8944
28.2371
-119.333
-2.78427
-53.0367
15.8948
0.258772
13.5684
20.8805
-1.5004
-6.46244
-8.35566
6.37509
-129.995
-71.8442
-0.0322574
-68.7742
-89.0833
-125.588
-82.6282
0.907935
-45.372
12.7615
-134.336
24.8127
22.0917
6.76753
33.0048
-148.816
42.9403
-21.3948
-0.506604
-24.9191
25.2325
15.0175
-62.465
-31.8144
25.7901
30.7881
44.4853
-132.084
-91.1902
-120.583
-6.31954
0.0895264
-140.611
10.393
-97.389
14.5179
-147.343
20.9721
3.90584
-4.22712
38.5586
22.6405
-15.4676
-1.19749
-35.6438
-90.9916
33.5082
48.5701
-109.455
32.0698
23.8773
-0.0101249
-3.91766
32.0366
30.8371
-68.9047
-5.05244
-37.4308
-149.844
-22.8463
-127.999
-19.0859
17.1044
-2.2266
28.0332
-164.719
-133.176
23.477
-20.3803
-98.2498
-0.0250574
20.2503
-102.209
-13.6446
-133.079
-136.992
-94.1073
45.2516
-36.1959
-6.40757
-159.929
27.5477
-88.7049
-2.82982
-64.9954
-278.705
-17.4155
29.1065
-0.0602966
-131.241
21.8929
0.0400305
-21.195
-133.555
-163.24
18.7937
21.1475
25.1895
-53.3816
38.8263
-14.6312
0.0702178
-4.63254
-44.3301
-80.5663
-148.789
-68.3369
5.35945
9.30245
-4.19196
-6.7582
-32.5607
24.2255
-263.866
24.686
-181.077
15.1492
-10.2703
-2.91634
-0.253004
51.8569
-1.64885
-105.007
-49.1823
-31.5012
24.6167
-4.88484
-0.110165
0.155788
-138.629
-124.179
-70.7212
-117.367
28.8628
-207.877
2.30866
-128.447
-3.45146
22.0118
-2.41206
12.0004
-13.9817
34.1173
-83.9122
-35.4473
36.6233
10.0672
-86.0182
-6.92197
-141.991
-30.6217
-9.76735
33.0238
-22.5191
10.6278
-89.992
-116.837
-257.118
-235.712
-94.6888
16.6698
-6.91446
25.1843
9.42685
-190.616
44.0002
-104.948
31.6087
38.2683
-111.698
1.58386
27.097
24.0983
21.2533
-50.5449
-84.2742
-77.2707
24.8009
6.23054
-35.7625
-186.733
15.1758
30.2804
-5.72831
0.00826289
-0.156797
35.9615
-32.503
-35.4454
-1.43834
21.25
2.73258
-0.724176
38.9819
31.6837
-4.07797
-91.9721
32.6482
12.2194
-2.95468
24.6492
-14.8183
-72.7994
-93.4432
-78.4073
31.0512
27.9947
-5.08468
-20.2356
-2.0702
-1.28649
28.308
-105.233
21.2021
34.3165
36.8853
-9.57613
25.459
23.005
29.1966
30.9138
-4.11835
30.8698
0.000427683
25.1185
14.9999
27.4983
-93.6441
32.0659
30.6547
22.1995
16.7541
-31.6903
18.6034
-1.33189
-24.9397
35.2957
34.4455
-67.7326
30.8178
-67.4498
-88.74
27.7225
27.5501
-60.2804
-4.38603
-87.7681
-83.4792
-18.8442
-15.2549
-67.1968
-7.46806
23.3158
46.4814
33.0354
-10.7309
-7.87836
27.6026
12.1693
-3.76301
-76.2674
-24.8044
-33.9979
-81.5661
-66.0913
23.6508
-1.89773
10.2482
0.185331
0.1641
-1.40705
0.285793
5.42411
13.991
18.1052
-20.2351
14.6447
-68.5499
-233.355
17.5004
13.1152
-4.23304
1.62085
17.2232
-2.65468
9.91902
-19.7277
25.1589
20.7904
41.1327
25.1123
-51.1194
-8.206
-19.7561
-21.4869
-1.8171
-1.2516
-6.4655
-66.3563
46.7935
0.452338
-0.895482
38.2818
-24.4752
-16.1772
-6.29899
-97.2367
-57.7373
8.71554
-28.1755
25.5052
-7.88445
-45.7337
-0.183229
-12.6958
-25.8343
-3.92128
-3.28045
19.6419
-11.3405
-16.9414
-30.6342
9.63293
-33.2743
27.3746
39.4116
-20.328
27.8539
14.786
17.7965
43.0615
-32.1079
15.0618
12.8684
9.74177
37.1776
-6.36063
-6.36449
-3.78616
27.0283
39.4792
-22.5073
-3.22991
-39.8693
-29.5822
12.5846
-35.3072
-48.8865
-25.9471
9.96903
-92.106
4.84682
7.91422
21.9355
3.37947
-90.1088
-2.54355
-2.67283
-5.03621
41.978
47.0128
34.9436
48.2324
22.5392
26.3022
29.7621
25.8432
24.0715
-35.1245
26.2133
-8.2763
-79.6169
37.9533
-7.97063
-30.9238
44.5192
-0.833632
-153.864
12.7779
10.4149
31.1217
-61.3633
23.2274
40.9858
-26.5199
-86.2433
-40.2187
17.7136
-145.265
33.4699
-5.03199
31.1998
24.8617
-18.1072
30.0044
-18.2114
-78.4195
-90.4667
-51.4749
31.502
-32.5392
24.6992
-3.12925
-135.186
-3.61545
-2.08022
-21.8154
-30.4602
-61.883
31.6567
4.09821
-90.6092
-11.3695
16.5786
5.63716
-87.4512
12.1274
-4.58345
11.7561
-95.2767
15.4664
5.97461
17.5244
-4.99267
24.0578
15.4336
6.9439
-85.1143
48.7657
-24.9327
-117.735
24.3018
20.6499
-109.004
-29.5623
-81.7676
16.696
13.7606
-28.7174
-4.45231
-8.08772
48.8309
-1.21938
-26.2112
-3.33031
-16.9877
18.5995
-9.30413
23.303
16.6229
-140.761
16.1886
-92.3378
21.3835
9.55893
25.9496
17.5871
0.0212551
0.107447
12.736
27.5701
4.12604
-0.370021
-96.4339
-13.0502
-14.5679
21.8938
-105.477
12.7362
-63.1685
31.6874
-143.027
-7.437
34.002
30.4255
12.7829
-46.2676
-54.056
28.1109
-0.147234
31.7315
13.1611
0.272197
25.5619
7.1748
6.73319
4.32182
-16.8952
-29.651
17.2558
-2.35585
34.8468
7.18623
48.8651
-2.5441
5.9948
30.7945
2.169
6.14084
27.1285
22.1625
15.5698
-36.904
-2.89703
24.1374
16.5241
9.10055
-133.941
-6.395
-90.8886
-121.166
-19.218
22.5614
-4.65737
20.2943
-2.21028
41.8092
32.4264
9.00626
21.163
8.42557
-87.3985
23.9537
18.3214
0.417714
10.4373
31.5869
28.1983
-3.82154
-105.411
-42.2646
22.9598
11.7375
0.485929
27.0002
-162.512
24.0373
-53.2206
24.8665
11.5817
-3.88615
10.5333
29.5051
-4.96924
26.2036
33.7791
3.67034
-12.567
14.8304
2.55554
39.3761
-152.495
35.7178
29.9374
-158.286
-24.7691
-0.213696
-16.8478
-164.564
-14.7867
23.9497
36.061
28.4094
36.6121
17.2587
33.2275
10.3652
1.15177
11.4128
-6.79039
1.75913
20.8481
-0.382698
38.1428
6.36032
-121.259
18.2449
37.5656
39.4989
-271.382
14.638
-39.635
-71.6693
12.3531
4.00349
-17.842
13.7798
39.6509
-72.9916
-123.272
-146.606
10.4663
1.97071
3.17954
24.5866
25.8688
-3.15832
-3.91533
-3.05059