/*--------------------------------*- C++ -*----------------------------------*\
| =========                 |                                                 |
| \\      /  F ield         | OpenFOAM: The Open Source CFD Toolbox           |
|  \\    /   O peration     | Version:  2306                                  |
|   \\  /    A nd           | Website:  www.openfoam.com                      |
|    \\/     M anipulation  |                                                 |
\*---------------------------------------------------------------------------*/
FoamFile
{
    version     2.0;
    format      ascii;
    arch        "LSB;label=32;scalar=64";
    class       volVectorField;
    location    "1.5";
    object      U;
}
// * * * * * * * * * * * * * * * * * * * * * * * * * * * * * * * * * * * * * //

dimensions      [0 1 -1 0 0 0 0];

internalField   nonuniform List<vector> 
13486
(
(5.51725 -0.60497 1.91031e-20)
(6.58281 1.21516 8.67582e-21)
(9.81738 0.254183 0)
(1.19766 -1.18702 -4.57314e-21)
(8.77317 -2.11029 6.72625e-21)
(9.75572 0.671549 1.18824e-21)
(9.79254 -1.83152 1.74041e-22)
(7.49256 -2.74436 -1.05544e-20)
(7.38925 -1.44307 0)
(7.86967 3.11438 0)
(-7.72817 4.76212 -8.03594e-20)
(10.0407 -0.389918 0)
(4.88777 -1.47766 -1.91902e-20)
(9.77982 3.06453 1.34441e-21)
(9.33228 -1.60658 3.32334e-21)
(7.70888 3.28157 -5.32164e-21)
(2.13765 -1.29965 2.82516e-20)
(4.69377 -1.68849 7.5643e-23)
(9.30011 -0.0958481 7.69655e-23)
(6.21077 -0.0909732 -1.9051e-20)
(1.63439 -2.31567 -1.84231e-21)
(4.9576 -1.51892 2.47225e-20)
(6.72958 1.1898 -6.94995e-21)
(12.1019 -4.25116 0)
(8.25985 2.50567 1.61853e-21)
(11.7218 -4.05319 -6.8059e-21)
(-9.7748 6.5076 4.5813e-20)
(10.3641 -0.520736 1.67646e-20)
(8.02761 0.19849 0)
(9.56195 -1.65196 -1.00108e-20)
(2.32404 -2.7964 -1.25922e-21)
(9.76502 -1.21455 -3.85504e-21)
(12.4613 -0.902556 1.61955e-20)
(8.6906 -0.426216 0)
(7.53924 -2.63835 0)
(7.54179 0.0147473 2.62581e-23)
(7.33896 0.68261 -4.87036e-22)
(5.93326 -2.72541 1.01119e-20)
(6.62619 -0.242014 -4.89216e-22)
(7.48207 -0.843836 9.60023e-21)
(9.10508 -3.13612 0)
(4.2193 -1.99969 -2.27132e-20)
(8.26901 0.0403484 0)
(8.17879 2.07281 -7.97232e-21)
(8.23687 2.0729 3.21291e-21)
(10.0209 -0.337375 2.42115e-21)
(-0.0222735 8.16665 4.48218e-20)
(7.99281 0.194763 1.60452e-24)
(7.33959 0.632545 3.75019e-22)
(10.845 -0.0589795 8.32913e-21)
(7.93304 0.136746 1.03511e-20)
(6.84925 -0.0223436 0)
(10.2263 -0.716717 -2.96219e-21)
(6.22369 -2.23679 -1.45565e-20)
(4.95442 -2.00504 0)
(8.69588 -2.15573 -4.44404e-21)
(8.39415 0.958472 -1.31607e-22)
(6.95666 -0.0958335 -1.92604e-21)
(12.2109 -0.909515 1.86625e-20)
(7.27829 1.09644 0)
(-8.20023 0.72723 -9.5182e-20)
(7.34892 1.09964 0)
(14.7978 1.84021 -1.7033e-20)
(1.77793 -2.28966 -1.98377e-23)
(5.86105 -6.09618 0)
(7.37754 0.791689 -2.3596e-22)
(0.281385 -0.91551 -5.34134e-21)
(5.55826 0.310941 6.32839e-21)
(7.40067 -1.53085 -5.5859e-21)
(7.29214 0.0685804 3.79798e-22)
(0.42288 -0.840929 6.16758e-21)
(4.64914 -1.92584 -2.4776e-23)
(7.7248 -0.420199 7.06806e-21)
(-9.04246 -3.91086 -2.66465e-20)
(7.432 0.864072 -5.06504e-23)
(8.44416 0.940885 2.95095e-23)
(7.52348 0.852785 9.47222e-23)
(9.31977 -1.67285 -1.36677e-21)
(-0.0453663 8.98943 -3.11873e-20)
(6.85727 -1.68297 0)
(7.86859 0.0314891 2.783e-23)
(6.37833 1.72971 -5.59688e-22)
(13.6381 2.31388 8.31014e-22)
(10.2391 0.242838 -1.03163e-22)
(5.44646 -0.634972 -3.72234e-20)
(5.65495 6.9912 0)
(5.97048 -1.75413 -1.76385e-21)
(7.94274 0.167191 -1.55869e-20)
(7.4584 0.940853 -7.05887e-21)
(7.11466 4.29997 -5.91481e-21)
(9.98538 -1.10595 -1.9303e-21)
(7.98364 -2.39585 -5.47169e-21)
(5.56761 -1.01361 4.91649e-21)
(6.42076 0.408045 4.9071e-22)
(6.93665 -2.08209 2.31588e-21)
(7.93676 0.176359 -1.00668e-24)
(-10.8628 6.90107 0)
(-1.24168 -1.77773 4.46291e-21)
(7.55462 -0.831746 -1.83208e-20)
(-2.0341 4.19048 2.48015e-22)
(7.94286 0.00118353 0)
(9.72191 3.08777 4.12191e-22)
(-1.31374 -1.84145 6.16259e-22)
(6.94464 -0.0936233 2.25602e-21)
(5.24001 6.84243 0)
(-2.69981 5.67282 -1.122e-22)
(7.80722 0.242291 4.21689e-23)
(6.58344 -0.370628 -1.15004e-21)
(0.0674095 9.33156 3.62109e-20)
(7.54897 -3.46665 0)
(6.25353 -2.95728 0)
(9.73882 -1.49727 -3.50436e-21)
(6.24382 -2.14815 1.27008e-22)
(8.47406 0.574395 1.72859e-23)
(4.03085 0.0630429 0)
(6.1269 -2.91208 -8.87412e-21)
(8.20373 2.72461 0)
(8.85307 -0.420972 0)
(7.55713 -0.363119 0)
(7.41461 0.456421 -2.47735e-22)
(4.8023 -1.54027 2.84367e-24)
(-8.17505 2.64964 0)
(6.82335 -1.86464 0)
(6.6006 -0.277574 1.57883e-21)
(7.13652 -2.51317 0)
(6.9772 -0.0374483 0)
(8.46357 -1.07303 2.10326e-22)
(8.72515 0.381143 2.14072e-21)
(8.2141 -0.280749 -1.45438e-21)
(6.5316 -5.11228 -3.41408e-21)
(6.86814 -0.0256434 -2.32405e-22)
(0.0878213 7.73752 -1.1063e-20)
(3.56125 0.478029 4.91082e-20)
(-2.47917 0.494749 2.58006e-20)
(7.91489 0.0427092 -1.69544e-21)
(7.51023 1.85287 -7.71652e-21)
(3.70259 3.28006 -5.22172e-21)
(7.42884 -3.35696 0)
(7.45566 0.445146 6.9189e-23)
(7.6068 -2.20688 -3.6903e-21)
(11.7373 -0.213549 -1.65951e-20)
(10.2429 -0.799897 2.43651e-21)
(9.79905 -0.87817 0)
(6.82386 -1.55374 0)
(8.6105 0.00861156 8.91443e-23)
(18.272 1.06482 -4.81401e-20)
(9.43615 -0.278128 8.98631e-22)
(-3.8609 7.10628 0)
(10.8456 -0.056424 0)
(8.01574 0.168832 0)
(8.14212 0.0641379 1.43159e-22)
(9.26729 -1.86248 0)
(7.92071 0.0367623 -2.91263e-23)
(6.08695 1.65782 -4.7258e-21)
(8.73398 1.35372 0)
(10.1085 0.320184 0)
(7.36352 -3.30498 0)
(1.42521 -0.534349 -4.53594e-22)
(6.55577 -2.55229 2.10236e-20)
(7.95714 3.57166 -2.62436e-21)
(10.5276 0.0880285 5.23125e-21)
(6.6121 -2.49757 -3.15906e-20)
(9.89212 -0.973165 9.41416e-22)
(3.8469 -1.90696 1.00008e-20)
(6.99421 -0.0840441 0)
(10.1927 3.10656 -3.31894e-21)
(9.44996 2.87231 -6.26207e-22)
(1.44657 -0.112632 -2.38618e-20)
(9.73148 -0.0219373 -2.4888e-21)
(-3.00997 0.34374 7.33813e-21)
(-2.86128 0.263652 -5.51789e-22)
(8.74761 1.23303 2.0583e-21)
(7.99539 0.375835 -1.21777e-20)
(9.02523 -0.954706 3.17949e-22)
(7.86167 0.0882612 -3.71508e-25)
(-3.07443 -8.55575 0)
(9.76427 4.48315 3.62909e-21)
(12.3169 -0.107236 2.30358e-20)
(7.76064 0.173823 -1.73177e-20)
(9.83012 -0.831096 0)
(7.68566 -1.03953 1.96162e-20)
(8.41036 0.513608 3.11606e-23)
(9.35768 -0.938007 -1.59278e-22)
(-10.2125 4.42944 0)
(10.619 0.190934 -2.34001e-23)
(9.99087 -0.425832 -7.62284e-21)
(8.13062 0.156076 -1.00881e-23)
(9.38867 -1.03246 -3.04936e-21)
(8.91653 -3.16303 0)
(5.65232 -2.7222 -1.18838e-20)
(7.43447 0.588803 0)
(9.25969 0.222671 0)
(6.92905 -0.329211 0)
(5.42213 3.48464 -9.92427e-21)
(7.04133 -0.460646 0)
(-9.43248 6.7388 -2.12888e-20)
(6.12738 -5.47643 7.905e-21)
(10.6708 0.0630886 2.88285e-21)
(5.2474 -2.55705 -4.51606e-21)
(10.077 2.88094 -1.44722e-21)
(2.31037 -2.96606 1.32701e-21)
(8.72642 0.458189 -6.15881e-23)
(5.88499 -2.79532 -1.17176e-20)
(8.00544 -3.34781 2.3424e-21)
(7.96043 3.34338 3.2041e-21)
(7.10881 -0.434166 -1.68498e-21)
(4.16972 -1.90526 -1.62196e-22)
(7.36216 -0.105502 1.44062e-20)
(6.89248 -0.272878 0)
(10.4888 0.236853 0)
(10.1077 -0.634723 1.09563e-20)
(9.96665 -5.00275 1.02373e-20)
(6.28128 0.0388641 1.74962e-20)
(7.54503 0.263125 6.13163e-23)
(9.74527 0.829956 -1.37031e-21)
(7.57051 -2.25319 1.00732e-21)
(9.89048 -1.41768 0)
(7.35303 4.0988 1.56983e-20)
(5.8405 -1.1362 0)
(12.8032 2.74845 0)
(-0.569805 2.76745 -5.44403e-20)
(10.8756 0.0154176 0)
(7.54832 -2.17443 8.67726e-21)
(10.6079 0.142006 0)
(10.3191 -0.841585 -3.81652e-22)
(5.02226 -2.30631 7.08471e-21)
(10.4238 1.41934 -2.62511e-22)
(1.31164 -4.90008 1.48005e-21)
(7.49832 -1.51396 1.45881e-22)
(6.39351 -1.69563 -9.30501e-23)
(7.7181 -1.01737 -6.28242e-21)
(7.07356 -1.9869 4.22725e-21)
(11.8576 -0.425652 2.08725e-20)
(4.12221 -1.93689 7.77013e-21)
(0.00185119 -2.88162 0)
(4.81639 -2.3244 8.39111e-22)
(8.97655 -0.832408 5.05948e-21)
(9.25799 0.220166 -1.13819e-22)
(4.84233 -2.3013 2.30518e-20)
(9.31248 -0.588737 0)
(12.4323 -1.30658 0)
(8.02584 0.338336 1.87599e-20)
(8.57505 0.348191 0)
(4.67656 -2.29823 7.68597e-21)
(6.16838 -0.306526 -1.08345e-21)
(7.18076 0.372864 0)
(9.69591 -0.0596393 -1.25199e-21)
(10.7535 -2.85937 2.036e-20)
(0.223472 -1.0171 5.21579e-20)
(8.03828 2.00583 0)
(-6.15895 -1.1907 -4.83639e-21)
(3.92763 0.172944 2.78242e-21)
(5.69126 -2.78926 1.13609e-20)
(6.5709 -0.411304 0)
(7.20497 -1.40433 1.22513e-21)
(-3.94679 -8.83816 5.40816e-21)
(9.72049 -1.22818 3.06994e-21)
(7.46956 -2.28353 -1.27289e-21)
(2.12504 -1.66712 4.74993e-22)
(12.4635 -1.12516 1.29422e-20)
(7.01837 1.06115 0)
(6.18729 -0.244411 3.6379e-23)
(9.3471 -1.62235 -7.74032e-21)
(-3.87245 -6.96971 -6.75306e-21)
(8.38823 -2.81153 -7.08923e-21)
(-10.6433 4.66763 0)
(7.53334 -1.46732 -2.74377e-21)
(1.92559 -2.96841 -1.98076e-21)
(8.1949 0.00432613 -8.23676e-21)
(5.515 -1.23744 0)
(5.90269 3.88927 7.25152e-21)
(7.9113 0.252519 -4.67252e-21)
(9.83607 -1.47519 0)
(10.1837 -0.543291 1.72977e-21)
(5.13729 -2.39807 9.46591e-21)
(10.4143 -2.71264 -1.13522e-20)
(7.19959 -1.27483 0)
(4.97392 -2.94023 0)
(6.58381 -0.537078 -1.2372e-21)
(9.67727 -0.515659 -1.57744e-21)
(5.18889 -3.15446 2.20433e-21)
(8.24271 -0.73507 -6.99608e-21)
(7.69842 0.315465 1.03178e-20)
(16.4281 -4.41963 -2.38935e-20)
(-10.6309 3.63806 9.77387e-20)
(-6.30214 7.36991 6.42903e-20)
(11.9087 -0.0542104 1.89281e-20)
(8.22053 -0.324444 1.91246e-21)
(11.0307 -0.782024 5.71491e-22)
(8.07748 0.000929569 0)
(0.315562 -2.74783 0)
(6.16788 1.10122 7.79593e-22)
(6.07605 -2.88368 8.87596e-21)
(8.03567 0.0855882 -1.66997e-21)
(8.92239 -0.793981 4.67654e-21)
(9.18562 -0.962136 0)
(10.0715 -0.0436716 -6.77232e-21)
(10.2616 -0.435775 -1.23579e-21)
(7.62954 0.357723 -9.50471e-21)
(9.62784 -2.30648 2.69266e-21)
(7.7612 -0.700546 -1.07938e-21)
(4.31646 -1.87243 9.2227e-23)
(10.1353 -0.228507 1.34429e-21)
(9.69774 -1.24162 3.6613e-21)
(7.30493 0.485435 1.09032e-22)
(6.98333 -3.38264 0)
(0.683675 -0.579301 0)
(8.91919 -0.120339 2.56844e-21)
(6.31668 -1.53999 1.56004e-21)
(7.41529 0.601884 0)
(7.65304 5.68681 -4.01648e-20)
(1.14164 -0.907968 0)
(9.32377 4.37456 -5.78568e-22)
(10.0278 -1.47048 -3.41553e-21)
(12.2729 -2.80964 0)
(7.49699 1.63299 -4.68257e-21)
(6.12821 1.30767 -1.13385e-21)
(7.44242 0.873441 -6.01846e-22)
(7.40416 -0.0496775 -1.58394e-20)
(7.74925 -1.51441 0)
(7.28728 0.743109 4.27137e-22)
(6.29786 0.672064 -3.29012e-23)
(7.90518 0.164977 2.18232e-21)
(6.34231 0.649337 -9.18718e-21)
(2.20092 3.3914 9.61088e-21)
(10.0297 -1.09481 3.65809e-21)
(8.63349 -1.5612 -1.99946e-20)
(8.24766 -0.714859 0)
(10.5081 -0.216629 1.14209e-22)
(8.7251 -1.59588 -3.76901e-21)
(7.98034 0.0638044 2.2537e-20)
(8.07232 -2.4164 0)
(9.71533 -1.14581 -8.08334e-22)
(5.60274 1.62482 0)
(9.53637 -1.93353 -6.47226e-21)
(7.21107 -1.96769 -6.28682e-21)
(3.03948 -1.34011 9.39547e-21)
(9.1898 -1.90812 -5.52708e-21)
(8.05954 0.859509 0)
(6.06246 -0.169903 -1.72319e-21)
(7.68948 -1.47245 3.00579e-21)
(6.53273 0.59312 8.68774e-21)
(8.72655 -1.61436 1.44107e-20)
(9.3473 -0.920283 6.27932e-21)
(-11.1514 2.60671 -4.32335e-20)
(7.99078 0.195262 -6.97866e-26)
(8.71717 -0.866849 0)
(3.82555 -1.13103 2.22015e-20)
(12.7473 2.58987 0)
(5.95837 1.01005 6.91308e-23)
(8.75394 -0.483975 1.14192e-20)
(10.3713 -0.398446 -8.93681e-22)
(10.1821 -0.55445 1.23706e-21)
(-11.3382 6.9559 -5.74671e-20)
(7.61935 0.292099 1.18803e-20)
(7.75853 0.0679532 0)
(-7.33311 -1.05956 -2.64286e-20)
(8.4974 -1.09072 -4.17638e-21)
(6.00375 -1.5737 -8.80235e-22)
(9.77851 -4.4732 9.27189e-21)
(10.4436 -0.0837233 0)
(10.3698 -1.15551 2.22431e-21)
(7.03847 0.708931 1.83922e-20)
(7.78567 0.249297 1.41522e-20)
(9.61328 -1.67051 0)
(7.91374 0.0548408 -6.11314e-24)
(9.13359 -0.910823 -4.75181e-21)
(-0.635894 5.94614 5.73918e-21)
(6.13891 -0.0754434 2.4337e-21)
(8.52435 -0.984841 3.98348e-21)
(8.54947 0.0320841 -3.30754e-23)
(8.67772 -0.832122 0)
(10.2086 -0.841569 -1.32999e-21)
(-6.9832 -1.2391 7.04784e-21)
(9.62145 1.69069 1.78919e-21)
(7.94178 0.133962 8.68715e-21)
(6.47465 -0.00171336 0)
(5.95241 0.490038 -1.82939e-21)
(16.4206 -3.78937 0)
(14.2218 4.98717 -1.2377e-20)
(8.16285 -0.0497648 0)
(8.03768 -2.72959 -1.87651e-22)
(5.14315 -0.251804 -5.24924e-21)
(6.03205 3.24663 1.72833e-20)
(0.0625828 5.71871 -1.9553e-20)
(7.26643 -1.26636 0)
(9.19702 0.279173 -2.43358e-22)
(8.08347 0.889134 -4.75172e-21)
(4.10667 -0.247534 -1.94069e-20)
(2.57059 -2.21618 1.52951e-22)
(6.48479 -0.0582315 -2.63166e-20)
(10.0518 -1.33957 5.22252e-21)
(8.26598 0.857701 2.97337e-21)
(5.61329 -1.6476 0)
(5.41932 1.37934 9.96728e-21)
(7.54838 0.475471 -1.53856e-22)
(0.771588 -0.962753 2.70084e-21)
(-6.90828 -0.304747 -2.26211e-20)
(2.87887 -0.749283 -3.58486e-20)
(11.9199 -0.0070172 0)
(3.90099 -0.747806 0)
(8.36997 4.94029 0)
(8.20243 -0.323082 0)
(1.94219 -2.06307 -1.19658e-21)
(9.56929 -1.85169 0)
(6.1022 -1.47963 0)
(6.54696 0.401791 3.59726e-21)
(12.1993 -0.0705516 -2.36691e-20)
(8.58373 -0.759853 -9.34455e-21)
(6.68521 1.34529 2.98877e-20)
(7.9979 0.156938 -2.33387e-21)
(9.39147 6.97079 0)
(10.4199 -1.11831 0)
(7.54479 0.356429 1.01275e-20)
(7.85637 0.117163 1.72389e-21)
(4.86809 3.73144 0)
(-9.7469 4.0169 3.84591e-20)
(8.29637 -2.86169 7.95218e-21)
(-4.01086 -1.77303 0)
(9.33685 -0.590412 6.08291e-21)
(7.7743 0.246278 -1.1565e-20)
(3.27404 -0.972559 -6.52041e-22)
(3.80607 -1.0743 0)
(7.96236 0.877131 9.11176e-21)
(10.3847 0.825941 0)
(9.32525 -1.03259 0)
(8.82896 0.839659 -2.86323e-22)
(7.5195 0.381984 5.38536e-21)
(-9.947 6.5661 -5.99913e-20)
(9.37717 2.85872 2.34846e-22)
(5.12289 -1.10276 -9.39224e-21)
(8.14958 -0.272935 1.20879e-21)
(8.34176 0.970792 2.27538e-21)
(10.9365 -0.7715 3.32595e-21)
(8.6258 -2.80446 0)
(10.9488 -2.41687 1.06225e-20)
(5.23864 -0.115397 0)
(6.06422 0.829821 8.16846e-22)
(8.98606 -0.935391 0)
(5.64655 0.344914 1.34799e-20)
(-3.24264 6.59565 -4.59285e-20)
(10.1274 -1.25754 0)
(-1.94666 1.49596 1.17686e-21)
(10.5024 -1.24082 -1.20192e-20)
(5.09005 -2.64143 -4.44774e-21)
(6.87578 -0.915071 2.53723e-20)
(5.61889 3.11419 -1.06927e-20)
(5.0968 -1.04981 -2.67521e-20)
(14.9992 4.96037 0)
(7.37717 0.521644 2.77693e-22)
(-10.5204 2.65467 -1.07989e-19)
(8.02768 0.905813 0)
(7.44294 0.979992 6.59379e-22)
(10.4438 -0.0958149 -1.77204e-21)
(10.9318 4.68426 0)
(7.9977 0.0219892 0)
(-5.21854 1.48417 0)
(-2.81987 -8.19397 2.02554e-20)
(15.8886 -5.94559 2.83015e-20)
(15.9696 0.0723154 2.89299e-21)
(9.31202 4.16251 0)
(6.67742 -0.589468 1.71066e-20)
(7.86556 0.106972 3.95932e-24)
(9.32404 2.58996 -2.75861e-23)
(1.52434 -1.8573 3.45688e-21)
(7.65473 0.694768 0)
(8.00686 0.211037 0)
(2.78862 -0.156939 -1.47742e-20)
(5.52718 -1.61107 -6.6461e-21)
(7.55661 -0.653056 0)
(6.79628 -3.18773 -8.69656e-21)
(8.06615 0.00844861 -1.80766e-23)
(7.96573 0.167113 6.73242e-24)
(3.29448 -1.40686 0)
(7.4951 -0.159992 1.91916e-21)
(7.46127 0.438402 1.8177e-22)
(10.4336 0.765391 5.72744e-21)
(7.12952 -2.0442 0)
(-7.42701 8.42631 -9.80038e-20)
(10.2667 -0.412353 1.34961e-21)
(7.96997 0.40089 1.95781e-21)
(7.60802 0.097912 9.20072e-23)
(10.4134 3.01076 0)
(6.71822 1.37868 -7.95268e-21)
(12.6716 1.65943 -8.96799e-21)
(2.15187 -1.92344 8.03693e-21)
(8.03605 0.251382 0)
(2.43913 -2.27678 -1.56942e-22)
(1.77174 0.0647883 0)
(8.10237 0.173462 -7.37283e-21)
(7.97362 0.277358 3.43388e-21)
(7.37254 0.250697 -1.98899e-21)
(-4.38631 -7.82473 0)
(10.1805 0.125648 -3.46657e-22)
(4.27228 2.09553 2.68944e-20)
(8.55987 -2.79433 0)
(6.33426 0.46889 1.11005e-20)
(9.44604 -2.35381 -3.09653e-21)
(8.73351 0.104281 0)
(1.78077 -3.12077 1.05779e-21)
(6.84203 -1.55999 -2.37032e-21)
(8.58196 0.0504517 0)
(-3.88434 7.99493 5.61801e-20)
(7.37018 0.854317 0)
(6.7648 -3.08382 8.7023e-21)
(-5.9131 -2.0278 1.26134e-20)
(8.1416 0.168961 1.05264e-23)
(9.8399 0.691828 -3.03912e-21)
(5.37751 1.36437 5.29892e-21)
(6.86766 -1.02713 -9.29811e-21)
(7.27237 -1.17064 -1.25999e-21)
(6.78954 -3.02428 8.76839e-23)
(8.48816 -0.976301 3.8049e-21)
(10.4284 2.98256 6.7328e-21)
(7.93319 -3.58643 0)
(7.95368 0.12978 -7.70129e-21)
(-2.77376 -2.89306 -2.5826e-20)
(5.31542 -0.124941 0)
(7.60243 0.62062 -3.48386e-23)
(7.21918 0.0402232 0)
(4.68263 -1.1471 2.34475e-20)
(7.87719 -2.945 0)
(7.80412 0.0138592 -7.48689e-23)
(8.81532 -0.402806 -6.53544e-21)
(1.81795 -3.57483 2.00123e-21)
(-4.36956 0.526731 1.32348e-20)
(10.0797 -0.197864 -5.05498e-23)
(6.8153 -3.26744 8.4119e-21)
(6.77522 -1.8598 9.33462e-21)
(5.56061 -1.0415 0)
(-11.755 5.33582 -3.37364e-20)
(8.70944 -2.65479 -1.60523e-21)
(-11.8367 6.34691 -4.02535e-20)
(7.95659 0.196925 2.93234e-24)
(5.57574 -2.08212 0)
(8.80493 0.0614669 -2.80507e-23)
(-10.2764 4.42 0)
(-1.67233 -2.501 5.45358e-22)
(3.94499 -1.22541 9.5273e-22)
(-0.773215 0.730887 0)
(7.87791 -2.0772 2.73472e-21)
(5.7934 -5.82817 0)
(10.9003 4.46127 0)
(6.43137 -3.05501 -1.14307e-20)
(5.68794 1.39812 8.09161e-21)
(6.44088 -1.8207 0)
(7.21545 0.768363 -5.02067e-21)
(16.495 1.22871 5.42659e-20)
(-7.99784 -0.878072 4.03858e-20)
(11.1563 6.06698 0)
(8.39248 -0.0136245 0)
(-10.9402 3.40818 -5.09592e-20)
(7.22792 -0.421509 0)
(10.2406 0.214822 0)
(-7.0514 0.630573 -4.90406e-21)
(7.84777 -1.47734 -1.27925e-20)
(6.70097 -1.48017 7.90526e-21)
(12.5197 -1.52727 1.87137e-21)
(-11.4988 5.76336 6.90452e-20)
(7.91218 0.202269 3.96001e-21)
(5.67145 -1.16453 0)
(8.73654 2.09129 -1.08804e-21)
(5.46504 -0.521512 0)
(9.86287 0.0863549 0)
(7.9548 0.516665 0)
(8.89409 0.814676 -2.2466e-22)
(7.35701 -0.0479115 7.31153e-21)
(8.55346 0.279318 -1.03277e-22)
(5.80314 -1.21466 0)
(-10.4768 6.10475 -4.47866e-20)
(8.1734 4.60981 1.61183e-21)
(7.12832 -2.55111 9.02767e-22)
(8.16841 -0.369019 -3.05128e-21)
(10.2178 -2.68898 1.74989e-20)
(8.22126 0.085484 -6.67051e-21)
(-2.542 5.2443 0)
(10.1961 -0.425605 0)
(5.3932 3.67932 0)
(4.72865 -2.06114 -1.71929e-20)
(3.38053 -4.36986 -2.57305e-21)
(-0.327059 -1.23168 0)
(8.82901 2.09348 0)
(10.507 -0.819771 1.59803e-21)
(7.87714 -0.118193 -1.89181e-21)
(7.58468 2.70309 7.85079e-21)
(8.17795 -3.36539 0)
(-10.7801 6.93736 -2.13225e-20)
(9.29572 0.291295 -7.08858e-22)
(5.38772 -1.46139 -1.5807e-20)
(8.87804 0.400756 -8.8939e-22)
(9.27677 2.62696 1.17366e-21)
(10.3723 -8.46391 1.16617e-20)
(4.66064 -2.03001 2.9635e-20)
(7.31952 -3.23715 4.59169e-21)
(8.46396 0.525171 4.30758e-23)
(7.90972 0.0438143 -1.9625e-21)
(6.10035 -2.96735 -2.64855e-21)
(6.86433 -1.4873 1.05037e-21)
(6.50148 9.24385 -3.24154e-22)
(6.63015 -3.14567 4.5266e-21)
(10.5215 -0.0845794 0)
(7.91476 -2.15374 4.14681e-22)
(8.51422 0.00389485 -5.15654e-21)
(11.7724 3.15534 4.64667e-21)
(5.25586 -1.28172 -1.44161e-20)
(7.08514 -2.46037 -9.63321e-21)
(8.18501 -0.135729 1.80798e-20)
(9.80334 -0.205802 -1.03902e-20)
(6.3175 -0.539829 -1.52288e-22)
(11.9128 0.171024 -9.87347e-21)
(4.35362 -0.319255 -3.13937e-20)
(8.68212 0.0383637 -3.93379e-21)
(4.27979 -0.569278 0)
(1.41259 -4.54515 -6.23905e-21)
(8.14082 0.0621826 1.71736e-20)
(7.2828 -0.0342677 1.07121e-23)
(-6.86062 -2.75532 0)
(7.18773 -3.30467 0)
(8.13081 1.93467 6.54902e-21)
(3.82234 -0.255545 1.95116e-20)
(5.59928 -8.96545 -1.3808e-20)
(8.13793 -2.72239 -4.90567e-21)
(8.66442 -1.59315 1.09691e-20)
(13.0067 2.45737 0)
(8.10587 1.96342 3.52859e-21)
(4.40366 -1.69317 -8.39831e-23)
(10.067 4.29169 4.06769e-21)
(7.6199 -0.944233 -1.10637e-20)
(-11.3288 5.36122 -1.09799e-19)
(9.96383 -2.59426 -1.6961e-20)
(11.1588 -2.62317 5.93731e-21)
(9.04108 4.99513 0)
(8.22503 -1.46564 -2.07605e-21)
(7.49544 0.202571 1.8266e-21)
(7.88802 0.0666353 -2.30438e-24)
(3.8257 -1.85284 2.75138e-20)
(7.50507 -0.962651 1.66656e-20)
(7.29702 3.00794 1.1103e-21)
(-8.11761 -0.292885 -2.27014e-20)
(9.36525 -0.59513 -5.47994e-21)
(8.59778 0.136345 3.50771e-21)
(-10.122 2.42795 -1.23491e-20)
(9.68005 4.18969 -3.759e-21)
(-5.20836 8.15718 -6.1041e-20)
(4.96447 -2.37755 -9.08981e-21)
(7.91246 0.0759021 0)
(8.46983 0.867864 -1.52161e-22)
(-6.94164 -3.88328 -2.67444e-20)
(5.10359 -0.317832 2.81011e-20)
(8.20652 0.142835 0)
(8.52579 -0.889862 1.18578e-21)
(4.46094 -1.70946 6.71749e-21)
(7.99549 0.178881 -1.68725e-20)
(-9.26122 2.81399 -3.16753e-20)
(6.42262 -1.74606 -5.97554e-22)
(8.63464 -0.825753 6.40455e-21)
(9.17661 0.32287 1.53932e-22)
(6.84795 -3.12883 -1.20631e-20)
(8.63633 0.414664 1.57222e-22)
(3.24907 -5.07765 -8.34544e-21)
(8.48516 0.0365298 4.83123e-21)
(8.12239 -0.18471 -5.20936e-21)
(8.5365 0.52332 -1.83746e-22)
(9.01615 -0.148075 -1.12294e-20)
(4.31283 -1.79526 -1.29726e-20)
(8.53116 0.506469 0)
(-1.74088 -6.54596 8.71945e-21)
(8.2628 0.0622295 1.2835e-21)
(2.75082 -0.922533 -1.07658e-21)
(9.91582 0.216563 -2.38409e-21)
(8.44437 -1.63506 -6.80475e-21)
(8.03802 0.0722281 -1.27271e-20)
(8.37738 1.42143 1.80417e-21)
(-9.78238 4.02091 -3.95316e-20)
(10.2705 0.208709 0)
(6.06431 0.315367 9.21142e-22)
(10.481 -0.386789 9.15969e-22)
(5.6107 -2.0101 0)
(8.46774 0.424093 2.72089e-21)
(10.5504 -0.193157 6.7041e-22)
(10.1731 0.231767 5.93248e-26)
(9.58984 -3.58122 -1.01248e-21)
(7.19626 -0.412405 0)
(7.05993 1.57458 1.44256e-20)
(8.05862 2.20426 -3.70797e-22)
(6.49787 -3.06254 9.81114e-21)
(7.90574 -0.642374 0)
(5.71639 1.42623 -2.34324e-20)
(4.93001 -1.40653 -1.07232e-22)
(10.0557 6.29909 -9.35207e-21)
(4.38967 -0.370362 3.07192e-20)
(8.45079 0.0529747 1.01646e-22)
(-5.22008 1.1227 1.25509e-20)
(7.62528 -0.376979 -1.14098e-20)
(11.1827 -2.01162 -1.53999e-20)
(7.00061 0.741482 -1.06048e-20)
(8.40539 0.0509674 0)
(7.9076 0.115651 -7.41583e-21)
(-1.50014 -0.484341 5.36147e-21)
(-4.52712 1.38294 0)
(10.7684 -4.75826 0)
(7.88754 0.0601186 0)
(1.88001 -2.16403 0)
(8.21454 1.36727 0)
(4.12429 -0.263141 0)
(7.7878 -2.29496 -1.37349e-22)
(16.0238 -0.985719 -2.60132e-20)
(10.5802 1.53086 0)
(6.97124 1.49037 2.15283e-20)
(5.79549 -1.53566 -9.40331e-22)
(8.32642 0.948666 2.23416e-22)
(-7.44303 -3.13943 -1.72949e-20)
(4.28514 0.540785 -7.56498e-23)
(-8.90575 3.56203 2.93894e-20)
(8.55889 -0.0266202 -4.07072e-21)
(10.7433 -0.106238 1.14836e-21)
(8.09693 1.35312 -4.4872e-21)
(7.44941 0.899688 -1.4155e-20)
(7.88207 4.32733 -4.91421e-21)
(14.4947 5.20655 0)
(2.08796 -2.23039 5.06558e-22)
(4.75981 -1.23842 -2.56725e-20)
(8.09234 0.0748496 -2.25549e-20)
(8.81029 -2.62987 -9.52639e-21)
(8.60242 -0.0714616 1.79211e-21)
(10.2679 -2.61743 1.31953e-21)
(8.23192 -1.24353 -1.44314e-21)
(7.91426 -2.03966 -9.47894e-21)
(8.0712 0.789917 4.92517e-21)
(7.466 5.61013 0)
(7.24791 -1.01721 -1.16076e-21)
(6.72545 0.278409 -3.28718e-21)
(9.57818 -1.78399 0)
(6.66863 -0.448963 0)
(7.18323 -3.27315 -7.85504e-23)
(-4.19275 0.527633 1.17084e-20)
(7.69445 -2.30447 -5.14146e-21)
(6.93955 0.103151 0)
(7.3775 -0.216751 -1.49581e-20)
(7.18672 0.943142 -2.74832e-21)
(-0.690418 -5.21608 4.16127e-21)
(10.6221 0.124759 1.91927e-22)
(-8.29662 3.12607 0)
(1.8965 -2.21575 6.58446e-22)
(10.5067 -0.0635783 0)
(8.09467 -1.49529 2.22355e-21)
(10.0136 -1.10029 -1.78833e-21)
(8.10826 0.0574035 -2.62687e-23)
(9.52164 2.93227 1.11381e-21)
(11.0327 5.3552 -1.07536e-21)
(6.56605 -1.7769 1.9322e-20)
(3.17123 -2.27915 0)
(5.70368 -4.81757 -6.58935e-21)
(5.74725 -2.11734 0)
(10.8159 1.508 -2.32701e-21)
(-0.836874 -4.88524 6.56273e-21)
(10.695 -4.73467 1.31283e-20)
(6.14879 0.122867 -9.47334e-22)
(-3.70045 -9.38867 -4.65272e-20)
(5.84784 -2.74047 -1.13315e-20)
(4.93435 -1.265 -1.4925e-20)
(7.49967 0.460034 5.3873e-23)
(6.05387 -4.63113 5.37473e-21)
(4.38377 -1.83356 1.06363e-20)
(5.18265 -1.42309 1.61714e-20)
(3.3292 -4.16626 3.20034e-21)
(6.77253 -5.24774 -3.88447e-21)
(6.98701 -2.11274 9.57297e-21)
(-2.11835 4.26334 2.68236e-20)
(8.78995 0.114196 8.65408e-23)
(5.75246 -1.5628 8.84446e-22)
(9.38154 1.79883 -1.63321e-22)
(8.62098 -2.21628 0)
(2.34592 -1.61811 -6.9611e-20)
(8.31331 0.0156559 -6.3549e-21)
(8.00232 0.568179 0)
(10.6944 1.41853 0)
(5.20633 -3.44892 -3.02377e-21)
(12.521 -2.58832 -1.84275e-20)
(9.77613 0.956836 4.31317e-21)
(7.84629 -1.43867 1.68185e-20)
(7.7601 4.1416 4.67598e-21)
(7.15153 -0.0382988 1.17214e-20)
(-1.70508 -5.40726 -1.04554e-21)
(7.07409 2.73095 0)
(5.33421 -1.57333 1.54147e-20)
(-1.42392 10.0423 1.54278e-20)
(-4.65458 -7.06325 3.40511e-20)
(6.57446 -2.45524 3.24933e-21)
(7.26823 -3.37136 -2.7594e-21)
(8.38088 -0.026574 5.70964e-21)
(6.50178 -0.207095 5.21235e-22)
(9.3822 -1.61001 1.05995e-20)
(-2.20102 -5.51526 -6.30384e-21)
(9.65705 0.898025 -3.19281e-21)
(7.74598 0.281132 5.91892e-21)
(4.26037 -0.54529 -1.26393e-20)
(7.2711 -0.358864 9.36804e-21)
(5.8361 -0.734652 0)
(9.6945 1.65804 -2.8426e-21)
(7.77759 0.194231 1.30548e-21)
(5.54944 -0.901793 -4.92448e-21)
(7.73024 7.25561 2.51985e-21)
(6.88191 -2.051 7.10964e-21)
(8.04663 0.0561777 2.5703e-21)
(5.39875 0.769832 -1.81867e-20)
(9.68608 -1.80006 0)
(6.28116 0.287347 -1.55247e-21)
(8.97198 0.447178 1.21396e-21)
(7.94281 -0.461343 0)
(5.5465 0.279887 1.04575e-20)
(10.5374 0.13431 0)
(6.65266 7.61437 2.92338e-21)
(9.4984 -0.16555 0)
(7.22611 -1.10573 0)
(10.0483 -0.230283 1.24201e-21)
(9.63596 0.759593 -1.763e-21)
(11.8666 0.841872 -1.51741e-20)
(7.62529 0.622598 -6.35137e-21)
(5.88973 4.59822 -4.56279e-21)
(8.04972 0.405751 -2.33405e-21)
(8.28001 1.42972 0)
(9.97307 5.92826 -4.87979e-21)
(9.98978 0.648211 3.98189e-21)
(7.99203 -1.48861 -4.57448e-21)
(8.62366 -2.19865 0)
(11.9585 3.06294 6.95736e-21)
(8.71277 7.09458 5.46173e-22)
(8.7857 0.0629405 3.48905e-22)
(4.93475 -11.6724 0)
(-6.69398 -1.64368 7.47729e-20)
(8.13949 0.765719 0)
(9.58924 -1.34451 -5.35731e-21)
(0.465405 -1.17149 0)
(12.1178 3.31397 0)
(7.18864 -3.50355 0)
(7.72655 -2.914 0)
(-8.38991 7.86777 -1.1733e-20)
(-1.94025 -8.64986 -4.05462e-21)
(7.29807 -0.0192836 -1.09261e-20)
(1.61604 -3.72451 -2.69721e-21)
(4.72412 -1.93992 0)
(1.69744 -4.98461 -2.57058e-21)
(-1.2602 -1.60507 -5.17305e-20)
(6.05249 -2.80009 0)
(5.6196 -1.85448 -1.6632e-20)
(7.50885 0.923156 -3.34428e-23)
(9.35998 1.70045 1.5122e-22)
(9.26252 -3.20293 2.7453e-21)
(7.34839 0.821312 0)
(8.36022 -2.71099 0)
(13.6361 1.28161 7.43672e-21)
(6.80294 -1.29639 2.66225e-22)
(7.3488 0.512811 -2.22632e-22)
(5.22118 -3.33313 3.01199e-23)
(7.99835 0.0261511 5.50001e-22)
(8.44953 0.846847 1.09435e-23)
(8.026 0.743187 6.97465e-21)
(6.17598 0.619278 7.54151e-22)
(7.21624 -1.91862 0)
(-9.57738 7.03802 0)
(8.59208 0.344221 0)
(7.46253 0.0836563 0)
(6.70369 -1.11055 6.89245e-21)
(11.2153 -0.182961 0)
(-7.46721 4.78763 1.61746e-19)
(9.38136 -8.40231 -8.79918e-22)
(5.03968 -1.47551 -2.44315e-20)
(5.57232 -1.38581 3.40239e-22)
(-1.29755 -6.9018 -5.07871e-21)
(-4.03425 6.97835 -8.73195e-20)
(8.16697 0.110089 2.03735e-21)
(-3.7146 -6.17307 -9.4685e-21)
(6.23403 0.837879 1.08282e-21)
(10.0974 -0.184013 0)
(9.0923 -1.57078 0)
(6.66226 -1.44619 0)
(8.39274 -1.71763 3.60736e-21)
(6.47273 -5.76192 0)
(7.31681 2.68517 0)
(8.05095 0.0339605 0)
(6.77935 -1.47466 7.39069e-21)
(8.37856 0.850333 -5.98954e-21)
(7.10197 0.0671506 0)
(8.02437 -2.36098 -5.04314e-21)
(7.90053 0.810836 -7.16256e-21)
(10.0342 4.10879 -8.85121e-21)
(6.1132 -2.76792 1.01852e-20)
(7.38805 3.01018 7.09482e-23)
(6.80112 -1.73942 -1.83289e-22)
(6.56373 -0.508505 1.21593e-21)
(7.33411 -1.45818 -2.38445e-21)
(9.61705 0.787594 2.56926e-21)
(7.41663 0.509293 -4.89067e-22)
(7.21993 0.431663 -1.03834e-20)
(8.40874 0.0773185 0)
(4.08623 -1.23362 7.91446e-22)
(7.75236 0.289388 1.05025e-20)
(4.6864 -1.67867 -4.69234e-24)
(8.20583 -1.17946 -4.20326e-21)
(3.94037 -0.346281 -2.12236e-20)
(9.5961 0.685824 -4.74211e-22)
(12.7715 1.80273 1.29734e-20)
(8.03962 0.319308 0)
(7.36016 -1.65179 7.47989e-22)
(6.84323 0.130921 -4.19847e-22)
(7.36855 -1.48957 4.56515e-21)
(1.48456 -2.01293 -3.9443e-21)
(7.85105 0.0593618 5.56304e-21)
(8.54221 0.499011 -4.55696e-23)
(8.34336 0.0622993 -6.02613e-23)
(8.54353 0.288586 0)
(5.31549 -1.13865 0)
(5.68905 -2.66685 1.26018e-20)
(-9.05725 2.78823 3.4215e-20)
(7.93649 0.0814405 -2.69922e-24)
(7.80843 0.287776 2.09636e-20)
(5.92677 -1.05882 -2.0701e-21)
(5.75066 1.2718 0)
(7.0974 0.533917 0)
(6.05387 -1.15344 -7.32925e-23)
(9.95467 -0.112399 1.87135e-21)
(7.65054 2.82199 1.03939e-20)
(9.74956 -0.776668 0)
(9.33456 0.0690088 0)
(7.98408 -2.29177 1.34713e-20)
(7.80183 -0.574488 8.84497e-21)
(0.582228 -0.191994 -7.16615e-22)
(7.88983 -0.218111 0)
(11.2844 2.70941 7.38622e-21)
(8.79552 -2.87861 -2.12499e-21)
(-8.0073 -2.42067 -3.58017e-20)
(7.84843 -0.100578 -1.19791e-20)
(15.9708 -0.265746 0)
(12.9857 -2.30543 1.45619e-20)
(7.82975 -12.102 -3.98268e-20)
(0.465378 -0.0496276 0)
(7.49241 0.112221 -3.04142e-22)
(7.55675 0.528923 -6.91007e-21)
(7.89868 0.0403682 -1.09752e-25)
(10.3488 -1.16478 1.07617e-21)
(5.14985 5.99095 1.16761e-20)
(8.52415 0.0746045 0)
(3.88375 -1.22324 -1.33843e-22)
(7.35152 -1.3269 1.54365e-21)
(13.9038 -5.25393 -1.02559e-19)
(8.11255 1.33149 5.31359e-21)
(3.20621 -2.16068 7.7701e-22)
(7.98246 0.0560159 -2.62479e-20)
(7.32621 3.33086 -7.32596e-22)
(6.32264 -0.33877 1.19259e-21)
(6.69351 -1.35419 0)
(7.02639 0.0167099 -2.13299e-21)
(4.2796 -1.89547 8.59613e-21)
(8.65882 -0.384746 -1.26561e-20)
(7.80981 0.174313 -9.49731e-21)
(9.38377 -1.29485 4.8517e-21)
(6.55044 -0.491391 2.49235e-20)
(8.73359 0.121126 -1.12609e-22)
(6.94865 0.622087 5.9948e-21)
(7.66362 0.60655 -1.04545e-22)
(12.531 -1.62477 -2.11669e-20)
(9.86532 4.53541 -6.42158e-21)
(6.18915 -9.21956 1.06864e-20)
(8.08871 -0.126199 0)
(6.8601 -1.42755 0)
(4.30723 -1.93084 0)
(5.03018 -1.29555 1.87806e-20)
(8.22257 0.0757176 -1.50624e-20)
(7.0679 1.09181 0)
(5.64588 -0.999205 -1.45971e-20)
(7.10849 0.987522 0)
(6.7417 -0.980736 -1.13295e-20)
(7.89425 -1.52024 -4.79416e-21)
(7.1603 -1.77 -1.04239e-20)
(8.64796 0.104613 0)
(7.66121 0.180718 0)
(8.00042 -0.50251 2.71864e-21)
(10.3897 1.22481 2.61163e-22)
(10.582 -0.2414 8.3152e-21)
(9.22185 7.41309 -6.83507e-22)
(9.83157 -1.01739 0)
(6.63325 -2.38308 -5.383e-21)
(-4.05372 3.29414 0)
(2.60151 3.34497 -9.81389e-21)
(11.106 5.34267 0)
(8.58699 0.447472 9.52355e-23)
(4.39296 -0.231233 8.14585e-21)
(5.794 -0.337621 8.07001e-21)
(7.81068 -0.227069 -2.70531e-21)
(8.8943 -7.70204 -3.87195e-20)
(7.62152 -0.688264 2.24036e-20)
(8.26029 1.39807 -2.39387e-22)
(9.41575 -2.53184 -1.56465e-21)
(7.64289 -1.60982 -5.20402e-21)
(-3.41553 2.58679 2.13679e-20)
(10.5518 2.12022 0)
(7.93425 0.19197 4.80241e-23)
(5.71682 -1.2277 0)
(6.35475 -0.251599 -1.17143e-21)
(6.70771 -2.39051 -2.8051e-21)
(6.65004 -0.391502 -8.18947e-21)
(7.86548 0.0837972 6.78718e-24)
(10.5011 0.188899 -6.97822e-21)
(6.51712 0.05195 1.68357e-20)
(9.5185 -0.438617 -4.1752e-21)
(7.39284 0.547875 0)