/*--------------------------------*- C++ -*----------------------------------*\
| =========                 |                                                 |
| \\      /  F ield         | OpenFOAM: The Open Source CFD Toolbox           |
|  \\    /   O peration     | Version:  2306                                  |
|   \\  /    A nd           | Website:  www.openfoam.com                      |
|    \\/     M anipulation  |                                                 |
\*---------------------------------------------------------------------------*/
FoamFile
{
    version     2.0;
    format      ascii;
    arch        "LSB;label=32;scalar=64";
    class       volVectorField;
    location    "3.4";
    object      U;
}
// * * * * * * * * * * * * * * * * * * * * * * * * * * * * * * * * * * * * * //

dimensions      [0 1 -1 0 0 0 0];

internalField   nonuniform List<vector> 
5098
(
(2.63545 0.850165 0)
(2.16271 0.02479 -3.23387e-20)
(2.25071 0.0795644 -2.64378e-21)
(1.57865 -0.715258 7.40627e-19)
(1.92848 -0.433604 0)
(0.915632 -0.443221 0)
(2.30264 0.00937223 -6.1256e-21)
(2.25802 -0.156994 1.03687e-21)
(2.38271 0.0707178 -5.53342e-20)
(2.11059 -0.284399 9.62522e-20)
(1.33523 -0.729058 0)
(2.24568 -0.00565519 1.61473e-19)
(2.52134 -0.427775 -8.64318e-21)
(0.966039 -0.469998 0)
(1.88736 -0.19113 5.82438e-20)
(1.93659 0.027253 8.97304e-22)
(1.16845 -0.567933 -5.03076e-20)
(1.05942 -0.791028 0)
(-0.532131 -0.0198944 5.51095e-19)
(1.03276 -0.500645 5.68023e-20)
(1.83511 0.524845 -7.11093e-20)
(1.94134 0.00594745 4.51119e-21)
(2.14527 -0.835566 0)
(0.791667 0.00909371 2.83779e-20)
(0.338775 -0.285754 0)
(1.52222 -0.613974 0)
(1.9629 0.0093994 1.2097e-19)
(1.89707 -0.803062 1.94857e-19)
(-0.244231 0.369889 -1.66376e-18)
(1.7267 -0.757969 0)
(2.42337 -0.16194 -1.0449e-19)
(0.740182 -0.360035 0)
(1.95261 -0.0421603 -1.3694e-19)
(1.41138 -0.695831 0)
(2.44695 0.246003 -4.36135e-20)
(3.27584 -0.318828 1.40092e-18)
(1.91718 -0.478955 1.4338e-19)
(1.98747 -0.0633813 -2.3491e-21)
(1.38085 -0.454365 5.42292e-19)
(1.4162 -0.658057 0)
(1.58593 -0.727936 -3.48507e-19)
(1.70957 -1.93114 -4.45015e-19)
(1.53774 -0.62191 0)
(2.72024 0.189204 2.73604e-20)
(2.4125 0.511382 5.03692e-20)
(2.08048 -0.00220157 5.88499e-21)
(1.23272 -0.594208 1.83863e-20)
(1.1174 -0.38611 0)
(2.43643 -0.201824 0)
(1.58113 -0.681571 7.89404e-20)
(2.22206 0.170355 4.04659e-20)
(1.64803 0.480929 -4.42627e-19)
(-1.62633 0.672439 -3.06134e-20)
(2.10817 -0.0472449 1.69317e-19)
(0.980178 -0.491141 -3.3063e-19)
(1.62048 0.0786431 0)
(1.91355 0.241175 -2.38247e-19)
(1.67421 -0.696899 0)
(0.87751 -0.433113 0)
(1.95004 0.00621786 -1.32564e-20)
(1.57017 0.346132 1.68251e-20)
(0.597051 -0.286865 -5.95076e-20)
(2.45495 0.277335 0)
(2.49061 -0.40909 0)
(-1.71153 0.578017 1.68924e-18)
(0.832219 -0.417226 4.13276e-19)
(2.07166 0.0541139 4.95817e-21)
(2.31751 0.174814 5.27543e-21)
(2.11752 -0.27835 1.74429e-19)
(1.7135 -0.726699 2.30946e-19)
(1.90024 0.200887 1.46746e-20)
(1.47649 -0.481735 -2.3445e-20)
(1.97001 -0.821284 0)
(1.40254 -0.565584 0)
(1.76678 0.082021 5.97435e-21)
(1.15088 -0.565015 -3.78463e-19)
(1.88093 0.160502 0)
(1.55021 0.195825 4.15753e-19)
(2.76538 -0.208638 3.74932e-20)
(1.64796 0.132619 0)
(1.77404 -0.0142324 0)
(2.96782 -1.70035 4.38116e-19)
(1.72875 -0.335389 5.07195e-19)
(1.43432 -0.703044 -8.61585e-21)
(1.08395 -0.877615 4.10789e-20)
(1.56288 -0.688826 1.91795e-19)
(0.119142 0.229441 -2.59585e-19)
(1.87414 0.196358 6.10781e-22)
(2.30815 -0.222679 3.89447e-20)
(1.60758 0.292922 -5.25447e-21)
(2.31756 -0.266689 -7.53108e-21)
(-1.8868 1.4325 1.18592e-18)
(2.40651 -0.0193723 -1.98016e-19)
(1.5974 -0.70056 -3.94903e-19)
(1.36222 -0.480557 9.57293e-20)
(1.47419 -0.58997 5.14538e-20)
(1.06741 -0.535852 -3.17352e-19)
(1.45808 0.284533 3.07551e-19)
(1.77355 0.089668 2.00048e-22)
(2.06667 -0.520194 -1.17517e-19)
(1.74002 -0.767625 -5.3729e-20)
(1.03608 -0.512145 -3.92314e-19)
(-0.03771 -0.0796371 -1.35736e-20)
(2.14257 0.153787 -1.91368e-20)
(1.54692 0.171185 -4.72562e-19)
(2.44576 1.00579 0)
(1.93634 0.218675 2.52766e-19)
(2.21725 0.123411 4.88862e-21)
(1.07226 -0.44105 7.39405e-20)
(1.30779 -0.72512 0)
(1.07429 -0.517912 -8.50173e-19)
(1.89264 0.736221 8.21557e-19)
(1.88358 0.0117374 -2.51665e-19)
(-2.26757 1.40204 2.83328e-19)
(1.77996 0.615002 1.01593e-19)
(0.50994 -0.224906 0)
(2.69484 -1.58684 6.26444e-19)
(2.77541 1.31699 0)
(1.99952 0.119809 1.23832e-20)
(0.823571 -0.0382823 -4.36237e-19)
(1.70243 0.453729 3.63424e-19)
(1.66339 1.9129 -6.18997e-20)
(2.08426 -0.336906 -6.11068e-20)
(1.08697 -2.16037 -5.81669e-19)
(-1.8905 1.6604 -1.70467e-18)
(0.535727 -0.258759 6.68005e-21)
(2.11424 -0.025632 1.37939e-19)
(2.12535 -0.801175 -2.29663e-19)
(1.42068 -0.180205 -1.13758e-19)
(-2.41061 1.45977 -5.48249e-19)
(0.235552 -1.17605 -2.1833e-19)
(1.15892 -0.518052 -5.44839e-19)
(1.18716 -0.515634 4.56293e-19)
(2.65599 1.3697 -1.39017e-19)
(1.61667 -0.663396 -1.38355e-19)
(2.31379 -0.590234 2.13033e-19)
(2.10358 2.42677 6.15301e-19)
(1.92289 0.219396 1.71366e-19)
(0.894855 -0.438335 0)
(2.09748 -0.104889 -5.47776e-19)
(1.64541 0.562047 -2.93137e-19)
(1.31887 -0.309674 3.18882e-20)
(1.79558 -0.817327 3.72344e-19)
(2.30705 0.00619203 -1.36636e-20)
(2.03904 0.0687257 -3.90966e-20)
(2.06702 0.108841 0)
(2.11351 -0.273916 1.81084e-19)
(1.79868 -0.47985 0)
(2.43155 -0.0982355 2.87601e-19)
(1.67403 -0.768853 1.39749e-19)
(2.04298 -1.39004 -1.72731e-19)
(2.55387 0.419843 0)
(1.81106 -0.50976 4.99896e-20)
(1.99401 0.0314669 0)
(0.108362 0.132612 -3.26263e-19)
(0.857649 -0.340253 -1.81105e-19)
(1.67264 -0.687877 -4.14166e-19)
(1.72779 -0.716919 -3.89356e-20)
(1.52893 -0.718361 -2.85345e-19)
(-0.380838 0.0959324 1.68952e-18)
(1.98589 -0.460848 -3.9035e-19)
(1.89432 -0.203975 -8.11789e-20)
(1.98401 0.177845 -5.0379e-19)
(1.84605 -0.212357 -3.12637e-19)
(0.843169 -0.703266 -3.93418e-20)
(2.51817 -0.130879 -1.01694e-19)
(1.87011 -0.489625 -1.72236e-19)
(2.37388 -0.584614 0)
(0.368345 -0.363249 6.7625e-20)
(1.72617 -0.578424 -4.53046e-19)
(1.58638 -0.504518 -3.63018e-20)
(1.58652 -0.655154 -2.68981e-19)
(2.26346 0.617459 8.32108e-20)
(1.89317 -0.771815 3.4789e-19)
(2.55688 0.000392474 0)
(1.94643 -0.0109495 0)
(1.72554 -0.301651 -1.96173e-19)
(3.19227 -0.257596 -7.11856e-20)
(1.78798 -0.165882 4.32841e-19)
(0.310432 0.0708222 0)
(1.94148 2.36402 0)
(2.57867 -1.25576 -4.87517e-19)
(1.79886 -0.568802 5.56589e-19)
(0.796632 -0.64914 0)
(1.86665 -0.19949 0)
(2.73095 0.663739 5.52984e-19)
(1.51238 0.31262 0)
(1.92135 -0.455229 4.93085e-19)
(1.01176 -0.495764 7.34484e-19)
(-0.833285 -0.285402 -6.52509e-19)
(2.16411 0.89813 0)
(1.60888 -0.256412 8.61264e-20)
(1.9932 -0.838792 0)
(1.74181 0.0887377 5.59775e-21)
(2.49009 -0.162248 1.12342e-20)
(-2.14346 1.50778 -1.29361e-18)
(3.14482 -1.17083 3.77172e-19)
(2.37526 -0.64737 0)
(1.97227 -0.0204323 -5.03005e-21)
(1.75362 -0.563 -8.2208e-20)
(-0.0681586 -0.903567 -4.32703e-19)
(1.6802 0.380465 5.55983e-21)
(2.48033 0.51895 1.1801e-20)
(2.2214 0.0230692 4.00356e-21)
(1.61505 -0.0796684 1.96377e-19)
(0.826844 -0.345355 -1.29541e-19)
(2.48192 -0.0377055 -1.50523e-20)
(1.21938 -0.560702 0)
(2.23214 -0.0111038 0)
(1.29057 -0.627237 -3.85812e-19)
(1.96972 -0.178168 -1.59153e-19)
(1.72584 0.351443 2.9525e-19)
(1.70771 -0.26595 -8.66396e-20)
(2.00934 0.0860249 -1.34264e-19)
(2.09283 -0.0578418 -1.47698e-19)
(0.962786 0.276877 -4.59623e-19)
(1.77344 0.0336234 0)
(1.25869 -0.740847 -7.17254e-20)
(-2.01494 1.77598 2.27267e-19)
(1.9392 0.0126691 1.06832e-19)
(2.34278 -0.284502 -2.82105e-20)
(1.62643 -0.364225 0)
(2.00433 -0.0134059 1.32175e-20)
(2.34425 -0.316263 1.44361e-19)
(-2.29885 1.17278 3.17863e-19)
(2.0638 -0.200392 0)
(0.432192 -0.117261 0)
(2.00252 0.0360661 0)
(2.02406 -0.522049 0)
(1.74925 -0.696043 4.1867e-21)
(1.84628 0.433106 0)
(0.632084 -0.271678 -4.73438e-19)
(2.93768 -1.21186 -3.62717e-19)
(2.08756 -0.0127561 -6.42604e-21)
(2.55419 -0.0167943 -6.51482e-20)
(2.36395 0.051187 0)
(1.51758 1.4342 -1.47416e-19)
(-0.809595 -0.971851 -1.80712e-18)
(2.71472 -0.407181 0)
(1.86845 0.00955712 3.10837e-19)
(2.80516 -1.98315 -1.51775e-18)
(2.26982 0.59983 0)
(2.1532 0.0847713 0)
(1.05272 -0.243735 7.98385e-19)
(1.79708 0.487666 -3.69534e-19)
(2.35864 -0.102245 -1.88329e-19)
(1.08685 -0.517427 8.82762e-20)
(1.28071 -0.725689 -4.98122e-20)
(1.327 -0.647707 0)
(2.34589 -0.121265 5.18964e-20)
(2.21582 0.72698 -4.06401e-20)
(1.90327 -0.801088 3.59174e-19)
(0.0448631 0.211433 7.81009e-19)
(-0.42583 -1.00401 4.91145e-19)
(2.0064 0.0518064 -2.26458e-19)
(-0.422698 -1.3067 1.78141e-18)
(1.66231 -0.633107 1.20705e-19)
(1.31669 -0.435396 -3.96834e-20)
(1.14783 -0.407941 -3.34777e-19)
(1.92079 -0.00436363 2.09187e-21)
(2.73311 0.650075 8.15397e-20)
(-1.96221 0.762385 9.21063e-19)
(0.15423 -0.208378 1.29844e-19)
(1.91705 -0.831484 0)
(2.02105 0.0142461 -1.56103e-21)
(0.97013 -0.484473 2.08657e-20)
(-0.258393 0.0508213 -1.96908e-18)
(1.31786 -0.766118 0)
(1.2856 -0.495907 0)
(1.82407 0.0174981 -2.87878e-20)
(-1.41211 0.0291488 8.01029e-19)
(1.93273 0.0536655 5.9356e-21)
(-0.096546 0.155853 -8.88362e-19)
(1.83287 -0.58778 0)
(1.16561 -0.474158 2.27895e-21)
(0.216992 -0.189033 7.8619e-21)
(1.59062 -1.81458 -3.26816e-19)
(2.04412 -1.15384 0)
(2.27102 -0.737567 0)
(1.94218 -0.127956 0)
(0.270705 -1.06367 -1.30273e-19)
(2.18152 -0.0779575 1.10523e-19)
(-2.38226 1.14695 -1.28733e-18)
(2.16683 -0.0674334 -1.22808e-19)
(2.0305 -0.537092 -2.9913e-20)
(0.990943 -0.550175 0)
(1.99825 0.0313539 0)
(2.10468 0.137741 -5.4569e-20)
(2.49015 -0.101301 8.18841e-20)
(1.88896 0.0240584 -2.51948e-19)
(1.47261 -2.14749 0)
(-0.34916 1.93002 9.31564e-19)
(1.08701 -0.038448 -2.33833e-19)
(2.3951 0.397333 4.57133e-20)
(1.987 -0.637174 3.73675e-19)
(1.41716 -0.217537 -4.2391e-20)
(2.43635 0.161492 0)
(2.4709 -0.174683 -9.04913e-20)
(2.02347 0.0217866 0)
(1.94678 0.0931356 -1.38331e-19)
(2.10885 0.143391 4.43001e-20)
(2.46948 -0.00892892 1.03305e-19)
(1.61523 -0.428097 5.25354e-19)
(1.82312 0.42344 2.07464e-19)
(0.855014 -0.423309 -3.32493e-20)
(1.81926 -0.737782 -2.20481e-19)
(2.64674 1.79924 -1.60301e-19)
(2.03176 0.0158373 0)
(1.85635 -0.449567 0)
(1.2992 -0.636878 0)
(2.30666 -0.2638 3.69793e-20)
(-0.286529 0.859089 7.67527e-20)
(0.841576 -0.419309 4.34505e-19)
(1.91461 0.00147721 -2.2199e-20)
(2.5678 -0.426973 -3.3944e-20)
(0.187472 0.055369 6.40324e-19)
(1.99815 2.28082 -6.69087e-20)
(2.15034 0.041082 -1.2175e-20)
(2.27821 -0.142298 5.0784e-19)
(0.906503 -0.388981 0)
(2.77849 -0.110652 -3.15851e-20)
(-0.390446 2.11415 -1.78061e-18)
(2.63585 -0.242461 -3.80641e-19)
(-1.10941 1.34469 -3.15597e-20)
(1.81316 0.126132 5.04874e-22)
(1.36396 -0.427254 3.65105e-19)
(2.1938 0.733272 0)
(1.93158 0.0818258 -8.7598e-20)
(1.08013 -0.44622 -7.81598e-19)
(2.00081 0.0987834 -1.12586e-20)
(1.29067 -0.6266 0)
(2.23519 -0.136583 -1.45961e-19)
(1.04714 -0.504874 2.45573e-19)
(2.31297 -0.733796 -1.04339e-19)
(1.7405 -0.731562 -3.1245e-19)
(2.24672 0.071732 -4.09574e-20)
(2.41211 -0.363043 9.0388e-21)
(0.966711 -0.479686 4.79115e-19)
(2.19543 -0.0890628 2.18145e-19)
(1.86251 -0.390113 0)
(1.81644 -0.828948 -3.52321e-19)
(1.69671 -0.7301 -9.44617e-19)
(2.65861 -0.191753 1.89249e-20)
(2.01283 0.0774947 3.68502e-20)
(2.47297 1.40379 0)
(1.85247 0.156902 0)
(2.07699 -0.0206462 -1.72972e-19)
(0.841449 0.513373 3.96651e-19)
(2.77913 1.23648 0)
(2.42948 -0.0426231 1.40474e-19)
(1.54437 -0.686358 -4.18619e-21)
(0.915348 0.346188 -5.72745e-19)
(0.895881 -0.390918 -4.18024e-19)
(0.0759713 -0.957579 1.44632e-19)
(1.86047 0.0367919 1.66642e-20)
(0.234976 -0.851251 3.71021e-19)
(2.27993 -0.582249 -1.75204e-19)
(2.3344 0.0251687 0)
(1.44408 -0.144922 -9.80173e-20)
(1.31676 -0.415313 0)
(1.9909 0.113712 -4.21679e-19)
(2.02934 -0.480263 0)
(2.28504 -0.0486691 -1.51949e-19)
(1.92456 0.186214 -9.08261e-21)
(2.74782 0.166447 -1.67665e-20)
(1.13922 -0.448765 4.41664e-19)
(1.9247 0.106219 -3.43601e-19)
(1.9832 0.0506594 -3.37264e-19)
(2.00717 -0.864135 0)
(-0.328476 -1.45423 0)
(1.21583 -0.487029 -4.35396e-19)
(2.82824 0.0949163 0)
(3.28268 0.219411 -9.09523e-19)
(1.72817 0.317951 0)
(1.43385 -0.484767 3.13799e-20)
(0.771679 -0.367969 5.25351e-20)
(1.77694 -0.590982 6.61319e-19)
(0.846002 -0.361559 -2.27951e-20)
(2.35685 -0.554964 0)
(1.91807 0.160351 8.71278e-21)
(1.91165 -0.00355456 -2.20229e-19)
(0.567782 -0.278786 -7.39179e-21)
(1.97283 0.0358922 -1.93313e-19)
(2.44086 -0.071778 -6.63071e-20)
(2.47403 0.182774 -3.46234e-20)
(3.19888 0.769688 3.62179e-19)
(2.44056 0.344692 -7.01581e-20)
(-0.530781 -1.37895 -2.61141e-19)
(1.70336 -0.515772 0)
(0.00239958 -0.0855451 8.66522e-21)
(1.99813 0.119613 -1.4884e-19)
(2.56007 -0.214934 0)
(2.00045 0.053736 1.28609e-19)
(1.14746 -0.554938 -3.19629e-19)
(1.69186 1.23101 1.28447e-19)
(3.65947 -0.939564 0)
(1.40448 -0.669446 1.16524e-19)
(3.30935 -0.438957 0)
(2.22468 0.0702046 3.12839e-20)
(2.10463 -0.131224 -8.52107e-20)
(0.414962 -0.0103781 9.72247e-19)
(1.05107 -0.062227 0)
(1.56484 0.272276 2.11873e-19)
(1.94031 0.0311185 1.34136e-19)
(0.546261 -0.270389 0)
(1.73126 -0.013325 0)
(2.04225 -0.172584 0)
(0.144895 -0.0701901 7.15466e-20)
(0.44533 -0.126691 -2.38841e-20)
(2.42911 -0.128491 0)
(1.97381 0.0435508 0)
(1.55126 -0.492522 5.99502e-20)
(-1.74909 0.227205 0)
(2.41035 0.40055 -4.28445e-22)
(2.92193 1.08216 2.04138e-19)
(2.03656 0.0717209 8.66679e-21)
(1.82566 0.407428 -4.04066e-21)
(0.926985 0.42201 6.58733e-19)
(2.97892 1.28187 -2.16641e-19)
(2.40115 -0.231195 6.63815e-21)
(2.02756 -0.0365111 1.47937e-19)
(1.61263 -0.176365 -2.37585e-19)
(1.90554 0.691545 -2.16788e-20)
(2.00312 0.00684905 0)
(0.339047 -0.934567 -3.5773e-19)
(-2.02922 1.5137 0)
(1.29217 -0.590046 2.79296e-21)
(1.73326 -0.419127 0)
(2.88189 0.229012 0)
(1.29296 -0.618302 -2.6263e-19)
(2.0618 0.00816562 -4.32665e-21)
(-0.355652 0.378484 -1.78882e-18)
(2.06391 0.00816601 6.44932e-21)
(1.82355 -0.708834 3.55934e-19)
(3.08922 0.950972 2.34879e-19)
(-1.25394 1.6073 1.72569e-18)
(2.08516 0.0257043 2.62571e-20)
(2.10407 -0.846877 1.32663e-19)
(2.00233 0.0302198 -2.35095e-19)
(4.01386 -1.1474 0)
(1.81873 -0.128097 -4.49975e-19)
(1.83912 -0.491828 3.67994e-19)
(2.02504 0.124607 -4.94428e-19)
(0.843918 -0.414425 -4.11133e-20)
(1.60618 1.22548 -1.28495e-19)
(2.89182 1.16902 3.0831e-19)
(2.64759 -0.642364 0)
(1.92396 -0.161095 0)
(1.22959 0.649845 -7.27528e-19)
(2.13624 -0.147181 9.19835e-20)
(1.34786 -0.657221 0)
(2.29874 -0.115679 -1.2767e-19)
(2.02766 -0.0109222 -2.80098e-19)
(1.1516 -0.574384 -2.59343e-20)
(1.38372 -0.701707 1.06405e-19)
(2.52032 0.204168 -4.52767e-21)
(1.51919 -1.93346 2.67412e-20)
(2.38729 -0.371697 -2.76963e-19)
(1.97095 -0.483848 2.55697e-19)
(3.35492 0.760623 8.06842e-19)
(1.55229 -0.642291 3.41042e-19)
(1.98003 0.0975358 -1.01156e-21)
(1.00436 0.258994 4.79497e-19)
(2.14642 2.11076 0)
(1.71267 -0.480586 2.13753e-19)
(1.18786 -0.76589 0)
(-2.33203 1.1252 -3.68619e-18)
(2.20579 -1.85847 0)
(0.586122 -0.268929 -1.30589e-19)
(1.64237 -0.711251 -4.78271e-19)
(2.65066 0.698025 -3.88372e-19)
(2.07321 -0.854779 0)
(1.46791 -0.647042 0)
(2.61941 -0.442261 0)
(2.01812 0.12217 1.09773e-19)
(3.63437 -0.740534 -2.58255e-18)
(-0.100836 0.104718 1.37592e-18)
(1.60452 -0.339975 -7.45978e-21)
(3.4938 0.737996 -8.85054e-19)
(2.00658 0.182339 0)
(1.2451 1.93641 2.12857e-19)
(2.55728 1.24819 1.37558e-19)
(2.5927 -0.0932417 -5.97611e-19)
(1.55168 -0.724774 2.95426e-19)
(2.97195 0.0868621 -4.2601e-21)
(1.16105 -0.564722 5.35472e-19)
(2.24299 0.511526 0)
(2.09697 -0.0700281 8.35138e-20)
(1.39244 -0.430265 3.61345e-20)
(1.96596 -0.0631841 2.89878e-20)
(3.29869 0.424711 -4.72637e-19)
(1.74643 -0.454432 0)
(2.56233 0.652388 0)
(3.50402 -1.28319 0)
(-1.45701 1.2788 0)
(1.89829 0.0230761 0)
(1.43831 -0.53487 1.46671e-19)
(3.73586 0.54916 6.31329e-19)
(1.47754 -0.612831 4.06045e-19)
(2.02191 0.0191938 2.32907e-19)
(1.08633 -0.770779 0)
(2.07086 -0.870031 2.8392e-21)
(-0.566496 -0.189494 0)
(1.1646 -0.869121 -7.32914e-20)
(-0.586636 0.0449325 7.39479e-19)
(4.08221 0.237209 -3.95135e-19)
(1.9421 0.0721371 2.47789e-19)
(1.98557 0.268445 -7.43657e-20)
(3.59426 -0.694064 -4.38369e-19)
(2.36558 -0.0430262 0)
(-1.86246 1.91421 1.61731e-18)
(2.00301 0.0196736 0)
(1.57003 0.881496 1.67329e-20)
(2.50119 -0.10941 0)
(2.0795 0.187568 -9.85587e-20)
(2.10185 -0.124351 0)
(0.942619 -0.364801 -2.95068e-19)
(-1.09776 0.0495191 8.16129e-19)
(1.99329 -0.0821206 -8.94832e-20)
(1.37259 0.351984 4.25189e-19)
(0.262183 -0.131487 -1.47129e-19)
(1.88575 -0.411278 0)
(1.02784 -0.214994 -1.12977e-18)
(1.97615 0.113547 5.74796e-21)
(3.79294 -0.0356289 -1.31407e-18)
(1.90741 -0.00412901 7.94546e-21)
(2.70407 -1.23491 8.70333e-19)
(3.70617 0.433653 0)
(1.78284 -0.801824 -7.61707e-20)
(1.45676 -0.664701 0)
(2.57283 -0.185577 1.06504e-20)
(0.486404 -0.146941 7.24575e-20)
(0.769976 -0.94346 0)
(2.40696 0.388432 0)
(1.63311 -0.687056 -7.95919e-20)
(2.53459 0.575864 0)
(1.78331 1.74351 6.13304e-20)
(3.02636 0.778697 -3.64594e-19)
(-2.4372 1.37944 -1.12786e-18)
(1.3738 -0.669265 -4.34634e-20)
(1.97857 0.0648804 -8.2794e-21)
(1.03583 -0.602714 -1.23011e-21)
(-1.34362 0.372184 -5.98757e-19)
(1.85424 0.00133886 4.77296e-19)
(1.0745 -0.529161 2.94496e-20)
(0.430379 -0.204019 0)
(2.38417 0.184985 -8.52797e-20)
(1.54069 -0.690046 1.00246e-19)
(0.422733 0.20885 7.83906e-20)
(3.59666 0.164781 9.60594e-19)
(2.90427 1.55095 0)
(1.8412 -0.525862 -3.6974e-19)
(1.91988 0.42606 8.86274e-22)
(3.36598 0.559704 -1.03886e-19)
(2.48846 -0.140094 -2.77642e-19)
(1.37942 -0.725046 2.8132e-20)
(0.550657 -1.31958 2.86748e-19)
(1.49242 -0.599017 -9.79709e-20)
(1.36256 -0.698178 9.54321e-22)
(2.3464 -0.200435 -2.20074e-19)
(1.35665 -0.726762 -3.15181e-20)
(1.80054 -0.368267 0)
(1.91847 -0.169493 -4.35472e-19)
(-0.171832 1.79576 0)
(1.37248 -0.687491 -2.90395e-20)
(0.748114 1.03834 2.33834e-19)
(-0.706684 1.25407 1.10382e-18)
(1.9795 0.128604 -3.09655e-21)
(0.310673 -0.219986 1.19022e-20)
(-0.509833 0.705181 0)
(2.20184 -0.818494 3.50405e-19)
(2.17439 -0.857699 8.37709e-20)
(-0.655224 1.47359 -9.12138e-19)
(1.76523 0.513845 0)
(1.69279 0.51574 0)
(0.222049 0.321379 0)
(1.54964 -0.52346 -3.55791e-20)
(1.88969 -0.0286774 -4.26228e-19)
(1.35133 0.149352 0)
(1.76622 -0.791537 0)
(2.30819 0.223726 -6.13039e-21)
(1.93044 -1.33805 4.66677e-21)
(2.15563 0.251268 -2.82645e-19)
(1.65713 -0.368594 -4.18727e-20)
(1.7971 0.0507582 3.86261e-20)
(1.95496 0.0458545 -1.92631e-20)
(1.9476 0.16392 -1.81478e-20)
(2.02121 0.560329 -2.3489e-20)
(1.95081 1.17366 0)
(-1.10847 0.25838 4.31549e-20)
(-1.37672 1.89708 0)
(1.03077 0.142523 0)
(2.85258 0.118334 -4.58077e-19)
(0.927169 -0.827301 0)
(2.47606 0.275887 0)
(1.90535 -0.141235 6.70777e-19)
(1.88415 -0.832326 0)
(2.00215 0.192274 3.47287e-19)
(3.3731 0.305271 4.70544e-19)
(3.154 0.347016 1.60248e-19)
(1.99286 0.117571 1.18147e-21)
(1.16548 1.29522 2.38722e-19)
(2.218 -0.855639 4.03243e-21)
(1.97319 -0.786297 -6.29292e-21)
(1.1897 -0.465695 4.25539e-19)
(1.11424 -0.609591 0)
(0.957589 -0.472469 0)
(0.602409 -0.530151 -1.44419e-19)
(-0.954896 -0.0127465 -1.08666e-18)
(1.44232 -0.661839 0)
(1.08883 -0.5734 5.40738e-20)
(-1.42771 0.486703 0)
(-1.6678 2.00259 1.66855e-18)
(1.14398 -0.530886 -5.51291e-19)
(3.35902 0.0780866 -2.19588e-20)
(3.11294 0.530327 3.82429e-19)
(1.23732 -0.422548 8.61144e-20)
(2.43976 -0.1308 1.25005e-19)
(2.34036 0.859042 0)
(2.49757 0.765734 0)
(1.09827 0.0208612 0)
(0.286132 -0.179978 -7.56084e-19)
(1.4378 -0.541888 0)
(2.33849 0.628786 0)
(2.03223 0.0234356 0)
(2.47444 -0.38064 -5.37811e-20)
(-2.12844 1.55847 5.71594e-19)
(2.04812 -0.793339 -1.92612e-19)
(1.50128 -0.561404 9.23248e-20)
(1.67747 0.296285 0)
(0.728642 -1.13625 0)
(1.98317 -0.604765 -3.40869e-19)
(1.60453 0.563482 6.26463e-19)
(0.19051 -0.310376 -1.14354e-19)
(2.1041 0.174055 -8.50335e-21)
(1.75262 -0.462657 3.91285e-19)
(1.01042 0.435581 -1.03379e-18)
(-1.10114 -0.148235 0)
(1.2376 1.30182 -5.60208e-19)
(0.404065 0.362401 -6.48364e-19)
(3.15993 0.145614 0)
(2.29127 -0.0288113 0)
(1.73309 0.0184304 0)
(2.0468 0.0236592 -4.14225e-19)
(1.40613 0.296157 -4.36354e-19)
(1.68703 0.13321 0)
(3.46509 1.35719 1.78322e-18)
(1.8196 -0.813912 3.57162e-19)
(2.49265 -0.345192 6.73221e-20)
(0.918491 -0.499043 4.49492e-20)
(2.06532 -0.296551 0)
(2.43246 0.109751 5.46228e-20)
(1.80359 -0.427207 0)
(1.50487 -0.705419 -9.77746e-20)
(1.75818 -0.796975 0)
(2.14549 -0.783112 4.24298e-19)
(1.51374 -0.303378 7.19777e-23)
(2.03154 0.0636533 -1.00584e-20)
(2.49209 -0.366465 0)
(1.84245 -0.786821 0)
(1.62004 -0.701037 -4.99863e-19)
(2.34428 0.342284 4.73211e-22)
(1.24945 -0.822151 3.69784e-20)
(0.879452 -0.423698 4.31955e-19)
(1.92848 -0.0565742 0)
(1.59793 0.209876 -6.62651e-19)
(2.2359 0.018123 -3.90522e-20)
(1.56211 -0.526971 -3.94114e-20)
(2.04713 0.102478 -1.34998e-20)
(2.05942 0.117013 0)
(1.1992 -0.353516 6.05487e-19)
(0.971168 0.197817 -6.61781e-19)
(3.72829 0.389671 1.0333e-20)
(1.85561 0.267053 -7.45257e-19)
(0.990488 -0.513499 3.89846e-20)
(0.367436 0.272802 -1.55068e-18)
(1.5999 -0.291717 -8.02255e-21)
(2.05415 -0.0375699 -3.89059e-20)
(1.91295 0.413046 1.54754e-18)
(-0.543108 0.102883 1.13845e-20)
(1.03836 -0.621691 7.29958e-20)
(1.18572 -0.83323 7.7282e-20)
(1.77914 -0.0314364 2.32465e-20)
(2.38252 -0.190325 0)
(4.12187 -0.746652 2.40243e-18)
(1.16204 -0.565926 2.42053e-19)
(1.66045 -0.233278 2.34139e-19)
(-0.744479 -0.00159803 0)
(1.65358 -0.395582 -6.27577e-20)
(2.0108 0.00379521 1.33667e-21)
(1.91885 0.0920504 0)
(-1.79968 0.399682 6.62405e-19)
(1.44214 -0.874901 2.60843e-20)
(1.76494 0.304926 0)
(1.07445 -0.410296 0)
(1.61137 -0.500338 -5.79928e-20)
(1.61875 -0.600009 -1.23985e-20)
(2.77328 0.120018 1.64438e-19)
(0.330403 -0.308953 0)
(2.01848 0.0166611 -3.73673e-19)
(1.9931 -0.460694 -5.66133e-20)
(2.20787 -0.757894 2.42323e-20)
(1.24249 -0.484314 5.3522e-19)
(0.97289 -0.715466 -6.46757e-20)
(1.05234 -0.935762 5.36487e-20)
(3.61212 0.341452 -8.94882e-21)
(1.92301 -1.13077 0)
(2.62032 0.838112 -1.41741e-18)
(1.6078 -0.648482 2.50313e-19)
(2.11713 1.96914 1.86681e-19)
(0.851305 0.604545 0)
(1.17483 -0.23777 -5.34825e-19)
(1.24766 -0.5298 -6.49385e-19)
(0.687805 -0.679388 9.19078e-20)
(-2.05131 1.73593 -1.77579e-18)
(2.53742 1.64105 0)
(-0.485638 -0.169881 -8.68055e-19)
(2.32166 0.553228 0)
(-0.601651 1.77343 -1.41712e-18)
(0.0436795 -0.383713 1.48355e-18)
(-0.282653 -1.0377 0)
(0.813176 -0.799211 3.08653e-20)
(1.63882 -0.117268 -9.69258e-20)
(-2.2318 1.44643 6.69551e-19)
(1.69828 -0.678393 4.53537e-19)
(0.441823 -0.462195 -2.66907e-19)
(1.21416 -0.553877 0)
(2.01822 0.011729 1.33376e-19)
(2.06694 0.323603 0)
(2.27751 0.214853 -2.24762e-21)
(-0.408683 -0.0325157 -1.63906e-18)
(0.590045 -0.235439 2.82323e-19)
(2.05515 0.123382 0)
(1.92278 -0.76769 -3.40736e-19)
(2.62042 -0.336409 1.08845e-19)
(0.912445 -0.98658 1.40106e-19)
(1.46266 -0.830278 0)
(0.944567 -0.932737 -1.24581e-19)
(3.54321 0.49608 -9.69698e-19)
(1.64879 0.203671 8.47931e-19)
(1.84263 -0.327931 0)
(2.08564 -0.13891 2.17578e-19)
(-0.239685 0.642777 9.62276e-19)
(-2.32006 1.33225 -3.53283e-19)
(2.20831 -0.584446 1.32024e-19)
(1.09904 -0.54793 0)
(1.71517 -0.12777 -2.42828e-20)
(2.00686 0.0494754 5.02207e-22)
(2.54979 -0.355608 1.02425e-19)
(2.20033 0.0381122 0)
(0.735444 -1.24201 1.10345e-19)
(1.6776 -0.455814 -5.2621e-22)
(1.30452 -0.386021 6.64469e-20)
(2.97888 0.209659 0)
(2.07598 -0.811057 -1.50425e-19)
(0.576234 -0.621495 1.78985e-19)
(1.76744 -0.414217 -4.89208e-19)
(0.0803108 0.284482 0)
(1.56598 -0.536959 2.42066e-20)
(2.09639 -0.788391 1.2348e-19)
(0.969117 -0.577435 -7.53977e-20)
(1.80786 0.446559 0)
(-2.0109 1.19896 2.27122e-18)
(1.6026 -0.505583 0)
(0.273732 -1.3148 3.64092e-19)
(1.68031 -0.634501 0)
(1.86524 -0.09558 -2.47945e-19)
(2.20367 -0.239674 -2.51883e-19)
(3.1432 1.21697 -8.9997e-19)
(1.54853 -0.443909 0)
(2.03006 -0.871681 -2.32823e-19)
(2.05323 -0.00781617 0)
(2.32753 0.383544 0)
(2.11074 -0.871162 6.67771e-20)
(0.498522 -1.171 1.20239e-19)
(0.601308 -0.0737781 1.77555e-19)
(2.13275 -0.578518 -7.9356e-20)
(1.69447 0.310277 2.74482e-19)
(1.18794 -0.65313 -1.20533e-20)
(2.14185 0.388714 1.32124e-19)
(-1.32276 -0.107357 -1.24857e-19)
(1.94543 -1.75052 0)
(2.4173 0.20026 0)
(-0.805062 -0.180038 0)
(1.38063 -0.725159 1.22315e-19)
(1.20202 -0.42287 -3.76027e-19)
(1.50026 0.130959 0)
(0.807204 -0.386452 1.1905e-19)
(2.30612 -0.156179 -1.73988e-19)
(1.03551 -0.507817 -4.34928e-20)
(1.42231 -0.509332 -1.221e-19)
(2.19677 -0.877642 0)
(-2.30597 1.26807 1.87893e-18)
(-1.97098 0.490809 -1.71174e-18)
(-0.77522 -0.564338 0)
(-0.76806 -0.12825 -1.12341e-18)
(2.02325 0.0127498 -2.28791e-21)
(2.62332 0.236303 4.22817e-20)
(1.98584 0.0324456 2.4761e-19)
(2.84417 0.939017 -3.95074e-19)
(2.35955 0.13784 8.30333e-21)
(0.420294 1.60286 0)
(1.97965 -0.780072 0)
(0.640784 -0.305515 1.18815e-19)
(-1.47101 1.73343 0)
(1.64962 -0.372482 -6.36044e-20)
(2.18404 -0.790833 -2.2241e-19)
(1.01187 -0.477525 4.52764e-19)
(2.02341 -0.0889979 -7.25669e-20)
(1.76121 0.396632 -2.70994e-19)
(1.57181 -0.633254 -2.46386e-19)
(1.6514 -0.66664 -4.56336e-19)
(1.59945 -0.581767 0)
(1.74998 -0.683902 4.32262e-19)
(1.97963 -0.0484361 0)
(2.53823 -0.389816 -5.46379e-21)
(2.08861 1.24795 7.91164e-21)
(1.70804 -0.531673 -2.89047e-20)
(2.27098 -0.404407 -2.13275e-19)
(-1.52077 1.7961 -1.33421e-18)
(-1.34533 0.200794 0)
(1.59697 -0.805162 -3.23791e-20)
(1.24094 -1.70486 -2.68874e-19)
(2.20965 0.566905 -1.42338e-19)
(1.86741 -0.747805 3.98876e-19)
(2.12942 -0.00575724 -3.71236e-21)
(-2.15318 1.54427 6.3218e-19)
(1.8293 -0.769719 -7.72904e-20)
(0.381377 0.104824 0)
(1.13586 -0.556117 1.28103e-19)
(1.80616 -0.388198 2.58583e-19)
(1.96802 -0.00712049 -1.77593e-22)
(1.21819 -0.534781 9.52838e-19)
(-0.445193 1.53628 -3.65489e-20)
(1.69158 0.593035 0)
(1.40844 -0.717354 -4.9203e-20)
(0.772886 -1.10835 -1.15341e-20)
(1.11317 -0.345806 -7.1877e-19)
(1.39345 -0.695666 5.56003e-20)
(3.08544 0.695249 -4.04885e-19)
(2.17118 0.495096 7.49956e-21)
(0.996537 -0.412001 3.255e-19)
(1.81164 -0.36749 0)
(2.4005 0.0952342 -1.37261e-19)
(2.17846 0.0413306 -3.77914e-21)
(3.10819 0.664358 -3.89707e-19)
(1.18973 1.09792 0)
(3.40888 0.658451 3.88908e-20)
(-0.787014 1.69512 1.36633e-18)
(1.6532 -0.723011 9.67454e-19)
(1.3678 0.896521 1.5152e-20)
(3.15145 -0.472146 -1.34549e-18)
(-2.34522 1.28999 3.93534e-18)
(2.033 -0.772881 3.94684e-19)
(2.0804 0.00939041 -4.24416e-21)
(0.0762588 0.22782 1.09743e-21)
(2.45852 -0.108211 3.13209e-20)
(0.672447 0.0692457 0)
(2.04724 0.00903076 0)
(2.36856 0.402485 0)
(1.80075 -0.692411 -3.75293e-19)
(1.70633 -0.676315 7.95255e-20)
(-0.40183 0.977598 0)
(1.25823 -0.382359 -1.55666e-19)
(0.167315 -1.61449 0)
(3.0898 -0.767701 0)
(-0.108913 1.47001 0)
(1.98362 0.0241696 0)
(-2.11393 1.37567 -7.20348e-19)
(-1.50366 -0.0293152 0)
(2.42885 -1.26195 3.84897e-19)
(1.69956 -0.0537418 0)
(1.99507 0.0496587 0)
(1.95522 0.189968 2.08167e-21)
(-1.31036 0.0547998 0)
(1.89561 -0.906866 0)
(-0.290479 0.361576 0)
(2.24936 0.0463957 2.05558e-20)
(2.14417 0.447022 0)
(2.19962 -0.856819 -8.54518e-21)
(1.08095 0.349768 -4.59956e-20)
(-2.2661 1.03877 -5.63216e-19)
(2.03461 0.0442214 5.97705e-19)
(-0.182152 -0.00148195 -3.40237e-20)
(1.10171 0.855951 -5.4659e-19)
(1.52091 0.682715 0)
(2.42865 -0.354972 8.34639e-21)
(1.64924 -0.18213 -2.28608e-19)
(1.63564 1.61479 1.29985e-19)
(1.79616 0.399288 3.77184e-19)
(0.818206 -0.299183 -6.84794e-19)
(1.55979 -0.688136 -3.80378e-19)
(2.22422 -1.60147 5.56923e-20)
(1.51638 -0.879921 0)
(2.37147 -0.499843 9.22032e-22)
(1.58809 -0.848446 3.81924e-20)
(2.56772 0.196786 -7.75545e-20)
(0.26494 -0.393087 0)
(1.89281 0.0588639 -2.80682e-19)
(3.181 0.580485 -1.10962e-18)
(1.39632 -0.557392 4.9297e-19)
(1.27351 -0.575269 -5.95417e-19)
(1.69745 -0.783249 0)
(1.80647 -0.793532 0)
(2.16486 -1.16116 3.29567e-19)
(2.31605 -0.397173 -1.32354e-19)
(3.18622 -0.084144 -5.68461e-19)
(1.84972 0.0175794 1.08805e-20)
(1.2401 -0.351764 -1.44579e-19)
(1.73719 -0.529941 4.14502e-19)
(2.44999 0.230345 0)
(2.33568 0.235333 2.79109e-20)
(-2.21667 0.830308 -2.71646e-18)
(1.76437 -0.95321 2.1787e-19)
(1.07414 -0.212307 -2.95151e-20)
(-0.464034 0.0734762 9.12748e-19)
(3.11088 -0.0304431 4.74687e-19)
(2.55064 0.603224 8.85531e-20)
(2.38641 0.477061 0)
(1.31373 -0.776972 0)
(2.25938 -0.861179 -1.54908e-21)
(1.18441 -0.264578 0)
(1.88152 -0.392406 1.71995e-19)
(1.66333 0.260791 4.7858e-19)
(1.68905 0.48644 -1.37886e-19)
(1.62594 -0.672153 9.89148e-19)
(2.00056 0.07708 -3.4233e-22)
(1.74955 0.0402284 0)
(1.90337 -0.00857007 -4.10666e-21)
(-0.0496937 1.14078 -8.32799e-19)
(2.16216 0.199144 0)
(2.63726 -0.383753 0)
(1.95425 -0.788091 1.45611e-19)
(1.94305 0.519629 2.00827e-19)
(1.11724 -0.171175 0)
(2.16784 -0.725525 2.28958e-21)
(2.33826 0.00429607 1.2456e-19)
(2.29502 0.2739 1.39471e-20)
(1.75076 0.497052 4.06191e-19)
(1.39706 -0.704654 -5.92046e-20)
(1.44739 -0.41183 0)
(-1.16433 1.771 -3.12949e-18)
(0.549418 -0.243277 1.02369e-18)
(2.03651 0.00145575 1.55812e-20)
(-1.09243 1.90121 -1.42449e-18)
(1.84044 -0.759975 2.82677e-20)
(2.53183 0.250508 2.08758e-19)
(1.94512 -1.63994 0)
(2.01299 0.144562 9.92801e-22)
(1.84941 0.0311591 8.75355e-20)
(2.24788 0.00749106 -1.56706e-19)
(2.20654 0.558343 -9.21996e-20)
(2.2413 -0.820643 0)
(1.35081 -0.665468 0)
(2.36716 -0.00640466 0)
(2.30964 0.36102 -3.68794e-20)
(1.08584 -0.509395 7.10118e-19)
(2.50736 1.69269 -1.12715e-19)
(1.51348 -0.135466 0)
(-0.55149 -0.187521 -1.0473e-19)
(1.35826 -0.744809 5.54634e-20)
(-0.420344 -1.16914 0)
(1.94811 0.23074 -1.23562e-19)
(1.68995 0.249503 -1.59989e-19)
(2.50383 -0.379867 -5.62892e-20)
(2.03878 0.0924628 -1.01226e-20)
(0.717405 -0.26112 0)
(2.13669 0.126627 -1.3574e-19)
(2.05003 -0.463401 0)
(2.04548 -0.269474 8.20574e-21)
(0.998254 0.0684617 0)
(2.24639 0.763722 4.53902e-20)
(1.71966 -0.69717 -4.41873e-19)
(2.53671 0.657557 0)
(1.84068 -0.0950509 -4.34816e-19)
(2.04909 0.112152 1.54807e-20)
(1.70841 -0.219775 0)
(1.16942 -0.554006 0)
(0.5526 0.181233 -8.70102e-20)
(2.54991 -0.170379 -1.09383e-20)
(1.51731 -0.773405 -4.36067e-20)
(0.714788 -0.455087 -1.39762e-20)
(2.43649 -0.14196 2.06111e-21)
(1.92234 0.493141 6.25938e-19)
(1.7415 0.412225 -1.75208e-21)
(2.19148 0.544525 0)
(3.45524 0.506199 5.03785e-19)
(1.74738 -0.796167 0)
(1.54779 -0.712216 -4.15909e-19)