/*--------------------------------*- C++ -*----------------------------------*\
| =========                 |                                                 |
| \\      /  F ield         | OpenFOAM: The Open Source CFD Toolbox           |
|  \\    /   O peration     | Version:  2306                                  |
|   \\  /    A nd           | Website:  www.openfoam.com                      |
|    \\/     M anipulation  |                                                 |
\*---------------------------------------------------------------------------*/
FoamFile
{
    version     2.0;
    format      ascii;
    arch        "LSB;label=32;scalar=64";
    class       surfaceScalarField;
    location    "7.75";
    object      phi;
}
// * * * * * * * * * * * * * * * * * * * * * * * * * * * * * * * * * * * * * //

dimensions      [0 3 -1 0 0 0 0];

oriented        oriented;

internalField   nonuniform List<scalar> 
20045
(
0.249383
-0.273137
0.0237541
-0.534083
0.192244
0.341839
0.198303
1.01376
-1.21206
-0.192214
0.266288
-0.0740736
-0.437532
0.407005
0.0305269
-0.313158
1.13679
-0.823633
-0.490248
0.178358
0.31189
0.029438
0.221725
-0.251163
0.244593
0.208623
-0.453216
-0.410598
-0.0496743
0.460273
-0.228435
-0.171888
0.400323
1.12093
-0.536317
-0.584613
0.179999
-0.181001
0.00100247
-0.628724
0.551207
0.0775171
-0.135364
0.509545
-0.37418
-0.536666
0.126068
0.0273811
-0.0871831
0.059802
0.22615
-0.264493
0.0383432
-0.815141
1.20382
-0.388677
-0.376852
0.0231043
0.353747
-0.280708
0.214728
0.0659803
0.0613125
0.118686
-0.068718
-0.465365
0.57472
0.545964
-1.12068
0.406372
0.108338
-0.514711
-0.573418
1.14814
0.0512422
-0.0545118
0.00326956
-0.724592
1.35688
-0.632289
0.838096
0.153185
-0.991281
-1.36831
0.736921
0.631384
-0.230157
0.291331
-0.061174
0.688411
-0.500942
-0.187469
-0.333362
0.852395
-0.519033
1.25948
-0.731708
-0.527773
-0.28376
0.313198
1.01231
-0.489056
-0.523258
0.637638
0.0528167
-0.690455
-0.0297673
0.185494
-0.155727
-1.008
0.490152
0.517847
0.302269
0.264603
-0.566872
0.0136965
0.221826
-0.235523
0.0647149
-0.0930316
0.0283167
1.0659
-1.0668
0.000903432
0.73939
-0.276791
-0.462599
0.346135
0.393254
0.505306
0.615624
-0.105447
0.00819482
0.0972517
0.654993
0.241264
-0.896257
0.772006
-0.134368
0.101756
0.992427
-1.09418
0.652982
-1.09959
0.446605
0.908806
-0.646392
-0.262414
-0.590042
-0.413998
1.00404
-0.0457036
-0.152331
0.198035
0.357892
-0.22135
-0.136542
-0.346477
-0.0910545
-0.264465
1.02169
-0.757228
0.773617
0.105095
-0.878712
0.646796
-0.980158
0.743685
-0.480321
-0.263364
-0.261883
-0.14808
0.409963
0.359964
0.383721
0.217955
-0.884014
0.666059
-0.154237
-0.126471
0.861337
-0.199299
-0.662038
0.71841
0.0353948
-0.753805
0.0940322
-0.260227
0.166195
-0.334529
0.0764109
0.258118
0.431995
-0.187402
0.786697
-0.800239
0.0135426
0.214914
-0.120882
0.100588
0.257304
-0.128168
-0.528999
0.657167
0.0599781
-0.10415
0.0441722
0.790564
-0.227086
-0.563478
0.681025
-0.94549
0.0673209
0.723243
0.23934
-0.374704
0.125878
-0.114473
-0.011405
0.140677
-0.621431
0.480754
0.516422
0.584163
-1.10058
0.447747
-0.350667
-0.0970803
0.67744
-0.459485
-1.34304
0.23119
1.11185
0.00803228
0.241351
-0.261041
0.298062
-0.0370218
0.296783
-0.657887
0.361104
-0.801653
0.03281
0.768843
0.51426
0.0811955
-0.595455
-0.41638
0.382443
0.0339371
-0.693566
-0.0984347
0.792001
0.37245
-0.0741598
-0.29829
0.203219
-0.291851
0.088632
-0.0848924
-0.405486
0.490379
0.296573
-0.317396
0.0208227
0.76596
0.159746
-0.925705
0.043718
0.00752419
-0.0621355
0.286778
-0.224642
0.618312
-0.316043
0.0537644
-0.113253
0.0594883
0.684341
0.327974
-0.218528
-0.410196
0.271835
-0.333971
-0.186398
0.960015
0.00126803
-0.262309
0.119148
-0.0653836
0.226785
0.60706
-0.833844
0.526317
-0.931873
0.405556
0.0204318
-0.215952
0.187237
0.0287152
-0.101899
0.13037
-0.0284708
0.584487
-0.45207
-0.132417
-0.249276
0.203572
0.623884
-1.21093
0.587045
-0.0879413
0.159172
-0.0712307
0.0227908
-0.125966
0.103176
0.573267
-0.166895
0.887998
0.371483
-0.592765
0.464598
0.640002
-0.867827
0.227826
0.236734
-0.0105836
-0.40784
0.145957
-0.392141
0.317768
0.0743727
-0.481682
0.0518597
-0.295881
0.244022
0.623374
0.285432
0.552774
-0.721898
0.169124
0.811493
0.0939253
-0.905418
-0.989278
0.723558
0.265721
0.0927792
-0.85227
0.759491
0.946952
-0.323578
0.165921
-0.157727
0.0855059
-0.0300484
-0.0554575
-0.0330261
0.0248555
0.00817057
0.571266
0.400541
-0.971807
0.596564
-0.573989
-0.0225755
-0.170065
0.0978861
0.0721786
-0.155436
-0.0605161
0.988137
-0.348135
-0.332184
0.348793
-0.0166092
0.628565
-1.1853
0.556732
0.167095
-0.757138
0.544676
0.226923
-0.771599
0.706756
-0.56608
0.959925
-0.134709
-0.825216
0.573416
-0.874685
0.301269
0.974772
-0.623129
-0.351644
-0.126683
0.222973
-0.09629
-0.0456871
1.12579
-1.08011
1.07358
-0.235481
-0.825002
0.0259458
0.799057
-0.484892
0.399146
0.0857453
0.987235
-0.470814
0.164386
0.283361
-0.629256
0.777332
-0.148076
-0.881134
1.07944
0.00940952
-0.162051
0.152641
-0.0820091
0.11813
-0.0361214
-0.0182377
-0.18664
0.204878
0.545646
0.375211
-0.920857
1.40113
-0.702479
-0.698651
-0.222885
0.204647
0.345655
-0.655236
0.309581
0.0762571
-0.0115421
-0.83279
-0.454732
0.682007
-0.227275
-0.666433
0.477976
0.188456
-0.0116211
-0.0262329
0.037854
0.470046
0.504726
-0.0166912
-0.0163349
-0.0152812
0.100787
-0.708393
0.0791376
-0.735054
0.931245
-0.196191
-0.669604
0.750503
-0.0808992
-0.567489
-0.435534
1.00302
-0.120065
0.400698
-0.280633
0.450978
-0.457391
0.00641316
1.02547
0.00425105
-1.02972
0.0126555
-0.760294
0.747638
-0.361479
0.906155
0.194395
-0.551835
0.357441
-0.554285
1.17817
-0.813221
0.546903
0.266318
0.130478
-0.126404
-0.00407358
0.522089
-1.26778
0.745692
-1.06443
0.339842
-0.593489
-0.453137
1.26578
-0.742142
-0.523642
-0.286716
0.300413
0.126394
-0.133736
0.0073421
-0.694886
-0.117838
0.812724
-0.93762
1.3113
-0.37368
0.945848
-0.715832
-0.230016
0.0770701
-0.242908
0.165838
-0.318966
-0.47044
0.789407
0.188276
-0.416711
-0.714551
0.80733
-0.717314
-0.22945
0.946764
0.0900835
0.0246002
-0.114684
0.152621
-0.607353
-0.271451
0.0412938
0.872498
-0.0610056
-0.140249
0.110482
-0.139571
0.172557
-0.0329852
-0.557639
1.10328
-0.852219
0.533253
-0.00364277
0.107935
-0.104292
-0.709432
0.138267
0.571166
0.280428
0.66542
1.33652
-0.814431
0.807221
-1.41946
0.612243
0.373111
-1.2226
0.849493
0.0330974
-0.409949
-0.490339
0.717124
0.656744
-0.969902
0.490976
-0.889403
0.398428
-1.4753
0.850459
0.624838
-0.0169902
-0.39939
0.180875
0.142
-0.322876
0.73916
-0.261652
-0.477508
-0.0858717
-0.78289
0.737203
-0.254427
-0.0777568
0.683815
1.06365
-0.853156
-0.210495
-0.01035
-0.126339
0.136689
0.667468
0.13512
-0.802588
0.131136
-0.39938
0.268244
-0.259494
0.800772
-0.541278
-0.434925
0.731708
0.573915
-0.37952
-0.0726883
0.228094
-0.155405
1.00621
-0.377645
0.0894557
-0.00796164
-0.0814941
-0.139071
-0.203455
0.342526
-0.104096
0.108129
-0.00403344
1.24484
-0.765254
-0.479587
0.246685
-1.1843
-0.11381
0.00971405
-0.864954
0.270857
0.594097
1.34831
-0.495912
0.244719
-0.979773
1.41932
-0.597985
-0.82134
-0.0119007
0.101984
0.876863
-0.493739
-0.383124
-0.612213
0.1367
0.475513
-0.927282
0.928705
-0.00142279
0.420764
-1.10942
0.688654
0.0265627
-0.0325631
0.00600042
-0.463726
0.6265
-0.162774
-0.0427319
0.360347
-0.317615
-0.144708
0.0567662
-0.118679
0.0167797
-0.557068
-0.374805
0.412251
-0.873081
0.46083
-0.258942
0.380996
-0.122054
0.404751
0.283661
0.819356
-0.32838
-0.0391003
-0.0429088
0.706035
0.642272
-0.494085
0.0177674
0.476317
0.401672
0.47519
0.38502
0.124525
-0.379391
0.12045
-0.284634
-0.0301882
0.314822
0.0184046
0.112073
-0.848119
0.588625
0.0303674
-0.232802
0.202434
-0.935263
0.903475
0.0317877
-0.338473
0.467377
-0.128904
-0.210965
-0.107501
0.318467
0.76436
-0.831775
0.0674146
-0.896191
-0.579106
1.27414
-0.807543
-0.466601
-0.0928087
0.0824588
1.19959
-0.778823
-0.48255
0.894802
-0.491838
0.0599258
0.431912
0.896125
-0.23728
-0.658845
1.0809
-0.294462
-0.786435
-0.485004
-0.00683386
0.838177
-0.496416
-0.341761
-0.163645
0.787187
-0.623542
0.351462
-1.00205
0.650585
0.201486
0.20829
-0.409776
-0.0660528
0.00390341
0.0621494
1.30515
-1.10314
-0.202015
-0.51511
-0.474168
0.7068
0.356851
-0.857183
-0.0780796
0.150749
-0.289821
0.329033
-0.708913
0.37988
0.00364242
0.122752
-0.538851
1.11012
0.506606
0.738235
1.37823
-0.812895
-0.565333
-0.800547
0.571097
0.709659
-1.19332
0.483663
-0.628269
-0.0424423
0.670711
-0.261722
-0.156794
0.418516
0.553993
-0.208338
-0.149554
0.145911
0.457769
-0.0441298
-0.456813
-0.629303
0.852303
-0.223
-0.161708
0.0221365
-0.107948
0.0352595
0.111682
-1.03896
0.362517
-0.797442
0.07712
-0.1807
0.245781
-0.0650815
0.018116
-0.21033
-0.490531
0.373582
0.116948
0.34698
0.237507
0.536052
-0.140513
-0.395539
0.488284
0.10828
-0.351887
0.68092
0.571892
-0.0576328
-0.209086
-0.500346
1.12435
-0.905266
-0.219086
0.771226
-0.812835
0.395632
0.417203
0.799974
-0.868026
0.0680528
-0.437823
0.352931
-0.11356
-0.0565048
-0.118943
-0.574623
0.297974
-0.542805
0.244832
0.420165
0.418012
0.68172
-1.12567
0.443952
0.242866
-0.537714
0.294849
-0.972819
0.171166
0.0179346
0.354516
-0.545955
0.829863
-0.283908
-0.249676
0.304429
-0.0547534
-0.425883
-0.0643646
-0.125265
-0.229185
0.354449
0.0826277
0.000821471
-0.0834492
-0.312695
-0.172197
0.372819
0.445864
-0.818683
0.816848
-0.415176
0.276233
-0.448886
0.0110632
0.469818
-0.226952
-0.664239
-0.148982
0.33156
-0.354231
0.0226715
0.970402
-0.315409
-0.471565
0.755403
-0.283838
-0.114787
0.133978
-0.0191907
0.720545
0.0186158
-0.387802
-0.32111
-0.522301
0.938884
-0.416583
0.617317
-1.12306
0.505743
0.587485
0.686659
-0.0451807
0.0375034
0.00767731
0.0911801
-0.719449
0.642183
-0.968528
0.326345
0.0700966
-0.0101185
-0.0834956
0.63627
-0.355168
0.717686
-0.768612
1.14172
0.186247
-1.00139
-0.850548
0.460907
0.389641
0.641223
-0.105054
-0.536169
0.93775
-0.173389
-0.517846
-0.524728
-0.457437
0.612974
-0.0107082
0.209994
-0.199286
0.318612
-0.295508
-0.724114
0.640619
0.839079
0.226823
-0.791486
0.31992
1.05042
-0.343622
-0.311648
0.382569
-0.0709203
0.0287537
-0.630954
0.6022
-0.901455
0.16778
0.733675
0.727393
-0.727393
-0.398401
0.788069
-0.389669
0.420412
0.11564
0.651335
-0.34554
-0.305795
-0.965944
1.00383
-0.0378875
0.33672
-0.0386061
-0.298114
0.26024
-0.105766
-0.154474
0.107542
-0.318507
0.155213
0.460077
-0.942628
-0.860834
1.01185
-0.151014
-0.284579
0.657398
0.108665
0.00822371
-0.116888
-0.0416069
-0.113617
0.155224
-0.376331
0.409429
1.30477
-1.05267
-0.252106
-0.0833737
-0.525359
0.608733
-0.230925
0.250581
-0.019656
0.123784
-0.273913
0.150129
-0.91949
0.329725
0.589765
0.174506
0.0917816
-0.391784
0.0801357
0.00702726
-0.122761
0.115734
0.640462
0.664689
0.117454
-0.00878937
-0.0432654
-0.284259
0.327524
-0.509933
0.811969
-0.302036
0.00269481
0.0964737
-0.0991685
0.415262
-0.236904
0.64966
-0.204314
-0.445346
0.0125104
-0.417997
0.178394
0.847075
0.437575
0.294744
-0.732318
0.463211
-0.408111
-0.0550997
-1.01277
0.187765
-0.407706
0.165614
0.242092
0.498403
0.67005
-1.16845
-0.63114
0.588698
0.0454431
-0.91527
0.869827
-0.123943
0.201013
0.144487
-0.149531
0.00504459
0.0288115
-0.313446
0.0245173
0.020867
-0.0453843
-0.674887
-0.190066
0.619715
0.0488733
-0.0333179
-0.0155555
-0.121513
0.00672587
0.167108
-0.705953
0.538845
0.257161
0.53753
-0.794691
0.452889
-0.710037
0.868935
-0.158898
-0.720275
0.55663
-0.0272067
-0.0273051
-0.384824
-0.281609
-0.254288
0.0650728
0.189215
-0.885858
0.375925
0.667174
-0.750548
0.425016
0.625406
-0.309239
0.303848
0.00539096
0.389102
-1.13074
0.741634
0.149802
-0.264765
0.114963
0.327557
-0.715359
-0.633895
-0.0357081
-0.310528
-0.024001
0.087552
-0.0843312
-0.00322089
0.408582
0.00701909
-0.0250865
0.0180674
1.10731
-0.608906
-0.530734
0.870483
-0.339748
0.262702
0.181687
-0.444389
-0.357686
0.233743
-0.213765
-0.0405224
0.436866
0.214469
-0.187969
-0.679859
0.330215
0.00134461
0.612972
0.408852
0.163041
-0.958315
1.06007
0.128188
-0.463159
0.334971
-0.0865735
-0.827578
0.914152
-0.24587
0.265008
-0.0191387
-0.372073
0.252007
-0.570807
0.922269
0.948334
-0.374918
-0.425769
-0.0647618
0.00764992
-0.411661
0.404011
0.410973
-0.978462
-0.130655
-0.461339
0.591994
-0.0944481
0.251792
-0.157343
-0.649495
0.0492265
0.600268
0.939368
-0.698104
-0.0153625
0.0820249
-0.0666624
-0.212724
-0.0182019
0.180941
0.361943
-0.542884
0.100727
-0.126466
0.0257385
0.589369
0.33719
-0.926559
-0.360794
1.12675
0.0798348
0.0027929
-0.27702
-0.592723
0.869742
0.307969
0.680168
0.958767
-0.701606
-0.350112
0.224848
-0.0785723
0.0125196
-0.445586
1.15524
0.133009
-0.764995
0.631987
0.871776
-0.144237
-0.727539
-0.488847
0.70339
-0.214542
0.394493
-0.458901
-0.411405
0.870306
0.110625
-0.128777
0.0181523
-0.282752
-0.486238
0.76899
-0.172363
0.130756
0.0325636
-0.0441847
0.506771
-0.789523
-0.704241
-0.210266
0.914507
-0.0616188
-0.482327
0.543946
0.0213066
1.20873
-1.22955
0.0208254
0.205126
-0.142405
-0.062721
-0.00298281
-0.306256
0.257323
0.233056
-0.319444
0.0577225
-0.816233
1.02503
-0.208798
-0.248591
0.278958
0.277504
0.429253
-0.814036
-0.252769
-0.0691905
-0.0394794
0.10867
0.53341
-0.124558
-0.196687
0.216343
-0.0196565
0.34178
-0.384512
-1.18588
0.592387
0.939788
0.197003
-0.123009
0.246793
-0.201181
0.463883
0.922787
-0.462709
-0.203302
0.00661501
-0.108187
-0.615927
0.19316
0.213507
-0.204098
-0.919307
0.017852
0.00923614
0.207989
-0.0581869
-0.866498
0.632596
0.233902
0.663369
0.123328
0.185252
-0.0611552
-0.124096
0.282273
-0.259459
-0.0228139
-0.757694
0.268638
-1.04667
0.524365
0.314356
-0.0329571
-0.281399
-0.0273478
0.245266
-0.217918
1.00226
-0.00277813
-0.999486
0.148318
0.00874794
-0.157066
-0.135538
-0.256603
0.223756
-0.0205368
0.00863114
-0.00545564
-0.0031755
0.387659
-0.0488101
-0.338849
0.0198773
-0.0112461
0.819391
-0.659645
-0.0281338
-0.1407
0.168834
-1.02092
0.204691
0.0180826
-0.126996
0.398831
0.0055642
0.0433091
-0.0212254
-0.0178749
0.239227
0.163774
-0.403
0.618717
0.242621
0.437071
-0.308882
0.192076
-0.169286
0.0674304
-0.317106
0.602023
0.0440075
-0.646031
0.535417
-0.0382549
-0.497162
-0.52513
-0.349555
-0.347767
-3.8646e-05
0.347805
0.395513
-0.418154
0.0226408
1.113
-0.041051
-1.07194
-0.377514
0.0831961
0.294318
-0.49714
0.663473
-0.166333
0.589525
0.655926
-1.24545
0.289002
-0.437082
-0.272929
0.432398
-0.159469
0.213674
0.0941642
-0.307838
-1.17964
0.702072
0.477565
-0.00380885
-0.00164679
-0.844876
0.140635
0.299208
-0.184402
-0.114806
0.484484
-0.610071
0.125587
-0.0841468
-0.18899
0.184493
1.02423
0.820634
-0.138067
-0.682568
-0.845986
0.135949
0.339184
-0.54827
0.798114
-1.22577
0.427652
-0.0981952
0.279071
-0.00146272
-0.377406
0.33414
-0.157111
0.20897
-0.14024
-0.806307
0.946547
0.524628
0.674959
-0.745312
0.774253
-0.0289413
0.0831025
0.00444956
-0.605836
-0.250144
-0.110214
0.123105
-0.0128919
0.530423
-0.161969
-0.368454
0.00096317
0.0895283
-0.0904915
-0.0650605
0.549544
-0.779147
-0.0922879
0.871435
-0.718698
-0.251807
0.970505
0.467661
-0.345716
-0.121945
-0.179058
0.0170253
0.162032
-0.193083
0.0853425
0.10774
-1.01644
0.0482605
0.968181
0.0255909
0.183243
-0.208834
0.805482
-0.906885
0.101403
-0.515479
0.751277
0.334105
-1.08538
0.0110584
-0.121272
-0.0679266
-0.712729
0.780656
0.599208
-1.15349
-0.948026
0.82406
0.123966
0.117006
-0.016279
0.733964
-0.45646
-0.0469143
-0.234443
0.281357
-0.00899423
0.127054
-0.11806
-0.185771
0.895599
-0.709828
0.719946
-0.39974
-0.320206
1.03623
-0.980304
-0.0559251
0.769907
-0.275282
-0.494626
0.0428481
-0.219836
0.176988
-0.283682
-0.0121994
-0.92525
0.811502
0.113748
0.0534633
-0.978713
-0.269571
0.445489
-0.175918
-0.588793
-0.514343
0.182527
-0.157983
-0.024544
-0.798977
-0.221947
-0.173352
0.115767
0.0575851
-0.13759
0.268727
-0.881641
0.853619
0.028022
-0.168325
-0.0892654
-0.0148849
0.161365
-0.0130469
-0.596775
0.133049
0.128009
-0.153151
0.0251423
-0.705622
0.42461
0.281011
0.361341
-0.0246209
-0.239741
0.690302
0.0302425
0.349709
-0.0888427
0.187888
-0.0990451
-0.0792727
0.530251
-0.612554
0.395953
0.216602
-0.0353113
0.0315025
1.1717
-0.647076
0.969527
-0.580425
-0.239734
-0.148006
0.38774
0.500381
-0.966266
0.465885
0.552228
-0.613847
0.96245
-0.431736
-0.530714
-0.00357589
-0.516977
-0.0955769
-0.277287
0.828382
-0.551095
0.034802
-0.362335
1.16956
-1.06718
0.268204
0.383421
-0.181935
-0.083809
0.0499576
0.111061
-0.00293175
-0.492502
-0.497748
1.40408
-0.723055
-0.425671
0.339871
0.0858005
0.0606822
0.199557
-0.658803
-0.411022
1.06983
0.223948
0.330045
-0.00391657
-0.133676
0.137593
0.820763
-0.261432
0.0382823
0.223149
0.654894
-0.052871
-0.353911
-1.02976
0.168925
-0.204985
0.00997587
0.195009
0.586263
0.833061
0.505275
-0.44479
-0.0604851
0.981692
0.0545368
0.610271
-0.866625
0.256354
-0.829085
-0.0119511
0.841036
-0.753718
0.984789
-0.23107
0.128433
-0.00511533
-0.123318
-0.524008
1.12322
-0.230191
-0.253189
0.48338
0.0206781
-0.76599
0.202905
-0.0828949
-0.12001
-0.960346
1.25218
-0.291834
-0.229538
0.534853
-0.305315
1.16185
-0.511709
-0.650138
-0.00829393
-0.590695
0.598989
-0.131532
-0.0179999
-0.522839
1.11236
0.37464
-0.77304
1.09772
-0.480406
-0.176267
0.148133
-0.867033
0.0379482
1.18478
-0.503059
-0.0162532
-1.32678
0.237408
-0.0155815
0.35989
0.540477
-0.900367
0.54376
-0.123137
-0.420623
0.570312
-1.049
0.478687
-0.126814
0.00898665
0.117828
-0.198205
-0.479406
0.67761
0.341804
-0.274373
-0.263669
0.0419914
0.221678
0.11299
0.282634
-0.395623
0.0746368
0.107891
-0.893351
1.04392
-0.150571
-0.241737
-0.00413308
0.450488
0.201253
-0.65174
0.575812
0.584263
-1.16008
0.155054
0.486169
-0.0169256
0.976851
0.000632486
0.784928
-0.78556
0.0142065
-0.0115117
0.0657994
-0.00631963
-0.0594798
1.22318
-1.04865
-0.174538
0.445589
0.516861
-0.123152
0.0704133
0.0527382
-0.285301
0.800481
-0.515179
0.0110655
0.14748
-0.158545
0.611087
-0.947348
0.336261
-0.371793
-0.633017
1.00481
0.844871
-0.177403
0.294552
0.249208
-0.419821
-0.0295645
0.449386
0.280989
-0.806348
0.169127
-0.445476
0.276349
0.176899
-0.0710791
-0.10582
0.0374739
-0.169005
-0.0664975
0.594508
-0.528011
-0.165411
1.15784
0.766131
-0.616109
-0.150022
0.621795
-0.540599
-0.5084
0.150838
0.357562
0.129378
-0.474918
0.228846
-0.108682
-0.120165
0.0565576
0.128694
0.138054
0.73499
-0.873045
0.215664
0.171995
0.12028
-0.838979
-0.4313
0.146055
0.285245
-0.324057
-0.230834
0.554891
0.472714
-0.233487
-0.838975
0.554396
0.242551
-0.194836
-0.0477149
-0.469189
0.889778
-0.420589
-0.427994
0.440504
-0.44096
0.523775
-0.0828148
-0.567449
0.930082
-0.362633
-0.0196809
0.195427
-0.175746
-0.298972
0.271624
-0.278316
-0.557578
0.884242
-0.326664
-0.545024
0.683291
0.497952
-0.506166
0.0082136
0.231867
0.152383
-0.38425
-1.25372
0.824282
0.429436
0.0256479
0.153864
-0.179512
0.0746094
0.691002
-0.876773
0.909999
-0.409618
-0.347284
-0.503264
-0.698142
0.698774
0.493237
-0.0152602
0.383156
0.112786
-0.495942
-0.318443
0.29486
0.0235827
-0.142215
-0.016545
0.15876
-0.301096
-0.416812
0.717909
-0.0522235
0.467517
-0.415293
-0.740993
-0.269443
1.01044
-0.18156
0.413427
0.949071
0.274113
-0.863386
0.528536
0.33485
-0.365648
0.0191541
0.346494
0.00355578
0.168048
-0.217483
0.0494343
-0.611521
-0.861527
0.560431
0.124516
0.18947
-0.146622
0.229424
0.300999
-0.0325376
-0.819733
0.0275201
0.269053
0.154852
0.0216839
-0.176536
-0.634244
-0.494943
1.12919
-0.13191
-0.287911
-0.498979
-0.102834
0.601812
0.11432
0.187045
-0.301365
-0.012527
1.13071
-0.738784
-0.391929
0.171596
0.649039
0.103878
0.154374
-0.531835
0.377461
-0.565401
1.05044
-0.485035
-0.561443
-0.258503
0.819946
-0.445289
0.172361
-0.402207
-0.106193
0.861403
-0.42373
-0.437672
0.432571
-0.179439
-0.253132
0.378105
0.0484106
-0.426516
-0.157402
0.182993
0.214289
-0.340348
0.126059
0.0153478
-0.0242364
-0.198649
-0.00650109
0.457902
0.403501
-0.362871
0.853022
-0.452371
1.18929
0.356047
0.0765244
-0.856888
0.295445
0.718338
-0.627158
-0.098715
-0.622094
0.124954
0.158389
-0.42796
0.722594
-0.69384
0.819626
-0.0196522
-0.187273
-0.104578
-0.269459
-0.0654371
0.334896
-0.284653
-0.0327429
0.706309
0.151875
-0.858184
0.0233096
-0.242328
0.219018
-0.0256981
0.423177
-0.862214
0.439037
0.872814
-0.0673325
-1.00343
1.07399
-0.0705568
0.204844
-0.128433
-1.06428
-0.189442
-0.316373
0.839365
-0.0278622
0.453598
1.11321
-0.406099
-0.707114
-0.637995
-0.0364615
0.674456
0.236565
0.494683
-0.731248
-0.684874
0.0353788
-0.159529
-0.139292
0.298821
-0.465029
0.598038
0.127372
0.511107
-0.638479
0.0816566
0.0269707
-0.108627
-0.968292
0.11819
0.850102
0.383204
0.526796
-0.232158
0.558042
0.211865
-0.290052
-0.117654
0.801818
-0.936527
0.246124
-0.324405
0.0782814
0.441559
-0.152556
0.664963
0.0446072
-0.70957
0.747731
-1.2001
0.00756524
0.0189974
-0.30322
0.410191
-0.106971
-0.784989
0.717063
-0.019028
0.267899
-0.248871
-0.354771
0.199174
0.155597
-0.192488
-0.179585
-0.246918
0.586102
0.235517
0.0788389
-0.139901
0.150959
-0.2469
-0.15248
0.0126555
-0.0452186
-0.173184
0.166544
0.00663974
0.190296
-0.214081
0.023785
-0.551703
0.324618
0.136078
-0.635056
-0.0239789
-0.262737
0.0201851
0.539715
-0.559901
0.304664
-0.334852
0.128682
-0.789257
0.660575
-0.26894
0.749108
-0.480168
0.17745
-0.806753
-0.33063
-0.0249514
-0.923075
0.704385
0.699694
-0.735643
-0.103331
-0.450173
-0.362662
-0.395153
0.165968
-0.0375834
-0.0138118
0.0513952
1.27275
-0.686489
0.834761
-0.192578
-0.224385
-0.144432
0.368817
-1.18917
0.525979
0.663186
-0.446298
0.27441
-0.275075
1.02635
0.147812
-0.0864991
-0.368037
-0.374767
0.144577
0.384464
-0.38749
0.00302536
-0.115607
0.821916
-0.244209
0.395555
-0.151346
0.723189
-1.27955
0.577522
0.702028
0.202226
0.209221
-0.411447
0.557424
-0.226656
-0.330768
-0.502388
0.27285
-0.91385
0.0120207
0.366084
0.885473
-0.972047
0.385798
-0.172124
-0.391805
0.672794
-0.833002
0.593279
0.239723
0.658841
-0.996309
0.337468
-0.68392
0.72209
-0.0381706
0.417072
-0.496345
0.0123101
0.228987
0.238674
0.152392
-0.773823
0.339057
-1.02972
0.570612
0.45911
0.22935
-0.867344
0.664334
-0.0418816
-0.570331
0.132692
0.169587
1.01735
-0.337861
-0.679493
-0.163905
0.24758
-0.571637
0.139074
-0.956704
0.920242
-0.781509
0.322608
0.466216
-0.662256
0.374385
0.287871
-0.834695
0.513603
0.321092
-0.22895
0.0970426
-0.191491
-1.00149
0.698399
0.303093
0.605822
-1.12983
-0.880463
-0.0128885
1.20344
-0.405321
0.194514
0.0949908
-0.289505
-0.0200735
-0.123456
0.14353
-0.235784
0.462507
0.527016
-0.411319
-0.250937
0.163009
0.178795
0.219077
0.337712
-0.556789
0.354189
-0.212189
-0.0389132
-1.05401
1.09292
-0.307679
0.394456
-0.755935
-0.577266
-0.420828
0.998094
0.230952
-0.305112
-0.65789
0.203913
0.453977
-0.050401
-0.0375757
0.0879766
0.705976
-0.846216
0.031942
-0.335162
0.513165
0.523806
-1.03697
-0.42208
-0.00359105
-0.800014
0.22314
0.576874
-0.993423
0.621631
0.478639
-1.04404
0.45504
-0.208916
-0.0449412
-0.00545976
-0.0257074
0.897484
-0.585981
0.729207
-0.143226
0.836728
0.00216958
-0.838897
-0.64439
-0.0117232
-0.168976
0.063717
0.663676
0.106817
0.0271614
0.238342
0.516998
-0.0965861
0.48083
-0.199534
0.0573196
-0.830917
-0.0507238
-0.834926
0.275885
-0.769624
0.160418
0.177733
-0.338152
0.778844
0.0483872
-0.827231
-0.0916239
0.0865086
-0.335873
-0.710793
-0.757816
-0.11021
-0.477421
1.22515
-0.316661
0.432376
-0.115714
-0.909258
0.275013
-0.26377
0.482848
-0.259223
-0.607274
-0.473602
-0.301475
0.307888
-0.598192
-0.107429
0.961284
-0.121919
0.58102
-0.263039
-0.317982
0.0775977
0.150496
0.233121
0.986257
-0.940814
0.00386753
-0.208113
0.296745
-0.469149
0.486917
-0.425566
-0.522062
0.202374
0.160356
-0.36273
-0.764496
0.0371024
-0.112249
0.735539
-0.62329
-0.0613688
-0.942063
-0.671796
0.806916
1.42169
-0.624024
-0.797667
-0.131341
0.296955
0.761926
-0.403163
-0.358762
0.239814
-0.264051
0.0336678
0.0321317
-0.188567
0.0443524
0.144215
-0.104132
0.487288
-0.529635
1.13546
-0.0276138
-0.13037
-0.256364
-0.0726038
0.328968
-0.017585
0.723561
0.25775
0.370486
-0.628236
-0.362019
0.542959
0.407548
0.392933
-0.351347
-0.0799532
0.49021
-0.181242
-0.308968
-0.0519873
0.0361118
0.0158755
0.148621
-0.778285
0.629664
-0.882919
0.125103
0.201013
-0.492106
0.767991
-0.0073114
0.247126
0.112214
-0.428875
-0.922164
0.464727
-1.03018
0.327699
-0.41825
0.041919
-0.388136
-0.550613
0.938748
-0.797697
0.159092
0.0839323
-0.243024
1.00274
-0.771554
0.78202
-0.545455
0.145798
0.49806
-0.643859
0.196257
-0.355786
-0.473475
-0.215968
0.689442
0.262706
-0.125496
-0.137211
-0.521209
1.14178
-0.620571
0.747076
-0.483485
-0.263591
0.643374
0.0222997
-0.665674
-0.528878
-0.750671
-0.298217
-0.0123114
0.364268
0.582684
-0.0121543
0.0778641
-0.0657098
-0.646426
-0.153588
0.6459
0.557918
-0.506062
0.604735
-0.098673
-0.279027
0.317309
-0.0299388
0.263675
-0.233736
0.139113
-0.383322
-0.115871
-0.885621
-0.854976
0.228291
0.0142596
-0.153165
-0.118286
0.0689624
0.694729
-0.763691
-0.473437
-0.123338
0.444124
0.372725
0.0622632
-0.217699
0.000321738
0.199712
-0.200034
0.071574
-0.332574
0.261
0.206426
0.260951
0.337896
0.785385
-0.36522
0.830031
-0.435575
-0.0998811
-0.23086
0.330741
0.711594
0.0755939
0.0272445
-0.634943
0.436738
0.276097
-0.293682
-0.493702
-0.638785
1.13249
-0.621241
-0.567924
-1.07139
1.11268
-0.0412903
0.343307
-0.340716
0.275279
0.526375
0.259009
-0.31952
0.253416
0.0661038
-0.27339
-0.52685
-0.163665
-0.459401
0.623067
0.436601
-0.212653
0.439289
-0.270162
0.555349
-0.891222
0.439653
-0.331314
-0.529616
1.00901
-0.479394
0.650495
0.454619
0.288449
-0.743069
1.09149
-0.624599
-0.466892
-0.554924
-0.645233
1.08155
-0.436313
0.293931
0.287089
-0.258642
0.251331
0.400649
0.761198
-0.184602
0.164529
0.0213265
-0.0143074
0.901422
-0.500881
0.440963
0.83179
-0.37171
0.192801
0.178909
0.196511
-0.436244
0.709983
-0.0450199
0.38307
-0.188556
-0.641704
-0.122707
0.764411
0.165152
-0.0296091
-0.135543
0.119519
0.0856064
0.129669
-0.883387
-0.255128
0.28394
0.652263
-0.571565
-0.0806975
0.150376
0.339835
-0.129047
0.0678919
0.232506
0.20957
-0.442076
-0.439562
1.08636
-0.105605
-0.535569
1.09709
-0.561522
-0.267988
0.380978
0.0416315
0.0400251
1.04997
-0.527278
-0.329905
0.267368
0.290056
0.270962
-0.294941
-0.141443
0.121762
-0.275588
-0.118252
-0.00326083
0.315317
-0.13676
0.76053
-0.623771
0.115705
-0.108678
-0.309405
0.0749621
-0.290725
-0.00749158
-0.84781
0.570791
0.220573
0.211825
-0.423246
0.104923
0.318323
0.257665
0.0403977
0.77217
0.42502
-1.19719
-0.0815532
-0.0173752
0.0989284
0.165483
-0.696217
0.937013
0.484677
0.733323
-0.66436
-1.09082
-0.0472993
-0.0183196
-0.0269354
0.430364
0.373749
0.421266
-0.795015
0.342921
-0.0382568
-0.0306209
-0.292474
-0.079236
-0.492329
-0.395663
0.525041
0.465489
0.404994
0.524825
-0.543667
0.0188418
0.159919
0.00662541
-0.0624684
0.221474
-0.0311777
0.671417
0.166132
-0.83755
0.431852
-0.0473881
-0.198883
0.121175
0.0777074
-0.306597
-0.00258201
0.309179
0.262996
0.577294
-0.84029
0.202339
0.270376
0.64198
-0.0153247
-0.233951
0.465802
0.0511961
0.099367
-0.146782
0.0474149
-0.955993
0.502856
0.779945
-0.621218
-0.158726
0.0114544
-0.113084
0.101629
0.752472
-0.81897
0.502698
-0.0660966
0.372915
0.409105
-0.106709
-0.0115439
-0.391805
0.158159
0.233646
-0.544835
-0.0995855
0.998865
-0.510977
-0.487889
0.471651
-0.0603431
-0.411308
0.379612
-0.643768
0.264156
-0.0857213
0.463407
0.00641121
-0.414611
0.870471
-0.455859
-0.234833
-0.156972
-0.419262
0.320945
0.0746099
0.685853
0.00310411
-0.688957
-0.288506
-0.0336319
0.188484
0.0911562
-0.0207429
0.292926
0.117265
-0.243297
0.24426
-0.00530722
-0.0314368
-0.124444
0.125712
-0.35425
0.500048
0.0101006
0.203407
0.210316
-0.263738
0.668488
-0.0509818
0.575807
-0.122659
-0.0937075
-0.206851
0.439357
-0.167259
0.866412
-0.699153
-0.741803
-0.103074
-0.670115
1.00999
-0.339871
-0.100149
0.421094
0.276313
-0.0545878
-0.0176137
-0.208863
0.226477
-0.771012
0.243734
0.0898953
-0.105258
0.49209
-1.15089
0.359707
-0.95243
-0.550407
1.09637
-0.443498
0.453349
-0.243779
0.0113586
-0.575205
0.723826
0.000566509
-0.126905
0.135326
-0.481043
-0.0865107
-0.551066
0.637577
-0.281548
0.465024
1.27642
-0.835438
-0.44098
-0.192779
0.0593319
0.180853
0.0187706
-0.199624
-0.722667
0.136686
0.15353
0.0233695
-0.00552159
-0.100659
0.10618
0.406952
-1.07707
0.07896
0.3996
0.0280626
-0.427663
-0.960384
0.793124
0.117315
0.0317532
-0.149068
0.324902
-0.88248
-0.115713
-0.00184617
0.117559
0.150221
-0.0329058
-0.00459382
0.647081
-0.492028
0.53492
0.44118
-0.238841
-0.811693
0.234427
-0.604304
0.484184
0.12012
0.599441
-1.09314
-0.446945
-0.268424
0.715369
0.0494864
0.34966
-0.260106
0.2215
1.0539
-0.153264
-0.900631
-0.0114406
-0.819477
0.589791
0.0535835
0.366046
0.395879
-0.130336
-0.00333971
0.114825
-0.240107
-0.302698
0.0383482
-0.0348249
-0.00352334
0.0183449
-0.643697
0.625352
-0.0610822
0.263206
-0.202124
0.390011
-0.942202
0.552191
-0.0972959
-0.476693
-0.0294807
0.0132617
0.606089
-0.301813
-0.167922
0.469735
-0.322823
-0.352064
0.387911
-0.227555
0.334925
0.0671772
-0.402102
-0.480212
0.0569662
-0.63714
-0.114232
-0.0228546
0.137087
0.126991
0.239571
-0.366562
0.366013
-0.777833
0.411819
0.0182052
-0.48357
0.151289
-1.11163
-0.340743
-0.827123
1.16787
-0.846771
0.0365757
0.810195
-1.14141
-0.703262
0.0193421
-0.241207
0.244392
-0.00318468
-1.21956
-0.304619
0.976036
0.330337
-0.166564
0.0790646
-0.285916
-0.140659
0.411035
0.122936
0.0744087
-0.330772
0.0125668
-0.0995737
0.0870069
-0.193893
0.0672102
-0.065933
0.0773874
-0.241982
0.444208
-0.890402
0.540014
0.350388
-0.266299
0.116746
0.508299
0.166978
-0.00182561
-0.12673
-0.192789
-0.428261
-0.229628
-0.474982
0.165626
0.309356
-0.0207595
0.34434
-0.323581
-0.357542
0.429116
-0.0672537
0.638419
1.08544
-0.82769
0.475457
-0.798281
0.374113
-0.510654
0.136541
0.0827944
-0.000769512
0.0393368
-0.00183334
-0.931044
0.542908
0.0910387
0.380612
0.0125818
-0.161434
0.148852
-1.47084
0.589706
0.146335
-0.349791
-0.160925
-0.0161869
-0.184917
0.201104
-0.487936
0.186124
-0.969406
0.853535
1.11407
-0.600901
-0.157913
0.143294
0.0146194
-0.10876
0.0692811
-0.121235
-0.854785
0.221146
0.633639
-0.113144
0.095769
-0.0489998
0.25533
-0.20633
0.314174
0.188524
0.138417
-0.133363
-0.00505394
-0.225428
0.235528
0.0703491
-0.000252534
0.482579
-0.804729
0.937582
0.0441101
-0.533737
-0.12415
0.850313
-0.0325799
-0.817733
-0.184833