/*--------------------------------*- C++ -*----------------------------------*\
| =========                 |                                                 |
| \\      /  F ield         | OpenFOAM: The Open Source CFD Toolbox           |
|  \\    /   O peration     | Version:  2306                                  |
|   \\  /    A nd           | Website:  www.openfoam.com                      |
|    \\/     M anipulation  |                                                 |
\*---------------------------------------------------------------------------*/
FoamFile
{
    version     2.0;
    format      ascii;
    arch        "LSB;label=32;scalar=64";
    class       volVectorField;
    location    "7.75";
    object      U;
}
// * * * * * * * * * * * * * * * * * * * * * * * * * * * * * * * * * * * * * //

dimensions      [0 1 -1 0 0 0 0];

internalField   nonuniform List<vector> 
13486
(
(1.41761 -0.212458 5.7372e-19)
(1.65655 0.28936 2.89177e-19)
(2.68806 0.036686 0)
(-1.89133 0.849142 -1.31956e-18)
(2.33108 -0.445166 8.22599e-20)
(2.486 0.173308 3.30712e-21)
(2.47465 -0.242702 -5.44169e-21)
(1.96517 -0.693949 -2.30689e-19)
(1.92596 -0.371764 0)
(1.9785 0.769882 0)
(-0.870179 2.55352 -9.74541e-19)
(2.51007 -0.07513 0)
(1.25792 -0.408935 -5.6308e-19)
(2.43694 0.793122 -4.9687e-21)
(2.3776 -0.252346 5.46352e-20)
(1.93597 0.759921 -2.03171e-19)
(0.885341 -0.225484 7.24023e-19)
(0.640293 -0.621838 1.86131e-19)
(2.18779 -0.0137823 2.67442e-21)
(1.60127 -0.0443421 -5.88084e-19)
(-1.86197 0.287911 -5.08122e-19)
(1.2786 -0.424811 7.26359e-19)
(1.6783 0.284462 -2.31152e-19)
(3.883 -0.73098 0)
(2.03458 0.620282 6.92874e-20)
(3.7643 -0.69719 -3.50328e-19)
(0.406429 -0.215151 8.35781e-19)
(2.9755 -0.206294 5.95469e-19)
(2.02895 0.104395 0)
(2.80232 -0.471452 -4.57986e-19)
(-1.43431 -0.516756 -3.07663e-19)
(2.39448 -0.201518 -1.14176e-19)
(3.31915 -0.0438851 4.69152e-19)
(2.24224 -0.133879 0)
(1.97368 -0.666429 0)
(1.72199 0.0107992 1.07998e-21)
(1.62383 0.144788 -4.6835e-20)
(1.44164 -0.676368 2.6668e-19)
(1.77829 -0.176676 -1.64624e-20)
(1.95697 -0.227598 2.69985e-19)
(2.49804 -0.74811 0)
(0.840385 -0.416113 -6.56971e-19)
(1.98732 -0.00393003 0)
(2.05227 0.518284 -3.27573e-19)
(2.07099 0.517812 1.34991e-19)
(2.50971 -0.0755484 8.7419e-20)
(-0.941638 -0.0947587 1.38048e-18)
(2.0122 0.103654 -2.30457e-22)
(1.64259 0.147365 3.53912e-20)
(2.84301 0.01051 2.07604e-19)
(1.99962 0.0273809 3.5797e-19)
(1.83683 -0.0425056 0)
(2.5306 -0.169933 -1.38305e-19)
(1.60586 -0.593423 -3.93662e-19)
(0.667011 -0.856099 0)
(2.29704 -0.45487 -6.68243e-20)
(2.37393 0.63351 2.9748e-20)
(1.83004 -0.0911729 -7.34635e-20)
(3.30656 -0.0148139 5.65008e-19)
(1.36179 0.175783 0)
(-0.940853 2.57868 -1.32316e-18)
(1.36469 0.211965 0)
(3.7128 0.583129 -3.94093e-19)
(-1.78514 0.291447 -5.3341e-21)
(2.21997 -2.56009 0)
(1.59257 0.171081 -2.49353e-20)
(-2.15322 0.937258 -1.37166e-18)
(1.40737 0.0538494 1.99733e-19)
(1.9254 -0.39419 -1.48888e-19)
(1.61709 0.0116607 1.71345e-20)
(-1.98328 0.897349 1.57038e-18)
(0.69039 -0.786568 7.7393e-21)
(1.97898 -0.109005 2.06104e-19)
(-0.7594 0.101967 -4.65282e-19)
(1.55889 0.273106 -6.76706e-21)
(2.41664 0.585865 -5.61425e-21)
(1.58137 0.274273 1.71881e-20)
(2.38368 -0.262914 -2.0898e-20)
(-0.789901 0.242261 -7.19798e-19)
(1.84658 -0.583923 0)
(1.97769 0.0229943 9.23121e-22)
(1.59899 0.389339 -1.84808e-20)
(3.53597 0.51758 -1.63865e-20)
(2.77732 0.0329738 -2.88711e-21)
(1.4086 -0.22409 -1.12242e-18)
(1.30266 1.65067 0)
(1.596 -0.31 -1.72225e-21)
(2.00162 0.0422143 -5.45003e-19)
(1.86531 0.21711 -2.36331e-19)
(1.81749 1.02592 -2.34691e-19)
(2.43638 -0.230693 -8.30014e-20)
(2.10592 -0.579116 -1.11204e-19)
(1.47417 -0.31022 1.45681e-19)
(1.6446 0.0881319 1.56119e-20)
(1.81819 -0.561131 5.97905e-20)
(1.99528 0.0885218 7.0412e-23)
(0.415621 -0.205961 0)
(-2.4463 0.988231 8.7021e-19)
(1.97115 -0.224543 -5.15588e-19)
(1.07307 -0.169477 4.51314e-21)
(1.88977 0.0198695 0)
(2.40574 0.788395 -5.34752e-21)
(-2.51306 0.885815 5.14731e-20)
(1.82496 -0.0758345 8.60713e-20)
(1.26994 1.60011 0)
(1.05161 -0.0856124 6.87637e-21)
(1.97581 0.0636513 2.69703e-22)
(1.78888 -0.201396 -3.64814e-20)
(-0.819205 0.214123 9.51178e-19)
(1.77906 -0.798391 0)
(1.24658 -0.598241 0)
(2.38358 -0.203106 -9.41667e-20)
(1.61689 -0.576316 3.63363e-21)
(2.32646 0.31585 -1.64675e-22)
(1.04048 -0.0472516 0)
(1.19163 -0.588917 -2.14896e-19)
(2.0294 0.637279 0)
(2.3545 -0.10815 0)
(1.96968 -0.109891 0)
(1.7155 0.141196 -1.81385e-20)
(0.730241 -0.581109 -8.24657e-20)
(-1.17566 2.59704 0)
(1.78964 -0.506365 0)
(1.7849 -0.180106 5.30614e-20)
(1.86058 -0.646899 0)
(1.82482 -0.0403317 0)
(2.19167 -0.24095 5.32342e-21)
(2.20467 0.0779716 1.32271e-19)
(1.90864 -0.0623162 -6.46032e-20)
(2.48421 -2.51844 -5.25235e-19)
(1.81109 -0.0295503 -9.02057e-21)
(-1.14618 -0.189251 -3.47998e-19)
(0.432585 0.475509 8.65211e-19)
(-0.218566 0.154784 6.06811e-19)
(1.99945 0.0140273 -5.81574e-20)
(1.8926 0.425292 -2.80099e-19)
(0.619621 0.730511 -1.70364e-19)
(1.79994 -0.790438 0)
(1.72892 0.135806 5.01833e-21)
(1.99893 -0.552061 -8.70228e-20)
(3.12597 0.069136 -4.76874e-19)
(2.52432 -0.182993 1.16966e-19)
(2.4305 -0.173208 0)
(1.87605 -0.556005 0)
(2.09499 0.00273543 2.67964e-23)
(3.86788 0.485378 -8.15405e-19)
(2.12488 -0.14238 -1.29174e-20)
(0.266218 1.65683 0)
(2.85452 0.0319862 0)
(2.03434 0.0977167 0)
(2.0107 0.0203762 5.82641e-21)
(2.41058 -0.323554 0)
(1.96673 0.0134146 -9.68989e-22)
(1.57504 0.388127 -1.57678e-19)
(2.19506 0.332604 0)
(2.87074 0.0524836 0)
(1.61204 -0.724256 0)
(-0.57436 0.351614 1.69434e-19)
(1.70631 -0.679302 5.36203e-19)
(2.00494 -0.72914 -1.64279e-19)
(2.72309 0.0202571 1.08477e-19)
(1.71502 -0.658801 -8.1243e-19)
(2.34811 -0.263421 7.44945e-20)
(0.747101 -0.355142 2.87738e-19)
(1.84689 -0.0555489 0)
(2.54535 0.785071 -3.81593e-20)
(2.35796 0.719568 7.57713e-20)
(0.415431 -0.116502 -7.18578e-19)
(2.09446 -0.145741 3.15648e-20)
(-0.230868 0.170018 1.63611e-19)
(0.287956 0.427198 1.39045e-20)
(2.18963 0.305216 1.109e-19)
(1.99774 0.0848686 -4.56507e-19)
(2.31079 -0.164121 7.81012e-21)
(1.96527 0.0499132 -1.65919e-22)
(-2.24976 0.864843 0)
(2.40351 1.11064 1.30728e-20)
(3.22651 0.144539 6.30637e-19)
(1.98372 0.0596581 -5.63682e-19)
(2.43456 -0.161848 0)
(2.00476 -0.275438 5.26715e-19)
(2.3207 0.286735 3.32538e-23)
(2.36357 -0.152895 -2.65949e-21)
(-0.922059 0.680557 0)
(2.66885 -0.0441908 1.58247e-20)
(2.75531 -0.1904 -2.67968e-19)
(2.09327 0.0931417 -3.3322e-22)
(2.73808 -0.34166 -1.31397e-19)
(2.52104 -0.72548 0)
(1.06823 -0.515175 -2.8283e-19)
(1.67813 0.161911 0)
(2.50048 0.0588771 0)
(1.87509 -0.13785 0)
(1.26746 0.845364 -3.32431e-19)
(1.92339 -0.171638 0)
(-1.11526 2.52892 -2.76138e-19)
(2.33544 -2.76597 1.14201e-18)
(2.62491 -0.00157752 6.39482e-20)
(1.06464 -0.52551 -1.19246e-19)
(2.52526 0.74678 -6.43178e-21)
(-1.45234 -0.586114 3.16342e-19)
(2.21619 0.0984988 -4.01061e-21)
(1.32495 -0.639402 -3.0819e-19)
(1.72365 -0.734728 -4.75545e-21)
(2.05765 -0.838195 2.01182e-19)
(1.94696 -0.159503 -6.60156e-20)
(0.204652 -0.765912 4.8338e-20)
(1.90168 -0.0438408 4.3618e-19)
(1.86044 -0.142305 0)
(2.6843 -0.0266127 0)
(2.98654 -0.235883 4.38208e-19)
(3.61414 -1.25028 7.27953e-19)
(1.61981 -0.0298351 5.38226e-19)
(1.96926 0.0626399 3.78466e-22)
(2.48301 0.215895 -3.8094e-21)
(2.21349 -0.826152 5.29905e-20)
(2.84099 -0.405425 0)
(1.81505 1.01009 5.76875e-19)
(1.55943 -0.335571 0)
(3.14925 0.852654 0)
(1.05291 -0.209235 -1.3864e-18)
(2.88694 0.0695438 0)
(1.98042 -0.547644 2.00211e-19)
(2.69242 0.0351758 0)
(2.5898 -0.190822 -2.3302e-20)
(1.22068 -0.574117 1.9872e-19)
(2.60841 0.381844 -3.66052e-21)
(-1.63266 -1.02254 3.46564e-19)
(2.13965 -0.526859 8.44668e-21)
(1.64038 -0.311627 -3.11714e-21)
(2.01578 -0.267278 -1.69599e-19)
(1.66576 -0.132776 3.93065e-19)
(3.16468 0.0522717 5.96955e-19)
(0.862181 -0.417393 2.25656e-19)
(-2.33349 0.380595 0)
(1.0352 -0.503865 2.31631e-20)
(2.59878 -0.277149 2.25263e-19)
(2.51059 0.0426676 2.14989e-21)
(0.904704 -0.437182 6.29493e-19)
(2.37061 -0.0977935 0)
(3.38526 -0.0482606 0)
(2.00317 0.0620011 6.97353e-19)
(2.39316 0.188413 0)
(0.912797 -0.452991 2.06603e-19)
(1.72813 -0.227458 -3.16186e-20)
(1.80692 0.0803052 0)
(2.23636 -0.0138522 -3.73547e-20)
(3.24125 -0.660388 9.67744e-19)
(-0.218873 -0.0939455 9.95573e-19)
(2.01724 0.493078 0)
(-2.71832 1.49628 -4.43706e-19)
(1.00455 -0.0179607 8.513e-20)
(1.00907 -0.495075 2.67552e-19)
(1.79708 -0.205478 0)
(2.01388 -0.496194 4.63935e-20)
(-1.96175 1.12122 3.82976e-19)
(2.395 -0.204309 1.00534e-19)
(2.17526 -0.850307 -6.7091e-20)
(-0.289922 0.373077 -1.76167e-19)
(3.37307 -0.0697197 4.16841e-19)
(1.77362 0.232394 0)
(1.71604 -0.221241 -8.71659e-22)
(2.37126 -0.256832 -1.32092e-19)
(-2.26407 1.13107 -4.73534e-19)
(2.23332 -0.68362 -8.77327e-20)
(-0.991341 0.82245 0)
(2.16401 -0.508218 -1.19886e-19)
(-1.80194 -0.293055 -5.15882e-19)
(2.14086 -0.00505158 -2.39099e-19)
(1.15414 -0.453154 0)
(1.5151 0.925253 2.43064e-19)
(1.97538 0.0661989 -1.54604e-19)
(2.86831 -0.42632 0)
(2.54082 -0.116211 7.35448e-20)
(1.14933 -0.552874 2.62703e-19)
(3.13549 -0.684641 -5.40836e-19)
(2.02224 -0.45486 0)
(1.00343 -1.63994 0)
(1.81639 -0.235027 -3.96401e-20)
(2.23055 -0.121279 2.84112e-20)
(1.01412 -1.74637 1.93522e-19)
(2.12169 -0.182236 -1.90413e-19)
(1.94372 0.0849229 3.34664e-19)
(4.21929 -0.00423972 -7.67759e-19)
(-1.43684 2.51652 1.57798e-18)
(0.56831 -0.21989 1.38878e-18)
(3.0947 0.155608 4.72123e-19)
(1.85093 -0.0839553 8.47161e-20)
(2.6734 -0.193096 3.34831e-20)
(2.11214 0.00391734 0)
(-2.33756 0.512522 0)
(1.53198 -0.238011 4.12428e-20)
(1.22428 -0.589773 2.16112e-19)
(1.99777 0.0208269 -5.71316e-20)
(2.64179 -0.264901 2.0985e-19)
(2.67392 -0.318135 0)
(2.12815 -0.0336573 -1.45115e-19)
(2.5581 -0.0967757 -5.67649e-20)
(1.93516 0.0698167 -3.05937e-19)
(2.5752 -0.386474 -6.93823e-20)
(1.97705 -0.226158 -8.98376e-20)
(0.312778 -0.797938 1.18795e-20)
(2.26199 -0.124191 -2.44338e-20)
(2.3883 -0.200701 1.10354e-19)
(1.69197 0.106609 8.0818e-21)
(1.42234 -0.644955 0)
(0.865667 -0.0356717 0)
(2.20897 -0.0301729 7.59381e-20)
(1.64055 -0.339807 4.48365e-21)
(1.65964 0.16207 0)
(1.8066 1.25349 -1.12988e-18)
(-1.8446 0.885198 0)
(2.30682 1.08305 2.93529e-20)
(2.3826 -0.208278 -1.08208e-19)
(1.44373 1.72798 0)
(1.88081 0.417528 -1.73591e-19)
(1.48708 -0.263272 -6.20097e-20)
(1.86193 0.205188 -2.02425e-20)
(1.89624 -0.0364796 -4.82882e-19)
(2.24212 -0.517819 0)
(1.61106 0.178136 4.55496e-20)
(1.59292 -0.174333 -8.12312e-22)
(1.99169 0.0572526 7.13099e-20)
(1.62674 0.134299 -2.93792e-19)
(0.720201 0.704864 3.14812e-19)
(2.42647 -0.223326 1.64438e-19)
(2.22693 -0.322215 -4.35833e-19)
(2.13596 -0.181386 0)
(2.61459 -0.0829154 1.16162e-21)
(2.26043 -0.321712 -6.90874e-20)
(2.00084 0.0282609 7.89845e-19)
(2.13381 -0.578558 0)
(2.41454 -0.249625 -4.30499e-20)
(1.42985 0.38432 0)
(2.49622 -0.238954 4.97898e-20)
(1.89116 -0.519182 -1.58379e-19)
(0.666376 -0.31248 2.7316e-19)
(2.39624 -0.344507 -6.00915e-20)
(2.01882 0.192103 0)
(1.70306 -0.229774 -4.94428e-20)
(2.20026 -0.522729 1.31052e-19)
(1.63693 0.141533 2.77421e-19)
(2.27733 -0.323888 2.88722e-19)
(2.35634 -0.153364 1.66215e-19)
(-2.16122 1.90945 -1.06469e-18)
(2.01299 0.0955087 1.66061e-22)
(2.23653 -0.169662 0)
(0.992017 -0.345647 6.55573e-19)
(3.16569 0.826457 0)
(1.55569 -0.24305 7.28573e-22)
(2.28388 -0.0840256 3.10322e-19)
(2.59061 -0.0971067 -5.49252e-20)
(2.54848 -0.114686 5.64107e-20)
(0.37596 -0.178186 -9.82507e-19)
(1.94387 0.0688169 3.816e-19)
(1.89907 0.0222791 0)
(-0.560269 0.290115 -4.32985e-19)
(2.20006 -0.241998 -1.0469e-19)
(1.66752 -0.323636 -5.67386e-21)
(3.35806 -1.30494 5.79788e-19)
(2.41061 -0.017502 0)
(2.49162 -0.242028 1.14474e-19)
(1.79335 0.161432 5.97737e-19)
(1.9716 0.0744102 4.7055e-19)
(2.83266 -0.490975 0)
(1.96358 0.0073165 -3.08441e-22)
(2.70278 -0.306659 -2.11581e-19)
(-1.39189 -0.598051 2.08188e-19)
(1.58242 -0.0450506 7.47832e-20)
(2.20373 -0.210479 9.95266e-20)
(2.03348 0.0070645 -9.34848e-22)
(2.23177 -0.165421 0)
(2.5957 -0.181341 -7.69976e-20)
(-2.69076 1.65565 4.42107e-19)
(2.45048 0.4352 -1.12602e-20)
(1.99791 0.0269636 3.01393e-19)
(1.3857 0.0284718 0)
(1.63141 -0.220599 -6.08572e-20)
(1.53504 1.744 0)
(3.24636 1.30953 -2.5363e-19)
(2.15041 -0.024428 0)
(2.12059 -0.67065 -7.31942e-21)
(1.31415 -0.108531 -1.60463e-19)
(1.50323 0.855922 5.77978e-19)
(-1.30277 -0.386391 -7.85404e-19)
(2.05683 -0.453658 0)
(2.39296 0.0652543 -8.70398e-20)
(2.02529 0.200807 -1.85206e-19)
(0.988547 -0.559041 -3.98375e-19)
(-1.26633 -0.100654 3.88457e-20)
(1.64736 -0.045127 -8.10662e-19)
(2.91579 -0.36706 2.17943e-19)
(2.09464 0.200913 1.33943e-19)
(1.44792 -0.445655 0)
(1.35594 0.316927 3.20978e-19)
(1.75572 0.162711 -1.28646e-20)
(-2.02725 0.932243 7.80526e-19)
(-2.71676 1.56887 -1.49744e-18)
(1.18051 -0.499308 -8.42732e-19)
(3.12891 0.131679 0)
(1.05825 -0.557466 0)
(1.98511 1.1928 0)
(2.11893 -0.0805974 0)
(0.982918 -0.15019 -1.91437e-19)
(2.45472 -0.217629 0)
(1.47383 -0.221488 0)
(1.66612 0.10513 1.13626e-19)
(3.22382 0.163202 -6.54257e-19)
(2.2093 -0.160101 -2.49633e-19)
(1.69853 0.332512 9.88878e-19)
(2.006 0.0210656 -9.48249e-20)
(2.28966 1.71714 0)
(2.96158 -0.285099 0)
(1.92632 0.0737236 3.26764e-19)
(2.02451 0.0515692 5.82274e-20)
(1.28346 0.898186 0)
(-1.04158 0.688051 1.10543e-18)
(2.21562 -0.702746 9.87536e-20)
(-0.296355 0.0990452 0)
(2.36707 -0.0979223 1.70385e-19)
(1.97917 0.0591281 -3.78235e-19)
(0.258687 0.140556 -7.71713e-20)
(0.986548 -0.331361 0)
(2.00928 0.206436 3.43667e-19)
(2.66285 0.222672 0)
(2.73462 -0.33834 0)
(2.22547 0.209114 -1.87395e-20)
(1.93787 0.0895579 1.76343e-19)
(0.411977 -0.230539 -1.08173e-18)
(2.31613 0.707614 3.72792e-20)
(1.32627 -0.332331 -2.78811e-19)
(2.12749 -0.0716381 3.46513e-20)
(2.09829 0.195806 1.05081e-19)
(2.70454 -0.184488 1.88551e-19)
(2.32081 -0.671841 0)
(3.27231 -0.524052 4.67402e-19)
(1.323 -0.0472536 0)
(1.57748 -0.223753 3.49164e-20)
(2.29522 -0.172023 0)
(1.43181 0.0676057 4.23207e-19)
(-0.587004 -0.394946 -1.24998e-18)
(2.87566 -0.353305 0)
(-0.197412 0.105421 2.74611e-20)
(2.97622 -0.313122 -4.70453e-19)
(1.71891 -0.278358 -1.75757e-20)
(1.77425 -0.256625 7.33333e-19)
(1.39628 0.839805 -3.64009e-19)
(1.31659 -0.321726 -7.97535e-19)
(3.38848 1.2947 0)
(1.70042 0.135495 1.83171e-20)
(-2.12578 2.02834 -2.68178e-18)
(2.01383 0.214281 0)
(1.84335 0.230237 2.20402e-20)
(2.97001 -0.0215959 -4.40843e-20)
(2.69033 1.18454 0)
(2.00359 0.0178231 0)
(-2.06032 1.15091 0)
(-1.96868 0.476283 1.79836e-18)
(3.93507 -0.037788 9.25694e-19)
(3.5645 0.529546 2.03585e-20)
(2.27466 1.03775 0)
(1.71093 -0.162178 5.12673e-19)
(1.95695 0.0516254 3.79459e-22)
(2.31409 0.652104 -7.82363e-20)
(-1.84053 0.609175 9.64689e-19)
(1.91044 0.164009 0)
(2.01882 0.103069 0)
(0.722003 -0.105131 -4.51796e-19)
(1.42025 -0.436394 -1.92459e-19)
(1.96301 -0.173603 0)
(1.29979 -0.626681 -1.75696e-19)
(1.91441 0.0236036 3.90536e-22)
(1.99819 0.0803226 -1.02777e-23)
(0.748983 -0.34822 0)
(1.94696 -0.0504356 8.51354e-20)
(1.74192 0.138281 1.32328e-20)
(2.66059 0.199228 9.59982e-20)
(1.87595 -0.540415 0)
(0.643662 -0.170843 -2.09219e-18)
(2.56616 -0.101169 6.19047e-20)
(2.0018 0.0890057 7.17018e-20)
(1.84615 0.0364205 6.02894e-21)
(2.61571 0.774246 0)
(1.67279 0.327938 -2.63442e-19)
(3.15567 0.590813 -2.12597e-19)
(1.21108 -0.420676 1.75543e-19)
(2.00804 0.0508626 0)
(-1.32792 -0.144203 -3.98181e-20)
(0.461054 -0.0840197 0)
(2.00466 0.0483279 -2.79169e-19)
(1.99152 0.0665824 1.19191e-19)
(1.88389 0.0501842 -6.36939e-20)
(-2.14358 0.778609 0)
(2.30847 0.0279193 -1.58041e-20)
(1.07833 0.466233 8.78933e-19)
(2.28592 -0.667632 0)
(1.63376 0.0923762 3.53644e-19)
(2.54309 -0.412172 7.92326e-20)
(2.212 -0.0158449 0)
(-1.77447 -0.440444 2.73388e-19)
(1.86631 -0.532034 -7.44361e-20)
(2.04873 0.00237507 0)
(0.920724 0.0466306 1.35825e-18)
(1.83201 0.218518 0)
(1.67748 -0.761683 2.06319e-19)
(-2.77355 1.44059 9.06892e-19)
(2.08937 0.102507 3.55535e-22)
(2.50947 0.176066 -2.77495e-20)
(1.34821 0.297686 1.69447e-19)
(1.76486 -0.283423 -2.69918e-19)
(2.05942 -0.41215 -5.14228e-20)
(1.71667 -0.768403 3.2042e-21)
(2.18627 -0.216022 9.90912e-20)
(2.60154 0.780616 8.69648e-20)
(1.85905 -0.814288 0)
(1.99702 0.0225411 -2.67281e-19)
(-0.0383797 0.172264 -4.50559e-19)
(1.3503 -0.0589922 0)
(1.76614 0.24961 -3.44748e-21)
(1.57699 0.00773424 0)
(1.20693 -0.348687 6.90427e-19)
(2.09351 -0.745608 0)
(1.76818 0.00216944 -4.49509e-21)
(2.30012 -0.0811171 -1.76935e-19)
(-1.66307 -0.690959 5.10437e-19)
(-2.33332 1.25936 1.34008e-18)
(2.31293 -0.0175714 -1.54848e-21)
(1.34946 -0.635431 1.18514e-19)
(1.77436 -0.501411 2.4675e-19)
(1.46843 -0.314272 0)
(0.0236303 0.0471337 -5.97607e-19)
(2.33941 -0.597431 -2.15252e-20)
(0.0320298 0.0971555 -6.97656e-19)
(2.00119 0.0916553 9.12491e-23)
(1.43336 -0.55957 0)
(2.23407 -0.0201832 -1.54684e-21)
(-1.14474 0.852828 0)
(-2.56672 0.922823 5.35201e-20)
(0.163984 0.0699765 9.39731e-20)
(0.00879271 0.314011 0)
(2.06689 -0.506829 6.234e-20)
(2.18132 -2.65529 0)
(2.70801 1.0984 0)
(1.45368 -0.685386 -2.72488e-19)
(1.45939 0.354504 2.61081e-19)
(1.66324 -0.675221 0)
(1.79979 0.186538 -1.64823e-19)
(3.42888 0.525174 8.30911e-19)
(-2.62931 1.76994 2.00535e-18)
(2.67433 1.44287 0)
(2.18221 -0.0453821 0)
(-2.00627 2.09194 -1.1639e-18)
(1.88885 -0.103547 0)
(2.71918 0.0170458 0)
(-1.0785 2.57723 -1.44848e-20)
(2.06528 -0.364386 -3.20113e-19)
(1.73914 -0.414149 2.18499e-19)
(3.44072 -0.139206 6.11767e-20)
(-0.0589137 0.120622 1.28263e-18)
(1.9921 0.0565309 1.35854e-19)
(1.50478 -0.345817 0)
(2.17349 0.498307 -5.41451e-20)
(1.40379 -0.193991 0)
(2.41975 0.0380622 0)
(1.99913 0.11205 0)
(2.21546 0.189098 -1.53227e-20)
(1.88021 -0.0345112 2.24934e-19)
(2.3605 0.127319 -1.20748e-21)
(1.54857 -0.350573 0)
(0.394077 -0.195975 -7.96207e-19)
(2.02049 1.13386 9.18079e-20)
(1.85662 -0.658813 2.13606e-20)
(2.05 -0.115291 -1.38043e-19)
(3.09852 -0.681663 8.69733e-19)
(2.0417 0.0683248 -2.17677e-19)
(-0.582923 -0.451609 0)
(2.54963 -0.10123 0)
(1.41495 0.85654 0)
(1.18356 -0.534092 -4.88741e-19)
(-0.291543 -2.0041 -5.93338e-19)
(0.655493 0.274248 0)
(2.19868 0.512345 0)
(2.58498 -0.215528 9.55955e-20)
(1.94539 -0.0326042 -5.46762e-20)
(1.88858 0.644998 2.94525e-19)
(1.73376 -0.728016 0)
(-0.77113 1.37954 -3.1482e-19)
(2.43178 0.0741222 3.22918e-20)
(1.38684 -0.399093 -4.62476e-19)
(2.25972 0.0693116 -8.62448e-20)
(2.30525 0.658171 1.27964e-19)
(4.01623 -1.17659 1.00942e-18)
(1.18146 -0.53881 8.54791e-19)
(2.23468 -1.37259 3.33142e-19)
(2.35491 0.277974 -2.63379e-22)
(2.00011 0.0129656 -6.68164e-20)
(1.18281 -0.548931 -5.30758e-20)
(1.88116 -0.501371 3.14463e-20)
(1.58072 2.07368 -2.53526e-20)
(1.31337 -0.624287 9.34794e-20)
(2.61352 -0.0719033 0)
(1.61039 -0.252317 -1.98101e-21)
(2.21336 -0.0439956 -2.61833e-19)
(2.92337 0.847389 1.03435e-19)
(1.35538 -0.363726 -4.24088e-19)
(1.84224 -0.634399 -2.39314e-19)
(1.94512 -0.0116195 5.12112e-19)
(2.38425 -0.0564641 -2.9236e-19)
(1.34086 -0.234545 -5.04892e-20)
(3.08091 0.16837 -2.49768e-19)
(1.12841 -0.149463 -9.51821e-19)
(2.14217 -0.0270173 -2.06755e-19)
(1.11192 -0.215441 0)
(-1.75162 -0.703016 -1.44109e-18)
(1.89616 0.0358194 5.12723e-19)
(1.55855 -0.00271874 -7.14779e-22)
(-0.802744 0.0183784 0)
(1.57416 -0.713248 0)
(2.027 0.455655 2.60614e-19)
(0.991379 -0.144276 5.93351e-19)
(1.96003 -2.07182 -1.94346e-18)
(2.14575 -0.664331 -8.6432e-20)
(2.24315 -0.332722 2.36036e-19)
(3.23052 0.801116 0)
(2.03666 0.498106 1.42712e-19)
(0.450898 -0.652581 -5.38511e-21)
(2.45842 1.11353 3.96517e-20)
(1.98646 -0.251827 -3.06258e-19)
(-0.201111 0.305982 -2.09432e-18)
(3.02429 -0.68345 -8.2436e-19)
(3.33521 -0.566593 2.52977e-19)
(2.22923 1.24611 0)
(2.39003 -0.487846 -9.96246e-20)
(1.89621 0.046159 5.79009e-20)
(1.96511 0.0334939 6.70982e-23)
(0.777193 -0.375508 7.92833e-19)
(1.96613 -0.249228 4.59282e-19)
(1.71369 -0.798757 9.18566e-20)
(-2.6775 1.69195 -1.16321e-18)
(2.51044 -0.229528 -2.17273e-19)
(2.27361 -0.0242866 1.8437e-19)
(-1.32238 2.47895 -1.92929e-19)
(2.37062 1.05879 3.16356e-20)
(1.02687 -0.0607337 -1.47139e-18)
(0.935473 -0.456775 -2.51207e-19)
(1.98048 0.0264774 0)
(2.38765 0.520344 1.30792e-20)
(-1.77136 2.27513 -8.91624e-19)
(1.30662 -0.136189 8.61727e-19)
(2.14202 0.0843599 0)
(2.06616 -0.239514 8.74502e-20)
(1.15051 -0.479881 1.9568e-19)
(1.99382 0.0407027 -5.82651e-19)
(-2.22251 1.5978 -1.13139e-18)
(1.66932 -0.656641 -1.29397e-20)
(2.21672 -0.1693 1.69396e-19)
(2.34638 0.0681745 1.2586e-19)
(1.69948 -0.771359 -2.78129e-19)
(2.3769 0.187811 6.58823e-22)
(-0.123791 -2.15233 -1.92691e-18)
(2.12291 -0.0428591 2.45645e-19)
(2.12423 -0.0616373 -1.50276e-19)
(2.16141 0.102063 -6.25815e-21)
(2.13024 -0.0358797 -3.24172e-19)
(1.08666 -0.485182 -3.78078e-19)
(2.34617 0.254171 0)
(-2.35425 0.208145 1.2642e-18)
(2.11143 0.0731322 4.20517e-20)
(0.919458 0.0389969 -1.06674e-19)
(2.46178 0.0367782 -1.34481e-20)
(2.19322 -0.361024 -1.51411e-19)
(2.0002 0.0171477 -4.661e-19)
(2.10153 0.335676 7.97618e-20)
(-1.21395 0.869911 -1.14081e-18)
(2.73639 0.0201272 0)
(1.64705 -0.204184 3.14024e-20)
(2.5997 -0.100123 5.62169e-20)
(1.44441 -0.545682 0)
(2.15289 0.0791757 1.49647e-19)
(2.61437 -0.0835608 6.13406e-20)
(2.71034 0.0302138 2.34014e-24)
(2.54714 -0.741524 1.07379e-19)
(1.99124 -0.151398 0)
(1.7739 0.365902 4.84946e-19)
(2.17597 -0.222202 -2.70235e-19)
(1.27844 -0.615858 2.21937e-19)
(2.03703 -0.169707 0)
(1.45484 0.311199 -7.54603e-19)
(0.819506 -0.473472 -8.84159e-20)
(2.44427 1.5296 -1.89846e-19)
(1.13866 -0.174714 9.24321e-19)
(2.13966 0.00432621 3.95881e-21)
(-2.37143 1.32106 1.06858e-18)
(1.95092 -0.090466 -3.39937e-19)
(3.25693 -0.39895 -6.33223e-19)
(1.78049 0.157657 -3.45643e-19)
(1.95432 0.00838736 0)
(2.00077 0.0310242 -2.51941e-19)
(0.281814 -0.0811911 8.97863e-19)
(-0.402653 0.344885 0)
(3.76597 -1.10389 0)
(1.96409 0.0319981 0)
(1.14184 -0.343713 0)
(2.05179 0.332642 0)
(1.06517 -0.142243 0)
(2.32025 -0.827373 -9.21324e-21)
(3.74617 0.432275 -5.14926e-19)
(2.6378 0.412241 0)
(1.75275 0.366657 7.30459e-19)
(1.19401 -0.524538 1.16889e-19)
(2.08517 0.206525 6.0541e-21)
(-1.54007 2.38755 -3.86552e-19)
(1.07778 0.091747 -1.25022e-21)
(-1.43445 1.03243 9.92175e-19)
(1.77508 0.00161358 -1.17644e-19)
(2.86822 -0.00414656 3.05111e-20)
(2.02774 0.313244 -1.79205e-19)
(1.86747 0.194898 -4.69364e-19)
(1.9581 1.05416 -2.14283e-19)
(3.25545 1.26485 0)
(-1.59561 0.209416 1.33537e-19)
(1.22925 -0.363998 -7.56383e-19)
(2.0106 0.0266903 -7.76049e-19)
(2.35045 -0.606604 -5.70966e-20)
(1.98165 -0.0284231 5.13316e-20)
(2.71737 -0.467206 -1.66626e-19)
(2.13534 -0.284766 -3.60826e-20)
(2.08085 -0.495234 -2.1499e-19)
(2.02684 0.179682 1.92823e-19)
(1.73718 1.13155 0)
(2.03696 -0.362226 -4.65036e-20)
(1.68526 0.0842386 -1.05541e-19)
(2.44947 -0.201751 0)
(1.83135 -0.206443 0)
(1.76339 -0.799358 -4.37413e-21)
(-2.54712 1.32366 1.14916e-18)
(2.27409 -0.863163 -2.83563e-19)
(1.75159 -0.0266154 0)
(1.9185 -0.0465988 -4.55572e-19)
(1.80161 0.227881 -9.08987e-20)
(-2.3975 -0.0682241 6.86673e-19)
(2.65501 -0.0449222 2.08656e-20)
(-1.69066 1.1494 0)
(-1.68166 0.275408 1.76604e-19)
(2.64343 -0.0703054 0)
(2.36277 -0.514367 1.04976e-19)
(2.45293 -0.240933 -8.63784e-20)
(2.00022 0.0278282 -1.15084e-22)
(2.37292 0.732797 -1.34231e-19)
(2.66318 1.32867 -3.09663e-20)
(1.72489 -0.480646 5.17781e-19)
(-0.806093 -0.638362 0)
(1.78788 -2.5752 -9.35906e-19)
(1.30095 -0.924207 0)
(2.70226 0.40548 -4.36043e-20)
(-2.47485 0.215267 1.24021e-18)
(3.72515 -1.04044 7.72249e-19)
(1.67508 -0.198148 -3.07936e-20)
(-1.76837 1.45924 -2.4474e-18)
(1.10124 -0.541672 -2.56298e-19)
(1.27356 -0.371191 -4.36216e-19)
(1.7433 0.160599 4.6807e-21)
(2.07639 -2.42885 7.71834e-19)
(1.12851 -0.500218 3.11106e-19)
(1.33381 -0.395575 4.75851e-19)
(-0.192411 -1.86377 7.26762e-19)
(2.66851 -2.41538 -5.14884e-19)
(1.83766 -0.562775 2.43258e-19)
(-1.27641 -0.566679 8.74018e-19)
(2.34376 0.0262321 -9.43851e-22)
(1.19015 -0.566466 -9.75308e-20)
(2.35318 0.45931 -5.21714e-20)
(2.27391 -0.479736 0)
(1.0581 -0.382545 -1.6849e-18)
(2.10759 -0.0396771 -3.13589e-19)
(1.9964 0.121036 0)
(2.67108 0.377909 0)
(1.14336 -2.08158 -3.35213e-19)
(3.56761 -0.312128 -6.50685e-19)
(2.47173 0.244438 -8.13479e-21)
(2.06093 -0.354684 4.18998e-19)
(1.93971 1.01605 1.94511e-19)
(1.41223 -0.016886 3.24669e-19)
(-2.61741 0.504234 -9.02998e-20)
(1.77422 0.658389 0)
(1.36701 -0.427884 4.5313e-19)
(-0.640728 1.92662 1.96589e-19)
(-1.97584 1.35318 1.87255e-18)
(1.70623 -0.643964 8.29481e-20)
(1.53054 -0.682833 5.57943e-21)
(1.66911 -0.00990212 1.72011e-19)
(1.75766 -0.180435 1.76858e-20)
(2.76182 -0.482045 4.78188e-19)
(-2.57418 0.394346 -9.19765e-19)
(2.45161 0.236007 8.5724e-21)
(1.95192 0.0642025 1.89612e-19)
(1.10591 -0.203952 -3.79347e-19)
(1.89468 -0.079025 2.81648e-19)
(1.22663 -0.23538 0)
(2.45012 0.429493 2.72842e-20)
(1.98789 0.0605302 4.24997e-20)
(1.45762 -0.286984 -1.46278e-19)
(1.8126 1.87419 1.55527e-20)
(1.80626 -0.551248 1.85692e-19)
(2.08548 0.0323208 7.91843e-20)
(1.35463 0.150121 -5.76225e-19)
(2.44834 -0.222427 0)
(1.65972 -0.172371 -5.78985e-20)
(2.27428 0.0913531 1.17092e-19)
(2.20657 -0.130443 0)
(1.38507 0.0420974 3.26887e-19)
(2.66123 -0.0432493 0)
(1.71403 1.87173 1.59825e-19)
(2.32688 -0.0326053 0)
(2.03571 -0.40037 0)
(2.53019 -0.0459552 4.39601e-20)
(2.44204 0.185174 2.23528e-20)
(3.0543 0.321016 -3.61371e-19)
(1.91731 0.151545 -2.14724e-19)
(1.54914 1.22595 -1.52509e-19)
(2.00064 0.0970635 -8.76411e-20)
(2.08094 0.340035 0)
(-0.334289 0.398085 -6.63583e-20)
(2.56055 0.168914 4.66924e-20)
(2.3149 -0.497203 -2.13421e-19)
(2.27029 -0.474993 0)
(2.95864 0.833881 1.59766e-19)
(2.15246 1.70933 6.80992e-21)
(2.31203 0.0143222 -9.35758e-22)
(1.48455 0.257176 0)
(-0.772072 2.51604 1.18368e-18)
(2.04692 0.176203 0)
(2.77285 -0.412216 -2.35348e-19)
(-0.18651 -0.0384309 0)
(2.05901 0.220489 0)
(2.21586 -1.51677 0)
(2.04463 -0.7417 0)
(-1.0547 2.37255 -1.50087e-19)
(-1.89345 0.191495 -3.90794e-19)
(1.86877 -0.0294722 -3.37703e-19)
(-1.87098 -0.544335 -6.7324e-19)
(1.21259 -0.528497 0)
(-1.54864 -1.05951 -6.11304e-19)
(-0.346833 -0.0991654 -9.82479e-19)
(1.46279 -0.685559 0)
(1.44854 -0.509005 -4.75576e-19)
(1.54067 0.307497 -8.14413e-21)
(2.33995 0.442701 1.27173e-19)
(2.49455 -0.754742 -5.29954e-20)
(1.85569 0.1817 0)
(2.22459 -0.653931 0)
(3.40952 0.512292 1.72175e-19)
(1.87855 -0.449369 8.28881e-21)
(1.68139 0.106067 -1.55753e-20)
(1.08913 -1.93407 2.96555e-20)
(1.99853 0.00809463 1.8746e-20)
(2.37118 0.507687 -3.06661e-21)
(2.02588 0.18226 2.77058e-19)
(1.6031 -0.190242 3.11179e-20)
(1.88922 -0.498441 0)
(0.431196 -0.217609 0)
(2.38391 0.161693 0)
(1.7763 0.0206582 0)
(1.73235 -0.302302 1.98942e-19)
(2.997 0.0234966 0)
(-1.01598 2.5859 2.12229e-18)
(3.41889 -1.77165 -2.14904e-20)
(1.29987 -0.412495 -7.15692e-19)
(1.14715 -0.498337 -6.01962e-20)
(-2.18417 -0.105879 -6.97859e-19)
(-0.576487 2.5165 -9.4207e-19)
(1.85461 0.0542183 6.31657e-20)
(-2.62303 0.913534 -9.20663e-19)
(1.56276 -0.195733 5.13372e-20)
(2.56546 -0.0275459 0)
(2.33365 -0.281151 0)
(1.43309 -0.414119 0)
(2.19192 -0.377497 7.8627e-20)
(2.63343 -2.57617 0)
(1.8059 0.665534 0)
(2.00207 0.0110587 0)
(1.76275 -0.420021 2.03859e-19)
(2.08447 0.207086 -2.68435e-19)
(1.64173 0.0282831 0)
(2.42233 -0.822937 -2.73104e-19)
(1.9769 0.184638 -2.61265e-19)
(2.46841 1.02205 -8.55539e-20)
(1.50025 -0.698754 2.67787e-19)
(1.88358 0.713823 9.21285e-22)
(1.85379 -0.614215 -5.89314e-21)
(1.80305 -0.226629 3.91051e-20)
(2.07339 -0.51689 -9.67602e-20)
(2.42448 0.191579 -2.6061e-20)
(1.70658 0.114599 -3.09005e-20)
(1.81769 0.0832534 -3.31139e-19)
(2.12398 -0.0407623 0)
(0.825092 0.0967768 8.13116e-20)
(1.96976 0.0690259 3.45976e-19)
(0.613765 -0.698221 -8.71721e-20)
(2.13115 -0.271468 -1.07007e-19)
(1.02196 -0.165491 -6.46926e-19)
(2.44202 0.167665 3.59454e-21)
(3.17219 0.610024 3.05209e-19)
(1.99839 0.0822501 0)
(1.54334 -0.2146 -1.25546e-20)
(1.73937 -0.0567012 -1.68045e-20)
(2.10082 -0.524835 1.97248e-19)
(-1.84031 0.529056 -1.0847e-18)
(2.06846 0.03741 1.70519e-19)
(2.37622 0.240998 2.49096e-22)
(2.17173 0.0121908 -3.01009e-21)
(2.34172 0.132185 0)
(0.994869 -0.319689 0)
(1.3212 -0.632619 3.35507e-19)
(-2.1168 1.42064 1.22613e-18)
(1.98259 0.0156708 2.98881e-22)
(1.96822 0.0685591 6.9013e-19)
(1.53258 -0.21893 4.04875e-20)
(1.42253 0.295916 0)
(1.79218 0.106509 0)
(1.58689 -0.340191 -4.64822e-21)
(2.45517 -0.00620468 6.87098e-20)
(1.93322 0.695725 3.99163e-19)
(2.42883 -0.151621 0)
(2.12437 0.010945 0)
(2.10246 -0.558091 2.68477e-19)
(2.01102 -0.156232 2.52954e-19)
(-0.224113 0.747712 -9.0776e-20)
(1.72861 -0.0633666 0)
(1.57193 0.142224 1.54086e-19)
(2.74014 -0.970357 -1.27175e-19)
(-1.921 2.13212 -1.02931e-18)
(2.03442 -0.0201293 -3.58353e-19)
(3.89449 0.292207 0)
(3.61713 -0.24701 5.22955e-19)
(2.02893 -0.0774485 -2.22838e-18)
(-0.0567075 0.515677 0)
(1.81168 0.0341081 -1.91998e-20)
(1.91677 0.117235 -2.27009e-19)
(1.77538 0.0144294 -5.39999e-24)
(2.45628 -0.241033 4.96496e-20)
(1.21985 1.04759 3.55554e-19)
(1.85664 0.0465989 0)
(1.00719 -0.368695 -4.91582e-21)
(1.49468 -0.211974 -3.89177e-20)
(1.85156 1.39102 -1.6221e-18)
(2.04104 0.314659 2.12676e-19)
(-0.656346 -0.698181 1.27484e-19)
(2.0211 0.0256738 -7.83219e-19)
(1.63217 -0.789715 -4.84614e-20)
(1.74096 -0.222475 3.47715e-20)
(1.72643 -0.381762 0)
(1.75241 0.0187336 -8.44783e-20)
(1.05449 -0.487723 2.48493e-19)
(2.26808 -0.0877767 -3.45846e-19)
(1.99216 0.0603226 -3.11695e-19)
(2.75027 -0.406114 2.12545e-19)
(1.66058 -0.152995 7.5791e-19)
(2.26997 0.0177823 1.97833e-21)
(1.7801 0.109268 1.94653e-19)
(1.74674 0.253221 -1.4575e-20)
(3.44373 -0.114276 -6.81049e-19)
(2.3926 1.13554 -4.34136e-20)
(2.11072 -2.03813 1.51137e-18)
(1.88006 -0.0217603 0)
(1.52786 -0.373105 0)
(1.59848 -0.0695292 0)
(1.29857 -0.377485 5.56198e-19)
(2.15234 0.0714141 -5.0796e-19)
(1.78455 0.245213 0)
(1.50092 -0.303399 -4.30554e-19)
(1.77791 0.212686 0)
(1.74287 -0.274383 -3.26644e-19)
(2.28967 -0.523621 -2.26602e-19)
(1.864 -0.47004 -2.70295e-19)
(1.93748 0.0468767 0)
(1.95791 0.0563841 0)
(2.23066 -0.140976 1.22631e-19)
(2.60821 0.344006 3.65207e-21)
(2.90777 -0.089613 2.35489e-19)
(2.32808 1.79721 -5.34414e-21)
(2.4231 -0.19793 0)
(1.71762 -0.627041 -1.38704e-19)
(-0.293928 0.409041 0)