/*--------------------------------*- C++ -*----------------------------------*\
| =========                 |                                                 |
| \\      /  F ield         | OpenFOAM: The Open Source CFD Toolbox           |
|  \\    /   O peration     | Version:  2306                                  |
|   \\  /    A nd           | Website:  www.openfoam.com                      |
|    \\/     M anipulation  |                                                 |
\*---------------------------------------------------------------------------*/
FoamFile
{
    version     2.0;
    format      ascii;
    arch        "LSB;label=32;scalar=64";
    class       volScalarField;
    location    "7";
    object      p;
}
// * * * * * * * * * * * * * * * * * * * * * * * * * * * * * * * * * * * * * //

dimensions      [0 2 -2 0 0 0 0];

internalField   nonuniform List<scalar> 
13486
(
2.4974
2.08637
0.0237394
-2.2848
0.671743
-0.127992
0.23273
1.29752
1.63158
1.07712
-7.46114
0.4356
2.61652
-0.0573119
0.549696
1.17007
-4.93339
0.245721
0.585788
2.27004
-1.53667
2.58371
2.0492
-3.63833
1.01766
-3.29989
-5.08743
-1.29514
0.000921043
-1.31904
-0.979936
0.479933
-2.29833
-0.902215
1.30178
0.0088602
-0.0557282
1.98556
-0.196739
1.65204
-0.054442
2.71934
0.0288926
1.00721
0.97165
0.41341
-4.39235
0.00337907
-0.0527356
-1.04111
1.54414
-0.223838
0.351007
2.02266
0.160984
0.74329
-0.00729805
-0.224052
-2.1908
-0.109476
-9.12229
-0.0883461
-2.92597
-1.39961
-3.87185
-0.0582611
-2.80069
2.53523
1.61837
-0.0813875
-2.83978
0.189714
1.68178
-3.87795
-0.0571753
-0.00357675
-0.0490962
0.527407
-4.28236
-0.269777
0.00452214
2.12113
-2.96118
0.0493673
2.50551
1.10525
-0.0513072
1.47182
1.74457
1.18603
0.399178
1.10211
2.38065
2.19032
1.68734
0.00148579
-5.12928
-3.76431
1.62451
-4.91905
0.0265717
0.0335012
-3.80366
-0.218831
1.28634
-4.91455
1.72712
-0.201001
-4.49022
0.958959
1.53595
0.379233
2.0215
0.0294735
2.95452
1.62046
1.0252
-0.839751
1.6967
-0.0381326
0.243669
-8.72366
1.77527
-0.201693
1.53552
-0.210567
1.13279
0.526813
-0.747138
-2.47737
-0.205993
-4.2213
-4.625
-3.42413
1.61015
1.48177
2.99455
1.00873
-0.0350379
1.35035
-1.76182
0.344277
0.494864
-0.283965
0.0251538
-3.806
0.0114723
1.91008
-1.13234
8.91466e-05
1.08492
0.464775
0.00586332
2.16288
0.62156
0.0141191
0.743061
-0.251347
1.78071
-1.45442
-0.732601
1.78173
0.37113
2.7103
-0.22846
-0.33371
0.174861
3.38416
0.00179499
-3.43554
-4.72823
0.634509
1.26854
0.848427
0.00129327
-9.22379
-0.213462
-1.98293
1.72688
0.504761
1.53229
0.031014
0.695784
-6.45449
0.0822845
-1.27216
0.000136277
-1.17018
0.0311438
1.71382
-0.0433474
0.0138305
-0.255622
2.26988
-0.292997
-7.16317
-2.7939
-0.786775
2.20565
-0.252862
-1.05453
0.503271
1.99021
0.459686
-1.42818
-0.303375
0.174711
1.83299
-0.243104
0.0860261
-1.23286
-2.94876
2.24268
1.72811
-0.12361
-0.691012
-1.35451
1.21086
2.24599
-1.99313
-4.9307
-1.1529
1.39166
-0.797087
0.268188
2.40795
-0.412922
-3.51594
-0.51979
-0.0737445
1.51398
-0.608299
-1.84435
2.77553
-2.93155
2.30497
-1.00803
0.0139221
2.33022
0.734164
-2.38337
1.24709
0.0334374
2.18597
-0.182141
1.95835
0.768656
-2.142
-3.49251
1.11009
-6.52942
2.98944
1.55685
-0.207865
-0.390796
-10.5758
0.472571
-0.65913
-0.20296
-2.36805
1.91455
-0.179877
0.546834
-10.0818
0.754034
-6.48301
-0.53338
-1.38913
1.55859
0.187268
1.82504
1.69952
-1.39762
0.346363
2.41203
-1.98193
-0.394935
-0.317919
-0.220283
0.0414644
-0.393093
1.34096
1.74733
-5.67485
-8.37702
-4.92092
-1.62875
-0.774204
0.264155
1.57785
-2.76752
-0.224664
1.68437
1.62425
-0.960765
-1.08477
-0.747612
0.317386
1.77428
0.089638
0.365061
0.186809
0.0214757
0.501039
-0.0522802
0.494202
-0.64162
0.802178
-0.0793599
-0.046
-3.42119
-2.13771
0.053229
0.390956
-8.35809
1.51214
-0.252421
1.75023
1.8453
-0.62688
-0.0540579
-0.175958
1.71665
2.2076
2.96224
0.416555
0.973596
1.31022
0.200352
0.889423
1.48245
1.04292
0.37852
2.38771
0.202628
1.58263
3.04068
0.503236
1.15776
-0.178106
-0.576237
2.18988
0.848274
0.71048
-7.30501
0.00225306
1.06777
2.93184
-2.03171
-0.216649
1.04411
0.250649
0.329209
-5.21557
1.76155
-0.0171834
-3.95992
1.10861
-0.0900878
-2.71034
0.60039
0.371667
1.93028
1.70395
-1.36883
0.00229176
-1.04064
-4.25456
2.29418
1.12395
0.0235185
1.0887
0.248198
-7.1889
-0.0156934
1.57487
1.7599
-0.183915
-8.03313
-2.8895
1.53629
1.0001
2.64909
1.91717
-4.35009
-0.424209
0.228538
1.13172
-4.67053
-0.612382
2.20432
-1.47516
0.851263
2.35658
2.52628
-0.0230298
-2.46744
-6.91615
-4.84471
-1.74336
-4.73897
0.674366
1.45175
-0.705725
0.28398
0.0891511
2.15872
-1.96204
1.15153
1.98384
1.10264
-0.769577
-1.52947
1.77979
1.74398
2.19794
-6.58106
0.782462
-4.89339
0.757239
1.72806
0.28129
2.94336
1.20434
-0.566175
-1.12159
0.500292
1.74707
-5.07317
0.279116
2.56699
1.45806
0.833476
0.241584
0.576717
-2.21277
2.64297
-0.201851
0.89212
2.49697
-5.05299
-1.39909
-3.36251
-1.5737
-0.130486
1.95724
2.09194
2.58484
-3.03723
-0.0436602
-7.45396
1.17855
1.77954
-1.02375
-1.02456
1.72566
-5.93076
-9.51349
-6.29386
-3.82305
0.169938
2.09367
0.000993441
0.300134
-1.69992
1.68271
0.00294213
3.22105
2.39814
1.66972
1.23582
0.0105982
0.00136001
3.02228
-0.456829
-0.0303678
-0.559684
1.59848
-4.90706
0.300756
1.29379
-0.0254396
-0.511727
2.03267
-1.8508
-4.89595
1.20819
-0.668928
3.37287
1.22839
1.55937
1.85828
-9.49312
0.128303
2.78496
0.651557
2.21212
0.155877
0.598954
-1.58481
-0.273627
0.0258419
-4.87536
1.81004
1.57941
-6.76824
0.00163944
-0.192084
2.54539
1.96081
-0.421865
1.61376
1.16619
-0.464121
0.755726
1.58089
-4.80046
2.61042
-0.0116852
-0.0754825
2.70415
1.01148
-0.00823519
1.06592
-1.95269
-5.42304
0.668495
0.903493
1.80486
2.38446
-5.83733
0.571228
-5.79238
0.000622233
2.30114
0.594644
-6.5831
-4.1527
0.296625
-0.204467
1.2527
-3.6818
-0.970279
1.61936
2.36131
-0.15632
1.89995
-3.57943
-7.5724
-1.32359
0.824357
-7.36312
1.83398
0.10446
-9.7341
1.34663
1.92511
-2.50655
-5.9294
1.5637
2.31926
0.699003
2.52146
0.113787
1.24203
0.523739
1.87026
0.0312188
2.25151
-5.1525
0.649304
1.52892
-0.693471
-1.89072
1.71149
-5.03923
0.330876
2.05861
2.5755
-1.90445
-0.127961
0.634687
0.293711
1.45618
1.36224
0.330957
-5.71424
0.141846
2.45993
0.402917
0.334511
-6.80699
2.59316
-1.00569
0.031491
1.69315
1.21234
-0.280902
-0.120184
1.32101
0.154075
-0.0110646
0.785237
-1.36272
2.51617
1.57985
1.12885
1.16441
0.18128
-1.60047
2.85323
0.637029
2.85474
-3.08374
1.59825
0.0064469
-3.94825
0.856281
1.10223
2.99165
-7.04677
0.94977
0.930584
-2.1999
1.06905
0.237876
-0.360799
1.58386
-6.01104
-1.77918
-2.35262
0.040965
-0.780594
1.84306
0.00254141
2.75478
1.62436
-1.23109
-7.35572
-1.22048
0.676638
-7.94333
-0.0835315
-4.89152
2.28471
0.00100798
0.007611
-10.789
2.65348
0.00239045
0.357291
2.69487
1.56237
-6.87983
-0.160036
1.12339
0.26883
1.51306
0.0335378
-2.83625
0.770255
1.48832
0.630925
1.32865
2.73577
0.0324539
-6.88607
1.71139
0.295956
-0.207899
1.04611
1.35042
0.883785
-6.63487
0.105463
-0.178023
0.233197
2.29756
0.651031
0.182501
0.066622
-0.168809
-0.331482
1.80268
-0.731435
1.47384
1.54369
2.38676
0.262994
-0.845024
2.83652
0.0181027
-5.78729
1.74119
-2.13761
1.95449
0.0232883
1.69104
-0.709701
-3.57169
-3.41368
0.00227705
-4.90955
1.03977
2.92031
-0.805539
-3.90139
-0.491295
1.84331
0.150658
0.881448
-10.6715
2.90959
-6.68968
0.856871
-1.11607
1.11349
1.75737
0.864855
-2.63461
-1.08928
2.67192
1.76405
0.533272
1.45346
-0.182038
1.23674
1.2302
1.11243
-3.37958
-0.395067
2.13573
0.268704
-0.231138
1.28172
-5.45517
-0.773866
-0.161542
1.8083
1.86621
-4.95249
0.107765
-6.68772
-1.22925
0.16172
-0.758531
0.376874
1.68517
0.128996
-1.13444
1.89918
-0.200296
-1.85403
-0.0564732
-0.652473
-4.83853
-3.0826
-0.173443
-11.5645
1.49993
2.61604
-0.0264643
-1.76691
2.70218
2.53047
-1.71675
-2.59702
1.65284
-4.77197
0.0217343
0.134306
0.232415
0.783444
-4.89351
0.912526
1.2512
-0.567063
-0.644635
-2.85607
-0.0876642
1.36135
0.954418
1.04097
-5.81955
1.59057
2.47365
-4.72316
-11.0692
1.80974
0.37338
1.0893
-0.190747
-1.25762
-6.07361
-0.0431888
1.75652
2.86389
1.82918
0.176008
-0.0190999
1.72044
2.41558
-0.090967
1.71818
1.67316
2.58279
0.290646
-0.167474
0.378212
-0.59592
2.55893
0.123113
0.148048
1.10323
-0.396264
0.417665
-0.0210391
-1.54847
1.67696
1.42558
1.27962
0.948067
-2.3587
-0.31802
-0.698639
0.794338
-1.46579
-0.469718
0.0257395
-12.7434
-10.16
1.01805
-1.24978
-3.46529
-2.72198
-1.04467
1.11157
-6.43945
-9.05703
1.88691
-2.24353
2.58595
-3.45999
-3.52294
1.92054
2.3185
-0.0568072
0.265242
0.135837
1.7994
0.790507
-2.52706
-0.27064
-0.0552976
-0.551334
1.69942
0.0139934
1.11416
-0.176625
1.60417
-5.02639
0.0322096
-0.01846
2.00102
-1.45976
-7.95414
-6.96306
2.56336
0.175188
-7.03634
-7.07297
1.6746
-7.20942
-0.186687
0.394794
0.689601
0.0706505
1.04591
-3.46578
1.53228
1.71445
1.88678
0.900395
-0.0988341
-0.919287
1.38311
-0.290067
1.95241
1.31826
-0.278589
-0.208581
-0.451241
0.0223497
-0.0468523
1.94012
0.811349
0.33709
1.71943
0.219978
1.25878
2.95894
-0.0210841
-1.90727
1.26644
0.0490818
-0.162757
-0.483018
-1.66221
1.66312
0.0318918
0.0193572
0.0306389
0.267949
2.09339
-6.79
0.00349767
1.72512
0.0577987
2.44425
1.96936
2.2047
0.42986
1.23
0.525687
-0.00914252
1.12975
1.60043
-0.822611
-0.703816
-2.70056
-1.41064
-10.4319
1.6512
-3.6213
-3.01738
-12.1327
-0.732939
-0.0239528
1.74779
-0.00185113
0.391671
-3.57803
1.75268
2.90678
0.0795158
-8.61312
1.0849
-0.134225
1.60889
-1.37393
-0.18567
1.96887
-0.242097
2.74415
1.10352
1.71326
-1.20641
2.16791
0.0174869
1.98222
-0.0149825
-2.50442
-0.194548
-7.39544
1.07573
0.0163318
-0.534948
2.58344
1.74867
1.89024
2.34786
1.91956
1.99774
-0.683038
1.67241
1.76474
1.75695
-0.615985
-0.416216
-1.22433
-1.04241
0.460471
1.80871
-3.56541
2.60547
-1.14635
0.0317781
2.84708
2.39685
-0.692713
-5.30843
1.64593
1.01576
-0.215452
1.49152
-3.43969
-0.50314
1.71177
2.28532
-0.186475
1.77575
2.14801
0.00206138
-0.700185
2.17735
0.724636
-0.0464112
-6.02924
0.039889
-1.50362
1.65268
1.37307
-0.125245
-0.349493
-1.58791
0.460253
-0.137904
0.408268
2.48087
-0.19534
3.15652
1.66413
0.566777
1.87921
-7.01706
-4.00228
-6.73971
1.66108
-0.190317
-3.28562
-0.946742
0.960482
1.13795
-0.177339
1.05282
-4.48562
0.748581
0.177106
-0.186808
1.28353
0.532443
2.13735
1.75826
1.84179
1.56395
-0.702245
-2.01614
-1.42887
0.0858337
-2.45871
0.0792017
1.25712
-1.66587
-0.0934015
-0.1517
0.349853
-11.2172
1.1317
0.97289
-0.402242
-1.69258
0.765304
-1.07137
-2.24633
0.280173
0.012369
1.77254
1.35223
2.0963
-3.39365
1.59592
0.0313514
2.33259
0.107303
1.01881
0.248048
-0.0816413
2.70491
2.85634
1.34906
0.746439
1.2664
1.44882
2.7303
1.02251
-2.08685
-10.4977
0.35439
-1.02942
-2.34556
1.74234
1.59344
0.0652208
0.207345
1.28465
1.48202
2.97813
-3.99915
1.43081
-4.92679
-0.0106217
2.43716
-0.47102
1.30195
-1.09728
0.810961
0.650941
3.10736
-0.108796
-1.25644
0.978122
0.297194
-7.28819
-3.46878
0.266093
1.92728
-0.360498
0.759887
2.53075
2.34397
-0.320805
-2.50899
-0.149445
0.466409
1.89666
1.55185
2.28574
0.986413
-7.2154
2.40579
1.4226
-2.30957
1.17363
1.79227
2.05215
-8.43699
-0.876072
0.00090809
1.5206
2.6549
0.860427
0.344774
-1.52443
2.99313
-5.30086
-1.70977
2.77465
1.55863
0.141061
1.26133
-2.61444
0.813237
-1.25195
-5.53195
-0.174718
-7.65961
0.183304
-0.886959
-4.89817
-4.90666
-2.63782
-0.0652723
-4.77532
-6.62047
1.51573
1.64041
0.704367
-4.48005
0.458249
0.434537
-0.718353
3.14176
0.975857
-1.25675
1.55863
-1.12369
-8.14608
1.25732
1.24186
1.59114
3.1847
0.00294423
-0.458644
-3.86585
0.0931262
1.01887
1.5432
-0.494946
2.43257
1.32804
1.81498
-1.62258
-0.263786
0.019563
1.65495
1.72354
1.71235
1.73639
2.94289
2.85131
-1.15014
1.56602
2.1529
-1.21605
2.27536
-0.16435
2.81664
2.25237
0.182938
1.95529
0.975775
1.16392
-0.0680539
1.79071
-1.91759
1.4005
0.479598
0.985578
-0.137434
1.61049
-0.13122
0.455378
2.71702
2.70976
1.01401
-3.40695
0.414386
-0.205215
-0.418037
1.48823
2.41913
-3.38524
1.76202
1.52655
0.787248
1.64653
-9.63985
-1.0841
-0.140201
3.00625
0.417164
-0.172731
2.01068
-0.146473
0.0110234
0.975188
0.353578
1.39149
0.463181
-1.20931
0.966934
1.23054
0.971786
1.13272
2.89068
2.37391
2.02391
2.07706
2.6546
0.700941
-0.178282
0.166209
-1.33764
2.69286
-1.67124
1.62741
1.42048
-7.29524
0.764469
1.84472
-5.04692
0.803987
1.23198
3.21983
-5.21374
0.720051
0.123666
1.84021
0.0123651
-2.97676
2.64339
2.22453
1.54485
1.65286
-1.30152
0.606007
-4.89356
2.84544
-0.00317523
3.08586
-0.507025
0.328139
-4.29994
0.720589
-3.80262
0.370337
-0.232021
0.736676
-0.0308411
0.709228
-3.65523
0.00103879
-0.972162
-3.37805
-1.23114
-2.61645
-0.0230355
-0.322079
-1.42808
-8.80391
1.62328
1.65932
2.24047
1.71588
0.651552
0.639402
3.38629
1.58553
-5.03204
0.00101214
-0.0273577
1.40217
1.41523
2.43813
-1.49948
-1.52961
1.24015
0.00131734
0.436319
2.16071
-3.44484
-7.50119
-4.98786
2.87883
-3.70319
1.11639
2.12006
-0.593311
1.22987
-0.114095
-5.66989
-5.48205
-1.19527
1.25295
1.92863
2.08289
-2.67712
-3.439
0.952524
-4.3121
-1.41409
-0.713815
0.392593
-1.2788
-0.101035
-4.20903
-5.31174
-3.22121
2.53873
-1.70677
2.80554
-7.67228
-0.42739
0.600844
0.152814
2.33245
1.54319
2.06738
0.00895663
-1.24537
-5.96552
2.23433
-3.34757
1.33735
-0.171223
2.12738
2.34284
-0.169083
1.66058
2.679
1.77074
1.79597
-2.57494
-0.370439
0.668027
-2.01452
-0.223103
0.880973
1.05049
0.0189976
-6.47963
0.407477
-0.47234
1.34677
1.10733
-1.26434
2.80729
0.0747032
0.00101324
0.267924
1.70479
-2.33932
0.0054514
1.75536
-0.666692
-0.0182664
-0.269947
1.68249
1.70952
1.64358
-0.113912
1.65798
1.97033
1.83278
-1.08783
0.0328984
0.553149
1.3729
-1.4876
-4.94877
-6.40548
-1.94974
-2.58775
0.0380128
-0.219743
0.0274206
-3.47365
-1.13379
-11.9394
-0.635211
-1.42695
0.769985
-6.34196
1.8211
3.40373
0.745691
-0.91722
0.908642
0.361426
0.413831
0.0216684
-1.33661
-11.6102
0.138264
2.16767
0.00459358
2.6268
0.0265792
1.64011
1.26399
0.705414
-4.62407
0.802185
2.95206
-1.46066
1.73511
1.67551
2.42654
0.14364
2.21505
1.71194
-4.14141
1.83669
-5.19924
-4.91673
2.26558
1.56014
-2.44874
0.297488
2.18099
-0.10287
-5.3684
0.0271909
0.0309168
1.43332
1.03449
1.76835
1.4671
1.37519
-2.9352
-1.2659
-1.0373
1.73683
3.07844
-1.5062
-4.71043
-4.57804
1.58005
0.0963872
0.107897
0.540763
0.242356
1.20398
-0.628864
0.406722
2.66127
0.886267
0.215303
-1.1816
-4.80172
-2.3324
-4.98283
-3.08573
-7.84384
2.05928
1.03121
-1.48564
2.74555
0.00174196
-6.28955
-1.00436
-4.98967
1.74343
-3.3783
0.703866
1.59441
-0.0999393
-1.10378
-0.27384
-5.01813
-2.71269
1.8948
-11.3612
-0.140424
-4.93682
1.67724
1.79334
-3.90044
2.10665
1.91777
2.51446
2.61458
1.79394
0.306672
3.01162
-4.99386
1.53737
0.129565
-11.1638
2.10297
-5.57391
2.59505
0.934898
-1.70363
-4.80317
-3.9157
1.85352
-6.48369
-1.85249
-0.0043954
-0.877171
0.215619
1.16633
0.431678
1.1137
2.87614
-3.51566
-3.14564
-0.524725
1.64929
1.40362
-2.40837
3.36787
-0.169913
-0.39821
1.25571
-1.46396
1.67107
1.65344
1.87777
1.86762
0.238536
0.795035
1.5525
0.375037
-0.682443
-0.00512939
1.73379
1.86823
2.25918
-0.998905
0.0131505
0.682477
1.14546
0.351988
-8.28349
1.49436
-1.33699
1.54506
1.77995
-4.91128
2.60889
-4.64276
2.903
1.84207
-12.2319
0.00416791
-0.0568464
0.897928
1.82979
-12.281
2.23123
1.6727
0.689569
0.0294015
0.342685
-0.153172
0.684836
-4.95889
0.891338
-2.35589
1.69207
-5.06817
-0.321569
-1.00089
2.10145
2.34998
1.05483
-5.05488
0.962102
-0.328101
0.0425301
1.06924
-0.625018
-0.862297
2.79974
-0.632513
-0.033938
-1.84796
-5.18823
-0.455417
1.77322
-4.93956
-0.774082
1.8254
0.973088
1.81244
-6.11129
0.739071
2.85534
-2.91251
1.71699
0.521018
-0.56732
0.72044
0.390298
-0.762814
2.90479
1.86014
0.0587224
2.84676
2.13695
2.10038
-4.42802
-5.02723
0.917863
-1.8489
-0.404822
-3.34783
-1.55065
-3.14606
1.24002
0.633876
0.880718
1.01268
-0.594547
1.12862
1.75975
-5.9516
1.65882
1.17307
1.72191
-0.327544
-0.0241015
-3.98771
-5.05606
-5.59713
-0.901815
1.74545
-11.6855
2.52622
-7.08237
1.67787
0.87864
-0.166216
0.0958303
1.68459
0.935833
0.534299
1.42808
0.410184
0.214743
2.3801
2.08653
-2.61495
-4.8128
-0.245405
1.57559
0.178252
0.565156
-2.63237
0.138987
-0.402261
-0.192506
1.39404
1.28469
0.315724
0.930719
0.128358
-0.125606
-12.6942
2.13097
-4.51588
1.60691
0.00212382
1.53215
1.74848
1.08985
1.48232
-0.162137
-3.71817
-0.223458
-4.64746
-6.05447
-4.07991
0.145723
-0.549163
1.45033
0.0423666
1.69718
-0.427431
0.211109
-2.38143
-0.159931
1.71308
-5.44047
1.57934
0.43639
-10.8519
-0.461026
-4.84407
1.14012
1.81534
-0.127807
0.338834
-4.03272
1.8915
-0.0125737
0.509386
-7.30245
2.08922
0.798414
-0.00269027
1.79299
1.66656
1.99034
0.571204
2.153
-3.05363
-1.02737
-0.389585
1.5151
1.1971
0.461591
-0.0746551
-6.09245
-9.53993
0.814054
-0.0112403
-11.2202
2.68927
-2.80173
1.94049
1.14096
-1.97446
-0.188927
-0.702346
-0.254425
0.338547
0.285443
1.65203
-0.221219
1.72211
-2.47132
0.486522
-0.849674
0.385617
-6.71881
2.02013
2.85676
1.8399
0.777613
0.106635
1.26776
-5.04544
-0.0761725
-0.131781
-0.400757
-3.15912
-12.423
-7.52387
-1.42928
1.41044
1.5503
-3.08557
0.435179
1.92308
-1.10043
-2.24332
1.85539
-0.187345
-7.82095
0.0280765
-0.264475
0.00429609
2.73009
-0.14032
1.51481
-1.46234
-0.961127
-1.06248
1.56401
0.411066
1.28232
-1.04305
-1.5054
-0.429338
0.207449
1.97819
1.40909
0.453493
-0.250945
-0.947723
2.95842
-0.980191
1.85067
2.01702
0.17209
-0.230013
0.749881
-4.67874
-0.633385
1.5544
1.12628
1.56549
-7.34392
1.87583
0.352262
2.42202
0.236163
1.57617
2.12187
1.4938
0.37123
-6.8108
0.690017
-4.88911
1.32481
0.915307
1.98467
0.276923
2.50659
0.320453
2.67501
0.118488
2.0457
-0.0774038
1.1887
-5.88104
1.66756
0.766427
0.874131
2.59096
1.7206
0.443081
-1.21727
0.918231
1.65235
-0.153725
-4.85867
1.16855
-0.443545
2.16382
-4.05905
2.55688
0.569966
3.41856
2.62485
1.09319
0.935295
-6.57411
0.226279
2.76732
0.00302453
0.039775
-0.348041
2.81035
0.998729
1.355
2.43705
-1.03586
1.8065
-0.747601
1.92931
0.00436198
1.80435
1.66505
2.26053
-0.182884
-3.84388
0.497667
-5.08994
0.736248
0.00916561
-0.15281
2.23396
2.41043
0.0196453
0.362899
-0.671417
2.12438
1.31865
1.46407
1.16292
-0.294398
-4.65501
-1.88596
1.7685
-2.46302
-0.135169
0.405676
1.08102
0.773426
-1.19716
2.93731
-0.559982
2.52582
0.27729
2.68336
-1.33613
0.407912
-0.147286
0.0191028
1.35987
1.70083
0.189886
-0.0575076
0.122677
-0.235423
2.37437
-0.322315
0.128825
-0.617098
0.0277287
0.356194
1.97851
0.649789
-1.15119
-0.00647602
1.71363
3.08906
-5.27231
-0.630772
1.54712
0.00579302
0.9887
-0.176757
1.05435
-0.00253119
-4.66689
-0.0751326
-1.37919
-0.41509
0.0109204
-3.46347
-5.94895
0.189039
1.40684
1.75948
1.54154
2.99683
-8.90816
2.79535
-4.10737
2.64793
-12.7381
-1.21807
2.89334
0.843714
-2.92923
1.59904
-0.189979
1.74462
-0.734087
-4.93087
0.309627
-1.43983
-1.84287
0.00146663
-0.416279
0.815321
2.01238
-13.0889
0.884162
-2.42625
0.452894
-0.580931
-0.148631
0.364217
-0.737606
-1.96403
2.29899
-0.0841964
2.49389
0.636029
-5.3468
0.745458
-1.15444
-0.139744
1.52512
2.06665
3.04446
1.37832
1.53862
0.650114
-3.50516
2.94652
3.10415
1.87791
-0.886096
-7.03155
-4.91841
1.47917
0.973206
0.587682
1.54282
-1.11356
-0.117482
-6.16832
2.57949
0.295906
0.328838
-3.36107
1.51638
0.641872
3.32743
3.13536
1.43198
0.4202
0.383226
-3.5076
0.86598
3.2084
0.0317247
-0.117254
1.11542
0.00576123
0.374808
-0.151577
-0.399642
0.366601
0.294501
0.753287
-0.011185
0.687882
2.30479
0.292826
1.75037
-3.91155
-0.518602
2.79291
-4.61668
0.377155
0.214862
0.881322
0.537084
-4.21396
0.099669
-1.29769
0.341598
3.35782
-4.53764
-3.1436
-5.61176
-0.732905
-0.0600308
0.2075
-3.48335
-3.11219
-0.00245629
-2.95141
-1.06181
-1.93808
0.527508
-0.198163
0.281916
3.28449
0.331003
0.49816
-0.407869
0.47604
-3.33539
-0.936422
2.34793
1.65748
0.506539
0.0370586
1.53767
1.77253
-0.00528589
-11.6272
-0.146835
2.34556
-1.2401
1.6318
0.182483
2.54318
0.244332
-4.49709
0.250991
1.83959
-1.23812
1.57707
-1.03938
3.16152
-3.25044
-0.307499
-6.72113
0.957174
-4.47006
-1.36144
-3.52633
0.203744
0.563358
-8.30171
-0.783741
-0.300808
0.382307
-2.52274
-1.09621
1.29936
-4.86703
1.37281
-3.90543
1.85478
2.92388
1.46827
-3.34479
1.60249
0.14811
0.385207
-0.338089
-0.5864
-4.921
-0.106054
-1.17524
0.540055
0.153447
-0.717736
-0.452296
-5.89257
0.830364
1.74746
-1.19943
-4.62928
-0.417401
-0.0197046
-0.00217558
0.913692
-2.45564
-4.97551
1.79726
-0.521657
0.790436
-1.96906
-6.41695
-6.35343
-9.24562
3.30003
0.519532
-1.58713
0.727857
2.77933
2.79943
-5.15401
-0.770871
1.70888
-0.113317
-0.0852667
2.8435
0.895233
1.36244
3.35272
-0.265863
0.282623
0.402576
2.51986
1.7731
1.64327
2.18837
1.30167
0.0239524
0.0183392
0.925367
0.42423
-4.92234
2.8769
-0.407984
-0.604622
-0.00835354
-2.2607
0.768176
-3.43845
-0.861023
0.43848
1.67362
1.85443
1.84024
-5.0205
2.50755
2.80033
-3.30355
1.00666
-0.256607
-0.0808997
0.372234
1.12273
-0.530507
-1.10857
-0.656356
3.09658
-5.16145
1.87365
1.67391
2.15611
1.14166
1.26316
-0.0182181
0.0215537
0.824858
-0.22071
-4.94965
-2.30626
-0.00997255
-2.78707
2.03287
-7.75759
-0.129781
0.523051
-3.34535
-4.15319
-5.00633
1.44909
-0.746923
-0.0874506
0.922727
-6.56994
0.581854
-3.07496
-0.257625
1.80916
-5.76905
2.89246
-0.0112547
3.07335
0.00208069
-0.1163
0.227265
1.55284
1.35065
-3.10297
-0.371314
-0.113316
0.202048
1.08441
3.35965
2.16362
0.48165
-1.17194
0.791745
0.186936
1.84278
-0.0546755
1.13327
-2.11276
-3.31203
-3.31375
0.407959
0.0231717
-3.37798
1.22057
1.01696
2.75453
2.99204
-4.95706
-4.92781
0.188662
-1.34983
2.86557
-0.08364
-0.376318
0.875955
1.32536
-2.05406
-0.042691
0.238435
-0.185419
1.42825
-1.35176
0.296914
0.0795808
-1.05567
-2.73506
-0.258459
-2.78489
-2.51187
1.78411
-5.84765
-3.99773
-0.875834
0.267605
3.14479
1.10706
1.63864
-1.07961
0.804784
0.0366957
0.608886
0.661036
-3.49273
-4.99149
2.8552
1.78105
0.12302
-3.88079
3.25748
-4.3716
-5.02352
-1.84657
0.726194
-4.79682
-1.9827
2.49967
0.0363939
1.46307
0.821878
-2.39239
0.271334
-0.0631379
0.806276
-3.01182
0.16168
0.698746
1.59389
-5.1244
-4.76069
-0.0886462
-1.25185
-1.56048
-1.47311
3.08228
1.23099
-11.6145
0.674527
0.570326
2.68643
0.854444
-4.86476
0.87923
2.14662
1.73913
-1.49387
1.5755
-0.0636854
2.83048
0.0209679
1.78347
-6.58748
-1.36124
-0.0167773
-2.66976
0.851019
0.726692
-4.76445
-5.43129
1.92753
-0.129856
-0.0284117
2.33396
1.42432
2.27308
1.6331
-1.5638
0.0169028
0.196509
1.58568
0.000348332
2.01849
1.18093
2.81707
-3.01724
2.21376
0.668078
2.88478
-2.23945
-0.963367
2.92303
-3.25134
1.14636
-5.19453
2.48184
2.83302
1.82891
-2.19684
1.71712
2.12937
-2.30762
0.920115
-4.06975
2.27811
-3.58186
-0.82988
-4.88867
-4.85095
2.09134
0.655441
-4.72202
0.825358
2.82267
-0.524798
-0.0391461
-4.85952
-1.30924
1.2923
-0.45824
1.66005
1.50835
-4.42625
3.16106
-0.231671
2.43528
2.32375
-0.434505
-0.0189312
1.3947
-2.22866
-0.648211
1.36954
1.16174
-0.413263
1.51212
-1.79239
2.57099
1.87626
0.625199
-0.271922
1.78023
-0.849713
1.18502
2.16328
0.368731
-0.00351272
2.10104
1.72461
-1.15894
-3.46304
1.1567
1.81056
2.82833
-4.13306
2.9919
3.00198
3.0456
-0.184583
2.05217
-7.11524
1.71643
2.19419
2.20888
1.79393
2.41927
3.32131
1.55444
-4.45952
-0.0838494
-5.01695
3.29445
0.858848
-0.135861
-4.37507
1.69212
2.526
1.53315
0.563835
-0.347209
2.47801
-3.0437
1.71449
-4.68155
0.909949
-0.12888
0.318944
1.03754
-7.0327
-7.46364
-0.511303
-1.17957
-0.0332589
2.01244
-0.143889
0.218325
1.50264
-5.36501
0.894208
-0.0199211
-4.98442
-6.11472
-4.72496
2.31781
2.5387
-3.98083
0.926029
2.15674
2.08619
0.021246
-10.8909
1.77229
-4.77214
2.31049
-4.59138
2.25056
1.21341
0.397228
2.12134
1.07182
2.16383
0.596993
0.931075
-1.22579
-3.37573
-5.93623
-0.195033
2.12354
-10.3972
-2.89136
-8.78604
2.48306
2.1293
0.79076
1.15228
2.43225
-2.44738
1.52994
-0.0338271
-1.24151
1.52668
-4.57545
-5.07769
-1.36802
-5.07497
-0.849431
-12.548
-0.0534821
-4.99049
-3.54841
1.29938
2.88212
3.13821
2.72886
-11.7677
1.73485
-6.89081
1.49342
2.46212
0.425646
2.0853
-7.41023
0.591573
-1.29358
0.0140402
2.27287
-0.855403
1.83504
-4.9914
-0.266548
-5.09382
1.94175
1.82122
1.72214
-5.51533
1.52168
-0.634123
-4.84108
-4.90703
0.549817
2.87797
-2.91959
-1.02947
-5.0655
1.58595
1.6672
-0.221253
1.17583
-5.27723
2.4692
2.33476
-2.41956
-0.198008
2.37317
-4.61477
-9.93723
0.149981
2.19214
2.44489
-6.53101
1.0636
0.0139099
2.83588
-4.52125
-4.1308
-0.0157654
2.64
0.128624
-1.23165
-0.232584
2.23942
1.42706
2.23691
-0.0693754
-2.65959
1.80051
3.25841
-3.43568
1.39975
0.0818091
-3.93832
0.115577
0.611728
-5.0712
1.03088
-1.87303
1.22202
-1.09469
-2.02734
2.04655
2.44853
1.51362
-2.08702
-3.6028
1.86628
-5.07388
0.487874
-1.15861
0.790613
-5.09911
1.9034
1.87238
0.0739578
1.74367
2.7723
-0.832244
1.24984
1.90765
-4.9387
1.17643
-0.582807
0.776713
0.434514
1.42879
0.00382423
0.57627
-0.625104
-2.4664
2.29146
0.504174
0.364651
-5.19453
-0.595815
1.76055
-5.4737
3.03124
-5.27519
-5.08007
-0.474732
2.15302
1.82705
2.1833
-4.7068
2.66242
-8.84244
1.19969
0.167697
-4.12151
1.62877
0.7388
-0.713343
1.05152
-4.97908
1.45468
-4.94603
-5.21775
0.00884385
-4.11269
-4.29793
1.39692
2.7454
-0.0652199
-7.1619
2.10346
-2.88301
2.47768
0.590743
0.186891
1.15818
1.74172
0.829122
-0.500981
-0.021354
0.0909325
0.605587
0.797835
-4.73222
-5.27749
-0.00431151
0.837839
0.108242
3.31487
1.73031
1.707
2.49926
0.461264
1.90472
-6.06608
-3.92093
-7.19995
1.72788
3.2383
1.50283
-1.0564
2.29781
1.47518
1.50487
-0.111682
0.0877904
0.86027
3.04414
-0.143329
-1.96185
2.36699
2.34555
1.67987
1.61017
2.00551
1.12749
-0.889097
-10.4241
1.77867
-3.80534
-3.32308
1.63654
-8.62706
-0.304657
0.36116
1.73472
1.8058
1.84445
0.0766811
2.17999
2.23462
0.394019
1.9403
1.6841
1.59618
1.44405
0.995878
0.808661
-0.230786
2.13385
1.92356
0.233521
1.42759
0.0502158
-0.119233
2.72528
2.00781
0.00916606
-8.0087
0.264599
2.07186
1.08039
0.623138
-0.135738
0.20528
-2.36536
0.331691
-6.10258
-0.194911
1.10075
-0.578097
-5.3858
-5.49711
2.55183
-4.93759
-4.46074
-7.23496
2.76823
-0.83593
0.441514
0.531965
-4.83801
1.48232
1.63858
0.927682
2.39761
1.28283
0.156852
-4.89872
-7.96694
0.0192663
2.01481
0.278614
-6.57617
-4.28104
-1.52318
-4.76666
-6.63526
-2.96816
-0.566886
0.779488
1.70123
2.11812
-1.12974
-0.0538788
2.40996
1.8436
-6.50892
0.0597774
-4.96944
0.933764
0.187602
0.887408
1.51211
-0.0531297
-1.04816
-1.62345
0.636169
-9.7962
-4.81884
0.053978
-10.1267
-5.07191
-4.83384
-8.14019
0.0706679
-4.72799
0.810902
-6.1418
1.71207
1.56573
0.422793
2.18059
-12.2055
2.75075
-1.74321
0.227851
-1.25427
1.61433
0.971161
-3.42523
-4.36211
1.76311
2.08407
2.8581
-7.92919
-4.97331
-12.5792
-0.505748
0.00647004
-5.2174
0.4353
-4.93549
0.944833
-6.87267
1.15181
-0.0190184
-0.286966
2.51869
1.40922
-0.753126
-0.071507
-1.90467
-4.43713
2.25398
3.13589
-4.40369
1.98217
1.51846
0.00118588
-0.639908
2.12349
2.07372
-3.01224
-0.631387
-7.87137
-13.1676
-1.12877
-4.99702
-0.920898
1.27458
0.0239695
1.9025
-6.25485
-4.80377
1.6418
-0.989402
-4.86329
0.263665
1.44162
-4.83865
-0.578145
-4.59318
-5.31807
-4.90575
2.90114
-4.26559
-0.143111
-7.55525
1.80539
-5.05079
-0.0934193
-3.01911
-8.89832
-1.24073
1.83837
0.00190855
-5.09802
1.39775
0.0166884
-2.80169
-4.48067
-5.6687
1.07303
1.28113
1.71607
-3.63888
2.46042
-1.98374
0.00308607
-0.49816
-2.35458
-10.8974
-5.3096
-5.57518
0.428415
0.854604
-0.0927605
-0.164566
-1.9372
1.48576
-11.0369
1.80615
-6.51834
1.18195
-0.841394
-0.527601
0.188487
3.27204
-0.668331
-4.85491
-3.06695
-2.15811
1.72612
-0.166355
0.209053
-0.0298422
-3.76216
-7.81565
-3.54942
-4.98801
1.74514
-5.38762
0.367527
-4.20563
0.0324746
1.40415
-0.479151
0.610941
-0.637759
2.13909
-5.02614
-4.24872
2.3015
0.637454
-5.03566
-0.192845
-5.41839
-1.89877
-0.341641
2.10315
-5.69213
0.895138
-4.82399
-4.99899
-6.74058
-5.72428
-4.90365
0.841773
-0.712573
1.67888
0.829858
-9.14695
-0.160086
-11.9629
2.10645
2.43845
-4.85262
0.350959
1.76698
1.70778
1.19543
-5.23756
-4.85632
-4.20854
1.73225
0.639559
-2.40461
-5.28194
0.833204
2.05324
-0.0978482
0.226275
0.245377
2.2751
-1.69005
-1.80901
-0.122876
1.5272
0.400138
0.161366
2.47729
2.09599
-0.118745
-9.47842
2.07083
0.989837
0.0594484
1.43887
-1.41885
-5.19112
-4.49182
-7.98309
2.08443
1.70076
-0.390965
-1.19973
0.109935
-0.226638
1.75786
-10.973
1.13442
2.15613
2.32037
-2.0456
1.66952
1.37562
1.77555
1.89543
0.010298
1.90906
0.00197551
1.73095
1.12565
1.82472
-7.11708
2.09951
1.97304
1.58444
1.25885
-3.99221
1.07858
-0.933239
-1.65454
2.21052
2.33844
-10.6844
2.04749
-6.70349
-3.60971
1.75092
1.79465
-2.95884
-0.0198035
-5.00128
-10.5402
-0.938534
-4.28784
-3.25173
-0.227009
1.45948
3.05717
2.04577
-1.37378
-2.34416
1.70336
1.02155
-0.951263
-5.6928
-3.62002
-1.73356
-3.66973
-3.35949
1.66259
0.0819269
0.97491
0.0187931
0.019263
0.102462
0.0186109
0.436202
0.739681
1.34178
-1.63599
0.621792
-2.3231
-11.9073
1.1027
1.06311
-0.302752
-0.0566499
1.27762
-0.179407
0.840304
-1.41941
1.68424
1.33316
2.63393
1.71421
-5.66535
-0.262808
-1.22485
-3.14399
-0.124298
-0.124274
-0.481124
-10.2081
3.11316
0.0267159
0.0170911
2.43417
-5.21108
-0.734182
-0.616804
-7.36491
-4.70652
0.307345
-1.4651
1.53828
-0.693352
-5.26481
0.217855
-3.13998
-1.41133
-0.801162
0.0302893
1.41909
-3.50151
-4.48448
-1.58899
0.645032
-2.09414
1.8008
2.50185
-3.12377
1.8362
0.864216
1.32846
2.79091
-5.68328
1.16554
0.85407
0.913525
2.35223
-0.157464
-0.502204
-0.664142
1.75808
2.49938
-5.85264
-0.0562136
-2.88554
-2.06158
1.01825
-4.42441
-2.52068
-4.12441
0.848082
-4.62666
0.394175
0.543492
1.5586
0.314818
-4.33259
0.0439505
-0.176384
-0.381743
2.67711
3.01812
2.1978
3.21117
1.61116
1.08464
1.80979
1.53943
1.68478
-3.19681
1.66615
-0.26672
-3.63097
2.46222
-0.645202
-1.86276
2.90994
0.194835
-11.3567
1.03932
0.916159
2.06563
-2.55575
1.63293
2.72786
-5.32911
-3.64599
-2.10923
1.13096
-6.33207
2.09388
-0.0700698
2.08614
1.71307
-4.67555
1.91852
-0.973605
-4.85282
-4.63988
-9.25687
1.95402
-2.28325
1.77597
-0.207459
-5.10157
0.00317348
0.0126824
-1.10963
-4.77557
-4.66397
1.99856
0.4938
-4.90286
-0.455932
1.24842
0.456399
-11.712
0.986294
-0.166485
0.987013
-4.89174
1.16591
0.609718
0.865581
-0.364782
1.52928
0.989725
0.679608
-5.11674
3.18351
-1.34577
-4.76645
1.53236
1.33112
-4.95464
-1.81192
-6.66489
0.927575
0.801901
-1.96788
-0.0378234
-0.254449
3.18608
0.0978702
-5.56128
-0.00667351
-1.24916
1.03481
-0.752859
1.48174
1.24232
-5.90855
1.03425
-4.85267