/*--------------------------------*- C++ -*----------------------------------*\
| =========                 |                                                 |
| \\      /  F ield         | OpenFOAM: The Open Source CFD Toolbox           |
|  \\    /   O peration     | Version:  2306                                  |
|   \\  /    A nd           | Website:  www.openfoam.com                      |
|    \\/     M anipulation  |                                                 |
\*---------------------------------------------------------------------------*/
FoamFile
{
    version     2.0;
    format      ascii;
    arch        "LSB;label=32;scalar=64";
    class       surfaceScalarField;
    location    "7";
    object      phi;
}
// * * * * * * * * * * * * * * * * * * * * * * * * * * * * * * * * * * * * * //

dimensions      [0 3 -1 0 0 0 0];

oriented        oriented;

internalField   nonuniform List<scalar> 
20045
(
0.24622
-0.266912
0.0206921
-0.531507
0.188186
0.34332
0.200877
0.997508
-1.19839
-0.11428
0.175428
-0.0611483
-0.426459
0.406815
0.019644
-0.308371
1.13485
-0.826482
-0.501125
0.204709
0.296415
0.0308537
0.217519
-0.248373
0.241075
0.206499
-0.447574
-0.41728
-0.0474378
0.464718
-0.201039
-0.186359
0.387399
1.12865
-0.540381
-0.588274
0.175823
-0.177446
0.00162291
-0.637297
0.556487
0.0808104
-0.152568
0.522458
-0.36989
-0.541623
0.124343
0.0196645
-0.0545486
0.0348841
0.292599
-0.274344
-0.0182554
-0.827903
1.21971
-0.391803
-0.374434
0.0259553
0.348479
-0.159233
0.0957258
0.0635067
0.0595228
0.1163
-0.0644975
-0.467009
0.469316
0.56707
-1.03639
0.408027
0.111365
-0.519392
-0.592912
1.06223
0.0360323
-0.0371764
0.00114412
-0.695775
1.30128
-0.605507
0.85369
0.142147
-0.995837
-1.29161
0.703422
0.588183
-0.238771
0.171
0.0677706
0.706511
-0.50388
-0.202631
-0.36655
0.845885
-0.479335
1.22242
-0.712706
-0.509716
-0.278954
0.309808
1.0342
-0.502053
-0.53215
0.690191
0.0450564
-0.735247
-0.0295301
0.18315
-0.15362
-0.977241
0.462098
0.515143
0.300902
0.260743
-0.561645
0.0205893
0.206927
-0.227516
0.0630779
-0.0905352
0.0274573
1.06964
-1.07048
0.000837846
0.744448
-0.280738
-0.46371
0.350061
0.394387
0.509532
0.619122
-0.128306
0.0586749
0.0696307
0.648058
0.255967
-0.904025
0.822612
-0.132421
0.0901565
0.987494
-1.07765
0.651213
-1.0997
0.448482
0.890408
-0.635527
-0.254882
-0.591479
-0.422017
1.0135
-0.0462143
-0.148206
0.19442
0.3644
-0.16589
-0.19851
-0.345075
-0.0813843
-0.147491
0.897643
-0.750152
0.761562
0.0915315
-0.853093
0.592395
-0.958945
0.892898
-0.519309
-0.373589
-0.214891
-0.162673
0.377563
0.451693
0.441205
0.264601
-0.904172
0.639571
-0.0474535
-0.111779
0.836443
-0.204533
-0.63191
0.788379
0.0264026
-0.814781
0.0788839
-0.181841
0.102957
-0.333303
0.0798978
0.253405
0.426047
-0.184973
0.817209
-0.830907
0.0136985
0.160819
-0.0819351
0.0364681
0.327932
-0.127688
-0.524755
0.652443
0.0767345
-0.128076
0.0513413
0.877884
-0.244472
-0.633412
0.672942
-0.820433
0.0676524
0.810232
0.2253
-0.377868
0.103877
-0.162291
0.058414
0.162298
-0.614368
0.452071
0.519002
0.593153
-1.11216
0.448915
-0.346946
-0.101969
0.723358
-0.458757
-1.33737
0.236719
1.10065
0.00976541
0.236455
-0.270604
0.304646
-0.0340421
0.298636
-0.664558
0.365922
-0.803078
0.034957
0.768121
0.517269
0.0760704
-0.59334
-0.419408
0.388532
0.030876
-0.711302
-0.104752
0.816054
0.365098
-0.0698953
-0.295202
0.199344
-0.286971
0.0876274
-0.0804329
-0.406221
0.486654
0.289931
-0.310834
0.0209023
0.762292
0.175053
-0.937345
0.0160801
0.0199522
-0.0844122
0.23236
-0.147948
0.613512
-0.31261
0.0353741
-0.075478
0.0401039
0.698906
0.335297
-0.223126
-0.414171
0.169133
-0.253545
-0.17569
0.937252
-0.00304864
-0.267555
0.0792906
-0.0439165
0.229149
0.603901
-0.83305
0.520245
-0.903563
0.383318
-0.0244284
-0.209968
0.182636
0.0273318
-0.0991539
0.126725
-0.0275713
0.607044
-0.453448
-0.153596
-0.244082
0.197868
0.634276
-1.15772
0.523448
-0.0836641
0.15596
-0.0722961
0.0225188
-0.12278
0.100261
0.578533
-0.170506
0.872131
0.350291
-0.588593
0.460905
0.671169
-0.911887
0.240718
0.243862
0.0487369
-0.384396
0.169506
-0.385991
0.312135
0.0738564
-0.456997
0.0500946
-0.290655
0.24056
0.617406
0.273002
0.550513
-0.715661
0.165148
0.813579
0.0936807
-0.907259
-0.985799
0.732502
0.253297
0.062968
-0.72633
0.663362
0.932776
-0.31537
0.171948
-0.113273
0.113769
-0.0439494
-0.0698191
-0.0399106
0.0301517
0.00975895
0.570188
0.401668
-0.971856
0.596427
-0.577876
-0.018551
-0.173337
0.104674
0.0686626
-0.150858
-0.0591096
1.03462
-0.363449
-0.325849
0.342978
-0.017129
0.639656
-1.16677
0.527113
0.175731
-0.76721
0.559801
0.22657
-0.786371
0.693384
-0.531086
0.964516
-0.133189
-0.831327
0.552078
-0.931355
0.379277
0.994215
-0.622684
-0.371532
-0.125962
0.23015
-0.104189
-0.0296352
1.10378
-1.07415
1.07495
-0.221257
-0.82584
0.0271439
0.798697
-0.478287
0.408533
0.0697538
0.999016
-0.480014
0.170034
0.278881
-0.631686
0.780801
-0.149114
-0.860222
1.0611
0.0100481
-0.155556
0.145508
-0.0279771
0.0462863
-0.0183092
-0.0174845
-0.184474
0.201958
0.887826
-0.00200092
-0.885825
1.38633
-0.692948
-0.693381
-0.219425
0.20194
0.340949
-0.65578
0.314831
0.0742465
-0.0111687
-0.811216
-0.464468
0.6902
-0.225732
-0.673152
0.484559
0.188593
-0.0121324
-0.0225456
0.034678
0.477737
0.516479
-0.0210995
-0.0188111
-0.00861275
0.122381
-0.711503
0.0798166
-0.7334
0.932071
-0.198671
-0.664004
0.754568
-0.0905633
-0.581472
-0.432181
1.01365
-0.260945
0.370478
-0.109533
0.457073
-0.465826
0.00875265
0.985968
0.0355633
-1.02153
0.0151556
-0.7599
0.744744
-0.361728
0.92153
0.192959
-0.544894
0.351935
-0.501423
1.1357
-0.823765
0.544694
0.27907
0.210953
-0.217883
0.00693024
0.512729
-1.27122
0.758492
-1.02397
0.328191
-0.60311
-0.437466
1.20132
-0.716159
-0.485166
-0.273791
0.29438
0.123405
-0.130492
0.00708621
-0.741045
-0.121535
0.86258
-0.905649
1.26751
-0.361865
0.92148
-0.690421
-0.231059
0.0844787
-0.249069
0.16459
-0.300269
-0.462417
0.762686
0.206637
-0.407676
-0.639819
0.702787
-0.706513
-0.227238
0.933751
0.0884108
0.024228
-0.112639
0.149018
-0.613486
-0.160022
-0.0787486
0.874547
-0.0609689
-0.138078
0.108548
-0.132979
0.163058
-0.0300784
-0.0805107
0.968336
-0.820237
0.519968
0.113317
0.0588311
-0.172148
-0.702668
0.134863
0.567805
0.27916
0.642321
1.33992
-0.827188
0.779744
-1.35372
0.573974
0.287352
-1.06667
0.779321
0.0295406
-0.403974
-0.487226
0.716375
0.661296
-0.969667
0.427276
-0.831999
0.404723
-1.39826
0.803232
0.59503
-0.0134799
-0.405928
0.177266
0.139857
-0.317123
0.744091
-0.25259
-0.491501
-0.0558135
-0.765729
0.736094
-0.250009
-0.0758401
0.679816
1.05948
-0.861301
-0.198178
-0.0100836
-0.12427
0.134353
0.674497
0.128653
-0.803149
0.251254
-0.379257
0.128003
-0.223179
0.75616
-0.532981
-0.436546
0.735182
0.567333
-0.374374
-0.0605184
0.18094
-0.120421
0.987056
-0.3474
0.0871197
-0.0080096
-0.0791101
-0.0193764
-0.210145
0.229521
-0.102148
0.106127
-0.00397982
1.18128
-0.739529
-0.441747
0.24442
-1.15007
-0.111637
0.00948992
-0.872165
0.280881
0.591284
1.29848
-0.452594
0.247201
-0.980601
1.36181
-0.588912
-0.772895
-0.0116343
0.100045
0.8412
-0.464914
-0.376286
-0.611308
0.140164
0.471144
-0.933497
0.935684
-0.00218679
0.363636
-1.02594
0.662304
0.0293516
-0.0363749
0.00702335
-0.464634
0.631009
-0.166375
-0.0952701
0.355898
-0.260628
-0.141471
0.0578066
-0.115261
0.0161071
-0.547582
-0.35598
0.41253
-0.840804
0.428274
-0.0344494
0.279106
-0.244657
0.406343
0.300168
0.759183
-0.331907
-0.00593602
-0.0220411
0.70939
0.589089
-0.490133
0.0127721
0.477361
0.373556
0.467644
0.381866
0.140592
-0.236611
0.202162
-0.28281
-0.0249894
0.307799
0.00280212
0.20815
-0.800777
0.577598
-0.091655
-0.0652811
0.156936
-0.93137
0.896147
0.0352224
-0.334778
0.499574
-0.164796
-0.218036
-0.104502
0.322538
0.764923
-0.829413
0.0644896
-0.8541
-0.544162
1.28408
-0.816697
-0.467384
-0.0911138
0.0810303
1.1206
-0.756968
-0.451203
0.863733
-0.322264
-0.0582289
0.380493
0.866172
-0.22043
-0.645742
1.10284
-0.325345
-0.777499
-0.423683
0.101419
0.834131
-0.493298
-0.340833
-0.159393
0.783157
-0.623764
0.501547
-1.06287
0.561319
0.236621
0.156444
-0.393065
-0.0582314
0.017169
0.0410623
1.29201
-1.07361
-0.218402
-0.514888
-0.470911
0.710153
0.349325
-0.850874
-0.0804958
0.143889
-0.163266
0.211005
-0.616911
0.405906
0.0037817
0.119624
-0.53958
1.10977
0.467335
0.713942
1.30688
-0.784319
-0.522559
-0.785293
0.558055
0.717176
-1.20238
0.4852
-0.627793
-0.039443
0.667236
-0.242695
-0.167622
0.410318
0.54094
-0.199991
-0.0649529
0.17827
0.48016
-0.0338734
-0.470007
-0.666039
0.890805
-0.224766
-0.153219
0.0202398
-0.0775982
0.0170797
0.113481
-1.04698
0.361958
-0.798504
0.0815673
-0.185709
0.25418
-0.068471
0.0169654
-0.131245
-0.498868
0.379034
0.119833
0.348541
0.258503
0.474379
0.00962781
-0.484007
0.491756
0.104671
-0.362163
0.573168
0.570976
-0.053707
-0.204769
-0.497899
1.0811
-0.854007
-0.227092
0.833435
-0.758124
0.317177
0.440946
0.799651
-0.865597
0.0659461
-0.434047
0.353614
-0.110704
-0.0626329
-0.118397
-0.592905
0.289191
-0.538832
0.249641
0.418516
0.415615
0.692684
-1.13649
0.443809
0.232134
-0.533432
0.301298
-0.972619
0.169541
0.0146438
0.350454
-0.563412
0.859485
-0.296073
-0.25323
0.302127
-0.0488974
-0.41121
-0.0899145
-0.122869
-0.225793
0.348662
0.0790285
0.000881052
-0.0799096
-0.321839
-0.156448
0.376206
0.4449
-0.821106
0.779038
-0.405482
0.280322
-0.448992
0.0149456
0.463264
-0.23113
-0.664804
-0.158961
0.310607
-0.365359
0.0547523
0.97412
-0.326062
-0.466747
0.752028
-0.285281
-0.111954
0.129955
-0.0180014
0.738943
0.00514843
-0.294177
-0.322734
-0.513213
0.931216
-0.418003
0.623396
-1.13152
0.508126
0.589714
0.694366
-0.0195729
-0.00301994
0.0225929
0.0880621
-0.715855
0.656736
-0.991154
0.334418
0.0864194
-0.00968488
-0.0816501
0.632163
-0.353575
0.715533
-0.723931
1.01128
0.188233
-1.01614
-0.876967
0.478411
0.398555
0.636822
-0.10006
-0.536762
0.935136
-0.170212
-0.488373
-0.527354
-0.467344
0.567349
-0.0348904
0.219172
-0.184281
0.316505
-0.29055
-0.719796
0.638146
0.844005
0.225638
-0.787906
0.321159
1.04127
-0.33112
-0.236676
0.36137
-0.124695
0.0245369
-0.632257
0.60772
-0.90218
0.16943
0.73275
0.726592
-0.726592
-0.347063
0.729833
-0.38277
0.531225
-0.0568459
0.671792
-0.362967
-0.308825
-0.960227
0.996117
-0.0358894
0.334346
-0.0415827
-0.292763
0.256755
-0.107732
-0.149024
0.105223
-0.323259
0.137058
0.456348
-0.907551
-0.861146
1.01382
-0.152677
-0.283001
0.659207
0.108196
0.00314307
-0.111339
-0.0921175
-0.000398089
0.0925156
-0.374399
0.40394
1.24111
-1.00985
-0.231263
-0.0819469
-0.527835
0.609782
-0.225746
0.245186
-0.0194396
0.118466
-0.271702
0.153236
-0.965559
0.355831
0.609728
0.106927
0.0685008
-0.348817
0.112141
0.0204242
-0.113801
0.0933769
0.611662
0.680352
0.103227
0.00496866
-0.0419111
-0.29054
0.332451
-0.502851
0.803446
-0.300595
-0.00205579
0.0834694
-0.0814136
0.424303
-0.219594
0.691523
-0.209696
-0.481827
0.00794222
-0.414163
0.144019
0.84195
0.434339
0.293782
-0.728121
0.460251
-0.409555
-0.0506964
-1.01274
0.186902
-0.41804
0.170121
0.247919
0.492528
0.632895
-1.12542
-0.627796
0.588353
0.0450319
-0.914433
0.869401
-0.12173
0.206209
0.219446
-0.238424
0.0189782
0.0246269
-0.307436
0.00983227
0.0379176
-0.0477499
-0.673563
-0.198602
0.619056
0.0568677
-0.00380271
-0.053065
-0.117452
0.00549861
0.170712
-0.708897
0.538186
0.246495
0.543679
-0.790174
0.417006
-0.712271
0.871422
-0.159151
-0.717407
0.558014
-0.010423
-0.0267534
-0.389496
-0.283656
-0.250642
0.0641619
0.18648
-0.876194
0.373343
0.669735
-0.751682
0.419036
0.622238
-0.301266
0.301339
-7.33492e-05
0.406199
-1.07779
0.67159
0.143827
-0.260219
0.116392
0.349552
-0.643728
-0.63575
-0.0282546
-0.306023
-0.0272799
0.0893084
-0.0643857
-0.0249227
0.387009
0.00290804
-0.0261663
0.0232582
1.06276
-0.570236
-0.515317
0.885917
-0.3706
0.26081
0.178638
-0.439448
-0.36136
0.23963
-0.210498
-0.0401436
0.440449
0.231343
-0.19281
-0.719077
0.356718
-0.0461114
0.615612
0.404184
0.166792
-0.947544
1.0377
0.124607
-0.468866
0.344259
-0.0859481
-0.827909
0.913858
-0.253375
0.265996
-0.0126211
-0.277819
0.0168741
-0.553761
1.05531
0.985721
-0.433642
-0.432471
-0.0663973
0.00857057
-0.407362
0.398791
0.409232
-0.990704
-0.1301
-0.466671
0.59677
-0.0821488
0.154271
-0.0721223
-0.651271
0.0537196
0.597551
0.947859
-0.691892
-0.0170008
0.0792384
-0.0622377
-0.208478
-0.0172683
0.179124
0.35907
-0.538194
0.0970519
-0.122429
0.0253767
0.603204
0.348371
-0.951575
-0.37535
1.13764
0.0767583
0.00227023
-0.27214
-0.581979
0.854118
0.327626
0.706993
0.952767
-0.706272
-0.343531
0.220662
-0.0498333
-0.00839801
-0.446669
1.16384
0.136122
-0.766885
0.630763
0.893123
-0.144246
-0.748877
-0.488693
0.711945
-0.223252
0.395753
-0.442847
-0.433604
0.876451
0.0793334
-0.10874
0.0294067
-0.284765
-0.485023
0.769788
-0.108232
0.0161143
0.0287307
-0.0408631
0.505659
-0.790424
-0.706459
-0.207594
0.914053
-0.0642219
-0.47817
0.542392
0.133867
1.20836
-1.22881
0.0204467
0.204113
-0.146247
-0.0578661
0.00280245
-0.304068
0.257985
0.22867
-0.314912
0.0722168
-0.816849
1.02578
-0.208934
-0.232088
0.140434
0.291753
0.401631
-0.817998
-0.252482
-0.0378155
-0.0289481
0.0667636
0.533522
-0.129338
-0.193411
0.21313
-0.0197193
0.265189
-0.360459
-1.1818
0.578695
0.941814
0.193038
-0.126352
0.244818
-0.198916
0.459726
0.888781
-0.432433
-0.200511
0.00710041
-0.106772
-0.613023
0.201507
0.207401
-0.197353
-0.918717
0.0165373
0.00121951
0.204671
-0.0608439
-0.922454
0.64796
0.274494
0.687918
0.129291
0.181472
-0.0592756
-0.122196
0.276481
-0.256573
-0.0199081
-0.777692
0.275639
-1.03638
0.523162
0.171307
0.0968307
-0.268137
-0.0418615
0.240885
-0.199024
1.01187
-0.00117241
-1.0107
0.14275
0.00816099
-0.150911
-0.134147
-0.251844
0.220666
-0.0213223
0.0976319
-0.0900579
-0.007574
0.384089
-0.0544992
-0.329589
0.0310478
0.0665842
0.831653
-0.656601
-0.0286493
-0.136832
0.165481
-1.02133
0.204483
0.00156314
-0.147286
0.316418
-0.0369497
0.0938174
-0.00887354
0.00293752
0.237274
0.159423
-0.396698
0.590852
0.245591
0.441971
-0.317364
0.1885
-0.165981
0.0626473
-0.315877
0.614523
0.0132627
-0.627785
0.53154
-0.033292
-0.498248
-0.571135
-0.36022
-0.290071
-0.0612819
0.351353
0.402059
-0.428734
0.0266743
1.11337
-0.0407253
-1.07265
-0.366059
0.031694
0.334365
-0.493444
0.657796
-0.164352
0.580982
0.662484
-1.24347
0.227194
-0.389867
-0.267944
0.426343
-0.158399
0.209806
0.0939535
-0.303759
-1.13922
0.643533
0.495692
-0.0752506
-0.0148073
-0.844256
0.137797
0.294822
-0.180523
-0.114299
0.48824
-0.614066
0.125826
-0.0797232
-0.187189
0.187091
1.02127
0.82003
-0.13543
-0.6846
-0.848188
0.135916
0.338251
-0.54302
0.755368
-1.17723
0.421864
-0.097438
0.274704
-0.00349278
-0.382691
0.34078
-0.15575
0.205845
-0.130231
-0.797018
0.92725
0.474381
0.646222
-0.744845
0.773499
-0.0286545
0.0657439
0.0235644
-0.612662
-0.256137
-0.108049
0.1205
-0.0124513
0.530893
-0.245757
-0.285136
0.0173642
0.0270894
-0.0444536
-0.0652414
0.553481
-0.778743
-0.104295
0.883039
-0.720028
-0.251411
0.971438
0.472134
-0.345758
-0.126376
-0.169703
0.0180744
0.151629
-0.294851
0.0778901
0.216961
-1.01668
0.0460672
0.970612
0.0252455
0.1798
-0.205045
0.807292
-0.908258
0.100966
-0.519596
0.909172
0.20246
-1.11163
0.0103149
-0.118364
-0.112681
-0.611806
0.724486
0.604589
-1.10601
-0.948225
0.823554
0.124671
0.112688
-0.0156364
0.716516
-0.424763
-0.0455592
-0.244068
0.289627
-0.00845663
0.122904
-0.114447
-0.195074
0.90943
-0.714357
0.744535
-0.409725
-0.33481
1.03658
-0.980923
-0.0556524
0.785436
-0.290167
-0.495269
0.0420922
-0.216299
0.174207
-0.279121
-0.0115337
-0.922841
0.810252
0.112589
0.0527243
-0.975566
-0.256328
0.479466
-0.223139
-0.5948
-0.478812
0.178634
-0.156162
-0.0224723
-0.799238
-0.222094
-0.16993
0.112576
0.0573535
0.00672817
0.244526
-0.880989
0.851588
0.0294002
-0.174488
-0.104481
-0.0235947
0.154643
-0.0118933
-0.600821
0.136187
0.123159
-0.149498
0.0263391
-0.81786
0.43305
0.38481
0.354954
-0.0206082
-0.244241
0.689551
0.049392
0.35027
-0.0223309
0.206898
-0.184567
-0.0834244
0.540498
-0.605749
0.39018
0.215569
-0.123306
0.0480552
1.09447
-0.620092
0.926119
-0.519921
-0.244302
-0.150915
0.395217
0.458012
-0.915884
0.457872
0.547975
-0.612197
0.972727
-0.4327
-0.540027
-0.00341552
-0.510611
-0.095138
-0.578533
0.687841
-0.109307
0.0712991
-0.334265
1.11401
-1.06795
0.268712
0.382097
-0.145476
-0.0867913
0.0414751
0.109002
-0.00287433
-0.492375
-0.507652
1.29556
-0.62262
-0.314072
0.336552
-0.0224807
0.0626388
0.194116
-0.662411
-0.395153
1.05756
0.212707
0.328233
-0.00324188
-0.130529
0.133771
0.820643
-0.277127
0.00889993
0.268227
0.639503
-0.0249799
-0.353568
-1.03121
0.170069
-0.201349
0.00934115
0.192008
0.576112
0.785694
0.554167
-0.406158
-0.148009
0.982386
0.0541888
0.602465
-0.857341
0.254876
-0.83019
-0.0126171
0.842807
-0.752517
0.979632
-0.227115
0.124858
-0.00454376
-0.120314
-0.480964
1.08555
-0.306449
-0.0605781
0.367027
0.0203521
-0.765197
0.147288
-0.0523936
-0.0948943
-0.960376
1.24944
-0.289068
-0.231898
0.530019
-0.298121
1.16168
-0.511152
-0.650531
-0.0100838
-0.592076
0.602159
-0.20968
-0.0287438
-0.526593
1.10757
0.379984
-0.727047
1.10691
-0.483513
-0.172379
0.14373
-0.868712
0.0385216
1.19923
-0.50655
-0.0197687
-1.3176
0.226112
-0.0191851
0.339127
0.526864
-0.865991
0.544357
-0.119842
-0.424515
1.00273
-0.990247
-0.0124861
-0.123377
0.00905166
0.114325
-0.197011
-0.473187
0.670198
0.338802
-0.276155
-0.320698
0.0892696
0.231428
0.117101
0.288048
-0.405149
0.0744505
0.104184
-0.882632
1.03375
-0.151118
-0.229301
-0.024074
0.44721
0.199776
-0.646985
0.58253
0.525423
-1.10795
0.150394
0.486428
-0.0176158
0.982132
0.00223913
0.78383
-0.786069
0.00654029
-0.00859607
0.0784528
-0.00514566
-0.0733071
1.07384
-0.966712
-0.107133
0.447585
0.525142
-0.0916116
0.043769
0.0478426
-0.288358
0.803788
-0.515429
0.0127861
0.143066
-0.155852
0.541599
-0.882778
0.341179
-0.425812
-0.592964
1.01878
0.844891
-0.170394
0.298576
0.245781
-0.418119
-0.0662535
0.484373
0.279854
-0.807689
0.071736
-0.362334
0.290598
0.175064
-0.0739027
-0.101161
0.0209569
-0.230637
-0.0687385
0.606845
-0.538107
-0.152614
1.14011
0.769412
-0.616295
-0.153117
0.61817
-0.542099
-0.514657
0.150308
0.364349
0.120955
-0.483922
0.112273
-0.0186645
-0.0936089
0.0551119
0.12636
0.137471
0.735184
-0.872655
0.207815
0.176274
0.120648
-0.840675
-0.42166
0.160242
0.261417
-0.318799
-0.229547
0.548346
0.465658
-0.228383
-0.839351
0.556351
0.251489
-0.20261
-0.0488787
-0.463809
0.857225
-0.393415
-0.426985
0.434928
-0.428828
0.537797
-0.108969
-0.560115
0.903679
-0.343564
-0.0198311
0.191783
-0.171951
-0.269591
0.227729
-0.290401
-0.563708
0.878125
-0.314417
-0.542708
0.677571
0.498742
-0.502152
0.00340983
0.273975
-0.00635585
-0.267619
-1.25835
0.836462
0.421889
0.00937993
0.214523
-0.223903
0.0648199
0.691692
-0.886766
0.860489
-0.402476
-0.35834
-0.518627
-0.697276
0.699515
0.498612
-0.014053
0.388305
0.118888
-0.507193
-0.314092
0.289779
0.0243133
0.0233466
-0.122696
0.0993497
-0.212277
-0.384707
0.596984
-0.111669
0.477809
-0.36614
-0.750857
-0.260256
1.01111
-0.0391985
0.313173
0.872514
0.20133
-0.821481
0.52281
0.298671
-0.142813
-0.144645
0.287458
0.0033485
0.164628
-0.213563
0.0489346
-0.637934
-0.711834
0.499557
0.121616
0.185782
-0.14369
0.294846
0.236047
-0.0174135
-0.708916
0.0265424
0.263389
0.141136
0.0433902
-0.184526
-0.614868
-0.481931
1.0968
-0.099316
-0.318803
-0.503175
-0.101449
0.604625
0.120968
0.178059
-0.299027
-0.0122782
1.13114
-0.738759
-0.392385
0.16886
0.65117
0.0940342
0.239198
-0.457369
0.218172
-0.499189
1.00813
-0.50894
-0.566198
-0.254862
0.82106
-0.439087
0.171143
-0.409763
-0.104894
0.870967
-0.424558
-0.446409
0.369601
-0.259296
-0.110305
0.384126
0.0451258
-0.429252
-0.153943
0.179188
0.267857
-0.381358
0.113501
0.136293
-0.0237239
-0.195701
-0.00664592
0.464887
0.406079
-0.363379
0.825477
-0.420177
1.1236
0.231004
0.138597
-0.858797
0.292599
0.71452
-0.626458
-0.095479
-0.617264
0.12382
0.193532
-0.44986
0.724306
-0.699769
0.817103
-0.0174519
-0.183918
-0.103054
-0.278985
-0.0651455
0.344131
-0.278043
-0.0327911
0.705307
0.150815
-0.856122
0.0281792
-0.241901
0.213722
-0.00452457
0.374389
-0.82178
0.447392
0.874048
-0.0667558
-0.976055
1.03792
-0.0618619
0.204085
-0.124187
-1.0759
-0.182446
-0.324544
0.83839
-0.0281382
0.424972
1.1194
-0.408784
-0.710621
-0.636775
-0.0402934
0.677068
0.213487
0.506445
-0.719932
-0.682419
0.0311483
-0.158553
-0.145962
0.304515
-0.4634
0.599521
0.125713
0.514331
-0.640044
-0.0218718
0.0962895
-0.0744176
-0.964769
0.113269
0.8515
0.345044
0.515444
-0.224107
0.560725
0.224711
-0.297945
-0.120094
0.782509
-0.915699
0.0464222
-0.39789
0.351468
0.380664
-0.15347
0.665077
0.0466557
-0.711733
0.71805
-1.13823
0.00887283
0.0204787
-0.389008
0.538946
-0.149938
-0.715944
0.603263
-0.016599
0.262942
-0.246343
-0.375111
0.188112
0.186999
0.00732445
-0.285143
-0.243512
0.581763
0.229397
-0.0580898
-0.136864
0.147179
-0.0919412
-0.287315
0.0175542
-0.0539291
-0.170744
0.164448
0.00629606
0.184678
-0.209148
0.0244705
-0.634271
0.389799
0.134618
-0.637793
-0.0165289
-0.257262
0.0248702
0.536175
-0.561045
0.303485
-0.328474
0.165218
-0.800859
0.63564
-0.278327
0.729764
-0.451436
0.177499
-0.843538
-0.184485
-0.0254032
-0.922822
0.604805
0.690757
-0.738334
-0.101017
-0.452774
-0.305349
-0.389569
0.163776
0.0255333
-0.0179434
-0.00758989
1.22236
-0.646251
0.857619
-0.200883
-0.222695
-0.142155
0.36485
-1.16467
0.500514
0.664154
-0.432913
0.246553
-0.158472
1.06764
0.144623
-0.0851005
-0.401031
-0.262254
-0.044195
0.37916
-0.36138
-0.0177805
-0.115288
0.820594
-0.10154
0.324104
-0.222564
0.666729
-1.28609
0.58039
0.705695
0.215351
0.196791
-0.412143
0.574995
-0.256622
-0.318372
-0.497061
0.265163
-0.844353
0.0158572
0.368269
0.885804
-0.971752
0.380453
-0.170647
-0.394106
0.67396
-0.865166
0.617517
0.24765
0.584126
-0.926987
0.342861
-0.686397
0.721125
-0.0347276
0.421477
-0.504902
0.0124062
0.233892
0.238242
0.1274
-0.741768
0.31859
-0.992746
0.534192
0.458554
0.232077
-0.868852
0.697996
-0.0450052
-0.566303
0.13245
0.143485
1.01491
-0.334878
-0.680033
-0.237876
0.245693
-0.564493
0.135945
-0.959934
0.919641
-0.782111
0.339264
0.468671
-0.696526
0.384235
0.312291
-0.82391
0.52348
0.30043
-0.236586
0.0246661
-0.106815
-0.997876
0.695717
0.302159
0.602533
-1.0835
-0.87016
-0.0124721
1.16051
-0.405144
0.233526
0.0957965
-0.329323
-0.0196988
-0.121643
0.141341
-0.267747
0.471661
0.527686
-0.432737
-0.263789
0.166142
0.17266
0.222294
0.333193
-0.555487
0.348206
-0.208348
-0.0391438
-1.06277
1.10191
-0.307731
0.405403
-0.767132
-0.568959
-0.414765
0.983723
0.229336
-0.299232
-0.65014
0.201713
0.448427
-0.0326762
-0.0163447
0.0490209
0.72241
-0.852642
0.0614847
-0.450493
0.49098
0.461984
-0.952964
-0.372309
0.058237
-0.794773
0.222102
0.572671
-0.989041
0.563229
0.506766
-1.00596
0.525804
-0.479382
-0.0289936
-0.00368262
-0.0305872
0.92371
-0.586867
0.726375
-0.139508
0.861582
0.00197825
-0.86356
-0.668164
-0.0118387
-0.17387
0.064009
0.662583
0.103111
0.026844
0.258786
0.458025
0.0732
0.481054
-0.101213
0.124559
-0.829488
-0.0515002
-0.659044
0.276956
-0.74187
0.156686
0.176544
-0.33323
0.785853
0.0462278
-0.832081
-0.0890103
0.0844666
-0.329798
-0.706577
-0.757708
-0.107889
-0.443594
1.16164
-0.315021
0.428091
-0.11307
-0.888629
0.273761
-0.259216
0.481509
-0.294883
-0.627572
-0.429834
-0.306102
0.314854
-0.606401
-0.211459
0.960504
-0.122114
0.592895
-0.282716
-0.310179
0.0796317
0.101308
0.22879
0.985223
-0.940191
0.0086093
-0.2038
0.291427
-0.470236
0.483008
-0.421611
-0.508962
0.199697
0.158255
-0.357952
-0.763867
0.0372747
-0.109534
0.731801
-0.622266
-0.0685758
-0.907479
-0.677749
0.806401
1.38932
-0.603151
-0.786172
-0.134871
0.304992
0.778162
-0.416092
-0.36207
0.235536
-0.25926
0.0409756
0.0374772
-0.194109
0.0503671
0.143742
-0.109528
0.497833
-0.492657
1.09519
-0.0299513
-0.126211
-0.254334
-0.0692594
0.323593
-0.0153658
0.737776
0.145775
0.448039
-0.593814
-0.358761
0.537886
0.410763
0.393024
-0.331603
-0.090057
0.482739
-0.177866
-0.304873
-0.0631243
0.0473078
0.0158165
0.141815
-0.780679
0.638864
-0.880664
0.122956
0.197384
-0.463626
0.740582
-0.00729627
0.242833
0.108668
-0.423689
-0.937804
0.47046
-1.02263
0.329684
-0.412665
0.0382658
-0.396075
-0.547057
0.943132
-0.840613
0.158214
0.156923
-0.315137
0.997738
-0.761019
0.772939
-0.559452
0.150198
0.495224
-0.645423
0.202949
-0.361501
-0.574106
-0.150196
0.724302
0.140669
0.0283224
-0.168992
-0.480578
1.06619
-0.585611
0.763506
-0.486517
-0.27699
0.672805
0.0214319
-0.694237
-0.53153
-0.754555
-0.297972
-0.00805105
0.351133
0.581643
-0.0126594
0.074744
-0.0620847
-0.642547
-0.152227
0.653753
0.565953
-0.502807
0.599958
-0.0971507
-0.302174
0.311074
-0.0325453
0.298031
-0.265485
0.200541
-0.302081
-0.115537
-0.882339
-0.827005
0.238799
0.0126906
-0.19593
0.0359085
0.0674125
0.696462
-0.763874
-0.474244
-0.126577
0.437167
0.34187
0.0618983
-0.212757
-0.0096154
0.193946
-0.184331
0.082422
-0.334742
0.25232
0.243391
0.256183
0.277059
0.780461
-0.361945
0.841306
-0.435903
-0.0979515
-0.227476
0.325427
0.711108
0.0720496
0.0313703
-0.628095
0.431084
0.315481
-0.330847
-0.503619
-0.589829
1.09345
-0.622244
-0.542424
-1.06703
1.10942
-0.0423897
0.30841
-0.348752
0.283607
0.52309
0.257371
-0.279174
0.114453
0.16472
-0.280525
-0.550382
-0.0681158
-0.582944
0.65106
0.412734
-0.200027
0.348015
-0.276279
0.550734
-0.880532
0.444072
-0.332706
-0.724057
1.29484
-0.570785
0.613896
0.468479
0.279509
-0.747988
1.08162
-0.628143
-0.45348
-0.495258
-0.651656
1.08854
-0.436886
0.307001
0.285894
-0.253339
0.246043
0.399442
0.762241
-0.182184
0.162485
0.0217982
-0.0188902
0.901862
-0.500194
0.436596
0.785766
-0.366682
0.189272
0.177409
0.200287
-0.444589
0.712375
-0.047298
0.420352
-0.186826
-0.647168
-0.118719
0.765887
0.162869
-0.0302246
-0.132645
0.11545
0.0886627
0.129806
-0.882323
-0.252636
0.277263
0.655031
-0.570851
-0.0841801
0.147554
0.335185
-0.12624
0.0669645
0.224643
0.211244
-0.435887
-0.457383
1.04978
-0.0257821
-0.537793
1.10451
-0.566716
-0.273704
0.390805
-0.0282417
0.00636984
1.04923
-0.521203
-0.329671
0.293552
0.281443
0.267809
-0.284338
-0.138211
0.11838
-0.27373
-0.115186
-0.00226649
0.392756
-0.133257
0.76008
-0.626823
0.111035
-0.0906103
-0.318262
0.0741945
-0.286506
-0.0114662
-0.847047
0.574908
0.215908
0.210435
-0.3157
-0.0102548
0.325955
0.267452
0.0371936
0.780787
0.421618
-1.20241
-0.0776212
-0.0181055
0.0957267
0.192102
-0.707419
0.909263
0.48006
0.733396
-0.665984
-1.09833
-0.00934047
-0.0221487
-0.0768356
0.43148
0.247871
0.638112
-0.885983
0.335538
-0.0320533
-0.0298196
-0.290283
-0.0763988
-0.48111
-0.412053
0.533008
0.521603
0.364315
0.529028
-0.547032
0.0180046
0.157582
0.00686627
-0.0640803
0.216417
-0.0317393
0.672725
0.168652
-0.841377
0.387782
-0.00862184
-0.194197
0.117443
0.0767535
-0.300845
-0.00214321
0.302988
0.293958
0.555375
-0.849333
0.201989
0.263669
0.64304
-0.0168509
-0.227232
0.598577
-0.140551
0.042288
-0.0629344
0.0206464
-0.945261
0.507795
0.77851
-0.622787
-0.155723
0.0113117
-0.110548
0.0992361
0.757723
-0.826461
0.483689
-0.0709549
0.348253
0.424686
-0.102825
-0.0123609
-0.414446
0.150681
0.263765
-0.555108
-0.0970199
0.998872
-0.510599
-0.488272
0.515107
-0.0881392
-0.426968
0.374556
-0.636904
0.262347
-0.074914
0.464436
-0.00117159
-0.345645
0.774569
-0.428923
-0.263898
-0.150549
-0.384314
0.176046
0.148057
0.684246
0.0042027
-0.688449
-0.298652
-0.0553934
0.196529
0.0568228
-0.0130537
0.357518
0.181428
-0.168459
0.185823
-0.0105736
0.00708037
-0.130344
0.127295
-0.350857
0.501056
0.0114631
0.195938
0.209556
-0.279515
0.685858
-0.0503893
0.579417
-0.12014
-0.0902805
-0.208845
0.433488
-0.180421
0.858937
-0.678517
-0.743749
-0.100507
-0.600157
0.938896
-0.338739
-0.178295
0.354342
0.272664
-0.0551441
-0.018119
-0.204753
0.222872
-0.766949
0.245746
0.084945
-0.101946
0.475063
-1.13747
0.346652
-0.92863
-0.434847
1.00192
-0.434759
0.447523
-0.236279
0.0117809
-0.583703
0.725517
0.000259645
-0.124529
0.139686
-0.485444
-0.0829059
-0.550673
0.633579
-0.135258
0.438188
1.23789
-0.812021
-0.425869
-0.189872
0.0572029
0.177577
0.0188526
-0.196429
-0.719949
0.133083
0.149427
0.0256369
-0.00585161
-0.0973662
0.103218
0.400012
-1.00017
0.0768945
0.397407
0.0247417
-0.422149
-0.951166
0.770746
0.115571
0.0312513
-0.146822
0.308241
-0.871949
-0.112017
-0.00250047
0.114518
0.14795
-0.0323791
-0.00285667
0.643176
-0.492783
0.536477
0.435016
-0.233027
-0.803098
0.234139
-0.605476
0.480932
0.124543
0.558317
-1.06194
-0.443309
-0.26817
0.711478
0.064589
0.343944
-0.257836
0.216253
1.05286
-0.15047
-0.902389
-0.0106048
-0.818884
0.617067
0.0557388
0.3712
0.406962
-0.126544
-0.00398503
0.111924
-0.243717
-0.295115
0.0473823
-0.0415563
-0.00582601
0.0191096
-0.657247
0.638137
-0.0487404
0.246933
-0.198193
0.366645
-0.902976
0.536331
-0.102115
-0.475762
-0.0286782
0.021216
0.604986
-0.296511
-0.166545
0.463055
-0.31429
-0.359273
0.382788
-0.224532
0.34177
-0.0280703
-0.3137
-0.459585
0.143885
-0.642222
-0.116343
-0.017778
0.134121
0.110905
0.259652
-0.370557
0.312072
-0.784946
0.472874
0.0132609
-0.48027
0.148335
-1.10871
-0.364405
-0.736582
1.10099
-0.847573
0.0375327
0.81004
-1.15045
-0.701974
0.0155768
-0.232542
0.238282
-0.00573929
-1.15975
-0.307466
0.980191
0.324261
-0.164837
0.0742773
-0.283122
-0.141038
0.404707
0.120593
0.0718965
-0.32623
0.0124326
-0.0975514
0.0851188
-0.200516
0.0745541
-0.0642257
0.0755374
-0.232099
0.447451
-0.875648
0.540347
0.335301
-0.265372
0.200419
0.520948
0.16385
-0.000980554
-0.225844
-0.0533299
-0.423529
-0.226611
-0.468446
0.164306
0.30414
0.0195173
0.318231
-0.337748
-0.347815
0.430237
-0.065251
0.633056
1.00785
-0.862071
0.484439
-0.798729
0.374641
-0.515085
0.140444
0.0788189
0.000419519
0.000446753
-0.00346669
-0.935433
0.539358
0.113858
0.401249
0.0127589
-0.159301
0.146543
-1.45054
0.590313
0.0256686
-0.235813
-0.158451
-0.0173485
-0.179374
0.196723
-0.481154
0.184643
-0.965765
0.850228
1.03005
-0.53907
-0.150792
0.135777
0.0150158
-0.0804978
0.0515497
-0.117869
-0.912447
0.275891
0.636556
-0.109935
0.0918297
-0.0529878
0.240574
-0.187586
0.296532
0.187157
0.162363
-0.141827
-0.0205359
-0.218881
0.230344
0.085462
0.000957366
0.501144
-0.780545
0.938039
0.0443476
-0.536384
-0.128174
0.851375