/*--------------------------------*- C++ -*----------------------------------*\
| =========                 |                                                 |
| \\      /  F ield         | OpenFOAM: The Open Source CFD Toolbox           |
|  \\    /   O peration     | Version:  2306                                  |
|   \\  /    A nd           | Website:  www.openfoam.com                      |
|    \\/     M anipulation  |                                                 |
\*---------------------------------------------------------------------------*/
FoamFile
{
    version     2.0;
    format      ascii;
    arch        "LSB;label=32;scalar=64";
    class       volVectorField;
    location    "7";
    object      U;
}
// * * * * * * * * * * * * * * * * * * * * * * * * * * * * * * * * * * * * * //

dimensions      [0 1 -1 0 0 0 0];

internalField   nonuniform List<vector> 
13486
(
(1.39182 -0.193605 6.07446e-19)
(1.65021 0.304223 2.96997e-19)
(2.64611 0.0422374 0)
(-1.2644 0.456145 -7.70629e-19)
(2.28988 -0.491975 1.62933e-19)
(2.48839 0.16155 1.22981e-20)
(2.47906 -0.37253 5.29132e-22)
(1.93567 -0.695794 -2.96789e-19)
(1.90047 -0.369033 0)
(1.99554 0.789971 0)
(-0.925625 2.43891 -1.24577e-18)
(2.52696 -0.074567 0)
(1.23218 -0.396558 -5.976e-19)
(2.47127 0.79275 1.06826e-20)
(2.3812 -0.330552 9.07598e-20)
(1.95088 0.780979 -1.96432e-19)
(0.54186 -0.134437 7.82291e-19)
(0.891959 -0.520473 1.18981e-19)
(2.21695 -0.00964169 2.95553e-21)
(1.58227 -0.0336316 -6.20511e-19)
(-1.07155 -0.163216 -2.62683e-19)
(1.25182 -0.411183 7.7074e-19)
(1.6729 0.299787 -2.37414e-19)
(3.54335 -0.868558 0)
(2.04851 0.632951 6.61922e-20)
(3.44813 -0.833332 -2.99951e-19)
(0.318841 -0.123391 9.25715e-19)
(2.84433 -0.196696 5.76852e-19)
(2.03773 0.0777044 0)
(2.64646 -0.435582 -4.00763e-19)
(-0.589191 -0.840463 -1.38288e-19)
(2.4487 -0.247659 -1.3239e-19)
(3.23461 -0.146427 4.8163e-19)
(2.17902 -0.109206 0)
(1.94339 -0.66786 0)
(1.75976 0.00899701 1.03519e-22)
(1.7383 0.184649 -2.36534e-20)
(1.42177 -0.668748 2.99768e-19)
(1.73087 -0.139877 -1.5205e-20)
(1.93825 -0.228545 3.01659e-19)
(2.3758 -0.771062 0)
(0.819351 -0.404992 -6.94245e-19)
(1.99742 -0.00275601 0)
(2.06405 0.53 -3.14756e-19)
(2.084 0.529076 1.2963e-19)
(2.52791 -0.0740462 9.32132e-20)
(-0.920925 0.197167 1.41945e-18)
(2.0211 0.077906 -4.44107e-22)
(1.75319 0.178338 1.80126e-20)
(2.81119 -0.0102403 2.22182e-19)
(1.99949 0.0309603 3.67553e-19)
(1.80076 -0.032027 0)
(2.55808 -0.157097 -1.35717e-19)
(1.5743 -0.573893 -4.39027e-19)
(0.919021 -0.675365 0)
(2.25826 -0.498655 -1.1324e-19)
(2.22017 0.414193 2.3664e-21)
(1.78583 -0.0699691 -6.53015e-20)
(3.2194 -0.121274 5.70537e-19)
(1.61309 0.34102 0)
(-1.0104 2.27994 -1.70116e-18)
(1.6242 0.344368 0)
(3.68872 0.411587 -4.40368e-19)
(-0.988733 -0.188423 -2.66701e-21)
(2.09685 -2.51705 0)
(1.72724 0.217229 -1.18401e-20)
(-1.5194 0.533276 -8.69442e-19)
(1.39228 0.0685536 2.07974e-19)
(1.89876 -0.390745 -1.7128e-19)
(1.68074 0.00939548 1.29214e-20)
(-1.44115 0.550944 9.96818e-19)
(0.931767 -0.629546 4.95319e-21)
(1.96577 -0.110415 2.25859e-19)
(-0.92839 0.15735 -5.47934e-19)
(1.74917 0.292324 -2.86676e-21)
(2.2414 0.396288 -2.26365e-22)
(1.76695 0.281522 6.35992e-21)
(2.38464 -0.347471 -3.65247e-20)
(-0.769803 0.672447 -7.16713e-19)
(1.80315 -0.505285 0)
(1.99837 0.0173417 1.31498e-21)
(1.59248 0.410348 -1.89058e-20)
(3.70389 0.359886 -9.00878e-21)
(2.75044 0.0451188 -3.37897e-21)
(1.38355 -0.208862 -1.18871e-18)
(1.312 1.71581 0)
(1.61866 -0.326015 -1.3827e-20)
(2.0019 0.0468317 -5.56156e-19)
(1.86196 0.229759 -2.42655e-19)
(1.83574 1.05622 -2.20558e-19)
(2.51303 -0.244787 -8.08247e-20)
(2.06744 -0.586026 -1.51936e-19)
(1.44959 -0.308845 1.55869e-19)
(1.63328 0.102891 1.62982e-20)
(1.78007 -0.54551 6.93572e-20)
(2.01379 0.0636336 7.3104e-23)
(0.22911 -0.0306469 0)
(-1.92499 0.503899 6.19231e-19)
(1.95618 -0.227141 -5.75916e-19)
(0.689311 -0.124349 -8.63571e-22)
(1.92933 0.0188674 0)
(2.43776 0.788012 3.90133e-22)
(-1.97777 0.380718 4.80516e-20)
(1.78104 -0.0578195 7.64834e-20)
(1.28343 1.66533 0)
(0.72614 -0.0567666 9.19197e-22)
(1.97044 0.0689848 5.50692e-22)
(1.74054 -0.170559 -3.43403e-20)
(-0.844444 0.578605 9.7364e-19)
(1.72475 -0.780788 0)
(1.21348 -0.583957 0)
(2.45832 -0.293693 -1.16269e-19)
(1.58228 -0.554415 3.49952e-21)
(2.2281 0.224985 4.84662e-22)
(1.01965 -0.0275665 0)
(1.16169 -0.575603 -2.57291e-19)
(2.04397 0.650081 0)
(2.28586 -0.0890317 0)
(1.95463 -0.109251 0)
(1.80224 0.150316 -8.91105e-21)
(0.947871 -0.495615 -5.19041e-20)
(-1.28491 2.35246 0)
(1.75972 -0.493637 0)
(1.73508 -0.148231 4.88849e-20)
(1.82855 -0.6412 0)
(1.78868 -0.0280945 0)
(2.17315 -0.244797 6.40264e-21)
(2.2097 0.0772835 1.20078e-19)
(1.90212 -0.0479735 -5.71514e-20)
(2.14591 -2.0907 -2.91437e-19)
(1.78699 -0.016265 -7.85773e-21)
(-1.05931 0.0126096 -3.53241e-19)
(0.583327 0.570991 1.04331e-18)
(-0.263161 0.184165 6.93266e-19)
(1.99957 0.0163139 -5.9971e-20)
(1.89705 0.440723 -2.80446e-19)
(0.594607 0.771992 -1.71689e-19)
(1.74841 -0.776407 0)
(1.8116 0.13952 2.41818e-21)
(1.96138 -0.546987 -1.07393e-19)
(3.06821 0.000729335 -4.93093e-19)
(2.55552 -0.167315 1.14187e-19)
(2.47445 -0.192286 0)
(1.82848 -0.484122 0)
(2.10017 0.00309914 1.84702e-21)
(4.12145 0.263859 -9.59306e-19)
(2.15023 -0.184877 -8.83174e-22)
(0.236566 1.74316 0)
(2.81643 0.00333087 0)
(2.03966 0.0723447 0)
(2.01125 0.0227835 5.7407e-21)
(2.39118 -0.407655 0)
(1.99083 0.00731616 -1.38036e-21)
(1.56765 0.410558 -1.60856e-19)
(2.20479 0.334906 0)
(2.79943 0.0650436 0)
(1.54386 -0.701521 0)
(-0.249631 0.0876607 4.78305e-20)
(1.68267 -0.673608 6.18707e-19)
(2.09251 0.0105421 -4.58483e-19)
(2.68686 0.0123775 1.23109e-19)
(1.68949 -0.652086 -9.38871e-19)
(2.35149 -0.26586 5.78354e-20)
(0.727413 -0.345531 3.04697e-19)
(1.80168 -0.0451078 0)
(2.58237 0.776529 -5.95225e-20)
(2.38568 0.720453 4.42543e-20)
(0.378862 -0.0939659 -7.36419e-19)
(2.14408 -0.145037 -3.3019e-22)
(-0.279326 0.197918 1.87667e-19)
(0.41901 0.510295 1.82867e-20)
(2.19936 0.307729 1.02329e-19)
(1.99814 0.0909619 -4.57134e-19)
(2.31242 -0.194746 9.6167e-21)
(1.98521 0.0365124 1.15991e-22)
(-1.83179 -0.188176 0)
(2.44835 1.1193 4.77316e-20)
(3.18237 0.0497382 6.62138e-19)
(1.97852 0.0641592 -5.90632e-19)
(2.47429 -0.178461 0)
(1.97819 -0.274826 6.02705e-19)
(2.23035 0.205693 1.13051e-21)
(2.38077 -0.186005 -4.02798e-21)
(-1.78885 1.12003 0)
(2.68535 -0.0165506 1.29863e-20)
(2.64994 -0.182706 -2.60675e-19)
(2.08157 0.0678056 -2.34103e-22)
(2.60763 -0.293058 -1.1898e-19)
(2.41375 -0.755275 0)
(1.04018 -0.502691 -3.3246e-19)
(1.78366 0.174798 0)
(2.42511 0.0508353 0)
(1.82247 -0.115877 0)
(1.26714 0.882233 -3.33901e-19)
(1.86272 -0.147674 0)
(-1.25757 2.455 -3.52442e-19)
(2.0725 -2.36518 6.44323e-19)
(2.57914 -0.00559429 7.07959e-20)
(1.04549 -0.516484 -1.31044e-19)
(2.55986 0.737527 -2.00176e-20)
(-0.638936 -0.865683 1.37372e-19)
(2.22189 0.0972305 -3.60374e-21)
(1.30407 -0.630841 -3.46397e-19)
(1.63318 -0.708553 3.75815e-20)
(2.05601 0.202065 5.56575e-19)
(1.88015 -0.137203 -5.88326e-20)
(0.620092 -0.625756 3.77253e-20)
(1.88583 -0.0371095 4.6798e-19)
(1.81 -0.118994 0)
(2.69624 0.000140781 0)
(2.82598 -0.200973 4.11506e-19)
(3.14809 -1.27759 5.44586e-19)
(1.60092 -0.01844 5.67948e-19)
(1.96447 0.0678619 6.32612e-22)
(2.48739 0.204755 -1.41665e-20)
(2.10334 -0.697674 4.12906e-20)
(2.69203 -0.389986 0)
(1.83199 1.04018 5.51942e-19)
(1.5317 -0.332905 0)
(3.21468 0.792261 0)
(0.720295 -0.115282 -1.50092e-18)
(2.84452 0.0362628 0)
(1.94346 -0.541239 2.49195e-19)
(2.672 0.027839 0)
(2.59351 -0.161432 -2.22599e-20)
(1.2006 -0.563417 2.14182e-19)
(2.61969 0.360982 -5.07696e-21)
(-1.07235 -1.53588 2.04499e-19)
(2.05667 -0.457101 6.44015e-21)
(1.64427 -0.304301 -2.86288e-21)
(1.99217 -0.26792 -1.93705e-19)
(1.34949 -0.186648 1.6167e-19)
(3.10307 -0.0277056 6.17798e-19)
(0.839643 -0.404927 2.37743e-19)
(-1.65076 -0.243491 0)
(1.01668 -0.494932 2.52357e-20)
(2.48001 -0.228347 2.00959e-19)
(2.43166 0.0339784 -9.89704e-22)
(0.88629 -0.428528 6.83648e-19)
(2.37822 -0.121243 0)
(3.28245 -0.170761 0)
(2.00401 0.0667929 6.98072e-19)
(2.29151 0.145998 0)
(0.894924 -0.444539 2.27254e-19)
(1.66357 -0.196144 -3.12874e-20)
(1.79735 0.0905986 0)
(2.25693 -0.0147637 -4.24678e-20)
(3.01441 -0.705967 8.29969e-19)
(-0.249986 -0.09989 1.16747e-18)
(2.02736 0.50546 0)
(-2.60509 1.03385 -3.96199e-19)
(0.982411 0.00238661 8.81096e-20)
(0.978112 -0.480647 3.24302e-19)
(1.74588 -0.177717 0)
(1.94492 -0.434898 4.02909e-20)
(-1.67264 -0.120389 3.57746e-19)
(2.45186 -0.246953 1.09854e-19)
(2.06726 -0.715378 -5.22617e-20)
(-0.188143 0.119509 -4.99557e-20)
(3.25868 -0.179372 4.09118e-19)
(1.76803 0.246558 0)
(1.65299 -0.183276 -9.57223e-23)
(2.38166 -0.338277 -2.1444e-19)
(-2.00557 0.158003 -4.4466e-19)
(2.1895 -0.703811 -1.70386e-19)
(-1.79128 1.22525 0)
(2.07863 -0.441754 -1.0204e-19)
(-0.922599 -0.691058 -2.45496e-19)
(2.12212 -0.0113725 -2.60715e-19)
(1.259 -0.396741 0)
(1.5212 0.959855 2.40427e-19)
(1.97168 0.0720954 -1.60907e-19)
(2.71674 -0.411709 0)
(2.56424 -0.109188 7.58829e-20)
(1.13029 -0.543041 2.83634e-19)
(2.92787 -0.705758 -4.63213e-19)
(1.95197 -0.400503 0)
(1.14553 -1.15989 0)
(1.76242 -0.207347 -3.72467e-20)
(2.2481 -0.19577 7.66702e-21)
(1.15474 -1.2336 9.39068e-20)
(2.10918 -0.182706 -2.18587e-19)
(1.93758 0.0932391 3.49512e-19)
(4.31359 -0.407237 -7.87396e-19)
(-1.63638 2.28717 1.98995e-18)
(0.391079 -0.279751 1.5049e-18)
(3.04935 0.0752099 5.02149e-19)
(1.84379 -0.0675727 7.49481e-20)
(2.67815 -0.160512 3.31635e-20)
(2.0997 -0.00343635 0)
(-1.62434 -0.0628913 0)
(1.39388 -0.0531227 4.3211e-20)
(1.19492 -0.577187 2.53755e-19)
(1.99738 0.0234128 -5.89843e-20)
(2.50625 -0.217204 1.86477e-19)
(2.54747 -0.26703 0)
(2.08065 -0.0371272 -1.61837e-19)
(2.57605 -0.0926608 -5.79137e-20)
(1.92832 0.0759964 -3.20351e-19)
(2.50758 -0.495895 2.60238e-20)
(1.94316 -0.230844 -7.0278e-20)
(0.687042 -0.633952 5.16761e-21)
(2.2994 -0.163835 -6.5935e-21)
(2.4373 -0.24976 1.26384e-19)
(1.77191 0.127899 4.64482e-21)
(1.34038 -0.612833 0)
(0.568568 -0.0618001 0)
(2.22256 -0.0328285 8.6719e-20)
(1.63904 -0.343357 1.43686e-20)
(1.76973 0.181835 0)
(1.87253 1.28747 -1.27585e-18)
(-1.17823 0.49546 0)
(2.34763 1.09652 1.34528e-20)
(2.46258 -0.292927 -1.22227e-19)
(2.17714 1.26382 0)
(1.88555 0.432516 -1.73009e-19)
(1.31326 -0.0465544 -6.487e-20)
(1.85985 0.217507 -2.07754e-20)
(1.8792 -0.029452 -5.16137e-19)
(2.14428 -0.451783 0)
(1.74537 0.212451 2.15549e-20)
(1.5168 -0.0554697 -2.05664e-21)
(1.98753 0.0616622 7.46298e-20)
(1.61705 0.149252 -3.05662e-19)
(0.699296 0.745984 3.18935e-19)
(2.49616 -0.243941 1.54836e-19)
(2.2054 -0.349913 -5.78346e-19)
(2.12618 -0.181135 0)
(2.6367 -0.076296 1.68957e-21)
(2.23915 -0.357278 -1.01896e-19)
(2.00111 0.0319117 8.06238e-19)
(2.0952 -0.589488 0)
(2.50065 -0.261074 -3.73364e-20)
(1.41757 0.408535 0)
(2.4872 -0.376974 -1.11266e-19)
(1.86086 -0.511317 -1.87666e-19)
(0.638674 -0.297466 2.84277e-19)
(2.37265 -0.42412 -1.35821e-19)
(2.02229 0.199564 0)
(1.62952 -0.193845 -4.98235e-20)
(2.1111 -0.45563 1.11673e-19)
(1.62784 0.155986 2.88626e-19)
(2.25432 -0.362912 4.04456e-19)
(2.37286 -0.189773 1.99086e-19)
(-2.4748 1.72608 -1.26185e-18)
(2.0213 0.0741262 1.0883e-22)
(2.22685 -0.179114 0)
(0.964361 -0.328923 6.85405e-19)
(3.23193 0.759665 0)
(1.40179 -0.104222 3.38445e-21)
(2.26719 -0.0961468 3.58746e-19)
(2.60799 -0.093488 -5.41189e-20)
(2.56852 -0.108468 5.75291e-20)
(0.101551 0.091335 -1.09804e-18)
(1.93773 0.0752165 3.99851e-19)
(1.94163 0.0215229 0)
(-0.688926 0.368925 -5.14261e-19)
(2.18558 -0.24819 -1.25836e-19)
(1.66618 -0.333633 -1.03195e-20)
(2.99464 -1.24877 4.52606e-19)
(2.44748 -0.0159286 0)
(2.56774 -0.246347 1.01301e-19)
(1.78558 0.174963 6.20069e-19)
(1.96764 0.0809803 4.89418e-19)
(2.67412 -0.455995 0)
(1.98855 0.00148808 -2.87842e-22)
(2.56286 -0.255554 -1.88751e-19)
(-1.3756 -0.506373 2.27569e-19)
(1.56581 -0.0353826 7.88879e-20)
(2.19259 -0.21366 1.19633e-19)
(2.03923 0.0050437 -1.59927e-21)
(2.22165 -0.17041 0)
(2.57995 -0.158981 -7.6919e-20)
(-2.66379 1.18255 4.31218e-19)
(2.4652 0.425374 8.73386e-21)
(1.99771 0.0304134 3.09975e-19)
(1.3823 0.0284676 0)
(1.52772 -0.14631 -6.26003e-20)
(2.33102 1.23449 0)
(3.36545 1.29659 -2.92595e-19)
(2.1311 -0.0265791 0)
(2.08652 -0.6822 -6.69704e-21)
(1.29368 -0.0868874 -1.68151e-19)
(1.50983 0.888357 5.76031e-19)
(-1.30579 -0.210744 -8.22736e-19)
(1.98303 -0.398509 0)
(2.39536 0.0627746 -6.89478e-20)
(2.0285 0.208878 -1.82761e-19)
(0.957946 -0.472828 -4.6448e-19)
(-0.457053 -0.404808 1.5498e-20)
(1.62981 -0.0331044 -8.56996e-19)
(2.77497 -0.368648 1.98056e-19)
(2.09954 0.205303 1.28816e-19)
(1.41677 -0.432902 0)
(1.34092 0.339551 3.29325e-19)
(1.84047 0.151562 -5.3911e-21)
(-1.37331 0.530423 4.58817e-19)
(-2.68905 1.15255 -1.43482e-18)
(1.08948 -0.348893 -9.46191e-19)
(3.08123 0.0559592 0)
(1.04834 -0.438872 0)
(2.01487 1.22123 0)
(2.09831 -0.0848798 0)
(0.777081 -0.155107 -8.67079e-20)
(2.46441 -0.353132 0)
(1.55512 -0.217509 0)
(1.65405 0.118921 1.18663e-19)
(3.17291 0.0681172 -6.86594e-19)
(2.19673 -0.161445 -2.92041e-19)
(1.69368 0.347992 1.01261e-18)
(2.00618 0.0230313 -9.37906e-20)
(2.35045 1.75874 0)
(2.84071 -0.308048 0)
(1.91979 0.0808704 3.41984e-19)
(2.02272 0.051942 6.07709e-20)
(1.2817 0.937785 0)
(-1.82684 1.07014 1.26803e-18)
(2.17176 -0.719023 1.91766e-19)
(-0.252692 0.148486 0)
(2.37297 -0.122316 1.98003e-19)
(1.974 0.0641407 -3.95864e-19)
(0.377288 -0.0222286 -5.27437e-20)
(0.959961 -0.314634 0)
(2.01248 0.215139 3.41665e-19)
(2.66014 0.199645 0)
(2.59753 -0.28848 0)
(2.23152 0.208581 -1.67447e-20)
(1.93281 0.0978456 1.83626e-19)
(0.324211 -0.127208 -1.19797e-18)
(2.34119 0.709801 2.88784e-20)
(1.30597 -0.327139 -2.96233e-19)
(2.10263 -0.0757245 3.84552e-20)
(2.1036 0.199939 1.00478e-19)
(2.68849 -0.160569 1.93311e-19)
(2.26806 -0.698173 0)
(3.07696 -0.588071 4.16614e-19)
(1.30138 -0.0272688 0)
(1.4581 -0.0942591 3.62579e-20)
(2.29451 -0.198559 0)
(1.41706 0.0827189 4.4054e-19)
(-0.616363 -0.210141 -1.36858e-18)
(2.73667 -0.352793 0)
(-0.203002 0.157046 3.11467e-20)
(2.84883 -0.337817 -4.37972e-19)
(1.75126 -0.354498 -3.4821e-20)
(1.757 -0.251161 8.01726e-19)
(1.40139 0.87545 -3.62456e-19)
(1.29803 -0.31607 -8.43884e-19)
(3.52198 1.26579 0)
(1.789 0.149353 9.6538e-21)
(-2.42269 1.81585 -3.17863e-18)
(2.01701 0.223474 0)
(1.83967 0.244635 2.26206e-20)
(2.91777 -0.0371488 -4.69314e-20)
(2.75119 1.17999 0)
(2.00336 0.0192345 0)
(-2.16171 1.05254 0)
(-1.65187 -0.577041 1.55574e-18)
(4.31246 -0.519512 9.5236e-19)
(3.77434 0.328918 3.51862e-20)
(2.31242 1.05137 0)
(1.68993 -0.156397 5.50462e-19)
(1.97804 0.0358331 -3.17843e-22)
(2.33759 0.652219 -5.62461e-20)
(-1.10954 0.131141 5.05118e-19)
(1.90756 0.17503 0)
(2.02806 0.0774305 0)
(0.692862 -0.0848552 -4.66009e-19)
(1.39079 -0.425343 -2.06384e-19)
(1.94779 -0.17257 0)
(1.25729 -0.609333 -2.3597e-19)
(1.96245 0.0186471 1.14196e-21)
(2.01434 0.0570502 -1.64881e-22)
(0.720087 -0.331821 0)
(1.91809 -0.0425829 7.4037e-20)
(1.82198 0.135717 6.26695e-21)
(2.6587 0.177386 1.19687e-19)
(1.84089 -0.528768 0)
(0.378367 -0.258726 -2.26639e-18)
(2.58895 -0.0960982 6.31573e-20)
(2.00221 0.0955509 7.21451e-20)
(1.89334 0.0310188 3.40148e-21)
(2.65209 0.75985 0)
(1.6672 0.342913 -2.69798e-19)
(3.18726 0.51421 -2.40124e-19)
(1.01074 -0.256245 1.96322e-19)
(2.00871 0.055836 0)
(-0.51116 -0.443077 -1.58313e-20)
(0.425255 -0.0613644 0)
(2.00478 0.0522214 -2.79281e-19)
(1.99105 0.0731762 1.22229e-19)
(1.87464 0.0568787 -6.67213e-20)
(-1.94504 -0.294564 0)
(2.31593 0.0318709 -1.56883e-20)
(1.06388 0.494176 8.9718e-19)
(2.23766 -0.693853 0)
(1.62026 0.106041 3.69816e-19)
(2.48103 -0.510688 -2.95411e-20)
(2.21075 -0.0170282 0)
(-0.971697 -0.833338 1.37954e-19)
(1.81965 -0.463326 -6.70887e-20)
(2.05039 -0.00144097 0)
(0.592365 -0.0306709 1.44541e-18)
(1.82796 0.232334 0)
(1.64905 -0.753024 2.48371e-19)
(-2.64214 0.892924 8.4883e-19)
(2.0808 0.077129 2.66604e-22)
(2.50919 0.166834 -4.65996e-20)
(1.33264 0.320279 1.74312e-19)
(1.74889 -0.278497 -2.95532e-19)
(1.98541 -0.363263 -4.46742e-20)
(1.69005 -0.761383 2.89867e-21)
(2.17471 -0.218128 1.16923e-19)
(2.64024 0.765914 1.28484e-19)
(1.79497 -0.79559 0)
(1.99642 0.0258019 -2.74876e-19)
(0.067151 0.232309 -5.44533e-19)
(1.32768 -0.0371857 0)
(1.86787 0.210786 -7.81303e-22)
(1.6368 0.00665573 0)
(1.18527 -0.337386 7.28571e-19)
(2.05567 -0.750178 0)
(1.81433 0.00185326 -2.79061e-21)
(2.27621 -0.091196 -2.04391e-19)
(-0.94787 -1.11911 2.56381e-19)
(-2.23497 1.06272 1.16716e-18)
(2.33889 -0.0254885 -1.76089e-21)
(1.29283 -0.611479 2.00689e-19)
(1.7458 -0.488522 2.79952e-19)
(1.4447 -0.315987 0)
(-0.697551 0.515158 -6.9981e-19)
(2.28981 -0.636428 -4.02287e-20)
(-0.755327 0.651124 -8.26336e-19)
(2.01678 0.066256 -3.09411e-24)
(1.40339 -0.5396 0)
(2.23694 -0.0202114 -1.43504e-21)
(-1.91007 1.20893 0)
(-2.07327 0.359012 4.96455e-20)
(0.426017 -0.101002 6.59599e-20)
(-0.108651 0.102627 0)
(2.03269 -0.507613 7.89412e-20)
(2.06199 -2.55192 0)
(2.76634 1.08945 0)
(1.42408 -0.673914 -3.27664e-19)
(1.44706 0.377576 2.67835e-19)
(1.65911 -0.575078 0)
(1.79329 0.200477 -1.7026e-19)
(3.71689 0.362721 9.94696e-19)
(-2.67141 1.32936 2.05099e-18)
(2.7475 1.45752 0)
(2.18454 -0.0445107 0)
(-2.31207 1.91205 -1.39734e-18)
(1.87267 -0.101613 0)
(2.72203 0.0315865 0)
(-1.14679 2.23502 -3.31807e-20)
(2.03458 -0.36553 -3.84068e-19)
(1.71784 -0.403838 2.43459e-19)
(3.30229 -0.256123 5.94692e-20)
(-0.907267 0.72913 1.52772e-18)
(1.99206 0.0622901 1.39618e-19)
(1.48002 -0.346726 0)
(2.18836 0.504169 -5.00828e-20)
(1.37863 -0.173192 0)
(2.4057 0.0400835 0)
(2.0003 0.118425 0)
(2.22208 0.189074 -1.36945e-20)
(1.8626 -0.0276748 2.40099e-19)
(2.26627 0.0942871 -3.58297e-21)
(1.52397 -0.350646 0)
(0.220459 -0.0415001 -8.87059e-19)
(2.04969 1.16221 7.79133e-20)
(1.82789 -0.656218 2.60044e-20)
(2.01833 -0.0896957 -1.20987e-19)
(2.88854 -0.695005 7.37808e-19)
(2.03929 0.068919 -2.2824e-19)
(-0.628186 -0.275739 0)
(2.57209 -0.096149 0)
(1.41924 0.891749 0)
(1.15878 -0.520393 -5.20612e-19)
(0.165125 -1.99241 -2.6152e-19)
(0.318933 0.0793202 0)
(2.21376 0.51688 0)
(2.61212 -0.173149 8.55758e-20)
(1.9496 -0.0331112 -6.06317e-20)
(1.89959 0.662824 2.88639e-19)
(1.63221 -0.699912 0)
(-1.5314 2.02183 -3.73404e-19)
(2.43501 0.0696685 1.91649e-20)
(1.36097 -0.392224 -4.94031e-19)
(2.26409 0.0676656 -7.39629e-20)
(2.32868 0.658002 1.04271e-19)
(3.90464 -1.67037 7.89347e-19)
(1.15674 -0.523983 9.0996e-19)
(2.07972 -1.10247 2.29107e-19)
(2.25519 0.201675 1.13233e-21)
(1.99973 0.0144307 -6.92776e-20)
(1.14011 -0.532307 -7.39342e-20)
(1.83291 -0.440161 2.85802e-20)
(1.61218 2.15375 -2.6946e-21)
(1.27374 -0.60816 1.22129e-19)
(2.64346 -0.0604541 0)
(1.66396 -0.267232 9.25968e-22)
(2.21569 -0.0437697 -2.48752e-19)
(2.97546 0.811007 1.21691e-19)
(1.3326 -0.358908 -4.51313e-19)
(1.80932 -0.627183 -2.84666e-19)
(1.94275 -0.00983564 5.80514e-19)
(2.37735 -0.0545255 -3.31418e-19)
(1.42519 -0.140283 -4.4148e-20)
(3.04379 0.0899887 -2.63602e-19)
(1.10909 -0.132655 -9.9346e-19)
(2.14139 -0.0268454 -1.93194e-19)
(1.09088 -0.199734 0)
(-1.06227 -1.31522 -8.52603e-19)
(1.89956 0.0332208 5.50198e-19)
(1.60226 -0.00619283 -1.05731e-21)
(-0.960939 0.0785741 0)
(1.51237 -0.69163 0)
(2.037 0.466542 2.53991e-19)
(0.967789 -0.125457 6.16887e-19)
(2.00225 -2.57369 -1.36572e-18)
(2.11082 -0.67775 -1.29963e-19)
(2.22045 -0.363406 3.14939e-19)
(3.29394 0.728785 0)
(2.04825 0.510436 1.37707e-19)
(0.761961 -0.541605 -2.8917e-21)
(2.50456 1.11913 7.4074e-20)
(1.96165 -0.252006 -3.45327e-19)
(-1.09374 0.886715 -2.4935e-18)
(2.827 -0.677809 -7.0453e-19)
(3.125 -0.630671 2.28626e-19)
(2.27138 1.26935 0)
(2.27553 -0.424201 -8.45267e-20)
(1.88677 0.0532535 6.10023e-20)
(1.98695 0.0257361 5.24295e-22)
(0.756011 -0.364366 8.37128e-19)
(1.94199 -0.250072 5.17396e-19)
(1.43163 0.2648 1.91797e-19)
(-2.71357 1.28607 -1.18186e-18)
(2.41043 -0.188356 -2.03819e-19)
(2.27642 -0.0244707 1.72107e-19)
(-1.53122 2.27152 -2.43388e-19)
(2.41255 1.06806 -2.1878e-20)
(0.654613 -0.0962303 -1.56635e-18)
(0.91729 -0.448114 -2.73802e-19)
(1.99978 0.0165117 0)
(2.24052 0.35924 -1.80607e-21)
(-1.88801 1.6223 -1.01571e-18)
(1.28696 -0.116181 9.04257e-19)
(2.11736 0.0604551 0)
(2.00808 -0.237846 6.47151e-20)
(1.12289 -0.462988 2.06872e-19)
(1.99323 0.0452661 -5.98182e-19)
(-2.52649 1.51504 -1.24472e-18)
(1.66515 -0.559957 -1.26284e-20)
(2.20628 -0.17325 1.98548e-19)
(2.35094 0.0654522 9.79036e-20)
(1.66901 -0.762097 -3.41822e-19)
(2.27859 0.145423 4.79503e-21)
(0.24257 -2.22302 -1.04149e-18)
(2.12356 -0.0423613 2.33361e-19)
(2.09998 -0.0632504 -1.66419e-19)
(2.16575 0.103567 -6.68346e-21)
(2.12311 -0.0326295 -3.62353e-19)
(1.05989 -0.469298 -3.99614e-19)
(2.25416 0.186907 0)
(-1.83525 -0.77116 9.69884e-19)
(2.1103 0.0738717 4.40632e-20)
(0.707814 -0.0348299 -7.53716e-20)
(2.45731 0.0300083 -2.95165e-20)
(2.16646 -0.380395 -1.95902e-19)
(2.00029 0.0187906 -4.71087e-19)
(2.1095 0.341645 7.63811e-20)
(-1.89703 1.16719 -1.3099e-18)
(2.72682 0.035713 0)
(1.56537 -0.134798 3.16481e-20)
(2.62467 -0.0995903 5.5391e-20)
(1.41298 -0.525064 0)
(2.15619 0.0810409 1.38809e-19)
(2.64779 -0.0751465 5.76357e-20)
(2.69984 0.0398176 2.46835e-24)
(2.41398 -0.762693 2.6501e-20)
(1.92027 -0.129524 0)
(1.77489 0.38277 4.92847e-19)
(2.07145 0.959977 -1.34865e-19)
(1.24333 -0.600766 2.73477e-19)
(2.0116 -0.169994 0)
(1.44272 0.332791 -7.74956e-19)
(1.01161 -0.420816 -5.54472e-20)
(2.5074 1.55728 -2.41746e-19)
(1.11937 -0.158234 9.65367e-19)
(2.12134 0.00581666 6.50948e-21)
(-2.3675 1.16471 9.71767e-19)
(1.93779 -0.0901353 -3.69143e-19)
(3.08505 -0.470317 -5.77771e-19)
(1.77172 0.170097 -3.58246e-19)
(1.96527 0.00825632 0)
(1.99975 0.0339951 -2.61619e-19)
(0.181868 -0.0962311 4.06858e-19)
(-0.5008 0.399597 0)
(3.34788 -1.15904 0)
(1.98547 0.0245299 0)
(0.826606 -0.194214 0)
(2.05855 0.340891 0)
(1.04424 -0.124525 0)
(2.19088 -0.697054 -7.57803e-21)
(3.86049 0.176901 -5.82409e-19)
(2.64957 0.388423 0)
(1.75261 0.383787 7.42583e-19)
(1.29908 -0.451731 7.05362e-20)
(2.09041 0.211592 6.54959e-21)
(-1.66294 1.84002 -4.68729e-19)
(1.05966 0.113133 -1.94349e-21)
(-2.12617 1.28122 1.10332e-18)
(1.80461 0.000109688 -1.34525e-19)
(2.82674 -0.029885 3.20839e-20)
(2.03323 0.322444 -1.75488e-19)
(1.86387 0.206599 -4.83221e-19)
(1.98237 1.08373 -1.96531e-19)
(3.37067 1.24141 0)
(-0.800745 -0.210094 5.82155e-20)
(1.20631 -0.352327 -7.9825e-19)
(2.0106 0.0276711 -8.06974e-19)
(2.30223 -0.645711 -2.05617e-19)
(1.98692 -0.0292732 5.69718e-20)
(2.61113 -0.569054 -4.17542e-20)
(2.10846 -0.287943 -4.35644e-20)
(2.04806 -0.497582 -2.72829e-19)
(2.02954 0.186355 1.90275e-19)
(1.80918 1.16582 0)
(1.9646 -0.320124 -4.07847e-20)
(1.67197 0.0976048 -1.09725e-19)
(2.4757 -0.332624 0)
(1.78069 -0.180166 0)
(1.72526 -0.78742 -3.89789e-21)
(-2.33605 1.02857 1.01246e-18)
(2.15099 -0.723979 -2.19936e-19)
(1.73783 -0.00172251 0)
(1.90452 -0.0407131 -4.88873e-19)
(1.79586 0.242432 -9.36404e-20)
(-1.81557 -0.775114 5.01272e-19)
(2.67564 -0.0226945 1.87171e-20)
(-2.25637 1.31515 0)
(-0.893613 -0.135765 8.32903e-20)
(2.66507 -0.0540939 0)
(2.2492 -0.448466 8.86118e-20)
(2.53126 -0.245 -7.93843e-20)
(1.99975 0.0308403 -2.24027e-22)
(2.40196 0.733786 -7.81693e-20)
(2.73135 1.33559 -3.3496e-20)
(1.69856 -0.467285 5.82862e-19)
(-0.0505491 -0.687383 0)
(1.66161 -2.11952 -4.90006e-19)
(1.37285 -0.749757 0)
(2.71236 0.375419 -5.34844e-20)
(-1.8792 -0.604547 8.6412e-19)
(3.27814 -1.12176 6.09031e-19)
(1.60658 -0.142757 -3.04209e-20)
(-1.54974 0.249771 -2.4439e-18)
(1.06885 -0.526586 -3.15795e-19)
(1.25074 -0.361444 -4.62377e-19)
(1.82859 0.153628 1.98009e-21)
(1.83516 -1.91294 4.03663e-19)
(1.10137 -0.483627 3.2862e-19)
(1.3091 -0.387208 5.06372e-19)
(0.230451 -1.91493 3.31604e-19)
(2.31761 -2.07361 -2.9689e-19)
(1.79847 -0.547005 2.8508e-19)
(-1.36907 -0.444976 9.61405e-19)
(2.2763 0.0175976 1.91531e-21)
(1.30022 -0.486472 -5.83157e-20)
(2.36785 0.453878 -4.07645e-20)
(2.23329 -0.519924 0)
(0.834557 -0.228493 -1.85926e-18)
(2.10857 -0.0391833 -3.02033e-19)
(1.99725 0.127669 0)
(2.6807 0.350511 0)
(1.1962 -1.44047 -1.56334e-19)
(3.39735 -0.459817 -6.20954e-19)
(2.47796 0.232588 3.08602e-20)
(2.031 -0.356053 5.03296e-19)
(1.96159 1.04301 1.80807e-19)
(1.41894 -0.0156547 3.70402e-19)
(-2.05186 -0.33938 -7.61023e-20)
(1.78285 0.681089 0)
(1.33954 -0.416921 4.83876e-19)
(-0.504622 2.20744 2.14933e-19)
(-1.84715 0.348365 1.85274e-18)
(1.67932 -0.635525 9.55483e-20)
(1.43955 -0.648373 -4.4091e-20)
(1.69452 -0.00762855 1.94132e-19)
(1.70646 -0.143381 1.64505e-20)
(2.61465 -0.429992 4.21211e-19)
(-2.1441 -0.427948 -7.11465e-19)
(2.45613 0.225272 -2.0307e-20)
(1.94451 0.0704778 1.99057e-19)
(1.08553 -0.187659 -3.96292e-19)
(1.87945 -0.0780163 3.03661e-19)
(1.32539 -0.165101 0)
(2.46484 0.418826 -6.47002e-21)
(1.98297 0.0649423 4.45464e-20)
(1.43187 -0.282716 -1.5576e-19)
(1.85256 1.93881 4.17665e-20)
(1.7681 -0.534394 2.13731e-19)
(2.07615 0.0310825 8.42116e-20)
(1.33932 0.170971 -5.96761e-19)
(2.46474 -0.344255 0)
(1.59829 -0.102567 -5.39142e-20)
(2.27792 0.0891078 1.00449e-19)
(2.13801 -0.109006 0)
(1.36905 0.0591171 3.40206e-19)
(2.67831 -0.0216186 0)
(1.75202 1.938 9.34833e-20)
(2.32371 -0.0318701 0)
(1.96411 -0.353075 0)
(2.54799 -0.0445479 4.72948e-20)
(2.44671 0.176453 2.357e-21)
(3.04747 0.250769 -4.01768e-19)
(1.91432 0.162541 -2.20699e-19)
(1.56221 1.27155 -1.47139e-19)
(2.0013 0.104464 -8.77442e-20)
(2.08866 0.347503 0)
(0.204228 0.493483 -7.07879e-20)
(2.55676 0.157728 6.91985e-20)
(2.20701 -0.434051 -1.80837e-19)
(2.23125 -0.515239 0)
(3.01197 0.793929 1.86193e-19)
(2.20513 1.75384 1.21147e-20)
(2.25721 0.0123253 9.54259e-21)
(1.8387 -1.12626 0)
(-0.796029 2.10924 1.50741e-18)
(2.0506 0.18193 0)
(2.6336 -0.372933 -2.09165e-19)
(-0.200393 -0.0471376 0)
(2.55982 0.22669 0)
(2.04538 -1.20508 0)
(2.00991 -0.744522 0)
(-1.24552 2.43573 -1.86278e-19)
(-1.44448 -0.829978 -3.28426e-19)
(1.85391 -0.0242869 -3.60322e-19)
(-1.16632 -1.03388 -3.63007e-19)
(1.18623 -0.51241 0)
(-0.85818 -1.62191 -3.51128e-19)
(-0.410465 -0.0941924 -1.15099e-18)
(1.44159 -0.677751 0)
(1.4153 -0.488751 -5.14611e-19)
(1.75288 0.318648 -3.02085e-21)
(2.35362 0.437789 9.60079e-20)
(2.40402 -0.780123 2.678e-20)
(1.85101 0.193439 0)
(2.18436 -0.674682 0)
(3.43361 0.385281 1.92241e-19)
(1.83051 -0.396743 7.67213e-21)
(1.76304 0.133058 -8.84321e-21)
(1.18877 -1.37037 8.90029e-21)
(1.9985 0.00912298 1.94519e-20)
(2.2331 0.349858 -8.33488e-22)
(2.02887 0.189708 2.73641e-19)
(1.51732 -0.0854269 2.93155e-20)
(1.86248 -0.492094 0)
(0.0248841 0.237872 0)
(2.28573 0.123619 0)
(1.82705 0.0159493 0)
(1.71529 -0.295744 2.17465e-19)
(2.93389 -0.0217824 0)
(-1.10309 2.43321 2.72422e-18)
(3.43618 -2.24958 -5.78875e-20)
(1.27341 -0.401117 -7.60615e-19)
(1.26036 -0.43381 -3.69533e-20)
(-1.67522 -0.92706 -5.48509e-19)
(-0.436372 2.4076 -1.2132e-18)
(1.85694 0.0532875 6.72062e-20)
(-2.25224 0.0469518 -7.91484e-19)
(1.46673 -0.0551663 4.81716e-20)
(2.57664 -0.0293518 0)
(2.32552 -0.341573 0)
(1.50079 -0.359878 0)
(2.16266 -0.396429 1.03097e-19)
(2.36557 -2.3954 0)
(1.81714 0.687944 0)
(2.00171 0.0118199 0)
(1.7399 -0.408158 2.27108e-19)
(2.08923 0.211785 -2.58306e-19)
(1.70596 0.0260506 0)
(2.27464 -0.692945 -2.17609e-19)
(1.97786 0.194277 -2.63317e-19)
(2.51182 1.02336 -1.57422e-19)
(1.48024 -0.691479 3.02306e-19)
(1.89491 0.734776 5.75609e-22)
(1.80838 -0.531208 -5.2043e-21)
(1.75236 -0.198651 3.67414e-20)
(1.99803 -0.450891 -8.28652e-20)
(2.42985 0.183947 1.40338e-21)
(1.78604 0.130689 -1.66917e-20)
(1.8078 0.0932782 -3.46555e-19)
(2.12429 -0.0400618 0)
(0.654132 -0.0191957 5.73098e-20)
(1.96546 0.0755939 3.60615e-19)
(0.871993 -0.573568 -5.57186e-20)
(2.10318 -0.272713 -1.27691e-19)
(0.999239 -0.147445 -6.72508e-19)
(2.44654 0.158674 -1.14823e-21)
(3.20915 0.532255 3.44812e-19)
(1.99938 0.0885551 0)
(1.63406 -0.24376 -6.89292e-21)
(1.72404 -0.0191647 -1.44343e-20)
(2.02175 -0.457119 1.66515e-19)
(-1.1024 0.0594149 -5.70168e-19)
(2.06029 0.0378181 1.82175e-19)
(2.27947 0.186053 -1.22438e-21)
(2.14212 0.0123569 -4.83113e-21)
(2.25291 0.0963635 0)
(1.136 -0.314519 0)
(1.30169 -0.624255 3.72068e-19)
(-2.47115 1.40401 1.35026e-18)
(2.00681 0.00709219 3.65029e-22)
(1.96312 0.0742423 7.205e-19)
(1.59659 -0.237304 2.44433e-20)
(1.40869 0.317383 0)
(1.78135 0.118663 0)
(1.5583 -0.334343 -3.85666e-21)
(2.47894 -0.00681871 7.44015e-20)
(1.94674 0.714159 3.87319e-19)
(2.46495 -0.170939 0)
(2.0998 0.00897765 0)
(2.06425 -0.564213 3.67585e-19)
(1.9873 -0.154456 2.80325e-19)
(-0.16786 0.486608 -4.25661e-20)
(1.74835 -0.0486497 0)
(2.26092 0.144761 1.66459e-19)
(2.52973 -0.848032 -9.98638e-20)
(-2.10298 1.48815 -1.18646e-18)
(2.02062 -0.0204244 -3.86921e-19)
(3.80689 0.0877301 0)
(3.46515 -0.401585 4.96742e-19)
(2.37713 -1.36324 -2.1052e-18)
(-0.0283768 0.33629 0)
(1.86314 0.0260537 -1.0835e-20)
(1.91186 0.125894 -2.35631e-19)
(1.82984 0.0145666 5.47513e-25)
(2.54508 -0.260526 4.56156e-20)
(1.25347 1.07388 3.99676e-19)
(1.85608 0.0469956 0)
(0.979298 -0.351531 -4.57395e-21)
(1.60967 -0.229828 -2.56538e-20)
(2.62701 0.808281 -2.04149e-18)
(2.04763 0.323448 2.08266e-19)
(0.0678401 -0.688684 2.96967e-20)
(2.01153 0.0242779 -8.39829e-19)
(1.507 0.154438 -1.24737e-19)
(1.6824 -0.190334 3.44086e-20)
(1.70407 -0.370035 0)
(1.76455 0.0100782 -7.3632e-20)
(1.02864 -0.472636 2.62617e-19)
(2.24891 -0.0948919 -3.96812e-19)
(1.98823 0.0648356 -3.25653e-19)
(2.61405 -0.357298 1.90391e-19)
(1.64489 -0.145604 8.09149e-19)
(2.22095 0.0107223 -1.52345e-21)
(1.77045 0.120972 2.02624e-19)
(1.85622 0.216586 -3.79346e-21)
(3.31373 -0.24369 -6.67865e-19)
(2.43929 1.144 -9.74774e-20)
(2.11407 -2.55209 1.05616e-18)
(1.878 -0.0224949 0)
(1.57419 -0.341807 0)
(1.20262 -0.144534 0)
(1.27579 -0.368945 5.89815e-19)
(2.15047 0.0722953 -5.30386e-19)
(1.77855 0.26087 0)
(1.47167 -0.300028 -4.61338e-19)
(1.77168 0.226998 0)
(1.72714 -0.270174 -3.57255e-19)
(2.18513 -0.45767 -1.89905e-19)
(1.84033 -0.464267 -3.14066e-19)
(1.93732 0.0473169 0)
(1.94991 0.0622805 0)
(2.15978 -0.11584 1.06603e-19)
(2.61706 0.322565 5.06525e-21)
(2.83778 -0.105131 2.40522e-19)
(2.39256 1.84196 -4.71139e-21)
(2.47836 -0.219678 0)
(1.687 -0.615291 -1.60512e-19)
(-0.365028 0.48244 0)