/*--------------------------------*- C++ -*----------------------------------*\
| =========                 |                                                 |
| \\      /  F ield         | OpenFOAM: The Open Source CFD Toolbox           |
|  \\    /   O peration     | Version:  2306                                  |
|   \\  /    A nd           | Website:  www.openfoam.com                      |
|    \\/     M anipulation  |                                                 |
\*---------------------------------------------------------------------------*/
FoamFile
{
    version     2.0;
    format      ascii;
    arch        "LSB;label=32;scalar=64";
    class       surfaceScalarField;
    location    "2.8";
    object      phi;
}
// * * * * * * * * * * * * * * * * * * * * * * * * * * * * * * * * * * * * * //

dimensions      [0 3 -1 0 0 0 0];

oriented        oriented;

internalField   nonuniform List<scalar> 
20045
(
1.14564
-1.33856
0.192924
-2.28315
1.01296
1.27019
0.533412
4.05679
-4.5902
0.901419
-1.14965
0.248234
-2.21589
1.78832
0.427569
-1.22479
4.27927
-3.05448
-1.99991
0.0872555
1.91265
0.0842221
1.11285
-1.19707
1.1609
0.902174
-2.06308
-1.28
-0.387943
1.66794
0.313791
-0.85195
0.538159
3.90339
-1.90878
-1.99462
0.910765
-0.895311
-0.0154538
-2.19102
1.87917
0.311854
-0.0875661
1.86981
-1.78224
-1.9334
0.653403
-0.0267343
-0.409302
0.436036
-0.765523
1.63349
-0.867967
-3.1629
4.56669
-1.40378
-1.57081
-0.09551
1.66632
1.30453
-0.999967
-0.30456
0.328517
0.582247
-0.529136
-1.75401
2.53973
0.971023
-3.51075
1.63255
0.189412
-1.82196
-1.18924
3.72896
0.213102
-0.175137
-0.0379648
-2.58565
5.43104
-2.84538
2.35082
1.10637
-3.45719
-6.02805
3.88952
2.13854
2.13665
-0.743834
-1.39282
2.30352
-2.21338
-0.090138
-1.02104
3.1993
-2.17826
6.24419
-3.49235
-2.75184
-1.40424
1.48846
3.77355
-1.86226
-1.9113
2.12404
0.931283
-3.05533
-0.15321
0.948486
-0.795277
-4.67797
2.58017
2.0978
1.3119
1.20099
-2.51288
-0.106765
1.34601
-1.23925
0.44608
-0.61378
0.167701
5.1885
-5.16208
-0.0264219
2.72964
-0.867992
-1.86165
1.14917
1.58048
1.76692
2.13648
-1.05113
0.994881
0.0562507
2.65453
0.24806
-2.90259
3.27505
-1.15101
0.582162
3.69815
-4.28031
2.6604
-4.38214
1.72174
4.22497
-2.81985
-1.40511
-1.7398
-1.38231
3.12211
-0.230348
-0.718445
0.948793
-2.51085
1.74202
0.76883
-1.55744
-0.658447
0.520428
2.63654
-3.15696
3.37288
0.794147
-4.16703
2.75005
-3.77109
3.64662
-2.98332
-0.663297
0.276655
-0.768784
0.492129
0.919383
2.72724
-0.509104
-2.59122
3.10033
0.664
0.640527
-2.24671
1.25762
0.989085
2.33185
1.03704
-3.36889
-0.231114
0.954875
-0.723761
-1.40084
0.107138
1.2937
1.97847
-0.81757
3.21821
-3.28913
0.0709207
-0.802975
0.571861
-1.10538
-1.40547
-0.589763
-2.23645
2.82621
0.116845
-0.065336
-0.0515094
2.68321
0.0991325
-2.78234
2.99955
-2.47913
-0.719386
3.40259
1.48122
-1.56879
0.851047
-1.14948
0.298429
-0.575403
-3.16554
3.74095
1.87474
1.97745
-3.85219
1.73039
-1.60319
-0.127198
1.68409
-2.1932
-4.83633
0.652821
4.18351
-0.0426171
1.18825
-0.602558
0.951369
-0.34881
0.302132
-2.31531
2.01318
-3.14835
0.0536198
3.09473
1.87638
0.615266
-2.49164
-1.56339
1.22443
0.338967
-2.47865
0.273489
2.20516
1.8516
-0.483205
-1.36839
0.933068
-1.4132
0.480127
-0.570449
-1.56895
2.1394
1.38716
-1.52017
0.133004
2.93835
0.122891
-3.06124
0.0973414
0.115761
-0.390741
-0.464026
0.854767
2.70675
-1.39486
0.0229875
-0.288154
0.265167
2.60277
1.17078
-0.802914
-1.38811
-1.05631
0.665572
-1.12168
4.49456
0.221731
-0.824289
0.135388
-0.112401
0.715484
2.57869
-3.29418
2.11572
-4.35602
2.2403
-0.200085
-1.20675
1.02104
0.185717
-0.712224
0.892589
-0.180365
1.99161
-2.20401
0.212391
-1.19313
0.962783
3.7152
-5.06797
1.35277
-0.578464
0.825597
-0.247133
0.12637
-0.855581
0.729211
2.03964
-0.407088
4.47108
1.77311
-2.57659
1.98682
2.07544
-3.53715
1.4617
-1.17365
0.408125
-0.459579
0.736233
-1.86534
1.48352
0.381821
-2.56225
0.281049
-1.43648
1.15543
2.71684
1.50813
2.17224
-3.12579
0.953546
3.09482
0.355807
-3.45062
-5.64159
4.12392
1.51767
-2.10647
2.12662
-0.0201461
4.32532
-1.60848
1.03979
-0.0449105
-0.111667
0.135929
-0.0242619
0.240185
-0.270874
0.0306887
2.31956
1.56324
-3.88279
2.43373
-2.10805
-0.325676
-0.488808
0.0015602
0.487248
-0.86333
-0.343422
3.87465
-1.79921
-1.60711
1.62299
-0.015873
2.23185
-4.64141
2.40956
0.592015
-2.33182
1.43579
1.16015
-2.59594
3.46248
-4.03788
4.74314
-0.541159
-4.20198
1.28338
-2.85352
1.57014
3.24083
-1.82639
-1.41444
-0.586151
0.586864
-0.000712617
-0.432101
4.51515
-4.08305
3.8878
-1.53698
-3.27771
0.0735567
3.20415
-2.33668
1.52137
0.815312
3.48922
-1.61448
0.384782
1.34561
-2.42781
2.88948
-0.461667
-3.40932
3.94274
0.025036
-1.08752
1.06249
-0.760152
-1.24464
2.0048
-0.105097
-0.883374
0.988471
2.31867
0.532447
-2.85112
5.49247
-2.75344
-2.73903
-1.07471
0.969611
1.82576
-1.89055
0.0647883
0.550146
-0.104066
-3.94153
-1.55005
2.33528
-0.785231
-2.3391
1.72829
0.610815
-0.0559076
-0.28169
0.337598
1.75457
1.48626
0.0143425
0.225842
-0.327424
0.215757
-2.62975
0.201939
-3.00927
3.69989
-0.690621
-2.91622
2.94749
-0.0312732
-1.84775
-1.6441
3.49185
-1.02632
1.1086
-0.0822775
1.41821
-1.51361
0.0954008
4.24543
-0.263312
-3.98212
-0.12965
-2.97198
3.10163
-1.57181
3.0076
0.804646
-2.4509
1.64626
-1.59883
5.31404
-2.9539
2.31336
0.640543
-0.24627
0.301263
-0.0549936
2.09133
-4.61375
2.52242
-4.32608
1.74043
-1.69703
-2.54594
5.47592
-3.59808
-1.87784
-1.66036
1.5536
0.840254
-0.899637
0.0593838
-2.24682
-1.08621
3.33303
-3.81248
5.47054
-1.65806
4.33851
-3.57011
-0.768404
-0.0900187
-0.714904
0.804923
-1.91564
-1.92989
3.84553
0.71362
-0.399829
0.69369
-2.80016
-2.98493
-0.880918
3.86585
0.590128
0.140548
-0.730676
0.547002
-2.09705
0.623111
1.51354
3.30209
-0.207273
-0.798191
0.644981
-0.98539
1.22282
-0.237426
-1.16247
3.48114
-4.1823
2.26666
0.513291
-1.64643
1.13314
-3.04602
0.690143
2.35587
1.03137
3.30714
4.90492
-2.81359
3.76563
-5.9423
2.17667
3.21373
-4.17861
0.96488
0.314253
-1.88506
-2.10865
2.82414
2.43693
-3.66173
2.64458
-5.74964
3.10506
-6.37659
3.14008
3.23651
-0.30826
-1.25513
0.82694
0.71313
-1.54007
2.67368
-1.23087
-1.44281
-0.314889
-3.14648
2.71437
-1.17872
-0.428398
2.50754
3.30491
-2.573
-0.731902
-0.0475724
-0.662654
0.710226
2.39066
0.585635
-2.97629
-0.993333
-0.881641
1.87497
-1.62154
4.6422
-3.02066
-2.58956
2.89169
2.52856
-1.72392
-0.577251
2.29379
-1.71654
3.94377
-1.71192
0.584584
-0.0476137
-0.53697
1.1508
-0.383533
-0.767269
-0.677987
0.70857
-0.0305832
5.51758
-3.61103
-1.90654
1.17969
-4.99218
-0.754629
0.0766421
-3.15783
0.779056
2.37878
5.24295
-2.04365
0.88359
-3.89286
6.70664
-3.25418
-3.45247
-0.0896604
0.679788
4.01593
-2.6264
-1.38953
-2.45313
0.353402
2.09973
-3.7326
3.66436
0.0682421
2.68535
-4.46852
1.78317
-0.365855
0.0657925
0.300062
-1.86762
2.28605
-0.418435
-0.330739
0.072861
0.257878
-0.764126
0.185662
-0.868835
0.156612
-2.26179
-2.09424
1.71694
-4.81825
3.1013
0.146833
0.783169
-0.930002
1.90146
0.402059
5.71358
-3.069
-2.37195
1.6118
2.50452
2.73843
-2.17862
0.338789
1.83983
2.12202
1.89391
1.82794
0.0418682
-0.505473
0.652306
-1.34807
-0.271753
1.61982
0.064197
-0.310467
-4.65332
3.03177
0.937996
-0.199274
-0.738722
-3.80892
3.66714
0.141783
-0.298328
-0.306532
0.60486
-0.44909
-0.644883
1.09397
2.9665
-3.40532
0.438823
-3.38445
-2.99214
4.24305
-2.67148
-1.57157
-0.530766
0.483193
4.83458
-2.14924
-3.05148
4.76843
2.81846
0.0595941
-2.87805
4.31718
-1.56139
-2.75579
3.689
-1.35687
-2.33213
2.83366
-0.0152052
3.59059
-2.21468
-1.37592
-0.891091
3.32352
-2.43243
1.39427
-2.6667
1.27243
0.690986
-0.245196
-0.445791
-0.0815954
-0.0854304
0.167026
5.10513
-4.51762
-0.587513
-3.21833
-2.42326
2.00972
1.29518
-3.45413
-0.354788
0.00600271
1.1448
1.56219
-3.26198
1.69979
0.0122459
0.828008
-2.13087
4.45042
2.06589
3.45168
6.01184
-3.86365
-2.14819
-4.21207
3.33115
2.32225
-4.04677
1.72452
-2.48653
-0.363886
2.85042
-1.68708
-0.478599
2.16568
1.56561
0.26015
1.702
-1.18871
1.86261
-0.71698
-1.4964
-2.20429
3.53827
-1.33398
-1.19659
0.211197
-1.67661
1.09936
0.380799
-4.1134
0.679032
-3.26859
1.02823
-0.801988
0.977031
-0.175044
-0.0805768
0.981995
-1.65465
1.15923
0.495427
1.7842
0.207413
-0.504993
-0.497354
1.00235
1.77753
0.656201
-1.61584
3.17803
2.326
-0.449626
-1.00627
-2.03974
6.07125
-4.80942
-1.26183
3.26313
-3.79067
2.02288
1.76779
3.13273
-3.55947
0.426739
-1.96954
1.39909
-0.599069
0.11026
-0.86993
-1.60872
1.54318
-2.40249
0.859312
1.71466
1.87594
2.1614
-3.90685
1.74546
1.3613
-2.4031
1.0418
-3.88648
0.738138
0.180751
1.67085
-2.04753
2.26009
-0.212552
-0.796562
1.30908
-0.512517
-2.39067
0.390758
-0.540237
-1.11263
1.65287
0.58189
-0.00134752
-0.580542
-1.15547
-1.18121
1.30735
1.85673
-3.16408
3.69611
-1.57409
1.41793
-1.80372
-0.165819
2.19917
-0.837867
-2.68453
-0.269377
0.174749
-0.158319
-0.0164307
3.38818
-0.733647
-2.20486
3.19462
-0.989759
-0.605202
0.727361
-0.122159
2.22366
0.450014
-1.88808
-1.37391
-2.22187
3.78211
-1.56024
1.94102
-3.82459
1.88357
2.02953
2.21352
-0.112428
0.0633306
0.0490973
0.554152
-3.04069
2.28868
-3.44727
1.15859
0.142211
-0.0253655
-0.54348
2.71572
-2.28982
2.96886
-1.10413
4.31786
0.711482
-3.87438
-2.36267
1.61349
0.749181
2.76322
-0.667431
-2.09579
3.82297
-0.856469
-2.88797
-1.91574
-1.6048
2.40081
-1.15062
0.912003
0.238616
1.34924
-1.44475
-3.21331
2.66983
4.02544
1.16306
-3.3138
1.10895
3.23558
-1.22586
0.193862
0.0679633
-0.261825
0.110539
-2.29366
2.18312
-3.58141
0.61477
2.96664
3.39009
-3.39009
-2.01376
3.60749
-1.59372
-0.890722
0.38573
1.74416
-0.770609
-0.973549
-3.9316
4.09611
-0.164507
1.59085
-0.087842
-1.50301
1.23901
-0.378509
-0.860496
0.590847
-1.03994
-0.110828
2.0443
-5.09578
-3.20071
3.75388
-0.553168
-1.232
2.53936
0.320933
0.0599782
-0.380911
1.12926
-0.0665165
-1.06275
-1.56602
1.88027
5.63069
-4.10684
-1.52385
-0.429538
-1.93868
2.36822
-1.13553
1.2077
-0.0721674
0.767721
-1.19155
0.423826
-3.55472
1.79782
1.75689
-0.804897
-0.344755
0.0850281
0.108834
-0.0408871
-0.375238
0.416125
2.72989
2.37524
0.385108
-0.0641752
-0.3464
-0.792759
1.13916
-2.17644
3.41468
-1.23824
0.267381
1.01299
-1.28037
1.67166
-1.5844
2.30858
-1.39161
-0.916975
0.292506
-1.86146
0.971688
3.27374
1.9732
1.06488
-3.03808
2.03213
-1.53558
-0.496547
-4.04924
0.771536
-1.18322
0.55213
0.631088
1.55617
3.1408
-4.69697
-2.67424
2.31036
0.296485
-3.66039
3.36391
-0.608345
0.518327
-0.266055
0.301885
-0.0358301
0.241159
-1.58923
0.278843
0.153685
-0.432528
-2.65266
-0.505172
2.44904
2.19361
-1.46803
-0.725577
-0.680725
0.0755226
0.476208
-2.68942
2.21321
1.12288
1.91932
-3.04219
1.61227
-2.74257
3.28909
-0.546515
-3.00544
2.11435
-0.00615735
-0.16898
-1.41809
-0.921013
-1.24251
0.278978
0.963536
-3.67841
1.50197
2.52293
-2.95247
1.59491
1.64067
-1.6027
1.4427
0.159997
0.573858
-4.13588
3.56202
0.854605
-1.26961
0.415001
1.38595
-3.27403
-2.51609
-0.400126
-1.49775
0.0969126
0.496982
0.0571151
-0.554097
2.24624
0.341224
-0.198692
-0.142532
4.43379
-2.87762
-1.71923
3.45255
-1.73331
1.16485
0.862621
-2.02747
-1.26671
0.658365
-1.09879
-0.14372
1.41044
0.333721
-1.27746
-2.25968
0.269169
-0.0944195
2.33294
1.87188
0.45412
-3.58479
4.16695
0.450805
-1.47466
1.02385
-0.38289
-3.28881
3.6717
0.393437
-0.465149
0.0717119
-1.2755
0.249178
-0.916875
2.31115
3.26649
-1.9831
-1.33326
-0.321397
-0.0563525
-1.80127
1.85762
1.52925
-3.377
-0.375045
-1.69604
2.07109
0.348045
-1.15952
0.811479
-2.48111
-0.042811
2.52392
3.04001
-2.79195
0.0114509
0.471763
-0.483214
-1.02616
-0.109369
0.781458
1.58692
-2.36837
0.734972
-0.878326
0.143354
2.25572
1.23711
-3.49283
-0.928397
3.86675
0.54822
0.0336698
-1.8239
-2.57721
4.40111
1.68079
2.19386
3.68498
-2.56211
-1.62995
1.08971
-0.20275
0.121155
-1.59543
3.91769
0.402053
-2.98242
2.58037
3.08454
-0.43652
-2.64802
-1.73478
2.42028
-0.685503
1.50299
-2.12907
-1.0947
3.22378
0.46143
-0.426485
-0.0349449
-1.06746
-1.97766
3.04512
1.26194
-0.132679
0.30169
-0.357597
2.06859
-3.13604
-2.70649
-0.956874
3.66336
-0.0665735
-2.13416
2.20074
0.603126
4.88381
-5.07534
0.191533
0.902415
-0.358302
-0.544113
-0.150937
-1.45176
1.00123
1.13818
-1.58037
-0.106715
-3.14736
3.96845
-0.821096
0.97703
-0.0390347
0.261343
3.20113
-4.03883
-1.12325
-0.0432275
0.109711
-0.0664838
2.11102
-0.239139
-0.993362
1.08241
-0.0890486
-0.252465
-0.0782738
-4.74236
3.04533
3.48799
0.791279
-0.312103
1.07982
-0.941506
2.10636
4.85307
-2.80877
-1.00872
0.0153585
-0.631329
-2.58198
0.600501
1.17906
-1.15402
-3.69402
0.112603
-0.0485812
0.984506
-0.129901
-3.31069
1.60555
1.70514
2.70656
0.511654
0.94993
-0.34997
-0.59996
1.43554
-1.24083
-0.194705
-2.94007
1.07781
-4.21711
1.99524
0.780026
-1.47833
0.698301
-0.0208907
-0.453742
0.474633
3.94542
-0.0441826
-3.90124
0.99077
0.0862862
-1.07706
-0.659815
-1.20553
1.08333
-0.15026
-0.286875
0.263331
0.0235441
1.88171
-0.086408
-1.79531
-0.0873458
-0.19953
2.60292
-2.48003
-0.138205
-0.678315
0.81652
-4.04124
0.893879
0.0352078
-0.459985
-0.596328
1.44411
0.749503
-0.409031
-1.96292
1.01743
0.867659
-1.88509
-1.33784
-0.908865
1.41677
-0.965962
1.0587
-0.932326
0.510733
-1.30729
2.14254
2.3579
-4.50044
2.32223
-0.404845
-1.91738
-2.06024
-0.793285
0.0412585
-0.217025
0.175767
1.18912
-1.2536
0.0644791
4.31581
-0.108045
-4.20777
-0.273446
-0.0595647
0.333011
-2.10707
2.89143
-0.784365
2.29018
2.23855
-4.52874
-0.340857
-0.427926
-1.34015
1.95409
-0.613939
0.989023
0.444194
-1.43322
-4.42885
2.88616
1.54268
0.219616
0.0437152
-3.38788
0.681396
1.43945
-0.84518
-0.594268
1.67774
-2.2482
0.570455
-0.488289
-0.850272
0.584416
4.29939
3.30793
-0.668729
-2.6392
-3.21229
0.469724
1.34069
-2.34696
3.58198
-5.69735
2.11537
-0.496855
1.32379
-0.0150865
-1.31744
0.97104
-0.732757
1.01381
-0.95591
-3.96656
4.92247
3.10352
1.73107
-2.94094
3.1585
-0.217559
0.0336948
0.463287
-2.01725
-0.675863
-0.576662
0.641533
-0.0648712
-3.2138
2.72723
0.486574
-0.91757
2.40286
-1.48529
-0.372419
2.05016
-2.24222
-0.28779
2.53001
-3.31984
-0.995962
4.3158
1.66232
-1.44754
-0.214777
-1.26824
0.0745897
1.19365
0.0857805
-0.177918
0.0921378
-3.78486
0.207329
3.57753
0.0966119
0.910342
-1.00695
3.03227
-3.42082
0.388557
-1.79313
-0.369245
1.33563
-0.96639
0.0482825
-0.624944
-3.42972
-2.3181
5.74782
3.56232
-5.16116
-3.78302
3.31371
0.469307
0.886257
-0.151284
3.60863
-3.34728
-0.300906
-0.48628
0.787186
-0.0680498
0.882002
-0.813952
-0.425055
3.02045
-2.5954
2.5754
-0.663689
-1.91171
4.008
-3.83515
-0.172851
2.5006
-0.723111
-1.77749
0.171826
-1.06575
0.893921
-1.34451
-0.0919711
-4.15473
3.61184
0.542893
0.174978
-4.32971
-1.02553
1.28028
-0.254756
-2.16209
-2.35553
0.96404
-0.756709
-0.207331
-3.15527
-0.885965
-0.897904
0.639822
0.258082
-1.42287
0.429537
-3.93104
3.74069
0.190349
-0.684349
-0.0516073
-0.0137287
1.08733
-0.0965635
-2.18715
0.319538
0.77136
-0.8189
0.0475407
1.30327
-0.964953
-0.338315
1.81267
-0.221822
-0.859924
2.67263
-0.448967
1.41806
1.34278
-1.40036
0.057581
-0.307959
1.72617
-2.71842
1.7948
0.923617
0.268336
-0.0487203
4.92836
-1.82484
3.17995
-2.60609
-0.634674
-0.594998
1.22967
2.23953
-4.88002
2.64049
2.41737
-2.48395
3.37535
-1.57709
-1.79826
-0.0291967
-2.31304
-0.40538
-1.93944
3.48082
-1.54138
0.109222
-1.2942
5.05983
-4.13114
0.975869
0.546161
0.144825
-0.354384
0.0921606
0.730902
-0.0223318
-1.83094
-1.67339
4.74488
-1.74532
-0.10688
0.596902
-0.490022
0.188435
1.05057
-2.44994
-2.26394
4.71388
1.4222
0.143413
-0.0202421
-0.685451
0.705693
3.27517
0.276275
-0.0460121
-0.230263
4.28291
-2.14037
-1.34061
-3.82627
0.625562
-1.04273
0.068255
0.974474
3.06682
3.63983
-3.0163
0.685926
2.33037
3.83696
0.171044
2.56113
-3.57655
1.01543
-3.19297
-0.0106861
3.20366
-3.39027
4.3205
-0.930226
0.670028
-0.0247441
-0.645284
-1.77067
5.33299
-1.23711
0.0343118
1.2028
0.185969
-3.12691
2.39864
-1.73103
-0.66761
-3.65972
4.81883
-1.15911
-0.851142
2.38358
-1.53244
4.64667
-2.05739
-2.58928
0.127189
-2.33057
2.20338
0.255571
0.0463148
-1.79572
4.0859
1.51473
-3.5285
3.75279
-1.81177
-0.849434
0.711229
-3.32165
0.128672
4.07751
-1.91611
0.0893768
-4.92571
1.36207
-0.0160513
2.16459
2.24984
-4.41443
2.15214
-0.687503
-1.46464
1.63291
-3.27218
1.63926
-0.857688
0.0410684
0.81662
-0.81822
-2.08644
2.90466
1.50313
-0.992398
0.758099
0.247315
-1.00541
0.387545
0.801584
-1.18913
0.328432
0.635608
-4.14425
4.9135
-0.769245
0.459419
-0.0659811
1.88568
0.917508
-2.80319
1.54618
2.84044
-4.38662
0.846431
1.91679
-0.174385
4.91753
-0.0841467
3.1854
-3.10126
0.498008
-0.230627
-0.0665338
0.0920796
-0.0255458
4.32162
-2.83194
-1.48968
1.63066
1.74469
-0.461807
0.396941
0.0648657
-0.952954
3.03933
-2.08637
-0.0368446
0.83822
-0.801376
2.93354
-5.69335
2.75982
-1.94275
-1.47648
3.41923
3.13508
-0.744419
0.948177
1.20396
-0.393137
1.10821
-0.715068
1.21479
-3.15347
-0.426409
-0.2564
0.682809
0.828176
-0.14447
-0.683706
-0.029742
0.285313
-0.213989
3.00734
-2.79335
-0.823245
4.52139
2.90004
-2.48628
-0.41376
2.68221
-2.06694
-1.79546
0.720036
1.07543
0.641535
-1.41214
-1.08011
0.367441
0.712673
0.316766
0.633164
0.61544
2.89398
-3.50942
1.19774
0.683973
0.515827
-3.83567
-2.1922
0.28477
1.90743
-1.56185
-0.878145
2.43999
2.20436
-1.18693
-3.32385
2.09185
0.967644
-0.740253
-0.227391
-1.99566
4.56474
-2.56908
-1.72376
2.01626
-2.4139
2.05397
0.359934
-2.26193
4.35047
-2.08854
-0.0850053
0.995204
-0.910198
0.304441
-0.325332
-2.81611
-2.38764
3.97765
-1.59001
-2.24284
2.93298
1.93543
-2.20817
0.272738
1.20461
-0.285065
-0.91955
-4.55874
2.82965
1.72909
-0.0399256
-0.257697
0.297622
-0.416114
2.57444
-2.9995
4.68256
-2.44303
-0.54038
-1.82229
-2.84575
2.7616
1.71515
0.0131346
1.18557
0.333362
-1.51894
-1.51108
1.38772
0.123367
-0.272303
2.77199
-2.49969
2.15266
0.415896
-2.56856
1.41236
-0.536351
-0.876014
-2.62214
-1.11768
3.73981
0.607795
0.596819
2.0482
2.27342
-3.94524
2.19876
1.74648
-0.204894
-0.638492
0.843385
0.0349011
0.877034
-1.09455
0.217516
-1.87392
2.5813
-0.428638
0.649786
0.924394
-0.752568
-3.03179
-0.182015
2.65966
-0.533041
0.0959406
1.29122
-0.2154
0.962534
-0.747134
-2.98433
-2.22424
5.20857
-1.35502
0.961885
-1.84726
-0.329241
2.1765
0.309393
1.06697
-1.37636
-0.000377127
4.41156
-2.83272
-1.57883
0.810517
2.49741
0.512941
-0.938869
3.02767
-2.0888
-2.23533
3.7257
-1.49037
-2.07147
-0.987602
3.05907
-2.0104
0.670255
-1.22349
-0.571973
4.30595
-1.91311
-2.39285
0.867247
-1.24111
0.373866
1.20551
0.41879
-1.6243
-0.790964
0.887576
-0.221731
-0.85967
1.0814
0.578275
-0.133667
-0.94104
-0.0454189
2.50871
1.79724
-1.34588
3.92605
-1.43186
5.32138
0.0963446
0.770902
-3.20603
1.13456
3.00564
-2.45149
-0.569473
-2.71254
0.605466
-0.0205629
-1.00496
2.64835
-2.53781
3.35873
-0.225999
-0.844591
-0.568604
-0.585672
-0.363721
0.949393
-1.3343
-0.185863
3.1035
0.532863
-3.63636
-0.148538
-0.997365
1.1459
-0.742241
2.15961
-3.95113
1.79153
3.27768
-0.245414
-4.73556
5.40707
-0.671513
0.845286
-0.738148
-3.72639
-0.832347
-0.886579
3.67795
-0.0661124
2.85741
3.94758
-1.45259
-2.49499
-2.41736
-0.109811
2.52717
1.22764
1.70691
-2.93455
-2.84234
0.361231
-0.747516
-0.182456
0.929972
-1.92707
2.32912
0.657628
1.84526
-2.50289
1.13667
0.100512
-1.23718
-3.66889
0.510505
3.15838
1.78762
2.89495
-1.24805
1.99608
0.504519
-0.724039
-0.45918
3.85113
-4.39229
-0.475031
0.900587
-0.425556
0.488125
-0.828983
2.6669
0.0581038
-2.725
3.78487
-5.21673
-0.0142852
-0.351569
-1.04526
0.18148
0.863777
-4.88545
1.45573
-0.157335
1.33821
-1.18087
-0.518869
-0.173576
0.692445
-0.262526
-1.01297
-1.1498
2.49049
-0.402231
1.18226
-0.708618
0.756901
-2.6671
1.78546
-0.147708
0.2135
-0.896019
0.852422
0.043597
0.918947
-1.03029
0.111347
-2.3431
2.44223
0.458236
-2.3055
-0.309446
-1.35092
-0.188936
2.33497
-2.14603
1.40698
-1.67874
-0.174925
-3.09806
3.27299
-0.406317
3.68568
-3.27936
1.24276
-3.44705
1.89479
-0.0811515
-3.70186
1.5349
3.20998
-2.78541
-0.538442
-1.92977
-1.8609
-1.84356
0.730922
0.0045423
-0.213898
0.209356
5.9712
-2.90438
2.97192
-0.683238
-1.00183
-0.689848
1.69168
-4.68344
2.2854
2.39805
-0.590616
-0.261334
-0.73092
0.361675
0.731961
-0.403444
0.809878
-1.41128
0.174171
-0.231755
-0.693157
0.924913
-0.495543
3.59904
0.531503
0.345543
-0.877045
3.40883
-4.57444
2.03509
2.53934
0.478001
1.28688
-1.76488
1.53678
0.752141
-2.28892
-2.25407
1.40293
1.95131
-0.206259
1.41177
3.5158
-3.89869
1.79056
-0.801534
-1.42602
2.64081
-3.49759
2.46298
1.03461
2.79067
-5.63787
2.8472
-2.5978
2.94015
-0.342351
1.34541
-1.65337
0.0524672
0.622724
1.0396
2.1202
-5.28574
2.05539
-5.69128
3.53444
2.15684
0.844299
-3.26165
2.26081
0.000203761
-2.45333
0.480663
0.930608
4.14225
-1.49278
-2.64947
0.528112
0.949248
-2.5111
0.734515
-3.57048
3.46067
-2.97787
0.848795
1.77282
-2.31174
0.683656
1.62809
-3.79998
2.16635
1.63363
-1.04908
-0.601437
0.949482
-3.97997
2.838
1.14197
3.46995
-5.24061
-4.16236
0.0181094
5.7217
-2.13972
0.174772
-0.388659
0.213886
-0.11387
-0.692644
0.806514
0.236349
1.57347
2.0336
-0.757399
-1.55434
0.482908
1.02022
0.690959
1.56501
-2.25597
1.67989
-0.966758
-0.103234
-3.85424
3.95747
-1.31068
1.04498
-2.61678
-2.69593
-1.89227
4.58819
1.00951
-1.49272
-2.83696
0.860333
1.97663
0.115771
0.247116
-0.362887
4.10339
-5.0593
-1.35023
0.304975
4.22718
0.760105
-4.98729
-0.430162
0.323282
-3.34455
0.978777
2.36577
-3.8588
1.91606
1.53475
-3.77008
-0.876567
0.401536
0.203329
-0.0875586
-0.133165
3.2177
-2.26588
3.03971
-0.773831
3.17964
0.012279
-3.19192
-1.77404
-0.059705
-0.742283
0.16954
3.22055
0.59421
0.133151
1.55118
-0.689344
-0.201379
1.94708
2.41415
-2.68645
-3.66774
-0.263307
-3.10191
0.908078
-3.53448
0.752768
0.823288
-1.57606
3.54955
0.182097
-3.73165
-0.504625
0.479881
-1.4388
-2.77831
-2.97068
-0.588788
-1.63244
5.4173
-1.34578
1.95889
-0.613104
-4.25367
1.26933
-1.27422
1.96518
-1.74222
-1.56847
-1.92433
-0.9251
1.0205
0.988624
0.314644
4.27036
-0.592407
2.39497
0.162967
-2.55794
0.116113
2.17768
1.15601
3.91842
-3.62194
-0.243189
-0.946559
1.42669
-1.81786
2.15665
-1.94334
-3.02181
0.977085
0.70749
-1.68457
-3.44142
0.0513315
-0.623108
3.08378
-2.46067
-0.0348207
-4.70074
-2.43726
3.02289
5.51265
-2.64195
-2.87069
-0.284691
0.836822
2.53622
-0.972828
-1.56339
1.13864
-1.2723
0.0888917
-0.155425
-0.466463
-0.165177
0.63164
-0.310657
1.49623
-2.01595
5.4859
-0.00895621
-0.747753
-1.1073
-0.457098
1.5644
-0.302869
4.40626
1.51489
-0.734486
-0.780402
-1.57149
2.35294
1.42945
1.60987
-2.09345
-0.0987498
2.26902
-0.895442
-1.37358
0.208384
-0.370377
0.161994
0.630633
-2.81692
2.18629
-3.61479
0.644112
0.942593
-2.61319
3.52126
-0.0562546
1.19489
0.623399
-1.96918
-3.36094
1.75613
-3.89128
1.13784
-1.91629
0.350274
-1.27177
-2.20588
3.47765
-3.3459
-0.153716
0.139679
0.0140367
3.62183
-2.96901
3.0715
-1.84386
0.349593
2.13291
-2.48251
0.433569
-1.18108
-1.95569
-1.45692
3.41261
-2.28224
-0.787404
3.06965
-3.19149
4.99995
-1.80847
2.54374
-2.15772
-0.386024
2.78048
0.1114
-2.89188
-1.89577
-2.67867
-1.23099
-0.266766
1.79073
2.53459
-0.0313991
0.453802
-0.422403
-2.64578
-0.698771
2.45377
2.11291
-2.12522
2.64943
-0.524208
0.0569265
-0.102939
0.0100106
0.118365
-0.128376
0.78708
-0.255577
-0.384455
-3.59551
-3.95906
0.892293
0.0753513
2.12044
-1.49733
0.347294
2.69987
-3.04716
-1.9132
-0.273949
1.76446
1.93166
0.294824
-1.15815
-1.10273
0.805088
0.297645
-0.0158512
-1.35543
1.37128
-0.733459
0.426927
1.67771
3.37244
-1.65779
2.82533
-1.78035
-0.505453
-1.05317
1.55862
2.81883
0.504694
-0.0971481
-2.73921
1.92099
3.06017
-3.36304
-1.61937
-2.75431
4.37368
-2.2548
-2.42864
-4.07707
4.11972
-0.0426572
-0.289072
-1.03259
0.668871
2.16261
1.20984
0.825703
1.01233
-1.83803
-1.10021
-2.18892
-1.24249
-2.04678
3.28927
1.63536
-0.213164
0.395454
-0.821863
2.12935
-3.56815
1.50256
-1.31315
-1.87308
3.13774
-1.26465
1.73687
1.44036
1.43626
-2.87662
4.17347
-2.24882
-1.92465
-2.5897
-2.02992
3.61036
-1.58044
0.197564
2.19741
-1.24506
1.18881
1.63057
3.0161
-0.937312
0.823441
0.112307
0.228917
3.59306
-2.02982
2.28474
3.68645
-1.72441
0.95717
0.767244
0.716596
-1.35127
2.71445
-0.0475482
-0.17713
0.351902
-2.34765
-0.476171
2.82382
0.803371
-0.0820471
-0.721324
0.728695
0.17372
0.504794
-3.89507
-1.21978
1.46094
2.45963
-2.32477
-0.13486
0.759107
1.50991
-0.671559
0.321589
1.23799
0.799261
-2.03725
-1.44182
4.19187
0.340502
-1.86494
3.78445
-1.91951
-0.739551
1.1271
-0.175821
1.31249
4.08796
-2.09779
-1.35634
-0.413886
1.95067
1.30265
-1.6121
-0.793121
0.708116
-1.11729
-0.631654
-0.0490708
1.79
-0.733221
3.06424
-2.33102
0.221058
-0.261945
-0.874368
0.388088
-1.40513
0.174147
-4.5159
2.692
1.11617
0.837921
1.61525
1.41677
-3.03202
0.519616
0.431753
2.78188
1.67933
-4.46121
-0.508521
-0.0390506
0.547572
1.13516
-2.85439
3.84769
1.66496
2.91924
-2.57195
-3.62536
-0.00427697
0.297275
-0.415549
1.65479
1.17442
1.53469
-2.70911
1.7425
-0.335517
-0.102211
-1.26137
-0.463041
-2.01771
-1.01805
1.65959
2.1505
1.30204
1.96045
-1.95298
-0.00746681
0.829279
0.0231427
-0.264466
1.0641
-0.145155
2.8512
0.710147
-3.56135
0.773543
-1.0053
-0.968981
0.592012
0.376969
-1.4333
-0.0724408
1.50574
0.447199
2.77499
-3.22218
0.810138
1.39423
2.49327
-0.0832102
-1.10992
-0.605848
-0.0834951
-0.442666
0.844289
-0.401624
-4.23284
1.6869
3.17694
-2.4174
-0.759534
0.0731729
-0.644033
0.57086
3.05627
-3.27026
1.3092
0.326167
1.73753
1.33397
-0.617508
-0.014146
-0.754978
0.973311
-0.218333
-1.91152
-0.552239
3.99303
-2.05237
-1.94066
0.848088
0.394348
-1.24244
1.79425
-2.79124
0.996989
0.149978
1.94231
0.256857
0.243409
3.99331
-4.23672
0.123264
-0.878242
-2.18079
-0.286662
0.632205
3.40159
-0.00990288
-3.39169
-2.90268
-0.716207
0.500807
0.49016
-0.0932185
1.00999
-0.828514
-2.63199
1.71442
0.00987014
0.157889
-0.201736
0.423467
-1.59382
1.94342
0.0213215
1.15774
-0.19073
-0.321477
2.22294
-0.104121
2.06457
-0.935384
-0.53992
-0.795298
2.03329
-0.392655
3.27543
-2.88278
-2.87745
-0.510436
-2.30461
5.3871
-3.08249
-0.694904
0.408242
1.34176
-0.228908
-0.0591956
-1.04324
1.10243
-3.14556
1.04777
0.604775
-0.593324
2.64657
-5.09651
2.15311
-4.73032
-2.11088
3.0819
-1.7841
2.07607
-1.27681
0.0396817
-2.01016
2.64079
-0.0071598
-0.655494
0.26558
-1.71312
-0.542286
-2.16097
2.70325
-0.501296
3.20231
5.71283
-3.74099
-1.97184
-0.866471
0.386746
0.987177
0.083732
-1.07091
-3.00684
0.74096
0.852117
-0.0239412
-0.0233015
-0.565069
0.58837
3.04104
-5.34565
0.397721
1.65428
0.293006
-1.94728
-3.69191
3.29925
0.64153
0.155196
-0.796726
1.61893
-4.00657
-0.620659
0.0024204
0.618239
0.835852
-0.194322
-0.0309813
2.74005
-1.89362
2.08708
2.02242
-1.21228
-3.89151
1.19559
-2.34636
2.09725
0.249115
2.64223
-4.2616
-1.99754
-1.07106
3.0686
-0.199219
1.72059
-1.22253
1.13469
3.92328
-0.619892
-3.30339
0.00260668
-3.67034
2.53792
0.242563
1.54584
0.990377
-0.679389
-0.00606202
0.647582
-0.862182
-1.54031
-0.26662
-0.0627312
0.329351
0.0179892
-3.10332
3.08533
-0.587145
1.60275
-1.01561
2.25208
-4.66278
2.4107
-0.120529
-1.98753
-0.115818
-0.465312
2.38254
-1.41234
-0.701082
2.11342
-1.47274
-1.17993
1.79361
-1.08612
0.449236
-0.335679
-0.113557
3.26824
-1.65299
-3.19818
-0.355261
-0.370905
0.726166
1.12317
0.437796
-1.56097
1.16095
-2.92897
1.76802
0.367031
-2.12104
0.64543
-4.30515
-2.20719
-2.46409
4.67128
-3.36846
0.127492
3.24097
-3.88218
-2.86278
0.264983
-1.30356
1.27154
0.0320185
-5.23052
-1.15159
4.00279
1.58612
-0.718456
0.492512
-1.28781
-0.533886
1.92811
0.630889
0.462426
-1.56973
0.0747696
-0.682349
0.60758
-0.490651
-0.0955007
-0.455198
0.528371
-1.34422
1.82222
-4.05933
2.33492
1.72441
2.42966
-0.727657
1.52248
0.866237
-0.062866
2.63144
-1.80574
-1.84875
-0.988216
-2.13398
0.648347
1.48563
0.0429375
0.0754641
-0.118402
-1.82751
1.81165
-0.408704
2.76458
1.19237
0.322522
1.60126
-3.074
1.53685
-1.8167
0.279842
0.523548
-0.051785
0.0668136
-0.00348301
-3.45084
2.17907
-0.490068
1.33816
0.0529797
-0.829414
0.776434
-5.46784
2.05851
-0.892761
0.509228
-0.777784
-0.0769537
-0.886152
0.963105
-2.19015
0.777815
-3.78988
3.40543
5.88273
-1.65555
-1.10556
1.03635
0.0692082
0.106217
0.00349412
-0.643961
-3.20986
1.85697
1.35289
-0.618285
0.579234
-0.0873183
1.50965
-1.42233
1.29698
0.0122112
0.0561517
-0.00664394
-0.0495078
-1.17692
1.19824
0.105847
0.0363635
1.71971
-3.82332
3.59942
0.237538
-2.55053
0.235223
3.29512
-0.146587
-3.14853
-0.59505
1.02282
-0.427773
1.60039
-3.43134
1.83533
-3.68379
1.84847
-0.105472
0.0377229
0.0677495
-3.91844
4.02193
-0.10349
-2.2678
2.09287
2.36622
0.209179
4.25041
-1.7003
-2.55012
-0.215214
-0.777506
0.99272
-0.704774
-1.30552
-0.0389838
-1.23243
-0.0730976
0.360114
-1.17034
0.81023
-0.376548
3.37722
-3.00067
-2.79446
0.717594
2.07686
0.936229
3.00919
0.0781583
0.344419
-0.422578
2.14927
0.909264
-3.05853
0.209223
-0.204681
-1.39722
3.05558
-1.65835
-2.81159
0.463944
2.20693
0.950197
-2.94773
-0.0124489
-0.51164
0.524088
3.96322
-1.35318
-2.61004
1.80114
0.936008
-3.60811
1.93472
3.47064
-3.57387
-1.76149
0.189084
1.5724
0.234544
-0.00649338
0.158006
-0.151513
-0.11352
-0.0396615
0.153181
-0.033828
0.552117
-0.518289
-0.798198
0.718763
0.0794341
-2.09854
4.22789
-1.18931
1.13296
1.18973
-1.27705
1.24576
-2.14972
0.903963
-1.97393
-1.52366
0.0158862
0.0698942
-0.14393
0.0301836
0.113747
3.3776
-1.73676
-1.64084
0.190101
2.26953
-0.963693
-0.54739
-2.23136
0.430096
2.79074
1.09695
-3.88769
-0.0480103
-0.0720658
0.120076
-0.0259982
1.46153
1.09308
-0.0606808
-1.0324
5.1476
-3.09987
-2.04772
-4.98806
1.02149
0.382861
-4.84154
3.26489
1.57665
0.738802
-3.02863
0.481828
-0.941813
0.0702692
-0.00345557
-1.47337
3.23401
-1.76064
0.627686
0.104275
-0.357225
-0.642741
-0.950567
0.941611
-0.435172
0.375608
-4.99993
5.77639
-0.776455
2.19901
-1.72905
-0.469966
-0.0425912
-0.690868
0.99222
0.215477
-0.969647
0.789282
-0.353641
-1.24955
1.73116
-2.39485
-3.61894
3.86235
-0.414767
0.236849
0.57221
0.263642
-0.0719461
-0.0335263
2.98444
-3.12372
0.139275
3.67434
-1.6815
0.911147
0.770353
0.455378
-1.40194
-1.75237
-3.25702
-0.981779
0.899732
-0.645714
-1.10201
1.74773
-2.97746
0.734627
0.397732
1.01711
-1.41484
-2.60273
0.320486
-0.481098
-1.70592
4.54637
0.252785
-3.00857
0.784641
-2.05143
1.26679
-1.10258
1.3974
-2.25896
-3.20888
0.109094
-0.627962
2.05181
-3.11925
1.50061
1.61863
-0.135085
-1.26916
0.18275
-1.48159
1.29884
-3.75156
-2.19074
-0.672224
0.674644
3.02978
1.87514
1.29961
2.08856
-2.1468
-1.6778
3.21665
-0.242589
-2.97406