/*--------------------------------*- C++ -*----------------------------------*\
| =========                 |                                                 |
| \\      /  F ield         | OpenFOAM: The Open Source CFD Toolbox           |
|  \\    /   O peration     | Version:  2306                                  |
|   \\  /    A nd           | Website:  www.openfoam.com                      |
|    \\/     M anipulation  |                                                 |
\*---------------------------------------------------------------------------*/
FoamFile
{
    version     2.0;
    format      ascii;
    arch        "LSB;label=32;scalar=64";
    class       volVectorField;
    location    "2.8";
    object      U;
}
// * * * * * * * * * * * * * * * * * * * * * * * * * * * * * * * * * * * * * //

dimensions      [0 1 -1 0 0 0 0];

internalField   nonuniform List<vector> 
13486
(
(6.71434 -1.4857 1.18366e-20)
(7.0015 0.244193 7.35466e-21)
(10.1417 -0.142951 0)
(8.76157 -3.95462 -1.10974e-19)
(11.2859 -0.581962 -1.09241e-20)
(9.27887 0.748699 -1.59806e-21)
(11.7444 2.5254 -3.10818e-22)
(9.62387 -3.04158 3.21239e-21)
(8.79785 -1.51006 0)
(7.28779 1.80067 0)
(-4.61805 1.42857 -1.92455e-20)
(8.77352 -0.175729 0)
(6.23981 -2.21363 -1.1417e-20)
(8.36856 2.5562 -3.86466e-21)
(10.354 1.21667 -5.36724e-21)
(7.22155 1.83247 -7.98886e-21)
(4.26819 -1.95652 1.63962e-20)
(-1.96458 4.57097 -1.59772e-20)
(8.15764 -0.0219858 4.58115e-23)
(7.17782 -0.823235 -1.23601e-20)
(8.63414 -2.08548 -6.13906e-20)
(6.3043 -2.25991 1.47087e-20)
(7.06223 0.202929 -5.89157e-21)
(12.4794 0.186308 0)
(7.63237 1.50171 2.82422e-21)
(12.688 0.0971262 -4.05927e-21)
(1.68916 0.00459504 1.89521e-20)
(11.9471 -0.0241434 1.53389e-20)
(7.13079 1.67411 0)
(12.6099 -0.301975 -1.4456e-20)
(0.468527 9.25065 -5.47216e-20)
(8.53477 1.58711 1.3793e-21)
(13.2511 0.699016 1.13918e-20)
(11.1659 -0.609744 0)
(9.70004 -2.88197 0)
(6.45911 0.0837114 1.91104e-22)
(6.85215 -0.793086 -1.52584e-21)
(7.49861 -3.45087 3.1575e-21)
(8.10948 -1.60035 -6.11233e-22)
(8.66999 -0.931703 3.21692e-21)
(14.2592 -2.8203 0)
(5.64908 -2.69112 -1.39972e-20)
(9.55788 0.109649 0)
(7.75737 1.28372 -1.29569e-20)
(7.74096 1.31264 5.29027e-21)
(8.69878 -0.17869 2.56762e-21)
(-6.18078 3.94195 3.11219e-20)
(6.82243 1.4178 1.5485e-22)
(6.76254 -0.76267 1.15872e-21)
(11.1591 0.474086 3.07036e-21)
(7.97614 0.00146731 9.20017e-21)
(8.44659 -0.608465 0)
(7.81605 -0.318399 -6.37246e-21)
(7.674 -2.74678 -5.1568e-21)
(-4.69389 6.37454 0)
(10.9767 -0.922526 5.56854e-21)
(8.27296 -0.210488 3.87496e-22)
(8.53083 -1.02771 -2.89844e-21)
(12.7932 0.710871 1.28861e-20)
(6.95365 -1.06656 0)
(-4.75869 1.20956 -2.151e-20)
(7.14833 -1.08388 0)
(12.6554 6.22756 -2.33355e-20)
(8.04319 -1.79131 -7.2358e-22)
(-3.41345 7.28042 0)
(6.85706 -0.872139 -7.48692e-22)
(7.11067 -4.67054 -9.41632e-20)
(6.4982 -0.645957 4.57257e-21)
(8.80735 -1.61808 -1.08193e-21)
(6.55153 0.0780705 6.14343e-22)
(7.77197 -4.10268 1.08732e-19)
(-3.76709 5.99871 -1.6289e-21)
(8.45623 -0.556584 3.21907e-21)
(-0.176916 0.610109 -2.89169e-21)
(6.82637 -0.988396 -1.36691e-22)
(8.40802 -0.198241 -9.09398e-23)
(6.78552 -0.986501 5.50726e-22)
(10.5224 1.20859 2.33091e-21)
(-6.34377 4.54744 -1.85367e-20)
(10.5437 -7.04892 0)
(6.85164 0.211188 -6.16512e-23)
(6.7864 0.454266 -4.89683e-22)
(9.53942 6.3085 5.73928e-21)
(10.1991 -0.247209 -4.58873e-22)
(6.73049 -1.49614 -2.29756e-20)
(5.43296 3.52767 0)
(5.64922 -3.25532 1.44868e-21)
(7.94004 0.0255363 -1.47757e-20)
(7.58777 0.150663 -6.16986e-21)
(6.5733 2.4037 -1.08433e-20)
(7.32198 1.10107 -1.49139e-21)
(10.2832 -2.1952 3.11215e-21)
(7.02177 -1.81672 2.74947e-21)
(7.17296 -0.384577 3.52617e-22)
(8.6715 -2.44708 3.63725e-22)
(6.80182 1.04213 -4.4086e-23)
(1.71411 -0.180956 0)
(4.59059 -5.19944 4.2005e-20)
(8.67405 -0.887039 -6.23954e-21)
(2.64028 -1.13807 -1.21358e-22)
(6.98399 0.07545 0)
(8.40023 2.51572 -1.50826e-21)
(3.99528 -6.67949 2.25757e-22)
(8.41858 -0.864176 3.37957e-21)
(4.99707 3.20198 0)
(1.42968 -0.845235 -8.35909e-23)
(8.03379 -0.122184 -2.32583e-23)
(8.18311 -1.87063 -1.38824e-21)
(-6.21803 4.59584 2.26438e-20)
(9.98739 -4.34565 0)
(8.17699 -3.76073 0)
(9.05749 2.90807 6.98603e-21)
(7.7276 -2.68031 1.68628e-22)
(9.95107 -0.793525 -7.7182e-23)
(5.35564 -1.17701 0)
(8.07195 -3.77204 1.78709e-22)
(7.55064 1.58909 0)
(11.6337 -0.639799 0)
(8.43621 -0.526766 0)
(6.73076 -0.626802 -8.42353e-22)
(-2.28798 3.40716 7.59297e-21)
(-4.58655 0.946161 0)
(8.45404 -2.23748 0)
(8.16187 -1.619 2.05379e-21)
(9.02646 -2.92867 0)
(8.43498 -0.588791 0)
(9.43676 -0.338152 -2.10376e-24)
(8.37073 0.28991 6.33825e-21)
(10.8904 -0.607319 -2.12372e-21)
(1.48952 9.27568 -1.24462e-20)
(8.24406 -0.456616 -3.51419e-22)
(-6.35482 4.91569 -8.16997e-21)
(-0.534673 0.743393 5.67205e-22)
(0.819952 -2.57631 2.39169e-21)
(7.98582 -0.00929037 -1.44808e-21)
(7.43419 0.88851 -8.64307e-21)
(3.78536 0.746134 -4.93154e-21)
(10.0998 -4.2165 0)
(6.67023 -0.5641 2.55938e-22)
(9.52801 -2.2173 4.97565e-22)
(12.2246 1.04401 -1.01677e-20)
(7.8766 -0.281053 5.49093e-21)
(8.17645 0.59007 0)
(10.0441 -5.86273 0)
(10.4401 0.202377 -1.63359e-23)
(12.553 -1.19413 -5.15008e-20)
(6.86964 -1.24772 -1.00071e-21)
(1.50565 2.26534 0)
(11.2751 0.675303 0)
(7.29143 1.67155 0)
(7.99693 -0.00345313 1.92467e-22)
(11.3081 0.855445 0)
(6.95346 0.173617 6.45226e-23)
(6.70067 0.437124 -4.22356e-21)
(8.23313 0.98992 0)
(10.6446 -0.189597 0)
(10.4125 -4.35094 0)
(11.74 7.38884 5.04002e-20)
(8.22698 -3.1219 3.9373e-21)
(6.73891 -1.03247 7.57609e-23)
(10.1253 0.285664 4.53458e-22)
(8.26206 -3.06062 -5.63613e-21)
(5.70519 2.44556 1.49108e-21)
(5.08481 -2.53105 6.00303e-21)
(8.63418 -0.766141 0)
(8.71086 2.76016 3.66072e-21)
(8.29467 2.25848 9.62488e-21)
(3.67947 -1.35298 -1.89003e-20)
(6.85064 -1.16118 2.65052e-21)
(1.42208 -2.42994 9.28519e-22)
(-1.70062 1.60821 1.2134e-21)
(8.20401 0.870871 5.07885e-21)
(8.00265 0.0831785 -1.37711e-20)
(9.36565 0.297098 -5.03181e-23)
(6.8553 0.431639 -7.34869e-23)
(-5.99899 -2.16158 0)
(7.91216 3.27631 -8.03835e-21)
(12.6183 1.48152 1.38136e-20)
(8.06181 -0.120768 -1.26305e-20)
(8.23653 0.487936 0)
(8.97894 -0.988838 4.24009e-21)
(10.1723 -0.7219 -2.23637e-22)
(9.03518 0.532024 8.26638e-23)
(2.71252 -1.13527 0)
(9.58953 -0.594955 1.4247e-21)
(11.3042 -0.0151798 -6.96031e-21)
(8.49424 1.71146 1.43614e-22)
(12.0131 -0.492029 -3.99181e-21)
(14.413 -2.7445 0)
(7.40852 -3.53708 -1.26015e-21)
(6.68797 -0.727391 0)
(10.5072 -0.0434038 0)
(8.78211 -1.46751 0)
(6.03869 1.65485 -1.00413e-20)
(9.09823 -1.6867 0)
(-4.42164 1.62912 -5.315e-21)
(-2.52979 9.07626 2.71363e-20)
(10.318 0.180713 5.04019e-22)
(6.81382 -3.30686 -1.9455e-21)
(8.70958 2.63271 2.92529e-21)
(1.30292 9.11109 5.47242e-20)
(8.39955 0.357506 -2.00231e-22)
(7.47063 -3.53306 -3.65894e-21)
(11.9206 -4.56968 -7.71071e-21)
(6.47684 -1.17502 -1.34596e-23)
(9.2091 -1.65794 -3.08762e-21)
(-1.23981 9.42378 -1.48178e-20)
(8.11744 -0.439836 8.24015e-21)
(8.7368 -1.45633 0)
(9.80192 -0.525761 0)
(11.9748 -0.144943 1.2118e-20)
(12.7 1.37658 5.36624e-21)
(7.26413 -0.736808 1.13478e-20)
(7.92094 -0.0862056 -3.44878e-23)
(9.31409 0.879312 1.84291e-21)
(14.8656 -3.82684 6.55792e-21)
(12.441 -0.224595 0)
(6.55952 2.24365 2.46231e-20)
(7.37143 -1.82992 0)
(10.1196 4.80207 0)
(3.11721 -1.70154 -3.07579e-20)
(11.1139 0.798803 0)
(9.43807 -2.2659 -1.45676e-21)
(11.0081 0.355257 0)
(7.49051 -1.00234 -1.40063e-21)
(6.46541 -2.97267 3.69352e-21)
(9.54131 1.68334 1.62354e-22)
(-8.9877 3.20552 2.5977e-20)
(12.1124 -3.40862 1.32631e-21)
(6.29549 -3.18714 -3.76212e-22)
(8.96788 -0.935523 -1.42167e-21)
(16.8256 2.63844 6.48378e-20)
(12.3712 0.991535 1.26835e-20)
(5.56053 -2.66769 4.89788e-21)
(4.28493 -7.36729 0)
(6.25274 -3.01644 3.95983e-22)
(11.7612 -0.686421 7.53806e-21)
(10.5011 -0.0529091 -1.48278e-22)
(6.37982 -3.027 1.12163e-20)
(8.99686 0.238553 0)
(12.9098 0.411034 0)
(7.98874 0.0816762 2.12569e-20)
(11.149 0.0449634 0)
(6.15894 -3.02774 3.28384e-21)
(7.74455 -1.85446 -9.5126e-22)
(7.64013 -0.278242 0)
(9.17215 0.0817227 -3.82082e-22)
(12.4231 0.362975 1.8616e-20)
(3.08433 -1.20139 9.4296e-21)
(7.68579 1.17025 0)
(-0.484369 -2.27035 -1.13938e-20)
(5.26479 -1.09023 2.06224e-21)
(7.6721 -3.71837 -1.02447e-21)
(8.24799 -1.8684 0)
(10.9842 -4.1063 4.7128e-21)
(-5.86268 -1.06334 5.0133e-21)
(8.46205 1.51149 -3.37842e-22)
(16.4921 -4.20258 -8.28698e-21)
(15.3596 10.8638 -5.27582e-20)
(13.097 0.582162 9.04429e-21)
(7.34035 0.137588 0)
(7.6727 -1.80539 -8.17059e-23)
(10.3855 1.20436 1.19982e-20)
(-5.38809 -1.30603 -6.25954e-21)
(11.284 -2.67305 1.15284e-20)
(2.90242 -1.24244 0)
(11.8825 -3.07324 -9.1878e-21)
(2.71373 6.64112 -7.89843e-20)
(8.69664 -0.0515503 -4.25419e-21)
(-1.53942 -0.772585 0)
(6.11939 1.85852 8.34209e-21)
(7.98816 -0.108115 -3.63319e-21)
(12.4002 -0.217418 0)
(8.44873 -0.518714 2.90506e-21)
(6.67117 -3.10714 4.87242e-21)
(12.802 0.411033 -1.02816e-20)
(10.7157 -3.78256 0)
(-8.30173 10.1344 0)
(8.35483 -2.1107 -1.74048e-21)
(7.02215 -1.47792 2.1212e-21)
(-6.01023 10.001 7.0345e-20)
(9.04726 -0.439982 -1.42884e-21)
(7.95147 -0.115872 7.73941e-21)
(10.0695 -1.84269 -8.78679e-21)
(-4.75045 1.28101 2.68984e-20)
(1.71915 0.131978 3.40086e-20)
(12.1911 1.37846 1.01081e-20)
(10.451 -0.66958 2.7926e-21)
(8.52247 -1.02567 2.58408e-21)
(8.47631 -0.067249 0)
(4.58958 -4.54047 0)
(7.05189 -1.19979 2.54129e-22)
(7.93795 -3.67398 9.78848e-22)
(8.00767 -0.00344163 -1.40311e-21)
(11.7089 -0.687696 7.19986e-21)
(11.9199 -0.61114 0)
(10.5702 0.0164287 -9.69842e-22)
(8.61257 -0.482221 -2.54209e-21)
(8.00246 -0.149817 -6.9217e-21)
(13.4146 0.879255 -2.09222e-20)
(6.34148 2.05978 -1.64228e-21)
(-1.42821 9.55966 2.19455e-21)
(7.50118 -1.39849 -1.80764e-21)
(8.73298 1.54121 -9.82079e-22)
(6.85208 -0.566043 2.77968e-22)
(10.5561 -4.93479 0)
(16.5782 1.80654 0)
(8.26825 0.0424639 6.8092e-22)
(6.18942 -3.68257 -8.39584e-22)
(6.76712 -0.75188 0)
(6.31016 4.90343 -9.56928e-22)
(7.88872 -4.39759 0)
(7.68555 3.07852 4.80965e-21)
(8.97138 2.84181 5.26727e-21)
(-5.62327 -0.178436 0)
(7.40074 0.74972 -5.48739e-21)
(7.01152 -1.21175 -3.67324e-22)
(7.5379 0.135761 -5.26395e-22)
(8.05534 -0.449091 -9.39948e-21)
(12.0418 -2.89022 0)
(6.78941 -0.841029 1.35011e-21)
(7.33323 -1.27017 3.80069e-23)
(8.08328 -0.0728714 1.60516e-21)
(7.13851 -0.25117 -6.83833e-21)
(4.06592 0.568191 8.92422e-21)
(7.58513 1.28992 3.54027e-21)
(10.065 -0.420889 9.50102e-21)
(9.118 -0.406515 0)
(9.041 -0.738504 -3.61283e-23)
(10.1778 -0.228791 3.09689e-21)
(7.97109 -0.0342391 2.13271e-20)
(10.4016 -2.14818 0)
(6.74555 1.18818 -1.09329e-21)
(6.2763 0.348547 0)
(11.8024 2.74986 3.60993e-20)
(8.90333 -2.18816 -3.22435e-22)
(4.65447 -2.30342 6.54991e-21)
(11.3062 0.581773 1.17002e-20)
(7.99278 0.331795 0)
(7.53967 -1.74282 -1.15051e-21)
(12.0082 -2.84532 9.59934e-21)
(7.10412 -0.254824 6.46658e-21)
(10.338 -0.211482 -9.72935e-21)
(9.07114 0.600124 -3.76015e-22)
(-0.579494 0.844106 -2.31351e-20)
(6.92624 1.33456 -9.94281e-26)
(9.32865 -0.0544226 0)
(5.29367 -2.09841 1.49419e-20)
(10.2446 4.95186 0)
(7.00451 -1.27523 -6.87834e-23)
(9.06181 0.00487327 1.94317e-21)
(8.79501 -0.732583 -2.9999e-21)
(8.4239 -0.483487 2.57061e-21)
(1.02652 -0.145312 -2.22682e-20)
(7.99796 -0.131302 8.5886e-21)
(6.73493 0.0642941 0)
(-1.15782 0.658207 -1.52973e-21)
(9.42505 -0.276388 7.72804e-23)
(6.73082 -3.33534 4.99301e-23)
(12.8988 2.07667 7.4545e-21)
(9.58049 0.00459114 0)
(7.2539 0.726846 4.0815e-21)
(7.51198 -0.0744328 1.4427e-20)
(7.98802 -0.0967274 1.10689e-20)
(12.536 -0.281302 0)
(7.04025 0.129676 9.08351e-24)
(11.8917 -0.555976 -7.07968e-21)
(-5.98707 4.92601 2.78699e-21)
(7.11275 -0.805043 1.58278e-21)
(9.39939 -0.253559 -7.3711e-23)
(9.9608 0.101289 1.36489e-22)
(9.29146 -0.113896 0)
(7.42365 -1.23766 -6.10243e-21)
(-1.22013 -1.3259 9.30606e-21)
(8.8746 1.57695 -4.58634e-21)
(8.00863 -0.0151453 7.60583e-21)
(6.6267 0.0179856 0)
(7.28489 -1.34972 -8.32048e-22)
(-5.08882 -1.02195 0)
(8.44666 4.79609 1.56912e-21)
(8.75876 -0.0796249 0)
(10.6313 -2.66141 -4.17101e-22)
(6.33628 -1.22295 -3.53588e-21)
(6.06472 1.47361 1.88438e-20)
(-5.66737 3.91755 -1.67521e-20)
(11.0668 -3.51621 0)
(8.78728 0.237095 -6.18752e-21)
(7.93296 0.351681 -6.17072e-21)
(3.18589 -2.03565 -6.38298e-21)
(5.41045 5.70661 8.6899e-21)
(7.33401 -0.79251 -1.67995e-20)
(12.3096 -0.126045 5.5896e-21)
(7.98816 0.472841 5.04234e-21)
(6.98307 -2.27113 0)
(6.09807 0.0492191 8.25464e-21)
(6.53276 -0.611646 -8.45346e-22)
(7.8733 -4.82684 6.34428e-20)
(-0.53265 -1.26544 -3.39665e-20)
(3.13252 -2.03996 -1.51926e-20)
(12.2785 1.35917 0)
(2.66895 -1.79754 0)
(7.02355 3.01892 0)
(8.89722 -0.227756 0)
(17.7932 0.0838453 -4.41514e-20)
(11.1677 2.61842 0)
(4.8098 -2.80743 0)
(7.2541 -0.298632 2.59142e-21)
(12.5912 1.44696 -1.41936e-20)
(9.23424 -0.189238 -9.52162e-22)
(7.02604 0.344502 2.61505e-20)
(8.01081 0.0778292 -3.04871e-21)
(6.88553 4.41948 0)
(12.2004 0.0644233 0)
(7.94342 -0.138856 7.42493e-21)
(7.95377 0.0169032 1.29065e-21)
(4.6655 1.3542 0)
(2.38004 -1.28462 2.58897e-20)
(11.3183 -2.6933 -1.29319e-20)
(-2.39575 1.80195 0)
(9.01138 0.293058 9.28853e-22)
(8.09858 -0.0934397 -8.51877e-21)
(6.47651 7.70804 7.74803e-21)
(5.2811 -2.07053 0)
(7.90524 0.362512 1.10085e-20)
(9.9788 1.1583 0)
(12.0058 -0.462631 0)
(8.4415 0.641768 -9.56168e-22)
(7.92076 -0.1154 4.14234e-21)
(2.15646 -0.0762521 -2.48197e-20)
(8.25385 2.14933 3.08435e-21)
(6.47943 -1.93399 -5.57254e-21)
(8.81429 -0.20989 4.76871e-22)
(8.13314 0.533646 4.06284e-21)
(8.50671 -1.30659 1.59752e-20)
(11.79 -2.13338 0)
(12.7182 0.176724 9.41508e-21)
(6.30031 -1.01498 0)
(7.21984 -1.29022 2.88038e-22)
(9.37267 0.202007 0)
(6.5563 -0.620118 9.81258e-21)
(-3.84996 2.0536 -2.13122e-20)
(12.2955 -0.145415 0)
(-1.0971 -2.0042 1.34426e-22)
(12.22 0.0565965 -1.11029e-20)
(6.42311 -2.04446 1.421e-21)
(8.054 -1.30025 1.13385e-20)
(5.73561 1.41087 -1.1807e-20)
(6.43519 -1.91504 -1.64467e-20)
(8.15882 4.9167 0)
(6.74655 -0.615038 7.65951e-22)
(-2.13327 1.18993 -5.39019e-20)
(7.89927 0.362501 0)
(7.52143 0.169137 5.76714e-22)
(10.4941 0.277742 -7.03165e-22)
(8.43964 3.88167 0)
(7.99471 -0.022818 0)
(3.78788 -2.5456 0)
(-6.84266 -1.58235 2.4387e-20)
(9.59447 -1.7689 1.04068e-20)
(12.9177 -1.09151 3.05152e-21)
(7.68313 2.94678 0)
(7.68508 -1.08267 9.40965e-21)
(6.79591 0.398589 1.587e-22)
(8.27347 1.99906 -7.3041e-21)
(9.04263 -3.6379 1.12524e-19)
(7.74498 0.0714607 0)
(6.94579 1.53099 0)
(4.36708 -1.37922 -1.10972e-20)
(6.87735 -2.26366 -3.60308e-21)
(8.56768 -0.721868 0)
(9.1418 -4.17853 4.44569e-21)
(7.17647 0.0746948 -9.97596e-23)
(6.95097 0.963524 7.06196e-23)
(4.93771 -2.40184 0)
(9.58794 -1.09405 3.64981e-21)
(6.66788 -0.55829 7.49939e-22)
(10.0597 1.14349 -1.35092e-21)
(8.88157 -2.30492 0)
(1.42851 0.394261 -5.15476e-20)
(8.68925 -0.621915 2.77623e-21)
(7.9659 0.108362 2.11256e-21)
(6.59174 0.00486491 3.85999e-22)
(8.95319 2.87513 0)
(7.03086 0.350879 -6.94724e-21)
(11.4258 4.04033 -1.92487e-21)
(3.73419 -2.17581 3.62025e-21)
(7.95892 0.0547849 0)
(5.16132 5.33484 -8.91792e-21)
(3.84603 -1.17938 0)
(8.03807 0.0510351 -8.52928e-21)
(7.93838 -0.0309561 3.08451e-21)
(7.92325 -0.233677 -1.44219e-21)
(-5.35589 -2.04464 0)
(10.0157 -0.130602 -9.16466e-22)
(5.27883 0.32224 2.31314e-20)
(11.6072 -2.43671 0)
(7.19275 -0.351203 7.87522e-21)
(13.3051 0.572399 2.40959e-20)
(8.64704 0.0451916 0)
(0.798839 4.58557 3.75437e-20)
(9.33551 -5.77401 -1.00811e-20)
(10.0714 0.125127 0)
(-0.139977 0.357626 3.27599e-20)
(7.49007 0.136344 0)
(8.57784 -3.80737 -1.38826e-22)
(-0.509194 -2.38661 1.96419e-20)
(8.40273 1.94981 -1.45254e-22)
(9.38478 0.720802 2.76624e-21)
(6.11799 -0.0116147 4.2668e-21)
(7.99476 -1.37749 -4.04561e-21)
(10.7361 -3.25501 -3.7711e-21)
(8.50812 -3.6438 1.71425e-22)
(9.38963 -0.322774 1.93175e-22)
(8.86056 2.88305 -6.72095e-21)
(10.7089 -4.42486 0)
(8.00516 -0.0321992 -6.74673e-21)
(-1.44239 1.87563 -3.01107e-22)
(6.412 -1.04259 0)
(6.44138 -0.942926 -3.93283e-22)
(6.58859 0.066473 0)
(6.02371 -2.01072 1.47014e-20)
(10.4755 -3.22604 0)
(6.87524 0.0415347 -3.57527e-22)
(9.20725 -0.0182087 -1.15271e-21)
(-3.04708 7.61283 6.76185e-20)
(3.86892 -2.68194 4.17855e-20)
(9.42162 0.0767508 -1.86124e-23)
(9.79977 -4.52511 -1.0292e-20)
(8.40358 -2.26116 2.43122e-21)
(7.01287 -1.80529 0)
(2.29514 -1.73405 -1.4485e-20)
(11.9465 -1.98538 2.42926e-21)
(2.08649 -1.66176 -1.70788e-20)
(6.82011 1.13826 -2.45142e-23)
(6.94629 -2.6763 0)
(8.69072 0.0278289 -6.83052e-23)
(2.64071 -1.35011 0)
(3.39116 -5.56381 6.04558e-23)
(6.47604 7.28825 -1.10897e-20)
(14.7592 8.79418 0)
(9.77686 -1.81322 -6.70782e-22)
(-2.68061 7.57802 0)
(8.41583 3.82667 0)
(8.25093 -3.82847 1.27062e-22)
(6.37702 0.19674 6.78363e-21)
(8.92271 -10.602 0)
(7.47237 0.0127363 -4.09894e-21)
(12.0026 -0.192951 6.3351e-20)
(-1.69102 -0.673319 3.82258e-20)
(8.04815 4.33115 0)
(8.37749 -0.0320784 0)
(-2.27589 1.49209 -2.27476e-20)
(8.16653 -0.656286 0)
(9.77727 -0.249531 0)
(-4.76984 0.688887 1.8303e-22)
(9.43621 -1.19088 1.28079e-22)
(8.15265 -1.91364 2.73564e-21)
(12.9265 0.346417 1.29616e-21)
(2.5144 -1.78441 3.18698e-20)
(7.95302 -0.0384401 3.47845e-21)
(7.17692 -1.86719 0)
(8.0415 1.41251 -2.53811e-21)
(6.67832 -1.41077 0)
(9.30663 -0.0586585 0)
(7.96048 0.159545 0)
(8.44092 0.60548 -7.74759e-22)
(8.04618 -0.478778 4.33476e-21)
(10.9805 0.17169 3.30322e-22)
(7.34951 -1.88312 0)
(0.960929 -0.161347 -1.80374e-20)
(7.0069 2.83418 6.41078e-21)
(9.01463 -2.95616 -5.66834e-23)
(10.6128 -1.02961 -4.70641e-21)
(12.8069 0.199858 2.02047e-20)
(8.26276 0.0487279 -4.78749e-21)
(-3.8132 1.98826 0)
(8.64041 -0.508277 0)
(5.43759 1.53652 0)
(6.17156 -2.73241 -9.88621e-21)
(-8.78406 12.5533 -3.93946e-20)
(14.4536 8.34582 0)
(8.10321 1.42149 0)
(7.72444 -0.57858 5.62105e-21)
(8.23676 -0.0250266 -7.90054e-22)
(7.21771 1.47772 1.05357e-20)
(12.554 -4.67215 0)
(-1.41058 -0.240939 -6.7857e-21)
(8.93428 0.273968 3.44066e-21)
(6.73239 -2.15637 -8.84515e-21)
(8.4829 0.293776 -4.995e-21)
(8.25677 2.03234 9.20509e-21)
(3.88231 1.83858 6.0709e-22)
(6.10343 -2.71215 1.71975e-20)
(16.4442 -0.300758 4.80561e-20)
(10.6178 -0.57457 -1.63884e-22)
(8.0136 -0.00746185 -1.57383e-21)
(8.5732 -4.0517 2.07e-21)
(9.58194 -5.1544 4.61821e-21)
(5.13372 4.5081 -7.19804e-21)
(8.85338 -4.06015 -1.63667e-21)
(9.05494 -0.684085 0)
(5.48551 -2.97689 -5.53457e-22)
(8.44983 -0.0211039 -1.01616e-20)
(9.57891 3.83113 -8.60643e-22)
(6.60046 -2.033 -8.40787e-21)
(8.9037 -2.85069 -4.00026e-22)
(8.45952 0.0345651 4.39522e-21)
(10.9404 -0.106339 -2.52586e-21)
(3.92583 -1.67916 -5.91885e-21)
(12.0912 1.57532 -5.40633e-21)
(5.67874 -1.44443 -2.17355e-20)
(8.64139 -0.00678646 -8.92755e-21)
(5.66287 -1.66249 0)
(-6.14172 4.94235 -1.1466e-19)
(8.96258 0.0358312 1.01309e-20)
(6.11998 0.0488019 5.49215e-23)
(-0.382367 0.517518 0)
(9.9911 -4.28052 0)
(7.72069 1.09778 9.48932e-21)
(5.25914 -1.47328 1.38686e-20)
(-3.58631 3.62364 -9.86616e-21)
(10.6577 -2.69437 4.58328e-21)
(10.1601 -0.345717 -5.41459e-21)
(10.3897 4.88875 0)
(7.67999 1.19098 5.52741e-21)
(-0.400783 7.71447 -1.92739e-21)
(8.02244 3.30651 -7.12719e-21)
(8.85535 -0.964303 -3.1895e-21)
(2.7361 -1.56773 -5.16408e-20)
(12.9641 0.133084 -1.93294e-20)
(12.3552 0.192689 3.82602e-21)
(7.36895 3.31951 0)
(12.3438 -1.76775 -5.10209e-21)
(7.97197 -0.247297 1.25369e-21)
(6.87509 0.282437 -7.93065e-23)
(5.10453 -2.51481 1.71041e-20)
(8.75629 -1.03935 4.88308e-21)
(6.77399 -1.29253 -1.19425e-23)
(-1.00427 -0.782444 -2.36304e-20)
(11.4578 -0.157201 -6.0001e-21)
(8.49911 0.0886146 8.01216e-21)
(-4.18533 1.36819 -3.42958e-21)
(7.85917 3.09574 1.40678e-20)
(0.894504 -0.0840956 -3.55954e-20)
(6.51179 -3.11103 -4.27275e-21)
(7.0083 0.277817 0)
(8.66551 -0.282802 3.72713e-22)
(-4.15772 -0.19835 -1.06335e-20)
(6.30239 -1.29725 1.87405e-20)
(9.44784 1.32305 0)
(4.72836 2.01778 2.39525e-21)
(5.92498 -2.46988 4.13547e-21)
(7.959 0.00409139 -1.50049e-20)
(1.81302 -1.44754 -2.54496e-20)
(8.65416 -9.95318 -5.92748e-21)
(9.28809 -0.155754 6.02837e-22)
(8.68595 0.300979 9.32259e-21)
(8.73191 -3.865 1.3292e-21)
(11.1878 -0.0118239 -5.09597e-22)
(-9.22045 9.97346 -6.89398e-20)
(8.48893 -0.0154774 9.53419e-21)
(8.76524 -0.188165 -2.1495e-21)
(8.28878 0.349934 -7.66952e-23)
(9.9368 0.0451107 -3.72842e-21)
(5.76554 -2.54474 -7.99121e-21)
(10.6352 -0.413709 0)
(-7.19536 -3.61689 3.17632e-20)
(8.54203 0.0481683 9.28044e-22)
(6.80501 6.93817 1.02005e-20)
(9.70407 0.265077 2.60471e-21)
(10.0389 -0.703558 2.35658e-21)
(7.9973 0.0456121 -1.33122e-20)
(8.02118 0.867587 3.12348e-21)
(2.50628 -1.20694 -2.66107e-20)
(9.90994 -0.229307 0)
(7.42283 -1.46137 4.56818e-22)
(8.83975 -0.855255 3.07472e-21)
(6.97675 -2.62009 0)
(8.24245 0.257294 6.5951e-21)
(9.00393 -0.782595 3.63992e-21)
(9.93906 -0.231287 2.23347e-25)
(14.4863 -3.4343 2.01893e-20)
(9.46897 -1.6539 0)
(7.13694 0.594522 1.36284e-20)
(6.89517 -0.966642 -2.1348e-22)
(8.51802 -3.89301 -1.16424e-21)
(8.76212 -0.618608 0)
(6.35221 0.153196 -1.94521e-20)
(-2.27748 2.49375 3.82456e-21)
(7.48026 4.20904 7.22276e-21)
(5.72161 -1.49248 2.11662e-20)
(10.1222 0.174633 -4.23184e-22)
(3.31239 -2.34349 3.06053e-20)
(8.38137 -0.5548 -5.70665e-21)
(12.6717 0.178821 -1.28499e-20)
(7.49571 -0.0287661 -8.35939e-21)
(9.82416 0.279367 0)
(8.03262 -0.03711 -5.88016e-21)
(5.34283 -0.488316 2.03053e-19)
(-0.357096 -0.495306 0)
(12.2693 1.20943 0)
(6.88365 0.279043 0)
(4.1308 -2.27056 0)
(7.89658 0.756937 0)
(5.48982 -1.43468 0)
(14.7247 -2.57404 3.71586e-22)
(13.0276 -1.57266 -2.22557e-20)
(9.61868 1.84636 0)
(7.02759 0.436297 2.02767e-20)
(-2.51518 -2.586 -1.13761e-20)
(8.06616 0.513798 1.06743e-22)
(-4.30961 0.187379 -5.23624e-21)
(5.40647 -0.734938 8.06993e-23)
(2.2879 -1.51371 2.28499e-20)
(7.7857 0.0644625 -1.1228e-21)
(11.0137 0.453526 5.21533e-22)
(7.88181 0.685781 -6.26649e-21)
(7.62771 0.0897443 -1.20343e-20)
(6.94999 2.53164 -1.11308e-20)
(8.17551 4.69801 0)
(8.04137 -0.29716 2.4681e-20)
(6.10712 -2.07437 -1.60749e-20)
(8.01197 0.0110714 -1.74302e-20)
(12.0971 -1.7391 2.41101e-20)
(9.60657 -0.0205221 7.69332e-22)
(15.4257 0.492733 -3.1061e-20)
(9.44616 -0.636624 6.03853e-23)
(9.81292 -1.80078 2.51488e-21)
(7.92127 0.309582 6.39597e-21)
(6.70864 4.87145 0)
(10.3273 -2.96453 -3.13708e-21)
(7.31683 -0.381181 -2.47935e-21)
(10.7138 2.97154 0)
(8.4654 -1.90338 0)
(9.35452 -4.04801 -1.69181e-22)
(2.75412 -2.04277 3.38588e-20)
(15.5365 -3.34184 -2.87916e-20)
(7.82869 -0.410177 0)
(8.15727 -0.456543 -8.46875e-21)
(7.42249 0.148029 -2.3126e-21)
(-4.41188 -4.77 2.44773e-20)
(9.44199 -0.550049 1.51694e-21)
(2.49221 -1.71626 0)
(7.4392 -0.352882 2.70823e-20)
(9.48858 -0.698269 0)
(12.3366 -1.91273 6.07044e-21)
(7.0146 0.844496 -2.46766e-21)
(8.08563 -0.0331018 2.62175e-25)
(8.30161 2.27577 -1.70813e-20)
(8.15267 4.08101 -3.38386e-22)
(8.16087 -2.23432 5.85811e-21)
(1.06502 16.7147 0)
(-3.78972 10.6444 -4.401e-20)
(-4.28229 -1.81967 0)
(9.86096 1.94483 6.02372e-22)
(-6.16169 -5.35186 6.53897e-20)
(12.9283 0.748967 7.19554e-21)
(7.51005 -1.54169 -5.63575e-22)
(-5.44872 -0.315422 -2.75105e-20)
(7.86833 -3.64813 1.34466e-21)
(6.2663 -2.06677 -9.04076e-21)
(6.54835 -0.612055 2.91268e-22)
(-0.412551 8.79746 3.54202e-20)
(5.82159 -2.57774 6.57958e-21)
(6.48831 -2.13905 9.43167e-21)
(-8.40465 11.836 5.04408e-20)
(2.77637 7.85957 -1.2537e-20)
(8.73912 -2.45212 1.05425e-21)
(-5.07273 3.59239 1.44757e-20)
(10.8654 0.202204 -6.31852e-23)
(-2.16697 -2.93635 1.111e-20)
(8.57582 1.56975 -3.88481e-21)
(11.0849 -0.966032 0)
(3.68159 -2.15067 -3.34633e-20)
(8.29206 -0.0260078 -1.10065e-20)
(7.93397 0.149189 0)
(9.7587 1.75035 0)
(-7.38359 12.9534 -6.9045e-20)
(12.8855 -0.149952 -1.18266e-20)
(9.19955 1.01993 -7.68067e-21)
(9.39738 -1.13923 -2.28713e-22)
(6.99009 2.49137 9.52598e-21)
(7.03871 -0.0258646 2.62426e-21)
(-5.76183 -5.18766 3.37592e-21)
(6.92247 1.34944 0)
(6.65102 -2.23607 8.63872e-21)
(-6.40845 3.18053 5.98198e-21)
(-5.26379 -0.64631 2.13213e-20)
(8.1895 -2.97232 6.39528e-22)
(11.1359 -4.90975 9.08344e-21)
(8.02983 -0.0328276 1.43024e-21)
(7.9813 -1.58128 5.78625e-22)
(12.4514 -0.446878 1.5029e-20)
(-3.40957 -4.39455 -3.00034e-20)
(9.13624 0.96419 5.79485e-21)
(7.98361 -0.149667 4.22848e-21)
(5.61928 -1.63901 -8.67408e-21)
(8.2231 -0.573491 5.00554e-21)
(2.3597 -1.6701 0)
(8.92135 1.57865 7.77332e-21)
(8.07486 -0.118625 9.48985e-22)
(6.95479 -1.69323 -2.87685e-21)
(5.96984 4.15265 -6.43234e-21)
(8.59572 -2.43059 1.35933e-21)
(8.34604 -0.0156014 1.62353e-21)
(6.21458 -0.418856 -1.37592e-20)
(11.019 2.40746 0)
(7.46946 -1.3563 -1.12883e-21)
(8.52704 0.338918 6.75077e-21)
(10.9796 -1.34089 0)
(6.36785 -0.70417 7.55736e-21)
(9.55554 -0.571131 0)
(5.42647 3.93018 2.39125e-20)
(10.3957 -0.0334614 0)
(10.5917 -3.21779 0)
(8.95169 -0.172232 1.16049e-21)
(9.15736 0.749665 4.55285e-21)
(11.573 2.2708 -5.54359e-21)
(7.75451 0.040997 -5.54556e-21)
(5.751 2.26406 -6.28122e-21)
(7.99865 0.0566285 -2.66211e-21)
(7.96405 0.810909 0)
(-6.71603 4.55645 -9.9378e-21)
(9.58608 0.775006 -2.90354e-21)
(12.2264 -2.23081 -1.26765e-20)
(11.1756 -1.04042 0)
(9.6038 3.79385 -1.00199e-21)
(6.69061 4.30034 -1.1716e-21)
(11.0651 0.257501 -5.8908e-22)
(-4.07577 0.138584 0)
(-4.61331 0.900637 1.73003e-20)
(8.0302 0.358894 0)
(12.3582 -0.373711 -7.33121e-21)
(3.21341 -1.04092 0)
(2.95899 6.03809 0)
(15.5747 1.48461 0)
(10.1602 -3.24221 0)
(-4.62543 2.23439 -3.30662e-21)
(-6.81143 -1.79236 -5.82595e-21)
(8.04429 -0.453606 -6.51065e-21)
(-3.31644 6.75143 -8.05476e-20)
(6.17822 -2.63632 0)
(-12.5108 7.9937 -4.05886e-20)
(1.81366 -0.79413 -9.35318e-21)
(7.65007 -3.5271 0)
(6.97932 -2.47432 -8.2678e-21)
(6.93469 -1.04617 -1.8037e-22)
(8.56355 1.4796 1.02936e-20)
(13.743 -2.97333 -1.76771e-20)
(7.62282 0.0355681 0)
(11.0969 -2.28434 0)
(14.0104 4.79986 6.07769e-21)
(9.26299 -4.48662 8.50539e-22)
(6.90243 -0.61174 -5.65115e-22)
(-6.36194 10.8273 -3.93854e-21)
(7.99744 -0.0108535 4.37081e-22)
(8.75329 -0.300723 2.59618e-22)
(7.92468 0.304612 9.0858e-21)
(7.34516 -1.2455 4.66909e-22)
(8.87404 -2.11126 0)
(1.89449 0.612668 0)
(11.0573 0.119035 0)
(6.35973 0.098096 0)
(7.92499 -1.54555 3.08124e-21)
(11.761 0.722975 0)
(-4.67659 1.26923 3.8353e-20)
(2.30687 2.17155 -2.81735e-23)
(6.39118 -2.19244 -1.43639e-20)
(-2.03142 -2.55703 4.11096e-21)
(-7.67475 -2.67533 -1.65999e-20)
(-6.47469 1.93507 -2.0203e-20)
(8.884 0.070798 1.28016e-21)
(-4.21381 -4.04498 -1.94944e-20)
(7.2047 -1.24542 6.03254e-22)
(9.13934 -0.140041 0)
(10.3775 0.504357 0)
(2.6753 -5.40034 0)
(10.0532 -0.816031 -1.48361e-21)
(-0.616368 6.41876 0)
(6.96251 1.35243 0)
(7.99913 -0.00389901 0)
(8.18882 -1.89548 2.60435e-21)
(8.16266 0.471355 -1.00855e-20)
(6.7537 0.0618239 0)
(14.5159 -1.80473 -1.95579e-20)
(7.83213 0.264406 -7.65819e-21)
(8.11593 3.1986 1.47774e-20)
(7.68288 -3.46307 2.972e-21)
(7.15504 1.63365 1.23655e-22)
(10.9791 -7.1624 -1.26098e-21)
(8.27681 -2.12192 1.71056e-21)
(11.6019 -3.70242 -9.46636e-21)
(9.05476 0.79969 -6.11117e-21)
(6.8388 -0.568153 -1.28584e-21)
(7.68155 -0.169955 -7.52796e-21)
(8.41402 -0.00990033 0)
(7.65431 6.62028 -7.56695e-21)
(7.96646 -0.107444 8.06352e-21)
(-1.9715 5.89524 9.00462e-21)
(9.39772 -0.665625 -2.87724e-23)
(5.33949 -1.53463 -1.5087e-20)
(9.12157 0.680424 1.02013e-21)
(11.2163 4.02077 2.78454e-21)
(7.97572 0.0852332 0)
(4.55796 -2.63912 -1.87708e-21)
(7.8631 -0.670794 -5.53193e-22)
(11.6088 -3.65174 1.79035e-20)
(8.21509 -3.2741 -1.28403e-19)
(8.33533 -0.047334 3.42348e-21)
(11.1363 -0.258979 1.42421e-22)
(10.1052 0.182435 2.98638e-22)
(11.0473 0.255214 0)
(0.179525 -0.309317 0)
(7.24217 -3.39582 4.84761e-21)
(2.58229 -1.81641 2.74881e-20)
(6.97676 0.156396 -1.14334e-23)
(8.01094 -0.0970214 1.58565e-20)
(5.1116 -2.78966 5.63555e-21)
(6.32815 0.0370292 0)
(7.59854 -0.20857 0)
(7.45502 -1.7755 -2.32899e-22)
(8.91747 -0.0896994 1.70681e-21)
(7.23022 1.55879 1.52481e-20)
(8.36599 0.482011 0)
(9.73169 -0.0888572 0)
(10.1034 -2.00491 -7.53017e-21)
(8.68742 -0.603111 3.41001e-21)
(3.77147 -4.26871 -2.25717e-20)
(10.2588 -0.693545 0)
(-1.98265 5.88209 1.05826e-20)
(14.28 0.0411297 -4.76581e-21)
(-3.87851 0.0579085 -1.45555e-20)
(8.4597 -0.191282 -6.57826e-21)
(15.0393 -0.747005 0)
(13.0685 -0.137011 9.35624e-21)
(-3.57399 0.129532 -1.07657e-20)
(2.5676 -2.02071 0)
(6.49535 0.00999299 -1.19654e-21)
(7.83076 -0.0687459 -5.46567e-21)
(7.02188 0.0657553 -8.20327e-25)
(7.36282 1.38276 9.35536e-22)
(5.57677 5.48198 3.99127e-22)
(8.60535 0.0484571 0)
(5.36646 -2.17228 -1.89033e-22)
(4.11896 -2.68978 -5.19255e-21)
(-4.06553 -1.29267 -2.61581e-20)
(7.89003 0.718667 7.42056e-21)
(0.731834 16.4972 4.58495e-20)
(8.29286 0.00656244 -1.55681e-20)
(7.13663 -1.10488 -6.44609e-23)
(7.82252 -1.93145 1.04708e-21)
(8.06177 -1.78495 0)
(7.94777 -0.0490294 -3.73636e-21)
(5.68476 -2.63209 5.28214e-21)
(9.10929 0.0020928 -2.56414e-21)
(8.05812 -0.0983707 -7.09381e-21)
(12.2835 -0.474481 6.71526e-21)
(7.46378 -1.0283 1.448e-20)
(10.5883 0.169385 4.04379e-23)
(7.50851 -0.149786 4.54907e-21)
(6.4034 -0.932317 -1.09312e-21)
(12.9436 0.230742 -1.47772e-20)
(7.84377 3.35435 1.17617e-20)
(-4.35284 3.5877 7.7616e-21)
(8.20749 0.030789 0)
(5.07234 -5.13296 0)
(17.4631 4.58831 0)
(6.34786 -2.07652 1.13054e-20)
(8.14254 0.0314366 -1.12395e-20)
(7.38978 0.144944 0)
(7.11134 -1.72679 -8.05218e-21)
(7.40247 0.0756596 0)
(7.91336 -1.37944 -5.0853e-21)
(12.4197 -2.22936 -1.53375e-20)
(8.73911 -1.97519 -1.44962e-21)
(8.70471 0.0404389 0)
(8.04202 -0.172305 0)
(10.6702 -1.24779 4.56558e-21)
(9.61682 1.59727 -1.6152e-22)
(11.2572 0.260191 5.10273e-21)
(6.83649 4.58298 -4.38602e-22)
(7.94554 1.00698 0)
(8.2493 -2.89429 -9.40003e-22)
(-0.650364 -1.15453 0)
(4.1845 1.41914 -9.81642e-21)
(8.19237 4.0413 0)
(11.1049 -0.128157 -2.17739e-22)
(5.66926 -1.36234 5.67534e-21)
(6.96501 -1.10693 5.10841e-21)
(9.51388 -0.755406 -3.91228e-21)
(3.55615 3.29241 -4.85953e-21)
(8.59715 -0.759102 8.55237e-21)
(7.90393 0.781604 -1.15588e-22)
(14.9734 0.283696 3.80968e-20)
(9.11609 -1.51717 -3.20134e-22)
(-1.51752 -2.94273 1.88872e-21)
(9.4368 2.29398 0)
(8.07599 -0.0546336 -1.6232e-23)
(7.25382 -1.94933 0)
(7.9024 -1.72559 -1.21968e-21)
(8.37491 -2.86578 -3.57265e-22)
(7.55613 -0.942999 -4.67313e-21)
(6.966 0.0888618 -1.00849e-23)
(10.5143 0.446952 -6.0489e-22)
(7.38183 -0.690547 1.07988e-20)
(9.03034 0.202596 -1.06753e-21)