/*--------------------------------*- C++ -*----------------------------------*\
| =========                 |                                                 |
| \\      /  F ield         | OpenFOAM: The Open Source CFD Toolbox           |
|  \\    /   O peration     | Version:  2306                                  |
|   \\  /    A nd           | Website:  www.openfoam.com                      |
|    \\/     M anipulation  |                                                 |
\*---------------------------------------------------------------------------*/
FoamFile
{
    version     2.0;
    format      ascii;
    arch        "LSB;label=32;scalar=64";
    class       volScalarField;
    location    "6.5";
    object      p;
}
// * * * * * * * * * * * * * * * * * * * * * * * * * * * * * * * * * * * * * //

dimensions      [0 2 -2 0 0 0 0];

internalField   nonuniform List<scalar> 
13486
(
2.51809
2.07137
0.0465658
-1.34255
0.774616
-0.180894
0.32212
1.38456
1.68722
1.01227
-9.0128
0.433674
2.64609
-0.1462
0.617202
1.10858
-5.02695
0.165538
0.594336
2.28404
-0.83285
2.61462
2.03302
-3.20968
0.959057
-2.90105
-5.26974
-1.22519
0.00258838
-1.16982
-0.493184
0.486428
-2.23753
-0.809359
1.38786
0.0114839
-0.0295593
2.0431
-0.179448
1.69226
0.137381
2.74884
0.0347905
0.952435
0.915599
0.410859
-4.19836
0.00325201
-0.0284483
-1.04204
1.52519
-0.198627
0.340227
2.07742
0.0994383
0.842662
0.0309876
-0.200859
-2.12807
-0.0461599
-10.7924
-0.0347719
-2.95496
-0.747899
-2.46605
-0.0281855
-1.75267
2.54086
1.67603
-0.0639595
-1.78323
0.120806
1.7099
-4.33167
-0.0200451
0.034353
-0.0172379
0.599103
-4.08573
-0.254666
0.00396186
2.10106
-2.97034
0.0615141
2.52696
1.0115
-0.10229
1.44914
1.72714
1.1131
0.369214
1.19354
2.40974
2.19133
1.75383
0.00370175
-5.35452
-2.51998
1.66486
-4.99087
0.0279406
-0.0531997
-2.53465
-0.1948
1.19703
-4.97241
1.7234
-0.185925
-4.31385
1.06932
1.61505
0.393138
2.07594
0.0427979
2.96179
1.69526
0.964519
-0.752337
1.7246
-0.0191693
0.163626
-10.2903
1.83651
-0.185126
1.61074
-0.18653
1.18721
0.476492
-0.661886
-1.64227
-0.181262
-3.96347
-5.16163
-3.76603
1.59581
1.44345
2.96684
1.11619
-0.0176018
1.42995
-1.72786
0.333438
0.494449
-0.26505
0.0372127
-4.13848
-0.0181924
1.832
-1.13288
0.00160077
1.04614
0.558022
0.00495824
2.14248
0.565767
0.0391318
0.867537
-0.0683086
1.84676
-0.948034
-0.753303
1.84747
0.287673
2.74038
-0.202907
-0.426735
0.0940792
3.38192
-0.0183547
-3.77923
-5.26476
0.579697
1.23674
0.889578
0.00174291
-7.30027
-0.325783
-1.96982
1.72491
0.505833
1.58169
0.0430463
0.72186
-6.74397
0.0730454
-1.21135
0.00115575
-1.05502
0.213254
1.78442
-0.0217811
0.0465361
-0.23114
2.23021
-0.265394
-8.63886
-1.79664
-0.7995
2.25442
-0.341886
-0.537781
0.452264
2.04761
0.605827
-0.764952
-0.274858
0.123676
1.85026
-0.218432
0.0794257
-1.14043
-2.36892
2.25572
1.72397
-0.176827
-0.581924
-1.21436
1.14068
2.28089
-2.10469
-5.01373
-1.15618
1.46905
-0.810584
0.258431
2.44882
-0.476439
-2.04512
-0.456771
-0.111047
1.56263
-0.321368
-1.80864
2.80287
-1.77296
2.34995
-0.902742
0.0464063
2.37437
0.757685
-2.30312
1.21437
0.0482727
2.23546
-0.17476
1.95933
0.792093
-1.87071
-3.82144
1.05874
-5.42013
2.99522
1.63498
-0.192071
-0.35098
-8.88373
0.473647
-0.554857
-0.0363753
-2.26573
1.90025
-0.171177
0.60813
-8.32145
0.870862
-6.8128
-0.468175
-0.700769
1.58256
0.13215
1.77483
1.69222
-1.25645
0.33566
2.45285
-1.73624
-0.354211
-0.240045
-0.205052
-0.00493427
-0.292004
1.3847
1.74229
-5.53211
-9.70481
-4.99196
-1.61982
-0.689376
0.249446
1.59994
-1.62777
-0.176676
1.75627
1.61075
-0.858112
-0.974777
-0.763254
0.305493
1.77262
0.242524
0.272817
0.128681
-0.0123663
0.513623
-0.0319557
0.637805
-0.349649
0.827914
-0.109661
-0.0234271
-3.73131
-1.24101
-0.0504648
0.398812
-10.0442
1.47394
-0.199254
1.73155
1.86113
-0.544479
-0.0265335
-0.14313
1.71376
2.20703
2.93626
0.391979
1.04324
1.35487
0.179852
0.961888
1.46066
1.13777
0.334088
2.37129
0.304569
1.65086
3.05656
0.598322
1.11812
-0.171932
-0.503731
2.18752
0.924051
0.739347
-7.60179
0.00289187
1.11366
2.95051
-2.13219
-0.184783
1.08063
0.232943
0.317496
-5.51743
1.76007
-0.0103209
-4.44154
1.16107
-0.125387
-2.20564
0.609336
0.342366
1.92253
1.69644
-1.21842
0.00270237
-0.931333
-4.04819
2.30853
1.17478
0.0284327
1.13393
0.230875
-6.24488
-0.0826906
1.55811
1.75606
-0.16786
-9.59738
-3.13841
1.56303
1.10123
2.66281
1.87106
-4.16458
-0.378613
0.17639
1.09174
-4.90444
-0.288675
2.21813
-1.34243
0.803495
2.39503
2.51516
-0.0082022
-1.47951
-5.96104
-5.00573
-1.7229
-4.95419
0.582842
1.48488
-0.417413
0.366449
0.0295964
2.15949
-1.93655
1.19475
1.96454
1.06433
-0.931196
-1.41935
1.77751
1.7396
2.15574
-6.71924
0.898149
-5.39387
0.782611
1.72576
0.247885
2.96069
1.16625
-0.615083
-1.00753
0.445882
1.74104
-5.24759
0.201058
2.59375
1.49052
0.785206
0.218636
0.70473
-1.98709
2.65392
-0.170903
0.934203
2.50125
-5.158
-1.26596
-3.69767
-1.45392
-0.227945
1.99297
2.04769
2.6095
-3.28305
-0.024263
-7.81744
1.13934
1.76137
-1.02384
-1.16499
1.7174
-4.96626
-7.48711
-6.17834
-4.07163
0.0719751
2.11902
0.00176658
0.225118
-0.943812
1.66587
0.00385007
3.22439
2.43498
1.70505
1.3302
0.0127728
0.00178743
3.03913
-0.407581
-0.0146046
-0.60592
1.66675
-5.0057
0.287013
1.26291
-0.0142114
-0.603253
2.01436
-1.92387
-5.01847
1.1744
-0.321064
3.37052
1.19517
1.54159
1.86207
-7.68454
0.13293
2.769
0.774134
2.21513
0.302507
0.551223
-0.822913
-0.257535
0.0317583
-4.92295
1.79362
1.65599
-5.5884
0.00162024
-0.243294
2.53641
1.99814
-0.376662
1.68865
1.21597
-0.558385
0.878988
1.56451
-5.32817
2.62304
0.00368216
-0.0589409
2.7277
1.11515
-0.00455211
1.10046
-1.03955
-4.28838
0.685011
1.01763
1.86408
2.41488
-6.39839
0.697051
-6.36966
0.00323112
2.34515
0.54646
-6.79993
-2.81757
0.251157
-0.0373746
1.3327
-2.29402
-1.10643
1.69419
2.34582
-0.165217
1.88929
-3.90416
-6.85171
-1.49632
0.779041
-7.91079
1.85803
0.107585
-11.3578
1.41204
1.97381
-2.36914
-6.45174
1.54636
2.35253
0.638025
2.54068
0.12117
1.20758
0.470805
1.8849
0.0401541
2.28772
-5.41556
0.558747
1.60501
-0.614078
-1.64617
1.70959
-5.18432
0.320465
2.01552
2.61028
-1.01306
-0.014259
0.572276
0.284052
1.48657
1.30991
0.48844
-6.52959
0.0913948
2.4932
0.351764
0.259133
-5.32919
2.62721
-0.788187
0.0447731
1.6835
1.30847
-0.263771
-0.26585
1.41105
0.136619
-0.0661957
0.738709
-1.47733
2.54594
1.65281
1.16278
1.19665
0.161287
-1.60163
2.86586
0.588749
2.86981
-1.75774
1.61275
0.00914786
-4.39777
0.973353
1.05152
3.0014
-4.85857
1.05287
1.00313
-2.29217
1.01584
0.163618
-0.475771
1.62942
-6.53883
-1.55337
-2.09735
-0.0707978
-0.67966
1.84734
0.00249739
2.78298
1.66843
-0.645546
-6.56893
-1.12653
0.62882
-9.2693
-0.189454
-4.94601
2.33052
0.00108179
0.0389829
-11.1178
2.66835
0.00252628
0.257664
2.72444
1.54451
-6.69669
-0.168731
1.16822
0.216642
1.593
0.0458279
-1.57133
0.72382
1.51909
0.581343
1.36242
2.76417
0.0448487
-4.91302
1.70872
0.263593
-0.25441
1.11853
1.3221
0.83251
-6.63406
0.108695
-0.161109
0.213233
2.34143
0.601452
0.161145
0.0757876
0.0372944
-0.298474
1.77598
-0.221844
1.55605
1.58163
2.37392
0.180596
-1.00329
2.85011
0.0218736
-4.75546
1.76623
-1.95334
1.94819
0.0348336
1.68174
-0.417726
-3.983
-2.83516
0.00196709
-5.01647
0.993011
2.93121
-0.675327
-4.06616
-0.555469
1.81671
0.0958255
0.834758
-11.5457
2.91121
-6.60978
0.880582
-1.11233
1.06909
1.7411
0.782894
-2.86856
-0.560197
2.6973
1.75746
0.660219
1.48356
0.0118384
1.29538
1.30958
1.07204
-3.69178
-0.35495
2.13771
0.338139
-0.213153
1.37336
-4.294
-0.647184
-0.138127
1.82653
1.85108
-3.25286
0.0987853
-6.40286
-0.642529
0.14439
-0.658638
0.344831
1.67625
0.0454218
-1.2906
1.95469
-0.0599647
-1.19743
-0.0765611
-0.715525
-3.19224
-2.5293
-0.159014
-10.2651
1.58093
2.64315
-0.0112041
-1.1714
2.73181
2.56104
-0.911995
-1.76014
1.72048
-4.78648
0.0391932
0.079996
0.165827
0.885297
-5.01268
0.867264
1.21695
-0.628891
-0.443335
-2.67094
-0.144435
1.42503
0.877345
1.07176
-4.03401
1.54481
2.50737
-5.4943
-9.68346
1.87401
0.526896
1.11716
-0.174999
-1.11905
-4.30363
-0.0992287
1.75587
2.8779
1.85237
0.15086
-0.084422
1.7173
2.4422
-0.231476
1.78287
1.68043
2.58085
0.365684
-0.147191
0.326484
-0.529145
2.56412
0.110363
0.0164283
1.13757
-0.35618
0.416838
-0.0754281
-1.59218
1.66033
1.35301
1.24741
0.898406
-2.43328
-0.367019
-0.607563
0.893442
-1.58085
-0.618933
0.0375672
-11.1206
-11.8359
0.974853
-1.12095
-3.79069
-2.71479
-0.806692
1.20925
-7.67806
-6.90792
1.90238
-1.21326
2.62003
-1.9893
-3.86293
1.98102
2.36076
-0.0175173
0.199879
0.307221
1.78623
0.903129
-2.57926
-0.255152
-0.0334327
-0.39206
1.68994
0.0396931
1.07399
-0.149629
1.67034
-5.211
0.0438627
-0.0110456
2.03938
-1.43083
-9.584
-5.36525
2.5944
0.118351
-4.98149
-8.7541
1.6815
-5.54502
-0.151928
0.392643
0.759549
0.0223064
1.1207
-2.24144
1.48373
1.7058
1.93612
0.8537
-0.0783106
-0.770347
1.35209
-0.398823
2.01141
1.26314
-0.261939
-0.194034
-0.400901
-0.0328607
-0.0272379
1.94093
0.765547
0.291191
1.71442
0.145975
1.31553
2.96981
-0.0741309
-1.98226
1.23399
-0.00585817
-0.139057
-0.426898
-0.923766
1.67412
0.0458387
0.0223133
0.0397971
0.195761
2.14636
-6.49492
0.0035007
1.72054
0.00386036
2.43293
1.96778
2.24048
0.426775
1.17194
0.529332
0.0231878
1.21844
1.63585
-0.424149
-0.623694
-2.56333
-1.16822
-10.6527
1.67093
-3.74005
-2.8412
-10.4219
-0.386607
-0.0138781
1.73836
0.00320881
0.354048
-3.89673
1.74921
2.92661
0.0165373
-9.97824
1.0393
-0.0263029
1.62074
-0.815506
-0.176754
2.01353
-0.214699
2.77269
1.13866
1.70931
-1.08301
2.19033
0.0373606
1.97979
0.00140935
-2.38394
-0.309909
-5.23061
1.1093
-0.0315319
-0.256783
2.61127
1.74434
1.8749
2.37748
1.90696
2.03483
-0.591981
1.73415
1.75998
1.75834
-0.546465
-0.477277
-1.19503
-1.21851
0.452528
1.87263
-3.98864
2.56365
-1.29961
0.046405
2.85854
2.4147
-0.615026
-3.86467
1.68126
0.96823
-0.0139285
1.55433
-3.83715
-0.579063
1.70694
2.32083
-0.17468
1.84101
2.169
0.00240677
-0.725389
2.18995
0.74457
-0.025308
-6.86457
0.0541732
-1.54329
1.63355
1.30037
-0.0749747
-0.159329
-1.38319
0.454795
-0.117219
0.407247
2.48258
-0.170838
3.16586
1.68253
0.573977
1.8982
-6.82568
-4.50309
-5.12817
1.67103
-0.176911
-3.59523
-0.472669
0.916967
1.08907
-0.169514
1.15742
-4.40189
0.826345
0.125691
-0.165255
1.32754
0.536593
2.17547
1.75483
1.82572
1.60217
-0.624096
-1.92864
-1.40701
0.0917484
-1.3396
-0.052375
1.30157
-0.866008
-0.0748007
-0.0861188
0.246461
-12.0752
1.16645
0.914124
-0.635605
-1.46888
0.797248
-1.08655
-2.03994
0.26363
-0.0368323
1.83748
1.32371
2.14915
-3.72988
1.58064
0.0421598
2.35448
-0.0047557
0.975348
0.180995
-0.145646
2.72452
2.8414
1.38322
0.865709
1.23028
1.51404
2.7533
1.10885
-2.01946
-11.1373
0.346158
-1.19775
-2.25394
1.73875
1.61358
0.016656
0.369669
1.37646
1.5132
2.99411
-4.2453
1.40114
-5.07489
-0.155603
2.43829
-0.41886
1.36871
-0.582478
0.704207
0.663293
3.1176
-0.201852
-1.22074
0.934998
0.282507
-7.74948
-3.8653
0.182077
1.91781
-1.22539
0.873185
2.55859
2.36433
-0.289454
-2.72552
-0.25833
0.402029
1.95827
1.57731
2.32912
1.01673
-8.99173
2.44536
1.49998
-2.36881
1.25534
1.77771
2.10504
-9.6479
-0.455932
0.00134688
1.49954
2.68677
0.885208
0.238505
-1.55825
3.00761
-6.35397
-1.68305
2.80192
1.54125
0.0969618
1.31479
-1.59876
0.889211
-0.997689
-6.63526
-0.162076
-6.05389
0.133421
-0.740216
-4.97825
-5.01249
-2.75955
0.0526189
-4.96484
-5.6024
1.43324
1.62017
0.831163
-4.37759
0.454517
0.368706
-0.634885
3.15084
1.0659
-1.24628
1.54042
-0.94539
-6.53153
1.34682
1.3353
1.61115
3.18826
0.00531656
-0.408588
-3.36897
0.082691
1.10316
1.6215
-0.568551
2.47258
1.27576
1.81475
-0.836572
-0.250768
0.0422538
1.71874
1.72112
1.78262
1.72722
2.94577
2.87519
-0.974796
1.54848
2.16261
-1.20474
2.32134
-0.141099
2.84129
2.29915
0.132016
1.95044
0.926808
1.24412
-0.0307756
1.77133
-1.83987
1.44447
0.566917
1.08874
-0.18663
1.62066
-0.109833
0.445475
2.74531
2.73947
1.08379
-3.76039
0.412122
0.00197501
-0.373931
1.45149
2.45393
-3.73628
1.76265
1.5838
0.813728
1.70804
-9.20852
-0.584639
-0.0844246
2.99748
0.467237
-0.321617
1.99542
-0.193682
0.0412589
0.932846
0.344961
1.36126
0.608271
-1.09111
0.995167
1.3128
1.06365
1.21766
2.9027
2.3911
2.07995
2.00651
2.68658
0.767829
-0.154375
0.110828
-1.50633
2.71445
-0.869322
1.66119
1.48065
-6.95053
0.83905
1.86307
-3.6929
0.83009
1.17854
3.22462
-5.58282
0.739861
0.0737733
1.90448
0.0367453
-1.78415
2.66873
2.27057
1.59984
1.66198
-1.08688
0.740289
-4.92116
2.86908
0.0112016
3.09589
-0.256611
0.225046
-4.67116
0.84589
-4.27288
0.327739
-0.2149
0.689665
-0.0832731
0.661777
-2.30681
0.00147722
-0.657586
-3.69903
-1.18255
-2.66187
-0.0827628
-0.286601
-0.757162
-10.2259
1.69468
1.72896
2.20656
1.70854
0.673633
0.654553
3.37605
1.61899
-5.1861
0.00245242
-0.0898589
1.37156
1.45789
2.47801
-1.51849
-1.53837
1.33394
0.00242864
0.436832
2.15103
-3.81436
-7.55948
-4.99016
2.90197
-2.47922
1.15128
2.14599
-0.32651
1.29728
-0.0927478
-6.43794
-5.99115
-0.474875
1.21603
1.98204
2.10663
-2.74047
-3.77416
1.05992
-4.24731
-1.23043
-0.631473
0.364559
-0.981022
-0.133783
-2.8361
-5.70577
-2.89667
2.57136
-0.933725
2.81742
-8.246
-0.365057
0.627869
0.101934
2.37281
1.62192
2.04584
-0.0400937
-1.00385
-6.86676
2.28188
-3.67018
1.30762
-0.150522
2.10078
2.37122
-0.151461
1.66858
2.69838
1.82622
1.81363
-2.8282
-0.167727
0.692666
-1.83676
-0.209567
0.971143
1.15464
0.0417086
-7.67912
0.40534
-0.130565
1.4303
1.20307
-1.1773
2.83171
0.0703321
0.00170849
0.250603
1.6968
-1.62711
0.00613032
1.80469
-0.757599
0.0130455
-0.319706
1.75435
1.70196
1.63141
-0.14727
1.64041
1.97039
1.87647
-0.927603
0.0474336
0.491567
1.42382
-1.5181
-5.37717
-4.39203
-2.04558
-1.57636
0.0386267
-0.201772
0.0406461
-3.90003
-1.14437
-12.9688
-0.183801
-1.08589
0.720434
-6.90921
1.81988
3.3998
0.687339
-0.63514
0.858143
0.298687
0.412576
0.0242977
-1.15758
-9.60724
0.139328
2.20574
0.00307704
2.64971
0.0297967
1.62777
1.34053
0.73085
-4.94527
0.923023
2.94399
-0.766249
1.72717
1.66633
2.46666
0.142072
2.26087
1.78212
-4.52101
1.90097
-5.58533
-5.2439
2.31172
1.54306
-2.50386
0.202821
2.19178
0.090745
-3.65588
0.0401744
0.0419193
1.39364
0.993205
1.74915
1.54301
1.40973
-3.15612
-1.21096
-0.872179
1.71461
3.09221
-1.30484
-5.62896
-4.92348
1.65677
0.10103
0.11358
0.670402
0.17213
1.27011
-0.344138
0.403957
2.62487
0.840797
0.141977
-0.601891
-3.56378
-2.05515
-5.0945
-2.79022
-7.8836
2.04778
0.98977
-1.39361
2.73148
0.00213353
-7.20827
-0.71699
-5.44077
1.79486
-3.69185
0.653616
1.64995
-0.141734
-0.94739
-0.224051
-5.25626
-1.48406
1.8824
-12.4635
-0.11654
-4.95737
1.66749
1.80826
-2.64435
2.12835
1.95403
2.54783
2.62845
1.84959
0.294299
3.00043
-4.98942
1.6052
0.256424
-10.7626
2.09151
-3.76059
2.5919
0.889261
-1.77612
-4.9146
-3.59393
1.84438
-4.41903
-1.28692
-0.0157552
-1.03416
0.141455
1.12914
0.382227
1.18574
2.89908
-3.89921
-2.78573
-0.684356
1.72254
1.36364
-1.9974
3.36292
-0.14742
-0.107321
1.20125
-1.57306
1.66057
1.70482
1.91608
1.93057
0.161995
0.867988
1.58857
0.371956
-0.394085
-0.00043472
1.79612
1.88598
2.30396
-0.518454
0.0353781
0.811463
1.10853
0.317983
-7.49178
1.46707
-0.745336
1.52656
1.77411
-5.01328
2.64187
-3.34247
2.89297
1.8938
-12.6621
0.0053955
-0.0249465
0.814637
1.81913
-11.5791
2.26916
1.65474
0.807812
0.037171
0.337913
-0.243042
0.806724
-5.00635
0.988889
-1.26403
1.68397
-5.50603
-0.11558
-0.836529
2.10302
2.39315
0.976231
-5.43287
0.917105
-0.298378
0.0427583
1.02997
-0.352438
-0.44019
2.8143
-0.725482
-0.0575336
-1.76604
-5.83757
-0.20261
1.76681
-5.01311
-0.678351
1.81335
1.04005
1.82094
-5.19629
0.760648
2.85755
-3.10321
1.69344
0.527825
-0.296832
0.673088
0.387136
-0.933274
2.91083
1.90375
0.00574333
2.83763
2.17361
2.09553
-4.30538
-5.43682
1.03052
-1.92881
-0.176725
-3.49813
-1.64888
-3.2581
1.2954
0.646653
0.968219
1.08522
-0.321931
1.22462
1.73094
-7.40297
1.73206
1.13597
1.71544
-0.298827
-0.0134548
-2.72056
-5.15398
-4.5215
-0.792717
1.71484
-11.5107
2.56268
-6.75979
1.66802
0.986343
-0.0951334
0.221151
1.71173
0.882004
0.485619
1.48177
0.320652
0.144055
2.42205
2.05968
-2.15818
-4.96167
-0.0661927
1.55267
0.115852
0.703561
-2.70097
0.0882313
-0.357901
-0.368334
1.4358
1.37573
0.217741
0.875793
0.0647218
-0.102085
-11.5967
2.12115
-3.29751
1.61707
0.00339622
1.51111
1.77455
1.0489
1.53225
-0.012446
-2.33983
-0.1519
-5.15198
-4.19899
-2.96225
0.0962622
-0.255599
1.42078
-0.0106701
1.68853
-0.174369
0.151493
-2.4699
-0.135889
1.73842
-5.92265
1.61478
0.436572
-8.83386
-0.2184
-3.58227
1.17338
1.80876
-0.103961
0.330307
-4.55073
1.95346
0.0697196
0.515875
-7.49532
2.10977
0.82162
0.00381453
1.80403
1.7159
2.02404
0.457622
2.13038
-3.26916
-0.360486
-0.296356
1.59521
1.16232
0.462209
0.100487
-5.38729
-9.30233
0.883315
0.0253139
-10.8671
2.66069
-3.08
1.98546
1.18297
-1.32493
-0.161768
-1.13445
-0.24221
0.283975
0.270723
1.63506
-0.137817
1.71804
-2.55202
0.630095
-0.42927
0.406203
-6.03972
2.07624
2.86292
1.84851
0.89572
0.273947
1.21664
-5.23212
0.0208001
-0.16717
-0.358849
-2.54844
-13.0947
-6.71018
-1.33932
1.46332
1.6258
-3.25351
0.435311
1.92481
-1.08226
-2.29962
1.84747
-0.163882
-9.24112
0.035312
-0.308018
0.0042575
2.71069
-0.181149
1.58235
-1.55546
-1.02273
-1.04643
1.61208
0.431283
1.35104
-1.16566
-1.46218
-0.771138
0.276255
1.97436
1.44946
0.398343
-0.184086
-0.849236
2.96685
-0.508443
1.8888
2.07326
0.0769984
-0.202521
0.771
-5.01408
-0.809517
1.53154
1.07798
1.59904
-5.39244
1.87066
0.296985
2.42143
0.292656
1.55205
2.13271
1.46717
0.361881
-6.73946
0.64158
-5.10109
1.4146
0.866542
2.01704
0.227402
2.53915
0.309951
2.70582
0.0708805
2.09831
-0.14254
1.23236
-7.14113
1.65729
0.79665
0.817267
2.56399
1.71073
0.438977
-1.1745
0.948863
1.64071
-0.130217
-5.00605
1.20087
-1.36009
2.18302
-2.81897
2.58686
0.517304
3.40732
2.62916
1.19061
1.04647
-7.99002
0.174524
2.78171
-0.0141737
-0.0127869
-0.31535
2.78057
0.945086
1.40799
2.39088
-1.09089
1.82221
-0.657308
1.97929
0.0378169
1.86764
1.6922
2.30702
-0.156384
-3.60929
0.501684
-3.87691
0.767523
0.191166
-0.271295
2.20988
2.43596
0.0223715
0.499506
-0.597686
2.176
1.35554
1.51336
1.12672
-0.241106
-5.09129
-1.04288
1.76166
-2.55472
-0.0525449
0.288603
1.15094
0.796701
-1.16102
2.9418
-0.277997
2.56214
0.428816
2.65776
-1.14689
0.400039
-0.0723661
0.0418919
1.39446
1.69435
0.208346
-0.0212979
0.073297
-0.096245
2.41641
-0.405787
0.0780285
-0.322573
0.0103912
0.510757
2.03416
0.751059
-0.505187
0.00949384
1.70674
3.10104
-4.06086
-0.939999
1.60488
0.0608755
0.946304
-0.163164
1.15588
-0.000379225
-4.657
-0.210863
-0.748307
-0.365388
-0.0273668
-3.58815
-4.067
0.114054
1.38121
1.78267
1.52313
3.01491
-10.7005
2.76864
-4.57281
2.62706
-11.8592
-1.2614
2.91485
0.793238
-1.66723
1.67539
-0.162911
1.81151
-0.432116
-4.97267
0.298866
-1.32595
-1.66425
0.00215797
-0.371153
0.76745
2.06871
-11.8421
0.839443
-2.50481
0.44387
-0.29434
-0.125133
0.287372
-0.362581
-2.05062
2.26269
-0.0640575
2.46815
0.648435
-5.79319
0.685971
-1.26951
-0.064351
1.50556
2.09351
3.04007
1.34791
1.50387
0.746147
-3.87293
2.94099
3.11624
1.87142
-0.957369
-5.22887
-5.22154
1.52643
1.05861
0.610915
1.48457
-0.561735
-0.0948544
-7.75778
2.55502
0.207479
0.278688
-2.06016
1.58633
0.53312
3.32483
3.13223
1.4653
0.325573
0.43304
-3.78219
0.797792
3.20668
0.106604
-0.0532483
1.19708
0.00832302
0.366719
-0.198055
-0.43947
0.36342
0.286024
0.774597
0.003097
0.634674
2.33394
0.45342
1.77229
-2.42879
-0.552806
2.81889
-4.65699
0.341124
0.366717
0.830554
0.448174
-2.97448
0.270133
-0.568737
0.310749
3.35064
-4.86731
-3.30027
-4.33478
-0.861582
0.054965
0.36287
-2.31319
-3.20295
0.00416781
-2.96866
-1.17178
-1.77737
0.440745
-0.321689
0.23184
3.28025
0.269122
0.502053
-0.3583
0.426863
-3.66725
-0.821334
2.33795
1.66432
0.512477
0.0100645
1.56485
1.788
0.0597084
-12.1826
-0.188932
2.33308
-1.2039
1.61871
0.131827
2.56523
0.22231
-2.85017
0.193671
1.84519
-1.16025
1.55604
-1.09857
3.16887
-2.08832
-0.355099
-8.0902
0.893104
-3.11105
-1.38418
-2.29341
0.188794
0.70056
-6.20499
-0.404742
-0.268333
0.359075
-2.03347
-1.20302
1.3319
-5.08795
1.42697
-2.55792
1.86291
2.92324
1.54035
-3.71007
1.66606
0.146122
0.351183
-0.299991
-0.617595
-4.99297
-0.195251
-0.981743
0.678678
0.0922235
-0.865058
-0.206555
-6.9922
0.854682
1.74271
-1.38573
-3.35064
-0.489079
-0.00476174
-0.0149419
0.968039
-2.70511
-3.64225
1.77155
-0.227024
0.910886
-1.91214
-7.97669
-6.99713
-11.1153
3.2814
0.534281
-1.51185
0.641608
2.7685
2.82554
-3.33865
-0.678771
1.70311
-0.0909529
-0.165126
2.83703
0.927224
1.44992
3.34032
-0.352313
0.431324
0.348438
2.52736
1.77006
1.71015
2.164
1.27046
0.0330046
0.0445285
0.879532
0.42065
-5.09981
2.8858
-0.558316
-0.718049
0.00402056
-1.85809
0.811002
-2.09034
-0.751654
0.433255
1.72709
1.84929
1.90206
-5.15377
2.50249
2.81112
-3.48997
1.04054
-0.243746
-0.105286
0.344055
1.08007
-0.244864
-1.09393
-0.824916
3.1051
-5.53619
1.92097
1.68536
2.20644
1.22748
1.30175
-0.0164067
0.0292842
0.943523
-0.198409
-5.77533
-2.37331
0.0172581
-1.72404
2.06038
-5.64568
-0.0954398
0.461864
-3.66663
-2.67517
-5.03789
1.47693
-0.659761
-0.134659
0.877774
-5.42782
0.600022
-3.28196
-0.245297
1.81935
-6.54422
2.88771
0.000889687
3.06128
0.00300433
-0.159722
0.221499
1.5338
1.40694
-3.13692
-0.334924
-0.196425
0.194912
1.15195
3.34333
2.21374
0.541161
-1.13971
0.859006
0.119242
1.905
-0.0578959
1.09044
-1.18151
-2.08658
-3.62934
0.556867
0.0318305
-3.6931
1.18639
1.05315
2.77119
2.98832
-5.05789
-5.00537
0.211937
-1.44489
2.88802
0.037921
-0.484635
0.830916
1.29522
-1.08502
0.0550074
0.215073
-0.157275
1.50812
-0.691047
0.438317
0.0257972
-1.12344
-2.79063
-0.334681
-2.86076
-2.57882
1.83755
-3.8456
-2.45956
-0.740068
0.185365
3.15025
1.20785
1.62597
-0.849511
0.845818
-0.0143968
0.667863
0.610315
-2.30046
-5.31299
2.87938
1.79117
0.0640735
-4.21017
3.25893
-2.91214
-5.50086
-1.01257
0.818923
-3.4041
-1.04837
2.51194
-0.0264378
1.52144
0.774316
-1.42655
0.225215
-0.12718
0.830314
-3.09172
0.104461
0.640255
1.63067
-3.85538
-5.27894
0.04211
-1.07094
-1.67048
-1.55996
3.07971
1.19424
-11.4903
0.771593
0.521684
2.70432
0.921651
-5.16676
0.974465
2.15102
1.80818
-1.36952
1.55386
-0.0325013
2.85567
0.029425
1.77067
-7.3345
-1.25187
-0.00149602
-1.55478
0.959447
0.6766
-5.04959
-4.02995
1.96699
-0.0315987
-0.0784652
2.35184
1.39962
2.29051
1.62016
-1.52154
0.0182288
0.140785
1.63876
0.00220994
2.06681
1.27376
2.83302
-1.90839
2.23062
0.797026
2.8825
-1.31021
-1.02847
2.9328
-2.07924
1.24534
-5.67051
2.52001
2.8375
1.83507
-2.38489
1.71058
2.16331
-1.86823
0.860483
-2.43642
2.31071
-2.31503
-0.408977
-4.96123
-4.91958
2.12435
0.774769
-4.90197
0.864524
2.83065
-0.639385
-0.119358
-4.90464
-1.3536
1.3842
-0.399958
1.6493
1.55158
-4.57985
3.15969
-0.204756
2.4316
2.36782
-0.474357
-0.0122953
1.45999
-2.29304
-0.551989
1.44584
1.23343
-0.489967
1.55797
-1.00199
2.53455
1.86704
0.654382
-0.0569933
1.84731
-0.421259
1.13731
2.21193
0.364364
0.00591865
2.14257
1.77388
-1.15351
-3.82984
1.24938
1.85987
2.8513
-4.55496
3.00954
2.97992
3.05709
-0.144355
2.0839
-7.75664
1.71356
2.2432
2.21657
1.84126
2.4562
3.32075
1.53087
-4.87644
0.105442
-5.30308
3.2921
0.895601
-0.0619596
-3.11668
1.66251
2.51998
1.5598
0.584492
-0.314236
2.48685
-3.16739
1.77414
-3.36521
0.865133
-0.104725
0.475512
1.07864
-7.08864
-7.23593
-0.24613
-1.01458
-0.0596699
2.04307
-0.222573
0.198823
1.54331
-6.28743
1.00788
-0.00387528
-5.57935
-6.83566
-5.10397
2.34969
2.54972
-2.59043
0.830143
2.17295
2.04923
0.0234875
-8.52462
1.81758
-5.0188
2.32746
-4.91289
2.26687
1.16754
0.342098
2.12668
1.10328
2.19709
0.619155
0.886147
-1.15177
-3.74467
-7.55613
-0.196798
2.15609
-9.03926
-1.59057
-7.62424
2.45958
2.1707
0.730546
1.21938
2.44459
-2.50984
1.5764
-0.0731324
-1.19109
1.5704
-2.87622
-5.32549
-1.45182
-5.13509
-0.746393
-12.5405
-0.0901675
-5.51355
-3.90385
1.35211
2.89218
3.14527
2.74438
-10.2636
1.79478
-7.77378
1.53203
2.45655
0.363947
2.11679
-6.427
0.609038
-1.2146
-0.041816
2.30417
-0.979808
1.88439
-5.08767
-0.336523
-5.10966
1.95273
1.86848
1.71621
-6.24184
1.56305
-0.338132
-4.88015
-4.92172
0.565717
2.89862
-2.95753
-0.820471
-3.68939
1.60425
1.65665
-0.194272
1.14033
-5.88234
2.48036
2.30459
-1.29
-0.264355
2.39945
-2.84344
-11.7592
0.0936958
2.20783
2.46838
-7.04886
1.1609
-0.0688972
2.84509
-5.06843
-2.84457
-0.0668695
2.66091
0.0735652
-1.14244
-0.10279
2.2837
1.40238
2.26897
-0.122163
-2.71676
1.84597
3.25817
-3.85494
1.48523
0.0266169
-4.07754
0.0578232
0.628258
-3.84769
1.1323
-1.04878
1.18813
-0.549118
-1.81648
2.07678
2.48778
1.55259
-2.1524
-2.57838
1.92917
-5.4173
0.588869
-1.13025
0.825051
-6.25119
1.8831
1.93257
0.0137679
1.81233
2.79789
-0.609643
1.33799
1.92039
-4.95255
1.13441
-0.63461
0.817201
0.563114
1.40045
0.00513876
0.590334
-0.555301
-2.7164
2.3366
0.628053
0.291158
-3.2717
-0.505666
1.76266
-6.30279
3.04437
-5.73864
-5.13051
-0.227592
2.16083
1.88077
2.23262
-4.7712
2.69317
-8.96816
1.29532
0.119964
-4.83152
1.61163
0.766608
-0.629036
1.11882
-5.34553
1.43112
-5.03102
-3.34206
0.00788007
-4.25475
-4.63572
1.47086
2.76353
-0.143751
-7.90643
2.14354
-2.96851
2.50884
0.725531
0.131274
1.0901
1.73362
0.866285
-0.242638
0.0802625
0.0387658
0.545355
0.741113
-5.76259
-3.79172
0.0374442
0.955276
0.00226584
3.30813
1.78785
1.70639
2.53655
0.399086
1.90613
-5.23649
-3.57615
-5.02963
1.7238
3.2344
1.5399
-1.12864
2.3393
1.5569
1.58131
-0.15333
0.0263871
0.888417
3.05923
0.00295308
-1.77326
2.32106
2.38865
1.75159
1.64246
2.03474
1.16115
-0.46434
-8.32309
1.82223
-4.28895
-3.66631
1.64239
-6.3309
-0.0849528
0.500729
1.80116
1.87149
1.89867
-0.00340903
2.22706
2.28187
0.377359
1.9974
1.73554
1.5295
1.39421
1.10309
0.84755
-0.20436
2.1489
1.98383
0.160707
1.50397
-0.0288327
-0.0751236
2.74188
2.06181
0.0118004
-8.19314
0.199332
2.12577
1.16732
0.540673
-0.111343
0.19273
-1.33989
0.323377
-5.07031
-0.243351
1.20252
-0.439644
-5.35859
-6.22831
2.58709
-3.71343
-4.83378
-6.11136
2.78148
-0.483187
0.427556
0.468932
-4.94265
1.43527
1.62568
1.0192
2.43877
1.3183
0.103512
-5.16248
-7.83427
0.0246552
2.00159
0.194763
-7.24438
-4.74283
-1.07501
-5.16084
-5.36052
-3.08173
-0.50307
0.730759
1.69431
2.17017
-0.811676
-0.0848421
2.44792
1.86503
-6.94274
-0.0371909
-5.22876
1.00013
0.140628
0.916949
1.49206
0.00626532
-0.605031
-0.914074
0.575929
-9.39006
-5.0766
0.0523163
-7.97009
-5.2007
-5.01891
-7.4888
0.0805261
-4.75135
0.845884
-6.81133
1.70242
1.54748
0.450857
2.18746
-11.9209
2.77779
-1.53696
0.173753
-1.34531
1.64536
1.00347
-3.77
-4.17172
1.75485
2.07571
2.88011
-8.40786
-5.17981
-11.2555
-0.450585
0.00750133
-5.70206
0.560777
-5.04898
0.975511
-7.66976
1.2502
0.119032
-0.25492
2.53305
1.45904
-0.898534
-0.0550762
-1.9741
-4.81408
2.23543
3.14682
-4.9471
2.03981
1.54655
0.00190234
-0.343562
2.13069
2.06699
-3.14707
-0.382766
-5.67421
-12.5202
-1.22503
-5.21361
-1.03016
1.22581
-0.0145712
1.89454
-7.21786
-5.0689
1.62549
-1.08944
-4.92324
0.200963
1.39459
-4.8894
-0.650746
-4.83793
-5.78542
-4.97648
2.92333
-4.054
-0.20665
-8.46856
1.82572
-5.04911
-0.0821777
-3.12485
-10.8377
-1.17732
1.88022
0.00514476
-5.38404
1.43234
0.0159596
-2.02997
-5.21265
-6.52069
1.15804
1.34704
1.7147
-3.23049
2.49943
-1.39469
0.00343111
-0.61057
-2.52094
-9.00377
-5.92067
-4.99316
0.412014
0.808898
-0.13635
-0.240618
-1.8912
1.54483
-12.7398
1.79999
-7.58853
1.14672
-0.732257
-0.237682
0.120654
3.24922
-0.397765
-4.90696
-2.72895
-2.02555
1.72092
-0.204968
0.140921
0.0180224
-4.25093
-8.16497
-3.92531
-5.10529
1.81365
-6.58978
0.317141
-4.44743
-0.0171698
1.43745
-0.421204
0.710207
-0.667465
2.18892
-5.07763
-3.31358
2.34653
0.669597
-5.04543
-0.265203
-6.16231
-1.83554
-0.40258
2.1403
-3.81882
0.840842
-5.03879
-5.43685
-8.46086
-7.20346
-5.33282
0.953161
-0.523602
1.68129
0.770549
-9.96116
-0.321676
-10.4852
2.10483
2.47832
-4.9228
0.271484
1.78733
1.69887
1.28672
-4.36775
-4.81665
-4.23858
1.7283
0.587319
-2.25222
-6.49697
0.92131
2.0433
-0.171677
0.157616
0.183352
2.31817
-1.77539
-1.90786
-0.0898876
1.50797
0.312388
0.0976499
2.51547
2.10425
-0.154119
-8.10942
2.11123
0.942491
-0.0077201
1.52245
-1.16091
-4.81481
-4.6885
-6.83844
2.08102
1.76888
-0.347571
-1.16548
0.0574902
-0.0659364
1.81119
-9.38009
1.23424
2.20464
2.36445
-1.13853
1.68008
1.44908
1.84268
1.95701
-0.0648343
1.96782
0.00253501
1.72291
1.06578
1.83287
-7.05242
2.11567
2.00255
1.56834
1.21438
-2.98191
1.15312
-0.313078
-1.5698
2.25876
2.31081
-8.20731
1.98566
-5.71138
-4.06593
1.79452
1.81466
-3.02912
-0.0712114
-5.17439
-8.71519
-1.09107
-2.74536
-3.34497
-0.30917
1.50608
3.05035
2.10074
-0.960396
-1.34937
1.76076
0.980114
-0.481345
-5.21322
-2.52746
-1.84407
-4.10089
-3.74453
1.65156
0.0340426
0.930954
0.0251979
0.0245315
0.052812
0.0262646
0.42384
0.828122
1.27892
-1.44648
0.754592
-2.58338
-13.1673
1.14428
1.02154
-0.269392
0.0428853
1.23092
-0.15345
0.78311
-1.32199
1.68625
1.36913
2.66183
1.71327
-4.62893
-0.33718
-1.18511
-2.17639
-0.101177
-0.0855338
-0.409788
-7.88375
3.1056
0.0450395
0.0552589
2.47233
-3.90362
-0.8446
-0.328246
-7.2933
-4.72371
0.44409
-1.5397
1.60838
-0.563293
-4.16938
0.154817
-1.77865
-1.4175
-0.384973
-0.0208255
1.39027
-2.30065
-2.97612
-1.6661
0.663957
-2.00642
1.81402
2.53915
-2.11122
1.84962
0.928178
1.29901
2.80656
-4.54614
1.12375
0.879612
0.869861
2.39509
-0.260476
-0.44635
-0.318884
1.7772
2.53672
-3.81092
-0.0855694
-2.66891
-1.92777
0.972695
-3.37401
-2.5818
-2.76715
0.792044
-4.90714
0.390496
0.554091
1.5368
0.30569
-4.77265
-0.00553633
-0.158598
-0.304645
2.70802
3.03475
2.24515
3.20533
1.57882
0.970711
1.8754
1.61617
1.63985
-2.75902
1.70291
-0.334572
-4.03781
2.48319
-0.57406
-1.81968
2.91737
0.135215
-11.6356
0.997113
0.871851
2.07126
-2.35634
1.61522
2.71786
-4.0915
-4.10174
-2.16452
1.16753
-7.09786
2.14515
-0.121591
2.08587
1.70945
-3.19737
1.95303
-0.978796
-5.2262
-5.06364
-6.96609
2.0114
-2.13245
1.76992
-0.18066
-5.45209
-0.0125462
-0.00963518
-1.27329
-3.35353
-4.5965
2.04441
0.441606
-4.96351
-0.543252
1.19991
0.458419
-9.50426
0.934308
-0.193733
0.943084
-4.90397
1.11026
0.555327
0.981702
-0.327129
1.55673
1.02223
0.625855
-5.16295
3.18549
-1.3608
-4.82202
1.55886
1.36607
-5.03411
-1.75364
-6.46926
1.01665
0.865933
-1.84824
-0.0881108
-0.296269
3.17547
0.0492038
-4.10046
-0.0269014
-1.17469
1.12495
-0.658212
1.51869
1.19167
-6.62045