/*--------------------------------*- C++ -*----------------------------------*\
| =========                 |                                                 |
| \\      /  F ield         | OpenFOAM: The Open Source CFD Toolbox           |
|  \\    /   O peration     | Version:  2306                                  |
|   \\  /    A nd           | Website:  www.openfoam.com                      |
|    \\/     M anipulation  |                                                 |
\*---------------------------------------------------------------------------*/
FoamFile
{
    version     2.0;
    format      ascii;
    arch        "LSB;label=32;scalar=64";
    class       volVectorField;
    location    "6.5";
    object      U;
}
// * * * * * * * * * * * * * * * * * * * * * * * * * * * * * * * * * * * * * //

dimensions      [0 1 -1 0 0 0 0];

internalField   nonuniform List<vector> 
13486
(
(1.38883 -0.201447 6.12566e-19)
(1.64716 0.309464 2.94765e-19)
(2.60412 0.0438903 0)
(-0.724931 0.193807 -4.54764e-19)
(2.27931 -0.516327 1.88112e-19)
(2.48269 0.152317 1.74927e-20)
(2.48238 -0.418424 2.60458e-21)
(1.93275 -0.702276 -3.16113e-19)
(1.89018 -0.362741 0)
(2.0067 0.790276 0)
(-0.947393 2.27214 -1.51108e-18)
(2.53219 -0.0735237 0)
(1.22464 -0.38411 -6.04556e-19)
(2.4851 0.776946 2.21126e-20)
(2.38488 -0.360771 1.01572e-19)
(1.96163 0.782824 -1.86554e-19)
(0.4194 -0.142607 7.95305e-19)
(1.03534 -0.475228 8.03006e-20)
(2.22825 -0.0150641 2.99565e-21)
(1.58205 -0.0339115 -6.24242e-19)
(-0.505298 -0.356398 -1.4293e-19)
(1.24487 -0.398666 7.79657e-19)
(1.67124 0.306061 -2.35635e-19)
(3.35231 -0.922333 0)
(2.05746 0.637055 6.22781e-20)
(3.26108 -0.877831 -2.61361e-19)
(-0.0385868 0.140433 9.61108e-19)
(2.7596 -0.172595 5.4595e-19)
(2.03922 0.0611437 0)
(2.5602 -0.413946 -3.55311e-19)
(-0.0454833 -0.842697 -7.00766e-20)
(2.4697 -0.26438 -1.35047e-19)
(3.179 -0.211897 4.70471e-19)
(2.14473 -0.0959125 0)
(1.94175 -0.675728 0)
(1.78286 0.0055352 -7.84926e-22)
(1.80585 0.181344 -1.25391e-20)
(1.41948 -0.668474 3.08432e-19)
(1.70562 -0.10498 -1.39137e-20)
(1.92665 -0.221026 3.09084e-19)
(2.33108 -0.781924 0)
(0.818613 -0.404594 -7.01634e-19)
(1.99806 -0.00266898 0)
(2.06987 0.526816 -2.97559e-19)
(2.09037 0.525024 1.22488e-19)
(2.53287 -0.0714555 9.2672e-20)
(-0.696304 0.450648 1.36538e-18)
(2.02785 0.0602206 -4.90021e-22)
(1.81562 0.172273 9.63112e-21)
(2.77651 -0.019717 2.22693e-19)
(1.99968 0.0324966 3.63243e-19)
(1.78591 -0.0182763 0)
(2.56643 -0.159718 -1.31649e-19)
(1.57502 -0.57719 -4.50868e-19)
(1.06094 -0.593346 0)
(2.24895 -0.522278 -1.27599e-19)
(2.17138 0.317094 -5.25595e-21)
(1.77131 -0.0487517 -5.83425e-20)
(3.15939 -0.19038 5.52861e-19)
(1.75327 0.326064 0)
(-1.03559 1.88609 -2.02853e-18)
(1.76345 0.320963 0)
(3.60257 0.356511 -4.4374e-19)
(-0.437789 -0.395314 -1.43487e-21)
(1.88689 -2.25269 0)
(1.80665 0.206114 -5.88913e-21)
(-0.951338 0.24417 -5.45087e-19)
(1.38409 0.0852054 2.08419e-19)
(1.8901 -0.385897 -1.77309e-19)
(1.71849 0.0070346 1.02694e-20)
(-0.921086 0.282873 6.25397e-19)
(1.07088 -0.557059 3.15514e-21)
(1.95083 -0.106638 2.29778e-19)
(-1.0374 0.111585 -6.13199e-19)
(1.83521 0.257832 -1.17672e-21)
(2.18489 0.309114 1.39495e-21)
(1.84815 0.247551 1.99894e-21)
(2.38775 -0.379431 -4.12645e-20)
(-0.589789 1.16826 -6.89622e-19)
(1.77859 -0.460487 0)
(2.0081 0.0117392 1.12898e-21)
(1.59062 0.415006 -1.87368e-20)
(3.68004 0.325807 4.5135e-21)
(2.71334 0.0614824 -4.40582e-21)
(1.37966 -0.213635 -1.1989e-18)
(1.32537 1.74256 0)
(1.59058 -0.342486 -2.38511e-20)
(2.00247 0.0483328 -5.47775e-19)
(1.8609 0.234513 -2.40153e-19)
(1.85471 1.06176 -2.04609e-19)
(2.53975 -0.24379 -7.60856e-20)
(2.0615 -0.600578 -1.64127e-19)
(1.44199 -0.296803 1.57805e-19)
(1.62955 0.105713 1.63144e-20)
(1.77912 -0.544357 7.20286e-20)
(2.02033 0.051495 2.48546e-22)
(-0.174547 0.343207 0)
(-1.38553 0.14975 4.15513e-19)
(1.94476 -0.220015 -5.89959e-19)
(0.536334 -0.187414 -2.0922e-21)
(1.95034 0.0145926 0)
(2.45071 0.771834 4.64864e-21)
(-1.4272 0.0481897 3.66122e-20)
(1.76396 -0.0380634 6.82391e-20)
(1.29831 1.69194 0)
(0.579933 -0.146337 -1.60564e-21)
(1.96719 0.0721838 7.18635e-22)
(1.71003 -0.136663 -3.18868e-20)
(-0.653933 0.960882 9.40631e-19)
(1.70883 -0.777058 0)
(1.20534 -0.580737 0)
(2.48667 -0.325791 -1.20886e-19)
(1.58236 -0.557303 3.3998e-21)
(2.18407 0.183869 7.25095e-22)
(1.01496 -0.023293 0)
(1.15447 -0.572615 -2.694e-19)
(2.05354 0.653312 0)
(2.24681 -0.074976 0)
(1.94413 -0.107425 0)
(1.85151 0.137288 -4.42261e-21)
(1.07584 -0.455507 -3.44934e-20)
(-1.33964 2.02083 0)
(1.75122 -0.484282 0)
(1.70796 -0.114492 4.47419e-20)
(1.83084 -0.645998 0)
(1.77514 -0.0139879 0)
(2.17018 -0.25213 6.70291e-21)
(2.21076 0.0763281 1.09074e-19)
(1.90724 -0.0389318 -5.07783e-20)
(1.90148 -1.71057 -1.84837e-19)
(1.77734 -0.00261124 -6.89338e-21)
(-0.810439 0.228596 -3.34402e-19)
(0.729727 0.525133 1.16257e-18)
(-0.341301 0.238532 7.62058e-19)
(1.99895 0.0171798 -5.94328e-20)
(1.9011 0.444129 -2.73365e-19)
(0.587661 0.786324 -1.69882e-19)
(1.73402 -0.774338 0)
(1.85781 0.129881 1.19103e-21)
(1.95666 -0.556129 -1.13307e-19)
(3.01759 -0.03848 -4.8346e-19)
(2.55968 -0.168316 1.10629e-19)
(2.48449 -0.198565 0)
(1.79968 -0.442229 0)
(2.09843 0.00483923 2.79692e-21)
(4.19189 0.194467 -1.03709e-18)
(2.23875 -0.11751 2.31284e-21)
(0.229083 1.77819 0)
(2.78463 -0.0109281 0)
(2.04218 0.0568774 0)
(2.01203 0.0230395 5.53242e-21)
(2.38866 -0.440754 0)
(2.00378 0.00606611 -1.18513e-21)
(1.56713 0.414063 -1.59247e-19)
(2.20678 0.329168 0)
(2.72992 0.0663037 0)
(1.51996 -0.694345 0)
(-0.0290754 -0.0368403 1.09594e-20)
(1.68179 -0.674634 6.41427e-19)
(2.03765 0.907946 -2.72095e-19)
(2.6569 0.00570279 1.27125e-19)
(1.6894 -0.653686 -9.73793e-19)
(2.36981 -0.277614 4.34913e-20)
(0.726526 -0.345261 3.08164e-19)
(1.78397 -0.0282279 0)
(2.59569 0.760298 -7.35679e-20)
(2.39775 0.707971 1.96112e-20)
(0.363771 -0.0835566 -7.35758e-19)
(2.23676 -0.0800322 -6.87961e-21)
(-0.355388 0.249691 2.06087e-19)
(0.521273 0.454992 1.73528e-20)
(2.2008 0.302362 9.38973e-20)
(1.99779 0.0930815 -4.45424e-19)
(2.31449 -0.208548 1.01047e-20)
(1.99593 0.0293828 2.00848e-22)
(-1.43688 -0.949841 0)
(2.47392 1.12055 7.46932e-20)
(3.13796 0.0031268 6.5577e-19)
(1.97543 0.0658507 -5.89876e-19)
(2.484 -0.183679 0)
(1.96883 -0.267912 6.22502e-19)
(2.18739 0.170521 1.52969e-21)
(2.38656 -0.202428 -4.43183e-21)
(-2.2319 1.26386 0)
(2.68921 0.00947246 1.133e-20)
(2.58396 -0.163483 -2.4746e-19)
(2.07562 0.0538198 -3.78974e-22)
(2.53236 -0.269006 -1.07534e-19)
(2.37594 -0.769902 0)
(1.0333 -0.499713 -3.46408e-19)
(1.83863 0.164508 0)
(2.37121 0.040369 0)
(1.79647 -0.0941408 0)
(1.26802 0.896417 -3.28372e-19)
(1.83159 -0.127393 0)
(-1.33709 2.35066 -4.21607e-19)
(1.8272 -1.92631 4.19248e-19)
(2.54128 -0.00928521 7.20826e-20)
(1.04233 -0.515397 -1.3396e-19)
(2.56974 0.718867 -2.94639e-20)
(-0.0782742 -0.888319 6.93318e-20)
(2.22208 0.0953702 -3.24459e-21)
(1.30077 -0.629837 -3.56404e-19)
(1.5997 -0.699327 5.12425e-20)
(2.005 0.948912 3.28553e-19)
(1.84496 -0.119235 -5.31987e-20)
(0.834379 -0.560681 2.63474e-20)
(1.88164 -0.0378547 4.72516e-19)
(1.78548 -0.0958971 0)
(2.69306 0.0285238 0)
(2.7354 -0.177559 3.80258e-19)
(2.88712 -1.23211 4.32353e-19)
(1.60214 -0.0174131 5.71348e-19)
(1.96164 0.0708884 7.18104e-22)
(2.48193 0.197463 -2.0151e-20)
(2.0331 -0.637542 3.4763e-20)
(2.60844 -0.367815 0)
(1.84987 1.04545 5.20348e-19)
(1.52827 -0.323395 0)
(3.22737 0.715947 0)
(0.572682 -0.144754 -1.52696e-18)
(2.81254 0.0189168 0)
(1.93867 -0.54917 2.63432e-19)
(2.64808 0.0232246 0)
(2.59877 -0.179079 -2.13678e-20)
(1.20158 -0.564795 2.17759e-19)
(2.61705 0.346519 -5.8398e-21)
(-0.541314 -1.59713 1.17524e-19)
(2.00157 -0.421099 4.98086e-21)
(1.65472 -0.332313 -7.77349e-22)
(1.98026 -0.260682 -1.99941e-19)
(1.23163 -0.205805 8.50467e-20)
(3.05101 -0.0776501 6.06058e-19)
(0.838745 -0.404025 2.4003e-19)
(-1.05049 -0.491988 0)
(1.01436 -0.494302 2.57353e-20)
(2.41615 -0.209468 1.79905e-19)
(2.38071 0.0252935 -3.24099e-21)
(0.883563 -0.427647 6.96534e-19)
(2.37859 -0.127454 0)
(3.21352 -0.248872 0)
(2.00434 0.0691653 6.79897e-19)
(2.23866 0.116348 0)
(0.891427 -0.443189 2.32376e-19)
(1.62161 -0.150722 -2.9896e-20)
(1.79512 0.0919547 0)
(2.26734 -0.021988 -4.3696e-20)
(2.87378 -0.686022 7.26545e-19)
(-0.282193 -0.12304 1.27913e-18)
(2.03291 0.503442 0)
(-2.30341 0.602934 -3.17664e-19)
(0.977365 0.00734958 8.82621e-20)
(0.969833 -0.476885 3.4065e-19)
(1.71477 -0.146613 0)
(1.90274 -0.396641 3.63573e-20)
(-1.43028 -0.920822 2.9826e-19)
(2.47512 -0.262275 1.09498e-19)
(1.999 -0.651996 -4.39926e-20)
(-0.0304026 0.00210556 -1.14672e-20)
(3.18635 -0.251045 3.90276e-19)
(1.76893 0.251537 0)
(1.61504 -0.134737 4.90191e-22)
(2.3872 -0.369027 -2.38992e-19)
(-1.57092 -0.607507 -3.72244e-19)
(2.1742 -0.715678 -1.96127e-19)
(-2.17007 1.32028 0)
(2.02148 -0.408765 -8.96687e-20)
(-0.300454 -0.807464 -1.2608e-19)
(2.11162 -0.0110581 -2.64868e-19)
(1.33581 -0.361025 0)
(1.52844 0.972587 2.33616e-19)
(1.97015 0.0733735 -1.60239e-19)
(2.63053 -0.384962 0)
(2.57484 -0.111577 7.39597e-20)
(1.13046 -0.543897 2.88512e-19)
(2.79591 -0.669564 -4.05123e-19)
(1.9079 -0.365671 0)
(1.2488 -0.960858 0)
(1.72974 -0.177412 -3.4662e-20)
(2.32885 -0.123105 -1.98413e-21)
(1.25939 -1.01916 7.05766e-20)
(2.10378 -0.179386 -2.25748e-19)
(1.9353 0.0948168 3.48668e-19)
(4.27713 -0.659042 -7.71059e-19)
(-1.78004 1.9772 2.31151e-18)
(0.199262 0.0120612 1.52879e-18)
(3.00949 0.0369641 5.00993e-19)
(1.84607 -0.055963 6.65917e-20)
(2.68202 -0.17802 3.10694e-20)
(2.09403 -0.00470025 0)
(-0.990771 -0.349097 0)
(1.42964 0.141875 3.4048e-20)
(1.1881 -0.574447 2.64325e-19)
(1.99724 0.0244979 -5.84956e-20)
(2.43431 -0.198959 1.6657e-19)
(2.47504 -0.241913 0)
(2.05564 -0.0389453 -1.65466e-19)
(2.58767 -0.0925134 -5.55016e-20)
(1.92549 0.0804409 -3.1994e-19)
(2.48306 -0.5384 5.71031e-20)
(1.94833 -0.24666 -5.37474e-20)
(0.881755 -0.561063 3.4167e-21)
(2.37957 -0.0859856 1.70709e-21)
(2.45668 -0.266782 1.28382e-19)
(1.82326 0.126578 2.86344e-21)
(1.30989 -0.601093 0)
(0.472152 -0.0764355 0)
(2.23695 -0.040663 8.93261e-20)
(1.61947 -0.357321 2.07237e-20)
(1.82955 0.172522 0)
(1.93912 1.31976 -1.39189e-18)
(-0.646476 0.23312 0)
(2.37003 1.09811 2.60146e-22)
(2.49155 -0.32291 -1.23607e-19)
(2.60716 0.888186 0)
(1.88947 0.435684 -1.68156e-19)
(1.37422 0.187575 -5.0187e-20)
(1.8601 0.220215 -2.05589e-20)
(1.87496 -0.0306225 -5.20437e-19)
(2.08307 -0.415001 0)
(1.81855 0.199624 1.06098e-20)
(1.52738 0.0622272 -1.89801e-21)
(1.98565 0.0630744 7.45047e-20)
(1.61525 0.15279 -3.05464e-19)
(0.693667 0.761006 3.1638e-19)
(2.52409 -0.250364 1.437e-19)
(2.2024 -0.366124 -6.20435e-19)
(2.11903 -0.179011 0)
(2.64398 -0.0668104 2.0522e-21)
(2.23669 -0.376892 -1.1189e-19)
(2.00082 0.0338364 7.94242e-19)
(2.08798 -0.604806 0)
(2.53888 -0.255133 -3.23791e-20)
(1.41864 0.416081 0)
(2.48429 -0.426266 -1.62107e-19)
(1.85399 -0.508989 -1.96005e-19)
(0.632357 -0.293309 2.85705e-19)
(2.36872 -0.456162 -1.59427e-19)
(2.02413 0.202282 0)
(1.58103 -0.140254 -4.77931e-20)
(2.05371 -0.421981 9.78846e-20)
(1.6259 0.162469 2.88439e-19)
(2.25103 -0.383999 4.3916e-19)
(2.37699 -0.204096 2.06962e-19)
(-2.65057 1.459 -1.32006e-18)
(2.02866 0.0546591 3.06656e-23)
(2.22271 -0.191956 0)
(0.955228 -0.318948 6.89872e-19)
(3.24103 0.681488 0)
(1.40206 0.0833208 4.03287e-21)
(2.25648 -0.105623 3.70986e-19)
(2.62149 -0.0875538 -4.99008e-20)
(2.5788 -0.110219 5.52196e-20)
(-0.42945 0.521625 -1.16601e-18)
(1.93375 0.0791292 3.99494e-19)
(1.96503 0.0186195 0)
(-0.734525 0.343647 -5.79804e-19)
(2.1824 -0.257886 -1.31662e-19)
(1.64138 -0.343809 -1.39881e-20)
(2.79109 -1.15997 3.70925e-19)
(2.46564 -0.0158792 0)
(2.58923 -0.237683 9.26044e-20)
(1.78359 0.178507 6.17686e-19)
(1.96575 0.0829674 4.8723e-19)
(2.58642 -0.428582 0)
(2.00182 0.00197982 -3.37698e-22)
(2.48378 -0.233631 -1.68976e-19)
(-1.19129 -0.468933 2.32849e-19)
(1.5611 -0.0314322 7.93793e-20)
(2.18476 -0.220017 1.25168e-19)
(2.0404 0.00717619 -1.85283e-21)
(2.21619 -0.178892 0)
(2.59321 -0.188021 -7.13704e-20)
(-2.45404 0.694104 3.72959e-19)
(2.46839 0.409689 2.19911e-20)
(1.99759 0.0309456 3.06719e-19)
(1.37969 0.0291784 0)
(1.4916 -0.0379925 -5.76538e-20)
(2.81735 0.720345 0)
(3.44077 1.2286 -3.18815e-19)
(2.11882 -0.0306144 0)
(2.07805 -0.693037 -6.44622e-21)
(1.29422 -0.0937785 -1.69061e-19)
(1.51529 0.900697 5.62658e-19)
(-1.10792 -0.116954 -7.84729e-19)
(1.9373 -0.361915 0)
(2.39252 0.0611422 -5.54174e-20)
(2.03065 0.210692 -1.76214e-19)
(0.946194 -0.411264 -4.90986e-19)
(0.00355866 -0.495256 7.36803e-21)
(1.62931 -0.0326484 -8.62361e-19)
(2.68971 -0.34188 1.80196e-19)
(2.10145 0.20324 1.22056e-19)
(1.40768 -0.419795 0)
(1.34148 0.347787 3.27819e-19)
(1.88179 0.135401 -2.02082e-21)
(-0.812883 0.243793 2.71681e-19)
(-2.45494 0.740048 -1.22404e-18)
(1.02166 -0.266114 -9.76195e-19)
(3.03586 0.019987 0)
(1.05466 -0.366099 0)
(2.03644 1.22695 0)
(2.09601 -0.0732822 0)
(0.702871 -0.156797 -5.12029e-20)
(2.46956 -0.400505 0)
(1.56654 -0.24638 0)
(1.64788 0.122933 1.1874e-19)
(3.12112 0.0175674 -6.79773e-19)
(2.19362 -0.167738 -3.0319e-19)
(1.69192 0.356613 1.00302e-18)
(2.00624 0.0238648 -9.05966e-20)
(2.38977 1.77328 0)
(2.76218 -0.291579 0)
(1.91755 0.0842743 3.41517e-19)
(2.02221 0.0530297 6.06194e-20)
(1.28283 0.952741 0)
(-2.20177 1.1753 1.28195e-18)
(2.15715 -0.729557 2.20727e-19)
(-0.182133 0.0761035 0)
(2.37297 -0.129853 2.04641e-19)
(1.97121 0.0666291 -3.95202e-19)
(0.502342 -0.0936684 -4.47787e-20)
(0.950454 -0.303801 0)
(2.01369 0.215867 3.31102e-19)
(2.64741 0.184611 0)
(2.51691 -0.263003 0)
(2.23387 0.205025 -1.49712e-20)
(1.93058 0.100998 1.82964e-19)
(0.027009 0.113743 -1.24481e-18)
(2.35337 0.700154 2.18937e-20)
(1.2924 -0.309454 -2.99466e-19)
(2.10318 -0.0619402 3.9287e-20)
(2.10502 0.197155 9.47593e-20)
(2.70952 -0.190601 1.73607e-19)
(2.24881 -0.712762 0)
(2.95219 -0.586231 3.74219e-19)
(1.30343 -0.0256196 0)
(1.45546 0.0641736 3.08174e-20)
(2.29588 -0.214346 0)
(1.40824 0.098293 4.41078e-19)
(-0.507089 -0.125921 -1.39315e-18)
(2.65351 -0.329044 0)
(-0.2022 0.227914 3.43071e-20)
(2.76531 -0.318755 -4.04906e-19)
(1.70827 -0.469936 -6.0574e-20)
(1.7533 -0.246919 8.16398e-19)
(1.40547 0.888328 -3.54241e-19)
(1.2844 -0.299622 -8.51645e-19)
(3.58763 1.18778 0)
(1.84191 0.139281 5.37727e-21)
(-2.59644 1.52154 -3.34379e-18)
(2.01915 0.224267 0)
(1.84003 0.246933 2.23848e-20)
(2.87116 -0.0430508 -4.69529e-20)
(2.78457 1.16387 0)
(2.00357 0.0197659 0)
(-1.95757 0.851161 0)
(-1.32657 -1.20955 1.22987e-18)
(4.33842 -0.826906 9.33721e-19)
(3.83058 0.237425 4.8372e-20)
(2.33369 1.05085 0)
(1.69047 -0.151906 5.56954e-19)
(1.98957 0.0298625 -4.90035e-22)
(2.34809 0.644977 -3.88419e-20)
(-0.549761 -0.129871 2.8037e-19)
(1.90747 0.177622 0)
(2.03006 0.059262 0)
(0.682015 -0.0752918 -4.66611e-19)
(1.3819 -0.411548 -2.09465e-19)
(1.93873 -0.172614 0)
(1.24455 -0.604759 -2.53989e-19)
(1.99057 0.0190711 1.41747e-21)
(2.02124 0.0473015 -2.40756e-22)
(0.714287 -0.327378 0)
(1.9057 -0.0377652 6.59425e-20)
(1.86537 0.128632 2.98987e-21)
(2.64357 0.164921 1.30163e-19)
(1.83598 -0.527118 0)
(0.240313 -0.0497624 -2.30789e-18)
(2.60022 -0.0945244 6.05266e-20)
(2.00319 0.0977282 7.05007e-20)
(1.92077 0.0278687 1.91265e-21)
(2.66538 0.741244 0)
(1.66504 0.350757 -2.67222e-19)
(3.1692 0.457387 -2.4964e-19)
(0.866443 -0.186776 2.03542e-19)
(2.00928 0.0565908 0)
(-0.0366112 -0.52503 -7.51791e-21)
(0.410126 -0.0505475 0)
(2.00632 0.0529688 -2.7187e-19)
(1.9908 0.0762051 1.20774e-19)
(1.86958 0.0629325 -6.67709e-20)
(-1.65529 -0.937341 0)
(2.31523 0.0324707 -1.59924e-20)
(1.05891 0.506377 8.92333e-19)
(2.22023 -0.707702 0)
(1.61509 0.107724 3.70467e-19)
(2.45788 -0.549654 -6.49844e-20)
(2.20714 -0.0155022 0)
(-0.343176 -0.896395 7.29291e-20)
(1.79064 -0.422711 -6.30691e-20)
(2.05674 0.0029319 0)
(0.428201 -0.125757 1.46079e-18)
(1.82874 0.233884 0)
(1.64461 -0.752604 2.60422e-19)
(-2.33619 0.423852 7.0982e-19)
(2.07543 0.060682 3.8813e-22)
(2.50514 0.158092 -5.66871e-20)
(1.33151 0.32862 1.73743e-19)
(1.74235 -0.272688 -3.01012e-19)
(1.93869 -0.329782 -3.98413e-20)
(1.68654 -0.76156 2.78261e-21)
(2.16729 -0.223356 1.21741e-19)
(2.65361 0.747647 1.55451e-19)
(1.77447 -0.791138 0)
(1.99681 0.0263318 -2.71981e-19)
(0.177849 0.178155 -6.05616e-19)
(1.32851 -0.0388558 0)
(1.91285 0.178505 3.48919e-22)
(1.67264 0.00331049 0)
(1.17509 -0.323344 7.35201e-19)
(2.04562 -0.756293 0)
(1.84168 0.00181688 -1.23618e-21)
(2.26075 -0.0994368 -2.11295e-19)
(-0.327378 -1.14855 1.34338e-19)
(-1.87507 0.78696 9.18089e-19)
(2.35895 -0.0205924 -1.80294e-21)
(1.2735 -0.603759 2.26074e-19)
(1.73678 -0.478426 2.88951e-19)
(1.43504 -0.300958 0)
(-1.32817 0.888815 -7.60017e-19)
(2.27106 -0.655435 -4.5981e-20)
(-1.48606 1.1099 -9.11937e-19)
(2.02322 0.0519138 1.76545e-22)
(1.40378 -0.541533 0)
(2.23762 -0.0203339 -1.32264e-21)
(-2.2354 1.25949 0)
(-1.53194 -0.012462 3.69068e-20)
(0.60278 -0.163497 5.70524e-20)
(-0.034205 0.00597043 0)
(2.02153 -0.518067 8.38162e-20)
(1.82389 -2.18607 0)
(2.79986 1.07209 0)
(1.41823 -0.672076 -3.43469e-19)
(1.4477 0.384137 2.6623e-19)
(1.65646 -0.518008 0)
(1.7931 0.204515 -1.69223e-19)
(3.8041 0.31843 1.09024e-18)
(-2.54009 0.839507 1.85671e-18)
(2.78678 1.45131 0)
(2.18415 -0.0456478 0)
(-2.52158 1.66165 -1.49974e-18)
(1.86676 -0.0979938 0)
(2.70709 0.0375952 0)
(-1.11453 1.74912 -5.29592e-20)
(2.02531 -0.372047 -4.02255e-19)
(1.71515 -0.397134 2.49725e-19)
(3.21289 -0.33124 5.64475e-20)
(-1.58242 1.12245 1.66603e-18)
(1.99176 0.0647759 1.38123e-19)
(1.47136 -0.33183 0)
(2.195 0.498611 -4.5904e-20)
(1.3758 -0.182876 0)
(2.39242 0.0406175 0)
(2.00071 0.122117 0)
(2.22471 0.187251 -1.22808e-20)
(1.86214 -0.02717 2.42081e-19)
(2.22424 0.0809141 -4.68832e-21)
(1.51576 -0.337826 0)
(-0.242277 0.293544 -9.34085e-19)
(2.06968 1.16772 6.49766e-20)
(1.82909 -0.660958 2.7334e-20)
(2.0006 -0.0837504 -1.07079e-19)
(2.75551 -0.656221 6.41384e-19)
(2.03826 0.0680425 -2.28044e-19)
(-0.531187 -0.211107 0)
(2.58149 -0.09772 0)
(1.42278 0.90466 0)
(1.16014 -0.521158 -5.27561e-19)
(0.525067 -1.6928 -1.37437e-19)
(0.279159 0.0081477 0)
(2.22019 0.511318 0)
(2.59903 -0.176543 8.2966e-20)
(1.95261 -0.0296849 -6.18704e-20)
(1.90762 0.666287 2.77262e-19)
(1.59409 -0.689264 0)
(-1.89249 2.15137 -4.24497e-19)
(2.43034 0.0685628 1.05652e-20)
(1.34997 -0.374936 -5.00747e-19)
(2.2644 0.0651964 -6.41723e-20)
(2.34048 0.650219 8.41731e-20)
(3.57822 -1.89273 6.1291e-19)
(1.15804 -0.524112 9.21882e-19)
(1.98568 -0.975673 1.80021e-19)
(2.20855 0.170641 1.66739e-21)
(1.99927 0.0153298 -6.88681e-20)
(1.12697 -0.527703 -8.02235e-20)
(1.80135 -0.402254 2.71469e-20)
(1.63738 2.18783 1.44001e-20)
(1.26252 -0.604231 1.30641e-19)
(2.65984 -0.0444039 0)
(1.71945 -0.302061 4.04964e-21)
(2.21579 -0.043669 -2.33892e-19)
(2.99553 0.763617 1.31542e-19)
(1.32005 -0.340352 -4.56716e-19)
(1.81244 -0.632026 -2.97508e-19)
(1.94211 -0.0110795 5.97438e-19)
(2.37564 -0.0582201 -3.41086e-19)
(1.5173 -0.175954 -4.03285e-20)
(3.00617 0.0558661 -2.61807e-19)
(1.10245 -0.129914 -9.97921e-19)
(2.13858 -0.0266342 -1.79074e-19)
(1.08215 -0.192326 0)
(-0.496428 -1.45597 -4.89628e-19)
(1.90515 0.0272539 5.54725e-19)
(1.63073 -0.00718173 -1.26137e-21)
(-1.06459 0.0232118 0)
(1.49146 -0.685121 0)
(2.04133 0.465569 2.42699e-19)
(0.961082 -0.119396 6.19035e-19)
(1.8839 -2.67517 -9.53648e-19)
(2.10157 -0.689289 -1.43142e-19)
(2.21651 -0.380752 3.38292e-19)
(3.29441 0.653337 0)
(2.05403 0.507216 1.30585e-19)
(0.933703 -0.492725 -2.34985e-21)
(2.53252 1.11878 9.96037e-20)
(1.95172 -0.243475 -3.54957e-19)
(-1.72022 1.18481 -2.70913e-18)
(2.70241 -0.633049 -6.15667e-19)
(2.99122 -0.62945 2.07234e-19)
(2.29447 1.27619 0)
(2.20583 -0.391941 -7.35784e-20)
(1.8816 0.0589749 6.1135e-20)
(2.00017 0.0159975 5.47913e-22)
(0.754844 -0.363593 8.45803e-19)
(1.93159 -0.241434 5.31663e-19)
(1.6341 0.891425 1.06628e-19)
(-2.55466 0.854252 -1.06096e-18)
(2.36166 -0.164972 -1.88513e-19)
(2.27679 -0.0248525 1.59387e-19)
(-1.69064 1.98047 -2.83433e-19)
(2.43706 1.06842 -6.358e-20)
(0.485375 -0.188086 -1.58352e-18)
(0.914506 -0.447181 -2.79266e-19)
(2.00816 0.0149195 0)
(2.18569 0.279453 -6.55799e-21)
(-1.87858 0.82007 -1.03103e-18)
(1.28538 -0.122879 9.09521e-19)
(2.10384 0.0480254 0)
(2.01994 -0.241628 4.58856e-20)
(1.12103 -0.458947 2.09085e-19)
(1.99318 0.0471063 -5.91136e-19)
(-2.52273 1.27772 -1.20143e-18)
(1.66269 -0.507317 -1.3106e-20)
(2.20095 -0.180372 2.06239e-19)
(2.35148 0.0614733 7.73654e-20)
(1.66389 -0.761662 -3.60307e-19)
(2.23313 0.110334 6.40441e-21)
(0.527896 -1.9778 -5.80382e-19)
(2.12196 -0.0429297 2.1941e-19)
(2.09731 -0.0569344 -1.69813e-19)
(2.16688 0.101351 -6.73609e-21)
(2.11678 -0.0343344 -3.71547e-19)
(1.05891 -0.466932 -4.03886e-19)
(2.20767 0.157858 0)
(-1.39579 -1.22116 6.89054e-19)
(2.11051 0.0735532 4.39951e-20)
(0.659524 -0.0674618 -6.61435e-20)
(2.44791 0.0277366 -3.84105e-20)
(2.16029 -0.394159 -2.09029e-19)
(2.00003 0.0195017 -4.61373e-19)
(2.11386 0.340349 7.20514e-20)
(-2.15856 1.16335 -1.32451e-18)
(2.70815 0.0461091 0)
(1.53543 -0.0428905 2.87646e-20)
(2.64619 -0.0897249 5.10732e-20)
(1.41277 -0.526095 0)
(2.15865 0.079788 1.28075e-19)
(2.66516 -0.0603594 5.10234e-20)
(2.68014 0.0558984 2.81055e-24)
(2.36454 -0.772585 -5.34493e-22)
(1.87851 -0.116628 0)
(1.77339 0.388124 4.85672e-19)
(2.05644 0.83653 -4.04525e-20)
(1.23433 -0.597317 2.88467e-19)
(2.01036 -0.165959 0)
(1.44205 0.340748 -7.70652e-19)
(1.12578 -0.393752 -3.78756e-20)
(2.54336 1.56466 -2.81704e-19)
(1.11195 -0.154483 9.69931e-19)
(2.11105 0.00674717 7.67191e-21)
(-2.05114 0.896721 7.91932e-19)
(1.92558 -0.0850506 -3.74421e-19)
(2.97505 -0.482998 -5.27419e-19)
(1.76911 0.174081 -3.56803e-19)
(1.97025 0.00635862 0)
(1.99914 0.0358928 -2.60235e-19)
(0.146521 -0.100591 2.41092e-19)
(-0.561152 0.417445 0)
(3.10561 -1.13585 0)
(1.9985 0.0166566 0)
(0.640758 -0.151868 0)
(2.06162 0.340952 0)
(1.03814 -0.12036 0)
(2.11307 -0.637185 -6.23774e-21)
(3.88423 0.0354816 -6.12961e-19)
(2.64744 0.3734 0)
(1.75198 0.389917 7.32064e-19)
(1.37419 -0.41013 4.44641e-20)
(2.09204 0.210454 6.69277e-21)
(-1.65377 1.13134 -5.1451e-19)
(1.05594 0.121361 -2.26291e-21)
(-2.35753 1.26878 1.07949e-18)
(1.82233 -0.00100986 -1.38355e-19)
(2.78928 -0.0394046 3.18809e-20)
(2.03604 0.323036 -1.68287e-19)
(1.86287 0.211597 -4.79016e-19)
(2.00132 1.08781 -1.78147e-19)
(3.43017 1.17545 0)
(-0.277199 -0.37508 2.90242e-20)
(1.1957 -0.337297 -8.05533e-19)
(2.01055 0.0276302 -8.03917e-19)
(2.28325 -0.664271 -2.5287e-19)
(1.99057 -0.0272372 5.81545e-20)
(2.5704 -0.60837 -4.03814e-22)
(2.10573 -0.292947 -4.56774e-20)
(2.03679 -0.508255 -2.89869e-19)
(2.03118 0.188754 1.83459e-19)
(1.8874 1.20188 0)
(1.91882 -0.292119 -3.65755e-20)
(1.66553 0.101774 -1.09494e-19)
(2.48627 -0.377571 0)
(1.74921 -0.1505 0)
(1.71707 -0.786418 -3.72697e-21)
(-1.94061 0.725632 8.0385e-19)
(2.07481 -0.66063 -1.83584e-19)
(1.74917 0.0148236 0)
(1.89986 -0.042178 -4.9374e-19)
(1.79683 0.245015 -9.29186e-20)
(-1.27746 -1.11607 3.42118e-19)
(2.6767 -0.00207842 1.74225e-20)
(-2.36666 1.23024 0)
(-0.356893 -0.329646 4.32592e-20)
(2.67434 -0.0368619 0)
(2.18197 -0.410446 7.69959e-20)
(2.55398 -0.23509 -7.38477e-20)
(1.99887 0.0320792 -2.32172e-22)
(2.41437 0.720293 -3.4319e-20)
(2.76633 1.32549 -3.51866e-20)
(1.68748 -0.455837 6.00273e-19)
(0.343378 -0.647301 0)
(1.55121 -1.66449 -3.20015e-19)
(1.42908 -0.658678 0)
(2.70805 0.356882 -5.82325e-20)
(-1.33104 -0.997995 5.614e-19)
(3.03219 -1.11385 5.02738e-19)
(1.57773 -0.0712857 -2.799e-20)
(-1.30779 -0.744798 -2.1779e-18)
(1.06032 -0.522764 -3.33099e-19)
(1.23999 -0.345757 -4.67341e-19)
(1.87519 0.139374 7.77608e-22)
(1.68284 -1.53585 2.632e-19)
(1.10084 -0.48138 3.32069e-19)
(1.29916 -0.370223 5.12426e-19)
(0.56664 -1.60072 1.75874e-19)
(2.03958 -1.72906 -1.99207e-19)
(1.79769 -0.547095 2.96889e-19)
(-1.26851 -0.413019 9.71297e-19)
(2.23753 0.0171335 3.21247e-21)
(1.37 -0.441965 -3.58162e-20)
(2.37283 0.443673 -3.18793e-20)
(2.22261 -0.543034 0)
(0.681768 -0.171236 -1.90609e-18)
(2.10817 -0.0383709 -2.87186e-19)
(1.99842 0.130702 0)
(2.67697 0.334804 0)
(1.27193 -1.15743 -1.09065e-19)
(3.28125 -0.54167 -5.82939e-19)
(2.47493 0.223271 5.45857e-20)
(2.02164 -0.361153 5.27292e-19)
(1.97996 1.04519 1.65931e-19)
(1.42631 -0.0141173 3.8136e-19)
(-1.52897 -0.847553 -6.13023e-20)
(1.78616 0.68719 0)
(1.33172 -0.402651 4.90396e-19)
(-0.280765 2.35373 2.45298e-19)
(-1.60297 -0.441208 1.63627e-18)
(1.67971 -0.637445 9.90082e-20)
(1.40544 -0.635836 -6.01171e-20)
(1.71231 -0.00926442 1.99391e-19)
(1.67951 -0.105678 1.50363e-20)
(2.53349 -0.40536 3.74863e-19)
(-1.67665 -0.885512 -5.01425e-19)
(2.4539 0.217587 -3.79185e-20)
(1.94163 0.0733732 1.99058e-19)
(1.0775 -0.181213 -3.98216e-19)
(1.8745 -0.0723171 3.07348e-19)
(1.44008 -0.183276 0)
(2.46605 0.402711 -2.87671e-20)
(1.9817 0.0665012 4.44951e-20)
(1.42721 -0.27478 -1.57429e-19)
(1.88263 1.96527 6.13194e-20)
(1.76564 -0.531538 2.21503e-19)
(2.07094 0.0310587 8.45977e-20)
(1.33575 0.180607 -5.96589e-19)
(2.47277 -0.386361 0)
(1.58455 -0.0256852 -4.70983e-20)
(2.27748 0.0860094 8.71804e-20)
(2.09771 -0.100496 0)
(1.36472 0.0734871 3.40945e-19)
(2.68319 -0.00144927 0)
(1.78071 1.96544 4.21086e-20)
(2.32503 -0.0331731 0)
(1.91944 -0.319681 0)
(2.55134 -0.0376756 4.72611e-20)
(2.44191 0.171458 -1.04067e-20)
(3.02653 0.209856 -4.1283e-19)
(1.9144 0.165399 -2.18436e-19)
(1.57914 1.28815 -1.4039e-19)
(2.0026 0.105848 -8.53955e-20)
(2.09273 0.346976 0)
(0.790794 0.70587 -6.90042e-20)
(2.55296 0.148329 8.07916e-20)
(2.14487 -0.396826 -1.57664e-19)
(2.22127 -0.538207 0)
(3.03101 0.746475 1.99768e-19)
(2.2397 1.77212 1.62426e-20)
(2.22842 0.0143077 1.38181e-20)
(1.81357 -1.95719 0)
(-0.75991 1.55955 1.75993e-18)
(2.05245 0.183239 0)
(2.55591 -0.351388 -1.87215e-19)
(-0.228566 -0.0669914 0)
(2.74529 0.313436 0)
(1.94913 -1.05805 0)
(2.00201 -0.750178 0)
(-1.36573 2.44751 -2.21204e-19)
(-1.06211 -1.45154 -2.54641e-19)
(1.84956 -0.0232019 -3.63214e-19)
(-0.516493 -1.11902 -1.96551e-19)
(1.18688 -0.511523 0)
(-0.351168 -1.73499 -1.97769e-19)
(-0.454022 -0.117501 -1.2601e-18)
(1.43872 -0.677179 0)
(1.41321 -0.486081 -5.23994e-19)
(1.84206 0.275984 -9.90051e-22)
(2.35855 0.429139 7.21914e-20)
(2.37347 -0.793497 5.29913e-20)
(1.84924 0.198026 0)
(2.17089 -0.688161 0)
(3.39871 0.339165 1.95336e-19)
(1.79676 -0.364713 7.26793e-21)
(1.81472 0.13377 -5.37473e-21)
(1.27384 -1.11941 3.26465e-21)
(1.99832 0.00935601 1.93481e-20)
(2.18293 0.269769 -1.03096e-23)
(2.03027 0.191389 2.63972e-19)
(1.51341 0.0312926 2.48951e-20)
(1.85323 -0.486534 0)
(-0.570316 0.836102 0)
(2.23399 0.0982277 0)
(1.85162 0.0186133 0)
(1.70868 -0.288164 2.21573e-19)
(2.8932 -0.0488754 0)
(-1.14114 2.22736 3.2761e-18)
(3.16917 -2.32396 -6.51051e-20)
(1.26536 -0.387162 -7.69728e-19)
(1.3382 -0.39626 -2.44123e-20)
(-1.20155 -1.38741 -3.96277e-19)
(-0.272191 2.27296 -1.49404e-18)
(1.8637 0.0529016 6.7475e-20)
(-1.84865 -0.509713 -6.17705e-19)
(1.48807 0.0878766 3.8793e-20)
(2.58046 -0.018501 0)
(2.32578 -0.368488 0)
(1.54505 -0.349032 0)
(2.1557 -0.410725 1.10354e-19)
(2.04814 -2.02681 0)
(1.82169 0.693431 0)
(2.00156 0.0128445 0)
(1.73727 -0.401241 2.32839e-19)
(2.0912 0.210243 -2.44782e-19)
(1.74868 0.0227253 0)
(2.19122 -0.638821 -1.83113e-19)
(1.97859 0.197142 -2.57429e-19)
(2.53949 1.01936 -2.10191e-19)
(1.47808 -0.691274 3.11441e-19)
(1.90409 0.738852 3.15445e-22)
(1.78464 -0.482948 -4.92303e-21)
(1.7197 -0.166813 3.41907e-20)
(1.95192 -0.410965 -7.37611e-20)
(2.42747 0.178138 1.87431e-20)
(1.83481 0.125663 -9.5543e-21)
(1.80555 0.0937448 -3.46576e-19)
(2.1235 -0.0398764 0)
(0.655342 -0.0725273 5.03091e-20)
(1.96319 0.0784062 3.59356e-19)
(1.02103 -0.515908 -3.72542e-20)
(2.10013 -0.275338 -1.33456e-19)
(0.992086 -0.141185 -6.7482e-19)
(2.43939 0.152629 -4.08371e-21)
(3.19616 0.468115 3.58552e-19)
(1.99922 0.087911 0)
(1.66946 -0.287315 1.29463e-22)
(1.72833 0.00557317 -1.24309e-20)
(1.97199 -0.419206 1.46792e-19)
(-0.544966 -0.175209 -3.17544e-19)
(2.05619 0.034458 1.83403e-19)
(2.22884 0.151542 -1.82434e-21)
(2.12598 0.0100442 -5.78842e-21)
(2.21184 0.0803059 0)
(1.21806 -0.295154 0)
(1.29931 -0.623856 3.81326e-19)
(-2.47484 1.21028 1.3032e-18)
(2.01796 0.00777006 3.81316e-22)
(1.96108 0.0785802 7.18653e-19)
(1.59364 -0.262856 2.41467e-21)
(1.40855 0.325321 0)
(1.77766 0.120531 0)
(1.55768 -0.327045 -3.43519e-21)
(2.49293 0.00305454 7.4035e-20)
(1.95672 0.716215 3.68914e-19)
(2.47581 -0.176755 0)
(2.08494 0.0069382 0)
(2.05692 -0.578891 3.97217e-19)
(1.98537 -0.15565 2.8633e-19)
(-0.098063 0.205216 -2.50256e-20)
(1.76671 -0.0474305 0)
(2.5364 0.195677 1.55753e-19)
(2.41114 -0.784633 -8.28091e-20)
(-2.20086 0.825907 -1.22586e-18)
(2.01398 -0.0186313 -3.91367e-19)
(3.77212 -0.0129149 0)
(3.35891 -0.491513 4.6501e-19)
(2.35385 -2.03646 -1.83034e-18)
(-0.035133 0.144677 0)
(1.89073 0.028635 -6.13925e-21)
(1.91077 0.131081 -2.34446e-19)
(1.86591 0.0108987 3.87582e-24)
(2.57985 -0.263299 4.14544e-20)
(1.30068 1.11031 4.35375e-19)
(1.85708 0.0476913 0)
(0.970988 -0.34196 -4.40245e-21)
(1.66823 -0.281512 -4.72323e-21)
(3.04813 0.30427 -2.35534e-18)
(2.05069 0.322611 1.99722e-19)
(0.422844 -0.632924 6.52313e-21)
(2.00936 0.020333 -8.46346e-19)
(1.63162 0.908499 -7.06369e-20)
(1.64732 -0.148642 3.28797e-20)
(1.70351 -0.365859 0)
(1.77325 0.0112049 -6.50722e-20)
(1.02855 -0.471429 2.65422e-19)
(2.23707 -0.100758 -4.09464e-19)
(1.98677 0.0666369 -3.24821e-19)
(2.53776 -0.334066 1.71077e-19)
(1.64458 -0.143733 8.17318e-19)
(2.19685 0.0105102 -3.35029e-21)
(1.76712 0.124315 2.02192e-19)
(1.90412 0.185381 4.25559e-22)
(3.22829 -0.325339 -6.36847e-19)
(2.46555 1.1439 -1.39159e-19)
(1.96814 -2.66287 7.35075e-19)
(1.88039 -0.0229283 0)
(1.60737 -0.346648 0)
(1.05903 -0.170226 0)
(1.26489 -0.351979 5.96188e-19)
(2.14975 0.0721668 -5.29173e-19)
(1.77901 0.264892 0)
(1.46917 -0.290978 -4.67304e-19)
(1.77236 0.23146 0)
(1.71953 -0.262023 -3.6397e-19)
(2.12348 -0.418302 -1.64351e-19)
(1.83206 -0.456113 -3.26254e-19)
(1.93875 0.0468408 0)
(1.94577 0.0646797 0)
(2.11518 -0.106923 9.455e-20)
(2.61139 0.306237 5.82626e-21)
(2.79133 -0.118741 2.34917e-19)
(2.43341 1.86008 -4.57896e-21)
(2.49851 -0.226695 0)