/*--------------------------------*- C++ -*----------------------------------*\
| =========                 |                                                 |
| \\      /  F ield         | OpenFOAM: The Open Source CFD Toolbox           |
|  \\    /   O peration     | Version:  2306                                  |
|   \\  /    A nd           | Website:  www.openfoam.com                      |
|    \\/     M anipulation  |                                                 |
\*---------------------------------------------------------------------------*/
FoamFile
{
    version     2.0;
    format      ascii;
    arch        "LSB;label=32;scalar=64";
    class       surfaceScalarField;
    location    "2.9";
    object      phi;
}
// * * * * * * * * * * * * * * * * * * * * * * * * * * * * * * * * * * * * * //

dimensions      [0 3 -1 0 0 0 0];

oriented        oriented;

internalField   nonuniform List<scalar> 
20045
(
1.15336
-1.3618
0.208439
-2.30515
1.04412
1.26103
0.539337
4.02497
-4.5643
1.03444
-1.379
0.344561
-2.22014
1.82324
0.396903
-1.20427
4.2317
-3.02743
-2.12854
0.158117
1.97042
0.0875146
1.12015
-1.20766
1.16576
0.920546
-2.0863
-1.23749
-0.426857
1.66435
0.235781
-0.719698
0.483916
3.85557
-1.91593
-1.93964
0.928034
-0.906423
-0.021611
-2.17272
1.82213
0.350587
-0.10098
1.92982
-1.82884
-1.92175
0.684255
-0.0229434
-0.539554
0.562497
-0.497406
1.86148
-1.36408
-3.14995
4.52085
-1.3709
-1.57993
-0.115153
1.69508
1.70497
-1.32341
-0.381564
0.339179
0.588855
-0.559225
-1.74592
2.13634
1.27472
-3.41106
1.65354
0.151972
-1.80552
-1.44518
3.58151
0.291964
-0.284941
-0.00702337
-2.57656
5.44175
-2.86519
2.0647
1.18905
-3.25375
-5.98686
3.94107
2.04579
2.05022
-1.56568
-0.484542
2.36794
-2.32177
-0.0461771
-1.02379
3.29636
-2.27257
6.35484
-3.58644
-2.7684
-1.41261
1.50013
3.72338
-1.83639
-1.88699
2.16639
0.931832
-3.09822
-0.152674
0.956099
-0.803425
-4.79894
2.71039
2.08855
1.33034
1.21074
-2.54107
-0.0818499
1.33534
-1.25349
0.456103
-0.634326
0.178223
5.27116
-5.22894
-0.0422183
2.71673
-0.833374
-1.88335
1.12088
1.59585
1.76512
2.09045
-0.754898
0.82025
-0.065352
2.57072
0.125982
-2.6967
3.33544
-1.16906
0.605951
3.66185
-4.2678
2.66284
-4.38643
1.7236
4.37509
-2.84418
-1.53091
-1.58094
-1.45391
3.03485
-0.231553
-0.728833
0.960386
-2.71451
2.12578
0.588726
-1.58095
-0.639195
0.571195
2.41702
-2.98821
3.41095
0.887715
-4.29867
2.82735
-3.85114
3.68549
-3.00241
-0.683075
0.305279
-0.750446
0.445167
0.935687
2.7498
-1.55976
-1.01257
2.57234
0.933793
0.771178
-2.03187
0.716169
1.3157
2.38395
1.0387
-3.42265
-0.370601
1.19932
-0.828719
-1.40685
0.0908348
1.31602
1.99846
-0.832706
3.21674
-3.28708
0.070336
-1.03265
0.662045
-1.73763
-0.976871
-0.613588
-2.24232
2.85591
-0.21981
0.0556618
0.164148
2.7516
0.0762933
-2.82789
2.8092
-2.23801
-0.714814
3.46641
1.5153
-1.61628
0.482462
-0.859382
0.376921
-0.664318
-3.5787
4.24302
1.83195
1.94946
-3.78141
1.72237
-1.62547
-0.0969049
0.272359
-1.83212
-4.76998
0.642452
4.12753
-0.056241
1.2096
-0.572031
0.942035
-0.370004
0.133014
-2.30361
2.17059
-3.15637
0.058348
3.09802
1.85823
0.651038
-2.50927
-1.58591
1.21242
0.373491
-2.62825
0.43689
2.19136
1.85893
-0.47898
-1.37995
0.937867
-1.43232
0.494455
-0.594063
-1.56694
2.161
1.40626
-1.53581
0.129547
2.8433
0.0816504
-2.92495
0.207701
0.084263
-0.245204
-0.803977
1.04918
2.73992
-1.40959
0.0714498
-0.481184
0.409735
2.56252
1.16086
-0.827155
-1.34556
-1.34655
1.10134
-1.23085
4.64181
0.263639
-0.83567
0.387873
-0.316423
0.695857
2.59482
-3.29068
2.11043
-4.46558
2.35515
-0.272436
-1.21435
1.02841
0.185943
-0.721202
0.903517
-0.182316
2.11001
-2.32062
0.210609
-1.20869
0.977139
3.47166
-5.00488
1.53322
-0.598912
0.845699
-0.246787
0.127849
-0.866096
0.738248
2.02756
-0.374016
4.58999
1.76485
-2.60484
1.99125
2.11983
-3.60942
1.48959
-1.52842
1.03101
-0.330274
0.635554
-1.88598
1.50496
0.381017
-2.68851
0.283792
-1.44461
1.16082
2.75894
1.61615
2.22157
-3.17126
0.949693
3.08924
0.340561
-3.4298
-5.77262
4.25331
1.51931
-1.47997
2.15567
-0.675698
4.45921
-1.70028
0.672145
0.148105
-0.177649
-0.133481
0.31113
0.0250991
-0.165452
0.140353
2.31334
1.56794
-3.88128
2.45041
-2.08743
-0.362978
-0.496171
-0.00339322
0.499564
-0.868279
-0.346073
3.96019
-1.84036
-1.62332
1.64019
-0.0168717
2.18832
-4.65868
2.47036
0.690879
-2.27182
1.33843
1.2758
-2.61423
3.9127
-4.57701
4.7685
-0.557833
-4.21067
1.62779
-1.74598
0.118182
2.96586
-1.41894
-1.54692
-0.596344
0.57407
0.0222745
-0.464579
4.5073
-4.04272
3.72171
-1.65701
-3.27486
0.0718458
3.20301
-2.38453
1.58032
0.804212
3.4325
-1.60055
0.35166
1.37071
-2.43465
2.86879
-0.434139
-3.3754
3.91473
0.0288289
-1.09663
1.0678
-0.330462
-1.03642
1.36688
-0.107247
-0.890738
0.997985
2.28548
0.61239
-2.89787
5.44155
-2.72667
-2.71487
-1.08418
0.976934
2.20665
-2.07333
-0.13332
0.564258
-0.108155
-4.07503
-1.56063
2.27949
-0.718854
-2.30271
1.73707
0.565637
-0.0341457
-0.293531
0.327677
1.87743
1.08843
-0.154773
0.179873
0.0738079
-0.251457
-2.60592
0.171267
-3.01937
3.70769
-0.688312
-2.96605
2.9807
-0.014653
-1.82641
-1.58922
3.41563
-1.55149
0.882193
0.669294
1.36363
-1.52173
0.158094
4.3989
-0.40796
-3.99094
-0.152302
-2.96239
3.1147
-1.66178
3.00021
0.81981
-2.47484
1.65503
-1.65379
5.12545
-2.99757
2.3745
0.623071
-0.349667
0.441258
-0.0915913
2.06918
-4.54413
2.47495
-4.3392
1.76264
-1.51848
-2.78715
5.51926
-3.69085
-1.82841
-1.63374
1.55189
0.850264
-0.910399
0.060135
-2.29863
-1.10946
3.40808
-3.79259
5.44038
-1.64779
4.45808
-3.72679
-0.731287
-0.121369
-0.678437
0.799807
-2.05696
-1.94465
4.00161
0.552754
-0.316973
1.05322
-2.53319
-2.96074
-0.863198
3.82394
0.592279
0.139925
-0.732203
0.486029
-2.04666
1.28877
0.76145
3.28353
-0.194291
-0.804177
0.651503
-0.994638
1.22936
-0.23472
-1.18292
3.4684
-4.35657
2.29961
1.18505
-1.97623
0.791181
-3.0749
0.717059
2.35784
1.02373
3.43435
4.82038
-2.7512
3.79527
-5.96261
2.16734
2.62472
-3.46394
0.839219
0.330032
-1.90996
-2.13046
2.82632
2.41172
-3.61599
2.36715
-6.05797
3.69081
-6.35015
3.0619
3.28826
-0.350157
-1.23576
0.833656
0.728307
-1.56196
2.41745
-1.07142
-1.34603
-0.504128
-3.14348
2.6789
-1.19331
-0.43001
2.4808
3.08914
-2.49329
-0.595844
-0.04908
-0.669179
0.718259
2.35032
0.56406
-2.91438
-0.568248
-0.28242
0.850668
-1.53166
4.91422
-3.38256
-2.74269
2.8757
2.5555
-1.73569
-0.586181
2.27348
-1.6873
3.98226
-1.79394
0.601639
-0.0430244
-0.558615
1.33979
0.0455378
-1.38533
-0.677419
0.709245
-0.0318259
5.56931
-3.6984
-1.87091
1.17353
-4.96612
-0.75488
0.0774613
-3.15969
0.73951
2.42018
5.40468
-2.10832
0.876004
-3.89538
6.64951
-3.22476
-3.42475
-0.0893105
0.681589
4.10926
-2.76091
-1.34835
-2.447
0.323738
2.12326
-3.74259
3.65636
0.0862307
2.57154
-4.32043
1.74889
-0.375363
0.0081816
0.367181
-1.88756
2.27009
-0.382534
-0.404941
-0.19956
0.604501
-0.784587
0.185675
-0.879759
0.158557
-2.25272
-2.21286
1.85001
-5.18286
3.33284
1.03005
0.293903
-1.32395
2.02398
0.343959
6.02716
-3.66001
-2.04093
1.71047
2.65119
2.75349
-2.19948
0.366482
1.833
2.25375
1.85551
1.88121
0.0486123
0.107879
0.922172
-1.36675
-0.257941
1.62469
0.0816169
-0.431284
-4.83615
3.30449
0.332905
0.776245
-1.10915
-3.83247
3.68302
0.149459
0.430963
-0.677446
0.246483
-0.42797
-0.677083
1.10505
2.96241
-3.40861
0.446195
-3.32948
-3.02067
4.12539
-2.65393
-1.47146
-0.535044
0.485964
4.68099
-2.10945
-3.18909
5.0391
3.92371
-0.915095
-3.00862
4.44596
-1.70727
-2.73868
3.42248
-1.48966
-1.93282
3.0397
0.884019
3.63151
-2.23389
-1.39762
-0.913347
3.33751
-2.42417
1.78308
-2.33464
0.551552
0.550842
-0.309476
-0.241366
-0.292503
-0.0983589
0.390862
5.10049
-4.58485
-0.515644
-3.27326
-2.49936
1.95939
1.12975
-3.47401
-0.358465
-0.265719
1.60551
1.60094
-3.29607
1.69513
0.0121597
0.838105
-2.13571
4.44905
2.03244
3.53687
6.06129
-3.9531
-2.10819
-4.18212
3.31892
2.26941
-3.93784
1.66844
-2.47871
-0.387708
2.86642
-1.66991
-0.520005
2.18991
1.67645
0.530202
2.53426
-1.34922
2.00354
-0.784263
-1.5375
-2.24274
3.60813
-1.36539
-1.2008
0.206162
-1.46395
0.877771
0.369886
-4.11247
0.533159
-3.27585
1.03682
-0.869776
1.07983
-0.21005
-0.114776
1.14921
-1.65915
1.11822
0.540935
1.89501
0.214994
-0.346667
-0.806182
1.15285
1.76065
0.689762
-1.61261
3.21355
2.3346
-0.476368
-1.02626
-2.04864
6.45997
-4.98521
-1.47476
3.31578
-3.83178
2.05726
1.77452
3.12851
-3.56933
0.440817
-1.98878
1.39472
-0.627406
0.131235
-1.01049
-1.61776
1.54759
-2.43286
0.885265
1.73675
1.89477
2.07412
-3.81846
1.74434
1.36164
-2.43957
1.07793
-3.89416
0.737796
0.174918
1.68401
-2.24449
2.2703
-0.0258064
-0.783141
1.32297
-0.539832
-2.44586
0.317317
-0.554178
-1.12156
1.67574
0.595138
0.000169908
-0.595308
-1.20571
-1.17882
1.28487
1.87096
-3.15583
3.77264
-1.51888
1.62382
-1.80116
-0.187628
2.23198
-0.870337
-2.74182
-0.255747
0.0167615
-0.00721461
-0.00954691
3.22386
-0.653134
-2.2348
3.24051
-1.00571
-0.613322
0.738087
-0.124764
2.02807
0.389376
-1.92581
-1.37026
-2.2501
3.81686
-1.56676
1.87179
-3.70398
1.83219
1.94184
2.18355
-0.212551
0.186378
0.0261738
0.576133
-3.05484
2.27285
-3.45205
1.1792
0.0860738
-0.305884
-0.541371
2.76294
-2.48202
3.01518
-1.0652
3.68992
0.691445
-3.8414
-2.34248
1.75656
0.585921
2.78579
-0.695386
-2.09041
3.82781
-0.865404
-2.92497
-1.89065
-1.57457
2.36289
-0.826277
0.475845
0.350432
1.35958
-1.47473
-3.24826
2.70689
4.08826
1.1829
-3.35217
1.11736
3.02741
-1.06802
0.607465
-0.304182
-0.303283
0.0786207
-2.24329
2.16466
-3.5829
0.617525
2.96538
3.38859
-3.38859
-2.09913
3.64452
-1.54538
-0.966102
0.619435
1.69206
-0.887409
-0.804655
-3.95317
4.11479
-0.16162
1.61376
-0.101971
-1.51179
1.2533
-0.372843
-0.880455
0.619348
-1.04732
-0.154132
2.1663
-5.35539
-3.17196
3.73042
-0.558463
-1.2468
2.53168
0.50814
0.0588975
-0.567038
0.776255
0.437097
-1.21335
-1.57466
1.90469
5.6239
-4.08035
-1.54355
-0.458797
-1.917
2.3758
-1.15457
1.22191
-0.0673448
0.796296
-1.20555
0.409255
-3.64633
1.85863
1.7877
-0.921326
-0.457672
0.442843
0.164622
-0.0260348
-0.538502
0.564537
2.80358
2.29691
0.543316
-0.035176
-0.388093
-0.759209
1.1473
-2.19156
3.44113
-1.24957
0.211059
0.994478
-1.20554
1.76639
-1.60828
2.21674
-1.46585
-0.750888
0.314812
-1.88175
1.09972
3.29918
2.00407
1.06541
-3.06948
2.05596
-1.52709
-0.528867
-4.04615
0.77129
-1.19249
0.590232
0.602262
1.54084
3.15752
-4.69836
-2.6883
2.30059
0.298265
-3.66109
3.36283
-0.618382
0.497012
-0.381934
0.457826
-0.0758918
0.22906
-1.59581
0.128193
-0.129242
0.00104889
-2.67872
-0.480968
2.44252
2.4866
-1.55519
-0.931415
-0.693101
0.0797784
0.448515
-2.6702
2.22168
1.11789
1.87929
-2.99718
1.56616
-2.74125
3.26491
-0.52366
-3.01535
2.102
-0.0746936
-0.210247
-1.42687
-0.87584
-1.25604
0.273431
0.982607
-3.70731
1.51576
2.49985
-2.95864
1.44465
1.58276
-1.61016
1.46659
0.143576
0.642093
-4.11037
3.46828
0.876205
-1.28552
0.409312
1.38466
-3.31046
-2.54521
-0.420836
-1.52063
0.113779
0.193292
0.0327594
-0.226051
2.29442
0.198712
-0.243133
0.044421
4.42114
-2.8803
-1.65195
3.48967
-1.83772
1.16883
0.883259
-2.05208
-1.27271
0.654332
-1.12069
-0.135349
1.19338
0.498685
-1.30487
-2.30455
0.154718
-0.137956
2.31947
1.90134
0.433262
-3.55304
4.15899
0.352384
-1.39862
1.04624
-0.377692
-3.291
3.66869
0.572653
-0.658207
0.0855545
-0.998109
-0.553378
-0.20451
1.98759
2.5085
-0.880701
-1.29241
-0.366746
-0.0773191
-1.81152
1.88884
1.48283
-3.30925
-0.318818
-1.70721
2.02603
0.483121
-1.43501
0.951887
-2.47005
-0.0694335
2.53948
2.81497
-2.68899
0.00966506
0.50383
-0.513495
-1.03748
-0.117091
0.796529
1.59518
-2.39171
0.741788
-0.887845
0.146058
2.22904
1.21771
-3.44675
-0.87626
3.71956
0.566669
0.0284689
-1.93796
-2.59187
4.52982
1.7274
2.23279
3.63957
-2.52168
-1.65416
1.09998
-0.447768
0.155265
-1.53691
3.80632
0.406693
-2.98473
2.57803
3.09446
-0.430202
-2.66426
-1.63354
2.35778
-0.72424
1.49673
-2.03953
-0.949059
2.98858
0.612443
-0.576505
-0.0359373
-1.07217
-1.97188
3.04405
1.39162
-0.615366
0.320607
-0.354752
2.06821
-3.14039
-2.71203
-0.953289
3.66532
-0.0394525
-2.15715
2.1966
0.990071
4.82007
-5.02194
0.201879
0.908027
-0.338366
-0.569661
-0.134745
-1.47542
0.998004
1.163
-1.61225
-0.0576635
-3.14899
3.96195
-0.812953
1.24188
-0.908971
0.254024
3.65867
-4.10199
-1.12695
-0.106763
-0.11223
0.218993
2.10715
-0.205816
-1.00475
1.09464
-0.0898876
-0.641712
0.236772
-4.80052
3.28204
3.45191
0.779788
-0.296904
1.0932
-0.962983
2.13181
5.09526
-2.92896
-1.01949
0.0147365
-0.634635
-2.61363
0.645942
1.18166
-1.15283
-3.69274
0.109842
0.202001
0.99651
-0.120305
-3.40926
1.67635
1.73291
2.68777
0.528967
0.969147
-0.363934
-0.605213
1.44006
-1.25426
-0.185799
-2.89979
1.0634
-4.25922
2.00913
-0.441166
-0.631879
1.07304
-0.0284621
-0.65026
0.678722
3.92261
-0.0495396
-3.87307
1.00117
0.0866486
-1.08782
-0.663622
-1.22236
1.09735
-0.159484
-0.353047
0.310403
0.0426446
1.90871
-0.111499
-1.79721
-0.100417
-0.25263
2.46587
-2.38422
-0.136248
-0.690669
0.826918
-4.0378
0.888803
0.0593238
-0.258363
-1.08819
1.52917
0.957433
-0.220749
-1.82018
1.03678
0.870233
-1.90701
-1.43579
-0.596087
1.3457
-0.993312
1.07184
-0.943987
0.534161
-1.3173
2.09777
2.31852
-4.41629
2.34447
-0.435059
-1.90941
-0.608061
-1.13792
0.431008
-0.328398
-0.10261
1.12699
-1.26598
0.138985
4.3134
-0.109842
-4.20356
-0.100724
-0.141037
0.241761
-2.11632
2.92018
-0.803864
2.28588
2.2144
-4.50028
-0.438997
-0.311449
-1.34297
1.97213
-0.629162
1.00633
0.443745
-1.45007
-4.61132
2.88112
1.7302
0.243753
0.0666498
-3.39036
0.678325
1.45794
-0.850322
-0.607621
1.64331
-2.23536
0.592052
-0.506301
-0.855501
0.545644
4.27442
3.31542
-0.676335
-2.63908
-3.18203
0.440778
1.3426
-2.36886
3.52949
-5.68234
2.15285
-0.506907
1.34056
-0.0048501
-1.32877
0.940673
-0.736636
1.02043
-0.939492
-4.08277
5.02226
3.03142
1.64956
-2.93733
3.15752
-0.220189
0.0345506
0.158741
-1.99601
-0.653365
-0.579789
0.649664
-0.0698744
-3.68144
3.06607
0.615364
-0.708755
2.5096
-1.80084
-0.405413
2.04872
-2.0311
-0.416115
2.44722
-3.34263
-1.00123
4.34386
1.64511
-1.46629
-0.178825
-1.27656
0.0844147
1.19215
0.0792486
-0.0890944
0.00984576
-3.75233
0.198142
3.55419
0.0916615
0.926395
-1.01806
3.01995
-3.39929
0.379338
-1.74569
0.122376
0.322711
-0.445087
0.05576
-0.635549
-3.88574
-0.624891
4.51063
3.32016
-4.97395
-3.78414
3.3137
0.470434
0.894999
-0.153212
3.97073
-3.7167
-0.323735
-0.463829
0.787564
-0.0677616
0.891099
-0.823337
-0.36268
2.9369
-2.57421
2.55529
-0.4748
-2.08049
4.00762
-3.8325
-0.175113
2.41479
-0.754483
-1.66031
0.166276
-1.07727
0.910996
-1.35182
-0.0927898
-4.19029
3.64234
0.547949
0.173566
-4.36386
-0.827664
1.12419
-0.296527
-2.09662
-2.48823
0.983259
-0.768651
-0.214608
-3.14965
-0.888151
-0.914279
0.654644
0.259635
-0.616119
0.0478711
-3.95304
3.75547
0.197573
-0.670757
-0.0961843
0.151846
1.09533
-0.0941657
-2.16885
0.28129
0.789914
-0.838442
0.0485284
1.1012
-1.35016
0.248959
1.82596
-0.2122
-0.891979
2.37712
-0.349042
1.43672
1.85993
-1.71668
-0.143252
-0.363592
1.72722
-2.74644
1.81266
0.933783
0.358017
-0.114264
4.76804
-1.73662
3.1452
-2.50311
-0.587367
-0.637144
1.22451
2.18467
-5.00822
2.82355
2.44246
-2.48191
3.31249
-1.53339
-1.7791
-0.0326866
-2.33787
-0.408567
-1.88889
3.47426
-1.58538
0.126826
-1.29996
5.09523
-4.12876
0.979113
0.378466
0.172376
-0.403508
0.28111
0.73097
-0.0217256
-1.79952
-1.64124
4.55866
-1.74946
0.144934
0.494652
-0.639587
0.181437
1.07186
-2.48567
-2.39246
4.87813
1.76371
-0.087262
-0.0279924
-0.690499
0.718491
3.28036
0.377043
-0.0328536
-0.344189
4.4107
-2.31293
-1.3481
-3.80191
0.629957
-1.05448
0.0682761
0.986203
3.08474
3.56477
-3.50375
0.765093
2.73866
3.83365
0.17397
2.57697
-3.60969
1.03272
-3.19069
0.00814201
3.18254
-3.41648
4.35749
-0.941009
0.682183
-0.0331311
-0.649052
-1.7369
5.05706
-1.61172
0.946782
0.664938
0.190139
-3.12747
2.74951
-1.86199
-0.887517
-3.62799
4.77346
-1.14547
-0.872124
2.41536
-1.54324
4.64679
-2.05652
-2.59027
0.16118
-2.34594
2.18476
0.395555
0.0622708
-1.76093
4.04681
1.48262
-3.58175
3.64228
-1.77049
-0.860801
0.724552
-3.30882
0.118134
3.98298
-1.90885
0.086411
-4.85639
1.35891
-0.0235758
2.2644
2.31353
-4.57793
2.16237
-0.714083
-1.44829
1.57941
-3.244
1.66459
-0.868526
0.042081
0.826445
-0.825009
-2.10956
2.93457
1.52347
-0.989311
0.718723
0.61351
-1.33223
0.434773
0.764317
-1.19909
0.331184
0.652075
-4.23129
5.02852
-0.797225
0.659945
-0.0872923
1.89721
0.922914
-2.82012
1.59961
2.75625
-4.35586
0.871574
1.91422
-0.169371
4.93787
-0.0803457
3.18584
-3.10549
0.351966
-0.140906
-0.22127
0.307728
-0.0864589
3.84551
-2.74801
-1.0975
1.59953
1.71296
-0.609135
0.51249
0.0966449
-0.921946
3.02374
-2.10179
-0.0400404
0.857724
-0.817683
2.65276
-5.87249
3.21972
-1.70086
-1.49067
3.19152
3.07096
-0.720634
0.931174
1.2312
0.345333
0.782686
-1.12802
1.24073
-3.15773
-0.589912
-0.0471638
0.637075
0.845427
-0.137163
-0.708264
-0.0111279
0.406683
-0.212153
3.00313
-2.79097
-0.843151
4.505
2.88317
-2.50158
-0.381589
2.70291
-2.05187
-1.80092
0.756865
1.04405
0.404955
-1.29236
-1.45696
0.60951
0.847448
0.32858
0.640567
0.615825
2.89651
-3.51234
1.19184
0.716873
0.521078
-3.86371
-2.21681
0.377312
1.83949
-1.5837
-0.892311
2.47601
2.2303
-1.19352
-3.33259
2.08579
1.0852
-0.81974
-0.265456
-2.06177
4.79719
-2.73541
-1.72746
2.04227
-2.51119
2.19305
0.318145
-2.23648
4.47583
-2.23935
-0.0877087
1.00756
-0.919849
0.573627
-0.602089
-3.4052
-2.42112
4.06728
-1.64615
-2.2484
2.96546
1.92643
-2.22793
0.301504
0.909963
-0.907682
-0.00228087
-4.50466
2.76619
1.73847
-0.0435287
-0.372424
0.415953
-0.523164
2.55785
-2.92053
4.82299
-2.63831
-0.374336
-1.96814
-2.84184
2.76149
1.68805
0.0490235
1.11867
0.398473
-1.51714
-1.52758
1.40662
0.120957
0.451136
1.49389
-1.94502
1.94567
0.586961
-2.53263
0.206125
-1.19704
0.990918
-2.56555
-1.09113
3.65668
1.14145
-0.231489
1.9036
1.94191
-4.02693
2.1872
1.83973
0.586364
-1.14284
0.55648
0.0349916
0.899521
-1.11338
0.213864
-1.91893
2.5953
-0.649637
0.654191
0.935877
-0.769601
-3.29153
-0.389908
1.82297
0.332699
0.102915
1.30335
-0.156245
0.580565
-0.42432
-2.95943
-2.24252
5.20196
-0.812731
1.15806
-1.84299
-0.301996
2.14498
0.338158
1.05596
-1.39412
0.00330787
4.40783
-2.83041
-1.57742
0.827848
2.48757
0.505406
-0.180059
2.91882
-2.73876
-2.15084
3.88606
-1.73522
-2.05441
-0.963829
3.01824
-2.03072
0.687748
-1.18951
-0.611407
4.33255
-1.93014
-2.40241
0.239451
-1.28444
1.04499
1.18174
0.447151
-1.62889
-0.806593
0.898255
0.0402432
-0.835122
0.794878
0.880267
-0.135211
-0.948971
-0.0472039
2.52113
1.81142
-1.3062
4.0166
-1.35969
5.30076
-0.659851
0.899302
-3.16715
1.11274
3.01945
-2.44332
-0.583094
-2.73569
0.619367
-0.0370933
-0.790571
2.59697
-2.51835
3.3576
-0.229097
-0.845209
-0.587113
-0.561287
-0.389465
0.950752
-1.35334
-0.18247
3.11627
0.527569
-3.64384
-0.167287
-1.00006
1.16735
-0.7448
2.24545
-4.02998
1.78453
3.25267
-0.232715
-4.87543
5.53894
-0.663511
0.848196
-0.757361
-3.65689
-0.84777
-0.885023
3.70743
-0.0650847
3.03348
3.90265
-1.44356
-2.45909
-2.38065
-0.122598
2.50325
1.30738
1.59087
-2.89825
-2.8574
0.387357
-0.769758
-0.158231
0.927989
-1.92924
2.33593
0.694774
1.82125
-2.51602
0.567297
0.638401
-1.2057
-3.62551
0.506242
3.11926
1.70644
3.11655
-1.24279
1.88395
0.530843
-0.695715
-0.496778
3.84548
-4.40331
-1.17427
1.31253
-0.138258
0.462755
-0.901752
2.67854
0.0396394
-2.71818
3.84697
-5.20666
0.0181193
-0.393482
-1.1125
-0.328916
1.44141
-3.09448
-0.791256
-0.151094
1.34588
-1.19479
-0.403472
-0.074013
0.477484
0.611172
-1.60928
-1.16902
2.51162
-0.711162
0.269997
-0.715597
0.771357
-1.39547
1.11305
-0.240157
0.248338
-0.904933
0.859284
0.0456485
0.936506
-1.04413
0.107624
-2.38078
2.45708
0.429531
-2.27252
-0.279143
-1.3546
-0.222058
2.36046
-2.1384
1.43704
-1.69498
-0.691956
-2.73983
3.43179
-0.451626
3.96464
-3.51301
1.273
-3.51574
2.85964
-0.0837884
-3.70035
1.56857
2.99009
-2.77683
-0.555763
-1.90811
-1.92367
-1.86718
0.745619
-0.102924
-0.230376
0.3333
5.94792
-2.86318
2.95923
-0.686377
-1.00724
-0.708452
1.71569
-4.70059
2.32983
2.37076
-0.486215
-0.233483
0.160988
-0.038612
0.74253
-0.403351
1.21365
-0.907511
-0.704209
-0.042593
-0.665591
0.708184
-0.497031
3.6133
1.01631
-0.0952014
-0.921107
3.44191
-4.50827
2.00551
2.50276
0.501398
1.30736
-1.80876
1.43698
0.92166
-2.35864
-2.28152
1.4094
1.76939
-0.237181
1.41892
3.51898
-3.89667
1.81295
-0.806626
-1.4027
2.64343
-3.49663
2.47809
1.01854
2.43199
-5.67605
3.24406
-2.59111
2.94764
-0.356526
1.28539
-1.64898
0.0511663
0.587149
1.05796
2.34116
-5.91986
2.19324
-6.1343
3.77198
2.36232
0.844421
-3.22507
2.30326
0.028483
-2.47548
0.480897
1.19432
4.15213
-1.50901
-2.64312
0.123849
0.966184
-2.54988
0.749873
-3.53895
3.41635
-2.75689
0.717364
1.77845
-2.28576
0.560827
1.72493
-3.90078
2.19222
1.70857
-1.22008
-0.672877
1.156
-3.99177
2.85273
1.13904
3.33858
-5.07548
-4.25039
0.0191013
5.71422
-2.18474
0.722653
-0.73743
0.0147776
-0.116761
-0.696225
0.812985
0.333514
1.54185
2.02167
-0.61228
-1.67348
0.469446
1.05403
0.668011
1.58735
-2.25536
1.70577
-0.977465
-0.102529
-3.80319
3.90572
-1.3346
0.974172
-2.63596
-2.67955
-1.89518
4.57473
1.02309
-1.50207
-2.86177
0.867521
1.99425
-0.0758503
0.314541
-0.238691
4.24189
-5.18138
-1.41535
0.302855
4.472
0.360388
-4.83239
-0.257362
0.402296
-3.36755
0.999508
2.36804
-3.7938
2.09295
1.87258
-4.02342
-1.29173
0.117454
0.00135283
-0.0772031
-0.132654
3.22712
-2.25334
3.05795
-0.80461
3.14995
0.0119156
-3.16186
-1.8076
-0.0540267
-0.815749
0.167398
3.22119
0.604745
0.133342
1.60446
-0.687488
-0.278614
1.96123
2.83837
-2.38723
-3.68178
-0.271255
-3.07181
0.853848
-3.61476
0.768738
0.826238
-1.59498
3.64019
0.171531
-3.81173
-0.519719
0.486588
-1.44728
-2.81194
-2.96301
-0.606317
-1.57496
5.42193
-1.34296
1.9839
-0.640942
-4.25337
1.29394
-1.30065
1.96866
-1.78614
-1.62311
-1.96013
-0.885303
1.0434
1.51482
-0.413611
4.30667
-0.599243
2.53237
0.311251
-2.84363
0.252685
2.0208
1.17295
3.91707
-3.61881
-0.273051
-0.950818
1.44527
-1.80466
2.17114
-1.97023
-3.27877
0.984235
0.722233
-1.70647
-3.44269
0.0541035
-0.639434
3.10499
-2.46555
-0.0774823
-4.79794
-2.39941
2.96347
5.52232
-2.66132
-2.86099
-0.252065
0.842296
2.58818
-0.91281
-1.67537
1.14871
-1.28392
0.190843
-0.412113
-0.452347
-0.178104
0.630451
-0.365429
1.48409
-1.96294
5.30151
-0.000730523
-0.76792
-1.11185
-0.471671
1.58352
-0.281217
4.5231
0.254454
-0.282644
0.0281894
-1.57778
2.3743
1.39752
1.62622
-2.07318
-0.143628
2.28772
-0.895991
-1.39173
0.285447
-0.456872
0.171424
0.59204
-2.74495
2.15291
-3.61332
0.650308
0.951036
-2.74666
3.60051
-0.0556456
1.20435
0.658092
-2.00105
-3.30872
1.73415
-3.84936
1.12269
-1.93849
0.363831
-1.24139
-2.24179
3.48318
-3.41401
-0.0716687
0.0569096
0.0147592
3.57938
-2.93693
3.03529
-1.72792
0.330396
2.15401
-2.48441
0.403883
-1.17364
-1.96334
-1.4921
3.45544
-2.14075
-0.13635
2.2771
-3.16103
4.87009
-1.70905
2.61196
-2.2947
-0.317257
2.73952
0.117884
-2.8574
-1.8668
-2.64148
-1.23415
-0.286479
1.87472
2.58449
-0.0442549
0.480229
-0.435974
-2.65195
-0.715602
2.41606
2.10479
-2.13342
2.67516
-0.541735
0.212737
-0.245591
0.359272
0.485776
-0.845048
0.807216
0.209093
-0.380738
-3.61103
-4.05286
1.05161
0.0335832
1.83008
-0.541309
0.358105
2.69347
-3.05157
-1.93022
-0.238623
1.72974
2.0429
0.301121
-1.1694
-0.65919
0.378455
0.280734
0.00660192
-1.39629
1.38969
-0.518684
-0.158762
1.73641
3.40647
-1.66972
2.82375
-1.84957
-0.519199
-1.0631
1.5823
2.80766
0.529855
-0.120779
-2.76298
1.93797
3.29898
-3.58019
-1.65597
-2.78816
4.44414
-2.22071
-2.47988
-4.03931
4.07024
-0.0309317
-0.437682
-1.03708
0.647616
2.18837
1.21809
1.25426
0.180358
-1.43462
-1.09336
-2.19372
-1.265
-2.06443
3.32943
1.75955
0.00416563
0.171036
-0.760948
2.15707
-3.60435
1.47838
-1.32641
-2.03975
3.14507
-1.10532
1.60701
1.44027
1.48066
-2.92092
4.13494
-2.20551
-1.92943
-2.51076
-1.97429
3.4792
-1.50491
0.089553
2.44282
-1.25574
1.20009
1.62739
3.0194
-0.947264
0.830503
0.160375
0.0383377
3.59438
-2.02644
2.31942
3.6285
-1.74668
0.977682
0.769
0.747668
-1.33503
2.70636
-0.0278193
-0.252129
0.974781
-2.32943
-0.44326
2.77269
0.811947
-0.0737694
-0.738178
0.748237
0.15979
0.508714
-3.92519
-1.23603
1.46509
2.45156
-2.33998
-0.111578
0.759347
1.52837
-0.685634
0.321699
1.23575
0.828822
-2.06458
-1.46117
4.28853
0.447489
-1.78669
3.69086
-1.90417
-0.707277
1.14205
-0.480481
1.04778
4.08447
-2.10601
-1.368
-0.605401
2.04238
1.32097
-1.60012
-0.803072
0.715364
-1.13034
-0.644315
-0.0487857
1.01783
-0.751049
3.06721
-2.31616
0.438571
-0.464606
-0.874528
0.410699
-1.42937
0.195224
-4.65273
2.71477
1.12205
0.850076
2.0526
1.37229
-3.42489
0.491375
0.45066
2.7558
1.70347
-4.45928
-0.525442
-0.0474963
0.572938
1.24018
-2.89213
3.86953
1.65278
2.92339
-2.56529
-3.5112
0.0539939
0.476291
-0.809696
1.64908
1.15152
1.56868
-2.7202
1.75525
-0.318211
-0.0946652
-1.26852
-0.478158
-2.09217
-1.07506
1.48001
2.24613
1.24354
1.96359
-1.92762
-0.0359674
0.837784
0.0215
-0.270149
1.07882
-0.142311
2.87808
0.706401
-3.58448
0.910726
-0.953319
-0.983266
0.605472
0.377795
-1.44539
-0.0710244
1.51642
0.0744881
2.77054
-2.84503
0.829844
1.40045
2.48085
-0.0813294
-1.12736
-0.867546
0.180058
-0.466556
0.963161
-0.496605
-4.40392
1.61676
3.17393
-2.41347
-0.760462
0.0690869
-0.653859
0.584772
3.06729
-3.27944
1.18455
0.574998
1.81965
1.21565
-0.630385
-0.0139295
-0.74207
0.739094
0.00297569
-1.8551
-0.562743
3.99526
-2.05438
-1.94088
0.594111
0.380799
-0.974911
1.81801
-2.82809
1.01008
0.277994
1.98956
0.242417
0.921836
3.03953
-3.96137
-0.0673673
-0.674702
-2.29719
-0.920424
0.825223
3.36809
-0.00484248
-3.36325
-3.4405
-0.378844
0.2226
0.629916
-0.117426
1.34047
-1.66939
-2.67979
1.97104
0.00481384
0.243283
-0.186351
0.44999
-1.61096
1.94135
0.0276256
1.15403
-0.183345
-0.267449
2.29143
-0.0739321
2.03752
-0.928072
-0.569697
-0.821276
2.05703
-0.349501
3.25024
-2.90074
-2.88769
-0.502665
-1.99517
5.37399
-3.37882
-0.952914
0.0324899
1.35368
-0.233533
-0.0624393
-1.05222
1.11466
-3.16026
1.05425
0.632822
-0.623157
2.81272
-5.29839
2.277
-4.86886
-1.68385
2.95858
-1.77794
2.10779
-1.27897
0.0401629
-1.98438
2.57642
-0.00486549
-0.664313
0.229167
-1.69546
-0.560203
-2.15474
2.71495
0.609998
3.5191
5.70942
-3.72721
-1.98221
-0.882944
0.395211
0.999221
0.0836059
-1.08283
-3.01628
0.762945
0.87779
-0.0323634
-0.0192945
-0.582161
0.601455
3.28434
-5.27951
0.392666
1.6589
0.31358
-1.97248
-3.66415
3.31464
0.647028
0.155765
-0.802792
1.68625
-4.10738
-0.631655
0.00881893
0.622836
0.841041
-0.194013
-0.0219061
2.76687
-1.89529
2.0923
2.04758
-1.21774
-3.87435
1.1948
-2.34492
2.12102
0.223904
2.67497
-4.33094
-2.01201
-1.09501
3.10702
-0.182642
1.76296
-1.24161
1.13963
3.87926
-0.60609
-3.27317
0.00159358
-3.68338
2.5167
0.222817
1.66951
0.918672
-0.691025
0.00052599
0.664811
-0.886866
-1.54599
-0.116955
-0.243444
0.360399
0.0144629
-3.02427
3.0098
-0.542191
1.5766
-1.03441
2.3975
-4.84047
2.44297
-0.0824528
-2.00498
-0.111081
-0.360088
2.38002
-1.42081
-0.720786
2.14159
-1.5095
-1.16923
1.81596
-1.09373
0.384319
-0.550136
0.165817
3.82631
-1.77371
-3.22834
-0.351663
-0.392302
0.743965
1.157
0.470895
-1.6279
1.10829
-2.94668
1.83838
0.405551
-2.15148
0.638712
-4.2667
-2.04114
-2.56261
4.60374
-3.36515
0.123446
3.24171
-3.7827
-2.87287
0.281761
-1.3068
1.28218
0.0246218
-5.26581
-1.15324
4.03132
1.59986
-0.729628
0.48332
-1.3046
-0.549286
1.94974
0.643115
0.481776
-1.59363
0.0742459
-0.686589
0.612343
-0.477593
-0.118752
-0.468629
0.537716
-1.36977
1.87117
-4.17301
2.3673
1.80571
2.79176
-0.257496
1.52547
0.885541
-0.0735932
1.84506
-0.590801
-1.8561
-1.00567
-2.15959
0.673092
1.4865
0.0636095
-0.170095
0.106486
-1.85014
1.85674
-0.429741
2.78758
0.164928
0.0895264
1.58466
-3.09416
1.55394
-1.80238
0.248442
0.554082
-0.0502519
0.173371
0.0130069
-3.46063
2.21925
-0.601968
1.19608
0.0518701
-0.836703
0.784833
-5.41358
2.03818
-1.26356
1.3091
-0.784805
-0.0740235
-0.902376
0.976399
-2.22081
0.800001
-3.79403
3.41329
5.78647
-1.31447
-1.11301
1.03921
0.0738022
-0.196012
0.0837817
-0.650949
-3.33931
1.88591
1.4534
-0.641305
0.593809
-0.145929
1.52518
-1.37925
1.48411
-0.299561
-0.0652686
-0.141919
0.207188
-1.18214
1.20976
-0.19743
0.283504
1.89596
-3.94375
3.60104
0.232609
-2.65895
0.355342
3.29545
-0.157878
-3.13757
-0.25187
1.35415
-1.10228
1.56693
-3.36645
2.31192
-3.99056
1.67864
0.0401451
-0.101867
0.0617221
-3.94161
4.0475
-0.105882
-2.14985
1.45789
2.49086
0.0644314
4.39264
-1.80688
-2.58576
-0.277836
-0.86442
1.14226
-0.63975
-1.3136
-0.0382218
-1.24132
-0.0722841
0.392259
-1.17388
0.781622
-0.378675
3.37887
-3.00019
-2.834
0.693915
2.14009
0.938314
2.9843
0.0442985
0.361839
-0.406138
2.17312
0.925131
-3.09825
0.245328
-0.348252
-1.34069
2.98252
-1.64183
-2.76881
0.439374
2.19659
0.972214
-2.98422
-0.0119344
-0.511717
0.523652
3.9721
-1.42444
-2.54766
1.87548
0.945118
-3.54899
1.90774
3.43191
-3.53444
-1.7647
0.167305
1.59739
0.232847
-0.114481
0.0489924
0.0654884
0.143828
0.015523
-0.159351
-0.0323147
0.573504
-0.541189
-1.09503
1.0495
0.0455335
-2.11508
4.27215
-1.21716
1.13984
1.11986
-1.26579
1.25948
-2.17117
0.911688
-1.94741
-1.54922
0.0314391
0.0478095
-0.22824
0.0208211
0.207419
3.38561
-1.77501
-1.6106
0.169779
2.28178
-0.977175
-0.550401
-2.26844
0.456918
3.21527
0.212842
-3.42811
0.0079992
-0.153288
0.145289
-0.0341405
1.4742
0.695961
0.153718
-0.849678
5.0601
-3.12857
-1.93153
-5.09121
1.00844
0.22322
-3.20276
3.49612
-0.293352
0.645312
-3.12733
0.928934
-1.1873
0.184614
-0.0112428
-1.75515
3.28385
-1.52869
0.641326
0.101203
-0.513728
-0.809679
-0.964998
0.964268
-0.254415
0.113378
-4.20057
5.5772
-1.37663
2.24751
-1.79806
-0.449442
-0.673269
0.154585
1.00959
0.212323
-0.981948
0.799633
-0.382181
-1.24329
1.90012
-2.37492
-3.18065
4.10248
-0.301324
0.212229
0.575418
0.265623
0.0336637
0.00648141
2.98867
-3.12773
0.139065
3.72807
-1.69053
0.941142
0.749392
0.471627
-1.42244
-1.84278
-3.26646
-0.991945
0.918176
-0.659505
-1.11175
1.77126
-3.0012
0.752794
0.561908
0.877677
-1.43959
-1.85926
-0.281488
-0.459505
-1.73668
4.49293
0.397003
-3.13569
0.820058
-2.07982
1.25976
-1.11085
1.41197
-2.24909
-3.16449
0.0267811
-0.430253
2.03585
-3.09146
1.48675
1.60471
-0.135936
-1.27668
0.176317
-1.49245
1.31614
-3.75043
-2.21218
-0.676381
0.6852
2.97133
1.84905
1.30016
1.92369
-2.08603
-1.61795
3.21488
-0.239797
-2.97509
0.0112758
1.8117
3.27246
-2.81578