/*--------------------------------*- C++ -*----------------------------------*\
| =========                 |                                                 |
| \\      /  F ield         | OpenFOAM: The Open Source CFD Toolbox           |
|  \\    /   O peration     | Version:  2306                                  |
|   \\  /    A nd           | Website:  www.openfoam.com                      |
|    \\/     M anipulation  |                                                 |
\*---------------------------------------------------------------------------*/
FoamFile
{
    version     2.0;
    format      ascii;
    arch        "LSB;label=32;scalar=64";
    class       volScalarField;
    location    "2";
    object      p;
}
// * * * * * * * * * * * * * * * * * * * * * * * * * * * * * * * * * * * * * //

dimensions      [0 2 -2 0 0 0 0];

internalField   nonuniform List<scalar> 
5098
(
-0.788473
0.407517
0.293739
1.73312
-0.337689
1.94691
0.00990133
-0.48821
0.274323
-0.412024
-0.548081
0.654803
0.201158
2.20731
-0.182999
-0.0048944
-0.574667
-0.643608
-6.11671
-0.583077
1.14558
-0.0139388
0.738665
2.75737
-0.717394
1.87868
1.16
1.2288
-5.90526
0.439518
0.489607
2.37911
1.38764
-0.43918
-0.279772
-1.95547
1.38347
1.27485
2.11878
0.910384
1.6984
-0.855068
1.85209
0.241891
-0.269934
0.462954
-0.591504
2.41633
0.505821
1.76813
0.144513
1.58896
-0.630508
1.26807
1.94762
1.83469
1.31933
1.61998
2.38549
-0.00663784
0.111218
-0.625955
-0.290992
0.222887
-0.65943
2.2349
0.108065
0.128895
1.08079
1.53774
1.2729
-0.0753998
1.05981
-0.383673
0.0305965
1.76988
0.0556193
1.89178
0.14454
1.77864
-0.0233568
-1.24251
1.69952
-0.458855
-0.640353
0.373421
3.06528
0.0320395
-0.519033
0.112276
0.760253
-4.6358
0.719715
1.73419
2.12986
-0.891022
1.51353
1.93334
0.0261475
1.09417
-0.433738
1.89002
-0.128304
0.156349
1.90012
-0.562439
1.18707
0.00621016
2.4587
-0.566792
1.63621
-6.01338
1.31812
-2.94665
1.10976
-6.9963
-1.0942
-1.58418
0.0623049
2.7314
1.53559
0.308814
-0.343722
-1.01911
-5.63057
-0.589713
1.24051
0.783051
2.16243
-3.29607
-0.756356
2.3165
2.28601
-1.32816
-0.33748
-0.602137
-1.38174
1.1523
2.14178
1.25051
1.57659
-0.566305
1.14526
0.271716
0.492862
0.0925655
1.13511
-0.253723
-0.430376
0.923212
-0.774969
-5.82552
-0.288516
1.33413
3.08306
2.676
1.62419
-0.398486
1.70289
-6.01054
1.26791
-0.226688
-6.03804
1.55311
-0.680049
0.404733
-0.336824
0.413305
-0.714393
1.61729
-0.439154
1.77169
0.203603
1.23916
0.467132
0.636992
1.68404
-1.78569
1.63865
3.05743
-2.71717
-1.04915
1.52364
-0.683995
1.52149
-0.939822
1.84703
1.35177
1.74535
-2.2909
-5.81049
-0.0904257
1.01108
-0.0246672
0.440311
-3.59499
-1.37922
-0.666509
0.0506773
1.58379
-0.732656
1.5685
-0.27948
0.4688
1.22248
2.67404
-0.413693
2.17131
0.896739
0.994126
1.39887
1.54257
-0.0679306
0.441493
-0.332593
-5.66845
-0.0368331
-0.580932
-5.53363
0.683934
0.668532
1.86538
0.149175
0.650581
-1.60052
1.27822
2.97132
1.21973
1.16066
0.0277768
1.27687
2.82192
-1.25342
0.0553596
0.356207
0.37931
0.98545
-0.983232
-1.01
1.53403
-1.27502
0.186677
0.177883
2.49618
1.17139
0.744473
2.16368
-0.578953
-0.564684
0.682856
0.186618
1.17742
-8.3966
-0.799575
1.36403
-1.1253
-0.323953
-0.753768
2.37607
0.025053
-0.901633
-0.750537
-0.711615
1.07497
0.0616657
-0.639934
-6.02202
-0.542044
-1.21352
1.5253
-1.87339
-0.0463761
-5.91202
-0.976318
2.34709
-0.140773
-0.804553
-0.753181
0.509608
1.38477
-0.74081
-0.424194
-1.3904
-0.469832
-0.469306
-0.459669
1.35601
0.122364
0.410034
0.727265
-1.03986
-10.281
2.48199
-0.228896
1.14741
-0.67633
-0.365087
0.451208
1.15561
1.36374
0.089044
-0.573751
1.8282
1.10671
-0.637995
1.37212
-1.96575
0.608763
1.49854
-0.58711
0.787131
-8.91261
1.90781
-0.0148871
0.181641
3.05945
-1.41714
0.139738
0.896989
2.60392
0.148422
-10.6116
-0.844926
-7.83514
0.107991
2.15009
0.279115
1.15421
2.43022
0.0579068
1.51494
0.872195
2.14448
0.412973
1.49821
0.160583
0.465502
1.79357
1.03017
1.48886
1.10594
1.56711
0.187201
1.28048
-5.75468
0.0243734
1.18953
-6.36174
-1.56361
0.613608
0.195336
2.57592
2.57664
-0.734033
-0.0219737
-0.72543
-0.511471
0.50798
2.12577
-0.0443713
1.23745
1.19725
0.914836
0.0665288
0.234033
2.37402
1.27126
0.724615
0.474484
-1.23091
2.2882
0.203369
-2.49749
0.0589282
-0.14824
-0.625274
1.54338
-0.127733
0.477268
0.0545447
1.29689
-0.589257
1.3894
-0.41748
0.272809
-2.36666
-0.267503
-0.929292
1.66869
-0.242089
1.18243
0.250261
1.25186
1.6413
0.901127
-2.01245
1.80011
-3.9431
0.378693
-0.313103
-7.30226
2.52852
1.79994
1.24096
-6.8372
0.382402
1.24305
-0.651726
-0.125235
-0.498478
1.19656
-0.150482
-0.759094
-0.0427676
-1.76659
0.0650031
1.12034
2.54649
-2.22248
0.582219
1.23274
1.85887
0.124396
0.636056
-0.727656
-4.75159
-0.474223
-0.209803
0.166634
1.25309
0.116846
-5.93994
-0.00359068
1.38064
-2.09401
-8.28225
0.133865
0.779948
0.994436
-2.16517
1.60784
1.49673
0.830061
-0.57964
1.12828
-1.81632
-0.910328
-0.182741
-5.57243
1.24365
-0.573262
0.808402
1.22578
-0.555348
-0.544789
0.271902
-0.857182
0.521972
1.29108
-2.97387
1.82561
0.0517443
2.51852
-2.55051
1.67583
-0.604628
-2.06229
-0.909581
-0.635454
1.66033
-5.27153
0.430427
-0.387679
-0.873709
1.13121
-3.07783
-5.45803
1.88702
-3.11694
0.779772
0.770709
-0.925124
-4.42322
1.01068
0.1624
1.45579
0.164195
-0.309771
-1.14134
1.3047
-2.67424
-0.229334
-0.485101
-1.91672
-5.96374
0.0684237
2.01658
-3.67259
1.94018
1.2753
-0.635939
0.749828
-5.70678
-0.620252
-6.00899
-3.8454
0.861554
0.730922
-1.95456
-0.273804
-6.61498
1.21993
1.40675
0.38376
0.664496
1.22191
2.60295
-0.630579
-0.291258
2.03728
-0.657867
-0.280486
2.53092
0.0614289
-2.97768
-0.0521752
-1.07629
-4.9569
1.22998
0.487803
0.295844
2.94556
-0.68582
-0.144266
-0.382801
-0.333707
0.154214
-1.69879
-2.67468
-0.546979
1.08402
-0.276268
-0.631236
1.51828
-0.569305
-0.630139
-0.268723
-0.392518
2.98733
-2.79601
-2.23716
1.4887
0.0797887
-5.14469
-0.473508
-0.514612
-0.754195
1.92477
-0.563427
-0.505903
-0.534931
-0.224884
1.46745
-10.5731
-0.330395
-8.93657
-9.56295
0.0566708
-0.705361
-8.69293
0.598372
0.323784
-9.98319
1.17824
1.54568
3.00659
-0.219998
1.49242
2.17023
-0.470864
0.0690015
-0.744349
0.545243
-0.440195
0.173772
-0.109248
0.0737234
0.861864
0.494353
-0.627327
-7.8321
2.50685
-1.03955
-0.66617
-0.261027
1.4695
0.777237
0.706562
-2.42833
-2.15361
0.0578868
1.88573
0.472895
0.0646918
2.31734
-0.458682
2.18991
-0.706179
-0.635557
-0.367113
-0.511001
-0.628133
-8.15403
2.24766
-2.17122
-2.31298
2.27997
-0.459105
-0.213162
-0.317085
2.48171
-7.08432
2.01493
0.106467
0.0124372
0.0949707
-3.80288
0.946789
-0.244672
0.100895
-0.708756
1.16531
1.67252
-0.71407
0.158591
1.63522
2.43899
-0.643101
1.52189
2.97884
-1.9273
0.831437
-0.412029
1.32359
2.00431
1.73496
-5.08977
1.26755
0.303157
-0.664509
1.17726
-0.199934
1.57978
-0.415343
1.33647
0.75087
-0.351569
0.0708498
0.280621
1.3174
1.70126
0.0758823
-0.587452
2.4034
1.49771
1.82853
0.135814
-0.23183
0.0690203
0.0806168
2.32974
2.54259
-3.13655
1.41151
-0.650673
-7.72637
-0.00763358
1.34785
-5.34351
-5.97978
-0.656464
-0.603385
-0.129792
0.583656
-2.95218
1.4059
1.75424
-6.00922
1.8084
0.0140225
1.31765
-0.723449
-0.511095
0.0304505
2.46107
-0.168176
-0.28968
-0.910229
-6.55265
1.21315
-0.3784
0.634205
2.2576
-0.662659
-0.653897
-3.26772
-0.678803
-5.25038
1.74247
-0.837357
2.53317
2.39222
2.22988
-0.694573
-5.02514
-5.53782
-5.43787
0.0848694
-8.78682
-5.8372
-1.94078
-0.677508
1.83885
-3.66641
1.58846
-0.713637
2.19875
1.14765
-7.17081
0.142124
-6.77156
2.85204
0.0871286
1.19176
-0.940082
-0.676609
-0.488312
-0.66655
-4.38505
1.72902
-0.233958
-0.331262
-8.55891
-2.50399
0.761033
-0.633784
-0.0868566
0.0399585
0.183293
0.269537
-0.727898
1.72343
2.22694
-6.17346
0.880283
-0.701671
1.62875
-5.6858
-0.62577
0.848624
-0.664086
0.0542112
-3.20265
-0.209446
-0.778243
-0.34326
1.49793
1.018
-4.65875
-0.116286
0.797818
1.11349
-0.127121
0.347836
-0.736345
2.90678
0.896245
1.58459
-0.279348
0.558402
-0.673217
-0.835049
-0.268053
-0.647857
-0.470961
2.31313
1.96294
-0.607735
0.76801
-0.630331
2.0466
0.494499
-2.33371
-0.770072
-2.35419
-5.79918
0.06186
0.223757
1.38946
-1.41442
-0.161904
-9.85714
1.08589
-0.597951
-6.83787
1.82248
0.663525
2.36314
-0.293458
1.47011
1.80075
1.66692
-0.256428
1.50639
-0.121976
0.187961
0.246807
-1.0318
0.795032
-7.24684
-0.630724
-0.460832
-0.76467
0.546744
1.29278
0.465479
-4.42699
0.225587
3.02811
-0.62102
1.58444
0.0741703
2.25578
-10.2211
1.24799
-0.483798
-0.697616
2.42676
-0.420554
-5.03927
0.526012
2.52305
1.54219
-0.347353
-0.468016
-1.83974
-8.23219
-3.02364
-7.89835
1.6297
-8.08005
-3.42306
-2.02918
0.995291
0.0609468
-8.27961
-0.590556
-6.66531
0.880556
-0.0468842
1.42241
-0.393693
-9.12309
2.26995
-1.447
-1.45188
-10.1818
0.311971
-2.79193
-0.734597
-0.932921
-0.157532
0.045732
1.14351
-0.643949
-0.597006
-7.89303
0.199118
0.164063
0.226758
0.112001
-1.18814
1.1866
-0.521873
2.22766
1.75953
0.44382
1.78742
0.515324
1.16048
2.71435
1.7946
-0.873064
-0.492508
-0.0591204
-0.489428
-0.539286
-0.71665
1.5264
-4.7469
2.05578
2.14496
1.37105
1.34802
-0.794336
0.657597
-1.82559
-0.0154135
2.29758
1.62725
-0.280291
-0.0993979
-1.2246
-0.548176
-0.53672
-7.39217
-1.62578
-0.511497
-0.16992
-0.554971
0.389119
2.37419
1.435
1.67279
1.51356
1.70543
0.0404289
-0.145925
-0.265425
-9.28423
0.369525
0.0576515
1.12328
0.885362
2.46123
-0.567292
-0.477788
-0.0156268
1.33385
-0.534977
-0.0500899
-8.66611
2.81362
1.30137
-8.5517
1.32821
-0.503947
-0.800954
1.17892
1.55295
0.764784
0.343869
0.525618
-0.541353
-0.107108
0.113135
2.31401
-1.45638
2.02317
-0.666925
-0.509558
-0.847095
1.06534
1.67826
-0.721202
0.0634139
2.79338
0.311115
1.15488
1.21356
2.54151
0.0640354
1.54604
-0.291486
1.58247
0.0726797
-0.077513
2.06254
2.92325
0.345766
-0.446259
-0.117067
-0.571023
-7.14722
1.47806
0.610628
-2.60556
1.29752
1.75922
1.27355
1.36872
0.17579
1.44161
2.07806
-0.49538
2.63795
1.72354
0.663665
0.0572866
-1.23941
0.0666976
1.4595
0.210613
1.4985
1.72203
1.33157
-0.655292
-0.642237
1.77353
0.920275
1.95238
-0.183022
1.29035
1.57996
0.976832
1.82201
1.80634
0.0909094
0.11671
1.38238
1.77722
-0.569822
-0.322799
-0.919381
1.73572
0.291535
1.52996
2.56132
-0.706776
2.46588
2.75083
-0.368026
-0.518452
0.0148896
2.98791
-4.04325
1.68812
2.57483
0.587625
-1.06338
0.699945
1.05601
2.71955
1.02528
0.973021
2.85214
1.97911
0.0841973
2.83043
2.25097
0.132013
-0.613277
-7.74676
0.0222357
0.194653
1.67527
2.22015
-4.06581
-0.0570955
0.849922
0.382298
1.96545
-1.39308
2.41905
-0.704059
-0.86018
1.15383
-2.34906
1.72659
-0.466596
1.1083
-0.647483
2.22738
1.46061
1.36685
1.47225
-0.746144
-0.180285
-0.0111535
0.772168
0.860079
2.37066
1.61151
0.0175966
0.929624
0.313456
-0.667968
2.2017
0.132801
1.8157
-0.532854
0.00643016
-0.65797
0.264377
0.692233
2.50915
-0.322236
0.904939
-0.653553
-0.413127
2.12254
2.10414
-0.703418
2.0705
0.448195
-0.671823
0.17934
0.820823
2.93703
-0.101521
-3.06635
1.87278
-0.535864
1.54572
-1.72309
-1.02042
0.138437
-4.97885
-0.676037
0.312929
1.54388
-0.0532272
-0.63367
0.023227
-0.379431
-2.07695
0.658143
2.40202
1.05407
0.925728
-0.503877
-0.512866
0.267502
1.10821
-0.313689
0.0286747
0.0565438
0.00563118
-0.31064
1.0184
0.434489
0.643384
0.966271
0.884005
-1.63488
-5.45225
0.309579
-0.498362
2.79403
0.864451
0.548923
-0.476311
-0.54618
-0.629365
-0.0679518
-0.619648
-0.95861
-0.221441
-0.487427
1.5418
0.257364
0.0285646
1.66361
-0.666471
-0.807401
2.34409
-1.544
-1.90507
0.404922
1.31068
-0.5844
0.336575
-0.506319
0.131049
-0.583943
-0.27259
1.72123
-0.709359
0.8067
0.0787051
-0.691892
-0.618823
-0.158166
1.19067
0.263394
-0.638095
2.34516
-1.48883
1.46396
-0.833689
-2.78503
-2.38343
-0.243761
-2.85436
1.39799
1.35704
1.43942
-0.211193
-0.794825
2.06495
-0.651973
-2.67194
0.0208591
-0.71245
0.0479267
0.168515
2.10714
-2.07771
-5.90232
-0.442931
0.992914
0.858487
-0.825416
0.91052
0.13767
-0.418087
0.418327
0.806434
0.478002
-0.080508
-0.734862
2.18399
-0.185266
0.0299788
0.798316
0.0241268
0.925295
-0.769419
-0.239459
-0.316804
0.982461
0.0475467
0.080548
0.633739
0.0074057
0.102191
-0.367436
1.45616
-0.0621283
-0.358848
1.28777
1.19109
0.0324733
0.647643
0.702932
1.35792
1.75945
1.53833
-1.54938
2.41381
1.12193
-1.64397
0.945536
-0.799412
-0.111345
0.0517568
0.583052
-0.761194
2.42575
0.267359
0.370738
-0.461313
0.517746
-0.461878
0.372836
-5.29375
1.09852
-0.486643
1.27432
0.683956
1.3683
-0.840834
1.80118
-0.65614
1.32926
1.44931
0.38777
-0.44153
-0.781033
-0.604768
1.64869
-0.688694
-6.01002
1.63726
0.861096
0.0341708
1.66155
1.17445
-0.488807
2.22583
-1.97058
0.0856776
-0.678129
-0.821963
0.0327331
-0.118081
-0.371776
2.49085
0.0572804
0.383927
-0.168991
-0.550374
1.4515
1.76089
0.0128587
0.0263075
1.26228
-6.01709
1.25631
1.36254
-0.192289
-0.218257
0.901426
-0.0393138
2.52728
-5.15671
1.104
0.0148576
-1.39436
2.50497
1.53005
0.103846
1.98709
-0.448598
1.80797
1.75486
-0.291526
1.28947
1.2627
0.932963
1.29953
-1.04406
1.42135
-0.0765844
0.61363
0.0116976
-6.71807
1.54507
-0.872373
-6.14824
-0.105832
-0.0527867
0.991165
-9.77058
1.28943
0.150584
0.592653
1.2659
1.06519
0.171583
0.19666
-0.533548
1.29079
0.69081
-0.679935
-0.532569
-0.535653
1.41359
-0.671505
-0.689641
1.18378
-0.678598
1.75061
0.733189
-0.709246
-3.84321
1.56556
1.76825
-0.267451
1.10147
-9.62331
-0.511642
-6.04332
0.34569
-0.517481
-2.64296
2.71329
0.549871
-10.7281
0.0336781
-0.339758
1.28325
0.732512
-0.581454
-1.79785
-0.660741
-0.47225
-8.46455
0.973027
2.2091
-0.329798
-0.694207
0.0572584
-0.920321
1.82327
2.75411
-1.54443
0.911292
1.4385
-1.24572
0.351727
2.42519
-4.09034
-0.500912
1.0634
1.12558
0.950452
-0.513836
0.724304
0.0218286
0.793714
-2.19817
0.0638245
1.43473
-0.222775
0.303574
0.78077
1.27508
0.896833
0.0790372
0.508543
1.3642
0.937064
1.22161
2.54391
-0.862669
2.35587
0.0249968
2.30228
2.90394
-1.77697
0.184048
0.28282
1.30294
-5.83773
0.666706
0.828261
0.0531423
1.49443
2.04437
1.55053
1.59875
0.390902
0.886842
-0.974
2.81835
-0.616163
-0.903871
-0.642872
-0.45818
-1.02392
1.38046
1.59429
0.728798
1.6708
-2.43523
0.0795845
1.74241
1.28841
-0.113552
-0.237066
-0.0403141
-0.194321
0.357515
1.45354
2.6714
1.28833
1.87753
1.80399
1.51368
2.54183
0.869042
1.29999
0.111242
-0.574943
0.58469
1.03165
1.0084
2.86171
0.261344
0.666201
0.00487037
0.0740978
2.71957
0.740784
-0.291467
-0.751613
1.10912
-0.64298
0.0265806
1.9559
1.35496
1.22693
1.44094
0.150851
2.02245
-7.55697
1.20481
0.188481
0.128157
-0.52521
2.19819
-0.390034
-0.409803
1.33386
1.3003
-0.407843
1.16818
2.26789
-0.126854
-0.71322
-0.599737
-6.16302
-0.299633
-0.68103
-0.313042
1.24733
0.395572
0.0549004
1.44778
-0.265943
-0.268277
-0.716958
-3.40363
-0.594746
0.245806
-0.622687
-1.31694
1.29152
1.29296
1.89218
-0.595288
0.535274
-0.461439
1.22379
2.16183
-0.894255
0.0259942
0.0320761
2.28026
1.00182
-0.485485
-0.475812
-6.04224
0.0239549
0.109481
2.41756
0.0387154
0.00391922
0.62775
0.400273
0.0130408
0.678794
0.289139
0.618007
-1.02399
-0.698226
-1.17288
-0.777939
-0.0154982
0.542295
-5.73937
1.51711
0.756334
2.60576
0.454553
2.33056
-0.711381
1.54012
-0.4013
-0.256435
-0.450795
2.13614
-0.264706
0.0468837
0.225086
-4.49953
-0.539506
0.0154689
0.0516292
0.0498375
-0.0812055
-0.0143767
0.282363
0.828153
1.66139
-5.75198
0.13811
0.265261
-0.0968902
-0.594097
1.49628
0.0634435
0.736569
-0.0606721
0.0402921
1.97974
-0.770195
0.578692
0.0016622
0.0525023
-0.193371
1.94434
-0.864106
0.00824466
0.0070383
-8.68329
-0.314135
-0.0082592
2.31609
1.62902
0.0132786
-5.19547
-0.692189
1.35471
0.0851563
-0.0892738
0.00797855
0.511733
0.111383
0.00953297
-0.367936
0.00603049
0.571788
-0.342212
1.43093
0.16285
-0.444376
0.0979199
0.478174
0.123088
0.134335
1.44684
0.0535431
-0.150284
-0.222468
-0.00183906
-0.521994
0.00654617
1.44094
-5.7718
-1.17219
0.087154
-0.0404484
-2.01402
-0.378003
-0.00121949
-0.00579273
2.06991
0.834595
-6.2517
0.0282907
-0.699339
-0.573643
-0.301317
0.0203582
1.38282
0.687122
1.04658
1.37109
-0.146291
-3.56579
-0.415576
-5.75119
-0.573173
1.53495
-0.0371837
0.443531
-0.823198
1.67605
0.0515426
1.4215
0.108664
0.133923
1.83159
0.0264299
0.0324153
-1.23118
2.01712
-0.060593
1.19026
1.38144
-0.543917
0.0342698
1.25665
-5.4872
1.97148
-0.226927
1.91901
-0.546853
0.0597477
0.155943
1.42296
1.86487
-1.34456
1.09803
0.530381
0.0257041
2.1411
0.430314
-0.705041
1.27791
0.00787737
0.10845
-0.432171
-0.684438
0.0259992
-0.646523
0.00292567
1.1222
0.898523
0.0227184
0.0644694
0.559549
0.107338
1.27632
-0.421752
0.0145047
-0.433431
-0.389601
0.075194
-0.609226
1.13299
0.0841501
0.0229387
-9.48519
1.50722
-0.00597445
-0.601153
-0.0311191
0.403706
2.29112
0.0171375
0.00671564
0.977395
0.168933
-0.0221582
0.0651177
-2.18672
-1.25211
0.0633129
-0.0247992
1.42057
0.00756497
0.0397403
-1.66876
0.0367889
0.0368529
-0.124949
1.34401
-0.113912
0.0259121
0.273844
-0.599947
0.118152
0.0185357
0.831886
-0.63025
0.165497
0.127463
0.105527
0.0543525
0.036553
0.0174683
-0.678051
-0.246961
-0.288632
0.316145
0.768799
0.104916
0.612486
0.637101
0.0228794
0.0277093
0.700135
0.00880688
0.0268821
-0.269552
0.130504
0.256305
-0.991063
-0.67561
0.0232777
0.23251
0.156008
0.793253
0.643083
0.116287
-0.113886
1.35252
0.0706461
-0.655092
0.0137925
-1.46872
1.86915
1.31092
0.149351
0.0246707
0.03353
0.105544
0.0382075
0.0414748
-0.620558
0.119018
1.23362
0.240261
0.0317771
1.29555
0.123789
2.12005
0.00993691
0.223596
0.197851
-0.0164294
1.98607
0.0159632
0.0459731
-0.480642
0.0474462
0.942471
0.458855
0.0372898
1.3336
0.100708
1.06251
1.84091
0.708377
0.672109
0.0411952
0.808863
0.0725493
-0.0482187
-1.56077
-0.599484
0.0704766
1.76226
0.491136
1.27009
0.623853
0.0127893
0.0553253
0.0765528
-0.374117
0.948415
-0.564783
0.0409806
0.00626614
0.0441942
-0.00181192
-0.0988601
-0.71324
2.3383
-0.634849
-0.952383
2.1691
0.166546
0.045653
0.0462248
0.0486546
1.23602
0.0566339
0.0481411
-6.10849
-0.504864
-0.111283
1.33387
0.0648914
0.0542268
-0.963889
0.00109186
0.123602
0.0470429
0.0280465
0.0790246
1.34282
-0.759653
-0.54982
0.51073
-0.0252793
-6.516
0.106354
-0.667147
-0.000724539
1.48746
-7.59368
1.74066
-0.00640324
0.0755155
-1.79418
-0.0161639
-0.0270621
-0.0457882
-0.69105
-0.51777
2.20156
-0.615935
-2.58206
-0.00440865
-1.56137
0.0161343
0.103917
-2.53197
0.0143798
0.00384765
-0.0488567
0.040389
0.0548017
1.67481
0.318486
0.0305332
0.102155
0.0418784
-0.796311
0.100682
-2.37303
0.0542066
-0.0151413
1.59328
0.12056
1.30836
0.0224618
0.0641119
0.00804059
0.0098951
0.0237841
-5.88666
-0.715883
0.0871383
0.7664
1.18843
0.510516
0.0300003
0.00662818
0.025712
1.63012
-0.0298453
0.313489
0.825026
0.0188685
0.0363222
0.0281014
0.00662774
0.0238292
0.0893394
1.33743
0.00521074
1.04861
0.0366273
1.43979
0.0559338
0.86344
0.0174743
0.0272557
-1.8172
0.05156
0.0609233
-0.118106
0.105421
1.00088
0.00580271
0.330652
0.0343992
0.0155591
0.290024
0.0563842
0.0487698
-0.833844
-1.42877
0.040143
1.75564
1.19835
0.0357313
0.0433061
-0.481201
0.0287257
0.350222
-0.0379785
0.0204986
1.97202
-0.0573047
0.0706492
0.0212617
-4.5306
1.33281
0.105825
0.06055
0.0234089
-6.05314
0.21869
0.0405085
-0.894824
0.52133
0.924459
0.0613321
-0.0858296
0.151369
1.25126
0.0482714
0.0291613
0.0106645
0.122568
-0.488529
0.0642295
0.0769062
0.0526017
0.0152257
0.0270454
0.0671783
0.0106851
0.0792675
-0.090016
0.0865062
0.0346964
0.102449
2.61972
0.0190551
0.142848
0.00762415
0.1056
0.531202
0.0348606
0.122971
0.273983
0.0545113
0.0207775
-0.0285556
0.0197459
1.25558
0.0105351
0.00470408
0.120133
0.0249495
0.0229433
0.12937
0.0505771
1.5901
0.00609716
-0.666785
1.14721
-0.0220953
0.0332281
0.0599329
0.0909082
-1.45131
-0.190174
0.252531
0.0341433
0.150776
0.0201216
-0.642321
1.52141
1.57161
0.0241861
0.0774362
0.0933949
0.00352794
1.24522
0.0220593
0.0537328
1.38368
0.0364519
1.36382
0.0559055
0.0348366
0.138447
0.0323437
0.0152488
1.69097
0.0373169
0.006355
-0.125579
-0.107672
1.33958
2.01402
0.01078
-0.0743797
0.0414757
0.0426514
0.00131915
1.40809
-1.15054
0.000889064
0.0359175
0.109585
-0.00325639
0.0252502
0.0682259
-1.66401
0.00373458
0.0417262
-0.683851
1.31597
-3.7355
0.039082
0.0350304
0.814189
0.871356
0.0355482
0.00475293
-9.53716
-0.986501
0.0121209
0.0399558
-0.00597925
0.032129
0.00334561
-5.20535
0.0161507
0.142745
0.0310867
1.40072
0.0107822
0.0714445
0.038277
-0.477792
0.0172047
1.27638
0.147795
1.6077
0.139282
-0.619311
0.0429819
0.0685282
0.0386927
0.045984
0.0926434
0.0246793
0.0322327
0.0892054
0.0287557
0.0236117
0.0167537
0.0408124
0.0479093
0.0393502
1.39638
0.0324729
-0.170274
1.67367
0.0242698
0.116767
-0.40486
0.445306
0.029733
-0.457187
0.0302847
0.0364951
-6.93066
0.0857245
0.0316059
-0.397195
0.0423303
0.10961
-0.329669
0.0398668
-0.948697
-0.0206451
0.0437793
-0.484302
-0.331617
0.0417482
0.0287939
0.0448065
0.215192
0.0946032
0.0740723
0.161539
0.0149415
0.0196615
0.0623319
-0.358395
0.00197674
0.00845386
0.0277556
0.0326972
0.0487584
0.0315398
0.040539
-0.58623
2.28085
0.0464281
0.0311474
0.0428456
-0.503158
1.55306
0.0497684
0.176256
0.00328146
1.56324
0.0290821
0.43722
0.126531
0.0099762
0.0244726
0.125858
-5.87147
0.0816551
0.307028
1.22556
0.0322657
0.0026776
0.0098031
1.59679
0.041112
0.0167749
0.0452708
-0.00389826
1.08618
0.04669
0.0355913
0.0168489
0.0233744
0.0288719
0.0379596
0.597307
-0.490713
1.85558
-1.47631e-05
-0.60651
-0.0582528
2.33301
0.957934
0.0217084
0.0302675
0.0583023
0.060641
1.19217
-0.0685815
0.0393662
0.0725957
-0.713346
0.0294793
0.0699724
0.0474954
2.88627
0.80717
1.26394
0.0395504
1.36728
0.0346889
-0.623949
-0.690944
1.84787
-0.690544
-0.685348
0.0284718
1.04512
-0.0180644
0.018894
-0.144071
-0.0202434
-1.45133
-0.251218
-0.641393
0.0408407
1.44445
0.0410215
0.237312
0.0314511
0.0394008
0.0603627
1.37131
0.025785
-0.673282
0.0642225
-5.80369
0.00399838
0.0515247
0.0543869
2.33701
-0.69911
-0.0835069
0.0543625
0.0323197
0.0597429
0.912711
1.33832
0.0497819
0.046702
-4.55016
0.045606
0.66783
2.62088
0.71983
0.27121
0.0743824
0.070515
0.0280525
0.319081
0.0476831
0.0541072
0.0265378
0.455509
1.27826
1.26131
-0.768091
0.933934
0.0475955
0.183009
-1.16748
0.114916
0.050468
1.52893
0.0588955
-3.25558
0.0158938
2.2368
-0.28395
-0.0250546
0.0671933
-0.518277
0.0679785
-5.39806
2.37189
0.0754453
-0.303244
-2.22552
0.0617214
0.0975894
-0.604089
-0.0966073
0.00567238
-0.635145
-0.857869
1.35313
0.016886
0.18528
0.0533472
0.766695
0.054758
-1.09053
0.0104173
-0.364945
2.75064
0.0170928
-1.53118
2.43956
0.00893151
0.101829
0.0708974
0.0126592
1.47412
-0.989522
1.23756
1.29222
0.088756
0.0667867
1.33172
0.596587
0.118202
-0.817896
-0.705626
-0.573415
1.47363
0.035489
-0.311733
-8.87822
0.224548
-0.179537
0.0482954
0.0642988
1.30788
0.0729653
0.0393322
-5.76718
0.0277725
0.0287852
0.0528773
-7.38801
-0.642803
0.134219
0.0449733
0.127372
-0.281829
0.0843186
2.63411
0.0818007
-1.1369
0.440933
0.0238311
1.4676
0.021076
1.3269
0.0738415
1.23892
-4.75251
0.119205
2.07545
-0.401948
-0.574185
1.56217
-1.29864
0.00668948
0.0113055
1.39643
1.52505
0.0493958
1.57908
2.38911
0.857117
1.62138
-1.81858
0.0146156
2.16308
-8.49696
0.30474
0.0847354
1.27935
-2.01074
1.63517
1.5583
1.70832
-0.40532
0.0183764
-0.787584
0.0284355
0.142602
-0.620535
-0.64112
0.0341564
0.0314426
-0.570109
0.116827
-0.113096
0.149876
1.77351
1.91717
1.83843
0.0977472
0.958644
-0.0117455
0.337971
0.129576
0.10482
2.5552
0.0160539
0.0931789
0.180362
-6.69267
2.00759
0.0763736
-0.199001
-5.12267
0.18654
-0.49539
-0.405067
-0.700615
1.07273
0.0747166
1.08945
1.47341
-0.780898
-0.408603
0.240849
1.47693
-0.986686
0.00967216
0.0243719
0.0054586
1.16634
-0.144828
0.0160852
2.92268
2.01236
0.00483025
0.126463
-6.46397
2.30561
1.2576
-0.789154
2.61014
0.0271735
1.34507
0.398188
2.33372
0.211167
-0.934124
0.715012
-9.48665
0.015835
0.0739493
0.201407
-0.710895
2.43241
0.204196
0.0371568
0.143023
0.188308
0.852544
2.73529
0.0606979
0.0384687
0.0856641
0.958066
-0.0851807
-0.0355112
0.0773972
1.26117
0.0833651
-0.0307631
-0.421172
0.206442
0.301787
1.2801
0.0970785
2.37228
0.082112
-0.000516049
1.42208
0.0275281
0.00959131
0.161612
-0.6843
0.6517
0.0211381
0.565969
-0.815146
0.00273888
1.17432
-0.482129
0.021303
0.201631
0.0103972
0.0548663
1.17545
0.131238
0.0807781
0.0170379
-0.331094
-0.0139419
-0.101845
-4.15781
0.0442544
0.605648
0.216752
0.068604
0.298032
0.0775448
-0.937305
0.0581242
1.35507
-0.114788
0.00664289
0.215621
-0.119391
2.09417
0.0654259
0.489966
0.159828
2.90449
2.62283
0.081852
-0.60595
-7.21918
0.00250642
1.10218
1.35371
1.40334
0.0309276
0.0132612
0.170675
2.23646
0.228844
0.0269963
0.37539
-0.400268
0.244418
0.0698063
1.10215
2.21235
0.0875375
-0.486099
0.00892047
1.02804
1.85406
-0.29885
0.363526
-0.838223
2.69055
0.0134227
0.0649835
1.01428
0.136322
0.01544
0.018975
1.3397
0.013137
0.00553785
-0.400207
-4.7954
0.0287668
0.00169723
2.17145
0.592537
1.67726
-0.00847854
-0.705889
2.82544
0.0158323
0.192179
0.440019
-0.113951
1.11683
1.15444
1.45268
0.00266803
-0.594798
-0.149964
1.31474
-0.163418
0.01616
0.0867496
1.36434
-0.178774
0.0280619
0.0505466
0.325707
-0.0459609
0.0221094
0.176541
0.0477531
-0.145561
-0.0113967
0.929558
2.14948
-0.216283
1.52048
1.22102
-0.988039
0.0178862
-0.874127
1.43682
-0.426642
0.149834
0.164151
0.0296698
0.0319995
0.160009
2.86627
0.00758785
1.42408
0.786441
-0.000541374
0.0481274
-0.45043
0.0564736
0.30392
-0.385018
0.0600108
0.911788
0.0230089
-0.121149
1.62587
-0.130798
0.321443
0.259819
-1.05788
0.191115
0.586559
0.158397
1.05599
0.203034
-0.430847
2.02911
1.74439
-0.201421
1.19558
0.015028
0.56814
1.27445
1.41073
-0.422228
-0.51227
-4.53554
0.036377
1.34397
-0.537633
1.93364
0.0264026
0.685397
-0.638807
-5.91956
1.29889
-0.113622
1.34681
0.236137
0.252121
0.224793
0.0807329
-0.472926
1.12549
0.349348
1.31029
0.195704
1.87062
2.04162
0.0483689
1.75769
0.176746
0.00963942
0.519221
1.99528
0.620413
-1.32845
1.45762
0.0702511
0.19759
1.94647
1.30627
1.89198
0.0187442
-0.0365744
0.196517
-1.31132
-0.00566196
-0.389691
1.21969
-0.720044
1.51026
0.00273579
-0.159305
1.18657
1.48057
0.249826
1.39795
0.0444144
-0.636048
-0.170378
0.0559837
-6.33558
0.701187
0.770444
-0.713618
-0.151806
0.323373
0.00292958
0.935131
1.9748
2.11961
0.547361
0.378968
-0.0199534
0.342115
1.24262
0.013503
1.68611
-0.427467
0.0501962
-0.182683
-0.143227
0.869985
1.36396
1.70397
1.08151
0.0206288
0.0817139
1.31057
1.34502
1.48604
0.0784728
1.72923
0.634288
1.35876
0.883923
0.193887
0.201218
1.45664
1.2404
-0.713597
1.3981
-0.041978
0.0559861
1.0345
-0.150538
-0.528274
2.33386
1.72315
0.188957
1.36903
0.461053
0.822986
0.175674
0.203259
0.0187882
-0.0100257
-0.117643
-1.20579
0.280189
-0.210736
-0.042508
1.31726
1.97219
0.198352
1.34267
0.250627
3.09086
-1.79029
1.62913
0.196133
-6.61891
-0.587833
3.09826
0.291144
-0.0232184
3.06356
-0.00922889
-5.54016
1.36767
3.02714
0.033455
2.97198
0.770129
0.194031
-0.616846
2.86427
-0.0357111
0.0337385
-8.88392
0.142112
0.158688
1.61307
2.70048
0.0107632
0.470694
1.7023
-0.252293
1.43441
1.10585
0.0832012
-0.588513
-5.40031
2.64407
0.385341
-0.590846
0.312729
0.212517
2.59677
1.00474
0.00939476
-0.608348
2.54494
-0.875952
-0.616376
2.49533
1.63224
-0.62192
-1.82755
-0.635358
0.58349
1.65938
-0.632718
2.42701
1.32063
0.18994
-0.631098
1.915
0.118926
0.39031
-0.267301
-0.712942
1.21906
1.30767
-0.533717
1.3941
-0.254372
-0.678348
-3.02023
2.29315
0.870448
1.1565
-0.380555
-0.666337
-0.67586
-0.686898
-0.698897
-0.712101
-0.707345
-0.118685
-0.709497
-0.703675
1.7959
2.25202
0.863055
0.848064
0.303257
0.931656
-0.698534
2.22389
0.000553861
-0.683197
1.79522
-3.52717
-0.668114
0.0771622
2.1342
1.14313
0.797355
0.320173
1.32758
-1.3603
-0.660178
2.10506
-0.618418
0.180321
0.233573
-0.705677
1.25379
2.06617
-0.0206617
1.7879
0.0571573
1.07169
-0.639229
-0.162366
-0.193017
2.02846
-0.264465
-6.01038
1.99142
-0.174748
-0.773824
-0.172149
-0.62718
1.9614
1.40864
0.460763
1.32995
0.0860859
-0.00379558
0.0202875
-0.673347
-0.709204
1.91802
0.547994
0.069948
1.37626
0.620699
-0.68259
-0.161645
-0.75498
1.88983
-0.655356
1.43268
0.0657968
-0.00788523
-0.883405
1.85224
0.549096
-0.778972
1.80727
-1.05918
0.00218372
-0.115642
-5.91347
-0.0802977
1.78109
-1.35111
1.72133
-1.73104
-0.522677
0.792757
-0.00293271
0.719331
0.0264479
1.68109
-2.26778
0.733236
2.2217
1.3594
-2.84515
-0.528135
1.65024
-0.437116
-0.509896
1.12264
-3.57456
1.30321
1.62021
0.0381128
0.00712138
-2.03655
1.32678
0.895581
0.168363
-0.00437261
-4.32798
-5.91882
1.57005
0.264491
-1.5048
0.307764
-1.40697
-2.80105
-0.00350547
0.61401
1.53529
1.9337
1.39671
2.10604
1.45509
-5.93069
0.839221
-0.0617659
-0.62232
0.622695
0.0168399
0.124518
0.769087
1.12036
-0.0177947
-6.67253
-0.652381
1.46079
-0.522086
-0.353519
1.70956
1.11374
-0.147654
2.492
-0.729753
0.346043
0.325353
-7.27964
0.00648475
-1.42118
1.40876
1.67107
1.48782
0.875766
-7.67536
1.35757
1.29401
1.26215
1.1959
1.1512
1.07857
-5.31546
1.31356
1.02523
1.54019
0.912504
-1.00708
2.04712
-7.83825
-0.576697
-1.08513
0.999666
-7.5057
1.91525
-7.76882
0.162099
-7.58752
-0.730759
-7.32981
1.31146
-0.756122
-0.307891
-7.10108
-3.56767
-0.443222
1.3823
-1.4137
-6.57273
1.46592
1.41861
-0.38087
-0.695759
1.54972
0.286035
-0.921004
0.0210279
0.463776
1.25244
-2.32003
0.167632
-0.488611
1.51442
-0.583123
-1.43737
-0.668781
0.661407
1.37169
-0.137417
-4.27899
0.606755
1.59328
1.08767
-6.13826
1.34535
0.579635
1.15901
-0.121755
1.37545
-0.218894
0.00712476
-0.00555968
0.588688
-2.98123
2.12126
-0.148597
0.052603
-0.188835
-6.21558
1.842
1.49568
1.20818
1.35812
0.306033
0.0749277
0.177706
-1.33345
0.551712
-0.806982
0.12538
0.945913
-4.40417
0.244535
2.66905
0.026748
0.723183
0.732478
-0.709898
0.130136
1.00739
0.167245
0.638503
1.20956
1.2977
1.43832
1.44058
0.0908739
1.60446
-6.05934
0.140941
0.301809
-0.470074
-0.451327
-0.003412
1.63654
-0.697457
1.37334
-1.39707
-0.810426
0.336013
-2.17245
0.199587
-0.546551
0.310235
1.49877
-0.00376709
-0.176318
0.121672
0.279481
0.146748
-0.435575
-0.0150543
1.41608
0.0203156
-0.432569
0.975023
-0.219652
1.01212
-0.571269
0.193891
0.146021
0.151952
-0.0204017
-0.705302
-0.161461
0.0138837
0.0796151
0.753075
2.15219
0.895551
-4.19306
1.36027
-0.424174
1.03506
0.040704
0.0729933
1.1529
-0.874751
0.0300921
-1.12013
-0.691983
-0.641923
1.35642
-0.045992
1.71289
0.22163
0.0216943
2.23283
2.11159