/*--------------------------------*- C++ -*----------------------------------*\
| =========                 |                                                 |
| \\      /  F ield         | OpenFOAM: The Open Source CFD Toolbox           |
|  \\    /   O peration     | Version:  2306                                  |
|   \\  /    A nd           | Website:  www.openfoam.com                      |
|    \\/     M anipulation  |                                                 |
\*---------------------------------------------------------------------------*/
FoamFile
{
    version     2.0;
    format      ascii;
    arch        "LSB;label=32;scalar=64";
    class       volVectorField;
    location    "2.2";
    object      U;
}
// * * * * * * * * * * * * * * * * * * * * * * * * * * * * * * * * * * * * * //

dimensions      [0 1 -1 0 0 0 0];

internalField   nonuniform List<vector> 
13486
(
(4.13165 -0.589934 1.09141e-20)
(4.91606 0.953579 5.03945e-21)
(7.69095 0.184324 0)
(-1.52606 0.0790142 -6.22437e-21)
(6.63355 -1.55781 3.84362e-21)
(7.37434 0.491588 4.75735e-22)
(7.38933 -1.3233 6.95184e-23)
(5.64714 -2.05028 -6.01209e-21)
(5.58307 -1.08835 0)
(5.89991 2.32113 0)
(-3.59605 7.22036 -3.62227e-20)
(7.50372 -0.239208 0)
(3.61985 -1.05754 -1.08999e-20)
(7.29123 2.39257 4.07617e-22)
(7.02292 -1.14879 1.93881e-21)
(5.76561 2.41396 -3.23142e-21)
(1.50538 -1.04489 1.67078e-20)
(3.10358 -1.33078 1.0258e-21)
(6.81701 -0.13091 4.9474e-23)
(4.71094 -0.123023 -1.09205e-20)
(-0.947608 -1.38424 -1.91954e-21)
(3.6696 -1.08588 1.4042e-20)
(4.99865 0.941635 -4.03699e-21)
(9.82918 -3.08704 0)
(6.17573 1.95134 1.02673e-21)
(9.46881 -2.98982 -4.98777e-21)
(-3.12875 3.63649 2.1442e-20)
(8.08086 -0.436018 1.06447e-20)
(6.01336 0.189095 0)
(7.50932 -1.26504 -6.99281e-21)
(-0.0297388 -2.60309 -9.66789e-22)
(7.2904 -0.850281 -2.40947e-21)
(9.6114 -0.640219 9.63356e-21)
(6.74574 -0.384391 0)
(5.66125 -1.96471 0)
(5.55225 0.0226965 6.87994e-24)
(5.30343 0.555123 -4.23201e-22)
(4.45811 -2.07953 5.73965e-21)
(4.99875 -0.356472 -3.12531e-22)
(5.64546 -0.657871 5.51856e-21)
(6.91813 -2.38859 0)
(3.05661 -1.45887 -1.28883e-20)
(6.24008 0.00946813 0)
(6.14354 1.61275 -5.04717e-21)
(6.14053 1.60821 2.04519e-21)
(7.49702 -0.252806 1.56313e-21)
(-2.27899 4.87727 2.94547e-20)
(5.98336 0.180689 -5.05316e-24)
(5.32506 0.537346 3.24953e-22)
(8.27193 0.0725023 4.66542e-21)
(5.95297 0.0856925 6.14028e-21)
(5.21836 -0.099638 0)
(7.60284 -0.530742 -2.10119e-21)
(4.64409 -1.67203 -8.29063e-21)
(3.17629 -1.71428 0)
(6.57385 -1.58337 -2.54123e-21)
(6.39008 0.974018 -3.24226e-24)
(5.22988 -0.172941 -1.28565e-21)
(9.47646 -0.592482 1.1242e-20)
(5.13177 1.02303 0)
(-4.02316 5.82925 -4.91076e-20)
(5.16952 0.973493 0)
(12.1057 1.60366 -9.88181e-21)
(-0.88677 -1.5037 -1.91069e-23)
(5.09959 -6.31714 0)
(5.31489 0.627583 -1.99605e-22)
(-2.22864 0.407002 -7.79383e-21)
(4.13371 0.374218 3.62626e-21)
(5.57773 -1.15346 -3.19599e-21)
(5.36446 0.0558263 2.62233e-22)
(-2.2744 0.406069 8.99937e-21)
(3.13303 -1.54754 3.56273e-23)
(5.70885 -0.354423 4.08038e-21)
(-2.67862 -2.23824 -1.09677e-20)
(5.38766 0.794257 -3.70514e-23)
(6.43088 0.946377 3.58524e-24)
(5.42958 0.76049 1.01955e-22)
(7.0313 -1.19885 -7.94208e-22)
(-2.11015 6.67863 -1.61419e-20)
(5.27072 -1.37657 0)
(5.88979 0.0464643 -1.13984e-23)
(4.80783 1.25602 -3.24777e-22)
(11.2951 1.60432 9.39689e-23)
(7.92722 0.180276 -7.94867e-23)
(4.10192 -0.625582 -2.12571e-20)
(4.18642 5.27156 0)
(4.48601 -1.04211 -6.207e-22)
(5.99126 0.15631 -9.26332e-21)
(5.55113 0.649898 -4.15283e-21)
(5.33158 3.1656 -3.60084e-21)
(7.49282 -0.780924 -1.27853e-21)
(5.98377 -1.7533 -3.12726e-21)
(4.2803 -0.845334 2.80158e-21)
(4.84789 0.347297 2.81947e-22)
(5.17544 -1.56365 1.32039e-21)
(5.96875 0.15434 3.15176e-24)
(-4.30141 4.37615 0)
(-3.89822 -0.000804238 6.36123e-21)
(5.68088 -0.63752 -1.05335e-20)
(1.31459 -1.69061 -2.16682e-22)
(5.94257 0.0150708 0)
(7.21873 2.38681 1.04072e-22)
(-4.00956 -0.371247 6.58838e-22)
(5.15513 -0.134979 1.50365e-21)
(3.902 5.09817 0)
(1.34435 -0.821295 4.84793e-23)
(5.85132 0.163881 2.21539e-23)
(5.01065 -0.439927 -7.26828e-22)
(-2.42145 7.39371 2.09077e-20)
(5.63128 -2.583 0)
(4.50634 -2.12967 0)
(7.31173 -1.01596 -2.23862e-21)
(4.67298 -1.62044 7.12709e-23)
(6.42291 0.572728 7.44112e-24)
(3.0636 -0.0147268 0)
(4.40594 -2.10735 -5.06523e-21)
(6.06368 2.05417 0)
(6.89756 -0.33449 0)
(5.70517 -0.349675 0)
(5.43945 0.440705 -1.6991e-22)
(3.22669 -1.31875 -4.35889e-22)
(-5.85252 6.25718 0)
(5.09305 -1.39762 0)
(4.98065 -0.373091 1.00581e-21)
(5.33744 -1.87642 0)
(5.1973 -0.101058 0)
(6.37587 -0.75694 1.21297e-22)
(6.55811 0.318979 1.62214e-21)
(6.17108 -0.153508 -9.85604e-22)
(5.3703 -4.87049 -3.10485e-21)
(5.19531 -0.0368568 -1.54244e-22)
(-2.38696 5.66914 -7.19824e-21)
(-0.603085 -0.316757 1.55143e-20)
(-1.98357 0.487165 1.32147e-20)
(5.97594 0.0458918 -1.00889e-21)
(5.6108 1.38334 -4.63119e-21)
(2.43019 2.42004 -2.96345e-21)
(5.61314 -2.5569 0)
(5.47281 0.424023 5.21982e-23)
(5.70432 -1.63729 -2.10624e-21)
(9.04168 -0.0898211 -9.63323e-21)
(7.63029 -0.5661 1.74982e-21)
(7.31572 -0.656358 0)
(5.27185 -1.34982 0)
(6.56686 0.0420191 5.42754e-23)
(14.0238 0.20964 -2.5081e-20)
(6.72191 -0.0780876 -1.44816e-24)
(-2.16158 4.93658 0)
(8.34819 0.103528 0)
(6.02776 0.189183 0)
(6.05372 0.0457819 8.99578e-23)
(7.00668 -1.37057 0)
(5.91058 0.0366709 1.19292e-23)
(4.67799 1.19767 -2.7447e-21)
(6.53355 1.07012 0)
(7.91578 0.199856 0)
(5.39047 -2.44266 0)
(0.540016 -0.331372 -8.1728e-23)
(4.94796 -1.95187 1.19691e-20)
(6.1867 3.04346 -5.8488e-21)
(8.08962 0.0825152 2.76589e-21)
(4.96638 -1.89454 -1.79838e-20)
(7.42065 -1.00842 7.38906e-22)
(2.80773 -1.37942 5.68566e-21)
(5.24364 -0.126904 0)
(7.67134 2.42853 -1.40935e-21)
(7.03337 2.18814 3.91632e-22)
(1.12181 -0.13619 -1.34832e-20)
(6.53305 -0.169595 -1.99419e-23)
(-2.17076 0.0614842 3.61336e-21)
(-2.64018 -0.993789 1.05853e-21)
(6.51447 0.982016 1.46012e-21)
(5.97098 0.243947 -7.39603e-21)
(6.81766 -0.667173 1.84902e-22)
(5.89142 0.0979126 -7.94447e-24)
(-4.81015 -4.47254 0)
(7.25891 3.50168 1.455e-21)
(9.48545 0.0947124 1.30477e-20)
(5.84856 0.141508 -1.01629e-20)
(7.34709 -0.61984 0)
(5.76465 -0.79813 1.12419e-20)
(6.44637 0.52466 2.05946e-23)
(7.05012 -0.663834 -8.51734e-23)
(-8.68189 4.34794 0)
(7.99449 -0.0248217 1.46713e-22)
(7.63784 -0.345077 -4.83903e-21)
(6.14167 0.173152 -3.41041e-24)
(7.32789 -0.858115 -2.05504e-21)
(6.81523 -2.39741 0)
(4.04842 -1.94496 -6.74858e-21)
(5.37914 0.515838 0)
(7.17978 0.155745 0)
(5.28737 -0.335881 0)
(3.96571 2.60933 -5.73398e-21)
(5.36395 -0.41084 0)
(-5.69287 7.64892 -1.0507e-20)
(5.02349 -5.39766 7.0759e-21)
(8.20718 0.0397188 1.53479e-21)
(3.84419 -1.89937 -2.57169e-21)
(7.56168 2.23815 -5.16034e-22)
(-0.086808 -2.6213 9.05006e-22)
(6.57384 0.364249 -4.84979e-23)
(4.3871 -2.10293 -6.65099e-21)
(5.788 -2.46308 1.29267e-21)
(6.16616 3.23519 7.05153e-21)
(5.41786 -0.413424 -1.11615e-21)
(2.55648 -1.58051 3.59563e-22)
(5.55589 -0.086676 8.31468e-21)
(5.2565 -0.337018 0)
(7.94454 0.0388807 0)
(7.86656 -0.48561 7.23779e-21)
(8.42245 -3.90179 8.40175e-21)
(4.79583 -0.0810786 1.00283e-20)
(5.73412 0.171843 2.99875e-23)
(7.4129 0.631296 -5.48628e-22)
(5.88338 -1.92751 7.07177e-22)
(7.69549 -1.13165 0)
(5.40778 3.02032 9.39595e-21)
(4.4666 -0.918593 0)
(9.60415 2.5418 0)
(2.4675 -1.11879 -3.19877e-20)
(8.43447 0.189483 0)
(5.664 -1.61326 4.95237e-21)
(8.12016 0.145498 0)
(7.66722 -0.668237 -3.09178e-22)
(3.78443 -1.74302 4.03157e-21)
(7.7707 1.16999 -1.22275e-22)
(-1.29022 -4.75344 1.67502e-21)
(5.85323 -1.28029 1.2765e-22)
(4.82858 -0.895787 8.84473e-23)
(5.79959 -0.785581 -3.60186e-21)
(5.02214 -1.17807 2.22227e-21)
(9.14666 -0.206491 1.20963e-20)
(3.00445 -1.41288 4.40839e-21)
(-2.99565 -1.97433 0)
(3.59494 -1.75106 4.77745e-22)
(7.04757 -0.64838 3.48312e-21)
(7.22933 0.119476 -6.37373e-23)
(3.51088 -1.68455 1.31255e-20)
(7.03348 -0.40753 0)
(9.63887 -0.919701 0)
(6.01971 0.238549 1.1392e-20)
(6.61932 0.355783 0)
(3.39623 -1.67795 4.3657e-21)
(4.72142 -0.4774 -6.77396e-22)
(5.4081 0.259435 0)
(7.23354 -0.131585 -7.43853e-22)
(8.5527 -2.15814 1.47236e-20)
(0.305351 -1.87766 2.42684e-20)
(6.04034 1.52048 0)
(-7.51091 1.17115 -5.59877e-21)
(2.97233 0.080598 1.58338e-21)
(4.03996 -1.97832 6.49833e-21)
(5.01467 -0.468675 0)
(5.53443 -1.20002 7.77261e-22)
(-5.03155 -4.46444 5.42744e-21)
(7.31014 -0.840458 1.94447e-21)
(5.79799 -1.97722 -8.93616e-22)
(0.647731 -0.709539 8.55824e-23)
(9.62439 -0.853797 8.06151e-21)
(5.31234 0.754706 0)
(4.7044 -0.437106 1.00401e-23)
(7.02924 -1.15353 -4.51299e-21)
(-5.40595 -3.09695 -6.77683e-21)
(6.32435 -2.10885 -4.02075e-21)
(-8.67348 4.55549 0)
(5.89745 -1.24244 -1.87203e-21)
(-0.584596 -2.5964 -1.72182e-21)
(6.15042 0.00839355 -4.73726e-21)
(3.88075 -1.01471 0)
(4.45086 2.88555 4.20517e-21)
(5.88905 0.181718 -2.7526e-21)
(7.67611 -1.20413 0)
(7.61742 -0.403946 1.19724e-21)
(3.84921 -1.80728 5.38337e-21)
(8.26267 -2.10396 -8.23084e-21)
(5.53781 -1.09745 0)
(3.4353 -2.70278 0)
(5.05244 -0.559093 -7.76675e-22)
(7.05712 -0.170396 5.30498e-23)
(3.6416 -2.88408 1.28822e-21)
(6.20584 -0.55903 -4.02566e-21)
(5.77734 0.251433 6.03878e-21)
(12.9319 -2.5792 -1.54397e-20)
(-7.26576 5.97353 5.50711e-20)
(-1.7064 3.38655 3.28826e-20)
(9.13389 0.124731 1.0654e-20)
(6.19791 -0.194039 1.29604e-21)
(8.2972 -0.628909 4.16335e-22)
(6.06902 -0.0305805 0)
(-2.49014 -1.48844 0)
(4.06312 0.411056 7.23279e-22)
(4.38681 -2.09527 5.04013e-21)
(6.01486 0.0795914 -9.8261e-22)
(6.98839 -0.621635 3.18844e-21)
(7.17988 -0.755866 0)
(7.54642 -0.0383099 -3.59566e-21)
(7.64593 -0.337021 -8.91428e-22)
(5.76156 0.206287 -5.53395e-21)
(7.25662 -1.73079 1.50117e-21)
(5.6774 -0.858721 -9.08943e-22)
(2.65965 -1.61706 4.76822e-23)
(6.77161 -0.0958498 -4.52079e-23)
(7.26521 -0.848087 2.29587e-21)
(5.36513 0.382689 8.91243e-23)
(5.04258 -2.40075 0)
(0.903686 -0.441958 0)
(6.65493 -0.176895 1.48117e-21)
(4.75939 -1.13401 4.30713e-22)
(5.37899 0.54733 0)
(5.65908 4.06936 -2.19139e-20)
(-1.26866 0.303321 0)
(6.9312 3.43073 -7.65942e-23)
(7.45684 -0.984361 -2.23412e-21)
(8.38379 1.70406 0)
(5.66253 1.26193 -2.8237e-21)
(3.87847 0.573807 -1.06407e-21)
(5.52706 0.65905 -3.54802e-22)
(5.53296 -0.0802283 -9.14476e-21)
(6.05357 -1.29107 0)
(5.34809 0.609259 3.57168e-22)
(4.412 0.145611 -3.42242e-23)
(5.88583 0.150389 1.27908e-21)
(4.84036 0.494422 -5.2791e-21)
(1.92906 2.26934 5.53911e-21)
(7.53336 -0.787506 2.45042e-21)
(6.44911 -1.10053 -1.14997e-20)
(6.24436 -0.54643 0)
(7.80621 -0.264383 5.2684e-23)
(6.5463 -1.15193 -2.17189e-21)
(5.98006 0.0738787 1.34072e-20)
(6.05567 -1.77604 0)
(7.3918 -0.816712 -5.50984e-22)
(4.21404 1.25531 0)
(7.26968 -1.39184 -3.52507e-21)
(5.40865 -1.46823 -3.5888e-21)
(2.21323 -0.994904 5.31118e-21)
(6.95752 -1.41708 -3.16601e-21)
(6.07423 0.587709 0)
(4.60099 -0.45019 -1.0656e-21)
(6.00624 -1.25157 2.07201e-21)
(4.90214 0.521784 4.99212e-21)
(6.58041 -1.18519 8.30486e-21)
(7.00675 -0.658644 3.72035e-21)
(-9.44906 4.05322 -2.94386e-20)
(5.98299 0.16299 5.58032e-24)
(6.55978 -0.585758 0)
(2.83621 -0.854764 1.25771e-20)
(9.67639 2.48469 0)
(3.97089 0.251142 9.20831e-23)
(6.57526 -0.337035 6.63411e-21)
(7.73496 -0.335837 -7.57212e-22)
(7.60208 -0.405837 8.86607e-22)
(-5.26322 4.866 -2.55579e-20)
(5.77122 0.222879 6.91862e-21)
(5.74096 0.0700385 0)
(-2.53106 -2.33909 -9.2173e-21)
(6.3909 -0.762663 -2.41494e-21)
(4.78007 -0.993069 -3.62612e-22)
(8.05115 -3.52475 7.20215e-21)
(7.80855 -0.108458 0)
(7.76627 -0.751652 1.52945e-21)
(5.28772 0.553527 1.07067e-20)
(5.8436 0.225071 8.33227e-21)
(7.54203 -1.33403 0)
(5.93698 0.0136913 -8.91514e-25)
(7.13039 -0.726755 -3.27131e-21)
(-2.73519 3.62223 5.0904e-21)
(4.59743 -0.0524964 1.39619e-21)
(6.3932 -0.648392 2.30341e-21)
(6.49584 0.0257854 -2.01709e-23)
(6.52222 -0.539085 0)
(7.6963 -0.645895 -9.20452e-22)
(-7.91596 1.40809 7.01947e-21)
(7.2782 1.35206 5.432e-22)
(6.01185 0.0792634 5.14183e-21)
(4.7231 -0.000963707 0)
(4.29267 -0.157642 -1.26742e-21)
(9.42884 1.33897 0)
(9.58777 3.86865 -5.45234e-21)
(6.18351 -0.0235154 0)
(6.0523 -2.03119 -1.06188e-22)
(3.8858 -0.219675 -2.99872e-21)
(4.50391 2.51737 1.00302e-20)
(-2.98148 3.87676 -1.61886e-20)
(5.62591 -1.09832 0)
(6.87664 0.211557 -6.82605e-22)
(6.04565 0.640284 -2.94932e-21)
(4.46618 -1.29701 -1.14269e-20)
(0.309736 -1.71176 9.38625e-23)
(4.92699 -0.148695 -1.51062e-20)
(7.82964 -1.07643 3.50574e-21)
(6.21792 0.639663 1.95155e-21)
(4.1644 -1.16201 0)
(3.9931 1.0299 5.74491e-21)
(5.54731 0.426185 -1.24992e-22)
(-1.79006 0.241379 3.74448e-21)
(-8.09627 1.61242 -2.31868e-20)
(4.58089 -0.62814 -2.09497e-20)
(9.15934 0.12793 0)
(5.29009 -1.25652 0)
(6.09998 3.71717 0)
(6.17441 -0.226589 0)
(1.50977 -1.38009 -6.79144e-22)
(7.25986 -1.31166 0)
(4.25863 -0.706653 0)
(4.84401 0.424449 2.07415e-21)
(9.4224 0.110014 -1.34062e-20)
(6.46657 -0.51493 -5.40256e-21)
(5.00938 1.05457 1.73619e-20)
(6.00629 0.0986631 -1.46041e-21)
(6.89531 5.2961 0)
(8.10452 -0.875349 0)
(5.72051 0.237532 5.90877e-21)
(5.91887 0.0512453 1.01681e-21)
(3.65046 2.89287 0)
(-8.67986 4.13448 2.76384e-20)
(6.26474 -2.14753 4.51014e-21)
(-2.69223 -0.983409 0)
(7.03376 -0.411245 3.60318e-21)
(5.89768 0.164217 -6.77726e-21)
(1.68083 -0.111959 -7.10364e-22)
(2.82896 -0.819952 0)
(5.98166 0.631799 5.57651e-21)
(7.8921 0.647949 0)
(7.27286 -0.808624 0)
(6.66924 0.658465 -2.24837e-22)
(5.74755 0.25654 3.15507e-21)
(-2.93701 3.45877 -2.80601e-20)
(6.97688 2.15343 3.36913e-22)
(3.82633 -0.866835 -5.33468e-21)
(6.15257 -0.19824 6.98481e-22)
(6.2759 0.679032 1.4975e-21)
(8.31402 -0.67027 2.21319e-21)
(6.51422 -2.11306 0)
(8.59791 -1.86802 7.37589e-21)
(3.94 0.0014647 0)
(4.17805 0.149199 6.57192e-22)
(6.78919 -0.673237 0)
(4.20236 0.366945 7.73037e-21)
(-1.09277 2.12403 -2.97617e-20)
(7.86476 -1.02207 0)
(0.254581 1.52149 6.32777e-22)
(8.14285 -0.986565 -7.86216e-21)
(5.23054 -1.61622 -1.28393e-21)
(5.20105 -0.737524 1.45299e-20)
(4.21333 2.43937 -6.19102e-21)
(3.82133 -0.849363 -1.5196e-20)
(10.39 3.79146 0)
(5.42618 0.426262 1.88269e-22)
(-9.04653 4.33828 -7.30783e-20)
(6.03144 0.662679 0)
(5.47457 0.735221 3.88723e-22)
(8.12315 -0.00319205 -1.00058e-21)
(8.02876 3.55531 0)
(6.00017 0.0280388 0)
(-6.3584 2.48809 0)
(-4.16009 -5.1898 2.17721e-20)
(12.9413 -3.6148 1.82872e-20)
(12.1109 0.0712387 1.15025e-21)
(6.87059 3.25823 0)
(5.04847 -0.412562 9.81879e-21)
(5.87546 0.0926594 1.27778e-23)
(6.97307 2.02461 -5.60859e-22)
(-1.11787 -0.83725 3.81713e-21)
(5.72395 0.55307 0)
(5.98473 0.182196 0)
(2.07572 -0.158122 -8.36557e-21)
(4.09658 -1.14398 -3.78128e-21)
(5.63505 -0.513508 0)
(4.8556 -2.29665 -4.96232e-21)
(6.05898 0.0347496 6.58092e-25)
(5.96591 0.13811 -1.77138e-24)
(2.423 -1.0514 0)
(5.70882 -0.210796 1.3112e-21)
(5.49658 0.40423 1.45005e-22)
(7.93363 0.638956 2.83721e-21)
(5.34395 -1.52845 0)
(-1.13476 3.1002 -4.95792e-20)
(7.67504 -0.341926 9.73536e-22)
(5.99859 0.303613 1.18036e-21)
(5.61723 0.114929 6.10848e-23)
(7.86496 2.36709 0)
(4.99883 1.06676 -4.62007e-21)
(9.46518 1.69733 -4.6388e-21)
(3.37853 -0.326697 4.34345e-21)
(5.99781 0.196936 0)
(0.208881 -1.68675 -9.63135e-23)
(1.31159 -0.0183881 0)
(6.04946 0.15327 -4.49451e-21)
(5.97092 0.204006 2.03672e-21)
(5.55418 0.195517 -1.15884e-21)
(-5.91078 -4.3467 0)
(7.71975 0.0501062 -2.75775e-22)
(3.1795 1.51079 1.54536e-20)
(6.45283 -2.09829 0)
(4.79647 0.36267 6.39188e-21)
(7.15733 -1.75049 -1.72628e-21)
(6.62457 0.0716127 0)
(-0.738818 -2.77757 9.9526e-22)
(5.25469 -1.27905 -1.39684e-21)
(6.51932 0.0175292 0)
(-0.585081 2.35502 3.07654e-20)
(5.45803 0.685078 0)
(5.06055 -2.29639 4.95023e-21)
(-7.39051 0.563038 1.3099e-20)
(6.14438 0.194935 3.20735e-24)
(7.4569 0.507894 -1.32845e-21)
(3.93938 0.988153 3.04508e-21)
(5.1744 -0.806918 -5.32575e-21)
(5.64772 -0.995204 -8.40596e-22)
(5.0758 -2.25702 4.75515e-23)
(6.37008 -0.658875 2.19978e-21)
(7.84499 2.34804 2.90981e-21)
(5.87907 -2.65565 0)
(5.97694 0.0592805 -4.55751e-21)
(-3.07783 -0.102676 -8.15905e-21)
(3.99054 -0.037042 0)
(5.63737 0.534296 -2.37579e-23)
(5.3109 0.0515207 0)
(3.48234 -0.875714 1.3309e-20)
(5.94414 -2.20227 0)
(5.82448 -0.0104507 -3.60325e-23)
(6.6006 -0.300991 -3.79706e-21)
(-0.85999 -3.38606 1.84777e-21)
(-5.74493 2.00218 1.6309e-20)
(7.6177 -0.0664425 -3.05688e-23)
(4.89255 -2.35264 4.77861e-21)
(5.05975 -1.39087 5.32365e-21)
(4.25374 -0.843986 0)
(-7.33719 4.12794 -1.75821e-20)
(6.58095 -1.9952 -9.07272e-22)
(-8.28152 5.38686 -2.10809e-20)
(5.97021 0.149215 2.87324e-25)
(4.16029 -1.5487 0)
(6.67449 0.0404407 -2.00596e-23)
(-8.51665 4.30061 0)
(-4.49163 -0.789806 7.93567e-22)
(2.28658 -0.528378 9.21333e-22)
(-0.735087 0.47072 0)
(5.93671 -1.53183 1.56167e-21)
(5.05237 -6.10487 0)
(8.087 3.41333 0)
(4.76982 -2.25041 -6.50483e-21)
(4.31024 1.0786 4.67869e-21)
(4.86924 -1.52334 0)
(5.35576 0.641112 -2.9252e-21)
(12.2369 0.602801 2.79413e-20)
(-8.40698 1.80579 3.65808e-20)
(8.08331 4.45574 0)
(6.36944 -0.00914544 0)
(-9.06917 4.95833 -3.32893e-20)
(5.52039 -0.264409 0)
(7.91968 0.0462322 0)
(-4.91918 5.30345 -1.73264e-21)
(5.97136 -1.13325 -7.32721e-21)
(5.06044 -1.15373 4.51274e-21)
(9.68551 -1.18402 1.18007e-21)
(-8.20104 5.02654 3.76905e-20)
(5.94447 0.175074 2.34716e-21)
(4.34761 -0.918805 0)
(6.49307 1.56009 -7.52462e-22)
(4.0958 -0.519396 0)
(7.5117 0.103347 0)
(5.98893 0.376158 0)
(6.66265 0.610754 -1.80092e-22)
(5.4808 -0.0643256 4.22811e-21)
(6.60775 0.268875 -7.00508e-23)
(4.41914 -0.952648 0)
(-3.8101 3.68767 -2.01196e-20)
(6.02122 3.48209 1.12312e-21)
(5.34804 -1.91478 5.14534e-22)
(6.26522 -0.262453 -2.07693e-21)
(8.10601 -2.02395 1.26742e-20)
(6.18053 0.0826728 -3.91948e-21)
(-0.808943 1.8157 0)
(7.60434 -0.353364 0)
(4.11767 2.80173 0)
(3.54429 -1.53409 -9.77484e-21)
(1.74451 -4.95932 -2.05293e-21)
(-0.442502 -1.01624 0)
(6.57851 1.55298 0)
(7.81452 -0.671396 1.29101e-21)
(5.93422 -0.0368004 -1.09467e-21)
(5.69406 2.05242 4.73458e-21)
(5.88731 -2.47416 0)
(-7.21584 6.84973 -1.00855e-20)
(7.03774 0.244166 -8.31027e-23)
(3.99443 -1.04046 -8.98812e-21)
(6.67607 0.270816 -8.96291e-22)
(6.94367 2.02713 1.24916e-21)
(9.80504 -6.31423 1.04675e-20)
(3.49821 -1.51118 1.6844e-20)
(5.74198 -2.79344 3.48883e-21)
(6.49063 0.526545 1.99803e-23)
(5.96985 0.0374532 -1.16009e-21)
(4.39343 -2.12562 -1.52998e-21)
(5.25514 -1.18186 6.08075e-22)
(4.72211 6.64796 -3.35383e-22)
(4.75639 -2.26882 2.5718e-21)
(7.79089 -0.219178 0)
(5.127 -0.950981 1.15992e-22)
(6.43522 -0.00257022 -3.53607e-21)
(8.79269 2.51966 2.26576e-21)
(3.9102 -0.942851 -8.18735e-21)
(5.29164 -1.83131 -5.49139e-21)
(6.07483 -0.0494536 1.05213e-20)
(7.54403 -0.202859 -6.04653e-21)
(4.57538 -0.654405 -4.69793e-22)
(9.15557 0.288166 -5.58204e-21)
(3.32239 -0.349139 -1.78603e-20)
(6.60808 0.0198152 -2.8028e-21)
(3.24841 -0.543271 0)
(-1.23492 -4.43395 -7.09613e-21)
(6.16354 0.0612165 9.9471e-21)
(5.30285 0.00729275 -1.12309e-24)
(-2.87701 -2.65358 0)
(5.27358 -2.44329 0)
(6.04557 1.42421 4.07945e-21)
(2.90236 -0.283495 1.10807e-20)
(5.28308 -8.33701 -1.54118e-20)
(6.12 -2.01995 -2.79301e-21)
(6.47824 -1.12799 6.30873e-21)
(9.79537 2.39456 0)
(6.05913 1.52395 2.21887e-21)
(2.81691 -1.38724 -5.40258e-23)
(7.44249 3.34635 1.66136e-21)
(5.71468 -0.730172 -6.34943e-21)
(-7.72029 4.49339 -6.09622e-20)
(7.90483 -1.97039 -1.22114e-20)
(8.81139 -2.01302 4.14415e-21)
(6.62798 3.80548 0)
(6.39472 -1.21048 -1.46266e-21)
(5.57075 0.175648 1.0621e-21)
(5.89427 0.0544131 -2.28627e-24)
(2.80095 -1.3489 1.56055e-20)
(5.67607 -0.744895 9.56383e-21)
(4.97553 2.93583 2.24809e-21)
(-8.49327 1.72082 -2.05347e-20)
(7.17758 -0.409702 -3.64556e-21)
(6.49855 0.106528 2.50474e-21)
(-6.83817 6.20007 -6.81325e-21)
(7.15906 3.2944 -1.12723e-21)
(1.17545 -0.124529 -3.34282e-20)
(3.61008 -1.74749 -5.17171e-21)
(5.92346 0.0476116 0)
(6.44908 0.85917 -5.33812e-23)
(-7.2915 1.40345 -2.26464e-20)
(3.85092 -0.319033 1.60467e-20)
(6.21232 0.160522 0)
(6.25471 -0.8805 8.30839e-22)
(3.33715 -1.27148 3.81281e-21)
(5.98204 0.112962 -1.00039e-20)
(-8.52775 3.7033 -2.52164e-20)
(4.8241 -1.45697 -3.2209e-22)
(6.49239 -0.543421 3.70313e-21)
(6.84076 0.239981 9.15163e-22)
(5.12631 -2.33013 -6.87065e-21)
(6.62574 0.36374 8.45475e-23)
(1.65896 -5.68075 -8.5544e-21)
(6.43061 0.0257689 3.31633e-21)
(6.13587 -0.159938 -3.01645e-21)
(6.40635 0.381586 -9.31242e-23)
(6.85736 -0.127456 -6.4401e-21)
(3.21952 -1.34134 -7.36352e-21)
(6.54801 0.473593 0)
(-4.05448 -4.6534 1.10412e-20)
(6.24132 0.0828328 7.55744e-22)
(2.12704 -0.238575 -9.40162e-22)
(7.48104 0.144239 -1.02061e-21)
(6.31997 -1.16031 -3.90498e-21)
(6.01636 0.0583402 -7.69704e-21)
(6.28232 1.04958 1.175e-21)
(-8.18657 4.05031 -2.84091e-20)
(7.94474 0.0947799 0)
(4.47094 -0.210529 6.3756e-22)
(7.82111 -0.320359 7.76099e-22)
(4.18672 -1.49596 0)
(6.38124 0.339181 1.972e-21)
(7.85411 -0.251693 7.73915e-22)
(7.86506 0.13527 4.76015e-26)
(7.19543 -2.67051 -5.40242e-22)
(5.50943 -0.409451 0)
(5.23955 1.18627 8.46892e-21)
(6.18541 2.51927 -8.95144e-22)
(4.67461 -2.21076 5.58413e-21)
(5.96193 -0.485089 0)
(4.26915 1.04385 -1.35521e-20)
(3.39421 -1.13897 -4.60212e-22)
(7.34726 4.72406 -4.79418e-21)
(3.35086 -0.410992 1.74705e-20)
(6.44957 0.0581491 1.09273e-22)
(-6.22896 2.34473 1.4365e-20)
(5.67274 -0.253626 -6.58526e-21)
(8.76424 -1.55052 -1.04079e-20)
(5.24287 0.551529 -6.16966e-21)
(6.36898 0.0526063 0)
(5.96948 0.0913052 -4.39111e-21)
(-0.817295 -0.472207 3.06875e-21)
(-2.47211 -1.38435 0)
(8.89943 -3.68435 0)
(5.89741 0.059866 0)
(2.225 -0.623193 0)
(6.13735 1.0383 0)
(3.14798 -0.302371 0)
(6.12577 -1.91346 -1.06207e-22)
(12.2359 -0.670558 -1.4068e-20)
(7.82803 1.2474 0)
(5.18343 1.1533 1.25974e-20)
(4.04657 -1.14151 3.36244e-22)
(6.20798 0.706453 1.1794e-22)
(-7.03678 2.75165 -1.19605e-20)
(3.20328 0.423322 -4.83219e-23)
(-8.49596 4.07271 2.25283e-20)
(6.21929 -0.00196825 -2.38413e-21)
(8.26307 0.0375468 6.51782e-22)
(6.07646 0.993958 -2.79941e-21)
(5.61233 0.610561 -8.292e-21)
(5.85884 3.235 -3.08812e-21)
(10.1898 4.04562 0)
(-0.411711 -1.44756 3.80322e-22)
(3.52394 -0.915034 -1.45727e-20)
(6.0593 0.0389073 -1.33232e-20)
(6.64237 -1.9745 -5.40704e-21)
(6.47621 -0.0120438 1.03642e-21)
(7.72206 -1.9187 6.80654e-22)
(6.1736 -0.892774 -8.2947e-22)
(5.97652 -1.49782 -5.42144e-21)
(6.01931 0.568785 3.05695e-21)
(5.42397 4.0434 0)
(5.57688 -0.898505 -7.71971e-22)
(4.89618 0.343805 -1.89312e-21)
(7.28757 -1.2238 0)
(5.10536 -0.480223 0)
(5.394 -2.45781 -5.00292e-23)
(-5.82284 1.79432 1.42637e-20)
(6.04551 -1.967 -3.69355e-21)
(5.13641 0.0285113 0)
(5.60447 -0.114237 -8.6465e-21)
(5.37092 0.746107 -1.60687e-21)
(-3.59566 -3.96449 5.32451e-21)
(7.96798 -0.056093 2.72435e-22)
(-8.1953 3.83588 0)
(-0.581527 -1.30364 5.76802e-22)
(7.86645 -0.207266 0)
(6.33961 -1.23426 1.54485e-21)
(7.51855 -0.740374 -1.24472e-21)
(6.03451 0.0704837 -5.89525e-24)
(7.05444 2.22182 -6.88925e-22)
(8.01684 3.9981 -5.98844e-22)
(4.8983 -1.33116 1.10239e-20)
(1.23096 -2.03607 0)
(4.41362 -4.64585 -5.58665e-21)
(4.17845 -1.90962 0)
(8.00831 1.21387 -1.1362e-21)
(-3.7037 -3.82473 8.50231e-21)
(8.95893 -3.62614 1.03005e-20)
(4.59082 -0.285477 -6.21629e-22)
(-5.11425 -4.51925 -4.33646e-20)
(4.2032 -1.97225 -6.44941e-21)
(3.65561 -0.936291 -8.47454e-21)
(5.51049 0.439103 4.48858e-23)
(4.77059 -4.36067 4.56119e-21)
(3.28196 -1.36236 6.03665e-21)
(3.84308 -1.01011 9.18421e-21)
(1.73459 -4.71199 2.57222e-21)
(5.57177 -4.92048 -3.42318e-21)
(5.22087 -1.58409 5.45975e-21)
(-3.38386 2.71587 2.03805e-20)
(6.73657 0.107674 5.05316e-23)
(4.00173 -1.28408 -3.03885e-22)
(7.03786 1.43608 -3.92228e-22)
(6.51087 -1.63519 0)
(2.68673 -0.136593 -4.02175e-20)
(6.26731 -0.0181375 -4.23204e-21)
(5.99432 0.397627 0)
(7.94597 1.13292 0)
(3.68875 -3.25163 -1.99366e-21)
(9.75795 -1.94084 -1.20537e-20)
(7.33421 0.761762 1.58994e-21)
(5.9521 -1.09141 9.63139e-21)
(5.8061 3.13287 2.92274e-21)
(5.04944 -0.0624656 6.78608e-21)
(-4.5272 -3.4205 -9.91067e-22)
(5.26879 2.05051 0)
(3.9505 -1.10821 8.7649e-21)
(-1.35863 7.63189 6.28544e-21)
(-6.21063 -2.97904 3.20997e-20)
(4.93274 -1.853 1.85027e-21)
(5.27506 -2.40332 -1.52279e-21)
(6.13398 -0.0385928 3.3411e-21)
(4.90768 -0.344302 3.36789e-22)
(7.3629 -1.24245 7.36514e-21)
(-5.03282 -3.6678 -7.95172e-21)
(7.26805 0.729891 -1.17358e-21)
(5.74839 0.20929 3.45322e-21)
(3.23322 -0.520441 -7.18541e-21)
(5.5727 -0.184647 5.40184e-21)
(4.15222 -0.574177 0)
(7.31293 1.30372 -8.38248e-22)
(5.86325 0.133241 7.66419e-22)
(4.24347 -0.777386 -2.80668e-21)
(5.77674 5.6621 1.26847e-21)
(5.13788 -1.53837 4.0529e-21)
(6.11258 0.0421683 1.49728e-21)
(3.94176 0.59387 -1.0419e-20)
(7.34895 -1.25103 0)
(4.60109 -0.13555 -1.05547e-21)
(6.70282 0.297035 1.21391e-21)
(6.17317 -0.393489 0)
(4.11073 0.328916 5.9834e-21)
(7.92627 -0.0675841 0)
(4.93335 5.64259 2.00159e-21)
(7.26335 -0.0914692 0)
(5.57194 -0.974248 0)
(7.53398 -0.158394 8.01108e-22)
(7.27075 0.573781 -4.90285e-22)
(9.09941 0.825975 -8.12133e-21)
(5.71346 0.498998 -3.74349e-21)
(4.53797 3.58255 -2.62897e-21)
(5.9663 0.315035 -1.42544e-21)
(6.22833 1.04956 0)
(3.01904 3.72995 -2.46929e-21)
(7.59856 0.521088 1.81025e-21)
(6.23821 -1.22723 -3.15913e-21)
(6.52022 -1.6208 0)
(8.92339 2.45397 3.38738e-21)
(6.44939 5.33636 2.66437e-22)
(6.69593 0.0915708 2.08413e-22)
(5.35841 -7.67348 0)
(-3.13902 4.46961 4.25441e-20)
(6.10514 0.575958 0)
(7.4837 -1.05628 -3.69044e-21)
(0.745361 -1.394 0)
(6.91509 1.76509 0)
(5.61352 -3.09545 0)
(5.83113 -2.1752 0)
(-5.32528 7.74495 -5.30496e-21)
(-3.26963 -5.76918 -4.39705e-21)
(5.45871 -0.0714717 -6.32264e-21)
(-1.2122 -3.51395 -2.74989e-21)
(3.5416 -1.44221 0)
(-0.772202 -5.12507 -2.82413e-21)
(0.0690535 -2.04492 -2.40701e-20)
(4.5341 -2.1245 0)
(4.18422 -1.36432 -9.47001e-21)
(5.42167 0.864641 -4.32429e-23)
(6.98561 1.34617 8.94443e-22)
(6.99451 -2.41541 1.50724e-21)
(5.53517 0.550616 0)
(6.30418 -2.02747 0)
(10.5179 1.40145 4.08933e-21)
(5.25489 -1.09955 1.64083e-22)
(5.33965 0.413755 -1.71865e-22)
(3.69228 -3.12468 3.27419e-24)
(5.99499 0.0214208 3.24638e-22)
(6.43539 0.814991 1.14311e-23)
(6.05634 0.561764 4.33182e-21)
(4.35808 0.07534 5.42393e-22)
(5.41794 -1.43123 0)
(-4.56118 5.1659 0)
(6.62135 0.31775 0)
(5.5228 0.0642578 0)
(5.05945 -0.851342 3.9434e-21)
(8.68487 -0.135802 0)
(-5.022 6.92994 7.86957e-20)
(8.73489 -7.03906 -6.52434e-22)
(3.73155 -1.04767 -1.38742e-20)
(3.96919 -1.11689 -1.60275e-22)
(-3.73727 -4.91508 -6.45711e-21)
(-1.42381 7.11559 -3.65992e-20)
(6.10528 0.0906876 1.18396e-21)
(-5.58936 -2.68924 -1.07572e-20)
(4.285 0.285201 8.43772e-22)
(7.54713 -0.147125 0)
(6.85244 -1.16603 0)
(4.65395 -1.02741 0)
(6.3102 -1.22397 2.07045e-21)
(5.60857 -5.70906 0)
(5.39458 2.02497 0)
(6.01695 0.0272204 0)
(5.11066 -1.14648 4.22422e-21)
(6.26274 0.663106 -3.90242e-21)
(5.24364 0.0558005 0)
(6.3512 -1.94162 -3.63983e-21)
(5.92676 0.621659 -4.33279e-21)
(7.45786 3.21956 -3.62718e-21)
(4.58481 -2.10386 5.78671e-21)
(5.59565 2.24348 2.7546e-23)
(5.21958 -1.42011 -1.09962e-22)
(5.04022 -0.544594 7.63314e-22)
(5.67664 -1.23055 -1.56688e-21)
(7.18338 0.621333 7.54066e-22)
(5.40679 0.387632 -3.35497e-22)
(5.40699 0.275091 -6.02944e-21)
(6.33865 0.013479 0)
(2.62021 -0.260842 6.87016e-22)
(5.82427 0.211074 6.16235e-21)
(3.04862 -1.47923 -4.6393e-22)
(6.15644 -0.828567 -2.41969e-21)
(2.98628 -0.361401 -1.2053e-20)
(7.21543 0.506156 -1.47616e-22)
(9.59245 1.80842 6.71067e-21)
(6.01761 0.245868 0)
(4.95033 -0.86966 1.35196e-22)
(5.07004 -0.0134995 -2.85974e-22)
(5.72983 -1.25237 3.09128e-21)
(-1.15703 -0.931794 -4.35519e-21)
(5.9657 0.0706354 3.23064e-21)
(6.63943 0.457211 -2.17115e-23)
(6.3295 0.0503887 -8.6066e-23)
(6.54628 0.260675 0)
(3.50198 -0.866325 0)
(4.26598 -2.03007 7.16362e-21)
(-8.32222 3.44446 2.72381e-20)
(5.93938 0.0206134 -1.23354e-24)
(5.85942 0.205966 1.23078e-20)
(4.48198 -0.669619 -4.36406e-22)
(4.25297 0.948001 0)
(5.29187 0.342139 0)
(4.57976 -0.909998 -4.50083e-23)
(7.41829 -0.0550933 1.18712e-21)
(5.76046 2.12131 6.31726e-21)
(7.32876 -0.606818 0)
(7.02616 0.0362915 0)
(5.99661 -1.68361 7.69608e-21)
(5.87841 -0.448034 5.09303e-21)
(0.0252529 0.353011 -3.75088e-22)
(5.92896 -0.166921 0)
(5.2989 1.76139 4.01346e-21)
(6.97747 -2.40986 -1.59756e-21)
(-9.16197 1.1575 -2.69195e-20)
(5.90125 -0.057133 -6.93423e-21)
(11.967 -0.368832 0)
(10.0863 -1.70464 9.56307e-21)
(7.26976 -7.83902 -3.45827e-20)
(0.140009 0.297825 0)
(5.55678 0.0802521 -2.12261e-22)
(5.71879 0.368391 -4.03699e-21)
(5.94068 0.0229292 -1.6814e-26)
(7.72421 -0.82881 7.24325e-22)
(3.78221 3.9799 6.4015e-21)
(6.37683 0.0757926 0)
(2.88332 -0.924417 -7.61074e-23)
(5.03355 -0.677733 4.0452e-22)
(10.1408 0.217683 -5.17349e-20)
(6.10118 0.99139 3.31494e-21)
(1.36197 -1.88319 5.79431e-23)
(6.04359 0.0612481 -1.52221e-20)
(4.89603 3.05592 -1.53677e-21)
(4.81083 -0.486108 7.45634e-22)
(5.04597 -1.05202 0)
(5.24462 -0.0378573 -1.42825e-21)
(3.20107 -1.40895 4.88244e-21)
(6.56095 -0.284373 -7.32232e-21)
(5.87972 0.132163 -5.56965e-21)
(7.35123 -1.03605 3.33289e-21)
(4.91438 -0.369348 1.43007e-20)
(6.70439 0.0692344 -5.81212e-23)
(5.22701 0.380157 3.47577e-21)
(5.60669 0.571827 -9.36832e-23)
(9.73241 -1.21713 -1.32029e-20)
(7.24186 3.51022 -2.69783e-21)
(5.69916 -7.97837 1.19625e-20)
(5.97002 -0.0806393 0)
(4.98063 -1.04972 0)
(3.21749 -1.24394 0)
(3.73659 -0.949637 1.06647e-20)
(6.18232 0.0448528 -8.89364e-21)
(5.3319 0.802896 0)
(4.33248 -0.818396 -8.31968e-21)
(5.28984 0.727694 0)
(5.10449 -0.768046 -6.48356e-21)
(6.20429 -1.27258 -3.34816e-21)
(5.38148 -1.33437 -5.95053e-21)
(6.47843 0.0672266 0)
(5.72863 0.158832 0)
(6.18408 -0.404234 1.85197e-21)
(7.79889 1.08975 1.21646e-22)
(8.20868 -0.252492 4.90498e-21)
(6.87479 5.5699 -3.17264e-22)
(7.39616 -0.715791 0)
(4.95497 -1.79002 -3.06736e-21)
(-1.47135 -0.404898 0)
(2.34687 2.64245 -5.49438e-21)
(8.10446 3.95449 0)
(6.59454 0.412755 4.38233e-23)
(3.35609 -0.273854 4.63581e-21)
(4.31026 -0.22746 4.6235e-21)
(5.87691 -0.214475 -1.86135e-21)
(8.37139 -6.84675 -3.5859e-20)
(5.71579 -0.523262 1.28863e-20)
(6.13838 1.04193 -1.23341e-22)
(7.14305 -1.92635 -8.053e-22)
(5.77385 -1.20174 -2.97752e-21)
(-0.0784763 1.08075 1.09263e-20)
(7.91926 1.59843 0)
(5.9273 0.123726 1.60065e-23)
(4.37325 -0.957764 0)
(4.81593 -0.418675 -7.39692e-22)
(5.01665 -1.79164 -1.59623e-21)
(4.98828 -0.302396 -4.6957e-21)
(5.90773 0.00484627 9.89774e-25)