/*--------------------------------*- C++ -*----------------------------------*\
| =========                 |                                                 |
| \\      /  F ield         | OpenFOAM: The Open Source CFD Toolbox           |
|  \\    /   O peration     | Version:  2306                                  |
|   \\  /    A nd           | Website:  www.openfoam.com                      |
|    \\/     M anipulation  |                                                 |
\*---------------------------------------------------------------------------*/
FoamFile
{
    version     2.0;
    format      ascii;
    arch        "LSB;label=32;scalar=64";
    class       volScalarField;
    location    "8.9";
    object      p;
}
// * * * * * * * * * * * * * * * * * * * * * * * * * * * * * * * * * * * * * //

dimensions      [0 2 -2 0 0 0 0];

internalField   nonuniform List<scalar> 
13486
(
1.79378
1.72407
-0.0190743
-4.91754
-0.868286
0.184175
-1.07923
-0.109719
0.622464
1.14804
-3.50347
0.237468
1.86407
0.300183
-0.487673
1.21414
-3.25745
0.628051
0.266153
1.64347
-5.11507
1.82031
1.69625
-4.45044
1.07
-4.14132
-3.32494
-1.11857
-0.00188341
-1.60167
-4.46919
0.126457
-1.62575
-0.989977
-0.0899379
-0.000394115
-0.162529
0.936175
-0.168427
0.801117
-2.93584
1.97941
-0.00790378
1.0437
1.02201
0.230896
-3.34483
-0.00190985
-0.154319
-0.623959
1.25401
-0.230276
0.289587
1.01913
0.234606
-0.75506
-0.591156
-0.221866
-1.58691
-0.255595
-4.18681
-0.265231
-1.50812
-5.03428
-10.6857
-0.187329
-5.03288
1.98203
0.58736
-0.114927
-5.01476
0.390313
0.95021
-2.42837
-0.245792
-0.560431
-0.224289
-0.561636
-3.39862
-0.297726
1.05592e-05
1.80105
-1.5224
0.0222732
1.79268
1.38698
0.0787873
1.22441
1.4222
1.29794
0.375904
-0.341813
1.60718
1.68236
0.556967
-0.00185361
-3.31996
-5.42048
0.776007
-3.38839
0.0194614
0.366232
-5.59897
-0.219314
1.54852
-3.4651
1.28344
-0.166833
-3.43599
-0.769343
0.229713
-0.0403751
1.02308
-0.161202
2.39219
0.368028
1.08349
-0.925951
0.96299
-0.128655
0.638349
-4.0136
0.707497
-0.173003
0.287523
-0.215962
0.199767
0.656595
-0.85777
-8.39849
-0.213815
-3.25581
-3.00547
-2.16868
1.27879
1.34938
2.75553
-0.67937
-0.120031
0.057906
-1.21056
0.299053
0.247167
-0.312806
-0.0753439
-1.03691
0.017796
2.10276
-0.689283
-0.00109772
1.02773
-0.903224
0.00205842
1.84426
0.745068
-0.0250095
-1.18178
-3.3321
0.643213
-0.122195
-0.334391
0.649094
0.628518
1.96468
-0.232004
0.0891282
0.462201
2.9173
0.0139851
-2.1735
-3.11709
0.751939
1.13274
0.102909
-0.00477815
-8.70682
0.222255
-1.26556
1.26913
0.247044
0.60341
-0.137958
0.136362
-3.57085
0.0694508
-1.0672
0.000237174
-1.2791
-2.69513
0.512686
-0.146058
-0.0910293
-0.24924
2.11836
-0.295103
-3.38427
-9.03148
-0.389228
1.25449
0.145833
-4.54035
0.640493
0.941426
-1.77241
-0.142969
-0.312118
0.232585
1.18945
-0.235765
0.0684149
-1.18132
-5.63982
1.62572
1.28928
0.18939
-1.21321
-1.55795
1.30263
1.42477
-1.17522
-3.31127
-0.693629
0.129075
-0.397156
0.289203
1.54816
-0.00963742
-7.90513
-0.694976
0.0599754
0.595896
-4.78881
-1.26633
2.05637
-5.93962
1.39733
-1.13215
-0.0848621
1.43245
0.231127
-1.78005
1.11865
-0.0982649
1.22639
-0.125871
1.46029
0.288813
-2.79504
-2.11556
1.11037
-5.28636
2.44114
0.262428
-0.174452
-0.465591
-8.70708
0.174964
-1.19587
-2.96553
-1.89573
1.55343
-0.125014
-0.41738
-8.38052
-1.03298
-3.55829
-0.699164
-5.08594
0.915164
0.516546
1.76359
1.29573
-1.58709
0.242037
1.5525
-2.53504
-0.463811
-2.24146
-0.186143
0.0330201
-2.51258
0.494732
1.3148
-3.91397
-3.89497
-3.39021
-1.04125
-0.872799
0.271703
0.944956
-5.76162
-0.141214
0.46737
1.28428
-1.09268
-1.2079
-0.354051
0.217552
1.30782
-2.08638
0.680778
0.280623
0.0199351
0.0853603
-0.129584
-1.70131
-5.23142
0.302617
0.0509222
-0.153142
-2.19032
-4.84454
0.42545
0.0308682
-3.47667
1.37716
-0.141938
1.43563
1.21841
-0.846664
-0.17592
-0.137305
1.27211
1.71368
2.70442
0.343369
-0.136079
0.461902
0.151777
-0.248601
1.22879
-0.447966
0.438995
2.02966
-1.26541
0.436042
2.41921
-0.895479
1.0828
-0.118394
-0.751103
1.71192
-0.328185
0.115069
-3.73205
-0.00182654
0.246552
2.27978
-1.2009
-0.133334
0.344466
0.187808
0.231507
-3.3027
1.29867
-0.0499913
-2.49207
0.199426
0.0342704
-4.9659
0.259435
0.394026
1.51268
1.29923
-1.63615
0.00132234
-1.17768
-3.25875
1.67059
0.236252
-0.0104634
0.277442
0.260232
-5.16119
0.291617
1.2668
1.32189
-0.122029
-3.33716
-1.84283
0.872868
-0.5866
2.02252
1.82249
-3.26943
-0.506048
0.440126
1.067
-2.41896
-3.64761
1.58018
-1.57689
0.890494
1.5216
2.12245
-0.113139
-4.95229
-5.05841
-2.7171
-1.1514
-2.49685
0.923426
0.711783
-5.50338
-0.946429
0.192986
1.65583
-1.30195
0.345453
1.66305
1.03864
-0.103809
-1.47782
1.31933
1.30982
2.07007
-3.66611
-0.997568
-3.28589
0.225881
1.27461
0.713326
2.29949
1.11262
-0.148351
-1.2527
0.648031
1.32469
-3.33298
0.539159
1.82189
0.726541
0.878216
0.243857
-1.36063
-2.52197
2.04477
-0.13267
0.132365
1.95109
-3.19095
-1.53541
-2.14049
-1.55475
-0.00155441
1.12534
1.98136
1.85319
-1.96247
-0.131904
-3.7645
1.09716
1.45828
-0.619093
-0.403107
1.32763
-4.57389
-9.37027
-4.17502
-1.27242
0.508544
1.35673
-0.00528085
0.550028
-4.98231
1.36471
-0.000757116
2.6991
1.57795
0.865831
-0.272733
-0.00261292
-0.0017281
2.39313
-0.544307
-0.115148
-0.145112
0.448164
-3.4269
0.214738
1.14627
-0.0690852
-0.0507826
1.69879
-1.05247
-2.92457
1.09472
-3.74256
2.90624
1.10588
1.26467
1.33829
-8.32949
0.0922322
2.4317
-1.20959
1.68709
-1.94286
0.70357
-5.38874
-0.287031
-0.0186836
-3.60583
1.47444
0.305841
-5.55452
0.000720137
0.133724
2.12137
1.11405
-0.493152
0.361795
0.287245
-0.0104153
-1.14813
1.2686
-3.18599
1.99892
-0.150048
-0.112062
1.9941
-0.615169
-0.0187992
0.370676
-5.92343
-4.83359
0.254872
-0.877471
0.757176
1.60133
-3.36953
-1.32074
-3.36353
-0.00161209
1.41299
0.693304
-3.64493
-5.75499
0.803154
-3.00788
-0.0303789
-10.5555
-0.365889
0.367104
1.99393
-0.139812
1.50983
-0.932103
-4.97733
-0.601253
0.872573
-3.64043
1.12724
0.0746339
-4.51836
0.253926
0.97643
-2.13764
-3.39844
1.26499
1.51414
0.82178
1.83408
0.0806361
1.12374
0.663385
1.25029
-0.0603987
1.42103
-3.3114
0.895978
0.267873
-0.819474
-2.50214
1.25097
-3.07897
0.224503
1.93627
1.78289
-7.08898
-1.93892
0.775564
0.316992
0.75085
1.33499
-2.05968
-3.26632
0.377615
1.66822
0.567181
0.577419
-9.70647
1.80889
-2.66197
-0.13651
1.31071
-0.320766
-0.292838
0.520149
-0.129025
0.123358
0.101347
0.843163
-0.693953
1.74892
0.362495
0.449554
0.47926
0.327696
-0.987248
2.23412
0.725455
2.21269
-7.44886
1.01044
-0.0046157
-2.46083
-0.965065
1.10055
2.40304
-13.4921
-0.659507
-0.211904
-1.32778
1.08562
0.563077
0.104334
0.687503
-3.41316
-2.33652
-2.77373
0.438015
-1.04243
1.31929
-0.00272232
2.02732
0.737574
-0.148827
-4.95662
-1.16257
0.758482
-3.69186
0.317275
-3.52666
1.36805
4.59123e-05
-0.51546
-5.86845
2.01111
-0.000328697
0.665905
1.95271
1.26267
-3.85085
-0.126449
0.306949
0.470682
0.196748
-0.0880512
-8.58641
0.831639
0.770572
0.732372
0.611898
2.00563
-0.121715
-8.58025
1.25413
0.512683
0.113169
-0.105879
1.16935
0.92837
-3.70699
0.0747237
-0.124513
0.180479
1.41185
0.746457
0.143173
0.0400778
-3.28623
-0.352221
1.55516
-0.222483
0.128388
0.732404
1.99526
0.7105
-0.202738
2.20624
-0.00930035
-4.68015
1.03685
-2.23323
1.52449
-0.0695729
1.3043
-5.70057
-2.25188
-5.45628
-0.00130315
-3.09031
1.03086
2.31909
-1.39862
-1.65747
-0.0681216
1.59025
0.456557
0.909808
-5.45062
2.40162
-3.76842
0.313995
-0.698065
1.07726
1.4223
1.05148
-1.64408
-4.83451
1.94854
1.35166
-1.36517
0.749346
-2.92331
0.24267
-0.0396435
1.0547
-2.16364
-0.442495
1.61832
-0.780603
-0.205784
-0.189022
-4.91805
-1.3868
-0.171223
1.16227
1.51509
-7.76777
0.0868784
-3.90007
-4.94468
0.125862
-1.03321
0.399815
1.30234
0.432262
-0.470211
0.894382
-1.84594
-7.50744
-0.178743
-0.191086
-7.37988
-5.31139
-0.12818
-8.38149
0.170195
1.87653
-0.118244
-7.13434
1.96035
1.76102
-6.59206
-8.32832
0.510363
-3.28293
-0.0994044
0.427869
0.479924
-0.759726
-2.97554
0.945443
1.12956
-0.128831
-3.79745
-2.59159
0.221748
0.288587
1.10776
0.399421
-7.6254
1.50107
1.68072
-3.36384
-8.29738
0.695222
-1.95884
0.474474
-0.158254
-1.49533
-7.44226
0.253741
1.28641
2.23077
1.13534
0.341225
0.286722
1.27315
1.66142
0.490882
0.60927
1.13016
2.09406
-0.8316
-0.134492
0.55127
-0.716801
2.01141
0.0986976
0.682877
0.431424
-0.45006
0.22163
0.264264
-0.858058
1.35545
1.54158
1.1401
0.96998
-1.5544
0.0357715
-0.943165
-0.70937
-0.774002
0.132094
-0.0764028
-10.891
-4.7176
0.997093
-1.42647
-2.1201
-1.32956
-3.00188
-0.440066
-3.2376
-9.679
1.26336
-6.2451
1.80133
-8.12859
-2.1402
0.837574
1.45107
-0.279281
0.501964
-2.42805
1.43807
-0.939956
-1.41466
-0.2606
-0.135715
-3.31726
1.31471
-0.495131
1.05451
-0.13292
0.481193
-3.32405
-0.0802047
-0.0497798
1.14608
-1.01571
-3.66996
-10.3162
1.79569
0.502393
-9.08352
-3.4155
1.12495
-7.40023
-0.137976
0.217165
-0.399222
0.266461
-0.137417
-9.976
1.46681
1.32103
0.930282
0.923104
-0.125641
-1.55924
1.21275
0.151142
0.886795
1.3115
-0.326997
-0.171802
-0.567611
0.298627
-0.127081
1.44535
0.86234
0.681657
1.29504
0.502064
0.284728
2.35885
0.263631
-1.09425
1.13375
0.13284
-0.166602
-0.634094
-5.06177
1.09945
-0.122002
-0.0104292
-0.0562267
0.668533
1.09337
-3.91454
0.00195285
1.29443
0.150619
2.03862
1.49222
1.37544
0.226485
1.24934
0.237829
-0.073012
-0.271952
0.808801
-5.49618
-0.830497
-1.57104
-2.43098
-5.75794
1.01297
-1.63787
-2.63745
-11.1452
-5.49063
-0.065791
1.35581
-0.0236325
0.408514
-2.33402
1.31113
2.2456
0.168058
-4.01152
1.0602
-1.44928
1.02913
-0.139388
-0.134464
1.05728
-0.262896
2.01445
0.398784
1.27719
-1.36015
1.4601
-0.105892
1.51166
-0.159813
-2.05574
0.24115
-13.3668
0.414573
0.172492
-4.59348
1.83482
1.31198
1.54061
1.56903
1.54466
1.15657
-0.93553
0.595773
1.33049
1.26824
-0.735617
-0.0148226
-0.880631
-0.298968
0.266065
0.700224
-2.25029
2.47978
-0.485176
-0.109599
2.24053
1.73611
-0.827552
-10.4619
0.845051
1.01626
-3.10245
0.413877
-2.17822
-0.062663
1.27746
1.46246
-0.142104
0.653445
1.45164
0.000966686
-0.297764
1.56237
0.253697
-0.139439
-3.33074
0.0168717
-0.834512
1.356
1.48797
-0.176382
-2.47681
-2.12671
0.233694
-0.159157
0.220047
1.95449
-0.202469
2.58724
1.03425
0.26989
1.21611
-3.91501
-2.60083
-7.13825
1.10678
-0.150442
-2.08537
-4.37387
0.957012
1.12096
-0.119862
-0.595095
-3.43933
-0.447317
0.482467
-0.126201
0.45026
0.240587
1.28579
1.31286
1.50098
0.745845
-0.837709
-1.61431
-0.968152
0.0574504
-7.96472
0.591861
0.420811
-5.72618
-0.126468
-0.182705
0.698381
-5.81099
0.428239
1.03701
-0.0522537
-2.29768
0.134822
-0.599358
-2.41982
0.216951
0.160377
0.656213
1.16998
1.09881
-2.16108
1.273
-0.0725214
1.63195
0.496638
0.998316
0.636857
0.237841
2.01578
2.49471
0.634916
-1.09028
1.15096
0.345321
2.02639
-0.321874
-1.56087
-5.46971
0.222345
-0.335883
-1.76392
1.30091
0.974817
0.249916
-2.21352
-0.188329
0.756522
2.3468
-1.43599
1.24338
-2.78606
0.637117
1.91775
-0.566514
0.198031
-5.3978
1.18224
0.258342
2.52645
0.0174116
-0.932706
0.968087
0.220386
-3.63944
-2.19367
0.721886
1.52306
-0.0357231
-0.976925
1.7747
1.65753
-0.33532
-1.54938
-0.0117377
0.652593
0.801701
0.897013
1.40692
0.376622
-3.3668
1.56438
0.155753
-1.31652
-0.122727
1.44299
1.0731
-3.98027
-5.34712
0.000594368
1.25555
1.89159
0.317085
0.675425
-0.85748
2.37177
-3.34911
-1.15353
2.05592
1.26006
0.292384
0.326455
-5.02481
-0.362236
-2.75131
-3.36553
-0.127812
-7.21367
0.40372
-1.55381
-3.21787
-3.11413
-1.06391
-1.6159
-2.58909
-5.08899
1.70921
1.35366
-1.24728
-3.36023
0.203051
0.631775
-0.834731
2.57241
-0.416993
-0.815077
1.26341
-1.82868
-7.36232
-0.184586
-0.252695
0.979372
2.65826
0.000372869
-0.542591
-4.93114
0.0784641
-0.294091
0.248063
-0.0590855
1.58315
1.30258
1.33653
-5.44975
-0.255517
-0.107243
0.557501
1.2675
0.515807
1.34469
2.42344
2.16193
-1.7961
1.26561
1.56434
-0.790382
1.35661
-0.171566
2.11849
1.32378
0.408557
1.51088
0.989881
-0.108521
-0.144056
1.48256
-1.50635
0.545872
-0.810813
-0.630737
0.170441
1.04402
-0.153323
0.283045
1.98538
1.96805
-0.100179
-2.16175
0.220824
-3.31178
-0.468786
1.34357
1.61322
-2.14963
1.28001
0.510705
0.229324
0.571163
-5.97541
-5.485
-0.174229
2.58927
-0.405057
-0.0168477
1.65436
0.159088
-0.37748
0.970776
0.227185
1.21393
-1.74173
-1.32518
0.36416
-0.0850282
-0.449015
-0.207035
2.2774
1.72266
0.989842
2.20527
1.89104
-0.352162
-0.183769
0.152538
-0.621791
1.99126
-5.83017
0.846118
0.38393
-4.24037
-0.390927
1.1903
-9.87005
0.241163
1.22752
2.68762
-3.3003
0.244167
0.266636
0.715403
-0.021926
-6.10672
1.91545
1.31772
0.552917
1.09975
-2.17189
-1.45592
-3.63613
2.15641
-0.188512
2.50375
-4.31511
0.631118
-2.48826
-1.20851
-2.3932
0.43642
-0.203914
0.806119
0.0996031
0.788159
-6.20941
-0.00103704
-5.07066
-2.15756
-0.984469
-1.47931
0.0848733
-0.359056
-4.86384
-4.09285
0.424988
0.485781
2.0407
1.30809
0.147924
0.24807
2.9866
0.813751
-3.31539
-0.00548939
0.276339
1.22709
0.575466
1.58875
-0.874964
-0.924469
-0.259534
-0.000234258
0.230933
1.74834
-2.18089
-4.00174
-3.55301
2.19712
-5.2137
0.42371
1.38303
-4.69556
0.126503
-0.139449
-3.28631
-3.32088
-0.175032
1.14551
0.942546
1.36101
-1.37533
-2.20493
-0.72606
-3.48997
-1.90943
-0.836032
0.377068
-3.51963
0.0224859
-5.96129
-3.30006
-3.57809
1.76012
-5.22501
2.19638
-3.80331
-0.957704
0.0269193
0.438701
1.48189
0.241691
1.76022
0.121784
-2.57084
-3.22137
1.2972
-2.13548
1.16697
-0.130927
1.8668
1.5745
-0.134424
1.11616
1.98895
0.754594
1.15991
-1.5787
-2.49177
0.132796
-2.1269
-0.184775
-0.499795
-0.590209
-0.0111775
-3.22806
0.21934
-0.294393
-0.0101237
-0.41026
-1.17865
2.10886
0.0605458
-0.00159987
0.199875
1.30722
-7.55186
-0.00166695
0.802044
-0.171728
-0.0805744
0.0744323
0.466438
1.30609
1.29004
0.00431732
1.34512
1.47911
0.930677
-1.63997
-0.110244
0.710389
0.451802
-0.839091
-3.37793
-9.13274
-1.13385
-5.09621
0.0314301
-0.192453
-0.223641
-2.20082
-0.65984
-6.06593
-0.252357
-3.96959
0.835584
-3.41391
1.35119
2.95196
0.848223
-4.69273
0.94541
0.56902
0.221934
-0.000507562
-1.84664
-11.9736
0.097373
1.31926
0.00177202
1.90968
0.00928216
1.28865
0.0306565
0.160438
-2.67309
-1.07199
2.52916
-4.8144
1.33492
1.29442
1.57684
0.0982016
1.31082
0.517457
-2.40336
0.712469
-3.29574
-3.57383
1.34566
1.26088
-1.40088
0.606449
1.58406
-2.97537
-11.6638
-0.202041
-0.0679131
1.31811
1.0023
1.46022
0.216827
0.624518
-1.8897
-1.03526
-1.70024
1.45609
2.47464
-2.07589
-3.18408
-2.75906
0.30431
0.0670407
0.0760148
-1.4076
0.558144
0.119682
-5.07567
0.146735
2.48629
0.923146
0.575311
-4.68997
-5.12828
-2.91505
-2.93834
-3.34616
-4.22573
1.66779
1.00107
-1.35526
2.37527
-0.00601695
-3.29979
-4.58538
-3.52877
0.770002
-2.15229
0.789271
0.588937
0.0259734
-1.60065
-1.58586
-3.29283
-7.00608
1.51838
-5.71717
-0.156254
-3.5613
1.29662
1.18084
-5.26494
1.40366
1.08297
1.72873
1.99011
0.777433
0.205719
2.61717
-3.62126
0.394919
-1.66161
-8.02239
1.70892
-8.21206
2.11384
0.945719
-0.950133
-3.60795
-3.15596
1.45321
-9.61613
-6.78427
0.0177206
-0.239673
0.554671
1.08055
0.575209
-0.0396963
2.19505
-2.21736
-3.81164
0.178401
0.417412
1.29265
-4.0299
2.92006
-0.171239
-0.339027
1.25114
-0.77656
1.29886
0.687781
1.02421
0.757305
0.647698
-0.341137
0.756809
0.208877
-5.21186
-0.0251255
0.651247
1.21618
1.36486
-5.16578
-0.0309566
-1.30633
1.06391
0.418804
-7.42075
1.28265
-6.26346
1.25462
1.35797
-3.19641
1.83494
-9.77558
2.49669
0.862496
-6.69181
0.000452071
-0.199665
1.08813
1.4426
-7.83401
1.3873
1.36564
-1.11253
-0.0444308
0.191583
0.225757
-1.16676
-3.38107
-0.604876
-6.71488
1.29567
-3.51881
-3.33456
-1.70584
1.59038
1.46235
1.20915
-3.56736
0.963036
-0.337456
0.0418957
1.01919
-5.63819
-5.17248
2.15869
-0.14325
-0.158983
-1.4911
-3.35799
-4.47683
1.35889
-3.30119
-0.993687
1.45029
-0.101666
1.25433
-4.51558
0.240754
2.34144
-1.8892
1.44972
0.168667
-4.50175
0.793428
0.213579
0.0247235
2.35632
0.956884
0.18099
2.43305
1.29788
1.6499
-3.50701
-3.51005
-0.841345
-1.05448
-3.7909
-1.29999
-0.838137
-1.35118
0.285673
0.25206
-0.461514
-0.137137
-4.66818
-0.396107
1.53092
-3.18893
0.426189
1.08541
1.30454
-0.338804
-0.0691632
-5.36358
-3.02189
-4.73024
-1.12796
1.53029
-7.60533
1.71551
-4.0758
1.30098
-0.7922
-0.182017
-1.67635
0.967835
0.979654
0.659135
0.467767
0.685622
0.460533
1.50848
1.82828
-4.5216
-2.41404
-2.89941
1.31828
0.429517
-1.55548
-1.34294
0.372902
-0.474523
-0.0276521
0.565291
-0.177309
0.618339
0.979625
0.395245
-0.149204
-9.36942
1.72108
-5.07671
1.04191
0.000419782
1.26201
1.0338
1.03852
0.555229
-2.45217
-6.42853
-0.16039
-3.10253
-8.17064
-9.04735
0.415206
-5.41908
1.25963
0.310602
1.30436
-2.88676
0.430775
-1.47069
-0.166573
1.00938
-3.31228
0.792551
0.22764
-12.1087
-4.04667
-5.24135
0.445909
1.39802
-0.149365
0.216372
-2.60539
0.790977
-0.780835
0.160122
-3.79792
1.39818
0.272116
-0.0458588
1.21641
0.721634
1.17622
0.981554
1.85395
-1.98901
-0.193978
-2.26933
0.196536
1.08992
0.234844
-2.55326
-6.30144
-5.66242
-0.27887
-0.060666
-6.82443
2.44414
-1.74718
1.02514
0.35333
-7.34891
-0.203412
-0.0664482
-0.229986
0.532177
0.205831
1.33615
-0.172715
1.28096
-1.52917
-1.70989
-4.99719
-0.103508
-6.45235
0.98554
2.30805
1.2796
-1.043
-2.34686
1.24563
-3.33392
-1.05854
-0.012766
-0.443146
-5.85853
-6.60004
-7.32967
-1.31005
0.462924
0.296187
-1.08488
0.228184
1.41954
-0.749981
-1.26493
1.44288
-0.192616
-3.62562
-0.0380157
0.0698302
0.00109848
2.4059
-0.0192696
0.376363
-0.77091
-0.421073
-0.713586
0.644756
-0.0761044
0.155621
-0.439133
-1.10697
-0.0484832
-0.87173
1.52196
0.594942
0.614708
-2.09926
-1.04883
2.38313
-5.13884
0.999193
0.98289
0.503035
-0.248014
0.261656
-2.9517
0.28929
1.29929
1.10861
0.79861
-8.43302
1.43804
0.544016
1.92004
-0.682816
1.3244
1.52594
1.27639
0.28688
-3.76165
0.774572
-3.51679
-0.12141
0.941818
1.1847
0.473152
1.72391
0.213121
1.92185
0.356391
1.07109
0.242756
0.375876
-1.81229
1.29236
0.160578
0.942385
2.32974
1.339
0.272042
-0.954
0.301625
1.29364
-0.165717
-2.79656
0.482428
-0.0444921
1.48475
-5.11816
1.79416
0.695751
3.02745
2.08037
-0.447821
-0.802311
-2.18373
0.43618
2.12762
0.0180764
0.306635
-0.366818
2.57997
1.03129
0.413831
2.34888
-0.482311
1.18467
-0.940718
0.971212
-0.452954
0.709761
0.94983
1.33501
-0.198213
-3.21164
0.244539
-4.96835
0.112006
-2.6903
-0.00843679
1.94929
1.66568
-0.0145352
-1.64061
-0.804153
1.14155
0.553909
0.54691
1.0733
-1.51325
-3.14962
-5.37905
1.35527
-1.54173
-1.62723
0.825194
-0.0411501
0.261234
-0.903286
2.40261
-5.74689
1.71687
-1.96375
2.41163
-1.93454
0.197046
-0.217082
-0.105308
0.615812
1.28874
0.314339
-1.26196
0.374773
-2.02041
1.50218
0.0844704
0.362964
-5.76602
-0.644607
-1.99489
0.970513
-0.862397
-0.170112
-0.205965
1.30013
2.49602
-5.03419
-0.0608172
0.5211
-0.586246
0.978427
-0.122988
-0.54624
-0.931141
-3.57074
0.455258
-6.25479
-0.668641
0.0490566
-1.49372
-12.4518
0.463906
1.19517
1.0701
1.25322
2.35809
-4.0338
2.53575
-2.69974
2.33551
-8.40382
-0.630988
2.22191
0.893808
-9.29162
0.327169
-0.205135
0.601322
-5.56804
-3.47893
0.202899
-1.44449
-2.04924
-0.00479666
-0.5146
0.863907
0.978329
-10.0216
0.908638
-1.48059
0.262121
-5.73038
-0.161064
0.791122
-4.85284
-1.13614
2.11778
-0.112302
2.22158
0.256654
-3.30241
0.852363
-0.532861
-0.234554
1.2457
1.31624
2.58865
1.20465
1.37419
-0.78598
-2.20468
2.50113
2.5126
1.45131
-0.355678
-7.92585
-3.48386
0.581594
-0.350121
0.0555234
1.54577
-4.73585
-0.144993
-3.07485
2.29682
0.601295
0.511162
-6.38658
0.349127
1.01087
2.85892
2.66854
0.68652
0.712311
-0.426796
-2.32788
0.983755
2.72955
-0.926576
-0.236726
-0.172122
-0.00136777
0.248349
0.153732
-0.044583
0.202638
0.343508
0.300862
-0.132172
0.785385
1.52991
-2.13827
1.07199
-6.98465
-0.143133
2.08444
-2.68866
0.417941
-2.00444
0.924095
0.792299
-5.0893
-2.41795
-0.161666
0.413683
2.92953
-2.52461
-1.17047
-9.0467
-0.182221
-1.81848
-2.07057
-5.07746
-1.42626
-0.0497508
-1.63874
-0.464189
-1.98636
0.775532
-0.0203915
0.475987
2.82915
0.543838
0.244404
-0.694315
0.611848
-2.12424
-1.19374
1.93462
1.12381
0.24857
-0.397342
0.888316
1.15633
-0.641777
-6.27423
-0.0324843
1.9507
-0.934456
1.28612
0.403378
1.82469
0.220825
-7.71644
0.590501
1.3046
-1.09509
1.30348
-0.480047
2.60447
-5.32876
0.0426724
-3.29243
1.04067
-5.70885
-0.777692
-5.62108
0.14488
-1.53827
-9.31528
-5.46587
-0.33124
0.367951
-4.7838
-0.492092
0.59233
-3.66622
0.416471
-5.99118
1.29883
2.43569
0.275791
-2.12596
0.506406
0.10284
0.388442
-0.383126
-0.196205
-3.38665
0.0199758
-1.9861
-1.57222
0.408159
-0.126131
-3.99117
-1.86449
0.310442
1.31806
-0.388985
-5.31852
-0.00279328
-0.116611
-0.713643
0.0041743
-1.45114
-5.55683
1.54124
-3.32074
-1.06962
-1.44795
-2.14805
-3.40522
-4.16525
2.9794
0.0803371
-1.32456
0.946972
2.38061
2.09108
-8.59667
-0.953445
1.28206
-0.142243
0.0299024
2.40572
0.260672
-0.0531713
2.97417
0.132288
-1.9092
0.574543
1.94636
1.32297
0.510633
1.90629
1.14916
-0.202337
-0.100438
0.936361
0.248099
-2.70698
2.30038
0.208501
-0.0989321
-0.122419
-3.90203
0.00886033
-6.63382
-1.12785
0.279506
0.684163
1.41857
0.760427
-3.34759
2.04512
2.20587
-1.15064
0.342924
-0.307383
0.016657
0.359097
1.07545
-4.85607
-0.746561
0.138349
2.52547
-3.29434
0.935623
1.10105
1.18782
-0.215346
0.493476
-1.00133
-0.126785
-1.01511
-0.214074
-3.40027
-1.35289
-0.060172
-5.20217
1.27994
-9.50196
-0.150498
0.686755
-2.13522
-6.70645
-3.35876
0.738881
-0.909885
0.0358738
0.954977
-8.25219
0.109775
-0.938473
-0.293307
1.23787
-3.30424
2.44008
-0.0960283
2.68748
-0.000719217
0.00281862
0.125012
1.26726
0.372324
-2.04862
-0.404729
0.244994
0.131604
-0.00727082
3.01604
1.19709
-0.460916
-0.873172
-0.27368
0.427834
0.75667
-0.843593
1.08503
-5.64088
-6.00921
-2.10645
-1.85034
-0.17466
-2.16425
1.10302
0.32746
2.09113
2.53077
-2.99699
-3.36271
0.339041
-0.687619
2.18528
-1.80084
0.0792975
0.902908
1.16137
-6.48046
-1.11525
0.224442
-0.200284
0.120594
-5.30758
-1.76578
0.19947
-0.484955
-1.71209
0.123204
-1.79209
-1.52676
0.787789
-9.55858
-7.28509
-1.41906
0.714505
2.60065
-0.487138
1.28888
-2.6757
0.0665275
0.301177
-0.342392
0.75978
-5.2183
-3.56929
2.1646
1.2111
0.381432
-2.04473
2.75282
-6.42657
-3.41018
-5.42645
-0.675063
-5.84582
-6.15721
1.88918
0.323904
0.441931
0.866973
-5.0891
0.821031
0.0498383
0.307693
-1.98639
0.407064
0.812957
0.785662
-5.28442
-3.17757
-1.99056
-1.84761
-0.850287
-0.781344
2.61049
1.12474
-6.79973
-0.781738
0.68596
2.00853
-0.216447
-3.33503
-0.579213
1.60869
0.556181
-1.54171
1.30764
-1.34277
2.13113
-0.161445
1.42021
-3.38234
-1.36894
-0.133437
-6.01354
-0.824695
0.80592
-3.02119
-5.87515
1.06133
-1.44906
0.24844
1.67421
1.20309
1.61736
1.2866
-1.13461
-0.00275563
0.430958
0.609507
-0.000540122
1.07787
-0.302848
2.16405
-5.2065
1.56024
-1.30998
2.41029
-4.98501
-0.419129
2.33452
-5.46231
-0.42401
-3.2579
1.65321
2.29935
1.28876
-1.31426
1.30391
1.31545
-4.25805
0.992589
-8.2155
1.47497
-5.80967
-4.58266
-3.49325
-3.63342
1.28534
-1.1516
-3.66839
0.109969
2.25835
-0.0327143
0.298185
-3.73683
-0.694846
-0.182568
-0.738734
1.2914
0.647779
-3.5481
2.67834
-0.251074
1.96354
1.4273
-0.0787784
-0.0553245
0.296729
-1.28434
-1.05673
0.127814
0.00843992
0.006138
0.62363
-5.1643
2.39458
1.47551
0.0289908
-3.43607
0.622522
-4.18718
1.15243
1.22761
0.202365
-0.0810776
1.22063
0.773338
-0.731623
-2.18894
-0.319773
0.853953
2.13988
-2.54291
2.35447
2.70682
2.44896
-1.68954
1.25741
-3.51272
1.2664
1.24057
1.63865
0.858377
1.60022
2.83705
1.30436
-2.7968
-2.86863
-3.62755
2.8222
0.165463
-1.71256
-5.22271
1.47419
2.07244
0.884447
0.0607797
-0.364878
1.89459
-1.26813
0.658557
-5.47327
0.92564
-0.150614
-2.05297
0.270504
-3.74786
-4.22652
-5.13393
-1.68867
-0.0555052
1.22985
0.214758
0.164673
0.667549
-1.53112
-0.875902
-0.12796
-1.4941
-3.36478
-3.08878
1.52256
1.93549
-6.21089
1.20762
1.50617
1.91421
-0.0123009
-13.1049
0.856865
-2.48468
1.66171
-1.70449
1.60537
1.16704
0.576127
1.57562
0.417324
1.35437
0.0796917
0.939134
-1.06438
-2.1429
-2.3414
-0.12922
1.3211
-9.87443
-7.6802
-8.9176
2.1916
1.25243
0.890719
0.0599299
1.82251
-1.45436
0.632966
0.113981
-0.993798
0.65761
-8.09176
-3.30673
-0.706623
-3.17622
-1.06771
-7.23819
0.0858243
-3.53566
-2.19456
0.368619
2.29157
2.58099
2.0764
-10.4683
0.677151
-3.40208
0.682414
2.00453
0.614853
1.29329
-7.88974
0.130527
-1.15356
0.295637
1.4804
-0.287049
0.877351
-3.33462
0.108623
-3.3982
1.34783
0.883758
1.29893
-3.24544
0.678359
-5.70934
-3.7613
-3.77345
0.0982894
2.20778
-1.86466
-2.37471
-5.75612
0.982161
1.29299
-0.239275
1.07832
-3.20515
1.86763
2.10133
-6.94496
0.154904
1.62195
-8.77852
-4.52689
0.397357
1.5487
1.71656
-3.45422
-0.471707
0.343767
2.25806
-3.42548
-10.0415
0.264836
1.93602
0.377838
-1.12173
-2.09012
1.35018
1.20528
1.43826
0.226777
-1.63166
0.883139
2.76741
-2.18166
0.0110897
0.344011
-3.28572
0.374491
0.165133
-5.03215
-0.562835
-4.98474
1.10411
-4.77174
-2.33245
1.267
1.60934
0.694247
-1.19519
-8.81323
0.758604
-3.26429
-0.991033
-0.839848
0.126522
-3.11029
1.59605
0.814021
0.347137
0.568252
2.06266
-3.81043
-0.167375
1.30696
-3.69944
1.11495
-0.156979
0.0436846
-1.45713
1.23062
-0.000912705
0.155314
-0.762303
-1.4339
1.38369
-1.33212
0.608512
-9.76909
-1.06251
1.26076
-3.23353
2.42329
-3.29355
-3.37359
-4.01144
1.5817
0.827357
1.22705
-3.53311
1.90934
-5.6127
-0.32404
0.144219
-0.678583
1.31808
0.170514
-0.830225
-0.0348166
-3.49762
1.21685
-3.18671
-9.00484
0.00519636
-1.92287
-1.40028
0.185017
2.07045
0.0408529
-3.50718
1.23522
-1.35398
1.6987
-1.47178
0.42167
1.24331
1.33947
0.137389
-3.05712
-1.53622
0.343478
0.74618
0.883095
-1.08288
-6.2484
-0.255614
-0.983449
0.4795
2.882
0.694704
1.23957
1.68091
0.643242
1.40535
-6.83207
-3.18546
-10.149
1.29157
2.77877
0.706304
-0.482284
1.43555
0.136283
0.243572
0.0111451
0.359739
0.27292
2.42742
-2.61336
-2.16753
2.27299
1.46158
0.467242
0.848048
1.23645
0.441598
-5.31082
-9.66233
0.880509
-2.39913
-2.11601
1.10808
-10.5534
-3.5864
-1.6918
0.602508
0.665746
0.843609
0.387129
1.26313
1.30206
0.264424
0.917415
0.714767
1.66712
1.39504
-0.686778
0.0944868
-0.250854
1.49373
0.845628
0.634284
0.177765
0.364614
-0.168613
2.06118
1.019
-0.00116797
-4.21778
0.53026
1.06337
-0.282706
0.839878
-0.152839
0.143315
-8.4372
0.205702
-4.76788
0.124621
-0.508356
-2.76711
-3.35742
-3.22231
1.75497
-4.99654
-3.03058
-5.65438
2.14255
-4.80738
0.30476
0.698485
-3.72629
1.41221
1.2905
-0.480715
1.53656
0.536164
0.395682
-3.4782
-4.47028
-0.0129304
1.64065
0.738817
-3.39414
-3.35232
-5.90176
-3.27701
-5.76526
-1.26686
-0.680215
0.840367
1.28967
1.12887
-4.8435
0.0763144
1.58155
1.1649
-3.47341
0.414919
-3.62749
-0.131463
0.16443
0.291743
1.24129
-1.05391
-5.48354
-6.99212
0.769921
-7.46768
-3.19408
0.050811
-12.7481
-2.95307
-3.70734
-5.28631
0.044692
-3.57454
0.142123
-3.37133
1.32998
1.27126
-0.150993
1.61765
-7.27959
2.03047
-2.1856
0.450413
-0.618019
0.866183
0.326783
-2.1746
-3.44848
1.36141
1.66227
2.17886
-3.99259
-2.72505
-9.01361
-0.613427
0.000971072
-3.27382
-1.40436
-3.3674
0.320505
-3.41515
-0.409891
-1.97001
-0.319647
1.88323
0.495263
-0.162971
-0.109156
-1.08493
-2.66856
1.91506
2.5555
-2.8378
0.93407
0.846024
-0.0022416
-5.39047
1.56076
1.63955
-1.16812
-4.08409
-10.0945
-8.37665
-0.520687
-3.29418
-0.354099
1.23678
0.14919
1.48807
-3.26155
-3.65914
1.31987
-0.4129
-3.57042
0.494954
1.37486
-3.69906
-0.123033
-3.59159
-3.29821
-3.43732
2.22759
-3.38495
0.191953
-3.6217
1.13385
-3.58431
-1.1934
-1.32808
-3.96089
-1.04324
0.952479
-0.0164479
-3.30798
0.646419
0.0115883
-7.59257
-0.933328
-3.17905
-0.258642
0.191042
1.25223
-3.01218
1.62184
-6.77878
-0.000397313
-0.0746355
-1.4514
-9.27942
-3.22699
-5.69637
0.322459
0.89498
0.0266453
0.19486
-1.36976
0.453648
-5.14148
1.39023
-2.36852
1.08279
-1.12768
-3.12637
0.511775
2.99217
-5.07615
-3.77236
-2.19836
-1.94098
1.29921
-0.052007
0.582467
-1.07961
-2.93629
-3.98934
-2.2273
-3.33179
0.569612
-3.2196
0.536004
-3.40951
0.29571
0.659058
-0.100259
-0.865227
-0.239357
1.18835
-3.22666
-7.73118
1.39368
0.00637907
-3.44127
0.166837
-1.71131
-1.43061
0.0406391
1.2599
-8.6485
0.951158
-2.55598
-1.77569
-3.16141
-2.87388
-3.37406
-0.884129
-3.4853
1.18289
0.919348
-4.79121
0.658385
-8.93522
1.62565
1.5897
-3.7676
0.602578
1.10299
1.31631
-0.264874
-7.10458
-3.13567
-2.4768
1.28661
0.745278
-2.16817
-1.45207
-0.513063
1.64678
0.241998
0.497238
0.479203
1.39847
-0.941842
-1.03691
-0.151019
1.24755
0.671492
0.362484
1.6489
1.5252
-0.00117123
-9.80858
1.19802
0.993601
0.349744
0.0755967
-2.62163
-4.71014
-2.0042
-8.725
1.62104
0.545321
-0.462218
-0.897015
0.376801
-1.89509
0.76249
-10.6333
-0.4498
1.22363
1.42438
-7.77844
1.09886
0.171893
0.617814
0.801837
0.327289
0.865741
-0.00422332
1.32962
1.16588
1.27159
-3.86555
1.45315
1.20143
1.26891
1.19724
-8.37559
-0.104232
-0.201969
-1.41273
1.26598
2.08395
-13.2482
2.09042
-7.63696
-2.28216
0.855089
1.13418
-1.43533
0.259961
-2.79075
-11.4159
-0.308485
-7.02549
-1.49986
0.15591
0.57211
2.62308
1.02492
-5.71383
-5.71134
0.668389
0.994587
-4.78072
-5.21802
-9.29982
-0.980026
-2.30854
-2.13757
1.29206
0.300998
0.999285
-0.0915812
-0.0735019
0.0447543
-0.0384655
0.307661
-0.602034
1.3828
-2.03196
-1.41605
-0.758327
-5.87848
0.326508
1.02221
-0.338749
-1.23928
1.22625
-0.193285
0.918999
-1.34227
1.1876
0.575685
1.89212
1.2541
-7.87875
0.116904
-0.945112
-8.87303
-0.148337
-0.157505
-0.999226
-13.2728
2.68568
-0.000782755
-0.615442
1.60672
-5.45303
-0.205415
-5.30354
-4.01539
-3.33276
-1.6775
-0.780772
0.368979
-1.68289
-8.24003
0.587873
-9.38545
-0.854996
-3.95139
0.0647325
1.22868
-5.31616
-6.68315
-0.868456
0.178629
-1.66295
1.20226
1.68125
-9.19871
1.23335
-0.164256
1.15914
2.13895
-4.91083
1.10527
0.292089
0.935569
1.46914
0.249514
-0.609638
-3.53592
1.10448
1.67746
-10.0047
0.0654372
-2.79098
-1.90091
1.00767
-8.41332
-1.33079
-10.4212
0.920899
-2.35444
0.215145
0.1518
1.29187
0.197794
-2.71193
0.157968
-0.146028
-1.85995
1.92344
2.38938
1.27521
2.76942
1.42192
1.54543
0.66869
0.268138
1.58277
-4.3877
0.847467
0.105584
-2.27871
1.75579
-0.784275
-1.30896
2.34748
0.435722
-6.31884
1.00865
0.930309
1.51872
-1.58295
1.32548
2.32016
-5.16151
-2.30056
-1.19192
0.409321
-3.3462
1.13082
0.224423
1.59367
1.27334
-6.39308
1.10012
-0.576658
-3.27689
-3.00605
-10.3382
0.92304
-2.10701
1.35733
-0.223689
-3.27728
0.0284838
-0.466607
-0.432156
-10.3702
-3.30606
1.07721
0.639886
-3.47853
-0.0119858