/*--------------------------------*- C++ -*----------------------------------*\
| =========                 |                                                 |
| \\      /  F ield         | OpenFOAM: The Open Source CFD Toolbox           |
|  \\    /   O peration     | Version:  2306                                  |
|   \\  /    A nd           | Website:  www.openfoam.com                      |
|    \\/     M anipulation  |                                                 |
\*---------------------------------------------------------------------------*/
FoamFile
{
    version     2.0;
    format      ascii;
    arch        "LSB;label=32;scalar=64";
    class       volVectorField;
    location    "8.9";
    object      U;
}
// * * * * * * * * * * * * * * * * * * * * * * * * * * * * * * * * * * * * * //

dimensions      [0 1 -1 0 0 0 0];

internalField   nonuniform List<vector> 
13486
(
(1.49896 -0.259385 4.35421e-19)
(1.68725 0.228127 2.45655e-19)
(2.70511 0.0278349 0)
(-1.96342 0.882439 -1.64204e-18)
(2.49776 -0.308108 -2.13566e-19)
(2.44505 0.176144 -1.83007e-20)
(2.47625 0.160737 -2.30978e-20)
(2.14223 -0.712102 1.6653e-20)
(2.02218 -0.359248 0)
(1.94246 0.68619 0)
(-0.546218 2.18532 -5.89967e-19)
(2.44316 -0.0725468 0)
(1.35032 -0.457148 -4.2327e-19)
(2.3566 0.743225 -3.5253e-20)
(2.38368 -0.0302889 -7.77646e-20)
(1.90587 0.674743 -2.02383e-19)
(1.3042 -0.476679 5.29446e-19)
(0.125207 -0.689491 3.00993e-19)
(2.12458 -0.0114107 1.37789e-21)
(1.66563 -0.0843986 -4.49706e-19)
(-2.82609 0.853556 -8.09429e-19)
(1.37099 -0.4745 5.46377e-19)
(1.7056 0.221214 -1.96322e-19)
(4.35915 -0.102981 0)
(2.00389 0.55456 7.01152e-20)
(4.30798 -0.188555 -3.93647e-19)
(0.253178 -0.145605 6.068e-19)
(3.15718 -0.197013 4.9748e-19)
(2.0071 0.17208 0)
(3.08381 -0.442674 -4.87257e-19)
(-2.62236 0.499255 -5.79832e-19)
(2.22358 -0.0650109 -2.78558e-20)
(3.31482 0.197769 3.33151e-19)
(2.40106 -0.197825 0)
(2.14793 -0.678343 0)
(1.65322 0.0155023 2.87329e-21)
(1.55845 -0.040202 -6.98163e-20)
(1.5573 -0.726341 1.41559e-19)
(1.86232 -0.215925 -1.30311e-20)
(2.0266 -0.219368 1.45225e-19)
(2.99645 -0.644092 0)
(0.929133 -0.46082 -5.07247e-19)
(1.97454 -0.00563589 0)
(2.02492 0.462077 -3.26624e-19)
(2.03947 0.462316 1.34693e-19)
(2.44457 -0.0740845 5.17499e-20)
(-1.14887 -0.867459 1.06883e-18)
(1.97429 0.165403 2.98902e-22)
(1.55863 -0.0196939 5.2622e-20)
(2.8327 0.0497502 1.31529e-19)
(1.99959 0.0154406 2.97518e-19)
(1.92911 -0.0546658 0)
(2.40325 -0.19865 -1.1283e-19)
(1.71616 -0.624248 -2.21628e-19)
(0.0606981 -1.04504 0)
(2.45326 -0.325041 1.0359e-19)
(2.88911 0.322746 1.21103e-19)
(1.93972 -0.110905 -6.50342e-20)
(3.31046 0.232376 4.21764e-19)
(1.50581 -0.25448 0)
(-0.780499 2.63045 -7.75125e-19)
(1.48869 -0.242785 0)
(3.43296 0.593866 -2.3796e-19)
(-2.81916 0.858182 -9.19903e-21)
(1.95841 -1.81392 0)
(1.52592 -0.0596724 -3.77025e-20)
(-2.19833 1.04467 -1.54794e-18)
(1.47041 -0.00321667 1.6313e-19)
(2.02322 -0.380174 -6.31164e-20)
(1.52839 0.0118885 1.78025e-20)
(-1.97441 0.993627 1.77131e-18)
(0.083193 -0.942956 1.07489e-20)
(2.03273 -0.110489 1.26198e-19)
(-0.633357 0.300459 -3.44049e-19)
(1.41572 -0.0849191 -9.88073e-21)
(2.88261 0.303983 -2.44612e-20)
(1.38947 -0.0429308 3.38626e-20)
(2.39781 -0.0215354 3.58862e-20)
(-0.875344 -0.587955 -5.72439e-19)
(1.92954 -0.798818 0)
(1.92776 0.0332139 2.67098e-22)
(1.62819 0.315445 -1.59713e-20)
(3.13573 0.463964 -4.42497e-20)
(2.76819 0.0105606 -1.47522e-21)
(1.49203 -0.269797 -8.5079e-19)
(1.30229 1.44293 0)
(1.5737 -0.384866 1.57335e-20)
(2.00137 0.0270865 -4.61862e-19)
(1.88178 0.168581 -1.98145e-19)
(1.7794 0.913203 -2.49938e-19)
(2.19811 -0.175904 -6.47143e-20)
(2.27934 -0.547554 4.01943e-20)
(1.56228 -0.355136 1.04735e-19)
(1.68928 0.0400031 1.24667e-20)
(1.94749 -0.57414 2.37567e-20)
(1.95469 0.138235 -1.24216e-22)
(0.30156 -0.211251 0)
(-2.61778 1.36714 8.85282e-19)
(2.0393 -0.214035 -2.77903e-19)
(1.36914 -0.448928 8.3011e-21)
(1.81131 0.0244258 0)
(2.33043 0.737635 -1.63248e-20)
(-2.70755 1.35378 4.37662e-20)
(1.92934 -0.0931133 7.62108e-20)
(1.26282 1.38215 0)
(1.19124 -0.435285 7.87219e-21)
(1.99238 0.0442832 -6.145e-22)
(1.87481 -0.246767 -2.79423e-20)
(-0.876386 -0.566725 7.38006e-19)
(2.01383 -0.878345 0)
(1.3929 -0.661921 0)
(2.15677 0.0785117 1.53865e-20)
(1.72697 -0.605105 4.21896e-21)
(2.62489 0.436039 -2.94715e-21)
(1.1311 -0.117787 0)
(1.32422 -0.649199 -5.5092e-20)
(1.99732 0.57081 0)
(2.53846 -0.170865 0)
(2.02406 -0.110501 0)
(1.60615 0.0456788 -3.08789e-20)
(0.312156 -0.692578 -1.35042e-19)
(-0.926194 2.57481 0)
(1.91346 -0.518405 0)
(1.87362 -0.217843 4.23733e-20)
(2.01086 -0.669649 0)
(1.92431 -0.0507534 0)
(2.24364 -0.18162 1.23425e-21)
(2.18243 0.0687961 1.47381e-19)
(1.95991 -0.10358 -6.4932e-20)
(2.51448 -2.2171 -9.64431e-19)
(1.89153 -0.0365639 -8.1504e-21)
(-1.30751 -0.975766 -2.722e-19)
(0.457344 0.562698 6.82699e-19)
(-0.240155 0.187137 4.39876e-19)
(1.99991 0.00678941 -4.76295e-20)
(1.88783 0.36505 -2.54238e-19)
(0.712221 0.593483 -1.59358e-19)
(2.02566 -0.857164 0)
(1.61578 0.0552403 8.69051e-21)
(2.14638 -0.536727 -1.09022e-20)
(3.1151 0.200602 -3.38997e-19)
(2.38483 -0.204548 9.69684e-20)
(2.29223 -0.114426 0)
(1.96904 -0.755999 0)
(2.09339 0.0034207 -4.95664e-21)
(2.8394 0.721971 -2.78004e-19)
(2.0778 -0.171698 -2.02883e-21)
(0.368006 1.39545 0)
(2.84579 0.0888457 0)
(2.01615 0.16216 0)
(2.00871 0.0120665 5.4567e-21)
(2.49737 -0.0818454 0)
(1.91267 0.0229168 -2.80352e-22)
(1.60294 0.312909 -1.37882e-19)
(2.16414 0.302922 0)
(2.90897 0.0369968 0)
(1.89257 -0.820063 0)
(0.780553 1.37283 6.66185e-19)
(1.83766 -0.718971 2.26694e-19)
(1.81546 -0.282497 -4.22678e-20)
(2.72318 0.0400395 5.40391e-20)
(1.84625 -0.693442 -3.38198e-19)
(2.04786 -0.251458 1.04934e-19)
(0.830999 -0.395244 2.19892e-19)
(1.95529 -0.0709426 0)
(2.45827 0.747091 6.12833e-21)
(2.2911 0.669445 1.32951e-19)
(0.535031 -0.190531 -6.3672e-19)
(2.07264 -0.13928 4.44543e-21)
(-0.252023 0.210324 1.18642e-19)
(0.404399 0.521868 1.88142e-20)
(2.15883 0.276234 1.1936e-19)
(1.9974 0.062299 -4.09069e-19)
(2.29727 -0.0947191 9.05055e-22)
(1.91352 0.073793 -6.91856e-22)
(-2.19633 1.95453 0)
(2.3084 1.0311 -5.52e-20)
(3.1588 0.307694 4.30638e-19)
(2.00057 0.0437204 -4.34195e-19)
(2.30778 -0.115782 0)
(2.0845 -0.256194 2.33003e-19)
(2.58541 0.399644 -4.52421e-21)
(2.3043 -0.0833796 1.71593e-21)
(0.230869 -0.0449938 0)
(2.62231 -0.0640407 1.16265e-20)
(2.87964 -0.17495 -2.21713e-19)
(2.11512 0.158408 -1.28392e-22)
(2.95221 -0.360319 -1.28347e-19)
(2.95774 -0.609773 0)
(1.19268 -0.571605 -9.60028e-20)
(1.56266 0.0223295 0)
(2.58081 0.0561442 0)
(1.99028 -0.167736 0)
(1.29795 0.717734 -3.09395e-19)
(2.04863 -0.209358 0)
(-0.594424 1.94732 -1.63428e-19)
(2.03628 -2.15753 2.12526e-18)
(2.65926 0.0129149 3.43801e-20)
(1.16356 -0.573063 -7.42346e-20)
(2.44201 0.709775 2.08496e-20)
(-2.53398 0.414015 6.15603e-19)
(2.19265 0.0890907 -4.55519e-21)
(1.43828 -0.690191 -1.63664e-19)
(2.08696 -0.838383 -1.70457e-19)
(1.83008 -0.277793 5.20418e-20)
(2.07991 -0.195405 -6.07275e-20)
(-0.494535 -0.662355 5.33999e-20)
(1.95091 -0.0589038 3.02785e-19)
(1.97225 -0.172651 0)
(2.6438 -0.0516971 0)
(3.20733 -0.250901 3.93094e-19)
(4.47551 -0.888005 1.08083e-18)
(1.68305 -0.0719279 4.1143e-19)
(1.98495 0.043452 -4.79752e-22)
(2.44079 0.213764 2.108e-20)
(2.48283 -1.1009 7.38491e-20)
(3.09448 -0.362191 0)
(1.78117 0.897383 5.9257e-19)
(1.65358 -0.371129 0)
(3.00288 0.851109 0)
(1.25686 -0.516758 -1.00118e-18)
(2.87807 0.130701 0)
(2.12124 -0.533077 1.75061e-20)
(2.6736 0.0511023 0)
(2.44798 -0.257923 -2.26176e-20)
(1.32074 -0.622545 1.38531e-19)
(2.54613 0.385832 -1.49684e-22)
(-2.39368 0.355641 4.75682e-19)
(2.3285 -0.716259 1.2857e-20)
(1.62602 -0.385439 -2.81345e-21)
(2.09038 -0.246504 -7.62659e-20)
(2.81162 0.359215 1.26883e-18)
(3.15284 0.215298 4.23638e-19)
(0.953584 -0.464521 1.76795e-19)
(-2.83187 1.12539 0)
(1.1302 -0.549561 1.5199e-20)
(2.81325 -0.335371 2.2659e-19)
(2.60092 0.0450228 5.87382e-21)
(0.995364 -0.480001 4.20777e-19)
(2.32226 -0.0592066 0)
(3.40415 0.249648 0)
(2.00156 0.043903 6.2553e-19)
(2.61393 0.212887 0)
(1.00168 -0.496055 1.27808e-19)
(1.81215 -0.26098 -2.21688e-20)
(1.8422 0.0455599 0)
(2.18639 -0.00321755 -1.60734e-20)
(3.63125 -0.440736 1.06814e-18)
(-0.353235 0.0970525 7.07492e-19)
(1.99537 0.436547 0)
(-2.33664 1.83664 -3.4587e-19)
(1.09752 -0.0904983 7.20951e-20)
(1.14172 -0.557152 5.37732e-20)
(1.88765 -0.250332 0)
(2.14948 -0.671054 4.74781e-20)
(-1.94876 2.24646 2.94149e-19)
(2.21572 -0.0758129 4.48937e-20)
(2.4351 -1.15218 -9.35644e-20)
(1.40551 1.32746 -6.81252e-19)
(3.42417 0.202754 3.32294e-19)
(1.79718 0.180766 0)
(1.80132 -0.25609 -1.36759e-21)
(2.3556 -0.0268761 1.70442e-19)
(-2.0851 2.10847 -3.618e-19)
(2.47176 -0.644895 2.24771e-19)
(0.209073 -0.00769732 0)
(2.35768 -0.684548 -1.31448e-19)
(-2.78085 0.647666 -8.86767e-19)
(2.18082 -0.00216956 -1.51925e-19)
(0.962641 -0.59261 0)
(1.52154 0.80001 2.33782e-19)
(1.98745 0.0457228 -1.22412e-19)
(3.12328 -0.384797 0)
(2.45308 -0.137503 5.13977e-20)
(1.24849 -0.601344 1.81424e-19)
(3.52291 -0.526974 -5.98691e-19)
(2.15902 -0.607941 0)
(0.581126 -2.17618 0)
(1.90741 -0.284001 -3.10844e-20)
(2.178 -0.20045 6.41679e-21)
(0.546403 -2.32696 5.74395e-19)
(2.17389 -0.150083 -8.09941e-20)
(1.96296 0.0578536 2.61977e-19)
(2.96894 0.83085 -5.3044e-19)
(-1.03884 2.43938 9.23438e-19)
(1.15966 -0.117217 1.04439e-18)
(3.05707 0.288991 3.15366e-19)
(1.91603 -0.134418 8.51344e-20)
(2.54158 -0.257044 3.44556e-20)
(2.14344 0.00776315 0)
(-2.86681 1.11262 0)
(1.70789 -0.252857 2.56648e-20)
(1.35657 -0.647983 7.42103e-20)
(1.99892 0.0123589 -4.66134e-20)
(2.88981 -0.32959 2.11441e-19)
(2.89014 -0.356617 0)
(2.17289 -0.0232478 -7.53041e-20)
(2.48486 -0.116818 -4.0535e-20)
(1.95849 0.0458509 -2.37049e-19)
(2.82376 -0.008035 -4.17432e-19)
(1.86998 -0.271863 -1.2425e-19)
(-0.417894 -0.66096 2.6654e-20)
(2.25465 -0.170649 -5.51715e-21)
(2.23912 -0.0589268 3.22205e-20)
(1.62094 0.00747416 1.09803e-20)
(1.75422 -0.775829 0)
(2.16539 0.347311 0)
(2.17087 -0.0166128 3.22637e-20)
(1.63176 -0.414356 -1.04222e-20)
(1.5578 0.00338795 0)
(1.71926 1.21154 -8.19881e-19)
(-1.77674 0.800886 0)
(2.22138 0.998008 5.92468e-20)
(2.14396 0.0584984 -2.14347e-20)
(0.539554 2.28131 0)
(1.87673 0.358108 -1.59905e-19)
(1.71235 -0.257898 -3.79343e-20)
(1.87433 0.159977 -1.70302e-20)
(1.94108 -0.0531275 -3.41394e-19)
(2.46234 -0.685308 0)
(1.51332 -0.035873 6.90105e-20)
(1.71696 -0.221953 4.37463e-22)
(2.00628 0.0422963 5.51797e-20)
(1.67423 0.0834958 -2.38064e-19)
(0.802142 0.569285 2.8932e-19)
(2.20264 -0.149794 1.41229e-19)
(2.30969 -0.228461 9.0928e-20)
(2.18868 -0.151049 0)
(2.56508 -0.111633 5.05495e-22)
(2.34273 -0.211362 5.15227e-20)
(2.00082 0.015822 6.68774e-19)
(2.31748 -0.538651 0)
(2.15033 -0.211699 -4.57744e-20)
(1.47182 0.302718 0)
(2.53407 0.182039 6.24315e-19)
(2.01697 -0.517453 -4.80734e-20)
(0.76043 -0.361454 2.26818e-19)
(2.49763 -0.113956 2.13537e-19)
(2.01056 0.159174 0)
(1.79058 -0.256685 -3.37076e-20)
(2.40612 -0.692255 1.44241e-19)
(1.68073 0.0896886 2.24804e-19)
(2.36539 -0.205093 -1.38063e-19)
(2.30308 -0.081847 3.48368e-20)
(-1.22803 1.57307 -6.48304e-19)
(1.97503 0.153373 8.3136e-23)
(2.26063 -0.115725 0)
(1.09369 -0.401555 5.32232e-19)
(3.01601 0.831968 0)
(1.72289 -0.241832 -7.4934e-22)
(2.29129 -0.0630007 1.19878e-19)
(2.5292 -0.12724 -4.12005e-20)
(2.46469 -0.13242 4.15001e-20)
(0.319834 -0.246691 -6.96747e-19)
(1.96603 0.0465585 2.94758e-19)
(1.82106 0.0287604 0)
(-0.468249 0.434776 -3.25869e-19)
(2.24458 -0.176599 -2.45132e-20)
(1.66253 -0.394679 3.05219e-21)
(4.08549 -1.12886 8.05949e-19)
(2.33486 -0.0151845 0)
(2.25513 -0.2181 1.11781e-19)
(1.82234 0.116579 4.85055e-19)
(1.98387 0.0515558 3.73577e-19)
(3.11309 -0.46312 0)
(1.90961 0.0158645 -1.50664e-22)
(2.9427 -0.349466 -2.12827e-19)
(-1.43562 -1.1578 1.53544e-19)
(1.64738 -0.0891366 5.72713e-20)
(2.2495 -0.156822 2.33059e-20)
(2.02652 0.00628127 7.9204e-22)
(2.25641 -0.123267 0)
(2.46409 -0.267605 -7.95843e-20)
(-2.22646 1.95577 3.11837e-19)
(2.3945 0.417468 -5.31627e-20)
(1.99835 0.0156254 2.49049e-19)
(1.39321 0.0279655 0)
(1.74567 -0.234999 -4.11548e-20)
(0.665577 2.25969 0)
(3.07194 1.28555 -1.86819e-19)
(2.19272 -0.0206093 0)
(2.32764 -0.656851 -9.60173e-21)
(1.39201 -0.164098 -1.27887e-19)
(1.51079 0.738216 5.44517e-19)
(-1.41465 -1.00806 -6.25725e-19)
(2.20607 -0.606665 0)
(2.35952 0.0614929 -1.21061e-19)
(2.01583 0.1665 -1.72778e-19)
(0.675196 -0.521248 -2.38263e-19)
(-2.57702 0.834263 8.95124e-20)
(1.70878 -0.0830908 -6.13075e-19)
(3.13986 -0.316153 2.12044e-19)
(2.07795 0.174144 1.32701e-19)
(1.54069 -0.486638 0)
(1.40806 0.236516 2.77741e-19)
(1.61842 0.0995043 -2.56873e-20)
(-2.01952 0.928841 9.53787e-19)
(-2.2428 1.85053 -1.08243e-18)
(0.922657 -0.613915 -5.32796e-19)
(3.09534 0.260684 0)
(0.682209 -0.587124 0)
(1.92383 1.07977 0)
(2.16384 -0.0694059 0)
(2.09828 -0.00566128 -6.78551e-19)
(2.43551 0.192582 0)
(1.43779 -0.326346 0)
(1.7116 0.0586584 9.04684e-20)
(3.17142 0.327951 -4.46981e-19)
(2.23686 -0.120348 -8.58297e-20)
(1.72324 0.265632 8.47036e-19)
(2.00478 0.0138718 -8.79374e-20)
(2.15668 1.57349 0)
(3.13687 -0.206025 0)
(1.95019 0.0478502 2.53819e-19)
(2.03004 0.0477751 4.56184e-20)
(1.31681 0.761901 0)
(0.117814 0.00397768 7.06645e-19)
(2.45579 -0.672434 -2.53179e-19)
(-0.0473018 0.269755 0)
(2.32253 -0.0607883 5.81841e-20)
(1.99546 0.0408477 -2.92877e-19)
(1.05506 0.346033 -1.44973e-19)
(1.08687 -0.389466 0)
(2.00207 0.171386 3.14715e-19)
(2.61593 0.243419 0)
(2.96073 -0.35934 0)
(2.19753 0.191597 -2.14446e-20)
(1.95601 0.0615629 1.39701e-19)
(0.300166 -0.151435 -7.85862e-19)
(2.25483 0.656555 5.14331e-20)
(1.41789 -0.382932 -2.08192e-19)
(2.17294 -0.0606347 1.94168e-20)
(2.08104 0.170305 1.05451e-19)
(2.59038 -0.268412 1.96076e-19)
(2.58716 -0.603754 0)
(3.58764 -0.286525 4.7357e-19)
(1.39718 -0.105596 0)
(1.71958 -0.244901 2.30428e-20)
(2.28634 -0.104975 0)
(1.49411 0.0113388 3.45519e-19)
(-0.852068 -0.858916 -8.71319e-19)
(3.10183 -0.305174 0)
(-0.18952 0.125131 1.98028e-20)
(3.16158 -0.227212 -4.31322e-19)
(1.68414 -0.273181 1.32239e-21)
(1.85524 -0.270895 4.61299e-19)
(1.40883 0.71547 -3.46032e-19)
(1.40668 -0.374168 -6.08626e-19)
(3.20241 1.26909 0)
(1.59873 0.0288178 2.86028e-20)
(-1.29634 1.79182 -1.60775e-18)
(2.00588 0.177719 0)
(1.85965 0.179717 1.85423e-20)
(2.98052 0.0123939 -2.82594e-20)
(2.5651 1.12198 0)
(2.00402 0.0131799 0)
(-1.17232 0.828446 0)
(-2.04799 1.83181 1.4996e-18)
(2.71594 1.0044 6.33753e-19)
(2.86084 0.796549 -1.79775e-20)
(2.19422 0.95552 0)
(1.78265 -0.187943 3.58152e-19)
(1.9007 0.0730505 1.40671e-21)
(2.25596 0.605808 -1.16758e-19)
(-2.54196 0.858242 1.51357e-18)
(1.92223 0.126226 0)
(1.9878 0.165875 0)
(0.82826 -0.178805 -3.89705e-19)
(1.51147 -0.47885 -1.36711e-19)
(2.02569 -0.16534 0)
(1.48067 -0.702114 5.22799e-20)
(1.82854 0.0248376 -7.04471e-22)
(1.9607 0.124952 2.60944e-22)
(0.848526 -0.401363 0)
(2.00101 -0.069834 8.86492e-20)
(1.62691 0.0668575 2.36037e-20)
(2.61504 0.219679 2.79592e-20)
(2.00432 -0.543287 0)
(1.30316 -0.13959 -1.58288e-18)
(2.49619 -0.128207 4.42055e-20)
(1.9996 0.065853 6.3417e-20)
(1.76947 0.0317056 9.57398e-21)
(2.52468 0.743509 0)
(1.70091 0.263348 -2.25374e-19)
(3.01329 0.623838 -1.372e-19)
(1.11069 -0.605146 1.1649e-19)
(2.0059 0.0344012 0)
(-2.56248 0.76377 -9.25927e-20)
(0.580936 -0.160865 0)
(2.00337 0.0335852 -2.50915e-19)
(1.99335 0.0440082 9.94679e-20)
(1.91849 0.0231789 -4.92736e-20)
(-2.07412 1.98372 0)
(2.27277 0.0175691 -1.11341e-20)
(1.14505 0.359241 7.81512e-19)
(2.53595 -0.60379 0)
(1.68574 0.0474133 2.80379e-19)
(2.78642 -0.0868872 4.7571e-19)
(2.19853 -0.0183334 0)
(-2.70697 0.537464 4.41083e-19)
(1.95488 -0.711751 -7.01886e-20)
(2.04485 -0.000341666 0)
(1.06778 -0.300641 1.05534e-18)
(1.84962 0.170264 0)
(1.82327 -0.814735 4.79619e-20)
(-2.39199 1.87812 6.78933e-19)
(2.10839 0.177701 1.38826e-22)
(2.46786 0.175441 2.05058e-20)
(1.40471 0.218522 1.45238e-19)
(1.84656 -0.294858 -1.68097e-19)
(2.20941 -0.546097 -5.24608e-20)
(1.85938 -0.817563 4.27727e-21)
(2.23012 -0.163097 3.09113e-20)
(2.5095 0.748436 3.02635e-22)
(2.13104 -0.898411 0)
(1.99818 0.0121522 -2.20905e-19)
(0.12864 0.345008 -3.63487e-19)
(1.42513 -0.117324 0)
(1.53057 0.186937 -1.04599e-20)
(1.48624 0.00954521 0)
(1.29815 -0.401074 5.34586e-19)
(2.3043 -0.757922 0)
(1.68324 0.0042497 -7.53744e-21)
(2.30637 -0.068439 -6.91346e-20)
(-2.59177 0.392948 8.18521e-19)
(-1.56517 1.036 1.05541e-18)
(2.24322 -0.00769174 -6.69601e-22)
(1.58422 -0.735799 -1.94872e-19)
(1.89444 -0.513796 1.20233e-19)
(1.55966 -0.357366 0)
(0.387972 -0.204473 -4.08056e-19)
(2.59675 -0.492426 4.88481e-20)
(0.420465 -0.213593 -4.756e-19)
(1.96057 0.142559 -3.99806e-23)
(1.53104 -0.599999 0)
(2.21671 -0.024422 -1.65305e-21)
(0.109156 0.0358524 0)
(-2.69166 1.44048 4.45505e-20)
(0.926572 0.398802 1.72036e-19)
(1.60897 1.24352 0)
(2.20347 -0.472472 3.8294e-22)
(1.84483 -1.91663 0)
(2.58309 1.04659 0)
(1.59476 -0.743568 -6.46259e-20)
(1.50059 0.277597 2.25066e-19)
(1.66186 -0.939035 0)
(1.82665 0.140015 -1.35885e-19)
(2.63754 0.656177 2.49243e-19)
(-2.10737 2.02268 1.35785e-18)
(2.53072 1.3574 0)
(2.17423 -0.0481954 0)
(-1.10844 1.69337 -6.90612e-19)
(1.94522 -0.113329 0)
(2.67963 -0.0056959 0)
(-0.935729 2.70239 -8.66868e-21)
(2.16487 -0.321898 -7.85081e-20)
(1.84028 -0.424457 1.21824e-19)
(3.52697 0.180661 4.95989e-20)
(0.384012 -0.192108 8.68116e-19)
(1.99411 0.0371871 1.12544e-19)
(1.59605 -0.385937 0)
(2.13466 0.453116 -5.80679e-20)
(1.48318 -0.24215 0)
(2.39829 0.0271337 0)
(1.99716 0.0862399 0)
(2.1869 0.171619 -1.75333e-20)
(1.92569 -0.0522174 1.60254e-19)
(2.55896 0.161829 6.69602e-21)
(1.64484 -0.385123 0)
(0.259815 -0.181992 -5.69368e-19)
(1.95943 1.02322 1.1488e-19)
(2.00979 -0.682409 4.00335e-21)
(2.14861 -0.167909 -1.42313e-19)
(3.49482 -0.54821 9.85736e-19)
(2.0537 0.0656821 -1.66478e-19)
(-0.851867 -0.827259 0)
(2.47597 -0.122663 0)
(1.43117 0.733933 0)
(1.28531 -0.582983 -3.62167e-19)
(-1.12779 -1.15249 -1.14388e-18)
(1.91553 1.12662 0)
(2.15811 0.467301 0)
(2.42352 -0.267544 9.67112e-20)
(1.95956 -0.0251566 -3.10325e-20)
(1.86959 0.569204 2.84205e-19)
(2.13637 -0.835432 0)
(0.333508 -0.146635 -2.19442e-19)
(2.39718 0.0716661 6.01089e-20)
(1.47701 -0.44416 -3.35403e-19)
(2.2326 0.0629828 -1.0613e-19)
(2.24761 0.61205 1.66323e-19)
(3.61473 0.10811 1.14853e-18)
(1.28074 -0.589442 6.35644e-19)
(2.71415 -1.90309 5.89151e-19)
(2.62881 0.350878 -5.48481e-21)
(2.00082 0.00806001 -5.37083e-20)
(1.36238 -0.61959 2.60923e-20)
(1.97502 -0.661211 2.92252e-20)
(1.51165 1.82944 -7.43099e-20)
(1.48386 -0.695006 -1.47089e-20)
(2.57145 -0.0960813 0)
(1.54963 -0.334171 -5.06771e-21)
(2.20325 -0.0465322 -2.67823e-19)
(2.79691 0.832586 6.32928e-20)
(1.44586 -0.41116 -3.13927e-19)
(1.98665 -0.654862 -6.98869e-20)
(1.93938 -0.0106056 2.34077e-19)
(2.38001 -0.050588 -1.33633e-19)
(1.31426 -0.279746 -7.93398e-20)
(3.03425 0.293369 -1.69986e-19)
(1.21951 -0.209919 -7.76569e-19)
(2.12965 -0.0312197 -2.18186e-19)
(1.20605 -0.274266 0)
(-2.62439 0.535053 -1.95721e-18)
(1.91326 0.0372059 3.49888e-19)
(1.48529 0.000633492 -9.66762e-23)
(-0.668089 0.249314 0)
(1.83108 -0.804606 0)
(2.0047 0.403158 2.51881e-19)
(1.08765 -0.210623 4.9354e-19)
(1.35794 -0.396863 -2.5123e-18)
(2.35538 -0.646259 7.66374e-20)
(2.32969 -0.233893 -5.53767e-20)
(3.07438 0.808865 0)
(2.01022 0.441547 1.41073e-19)
(-0.130276 -0.635265 -1.68545e-20)
(2.35932 1.03756 -2.92986e-20)
(2.06273 -0.237116 -1.5372e-19)
(0.395545 -0.197781 -1.41342e-18)
(3.40613 -0.592151 -9.19304e-19)
(3.65427 -0.311704 2.45957e-19)
(2.14243 1.14054 0)
(2.64222 -0.611863 -1.13103e-19)
(1.92991 0.0212828 4.38078e-20)
(1.91395 0.0463649 -5.27915e-22)
(0.863438 -0.418809 6.14647e-19)
(2.0408 -0.237572 2.32352e-19)
(1.8492 -0.306133 2.52119e-20)
(-2.14154 1.92956 -7.79031e-19)
(2.65661 -0.25029 -1.95556e-19)
(2.25955 -0.0279409 1.94904e-19)
(-0.872258 2.26455 -1.13e-19)
(2.27962 0.981377 1.34848e-19)
(1.25981 -0.344651 -1.14385e-18)
(1.02711 -0.500645 -1.644e-19)
(1.93809 0.0422862 0)
(2.84703 0.395432 8.42082e-20)
(-1.49994 2.6612 -5.70654e-19)
(1.38767 -0.189838 6.82676e-19)
(2.19356 0.13999 0)
(1.98604 -0.333174 1.25813e-19)
(1.2487 -0.530684 1.50524e-19)
(1.9966 0.0256032 -4.84419e-19)
(-0.823386 0.893102 -7.12063e-19)
(1.67291 -0.90091 -1.05244e-20)
(2.24427 -0.124055 5.68901e-20)
(2.31467 0.064984 1.79274e-19)
(1.85157 -0.825353 -3.81571e-20)
(2.58553 0.214948 -1.24661e-20)
(-0.866362 -1.15753 -3.11149e-18)
(2.11431 -0.045848 2.51288e-19)
(2.16915 -0.05229 -8.58098e-20)
(2.14143 0.0900203 -4.7716e-21)
(2.13371 -0.0298906 -1.69209e-19)
(1.18655 -0.53655 -2.91389e-19)
(2.59418 0.330554 0)
(-2.5453 1.52708 1.23281e-18)
(2.12037 0.0708485 3.22637e-20)
(1.45882 0.3219 -1.40584e-19)
(2.43137 0.04371 2.76293e-20)
(2.28963 -0.281584 1.37456e-20)
(2.00035 0.0112642 -4.06865e-19)
(2.07792 0.298352 7.98187e-20)
(0.0755209 0.027917 -7.27304e-19)
(2.71165 -0.00314516 0)
(1.74911 -0.231717 2.15633e-20)
(2.54368 -0.138087 4.21709e-20)
(1.54118 -0.584921 0)
(2.13382 0.0678116 1.60112e-19)
(2.57182 -0.113994 4.49664e-20)
(2.67883 0.00890025 1.52667e-24)
(3.08157 -0.65899 4.39465e-19)
(2.13773 -0.186855 0)
(1.78521 0.302924 4.23897e-19)
(1.96937 -0.444516 -4.53504e-20)
(1.43208 -0.682619 2.77197e-20)
(2.09134 -0.156689 0)
(1.49817 0.237708 -6.47763e-19)
(0.508873 -0.563732 -1.50204e-19)
(2.31384 1.41518 -7.7675e-20)
(1.22996 -0.234496 7.52197e-19)
(2.16936 0.00607244 -3.43134e-21)
(-1.4294 1.00128 8.03025e-19)
(2.00387 -0.0976466 -2.19926e-19)
(3.50208 -0.168812 -6.06547e-19)
(1.81277 0.115376 -2.81759e-19)
(1.95256 0.0109885 0)
(2.00286 0.021419 -2.01408e-19)
(0.938915 0.120868 3.21221e-18)
(-0.35718 0.410024 0)
(4.3156 -0.583604 0)
(1.91471 0.0465147 0)
(1.24103 -0.572001 0)
(2.03477 0.290831 0)
(1.15712 -0.204802 0)
(2.6347 -1.06265 -1.11248e-20)
(3.1014 0.870765 -2.27338e-19)
(2.57123 0.41531 0)
(1.76601 0.302299 6.39794e-19)
(1.00938 -0.714172 2.15192e-19)
(2.06852 0.177788 4.34691e-21)
(-1.31303 2.69213 -2.34286e-19)
(1.1598 0.0141241 8.9403e-22)
(-0.052956 0.193057 6.30856e-19)
(1.71126 0.005421 -4.97953e-20)
(2.87729 0.0450879 2.04732e-20)
(2.014 0.271551 -1.70699e-19)
(1.88399 0.150466 -3.90085e-19)
(1.90621 0.943026 -2.38401e-19)
(3.07366 1.2349 0)
(-2.76404 0.831976 3.14744e-19)
(1.32251 -0.417741 -5.85283e-19)
(2.01157 0.0237617 -6.1851e-19)
(2.60322 -0.510183 5.02735e-19)
(1.99341 -0.0196745 2.91795e-20)
(3.0692 -0.0808382 -6.32794e-19)
(2.20797 -0.229807 -7.86273e-21)
(2.21161 -0.457813 7.25356e-22)
(2.01783 0.148928 1.79893e-19)
(1.65592 1.09148 0)
(2.17952 -0.473291 -4.59357e-20)
(1.73166 0.0378691 -8.53838e-20)
(2.37297 0.191896 0)
(1.92926 -0.251066 0)
(1.94106 -0.860373 -6.1949e-21)
(-2.05292 1.32581 8.93157e-19)
(2.57664 -1.13166 -3.97835e-19)
(1.82023 -0.0448607 0)
(1.96593 -0.0578629 -3.1499e-19)
(1.82311 0.177657 -7.57211e-20)
(-2.74463 1.1151 7.10506e-19)
(2.60677 -0.0640614 1.47749e-20)
(-0.295319 0.33674 0)
(-2.80839 0.843748 3.49021e-19)
(2.6002 -0.0937556 0)
(2.61671 -0.654351 1.20211e-19)
(2.21745 -0.214709 -7.80654e-20)
(2.0022 0.0178402 1.83303e-22)
(2.30279 0.683113 -2.35982e-19)
(2.53014 1.25079 -2.56204e-20)
(1.84302 -0.496434 2.6856e-19)
(-1.90433 0.131363 0)
(1.54321 -2.33921 -1.98364e-18)
(1.14948 -1.4384 0)
(2.63135 0.415081 -1.7275e-20)
(-2.78082 1.30452 1.36447e-18)
(4.65167 -0.631451 1.03527e-18)
(1.77154 -0.229742 -2.17873e-20)
(-1.73374 2.41412 -1.7597e-18)
(1.24137 -0.606992 -3.2021e-20)
(1.36495 -0.422596 -3.29879e-19)
(1.60519 0.0849875 9.24979e-21)
(2.04488 -2.36318 1.63183e-18)
(1.22827 -0.552137 2.40488e-19)
(1.42264 -0.443873 3.52305e-19)
(-1.12414 -0.884835 1.34743e-18)
(2.71114 -2.04076 -9.77034e-19)
(1.96683 -0.573261 8.59961e-20)
(-1.42272 -1.00227 6.46533e-19)
(2.45317 0.0375352 -7.59018e-21)
(0.993439 -0.781748 -1.81666e-19)
(2.30186 0.432609 -7.18368e-20)
(2.44908 -0.358604 0)
(1.07823 -0.572876 -1.12076e-18)
(2.10462 -0.0429618 -3.12758e-19)
(1.99451 0.0942152 0)
(2.60499 0.389235 0)
(0.7018 -2.52798 -9.32227e-19)
(3.75953 0.144145 -5.51985e-19)
(2.4264 0.242632 -9.71172e-20)
(2.15852 -0.314033 1.00781e-19)
(1.89351 0.909741 2.10418e-19)
(1.39667 -0.0199002 1.40158e-19)
(-2.73089 1.50477 -7.2076e-20)
(1.76899 0.571088 0)
(1.45528 -0.473072 3.29077e-19)
(-0.202341 0.730198 1.58668e-19)
(-1.83522 2.30485 1.35642e-18)
(1.83545 -0.676918 3.57006e-20)
(1.89793 -0.824185 2.00035e-19)
(1.61461 -0.0132808 8.09275e-20)
(1.84453 -0.217015 1.36945e-20)
(3.0312 -0.481746 5.01201e-19)
(-2.62344 1.50091 -8.75276e-19)
(2.40837 0.232813 7.43356e-20)
(1.97433 0.0429107 1.45177e-19)
(1.1983 -0.264268 -3.08457e-19)
(1.95272 -0.0906933 1.90222e-19)
(1.18348 -0.292818 0)
(2.39373 0.410747 9.83091e-20)
(2.0034 0.044769 3.26813e-20)
(1.54214 -0.330356 -1.07893e-19)
(1.72693 1.67052 -4.20662e-20)
(1.93254 -0.564308 7.97919e-20)
(2.11212 0.0322846 5.67394e-20)
(1.41397 0.0822964 -4.81519e-19)
(2.40983 0.143743 0)
(1.75991 -0.20999 -4.3508e-20)
(2.24665 0.08539 1.44014e-19)
(2.34495 -0.187131 0)
(1.44614 -0.0177816 2.67856e-19)
(2.61532 -0.0650939 0)
(1.63201 1.6641 2.99317e-19)
(2.32044 -0.0284417 0)
(2.17493 -0.527641 0)
(2.47019 -0.0466647 2.48683e-20)
(2.40289 0.182716 6.68806e-20)
(2.96404 0.406451 -2.23086e-19)
(1.92907 0.113619 -1.78717e-19)
(1.52928 1.07321 -1.56161e-19)
(1.99821 0.0715399 -7.87101e-20)
(2.05991 0.299133 0)
(-0.927069 -0.389548 -2.44836e-20)
(2.51827 0.1737 -1.281e-20)
(2.55327 -0.644695 -2.41424e-19)
(2.43323 -0.353643 0)
(2.83028 0.822003 1.02879e-19)
(2.03622 1.55861 -4.65997e-21)
(2.41226 0.02291 -2.77451e-20)
(0.545694 2.05055 0)
(-0.740772 2.72732 6.98691e-19)
(2.03607 0.147901 0)
(3.01543 -0.400009 -2.41554e-19)
(-0.325601 0.109172 0)
(1.65697 -0.0135808 0)
(2.73467 -2.12256 0)
(2.24268 -0.759447 0)
(-0.18408 1.09951 -9.6431e-20)
(-2.0907 1.69857 -3.36577e-19)
(1.91569 -0.045332 -2.41082e-19)
(-2.72128 0.486971 -1.02713e-18)
(1.31102 -0.578028 0)
(-2.36765 0.217457 -8.7661e-19)
(-0.461826 0.100178 -6.98191e-19)
(1.58261 -0.736491 0)
(1.54227 -0.547226 -3.22283e-19)
(1.3765 -0.105985 -1.40023e-20)
(2.29026 0.415423 1.82176e-19)
(2.88015 -0.678234 -3.64312e-19)
(1.87541 0.137688 0)
(2.45533 -0.611081 0)
(3.20213 0.585504 1.07636e-19)
(1.97028 -0.578793 7.16463e-21)
(1.61736 -0.00630749 -2.18077e-20)
(0.70027 -2.47964 7.00428e-20)
(1.99928 0.00523475 1.50318e-20)
(2.84367 0.413979 -1.2773e-20)
(2.01745 0.149861 2.57872e-19)
(1.73271 -0.222909 2.25113e-20)
(2.01089 -0.49655 0)
(0.517008 -0.203679 0)
(2.59065 0.188786 0)
(1.69432 0.025359 0)
(1.81844 -0.320221 1.25573e-19)
(3.01369 0.114685 0)
(-0.769173 2.43755 1.25364e-18)
(2.98727 -0.204309 7.49253e-20)
(1.39098 -0.460207 -5.33612e-19)
(0.932028 -0.662386 -1.0819e-19)
(-2.43582 1.29045 -6.54535e-19)
(-0.554222 2.33375 -5.80044e-19)
(1.86784 0.0539232 4.52371e-20)
(-2.5558 1.82866 -7.74885e-19)
(1.71853 -0.227597 3.64652e-20)
(2.51367 -0.0325006 0)
(2.37745 -0.108897 0)
(1.37 -0.537311 0)
(2.29377 -0.298827 -1.20518e-20)
(2.42863 -1.90828 0)
(1.79319 0.57869 0)
(2.00239 0.00775911 0)
(1.86232 -0.430749 1.13546e-19)
(2.06889 0.179347 -2.65649e-19)
(1.56798 0.0288868 0)
(2.77082 -1.01288 -3.60848e-19)
(1.97568 0.148483 -2.30564e-19)
(2.37157 0.957436 5.84301e-20)
(1.619 -0.749207 1.37429e-19)
(1.86324 0.630169 1.99562e-21)
(1.93914 -0.851812 -6.0224e-21)
(1.89048 -0.276406 3.06687e-20)
(2.23388 -0.700165 -1.03278e-19)
(2.38327 0.187639 -8.78444e-20)
(1.62317 0.0204591 -4.69226e-20)
(1.85327 0.0486174 -2.58972e-19)
(2.11752 -0.0441767 0)
(1.41955 0.296057 1.03972e-19)
(1.98473 0.0473823 2.72643e-19)
(0.0659585 -0.805918 -1.36044e-19)
(2.19918 -0.221189 -2.86086e-20)
(1.11721 -0.22959 -5.38356e-19)
(2.40145 0.166642 1.43945e-20)
(3.02666 0.650458 1.96963e-19)
(1.99655 0.0616142 0)
(1.47947 -0.317018 -1.82823e-20)
(1.80943 -0.0913183 -1.46575e-20)
(2.27539 -0.71416 2.21146e-19)
(-2.68174 0.884404 -1.69337e-18)
(2.09752 0.0359561 1.19869e-19)
(2.62446 0.287549 5.1674e-21)
(2.22262 0.013026 2.53184e-21)
(2.52916 0.174107 0)
(0.809694 -0.396235 0)
(1.43186 -0.682863 1.96569e-19)
(-0.813231 0.802937 7.68432e-19)
(1.92958 0.0254197 1.79249e-22)
(1.98464 0.0487544 5.40149e-19)
(1.47337 -0.32079 5.9225e-20)
(1.47039 0.221991 0)
(1.82767 0.0657939 0)
(1.67936 -0.372762 -7.38929e-21)
(2.38966 -0.0112111 3.88938e-20)
(1.90591 0.617502 3.93445e-19)
(2.31188 -0.101212 0)
(2.13765 0.0117954 0)
(2.26318 -0.517601 -9.96833e-20)
(2.06691 -0.14754 1.43766e-19)
(-0.470821 -0.214539 -4.19813e-19)
(1.72403 -0.0909088 0)
(1.22356 -0.147406 1.02957e-19)
(3.20787 -1.06477 -1.70401e-19)
(-1.56146 2.53312 -6.42281e-19)
(2.074 -0.0231925 -2.3895e-19)
(3.55151 0.71975 0)
(3.75192 0.212524 4.48641e-19)
(0.985029 1.86845 -1.87785e-18)
(-0.358169 -0.268997 0)
(1.72968 0.0308204 -2.97886e-20)
(1.93509 0.0851261 -1.82351e-19)
(1.6826 0.0170409 -1.28323e-23)
(2.18039 -0.175277 4.59904e-20)
(1.20327 1.04068 2.63066e-19)
(1.86441 0.0455388 0)
(1.10869 -0.424704 -6.11804e-21)
(1.44372 -0.320308 -5.61132e-20)
(0.937247 2.18271 -9.51586e-19)
(2.02428 0.273775 2.0258e-19)
(-1.69308 0.174776 3.25696e-19)
(2.04872 0.027219 -5.36411e-19)
(1.77942 -0.297394 -1.25685e-20)
(1.82503 -0.261588 2.4378e-20)
(1.81958 -0.394328 0)
(1.73409 0.0182667 -7.96893e-20)
(1.15559 -0.539901 1.91762e-19)
(2.27817 -0.0701801 -1.4464e-19)
(2.00578 0.0444631 -2.42891e-19)
(2.9885 -0.413756 2.1343e-19)
(1.73084 -0.18184 5.46573e-19)
(2.35164 0.0284434 9.85262e-21)
(1.81346 0.0699168 1.5597e-19)
(1.5057 0.163395 -4.16277e-20)
(3.51246 0.229142 -5.43703e-19)
(2.29673 1.05592 6.41041e-20)
(1.54523 -0.276168 1.97558e-18)
(1.87177 -0.0173265 0)
(1.49713 -0.48571 0)
(2.78121 0.484136 0)
(1.38859 -0.428674 4.19561e-19)
(2.15866 0.0685626 -3.97083e-19)
(1.80725 0.191677 0)
(1.58739 -0.343065 -3.07121e-19)
(1.80358 0.162583 0)
(1.82689 -0.29181 -2.05101e-19)
(2.5286 -0.679657 -2.63731e-19)
(1.97756 -0.469247 -1.0434e-19)
(1.94319 0.0457637 0)
(1.98224 0.0363965 0)
(2.38562 -0.202205 1.27057e-19)
(2.54959 0.351667 1.49329e-22)
(2.95819 -0.0437225 1.71832e-19)
(2.18491 1.64802 -7.40061e-21)
(2.24454 -0.123886 0)
(1.84549 -0.657201 -5.69282e-20)
(-0.258277 0.447175 0)
(0.875133 0.823092 -2.99418e-19)
(2.54189 1.24365 0)