/*--------------------------------*- C++ -*----------------------------------*\
| =========                 |                                                 |
| \\      /  F ield         | OpenFOAM: The Open Source CFD Toolbox           |
|  \\    /   O peration     | Version:  2306                                  |
|   \\  /    A nd           | Website:  www.openfoam.com                      |
|    \\/     M anipulation  |                                                 |
\*---------------------------------------------------------------------------*/
FoamFile
{
    version     2.0;
    format      ascii;
    arch        "LSB;label=32;scalar=64";
    class       surfaceScalarField;
    location    "3.1";
    object      phi;
}
// * * * * * * * * * * * * * * * * * * * * * * * * * * * * * * * * * * * * * //

dimensions      [0 3 -1 0 0 0 0];

oriented        oriented;

internalField   nonuniform List<scalar> 
7520
(
-1.01422
0.763365
0.250854
-1.32567
-0.250039
1.57571
0.0377567
-1.71048
1.67272
0.243489
-0.0322895
-0.2112
-0.0787703
1.38068
-1.30191
-0.0929914
0.100058
-0.00706676
-0.275537
2.06224
-1.78671
-0.106577
-1.6191
1.72568
-1.29229
1.33005
0.941311
-0.152391
-0.78892
-0.216153
-0.120314
0.336466
-0.266129
-1.73197
1.9981
0.721646
-0.103525
-0.618121
-0.103868
0.144017
-0.0401493
-1.76503
0.933379
0.831647
0.134223
1.56652
-1.70075
-0.152808
-0.0255616
0.17837
-0.0642287
0.269162
-0.204934
0.0421348
0.0149705
-0.0571053
0.050846
-0.203654
-0.435933
-0.252258
0.688191
-1.08383
1.21805
-0.0300408
-0.323793
0.353834
0.154533
-0.14879
-0.00574314
-0.0293348
0.0737653
-0.0444304
0.262489
-0.258497
-0.00399265
0.869229
1.10582
-1.97505
-0.0356856
0.327249
-0.291564
-0.0372812
0.0794161
0.204779
-0.0324487
-0.17233
-1.14803
1.78011
-0.632076
-0.0502728
-0.0189318
0.0692046
-1.74407
1.91361
-0.16954
-0.327429
0.413516
-0.0860874
-0.236948
-1.24329
1.48024
-0.669525
0.996719
-0.327194
0.294472
-0.566797
0.272325
0.815695
-1.53755
0.721853
0.0940064
-0.330322
0.236315
-0.0462455
-0.105035
0.151281
-0.029414
0.272903
0.473887
0.208169
-0.682056
0.300542
-0.0380529
2.19928
-1.44682
-0.752463
-0.499174
-0.64706
1.14623
-1.51118
1.59611
-0.0849283
0.0402553
0.107586
-0.147841
0.281144
-0.0855572
-0.195587
-1.36659
0.218562
0.285064
-0.0769613
-0.208102
1.78407
0.218651
-2.00272
-0.727585
0.247634
0.479951
0.0772643
-0.0985596
0.0212953
1.06078
0.510192
-1.57097
0.0154351
-0.108427
-0.775803
0.126051
0.649752
0.394472
-1.29157
0.897101
-0.0428086
-0.128309
0.171118
-0.123158
0.0728855
-2.27452
1.1133
1.16123
1.54996
-1.11217
-0.437793
-0.0120373
-0.0394915
0.0515288
-1.22608
0.989135
0.852413
-0.130767
-0.0692008
0.146465
0.00423223
-0.1081
1.09265
-2.22176
1.12912
0.153466
1.6306
-1.25667
0.997335
0.259335
0.327389
-0.247028
-0.0803606
-0.508495
0.902968
0.190523
-0.825529
0.635007
0.351561
-0.0974358
-0.254125
0.468688
-0.510996
0.0423084
0.705829
-1.51368
0.807847
0.132165
-0.115715
-0.0164502
2.24235
-0.943627
-1.29872
0.416784
-0.766191
0.349407
1.7823
-1.31585
-0.466445
-0.853811
0.0780084
-1.51758
-0.756938
0.789212
0.302127
-1.09134
0.252742
-0.648849
0.396107
0.0125889
-0.340018
0.24281
-0.307039
0.222358
-0.0175787
0.0234728
-0.0441628
0.02069
1.20055
1.0418
-1.69075
1.89916
-0.208417
1.18342
0.366533
-0.979269
1.1369
-0.157632
0.0670925
0.172797
-0.239889
1.37735
-1.64348
0.252774
0.205057
-0.11105
0.28175
0.430958
-0.712708
0.00769333
0.0865889
-0.0942822
-0.54347
0.378713
0.164758
1.45333
-0.747498
-0.737162
0.641469
0.0956928
0.852323
-0.878761
0.0264383
-0.0913118
0.114807
-0.0234955
0.0097308
-0.0154523
0.00572154
2.20218
-1.35542
-0.846759
0.542835
-0.481286
-0.532933
-1.33567
0.827172
-1.86837
1.59283
0.178009
-0.0822012
-0.095808
-0.298043
0.0818901
-0.164062
0.162776
0.00128589
-0.273409
0.360121
-0.0867122
1.94939
-1.13369
0.38944
-0.114966
-0.274474
-0.780968
0.345035
-0.0502619
-0.000136334
0.0503982
-0.13384
0.923051
-0.774292
0.432076
0.342216
1.22336
-2.06643
0.843064
0.0477068
0.106826
-0.181965
-0.54562
-0.352026
0.061827
0.290199
1.13525
-0.193943
-0.510083
0.581382
-0.0712992
-0.0151633
0.322756
-0.307592
0.0797341
-0.0758419
-0.00389216
0.707854
-1.80987
1.10202
0.397124
-0.427165
-0.355612
-0.0650135
0.420625
0.164706
0.224733
0.204807
0.0586505
-0.263457
0.152097
0.0337029
-0.1858
-0.0670898
0.219187
-0.625461
-0.148831
0.161021
-0.687645
0.526624
-0.682474
1.52343
-0.840955
0.370102
-0.400735
0.0306328
-1.14286
-0.192803
-0.03524
-0.0522948
0.0875348
1.44094
-0.380168
-0.654017
0.451434
0.202583
-0.00145207
0.122709
-0.121257
0.299805
-0.0776648
-0.22214
0.187485
-1.89796
0.256999
-1.76818
-2.08253
0.85863
1.2239
-0.852142
-0.404528
-1.20823
0.900487
0.307744
1.79741
0.257697
-2.0551
0.187499
-0.233745
0.0558948
0.687796
-0.74369
-0.366496
-0.473551
0.840047
-0.0504766
-1.15775
-1.76031
0.0162447
0.0139559
0.0095169
0.0676996
-0.133084
0.0653846
0.295236
-0.338045
0.765678
0.0866447
-0.161159
0.131745
-0.00789182
-0.0210603
0.0289521
0.77545
-0.448645
-0.326805
-0.492173
-1.27285
0.0762337
-0.44273
0.0668923
-0.605217
0.538324
-0.113694
-0.0961863
0.20988
-1.60781
0.909498
0.698308
0.498696
-0.577466
-0.0552417
0.456499
-0.401257
0.0828862
-0.112221
0.534681
-0.248309
-0.286372
0.857434
-0.575684
0.247404
-0.324365
0.970656
0.239702
-1.21036
0.310391
-0.346077
-0.445953
-1.35891
1.80486
1.26965
0.674792
0.710647
-0.457904
-1.23319
0.56366
-0.698505
0.93619
-0.237684
-0.00569336
-0.0289829
0.0346762
0.275515
-0.328961
0.0534457
-1.05678
0.922938
-0.281906
-0.154349
0.436255
-0.172157
0.0584633
-0.850998
0.91789
0.481648
-1.02022
0.538573
-0.504766
-0.0387039
0.698807
-0.404335
0.143289
-0.0111238
0.0976107
-0.22984
0.132229
0.0366669
-0.310076
-0.377309
-0.139066
0.516375
0.136767
0.214794
-0.695081
-0.818595
-0.808464
-0.799342
0.0329837
-0.254728
0.221744
1.28442
-0.665395
-0.619022
-0.994515
0.312041
-1.15474
2.16987
-1.01513
0.371779
0.162901
0.10321
-0.17918
0.0759699
-0.755065
0.5731
0.598126
-1.0973
1.73832
-0.0475667
-1.69075
-1.57163
2.00945
-0.437818
-0.0263193
0.0940189
0.409764
1.29999
-1.70975
0.0355427
-0.175236
0.139693
-0.173166
1.80415
-1.63098
0.00163557
0.112971
-0.114607
-0.888377
1.26162
-0.373238
-0.100726
-0.654339
0.0810603
-0.458369
0.27044
-0.158194
-1.65495
1.81314
-0.0837151
0.0986856
-1.62909
0.934013
0.315527
-0.0355116
-0.280015
-0.295708
0.280545
0.142909
1.58261
-1.72552
-0.576804
-0.569092
1.1459
-0.525675
0.418871
0.106804
2.38338
-1.52656
-0.856819
0.460735
-1.03754
-0.264498
0.281061
-0.0165638
0.133509
0.739258
-0.872766
0.057095
-0.0598009
0.0027059
0.836714
0.819526
-1.65624
-0.223054
-0.514108
-0.0609783
0.172676
-0.111697
-0.931183
0.687634
0.243549
-0.0826852
0.0425755
0.0401097
0.955343
0.329074
1.07438
-2.08933
1.01495
-2.69287
1.19638
1.49649
-1.14915
-1.54372
-0.380265
0.464049
-0.0837833
-0.217994
0.00411286
0.213882
0.464691
-1.3146
0.849904
0.0412761
1.07486
-1.11613
-0.627634
0.929761
1.13063
-0.159978
1.00689
1.03799
-2.04488
-0.193453
0.0954191
0.0980339
0.0232868
-0.95447
1.85542
-0.474928
-1.38049
0.141759
-0.106216
0.0174841
-0.246722
0.22116
1.06981
0.785603
0.238119
0.637208
-0.875327
0.371431
-0.0441815
0.0787797
-0.100838
0.0220579
-0.2267
0.0888668
0.137833
-1.85318
0.900766
0.952413
-0.351509
0.133514
0.87587
-0.714849
0.578101
-0.0347905
-0.543311
0.141025
0.140119
-1.90433
1.8644
0.0399369
1.13103
-0.649382
-0.0399575
0.164816
-0.124859
-0.00802405
0.0505246
-0.0425005
0.122183
-0.219618
1.62588
-0.533238
0.0427526
-0.159424
0.116671
0.00600114
-0.013893
-0.40932
0.289006
1.11779
-0.686832
-0.656975
0.698251
-0.0629093
0.16052
2.06224
0.011124
-0.014683
0.003559
0.285174
0.832615
-0.214901
0.140067
0.074834
0.0514503
-0.0417195
-0.138794
0.612682
0.907419
-0.851525
0.423797
-0.376937
-0.0468604
0.31708
-1.20546
0.034496
0.170311
-1.61587
1.45768
-0.21344
-0.0510572
-1.72245
0.229253
-0.230705
-0.0888417
-0.0711126
0.159954
-0.621838
-1.23134
1.23483
0.967351
1.72988
-0.820377
-1.73197
0.202992
-0.713075
-0.0511664
0.30714
-0.255973
0.177188
-0.253719
0.0765308
-1.23628
0.589222
-0.192109
-0.270893
0.463003
0.412886
-0.565278
-0.148309
-1.93897
2.08728
0.971644
0.232178
-1.54382
1.31164
0.858791
1.05482
-0.847695
1.46823
-1.05847
-0.052402
0.398529
-0.346127
-0.855239
0.757527
0.0977117
0.0826453
-0.0398926
-0.085219
0.337157
-0.251938
-0.284882
-0.226024
0.510905
-0.51081
1.78046
-0.274227
-0.383826
0.658053
0.230691
-0.190435
0.26799
-1.24726
-0.125921
0.2047
0.00874637
-1.91244
1.04778
0.864659
0.371789
-0.475314
0.00826252
-0.043148
0.41325
1.02569
1.3577
1.63561
-0.516405
-1.1192
0.12753
-0.0455919
-0.0819381
0.91842
0.863876
0.177455
-0.228622
0.697163
-1.82678
1.12962
0.31841
-0.275727
-0.0426823
0.529844
0.923483
-0.227631
-0.102691
0.753727
-0.515609
-0.573144
1.44237
0.167301
0.010708
1.89406
-0.670693
0.148916
-0.141222
1.77219
-0.136583
0.106519
0.408145
0.0156524
0.017947
0.309442
-1.64972
-0.862394
0.998262
-0.135868
0.00593283
-0.121648
1.74869
0.0582833
-1.80697
-0.734136
0.459909
0.23012
0.0696851
-0.318094
0.0710656
-0.0441181
-1.27173
1.52686
-1.5751
0.0482349
0.038502
-0.348102
0.3096
-0.922677
1.45252
-0.833646
1.5415
0.0862069
-0.0477049
0.780055
-0.347979
1.99776
-0.620406
0.00510652
0.123676
-0.128782
-0.0883228
-0.078357
0.16668
0.124954
0.00257583
0.137706
-0.799149
-0.0174164
0.121508
-0.104091
0.525109
0.99832
-1.80798
1.36203
0.126671
-0.482283
-0.635602
0.826124
-1.16077
1.37009
-0.209321
0.552396
-1.91761
1.74445
2.13122
-0.930672
1.0217
1.17758
-0.0738756
0.230404
1.29646
-1.32131
0.289849
1.03146
0.257311
-0.289759
-0.278659
-0.0728496
-0.225645
0.158555
0.163533
-1.61035
0.661618
-1.21069
0.54907
-1.61489
0.688121
0.926768
-0.105497
-0.720033
0.082372
-0.0944093
0.0898734
-0.0418267
0.285604
-0.243777
-0.54957
0.494329
1.16694
0.964282
-1.57163
0.0390459
0.0406882
1.64825
-1.46334
-0.184912
-0.382803
1.68279
-1.35093
2.31072
-0.95979
-0.792639
1.01256
-0.219919
0.128407
-1.35449
-0.187057
0.19117
-0.275355
0.439369
-0.164014
-0.0292316
0.0137792
1.338
0.692464
-1.31778
0.625317
-0.0264562
-1.56448
1.59094
-0.0542929
-0.109769
0.0282914
-0.481693
0.453402
-0.938534
1.49604
-0.557508
0.20617
-0.1437
-0.0624695
-0.39817
1.04596
-0.647787
-1.94569
1.69565
1.93786
-0.500944
-1.43691
0.212291
-0.13856
-0.0737309
-0.000441274
0.17763
0.110999
-0.615766
-0.806792
1.64351
-0.0575852
0.00732339
1.73832
-0.962357
1.09587
-0.0236051
0.0236051
-0.180893
0.180186
-1.87093
2.24141
-0.934201
-1.30721
-0.660587
0.842911
-0.182323
0.0955395
-0.161123
0.0655835
1.0468
-1.16417
0.117372
-0.525349
-0.287488
0.812837
0.92227
-1.99468
1.07241
-0.0587182
-0.796521
-0.219975
0.131653
-0.254706
-0.536167
0.790874
0.761766
0.437652
-1.19942
-1.29968
-0.423671
0.694063
-0.270392
-0.040309
1.28192
-1.24161
1.43794
-1.29503
-0.158044
0.140627
-0.228615
-0.0146119
0.4833
-1.1218
0.842795
0.279004
-1.82721
2.18843
-0.361217
-0.0173945
0.135182
-0.117787
-1.463
-0.758763
-0.043551
0.00626975
-1.63513
0.480394
-0.379692
0.294473
-0.295894
-0.496746
0.108249
0.21016
-0.632858
1.63975
0.0438965
-0.36769
-1.53325
0.148636
1.38461
0.72176
-1.17806
0.456301
-0.895406
0.196901
0.214836
-0.578865
0.364029
1.58958
-0.16146
-1.42812
-0.0040939
-0.086912
0.0910059
-0.351974
0.673169
0.48586
-1.15903
-0.406062
1.33944
0.276406
0.670078
0.770866
-0.0160311
1.58524
0.18695
-1.43462
1.40816
-0.174276
-0.0235478
0.197823
-0.255321
-0.0444601
0.299781
-1.93982
0.588888
-0.236962
0.445131
-0.62377
-0.238624
0.250162
0.882039
-0.366514
-0.515525
0.200522
0.10002
-1.08385
1.88304
-0.799193
0.163045
-0.241402
-0.0806591
0.356174
0.26395
-0.539305
-0.0906792
-0.197229
0.287909
0.238714
0.0778467
-0.316561
0.580057
-0.918375
0.338317
0.00965624
0.039265
-0.0489213
-0.298425
0.332385
-0.0339599
0.228709
-0.586158
0.357448
0.313152
-0.0558413
-0.00813025
0.459904
-0.451774
1.16185
-1.0132
-0.96185
-0.668163
-0.214466
0.882628
0.104519
-0.00583292
-0.290306
-0.235369
1.06849
-0.186456
-0.0699725
-1.23452
1.30449
-0.343024
-0.00900238
-0.0678996
-0.557562
-0.486818
0.0886477
0.174053
-0.172417
-1.66368
-0.0360752
-0.0819288
0.118004
1.24915
-1.00944
1.0847
0.853157
0.539495
0.038606
-0.137369
-1.60013
1.7375
0.571004
0.577937
-1.14894
-0.221312
-1.01706
0.613385
0.403679
1.24108
-0.519324
0.0237802
-0.210079
0.186299
2.22035
-1.20252
-1.01783
0.13956
-0.315491
0.17593
0.584084
0.51958
-1.10366
0.0754231
0.104167
-0.17959
1.62017
0.050328
-1.6705
0.240842
0.0283203
-0.260212
0.304108
0.10176
-0.0860392
-0.0157205
0.348316
-0.105505
0.0646113
-0.0446544
-0.0199569
-0.607152
-0.637332
1.24448
1.15325
0.436331
0.989467
-1.05944
0.323688
-1.26222
-1.85123
1.70292
0.0610027
0.261753
0.281797
-0.607135
0.325339
0.796521
0.933354
1.14688
-1.29818
0.1513
1.22134
-0.551266
-0.144469
0.0988772
0.0535019
-0.0335995
-0.0199025
-1.46154
-0.290309
1.75185
-0.390126
0.461656
-0.0715304
-0.00104624
-0.0225589
0.397517
0.983161
-0.142108
-0.0513452
1.11616
-2.12366
1.00749
-0.962877
-0.116134
1.07901
1.59914
-0.52476
-0.101435
0.554094
-1.02765
-0.270831
0.00450908
0.266322
0.0200164
-0.192347
-0.537739
1.2302
0.0170807
0.0400143
0.145606
0.114977
-0.260583
0.0598428
0.986954
-0.0376584
-0.649986
-0.418939
-0.419543
0.48137
0.647613
-0.943506
-0.310903
0.195938
-0.0328035
0.253963
-1.94708
0.933882
0.0507663
0.141541
-0.192307
-0.0841616
0.0352379
0.0489237
0.226519
0.848339
-0.0447191
0.00522759
0.0252675
-1.60521
1.57994
-0.0984177
-0.533496
0.631914
-0.0395958
0.070637
-0.0310412
-0.554869
1.21649
-0.177204
-0.33148
0.508683
-0.287606
0.502442
-0.591838
1.67104
-1.0792
-0.749917
0.539832
0.210085
1.92704
-0.129633
-0.292006
-0.0602169
0.352223
0.28188
-0.22323
-0.183074
-0.271352
1.03339
0.865774
0.353494
-1.2909
0.937411
-0.804407
-0.193042
0.997449
0.347876
-0.0122747
-0.335601
0.0834667
0.305418
-0.388885
-0.1051
0.355843
-0.250743
0.173071
-0.298991
-0.950264
0.0734972
0.000268075
0.144136
0.0605642
-0.125463
0.398154
-0.27269
-0.234866
0.270619
-0.0357532
-0.3083
0.0716045
0.236696
0.780814
-0.406383
-0.045897
0.00173421
-0.260713
-0.54144
0.802153
1.18817
-0.961656
-0.0173399
-0.35124
0.36858
-0.403435
-0.475326
-1.34771
1.50118
0.752355
-0.0645597
-1.2621
0.849688
0.412413
0.228817
-0.0980922
-0.130725
1.74374
-1.74374
-1.63689
0.119306
-0.956719
-0.188971
-0.655707
0.844678
0.570534
-0.56059
-0.00994427
-0.0306596
-0.334745
0.114895
0.21985
-0.0134267
0.210712
-0.197285
-0.577801
1.2495
-0.671695
-0.17547
-0.0950189
0.270489
0.783417
-0.65501
-1.07049
0.266082
-0.0403264
-0.220316
0.260642
-0.0583501
-1.26296
-0.639684
-1.19339
0.553707
0.810207
-0.018096
0.239607
-0.221511
-0.278125
0.337266
-0.0591411
-0.234018
0.173039
-0.0855781
-0.185673
0.096831
0.0378016
-0.0474723
-0.0843116
0.131784
-0.0510401
0.0174406
-0.385822
0.377692
0.154781
-0.181925
0.0271435
-0.0702356
-0.0421959
0.112431
-0.400048
0.263585
0.136463
-0.0679962
0.176853
-0.108857
-0.743664
1.29273
0.64416
-1.09009
0.44593
-0.160469
-0.0817555
0.242224
-0.000414288
-2.10722
2.10764
0.898122
-0.619756
-0.278366
0.416836
-0.0570709
-0.196648
-0.00794793
0.00781159
-0.0579299
0.19749
0.348266
-0.955674
0.607409
-0.433743
-1.47059
-0.208956
0.847751
-0.638795
0.272518
-0.107811
0.414802
-0.27761
-0.137192
0.299109
-0.559822
-0.431465
-0.287115
0.256298
0.0308176
-0.529265
0.337156
-0.12989
0.581325
0.0710493
-0.0790734
-1.44531
0.0898809
-0.293201
0.557151
0.0120911
-0.232066
0.0853234
-0.105226
0.293902
-0.311998
-0.0854928
-1.2436
0.499933
2.0089
-0.204756
-1.65495
2.25401
-1.093
-1.16101
-0.122949
0.501661
-0.104459
-0.749353
0.530976
-0.494309
-0.252678
-0.0181529
-0.599201
-0.420405
1.01961
-0.0478931
-0.0950947
0.142988
0.0153411
-0.867483
-1.9137
-0.326581
-0.329854
0.656435
0.339736
-0.438154
-0.251552
-0.0387001
0.290252
0.476008
-0.0788843
0.170537
0.0582806
1.97419
-1.05192
-0.92725
0.328049
-0.258849
-0.0508676
0.309716
-0.0456513
-0.0598518
-1.10432
-0.257636
-0.098173
0.35581
-0.0873057
-0.0358526
0.908163
-1.18307
0.274907
-0.655192
-0.0429625
1.78671
0.186157
-0.727597
1.18453
-2.04364
0.859106
-1.99752
1.26093
0.736588
0.159541
0.105928
-0.265469
0.149618
1.16202
0.0235198
0.837385
-0.860905
-0.0255228
-0.133901
0.241425
-0.0291338
-0.0284128
-0.286482
0.314895
1.28658
-1.42395
0.333228
-0.153655
0.194478
-0.0408236
-1.47157
-0.165319
-0.604828
-1.21199
0.543828
0.111416
0.00357474
-0.114991
-0.62623
0.314942
0.311288
-0.402702
0.3503
-1.07039
-0.591185
1.66157
-0.140147
0.177678
-0.0821386
0.447271
-0.545764
0.0984929
-0.923497
1.61162
-0.167758
-0.898672
0.238085
0.710992
0.164878
0.773814
-1.35161
-0.0135265
0.0495612
-0.0360347
1.1758
-0.270172
-1.03174
-0.350545
-0.0740043
0.424549
-0.0558473
0.214402
-0.0655549
0.228164
-0.162609
-0.190334
-0.116705
0.0492968
0.858123
-0.309751
0.313656
-0.0662526
-0.422413
0.379265
-0.178958
0.054551
0.124407
0.255213
-0.106263
-0.14895
-0.15119
-0.0429859
0.194176
-0.123269
-0.0579246
0.181194
-0.301619
-0.005973
-0.244078
-0.104024
-0.0918722
1.1893
-0.264723
0.0647557
0.199967
0.0623266
0.0158195
-0.078146
0.146062
0.174537
-0.320599
-0.271656
0.254157
-0.677828
0.257717
0.371055
-0.0758192
0.13905
-0.0561634
-0.136704
-0.038532
1.79684
-0.977316
0.143281
-0.582078
0.438796
-1.58844
0.240729
-0.0571374
0.00362239
0.053515
-0.0436579
-0.0390273
-0.782482
-1.21503
0.368761
-0.0583703
-0.867331
-0.95945
0.285353
-0.139747
-0.0405887
0.48786
1.07367
-0.75965
-0.936874
1.29037
-1.65097
0.189428
0.0554564
-0.150626
0.0951698
-0.0357603
-0.181702
-0.401669
0.583371
0.138879
-0.022208
-0.576319
-0.681985
1.2583
-0.908241
-0.997829
1.90607
0.617765
0.353741
-0.971506
-0.00542632
-0.115314
-0.171801
-0.265531
-0.273774
-0.180412
-0.105496
0.285908
0.340653
0.499395
0.283255
0.131547
-0.170741
-0.619782
0.00729614
0.00382788
-1.10889
1.27404
-0.16515
-0.14391
-0.201548
-1.51534
-0.27833
0.0236015
-0.712515
-0.274556
0.011099
-0.835034
0.120185
-0.162326
-0.913324
-0.334448
1.24777
-0.226125
0.757101
0.280309
0.562601
-0.300538
-1.01636
-0.930715
-1.25115
1.36852
0.0782857
0.166566
0.0262292
-0.0815604
0.0553312
-0.640253
0.584971
0.0552817
0.692372
-0.793098
0.307912
-0.257145
-1.18016
-0.0819376
-0.00430818
0.128822
-0.124514
0.808046
-0.227989
-1.39823
-0.103455
1.50169
-0.0777482
0.0267081
0.0437974
0.338319
-0.382117
-0.246047
0.409432
0.133403
0.0775418
0.0229952
-0.100537
-1.31587
0.840941
0.136771
0.00210778
-0.181503
-0.133988
-0.333966
-0.183295
-0.127608
0.137721
-0.0837783
0.0802748
-0.0959953
0.375973
1.48842
-0.854126
1.87583
1.02642
0.560972
-0.848459
0.0181083
-1.41634
0.242776
-0.336133
0.392057
-0.055924
-0.0624148
-0.0134271
-0.273742
0.016169
-0.0579043
0.13079
-0.0728515
1.51126
-1.43841
0.193682
-0.848021
-0.123843
-0.268005
-0.0700395
-0.0166049
-0.290695
0.367576
-0.076881
0.0108885
-1.46928
1.45839
0.643457
0.246299
0.324235
-0.823719
-0.585342
0.962656
-0.377314
-0.138295
-0.0810153
0.116253
-0.581532
0.593494
-0.011962
0.226668
-0.504007
0.277339
-0.128895
-0.651957
0.780852
-0.28629
-0.059787
-1.99326
-0.0291015
0.187219
-0.182112
0.0416542
0.156762
-0.0199911
0.354155
-0.684009
2.16634
-0.947766
-1.21858
-0.135229
0.435376
0.345258
-0.301461
0.104549
0.151749
-0.184451
-0.0111354
-0.403085
0.415674
-0.392469
0.866942
-0.995837
0.148017
-0.0986388
-0.0493785
-0.379981
-1.78197
0.877421
0.904552
-1.68164
1.68123
-1.13429
0.444046
0.690242
-0.0918735
-0.3738
0.465673
0.504781
0.563713
-0.149828
0.204076
0.499125
0.831491
-0.105449
-0.268113
-0.00949606
1.0372
1.12914
-0.0797342
-0.0211035
1.4025
-1.14481
-0.0509543
-1.37181
1.42276
1.17644
0.0128561
-0.300654
-0.0790375
-0.0693559
0.215741
-0.262167
0.137123
-0.415783
0.22863
-1.33506
1.10643
0.224421
2.32139
-1.44345
-0.877937
-0.0823916
-0.0234999
-0.137623
0.930364
-0.00742531
1.4748
-1.3555
1.01704
-1.92528
-1.2201
-0.0152489
1.23535
-0.877182
0.147595
0.729587
0.109286
-0.0487221
2.08939
0.0136915
-2.10308
-1.28137
1.65858
-0.377219
0.0467993
0.22382
-0.854447
0.814138
0.0331745
-0.246615
-1.38687
0.226095
-0.00122385
-0.0160574
0.0172813
-0.117022
0.223866
-0.106844
0.114495
-0.466565
0.35207
0.542988
0.455274
-0.509434
-0.116796
0.0445055
0.861199
-0.919917
-0.0701856
-0.0628986
-0.262108
0.0540054
-0.0798953
0.971679
-0.891784
-0.0208467
0.583445
-0.562599
0.0590434
-0.429721
0.370678
-0.602379
-1.48743
0.648943
0.838489
-0.0411717
0.853163
0.253248
-1.10641
-0.487813
0.231574
-0.255798
0.0242243
0.176829
-0.0371356
-0.255564
0.00401176
-0.297549
-0.850468
-0.0010563
-0.39875
0.805661
-0.40691
-0.823708
-0.409477
1.80969
-0.761906
-0.102626
0.19106
-1.34675
0.0123062
-1.34502
1.33272
-0.117675
-0.147652
0.265327
0.802156
-0.616338
-0.185818
0.143792
-0.0210831
0.0521488
-1.33667
0.51296
-0.631773
1.24516
-0.0890221
-0.320298
0.301512
0.227948
0.0272654
0.832561
-0.372652
0.0131198
0.679252
-0.966829
0.421209
-1.89471
0.89688
1.37161
-1.36072
-1.52283
1.44998
0.279877
-1.46504
0.222744
1.24229
0.605544
0.242207
0.032628
-0.90791
0.71894
-0.122992
-0.127457
0.250449
-1.22555
0.286036
0.939513
0.281055
0.729365
-1.01042
0.0204453
-1.27159
0.773147
0.0932703
-0.866417
0.266977
0.291374
-0.926976
0.371834
-0.0132948
0.0558703
1.54517
-1.49484
0.356313
-1.01242
-0.475013
0.669252
0.0232254
-1.24333
1.11443
-0.261267
-1.74445
0.0124744
-0.283578
-0.92678
0.339013
0.230416
1.85123
0.211015
0.112776
-1.21709
0.142549
-0.108846
0.169924
-0.454805
0.328041
-0.569071
0.24103
0.0202058
-0.057172
0.0369662
0.305885
-0.366102
-0.209422
-0.0172779
-1.1254
1.14562
-0.0202195
-0.74653
0.979918
-1.56009
0.580169
-0.810146
-0.0612509
0.101361
-1.44953
0.132727
1.3168
-0.364186
0.916582
-0.669141
0.684482
0.153641
0.985474
0.600379
-1.01932
-0.819694
-0.189771
1.00947
-0.782713
-1.17389
0.597572
-0.127665
0.131226
-0.00356072
0.0645225
-0.0955637
0.95356
-1.4913
-0.0223401
-0.542857
0.565197
-0.229522
0.187385
0.0421372
-1.119
0.467043
0.0375742
0.0254402
-0.23664
0.428226
1.91097
0.178425
-0.806551
0.830071
-0.274617
0.093114
-0.938616
1.55707
-0.61845
-0.0790845
0.0653562
0.0779328
0.375992
-0.0221581
0.95811
1.21176
0.5934
-0.941379
0.287849
-1.81441
-0.170283
0.134208
0.112708
-1.12215
-0.227193
-0.955877
-0.21516
0.0540013
0.801673
-0.373447
-0.827886
0.0865323
0.77159
0.18972
-1.68836
0.325416
1.36294
-0.0795129
0.488945
0.619829
-1.22237
-0.349258
0.757955
-0.339011
-0.418944
0.873657
-0.287079
-0.586577
-0.182705
0.0390048
0.653168
-0.664552
0.011384
-1.68755
0.662593
1.02496
1.05801
0.61303
0.000632695
0.110784
0.762199
-0.508042
-1.54683
0.554367
0.99246
-1.81314
1.52283
0.671389
0.812857
-1.48425
0.822992
-0.744984
1.87821
-0.692125
-1.18609
-1.04689
0.183954
-0.0850772
0.0547379
-0.101499
0.196918
-0.0451536
0.128078
-0.0829248
-0.248597
-0.262399
-1.44486
-0.174246
0.0690131
-0.0974259
-0.0344057
-0.0253952
1.02776
-0.430865
-0.596898
0.789842
-0.4749
-0.127594
0.127153
-0.124327
1.27121
-0.211516
0.093841
-0.320285
-0.798715
-1.49435
0.581026
-0.0612907
-0.0874993
0.123944
0.060329
0.1148
-0.0885708
-0.513074
-1.1488
0.106404
-0.0835926
-0.0228119
0.186377
-0.272475
-1.20563
1.4781
0.148284
0.00847826
0.407251
1.02131
0.98321
-2.00452
-0.397793
1.01556
0.218832
-0.0870871
0.53995
-0.986341
-0.623803
1.61014
-0.975992
-1.00121
0.580803
0.295472
-0.163915
-0.131557
0.305539
-0.970934
-0.166867
1.34728
-0.367362
-0.182729
0.105064
-0.345036
-0.745055
0.0634861
1.91302
-1.70292
-0.210104
-0.890468
-0.603882
0.168956
0.171417
0.0669213
-1.02003
-0.205157
1.22519
0.232298
0.492799
-0.26613
-1.5871
-1.87412
0.762645
1.11148
-0.162639
-0.00496969
0.167609
0.957065
-0.556442
-0.400623
0.110966
-0.16887
0.0787962
0.0839799
0.930481
-2.00087
0.77478
0.0988766
-0.32996
-0.59729
-0.118453
0.0233581
0.155644
0.960983
-1.23346
0.0237316
0.374797
-0.583779
0.569167
-0.0869402
-0.0101933
0.0971335
0.919654
0.958556
0.567809
0.054638
0.717482
-0.550705
-0.166777
1.91761
-1.5922
0.18734
-0.571154
0.150391
0.0264378
0.178451
0.0232862
0.108498
0.00420538
-0.131871
0.583364
0.0472712
-1.69268
-0.0201141
-0.142525
-0.074312
-0.00724843
0.975879
-0.69557
0.886126
-0.521248
-0.364878
0.00394326
0.110864
-0.00603866
0.00481481
0.396291
-0.10229
-0.21427
-0.662956
-0.255419
-2.0617
0.886762
1.17494
0.223706
-0.0509096
0.105322
0.103826
0.118532
-0.272609
-0.306256
0.417505
-1.40385
0.0460175
-0.966843
1.98815
0.628197
-0.109019
-0.519177
-0.747461
-0.47253
-0.0880603
0.0934256
-1.14065
0.459801
-0.718786
0.258985
-0.317739
0.289976
0.0277638
-0.0507623
1.27834
1.03238
-1.53391
1.5922
-1.52768
0.99588
0.531801
1.03789
-2.00474
2.08196
-1.05627
-0.995369
-0.991313
-0.0240754
0.309679
-0.0917036
-0.389989
-1.52253
0.0574946
0.013102
-1.31128
1.21696
-1.97062
0.753661
-0.0529304
0.24043
-0.486675
0.425917
-0.215832
0.937163
1.38423
-1.60372
0.665107
-0.149567
-0.826425
-1.37123
0.295216
-0.00524043
1.68164
-1.81127
-0.110536
-1.21159
0.0436126
0.933786
-0.260617
-1.45879
1.63408
-0.175294
0.41147
1.69617
0.442169
-0.0684146
-0.373754
1.87849
-0.861453
0.238943
-0.151339
0.690525
-0.758425
0.0946718
0.133276
0.17712
1.01137
-1.18849
-0.689889
-0.45822
1.04486
-1.06112
0.0162664
-0.362813
0.26464
-1.75626
0.852672
0.903592
0.735921
0.0662347
-0.629546
0.0898919
0.883857
-0.718979
0.29371
-0.559241
0.0874446
-0.143608
-0.641019
0.459318
-1.04743
-0.890968
1.93839
0.156679
-0.214603
0.239273
-0.344778
0.993296
-0.755211
0.092485
1.11206
-1.96619
0.0923015
0.311661
0.232964
-1.19462
0.0517754
0.71159
0.253609
0.0764159
-0.612583
-1.3934
0.456522
-0.0339439
-0.188157
0.222101
0.0699536
-0.321892
1.15145
1.10256
1.23048
-0.955569
0.0140296
-0.0521455
0.141012
0.454712
0.221748
-0.338454
-0.711549
-0.955494
1.99339
0.0649738
-0.106145
-0.756405
-1.10581
1.86221
-1.64994
0.368575
-0.0695603
-0.317658
-0.00294113
-1.47454
-0.0587095
-0.183734
0.643535
-1.0414
-1.0203
1.91302
0.60294
-1.40228
1.03791
-0.582638
-0.227439
-0.361175
0.189374
-0.265382
0.248042
-1.67501
0.213279
-0.79862
1.04163
-1.99713
-0.810199
0.113907
-0.337136
-0.0498438
-1.40894
0.877606
-0.757421
1.3656
0.903241
-1.63546
0.732219
1.71619
-1.0536
1.9981
-0.950169
-0.999152
1.94932
0.514461
1.24412
-1.01182
-0.712582
-1.16154
-0.865377
-0.662303
0.474868
-0.724164
1.68361
-0.959448
-0.1388
1.3593
-1.2205
-0.986909
-0.985789
1.9727
0.932391
0.112468
0.252766
0.377974
-0.555597
0.394677
0.160921
0.0147971
-0.256199
0.492607
-1.38308
-0.836735
-0.392347
-0.247906
0.0577955
-0.332351
-0.0168744
0.651881
-1.96801
0.934544
1.03347
-0.0251146
-1.64234
1.66746
0.0706352
-0.252466
0.0551805
0.621813
-1.85575
1.85575
-0.0456995
-0.012004
0.0577035
-0.646979
1.08463
0.30713
-0.0119137
-0.788179
-0.436342
0.935737
-1.53391
-0.0308915
-1.25315
0.290795
1.22142
-1.27977
-1.20808
0.188053
0.0270216
-0.297437
0.270415
0.136695
0.516473
0.00123802
0.0189678
-0.936071
-1.21638
0.177779
1.0386
-1.39203
-0.0647659
-0.482315
-1.07777
-0.0319533
0.109495
0.164539
-0.229029
0.333577
0.0249324
0.0553425
0.371635
-0.278802
-0.362217
-0.712253
1.52746
-0.81521
0.331938
0.210119
-0.227701
0.415073
-0.187372
-0.411432
0.185408
0.426464
-0.54322
0.116757
-0.966658
1.64817
-0.976782
-1.45975
-1.6735
0.20422
-1.13555
0.0522093
1.03488
1.18548
0.155499
-1.08228
1.08485
-0.242051
-0.38123
0.292208
0.664758
0.624202
0.19879
1.98356
-0.941928
-1.00145
-0.885396
1.88684
1.14663
-0.0386358
-1.108
0.0758025
-0.059983
-0.196634
0.179239
0.14473
1.36421
-1.50894
-1.40014
1.36072
0.0394137
1.40014
-1.44998
0.217337
-0.270267
-0.648578
0.939953
0.0853156
0.294708
-0.300681
-1.68754
0.143722
1.67066
-0.767424
-0.382535
-0.0837295
0.138281
-0.441955
0.959285
0.261827
-0.0858966
0.719342
-0.731304
0.182634
-0.245104
-0.582634
-0.0662147
0.840559
-2.07595
0.511472
-0.0660676
0.433123
-0.367056
-1.04254
-0.92808
0.0855071
0.561313
0.569718
-0.899886
0.0933348
-0.100238
-0.329483
0.103302
-1.99701
1.00165
-0.00432553
-0.0533387
-0.258659
-0.0782452
0.215966
0.304325
-1.40403
0.810301
-1.48342
0.673117
0.0596924
0.251298
-0.310991
0.131024
0.176116
-0.98302
1.27381
0.640358
0.375199
1.29914
-1.22237
0.188808
0.0413121
1.62884
-1.89502
0.266183
-0.295672
-0.250092
-0.797897
-0.0685206
0.377095
-0.451099
-0.053684
-0.0515419
-1.04936
-0.164674
-0.00131143
0.165985
-1.51043
0.193088
1.31734
-0.0598673
-0.0178808
0.0360631
-0.0757385
0.0396753
1.22146
-1.19823
0.010755
-0.067927
0.621833
0.222845
-0.0854125
-0.0391011
0.245254
-0.353065
0.198548
0.648463
-0.847011
-0.433863
-0.0327016
-0.925437
-1.01373
1.93917
-0.191218
-0.395732
0.834528
-0.959743
1.68123
0.249188
-0.284948
0.0578927
0.0476126
-0.158145
2.04955
-1.01235
-1.27531
0.777364
-0.564085
-0.506325
1.49879
0.169106
-0.271396
0.0739951
-0.0750414
0.112876
0.0870913
-0.299559
0.194063
-0.202028
-0.420998
0.191969
1.03442
-0.201553
0.123307
0.289573
-0.0499663
0.038462
-0.423264
0.00748115
0.49455
-0.773352
0.213121
-0.243783
0.0306619
-0.267121
0.119469
0.215232
0.888359
-1.10359
-0.25014
0.122682
0.417039
-0.643164
1.40544
-0.880335
1.01901
0.901903
0.0262798
0.563906
-1.0138
0.355226
-0.43411
-0.301009
1.05723
0.916964
-1.56141
1.56141
1.77233
-0.829428
1.09742
0.0145696
1.46623
-1.4808
0.93822
1.00622
0.913511
-1.96094
0.186302
-1.18214
-1.3657
-0.184934
-1.42896
1.6139
-0.411134
-0.118131
0.0755757
0.780839
0.170165
-0.276428
-0.974418
1.72317
-0.748757
-0.180574
0.275246
-0.00978949
0.51051
0.730575
2.23321
-0.883805
-1.34941
1.62896
-1.49624
1.13958
0.230516
0.0871523
-0.000945459
0.0291215
1.55349
0.579751
1.05033
0.832713
0.0213675
0.200182
-0.22155
-0.353978
0.21999
0.184335
-0.196681
0.0123464
0.164209
-0.220739
0.0565308
0.487963
-0.443457
0.339653
-0.483564
-0.44204
0.645032
0.0312074
-0.0514315
0.0207719
-0.632586
0.611315
0.0212703
0.0886532
-0.083082
-0.00557118
1.81127
-1.53022
-0.357781
0.382153
-0.0243724
-1.54517
-0.345098
0.269279
-0.958655
1.89688
0.26228
-0.332319
1.96652
-1.05301
0.250976
-0.317229
-0.159059
-0.364374
-1.32458
-0.0879814
1.65187
1.29728
-1.06432
-0.103121
0.150828
-0.0568659
-1.51823
-0.298048
0.294056
0.249327
-0.37317
-0.36986
0.292979
-0.0874698
-1.33333
1.28238
-1.44885
1.49708
-1.15882
-0.478203
0.431343
0.662887
0.390379
-0.399875
-0.0664698
0.0605564
0.351731
-0.412288
-0.377896
1.44771
-0.986415
-0.981578
-1.94289
-0.0842984
0.0806267
0.00367172
-0.0264879
1.47045
-1.44396
0.883729