/*--------------------------------*- C++ -*----------------------------------*\
| =========                 |                                                 |
| \\      /  F ield         | OpenFOAM: The Open Source CFD Toolbox           |
|  \\    /   O peration     | Version:  2306                                  |
|   \\  /    A nd           | Website:  www.openfoam.com                      |
|    \\/     M anipulation  |                                                 |
\*---------------------------------------------------------------------------*/
FoamFile
{
    version     2.0;
    format      ascii;
    arch        "LSB;label=32;scalar=64";
    class       volVectorField;
    location    "3.1";
    object      U;
}
// * * * * * * * * * * * * * * * * * * * * * * * * * * * * * * * * * * * * * //

dimensions      [0 1 -1 0 0 0 0];

internalField   nonuniform List<vector> 
5098
(
(2.65911 0.851248 0)
(2.20427 0.00728012 -3.5297e-20)
(2.19141 0.109361 -2.71687e-21)
(1.58924 -0.717074 7.34642e-19)
(1.87736 -0.404005 0)
(0.9228 -0.44755 0)
(2.28794 -0.000904097 1.62239e-20)
(2.16379 -0.15225 8.77509e-22)
(2.36209 0.0569969 -6.02273e-20)
(2.14395 -0.36394 8.25755e-20)
(1.44906 -0.734768 0)
(2.26675 -0.0426643 1.60309e-19)
(2.54178 -0.419166 -8.84254e-21)
(0.98196 -0.478026 0)
(1.91517 -0.139465 5.08702e-20)
(1.95238 0.0101837 1.19947e-21)
(1.20178 -0.597954 -5.7633e-20)
(1.26748 -0.758107 0)
(-0.505084 -0.108976 5.6053e-19)
(1.06526 -0.527154 6.5068e-20)
(1.84317 0.505069 -7.14209e-20)
(1.92837 0.0273128 4.4244e-21)
(2.15049 -0.837376 0)
(0.815041 -0.00977734 2.81142e-20)
(0.623294 -0.360385 0)
(1.53002 -0.630331 0)
(1.94281 -0.0316292 1.19267e-19)
(1.9117 -0.814124 1.93415e-19)
(-0.21415 0.338624 -1.6905e-18)
(1.74496 -0.765248 0)
(2.42742 -0.157683 -1.07386e-19)
(0.751198 -0.36478 0)
(1.93031 0.025458 -1.35948e-19)
(1.44117 -0.714245 0)
(2.44939 0.234105 -3.81137e-20)
(3.25602 -0.365437 1.30395e-18)
(1.92303 -0.494105 1.41962e-19)
(1.97161 -0.0264734 -3.86428e-21)
(1.39416 -0.456279 5.37752e-19)
(1.43031 -0.664234 0)
(1.59791 -0.729858 -3.45955e-19)
(1.7023 -1.62717 -3.22267e-19)
(1.54486 -0.635879 0)
(2.63133 0.266124 4.01208e-20)
(2.40672 0.571644 4.19688e-20)
(2.04781 0.0115753 6.46899e-21)
(1.28443 -0.622384 2.12765e-20)
(1.13641 -0.397532 0)
(2.45942 -0.196777 0)
(1.58949 -0.684488 7.83029e-20)
(2.21259 0.212159 4.38781e-20)
(1.66401 0.434835 -4.40208e-19)
(-1.16185 0.439773 -2.72375e-20)
(2.13803 -0.0920536 1.72846e-19)
(0.988013 -0.496182 -3.27582e-19)
(1.61527 0.120427 0)
(1.90687 0.267967 -2.34918e-19)
(1.69172 -0.695398 0)
(0.889484 -0.437607 0)
(1.95571 0.0312464 -9.47842e-21)
(1.69982 0.31046 2.17642e-21)
(0.614112 -0.293864 -6.93208e-20)
(2.4625 0.310159 0)
(2.5097 -0.408997 0)
(-1.22303 0.312929 1.22191e-18)
(0.846239 -0.424218 4.09977e-19)
(2.05685 0.0597625 5.18704e-21)
(2.3343 0.151373 7.56899e-21)
(2.12558 -0.266793 1.7369e-19)
(1.73374 -0.728298 2.2942e-19)
(1.88457 0.228437 1.41109e-20)
(1.34664 -0.482014 -2.47322e-20)
(1.98027 -0.828111 0)
(1.43468 -0.609527 0)
(1.81278 0.050788 1.30258e-21)
(1.15973 -0.568598 -3.75163e-19)
(1.87935 0.201184 0)
(1.53226 0.194572 4.13538e-19)
(2.78164 -0.0804718 3.14499e-20)
(1.64849 0.135752 0)
(1.78797 -0.0394625 0)
(2.64374 -1.49563 3.34506e-19)
(1.7496 -0.322715 5.02591e-19)
(1.49016 -0.713746 -9.08654e-21)
(1.26181 -0.809341 4.12654e-20)
(1.57904 -0.69538 1.90912e-19)
(0.144416 0.199228 -2.58309e-19)
(1.897 0.149958 -1.70442e-22)
(2.31564 -0.23062 4.00181e-20)
(1.70912 0.270771 -1.22872e-20)
(2.31518 -0.272789 -7.54879e-21)
(-2.24483 1.47501 1.22573e-18)
(2.44165 -0.0626701 -1.96382e-19)
(1.60686 -0.702668 -3.91752e-19)
(1.37965 -0.485347 9.49217e-20)
(1.33743 -0.659918 5.32063e-20)
(1.07874 -0.541236 -3.15272e-19)
(1.49097 0.245075 3.05063e-19)
(1.78528 0.106125 -3.34128e-21)
(2.07503 -0.507914 -1.16951e-19)
(1.75119 -0.687898 -4.67187e-20)
(1.0436 -0.51637 -3.88664e-19)
(-0.0407358 -0.111012 -1.43165e-20)
(2.1202 0.125291 -2.07433e-20)
(1.55427 0.180282 -4.70091e-19)
(2.48409 1.00629 0)
(1.92381 0.244846 2.49608e-19)
(2.16927 0.0849916 9.77174e-21)
(1.08691 -0.448122 7.32624e-20)
(1.43843 -0.736222 0)
(1.08486 -0.522316 -8.44314e-19)
(2.05737 0.713668 8.30047e-19)
(1.92031 0.0297814 -2.53155e-19)
(-2.30134 1.04872 2.68637e-19)
(1.82166 0.611295 1.01598e-19)
(0.428071 -0.202661 0)
(2.41547 -1.38501 4.91489e-19)
(2.77226 1.25547 0)
(2.00977 0.0988631 1.54902e-20)
(0.849197 -0.056271 -4.32183e-19)
(1.70733 0.440425 3.61471e-19)
(1.66441 1.89138 -6.65304e-20)
(2.15969 -0.429524 -5.08323e-20)
(1.22891 -2.01909 -4.02452e-19)
(-2.0691 1.42855 -1.83953e-18)
(0.555897 -0.27322 7.45957e-21)
(2.15972 -0.058361 1.43226e-19)
(2.1306 -0.803289 -2.28884e-19)
(1.43379 -0.177416 -1.12871e-19)
(-2.42172 1.1609 -5.43808e-19)
(0.621522 -1.15469 -1.48483e-19)
(1.17505 -0.520822 -5.40332e-19)
(1.20486 -0.518677 4.52488e-19)
(2.64413 1.32281 -1.36302e-19)
(1.59582 -0.644954 -1.22262e-19)
(2.25059 -0.557151 1.82921e-19)
(2.09985 2.39214 5.96291e-19)
(1.91719 0.246293 1.69165e-19)
(0.90868 -0.446211 0)
(2.11979 -0.134175 -5.52703e-19)
(1.66117 0.517149 -2.92571e-19)
(1.33173 -0.317585 3.15494e-20)
(1.81027 -0.824749 3.69571e-19)
(2.28304 0.0296062 -1.4971e-20)
(2.01953 0.0200841 -4.21192e-20)
(2.04683 0.0947532 0)
(2.1183 -0.267205 1.81217e-19)
(1.7757 -0.416827 0)
(2.4035 -0.153699 2.52451e-19)
(1.68949 -0.775717 1.38875e-19)
(1.9532 -1.19525 -1.39041e-19)
(2.64457 0.507991 0)
(1.80407 -0.452727 4.42825e-20)
(2.02639 -0.0187281 0)
(0.132654 0.109063 -3.23756e-19)
(0.875231 -0.352046 -1.79333e-19)
(1.68885 -0.683353 -4.1128e-19)
(1.73913 -0.641669 -3.37833e-20)
(1.54228 -0.72191 -2.83091e-19)
(-0.361227 0.039634 1.70688e-18)
(1.99492 -0.477647 -3.88021e-19)
(1.89191 -0.180814 -7.03487e-20)
(2.26576 0.299628 -4.93327e-19)
(1.83413 -0.211558 -3.11837e-19)
(1.13794 -0.69845 -3.7445e-20)
(2.51609 -0.112039 -1.03923e-19)
(1.82331 -0.4564 -1.45555e-19)
(2.38584 -0.584923 0)
(0.725991 -0.457699 5.20264e-20)
(1.74757 -0.572676 -4.49442e-19)
(1.34104 -0.610978 -3.6779e-20)
(1.59345 -0.660362 -2.66823e-19)
(2.23201 0.459596 8.78594e-20)
(1.90739 -0.785526 3.45315e-19)
(2.49915 0.0541047 0)
(1.93555 -0.00196632 0)
(1.75031 -0.311847 -1.94711e-19)
(3.15391 -0.327287 -6.6492e-20)
(1.80359 -0.184465 4.28605e-19)
(0.333948 0.0458323 0)
(1.95809 2.36286 0)
(2.39688 -1.1239 -4.01081e-19)
(1.81637 -0.561232 5.51289e-19)
(1.11221 -0.667308 0)
(1.90334 -0.216936 0)
(2.67754 0.626511 5.19652e-19)
(1.51015 0.297301 0)
(1.94107 -0.479552 4.889e-19)
(1.0193 -0.498855 7.28444e-19)
(-0.588906 -0.822218 -5.52509e-19)
(2.35348 0.904183 0)
(1.64449 -0.219427 1.07831e-19)
(2.00253 -0.844566 0)
(1.75483 0.0887156 9.37286e-22)
(2.49933 -0.129677 1.1445e-20)
(-2.37073 1.4279 -1.29149e-18)
(2.87979 -1.12121 3.20884e-19)
(2.29598 -0.643127 0)
(2.0048 -0.0189506 -3.87327e-21)
(1.77616 -0.550516 -8.13881e-20)
(0.362495 -0.955441 -2.80085e-19)
(1.66749 0.35738 5.50622e-21)
(2.38421 0.608174 6.6258e-21)
(2.21184 0.002012 4.14471e-21)
(1.61978 -0.0111437 1.94969e-19)
(0.840373 -0.353835 -1.2829e-19)
(2.49929 -0.0431748 -1.33288e-20)
(1.23953 -0.570807 0)
(2.21114 -0.00448551 0)
(1.30349 -0.633234 -3.83007e-19)
(1.99958 -0.18025 -1.58576e-19)
(1.70557 0.315884 2.94628e-19)
(1.73184 -0.269036 -1.09008e-19)
(2.05101 0.0940205 -1.34613e-19)
(2.07656 -0.0719679 -1.34553e-19)
(1.11879 0.227118 -4.55022e-19)
(1.81082 0.0673946 0)
(1.40293 -0.739237 -7.68914e-20)
(-2.21954 1.67188 2.43109e-19)
(1.96423 -0.0281501 1.07019e-19)
(2.36432 -0.277421 -2.82063e-20)
(1.62682 -0.341238 0)
(2.01197 0.0135124 1.38082e-20)
(2.346 -0.302364 1.44953e-19)
(-2.16518 0.869625 2.74861e-19)
(2.08295 -0.197175 0)
(0.450125 -0.128869 0)
(1.98014 0.0298669 0)
(2.02845 -0.512204 0)
(1.76971 -0.703367 4.19423e-21)
(1.85006 0.409241 0)
(0.643578 -0.27981 -4.68805e-19)
(2.70163 -1.10216 -3.04377e-19)
(2.07564 -0.0215095 -3.47122e-21)
(2.49503 -0.0300942 -6.68116e-20)
(2.33146 -0.00328207 0)
(1.52942 1.41186 -1.47569e-19)
(-0.252254 -1.29641 -1.28505e-18)
(2.65607 -0.47599 0)
(1.83874 0.0168717 3.0897e-19)
(2.54467 -1.81006 -1.14631e-18)
(2.30252 0.436511 0)
(2.14367 0.0524074 0)
(1.06735 -0.263626 7.90759e-19)
(1.81788 0.481985 -3.69433e-19)
(2.3572 -0.119425 -1.81935e-19)
(1.10458 -0.527265 8.75585e-20)
(1.42036 -0.729661 -5.55924e-20)
(1.38726 -0.681411 0)
(2.27938 -0.160569 5.46002e-20)
(2.26838 0.687079 -4.83799e-20)
(1.91614 -0.810466 3.56582e-19)
(-0.330159 0.665495 7.87752e-19)
(0.0196856 -1.18627 3.21658e-19)
(1.98008 0.0342387 -2.2696e-19)
(-0.0053903 -1.62175 1.28121e-18)
(1.64444 -0.60534 1.06645e-19)
(1.37197 -0.460022 -3.52439e-20)
(1.16851 -0.417803 -3.31774e-19)
(1.91455 0.010215 -1.84e-21)
(2.67866 0.592713 7.60133e-20)
(-1.48695 0.473566 7.02487e-19)
(0.486611 -0.307925 9.08834e-20)
(1.92899 -0.837938 0)
(1.9907 -0.0210531 -1.11343e-21)
(1.06346 -0.500566 2.39696e-20)
(-0.210081 0.0051177 -1.99262e-18)
(1.41412 -0.753304 0)
(1.2192 -0.770849 0)
(1.82292 0.0123348 -2.87716e-20)
(-0.922817 -0.406881 6.80064e-19)
(1.92754 0.0497693 -1.57205e-20)
(-0.0721705 0.07999 -9.06547e-19)
(1.81498 -1.04265 0)
(1.18411 -0.477998 2.30502e-21)
(0.251139 -0.222411 9.55914e-21)
(1.62146 -1.51569 -2.45203e-19)
(1.9902 -1.0293 0)
(2.28556 -0.735771 0)
(1.96796 -0.168626 0)
(0.642216 -1.05252 -8.71032e-20)
(2.12962 -0.133638 9.63891e-20)
(-2.11386 0.782767 -1.1026e-18)
(2.13158 -0.0786128 -1.07074e-19)
(2.05687 -0.549209 -2.95983e-20)
(1.03373 -0.603491 0)
(1.97184 0.0399217 0)
(2.08292 0.116591 -5.98792e-20)
(2.47493 -0.0970341 8.37125e-20)
(1.87373 0.0174501 -2.48455e-19)
(1.56759 -2.04245 0)
(-0.184114 1.72215 1.09506e-18)
(1.09225 -0.0519343 -2.32034e-19)
(2.39321 0.398102 3.52447e-20)
(1.98686 -0.644167 3.72417e-19)
(1.53632 -0.349053 -3.96724e-20)
(2.42233 0.0629969 0)
(2.48721 -0.149328 -9.46962e-20)
(2.03525 0.048471 0)
(1.96527 0.111318 -1.44977e-19)
(2.08066 0.113058 4.88034e-20)
(2.44653 0.0504121 8.87613e-20)
(1.627 -0.430128 5.21948e-19)
(1.83508 0.417278 2.07544e-19)
(0.915054 -0.434655 -3.81739e-20)
(1.83918 -0.751202 -2.18829e-19)
(2.63396 1.76601 -1.58952e-19)
(2.03587 0.0125844 0)
(1.85695 -0.466369 0)
(1.381 -0.669178 0)
(2.32723 -0.273043 3.67131e-20)
(-0.470906 1.27434 7.87935e-20)
(0.847306 -0.422541 4.30435e-19)
(1.91783 -0.00321942 -1.35666e-20)
(2.58686 -0.424308 -3.44344e-20)
(0.207434 0.034573 6.35417e-19)
(1.99014 2.26621 -6.51227e-20)
(2.17379 0.0648439 -1.32025e-20)
(2.25375 -0.13276 5.17173e-19)
(0.919462 -0.397067 0)
(2.76207 -0.0501028 -3.05918e-20)
(-0.160611 2.04001 -2.05126e-18)
(2.62784 -0.342618 -3.56283e-19)
(-1.62195 1.61375 -4.21541e-20)
(1.86167 0.142053 -1.59481e-21)
(1.37709 -0.428735 3.61873e-19)
(2.19892 0.710827 0)
(1.94791 0.0607629 -8.65191e-20)
(1.09409 -0.451554 -7.74595e-19)
(1.99311 0.0968883 -1.41354e-20)
(1.30482 -0.632917 0)
(2.21975 -0.128485 -1.51786e-19)
(1.06401 -0.514391 2.43581e-19)
(2.32709 -0.732007 -1.04186e-19)
(1.76139 -0.736781 -3.10438e-19)
(2.33663 0.10782 -4.76563e-20)
(2.43259 -0.356405 8.95061e-21)
(0.973308 -0.482598 4.7487e-19)
(2.14637 -0.0570055 2.28094e-19)
(1.88938 -0.414658 0)
(1.82981 -0.835404 -3.49727e-19)
(1.71455 -0.730924 -9.38137e-19)
(2.68459 -0.147954 1.76491e-20)
(2.00747 0.0537397 3.67207e-20)
(2.60815 1.42767 0)
(1.83455 0.100282 0)
(2.04959 -0.0889379 -1.75993e-19)
(0.944313 0.556291 4.08281e-19)
(2.78865 1.16881 0)
(2.43444 -0.108957 1.40639e-19)
(1.5629 -0.694009 -4.08691e-21)
(0.925023 0.333822 -5.68046e-19)
(0.907107 -0.397224 -4.13975e-19)
(0.459053 -0.96623 9.40427e-20)
(1.8813 0.0109945 1.19503e-20)
(0.598988 -0.858632 2.55901e-19)
(2.19304 -0.546255 -1.50498e-19)
(2.27254 0.0860436 0)
(1.45446 -0.13816 -9.7245e-20)
(1.23439 -0.336178 0)
(2.01722 0.115551 -4.21364e-19)
(2.0321 -0.481785 0)
(2.27857 -0.0231077 -1.4659e-19)
(1.93579 0.145847 -1.39679e-20)
(2.65469 0.229458 -3.21964e-20)
(1.15738 -0.454269 4.37712e-19)
(1.91861 0.0431119 -3.45138e-19)
(2.04758 0.219849 -3.47978e-19)
(2.02379 -0.870144 0)
(0.0971505 -1.73141 0)
(1.23615 -0.49035 -4.31775e-19)
(2.74064 0.19819 0)
(3.30522 0.169521 -8.94932e-19)
(1.80372 0.231638 0)
(1.3378 -0.470361 3.31098e-20)
(0.799857 -0.37792 6.12031e-20)
(1.79646 -0.579171 6.55834e-19)
(0.98277 -0.368205 -2.50895e-20)
(2.36734 -0.555759 0)
(1.94931 0.108085 1.21361e-20)
(1.94153 -0.019314 -2.22757e-19)
(0.590592 -0.296603 -8.51693e-21)
(1.95552 0.0574452 -1.94166e-19)
(2.41895 -0.00488884 -6.21908e-20)
(2.41403 0.178417 -4.14345e-20)
(3.17669 0.700553 3.52366e-19)
(2.41978 0.34355 -5.87428e-20)
(-0.132993 -1.48135 -1.77661e-19)
(1.72935 -0.527311 0)
(0.0239393 -0.130989 9.2368e-21)
(2.01812 0.0752697 -1.49073e-19)
(2.59897 -0.194139 0)
(1.99964 0.0444479 1.3009e-19)
(1.15826 -0.559194 -3.17284e-19)
(1.70521 1.20241 1.28552e-19)
(3.48154 -1.1006 0)
(1.41482 -0.674049 1.15453e-19)
(3.54952 -0.887845 0)
(2.13088 0.0813968 3.24749e-20)
(2.10201 -0.0427724 -7.34943e-20)
(0.678552 0.357451 1.00293e-18)
(1.05887 -0.0771751 0)
(1.56794 0.275832 2.10093e-19)
(1.92649 0.0350387 1.34206e-19)
(0.520739 -0.244487 0)
(1.74624 0.0109831 0)
(2.05485 -0.213009 0)
(0.157478 -0.0747776 7.89505e-20)
(0.551506 -0.112978 -2.92848e-20)
(2.36293 -0.182022 0)
(1.96145 0.0300778 0)
(1.51789 -0.445483 5.1762e-20)
(-1.31799 -0.0210754 0)
(2.35918 0.368278 4.35024e-21)
(2.93173 1.00131 1.97769e-19)
(2.02759 0.0577554 9.33336e-21)
(1.82515 0.367704 -5.54285e-21)
(0.932389 0.420691 6.53306e-19)
(2.98636 1.20305 -2.1296e-19)
(2.4296 -0.222953 6.69938e-21)
(2.02995 -0.046874 1.47233e-19)
(1.62201 -0.163316 -2.34926e-19)
(1.96318 0.983028 -1.08736e-20)
(2.02359 0.0523378 0)
(0.693012 -0.926461 -2.47385e-19)
(-2.32909 1.44118 0)
(1.24616 -0.594596 2.83516e-22)
(1.70913 -0.358762 0)
(2.85258 0.39481 0)
(1.30587 -0.624781 -2.60725e-19)
(2.08333 0.0481821 -6.16899e-21)
(-0.339836 0.356522 -1.81238e-18)
(2.07198 -0.0106088 4.96614e-21)
(1.84505 -0.721897 3.5328e-19)
(3.06921 0.86776 2.27214e-19)
(-1.79062 1.99667 1.91351e-18)
(2.04563 0.00955128 3.1588e-20)
(2.11041 -0.849999 1.32013e-19)
(1.94584 0.0550099 -2.36521e-19)
(3.82892 -1.34193 0)
(1.82673 -0.140531 -4.45636e-19)
(1.83507 -0.499741 3.64642e-19)
(1.99638 0.0950543 -5.10961e-19)
(0.878 -0.445128 -4.69104e-20)
(1.62248 1.20166 -1.27975e-19)
(2.91706 1.10344 3.01912e-19)
(2.5483 -0.549124 0)
(1.91812 -0.104038 0)
(1.42254 0.671223 -7.35781e-19)
(2.11572 -0.127467 9.33252e-20)
(1.42267 -0.687856 0)
(2.32232 -0.113752 -1.28584e-19)
(2.01621 -0.00987153 -2.81904e-19)
(1.18236 -0.609338 -2.94378e-20)
(1.4841 -0.724724 1.17737e-19)
(2.47425 0.186529 -3.67385e-21)
(1.56468 -1.64818 1.71724e-20)
(2.41151 -0.359163 -2.80992e-19)
(1.98184 -0.494175 2.54392e-19)
(3.35665 0.666329 7.85983e-19)
(1.55869 -0.653595 3.38119e-19)
(1.98734 0.0640536 -1.20629e-21)
(1.00209 0.263438 4.7605e-19)
(2.13462 2.10669 0)
(1.74173 -0.501421 2.12066e-19)
(1.35334 -0.745323 0)
(-2.26441 0.758131 -3.37341e-18)
(2.02465 -1.56858 0)
(0.60745 -0.273968 -1.50796e-19)
(1.65558 -0.710817 -4.74979e-19)
(2.80742 0.68175 -3.76974e-19)
(2.08707 -0.859037 0)
(1.48045 -0.652819 0)
(2.57524 -0.45104 0)
(2.01138 0.0927784 1.09915e-19)
(3.61417 -1.14537 -2.37016e-18)
(0.0162277 0.00380622 1.35289e-18)
(1.60986 -0.326036 -7.70768e-21)
(3.4611 0.668049 -8.57108e-19)
(2.10738 0.308602 0)
(1.26394 1.91622 2.15118e-19)
(2.54123 1.21053 1.34277e-19)
(2.53188 -0.630721 -6.20026e-19)
(1.56706 -0.731723 2.9325e-19)
(2.92961 0.229868 -3.27436e-21)
(1.17364 -0.57083 5.32023e-19)
(2.2704 0.388535 0)
(2.03129 -0.0968908 6.98478e-20)
(1.49911 -0.517357 2.54676e-20)
(1.9028 -0.0385446 2.87778e-20)
(3.28704 0.365831 -4.64363e-19)
(1.72396 -0.40066 0)
(2.49858 0.686283 0)
(3.30992 -1.46001 0)
(-2.07165 1.55985 0)
(1.92345 0.0148222 0)
(1.45284 -0.547742 1.45462e-19)
(3.77822 0.44298 6.40221e-19)
(1.48914 -0.629467 4.02357e-19)
(1.97425 0.0332448 2.37424e-19)
(1.29004 -0.744332 0)
(2.0803 -0.873637 2.73494e-21)
(-0.553201 -0.381933 0)
(1.31027 -0.802172 -7.56107e-20)
(-0.5843 -0.0321108 7.45477e-19)
(4.05952 0.195635 -4.07128e-19)
(1.96721 0.128261 2.53602e-19)
(1.99257 0.32453 -8.27397e-20)
(3.37962 -0.702213 -3.91185e-19)
(2.33084 -0.0428188 0)
(-1.9406 1.65186 1.74277e-18)
(2.02265 -0.0242184 0)
(1.56095 0.837317 1.68526e-20)
(2.50882 -0.0796964 0)
(2.07533 0.161845 -1.05112e-19)
(2.08313 -0.0806351 0)
(0.960823 -0.377916 -2.9214e-19)
(-0.546457 -0.197341 5.17591e-19)
(1.99354 -0.0393799 -8.98935e-20)
(1.40409 0.3132 4.23512e-19)
(0.28449 -0.139061 -1.61713e-19)
(1.84267 -0.371586 0)
(1.04137 -0.233475 -1.11897e-18)
(1.99866 0.0874525 6.39644e-21)
(3.78472 -0.239104 -1.26856e-18)
(1.88859 0.0189241 4.29202e-21)
(2.5022 -1.13021 7.18746e-19)
(3.83331 0.394114 0)
(1.79812 -0.810331 -7.56192e-20)
(1.47205 -0.671291 0)
(2.60879 -0.165723 1.12738e-20)
(0.50402 -0.159429 7.17864e-20)
(1.04132 -0.880959 0)
(2.37357 0.291099 0)
(1.62166 -0.654023 -7.28865e-20)
(2.45228 0.666653 0)
(1.78257 1.72394 6.48067e-20)
(2.97233 0.722776 -3.53802e-19)
(-2.43321 1.14082 -1.05369e-18)
(1.42641 -0.700108 -4.84192e-20)
(1.93842 0.0933545 -7.05662e-21)
(1.08439 -0.638228 -4.65659e-22)
(-0.813928 0.081328 -3.89602e-19)
(1.87226 -0.0290293 4.74716e-19)
(1.10815 -0.560732 3.34275e-20)
(0.441093 -0.207679 0)
(2.34556 0.150488 -6.91915e-20)
(1.54099 -0.670493 9.43679e-20)
(0.44982 0.178996 7.77827e-20)
(3.60491 -0.0317298 9.44948e-19)
(2.90063 1.4983 0)
(1.83461 -0.527341 -3.66297e-19)
(1.9623 0.316498 1.30322e-21)
(3.4668 0.522552 -1.00136e-19)
(2.51358 -0.116081 -2.46501e-19)
(1.4745 -0.732706 3.03442e-20)
(0.840042 -1.20381 1.94346e-19)
(1.50231 -0.61696 -9.70829e-20)
(1.47236 -0.726518 1.40263e-21)
(2.41216 -0.219235 -2.10735e-19)
(1.46118 -0.738618 -3.39948e-20)
(1.79668 -0.346732 0)
(1.90951 -0.165444 -4.34171e-19)
(0.157577 1.83738 0)
(1.37526 -0.707322 -2.93753e-20)
(1.31952 1.08263 2.68143e-19)
(-1.01777 1.71797 1.16499e-18)
(1.99241 0.108682 -3.88244e-21)
(0.545627 -0.295903 9.69531e-21)
(-0.721569 1.20911 0)
(2.20935 -0.818545 3.49438e-19)
(2.18848 -0.861182 8.36696e-20)
(-0.64409 1.81419 -9.6894e-19)
(1.80301 0.504089 0)
(1.73162 0.477942 0)
(0.245336 0.291401 0)
(1.51719 -0.518708 -3.34655e-20)
(1.90045 -0.0233642 -4.23969e-19)
(1.39295 0.123622 0)
(1.77633 -0.718378 0)
(2.24559 0.167195 -8.79671e-21)
(1.87374 -1.1398 5.45983e-21)
(2.08738 0.118084 -3.06754e-19)
(1.6759 -0.384084 -4.14857e-20)
(1.79693 0.0294592 4.69531e-20)
(1.97032 0.0569645 -1.2283e-20)
(1.97617 0.115854 -2.19351e-20)
(1.98615 0.485099 -2.35342e-20)
(1.95328 1.16763 0)
(-0.63773 0.0180862 3.28535e-20)
(-1.45687 1.58504 0)
(1.03208 0.137653 0)
(2.78349 0.0172983 -4.19613e-19)
(1.16847 -0.782549 0)
(2.44663 0.336006 0)
(1.94667 -0.153146 6.68207e-19)
(1.89752 -0.837656 0)
(1.97922 0.122995 3.61217e-19)
(3.3696 0.164035 4.62623e-19)
(3.16436 0.265909 1.55058e-19)
(1.98701 0.109627 1.53926e-21)
(1.19184 1.27545 2.3723e-19)
(2.22801 -0.856845 4.02436e-21)
(1.99425 -0.793824 -6.28655e-21)
(1.20978 -0.469513 4.2182e-19)
(1.14801 -0.657991 0)
(0.973592 -0.480854 0)
(0.949523 -0.577159 -1.21945e-19)
(-0.452928 -0.212692 -6.85719e-19)
(1.46733 -0.674136 0)
(1.1237 -0.618642 5.94805e-20)
(-0.96945 0.210537 0)
(-1.83041 1.90798 1.88292e-18)
(1.16203 -0.537388 -5.46891e-19)
(3.31947 -0.00953284 -2.10244e-20)
(3.10022 0.475308 3.72927e-19)
(1.25826 -0.427279 8.53677e-20)
(2.36208 -0.131274 1.12059e-19)
(2.4101 0.891942 0)
(2.53019 0.784883 0)
(1.10052 0.010859 0)
(0.132731 -0.0134506 -7.56122e-19)
(1.45298 -0.557377 0)
(2.37833 0.546125 0)
(2.01756 -0.0229386 0)
(2.48922 -0.389651 -5.59539e-20)
(-2.07747 1.0767 5.76364e-19)
(2.05423 -0.798529 -1.91629e-19)
(1.48532 -0.532591 8.40926e-20)
(1.779 0.322787 0)
(0.990611 -1.02999 0)
(1.98656 -0.611971 -3.39732e-19)
(1.61454 0.5124 6.2523e-19)
(0.582275 -0.421497 -7.98897e-20)
(2.106 0.161254 -9.24661e-21)
(1.77354 -0.477398 3.88457e-19)
(1.00912 0.449419 -1.02516e-18)
(-0.603737 -0.349384 0)
(1.2569 1.28758 -5.58646e-19)
(0.425864 0.325077 -6.44028e-19)
(3.13907 0.0595832 0)
(2.3467 -0.098899 0)
(1.76884 0.0011497 0)
(2.02591 0.035576 -4.19573e-19)
(1.45754 0.241348 -4.3372e-19)
(1.67406 0.10255 0)
(3.56991 1.29445 1.77989e-18)
(1.83459 -0.82252 3.54544e-19)
(2.51685 -0.355274 6.83913e-20)
(1.072 -0.519171 4.86085e-20)
(2.05426 -0.29758 0)
(2.4499 0.129259 4.63704e-20)
(1.80649 -0.438861 0)
(1.51738 -0.68707 -9.17692e-20)
(1.77451 -0.806198 0)
(2.15313 -0.78405 4.22942e-19)
(1.53395 -0.318262 -5.19177e-22)
(2.03218 0.0636413 -1.11605e-20)
(2.50063 -0.368725 0)
(1.85968 -0.798924 0)
(1.63085 -0.699327 -4.96068e-19)
(2.31399 0.352044 -4.80441e-21)
(1.36408 -0.77652 3.77507e-20)
(0.890188 -0.427047 4.28095e-19)
(1.93105 -0.0610011 0)
(1.59288 0.207984 -6.58314e-19)
(2.23183 -0.00838905 -4.74709e-20)
(1.53816 -0.497593 -3.52369e-20)
(2.03572 0.0777448 -1.55794e-20)
(2.0533 0.0973924 0)
(1.21859 -0.361368 5.9998e-19)
(0.980346 0.18516 -6.56251e-19)
(3.69941 0.331903 1.01912e-20)
(1.83537 0.250087 -7.38723e-19)
(1.11389 -0.530176 4.35359e-20)
(0.873522 0.401963 -1.63468e-18)
(1.64991 -0.304718 4.27416e-22)
(2.06528 -0.00120839 -3.91886e-20)
(2.13126 0.317574 1.51026e-18)
(-0.545291 0.0592832 1.33112e-20)
(1.26181 -0.637938 8.02892e-20)
(1.32954 -0.782816 7.91557e-20)
(1.78525 0.0165963 1.48224e-20)
(2.4029 -0.200141 0)
(4.11565 -1.04373 2.17408e-18)
(1.17429 -0.572099 2.40478e-19)
(1.70161 -0.263255 2.32091e-19)
(-0.787871 -0.103794 0)
(1.66243 -0.390039 -6.23603e-20)
(1.99473 0.00147298 1.83424e-21)
(1.91353 0.08517 0)
(-1.34513 0.110063 4.84103e-19)
(1.4934 -0.80445 2.49953e-20)
(1.8231 0.229126 0)
(1.09267 -0.42183 0)
(1.59199 -0.464649 -5.00704e-20)
(1.59782 -0.55519 -1.09572e-20)
(2.73364 0.0102786 1.49383e-19)
(0.349145 -0.270458 0)
(2.03463 0.0804516 -3.73582e-19)
(1.97385 -0.394778 -4.77819e-20)
(2.21952 -0.757015 2.41766e-20)
(1.26306 -0.487973 5.30695e-19)
(1.23281 -0.705722 -6.58891e-20)
(1.23073 -0.847599 5.02834e-20)
(3.62561 0.24762 -8.82613e-21)
(1.91089 -0.978345 0)
(2.74524 0.737675 -1.39877e-18)
(1.61638 -0.649045 2.48302e-19)
(2.10862 1.94525 1.843e-19)
(0.869351 0.600591 0)
(1.18394 -0.247094 -5.30281e-19)
(1.26696 -0.534732 -6.44161e-19)
(1.02194 -0.690516 8.27989e-20)
(-2.06221 1.38575 -1.83179e-18)
(2.56638 1.6352 0)
(-0.536922 -0.278041 -8.52448e-19)
(2.29176 0.39896 0)
(-0.447077 1.38292 -1.60735e-18)
(0.076474 -0.21471 1.37927e-18)
(0.0192331 -1.52731 0)
(1.09803 -0.774899 2.94071e-20)
(1.64953 -0.116259 -9.60392e-20)
(-2.40407 1.28513 6.52707e-19)
(1.71691 -0.67382 4.50335e-19)
(0.809559 -0.530413 -2.10652e-19)
(1.23388 -0.562839 0)
(2.01564 0.0489505 1.33529e-19)
(2.52789 0.357015 0)
(2.23966 0.197567 -2.84354e-21)
(-0.389253 0.240868 -1.6361e-18)
(0.6037 -0.245063 2.79587e-19)
(2.05794 0.115244 0)
(1.93437 -0.780622 -3.38215e-19)
(2.58865 -0.362473 1.0154e-19)
(1.1311 -0.892072 1.2694e-19)
(1.4905 -0.779667 0)
(1.16346 -0.853481 -1.12909e-19)
(3.57371 0.463179 -9.79313e-19)
(1.63649 0.190219 8.42313e-19)
(1.81689 -0.328914 0)
(2.08798 -0.0492937 2.17047e-19)
(0.0101653 1.03488 9.51411e-19)
(-2.20853 0.883139 -3.48887e-19)
(2.22941 -0.592539 1.31787e-19)
(1.20561 -0.567777 0)
(1.7127 -0.0916707 -1.91716e-20)
(2.00782 0.0466048 6.51197e-22)
(2.55953 -0.358141 1.06728e-19)
(2.21737 0.0578979 0)
(0.983 -1.1076 8.33922e-20)
(1.70141 -0.476206 -2.51256e-22)
(1.31954 -0.390196 6.58587e-20)
(3.2507 0.241681 0)
(2.08048 -0.815332 -1.49805e-19)
(0.937211 -0.658807 1.48091e-19)
(1.76933 -0.432504 -4.85916e-19)
(0.136835 0.217717 0)
(1.7349 -0.823531 5.04344e-20)
(2.10194 -0.791621 1.22934e-19)
(1.19262 -0.60146 -8.14453e-20)
(1.85041 0.367428 0)
(-2.23845 1.14198 2.21554e-18)
(1.59243 -0.495042 0)
(0.626191 -1.26265 2.34952e-19)
(1.67717 -0.613354 0)
(1.8716 -0.141443 -2.46572e-19)
(2.20956 -0.249594 -2.51617e-19)
(3.19489 1.11885 -9.00715e-19)
(1.49771 -0.384206 0)
(2.0414 -0.876405 -2.31602e-19)
(2.06668 0.0139012 0)
(2.3249 0.328438 0)
(2.12727 -0.876451 6.66081e-20)
(0.830495 -1.10252 8.71184e-20)
(0.628808 -0.0959876 1.75923e-19)
(2.1545 -0.571086 -7.90744e-20)
(1.68767 0.294377 2.72949e-19)
(1.21352 -0.679876 -1.10532e-20)
(2.11072 0.20414 1.43694e-19)
(-0.853944 -0.399087 -8.61381e-20)
(1.87205 -1.48008 0)
(2.36906 0.192339 0)
(-0.296744 -0.401515 0)
(1.44716 -0.719083 1.27651e-19)
(1.22409 -0.429227 -3.72708e-19)
(1.52622 0.132572 0)
(0.831182 -0.402161 1.38533e-19)
(2.33288 -0.125734 -1.75654e-19)
(1.10989 -0.525642 -5.04489e-20)
(1.43739 -0.51964 -1.2108e-19)
(2.20701 -0.879954 0)
(-2.27612 0.992608 1.75618e-18)
(-1.52589 0.251857 -1.31463e-18)
(-0.490873 -1.00631 0)
(-0.657229 -0.164286 -1.13023e-18)
(2.03004 0.0368137 2.01243e-21)
(2.51388 0.278915 6.77028e-20)
(1.98099 0.0341426 2.48701e-19)
(2.85918 0.883558 -3.85017e-19)
(2.36526 0.210821 6.25215e-21)
(0.769349 1.52672 0)
(1.98753 -0.789132 0)
(0.662416 -0.322126 1.37517e-19)
(-1.62392 1.39801 0)
(1.65196 -0.342225 -6.30548e-20)
(2.19223 -0.790734 -2.21816e-19)
(1.02543 -0.48115 4.48922e-19)
(2.01301 -0.0976632 -6.72596e-20)
(1.74933 0.355636 -2.70432e-19)
(1.5778 -0.641794 -2.44279e-19)
(1.66509 -0.661256 -4.5292e-19)
(1.57562 -0.54396 0)
(1.77201 -0.68515 4.29289e-19)
(1.97346 -0.0550819 0)
(2.55374 -0.386072 -5.39343e-21)
(2.07637 1.24083 7.8896e-21)
(1.74894 -0.821375 -6.02323e-20)
(2.25062 -0.407663 -2.13497e-19)
(-1.78443 1.71945 -1.46434e-18)
(-0.86183 -0.0663722 0)
(1.612 -0.747703 -2.90952e-20)
(1.38535 -1.45022 -1.95532e-19)
(2.09529 0.566946 -1.43477e-19)
(1.88343 -0.762976 3.95885e-19)
(2.1793 0.0210959 -3.84324e-21)
(-2.22337 1.20097 6.82536e-19)
(1.84911 -0.776939 -7.69525e-20)
(0.409052 0.0814295 0)
(1.21792 -0.577878 1.48774e-19)
(1.81373 -0.393681 2.56794e-19)
(1.99962 0.0109411 -7.53915e-23)
(1.23648 -0.538946 9.4523e-19)
(-0.498943 1.82396 -2.81861e-20)
(1.70159 0.57791 0)
(1.48614 -0.725159 -5.1683e-20)
(1.02033 -1.00038 -9.38294e-21)
(1.13316 -0.36018 -7.12047e-19)
(1.44168 -0.693359 5.66556e-20)
(3.14248 0.628836 -3.95354e-19)
(2.16095 0.578312 -6.21588e-22)
(1.01093 -0.420797 3.22413e-19)
(1.83374 -0.378607 0)
(2.38485 0.00317439 -1.22101e-19)
(2.192 0.0740562 -3.56297e-21)
(3.05239 0.584469 -3.78289e-19)
(1.59926 0.744131 0)
(3.40687 0.556302 3.69215e-20)
(-0.730323 1.29272 1.5476e-18)
(1.66656 -0.721655 9.60849e-19)
(1.76511 0.837111 1.78379e-20)
(3.16125 -0.944188 -1.23925e-18)
(-2.21727 0.904764 3.58604e-18)
(2.03791 -0.779387 3.92477e-19)
(2.09431 0.0162455 -3.60936e-21)
(-0.264151 0.682771 6.59907e-21)
(2.40327 -0.0688174 2.75168e-20)
(1.02882 0.143809 0)
(2.03835 0.0033639 0)
(2.30282 0.38854 0)
(1.82239 -0.701995 -3.72462e-19)
(1.7007 -0.636282 7.01799e-20)
(-0.34521 1.35552 0)
(1.27759 -0.387979 -1.54297e-19)
(0.502237 -1.93109 0)
(2.9694 -0.806984 0)
(0.0876152 1.71079 0)
(1.94583 0.0340477 0)
(-2.25322 1.21532 -6.9977e-19)
(-1.08714 -0.292897 0)
(2.26705 -1.15896 3.14247e-19)
(1.7088 -0.0553011 0)
(1.99371 0.0381852 0)
(1.93327 0.155214 1.16849e-21)
(-0.820339 -0.189658 0)
(1.88976 -0.828333 0)
(-0.336394 0.726974 0)
(2.22864 0.0405771 2.11533e-20)
(2.1221 0.352904 0)
(2.21672 -0.861692 -8.53122e-21)
(1.26954 0.830198 -2.47783e-20)
(-1.99735 0.766058 -4.70235e-19)
(2.01259 0.0293424 5.98866e-19)
(-0.190405 -0.00196269 -3.55305e-20)
(1.10914 0.854533 -5.42036e-19)
(1.49317 0.658527 0)
(2.44499 -0.346698 8.44061e-21)
(1.65064 -0.194612 -2.26607e-19)
(1.6468 1.60103 1.29503e-19)
(1.83986 0.351194 3.75085e-19)
(0.83861 -0.313423 -6.78119e-19)
(1.56797 -0.694485 -3.77076e-19)
(2.06141 -1.38165 4.38402e-20)
(1.55031 -0.789364 0)
(2.41702 -0.508656 -1.14578e-21)
(1.61029 -0.767034 3.43201e-20)
(2.55333 0.134764 -6.6747e-20)
(0.66942 -0.489006 0)
(1.86927 0.0535903 -2.7921e-19)
(3.19227 0.5789 -1.08436e-18)
(1.41518 -0.570468 4.88771e-19)
(1.29392 -0.586583 -5.90602e-19)
(1.71463 -0.792237 0)
(1.82485 -0.804563 0)
(2.0764 -1.07179 2.73591e-19)
(2.31211 -0.392659 -1.3351e-19)
(3.16314 -0.146945 -5.35567e-19)
(1.86863 0.0249016 7.59239e-21)
(1.25808 -0.357561 -1.43283e-19)
(1.76478 -0.528277 4.11268e-19)
(2.41047 0.230584 0)
(2.36483 0.265904 1.99369e-20)
(-1.89326 0.349249 -2.21998e-18)
(1.7676 -0.859927 1.85055e-19)
(1.08438 -0.222586 -2.90274e-20)
(-0.482742 0.495388 9.01674e-19)
(3.07215 -0.0997775 4.47223e-19)
(2.53488 0.615415 8.04442e-20)
(2.3459 0.497873 0)
(1.40841 -0.75487 0)
(2.27034 -0.862538 -1.48449e-21)
(1.19686 -0.273682 0)
(1.89329 -0.415423 1.71081e-19)
(1.66177 0.249342 4.74425e-19)
(1.70668 0.482571 -1.3746e-19)
(1.63674 -0.670662 9.81701e-19)
(2.00947 0.0579236 -3.74832e-22)
(1.79417 0.0466788 0)
(1.91748 0.0209384 -3.7386e-21)
(0.276337 1.36662 -9.24183e-19)
(2.12144 0.246595 0)
(2.64111 -0.39093 0)
(1.96424 -0.799205 1.44569e-19)
(1.94129 0.475244 1.9936e-19)
(1.1212 -0.186613 0)
(2.13678 -0.666031 7.39677e-22)
(2.303 -0.0531826 1.10282e-19)
(2.29707 0.295131 1.98326e-20)
(1.78377 0.466418 4.04124e-19)
(1.48235 -0.732542 -6.48563e-20)
(1.38462 -0.35194 0)
(-1.46719 1.86007 -3.49282e-18)
(0.557538 -0.248489 1.01375e-18)
(2.05403 -0.017427 1.59781e-20)
(-1.22903 1.71478 -1.608e-18)
(1.85888 -0.773536 2.80604e-20)
(2.50996 0.157206 1.81035e-19)
(1.85006 -1.3612 0)
(1.97071 0.142546 2.76633e-21)
(1.8407 0.0271591 8.75532e-20)
(2.25908 -0.00754107 -1.58364e-19)
(2.24168 0.514188 -9.7348e-20)
(2.24928 -0.820198 0)
(1.39529 -0.699989 0)
(2.35712 0.0113228 0)
(2.36291 0.360899 -4.57359e-20)
(1.10201 -0.514287 7.0433e-19)
(2.4858 1.66049 -1.11367e-19)
(1.52374 -0.124303 0)
(-0.0401383 -0.3952 -6.37519e-20)
(1.43947 -0.737569 5.82317e-20)
(0.018875 -1.32681 0)
(1.92827 0.250871 -1.23227e-19)
(1.69729 0.226354 -1.59065e-19)
(2.45871 -0.388954 -5.02301e-20)
(2.03101 0.0707316 -1.16796e-20)
(0.735556 -0.274035 0)
(2.1368 0.224851 -1.44655e-19)
(2.06031 -0.456964 0)
(2.04033 -0.286011 8.81992e-21)
(1.00802 0.0544761 0)
(2.31682 0.756601 5.40367e-20)
(1.74137 -0.695178 -4.38832e-19)
(2.4664 0.734432 0)
(1.8713 -0.094575 -4.30329e-19)
(2.04194 0.0994554 1.69216e-20)
(1.70532 -0.165686 0)
(1.18564 -0.564737 0)
(0.577569 0.154703 -8.63366e-20)
(2.55711 -0.153248 -1.16432e-20)
(1.52847 -0.734364 -4.03095e-20)
(0.772148 -0.484453 -1.76814e-20)
(2.37344 -0.123456 1.47498e-21)
(2.0971 0.621022 6.73664e-19)
(1.76578 0.399674 -1.75125e-21)
(2.1648 0.56515 0)
(3.41705 0.410148 4.88362e-19)
(1.76384 -0.805198 0)
(1.55824 -0.715862 -4.12496e-19)
(1.86558 -0.809832 -5.06162e-19)