/*--------------------------------*- C++ -*----------------------------------*\
| =========                 |                                                 |
| \\      /  F ield         | OpenFOAM: The Open Source CFD Toolbox           |
|  \\    /   O peration     | Version:  2306                                  |
|   \\  /    A nd           | Website:  www.openfoam.com                      |
|    \\/     M anipulation  |                                                 |
\*---------------------------------------------------------------------------*/
FoamFile
{
    version     2.0;
    format      ascii;
    arch        "LSB;label=32;scalar=64";
    class       volScalarField;
    location    "1.2";
    object      p;
}
// * * * * * * * * * * * * * * * * * * * * * * * * * * * * * * * * * * * * * //

dimensions      [0 2 -2 0 0 0 0];

internalField   nonuniform List<scalar> 
13486
(
20.099
15.4667
1.12912
-3.44895
6.91257
-3.06073
3.10172
11.5496
13.6751
6.2461
-35.6414
2.69576
21.262
-3.98173
5.0103
6.7105
-86.337
-1.41208
4.25705
17.9454
-3.05412
21.0647
15.1265
-9.75532
5.26842
-9.23403
-38.4497
-6.41084
0.0151145
-5.32868
-2.34442
3.43241
-12.4994
-4.03637
11.5589
-0.0562183
0.0578271
16.6135
-0.636542
13.4544
2.3597
22.1587
0.220711
5.57386
5.45008
2.56461
-136.36
0.0875208
0.0850213
-7.79309
11.0333
-0.869583
0.952711
16.8781
-1.28414
7.23194
0.451913
-0.995297
-11.8647
0.232434
-22.2238
0.253272
-39.2143
-2.88716
-4.9593
0.0968315
-3.71493
19.9565
13.6227
-0.134947
-3.83735
-1.06294
13.639
-47.2698
0.196276
0.409327
0.217195
4.91914
-142.091
-1.76913
0.00228527
15.5081
-42.9348
1.22501
20.1729
3.98343
-1.44676
10.2468
12.8258
7.38733
1.82556
10.0952
19.3044
16.9093
14.3166
-0.00426617
-35.3625
-3.5721
13.4099
-93.7954
0.0421253
-3.32746
-3.70728
-0.756124
7.3952
-97.6392
12.8345
-0.689953
-145.711
9.49503
13.6444
2.98415
16.8444
0.383669
23.6843
13.8104
5.47691
-3.87759
13.7742
0.0479334
-1.63009
-22.5702
14.9624
-0.717434
13.286
-0.833291
9.57888
1.87685
-3.37264
-4.52602
-0.823844
-132.232
-30.6148
-47.9629
11.3944
10.0403
22.0649
9.6947
0.0158289
11.8329
-10.9479
1.01657
3.2072
-1.75859
0.237056
-29.9668
-0.116991
16.6923
-8.51845
-0.0646333
6.58611
4.87699
-0.0343435
15.9987
2.53196
0.88679
7.85533
0.114371
15.0988
0.489949
-6.76771
15.0867
1.27618
22.0011
-0.873353
-6.67865
-1.68363
27.4115
0.229636
-48.1162
-34.4803
2.58318
7.99156
7.06975
-0.023735
-5.24411
-6.31586
-13.2503
12.7356
3.22082
12.8078
0.291317
5.47611
-3.13577
1.22276
-6.5035
0.00679214
-5.03832
2.82685
14.7469
0.065247
0.87956
-1.06918
17.0985
-1.30632
-36.2094
-4.58703
-6.43672
18.5038
-5.43587
-2.42843
1.80886
16.6027
6.41546
0.511129
-1.31546
-1.17747
14.4609
-1.02903
1.22083
-5.62993
-6.94295
17.7074
12.8092
-2.98124
-2.99888
-5.65501
7.6332
18.3135
-21.6432
-93.8423
-8.52513
12.0666
-6.56501
-0.153994
19.7642
-5.51269
-3.58954
-2.6218
-0.885216
12.644
-5.35299
-11.2885
22.6494
-3.50998
19.0741
-4.3195
0.868844
19.3016
5.75599
-11.9428
7.89382
0.486567
18.1975
-0.435815
14.9348
6.11824
-7.29635
-53.3249
6.54563
-3.856
23.8829
13.1704
-0.766044
-1.99437
-5.80276
3.3025
-2.98872
-0.239826
-11.8131
14.1867
-0.399532
4.93737
-5.55744
7.6779
-3.42866
-2.47973
-2.65679
12.6838
-3.205
12.9717
12.4642
-5.85119
1.78474
19.8492
-7.06323
-1.99792
-2.60758
-0.877947
-0.363329
-2.59894
11.1147
13.0422
-15.5215
-17.9846
-77.1394
-11.9538
-3.54278
-0.556381
12.6674
-3.47835
0.079481
14.5463
11.5651
-4.17518
-4.69556
-6.29579
1.66267
13.4294
2.80349
0.90955
-1.07506
0.124242
3.68184
0.0219515
5.79006
-1.24094
6.10215
-1.09217
0.0786268
-36.7286
-3.41375
-3.68928
3.07266
-27.0037
10.2312
0.112105
12.7972
14.5735
-2.79998
0.102288
-0.0540082
12.7651
16.919
23.0666
2.03539
8.56339
10.9
1.22478
8.00632
10.3546
9.71815
1.11707
18.1578
2.76325
13.5405
24.6902
5.15954
7.23077
-0.26545
-2.75785
16.6913
7.82902
5.63754
-4.3271
-0.039826
8.96748
23.764
-21.7023
0.020079
8.73692
1.23578
1.66255
-27.2046
13.2692
-0.0214138
-47.353
9.58672
-0.65825
-6.75625
4.1385
1.07226
14.4526
12.5592
-5.57088
0.053593
-4.48556
-111.066
18.1302
9.65035
0.300134
9.01428
-0.787806
-3.89879
-2.52209
11.0964
12.8644
-0.0527808
-26.3931
-30.9441
12.5164
9.38365
21.1241
13.3283
-118.392
-2.09651
-0.169835
7.06641
-61.5719
-1.84599
17.3745
-6.24795
4.3487
19.3013
19.4666
0.049054
-3.64141
-3.69486
-73.172
-12.0941
-65.4767
1.33327
11.8552
-2.40979
3.14611
-10.0666
16.6899
-12.9024
9.53953
14.5411
6.56561
-11.4563
-7.00071
13.4429
12.7671
15.9211
-2.98708
7.93022
-37.5663
5.85154
12.8117
1.42496
23.8019
7.70141
-5.99568
-4.90073
1.60755
13.0816
-42.3732
-0.988816
20.8719
11.9683
4.34412
-0.553967
6.4934
-8.00968
20.983
0.014137
7.30906
19.5835
-111.731
-6.09071
-46.3443
-7.03824
0.0621831
15.9331
15.284
20.9396
-30.4372
0.00915783
-5.02072
7.42176
13.0123
-7.77541
-12.9328
12.3545
-3.40104
-5.37824
-15.4485
-27.4781
-2.80814
16.8303
0.0371169
-0.672518
-3.28723
12.2157
0.107933
25.8624
19.5849
13.5874
11.0935
0.107532
-0.0225694
24.5779
-1.99792
0.029843
-6.17648
13.6386
-80.0851
1.4465
8.32332
0.0965223
-7.71318
14.8753
-18.0577
-80.8554
7.68968
-1.9193
27.1545
7.4604
11.0646
14.236
-5.29037
1.60861
21.4334
6.93678
17.1073
3.11326
2.71077
-2.79116
-1.63542
0.177167
-102.686
13.2345
13.645
-3.89805
0.00535949
-3.42632
19.7118
15.9844
-2.06442
13.8873
9.82265
-7.38167
7.87078
11.2166
-37.301
20.7385
0.12007
-0.209602
21.9222
9.57348
0.142967
8.91211
-2.9898
-3.58659
5.1346
8.95963
15.0952
19.4032
-7.7889
6.37656
-8.31567
0.0153729
18.9524
2.34988
-3.19755
-3.74024
1.4188
0.181685
10.9878
-4.76015
-12.7875
13.9177
17.9436
-2.14203
14.208
-31.0821
-4.0321
-17.7943
4.21775
-6.44166
14.5943
1.34441
-19.4119
11.5473
15.8885
-11.5144
-6.39982
11.0922
18.8637
2.95803
20.2303
1.53541
7.87595
1.75824
14.5281
0.282117
18.3716
-30.8226
1.96065
13.2832
-2.99448
-6.58907
12.7061
-103.824
1.81136
15.6534
21.0997
-3.28686
-1.16334
2.45901
-0.229655
11.7279
8.35001
4.88096
-25.4238
-1.10672
20.0689
0.909834
-0.466344
-8.20424
21.1596
-3.58474
0.430479
12.0099
10.7076
-1.64102
-5.29691
11.9116
1.18576
-1.09674
3.78465
-14.8933
20.471
13.5755
9.42958
9.27702
-9.39404
-12.2055
22.9256
2.74335
22.996
-3.46375
12.8389
0.158267
-49.5642
8.80032
6.43407
24.0589
-5.90162
9.05652
8.32748
-22.806
6.28264
-1.11047
-7.01343
13.1836
-5.90195
-6.32771
-8.0599
-3.32878
-3.26131
14.1817
-0.000221666
22.4644
13.3475
0.412466
-3.78299
-5.56449
2.95131
-19.2825
-4.82497
-97.2882
18.9724
-0.0161165
0.438651
-8.30684
21.2658
-0.0250464
0.32415
21.9909
11.0674
-3.11984
-1.95388
9.32504
0.0147125
13.26
0.47236
-3.69009
3.59552
12.0482
2.81087
11.025
22.2859
0.440913
-4.41929
12.6497
1.44128
-3.34897
9.27168
8.97518
4.69602
-3.15133
1.45104
-0.11357
1.06578
18.9038
2.93749
1.11992
1.33752
1.44903
-1.40736
13.107
0.438881
12.8567
12.6547
18.2979
-1.94388
-12.3133
22.788
0.147416
-3.40672
13.8978
-8.44748
14.7541
0.391211
12.1915
-3.73905
-51.2295
-8.00411
-0.00278225
-85.5884
6.02551
23.4439
-3.30947
-23.1074
-6.17183
13.2807
-3.46505
4.72022
-10.7084
23.0154
-2.71186
6.50692
-7.98304
6.62774
12.767
3.86278
-27.9208
-2.67378
21.7082
12.4472
6.12573
11.9895
1.67
10.5258
10.8525
6.90275
-41.6847
-1.90152
16.4587
2.91057
-0.96675
11.5651
-3.65747
-3.23443
-0.506062
14.2273
13.7002
-3.94083
1.33579
-2.91414
-2.8389
1.25477
-3.2284
1.35333
12.1563
-1.90087
-14.9134
15.8858
-1.23898
-4.01829
-2.44505
-7.42371
-3.94442
-7.61136
-0.246767
-6.67014
13.2587
21.2585
0.0503507
-4.00792
22.0285
20.601
-3.15202
-4.7517
14.0936
-107.174
0.476891
-3.65785
-0.911995
7.50383
-81.0548
4.56062
7.94538
-6.75159
-2.93208
-11.3057
-2.83914
11.6054
4.54164
8.19448
-4.17491
10.7143
20.1084
-103.005
-6.21528
15.3118
5.36558
8.28755
-0.570148
-5.24488
-4.2048
-2.60914
13.248
23.0663
14.6109
-13.8668
-2.61695
12.756
19.5343
-5.97232
14.5239
12.8421
20.327
3.15894
-0.24734
0.875985
-2.6284
20.0281
1.38602
0.0142599
9.21074
-1.85927
3.03835
-2.22875
-13.0352
12.1174
10.5518
8.34894
5.15257
-88.3311
-4.27465
-3.0168
7.4971
-15.6439
-9.13813
0.368118
-9.15287
-18.9955
5.82711
-5.26508
-53.8906
-61.8108
-3.6464
10.2487
-44.9488
-5.21261
14.7638
-3.10683
21.1824
-3.59221
-53.3583
16.1234
19.0506
0.206705
-0.505819
3.72427
13.2422
7.96102
-24.0853
-1.49956
0.0360461
-2.91588
12.137
0.442139
6.84922
-0.102838
13.6449
-44.7434
0.445918
0.111406
16.3814
-9.3748
-30.3155
-8.0474
20.927
-3.02032
-4.50393
-48.6831
12.7696
-4.45844
0.0334897
2.71006
6.18414
-7.92127
9.32443
-4.93721
10.273
12.3116
15.6867
4.80082
-0.32609
-3.58705
9.23535
-6.60309
16.3655
8.39203
-1.84574
-0.724367
-2.22052
-1.96792
0.00954162
14.7953
4.13252
2.42863
12.6851
-1.63718
10.6927
23.7996
-2.19032
-18.59
8.26052
-3.94164
-0.40089
-2.27276
-3.3169
13.0638
0.473653
0.288046
0.296533
-1.36695
17.5251
-3.15786
-0.0231615
12.6486
-4.898
18.673
14.842
17.9847
2.82491
7.67145
3.52436
1.01239
10.2181
13.0881
-3.3226
-3.28653
-60.4042
-4.62277
-7.61828
13.1293
-22.4231
-12.0101
-9.12021
-3.40839
-0.0286164
12.7977
0.141263
1.6577
-43.5961
12.741
23.5603
-7.1933
-21.8141
6.38993
-1.14981
12.8599
0.404227
-0.513729
16.1665
-0.949213
22.3608
9.14083
12.7152
-5.10613
17.3141
0.534309
15.0316
0.0843889
-11.9678
-6.43736
-6.31994
8.60318
-4.64812
-1.20892
21.0583
12.7195
13.9241
19.0705
14.3063
16.3026
-3.05653
14.0638
12.882
13.3927
-2.74515
-5.63391
-7.69196
-12.9627
2.74354
15.3022
-51.4596
21.468
-15.0668
0.460301
22.8235
19.1027
-3.13872
-7.32606
13.491
5.95132
0.746184
12.6286
-51.1114
-6.8555
12.561
18.6493
-0.520597
15.0195
17.1531
0.185384
-6.10282
17.145
5.45408
0.0702227
-17.1706
1.16772
-12.6433
11.8151
8.59279
0.110265
-1.64114
-5.86118
2.96515
-0.522408
2.77033
19.3799
-0.679811
25.5473
13.2159
3.97254
14.9295
-3.23039
-42.8143
-4.2768
13.0525
-0.515485
-44.6898
-2.34848
5.30162
6.76035
-0.231166
9.99065
-89.216
6.95753
-3.46386
-0.0605264
10.6638
3.58017
17.4798
13.1082
13.5176
12.8111
-3.02021
-10.3204
-9.35006
1.26443
-3.49667
-5.22491
10.5404
-2.82353
-0.120306
0.153016
0.557328
-10.8511
9.26862
5.01188
0.6146
-6.01264
6.08306
-8.45031
-8.50929
1.13919
-3.78959
14.9944
9.13448
17.4908
-46.8225
11.3506
0.401816
18.6271
-2.59496
6.00524
-2.22042
-3.06956
21.7882
22.105
10.6753
7.67147
8.12734
12.4416
22.0981
9.28118
-11.734
-9.30363
2.14056
-14.3501
-91.3352
12.5714
12.781
-8.72734
4.04343
11.5147
12.0827
24.1007
-25.3112
9.67596
-78.4018
-11.0305
19.0253
-2.08503
11.1173
-2.79233
2.09752
4.87738
25.0463
0.0694246
-7.68003
5.44946
1.29755
-5.25594
-50.2775
-0.959255
14.4542
0.558025
7.69293
20.5358
18.6805
-1.38415
-28.0419
0.0593437
0.913
15.9401
12.6628
18.792
7.44091
-46.1815
19.7583
12.4065
-22.5779
10.4287
13.2142
17.0338
-22.1173
-3.31982
0.033406
10.7272
21.7441
6.69617
-0.820475
-12.6294
24.1622
-83.9753
-11.0642
22.5835
10.9573
-22.7994
10.536
-3.64728
7.512
-4.24512
-78.6759
-0.23718
-4.4699
-0.569433
-3.5025
-105.017
-84.5908
-57.3446
2.31297
-67.7211
-3.8195
10.8225
11.7343
7.57444
-97.9813
3.05343
0.621571
-3.27999
25.3522
8.97483
-8.67882
10.8031
-4.27422
-4.68543
11.3215
11.2575
12.7311
25.6816
0.0370408
-2.05093
-9.60705
1.19649
9.23526
13.4699
-6.54567
19.9944
8.21064
13.6532
-2.81941
-1.50728
0.703371
13.9891
12.8227
14.6508
12.8957
23.3223
23.2071
-4.28355
11.0477
16.8876
-8.46104
18.8559
-0.471515
22.892
18.7508
-0.662431
14.7471
5.39653
10.3136
0.753036
13.0144
-10.2281
11.5751
4.9025
9.31527
-2.9573
12.6617
-0.437367
2.53734
22.1191
22.078
8.88143
-47.4415
2.76447
1.7559
-1.90528
9.87808
19.7195
-48.6104
13.3472
12.9302
6.21869
13.8733
-5.82696
-2.88003
0.119154
23.6945
3.67497
0.267405
15.0015
-2.84392
0.459252
5.40249
2.00127
9.33282
5.97294
-5.2266
7.66737
10.9384
9.10288
10.1862
23.2344
18.8814
16.8819
18.8434
21.8676
6.21736
-0.552165
-1.10529
-17.0994
21.7524
-2.87342
13.3043
12.0532
-3.54214
6.9985
14.6146
-6.85252
6.22888
7.3762
25.9784
-24.2513
5.39098
-21.885
15.533
1.10583
-3.51334
21.4342
18.3417
12.9989
12.956
-4.68938
6.38873
-108.858
23.1308
0.156062
24.866
-1.03221
-0.736311
-58.3644
7.71513
-48.9944
0.896391
-0.932799
3.18493
-1.6747
3.29222
-3.67889
-0.0397878
-3.25328
-45.9067
-6.34503
-26.1706
-1.72699
-1.35089
-3.38133
-17.681
13.9092
14.1553
16.818
12.2255
5.03369
4.89008
27.1675
12.9691
-49.9327
0.00622071
-2.57968
9.34454
11.6417
20.0093
-11.6749
-11.6783
11.2586
0.0472857
3.06135
16.3504
-50.8204
-4.14507
-110.801
23.4262
-3.78221
9.06889
17.0508
-0.947341
10.506
-0.287331
-20.9317
-14.0354
0.550586
8.11748
15.9915
16.6817
-26.9709
-45.449
9.202
-143.168
-5.37298
-3.046
1.82415
-3.98207
-0.763845
-3.75859
-20.8585
-9.9528
20.6453
-3.12337
22.4688
-6.51946
-2.60841
4.7327
-3.84932
19.1633
13.4824
15.4859
-3.7872
-4.26873
-24.8735
18.6324
-43.4982
8.94614
-0.160104
15.6392
18.9769
-0.298564
13.0323
21.5906
14.7975
14.0946
-29.795
-1.63175
5.21128
-8.02492
-0.900217
8.15802
9.98833
1.05638
-36.7443
2.72693
0.438964
11.8641
10.1957
-5.78658
22.8056
1.25967
-0.0173124
1.2662
12.1998
-4.76421
0.0509932
14.5552
-8.9198
1.21198
-3.89369
14.4225
12.2262
11.6036
-0.630355
11.9729
15.064
15.0952
-4.24567
0.488779
1.76513
11.4408
-12.2796
-50.7592
-4.39827
-20.3666
-3.68948
-0.0147923
-0.879816
0.378414
-53.8843
-8.71615
-12.541
0.432895
-4.21805
3.6381
-5.47463
13.7534
27.4667
3.41594
-3.23557
4.94587
0.17229
2.91133
0.0536266
-5.05884
-8.40206
1.70147
17.7536
0.00283841
21.2614
0.0251596
11.6983
11.0899
5.57148
-67.4258
8.38132
23.1872
-3.4772
12.4715
12.1802
19.9204
1.44562
18.2699
14.627
-53.7788
15.5018
-27.5706
-98.6411
18.724
11.1458
-24.1145
-0.911293
17.1343
1.77736
-5.8811
0.222153
0.301655
9.60766
6.13738
12.9266
12.6899
11.0872
-30.0364
-6.53248
-3.95574
12.4875
24.9366
-5.50569
-96.7981
-62.7275
13.7207
1.44791
1.34011
6.25208
-0.513924
10.4146
-2.76624
2.77955
20.8838
4.52931
-2.02377
-2.53846
-3.66421
-7.71822
-84.5692
-9.93578
-4.55486
15.4043
5.97632
-7.09236
21.0929
0.0342473
-17.4287
-3.42951
-97.0482
14.5051
-42.5733
3.11635
13.3839
-0.580293
-4.30571
-2.57874
-51.9118
-3.31417
14.0284
-12.5975
-0.37891
-107.244
12.1646
14.0912
-3.69268
16.8078
15.6361
20.4992
20.934
14.9579
1.70451
23.5667
-119.042
13.0562
2.87033
-12.7816
15.813
-4.17564
20.212
5.16987
-16.7064
-72.3499
-109.176
13.8179
-4.45003
-4.22491
0.53203
-12.6645
-1.92131
7.28366
1.22542
9.88031
23.3982
-54.4043
-9.16809
-8.82798
14.1683
9.34663
-6.63556
27.1889
-0.579041
0.45362
7.56274
-15.382
11.8849
13.7823
15.3883
15.6885
-1.98588
7.28149
12.6015
2.52365
-7.82848
0.073511
14.7225
14.8076
18.5981
-3.25292
1.21646
7.39122
7.03577
0.561095
-12.0793
10.172
-3.14241
10.7973
13.2751
-85.9744
21.3291
-6.56303
22.6336
15.4276
-9.98896
0.0434986
0.133311
4.20793
13.5984
-7.82525
18.1967
12.0219
7.19668
0.17943
2.48324
-4.8193
7.19733
-98.2559
8.50204
-3.18618
12.3966
-46.5561
-0.606409
-3.82462
16.2101
19.2858
5.49731
-46.955
5.42601
-1.55436
1.2726
6.43048
-3.24604
-2.95144
22.5121
-8.76051
-2.3682
-9.73688
-79.8862
-1.71569
12.6137
-92.2855
-3.3245
13.5423
8.5305
14.0699
-3.5536
5.89704
22.6387
-29.9742
12.2752
3.67877
-3.52695
3.46525
2.58078
-7.63678
23.0986
15.3579
-7.3517
22.1793
17.4533
16.0187
-147.851
-52.142
9.31218
-18.6197
-1.78152
-28.7537
-17.0755
-26.6054
10.4665
4.67985
8.13096
8.94417
-2.54071
10.3608
12.3914
-66.0235
14.3327
7.29454
12.503
-1.58575
-0.0255873
-3.65757
-89.9283
-3.54864
-3.80834
12.2052
-12.5742
20.82
-3.42939
12.0764
8.64404
0.157697
2.49147
13.5669
5.0883
2.05971
12.016
-0.245939
-1.54992
19.5694
15.1808
-6.8611
-19.9763
-0.401793
11.0498
-1.12969
6.33155
-25.1328
-1.07147
-1.63392
0.319642
11.4979
11.5679
-1.59515
4.90145
-1.55988
-0.335898
-10.6601
16.0159
-3.61499
13.0072
0.0396173
10.7234
13.9897
6.63905
12.3842
-0.560782
-3.66703
0.155843
-33.2376
-4.18762
-6.5099
-4.88545
-2.55857
9.63379
-1.71098
12.2373
-1.28642
-0.77702
-25.2887
-0.385158
13.7786
-15.5873
12.9066
2.83025
-8.38304
-0.56854
-3.72092
9.55068
12.8122
-0.321295
1.94042
-40.5898
15.8813
0.641625
3.60381
-4.33488
16.6251
6.0753
-0.00434498
13.9689
13.8562
16.1443
3.22414
15.9324
-30.2648
0.493443
-2.64714
13.2068
7.54261
3.00376
1.02321
-11.4108
-5.89947
7.35181
0.978675
-7.08402
21.1475
-32.9351
16.0049
9.42198
-4.24693
-0.662656
0.695445
-1.40319
0.402622
1.42522
11.7413
0.165425
12.9354
-26.4168
6.25782
-2.6208
3.18044
-11.9961
16.8228
22.7453
14.3299
7.91013
3.19402
7.7586
-44.2167
-0.411167
-0.300129
-1.85199
-7.31045
-11.3701
-11.7543
-6.84741
11.8216
13.4307
-35.9267
3.07555
14.7544
-7.39674
-21.2383
13.8665
-0.679128
-24.6555
0.226399
-3.75382
0.0445735
21.0323
-0.240492
12.928
-15.9435
-9.91549
-7.28824
13.0701
3.39731
10.9612
-12.9654
-9.03269
0.563649
2.218
14.9282
11.5478
1.32267
-2.38259
-4.14429
23.7184
-3.17047
15.1721
16.8527
-2.48489
-0.942084
5.67154
-64.4869
-17.9918
10.9028
6.62415
12.8404
-4.5052
14.1515
0.384306
18.7607
2.43534
11.026
16.6505
10.2814
1.42999
-2.98455
3.16604
-90.7937
11.7859
5.00211
16.06
0.288042
20.3543
1.76344
21.8466
-7.71246
16.9816
-3.11853
9.83529
-31.7569
12.0528
6.13676
4.58474
19.7408
12.5981
2.5205
-6.64744
7.34056
11.8868
-0.502736
-74.6437
9.50687
0.497256
17.2177
-3.31567
20.8147
2.15696
27.211
20.7186
10.0787
9.2888
-30.9144
-0.137743
22.2678
0.192247
-1.73782
-1.62165
21.5812
5.59903
11.3485
17.5825
-10.2308
14.1988
-3.3192
16.001
0.442059
15.2245
13.4325
18.7761
-0.618114
-137.928
3.29477
-3.72571
5.87
2.79322
0.252108
16.644
19.4379
0.192697
4.70413
-2.76492
17.6809
10.8068
12.1929
7.18553
-2.66842
-36.9186
-3.13278
13.053
-25.8942
-1.68152
-1.03598
9.54293
6.02701
-6.92187
23.3156
-2.26142
20.7634
4.44608
20.9573
-4.87187
2.81474
0.203805
0.542321
10.9505
12.4439
-3.73178
-1.54751
-6.25198
-1.52997
19.5526
-5.68745
-0.786612
-2.79493
-1.92902
5.06767
16.4977
6.67296
0.494982
0.196667
12.6169
24.9621
-3.59763
0.547079
13.0669
-0.317006
5.50469
-0.156491
9.87553
-1.47689
-71.4388
-3.40615
-3.10899
-2.29184
-0.152342
-23.4998
-5.96218
-1.50474
9.40322
14.0044
10.8259
24.2849
-26.6267
21.4004
-36.6304
20.4788
-7.82531
-11.0026
23.5014
4.2803
-3.91804
13.6109
-0.684887
14.7816
-4.196
-99.7584
1.7799
-6.28224
-7.2608
-0.0293658
-2.18786
4.12867
16.8018
-9.85527
4.70673
-25.88
2.73139
-2.58425
-0.422608
1.61312
-2.2806
-20.3058
16.6101
-0.284615
18.9283
4.62674
-18.4673
3.38693
-14.1016
0.203613
10.8518
16.5693
23.9775
9.00122
10.6454
6.48896
-53.417
23.1437
25.1148
14.1302
-9.77701
-4.43109
-87.6269
12.2748
8.84701
4.5441
10.129
-2.50192
-0.285274
-61.954
19.5114
-1.60402
0.792611
-3.60576
12.9569
1.90432
26.7315
24.9755
11.6798
-0.866076
3.55814
-33.6824
4.13927
25.5975
1.79874
0.143147
9.94398
0.120701
1.83707
-2.74955
-4.72024
2.53927
0.233202
5.68971
0.0670043
3.06165
18.6581
4.77855
13.9211
-3.71392
-5.43363
22.7305
-18.3747
2.1054
3.8349
4.61469
0.569836
-3.73849
3.01921
0.571347
0.226102
26.746
-65.2143
-29.9145
-7.99963
-10.7976
1.50072
3.9864
-3.68502
-23.5434
-0.0126925
-38.9324
-12.8678
-8.03148
0.9719
0.787746
0.147371
26.3866
0.0505824
3.33364
-2.36117
1.58636
-46.5868
-3.92453
18.1265
12.867
3.4013
-2.12962
12.7412
13.9173
-0.160233
-9.93863
-0.189101
17.9765
-7.52327
11.6559
-0.572854
20.563
0.0893976
-3.8851
-1.88207
14.1605
-5.77829
11.1175
-10.5071
25.5559
-3.60056
-4.14663
-43.012
4.9517
-3.70819
-10.8131
-3.69367
1.49518
6.65626
-4.88798
-2.85879
-1.33361
1.25803
-6.21616
-12.7995
10.4737
-107.08
11.5704
-3.71312
14.3851
23.0569
12.6124
-52.8193
13.5728
1.42282
1.96312
-1.45212
-5.8399
-82.457
0.256754
-4.25477
6.53761
-1.29551
-11.2626
-0.481645
-28.8851
6.51377
12.4919
-14.1312
-3.59136
-5.9062
0.0704327
-1.94569
7.80995
-30.6866
-3.79085
12.8232
-1.4702
8.19481
-11.2208
-35.3921
-6.88147
-25.8451
25.7599
3.80163
-8.32664
2.57254
21.6992
22.7899
-4.03759
-3.37255
12.6927
-0.252472
0.25482
22.1744
7.11725
12.098
26.9662
-5.84581
4.46637
0.90373
19.7881
13.3471
13.9291
16.3405
8.73908
0.228893
0.645106
5.18363
2.50123
-77.0831
22.9155
-7.60232
-9.01185
0.0871653
-6.23349
6.35868
-3.58886
-3.62203
2.3923
13.9586
13.9308
15.5024
-49.1823
19.4881
22.3416
-29.5217
8.21645
-1.99618
-2.26833
2.14938
6.74219
-2.46259
-7.70269
-15.0001
24.9304
-31.4509
15.5187
13.0665
17.9347
10.3075
10.3271
-1.77698
0.194217
8.37171
-0.738603
-95.651
-22.9228
1.19993
-3.56046
16.3451
-4.76577
-0.0675846
1.45982
-44.4641
-3.76907
-101.121
11.6321
-3.35519
-0.352348
4.54513
-9.31072
4.35882
-37.2053
-1.83919
14.087
-19.7029
22.7926
0.0500594
24.0225
0.054653
-0.365472
1.88685
10.9299
11.3948
-34.6722
-1.7322
-4.37176
1.79487
9.45001
27.2732
17.9197
4.44567
-7.11679
7.09523
-1.62111
15.504
-2.11582
6.86536
-3.24937
-3.59439
-47.4976
5.47422
0.186574
-47.3262
7.88827
8.43487
22.157
23.6235
-85.1468
-79.8924
-3.37515
-14.8179
23.2928
1.32523
-7.37835
4.70806
8.73386
-3.06304
1.03529
-0.418583
-0.74397
12.4655
-2.71084
4.13075
-10.5085
-11.0235
-29.8356
-5.05482
-30.3184
-26.8914
14.8472
-4.29435
-3.71346
-3.47348
-0.673211
25.2287
10.363
11.7541
-3.75378
6.62431
-1.86088
5.44145
2.82259
-3.60744
-60.6117
23.2402
13.8484
-1.40716
-55.074
26.2755
-3.822
-36.05
-3.13435
7.09871
-3.76904
-2.98805
19.8745
-2.12723
12.3772
4.1403
-3.44332
0.797704
-0.300293
6.42125
-31.4238
-1.12647
3.10709
13.0664
-3.68259
-31.6687
0.804503
-4.65383
-16.4422
-15.3884
24.5584
7.74826
-7.9269
6.7999
2.18222
21.613
7.57597
-68.3608
8.22834
16.7039
14.7819
-6.48774
11.0633
-1.70636
23.0825
0.269655
13.1046
-8.85156
-6.22706
0.132511
-3.41038
8.4337
3.42252
-72.1305
-3.85755
15.8384
-1.2541
-1.99379
18.5671
9.7243
18.0715
11.4745
-9.49734
0.11791
-0.733673
13.2869
0.0157909
16.6664
10.8077
22.7081
-3.74141
17.5617
7.2465
22.6611
-3.57152
-10.1373
23.4278
-3.71577
10.6475
-37.6035
20.3778
22.4348
14.1048
-23.151
12.3438
17.3293
-6.03511
4.48263
-3.75771
18.4996
-3.64861
-2.37932
-91.1689
-99.8153
16.9723
6.91605
-129.284
6.8602
22.425
-8.57752
-3.57066
-114.623
-11.5391
11.6482
-2.43324
11.938
12.4654
-134.971
25.3218
-0.972893
18.9375
19.2153
0.797091
-0.0646398
11.9583
-22.1487
-2.91877
11.9169
10.149
-6.54969
12.5833
-3.32294
19.7017
13.9858
4.97843
1.1732
15.1099
-2.29803
7.23176
17.8769
2.59737
0.0926944
17.2104
14.2865
-8.23248
-50.3323
10.5701
15.0161
22.9244
-49.9085
24.2761
23.2221
24.5714
-2.42315
16.6387
-6.85514
12.7722
18.2145
17.3349
14.8272
19.7761
26.7436
10.8819
-51.8181
1.98526
-54.3617
26.5075
7.10324
-1.64297
-3.73578
11.9526
19.6246
12.7758
4.3002
-1.58878
19.5127
-29.0092
14.4942
-3.76563
4.88195
-0.343424
4.91938
8.5472
-3.52047
-3.9415
-2.75863
-4.50098
-2.43415
16.2776
-4.20814
1.28052
12.2962
-28.6419
8.9631
0.153331
-26.4615
-9.40657
-59.1112
18.8188
20.1702
-3.72214
4.1749
17.0805
14.8915
0.205233
-7.28857
14.6277
-68.8532
18.3561
-23.5721
17.8073
7.5075
0.597641
16.517
8.96035
17.6124
4.56516
5.16765
-5.79796
-52.2085
-47.7807
-1.1263
17.2547
-10.1189
-3.39649
-10.3238
18.9032
17.4607
3.71614
10.0762
19.283
-25.001
12.7553
-2.02766
-6.7164
12.6328
-3.84853
-41.2691
-14.2744
-96.6089
-3.64814
-9.24682
-2.09244
-97.5435
-54.332
10.843
23.0723
25.3457
21.8913
-9.66866
14.6017
-11.5561
12.1921
19.0866
0.706794
16.9055
-10.4052
4.46147
-6.46669
-2.20849
18.4303
-10.9933
15.2294
-61.4797
-4.88424
-108.883
15.1293
15.0899
12.6142
-29.3477
12.5342
-3.47018
-132.353
-129.148
4.09781
23.3609
-32.7631
-3.69439
-3.77359
12.8289
12.1369
-0.762709
7.38206
-45.1466
19.5884
17.6395
-3.21352
-4.11685
19.1621
-3.93663
-22.1767
-1.19427
17.3629
19.6955
-5.16108
9.85401
-3.23366
22.6489
-114.738
-5.81931
-2.11801
21.2985
-1.34419
-5.45871
-1.71611
18.4319
9.74856
18.1836
-2.49474
-28.7731
14.8529
26.0499
-53.3341
12.3834
-1.57766
-131.63
-1.50183
4.53791
-3.73371
9.66888
-3.40544
7.77837
-2.49747
-7.54589
16.5564
20.0849
12.4344
-20.4655
-5.9272
15.7303
-47.5558
5.15064
-7.43413
6.35837
-81.5066
13.8496
15.7219
-1.7376
14.8439
22.5334
-3.27065
11.1708
14.9253
-120.034
7.22206
-6.4071
6.372
5.16799
9.75877
0.0563868
4.26457
-2.69272
-28.0734
18.9389
5.64863
1.17335
-4.16223
-2.7715
13.4394
-62.9747
24.4979
-23.6795
-123.493
-1.65748
16.8284
15.3829
18.1651
-80.3587
21.7208
-15.4495
10.9767
-0.0554583
-35.6892
11.62
5.8175
-3.17342
9.14409
-40.9661
9.9928
-90.2918
-4.09301
-0.0193139
-21.1993
-25.7853
12.0533
22.1441
-0.209359
-8.60277
17.1956
-25.4091
20.1524
6.69869
-0.885322
6.64219
12.9207
6.91925
-2.02463
1.81296
-1.28977
2.32937
3.8727
-36.4565
-3.93255
0.601462
8.54954
-2.48774
26.6473
14.5342
12.7883
20.4915
0.983259
14.5198
-10.5354
-99.0196
-4.69254
12.6602
26.1152
12.2725
-11.2429
18.8513
12.9245
13.0949
-0.300071
-1.72786
6.77135
24.6667
1.80915
-7.60814
16.1865
19.3556
14.3895
13.1083
16.1702
9.35227
-3.3368
-5.7707
14.6319
-48.6239
-45.0479
12.8884
-5.15472
1.18431
4.84101
14.6878
15.2742
15.4743
-2.72361
18.0158
18.4991
2.41989
16.2108
13.9996
10.7658
9.50023
9.63645
6.63179
-0.990245
16.8604
16.1528
-2.04566
12.4544
-2.85131
0.070564
21.9381
16.7071
0.0861123
-5.22914
-1.82893
17.2748
9.82282
1.73679
-0.380275
1.54848
-3.74236
2.17934
-3.44643
-3.20732
10.3265
-2.94923
-17.0724
-34.5203
20.9215
-3.71244
-33.9317
-4.08827
22.2075
-2.83727
2.28429
1.50027
-110.548
9.98933
11.9692
8.57395
19.7149
10.4117
-0.979784
-67.7405
-4.60362
0.0813734
15.0375
-1.37868
-7.03251
-119.539
-3.95018
-38.7162
-4.00471
-33.3703
-2.63866
3.89399
12.3615
17.6496
-3.58615
-2.32414
19.7173
14.6383
-4.21337
-3.34339
-60.6204
8.20599
-0.277904
7.01905
10.4908
-0.981966
-2.95275
-3.32
2.53629
-13.0163
-73.8534
1.26615
-7.71511
-89.1155
-117.508
-4.48539
1.38798
-63.2187
6.58995
-7.67541
12.5195
11.0973
3.54125
17.0139
-8.26914
22.3801
-6.44578
-0.495922
-13.598
13.0914
7.72254
-46.4158
-79.8656
13.0889
15.7168
23.1859
-6.50591
-81.2389
-7.48491
-2.10697
0.0435202
-32.393
5.14009
-72.6198
7.51001
-9.25919
10.6608
1.53143
-1.22484
20.0773
11.7456
-11.4931
-0.181599
-18.3076
-55.1428
17.0642
25.3642
-35.4869
16.5714
12.3708
-0.039834
-2.06827
16.5514
15.7695
-35.4837
-2.71862
-4.86137
-8.68273
-12.9588
-58.6137
-11.5957
8.00918
-2.73497
14.2943
-22.5634
-117.321
11.9058
-11.8602
-94.9443
-0.557384
9.5919
-107.392
-7.42854
-128.497
-20.5551
-85.7859
23.578
-88.9235
-3.64174
-10.927
14.3577
-122.226
-2.29514
-27.0226
-29.2244
-6.0818
15.108
0.0213927
-35.7062
11.3092
0.0741051
-5.49894
-31.8153
-41.8258
9.65492
10.9623
12.9122
-116.848
20.2355
-4.41931
0.0433387
0.70551
-24.4362
-6.0529
-39.2446
-11.7449
2.05393
4.54166
-0.619657
-4.35588
-11.5809
12.6042
-18.329
12.6894
-25.6747
7.42056
-3.5774
-1.6834
-1.8253
27.355
-1.73268
-121.725
-69.7122
-9.70257
12.6676
-0.0899362
-2.52059
0.420949
-112.98
-5.19139
-54.7567
-55.8073
14.8421
-78.6368
0.875113
-132.612
-1.7544
11.3708
0.825262
6.07197
-5.93942
17.7074
-96.148
-7.46841
19.0586
5.17742
-106.778
-4.24294
-26.8781
-10.5229
-5.05864
17.17
-4.17614
4.70783
-70.8173
-23.906
-51.0202
-64.884
-41.9412
8.42584
-3.10912
12.8231
3.89412
-18.0542
20.7367
-6.83574
16.1812
19.9213
-118.001
-0.549855
14.0365
12.3345
10.8831
-9.26234
-16.9527
-18.1336
12.5174
2.69786
-10.4588
-37.14
7.77017
15.4488
-3.77097
-1.00927
-0.640828
18.6993
-17.6552
-19.7221
-0.073675
10.6847
-0.397033
-1.51804
20.308
16.3726
-0.56891
-10.0391
16.9715
5.55823
-2.14596
12.6648
-4.7162
-13.1587
-21.68
-10.1677
15.9063
14.4639
-1.65285
-7.26315
-2.74233
-0.779147
14.6858
-9.72029
10.7833
17.8211
19.2001
-3.49879
13.0528
11.8814
15.047
15.9479
-3.09782
15.9789
0.0228608
12.7622
6.65218
14.1297
-3.42617
16.6164
15.9367
11.2114
7.96821
-6.74319
9.59638
0.538924
-8.42493
18.2977
17.4864
-6.84162
15.7438
-10.27
-51.2461
14.4174
14.2271
-22.7187
-2.20769
-82.604
-8.82801
-13.4473
-3.79825
-22.7954
-4.85154
12.1011
24.2865
17.0695
-3.77857
-3.31719
14.2946
5.75947
-2.593
-12.8917
-5.71504
-19.0817
-52.7302
-55.2936
11.9317
-5.88852
5.02903
0.174583
0.176789
-1.79166
0.353993
2.31206
7.14837
8.17832
-6.20542
7.08067
-35.6088
-14.375
9.12263
6.29787
-1.24447
1.21758
8.12633
-0.499145
4.29629
-6.48202
12.8092
10.788
21.4103
12.8077
-8.98757
-4.97347
-7.14396
-5.36324
-0.28437
-0.0149857
-2.67651
-7.30808
24.5779
1.10639
-0.774671
19.93
-3.7412
-10.2294
-3.78883
-3.73657
-98.7619
4.23275
-14.6964
13.1721
-3.06973
-8.32587
-2.90073
-3.90974
-10.607
-2.06799
-1.1213
9.57802
-3.74485
-3.83912
-15.9599
4.87556
-10.8997
14.158
20.5562
-5.11663
14.3717
7.63378
8.71917
22.4541
-3.57723
7.17332
6.66648
4.62933
19.3098
-5.35206
-2.23764
-2.0726
13.9065
20.5835
-4.34089
-2.43199
-10.6209
-9.22921
6.01048
-7.18482
-23.6595
-5.55051
4.36002
-63.7474
2.71909
3.90687
10.9335
1.99447
-49.5322
-6.77013
-0.343273
-2.73649
21.8971
24.5016
18.1543
25.3979
11.0771
12.8062
15.3147
13.2957
11.7584
-8.41443
13.6137
-4.719
-51.7788
19.7729
-2.88249
-11.2091
23.2151
-0.88822
-8.57015
6.13032
4.77097
16.0046
-72.4246
11.686
21.1947
-3.72657
-50.8833
-19.7335
9.07099
-9.67037
17.3663
-2.38688
16.0702
12.6999
-3.83799
15.596
-7.28349
-57.8884
-53.0303
-5.33665
16.3177
-9.82424
12.7292
-0.839966
-42.0323
0.531269
-2.0413
-15.2988
-6.2254
-119.502
16.414
1.60362
-93.0212
-7.04363
7.74705
2.99815
-7.87534
5.4718
-0.193311
5.59182
-114.897
6.93143
2.55298
8.79828
-1.63094
12.4003
7.98875
2.96495
-103.338
25.5483
-10.4879
-135.287
12.6177
10.7228
-65.7297
-10.3149
-3.07043
8.55867
7.10441
-9.12595
-2.09951
-3.6501
25.4061
-7.79939
-3.90244
0.708368
-6.11093
9.53855
-3.26382
12.1883
7.67909
-10.9508
8.33258
-73.4854
10.8883
5.06685
13.495
8.52989
0.0348761
0.0800486
6.5638
14.2013
2.41589
1.15938
-128.506
-8.69671
-6.05274
10.7078
-134.711
6.56986
-127.152
16.3565
-48.7352
-4.18065
17.6786
15.8247
5.18306
-3.54675
-58.865
14.5121
-0.190625
16.4271
6.25449
-2.485
13.046
3.4893
2.91359
1.47311
-5.56524
-7.51679
8.15603
-1.37561
18.1093
3.67577
25.7943
-1.29379
2.80959
15.9979
0.706154
3.33186
13.9761
11.4409
8.01574
-10.6101
-0.566923
12.5926
8.53108
4.62968
-10.8721
-2.40906
-4.4094
-62.9174
-6.12149
11.2518
0.513187
9.97642
-2.14633
21.7779
16.3258
4.02242
10.9729
3.79256
-116.522
11.8223
9.51409
-0.273774
5.37908
16.3925
14.6681
-0.791214
-11.4986
-23.4482
11.9148
6.03454
-2.47829
13.8576
-9.3567
12.435
-33.9591
12.9265
5.37769
-0.78015
4.87295
15.3494
-1.64633
13.6361
17.5441
2.01363
-4.10786
6.54456
0.17682
20.5136
-31.9431
18.5711
15.5571
-46.3133
-5.87009
0.0175364
-5.50866
-11.8714
-3.80007
12.221
18.7203
14.5112
19.0502
8.40142
17.2731
4.69852
1.37208
5.28431
0.797529
0.341166
10.9384
0.461714
19.7534
2.88217
-123.391
8.73623
19.5643
20.5688
-21.3101
7.56529
-8.04842
-53.4721
5.83201