/*--------------------------------*- C++ -*----------------------------------*\
| =========                 |                                                 |
| \\      /  F ield         | OpenFOAM: The Open Source CFD Toolbox           |
|  \\    /   O peration     | Version:  2306                                  |
|   \\  /    A nd           | Website:  www.openfoam.com                      |
|    \\/     M anipulation  |                                                 |
\*---------------------------------------------------------------------------*/
FoamFile
{
    version     2.0;
    format      ascii;
    arch        "LSB;label=32;scalar=64";
    class       surfaceScalarField;
    location    "1.2";
    object      phi;
}
// * * * * * * * * * * * * * * * * * * * * * * * * * * * * * * * * * * * * * //

dimensions      [0 3 -1 0 0 0 0];

oriented        oriented;

internalField   nonuniform List<scalar> 
20045
(
0.760622
-0.828226
0.0676036
-1.61463
0.573482
1.04115
0.46809
2.56476
-3.03285
0.284253
-0.39091
0.106657
-1.24745
1.22919
0.0182635
-0.838505
3.23483
-2.39632
-1.52936
0.682019
0.847337
0.101926
0.642533
-0.744459
0.696797
0.644512
-1.34131
-1.2538
-0.189579
1.44338
0.94536
0.127522
-1.07288
3.36518
-1.6681
-1.69707
0.546752
-0.559735
0.0129831
-1.91932
1.59526
0.324064
-0.511748
1.60734
-1.09559
-1.67155
0.417748
0.127191
0.813684
-0.940876
1.3959
-1.08943
-0.306469
-2.60551
3.75914
-1.15363
-1.12779
0.0751935
1.0526
0.692164
-0.633576
-0.0585882
0.179315
0.367437
-0.189842
-1.42479
0.7322
1.21876
-1.95095
1.26093
0.299741
-1.56067
-1.31181
2.04401
-0.693723
0.655336
0.0383867
-1.67346
3.18526
-1.5118
2.61241
0.333147
-2.94555
-3.02109
1.73312
1.28797
-0.171215
-0.557083
0.728297
2.18334
-1.51225
-0.671091
-1.23592
2.15166
-0.915735
3.28078
-1.88937
-1.39141
-0.831004
0.93293
3.35117
-1.68462
-1.66655
2.17045
0.363178
-2.53363
-0.0992488
0.593342
-0.494093
-2.99709
1.15553
1.84156
0.924696
0.757733
-1.68243
0.0873609
0.608218
-0.695579
0.259418
-0.354097
0.0946792
3.25135
-3.25086
-0.000491649
2.24272
-0.844317
-1.3984
1.03729
1.20543
1.60063
1.76455
0.478275
0.178584
-0.65686
1.86439
0.853507
-2.7179
2.78391
-0.613458
0.205406
2.66024
-2.86565
1.96076
-3.3199
1.35914
2.76231
-2.06386
-0.698453
-1.70284
-1.43569
3.13853
-0.137334
-0.455261
0.592595
1.26353
-0.298769
-0.964765
-1.03961
-0.207839
0.139886
2.16642
-2.30631
2.47787
0.0978775
-2.57575
1.11689
-2.35281
3.15935
-2.14837
-1.01097
0.777363
0.274716
-1.05208
1.25143
1.90791
1.54127
-2.92477
1.3835
0.569633
0.122532
0.966767
0.325658
-1.29242
2.43974
0.380105
-2.81985
-0.119963
0.406081
-0.286118
-1.01535
0.226289
0.789059
1.266
-0.569203
2.83054
-2.87831
0.0477733
-0.26953
0.149567
-0.162964
1.4265
-0.37961
-1.53701
1.91662
0.168166
-0.244081
0.0759149
2.69503
-0.440155
-2.25487
2.05961
-1.91973
-0.102447
2.79748
0.631853
-1.1436
-0.798246
0.526828
0.271418
0.802265
-1.73607
0.933805
1.56448
1.79406
-3.35855
1.37391
-1.06934
-0.304575
2.59012
-1.04886
-3.36927
0.64822
2.72105
0.0311725
0.72945
-0.846198
0.993654
-0.147456
1.75869
-1.85091
0.0922257
-2.4078
0.0996088
2.30819
1.52154
0.277255
-1.7988
-1.2923
1.16746
0.12484
-2.22708
-0.360798
2.58788
1.0788
-0.184552
-0.894244
0.613509
-0.877524
0.264016
-0.230936
-1.21866
1.44959
0.8903
-0.946507
0.0562071
2.2207
0.601913
-2.82261
-0.43295
-0.260773
0.0513457
-0.498316
0.446971
1.82479
-0.900095
-0.0912473
0.929797
-0.838549
2.29104
1.06013
-0.729648
-1.18968
-0.532285
0.583631
-0.416015
2.89389
-0.0362459
-0.809952
-1.03447
0.943219
0.631022
1.80491
-2.43593
1.86169
-2.72348
0.861795
-0.319971
-0.700583
0.606686
0.0938971
-0.400165
0.499502
-0.0993374
1.87419
-1.34492
-0.529263
-0.744363
0.607029
1.98311
-3.17418
1.19107
-0.273556
0.49922
-0.225664
0.0796758
-0.48398
0.404305
1.73618
-0.475249
2.43286
0.847918
-1.72081
1.3412
2.06763
-3.0176
0.949975
0.958229
0.437673
0.846672
-0.0693092
-1.17155
0.95555
0.216001
-1.1354
0.145314
-0.874462
0.729149
2.01389
0.748423
1.68799
-2.12959
0.441597
2.38145
0.29394
-2.67539
-3.04913
2.39992
0.649212
-0.642505
-0.928008
1.57051
2.94321
-0.929321
-0.801888
0.980472
0.252107
-0.192962
-0.0591447
-0.0248818
-0.0698832
0.0947651
1.70357
1.2182
-2.92177
1.79358
-1.71389
-0.0796832
-0.556618
0.219403
0.337214
-0.493531
-0.207052
3.37868
-1.31105
-0.96765
1.03705
-0.0693992
1.83285
-3.00355
1.1707
0.685528
-2.38837
1.70656
0.706342
-2.4129
1.90667
-1.1044
2.90816
-0.38087
-2.52729
0.324926
-2.05214
1.72722
3.05941
-2.48467
-0.574737
-0.254755
0.637791
-0.383036
0.0446079
2.91204
-2.95665
3.18096
-0.568551
-2.48011
0.0833363
2.39677
-1.4155
1.25449
0.16101
3.01912
-1.45464
0.510133
0.863781
-1.90504
2.28605
-0.381008
-2.09512
2.56321
0.0392891
-0.576584
0.537295
0.326957
-0.383284
0.0563274
-0.0495185
-0.562072
0.61159
2.69904
-0.225092
-2.47394
3.82971
-1.85915
-1.97056
-0.662649
0.613131
0.860353
-1.95794
1.09759
0.316134
-0.056716
-2.47987
-1.44947
2.01962
-0.570151
-2.01213
1.49991
0.512214
-0.0449889
-0.0869254
0.131914
0.785186
2.27422
-0.158154
0.133272
-0.109152
0.361259
-2.08717
0.182129
-2.2273
2.79145
-0.564152
-1.9593
2.27976
-0.32046
-1.8104
-1.26526
3.07566
-0.0315009
-0.634057
0.665558
1.30674
-1.43281
0.126073
2.2422
0.41935
-2.66155
0.0137704
-2.26726
2.25349
-1.12327
2.82982
0.59341
-1.63386
1.04045
-1.17532
3.15843
-2.49374
1.6217
0.872036
-0.198737
0.200357
-0.00162002
1.12018
-3.24614
2.12596
-2.58262
0.909155
-1.84142
-1.18323
2.85717
-1.77041
-1.08676
-0.79128
0.878641
0.481886
-0.513286
0.0313995
-2.30135
-0.581554
2.8829
-2.33692
3.29316
-0.956239
2.82406
-1.94572
-0.878342
0.251679
-0.783156
0.531477
-0.65642
-1.51213
2.16855
-0.0621305
1.00749
-1.32983
0.687323
-1.98688
-0.694797
2.68168
0.343671
0.0891181
-0.432789
0.334561
-1.78403
0.508886
-0.680101
2.55821
-0.176758
-0.489762
0.390513
-0.502792
0.599269
-0.096477
-0.300875
2.99991
-2.28462
1.6282
0.955156
-0.0416988
-0.913458
-2.07752
0.405857
1.67166
0.995516
1.82855
3.39496
-2.27478
2.0096
-3.31512
1.30552
0.683357
-1.98067
1.29731
0.0913168
-1.21911
-1.45187
2.08289
1.94946
-2.78796
0.683584
-1.93769
1.25411
-3.29658
1.81845
1.47813
-0.0847495
-1.20755
0.542401
0.423742
-0.966143
2.06576
-0.547707
-1.51806
1.05699
-1.98972
2.03432
-0.76013
-0.20752
1.84283
3.17894
-2.73455
-0.444395
-0.0329411
-0.411572
0.444513
1.99793
0.287808
-2.28574
0.514266
0.336454
-0.85072
-0.206158
1.7539
-1.54774
-0.291406
2.05009
1.69738
-1.10397
-0.227768
0.591735
-0.363966
2.4831
-0.65025
0.33876
-0.0344966
-0.304264
0.496107
0.14673
-0.642837
-0.403726
0.419043
-0.0153176
2.826
-1.84276
-0.983239
0.717923
-3.05485
-0.44656
0.0428342
-2.62175
0.844168
1.77759
2.95434
-0.802678
0.716274
-2.94357
3.70376
-1.73474
-1.96902
-0.0525863
0.396258
2.63856
-1.05044
-1.58812
-1.84827
0.428461
1.41981
-2.97626
2.97731
-0.00105468
0.807456
-2.18454
1.37709
-0.259952
0.1252
0.134753
-1.42706
1.90938
-0.482316
0.0139521
-0.447876
0.433924
-0.455824
0.182267
-0.478677
0.0785123
-1.91548
-0.808006
1.36273
-2.17445
0.811727
0.665667
-0.767118
0.101451
1.2133
0.970038
1.70187
-1.01829
0.08237
0.244587
1.83658
1.11776
-1.4658
0.00436245
1.46144
0.793266
1.84529
1.1303
0.477041
0.75695
-0.0912822
-0.848045
-0.0543021
0.902347
-0.0518931
-0.146844
-1.88285
1.6767
-0.598524
0.843609
-0.245084
-2.65579
2.53446
0.121335
-1.28691
1.74348
-0.456572
-0.615766
-0.331147
0.946913
2.25017
-2.44823
0.198058
-1.97286
-1.32372
3.82007
-2.55189
-1.26818
-0.328102
0.295161
2.43272
-1.62526
-0.926633
2.28936
-0.251922
-0.775487
1.02741
2.48372
-0.312781
-2.17094
3.15567
-0.33341
-2.82226
-1.12141
0.869487
2.47554
-1.43715
-1.03839
-0.479878
2.33512
-1.85525
1.56254
-1.9739
0.41136
-0.0208695
-0.681739
0.702609
0.878455
0.0566939
-0.935149
3.42781
-2.6796
-0.748211
-1.66445
-1.38468
2.36827
0.810672
-2.4011
-0.25469
-0.168569
0.664675
0.576407
-2.42362
1.84721
0.0131514
0.468735
-1.60614
3.30971
1.03689
1.78911
3.10881
-1.94206
-1.16674
-2.87529
2.1805
2.27995
-3.53809
1.25814
-1.82705
-0.130527
1.95758
-0.671074
-0.540121
1.2112
1.61996
-0.759606
0.17367
0.781486
0.671001
-0.0600681
-1.45218
-2.10569
2.95013
-0.84444
-0.588684
0.0858921
-0.201185
-0.0265832
0.351478
-3.32773
1.70274
-1.99414
0.482563
-0.799671
1.04778
-0.248113
-0.0167518
0.301005
-1.53765
1.08841
0.449239
1.02347
0.850711
-1.11386
1.63397
-0.520116
1.45115
0.342421
-1.89643
2.47283
1.71964
-0.198095
-0.611438
-1.46608
2.82308
-2.0118
-0.811279
2.80292
-2.75203
0.908893
1.84314
2.37548
-2.60153
0.226048
-1.28149
1.05055
-0.380747
-0.175871
-0.349866
-1.87722
0.834132
-1.61666
0.782527
1.26633
1.20921
2.24927
-3.19175
0.942487
0.656238
-1.59884
0.942606
-2.91109
0.503287
0.0248239
1.05397
-1.77933
2.78863
-1.0093
-0.761742
0.93199
-0.170248
-1.19446
-0.334901
-0.391581
-0.663362
1.05494
0.293256
0.00406418
-0.297321
-0.996216
-0.419283
1.12784
1.33935
-2.46719
2.52106
-1.72779
0.940229
-1.32381
0.0423248
1.37553
-0.719288
-1.98977
-0.503965
-0.388793
0.332357
0.056436
2.89889
-1.0345
-1.34492
2.23777
-0.892842
-0.36243
0.416329
-0.0538986
2.24185
-0.176083
-0.735675
-1.68794
-1.4645
2.71972
-1.25522
2.02977
-3.24959
1.21982
1.58728
2.2328
0.542595
-0.315086
-0.22751
0.280915
-2.10797
2.03395
-3.09514
1.06119
0.325563
-0.157397
-0.195578
1.88357
-0.231
1.93374
-1.29794
1.98129
0.602521
-3.20803
-2.80672
1.55132
1.2554
1.91017
-0.286449
-1.62372
2.79009
-0.539919
-1.20264
-1.59979
-1.42545
1.26604
-0.0977119
-0.965308
1.06302
0.952052
-0.876858
-2.10707
1.91149
2.6088
0.642554
-2.34763
1.0027
3.15685
-0.788575
0.41985
-0.458122
0.0382726
0.0112999
-1.8286
1.8173
-2.69618
0.497747
2.19844
2.48092
-2.48092
-0.798451
2.57243
-1.77398
0.813068
-1.92692
1.96823
-1.21361
-0.754617
-2.71728
2.85921
-0.141921
1.0047
-0.140355
-0.864345
0.793264
-0.325965
-0.467299
0.336033
-0.951799
-0.8996
1.45698
-2.38361
-2.42735
2.88126
-0.453912
-0.842656
1.97049
-0.519009
-0.174261
0.69327
-0.355755
0.650463
-0.294708
-1.13352
1.22484
2.93748
-2.37222
-0.565255
-0.248806
-1.56809
1.8169
-0.694143
0.756376
-0.062233
0.382989
-0.842492
0.459503
-3.16172
1.32945
1.83227
-0.282826
-0.108084
0.501101
-0.0812514
0.251301
0.718193
-0.969493
1.40902
2.01879
-0.848978
0.329969
-0.195044
-0.841692
1.03674
-1.48067
2.3646
-0.883926
-0.0954005
0.329725
-0.234324
1.29793
-0.615912
1.95611
0.967601
-2.92371
0.00840142
-1.22706
0.0274121
2.21478
1.25008
0.917271
-2.16735
1.40705
-1.25747
-0.149574
-3.04747
0.567356
-1.26276
0.568014
0.69475
1.17311
1.53386
-2.70698
-1.85605
1.72552
0.201922
-2.72207
2.52014
-0.388052
0.639731
-0.235038
0.256909
-0.0218703
0.0564953
-0.90454
-0.424277
0.731557
-0.30728
-2.01559
-0.606169
1.81868
0.47527
0.10466
-0.579929
-0.377626
0.0151955
0.487481
-2.11396
1.62648
0.589384
1.61314
-2.20252
0.915102
-2.16084
2.57181
-0.410973
-2.13373
1.65385
0.177122
0.478215
-1.21563
-0.796499
-0.778223
0.206815
0.571408
-2.54444
1.06377
1.9932
-2.242
0.98482
2.17203
-0.879124
0.897831
-0.0187062
0.957383
-2.39218
1.4348
0.457518
-0.814178
0.356659
1.63534
-2.37101
-1.91421
-0.0450913
-0.942327
-0.0730207
0.110113
0.68982
-0.799933
0.964621
0.0692991
-0.224428
0.155129
2.51864
-1.34553
-2.36621
2.64366
-0.277448
0.772943
0.547069
-1.32001
-1.0961
0.708047
-0.647002
-0.131221
1.10733
0.860897
-0.778163
-2.23944
-0.255067
-0.133726
1.82683
1.23791
0.481729
-2.50716
2.71257
0.245906
-1.32355
1.07764
-0.26753
-2.47843
2.74596
0.341549
-0.352419
0.0108699
0.784488
-0.815989
-0.443367
2.00591
2.22535
-1.90042
-1.26707
-0.270579
0.0255269
-1.22647
1.20094
1.19795
-3.00834
-0.322619
-1.43381
1.75643
0.135828
-0.568238
0.432411
-1.96162
0.140528
1.82109
2.85278
-1.99927
-0.0531958
0.265646
-0.21245
-0.644719
-0.0494243
0.551073
1.04206
-1.59313
0.38973
-0.48131
0.0915795
1.98238
1.12443
-3.10681
-1.1888
3.4095
0.289122
0.00413401
-0.750871
-1.66293
2.4138
1.20693
2.17175
2.66165
-2.07226
-1.05288
0.661298
1.01212
-0.13366
-1.11791
3.39785
0.440396
-2.31373
1.87333
2.80096
-0.423673
-2.37729
-1.31774
2.09574
-0.778002
1.2172
-1.00303
-1.46436
2.46739
-1.11166
0.886947
0.224712
-0.888044
-1.41344
2.30149
0.262256
-0.618011
0.100873
-0.145862
1.50131
-2.38936
-2.10756
-0.62144
2.729
-0.189065
-1.41468
1.60374
0.122892
3.46447
-3.55617
0.0917071
0.642017
-0.43836
-0.203657
0.0308767
-0.910001
0.768821
0.680773
-0.933532
0.262457
-2.37439
3.01327
-0.638872
0.105472
-0.703996
1.16443
0.742233
-2.53727
-0.713591
0.214587
0.85096
-1.06555
1.60787
-0.369957
-0.609085
0.671493
-0.0624072
-0.462748
0.4767
-3.45478
1.61336
2.70683
0.527997
-0.377142
0.760131
-0.607803
1.38075
2.35643
-0.899454
-0.629208
0.0201229
-0.273911
-1.83316
0.701881
0.682697
-0.643408
-2.74207
0.0458909
-0.533429
0.635269
-0.17775
-2.9837
1.8897
1.094
2.40294
0.427596
0.568586
-0.18447
-0.384116
0.814447
-0.765404
-0.0490426
-2.63146
0.946845
-3.01538
1.55088
-0.816324
0.660795
0.155529
0.0555909
-0.326999
0.271408
3.1756
0.0243602
-3.19996
0.534689
0.0342031
-0.568892
-0.399364
-0.772187
0.673581
-0.0600724
-0.013984
-0.0380532
0.0520372
1.14363
-0.185126
-0.958507
-0.150831
0.136847
2.51005
-1.90814
-0.0864274
-0.424194
0.510622
-3.03951
0.665117
-0.0346816
0.108631
-0.640915
-0.329175
0.804445
0.0352072
0.0471628
0.734974
0.449082
-1.18406
1.22349
-0.256726
1.25648
-1.01058
0.64383
-0.564154
0.204479
-0.966222
1.74671
-0.208077
-1.53863
1.57593
-0.0854724
-1.49046
-1.74695
-0.305193
0.439255
-0.0559799
-0.383275
1.14359
-1.31171
0.16812
3.19282
-0.0652628
-3.12756
0.435901
-0.293135
-0.142766
-1.47311
1.94669
-0.473587
1.42215
1.7277
-3.14984
-0.72686
1.00158
-0.771143
1.27334
-0.502201
0.636884
0.275987
-0.912871
-2.59617
1.21923
1.37694
-0.0724949
0.0344416
-2.52296
0.415398
0.899925
-0.555335
-0.34459
1.42328
-1.82919
0.40591
-0.250766
-0.57746
0.5082
2.95627
2.44433
-0.40149
-2.04284
-2.49081
0.329973
1.00572
-1.61716
2.00601
-3.23729
1.23128
-0.294924
0.837325
0.109645
-1.17666
0.981619
-0.472334
0.617648
-0.342232
-2.17795
2.52018
1.09318
1.33954
-2.16861
2.31577
-0.147157
-0.625117
0.735231
-1.95081
-0.760066
-0.354713
0.39271
-0.037997
0.500149
-1.0011
0.500953
0.161591
-0.120435
-0.0411563
-0.235421
1.6587
-2.34614
-0.516144
2.86228
-2.24632
-0.698327
2.94465
1.43793
-1.08528
-0.352653
-0.633306
0.0745634
0.558742
0.21877
-0.622697
0.403927
-2.87638
0.122017
2.75437
0.0840274
0.54916
-0.633187
2.36987
-2.65322
0.283348
-1.53825
1.31634
0.343356
-1.65969
0.022389
-0.377102
-0.673717
-1.11207
1.78579
1.86715
-3.04247
-2.84073
2.46564
0.37509
0.466651
-0.0769201
1.93812
-0.773687
-0.175175
-0.76979
0.944965
-0.0296901
0.480287
-0.450597
-0.888948
2.65022
-1.76127
2.16323
-2.35624
0.193001
2.9942
-2.84598
-0.148215
2.38884
-1.02749
-1.36135
0.138209
-0.670146
0.531937
-0.845303
-0.0291589
-2.86719
2.51254
0.354642
0.191345
-3.05853
-1.77415
3.21834
-1.44418
-1.71059
-0.969011
0.563986
-0.48763
-0.0763561
-2.37575
-0.663759
-0.539632
0.356974
0.182658
0.787668
-0.273401
-2.75686
2.61764
0.139222
-0.649082
0.00269267
-0.246774
0.570483
-0.0357942
-1.8056
0.378535
0.403156
-0.484918
0.0817616
-1.20309
1.06459
0.138503
1.04712
-0.0424203
-0.764712
1.87259
0.369262
1.06506
0.230613
0.839004
-1.06962
-0.348764
1.6555
-1.83675
1.15596
0.680787
0.0503011
-0.122796
2.40795
-1.31477
1.99944
-1.04205
-0.664401
-0.526085
1.19049
0.898813
-2.22771
1.3289
1.61869
-1.80776
2.93165
-1.2837
-1.64794
-0.0153368
-1.52363
-0.31312
-2.27562
2.94382
-0.668207
-0.0188678
-0.775491
2.78509
-3.10706
0.731307
-0.641643
0.620774
-0.344401
-0.819879
0.432396
-0.0133532
-1.44481
-1.54752
3.40646
-1.34685
0.759838
-0.54568
-0.214158
0.188095
0.605169
-1.97785
-1.07134
3.04919
0.437037
1.18292
5.06542e-05
-0.417034
0.416984
2.4585
0.303425
-0.0524696
-0.250955
1.54482
0.201888
-1.09754
-2.93805
0.510705
-0.636031
0.03214
0.603891
1.67704
2.02672
0.740196
0.263878
-1.00407
2.87925
0.11495
1.74488
-2.48653
0.741643
-2.45843
-0.0402182
2.49865
-2.32717
2.97984
-0.652673
0.393567
-0.00490076
-0.388666
-1.13375
3.0009
0.0700156
0.740193
-0.810209
0.132772
-2.30138
0.685418
-0.122789
-0.562629
-2.71473
3.54969
-0.834956
-0.724845
1.58665
-0.8618
3.476
-1.52709
-1.94891
-0.000491103
-1.7643
1.7648
0.226677
0.0302319
-1.36958
2.79173
1.6707
-2.46915
3.15107
-1.12131
-0.532225
0.445798
-2.56306
0.104633
3.374
-1.12474
-0.0730778
-3.29619
0.683731
-0.0755131
0.763512
1.63655
-2.40006
1.634
-0.372998
-1.261
1.96622
-2.88871
0.922493
-0.48361
0.0313051
0.452305
-0.593035
-1.38514
1.97818
1.04632
-0.84184
-1.44464
0.477348
0.967296
0.417936
0.808797
-1.22673
0.233956
0.33003
-2.54857
3.00498
-0.456407
0.308604
0.0329447
1.30948
0.595682
-1.90516
1.41265
1.08471
-2.49735
0.454301
1.45587
-0.0618846
2.97004
0.0125167
2.33604
-2.34856
-0.0951204
-0.000280021
0.0234703
0.304044
-0.327515
1.96919
-1.79198
-0.17721
1.32986
1.60179
1.02166
-0.923949
-0.0977156
-0.829596
2.4318
-1.60221
0.0354313
0.460443
-0.495874
0.981073
-2.03587
1.0548
-1.7055
-0.504601
2.2101
2.40774
-0.409815
0.886957
0.747042
-1.41935
-0.0746559
1.49401
0.859695
-2.42779
-0.38512
0.837552
-0.452432
0.554273
-0.231211
-0.323062
-0.0361629
0.26284
-0.251054
2.55484
-2.30379
-0.358995
3.01924
2.32692
-1.90707
-0.419845
1.88833
-1.61108
-1.59553
0.514654
1.08087
0.129567
-1.34318
-0.643623
0.497671
0.145951
0.169384
0.399202
0.451394
2.19796
-2.64935
0.59905
0.544583
0.349408
-2.59573
-1.2666
0.5391
0.727495
-0.918042
-0.724004
1.64205
1.38868
-0.653704
-2.50952
1.66687
1.04352
-0.793353
-0.250167
-1.48561
2.29282
-0.807214
-1.30347
1.31187
-1.25864
1.64773
-0.38909
-1.9581
2.70657
-0.748466
-0.0662024
0.612514
-0.546312
0.43583
-0.380239
-0.956618
-1.87747
2.84435
-0.966881
-1.59709
2.00294
1.50771
-1.51822
0.0105096
-0.0951413
-0.617019
0.71216
-3.23252
2.34671
0.885813
-0.0131928
-0.25123
0.264423
-0.0739901
1.7075
-2.59645
2.06488
-1.16607
-1.16762
-1.6391
-2.08
2.09252
1.4807
0.0192147
1.08844
0.441226
-1.52966
-0.947144
0.879826
0.0673173
0.964843
-0.805469
-0.159374
0.367308
-1.2455
0.878194
-0.596091
1.4335
-0.837406
-2.25465
-0.618416
2.87307
0.554572
-0.649713
1.55468
0.414509
-2.70829
2.07999
0.628302
0.816224
-0.0933905
-0.722833
0.0158922
0.505377
-0.666112
0.160735
-1.95479
-0.974742
1.34205
0.393618
0.578229
-0.44002
0.91034
-0.410191
0.549249
-1.47726
0.0931417
0.797159
-0.976741
0.419914
0.556827
-1.7228
-1.30052
3.02333
-0.386279
-1.03307
-1.5081
-0.265033
1.77313
0.393853
0.503031
-0.896885
-0.0899947
3.29303
-2.1196
-1.17343
0.528309
1.91602
0.153094
1.30889
-1.18506
-0.12383
-0.782936
2.16885
-1.38592
-1.67458
-0.695288
2.36987
-1.31197
0.540829
-1.22114
-0.374382
3.36827
-1.35505
-2.01322
-0.58783
-0.00734695
0.595177
1.14798
0.156274
-1.30425
-0.473248
0.557276
-0.739834
1.29097
-0.551139
0.0491055
-0.0656078
-0.597042
-0.0340369
1.96803
1.40025
-1.44426
2.59978
-0.92171
2.65483
-0.63979
0.0519606
-2.49012
0.815539
2.10278
-1.82186
-0.305676
-1.82158
0.34847
1.14407
-2.91822
2.0863
-2.075
2.44948
-0.074005
-0.566641
-0.310884
-0.762996
-0.280595
1.04359
-0.856824
-0.0896834
2.19351
0.379806
-2.57332
0.0628038
-0.744464
0.68166
0.0392902
0.970315
-2.78009
1.80977
2.53889
-0.169017
-2.62435
2.73445
-0.110092
0.628749
-0.40246
-2.95047
-0.28205
-0.938171
2.57891
-0.0663622
0.870826
3.23999
-1.23294
-2.00705
-1.84836
-0.124062
1.97242
0.310871
1.55595
-1.86682
-2.0387
0.0770843
-0.52697
-0.375139
0.902108
-1.38642
1.82681
0.419986
1.52002
-1.94001
-2.17673
0.238535
1.93819
-2.73102
0.281029
2.44999
0.582791
1.48209
-0.64576
1.58534
0.803501
-0.8354
-0.427364
2.15427
-2.53514
-0.0176216
-0.979954
0.997576
-1.21644
0.489584
1.9716
0.15106
-2.12266
1.78055
-2.70226
-0.0560703
-0.203882
-1.44283
2.7798
-1.33697
-1.743
1.06928
-0.0389639
0.775448
-0.736484
0.716582
-0.882102
0.165519
0.734909
0.049579
-0.731359
1.73708
-0.135956
-0.680367
-0.435875
0.458264
1.00013
-0.663674
-0.00639645
0.131596
-0.5556
0.533949
0.0216506
0.574023
-0.646781
0.0727583
-2.09784
1.65769
0.364668
-1.87276
-0.0233381
-0.767942
0.0449688
1.61751
-1.66248
0.911778
-0.96608
0.924787
-2.35792
1.43313
-1.09616
1.96967
-0.873511
0.724951
-2.83064
0.187483
-0.0804642
-2.76026
1.33581
2.07065
-2.20802
-0.301499
-1.95836
-0.79367
-1.17117
0.507806
0.322474
0.399327
-0.721801
3.34003
-1.66299
2.69215
-0.658201
-0.661225
-0.435922
1.09715
-3.01796
1.18995
1.82801
0.986833
-0.859311
-0.306809
1.62315
0.451487
-0.272172
-1.36156
0.768536
-0.69852
-1.1745
1.28416
-0.109664
-0.354197
2.54771
0.507333
-0.56478
0.0574472
2.54423
-3.68634
1.7175
1.96885
0.6889
0.553487
-1.24239
0.774485
-0.191644
-0.582842
-1.48845
0.763608
-1.00417
0.0142453
1.13373
2.64963
-2.91716
1.14395
-0.507063
-1.16009
2.01978
-2.95502
2.12347
0.831549
1.08224
-2.14673
1.06449
-2.02783
2.15511
-0.127283
1.1981
-1.54686
0.0377424
0.6799
0.758029
0.059473
-1.79554
0.568246
-2.60347
1.13529
1.46817
0.688688
-2.53705
2.17197
-0.145812
-1.70246
0.34684
0.790077
3.02035
-1.00074
-2.01961
-1.2524
0.766156
-1.6842
0.438588
-2.77779
2.65373
-2.1306
1.12757
1.40503
-1.96136
2.25758
-0.29622
-2.65553
1.78263
0.872903
-0.849569
-0.351076
0.486904
-2.82474
1.9902
0.834542
1.81725
-2.951
-2.49635
-0.0522273
3.21692
-1.21091
0.846871
0.502638
-1.34951
-0.0656941
-0.42855
0.494244
0.290232
1.41933
1.56849
-2.62051
0.659151
0.503426
0.542893
0.678373
1.00187
-1.68024
1.05442
-0.630674
-0.143433
-3.07563
3.21906
-0.991646
1.22134
-2.34461
-1.75523
-1.17274
2.92797
0.699368
-0.88392
-1.93591
0.623501
1.31241
-0.0314626
0.069129
-0.0376663
2.49024
-2.83247
1.07448
-2.51732
1.31692
0.778723
-2.09564
0.658822
0.101016
-2.32535
0.660175
1.66517
-2.32658
0.621083
1.37558
-2.15851
1.13558
-1.1532
0.00537876
-0.0368414
-0.11903
2.91999
-1.77305
2.18083
-0.407781
2.85628
-0.0147474
-2.84153
-2.14013
-0.0532942
-0.746377
0.149278
2.33164
0.326417
0.0899119
-0.664401
-0.624197
1.43726
1.49732
0.284861
0.679982
-2.59973
-0.157136
-2.57649
1.25496
-2.3054
0.484522
0.523564
-1.00809
2.48473
0.1358
-2.62053
-0.293484
0.288583
-0.925152
-2.09023
-2.25273
-0.348797
-0.987733
2.76829
-0.947388
1.2905
-0.343109
-2.51644
0.793636
-0.774424
1.4528
-1.17731
-1.8064
-0.759595
-0.874965
1.00104
-1.31215
0.109059
3.03386
-0.454956
0.870364
-0.871557
0.00119274
0.317895
0.27384
0.712192
2.92048
-2.71856
0.0419064
-0.626887
0.890903
-1.44439
1.44875
-1.26903
-1.42901
0.588091
0.481689
-1.06978
-2.54971
0.068787
-0.318843
2.16652
-1.84768
-0.286953
-2.3374
-2.00433
2.29214
3.51692
-1.51939
-1.99754
-0.330351
0.898365
2.41631
-1.30977
-1.10654
0.716249
-0.781857
0.475379
-0.451909
-0.515889
0.046516
0.469373
-0.404935
1.49337
-1.18325
3.0005
-0.0880535
-0.399576
-0.773116
-0.218564
0.99168
-0.03014
2.52038
0.49342
0.492711
-0.986131
-1.03514
1.58621
1.2062
1.22561
-0.948669
-0.317926
1.42566
-0.509956
-0.915705
-0.0682712
-0.206765
0.275036
0.308316
-2.2481
1.93978
-2.64653
0.393799
0.605001
-1.10519
2.36015
-0.0140727
0.730322
0.335363
-1.28275
-2.90578
1.48033
-2.7926
0.933449
-1.25307
0.119545
-1.1961
-1.59257
2.78868
-2.82099
-0.507891
0.372663
0.135228
2.49553
-1.84731
2.05935
-1.74847
0.430267
1.53674
-1.967
0.584132
-1.1111
-2.03907
-0.686745
2.72582
-0.396172
0.920831
-0.524658
-1.14941
2.39903
-1.24962
2.36725
-1.48044
-0.886811
2.40977
0.0661825
-2.47595
-1.49112
-2.19522
-0.907614
-0.0347131
1.06385
1.87936
-0.0447939
0.247055
-0.202261
-1.8708
-0.45455
2.02274
1.7364
-1.49624
1.77953
-0.283285
0.281479
-0.333949
0.329947
1.08767
-1.41761
-0.0589491
0.566282
-0.275353
-2.54939
-2.54945
1.0317
0.0118172
-0.393776
0.902662
0.199775
2.08045
-2.28023
-1.47232
-0.33328
1.81839
0.70267
0.199249
-0.69278
-0.115414
-1.0096
1.12502
0.286254
-1.01791
0.73166
0.483814
1.25967
0.614072
2.31252
-1.04619
2.57116
-1.34982
-0.30162
-0.683262
0.984882
2.08588
0.249245
0.0896485
-1.85696
1.26392
2.01903
-2.04917
-1.40544
-1.18191
2.58734
-1.71545
-1.30251
-2.77001
2.88927
-0.119259
-0.260906
-1.08397
0.803377
1.57099
0.741534
0.206191
-0.816437
0.610246
-0.933676
-1.94464
-0.466903
-2.11726
2.58416
1.3373
-0.900267
-0.948045
0.562925
1.62534
-2.55049
1.31003
-1.01029
-1.06965
2.84044
-1.77078
1.25854
1.42575
0.814361
-2.24011
2.9531
-1.8156
-1.1375
-0.979533
-2.13097
3.17716
-1.04619
1.18966
-0.319297
-0.76276
0.748688
1.19673
2.27927
-0.583559
0.517865
0.103716
-0.0344165
2.71222
-1.49402
1.28818
2.05185
-1.11338
0.577441
0.535943
0.654973
-1.31937
2.11722
-0.145615
1.70269
-0.855816
-1.9167
-0.286416
2.20311
0.507191
-0.0953542
-0.411836
0.383003
0.259015
0.40831
-2.73548
-0.754465
0.810961
1.94547
-1.72694
-0.218533
0.418657
1.007
-0.400043
0.215572
0.642218
0.65777
-1.29999
-1.37357
2.49046
0.291871
-1.44026
3.21102
-1.77075
-0.770581
1.18852
-0.59367
-1.58306
3.06976
-1.46653
-0.934569
0.540873
0.233612
0.800363
-0.823701
-0.476548
0.410345
-0.799559
-0.374379
-0.0032473
1.72075
-0.403699
2.31294
-1.90925
-0.826182
1.07748
-1.07751
0.307721
-0.879413
-0.0282012
-2.55663
1.80576
0.617986
0.655359
0.259094
-0.973901
0.714807
0.73087
0.262785
2.37241
1.25217
-3.62458
-0.254382
-0.0601573
0.31454
-0.4311
-1.93511
2.32884
1.18808
2.19632
-1.99655
-3.24888
0.180834
0.407108
-0.486415
1.28948
1.92857
0.6964
-2.62497
0.983126
-0.071348
-0.0987382
-0.87744
-0.235944
-1.52111
-1.34215
1.47172
0.623231
2.02043
1.60279
-1.61541
0.0126128
0.513715
0.0202339
-0.182827
0.668241
-0.0942181
2.13359
0.624784
-2.75837
-1.76398
0.589482
-0.604693
0.364347
0.240346
-0.916801
0.0110661
0.905735
1.20532
1.23947
-2.44479
0.629021
0.759657
1.9333
-0.0453681
-0.698995
1.05146
-1.67566
-0.226976
0.326784
-0.0998082
-2.70242
1.51919
2.3187
-1.86018
-0.45852
0.0453893
-0.387831
0.342442
2.43381
-2.68487
1.80716
-0.469851
0.693705
1.36564
-0.333468
-0.0409108
1.33619
-0.536339
-0.799853
-1.59453
-0.32798
3
-1.53614
-1.46386
2.60586
-0.982602
-1.62325
1.08707
-1.89281
0.805731
0.123256
1.41031
-0.0347858
-0.438702
1.56376
-1.12506
0.934952
0.40124
-0.889905
-0.572596
0.00781634
2.57129
0.0106429
-2.58193
-0.953631
-0.526498
-0.450243
-1.0265
0.102555
0.733368
2.04643
-0.424389
0.58598
-0.130786
0.0532251
-0.400542
0.364297
-1.09195
1.52222
0.0461587
0.636539
-1.08072
-0.910059
2.12336
-0.110683
1.71348
-0.432554
-0.299176
-0.650015
1.29223
-0.580058
2.29936
-1.71931
-2.2308
-0.292166
-1.17294
2.17598
-1.00304
0.0164
-0.588996
0.813006
-0.170472
-0.0564694
-0.624201
0.68067
-2.22188
0.755344
0.2854
-0.338596
1.30298
-3.28083
0.896087
-2.55901
-0.602231
1.82099
-0.899439
1.33884
-0.681072
0.0354612
-1.76561
2.07392
-0.0035501
-0.408022
0.395916
-1.48119
-0.250967
-1.62498
1.87594
0.766267
0.841965
3.34042
-2.18378
-1.15664
-0.583076
0.182227
0.600453
0.0596524
-0.660105
-2.19355
0.420496
0.474527
0.0797463
-0.0262401
-0.31916
0.3454
1.09778
-2.27073
0.227709
1.20602
0.0703941
-1.27642
-2.55305
1.97299
0.394714
0.102574
-0.497289
0.922009
-2.79948
-0.352942
-0.0155869
0.368529
0.514244
-0.11953
0.00487845
1.95388
-1.49958
1.62618
1.29935
-0.670332
-2.52194
0.766708
-1.81034
1.45144
0.358904
1.15884
-2.56427
-1.28925
-0.819732
2.10898
0.236617
1.01787
-0.76923
0.628875
2.97349
-0.426803
-2.54669
0.00931176
-2.60904
2.17618
0.233594
1.14907
1.26724
-0.395599
-0.0214355
0.383262
-0.763831
-0.852828
0.15782
-0.448112
0.290292
0.0531503
-2.74399
2.69084
-0.104623
0.724196
-0.619573
0.816701
-2.39367
1.57696
-0.256476
-1.45742
-0.095559
-0.066608
1.78394
-0.860965
-0.520778
1.38174
-0.928452
-1.08713
1.13996
-0.658266
-0.387604
-0.186628
0.574232
-0.765747
1.02484
-2.50597
-0.350564
-0.079176
0.42974
0.281218
0.832217
-1.11343
1.92467
-2.52254
0.597865
0.0187557
-1.44354
0.44616
-3.16089
-1.32788
-1.69255
3.02043
-2.55464
0.137992
2.41665
-3.39108
-2.08441
0.0565839
-0.702713
0.733464
-0.0307519
-2.75814
-0.97602
3.10961
0.956318
-0.507237
0.202143
-0.852158
-0.445493
1.20515
0.384087
0.221385
-0.9945
0.0477886
-0.392756
0.344967
-0.435429
0.180674
-0.264572
0.309961
-0.661424
1.35032
-2.79414
1.78738
1.00676
-0.967283
1.14095
1.58482
0.508043
-0.000852556
-0.665559
0.87175
-1.24105
-0.694862
-1.40129
0.513579
0.88771
0.0562431
-0.395289
0.339046
-1.01649
1.30274
-0.204618
1.87628
1.64907
-1.15565
1.45649
-2.38494
1.18492
-1.57239
0.387472
0.263235
0.00241101
-0.412801
0.0977153
-2.80022
1.60412
1.3003
1.30556
0.0391867
-0.518724
0.479538
-3.52534
1.43022
-0.489432
0.636162
-0.496727
-0.0474056
-0.557147
0.604553
-1.42931
0.56835
-2.70302
2.42767
2.35505
-1.03812
-0.56559
0.50763
0.0579607
1.0352
-0.184237
-0.379182
-2.89946
1.11684
1.78263
-0.36172
0.301562
-0.233098
0.816475
-0.583376
0.998452
0.808703
0.0268484
0.834826
-0.861675
-0.662935
0.709094
0.13365
0.191913
1.62101
-2.27089
2.70435
0.174895
-0.791398
-1.05951
2.51799
-0.0998057
-2.41818
0.119464
0.48557
-0.605034
1.4991
-2.9439
0.734533
0.609789
-1.34432
-0.0577707
-0.0873629
0.145134
-2.20798
2.20888
-0.000902453
-0.916684
1.84147
0.443489
1.71975
2.52182
-0.852634
-1.66919
-0.038894
-0.334162
0.373056
0.164933
-0.795088
-0.0502156
-0.773058
-0.0220299
0.0637093
-0.883411
0.819702
-0.223658
2.50838
-2.28472
-2.34446
0.906068
1.43839
0.710502
2.46509
0.109067
0.0677941
-0.176861
1.44766
0.641299
-2.08896
-0.391192
0.713666
-1.04625
2.67896
-1.63271
-2.21662
0.299927
1.75141
0.745987
-2.03523
-0.0042785
-0.301794
0.306072
2.48993
-0.52256
-1.96737
0.779338
0.556045
-3.12392
1.5764
2.83442
-2.97785
-1.36229
0.327601
1.03469
-0.0410042
-0.218184
-0.179868
0.398051
-0.974087
0.000426533
0.97366
-0.0267846
0.308547
-0.281762
-0.462209
0.49053
-0.028321
-1.4581
3.08343
-0.747516
0.773043
0.308691
-0.54179
0.94625
-1.39684
0.450586
-1.70211
-1.25291
-0.128686
0.347456
0.141381
0.0753105
-0.216692
2.95391
-0.932343
-2.02157
0.283327
1.66214
-0.608114
-0.33903
-1.44887
0.222405
0.78265
1.52465
-2.3073
0.00460715
-0.0649787
0.0603715
-0.0670871
0.881534
-0.54474
0.0300043
0.514736
2.43372
-1.15352
-1.2802
-2.53913
0.361181
0.948784
-1.73012
0.579566
1.15055
1.59624
-1.82724
0.567989
-0.459359
-0.224427
-0.188374
-1.41525
1.90479
-0.489533
0.37108
0.0804076
-0.319491
-0.314085
-0.60052
0.512467
0.177131
-0.470266
-1.14649
1.7934
-0.646914
1.86303
-1.05358
-0.809449
1.73357
-1.24976
0.611787
0.144589
-0.581422
0.482085
-0.0624452
-1.00689
-0.577742
-1.77849
-1.54928
1.11058
-0.301838
-0.320859
0.356858
0.157386
-0.0717491
0.0139784
2.32577
-2.31354
-0.0122255
2.64102
-1.28181
0.502823
0.778987
0.248003
-0.87489
-0.700098
-2.32321
-0.616384
0.52103
-0.428411
-0.686576
1.11499
-2.03887
0.441781