/*--------------------------------*- C++ -*----------------------------------*\
| =========                 |                                                 |
| \\      /  F ield         | OpenFOAM: The Open Source CFD Toolbox           |
|  \\    /   O peration     | Version:  2306                                  |
|   \\  /    A nd           | Website:  www.openfoam.com                      |
|    \\/     M anipulation  |                                                 |
\*---------------------------------------------------------------------------*/
FoamFile
{
    version     2.0;
    format      ascii;
    arch        "LSB;label=32;scalar=64";
    class       surfaceScalarField;
    location    "6.8";
    object      phi;
}
// * * * * * * * * * * * * * * * * * * * * * * * * * * * * * * * * * * * * * //

dimensions      [0 3 -1 0 0 0 0];

oriented        oriented;

internalField   nonuniform List<scalar> 
7520
(
-0.985221
0.795086
0.190135
-1.3389
-0.203035
1.54194
-0.0550513
-1.91164
1.96669
0.227942
-0.0303646
-0.197577
0.202936
1.73132
-1.93426
-0.0877916
0.0945203
-0.00672865
-0.310077
2.1282
-1.81812
-0.173807
-1.97157
2.14538
-1.54434
1.48929
0.832332
-0.0910348
-0.741297
0.400762
-0.224346
-0.176415
-0.259964
-1.60971
1.86968
0.696913
-0.103261
-0.593652
-0.0976511
0.135311
-0.0376602
-2.07187
0.949493
1.12238
0.0863843
1.54646
-1.63285
0.234928
-0.0761882
-0.15874
-0.131986
-0.31776
0.449746
0.0342834
0.0209012
-0.0551846
-0.0329657
0.267894
-0.38992
-0.286892
0.676813
-1.06947
1.15586
-0.0320823
-0.307126
0.339208
0.135879
-0.139677
0.00379852
0.111017
-0.310899
0.199882
0.246264
-0.241045
-0.00521887
0.859067
1.13226
-1.99133
-0.0351993
0.309064
-0.273865
-0.0245011
0.0587846
0.195548
-0.0315652
-0.163983
-1.14507
1.74096
-0.595892
-0.0472303
-0.0179127
0.065143
-1.84773
2.02814
-0.180417
-0.185527
-0.0153233
0.200851
-0.312437
-1.25268
1.56512
-0.396798
0.973328
-0.57653
0.256392
-0.527698
0.271306
0.810569
-1.59098
0.780413
0.0895283
-0.309992
0.220464
-0.0439983
-0.0993255
0.143324
-0.0276098
0.255551
0.323088
-0.381955
0.0588666
0.281029
-0.034765
2.08605
-1.57245
-0.513602
-0.552571
-0.603931
1.1565
-1.48083
1.62152
-0.140694
-0.147992
-0.0817501
0.229742
0.257548
-0.0733083
-0.18424
-1.33877
0.193705
0.267266
-0.0728316
-0.194434
1.80038
0.181737
-1.98212
-0.723014
0.270384
0.45263
-0.0114481
0.0155102
-0.00406216
1.06412
0.478304
-1.54242
0.0145652
-0.102357
-0.767965
0.122367
0.645598
0.385033
-1.2595
0.874471
-0.0400983
-0.120497
0.160595
-0.114399
0.0671689
-2.19658
1.11973
1.07686
1.56392
-0.736856
-0.827067
0.0166737
0.159454
-0.176128
-1.30398
0.991544
0.819113
-0.1222
0.0179656
-0.0294137
0.00404043
-0.101692
1.13998
-2.35919
1.21921
0.134013
1.66637
-1.25141
0.978605
0.272806
0.307519
-0.23209
-0.0754285
-0.508427
0.893461
0.0150912
-0.627392
0.612301
0.331731
-0.090928
-0.240803
0.118996
-0.280492
0.161496
0.961728
-1.5521
0.590374
0.12438
-0.109013
-0.0153667
1.68872
-0.495598
-1.19313
0.40152
-0.747692
0.346172
1.68766
-1.19134
-0.496328
-0.824354
0.056389
-1.48483
-0.711758
1.15174
-0.671043
-0.480694
0.235496
-0.606575
0.371079
-0.35854
0.173013
-0.516811
0.384825
0.212162
-0.0166137
0.0115599
-0.0472365
0.0356766
1.01258
0.676148
-1.96115
2.29501
-0.333859
0.722701
0.841222
-0.956319
1.11082
-0.154503
0.0154078
-0.063156
0.0477483
1.36786
-1.62783
0.236901
0.191811
-0.102283
0.290556
0.261822
-0.552378
0.00733089
0.0814297
-0.0887606
-0.517828
0.380557
0.13727
1.40565
-0.443922
-0.712781
0.611654
0.101127
1.068
-1.66401
0.59601
-0.0862445
0.108263
-0.022019
-0.0309571
0.0438464
-0.0128893
3.02844
-1.85729
-1.17114
0.523887
-0.409534
-0.575687
-1.33707
0.828642
-1.92896
1.61888
0.160678
-0.077578
-0.0830998
0.318238
0.0825232
-0.154143
0.152997
0.00114607
-0.117354
0.153001
-0.0356473
1.95248
-1.14192
-0.0956199
0.0193072
0.0763127
-0.760944
0.371024
0.0259755
-0.0417468
0.0157713
0.560387
0.59135
-0.793755
0.499099
0.294656
1.25423
-1.56941
0.315177
0.0363808
0.0994978
-0.196169
-0.526845
-0.379952
0.0990225
0.280929
1.02681
-0.194478
0.591572
-0.496691
-0.0948809
-0.0535729
-0.0690814
0.122654
-0.194527
0.171166
0.0233609
0.701506
-1.84079
1.13928
0.37711
-0.409193
-0.341419
-0.0458504
0.387269
-0.0236431
-0.0719769
-0.314609
-0.24748
0.562089
0.138143
0.0319698
-0.170113
-0.0636368
0.20178
-0.600818
-0.192937
-0.608661
-0.529754
1.13841
-1.15948
2.24837
-1.08889
0.399998
-0.413009
0.0130115
-1.15329
-0.183778
-0.0331352
-0.0496031
0.0827382
1.40343
-0.33931
-0.639834
0.410898
0.228936
-0.00789769
0.126368
-0.11847
0.281512
-0.0724985
-0.209014
0.227576
-2.13922
0.323834
-1.80466
-2.70103
0.832483
1.86854
-0.836489
-0.414923
-1.435
1.40162
0.0333841
2.09031
0.248202
-2.33851
0.176791
-0.220789
0.507373
0.585722
-1.09309
-0.266888
-0.252862
0.51975
0.297076
-1.73208
-1.84443
-0.00329064
-0.00215615
0.0137161
0.0606145
-0.113331
0.0527166
0.278297
-0.318395
1.54272
-0.474725
-0.150812
0.123202
-0.0208324
0.00281245
0.01802
0.745529
-0.407436
-0.338092
-0.43514
-1.63673
-0.0553969
-0.211491
0.047404
-0.572666
0.525262
0.313612
0.117851
-0.431463
-1.57231
0.939148
0.633158
0.906876
-0.703939
-0.0611353
0.445788
-0.384653
-0.299859
0.410876
0.502356
-0.232426
-0.26993
0.812145
-0.521589
0.231954
-0.304786
0.874566
0.353358
-1.22792
0.291853
-0.327052
-0.335037
-1.4624
1.79743
1.29361
0.650836
0.678764
-0.443269
-1.33707
0.940272
-0.670323
0.895753
-0.22543
0.0103311
-0.0337112
0.0233801
0.270323
-0.311962
0.0416398
-1.01021
1.57059
-0.265622
-0.146358
0.41198
0.419508
-0.105897
-0.837069
0.884473
0.579127
-1.07116
0.492035
-0.501693
-0.0161346
0.660194
-0.403802
0.134904
-0.0105243
-0.298279
0.246665
0.0516143
0.0764773
-0.193831
-0.331627
-0.107333
0.43896
0.12798
0.203751
-0.987545
-0.564557
-0.751359
-0.820948
0.0117322
0.0415722
-0.0533044
1.23543
-0.194532
-1.0409
-1.48969
0.330216
-1.17905
2.16862
-0.989566
0.349723
0.152633
-0.431024
0.490803
-0.0597791
-0.769792
0.573623
0.577467
-1.13004
1.75232
-0.0610907
-1.69123
-1.43399
1.87628
-0.442289
-0.0210798
0.0816943
0.39648
1.52085
-1.91733
0.0332998
-0.162774
0.129475
-0.108738
1.79197
-1.68323
0.00134441
0.106938
-0.108283
-0.891637
1.24977
-0.358135
-0.125242
-0.64455
0.0776327
-0.409259
0.28262
-0.16967
-1.79101
1.96068
0.0266774
-0.00577629
-1.70103
0.713485
-0.197783
-0.237563
0.435347
0.0722633
-0.125836
0.12972
1.58517
-1.71489
-0.565701
-0.551132
1.11683
-0.492518
0.389928
0.10259
2.69319
-1.77327
-0.919923
0.444131
-1.00983
0.0467542
-0.0522346
0.0054804
0.109832
0.737177
-0.847009
0.0397311
-0.043104
0.00337292
0.840447
0.807801
-1.64825
-0.232768
-0.480013
-0.0594358
0.166424
-0.106988
-0.911592
0.693967
0.217625
-0.0672858
0.0368521
0.0304337
1.63362
-0.398185
1.05277
-1.97633
0.92356
-2.80085
1.21051
1.59034
-1.17466
-1.62619
-0.374502
0.49076
-0.116258
0.513134
-0.325891
-0.187242
0.909798
-1.68941
0.779611
0.0531332
1.06098
-1.11411
-0.704993
0.0339503
1.13533
-0.260764
1.20784
1.31887
-2.52671
-0.179742
0.0845437
0.0951987
0.0493812
-0.960974
1.86513
-0.479822
-1.3853
0.132941
-0.0996415
0.120455
0.179339
-0.255527
1.0639
0.801227
0.171458
0.68195
-0.853408
0.349891
-0.0408273
-0.0672773
0.042914
0.0243632
0.542716
-0.435774
-0.106943
-1.80203
0.855663
0.946368
0.434117
0.0790163
0.785691
-1.39435
0.316476
-0.00238185
-0.314094
0.13224
0.125308
-1.6985
1.64787
0.0506387
1.18689
-0.607764
0.0093475
-0.0365111
0.0271636
0.0257902
-0.232233
0.206443
0.116033
-0.206961
1.71193
-0.571953
-0.0763919
0.326604
-0.250212
0.00123029
-0.0220627
0.177652
-0.401998
0.788468
-0.526646
-0.647411
0.700544
-0.221037
-0.0772414
2.1282
0.0139518
-0.0171911
0.00323933
0.0347129
0.753755
-0.19567
0.125281
0.0703897
-0.0178119
-0.0131452
0.272806
0.0502825
1.61188
-1.1045
0.410712
-0.360109
-0.0506027
0.310766
-1.2024
0.066085
-0.380694
-1.9705
1.80083
0.0480842
-0.00133005
-2.14431
0.217226
-0.225123
-0.0286777
0.0623458
-0.0336681
-0.591753
-1.21028
1.87312
1.15532
1.72525
-0.786106
-1.60971
0.198747
0.392825
0.208871
-0.200154
-0.0087178
0.174912
-0.238435
0.0635226
-1.24875
0.644821
-0.193312
-0.254733
0.448045
0.290904
-0.381938
-0.112675
-2.02208
2.13475
0.9896
0.199501
-1.50101
1.30151
0.937643
1.0905
-0.827906
1.56372
-1.16724
-0.0497623
0.375355
-0.325592
-0.894538
0.75451
0.140028
-0.20556
0.129168
-0.08134
0.317635
-0.236295
-0.250097
-0.263713
0.51381
-0.531152
1.82476
-0.270524
-0.3546
0.625124
-0.310333
0.162341
0.255796
-1.21212
-0.0695816
0.0023043
0.00827576
-1.84789
0.966387
0.881506
0.354213
-0.457474
0.00817497
-0.0162901
0.416288
1.17044
1.52275
1.65279
-0.532874
-1.11992
0.113121
-0.0432224
-0.0698989
0.739282
0.948383
0.1032
0.105672
0.612784
-2.17228
1.5595
-0.0906209
0.103755
-0.0131341
0.775923
0.629727
-0.211439
-0.0985525
0.730221
-0.558763
-0.564156
1.42322
0.149222
0.0114553
1.54524
-0.291013
0.139646
-0.132315
1.77536
-0.122568
0.0998061
0.392633
0.0180789
0.0168828
0.290636
-1.74722
-0.829646
0.96613
-0.136484
0.00560547
-0.114619
1.75947
0.0381122
-1.79758
-0.698662
0.428137
0.21654
0.0649717
-0.298638
0.0665483
0.0181128
-1.20945
1.54536
-1.56154
0.0161736
0.00553211
-0.264433
0.258901
-0.587557
1.36348
-0.821915
1.52342
0.0265448
-0.0210127
0.775542
-0.276443
1.96352
-0.595657
0.00439166
0.118791
-0.123183
-0.0719768
-0.0894236
0.1614
0.109578
0.00354289
-0.364939
-0.728168
-0.132948
-0.2771
0.410048
0.751141
1.49722
-1.65937
1.32433
0.10236
-0.443779
-0.863167
0.878258
-1.13849
1.32824
-0.189743
0.512761
-1.70007
1.59133
1.46568
-0.453102
1.30371
0.782343
-0.0634303
0.273278
1.27209
-1.30092
0.287545
1.01338
0.244567
-0.276132
0.426916
0.00720181
-0.207584
0.143947
-0.0753903
-1.49706
0.464982
-1.24006
0.775078
-1.48677
1.01269
0.47408
0.0214581
-0.64885
-0.202195
0.218869
0.0841009
-0.00712731
0.118327
-0.1112
-0.534338
0.473203
0.824038
0.64164
-1.43399
-0.0980543
-0.096473
1.60409
-1.42317
-0.180917
-0.407918
1.92877
-1.64791
2.49432
-0.846411
-0.734965
1.04385
-0.308887
0.0744844
-1.37846
0.117833
-0.443724
-0.258355
0.410157
-0.151802
0.0132707
0.0305757
1.33177
0.708587
-1.2756
0.567016
-0.0167176
-1.54584
1.56256
-0.050788
-0.103355
-0.00618003
-0.474206
0.480386
-0.431031
1.20581
-0.774777
0.192988
-0.134588
-0.0583997
0.118379
-0.0851387
-0.0332399
-1.98318
1.78014
2.30745
-0.47748
-1.82997
0.014701
0.00932635
-0.0240273
0.00617147
0.168741
0.0992323
-0.600925
-0.850811
1.69126
0.0141188
0.0118567
1.75232
-0.983657
1.09349
0.160083
-0.160083
-0.114461
0.298403
-2.25955
2.25347
-0.937918
-1.31555
-0.975777
0.808097
0.16768
-0.0502212
-0.0705087
0.12073
1.01153
-1.21426
0.202731
-0.590331
-0.201115
0.791446
0.6191
-1.97912
1.36002
-0.0864951
-0.808043
-0.20783
0.135853
-0.18521
-0.59147
0.77668
0.753635
0.421319
-1.17495
-1.36248
-0.411763
0.667715
-0.255952
-0.653743
1.00501
-0.351267
1.46024
-1.33052
0.249969
-0.382917
0.087671
-0.246662
0.365658
-1.27253
1.28663
-0.0140939
-1.29541
1.77645
-0.481048
-0.0164652
0.127257
-0.110791
-1.58105
-0.778137
-0.033871
0.0093699
-1.63817
0.459121
-0.358084
0.276744
-0.181084
-0.553882
-0.0102485
-0.0803724
-0.826587
2.03442
0.0434129
-0.350539
-1.52159
0.127453
1.39414
0.569913
-0.428598
-0.141316
-0.8639
0.193577
0.209319
-0.545407
0.336088
1.59458
-0.141116
-1.45346
-0.0460846
0.145256
-0.0991711
-0.380682
0.596924
0.955615
-1.55254
-0.599943
1.54944
0.179678
0.68272
0.720707
-0.130994
1.58413
0.191226
-1.40266
1.38594
0.204824
-0.0756365
-0.129188
0.324819
-0.186322
-0.138498
-2.00584
0.357927
-0.130385
-0.25157
-0.60513
-0.224516
0.252758
0.825186
-0.228804
-0.596382
0.18692
0.0941092
-1.17624
1.6344
-0.458159
0.150587
-0.24001
-0.063007
0.33333
0.243865
-0.502219
-0.122402
0.442343
-0.31994
-0.0620697
-0.0102326
0.0723024
0.809229
-0.379268
-0.429961
-0.0427791
-0.149445
0.192224
-0.280046
0.31196
-0.031914
0.0210564
-0.323914
0.302857
0.299279
-0.0547121
0.425286
-0.0905076
-0.334778
1.52258
-1.03197
-0.95936
0.01177
-0.114545
0.102775
0.0724037
-0.07818
-0.265709
-0.226809
1.13316
-0.307971
-0.0242797
-1.22594
1.25022
-0.352368
-0.0275839
-0.00924817
-0.591569
0.141038
-0.0226593
0.163883
-0.162538
-1.3708
-0.0338302
-0.0771044
0.110935
1.32975
-0.976395
1.16853
1.13891
0.336671
-0.0201956
-0.141846
-1.66292
1.80477
0.76773
0.430599
-1.19833
0.129086
-1.03196
0.668654
0.363308
0.504711
0.065202
0.0397927
0.0511268
-0.0909195
2.15375
-1.15951
-0.99424
0.130985
-0.29514
0.164155
0.730869
0.379523
-1.11039
0.0693432
0.0976403
-0.166984
1.71586
0.0245029
-1.74036
-0.391754
0.0739943
-0.24599
0.289403
0.0368304
0.0363424
-0.0731728
-0.368733
-0.148078
0.0310585
0.0183542
-0.0494127
-0.431888
-0.668633
1.10052
1.12412
0.470456
0.997937
-1.02222
0.762616
-1.19365
-1.90003
1.78735
0.0284677
-0.0975491
0.252655
-0.606602
0.353947
0.723194
1.00206
1.15996
-1.35698
0.19702
1.22988
-0.547163
-0.125733
0.0825104
0.0113432
-0.217922
0.206579
-1.66606
-0.44002
2.10608
-0.406866
0.432743
-0.0258769
0.00663342
0.15345
0.201077
1.53025
-0.136729
-0.043013
0.633235
-1.44392
0.810689
-0.727853
-0.34041
1.06826
1.54849
-0.495713
0.623408
0.570281
-0.823143
-0.254482
0.00464102
0.249841
0.0192426
-0.183226
-0.468551
1.17714
0.00921252
0.0305186
-0.374428
-0.125371
0.499799
-0.00416825
1.0157
0.71217
-1.24192
-0.454495
-0.412526
0.511549
0.754789
-0.935872
0.0580799
-0.0387727
-0.126092
-0.129436
-1.94488
0.91291
-0.076026
0.0466142
0.0294117
-0.0491733
0.0504389
-0.00126561
0.201888
0.859093
0.186342
-0.026888
0.0300846
-1.68696
1.65687
0.634741
-0.95806
0.323319
-0.0161192
0.0574206
-0.0413014
-0.72958
1.19456
-0.120301
-0.368767
0.489068
-0.267635
0.476954
-0.939787
1.4616
-0.521812
-0.505842
0.504026
0.00181614
2.15415
-0.0638388
0.362737
-0.283024
-0.0797132
-0.517426
0.269946
-0.171702
0.193825
1.29977
0.995242
0.162742
-1.56363
1.40089
-0.804687
-0.195236
0.999923
-0.287252
0.258699
0.0285539
0.129611
-0.0729513
-0.0566601
-0.00255018
-0.167305
0.169856
-0.0979429
0.0283614
-0.936172
-0.303199
-0.00769938
-0.124983
0.127288
-0.123955
0.382438
-0.258484
-0.22362
0.259606
-0.0359863
-0.0221968
0.20413
-0.181933
0.803891
-0.36945
-0.0641499
0.0169133
0.199452
-0.844649
0.645197
1.16665
-0.964765
0.0210557
-0.340754
0.319698
-0.982022
-0.681987
-1.39071
1.52472
0.881317
-0.295595
-1.34482
0.842454
0.502368
0.223691
-0.0910389
-0.132652
1.76066
-1.76066
-1.59081
0.105978
-0.619886
-0.241917
-0.621247
0.863164
0.584377
-0.540667
-0.0437104
-0.0378301
0.0470943
-0.022187
-0.0249073
-0.00130687
0.200167
-0.19886
-0.420735
1.26368
-0.842947
0.448432
0.00635968
-0.454791
0.793412
-0.718928
-1.05796
0.253268
-0.0391398
-0.208062
0.247202
0.0342154
-1.33514
-0.47233
-1.22924
0.756908
0.369005
0.0135886
0.22927
-0.242859
-0.264496
0.323652
-0.0591565
-0.2248
0.165364
-0.0823029
0.0532496
-0.0819273
0.0356698
0.0973895
0.266486
-0.363875
-0.154256
-0.0636664
0.111156
0.31413
-0.127829
0.101738
0.0260909
0.0122077
0.00448332
-0.016691
0.0927182
-0.0697438
-0.0229744
-0.063581
0.164103
-0.100523
-0.561002
1.33608
0.514344
-1.1404
0.626058
-0.146158
-0.0799999
0.226158
-0.0616833
-2.45255
2.51423
0.874079
-0.549662
-0.324417
0.464545
-0.0442493
-0.194186
0.0257099
-0.0674567
-0.0534019
0.184386
0.276212
-0.944503
0.668291
-0.429462
-1.26904
-0.196325
0.81147
-0.615145
-0.0923181
0.068675
0.394716
-0.266228
-0.128488
0.569374
-0.369922
-0.764064
0.45748
-0.490545
0.0330643
-0.514152
0.32084
-0.165194
0.576092
-0.296937
0.322728
-1.98004
0.122745
-0.275465
0.519329
0.0266961
-0.234526
0.186809
0.01977
0.315429
-0.301841
-0.080269
-1.29909
0.738089
1.9908
-0.198831
-1.79101
2.24386
-1.09005
-1.15381
-0.0746614
0.455219
-0.0811617
-0.743192
0.476257
-0.39978
-0.236774
-0.0177079
-0.58018
-0.398509
0.978688
0.0763161
0.255137
-0.331453
0.0375437
-0.874033
-1.99199
-0.30353
-0.313409
0.616939
0.730521
-0.0957792
-0.235581
-0.0367275
0.272309
0.45748
-0.0803694
0.158778
0.0649126
2.02475
-1.40565
-0.8928
0.31262
-0.242765
-0.0488079
0.291572
-0.0431448
-0.157962
-1.0563
0.491136
-0.232917
-0.258219
-0.0807088
-0.0336903
0.898183
-1.15772
0.259536
-0.648459
-0.057466
1.81812
-0.28367
-0.560979
1.5504
-2.06603
0.515634
-2.14081
1.75057
0.390236
0.146598
0.103152
-0.24975
0.14928
1.16147
-0.00625749
0.842161
-0.835903
0.00888259
0.317721
0.0566996
-0.0419987
-0.0143468
-0.276658
0.291005
1.27561
-1.41745
0.09346
0.337316
-0.337879
0.00056296
-1.49686
-0.0939432
-0.585136
-0.335306
0.347076
0.104827
0.00327373
-0.108101
-0.606232
0.300127
0.306105
-0.376879
0.327117
-1.09199
-0.489755
1.58174
-0.128577
-0.0198256
-0.0303956
-0.21991
-0.231891
0.4518
-0.371275
1.38396
-0.150886
-0.858125
-0.117652
1.19936
-0.41367
1.02314
-1.44387
-0.0214879
-0.00846844
0.0299563
1.05437
-0.581659
-1.3526
-0.333525
-0.0759297
0.409455
-0.0545259
0.198473
0.00504549
-0.391469
0.386424
0.440663
-0.0558375
0.169183
1.44269
-0.144235
0.295346
-0.063391
-0.42204
0.405749
-0.175408
0.0684027
0.107005
0.243206
-0.105707
-0.137499
-0.138199
-0.041244
0.179443
0.359473
0.0518299
-0.411303
0.0648917
0.0577626
-0.196394
-0.068039
-0.0418375
1.17179
0.0115115
0.0949288
-0.10644
0.0460705
-0.0929581
0.0468876
-0.0100249
-0.413023
0.423048
0.566283
0.247352
-0.659114
-0.0602446
0.349382
-0.0710853
-0.446039
0.14618
-0.126443
-0.036331
1.78673
-0.97893
0.0999786
-0.225076
0.125098
-1.59133
0.200621
-0.104827
0.040252
0.0645748
-0.0373885
-0.0298972
-0.268526
-1.87228
0.34956
-0.0577073
-0.797108
-1.37517
-0.447022
0.0725945
-0.762845
0.542935
0.949804
-0.729621
-1.36355
1.52629
-2.03809
0.372031
-0.204623
0.070425
0.134198
0.014243
-0.184012
-0.381739
0.565751
-0.234186
-0.0160264
-0.35246
-1.03488
1.38734
-0.626157
-1.14743
1.77359
0.59793
0.337478
-0.935408
-0.00833403
0.310488
0.146992
-0.24895
-0.253269
-0.16655
-0.102081
0.268631
0.168376
0.351373
0.267284
0.127431
0.456863
-0.578995
-0.0231373
0.0370891
-0.593778
0.779801
-0.186023
-0.141908
0.413632
-1.31106
0.0471679
-0.0055957
-1.1418
0.381304
0.180785
-0.933807
-0.460545
-0.159773
-0.913142
-0.315467
1.22861
-0.1267
0.602958
-0.0305447
0.838642
-0.28513
-1.01364
-0.931242
-1.25461
1.45734
0.0756588
-0.206938
0.0126626
-0.0605141
0.0478515
-0.62228
0.564509
0.0577704
0.674604
-0.799846
-0.0239708
-0.0520551
-1.13748
-0.20734
-0.197417
0.118729
0.0786881
0.375074
0.434155
-1.45861
-0.168165
1.62677
0.0528964
-0.207153
0.301259
-0.256241
-0.0450175
-0.228461
0.383008
0.140879
-0.179101
-0.0341082
0.21321
-1.30874
0.828918
-0.263656
0.02947
-0.16863
-0.12651
-0.319208
0.0357542
0.0223257
-0.0104781
0.23664
-0.00721791
-0.0659549
0.314939
1.33293
-0.641869
1.94558
1.01234
0.63097
-0.832084
0.0338137
-1.49242
-0.289803
-0.316659
0.372851
-0.0561919
0.173544
-0.0023774
0.075562
0.0130483
-0.0539076
0.121076
-0.193583
1.77841
-1.58482
0.205411
-0.849962
-0.117867
-0.252201
-0.0661944
0.638383
-0.273954
0.346129
-0.0721749
-0.00246571
-1.52058
1.52304
0.622788
0.277814
0.306563
-0.559065
-0.557139
0.94094
-0.383801
-0.00483082
0.0106073
0.0398316
-0.297066
1.03371
-0.736639
0.0505862
0.157701
-0.208288
-0.142257
-0.644376
0.786633
-0.268828
-0.0582248
-2.04427
-0.0274264
0.178798
-0.174406
0.0237094
-0.233077
-0.0305782
0.334281
-0.64769
2.24765
-0.946029
-1.30163
-0.12014
0.407075
0.0339409
0.267318
-0.2923
-0.198244
-0.16987
-0.0143705
-0.167107
-0.191433
-0.202985
0.851535
-0.993793
0.131622
-0.0905684
-0.0410533
-0.364381
-1.97768
1.09699
0.880691
-1.94293
1.88125
-1.15468
0.325354
0.829329
-0.0617001
0.28349
-0.22179
0.683985
0.449173
-0.0106755
0.191463
-0.0673268
-0.199684
0.0255216
-0.25344
-0.0127881
1.09577
1.15189
0.027981
0.014933
1.6337
-1.3855
-0.0358108
-1.39636
1.43217
1.25292
-0.0811295
-0.283007
-0.0750771
0.608917
0.0791464
-0.24655
-0.0569518
0.483867
0.750086
-1.59456
0.844471
0.0767657
2.38716
-1.44204
-0.945122
0.00839522
-0.158338
0.0878291
0.954492
0.616103
1.15829
-1.05232
1.10918
-1.73534
-1.24727
0.0302677
1.217
-1.68813
0.166051
1.52208
0.0528626
0.074425
2.47296
0.00478722
-2.47775
-0.791794
1.41695
-0.625153
0.046002
0.213604
-0.901977
0.248234
-0.00146862
0.0495529
-1.33696
0.198465
0.00308948
-0.0169067
0.0138172
-0.0932192
0.220012
-0.126793
0.145732
-0.492101
0.346369
0.517915
0.448216
-0.498337
-0.107895
0.0782341
0.847318
-0.933813
-0.0635866
-0.0497444
-0.245186
0.0507516
0.568759
0.65894
-1.2277
-0.668335
0.787092
-0.118757
0.0650113
-0.411203
0.346192
-0.965402
-1.58644
0.773993
0.812449
0.113939
0.847683
0.250392
-1.09808
-0.319117
0.214984
-0.237898
0.0229143
0.164315
-0.0348401
-0.239497
0.00391564
-0.279492
-1.52325
0.418747
-0.396371
0.783786
-0.387415
-0.666329
-0.67074
1.70408
-0.737688
-0.099952
0.177731
-1.42084
0.062941
-1.40491
1.34197
0.0344551
0.0219225
-0.0563776
1.15375
-1.1586
0.00485321
0.143999
-0.0176308
-0.0519643
-1.45278
0.786454
-0.604386
1.27304
-0.31813
0.495782
0.287666
0.213781
0.0294246
0.799662
-0.371524
-0.00652367
0.681128
-0.954401
0.427556
-1.75163
0.604206
1.10068
-1.10315
-1.52066
1.32708
-0.127857
-1.46747
0.200389
1.26709
0.585674
0.225796
0.0329011
-0.940826
0.698909
-0.111636
-0.127418
0.239054
-2.07316
0.468335
1.60482
0.36571
0.826795
-1.19251
0.0645805
-1.31919
0.74899
0.113656
-0.862646
-0.264589
0.0525326
-0.915699
-0.0799923
-0.0106194
0.0474714
1.49015
-1.46565
-0.0478817
-0.995946
-0.590496
0.64788
-0.0323183
-1.21495
1.10635
-0.258667
-1.59133
-0.0183796
-0.31266
-0.915264
0.323282
-0.205072
1.90003
0.22817
0.163111
-1.21941
0.132328
-0.100358
0.21005
-0.460147
0.322902
-0.541779
0.218877
0.17814
0.0931781
-0.271319
-0.32835
0.0453263
0.262463
0.280254
-1.14127
1.1554
-0.0141336
-0.736145
1.13092
-2.06887
0.937953
-0.428717
-0.0543039
0.0847376
-1.47765
0.143949
1.3337
-0.371145
0.883905
-0.654318
0.691862
0.155918
0.958162
0.546457
-1.00095
-0.809807
-0.188693
0.9985
-0.315461
-1.3236
0.971138
-0.119589
0.122928
-0.00333859
0.0461536
-0.087455
0.974449
-1.443
-0.787816
-0.0242473
0.812063
-0.0230841
0.00143284
0.0216513
-1.08206
0.437687
0.0355349
0.0237439
-0.221321
0.39586
2.23336
0.239607
-0.805917
0.799659
-0.255733
0.0871026
-1.24229
2.07779
-0.835497
-0.0730162
0.0614269
0.0734775
0.35873
-0.0195216
0.975568
1.19305
0.650173
-0.926616
0.275082
-2.04835
-0.159642
0.125812
0.15378
-1.13017
-0.217694
-0.940025
-0.201365
0.0505531
0.778385
-0.382525
-1.51895
0.186712
1.25598
0.177621
-1.67169
0.294816
1.37687
-0.0862048
0.469213
0.812877
-1.14443
-0.28956
0.730535
-0.32464
-0.405895
0.850364
-0.293712
-0.556653
-0.171183
0.0365941
0.633558
-0.661824
0.0282661
-1.37661
1.0587
0.317912
0.446456
1.01514
0.000617626
0.104209
0.744406
-0.497054
-2.11118
0.829921
1.28125
-1.96068
1.52066
0.950273
0.753156
-1.70343
0.791614
-0.735225
1.79231
-0.597059
-1.19525
-1.0275
0.162478
-0.0799674
-0.179553
-0.101556
0.186099
-0.03242
0.108538
-0.0761181
-0.293697
0.0132051
-1.75993
-0.211645
0.0786722
-0.093019
-0.0292275
-0.0138766
0.980336
-0.507616
-0.47272
0.763146
-0.46302
-0.116846
0.123018
-0.112741
1.2727
0.0485687
-0.0141136
-0.321748
-0.760315
-1.4788
0.565655
-0.064955
-0.0747221
0.119412
0.0877804
0.0937616
-0.081099
-0.481527
-0.46984
0.0867239
-0.0739832
-0.0127407
0.171632
-0.805948
-0.439403
1.24535
-0.267033
0.0339558
-0.129027
1.11485
0.994371
-2.10922
-0.376751
0.974681
0.204926
-0.0817234
0.661219
-0.816523
-0.769928
1.58645
-0.942995
-0.964883
0.566374
0.297327
-0.196057
-0.10127
1.01908
-1.21362
-0.148712
1.87417
-0.743253
-0.171581
0.0990826
-0.427067
-0.713335
0.0802022
2.04898
-1.78735
-0.261624
-0.896804
-0.581992
-0.328996
0.157229
0.0631218
-1.03139
-0.203172
1.23456
0.226628
-0.118284
0.16887
-1.65314
-1.49747
0.652589
0.844877
-0.154448
-0.00459657
0.159045
0.937055
-0.565376
-0.371679
0.0997234
-0.153631
0.0739477
0.0790496
0.806668
-1.89866
0.745483
0.104882
-0.313945
-0.578855
0.326733
-0.0715962
0.143112
0.29999
-1.10594
0.0247477
0.350607
-0.453622
0.20696
-0.0862207
0.0068623
0.0793584
0.979846
0.812464
0.55969
0.0571051
0.631707
-0.276055
-0.355652
1.70007
-1.40525
-0.390906
-0.24589
0.139593
0.0247218
0.204107
-0.0605228
-0.303352
0.00388253
-0.123472
0.538875
-0.0450392
-1.80468
-0.0194854
-0.134963
-0.0660322
0.0055181
1.0558
-1.08634
0.870449
-0.422099
-0.44835
0.00369663
0.104567
-0.00548213
0.00857161
0.398387
0.0145947
0.0577077
0.107004
-0.486272
-2.6162
1.03548
1.58072
-0.0669494
0.00379338
-0.0396093
0.0987473
0.113415
-0.262339
-0.283068
0.621007
-1.43753
0.0520393
-0.974144
2.08899
0.616545
-0.0670645
-0.54948
-0.603181
-0.492677
-0.0479898
0.0857922
-1.111
0.509366
-0.741856
0.232491
0.076985
-0.207322
0.130337
-0.187604
1.16134
1.33299
-1.36714
1.40525
-1.96498
1.48264
0.482338
1.11628
-2.09042
2.3171
-1.14666
-1.03753
-1.02559
-0.0486836
0.16701
-0.0539571
-0.420249
-1.55923
0.0917541
-0.0460784
-1.3109
1.20831
-1.96942
0.761118
-0.0507568
0.227548
-0.399893
0.139926
-0.13811
1.01614
1.37102
-2.09387
0.851581
-0.159537
-0.783458
-1.36221
-0.000368913
-0.206954
1.94293
-2.00677
-0.13208
-1.08002
0.0505882
1.28701
-0.690088
-1.70306
1.76857
-0.0655139
0.460162
2.05407
0.424648
-0.061488
-0.36316
1.74075
-0.631567
0.223637
-0.01243
0.736481
-0.745729
0.0859646
0.127817
0.646785
0.831941
-1.47873
-0.542183
-0.446968
1.03039
-1.0728
0.0424069
0.208029
-0.440946
-1.73374
0.734786
0.998957
1.40208
-0.248333
-0.930154
-0.13102
0.905593
-1.31926
0.274615
-0.523565
-0.306879
0.453059
-0.623026
0.439014
-1.40406
-0.661479
2.06554
-0.440912
0.492742
-0.439036
0.290958
1.08945
-1.2071
0.0637071
1.36172
-2.00359
-0.248339
-0.469974
0.211322
-1.17609
0.102869
0.692217
0.466709
0.0131183
-0.604588
-1.68371
0.320166
0.0656402
0.258064
-0.323704
0.0661493
-0.302445
1.14408
1.09978
1.23102
-0.971481
0.0788784
-0.0758611
-0.359913
0.425263
-0.423673
0.367836
-0.655871
-0.944774
2.06105
-0.274855
0.388794
-0.497698
-1.0221
1.5198
-1.4281
0.636301
-0.0639219
0.339743
0.0833045
-1.45391
-0.0676854
-0.141552
0.650918
-1.29916
-1.31704
2.04898
0.553774
-1.37472
1.0042
-0.55598
-0.211647
0.442282
-0.295289
-0.219785
0.240841
-1.55923
0.220251
-0.77739
1.1203
-2.06507
-0.800798
-0.206362
0.476307
-0.149338
-1.55372
1.03396
-1.4945
1.33576
0.66442
-1.50876
0.844338
1.28651
-0.227808
1.86968
-0.899923
-1.07949
1.97942
0.552117
1.24114
-1.01451
-0.636717
-0.860749
-0.983969
-0.981007
0.440292
-0.790123
1.40515
-0.615025
-0.12628
1.36145
-1.23517
-1.01043
-0.959992
1.97043
0.919438
0.110953
0.246069
0.366155
-0.35993
0.265994
0.0939367
-0.00135747
-0.238653
0.495971
-1.39278
-0.714694
-0.377533
-0.244747
-0.141381
0.522685
-0.193663
0.805964
-1.98983
0.746783
1.24304
-0.0491301
-1.61338
1.66251
0.024975
-0.237866
0.0390061
0.601937
-1.84054
1.84054
-0.05296
-0.0127352
0.0656952
-0.635839
1.05716
-0.123781
0.123412
-0.760913
-0.281172
0.632545
-1.36714
-0.0745793
-1.2719
0.288241
1.27202
-1.23781
-1.20019
0.168799
-0.152271
0.517075
-0.364803
0.120159
0.513398
0.231361
-0.0532204
-0.961132
-1.19255
0.18606
1.00649
-1.3859
-0.423348
-0.848019
-1.22085
0.00466479
-0.183766
0.154138
0.168689
-0.460989
-0.0460518
0.0388339
0.354124
-0.278788
-0.344238
-0.929579
1.38394
-0.454356
0.319878
0.199171
-0.226744
0.382647
-0.155903
-0.426009
0.162296
0.407494
-0.524328
0.116834
-1.17322
1.90838
-0.958108
-1.3735
-1.84316
0.322584
-1.56563
0.0485219
0.992836
1.16092
0.14144
-1.0567
1.20413
0.0824975
0.0906826
-0.408813
0.645181
0.622456
0.169158
2.03245
-0.912154
-1.0738
-0.705181
1.77899
1.13401
-0.00556216
-1.12845
0.0145932
-0.107551
-0.184557
0.168091
0.130057
1.33565
-1.46571
-1.17774
1.10315
0.0745898
1.17774
-1.32708
0.204858
-0.255614
-0.982025
1.03456
0.0719094
-0.0381829
0.0959454
-1.67403
0.173015
1.51293
-0.848506
-0.304903
-0.0651992
0.133602
-0.413993
0.923152
0.246021
-0.0818662
0.633007
-1.36965
0.170569
-0.228969
-0.551012
-0.055563
0.618482
-2.05278
0.506934
-0.070252
0.418377
-0.348125
-1.03862
-0.930804
0.0612149
0.688938
0.497954
-0.885404
0.079487
-0.102273
-0.30893
0.100246
-2.11042
1.07289
0.0659619
-0.0197859
-0.282055
0.0341282
-0.0446063
-0.0860434
-1.42948
0.641016
-1.5487
0.907681
0.0569064
0.23634
-0.293246
0.00631228
-0.206466
-1.03008
1.31832
0.619204
0.355477
1.33396
-1.14443
0.177213
0.0393273
1.73839
-2.01044
0.272053
0.171815
-0.403706
-0.785201
-0.077445
0.358492
-0.434422
0.351047
-0.331277
-1.26395
0.145602
-0.0959401
-0.0496618
-1.48522
0.192936
1.29229
0.406248
-0.353352
-0.0222155
0.368078
-0.345862
1.15895
-1.19127
-0.318594
0.411772
0.613502
0.249662
-0.248499
0.327187
-0.0354294
0.104104
0.168408
0.651365
-0.819772
-0.42385
-0.0682509
-0.925087
-1.0132
1.93829
0.086211
-0.228965
0.354062
-1.01055
1.88125
-0.0516862
0.0659292
0.0449515
0.0493457
0.131754
2.11967
-1.0239
-1.2171
0.759102
-0.538851
-0.78528
2.06653
-0.0195321
0.0341268
-0.270923
0.277557
0.0143801
-0.12082
-0.280524
0.178443
-0.320809
0.453518
-0.284829
1.1301
-0.0370839
0.071212
0.298421
-0.0691507
0.0349932
0.390762
0.0931058
0.473527
-0.752315
0.199487
-0.228246
0.028759
-0.000388371
0.0223109
0.173684
0.889227
-1.06291
-0.235016
0.107597
0.480224
-0.606924
1.98218
-1.23104
1.01936
0.905823
0.0902375
0.544569
-1.11605
0.337162
-0.417531
-0.387981
1.31768
0.707064
-1.48686
1.48686
1.71463
-0.830409
1.08621
-0.0202213
1.53242
-1.5122
0.918561
1.02588
0.764742
-2.1688
0.14067
-1.13446
-1.35516
-0.212716
-1.43026
1.64298
-0.39084
-0.123312
0.0685252
1.11127
0.153326
-0.259033
-0.720511
1.47487
-0.754363
-0.172271
0.258236
-0.0198786
-0.202998
0.70771
2.64566
-1.09081
-1.55485
1.61475
-1.4708
1.12706
0.201178
0.0275988
-0.00105404
0.0217181
1.56345
0.553254
1.13222
0.50218
0.0199965
0.187338
-0.207334
-0.332455
0.205946
0.17252
-0.184048
0.0115278
0.153745
-0.20656
0.0528155
0.51491
-0.436676
0.321991
-0.463899
0.473141
-0.274394
0.0197784
-0.035008
-0.00282209
-0.338024
0.444777
-0.106753
-0.31451
0.284655
0.0298546
2.00677
-1.64106
0.495749
-0.501322
0.00557285
-1.49015
-0.32622
0.255134
-0.984452
1.90301
0.248314
-0.314508
2.16816
-1.40342
0.236821
-0.300212
-0.149022
-0.0770572
-1.34033
0.0235301
1.60761
1.27938
-1.06806
-0.102541
0.138922
-0.0777822
-1.48376
-0.280765
0.275546
0.234299
-0.352165
-0.349109
0.276934
-0.0796243
-1.33495
1.29914
-1.45432
1.47049
-1.15608
-0.461553
0.410951
0.663138
0.369953
-0.382741
-0.0501292
0.0618889
0.33688
-0.398769
-0.344592
1.40849
-0.94498
-1.04211
-2.06712
-0.0733097
0.0695128
0.0037969
-0.000467618
1.43426
-1.4338
1.76497
-1.34623