/*--------------------------------*- C++ -*----------------------------------*\
| =========                 |                                                 |
| \\      /  F ield         | OpenFOAM: The Open Source CFD Toolbox           |
|  \\    /   O peration     | Version:  2306                                  |
|   \\  /    A nd           | Website:  www.openfoam.com                      |
|    \\/     M anipulation  |                                                 |
\*---------------------------------------------------------------------------*/
FoamFile
{
    version     2.0;
    format      ascii;
    arch        "LSB;label=32;scalar=64";
    class       volScalarField;
    location    "2.3";
    object      p;
}
// * * * * * * * * * * * * * * * * * * * * * * * * * * * * * * * * * * * * * //

dimensions      [0 2 -2 0 0 0 0];

internalField   nonuniform List<scalar> 
13486
(
9.52764
7.52173
0.474541
-0.597946
3.24671
-1.25267
1.52469
5.53618
6.53187
2.99636
-45.0152
1.45555
10.0887
-1.50461
2.56698
3.40953
-26.0093
0.0296791
2.11422
8.56549
-0.626799
9.97014
7.34786
-6.45172
2.91364
-5.98382
-32.034
-3.50868
0.00164156
-2.90739
-0.585084
1.81517
-7.15228
-2.12911
5.54631
0.022957
0.0240147
7.89694
-0.37878
6.48388
1.31378
10.4833
0.109451
2.86718
2.68203
1.36782
-32.4063
0.00939874
0.0113264
-3.79584
5.31167
-0.482523
0.929028
7.9918
-0.181581
3.53136
0.223597
-0.471825
-6.81866
0.0973594
-35.376
0.0894808
-16.2789
-0.606463
-2.81713
0.034894
-0.607205
9.49795
6.48822
-0.124599
-0.604599
-0.1409
6.47008
-22.1082
0.0739423
0.229337
0.0663803
2.52268
-39.8731
-0.925422
-0.00386824
7.5591
-18.2784
0.520935
9.57452
2.72997
-2.41575
4.951
6.09796
3.32626
1.20859
4.83058
9.16481
8.08743
6.80512
0.0187378
-31.6741
-0.664311
6.36996
-27.775
0.0176124
-1.17656
-0.707673
-0.457204
3.39769
-29.0239
6.21037
-0.407478
-37.7324
4.45109
6.36103
1.52499
7.98735
0.177074
11.1738
6.64803
2.92651
-2.00244
6.53445
0.00186738
-0.00172523
-34.9535
7.0985
-0.404383
6.30218
-0.43208
4.60926
1.11385
-1.80406
-2.46345
-0.42889
-29.7239
-18.4685
-19.0838
5.56626
4.89889
11.0269
4.62042
0.00608091
5.65462
-5.76659
0.929467
1.69978
-0.923674
0.183639
-18.1764
-1.49085
6.26651
-4.08433
-0.00354501
3.25254
2.41891
0.00940124
7.71776
1.40915
0.479462
3.75775
0.156679
7.17892
0.165707
-3.04729
7.17022
1.01326
10.4244
-0.502825
-2.58609
-0.573982
12.8797
-1.36153
-18.8815
-20.9861
1.46569
4.04805
3.4131
0.00169382
-3.30649
-2.3613
-6.87706
6.23225
1.75401
6.08252
0.176344
2.75706
-9.60165
0.454126
-3.52615
-0.00330758
-2.72742
1.56917
6.95484
0.0184661
0.348344
-0.582402
7.89463
-0.696149
-44.3383
-2.5219
-3.23725
8.67381
-2.25016
-0.641516
1.01217
7.90678
2.80423
0.164966
-0.727145
0.0215366
6.9177
-0.562934
0.473399
-3.03684
-4.13876
8.43803
6.23264
-1.26392
-1.5786
-3.06097
3.51699
8.6998
-8.8308
-26.4389
-4.24264
5.79753
-3.24244
0.317103
9.38849
-2.45331
-1.29066
-1.27409
-2.03652
6.00194
-0.825152
-6.03048
10.6959
-0.790233
8.9995
-2.33378
0.331133
9.08608
2.82174
-7.05097
3.96332
0.237012
8.60947
-0.303277
7.1816
2.9062
-4.21868
-21.3064
3.31671
-1.80652
11.294
6.40569
-0.436848
-1.0419
-4.86246
1.73668
-1.52687
0.248384
-6.61163
6.80803
-0.276087
2.49811
-4.31427
3.73888
-10.26
-1.29762
-0.650416
6.06787
-0.323269
6.05826
6.04912
-3.18977
0.977626
9.40224
-3.98944
-1.03475
-0.887628
-0.502178
-1.5569
-0.990784
5.33559
6.27092
-11.9007
-30.0561
-34.6476
-5.67454
-1.89107
0.304303
6.11171
-0.737579
0.00426895
6.85349
5.62762
-2.2146
-2.51873
-3.13768
0.879582
6.39785
1.40966
0.953232
-0.000966492
-1.34058
1.94013
0.00110135
2.87603
-0.700469
3.06836
-1.51852
0.019295
-17.5298
-0.597957
-1.2726
1.5165
-34.122
5.01584
0.0233344
6.11549
6.95188
-1.49024
0.0299828
-0.0502096
6.15052
8.14857
10.9225
1.32564
4.15448
5.21083
0.4764
3.8412
5.0124
4.58883
1.06845
8.65417
1.48028
6.4358
11.6386
2.58884
3.58385
-0.24716
-1.38872
8.05148
3.68753
2.83104
-10.3909
0.0241425
4.32299
11.222
-8.89792
-0.0156602
4.07385
0.600836
0.909075
-30.0169
6.35814
0.00488689
-21.3954
4.48193
-1.24533
-4.03612
2.19132
0.993392
6.94376
6.06846
-3.01891
-0.010059
-2.40903
-22.952
8.66403
4.53334
0.145102
4.3971
0.21837
-2.65349
-1.07047
5.42517
6.16729
-0.123847
-31.346
-13.4289
5.99733
4.53926
10.0385
6.44585
-25.3587
-1.09221
0.0430722
3.46814
-23.7938
-0.378191
8.29378
-3.50672
2.32941
9.14565
9.23776
0.0357089
-0.613952
-2.32432
-24.243
-5.8651
-23.8124
1.26169
5.66274
-0.724079
1.6833
-3.30053
7.94231
-6.54324
4.62276
7.04353
3.32911
-5.00912
-3.88544
6.4284
6.14269
7.60552
-7.71706
3.83794
-18.4422
2.93483
6.22277
0.895942
11.2596
3.78357
-2.82046
-2.60899
0.985253
6.26208
-32.9265
-0.112795
9.8566
5.69477
2.27149
0.192626
3.15632
-4.80999
9.98391
-0.0305967
3.61215
9.32593
-25.8032
-3.26225
-19.5717
-3.91672
-1.08139
7.59972
7.22108
9.9175
-13.5527
-0.000146724
-11.3661
3.67981
6.24704
-3.7353
-6.00815
6.02231
-1.4007
-3.45691
-12.0329
-16.4593
-0.772926
8.00912
0.0218354
0.015682
-0.622215
5.88436
0.00218963
12.242
9.30445
6.49911
5.35973
0.0324778
0.00889283
11.5629
-1.03305
0.0162824
-2.73906
6.49579
-35.0997
0.793943
4.16261
-0.00469042
-3.20071
7.26108
-8.17463
-24.4619
3.81891
-0.421975
12.8305
3.93594
5.35618
6.84937
-3.66068
0.592872
10.2261
3.40675
8.21118
1.62776
1.45142
-0.722739
-0.900454
0.123257
-32.8957
6.39158
6.51307
-1.94194
0.000102437
-1.46052
9.34247
7.62214
-1.08483
6.62549
4.71123
-3.05905
3.81407
5.44865
-20.3135
9.86439
0.0641292
-0.107894
10.38
4.6253
0.0420964
4.15503
-0.882181
-0.978036
2.58165
4.27471
7.19488
9.19057
-18.8926
3.09317
-20.1257
0.0230968
8.99122
1.4813
-8.35502
-0.776589
0.838691
0.231299
5.29066
-2.59559
-5.67192
6.64455
8.5556
-0.891083
6.8036
-19.0973
-3.77447
-7.45119
2.1848
-14.3781
6.98604
0.582236
-31.827
5.53523
7.58408
-6.46326
-17.2685
5.36746
8.9611
1.64509
9.60767
0.551324
3.98765
1.09489
7.04299
0.172943
8.72689
-30.6988
1.14015
6.28323
-1.65097
-3.75838
6.12853
-24.4991
0.9383
7.07651
9.96708
-1.28545
0.213967
1.37849
0.642911
5.71592
4.28602
2.46532
-32.8917
-0.247513
9.52056
0.672942
0.140959
-5.99818
10.0358
-1.86299
0.175771
5.90772
5.23496
-0.89749
-2.11872
5.65045
0.363012
-5.52451
2.10931
-6.70145
9.69753
6.45348
4.28575
4.49105
-0.379118
-5.76297
10.8379
1.62078
10.8837
-1.15737
6.11382
0.0381343
-22.7099
4.12104
3.30823
11.3684
-3.64252
4.34925
4.00585
-9.57653
3.12648
0.0779134
-3.02812
6.26577
-16.4359
-3.60233
-4.91474
-1.45238
-1.78934
6.79656
0.0132115
10.6115
6.41627
0.153155
-3.20927
-2.97361
1.7533
-32.3169
-1.80926
-31.0439
8.93569
0.00579011
0.239231
-13.7438
10.0801
-0.00414999
0.900108
10.3927
5.39357
-5.50052
-0.876634
4.52804
0.176493
6.28832
0.201331
-1.59878
2.08836
5.78484
1.50148
5.19286
10.5495
0.193314
-1.96308
6.12124
0.868253
-1.48167
4.41448
4.44645
2.46815
-6.68255
0.570968
-0.133846
0.48207
8.97389
1.58736
0.352278
0.55059
0.951177
-0.788887
6.23346
0.185054
6.17815
6.05199
8.66764
0.0551384
-5.34036
10.7869
0.0435714
-1.23815
6.65768
-4.97443
7.07782
0.203443
5.90732
-0.711507
-20.9176
-5.12332
-0.000993296
-24.9572
3.08212
11.0858
-1.7429
-14.6989
-2.76208
6.40758
-0.483462
2.43767
-18.6054
10.929
-6.10144
3.40296
-3.95027
3.40882
6.16831
2.01213
-12.6579
-0.544024
10.2528
6.12458
2.93856
5.75915
0.579092
5.04952
5.20057
3.38579
-17.9798
-1.01158
7.87842
1.51872
-0.52111
5.53338
-0.987699
-1.69115
-0.283633
6.83961
6.6217
-1.40693
0.454783
-4.5907
-0.577407
0.447362
-1.7333
1.03369
5.86428
-0.821418
-6.49899
7.51918
-0.172547
-1.92082
-0.75279
-3.35157
-1.30067
-4.56437
-0.187126
-6.68562
6.26897
10.0514
0.0402516
-1.94667
10.4215
9.75465
-1.19007
-2.66317
6.68379
-22.9481
0.24497
-0.486215
-0.147455
3.74597
-24.3379
2.47248
4.01695
-3.0122
-1.16083
-6.86814
-1.1714
5.57314
2.45056
4.05044
-1.51475
5.23653
9.57954
-59.7789
-5.84237
7.24818
2.59874
4.00657
-0.350079
-2.81822
-1.55048
-0.991112
6.36509
10.893
6.9759
-0.414796
-1.05851
6.16794
9.28605
-2.04199
6.90303
6.20955
9.56313
1.65357
-0.16991
0.57115
-1.40711
9.58271
0.450542
-0.986496
4.17547
-1.02082
1.39132
-0.890079
-6.49417
5.86448
4.21552
4.11865
2.69927
-37.2358
-1.89908
-1.62591
3.7592
-7.12604
-3.71441
0.221314
-8.55736
-31.5283
3.03179
-2.84952
-20.7294
-24.8591
-1.8643
4.94508
-46.2256
-3.1353
7.11009
-0.914681
10.0096
-1.34909
-21.8815
7.654
9.02972
0.0843115
0.00754563
1.87169
6.37217
3.82437
-11.6069
-0.844703
0.000388716
-1.12364
5.92964
0.211571
3.40801
-0.0779761
6.50336
-34.7506
0.201016
0.0052537
7.78161
-4.77194
-42.6066
-5.62673
9.88438
-0.387896
-2.1111
-52.9736
6.22443
-2.07899
-0.0362861
1.34435
3.12644
-0.975249
4.43535
-2.80412
4.93792
5.97024
7.43205
2.51673
-0.149889
-1.93056
4.55862
-2.66969
7.77428
4.07453
-0.959984
-0.447026
-1.16661
-0.750384
0.00975561
7.11412
2.16677
0.915623
6.13345
-0.040551
5.1258
11.247
-0.893524
-8.40761
4.05578
-6.19375
-0.277874
-1.22244
-0.62337
6.2234
0.219498
0.0677248
0.167675
0.0964224
8.24629
-4.67019
-0.00693768
6.18132
-5.3868
8.9242
7.19787
8.53937
1.47806
3.69979
1.86702
0.3845
4.91801
6.23194
-0.700101
-1.65535
-25.7736
-2.63075
-11.9962
6.27778
-13.7976
-7.35803
-8.04677
-0.693963
0.025968
6.21467
0.0425793
1.17473
-18.2928
6.17729
11.1356
-4.36335
-26.3675
3.26817
-0.120009
6.15223
0.150702
-0.329692
7.72156
-0.516734
10.5757
4.31194
6.14503
-2.7675
8.2651
0.233353
7.24198
0.0632118
-6.70428
-2.27308
-4.07729
4.10139
-1.48581
-0.665268
9.92554
6.19776
6.70617
9.04158
6.86094
7.76245
-1.58558
6.72247
6.18898
6.38715
-1.45698
-2.42144
-3.95017
-6.3105
1.55136
7.23926
-21.4956
9.24658
-6.55118
0.189571
10.8039
9.09364
-1.63294
-4.42077
6.40967
2.97253
0.532609
6.0656
-21.7965
-2.958
6.10951
8.84494
-0.334103
7.13241
8.1701
-0.0242819
-2.95519
8.1703
2.75631
-0.00447698
-27.5056
0.5005
-6.2172
5.73783
4.07303
0.0177685
-0.404698
-3.27189
1.60566
-0.24032
1.36596
9.21832
-0.3907
12.0506
6.32049
1.95399
7.11098
-5.66816
-18.9153
-1.81313
6.20342
-0.352289
-17.6914
-0.634093
2.79842
3.46566
-0.222532
4.76924
-17.4016
3.33635
-0.390713
-0.0868081
5.09423
1.90674
8.30132
6.32509
6.52117
6.12796
-1.65277
-5.73575
-4.77885
0.575036
-1.43839
-1.38463
4.98154
-0.870812
-0.114022
0.0449327
0.786109
-18.6727
4.42757
2.71947
0.160776
-3.40766
3.05177
-4.1291
-5.06329
0.632894
-1.74191
7.11986
4.43819
8.25635
-19.4186
5.5118
0.193799
8.91963
-1.15991
3.03568
-0.0224963
-1.26416
10.3587
10.5397
5.26183
3.74786
4.04206
5.9308
10.484
4.46822
-6.34948
-16.1146
1.09354
-6.14686
-35.0787
6.18384
6.11705
-1.04828
2.04152
5.53741
5.76137
11.3857
-16.0244
4.7811
-23.9922
-1.79887
9.03184
-1.08042
5.39139
-0.998983
1.42097
2.4112
11.8598
-1.65799
-3.93081
2.87588
0.740286
-12.9628
-21.4872
0.0781269
6.93093
-0.0969139
3.72451
9.73654
8.93042
-0.779524
-11.8586
-0.837543
0.784032
7.57673
6.03877
8.91505
3.80344
-52.0572
9.33144
5.90576
-10.2673
5.00218
6.33129
8.09602
-23.9126
-0.653027
0.0125892
5.18232
10.2529
3.38446
0.657331
-6.14627
11.4334
-60.8399
-5.67839
10.6906
5.34848
-0.729801
5.11008
-0.603555
3.55094
-2.18543
-59.7881
-0.221584
-2.3281
-0.124988
-1.85646
-24.0491
-25.1036
-26.2351
0.755433
-24.0367
-1.99531
4.60758
5.68726
3.64893
-19.577
1.66236
0.650862
-1.71153
11.9839
4.31015
-4.35998
5.35198
-2.25879
-2.72761
5.40078
5.39595
6.10646
12.0882
-0.00265198
-1.04168
-6.48142
0.446335
4.44059
6.39106
-2.91044
9.47029
4.15507
6.58907
-0.783534
-0.865296
0.259929
6.67177
6.22174
6.95692
6.16966
11.0826
10.9583
-2.34363
5.40442
8.04089
-4.19432
8.89085
-0.292095
10.8329
8.81808
-0.103586
7.10336
2.81435
4.95599
0.345197
6.25812
-5.57536
5.56071
2.43018
4.49907
-1.25044
6.18594
-0.212003
1.51885
10.4689
10.4633
4.29931
-20.1119
1.44087
0.838389
-1.01962
4.91994
9.37162
-20.445
6.39913
6.12345
3.06547
6.62697
-7.72598
-1.04422
0.0288375
11.189
1.93196
-0.635444
7.17929
-1.2445
0.228089
2.81634
1.06662
4.58947
2.88124
-2.8153
3.76826
5.22831
4.27347
4.86572
10.9747
8.98986
8.01019
6.97573
10.2561
3.13971
-0.333486
-0.0947156
-7.43545
10.3262
-0.913781
6.31729
5.75689
-5.08306
3.38146
6.97699
-4.35806
3.13917
3.77768
12.254
-28.9968
2.73735
-0.996968
7.39943
0.501385
-0.845642
10.1462
8.70686
6.17832
6.21462
-2.51157
3.28352
-32.9439
10.9344
0.116978
11.7661
-0.0994423
0.492096
-24.4011
3.6995
-21.1338
0.987557
-0.529838
1.99848
-2.36229
1.81154
-0.8879
0.00661108
-1.4284
-18.8158
-3.45871
-12.4622
-5.63296
-0.729171
-0.649481
-30.6889
6.61264
6.73279
7.87434
6.02251
2.53078
2.42201
12.7791
6.16409
-35.9213
0.0319084
-1.05548
4.64417
5.61577
9.49195
-5.74501
-5.65696
5.39166
0.0239971
1.53319
7.85392
-20.5299
-8.07463
-30.3882
11.0605
-0.608171
4.32682
8.12192
-0.430687
5.12249
-0.214951
-30.8131
-24.5273
0.172481
3.96938
7.62127
7.94942
-12.7626
-19.0383
4.40242
-45.6564
-2.95274
-1.70536
1.15074
-2.09777
-1.03673
-0.843229
-27.9572
-6.40878
9.81394
-0.652098
10.6394
-14.9132
-1.22463
2.41855
-0.543239
9.06126
6.38311
7.33886
-6.32869
-2.23517
-33.8176
8.755
-18.8652
4.35773
-0.14251
7.54908
9.01213
-0.18448
6.22611
10.251
7.02915
6.78917
-13.3735
-0.394006
2.62356
-4.67803
-0.530355
3.99517
4.76302
0.481323
-43.206
1.35228
0.195656
5.69086
4.88822
-3.17066
10.7975
0.45572
0.0103401
0.636021
5.97571
-2.59867
0.0322391
6.96025
-3.77488
0.399732
-1.75743
6.84508
6.00375
5.70553
-0.866397
5.77093
7.21613
7.19009
-2.2662
0.20563
1.10693
5.50647
-5.93585
-17.106
-1.96145
-8.55234
-0.611439
0.0108129
-0.494302
0.166779
-21.9408
-4.28231
-20.9523
0.195742
-2.21223
2.0656
-15.2817
6.59865
12.9575
1.85692
-1.44255
2.5522
0.414252
1.4254
0.0680557
-2.78315
-7.12087
0.611752
8.41084
0.0252561
10.0727
0.0427248
5.68489
5.30746
2.77911
-23.6381
3.94728
10.993
-0.656588
6.04589
5.91589
9.445
0.612697
8.66692
6.95786
-24.5419
7.38767
-30.7015
-48.6974
8.86498
5.33493
-11.1135
-0.265743
8.16236
1.10867
-3.70895
0.169937
0.190582
4.70388
3.07277
6.16703
6.0733
5.40877
-12.8762
-3.59921
-2.11323
6.02106
11.7885
-3.08152
-60.0994
-23.2366
6.51599
0.571064
0.564832
3.01273
0.197666
4.98703
-0.730207
1.50975
9.53785
2.35901
-0.137257
-0.59654
-0.741681
-4.68003
-24.3628
-6.37961
-8.39741
7.42411
3.05762
-3.92519
10.0803
0.0334714
-28.6995
-1.58456
-50.895
6.92773
-17.8367
1.80331
6.37783
-1.49335
-2.32162
-0.92854
-37.4008
-1.06745
6.75609
-21.4486
-0.226804
-30.6392
5.92211
6.72772
-0.620687
8.01851
7.45079
9.72865
9.8925
7.10738
0.871927
11.1751
-32.2958
6.2795
1.35533
-12.6018
7.6215
-1.60243
9.59071
2.66388
-7.5488
-13.6376
-23.7514
6.63231
-2.075
-2.19392
-0.857599
-5.45848
-0.117679
3.65569
0.890291
4.68052
11.049
-20.2463
-5.94898
-3.9322
6.74352
4.57173
-3.92417
12.7661
-0.300597
0.185557
3.86187
-7.04524
5.83324
6.57902
7.30789
7.48935
-0.0555629
3.47022
6.07049
1.27151
-0.846414
0.0254543
6.93882
7.06977
8.83026
-0.637752
0.441044
3.53855
3.54883
0.846942
-9.77267
5.04823
-1.25042
5.28972
6.3919
-25.7587
10.0875
-4.05974
10.7918
7.2649
-15.7524
0.0066107
0.0421189
2.11392
6.53329
-9.41703
8.66146
5.83517
3.50515
0.156444
1.20634
-1.86963
3.53176
-27.1848
4.1294
-1.03181
5.97302
-14.946
-0.169826
-2.04774
7.7251
9.16301
2.75265
-13.7749
2.81243
-0.849037
0.466282
3.19758
-0.682963
-0.562827
10.6569
-3.66413
-0.71116
-5.28655
-51.5346
-0.281751
6.16527
-26.1572
-1.78401
6.50331
4.13613
6.70259
-1.57764
2.83242
10.7139
-12.393
5.9377
1.94057
-0.656756
1.90299
1.335
-4.71308
10.9669
7.2906
-3.51724
10.5638
8.28617
7.64726
-42.5129
-15.4181
4.30838
-8.14894
-0.297544
-15.2316
-7.06871
-14.1306
5.04593
2.3478
3.95254
4.30456
-0.625337
4.98032
6.06911
-59.2242
6.77779
3.68562
6.08771
-0.853451
0.0104202
-0.662527
-24.547
-1.09889
-2.06031
5.98834
-13.6044
9.78527
-4.94062
5.85873
4.1117
0.0401674
1.22222
6.45658
2.64441
1.15083
5.73674
0.23606
-0.017931
9.28021
7.38024
-4.07693
-14.4914
0.106487
5.38318
-0.26884
3.09459
-12.0206
-0.271356
-0.930718
-0.470902
5.52843
5.53182
0.359626
2.60606
-0.476825
-0.206849
-9.81877
7.74536
-0.669347
6.14685
0.00600741
5.267
6.68968
3.32875
5.89823
0.37819
-0.957533
0.0296174
-19.7395
-1.66429
-3.96095
-0.60598
-0.640858
4.87569
-0.654298
5.96242
-0.229296
0.119491
-10.4411
-0.264225
6.55502
-25.715
6.16122
1.45811
-6.74732
-0.0126654
-0.761367
4.38337
6.27329
-0.160936
1.0344
-18.6392
7.55754
0.490558
1.90499
-9.21029
7.93472
3.0642
0.0285207
6.66581
6.61248
7.7061
0.707312
7.65997
-13.0515
0.163945
-1.01601
6.29249
3.75514
1.55759
0.901023
-8.65278
-8.69518
3.52102
0.416777
-9.32283
9.68892
-14.5349
7.60337
4.56405
-2.18926
-0.391249
0.103933
-0.806097
0.412952
0.729286
5.75247
0.0449681
6.1644
-10.86
2.90218
-0.52887
1.59272
-9.2287
8.00544
10.7664
6.81541
3.84667
1.65673
3.92481
-33.8535
0.123848
-0.730873
-0.980843
-4.3865
-17.9202
-9.17883
-3.7622
5.66674
6.37035
-18.4269
1.50609
7.05476
-3.73686
-9.79266
6.66293
-0.359706
-36.2533
0.150305
-1.71231
0.019481
9.96036
-0.639397
6.18871
-6.70127
-4.43178
-3.64659
6.20264
1.67051
5.33541
-5.59195
-4.69263
0.122434
1.30151
7.20822
5.57407
0.794676
-0.767629
-2.22934
11.2102
-0.607997
7.2062
7.99912
-0.735428
-0.479718
2.86403
-21.7526
-3.75443
5.30894
3.4357
6.08899
-2.15638
6.76868
0.451183
8.94796
1.31495
5.40606
7.93334
5.06261
1.03791
-6.18558
1.76915
-44.6685
5.66482
2.58658
7.66909
0.259849
9.69333
0.919024
10.3257
-0.79325
8.07077
-1.27477
4.75472
-30.238
5.85711
3.04649
2.35862
9.31496
6.09475
1.43818
-3.50754
3.61842
5.73313
-0.259363
-24.0907
4.5247
-0.0751517
8.20949
-0.601828
9.84143
1.27947
12.9173
9.81467
4.85587
4.362
-32.2269
0.0272697
10.521
-0.949769
-0.628453
-0.895496
10.1763
2.88441
5.46071
8.6463
-4.57955
6.80388
-1.73471
7.60177
0.241133
7.22553
6.3893
8.85459
-0.339884
-39.4806
1.75231
-0.80475
2.93845
1.46363
-0.813828
7.9727
9.25714
0.112429
2.40201
-1.58497
8.36713
5.22516
5.83284
3.63081
-0.977358
-17.0658
-0.693092
6.34092
-10.7206
-0.309626
0.0222571
4.51951
2.95956
-3.73327
11.0837
-0.478694
9.78342
2.20693
9.6965
-2.72376
1.49025
0.0582793
0.264441
5.34621
6.02269
-0.0702779
-0.321605
-0.720512
-0.316445
9.25932
-2.46415
-0.287762
-0.619247
-0.388133
2.54324
7.83668
3.11842
0.154289
0.0956526
6.12011
11.8048
-0.886882
0.134313
6.20522
0.138304
2.85784
-0.151393
4.76816
-0.342113
-13.7869
-2.08719
-1.20012
-1.18822
-3.76077
-14.0649
-3.72749
-0.424257
4.66782
6.71497
5.27305
11.4799
-39.5296
10.1467
-18.1915
9.59449
-9.3256
-5.08999
11.104
2.32199
-1.84507
6.53909
-0.396656
7.04159
-0.962685
-28.9346
0.922599
-3.54682
-4.1635
-0.00330561
-1.10495
2.21838
7.98402
-9.52869
2.47279
-10.7146
1.53595
-0.567296
-0.241915
0.969401
-0.464163
-8.6078
8.05949
-0.128732
8.92709
2.31248
-26.7964
1.83973
-5.89673
0.0814534
5.18927
7.92271
11.3881
4.54106
5.14278
3.08295
-19.8567
10.9947
11.8696
6.76736
-4.30828
-1.99906
-46.637
5.87517
4.28663
2.3384
4.9143
-0.714644
-0.166751
-57.5811
9.28211
0.269412
0.445562
-0.931581
6.21783
1.02313
12.6228
11.7814
5.58067
0.228747
1.79204
-14.756
2.23396
12.1154
0.792349
0.0840183
4.78389
0.0464408
1.12275
-1.29131
-2.00408
1.2994
0.581686
2.72787
0.0572383
1.70126
8.86814
2.38276
6.66314
-1.1109
-2.36364
10.7538
-12.9464
1.22563
1.94559
2.4592
0.730077
-0.632947
1.67706
0.179837
0.779574
12.6944
-24.1096
-16.6456
-5.44217
-4.7206
0.538581
1.95149
-0.589767
-13.1676
0.0472164
-15.5114
-5.48808
-4.6127
0.727286
0.169327
0.268717
12.4046
0.310733
1.70233
-1.19015
1.01886
-19.4603
-2.11425
8.55565
6.19726
1.77455
-0.440713
5.99097
6.66198
0.19746
-16.1005
-0.522381
8.50891
-3.84228
5.65118
-0.161212
9.73437
0.368648
-1.34132
-0.0114871
6.78951
-3.06832
5.42821
-4.67402
12.0379
-0.636314
-1.83008
-47.403
2.62104
-0.791678
-5.28616
-0.711852
0.613378
3.17457
-2.70718
-0.596914
-0.663533
1.06223
-3.77534
-5.5764
4.96896
-47.7129
5.53737
-0.832367
6.86537
10.9587
6.05768
-20.669
6.47847
0.626951
1.28198
-0.769981
-2.58428
-31.3142
-1.53335
-2.30149
3.12176
-0.364199
-4.72446
-0.398127
-26.4435
3.20691
6.12322
-7.05973
-0.724659
-2.59416
0.0375308
-0.475028
3.79895
-12.9154
-0.860643
6.21691
-0.301226
3.91277
-6.10426
-36.3864
-17.1534
-38.7483
12.3595
2.02742
-4.48481
1.45375
10.2598
10.7776
-1.60504
-1.7875
6.07008
-0.133015
-2.22493
10.5817
3.54519
5.79854
12.5995
-2.27643
2.19624
0.606399
9.45295
6.39511
6.64473
7.79848
4.21099
0.134425
0.281201
2.66868
1.3898
-23.7296
10.8907
-3.57278
-3.87785
0.0576611
-3.69362
3.17147
-0.995897
-1.94408
1.41863
6.68109
6.68291
7.3487
-32.8407
9.25542
10.6025
-16.4601
3.90581
-0.954002
-0.890711
1.23636
3.46841
-0.584122
-3.81467
-4.34545
11.7869
-32.3198
7.36517
6.28197
8.49336
4.91816
4.9987
-0.415343
0.117315
4.01958
-0.467603
-60.1715
-10.2521
0.386627
-0.619853
7.79616
-2.46063
-0.0630599
1.00932
-18.8009
-1.07173
-26.9838
5.54172
-1.74791
-1.60715
2.50086
-6.98768
2.26326
-19.9117
-0.933914
6.73032
-28.834
10.7892
0.029483
11.4183
0.00596893
-0.911314
0.909455
5.32713
5.46767
-13.368
-0.965331
-1.64836
0.730507
4.52548
12.5801
8.52887
2.23482
-3.7001
3.43089
-0.190084
7.35829
-0.590655
3.50795
-0.746879
-0.811771
-18.2444
2.72319
0.131395
-18.509
3.88526
3.95168
10.5216
11.1898
-24.6091
-30.781
-0.0357651
-6.34007
11.0009
0.659957
-2.97465
2.46364
4.30708
-1.02514
0.496229
0.302443
-0.376568
5.9581
-0.85389
2.17965
-2.66021
-4.8828
-12.1991
-2.08595
-11.9809
-11.1995
7.06972
-1.91813
-1.18923
-1.89264
0.164439
11.9413
4.94668
5.72328
-1.97113
3.28168
-0.598412
2.71054
1.6326
-0.607895
-14.448
10.9756
6.60197
-0.457603
-23.7065
12.3704
-1.00974
-15.9359
-0.697517
3.3597
-0.889975
-0.930557
9.40175
-0.828845
5.8996
2.23947
-0.609876
0.66271
-3.31148
3.06259
-12.5856
-0.250762
1.6742
6.22648
-0.853063
-20.4369
0.599299
-2.55678
-7.37476
-6.69867
11.5663
3.91958
-11.1753
3.17884
1.29697
10.2639
3.67018
-17.7249
4.05697
7.9524
7.05271
-3.63114
5.40177
-0.375131
10.8893
0.120042
6.31478
-19.7629
-3.32887
0.069234
-0.828731
4.00584
1.89571
-21.1754
-1.06641
7.49718
-0.179929
-0.813557
8.8436
4.74038
8.61061
5.65611
-4.93975
0.0656796
-0.0981619
6.32191
0.00544896
7.93862
5.13682
10.7599
-0.616823
8.37027
3.52843
10.7859
-0.60759
-4.50105
11.0859
-0.666724
5.08415
-35.5559
9.6362
10.6483
6.73838
-10.5371
6.05596
8.21801
-3.61208
2.50816
-1.39304
8.80447
-0.760605
-0.471347
-33.3563
-35.3234
8.06926
3.38007
-50.8944
3.31379
10.6547
-3.65279
-1.3228
-37.9796
-5.46894
5.53488
-1.23604
5.79936
5.95808
-51.1512
11.9163
-0.469126
8.97858
9.07182
0.234126
0.0315048
5.70402
-9.86478
-1.51643
5.7121
4.88833
-2.64828
5.98486
-0.646427
9.21599
6.70842
2.51704
0.561419
7.1965
-0.655133
3.65403
8.49328
1.30746
0.0457682
8.19711
6.84416
-4.07972
-19.9527
5.04517
7.15479
10.8664
-23.9178
11.4512
11.0843
11.6167
-0.729434
7.92026
-16.3674
6.15256
8.63459
8.22596
7.08581
9.38843
12.6251
5.29772
-23.0034
1.09164
-12.4862
12.474
3.43806
-0.366814
-0.664944
5.79459
9.31127
5.98597
2.23281
-0.876225
9.29685
-15.0896
6.85719
-0.767426
2.58346
-0.182006
2.46244
4.12489
-7.49351
-6.02494
-0.517781
-2.47224
-0.72901
7.75491
-1.6858
0.524306
5.92424
-24.4811
4.22386
0.0408691
-19.9259
-20.623
-20.5807
8.94507
9.54329
-0.907631
2.20982
8.14321
7.23753
0.0789862
-5.75911
6.98469
-23.4444
8.74311
-16.6865
8.51285
3.78126
0.592695
7.86885
4.13613
8.34628
2.35568
2.67567
-3.09577
-21.0602
-47.5178
-0.724745
8.17698
-8.48076
-1.23901
-8.43615
8.89591
8.29646
1.99131
4.77604
9.14555
-10.9929
6.04819
-1.1831
-3.54899
6.02625
-1.42038
-34.6186
-6.27742
-25.3764
-1.95811
-13.1715
-1.13302
-53.8776
-21.5128
5.25264
10.9272
11.9313
10.3935
-8.38454
6.92865
-22.6751
5.86861
9.07939
0.660719
8.03566
-8.32659
2.28175
-3.38901
-0.796304
8.76721
-5.06036
7.23682
-36.1562
-2.01611
-27.8968
7.2536
7.18344
6.08868
-34.0194
5.99886
-0.665428
-45.5724
-40.2485
2.13788
11.0242
-13.0635
-1.94605
-0.92807
6.12204
5.85395
-0.454098
3.67316
-39.5321
9.27535
8.2631
-1.08709
-1.70688
9.11643
-1.56237
-34.6143
-0.292672
8.27023
9.37427
-14.0239
4.73915
-1.20007
10.7275
-57.3691
-3.52885
-0.826266
10.1098
-0.356606
-2.918
-0.3676
8.74417
4.75703
8.6262
-1.06944
-11.9938
7.09142
12.3507
-21.4762
5.92085
-0.53979
-49.8956
-0.441073
2.33421
-0.802303
4.66309
-0.629998
3.88238
-0.73961
-4.41961
7.88315
9.51799
5.94801
-9.15331
-3.61357
7.48022
-37.7254
2.58283
-3.74334
3.16645
-60.5361
6.7059
7.46041
-0.655601
7.06662
10.6707
-1.47107
5.36377
7.14804
-34.963
3.67545
-2.92617
3.18598
2.60183
4.75419
0.0144137
2.19023
-1.44049
-13.0069
8.95433
2.81368
1.07824
-1.83655
-1.43926
6.43117
-49.8347
11.5768
-29.8098
-28.9202
-0.366508
8.0236
7.21516
8.57725
-15.3382
10.2753
-14.2831
5.25434
-0.215559
-24.8453
5.65808
2.9169
-1.69765
4.41819
-14.2191
4.8914
-25.2152
-1.69322
0.0186827
-14.2729
-17.1616
5.7958
10.5057
-2.88008
-18.5136
8.19518
-13.0273
9.56864
3.27483
-0.136597
3.35505
6.20651
3.31428
-0.499343
0.753462
-0.463006
1.30178
2.08129
-29.524
-1.10305
0.28602
4.05436
-1.1165
12.5032
6.89983
6.17491
9.69034
0.782387
6.97576
-7.93296
-21.3253
-2.36395
6.10844
12.2079
5.8888
-4.95484
8.93893
6.16711
6.20086
-1.13055
-0.619422
3.37145
11.6465
0.687741
-4.41475
8.38094
9.15109
6.84675
6.2428
7.71028
4.30931
-0.671323
-4.1513
6.98956
-21.2423
-19.8211
6.13187
-2.95319
0.531701
2.42276
6.99265
7.28206
7.2902
-0.923591
8.54006
8.7588
1.39796
7.69899
6.7051
4.89706
4.62657
4.57401
3.27313
-0.473041
8.03597
7.67019
-0.0912643
5.91546
-0.98646
0.00347434
10.4012
7.93474
0.0342907
-9.96513
0.127416
8.17314
4.67234
1.16038
-0.199076
0.66972
-1.70987
1.04217
-1.46767
-1.46163
4.93425
-1.26126
-12.7571
-36.3456
9.88017
-0.756807
-16.5011
-2.4032
10.5068
-1.0266
1.45958
1.01599
-43.2524
4.82347
5.7266
4.18393
9.33963
5.06897
-0.230971
-15.8533
-7.2995
0.125003
7.21524
0.135741
-17.6633
-55.7338
-2.01541
-15.4234
-1.76362
-16.3535
-1.33877
2.08549
6.02101
8.3421
-1.71841
-0.895291
9.35458
7.01266
-12.5606
-1.18272
-12.913
3.97805
-0.116015
3.48336
5.11686
-0.134444
-1.16187
-1.41211
1.40663
-11.9479
-19.3189
0.438049
-5.96182
-24.2637
-49.0091
-4.78805
0.530648
-13.2411
3.22831
-18.6165
6.06074
5.38615
1.78066
8.11561
-11.2211
10.5957
-3.64232
0.029139
-5.92847
6.25121
3.78762
-19.498
-15.7288
6.29655
7.55407
10.9666
-13.4098
-23.6318
-7.8659
-1.11334
0.018487
-33.5171
2.57518
-32.7983
3.71093
-20.3288
5.10036
0.85581
-0.630212
9.51681
5.6419
-4.84558
-0.0737747
-8.37349
-23.7212
8.09663
11.9888
-18.2822
7.87542
5.91224
0.0120114
-0.616455
7.89865
7.52161
-18.5508
-0.950891
-2.58141
-10.7918
-5.55253
-38.8504
-4.98045
3.96415
-0.676276
6.82662
-31.742
-51.7321
5.71645
-5.08232
-35.3231
0.0446859
4.65647
-37.8451
-3.21679
-52.6372
-28.5115
-33.1651
11.1427
-17.7462
-1.47044
-21.5676
6.85102
-31.6875
-0.625469
-14.0322
-41.6322
-3.31763
7.18731
0.015201
-32.9662
5.47505
0.0127055
-3.18485
-23.704
-41.0151
4.64657
5.30369
6.16992
-28.1926
9.56462
-2.36942
0.00300892
0.213697
-10.7052
-4.89879
-37.1815
-8.5968
1.37699
2.29138
-1.2431
-1.71711
-6.22276
5.9879
-29.3386
6.22555
-24.5662
3.70027
-1.90104
-0.348319
-0.252306
12.2104
-0.280805
-40.7041
-23.1466
-5.5205
6.09969
-0.366105
-0.219764
0.179173
-52.8306
-11.5419
-20.479
-35.2181
7.08544
-60.694
0.620342
-52.4668
-0.596015
5.48017
0.234237
2.98488
-2.77225
8.40982
-25.668
-4.82734
8.98351
2.58892
-28.3216
-1.78248
-21.4407
-5.75414
-2.12739
8.16202
-1.71551
2.4858
-23.4638
-17.8281
-53.9949
-57.4668
-14.8622
4.0078
-1.34915
6.18477
2.14584
-20.2943
-3.18964
-6.76957
7.6984
9.49372
-43.5743
0.15361
6.71373
5.97652
5.17702
-6.60417
-12.22
-12.3501
6.13533
1.54409
-5.99812
-31.9217
3.76295
7.40616
-1.43499
0.0904374
-0.00745802
8.86896
-7.5091
-7.99801
-0.0625104
5.20312
0.212156
-0.291169
9.61946
7.80299
-0.83483
-8.00582
8.07635
2.88582
-0.785657
6.05545
-2.56941
-9.37089
-15.138
-7.97709
7.60109
6.88233
-0.889183
-3.7639
-0.537216
-0.0689301
6.98104
-7.95956
5.03134
8.46417
9.06009
-1.53906
6.26645
5.7078
7.18207
7.57473
-1.06035
7.59455
0.0122956
6.17487
3.2936
6.72852
-6.67947
7.91319
7.58815
5.44309
3.96649
-4.19407
4.56484
0.182197
-4.57937
8.67627
8.29061
-5.22205
6.94443
-7.79371
-21.9225
6.88521
6.80545
-12.2715
-0.809819
-23.8087
-7.13623
-5.65704
-1.15246
-13.1341
-2.06863
5.80367
11.4081
8.09256
-1.85314
-0.764554
6.80359
2.98195
-0.518992
-9.21141
-3.4213
-7.92044
-21.1362
-20.8203
5.81611
-0.703462
2.64544
0.0819472
0.0992517
-0.36662
0.121701
1.40193
3.37058
4.10361
-3.48825
3.36815
-12.8714
-23.4492
4.40362
3.22718
-0.662269
0.617212
3.99986
-0.32597
2.2222
-3.65175
6.22208
5.26099
10.1302
6.16024
-6.40977
-2.07018
-3.70563
-3.10979
-0.16172
-0.0233438
-1.28958
-5.51999
11.6305
0.465966
0.0266265
9.43581
-0.906227
-4.31392
-0.897613
-6.9542
-19.9526
2.17024
-6.57823
6.29198
-1.53575
-5.68213
-0.169643
-1.81033
-5.20478
-0.501934
-4.05904
4.70285
-0.634049
-1.10141
-7.10484
2.47543
-6.01634
6.72084
9.70658
-2.94425
6.87485
3.68255
4.38408
10.6472
-1.11994
3.63999
3.32038
2.51358
9.18572
-2.08302
-1.12675
-0.536884
6.65331
9.70349
-1.99408
-0.881825
-6.61845
-5.24336
3.01805
-4.6167
-11.1798
-3.31134
2.27896
-23.4104
1.35122
2.05334
5.35415
0.984196
-23.2169
-4.71692
-0.267134
-1.08294
10.3396
11.5494
8.61607
12.0647
5.44136
1.85691
7.30296
6.36345
5.57983
-5.51347
6.50433
-1.98178
-21.1574
9.40287
-1.51328
-6.0027
11.002
-0.19388
-13.7187
3.1195
2.59047
7.64368
-27.6801
5.6675
10.059
-0.917222
-21.8025
-9.07441
4.44623
-21.3343
8.24842
-1.06295
7.63407
6.11832
-1.02832
7.4376
-3.57502
-18.1456
-21.4416
-3.25883
7.76514
-5.67644
6.16063
-0.419276
-35.9936
-0.556147
-0.497948
-6.46887
-3.86301
-25.8163
7.85004
0.972426
-31.1746
-2.97305
3.86647
1.60622
-6.6827
2.86444
-0.354429
2.89905
-35.2062
3.50899
1.38064
4.14794
-0.886275
5.94464
3.84763
1.64815
-26.237
12.0622
-5.10953
-47.7177
5.95709
5.23103
-35.1905
-5.55373
-5.1793
4.16061
3.44575
-5.13617
-0.866645
-1.69564
11.9099
-0.800263
-1.16327
-0.415917
-3.18026
4.4962
-1.73848
5.80717
3.82353
-22.1749
4.00773
-23.3928
5.23097
2.55688
6.42278
4.26541
0.0116381
0.0551764
3.2451
6.79361
1.32655
0.4089
-37.2487
-3.48611
-2.82573
5.28222
-42.4066
3.2515
-31.1827
7.7717
-39.6462
-1.67442
8.38556
7.54044
2.58483
-1.6691
-12.9473
6.93426
0.199801
7.82538
3.24771
-0.103988
6.29423
1.84719
1.58754
1.06536
-2.96716
-4.47911
4.03996
-0.241448
8.57894
1.90109
12.1219
-0.452803
1.52451
7.62003
0.58679
1.63357
6.67701
5.47221
3.92129
-6.22741
-0.313381
6.0064
4.09568
2.35313
-9.37781
-1.23122
-5.57877
-38.056
-3.37948
5.5034
0.170076
4.91278
-0.720363
10.3857
7.62805
2.18291
5.25417
2.01595
-29.3766
5.60268
4.66867
0.168087
2.66963
7.80269
7.008
-0.548813
-9.417
-10.1275
5.68028