/*--------------------------------*- C++ -*----------------------------------*\
| =========                 |                                                 |
| \\      /  F ield         | OpenFOAM: The Open Source CFD Toolbox           |
|  \\    /   O peration     | Version:  2306                                  |
|   \\  /    A nd           | Website:  www.openfoam.com                      |
|    \\/     M anipulation  |                                                 |
\*---------------------------------------------------------------------------*/
FoamFile
{
    version     2.0;
    format      ascii;
    arch        "LSB;label=32;scalar=64";
    class       volScalarField;
    location    "4.4";
    object      p;
}
// * * * * * * * * * * * * * * * * * * * * * * * * * * * * * * * * * * * * * //

dimensions      [0 2 -2 0 0 0 0];

internalField   nonuniform List<scalar> 
13486
(
2.46764
1.96352
0.143217
-0.106001
0.835376
-0.222508
0.395603
1.40625
1.68509
0.856525
-10.1273
0.412486
2.5991
-0.311637
0.664327
0.952973
-6.29082
0.0482869
0.578806
2.22363
-0.101749
2.56879
1.92444
-1.46411
0.8116
-1.35403
-7.39853
-0.811921
0.00350092
-0.662201
-0.0879249
0.49275
-1.63186
-0.480761
1.40948
0.0150547
0.0337689
2.02374
-0.0474855
1.68171
0.279546
2.69675
0.0357602
0.811215
0.770993
0.390624
-7.02638
0.00683575
0.031132
-0.849096
1.42732
-0.0741682
0.281857
2.05582
-0.00673088
0.898736
0.0724218
-0.0745742
-1.55689
0.0529387
-8.10408
0.0500028
-3.87788
-0.0941946
-0.624531
0.0381496
-0.11113
2.46415
1.67509
0.0025159
-0.11042
0.00490954
1.68709
-5.23791
0.0449266
0.074441
0.0433577
0.649715
-8.64133
-0.17718
0.0042764
1.98369
-4.25452
0.159488
2.47802
0.808925
-0.526706
1.34669
1.62248
0.929147
0.337439
1.22856
2.36886
2.10875
1.74951
0.00484944
-7.32718
-0.120419
1.65485
-6.57849
0.0237972
-0.216088
-0.12959
-0.0723749
1.00736
-6.78562
1.64532
-0.0535291
-8.20541
1.11473
1.6214
0.425727
2.05424
0.061065
2.8935
1.69648
0.815085
-0.450632
1.70052
0.0273844
0.0408803
-8.05572
1.82671
-0.0532354
1.61626
-0.0652908
1.20356
0.378142
-0.392275
-0.541044
-0.0631623
-6.5553
-4.57594
-4.78975
1.50259
1.31341
2.86786
1.15795
0.0261881
1.4479
-1.33145
0.274982
0.476621
-0.175884
0.0600009
-4.05431
-0.262577
1.68582
-0.926025
0.00158145
0.936926
0.623008
0.00468684
2.02431
0.446587
0.142477
0.930275
0.0917535
1.83864
0.0833888
-0.654047
1.83911
0.222147
2.6888
-0.0788944
-0.581759
-0.0570238
3.32151
-0.222178
-4.77497
-4.69534
0.462658
1.12852
0.906627
0.00522019
-0.738694
-0.557933
-1.60219
1.64787
0.487923
1.58051
0.0606032
0.730597
-2.28778
0.157625
-0.818758
4.45143e-05
-0.625636
0.346498
1.7811
0.030615
0.108578
-0.0996015
2.09084
-0.128078
-10.0348
-0.552439
-0.678958
2.22303
-0.489626
-0.100563
0.353924
2.02797
0.694909
0.0810218
-0.135093
0.0460088
1.80462
-0.0895461
0.16215
-0.70719
-0.949118
2.1938
1.64488
-0.222463
-0.333409
-0.701686
0.961643
2.24626
-2.19067
-6.33636
-0.951443
1.48408
-0.689927
0.134755
2.40696
-0.526372
-0.261352
-0.267503
-0.405044
1.56135
-0.107816
-1.39163
2.74969
-0.141819
2.31337
-0.530298
0.113923
2.33679
0.756173
-1.60492
1.10647
0.0682093
2.20511
-0.0256604
1.87915
0.784003
-0.962229
-5.10948
0.920914
-0.402136
2.92569
1.64018
-0.0613235
-0.206651
-1.09127
0.474267
-0.322724
0.105603
-1.51045
1.79615
-0.0188502
0.652032
-0.971223
0.934234
-2.43431
-0.271659
-0.105034
1.57487
-0.0398031
1.6192
1.60661
-0.729323
0.291401
2.41075
-0.912426
-0.20609
-0.174724
-0.0747542
-0.289331
-0.195689
1.38876
1.66033
-2.65505
-7.00355
-8.03413
-1.33328
-0.416108
0.125197
1.58892
-0.129774
0.040077
1.75437
1.51878
-0.503252
-0.572481
-0.64733
0.272403
1.69472
0.35215
0.200459
0.0401362
-0.220599
0.523676
0.0243951
0.723511
-0.125592
0.818304
-0.286367
0.0314657
-4.66431
-0.105332
-0.271527
0.42503
-7.21415
1.34316
0.0447491
1.62525
1.81212
-0.315836
0.0358294
0.0256813
1.63247
2.12282
2.83436
0.366376
1.07403
1.36006
0.165873
0.997195
1.36013
1.17694
0.294694
2.25903
0.383726
1.65313
2.99698
0.662514
1.00154
-0.0115635
-0.292167
2.10011
0.962617
0.750783
-2.42934
0.00556867
1.12792
2.89345
-2.20522
0.0368467
1.08984
0.193573
0.274511
-6.95832
1.68267
0.0159989
-5.24559
1.17749
-0.21844
-0.923801
0.596047
0.297455
1.82783
1.61155
-0.691563
0.00332663
-0.546952
-5.19037
2.24699
1.18942
0.0331581
1.14652
0.0878078
-0.605448
-0.177105
1.46237
1.67263
0.0165298
-6.64649
-3.38384
1.55874
1.14493
2.60034
1.71927
-5.64427
-0.220128
0.10471
0.976684
-5.72447
-0.0274643
2.15734
-0.800726
0.689761
2.35804
2.4129
0.0292889
-0.111026
-0.531083
-5.82235
-1.37802
-5.74621
0.374948
1.47921
-0.178631
0.435236
-1.22326
2.07617
-1.52963
1.20495
1.85091
0.95519
-1.27647
-0.888013
1.69752
1.65596
2.01339
-1.84549
0.959309
-4.67553
0.783716
1.64845
0.28436
2.90327
1.0517
-0.604094
-0.59276
0.343376
1.65606
-7.585
0.0498559
2.54779
1.48475
0.673367
0.0798571
0.782875
-1.08984
2.58638
0.0329221
0.950535
2.42323
-5.8785
-0.74824
-4.83249
-0.896702
-0.122672
1.96742
1.90011
2.56233
-3.43499
0.0288822
-2.67261
1.02456
1.65606
-0.830869
-1.4283
1.63059
-0.338356
-0.769475
-2.70801
-3.71576
-0.139312
2.07826
0.0062789
0.080756
-0.105901
1.5638
0.00523667
3.16045
2.39635
1.68933
1.35469
0.0208089
0.00370903
2.97989
-0.222154
0.0283931
-0.589508
1.66821
-8.08832
0.248668
1.15526
0.0177706
-0.739976
1.90221
-1.93809
-5.92855
1.06807
-0.039346
3.30958
1.0907
1.44359
1.79135
-0.819518
0.191672
2.66473
0.845925
2.1359
0.407056
0.452342
-0.122636
-0.168396
0.0339498
-7.57287
1.69015
1.6597
-0.428395
0.00298558
-0.273699
2.43809
1.97344
-0.217703
1.69053
1.22857
-0.708408
0.940766
1.46819
-4.70743
2.55722
0.0367957
0.00697679
2.67704
1.15808
0.00151923
1.1083
-0.158744
-0.221385
0.682358
1.06752
1.85285
2.37484
-4.46292
0.774649
-4.72463
0.00534577
2.30968
0.450866
-1.98088
-0.146145
0.266914
0.0910879
1.35583
-0.574928
-1.35304
1.69564
2.23505
-0.172427
1.79164
-4.26049
-0.871348
-1.86335
0.677498
-3.41681
1.82215
0.184378
-7.3281
1.42555
1.9554
-1.50495
-4.08223
1.44907
2.31551
0.500717
2.48773
0.185037
1.09679
0.368388
1.83333
0.0542217
2.25374
-7.10083
0.354155
1.61105
-0.359387
-0.85893
1.62734
-5.6873
0.286738
1.86753
2.56272
-0.262607
0.0800601
0.436922
0.201172
1.48409
1.15963
0.590821
-7.60579
0.0242682
2.45244
0.261501
0.110754
-1.34996
2.57925
-0.399916
0.0634622
1.59524
1.33521
-0.167216
-0.531709
1.43029
0.146593
-1.27608
0.634586
-1.60773
2.50266
1.65541
1.1658
1.19749
-0.10362
-1.3529
2.80433
0.493012
2.81185
-0.229455
1.58947
0.0161962
-5.30745
1.02696
0.915459
2.93802
-0.825735
1.10017
1.03692
-2.35663
0.875903
0.0594072
-0.705999
1.62433
-3.91827
-0.822508
-1.11307
-0.308931
-0.388905
1.77816
0.00676323
2.73045
1.66088
0.0747776
-0.744046
-0.696772
0.532145
-7.50549
-0.411056
-7.20165
2.29526
0.000988703
0.0753531
-3.22238
2.60895
0.00267723
0.181522
2.67395
1.44899
-1.31459
-0.169528
1.17996
0.136509
1.60065
0.0638812
-0.335507
0.623868
1.50849
0.478721
1.36024
2.71236
0.0617475
-0.418947
1.62439
0.316133
-0.267677
1.14719
1.21819
0.708171
-1.60458
0.183556
0.0122402
0.170251
2.30633
0.498518
0.143651
0.170398
0.193666
-0.152567
1.6538
0.0835351
1.56609
1.57298
2.2675
0.0550133
-1.34435
2.7901
0.0232622
-0.290384
1.73589
-1.13147
1.85481
0.0612508
1.59435
-0.175393
-5.10497
-1.16008
0.00482977
-6.03922
0.868213
2.8683
-0.374376
-3.31653
-0.601391
1.69488
-0.0731948
0.719475
-4.37954
2.8333
-1.46458
0.874137
-0.89227
0.944901
1.63888
0.592589
-3.16177
-0.076528
2.64741
1.6704
0.740209
1.48427
0.153234
1.30968
1.33374
0.956766
-4.68096
-0.201699
2.05782
0.402735
-0.0819928
1.39504
-0.220799
-0.361752
-0.0304468
1.78307
1.74576
-0.28699
0.16417
-1.10089
-0.0873015
0.161768
-0.375918
0.303237
1.58686
-0.111862
-1.60068
1.93803
0.0123546
-0.420926
-0.141741
-0.744444
-0.262294
-1.04491
-0.000969836
-1.51969
1.58968
2.59536
0.0295112
-0.426867
2.68096
2.51714
-0.240551
-0.590456
1.71832
-5.16729
0.0692965
-0.0750206
0.0498048
0.941591
-5.90794
0.763172
1.10666
-0.661394
-0.235169
-1.57432
-0.203764
1.43701
0.695493
1.07648
-0.318969
1.39927
2.46596
-12.7704
-1.32619
1.86376
0.624635
1.09995
-0.0400025
-0.64186
-0.328661
-0.159067
1.68048
2.81856
1.81568
-0.118809
-0.174432
1.63739
2.39929
-0.504499
1.77663
1.62966
2.49415
0.431
0.00310029
0.235377
-0.304364
2.48675
0.163545
-0.23921
1.14245
-0.20349
0.403174
-0.132066
-1.49023
1.55949
1.16784
1.13835
0.771843
-8.02241
-0.378839
-0.349586
0.947674
-1.70331
-0.931686
0.0578399
-1.95149
-7.22069
0.860233
-0.653423
-5.04675
-5.56996
-0.400541
1.24437
-10.459
-0.694846
1.85025
-0.166825
2.57249
-0.27404
-5.17291
1.9654
2.32508
0.0468603
0.0855994
0.429388
1.68765
0.962905
-2.72581
-0.153341
0.0260155
-0.226714
1.60148
0.0706268
0.958017
0.0209776
1.67125
-7.99348
0.0615252
0.0125645
2.01371
-1.09539
-9.55549
-1.28563
2.54921
-0.050778
-0.454093
-11.5648
1.63667
-0.452662
0.0304522
0.384194
0.802028
-0.247338
1.15066
-0.619894
1.3347
1.61759
1.91962
0.738872
0.00107719
-0.419052
1.23997
-0.615632
1.99396
1.11023
-0.185228
-0.062738
-0.235023
-0.0964861
0.027053
1.86092
0.662055
0.319623
1.62857
0.0315477
1.3282
2.90719
-0.129147
-2.0104
1.12557
-1.80206
-0.0269596
-0.251223
-0.104879
1.62829
0.0669586
0.0255398
0.0532811
0.0749029
2.12055
-1.11856
0.00424921
1.63797
-1.69745
2.32973
1.88205
2.20707
0.418728
1.01869
0.514876
0.115575
1.25117
1.62277
-0.129451
-0.364476
-5.79618
-0.586067
-2.8429
1.64097
-3.12285
-1.68524
-1.84125
-0.124964
0.018192
1.64785
0.0183481
0.321541
-4.89525
1.6641
2.87029
-1.44932
-5.61189
0.914113
0.0221287
1.59167
0.0762165
-0.0315598
1.99212
-0.0840508
2.72073
1.14614
1.6291
-0.63281
2.14384
0.0665264
1.89248
0.0365467
-1.54993
-0.553756
-0.920924
1.1151
-0.386106
-0.0621703
2.56478
1.66218
1.76841
2.33773
1.80556
2.00814
-0.341165
1.73088
1.67738
1.68637
-0.315183
-0.518475
-0.894757
-1.59808
0.434792
1.86215
-5.21066
2.44096
-1.59695
0.0644324
2.79521
2.35763
-0.358739
-1.04901
1.66673
0.841286
0.135883
1.56095
-5.13064
-0.660118
1.62756
2.28568
-0.0334148
1.83237
2.12147
0.00370309
-0.639549
2.12794
0.741785
0.0277802
-6.46899
0.156895
-1.42814
1.52872
1.11486
0.0386764
-0.0457913
-0.741429
0.445901
-0.0258467
0.396265
2.40075
-0.0547392
3.10495
1.64945
0.556833
1.85357
-1.34978
-4.89566
-0.390576
1.6225
-0.0390041
-4.57693
-0.0990848
0.807266
0.954832
-0.00583013
1.19569
-4.15696
0.870447
-0.0579627
0.0216807
1.3331
0.522256
2.14515
1.67554
1.71996
1.5932
-0.364938
-1.32164
-1.09664
0.168143
-0.298334
-0.319028
1.30869
-0.158808
-0.00392529
0.0438394
0.171314
-4.34902
1.17314
0.765993
0.0909937
-0.774478
0.808635
-0.926707
-1.14965
0.206549
-0.473139
1.82884
1.21946
2.12332
-4.84902
1.4863
0.0572699
2.30422
-0.243967
0.858943
0.0470442
-0.224866
2.67224
2.741
1.37493
0.930019
1.11524
1.52332
2.70205
1.14589
-1.45394
-3.81816
0.320904
-1.5667
-7.58683
1.65441
1.59659
-0.29333
0.48345
1.39813
1.50464
2.93587
-3.62313
1.29005
-5.74325
-0.40709
2.35506
-0.228668
1.38475
-0.19573
0.483562
0.660118
3.05686
-0.207751
-0.897738
0.825071
0.232602
-3.07123
-5.10409
0.0607683
1.82134
0.0465713
0.9352
2.51428
2.312
-0.146936
-2.96824
-0.0849707
0.27506
1.94419
1.56922
2.29501
1.02122
-11.328
2.40529
1.51245
-2.43736
1.28313
1.67573
2.08181
-5.12077
-0.107727
0.00028137
1.3991
2.63637
0.877511
0.163206
-1.41816
2.94865
-13.0152
-1.3184
2.74897
1.44421
-0.206074
1.32559
-0.106546
0.929598
-0.48909
-12.8622
-0.00657295
-0.510273
0.0661631
-0.40248
-5.41556
-6.04784
-5.841
0.142458
-5.77525
-0.455853
1.26026
1.51491
0.89758
-4.53831
0.452316
0.239671
-0.371755
3.08955
1.10705
-0.989529
1.44381
-0.501919
-0.59721
1.3713
1.35991
1.59187
3.12323
0.00313107
-0.224216
-1.46767
0.158433
1.13931
1.62735
-0.641675
2.42988
1.12735
1.7371
-0.134762
-0.15692
0.0788907
1.71648
1.64506
1.7789
1.6377
2.87052
2.82045
-0.520147
1.45189
2.09615
-0.95268
2.28614
-0.0313487
2.78772
2.26496
0.0592662
1.8607
0.799705
1.27174
0.0839191
1.66151
-1.28357
1.44586
0.628383
1.13361
-0.217931
1.5892
-0.0214617
0.423528
2.69443
2.68765
1.11291
-4.88133
0.40318
0.161257
-0.207578
1.32326
2.4146
-4.91948
1.68954
1.58625
0.818737
1.70644
-1.77537
-0.207275
0.0398043
2.90965
0.513258
-0.0378013
1.88672
-0.217324
0.0770876
0.827832
0.316793
1.25017
0.697389
-0.644038
0.99768
1.338
1.10578
1.24865
2.84089
2.33258
2.05846
1.87317
2.63619
0.807979
-0.0419121
0.0183057
-1.85118
2.66336
-0.170318
1.64605
1.48869
-1.19578
0.880888
1.81893
-1.01467
0.835765
1.03107
3.16186
-6.72973
0.73845
-0.34353
1.89379
0.142013
-0.153913
2.61982
2.23916
1.60061
1.61746
-0.558691
0.81465
-7.54119
2.81449
0.0421231
3.03472
-0.0570792
0.151088
-5.67408
0.911158
-5.25017
0.283775
-0.0843076
0.590037
-0.558509
0.556828
-0.165713
0.0018731
-0.299139
-4.80303
-0.821041
-2.90121
-1.11854
-0.140482
-0.113134
-7.11977
1.69475
1.72677
2.07072
1.623
0.67875
0.644921
3.31088
1.60529
-8.27433
0.00807588
-0.170792
1.25891
1.45804
2.43474
-1.32791
-1.31209
1.35851
0.00466993
0.425035
2.05086
-4.96585
-1.91004
-6.95909
2.84644
-0.112894
1.15899
2.10458
-0.110703
1.31624
-0.00913886
-7.12793
-5.701
0.0798843
1.09939
1.964
2.0642
-2.96277
-4.8706
1.10715
-9.92819
-0.665746
-0.372372
0.328079
-0.459097
-0.172141
-0.159095
-6.49579
-1.44962
2.52698
-0.106409
2.7539
-3.53425
-0.250216
0.643299
-0.10095
2.33671
1.62791
1.92777
-1.61523
-0.497636
-7.85696
2.24884
-4.78999
1.2012
0.0107232
1.97334
2.33036
-0.0017002
1.61994
2.64628
1.81674
1.76955
-3.31861
-0.0415966
0.700113
-1.06668
-0.0806295
1.01636
1.19293
0.145463
-9.82178
0.391979
0.0807815
1.44888
1.23877
-0.740707
2.77849
0.161818
0.00376082
0.206965
1.61061
-0.576938
0.00940015
1.79499
-0.878189
0.122723
-0.341471
1.75243
1.61712
1.53991
-0.136603
1.53925
1.88898
1.86091
-0.503655
0.0671652
0.363399
1.42911
-1.37064
-4.3628
-0.419478
-2.10656
-0.107991
0.0313308
-0.0729361
0.0601404
-5.21471
-0.961914
-4.79558
0.0810224
-0.489229
0.610343
-3.64203
1.74093
3.33966
0.553981
-0.302786
0.731852
0.183641
0.402158
0.0239567
-0.625608
-1.61199
0.195734
2.17435
0.00635993
2.60069
0.022025
1.53627
1.36201
0.738217
-5.58482
0.981392
2.85498
-0.117395
1.64032
1.57758
2.42459
0.189558
2.23007
1.77838
-5.67638
1.89029
-7.12067
-10.8742
2.27684
1.4434
-2.62743
-0.00418263
2.12667
0.237178
-0.824104
0.0585912
0.0577264
1.26267
0.885008
1.64056
1.55284
1.40934
-3.24902
-0.829243
-0.466739
1.60256
3.03262
-0.696773
-12.7352
-5.46861
1.6605
0.172681
0.178299
0.751209
0.0914207
1.28917
-0.114998
0.417246
2.50444
0.7375
0.00774031
-0.0918499
-0.154506
-1.0612
-5.82894
-1.44312
-1.99942
1.94616
0.881437
-0.902525
2.62813
0.00874453
-6.75128
-0.337638
-11.2889
1.78629
-4.66342
0.545282
1.64925
-0.226346
-0.516412
-0.182278
-8.59909
-0.208472
1.78104
-4.95851
-0.0158529
-7.0463
1.57929
1.75907
-0.116501
2.08252
1.93029
2.50458
2.56497
1.83859
0.2682
2.9099
-7.33839
1.61046
0.348411
-2.807
1.98908
-0.335721
2.5036
0.772079
-1.783
-3.6308
-5.34255
1.75072
-0.444652
-0.481747
-0.103481
-1.37084
0.0134478
1.01758
0.292049
1.21162
2.8436
-4.95789
-1.34507
-0.986629
1.7224
1.2336
-0.898419
3.29933
-0.0333753
0.0774449
1.05288
-1.6764
1.57185
1.7001
1.89545
1.91815
0.0277577
0.907733
1.57852
0.365685
-0.159333
0.0124177
1.78878
1.84067
2.2709
-0.106921
0.130982
0.879579
1.00029
0.266786
-2.18198
1.35599
-0.25506
1.42798
1.6889
-6.13524
2.59408
-0.921578
2.80014
1.87971
-3.60476
0.0039037
0.0397086
0.618653
1.72408
-2.15714
2.23646
1.55217
0.875774
0.0480825
0.345013
-0.403331
0.876037
-6.35678
1.03775
-0.200042
1.59676
-4.00881
0.00856459
-0.447178
2.0215
2.35387
0.784529
-3.88163
0.800338
-0.160491
0.154809
0.920488
-0.121857
-0.0790112
2.75563
-0.856867
-0.130514
-1.21758
-11.3924
-0.0396586
1.68031
-6.20729
-0.39015
1.71716
1.06956
1.75896
-0.377314
0.761401
2.77952
-3.12747
1.5798
0.527349
-0.0923423
0.570869
0.378795
-1.24249
2.83906
1.88694
-1.26257
2.74393
2.14243
2.00305
-9.30539
-4.01902
1.07881
-1.96869
-0.0313371
-3.49642
-1.72526
-3.2577
1.30798
0.642794
1.01195
1.11545
-0.108565
1.25879
1.60827
-12.6508
1.7318
1.02326
1.63293
-0.162414
0.0170351
-0.12504
-5.85615
-0.255719
-0.455994
1.59133
-3.02608
2.51615
-1.16999
1.58009
1.0392
0.0448221
0.312469
1.68637
0.748143
0.389105
1.48646
0.123241
0.0361647
2.38162
1.9326
-0.938025
-3.21854
0.0405005
1.4451
0.0181137
0.782774
-2.80543
0.0278375
-0.185745
-0.0167948
1.43666
1.39762
0.143086
0.739893
-0.0328814
-0.0108673
-2.26598
2.02112
-0.142002
1.58382
0.00310976
1.41124
1.74453
0.9337
1.53288
0.0768498
-0.180763
0.045847
-4.6517
-0.350687
-0.89814
-0.120296
-0.0447227
1.30893
-0.0714173
1.60203
0.00954967
0.0726093
-2.55318
-0.0270029
1.70976
-5.96516
1.60277
0.423133
-1.5286
-0.0280768
-0.156563
1.17499
1.72239
-0.00615796
0.306424
-4.97966
1.93975
0.169576
0.516349
-2.16419
2.06255
0.822777
0.0222964
1.74765
1.7097
1.99557
0.223167
2.00927
-3.2983
0.078915
-0.201959
1.60288
1.05274
0.44783
0.226927
-1.95517
-2.01239
0.919896
0.133702
-2.17822
2.54251
-3.60739
1.9652
1.19284
-0.480878
-0.0516028
0.0777839
-0.142075
0.192279
0.234239
1.53427
0.0481043
1.63713
-2.6571
0.716798
-0.0688895
0.441224
-2.0806
2.05489
2.79032
1.78632
0.957346
0.394956
1.07127
-7.79034
0.0910983
-0.0917892
-0.198725
-1.00699
-4.08841
-2.05635
-0.866385
1.46812
1.63063
-4.13949
0.426118
1.84721
-0.831531
-2.32352
1.75596
-0.0471551
-8.35737
0.0437193
-0.314567
0.00507024
2.60086
-0.0703981
1.58878
-1.6249
-1.01907
-0.80556
1.60919
0.461598
1.36875
-1.35467
-1.08098
0.0847991
0.344566
1.88512
1.4484
0.297716
-0.147084
-0.502546
2.90077
-0.0961449
1.86919
2.05227
-0.125235
-0.076358
0.770201
-5.17022
-1.04865
1.42476
0.946176
1.58634
-0.459334
1.78172
0.203295
2.33509
0.356857
1.44411
2.06765
1.35901
0.311544
-1.48339
0.537099
-10.074
1.43373
0.744604
1.98749
0.146214
2.49633
0.279871
2.65536
-0.161854
2.07535
-0.227048
1.24123
-6.52594
1.5686
0.806207
0.679516
2.44228
1.61929
0.407461
-0.831297
0.955485
1.54992
-0.0267196
-5.84607
1.20256
0.0491658
2.13237
-0.118263
2.54167
0.413721
3.34505
2.55272
1.22747
1.09354
-6.91953
0.103336
2.72243
-0.142164
-0.0705692
-0.172858
2.66909
0.807056
1.41484
2.25804
-1.06134
1.77498
-0.380127
1.96068
0.0775908
1.85701
1.66806
2.27242
-0.050755
-8.50316
0.488542
-0.174311
0.780073
0.325605
-0.0620089
2.08561
2.392
0.0297149
0.592022
-0.349215
2.14859
1.35744
1.51459
1.01832
-0.193566
-4.35832
-0.115475
1.67418
-2.62816
-0.0281072
0.0430847
1.1768
0.797497
-0.848516
2.86883
-0.0496627
2.51601
0.533854
2.54088
-0.611962
0.408083
0.0480415
0.0743372
1.3949
1.60785
-0.00305446
-0.0334103
-0.14271
-0.0266369
2.37637
-0.528718
0.0215763
-0.0897195
-0.0512259
0.610813
2.01449
0.811877
0.0762205
0.0413093
1.62142
3.04096
-0.191368
0.0835157
1.6068
0.0919532
0.840157
0.00650916
1.19532
-0.0404292
-3.65173
-0.489429
-0.243248
-0.239113
-0.705296
-3.19607
-0.837641
-0.022403
1.27705
1.74929
1.42549
2.95662
-8.89961
2.65666
-4.64661
2.51285
-2.11327
-1.18224
2.85908
0.674127
-0.396709
1.67857
-0.0508647
1.80498
-0.183827
-6.71328
0.28092
-0.814078
-0.951005
0.00463441
-0.220125
0.656221
2.04791
-2.18034
0.730943
-2.6097
0.429533
-0.0767917
-0.0206816
0.239105
-0.0481506
-2.10023
2.12574
0.00807472
2.34442
0.640879
-6.22717
0.549827
-1.42114
0.0505826
1.40539
2.0557
2.95868
1.23751
1.37838
0.804154
-4.90718
2.85496
3.05633
1.78166
-0.994518
-0.426258
-10.466
1.52636
1.09732
0.623482
1.31891
-0.119724
-0.00605194
-12.233
2.43487
0.133095
0.193255
-0.174405
1.59302
0.301509
3.26079
3.05644
1.46091
0.117531
0.481963
-3.77095
0.640506
3.13637
0.223291
0.0507115
1.22757
0.00554795
0.327842
-0.221588
-0.416288
0.363299
0.202836
0.773945
0.0365474
0.519576
2.29406
0.560464
1.7377
-0.216811
-0.5027
2.76575
-2.88956
0.332807
0.474434
0.707847
0.250166
-0.130099
0.393495
0.0823623
0.256671
3.28492
-5.70619
-3.80149
-1.24223
-1.10536
0.165693
0.47304
-0.107029
-3.02452
0.0243506
-3.69964
-1.31556
-1.05364
0.247437
0.0941484
0.150328
3.21155
0.157828
0.484911
-0.239195
0.335553
-4.83052
-0.468947
2.23543
1.60861
0.499078
-0.0641458
1.5618
1.7405
0.109034
-3.71581
-0.0506203
2.22733
-0.879834
1.52594
0.0643326
2.51715
0.120297
-0.270915
0.0783219
1.77962
-0.737481
1.45257
-1.08209
3.10661
-0.113807
-0.363925
-10.6969
0.741293
-0.151254
-1.21849
-0.128994
0.202786
0.779684
-0.591511
-0.086907
-0.12518
0.314892
-0.855458
-1.33395
1.3313
-10.6284
1.43371
-0.155483
1.79883
2.84269
1.55002
-4.97678
1.66711
0.193962
0.339065
-0.149697
-0.559424
-7.34934
-0.172086
-0.512187
0.760385
-0.00116378
-1.17645
-0.0400578
-5.72479
0.847524
1.65784
-1.77899
-0.144548
-0.563175
0.0316901
-0.0715451
0.991726
-3.327
-0.172628
1.65125
-0.00816665
0.970351
-1.39997
-7.77164
-4.07237
-8.70442
3.20691
0.544254
-1.0299
0.445433
2.6705
2.7722
-0.334255
-0.393023
1.62131
-0.00446599
-0.274004
2.74719
0.935932
1.46654
3.27107
-0.490559
0.534751
0.251043
2.45433
1.69235
1.70854
2.03958
1.16221
0.0489193
0.0985198
0.767577
0.393279
-5.77286
2.81827
-0.864862
-0.92439
0.034123
-0.836756
0.831995
-0.189183
-0.42847
0.401797
1.7224
1.76129
1.88961
-7.60523
2.41055
2.74509
-3.77396
1.04592
-0.183719
-0.172961
0.34673
0.959504
-0.0484727
-0.847958
-1.1167
3.04263
-7.48546
1.90458
1.64019
2.17722
1.25856
1.3057
-0.0580051
0.0424583
0.999607
-0.0708983
-12.9
-2.45758
0.122236
-0.108402
2.02363
-0.535507
0.0212659
0.33756
-4.79323
-0.207801
-6.29166
1.45913
-0.382692
-0.269079
0.773539
-1.56707
0.606756
-4.43458
-0.178854
1.76163
-6.71466
2.80115
0.0296224
2.97312
0.005396
-0.124954
0.248547
1.43435
1.41554
-3.30251
-0.187128
-0.334821
0.217879
1.17679
3.27425
2.18414
0.588046
-0.838926
0.895273
-0.00444895
1.89246
-0.102061
0.968559
-0.128914
-0.147619
-4.6701
0.651308
0.0465569
-4.76893
1.07922
1.06219
2.71583
2.90586
-5.86515
-7.30659
0.0397184
-1.52506
2.83301
0.118282
-0.694758
0.724519
1.18787
-0.198285
0.171525
0.102822
-0.0482219
1.52093
-0.155415
0.536224
-1.07454
-1.13691
-2.98101
-0.439278
-2.94817
-2.7127
1.827
-0.407702
-0.234689
-0.408109
0.0805435
3.0856
1.24222
1.53345
-0.426001
0.863963
-0.0666269
0.707341
0.501619
-0.110498
-3.81502
2.82445
1.73341
-0.0208174
-5.58289
3.19472
-0.195938
-4.29122
-0.116541
0.871903
-0.174177
-0.172987
2.44478
-0.112929
1.5271
0.663172
-0.105353
0.214529
-0.486367
0.82236
-3.11826
0.0231226
0.509858
1.61952
-0.176674
-4.71047
0.126562
-0.573169
-1.76944
-1.61215
3.0021
1.07918
-2.59288
0.82911
0.423152
2.65071
0.955747
-4.38598
1.02288
2.07445
1.8027
-0.829282
1.44824
-0.0481099
2.80136
0.0439065
1.67311
-4.67576
-0.768311
0.0340145
-0.149594
1.01415
0.567186
-5.05942
-0.217849
1.94496
0.00573857
-0.115101
2.29571
1.29623
2.23473
1.52838
-1.13512
0.0215341
0.0581862
1.63727
0.00319864
2.04476
1.30401
2.77641
-0.11081
2.17481
0.867113
2.79894
-0.106872
-1.03808
2.86816
-0.119757
1.27644
-8.20689
2.47547
2.76202
1.76962
-2.62097
1.62607
2.13004
-0.8157
0.715139
-0.285059
2.27413
-0.138418
-0.0536663
-7.68478
-8.06689
2.09157
0.845129
-11.0967
0.880315
2.76004
-0.857658
-0.253935
-8.55512
-1.26868
1.40587
-0.252028
1.55739
1.54825
-11.1119
3.08733
-0.0777855
2.33985
2.33011
0.100195
0.0158744
1.47129
-2.35207
-0.320176
1.46167
1.25733
-0.581586
1.55592
-0.107647
2.40801
1.77068
0.670149
0.107236
1.83989
-0.108457
1.00378
2.18331
0.362734
0.0293958
2.11522
1.76561
-0.925022
-4.89367
1.28134
1.84735
2.79757
-5.51351
2.95136
2.88169
2.99644
-0.136221
2.05156
-3.89817
1.63333
2.21217
2.14587
1.82905
2.41663
3.25826
1.42386
-5.37129
0.248511
-3.59116
3.226
0.909305
-0.0435003
-0.133317
1.53997
2.42644
1.55709
0.596208
-0.169085
2.41528
-3.47825
1.76824
-0.151605
0.755537
-0.0106099
0.578992
1.09083
-1.77567
-1.41579
-0.0622619
-0.551307
-0.137624
2.01051
-0.343458
0.175759
1.53838
-5.34162
1.05856
0.032505
-4.42092
-4.88038
-4.94652
2.3119
2.48197
-0.170809
0.615339
2.11759
1.90897
0.0294124
-1.28992
1.8055
-5.70256
2.26986
-3.73699
2.2096
1.03543
0.244251
2.05171
1.10961
2.16273
0.629366
0.77376
-0.735553
-4.9921
-10.1386
-0.12202
2.12194
-1.93586
-0.248526
-1.91501
2.33789
2.14221
0.590437
1.24081
2.37796
-2.63657
1.57319
-0.262347
-0.830793
1.56669
-0.289759
-7.97004
-1.49692
-5.99404
-0.430886
-3.01656
-0.23685
-11.806
-5.11281
1.36117
2.82695
3.08209
2.68716
-1.92874
1.78739
-5.3723
1.52634
2.36317
0.245892
2.08298
-1.87157
0.613427
-0.786759
-0.107302
2.26649
-1.19978
1.87046
-8.37208
-0.418734
-6.43962
1.89267
1.85498
1.63283
-7.86745
1.55816
-0.104884
-10.031
-8.95983
0.573327
2.84307
-3.19609
-0.421089
-0.184914
1.58574
1.56846
-0.0712051
1.03215
-9.05868
2.41182
2.17329
-0.212326
-0.340967
2.35647
-0.326586
-7.85213
0.0145111
2.15077
2.42222
-3.32755
1.19985
-0.216136
2.77712
-12.3137
-0.788736
-0.116071
2.6106
0.000278393
-0.707995
-0.0406518
2.25189
1.29937
2.23229
-0.166926
-2.90276
1.83259
3.19223
-5.17862
1.49964
-0.04458
-10.7231
-0.0233429
0.630018
-0.173175
1.17379
-0.108401
1.08069
-0.127148
-1.00574
2.043
2.44502
1.54609
-2.17955
-0.814932
1.91682
-8.66377
0.656806
-0.851753
0.838847
-12.8223
1.76862
1.91823
-0.0698824
1.80691
2.74573
-0.310366
1.36326
1.86332
-7.89338
1.01152
-0.6308
0.83621
0.648333
1.29116
0.00715771
0.591131
-0.31938
-3.3496
2.30059
0.707687
0.240358
-0.388753
-0.301308
1.69297
-11.0937
2.98465
-6.91724
-6.51234
-0.0481649
2.09119
1.86773
2.20214
-3.85867
2.64374
-3.15286
1.32306
-0.0225263
-5.42535
1.51184
0.773555
-0.364292
1.14516
-3.97071
1.32953
-6.02028
-0.355
0.0105676
-3.20392
-3.86445
1.48464
2.70967
-0.393279
-4.40254
2.11536
-3.02898
2.46715
0.802344
0.0512349
0.919781
1.64607
0.880144
-0.0711423
0.156202
-0.0208167
0.416792
0.608469
-6.39564
-0.223193
0.0893742
1.01046
-0.224373
3.23944
1.78096
1.62509
2.49176
0.276077
1.82778
-1.78495
-4.86512
-0.512448
1.64031
3.16323
1.53281
-1.15792
2.3048
1.56685
1.58864
-0.158751
-0.0618489
0.891975
3.00007
0.112443
-1.00775
2.18287
2.35011
1.74976
1.62704
2.00093
1.16219
-0.11896
-0.92643
1.80897
-5.36098
-4.84888
1.58469
-0.651089
0.0848801
0.594971
1.79453
1.86254
1.88451
-0.14586
2.19789
2.24857
0.38094
1.97954
1.72959
1.35168
1.24773
1.14551
0.864458
-0.0765573
2.092
1.96814
0.0233116
1.51627
-0.165823
0.0345443
2.68644
2.04063
0.0139619
-2.34374
0.141657
2.10156
1.20165
0.356301
-0.0120772
0.212825
-0.363999
0.308259
-0.339158
-0.263181
1.23709
-0.259894
-2.83563
-8.38529
2.54059
-0.159371
-4.24573
-0.536417
2.72002
-0.20298
0.401674
0.339096
-9.66203
1.29227
1.5336
1.06335
2.39796
1.32111
0.031346
-4.02438
-1.72742
0.0288396
1.89818
0.0739744
-4.18421
-11.9229
-0.439369
-4.15919
-0.382901
-3.75487
-0.287406
0.620285
1.60956
2.1432
-0.369275
-0.181427
2.40849
1.82512
-2.97322
-0.239555
-3.55868
1.03077
-0.00372386
0.921872
1.39179
0.0149677
-0.234366
-0.293342
0.445333
-2.65538
-4.66698
0.155346
-1.344
-5.81191
-10.7988
-1.10017
0.16849
-3.64805
0.858955
-4.41953
1.61172
1.44938
0.4846
2.11563
-2.58306
2.72594
-0.833197
0.0917685
-1.41849
1.6277
1.0081
-4.84403
-3.94844
1.66592
1.97875
2.82527
-3.16561
-5.71415
-1.77137
-0.248296
0.00668548
-7.76097
0.644213
-7.68976
0.980476
-4.81946
1.28111
0.215451
-0.113067
2.47108
1.46261
-1.20167
0.0091222
-1.9846
-5.53255
2.12018
3.08637
-4.82815
2.02077
1.54594
0.00444939
-0.102284
2.05892
1.97174
-4.14804
-0.185405
-0.563577
-2.43701
-1.32448
-8.9244
-1.19004
1.08443
-0.124248
1.80056
-7.44043
-11.2891
1.5271
-1.21123
-8.0809
0.0931323
1.25188
-8.5646
-0.714101
-11.448
-6.61314
-7.67878
2.86715
-4.23031
-0.279261
-5.12171
1.78659
-7.18877
-0.109726
-3.24908
-9.25005
-0.778499
1.86348
0.0131987
-7.6154
1.43003
0.0184201
-0.714638
-5.2052
-9.3661
1.19204
1.36335
1.63781
-6.22186
2.45555
-0.522719
0.00354844
0.0949
-2.64903
-1.09451
-8.56554
-1.96168
0.380878
0.701628
-0.200385
-0.352125
-1.4283
1.54967
-6.66163
1.71337
-5.30075
1.03825
-0.416431
-0.0239376
-0.0166644
3.17269
-0.176733
-9.08372
-5.34745
-1.27437
1.6369
-0.0222037
-0.00445916
0.0689889
-11.2681
-2.71604
-4.98265
-8.15423
1.80773
-12.9184
0.226976
-11.2938
-0.0669683
1.43473
0.102176
0.771771
-0.59968
2.16144
-6.05431
-1.10006
2.31013
0.687543
-6.53686
-0.360605
-4.71102
-1.3212
-0.449047
2.11029
-0.361205
0.707264
-5.718
-3.96695
-11.6172
-12.1558
-4.14177
1.00931
-0.280832
1.60331
0.628395
-4.36005
-0.549401
-1.52557
2.0178
2.43516
-9.67924
0.109231
1.7495
1.61274
1.31587
-1.49104
-2.72961
-2.77351
1.64545
0.480237
-1.38806
-6.89546
0.967275
1.94326
-0.281008
0.0621934
0.0807219
2.28468
-1.82521
-1.98042
0.020237
1.40876
0.120958
-0.0287803
2.47136
2.03485
-0.120554
-1.82712
2.08429
0.820171
-0.110591
1.53444
-0.572906
-2.1433
-3.38125
-1.80491
1.99145
1.76445
-0.179719
-0.859887
-0.0952408
0.0442979
1.80223
-1.82127
1.26577
2.17651
2.32694
-0.322476
1.63471
1.46395
1.83537
1.94296
-0.187301
1.95171
0.00631024
1.6348
0.915032
1.76833
-1.58646
2.06035
1.9703
1.47192
1.08273
-0.953293
1.18164
0.0830662
-1.05324
2.22672
2.182
-1.17175
1.83411
-1.74857
-5.37101
1.78232
1.77465
-2.8289
-0.112826
-5.745
-1.62441
-1.4064
-0.226384
-2.99632
-0.435122
1.50666
2.96672
2.07793
-0.401586
-0.133784
1.75547
0.872135
-0.0693012
-2.12891
-0.767252
-1.93974
-5.15075
-5.02428
1.56159
-0.167353
0.825988
0.0370679
0.0377502
-0.0486776
0.0366868
0.393074
0.878162
1.11157
-0.795893
0.828144
-2.88611
-5.33593
1.15506
0.908325
-0.122413
0.146911
1.09382
-0.0480978
0.646282
-0.838179
1.61071
1.36922
2.61386
1.63334
-1.44762
-0.433845
-0.853283
-0.695806
-0.00568142
0.0277386
-0.265343
-1.23899
3.02398
0.152552
0.0578324
2.43134
-0.185542
-1.02622
-0.110451
-1.6415
-4.63685
0.538654
-1.55389
1.61357
-0.323384
-1.29326
0.00500489
-0.387299
-1.1978
-0.066312
-0.846152
1.28012
-0.11568
-0.215912
-1.68617
0.665171
-1.38418
1.76119
2.49333
-0.655884
1.79614
0.959797
1.19405
2.74958
-0.250966
1.00162
0.881871
0.763266
2.3556
-0.468836
-0.245908
-0.0805774
1.73739
2.49054
-0.425763
-0.174986
-1.50658
-1.20407
0.851625
-1.0536
-2.62069
-0.739344
0.657512
-5.68846
0.385317
0.555317
1.43485
0.295179
-5.38589
-1.55148
-0.0203096
-0.217204
2.65709
2.9756
2.21485
3.13051
1.45522
0.786708
1.8662
1.62219
1.49514
-1.2442
1.68939
-0.410322
-5.08951
2.43365
-0.331779
-1.37912
2.84808
0.0417569
-3.17682
0.882221
0.76541
1.99767
-6.20354
1.51378
2.62011
-0.195553
-5.33576
-2.15676
1.17445
-5.04335
2.12004
-0.165049
2.00105
1.62942
-0.201836
1.92797
-0.805744
-4.51519
-5.08365
-0.72333
1.99333
-1.30805
1.68363
-0.0637482
-8.28688
-0.0460861
-0.0788351
-1.62078
-0.862193
-5.7137
2.02222
0.34097
-7.24241
-0.671191