/*--------------------------------*- C++ -*----------------------------------*\
| =========                 |                                                 |
| \\      /  F ield         | OpenFOAM: The Open Source CFD Toolbox           |
|  \\    /   O peration     | Version:  2306                                  |
|   \\  /    A nd           | Website:  www.openfoam.com                      |
|    \\/     M anipulation  |                                                 |
\*---------------------------------------------------------------------------*/
FoamFile
{
    version     2.0;
    format      ascii;
    arch        "LSB;label=32;scalar=64";
    class       volVectorField;
    location    "4.4";
    object      U;
}
// * * * * * * * * * * * * * * * * * * * * * * * * * * * * * * * * * * * * * //

dimensions      [0 1 -1 0 0 0 0];

internalField   nonuniform List<vector> 
13486
(
(1.42151 -0.204033 6.0049e-19)
(1.66796 0.295537 2.7928e-19)
(2.3533 0.0224473 0)
(0.588272 -0.283913 -3.56511e-20)
(2.29467 -0.54587 2.03109e-19)
(2.43803 0.103814 2.17779e-20)
(2.50479 -0.455815 3.34647e-21)
(1.95399 -0.729736 -3.20558e-19)
(1.90649 -0.393566 0)
(2.03749 0.752775 0)
(-0.645322 -1.03246 -1.79664e-18)
(2.54822 -0.0415271 0)
(1.27151 -0.41476 -5.93994e-19)
(2.49543 0.705697 4.37353e-20)
(2.40374 -0.391786 1.09376e-19)
(1.98855 0.745287 -1.61178e-19)
(-0.354703 0.524846 1.01419e-18)
(1.42565 -0.447898 2.48046e-20)
(2.27749 0.00358242 2.91144e-21)
(1.60301 -0.0138443 -6.07464e-19)
(1.13124 -0.573408 -1.57223e-20)
(1.29093 -0.429999 7.66316e-19)
(1.69213 0.291736 -2.23233e-19)
(2.46867 -0.865445 0)
(2.07739 0.574765 5.24138e-20)
(2.43823 -0.79545 -1.20075e-19)
(-2.42642 1.30842 1.39936e-18)
(2.44826 -0.119971 3.62533e-19)
(2.03865 0.020595 0)
(2.21337 -0.320579 -2.01527e-19)
(1.21018 -0.625804 -1.13673e-20)
(2.50676 -0.288458 -1.37292e-19)
(2.8221 -0.383474 3.48231e-19)
(2.02155 -0.0681106 0)
(1.96161 -0.704248 0)
(1.86062 -0.00322615 -2.15281e-21)
(1.95553 0.095912 1.43157e-20)
(1.45146 -0.685337 3.05474e-19)
(1.77728 0.0576698 -3.84799e-21)
(1.93813 -0.232955 3.07177e-19)
(2.31493 -0.799533 0)
(0.853179 -0.425178 -6.88371e-19)
(2.01351 -0.0110042 0)
(2.09031 0.497861 -2.53056e-19)
(2.11436 0.492775 1.04055e-19)
(2.54094 -0.0361877 8.83569e-20)
(0.543126 1.89235 2.15642e-18)
(2.02867 0.0213314 -9.85849e-22)
(1.9609 0.0905933 -1.07804e-20)
(2.60583 -0.0362813 1.8245e-19)
(1.99889 0.0304922 3.40514e-19)
(1.83322 0.0255455 0)
(2.6358 -0.138554 -1.09677e-19)
(1.61738 -0.602363 -4.46107e-19)
(1.4331 -0.494317 0)
(2.26594 -0.551487 -1.35548e-19)
(2.08531 0.114499 -1.34647e-20)
(1.81227 0.0300693 -2.16628e-20)
(2.80335 -0.369246 3.99864e-19)
(1.96828 0.145533 0)
(-0.19978 -1.79966 -1.60866e-18)
(1.97281 0.141445 0)
(3.742 -0.0267616 -5.64393e-19)
(1.1667 -0.584291 -1.76343e-22)
(1.67406 -0.953453 0)
(1.96298 0.106072 7.71549e-21)
(0.636672 -0.316425 -3.41232e-20)
(1.41262 0.0795061 2.02142e-19)
(1.90671 -0.418095 -1.77124e-19)
(1.86991 0.010173 1.62423e-22)
(0.488127 -0.233346 3.91166e-20)
(1.45647 -0.47464 1.4881e-23)
(1.95 -0.105188 2.26859e-19)
(-0.849993 -0.610263 -7.38612e-19)
(1.98016 0.114559 1.93615e-21)
(2.08643 0.109305 3.12864e-21)
(1.98212 0.108607 -6.36695e-21)
(2.40607 -0.410994 -4.45896e-20)
(0.739866 1.81158 -1.46969e-18)
(1.66194 -0.269989 0)
(2.02773 0.00789326 1.13273e-21)
(1.61843 0.411126 -1.77055e-20)
(3.96066 -0.145906 1.28684e-20)
(2.41224 0.0722617 -1.21388e-20)
(1.41355 -0.219124 -1.17564e-18)
(1.38352 1.74224 0)
(0.893787 0.0345452 -1.05738e-19)
(2.00426 0.0501828 -5.09552e-19)
(1.86472 0.229331 -2.25533e-19)
(1.8984 1.0381 -1.65439e-19)
(2.59009 -0.263153 -7.18027e-20)
(2.07949 -0.63161 -1.68776e-19)
(1.47912 -0.316035 1.55162e-19)
(1.65635 0.109372 1.57203e-20)
(1.81168 -0.578594 7.18155e-20)
(2.0344 0.0222112 3.69586e-22)
(-2.71857 1.45351 0)
(0.838086 -0.519168 2.02541e-20)
(1.94751 -0.230318 -5.86302e-19)
(-1.40512 1.65746 8.35594e-21)
(2.03092 0.00978083 0)
(2.46093 0.700964 1.2615e-20)
(0.832087 -0.565844 3.32223e-21)
(1.83175 0.0325027 2.50766e-20)
(1.35337 1.69133 0)
(-1.54714 1.86833 1.23854e-20)
(1.96466 0.0691049 1.05228e-21)
(1.75202 0.0512586 -8.60153e-21)
(0.593216 1.96393 1.68527e-18)
(1.71197 -0.781812 0)
(1.21312 -0.586138 0)
(2.51646 -0.364652 -1.30695e-19)
(1.62508 -0.583416 3.23436e-21)
(2.0964 0.0673402 1.04879e-21)
(1.05209 -0.0321252 0)
(1.16283 -0.578502 -2.69771e-19)
(2.07169 0.59035 0)
(2.09786 -0.0572678 0)
(1.94344 -0.106902 0)
(1.96553 0.0656165 6.6711e-21)
(1.44076 -0.451018 -6.29616e-21)
(-0.425983 -1.65961 0)
(1.78567 -0.520915 0)
(1.76737 0.0547973 1.32724e-20)
(1.85711 -0.674794 0)
(1.83976 0.0302324 0)
(2.17986 -0.285895 6.78755e-21)
(2.20152 0.0736483 8.74737e-20)
(1.90615 -0.013879 -3.04128e-20)
(1.72014 -0.830595 -5.58523e-20)
(1.84218 0.0310161 -2.3064e-21)
(0.748056 1.65849 -5.49824e-19)
(0.418141 -0.0185485 1.04001e-18)
(-0.419703 0.0426012 9.66329e-19)
(2.00144 0.0180323 -5.59469e-20)
(1.92378 0.420676 -2.48986e-19)
(0.630341 0.786369 -1.63884e-19)
(1.73966 -0.7816 0)
(1.96581 0.0615475 -2.01508e-21)
(1.97671 -0.589816 -1.14459e-19)
(2.76546 -0.167713 -3.7181e-19)
(2.62702 -0.163478 9.14185e-20)
(2.5248 -0.201282 0)
(1.66322 -0.255159 0)
(2.09105 -0.010031 3.99838e-21)
(3.69055 -0.79595 -1.02525e-18)
(2.8017 0.599694 3.08924e-20)
(0.264851 1.77538 0)
(2.62661 -0.0514134 0)
(2.0384 0.0198092 0)
(2.01098 0.0237386 4.94907e-21)
(2.40378 -0.473545 0)
(2.03478 0.00141178 -1.18909e-21)
(1.59604 0.415674 -1.5033e-19)
(2.20776 0.298413 0)
(2.35409 0.045124 0)
(1.51184 -0.693452 0)
(0.140778 -0.133805 -2.08241e-20)
(1.72152 -0.698323 6.38395e-19)
(2.05477 0.298134 2.61246e-20)
(2.50573 -0.0050152 1.1135e-19)
(1.7287 -0.677619 -9.69649e-19)
(2.38799 -0.314422 3.20281e-20)
(0.756584 -0.362152 3.02442e-19)
(1.83536 0.0291095 0)
(2.60439 0.677374 -9.64971e-20)
(2.3927 0.633744 -2.66573e-20)
(0.418505 -0.111897 -7.22641e-19)
(2.76943 0.617143 -7.97492e-20)
(-0.431961 -0.0264437 2.59543e-19)
(-0.250927 -0.0920908 1.36893e-20)
(2.19936 0.274059 7.56556e-20)
(1.99955 0.0925596 -4.06168e-19)
(2.32237 -0.230655 1.03127e-20)
(2.01648 0.0072657 8.69252e-22)
(0.723114 -1.3766 0)
(2.54652 1.04652 1.31247e-19)
(2.89717 -0.198352 5.26126e-19)
(1.97492 0.0621528 -5.63681e-19)
(2.52076 -0.184932 0)
(1.9858 -0.299398 6.22191e-19)
(2.09381 0.0603134 2.12707e-21)
(2.40313 -0.213238 -4.81287e-21)
(-1.18612 0.40773 0)
(2.4787 0.167308 2.74001e-20)
(2.36797 -0.108627 -1.6574e-19)
(2.05221 0.02004 -3.97044e-22)
(2.23262 -0.199382 -6.39378e-20)
(2.36619 -0.78995 0)
(1.04224 -0.505196 -3.45838e-19)
(1.9655 0.0785144 0)
(2.18844 0.0193379 0)
(1.79835 0.0184629 0)
(1.30959 0.89554 -3.08217e-19)
(1.797 -0.0143511 0)
(-0.841751 -0.937351 -4.35108e-19)
(1.68941 -0.871423 1.32407e-19)
(2.42009 -0.0183627 6.11687e-20)
(1.06104 -0.525603 -1.3208e-19)
(2.57405 0.635857 -4.55767e-20)
(1.20775 -0.646271 1.37231e-20)
(2.21387 0.0855328 -2.55203e-21)
(1.32605 -0.643435 -3.53014e-19)
(1.58573 -0.696626 5.97744e-20)
(2.05135 0.281731 -3.16435e-20)
(1.81058 -0.017353 -2.6053e-20)
(1.36938 -0.501538 9.05166e-21)
(1.87288 -0.0208506 4.61099e-19)
(1.79285 0.0154917 0)
(2.45887 0.15226 0)
(2.38148 -0.116082 2.35534e-19)
(2.13769 -0.844463 1.69024e-19)
(1.62351 0.00316788 5.55933e-19)
(1.95904 0.0682634 8.69993e-22)
(2.43243 0.14955 -2.50918e-20)
(1.83767 -0.389993 2.00764e-20)
(2.26589 -0.297901 0)
(1.89147 1.02217 4.39909e-19)
(1.56152 -0.344118 0)
(3.20572 0.527933 0)
(-0.900179 1.14962 -1.91052e-18)
(2.65227 -0.0332837 0)
(1.95977 -0.583541 2.66388e-19)
(2.51608 0.0118736 0)
(2.76031 -0.15619 -1.32791e-20)
(1.24074 -0.588958 2.13996e-19)
(2.57008 0.275067 -6.39768e-21)
(1.1339 -0.816443 1.50631e-20)
(1.83874 -0.245437 2.96117e-21)
(0.961576 0.120823 2.3899e-20)
(1.99785 -0.292838 -1.99779e-19)
(1.14209 -0.248633 2.74882e-20)
(2.77863 -0.220021 4.67188e-19)
(0.879032 -0.427723 2.35481e-19)
(0.997919 -0.646366 0)
(1.03443 -0.50551 2.53414e-20)
(2.15078 -0.137644 1.05654e-19)
(2.20247 0.0141982 -7.83181e-21)
(0.899988 -0.436895 6.85272e-19)
(2.40017 -0.131934 0)
(2.78932 -0.443586 0)
(2.00666 0.0722759 6.1995e-19)
(2.11047 0.0413811 0)
(0.905437 -0.45103 2.29215e-19)
(1.73106 0.122136 -4.88904e-21)
(1.81258 0.0922357 0)
(2.31079 -0.0214281 -4.34472e-20)
(2.32847 -0.579998 3.7691e-19)
(0.357893 -0.457767 1.71195e-18)
(2.04075 0.486543 0)
(0.171813 -0.700109 -1.85959e-20)
(1.01534 -0.00114814 8.61578e-20)
(0.972768 -0.47911 3.41765e-19)
(1.74174 0.0447529 0)
(1.76147 -0.215017 2.15326e-20)
(0.615564 -1.63467 3.55764e-20)
(2.51179 -0.284581 1.0928e-19)
(1.82027 -0.39546 -2.53917e-20)
(0.0628104 -0.0956735 2.18222e-20)
(2.74931 -0.434281 2.56344e-19)
(1.79372 0.231391 0)
(1.74376 0.126806 -5.30531e-22)
(2.40821 -0.39927 -2.5655e-19)
(0.646128 -1.54367 -4.46029e-20)
(2.18605 -0.739868 -2.09891e-19)
(-1.24722 0.365507 0)
(1.85247 -0.239907 -5.20362e-20)
(1.17514 -0.639032 -1.78492e-20)
(2.0461 -0.00725894 -2.63545e-19)
(1.57979 -0.431292 0)
(1.57116 0.967556 2.12814e-19)
(1.96648 0.0757902 -1.52319e-19)
(2.2824 -0.310551 0)
(2.62228 -0.0547631 6.53478e-20)
(1.16343 -0.563795 2.83617e-19)
(2.30959 -0.540235 -2.1001e-19)
(1.76836 -0.193189 0)
(1.52446 -0.589275 0)
(1.72155 0.0247096 -1.19463e-20)
(2.91109 0.458952 -6.10607e-20)
(1.54067 -0.605711 4.76772e-20)
(2.09695 -0.205118 -2.263e-19)
(1.93074 0.096422 3.32593e-19)
(2.87449 -1.20245 -3.52523e-19)
(-0.908166 -1.35145 1.66186e-18)
(-2.35444 1.83303 2.43572e-18)
(2.79973 -0.130822 4.17953e-19)
(1.85767 -0.0284592 3.9888e-20)
(2.75909 -0.159771 1.36202e-20)
(2.03159 -0.0086842 0)
(1.03031 -0.623401 0)
(1.88558 0.20889 -7.68361e-21)
(1.19929 -0.581679 2.63887e-19)
(1.99615 0.0251821 -5.5131e-20)
(2.13747 -0.129701 9.79427e-20)
(2.1885 -0.16921 0)
(2.01435 -0.035554 -1.41364e-19)
(2.61607 -0.0177224 -4.87798e-20)
(1.92131 0.0794051 -3.05554e-19)
(2.49188 -0.578036 7.93248e-20)
(1.98861 -0.283578 -4.07454e-20)
(1.37992 -0.497674 1.67647e-21)
(2.88528 0.481776 5.27032e-20)
(2.49015 -0.290824 1.29971e-19)
(1.95725 0.0741141 -1.98341e-21)
(1.2942 -0.595403 0)
(0.383291 -0.118892 0)
(2.29786 -0.0404832 8.85815e-20)
(1.09743 0.0153715 6.50585e-20)
(1.96192 0.0870666 0)
(2.23035 1.44972 -1.74862e-18)
(0.476665 -0.235899 0)
(2.44213 1.03672 -2.8191e-20)
(2.52383 -0.359196 -1.3052e-19)
(3.0264 -2.4923 0)
(1.91245 0.41305 -1.52366e-19)
(1.89539 0.220647 1.15971e-20)
(1.86357 0.215818 -1.93141e-20)
(1.87272 -0.0158802 -5.06635e-19)
(1.8911 -0.254103 0)
(1.96634 0.102192 -1.40886e-20)
(1.85674 0.174244 4.90743e-22)
(1.98521 0.0616308 7.09941e-20)
(1.62167 0.158021 -2.93549e-19)
(0.737154 0.759222 3.05736e-19)
(2.57453 -0.268361 1.32261e-19)
(2.21642 -0.398694 -6.39254e-19)
(2.11095 -0.205283 0)
(2.63115 0.0944165 3.77776e-21)
(2.25011 -0.4077 -1.17116e-19)
(2.0006 0.0344197 7.39192e-19)
(2.10523 -0.635505 0)
(2.59455 -0.276136 -2.81826e-20)
(1.45183 0.430944 0)
(2.50605 -0.464557 -2.01735e-19)
(1.87772 -0.546121 -1.96479e-19)
(0.677999 -0.317583 2.79971e-19)
(2.3842 -0.488351 -1.75078e-19)
(2.03101 0.192239 0)
(1.73992 0.149868 -3.62185e-21)
(1.8671 -0.255393 5.67164e-20)
(1.64247 0.161941 2.77186e-19)
(2.26381 -0.41383 4.56481e-19)
(2.39511 -0.219024 2.09897e-19)
(-1.24782 -0.321683 -4.43523e-19)
(2.03028 0.0191468 1.24015e-22)
(2.22527 -0.21764 0)
(1.0129 -0.351663 6.76812e-19)
(3.21343 0.508759 0)
(1.86797 0.213898 -5.03058e-22)
(2.23858 -0.120422 3.73932e-19)
(2.65195 0.0400037 -4.06834e-20)
(2.62706 -0.0495306 4.68478e-20)
(-2.61521 1.32997 -1.43959e-18)
(1.9324 0.0772545 3.81931e-19)
(2.01444 0.00338233 0)
(-0.968027 -0.710256 -6.4398e-19)
(2.19234 -0.290208 -1.33428e-19)
(1.1544 0.0939323 -2.10357e-20)
(2.14477 -0.779325 1.58289e-19)
(2.49367 -0.00187916 0)
(2.64697 -0.251968 7.97268e-20)
(1.78262 0.17143 5.8742e-19)
(1.96321 0.0851697 4.62589e-19)
(2.23245 -0.33291 0)
(2.03734 -0.00738349 -4.67187e-22)
(2.17646 -0.16034 -9.9234e-20)
(0.7308 1.54798 2.37556e-19)
(1.57554 -0.0117966 7.72781e-20)
(2.18913 -0.25129 1.26835e-19)
(2.04814 -0.00106984 -2.27351e-21)
(2.21657 -0.205879 0)
(2.80193 -0.143363 -2.90414e-20)
(-0.0711069 -0.716858 3.43551e-20)
(2.4407 0.334529 4.0556e-20)
(1.99793 0.0314464 2.87855e-19)
(1.36853 0.0268527 0)
(1.82186 0.191712 5.35904e-21)
(3.34562 -2.36658 0)
(3.53553 0.943815 -3.48244e-19)
(2.04716 -0.024303 0)
(2.09282 -0.719695 -5.96301e-21)
(1.32462 -0.0945859 -1.65192e-19)
(1.55795 0.895076 5.18014e-19)
(0.596763 1.78383 -1.0241e-18)
(1.79763 -0.193953 0)
(2.35002 0.0603561 -3.53029e-20)
(2.03502 0.200849 -1.57451e-19)
(0.495163 -0.247567 -5.80525e-19)
(1.24134 -0.593035 8.05993e-22)
(1.65256 -0.0175854 -8.38704e-19)
(2.34359 -0.285021 1.07062e-19)
(2.10039 0.191512 1.0521e-19)
(1.44916 -0.455187 0)
(1.3774 0.36127 3.14485e-19)
(1.98084 0.0668143 6.80224e-21)
(0.558719 -0.273584 2.0664e-20)
(-0.0218386 -0.65963 -1.0228e-19)
(0.39121 -0.201336 -1.12154e-18)
(2.80705 -0.137236 0)
(0.456834 -0.247312 0)
(2.09187 1.19146 0)
(2.06707 -0.0882623 0)
(0.632122 -0.168661 -2.17279e-20)
(2.49189 -0.437991 0)
(2.08536 -1.03142 0)
(1.6849 0.120761 1.14225e-19)
(2.86508 -0.196798 -5.44577e-19)
(2.18964 -0.191486 -3.05857e-19)
(1.71497 0.333388 9.45297e-19)
(2.00752 0.0242221 -8.1434e-20)
(2.49053 1.73165 0)
(2.42991 -0.267017 0)
(1.91571 0.0803486 3.26328e-19)
(2.02389 0.0489422 5.77339e-20)
(1.32509 0.951732 0)
(-0.964302 0.323017 3.31028e-19)
(2.16932 -0.753565 2.36223e-19)
(-0.694508 -0.253374 0)
(2.39224 -0.13418 2.05375e-19)
(1.97127 0.0602093 -3.77411e-19)
(0.833166 -0.239079 -4.78792e-20)
(1.00643 -0.334547 0)
(2.01576 0.198732 2.98837e-19)
(2.57643 0.131113 0)
(2.20947 -0.192347 0)
(2.22079 0.17668 -1.15865e-20)
(1.9349 0.101593 1.73946e-19)
(-2.67912 1.48195 -1.83602e-18)
(2.3508 0.627484 8.11123e-21)
(1.33316 -0.332132 -2.94303e-19)
(2.06858 -0.0774861 3.90957e-20)
(2.10444 0.185655 8.13099e-20)
(2.83495 -0.140763 5.193e-20)
(2.2574 -0.736217 0)
(2.42982 -0.539631 2.07999e-19)
(1.33411 -0.0304984 0)
(1.86021 0.202272 -6.04335e-21)
(2.30201 -0.235366 0)
(1.43325 0.0980065 4.26912e-19)
(-0.632749 2.23626 -1.61412e-18)
(2.31663 -0.274182 0)
(-0.219367 0.235903 4.50089e-20)
(2.42102 -0.291255 -2.49774e-19)
(1.60476 0.65702 -4.23908e-20)
(1.75868 -0.259196 8.0586e-19)
(1.44771 0.883803 -3.27708e-19)
(1.32528 -0.320084 -8.36103e-19)
(3.58763 0.90165 0)
(1.9604 0.071202 -6.17573e-21)
(-1.28598 -0.497132 -1.17717e-18)
(2.02408 0.208917 0)
(1.85339 0.243418 2.10291e-20)
(2.64112 -0.0492993 -3.81775e-20)
(2.8624 1.0524 0)
(2.00375 0.0192725 0)
(0.0791823 -0.135856 0)
(0.815981 -1.40522 1.30817e-19)
(2.80809 -1.3414 4.24767e-19)
(3.50708 -0.883795 6.05467e-20)
(2.39969 0.995444 0)
(1.70061 -0.150823 5.46023e-19)
(2.01824 0.0103863 -1.61012e-21)
(2.34275 0.571189 -6.17667e-21)
(0.997485 -0.482856 3.15714e-20)
(1.92069 0.166044 0)
(2.03357 0.0202705 0)
(0.732853 -0.0961983 -4.57564e-19)
(1.42321 -0.44565 -2.06071e-19)
(1.93718 -0.17056 0)
(1.24368 -0.606272 -2.58689e-19)
(2.0728 0.0056805 2.44247e-21)
(2.03168 0.0180846 -5.34701e-22)
(0.765651 -0.355749 0)
(1.8734 -0.00994639 3.59713e-20)
(1.96749 0.0602368 -5.80413e-21)
(2.5742 0.114159 1.27275e-19)
(1.8631 -0.563934 0)
(-2.36584 2.01347 -3.78407e-18)
(2.63103 -0.00432912 5.32004e-20)
(2.00565 0.0939036 6.4602e-20)
(1.99253 0.0133194 -2.80805e-21)
(2.67028 0.651487 0)
(1.68808 0.329622 -2.51758e-19)
(3.12349 0.269047 -2.52692e-19)
(0.296895 -0.0372394 2.47249e-19)
(2.00683 0.0562298 0)
(1.22381 -0.598143 -8.2102e-22)
(0.465961 -0.0774597 0)
(2.00662 0.0477438 -2.48213e-19)
(1.9901 0.0757612 1.12999e-19)
(1.86408 0.0612906 -6.38991e-20)
(0.648557 -1.45439 0)
(2.23769 0.025795 -2.27725e-20)
(1.09845 0.510693 8.59486e-19)
(2.23054 -0.731654 0)
(1.64187 0.114064 3.57692e-19)
(2.46721 -0.585879 -9.03231e-20)
(2.18172 -0.0142065 0)
(1.16044 -0.65939 1.01226e-20)
(1.66252 -0.232737 -4.06223e-20)
(2.04459 -0.00765121 0)
(-1.80032 2.158 2.1774e-18)
(1.84347 0.233601 0)
(1.6743 -0.772002 2.61004e-19)
(0.181327 -0.783005 5.88021e-20)
(2.05207 0.0188038 4.42006e-22)
(2.45613 0.113589 -6.18548e-20)
(1.36819 0.340919 1.67196e-19)
(1.75354 -0.288531 -2.97287e-19)
(1.79803 -0.172031 -2.30092e-20)
(1.7209 -0.7837 2.62792e-21)
(2.17045 -0.254863 1.22911e-19)
(2.66186 0.658625 1.98975e-19)
(1.77372 -0.794424 0)
(1.99914 0.0308153 -2.55245e-19)
(-0.66394 -0.221262 -5.3568e-19)
(1.35879 -0.0411889 0)
(1.99838 0.0783924 3.00745e-21)
(1.82942 0.0109032 0)
(1.21919 -0.347453 7.21567e-19)
(2.06361 -0.781365 0)
(1.94391 -0.0112383 1.21167e-21)
(2.24317 -0.117495 -2.12959e-19)
(1.16432 -0.700301 2.09638e-20)
(0.282063 -0.229587 4.66043e-20)
(2.39329 -0.0152643 -1.80282e-21)
(1.26618 -0.601336 2.37179e-19)
(1.77275 -0.514634 2.86996e-19)
(1.47318 -0.32395 0)
(-1.91107 0.805635 -5.30095e-19)
(2.2802 -0.681401 -4.90646e-20)
(-2.0476 0.813973 -6.59805e-19)
(2.03012 0.0191991 3.03536e-22)
(1.44793 -0.575961 0)
(2.22169 -0.0224161 -1.09968e-21)
(-1.05507 0.269144 0)
(0.798592 -0.60177 3.63354e-21)
(0.988066 -0.308151 6.32052e-20)
(-0.0111619 -0.0684569 0)
(2.03817 -0.55104 8.51305e-20)
(1.64918 -0.915952 0)
(2.86227 0.9586 0)
(1.43751 -0.684332 -3.44175e-19)
(1.48135 0.398977 2.5396e-19)
(1.57709 -0.372762 0)
(1.78267 0.192455 -1.60287e-19)
(3.74919 -0.800676 1.20005e-18)
(-0.275877 -0.805093 2.38827e-19)
(2.90147 1.35565 0)
(2.17438 -0.0458991 0)
(-1.42675 -0.486445 -6.27925e-19)
(1.86941 -0.0903517 0)
(2.47649 0.0705535 0)
(0.0340186 -2.08856 -6.35367e-20)
(2.04166 -0.405274 -4.05805e-19)
(1.73579 -0.422538 2.47472e-19)
(2.70912 -0.510099 3.63712e-20)
(-1.85688 0.633137 1.0321e-18)
(1.99131 0.0633642 1.2953e-19)
(1.50961 -0.356861 0)
(2.20206 0.452283 -3.64233e-20)
(1.40806 -0.183364 0)
(2.26859 0.0292708 0)
(2.00196 0.120609 0)
(2.20591 0.160811 -9.55033e-21)
(1.85097 -0.0127707 2.3554e-19)
(2.10474 0.0298381 -6.17372e-21)
(1.55347 -0.363172 0)
(-2.46575 1.23025 -1.20449e-18)
(2.12084 1.13285 3.5971e-20)
(1.8561 -0.689455 2.74659e-20)
(1.94479 -0.0404563 -6.2916e-20)
(2.27772 -0.528708 3.3451e-19)
(2.04015 0.0638095 -2.17119e-19)
(-0.461917 2.00735 0)
(2.61788 -0.0283846 0)
(1.46441 0.901584 0)
(1.21205 -0.554142 -5.18235e-19)
(1.3712 -0.774799 -4.34335e-20)
(0.248162 -0.027104 0)
(2.22394 0.458772 0)
(2.67412 -0.194626 5.8802e-20)
(1.9647 -0.015294 -6.15932e-20)
(1.93325 0.630149 2.45003e-19)
(1.57642 -0.685726 0)
(-2.35939 0.589121 -5.22946e-19)
(2.38399 0.0577641 2.62593e-23)
(1.39122 -0.4061 -4.92522e-19)
(2.25774 0.0483694 -4.68971e-20)
(2.33226 0.574309 4.37793e-20)
(2.09659 -1.20637 1.50871e-19)
(1.21128 -0.558063 9.05254e-19)
(1.80456 -0.570756 9.12002e-20)
(2.10161 0.0599961 2.38454e-21)
(2.00108 0.0132482 -6.52226e-20)
(1.1244 -0.528442 -8.21683e-20)
(1.66308 -0.215996 1.80353e-20)
(1.71222 2.18154 4.70316e-20)
(1.26438 -0.607225 1.3256e-19)
(2.59307 0.137902 0)
(1.1151 0.251924 6.51895e-20)
(2.20489 -0.0447557 -2.01238e-19)
(2.99706 0.624927 1.42363e-19)
(1.36128 -0.367471 -4.48927e-19)
(1.8403 -0.660744 -2.97786e-19)
(1.99049 -0.0100716 5.98694e-19)
(2.40682 -0.0555384 -3.4175e-19)
(1.80328 -0.442148 2.33246e-20)
(2.81573 -0.111963 -2.14331e-19)
(1.13912 -0.14219 -9.76601e-19)
(2.11687 -0.0274137 -1.50797e-19)
(1.12091 -0.207719 0)
(1.14044 -0.778638 -6.11978e-20)
(1.93188 0.00899203 5.45759e-19)
(1.74041 -0.024356 -1.80378e-21)
(-0.806473 -0.624823 0)
(1.4857 -0.684733 0)
(2.05153 0.448834 2.12052e-19)
(1.00217 -0.13371 6.05976e-19)
(1.60743 -1.17595 -1.63284e-19)
(2.1157 -0.715512 -1.48875e-19)
(2.23095 -0.412312 3.48823e-19)
(3.26438 0.453678 0)
(2.06742 0.486836 1.12022e-19)
(1.39352 -0.471145 -3.04269e-21)
(2.59886 1.04045 1.50632e-19)
(1.97212 -0.272913 -3.53548e-19)
(-1.81558 0.657958 -1.59852e-18)
(2.26092 -0.498574 -3.25603e-19)
(2.42325 -0.569303 1.12931e-19)
(2.36603 1.22415 0)
(1.9796 -0.246445 -4.19589e-20)
(1.88397 0.0538452 5.88282e-20)
(2.02314 0.0101283 1.36437e-21)
(0.789581 -0.383258 8.29784e-19)
(1.94831 -0.266191 5.29383e-19)
(2.01981 0.269059 -1.23002e-20)
(-0.244003 -0.702625 -1.21487e-19)
(2.17247 -0.103951 -1.17076e-19)
(2.25489 -0.0314769 1.34079e-19)
(-1.2155 -1.08789 -2.19951e-19)
(2.50407 1.00279 -1.50728e-19)
(-1.91249 2.18671 -2.3528e-18)
(0.931538 -0.456635 -2.75099e-19)
(2.02491 0.00290389 0)
(2.0881 0.102457 -1.21632e-20)
(-0.181768 -1.96121 -2.5752e-19)
(1.31691 -0.125203 8.89491e-19)
(2.07029 0.0238266 0)
(2.05096 -0.267754 3.19546e-20)
(1.17887 -0.49531 2.05203e-19)
(1.98984 0.048466 -5.54013e-19)
(-0.741107 -0.135911 -2.23002e-19)
(1.56282 -0.367531 -1.27195e-20)
(2.20005 -0.205867 2.08151e-19)
(2.33055 0.0576128 4.7466e-20)
(1.69115 -0.780195 -3.62331e-19)
(2.11592 0.04332 8.59549e-21)
(1.37714 -0.844357 -1.22971e-19)
(2.11236 -0.0381603 1.8879e-19)
(2.05585 -0.0632632 -1.68839e-19)
(2.15822 0.0907719 -6.28739e-21)
(2.12854 -0.0388419 -3.69954e-19)
(1.1161 -0.501477 -3.96341e-19)
(2.09728 0.0592122 0)
(0.855481 -1.04507 6.09183e-20)
(2.11031 0.0735695 4.18257e-20)
(0.721819 -0.117404 -7.60019e-20)
(2.37926 0.016466 -4.2427e-20)
(2.17506 -0.428445 -2.14002e-19)
(1.99905 0.0214369 -4.25239e-19)
(2.11616 0.313653 6.13768e-20)
(-0.866288 0.169561 -3.41233e-19)
(2.46442 0.0665631 0)
(1.80855 0.172443 -2.51033e-21)
(2.66565 0.0638725 4.16373e-20)
(1.4557 -0.560829 0)
(2.1545 0.0723687 1.05822e-19)
(2.63187 0.125449 4.40609e-20)
(2.4115 0.0648245 6.07903e-24)
(2.345 -0.789698 -2.11929e-20)
(1.82557 -0.0236621 0)
(1.79411 0.360044 4.52465e-19)
(2.06306 0.21946 1.58915e-20)
(1.24025 -0.602016 2.90182e-19)
(2.00316 -0.176579 0)
(1.47788 0.357028 -7.35643e-19)
(1.4583 -0.417552 -9.1842e-21)
(2.64703 1.50109 -3.68783e-19)
(1.14879 -0.166916 9.49289e-19)
(2.07595 0.00612747 8.48463e-21)
(0.184388 -0.227089 4.64775e-20)
(1.92714 -0.0763374 -3.67978e-19)
(2.48295 -0.491468 -3.05977e-19)
(1.7703 0.167654 -3.39265e-19)
(1.98995 -0.00714031 0)
(1.99937 0.0363051 -2.46814e-19)
(0.103909 -0.114816 1.0331e-19)
(-0.878762 -0.273763 0)
(2.27094 -0.850258 0)
(2.02051 0.00782541 0)
(0.0947147 0.132989 0)
(2.06876 0.315993 0)
(1.07616 -0.133113 0)
(1.88179 -0.398181 -2.73102e-21)
(3.32519 -0.910844 -5.12833e-19)
(2.60142 0.295574 0)
(1.76632 0.359017 6.83681e-19)
(1.59578 -0.440624 -3.3134e-20)
(2.09634 0.200593 6.5468e-21)
(-0.139409 -2.08899 -2.14805e-19)
(1.09083 0.11757 -2.74966e-21)
(-0.812753 0.106309 2.22472e-19)
(1.91921 0.00234135 -1.37264e-19)
(2.60466 -0.0621326 2.5346e-20)
(2.04163 0.306079 -1.48355e-19)
(1.86747 0.215033 -4.51206e-19)
(2.0438 1.05679 -1.35123e-19)
(3.47115 0.931073 0)
(1.17658 -0.578744 4.21242e-21)
(1.23948 -0.362169 -7.90718e-19)
(2.01174 0.0279761 -7.64005e-19)
(2.29222 -0.688899 -2.8248e-19)
(2.02326 -0.0157104 5.82566e-20)
(2.57068 -0.651697 3.00549e-20)
(2.11779 -0.329328 -4.62258e-20)
(2.05435 -0.541234 -2.9483e-19)
(2.0349 0.182251 1.63929e-19)
(2.2934 1.36 0)
(1.7936 -0.13975 -2.08554e-20)
(1.70011 0.104749 -1.04596e-19)
(2.50956 -0.414244 0)
(1.75783 0.0213556 0)
(1.73512 -0.800008 -3.47361e-21)
(0.348538 -0.327392 4.29165e-20)
(1.86409 -0.407548 -1.02088e-19)
(1.86384 0.0483225 0)
(1.90092 -0.0265394 -4.8186e-19)
(1.82158 0.236291 -8.77112e-20)
(0.953995 -0.876192 2.96206e-20)
(2.51301 0.148925 2.9195e-20)
(-0.593635 0.0272575 0)
(1.13785 -0.567431 5.89506e-21)
(2.58372 0.130014 0)
(1.95894 -0.256683 4.41045e-20)
(2.6053 -0.253758 -6.57342e-20)
(2.00054 0.0322478 -1.79298e-22)
(2.41561 0.648893 4.83753e-20)
(2.86462 1.22718 -3.9018e-20)
(1.72894 -0.490611 5.95395e-19)
(1.26788 -0.57319 0)
(1.62932 -0.786776 -1.14073e-19)
(1.55615 -0.484962 0)
(2.65553 0.27598 -5.98344e-20)
(0.923961 -0.843418 4.58611e-20)
(2.22123 -0.839365 2.12975e-19)
(1.78805 0.149063 5.13894e-22)
(0.577575 -1.85431 -3.22467e-19)
(1.06428 -0.525676 -3.35087e-19)
(1.28257 -0.370304 -4.58775e-19)
(1.97473 0.071176 -2.34958e-21)
(1.66161 -0.766563 9.35433e-20)
(1.15908 -0.517674 3.25918e-19)
(1.34163 -0.399365 5.03729e-19)
(1.36392 -0.748622 4.84019e-20)
(1.76264 -0.847744 -6.62856e-20)
(1.8283 -0.581613 2.9663e-19)
(0.0536929 1.89453 1.04897e-18)
(2.12509 0.0100408 5.47801e-21)
(1.47891 -0.443934 3.05929e-20)
(2.3604 0.374613 -1.60201e-20)
(2.2397 -0.572926 0)
(0.240319 -0.0167881 -2.24889e-18)
(2.10621 -0.0365749 -2.52901e-19)
(1.99748 0.124893 0)
(2.62178 0.259667 0)
(1.54554 -0.646074 -6.01117e-20)
(2.65595 -0.675619 -3.45039e-19)
(2.42727 0.166487 7.95614e-20)
(2.03606 -0.393581 5.32015e-19)
(2.02099 1.0123 1.30932e-19)
(1.49553 -0.00996635 3.85089e-19)
(0.85192 -0.924428 -6.78935e-21)
(1.81024 0.657641 0)
(1.37395 -0.434989 4.82465e-19)
(0.685236 0.417592 5.86047e-19)
(0.59405 -1.77433 2.322e-19)
(1.71885 -0.661158 9.84844e-20)
(1.38866 -0.62979 -7.01258e-20)
(1.8384 0.00128576 1.97821e-19)
(1.76814 0.0732806 3.17237e-21)
(2.19829 -0.301992 2.14621e-19)
(0.789362 -0.942229 -3.64874e-20)
(2.40324 0.164538 -5.65272e-20)
(1.93993 0.0718847 1.9066e-19)
(1.11638 -0.196102 -3.89943e-19)
(1.87156 -0.0612189 3.01013e-19)
(1.87031 -0.458973 0)
(2.44286 0.32387 -5.92779e-20)
(1.97667 0.0648111 4.25383e-20)
(1.46238 -0.290585 -1.54628e-19)
(1.96467 1.94771 9.8789e-20)
(1.79998 -0.56621 2.20529e-19)
(2.05615 0.00975784 8.2083e-20)
(1.37232 0.182526 -5.77251e-19)
(2.49429 -0.422116 0)
(1.81431 0.141531 1.62162e-21)
(2.26462 0.0668107 6.38015e-20)
(1.94878 -0.059079 0)
(1.3987 0.0655992 3.31002e-19)
(2.52222 0.152777 0)
(1.85401 1.95516 -5.82197e-20)
(2.35536 -0.0345142 0)
(1.79096 -0.158621 0)
(2.55264 -0.00889114 4.5761e-20)
(2.4038 0.130002 -2.47305e-20)
(2.91123 0.0546978 -3.86631e-19)
(1.92222 0.158668 -2.05071e-19)
(1.63147 1.28108 -1.2279e-19)
(2.00446 0.101038 -7.77791e-20)
(2.09829 0.322716 0)
(3.07017 0.207999 -2.12723e-19)
(2.49586 0.102811 8.46973e-20)
(1.93708 -0.245219 -9.06575e-20)
(2.2389 -0.567477 0)
(3.02897 0.611904 2.13888e-19)
(2.32681 1.74323 2.47788e-20)
(2.1248 0.010109 2.16731e-20)
(1.65146 -1.90083 0)
(0.385112 -2.1734 1.11782e-18)
(2.05306 0.170578 0)
(2.23054 -0.266611 -1.08649e-19)
(0.387428 -0.395348 0)
(3.8893 0.0344827 0)
(1.78686 -0.602881 0)
(2.02225 -0.776134 0)
(-1.32851 -0.253544 -3.19615e-19)
(0.875359 -1.31262 -2.59845e-20)
(1.84403 -0.00911353 -3.53272e-19)
(1.1422 -0.712693 -2.5994e-20)
(1.24186 -0.547488 0)
(1.1768 -0.827606 -2.87508e-20)
(0.139932 -0.470619 -1.69781e-18)
(1.4694 -0.693726 0)
(1.45487 -0.521828 -5.16023e-19)
(1.97982 0.117896 2.43641e-21)
(2.34054 0.361327 3.03738e-20)
(2.36955 -0.811507 7.15266e-20)
(1.85071 0.198355 0)
(2.18277 -0.713568 0)
(3.37277 0.0177214 2.15313e-19)
(1.66217 -0.170382 4.31581e-21)
(1.95145 0.0754828 4.14404e-21)
(1.54639 -0.641409 -7.02744e-22)
(1.99954 0.00930557 1.83376e-20)
(2.08832 0.09919 6.83774e-22)
(2.03287 0.180731 2.35923e-19)
(1.84695 0.180442 -3.09e-21)
(1.87506 -0.523937 0)
(-2.68981 1.43965 0)
(2.11266 0.046611 0)
(1.94185 -0.000285551 0)
(1.72355 -0.305367 2.18726e-19)
(2.66876 -0.11814 0)
(-0.534406 -1.36092 3.13141e-18)
(1.99174 -1.21763 -1.72356e-20)
(1.31013 -0.41803 -7.56501e-19)
(1.54224 -0.461188 1.28378e-20)
(0.927179 -1.07064 -3.33317e-20)
(0.622812 -1.39457 -1.90086e-18)
(1.91122 0.0282983 6.56069e-20)
(0.579182 -1.07288 -5.10829e-20)
(1.86807 0.184861 -7.76423e-21)
(2.55142 0.00239238 0)
(2.34172 -0.397118 0)
(1.52469 -0.54679 0)
(2.17213 -0.445214 1.13236e-19)
(1.72385 -0.903072 0)
(1.84697 0.661057 0)
(2.00145 0.0137621 0)
(1.75613 -0.427056 2.30801e-19)
(2.08827 0.1969 -2.11462e-19)
(1.88412 0.014636 0)
(1.93066 -0.404829 -1.00298e-19)
(1.98218 0.189001 -2.36139e-19)
(2.59925 0.941022 -3.14808e-19)
(1.51259 -0.709521 3.08747e-19)
(1.93108 0.704913 -6.69208e-23)
(1.66349 -0.293508 -3.53317e-21)
(1.72767 0.039925 1.17871e-20)
(1.80209 -0.232203 -4.35099e-20)
(2.38441 0.138495 3.75615e-20)
(1.95758 0.0716549 9.97909e-21)
(1.82032 0.0945011 -3.3205e-19)
(2.11771 -0.0421129 0)
(0.835639 -0.172459 5.79599e-20)
(1.95823 0.0746867 3.41378e-19)
(1.42319 -0.475761 -9.55197e-21)
(2.11466 -0.311701 -1.34787e-19)
(1.03243 -0.155403 -6.60685e-19)
(2.39873 0.114053 -7.13592e-21)
(3.14943 0.275896 3.63169e-19)
(2.00027 0.0804108 0)
(1.85107 -0.0756288 2.25683e-19)
(1.84341 0.0610113 -2.61991e-21)
(1.81011 -0.244377 8.64052e-20)
(1.05554 -0.522223 -3.61477e-20)
(2.04348 0.03529 1.78625e-19)
(2.10544 0.064838 -2.69567e-21)
(2.06113 0.0132178 -6.15927e-21)
(2.09586 0.0348159 0)
(1.50487 -0.345449 0)
(1.32758 -0.638901 3.76617e-19)
(-0.610593 -0.0711319 2.40427e-19)
(2.046 -0.00375025 5.21502e-22)
(1.95987 0.0765027 6.84715e-19)
(1.94396 -0.539327 -6.32939e-19)
(1.4451 0.341369 0)
(1.79962 0.122057 0)
(1.58787 -0.34639 -3.09096e-21)
(2.50485 0.0193634 7.22382e-20)
(1.98306 0.677662 3.20564e-19)
(2.50697 -0.174034 0)
(2.04665 0.00452711 0)
(2.07554 -0.610297 4.08338e-19)
(1.98095 -0.158313 2.83875e-19)
(0.0692392 -0.0733061 -7.82835e-21)
(1.82474 -0.0259658 0)
(4.00668 0.110754 3.29363e-19)
(2.04447 -0.517586 -4.1247e-20)
(-0.140829 -1.81965 -3.53256e-19)
(2.00328 -0.00710061 -3.84006e-19)
(3.32298 -0.719874 0)
(2.71047 -0.684652 2.72869e-19)
(1.78087 -1.73325 -3.35899e-19)
(-0.0112487 -0.0314647 0)
(1.9667 0.0150236 8.02093e-21)
(1.91708 0.126849 -2.22408e-19)
(1.96344 0.00492679 1.26918e-23)
(2.63414 -0.281601 3.80758e-20)
(1.58989 1.32468 5.48991e-19)
(1.88041 0.0444418 0)
(1.02926 -0.375134 -4.27129e-21)
(2.00566 -0.770572 5.29669e-19)
(2.99926 -2.4268 -1.29842e-18)
(2.057 0.299883 1.7607e-19)
(1.279 -0.562074 -3.10235e-21)
(1.9979 0.00431028 -8.31863e-19)
(2.02092 0.287611 6.99186e-21)
(1.73039 0.10016 5.37781e-21)
(1.72188 -0.387837 0)
(1.84277 0.0166794 -2.50191e-20)
(1.08377 -0.5044 2.604e-19)
(2.23034 -0.11571 -4.11997e-19)
(1.98336 0.0628515 -3.09645e-19)
(2.21751 -0.245531 1.00202e-19)
(1.65697 -0.138864 7.99788e-19)
(2.11424 0.00566609 -6.03348e-21)
(1.78172 0.127167 1.92937e-19)
(1.99587 0.0800793 9.41965e-21)
(2.73433 -0.515141 -4.17643e-19)
(2.54304 1.06594 -2.26249e-19)
(1.64042 -1.2305 1.26824e-19)
(1.92716 -0.021443 0)
(1.23022 -0.566566 0)
(0.957394 -0.213205 0)
(1.30754 -0.377771 5.85575e-19)
(2.14398 0.0734894 -5.03882e-19)
(1.80645 0.250815 0)
(1.50276 -0.309106 -4.59581e-19)
(1.7876 0.210809 0)
(1.732 -0.277586 -3.59307e-19)
(1.91013 -0.260827 -9.43568e-20)
(1.85127 -0.491914 -3.25968e-19)
(1.95554 0.0451671 0)
(1.94432 0.0677558 0)
(1.96203 -0.061944 5.46297e-20)
(2.55717 0.236791 6.38232e-21)
(2.56592 -0.111337 1.76616e-19)
(2.53708 1.83111 -5.94785e-21)
(2.54223 -0.24164 0)
(1.72719 -0.641709 -1.65874e-19)