/*--------------------------------*- C++ -*----------------------------------*\
| =========                 |                                                 |
| \\      /  F ield         | OpenFOAM: The Open Source CFD Toolbox           |
|  \\    /   O peration     | Version:  2306                                  |
|   \\  /    A nd           | Website:  www.openfoam.com                      |
|    \\/     M anipulation  |                                                 |
\*---------------------------------------------------------------------------*/
FoamFile
{
    version     2.0;
    format      ascii;
    arch        "LSB;label=32;scalar=64";
    class       volScalarField;
    location    "5";
    object      p;
}
// * * * * * * * * * * * * * * * * * * * * * * * * * * * * * * * * * * * * * //

dimensions      [0 2 -2 0 0 0 0];

internalField   nonuniform List<scalar> 
13486
(
5.32968
5.69598
-0.0907135
-22.8554
-6.60857
0.929034
-7.40534
-3.21248
0.305103
4.17914
-6.40878
0.241492
5.57062
1.45915
-4.30269
4.40906
-5.48799
2.00555
0.0803663
4.90207
-31.8777
5.3817
5.57853
-13.4242
3.86209
-13.5238
-8.02929
-3.5074
-0.033482
-6.26925
-24.361
-0.835387
-3.30494
-3.08107
-3.10243
-0.0219466
-0.539803
1.50624
-0.379945
1.25928
-17.6482
6.05889
-0.191566
3.70435
3.62999
0.25058
-18.5129
-0.0396719
-0.522255
-1.566
3.86428
-0.636021
0.644456
1.86281
-0.141478
-6.00525
-1.35561
-0.591956
-3.40935
-0.619055
-6.45864
-0.660612
-5.91386
-33.2338
-60.9013
-0.578284
-18.6156
6.34948
0.113113
-0.37218
-18.2021
0.646281
2.02326
-8.76348
-0.704871
-1.26685
-0.702319
-4.70593
-15.6304
-1.56032
-0.0125368
6.04413
-6.58011
-0.0261509
5.31621
5.65278
0.400461
3.81389
4.50704
4.9193
0.758611
-4.23188
4.5257
5.24541
-0.155681
-0.0248848
-8.244
-15.5002
1.15303
-6.30427
0.0197524
1.64096
-16.2987
-0.597619
6.13163
-6.72539
3.7677
-0.370664
-16.7766
-6.46989
-1.73197
-1.94507
1.89242
-1.40037
7.90713
-1.07614
3.94141
-3.0185
2.07508
-0.50266
2.16605
-6.29761
0.540849
-0.390491
-1.41192
-0.588632
-1.29407
2.34407
-2.78208
-56.7931
-0.583877
-19.6456
-11.7902
-6.94602
3.87597
4.62269
9.96968
-6.01459
-0.483243
-2.39178
-2.97793
0.705558
0.026269
-1.55909
-0.523175
2.47519
-0.0477902
8.34664
-1.71806
-0.01795
3.35468
-6.50333
-0.00243298
6.22224
2.67573
-0.106428
-8.48201
-24.7958
0.202684
-0.319502
-0.70538
0.21736
1.80274
5.95609
-0.639571
0.723188
1.91087
10.1577
-0.0797785
-7.06231
-13.5535
2.69311
3.67545
-1.38155
-0.0316252
-21.4519
1.42383
-2.80945
3.68907
0.0222271
0.326265
-1.22897
-0.92676
-7.34363
0.0486375
-3.32431
-0.00112742
-4.35912
-16.3629
-0.456009
-0.53017
-0.355265
-0.690784
7.62808
-0.883152
-6.66675
-57.8097
-1.00453
2.91209
0.891583
-24.0568
2.29134
1.52015
-11.5225
-0.327117
-0.954263
0.0692623
3.1156
-0.624125
0.0342295
-3.76697
-30.0376
4.84798
3.80036
0.955886
-7.83275
-5.79968
4.9243
3.73848
-3.87137
-5.69152
-1.73341
-2.05127
-0.974824
0.852874
4.21875
0.327888
-29.9953
-3.31122
0.339441
0.311901
-28.0855
-3.06582
6.405
-22.3377
3.49526
-3.85712
-0.299682
3.65219
-0.439798
-3.67674
3.62336
-0.735954
2.79209
-0.237113
4.40668
-0.19307
-11.475
-8.10866
3.90556
-10.1785
8.11905
-1.60393
-0.401678
-2.06246
-20.247
-0.517382
-7.9562
-21.2756
-4.23787
4.98088
-0.233341
-3.88593
-19.455
-7.53175
-7.36529
-3.19834
-27.4273
2.2276
1.87909
6.412
3.85804
-5.84027
0.463186
4.23641
-10.2578
-2.00155
-16.8415
-0.44961
0.0457583
-19.0447
0.0306741
3.90363
-4.23284
-6.37636
-8.61554
-2.51482
-2.82376
0.7807
2.34647
-22.8619
-0.329524
-0.673638
3.87806
-3.77927
-4.15078
-0.912438
0.399018
3.822
-12.7254
2.08263
0.149132
-0.0476884
-1.10022
-0.452703
-11.1578
-33.1541
-0.14517
0.324362
-0.540863
-6.09889
-23.9261
2.07665
-1.54594
-0.780382
4.73731
-0.323895
4.58242
3.26009
-4.00551
-0.571621
-0.318275
3.70631
5.39703
9.71645
0.537503
-2.87852
-0.118348
0.301504
-3.42235
3.82476
-4.83734
1.09552
6.87611
-8.41563
-0.633326
7.94752
-6.50574
3.57804
-0.221373
-3.39913
5.42231
-3.85015
-1.08906
-7.65315
-0.0303959
-0.920659
7.34134
-3.96276
-0.302946
-0.371317
0.40158
0.455271
-8.51132
3.79121
-0.219074
-8.70007
-1.26685
0.276913
-26.7751
0.0230259
1.0011
4.72182
3.87863
-6.30689
0.00322491
-4.11638
-21.9518
4.99919
-1.08114
-0.173883
-0.76497
0.772707
-9.61915
1.28179
3.88213
3.77138
-0.256133
-0.163151
-6.0123
1.98569
-5.39825
6.35913
6.56102
-21.3444
-2.16888
1.72997
3.52747
-6.74457
-29.1199
4.65675
-5.49453
3.058
4.09122
7.12802
-0.527313
-21.3536
-9.3107
-5.81362
-2.81652
-6.58351
3.81152
1.08041
-36.0013
-6.71039
0.793626
5.14456
-3.00686
-0.484151
5.49519
3.39737
0.819005
-4.74111
3.87241
3.74933
7.5189
-7.36486
-7.39615
-16.7088
-0.516524
3.72166
0.218285
7.43468
3.67872
-0.115505
-4.34751
2.34407
3.96665
-8.07389
2.18733
5.37946
1.17556
3.02768
0.709489
-9.13892
-8.83883
6.50452
-0.294325
-1.26862
6.23489
-17.5381
-5.47414
-6.49086
-5.04599
0.10354
2.55263
7.21065
5.53252
-6.68856
-0.488149
-7.8563
3.63091
4.66836
-1.57249
-0.838351
3.86128
-8.59422
-23.6834
-5.3175
1.84177
2.31463
3.59259
-0.0342341
2.21735
-30.1105
4.29746
-0.0347303
9.20169
4.35205
1.59255
-4.00711
-0.048438
-0.0129529
7.81899
-1.95577
-0.487854
-0.0673735
-0.590243
-8.56177
0.419621
3.70168
-0.283197
0.248749
5.61964
-3.19831
-5.26959
3.52393
-27.4199
10.1183
3.55539
3.90376
3.88592
-19.8042
0.107584
8.44612
-8.35479
5.24308
-12.0053
2.49858
-26.894
-1.37037
-0.240596
-7.75984
4.70761
-1.34969
-11.0674
-0.00958722
0.770313
7.08366
2.48063
-2.03681
-1.09546
-0.834212
0.398446
-8.16855
3.87753
-15.1187
6.28797
-0.807851
-0.362485
6.14186
-5.55842
-0.0507772
-0.255493
-26.3922
-9.60146
-0.108201
-6.97561
0.767544
4.47788
-7.73811
-9.07383
-7.96898
-0.0280908
3.62327
2.48889
-7.37203
-15.9003
0.808359
-19.6323
-2.72275
-59.1084
-0.761874
-1.08223
6.71315
-1.24705
4.75301
1.68347
-9.14025
-1.19024
2.92245
-8.02759
2.74786
0.0748647
-7.03129
-1.30085
1.79415
-4.90985
-7.52074
3.90206
4.09986
3.00204
5.51963
0.0901315
3.6907
2.39734
3.40487
-0.563274
3.69621
-8.27287
3.67441
-1.51505
-2.80835
-10.4153
3.57394
-17.1791
0.40931
6.96969
5.19987
-33.2992
-14.4129
2.8493
0.906467
1.42192
4.76573
-13.0135
-8.06654
1.54566
4.75978
2.08445
2.31657
-36.2232
5.3247
-23.1649
-1.12563
3.85999
-4.311
-1.33382
3.27686
-3.33575
0.208726
0.453606
2.88033
-2.07712
5.08358
-1.05793
-0.0431531
0.0879104
1.18316
-2.33386
7.18545
2.5764
7.07897
-28.8856
2.62513
-0.0349077
-9.41816
-7.41129
3.87382
7.91211
-51.9842
-5.76308
-3.25255
-4.5239
3.83031
1.61454
0.951071
0.740194
-7.42778
-9.61073
-9.63131
2.17705
-4.72369
3.80055
-0.0210813
6.26382
0.966156
-0.364787
-9.04191
-3.56699
2.66657
-6.13943
1.7059
-7.29622
3.37433
-0.00214231
-1.42501
-11.148
6.28887
-0.0316955
2.19257
5.94697
3.88516
-7.3502
-1.00522
-0.647438
1.81112
-1.85359
-0.709299
-38.6618
2.85745
1.39803
2.57131
0.666427
6.18621
-1.00603
-23.983
3.58651
-0.72122
0.681949
-2.85687
3.73472
3.2513
-7.344
0.0767519
-0.262657
0.402988
3.61715
2.61334
0.28794
0.0195335
-19.927
-1.11567
5.19623
-0.442688
-2.15767
1.05046
6.66622
2.60014
0.322023
7.05699
-0.174546
-8.88899
2.41716
-7.06462
4.75654
-0.500364
3.83997
-38.9835
-7.16832
-22.7848
-0.0142145
-5.17367
3.55082
7.55634
-8.83043
0.941751
0.130477
5.33244
1.52738
3.10451
-9.81282
8.03436
-7.32718
-0.143138
-1.78511
3.69326
4.49187
4.12218
-5.22159
-36.108
5.91294
3.88367
-9.261
1.47104
-17.0809
-1.20929
-2.73777
3.49509
-6.39984
-1.70606
4.97188
-5.95703
-0.514444
-3.58568
-9.76422
-9.10071
-0.447083
3.01057
4.84854
-24.5389
0.106969
-7.34983
-35.2597
0.202873
-4.83416
0.99413
3.84161
1.80637
-0.906496
1.36661
-10.173
-49.9829
-3.52843
-0.268528
-22.9479
-25.0178
-0.272065
-18.9696
-1.96951
5.60633
-0.522694
-49.2721
5.98038
5.12389
-31.2984
-57.232
-0.35489
-21.876
-0.572635
1.26129
1.90733
-6.00185
-5.14058
3.10045
3.70793
-0.0671776
-26.296
-5.94157
1.05201
-1.14126
4.28476
-0.0654061
-21.6404
5.31052
4.81258
-7.16086
-18.8658
0.396164
-12.4118
0.129316
-0.347129
-5.70792
-20.2012
1.16146
3.73219
7.14261
2.81563
1.27088
1.25436
3.71222
4.78281
3.02184
0.0734497
3.057
6.84718
-6.17307
-0.29629
2.03433
-2.5639
6.46418
0.14383
3.67893
-0.0969182
-1.79479
0.197255
1.17206
-2.18336
4.25266
5.91367
3.69971
3.35656
-8.17278
0.459729
-4.39694
-5.76342
-2.41371
1.59524
-0.523603
-27.8208
-7.31697
3.37067
-5.17925
-7.9376
-7.69819
-26.1254
-4.72454
-7.9324
-25.445
3.45418
-27.1225
5.29589
-31.3895
-8.23551
1.02505
3.77438
-0.7493
1.9839
-14.8555
4.5192
-7.12576
-4.27176
-1.05513
-0.465103
-24.6003
3.8628
-1.66975
3.50699
-0.29313
-0.420093
-8.54143
-0.65318
-0.209371
2.58639
-2.6239
-6.25378
-40.0394
5.26625
1.7712
-26.0698
-5.65915
3.00442
-18.2676
-0.322279
0.228705
-3.95726
1.00257
-3.02656
-61.1384
5.20363
3.85753
1.58549
3.14767
-0.365939
-9.37261
3.95583
1.07596
1.26843
4.70932
-1.81823
-0.393848
-2.59724
1.28237
-0.461501
4.35257
2.90933
0.243668
3.8383
1.36752
-1.00251
7.71488
1.17296
-3.38274
3.68599
0.545429
-0.419789
-3.01252
-30.8601
2.94402
-0.919748
-0.181015
-0.564077
2.50174
2.15597
-7.25159
0.00333308
3.82974
0.619418
6.80911
4.56773
3.52306
0.224147
4.51492
-0.0602115
-0.242429
-3.83671
1.38057
-36.1338
-2.78474
-10.5977
-14.6201
-10.9786
2.48012
0.037458
-5.59623
-29.5444
-36.4173
-0.269764
4.13489
-0.126319
0.889153
-6.51461
3.73853
7.19584
0.683326
-2.66782
3.63729
-8.03065
2.72048
-0.314359
-0.26479
2.17684
-0.79945
6.21522
-0.162155
3.73225
-4.81462
4.04832
-0.582656
4.6603
-0.787778
-4.52511
1.54999
-51.1811
-0.102783
0.727833
-25.6531
5.42164
3.75064
4.95346
4.36369
4.92105
2.65715
-4.47059
0.0861498
3.79569
3.63665
-2.64878
0.321842
-2.52419
0.208605
0.112404
0.425691
-6.91387
9.07693
-1.0167
-0.841761
7.24458
5.18397
-2.81845
-48.1896
1.51609
3.5037
-18.2372
-0.606673
-6.45823
0.156023
3.72911
3.86141
-0.289611
0.236183
4.03029
0.00830425
-0.556615
4.60036
-0.287692
-0.499566
-7.87861
-0.046383
-2.07511
4.30481
5.727
-0.455585
-12.3636
-9.22304
-0.134607
-0.466599
0.209004
6.26585
-0.54205
8.70134
2.57579
0.132823
3.18187
-7.22275
-8.30433
-17.7444
2.99372
-0.316859
-6.07827
-22.6812
3.20887
3.92451
-0.22842
-5.56303
-23.2582
-4.36921
1.77329
-0.268282
-0.149497
-0.0410036
3.13739
3.86777
4.80215
1.09001
-2.7988
-3.98603
-2.46898
0.0457796
-36.0582
3.20454
-0.284245
-25.4518
-0.389153
-0.441283
2.41928
-10.7181
-0.0735762
3.7506
-0.416084
-9.86904
-1.07081
-1.46238
-7.82918
0.487859
0.692641
0.264318
3.73013
2.18291
-6.64033
3.87145
-0.628736
4.73512
2.43453
3.37429
2.43276
1.09727
6.26467
8.68514
0.78782
-7.87992
3.79671
-0.913591
6.29517
-4.01006
-3.61673
-10.0347
0.342522
-0.0601316
-10.7362
3.71909
2.46206
0.971617
-13.6779
-3.59347
1.31431
7.64308
1.99262
4.05811
-6.35095
3.6276
6.12963
-2.07442
-1.50654
-25.9612
5.03707
-0.0525158
8.44323
0.148996
-2.70837
3.24526
0.461574
-8.02158
-6.66552
2.62352
4.78163
-0.180628
-7.30118
5.19295
4.85092
-1.04884
-5.04182
0.0579756
2.48571
0.875387
2.11038
3.58773
-0.0171066
-4.63263
4.23437
-1.95799
-3.96647
-3.12369
4.55502
2.12726
-2.6479
-37.7102
-0.00372492
3.93774
5.67034
-0.151973
2.41314
-2.08378
7.75876
-7.00664
-2.84488
6.40141
3.87288
1.12841
-0.763028
-20.2559
-4.00319
-21.1594
-7.59288
-0.261394
-17.0706
1.62658
-9.77819
-20.7689
-5.15885
-5.31294
-11.8645
-5.98714
-9.45674
6.79341
4.31221
-8.642
-22.995
-0.368717
2.42887
-2.7309
8.63542
-4.50509
-2.07455
3.90314
-10.1884
-17.2283
-3.5838
-3.8814
2.4846
9.02475
-0.0401828
-1.93313
-14.8201
0.0842416
-3.82427
-1.61082
0.156005
4.36182
4.64115
3.93534
-25.9809
-1.0896
-0.548824
-0.091466
3.68136
-0.411604
4.09093
8.09887
6.84565
-9.51778
3.90079
4.65059
-2.03771
3.32032
-0.439806
6.6684
3.18328
1.6413
4.68515
3.42147
-3.02111
-0.312414
4.79196
-3.70327
0.235698
-6.00104
-5.61545
0.885231
2.82876
-0.443904
0.23494
6.08964
6.0282
-2.74409
-6.69814
0.22965
-20.258
-1.64193
4.555
4.51537
-6.51349
3.69061
-0.181192
-0.547668
-0.00889437
-11.8618
-26.7229
-0.436776
8.91445
-3.86842
0.00782715
5.38365
0.852495
-1.27457
3.19864
0.36773
3.94143
-11.2459
-4.55133
-0.103199
-3.00088
-4.74308
-3.54797
7.35718
5.15225
1.7106
8.57698
5.66753
-3.71665
-0.480377
-0.410205
-1.3526
6.14774
-25.7956
1.54383
-0.712385
-7.51523
-4.07378
3.0982
-47.6653
-0.507692
4.38539
9.1389
-8.5004
-0.331445
1.04221
0.516445
-0.114071
-23.2161
5.77929
3.20574
0.032078
2.98307
-12.383
-9.86079
-7.86726
6.82455
-1.23145
8.34448
-25.6587
2.17134
-13.4534
-8.51235
-7.92221
1.16061
-0.514872
2.80031
0.484386
2.73742
-20.9248
-0.00506818
-34.2755
-6.56029
-3.04811
-4.83235
0.383003
-1.17083
-32.763
-6.53099
-0.769519
-0.489784
7.21813
3.81155
-0.793865
-0.0815229
10.5098
1.43596
-8.85124
-0.0385266
1.21292
4.012
0.381736
4.38692
-2.08854
-2.20438
-3.91769
-0.00274811
0.223592
5.68372
-6.77655
-7.60272
-7.85213
6.99649
-14.6643
-0.0977598
3.703
-28.6117
-1.78985
-0.4008
-8.35605
-8.5504
-0.398265
3.78591
1.59328
3.63338
-3.55362
-6.74143
-6.17431
-12.7173
-8.40697
-2.87504
0.833178
-29.0799
0.241367
-16.9911
-8.64908
-10.1524
5.13179
-29.8512
7.06371
-7.96155
-8.30876
-1.46551
1.56925
3.90356
-1.67499
5.90169
0.520375
-19.1354
-7.51
3.06766
-6.42472
3.74403
-0.279169
6.43568
4.40737
-0.293155
3.04832
6.15039
0.777442
3.01736
-4.62345
-12.8624
-0.911346
-6.85083
-0.449006
-4.72159
-5.49647
-0.102149
-7.46321
0.200859
-0.489762
-2.73315
-4.60467
-3.76086
6.63513
0.0144335
-0.0223858
0.425852
3.82521
-53.6864
-0.0618473
1.11625
-0.190496
-0.192883
0.584166
-0.663213
3.81491
3.86432
0.189242
4.2278
4.49005
1.67494
-8.39523
-0.791739
2.62424
-0.242599
-2.03973
-19.8381
-27.5545
-3.5067
-20.9305
0.0548065
-0.462722
-1.80121
-6.44094
-1.63098
-11.0875
-0.463841
-31.9297
2.91832
-7.58856
4.0086
10.331
3.05906
-33.6987
3.29713
2.19695
0.225135
-0.134186
-8.3641
-33.2653
0.110349
3.26513
-0.0236511
5.78654
-0.0975765
3.85354
-2.39537
-0.787346
-15.9922
-7.96484
8.68762
-32.1444
3.87192
3.87366
4.3289
0.0954234
3.1761
-0.392828
-12.1618
0.504698
-8.55424
-10.2685
3.29232
3.8752
-4.41938
2.62332
4.71219
-18.1401
-58.475
-1.84297
-0.590182
4.52757
3.29841
4.69763
-1.66176
0.722494
-6.64944
-3.20072
-9.65643
4.72868
8.22526
-9.36471
-5.70385
-16.5912
-1.36548
0.0635375
0.0831213
-9.43174
1.52481
-1.81666
-30.9915
-0.900326
9.00725
3.03806
1.89476
-26.6317
-11.3009
-11.03
-6.27339
-9.40375
-7.86485
5.39054
3.30718
-4.19577
8.18382
-0.0437649
-7.28645
-35.3128
-10.2495
0.951629
-6.30864
2.77376
0.160611
0.235075
-7.82344
-14.4226
-9.15926
-28.0844
4.81653
-10.2508
-0.415707
-7.41861
3.88766
3.1388
-14.1673
3.83235
2.37556
5.00266
6.23341
0.854397
0.365136
9.05734
-8.85871
-0.781382
-10.5638
-17.6327
5.57144
-25.0385
6.9443
3.22107
-2.82191
-23.1734
-21.465
4.50629
-29.613
-49.4728
-0.118194
0.146312
1.73483
3.57734
2.15772
-2.58152
6.98858
-7.17613
-12.4007
2.09203
-0.852299
4.42122
-20.5426
10.1698
-0.430719
-0.540612
4.48256
-2.42695
3.86042
0.630116
2.1012
0.697091
2.31081
-3.83625
1.17279
0.244236
-32.1191
-0.120921
0.267455
3.20986
3.41123
-37.5529
-0.0995854
-9.14209
3.49285
1.16886
-19.3697
4.1898
-32.3019
3.86808
4.09182
-5.29863
5.43955
-50.7282
8.60539
1.25518
-13.1441
-0.0390677
-0.623607
4.27826
4.48923
-16.7793
3.5398
4.32249
-7.98397
-0.48636
0.23844
1.20505
-8.14307
-6.27412
-5.19454
-27.7408
3.86346
-19.3671
-19.6943
-10.1852
4.8666
3.81255
4.66916
-19.5691
3.28297
-1.16517
-0.0166595
3.32901
-35.5338
-39.551
6.85794
-0.0730294
-3.49232
-3.81978
-10.223
-25.1685
3.89644
-5.73066
-4.22293
4.54375
-2.68622
3.50219
-8.27384
-0.388302
7.78576
-6.85762
4.72753
-0.556309
-26.2656
2.76465
0.232693
1.7992
7.78667
1.77849
0.759614
8.33341
3.20314
5.22085
-13.9214
-20.7854
-6.81165
-3.22864
-21.9235
-0.434675
-2.50976
-1.24504
-0.96288
-0.0579172
-4.53854
-2.95735
-27.5937
-4.53414
5.14529
-5.31
-0.83783
3.59748
3.78598
-1.20755
-0.290393
-14.3669
-7.17801
-9.2189
-4.58673
5.16597
-15.7677
4.90126
-7.33421
3.85125
-6.41783
-0.448829
-10.6031
2.12428
3.47808
2.3581
-0.244278
2.85892
1.09195
4.03106
6.28169
-23.2374
1.08291
-17.1155
4.21876
1.72316
-10.4495
-2.984
1.53408
-1.74688
-0.0324643
0.355924
-3.53963
2.19552
3.48249
1.61765
-0.406702
-21.7709
5.58819
-11.6715
2.82907
-0.0209869
3.95944
2.38153
3.46498
0.142656
-14.9323
-21.8151
-0.379484
-12.6252
-23.6673
-49.5611
1.51064
-31.1953
4.14028
1.32959
3.83057
-23.9831
0.975012
-5.15453
-0.425566
2.3145
-8.66141
1.32724
0.195752
-35.3776
-23.597
-11.6684
-0.0372546
3.98076
-0.396027
0.347485
-8.35274
0.819164
-8.76074
-0.608354
-7.61918
3.82864
-0.318007
-0.318186
3.32634
0.796266
2.78052
4.50169
6.2934
-7.20806
-0.424782
-18.5926
-1.87016
3.53385
0.184851
-15.0555
-17.4354
-10.9697
-3.50386
-0.224028
-14.0789
8.70647
-5.20467
2.03032
-0.434891
-51.9203
-0.560774
-0.354832
-0.855386
2.00337
0.410316
4.18316
-0.407508
3.75329
-5.46451
-11.2599
-39.8385
-2.25324
-17.1952
1.70581
7.59172
3.59155
-7.66703
-14.2901
4.41119
-8.26295
-8.10994
0.129115
-1.53808
-29.242
-12.7081
-20.2012
-4.11001
-0.239479
-1.37596
-1.85047
0.229355
4.23554
-2.22788
-3.56907
4.44612
-0.50748
-6.01002
-0.446604
0.511792
-0.0388926
8.40231
0.099133
-0.859993
-2.24429
-0.962092
-2.17565
0.521175
-2.07652
-1.70523
-1.03819
-2.92747
-0.387617
-6.52009
4.72014
0.50024
2.22699
-14.989
-3.33156
7.85406
-38.2148
2.01317
1.70394
2.25502
-0.731348
-0.290778
-18.4582
3.20031
4.14461
3.87033
1.38709
-22.4461
4.39058
2.04869
6.16418
-5.56281
4.257
4.48796
4.13858
0.582918
-7.34567
2.6959
-10.1968
-3.29351
3.25919
2.83343
1.83187
4.98823
0.369774
5.81124
1.2971
2.13165
1.10669
-0.379769
4.9499
3.86276
-0.912815
3.36828
8.22487
4.08403
0.356289
-2.94904
-0.362551
3.85437
-0.436616
-5.39956
0.0876245
-0.190801
4.18898
-13.153
5.24944
2.49678
10.6875
6.71818
-4.77009
-6.59629
4.02713
1.72258
6.73276
-0.102698
1.31434
-1.27773
9.26648
3.66399
-0.424124
8.72925
-1.10989
3.13877
-3.87833
1.74874
-1.27161
0.508371
2.06268
3.23753
-0.551127
-15.4437
0.193855
-10.3776
-1.15637
-16.3726
0.0448697
6.70783
4.81303
-0.505756
-10.437
-2.78562
2.39473
0.425978
0.133292
3.51741
-14.3909
-13.2771
-28.0454
4.09543
-5.5736
-8.09694
3.89641
-2.56463
-0.339283
-2.77277
7.99363
-33.0851
4.91076
-12.3355
8.5259
-9.28448
-0.616479
-0.513483
-0.568419
0.688619
3.79626
1.05558
-6.6103
1.32761
-10.0109
4.0031
0.631519
1.51378
-33.9789
-5.02372
-12.7949
1.68662
-6.61011
-0.395634
-1.15264
3.87584
8.31155
-10.3174
-0.394871
-0.161926
-4.33833
3.21765
-0.260373
-5.23024
-5.70061
-22.563
2.68293
-31.5434
-4.32084
0.166659
-0.124278
-56.4879
1.89901
3.76242
2.57636
3.87096
7.68046
-6.10525
9.03074
-9.23218
8.13842
-18.4189
-1.5206
7.1049
3.12574
-45.519
-1.30664
-0.56782
0.0210591
-35.0839
-6.76625
0.348032
-4.80478
-7.13825
-0.0326617
-2.36051
2.9736
1.68602
-24.2334
3.06343
-5.24048
0.0604288
-33.1432
-0.425923
2.29898
-39.9765
-3.49045
7.56771
-0.322856
7.75568
-0.0559555
-8.6339
3.08765
-1.4216
-0.554059
3.84714
3.41868
8.84047
3.91208
4.63079
-6.22402
-7.39346
8.53625
8.38283
4.45855
-0.792864
-20.6288
-10.2548
0.300978
-4.04274
-1.30369
5.69854
-23.3945
-0.399026
-4.06244
8.03949
2.15388
1.9404
-23.001
-0.997555
4.51642
9.91153
9.13839
0.961026
3.02486
-4.02228
-8.42563
3.67934
9.37171
-10.0125
-0.589037
-3.3008
-0.0468639
0.421364
0.805132
0.263793
0.236562
1.03229
-0.11415
-0.730745
2.78821
4.21857
-13.4352
2.60601
-23.934
-0.0147841
6.52611
-0.352291
0.431387
-12.476
3.2276
3.24716
-12.5887
-14.7323
-0.352853
1.18345
10.2361
-14.141
-1.47012
-37.3395
-0.122885
-14.5203
-12.893
-15.1072
-1.2934
-0.350142
-6.49321
-1.19558
-6.28829
3.15992
-0.356553
1.83183
9.79611
2.10909
0.153765
-4.72261
2.24857
-6.34257
-4.98643
6.38546
3.10227
0.20349
-4.23759
2.08511
3.03975
-5.07796
-12.0809
0.0514264
6.48925
-2.7959
3.86116
1.62502
5.43659
0.594657
-25.6135
2.23113
3.72614
-3.26347
4.12259
-1.12428
8.76198
-17.4745
0.486284
-7.46219
3.8238
-14.6363
-1.85461
-17.7504
0.240897
-10.2588
-24.9194
-38.4648
-1.04465
0.863554
-27.0834
-1.3208
0.490788
-10.1777
-0.438804
-18.4511
3.67172
8.19925
-1.32887
-6.20456
-0.291889
0.11455
0.390448
-1.28968
-0.157185
-7.66639
0.0755263
-11.5389
-10.3457
1.63035
0.463895
-22.606
4.93873
-0.128859
3.77498
0.0230908
-12.4079
0.341169
-0.567592
-5.96849
-2.02765
-3.77682
-12.8362
5.11569
-28.3059
-7.84879
-3.4011
3.64364
-7.77314
-6.00103
10.6148
-1.13287
-3.71751
3.78708
8.14989
6.55049
-28.0065
-3.81546
3.75301
-0.401969
0.121484
8.18743
-0.543815
-2.9639
10.4957
0.818208
-12.0441
2.10081
6.17103
3.89947
-0.329021
6.54645
3.70598
-3.50175
-0.417447
3.1823
0.311997
-7.28227
7.53553
1.90373
0.18921
-0.736337
-20.9892
-1.77259
-23.9966
-4.92788
0.387729
0.589151
4.31452
0.72635
-8.1425
6.74034
7.12942
-0.494249
-0.329932
-1.90492
-0.338908
0.0619004
3.66433
-26.6741
-2.15616
2.18227
8.43354
-8.5016
1.63459
2.93662
2.62276
-3.58801
0.153824
-6.54631
-2.94875
-7.57052
-0.558853
-7.55719
-4.47819
-0.145118
-19.8915
3.27409
-26.5901
-0.388244
2.54948
-6.41017
-21.5994
-6.66681
1.2116
-3.54573
0.268089
3.11758
-28.0745
-0.974071
-1.48641
-1.70038
3.41703
-8.25354
8.28752
-0.55783
9.3507
-0.0102122
0.168825
0.140123
3.93697
-0.652629
-8.64839
-1.51203
1.20241
0.120147
-2.36771
10.7121
2.67558
-4.14661
-2.66724
-3.44455
1.00488
0.694335
-7.90417
3.70567
-26.9691
-21.1894
-6.2782
-11.7177
-3.41792
-6.48535
3.57696
-0.439677
6.58967
8.61363
-5.7016
-7.65895
1.14521
-1.98559
6.94608
-12.2387
0.817143
3.05645
3.73001
-27.7609
-12.7364
0.613388
-0.550694
-2.14216
-24.3169
-11.0832
0.828136
-1.20785
-6.45589
0.761532
-6.99773
-5.47157
0.946055
-30.9015
-25.1636
-8.13599
2.27192
8.76009
-4.99172
3.90351
-22.6866
-1.51607
1.31338
-3.54623
2.68797
-15.6197
-22.2973
6.85461
3.31733
1.53613
-8.53623
9.4368
-19.2805
-17.4257
-28.1818
-5.63721
-14.6258
-26.4444
5.85119
1.36171
-0.457761
2.97441
-22.7392
1.37317
0.253339
-0.122989
-8.17658
1.64043
2.93515
1.26351
-11.4025
-13.9474
-12.6376
-9.0977
-2.68095
-2.25737
8.89833
3.72205
-13.8253
-6.21162
2.43711
6.24161
-3.19202
-21.7129
-5.11801
4.90208
-0.210486
-5.22308
4.15209
-7.36426
6.71557
-3.56153
4.443
-7.77278
-4.53766
-0.660601
-24.8752
-6.57998
2.83459
-19.6799
-13.6371
2.22171
-7.62761
1.1619
4.95547
3.78955
4.75199
3.86492
-2.957
-0.221055
1.72776
0.288345
-0.0180105
2.20641
-4.1302
6.89393
-18.2194
4.52911
-9.02342
8.1283
-23.724
-0.974597
7.64514
-18.2475
-4.69713
-8.63079
4.64838
7.58352
3.65794
-4.19074
3.79524
3.29189
-24.1185
3.5901
-29.6268
3.96576
-18.7375
-37.8368
-7.97295
-8.29889
3.19635
-8.19268
-10.2328
-1.29986
7.38363
0.419091
1.37477
-8.91095
-1.71148
-3.6212
-4.60546
3.86409
0.626023
-10.2458
9.15839
-0.736591
6.38886
3.6534
-0.450734
-0.236283
-1.15962
-3.99787
-6.31256
-2.01327
-2.35414
0.376319
0.476504
-29.4956
8.6618
4.59485
-1.46791
-20.4104
0.0967814
-19.84
4.01419
2.80804
0.24458
-0.578836
2.85288
1.00634
-1.86035
-6.99612
-4.18514
1.2971
6.76473
-12.2781
7.65827
9.63162
8.10541
-12.8075
3.12467
-7.92363
3.67409
2.8576
4.95994
1.36054
4.44358
9.81534
4.17815
-15.1318
-17.3019
-21.1021
9.74849
-1.01748
-8.59194
-12.6263
4.93734
6.8449
2.09545
-1.26048
-1.23452
5.94369
-1.86418
0.352709
-12.9568
3.1088
-0.407748
-12.7798
-0.752309
-7.16603
-7.57284
-29.8133
-8.05904
-2.3561
3.03719
1.08502
0.338228
0.755946
5.49079
-6.95608
-0.614391
4.74176
-8.0721
-18.7049
4.15426
6.04499
-19.5338
5.0679
4.32425
6.7733
-0.425485
-37.0458
1.38025
-8.44566
4.92856
2.85748
4.72425
4.04268
2.12876
4.75977
-0.0345682
3.45022
-1.16757
3.18585
-3.14209
-6.35358
0.810011
-0.388084
3.32356
-26.7661
-30.911
-25.7931
7.59182
2.97061
3.22388
-2.09771
5.59839
-5.03871
0.494735
0.525831
-3.08281
0.645574
-27.224
-8.54173
-2.00038
-7.26011
-4.37842
-14.7766
0.434356
-10.0419
-8.11831
-0.587241
7.47657
8.658
6.52709
-27.3025
0.416737
-7.56874
0.857997
6.60335
2.3311
3.26025
-23.6001
-0.845162
-3.64579
1.28307
3.99908
-0.516395
1.37272
-9.06411
0.699277
-8.57989
3.80127
1.45263
3.76111
-8.35504
0.779906
-35.019
-10.4329
-9.95426
-1.03012
7.02649
-7.47069
-19.6462
-13.6539
2.50653
3.87399
-0.686784
3.50608
-9.05779
5.78934
7.36619
-28.8886
0.839418
4.63006
-30.6759
-6.62688
1.61286
4.50027
5.02918
-7.63679
-4.87533
1.53095
7.36516
-8.09571
-58.4813
1.18494
5.91327
1.55647
-3.12248
-10.1763
3.34313
3.80268
3.81135
1.05762
-6.001
1.47939
9.50949
-6.2666
-2.6712
1.43497
-10.1433
1.52845
-0.645318
-10.5866
-5.29837
-27.8035
3.58572
-22.6845
-8.29014
3.18889
4.46229
0.888922
-3.61646
-52.2206
0.699499
-9.0665
-6.98994
-2.54779
-1.15713
-5.06056
5.25104
0.977964
1.42538
-0.153886
6.43777
-30.6632
-3.46274
3.64507
-9.02814
3.79441
-0.158758
-1.58888
-9.51544
3.96568
-0.0489146
-0.671434
-2.77482
-3.63539
3.4618
-8.92287
1.55424
-33.876
-6.96321
3.59461
-9.90143
7.98967
-8.68122
-15.3715
-22.9366
4.74794
1.0732
2.7784
-23.5747
5.75789
-10.0522
-4.21426
0.422405
5.01843
4.11594
-0.790818
-2.57144
-2.44566
-17.6546
3.7965
-5.47617
-29.9062
0.018114
0.921523
2.95224
-1.74011
6.50442
0.2077
-7.87998
2.92697
-2.17413
4.88734
-9.88144
1.6996
4.67
4.055
-1.14299
-14.5464
-10.5007
1.43255
2.71919
3.17012
5.76799
-15.7767
-0.867737
-7.45568
2.2761
10.0356
0.521656
3.53138
4.75904
2.42629
4.17962
-20.5977
-21.7737
-30.472
3.71406
9.58804
0.975881
-1.22337
3.70669
-2.11137
-1.59994
0.186299
1.46888
-0.416789
7.9928
-17.2985
-7.34404
8.41482
3.81645
-0.62157
1.58532
3.08037
-0.0735892
-36.8978
-24.0937
1.4912
-7.60829
-6.21413
3.10167
-29.4809
-21.5814
-10.7566
0.0386099
0.295794
1.15436
1.66693
2.96568
3.108
-0.295372
1.44878
0.743438
6.257
4.95748
-5.98339
-1.35921
-0.736445
4.2928
1.0798
2.2857
-1.84295
1.58854
-0.446208
6.464
1.90447
-0.0652168
-7.95083
1.90875
2.03108
-3.91328
3.34763
-0.401545
0.227958
-43.4483
0.319293
-8.764
0.722974
-5.11748
-23.6512
-2.00425
-8.40218
5.08512
-10.7112
-12.501
-11.299
6.81658
-25.1957
0.365261
2.60481
-9.66746
4.99226
3.91816
-4.69255
4.1511
0.365799
1.60662
-22.7325
-8.14149
-0.173692
5.29921
2.75582
-7.88065
-8.15035
-44.6991
-14.606
-11.9359
-2.91308
-2.42878
2.91455
3.79195
2.32933
-37.8052
0.0801992
4.34661
2.95667
-7.51042
1.95011
-22.4815
-2.80701
0.496597
-0.360624
3.85025
-5.67235
-29.4145
-36.6272
2.79826
-17.4714
-21.3613
-0.000411609
-38.5675
-8.45205
-10.1475
-10.0618
0.0267239
-21.4556
-1.09826
-7.90201
4.04625
3.93512
-2.5238
4.89945
-15.0538
6.29418
-8.59911
1.78509
-1.71584
1.68276
-0.345476
-6.83442
-22.3962
4.13989
5.3171
6.91775
-7.93762
-9.82464
-20.5985
-2.40622
-0.0551721
-8.57263
-9.24202
-8.28995
-0.320297
-7.75602
-4.6156
-12.181
-1.00924
5.79414
-0.0594377
0.280694
-0.351857
-3.28829
-15.1765
6.4631
8.56948
-9.89348
1.48329
1.86969
-0.0198192
-33.9945
4.67826
5.20529
-2.76939
-22.2269
-28.8721
-18.1272
-1.4049
-9.5062
-0.783911
4.33071
-0.680539
4.62497
-7.08485
-10.1099
4.10481
-1.02839
-8.34691
1.95719
4.84447
-8.78037
-0.0583291
-9.82317
-8.74066
-8.03698
7.13016
-22.6294
0.96231
-7.35195
2.86196
-9.94505
-9.76835
-1.78832
-5.34086
-3.21365
1.77074
-0.129092
-8.46625
0.796541
0.0293917
-49.8127
5.28383
-8.62392
-3.73589
-1.51918
3.6062
-19.8465
4.52074
-49.7512
-0.0360511
-0.422762
-5.00045
-22.2945
-8.69913
-14.4972
0.511658
2.98897
0.248913
1.01545
-3.19875
-0.430528
-7.84952
3.95197
3.65863
3.52997
-5.10351
-21.1216
1.55939
10.7379
-32.1344
-9.53267
-15.0453
-5.23427
3.75144
-0.0196179
2.04702
-1.60656
-7.37784
-7.86179
-7.66601
-8.78567
-0.134422
-5.69336
2.01359
-9.38091
1.30855
0.856849
-0.435682
-6.5994
-0.327651
2.62852
-6.44989
-36.855
3.48274
-1.60795
-7.5777
0.894615
4.78391
-3.42358
0.506025
3.05259
-26.8106
3.39246
-7.32449
3.52898
-3.83895
-3.16993
-15.8704
-6.88753
-27.8754
3.35226
3.3173
-5.92696
3.81867
-20.6579
5.06418
4.39266
-9.79318
2.44691
2.75377
3.8509
-3.94284
-24.7723
-1.66875
-0.856146
3.67624
2.64514
-5.52944
5.30804
-4.79282
5.2738
1.16594
1.24081
1.89945
3.54906
-2.83143
-3.16135
-0.393658
3.86172
2.78129
0.518448
4.63046
4.52383
0.169193
-28.308
2.78
3.41973
1.47917
-2.37424
-17.2928
-9.08573
1.83872
-26.6962
5.08085
-0.217775
-1.68135
-2.73771
0.952089
-14.2633
0.862375
-29.1957
-4.86298
2.79606
3.64587
-39.3009
2.92962
-1.78427
0.0805165
0.882226
1.45039
1.2152
-0.0305979
4.01803
4.23586
3.57407
-7.23689
4.12076
2.93861
3.86567
4.12995
-44.6345
-2.8852
-0.432932
-3.99873
2.95012
7.24666
-37.4448
8.01019
-23.8673
-6.75077
1.39892
2.88235
-1.78213
1.18039
-8.42732
-33.3678
-0.23561
-22.7994
-0.845797
0.883275
0.284405
9.01068
1.8767
-42.9157
-25.9359
0.424772
3.26349
-37.8631
-11.624
-56.8025
-3.14306
-7.6053
-6.13099
3.85637
1.02977
3.23171
-2.25923
-1.86844
-1.75049
-0.345035
0.446157
-5.2548
5.12383
-8.09274
-9.54931
-0.417679
-10.28
-0.53056
3.42453
-1.09094
-11.0611
4.26093
-0.536994
3.29427
-4.29944
3.37283
0.526245
5.67296
3.61094
-28.5697
0.736073
-2.91653
-57.6169
-0.400767
-0.412597
-8.0212
-39.2647
9.27097
-0.0934695
-3.91893
4.43247
-11.991
-0.239555
-29.6465
-7.42603
-22.86
-10.6209
-2.2359
-0.925847
-14.9988
-33.1709
2.16892
-43.8767
-2.08302
-22.8956
0.241518
3.97358
-16.1233
-20.3033
-2.54627
-0.605586
-4.03842
3.24185
4.76776
-59.7102
3.35288
-2.91335
3.72158
6.78516
-9.49748
3.7588
-0.300592
3.1038
3.86273
1.39896
-2.38723
-16.751
2.77615
4.75904
-33.0784
-0.072706
-6.90186
-5.26091
3.44729
-41.6476
-3.08083
-60.8771
3.29767
-8.50156
0.231214
-0.679865
4.08538
0.317157
-13.5451
0.665305
-0.322024
-17.264
5.82348
7.8124
3.01651
9.57562
4.77205
6.3411
0.316465
-1.47474
5.57562
-16.3275
1.49255
0.685651
-7.8356
5.19312
-2.7936
-3.11353
7.73476
1.71437
-12.367
3.39254
3.11437
4.53035
-11.2699
4.15409
7.89491
-10.6594
-7.00982
-3.33044
-0.141953
-7.90399
2.38522
1.05338
4.90948
3.704
-18.0295
2.46901
-1.43326
-20.3017
-16.8948
-27.75
1.47727
-5.66222
3.87432
-0.630775
-8.73245
-0.0867103
-5.02952
-0.578265
-56.0641
-21.2176
2.24617
2.31637
-7.3727
0.347641
4.23335
0.216794
-34.2361
3.5769
-0.0363381
3.31553
-8.53961
4.24459
2.58867
-7.2525
-1.31578
1.85622
-0.304366
2.78515
-8.5006
9.09835
-1.90897
-10.6943
1.97906
0.582064
-8.84215
-3.30278
-7.34888
-4.4752
-3.1537
-4.84813
1.11622
0.501454
9.72391
1.14872
-14.7221
-0.084677
-3.39671
-4.39346
-4.30379
0.932056
4.30723
-8.29105
-0.237016
-9.74703
-4.32537
-0.13149
0.354189
3.87547
-0.0461028
-0.0545661
-3.2592
3.3424
-0.309594
-0.0673862
-9.87596
0.375533
-0.530496
4.74174
-10.573
-1.86058
-19.082
1.27453
-9.31217
0.842017
3.41675
2.68918
4.19873
-8.31445
-20.7223
3.45638
-2.56998
4.22057
3.38985
2.23429
3.09588
-0.357535
2.70029
0.53851
-4.95128
-18.6924
4.20364
-20.0691
3.83038
0.187207
9.77942
1.42969
2.58178