/*--------------------------------*- C++ -*----------------------------------*\
| =========                 |                                                 |
| \\      /  F ield         | OpenFOAM: The Open Source CFD Toolbox           |
|  \\    /   O peration     | Version:  2306                                  |
|   \\  /    A nd           | Website:  www.openfoam.com                      |
|    \\/     M anipulation  |                                                 |
\*---------------------------------------------------------------------------*/
FoamFile
{
    version     2.0;
    format      ascii;
    arch        "LSB;label=32;scalar=64";
    class       volVectorField;
    location    "5";
    object      U;
}
// * * * * * * * * * * * * * * * * * * * * * * * * * * * * * * * * * * * * * //

dimensions      [0 1 -1 0 0 0 0];

internalField   nonuniform List<vector> 
13486
(
(3.14433 -0.600011 1.28978e-18)
(3.41405 0.331692 8.18601e-19)
(5.2963 -0.000870572 0)
(-0.861706 -0.482922 -7.52528e-18)
(5.25377 -0.383928 -1.62861e-18)
(4.71626 0.338616 -9.21928e-20)
(5.07794 0.847074 -1.188e-19)
(4.51599 -1.43389 6.90004e-19)
(4.18588 -0.683886 0)
(3.84479 1.18841 0)
(0.46039 1.55646 -1.10591e-18)
(4.67132 -0.148625 0)
(2.86049 -0.969039 -1.26331e-18)
(4.56288 1.34979 -1.76289e-19)
(4.79925 0.307963 -6.96059e-19)
(3.77333 1.16855 -7.38402e-19)
(0.771608 -1.10002 9.2547e-19)
(-0.486343 -0.521233 9.53005e-19)
(4.1733 -0.0378 5.63069e-22)
(3.4259 -0.238105 -1.34517e-18)
(-4.94261 1.2606 -4.63249e-18)
(2.90513 -1.00917 1.64812e-18)
(3.4565 0.311113 -6.50952e-19)
(7.36527 2.48731 0)
(3.94991 0.963089 2.53146e-19)
(7.25353 2.36914 -1.37567e-18)
(1.16379 -0.191845 1.45922e-18)
(6.31376 -0.126188 1.55746e-18)
(3.85738 0.537731 0)
(6.72668 -0.477141 -1.90992e-18)
(-6.69374 3.05199 -3.22976e-18)
(4.19895 0.166847 2.63069e-19)
(5.95498 0.830959 6.60658e-19)
(5.37444 -0.543833 0)
(4.53707 -1.34996 0)
(3.29848 0.0325036 1.04102e-20)
(3.25694 -0.31877 -2.3272e-19)
(3.4391 -1.58467 2.27579e-19)
(3.82122 -0.562677 -2.94397e-20)
(4.13308 -0.425073 2.21953e-19)
(6.76158 -1.1154 0)
(2.32704 -1.13676 -1.56059e-18)
(4.34806 0.010609 0)
(3.9954 0.813823 -1.16142e-18)
(4.0272 0.794172 4.83083e-19)
(4.6596 -0.153395 5.41912e-20)
(-1.84873 -2.17055 6.0584e-18)
(3.76094 0.501628 5.55818e-21)
(3.20676 -0.292515 1.76213e-19)
(5.46137 0.206283 3.2906e-19)
(4.00103 0.0115068 9.19243e-19)
(3.97857 -0.17751 0)
(4.44149 -0.409942 -2.52076e-19)
(3.60066 -1.29862 -4.07011e-19)
(-0.940395 -1.38342 0)
(5.12829 -0.437123 8.339e-19)
(4.81609 -0.752207 2.45458e-19)
(4.01894 -0.310845 -1.74961e-19)
(5.9887 0.934674 9.40349e-19)
(3.34677 -0.528251 0)
(-0.450194 3.98812 -1.18294e-18)
(3.40049 -0.543914 0)
(6.6517 0.273289 -9.29898e-19)
(-4.70243 1.16374 -5.93311e-20)
(0.882437 -0.367187 0)
(3.23142 -0.37128 -1.20308e-19)
(-1.2383 -0.0303756 -5.66738e-18)
(3.05299 -0.0985739 5.26022e-19)
(4.19532 -0.738485 -1.74744e-20)
(3.22801 0.0212971 5.58388e-20)
(-1.15475 0.019134 6.55526e-18)
(-0.878669 -1.02068 2.14881e-20)
(4.10629 -0.23318 2.64016e-19)
(-0.935039 2.17935 -1.20188e-18)
(3.17747 -0.495633 -2.85388e-20)
(4.76784 -0.474893 -5.57155e-20)
(3.0966 -0.478209 1.08729e-19)
(4.84366 0.345121 3.03553e-19)
(-2.3373 -3.2039 -2.45975e-18)
(3.89391 -2.2608 0)
(3.65105 0.086323 -1.85763e-21)
(3.31085 0.497861 -5.32021e-20)
(6.78778 -0.433483 -3.61305e-19)
(5.38199 -0.0573257 2.90134e-21)
(3.13773 -0.600867 -2.53246e-18)
(2.57592 2.55845 0)
(2.96344 -0.933892 8.32714e-20)
(4.00838 0.0382475 -1.44109e-18)
(3.79653 0.248535 -6.28545e-19)
(3.51342 1.60252 -9.79644e-19)
(3.94473 -0.148354 -8.91059e-20)
(4.81479 -1.06172 5.39212e-19)
(3.26444 -0.759899 2.94809e-19)
(3.44497 -0.0259053 3.90847e-20)
(4.0813 -1.16394 -1.67241e-21)
(3.7164 0.394837 -1.91929e-21)
(0.760723 -0.0541072 0)
(-3.73219 1.17867 2.52389e-18)
(4.15859 -0.414237 -4.26928e-19)
(0.134519 -1.20569 1.11238e-20)
(3.61755 0.0464751 0)
(4.53505 1.32873 -7.49793e-20)
(-4.37011 1.31037 6.28256e-20)
(3.97745 -0.26565 2.05449e-19)
(2.57803 2.41791 0)
(-0.34443 -1.38803 4.0644e-20)
(3.98069 0.0259719 -3.07201e-21)
(3.83933 -0.644158 -6.07152e-20)
(-2.86737 -3.04529 3.55983e-18)
(4.68909 -1.99973 0)
(3.49872 -1.6289 0)
(4.07968 0.677935 6.01255e-19)
(3.62681 -1.2498 1.55103e-20)
(5.71123 0.595164 -2.40644e-20)
(2.44394 -0.331073 0)
(3.31465 -1.61732 1.94092e-19)
(3.92889 0.996007 0)
(5.84797 -0.535373 0)
(4.10257 -0.208873 0)
(3.188 -0.159487 -1.20614e-19)
(-0.00171347 -0.927286 -4.42984e-19)
(-0.850755 3.38054 0)
(3.99637 -1.04175 0)
(3.84469 -0.565441 9.62876e-20)
(4.23687 -1.36517 0)
(3.97778 -0.17366 0)
(4.55039 -0.258259 -6.64878e-21)
(4.25571 0.13019 5.253e-19)
(4.96158 -0.41947 -2.0928e-19)
(3.3814 -2.49519 -6.10014e-18)
(3.89409 -0.139365 -2.20433e-20)
(-1.25165 -2.16825 -1.57554e-18)
(1.57442 2.74859 2.76701e-18)
(-0.363381 0.354068 1.40824e-18)
(3.99835 0.00183069 -1.4432e-19)
(3.7549 0.618451 -8.68387e-19)
(1.55138 0.906996 -5.83908e-19)
(4.64739 -1.89694 0)
(3.1781 -0.122902 3.58449e-20)
(4.51387 -1.0189 1.51864e-19)
(5.83449 0.59081 -8.25198e-19)
(4.41179 -0.399064 2.22521e-19)
(4.30628 -0.0970974 0)
(4.02408 -2.09476 0)
(4.74425 0.0471656 -3.54261e-20)
(4.83186 0.260411 5.37083e-19)
(3.86921 -0.587787 7.92753e-21)
(0.861267 2.39891 0)
(5.4772 0.289292 0)
(3.89407 0.508301 0)
(4.02479 -0.000189262 1.7848e-20)
(5.1539 0.161907 0)
(3.66608 0.0636631 1.95488e-21)
(3.25796 0.471578 -4.68582e-19)
(4.2498 0.537776 0)
(5.65525 -0.00300607 0)
(4.63155 -2.02251 0)
(4.26682 4.86806 4.90913e-18)
(3.84638 -1.48383 8.64021e-20)
(3.48163 -0.410049 -1.02539e-19)
(5.3455 0.128733 1.067e-19)
(3.87906 -1.41224 -9.56405e-20)
(3.26063 -0.0565417 3.19666e-19)
(2.15141 -1.01506 6.7059e-19)
(4.04937 -0.219992 0)
(4.75278 1.37821 8.44884e-20)
(4.45868 1.20532 5.54548e-19)
(1.33825 -0.484684 -2.22231e-18)
(3.82387 -0.518728 -2.2793e-20)
(-0.4165 0.434239 3.89144e-19)
(1.77707 2.60612 3.43791e-19)
(4.23801 0.48067 4.26059e-19)
(3.99089 0.0898119 -1.33205e-18)
(4.56033 -0.0349913 -1.73577e-20)
(3.63732 0.19154 -4.41646e-21)
(-3.73492 4.22472 0)
(4.45109 1.84666 -3.53095e-19)
(5.77107 0.711227 9.72591e-19)
(3.99725 0.0239859 -1.26233e-18)
(4.35045 -0.137165 0)
(4.27818 -0.474312 1.02958e-19)
(5.65631 0.643865 -4.31424e-20)
(4.47981 -0.0103429 1.70482e-20)
(1.16094 -0.481756 0)
(5.07627 -0.211068 6.33655e-21)
(5.76704 -0.106585 -6.92651e-19)
(4.22953 0.518065 1.38523e-21)
(6.1796 -0.557332 -4.31217e-19)
(6.53948 -1.08026 0)
(3.09132 -1.46392 1.0615e-19)
(3.15788 -0.24311 0)
(5.33167 0.0774825 0)
(4.13828 -0.469897 0)
(2.7255 1.19062 -1.11429e-18)
(4.27112 -0.606547 0)
(0.383542 0.954598 -2.85641e-19)
(1.48667 -1.96279 1.39375e-17)
(5.56424 0.104267 8.90945e-20)
(2.87993 -1.41116 -1.69139e-19)
(4.73115 1.29095 1.14235e-19)
(-6.65488 2.57085 3.25818e-18)
(4.27437 0.170937 -1.62928e-20)
(3.33515 -1.58895 -2.64919e-19)
(5.21743 -1.92613 -1.09156e-18)
(3.36897 -0.329317 1.25186e-19)
(4.34968 -0.576776 -1.85468e-19)
(-1.49641 0.0298751 2.21488e-20)
(3.94139 -0.160218 7.9011e-19)
(4.09413 -0.478122 0)
(5.1543 -0.177105 0)
(6.37948 -0.256588 1.22747e-18)
(9.25276 1.48028 5.80654e-18)
(3.45711 -0.217435 1.22542e-18)
(3.95556 0.0280029 -2.90886e-21)
(4.71448 0.407785 1.06145e-19)
(5.83413 -3.08244 4.8511e-19)
(6.62369 -0.290159 0)
(3.52786 1.54173 2.23615e-18)
(3.44548 -0.777192 0)
(5.81917 1.55009 0)
(0.156495 -1.06426 -1.6957e-18)
(5.50984 0.369755 0)
(4.44746 -1.03074 -3.97735e-19)
(5.27921 0.132045 0)
(4.44458 -0.563831 -6.32434e-20)
(2.92409 -1.36441 3.787e-19)
(4.90634 0.716263 3.98618e-21)
(-5.91841 2.47217 1.82572e-18)
(5.10451 -1.96662 8.09225e-20)
(3.21692 -0.974651 -7.7728e-21)
(4.27752 -0.46136 -4.06175e-20)
(7.56708 1.91258 7.26701e-18)
(5.84903 0.676489 1.03121e-18)
(2.33169 -1.13513 5.5289e-19)
(-5.73859 1.45488 0)
(2.74319 -1.32566 3.78304e-20)
(5.95077 -0.659052 7.83006e-19)
(5.36851 0.0746883 2.11321e-20)
(2.58715 -1.23554 1.0611e-18)
(4.51845 -0.040256 0)
(6.04263 1.0499 0)
(4.00354 0.0627543 2.0206e-18)
(5.50568 0.335082 0)
(2.51926 -1.24527 2.94446e-19)
(3.68396 -0.638673 -4.27554e-20)
(3.72359 0.00987547 0)
(4.59993 -0.00702056 1.08468e-20)
(8.08831 0.516637 4.27235e-18)
(-1.26825 1.08791 2.70647e-18)
(3.94355 0.755721 0)
(-3.10239 3.0235 -6.8412e-19)
(2.38097 -0.274502 2.38739e-19)
(3.0514 -1.48332 -3.39596e-19)
(3.86783 -0.6513 0)
(4.56753 -1.86596 2.10936e-19)
(-3.35224 4.85357 6.79988e-19)
(4.15712 0.135211 -1.03489e-19)
(5.67621 -3.36913 -6.18357e-19)
(5.62031 4.56798 -4.77826e-18)
(6.16385 0.975855 7.34909e-19)
(3.62986 0.263633 0)
(3.65776 -0.624354 -3.99388e-21)
(4.71544 0.317441 1.56556e-18)
(-3.38387 4.41435 -8.26826e-19)
(5.26181 -1.20859 1.65152e-18)
(1.30167 -0.584655 0)
(5.17746 -1.8124 -5.89519e-19)
(-7.00704 2.63293 -4.97662e-18)
(4.33777 -0.00565719 -3.6344e-19)
(1.44318 -1.37645 0)
(3.02724 1.4235 8.61538e-19)
(3.97298 0.0374743 -3.64884e-19)
(6.63142 -0.330782 0)
(4.61732 -0.29987 9.11685e-20)
(2.91062 -1.38987 4.94381e-19)
(7.8216 0.152335 -2.43938e-18)
(4.59074 -1.67399 0)
(-0.833991 -3.01121 0)
(3.90583 -0.747349 -7.30174e-20)
(4.03515 -0.641475 6.52148e-22)
(-1.07632 -3.85492 4.52877e-18)
(4.39122 -0.239845 -8.50494e-21)
(3.9402 0.052819 7.73634e-19)
(4.95779 3.13997 -6.26051e-19)
(-0.739771 2.69256 1.49231e-18)
(1.83375 -1.04158 2.6434e-18)
(5.68992 0.699696 7.50636e-19)
(4.75329 -0.491017 2.7351e-19)
(4.80358 -0.565271 1.00565e-19)
(4.21543 0.012668 0)
(-5.98838 1.26477 0)
(3.50964 -0.535813 5.92485e-20)
(3.36543 -1.59548 -7.8352e-20)
(3.99855 0.0124521 -1.4079e-19)
(6.00072 -0.635588 7.20585e-19)
(6.07723 -0.623901 0)
(4.9501 -0.0185233 -1.89189e-19)
(4.70658 -0.270478 -7.69978e-20)
(3.93676 0.0296794 -6.94982e-19)
(6.0269 0.552434 -2.56372e-18)
(3.22917 -0.169997 -3.65098e-19)
(-1.70406 0.372943 1.18501e-19)
(4.17806 -0.593031 -5.64359e-22)
(4.26951 0.183981 -2.17394e-19)
(3.26858 -0.172815 3.6916e-20)
(4.63081 -2.08419 0)
(7.06263 1.37791 0)
(4.24173 -0.0293856 -1.5881e-20)
(3.1645 -1.03093 -6.23473e-20)
(3.20921 -0.279713 0)
(3.60547 2.71095 -2.3261e-18)
(0.211965 -0.856604 0)
(4.29907 1.77337 2.8698e-19)
(4.06843 0.629037 4.09752e-19)
(0.945057 4.35496 0)
(3.73744 0.577458 -5.6072e-19)
(3.40968 -0.487266 -8.77867e-20)
(3.77094 0.226968 -5.47171e-20)
(3.92196 -0.151956 -9.11937e-19)
(5.47058 -1.78455 0)
(3.18578 -0.349572 2.20411e-19)
(3.51819 -0.499556 1.18332e-21)
(4.00628 0.0329096 1.6054e-19)
(3.42904 0.0834862 -7.53861e-19)
(1.74142 0.883867 1.03462e-18)
(4.02226 -0.0662923 2.64672e-19)
(4.73222 -0.303205 1.77594e-18)
(4.42453 -0.241887 0)
(4.90296 -0.311869 -1.85855e-21)
(4.81031 -0.240735 5.38833e-19)
(4.00687 0.00747181 2.08803e-18)
(4.93256 -0.959491 0)
(3.76152 -0.203507 -1.17309e-19)
(3.02255 0.459914 0)
(5.24486 0.944751 4.19024e-18)
(4.21131 -1.01279 9.64119e-20)
(1.90312 -0.903377 7.38304e-19)
(5.16465 0.13612 1.58618e-18)
(4.01339 0.249813 0)
(3.64299 -0.617331 -6.32003e-20)
(5.29385 -1.81202 6.41348e-19)
(3.43163 0.0706274 7.10864e-19)
(4.87535 -0.216709 -1.73565e-18)
(4.49398 0.00145525 -2.86344e-19)
(0.213198 1.07228 -1.35758e-18)
(3.77116 0.45948 -4.83803e-23)
(4.53325 -0.107149 0)
(2.38598 -0.863199 1.72834e-18)
(5.85556 1.50959 0)
(3.48341 -0.497951 -1.7002e-21)
(4.52078 -0.0530771 -1.16992e-19)
(4.79837 -0.32447 -9.00584e-20)
(4.63992 -0.287187 8.42619e-20)
(0.353215 0.100953 -1.78857e-18)
(3.94858 0.0336012 8.61838e-19)
(3.47397 0.0436763 0)
(-0.986762 2.23636 -1.15072e-18)
(4.54471 -0.221776 1.33587e-19)
(3.28136 -1.00074 2.79373e-20)
(8.6687 0.393459 4.24569e-18)
(4.88405 -0.0414541 0)
(4.062 -0.278001 2.92585e-19)
(3.68429 0.131267 1.51248e-18)
(3.96731 0.0443712 1.11771e-18)
(6.71205 -0.505849 0)
(3.69592 0.0473267 -7.69024e-22)
(6.12013 -0.584656 -7.35462e-19)
(-0.170865 -1.04779 9.62465e-19)
(3.39736 -0.254361 1.70737e-19)
(4.5394 -0.214933 -1.26626e-19)
(4.47641 0.0100753 1.26295e-20)
(4.5231 -0.160437 0)
(4.47192 -0.60806 -2.3325e-19)
(-3.04013 3.61952 5.77864e-19)
(4.65986 0.745575 -2.38166e-19)
(3.99731 0.016924 7.6332e-19)
(3.05662 0.0275735 0)
(3.55828 -0.535963 -8.61511e-20)
(1.48368 4.62099 0)
(5.8315 2.59184 -5.91476e-19)
(4.36393 -0.0245829 0)
(4.94242 -1.27018 -4.54928e-20)
(2.9331 -0.413996 -4.00163e-19)
(3.05922 1.2496 1.94897e-18)
(-0.854701 -1.29895 -4.14944e-18)
(4.73364 -1.67581 0)
(4.45748 0.12244 -4.65972e-19)
(4.01817 0.269237 -5.73641e-19)
(-1.78074 0.305638 -7.95155e-19)
(-4.06955 3.88634 6.81178e-19)
(3.50241 -0.236899 -1.80356e-18)
(6.54967 -0.181879 7.32607e-19)
(4.10088 0.285524 4.53709e-19)
(3.24038 -1.02447 0)
(2.9252 0.31052 9.36439e-19)
(3.12069 -0.0813331 -1.18798e-19)
(-0.283261 -0.545187 4.23205e-18)
(-2.79854 3.05641 -1.99981e-18)
(-1.50915 -0.106261 -1.17984e-18)
(5.78082 0.64213 0)
(-1.84903 0.361927 0)
(3.77064 1.91083 0)
(4.32688 -0.105698 0)
(7.10444 0.00877338 -4.35815e-18)
(4.92571 0.986395 0)
(2.76421 -0.791694 0)
(3.49205 0.0376311 2.79039e-19)
(5.78816 0.740401 -1.01866e-18)
(4.48815 -0.16035 1.32906e-19)
(3.48757 0.390441 2.79656e-18)
(4.01142 0.025696 -2.87978e-19)
(4.11864 2.79464 0)
(6.36009 0.0458006 0)
(3.92489 0.0286608 7.46969e-19)
(3.99342 0.0335665 1.3037e-19)
(2.67665 1.29176 0)
(1.09663 -0.44884 1.40872e-18)
(5.25067 -1.25812 -1.87392e-18)
(1.16045 2.64881 0)
(4.52915 -0.0369028 -1.37386e-19)
(3.9899 0.0267776 -8.59762e-19)
(2.17506 1.64471 -1.53201e-19)
(2.36724 -0.850035 0)
(3.99786 0.266377 1.0421e-18)
(5.02587 0.469231 0)
(6.18475 -0.538734 0)
(4.30074 0.342761 -7.777e-20)
(3.9278 0.056113 4.19525e-19)
(1.35381 -0.118384 -1.8841e-18)
(4.39228 1.18184 2.06651e-19)
(3.00141 -0.819945 -6.12427e-19)
(4.31976 -0.0847122 3.26827e-20)
(4.11121 0.30377 3.63134e-19)
(4.86878 -0.618013 5.79368e-19)
(5.55133 -1.11652 0)
(7.34697 0.75651 1.6688e-18)
(2.92849 -0.308488 0)
(3.52736 -0.542916 5.1672e-20)
(4.54296 -0.0636671 0)
(3.09721 -0.0726293 1.10265e-18)
(-3.31023 -0.8117 -4.50907e-18)
(6.51164 -0.173896 0)
(-0.405397 0.23663 6.00738e-20)
(6.42635 0.0625463 -1.39573e-18)
(3.3024 -0.693944 3.39773e-20)
(3.81899 -0.563145 1.0462e-18)
(2.84545 1.1962 -1.27847e-18)
(2.9694 -0.820543 -1.82805e-18)
(6.28676 2.49276 0)
(3.19716 -0.178987 1.0622e-19)
(0.141411 1.22407 -3.33096e-18)
(3.99851 0.290127 0)
(3.74758 0.258938 5.92386e-20)
(5.41492 0.105037 -7.14156e-20)
(4.93794 2.08059 0)
(4.0049 0.00742722 0)
(-0.355936 0.625593 0)
(-3.68036 4.24387 3.76676e-18)
(5.07985 4.22835 7.4728e-19)
(4.80086 0.542448 -1.53733e-19)
(4.2495 1.71162 0)
(3.66501 -0.425367 9.56064e-19)
(3.60472 0.188901 9.19864e-21)
(4.39138 1.08908 -4.76098e-19)
(-2.74326 -0.109404 9.21061e-18)
(3.86561 0.170917 0)
(3.80216 0.507504 0)
(1.86232 -0.461284 -1.33396e-18)
(3.17834 -0.998685 -3.77935e-19)
(4.11881 -0.309247 0)
(3.78108 -1.77279 7.70167e-19)
(3.71123 0.04867 -7.14355e-21)
(3.73684 0.353346 2.16425e-21)
(2.07573 -0.979906 0)
(4.40961 -0.293043 3.22007e-19)
(3.18029 -0.0998995 1.01796e-19)
(5.02341 0.43018 1.74489e-21)
(4.18582 -1.07967 0)
(1.54604 -1.11268 -3.97751e-18)
(4.73045 -0.305195 8.38719e-20)
(3.99653 0.0897873 2.04055e-19)
(3.354 0.0409871 3.988e-20)
(4.87466 1.36944 0)
(3.44944 0.40327 -7.43791e-19)
(5.76563 1.01767 -4.21058e-19)
(-0.953771 -0.532192 1.73476e-19)
(4.01475 0.047028 0)
(-5.5574 3.16253 -7.28176e-19)
(1.38927 -0.402394 0)
(4.0157 0.0468342 -8.07048e-19)
(3.98896 0.0442279 3.08421e-19)
(3.8674 -0.0152004 -1.45272e-19)
(-3.52328 4.43101 0)
(4.94627 -0.0303557 -1.28513e-20)
(2.42688 0.521179 2.72973e-18)
(5.40995 -1.07673 0)
(3.44768 0.0103859 8.78279e-19)
(5.98271 0.253676 2.89354e-18)
(4.44256 0.005179 0)
(-6.73019 2.17142 2.16087e-18)
(3.97298 -2.00566 -3.28344e-19)
(4.52871 0.01138 0)
(-0.627331 -1.53311 2.23021e-18)
(3.72528 0.24852 0)
(3.98393 -1.74523 -2.13334e-19)
(-3.35742 3.26703 1.3514e-18)
(4.20529 0.579008 -1.57888e-21)
(4.76099 0.345756 1.34717e-19)
(2.92408 0.30146 4.86427e-19)
(3.80946 -0.601153 -3.76676e-19)
(4.72263 -1.50375 -2.14645e-19)
(3.99665 -1.71067 1.81722e-20)
(4.49221 -0.234457 -7.0132e-20)
(4.8544 1.35833 -1.21741e-19)
(4.95142 -2.05656 0)
(3.99682 0.00458398 -6.77117e-19)
(1.34607 2.93055 -1.62554e-18)
(2.99576 -0.318656 0)
(2.89201 -0.16097 -6.08498e-20)
(3.12994 0.0207156 0)
(2.75683 -0.860412 1.63733e-18)
(4.88013 -1.52116 0)
(3.48274 0.0221968 -2.34277e-20)
(4.57045 -0.0849133 6.15581e-20)
(-6.59195 2.17422 3.79826e-18)
(-1.03583 1.09792 2.1174e-18)
(4.74322 -0.0217324 3.15132e-22)
(4.1057 -1.89872 -1.52423e-18)
(3.95026 -1.03966 1.32633e-19)
(3.2679 -0.757646 0)
(0.14875 -0.397945 -9.37648e-19)
(5.57901 -0.799057 3.75644e-19)
(0.168931 -0.530705 -1.12995e-18)
(3.7342 0.419627 -1.71756e-21)
(3.21202 -1.25283 0)
(4.37818 -0.0144786 -5.90812e-21)
(1.24504 -0.500558 0)
(-4.35239 1.70772 8.58624e-20)
(2.15806 1.5466 1.09195e-19)
(5.24739 3.97092 0)
(4.60012 -0.882121 -1.58215e-19)
(0.40244 0.395693 0)
(4.9998 1.89737 0)
(3.71415 -1.70966 2.74282e-19)
(3.07831 0.399184 7.53434e-19)
(3.08029 -2.63723 0)
(3.69487 0.176667 -4.29984e-19)
(4.87 0.101143 -5.16672e-19)
(-2.78956 3.78952 2.51855e-18)
(4.8048 2.52788 0)
(4.26116 -0.0524563 0)
(0.540619 0.463853 -1.46265e-18)
(3.94967 -0.245287 0)
(5.16828 -0.0796182 0)
(-1.22732 4.71672 9.248e-21)
(4.47677 -0.553394 3.37959e-19)
(3.82091 -0.867239 2.1608e-19)
(6.36148 1.12728 1.10569e-19)
(0.313999 -0.500229 1.90968e-18)
(3.99302 0.0442101 3.4629e-19)
(3.33209 -0.817003 0)
(4.18612 0.794717 -2.10756e-19)
(3.11289 -0.555382 0)
(4.76639 -0.0164577 0)
(3.9887 0.122156 0)
(4.27442 0.307404 -6.34244e-20)
(3.88539 -0.151402 4.35204e-19)
(5.36749 0.314812 6.32406e-20)
(3.42775 -0.813201 0)
(0.483771 0.016172 -1.42582e-18)
(3.81756 1.81054 4.81089e-19)
(4.23481 -1.38735 -2.92157e-20)
(4.99528 -0.551798 -4.89021e-19)
(7.90653 -0.0195397 4.17132e-18)
(4.17742 0.0700991 -4.74332e-19)
(-3.3176 -0.52696 0)
(4.68673 -0.277417 0)
(2.93052 1.23543 0)
(2.81266 -1.24609 -1.08015e-18)
(-4.28049 0.339356 -5.72588e-18)
(5.11341 3.42079 0)
(4.23457 0.817991 0)
(4.48401 -0.557429 2.85004e-19)
(4.04778 0.000476637 -5.60181e-20)
(3.72105 0.959488 1.02156e-18)
(5.38541 -1.95616 0)
(2.39418 -0.179908 -5.52195e-19)
(4.51493 0.141534 2.49187e-19)
(3.10465 -0.927391 -9.60771e-19)
(4.32172 0.116303 -3.90922e-19)
(4.37367 1.09838 6.59536e-19)
(5.21376 3.82828 4.35923e-18)
(2.76598 -1.26241 1.88945e-18)
(6.18646 -4.52027 5.08223e-18)
(5.7317 0.497551 -4.28868e-20)
(3.99979 0.00545126 -1.58448e-19)
(3.51989 -1.57143 3.08281e-19)
(4.03956 -1.84367 1.41501e-19)
(2.88227 3.19669 -4.34554e-19)
(3.71254 -1.73143 -3.25939e-19)
(4.89918 -0.29386 0)
(2.98222 -0.844261 -2.27553e-20)
(4.29479 -0.051865 -9.17533e-19)
(5.40991 1.52962 1.94523e-19)
(3.05088 -0.865908 -9.14507e-19)
(4.18021 -1.33165 1.64298e-19)
(4.04324 -0.00525018 2.41096e-21)
(5.28029 -0.0752027 -1.36318e-21)
(2.60298 -0.708198 -2.83106e-19)
(5.67134 0.658148 -4.14049e-19)
(2.61453 -0.505636 -2.50512e-18)
(4.37869 -0.0142618 -7.70332e-19)
(2.59414 -0.609382 0)
(-6.58206 2.42404 -7.45165e-18)
(4.22154 0.0582581 9.20381e-19)
(3.04519 0.00602212 1.96042e-21)
(-1.24914 2.38452 0)
(4.48721 -1.95869 0)
(3.96115 0.678136 8.84572e-19)
(2.36651 -0.50603 1.62025e-18)
(0.0671734 3.76027 -9.42011e-18)
(4.99984 -1.25265 7.0446e-19)
(4.78392 -0.301742 -9.97656e-19)
(5.96672 1.42848 0)
(3.97269 0.74908 5.00376e-19)
(-0.962297 -0.194727 -8.35256e-20)
(4.53903 1.90561 -2.33444e-19)
(4.2238 -0.438989 -1.85713e-19)
(0.581907 -0.857899 -3.07718e-18)
(7.71855 -0.360941 -3.76293e-18)
(7.6012 0.708736 7.18512e-19)
(4.13269 2.07153 0)
(5.90607 -1.47834 -5.11775e-19)
(3.89159 -0.0185242 1.26875e-19)
(3.64063 0.125367 -4.131e-21)
(2.17709 -1.05148 1.89474e-18)
(4.1688 -0.453679 2.89122e-19)
(3.55421 -0.433269 6.08061e-20)
(-2.58027 3.27208 -1.39523e-18)
(5.65402 -0.306598 -6.33685e-19)
(4.33749 -0.0309521 6.8937e-19)
(-0.0920023 1.99117 -1.86823e-19)
(4.39636 1.76533 7.01886e-19)
(-0.175326 -1.40951 -2.42591e-18)
(2.65474 -1.28158 -4.18093e-19)
(3.69908 0.111656 0)
(4.97599 -0.404933 2.58122e-19)
(-2.15801 5.22751 -1.11429e-18)
(2.92536 -0.460574 2.13933e-18)
(4.49586 0.425278 0)
(3.1633 -0.365709 4.30029e-19)
(2.67879 -1.11643 4.59853e-19)
(3.99362 0.0277497 -1.49658e-18)
(1.08939 -0.461265 -1.34901e-18)
(3.12202 -2.49487 -7.70738e-20)
(4.49813 -0.144663 -9.84604e-20)
(4.43603 0.131017 6.94711e-19)
(4.06244 -1.7701 4.57548e-19)
(5.46863 0.333787 -1.04239e-19)
(-4.04656 1.04631 -1.40854e-17)
(4.26258 -0.0401247 8.61216e-19)
(4.29669 -0.0770149 -1.54207e-19)
(4.20293 0.16093 -1.44821e-20)
(4.71149 -0.0166999 -2.00713e-19)
(2.59347 -1.1418 -8.94441e-19)
(5.63286 0.531716 0)
(-4.74077 3.52986 3.49796e-18)
(4.24259 0.0820244 9.22093e-20)
(2.71967 1.59336 6.46774e-20)
(4.84277 0.106303 1.51988e-19)
(4.72398 -0.428288 5.00193e-19)
(4.00018 0.0216115 -1.29566e-18)
(4.09592 0.523229 2.79355e-19)
(1.02427 -0.466363 -1.44679e-18)
(5.27613 -0.075075 0)
(3.564 -0.543967 4.53165e-20)
(4.82205 -0.366404 9.2075e-20)
(3.23436 -1.21937 0)
(4.18668 0.118226 5.6145e-19)
(4.8969 -0.333305 9.31485e-20)
(5.1926 -0.0540051 8.381e-25)
(7.06513 -1.1789 2.79715e-18)
(4.47952 -0.578005 0)
(3.58856 0.484417 1.41047e-18)
(3.68949 -0.449048 -8.71742e-20)
(3.57857 -1.68551 -3.78317e-19)
(4.23232 -0.288484 0)
(3.0773 0.33356 -2.15944e-18)
(0.519048 -0.832639 -5.4334e-19)
(4.3982 2.57034 -1.23492e-20)
(2.63916 -0.543535 2.39909e-18)
(4.68906 0.0454398 -6.16929e-20)
(-0.645266 0.964661 1.54373e-18)
(4.05572 -0.212342 -5.1418e-19)
(6.92448 0.697847 -1.9316e-18)
(3.66759 0.146453 -8.87038e-19)
(4.48762 0.0523314 0)
(4.00324 0.0126636 -5.92282e-19)
(3.44188 0.350126 2.14081e-17)
(-0.64909 1.3929 0)
(8.33487 1.9631 0)
(3.64693 0.126114 0)
(-0.107388 -0.843729 0)
(4.03077 0.495103 0)
(2.49511 -0.484359 0)
(6.35294 -2.85455 -4.45678e-20)
(4.91201 1.19171 2.18702e-19)
(4.95232 0.766836 0)
(3.5625 0.448204 2.15351e-18)
(1.53888 -1.70196 6.95121e-19)
(4.09281 0.306849 1.19826e-20)
(-1.89804 5.24203 -4.09457e-19)
(2.47967 -0.103886 8.31383e-21)
(1.0462 -0.50976 1.22442e-18)
(3.73572 0.0125707 2.16624e-20)
(5.48797 0.207558 5.34166e-20)
(3.99043 0.457513 -5.86456e-19)
(3.8 0.205857 -1.22851e-18)
(3.72879 1.66239 -9.45668e-19)
(6.034 2.40053 0)
(-4.26858 1.61102 2.56142e-18)
(2.81705 -0.909449 -1.79726e-18)
(4.02046 0.0172112 -1.77737e-18)
(5.59061 -0.937047 3.49581e-18)
(4.49287 0.0147597 5.56598e-20)
(6.70334 0.198317 -3.74623e-18)
(4.50986 -0.353331 4.7133e-20)
(4.60579 -0.847931 5.56842e-19)
(4.02232 0.242346 6.00096e-19)
(3.48216 2.46651 0)
(4.62767 -1.31595 -1.76214e-19)
(3.53239 -0.0137338 -2.65809e-19)
(4.78078 0.958212 0)
(3.96917 -0.662378 0)
(4.31059 -1.86839 -2.80235e-20)
(-1.91566 1.50102 1.74918e-18)
(6.17109 -3.21072 -2.62626e-18)
(3.73629 -0.15644 0)
(3.97096 -0.14578 -8.18379e-19)
(3.67638 0.260141 -2.41206e-19)
(-5.66895 2.69416 2.11011e-18)
(5.02758 -0.211372 1.66014e-20)
(0.982426 -0.560665 0)
(-4.32886 1.56049 2.53716e-18)
(5.05574 -0.270964 0)
(5.85375 -1.62445 5.60333e-19)
(3.94181 -0.266053 -1.80692e-19)
(4.00761 0.000221887 1.29228e-21)
(4.48807 1.23156 -9.91416e-19)
(4.83627 2.33018 -8.45618e-20)
(3.84734 -1.00273 3.80626e-19)
(-4.03634 2.62624 0)
(0.767754 -3.16023 -1.34998e-17)
(1.24541 -3.85786 0)
(5.05879 0.767786 -2.85584e-20)
(-5.56582 2.7179 4.3626e-18)
(9.22766 2.02075 4.88861e-18)
(3.60494 -0.552604 -4.6221e-20)
(-2.97698 5.08154 -3.95746e-18)
(3.22411 -1.56011 4.38985e-19)
(2.8974 -0.912395 -9.7152e-19)
(3.11479 -0.11107 4.19444e-20)
(1.75174 -3.13195 1.1047e-17)
(2.64462 -1.17139 7.42991e-19)
(2.99715 -0.956942 1.02933e-18)
(-5.13278 1.00788 6.37057e-18)
(3.91036 -2.13695 -6.65586e-18)
(4.12144 -1.15942 -7.29613e-20)
(-1.3713 -0.666256 4.23472e-18)
(5.31082 0.101525 -4.56334e-20)
(1.46495 -1.83821 -5.65281e-19)
(4.48351 0.779092 -2.8354e-19)
(5.1365 -0.494447 0)
(-0.207966 -0.582243 -1.94238e-18)
(4.18303 -0.042967 -1.02545e-18)
(3.9796 0.139848 0)
(5.01249 0.728562 0)
(-1.3776 -3.27897 -6.69969e-18)
(6.38323 1.62975 -1.21122e-18)
(4.69102 0.456397 -4.57484e-19)
(4.4586 -0.555553 -4.53507e-19)
(3.72354 1.597 8.1234e-19)
(3.01287 -0.0233242 -3.13119e-20)
(-5.09106 3.06161 -1.63236e-19)
(3.53065 0.970099 0)
(3.05034 -1.00726 9.5315e-19)
(-1.42696 -1.62568 3.59854e-19)
(-2.92 4.815 3.06015e-18)
(3.85925 -1.38859 1.59515e-20)
(4.92541 -2.19712 1.28261e-18)
(3.68481 -0.0282549 1.69326e-20)
(3.77578 -0.547987 3.01669e-20)
(6.56692 -0.674822 1.91905e-18)
(-4.79086 3.17887 -2.39679e-18)
(4.6539 0.444495 3.44707e-19)
(3.9634 0.0231377 4.20116e-19)
(2.57876 -0.614796 -9.89467e-19)
(3.96017 -0.210735 4.77563e-19)
(1.98816 -0.684129 0)
(4.64119 0.75833 4.31029e-19)
(4.00252 0.0279425 9.4833e-20)
(3.21827 -0.705612 -3.121e-19)
(3.30583 2.90542 -3.29431e-19)
(4.0488 -1.14532 3.29698e-20)
(4.26449 0.0424821 1.53735e-19)
(2.94694 0.0275805 -1.58069e-18)
(4.88995 0.833638 0)
(3.59067 -0.500413 -9.63078e-20)
(4.35717 0.164026 5.32668e-19)
(5.23617 -0.609729 0)
(2.99991 -0.156291 8.6193e-19)
(5.07582 -0.209759 0)
(3.18639 2.84548 1.55455e-18)
(5.04962 -0.0331143 0)
(4.63477 -1.47544 0)
(4.75397 -0.105739 2.18032e-20)
(4.65269 0.346231 2.89461e-19)
(5.60425 0.770957 -5.65557e-19)
(3.87439 0.144895 -5.61595e-19)
(3.03374 1.87005 -5.96077e-19)
(3.98647 0.103244 -2.57811e-19)
(4.07493 0.5129 0)
(1.11345 -3.03185 -2.85226e-19)
(4.85377 0.346625 -1.22451e-19)
(5.70032 -1.64076 -1.10258e-18)
(5.09408 -0.500366 0)
(5.48676 1.51008 3.40018e-19)
(3.85908 2.79377 -4.83375e-20)
(5.27868 0.0830373 -1.9373e-19)
(0.0523984 5.72413 0)
(-0.696668 4.93478 1.08097e-18)
(4.05418 0.230943 0)
(6.44126 -0.492393 -8.91755e-19)
(-0.97706 0.892137 0)
(5.27086 -1.34033 0)
(5.3347 -4.57297 0)
(4.73238 -1.53527 0)
(0.921521 1.03891 -2.49553e-19)
(-3.94794 4.27464 -8.64165e-19)
(3.87361 -0.124655 -6.59078e-19)
(-6.75201 2.13973 -4.65739e-18)
(2.80588 -1.21326 0)
(-5.99206 2.09711 -3.48534e-18)
(-1.49436 1.42762 -2.65447e-18)
(3.51555 -1.61766 0)
(3.24338 -1.14283 -8.42813e-19)
(3.1723 -0.553256 -3.85447e-20)
(4.45981 0.750276 7.20861e-19)
(6.348 -1.33725 -2.21911e-18)
(3.77759 0.181939 0)
(5.23927 -1.16029 0)
(6.03481 0.691131 3.49092e-19)
(4.04342 -1.63894 2.78866e-20)
(3.28487 -0.204295 -7.54214e-20)
(-0.794784 -3.87395 1.58815e-19)
(3.99751 0.000908513 4.39819e-20)
(5.13481 -0.254242 3.29678e-20)
(4.01528 0.237579 8.62939e-19)
(3.54485 -0.491235 4.91756e-20)
(4.18959 -0.974538 0)
(2.65844 -0.0194201 0)
(5.43481 0.324788 0)
(3.25033 0.0415667 0)
(3.75694 -0.67861 2.88812e-19)
(5.74294 0.419524 0)
(-0.280436 2.05238 2.07862e-18)
(4.36019 4.47874 6.63514e-19)
(2.94546 -0.981814 -1.5841e-18)
(1.35702 -1.49519 -3.73078e-19)
(-4.7867 3.40233 -1.78376e-18)
(-0.294322 1.4084 -9.84749e-19)
(4.1698 0.0689072 1.20281e-19)
(-4.37207 3.46273 -1.87426e-18)
(3.52776 -0.482832 8.52963e-20)
(4.83137 -0.0823088 0)
(4.82661 0.0677678 0)
(2.51418 -1.35603 0)
(4.74831 -0.459406 -2.89502e-19)
(2.94141 -0.585256 0)
(3.58281 0.955604 0)
(4.00374 0.00173386 0)
(3.86728 -0.886782 1.97555e-19)
(4.1119 0.300626 -9.09386e-19)
(3.23646 0.0620047 0)
(6.75048 -2.53091 -2.1173e-18)
(3.94352 0.233105 -7.5102e-19)
(4.57942 1.73502 4.70248e-19)
(3.54065 -1.61984 1.97073e-19)
(3.70152 1.08959 9.27504e-21)
(3.93808 -2.38238 -3.4272e-20)
(3.86393 -0.728568 7.23052e-20)
(4.82313 -1.92945 -4.7343e-19)
(4.6115 0.348852 -3.84637e-19)
(3.25603 -0.158253 -1.73313e-19)
(3.74649 0.0290758 -7.7909e-19)
(4.23871 -0.0380336 0)
(2.64002 1.45956 -6.25955e-20)
(3.96448 0.0334447 8.09893e-19)
(-0.659347 -0.853932 -4.09299e-19)
(4.48878 -0.348933 1.03896e-19)
(2.42477 -0.544425 -1.77515e-18)
(4.63701 0.318784 6.40465e-20)
(5.80712 1.12119 6.02441e-19)
(3.99041 0.0926733 0)
(2.75524 -0.76925 -7.5118e-20)
(3.74146 -0.250856 -3.68879e-20)
(4.9337 -1.93666 1.05729e-18)
(-3.78823 0.219917 -1.02097e-17)
(4.14264 0.0216465 3.2129e-19)
(5.64907 0.411192 3.74101e-20)
(4.70099 0.057333 4.73405e-20)
(5.32505 0.353638 0)
(1.4274 -0.7934 0)
(3.28082 -1.55288 3.96115e-19)
(0.770612 -0.247223 1.44756e-18)
(3.68977 0.0708306 4.18659e-22)
(3.97375 0.041644 1.60083e-18)
(2.84431 -0.795052 2.42702e-19)
(3.0389 0.287243 0)
(3.69915 0.0394472 0)
(3.49215 -0.790561 -3.45685e-20)
(4.61107 -0.0449285 3.73426e-20)
(3.7793 1.04743 1.42196e-18)
(4.37413 -0.103147 0)
(4.74424 0.0527374 0)
(4.7551 -0.935693 -1.30071e-18)
(4.18498 -0.278615 2.54157e-19)
(2.50797 -1.50001 -2.66635e-18)
(4.3864 -0.384615 0)
(4.93693 -1.27838 6.87557e-19)
(8.22319 -2.01688 -1.00807e-18)
(-2.14845 4.94652 -1.18819e-18)
(4.13848 -0.0632264 -5.89897e-19)
(5.13569 1.0061 0)
(6.56958 1.55762 1.00982e-18)
(0.843477 5.5134 -4.89002e-18)
(1.09847 -0.280561 0)
(3.27993 0.0439657 -1.22673e-19)
(3.88908 0.0970477 -5.55627e-19)
(3.53654 0.0356128 -7.13982e-23)
(3.91499 -0.0987915 9.10126e-20)
(2.60143 2.50148 7.53156e-19)
(4.15745 0.0387618 0)
(2.41585 -0.906815 -2.64806e-20)
(2.64502 -0.760583 -2.2768e-19)
(1.70429 4.79477 -6.29417e-19)
(4.01462 0.454909 6.97888e-19)
(-3.1689 3.2332 1.75352e-18)
(4.19505 0.0285907 -1.41608e-18)
(3.44153 -0.417229 -2.84976e-20)
(3.7103 -0.645983 4.69711e-20)
(3.7678 -0.81402 0)
(3.69541 0.0158886 -2.38152e-19)
(2.57943 -1.19709 5.88944e-19)
(4.51181 -0.0783565 4.88619e-20)
(4.00607 0.0294859 -7.08868e-19)
(6.3444 -0.614445 7.50461e-19)
(3.5567 -0.42808 1.5334e-18)
(5.13999 0.0983301 5.41007e-20)
(3.66345 0.0639047 4.85899e-19)
(2.8957 -0.209481 -2.04026e-19)
(6.21256 1.18671 -1.20056e-18)
(4.42081 1.90438 4.76183e-19)
(0.152846 4.21905 7.56523e-18)
(3.86953 -0.0142647 0)
(2.81534 -1.19161 0)
(6.91016 2.05986 0)
(2.94103 -0.924934 1.24546e-18)
(4.18724 0.0667095 -1.13428e-18)
(3.65088 0.27459 0)
(3.30725 -0.739522 -8.51995e-19)
(3.65123 0.212372 0)
(3.77231 -0.601554 -4.65389e-19)
(5.64803 -1.75048 -1.27671e-18)
(4.11626 -0.929366 2.56195e-20)
(4.24131 0.0386246 0)
(3.97463 0.0123613 0)
(5.28592 -0.645766 4.5296e-19)
(4.91707 0.651175 -3.98751e-21)
(5.64083 0.100833 4.84223e-19)
(4.11029 2.98378 -3.33133e-20)
(4.1583 -0.0586542 0)
(3.88471 -1.34663 -8.52887e-21)
(-0.624884 1.30886 0)
(1.97848 1.32796 -1.1172e-18)
(4.87026 2.3467 0)
(5.57393 0.427366 -6.4026e-20)
(2.61068 -0.480138 6.61287e-19)
(3.27662 -0.382525 5.57398e-19)
(4.03726 -0.416796 -4.50789e-19)
(5.14688 3.80412 -2.13317e-17)
(4.14139 -0.334123 6.45316e-19)
(4.04382 0.487844 -1.23509e-20)
(6.77801 0.436602 4.35484e-18)
(4.31985 -0.725045 7.96996e-20)
(-0.348149 0.871633 9.56343e-19)
(4.95372 0.984614 0)