/*--------------------------------*- C++ -*----------------------------------*\
| =========                 |                                                 |
| \\      /  F ield         | OpenFOAM: The Open Source CFD Toolbox           |
|  \\    /   O peration     | Version:  2306                                  |
|   \\  /    A nd           | Website:  www.openfoam.com                      |
|    \\/     M anipulation  |                                                 |
\*---------------------------------------------------------------------------*/
FoamFile
{
    version     2.0;
    format      ascii;
    arch        "LSB;label=32;scalar=64";
    class       volScalarField;
    location    "4.7";
    object      p;
}
// * * * * * * * * * * * * * * * * * * * * * * * * * * * * * * * * * * * * * //

dimensions      [0 2 -2 0 0 0 0];

internalField   nonuniform List<scalar> 
13486
(
15.4155
14.1499
5.00626
-15.0033
-1.85664
2.94981
-8.9478
4.05075
8.24965
10.1453
-17.1852
5.13595
15.9359
3.61438
-2.77996
10.5139
-27.2622
-30.0334
4.96826
14.2566
-28.4714
15.72
13.9498
-2.27925
8.9173
-4.48412
-18.6132
2.338
1.7588
4.32036
-49.4931
-1.21723
-3.09976
5.31847
4.15379
0.536717
2.11476
10.5117
-5.76843
8.98576
-12.6566
16.5785
1.70211
8.83721
8.76649
5.243
-47.7236
0.859016
2.09621
0.166473
10.7694
-3.15614
4.39039
11.0235
-39.86
-1.19433
2.25448
-3.86893
-3.5474
2.18989
-15.9143
2.25202
-17.968
-29.2176
-69.9296
2.16474
-13.2717
16.3681
8.09137
1.17873
-11.8522
-32.7073
10.0712
-19.1464
2.2259
2.29088
2.20975
-3.27683
-48.8263
-54.6627
0.30995
14.6814
-19.1532
5.39782
15.4274
14.8688
-5.93391
10.5022
12.0994
12.0289
-0.288469
2.39288
14.3254
14.1909
8.13031
0.307913
-18.0649
-10.0691
9.05971
-27.6108
0.526739
3.99794
-11.6087
-3.29832
16.3525
-28.4177
11.3781
-9.51557
-47.6273
0.634589
6.71766
-5.93233
11.0132
2.04584
19.1283
6.83002
9.20822
5.71157
10.1664
2.04644
-29.523
-16.3613
9.05621
-9.25204
6.53521
-2.80028
4.74845
5.96684
5.28288
-68.6365
-2.68004
-46.8597
-15.6235
-19.826
10.9821
11.2297
22.3558
0.880214
2.00908
4.94335
-2.29249
4.83095
2.33669
-55.5035
2.64318
-12.6297
6.7788
22.2087
-0.285543
0.308187
8.64567
-4.71784
0.254112
15.0049
6.51099
5.01786
-2.26385
-10.5454
8.76046
2.82255
0.886327
8.76246
-6.69539
16.3225
-3.49876
1.83794
4.79147
22.8267
6.94422
-19.811
-18.0634
6.53797
9.53351
3.0115
0.431894
-19.2929
3.48196
-3.82996
11.3474
2.52499
7.94226
1.99424
2.39723
-5.94794
6.06304
2.18387
0.512962
5.06072
-11.9558
8.16469
2.09105
3.84868
-7.09054
17.7715
-8.76635
-17.7992
-74.9147
1.1119
12.7356
2.42168
-52.6616
5.87453
10.4687
-4.56147
2.93743
-9.02001
-40.0835
11.4165
-7.2955
5.91727
3.64388
-5.42432
14.1136
11.3906
2.89465
13.1397
3.63843
12.0163
13.2771
-7.49891
-27.9738
-0.472457
5.31489
0.908891
5.56462
14.0736
1.45328
-54.4413
4.1422
-7.81495
7.85636
-28.9001
-2.58607
17.1729
-23.1953
13.342
5.70388
4.11507
13.6196
3.87009
-3.27492
9.47849
2.43781
12.4092
-9.80257
12.734
4.9222
-1.20879
-20.9693
9.35386
-2.71447
19.4184
5.93175
-13.3379
-29.0368
-17.489
-1.01087
9.12152
-14.5916
-2.8952
13.061
-5.74002
-2.69
-16.9082
-1.94852
-6.21415
1.51854
-45.373
9.93278
-10.3221
15.2472
11.3473
3.11499
5.48416
14.1847
-0.299759
-25.8273
-106.457
-19.0276
7.37123
-100.283
6.8802
11.6059
-5.58309
-15.293
-24.4993
-2.86886
4.86754
5.90968
10.0342
-23.4187
1.22798
7.90612
10.9942
5.90476
5.39903
0.861421
5.95851
11.6734
-11.1484
-7.3166
-39.2041
7.14941
-1.25193
1.98467
-5.86758
-25.2601
4.82704
-14.6268
2.11477
-10.9962
-15.257
5.19966
-5.55178
-13.098
11.3814
1.25882
12.1626
11.5647
3.2059
2.11757
0.529467
11.3096
14.3929
21.8546
-0.493881
2.30069
6.68084
6.56606
1.44623
10.5447
1.73602
-1.09684
16.4622
-8.85932
7.34328
19.381
-4.21883
9.14689
-7.12842
3.32438
14.3204
0.971909
2.35346
-6.99301
0.7842
4.72546
18.4966
-7.62882
0.768374
5.3782
6.4338
5.67359
-16.6124
11.6004
1.29928
-18.7135
4.7718
-16.258
-8.36432
4.87562
0.42105
12.8981
11.3765
3.64862
0.0702152
5.68992
-41.8213
14.4315
4.94817
1.35575
4.92437
5.99588
-3.40431
3.49236
10.8155
11.3538
-1.0127
-12.6804
-11.3195
9.63688
0.868613
16.6979
15.4188
-42.3542
-14.7148
4.6153
9.04038
-25.4251
-35.68
13.8032
2.80468
7.5315
13.9055
17.1654
2.01476
-15.3172
-2.55836
-26.7379
-2.98301
-25.8629
9.19085
8.43033
-25.6577
-8.30195
4.79689
14.0762
-3.61181
5.45398
13.7751
8.70824
3.9272
1.64283
11.7275
11.3026
17.5009
-4.9251
-1.60555
-18.6165
3.86826
11.3724
-18.9499
18.5999
9.3925
1.03494
5.46984
5.83176
11.6532
-19.306
5.17769
15.7243
8.52412
7.42892
6.27855
-3.88238
-3.2366
16.8098
0.629028
3.1542
16.1346
-33.9995
3.30494
-19.7192
1.54419
0.0536405
11.2541
16.7855
15.8368
-11.3418
2.03641
-7.60118
9.28206
12.3061
0.212478
-0.670861
11.3078
-0.0657443
-22.5718
-6.58333
-11.1934
5.55332
12.6483
0.473203
5.25102
-22.668
11.6426
0.653832
21.1398
14.2272
9.44413
2.97591
0.852941
0.707876
19.2749
1.98652
2.01422
0.945983
7.40037
-25.3967
5.97526
9.71666
1.63821
0.980152
13.937
-6.08351
-27.3876
9.32076
-35.816
22.6287
9.39066
10.8313
12.0067
-17.4028
5.67957
19.4312
-3.22147
14.2786
-10.2401
6.38149
-43.7836
-73.8281
1.73502
-28.7926
12.4192
6.69129
-3.84812
-0.193715
2.67317
17.1846
11.2797
-16.6611
7.02115
5.15734
1.22648
-2.13821
10.84
-17.7904
16.549
2.12348
1.17963
16.7247
0.945035
0.440072
5.57354
-51.749
-0.85851
4.5531
-0.362667
9.24525
14.3582
-11.1559
-4.13486
-11.234
0.631676
13.3246
5.99109
-4.97571
-11.347
-20.2186
-15.9776
4.07983
-75.6717
-0.668915
7.02411
16.2267
-35.0677
12.8194
-13.2527
-3.90847
-2.22977
7.314
-9.32338
11.0862
5.6255
-16.452
5.74264
10.4749
-2.43458
-9.96066
10.8565
13.78
7.12135
15.6203
5.51174
9.40772
5.88338
11.594
2.42884
13.268
-17.3074
9.21407
6.47088
4.99939
-0.807457
11.1702
-31.9906
5.68321
16.5353
15.4959
-112.641
-16.0908
6.86471
4.3373
8.76123
11.1118
-7.5864
-15.9942
4.12682
14.7771
5.3941
5.38584
-12.8536
15.5764
-14.5684
2.02321
11.2152
2.33628
-70.9692
12.3604
4.23011
6.49794
1.29804
7.1034
-3.43305
15.2779
6.95027
5.71526
6.6532
4.62396
-2.93912
18.1566
6.5553
18.016
-54.5163
10.3939
0.714198
-19.2276
-0.515905
9.24632
19.2184
-45.0608
0.424831
1.82562
-8.39687
9.24806
-34.6887
2.83686
8.48679
-9.82352
1.44392
-1.2141
6.05725
9.62798
11.9299
0.355039
16.9585
8.69467
2.61314
-3.24365
3.66483
6.66057
-15.3226
4.18591
-28.0532
13.2825
0.0594062
2.22266
-13.9339
16.7143
0.387656
-5.35486
16.5247
10.8076
-3.1184
-38.0276
5.19752
4.74558
6.17047
2.42753
-106.164
7.01723
8.80661
6.46461
7.62256
16.7968
2.20424
-25.2726
11.13
-17.1703
2.74701
2.90933
9.88014
7.8549
-3.80479
5.66396
-1.00146
6.55364
13.2938
6.5237
6.6761
5.4382
-14.9542
-6.82593
12.9572
2.73276
5.52533
8.57954
16.2536
-24.441
1.91383
17.9672
1.28445
0.0832496
10.3762
-0.977467
13.0097
2.63113
11.2176
-30.5953
-19.1236
-4.83176
0.29018
-27.5511
8.65449
18.6445
17.4378
-8.81129
1.0971
13.1491
-12.3133
7.70617
-14.7475
19.0892
-3.40528
5.30043
-0.00391453
8.99748
12.091
10.1791
-9.61396
-29.5455
16.4757
11.4
-4.48549
8.90852
-15.2084
5.26518
4.00979
8.91754
-16.8092
-19.2463
13.8077
-7.80759
-15.1731
3.76035
-1.35143
14.5729
-0.755228
11.1423
12.738
-32.0635
6.11334
-2.21564
-27.8852
6.34774
9.90483
-0.0693853
11.198
4.72187
-1.10697
10.1696
-53.2241
-100.01
-39.728
0.359688
-26.7389
-6.92199
-2.16574
-16.9222
6.16719
16.0483
2.02551
-96.2977
16.5224
15.3507
-110.74
-58.2032
7.87564
-36.3666
2.84031
-15.8209
4.61422
-1.10539
-27.4503
7.65436
9.47645
0.739217
-116.985
-3.1365
3.08389
5.92247
10.2838
5.74216
-22.1482
12.5725
14.7834
-33.485
-16.6585
9.08151
-6.85674
6.60477
-7.68315
5.17301
-20.8575
3.20515
11.5602
18.1589
11.069
3.87664
3.4196
11.3279
14.6221
10.0848
8.39717
10.8794
17.113
-7.75238
-0.984393
5.27238
3.96982
16.4671
6.13016
12.8092
6.25902
-22.8051
5.23537
3.42836
-3.4611
11.5795
14.9798
9.65126
8.20373
-40.793
2.11553
8.59504
-1.16806
-3.90463
5.87893
2.54837
-17.5619
-15.8111
8.38808
5.03236
-20.6157
-28.3586
-24.5727
2.01169
-18.7596
-25.3911
11.7052
-51.1329
15.6253
-66.0536
-20.6715
9.89031
13.5253
2.26705
4.78125
-10.1519
12.2589
-1.25443
-10.0066
-87.8219
2.02735
-108.858
11.2248
2.35783
8.88358
0.0642229
7.54875
-19.6582
2.46947
1.29701
11.5006
-0.926254
-17.3969
-14.2678
15.5959
-11.7111
-30.765
-20.2055
10.8072
-13.6929
0.698952
5.34812
-0.9585
-5.68968
2.76908
-62.4809
12.369
11.2819
10.2983
7.8063
0.868694
18.2164
10.2076
2.94063
10.1887
11.2251
-54.0591
-17.3721
-4.07239
3.61796
2.0335
12.6519
7.29777
-17.1938
11.397
-31.6475
5.55577
18.9394
3.39231
-6.41049
9.4871
4.68119
-0.46715
-5.58174
-23.1287
10.7602
2.25402
1.39707
2.35776
-8.95659
11.5771
-2.46972
0.129773
11.4158
4.60344
16.4937
12.8554
12.9608
5.18352
10.8214
2.68232
4.78869
2.70333
9.1102
-27.0514
4.71999
-29.8894
11.9938
-13.0496
10.3427
-8.54081
-3.41949
-16.7149
-26.6761
1.56961
11.7574
1.2299
-1.51346
-19.7864
11.3287
18.2717
5.20828
-11.2038
8.89993
-45.1022
10.5588
2.64434
-7.8911
10.923
-5.62229
16.839
5.74169
11.306
4.75715
13.2431
2.89671
12.9524
2.10113
-2.74997
3.60091
-42.0965
5.33225
-8.2558
-23.3958
15.8201
11.3261
12.9319
14.1219
13.0483
11.5753
13.3504
8.19275
11.3686
11.4932
3.92377
1.42953
0.400467
3.94251
0.632467
9.09569
-19.2209
21.5886
-1.44402
2.31286
18.1613
14.9498
4.994
-22.8807
9.36935
8.58808
-16.5214
6.90224
-19.4849
0.941047
11.2936
13.5184
-9.16586
8.78014
13.1405
0.176998
1.01904
13.6725
4.27709
2.04705
-14.2558
5.42853
-3.1797
11.4928
13.9881
1.92824
-57.3854
3.31932
-0.0913312
-0.700124
5.29491
16.1123
-2.12875
20.4553
10.4447
5.09291
11.5971
-3.54539
-16.4476
-13.2066
10.8169
-7.49248
-18.8137
-61.2423
7.99416
9.35929
-3.5732
1.25006
-34.8606
-0.316639
-7.14601
-0.16822
6.56528
3.05679
12.4204
11.6381
12.6515
8.6974
4.92423
-1.99459
-1.0055
5.57403
-107.108
10.0182
6.36485
-61.9626
1.17715
1.91164
-6.55569
-15.4314
6.12005
8.79122
3.89082
2.18784
2.89175
-0.442757
-1.79768
6.21055
-6.18761
8.7903
9.90533
11.5513
-20.4294
10.9154
2.44924
14.3316
6.67504
8.4065
-8.22288
3.05609
16.7703
19.8432
7.32531
-2.19187
9.71421
6.60407
16.8964
1.89699
-2.39009
-14.1094
5.5474
0.859988
-41.4817
11.2874
10.1528
-4.34881
-8.89048
3.60266
8.71415
18.9139
-10.0353
10.4433
-27.1987
13.2123
15.8418
2.54726
5.20058
-117.098
14.5096
4.83499
20.0053
-1.38437
0.726758
8.09154
6.08089
-8.49211
-18.9008
-27.1406
12.9383
3.0421
-1.60217
15.4002
14.4673
-6.94619
-9.79007
-1.1647
5.77183
9.67221
9.72434
13.2528
5.72311
-19.3473
14.228
5.63752
-8.88415
3.38212
12.2789
11.2622
-9.97041
-23.2994
0.656201
10.6744
16.1681
5.17552
-6.04141
-3.27074
19.0253
-28.1756
-2.28119
17.0598
10.7803
4.21583
5.66599
-14.7897
0.617691
5.58165
-25.4607
-3.99564
-11.7091
4.39493
17.1898
-35.058
-27.5418
-27.3365
-15.3374
-26.2282
-2.6704
17.9015
11.4494
-2.52382
-36.3395
-1.3952
5.65176
5.33339
20.3334
1.24248
-0.403735
10.807
12.5521
-12.1497
3.674
3.31983
10.185
20.9314
0.556085
1.53629
-3.01229
6.04001
1.97426
6.47411
1.03911
14.3365
10.9575
11.8778
-52.3152
-90.4166
3.14038
8.014
11.3322
7.99153
11.6786
19.2426
17.8076
12.9995
10.8194
13.6545
-0.341435
13.1263
-0.610227
17.4854
13.0197
4.33688
12.9325
8.36378
3.48306
4.19632
12.4532
-1.85948
7.2609
-4.34584
0.705745
2.96741
10.4503
-0.616412
0.885456
16.6862
16.4643
2.65424
-19.5388
5.21547
-15.0629
-5.2017
11.1046
14.4406
-19.8286
11.5559
7.53266
3.89898
8.0325
-10.7123
-127.073
1.89812
20.4974
-4.8075
0.69864
13.7498
2.76845
2.35717
8.03496
5.52586
10.2036
-5.64254
4.60222
5.77179
3.95844
1.40765
2.9523
18.4129
14.8385
10.7932
22.9229
16.3498
-0.724663
-1.3986
-43.2392
-2.12648
16.6553
-69.1595
9.34063
6.54429
-3.65472
-0.0893646
11.441
-21.368
4.18531
10.2791
21.1146
-16.0333
4.09914
3.84467
9.15893
5.01495
-27.2908
16.2541
12.7368
7.73211
10.7773
9.24452
-5.11308
-29.6537
17.732
2.12325
19.8691
-21.8745
-4.75969
-22.4085
-2.40379
-18.3532
-0.667479
-17.0197
6.77105
-6.6858
6.758
-20.4195
0.114843
-126.499
-21.3388
1.94652
-11.1279
1.07386
-1.85271
-22.8514
-15.3952
7.38707
7.73682
16.8608
11.2743
2.22715
4.66162
23.4906
9.13089
-20.4574
0.597979
3.33556
10.2726
7.45431
14.2744
-2.7144
-2.68557
3.2733
0.115937
5.22924
14.511
-19.7954
-5.96909
-30.7509
18.0013
-9.0725
6.08236
12.8297
-23.0188
4.53838
0.306777
-15.3586
-13.5338
2.69153
9.64528
10.3873
12.6194
-11.4566
-20.7387
0.334699
-46.8892
4.32166
4.83147
0.111573
-18.9973
-25.7019
-12.7409
-15.3095
-3.87286
15.2907
-27.4772
17.8538
-9.82566
-20.5022
0.256208
-8.19213
13.7166
6.45858
14.5222
1.97339
2.87645
-15.9311
12.8782
-20.2439
9.90571
-0.901814
15.2076
14.127
-2.01001
10.7125
16.6261
9.18378
11.1261
-9.85751
-62.9558
2.14752
-0.221208
-25.5653
0.40632
1.38603
5.10817
-17.61
5.31093
2.67753
4.63037
2.13759
3.16378
17.4395
5.87384
0.926583
6.25318
11.2503
-51.6051
1.07364
9.35707
0.105544
4.81119
2.34485
7.69367
11.2617
11.0775
-27.4011
11.4717
12.8287
10.1453
11.7528
2.40263
6.24685
6.66441
-2.96467
-21.6143
-34.8875
-7.11245
-14.8641
0.55915
-12.0571
1.68033
-18.9507
-0.562346
-15.7487
2.67458
-21.4917
7.08332
-9.19117
11.9943
22.9942
7.2711
-110.996
7.98393
5.20261
5.1918
0.770511
4.98452
-20.1397
5.61599
12.662
2.23926
16.1882
0.664766
11.0552
4.46709
2.67181
-24.1916
-1.16779
20.0247
-18.3466
11.3183
11.2532
14.2558
5.33733
12.7028
8.00112
-21.4628
9.14083
-16.6356
-27.8096
12.9851
10.7937
-9.81317
6.73001
13.8014
-13.4077
-43.8945
1.84597
2.43169
10.9736
8.441
12.3421
5.95265
7.59216
-11.3329
1.90765
14.9642
12.2451
19.7318
3.83436
-32.5874
-23.6934
6.78626
5.54995
5.45208
-4.29703
-31.6994
4.58104
-26.5078
-4.93355
21.0871
7.60007
-26.1909
-45.5325
-3.25723
-2.92258
-27.8013
-2.93905
-6.6753
13.9131
8.38565
1.24196
19.0181
0.660366
-14.3791
-86.9757
-28.5185
9.19848
-17.5627
6.74271
7.97678
-8.11698
9.56329
-78.7792
-20.6918
-57.1795
12.8334
-15.8494
0.423804
-30.1637
11.2739
11.2643
-8.05046
12.8595
11.0321
15.116
16.552
9.32071
5.96187
20.7447
-32.5629
6.85383
-10.988
-10.2032
14.1683
-30.8946
17.1125
8.01656
-5.32306
-28.7502
-43.2151
12.4705
-39.7671
-63.4222
6.59678
1.36808
-33.2242
9.03994
5.44585
3.62978
18.0049
-19.7525
-4.36704
9.11364
7.41088
10.781
-8.60717
22.8216
-0.996714
2.64343
10.4632
-3.97293
11.1545
8.59132
10.6816
9.37285
-24.122
0.481151
8.73282
5.37342
-35.7152
0.872069
8.79633
11.5918
13.0107
-22.329
4.9916
-3.18826
8.89473
0.493317
-8.565
10.7531
-138.871
10.7544
11.86
-27.4412
15.8081
-23.8368
19.7864
9.95969
-15.5513
0.734359
2.16419
10.5746
12.3681
-16.1765
13.0412
11.5867
-2.48742
2.28649
5.45095
3.02086
-2.79701
-28.9888
0.351468
-58.8326
11.3174
-20.9164
-25.5424
15.1529
13.6282
13.5613
11.3145
-20.9249
8.11434
-28.2888
5.78991
8.60276
-27.2336
-28.6811
17.6816
0.312002
-42.3836
-1.33171
-25.1368
-30.9185
11.4139
-28.1155
8.61544
12.3939
2.42506
11.6243
-0.0338919
4.03594
18.7266
-11.7119
12.14
0.733647
-26.1814
6.74978
5.12451
8.74459
18.8451
10.3528
2.66888
19.3553
12.4579
13.9126
-47.1403
-21.6126
0.156935
-6.31266
-20.7763
-11.848
-5.13862
-10.8269
5.44685
4.81644
0.525481
2.52716
-21.6997
2.27485
12.6083
-24.3557
7.60152
9.08618
11.2825
-39.4363
1.63138
-8.80282
-28.6499
-0.365027
7.68389
12.586
-12.0919
15.2109
-3.05481
11.1796
-0.249411
1.91715
-11.6741
10.0701
8.34647
6.16384
6.94216
7.01128
-36.7896
13.8783
14.8923
-4.71571
-7.46425
-22.5202
11.1188
4.30807
-4.86172
-10.247
4.14306
2.83268
1.26185
7.35296
3.79251
-4.4088
8.31808
4.08148
0.528752
-15.8819
14.2506
-2.81406
10.5093
0.101214
10.7276
10.5089
8.73198
7.54787
-17.323
-23.3293
1.51398
-15.9354
-27.1385
-26.8855
-5.05696
-29.7333
10.4901
3.64444
11.2349
-33.1156
-35.4474
-9.95185
-0.416112
10.4603
-13.937
8.989
5.13981
-21.3267
-20.0579
-3.86657
5.93131
11.5964
0.90751
5.70229
-16.3436
9.56125
-17.7919
-0.0730836
-6.21705
12.8051
4.53054
1.65363
11.4138
8.78279
11.5765
13.5019
15.0806
-11.6515
2.74637
-83.0955
6.06088
9.17741
5.10498
-13.1166
-4.03768
-10.5213
0.729539
4.55985
-14.0677
20.1775
-11.2548
10.8103
5.4577
-70.1066
-3.30404
3.45305
-98.2539
4.99932
6.17269
11.4144
1.8363
11.3519
-10.6802
-5.02339
-24.1726
-5.61252
-6.79298
10.7325
18.5677
11.7839
-1.8223
-10.9264
10.3918
-19.6865
-28.2734
-12.0418
-7.00077
-5.79653
-15.9088
-5.35937
1.64881
6.86575
6.67319
-15.8441
5.22618
12.4647
0.578079
-8.25596
12.4248
-1.96689
-16.2627
2.24442
2.52608
1.82464
19.2479
-10.9056
6.79365
-4.48217
-1.22926
0.733766
8.21519
-4.43833
4.91175
-1.6494
-0.716466
3.77949
-10.2344
13.0296
7.52872
5.66897
-101.732
5.71625
19.0588
-26.0191
10.5164
10.8016
5.4526
-4.74585
4.33072
-23.6049
13.6039
10.9972
9.23169
9.00848
-22.572
12.4761
5.08744
15.805
-8.92645
11.1927
13.4181
10.7497
4.49587
-3.64391
6.67729
-26.6053
3.99769
7.96074
11.5881
4.85065
15.0386
5.80425
16.3111
-2.60469
11.2639
3.09112
5.70132
-13.1806
11.2065
2.85366
8.09702
19.0681
11.6122
3.98654
1.72748
4.72944
11.0957
-0.179031
-26.9247
6.05938
2.85364
13.3242
-5.77097
15.5348
6.11151
23.4972
16.9914
1.87571
0.238549
-13.8843
4.61443
17.513
6.77068
3.7127
-23.6479
21.2161
8.71032
6.44648
19.5113
-1.53181
11.2867
8.22039
10.5681
2.40328
9.116
9.94356
13.0313
-3.16743
-51.2627
5.16423
-2.02815
2.38473
-11.3695
1.30035
15.8784
14.6159
2.39967
-6.93926
4.7248
11.7816
7.05317
7.42403
8.99166
-70.8304
-17.2067
-28.5839
11.8067
-10.1773
-65.009
11.2556
3.40062
4.4251
1.09385
19.1084
-30.2042
15.1914
-7.99434
19.6732
7.63929
-4.59035
2.12814
3.07756
7.55003
11.2797
4.93274
-69.4693
-5.99788
-61.9206
13.8911
2.0154
4.13529
-26.4397
-63.3508
-7.34556
10.6737
-2.18104
2.58869
2.18898
11.4036
19.8352
-1.73505
3.49752
7.56134
-32.8555
8.1003
-2.42148
1.3816
-67.2485
-29.7002
8.71257
-129.74
-16.8961
6.26069
-9.16882
-50.15
4.58233
10.2719
10.6259
10.7148
18.9461
-16.9746
20.5208
-16.3651
18.9059
-17.1253
-2.09779
18.1535
7.61343
-112.831
6.50746
-4.05893
8.44203
-33.0688
-28.7978
5.87901
2.23875
0.390832
0.510258
-22.2914
7.31417
10.7494
-13.8143
7.60773
-10.4052
0.228436
-34.089
-0.0153544
-10.4055
-25.4269
-7.09699
17.4564
0.931559
18.1493
4.58178
-14.7792
7.32025
-2.63403
2.21431
10.6901
12.3677
20.403
10.1456
11.5286
-2.08609
-19.6852
19.7827
19.9753
12.5105
-0.997857
-18.6843
-26.0508
7.63535
1.49624
0.342889
13.4855
-64.9227
0.946936
-23.1822
18.5692
-3.47238
5.08489
-26.7825
6.66915
12.7983
22.3119
20.9622
8.2484
7.30881
-5.34339
-13.5815
8.74168
21.3569
-13.7537
2.05838
2.99787
0.394686
5.50966
3.00823
1.50457
5.37038
3.99648
5.14375
2.07176
6.80172
13.8333
-7.8326
10.6521
-30.712
1.39975
17.2766
-6.09952
-6.42081
-9.17121
7.81507
7.94524
-6.09772
-10.86
2.76946
1.38257
22.8027
-24.1462
-12.9458
-11.3916
0.452963
-12.9805
-8.81354
-8.8629
-9.09221
1.71126
-17.3766
-2.01552
-0.609587
7.73143
4.59879
4.89321
22.1375
5.05606
5.10524
-19.7509
5.55922
-20.5599
8.41579
15.8926
10.8795
5.26472
-56.7639
9.80108
11.1005
-29.5997
-15.2698
-9.26307
15.9396
0.940477
11.0228
4.3462
15.6656
6.45149
-35.964
-5.0121
11.8574
3.50201
11.0864
-1.59994
20.5832
-13.128
2.1805
-18.4654
8.98053
-9.31852
-2.1515
-13.8143
6.14506
-4.41477
-26.5679
-24.8934
-2.19591
1.59304
-7.55601
-2.13991
7.48314
-29.6604
6.54722
-15.6921
11.8662
19.3164
6.20044
-19.6011
7.64201
5.39662
-5.32562
-0.467113
1.13282
-25.5704
3.16352
14.6735
-4.28909
4.18684
1.92523
-21.6765
-12.2245
5.15418
11.3269
3.42614
-4.68467
1.42465
2.03307
-65.1235
2.62759
-9.69647
-6.21188
12.7819
-31.862
-1.56361
-2.22956
-15.383
-10.113
-16.1271
23.4377
-0.497619
0.221559
9.2113
19.0018
17.3347
-40.118
7.43571
11.2894
0.753957
2.80236
19.0766
4.32323
4.50239
23.3056
2.14672
-7.71686
5.38771
16.0644
11.7222
7.77395
15.5766
9.77275
2.3905
3.5091
7.92306
5.09201
-27.0383
18.4565
7.01212
1.04422
2.06512
-6.61959
1.68433
-30.8378
9.28996
3.80032
8.6212
12.3398
9.42875
-20.4405
16.6922
17.8874
-12.6777
5.31148
-36.5366
-32.8924
-6.6803
8.96396
-28.2504
0.421462
9.53888
20.0019
-17.4085
10.2594
10.7195
12.0812
3.04691
6.561
-70.8744
2.22461
-1.36754
-4.23392
-30.3333
-9.041
4.80069
-15.2219
12.1635
-29.9353
1.40967
6.03557
-19.7087
-23.3327
-29.252
8.4539
6.64462
-7.49029
7.6668
-10.5269
0.898568
-16.6219
-40.7353
11.5203
-14.6667
19.3579
1.97726
21.201
0.207301
-12.9357
5.51729
10.8135
6.26803
-15.0533
-25.7078
3.01635
6.02778
3.47374
23.8803
12.0491
-3.85843
1.00772
0.587426
-31.9887
9.38181
-68.4168
9.0459
-33.544
-20.2519
-21.1822
-6.57047
2.31846
-23.7373
9.29246
5.21058
17.248
20.0193
-27.9358
-25.1592
4.60572
-3.81641
17.9297
-10.6603
2.16033
7.56672
9.86923
-76.8463
-17.1421
6.73077
-3.85659
5.45951
-74.8132
-7.95343
3.88055
-1.87693
-12.6235
2.18694
-12.616
-11.0684
9.34713
-45.6453
-34.719
16.5594
-27.8095
20.4816
2.00281
11.1314
-10.1316
2.22305
3.60145
-1.66995
6.54191
-10.1189
-24.4919
17.7988
11.3582
4.02163
-22.7296
21.5793
-17.6759
-17.5251
-31.4958
-1.03965
-8.93104
-60.3928
15.8906
3.65081
6.90655
7.35766
-17.03
-20.662
0.81281
5.00514
-13.2447
4.1895
7.10103
8.94958
-3.38376
-16.8898
-15.9719
9.01762
-4.53713
-4.18656
20.5676
9.43288
-14.9633
-1.79315
6.29359
16.7398
1.18963
-25.5283
0.0201391
13.8353
8.23893
2.40987
11.1169
-73.4074
17.6337
2.2707
12.1336
-11.2192
2.9035
2.07856
-29.0317
-0.481515
6.91219
-25.4799
-6.95735
11.0384
-54.0616
3.27973
14.5221
10.242
14.1242
11.0218
-1.05068
1.77306
4.36747
8.08906
0.0898133
11.198
2.96531
17.7194
-13.5312
13.7631
-3.30254
19.1461
-17.3136
-1.3161
18.748
-13.9017
2.30899
-18.2338
14.7673
18.4309
11.7495
-7.27758
11.2792
12.5373
-10.5134
8.28811
-50.0904
13.5254
-15.794
-30.2198
-26.7023
-28.2941
12.311
-2.94155
-36.9257
3.00748
18.1801
1.45191
3.3915
-30.7612
-2.54847
3.85074
-6.3587
11.1772
8.05245
-41.9897
21.0646
-5.50466
16.1299
13.5102
3.92775
1.32852
6.10023
-8.54465
11.7756
5.24746
3.93206
1.20926
7.98386
-24.9872
20.0714
12.6239
0.617863
-16.2387
8.63505
-72.7421
9.65668
12.1963
5.26123
1.93929
12.0124
9.12353
-0.234012
-19.5029
2.74385
9.75042
17.6028
-20.5516
18.99
21.8147
19.5204
-85.9661
12.1141
-10.0264
11.2913
12.4004
14.1477
9.70613
14.3853
22.1076
11.0386
-21.2439
-13.1829
-23.438
22.1297
3.42682
-72.3836
-5.62233
12.3015
16.8323
9.73846
-0.099063
-18.2439
15.7609
-12.3463
8.69863
-6.30876
7.7278
0.723159
-7.74583
4.73846
-4.92697
-4.54844
-40.3587
8.16685
-36.045
11.883
2.84465
6.44632
8.13213
-10.9135
-0.185967
2.06326
-10.4481
-11.6127
-22.7644
13.8134
16.1621
-17.8903
13.3222
13.3949
15.8658
2.32459
-26.0009
9.63935
-25.9161
14.4113
-8.70378
14.0139
9.77062
5.25252
13.6575
5.86042
12.7805
0.720476
7.93701
3.45955
-19.9865
-20.3367
-108.803
12.5569
-12.4424
-67.1171
-10.9425
17.7748
12.2645
7.72035
4.16774
15.4276
-10.1377
8.10257
-20.3523
1.77828
8.16772
-40.2843
-18.9402
-3.59838
-29.2312
7.99522
-15.9222
-26.919
-27.8884
-20.438
6.0243
18.4698
20.4227
17.1421
-16.5913
8.75925
-12.4975
8.18724
16.3569
5.51897
12.366
-10.9301
1.42205
2.70092
3.47824
13.5398
0.0180392
9.91844
-22.2834
2.08665
-31.0175
12.2485
9.93876
11.279
-16.8138
8.24817
-29.6358
-36.0489
-34.1915
0.0437215
18.0694
-14.1648
-1.82523
-7.03592
10.2886
11.2199
-5.27104
9.08893
-19.3262
15.7116
17.2729
-69.9767
2.4648
14.3705
-50.6915
-16.8802
4.10705
13.6598
14.9413
-8.55364
1.68135
3.80964
18.2324
-36.0561
-39.8816
3.47657
16.306
3.99594
3.88498
-67.7722
12.9219
10.2374
13.3062
3.21792
-12.1527
9.82748
21.5775
-17.6857
4.92222
3.8525
-45.9236
3.96276
2.11385
-2.70085
1.19679
-22.1283
9.29208
-72.8303
0.843788
12.1164
14.4517
8.30551
-7.62948
-29.4557
9.44022
-19.9276
-4.53194
0.701349
2.86242
-29.4802
13.206
9.73309
3.82173
8.29511
17.1648
-86.0426
3.62287
12.0379
-32.1684
9.32307
0.891708
1.97734
-5.81528
10.4218
1.0653
1.53074
4.44691
-6.47825
13.228
-4.96793
-7.655
-56.7001
5.40826
11.473
-21.9948
19.3879
-15.9485
-35.8555
-23.1946
13.7155
9.82328
12.3432
-30.9784
16.2538
-7.60294
2.92778
7.27174
-15.224
11.2661
2.97264
5.09521
3.12009
-19.4175
10.4372
-28.1253
-46.1985
0.123968
-7.98514
-10.0034
5.52713
17.1475
0.975393
-10.9856
12.0749
-10.4974
14.924
-4.34983
4.2656
11.0867
11.6672
3.20616
-71.3982
-15.8565
3.95108
6.5735
7.56881
-15.283
-10.6328
2.7421
-0.799878
6.24865
22.538
8.84639
11.1644
14.9032
5.74975
12.3871
-9.08912
-40.1132
-38.993
11.2706
21.7967
8.34656
-1.91371
13.4078
5.69575
6.33176
-7.11284
3.89113
4.41979
19.4362
-14.2205
0.774275
19.3735
13.6923
7.71617
9.33872
11.9082
6.01623
-25.8697
-22.327
9.77498
-18.5005
-19.5753
10.7499
-33.312
-15.8623
-6.7413
8.42901
8.85893
9.85516
4.03544
12.4271
12.7214
-5.19288
10.3336
8.75631
15.414
11.7429
0.762357
2.60923
-5.43477
13.2929
9.96316
-22.3033
5.77311
3.86161
1.85792
17.0624
10.9441
0.598398
-7.83464
-1.18858
11.3032
2.38714
8.04933
0.520954
6.14578
-124.805
5.71877
-0.660316
2.82438
1.81282
-78.8076
-5.63549
-17.6565
15.3861
-2.90631
-15.6728
-4.63481
17.5451
-135.444
0.373645
6.14685
-29.7606
11.9024
11.1446
0.710792
14.07
6.80671
4.22172
-25.468
-6.29546
1.11065
13.7004
-21.0418
-10.2874
-39.8575
-64.1332
-18.7407
-4.74857
-15.0178
3.03942
7.1335
11.2683
11.7349
-78.5229
-29.4201
14.2891
11.2395
-7.68187
4.77902
-24.7206
2.07174
7.11231
4.65249
10.5603
-52.6105
-139.598
-138.12
6.77455
-7.4477
-26.213
5.79309
-24.9567
-28.5705
-32.2584
-5.82416
5.46367
-26.9578
3.13947
-10.8084
11.5523
10.8644
-4.47854
13.9252
-15.8978
16.9655
1.36923
4.44466
-3.02061
9.45752
5.00708
-19.801
-33.3793
11.8234
13.8901
17.8595
-9.45295
-27.4403
-17.7859
4.48966
1.0789
-17.4277
-5.71765
-24.2438
4.89182
-11.4952
2.43706
-13.0431
-2.58049
15.8521
7.01571
1.44298
1.47473
-6.42426
-21.7248
15.7138
20.2526
-18.2182
10.4755
9.4886
0.537908
-25.0594
13.5553
13.801
-16.172
-129.069
-34.113
-16.8261
-2.47961
-21.6559
-1.09199
10.4007
-25.4527
12.75
-15.4678
-32.3274
11.3139
-1.64717
-27.3844
4.69475
11.5735
-29.4832
0.526147
-37.6639
-15.2564
-25.9562
18.1642
-35.8122
2.70677
-12.4075
11.0537
-33.1991
-75.9459
-11.2659
-17.059
2.95957
10.2737
1.17606
-18.058
7.85107
0.227204
-29.6651
-12.6275
-18.5993
2.46607
5.10141
11.2517
-47.3589
14.6012
-44.7143
0.61572
3.73146
-8.48354
-19.6259
-18.3293
-5.68357
0.871499
7.48739
-14.6619
2.63503
-2.49473
7.09875
-16.447
11.5501
-10.7904
9.09147
10.3608
-41.8256
-30.2792
24.0646
-24.0279
-32.3438
-33.1893
-1.53854
11.2815
-7.07205
-22.8192
2.5074
-41.772
-8.18403
-20.0662
-21.3993
8.28506
-27.1014
5.23606
-42.4549
3.65074
8.02971
3.72634
-3.0044
0.96162
11.9766
-29.1038
-11.5818
13.3456
0.496954
-30.5911
2.56266
-10.5326
-2.08344
1.76928
12.2128
-34.8788
8.05204
-26.333
-8.39451
-21.1958
-25.2498
-19.9982
-0.737496
-85.6143
11.0182
7.79034
-8.69766
20.409
-18.1396
13.8048
14.191
-31.2704
5.68451
10.8733
11.2562
3.15104
-8.55413
-5.6181
-6.20286
11.2536
6.48019
-2.0129
-16.1013
0.0516794
13.7757
2.96717
-33.8374
4.62462
13.2045
-5.77797
-6.6292
1.4498
10.6513
6.73343
-35.7387
14.69
13.3516
-22.9281
-11.6209
11.8645
8.37146
3.76205
5.31395
7.44276
-4.24391
-8.20987
-5.83343
13.7177
8.1038
2.44814
0.974864
-18.0261
-34.4155
9.21898
-14.1033
2.56222
12.1799
13.5166
-130.887
10.7269
5.40439
8.55048
9.70093
3.51802
10.0345
0.433703
11.6135
10.0931
11.6921
-4.3751
13.0595
11.6858
10.864
9.99192
-15.8224
3.09174
2.8376
-0.143886
12.503
16.9944
-32.8249
20.0029
-6.36219
-18.8311
9.58868
11.01
-8.97419
3.39034
-27.6561
-16.7872
0.132318
-27.3303
-8.71842
2.4917
7.54161
20.7121
11.0581
-75.8854
-29.3179
8.64132
8.27055
-28.4449
-4.62559
-34.2842
-6.13638
-19.3181
-20.6375
11.168
-6.1482
7.90951
2.13414
2.10834
-45.7807
1.95571
1.84755
-0.7338
12.1175
2.03787
-3.06905
13.5995
-16.4339
5.22955
8.56038
-1.80668
-15.8834
10.2877
-3.08834
7.92302
2.00663
11.0635
7.16362
16.1302
11.2482
-4.28178
2.1815
1.24007
-40.4655
0.758194
1.67354
-12.878
-29.7865
21.1114
5.24757
-42.5444
14.4332
-4.66031
-0.0455254
-29.5339
-5.00619
-34.5266
-7.54015
-4.13768
6.85873
-12.1442
-8.67907
-11.7851
-109.036
-1.87586
-46.2676
6.47799
10.4006
-11.2848
-20.3883
-4.85024
2.67082
-2.38541
11.3887
14.9159
-44.6978
11.5427
1.58934
9.83395
17.5451
-1.04141
9.23176
4.68494
7.64062
13.5903
3.57626
4.56191
-64.6575
10.8815
14.9247
-50.5696
-32.2487
-3.12552
-1.24327
8.46598
-13.9929
-9.63529
-47.2762
7.88914
-25.0965
5.32446
0.857583
10.9813
5.79607
-20.0547
3.05728
-3.23504
-74.0085
16.3511
19.217
12.4986
21.6562
11.7495
21.0296
8.89675
6.37347
13.3674
-6.69305
9.39886
2.12679
-19.253
15.1706
4.519
-2.44787
18.7818
4.39665
-14.4102
8.44677
7.7569
13.2601
-34.3714
11.3082
18.5365
-2.82657
-18.6054
-7.46411
5.88307
-11.7744
11.6442
3.16938
13.6328
11.277
-14.8462
11.1189
0.494143
-22.445
-20.802
-28.9736
10.3887
-2.49652
11.4246
-4.86627
-19.0267
6.62865
-57.9393
-0.699256
-31.4947
-40.1098
11.1165
5.83302
-27.3243
1.28818
10.1779
5.09162
-21.8988
8.54745
-10.0053
8.18278
-31.1062
10.036
6.45972
-0.657511
-5.05914
9.54752
5.22336
6.76328
-30.5574
20.9639
-1.78804
-37.7526
9.65962
7.29432
-22.9961
-1.7325
-2.6854
0.935851
0.856807
-1.2514
3.41755
2.66208
21.8871
-6.19642
-8.68974
6.37163
2.94422
1.98868
9.18556
8.23872
10.3067
-12.2871
5.42857
-26.2172
2.71668
4.76305
8.21777
9.88866
1.13202
0.398133
0.13037
11.4774
-5.95788
5.61532
-34.5768
1.16645
0.668315
11.6209
-36.174
1.7864
-49.7838
10.2034
-20.0868
2.40459
12.7558
11.407
10.0719
-0.438008
-25.6239
11.6927
-31.6829
13.092
8.55584
-6.18252
10.908
0.726698
6.66405
4.77504
4.02609
-8.03461
10.1883
-36.9417
13.3203
4.96511
22.1245
3.85649
6.38341
11.9263
5.18338
5.11337
11.336
4.94658
4.44126
-1.6468
-3.99156
8.75517
4.87002
-3.47858
-14.0932
-4.65344
-5.91369
-22.4066
2.72537
10.9847
3.05159
10.4206
4.18681
18.7069
16.3409
7.39446
5.37684
7.21319
-32.7874
12.1195
6.1442
4.79567
2.7865
12.553
10.0152
-47.1092
-6.36676
-9.1242
6.51448
-0.538625
-5.75459
11.6027
-16.1807
6.24885
-14.9944
9.34042
8.07134
-54.9838
7.77648
10.8884
-3.13829
8.60573
11.8814
5.81012
13.1541
9.92014
5.25482
15.7341
-12.9832
13.8302
10.4119
-19.4352
-23.9723
2.00141
4.48954
-12.7899
-64.4233
11.2281
14.872
12.6875
14.3461
9.79269
13.0914
7.79478
6.30916
8.11348
4.44477
5.20949
7.76673
2.62575
16.7309
2.9297
-46.0653
10.0842
14.9086
16.6446
-15.5834
2.22649
-7.39839
-20.062
8.31572
-11.6136
-12.7349
9.84468
18.5756
-36.5528
-11.3276
-10.9679
7.7888
4.67064
5.56488
7.53486
7.50861
-24.4638
6.22711
-12.8679
-8.31208
11.3985
11.0988
12.2233
0.292723
-11.745
1.64893
4.433
-6.92106
-1.20215
7.08267
4.00051
2.35358
-0.360398
7.94337
2.0382
9.77618
-28.4781
5.08151
11.4636
4.47413
1.11056
-17.0176
-4.87756
0.0131074
10.0797
5.23643
-33.5241
11.2874
10.9407
-3.1309
2.31622
-5.23605
-1.76898
-38.6001
6.35394
3.64712
2.32128
8.24446
-2.92877
9.1131
2.03085
2.44022
13.2904
8.15266
10.5674