/*--------------------------------*- C++ -*----------------------------------*\
| =========                 |                                                 |
| \\      /  F ield         | OpenFOAM: The Open Source CFD Toolbox           |
|  \\    /   O peration     | Version:  2306                                  |
|   \\  /    A nd           | Website:  www.openfoam.com                      |
|    \\/     M anipulation  |                                                 |
\*---------------------------------------------------------------------------*/
FoamFile
{
    version     2.0;
    format      ascii;
    arch        "LSB;label=32;scalar=64";
    class       surfaceScalarField;
    location    "4.7";
    object      phi;
}
// * * * * * * * * * * * * * * * * * * * * * * * * * * * * * * * * * * * * * //

dimensions      [0 3 -1 0 0 0 0];

oriented        oriented;

internalField   nonuniform List<scalar> 
20045
(
0.862867
-1.04326
0.180397
-1.75957
0.814508
0.945062
0.30251
2.87046
-3.17297
0.933106
-1.19786
0.264752
-1.57471
1.43055
0.14416
-0.729394
2.97973
-2.25034
-1.80107
0.532132
1.26894
0.100484
0.792876
-0.893359
0.828442
0.745596
-1.57404
-0.898595
-0.39335
1.29194
0.277118
0.00146889
-0.278587
2.98179
-1.65656
-1.32522
0.719085
-0.693921
-0.0251647
-1.71106
1.30267
0.408384
-0.344412
1.72273
-1.37832
-1.47788
0.579288
0.0190647
0.213016
-0.232081
1.6715
-0.0634299
-1.60807
-2.43471
3.43076
-0.996054
-1.16401
-0.135335
1.29935
1.48553
-1.36016
-0.125367
0.270146
0.448939
-0.448732
-1.31084
1.7943
-0.0469699
-1.74733
1.3197
0.0422694
-1.36197
-0.00585385
1.80016
-0.127323
0.113388
0.0139355
-1.58866
3.54194
-1.95328
2.16027
-0.0840158
-2.07625
-3.93631
2.9554
0.980915
-0.284479
-1.36342
1.6479
2.23299
-1.97838
-0.254618
-0.602226
1.80481
-1.20259
4.66605
-2.86047
-1.80558
-1.01328
1.11377
2.75297
-1.3487
-1.40427
1.75111
0.876691
-2.6278
-0.11856
0.715958
-0.597399
-5.03474
3.63594
1.3988
1.08068
0.849504
-1.93019
0.0464111
0.825662
-0.872073
0.326681
-0.457865
0.131184
4.09449
-4.03208
-0.0624151
2.06104
-0.585415
-1.47562
0.805742
1.2553
1.5506
1.43119
-0.120914
0.322661
-0.201747
1.1805
0.960004
-2.1405
2.81445
-1.06334
0.308561
2.43028
-2.73884
1.98328
-3.29459
1.31131
4.588
-2.53957
-2.04842
-0.888456
-1.59667
2.48513
-0.152314
-0.5611
0.713415
0.0393647
1.93275
-1.97212
-1.21857
-0.356136
0.800519
1.43652
-2.23704
3.08303
1.54259
-4.62562
1.54989
-2.15212
2.82178
-2.43692
-0.384865
0.260521
0.0842298
-0.344751
0.588514
2.23327
1.006
-2.29978
1.29378
1.21932
0.266212
1.41724
-2.22324
0.805998
1.88914
0.969855
-2.859
-0.292299
1.03525
-0.742954
-1.05524
0.0348167
1.02042
1.49667
-0.66823
2.19111
-2.2784
0.0872902
-0.871802
0.579504
-2.08206
2.12142
-0.522709
-1.64983
2.17254
0.144372
-0.119489
-0.0248829
2.16999
0.119817
-2.2898
1.91554
-1.11502
-0.64631
2.8163
0.981518
-1.32593
0.0636779
-0.122219
0.0585412
4.65686
-2.60545
-2.05142
1.31587
1.51504
-2.83092
1.30382
-1.25835
-0.0454725
2.02406
-1.01807
-3.26053
0.362162
2.89836
-0.0641311
0.926998
-0.417804
0.731257
-0.313453
-0.519303
-0.166864
0.686166
-2.38183
0.0611558
2.32067
1.40742
0.486002
-1.89342
-1.27052
0.934732
0.335789
-2.61995
0.412986
2.20697
1.32902
-0.276551
-1.05247
0.69202
-1.08957
0.397555
-0.478871
-1.15165
1.63053
1.06224
-1.13069
0.0684502
1.65271
0.632427
-2.28514
-0.0602543
-0.0670687
-0.175543
-0.708348
0.883892
2.0896
-1.00891
-0.0483187
0.283944
-0.235625
1.87332
0.879657
-0.751003
-0.960052
-1.07142
0.895879
-1.80309
4.88611
0.243429
-0.661233
-0.355667
0.307349
0.551937
1.91248
-2.46441
1.35877
-4.86344
3.50467
-0.0572357
-0.853423
0.729415
0.124008
-0.491224
0.615859
-0.124634
2.09083
-1.88009
-0.210742
-0.895492
0.743178
2.37253
-3.43501
1.06248
-0.477967
0.655207
-0.177239
0.0930809
-0.593215
0.500134
1.5464
-0.226699
3.68154
0.984509
-1.99896
1.47625
1.7849
-3.05411
1.26921
-0.438936
2.11044
0.27366
-0.0131389
-1.39793
1.14054
0.257388
-3.67597
0.182786
-1.056
0.873209
2.45815
2.12985
1.80903
-2.43954
0.630514
2.33286
0.227225
-2.56009
-4.55992
3.65987
0.900046
2.39316
-0.69161
-1.70155
4.58609
-2.12794
-0.098163
0.420824
0.330745
-0.231016
-0.0997296
-0.040216
0.0105956
0.0296203
1.72893
1.18633
-2.91525
1.88843
-1.58276
-0.305671
-0.371329
-0.0210265
0.392355
-0.60769
-0.245733
3.35019
-1.56529
-1.17535
1.23372
-0.058371
1.41672
-2.78823
1.3715
1.05234
-1.9408
1.10699
1.22045
-2.32744
2.51202
2.14485
3.55558
-0.486015
-3.06957
0.593285
-1.70245
1.10916
1.95693
-1.20694
-0.74999
-0.478269
0.434449
0.0438192
-0.149409
2.85832
-2.70891
2.08973
0.0705418
-2.46189
0.0608754
2.40101
-1.7724
1.38432
0.388079
2.54783
-1.23196
0.237696
1.06613
-1.89291
2.15976
-0.266854
-2.41856
2.72107
0.0331107
-0.736777
0.703666
0.269005
-0.564671
0.295665
-0.0625805
-0.674535
0.737116
1.5578
0.705607
-2.2634
3.68856
-1.78161
-1.90695
-0.800796
0.738215
2.44119
-2.65523
0.214039
0.399614
-0.0729323
-4.34266
-1.34586
1.72194
-0.376083
-1.73735
1.42023
0.317119
-0.0181981
-0.237953
0.256151
1.04335
0.91358
-0.0506338
0.0104178
0.0184622
0.312283
-1.95334
0.0604306
-2.24625
2.78316
-0.536908
-2.31062
2.43412
-0.123498
-1.55061
-1.02314
2.57375
-1.20483
-0.0922665
1.29709
0.994546
-1.24151
0.246961
2.32564
0.0423905
-2.36803
-0.0854832
-2.2215
2.30698
-1.52794
2.63492
0.685413
-1.88858
1.20317
-1.20679
3.57932
-2.52683
1.93356
0.593275
-0.160116
0.171735
-0.0116187
1.38108
-2.99504
1.61396
-2.79013
1.20148
-3.14515
-0.359817
3.68902
-2.72817
-0.960848
-1.03975
1.08616
0.58738
-0.627369
0.0399887
-1.89395
-0.975717
2.86967
-2.72425
3.9564
-1.23216
4.69164
-4.30648
-0.385165
-0.139407
-0.485322
0.624729
-2.47917
-2.13704
4.61621
0.0304033
0.246715
1.13741
1.25575
-1.94999
-0.612233
2.56222
0.417156
0.10641
-0.523566
0.162791
-1.50865
1.27477
-1.55925
2.44124
-0.10838
-0.590971
0.472411
-0.656235
0.798962
-0.142727
-1.12284
2.68064
-4.86444
2.38527
2.96363
-1.44547
-1.51816
-2.3139
0.580597
1.7333
0.656596
4.03505
3.21508
-1.834
2.68879
-3.97579
1.287
-0.34126
-0.198261
0.539521
0.29097
-1.45498
-1.57138
2.12332
1.83429
-2.56368
-1.89418
-0.196452
2.09064
-4.14514
1.73056
2.41459
-0.331779
-0.938742
0.601116
0.577824
-1.17894
1.72073
-0.480617
-1.24012
0.303009
-1.95647
1.80706
-0.901948
-0.273403
1.73857
2.06941
-2.23076
0.161353
-0.0419689
-0.506088
0.548057
1.82832
0.216287
-2.04461
1.57333
-0.162569
-1.41076
2.17683
0.958341
-3.13517
-0.892823
0.37352
1.9536
-1.26819
-0.439542
1.11443
-0.674887
2.33679
-0.920071
0.4356
-0.033335
-0.402265
1.26092
-0.0947275
-1.16619
-0.487294
0.506623
-0.0193291
3.92412
-2.90129
-1.02284
0.874967
-3.59921
-0.539958
0.0526642
-2.57288
0.607193
1.96568
2.95422
-1.14941
0.678072
-2.92432
4.84698
-2.40258
-2.4444
-0.0628829
0.480039
3.7899
-3.81139
0.0214958
-1.82292
0.219159
1.60377
-2.94674
2.84915
0.0975938
2.19918
-2.85717
0.657993
0.00429388
0.00875347
-0.0130473
-1.4687
1.71642
-0.247721
-0.339987
-0.280542
0.620529
-0.608435
0.130467
-0.592814
0.101589
-1.56612
-3.29732
4.93203
-3.85142
-1.08061
1.5844
-0.688152
-0.896253
1.74715
0.485848
-0.584504
-1.30968
0.134637
0.134368
1.32135
1.63287
-1.67595
0.294589
1.38136
3.04072
0.74918
1.43564
0.287089
0.981663
0.602742
-1.00968
-0.119423
1.1291
-0.045533
-0.114583
-2.07836
4.25519
-1.44721
1.97441
-0.527193
-2.88517
2.76101
0.124163
1.34499
1.2491
-2.59409
-0.288603
-0.560348
0.848951
2.23837
-2.5409
0.302532
-1.93096
-2.21418
3.10078
-2.31724
-0.783537
-0.401036
0.359068
2.98062
-0.78144
0.0106099
4.92142
3.41382
-2.53689
-0.876924
5.47693
-3.10236
-2.37457
2.15135
-0.597795
-1.55356
0.95633
2.45749
2.78845
-1.65628
-1.13217
-0.661532
2.4869
-1.82537
0.558462
-1.42717
0.868712
0.0395993
-0.261221
0.221622
0.280202
0.0168101
-0.297012
3.09695
-2.60899
-0.487963
-2.39723
-2.16268
1.9407
0.128705
-2.60039
-0.284781
-0.112774
1.3737
1.8133
-2.72676
0.913459
0.0125193
0.574861
-1.60551
3.33444
1.03318
2.89095
4.14348
-2.97748
-1.166
-2.64299
2.03076
2.01092
-2.92237
0.911454
-1.85053
-0.281299
2.13183
-0.99082
-0.560426
1.55125
2.34678
0.0944135
2.26109
0.702533
0.944413
-0.523429
-1.45495
-1.85515
3.07623
-1.22108
-0.781804
0.125569
-0.548288
0.108746
0.262254
-3.20899
-1.02756
0.134737
0.920495
-0.749641
0.963336
-0.213695
-0.0878063
1.02091
-1.3383
0.814241
0.524054
1.53915
0.551683
-0.511784
0.903815
-0.392031
1.3362
0.552228
-0.779573
2.59288
1.76862
-0.361203
-0.810557
-1.50334
4.897
-2.29864
-2.59836
2.76584
-3.20735
2.27094
0.93641
2.34546
-2.6473
0.30184
-1.51739
1.03852
-0.496325
0.124996
-0.966781
-1.65317
1.08279
-1.87395
0.791157
1.38257
1.40589
1.66137
-2.58797
0.926597
0.910475
-1.86905
0.958578
-2.9191
0.537269
0.0720342
1.25699
-2.35247
2.4657
-0.113229
-0.568177
1.01375
-0.445569
-1.64494
-0.156133
-0.456501
-0.797665
1.25417
0.43392
0.000150804
-0.434071
-1.07784
-0.694562
0.976997
1.40375
-2.38075
3.26049
-0.219767
2.81864
-1.34809
-0.169299
1.66175
-0.751279
-2.23511
-0.291718
-0.228617
0.146464
0.0821537
2.09305
-0.912546
-1.64831
2.51367
-0.865359
-0.478744
0.579002
-0.100258
1.83113
-0.110393
-2.20845
-0.518315
-1.72194
2.996
-1.27406
1.6202
-2.6168
0.996605
1.08924
2.01154
0.0796322
-0.0274265
-0.0522057
0.419259
-2.26979
1.78469
-2.71051
0.925819
0.0930817
0.0512903
-0.333667
2.14269
-1.13724
0.109681
-0.253489
-0.0877713
0.466016
-2.90072
-2.40325
2.01196
0.391291
2.10342
-0.539425
-1.564
2.85619
-0.61782
-2.20575
-1.3606
-1.18763
1.24219
-0.289562
-0.290498
0.580061
1.00486
-1.14019
-2.45986
2.12619
3.17442
0.920072
-2.61016
0.961857
2.07244
-0.131733
0.662034
-0.378283
-0.283751
-0.113881
-1.57802
1.6919
-2.69263
0.476607
2.21602
2.49562
-2.49562
-2.53821
3.04193
-0.503719
0.632487
-1.14427
1.54871
-0.955622
-0.593091
-2.98343
3.09281
-0.109387
1.19381
-0.128449
-1.06536
0.954525
-0.263782
-0.690743
0.513008
-0.801612
-0.387725
4.62565
-4.61504
-2.32574
2.78384
-0.4581
-0.936867
1.91386
-0.172925
-0.0392008
0.212126
-0.515327
1.43154
-0.916213
-1.16389
1.45486
3.65536
-2.43936
-1.216
-0.375295
-1.44177
1.81706
-0.884191
0.916498
-0.0323068
0.633501
-0.92182
0.288318
-3.07848
1.54282
1.53566
-0.813948
-0.383911
0.534909
0.127125
0.0427235
0.212553
-0.255277
1.53483
1.56212
-0.233385
0.0604605
-0.371829
-0.545292
0.917121
-1.62175
2.60166
-0.97991
-0.0774224
0.56511
-0.487688
1.52433
-0.992194
0.613516
0.496182
-1.1097
0.274991
-1.42664
0.390355
1.93529
1.4915
0.902683
-2.39418
1.57886
-1.15569
-0.423167
-3.03386
0.571977
-0.959403
0.520549
0.438854
0.750005
2.15667
-2.90668
-2.00644
1.72514
0.209368
-2.73408
2.52471
-0.525906
0.386499
-0.21839
0.234782
-0.0163915
0.109924
-1.1196
-0.269201
0.35469
-0.085489
-2.16173
-0.41115
1.82699
1.37818
-0.305642
-1.07254
-0.546684
0.0679397
0.350239
-2.02297
1.67273
0.547366
1.46114
-2.0085
0.711536
-2.09369
2.42768
-0.333993
-2.24588
1.58435
0.0307584
0.0826291
-1.15735
-0.579994
-0.954758
0.195688
0.75907
-2.80953
1.18778
1.87384
-2.24914
0.331769
1.74067
-1.11202
1.08136
0.0306601
-0.171862
-2.24442
2.41629
0.692579
-0.986072
0.293493
0.546206
-2.75465
-2.06699
-0.243627
-1.17279
0.117545
0.24077
0.233205
-0.473975
1.7244
0.107372
-0.132953
0.0255807
2.70332
-1.95332
-0.27932
1.77533
-1.49601
0.843946
0.713999
-1.55795
-1.00802
0.482119
-0.866901
-0.0878571
0.885223
0.663489
-1.14147
-1.91265
-0.0648353
-0.163782
1.75399
1.44503
0.323591
-2.3764
2.68497
0.101193
-1.00823
0.90704
-0.27607
-2.47132
2.74739
0.453936
-0.517157
0.0632219
0.402841
-1.60767
-0.746979
1.30544
1.84434
-1.25105
-0.952004
-0.386292
-0.101101
-1.34146
1.44257
0.997432
-2.54804
-0.110808
-1.3806
1.4914
0.283092
-1.28703
1.00394
-1.87043
-0.0327129
1.90314
2.26572
-1.30571
0.0254961
0.381017
-0.406513
-0.778484
-0.105707
0.664254
1.15869
-1.82295
0.494127
-0.599806
0.105679
1.63324
0.927708
-2.56095
-1.00607
2.65878
0.409485
0.024435
-1.65733
-2.6341
4.29142
1.44979
1.9004
2.44074
-1.89338
-1.2484
0.791899
0.326955
-0.0467536
-0.759709
2.77063
0.326058
-2.25401
1.92795
2.51369
-0.365098
-2.14859
-1.03436
1.79872
-0.764359
1.13012
-0.941347
-1.17307
2.11442
-0.282771
0.246655
0.036116
-0.812774
-1.47895
2.29172
0.892919
-1.40825
0.253394
-0.271592
1.54107
-2.35384
-2.06265
-0.688632
2.75128
-0.0128807
-1.62295
1.63583
0.889396
3.23085
-3.39824
0.167388
0.701605
-0.237781
-0.463824
-0.0221125
-1.08991
0.731151
0.899374
-1.17136
0.180535
-2.38055
2.9766
-0.596053
0.0711716
-1.51838
4.78876
-2.27674
-3.12034
-0.911734
0.0933101
0.294062
-0.387372
1.59746
-0.152437
-0.734582
0.805501
-0.0709191
-0.689211
0.349224
-3.65609
0.510938
2.53267
0.447057
-0.201663
0.835164
-0.769015
1.61296
5.26278
-0.637129
-0.754378
0.0197958
-0.41162
-2.04824
0.687582
0.829923
-0.796812
-2.76407
0.0714399
-0.250738
0.76059
-0.0680112
-2.85721
1.47852
1.37869
1.87
0.321104
0.75116
-0.28902
-0.46214
1.0111
-0.918382
-0.0927139
-2.11429
0.765587
-3.3307
1.60876
-1.67758
1.6056
0.0719774
-0.0316016
-0.535562
0.567164
3.04242
-0.0748722
-2.96755
0.677454
0.0519206
-0.729374
-0.470068
-0.927857
0.834184
-0.142165
-0.0810092
0.0696972
0.011312
1.38699
-0.165452
-1.22154
-0.0415418
-0.0394673
2.00665
-1.37423
-0.0909542
-0.532332
0.623286
-3.03824
0.657688
-0.0466556
-0.151564
-0.919858
-0.129556
1.50774
0.104704
0.0299334
0.833797
0.583861
-1.41766
-0.498966
1.91621
0.988003
-0.886811
0.775923
-0.682842
0.432983
-1.00116
1.62921
-3.09921
1.47
1.77537
-0.34079
-1.43458
-1.25587
-0.446579
0.536149
-0.337558
-0.19859
0.835389
-1.04374
0.208347
3.25502
-0.0885559
-3.16646
0.194756
-0.205741
0.0109846
-1.5541
2.20073
-0.646631
1.63132
1.47118
-3.1025
-0.311274
0.395504
-0.945903
1.49102
-0.545121
0.78847
0.299677
-1.08815
-2.38392
1.6864
0.697515
0.0450542
0.024643
-2.54371
0.481064
1.10305
-0.620256
-0.482797
1.18213
-1.69657
0.51444
-0.405891
-0.637373
0.327341
2.90351
2.48599
-0.489906
-1.99608
-2.35854
0.264854
0.960914
-1.77147
2.5408
-4.21737
1.67657
-0.400458
1.00157
0.0193779
-1.05685
0.685017
-0.563754
0.746541
-0.437639
-3.6355
4.07314
2.35197
0.62865
-2.20747
2.36054
-0.153074
-0.172311
0.413081
-1.83313
-0.495016
-0.443086
0.498255
-0.0551694
1.28364
-1.45947
0.175831
0.239672
0.57635
-0.816022
-0.403237
1.58536
-1.30446
-1.02114
2.3256
-2.5135
-0.777381
3.29088
1.25276
-1.16358
-0.0891822
-0.838791
0.0800835
0.758708
0.00546538
-0.163765
0.158299
-2.74733
0.0999831
2.64734
0.0549247
0.712266
-0.767191
2.27588
-2.52472
0.248843
-1.26816
1.60419
-1.5628
-0.0413925
0.0467791
-0.489865
-0.0466843
1.20281
-1.15613
2.41841
-3.6252
-2.83947
2.481
0.358476
0.592532
-0.0984055
2.74801
2.04075
-0.284075
-0.345857
0.629932
-0.0423259
0.600525
-0.558199
-0.488022
2.06104
-1.57302
0.818706
-0.390522
-0.428184
3.02819
-2.8867
-0.141487
1.99857
-0.882487
-1.11608
0.112258
-0.815479
0.703222
-1.01654
-0.0394574
-3.24463
2.82777
0.416854
0.128383
-3.37301
0.402399
1.1659
-1.5683
-1.43364
-1.17535
0.768381
-0.59118
-0.177201
-2.36012
-0.678115
-0.71096
0.515445
0.195515
1.75173
-0.178401
-2.94398
2.79597
0.148014
-0.481046
-0.0109798
-0.108509
0.73297
-0.0555159
-1.63619
0.16749
0.626788
-0.651523
0.0247348
-1.51942
-0.556715
2.07613
1.29045
-0.0966481
-0.786265
1.58267
0.248457
1.13101
2.16427
0.153614
-2.31789
-0.417582
1.41213
-2.10954
1.32888
0.780663
0.0907441
-0.0456899
3.05925
-0.707278
1.68762
-1.85949
-0.378313
-0.584658
0.962971
0.361293
-3.36213
3.00084
1.83042
-1.8433
2.48058
-1.07629
-1.40428
-0.0222646
-1.74559
-0.363953
-1.17923
2.57217
-1.39294
0.157866
-0.727682
3.41647
-3.11218
0.752063
-0.156585
0.196185
-0.427265
-0.262357
0.522537
-0.0159135
-1.24193
-1.28844
2.60234
-0.686806
0.684652
-0.230606
-0.454046
0.120675
0.833849
-2.70272
-1.41599
4.11871
2.18919
0.157589
-0.0239983
-0.531933
0.555931
2.45989
0.224578
-0.108449
-0.116129
-1.46221
3.09142
-1.11867
-2.83053
0.504794
-0.767115
0.0431839
0.723931
2.30851
2.53848
1.94549
-1.01528
-0.930208
2.89066
0.137531
1.92003
-2.72967
0.809638
-2.41525
0.0348399
2.38041
-2.61079
3.34144
-0.730649
0.52927
-0.0259541
-0.503316
-1.25538
3.67379
-0.920534
1.71921
-0.798676
0.132943
-2.34041
2.2872
-0.845391
-1.44181
-2.66691
3.43344
-0.766538
-0.763666
1.84913
-1.08547
3.4869
-1.54147
-1.94542
0.171808
-1.8096
1.63779
0.181265
0.0535169
-1.17288
2.80419
0.52658
-3.06479
2.48063
-0.860429
-0.648698
0.557744
-2.48073
0.0654774
2.6807
-1.01932
0.127326
-3.38785
0.885141
-0.0594788
2.48235
2.43668
-4.91903
1.66269
-0.558838
-1.10385
1.0476
-2.45963
1.41203
-0.593988
0.0333027
0.560685
-0.690486
-1.55282
2.24331
1.16925
-0.736268
-1.79963
2.54938
-0.749751
0.415368
0.553087
-0.968456
0.249414
0.518967
-3.36884
4.01198
-0.643142
0.544167
-0.0902317
1.38017
0.753094
-2.13326
0.571045
1.9408
-2.51184
0.674847
1.42857
-0.0856576
3.64124
-0.0395916
2.37524
-2.33565
-0.0430891
-0.0343333
0.056111
0.0423757
-0.0984867
1.64714
-1.03794
-0.609192
1.12473
1.35585
0.272137
-0.223458
-0.0486789
-0.676401
2.29645
-1.62005
-0.0440794
0.675768
-0.631689
-1.03058
-0.332149
1.36273
-1.05937
-0.780182
1.83955
2.14581
-0.317483
0.695201
0.967487
1.24915
-2.67582
1.42666
0.953958
-2.39572
-0.427118
0.557422
-0.130304
0.647892
-0.0833729
-0.564519
-0.0714549
0.25272
-0.141546
2.16282
-2.02128
-0.457916
2.88819
2.17804
-1.90683
-0.271206
2.03763
-1.55163
-1.41074
0.644596
0.766144
0.0906833
-1.0463
-1.45624
1.03999
0.416252
0.260422
0.490738
0.451615
2.18013
-2.63175
0.786596
0.600399
0.402672
-2.91617
-1.60226
0.538263
1.064
-1.12517
-0.763304
1.88848
1.66079
-0.826995
-2.52053
1.58366
0.92983
-0.728614
-0.201216
-4.46281
5.59037
-1.12756
-1.27985
1.55484
-1.76642
1.93662
-0.170201
-1.75948
5.08638
-3.3269
-0.0713182
0.732784
-0.661466
0.54414
-0.575742
-1.22703
-2.11035
4.0087
-1.89835
-1.6577
2.2383
1.45756
-1.69501
0.237443
0.530117
-1.60903
1.07891
-2.96513
1.84817
1.11696
-0.0660245
-0.216475
0.2825
-0.236918
1.5993
-2.08732
2.85634
-2.49505
-0.334272
-2.06898
-2.11471
2.07512
1.27546
0.144766
0.801677
0.423022
-1.2247
-1.13421
1.06855
0.0656619
2.64069
-1.55302
-1.08767
-1.75077
1.67645
0.0743191
-2.63282
0.215902
2.41692
-2.03354
-0.529811
2.56335
1.44106
-0.910947
0.635486
1.01165
-3.57937
1.19449
2.38489
1.41059
-0.958747
-0.451848
0.021871
0.703034
-0.858517
0.155483
-1.62869
-0.100338
-1.65043
0.505271
0.712113
-0.599856
1.64108
-0.357448
-2.19505
1.50344
0.108757
0.953486
-0.434143
0.387726
0.0464172
-2.14768
-1.69472
3.84241
2.60622
-1.35706
-1.46903
-0.113779
1.58281
0.374923
0.685923
-1.06085
-0.0106338
3.32029
-2.13644
-1.18386
0.599778
1.88621
0.112267
1.43428
0.563712
-1.99799
-1.43702
2.03992
-0.602904
-1.61306
-0.574628
2.18769
-1.53184
0.585938
-0.87522
-0.53552
3.21402
-1.49008
-1.72394
-0.501584
-0.869138
1.37072
0.869707
0.381851
-1.25156
-0.625832
0.680756
-0.444303
0.35304
0.0912625
0.722443
-0.08008
-0.720716
-0.0398287
1.82664
1.38738
-0.350944
3.98688
-0.523192
3.47859
-1.10529
0.603706
-2.32492
0.711855
2.25571
-1.83645
-0.461546
-2.0681
0.514005
1.54776
-1.14536
1.8459
-1.95978
2.4952
-0.149733
-0.621573
-0.468002
-0.417971
-0.338117
0.756088
-1.02343
-0.107268
2.31483
0.393868
-2.7087
-0.158565
-0.751513
0.910077
-0.242098
2.66688
-3.57425
0.907374
2.40867
-0.132795
-4.53079
4.66337
-0.132577
0.636666
-0.601849
-2.46296
-0.502166
-0.702046
2.88629
-0.0585132
0.79997
3.001
-1.24207
-1.75893
-1.65828
-0.193551
1.85183
0.445411
1.26903
-1.71444
-2.13896
0.268532
-0.625886
-0.0899297
0.715816
-1.43587
1.76193
0.57118
1.35764
-1.92882
-1.32157
0.243567
1.078
-2.51421
0.237354
2.27686
-0.40868
3.26502
-0.843651
1.31933
0.679237
-0.513839
-0.445564
2.80006
-3.28607
-1.33368
0.038978
1.2947
-0.492629
0.181355
2.02265
0.0278917
-2.05054
2.84592
-3.36911
0.00393801
0.000355863
-1.24542
2.08283
-0.837408
1.26731
-1.31399
-0.0746183
0.955655
-0.881037
0.138719
-0.262231
0.123512
1.56326
-1.16042
-0.90833
1.86924
-0.0231665
-1.65441
-0.546711
0.59349
1.72624
-1.88881
0.0731495
-0.064396
-0.670507
0.642401
0.0281067
0.719787
-0.787054
0.0672669
-1.85086
1.97067
0.208002
-1.67704
-0.0883883
-0.951365
-0.166497
1.77658
-1.61008
1.07594
-1.19536
0.561655
-1.92511
1.36346
-3.77224
3.62084
0.151394
1.14468
-2.99983
2.39061
-0.0669817
-2.77249
0.624681
1.97766
-2.10952
-0.411005
-0.958401
-2.24895
-1.3969
0.599235
0.106864
0.118638
-0.225501
4.36779
-2.05929
2.30345
-0.518755
-0.729517
-0.568143
1.29766
-2.89039
1.37404
1.51635
0.269613
-0.268144
1.38736
0.216828
0.569013
-0.298866
-1.33083
0.738927
-1.65946
-0.518286
0.397236
0.121051
-0.371337
2.68617
1.23162
-0.59858
-0.633041
2.81715
-3.42972
1.62936
1.80037
0.591671
0.842971
-1.43464
-0.0723574
-1.67239
1.74475
-1.73934
0.975674
-1.08583
-0.229209
1.09892
2.64521
-2.92128
1.36882
-0.580346
-1.04443
1.99839
-2.38817
1.70496
0.683204
-0.288578
-0.849212
1.13779
-1.97179
2.21857
-0.246783
0.924239
-1.34182
0.0454509
0.401848
0.850912
-3.10298
0.497528
3.91081
-4.43948
-0.281249
4.72073
0.694507
-2.35278
1.93476
0.038152
-1.86108
0.368316
1.98155
3.0976
-1.10316
-1.99444
-2.14549
0.812992
-1.93816
0.582709
-2.62771
2.43415
-1.84021
0.898866
1.34729
-0.653906
0.547363
0.106543
-3.89313
1.81035
2.08278
-3.48114
-0.775599
1.05869
-2.96566
2.12224
0.843415
2.46362
-3.719
-3.34082
-0.0280178
4.2193
-1.6785
3.06519
-1.54404
-1.52115
-0.0804345
-0.517741
0.598176
0.158553
1.18724
1.52622
-0.829837
0.175931
0.333357
0.835893
0.479529
1.20477
-1.6843
1.29018
-0.712355
-0.160295
-2.80072
2.96101
-1.07603
0.766108
-2.29404
-1.87182
-1.36699
3.23881
0.809082
-1.08563
-2.18773
0.72155
1.46618
-0.0990095
0.255528
-0.156519
3.77749
-4.21513
0.624665
-1.87008
0.957092
0.379751
-1.33684
0.420672
0.26398
-2.52931
0.773145
1.75617
-1.93919
0.879824
0.556384
-1.9934
-0.00550979
-1.32817
-0.134041
0.0350311
-0.0917613
2.60545
-1.70092
2.28285
-0.581928
2.35641
0.00753388
-2.36394
-1.93948
-0.0374747
-0.712166
0.137985
2.35764
0.475771
0.103231
-0.216321
-0.197014
0.829501
1.50164
1.59083
1.04987
-2.739
-0.204981
-2.30208
-0.341491
-3.4699
0.615974
0.589846
-1.20582
3.71535
-0.23144
-3.48391
-0.397056
0.371102
-1.10386
-2.22684
-2.22632
-0.420987
-0.737642
3.58356
-0.98617
1.50574
-0.519567
-3.13393
0.986244
-0.998478
1.47801
-1.44932
-1.40788
-1.06257
-0.640468
0.887429
0.581903
-2.10132
3.34928
-0.462997
-0.29977
-0.894761
1.19453
0.428362
0.686067
0.898722
2.93334
-2.72397
-0.218385
-0.697304
1.09486
-1.35647
1.65106
-1.49853
-2.70732
0.700844
0.580271
-1.28112
-2.54618
0.0505577
-0.474544
2.31219
-1.83765
-0.638951
-3.89184
-1.84206
2.05835
3.4974
-1.67885
-1.81855
-0.155559
0.676109
2.44484
-0.903472
-1.54137
0.866473
-0.946553
0.103326
-0.0472149
-0.323842
-0.149935
0.473776
-0.391277
1.19295
-1.38709
3.85071
0.0163602
-0.60754
-0.817157
-0.385711
1.20287
-0.0443394
3.82183
-2.4394
1.4711
0.968303
-1.15541
1.81967
1.03765
1.25879
-1.29786
-0.304408
1.69761
-0.620677
-1.07693
-0.0198295
-0.0913983
0.111228
0.20937
-1.9467
1.73733
-2.6852
0.458884
0.702595
-3.78248
3.44099
-0.0189286
0.885401
0.537784
-1.52395
-2.4449
1.25727
-2.62544
0.843831
-1.48169
0.3178
-0.987358
-1.8193
2.80666
-2.88836
-0.130197
0.143608
-0.0134117
2.42953
-2.06736
1.86777
-1.42236
0.26633
1.61279
-1.87912
0.270677
-0.896563
-1.31489
-1.48257
2.79746
-1.67737
2.40626
-0.728894
-2.37265
3.08913
-0.716483
2.46311
-2.04375
-0.419363
1.68525
0.138773
-1.82402
-1.31784
-2.11189
-0.924663
-0.248123
2.27245
2.31364
-0.0210426
0.36697
-0.345927
-1.96664
-0.562674
1.75807
1.67269
-1.57232
2.02391
-0.451584
0.130098
-0.238547
0.155796
0.976628
-1.13242
0.520725
0.710896
-0.284343
-2.68132
-4.13342
0.962485
-0.0326544
-0.838162
2.11293
0.26557
2.02553
-2.2911
-1.49331
-0.142883
0.611716
2.64877
0.229368
-0.837058
-0.215742
-0.430491
0.646234
0.166555
-1.1347
0.968146
2.54345
-1.29436
2.08353
2.60226
-1.21969
2.41146
-1.64536
-0.422297
-0.775864
1.19816
2.10873
0.378173
-0.0975402
-2.11428
1.42379
3.22348
-3.26782
-0.880677
-1.61756
2.49823
-1.46044
-1.42995
-2.80525
2.77585
0.0294009
0.486022
-0.817572
0.479455
1.71976
0.882496
0.250755
-1.73599
1.48523
-0.838489
-1.43991
-1.28815
-1.37165
2.6598
2.44282
-0.253628
-0.627267
0.200148
1.70312
-2.80698
1.09451
-1.05224
-1.5855
2.32967
-0.744169
0.686598
1.26042
1.13469
-2.39511
2.72604
-1.57948
-1.14656
-1.67338
-1.83268
2.49508
-0.662399
0.413906
-0.713675
-0.923741
0.904812
1.21427
2.27263
-0.708612
0.628178
0.122656
-0.0152843
2.69925
-1.51292
1.77786
2.58994
-1.3217
0.76281
0.558894
0.645093
-1.02341
2.04036
-0.0177084
1.59102
1.47416
-1.8027
-0.167738
1.97044
0.621414
-0.0433246
-0.578089
0.593775
0.107829
0.393348
-3.00414
-0.903846
1.01377
1.86603
-1.769
-0.0970276
0.518468
1.17914
-0.532854
0.243834
0.83437
0.712859
-1.54723
-0.818872
2.36876
0.326816
-1.09038
2.7436
-1.65322
-0.520935
0.936304
-0.418371
-0.903196
3.07132
-1.56628
-1.03411
1.45537
-1.52773
0.969424
-1.05781
-0.575191
0.503873
-0.8895
-0.503379
-0.0433044
1.06416
-0.545293
2.31146
-1.76617
-0.287342
0.330066
-0.691267
0.345409
-1.10351
0.178849
-4.28106
2.62374
0.772814
0.71821
0.628346
-1.7285
1.10016
0.360512
0.370745
2.10566
1.44827
-3.55393
-0.421259
-0.0243841
0.445643
1.17394
-1.45326
2.4655
1.0319
2.20217
-1.9366
-2.59239
0.129921
0.0834964
-2.23856
1.23594
0.611779
1.37177
-1.98355
1.22597
-0.15003
-0.0564091
-0.933097
-0.388607
-2.38209
-1.07725
1.16793
1.76868
0.00665131
1.54467
-1.42338
-0.121288
0.61925
0.0231511
-0.22242
0.810789
-0.0910021
2.24068
0.542043
-2.78272
-0.657515
0.139229
-0.748283
0.470118
0.278165
-1.09125
-0.00715076
1.0984
0.839937
1.19001
-2.02995
0.696277
0.964515
1.87114
-0.0399522
-0.85554
0.747357
-0.944371
-0.577799
1.07935
-0.501555
-2.76577
2.40595
2.36897
-1.82616
-0.542808
0.0506016
-0.493255
0.442654
2.4153
-2.55685
1.71405
0.728765
0.802918
1.06485
-0.500105
-0.00327367
0.379032
0.0597925
-0.438824
-1.2534
-0.430391
2.99663
-1.53676
-1.45987
1.55424
-1.29767
-0.256573
1.31222
-2.17006
0.857838
0.221305
1.5873
0.0744532
-0.220475
-0.608665
0.82914
0.433747
-0.0547155
-2.96766
-1.16113
0.562551
2.32257
0.0250065
-2.34758
-0.620727
-0.423316
-0.0108269
-0.257718
0.0342595
0.746602
1.33622
-1.18323
1.4229
-0.0208322
0.254367
-0.130545
0.373974
-1.20095
1.46729
0.0388105
0.791112
-0.506241
-0.455949
2.2031
0.0423542
1.50231
-0.555259
-0.442302
-0.70895
1.54332
-0.338854
2.11586
-1.777
-2.18667
-0.357046
-0.570663
1.63525
-1.06458
-0.648078
-0.513052
0.983902
-0.191026
-0.0570865
-0.758262
0.815348
-2.36235
0.796078
0.504306
-0.47881
1.50499
-4.20771
1.94883
-4.58292
-1.46161
1.41464
-1.14688
1.58517
-0.872308
0.0383866
-1.59983
1.8092
0.00231717
-0.508405
0.122775
-1.28635
-0.421156
-1.60929
2.03045
1.67677
-1.02423
4.1968
-2.70292
-1.49388
-0.696056
0.273694
0.725921
0.0678881
-0.793809
-2.25163
0.550711
0.688426
-0.0405334
-0.015668
-0.446115
0.461783
1.94296
-2.51362
0.273218
1.23251
0.274085
-1.50659
-2.4004
2.06155
0.480489
0.124811
-0.6053
2.02185
-4.1322
-0.492918
0.00824135
0.484677
0.624324
-0.143834
0.0365117
2.08471
-1.40986
1.60883
1.53996
-0.843684
-2.73437
0.862552
-1.76554
1.60314
0.162391
1.61637
-2.49704
-1.48641
-0.898076
2.38449
0.084894
1.29943
-0.916412
0.787963
2.76542
-0.356315
-2.4091
0.00404643
-2.74305
1.58568
0.0995649
1.60722
0.837624
-0.536309
0.004376
0.502286
-0.787078
-1.08687
0.0517951
-0.140014
0.0882186
0.045978
-1.86761
1.82163
-0.220663
0.977087
-0.756424
1.87478
-4.86568
2.9909
-0.0418278
-1.54093
-0.0662179
-0.0811577
1.78117
-1.02007
-0.597432
1.6175
-1.19292
-0.968811
1.36436
-0.784084
-0.0610423
-0.534554
0.595596
-1.06418
1.69253
-2.60304
-0.254767
-0.323394
0.578161
0.65963
0.693226
-1.35286
0.136224
-1.65715
1.52092
0.330507
-1.64135
0.424765
-3.09167
-1.7287
-1.22403
2.95274
-2.53058
0.098097
2.43248
-2.92351
-2.1573
0.185516
-0.888074
0.901373
-0.0132993
-3.46581
-0.914895
3.15557
1.16504
-0.581176
0.293138
-1.00209
-0.482502
1.44702
0.498567
0.39417
-1.21133
0.056507
-0.476867
0.42036
-0.359829
-0.118439
-0.33466
0.385262
-0.93544
1.52711
-4.25714
2.08884
2.1683
-0.0115697
2.27266
1.25841
0.688895
-0.0674819
-1.64227
1.89302
-1.36782
-0.819911
-1.63202
0.567979
1.06404
0.163661
-0.332479
0.168818
-1.3127
1.47925
-0.374126
2.10743
-1.15247
-1.28693
1.29922
-2.49213
1.23382
-1.36935
0.135533
0.433046
-0.0520287
-0.0431181
0.0156916
-2.80337
1.81602
1.2289
0.325346
0.0450076
-0.62311
0.578102
-3.77925
1.36069
-1.27058
1.17585
-0.598094
-0.0392769
-0.691495
0.730772
-1.67962
0.659545
-2.83139
2.54705
1.50718
-0.550089
-0.738342
0.676044
0.0622982
0.40662
-0.112558
-0.508586
-2.72187
1.38936
1.33251
-0.498282
0.473898
-0.253632
1.06483
-0.811199
2.17193
-0.457883
0.0667234
0.221906
-0.288629
-0.825523
0.864334
0.0728972
0.0201845
2.13142
-4.86184
2.72687
0.163781
-0.125452
-0.0414116
2.49174
-0.137586
-2.35416
-0.185702
1.15261
-0.966904
1.24754
-2.48947
1.04964
-1.5949
0.545262
-0.0234076
-0.0712988
0.0947064
-2.46782
2.59752
-0.129706
-0.864411
1.42607
0.938358
-0.119653
4.43747
-2.18406
-2.25341
-0.205479
-0.899717
1.1052
0.0124388
-0.960775
-0.0557631
-0.932797
-0.0279787
0.330563
-0.896299
0.565736
-0.261066
2.51887
-2.25781
-2.40215
0.635522
1.76663
0.790523
2.2519
0.0356365
0.28657
-0.322207
1.60131
0.757003
-2.35831
-0.123572
0.230435
-0.829686
2.24682
-1.41713
-1.98321
0.180503
1.67328
0.800719
-2.28713
-0.00523991
-0.364989
0.370229
2.35249
-0.638356
-1.71414
0.918854
0.675697
-2.63977
1.35133
2.39912
-2.55942
-1.32641
0.098289
1.22812
-0.0565173
-0.251801
-0.0154907
0.267292
-0.352435
-0.0654763
0.417911
-0.0256498
0.412637
-0.386988
-0.947889
0.925829
0.0220599
-1.63837
3.34149
-0.947179
0.846079
0.535148
-0.788779
1.04536
-1.63798
0.592621
-1.18618
-1.20199
-0.0915965
0.0970619
-0.0203716
0.00938612
0.0109855
2.55018
-1.51745
-1.03273
0.133754
1.73227
-0.744906
-0.389305
-1.72563
0.384165
0.878768
1.06908
-1.94785
-0.0302186
-0.0495937
0.0798124
-0.0556127
1.06671
0.20763
-0.178883
-0.0287463
3.26109
-2.36854
-0.892551
-4.02207
0.386571
0.137991
1.41867
-0.45027
-0.968399
-1.50781
0.370573
0.869451
-1.02101
-0.000607996
-0.0425101
-0.343081
1.54068
-1.1976
0.499725
0.0692876
-0.744242
-0.615922
-0.741215
0.757575
-0.0231115
-0.182629
3.05789
-0.665523
-2.39237
1.96358
-1.4168
-0.546784
0.824723
1.71873
0.773473
0.143025
-0.705004
0.58037
-0.317342
-0.941009
0.251496
-0.642018
0.218616
-0.439091
-0.157119
-0.00664577
0.433116
0.191208
0.0348494
-0.0582569
2.24957
-2.33378
0.0842149
3.19346
-1.2999
0.751424
0.548479
0.382946
-1.08025
-2.37976
-2.43752
-0.756934
0.713609
-0.531314
-0.804017
1.33533
-2.26232