/*--------------------------------*- C++ -*----------------------------------*\
| =========                 |                                                 |
| \\      /  F ield         | OpenFOAM: The Open Source CFD Toolbox           |
|  \\    /   O peration     | Version:  2306                                  |
|   \\  /    A nd           | Website:  www.openfoam.com                      |
|    \\/     M anipulation  |                                                 |
\*---------------------------------------------------------------------------*/
FoamFile
{
    version     2.0;
    format      ascii;
    arch        "LSB;label=32;scalar=64";
    class       surfaceScalarField;
    location    "2.6";
    object      phi;
}
// * * * * * * * * * * * * * * * * * * * * * * * * * * * * * * * * * * * * * //

dimensions      [0 3 -1 0 0 0 0];

oriented        oriented;

internalField   nonuniform List<scalar> 
20045
(
0.747557
-0.805318
0.0577613
-1.58102
0.565327
1.0157
0.563061
3.08698
-3.65004
-0.466586
0.69535
-0.228765
-1.23872
1.19083
0.0478859
-0.942218
3.36719
-2.42497
-1.47336
0.608592
0.864764
0.084823
0.632561
-0.717384
0.716898
0.603996
-1.32089
-1.2548
-0.137657
1.39246
-0.93826
-0.57654
1.5148
3.33624
-1.57434
-1.7619
0.510221
-0.52931
0.019089
-1.89133
1.64691
0.244415
-0.452838
1.54045
-1.08761
-1.62073
0.365923
0.15828
-0.537717
0.379437
0.712655
-0.759753
0.0470976
-2.54406
3.73175
-1.18769
-1.10165
0.079107
1.02255
-0.702373
0.468632
0.233741
0.161229
0.348993
-0.191688
-1.38934
1.69682
2.1187
-3.81553
1.21975
0.336505
-1.55625
-2.0638
3.76063
0.332237
-0.336051
0.00381388
-2.04418
3.94919
-1.90501
2.4706
0.447616
-2.91822
-4.03941
2.10592
1.93348
-0.789238
0.70489
0.0843484
2.08409
-1.48303
-0.60106
-0.857181
2.54124
-1.68406
3.96748
-2.19142
-1.77606
-0.809173
0.893996
3.15035
-1.55988
-1.59047
1.88669
0.130637
-2.01732
-0.0921226
0.561632
-0.46951
-2.92957
1.44735
1.48222
0.88576
0.780311
-1.66607
0.0714886
0.615877
-0.687365
0.240158
-0.327626
0.0874681
3.42595
-3.42039
-0.00556025
2.23943
-0.849256
-1.39017
1.05275
1.18668
1.4842
1.85204
-0.0359931
-0.319343
0.355336
1.93227
0.708587
-2.64086
2.2647
-0.378007
0.368809
2.88135
-3.25016
1.94486
-3.28857
1.34371
2.65292
-1.85328
-0.79964
-1.76538
-1.22977
2.99515
-0.132244
-0.438727
0.570972
1.01982
-0.562357
-0.457464
-1.00859
-0.230132
-0.788561
2.97361
-2.18504
2.22672
0.338491
-2.56521
2.08931
-2.94649
2.16226
-1.33488
-0.827385
-0.951693
-0.599843
1.55154
1.11185
1.05041
0.280868
-2.07843
1.79756
-0.301839
-0.400534
2.77453
-1.14942
-1.62511
2.13556
0.0651301
-2.20069
0.295262
-0.693347
0.398085
-0.999773
0.247646
0.752127
1.26018
-0.543282
2.4941
-2.54819
0.0540896
0.630788
-0.335526
0.197377
0.822444
-0.378367
-1.5354
1.91377
0.283328
-0.462822
0.179495
2.3566
-0.715393
-1.6412
1.96897
-2.75753
0.23023
2.12637
0.657486
-1.11032
0.0946522
-0.148554
0.0539018
0.384975
-1.78459
1.39962
1.51814
1.70676
-3.2249
1.35066
-1.03904
-0.311623
1.36753
-1.08666
-3.90759
0.640918
3.26667
0.0411133
0.706443
-0.865313
0.969386
-0.104074
0.842411
-1.89537
1.05296
-2.40863
0.0992449
2.30938
1.53743
0.230858
-1.76829
-1.24501
1.15736
0.0876546
-2.10081
-0.309606
2.41041
1.05677
-0.200514
-0.856259
0.6079
-0.847536
0.239636
-0.236779
-1.20746
1.44424
0.850868
-0.914139
0.0632716
2.25892
0.465376
-2.72429
0.308411
0.0238256
-0.273636
0.841783
-0.568147
1.8088
-0.923037
0.263706
-0.580502
0.316795
2.14666
1.00369
-0.659741
-1.23159
0.654211
-0.927847
-0.578356
2.80507
-0.0758445
-0.789468
0.591571
-0.327865
0.659098
1.81504
-2.47413
1.50107
-2.69912
1.19806
0.0586591
-0.683484
0.590114
0.0933695
-0.388744
0.485647
-0.0969034
1.7862
-1.32971
-0.456495
-0.720948
0.588704
1.81915
-3.55563
1.73648
-0.241783
0.463967
-0.222184
0.0763643
-0.469358
0.392994
1.72536
-0.505612
2.79896
1.16852
-1.73295
1.35459
1.89538
-2.55326
0.657879
0.684286
0.0283697
-1.48994
0.538243
-1.13041
0.912835
0.217571
-1.42851
0.151645
-0.848531
0.696886
1.78769
0.865227
1.63017
-2.10117
0.470997
2.38178
0.30671
-2.68849
-3.43685
2.53454
0.902316
0.775514
-2.57114
1.79563
2.75695
-0.969254
0.201291
-0.520633
0.631089
-0.376972
-0.254117
-0.297237
0.239089
0.0581479
1.70863
1.20097
-2.90961
1.78521
-1.73752
-0.0476934
-0.574132
0.252246
0.321886
-0.482783
-0.200701
2.90035
-1.00497
-0.951208
1.00298
-0.0517687
1.78326
-3.52614
1.74288
0.489482
-2.25486
1.64602
0.660133
-2.30615
2.02768
-1.64271
3.18478
-0.408348
-2.77643
1.88526
-1.97429
0.0890255
2.89968
-1.75568
-1.144
-0.219942
0.65337
-0.433427
-0.212239
3.38657
-3.17433
3.16284
-0.692239
-2.4845
0.0864436
2.39806
-1.39626
1.19888
0.197378
2.91662
-1.39848
0.521612
0.829047
-1.8772
2.32211
-0.444904
-2.57787
3.14093
0.035675
-0.56699
0.531315
-0.102528
0.213689
-0.111161
-0.0584865
-0.528999
0.587486
1.5439
1.37983
-2.92373
4.24154
-2.11038
-2.13115
-0.640514
0.582027
1.03058
-2.0187
0.988121
0.292577
-0.0524195
-2.43164
-1.36686
2.02756
-0.660698
-1.99715
1.43056
0.566595
-0.0495857
-0.0589639
0.10855
1.4912
1.40847
-0.129242
-0.167994
0.232494
0.398595
-2.12153
0.244324
-2.19919
2.78437
-0.585181
-1.95718
2.23365
-0.276474
-1.68393
-1.27897
2.9629
-0.781697
1.34023
-0.558534
1.3474
-1.38718
0.0397848
3.13945
-0.137355
-3.0021
0.0215473
-2.23496
2.21341
-1.06731
2.71333
0.564814
-1.61466
1.04985
-1.6464
3.46555
-2.42956
1.60831
0.821251
0.77231
-0.760488
-0.0118213
1.54669
-3.74489
2.1982
-3.15978
1.11559
-1.74649
-1.34093
3.67073
-2.12042
-1.55031
-0.793706
0.865195
0.466258
-0.496967
0.0307095
-2.05925
-0.329861
2.38912
-2.8995
3.99878
-1.09928
2.74731
-2.10615
-0.641157
0.274294
-0.759939
0.485645
-0.959275
-1.3412
2.30047
0.647492
-1.58575
-1.81311
2.58862
-2.28075
-0.722795
3.00354
0.326963
0.0826338
-0.409596
0.443431
-1.81029
-0.644514
-0.144725
2.58306
-0.201278
-0.46501
0.372888
-0.496451
0.595427
-0.0989765
-1.91278
3.45668
-2.47931
1.52004
0.146638
0.25623
-0.402868
-2.07406
0.399651
1.67441
0.783775
1.96353
3.94196
-2.39527
2.42786
-4.16613
1.73827
0.742222
-3.67459
2.93237
0.0852965
-1.18695
-1.4529
2.112
1.93669
-2.87891
1.4655
-2.55404
1.08854
-4.36559
2.56063
1.80496
-0.0427264
-1.20229
0.533223
0.393126
-0.926349
2.10159
-0.695814
-1.40577
-0.422222
-2.3585
2.14626
-0.731917
-0.219291
1.96079
3.22474
-2.59374
-0.631004
-0.0275555
-0.383758
0.411313
1.96847
0.406432
-2.3749
0.661875
-1.23863
0.576753
-0.804171
2.32478
-1.52061
-1.27179
2.1142
1.67839
-1.11357
-0.264442
0.678478
-0.414036
3.00788
-1.22462
0.313626
-0.0325151
-0.281111
-0.216424
-0.667641
0.884065
-0.378704
0.395653
-0.0169492
3.57307
-2.1759
-1.39717
0.7687
-3.6682
-0.419869
0.0411652
-2.57578
0.827169
1.74861
4.20095
-1.65972
0.738284
-2.93748
4.18286
-1.73397
-2.44888
-0.0497038
0.376666
2.55001
-1.45342
-1.09659
-1.80981
0.409126
1.40069
-2.91538
2.92691
-0.0115288
1.15025
-3.37233
2.22209
0.238812
-0.133733
-0.105079
-1.39414
1.8887
-0.494559
-0.268911
1.15464
-0.885731
-0.422381
0.180597
-0.465313
0.0765689
-1.59418
-1.10495
1.16025
-2.50594
1.34569
-0.308236
1.15705
-0.84881
1.1953
0.888787
2.35349
-0.887989
0.00173758
-0.104266
2.09665
2.1043
-1.4626
0.033426
1.42917
1.18939
1.36062
1.12305
0.417403
-0.971663
0.663428
-0.822351
-0.0668261
0.889178
0.0657955
0.706514
-2.45749
1.65332
-0.176908
-0.400774
0.577682
-2.69496
2.61155
0.0834134
-0.938892
1.34647
-0.40758
-0.643279
-0.301859
0.945139
2.26404
-2.47618
0.21214
-2.67843
-1.68716
3.8005
-2.39407
-1.40644
-0.302911
0.275355
3.63823
-2.48798
-1.41938
2.57964
-1.19744
0.0607029
1.13674
2.59966
-0.706571
-1.89309
3.23624
-0.995199
-2.24105
-1.2607
0.0632606
2.47244
-1.45245
-1.01998
-0.492287
2.34958
-1.8573
0.673998
-2.77395
2.09996
0.732508
0.718729
-1.45124
-0.32982
-0.0386101
0.36843
3.87526
-3.35396
-0.521304
-1.91092
-1.52593
2.12982
1.09492
-2.46746
-0.227502
0.480812
-0.697236
0.983627
-2.05138
1.06775
0.0115113
0.454747
-1.61907
3.32771
1.47914
2.09393
3.96685
-2.31942
-1.64744
-3.10519
2.38239
2.09807
-3.55659
1.45852
-1.86267
-0.127902
1.99057
-0.697934
-0.50405
1.20198
1.69749
-0.666908
-0.333886
0.480524
1.48057
-0.0980372
-1.38499
-1.85739
2.50221
-0.64482
-0.583472
0.087021
-0.291381
0.0269385
0.358737
-3.27412
1.05598
-2.32777
0.205441
-0.668586
0.86963
-0.201044
0.0780785
-0.544664
-1.49025
1.11745
0.372808
1.0198
0.766403
2.39886
-0.744779
-1.65409
1.4673
0.317911
-0.987467
1.97109
1.69973
-0.162302
-0.605785
-1.46828
3.21929
-2.63237
-0.586922
2.2662
-2.35791
1.16736
1.19056
2.35979
-2.58247
0.222677
-1.29757
1.06079
-0.361557
-0.212574
-0.347482
-1.75332
0.846637
-1.59206
0.745423
1.25248
1.21996
2.01909
-3.34794
1.32885
0.676917
-1.5738
0.896878
-2.91578
0.507155
0.0392207
1.01755
-1.66397
2.54266
-0.878688
-0.756138
0.906733
-0.150595
-1.1978
-0.275556
-0.362092
-0.658109
1.0202
0.263168
0.00483284
-0.268001
-0.945244
-0.451016
1.13181
1.33471
-2.46652
2.37635
-1.18696
0.761792
-1.34195
0.0443778
1.36321
-0.686296
-1.96166
-0.467901
1.0528
-1.16159
0.108797
2.86004
-0.927766
-1.37157
2.22876
-0.857192
-0.333386
0.377673
-0.0442862
2.09916
0.00242501
-1.14379
-0.907593
-1.50918
2.75306
-1.24387
1.82353
-3.34005
1.51652
1.76996
2.03055
-0.332761
0.269451
0.0633104
0.277624
-2.1403
1.91433
-2.8628
0.948464
0.249641
0.0336869
-0.229021
1.85919
-1.03324
2.08922
-2.59903
3.34126
0.622869
-3.16692
-2.58122
1.40207
1.17915
1.88789
-0.292082
-1.59581
2.78426
-0.520219
-1.47877
-1.56534
-1.35466
1.79095
0.565853
0.382722
-0.948575
0.93489
-0.855783
-2.11883
1.88981
2.6997
0.726248
-2.33844
0.966869
3.15383
-1.024
-0.848227
1.18918
-0.340948
0.0964488
-1.88333
1.78688
-2.70822
0.510537
2.19768
2.47478
-2.47478
-1.17773
2.29067
-1.11294
1.57985
0.819011
2.00265
-1.14154
-0.861113
-2.78549
2.90564
-0.120156
0.96651
-0.123063
-0.843447
0.767387
-0.323762
-0.443625
0.315067
-0.958346
0.767144
1.29185
-2.71123
-2.51326
2.93697
-0.423703
-0.846807
1.97862
0.361292
0.08384
-0.445132
-0.279677
-0.158694
0.43837
-1.10123
1.18652
3.88687
-3.14335
-0.743523
-0.227803
-1.57364
1.80144
-0.66104
0.732929
-0.0718885
0.356866
-0.816087
0.459221
-2.7019
0.957277
1.74462
0.418155
0.277196
-1.17354
0.325312
-0.0511991
-0.480734
0.531933
2.00019
1.87508
0.499229
-0.137937
-0.134081
-0.865881
0.999962
-1.47909
2.35855
-0.879462
-0.0828862
0.353582
-0.270696
1.245
-0.636405
1.87818
-0.561183
-1.317
0.0234772
-1.23094
0.652053
2.4874
1.27135
0.892787
-2.16414
1.3813
-1.23093
-0.150378
-3.03731
0.552808
-1.24594
0.517697
0.728242
1.46621
2.03525
-3.50146
-1.87549
1.74759
0.191659
-2.71705
2.52539
-0.357978
0.632271
0.811678
-0.842411
0.0307331
0.0662001
-0.888552
-0.295037
0.0802314
0.214806
-1.99154
-0.584235
1.83658
0.155643
-0.0720798
-0.083563
-0.337784
0.00439785
0.513687
-2.12481
1.61112
0.798552
1.5636
-2.36215
1.35132
-2.10979
2.59969
-0.489902
-2.15272
1.66043
-0.216942
-0.119109
-1.15952
-0.837631
-0.744899
0.210807
0.534093
-2.56019
1.0811
1.9991
-2.2269
1.27986
1.87396
-0.869141
0.875037
-0.00589589
1.27847
-3.50034
2.22187
0.425639
-0.778637
0.352998
0.921117
-2.0649
-1.88438
-0.0727993
-0.91877
-0.0810031
0.30097
-0.529281
0.228311
1.20844
-0.132292
-0.0855574
0.217849
3.33461
-1.8684
-1.52346
2.52491
-1.00144
0.775097
0.51862
-1.29372
-1.07542
0.717438
-0.6043
-0.1406
1.23275
0.7699
-0.539817
-2.01344
1.12171
-0.0689114
1.8484
1.20759
0.492138
-2.76948
3.13829
0.354676
-1.38242
1.02775
-0.268788
-2.47924
2.74803
-0.902282
0.954966
-0.0526838
-1.06188
0.280187
-1.89244
2.56643
2.18299
-0.297725
-1.28478
-0.205472
0.0454407
-1.22243
1.17699
1.20421
-2.88814
-0.387804
-1.37712
1.76493
-0.314233
0.647466
-0.333233
-1.94575
0.156499
1.78925
2.76997
-2.06138
-0.0611185
0.241058
-0.179939
-0.624947
-0.0360933
0.529139
1.05629
-1.58543
0.381152
-0.469109
0.0879575
1.87206
1.0386
-2.91066
-1.06095
3.31987
0.263005
0.000163596
-0.9026
-1.73293
2.63553
0.88853
2.01182
2.8533
-2.05475
-1.00688
0.644784
-0.502704
0.172884
-1.34793
3.446
0.412191
-2.30574
1.89355
2.5584
-0.432022
-2.12637
-1.43735
2.0904
-0.653048
1.18962
-1.30218
-1.17666
2.47883
0.550065
-0.559218
0.00915336
-0.856079
-1.45456
2.31064
-0.473348
0.193671
0.076417
-0.126003
1.52101
-2.37708
-2.11239
-0.63292
2.74531
-0.184614
-1.42633
1.61095
0.368567
3.9135
-4.0324
0.118895
0.619094
-0.454959
-0.164135
0.0153706
-0.884512
0.772493
0.671749
-0.920464
0.22253
-2.40769
3.05457
-0.646886
-0.767212
0.590304
0.782492
1.24519
-2.67425
-0.746137
-0.356788
-0.20858
0.565368
1.59275
-0.385154
-0.587307
0.646009
-0.0587023
0.900069
-1.16898
-3.4957
1.74922
2.76577
0.601423
-0.377579
0.734445
-0.590009
1.36511
2.66454
-1.3727
-0.603086
0.0157789
-0.304961
-1.81386
0.590211
0.667845
-0.63217
-2.76038
0.052158
-0.0625425
0.613043
-0.187404
-2.55405
1.87548
0.678569
2.12167
0.372436
0.527405
-0.161004
-0.366401
0.803702
-0.744717
-0.0589849
-2.45054
0.890657
-3.07399
1.56481
0.692074
0.174545
-0.866619
-0.138924
0.865516
-0.726592
3.18449
0.000809364
-3.1853
0.524362
0.0344945
-0.558856
-0.391586
-0.73882
0.645931
-0.0380309
0.274044
-0.207129
-0.0669143
1.11342
-0.166535
-0.946883
0.186862
0.0871819
2.41269
-1.94732
-0.0883778
-0.402984
0.491362
-3.10568
0.697997
0.0511897
-0.467722
1.12193
-0.0796206
0.235263
-0.105475
0.107213
0.701309
0.464583
-1.16589
1.57602
1.19851
1.30884
-0.95416
0.620759
-0.544395
0.185675
-0.941813
1.73013
0.118195
-1.84833
1.58402
-0.0973297
-1.48669
-0.792943
-1.18134
-0.989303
-0.138984
1.12829
1.19436
-1.2828
0.0884386
3.26578
-0.0800124
-3.18577
-1.24518
0.231169
1.01401
-1.46546
1.95056
-0.485101
1.75679
1.8972
-3.65399
0.983869
-1.58371
-0.782527
1.26089
-0.478367
0.606338
0.274766
-0.881103
-3.69578
2.29109
1.40469
-0.110414
-0.0967154
-2.53204
0.419655
0.860314
-0.54856
-0.311754
1.46331
-1.83212
0.368813
-0.234859
-0.570459
0.523872
3.38963
2.45707
-0.408381
-2.04869
-2.54306
0.433268
1.01119
-1.61698
2.3642
-3.59706
1.23285
-0.269129
0.802352
-0.0243504
-1.13245
0.998367
-0.446463
0.598108
-0.500611
-2.49375
2.99436
1.4791
2.15913
-2.18803
2.32132
-0.133289
0.495987
-0.195017
-1.78664
-0.760349
-0.329426
0.364049
-0.0346232
1.69204
-0.595102
-1.09694
0.133827
-0.116918
-0.0169091
-0.18552
1.64883
-2.35136
-0.279291
2.63065
-2.31701
-0.711833
3.02884
1.41266
-1.03037
-0.382288
-0.62797
0.0698987
0.558072
-1.0291
0.462447
0.566651
-2.97267
0.16684
2.80582
0.0917043
0.519744
-0.611448
2.35597
-2.67705
0.321075
-1.54733
2.81973
0.379639
-3.19937
0.0199617
-0.349387
-0.0555896
-2.04646
2.10205
1.74731
-3.39371
-2.83649
2.46938
0.367109
0.456193
-0.0750408
2.11241
-1.32992
-0.124065
-0.78937
0.913435
-0.0298423
0.468539
-0.438696
-0.528665
2.64221
-2.11354
2.10477
-1.16602
-0.938753
3.04118
-2.91407
-0.127114
2.30286
-0.854975
-1.44789
0.145174
-0.644168
0.498993
-0.810686
-0.0378452
-2.91292
2.57599
0.336926
0.182145
-3.09506
-0.795441
1.32933
-0.533893
-1.69817
-1.65578
0.525497
-0.464361
-0.0611366
-2.43148
-0.674209
-0.50171
0.324942
0.176768
-0.130482
0.792357
-2.78068
2.66751
0.113172
-0.578477
-0.348086
-0.114737
0.561758
-0.037396
-1.79799
0.40385
0.357818
-0.444807
0.0869892
-2.26157
0.806692
1.45488
1.02213
-0.0556161
-0.727159
1.92517
0.173994
1.03944
-0.184268
0.583063
-0.398794
-0.267481
1.61488
-1.79522
1.16476
0.630458
-0.35067
0.240256
3.50145
-2.02234
3.035
-1.75653
-0.720554
-0.453491
1.17405
1.51129
-2.80817
1.29688
1.63058
-1.8152
2.82925
-1.26686
-1.56239
-0.0139992
-1.51822
-0.277001
-0.617727
2.42699
-1.80926
0.199873
-1.06807
3.49594
-3.16305
0.731574
1.39121
-0.658702
-0.269735
0.234783
0.407537
-0.0118841
-1.46268
-1.4517
4.07326
-2.1043
-1.20655
1.26553
-0.0589747
0.189736
0.577651
-1.94016
-1.21846
3.15862
0.676368
1.02112
0.00150859
-0.387216
0.385708
2.4554
-0.903056
0.0604077
0.842648
1.87349
-0.143355
-1.06709
-2.99093
0.477666
-0.614478
0.032381
0.582097
1.70674
2.47611
1.70048
-1.48466
-0.215815
2.92662
0.114565
1.77059
-2.50024
0.72965
-2.44496
-0.057078
2.50203
-2.38854
3.07612
-0.687579
0.362891
-0.00345928
-0.359432
-1.56062
3.30793
-0.914518
-0.351397
1.26591
0.11844
-2.30647
0.521166
-0.166466
-0.3547
-2.85738
3.74602
-0.888645
-0.695019
1.5669
-0.871876
3.48616
-1.53502
-1.95114
-0.0366254
-1.75664
1.79326
-0.701189
-0.141222
-1.50671
3.2635
1.06779
-2.24552
3.26027
-1.43674
-0.513358
0.424981
-2.58632
0.141367
3.5255
-1.50641
-0.0167491
-3.89084
0.68193
-0.0660534
1.08502
1.51886
-2.60389
1.63119
-0.358041
-1.27315
1.86711
-3.13669
1.26958
-0.469877
0.0298074
0.44007
-0.571216
-1.39596
1.96718
1.01162
-0.825941
-0.802289
0.165328
0.636962
0.354358
0.848297
-1.20266
0.226636
0.298861
-2.72173
3.20973
-0.487993
-0.820066
-0.0822165
1.32149
0.571517
-1.893
1.81128
1.79021
-3.60149
0.442467
1.44542
-0.0573073
3.24208
-0.00690312
2.34722
-2.34032
-0.0786414
-0.00424479
0.309491
-0.0185612
-0.29093
3.73625
-3.50701
-0.229241
1.31668
1.51256
-0.590062
0.391852
0.198211
-0.86929
2.40176
-1.53247
0.0454015
0.418935
-0.464337
1.81488
-2.7186
0.903725
-0.476659
-2.08731
2.56397
2.50464
-0.536172
0.891213
0.739975
-1.17226
-0.122208
1.29447
0.822978
-2.39661
0.313595
-1.41296
1.09936
0.527262
-0.229965
-0.297297
0.106948
-0.808137
-0.206567
2.3259
-2.11933
-0.556033
3.43739
2.30404
-1.84112
-0.462915
1.85951
-1.62865
-1.54329
0.459221
1.08407
0.290952
-1.43249
0.553871
-0.173778
-0.380093
0.149932
0.377472
0.441226
2.18392
-2.62514
0.597324
0.516095
0.368241
-2.68525
-1.25211
0.494185
0.757927
-0.918883
-0.689214
1.6081
1.36807
-0.66676
-2.50753
1.66072
0.868734
-0.673198
-0.195536
-1.32085
2.57059
-1.24974
-1.27893
1.3024
-1.25336
1.58094
-0.327585
-1.6256
2.70087
-1.07528
-0.0622169
0.592035
-0.529819
-0.920011
0.781086
-0.739162
-1.61208
2.57963
-0.967555
-1.60271
2.00236
1.48948
-1.49998
0.0105035
0.834613
0.142604
-0.977218
-3.71979
2.42468
1.29511
0.0566601
0.740818
-0.797478
0.252032
2.06093
-2.58959
2.65687
-1.14558
-1.05755
-1.52367
-2.09755
2.09065
1.4759
-0.0453388
1.1516
0.360463
-1.51206
-0.912061
0.846038
0.0660226
-0.168863
-0.29629
0.465154
-1.09417
-0.886372
1.98054
-0.199031
1.32778
-1.12874
-2.18469
-0.805766
2.99045
-0.253826
1.08844
3.17615
0.560097
-2.50416
1.51329
0.990871
-0.712199
-0.495762
1.20796
0.01577
0.465052
-0.625958
0.160906
-1.81337
-2.4041
1.30992
0.3644
0.554085
-0.408911
0.809711
0.882326
-0.544654
-2.02649
0.080169
0.770699
0.892352
-0.440049
-0.452304
-1.99122
-1.4612
3.45242
-0.338104
-0.834158
-1.48169
-0.311642
1.79333
0.359443
0.511
-0.870443
-0.0399972
3.32452
-2.13385
-1.19067
0.505361
1.95171
0.319958
0.456538
-1.37
0.913465
-1.89748
3.38169
-1.48422
-1.65385
-0.773333
2.42718
-1.2972
0.514677
-1.22305
-0.320245
3.15411
-1.3972
-1.75691
1.25847
-0.753424
-0.505048
1.15408
0.129217
-1.2833
-0.444347
0.536051
1.19675
-1.40066
0.203908
0.444847
-0.07423
-0.566284
-0.0325432
1.83122
1.32289
-1.0305
2.47785
-1.39496
3.50089
0.887136
0.371336
-2.53948
0.885637
2.11937
-1.84175
-0.275074
-1.82049
0.355031
0.457021
-1.25246
2.1466
-2.05015
2.42825
-0.0684592
-0.563084
-0.284451
-0.806294
-0.229289
1.03558
-0.818643
-0.0954968
2.21156
0.413582
-2.62515
0.0872884
-0.72331
0.636022
-0.00836193
1.24055
-2.50548
1.26493
2.56812
-0.212143
-2.96186
3.20893
-0.247067
0.615769
-0.368123
-3.14251
-0.577278
-0.930359
2.67427
-0.0982824
1.34369
3.32463
-1.19818
-2.12645
-1.90654
-0.0867316
1.99327
0.771413
1.39013
-2.16154
-2.04751
0.101762
-0.479913
-0.424405
0.904317
-1.37622
1.78841
0.36783
1.53486
-1.9027
-0.203376
0.691221
-0.487845
-2.87541
0.367578
2.50783
1.17181
1.48505
-0.649145
1.64575
0.657113
-0.877712
-0.368226
2.44766
-2.85601
-0.195722
-0.54466
0.740382
1.67615
-0.69228
1.97512
0.140804
-2.11593
2.14487
-3.53983
0.0335546
0.205257
-0.466096
0.622816
-0.156721
-2.06818
2.01259
-0.0489965
0.763243
-0.714247
-1.3537
0.850104
0.503597
-0.175446
-0.886438
-0.717771
1.72896
0.757426
-0.0653512
-0.406491
0.426452
-0.462693
-0.775935
0.164176
-0.297909
-0.528855
0.506085
0.0227702
0.546937
-0.624166
0.0772288
-1.6346
0.919205
0.41252
-1.89421
-0.0367073
-0.756999
0.0654655
1.60637
-1.67184
0.877865
-0.944691
0.230007
-2.15246
1.92246
-0.755319
2.16006
-1.40474
0.507713
-2.3651
-0.804163
-0.0701114
-2.76638
2.04815
2.02511
-2.20425
-0.303281
-1.29217
-1.06574
-1.14002
0.481911
-0.255812
0.0240356
0.231777
3.74057
-2.03383
2.48748
-0.573146
-0.65896
-0.423666
1.08263
-3.57216
1.65266
1.9195
-1.65761
1.08107
-0.230525
3.05026
0.428177
-0.266948
-1.0611
-1.0067
0.0921785
1.6521
-1.52261
-0.129491
-0.364263
2.57583
-0.461364
1.11089
-0.649527
2.08847
-3.80883
1.70154
2.10729
0.638725
0.57825
-1.21697
1.61298
-0.67087
-0.942109
-1.4682
0.773177
-2.96253
0.047235
1.10685
2.65196
-2.92075
1.10816
-0.50182
-1.19052
2.0135
-2.61006
1.86784
0.74221
1.9746
-2.86518
0.890585
-2.05266
2.15312
-0.100464
1.23723
-1.50472
0.0327769
0.700065
0.712594
0.446139
-2.23073
1.00549
-2.93855
1.66836
1.2702
0.669417
-2.57596
1.96239
-0.123833
-1.68598
0.351714
0.449087
3.01757
-1.00796
-2.00961
-0.562376
0.733588
-1.65247
0.40322
-2.8221
2.73537
-2.22115
0.918969
1.40816
-1.93526
1.12604
0.80922
-2.45049
1.4951
0.955398
-0.613775
0.152517
-0.466751
-2.87267
2.01788
0.854788
1.76134
-3.32196
-2.69211
-0.0296255
3.5412
-1.177
0.603528
0.216636
-0.820164
-0.0647827
-0.403899
0.468682
-0.846396
1.35128
1.56466
-1.21349
-0.721765
0.497238
0.514378
0.655502
1.00047
-1.65597
1.00992
-0.616794
-0.0920649
-3.184
3.27607
-0.920662
1.18855
-2.25586
-2.0589
-1.36836
3.42726
0.67217
-0.872685
-1.91888
0.59197
1.32691
-0.220246
-0.00385618
0.224102
2.56603
-3.06664
0.148189
-0.614284
1.34696
1.6698
-3.01676
-1.37095
0.164395
-2.32779
0.643127
1.68466
-2.83524
2.35858
1.55261
-3.45009
1.01757
-1.21329
-0.134676
-0.0855707
-0.0686411
2.62704
-1.74187
2.16352
-0.421647
2.65107
0.0055404
-2.65661
-1.97357
-0.045323
-0.623263
0.143605
2.33118
0.292057
0.085616
0.664688
2.19511
-0.615256
1.43475
-0.504994
0.33613
-2.61562
-0.165053
-2.53051
0.783837
-2.23726
0.456744
0.519019
-0.975762
2.36619
0.139952
-2.50614
-0.270299
0.266839
-0.973198
-2.1008
-2.23606
-0.346412
-1.43706
3.58193
-0.93949
1.25723
-0.317735
-2.85539
0.864178
-0.768725
1.42423
-0.751889
-1.80216
-1.59913
-0.904597
0.944382
-1.30819
-0.953382
3.05978
-0.385502
1.68232
-0.76717
-0.915149
0.306029
0.372449
0.675859
2.91035
-2.71869
0.0268823
-0.617631
0.857267
-1.41353
1.44696
-1.24897
-1.46055
0.585277
0.461949
-1.04723
-2.53015
0.0553634
-0.332298
2.1759
-1.8436
-0.133217
-2.82865
-1.99067
2.39711
4.1805
-1.90937
-2.27113
-0.378966
0.896662
2.29255
-1.2345
-1.05805
0.686929
-0.761159
0.162836
0.146655
-0.532771
0.0832682
0.449503
-0.334687
1.48629
-1.58255
3.34389
-0.0968544
-0.367506
-0.764461
-0.192198
0.956659
-0.0902993
2.65633
0.0409357
1.48046
-1.52139
-1.0535
1.58263
1.23137
1.17038
-0.963659
-0.288453
1.43053
-0.527397
-0.903132
-0.270186
0.278433
-0.00824729
0.451793
-2.31437
1.86258
-2.6261
0.390045
0.591185
-1.44934
2.23318
-0.0250657
0.711994
0.314972
-1.25446
-2.79305
1.4384
-3.03036
0.919975
-1.21636
0.115131
-1.17018
-1.61006
2.78023
-2.3433
0.684346
0.372393
-1.05674
2.91919
-2.27827
2.30398
-1.53257
0.441499
1.48721
-1.92871
0.615057
-1.09497
-1.37283
-0.604285
1.97711
0.680772
-0.134042
-0.546729
-1.4506
3.38197
-1.93137
2.25424
-1.43244
-0.821803
2.10567
0.0722152
-2.17788
-1.59838
-2.21045
-0.898748
-0.020022
1.08058
1.67637
-0.0471417
0.222162
-0.175021
-1.87869
-0.449099
2.03471
1.69704
-1.49294
1.77145
-0.278517
-0.92735
0.987758
0.0433129
1.02656
-1.06987
0.571493
-1.03286
-0.309328
-2.56334
-2.47984
0.804605
0.064129
-0.643253
-0.00126073
0.189765
2.09226
-2.28202
-1.42418
-0.373813
1.27303
1.10333
0.190037
-0.67282
0.678153
0.166608
-0.844762
0.247
-0.988587
0.741588
0.620166
0.726306
0.998502
2.3204
-1.06793
2.47524
-1.28669
-0.276465
-0.667918
0.944384
2.1119
0.237688
0.0927628
-1.84898
1.27776
1.50432
-1.59462
-1.41825
-2.0621
3.48035
-1.79862
-1.77353
-3.23954
3.34263
-0.103094
1.10537
-1.06894
0.839648
1.56139
0.759015
-0.949567
0.505009
0.444558
-0.84559
-1.7026
-0.445007
-1.317
1.76201
1.3677
-0.691337
1.44115
-1.12756
1.63148
-2.60468
1.32626
-0.989757
-1.63223
3.01537
-1.38314
2.05084
1.37474
0.826619
-2.20136
3.22464
-1.81391
-1.41073
-1.68906
-1.90159
3.21422
-1.31263
0.855548
0.826771
-0.746276
0.72121
1.19783
2.28833
-0.552398
0.487616
0.0824572
-0.214749
2.70796
-1.50698
1.28325
2.45732
-1.07735
0.545456
0.531893
0.599252
-1.31981
2.12294
-0.147822
1.12455
-0.521021
-1.88929
-0.382215
2.27151
0.484131
-0.104354
-0.379777
0.34749
0.271604
0.380239
-2.76878
-0.735139
0.801339
1.96589
-1.70968
-0.256211
0.434843
0.995686
-0.36823
0.207226
0.648492
0.629282
-1.27777
-1.22599
3.3153
-0.147429
-1.6029
3.25779
-1.65489
-0.804891
1.15925
-0.253658
0.0502823
3.05396
-1.52396
-0.943502
0.781304
0.831675
0.78333
-0.820037
-0.461176
0.398959
-0.789601
-0.341846
0.00406168
0.0956794
-0.40255
2.27371
-1.87116
0.43394
-0.485139
-1.05769
0.268324
-0.862832
-0.0359159
-2.72947
1.82687
0.625974
0.63492
-1.21155
0.195025
1.01653
0.767049
0.202337
2.3175
1.25327
-3.57078
-0.220933
-0.0636815
0.284615
0.476816
-2.00028
2.81801
1.36249
2.18639
-1.99662
-3.24952
-0.123474
-0.10735
-0.118004
1.29194
1.10641
1.20683
-2.31324
0.96432
-0.0864553
-0.110075
-0.866423
-0.210926
-1.39429
-1.2522
1.54315
1.33324
1.19167
1.56031
-1.62691
0.0665976
0.490168
0.0159174
-0.173941
0.645678
-0.0987406
2.1106
0.585403
-2.696
1.74849
-0.0963914
-0.578597
0.343384
0.235213
-0.877957
-0.00438621
0.882343
0.67505
1.64251
-2.31756
0.600318
0.767751
1.92497
-0.0440824
-0.676866
1.64802
0.547094
0.194895
-0.275692
0.0807977
-2.81954
1.47861
2.33264
-1.86517
-0.467468
0.0424981
-0.358912
0.316414
2.3758
-2.58237
1.58669
-0.218986
1.18286
1.12112
-0.294945
-0.0469013
-1.59822
0.421348
1.17688
-1.52595
-0.302814
2.99294
-1.53059
-1.46236
1.35861
-0.195118
-1.1635
1.08304
-1.86926
0.786213
-0.275193
1.37168
-0.00846832
-1.38041
2.5411
-1.16069
-1.1396
-0.458621
-1.23113
0.71514
0.395751
2.60477
-0.00987584
-2.5949
-0.744004
0.182552
0.709801
0.53904
-0.147189
0.744925
-0.122109
-0.563618
0.697445
0.0184955
-0.0188982
-0.416117
0.340273
-1.05143
1.49293
0.0406818
0.627163
1.06088
-0.829993
2.0253
-0.162506
1.72282
-0.532103
-0.268075
-0.619628
1.26812
-0.402801
2.53736
-2.13456
-2.21984
-0.312201
-2.05002
2.92316
-0.87314
-0.513946
1.22909
0.790123
-0.157562
-0.0518432
-0.606545
0.658388
-2.25767
0.733708
0.24352
-0.304638
1.45377
-3.39393
1.09723
-2.83016
-1.58105
3.69976
-1.32021
1.31393
-0.684647
0.0315307
-1.69001
2.1418
-0.00643916
-0.377319
0.418618
-1.44899
-0.252273
-1.63849
1.89076
-0.592667
1.35709
3.89428
-2.58511
-1.30917
-0.554743
0.193293
0.577936
0.0542351
-0.632171
-2.14611
0.40424
0.44407
0.0831922
-0.0268484
-0.291195
0.318043
1.08989
-3.13991
0.235556
1.17432
0.0784257
-1.25274
-2.83054
2.42773
0.371092
0.0918459
-0.462938
0.959374
-2.57145
-0.321342
-0.0185148
0.339857
0.482252
-0.11116
-0.0356988
1.90442
-1.46196
1.59921
1.27747
-0.677148
-2.89761
0.838715
-1.80065
1.43673
0.363915
1.89358
-3.31183
-1.29197
-0.798986
2.09096
0.192102
1.00678
-0.74402
0.620957
3.07771
-0.473445
-2.60426
-0.0110795
-2.60455
1.91927
0.186397
1.08692
1.20563
-0.36377
-0.0234465
0.354308
-0.729261
-0.862798
0.287703
-0.189456
-0.098247
0.0318995
-2.61428
2.58238
-0.125422
0.732223
-0.606801
1.15521
-2.70613
1.55091
-0.310054
-1.42746
-0.105203
0.202146
1.78707
-0.877281
-0.487697
1.36498
-0.932625
-1.05892
1.12396
-0.662015
1.17773
-0.060588
-1.11715
-1.47281
0.261264
-1.81783
-0.352493
-0.0492937
0.401787
0.322688
0.762602
-1.08529
1.06469
-2.29209
1.2274
0.0386439
-1.42798
0.491301
-3.34868
-0.979058
-2.41803
3.39708
-2.55078
0.123965
2.42681
-3.38954
-2.10107
0.0484123
-0.69592
0.720741
-0.0248206
-3.55748
-0.941591
3.05219
0.94861
-0.484028
0.211657
-0.831285
-0.418918
1.18667
0.357799
0.196148
-0.960609
0.0446248
-0.376177
0.331552
-0.450301
0.230359
-0.244722
0.28722
-0.679402
1.31813
-2.5963
1.56138
1.03492
-0.787348
0.453462
1.55482
0.471181
0.0129499
-0.634347
-0.31522
-1.24711
-0.671764
-1.38428
0.487669
0.896613
0.0154352
1.04692
-1.06236
-1.02361
1.27061
-0.186452
1.86087
2.92847
-2.88753
1.42923
-2.36186
1.12471
-1.53613
0.411415
0.230941
0.0101171
0.268225
0.00122579
-2.76442
1.59424
0.293839
1.06477
0.0340204
-0.492892
0.458871
-4.30136
1.72349
0.203099
-0.87074
-0.476026
-0.0513589
-0.533258
0.584617
-1.41785
0.540566
-2.75871
2.44938
3.22036
-1.8734
-0.558425
0.503808
0.054617
-0.515791
0.307211
-0.348191
-2.52664
0.644793
1.88185
-0.32715
0.263468
-0.217688
0.814344
-0.596656
1.03149
0.555197
0.644257
-0.623994
-0.020263
-0.652455
0.693136
0.271968
-0.0223271
1.48511
-2.33217
2.7436
0.183016
-1.53669
-0.358681
2.51188
-0.0661349
-2.44574
-0.617312
-0.357675
0.974987
1.39754
-2.86022
-0.588929
1.75604
-1.16711
0.0619999
-0.131018
0.069018
-2.52634
2.49805
0.0282822
-1.15048
1.38049
1.37184
0.732928
2.60019
-0.948843
-1.65135
0.0950509
0.3412
-0.436251
-0.771206
-0.774758
-0.0359281
-0.744366
-0.0303925
0.0420045
-0.827584
0.78558
-0.225635
2.49563
-2.27
-2.29
0.870864
1.41914
0.723076
2.46142
0.109381
0.0361992
-0.145581
1.45381
0.633973
-2.08778
-0.0330892
-0.222723
-1.08824
2.59155
-1.50331
-2.26575
0.376455
1.75057
0.714703
-2.00667
-0.00591665
-0.281375
0.287291
2.95955
-0.926423
-2.03313
1.26138
0.540192
-3.02345
1.57175
2.91063
-3.0027
-1.33297
0.323217
1.00976
-0.296806
0.270282
0.851955
-1.12224
0.287079
0.150851
-0.43793
-0.0259699
0.284509
-0.258539
0.732576
-0.834594
0.102018
-1.48291
3.11439
-0.718758
0.764199
0.332931
-0.550619
0.924608
-1.38524
0.460632
-1.49297
-1.11708
-0.849121
-0.179977
-0.0364771
0.00577599
0.0307011
2.7313
-2.03488
-0.696423
0.303834
1.66206
-0.584771
-0.32729
-1.43096
0.208526
1.54812
0.703409
-2.25153
0.000764777
-0.0363292
0.0355644
-0.0574129
0.861114
-0.0410395
0.367906
-0.326866
3.36195
-1.35917
-2.00279
-3.08858
0.594828
0.886745
-2.16576
0.0154166
2.15035
1.01532
-2.04855
-0.973682
0.50596
0.174857
0.0933679
-2.03744
3.33259
-1.29515
0.345885
0.0822915
0.0462835
0.422348
-0.575827
0.478972
-1.02994
1.26111
-1.81772
2.05661
-0.238896
1.79264
-1.04304
-0.749595
1.52392
-0.903754
0.582959
0.14997
-0.562057
0.465154
-0.0534507
-0.985586
0.825209
-1.99123
-2.53573
1.15533
-0.737898
1.20035
0.332701
0.149552
0.0302261
0.0317738
2.30043
-2.32059
0.0201534
2.30834
-1.24555
0.47446
0.771094
0.23138
-0.849011
-0.99219
-2.34513
-0.590509
0.486154
-0.411175
-0.680172
1.09135
-2.04798
0.445266
0.608673