/*--------------------------------*- C++ -*----------------------------------*\
| =========                 |                                                 |
| \\      /  F ield         | OpenFOAM: The Open Source CFD Toolbox           |
|  \\    /   O peration     | Version:  2306                                  |
|   \\  /    A nd           | Website:  www.openfoam.com                      |
|    \\/     M anipulation  |                                                 |
\*---------------------------------------------------------------------------*/
FoamFile
{
    version     2.0;
    format      ascii;
    arch        "LSB;label=32;scalar=64";
    class       volScalarField;
    location    "1";
    object      p;
}
// * * * * * * * * * * * * * * * * * * * * * * * * * * * * * * * * * * * * * //

dimensions      [0 2 -2 0 0 0 0];

internalField   nonuniform List<scalar> 
13486
(
2.1232
1.70583
0.125063
-0.781004
0.463414
0.0705474
-0.00101292
1.04738
1.38255
0.8163
-0.748553
0.408395
2.24213
-0.134228
0.393732
0.893709
-0.997444
0.150741
0.467903
1.90798
-0.733657
2.21341
1.68888
-0.331108
0.766905
-0.315925
-0.829026
-0.259031
0.048391
-0.151759
-0.467261
0.365319
-0.438796
-0.1313
1.05402
-0.0103935
0.0655427
1.69084
0.0653477
1.41171
-0.521844
2.33587
0.0404756
0.778775
0.744927
0.397115
-1.50575
-0.0380476
0.0707987
-0.227031
1.25359
0.048337
0.393733
1.72256
0.143213
0.53772
0.107977
0.0659201
-0.422199
0.0958319
-0.678699
0.110933
-1.12495
-0.727698
-0.140011
0.0715621
-0.723334
2.14228
1.37079
0.0804045
-0.7294
0.157637
1.42552
-10.4867
0.0753589
0.111459
0.0821259
0.367047
-1.29375
0.0742689
0.0314822
1.74734
-1.15689
0.21822
2.13143
1.02476
0.159583
1.25464
1.44506
0.904404
0.334742
0.872213
2.02812
1.83655
1.4213
-0.0228647
-0.82004
-0.628553
1.3838
-1.00445
0.019751
-0.0579827
-0.613912
0.0515623
1.24206
-1.01753
1.46265
0.0605047
-1.38172
0.684283
1.27686
0.155043
1.72173
0.0441022
2.54427
1.3523
0.763158
-0.130501
1.43979
0.0629963
0.163807
-0.68638
1.50075
0.0840463
1.27673
0.0613289
0.9387
0.473591
-0.0783571
-0.0934447
0.0647139
-1.54957
-5.74175
-7.91299
1.29405
1.1755
2.71703
0.739291
0.05762
1.11072
-0.406499
0.370181
0.442829
0.0578786
0.0698436
-0.747502
0.213691
1.98723
-0.275293
0.0609484
0.895072
0.276793
0.0136502
1.78495
0.534658
0.165327
0.427714
-1.28093
1.50501
0.135537
-0.209101
1.50549
0.220459
2.32827
0.0356949
-0.338377
0.0829506
3.00995
0.206756
-8.36741
-4.87633
0.512776
1.05292
0.712446
-0.0121047
-0.443147
-0.411871
-0.505598
1.44485
0.452054
1.29003
0.062811
0.582217
-0.652558
0.21926
-0.262699
0.0179553
-0.142532
-0.398443
1.44609
0.057694
0.10298
0.0350478
1.94896
0.0538484
-0.762318
-0.101435
-0.166605
1.89668
-0.27205
-0.416884
0.477554
1.69407
0.082476
0.131843
0.0499753
1.2283e-06
1.54633
0.0705761
0.207749
-0.163934
-0.214287
1.88563
1.45496
0.0491485
-0.00808769
-0.17861
0.921097
1.91004
-1.28219
-1.00812
-0.296912
1.14965
-0.208743
0.309338
2.06797
-0.15168
-0.313904
0.00490907
0.157752
1.28109
-1.11296
-0.414356
2.38805
-0.579892
1.983
-0.132527
0.138778
2.00581
0.624489
-0.418271
1.07012
0.0740379
1.87884
0.0871329
1.64106
0.678443
-0.236139
-8.67291
0.858883
-0.569875
2.57942
1.29274
0.0457387
0.0293509
-0.468704
0.369336
-0.0134974
-1.12281
-0.41014
1.58134
0.085511
0.398083
-0.476343
0.492702
-0.654461
-0.00654086
-0.507964
1.40701
0.217326
1.51242
1.41704
-0.190374
0.356577
2.07267
-0.2188
0.00977387
0.0805527
0.0654183
0.218629
0.0745617
1.14295
1.4752
-0.490291
-0.680542
-0.942191
-0.437428
-0.108471
0.309281
1.38591
-0.607455
0.0962985
1.41701
1.32445
-0.126584
-0.133256
-0.177072
0.325045
1.47467
-0.174265
0.213576
0.0511098
0.216278
0.387124
0.0588978
0.112182
-1.42319
0.655532
0.14745
0.0558771
-6.22326
-0.80572
-0.155726
0.183501
-0.653532
1.19476
0.0953011
1.42572
1.56266
-0.0345525
0.0792942
0.0814162
1.44541
1.83978
2.65855
0.347352
0.799818
1.11993
0.31675
0.721307
1.22679
0.806616
0.319275
2.00307
-0.0288871
1.33156
2.62932
0.317825
0.927006
0.0922579
-0.0115918
1.82164
0.672911
0.588617
-0.63569
0.0103023
0.912773
2.52696
-1.2243
0.0977038
0.902206
0.282854
0.34642
-0.805946
1.47249
0.0393729
-10.4473
0.936182
0.128976
-0.206595
0.508394
0.343081
1.5923
1.42108
-0.168058
0.000567496
-0.131471
-1.77206
1.92768
0.962374
0.0863722
0.933988
0.307935
-0.576702
0.0380314
1.32388
1.46333
0.0887835
-0.647117
-2.88098
1.36643
0.754429
2.2556
1.58947
-1.7046
-0.00904712
0.294991
0.919382
-1.59992
-0.920108
1.85204
-0.212538
0.707412
2.01428
2.13046
0.0485492
-0.767997
-0.580843
-1.22165
-0.473179
-1.45529
0.415958
1.26114
-1.70353
0.0626708
0.207103
1.80544
-0.490202
0.986761
1.6199
0.936655
-1.1024
-0.230402
1.48295
1.45208
1.88908
-0.633034
0.519304
-4.39096
0.646548
1.44121
-1.11743
2.53749
0.987079
-0.126966
-0.148203
0.464447
1.49488
-0.855495
0.163932
2.1931
1.29246
0.683827
0.303331
0.298164
-0.274696
2.24972
0.09177
0.762433
2.10698
-1.7311
-0.19908
-6.89655
-0.245472
0.159497
1.65197
1.77504
2.20799
-2.80657
0.0612557
-0.637406
0.974022
1.46785
-0.224613
-1.14697
1.42659
-0.596491
-0.422692
-0.48861
-0.718724
-0.0402906
1.76565
-0.00088122
0.186049
-0.811175
1.38027
-0.00834525
2.81935
2.05124
1.41972
0.969766
0.0434655
-0.0023311
2.61115
0.0196552
0.0466796
-0.129741
1.34358
-0.956315
0.330434
1.08155
0.0655681
-0.402535
1.66945
-0.861508
-1.09639
1.043
-0.822686
2.99869
1.08318
1.24473
1.5521
-0.465309
0.259877
2.40513
0.384471
1.85132
-0.109506
0.579289
-0.464044
0.0431438
-0.00763311
-1.02571
1.49075
1.31732
-0.560649
0.0255866
0.0249748
2.15087
1.65892
-0.0129577
1.34993
0.983881
-0.401397
0.450942
1.28446
-4.92398
2.21985
0.0580083
0.0830549
2.31678
0.755039
-0.0777903
0.893451
-0.368766
-0.606978
0.56979
0.617706
1.52737
2.03376
-0.685568
0.304556
-0.714311
-0.0110657
1.9704
0.537414
-0.643298
-0.593968
-0.913533
-0.734918
1.02521
-0.127475
-1.059
1.35377
1.97352
0.114498
1.56696
-0.793455
-0.58122
-1.70405
0.733005
-0.654803
1.56814
0.219987
-0.657691
1.12967
1.63523
-0.393808
-0.701467
1.28464
1.97491
0.519721
2.14415
0.253822
1.01614
0.513623
1.56793
0.0590021
1.91675
-0.813679
0.391022
1.26971
-0.0492615
-0.231718
1.4695
-1.87409
0.338905
1.72537
2.21209
-0.102831
-0.957077
0.491563
0.347198
1.26645
1.05103
-0.0699151
-0.77481
0.253928
2.10474
0.407629
0.209129
-0.289979
2.22749
-0.019523
0.064067
1.40479
0.937971
0.0450476
-0.0626275
1.06143
0.277549
0.173169
0.682177
-1.01159
2.15262
1.31953
1.02399
1.04467
0.263039
-0.438594
2.44656
0.606007
2.45078
-0.339032
1.39466
-0.000410149
-9.66692
0.563842
0.85353
2.5805
-0.234758
0.70428
0.752458
-1.27437
0.822039
0.0876919
-0.521402
1.34277
-0.702787
-0.215803
-0.276946
-0.194688
-0.0615076
1.53621
0.0119099
2.36962
1.38047
0.123452
-0.582576
-0.170946
0.605173
-0.695285
-0.27897
-1.01268
1.96698
-0.00340158
0.0618125
-0.573559
2.26149
-0.0016923
0.23484
2.315
1.31503
-0.620683
0.0907268
0.945316
0.343954
1.25388
0.0626239
-0.13619
0.678658
1.27361
0.555894
1.10702
2.35217
0.0732246
-0.422264
1.47074
-0.986002
0.046698
0.85364
1.09423
0.702123
-0.63139
0.198505
0.0862322
0.295709
1.96674
0.581289
0.274427
0.234122
-0.703871
0.0412116
1.45925
0.134986
1.21862
1.30972
1.99558
0.19795
-1.2089
2.43178
0.032748
-0.598242
1.4803
-0.290797
1.61569
0.0603716
1.38696
-1.7231
-10.5305
-0.263424
-0.00252989
-1.03665
0.833273
2.51219
-0.0522719
-0.660553
-0.196452
1.49664
0.206935
0.71129
-0.594241
2.50169
-0.631114
0.671919
-0.252184
0.887439
1.46152
0.603306
-2.7121
-0.797793
2.28695
1.53107
0.269706
1.29316
-0.515915
1.04326
1.00694
0.898373
-6.21249
0.0306714
1.78051
0.0112775
0.0635465
1.02558
-0.60277
-0.0282312
0.0627732
1.53507
1.52561
-0.430832
0.253369
-0.618196
-0.782101
0.294281
-0.0554176
0.336881
1.39995
0.0333557
-1.36567
1.61236
-0.648493
-0.0602436
0.137297
-0.267336
-0.457049
-0.250065
0.0848176
-0.48239
1.24577
2.23845
0.0424718
-0.0588096
2.32196
2.16495
-0.112939
-0.106844
1.39009
-1.89971
0.0822713
0.194406
0.199352
0.568994
-1.06076
0.786618
1.03584
-0.224051
0.0406447
-0.371279
0.0607583
1.14245
0.687872
0.836278
-0.45667
1.27137
2.11743
-0.956918
-0.484162
1.53029
-0.0173504
0.855357
0.0702739
-0.156907
-0.473031
0.101693
1.48202
2.45739
1.54439
0.256049
0.0479961
1.45102
2.05618
-0.156007
1.44852
1.44105
2.18374
0.0536029
0.0868934
0.39427
-0.00899768
2.16423
0.242977
0.125505
1.00653
0.0383117
0.414809
0.155072
-0.569893
1.38032
1.19666
1.06279
0.737585
-1.13677
-0.0139772
-0.0380294
0.585428
-1.05832
-0.73034
0.0694939
-0.403823
-0.646462
0.851426
-0.150956
-8.82183
-1.18862
-0.0224194
0.85891
-0.797915
-0.406972
1.58147
-0.392991
2.22034
-0.277456
-9.18319
1.63081
1.98299
0.0801161
0.223017
-0.260907
1.48981
0.536657
-0.981037
0.0692135
0.0511134
0.0468216
1.40647
0.0676382
0.920672
0.0990501
1.3535
-0.861685
0.0598979
0.0391525
1.69372
-0.341653
-0.721434
-0.288977
2.19449
0.214437
-0.399308
-0.770516
1.4444
-0.494548
0.0873943
0.402211
0.535514
0.178362
0.854902
-0.131082
1.22385
1.41913
1.60126
0.737672
0.0902217
-0.044799
1.12979
-0.431189
1.66028
1.01592
0.0646676
0.0656208
0.0215454
0.159403
0.0581291
1.60632
0.728971
-0.77161
1.43336
0.138531
1.05635
2.54784
0.169756
-0.927825
1.02169
0.207955
0.0533018
-0.00118075
-0.7775
1.41407
0.077044
0.00275756
0.0577123
0.228812
1.78708
-0.615884
-0.00488356
1.45263
0.205758
2.05333
1.6296
1.87459
0.370733
0.943317
0.462015
0.148063
0.904548
1.36976
-1.36338
-0.0509684
-1.26508
-0.109732
-0.574546
1.43056
-0.664165
-0.399051
-0.38647
-1.39027
0.0303328
1.4443
0.0228533
0.319171
-7.05784
1.47164
2.50398
0.225453
-0.615212
0.867252
-0.580448
1.43631
0.115243
0.089392
1.67327
0.0677034
2.3605
0.935009
1.44508
-0.129885
1.83037
0.0643657
1.63865
0.0518396
-0.415386
-0.428195
-0.244846
0.955354
0.173254
-0.704
2.20933
1.45951
1.54668
2.00034
1.58539
1.69051
-0.0299008
1.41115
1.44842
1.49818
-0.035587
-0.125607
-0.217818
-1.43967
0.410879
1.52936
-9.9274
2.38511
-1.33742
0.065274
2.4396
2.0252
-0.0321958
-0.243647
1.40157
0.809746
-0.612916
1.25815
-8.24928
-0.274294
1.43514
1.94528
0.0853501
1.4997
1.81226
0.0094634
-0.166411
1.83153
0.611049
0.0615251
-0.739103
0.204575
-0.539706
1.36057
1.13229
0.0746101
-0.281482
-0.169794
0.379246
0.0690079
0.40289
2.09251
0.049923
2.74756
1.43704
0.447996
1.57224
-0.617814
-4.73192
-0.502265
1.41187
0.0854532
-5.75349
-0.360447
0.812405
0.883785
0.0896112
0.787965
-2.04445
0.581916
0.211576
0.0919442
1.09946
0.47066
1.81629
1.4848
1.50392
1.32283
-0.0524577
-0.367588
-0.330276
0.209323
-0.133211
-0.0546558
1.07793
-0.295572
0.0711204
0.0783386
0.229327
-0.581934
1.00328
0.728764
0.149739
-0.170555
0.642284
-0.305983
-0.294314
0.325786
0.178859
1.4974
1.12182
1.78966
-7.00947
1.29254
0.0607593
1.97309
-0.134272
0.846018
0.235829
0.0473148
2.31475
2.47957
1.18938
0.47364
1.04316
1.21949
2.34199
0.816723
-0.400349
-0.589922
0.365744
-1.45416
-1.20765
1.43547
1.38886
0.179976
-0.154973
1.02751
1.29867
2.57063
-0.689709
1.16375
-1.25233
0.12619
2.05073
-0.00639061
1.09119
-0.0587026
0.769303
0.600102
2.69831
0.151321
-0.232462
0.821
0.335505
-0.650158
-8.97323
0.180978
1.58645
0.147359
0.508485
2.16267
1.98164
0.040555
-2.42519
0.14762
0.356907
1.61004
1.41625
1.95427
0.848697
-0.760782
2.0593
1.17614
-0.942208
0.959542
1.46596
1.74907
-0.600829
-1.13327
0.00529602
1.25693
2.28168
0.662771
0.246428
-0.4837
2.58461
-0.900484
-0.434534
2.3875
1.24998
0.218466
1.06979
-0.732601
0.636667
-0.0698404
-0.886889
0.0779911
-0.503677
0.260351
-0.0416518
-1.91897
-1.01711
-1.1065
-0.852703
-1.30985
-0.577669
1.44509
1.36075
0.394246
-1.96363
0.357663
0.332571
-0.0527914
2.73259
0.769019
-0.292865
1.33993
-0.0977237
-0.49767
1.00637
0.986293
1.33998
2.78062
0.0509919
0.0204915
-0.319752
0.242807
0.820082
1.28264
-0.259764
2.08846
1.02324
1.53538
-0.403245
0.0750514
0.133411
1.39448
1.44943
1.44235
1.44623
2.5347
2.45564
-0.101956
1.29523
1.80831
-0.297805
1.95466
0.0541609
2.42397
1.93447
0.253183
1.61489
0.766252
0.9537
0.128419
1.45764
-0.360324
1.18472
0.296906
0.734994
0.0889609
1.4183
0.0676335
0.417426
2.33415
2.32885
0.835494
-7.98733
0.388674
-0.716393
0.0161313
1.19076
2.06872
-7.33429
1.49117
1.28625
0.666912
1.3904
-0.552133
-0.0415664
0.0934634
2.6165
0.235118
0.12581
1.64883
0.13504
0.0861806
0.843778
0.376374
1.13745
0.115489
-0.1387
0.80547
1.00193
0.761001
0.916019
2.48271
2.00696
1.72365
2.09922
2.28326
0.551275
0.0487568
0.0857503
-1.64049
2.30478
-0.252951
1.38491
1.19275
-0.605536
0.601913
1.56611
-0.2353
0.670596
0.948826
2.81666
-0.796985
0.615922
0.18818
1.56069
0.167008
-0.546704
2.26149
1.90175
1.30275
1.44879
-0.101883
0.253452
-1.05904
2.44974
0.0551366
2.67677
-1.21849
0.27422
-5.1502
0.419496
-10.7033
0.326302
0.059748
0.608102
0.158029
0.642258
-0.551332
-0.00273933
0.00583628
-6.88308
-0.210666
-1.0281
0.203013
0.0177803
-0.965308
-0.673986
1.36021
1.39402
1.88609
1.45463
0.562406
0.564944
3.04979
1.34469
-0.872081
0.00425391
0.0708982
1.14508
1.20721
2.09426
-0.425126
-0.423028
0.983342
-0.00171083
0.393385
1.78608
-8.73263
-0.617114
-1.11979
2.48144
-0.652583
0.954352
1.78852
-1.44081
1.02639
0.0360506
-0.76538
-0.757881
0.121012
1.04056
1.63791
1.74893
-0.907546
-7.35463
0.690627
-1.17144
-0.150698
-0.0652688
0.345378
-0.057709
0.129753
-0.575239
-0.783217
-0.33047
2.17466
-0.706607
2.40022
-0.648617
0.0603173
0.482884
0.208632
1.99335
1.28278
1.69473
0.191505
-0.064548
-0.76857
1.91917
-6.85078
1.10163
0.0830313
1.75475
1.99368
0.0905516
1.45092
2.29099
1.49635
1.53662
-3.18595
-0.366367
0.573059
-0.258302
0.0611277
0.684761
0.788048
0.159775
-0.784104
0.405685
0.112115
1.09901
0.861078
-0.206328
2.41517
0.227018
0.0185677
0.308078
1.42476
-0.101247
0.0128109
1.49302
-0.488267
0.199054
7.83774e-05
1.41355
1.43406
1.34029
0.131405
1.36845
1.64887
1.55408
-0.0844956
0.0752591
0.438583
1.16019
-0.472435
-3.8227
-0.380659
-1.08814
-0.725488
0.00539364
0.0447069
0.0793533
-8.33477
-0.319098
-0.576914
0.114532
-0.0673502
0.65376
-0.688363
1.5361
3.03941
0.564164
0.00735926
0.726941
0.306758
0.377698
-0.0230808
-0.135012
-0.365436
0.259086
1.84276
0.0344889
2.24488
0.0210892
1.32944
1.04062
0.585194
-3.56984
0.498432
2.55842
-1.00137
1.45995
1.39765
2.08255
0.212567
1.89249
1.44224
-5.82227
1.5573
-0.803814
-0.959928
1.94432
1.25571
-1.00027
0.0730007
1.83215
-0.555443
-0.202657
0.0427504
0.0614058
1.12863
0.842899
1.44515
1.21801
1.16713
-2.51628
-0.219729
-0.0797726
1.41963
2.66902
-0.170204
-0.941145
-4.08506
1.31761
0.203088
0.25363
0.263419
-0.0790053
1.00538
-1.66224
0.228151
2.39331
0.767061
0.18774
-0.51767
-0.614604
-0.262358
-1.192
-0.335636
-0.61068
1.70208
0.899628
-0.270668
2.35854
0.0251313
-0.736824
0.0044968
-0.944956
1.47571
-6.38052
0.605546
1.3494
0.159845
-0.0998536
0.0800661
-0.87183
-0.331516
1.55526
-0.590778
0.0590171
-1.06858
1.39533
1.51487
-0.640741
1.77195
1.61861
2.15362
2.22291
1.51666
0.348645
2.63042
-1.14183
1.28753
-0.105454
-0.457949
1.73348
-0.417323
2.19361
0.751056
-0.805944
-2.37556
-1.69752
1.54167
-0.354712
-0.0716286
0.217298
-1.2281
0.179249
0.97731
0.435792
0.921484
2.47837
-10.2379
-0.311381
-0.585445
1.38358
1.10511
-0.214716
2.9996
0.0607275
0.114639
0.964437
-0.986709
1.39376
1.39366
1.59009
1.58482
0.198627
0.625976
1.32203
0.33601
-1.74137
0.0174655
1.46467
1.56276
1.93227
-1.06805
0.150385
0.347599
0.925264
0.34739
-0.405598
1.20436
-0.0345145
1.2722
1.49562
-1.00846
2.23967
-0.208953
2.51293
1.55922
-0.548411
0.0036935
0.0512559
0.631073
1.52064
-0.503529
1.90015
1.37745
0.429644
0.0482848
0.357186
-0.191269
0.416816
-1.05579
0.678654
-0.296552
1.41189
-3.45009
-0.184052
-0.074168
1.75061
2.01845
0.783147
-3.07496
0.786585
0.0420423
0.212302
0.868215
-1.3833
-1.0253
2.39749
-0.488506
0.1406
-0.344003
-0.906936
-0.0836913
1.52763
-1.03762
-0.052515
1.503
0.808967
1.52616
-0.603804
0.631076
2.44754
-2.2529
1.3997
0.42412
-1.15671
0.624792
0.36536
-0.757215
2.49486
1.57938
0.19955
2.45312
1.81548
1.74286
-1.21607
-3.41551
0.637433
-0.966691
-0.285138
-0.776264
-0.954109
-0.781493
1.03752
0.540326
0.691402
0.8281
-1.39126
0.879142
1.41218
-0.843375
1.39352
0.964552
1.44568
0.0434157
-0.00340658
-0.627176
-1.23272
-0.601833
-0.0814216
1.40533
-0.473881
2.16676
-0.610113
1.43089
0.627553
0.0760453
-0.137924
1.43364
0.726323
0.513147
1.21711
0.176433
0.117126
2.04366
1.71385
-0.220253
-0.576464
-0.20699
1.30536
0.189506
0.191594
-0.858355
0.253447
0.053235
0.144958
1.18308
1.02927
0.266687
0.699514
0.147431
0.0603408
-0.427429
1.76209
-0.630368
1.39887
0.000866057
1.28791
1.48594
0.893517
1.24135
-0.243888
-0.52315
0.0872057
-4.02076
-0.431104
-0.201997
0.201422
-0.395418
1.1706
0.161106
1.43394
-1.16516
-0.0742652
-1.3304
0.0582734
1.47152
-0.764812
1.34729
0.403102
-0.351973
-1.0886
-0.607469
0.982243
1.54389
0.0631959
0.322429
-5.42219
1.60496
-4.13817
0.413031
-0.628087
1.75794
0.670758
0.038916
1.51894
1.40923
1.68988
0.49727
1.77725
-2.48094
0.117753
0.0749312
1.25617
0.983892
0.449678
-0.360177
-0.383228
-0.565944
0.646913
0.154431
-0.530841
2.35929
-3.5158
1.6475
0.969483
-0.076073
0.0582937
0.155829
0.0678142
0.344955
0.330005
1.36504
0.0880357
1.45284
-1.33547
0.124299
-0.970609
0.172422
-0.39674
1.72038
2.4485
1.57102
0.504151
-0.24661
0.977683
-0.86185
-2.59653
0.117775
0.0285073
-0.237906
-0.554426
-0.389363
-0.253966
1.19805
1.29054
-0.945902
0.396078
1.59801
-0.234548
-0.873516
1.54246
0.0463567
-0.709196
0.0479257
0.031745
0.0202413
2.35764
0.119135
1.27212
-0.871295
-0.416611
-0.247134
1.32369
0.226876
1.07049
-0.957516
-0.317304
0.154019
-0.113618
1.62587
1.20327
0.422633
0.0784092
-0.118198
2.5485
-1.01135
1.56919
1.71937
-0.0231722
0.0712882
0.614969
-3.78057
-0.1137
1.27791
0.879145
1.32646
-0.43716
1.55747
0.3185
2.03719
-0.105221
1.30618
1.78751
1.20831
0.370322
-0.628754
0.613976
-0.95365
1.06602
0.73372
1.68617
0.3404
2.14592
0.335542
2.29809
0.209486
1.74314
0.0423142
1.01048
-0.708566
1.39873
0.6411
0.659411
2.23529
1.43683
0.436256
-0.220294
0.772035
1.36271
0.0637022
-1.14979
0.986378
0.153596
1.82825
-0.637513
2.18721
0.513882
3.09426
2.22739
0.844666
0.659264
-0.693781
0.294756
2.3665
0.204699
0.159374
0.0367127
2.5115
0.754672
1.13054
2.20809
-0.421696
1.53035
-0.0538896
1.63854
0.0906676
1.52679
1.42364
1.94439
0.0591888
-1.27684
0.443418
-0.617466
0.622276
-0.407596
0.153667
1.85538
2.05051
0.0258222
0.0948986
-0.0196193
1.81587
1.13886
1.23145
0.915043
0.0837389
-3.50216
-0.641003
1.4811
-1.41164
-0.110513
0.258733
0.889217
0.658863
-0.262409
2.52822
-0.79695
2.16659
-0.0409323
2.3336
-0.125537
0.242356
0.079698
0.0784412
1.13702
1.41441
0.287034
-0.0132725
0.192374
-0.243349
2.03813
-0.22759
0.239925
-0.984015
0.0962516
-0.0277662
1.68369
0.446651
0.115343
0.0472591
1.42962
2.67953
-0.603371
0.137442
1.30497
-1.84183
0.821606
0.0862026
0.798588
0.0546092
-2.21206
-0.258865
-0.0481514
0.0357804
0.204299
-0.693904
-0.211511
0.120525
1.12296
1.48667
1.25492
2.5894
-0.691768
2.46887
-4.25665
2.27444
-0.488451
-0.44303
2.4932
0.66916
-0.110139
1.32872
0.0553436
1.47177
-1.90364
-1.05097
0.331771
-0.232525
-0.245909
-0.022811
0.0334471
0.687821
1.71528
-0.426704
0.753267
-1.24934
0.375541
-0.790033
0.0694504
0.158266
-0.994865
-1.04143
1.96098
0.0673734
2.12456
0.543205
-0.775558
0.563221
-0.93325
0.0642729
1.22342
1.75513
2.64515
1.12093
1.23451
0.450146
-10.3526
2.54703
2.69487
1.56803
-0.444594
-0.462362
-0.945157
1.24617
0.778932
0.470492
1.23328
-0.307436
0.0738111
-0.821529
2.21153
0.261308
0.380774
-0.517754
1.26661
0.514322
2.94775
2.73967
1.24218
0.173809
0.181081
-3.02149
0.619363
2.81497
-2.9984
0.0689461
0.904379
-0.0157656
0.389554
0.124772
-0.0290389
0.350911
0.337875
0.609854
0.0566434
0.582665
1.95737
-0.0972076
1.49627
-0.463223
-0.0712316
2.40309
-0.546776
0.180739
-0.0871337
0.710526
0.287477
-0.63686
-0.273108
0.132273
0.349827
2.99908
-3.64535
-0.888666
-0.27717
-0.858022
-1.42671
-0.110319
-0.671279
-0.730021
0.040461
-1.19043
-0.835336
-0.272856
0.28004
0.171187
0.348531
2.90443
0.284702
0.439272
0.0426147
0.446078
-6.77049
-0.0899889
1.96385
1.42652
0.440489
0.124817
1.36811
1.50546
-2.65597
-0.562385
0.121803
1.95234
-0.245752
1.32238
0.258176
2.168
0.303635
-0.418648
0.253822
1.53963
-0.181047
1.30703
-0.440193
2.75255
-0.656074
0.0212593
-0.788748
0.702819
-0.590813
-0.427302
-0.616824
0.289717
0.224068
-0.41094
-1.09317
0.02109
0.357671
-0.194196
-0.824358
1.08594
-0.991233
1.1509
-0.575775
1.58508
2.51745
1.22802
-7.11944
1.35097
0.214281
0.214569
0.0468157
-0.133988
-0.96719
0.172043
-0.0877438
0.210492
0.198926
-1.01999
-0.598353
-0.683403
0.714373
1.44108
-1.59144
-0.608163
-0.19983
0.0473476
0.105791
0.753512
-3.57844
-0.588442
1.44655
-1.034
0.500937
-0.393429
-0.719834
-0.691833
-0.681897
3.01019
0.413872
-0.288013
0.469088
2.38666
2.40945
-0.373487
-0.0638031
1.42513
0.0759521
0.174966
2.44449
0.754204
1.10646
3.02607
-0.244936
-0.022632
0.392872
2.13199
1.5047
1.38116
1.81256
1.07686
0.047367
0.13025
0.764931
0.410147
-1.3913
2.46938
-0.62264
-0.663135
0.0539272
-0.182925
0.631373
-0.484675
-0.0712308
0.422359
1.41605
1.55086
1.55908
-0.881641
2.11158
2.39526
-0.832573
0.837124
0.0835182
0.12593
0.157798
0.897793
-0.463034
-0.257035
-0.560211
2.68699
-0.81175
1.59074
1.44013
1.84623
0.921483
1.07352
0.075389
0.0485444
0.53224
0.0526828
-0.936165
-1.0603
0.176556
-0.69449
1.72493
-0.395067
0.0772972
0.415041
-6.7648
-0.500899
-1.10452
1.26429
-0.068245
0.132204
0.807313
-0.333829
0.490882
-0.948585
0.0638974
1.51986
-0.752147
2.49086
0.0540814
2.70206
0.0118949
0.142312
0.254442
1.28693
1.13724
-1.57458
0.0256306
-0.125918
0.275376
0.899932
3.06339
1.85485
0.325273
-0.283692
0.632399
0.174289
1.56054
0.115581
0.898374
-0.571731
-0.575827
-6.07178
0.0573145
0.0584817
-6.68622
1.05773
0.849865
2.35864
2.59037
-1.11365
-0.955274
0.288459
-0.84391
2.46744
-0.565049
-0.480831
0.753782
1.09757
-0.237943
-3.53971
0.311153
0.0618716
1.17731
-0.223164
0.0238148
0.191425
-0.512193
-1.37986
-0.153952
-1.53732
-1.21955
1.50858
-0.335278
-0.433547
-0.0496175
0.0993593
2.73642
0.847418
1.359
-0.0394243
0.682378
0.192673
0.467114
0.590811
-0.660957
-2.95437
2.46099
1.50972
0.179612
-4.30541
2.86119
-0.532339
-3.90063
-0.607745
0.531692
-0.575153
-0.315361
2.1165
0.111868
1.2317
0.693337
-0.73952
-0.853205
0.18073
0.66915
-1.67264
0.212192
0.536471
1.35579
-0.597137
-4.20796
-0.348644
-0.115375
-1.02636
-0.821596
2.68201
1.01582
-0.535113
0.475227
0.530049
2.29555
0.687865
-3.13287
0.671076
1.79347
1.46753
-0.217608
1.3053
0.0259481
2.43855
0.0546336
1.48376
-0.694387
-0.211798
0.0494056
-0.54192
0.601257
0.5809
-3.17046
-0.564231
1.63558
-0.363272
0.159314
1.97606
1.16127
1.92067
1.36604
-0.351557
0.0124701
0.2574
1.34048
0.0384391
1.71686
0.932112
2.41676
-0.682757
1.86552
0.360495
2.47917
-0.772731
-0.438712
2.51479
-0.639663
0.885922
-0.821994
2.12993
2.42521
1.52323
-2.08131
1.44741
1.805
-0.170184
0.694799
-0.332925
1.93779
-0.597835
-0.888759
-0.983294
-1.01509
1.77225
0.398436
-1.05116
0.675277
2.41701
-0.624796
-0.057818
-1.05714
-0.483124
1.03019
0.027949
1.4005
1.27468
-1.08726
2.76338
0.041216
2.04681
1.99589
0.160104
0.0190013
1.1692
-0.969223
-0.00252929
1.13228
0.969673
-0.236695
1.28531
-0.730349
2.27779
1.55393
0.517049
-0.780198
1.50647
-0.214361
0.923058
1.84716
0.32534
0.0408769
1.78597
1.46521
-0.266243
-9.35441
0.912001
1.53393
2.43361
-7.39337
2.58393
2.68017
2.63589
0.0941921
1.7396
-0.668107
1.4453
1.88376
1.84949
1.52391
2.07078
2.93665
1.27947
-5.50723
-0.506862
-2.72689
2.90931
0.728249
-0.0492961
-0.619077
1.36257
2.13045
1.3811
0.453875
0.0339369
2.0929
-0.869085
1.44875
-0.600833
0.764656
0.0576124
-0.0530608
0.880499
-0.628772
-0.607092
-0.28344
-0.115915
0.13728
1.70163
-0.104894
0.301669
1.27756
-0.693305
0.614758
0.0567461
-0.674931
-0.710088
-4.11385
1.97415
2.15166
-0.552519
0.767537
1.80948
1.7369
0.0354021
-0.332542
1.4986
-1.75291
1.95218
-0.656525
1.89945
0.948702
0.375835
1.78068
0.900328
1.83355
0.489282
0.785544
-0.190832
-7.49229
-0.786286
0.0996345
1.80136
-0.388369
-0.250896
-0.383407
2.10831
1.80885
0.580975
0.959138
2.0536
-1.12388
1.30706
0.157466
-0.234365
1.28915
-0.387637
-0.838594
-0.756028
-1.19394
-0.072561
-0.528095
0.148911
-0.946726
-10.0572
1.10568
2.47418
2.72828
2.33223
-0.396768
1.46708
-0.69745
1.27873
2.06924
0.351751
1.76599
-0.367734
0.516167
-0.22927
0.157897
1.93045
-0.893274
1.55677
-0.903111
-0.102696
-1.20449
1.63887
1.5437
1.44276
-0.791797
1.29622
-1.1556
-1.08704
-1.11206
0.447682
2.47649
-1.4486
-0.0492132
-0.576043
1.37969
1.39192
0.0420729
1.02322
-0.835492
2.08513
1.97034
-0.259847
-0.0455601
2.01753
-0.321517
-0.657731
0.199657
1.83938
2.08109
-0.675092
0.81947
-0.0424919
2.43007
-0.9999
-0.182279
0.127447
2.25624
0.246355
-0.172313
-0.154438
1.9129
1.152
1.89992
0.158341
-1.27502
1.52415
2.86529
-7.61556
1.14378
0.178362
-1.11854
0.18535
0.511691
-0.613557
0.779562
-0.807982
1.0094
-0.24405
-0.244384
1.72883
2.10061
1.29498
-0.905131
-0.183623
1.58319
-0.854012
0.294274
-0.281151
0.666911
-0.899116
1.55155
1.58788
0.165742
1.47145
2.38365
0.0204053
1.00302
1.61683
-1.1204
0.932988
-0.185912
0.648373
0.182955
1.18049
0.0285518
0.489526
-0.0247986
-3.65047
1.96575
0.259056
0.192462
-0.288339
-0.00371627
1.49016
-0.864094
2.6219
-0.789719
-1.48883
-0.883509
1.80834
1.54518
1.87
-2.28206
2.2862
-0.493028
0.943175
0.273607
-0.780332
1.3404
0.623993
-0.0623264
0.867985
-3.04965
1.25909
-1.04686
-0.342636
0.0182737
-0.621542
-0.691127
1.15996
2.35186
0.179241
-0.67492
1.78926
-0.812459
2.11936
0.265728
0.262675
0.870389
1.45002
0.682229
-0.215646
-0.6094
0.212121
0.471947
0.601891
-0.760478
-0.545993
0.109052
0.551348
-0.1181
2.94815
1.4631
1.42874
2.14375
0.378419
1.58443
-0.361714
-1.75596
-0.349438
1.43589
2.85222
1.27236
-0.531576
1.96286
1.21757
1.24901
0.14638
0.172338
0.721302
2.63414
-0.673071
-0.244244
2.11179
2.01252
1.41215
1.38278
1.69791
0.996198
-1.18102
-0.421928
1.50644
-10.0306
-6.88995
1.42182
-0.369598
-0.855965
0.0813458
1.46301
1.52878
1.55978
0.0238396
1.8615
1.9161
0.223791
1.64907
1.42466
1.35537
1.12972
0.728704
0.684087
0.0641788
1.79381
1.63435
0.204891
1.18351
0.00839254
0.0868499
2.33055
1.70969
-0.0193146
-0.614198
0.278336
1.76803
0.858444
0.379059
0.0578088
0.278994
-0.0827283
0.356067
-0.594106
0.0356166
0.837475
0.043248
-0.525128
-0.803657
2.18948
-0.613928
-3.30572
-0.55686
2.36613
-0.00584108
0.398897
0.408796
-1.01472
1.16641
1.35986
0.71891
2.05706
1.10731
0.234545
-2.85061
-0.60157
-0.0101268
1.66618
0.209513
-0.687516
-1.03085
-0.0534628
-3.2488
-0.55496
-0.976034
0.00387561
0.671447
1.41583
1.81109
-0.0110272
0.130443
2.06276
1.5487
-0.669763
-0.112801
-2.68062
0.76933
0.268927
0.75048
1.19741
-0.300071
-0.0160089
-0.0472902
0.49181
-0.449589
-2.92797
0.230576
-0.325489
-1.35921
-1.01981
-0.571944
0.198548
-2.25327
0.692849
-0.703723
1.42829
1.31052
0.244816
1.82945
-0.522508
2.36449
-0.216768
0.272046
-0.759088
1.38206
0.792543
-7.80454
-1.99997
1.46292
1.72157
2.45982
-0.634074
-1.65088
-0.468386
0.0155731
0.00472355
-0.810451
0.192594
-0.939726
0.786964
-0.688942
0.893693
-0.243274
0.0275816
2.13474
1.2013
-1.03098
0.043966
-0.861658
-4.89745
1.87118
2.72665
-5.97773
1.68744
1.34454
-0.00227549
-1.74724
1.78415
1.71111
-1.00122
0.0214033
-0.371946
-0.491642
-0.741729
-0.886711
-0.773818
0.989226
0.168252
1.57468
-0.74957
-1.01639
1.34948
-0.727653
-0.991
0.241451
1.1392
-1.02473
-0.287355
-1.04813
-0.781006
-0.969617
2.50167
-1.942
0.0106383
-0.675878
1.53516
-1.20971
0.101656
-0.826615
-0.695353
-0.19875
1.56104
0.0324411
-0.823419
1.20295
0.0213543
-0.14699
-0.745017
-0.814025
0.857738
1.07259
1.4455
-1.54297
2.11251
-0.0813511
-0.000203937
0.148872
-1.88653
-0.443426
-0.820667
-0.38635
0.386068
0.783603
0.13441
-0.103279
-0.432338
1.25111
-0.617909
1.54158
-0.647338
1.00173
-0.0648655
-0.768825
0.191779
3.01544
-1.50873
-1.07044
-1.44079
-0.344416
1.44557
0.127611
0.203476
0.0734866
-1.04461
-0.627287
-10.7382
-0.890902
1.47455
-0.882021
0.4185
-1.08144
0.19852
1.22099
0.140285
0.409756
-0.147409
1.82621
-1.11894
-0.246118
1.97739
0.529654
-1.13551
-0.0833008
-0.664025
-0.38174
-0.096409
1.78571
-0.390669
0.690872
-1.49934
-0.646726
-0.781634
-0.843342
-3.37544
0.583376
0.0320025
1.44156
0.613039
-0.559152
0.354058
-0.466809
1.75443
2.0947
-1.04526
0.193483
1.50269
1.42502
0.948221
-0.312569
-0.526213
-0.549292
1.46096
0.555921
-0.367643
-0.746174
0.64537
1.69549
-0.0400198
0.055774
0.240743
1.94404
-0.933611
-1.05503
0.0866975
1.2622
0.179723
0.172081
2.12559
1.7566
0.129328
-0.37457
1.76012
0.798155
0.0860408
1.18288
-0.091018
-0.421381
-0.62405
-0.368734
1.73237
1.43191
0.0414012
-0.236373
0.185564
-1.6224
1.48824
-0.380818
0.869938
1.84093
1.99174
-0.0711362
1.42244
1.14236
1.50169
1.60926
0.0166118
1.62075
0.0138293
1.44987
0.841797
1.54155
-0.620646
1.7672
1.671
1.25878
0.991338
-0.212105
0.88474
0.120902
-0.300113
1.89543
1.96822
-0.325033
1.90838
-0.354487
-8.8932
1.4833
1.51797
-0.715808
0.142555
-1.44404
-0.355901
-1.22132
-0.473941
-0.69373
-0.166411
1.23157
2.66439
1.74508
-0.0373611
-0.575368
1.44024
0.856877
-0.855483
-0.410639
-0.172006
-1.14602
-10.9763
-7.19962
1.39277
0.200793
0.860118
0.0478543
0.045512
0.15014
-0.00243465
0.39913
0.55209
1.04482
-0.202365
0.290116
-1.10223
-0.585875
0.928206
0.884832
0.0478933
-1.97199
1.00466
0.0545461
0.637698
-0.218962
1.44074
1.17693
2.25552
1.44746
-0.3055
-0.131631
-0.247949
-0.145497
0.0663816
0.0900916
0.0419649
-0.314802
2.72759
0.167246
-0.719162
2.08394
-0.588308
-0.693893
-0.767555
-0.61538
-2.03846
0.0493034
-0.717188
1.28669
0.0165765
-0.280138
0.221015
-0.123084
-0.387524
-0.531146
0.191848
1.1646
-0.649344
-0.508172
-0.795555
0.540281
-0.399416
1.52743
2.14568
-0.135585
1.55803
0.700792
1.1013
2.39117
-0.594734
0.92823
0.719048
0.751197
2.01994
-0.306171
0.0125809
-0.254151
1.48319
2.14149
-0.310578
0.139667
-0.354711
-0.329032
0.821003
-0.236714
-0.843446
-0.169678
0.643268
-1.99117
0.363517
0.446612
1.2859
0.35951
-6.66362
0.186007
0.078409
0.0700831
2.2998
2.6075
1.87787
2.82887
1.29378
1.37186
1.53366
1.27995
1.35116
-0.275993
1.41787
-0.0938181
-11.029
2.08975
-0.031077
-0.421274
2.50069
0.219774
-0.55622
0.849781
0.786269
1.72545
-1.26879
1.34557
2.33365
-0.597959
-9.74471
-0.830187
0.978767