/*--------------------------------*- C++ -*----------------------------------*\
| =========                 |                                                 |
| \\      /  F ield         | OpenFOAM: The Open Source CFD Toolbox           |
|  \\    /   O peration     | Version:  2306                                  |
|   \\  /    A nd           | Website:  www.openfoam.com                      |
|    \\/     M anipulation  |                                                 |
\*---------------------------------------------------------------------------*/
FoamFile
{
    version     2.0;
    format      ascii;
    arch        "LSB;label=32;scalar=64";
    class       surfaceScalarField;
    location    "1";
    object      phi;
}
// * * * * * * * * * * * * * * * * * * * * * * * * * * * * * * * * * * * * * //

dimensions      [0 3 -1 0 0 0 0];

oriented        oriented;

internalField   nonuniform List<scalar> 
20045
(
0.27038
-0.31059
0.0402096
-0.574346
0.233829
0.340517
0.115903
0.837492
-0.953395
0.128226
-0.157843
0.0296174
-0.483191
0.441541
0.0416501
-0.23516
0.999813
-0.764653
-0.56065
0.177923
0.382727
0.032727
0.245418
-0.278145
0.25654
0.226206
-0.482746
-0.350132
-0.117372
0.467503
-0.101156
0.32354
-0.222385
0.976162
-0.51212
-0.464042
0.212997
-0.20936
-0.00363622
-0.6288
0.458699
0.170101
-0.114753
0.5354
-0.420647
-0.537086
0.186955
-0.0135916
-0.0920868
0.105678
0.503284
-0.128427
-0.374856
-0.796865
1.1384
-0.341534
-0.386157
-0.0046501
0.390807
0.193226
-0.200237
0.00701177
0.076704
0.136292
-0.111254
-0.463092
0.3123
0.244762
-0.557062
0.452471
0.0380046
-0.490476
-0.277372
0.589672
0.142643
-0.148303
0.0056596
-0.459809
0.940536
-0.480727
0.883858
0.107713
-0.991571
-0.944207
0.602148
0.342059
-0.0603513
-0.123181
0.183533
0.678849
-0.58001
-0.0988394
-0.303606
0.57515
-0.271545
1.09153
-0.643231
-0.448301
-0.314022
0.346749
1.14668
-0.583186
-0.563497
0.71976
0.152845
-0.872605
-0.0355982
0.219128
-0.18353
-1.07698
0.43077
0.646208
0.325221
0.266753
-0.591974
0.0140526
0.257214
-0.271266
0.0834976
-0.119146
0.0356483
1.06427
-1.07018
0.00590769
0.725501
-0.224071
-0.50143
0.295583
0.429918
0.489029
0.487133
0.316203
-0.273724
-0.042479
0.613667
0.305912
-0.919579
0.948327
-0.228567
0.054055
0.800481
-0.854536
0.630076
-1.06499
0.434914
0.974507
-0.726553
-0.247954
-0.382123
-0.459494
0.841616
-0.048959
-0.171435
0.220394
0.240262
0.121174
-0.361436
-0.376747
-0.106445
0.0953218
0.704819
-0.800141
0.866155
0.0553643
-0.921519
0.348374
-0.65198
1.08108
-0.766435
-0.314643
-0.0571522
0.281431
-0.224279
0.422696
0.658382
0.388486
-0.6514
0.262914
0.192296
0.000929701
0.192147
0.227181
-0.419328
0.804969
0.160309
-0.965277
-0.0393689
0.150186
-0.110817
-0.348705
0.0498011
0.298904
0.4586
-0.20206
0.958948
-0.983806
0.0248584
-0.105322
0.0659533
-0.310722
0.550984
-0.13846
-0.528727
0.667187
-0.242317
0.261459
-0.0191423
0.884609
-0.117817
-0.766791
0.701354
-0.606033
-0.0549185
0.939527
0.294986
-0.409739
-0.28753
0.321803
-0.0342732
0.398372
-0.706787
0.308415
0.512464
0.584166
-1.09663
0.45365
-0.39258
-0.0610701
0.529886
-0.141399
-1.00559
0.162544
0.843042
-0.0047559
0.275136
-0.218198
0.304813
-0.0866156
0.545937
-0.812656
0.266718
-0.799241
0.0177274
0.781514
0.500684
0.1217
-0.622384
-0.460971
0.367565
0.0934052
-0.751467
0.0545715
0.696896
0.410061
-0.0833819
-0.326679
0.218254
-0.328275
0.11002
-0.120333
-0.399073
0.519406
0.32565
-0.347389
0.0217395
0.733364
0.207157
-0.940522
0.122822
0.0198216
0.0113541
-0.161687
0.150333
0.643053
-0.317832
0.00765286
-0.138833
0.13118
0.798094
0.348588
-0.287736
-0.341064
-0.183896
0.19525
-0.159128
1.02528
0.0498612
-0.268059
0.182186
-0.174533
0.207333
0.617299
-0.824632
0.647395
-0.988448
0.341053
0.0286727
-0.260246
0.224993
0.0352535
-0.132848
0.168946
-0.0360987
0.629466
-0.565743
-0.063723
-0.276734
0.227775
0.654092
-1.03782
0.38373
-0.124234
0.192087
-0.0678525
0.0284188
-0.163143
0.134724
0.556579
-0.104108
0.816643
0.274888
-0.602735
0.464276
0.690742
-1.0314
0.34066
0.0866957
0.416588
0.216242
-0.273394
-0.429961
0.350336
0.0796247
-0.429583
0.0564736
-0.32706
0.270586
0.69131
0.283198
0.561005
-0.74767
0.186665
0.792839
0.0782549
-0.871094
-1.05994
0.84438
0.215558
-0.339814
-0.178977
0.518792
1.02239
-0.331079
-0.346714
0.0729906
0.552077
-0.58523
0.0331529
-0.172682
0.167508
0.0051732
0.558685
0.400669
-0.959354
0.631521
-0.560837
-0.0706841
-0.165393
0.0595698
0.105824
-0.185261
-0.0749851
1.14835
-0.457613
-0.36177
0.380425
-0.0186553
0.5094
-0.856466
0.347066
0.272648
-0.654771
0.413287
0.317413
-0.7307
0.762475
-0.364103
0.987212
-0.136752
-0.85046
0.132025
-0.473156
0.341131
0.925399
-0.637687
-0.287712
-0.156548
0.208747
-0.052199
0.0129568
0.852019
-0.864976
1.05737
-0.173516
-0.819094
0.0107443
0.808349
-0.542759
0.430963
0.111796
1.00586
-0.493392
0.127654
0.325995
-0.644254
0.74381
-0.0995552
-0.657764
0.773667
0.0122143
-0.20662
0.194405
0.316078
-0.321785
0.00570673
-0.0197396
-0.208951
0.22869
0.829542
-0.00402197
-0.82552
1.16103
-0.568757
-0.592273
-0.248307
0.228568
0.589549
-0.707407
0.117859
0.0983278
-0.0148302
-0.885681
-0.514721
0.616111
-0.10139
-0.620259
0.518312
0.101948
-0.00824907
-0.0516938
0.0599428
0.351557
0.573842
-0.0257696
-0.146912
0.556549
-0.00447153
-0.670736
0.0264819
-0.744368
0.954747
-0.210379
-0.702563
0.754268
-0.0517046
-0.598644
-0.429393
1.02804
0.0719895
-0.279883
0.207894
0.36895
-0.48501
0.11606
0.616934
0.11365
-0.730584
-0.00525372
-0.739289
0.744542
-0.431866
0.845153
0.2057
-0.579394
0.373694
-0.382409
1.0365
-0.793195
0.576613
0.216583
-0.101402
0.114791
-0.0133887
0.370382
-0.965809
0.595427
-0.768695
0.308886
-0.610123
-0.400623
0.904052
-0.602216
-0.301835
-0.323864
0.337917
0.163108
-0.172641
0.00953249
-0.758084
-0.215812
0.973896
-0.751671
1.07495
-0.323279
1.0056
-0.69759
-0.308005
0.013714
-0.215176
0.201462
-0.231036
-0.541744
0.77278
-0.266964
0.165808
-0.424059
0.0842443
-0.602184
-0.193337
0.795521
0.115197
0.0304312
-0.145628
0.0188937
-0.533615
0.11296
-0.173311
0.838627
-0.0457886
-0.173517
0.137919
-0.179025
0.21986
-0.0408351
-0.172808
1.00235
-0.823616
0.592581
0.430158
-0.231025
-0.199133
-0.717885
0.15989
0.557995
0.360416
0.64518
1.0331
-0.662721
0.634697
-1.00773
0.373031
0.325753
-0.627947
0.302193
0.0655391
-0.451696
-0.498592
0.705925
0.62987
-0.865029
0.113661
-0.644104
0.530442
-1.01526
0.510244
0.505012
-0.08973
-0.371241
0.193003
0.166299
-0.359302
0.516408
-0.0550286
-0.461379
-0.152425
-0.592224
0.60518
-0.277274
-0.0844963
0.558846
0.795726
-0.732529
-0.0631979
-0.012209
-0.152205
0.164414
0.646087
0.0339139
-0.680001
0.126867
0.13976
-0.266627
0.0224471
0.57714
-0.599587
-0.315833
0.86177
0.59963
-0.39393
-0.0823348
0.292873
-0.210538
0.701452
-0.192052
0.11448
-0.0100168
-0.104463
0.168658
0.047499
-0.216157
-0.133074
0.13845
-0.0053764
0.920998
-0.622547
-0.298451
0.20802
-0.959692
-0.145809
0.0127357
-0.814004
0.219097
0.594907
0.825637
-0.250486
0.244155
-0.988523
1.21036
-0.578008
-0.632349
-0.0156393
0.130836
0.971408
-0.426695
-0.544713
-0.608256
0.109349
0.498907
-0.93
0.903509
0.0264913
0.33446
-0.678646
0.344186
0.217117
-0.0527332
-0.164384
-0.499384
0.609412
-0.110028
0.0353077
-0.205199
0.169891
-0.176744
0.0525097
-0.155578
0.0227301
-0.678156
-0.310292
0.556224
-0.802104
0.24588
0.157352
-0.288831
0.131479
0.499238
0.179612
0.537599
-0.423937
0.0342201
0.281858
0.475496
0.350141
-0.528551
0.0548404
0.473711
0.33773
0.633678
0.437144
0.0982558
0.264555
-0.107203
-0.313934
-0.0358106
0.349745
0.018767
-0.120169
-0.618241
0.640688
-0.180546
0.229286
-0.0487395
-0.907528
0.853538
0.0539897
-0.197775
0.678755
-0.48098
-0.160186
-0.161366
0.321551
0.75794
-0.831247
0.0733063
-0.561315
-0.453941
1.06571
-0.748435
-0.317278
-0.115518
0.103309
0.744758
-0.410298
-0.288366
0.844589
0.128388
-0.366115
0.237727
0.908298
-0.123832
-0.784465
0.951852
-0.213411
-0.738442
-0.289457
0.417845
0.853298
-0.509749
-0.343549
-0.184016
0.801303
-0.617287
0.297907
-0.519833
0.221926
-0.267728
0.0591785
0.20855
-0.215531
0.0222217
0.193309
0.962525
-0.744864
-0.217662
-0.577144
-0.482794
0.628536
0.16719
-0.820981
-0.0865471
-0.045973
0.214631
0.255477
-0.856128
0.600652
0.0043027
0.158805
-0.540904
1.09959
0.307335
0.613663
0.991457
-0.652353
-0.339103
-0.85726
0.663923
0.663928
-1.00057
0.336644
-0.623229
-0.0677116
0.690941
-0.299007
-0.171056
0.470063
0.627423
-0.0378742
0.3043
0.125858
0.314165
-0.133908
-0.446102
-0.704345
1.01284
-0.308492
-0.20803
0.0290056
-0.146824
0.0644889
0.119685
-1.04969
0.598117
-0.91395
0.190243
-0.294703
0.437985
-0.143283
-0.0034541
0.13168
-0.51598
0.307132
0.208848
0.45879
0.170677
-0.0275603
0.294712
-0.267151
0.478031
0.15349
-0.600862
0.856339
0.578045
-0.0773617
-0.227351
-0.490534
1.01229
-0.662718
-0.349572
0.957814
-0.980672
0.372951
0.607721
0.782524
-0.861208
0.0786844
-0.473609
0.353276
-0.148685
-0.0167086
-0.235124
-0.516343
0.328979
-0.576631
0.247653
0.424898
0.4284
0.606927
-0.903757
0.29683
0.274213
-0.575114
0.300901
-0.971675
0.172433
0.0213859
0.388675
-0.640014
0.747418
-0.107405
-0.231236
0.329863
-0.0986265
-0.501206
-0.0594441
-0.138845
-0.247531
0.386376
0.110103
0.000652707
-0.110756
-0.336059
-0.2067
0.359483
0.4625
-0.821983
0.923892
-0.586161
0.39405
-0.452782
-0.0208273
0.507615
-0.233401
-0.681731
-0.111464
-0.152646
0.213204
-0.0605588
0.970034
-0.356367
-0.491622
0.763742
-0.27212
-0.140601
0.167983
-0.0273821
0.652815
-0.136408
-0.322187
-0.533941
-0.523256
0.922709
-0.399453
0.568208
-0.924109
0.3559
0.419039
0.646674
-0.127604
0.113044
0.0145608
0.108584
-0.731813
0.701253
-1.05754
0.356284
-0.31381
0.071493
-0.0978607
0.658865
-0.226066
0.824183
-0.288958
0.614711
0.175653
-0.972518
-0.749982
0.533397
0.216585
0.664325
-0.137427
-0.526898
0.936228
-0.178288
-0.433963
-0.52378
-0.481203
0.36891
0.354533
-0.364919
0.0103862
0.326524
-0.331174
-0.753283
0.655422
0.863443
0.20083
-0.796528
0.304906
0.793223
-0.164687
0.152685
-0.213814
0.0611293
-0.0628786
-0.5287
0.591579
-0.914936
0.180808
0.734128
0.790047
-0.790047
-0.339795
0.929271
-0.589476
0.30437
-0.331931
0.573798
-0.456716
-0.117082
-0.912712
0.94102
-0.0283075
0.371351
-0.0415122
-0.329839
0.291
-0.100072
-0.190928
0.148464
-0.30865
0.007819
0.570573
-0.858938
-0.801647
0.948601
-0.146955
-0.287383
0.646866
0.0313481
0.0188896
-0.0502377
-0.175093
0.184839
-0.00974582
-0.38005
0.445589
0.910258
-0.691207
-0.219052
-0.107684
-0.505576
0.61326
-0.265435
0.28138
-0.0159451
0.167228
-0.296944
0.129716
-1.06702
0.460747
0.606269
-0.116025
-0.041818
0.212493
-0.0598075
-0.0301028
-0.0699756
0.100078
0.400518
0.562008
0.0833619
-0.0520138
-0.1214
-0.232158
0.353558
-0.500502
0.804237
-0.303736
-0.00864538
0.135131
-0.126486
0.474233
-0.29631
0.807735
-0.103621
-0.704115
0.0439088
-0.442982
0.0084366
0.608497
0.449642
0.284765
-0.734407
0.502266
-0.399718
-0.102548
-1.00928
0.190185
-0.414118
0.227202
0.186915
0.304694
0.493342
-0.798036
-0.645121
0.577409
0.0823117
-0.920863
0.838551
-0.16332
0.177034
-0.100443
0.111521
-0.0110786
0.0335454
-0.347479
-0.548572
0.0259919
0.52258
-0.66504
-0.148965
0.612045
0.655802
-0.313331
-0.34247
-0.155939
0.0153376
0.140682
-0.69262
0.551939
0.130155
0.512336
-0.642491
0.251698
-0.715104
0.830631
-0.115527
-0.728109
0.544093
-0.0738488
-0.074454
-0.414643
-0.205617
-0.289633
0.0659475
0.223686
-0.878758
0.378257
0.652011
-0.759694
0.227955
0.565267
-0.344358
0.335922
0.00843582
0.181705
-0.678282
0.496577
0.189531
-0.297744
0.108212
0.529159
-0.851347
-0.641019
-0.0615446
-0.349465
0.000759553
-0.224587
-0.0746942
0.299281
0.348944
-0.0581438
0.0553711
0.00277271
0.74912
-0.444426
-0.740952
0.977214
-0.236262
0.26878
0.207061
-0.475841
-0.371216
0.207896
-0.253882
-0.0357517
0.188067
0.385731
-0.284608
-0.746794
-0.224813
0.0721673
0.603182
0.433983
0.144062
-0.750794
0.804849
-0.0199145
-0.360607
0.380522
-0.102655
-0.82507
0.927725
0.110565
-0.115287
0.0047223
0.303978
-0.231988
-0.210958
0.508865
0.528326
-0.396302
-0.364572
-0.151408
-0.00933608
-0.425224
0.43456
0.398362
-0.997007
-0.0365344
-0.494858
0.531392
0.0180497
-0.180111
0.162061
-0.639426
0.026654
0.612772
0.965246
-0.659333
-0.00369455
0.106235
-0.10254
-0.239232
-0.0262032
0.190863
0.365561
-0.556425
0.131685
-0.164261
0.0325758
0.669246
0.368078
-1.03732
-0.406025
1.13939
0.104556
0.00554703
-0.266026
-0.594027
0.860053
0.425201
0.723153
0.779286
-0.649131
-0.383481
0.244636
-0.192963
-0.0225682
-0.30281
0.966738
0.145243
-0.787062
0.641819
0.919574
-0.124407
-0.795167
-0.326854
0.645649
-0.318796
0.391013
-0.193776
-0.482801
0.676577
0.116747
-0.0954538
-0.0212928
-0.256876
-0.500742
0.757619
-0.000204141
-0.174889
0.0613675
-0.0696165
0.533168
-0.790044
-0.717998
-0.203636
0.921634
-0.0407222
-0.491473
0.532195
-0.0153282
1.03992
-1.07377
0.0338566
0.226669
-0.119079
-0.10759
-0.00637946
-0.337978
0.252824
0.266582
-0.357268
0.0582605
-0.782137
0.984029
-0.201892
0.0193571
-0.199903
0.521676
0.240799
-0.844138
-0.226042
-0.0178988
-0.191932
0.209831
0.53048
-0.0964975
-0.226797
0.249723
-0.022926
-0.174865
0.210173
-1.13971
0.529585
0.867597
0.132216
-0.101259
0.268487
-0.22516
0.49394
0.850882
-0.280309
-0.233784
0.00698696
-0.122676
-0.630606
0.289257
0.256282
-0.244067
-0.937054
0.0221187
0.00797619
0.23302
-0.0434887
-1.01131
0.620235
0.391073
0.807387
0.151561
0.221052
-0.0792824
-0.141769
0.312513
-0.286395
-0.0261183
-0.920904
0.337718
-1.03436
0.511104
-0.236304
0.180886
0.055418
0.0154462
-0.10619
0.0907438
0.983758
0.0256357
-1.00939
0.189526
0.0109777
-0.200504
-0.146286
-0.283675
0.252089
-0.0338341
-0.0907801
0.0915829
-0.000802818
0.429657
-0.0511224
-0.378535
0.0107816
-0.101562
0.833745
-0.626587
-0.0303693
-0.161763
0.192132
-0.982144
0.200007
0.0143483
0.0421384
-0.226034
0.268886
0.386916
0.155125
-0.120905
0.257935
0.178593
-0.436529
0.377188
-0.185042
0.345598
-0.365512
0.234303
-0.205884
0.103639
-0.334876
0.803408
-0.213412
-0.589996
0.560404
-0.0718132
-0.488591
-0.373286
-0.0998697
0.170378
0.0362958
-0.206674
0.301044
-0.436295
0.135251
1.03845
-0.0169048
-1.02154
0.184532
0.0462704
-0.230802
-0.495321
0.675932
-0.180612
0.445914
0.4963
-0.942214
0.0645412
0.21689
-0.291827
0.459101
-0.167274
0.238428
0.0978862
-0.336314
-0.719162
0.389418
0.329744
0.0861835
0.00539945
-0.863622
0.145624
0.335839
-0.197638
-0.138201
0.41617
-0.591491
0.175321
-0.108798
-0.201792
0.130993
0.908925
0.818621
-0.117921
-0.7007
-0.810353
0.0952484
0.331237
-0.558589
0.644904
-1.0509
0.405997
-0.115826
0.308829
-0.00478285
-0.402825
0.281425
-0.174969
0.231443
-0.107491
-0.758398
0.865889
0.417601
0.327157
-0.684046
0.750926
-0.0668801
0.0605795
-0.285167
-0.581533
-0.222753
-0.132923
0.148757
-0.0158342
0.0407712
-0.269623
0.228852
0.213413
0.130028
-0.343442
-0.132516
0.548686
-0.547899
-0.213462
0.76136
-0.761458
-0.272887
1.03435
0.457844
-0.391422
-0.0664219
-0.228436
0.0211078
0.207328
0.16197
0.0721737
-0.234143
-0.938172
0.0488377
0.889335
0.022918
0.212682
-0.235599
0.777379
-0.868698
0.0913195
-0.451177
0.255168
0.233729
-0.488897
0.0135684
-0.146491
-0.347258
-0.261936
0.609194
0.62612
-1.00853
-0.949997
0.822623
0.127374
0.153652
-0.0219665
0.76826
-0.246584
-0.0975694
-0.189638
0.287207
-0.0114121
0.16479
-0.153378
-0.212748
0.742793
-0.530045
0.869186
-0.638393
-0.230793
0.955697
-0.902429
-0.0532676
0.738531
-0.394493
-0.344038
0.0407735
-0.248888
0.208115
-0.314937
-0.0121227
-0.932006
0.802743
0.129263
0.0733736
-1.00538
-0.243888
0.681848
-0.437959
-0.485163
-0.259701
0.221965
-0.180048
-0.0419166
-0.7758
-0.206344
-0.208196
0.145966
0.0622299
0.22871
-0.101843
-0.917929
0.880016
0.0379125
-0.251658
0.112303
0.149156
0.205184
-0.0156584
-0.57774
0.0783568
0.170739
-0.188331
0.017592
-0.298071
0.360019
-0.0619474
0.400428
-0.0290768
-0.246136
0.440024
0.212791
0.385341
0.330921
0.0709359
-0.401857
-0.182881
0.551831
-0.642532
0.411443
0.231089
0.090436
-0.00425257
0.749983
-0.332382
0.545464
-0.363759
-0.153379
-0.231192
0.384571
0.227989
-0.741936
0.513947
0.570911
-0.611633
0.995877
-0.440319
-0.555558
-0.0046661
-0.538107
-0.104424
-0.712806
0.995946
-0.28314
-0.0434365
-0.25249
0.887187
-1.0061
0.230297
-0.233173
-0.0345555
-0.177878
0.164287
0.142249
-0.00379854
-0.500204
-0.505813
1.1129
-0.411541
0.166268
-0.272012
0.105744
0.052852
0.238148
-0.659273
-0.36197
1.02124
0.482568
0.144854
-0.00583391
-0.160029
0.165863
0.810884
0.137716
0.0107323
-0.148448
0.615042
0.188366
-0.346886
-0.972085
0.170438
-0.237217
0.0123511
0.224865
0.558753
0.651604
0.132205
0.170732
-0.302937
0.927381
0.0283163
0.606265
-0.850155
0.24389
-0.817607
-0.00246786
0.820074
-0.783745
1.00497
-0.221221
0.156979
-0.00676523
-0.150214
-0.359517
0.985638
0.0728202
0.233739
-0.306559
0.0517434
-0.735789
0.79134
-0.398394
-0.392946
-0.862144
1.11452
-0.252376
-0.237354
0.571498
-0.334144
1.17481
-0.518539
-0.656267
0.0431647
-0.615445
0.57228
0.102298
0.00922303
-0.418332
0.864246
0.55256
-0.892354
0.893059
-0.32485
-0.199466
0.169097
-0.843609
0.0260021
0.96041
-0.353483
-0.00702378
-0.998563
0.275667
-0.0184533
0.273721
0.586456
-0.860177
0.560824
-0.1596
-0.401224
0.614681
-0.966949
0.352268
-0.164143
0.0111431
0.153
-0.201932
-0.485701
0.687633
0.372485
-0.268845
-0.516795
0.434279
0.0825161
0.19274
0.216514
-0.409254
0.080029
0.141936
-0.829728
0.978777
-0.149049
0.102377
0.00818761
0.444262
0.224137
-0.668399
0.331852
0.387035
-0.718887
0.186046
0.47828
-0.0230964
1.01031
0.00203396
0.800609
-0.802643
0.00859738
-0.0172428
-0.0183257
-0.107892
0.126217
0.629285
-0.483726
-0.145559
0.444823
0.551054
-0.113215
0.0937868
0.0194286
-0.249178
0.790596
-0.541418
-0.00132165
0.188701
-0.187379
0.228522
-0.675692
0.44717
-0.359613
-0.185963
0.545576
0.714476
-0.0683886
0.269602
0.291222
-0.31248
-0.369576
0.682056
0.308404
-0.81398
0.0841401
0.196382
-0.280522
0.201058
-0.0547899
-0.146269
0.00327905
0.0990194
-0.0739619
0.814967
-0.741005
-0.0959745
0.896455
0.742363
-0.625142
-0.117221
0.650543
-0.528842
-0.529591
0.221587
0.308004
-0.124545
-0.332171
-0.179666
0.179605
6.09269e-05
0.0721774
0.148874
0.137417
0.743063
-0.88048
0.242098
0.18756
0.133716
-0.895175
-0.487003
0.160807
0.326196
-0.342638
-0.234017
0.576656
0.511195
-0.25326
-0.846643
0.55926
0.38735
-0.355655
-0.0316953
-0.576523
0.82864
-0.252117
-0.427989
0.471898
-0.540174
0.603866
-0.063692
-0.707867
0.985959
-0.278091
-0.0232781
0.22769
-0.204412
0.151467
-0.136021
-0.415582
-0.646678
0.996578
-0.3499
-0.536794
0.696685
0.492073
-0.535301
0.0432282
-0.0592177
-0.188976
0.248194
-0.972406
0.667193
0.305213
0.0047195
-0.0968929
0.0921734
0.0126303
0.521325
-0.734073
0.677715
-0.449726
-0.18137
-0.568612
-0.679245
0.681279
0.459636
0.0586754
0.281109
0.212482
-0.493591
-0.349412
0.325929
0.0234836
0.096769
-0.0756116
-0.0211574
0.253375
-0.439316
0.185941
-0.409343
0.532006
-0.122662
-0.724043
-0.128899
0.852942
0.177921
-0.237139
0.399506
0.229779
-0.980973
0.707059
0.273914
0.210825
0.0852478
-0.296073
0.00480297
0.203421
-0.254861
0.0514403
-0.641815
-0.192801
0.446176
0.151145
0.21603
-0.175257
0.212821
-0.17205
0.300042
-0.479019
0.0313634
0.294286
0.0953151
-0.39133
0.296015
-0.541555
-0.437122
0.978677
0.170011
-0.482491
-0.521613
-0.0250361
0.546649
0.119609
0.209123
-0.328732
0.00353122
1.10987
-0.7143
-0.395567
0.165434
0.653187
-0.00956737
0.512192
-0.324132
-0.188061
-0.287165
0.607891
-0.320726
-0.564644
-0.171675
0.736319
-0.474061
0.182234
-0.352645
-0.176946
1.11473
-0.453162
-0.661563
-0.232585
0.035478
0.197107
0.339432
0.0997043
-0.439137
-0.184751
0.207669
0.0580424
0.247983
-0.306026
-0.0780062
-0.0260781
-0.222229
-0.00857569
0.672941
0.441784
-0.505267
0.936037
-0.235308
0.837456
-0.228516
-0.0040698
-0.789443
0.224799
0.714237
-0.605653
-0.128167
-0.641879
0.146559
0.410123
-0.654011
0.624185
-0.687064
0.813698
-0.0311748
-0.198964
-0.12931
-0.222003
-0.123848
0.345851
-0.312892
-0.0344975
0.731682
0.117898
-0.84958
-0.0120385
-0.250734
0.262773
-0.0659409
0.390212
-0.99517
0.604958
0.829494
-0.0521149
-0.887129
0.912354
-0.0252251
0.210268
-0.160467
-0.862547
-0.109858
-0.319573
0.79588
0.00686257
0.274359
0.95665
-0.368961
-0.587689
-0.558017
-0.0822133
0.64023
0.0432246
0.45498
-0.498204
-0.694827
0.0554009
-0.209608
-0.08757
0.297178
-0.466624
0.611867
0.184221
0.480119
-0.66434
-0.382553
0.0381123
0.344441
-0.840952
0.0631454
0.777807
0.115676
0.562039
-0.257137
0.424309
0.314222
-0.232801
-0.181317
0.676754
-0.813506
0.134144
-0.361578
0.227434
-0.235075
0.299616
0.668513
0.0319303
-0.700443
0.602515
-0.837822
-0.0176383
0.234755
-0.209366
0.495482
-0.286116
-0.590957
0.243699
-0.0218316
0.296472
-0.274641
0.19156
0.0634882
-0.255048
0.214373
0.089605
-0.265098
0.596336
-0.0423949
-0.193909
-0.165847
0.179415
0.300587
-0.160827
0.086757
-0.13949
-0.205306
0.196692
0.00861381
0.217258
-0.241383
0.0241255
-0.705718
0.587901
0.0587055
-0.580318
-0.0288617
-0.295003
-0.0141947
0.564836
-0.550642
0.335998
-0.371809
0.293386
-0.601945
0.308559
-0.469683
0.76036
-0.290677
0.270053
-0.974398
0.222735
-0.024976
-0.925021
0.425523
0.687373
-0.732396
-0.114247
-0.653772
-0.3269
-0.431163
0.183633
-0.144116
-0.0557831
0.199899
1.08947
-0.530715
0.925559
-0.224307
-0.231751
-0.164083
0.395834
-0.857866
0.340593
0.517273
0.265398
0.0581423
-0.207025
0.462193
0.170815
-0.0941113
-0.567351
0.275446
-0.202626
0.0263704
0.247883
-0.274253
-0.0899563
0.821638
0.162451
-0.228967
0.066516
0.90211
-1.08588
0.512121
0.573761
0.18978
0.249171
-0.438952
0.676916
-0.498581
-0.178335
-0.535007
0.297652
-0.196878
-0.043202
0.382634
0.87071
-0.973365
0.421722
-0.183294
-0.364995
0.6734
-1.02629
0.736017
0.290277
0.261074
-0.71382
0.452746
-0.679173
0.726751
-0.0475779
0.333154
-0.516035
0.0138216
0.175204
0.28264
-0.0516165
-0.655171
0.230142
-0.951025
0.359424
0.591602
0.24466
-0.802676
0.728228
-0.0153597
-0.592896
0.136017
0.478009
1.01146
-0.346919
-0.664543
-0.439149
0.251805
-0.594443
0.169417
-0.892223
0.81001
-0.555915
0.362139
0.488123
-0.820867
0.58025
0.240617
-0.943193
0.610907
0.332286
-0.373886
-0.13119
0.14924
-0.966146
0.687041
0.279105
0.607344
-0.966862
-0.800994
-0.0287336
1.04413
-0.399231
0.615658
-0.113437
-0.50222
-0.0245045
-0.152226
0.17673
0.142436
0.482075
0.512869
-0.641018
-0.179849
0.144994
0.227491
0.191164
0.364906
-0.556071
0.391032
-0.224733
-0.0523916
-0.90276
0.955152
-0.361882
0.287382
-0.719248
-0.560367
-0.393385
0.953752
0.251156
-0.334538
-0.673057
0.211785
0.461271
0.00419334
0.0516775
-0.0558708
0.855512
-0.963003
0.261081
-0.470447
0.532161
0.138011
-0.670172
0.256837
-0.0905696
-0.786698
0.232098
0.5546
-0.569083
0.20947
0.314129
-0.601294
0.384032
-0.249888
0.0214854
-0.0172921
-0.0598765
0.979451
-0.574028
0.739057
-0.165029
0.953621
0.00802396
-0.961645
-0.585442
0.0163542
-0.311057
0.0490857
0.740961
0.136459
0.0315241
0.166717
0.0463544
0.258016
0.493184
0.119132
-0.0223625
-0.847089
-0.0708398
-0.885614
0.421655
-0.84835
0.180849
0.187695
-0.368543
0.868982
0.0605489
-0.929531
-0.114649
0.107883
-0.343727
-0.690633
-0.74223
-0.118978
-0.267836
0.87035
-0.320933
0.462878
-0.141944
-0.808456
0.266901
-0.291992
0.483156
-0.415554
-0.595754
-0.243666
-0.243416
0.359476
-0.44094
0.142869
0.991093
-0.195213
0.660535
-0.491084
-0.169451
0.0970594
0.195813
0.269368
0.965802
-0.883491
-0.0364786
-0.221757
0.331777
-0.466011
0.520852
-0.45691
-0.547042
0.218227
0.177139
-0.395367
-0.809029
0.0189818
-0.12894
0.732823
-0.603883
-0.112196
-0.774933
-0.640034
0.673948
1.04829
-0.468189
-0.580104
-0.0771158
0.304318
0.739641
-0.30825
-0.431391
0.26756
-0.293638
-0.181603
0.163277
-0.168809
-0.000771741
0.16958
-0.189385
0.470495
-0.381173
0.988517
-0.0117368
-0.168311
-0.267723
-0.0989111
0.366634
-0.00319095
0.858703
0.277103
0.0629409
-0.340044
-0.362665
0.553528
0.36953
0.421066
-0.398435
-0.088568
0.522308
-0.192512
-0.329796
0.0236666
0.192546
-0.216212
0.0256125
-0.654906
0.629293
-0.87907
0.13684
0.220013
-0.433676
0.855331
-0.00701297
0.274573
0.140798
-0.461731
-0.984281
0.503078
-0.84449
0.275733
-0.448846
0.0687968
-0.33533
-0.546774
0.882103
-0.962606
-0.00177435
-0.190837
0.192611
0.750354
-0.58781
0.564439
-0.521215
0.128432
0.513594
-0.642026
0.146101
-0.355709
-0.676122
-0.282122
0.958244
-0.102724
0.154667
-0.0519432
-0.434827
0.748075
-0.313248
0.740129
-0.577176
-0.162953
0.82499
0.0265501
-0.85154
-0.430127
-0.655755
-0.306866
-0.042599
0.371899
0.65049
-0.00919359
0.103475
-0.0942817
-0.626746
-0.159952
0.633698
0.504701
-0.512153
0.631797
-0.119644
0.179341
-0.168609
0.370979
0.226586
-0.597565
-0.0571654
0.219616
-0.0940693
-0.872076
-0.938943
0.468052
-0.0807024
-0.083151
0.196111
0.0689611
0.697721
-0.766682
-0.504075
-0.0736653
0.617799
0.306093
0.0722937
-0.257555
0.387378
-0.407537
0.0201585
0.0590833
-0.351827
0.292744
0.541626
0.137129
0.275499
0.795083
-0.370185
0.764075
-0.476693
-0.118613
-0.244948
0.363561
0.704574
0.0967291
-0.00482041
-0.647975
0.446043
0.740789
-0.74398
-0.362027
-0.377512
0.739538
-0.489566
-0.3683
-0.857324
0.869726
-0.0124022
-0.137418
-0.35407
0.230222
0.528513
0.26657
0.0787243
-0.227294
0.14857
-0.319427
-0.66438
-0.190053
-0.698172
0.888225
0.628756
-0.146188
-0.220172
0.304313
0.516431
-0.860159
0.401962
-0.363957
-0.419544
0.931727
-0.512183
0.315156
0.407141
0.326915
-0.734056
0.877646
-0.547064
-0.330582
-0.34643
-0.600201
0.882437
-0.282236
0.510295
0.15024
-0.28636
0.279347
0.419229
0.755577
-0.217061
0.192556
0.0344622
-0.092606
0.906108
-0.50544
0.428755
0.660713
-0.405109
0.221392
0.183717
0.256034
-0.409413
0.696945
-0.0284324
0.621673
-0.00601593
-0.635017
-0.0340472
0.669064
0.18894
-0.022681
-0.166259
0.159896
0.0667736
0.124734
-0.908479
-0.281548
0.315093
0.645313
-0.57992
-0.065393
0.16085
0.361457
-0.155684
0.0764016
0.256635
0.220742
-0.477377
-0.360315
0.70869
-0.0756293
-0.396337
0.930551
-0.534214
-0.211969
0.404709
-0.0719673
-0.310586
1.01489
-0.485335
-0.335646
0.519069
0.157847
0.30082
-0.329681
-0.173182
0.149904
-0.272494
-0.14636
-0.0095787
0.342363
-0.150585
0.766219
-0.615634
0.114114
-0.144217
-0.309099
0.119461
-0.328879
0.0220139
-0.895936
0.62991
0.237034
0.222067
0.174637
-0.296826
0.122189
0.207163
0.0976503
0.707832
0.395988
-1.10382
-0.114334
-0.0127487
0.127083
0.0207669
-0.761719
0.699841
0.348452
0.732472
-0.663511
-0.90301
-0.0402812
-0.157936
-0.430099
0.422977
0.560825
0.312701
-0.873526
0.381826
-0.0458272
-0.0252023
-0.301948
-0.10316
-0.549896
-0.476381
0.351836
0.369627
0.607586
0.547981
-0.503192
-0.0447891
0.189614
0.0070779
-0.059174
0.249153
-0.0318953
0.715232
0.183236
-0.898468
-0.295867
0.322237
-0.227814
0.14071
0.0871043
-0.336234
-0.00266107
0.338895
0.369975
0.263859
-0.633833
0.215775
0.29542
0.636348
-0.0145136
-0.26222
0.342106
-0.295751
-0.13917
0.172573
-0.0334034
-0.897962
0.497338
0.78112
-0.624366
-0.156754
0.0147877
-0.14135
0.126562
0.784314
-0.858276
0.563336
0.0654201
0.160731
0.403708
-0.140174
-0.0061861
0.234429
-0.28879
0.0543609
-0.455948
-0.124666
0.998335
-0.518453
-0.479882
0.775818
-0.277189
-0.498628
0.400459
-0.667718
0.267259
0.0341608
0.489594
0.0180207
-0.00988372
0.433093
-0.423209
-0.0416209
0.27605
-0.363175
-0.190519
-0.0384482
0.81022
0.00264318
-0.812864
-0.414618
0.334084
-0.238769
0.105092
-0.0113056
0.117595
0.377887
-0.273705
0.487118
0.0133862
0.00729399
-0.0933037
0.143165
-0.368364
0.496797
0.0119225
0.244359
0.0224588
-0.166219
0.665457
0.0215389
0.526442
-0.118624
-0.123527
-0.220395
0.477031
-0.163629
0.665512
-0.501883
-0.747247
-0.116375
-0.2973
0.722378
-0.425077
0.0586901
-0.249209
0.305662
-0.0602438
-0.019573
-0.235164
0.254737
-0.746958
0.261624
0.130478
-0.134172
0.418517
-1.07779
0.299206
-0.893233
-0.269604
0.514366
-0.298616
0.486443
-0.265702
0.0125066
-0.580332
0.605944
0.000373056
-0.152578
0.0750503
-0.466473
-0.112614
-0.541121
0.653735
0.200243
0.298577
1.05529
-0.673924
-0.38137
-0.212936
0.0744098
0.219055
0.0214677
-0.240522
-0.724946
0.150918
0.193186
0.00787224
-0.00547478
-0.128143
0.133618
0.444024
-0.741325
0.0636364
0.401269
0.0554996
-0.456769
-0.756045
0.592416
0.143421
0.0375582
-0.180979
0.339962
-0.986641
-0.144477
0.000464418
0.144013
0.18458
-0.0411588
0.010429
0.668519
-0.482474
0.553751
0.475899
-0.260124
-0.808115
0.247748
-0.597764
0.508774
0.0889906
0.372321
-0.734348
-0.452583
-0.277079
0.729662
0.0353962
0.395567
-0.287004
0.245492
0.92162
-0.116694
-0.804925
-0.00807261
-0.839017
0.760792
0.0641977
0.442766
0.296875
-0.15874
-0.00128916
0.143532
-0.246346
-0.330286
0.0870016
0.025956
-0.112958
0.0191155
-0.816843
0.797727
-0.0717187
0.305719
-0.234
0.269127
-0.843347
0.57422
-0.0494681
-0.511369
-0.0265502
0.142373
0.585297
-0.317972
-0.181014
0.498986
-0.349303
-0.315737
0.421144
-0.244004
-0.235183
0.0361943
0.198989
-0.122961
0.297598
-0.866175
-0.104305
-0.0628798
0.167185
0.196262
0.218215
-0.414476
0.577863
-0.898821
0.320958
0.057175
-0.520267
0.131366
-0.993509
-0.463631
-0.538319
1.00195
-0.84133
0.0273721
0.813958
-0.97787
-0.714905
0.0357324
-0.277106
0.280475
-0.00336861
-0.870052
-0.305392
1.02062
0.359492
-0.180898
0.0894194
-0.309815
-0.15017
0.44559
0.146784
0.100744
-0.368467
0.015812
-0.128602
0.11279
-0.174413
0.0178649
-0.08461
0.0993976
-0.279472
0.469252
-0.978135
0.613477
0.364658
-0.0735635
0.377863
0.513526
0.200482
-0.0115426
-0.151934
0.230658
-0.433152
-0.239905
-0.504738
0.172878
0.331861
-0.0262709
-0.17411
0.200381
-0.395648
0.454731
-0.0920002
0.649995
0.5222
-0.245097
0.432655
-0.781958
0.417105
-0.493589
0.0764846
0.116087
-0.00985197
0.117943
-0.00489967
-0.881399
0.546069
0.30401
0.471808
0.0139455
-0.190909
0.176963
-1.10111
0.443346
-0.16204
0.209539
-0.182683
-0.015562
-0.209808
0.22537
-0.516746
0.198774
-0.909332
0.815262
0.769957
-0.237796
-0.201731
0.183177
0.0185535
-0.202596
0.0106638
-0.149952
-0.980267
0.398813
0.581453
-0.142487
0.129738
-0.0661257
0.31606
-0.249935
0.542956
0.0203797
-0.0732165
-0.198653
0.27187
-0.257145
0.269067
-0.214384
-0.0994262
0.566048
-0.8317
0.872377
0.0550036
-0.520323
-0.292332
0.838697
-0.0367905
-0.801906
0.0488272
0.164454
-0.213281
0.506578
-1.00678
0.389333