/*--------------------------------*- C++ -*----------------------------------*\
| =========                 |                                                 |
| \\      /  F ield         | OpenFOAM: The Open Source CFD Toolbox           |
|  \\    /   O peration     | Version:  2306                                  |
|   \\  /    A nd           | Website:  www.openfoam.com                      |
|    \\/     M anipulation  |                                                 |
\*---------------------------------------------------------------------------*/
FoamFile
{
    version     2.0;
    format      ascii;
    arch        "LSB;label=32;scalar=64";
    class       volScalarField;
    location    "2.1";
    object      p;
}
// * * * * * * * * * * * * * * * * * * * * * * * * * * * * * * * * * * * * * //

dimensions      [0 2 -2 0 0 0 0];

internalField   nonuniform List<scalar> 
13486
(
2.23334
1.78902
0.200007
-0.479181
0.678776
-0.0745087
0.283958
1.22052
1.50671
0.776715
-0.929719
0.432821
2.35099
-0.263118
0.534173
0.866939
-3.82959
-1.20876
0.528499
2.01535
-0.413192
2.32264
1.7523
-0.564899
0.737411
-0.536414
-0.613507
-0.388096
0.0208967
-0.296829
-0.32655
0.33478
-0.768278
-0.213039
1.22507
0.0135593
0.0695886
1.81034
0.0490842
1.51198
0.0269763
2.44018
0.0536513
0.740392
0.702051
0.416126
-6.95704
0.0236302
0.0735299
-0.461467
1.31041
0.0271273
0.304977
1.84274
-0.538095
0.742612
0.100422
0.0387739
-0.747851
0.0903403
-0.836293
0.0823191
-2.19744
-0.396369
-0.333555
0.0858601
-0.505658
2.24204
1.49567
0.0554608
-0.506914
-0.673022
1.53147
-6.14447
0.0798305
0.105718
0.0832019
0.521044
-4.99973
0.0261923
0.00995635
1.81135
-2.33864
0.229189
2.24222
0.912512
0.158819
1.25714
1.47884
0.872479
0.146666
1.05371
2.13944
1.91677
1.55643
0.000378252
-0.596149
-0.51063
1.48947
-3.49836
0.0165151
-0.17955
-0.507888
0.0426677
1.13004
-3.62355
1.5107
0.0559013
-5.98362
0.921297
1.42844
0.212347
1.84178
0.0797474
2.64562
1.49837
0.736967
-0.205395
1.54569
0.0602668
-1.45906
-0.818485
1.63071
0.0554924
1.42584
0.0357106
1.06461
0.423332
-0.168328
-0.275424
0.0375874
-6.84317
-6.14052
-6.07735
1.36766
1.19276
2.73482
0.966124
0.0577378
1.26816
-0.685061
0.287985
0.396761
0.0208489
0.0795921
-1.36042
0.218763
1.83245
-0.513035
0.004999
0.877117
0.489719
0.00780315
1.84938
0.439818
0.191658
0.72417
-0.0077666
1.63695
0.138399
-0.359452
1.63774
-0.276056
2.43344
0.0274881
-0.503641
-0.0272061
3.0888
0.218297
-6.13872
-6.66504
0.459736
1.04008
0.786602
0.00482073
-0.539864
-0.525339
-0.836696
1.513
0.414356
1.41586
0.0784905
0.620806
-0.659019
0.244822
-0.394032
-0.00334968
-0.284649
0.109127
1.58086
0.0660702
0.12512
0.0182973
1.97013
0.0117706
-0.911843
-0.291547
-0.384341
2.00107
-0.414255
-0.328583
0.402155
1.81399
0.469913
0.13708
0.00685115
-0.500188
1.64168
0.0226691
0.245049
-0.327142
-0.391109
1.98831
1.50792
-0.0871478
-0.0982942
-0.315129
0.894372
2.02519
-1.83843
-3.91108
-0.525692
1.30393
-0.392161
0.256072
2.17182
-0.342594
-0.39228
-0.0667904
0.150596
1.40045
-0.424899
-0.711571
2.49062
-0.458361
2.08611
-0.243094
0.128025
2.10824
0.668669
-0.734441
1.02245
0.0819621
1.98403
0.0766503
1.71211
0.691151
-0.416051
-6.75544
0.838502
-0.584619
2.67884
1.44574
0.0475775
-0.020089
-0.580484
0.318014
-0.0930816
0.064237
-0.680846
1.638
0.0815505
0.521132
-0.576207
0.749223
-0.658103
-0.0712971
-0.35364
1.45004
-0.185675
1.51687
1.47111
-0.333891
0.351071
2.17559
-0.395194
-0.0275626
-0.176826
0.0478962
0.228353
-0.157303
1.24493
1.52298
-0.825014
-0.765879
-1.29554
-0.728042
-0.183611
0.266319
1.46181
-0.457086
0.0996023
1.55503
1.38803
-0.219809
-0.248197
-0.366191
0.355985
1.55522
0.197824
-0.432364
-0.546472
0.225701
0.374185
0.0632198
0.497771
-0.484952
0.698278
0.142917
0.0731625
-5.35992
-0.472739
-0.25661
0.206259
-1.04637
1.21876
0.103068
1.47925
1.64886
-0.0994863
0.0681742
0.0911319
1.50265
1.93005
2.68629
0.184843
0.933225
1.21775
0.292019
0.857804
1.25384
1.00092
0.04676
2.06814
0.275415
1.46743
2.73196
0.526457
0.926906
0.0868545
-0.0849985
1.9101
0.823021
0.638791
-0.655899
0.0160448
0.998692
2.63195
-1.80078
0.105277
0.964299
0.313874
0.348463
-0.583583
1.53895
0.0201311
-5.70635
1.04076
0.137735
-0.382136
0.574042
0.156043
1.66868
1.47903
-0.303796
0.00705762
-0.247204
-7.69628
2.03247
1.05414
0.0695561
1.01491
0.254828
-0.607028
-0.0837291
1.33792
1.51502
0.0951686
-1.03715
-3.28753
1.43608
0.963563
2.36094
1.60207
-7.8618
-0.0401889
0.186041
0.900206
-8.20757
-0.294567
1.95452
-0.364145
0.660194
2.12639
2.20855
0.0610165
-0.49243
-0.603845
-7.51558
-0.734221
-8.18439
0.35754
1.34998
-0.563403
0.3163
0.19856
1.88857
-0.793558
1.07073
1.68662
0.8962
-1.19233
-0.418226
1.55623
1.51373
1.90433
-0.640887
0.772919
-7.83658
0.687018
1.51429
-0.12256
2.64261
0.969559
-0.359385
-0.261499
0.37906
1.52461
-0.635698
0.0666771
2.30322
1.35914
0.647787
0.267224
0.593732
-0.468607
2.34989
0.101895
0.83043
2.20528
-10.3498
-0.340105
-6.02903
-0.421111
0.159368
1.77317
1.78839
2.31769
-3.34821
0.0654822
-0.658894
0.95283
1.51184
-0.458241
-1.33704
1.49161
-0.591169
-0.531458
-0.813759
-1.30441
-0.1337
1.87742
0.00187198
0.0973692
-0.449516
1.43049
0.00914535
2.91274
2.16217
1.52545
1.16334
0.0416676
0.00517427
2.71427
-0.0360803
0.057634
-0.344865
1.48098
-1.52673
0.334421
1.06105
0.045995
-0.616893
1.73316
-1.36362
-6.43218
1.00178
-0.303897
3.07738
1.01511
1.32324
1.63714
-0.559471
0.240198
2.4693
0.660196
1.94074
0.247814
0.483675
-0.360924
0.0259441
0.0334376
-3.20795
1.54595
1.46454
-0.581859
0.00272412
-0.105617
2.22878
1.77759
-0.0410881
1.49419
1.09382
-0.605443
0.737608
1.32755
-7.36731
2.32207
0.0598757
0.0642665
2.42505
0.971704
-0.00442948
0.976874
-0.361223
-0.576739
0.61278
0.870449
1.65589
2.14451
-0.602297
0.591514
-0.615891
0.00374343
2.08095
0.491802
-0.651302
-0.51209
-0.169686
0.0923807
1.18481
-0.326551
-1.26319
1.49853
2.04391
0.0600598
1.63267
-1.48044
-0.62087
-1.83032
0.646747
-0.66524
1.65152
0.247553
-0.8151
1.26285
1.75545
-0.66162
-0.638068
1.33985
2.08907
0.476337
2.25314
0.248538
1.01285
0.396629
1.666
0.0693145
2.03165
-0.588746
0.332284
1.42044
-0.1361
-0.369584
1.50788
-10.9509
0.359979
1.74269
2.31649
-0.308791
0.149282
0.421642
0.236978
1.35377
1.05164
0.357969
-0.667296
0.144668
2.21487
0.314676
0.123796
-0.513966
2.33194
-0.150945
0.0800184
1.46264
1.14225
0.0237072
-0.255385
1.24002
0.293759
0.181821
0.623351
-1.37207
2.26162
1.46407
1.0485
1.09837
0.175258
-0.752117
2.55278
0.526446
2.55805
-0.389683
1.47102
0.0228766
-6.69208
0.827988
0.835379
2.68462
-0.420014
0.919749
0.895753
-1.90729
0.798603
-0.808665
-0.656941
1.46063
-0.646995
-0.360579
-0.473285
-0.290228
-0.152704
1.62256
0.00597917
2.4728
1.4946
0.122383
-0.61681
-0.326017
0.541726
-0.77382
-0.385654
-3.09478
2.06975
0.00311491
0.0799162
-0.680424
2.36768
-0.00190828
-0.481713
2.42044
1.33532
-0.647777
0.061143
1.04629
0.213579
1.40784
0.0783654
-0.3283
0.617118
1.38182
0.500304
1.22238
2.45607
0.0802474
-0.487985
1.51398
-0.0789691
-0.102422
0.998504
1.12249
0.666922
-0.651334
0.235054
0.090442
0.312134
2.07783
0.502637
0.293463
0.237518
-0.0782417
-0.010684
1.50475
0.127265
1.37518
1.41981
2.06971
-2.19166
-1.30017
2.5383
0.0508265
-0.587702
1.57638
-0.498038
1.69119
0.0637811
1.46134
-0.560857
-5.63178
-0.468511
-0.000747939
-5.33749
0.800055
2.6171
-0.132724
-1.15961
-0.401402
1.54079
-0.0499341
0.688907
-0.71436
2.5957
-0.656614
0.74294
-0.483707
0.871957
1.49591
0.552985
-3.06251
-0.371631
2.39594
1.54907
0.559543
1.35207
-0.0373081
1.16166
1.16555
0.890554
-5.51673
-0.0240034
1.87127
0.273673
0.0397057
1.20613
-0.573994
-0.12014
0.0460452
1.6215
1.59039
-0.459034
0.262922
-0.643294
-0.390114
0.294239
-0.136724
0.136788
1.44999
-0.0832247
-1.5349
1.73604
-0.276768
-0.241558
-0.0278785
-0.502992
-0.465755
-0.431169
0.0851786
-0.607231
1.39864
2.34772
0.0625993
-0.23182
2.42661
2.27447
-0.311823
-0.288679
1.52703
-9.66076
0.0781007
-0.0552135
0.091214
0.779692
-5.94222
0.732477
1.0181
-0.442107
-0.183516
-0.654423
-0.072902
1.27495
0.643357
0.940332
-0.484426
1.27734
2.22722
-1.89307
-0.598694
1.6613
0.394708
0.915696
0.0602157
-0.293374
-0.499418
-0.0349973
1.54332
2.56488
1.64376
0.162666
-0.0804339
1.50648
2.16839
-0.307241
1.58254
1.50935
2.27208
0.306565
0.080578
0.29541
-0.0892505
2.2604
0.26723
-0.0372701
1.02401
-0.0200677
0.42635
-0.00319824
-0.930555
1.42451
1.1516
1.04906
0.721537
-2.72483
-0.19214
-0.119387
0.78885
-1.444
-0.832017
0.0786095
-0.60982
-0.823297
0.806373
-0.294361
-6.63925
-2.61073
-0.156978
1.05885
-0.921082
-0.515615
1.68035
-0.375878
2.32556
-0.380336
-6.74019
1.7547
2.0952
0.0749039
0.126472
0.201814
1.54009
0.780994
-1.6887
0.0346311
0.0653356
-0.161957
1.46997
0.0710363
0.902714
0.092167
1.48553
-0.667611
0.0750366
0.0420261
1.81251
-0.574187
-0.89208
-0.500617
2.30378
-0.172656
-0.481186
-1.10103
1.51555
-0.539987
0.094957
0.419236
0.67286
0.150091
1.00089
-0.320837
1.21947
1.4858
1.72187
0.7046
0.0654216
-0.152964
1.13602
-0.566018
1.78201
1.00761
0.0245081
0.0556294
-0.0415775
0.03213
0.0651296
1.69792
0.642922
-0.106739
1.49062
-0.898677
1.1813
2.65328
-0.00113781
-1.45107
1.0376
0.191105
0.0550264
-0.052878
-0.439481
1.49829
0.0838432
0.0375148
0.0625733
-1.46665
1.90176
-0.641721
0.0154004
1.50157
0.196931
2.128
1.71804
1.98875
0.435403
0.92566
0.439125
0.164957
1.07864
1.46689
-0.463946
-0.130722
-2.90887
-0.24496
-0.670106
1.50231
-1.16175
-0.686995
-0.598187
-0.45838
0.0396857
1.50997
0.0436701
0.0860385
-5.8067
1.51929
2.60898
0.201804
-0.979688
0.843495
-0.287546
1.48407
0.129115
0.0770225
1.79059
0.0251899
2.46411
1.01812
1.49736
-0.283065
1.93731
0.0863641
1.7275
0.0613091
-0.68377
-0.531857
-0.436076
1.00458
0.162204
-0.280324
2.31867
1.50779
1.61413
2.11042
1.64527
1.80893
-0.116868
1.54306
1.52753
1.54983
-0.108487
-0.328615
-0.460105
-1.51175
0.307064
1.6601
-5.40978
2.36754
-1.51886
0.078927
2.54553
2.13521
-0.135891
-0.436627
1.50623
0.779161
-0.0837018
1.38916
-5.56625
-0.484265
1.48944
2.06074
0.0720103
1.63236
1.91815
-0.000229287
-0.351453
1.93058
0.653988
0.0622471
-0.655349
0.22844
-0.8768
1.40095
1.0901
0.0844353
-0.300268
-0.327355
0.297063
0.0497258
0.418223
2.18584
0.0378831
2.84702
1.50687
0.486879
1.6842
-0.647923
-4.94014
-0.536081
1.49342
0.064594
-5.33955
-0.320416
0.766785
0.871928
0.0837562
1.00548
-8.05357
0.734168
-0.0915094
0.0973847
1.19332
0.453261
1.93176
1.53572
1.56738
1.4359
-0.137807
-0.621166
-0.590274
0.232121
-0.325487
-0.176336
1.16815
-0.343045
0.0548254
0.095829
-0.669343
-0.716643
1.06648
0.698073
0.166887
-0.340408
0.704378
-0.52264
-0.501208
0.318658
0.166955
1.62976
1.13045
1.90457
-6.02327
1.35494
0.0698738
2.08488
-0.226238
0.81136
-1.04653
-0.108889
2.42285
2.54314
1.24354
0.740001
1.02777
1.35292
2.44962
0.986102
-0.696925
-0.696657
0.373145
-1.5313
-3.05954
1.50293
1.46513
0.159225
0.267106
1.20911
1.37101
2.67524
-1.23063
1.18602
-7.8993
-0.0892496
2.14323
-0.0429371
1.22535
-0.285036
0.631086
0.609232
2.79929
0.162446
-0.4681
0.786836
0.32704
-0.660783
-5.60319
-2.05223
1.66173
0.159539
0.755064
2.27284
2.09225
-0.00501906
-2.86176
0.149961
0.281636
1.73492
1.45075
2.06738
0.867872
-1.11524
2.16924
1.32936
-1.58387
1.11678
1.5311
1.86804
-0.961203
-0.446609
0.00120375
1.2747
2.38435
0.744836
-0.720898
-0.854769
2.68914
-1.52559
-0.692672
2.49047
1.3088
0.181618
1.18033
-0.492716
0.791424
-0.197672
-1.42617
0.0801924
-0.553001
0.165967
-0.14337
-10.3008
-4.8867
-2.38732
0.258115
-7.73875
-0.595316
1.33885
1.38417
0.692767
-8.44634
0.281518
0.249775
-0.150916
2.83253
0.946174
-0.51935
1.32467
-0.200802
-0.558623
1.18543
1.17175
1.46788
2.87532
0.00427572
-0.0357099
-0.562418
0.254747
0.982201
1.43348
-0.460574
2.19328
1.02159
1.59148
-0.353348
0.0357442
0.106908
1.52852
1.50728
1.57803
1.49682
2.63002
2.55892
-0.212555
1.3198
1.90112
-0.500033
2.05989
0.0497001
2.52838
2.03974
0.166073
1.69722
0.74609
1.10805
0.147395
1.51355
-0.619368
1.29835
0.497378
0.949948
-0.0553516
1.48268
0.0576404
0.304202
2.43995
2.43192
0.969561
-5.89863
0.417816
-0.0988983
-0.0393677
1.20473
2.17965
-5.91838
1.54925
1.41525
0.7165
1.52077
-0.635222
-0.276042
0.0937613
2.69225
0.367527
0.151309
1.72017
-0.0587827
0.0970523
0.805852
0.374058
1.14698
0.481325
-0.292369
0.875813
1.16574
0.941845
1.08123
2.58872
2.11241
1.84296
1.97973
2.38453
0.679985
0.0420255
-0.515207
-1.80051
2.41319
-0.3371
1.4901
1.32541
-0.641492
0.745374
1.65371
-0.421932
0.729281
0.933915
2.91149
-0.584863
0.647375
0.191795
1.68761
0.1941
-0.447337
2.37072
2.01526
1.42971
1.49389
-0.230671
0.596827
-3.86155
2.55367
0.0585264
2.77842
-0.378464
-0.536965
-10.038
0.70958
-5.413
0.0653498
0.0372696
0.575112
0.163945
0.555471
-0.473223
0.00600275
-0.19556
-6.19613
-0.394024
-1.81134
0.181992
-0.0102987
-0.46172
-0.781263
1.50167
1.53281
1.92258
1.48693
0.575933
0.599575
3.10746
1.45544
-0.73448
0.0121174
-0.0624147
1.15721
1.30733
2.19776
-0.769158
-0.742195
1.16987
0.00208854
0.442858
1.868
-5.88084
-0.650694
-5.27267
2.5836
-0.513217
1.0438
1.89967
-0.465135
1.16078
0.0458613
-0.641853
-0.603618
0.131046
1.01118
1.7608
1.86649
-1.62458
-6.00648
0.91919
-3.95799
-0.286316
-0.148494
0.165248
-0.186338
0.130315
-0.505369
-0.585402
-0.574233
2.28323
-0.421097
2.50602
-0.670997
-0.0410662
0.522266
0.0143983
2.10603
1.43423
1.75743
0.190988
-0.195927
-0.698839
2.02491
-6.14268
1.10905
0.0840789
1.80548
2.10412
0.0826248
1.49827
2.39875
1.6248
1.61289
-3.29449
-0.296491
0.595338
-0.473852
0.0503957
0.861825
1.00354
0.207786
-0.856411
0.418131
0.123048
1.26419
1.05632
-0.343398
2.52013
0.247001
0.0132899
0.321913
1.48654
-0.275471
0.0179439
1.60972
-0.716193
0.178548
-0.15529
1.5528
1.48295
1.40028
0.124495
1.40759
1.71957
1.6721
-0.202774
0.0861336
0.361591
1.2788
-0.821915
-9.11893
-0.465478
-1.63381
-0.48876
0.0214972
0.0417522
0.0834373
-5.30156
-0.537588
-0.741753
0.125954
-0.204748
0.594847
-0.655213
1.59502
3.11295
0.522363
-0.182705
0.687269
0.211023
0.430366
0.0285691
-0.268829
-0.57077
0.240465
1.95802
0.0116478
2.35404
0.033312
1.39999
1.19469
0.635825
-11.2601
0.779129
2.63602
-0.468861
1.49329
1.45487
2.18813
0.259247
2.00701
1.57791
-9.46139
1.68438
-0.593952
-1.74626
2.05065
1.30956
-1.70356
-0.00980347
1.92994
-0.00569528
-0.389464
0.0724414
0.0721464
1.14705
0.833697
1.49597
1.368
1.28234
-3.15418
-0.405404
-0.18446
1.45946
2.77005
-0.304364
-1.83869
-10.9084
1.46516
0.23342
0.249422
0.563273
-0.571511
1.13631
-0.509029
0.19642
2.39808
0.718494
-1.10217
-0.338764
-0.554335
-0.453331
-7.4669
-0.577762
-0.651834
1.77214
0.84163
-0.431853
2.42671
0.0108379
-0.677129
-0.177913
-1.68238
1.60054
-5.465
0.53936
1.4736
0.14877
-0.212467
-0.125937
-0.770528
-0.37757
1.62632
-0.741031
0.0558276
-4.45743
1.4543
1.60818
-0.519466
1.88345
1.73957
2.2625
2.32808
1.64413
0.342802
2.70032
-5.43288
1.42878
0.235943
-0.706233
1.81012
-0.465807
2.27882
0.731721
-1.25393
-7.82071
-6.72521
1.60363
-0.45654
-0.237776
0.22925
-1.32924
-1.06981
0.948464
0.364852
1.06035
2.58111
-5.98265
-0.537062
-0.746779
1.52464
1.12045
-0.377596
3.07369
0.0462595
0.113814
0.954026
-1.37973
1.44833
1.52202
1.70593
1.71034
-1.54911
0.771835
1.42394
0.400179
-0.560566
0.0288718
1.59494
1.67379
2.04485
-0.440586
0.204925
0.667698
0.92678
0.117319
-0.665639
1.24287
-0.266305
1.30774
1.5463
-4.23622
2.34563
-0.39665
2.58673
1.68362
-0.696522
0.0015188
0.0756283
0.584733
1.57455
-0.638776
2.01526
1.41918
0.693544
0.0613256
0.401395
-0.342496
0.689039
-4.88496
0.873056
-0.361403
1.46198
-7.62698
0.088022
-0.173536
1.84136
2.1223
0.744107
-7.01792
0.762963
0.0037839
0.229045
0.866058
-0.453833
-0.392106
2.50473
-0.710696
-0.0557333
-0.586408
-1.32844
-0.0845167
1.55914
-4.742
-0.149965
1.56712
0.930543
1.61283
-0.602019
0.672046
2.5426
-3.00762
1.43914
0.402559
-0.408236
0.571572
0.4067
-0.942113
2.59482
1.69574
0.189255
2.52863
1.92943
1.82461
-4.45264
-8.54489
0.883781
-1.46663
-0.0523007
-1.42804
-1.38481
-1.40996
1.16355
0.614282
0.860345
0.969795
-0.461391
1.07441
1.46455
-1.34143
1.53391
0.952255
1.50061
0.00824178
0.0453019
-0.516836
-7.87647
-0.581625
-0.187855
1.44827
-0.724791
2.27218
-0.642204
1.45548
0.857289
0.0906325
0.21503
1.53492
0.692275
0.420718
1.32919
0.106536
-0.745797
2.1484
1.76618
-0.389547
-1.00433
0.113962
1.32751
0.0872404
0.559298
-1.51596
0.15069
-0.0242334
0.152556
1.29224
1.20921
-0.589903
0.683021
0.0410669
0.0492634
-0.64858
1.84087
-0.553232
1.4827
0.0149876
1.29828
1.58286
0.881304
1.37372
0.167919
-0.464387
0.100215
-5.88986
-0.478149
-0.38546
0.0493655
-0.229849
1.19702
0.0419355
1.48323
-0.255361
-0.505382
-2.05029
0.0594289
1.55336
-0.595951
1.4488
0.446419
-0.557286
-0.331124
-0.550145
1.05263
1.58013
0.0577634
0.367304
-5.19935
1.73048
-0.0624971
0.385312
-0.653997
1.86573
0.726332
0.0412815
1.59511
1.53257
1.7996
0.363373
1.83688
-3.21903
0.12414
-0.141034
1.41009
0.97412
0.45624
0.0636305
-0.648049
-0.645132
0.786296
0.173299
-0.642333
2.39382
-3.58723
1.76556
1.05785
-0.24597
0.0440984
0.159496
0.0408724
0.242984
0.326806
1.40356
0.0929597
1.50331
-2.10491
0.496175
-0.370812
0.242507
-0.665156
1.83949
2.54809
1.63342
0.766598
0.185513
0.971623
-0.658053
-0.214507
0.128173
-0.0299732
-0.411579
-0.717895
-0.645602
-0.412765
1.31299
1.43911
-1.8215
0.437582
1.6852
-0.436002
-1.47177
1.60735
0.0378767
-0.807366
0.065213
-0.131734
0.00959861
2.41628
0.127585
1.40917
-1.28122
-0.693034
-0.427584
1.44293
0.274747
1.20913
-1.21544
-0.554205
0.167277
0.228312
1.71913
1.30633
0.332364
-0.203709
-0.224801
2.65136
-0.421454
1.68234
1.83771
-0.118175
0.0338183
0.68202
-10.9263
-0.469921
1.30275
0.863537
1.43674
-0.504796
1.62852
0.244904
2.12498
0.219023
1.32439
1.87543
1.24445
0.32363
-0.653905
0.534897
-1.57009
1.24378
0.706014
1.79388
0.232103
2.25523
0.356658
2.40224
0.112228
1.86249
-0.118889
1.11264
-1.22629
1.44087
0.700972
0.626133
2.28039
1.4793
0.384435
-0.406112
0.840906
1.41355
0.0519645
-6.96184
1.09358
0.15639
1.92798
-0.528007
2.29672
0.426983
3.14724
2.32426
1.04384
0.899896
-1.17511
0.182402
2.47374
0.226916
0.0532965
-0.00874516
2.5342
0.741907
1.2633
2.19223
-0.701699
1.61946
-0.15045
1.75986
0.0964813
1.65695
1.51645
2.04742
0.0431764
-4.48042
0.479116
-0.565042
0.671523
0.0936346
0.155625
1.91291
2.16251
0.0401555
0.415323
-0.127373
1.92882
1.22434
1.35695
0.946126
-0.106917
-5.4811
-0.417762
1.53504
-2.15992
-0.316533
0.150348
1.02831
0.702433
-0.454872
2.626
-0.301125
2.27233
0.33356
2.37774
-0.260493
0.177568
0.093527
0.0878835
1.26935
1.47571
0.177946
-0.329078
0.0951263
-0.302768
2.14344
-0.417428
0.134217
-0.382271
-0.343054
0.382887
1.80526
0.658069
0.123117
0.0695208
1.48845
2.78118
-0.566163
0.158195
1.43306
-0.251902
0.80026
0.0897662
1.00885
-0.344943
-6.90899
-0.367667
-0.276723
-0.0257966
0.202861
-1.23877
-0.403462
0.010403
1.17023
1.59028
1.3009
2.69164
-0.884751
2.50355
-4.76266
2.33203
-0.634578
-0.745216
2.59702
0.641261
-0.309943
1.48131
0.0322306
1.60619
-0.607881
-4.28927
0.352459
-0.384032
-0.423921
0.0131925
-0.0241633
0.632413
1.83373
-0.634184
0.699778
-2.00203
0.284747
-0.318654
0.0536447
-0.513473
-0.337262
-1.57966
1.98795
0.0511987
2.17422
0.582897
-0.590041
0.516678
-1.22838
0.0895085
1.29209
1.85566
2.72905
1.13963
1.25498
0.656416
-6.17361
2.6297
2.79585
1.62582
-0.717959
-0.515644
-1.55078
1.36952
0.942089
0.503333
1.22688
-0.326311
0.0580166
-1.32145
2.26338
-0.462435
0.258274
-0.450683
1.41129
0.403585
3.0279
2.82353
1.31848
0.102654
0.332295
-3.75366
0.578699
2.90026
0.0595901
0.0945029
1.06607
0.0234277
0.370749
-0.0519756
-0.190314
0.395825
0.211288
0.694689
0.0563678
0.511647
2.07044
0.330393
1.58064
-0.446644
-0.237146
2.50695
-0.94659
-0.00619915
0.28672
0.665042
0.224807
-0.541503
0.1754
0.138161
0.125195
3.06737
-10.9489
-1.66657
-0.485329
-1.03361
0.149146
0.276874
-0.511264
-1.30459
0.0458701
-2.2769
-1.12371
-0.475791
0.219905
0.181946
0.246041
2.9826
0.193512
0.473132
-0.0234057
0.393907
-6.13703
-0.190226
2.04199
1.50779
0.490073
-0.310196
1.44361
1.5911
-0.219722
-0.697421
0.122566
2.02973
-0.448602
1.4021
0.161273
2.27804
0.291108
-0.445002
-0.536953
1.6261
-0.33597
1.33048
-0.730655
2.85149
-0.502952
-0.176124
-0.952082
0.66874
-0.523084
-0.709274
-0.497854
0.296932
0.566016
-0.506601
-0.409518
0.00257146
0.199198
-0.359608
-1.12577
1.22235
-2.0682
1.28007
-0.493379
1.64511
2.60793
1.36993
-5.73871
1.48366
0.255277
0.0227103
-0.00370831
-0.297497
-1.76861
0.177188
-0.204676
0.55026
0.0748876
-1.13192
-0.191356
-1.17911
0.730145
1.50831
-1.65781
-0.541339
-0.39589
0.0563762
-0.293929
0.864919
-3.50804
-0.541907
1.5034
-0.271625
0.772649
-0.680495
-1.22387
-0.64759
-0.896608
3.0425
0.405185
-0.50178
0.413877
2.4598
2.51281
-0.442096
-0.152847
1.48117
0.066493
0.176364
2.52556
0.818769
1.27693
3.07726
-0.402308
0.34135
0.294874
2.2302
1.55486
1.51876
1.86733
1.0689
0.0689643
0.118342
0.726558
0.41533
-8.65485
2.57182
-0.729504
-0.840017
0.0557885
-0.353712
0.713501
-0.440997
-0.170288
0.370759
1.54125
1.61183
1.68761
-0.694342
2.19705
2.49936
-1.54962
0.928722
0.0308927
0.0907953
0.0268313
0.88761
-0.22081
-0.45901
-0.769892
2.78808
-0.606018
1.70961
1.51169
1.9562
1.08904
1.17054
-0.324305
0.0541981
0.800607
0.0393093
-1.73394
-1.72496
0.180792
-0.490854
1.82761
-0.490389
0.0804122
0.341941
-6.06025
-0.468359
-5.7604
1.3545
-0.154557
0.145437
0.737109
-0.561046
0.491711
-1.84875
0.0322551
1.60886
-0.643938
2.57482
0.0510461
2.76772
0.00409057
0.131572
0.289238
1.30549
1.26175
-2.74649
-0.0191555
-0.268275
0.280521
1.03091
3.10024
1.9631
0.457179
-0.432628
0.763762
-0.711273
1.68907
-0.226414
0.893023
-0.411406
-0.470467
-5.59836
0.434295
0.0668206
-5.98269
1.00257
0.933177
2.46624
2.67569
-6.64827
-1.56952
0.150342
-1.2139
2.57188
0.240088
-0.632974
0.69968
1.09879
-0.342587
-0.0204011
0.281157
0.0414486
1.33432
-0.324938
0.35959
0.190614
-0.802743
-2.31272
-0.322293
-2.45491
-2.01674
1.63548
-0.438754
-0.438401
-0.148554
-1.04109
2.83451
1.05359
1.40492
-0.163937
0.746234
0.0673924
0.580795
0.507637
-0.510587
-8.71937
2.56262
1.58967
0.0685366
-7.78202
2.95107
-0.489148
-7.43608
-0.406026
0.722917
-0.526028
-0.354784
2.2187
-0.0172028
1.36012
0.643456
-0.477526
-0.270261
0.174644
0.711314
-2.73074
0.107567
0.484673
1.46137
-0.554285
-6.52438
0.174695
-0.247073
-1.45511
-1.23237
2.76818
0.997177
-0.658194
0.678505
0.446895
2.40373
0.821986
-10.2384
0.86318
1.88623
1.59993
-0.381539
1.32087
-0.330243
2.54036
0.0584387
1.52858
-0.655446
-0.362755
0.0639166
-0.430644
0.833529
0.561919
-11.2977
-0.540729
1.75009
-0.300931
0.0252264
2.07848
1.18492
2.02228
1.4082
-0.585015
0.0281368
0.14051
1.46455
0.0150002
1.837
1.11971
2.52407
-0.501286
1.96811
0.663789
2.56779
-0.474803
-0.721019
2.61858
-0.497072
1.08731
-0.666039
2.23515
2.52315
1.61656
-2.48518
1.48925
1.91919
-0.345701
0.653061
-0.408617
2.05142
-0.49062
-0.338547
-2.16744
-2.7452
1.88566
0.664998
-2.78113
0.764269
2.518
-0.785992
-0.194322
-3.41553
-0.802046
1.21564
-0.0401501
1.43011
1.39231
-3.05375
2.85028
0.0304686
2.13022
2.10071
0.163119
0.0125862
1.30422
-1.58721
-0.0878522
1.28531
1.10369
-0.428522
1.39692
-0.436957
2.2907
1.61864
0.552717
-0.153061
1.63647
-0.308238
0.91265
1.96277
0.384818
0.0504488
1.90379
1.58349
-0.508114
-6.03284
1.09914
1.65707
2.53886
-8.48875
2.68723
2.7167
2.73904
-0.199139
1.85086
-0.664236
1.50267
1.99019
1.94709
1.64192
2.18084
3.02052
1.30437
-9.62013
0.0152617
-7.11886
2.99146
0.796634
-0.3153
-0.53856
1.39961
2.21213
1.44687
0.470515
-0.00938958
2.19263
-1.60242
1.57832
-0.537643
0.723714
0.0514437
0.35468
0.965092
-0.653768
-0.644577
-0.180773
-0.234706
-0.00590545
1.81472
-0.25568
0.302161
1.38776
-1.21602
0.864012
0.0598628
-1.19067
-0.637178
-10.2759
2.08604
2.25318
-0.485517
0.677445
1.91788
1.76452
0.042639
-0.527916
1.6219
-9.40831
2.05475
-1.14654
2.00079
0.943057
0.28457
1.8653
0.990445
1.94888
0.513917
0.73412
-0.335597
-5.69847
-1.34355
0.0694788
1.91241
-0.61227
-0.362627
-0.613318
2.16102
1.9279
0.553252
1.09094
2.15682
-1.86558
1.41326
0.142516
-0.408681
1.40966
-0.435958
-0.643114
-1.12703
-7.29658
-0.17802
-0.675298
0.137322
-1.73483
-6.542
1.21305
2.57852
2.8281
2.4396
-0.610489
1.59553
-0.67665
1.37806
2.15387
0.266621
1.87895
-0.613752
0.504259
-0.378166
0.00944098
2.04447
-1.0967
1.67743
-0.895906
-0.281673
-6.89979
1.71763
1.6656
1.50013
-0.664263
1.40314
-0.421543
-3.40259
-4.0973
0.446604
2.58227
-2.51154
-0.157122
-0.537001
1.47845
1.43255
0.0325449
0.955122
-0.765905
2.18908
2.01298
-0.354871
-0.208792
2.12934
-0.414444
-0.862288
0.103698
1.94723
2.19115
-0.656199
1.01881
-0.174563
2.53232
-2.19933
-0.361986
0.0132549
2.3643
0.0983261
-0.313744
-0.305453
2.02745
1.18556
2.01298
-0.0326318
-2.16142
1.64597
2.95237
-5.35018
1.30963
0.0745755
-3.10801
0.0685241
0.531294
-0.563439
0.989311
-0.45904
1.00074
-0.319014
-0.43732
1.84351
2.2069
1.39532
-1.47181
-0.36007
1.70944
-0.740129
0.517268
-0.440059
0.725238
-1.62228
1.61008
1.71501
0.027325
1.60517
2.48906
-0.154958
1.18007
1.69507
-4.71832
0.929689
-0.382576
0.718952
0.477404
1.18946
0.011643
0.484796
-0.111661
-3.5289
2.07279
0.53674
-0.223783
-0.411566
-0.0772386
1.55379
-1.06861
2.72548
-0.597311
-8.8821
-0.290365
1.89845
1.67126
1.97999
-8.44041
2.39219
-0.793307
1.13495
0.270326
-1.43454
1.38785
0.667653
-0.152436
1.00153
-6.28002
1.24992
-5.41387
-0.431676
0.0220837
-1.08634
-1.22921
1.30835
2.45953
0.172691
-0.669911
1.90434
-1.45192
2.22901
0.593448
0.137379
0.843644
1.50621
0.767267
-0.302099
0.21201
0.0874846
0.406659
0.571507
-1.37925
-0.524696
0.111362
0.813564
-0.212109
3.01921
1.59149
1.48771
2.25002
0.288414
1.66837
-0.610918
-6.44497
-0.464324
1.50088
2.93249
1.38579
-0.838938
2.07665
1.37523
1.39973
0.140888
0.0243078
0.781422
2.73675
0.190795
-0.44426
2.10297
2.11902
1.55081
1.47385
1.80692
1.04835
-0.452802
-0.544548
1.62536
-5.09398
-5.96521
1.49519
-0.491226
-0.188861
0.412549
1.59747
1.65806
1.68698
-0.105757
1.97699
2.02383
0.118369
1.77273
1.54963
1.31892
1.134
0.954652
0.749532
0.0292796
1.89524
1.75795
-1.35436
1.33424
-0.11868
0.0856962
2.43857
1.83014
0.0137733
-0.657224
-0.229464
1.88431
1.03559
0.318082
0.0562144
0.303821
-0.291489
0.369087
-0.593391
-0.095831
1.04723
-0.129806
-0.879987
-0.702147
2.29552
-0.550581
-4.91376
-0.588776
2.47236
-0.259451
0.278657
0.338036
-2.48608
1.1762
1.40593
0.904276
2.16337
1.18424
0.123844
-9.53975
-0.646526
0.0514429
1.72953
-2.54639
-0.654022
-2.42329
-0.215796
-5.56319
-0.571895
-1.83821
-0.0838442
0.600167
1.47277
1.92376
-0.185187
0.108562
2.173
1.65614
-0.659234
-0.22131
-7.92236
0.893947
0.270516
0.813389
1.26483
-0.315417
-0.254971
-0.269067
0.429629
-0.714828
-10.8988
0.24162
-0.527755
-8.79242
-2.44066
-0.623089
0.221069
-6.28379
0.746576
-0.639481
1.47904
1.32394
0.311943
1.92056
-0.657369
2.4697
-0.366069
0.173422
-1.10905
1.47958
0.894629
-5.9946
-6.5561
1.52371
1.80123
2.56502
-0.66865
-9.92234
-0.613733
-0.0452913
0.00822741
-0.629026
0.478535
-1.22323
0.866489
-0.66654
1.09274
0.152861
0.00282135
2.24112
1.30904
-1.15465
0.0675402
-1.37269
-10.2339
1.93708
2.82647
-5.58424
1.80796
1.42645
0.00161069
-0.507255
1.87096
1.79622
-1.92984
-0.252266
-0.482073
-0.650593
-1.07134
-0.881713
-1.02921
0.985956
0.0164926
1.6426
-0.702408
-2.39985
1.40064
-1.00541
-2.27616
0.142161
1.1382
-2.84321
-0.51328
-2.69671
-0.593361
-1.81019
2.60356
-7.03337
-0.145018
-0.692139
1.62464
-6.31466
-0.222876
-1.49155
-0.949194
-0.368794
1.67632
0.0232422
-0.608658
1.29494
0.0316743
-0.31889
-1.34759
-0.796374
1.02957
1.2062
1.5101
-5.77938
2.21696
-0.249593
0.0055247
0.163697
-2.45229
-0.567842
-0.705149
-0.657691
0.267653
0.678393
0.139764
-0.252384
-0.708948
1.38059
-0.83163
1.569
-1.0903
0.967259
-0.164633
-0.282616
-0.714131
3.03231
-0.527825
-3.48504
-3.55715
-0.578349
1.50607
0.121523
-0.826594
0.0828081
-2.4732
-0.661978
-6.19487
-0.783799
1.60553
-1.50101
0.308758
-2.86222
0.0671753
1.28805
0.1522
0.624468
-0.327837
1.9421
-6.39365
-0.441316
2.08244
0.570685
-5.9782
-0.244568
-1.16106
-0.640497
-0.269661
1.90007
-0.458452
0.655739
-8.8119
-1.13034
-1.20798
-1.43465
-6.19856
0.824324
-0.148788
1.49468
0.582189
-0.891565
-0.000516908
-0.601134
1.83788
2.1982
-2.95242
0.104462
1.58974
1.48779
1.13253
-0.548749
-0.886078
-0.95655
1.50136
0.488061
-0.607981
-1.3259
0.81763
1.77083
-0.190995
-0.67843
0.138687
2.05788
-1.39768
-1.5688
0.0810318
1.29215
0.106531
-0.507479
2.2313
1.84905
0.125888
-0.596643
1.8759
0.767828
-0.034313
1.34386
-0.239745
-0.713794
-1.08006
-0.598762
1.81398
1.56847
-0.0201763
-0.449627
-0.0192214
-0.239139
1.61331
-0.596975
1.07601
1.95685
2.09753
-0.286079
1.50511
1.28997
1.63224
1.73403
-0.121454
1.74623
0.015223
1.49637
0.827193
1.61875
-0.650535
1.86686
1.77884
1.34118
0.986328
-0.399319
1.03056
0.121985
-0.505694
2.00336
2.01531
-0.51476
1.84019
-0.595848
-5.07742
1.60263
1.61431
-1.27805
0.0162526
-9.16827
-0.569512
-1.35645
-0.460035
-1.22861
-0.33972
1.35143
2.74344
1.86181
-0.205116
-0.424706
1.56833
0.828361
-0.362863
-0.69535
-0.349771
-1.6159
-5.66451
-5.58681
1.42754
0.127613
0.807074
0.0551451
0.0490546
-0.341664
0.0438092
0.301272
0.732228
1.02493
-0.351782
0.616444
-1.77491
-0.769347
1.02311
0.8488
0.00658099
0.142325
0.994356
0.0476493
0.597602
-0.393684
1.48995
1.23729
2.36441
1.50413
-0.534838
-0.308272
-0.439727
-0.325428
0.0598686
0.0858817
-0.0483325
-0.515035
2.8031
0.197678
-0.30392
2.19356
-0.551293
-0.913457
-0.382788
-0.64998
-9.50841
0.370436
-1.11672
1.42971
-0.0976791
-0.497357
-0.657878
-0.32226
-0.67455
-0.313313
0.204065
1.17548
-0.509948
-0.480752
-1.21858
0.57454
-0.647955
1.61186
2.25085
-0.315837
1.63808
0.827259
1.09699
2.49871
-0.577262
0.925686
0.771625
0.732908
2.12388
-0.429529
-0.0480781
-0.304404
1.58388
2.24737
-0.42882
0.100192
-0.618133
-0.550155
0.797249
-0.427417
-1.46632
-0.35293
0.610563
-9.31648
0.411816
0.436015
1.3138
0.365681
-8.87546
0.187625
0.0704829
-0.105755
2.40335
2.71055
1.99228
2.9054
1.32272
1.118
1.66131
1.43015
1.36683
-0.497495
1.52406
-0.266783
-6.01148
2.20253
-0.110019
-0.691941
2.60183
0.113922
-0.677977
0.831357
0.736298
1.81751
-3.04954
1.39131
2.40802
-0.5642
-5.07265
-1.38044
1.05008
-0.648924
1.9039
-0.0253905
1.82462
1.49856
-0.501562
1.73745
-0.440345
-9.97588
-9.64745
-0.508281