/*--------------------------------*- C++ -*----------------------------------*\
| =========                 |                                                 |
| \\      /  F ield         | OpenFOAM: The Open Source CFD Toolbox           |
|  \\    /   O peration     | Version:  2306                                  |
|   \\  /    A nd           | Website:  www.openfoam.com                      |
|    \\/     M anipulation  |                                                 |
\*---------------------------------------------------------------------------*/
FoamFile
{
    version     2.0;
    format      ascii;
    arch        "LSB;label=32;scalar=64";
    class       surfaceScalarField;
    location    "9.4";
    object      phi;
}
// * * * * * * * * * * * * * * * * * * * * * * * * * * * * * * * * * * * * * //

dimensions      [0 3 -1 0 0 0 0];

oriented        oriented;

internalField   nonuniform List<scalar> 
7520
(
-0.892932
0.713745
0.179186
-1.29803
-0.199692
1.49772
-0.105441
-1.80187
1.90731
0.266927
-0.0378075
-0.229119
0.000586942
2.66365
-2.66424
-0.108566
0.117188
-0.00862274
-0.310672
2.08028
-1.76961
-0.0943418
-2.29132
2.38566
-1.52172
1.41628
0.61341
-0.0409588
-0.572451
0.491021
0.169286
-0.660307
-0.230938
-1.4502
1.68114
0.423184
0.196195
-0.619379
-0.120549
0.165458
-0.0449093
-2.51224
1.02856
1.48368
0.0632715
1.4406
-1.50387
0.207424
-0.057701
-0.149723
0.134888
-0.49267
0.357781
0.0289094
0.0211179
-0.0500274
0.00892833
0.198496
-0.443043
-0.209227
0.65227
-0.978574
1.04185
-0.0765331
-0.363447
0.43998
0.186582
-0.163442
-0.0231403
0.0184953
0.0107926
-0.0292879
0.285149
-0.279079
-0.00606994
0.903829
1.09794
-2.00177
-0.0570465
0.376516
-0.319469
-0.00595016
0.0348596
0.304046
-0.0624987
-0.241547
-0.979979
1.62215
-0.64217
-0.0591331
-0.0235656
0.0826987
-1.86651
2.06843
-0.201929
0.799481
-0.86497
0.065489
-0.318498
-1.1815
1.49999
-0.263219
0.886436
-0.623217
0.263806
-0.591045
0.327239
0.843308
-1.63638
0.793068
0.097058
-0.357534
0.260477
-0.0666599
-0.138599
0.205259
-0.03005
0.296977
0.0586231
-0.59298
0.534356
0.32461
-0.0394614
1.86049
-1.51337
-0.347116
-0.521928
-0.566542
1.08847
-1.48084
1.58685
-0.106006
-0.132774
-0.0716253
0.204399
0.313279
-0.0965989
-0.21668
-1.26706
0.287079
0.310463
-0.0860943
-0.224369
1.73855
0.164988
-1.90354
-0.701896
0.202242
0.499654
-0.0185326
0.0198711
-0.00133854
1.11071
0.502094
-1.6128
0.0168744
-0.12544
-0.775934
0.0826541
0.69328
0.327233
-1.24857
0.921335
-0.0524932
-0.135845
0.188338
-0.143783
0.0846498
-2.39243
1.25829
1.13414
1.58936
-0.595027
-0.994335
-0.00143342
0.0341257
-0.0326923
-1.2399
0.9214
0.73864
-0.315456
0.0140697
-0.0326022
0.00514569
-0.125694
1.23246
-2.6709
1.43844
0.145155
1.5934
-1.33704
0.993348
0.343691
0.358867
-0.26489
-0.0939764
-0.555406
0.882639
-0.638938
-0.274272
0.91321
0.395724
-0.0992586
-0.296465
-0.28353
0.566843
-0.283314
1.18387
-1.74533
0.561459
0.153532
-0.133953
-0.019579
1.97484
-0.555249
-1.41959
0.471936
-0.795646
0.32371
1.35951
-0.936758
-0.422756
-0.892704
0.11677
-1.66246
-0.729967
0.503444
-0.640312
0.136868
0.262254
-0.687513
0.425259
0.0704114
0.72907
-0.441038
0.575926
0.326919
-0.0228734
0.041818
-0.0409502
-0.000867782
1.27878
0.696057
-1.96966
2.50281
-0.533152
0.65571
0.933651
-1.06523
1.10977
-0.0445412
-0.0285381
-0.0700694
0.0986075
1.36764
-1.59858
0.272655
0.221152
-0.124094
-0.280339
0.369355
-0.0890163
0.00711717
0.106461
-0.113578
-0.57039
0.364245
0.206145
1.57292
-0.389047
-0.826851
0.663992
0.162859
0.978736
-0.73161
-0.247126
-0.106112
0.133335
-0.0272231
0.536306
-0.0624797
-0.473826
2.67514
-1.80176
-0.873384
0.554591
-0.391298
-0.501634
-1.352
0.796591
-1.89024
1.57957
0.198727
-0.0911072
-0.10762
0.582845
-0.0918239
-0.192266
0.190774
0.00149143
-0.074772
0.0870235
-0.0122515
2.04526
-1.20195
-0.165606
0.0419533
0.123652
-0.752605
0.309562
0.0439075
0.0111283
-0.0550359
0.673384
-0.16994
-0.683605
0.4329
0.250705
0.706026
-1.70194
0.995913
0.070326
0.116256
-0.124454
-0.577442
-0.2762
0.0387729
0.237427
0.796095
-0.182685
0.623982
-0.586283
-0.0376987
0.0423307
-0.0926708
0.0503402
-0.00991197
0.00104633
0.00886564
0.718449
-1.93092
1.21247
0.429054
-0.505587
-0.359475
-0.0852523
0.444728
-0.0726762
-0.0929295
-0.330881
-0.0909874
0.421868
0.170249
0.0369992
-0.207248
-0.0725259
0.242775
-0.52442
-0.159186
-0.28202
-0.0186145
0.300635
-1.87189
2.67044
-0.798545
0.295371
-0.316624
0.0212527
-1.10991
-0.242092
-0.040155
-0.0618837
0.102039
1.46441
-0.353701
-0.619235
0.45392
0.165315
-0.214712
0.525169
-0.310457
0.342834
-0.084249
-0.258585
0.255547
-2.05742
0.289516
-1.77036
-2.39207
1.15926
1.23281
-0.85856
-0.478479
-2.27979
2.17619
0.103596
2.21491
0.113321
-2.32823
0.225621
-0.292281
1.02862
-0.634347
-0.394272
-0.266208
-0.0715514
0.33776
0.227526
-2.50732
-1.86816
0.00164944
0.0374513
0.00436669
0.0773568
-0.152584
0.0752269
0.316627
-0.36912
0.726111
0.252625
-0.177867
0.147817
-0.010536
0.000425825
0.0101102
0.832065
-0.426969
-0.405096
-0.510961
-2.00128
-0.1118
-0.154408
0.0449615
-0.625851
0.58089
0.137902
0.205061
-0.342963
-1.41841
0.812481
0.605933
1.20916
-1.20858
-0.217909
0.596629
-0.37872
-0.0231554
0.0416507
0.583949
-0.275634
-0.308315
0.353599
-0.633938
0.265516
-0.351611
0.880376
0.251578
-1.13195
0.332648
-0.389695
-0.325031
-1.3845
1.70953
1.28261
0.661837
0.762473
-0.500219
-1.22225
0.959028
-0.734755
0.981753
-0.246999
-0.0281565
-0.020143
0.0482996
0.227752
-0.263227
0.0354756
-0.114588
0.787972
-0.295488
-0.184155
0.479643
0.253084
-0.115182
-0.909054
0.954016
0.549858
-0.981616
0.431758
-0.48663
-0.0837607
0.740485
-0.476679
0.166628
-0.0130954
-0.0111612
0.0378605
-0.0266993
0.072408
-0.14718
-0.618428
0.117832
0.500596
0.139867
0.255856
-1.2422
-0.503135
-0.757511
-0.660902
-0.00766857
0.105473
-0.0978041
0.48966
0.0535253
-0.543185
-1.70497
-0.166922
-1.23131
2.27866
-1.04735
0.402123
0.181826
-0.168682
0.241116
-0.0724344
-0.745196
0.620742
0.54161
-1.06354
1.72425
-0.0539546
-1.67029
-1.47233
1.9361
-0.463775
-0.0315178
0.108875
0.351754
1.53304
-1.8848
0.0392928
-0.19484
0.155548
-0.170197
1.84691
-1.67671
-0.00352659
0.15314
-0.149613
-0.954755
1.31014
-0.35538
-0.0499868
-0.69521
-0.231532
-0.386896
0.288823
-0.242161
-2.09429
2.33645
0.0354189
-0.0143009
-1.95285
0.710654
-0.564115
0.0173045
0.546811
0.100764
-0.0584337
0.146712
1.57244
-1.71916
-0.430168
-0.656284
1.08645
-0.561154
0.448915
0.11224
3.05847
-1.97892
-1.07955
0.548582
-0.97875
0.116231
-0.11341
-0.00282049
0.0813985
0.789358
-0.870756
0.0776807
-0.079096
0.0014153
0.866859
0.781171
-1.64803
-0.310725
-0.516126
-0.131223
0.310052
-0.178828
-0.925044
0.65087
0.274174
-0.101322
0.0516257
0.0496967
0.833855
-0.344195
1.00009
-1.82623
0.826138
-2.65473
1.1415
1.51324
-1.1032
-1.55154
-0.341609
0.384679
-0.0430703
0.0267095
0.0273481
-0.0540576
1.13099
-1.69403
0.563042
0.00364608
1.12952
-1.13317
-0.191742
-0.44857
1.07616
-0.195788
1.33919
1.27105
-2.61024
-0.222553
0.113575
0.108978
-0.0260788
-0.898965
1.82879
-0.393931
-1.43486
0.160767
-0.121475
0.0187299
0.305729
-0.36343
0.982141
0.84665
0.198092
0.605034
-0.803127
0.416904
-0.0403884
-0.056932
-0.0318691
0.0888011
0.140122
-0.0976412
-0.042481
-1.86751
0.903611
0.963901
0.103906
-0.0771963
0.623893
-0.905913
0.292166
-0.211242
-0.0809241
0.155734
0.157545
-1.60033
1.55897
0.0413585
1.08342
-0.533558
0.0153045
-0.0446014
0.0292969
0.00494258
0.0289532
-0.0338958
0.151469
-0.250727
1.83656
-0.604101
-0.0526423
0.200598
-0.147956
0.000537476
-0.0110735
0.812339
-0.643053
0.487578
-0.118223
-0.716054
0.7197
0.0475358
-0.058697
2.08028
0.00442999
-0.011563
0.00713302
0.181022
0.306556
-0.238573
0.156331
0.0822418
-0.0996324
0.635938
0.600523
-0.5419
0.823265
0.205355
0.549159
-0.406562
-0.142596
0.30561
-1.26036
-0.0418903
-0.28899
-2.26288
2.02071
0.0774768
0.0387541
-2.35722
0.256534
-0.471246
0.261426
-0.0710766
-0.190349
-0.64131
-1.2262
1.32412
1.35102
1.57474
-0.762259
-1.4502
0.0775969
0.546385
0.2744
-0.225425
-0.0489747
0.183702
-0.289283
0.105582
-1.17815
0.611612
-0.268349
-0.265937
0.534286
0.331716
-0.372675
-0.0962732
-1.98387
2.08014
0.864638
0.257822
-1.53429
1.27647
0.971805
1.09663
-1.06795
1.53774
-1.18598
-0.0572141
0.430857
-0.373643
-0.838053
0.768966
0.0690872
-0.0951553
0.042513
-0.108155
0.374627
-0.266472
-0.217135
-0.211822
0.428957
-0.537378
1.81999
-0.325455
-0.392184
0.717639
-0.367449
0.234675
0.159312
-1.22454
-0.143936
0.0870045
0.0110767
-2.03649
1.02387
1.01263
0.485985
-0.28979
0.00929474
-0.0343047
0.329676
1.33472
1.72375
1.64772
-0.467776
-1.17994
0.14609
-0.0512348
-0.0948549
0.508846
0.850668
0.172183
0.102217
0.398844
-2.09403
1.69519
-0.0610039
0.0363959
0.024608
0.974692
0.598228
-0.251408
-0.106127
0.693026
-0.494933
-0.54264
1.44647
0.186913
0.0118133
1.52918
-0.823152
0.171158
-0.164041
1.82433
-0.176614
0.120612
0.473524
0.0756347
0.0249818
0.333885
-1.72525
-0.880497
0.858272
0.0222248
0.00737864
-0.141332
1.86009
0.0155829
-1.87568
-0.785495
0.46004
0.271555
0.0712791
-0.346432
0.0815417
0.0190208
-0.955779
1.54043
-1.60643
0.0659988
0.000228048
-0.22214
0.221912
-0.5975
1.57219
-0.871917
1.59037
0.0173782
-0.0171502
0.675585
-0.242685
1.90442
-0.536783
-0.00927805
0.214938
-0.20566
-0.134864
-0.0364028
0.171267
0.14327
0.0028193
-0.210572
-0.778205
0.0311891
-0.201103
0.169914
1.41162
1.25882
-1.48
1.15497
0.149979
-0.509455
-1.39538
0.75644
-1.1147
1.3517
-0.237003
0.52134
-1.65678
1.48658
1.79045
-0.511675
1.32084
0.539646
-0.082839
0.225843
1.31459
-1.32531
0.323562
1.00175
0.319706
-0.382205
0.0592726
0.0446331
-0.24892
0.176394
-0.233474
-1.2799
0.339743
-1.15261
0.812865
-1.57199
1.12967
0.442322
0.489172
-0.763444
-0.0975583
0.0961249
0.106635
-0.455058
0.341428
0.113631
-0.649595
0.431686
1.2075
0.582955
-1.47233
-0.0356162
0.0257042
1.67077
-1.44634
-0.224439
-0.367159
1.9002
-1.63755
2.37097
-0.733422
-0.629517
0.926729
-0.297212
0.0505508
-1.29045
0.0771146
-0.0497665
-0.304496
0.47555
-0.171054
0.354072
-0.416551
1.35576
0.536643
-1.0155
0.47886
-0.0399186
-1.54579
1.58571
-0.0629792
-0.129286
0.0455812
-0.432887
0.387305
-0.282426
0.777261
-0.494836
0.229419
-0.159313
-0.0701062
0.39431
-0.258776
-0.135534
-1.95168
1.75199
2.75221
-0.608358
-2.14385
0.0883629
0.0236922
-0.112055
-0.0178817
0.201583
0.163465
-0.650094
-0.813691
1.68055
0.0519935
-0.00808593
1.72425
-1.03534
1.11673
0.000573395
-0.000573395
-0.337227
0.462981
-2.43264
2.24037
-0.920427
-1.31994
-1.50031
0.732835
0.767471
-0.0342022
0.0875058
-0.0533036
0.962529
-1.13197
0.169445
-0.525366
-0.163425
0.68879
1.3113
-1.94571
0.634407
-0.0235508
-0.814502
-0.240073
0.105209
-0.15022
-0.516571
0.666791
0.628171
0.504363
-1.13253
-1.42883
-0.433929
0.734597
-0.300668
-0.779585
0.815231
-0.0356465
1.45566
-1.30894
0.276566
-0.245377
0.0722262
0.0898934
-0.373423
-1.93422
2.1422
-0.20798
-0.933572
1.54064
-0.607067
-0.0237845
0.169392
-0.145607
-1.82895
-0.841954
-0.0211392
0.0151891
-1.70812
0.476807
-0.420388
0.312233
-0.129416
-0.500101
-0.0730119
0.012008
-0.778996
2.11819
0.075016
-0.438463
-1.53867
0.158987
1.37969
0.00262969
-0.12466
0.12203
-0.93124
0.196485
0.257038
-0.634808
0.377771
1.61509
-0.181172
-1.43392
-0.0553611
0.0515396
0.00382157
-0.296027
0.230586
1.32976
-1.56035
-0.840925
1.86948
0.122442
0.724328
0.740084
-0.06172
1.55349
0.270836
-1.42668
1.38676
0.205084
-0.0308495
-0.174235
0.533118
0.00303834
-0.536156
-1.86853
0.230985
-0.00211643
-0.590863
-0.508852
-0.371645
0.313516
0.687501
-0.142483
-0.545018
0.214647
0.109963
-0.533646
1.44068
-0.907032
0.20207
-0.238472
-0.0539393
0.281691
0.275928
-0.580424
0.153092
0.376666
-0.529757
-0.112074
-0.0519903
0.164064
0.341204
0.338378
-0.679582
-0.0157768
-0.0310628
0.0468397
-0.325294
0.35895
-0.0336559
-0.017398
-0.202216
0.219614
0.420695
-0.100989
-0.041353
-0.654303
0.695656
1.52983
-1.06657
-0.935194
-0.16792
0.259984
-0.0920639
0.0567484
-0.0710493
-0.310608
-0.250546
1.00007
-0.312572
0.0204546
-1.23375
1.2133
-0.283742
0.0075421
-0.0211002
-0.503319
0.21455
0.17976
0.210934
-0.214461
-1.16705
-0.0451176
-0.0993868
0.144504
1.22047
-0.968891
1.39384
1.35837
0.116507
0.175659
-0.157349
-1.73525
1.8926
0.789547
0.291101
-1.08065
0.241971
-0.957404
0.632315
0.325089
0.000695413
0.00193428
-0.0193532
0.0778493
-0.058496
2.01384
-1.05507
-0.958769
0.149139
-0.341131
0.191992
0.714047
0.212168
-0.926215
0.0805644
0.113768
-0.194333
1.72092
0.0311253
-1.75205
-0.440977
-0.0516927
-0.300275
0.375291
0.0303506
0.0481065
-0.0784571
-0.660083
0.219045
0.0207134
0.0196768
-0.0403902
-0.244454
-0.6046
0.849053
1.08605
0.529047
0.993637
-0.973182
0.67593
-0.958355
-1.86241
1.76613
-0.104269
0.0115978
0.289541
-0.570098
0.280558
0.675213
0.899526
1.13508
-1.30613
0.171054
1.27344
-0.54911
-0.162931
0.111696
-0.00883453
0.0656222
-0.0567877
-1.94713
-0.496088
2.44321
-0.380333
0.471676
-0.0913431
0.00466769
-0.00409429
0.426673
2.23698
-0.15972
-0.0628334
1.14179
-1.71526
0.573467
-0.582168
-0.358285
0.940453
1.42883
-0.428738
0.719266
0.503691
-0.575242
-0.310718
0.0117452
0.298973
0.0358941
-0.277441
-0.455335
0.991978
0.0257896
0.0518911
-0.228083
-0.251067
0.47915
0.00907329
0.953456
0.110161
-0.128775
-0.415794
-0.362259
0.401032
0.705869
-0.835285
0.139338
-0.0973848
-0.0178878
-0.345542
-1.94465
0.878074
0.639681
-0.589242
-0.0504388
0.0414498
-0.0346685
-0.00678126
0.249063
0.880457
0.0333974
0.000728328
0.0443959
-1.63989
1.59549
0.182354
0.163713
-0.346067
-0.0710847
0.0820098
-0.0109251
-0.760695
1.10044
-0.0997456
-0.310867
0.410612
-0.301143
0.558181
-0.997753
1.38448
-0.386723
-0.335248
0.38758
-0.0523322
2.21227
0.00263095
0.657268
0.0720627
-0.729331
-0.479156
0.388168
-0.198514
0.471398
1.5225
0.980308
0.164406
-2.34057
2.17616
-0.854225
-0.188871
1.0431
-0.166017
0.209666
-0.0436496
-0.598332
-0.222994
0.821326
-0.0937681
0.00885284
0.0849152
-0.0813311
-0.0626054
-0.560148
0.0127652
-0.00197262
-0.0308467
0.117851
-0.200095
0.492207
-0.292112
-0.287272
0.374194
-0.0869223
-0.0994174
0.170509
-0.0710913
0.742887
-0.416992
-0.015815
-0.0251352
0.60912
-0.973717
0.364598
1.24945
-1.00039
-0.0470916
-0.338743
0.385835
-0.188004
-0.543606
-1.32907
1.47422
-0.0490163
-0.585331
-1.26466
0.816518
0.448139
0.483007
-0.0336889
-0.449318
1.71532
-1.71532
-1.71988
0.0574205
-0.50776
-0.172593
-0.626052
0.798646
0.495895
-0.499155
0.00326048
0.0326152
0.0734538
-0.174103
0.100649
-0.0539709
0.246132
-0.192161
-0.3344
1.16509
-0.830693
0.289953
0.207744
-0.497697
0.733569
-0.683018
-1.11319
0.258962
-0.0642749
-0.266641
0.330915
-0.0407061
-1.28461
-0.363061
-1.12896
0.765901
0.995532
-0.0512568
0.218235
-0.166978
-0.319016
0.43435
-0.115334
-0.361856
0.230632
-0.0925891
0.253064
0.00836218
0.0439833
0.103509
0.0559815
-0.159491
0.0455147
0.0201076
0.620786
-0.662139
-0.121617
0.170501
-0.0488841
0.00891203
0.0112276
-0.0201396
0.0653897
0.0525239
-0.117914
-0.0746444
0.198217
-0.123573
-0.446863
1.25973
0.394297
-1.02913
0.634833
-0.179594
-0.0861672
0.265762
0.0132055
-2.67525
2.66205
0.805968
-0.531872
-0.274096
0.41467
-0.0974682
-0.191815
0.0837328
-0.0726045
-0.0638226
0.212962
0.288316
-0.888471
0.600154
-0.402139
-1.19819
-0.417634
0.626231
-0.208597
-0.0832809
0.0106047
0.47509
-0.336392
-0.138698
0.64438
-0.0352605
-0.91628
0.513578
-0.424802
-0.0887764
-0.611341
0.342991
-0.103444
0.557364
0.00439565
0.000546923
-1.66857
-0.133195
-0.328332
0.604261
-0.034215
-0.205858
-0.0647016
0.00791389
0.235888
-0.287145
-0.0868997
-1.20209
0.755231
1.96554
-0.118634
-2.09429
2.25506
-1.09934
-1.15571
-0.148422
0.512667
-0.153488
-0.739216
0.394909
-0.322501
-0.280894
-0.029824
-0.340198
-0.493551
0.833749
0.0848942
0.0970172
-0.181911
0.0956099
-0.95417
-1.93947
-0.337135
-0.370978
0.708114
-0.204471
0.386825
-0.279129
-0.0505463
0.329675
0.572121
-0.143067
0.102191
0.380817
2.2444
-0.933095
-0.780325
0.440128
-0.28073
-0.0685632
0.349293
-0.0526383
-0.092
-1.03997
0.506991
0.182676
-0.689667
-0.103027
-0.0407563
0.954566
-1.24316
0.288591
-0.632182
-0.0542883
1.76961
-0.723477
-0.250241
0.680165
-2.17218
1.49201
-1.98091
0.841128
1.13978
0.1803
0.114639
-0.294939
0.148099
1.00515
0.0809817
0.810026
-0.891008
0.0391105
0.161487
0.194967
-0.106604
0.369545
-0.560412
0.190867
1.31295
-1.4703
0.0393504
0.200432
-0.277378
0.0769462
-1.68652
-0.0333573
-0.638887
-0.186741
0.0188214
0.137771
0.00208166
-0.139852
-0.682484
0.342565
0.339918
-0.430702
0.373488
-1.0043
-0.41851
1.42281
-0.147231
-0.0732756
0.0390733
-0.610059
0.820752
-0.210693
-0.323605
1.45327
-0.187706
-0.857639
-0.642668
1.10917
-0.485276
1.02239
-1.35679
0.0141143
-0.049363
0.0352487
1.06419
-0.544641
-2.11959
-0.372026
-0.150172
0.522198
-0.0588689
0.235263
0.139916
-0.382759
0.242844
0.320528
0.255399
1.04263
-0.219367
-0.0797739
0.341172
-0.0756554
-0.355984
0.32168
-0.166455
0.0145315
0.151923
0.28132
-0.10857
-0.17275
-0.168131
-0.0456822
0.213813
0.155606
0.144594
-0.3002
0.111653
-0.0613126
-0.172459
-0.0496813
-0.0229427
1.12847
0.0353836
0.220715
-0.256099
0.0881081
-0.159544
0.0714355
-0.0290598
-0.0285269
0.0575867
0.495014
0.29012
-0.72405
-0.100598
0.405041
-0.0884141
-0.114085
0.0909298
-0.153308
-0.0415326
1.78627
-1.0051
-0.0222838
-0.18116
0.203444
-1.54986
0.220789
-0.0856668
-0.0220646
0.107731
-0.05105
-0.0502725
-1.08006
-0.900848
0.41979
-0.0871417
-0.594307
-1.49973
-0.528271
0.300188
0.0683053
-0.678364
0.715859
-0.785669
-1.92589
2.0903
-2.35072
0.403598
-0.116886
-0.0318565
0.148743
0.0115782
-0.285836
-0.375175
0.661011
-0.164502
0.0165466
-0.190873
-1.49504
1.68591
-0.783411
-0.462532
1.24594
0.307323
0.453812
-0.761135
0.00892888
0.167918
0.345661
-0.293182
-0.287242
-0.201144
-0.109268
0.310412
-0.0138066
0.351566
0.297936
0.177155
0.259115
-0.665468
-0.0226081
0.027038
-0.496986
0.539362
-0.0423765
-0.207652
0.285326
-1.32136
0.121651
-0.0161786
-1.58112
0.402431
0.0194367
-0.777486
-0.128426
-0.158621
-0.991301
-0.258669
1.24997
-0.0792151
0.474124
-0.653811
1.38665
-0.36455
-1.01958
-0.925068
-1.2033
1.37274
0.133422
-0.311238
0.0422038
-0.104363
0.0621589
-0.733377
0.618806
0.114571
0.725689
-0.775676
0.0910775
0.548603
-1.12787
-0.136783
0.0562532
-0.0655145
0.00926129
-0.52324
0.864444
-1.3859
-0.171495
1.5574
0.000105766
0.0454089
-0.0875386
-0.730377
0.817915
-0.272184
0.453204
0.101387
-0.102746
0.00461579
0.0981305
-1.26052
0.866591
-0.179309
0.0148072
-0.199406
-0.141725
-0.420004
0.0937844
0.0455538
-0.057971
0.00880073
-0.0285884
-0.0498687
0.323077
1.23589
-0.499012
1.81986
1.02946
0.574848
-0.738273
0.0512744
-1.43718
-0.259785
-0.360781
0.451036
-0.0902549
0.031297
-0.0302507
-0.0308148
0.018213
-0.0650422
0.149692
-0.236354
2.07235
-1.836
0.130076
-0.825286
-0.136963
-0.288533
-0.0805869
0.858928
-0.311065
0.403753
-0.0926886
-0.154701
-1.56871
1.72341
0.321007
0.210862
0.285032
-0.315964
-0.48979
0.979763
-0.489973
0.0769875
0.00844841
-0.0431169
0.195218
-0.279688
0.0844702
0.075413
0.433382
-0.508795
-0.169003
-0.573573
0.742576
-0.306064
-0.0836307
-2.00564
0.0283719
0.259306
-0.268584
0.0618667
-0.17714
-0.00216895
0.363036
-0.734014
2.42191
-1.01025
-1.41166
-0.180748
0.441643
-0.758469
0.67093
-0.117439
-0.307364
-0.20689
-0.00978959
0.871961
-0.80155
-0.115634
0.78469
-0.953693
0.166497
-0.11019
-0.0563073
-0.422459
-1.90618
1.08016
0.826012
-2.12423
2.13744
-1.03939
0.244884
0.794503
-0.0135018
0.210024
-0.196523
0.686351
0.313722
-0.138719
0.223105
-0.0134309
0.00120773
0.0417941
-0.290772
-0.0456206
1.20348
1.21843
-0.0557719
0.0239028
1.60996
-1.49664
-0.0485541
-1.38594
1.4345
1.16908
-0.0406115
-0.320851
-0.0995366
-0.0513756
0.139662
-0.287311
-0.0639098
0.123182
0.776022
-1.34869
0.572667
0.138575
2.20974
-1.3151
-0.894645
0.0242664
0.0465764
0.0409295
-0.100486
0.888459
0.931016
-0.873595
0.60964
-1.39305
-1.20941
-0.0362365
1.24565
-1.2401
1.11747
0.122623
0.116087
0.00176398
2.39915
0.059778
-2.45892
-0.549738
1.26018
-0.71044
0.10255
0.271644
-0.738526
-0.0410585
-0.0147254
0.0922022
-1.35765
0.242955
-0.000742697
0.0230693
-0.0223266
-0.154896
0.209629
-0.0547329
0.0847342
-0.435289
0.350555
0.59785
0.260422
-0.551527
-0.130957
0.0224196
0.868528
-0.892079
-0.0782956
-0.074288
-0.285073
0.0607046
0.93859
-0.470172
-0.468418
0.170705
-0.60855
0.437845
0.414036
-0.596444
0.182408
0.365923
-1.53693
0.794614
0.742319
0.0460464
0.85553
0.28648
-1.14201
-0.187662
0.251892
-0.27709
0.0251978
0.195282
-0.039734
-0.288093
0.00896459
-0.331276
-0.838103
1.04346
-0.518967
0.805854
-0.286887
-0.519219
-0.703028
1.78793
-0.76406
-0.107011
0.199917
-1.35299
0.0738489
-1.34455
1.2707
0.0524608
0.0926475
-0.145108
0.511359
0.0773373
-0.588696
0.475973
0.0491954
0.0304205
-1.33643
0.817206
-0.542144
1.17446
0.139976
0.672363
0.347428
0.254402
0.0269175
0.888065
-0.428025
0.0604592
0.66523
-0.93458
0.357138
-1.27725
0.814721
1.00826
-1.16297
-1.84036
1.60401
0.0216886
-1.43055
0.221874
1.20868
0.229392
0.396839
0.0590091
-0.878135
0.705541
-0.15041
-0.130229
0.280639
-2.42448
1.27793
1.14655
0.439297
0.791075
-1.23037
0.0563389
-1.25964
0.804503
0.0304366
-0.83494
-0.554044
-0.561547
-0.833831
-0.020488
-0.0178107
0.0694364
1.53385
-1.50272
-0.0172649
-0.927069
-0.609863
0.0772824
0.0382472
-1.24766
1.17019
-0.314655
-1.48658
0.0363807
-0.235591
-0.896363
0.376873
-0.376391
1.86241
0.21787
0.123186
-1.16316
0.161605
-0.124606
0.168119
-0.385254
0.334406
-0.602197
0.267791
-0.0482118
0.00251694
0.0456949
-0.685285
0.757347
0.12264
0.0174821
-1.08396
1.16654
-0.0825792
-0.72521
0.868168
-2.13399
1.26582
-1.26555
-0.069145
0.118842
-1.44139
0.116556
1.32484
-0.451771
0.97311
-0.681757
0.777367
0.148664
0.893351
0.517854
-0.933647
-0.854034
-0.206028
1.06006
-1.33105
-1.66724
1.47637
-0.143432
0.14755
-0.00411867
0.0898243
-0.100749
0.801774
-1.25711
0.00581462
0.540245
-0.546059
0.146665
0.43508
-0.581745
-1.01871
0.445134
0.0487807
0.0297319
-0.258851
0.411386
2.27235
0.126794
-0.776677
0.857659
-0.298545
0.0991388
-1.10259
2.36396
-1.26137
-0.0877037
0.0743427
0.0922849
0.443625
-0.00364546
1.04817
1.2305
0.578097
-0.820782
0.29492
-2.27384
-0.198625
0.153507
0.1005
-1.06939
-0.25131
-0.991846
-0.239572
0.0617043
0.850177
-0.438791
-0.197467
-0.950916
0.73155
0.20984
-1.7266
0.275876
1.45072
-0.0511238
0.504327
1.13207
-1.16233
-0.310001
0.814021
-0.351893
-0.462128
0.950257
-0.398398
-0.551859
-0.204295
0.0449826
0.698423
-0.688837
-0.009586
-1.48444
0.943978
0.540458
0.484599
0.899876
0.00169037
0.13608
0.83354
-0.543419
-2.24501
1.15764
1.08738
-2.33645
1.84036
1.05251
0.601926
-1.65444
0.853849
-0.737079
1.53823
-0.527235
-1.011
-1.10534
0.206121
-0.0944257
-0.0581037
-0.107889
0.221465
-0.055731
0.146836
-0.0911053
0.388495
0.178348
-1.87048
-0.420835
0.601423
-0.231878
-0.038741
-0.040355
0.800155
-0.451008
-0.349147
0.856025
-0.51346
-0.159725
0.141843
-0.0854247
1.2205
0.0998519
-0.0473911
-0.262352
-0.756355
-1.51687
0.525574
-0.0493648
-0.114077
0.160264
0.133492
0.138087
-0.095883
-0.528755
-0.387707
0.124876
-0.0931827
-0.0316934
0.206893
-0.837799
-0.233284
1.07108
-0.202597
0.025457
-0.0269327
1.28824
1.02247
-2.31071
-0.465061
0.772384
0.24577
-0.0979523
0.612494
-0.829303
-0.987901
1.8172
-0.888405
-0.855709
0.362158
0.285244
-0.116444
-0.168801
0.936318
-0.882792
-0.20067
2.05623
-1.18806
-0.215809
0.13156
-0.414252
-0.614878
0.0151355
2.04946
-1.76613
-0.283329
-0.960233
-0.556641
-0.238267
0.189581
0.0829019
-1.00234
-0.26898
1.27132
0.257605
-0.560853
0.636266
-1.58861
-1.30109
0.611677
0.689418
-0.224983
-0.00403129
0.229014
0.980746
-0.677497
-0.30325
0.125006
-0.190049
0.0901982
0.100576
0.679445
-1.68374
0.769134
0.181123
-0.431422
-0.348903
0.132772
-0.0357552
0.17228
0.110266
-0.948065
0.0288747
0.401982
0.454871
-0.364978
-0.550177
0.601372
-0.0511951
0.886269
0.651965
0.453487
0.0511733
0.569607
0.164168
-0.733776
1.65678
-1.3809
-0.305813
0.273874
0.166375
0.028907
0.130348
-0.0523307
-0.10716
0.00486238
-0.148294
0.549099
-0.100119
-1.77954
-0.0349482
-0.190035
-0.081237
-0.0231258
1.11737
-1.77118
0.744316
-0.335479
-0.408837
0.00498554
0.128349
-0.00835289
0.00761019
0.374275
0.0577103
0.106354
0.601558
-0.26318
-2.63749
1.26427
1.37321
-0.0871599
0.0170906
-0.0189381
0.135161
0.191758
-0.315929
-0.318879
0.814568
-1.64387
-0.0342049
-0.944928
2.23317
0.542977
-0.0855238
-0.457453
-0.49413
-0.407982
-0.0911728
0.104074
-1.1202
0.437379
-0.695824
0.258445
0.612445
-0.595593
-0.0168515
0.0584011
1.02716
1.34381
-1.36532
1.3809
-2.67655
1.92781
0.748741
1.31871
-2.26364
2.64678
-1.31206
-1.07113
-1.12039
0.320164
0.0212633
-0.0979116
-0.334975
-1.5022
0.07165
-0.00676591
-1.29936
1.19682
-1.98151
0.784693
-0.0759675
0.301589
-0.333517
0.0542835
-0.106616
0.944946
1.2648
-2.33721
1.23462
-0.101347
-0.787057
-1.33115
-0.624992
0.0293986
2.12423
-2.1216
-0.0791972
-1.13828
-0.0643112
1.17957
-0.948988
-1.96535
1.87599
0.0893608
0.34798
2.31407
0.384466
0.0892307
-0.473697
1.36313
-0.753494
0.263321
0.053143
0.641596
-0.662696
0.109245
0.145157
0.730957
0.672759
-1.40372
-0.436193
-0.257859
1.06662
-1.0485
-0.0181151
0.669678
-0.487002
-1.55568
0.638882
0.916802
-0.00470744
0.516066
-0.999838
-0.0266878
1.05074
-1.53602
0.308273
-0.601455
-0.0894646
0.180394
-0.707798
0.421962
-1.1586
-1.42653
2.58513
-0.243947
0.388541
-0.407748
0.626793
1.29174
-1.93441
0.135743
1.3382
-1.83721
-0.110932
-0.0924367
0.232569
-1.23296
0.0883227
0.625423
0.51827
-0.00186049
-0.51471
-2.35448
0.428587
-0.050302
0.0350439
0.0152581
0.0847921
-0.351264
1.1549
1.10016
1.30416
-1.01557
0.0822933
0.0130827
-0.110724
0.484385
-0.347906
0.603304
-0.556735
-0.881204
2.19992
-0.0457126
0.091759
-0.876371
-0.674925
1.5513
-1.27913
0.729388
-0.077393
0.0545316
0.0030551
-1.4463
-0.0923699
-0.178484
0.615863
-1.46457
-1.17292
2.04946
0.554946
-1.21585
0.924607
-0.664185
-0.146376
0.547244
-0.201583
-0.279884
0.232793
-1.39708
0.350452
-0.840242
1.33142
-2.21263
-0.809047
-0.100579
0.488748
-0.233779
-1.73157
1.29755
-1.42597
1.3558
0.665105
-1.68517
1.02007
1.50992
-0.565942
1.68114
-0.745803
-1.26017
2.00598
0.546327
1.31334
-1.05574
-0.641323
-0.659772
-1.56232
-1.11423
0.445081
-0.966152
1.55828
-0.592125
-0.15063
1.36509
-1.21446
-1.01724
-0.949813
1.96706
0.894925
0.171693
0.282013
0.391562
-0.233495
0.164495
0.0690002
0.060933
-0.299405
0.465979
-1.42621
-0.581195
-0.40777
-0.325606
-0.0533908
0.455822
0.351342
0.561867
-1.93076
0.563278
1.36748
-0.043211
-1.62202
1.66523
0.0396574
-0.289357
0.0971957
0.368687
-1.66621
1.66621
-0.442284
-0.0400721
0.482356
-0.493744
0.998107
-0.620845
-0.00414685
-0.689282
-0.111259
0.462825
-1.36532
0.131446
-1.31945
0.284119
1.24052
-1.28123
-1.245
0.242656
-0.0552861
0.325468
-0.270182
0.157455
0.540968
-0.0578753
0.00966348
-1.01384
-1.21229
0.137494
1.0748
-1.36974
0.141585
-1.09799
-1.036
-0.00612641
-0.0966199
0.182791
0.463722
-0.581161
-0.0565224
0.027934
0.410581
-0.393539
-0.314259
-1.12943
1.53899
-0.409564
0.355806
0.192818
-0.222271
0.436843
-0.214572
-0.346855
0.135034
0.294483
-0.623362
0.328879
-0.979192
1.86403
-0.811517
-1.51847
-2.08326
0.514547
-2.10696
0.058878
0.916366
1.09747
0.104912
-1.00128
1.68215
0.460055
0.71051
-0.570534
0.631312
0.617225
0.236624
2.15414
-0.822717
-0.746324
-0.67234
1.41866
1.18011
-0.0711658
-1.10894
-0.0528256
-0.106718
-0.232255
0.20847
0.160689
1.35922
-1.51991
-1.37023
1.16297
0.207265
1.37023
-1.60401
0.248599
-0.324567
-1.58354
1.02199
0.0959313
-0.0931475
0.031835
-1.66277
0.12848
1.69128
-1.02618
-0.260437
-0.117972
0.132504
-0.485298
0.683204
0.283494
-0.0915015
0.180151
-0.0956809
0.198147
-0.268253
-0.621544
-0.0659691
0.704941
-2.07723
0.531442
-0.111686
0.503491
-0.391805
-1.05664
-0.924866
0.131603
0.658155
0.425261
-0.917409
0.140732
-0.389852
-0.206591
0.151513
-2.26114
1.19001
0.0616681
-0.0811221
-0.206023
0.0488751
-0.106846
-0.0777869
-1.36333
0.613357
-1.80691
1.19355
0.0813466
0.284536
-0.365883
0.0497604
-0.275185
-1.07402
1.35814
0.351771
0.420613
1.30503
-1.16233
0.214414
0.0571403
1.69036
-1.93489
0.244527
0.380612
0.44014
-0.834821
-0.000118468
0.391712
-0.541883
-0.0631555
0.0710693
-1.17958
0.179341
-0.0125996
-0.166741
-1.51826
0.219079
1.29918
-0.058418
0.0585238
-0.0149612
-0.00488714
0.0198483
1.20211
-1.16386
0.0368701
-0.0343532
0.597949
0.200696
0.0701158
-0.0608545
-0.095166
0.105771
0.224887
0.674026
-0.898913
-0.429224
-0.00606468
-0.920918
-1.01938
1.94029
0.171741
-0.0809311
0.284375
-0.880471
2.13744
-0.109428
0.121006
0.0685407
0.115636
0.128534
2.29937
-1.0959
-1.26668
0.858386
-0.507934
-1.25768
2.34506
-0.0837705
0.141481
-0.0657747
0.0704423
-0.0232761
-0.232823
-0.322997
0.213729
-0.310685
0.667151
-0.203429
1.25202
0.124393
-0.0755177
0.229512
-0.0112767
0.0445537
0.100409
0.0227739
0.465151
-0.85869
0.23537
-0.273902
0.0385315
0.161967
-0.0693197
0.237496
0.702163
-0.939658
-0.277666
0.147437
0.427427
-0.506642
2.49531
-1.08369
1.02353
0.887801
0.0431478
0.460795
-1.23868
0.372493
-0.51556
-0.369994
1.18179
1.06261
-1.5355
1.5355
1.52515
-0.905002
1.06431
-0.0594079
1.54259
-1.48318
0.912185
1.03226
1.3434
-2.502
0.11908
-1.07277
-1.35757
-0.169383
-1.45438
1.62376
-0.434224
-0.177117
0.0869631
1.26972
0.194188
-0.302758
-0.667608
1.61993
-0.952327
-0.189435
0.29868
0.00858729
-0.048326
0.0490214
2.57798
-1.08521
-1.49277
1.57188
-1.45532
1.10393
0.247769
0.0231589
-0.00578066
0.0102643
1.56218
0.490774
0.522985
0.917693
0.027467
0.221154
-0.248621
-0.382759
0.241033
0.203728
-0.220383
0.0166548
0.181439
-0.247377
0.0659382
0.412985
-0.390566
0.35821
-0.565862
0.644671
-0.567074
0.0449042
0.0341832
-0.00156798
0.232307
-0.177602
-0.0547044
-0.0897058
0.0861988
0.00350696
2.1216
-1.6823
0.194653
-0.216718
0.0220656
-1.53385
-0.377691
0.289277
-0.994632
1.90682
0.282576
-0.363163
2.69827
-1.35487
0.270537
-0.346192
-0.183474
0.552816
-1.28821
-0.442577
1.40771
1.3411
-1.10854
-0.103621
0.173947
-0.124365
-1.48207
-0.323188
0.317118
0.268423
-0.405386
-0.405595
0.312906
-0.108546
-1.34112
1.29256
-1.44376
1.50976
-1.13645
-0.58147
0.438874
0.734678
0.418873
-0.464494
-0.0827433
0.16992
0.365297
-0.535217
-0.403343
1.38548
-0.810712
-1.16298
-2.35962
-0.101404
0.0970628
0.00434079
-0.0383591
1.45546