/*--------------------------------*- C++ -*----------------------------------*\
| =========                 |                                                 |
| \\      /  F ield         | OpenFOAM: The Open Source CFD Toolbox           |
|  \\    /   O peration     | Version:  2306                                  |
|   \\  /    A nd           | Website:  www.openfoam.com                      |
|    \\/     M anipulation  |                                                 |
\*---------------------------------------------------------------------------*/
FoamFile
{
    version     2.0;
    format      ascii;
    arch        "LSB;label=32;scalar=64";
    class       volScalarField;
    location    "2.6";
    object      p;
}
// * * * * * * * * * * * * * * * * * * * * * * * * * * * * * * * * * * * * * //

dimensions      [0 2 -2 0 0 0 0];

internalField   nonuniform List<scalar> 
13486
(
20.3662
22.7458
-0.218753
-92.8926
-29.4491
3.62441
-38.6514
-15.2389
-0.976975
20.3146
-42.9327
-0.352825
20.8811
10.317
-22.9301
20.6105
-52.2442
-6.48971
-1.56736
18.6547
-129.679
20.2594
22.4171
-30.2847
17.5419
-34.4153
-60.5824
-20.4543
-0.301443
-28.3788
-125.549
-8.51456
-24.3119
-17.6945
-14.8957
-0.251107
-2.16836
4.27461
-2.32712
2.68793
-69.33
22.9409
-0.755766
16.9425
16.9911
-0.140478
-88.4712
-0.239423
-2.03822
-11.3127
15.6984
-3.93482
1.8614
5.88472
-21.9139
-27.4051
-3.94143
-3.61915
-24.2207
-1.93827
-38.6488
-2.23783
-69.2471
-138.675
-129.24
-2.21953
-79.7505
24.7085
-1.59365
-1.99276
-79.1214
-16.4444
6.83199
-16.2469
-2.11543
-3.49081
-2.68738
-24.8761
-84.8118
-12.7006
-0.121517
24.3758
-77.6084
0.0198787
20.2304
25.071
4.3341
15.7172
18.5188
24.197
-1.46218
-19.4284
16.6868
20.3774
-2.52729
-0.118534
-58.5209
-70.2186
2.88924
-57.644
-0.0846074
10.8046
-70.7066
-3.60959
29.2231
-59.3135
14.5077
-2.41633
-82.9057
-26.7491
-8.05974
-16.6625
5.88819
-5.24614
30.9407
-6.64659
18.2776
-16.8577
7.03961
-2.02117
-5.07357
-41.5299
0.386114
-2.51331
-7.6444
-3.57675
-7.70595
10.263
-14.2549
-166.476
-3.5546
-92.9792
-19.899
-10.0446
15.5025
19.881
38.0321
-25.5626
-1.99816
-11.868
-19.3275
1.61267
-3.05948
-12.1571
-1.52608
-43.4159
3.09401
39.8371
-11.8658
-0.076985
14.2336
-32.3949
-0.0343783
25.2735
12.2094
-0.248682
-35.8884
-131.664
-1.06
0.106947
-6.06693
-1.01479
1.05358
22.3422
-3.96458
7.08148
11.5341
39.8253
2.72106
-10.1222
-27.6349
12.1293
15.2454
-8.84232
-0.170025
-55.2199
12.0632
-20.8652
14.1744
-2.77297
-0.735507
-5.59636
-7.3998
-54.7831
0.562083
-19.9612
-0.0348553
-22.7536
-72.6112
-3.24272
-2.15415
-0.784782
-4.44376
32.9529
-5.51489
-46.3567
-157.429
-6.86533
10.1986
7.76246
-116.142
10.0897
4.22346
-44.6032
-1.71057
-5.94428
-17.3725
11.4052
-4.28976
0.510035
-21.0465
-51.8653
18.4225
14.6162
3.62497
-41.2829
-26.4921
24.1074
13.5289
-14.375
-53.5872
-11.9109
-10.6966
-6.71601
3.17177
15.1271
1.81188
-87.7396
-21.2942
4.09782
-0.820378
-125.142
-20.297
24.4386
-88.0299
12.5524
-20.285
-0.621854
13.1693
-4.56629
-25.3815
15.21
-2.45322
9.61639
-1.132
17.0328
-3.05732
-34.3103
-7.84077
17.584
-56.6978
31.6616
-8.93215
-2.72382
-14.4272
-50.1285
-7.28431
-42.8706
-110.192
-25.4668
20.1799
-1.018
-21.8679
-51.9132
-33.6248
-54.9537
-20.6806
-127.364
7.63137
6.77939
28.218
15.0688
-26.3571
0.955514
15.2443
-33.921
-13.7058
-134.262
-2.76899
2.97046
-166.475
-2.08008
15.2959
-16.0629
-46.6472
-67.0067
-18.4363
-14.957
3.17526
8.02084
-90.7842
-0.961766
-4.03679
15.2904
-19.9477
-21.8336
-6.94828
0.98292
14.8502
-57.6171
1.13723
-24.3899
2.75343
-9.22031
-1.91243
-46.4582
-149.296
-3.15137
3.52342
-2.21481
-0.0774202
-95.9632
14.2866
-14.1575
-17.1568
20.0628
-0.820702
18.7903
11.9994
-21.8111
-2.18202
-0.987739
14.2759
21.0798
39.7532
-1.90608
-15.1049
-2.5623
1.31384
-17.0396
15.8281
-21.3935
-0.121022
27.8282
-41.9739
-4.66329
30.8269
-31.6348
15.3945
-0.885431
-20.8271
21.1396
-18.6339
-7.90237
-54.7686
-0.172897
-6.42935
28.2997
-14.5148
-0.775049
-3.79669
1.41914
1.04524
-56.805
14.7455
-1.01262
-9.64444
-7.55188
2.97581
-54.8419
-1.70126
1.05846
18.8171
15.1604
-28.3024
-0.00869207
-21.5127
-99.0835
19.1695
-6.90016
-0.924608
-5.87711
3.32884
-54.282
7.20196
15.3734
14.2731
-0.909776
-14.9326
-3.22673
6.75054
-24.976
24.381
28.2859
-96.4019
-14.2145
7.411
15.3119
-25.1992
-170.108
17.5441
-25.1256
13.2601
14.9073
28.7098
-2.13004
-88.1263
-55.1236
-33.172
-19.5523
-28.0829
19.9692
2.78242
-157.861
-36.4626
6.34714
20.1506
-20.9867
-4.75276
22.5651
14.2378
13.7632
-23.6502
15.1217
14.2564
31.2943
-54.0315
-32.8529
-44.5526
-4.86794
14.3178
-14.2964
28.6258
15.8232
-1.45652
-22.7046
10.4077
15.5393
-60.5842
12.1422
20.5223
2.97648
13.0478
3.10857
-38.5107
-31.5206
25.0911
-0.841166
-8.61252
24.2843
-62.6622
-25.2348
-7.21048
-24.3956
2.49635
8.45114
30.8776
20.9467
-4.53562
-1.9795
-55.1487
15.6896
18.9991
-11.7429
6.53349
14.8536
-56.1403
-53.6832
-13.9013
-41.4928
14.6701
13.1658
-0.194448
11.9709
-117.584
17.4593
-0.145323
35.7213
15.8582
4.35211
-18.5896
-0.193764
-0.159135
30.4173
-10.3621
-1.98799
-2.14819
-4.53952
-67.1015
1.23116
15.5261
-1.30817
5.0504
22.6995
-16.6097
-39.0579
14.9301
-162.731
39.296
14.9844
15.6973
14.8732
-53.4233
0.344365
33.9234
-37.2376
20.368
-54.4834
10.8075
-119.989
-9.52816
-0.919848
-64.0123
19.0469
-7.37018
-55.8649
-0.0943235
2.732
28.517
8.27967
-13.5197
-6.36795
-6.319
5.90372
-35.25
15.4277
-35.7805
24.3294
-3.17328
-1.97508
23.3598
-25.0542
-0.335519
-3.41175
-103.603
-58.2211
-2.83486
-29.5786
1.01436
16.6787
-54.1301
-39.5987
-54.9102
-0.186783
12.8141
10.3107
-55.0335
-69.2578
-16.5154
-110.947
-13.6594
-134.134
6.41488
-6.2959
27.2203
-12.2985
19.1552
-49.8631
-53.2675
6.45134
12.3442
-56.5941
9.67191
0.314845
-38.3421
-7.67347
5.06911
-25.7052
-54.7755
15.7218
14.9253
14.1842
21.0222
0.119799
15.3368
10.3845
12.2067
-2.02311
13.3771
-57.1858
19.9675
-7.91794
-14.0684
-36.1959
13.5334
-59.0468
0.919698
30.7722
19.4266
-115.12
-86.1163
13.7663
3.46479
4.01434
21.1706
-53.2711
-51.9612
6.30301
17.5375
9.13085
12.2779
-39.5789
19.7407
-120.133
-4.32245
15.0129
-20.2381
-9.92588
21.1555
-15.3015
1.20963
4.51896
12.0011
-2.86943
19.0943
-6.30978
-2.34014
-1.4691
7.05095
-17.8531
27.9313
11.1317
27.3062
-90.8116
9.64401
-0.337494
-8.25128
-30.5356
17.2992
30.7249
-69.1938
-25.9708
-16.398
-16.43
17.5821
-11.1078
10.8165
0.957044
-54.7533
-34.277
-32.6834
15.9479
-23.58
14.6228
-0.156168
23.8644
1.55923
-0.751219
-53.658
-20.4386
11.3278
-48.1121
12.8643
-62.5162
12.0901
-0.0158135
-5.38563
-44.8318
24.2528
-0.176751
2.31839
22.5352
15.5062
-54.0818
-8.92978
-5.40072
7.71718
-9.21034
-2.62442
-111.978
11.9097
3.8556
11.1873
0.815293
23.3838
-4.27997
-64.866
13.5793
-14.3695
2.12057
-14.5069
15.4449
14.4352
-54.0624
0.281927
-0.918087
1.56519
12.7676
11.2555
1.4094
0.0694387
-77.3652
-6.86078
21.9295
-1.64984
-10.8584
2.20017
26.9649
-0.342649
11.2296
27.3559
-0.569419
-57.4492
8.04902
-28.1313
18.8813
-1.63318
14.9382
-176.361
-9.43035
-43.7557
-0.101109
-44.8109
15.5458
29.2385
-41.1077
-32.5886
1.04842
22.1816
3.34794
13.4595
-42.084
31.5658
-54.0894
-3.02059
-12.4845
15.9405
18.2772
21.1004
-2.84408
-159.898
22.6385
14.7575
-40.2854
4.2331
-77.5979
-7.45835
-13.8351
15.1471
-6.47179
-11.3803
19.2503
-32.4549
-3.35452
-16.5172
-58.2744
-41.7381
-2.66025
10.6946
19.6499
-74.0342
0.657906
-54.3677
-149.752
1.10977
-24.3175
0.33235
14.9588
11.7027
7.10736
3.71599
-76.9727
-193.705
-47.1268
-0.931622
-73.7168
-43.9106
-1.06147
-45.9257
-9.57581
21.3811
-2.10973
-196.03
22.574
19.2797
-111.133
-147.188
-3.33088
-84.0521
-1.49271
0.79378
9.52774
-27.9937
-40.8774
12.8487
15.4516
-0.0618876
-187.449
-28.352
4.54985
-7.00112
21.2908
-2.65181
-68.0019
23.3258
17.5295
-58.9858
-45.9484
-0.0210516
-52.2799
-1.98446
-2.11023
-26.5254
-65.8715
4.76139
14.5072
27.7558
9.82786
7.19865
6.79198
14.2785
17.641
18.904
-1.68157
11.3966
27.3838
-32.9255
-1.22739
8.88035
-12.9686
25.0708
0.757887
24.4986
-2.08854
-11.907
-0.370571
4.96752
-14.3303
17.2475
29.7181
15.4869
14.9646
-94.7906
1.22483
-22.5936
-28.3081
-3.95099
14.8864
-1.7406
-27.6965
-35.5832
14.5013
-25.473
-8.43185
-98.6971
-145.076
-21.6809
-51.5933
-57.2178
12.4305
-104.517
19.7895
-93.159
-8.86499
2.44812
13.5475
-3.0415
9.79126
-63.694
18.2309
-30.5753
-35.3368
-7.75742
-1.9223
-191.967
14.9768
-4.48054
15.0012
-1.0077
-3.90428
-63.7793
-2.35376
-1.00685
8.74997
-17.0036
-44.8831
-45.3534
19.8964
2.62497
-65.4184
-41.9292
11.1491
-59.4252
-1.03037
-0.0812388
-20.7553
7.74134
-15.2976
-130.933
23.1897
14.8879
4.57932
13.6654
-1.89418
-43.0747
16.4594
10.7829
3.31599
21.6632
-13.6055
-2.5069
-16.7193
5.50085
-1.9258
16.9168
12.3228
-16.6676
14.9111
-9.53827
-6.65219
30.0017
4.79186
-16.7037
15.2618
5.10511
-2.41236
-18.6523
-115.752
10.985
-3.76715
-0.543911
-2.10954
5.43599
7.30217
-52.8835
-0.023824
14.8629
5.14351
27.2464
17.6715
12.612
-0.29648
21.2229
-3.12688
-0.280814
-18.2393
3.68704
-137.701
-13.6839
-106.713
-47.0446
-45.5943
8.7656
-32.8573
-26.5585
-27.8686
-149.418
-1.22692
16.4252
-0.550036
-0.733646
-5.30387
14.1534
27.6725
5.30002
-11.3848
15.9001
-71.5356
10.078
-1.26775
-1.333
6.57952
-4.60173
23.5128
-3.12738
14.423
-24.5032
14.965
-1.4541
18.0733
-2.92324
-25.6095
12.4236
-68.0964
-3.03751
6.26497
-105.313
20.7221
14.2295
20.1251
16.1048
19.9186
9.07987
-23.6319
-1.85193
14.3586
14.0581
-13.0246
1.2619
-16.4437
12.8376
-3.3875
0.0419161
-10.227
40.293
6.59405
-3.09866
28.1023
19.775
-13.2408
-61.2818
4.16892
15.5306
-75.4657
-4.9361
-8.66482
2.4773
14.3933
14.1137
-1.62993
-0.880496
14.8907
-0.0425792
-5.25312
17.3979
-3.68601
-2.05629
-52.4417
0.0171155
-14.0176
17.4915
26.8059
-1.63487
-80.0811
-34.5657
-5.10753
-2.63203
-0.220283
24.5207
-3.28668
33.7287
9.17695
-1.23111
11.5634
-52.5895
1.92856
-60.7266
11.201
-1.85868
-4.43249
-119.819
13.5405
17.3258
-0.82024
-24.7083
-101.138
-21.2001
5.85611
-0.820528
-2.6417
-2.91584
11.0391
15.2001
19.6008
2.40193
-12.5894
-24.0419
-16.2309
0.205022
-116.503
18.8085
-3.1245
-103.37
-1.90299
-1.6522
2.83372
-39.46
-2.44746
17.442
-0.211706
-35.0304
-7.49871
-10.3192
-29.5683
1.64777
5.81506
-0.805964
15.4548
7.3187
-8.33586
15.3488
-2.2998
17.7261
16.5947
14.5226
7.41042
5.59749
23.7179
34.6446
0.856641
-34.6364
16.2322
-5.86835
23.8181
-19.2928
-23.255
-43.4905
0.514901
10.3052
-101.329
14.121
8.52917
6.51097
-58.2472
-16.9567
3.56206
29.4949
-33.5411
16.7985
-35.1265
18.9148
24.0417
-10.5724
-9.04096
-104.962
25.1321
-2.44852
32.5343
2.00051
-16.9777
13.7059
1.42532
-55.9221
-8.62603
-1.20157
19.1978
0.334355
-31.4833
19.5375
18.2586
-6.53988
-4.25242
1.83242
11.7771
1.75516
7.06232
12.724
-2.91577
-39.1655
15.6574
-9.88166
-29.2778
-15.4829
18.5193
6.69854
-9.95754
-150.357
0.00594845
15.9226
21.4837
-3.17318
5.63366
-15.0695
29.875
-52.8605
-18.4342
24.2457
15.5636
6.40992
-5.82825
-84.8835
-19.2939
-74.7331
-52.6459
-1.077
-57.2607
6.7613
-43.6889
-72.3841
-46.9282
-94.5242
-68.6992
-29.4214
-55.3402
32.9088
17.5565
-36.5132
-98.9021
-6.79161
11.7084
-14.3664
33.3948
-21.4662
-13.8244
15.6665
-39.0535
-56.2007
-16.5019
-17.8836
8.70097
35.345
-0.164357
-10.2855
-31.5505
0.650259
-18.8664
-8.2923
2.24433
15.7944
20.7839
15.1555
-112.396
-7.19219
-1.17796
-2.52491
14.134
-3.50782
16.2244
31.7107
26.2724
-38.1809
15.6376
17.786
-13.7507
11.866
-2.611
25.3839
11.4174
6.80149
18.4185
15.211
-14.836
-0.784972
19.6286
-23.0843
-1.37858
-30.3154
-25.3329
3.09628
10.194
-2.60051
-2.68964
23.0356
22.5672
-14.5156
-9.66022
-0.13778
-85.4894
-9.93596
19.0983
16.5525
-10.5167
14.305
-2.70834
-5.01535
-2.2357
-49.0663
-132.919
-1.61586
35.7646
-22.4026
1.38281
21.9521
2.68427
-4.11218
13.4371
0.663637
16.3057
-47.7965
-23.5586
-2.89056
-14.3393
-21.0765
-17.0312
28.6063
19.6293
5.17052
41.331
21.7915
-19.8074
-2.91276
-19.8534
6.01136
23.2887
-104.009
4.34596
-5.19701
-52.7451
-20.2312
11.3337
-64.5563
-4.73871
19.7204
35.5554
-56.0448
-3.96357
6.72613
0.154978
-0.301865
-88.3871
22.0049
11.139
-1.9773
11.1044
-47.9455
-43.8984
-63.6374
26.113
-4.91413
32.2339
-107.203
4.03505
-28.6489
-36.1461
-8.21524
0.825189
-3.23958
11.5263
4.26963
11.639
-79.3771
-0.032474
-215.206
-7.10846
-19.2978
-38.9712
3.9413
-7.16912
-124.141
-43.3581
-5.08594
-3.97052
30.4936
14.6894
-6.82931
-2.45707
41.4057
3.99245
-66.2928
-0.213607
6.06852
16.5537
-0.760918
15.7538
-15.4747
-16.0791
-18.0502
-0.0548059
-0.287927
22.6992
-12.6651
-54.1652
-59.493
26.9012
-69.2572
-2.44145
13.6089
-114.317
-10.4366
-2.15284
-52.0121
-56.0702
-1.27689
16.2165
4.42572
13.2875
-41.3445
-5.45724
-27.003
-75.3474
-33.5347
-14.0962
-0.730691
-130.179
2.71461
-69.8095
-55.8181
-30.3244
18.9775
-124.513
27.3888
-55.1727
-73.7605
-10.5138
7.31139
14.2436
-8.27594
24.5316
5.02889
-64.9142
-50.787
10.8997
-6.13209
15.5844
-1.10568
26.5681
16.2565
-1.25546
11.1642
23.3635
1.24489
10.7869
-0.892587
-74.5809
-7.37952
-28.6519
-3.04781
-22.7628
-23.8679
-0.226566
-50.502
-0.238421
-1.70993
-13.3705
-20.9873
-20.9582
25.2393
0.39153
-0.241082
1.41828
14.8066
-148.358
-0.382276
2.30472
2.94954
-0.174461
2.05137
-4.39722
14.7362
15.2064
2.41056
17.1604
17.3832
4.85457
-34.7171
-2.99027
12.4406
-3.49695
-14.8116
-59.2479
-69.2592
-16.1985
-86.1957
0.0311657
-3.15691
-6.18584
-2.0935
-11.3297
-34.4806
-1.63009
-126.227
12.5004
-56.8674
15.6347
40.3712
14.107
-230.754
14.6436
10.3115
-0.143481
-0.577901
-34.4461
-32.3613
0.335019
11.6866
-0.264269
21.9964
-0.504114
15.1943
-12.3033
-6.79681
-39.2586
-32.6412
34.5906
-122.623
14.8412
15.2479
15.6728
-0.0744299
11.084
-3.42234
-22.8155
0.10344
-56.7171
-67.4102
11.632
15.6166
-32.7008
16.3408
17.9909
-76.8577
-84.7359
-8.01629
-2.09649
19.5561
14.2304
19.3174
-9.01421
0.586158
-7.72089
-18.8896
-41.6939
19.6456
31.6538
-35.3649
-54.4272
-40.8478
-7.25096
0.200436
0.164525
-40.3572
-15.094
-10.1485
-106.932
-11.1097
38.0008
12.8054
-6.20099
-141.704
-61.0983
-34.7817
-39.5702
-28.9881
-53.0966
21.6957
14.0664
-22.0215
32.5336
-0.241404
-51.1486
-235.34
-67.5908
1.70077
-3.71492
11.89
-1.56103
2.94554
-34.2173
-144.302
-66.3126
-97.9214
19.3867
-37.7419
-2.22673
-60.6193
15.3261
11.4381
-68.2486
14.1332
7.83787
18.4779
24.0966
1.5509
0.885571
36.0141
-62.462
-5.81359
-50.5223
-10.2327
22.2919
-71.258
27.5525
14.0575
-14.6401
-98.0107
-108.716
18.052
-70.7157
-184.861
2.3001
10.5404
-7.81755
14.9069
9.27314
-12.9622
26.8888
-11.3154
-32.2869
17.6255
-5.1932
19.1217
-48.1307
40.4091
-2.54551
-1.93139
20.1508
-5.41047
15.0502
0.341395
6.79983
0.90803
0.165053
-18.9319
2.75828
0.0605411
-127.282
-0.714911
-0.400215
11.7687
11.9515
-147.779
-0.196115
-39.0577
14.5496
1.97106
-9.84733
17.1801
-138.784
15.6691
16.1575
-49.3213
20.381
-73.1615
34.2671
3.53985
-36.2072
-0.166791
-2.64448
21.9128
18.0225
-41.3543
12.6572
17.5233
-34.126
-1.80735
0.252121
9.19353
-36.2579
-54.0449
-24.5758
-94.8419
15.1249
-64.6003
-84.4446
-42.1504
18.9735
13.5103
22.953
-70.6616
14.1572
-7.96676
0.222958
14.2103
-151.484
-165.557
26.5471
3.79738
-48.321
-22.7579
-64.392
-111.662
14.7368
-51.4242
-21.7122
18.3023
-14.473
13.2206
-56.0252
-4.2925
30.6799
-14.3637
19.6145
-6.4272
-111.379
11.5256
-0.0190824
19.5484
30.4526
5.33173
5.84937
33.1274
11.2883
20.6145
-80.0999
-67.8396
-28.1531
-15.1748
-102.844
-44.0813
-9.44124
-42.1714
-6.546
-2.25109
-22.0283
-15.2529
-130.756
-20.7598
21.3606
-46.2168
-5.00753
15.0107
14.5263
-8.20629
-1.36898
-67.757
-42.6073
-57.4813
-22.5068
21.3921
-11.0231
18.4408
-53.3555
15.0139
-28.0462
-1.49133
-49.6098
7.0506
15.8335
10.3313
-3.42471
16.6033
-14.8304
14.4342
25.9497
-46.5324
-21.7204
-84.4964
17.2282
8.34512
-44.0956
-37.79
6.21511
-8.77719
1.12654
-0.837583
-16.4403
5.66399
15.8798
8.08944
-2.19134
-19.2677
22.1164
-62.2897
10.2933
-0.0440976
15.9616
8.18315
14.7991
-1.62852
-77.4971
-79.2145
-1.16774
-22.1262
-68.1492
-77.399
6.35361
-134.207
16.8232
5.36511
14.8546
-164.4
-21.3842
-23.8025
-2.47011
8.10333
-55.6558
3.47374
-0.455882
-33.9647
-104.353
-61.4908
-2.28797
14.9406
-2.06732
0.609759
1.98235
1.49551
-80.4901
-7.03813
-54.6729
14.1808
-3.83139
-1.49037
12.4075
1.04235
9.45034
27.1085
25.7044
-10.1064
-1.64455
-155.128
-9.36719
14.9291
-0.600037
-68.9061
-18.2359
-48.4725
-17.9543
-0.659254
-42.6754
36.6218
-0.515257
6.29712
-4.55134
-186.913
-3.44643
-0.811383
-6.00033
8.6958
1.23685
16.9359
-1.2514
14.4821
-27.0393
-45.1565
-173.412
-17.4285
-14.4134
5.04524
29.8086
13.5905
-33.4837
-63.6944
19.7015
-64.4849
-85.0346
1.93498
-9.61273
-52.1876
-34.7859
-17.2128
-21.8963
-3.4248
-7.33715
-62.6944
-0.319396
16.248
-14.4549
-27.9152
17.7509
-3.13692
-45.4119
-1.68199
1.39905
-0.336309
34.1637
1.85725
-5.86732
-8.4409
-5.07085
-14.4751
-0.0104765
-15.9326
-9.98556
2.88869
-18.4358
-0.274107
-37.5199
18.5017
-0.256212
10.1768
-130.011
-18.7856
30.5698
-154.294
6.41291
5.0848
14.3436
-4.58793
-3.67765
-49.4113
14.5818
16.9399
16.989
3.76861
-62.4764
17.4269
8.99097
24.2094
-33.1028
17.5485
17.0713
17.0941
1.2693
-53.4822
11.5429
-69.5557
-15.7051
14.3118
9.66742
7.81414
18.2854
0.824175
21.9513
6.50178
6.73797
5.94685
-4.32846
-24.0078
15.2047
-7.17727
15.6462
34.0358
16.2382
-0.506306
-18.8183
-4.33412
15.1761
-2.47438
-34.9609
-1.92002
0.0876416
15.575
-65.947
19.8166
10.8011
41.5946
26.2504
-21.8672
-27.7291
-22.2926
7.38159
26.1699
2.60181
5.34134
-8.5354
37.4218
16.5603
-4.23358
34.4184
-6.84121
11.3967
-20.1147
5.19297
-1.96668
0.207799
6.76278
11.539
-3.47167
-85.0241
-0.68063
-59.6999
-8.13876
-67.4295
1.75672
27.662
17.7395
-3.39758
-47.2638
-12.1006
7.98519
-0.792432
-1.76765
14.6647
-141.721
-26.8297
-117.435
16.174
-23.0889
-63.5297
21.5507
-13.0293
-3.90205
-17.3025
31.2361
-120.994
18.4138
-51.1804
35.4127
-36.7988
-8.80637
-1.7459
-1.41285
0.601898
14.7286
5.95087
-58.6089
7.54028
-71.8822
14.3866
6.03339
6.12945
-143.162
-52.544
-53.6577
4.9304
-29.7878
-0.905791
-3.94568
15.0992
32.0351
-59.2286
0.0148235
-2.74248
-52.7898
13.5096
-0.962381
-23.7558
-51.6096
-102.839
20.2016
-120.242
-31.3831
3.29372
-37.0624
-87.7519
10.5783
15.8815
8.84508
15.5325
29.6241
-36.6622
36.7422
0.175206
33.504
-38.5624
-10.0294
27.2989
13.8309
-133.285
-7.68547
-3.58932
-1.94991
-141.559
-58.0616
0.771931
-23.1598
-29.0673
-0.177798
-17.1277
12.7772
4.9709
-22.5039
12.9459
-29.739
-4.0556
-136.055
-2.34361
-1.61594
-183.675
-17.4991
30.8791
-1.81729
32.0739
-2.33162
-55.9191
14.3905
-0.345971
-1.71528
15.5858
12.24
34.8074
16.2174
20.0933
-28.3097
-7.31336
33.7559
32.3496
17.7135
-2.74046
-62.5827
-68.076
-1.04104
-19.8298
-9.58898
25.7318
-101.024
-2.10808
-38.6118
32.835
5.58435
8.33135
-84.3895
-6.51292
24.6232
38.7277
36.2185
2.21764
17.3637
-23.0704
-7.58482
18.1624
36.6982
-63.5741
-1.81751
-16.0534
-0.136289
0.712281
2.66636
-1.16625
0.107263
3.17672
-2.61468
-2.88523
12.4204
15.4319
-55.2125
9.05614
-81.0666
-2.73183
24.7915
-22.1445
-4.52718
-56.0066
14.2527
18.0338
-64.8686
-60.544
-0.51978
2.67435
39.7673
-34.0465
-54.2262
-47.2963
7.73922
-82.7731
-54.5737
-70.7021
-38.5765
-1.58887
-67.9815
0.388797
-27.5211
17.6942
-0.60018
7.83631
38.9073
9.92541
-0.87004
-35.5213
9.51384
-7.49251
-24.1978
25.8599
11.6029
-0.719696
-43.4696
7.23552
10.9885
-58.9788
-39.1922
1.46763
26.2386
-17.0705
15.221
6.73905
20.6927
2.4574
-77.7688
8.23339
14.2073
-19.407
16.8711
-6.44139
34.2269
-75.963
1.11591
-50.0334
18.0537
-66.3538
-13.598
-74.9157
0.931485
-42.6279
-60.2231
-154.527
-6.2156
0.751846
-59.8245
-0.540094
0.286132
-69.006
-4.23747
-73.7974
13.8765
32.2503
-7.84588
-6.1327
-3.38121
-0.038182
-5.16237
-7.38774
-3.80157
-64.0016
1.9464
-47.4652
-42.7485
7.82474
11.0616
-106.908
-22.7654
-3.00197
14.3551
13.1525
-62.7939
2.90797
-2.29394
-58.1149
-11.6905
0.463129
-62.7016
21.1268
-174.265
-33.4903
-22.5336
-24.5504
-57.8918
-33.4726
41.5894
-9.01777
-21.3989
20.0313
32.877
24.9482
-75.6921
-19.8221
14.5089
-2.12054
2.30988
32.3403
-5.17471
-14.1064
42.0897
6.98688
-51.1418
9.44658
23.7037
15.3167
-3.46003
27.0915
15.5559
-19.6601
-0.959685
13.8065
-0.104038
-33.9986
29.1719
17.4287
7.39444
-2.98205
-49.2436
-11.2214
-84.1833
-23.9315
-0.435039
0.141469
17.0975
1.13454
-63.9735
26.8479
27.6265
-51.1677
-3.67778
-15.2588
-3.42961
-7.72219
15.6259
-111.145
-14.3272
14.0364
32.6656
-57.0381
4.71368
10.6672
8.86477
-16.9355
-1.91314
-58.0243
-18.7786
-32.6909
-3.43021
-54.8492
-27.1923
-0.222883
-82.8884
11.7173
-63.1956
-1.57552
11.9513
-7.75601
-76.5806
-52.3842
3.10037
-18.4994
3.31546
12.8534
-30.0404
-7.84128
-64.3389
-11.9131
12.7341
-50.7675
32.9902
-2.35796
37.044
-0.0645496
2.29551
0.406956
15.9442
-5.1122
-47.8726
-9.94041
8.28415
0.671881
-12.5061
42.8679
8.89844
-23.7829
-17.6069
-17.6553
-15.793
0.980232
-67.3706
15.8276
-109.893
-80.6241
-8.49473
-50.2734
-20.4592
-6.71948
15.0173
-4.0492
25.2052
33.9678
-41.0938
-64.4607
6.80786
-6.27198
26.6734
-65.9202
9.30521
12.9054
15.5834
-99.7592
-90.3919
2.60161
-3.54132
-10.8695
-102.505
-50.8321
6.0503
-5.59751
-38.1578
5.65641
-35.6671
-32.5204
1.85366
-75.7094
-81.2257
-34.8017
-5.59735
33.9866
-22.014
15.493
-107.684
-10.009
4.98517
-20.1461
11.5863
-71.8033
-79.0561
26.3217
12.3688
7.11571
-13.2283
37.0565
-72.6846
-50.4004
-120.326
-25.6807
-65.3382
-102.263
22.761
6.77247
-4.22476
12.8003
-91.2164
-17.7486
3.34176
-3.00057
-34.0287
7.25204
13.9328
3.1124
-60.685
-30.0707
-61.9966
-37.0993
-6.17659
-9.43473
35.2898
15.6246
-43.4697
-28.1438
10.5376
23.7809
-16.696
-69.8909
-24.8449
19.0276
-2.58329
-24.7736
17.0468
-64.6542
25.7651
-22.76
17.8973
-58.8908
-23.3881
-2.56731
-95.6192
-28.5162
12.2819
-54.6954
-62.1711
7.51672
-55.6345
4.19976
18.743
15.5245
17.814
15.1644
-18.5593
-1.23426
7.39626
-0.968156
-0.0293962
6.91479
-18.6285
26.4624
-78.1013
17.0182
-38.8101
31.9714
-94.8063
-4.55
29.6325
-76.6755
-21.1863
-59.224
17.146
29.6691
13.8674
-2.9941
14.589
11.7909
-56.7517
16.4111
-85.1835
14.3234
-75.8629
-177.331
-64.8856
-65.9075
11.3402
-35.6596
-67.1478
-8.5284
28.739
8.37188
8.7452
-67.641
-11.2155
-16.4293
-30.8105
15.2388
0.343892
-69.8839
36.2365
-4.59373
25.4717
13.0791
-0.55307
-1.12418
-6.91136
-26.6734
-36.2125
-10.6642
-12.3504
3.26864
-0.103529
-115.518
36.6519
18.4333
-10.4283
-85.9436
-1.4832
-94.2026
17.7317
9.49711
0.10437
-2.46972
9.62502
1.77589
-12.8238
-10.266
-19.0308
3.23578
25.7371
-23.0186
29.6419
38.7125
31.2997
-91.5382
11.0294
-58.3649
14.1051
9.74437
19.2442
3.37605
16.2703
38.1324
17.1688
-35.6436
-72.9016
-84.7493
38.3482
-7.44962
-63.3169
-64.1268
20.8447
27.3291
7.15527
-9.55198
-8.28009
22.8837
-49.7957
-0.409237
-63.4316
13.1073
-2.1646
-55.1488
-5.72218
-52.8981
-52.6377
-110.131
-32.5053
-35.6865
10.6125
7.31808
1.3889
0.84817
-23.945
-29.1077
-2.41133
-25.49
-56.8354
-49.8819
15.1179
23.5201
-74.4961
25.5952
16.1979
28.4709
-2.36078
-44.692
3.45759
-28.0951
18.613
-27.3691
17.7327
17.7605
9.29983
18.4851
-2.20168
12.4467
-8.73949
13.7322
-19.8781
-7.88462
-32.4988
-2.48386
12.0044
-18.689
-92.057
-17.9049
31.4984
10.3107
15.3419
-11.072
21.6833
-31.0392
0.0542057
4.75032
-19.3991
0.539566
-78.7581
-61.7678
-8.16341
-47.2275
-21.9726
-38.5219
4.14555
-61.9028
-6.34266
-5.01601
28.9877
33.9231
25.114
-24.4339
-0.250388
-53.7597
1.27813
26.2016
10.865
11.6664
-17.8099
-7.23715
-20.5222
5.41501
14.4873
6.36461
3.63928
-68.1467
4.35152
-55.3175
14.2508
3.88454
14.4214
-53.8561
1.01653
-147.339
-70.5334
-69.1743
-8.39202
27.0934
-45.3764
-89.5899
-62.9237
9.02403
15.2841
-4.50146
14.6994
-60.45
22.4694
30.9647
-106.069
4.67065
17.0698
-81.4853
-33.8819
6.87976
16.9218
18.7788
-57.3004
-22.2887
9.98157
28.6386
-61.4446
-98.5853
4.66649
22.4307
6.37662
-19.6303
-71.4645
11.8171
15.5126
13.8602
4.26708
-38.1427
3.88864
36.9173
-2.99451
-12.8815
6.09282
-76.3849
6.83409
-6.07939
-60.0071
-23.9538
-107.463
14.9627
-107.641
-30.7799
11.2236
16.2515
1.44292
-23.5666
-90.3292
1.00197
-64.3822
-33.4382
-15.9222
-7.92837
-51.8423
21.3879
2.09445
6.81761
-2.52391
24.4328
-234.987
-16.3242
13.5732
-64.8398
16.2936
-1.2875
-10.3882
-43.3678
16.5282
-0.342246
-6.43956
-11.7303
1.66267
12.3146
-40.7406
-0.792315
-80.5907
-41.8015
13.8057
-60.9639
30.8472
-55.1967
-64.1222
-91.3375
18.2184
3.00829
9.57605
-96.431
21.7218
-4.39365
-19.117
2.17554
-45.6264
16.654
-6.64665
-13.1484
-13.1999
-63.2332
15.7916
-47.9341
-77.4469
-0.156469
-28.0743
-35.1872
-9.63695
24.8111
3.1147
-57.4715
9.94081
-41.642
18.061
-42.4584
7.01076
22.2788
16.0038
-7.87041
-87.4827
-56.4245
5.82877
12.9054
14.5775
-32.3922
-64.6701
-2.67292
-31.1515
16.0542
39.4886
0.203979
13.3823
17.6249
11.542
16.154
-21.0044
-111.888
-67.9712
14.1665
38.3236
1.8283
-5.03554
13.3363
-10.569
-8.24398
2.45642
7.15888
-4.52722
30.8852
-87.407
-29.4692
33.4058
13.7105
-4.31496
4.62894
10.8486
-2.1772
-149.066
-51.2833
3.98781
-10.0587
-5.72245
11.4823
-60.9855
-88.8848
-46.9871
-1.87117
-0.77407
3.10818
10.139
10.2516
10.8506
-7.72975
3.92196
0.700992
28.9681
22.1928
-26.119
-9.05654
-4.75504
16.1035
2.60118
0.170379
-9.44752
9.5427
-1.59672
24.7434
5.77329
-0.270357
-52.6981
6.41686
6.59999
-18.6457
17.9745
-2.13336
0.82795
-145.33
0.497389
-56.5337
2.46754
-22.7919
-218.771
-18.7375
-54.3658
19.0315
-60.4985
-20.7327
-55.3303
26.4498
-138.835
-2.08013
12.3692
-68.4847
22.2211
15.5854
-22.4852
15.0021
-1.06867
6.70433
-79.6848
-52.591
-0.903859
21.4778
2.7466
-59.9186
-65.1828
-202.206
-41.5721
-57.3226
-60.3464
-12.589
12.5029
14.7038
7.82851
-227.625
1.59608
15.9198
10.4542
-55.8026
13.2748
-87.5366
-15.0265
2.25102
-4.28694
15.5417
-50.8403
-134.697
-152.737
13.3473
-9.92612
-66.0775
0.330699
-44.3112
-41.4695
-69.8829
-52.464
0.0734706
-100.743
-7.54148
-57.483
16.0619
15.927
-16.5929
18.8436
-41.0935
23.8533
-32.4951
7.36737
-5.47809
5.10038
-4.04541
-10.5258
-110.832
16.42
21.1003
26.4845
-54.3851
-36.3674
-42.1798
-10.9181
-0.317287
-57.7102
-42.143
-66.3782
-4.08664
-59.0574
-20.6125
-56.6293
-6.97251
22.3184
-2.6377
10.2919
-1.83802
-18.6752
-34.8246
26.6329
33.0945
-10.8773
4.16898
6.16204
-0.159185
-129.038
17.9661
20.6495
-64.7111
-119.933
-62.9565
-36.8529
-3.05813
-67.6308
2.47432
19.3695
-17.9858
18.4761
-49.6355
-65.9679
16.5572
-0.130795
-66.5055
9.15736
21.6262
-67.6105
0.792132
-67.5315
-55.8058
-65.5317
27.4299
-108.998
4.74408
-52.3554
10.0481
-62.1805
-79.7486
-44.4017
-33.1225
-19.195
5.38043
-0.67
-60.2525
1.21085
-0.0498415
-105.018
-34.2855
-55.5936
-17.6653
-9.07437
13.775
-106.688
16.5976
-164.784
-0.23303
-0.471769
-7.57311
-49.0342
-58.6201
-17.8744
-1.4511
12.6642
3.05593
6.58911
-21.8529
-3.89877
-31.0794
14.9084
-16.1763
14.6881
-24.6494
-144.732
-4.1654
45.2014
-134.592
-68.8806
-113.549
-25.7782
14.3566
0.828241
1.76018
-4.24853
-69.1665
-53.9045
-9.30919
-67.2845
-2.45122
-50.4944
8.73816
-75.4102
4.95902
1.64604
-0.848324
-30.8451
-4.44058
8.795
-48.4124
-50.9239
12.5366
-11.3213
-55.7871
5.8213
-24.1793
-22.2556
2.01792
10.6202
-72.1621
15.3251
-30.124
-26.9889
-41.0365
-42.6542
-48.8655
-29.8986
-227.619
12.6202
15.4222
-6.33207
44.4514
-44.7735
19.866
15.6419
-68.8366
13.3791
9.7624
14.9134
-17.8616
-28.9765
-20.2006
-24.2477
13.9972
11.5364
-26.984
-31.4434
-23.0496
21.1162
7.00501
-12.2838
8.96104
12.6531
-12.9003
-14.4469
-1.6597
15.535
16.0267
-13.1808
17.0032
17.33
2.29631
-21.7767
9.39119
14.9818
7.78955
-11.7176
-52.9777
-18.4037
-26.7349
-20.6466
19.9368
-2.91134
-9.5817
-16.8778
-3.86511
-120.581
1.55051
-23.0808
-20.6769
9.46062
13.1135
-148.564
10.7265
-9.82778
-1.70449
1.81939
8.40996
2.99971
-0.194911
15.834
19.9016
13.4866
-53.9957
15.4396
10.2833
15.3946
18.0287
-68.1533
-14.5536
-1.91773
-22.1123
10.1964
30.0707
-45.1368
35.8691
-22.966
-5.63152
3.56336
10.1469
-36.1814
4.36759
-36.8913
-31.4233
8.76261
-76.9034
-36.5792
6.88646
-1.12719
36.1006
5.89929
-220.729
-99.7805
-0.289158
13.6911
-171.233
-19.6323
-101.026
-9.48934
-8.3751
-4.99276
15.2048
5.41013
13.2154
-14.1665
-12.2042
-31.7523
-1.22568
-1.59446
-24.2173
23.6814
-31.6978
-38.7655
4.19256
-31.6642
-4.9024
14.4828
-6.8203
-63.937
18.9195
-3.3089
15.4434
-22.2538
12.6366
-0.427464
21.5193
13.8106
-32.8232
5.25349
-18.4849
-115.333
-2.08891
-1.58425
-60.8202
-42.0644
36.6778
-0.135753
-42.2605
16.3033
-60.8013
5.05349
-126.104
-52.8203
-88.8635
-48.0681
-10.5377
-6.11207
-98.1019
-40.577
5.77837
-125.486
-14.6542
-129.365
3.88099
16.631
-72.4023
-72.3
-12.3038
-5.67873
-23.8964
11.982
17.6791
-127.061
12.3128
-15.2629
15.5133
26.0535
-57.5893
16.0663
-3.91741
12.8087
13.6745
11.5401
-11.5938
-105.513
9.89568
17.7439
-77.1055
-1.15674
-29.0102
-26.0142
14.9644
-56.5203
-35.122
-104.386
15.1741
-25.2163
0.0386149
-6.73443
16.6944
0.578651
-26.3525
5.42299
-1.68143
-163.744
22.0318
30.297
10.3977
37.4625
19.988
35.1571
-0.614151
-8.30229
24.5849
-40.2017
4.05617
4.05762
-8.5292
19.6618
-11.8727
-21.101
30.1109
8.15286
-40.9815
14.3789
13.1348
17.5124
-107.658
16.8294
31.6892
-59.5041
-4.37773
-25.0157
-2.97578
-57.6563
7.82222
4.04321
19.296
14.2465
-68.9628
8.27153
-10.1914
-60.1542
-40.8412
-57.826
3.9737
-27.0581
14.6821
-4.1076
-62.6624
1.7119
-55.6335
8.18952
-80.0626
-89.346
6.96202
10.257
-62.7002
5.12915
18.9028
-0.498715
-36.9483
16.0272
0.675126
14.0513
-65.5949
19.4441
11.9085
-30.9203
-7.90469
6.36266
-3.72382
12.4679
-50.7048
35.663
-13.3272
-72.7573
6.84371
-0.00575852
-68.0652
-21.3094
-53.8669
-21.5853
-16.5274
-25.2036
4.15119
1.20898
39.1139
7.73576
-62.2388
1.49064
-20.1088
-19.6952
-22.1769
1.67006
19.436
-55.8309
-3.41055
-32.1192
-19.6225
-2.6485
-0.743599
16.2859
-0.30391
-0.18927
-17.6777
12.2964
-8.85503
0.019837
-67.7515
7.44782
-5.45217
19.9546
-69.4522
-11.4564
-101.024
3.37469
-63.4981
4.17266
12.2318
9.18457
20.8615
-55.4999
-88.7271
12.7706
-44.0932
15.9132
14.2283
6.3875
11.5732
-5.43383
12.2189
1.05447
-24.4182
-38.7925
18.5133
-146.087
14.0491
-1.27747
38.9297
5.67037
10.9867
11.2594
8.62915
-0.679938
12.0007
-10.9738
-5.95715
-26.9671
-1.89256
3.05357
-5.31268
-22.8016
-19.4778
-29.1207
-52.3312
-68.5632
-27.4623
15.8018
-1.88272
15.7403
9.89738
31.4224
29.7918
13.3975
-7.95001
13.1572
-58.8242
20.8701
-2.34161
9.12641
-6.23764
13.4846
4.98037
-2.26754
-12.7817
-24.4925
-5.09985
-18.3461
8.33893
13.4831
-35.4295
-7.33242
-56.2693
4.86034
13.8818
-1.45703
13.3951
7.70824
-7.77172
0.668917
8.55871
0.594516
-50.6838
19.5004
2.95928
21.0596
-34.7836
15.5678
5.26621
-57.8596