/*--------------------------------*- C++ -*----------------------------------*\
| =========                 |                                                 |
| \\      /  F ield         | OpenFOAM: The Open Source CFD Toolbox           |
|  \\    /   O peration     | Version:  2306                                  |
|   \\  /    A nd           | Website:  www.openfoam.com                      |
|    \\/     M anipulation  |                                                 |
\*---------------------------------------------------------------------------*/
FoamFile
{
    version     2.0;
    format      ascii;
    arch        "LSB;label=32;scalar=64";
    class       surfaceScalarField;
    location    "2.6";
    object      phi;
}
// * * * * * * * * * * * * * * * * * * * * * * * * * * * * * * * * * * * * * //

dimensions      [0 3 -1 0 0 0 0];

oriented        oriented;

internalField   nonuniform List<scalar> 
20045
(
1.09901
-1.25096
0.151957
-2.22321
0.921699
1.30151
0.579351
4.11402
-4.69337
0.194176
-0.0191911
-0.174985
-2.04431
1.68181
0.362501
-1.23771
4.35161
-3.1139
-1.8786
0.178505
1.70009
0.0812822
1.04842
-1.12971
1.11172
0.853029
-1.96475
-1.41189
-0.312348
1.72424
0.249898
-0.985567
0.73567
4.07867
-1.95035
-2.12831
0.837908
-0.8344
-0.00350833
-2.29787
2.00686
0.291011
-0.16751
1.82431
-1.6568
-2.00364
0.59175
-0.170682
-0.0207227
0.191405
-0.711428
0.639607
0.0718216
-3.22226
4.68505
-1.4628
-1.54758
-0.0250541
1.57264
-0.854126
0.430444
0.423682
0.294345
0.543564
-0.43571
-1.7875
2.98655
0.482333
-3.46888
1.61662
0.282948
-1.89957
-0.848177
3.83473
0.352863
-0.255582
-0.0972808
-2.59198
5.37241
-2.78043
2.75799
0.932704
-3.69069
-6.02782
3.75819
2.26963
0.537083
1.61143
-2.14852
2.32803
-2.02039
-0.307644
-0.991467
3.05988
-2.06842
6.06325
-3.33555
-2.7277
-1.32449
1.40577
3.89401
-1.91393
-1.98008
2.03672
0.895125
-2.93185
-0.142292
0.88436
-0.742068
-4.46505
2.37696
2.08809
1.25054
1.16178
-2.41232
-0.0992352
1.25659
-1.15736
0.418995
-0.574264
0.155269
5.01941
-5.00492
-0.0144901
2.80612
-0.95704
-1.84908
1.23156
1.57455
1.82272
2.25595
-1.24133
0.315408
0.925918
2.67039
0.5032
-3.17359
3.12953
-1.09281
0.546537
3.71096
-4.2575
2.66015
-4.37902
1.71888
4.01407
-2.72536
-1.28872
-2.02428
-1.38719
3.41147
-0.219445
-0.675692
0.895137
-0.997567
-0.113325
1.11089
-1.46092
-0.583397
1.28368
2.47856
-3.76224
3.2723
0.648217
-3.92052
2.67148
-3.66295
3.52449
-2.89015
-0.634343
0.00507578
-0.728601
0.723525
0.847032
2.67746
0.91117
-3.71872
2.80755
-0.209901
-0.644225
-1.72954
2.59486
-0.865326
2.20058
1.03042
-3.231
0.178995
-0.181151
0.00215602
-1.38164
0.184345
1.19729
1.88445
-0.772732
3.26984
-3.32585
0.0560057
0.106364
0.0726308
0.295147
-1.29271
-0.549457
-2.17929
2.72875
1.01971
-0.630839
-0.388875
2.46169
0.165814
-2.6275
3.506
-2.22232
-0.744215
3.20591
1.31979
-1.4873
1.8634
-1.13912
-0.724282
-0.128739
-2.91113
3.03987
1.93474
2.04809
-3.98283
1.73997
-1.52198
-0.217989
2.85546
-1.94429
-4.95087
0.692297
4.25857
-0.00969375
1.1087
-0.779091
1.05884
-0.279746
0.57573
-2.23662
1.66089
-3.16324
0.0558003
3.10744
1.94081
0.514305
-2.45512
-1.57444
1.31801
0.256426
-2.42544
-0.0409215
2.46636
1.739
-0.4399
-1.2991
0.895104
-1.32451
0.429409
-0.482599
-1.5746
2.0572
1.30925
-1.43864
0.129388
3.0097
0.279729
-3.28943
0.0913447
0.261518
-0.201966
0.471778
-0.269812
2.59768
-1.34715
-0.213467
0.122914
0.0905531
2.68425
1.20976
-0.812031
-1.48584
0.441374
-0.64334
-0.981056
4.25336
0.0963275
-0.875419
-0.248456
0.0349885
0.772947
2.51776
-3.29071
2.12429
-4.14944
2.02515
0.622075
-1.1265
0.953456
0.173046
-0.663963
0.831651
-0.167688
1.94171
-1.97218
0.0304737
-1.12664
0.907197
3.46186
-5.71302
2.25116
-0.496927
0.761524
-0.264597
0.118384
-0.796506
0.678121
2.12274
-0.506119
4.27776
1.78549
-2.48534
1.93588
2.01901
-3.35337
1.33436
-0.32944
-0.381988
-0.763876
0.768952
-1.768
1.40356
0.364443
-2.34076
0.268365
-1.35709
1.08872
2.62072
1.39335
2.13872
-3.0142
0.87548
3.11433
0.372813
-3.48714
-5.41816
3.92099
1.49716
-3.24243
0.678394
2.56404
4.13881
-1.51809
1.25604
-0.940632
0.637822
0.399757
-1.03758
0.202613
-0.132493
-0.0701203
2.31886
1.56354
-3.8824
2.41114
-2.17632
-0.234817
-0.628836
0.109405
0.519431
-0.807077
-0.319425
3.68103
-1.66202
-1.52427
1.53967
-0.0153963
2.2347
-4.54174
2.30704
0.509673
-2.53395
1.6946
1.00506
-2.69966
3.2957
-3.42444
4.67288
-0.537472
-4.13541
1.41334
-3.22905
1.81571
3.46367
-2.07735
-1.38632
-0.445588
0.614532
-0.168944
-0.372603
4.46723
-4.09463
4.05823
-1.30024
-3.28073
0.0749936
3.20573
-2.16199
1.45807
0.703919
3.60625
-1.67151
0.484184
1.25579
-2.44887
2.95987
-0.510995
-3.44226
4.02162
0.0236684
-1.01465
0.990984
-0.601375
-1.12822
1.7296
-0.102971
-0.828569
0.93154
2.41825
0.533619
-2.95187
5.51992
-2.76035
-2.75957
-1.01403
0.911055
1.36549
-1.89224
0.526747
0.518776
-0.0997813
-3.70641
-1.62954
2.48306
-0.853518
-2.45576
1.77799
0.677766
-0.0270098
-0.250869
0.277879
1.85517
1.6085
0.132948
0.0696653
-0.78376
1.42158
-2.69405
0.245178
-2.99241
3.69964
-0.707232
-2.78678
2.90087
-0.114089
-1.9331
-1.69947
3.63257
0.171084
0.879444
-1.05053
1.56714
-1.60502
0.0378738
4.04379
-0.145539
-3.89825
-0.0714411
-2.98383
3.05527
-1.44252
3.13713
0.77264
-2.35336
1.58072
-2.42424
5.8861
-2.98816
2.21121
0.776949
-0.177028
0.215654
-0.0386257
2.10839
-4.75302
2.64463
-4.27889
1.68691
-1.94791
-2.24057
5.40364
-3.48702
-1.91662
-1.53997
1.44073
0.782552
-0.837587
0.0550355
-2.15247
-1.01743
3.1699
-3.89355
5.52611
-1.63257
4.14692
-3.33972
-0.807194
0.0634626
-0.806081
0.742618
-1.72303
-1.89834
3.62137
0.867267
-0.617369
-1.35182
-1.89062
-2.9917
-0.897902
3.8896
0.547897
0.131489
-0.679386
0.590178
-2.21972
-1.35741
1.89449
3.34243
-0.228099
-0.743089
0.600797
-0.915126
1.1356
-0.22047
-1.13058
3.54883
-3.93069
2.20765
-0.801069
-0.532007
1.33308
-2.94426
0.628438
2.31582
1.05952
3.0874
5.02541
-2.91703
3.63784
-5.83814
2.20029
3.85212
-5.12747
1.27536
0.244684
-1.79227
-2.05033
2.82328
2.48663
-3.72434
3.15925
-5.32224
2.16299
-6.33389
3.21668
3.11722
-0.215005
-1.35943
0.795537
0.650584
-1.44612
2.90686
-1.21288
-1.69398
-0.0477677
-3.11362
2.74101
-1.11704
-0.407233
2.52823
3.72638
-2.86914
-0.857239
-0.0474659
-0.615745
0.663211
2.48081
0.57262
-3.05343
-1.22542
-0.72146
1.94688
-1.67373
4.23109
-2.55736
-2.22451
2.80024
2.42675
-1.65411
-0.396131
2.00357
-1.60744
3.8458
-1.6111
0.547124
-0.0500693
-0.497054
-0.276508
-0.66351
0.940018
-0.632415
0.659468
-0.0270524
5.37641
-3.45647
-1.91994
1.15401
-5.04756
-0.703476
0.0710612
-3.21537
0.890008
2.32537
5.0651
-2.00522
0.904855
-3.89727
6.62025
-3.02589
-3.59435
-0.0831103
0.631007
3.83245
-2.38861
-1.44384
-2.44079
0.415805
2.02498
-3.76571
3.73
0.0357043
2.79261
-4.66056
1.86795
-0.0146004
0.159525
-0.144925
-1.85063
2.35453
-0.503899
0.0885301
0.529532
-0.618062
-0.701215
0.204288
-0.807469
0.143507
-2.25421
-1.89524
1.55147
-4.28531
2.73384
-1.07653
1.04206
0.0344723
1.69102
0.637009
5.22533
-2.06608
-1.98618
1.38481
2.35695
2.70816
-2.10058
0.240849
1.85973
1.94051
1.89193
1.68734
0.136969
-1.1327
0.0561672
-1.27377
-0.246025
1.5198
0.029369
-0.206397
-4.36597
2.69224
1.30073
-2.18579
0.88506
-3.73901
3.60536
0.133655
-1.04352
0.58811
0.455408
-0.574238
-0.561535
1.13577
2.98786
-3.37109
0.383236
-3.41604
-2.91785
4.53025
-2.8309
-1.69934
-0.497613
0.450147
5.02606
-2.23345
-2.73684
4.28831
-0.74445
1.85494
-1.11049
4.06824
-1.36577
-2.70247
3.86002
-1.17309
-2.68693
1.38034
-2.12479
3.47835
-2.1317
-1.34664
-0.811953
3.26368
-2.45173
1.013
-2.94825
1.93525
0.79598
0.0142562
-0.810236
-0.0685469
0.0809922
-0.0124453
5.02479
-4.37493
-0.649856
-3.12169
-2.29647
2.30356
1.42281
-3.39816
-0.34085
0.549894
-0.826402
1.51602
-3.23033
1.71431
0.0118027
0.770749
-2.13106
4.44992
2.09717
3.27924
5.8954
-3.7316
-2.1638
-4.2142
3.3163
2.4732
-4.28365
1.81045
-2.48229
-0.299959
2.78225
-1.53748
-0.455657
1.99314
1.77902
-0.413531
0.282104
-1.08317
1.78267
-0.493184
-1.5272
-2.13145
3.38921
-1.25777
-1.11394
0.198811
-1.42686
1.03073
0.406828
-4.17253
0.91871
-3.14322
0.977061
-0.749967
0.904574
-0.154607
0.0675984
0.126578
-1.74661
1.28373
0.462882
1.54397
0.397737
-0.0600539
-0.0988512
0.158905
1.8344
0.57674
-1.6101
3.12611
2.30963
-0.368819
-0.934969
-2.00929
5.57817
-4.60803
-0.970138
3.0957
-3.66066
1.92873
1.73194
3.14282
-3.52604
0.383223
-1.89496
1.41236
-0.58872
-0.0401163
-0.651158
-1.77428
1.43567
-2.30269
0.867017
1.67233
1.80601
2.3375
-4.09046
1.75296
1.25076
-2.29867
1.0479
-3.89364
0.730393
0.161064
1.57793
-1.90565
2.50291
-0.597258
-0.854783
1.2656
-0.410813
-2.15581
0.27721
-0.505377
-1.06026
1.56563
0.493366
0.00756485
-0.500931
-1.11226
-1.04973
1.3798
1.83173
-3.21153
3.57123
-1.63072
1.21219
-1.80845
-0.0865041
2.08756
-0.836796
-2.61231
-0.375849
0.458707
-0.422118
-0.0365888
3.58129
-0.9109
-2.0831
3.09683
-1.01374
-0.568883
0.665581
-0.0966982
2.59925
0.30761
-1.81948
-1.41085
-2.15484
3.71626
-1.56142
2.11645
-4.02642
1.90997
2.16093
2.36932
-0.206977
-0.00355219
0.210529
0.494552
-2.97684
2.32194
-3.48342
1.16148
0.363695
0.656019
-0.479986
2.61871
-1.93086
2.84957
-1.25407
5.10618
0.759767
-3.98202
-2.64694
1.54565
1.10129
2.68469
-0.576033
-2.10866
3.78942
-0.801559
-2.81114
-1.98103
-1.65116
2.43894
-0.688931
0.951181
-0.26225
1.32149
-1.34655
-3.07956
2.59957
3.91478
1.10463
-3.21663
1.13353
3.67313
-1.36957
-0.716768
0.670036
0.0467327
0.123116
-2.37656
2.25344
-3.58777
0.621206
2.96656
3.38099
-3.38099
-1.91946
3.50287
-1.58341
0.145792
-0.205846
2.11643
-0.931519
-1.18491
-3.85973
4.0208
-0.161067
1.50662
-0.0934469
-1.41318
1.17395
-0.402747
-0.771207
0.533463
-1.1077
0.567109
1.8295
-4.56634
-3.24552
3.79904
-0.553524
-1.18923
2.56903
-0.412806
0.00487763
0.407928
1.04211
-1.31039
0.268285
-1.54189
1.78657
5.58134
-4.11981
-1.46153
-0.382151
-1.98693
2.36908
-1.05954
1.13404
-0.0745072
0.667681
-1.1493
0.481619
-3.35291
1.59509
1.75782
-0.0785382
0.059347
-0.711201
-0.00556687
-0.19472
0.310679
-0.115959
2.61156
2.41323
-0.228109
-0.184697
-0.272643
-0.91293
1.18557
-2.11099
3.31754
-1.20655
0.403893
0.80873
-1.21262
1.57094
-1.39243
2.16391
-1.08221
-1.0817
0.199582
-1.77418
0.837974
3.20581
1.87797
1.07013
-2.94809
1.9604
-1.56922
-0.391171
-4.05195
0.771223
-1.30979
0.557994
0.751792
1.582
3.08195
-4.66395
-2.62203
2.32208
0.290659
-3.64831
3.35765
-0.575408
0.638871
-0.146079
0.181035
-0.0349556
0.216479
-1.49025
-0.123728
1.17459
-1.05087
-2.61717
-0.598206
2.44632
1.49729
-0.982408
-0.514878
-0.615222
0.0463395
0.550859
-2.73518
2.18432
1.09025
1.98203
-3.07227
1.67204
-2.76133
3.34642
-0.585093
-2.96278
2.15083
0.00755155
-0.263133
-1.45316
-1.0026
-1.16222
0.278155
0.884067
-3.58272
1.47173
2.57234
-2.95449
1.69034
1.98279
-1.50666
1.36484
0.141822
0.509861
-4.17288
3.66302
0.761028
-1.19891
0.437884
1.40062
-3.2201
-2.46728
-0.319499
-1.40429
0.022657
1.30928
-0.45434
-0.854938
2.1653
0.345299
-0.222498
-0.122801
4.42306
-2.84106
-1.79818
3.35626
-1.55808
1.13104
0.797662
-1.92871
-1.32605
0.750639
-1.00479
-0.157435
1.73239
0.384032
-1.1832
-2.17017
0.405728
0.0529785
2.38259
1.7835
0.526133
-3.5923
4.13883
0.5196
-1.63287
1.11327
-0.381935
-3.29162
3.67355
-0.0285507
0.0279756
0.000575127
-1.18328
1.35437
-1.62387
2.63687
3.42287
-2.00953
-1.47072
-0.275891
-0.0199432
-1.74302
1.76297
1.58474
-3.51784
-0.445001
-1.73432
2.17933
-0.487981
0.325563
0.162418
-2.52783
0.047254
2.48058
3.32768
-2.82448
-0.0110615
0.423389
-0.412327
-0.963955
-0.0955825
0.750124
1.53662
-2.28675
0.681781
-0.817186
0.135405
2.32102
1.26345
-3.58446
-1.08442
4.09412
0.48245
0.0109159
-1.63746
-2.52852
4.16598
1.5196
2.16143
3.71292
-2.62267
-1.54081
1.03543
0.024244
-0.0927909
-1.66393
4.13713
0.433567
-3.00389
2.57032
3.0988
-0.467152
-2.63165
-1.84423
2.57479
-0.730561
1.52469
-1.9958
-1.38301
3.37881
-0.00401287
0.21815
-0.214137
-1.08095
-1.97184
3.05279
-0.22461
1.26672
0.253057
-0.280067
2.05987
-3.14082
-2.73766
-0.934881
3.67254
-0.128526
-2.05694
2.18547
-0.253253
4.97096
-5.16896
0.197999
0.870695
-0.432253
-0.438442
-0.131086
-1.37557
1.00611
1.05109
-1.46824
-0.0692393
-3.15144
3.98781
-0.836366
-0.534319
1.83505
0.60978
2.68592
-3.91689
-1.08803
0.267301
0.147738
-0.415038
2.11729
-0.333785
-0.933201
1.01693
-0.0837276
0.689325
-0.600795
-4.7031
2.75519
3.55452
0.797092
-0.373429
1.04111
-0.883759
2.0148
4.41101
-2.58151
-0.946579
0.0133787
-0.570182
-2.50937
0.638828
1.09619
-1.07252
-3.69781
0.110036
-0.907488
0.933462
-0.172434
-3.00023
1.57484
1.4254
2.73007
0.539771
0.871192
-0.304827
-0.566365
1.34707
-1.17161
-0.175461
-3.02365
1.10972
-4.15155
1.99671
2.16017
-1.60789
-0.552279
0.0556585
0.0802387
-0.135897
4.03081
-0.02152
-4.00929
0.924187
0.0801376
-1.00432
-0.625903
-1.1421
1.01437
-0.119267
-0.135837
0.0687979
0.0670392
1.77701
-0.0985352
-1.67848
-0.138309
0.00247154
2.83949
-2.55977
-0.12839
-0.635937
0.764327
-4.05478
0.903342
0.0695743
-0.280182
0.721556
0.887262
0.610024
-0.322292
-1.66389
0.977635
0.809476
-1.78711
0.0760378
-1.80557
1.55562
-1.03602
0.991897
-0.873513
0.4245
-1.27928
2.18195
1.60713
-3.78907
2.25842
-0.316253
-1.94217
-2.32516
-0.903893
-0.728772
0.157574
0.571197
1.36812
-1.3813
0.0131826
4.3115
-0.102362
-4.20914
-0.482591
0.079651
0.40294
-2.05589
2.78893
-0.733046
2.34027
2.32373
-4.664
0.0447049
-0.773306
-1.26174
1.85676
-0.595021
0.927597
0.424678
-1.35228
-4.26335
2.89054
1.37281
0.0490605
0.0197374
-3.39464
0.656983
1.35146
-0.812749
-0.538711
1.76969
-2.30949
0.5398
-0.426921
-0.824044
0.590745
4.38021
3.29837
-0.629889
-2.66848
-3.2666
0.505278
1.34467
-2.27964
3.66002
-5.56486
1.90484
-0.454377
1.24991
-0.115632
-1.36082
1.08818
-0.687404
0.95577
-0.926249
-3.78804
4.71429
3.13738
1.88869
-2.94008
3.14582
-0.20574
0.499677
0.809601
-2.12272
-0.792584
-0.534477
0.596654
-0.062177
-1.66775
2.54914
-0.881392
-0.761625
2.21008
-1.44846
-0.323945
2.09363
-2.64145
-0.196978
2.83843
-3.24573
-0.974017
4.21975
1.7346
-1.42169
-0.3129
-1.17811
0.0707324
1.10737
-0.113427
0.134148
-0.0207203
-3.8344
0.211887
3.62252
0.0997135
0.844724
-0.944437
3.06256
-3.46482
0.402256
-1.89816
-0.83325
3.09246
-2.25921
0.0460043
-0.580481
-2.32679
-3.79294
6.11974
3.25612
-5.68036
-3.77975
3.31051
0.469242
0.821248
-0.139467
3.43037
-2.82059
-0.245876
-0.674231
0.920107
-0.0616541
0.820032
-0.758378
-0.510325
3.17863
-2.6683
2.60246
-1.00521
-1.59725
4.00464
-3.83741
-0.16723
2.7556
-0.862572
-1.89303
0.174905
-0.99856
0.823655
-1.26695
-0.0901372
-4.06371
3.54642
0.517285
0.187511
-4.25122
-1.15288
1.35843
-0.205546
-2.19476
-2.18017
0.879415
-0.717179
-0.162236
-3.16797
-0.886812
-0.826001
0.570351
0.25565
-1.93364
0.708217
-3.84967
3.67061
0.17906
-0.702633
0.00397771
-0.634817
1.01246
-0.0882747
-2.25128
0.400654
0.674829
-0.751033
0.0762034
1.28014
0.259616
-1.53975
1.70639
-0.199764
-0.862998
2.81845
-0.219194
1.39749
0.231084
-0.945138
0.714054
-0.282328
1.84947
-2.60662
1.72818
0.878443
0.169709
-0.120649
5.05977
-1.92239
3.26069
-2.75082
-0.758082
-0.565678
1.32376
2.38095
-4.69108
2.31013
2.33033
-2.45885
3.4959
-1.63203
-1.86387
-0.0271399
-2.22414
-0.382477
-1.96216
3.41913
-1.45697
-0.0587362
-1.31446
4.95231
-4.13683
0.968859
0.829742
-0.0337619
-0.321286
0.0188447
0.680073
-0.0206052
-1.88931
-1.73601
4.84477
-1.33878
-0.858742
0.81222
0.0465213
0.217357
0.956597
-2.4662
-2.02854
4.49474
1.00295
0.776069
-0.0137991
-0.632719
0.646519
3.28135
0.0919787
0.0687651
-0.160744
3.52782
-1.34587
-1.33866
-3.86984
0.624325
-0.980001
0.0633079
0.916694
2.81239
3.80785
-2.23576
0.00962641
2.22614
3.84162
0.163019
2.49094
-3.48639
0.995445
-3.21118
-0.037433
3.24861
-3.31702
4.23299
-0.915971
0.616472
-0.0169588
-0.599513
-2.324
5.58012
-0.0778803
-1.20025
1.27813
0.1771
-3.11718
1.80861
-1.21766
-0.590949
-3.706
4.87788
-1.17188
-0.84673
2.28255
-1.43582
4.6439
-2.05624
-2.58766
0.0646713
-2.32802
2.26335
0.182187
-0.00115203
-1.85973
4.2
1.49893
-3.41839
3.95715
-1.8407
-0.795024
0.666634
-3.36236
0.151182
4.27638
-1.93888
0.0890687
-5.03993
1.26241
-0.00582068
1.95264
2.19106
-4.14369
2.16147
-0.61353
-1.54794
1.66559
-3.24619
1.58059
-0.799675
0.039501
0.760174
-0.793997
-2.02495
2.81894
1.4472
-1.0227
0.431025
-0.365366
-0.0656592
0.369457
0.930799
-1.30026
0.325323
0.554093
-3.97662
4.70672
-0.730098
-0.115889
0.0873386
1.855
0.86535
-2.72035
1.47616
2.88687
-4.36304
0.764515
1.92018
-0.141624
4.8145
-0.0737045
3.17313
-3.09942
0.56508
-0.161187
0.375808
-0.231825
-0.143983
5.01087
-2.91788
-2.09299
1.69137
1.80452
0.103234
0.125411
-0.228645
-1.02255
3.09338
-2.07082
0.000579746
0.746493
-0.747073
3.36604
-5.42991
2.06387
-1.78959
-1.64455
3.43414
3.21837
-0.737557
1.02778
1.1337
-1.29642
0.951461
0.344962
1.1725
-3.15943
0.0937772
-0.85238
0.758603
0.785195
-0.196254
-0.58894
0.0162453
0.165942
-0.233622
3.04971
-2.81609
-0.786284
4.49724
2.95523
-2.47128
-0.483946
2.62046
-2.10615
-1.86382
0.668519
1.1953
0.756042
-1.68756
0.646516
-0.176273
-0.470243
0.279157
0.592034
0.612527
2.89617
-3.5087
1.11694
0.660068
0.509338
-3.75507
-1.96143
0.261799
1.69963
-1.47567
-0.863902
2.33957
2.08655
-1.10892
-3.32511
2.13588
0.922173
-0.685095
-0.237077
-1.84903
4.20807
-2.35903
-1.71903
1.91861
-2.15565
1.92925
0.226406
-2.26136
4.15055
-1.88919
-0.0812328
0.937883
-0.85665
-0.347276
0.402935
-1.95619
-2.27328
3.81175
-1.53847
-2.22169
2.85013
1.94887
-2.13689
0.188018
0.29199
1.00758
-1.29957
-4.71086
2.95242
1.75844
-0.0180206
-0.168712
0.186732
0.436615
2.65069
-3.16101
4.51783
-2.13687
-0.89354
-1.7534
-2.84399
2.77028
1.80548
-0.0274931
1.34361
0.327872
-1.67148
-1.43302
1.31507
0.117945
-1.53785
2.59333
-1.05548
2.05818
-1.24412
-0.814066
2.04979
0.410992
-2.46078
-2.73946
-1.09979
3.83924
-0.821029
1.11302
2.2457
2.76517
-3.80129
2.16735
1.63394
-1.15777
0.270596
0.887173
0.0319763
0.795743
-1.01173
0.215992
-1.83331
0.634002
1.42418
0.602673
0.863056
-0.68815
-2.45535
0.787606
3.43539
-2.75699
0.0868841
1.22236
0.284435
1.04509
-1.32952
-3.00107
-2.18004
5.18111
-1.51096
0.21454
-1.88868
-0.368449
2.25713
0.316312
0.976263
-1.29257
0.0992215
4.41339
-2.8336
-1.57979
0.767589
2.53078
0.478909
-2.36034
1.83343
0.526911
-2.33609
3.59986
-1.26378
-2.11845
-1.00329
3.12174
-1.91326
0.651514
-1.3547
-0.509118
4.28597
-1.89667
-2.3893
0.953291
-0.0408415
-0.912449
1.30281
0.339061
-1.64187
-0.730001
0.829715
-0.671833
-0.605939
1.27777
-0.115713
-0.12991
-0.884116
-0.0425107
2.50538
1.78059
-1.37397
3.75093
-1.52379
5.28198
0.987306
-0.034015
-3.2713
1.15286
2.95725
-2.4627
-0.500678
-2.61328
0.557395
0.105446
-1.25833
2.73109
-2.60797
3.32658
-0.183765
-0.81541
-0.509103
-0.72668
-0.33456
1.06124
-1.25987
-0.178762
3.04776
0.538273
-3.58604
-0.0629566
-0.991367
1.05432
-0.584714
2.04525
-3.81071
1.76546
3.32376
-0.261196
-4.54772
5.16408
-0.616356
0.839886
-0.65554
-3.88277
-0.828084
-0.972557
3.62784
-0.081415
2.56197
4.10784
-1.49436
-2.61349
-2.46141
-0.110074
2.57149
1.06172
1.82111
-2.88282
-2.80625
0.278416
-0.708013
-0.299091
1.0071
-1.90553
2.3391
0.600355
1.90966
-2.51001
0.000298527
-0.0644207
0.0641221
-3.72201
0.504872
3.21713
1.94351
2.57432
-1.1446
2.12408
0.631521
-0.87157
-0.438216
3.77667
-4.31414
1.04254
0.00894957
-1.05149
0.762069
-0.717364
2.6475
0.106768
-2.75427
3.63526
-5.15905
-0.00980489
-0.00479553
-1.61886
2.2526
-0.633734
-6.01448
3.68769
-0.142868
1.25886
-1.11599
-0.597657
-0.130856
0.728512
-1.29438
0.1111
-1.08539
2.43006
0.596548
1.56362
-0.655172
0.701177
-2.34023
1.61877
0.401217
-0.241692
-0.836444
0.795378
0.0410659
0.85955
-0.964494
0.104943
-2.23006
2.39588
0.495889
-2.38457
-0.28102
-1.25895
-0.0968237
2.27192
-2.1751
1.33725
-1.58328
0.389695
-3.18324
2.79354
-0.700544
3.48406
-2.78352
1.17098
-3.30243
-0.980002
-0.0795416
-3.70021
1.25902
3.58576
-2.83199
-0.493116
-1.89309
-1.76757
-1.75124
0.690982
0.022794
-0.249332
0.226538
5.8475
-3.03511
3.02184
-0.699904
-0.966979
-0.642102
1.60908
-4.63093
2.23116
2.39977
-0.934933
-0.0506344
-2.45237
1.61912
0.680092
-0.385747
-0.0920571
-1.36812
1.29024
-0.108648
-0.785059
0.893707
-0.491972
3.53973
-0.758361
0.820358
-0.0619978
3.32935
-4.72936
2.09184
2.63752
0.536856
1.15882
-1.69567
1.7442
0.0996058
-1.8438
-2.15379
1.30706
1.24305
-0.11844
1.42125
3.51737
-3.89931
1.69087
-0.763278
-1.4821
2.6546
-3.47054
2.46661
1.00392
3.26645
-5.50948
2.24303
-2.65235
2.92495
-0.272602
1.47718
-1.75951
0.0479166
0.727402
1.00719
1.49244
-4.40357
1.81403
-5.041
3.17987
1.86113
0.858996
-3.32041
2.20601
-0.0588539
-2.38193
0.474093
0.826202
4.10506
-1.44063
-2.66442
0.934753
0.934243
-2.40991
0.675409
-3.6316
3.52153
-3.09319
1.09739
1.79411
-2.22399
0.912499
1.31149
-3.63932
2.07855
1.56077
-0.809906
-0.146508
-0.341473
-3.93227
2.78915
1.14312
3.17938
-5.50338
-3.9842
0.00757656
5.50535
-1.84533
0.0195776
0.098912
-0.11849
-0.105897
-0.644309
0.750206
0.0739581
1.62522
2.05472
-0.979178
-1.24481
0.53694
0.910264
0.761176
1.48893
-2.2501
1.57936
-0.928778
-0.0843545
-3.97902
4.06337
-1.27624
1.24601
-2.68853
-2.75648
-1.91274
4.66922
0.963151
-1.40305
-2.74029
0.828025
1.91226
-0.117784
0.466173
-0.348388
3.91973
-4.84598
0.248427
-1.86729
3.8706
1.33703
-5.20763
-0.90113
0.0423882
-3.26463
0.936642
2.32799
-3.61571
1.82612
1.18073
-3.51682
0.0383296
1.00421
0.132524
-0.250309
-0.103901
3.2027
-2.29441
2.99596
-0.70155
3.26219
0.0143905
-3.27658
-1.94657
-0.0681788
-0.681788
0.173533
3.20745
0.529811
0.13577
1.18473
0.144691
0.00110095
1.93268
0.604124
-2.14197
-3.60167
-0.247997
-3.09275
0.968032
-3.35664
0.701007
0.785008
-1.48601
3.4524
0.170724
-3.62313
-0.465948
0.448989
-1.39282
-2.75873
-2.97837
-0.547672
-1.68797
5.32323
-1.31304
1.86569
-0.552649
-4.23278
1.23171
-1.18549
1.94667
-1.53769
-1.46254
-1.90641
-1.03422
1.0721
-0.525239
1.80538
4.19491
-0.567077
2.12817
-0.260474
-1.86769
0.113889
1.88968
1.0739
3.9151
-3.62444
-0.151709
-0.908667
1.33808
-1.83807
2.07892
-1.85074
-2.66452
0.932218
0.669195
-1.60141
-3.43522
0.0542334
-0.564814
3.01902
-2.45421
-0.0450034
-4.50272
-2.52207
3.09469
5.47552
-2.59957
-2.87596
-0.371341
0.929335
2.60824
-1.16346
-1.44478
1.07283
-1.20274
0.164498
0.21131
-0.507834
-0.100218
0.608051
-0.312473
1.65608
-2.30503
5.48441
-0.0541609
-0.663018
-1.07822
-0.390621
1.46884
-0.300084
4.21981
3.35075
-1.07187
-2.27888
-1.52347
2.27359
1.50133
1.59205
-1.8746
-0.0868322
2.1596
-0.852808
-1.30679
-0.160212
-0.0904862
0.250698
0.626515
-2.93687
2.31036
-3.58669
0.60832
0.897082
-2.39062
3.35865
-0.0561497
1.12898
0.553067
-1.86611
-3.46293
1.81177
-3.9336
1.17324
-1.82125
0.279363
-1.37043
-2.14593
3.51636
-3.1876
-0.261729
0.125431
0.136298
3.69901
-3.00671
3.0417
-1.97998
0.432161
2.08398
-2.51614
0.565669
-1.27368
-1.87817
-1.41061
3.28878
0.0040555
-1.97194
1.96788
-3.10891
5.06454
-1.95563
2.57081
-1.96264
-0.608174
2.80211
0.0953229
-2.89743
-1.98062
-2.74875
-1.2198
-0.184496
1.6982
2.44061
-0.043828
0.412548
-0.36872
-2.60262
-0.662003
2.52684
2.15821
-2.08832
2.55731
-0.468985
-0.14837
0.217135
-0.682985
0.826856
-0.143871
0.0716594
-0.83002
-0.396367
-3.5359
-3.76459
0.782837
0.139336
1.41252
-2.76993
0.317523
2.72494
-3.04246
-1.89554
-0.35574
1.77905
1.79218
0.283265
-1.09034
-0.825782
0.627428
0.198354
0.0472465
-1.32064
1.27339
-0.321393
0.909503
1.60978
3.25584
-1.5835
2.92102
-1.67501
-0.459067
-1.00724
1.46631
2.83104
0.432641
-0.0196004
-2.6481
1.8541
2.66268
-2.96276
-1.57222
-2.71372
4.28595
-2.27124
-2.35969
-4.17058
4.20761
-0.0370308
0.313374
-1.14345
0.80889
2.10505
1.15079
-0.480591
2.24422
-1.76363
-1.09702
-2.22882
-1.21044
-1.95988
3.17033
1.76342
-0.760466
0.829138
-0.73536
2.11594
-3.50876
1.59164
-1.3087
-1.84186
3.41543
-1.57356
1.95086
1.5438
1.30338
-2.84718
4.18418
-2.30353
-1.88065
-2.69672
-2.20072
3.83534
-1.63461
0.487619
1.64055
-1.17736
1.12121
1.62821
3.01569
-0.873658
0.767761
0.111728
0.233571
3.59256
-2.02902
2.03945
3.80805
-1.6326
0.882775
0.749821
0.714158
-1.47224
2.75122
-0.103714
0.375657
-0.35608
-2.40993
-0.490213
2.90014
0.75459
-0.105145
-0.649446
0.639852
0.230844
0.501122
-3.81814
-1.15186
1.36834
2.50524
-2.29949
-0.205744
0.718113
1.44148
-0.613756
0.30893
1.14239
0.790127
-1.93252
-1.4045
4.07598
-0.0401595
-1.96725
3.97217
-2.00492
-0.863367
1.23282
0.303127
-0.302828
4.08864
-2.07389
-1.32428
0.150232
1.59397
1.21951
-1.50053
-0.744891
0.663658
-1.09178
-0.592079
-0.0231433
1.77833
-0.665822
3.06087
-2.39505
-0.481587
0.286867
-1.04084
0.366612
-1.31895
0.0991549
-4.27829
2.64083
1.04373
0.813036
-0.178007
2.16417
-1.98616
0.668735
0.390103
2.89195
1.65869
-4.55064
-0.452871
-0.0609465
0.513817
0.969967
-2.76815
3.80818
1.66734
2.9147
-2.59717
-3.86465
-0.0768634
0.00428678
0.101584
1.68239
1.32139
1.36371
-2.6851
1.63766
-0.300401
-0.114493
-1.23
-0.402597
-1.97805
-1.19327
1.94931
1.99697
1.3593
1.99668
-2.02529
0.0286043
0.775005
0.0203726
-0.254375
0.997516
-0.137966
2.82087
0.724358
-3.54523
0.776488
-0.885135
-0.904296
0.551938
0.352358
-1.35523
-0.0701516
1.42538
0.891357
2.43751
-3.32887
0.789285
1.29727
2.52363
-0.0815699
-1.04507
0.465624
-0.320934
-0.39718
0.615768
-0.218588
-4.01788
1.77731
3.15529
-2.42727
-0.728021
0.067647
-0.602442
0.534795
3.07007
-3.30369
1.9948
-0.23138
1.58203
1.45968
-0.554707
-0.0373717
-0.624159
1.0852
-0.46104
-1.93017
-0.516017
3.99105
-2.05199
-1.93906
1.1287
0.263525
-1.39223
1.70288
-2.69361
0.990731
-0.259689
1.88361
0.203947
-0.710495
4.83839
-4.1279
0.408141
-1.0323
-2.02223
0.867163
-0.046805
3.45103
-0.0120755
-3.43896
-2.16346
-1.00744
1.29188
0.101377
0.0240332
1.02829
1.2243
-2.25671
1.49509
0.0825703
-0.181669
-0.317153
0.413481
-1.52781
1.95997
0.0255086
1.07068
0.125399
-0.56171
2.25273
-0.149373
2.14605
-0.924984
-0.496699
-0.776559
1.91895
-0.438051
3.2746
-2.83655
-2.89668
-0.497962
-2.66741
5.33595
-2.66854
0.0192696
0.847894
1.26466
-0.216239
-0.0580562
-0.985137
1.04319
-3.09549
1.02161
0.528421
-0.539482
2.37233
-4.83854
1.97197
-4.50049
-2.67457
3.1569
-1.8006
1.97182
-1.18169
0.0369269
-2.10726
2.73378
-0.00337939
-0.612365
0.370656
-1.79235
-0.474483
-2.17357
2.64806
-2.14221
2.72983
5.72534
-3.78995
-1.93539
-0.819021
0.342753
0.924088
0.0777206
-1.00181
-2.96677
0.672362
0.765241
0.0199542
-0.0350438
-0.513296
0.548339
2.65201
-5.31941
0.384677
1.63162
0.220105
-1.85172
-3.68095
3.2429
0.596174
0.1463
-0.742474
1.56397
-3.83726
-0.563542
-0.011385
0.574927
0.77754
-0.181366
-0.035365
2.6763
-1.91179
2.10169
1.9192
-1.12991
-3.9547
1.19822
-2.36123
2.02777
0.33346
2.5878
-4.16003
-1.92342
-1.04805
2.97146
-0.127756
1.58583
-1.15721
1.06376
3.9749
-0.62484
-3.35006
-0.00337355
-3.5983
2.5308
0.271306
1.42927
1.17897
-0.618249
-0.0144708
0.604258
-0.863943
-1.43874
-0.0892308
-0.0190055
0.108236
0.0196937
-3.29428
3.27458
-0.568711
1.49858
-0.929867
2.07359
-4.36707
2.29348
-0.218451
-1.95787
-0.119231
-0.311729
2.39244
-1.34707
-0.666555
2.01362
-1.37492
-1.24225
1.70608
-1.03688
0.627504
0.206331
-0.833835
2.31258
-2.49059
-3.08861
-0.382196
-0.273502
0.655699
0.932079
0.531883
-1.46396
1.21375
-2.88925
1.6755
0.257928
-2.04543
0.648187
-4.35418
-2.64287
-2.14153
4.78441
-3.37771
0.133811
3.2439
-4.08997
-2.84988
0.197524
-1.23001
1.19966
0.0303513
-5.17499
-1.17154
3.99241
1.49647
-0.686991
0.443915
-1.22047
-0.525603
1.82287
0.584257
0.396655
-1.47487
0.0697367
-0.633534
0.563797
-0.460417
0.0148292
-0.431003
0.49865
-1.2285
1.76536
-3.87764
2.22297
1.65467
1.45217
-1.17007
1.69599
0.788818
-0.0342273
1.86235
-2.34295
-1.79081
-0.949475
-2.03825
0.63212
1.40613
-0.135734
0.558097
-0.422363
-1.70476
1.75201
-0.348256
2.66408
3.07404
0.276711
1.68577
-3.06069
1.51944
-1.89712
0.377683
0.462755
-0.0393664
0.0510585
-0.0546107
-3.49727
2.12684
-0.198206
1.32691
0.0484136
-0.774696
0.726283
-5.56147
2.1192
0.52911
-1.19262
-0.732577
-0.0735088
-0.830804
0.904313
-2.09575
0.748677
-3.7495
3.35314
5.97615
-2.10555
-1.03549
0.967744
0.0677456
0.58133
-0.433592
-0.598586
-2.73032
1.50303
1.22729
-0.57713
0.516183
-0.055237
1.35528
-1.30005
1.41516
0.579639
0.511337
0.383982
-0.895319
-1.10922
1.13473
0.741521
-0.377826
1.60937
-3.62713
3.59596
0.245658
-2.19396
-0.0426624
3.30716
-0.126589
-3.18057
-0.473149
-0.463378
0.936527
1.66244
-3.55176
0.350872
-0.98066
0.629788
-0.211316
0.0957721
0.115544
-3.85119
3.93672
-0.0855293
-1.84405
2.23374
2.12689
0.47557
3.98227
-1.50352
-2.47875
0.0680832
-0.299641
0.231558
-0.74962
-1.23403
-0.0329197
-1.16189
-0.0721434
0.261993
-1.14631
0.884315
-0.361512
3.36475
-3.00324
-2.81448
0.839672
1.97481
0.933276
3.09754
0.084348
0.245214
-0.329562
2.08761
0.871529
-2.95914
0.130285
-0.107491
-1.46251
3.19322
-1.73071
-2.88703
0.477104
2.25913
0.940744
-2.86416
-0.00909642
-0.480657
0.489754
3.86856
-1.23355
-2.635
1.6738
0.879827
-3.73946
2.00345
3.60912
-3.69348
-1.76667
0.2715
1.49517
-0.0147187
0.271813
0.274716
-0.546528
-0.216735
-0.501243
0.717979
-0.0419689
0.50703
-0.465061
0.304335
-0.365944
0.0616098
-2.04565
4.16159
-1.11316
1.09322
1.10263
-1.15786
1.20734
-2.04819
0.840849
-1.97187
-1.49867
-0.0217744
-0.0916529
0.0402154
-0.00709708
-0.0331183
3.46544
-1.69045
-1.77499
0.262969
2.24227
-0.914022
-0.518995
-2.12071
0.377684
2.04464
1.51079
-3.55543
-0.085396
-0.0281504
0.113546
-0.0299592
1.37703
1.74213
-0.941858
-0.800271
5.17048
-2.95474
-2.21574
-4.7983
1.01026
0.712963
-5.91774
2.49227
3.42547
0.937178
-2.86804
-0.753623
0.47344
-0.0460406
0.0970991
-1.14511
3.18243
-2.03732
0.576989
0.103103
-0.0823806
0.512824
-0.897394
0.843233
-0.612598
0.692249
-5.74481
5.36499
0.379825
2.18734
-1.5733
-0.614041
1.02292
-1.34431
0.928515
0.20553
-0.908169
0.740481
-0.2551
-1.26688
1.40056
-2.40577
-4.18398
3.47348
0.000204139
0.133943
0.532604
0.244937
-0.178088
-0.0332283
2.99473
-3.11347
0.118738
3.54418
-1.67748
0.818421
0.859056
0.404108
-1.31277
-1.64336
-3.21123
-0.923573
0.818429
-0.60848
-1.04984
1.65831
-2.90069
0.678993
0.39723
1.23146
-1.62869
-1.34909
1.35315
-0.603275
-1.69033
4.5772
0.134173
-2.83664
0.779415
-1.94164
1.16223
-1.03949
1.32275
-2.26561
-3.29586
0.052888
-0.650545
2.12723
-3.19416
1.52584
1.66833
-0.127529
-1.19696
0.166095
-1.39636
1.23026
-3.72951
-2.10863
-0.621964
0.610579
3.13999
1.88542
1.23114
2.35015
-2.31339
-1.71304
3.21327
-0.229456
-2.98382