/*--------------------------------*- C++ -*----------------------------------*\
| =========                 |                                                 |
| \\      /  F ield         | OpenFOAM: The Open Source CFD Toolbox           |
|  \\    /   O peration     | Version:  2306                                  |
|   \\  /    A nd           | Website:  www.openfoam.com                      |
|    \\/     M anipulation  |                                                 |
\*---------------------------------------------------------------------------*/
FoamFile
{
    version     2.0;
    format      ascii;
    arch        "LSB;label=32;scalar=64";
    class       volScalarField;
    location    "5.3";
    object      p;
}
// * * * * * * * * * * * * * * * * * * * * * * * * * * * * * * * * * * * * * //

dimensions      [0 2 -2 0 0 0 0];

internalField   nonuniform List<scalar> 
13486
(
20.6263
16.6647
4.67141
-11.7553
8.58839
-0.0535277
6.61153
12.5272
15.0623
8.98908
-48.9128
6.37834
21.5524
-0.130593
8.00973
9.46742
-35.5303
-43.1291
7.87729
18.8107
-10.6622
21.369
16.3709
-12.5306
7.7975
-10.3076
-38.6709
-1.53972
0.140144
1.05337
-13.7051
6.76098
-10.2162
5.41053
12.5704
0.101295
-0.863198
17.2615
-72.875
15.0976
2.49647
22.2342
1.02091
7.9438
7.79538
6.26278
-31.8929
0.184695
-0.899217
-4.19979
12.6115
-8.96675
3.4074
17.5926
-59.1895
8.88919
1.68619
-14.3607
-9.15189
-1.35472
-57.6998
-0.893616
-22.9132
-10.6416
-15.2926
-0.801565
-13.2342
20.5893
14.9784
-6.13875
-13.4545
-59.7657
15.3176
-36.9775
-0.5676
1.65899
0.0857051
7.86232
-31.4059
-10.7839
0.051187
16.8578
-23.59
5.03903
20.6989
10.6389
-8.86767
11.9856
14.2525
10.5445
4.00166
11.3146
19.9005
17.8699
15.3204
0.0807009
-39.1786
-15.71
15.094
-35.4306
0.131646
0.426233
-15.5449
-17.5079
13.5041
-35.0512
14.4102
-74.3611
-31.6728
10.2605
14.4783
7.28087
17.5735
1.29646
23.8504
14.549
8.06488
6.08937
15.4114
-0.30668
-46.9312
-55.7531
15.9557
-63.8079
14.2406
-10.8348
11.9192
4.40856
7.14224
-16.4955
-9.37556
-32.83
-39.8574
-36.2378
13.1503
11.7942
24.4058
10.4486
-0.446138
13.018
-7.6512
3.88569
6.24703
-11.7551
1.91773
-23.4345
3.95134
21.0565
-4.60596
0.0949546
8.59978
7.41544
0.0524265
17.2175
4.98013
4.6581
8.48345
1.66208
15.9013
1.00403
-2.96274
15.901
0.389585
22.0515
-10.7293
-2.50343
1.73829
27.5833
4.48537
-36.3477
-40.8142
5.04024
10.1292
9.99998
0.0667163
-32.7963
-1.3854
-9.73804
14.4969
6.24615
14.5103
1.1155
8.70583
-41.4813
5.60283
-1.50845
0.0964339
2.98202
2.9286
15.5202
-0.492862
3.74904
-18.2176
18.9608
-5.19475
-47.7684
-13.8971
-2.50948
19.074
-1.60434
-14.3834
4.28098
17.2367
6.91929
1.56885
-2.0346
-25.6015
15.9703
-16.2214
5.55643
0.630135
-11.6195
18.5953
14.39
-0.0839094
4.03999
0.261267
10.7394
19.0489
-14.7083
-35.2285
-4.80756
13.2622
-3.01235
2.07732
20.109
-2.18678
-16.059
8.55739
-13.353
14.3892
-8.66574
-8.00293
22.7328
-12.7498
19.5343
4.80727
3.98639
19.764
8.95444
-9.7193
10.0227
1.41649
18.7693
-106.88
16.2284
9.39953
-5.84284
-36.3465
8.78303
-28.3599
24.0753
13.8827
-62.9836
3.94893
-39.5631
6.51324
2.98025
2.07383
-9.541
15.4957
-105.548
8.02519
-37.269
8.63594
-42.0796
8.21138
-12.8331
14.5472
-51.8915
15.3983
14.0778
-0.107662
5.27887
20.2072
-3.90974
4.18563
-54.5475
-46.8055
3.72986
-54.9878
13.2749
14.5633
-21.2865
-54.2264
-36.1564
-8.27054
6.82278
2.2909
14.588
-12.4502
-17.144
15.3192
13.1879
4.92893
2.78315
-2.91881
5.45672
14.8958
4.16081
0.485393
-26.0703
4.1995
7.05051
-1.20081
6.16455
-5.29736
9.42996
-14.5681
-0.481545
-25.4972
-11.3171
0.956705
7.42294
-43.9882
11.9596
-12.8227
14.2437
15.9881
6.67106
-0.651419
-29.3615
14.3562
17.9606
24.5848
3.59942
10.7413
13.1118
5.5071
10.2419
12.0771
10.9079
2.82138
19.1798
5.71907
14.6794
24.6969
7.53253
9.24293
-104.587
10.587
17.7495
10.0204
8.8385
-44.085
0.0298964
11.532
23.829
-14.7783
-22.2462
11.4388
5.25084
5.24744
-40.1165
14.7973
-0.40551
-37.972
11.9265
-17.3032
-6.84912
7.94731
2.2818
15.7669
14.1159
0.734181
0.0303445
4.17401
-34.3587
18.9752
12.0672
0.776371
11.6306
1.89926
-32.2781
0.546348
12.7527
14.3632
-57.1831
-42.5445
-22.8774
14.4128
10.4
21.5548
15.7101
-33.2107
6.66648
2.46869
9.06869
-35.6616
-10.3241
18.3206
-0.592398
6.69525
19.8114
20.3078
0.0487092
-12.1999
-31.2212
-35.5215
-8.44427
-35.6881
5.90246
13.9997
-2.98653
6.64286
-6.1036
17.7351
-9.43485
12.0168
15.9342
8.70295
-3.68523
-2.39518
14.903
14.2885
18.3594
-40.6099
8.84669
-36.3726
9.10245
14.4813
6.49232
23.8842
9.63327
-2.72455
3.49243
4.13096
14.5435
-38.4113
2.2872
21.2517
14.029
6.54779
2.31649
7.45075
-6.18312
21.4421
-26.5773
10.1739
20.2699
-34.4643
-0.510243
-36.4655
-2.45954
-6.02902
17.0814
17.4467
21.3064
-23.2462
-0.662968
-44.8304
9.448
14.4399
-3.83872
-7.15072
13.9882
-27.6195
-32.7831
-22.4024
-22.7343
1.58987
17.8819
0.0685883
2.52801
-10.3705
13.7096
0.299474
25.9467
20.0727
15.2422
11.8356
0.184123
0.0760866
24.5992
7.8385
-0.20667
-2.89278
14.7396
-35.8614
5.29052
10.3909
-0.731038
-3.52622
16.1827
-12.3857
-35.4222
9.74428
-10.9982
27.3548
9.85695
12.7014
15.627
-34.2431
5.14178
22.409
7.92296
18.0755
4.39731
5.0384
-13.3169
-9.01784
0.931757
-34.8652
14.6233
14.4309
-28.5214
0.0884432
-0.41559
20.4862
17.1354
7.44929
14.6739
12.2019
-3.28629
8.49849
12.8102
-38.1393
21.2298
0.34222
-5.93137
22.1667
10.4749
-0.125766
11.5396
-14.0307
-24.0951
8.41665
9.65078
16.086
19.9887
-43.0821
7.40176
-42.9304
0.120116
19.4504
4.74866
-41.0715
-16.211
5.06107
3.24352
12.358
-15.7057
-7.09716
14.685
18.9735
-34.6489
15.4852
-23.6967
-35.8368
-10.4543
6.4121
-46.414
16.0964
5.24713
-60.5549
13.2116
16.8984
-9.71023
-42.7204
12.7732
19.5014
5.53138
20.7587
4.99802
9.86201
4.24706
16.0088
1.39353
19.0823
-39.4815
6.22035
14.2058
8.13125
-2.97839
14.3756
-34.8
5.43382
17.7648
21.3024
-18.6101
2.62228
5.10718
1.34775
13.9948
10.6864
5.17219
-43.2713
1.74978
20.5071
3.57204
2.69106
-18.7
21.3644
-4.43504
1.1441
13.7723
11.4388
-8.20753
5.03465
12.7093
5.70741
-4.24603
6.11886
-9.52118
20.8946
14.527
11.533
12.3895
-8.80473
-8.47056
23.1329
5.35183
23.1678
-15.2011
14.5812
0.101085
-37.3699
9.52267
8.68967
24.1639
-20.2325
10.1105
10.491
-15.6242
8.56601
-29.127
-2.10686
14.8326
-42.88
-3.51462
-6.67302
1.63816
8.98546
15.5692
0.025517
22.5505
14.9823
0.436494
-34.9749
0.950195
5.4896
-52.355
-0.239159
-35.2031
19.4854
0.00411135
1.5449
-57.629
21.6596
0.114004
-2.85758
22.1464
12.7059
-38.744
-27.638
11.8633
2.64947
14.0712
1.43285
-18.5324
6.03103
14.1446
5.14721
13.294
22.3974
1.22915
-21.7514
14.3136
8.27165
-0.283588
11.2495
10.827
6.95407
-39.8194
5.22009
-60.6007
5.14864
19.413
5.23935
5.44562
5.01814
1.30633
2.30362
14.5738
1.3409
13.6195
14.5106
19.2349
-42.0996
-5.32449
23.0028
0.735073
-26.5014
15.4635
-5.32373
15.9807
1.88169
13.8183
-5.10394
-36.1278
-9.70179
0.0404393
-35.3502
8.20009
23.5981
5.53614
-21.5831
-2.7063
14.754
-64.3309
6.95828
-61.3985
23.3445
-38.8663
10.1147
-4.21019
8.75277
14.2694
7.75846
-20.5059
-10.1011
21.9631
14.1927
7.21866
14.0514
2.2008
12.5745
12.2794
8.90415
-32.3309
6.46034
17.5227
6.69036
-40.4112
12.3734
-23.9461
5.77312
-12.9095
15.7474
15.0702
-16.5508
5.66121
-37.0724
-9.99005
5.55258
8.20976
2.5519
13.7711
1.57433
-8.43721
16.7833
-13.6368
-17.2709
-118.724
-3.7677
-16.4601
-9.25056
-80.6553
-47.6477
14.0897
21.5687
-0.125347
-13.5278
22.1605
20.9879
-18.7478
-13.1121
15.117
-34.1417
2.33909
-80.6119
2.0427
9.01614
-35.3746
6.88909
9.94343
-3.17234
-30.9299
-10.9764
0.147491
13.2967
8.1467
11.2869
-19.1076
12.8035
20.5376
-33.8945
-44.1378
16.1258
5.73198
11.9551
-83.6216
0.849087
-20.0841
0.307855
14.8085
23.2462
16.0281
-12.1383
0.423369
14.3902
20.1171
2.94336
15.5039
14.7324
20.9568
7.07482
-61.4345
3.38796
9.28218
20.6461
5.68611
7.46871
11.8804
6.88248
6.65486
0.678021
-8.88905
13.6699
13.8871
10.283
7.48577
-29.1705
-1.20476
8.17049
9.0669
-10.1988
-1.23142
1.85567
-41.3109
-62.2532
8.06108
1.12708
-36.3276
-25.8243
-14.7983
11.1708
-44.1448
-29.8847
16.1482
-13.6986
21.3971
-16.2696
-36.4486
16.7909
19.565
0.322982
2.32415
4.05247
14.6869
9.02259
-17.0435
-6.75259
-1.1081
-40.8266
13.7967
1.59708
8.8597
-41.4513
14.8022
-38.457
1.47184
-0.349912
17.4194
-5.78659
-51.4593
-19.0152
21.2625
-61.3894
-21.7607
-45.2151
14.6981
-25.7432
-26.1739
6.43103
8.83952
-32.849
11.229
-15.4306
12.4122
13.9296
16.7132
7.10643
-9.79458
3.7902
11.0748
-1.82773
17.0264
10.6953
-13.0502
-64.195
7.99201
0.932725
-0.729222
16.1006
6.39469
7.48067
14.2812
-42.3715
12.7637
23.919
0.631492
-12.7514
10.0662
-2.69717
-19.698
4.86746
-10.6096
14.7231
1.2455
0.745692
1.24866
-33.359
18.1203
-37.4456
0.0271087
14.329
-3.31238
19.564
16.1848
18.758
6.58904
10.1136
6.57539
4.55823
11.4858
14.8564
-7.99789
7.96659
-28.6954
-4.20982
-54.8893
14.9213
-20.0714
-11.2524
-38.6603
-6.97976
-0.681138
14.3934
0.069813
3.35627
-35.7674
14.3655
23.6368
-3.5136
-43.2984
8.58303
-13.1495
14.7077
-0.0271716
-106.818
17.1601
0.238437
22.4547
11.7336
14.2871
1.83013
18.2816
2.39437
16.2519
0.325539
-10.162
-1.36621
-20.968
11.1747
-20.2257
-4.7824
21.383
14.3281
15.2801
19.7095
15.6132
17.3787
10.0997
15.2366
14.3446
14.8822
7.42573
-2.26806
-3.72985
-4.26111
5.38386
16.1217
-36.5577
23.3834
-8.71125
1.26539
23.0539
19.8119
7.73733
-17.3313
15.1444
8.07729
0.894972
14.0902
-36.8235
-3.09487
14.2579
19.314
-100.987
15.8799
18.132
0.0789017
-2.8181
18.1209
8.80392
-0.592681
-44.9114
4.98293
-8.54425
13.3665
12.2705
-4.75439
-19.4978
-0.725918
6.09606
-9.31204
6.53358
20.0965
-10.6187
25.563
14.9512
7.75264
16.3032
-39.2357
-34.055
-23.6439
14.7316
-96.3019
-35.9755
-15.6057
7.51098
8.92563
-93.2471
10.7606
-35.1714
9.28128
-47.9931
-42.4241
12.9869
6.71727
18.3177
14.6961
14.9205
14.6453
7.68628
-7.54156
-5.85589
5.12694
-17.2433
3.27997
12.8355
-15.2498
-7.00597
-4.32702
-3.81308
-63.3398
12.0717
7.59388
3.69908
-2.1453
9.2327
-4.79173
-6.49885
4.8487
-16.6652
15.8721
10.8561
18.0856
-36.8135
12.9987
1.39922
19.396
2.42087
8.06433
-33.3236
-0.0165881
22.0769
22.9299
12.8979
8.5274
10.1421
13.8981
22.3258
10.8574
-9.22074
-59.0042
5.8326
-7.0093
-29.1547
14.3196
14.6097
-26.2436
4.50861
12.2956
14.1307
24.164
-22.6904
11.4532
-35.4315
3.3718
19.7644
8.19644
12.8338
-20.3797
9.29259
8.41874
25.0886
-4.18742
-3.45471
7.65751
5.00188
-45.7641
-36.2597
-37.1482
15.7142
1.64586
8.78539
20.9532
19.4439
-0.266911
-19.778
-4.63965
3.63858
16.626
14.4564
19.3368
11.0016
-45.3793
20.1712
13.5212
-15.4859
11.8756
14.624
17.7567
-40.9258
-7.05318
0.177145
12.2915
21.8742
10.0733
-6.12705
-8.55099
24.2251
-36.6375
-7.54468
22.6525
12.6629
-11.2287
12.6649
-12.766
9.78409
-0.573738
-37.3524
-96.8466
-27.8572
2.15525
6.94142
-35.0087
-35.465
-26.6374
7.59653
-35.5566
-29.7567
16.2313
13.2653
8.19993
-35.3171
6.14261
3.42121
8.11013
25.395
10.4946
-4.94103
12.6585
1.20651
-29.9897
12.28
12.0711
14.5941
25.7384
0.315211
8.38022
-11.9162
5.64276
10.8765
14.286
-2.94577
20.3349
10.5297
15.2057
-14.1502
-10.8022
2.80563
15.1276
14.4629
15.4089
14.3219
23.6127
23.2803
1.6686
12.7107
17.899
-4.67111
19.3503
-15.2423
22.9846
19.2672
2.05994
16.0143
7.70225
11.8459
3.96293
14.4762
-7.06014
13.6332
7.53616
10.2987
0.0771793
14.4955
-10.4519
5.07293
22.2766
22.1526
10.9955
-35.5766
6.62677
1.7257
8.12409
11.6972
20.2132
-36.2427
14.8958
14.4432
9.3435
15.0805
-46.189
-21.4447
-5.48704
24.198
7.29975
-2.76266
16.1921
-0.15353
1.60609
7.56662
5.60923
11.129
6.45899
1.37457
11.0704
12.2795
10.6001
11.6031
23.4066
19.6278
17.4978
23.895
22.0128
8.93013
-13.4399
-35.2691
-10.0574
22.0333
-16.3744
15.0044
13.7137
-38.7918
9.39091
16.0704
-15.8255
9.50991
9.71643
26.0197
-40.3928
8.75401
-10.6821
16.2482
4.74121
-12.8637
21.7362
18.9291
14.5465
14.6885
3.07447
6.82169
-34.6806
23.207
0.607031
24.9228
-1.39944
-8.28294
-36.9066
8.37218
-37.0511
1.13202
-39.9506
5.702
-14.1445
5.61783
-13.9541
0.011242
-24.6016
-38.2346
-1.54436
-17.8676
-2.51442
3.1679
-9.45571
-56.3027
14.8372
15.086
18.3877
14.0406
8.26818
8.33087
27.6254
14.7629
-38.2085
0.0667471
0.40088
11.1897
13.7168
20.3081
-7.82941
-7.78083
12.0568
0.00220507
6.69881
17.4617
-36.4353
-42.6405
-34.5702
23.4726
-15.7421
11.9619
18.0381
-1.58099
12.349
-11.7613
-43.4603
-41.9854
1.12314
9.99811
16.92
17.7564
-18.471
-37.5056
10.0877
-31.149
1.00555
7.18289
3.3825
-12.118
-19.1213
-16.0615
-40.97
-10.294
20.995
-10.9398
22.727
-47.8422
-19.9567
8.05592
-51.5194
19.679
14.277
16.7032
-4.07568
-2.03131
-44.2649
19.1716
-36.3474
10.7835
-58.9372
16.9586
19.6535
-76.1838
14.5789
21.9109
15.9171
15.6639
-20.7753
-13.546
8.41613
-5.65442
-46.5151
9.89509
10.7715
4.76839
-45.236
6.48145
1.27247
12.8908
11.2177
0.20922
22.9208
5.55687
0.0527288
5.20131
13.9422
-13.4507
0.204597
15.8433
-4.64863
4.57514
-0.886331
15.1865
13.9992
13.4061
-20.6092
13.4749
16.2705
16.3482
5.75059
1.44942
4.37765
13.4239
-8.25655
-37.6051
-20.7166
-14.0109
-12.5082
0.293852
-44.8776
1.12505
-35.1898
-4.97586
-67.1953
1.3732
-6.22391
6.01798
-44.2523
15.2392
27.709
5.85046
-28.1621
7.1456
2.92743
6.52986
0.567043
1.44801
-34.224
5.12346
18.5434
-0.018509
21.5976
0.689709
13.3681
12.5477
8.76075
-35.9253
9.06983
23.692
-9.10055
14.0213
13.8054
20.2582
4.79897
18.8797
15.3919
-36.6368
16.2228
-40.5431
-35.1265
19.216
12.6866
-16.5904
3.25943
18.1222
1.841
-16.3962
1.12731
1.43391
11.4068
8.22629
14.3759
13.7578
13.4221
-21.914
-1.75372
7.73374
14.0192
24.9659
-0.221082
-33.5117
-36.2108
14.513
5.15836
4.87674
7.21856
-16.6952
12.3025
-3.30649
6.68293
22.9525
6.80908
-67.6139
-13.2144
-20.4929
-6.12288
-35.3887
-9.85952
-44.1393
16.6448
8.13378
-2.49506
22.0406
0.0773866
-46.0237
-23.6879
-35.7858
15.7693
-33.924
5.52937
14.8176
-8.94929
4.84361
-68.7552
-38.3465
-15.1909
15.3852
-65.6435
-12.006
-34.6479
13.8163
15.614
-16.2839
17.8678
16.8401
20.8559
21.3648
16.0545
5.59541
24.2375
-34.1408
14.2856
5.06912
-42.0273
16.9434
-18.6014
20.8526
7.44352
-11.3642
-37.359
-33.6209
15.1993
-20.4562
-10.7295
5.12225
-5.80105
-59.9411
9.21928
3.84391
11.7371
23.455
-36.8373
-9.49109
1.10297
14.9466
11.175
-7.57259
27.3739
-20.8921
1.25866
9.89723
-10.133
13.6388
15.2055
16.6178
16.3853
-51.0556
9.65603
14.5551
6.21323
-9.68469
-0.274936
15.7359
16.21
19.1574
-8.04516
4.6898
7.96753
9.03487
1.55959
-27.1097
11.9346
-21.3626
12.5963
14.7318
-35.3422
21.5398
-15.1372
23.2463
16.4748
-63.9346
0.296495
-0.364473
8.08108
14.9974
-54.9563
18.92
13.5522
8.25378
1.2077
6.30619
-0.910623
8.13249
-35.0186
9.91328
-15.2932
13.9855
-37.009
-0.339346
5.24084
17.2797
19.6866
9.22283
-35.6721
7.59456
1.71326
5.44
8.51901
-4.43368
-7.88172
22.7533
-4.45382
-115.214
-6.65138
-37.3126
-1.51185
14.2207
-35.332
8.15306
14.9266
10.7811
15.5511
-28.5245
9.00575
22.9842
-21.7172
13.8312
6.98568
-4.80859
5.66385
6.30149
1.02367
23.3802
16.5461
-7.97258
22.8436
18.3019
17.1358
-31.0751
-37.6044
10.0661
-12.7185
-0.323249
-21.4858
-11.3684
-19.8401
12.5999
8.35589
9.93253
10.977
-3.597
11.3343
13.9852
-39.3612
15.121
9.28155
14.1309
1.05212
-0.737833
-16.5003
-35.1966
-25.3482
5.98743
13.8567
-44.5775
21.0695
-38.3339
13.7
9.67801
-5.41526
4.91999
15.2503
7.41556
4.68608
13.8014
3.75443
-40.5324
19.9579
16.6286
-7.45073
-22.3183
1.06596
12.6936
1.77099
6.76609
-17.6725
1.78845
6.74131
-3.7048
13.5988
12.3975
-10.4152
7.32913
1.41495
-9.1495
-47.0973
17.1513
-19.6244
14.567
0.0825266
12.3836
15.6018
8.64948
14.1814
2.94524
-13.9736
-9.16447
-34.8724
-19.5992
-13.5709
-43.1136
-4.45778
11.5177
1.02377
13.8893
-9.42452
-17.0706
-17.311
-16.5471
15.4625
-41.8104
14.7302
6.59131
-31.2845
-1.06667
-20.268
11.7962
14.4333
-10.5625
5.7695
-36.6962
16.5521
2.69922
6.7686
-43.3274
17.7254
9.44909
0.218603
15.4867
15.2952
17.2764
9.60636
17.1979
-22.5224
0.902003
-51.5552
13.9915
9.55349
6.75571
1.90288
-19.5461
-47.5373
9.77232
4.50258
-53.0111
22.5341
-23.4289
17.0397
11.9479
-15.8522
-8.482
2.71491
-11.4394
2.93129
5.34984
13.4419
-7.60134
14.3593
-17.9172
6.74129
-7.98033
7.5232
-22.2749
17.443
23.0505
15.7398
8.74683
3.74915
9.97877
-38.4811
-5.10365
-21.8606
6.57005
-11.3233
-66.4289
-23.6211
-2.05754
13.6963
14.3486
-22.815
6.7763
16.0049
-3.5216
-14.7782
15.2478
-12.2692
-51.7551
1.13913
-0.595303
0.0626701
21.9959
-18.1009
14.2002
-10.5185
-5.92381
-3.3097
14.7097
7.37942
12.6735
-7.70987
-5.45645
3.49151
6.78206
16.1878
13.6767
3.89792
-50.8772
4.92091
23.8765
-7.95839
16.4524
17.492
1.70317
0.498285
8.99524
-36.1711
-0.0203483
12.5552
8.8101
14.6319
-23.2679
15.4871
3.02764
19.5571
7.31032
12.7115
17.6963
11.9907
4.22192
-39.8517
5.49042
-35.84
12.5739
7.21405
17.2151
2.84237
20.7551
5.62297
21.9834
-36.9958
17.7326
-0.0176714
12.2511
-35.0764
13.7097
9.2083
6.97837
21.2921
14.1714
5.58821
-2.03893
10.3656
13.4635
-12.4629
-35.4503
11.8843
1.37351
18.1933
-17.2013
21.1654
4.59011
27.6618
21.2602
11.0718
10.0445
-38.601
2.47761
22.5452
4.64429
1.1112
4.61774
23.3567
7.87775
13.3336
19.9661
-6.26873
15.7047
8.10442
16.9657
1.79293
16.1026
15.1191
19.2773
-8.14284
-30.3359
7.2734
-21.7897
9.03939
3.15657
-3.08834
17.8998
20.0482
0.347822
5.85201
8.3629
18.2667
13.0768
14.0415
9.19381
-71.2552
-34.8788
-11.394
14.6198
-17.7821
-20.6336
6.10781
11.5272
9.32195
-2.76469
23.576
-4.52613
21.0289
5.22908
22.1149
1.43593
6.52385
-2.46705
2.63975
13.3344
14.0778
-5.20418
-26.0833
-42.1611
-14.2618
19.9566
-1.93949
1.80187
-5.66648
-42.5822
5.38039
17.2793
8.48859
-0.160495
0.531838
14.2035
24.9915
-22.6483
3.05173
14.5324
-6.36489
7.67089
-79.9902
10.7702
-32.1076
-35.6949
3.18238
-19.6554
-6.41536
2.84179
-20.0938
-17.6289
1.68179
11.4638
15.5646
12.5145
24.3043
-56.2002
22.8238
-33.9855
21.5563
-54.6731
-6.93723
23.5668
6.68442
-18.5069
14.3602
-0.874263
15.6413
-5.81249
-35.0743
5.73009
-0.887437
-3.54161
0.0671585
4.38282
6.3971
17.4458
-45.4899
6.90251
-17.2663
5.7321
-5.32672
-12.944
1.2049
-7.9474
-13.8334
18.6724
-10.0935
20.3489
8.16082
-41.2472
5.8637
-8.75847
-2.09328
12.4428
17.6734
24.4019
11.0283
12.3994
8.47491
-36.494
23.6303
25.1471
15.4525
-5.63149
-23.2409
-35.8623
14.1302
10.5475
7.88022
12.8302
-15.8089
-8.17886
-40.1805
20.8139
-10.0913
3.08716
-13.5264
14.1607
8.4749
26.9019
25.2139
13.8799
3.61118
7.42197
-26.0562
7.05574
25.7922
6.07769
-1.90724
11.5163
0.206597
5.33296
0.10159
-1.92818
6.32843
1.94981
9.2846
0.334685
5.47948
19.3708
5.06879
15.4999
-14.414
-2.18319
22.8193
-20.9293
5.41332
4.72685
6.92815
4.7839
-17.6733
3.49257
0.990247
0.247214
27.08
-36.21
-21.7946
-15.6072
-5.40715
6.71431
4.87418
-15.3461
-18.7583
0.236742
-22.4931
-7.80731
-5.1013
4.79475
4.61023
2.86934
26.5663
2.78833
7.1622
-6.35831
4.0035
-37.2464
5.9184
19.0244
14.6658
7.41716
-64.8505
14.4711
15.4885
-3.96082
-62.891
-26.9711
18.8982
-3.16313
13.2861
2.12625
21.0093
3.68411
-15.9944
-21.406
15.608
0.290784
12.7855
-6.47039
25.5758
-14.3139
-1.07953
-44.9241
7.64396
-17.3867
-7.13536
-14.6032
5.66308
7.19198
-26.3628
-7.36818
2.14301
3.10743
-7.66578
-7.82354
13.0946
-34.8144
13.4766
-14.8565
15.7972
23.4318
13.8353
-35.1329
14.8017
4.71994
3.82077
3.76588
-2.57308
-35.8987
1.67058
-1.70568
7.10859
1.59728
-4.72729
0.0755025
-33.8715
9.83084
14.2652
-5.34766
-19.2121
-2.40852
0.0932987
-56
10.4541
-21.6475
-19.7772
14.3846
-9.53028
8.90287
-8.04034
-38.7785
-44.7125
-57.4211
26.7237
7.15474
-4.6053
6.48753
22.325
22.8734
-17.5688
8.25396
14.1972
-7.96367
0.950113
22.7501
10.1753
12.8962
27.3427
-1.88771
5.36903
3.52203
20.4466
14.8046
15.0175
17.6077
10.5258
0.896899
3.32673
7.32636
6.04399
-35.5343
23.171
0.0052648
-4.17917
0.371947
-7.5998
9.37918
-13.5206
6.8448
5.37502
15.3215
15.3347
16.3476
-37.7935
20.2303
22.6481
-22.1922
11.1572
-13.3951
-47.3175
5.36849
8.81008
-6.69651
-3.73776
-1.44835
24.9856
-40.2697
16.615
14.8014
18.5015
11.6698
12.6834
-40.2791
0.736051
9.04424
-22.8947
-34.4959
-15.8881
4.52139
-13.1049
17.4775
-24.8772
-11.4993
4.11351
-35.7249
-14.8763
-35.0424
13.7811
7.58182
-12.3835
6.88965
-18.7088
7.61887
-24.1587
-16.0644
15.5608
-44.0826
23.216
0.234323
24.6961
0.0126595
-15.0466
5.77087
12.6021
13.3062
-22.2791
6.48082
-0.637314
5.92962
11.5176
27.7322
18.4729
7.82185
-2.77083
9.63011
-65.6645
16.3353
-65.0845
8.89859
-12.0713
-13.4407
-38.0382
5.91735
0.843256
-41.771
9.72097
11.2552
22.4256
24.029
-35.3105
-35.8655
-6.471
-9.59776
23.3678
4.9244
-2.6981
6.83396
10.6972
-16.5575
3.23593
3.28229
-3.88698
13.4731
-17.021
5.23926
-7.64542
-6.75151
-19.9962
-1.50164
-20.0394
-17.7348
15.9961
-19.9527
-14.6584
7.13631
-27.2334
25.3183
11.1743
13.4331
-10.9808
9.63069
1.0022
8.46395
5.22631
-15.137
-36.5539
23.2916
15.3806
1.42976
-36.1851
26.3373
-15.7018
-38.7622
-11.6244
9.00794
-18.2661
-14.6602
20.4891
0.813832
13.9775
6.48277
-12.1029
2.31945
-2.96299
9.54744
-21.2637
1.71931
5.62687
14.8185
-21.2193
-37.1454
4.48676
1.7872
-10.9454
-10.1822
24.7838
9.76547
-57.4647
8.67279
4.85375
21.948
10.0089
-37.0542
9.7554
17.7097
15.5098
-1.44882
12.7805
-28.1574
23.1463
0.807679
14.5671
-45.9097
-0.949441
0.19764
-12.5202
9.51716
5.76011
-36.6507
-20.6905
16.9843
-18.1166
0.596591
19.354
11.5285
18.9088
13.293
-5.95868
0.13732
1.98459
14.8
0.0613429
17.5275
11.7811
22.9074
-13.5895
18.4812
7.85776
23.1303
-11.4203
-6.01259
23.6144
-13.9535
11.4405
-40.3721
20.6765
22.8002
15.5283
-16.4415
14.0944
18.2316
-6.72681
7.03345
-16.4988
19.2153
-14.3745
-9.28709
-35.4752
-34.9101
17.9478
8.00598
-32.8648
9.87006
22.7453
-3.71498
-0.0579112
-34.2824
-7.53229
12.451
-1.58668
13.6259
14.3185
-31.7453
25.5083
2.8641
19.7187
19.665
3.81252
-0.500943
13.5286
-15.1016
6.03558
13.1828
11.9636
-2.83953
14.362
-10.8364
21.8323
15.3602
8.25562
1.36839
15.8469
-16.7376
9.36491
18.5074
6.2683
0.386821
18.0576
15.6316
-4.44584
-36.1039
11.6118
16.2052
23.0445
-37.2392
24.3157
24.5132
24.6192
-56.6037
17.6881
-46.7502
14.3824
18.7595
18.2905
16.0887
20.2346
26.8488
12.5706
-37.429
2.24671
-35.8943
26.6748
10.0504
-24.6344
-18.2072
13.5706
20.3387
14.4061
7.6611
3.40793
20.1662
-20.7413
15.5908
-18.9166
7.08953
-9.85757
5.26867
11.2773
-41.3627
-40.2427
-3.69521
3.09288
-113.445
17.3983
-0.697281
5.44627
14.2616
-31.2842
9.71588
0.130236
-27.445
-44.6307
-36.6743
19.4821
20.7444
-14.8472
9.7158
18.0755
16.9125
0.170524
-29.904
15.9428
-35.7574
19.1742
-24.0355
18.6944
9.59787
3.26158
17.5639
11.5172
18.4641
7.83907
7.36887
0.162683
-35.9539
-37.7882
-20.1174
18.1795
-32.3957
-16.475
-25.7607
20.0703
18.2792
6.26174
12.0191
19.9848
-16.9971
14.4962
-23.38
-2.17164
14.4353
-16.2807
-39.0994
-9.25893
-35.0918
7.3779
-61.9639
-21.469
-34.9801
-36.5354
12.953
23.2958
25.377
22.207
-37.02
15.6684
-47.5014
14.1916
19.8515
3.39679
17.9094
-22.7472
7.74135
-1.04006
0.705092
19.1642
-5.7558
16.3665
-37.1477
-1.50077
-34.6431
16.4415
16.2905
14.175
-42.4966
14.3995
-7.28719
-33.0591
-33.4547
7.43751
23.4526
-21.2859
-4.97883
-19.6505
14.6314
13.716
0.612547
9.36487
-40.4556
20.2373
19.0725
-15.6283
-0.867104
19.8148
-17.4592
-61.0332
1.62099
18.3098
20.2861
-44.1489
10.9073
0.349682
22.9177
-32.3563
-14.5094
0.776857
21.6433
1.51003
1.22131
-19.7088
19.0359
11.5139
18.9483
0.39472
-18.8871
16.1248
26.1885
-35.2436
13.1892
1.27028
-30.8181
1.37265
7.80125
-21.7059
10.6294
-10.7353
9.72281
-16.7003
-4.5789
17.623
20.4139
14.3218
-14.0619
-12.4344
16.4451
-39.1166
7.34031
-3.43954
9.45242
-35.8913
15.2212
16.5616
1.1189
15.608
22.6747
-25.435
12.2034
16.2801
-34.0035
9.28753
-3.01011
9.41191
6.44615
11.5147
0.114269
7.53494
8.52982
-18.0109
19.4197
6.9229
1.0772
-19.0348
1.13014
14.9497
-39.4864
24.5527
-41.287
-33.9106
-2.81726
17.8292
16.4173
18.7208
-37.8392
21.9082
-33.8444
11.8066
4.32782
-28.2502
13.2548
8.98568
7.15582
11.2609
-33.7283
11.8798
-35.2547
-18.0294
-0.0876959
-21.7592
-24.1477
13.3556
22.4008
-2.0991
-47.3963
18.0628
-18.7056
20.5982
7.23888
1.90179
9.66177
14.3944
9.90808
-18.4278
6.93369
1.46564
4.87512
6.29503
-31.5426
-19.2574
2.58163
9.27299
2.17258
26.8436
15.6706
14.4303
20.7865
3.70636
15.8714
-19.2145
-33.8395
-23.026
14.2634
26.2251
14.2501
-6.9109
19.419
13.7322
14.079
-13.7871
1.18204
9.92464
24.6998
5.08787
-4.36191
19.4115
19.7961
15.1693
14.893
17.3333
11.8907
-7.37997
-35.9363
15.9879
-37.7216
-36.1239
14.5115
-27.1381
1.18269
5.89046
15.5982
16.0142
16.4647
0.754018
18.6538
19.0112
5.40092
17.0138
15.3761
14.265
11.6311
10.4124
9.64103
4.452
17.8913
16.8443
-55.8393
13.6053
0.598109
-5.16424
22.2258
17.4742
0.276145
-45.4461
-9.90443
17.8846
11.2567
5.38543
-12.3814
5.66433
-19.3306
5.91375
-27.5661
-0.193427
11.1109
-44.5669
-21.5617
-42.1139
21.1832
-21.2672
-31.4492
-30.5217
22.4892
-24.1038
4.58107
4.18432
-34.2883
12.0086
13.4324
10.1445
20.1027
12.7613
1.84102
-35.5067
-42.687
0.751507
16.3051
-36.7887
-45.4463
-31.9583
-18.668
-35.248
-26.8566
-21.9118
9.4152
6.12082
14.06
18.2326
-20.5541
-41.1508
20.1712
16.0798
-43.3743
0.85432
-37.2515
10.5373
3.87013
10.1359
12.2112
-15.4135
-22.5689
-19.4154
5.10123
-34.0911
-35.6224
5.49064
-27.2137
-35.2736
-33.9082
-38.6335
4.96577
-34.1409
9.66265
-44.4005
14.1143
12.7199
7.44125
17.9952
-58.3236
22.5174
-2.49252
2.16678
-8.70436
14.9049
10.7702
-36.6045
-34.776
14.535
16.8647
23.2785
-47.4949
-35.498
-50.7346
8.02548
0.310712
-40.8039
6.54031
-36.3155
10.5287
-47.046
11.4722
3.88015
4.11435
20.6545
13.6787
-5.18141
-4.59474
-12.7069
-36.278
18.1805
25.3993
-39.8026
17.2328
14.3371
0.0697892
-2.73824
17.5957
16.8965
-23.1757
-26.3845
-24.5195
-57.9684
-8.03448
-37.713
-6.64981
10.1389
-109.591
15.5921
-45.5393
-33.5801
13.393
-7.06245
-35.1992
2.2569
11.6321
-34.5332
-3.66223
-32.2501
-41.4969
-35.5939
23.6145
-34.987
-0.514435
-49.4136
15.8308
-34.0079
-59.3369
-19.7856
-54.9534
-0.411539
16.3906
0.162807
-39.5446
13.6086
0.0134158
-10.6717
-28.4494
-42.0143
11.1989
12.7293
14.4627
-31.1907
20.5469
-14.3277
0.302227
3.55314
-17.4259
-39.5607
-40.9253
-18.4464
4.47557
6.6599
-13.1429
-0.911674
-8.41645
14.1364
-64.9264
14.3794
-34.6835
9.37237
7.27142
-12.0511
-73.8065
27.7761
-3.07871
-33.8111
-28.5673
-7.17191
14.2053
-34.2222
-64.9258
1.5148
-30.7409
-46.0013
-36.4961
-37.4981
15.581
-36.2408
3.40559
-30.9978
1.07857
13.6933
3.63883
8.05215
-2.7387
18.3465
-35.0523
-13.6886
19.5343
8.40515
-34.671
-0.900312
-29.4451
-7.39507
-1.78936
18.0688
-18.6802
7.03411
-35.5937
-26.1077
-42.853
-37.5091
-36.8223
9.36764
-30.9284
14.5143
6.43887
-41.5336
21.7399
-47.1235
17.2655
20.2253
-33.944
2.80301
15.5998
13.889
11.893
-15.9338
-20.8848
-19.6969
14.3169
5.10745
-8.6085
-34.4043
9.62764
16.6163
-0.415921
-27.8773
2.19178
19.2709
-11.8539
-13.3992
-11.7654
12.3854
3.51394
-81.528
20.6071
17.4427
-20.5811
-27.998
17.8673
7.81928
0.891382
13.4686
-0.972927
-19.8185
-22.4253
-23.1128
17.0122
15.3656
7.06464
-3.02861
-85.6617
-8.44901
15.8627
-33.5051
11.5855
18.4742
19.6582
-19.408
14.7717
13.228
15.7901
16.6439
0.273884
16.7974
0.0529356
14.3256
9.15556
15.5914
-40.3677
17.6851
17.1295
12.8813
9.96066
-12.5731
11.4532
1.68059
-4.83065
18.8275
18.8558
-30.6821
19.3168
-19.9963
-36.6397
15.8106
15.7386
-18.0512
0.683518
-35.3931
-29.8022
-6.89717
-15.0266
-18.8683
-1.24241
14.0069
24.653
17.6887
-17.9685
-12.2011
15.4879
7.98231
-9.23136
-20.0367
-12.6057
-12.9052
-36.8954
-37.4099
13.6329
-40.5023
7.20945
0.694661
0.60281
-77.3894
1.1471
5.12671
9.17976
11.0967
-1.6496
7.66138
-7.77168
-67.7513
11.7076
8.36934
3.78302
6.48126
10.1606
-7.27818
6.71245
-1.62553
14.5635
13.1183
21.6971
14.4328
-16.8953
-1.4708
-2.63755
-13.2652
-9.8145
-7.93049
-10.5414
-27.9932
25.0314
4.94197
-10.0477
20.3314
-21.153
-5.39506
-5.72607
-41.4171
-35.9139
5.49793
-9.63486
14.3279
-9.59634
-15.2845
-46.952
-17.9075
-6.91778
-13.7483
2.19568
11.4351
-14.8501
-15.7196
-10.7207
8.12905
-8.27131
15.6239
20.8112
-16.7644
15.8288
10.1278
10.6682
22.6904
-24.8321
9.19181
9.87295
6.93501
19.7088
-0.838784
8.30821
-17.5145
15.5296
20.8256
-19.6945
-44.5511
-10.6578
-6.775
8.02344
-14.8817
-16.5563
-16.2937
6.73675
-35.811
6.54722
7.15862
12.6238
5.86086
-36.7131
-5.14965
-86.1517
-56.5988
22.0246
24.5262
18.7518
25.7578
12.7909
17.6828
16.0348
14.177
13.8179
-9.85765
15.2636
-1.36712
-36.8121
20.3679
8.33333
-7.81724
23.4439
1.93187
-58.7932
8.17731
7.13281
17.1551
-28.0648
13.2715
21.8736
-22.5207
-36.0949
-13.9455
11.8749
-45.6593
18.0554
0.341794
17.1529
14.2923
-16.782
16.8349
-3.52023
-37.028
-36.0095
-29.4796
17.092
-7.67833
14.2782
1.29284
-39.4954
5.11762
-65.4401
-8.35016
-16.6696
-34.13
17.3671
4.1676
-35.2355
-3.04636
9.90354
6.92116
-35.2208
7.75393
-38.0573
7.7268
-34.2259
9.32606
4.99168
9.51454
5.89394
14.4128
10.9683
5.39
-34.8147
25.6401
-6.7292
-32.4913
14.428
13.1154
-36.7171
-7.21101
-37.7967
10.2262
9.6983
-6.23838
0.727241
-0.415328
25.7609
-37.2936
-20.7105
5.37804
-0.136044
10.9564
8.64713
14.1259
9.90796
-44.1858
11.2593
-35.627
11.6693
8.56276
14.9386
10.47
0.134452
0.190145
9.28987
15.6963
6.33942
5.32823
-33.4599
-3.94053
-3.12552
12.4832
-32.8854
9.53976
-31.276
17.0261
-39.4405
-0.961059
18.5048
17.0241
8.3437
-29.243
-36.5798
15.9383
-5.30972
17.5263
8.44753
-33.3271
14.7721
6.72584
5.29702
4.4655
0.651824
-9.2063
10.1805
-11.1292
18.8984
7.59521
26.1933
1.3766
5.09129
17.1876
3.33764
7.02135
15.5082
12.8685
10.8999
-8.99062
-87.6525
14.4687
11.3302
7.90168
-41.4926
-2.0085
-40.6206
-37.2291
-0.817249
13.0088
2.19781
11.8372
1.11539
22.3703
17.9581
6.37375
12.8211
6.09255
-34.2158
13.3532
12.1058
2.46091
8.56397
17.5064
16.0499
-38.232
-28.5986
-16.1138
13.6306
8.88455
-22.9701
15.3817
-61.7153
13.7766
-21.4238
14.7812
7.58473
-34.3556
7.12341
16.6292
3.25153
15.1236
18.2291
5.85923
-1.79648
9.03209
2.58719
20.9976
-31.0714
19.3051
16.6739
-40.8498
-12.7157
0.314716
1.17903
-48.9279
-17.1099
13.8206
19.486
15.8458
19.7262
10.3419
18.2295
6.97744
5.69711
7.46408
4.75305
3.04504
13.3491
1.13838
20.4537
5.98653
-29.6826
10.726
20.1905
21.0884
-62.3744
10.2361
-13.9936
-36.4405
7.97839
8.92941
-16.8528
8.62246
21.5024
-34.1843
-27.1882
-48.8405
7.18344
4.22488
3.78822
14.37
14.6707
-6.68448
4.83999
-18.823
-42.8923
13.5465
13.4787
14.1735
9.77375
3.13157
10.6016
4.36103
-19.8455
8.53041
13.3901
10.4606
11.4171
-4.69677
7.15994
-1.04572
15.0257
-35.037
6.96677
17.6214
12.6702
-7.08532
-44.0966
-36.3921
-3.66765
10.151
5.7906
-7.23173
14.5523
10.8879
-4.16331
-1.31953
5.54183
8.21963
-25.4516
13.8926
10.0486
-1.53792
7.91054
-16.9371
9.35455
0.315734
5.28015