/*--------------------------------*- C++ -*----------------------------------*\
| =========                 |                                                 |
| \\      /  F ield         | OpenFOAM: The Open Source CFD Toolbox           |
|  \\    /   O peration     | Version:  2306                                  |
|   \\  /    A nd           | Website:  www.openfoam.com                      |
|    \\/     M anipulation  |                                                 |
\*---------------------------------------------------------------------------*/
FoamFile
{
    version     2.0;
    format      ascii;
    arch        "LSB;label=32;scalar=64";
    class       volScalarField;
    location    "8.8";
    object      p;
}
// * * * * * * * * * * * * * * * * * * * * * * * * * * * * * * * * * * * * * //

dimensions      [0 2 -2 0 0 0 0];

internalField   nonuniform List<scalar> 
13486
(
7.57476
6.98137
2.082
-1.44961
-1.61036
1.04411
-3.36113
1.38934
3.66384
4.52272
-25.6287
1.72928
7.94252
1.34279
-0.839048
4.79956
-12.8841
-0.15594
1.84535
6.94238
-12.4834
7.79774
6.84242
-7.2843
4.24344
-6.42797
-16.4117
-1.05583
0.0625154
-0.702452
-7.98497
0.604979
-4.6999
1.07589
1.45676
-0.482952
-18.1038
4.90271
-1.33635
4.13008
-8.42489
8.35464
0.909719
4.13028
4.02396
1.72929
-9.9655
0.0653516
-16.5225
-1.07463
5.09451
3.79976
1.37156
5.1346
-0.209869
-1.10838
1.82646
2.75569
-4.31951
-10.8789
-30.0963
-10.2836
-7.68311
-14.6731
-4.13931
-16.655
-1.59848
8.11556
3.54205
-1.65952
-1.21485
-0.369045
4.51533
-10.3316
-9.33771
1.89257
-8.55909
-1.099
-10.6876
-1.64567
-0.204222
7.20591
-8.20148
1.9691
7.58697
6.07289
-28.9016
4.9411
5.75233
5.2387
1.09881
0.523659
7.01547
6.94148
3.55918
-0.00145238
-16.7409
-6.87252
4.01783
-13.0461
-0.319055
1.56054
-7.8958
2.95011
6.6451
-12.9933
5.38696
-1.51689
-10.5152
-0.878254
2.51961
-0.403241
5.14947
1.53937
9.63574
2.98547
4.30792
1.26268
4.57437
-8.78334
-0.576624
-28.5183
4.05653
-1.03454
2.68128
3.44854
1.89768
2.69633
1.68167
-2.89577
3.49747
-9.43076
-9.68167
-9.98938
5.21173
5.38676
11.0182
-0.550966
-7.44898
1.87336
-3.09787
1.38691
1.25594
-1.18513
1.58783
-12.9132
-1.25972
9.23037
-1.34148
0.0372542
4.05664
-2.05395
-0.165195
7.37244
2.99402
2.1019
-2.29964
-16.2145
3.91811
0.837582
-0.369492
3.91938
0.804989
8.26979
3.59053
0.531177
1.91527
11.6036
-0.967853
-9.9723
-10.9771
3.02506
4.53831
1.29501
-0.205809
-17.1798
1.14652
-3.95087
5.35424
1.30358
3.45642
1.53375
1.21471
-19.8671
1.78471
-1.05278
0.0175744
-0.122978
-7.66398
3.45466
-11.8764
2.16168
2.39916
8.43377
2.72001
-24.6496
-3.15437
-0.500398
5.9886
0.731435
-4.59089
2.63169
4.9107
-4.38335
0.631774
2.90039
1.30964
5.30373
2.41513
1.8185
-0.508917
-4.82931
6.86377
5.40499
1.05341
-0.145522
-0.804507
5.25264
6.40259
-3.87833
-12.8389
-1.44379
2.11807
-0.525335
1.04101
6.96002
0.280665
-4.00143
1.04158
-32.2393
3.41048
-15.4597
-3.35551
8.63257
-8.46914
6.42335
0.570282
2.185
6.5412
1.60821
-4.87549
4.46658
1.66953
5.90001
-5.88043
6.12378
1.86766
-3.28585
-10.3127
4.40172
-16.0732
9.80299
2.59485
-1.24204
0.859418
-21.0536
0.775694
-0.26959
-14.4438
-4.68326
6.29649
-6.34221
-0.6343
-19.8607
-1.75672
-20.044
1.23258
-9.47883
4.45906
-2.12718
7.03499
5.37204
-0.982456
1.59071
6.97573
-2.80626
1.16152
1.0158
-0.9893
-1.25265
0.740081
2.93069
5.48797
-15.0855
-26.7442
-14.4097
-2.72245
1.5202
1.05905
4.54366
-8.04252
-10.4882
3.29249
5.23514
0.743525
0.240902
-0.404185
1.625
5.5052
-5.99057
0.83675
1.07842
-0.936102
0.527121
-13.8498
-4.17976
-18.3642
1.95729
-30.618
-13.0617
-8.61698
-1.59831
1.89767
-0.135708
-32.5241
5.50795
-9.31197
5.80184
5.39512
1.11485
-15.9607
-12.9809
5.3347
7.04209
10.7705
1.04957
0.847109
2.79586
1.55546
0.386177
4.96624
0.0574987
1.0882
8.10069
-3.91937
3.15836
9.83287
-1.96306
4.29228
-7.46029
1.31963
7.02026
0.0689233
1.14393
-21.7412
0.0401074
1.94546
9.34079
-3.98443
-10.493
2.19385
1.5461
1.59373
-17.345
5.46308
-2.69533
-10.2916
1.86761
-31.4454
-4.41836
1.83197
1.18298
6.2025
5.39119
-0.879552
-0.0503662
0.433539
-9.00427
7.02585
1.98877
0.809851
2.07041
0.951305
-18.1381
1.31796
5.15815
5.39552
-9.95753
-31.3225
-6.47311
4.28006
-0.234033
8.32644
7.24477
-9.29703
1.37848
1.96901
4.21787
-11.5255
-21.8232
6.70163
-1.34063
3.54296
6.78091
8.4605
-3.99635
-1.11464
-17.386
-11.8225
-3.03162
-11.5922
3.90054
3.6407
-18.5636
-2.82889
-8.55724
6.83427
-3.77243
2.33376
6.67647
4.1126
0.342596
-1.68519
5.53877
5.36434
8.28967
-19.6703
-1.63533
-10.329
1.59514
5.36908
-0.825607
9.4087
4.42386
-0.106874
0.0783799
2.64365
5.51398
-16.1532
2.22562
7.74051
3.70685
3.50435
0.976638
-2.93476
-3.66551
8.38764
-11.1786
1.44133
7.985
-10.8783
-1.01145
-10.0203
-1.80238
-24.412
5.30348
7.94911
7.84663
-6.66485
-11.0751
-22.2308
4.35506
5.90113
-1.02714
-1.40133
5.37488
-14.4195
-16.9365
-17.28
-12.0748
2.18949
6.00984
-0.250017
2.27202
-7.96042
5.55493
0.0731366
10.7932
6.98851
4.31068
0.855482
-0.726456
-0.00463671
9.72972
3.29844
-5.99098
-0.0487924
3.20623
-14.189
1.59457
4.595
-4.60119
0.0327495
6.8307
-3.78552
-12.1079
4.34267
-20.2692
11.5685
4.39412
5.14172
5.69174
-18.4855
1.69889
9.65215
-2.36563
6.98556
-5.45603
2.89771
-7.78912
-1.45256
0.994606
-13.1892
5.9791
2.79302
-16.4679
0.0453537
0.888828
8.46937
5.27763
1.58477
2.97777
2.19989
0.17881
-2.08365
5.16512
-10.6308
8.21678
-1.65707
-2.79734
8.36353
-0.277114
-0.588135
2.29558
-3.93637
-12.1031
1.83587
-1.24064
4.21604
6.99886
-19.4504
-2.93529
-19.4079
0.0152804
6.48464
2.90719
-19.8947
-9.38506
-0.450159
-12.8867
1.51512
-3.60962
-1.25001
2.98393
7.96608
-3.25654
6.15914
-12.3544
-19.5516
-2.02429
3.42578
-22.4923
5.12662
1.81529
-31.3934
2.35203
4.91455
-4.83842
-19.566
5.15068
6.70011
3.28019
7.70748
1.7639
4.5098
2.71464
5.51278
1.41604
6.39056
-17.0092
3.74984
2.61689
2.01288
-2.51161
5.26577
-10.9126
1.62653
7.71876
7.70065
1.6036
-11.3942
3.09858
1.21512
3.85635
5.28977
-5.34559
-19.5192
1.76322
7.29287
2.38225
2.3775
-11.3891
7.79509
-1.16986
1.59185
5.33411
0.624728
-1.29304
3.45452
1.35442
1.54
-22.5642
3.35552
-2.34429
7.52537
2.93696
2.44885
2.57504
-2.16218
-2.69921
9.09308
3.01092
9.06033
-4.01573
4.68983
-0.653053
-10.4282
-1.55456
4.37754
9.70761
-8.24177
-0.532585
0.572155
-4.48258
4.29171
0.712983
0.64321
3.75917
-19.7096
-2.16876
-4.02512
1.98033
0.955935
5.61902
-0.25634
8.5206
3.94896
-0.380121
-18.9229
-0.411037
3.10584
-25.795
1.48797
-13.2315
6.33558
-0.0413449
1.88493
-28.7148
8.30673
0.0906609
0.789303
8.26803
5.13905
-19.4191
-3.33133
2.20267
2.05982
2.42863
1.59271
-0.233986
3.32404
3.87809
2.96697
3.20856
8.45958
1.57551
-11.8869
5.26844
-1.37929
0.840677
1.00434
4.70656
3.69855
-19.4117
1.80692
-9.72644
1.48336
6.47253
3.01727
1.48462
1.9097
-9.89491
3.16166
6.21096
1.34145
2.22087
3.81126
7.97397
-1.0187
-0.271629
9.00121
0.687175
-13.6911
4.80841
-3.5271
6.26864
1.51766
5.32117
-19.5542
-10.1683
-6.14872
-0.18045
-12.4218
4.10329
9.40766
-0.139892
-11.577
0.0563142
6.35454
-2.62376
3.61125
-30.3933
9.61409
-19.2654
2.04995
-1.25605
4.29956
5.77735
4.28895
-5.94531
-20.1349
8.18067
5.43382
-3.10895
3.88319
-8.94332
2.14562
1.47147
4.17238
-9.30909
1.85689
6.70401
-2.63579
0.331383
1.17714
-12.2901
-0.262149
-0.711479
5.21136
6.14668
-9.46236
1.74038
-18.683
-17.4241
1.59821
0.899393
1.16794
5.31301
1.77953
-1.55411
4.66862
-4.56646
-1.37481
-0.933398
-0.393021
-10.1279
-5.28295
-8.2448
-24.7676
2.36384
7.93706
-5.14488
-1.51746
8.29723
7.56864
2.09844
-3.31066
3.40163
-9.85077
1.77579
-2.24257
2.01178
-0.940635
-12.2333
3.62408
4.52883
-0.148823
0.749044
-5.78996
1.14609
2.44723
4.48922
2.33107
-11.5618
5.95915
7.3453
-16.5475
-23.134
4.04196
-4.95771
2.52306
-2.36994
-0.460889
-12.3967
1.27405
5.42344
9.08991
5.15753
-2.4142
1.30659
5.34764
7.20195
3.05625
3.71877
4.98764
8.40814
-2.61742
-9.62467
2.31701
2.40703
8.20874
1.69404
3.82834
2.37345
1.62624
1.74922
1.31877
-2.89019
5.52352
6.33237
4.5764
3.84991
-10.1979
0.568661
1.04281
-0.81981
-2.65764
1.28244
1.59693
-26.9326
-32.9427
3.9771
-0.421375
-10.2514
-9.24144
-1.25063
0.317858
-22.1872
-15.225
5.57009
-4.91125
7.77044
-2.77662
-10.3545
4.53792
6.56927
-7.62525
2.10764
-6.69275
5.86982
-1.52084
-5.96486
-1.41929
-16.2379
0.524147
5.34098
1.79262
4.18998
-11.4628
3.29708
-16.1876
1.5575
-2.51859
5.40277
-2.1282
-27.0927
-11.3707
7.69878
-2.06729
-11.277
-25.7876
4.95681
-15.0076
-12.4641
1.80567
-0.313117
-7.06526
0.932507
-3.98231
5.80722
5.35883
4.73618
3.66561
-0.13374
-0.233721
4.86772
0.811277
4.72354
5.1933
-1.34899
-1.51108
1.09213
1.43118
-11.5636
6.06388
3.40276
-0.669947
5.40382
-0.00408008
2.28881
9.54644
1.3179
-3.89298
4.5493
-11.5303
-3.12139
1.02037
-9.66866
4.91305
1.63436
0.731533
1.36318
-1.17628
5.39019
-18.9056
-0.0859031
5.412
-11.3431
8.14851
6.21744
6.21971
1.90221
4.94997
1.31735
2.12985
0.780224
4.07354
-18.3658
1.87059
-8.69243
-1.53104
-27.4906
4.69142
-10.3351
-6.37791
-24.7526
-19.5845
-4.16736
5.59557
-1.56361
1.06389
-9.44458
5.37254
9.22715
-9.04314
-31.9162
4.21895
-2.26059
4.75787
-0.0717428
-4.77738
5.17276
4.85842
8.48468
2.40572
5.33702
-0.276216
6.3585
1.79803
6.28646
-2.40572
-4.96133
1.25048
-9.37062
2.33323
-13.2997
-13.676
7.78944
5.3696
6.24025
6.87705
6.27701
5.43042
0.955884
3.64697
5.40808
5.38314
2.2207
0.279001
-1.28996
-0.378586
1.09005
4.05405
-10.2341
10.021
-1.6468
1.62275
9.11661
7.30745
1.93189
-8.13121
4.22993
4.03494
-9.52996
2.98304
-10.2743
0.022524
5.33067
6.52456
-3.90937
3.91023
6.31205
-0.0867351
-0.305529
6.62056
1.70236
-12.7886
-20.2598
2.00234
-2.74227
5.5088
6.11896
-22.2286
1.12704
-1.61089
0.963313
2.34111
1.78342
7.96406
2.97394
10.4241
4.75836
1.87323
5.41794
-19.6945
-9.81623
-14.4263
4.95018
-3.01056
-8.95836
-1.89302
3.79054
4.46094
-7.86476
-0.234925
-8.88795
-0.414045
-2.53922
-10.5613
2.7278
1.37728
5.91755
5.49404
6.08133
3.86768
1.95795
-3.52284
-2.08939
1.82695
0.563059
3.21077
2.60821
-1.22498
-1.31629
-15.7416
0.755154
-31.7329
2.48533
4.10619
1.63577
-1.91492
1.26351
-1.30251
-3.82753
1.52461
-15.1121
3.92185
4.70519
5.41022
-10.0764
5.18819
1.48788
6.99679
2.26894
3.97686
-1.55493
1.14071
8.42083
9.91433
3.32161
-1.94844
4.58995
2.76663
8.49534
0.437876
-3.93578
-29.0985
1.68812
-0.742504
-9.40941
5.35224
4.61086
-8.04529
-5.95367
1.17379
3.82122
9.57378
-12.5065
5.00636
-11.7891
3.93069
7.81517
3.24628
2.18493
3.27451
5.39824
1.82016
10.2059
-26.0157
-1.3075
3.83948
1.5583
-22.1095
-10.1951
-0.64764
6.2212
-1.73092
-1.67038
7.5958
7.06597
2.98596
-5.48165
-20.0393
2.66432
4.42767
4.37759
6.42519
2.36029
-26.9764
6.92957
2.21501
-5.16901
1.17668
5.87284
5.32063
-30.8831
-17.4685
0.0296145
5.09724
8.06122
2.04409
0.721699
-2.75249
9.65766
-18.992
-2.94593
8.62903
5.12623
-4.41834
2.41507
-1.80906
-0.0883716
-1.47584
-19.6294
-7.47984
-16.1656
1.86643
-0.2961
-10.2789
-12.5447
-9.87665
-9.20216
-11.7153
-16.5097
7.36643
5.48973
-2.40701
-9.10434
0.77727
2.58965
1.77556
10.36
0.099005
-1.63652
5.14083
-0.59102
-16.9263
1.12946
0.964385
4.61496
10.6312
0.146632
3.23499
-7.67827
1.74847
0.528125
2.60359
0.0299684
7.06609
5.16135
5.62725
-5.05658
-1.82546
1.90811
3.53747
5.34388
3.47974
5.55295
9.70861
8.97288
-0.551181
5.15467
6.59675
-1.51799
6.28093
-0.881293
8.83115
6.17946
1.86376
6.24216
3.92776
1.20545
2.02257
5.97522
-3.26327
3.15027
-1.76664
-0.366415
1.03433
4.82623
1.16638
1.15369
8.37495
8.33594
0.99544
-10.059
1.9189
-10.126
2.82205
5.35375
7.10267
-10.1057
5.41521
3.20961
1.62798
3.55349
-23.844
2.87301
-19.445
10.261
-1.08298
-12.8739
6.66259
1.02513
1.93624
3.79254
1.66361
4.87382
-4.17612
-0.288725
2.25184
1.33794
-0.0517279
0.885041
9.2452
7.25164
5.05171
9.45238
8.06001
-0.171468
1.54968
1.07629
-2.13332
8.34439
0.750237
4.20114
2.75805
-19.9533
-0.224084
5.31597
-7.71648
1.68518
4.86901
10.757
-17.5589
1.66476
-5.7639
4.16549
2.09618
-8.77128
8.06659
6.14355
3.34945
4.93908
-1.15249
-3.26934
-12.9221
8.9533
-0.283183
10.114
-13.5808
0.737991
-10.907
-2.30256
-10.2438
1.12553
0.00379224
3.25225
-24.3575
3.16795
-9.60844
-0.0648306
-0.018931
-10.0764
-0.943057
-6.26385
-24.2472
4.09045
-9.27919
-28.0886
3.16053
3.3608
8.09585
5.35168
1.19654
1.82652
11.8508
4.07105
-16.0175
-0.269348
1.27807
4.93174
3.24803
7.08582
-2.55671
-2.57023
0.937654
-0.0806739
1.91097
7.09608
-10.0942
-21.4702
-12.4522
9.09385
-5.19157
2.44168
6.1084
-15.0614
1.90841
0.451634
-19.3349
-18.6068
0.590751
4.55866
4.83153
6.00761
-6.73293
-10.1751
-0.728533
-11.736
-1.11369
1.88499
1.16671
-1.58029
-28.028
-10.0491
-17.9036
-6.48479
7.60232
-11.3309
8.95103
-23.2012
-0.856839
0.675491
-3.08948
6.64511
2.56149
7.03287
-17.2761
-1.43552
-20.2535
6.09496
-10.0525
4.68684
-10.1047
7.43298
6.88778
-8.44274
4.98093
8.31378
4.13028
5.19122
-6.10576
-0.470717
1.16117
-3.10858
-1.1983
-0.160419
-0.196797
2.05827
-22.1725
1.75008
1.1313
1.71675
0.349353
-0.707701
8.80074
1.84142
0.0236622
1.55663
5.33777
-3.0882
0.128144
4.28476
-0.414384
2.1086
0.688108
3.29413
5.34296
5.26015
-26.8692
5.47829
6.18245
4.66946
-0.322777
1.69066
2.85944
2.88101
-2.60014
-10.0725
-9.80286
-3.85933
-2.86204
-0.208574
-0.120646
1.55586
-10.3805
-1.44626
-34.6235
1.04515
-1.8258
3.35762
-20.2962
5.67265
11.7447
3.38358
-0.213779
3.7583
2.36593
1.91197
0.612963
-0.900631
-22.0022
1.64656
6.03028
0.113457
8.04464
0.53824
5.24094
1.69985
1.32837
-10.8915
-1.93438
10.0489
-8.39118
5.3914
5.32992
7.03927
1.51683
6.10856
3.49339
-10.886
4.15619
-17.5163
-15.328
6.25618
5.12904
-5.60369
2.54631
6.67672
-8.85451
-6.54068
1.50095
1.47898
5.25983
3.94608
5.89138
2.45359
3.3342
-6.33957
-1.10523
-0.391682
5.85135
10.056
-1.3804
-17.2742
-10.7652
2.7828
1.81267
1.78766
-3.18227
1.22058
1.82608
-17.0407
0.203141
9.97151
3.55774
-1.15726
-10.6183
-9.55703
-3.88418
-11.9215
-6.16685
-22.1852
6.76505
3.94852
-1.63485
9.42538
-0.249192
-21.0335
-0.764152
-15.9241
4.18379
-9.06325
3.18312
3.51195
-37.4661
-0.298478
0.304613
-16.2053
-3.26496
6.18232
-33.2454
-6.36152
-12.7075
5.34292
5.24111
-6.39225
6.14278
5.14137
7.50111
8.1982
4.20405
1.67234
10.3546
-12.3305
3.00145
-5.1077
-29.257
6.94489
-10.0037
8.4717
3.76054
-3.36197
-8.97147
-8.58636
5.95863
-9.05304
-2.18435
-0.255092
-0.472184
-0.881188
4.3247
2.49669
1.28944
9.0854
-10.084
-6.12144
2.02299
3.1552
5.14992
-3.76252
11.5855
-1.52249
0.839366
4.96367
-2.6739
5.30441
3.85287
4.93399
4.29603
-1.28484
-0.0387901
3.8855
1.87475
-17.3723
-1.40573
3.83398
5.41403
6.30216
-16.2565
2.07022
-2.76077
4.24194
1.15824
-18.7367
5.18798
1.73429
5.09937
5.63757
-12.74
7.8777
-6.75497
9.93082
4.4857
-32.6249
0.155092
-13.8091
4.46775
5.90919
-28.4698
6.28186
5.54955
-2.15507
1.29184
1.88569
1.06185
-2.18119
-12.5885
-0.282603
-1.86594
5.35894
-9.98695
-10.9637
-0.429145
6.58701
6.65194
4.93369
-9.44398
3.84303
1.62934
1.92217
4.0149
-19.1109
-20.8876
8.84439
-0.30645
-0.653202
-2.99662
-17.2115
-13.7149
5.45197
-12.6276
1.1747
5.92699
0.939211
5.43644
-15.2733
1.65569
9.38825
-6.1896
5.81786
0.917808
-14.4874
3.21215
1.89122
1.75638
9.48247
4.77265
-11.4251
9.67497
5.94255
6.76472
-11.3257
-9.90215
-1.13291
-3.65099
-12.3267
-9.71759
-2.77635
-8.67995
2.27529
1.82074
-0.0944792
0.896268
-15.1957
0.436234
6.11961
-22.3593
3.17513
4.34415
5.35285
1.35577
-4.72468
-7.2685
-11.8734
-12.8483
0.771029
6.1074
-31.8338
7.46854
-19.5223
5.30848
-0.995536
-13.7126
-5.27525
4.5685
3.90264
2.71844
2.99265
2.83661
0.459765
6.8177
7.2773
-4.24549
-14.2979
-9.60256
5.32891
1.85568
-3.69248
-6.60594
1.76496
3.83815
-12.3738
3.19343
1.20759
0.473438
3.89658
1.72366
-5.64822
-29.2341
7.00213
-7.73644
4.82412
0.0478672
5.13022
4.80267
4.13379
3.27179
-8.67026
-9.69942
-10.4771
-10.3832
-11.09
-6.08474
-3.50279
-13.3426
5.09212
1.48654
5.32806
-20.8222
1.32847
-5.05158
-2.76581
4.70935
-18.4439
4.00993
1.79616
-19.7725
-12.5135
-10.101
2.49658
5.54516
-12.3287
1.69575
-9.74678
4.38273
-12.8904
0.85032
-21.4405
6.10615
1.80685
-0.707392
5.32197
3.95406
5.4704
4.73487
7.39232
-6.54733
0.797433
0.446741
2.41949
4.34064
1.81894
-7.56799
-12.8319
-24.3266
0.170883
2.2711
-27.2108
9.71663
-6.78724
5.04242
2.33255
-2.16882
4.41271
0.866092
-1.83077
2.24101
1.59524
5.44594
-10.3531
5.36956
-5.26782
-4.18462
-22.8922
-0.515645
-14.6011
5.04932
9.29436
5.53024
-1.78621
-6.51968
4.93203
-16.0875
-11.6937
-29.6531
2.76403
-5.26253
-34.3072
-16.1856
-1.4235
2.95839
2.73123
-9.78616
1.91544
5.97732
-1.03844
-4.98205
5.93115
2.23985
-25.864
1.22981
0.674173
0.12749
9.54236
-27.9459
2.91498
-2.55709
-1.21349
-0.931783
3.61585
-0.295488
2.06031
-1.42459
-2.14397
1.32914
-3.26362
6.30615
3.29229
2.50431
1.44784
0.877592
9.62142
-18.1368
4.84713
5.0518
2.1503
4.80121
1.74188
-10.5762
3.62648
5.25612
4.41292
4.00819
-13.2054
5.94566
2.28218
7.79805
-2.76664
5.34643
6.46519
5.15558
1.44209
-19.5911
3.1177
-14.9673
1.38875
3.74898
5.47982
2.09997
7.47956
1.66178
8.16665
-4.55312
5.31296
1.14734
2.45594
-23.9149
5.30714
1.35739
3.74235
9.23855
5.51957
1.502
-0.938533
1.96807
5.26195
-1.91643
-11.9554
2.58404
-1.92493
6.41501
-6.04596
7.66734
2.83828
12.0183
8.44705
0.252285
-0.987252
-26.5347
1.97216
8.72091
-0.271799
1.48683
2.01408
10.277
4.10516
2.76036
9.55631
-1.37284
5.26479
1.31213
4.89914
1.9484
4.09583
4.5049
6.22626
4.47729
-10.2889
1.91214
-10.6625
1.15539
-7.71637
-16.6658
7.75903
7.20432
0.685645
-4.06153
2.11692
5.57331
3.09286
3.23291
4.283
0.027803
-9.81286
-10.3673
5.61573
-5.20054
2.78006
3.98553
1.20497
1.74915
-1.06203
9.64748
-13.0859
7.47337
-5.157
9.57156
-0.946077
0.321877
-11.8288
1.8532
3.28976
5.33841
-0.559393
2.99008
-4.08963
1.79807
6.79406
0.486438
1.73914
-17.9832
1.6304
-5.17462
4.98109
-1.71055
-0.0620607
-0.684864
5.40895
10.1114
-11.6349
1.14816
3.25643
-5.56109
3.82382
-8.88724
-0.0339777
2.46945
-8.45841
2.58812
2.10378
-0.366933
-5.33402
-9.85327
-7.16631
1.92616
4.80258
4.91663
5.09835
9.62372
-30.3603
10.076
-9.58661
9.25099
-28.9813
-1.83622
9.17124
3.57655
-1.04595
2.81227
4.52537
3.76127
-18.6562
-12.7768
1.7049
-1.30746
-2.51288
-0.212232
0.827357
3.44794
5.03778
-29.5029
3.59694
-5.19068
1.02515
-15.9038
-4.32071
0.925766
-24.9494
-3.95175
8.41788
-0.0943491
8.78157
1.7886
-18.1124
3.39689
-1.75559
-11.1245
5.05085
5.88583
10.2761
4.8388
5.47666
-1.54167
-10.0743
9.95133
10.1754
5.97921
-1.01435
-13.6574
-15.3199
3.33953
0.344512
0.705859
6.18181
-0.637566
-7.14097
-23.7339
9.09207
0.324929
2.22432
-9.11927
2.86295
4.7075
11.3733
10.599
3.54427
3.00225
-1.31229
-7.55151
3.92587
10.8598
-10.8476
-12.7376
0.971869
0.203903
1.61945
0.997334
0.449117
1.9076
1.16447
1.90542
-1.48338
3.15943
6.72403
-5.58098
4.91207
-8.9358
0.162647
8.72299
-12.8913
0.540926
-5.41098
3.68201
3.27999
-6.70462
-6.72049
0.880832
1.16174
11.6204
-11.0232
-9.56476
-9.43517
-0.547984
-12.2983
-5.61743
-3.27514
-8.41282
-0.587411
-7.41439
-1.50293
-2.90213
3.18658
1.7797
2.10104
11.231
2.27752
1.84128
-0.61372
2.59443
-10.0635
0.630284
7.77104
5.00506
1.93612
0.813286
4.33204
5.15851
-7.88212
-31.5298
-23.9055
7.81445
-1.2144
5.23155
1.86901
7.71815
1.28083
-8.34807
-1.03076
5.58361
-0.676303
5.28482
-1.40896
10.4503
-5.03647
0.606524
-23.2698
4.13818
-10.0225
-2.16845
-7.5232
1.69885
-3.50895
-13.8424
-19.3076
4.19658
1.22387
-3.98672
-1.59307
3.02661
-14.5855
2.78913
-9.57317
5.59451
9.7251
2.61308
-10.252
3.3419
1.55934
0.605785
4.17315
0.00931563
-13.9166
-11.3826
-0.844689
-3.5717
1.76407
-0.0727627
-12.6249
-23.1669
2.01387
5.37699
-0.543591
-9.43353
0.24209
-3.27636
1.23423
1.09795
-5.52201
-11.2093
6.15601
-22.2633
-1.85066
-3.6017
-26.411
-20.5046
-31.8806
11.8302
0.579809
-2.14511
3.90251
9.45538
8.744
-7.82193
1.29996
5.33407
-6.12861
-14.3327
9.59014
1.82663
1.62557
11.8043
0.672398
-5.02037
2.37519
7.99944
5.53873
3.40015
7.59356
4.60863
1.19953
2.07973
3.72079
1.65382
-11.6411
9.31708
1.69222
-0.156328
-0.966042
-3.41683
0.916034
-8.74953
0.813732
1.46944
3.88231
5.8704
4.2634
-15.68
8.23951
8.97443
-10.1156
2.13503
-1.81353
-4.00122
0.349903
4.30237
-13.7243
-1.1031
2.27168
10.1698
-17.3314
4.73164
4.93375
5.75137
0.888084
2.84653
2.17818
1.01137
-1.66955
2.33991
-17.2349
-5.00723
2.08072
-3.79489
5.75752
-12.2364
-27.3508
2.77881
-10.0468
-10.1583
-12.379
3.69787
1.46306
-37.216
3.64219
-12.18
0.867335
-10.1338
-1.86894
5.39407
-19.5809
9.72346
-1.25541
10.635
-0.154276
-33.184
1.75472
5.14793
2.6433
-6.65855
1.8426
1.10079
1.63779
1.30356
11.9796
5.79783
-0.973848
-0.986984
0.140584
-0.798256
4.2495
0.894888
4.34194
-9.7205
-8.8818
-9.46944
-4.49971
1.1328
-9.87361
4.40521
2.09808
8.65697
10.0657
-12.0878
-14.0354
-0.408562
-2.27817
9.0447
-8.42035
0.532356
3.58343
4.65772
0.557854
-15.2192
1.13027
4.43301
2.14666
2.62291
-4.54324
-9.4067
-1.47151
-5.97649
0.677836
-5.91308
-5.46585
4.23723
-7.51652
-8.16495
-0.00183766
0.57346
10.4163
0.163746
5.27741
-1.16448
1.12632
1.50422
-0.304087
3.07392
-4.53735
-9.63542
8.98417
5.29317
1.67758
-10.9319
10.9839
-10.8117
-9.91009
-10.7561
-1.05136
-11.1475
-2.28778
7.79454
1.44602
2.96052
3.45747
-3.26487
-0.231787
-26.7944
1.98001
-6.36097
1.80722
3.24194
4.00712
-11.3728
-10.5546
-7.36135
-0.736
-2.91388
-2.61456
10.372
4.49955
-28.9073
-1.46559
2.81405
8.36459
0.417275
-10.0443
-0.297895
6.6951
3.62599
-1.47084
5.297
3.02668
8.8766
1.0437
5.80427
-21.2688
-0.994628
-2.81927
-8.84326
-1.14201
3.25251
-10.5024
-12.7472
5.08641
0.830397
1.35251
7.09109
4.85586
6.88487
5.23938
-2.36215
0.557774
1.90931
3.55202
0.0150543
5.28922
0.721032
8.91942
-3.74722
6.66839
-2.65963
9.62136
-2.54605
-1.22892
9.45911
-6.09147
0.37821
-17.5212
7.27836
9.2458
5.53278
-4.63999
5.34952
5.94883
-3.52255
3.93421
-5.145
6.56569
-8.51902
-24.7773
-13.6986
-13.4291
5.84038
-2.3293
-13.788
1.29692
9.13718
0.0810231
1.30665
-13.1
-2.13501
1.14584
-0.153493
5.29125
3.54601
-13.1684
10.6568
4.60663
7.92821
6.53287
2.0379
-3.07641
2.51221
-4.86212
0.184529
2.09278
1.51405
0.258411
3.4838
-9.75336
9.58108
6.0429
0.748263
-10.3828
3.85708
2.04669
4.58199
5.84603
1.91778
-0.304386
5.72961
4.1742
-1.38386
-10.045
0.643698
4.46572
8.89512
-10.7121
9.60024
10.7613
9.9227
1.13107
5.74359
-22.1771
5.32112
5.93938
6.83839
4.46761
7.07215
11.3125
5.27331
-10.6617
-8.47313
-9.36815
11.219
1.52345
3.40636
-8.06102
5.89671
8.31402
4.33624
0.652313
2.25106
7.80856
-8.71429
3.83866
-10.0108
3.65876
-6.95383
-5.19426
1.96297
-20.4385
-20.617
-11.957
-0.484884
-1.29148
5.62346
1.01081
1.56196
3.59407
-20.7364
-1.24172
-3.56968
-17.8366
-20.2312
-10.4348
6.72398
7.96165
-10.0731
5.33347
6.46204
7.60155
0.7388
-18.1508
4.42793
-11.4387
7.03167
-14.8291
6.83012
4.64153
2.37743
6.58132
2.38669
6.08679
0.807663
3.73383
-0.633965
-10.1715
-24.5506
-5.4525
5.94755
-21.595
-1.27452
-18.0648
8.65645
5.83101
3.53499
1.57668
7.55598
-5.38366
3.52523
-13.4789
-1.05488
3.59138
-7.4786
-16.624
-2.34586
-12.0097
0.958855
-31.7292
-15.4393
-16.0929
-10.2829
2.57292
9.29923
10.3496
8.56221
-24.7022
3.90158
-22.3056
3.62665
8.09557
2.52725
5.86369
-14.9967
0.982779
-0.939674
1.4141
6.56488
-0.928258
4.53809
-15.352
0.651342
-12.0519
5.81522
4.56137
5.34441
-18.8804
3.64174
-18.5531
-13.0913
-12.6921
0.72363
9.08933
-6.41734
-0.996244
-11.7311
4.62016
5.31327
4.5435
4.29305
-17.8709
7.71231
8.30479
-0.885223
0.838158
7.05071
-5.51721
-33.4039
1.77906
6.61021
7.36006
-20.5406
0.133522
1.45666
9.1563
-15.1431
-5.49999
1.34993
8.12804
1.73017
-0.543948
2.77053
6.2248
4.8695
6.40222
1.19493
-5.89281
4.52763
11.0242
-10.4078
1.83617
1.59446
-12.4971
1.67562
1.16726
-10.7011
-0.118267
-6.09278
4.4153
1.42655
-3.05326
5.75891
7.13606
3.67812
-4.45263
-5.23432
4.29892
-16.7265
-2.21069
-1.04254
1.28115
-19.1351
6.41056
4.44446
1.53939
3.66998
8.6455
-0.594474
1.18003
5.68706
-12.5301
4.45333
-0.173073
1.02882
-3.46531
4.9494
0.105241
1.05057
2.38824
-5.29419
6.38256
-3.00882
0.752715
-5.28343
-0.267132
5.3765
-18.6065
9.84247
-17.9254
-11.1368
-12.7396
6.64219
4.36897
5.86801
-9.05743
8.11975
-26.2124
0.724166
0.856921
-16.3651
5.37085
1.38243
1.85886
1.20855
-9.48688
4.90086
-12.4387
-6.92558
-0.154354
-12.0444
-14.1152
2.27068
8.61114
-23.7707
-22.5388
5.76629
-7.58634
7.37573
-3.24966
1.88728
4.97899
5.54727
1.39143
2.21271
-6.8743
1.62319
2.98429
3.52621
-19.6184
-12.4013
2.21667
-1.58654
2.112
11.427
3.94247
5.24132
7.35698
2.62999
5.912
-12.1983
-8.26572
-9.88902
5.33333
11.0315
3.70042
-1.47382
6.49126
2.24143
2.53765
-35.4408
1.5786
1.84504
9.86663
-12.028
-2.88635
9.1964
6.65112
3.32501
4.18802
5.62365
2.44192
-16.7909
-18.6732
4.4852
-10.3119
-9.8829
4.99042
-12.8388
-10.9903
-4.21071
3.7506
4.00196
4.45399
1.62451
5.94437
6.11682
0.376482
4.79605
3.97315
6.75315
5.5246
-0.548685
1.22371
4.80046
6.4013
4.58117
-1.50565
2.28079
1.54867
-25.7076
8.53721
5.13694
0.322814
-22.8725
0.460175
5.2952
0.592175
3.42082
-9.98517
1.72266
-0.411428
1.77092
-14.9623
0.87099
0.0815006
-0.243216
-14.9103
-18.7992
7.60603
-9.73425
-9.31295
-17.6059
8.7611
2.61107
1.16518
2.8184
-13.826
5.60176
5.28697
-0.0333901
6.90352
2.98588
1.79297
-9.69474
-21.926
0.752209
6.6336
-0.919146
-21.0422
-14.3977
-1.74995
-9.5517
-15.8858
-8.65667
2.56391
3.36657
5.33492
5.52601
-1.07819
-5.9604
7.00385
5.24656
-20.3271
1.81207
-9.36308
0.789677
0.975993
1.9238
5.03444
1.24235
2.00189
0.934972
3.0694
-25.5165
-10.2131
1.87434
-17.0147
-11.6949
-14.1613
-20.7122
1.87528
-8.4549
1.36659
-20.162
5.48599
5.16937
-0.492829
6.7627
-29.778
8.53756
-2.08469
1.99035
-2.02247
4.23731
2.0602
-10.0214
-8.34664
5.62622
6.77507
9.01329
-23.4574
-11.4549
-27.023
3.17106
0.221863
-17.6746
-3.3556
-14.4431
2.031
-22.0458
0.435711
-6.48765
4.59977
7.80889
3.03833
-0.258891
-3.58897
-3.93569
-10.7968
7.6547
10.3256
-9.89676
4.88443
4.18606
-0.0196545
-18.635
6.55211
6.70704
-9.34711
2.62806
-11.6025
-30.9784
-1.67277
-15.9443
-1.11203
4.89162
-1.78488
6.10573
-21.0493
-14.4087
5.3892
-1.2876
-13.6863
2.10218
5.45081
-13.3925
-0.20438
-13.8775
-18.0736
-13.9066
9.19751
-8.42292
0.989521
-23.8188
5.13761
-12.0358
1.07325
-8.26326
-31.6985
-0.865075
4.71293
-0.281047
-16.8701
3.40619
-0.17051
-4.09766
-17.3137
-19.378
0.671485
2.13022
5.29286
-8.68963
7.18439
-2.55949
0.117473
1.85407
-4.95645
-20.8736
-18.0454
-12.1627
1.22034
3.49739
-34.6552
0.952246
-3.58082
3.01655
-36.0218
5.51322
-24.8132
4.31904
0.779743
-15.8156
-1.19772
11.9001
-16.4024
-13.0685
-7.92282
-3.74239
5.34557
-17.9358
-1.53445
1.61271
-13.8207
-22.9247
-10.1404
-15.6162
3.68382
-19.95
2.31879
-13.2988
1.51014
3.44801
2.15451
-1.79389
-0.14109
5.7157
-12.2109
-7.13277
6.40653
0.706842
-12.291
0.848527
-19.9384
-3.31236
0.484461
5.81065
-9.27221
3.79479
-11.5529
-16.8486
-25.7874
-22.3685
-9.64257
-1.28104
-0.295541
5.1535
3.64602
-31.0819
4.42839
-24.9843
6.69896
7.09066
-13.4789
2.4715
5.01256
5.34786
0.836097
-9.92157
-13.0943
-11.4975
5.32132
3.01866
-4.43978
-21.9578
-0.349309
6.69185
1.12997
0.893627
2.05222
6.38294
-3.15327
-3.42913
-30.5996
5.06767
2.77116
-0.918507
7.26245
6.42854
-29.0795
-18.9272
5.6401
3.9546
1.53142
2.0528
-1.59101
-12.2161
-13.6371
-15.7948
6.66569
3.56894
3.92791
-1.10391
-1.98825
-16.3884
4.15739
-22.0866
0.249839
5.8267
6.52357
0.360116
4.91375
2.20296
3.84394
4.43356
1.42951
4.62914
-0.282282
5.50995
4.62651
5.49159
-20.2423
6.25596
5.4967
5.1642
4.76008
-6.25433
1.07455
1.23536
-2.31636
6.00079
8.22729
-16.9272
8.74664
-13.1379
-10.4824
4.39244
5.12726
-7.75141
1.35288
-11.5936
-19.7859
-0.847329
-9.8038
-8.91136
0.768952
3.29489
10.395
5.17904
-1.37227
-9.21597
3.85095
3.90495
-22.7114
-13.2254
-5.00121
-3.2755
-10.2153
-10.1369
5.2876
-5.05189
3.77409
0.864091
0.829895
-0.181252
1.12013
1.25373
-0.85652
5.52597
-1.7712
-3.03311
0.532469
-35.8523
2.21085
4.07485
4.47815
-10.4099
4.85741
3.96839
3.65074
-1.32498
5.17312
3.16762
8.00588
5.29011
-10.4035
0.661602
-1.10846
-4.278
-10.6872
-28.047
-0.712236
-16.4554
10.6424
2.02729
-0.876574
7.07859
-11.8728
-0.569585
-14.4663
-20.8022
-9.59206
-4.31852
-2.64681
2.94045
-0.828674
-9.19566
-1.7742
-0.967829
-2.22191
-10.778
-5.68863
4.93605
-5.4557
-10.8021
-3.00308
1.29795
-3.81144
5.30067
7.36704
-4.0346
5.41579
0.569233
4.66064
8.80964
-13.2334
4.41899
1.90782
3.64942
6.68969
1.18572
3.26378
1.41595
5.0071
7.35969
-6.73385
-4.91684
-5.76919
-3.42084
4.01432
-7.21533
-6.13672
-5.16076
3.66921
-11.3652
1.9046
0.920732
5.23255
1.77037
-10.6414
-13.0499
-5.1097
-0.106837
8.17831
9.72291
6.00758
10.9809
5.6741
7.18267
4.01821
2.67858
6.24278
-5.98536
4.25647
0.653648
-10.2078
7.45331
2.28582
-3.36345
9.46999
1.87513
-29.8063
4.02205
3.66832
6.36579
-8.49527
5.39829
9.22344
-12.0229
-10.3533
-4.52237
2.46127
-20.7701
5.52151
1.20353
6.58083
5.32257
-11.3182
5.18458
-0.853071
-10.1741
-10.509
-14.7121
4.8429
-4.07919
5.44479
4.65831
-16.926
0.205772
0.713804
-1.30508
-6.47718
-9.74699
5.27255
2.6298
-13.4358
0.156348
4.79615
1.91965
-21.4022
4.0352
-16.5999
3.9008
-12.8402
4.69121
2.92533
-1.44469
3.27655
4.18435
2.11988
3.14336
-11.9219
10.6695
-2.08652
-13.1136
4.26335
3.18321
-14.975
-3.0644
-18.9025
0.0607362
0.302372
-3.17424
1.30994
0.707407
11.0438
-5.21252
-13.0375
0.371237
-0.787073
0.241362
1.12862
3.6379
4.83124
-19.8206
2.24013
-11.3939
0.64449
1.81584
3.63495
4.71265
0.100553
0.173805
0.133671
5.38244
0.272694
2.02372
-12.41
0.0692992
-0.244021
5.60534
-12.6147
0.915962
-9.17829
4.72765
-17.1382
0.847247
6.09229
5.34665
4.43784
-15.7386
-9.15044
5.49744
-3.09201
6.27596
4.07089
-1.68009
5.03039
0.99272
3.0633
1.49133
-0.582423
-4.46879
4.833
-17.8246
6.38794
1.95253
11.1415
1.63077
2.97782
5.62442
2.30623
1.85102
5.27512
1.93069
1.86929
-4.87509
-3.12958
3.89038
2.01371
-0.699995
-26.9413
-0.000314449
-21.233
-15.469
-1.31762
5.20822
1.09452
4.9408
1.70976
9.3723
7.84668
3.48637
2.20199
3.3795
-11.9119
5.80721
2.63651
2.15256
1.35043
5.96453
4.6116
-3.61674
-19.7736
-4.88297
2.72998
-0.0262499
-1.41451
5.42947
-32.4533
2.59759
-7.36921
4.17033
3.82019
-6.16302
3.66626
5.06609
3.44329
3.86069
5.66466
1.73788
-0.848209
4.57608
1.08833
7.75816
-19.2727
6.70856
4.80517
-18.4867
-4.72549
-1.30219
-0.590582
-23.2162
-3.21989
5.33573
7.25265
6.0835
7.03925
4.67342
6.25732
3.6652
1.66465
3.82822
1.53709
2.36482
3.2867
0.93905
8.24959
1.35296
-12.6403
4.82667
7.35345
8.26408
-34.9329
0.943829
-8.04867
-10.1726
3.95164
-2.80489
-11.0362
4.33872
9.17072
-10.5379
-16.7183
-23.7771
3.69927
1.56869
2.47621
3.28412
3.24646