/*--------------------------------*- C++ -*----------------------------------*\
| =========                 |                                                 |
| \\      /  F ield         | OpenFOAM: The Open Source CFD Toolbox           |
|  \\    /   O peration     | Version:  2306                                  |
|   \\  /    A nd           | Website:  www.openfoam.com                      |
|    \\/     M anipulation  |                                                 |
\*---------------------------------------------------------------------------*/
FoamFile
{
    version     2.0;
    format      ascii;
    arch        "LSB;label=32;scalar=64";
    class       volVectorField;
    location    "2.2";
    object      U;
}
// * * * * * * * * * * * * * * * * * * * * * * * * * * * * * * * * * * * * * //

dimensions      [0 1 -1 0 0 0 0];

internalField   nonuniform List<vector> 
13486
(
(8.07102 -1.58907 1.85093e-20)
(8.68237 0.592991 1.03612e-20)
(12.8713 -0.152897 0)
(12.9119 -6.17208 -1.85695e-19)
(13.5091 -0.680181 -1.39912e-20)
(11.3167 0.66826 -1.34726e-21)
(13.4052 3.1755 -5.06577e-22)
(11.587 -3.5948 3.28141e-21)
(10.6154 -1.75714 0)
(9.56654 2.46716 0)
(2.79064 0.619137 -6.12633e-21)
(11.1252 -0.387142 0)
(7.35334 -2.48014 -1.816e-20)
(11.2114 2.76475 -2.21575e-21)
(12.3555 1.27316 -5.88493e-21)
(9.4698 2.59552 -9.3436e-21)
(-8.13225 1.72261 1.49876e-20)
(0.317978 1.21704 9.31135e-21)
(10.3734 -0.0533138 5.60329e-23)
(8.74194 -0.769216 -1.86905e-20)
(2.99497 3.79982 -1.06205e-19)
(7.44793 -2.54269 2.33962e-20)
(8.82333 0.548725 -8.2999e-21)
(17.789 14.4951 0)
(9.87196 1.95983 3.13397e-21)
(18.3653 13.9183 -2.2231e-20)
(5.66101 -3.4091 -1.70334e-21)
(15.4258 0.532028 1.79728e-20)
(9.10287 1.96221 0)
(18.5375 0.455958 -2.89805e-20)
(-8.45734 13.4721 -6.52644e-20)
(10.3899 1.34142 -1.40106e-22)
(12.8535 2.86032 3.97108e-21)
(14.9496 -0.988798 0)
(11.6659 -3.39875 0)
(8.16632 0.106177 2.32937e-22)
(8.37791 -0.932234 -2.49512e-21)
(8.94632 -4.09258 5.55443e-21)
(9.72459 -1.86656 -4.18968e-22)
(10.5329 -1.08783 5.27476e-21)
(16.6205 -3.11243 0)
(6.72298 -3.19465 -2.22512e-20)
(12.0058 0.156535 0)
(9.97431 1.65765 -1.46167e-20)
(10.0202 1.64449 5.94973e-21)
(11.0414 -0.396982 2.87216e-21)
(2.74933 -6.12093 9.9862e-20)
(8.709 1.72601 1.42499e-22)
(8.23932 -0.885777 1.89346e-21)
(13.1121 0.704492 2.51479e-21)
(9.96763 0.0303558 1.21688e-20)
(10.1594 -0.76141 0)
(10.0204 -0.808114 -7.29209e-21)
(9.2203 -3.26002 -8.79591e-21)
(-0.765793 -0.995349 0)
(13.1032 -1.12223 7.02297e-21)
(10.6327 -0.865468 1.01675e-21)
(10.2007 -1.22935 -2.0595e-21)
(13.4324 3.04254 7.06285e-21)
(8.56157 -1.20814 0)
(2.85935 5.35678 -1.52426e-21)
(8.83036 -1.26561 0)
(14.0255 -0.909638 -8.27683e-21)
(2.86683 5.792 -1.20664e-21)
(-4.22787 8.25034 0)
(8.39521 -1.03512 -1.23322e-21)
(9.07206 -7.50842 -1.46521e-19)
(7.90685 -0.474702 6.93224e-21)
(10.6567 -1.92627 -2.0536e-21)
(8.20627 0.088578 6.17373e-22)
(10.974 -5.7204 1.69196e-19)
(-0.628576 -0.652399 6.63583e-23)
(10.3296 -0.597953 4.93464e-21)
(-1.33411 9.64535 -2.25834e-20)
(8.33915 -1.189 -2.52512e-22)
(10.5022 -1.06945 -1.90121e-22)
(8.28202 -1.13011 1.09304e-21)
(12.5441 1.24809 2.64119e-21)
(2.75857 -11.0543 -3.73705e-20)
(9.4639 -7.20057 0)
(8.585 0.263641 -7.58735e-23)
(8.47503 0.934249 -6.87742e-22)
(14.6507 -2.47141 -2.21064e-21)
(12.9357 -0.232093 -2.07152e-22)
(8.09088 -1.61008 -3.59576e-20)
(7.66844 5.99049 0)
(6.50128 -2.63214 4.73409e-22)
(9.85055 0.0380506 -1.92955e-20)
(9.45992 0.365126 -8.36126e-21)
(8.7257 3.52873 -1.22695e-20)
(9.18943 0.652273 -3.13471e-21)
(12.3756 -2.60133 3.79194e-21)
(8.45492 -2.03336 4.34708e-21)
(8.82918 -0.214029 5.19056e-22)
(10.4748 -2.93401 7.51504e-22)
(8.64725 1.28414 -3.94297e-23)
(7.95233 -3.94186 0)
(2.25741 -5.65052 5.90793e-20)
(10.5733 -1.02414 -1.01765e-20)
(-7.65937 -0.548866 4.4838e-21)
(8.75479 0.103201 0)
(11.1522 2.76089 -9.72182e-22)
(3.91353 -7.05611 -8.77539e-22)
(10.0782 -1.04524 2.40793e-21)
(6.60622 5.35233 0)
(-7.67876 -1.88071 3.28606e-21)
(9.95886 -0.0537008 -2.68569e-23)
(9.75595 -2.17079 -9.4248e-22)
(0.855267 -7.4367 5.68959e-20)
(11.9509 -5.17562 0)
(9.90853 -4.54742 0)
(10.5629 2.85412 4.9198e-21)
(9.29791 -3.16567 2.54113e-22)
(13.373 -0.397599 -2.6448e-22)
(6.18576 -1.08802 0)
(9.77085 -4.5687 -7.57082e-22)
(9.85648 2.14079 0)
(15.5179 -1.03799 0)
(10.3038 -0.547276 0)
(8.22074 -0.727049 -1.35204e-21)
(1.78624 -0.35505 -3.6605e-21)
(1.33918 4.64473 0)
(10.176 -2.62195 0)
(9.75311 -1.88473 1.38778e-21)
(10.8594 -3.47496 0)
(10.1347 -0.740444 0)
(11.4115 -0.477405 1.98193e-23)
(10.4083 0.289859 6.74829e-21)
(14.3784 -0.951004 -2.48632e-21)
(-1.1495 1.75531 -7.89363e-20)
(9.98271 -0.567795 -2.72546e-22)
(3.56082 -6.67969 -2.49903e-20)
(6.4504 7.00371 4.08466e-20)
(-0.385972 0.153115 2.58054e-20)
(9.97777 0.00635317 -1.93472e-21)
(9.46657 1.32844 -1.09086e-20)
(5.31311 1.84414 -7.28838e-21)
(12.2972 -5.13623 0)
(8.15753 -0.648112 4.0848e-22)
(11.5043 -2.63861 2.9594e-22)
(13.2107 1.89257 -5.84792e-21)
(10.1521 -0.791098 6.23902e-21)
(10.2635 0.322664 0)
(9.79281 -6.80889 0)
(13.1441 0.273737 -1.43998e-22)
(11.0633 -0.371064 4.55519e-21)
(8.51721 -1.40176 -3.36185e-23)
(-0.564816 4.05071 0)
(13.2028 0.970319 0)
(9.28254 1.91853 0)
(9.99538 -0.00225739 2.29305e-22)
(13.4016 0.846529 0)
(8.71885 0.20017 7.94077e-23)
(8.38692 0.891945 -5.94488e-21)
(10.3944 1.09334 0)
(13.3488 -0.219145 0)
(12.6381 -5.32527 0)
(14.2201 12.6702 6.36672e-20)
(9.86003 -3.70553 7.80212e-21)
(8.59037 -1.11717 -9.89246e-22)
(12.0191 0.298199 4.44901e-22)
(9.90863 -3.64202 -1.13227e-20)
(7.25227 1.82922 3.76752e-21)
(6.07096 -3.02361 9.57969e-21)
(10.3212 -0.932448 0)
(11.6156 2.8839 1.08589e-21)
(10.9313 2.4849 7.44353e-21)
(4.1759 -1.69639 -2.97146e-20)
(8.13788 -1.23781 3.03743e-22)
(-0.147432 0.358095 7.22249e-21)
(7.03379 5.32011 6.20605e-21)
(10.3434 0.958986 5.35571e-21)
(10.0051 0.109356 -1.70738e-20)
(11.3879 0.205686 -2.43248e-23)
(8.63179 0.547477 -9.50094e-23)
(-10.5507 5.28101 0)
(11.0659 4.06125 -3.91713e-21)
(12.741 1.92852 6.04727e-21)
(10.0079 -0.0841328 -1.75613e-20)
(10.3726 0.223154 0)
(10.9121 -1.1321 7.66036e-21)
(13.9754 0.0981509 -6.55785e-22)
(11.0485 0.393925 1.10665e-22)
(1.53228 -2.72646 0)
(12.3712 -0.715779 7.50269e-22)
(14.6276 0.389455 -8.09753e-21)
(10.5627 1.93095 1.48754e-22)
(16.6744 -0.49135 -6.00549e-21)
(17.5349 -3.25161 0)
(9.00331 -4.30187 -3.05516e-21)
(8.1502 -0.866109 0)
(13.2582 -0.0460617 0)
(10.528 -1.8513 0)
(9.21894 3.32439 -1.40013e-20)
(10.8707 -2.18412 0)
(1.55604 -0.768861 -2.15215e-21)
(-3.18574 3.09305 1.89877e-19)
(12.2827 0.201841 4.75177e-22)
(8.12976 -3.91103 -3.21882e-21)
(11.5208 2.62642 1.59536e-21)
(-12.5375 16.0035 6.02334e-20)
(10.4234 0.340079 -2.10753e-22)
(8.89487 -4.1798 -6.43659e-21)
(14.3397 -5.63873 -1.08476e-20)
(8.00482 -1.42134 1.42231e-21)
(11.0381 -2.11953 -2.30919e-21)
(-0.324337 3.56737 -9.3004e-22)
(9.94456 -0.436537 1.22489e-20)
(10.4731 -1.80135 0)
(12.6118 -0.614864 0)
(15.8962 0.213703 1.61189e-20)
(19.7617 11.1633 1.00946e-19)
(8.82415 -0.646819 1.71556e-20)
(9.79394 -0.0305833 -1.40781e-23)
(11.3835 0.814098 1.55368e-21)
(16.2305 -10.9767 1.20746e-20)
(17.6987 1.07305 0)
(8.86659 3.28088 2.90382e-20)
(8.88849 -2.06836 0)
(13.8764 2.73449 0)
(-8.96611 0.537528 -2.8737e-20)
(12.879 1.03811 0)
(11.398 -2.73657 -1.10764e-21)
(13.0211 0.369341 0)
(9.65849 -1.50915 -1.49993e-21)
(7.6664 -3.49632 5.9733e-21)
(11.7189 1.4413 8.03305e-23)
(-17.9626 10.1846 2.8249e-20)
(14.1113 -6.47738 2.26141e-21)
(7.86503 -2.87685 -1.4642e-22)
(10.876 -1.08151 -2.53375e-21)
(20.8446 4.77499 9.31976e-20)
(13.0932 2.15654 7.30052e-21)
(6.58646 -3.14078 7.76758e-21)
(-5.42756 -1.57371 0)
(7.45823 -3.57631 6.47133e-22)
(16.0881 -1.16844 1.11894e-20)
(13.2844 -0.0543679 5.6051e-23)
(7.65385 -3.61182 1.82623e-20)
(11.0856 0.126826 0)
(12.771 3.59908 0)
(10.0056 0.126211 2.63373e-20)
(14.1687 0.249286 0)
(7.45327 -3.64544 5.45965e-21)
(9.22187 -1.99906 -6.75126e-22)
(9.42397 -0.230973 0)
(11.4532 0.0530833 -5.64507e-22)
(19.832 6.67313 5.71864e-20)
(-3.74746 5.29493 4.85882e-20)
(9.87572 1.52537 0)
(-0.989439 -0.686466 -8.76387e-21)
(6.05408 -0.972281 3.19779e-21)
(9.38574 -4.54724 -1.34989e-22)
(9.8043 -2.20457 0)
(11.8172 -6.12704 4.42245e-21)
(-9.17082 6.38397 4.09765e-21)
(10.3397 1.25179 1.24992e-21)
(14.9777 -11.3261 -1.52586e-20)
(17.075 14.9058 -6.66372e-20)
(13.0185 3.24173 4.95413e-21)
(9.17222 0.398209 0)
(9.14281 -1.99707 -2.24944e-23)
(12.4105 1.26045 1.31071e-20)
(-9.40548 5.39381 -5.11592e-21)
(13.6058 -3.24171 1.55384e-20)
(1.31268 -3.18779 0)
(14.2934 -6.05499 -1.16658e-20)
(-9.48016 11.4951 -1.03136e-19)
(10.6403 -0.0496706 -6.29389e-21)
(4.5239 -2.42373 0)
(7.76986 3.08791 1.102e-20)
(9.93855 -0.0294959 -4.9874e-21)
(17.754 0.891829 0)
(10.7992 -0.839915 3.17561e-21)
(7.91569 -3.67116 7.88755e-21)
(19.0043 5.58171 -3.13826e-20)
(11.9293 -5.36993 0)
(-7.3226 -0.253018 0)
(9.87666 -2.56085 -1.1167e-21)
(8.85639 -2.00699 1.4636e-22)
(-7.03563 -2.22731 5.75146e-20)
(11.0311 -0.544643 -2.57283e-21)
(9.89139 -0.0300496 1.07683e-20)
(10.1779 11.4951 -4.97261e-21)
(2.96126 4.36532 1.30957e-21)
(-3.00663 -4.73834 3.63216e-22)
(12.9292 1.80115 5.56628e-21)
(13.9678 -1.07817 3.26937e-21)
(11.3138 -1.61476 2.53652e-21)
(10.4144 -0.0641988 0)
(-1.02924 -3.25864 0)
(8.71558 -1.33831 5.99691e-22)
(9.59668 -4.42463 2.33557e-21)
(10.0275 0.0292243 -1.87912e-21)
(15.9603 -1.11628 1.01859e-20)
(16.4465 -0.90798 0)
(12.4784 0.0586009 -8.80847e-22)
(11.0468 -0.786522 -2.59572e-21)
(9.9343 -0.0800193 -9.68045e-21)
(15.8036 1.05047 -2.70407e-20)
(8.02731 1.50138 -4.45333e-21)
(-0.478752 5.13411 1.5129e-21)
(8.89626 -1.84886 -1.24726e-22)
(10.6276 1.30968 5.33219e-22)
(8.39313 -0.674651 4.09408e-22)
(12.9469 -5.9355 0)
(21.7769 3.05547 0)
(10.2806 0.00616095 1.06456e-21)
(7.47158 -3.22119 -2.51458e-22)
(8.2804 -0.900424 0)
(9.76911 6.59361 -3.21151e-20)
(10.5587 -7.80122 0)
(10.6508 3.94455 3.34629e-21)
(10.5934 2.86373 2.68639e-21)
(3.09495 6.46662 0)
(9.37721 1.07095 -6.86817e-21)
(8.50438 -1.31199 -9.15512e-22)
(9.4426 0.327502 -7.14985e-22)
(9.91978 -0.431987 -1.38467e-20)
(15.058 -5.90534 0)
(8.29903 -0.993591 2.25973e-21)
(8.91408 -1.47442 1.05241e-23)
(10.0776 -0.0266685 2.22512e-21)
(8.82569 -0.0279983 -9.97941e-21)
(4.94448 1.92618 1.32834e-20)
(9.49269 0.798326 6.7704e-21)
(12.0863 -0.575915 1.03418e-20)
(11.1392 -0.514313 0)
(11.6357 -1.02172 2.60892e-23)
(12.2034 -0.362698 3.67709e-21)
(9.98046 -0.0271893 2.7847e-20)
(12.5043 -2.51596 0)
(8.6127 0.690978 -2.02569e-21)
(7.73044 0.934849 0)
(13.7533 3.2055 4.13818e-20)
(10.7017 -2.60007 -1.10269e-21)
(5.41311 -2.66673 1.02826e-20)
(13.4365 0.59417 1.43575e-20)
(10.1206 0.446473 0)
(9.03763 -1.91817 -1.01358e-21)
(14.7157 -5.6809 1.29937e-20)
(8.77447 -0.0699212 9.43687e-21)
(12.4389 -0.362429 -1.12023e-20)
(11.1145 0.452721 4.57056e-22)
(2.8467 -6.09131 -6.2645e-21)
(8.81711 1.61672 1.84565e-23)
(11.3712 -0.142567 0)
(6.16935 -2.34478 2.35207e-20)
(14.0455 2.53128 0)
(8.54358 -1.40078 -1.01014e-23)
(11.0987 -0.0763793 3.65872e-21)
(11.2808 -1.07437 -2.78438e-21)
(10.8216 -0.789944 2.68148e-21)
(8.55434 -2.71586 3.96433e-22)
(9.89832 -0.0926327 1.20351e-20)
(8.35436 0.1035 0)
(-1.97786 7.40655 -1.76057e-20)
(11.4107 -0.40461 -3.32386e-22)
(8.17878 -3.06043 -7.88615e-23)
(19.5894 9.00668 7.84721e-20)
(12.0274 -0.0272346 0)
(9.32553 0.231052 5.92845e-21)
(9.37297 0.103527 2.03131e-20)
(9.91382 0.00269271 1.51684e-20)
(18.8503 0.424359 0)
(8.8257 0.171743 1.20472e-23)
(16.3933 -0.827812 -1.0509e-20)
(5.93514 -4.30236 1.69366e-20)
(8.66401 -0.740998 2.3978e-21)
(11.3837 -0.347045 3.17032e-22)
(12.4358 0.134575 2.30676e-22)
(11.276 -0.179635 0)
(9.47833 -1.70998 -5.9145e-21)
(-2.60813 2.10959 4.83745e-21)
(11.2787 1.61003 -3.33916e-21)
(10.0117 0.00871128 1.01058e-20)
(8.491 0.0323976 0)
(8.85783 -1.47455 -1.0491e-21)
(5.65952 6.8468 0)
(14.6306 4.98516 -8.01343e-21)
(10.697 -0.0955164 0)
(12.8647 -3.14119 -6.24713e-22)
(7.60735 -1.2084 -5.48625e-21)
(7.44795 2.18761 2.51324e-20)
(5.28305 -3.9836 -6.43963e-20)
(12.4 -5.4557 0)
(10.8306 0.239329 -6.22422e-21)
(9.98391 0.491212 -7.40248e-21)
(-10.7081 5.64382 -2.49386e-20)
(-0.514134 14.0932 1.23616e-20)
(8.92044 -0.751452 -2.5317e-20)
(16.9564 1.23632 8.94214e-21)
(9.97504 0.51515 5.71508e-21)
(8.34969 -2.61215 0)
(7.4301 0.489869 1.21666e-20)
(7.97069 -0.678649 -1.39912e-21)
(10.5938 -8.4041 1.06277e-19)
(-0.84625 0.426939 -1.9673e-20)
(-11.2081 5.85504 -4.26507e-20)
(13.0858 1.83558 0)
(-11.4289 5.94841 0)
(9.67901 4.20425 0)
(10.8982 -0.280806 0)
(22.9496 1.47315 -6.65535e-20)
(13.2372 2.9861 0)
(7.61617 -2.75851 0)
(8.93192 -0.123702 3.7916e-21)
(12.8396 1.90532 -6.21364e-21)
(11.227 -0.274108 -2.21345e-21)
(8.76469 0.724774 3.63221e-20)
(10.0206 0.107077 -3.65498e-21)
(10.3685 6.33279 0)
(15.9297 1.63718 0)
(9.84526 -0.0776861 1.03983e-20)
(9.92709 0.0165223 1.77878e-21)
(6.38152 2.89478 0)
(3.00482 -3.31795 6.3831e-21)
(13.6691 -3.16475 -1.74303e-20)
(7.05742 5.17584 0)
(11.1159 0.161173 1.80043e-21)
(10.0858 -0.0464628 -1.18157e-20)
(6.77581 6.20989 1.43908e-21)
(6.15522 -2.31171 0)
(9.96117 0.481847 1.34333e-20)
(11.9305 1.00773 0)
(16.7459 -0.5178 0)
(10.5702 0.674723 -9.87212e-22)
(9.84057 -0.0247585 5.72342e-21)
(6.5151 -4.37363 2.22851e-21)
(10.831 2.41604 2.61902e-21)
(7.74482 -2.15048 -8.82777e-21)
(10.7723 -0.255647 7.389e-22)
(10.2159 0.62131 4.55008e-21)
(11.0613 -1.85738 1.50172e-20)
(14.1697 -2.41861 0)
(18.5992 6.42319 2.11428e-20)
(7.56865 -0.954572 0)
(8.81965 -1.48462 5.45276e-22)
(11.4106 0.087882 0)
(7.92194 -0.44753 1.47867e-20)
(-3.4002 -0.775553 -9.14854e-20)
(17.18 1.3127 0)
(-1.6557 -0.280811 1.05051e-21)
(16.352 1.94549 -1.48215e-20)
(8.00873 -1.9844 2.47432e-22)
(9.7417 -1.45135 1.80731e-20)
(7.1259 2.21423 -1.59212e-20)
(7.67736 -2.13245 -2.59595e-20)
(15.8107 4.4934 0)
(8.25598 -0.730316 1.19291e-21)
(3.30906 -6.0029 -8.52315e-21)
(9.93013 0.507733 0)
(9.40461 0.391867 7.83323e-22)
(12.345 0.441407 -5.85413e-22)
(12.0357 4.26035 0)
(9.97326 -0.0183052 0)
(5.56931 -3.55551 0)
(-12.0175 6.01551 2.75405e-20)
(11.4435 14.8495 5.88881e-21)
(8.95639 0.0555559 -9.52472e-22)
(10.59 3.70629 0)
(9.31882 -1.20275 1.4516e-20)
(8.54533 0.526516 2.03548e-22)
(10.7882 2.22287 -5.97556e-21)
(8.2284 -4.44421 1.99587e-19)
(9.68154 0.230536 0)
(8.87186 1.8297 0)
(4.82747 -1.42693 -1.73611e-20)
(8.23058 -2.59098 -5.76718e-21)
(10.4178 -0.849864 0)
(11.0982 -5.08375 5.24267e-21)
(8.95024 0.0904389 -1.35527e-22)
(8.80402 1.17013 7.65686e-23)
(5.71603 -2.75594 0)
(11.9005 -1.44402 3.15716e-21)
(8.15301 -0.624593 1.19367e-21)
(11.9911 0.969115 -7.29361e-22)
(10.7371 -2.78102 0)
(-4.04391 -5.84688 -3.19671e-21)
(11.1368 -0.960268 2.8348e-21)
(9.95676 0.177928 2.64172e-21)
(8.16743 0.00786237 5.3184e-22)
(11.8251 2.80792 0)
(8.79111 0.729013 -9.63719e-21)
(13.1458 1.66228 -3.7125e-21)
(-10.7127 5.3675 6.19407e-21)
(9.95256 0.0978517 0)
(0.534488 8.50301 -1.26874e-20)
(4.07107 -1.26402 0)
(10.0768 0.121204 -1.04854e-20)
(9.88813 0.0206225 4.06787e-21)
(9.77365 -0.182776 -2.03208e-21)
(-10.1874 4.81341 0)
(12.8129 -0.113881 -6.34506e-22)
(6.41914 1.1776 3.43021e-20)
(13.9602 -2.94748 0)
(8.83447 -0.170518 1.16186e-20)
(15.7059 0.877653 3.11394e-20)
(10.6839 0.0366581 0)
(-9.25016 11.3803 4.77933e-20)
(9.52202 -6.44849 -8.13414e-21)
(12.5832 0.185251 0)
(-6.48441 -4.19193 2.33068e-20)
(9.39411 0.342963 0)
(10.2571 -4.53479 7.64607e-22)
(-2.72548 -0.654262 1.18558e-20)
(10.4515 2.17967 -1.51802e-22)
(11.4022 0.673888 2.26978e-21)
(7.43269 0.436184 6.35063e-21)
(9.66632 -1.56198 -6.45375e-21)
(12.3449 -4.8378 -3.83431e-21)
(10.122 -4.30199 2.61021e-22)
(11.3847 -0.439648 6.411e-22)
(11.843 2.72594 -1.63499e-21)
(12.8052 -5.23957 0)
(10.0114 -0.0111429 -8.96396e-21)
(6.62517 7.13566 -2.22883e-20)
(7.71316 -0.976268 0)
(7.81264 -1.09024 -7.05359e-22)
(8.32391 0.0704665 0)
(7.084 -2.23244 2.32374e-20)
(12.6385 -3.86965 0)
(8.62291 0.0591302 -4.38816e-22)
(11.2841 -0.101889 -2.14323e-21)
(-12.6387 11.822 7.63693e-20)
(4.1483 -3.03756 3.77463e-20)
(11.7812 0.0278572 -2.59884e-23)
(11.8878 -5.50443 -1.37083e-20)
(10.1228 -2.648 4.36245e-21)
(8.42337 -2.00859 0)
(1.01402 0.503784 -2.38712e-21)
(14.4423 -2.35123 3.29764e-21)
(2.22222 0.0154809 -3.17058e-21)
(8.66887 1.38789 -1.65516e-23)
(8.2816 -3.12872 0)
(10.7565 0.0290614 -7.44118e-23)
(2.73943 -3.19075 0)
(-1.493 -5.76428 -2.34531e-21)
(7.11048 6.79592 -2.71398e-21)
(16.3814 12.2504 0)
(11.7879 -2.14332 -6.26738e-22)
(-9.22822 5.51966 0)
(12.094 4.03138 0)
(9.90321 -4.57598 -1.08967e-21)
(7.89299 0.655061 9.86329e-21)
(7.18943 -8.06997 0)
(9.27016 0.191466 -5.71306e-21)
(9.7936 -1.17127 -5.40185e-21)
(-2.2541 3.42603 1.49342e-20)
(12.2136 5.54635 0)
(10.4325 -0.0326211 0)
(4.08345 -4.5318 1.41641e-21)
(9.98252 -0.714826 0)
(12.533 -0.310714 0)
(1.20259 5.35957 -2.66178e-22)
(11.4207 -1.45031 -1.11916e-21)
(9.83188 -2.21581 4.60239e-21)
(13.3953 4.2609 7.81683e-22)
(1.48103 0.0853197 8.05428e-21)
(9.94491 0.00875218 4.6135e-21)
(8.6403 -2.10372 0)
(10.3326 1.64472 -2.65328e-21)
(8.03427 -1.47807 0)
(11.9745 -0.033314 0)
(9.98049 0.261072 0)
(10.5372 0.626841 -8.04752e-22)
(9.87023 -0.473261 6.41091e-21)
(13.7798 0.435229 6.83707e-22)
(8.85892 -2.14177 0)
(6.83874 -2.57976 1.56033e-21)
(9.61448 4.0157 6.09885e-21)
(10.8395 -3.51044 1.67689e-23)
(13.8752 -1.51207 -5.36167e-21)
(21.0662 4.9125 6.82591e-20)
(10.2211 0.0483501 -6.6621e-21)
(-3.61344 0.717104 0)
(11.0179 -0.799452 0)
(7.18784 2.94886 0)
(7.28321 -3.19813 -1.58122e-20)
(-14.3642 8.74845 -6.35245e-20)
(15.0292 9.73622 0)
(10.4184 1.67072 0)
(10.361 -1.17142 6.07881e-21)
(10.1167 -0.0378344 -1.20764e-21)
(9.40543 2.06206 1.27457e-20)
(15.0292 -5.75607 0)
(6.80264 -0.82312 -2.55859e-21)
(10.9714 0.264263 3.31713e-21)
(8.05464 -2.44398 -1.4123e-20)
(10.5199 0.294126 -5.15052e-21)
(10.7999 2.23775 8.10709e-21)
(6.84791 14.2252 5.19041e-20)
(7.1839 -3.17589 2.74701e-20)
(13.9322 -12.9255 1.08925e-19)
(14.5262 -0.150969 -4.94956e-22)
(10.0083 0.010183 -2.13365e-21)
(10.5013 -4.94138 2.5954e-21)
(9.9306 -5.92736 3.63708e-21)
(7.95076 7.74283 -6.83254e-21)
(10.7424 -4.91634 -1.79739e-21)
(11.6856 -0.946413 0)
(7.44286 -2.45735 -1.92049e-22)
(10.5094 -0.0156563 -1.13491e-20)
(12.8623 2.93411 1.85662e-21)
(7.89322 -2.27858 -1.33582e-20)
(10.7103 -3.40851 -1.57599e-21)
(10.4535 0.0197833 7.52111e-21)
(13.297 -0.124258 -4.32218e-21)
(6.86294 -2.02737 -4.47448e-21)
(12.9404 1.72877 -2.95264e-21)
(6.63544 -1.45164 -3.39518e-20)
(10.6928 -0.00176657 -9.78402e-21)
(6.57419 -1.73322 0)
(-19.5623 10.6991 -1.2543e-19)
(11.0472 0.0304719 1.46452e-20)
(7.79709 0.0514745 7.63987e-23)
(-1.75104 8.47022 0)
(12.143 -5.20703 0)
(9.9467 1.39646 1.10796e-20)
(6.03611 -1.45301 2.16748e-20)
(-6.43212 13.6097 -9.24953e-20)
(12.7936 -3.24324 5.97121e-21)
(12.2022 -0.484084 -5.9321e-21)
(14.0868 2.45417 0)
(9.90854 1.52534 6.30216e-21)
(-0.426469 2.19971 -9.3121e-22)
(11.2855 3.86321 -2.95889e-21)
(10.7988 -1.09441 -5.38125e-21)
(1.01456 0.166695 -1.36181e-20)
(19.8226 3.41389 -6.00407e-20)
(17.159 6.78761 5.01381e-21)
(10.3567 4.50718 0)
(16.5281 -4.30315 -8.79655e-21)
(9.8473 -0.206067 1.79602e-21)
(8.62926 0.340746 -9.81534e-23)
(6.06159 -2.97571 2.71603e-20)
(10.6566 -1.18118 8.2175e-21)
(8.38176 -1.41294 5.6589e-22)
(-1.31628 1.43571 -1.03133e-20)
(15.3556 0.0653193 -8.01134e-21)
(10.5572 0.0839 8.77219e-21)
(4.26898 4.31323 -3.1019e-22)
(10.9336 3.74801 8.57472e-21)
(-6.48706 -3.10381 -2.53245e-20)
(7.80257 -3.70177 -6.98564e-21)
(8.80052 0.363015 0)
(10.7177 -1.65527 1.0007e-21)
(-3.15642 9.75291 -1.74312e-21)
(7.5672 -1.29873 2.91263e-20)
(11.6019 1.46441 0)
(6.77824 1.14271 5.02012e-21)
(6.9527 -2.84868 6.56593e-21)
(9.90559 0.0196876 -1.98425e-20)
(5.7951 -4.3947 -1.03927e-20)
(7.09858 -7.39623 -2.89293e-21)
(11.2994 -0.220284 1.45453e-21)
(10.712 0.286504 9.34498e-21)
(10.468 -4.60988 5.24614e-22)
(14.2197 0.209209 -1.19803e-21)
(-14.1578 9.49232 -1.49123e-19)
(10.5493 -0.0129598 1.06469e-20)
(10.7213 -0.228672 -3.30503e-21)
(10.3565 0.362361 -1.30429e-22)
(12.1475 -0.00135141 -5.98483e-21)
(6.77309 -2.94718 -1.26941e-20)
(14.4093 0.232938 0)
(-13.8708 4.08829 3.8033e-20)
(10.6006 0.0617124 1.2898e-21)
(6.87068 6.15405 2.41142e-21)
(11.766 0.235738 2.34294e-21)
(12.086 -0.853492 2.44532e-21)
(9.97818 0.0787238 -1.68382e-20)
(10.1432 1.01559 3.50178e-21)
(3.47522 -2.86215 -6.56086e-21)
(12.6347 -0.271564 0)
(9.01776 -1.62103 5.5188e-22)
(11.3831 -1.2079 2.85382e-21)
(8.32442 -3.06071 0)
(10.2678 0.277373 7.13892e-21)
(11.6721 -1.08927 3.01599e-21)
(12.6772 -0.236734 1.08026e-25)
(17.6347 -4.24015 2.85553e-20)
(11.3634 -2.10808 0)
(9.0166 0.999285 1.83562e-20)
(8.40394 -1.15198 -1.02865e-21)
(10.3002 -4.70023 -5.31824e-22)
(10.6645 -0.703431 0)
(7.81488 0.62605 -2.83327e-20)
(2.35397 -0.391955 -5.07719e-21)
(11.1134 5.75557 -3.5081e-22)
(6.6824 -1.4984 3.30957e-20)
(12.5606 0.234706 -7.94877e-22)
(5.02638 -2.09956 2.44105e-20)
(10.2442 -0.581925 -8.62552e-21)
(16.4038 4.91721 -2.06145e-20)
(9.32696 0.141537 -1.17893e-20)
(12.4418 0.342536 0)
(10.0275 -0.0137459 -8.0028e-21)
(8.63556 -0.888924 3.09896e-19)
(-1.22162 4.20147 0)
(18.6303 13.3113 0)
(8.64233 0.342299 0)
(-9.94757 4.00285 0)
(9.99962 0.950651 0)
(6.34782 -1.41552 0)
(17.7369 -9.36587 -8.87856e-22)
(8.44371 1.63683 2.96577e-21)
(11.8229 1.50379 0)
(8.68968 0.718927 2.74761e-20)
(4.08273 -3.40453 4.78228e-21)
(10.1406 0.617943 1.68941e-22)
(-1.43953 9.87094 2.36717e-22)
(6.26764 -0.472217 7.10879e-23)
(3.93784 -3.84201 6.83165e-21)
(9.87178 0.0563761 -1.72927e-21)
(12.9111 0.754839 4.27481e-22)
(9.96789 0.890979 -7.38335e-21)
(9.53594 0.287589 -1.64385e-20)
(9.45679 3.64414 -1.17744e-20)
(15.3394 4.73395 0)
(2.07732 6.33274 3.90802e-20)
(7.19346 -2.31231 -2.54103e-20)
(9.99196 0.00701038 -2.38578e-20)
(14.5207 -2.09009 3.2581e-20)
(11.7647 -0.0351566 1.17517e-21)
(18.1535 0.722174 -4.20399e-20)
(11.4693 -0.745723 -6.55149e-23)
(11.8155 -2.12554 2.49855e-21)
(9.93942 0.429113 7.67277e-21)
(11.302 8.15829 0)
(12.0265 -4.28152 -3.03703e-21)
(9.03087 -0.238384 -3.57202e-21)
(12.4299 3.34978 0)
(10.0469 -2.30844 0)
(11.3023 -4.86423 -2.66339e-22)
(3.85155 -2.26129 2.90184e-20)
(16.8666 -10.1256 -6.34802e-20)
(9.47051 -0.556033 0)
(9.99901 -0.486409 -1.25259e-20)
(9.29125 0.369635 -3.19453e-21)
(-18.1132 4.33889 3.01062e-20)
(12.1858 -0.700916 9.92908e-22)
(5.14519 -3.56159 0)
(4.4202 5.0613 4.55198e-20)
(12.1751 -0.929937 0)
(16.3689 -4.86228 1.00027e-20)
(8.94569 0.327709 -3.87566e-21)
(10.1545 -0.00176257 -3.91605e-24)
(10.9587 2.54098 -1.31749e-20)
(12.1734 4.88057 -1.12887e-21)
(9.84025 -2.60496 1.01702e-20)
(-3.3757 13.2183 0)
(-6.06584 2.51017 -1.86408e-19)
(0.0132927 -8.089 0)
(12.0089 1.51698 -9.3843e-25)
(-14.8082 1.42128 8.59868e-20)
(20.8644 13.007 7.89174e-20)
(9.07785 -1.67317 -5.58221e-22)
(-7.19623 8.07246 -1.79139e-20)
(9.60443 -4.46253 6.14248e-22)
(7.4254 -2.30802 -1.43217e-20)
(7.99255 -0.696502 4.85512e-22)
(-6.86641 -3.38651 1.5172e-19)
(6.82904 -3.00046 1.04471e-20)
(7.72826 -2.41545 1.49849e-20)
(-15.1572 7.54511 6.75467e-20)
(-0.0202254 3.43645 -9.67032e-20)
(10.5571 -2.95876 2.4813e-21)
(2.90832 -2.15176 7.40334e-20)
(13.616 0.261346 -2.63606e-22)
(3.53258 -3.39502 -3.69961e-21)
(10.9369 1.621 -3.50039e-21)
(13.2693 -1.09999 0)
(-10.6936 3.60243 -6.5708e-20)
(10.3479 -0.0205612 -1.25047e-20)
(9.93508 0.223503 0)
(11.9044 1.48969 0)
(-8.46848 -5.53471 -9.62032e-20)
(12.3501 6.88653 -1.04454e-20)
(11.3087 0.936369 -6.38416e-21)
(11.3569 -1.4089 1.38942e-21)
(9.40781 3.51855 1.03108e-20)
(9.04977 -0.0107353 4.50117e-21)
(-14.8085 1.14609 5.18323e-21)
(8.92909 2.04211 0)
(7.9254 -2.54457 1.37899e-20)
(-0.705639 -10.6017 3.11091e-21)
(-7.57121 6.82623 1.44015e-20)
(9.83446 -3.53484 1.24721e-21)
(13.6368 -5.90782 1.27788e-20)
(10.1387 -0.0288874 2.38478e-21)
(9.58123 -1.74712 4.22849e-22)
(18.1645 -0.499669 2.83798e-20)
(-12.9336 1.28401 -3.53233e-20)
(11.2341 0.887055 4.85336e-21)
(9.87669 -0.108627 5.94303e-21)
(6.52512 -1.70041 -1.35776e-20)
(10.0317 -0.618261 7.54558e-21)
(4.91983 -1.97801 0)
(11.2273 1.49223 5.95954e-21)
(10.0328 -0.0714294 1.32046e-21)
(8.36178 -1.8747 -4.53596e-21)
(8.79979 6.20178 -4.53123e-21)
(10.3743 -2.91307 2.65073e-21)
(10.2357 -0.0310649 2.31683e-21)
(7.58188 -0.148823 -2.07334e-20)
(12.5614 2.7269 0)
(9.05689 -1.54921 -1.17921e-21)
(10.5631 0.343683 6.96304e-21)
(13.845 -1.94513 0)
(7.72118 -0.54617 1.15063e-20)
(12.3428 -0.706252 0)
(7.60497 6.27186 2.3965e-20)
(12.6841 -0.0477925 0)
(12.0719 -4.78252 0)
(11.3596 -0.311613 1.30882e-21)
(11.2442 0.696299 4.04149e-21)
(12.911 1.7333 -4.3482e-21)
(9.71159 0.206373 -7.45683e-21)
(7.50623 3.34093 -8.03571e-21)
(10.0302 0.132702 -3.3039e-21)
(10.0962 0.975101 0)
(8.86707 -8.24759 -1.46653e-21)
(11.594 0.705189 -2.30685e-21)
(15.8435 -5.09656 -1.94988e-20)
(13.43 -1.21862 0)
(13.1128 2.83448 3.2496e-21)
(9.67402 6.27457 -6.3642e-22)
(13.771 0.357407 -1.40997e-21)
(-1.63907 14.2097 0)
(2.0505 8.30001 5.13891e-22)
(10.1214 0.437806 0)
(17.6653 0.283465 -1.33171e-20)
(-2.12734 3.76527 0)
(13.5476 -4.75955 0)
(8.11611 -11.601 0)
(12.2369 -3.87967 0)
(1.58187 -3.7438 -1.49047e-21)
(-12.5792 6.46891 -6.81744e-21)
(9.87518 -0.438367 -9.6122e-21)
(-18.4008 13.4163 -9.50313e-20)
(7.28627 -3.07283 0)
(-17.8734 9.94247 -4.47594e-20)
(-3.94281 6.35709 -4.81903e-20)
(9.12765 -4.18179 0)
(8.3354 -2.8688 -1.34044e-20)
(8.54882 -1.22705 -3.40008e-22)
(10.9235 1.52938 9.0348e-21)
(16.7634 -3.49526 -2.53078e-20)
(9.46761 0.227646 0)
(13.3702 -2.64649 0)
(13.1673 0.876428 2.32239e-21)
(10.0232 -5.22039 6.54149e-22)
(8.43479 -0.718076 -8.42767e-22)
(-9.23515 -4.76373 6.84873e-21)
(10.0063 0.00588968 5.93911e-22)
(10.5487 -1.61774 6.57332e-22)
(9.93945 0.391642 1.08963e-20)
(8.9155 -1.41671 5.88802e-22)
(10.6577 -2.50359 0)
(3.37657 -4.6807 0)
(13.9739 0.361703 0)
(7.9624 0.122465 0)
(9.58325 -1.78403 4.94368e-21)
(13.442 1.40886 0)
(1.44543 2.81149 9.06515e-21)
(6.26663 15.94 2.07481e-21)
(7.5757 -2.46126 -2.28384e-20)
(4.04282 -2.42038 -2.9056e-21)
(-15.3146 5.81659 -1.91992e-20)
(-0.52512 -1.00744 -2.51093e-21)
(11.0177 0.0681291 1.82635e-21)
(-9.94187 1.72874 -1.70591e-20)
(8.80812 -1.39444 9.39048e-22)
(11.6029 -0.24525 0)
(12.4779 0.439887 0)
(6.01917 -3.66591 0)
(12.0737 -0.964918 -1.61191e-21)
(-3.88049 7.32185 0)
(9.00729 2.01076 0)
(9.96233 0.0113185 0)
(9.87335 -2.20086 4.34201e-21)
(10.3378 0.53906 -1.14209e-20)
(8.50548 0.0298003 0)
(19.4292 -7.51822 -4.83983e-20)
(9.76667 0.43232 -9.6779e-21)
(11.2627 3.68584 5.93261e-21)
(9.14128 -4.09216 5.29877e-21)
(9.33293 2.38082 1.78014e-22)
(9.28318 -7.497 -8.88006e-22)
(9.79257 -2.50736 1.0975e-21)
(12.7613 -6.31419 -9.81769e-21)
(11.1434 0.740758 -5.3995e-21)
(8.38034 -0.667708 -1.96314e-21)
(9.4995 -0.0645463 -1.07498e-20)
(10.4695 -0.0117255 0)
(8.24535 6.71232 -1.73964e-21)
(9.86852 -0.0158999 1.11111e-20)
(0.237949 -0.586438 -3.80095e-21)
(11.403 -0.791277 -4.61071e-22)
(6.15408 -1.53958 -2.35788e-20)
(11.1523 0.635389 8.99637e-22)
(13.6878 1.99618 5.37063e-21)
(9.98986 0.124604 0)
(6.90492 -2.4576 -8.85616e-22)
(9.47939 -0.819292 -4.41129e-22)
(13.0725 -6.29491 2.16775e-20)
(7.13973 -0.761827 -2.27748e-19)
(10.2535 -0.0481753 4.92089e-21)
(14.7095 -0.0956845 4.07993e-22)
(12.4833 0.228984 5.67809e-22)
(13.7519 0.640454 0)
(4.01261 -0.866566 0)
(8.61799 -4.01152 8.18617e-21)
(5.54242 -3.39491 1.12249e-20)
(8.74589 0.193785 -1.42884e-23)
(9.95552 -0.0114945 2.19396e-20)
(7.57702 -2.52821 2.7134e-21)
(7.77515 0.440741 0)
(9.43551 -0.0855335 0)
(8.99827 -2.01059 -3.14259e-22)
(11.374 -0.173204 1.87538e-21)
(9.42436 2.15839 1.79009e-20)
(10.4481 0.286602 0)
(12.4489 -0.100917 0)
(12.1597 -2.36008 -9.08286e-21)
(10.5866 -0.692726 5.38077e-21)
(10.1861 -6.69236 -3.188e-20)
(13.4519 -0.990615 0)
(13.9245 -5.04017 5.51157e-21)
(23.0933 -3.6237 -1.9896e-20)
(-2.48313 8.22198 -4.24984e-22)
(10.4009 -0.20025 -9.66658e-21)
(10.0777 1.68474 0)
(11.5711 5.50276 8.9784e-21)
(0.0682146 15.0013 -3.82066e-20)
(1.64377 -2.2424 0)
(8.07066 0.0138994 -1.63268e-21)
(9.73414 0.0362858 -7.53074e-21)
(8.78349 0.0896076 -1.14324e-24)
(9.33497 0.826899 1.92962e-21)
(8.92172 9.11666 9.55514e-21)
(10.6809 0.0480963 0)
(6.26452 -2.43815 -2.88774e-22)
(6.69786 -2.7101 -2.64186e-21)
(4.5119 10.2294 8.18432e-21)
(10.0098 0.881497 8.74316e-21)
(-3.55178 10.6259 2.44953e-20)
(10.1717 0.0204794 -2.24779e-20)
(9.00482 -1.28107 -5.18317e-22)
(9.28027 -2.14358 7.43132e-22)
(9.7179 -2.04758 0)
(9.88487 -0.148086 -3.0674e-21)
(6.65036 -3.05537 8.39619e-21)
(11.1407 -0.0762402 -4.54929e-21)
(10.0252 -0.0683939 -9.80526e-21)
(17.1643 -0.480236 1.12292e-20)
(9.04061 -1.09986 2.22482e-20)
(13.3315 0.217153 2.57526e-22)
(9.27516 0.0166429 6.46234e-21)
(7.78566 -1.12839 -2.08457e-21)
(12.5452 4.18733 -8.18528e-21)
(11.0412 4.05213 4.94623e-21)
(-3.81902 10.64 7.29116e-20)
(10.1867 0.0337893 0)
(6.50336 -3.60809 0)
(21.0485 5.92117 0)
(7.54655 -2.3292 1.79201e-20)
(10.0939 0.0432378 -1.5503e-20)
(9.21482 0.397134 0)
(8.57022 -1.92807 -1.27501e-20)
(9.24843 0.315606 0)
(9.55135 -1.54391 -8.1349e-21)
(15.8385 -5.48202 -2.46257e-20)
(10.5079 -2.3277 -3.0797e-21)
(10.8011 0.045728 0)
(9.94782 -0.117685 0)
(13.7179 -1.89489 4.87632e-21)
(11.7892 1.32868 -7.99184e-23)
(13.6623 0.792809 4.53206e-21)
(10.0243 6.61278 -8.75252e-22)
(9.88226 0.631691 0)
(9.92908 -3.45481 -1.8878e-21)
(-2.77524 4.49598 0)
(4.38346 2.1012 -1.41136e-20)
(12.2703 4.89005 0)
(14.4641 0.215468 -5.65661e-22)
(6.63707 -1.34655 8.85681e-21)
(8.47477 -1.12521 7.86573e-21)
(12.6776 -1.04188 -4.17731e-21)
(5.77148 15.8751 -2.79332e-19)
(10.4758 -0.881043 1.3567e-20)
(10.0271 0.95651 -2.05098e-22)
(17.7338 0.760419 5.1614e-20)
(11.0249 -1.83548 -9.69618e-22)
(-2.51293 1.93581 1.56943e-20)
(11.8557 2.04276 0)
(10.0426 0.00996375 -4.9994e-24)
(8.73562 -2.20722 0)
(9.42054 -1.9006 -8.6292e-22)
(10.0761 -3.41734 -7.93874e-22)
(9.17694 -0.983564 -7.21105e-21)
(8.73719 0.110117 -1.33757e-23)
(12.4252 0.469312 -5.93474e-22)
(8.98404 -0.622884 1.6254e-20)
(11.2181 0.0986391 -1.70023e-21)
(8.29722 -0.783316 0)
(9.59888 0.113521 0)
(12.9338 -0.273749 2.73656e-22)
(12.687 1.51407 0)
(9.63492 0.271384 -4.08564e-21)