# Force       
# CofR        : (0.000000e+00 0.000000e+00 0.000000e+00)
#
# Time        	total_x total_y total_z	pressure_x pressure_y pressure_z	viscous_x viscous_y viscous_z
0.05           6.234516e+01 6.157087e+01 3.796947e-17 4.792158e+01 6.667656e+01 4.039856e-17 1.442358e+01 -5.105689e+00 -2.429098e-18
0.1            5.547334e+01 6.351271e+01 3.624742e-17 4.491203e+01 6.743741e+01 3.855776e-17 1.056131e+01 -3.924706e+00 -2.310345e-18
0.15           5.614693e+01 7.698390e+01 3.496578e-17 4.756127e+01 8.018934e+01 3.726796e-17 8.585663e+00 -3.205439e+00 -2.302176e-18
0.2            5.889781e+01 8.963934e+01 3.329973e-17 5.148546e+01 9.229203e+01 3.565923e-17 7.412351e+00 -2.652693e+00 -2.359504e-18
0.25           5.978595e+01 9.815318e+01 3.121405e-17 5.328980e+01 1.001326e+02 3.349913e-17 6.496148e+00 -1.979459e+00 -2.285083e-18
0.3            6.003662e+01 1.048266e+02 2.874690e-17 5.436871e+01 1.063173e+02 3.101896e-17 5.667906e+00 -1.490713e+00 -2.272067e-18
0.35           5.964822e+01 1.091359e+02 2.683823e-17 5.470895e+01 1.103531e+02 2.905886e-17 4.939274e+00 -1.217240e+00 -2.220626e-18
0.4            5.862105e+01 1.102721e+02 2.522008e-17 5.428199e+01 1.113203e+02 2.743116e-17 4.339059e+00 -1.048207e+00 -2.211078e-18
0.45           5.861555e+01 1.126202e+02 2.381403e-17 5.476373e+01 1.135456e+02 2.605206e-17 3.851824e+00 -9.254190e-01 -2.238028e-18
0.5            5.908015e+01 1.155969e+02 2.288903e-17 5.561621e+01 1.164217e+02 2.517011e-17 3.463945e+00 -8.248361e-01 -2.281080e-18
0.55           5.950037e+01 1.183044e+02 2.231570e-17 5.635245e+01 1.190332e+02 2.466786e-17 3.147923e+00 -7.287808e-01 -2.352158e-18
0.6            6.003747e+01 1.210599e+02 2.201640e-17 5.715468e+01 1.216896e+02 2.441182e-17 2.882783e+00 -6.296913e-01 -2.395425e-18
0.65           6.062456e+01 1.236520e+02 2.184301e-17 5.796435e+01 1.241828e+02 2.426548e-17 2.660218e+00 -5.307695e-01 -2.422468e-18
0.7            6.097309e+01 1.255353e+02 2.175803e-17 5.851009e+01 1.259756e+02 2.417592e-17 2.463003e+00 -4.403032e-01 -2.417888e-18
0.75           6.103904e+01 1.268301e+02 2.178604e-17 5.875841e+01 1.271896e+02 2.416837e-17 2.280636e+00 -3.595246e-01 -2.382333e-18
0.8            6.114640e+01 1.281153e+02 2.184834e-17 5.903571e+01 1.284024e+02 2.418800e-17 2.110684e+00 -2.871302e-01 -2.339661e-18
0.85           6.117406e+01 1.291323e+02 2.194219e-17 5.921906e+01 1.293548e+02 2.422671e-17 1.955000e+00 -2.224735e-01 -2.284528e-18
0.9            6.136495e+01 1.302061e+02 2.195322e-17 5.954838e+01 1.303746e+02 2.416336e-17 1.816569e+00 -1.685264e-01 -2.210146e-18
0.95           6.171119e+01 1.314465e+02 2.195639e-17 6.001524e+01 1.315736e+02 2.409263e-17 1.695955e+00 -1.271550e-01 -2.136241e-18
1              6.235895e+01 1.331900e+02 2.192472e-17 6.076432e+01 1.332843e+02 2.398964e-17 1.594630e+00 -9.428787e-02 -2.064917e-18
1.05           6.300715e+01 1.349026e+02 2.190554e-17 6.149745e+01 1.349698e+02 2.389815e-17 1.509700e+00 -6.727245e-02 -1.992610e-18
1.1            6.369367e+01 1.366992e+02 2.191303e-17 6.225736e+01 1.367434e+02 2.383212e-17 1.436309e+00 -4.423915e-02 -1.919084e-18
1.15           6.433919e+01 1.384534e+02 2.196742e-17 6.296699e+01 1.384744e+02 2.382404e-17 1.372199e+00 -2.103009e-02 -1.856614e-18
1.2            6.487807e+01 1.400204e+02 2.206338e-17 6.356719e+01 1.400183e+02 2.386564e-17 1.310886e+00 2.062100e-03 -1.802264e-18
1.25           6.534365e+01 1.414864e+02 2.218258e-17 6.409345e+01 1.414613e+02 2.393377e-17 1.250195e+00 2.519416e-02 -1.751192e-18
1.3            6.571968e+01 1.427620e+02 2.230928e-17 6.452985e+01 1.427136e+02 2.400808e-17 1.189828e+00 4.842692e-02 -1.698801e-18
1.35           6.610835e+01 1.440461e+02 2.242787e-17 6.497825e+01 1.439740e+02 2.407359e-17 1.130093e+00 7.209981e-02 -1.645720e-18
1.4            6.639965e+01 1.451269e+02 2.254826e-17 6.532940e+01 1.450321e+02 2.413964e-17 1.070253e+00 9.478124e-02 -1.591385e-18
1.45           6.679921e+01 1.464120e+02 2.259773e-17 6.578665e+01 1.462939e+02 2.414335e-17 1.012563e+00 1.180500e-01 -1.545618e-18
1.5            6.717176e+01 1.476634e+02 2.266386e-17 6.621407e+01 1.475227e+02 2.416989e-17 9.576880e-01 1.406525e-01 -1.506027e-18
1.55           6.755447e+01 1.488839e+02 2.261306e-17 6.664695e+01 1.487226e+02 2.408560e-17 9.075182e-01 1.612088e-01 -1.472537e-18
1.6            6.820988e+01 1.505509e+02 2.243218e-17 6.734608e+01 1.503735e+02 2.387866e-17 8.638017e-01 1.774130e-01 -1.446478e-18
1.65           6.891652e+01 1.522192e+02 2.214772e-17 6.808956e+01 1.520282e+02 2.357634e-17 8.269576e-01 1.910078e-01 -1.428620e-18
1.7            6.969958e+01 1.539328e+02 2.173494e-17 6.890311e+01 1.537310e+02 2.314565e-17 7.964781e-01 2.017650e-01 -1.410714e-18
1.75           7.061406e+01 1.558070e+02 2.122607e-17 6.984300e+01 1.555983e+02 2.262215e-17 7.710676e-01 2.086988e-01 -1.396074e-18
1.8            7.140678e+01 1.574586e+02 2.071836e-17 7.065623e+01 1.572433e+02 2.210722e-17 7.505456e-01 2.152899e-01 -1.388859e-18
1.85           7.216221e+01 1.591114e+02 2.025708e-17 7.143096e+01 1.588900e+02 2.164643e-17 7.312556e-01 2.214660e-01 -1.389350e-18
1.9            7.281134e+01 1.606415e+02 1.983420e-17 7.209885e+01 1.604141e+02 2.122636e-17 7.124889e-01 2.273067e-01 -1.392156e-18
1.95           7.340866e+01 1.621245e+02 1.944322e-17 7.271466e+01 1.618909e+02 2.083687e-17 6.939968e-01 2.336638e-01 -1.393656e-18
2              7.400037e+01 1.636255e+02 1.908050e-17 7.332570e+01 1.633872e+02 2.047370e-17 6.746700e-01 2.383334e-01 -1.393199e-18
2.05           7.464237e+01 1.651964e+02 1.870938e-17 7.398610e+01 1.649513e+02 2.009375e-17 6.562749e-01 2.451236e-01 -1.384373e-18
2.1            7.510621e+01 1.663852e+02 1.834147e-17 7.447235e+01 1.661378e+02 1.972029e-17 6.338540e-01 2.473800e-01 -1.378819e-18
2.15           7.572039e+01 1.678219e+02 1.795925e-17 7.511055e+01 1.675699e+02 1.933913e-17 6.098365e-01 2.520130e-01 -1.379884e-18
2.2            7.624122e+01 1.690667e+02 1.763443e-17 7.565671e+01 1.688080e+02 1.902228e-17 5.845163e-01 2.586633e-01 -1.387851e-18
2.25           7.674178e+01 1.702985e+02 1.737953e-17 7.618384e+01 1.700285e+02 1.878223e-17 5.579374e-01 2.700122e-01 -1.402699e-18
2.3            7.714128e+01 1.713373e+02 1.715283e-17 7.661407e+01 1.710561e+02 1.858257e-17 5.272094e-01 2.812004e-01 -1.429734e-18
2.35           7.757754e+01 1.724373e+02 1.696749e-17 7.708179e+01 1.721433e+02 1.842452e-17 4.957553e-01 2.939369e-01 -1.457028e-18
2.4            7.793194e+01 1.733529e+02 1.682536e-17 7.746725e+01 1.730465e+02 1.830393e-17 4.646924e-01 3.064138e-01 -1.478564e-18
2.45           7.824185e+01 1.741430e+02 1.671211e-17 7.780527e+01 1.738251e+02 1.821158e-17 4.365830e-01 3.178560e-01 -1.499467e-18
2.5            7.857076e+01 1.749087e+02 1.662307e-17 7.815736e+01 1.745807e+02 1.814356e-17 4.133965e-01 3.280239e-01 -1.520496e-18
2.55           7.889020e+01 1.756095e+02 1.656158e-17 7.849636e+01 1.752736e+02 1.810062e-17 3.938373e-01 3.358548e-01 -1.539040e-18
2.6            7.915388e+01 1.761430e+02 1.653256e-17 7.877596e+01 1.758012e+02 1.808794e-17 3.779241e-01 3.417900e-01 -1.555380e-18
2.65           7.944579e+01 1.767106e+02 1.653665e-17 7.908119e+01 1.763629e+02 1.810824e-17 3.646037e-01 3.476519e-01 -1.571598e-18
2.7            7.970942e+01 1.771421e+02 1.653502e-17 7.935529e+01 1.767911e+02 1.812164e-17 3.541276e-01 3.510453e-01 -1.586620e-18
2.75           8.007509e+01 1.776847e+02 1.651214e-17 7.972662e+01 1.773326e+02 1.811220e-17 3.484670e-01 3.521114e-01 -1.600061e-18
2.8            8.064942e+01 1.785624e+02 1.644062e-17 8.030282e+01 1.782121e+02 1.804970e-17 3.465997e-01 3.502817e-01 -1.609083e-18
2.85           8.117898e+01 1.792705e+02 1.635031e-17 8.082868e+01 1.789227e+02 1.796636e-17 3.503003e-01 3.478516e-01 -1.616058e-18
2.9            8.188589e+01 1.802923e+02 1.624885e-17 8.152695e+01 1.799490e+02 1.787036e-17 3.589327e-01 3.432604e-01 -1.621504e-18
2.95           8.251863e+01 1.811133e+02 1.612696e-17 8.214657e+01 1.807763e+02 1.775545e-17 3.720556e-01 3.369663e-01 -1.628495e-18
3              8.336256e+01 1.823029e+02 1.596705e-17 8.297197e+01 1.819728e+02 1.760238e-17 3.905888e-01 3.301764e-01 -1.635326e-18
3.05           8.417330e+01 1.834090e+02 1.580793e-17 8.376160e+01 1.830891e+02 1.744332e-17 4.117018e-01 3.199728e-01 -1.635388e-18
3.1            8.500083e+01 1.845190e+02 1.562093e-17 8.456468e+01 1.842096e+02 1.724685e-17 4.361506e-01 3.093812e-01 -1.625919e-18
3.15           8.591430e+01 1.858116e+02 1.545028e-17 8.545141e+01 1.855149e+02 1.705763e-17 4.628833e-01 2.967097e-01 -1.607356e-18
3.2            8.690481e+01 1.872230e+02 1.524061e-17 8.641290e+01 1.869390e+02 1.682155e-17 4.919110e-01 2.840142e-01 -1.580938e-18
3.25           8.793445e+01 1.887230e+02 1.505157e-17 8.741137e+01 1.884515e+02 1.660219e-17 5.230844e-01 2.715639e-01 -1.550620e-18
3.3            8.892030e+01 1.901178e+02 1.486786e-17 8.836406e+01 1.898585e+02 1.638460e-17 5.562450e-01 2.593290e-01 -1.516742e-18
3.35           8.985814e+01 1.914158e+02 1.469340e-17 8.926593e+01 1.911684e+02 1.617567e-17 5.922097e-01 2.473801e-01 -1.482264e-18
3.4            9.077333e+01 1.926480e+02 1.455978e-17 9.014211e+01 1.924134e+02 1.601024e-17 6.312201e-01 2.345330e-01 -1.450462e-18
3.45           9.154972e+01 1.936256e+02 1.448883e-17 9.087633e+01 1.934051e+02 1.591191e-17 6.733897e-01 2.205151e-01 -1.423086e-18
3.5            9.225534e+01 1.944021e+02 1.448036e-17 9.153597e+01 1.941971e+02 1.587961e-17 7.193695e-01 2.050616e-01 -1.399253e-18
3.55           9.284552e+01 1.950133e+02 1.452462e-17 9.207681e+01 1.948247e+02 1.590568e-17 7.687128e-01 1.886490e-01 -1.381061e-18
3.6            9.324151e+01 1.951986e+02 1.462483e-17 9.242110e+01 1.950278e+02 1.599267e-17 8.204031e-01 1.707738e-01 -1.367836e-18
3.65           9.351876e+01 1.951383e+02 1.475359e-17 9.264388e+01 1.949863e+02 1.611092e-17 8.748844e-01 1.519537e-01 -1.357331e-18
3.7            9.363781e+01 1.947290e+02 1.489559e-17 9.270721e+01 1.945982e+02 1.624369e-17 9.305965e-01 1.308582e-01 -1.348105e-18
3.75           9.355119e+01 1.939562e+02 1.506775e-17 9.256348e+01 1.938467e+02 1.640780e-17 9.877154e-01 1.094497e-01 -1.340052e-18
3.8            9.330262e+01 1.928223e+02 1.524490e-17 9.225757e+01 1.927344e+02 1.657767e-17 1.045045e+00 8.791554e-02 -1.332768e-18
3.85           9.292666e+01 1.914302e+02 1.542812e-17 9.182568e+01 1.913665e+02 1.675559e-17 1.100982e+00 6.368472e-02 -1.327472e-18
3.9            9.225786e+01 1.894712e+02 1.566438e-17 9.110144e+01 1.894320e+02 1.698921e-17 1.156420e+00 3.914290e-02 -1.324829e-18
3.95           9.145837e+01 1.872150e+02 1.588244e-17 9.024723e+01 1.872005e+02 1.720228e-17 1.211135e+00 1.454769e-02 -1.319843e-18
4              9.043521e+01 1.844752e+02 1.609668e-17 8.916933e+01 1.844853e+02 1.740912e-17 1.265877e+00 -1.007812e-02 -1.312438e-18
4.05           8.912997e+01 1.811239e+02 1.631391e-17 8.780931e+01 1.811601e+02 1.761977e-17 1.320666e+00 -3.622808e-02 -1.305860e-18
4.1            8.770731e+01 1.774076e+02 1.646949e-17 8.633138e+01 1.774718e+02 1.776678e-17 1.375922e+00 -6.418453e-02 -1.297295e-18
4.15           8.608272e+01 1.732513e+02 1.660008e-17 8.465000e+01 1.733435e+02 1.788788e-17 1.432725e+00 -9.222127e-02 -1.287797e-18
4.2            8.432244e+01 1.686613e+02 1.664603e-17 8.283075e+01 1.687827e+02 1.792215e-17 1.491688e+00 -1.213978e-01 -1.276129e-18
4.25           8.232596e+01 1.634533e+02 1.661745e-17 8.077301e+01 1.636057e+02 1.788010e-17 1.552950e+00 -1.523788e-01 -1.262650e-18
4.3            8.014310e+01 1.576789e+02 1.648191e-17 7.852618e+01 1.578671e+02 1.772327e-17 1.616920e+00 -1.882001e-01 -1.241364e-18
4.35           7.786130e+01 1.514903e+02 1.622731e-17 7.617705e+01 1.517185e+02 1.744387e-17 1.684256e+00 -2.281666e-01 -1.216566e-18
4.4            7.542554e+01 1.448329e+02 1.587465e-17 7.366887e+01 1.451064e+02 1.706456e-17 1.756670e+00 -2.735074e-01 -1.189913e-18
4.45           7.276964e+01 1.373954e+02 1.544914e-17 7.093487e+01 1.377226e+02 1.661028e-17 1.834773e+00 -3.272827e-01 -1.161139e-18
4.5            7.007714e+01 1.296064e+02 1.500347e-17 6.815011e+01 1.299982e+02 1.614062e-17 1.927031e+00 -3.918429e-01 -1.137152e-18
4.55           6.728703e+01 1.212877e+02 1.451899e-17 6.525013e+01 1.217582e+02 1.563394e-17 2.036906e+00 -4.704871e-01 -1.114949e-18
4.6            6.466481e+01 1.130014e+02 1.406461e-17 6.249217e+01 1.135662e+02 1.516821e-17 2.172644e+00 -5.648547e-01 -1.103599e-18
4.65           6.238256e+01 1.049553e+02 1.374551e-17 6.003887e+01 1.056294e+02 1.485137e-17 2.343688e+00 -6.741675e-01 -1.105864e-18
4.7            6.009002e+01 9.636320e+01 1.346999e-17 5.754045e+01 9.715185e+01 1.457821e-17 2.549568e+00 -7.886478e-01 -1.108216e-18
4.75           5.820295e+01 8.809048e+01 1.324969e-17 5.541616e+01 8.899515e+01 1.436377e-17 2.786792e+00 -9.046689e-01 -1.114077e-18
4.8            5.668867e+01 8.022012e+01 1.298968e-17 5.364300e+01 8.123373e+01 1.409918e-17 3.045669e+00 -1.013608e+00 -1.109500e-18
4.85           5.558483e+01 7.324415e+01 1.265136e-17 5.226628e+01 7.435300e+01 1.374419e-17 3.318545e+00 -1.108843e+00 -1.092828e-18
4.9            5.513673e+01 6.758918e+01 1.237869e-17 5.153803e+01 6.879820e+01 1.345574e-17 3.598707e+00 -1.209025e+00 -1.077057e-18
4.95           5.535560e+01 6.347481e+01 1.231039e-17 5.147787e+01 6.481705e+01 1.338225e-17 3.877728e+00 -1.342244e+00 -1.071863e-18
5              5.624804e+01 6.082832e+01 1.226428e-17 5.208699e+01 6.234376e+01 1.333666e-17 4.161048e+00 -1.515433e+00 -1.072376e-18
5.05           5.801147e+01 6.017126e+01 1.217568e-17 5.356038e+01 6.188260e+01 1.324883e-17 4.451086e+00 -1.711342e+00 -1.073152e-18
5.1            6.076512e+01 6.177746e+01 1.215853e-17 5.601801e+01 6.367652e+01 1.323337e-17 4.747120e+00 -1.899060e+00 -1.074841e-18
5.15           6.415347e+01 6.524943e+01 1.214957e-17 5.910033e+01 6.731775e+01 1.322696e-17 5.053144e+00 -2.068323e+00 -1.077389e-18
5.2            6.797230e+01 7.036732e+01 1.209102e-17 6.261124e+01 7.257859e+01 1.315669e-17 5.361052e+00 -2.211272e+00 -1.065666e-18
5.25           7.147069e+01 7.563827e+01 1.183823e-17 6.581593e+01 7.797652e+01 1.286553e-17 5.654757e+00 -2.338250e+00 -1.027303e-18
5.3            7.461183e+01 8.091610e+01 1.135905e-17 6.870003e+01 8.336739e+01 1.232910e-17 5.911798e+00 -2.451287e+00 -9.700505e-19
5.35           7.714792e+01 8.539578e+01 1.076456e-17 7.101427e+01 8.795066e+01 1.168009e-17 6.133647e+00 -2.554885e+00 -9.155307e-19
5.4            7.938930e+01 8.970107e+01 1.014160e-17 7.306510e+01 9.234648e+01 1.099962e-17 6.324200e+00 -2.645404e+00 -8.580160e-19
5.45           8.105809e+01 9.320475e+01 9.511432e-18 7.457124e+01 9.592458e+01 1.031665e-17 6.486856e+00 -2.719829e+00 -8.052188e-19
5.5            8.208795e+01 9.559248e+01 8.892654e-18 7.546045e+01 9.837265e+01 9.649319e-18 6.627496e+00 -2.780170e+00 -7.566655e-19
5.55           8.288459e+01 9.782316e+01 8.307765e-18 7.614098e+01 1.006516e+02 9.018524e-18 6.743605e+00 -2.828484e+00 -7.107593e-19
5.6            8.286994e+01 9.840500e+01 7.714363e-18 7.603299e+01 1.012722e+02 8.383838e-18 6.836945e+00 -2.867239e+00 -6.694750e-19
5.65           8.245006e+01 9.828352e+01 7.168129e-18 7.554096e+01 1.011815e+02 7.802636e-18 6.909096e+00 -2.897982e+00 -6.345065e-19
5.7            8.184930e+01 9.793877e+01 6.686243e-18 7.488810e+01 1.008591e+02 7.290950e-18 6.961194e+00 -2.920354e+00 -6.047073e-19
5.75           8.085531e+01 9.685697e+01 6.265080e-18 7.385893e+01 9.979206e+01 6.842024e-18 6.996381e+00 -2.935095e+00 -5.769440e-19
5.8            7.967013e+01 9.549603e+01 5.910955e-18 7.265535e+01 9.843843e+01 6.457986e-18 7.014785e+00 -2.942397e+00 -5.470316e-19
5.85           7.818199e+01 9.358171e+01 5.604099e-18 7.116360e+01 9.652384e+01 6.121328e-18 7.018387e+00 -2.942130e+00 -5.172293e-19
5.9            7.633539e+01 9.101494e+01 5.334579e-18 6.932741e+01 9.394871e+01 5.820658e-18 7.007976e+00 -2.933763e+00 -4.860790e-19
5.95           7.452229e+01 8.861976e+01 5.123646e-18 6.754087e+01 9.153895e+01 5.583126e-18 6.981419e+00 -2.919186e+00 -4.594801e-19
6              7.257178e+01 8.612275e+01 4.969800e-18 6.563373e+01 8.901966e+01 5.409463e-18 6.938044e+00 -2.896905e+00 -4.396636e-19
6.05           7.081512e+01 8.428450e+01 4.932780e-18 6.393457e+01 8.714835e+01 5.363582e-18 6.880547e+00 -2.863849e+00 -4.308020e-19
6.1            6.898877e+01 8.229457e+01 4.971405e-18 6.217672e+01 8.511544e+01 5.396243e-18 6.812047e+00 -2.820868e+00 -4.248383e-19
6.15           6.710731e+01 8.024269e+01 5.065371e-18 6.037125e+01 8.301231e+01 5.490899e-18 6.736057e+00 -2.769623e+00 -4.255280e-19
6.2            6.502320e+01 7.782399e+01 5.161378e-18 5.837467e+01 8.053487e+01 5.591023e-18 6.648527e+00 -2.710881e+00 -4.296449e-19
6.25           6.273675e+01 7.510899e+01 5.241353e-18 5.619174e+01 7.775769e+01 5.675577e-18 6.545008e+00 -2.648699e+00 -4.342245e-19
6.3            6.068415e+01 7.311701e+01 5.326998e-18 5.426518e+01 7.569831e+01 5.773135e-18 6.418967e+00 -2.581297e+00 -4.461363e-19
6.35           5.885284e+01 7.164595e+01 5.426092e-18 5.258311e+01 7.415468e+01 5.891670e-18 6.269724e+00 -2.508727e+00 -4.655781e-19
6.4            5.723114e+01 7.082436e+01 5.505078e-18 5.113529e+01 7.325322e+01 5.997402e-18 6.095847e+00 -2.428859e+00 -4.923233e-19
6.45           5.592255e+01 7.070673e+01 5.596103e-18 5.002755e+01 7.304527e+01 6.122978e-18 5.894994e+00 -2.338538e+00 -5.268753e-19
6.5            5.515799e+01 7.182705e+01 5.738978e-18 4.948883e+01 7.406219e+01 6.310109e-18 5.669166e+00 -2.235140e+00 -5.711304e-19
6.55           5.456143e+01 7.328232e+01 5.888631e-18 4.913929e+01 7.539975e+01 6.511144e-18 5.422142e+00 -2.117431e+00 -6.225130e-19
6.6            5.419666e+01 7.510718e+01 6.037534e-18 4.903601e+01 7.709427e+01 6.714629e-18 5.160644e+00 -1.987090e+00 -6.770958e-19
6.65           5.408763e+01 7.752041e+01 6.158895e-18 4.919678e+01 7.936442e+01 6.891782e-18 4.890847e+00 -1.844013e+00 -7.328873e-19
6.7            5.422151e+01 8.050725e+01 6.278641e-18 4.960649e+01 8.219862e+01 7.071328e-18 4.615022e+00 -1.691366e+00 -7.926870e-19
6.75           5.473770e+01 8.415991e+01 6.395355e-18 5.040251e+01 8.569191e+01 7.247380e-18 4.335186e+00 -1.531995e+00 -8.520251e-19
6.8            5.564836e+01 8.863783e+01 6.543642e-18 5.159700e+01 9.000653e+01 7.457040e-18 4.051367e+00 -1.368697e+00 -9.133980e-19
6.85           5.690615e+01 9.397718e+01 6.717407e-18 5.314214e+01 9.518443e+01 7.689096e-18 3.764013e+00 -1.207253e+00 -9.716897e-19
6.9            5.866298e+01 1.002841e+02 6.951176e-18 5.518864e+01 1.013378e+02 7.974108e-18 3.474333e+00 -1.053672e+00 -1.022933e-18
6.95           6.053017e+01 1.068483e+02 7.284318e-18 5.734460e+01 1.077556e+02 8.354609e-18 3.185572e+00 -9.072827e-01 -1.070291e-18
7              6.260363e+01 1.137874e+02 7.751422e-18 5.969657e+01 1.145564e+02 8.872142e-18 2.907063e+00 -7.689702e-01 -1.120721e-18
7.05           6.479537e+01 1.207287e+02 8.341256e-18 6.214457e+01 1.213660e+02 9.515831e-18 2.650800e+00 -6.373021e-01 -1.174576e-18
7.1            6.694375e+01 1.273124e+02 8.958814e-18 6.452146e+01 1.278248e+02 1.018621e-17 2.422293e+00 -5.124076e-01 -1.227399e-18
7.15           6.914966e+01 1.338500e+02 9.695020e-18 6.692859e+01 1.342459e+02 1.097422e-17 2.221070e+00 -3.959342e-01 -1.279203e-18
7.2            7.139758e+01 1.402888e+02 1.041112e-17 6.935428e+01 1.405743e+02 1.173466e-17 2.043300e+00 -2.855547e-01 -1.323538e-18
7.25           7.352440e+01 1.463504e+02 1.111805e-17 7.164309e+01 1.465355e+02 1.247704e-17 1.881307e+00 -1.851399e-01 -1.358984e-18
7.3            7.549268e+01 1.517409e+02 1.181169e-17 7.375832e+01 1.518367e+02 1.319405e-17 1.734359e+00 -9.577610e-02 -1.382368e-18
7.35           7.725854e+01 1.565634e+02 1.247669e-17 7.565819e+01 1.565830e+02 1.387512e-17 1.600355e+00 -1.960622e-02 -1.398433e-18
7.4            7.856934e+01 1.601613e+02 1.311846e-17 7.708944e+01 1.601133e+02 1.452927e-17 1.479901e+00 4.806934e-02 -1.410804e-18
7.45           7.986853e+01 1.633480e+02 1.378950e-17 7.848815e+01 1.632397e+02 1.520651e-17 1.380383e+00 1.083034e-01 -1.417005e-18
7.5            8.092173e+01 1.657479e+02 1.450469e-17 7.961767e+01 1.655883e+02 1.592827e-17 1.304058e+00 1.595797e-01 -1.423578e-18
7.55           8.169136e+01 1.672390e+02 1.527397e-17 8.043606e+01 1.670403e+02 1.670762e-17 1.255296e+00 1.986909e-01 -1.433645e-18
7.6            8.226278e+01 1.681428e+02 1.611064e-17 8.102288e+01 1.679251e+02 1.756279e-17 1.239905e+00 2.176956e-01 -1.452153e-18
7.65           8.250316e+01 1.681261e+02 1.699917e-17 8.124442e+01 1.679178e+02 1.847229e-17 1.258737e+00 2.083545e-01 -1.473113e-18
7.7            8.250093e+01 1.673305e+02 1.773838e-17 8.119586e+01 1.671526e+02 1.922513e-17 1.305069e+00 1.779893e-01 -1.486749e-18
7.75           8.195700e+01 1.650068e+02 1.822104e-17 8.059357e+01 1.648628e+02 1.970509e-17 1.363436e+00 1.440463e-01 -1.484046e-18
7.8            8.085952e+01 1.610941e+02 1.843594e-17 7.943593e+01 1.609891e+02 1.990705e-17 1.423591e+00 1.050022e-01 -1.471113e-18
7.85           7.952837e+01 1.562509e+02 1.832384e-17 7.803581e+01 1.561941e+02 1.977047e-17 1.492562e+00 5.674362e-02 -1.446623e-18
7.9            7.774399e+01 1.502238e+02 1.783934e-17 7.617526e+01 1.502209e+02 1.924707e-17 1.568731e+00 2.804117e-03 -1.407735e-18
7.95           7.588853e+01 1.435150e+02 1.707080e-17 7.423825e+01 1.435713e+02 1.842748e-17 1.650288e+00 -5.631637e-02 -1.356679e-18
8              7.387241e+01 1.361537e+02 1.599569e-17 7.212992e+01 1.362783e+02 1.728858e-17 1.742489e+00 -1.245864e-01 -1.292889e-18
8.05           7.202492e+01 1.288198e+02 1.477081e-17 7.017482e+01 1.290271e+02 1.599383e-17 1.850101e+00 -2.072086e-01 -1.223011e-18
8.1            7.042836e+01 1.219634e+02 1.365370e-17 6.845270e+01 1.222716e+02 1.481663e-17 1.975657e+00 -3.082260e-01 -1.162929e-18
8.15           6.939262e+01 1.163446e+02 1.279118e-17 6.726882e+01 1.167727e+02 1.391383e-17 2.123797e+00 -4.281018e-01 -1.122648e-18
8.2            6.897118e+01 1.122375e+02 1.230347e-17 6.666836e+01 1.127951e+02 1.341972e-17 2.302821e+00 -5.576885e-01 -1.116245e-18
8.25           6.892481e+01 1.089404e+02 1.195225e-17 6.642936e+01 1.096137e+02 1.307350e-17 2.495455e+00 -6.732500e-01 -1.121248e-18
8.3            6.907366e+01 1.063442e+02 1.144230e-17 6.639893e+01 1.070909e+02 1.254886e-17 2.674733e+00 -7.466655e-01 -1.106557e-18
8.35           6.940583e+01 1.052903e+02 1.089621e-17 6.658601e+01 1.060587e+02 1.198493e-17 2.819821e+00 -7.684292e-01 -1.088726e-18
8.4            6.979887e+01 1.053531e+02 1.051552e-17 6.688355e+01 1.061338e+02 1.159932e-17 2.915322e+00 -7.807020e-01 -1.083799e-18
8.45           6.982508e+01 1.053358e+02 1.008511e-17 6.686171e+01 1.061606e+02 1.116798e-17 2.963372e+00 -8.248609e-01 -1.082873e-18
8.5            6.991859e+01 1.059291e+02 9.606987e-18 6.694046e+01 1.068048e+02 1.069107e-17 2.978138e+00 -8.756538e-01 -1.084087e-18
8.55           7.006455e+01 1.069281e+02 9.189722e-18 6.709080e+01 1.078409e+02 1.028372e-17 2.973752e+00 -9.127940e-01 -1.093994e-18
8.6            7.004993e+01 1.078774e+02 8.806079e-18 6.709897e+01 1.088065e+02 9.912765e-18 2.950955e+00 -9.290466e-01 -1.106686e-18
8.65           7.008927e+01 1.092175e+02 8.447929e-18 6.718348e+01 1.101336e+02 9.563560e-18 2.905784e+00 -9.160679e-01 -1.115631e-18
8.7            6.972602e+01 1.099673e+02 8.079436e-18 6.688900e+01 1.108428e+02 9.193914e-18 2.837021e+00 -8.755811e-01 -1.114478e-18
8.75           6.928577e+01 1.107663e+02 7.662295e-18 6.653579e+01 1.115833e+02 8.764887e-18 2.749983e+00 -8.170592e-01 -1.102592e-18
8.8            6.895899e+01 1.120388e+02 7.303385e-18 6.631289e+01 1.127906e+02 8.389353e-18 2.646104e+00 -7.518172e-01 -1.085968e-18
8.85           6.863491e+01 1.133725e+02 7.027373e-18 6.610859e+01 1.140520e+02 8.092754e-18 2.526315e+00 -6.794865e-01 -1.065381e-18
8.9            6.853983e+01 1.151841e+02 6.811698e-18 6.614406e+01 1.157815e+02 7.854749e-18 2.395773e+00 -5.973443e-01 -1.043051e-18
8.95           6.879012e+01 1.179494e+02 6.724272e-18 6.652745e+01 1.184536e+02 7.748508e-18 2.262668e+00 -5.042041e-01 -1.024236e-18
9              6.916623e+01 1.209429e+02 6.776305e-18 6.703216e+01 1.213470e+02 7.786771e-18 2.134070e+00 -4.041323e-01 -1.010465e-18
9.05           6.991422e+01 1.249161e+02 6.939285e-18 6.790167e+01 1.252256e+02 7.945433e-18 2.012547e+00 -3.094973e-01 -1.006148e-18
9.1            7.074208e+01 1.289846e+02 7.279188e-18 6.883420e+01 1.292085e+02 8.290383e-18 1.907877e+00 -2.238631e-01 -1.011195e-18
9.15           7.171436e+01 1.333264e+02 7.752467e-18 6.989298e+01 1.334887e+02 8.776140e-18 1.821382e+00 -1.623116e-01 -1.023673e-18
9.2            7.253238e+01 1.372755e+02 8.157866e-18 7.078035e+01 1.373964e+02 9.192305e-18 1.752029e+00 -1.208624e-01 -1.034439e-18
9.25           7.344272e+01 1.413167e+02 8.636708e-18 7.174729e+01 1.414170e+02 9.685477e-18 1.695429e+00 -1.002606e-01 -1.048769e-18
9.3            7.431827e+01 1.450848e+02 9.188421e-18 7.266590e+01 1.451781e+02 1.025646e-17 1.652372e+00 -9.323296e-02 -1.068039e-18
9.35           7.504152e+01 1.482401e+02 9.701795e-18 7.342089e+01 1.483334e+02 1.079054e-17 1.620633e+00 -9.334743e-02 -1.088741e-18
9.4            7.558367e+01 1.506848e+02 1.013340e-17 7.398780e+01 1.507798e+02 1.124436e-17 1.595865e+00 -9.499732e-02 -1.110967e-18
9.45           7.595179e+01 1.525510e+02 1.048373e-17 7.437947e+01 1.526465e+02 1.161461e-17 1.572320e+00 -9.555737e-02 -1.130876e-18
9.5            7.617970e+01 1.538455e+02 1.082258e-17 7.462967e+01 1.539360e+02 1.197121e-17 1.550028e+00 -9.057548e-02 -1.148631e-18
9.55           7.630002e+01 1.547369e+02 1.114346e-17 7.477081e+01 1.548172e+02 1.230858e-17 1.529206e+00 -8.038878e-02 -1.165123e-18
9.6            7.651068e+01 1.556728e+02 1.148437e-17 7.499979e+01 1.557379e+02 1.266714e-17 1.510890e+00 -6.509270e-02 -1.182765e-18
9.65           7.677442e+01 1.566373e+02 1.188333e-17 7.527829e+01 1.566820e+02 1.308526e-17 1.496129e+00 -4.467830e-02 -1.201928e-18
9.7            7.703222e+01 1.575066e+02 1.233774e-17 7.555017e+01 1.575272e+02 1.355957e-17 1.482042e+00 -2.060388e-02 -1.221828e-18
9.75           7.725063e+01 1.582519e+02 1.282935e-17 7.577947e+01 1.582498e+02 1.407613e-17 1.471163e+00 2.118310e-03 -1.246783e-18
9.8            7.747012e+01 1.588357e+02 1.336275e-17 7.600245e+01 1.588183e+02 1.463714e-17 1.467667e+00 1.741349e-02 -1.274398e-18
9.85           7.772953e+01 1.593817e+02 1.391352e-17 7.625592e+01 1.593621e+02 1.521364e-17 1.473604e+00 1.957552e-02 -1.300121e-18
9.9            7.778966e+01 1.593414e+02 1.448889e-17 7.629646e+01 1.593299e+02 1.581492e-17 1.493201e+00 1.151022e-02 -1.326027e-18
9.95           7.768571e+01 1.588201e+02 1.504734e-17 7.615950e+01 1.588254e+02 1.639985e-17 1.526214e+00 -5.332225e-03 -1.352508e-18
10             7.752149e+01 1.579857e+02 1.554719e-17 7.595342e+01 1.580135e+02 1.692329e-17 1.568071e+00 -2.780417e-02 -1.376099e-18
10.05          7.720168e+01 1.565870e+02 1.596782e-17 7.558459e+01 1.566415e+02 1.736300e-17 1.617086e+00 -5.450828e-02 -1.395183e-18
10.1           7.672138e+01 1.546368e+02 1.628185e-17 7.504764e+01 1.547227e+02 1.768866e-17 1.673740e+00 -8.584455e-02 -1.406816e-18
10.15          7.615219e+01 1.522116e+02 1.646907e-17 7.441315e+01 1.523330e+02 1.787973e-17 1.739043e+00 -1.213713e-01 -1.410659e-18
10.2           7.553439e+01 1.493966e+02 1.656800e-17 7.371938e+01 1.495589e+02 1.797383e-17 1.815017e+00 -1.623181e-01 -1.405831e-18
10.25          7.476373e+01 1.459303e+02 1.648647e-17 7.286448e+01 1.461382e+02 1.787564e-17 1.899247e+00 -2.078920e-01 -1.389172e-18
10.3           7.383873e+01 1.416597e+02 1.617938e-17 7.184958e+01 1.419177e+02 1.753820e-17 1.989155e+00 -2.579823e-01 -1.358817e-18
10.35          7.277503e+01 1.365188e+02 1.558774e-17 7.068589e+01 1.368342e+02 1.690428e-17 2.089139e+00 -3.153593e-01 -1.316548e-18
10.4           7.158682e+01 1.304539e+02 1.476930e-17 6.938183e+01 1.308385e+02 1.603023e-17 2.204992e+00 -3.845142e-01 -1.260931e-18
10.45          7.035844e+01 1.235977e+02 1.383416e-17 6.801182e+01 1.240650e+02 1.503084e-17 2.346617e+00 -4.672826e-01 -1.196689e-18
10.5           6.933562e+01 1.164253e+02 1.288196e-17 6.681317e+01 1.169968e+02 1.401588e-17 2.522451e+00 -5.714907e-01 -1.133922e-18
10.55          6.863371e+01 1.092197e+02 1.208085e-17 6.588645e+01 1.099207e+02 1.316452e-17 2.747255e+00 -7.009877e-01 -1.083664e-18
10.6           6.863275e+01 1.028240e+02 1.163302e-17 6.560122e+01 1.036841e+02 1.269171e-17 3.031523e+00 -8.600861e-01 -1.058690e-18
10.65          6.951101e+01 9.791279e+01 1.149695e-17 6.613726e+01 9.895998e+01 1.255489e-17 3.373744e+00 -1.047189e+00 -1.057940e-18
10.7           7.138558e+01 9.482207e+01 1.162205e-17 6.762958e+01 9.607497e+01 1.269968e-17 3.756000e+00 -1.252899e+00 -1.077634e-18
10.75          7.428795e+01 9.413193e+01 1.186772e-17 7.012775e+01 9.559855e+01 1.297707e-17 4.160205e+00 -1.466620e+00 -1.109345e-18
10.8           7.770462e+01 9.508076e+01 1.212769e-17 7.313701e+01 9.675897e+01 1.326132e-17 4.567610e+00 -1.678208e+00 -1.133632e-18
10.85          8.149408e+01 9.773395e+01 1.237565e-17 7.653215e+01 9.961146e+01 1.351872e-17 4.961926e+00 -1.877512e+00 -1.143065e-18
10.9           8.532057e+01 1.016855e+02 1.252506e-17 7.998228e+01 1.037410e+02 1.366215e-17 5.338295e+00 -2.055503e+00 -1.137088e-18
10.95          8.874596e+01 1.058064e+02 1.246723e-17 8.305962e+01 1.080202e+02 1.357847e-17 5.686340e+00 -2.213761e+00 -1.111238e-18
11             9.157710e+01 1.096258e+02 1.222876e-17 8.558257e+01 1.119823e+02 1.329280e-17 5.994523e+00 -2.356553e+00 -1.064035e-18
11.05          9.372369e+01 1.126580e+02 1.186568e-17 8.745909e+01 1.151460e+02 1.286110e-17 6.264595e+00 -2.487929e+00 -9.954227e-19
11.1           9.550572e+01 1.155308e+02 1.145151e-17 8.900362e+01 1.181423e+02 1.238682e-17 6.502100e+00 -2.611556e+00 -9.353051e-19
11.15          9.711358e+01 1.185873e+02 1.109265e-17 9.040582e+01 1.213132e+02 1.197151e-17 6.707765e+00 -2.725874e+00 -8.788661e-19