/*--------------------------------*- C++ -*----------------------------------*\
| =========                 |                                                 |
| \\      /  F ield         | OpenFOAM: The Open Source CFD Toolbox           |
|  \\    /   O peration     | Version:  2306                                  |
|   \\  /    A nd           | Website:  www.openfoam.com                      |
|    \\/     M anipulation  |                                                 |
\*---------------------------------------------------------------------------*/
FoamFile
{
    version     2.0;
    format      ascii;
    arch        "LSB;label=32;scalar=64";
    class       surfaceScalarField;
    location    "3.1";
    object      phi;
}
// * * * * * * * * * * * * * * * * * * * * * * * * * * * * * * * * * * * * * //

dimensions      [0 3 -1 0 0 0 0];

oriented        oriented;

internalField   nonuniform List<scalar> 
20045
(
1.31031
-1.48618
0.175871
-2.76756
1.10568
1.66188
0.507092
4.64377
-5.15086
0.0111719
0.23167
-0.242842
-2.16318
2.14541
0.0177738
-1.28172
5.18628
-3.90456
-2.73889
1.29465
1.44424
0.185725
1.10703
-1.29276
1.20274
1.14224
-2.34497
-1.84921
-0.453196
2.3024
-1.0865
0.363859
0.722645
5.53959
-2.93525
-2.60434
0.986802
-0.983285
-0.00351678
-3.11057
2.47503
0.635546
-0.907737
2.84066
-1.93292
-2.66034
0.811135
0.157524
-0.504199
0.346675
4.32977
-3.42845
-0.901326
-4.35837
6.22227
-1.8639
-1.87774
-0.0134669
1.89121
0.192146
-0.592775
0.400629
0.346066
0.640736
-0.486317
-2.28124
1.04975
2.56308
-3.61283
2.16947
0.31322
-2.48269
-2.88914
3.93889
-0.374839
0.51526
-0.14042
-2.54747
4.91005
-2.36259
4.07172
-0.00124282
-4.07048
-4.43425
2.46746
1.9668
-1.89421
-0.166091
2.0603
3.8726
-2.78741
-1.08519
-2.06784
3.59208
-1.52424
5.3939
-3.33424
-2.05966
-1.43423
1.61995
4.65804
-2.30075
-2.3573
2.59376
1.92186
-4.51562
-0.176642
1.04333
-0.866692
-8.92507
7.57882
1.34625
1.66129
1.27273
-2.93402
0.151297
1.02481
-1.1761
0.489831
-0.668284
0.178453
6.97033
-6.94888
-0.0214442
3.63108
-1.21012
-2.42096
1.56448
2.06659
2.80645
2.73315
-0.368483
0.00651241
0.361971
2.23198
1.68125
-3.91323
4.87006
-2.2763
0.286637
4.1745
-4.46114
3.25639
-5.50986
2.25347
10.0834
-5.14106
-4.94232
-2.36295
-2.77523
5.13817
-0.220865
-0.803375
1.02424
4.52182
-1.97701
-2.5448
-1.81054
-0.352644
1.20289
2.61556
-3.81845
6.62555
4.18797
-10.8135
1.83096
-3.8988
4.22361
-3.8673
-0.35631
-0.871258
0.646314
0.224944
0.588243
3.63536
1.79429
-4.11616
2.32187
0.774347
-0.582201
3.53747
-0.885363
-2.6521
2.6903
2.03803
-4.72834
0.314179
-0.376228
0.0620488
-1.69424
0.263734
1.4305
2.21724
-1.01451
3.59445
-3.81523
0.220778
0.421708
-0.107528
-0.0112147
4.53303
-0.762002
-2.58228
3.34429
0.25077
-0.514624
0.263854
3.31236
0.523288
-3.83565
3.25246
-2.04957
-1.40626
4.71862
1.1124
-2.02014
0.271739
-0.531097
0.259358
5.63786
-1.77246
-3.8654
2.19632
2.56048
-4.75681
2.23785
-1.89025
-0.3476
3.4821
-1.68782
-5.48676
0.793182
4.69357
-0.0045677
1.31487
-1.17103
1.54722
-0.376194
4.22188
-2.25885
-1.96302
-4.02571
0.167428
3.85828
2.49177
0.534869
-3.02664
-2.16814
1.82079
0.347349
-4.15901
-0.358584
4.5176
1.8649
-0.30739
-1.55751
1.0526
-1.57175
0.519154
-0.552707
-1.9806
2.53331
1.55004
-1.62884
0.0788082
2.79129
1.22447
-4.01576
-0.715643
0.340804
-0.617865
0.714938
-0.0970731
3.18137
-1.52008
0.202297
-0.498575
0.296279
3.16979
1.48825
-1.27383
-1.83674
-0.173825
-0.44404
-4.81249
11.438
0.0649944
-1.23602
0.482367
-0.28007
1.03999
3.04567
-4.08565
2.12656
-7.00881
4.88225
-0.0967441
-1.18722
1.02155
0.16567
-0.743734
0.918892
-0.175158
3.38331
-2.47518
-0.90813
-1.29066
1.0698
3.98163
-4.95866
0.97703
-0.570933
0.921259
-0.350326
0.14455
-0.896697
0.752147
2.794
-0.624533
4.48002
0.913884
-3.05533
2.29333
2.88054
-5.37763
2.49709
2.99179
1.33798
-0.505871
-0.365387
-2.02527
1.66566
0.359612
-6.79851
0.23802
-1.51392
1.2759
4.37336
5.71002
2.94391
-3.72533
0.781424
3.94348
0.442688
-4.38617
-5.57818
4.89595
0.68223
0.627697
-3.34714
2.71944
9.70931
-5.33594
0.341197
-0.334685
0.976292
-0.906249
-0.0700429
-0.365195
0.293991
0.071204
2.85174
2.00899
-4.86073
3.07708
-2.81003
-0.267045
-0.809176
0.197519
0.611657
-0.833868
-0.353349
5.88389
-3.00335
-1.67274
1.80523
-0.132496
2.96042
-4.86665
1.90624
1.6265
-3.98945
2.68059
1.53598
-4.21657
1.35687
4.28099
6.18397
-0.854452
-5.32952
1.40504
-3.82794
2.4229
4.24333
-3.64465
-0.598679
-0.602765
0.985954
-0.383189
0.0863042
4.63666
-4.72296
4.23764
-0.165922
-4.11829
0.137354
3.98094
-2.47361
2.21589
0.257721
4.25792
-2.0616
0.678037
1.55982
-3.18053
3.76106
-0.58053
-3.78959
4.29668
0.0642601
-1.04813
0.983872
0.97356
-0.899477
-0.0740831
-0.0770012
-0.975112
1.05211
2.68736
0.732153
-3.41952
6.36544
-2.96837
-3.39706
-1.14509
1.06809
1.65491
-3.72943
2.07451
0.605485
-0.115654
-9.95355
-2.40729
3.19285
-0.785557
-3.18039
2.48638
0.694008
-0.0719081
-0.201623
0.273531
0.988615
3.25472
-0.181101
-0.184094
0.36356
0.612732
-3.4187
0.238162
-3.68425
4.67412
-0.989868
-3.45877
3.96979
-0.511019
-2.69579
-1.6713
4.36708
-1.45716
-0.207287
1.66445
1.98213
-2.29824
0.316113
3.75606
0.586466
-4.34253
-0.0123839
-3.70503
3.71741
-2.16596
4.84655
1.08288
-2.86397
1.78109
-1.31911
5.30074
-4.34213
2.91545
1.42668
1.33294
-1.49709
0.164158
1.94457
-5.11017
3.16559
-4.01733
1.46986
-3.49471
-1.22159
4.34682
-2.817
-1.52982
-1.3386
1.4899
0.889605
-0.948149
0.0585445
-2.92351
-2.06514
4.98865
-4.2706
6.34171
-2.07111
11.4193
-7.32973
-4.08958
0.199989
-1.2421
1.04211
0.441396
-8.26962
7.82823
0.0684819
-1.15499
-2.64649
3.27418
-3.26978
-1.07092
4.3407
0.641599
0.158676
-0.800275
0.392392
-2.79968
0.164817
-2.05903
4.1973
-0.253816
-0.877079
0.700437
-0.924088
1.09847
-0.174384
-1.45478
4.14214
-7.35173
7.79313
2.19468
0.336972
-2.53166
-3.57737
0.789641
2.78773
3.4096
8.00971
5.44831
-3.50373
3.13715
-5.10771
1.97056
0.217066
-3.68626
3.46919
0.280952
-2.15869
-2.47196
3.51195
3.1849
-4.46662
0.0660835
-0.480694
0.414611
-4.99602
2.78799
2.20803
-0.318487
-1.84965
0.918471
0.797227
-1.7157
3.17306
-0.79272
-2.38034
-0.341051
-3.17391
3.26021
-1.32396
-0.348781
3.09565
4.79785
-4.70221
-0.0956378
-0.0572779
-0.734079
0.791357
3.25862
0.379781
-3.6384
2.54443
-1.00403
-1.5404
3.18596
-0.711893
-2.47407
2.97056
1.25132
2.97264
-1.88976
-0.200703
1.08642
-0.885718
4.05303
-1.09261
0.637249
-0.0614136
-0.575835
0.963475
-0.885141
-0.0783332
-0.746899
0.775893
-0.0289936
4.35123
-3.06968
-1.28155
1.50907
-5.77967
-0.828236
0.0813369
-4.48738
1.36389
3.12349
4.95081
-1.35873
1.22278
-4.90703
7.83697
-3.94206
-3.89492
-0.099469
0.741068
2.32094
-4.77413
2.45319
-3.01529
0.563501
2.45179
-5.01608
4.97884
0.037241
0.84219
-3.41604
2.57385
0.400045
-0.248243
-0.151802
-2.40759
3.04451
-0.636916
-0.636896
1.25796
-0.621064
-0.850906
0.279973
-0.898471
0.154737
-3.41411
-3.5947
5.12564
-1.20023
-3.92541
1.90429
-1.10381
-0.800475
2.30411
1.56849
-0.0511616
0.117245
0.278554
0.695006
3.10016
1.85065
-2.57177
0.22432
2.34745
4.62228
-2.30134
2.01242
0.828239
1.11087
0.793416
-1.46122
-0.0877898
1.54901
-0.120186
1.45312
-0.538227
3.72419
-1.96135
1.53031
0.43104
-4.51194
4.32431
0.187633
-2.24115
6.03608
-3.79494
-0.838422
-0.697046
1.53547
3.76145
-4.13762
0.37617
-3.08745
-1.90857
6.11004
-4.38479
-1.72525
-0.591421
0.534143
3.86008
-3.01789
2.80052
2.32512
-3.27605
-0.297859
3.57391
4.59735
1.19786
-5.7952
4.3965
-0.229659
-4.16685
-3.61596
0.339907
4.31025
-2.48414
-1.8261
-0.902456
3.95775
-3.05529
2.87577
-4.06221
1.18645
0.168456
0.631224
-0.799681
0.119576
-0.0977692
-0.021807
5.52082
-4.31932
-1.20151
-2.75118
-2.827
4.13476
0.663083
-4.07852
-0.433419
0.560359
0.403116
2.94132
-3.10445
0.163128
0.0249578
0.864647
-2.69153
5.54327
1.16471
3.18652
4.69814
-3.12804
-1.57009
-4.59192
3.521
3.94083
-5.69639
1.75556
-3.08717
-0.299664
3.38683
-1.1141
-0.940916
2.05502
3.55914
-1.90423
-0.211024
2.40571
0.751851
-0.221732
-2.56568
-2.95609
5.51126
-2.55518
-1.09111
0.167017
-0.430474
0.229772
0.558084
-5.57417
3.46285
-0.492284
1.94655
-1.46365
1.90425
-0.440599
0.11153
-0.100358
-2.46374
1.64046
0.823279
1.92137
1.46194
0.0767792
2.13582
-2.2126
2.38439
0.692688
-0.291361
3.23268
2.87989
-0.388124
-1.14378
-2.43359
3.57571
-1.14373
-2.43199
4.61216
-3.72929
4.33815
-0.608861
3.90979
-4.31128
0.401486
-2.29956
1.74685
-0.685948
-0.123228
-0.860969
-3.29804
1.45517
-2.83045
1.37528
2.21028
2.09997
3.66081
-5.02152
1.36071
1.14331
-2.7956
1.65229
-4.86326
0.837547
0.03263
1.83227
-3.45096
4.99754
-1.54658
-1.14849
1.60607
-0.457586
-2.05729
-0.681598
-0.699427
-1.1317
1.83112
0.562585
0.00943153
-0.572016
-1.75592
-0.717683
1.80839
2.25094
-4.05933
1.55061
3.07167
3.03749
-2.23896
-0.060602
2.40272
-1.2594
-3.51902
-0.823108
1.14574
-1.52013
0.374396
4.00714
-1.77516
-2.35906
3.90233
-1.54326
-0.68091
0.791332
-0.110422
3.49493
-0.32187
-3.79625
0.6918
-2.57695
4.75603
-2.17908
3.4051
-5.16095
1.75586
2.23506
3.87499
0.536353
-0.863455
0.327102
0.539434
-3.6266
3.03491
-4.59247
1.55757
0.199011
0.0517583
-0.350974
3.29488
3.80457
-0.341727
-2.73517
2.95223
0.894074
-5.25244
-4.92656
3.13154
1.79502
3.2931
-0.646687
-2.64642
4.65641
-0.894968
-1.64626
-2.2587
-1.99387
1.62846
0.164909
0.198154
-0.363063
1.61282
-1.62629
-3.68694
3.33596
5.48768
1.48265
-4.08139
1.72233
4.7414
-0.606638
-0.444142
1.09552
-0.651373
-0.122005
-2.84803
2.97004
-4.50174
0.84435
3.65739
4.2398
-4.2398
-5.03031
2.85726
2.17305
2.80116
-2.72438
3.12422
-1.97833
-1.14588
-4.66348
4.83294
-0.169456
1.7379
-0.251699
-1.4862
1.3899
-0.498293
-0.891609
0.683949
-1.52237
0.506107
5.27257
-2.47205
-4.01358
4.77466
-0.761082
-1.4598
3.2682
0.343315
0.0747102
-0.418025
-1.42953
1.25981
0.169723
-1.87292
2.15388
4.58185
-3.78258
-0.799275
-0.485626
-2.54389
3.02952
-1.23949
1.31939
-0.0799069
0.781406
-1.44526
0.663851
-5.37384
2.88804
2.4858
-0.00213039
0.233801
-1.02009
0.575948
-0.0276852
-0.480139
0.507824
2.29956
3.22126
0.479581
-0.136266
-0.46726
-1.2315
1.69876
-2.51399
4.06799
-1.554
-0.119094
0.635207
-0.516112
2.3406
-1.04596
2.94455
1.90522
-4.84978
0.200844
-2.18145
0.12323
3.63283
2.1834
1.58455
-3.76795
2.42927
-1.99659
-0.432689
-5.04711
0.928816
-1.93797
0.935
1.00297
1.94581
2.36354
-4.30935
-3.17453
2.87487
0.339183
-4.53302
4.19384
-0.744237
0.944226
1.38916
-1.60664
0.21748
0.092581
-1.5538
-0.265034
0.654073
-0.389039
-3.51189
-0.97549
3.03328
1.25068
0.215986
-1.46666
-0.725898
0.0449883
0.770668
-3.50319
2.73252
0.873734
2.61712
-3.49085
1.21877
-3.53299
4.19921
-0.666222
-3.60837
2.70592
0.441782
0.0734776
-2.01253
-1.16786
-1.36357
0.326292
1.03728
-4.40322
1.88923
3.26326
-3.74888
0.917646
3.82376
-1.50464
1.54182
-0.0371775
1.95055
-4.07982
2.12928
0.883944
-1.4273
0.543358
-0.979776
-2.81647
-3.34901
-0.109761
-1.6902
-0.00403991
0.743533
-0.445161
-0.298372
1.4944
0.127783
-0.21842
0.0906373
4.01061
-2.06479
-1.81774
1.5851
0.23264
1.29899
1.02394
-2.32293
-1.78357
1.03933
-1.17815
-0.185415
1.68332
1.4409
-2.35854
-3.0191
1.54536
-0.399623
3.02161
2.15476
0.725139
-4.14079
4.42743
0.274644
-2.00112
1.72648
-0.445065
-4.12597
4.57103
-1.2491
1.27497
-0.0258682
0.974268
-2.43143
-1.38051
4.25627
4.04656
-2.64151
-1.90695
-0.556787
-0.0564551
-2.07783
2.13429
1.64369
-4.33948
-0.359853
-2.38761
2.74747
-0.408814
0.0735488
0.335266
-3.21085
0.163293
3.04755
4.07939
-2.39814
-0.0553244
0.518527
-0.463203
-1.12368
-0.115805
1.01594
1.76306
-2.779
0.720337
-0.882266
0.161928
2.78767
1.5697
-4.35737
-1.96396
4.75525
0.554128
0.00845684
-0.906779
-6.10383
7.01061
2.75675
3.12714
4.22321
-3.34948
-1.82504
1.12561
-0.162775
0.282351
-1.50416
5.44499
0.667498
-3.83209
3.1646
4.28941
-0.670953
-3.61846
-1.97819
3.32621
-1.34801
1.94296
-1.55595
-2.3374
3.89335
0.499028
-0.566261
0.0672326
-1.42425
-2.41772
3.84196
-0.27503
-1.1545
0.244665
-0.316573
2.54096
-3.9652
-3.52652
-1.05289
4.57942
-0.197443
-2.48159
2.67903
0.903586
5.58572
-5.81086
0.225147
1.12349
-0.626013
-0.497476
0.0611543
-1.5658
1.25921
1.2741
-1.60014
0.486034
-3.93743
4.98347
-1.04604
-1.08844
-0.872902
6.21306
-4.85619
-5.37801
-1.57088
-0.2559
0.0207044
0.235196
2.65426
-0.499504
-1.0467
1.1589
-0.112201
0.287418
-0.924314
-5.21537
1.72067
4.4042
0.782083
-0.518345
1.29975
-1.11234
2.41133
2.82186
2.45071
-1.08777
0.0410629
-0.47953
-3.20741
1.21466
1.14905
-1.08479
-4.58056
0.0788275
0.0985261
1.11197
-0.228022
-4.81984
2.35471
2.46513
3.0768
0.517658
1.02777
-0.358577
-0.669198
1.40001
-1.31938
-0.0806335
-3.60244
1.3017
-5.29448
2.71753
-1.06579
2.12632
-1.06053
-0.30185
1.14345
-0.841602
5.37225
-0.0665504
-5.3057
0.970226
0.0680714
-1.0383
-0.672656
-1.35261
1.20195
-0.149354
1.20838
-1.14199
-0.0663893
1.97019
-0.326779
-1.64341
0.119895
1.08848
3.69869
-2.47422
-0.142713
-0.749262
0.891975
-5.07818
1.14075
-0.107936
-0.806701
0.632875
-0.87394
2.12462
0.4151
-0.136546
1.28991
0.775655
-2.06557
2.64909
0.888378
1.92888
-1.65423
1.13297
-0.988425
0.476328
-1.62481
2.75149
-4.98814
2.23665
2.76128
-0.318651
-2.44263
-2.70931
-1.11863
-0.656561
-0.564905
1.22147
1.71977
-2.06296
0.34319
5.39878
-0.116361
-5.28242
-1.41953
-0.0757632
1.49529
-2.45717
3.38525
-0.928083
2.52514
2.73321
-5.25835
0.815922
-0.169608
-1.32746
2.22557
-0.898109
1.15147
0.440908
-1.59238
-4.443
2.06324
2.37976
-0.9619
-0.180091
-4.22744
0.700915
1.60007
-0.948853
-0.651217
2.21557
-2.98443
0.768855
-0.498336
-0.987839
0.697574
4.88814
4.10647
-0.690625
-3.41584
-4.09133
0.558344
1.6236
-2.76739
4.1574
-6.97438
2.81698
-0.550594
1.46906
-0.17929
-1.90726
1.44
-0.830539
1.06856
0.0789111
-4.81269
4.73377
1.30181
2.55827
-3.59864
3.84251
-0.24387
0.542565
0.200968
-3.46133
-1.09962
-0.637486
0.709543
-0.0720574
3.17838
-2.62787
-0.550504
0.756958
-0.119115
-0.637844
-0.531703
2.74728
-3.39603
-1.48241
4.87844
-3.9553
-1.21237
5.16767
2.28885
-1.87413
-0.414723
-1.16356
0.135546
1.02801
-1.43312
0.39376
1.03936
-4.74235
0.195128
4.54723
0.114749
0.989843
-1.10459
3.86975
-4.33424
0.464491
-2.37239
3.93357
0.11328
-4.04685
0.0506521
-0.688138
1.73774
-2.97875
1.24101
3.91471
-5.23383
-4.73065
4.11291
0.617747
0.870924
-0.150587
0.901034
5.31203
-0.395246
-1.06027
1.45552
-0.0524944
0.878924
-0.82643
-1.50372
4.27408
-2.77035
2.29767
-3.98164
1.68398
5.02011
-4.82356
-0.196548
3.77692
-1.69053
-2.08638
0.204055
-1.16954
0.965485
-1.48284
-0.0310803
-5.16786
4.55786
0.609996
0.283749
-5.4516
-0.338881
4.26887
-3.92999
-2.73707
-1.58224
1.04009
-0.861083
-0.179003
-3.97651
-1.10167
-0.985443
0.671567
0.313876
2.02359
0.520838
-4.68391
4.4494
0.234503
-0.814778
-0.485611
-0.0290135
1.03455
-0.0643211
-2.90082
0.493225
0.794374
-0.908134
0.11376
-4.04242
2.38934
1.65309
1.80316
-0.0652605
-1.34043
2.86335
0.631581
1.83439
0.365029
2.61421
-2.97924
-0.665004
2.64713
-3.20898
1.98946
1.21952
-1.1613
0.199397
3.7191
-2.41729
3.45239
-1.50185
-0.920575
-0.943491
1.86407
-0.0693971
-2.58093
2.65033
2.83146
-3.02891
4.18717
-1.79698
-2.3902
-0.0310355
-2.64059
-0.568385
-2.03001
3.9172
-1.88719
0.438955
-1.20128
4.33843
-5.19765
1.22114
0.763893
-0.595437
-0.657784
0.226466
0.802943
-0.0270505
-2.03674
-2.1892
4.33194
-1.07948
0.295096
-0.0484178
-0.246678
0.271856
1.11805
-4.14168
-2.26074
6.40243
1.29448
2.26466
-0.0125701
-0.759069
0.771639
4.10074
-1.24294
-0.126086
1.36903
-1.68489
4.43638
-1.89799
-4.84661
0.833034
-1.09022
0.049208
1.04101
3.83793
3.99904
3.44738
-1.24345
-2.20393
4.82825
0.19186
2.99556
-4.28446
1.2889
-4.05183
-0.0276657
4.0795
-4.07102
5.27763
-1.20661
0.730021
-0.016229
-0.713792
-1.58218
5.49689
-1.31746
1.85401
-0.536546
0.226844
-3.82548
1.87854
-0.45228
-1.42626
-4.56119
5.88938
-1.32819
-1.28168
2.78205
-1.50037
5.80404
-2.55532
-3.24872
0.107865
-3.00771
2.89984
-1.39816
-0.208479
-2.15068
4.67583
-2.30677
-2.72355
4.90328
-1.49818
-0.92687
0.784157
-4.23169
0.179855
5.30662
-1.64581
0.0817696
-5.56853
1.16009
-0.135282
-0.866014
7.52738
-6.66136
2.77442
-0.741127
-2.03329
1.75713
-3.91151
2.15438
-0.889761
0.0570926
0.832668
-1.08696
-2.37105
3.45801
1.79341
-1.31708
-4.49805
1.83289
2.66516
0.717913
1.19708
-1.91499
0.397449
0.642637
-5.65237
6.65198
-0.99961
-1.01838
-0.230717
2.18909
1.1019
-3.291
2.59183
1.5638
-4.15563
0.888372
2.40473
-0.123122
6.30709
-0.0102754
3.91083
-3.90055
-0.13266
0.0135655
0.515432
-0.193518
-0.321914
3.50905
-3.61795
0.108895
1.86689
2.32028
-0.590893
0.332526
0.258368
-1.31327
3.95759
-2.64431
0.0207188
0.880957
-0.901676
0.726752
-1.2664
0.539647
-2.53283
-1.58863
4.12146
3.82025
-0.561627
1.3756
1.39881
-3.39778
-3.49185
6.88963
1.47205
-4.01595
0.149728
0.113921
-0.263649
0.980949
-0.292989
-0.68796
-0.0281384
-1.37002
-0.346272
4.30183
-3.95556
-0.530564
4.70507
3.77286
-3.13414
-0.638728
3.1996
-2.66473
-2.57403
0.972987
1.60104
0.113362
-2.09169
-0.367751
0.810182
-0.442431
0.327028
0.700747
0.739166
3.6311
-4.37027
1.02617
0.944016
0.673315
-4.62861
-2.10046
0.92102
1.17944
-1.5935
-1.27307
2.86657
2.42563
-1.13572
-4.1998
2.74
1.863
-1.39034
-0.472667
-6.30214
3.32494
2.97719
-2.12384
2.32469
-2.23635
3.00119
-0.764834
-7.07773
8.82634
-1.74861
-0.114712
1.04336
-0.928652
-1.04311
0.741255
0.246058
-2.65702
8.1716
-5.51458
-2.65943
3.44907
2.45614
-2.61563
0.159483
1.21003
-1.73522
0.525191
-5.07128
3.55427
1.51701
-0.0673309
1.32017
-1.25284
0.406595
2.60868
-4.1124
1.8998
-1.9692
-1.73074
-3.19582
-3.49932
3.48905
2.34509
0.14129
1.63609
0.764654
-2.40074
-1.64797
1.55507
0.0929024
1.88438
-2.32152
0.437134
-1.27853
-1.80126
3.07979
-0.709548
5.09683
-4.38729
-3.65679
-0.916589
4.57337
1.34799
-0.13796
3.4367
0.0723518
-3.29111
-1.91512
5.20623
1.96941
-0.838207
-1.1312
0.0291309
0.934094
-1.18871
0.254619
-2.61709
-3.71951
2.44098
0.717451
1.01183
-0.807771
2.8443
0.334075
-0.598407
-2.74873
0.181573
1.36846
0.686412
-0.119604
-0.566808
-3.4798
-2.84188
6.32168
1.40409
-4.80186
-2.52341
-0.296059
2.81947
0.693429
0.864336
-1.55776
-0.0918651
5.52377
-3.52816
-1.99561
0.868449
3.23802
0.16346
1.37749
-3.26795
1.89046
-1.36498
3.88273
-2.51775
-2.78924
-1.03367
3.82291
-2.28814
0.960681
-1.83053
-0.743503
5.82726
-2.53044
-3.29683
0.294105
-1.48148
1.18738
1.73165
0.413505
-2.14515
-0.856371
0.971119
1.07337
-0.816234
-0.257133
0.865593
-0.103028
-1.04206
-0.0650869
3.51213
2.31513
1.24813
6.33069
-1.35483
3.82229
-0.646249
0.940354
-4.04761
1.25837
3.59076
-3.05132
-0.587994
-3.17384
0.716672
4.04353
-4.38241
3.30877
-3.43078
4.06041
-0.150615
-0.963905
-0.607849
-1.05218
-0.529073
1.58125
-1.49165
-0.137191
3.68956
0.633498
-4.32306
-0.0174556
-1.22274
1.2402
0.104252
6.01411
-4.35111
-1.663
4.14607
-0.27632
-6.34915
5.30147
1.04768
1.03451
-0.770779
-4.57501
-0.49627
-1.44743
4.70823
-0.150375
-3.48028
5.45275
-2.20482
-3.24793
-2.90076
-0.307495
3.20825
0.518566
2.45982
-2.97839
-3.46177
0.25092
-0.919649
-0.462909
1.38256
-2.33463
3.00213
0.781105
2.44571
-3.22682
-2.08033
0.985695
1.09464
-4.36842
0.400871
3.96755
-1.01596
2.91576
-1.11711
2.45634
1.32058
-1.19142
-0.74655
4.58288
-5.43733
-0.304205
-2.91813
3.22233
-0.266833
1.08276
3.34206
0.174212
-3.51627
2.7228
-4.07763
0.0451269
0.354918
-2.26743
3.51416
-1.24673
-2.11783
3.85557
-0.0623858
1.33555
-1.27316
-1.1766
0.940861
0.235742
2.19475
-1.22048
-1.31903
2.94264
0.933413
-1.99921
-0.784415
0.835067
1.8329
-2.83694
0.285856
-0.534099
-0.973631
0.936176
0.0374545
1.01112
-1.12563
0.114513
-2.97116
3.49445
0.461016
-2.98443
-0.0363741
-1.30222
-0.0285413
2.77781
-2.74927
1.5734
-1.66119
1.27951
-3.62338
2.34387
-6.18069
0.768371
5.41232
2.43128
-5.38737
-2.23847
-0.120014
-4.61064
1.09381
3.23813
-3.64406
-0.555738
1.08211
-4.81139
-2.04006
0.90837
0.851749
-0.228199
-0.62355
7.17366
-3.33572
3.90203
-0.86712
-1.10949
-0.80579
1.91528
-4.82126
1.88175
2.93951
-0.572654
0.936513
-0.136802
4.07037
0.798681
-0.452615
-5.733
0.8733
-2.19076
1.21828
-0.210251
-1.00803
-0.611268
4.30083
1.11914
0.0751031
-1.19425
3.35837
-6.18872
2.96203
3.22668
1.2165
0.963582
-2.18008
3.02475
-5.32249
2.29775
-2.6047
1.32302
-3.53185
-0.143452
1.8751
4.42053
-4.86559
2.00544
-0.853967
-1.88197
3.35402
-4.44317
3.00806
1.43511
1.34085
-1.98203
0.641178
-3.39
3.62563
-0.23564
1.8219
-2.4869
0.0697033
0.950564
1.33829
-3.81321
2.04075
1.18324
-2.59782
-2.25632
4.85414
1.18362
-4.08438
3.15272
-0.11034
-2.90495
0.575224
2.09453
5.05495
-1.70904
-3.34591
-3.43966
1.3491
-2.9426
0.815092
-4.54451
4.23702
-3.32434
1.7684
2.33949
-2.8324
3.51308
-0.680678
-7.897
1.84016
6.05684
-3.30971
-0.549132
0.140317
-4.7692
3.38226
1.38694
3.95542
-5.5376
-5.53083
-0.121536
6.95896
-2.80157
3.71833
0.237586
-3.95591
-0.11726
-0.768156
0.885416
-1.31027
1.99922
2.58299
-4.12148
1.28908
0.727579
1.06583
0.982621
1.78334
-2.76597
1.8783
-1.08107
-0.319063
-5.08267
5.40173
-1.70978
1.89549
-4.06146
-3.03004
-2.24845
5.27848
1.22812
-1.53551
-3.35938
1.11872
2.24066
0.0527062
0.107496
-0.160203
5.40945
-5.33054
1.02813
-3.29556
0.914494
2.12838
-3.04287
0.0717684
0.223328
-3.96492
1.17112
2.7938
-4.08849
1.55565
2.47337
-3.83835
3.38909
-3.69329
0.238052
-0.185345
-0.105545
4.39496
-2.87858
3.65839
-0.77981
3.96181
0.0237816
-3.98559
-3.80955
-0.0985727
-1.36508
0.219911
4.01989
0.627374
0.163958
-1.17692
0.347081
2.45408
2.45959
-0.233155
2.11754
-4.37627
-0.307638
-3.48478
-2.50576
-2.26837
0.891467
0.875163
-1.76663
8.57054
-0.799843
-7.7707
-0.546238
0.530009
-1.64578
-3.64871
-3.71317
-0.598109
-1.40624
4.12904
-1.57205
2.25258
-0.680525
-5.19468
1.71488
-1.43102
2.41364
-2.65546
-2.16438
-1.34284
-1.30844
1.62456
-3.12868
-0.913741
5.45545
-0.747221
1.31086
-5.02235
3.71148
0.533762
0.552658
1.26039
4.78869
-4.44951
-0.115625
-1.07017
1.58932
-2.30563
2.52995
-2.22184
-2.15969
1.00108
0.874519
-1.8756
-4.31286
0.0730627
-0.636861
3.66992
-3.03306
-2.03365
-4.3155
-3.2676
3.64738
5.55137
-2.38226
-3.16912
-0.426638
1.36164
4.30773
-2.16935
-2.13837
1.25581
-1.35884
0.135245
0.380187
-0.664549
-0.0647993
0.729348
-0.701348
2.33744
-2.00713
5.96255
-0.0904338
-0.770649
-1.30625
-0.462158
1.7684
0.310672
5.09878
0.159775
1.9148
-2.07458
-1.76768
2.78362
1.92179
2.0358
-1.56047
-0.539985
2.49855
-0.873814
-1.62474
-0.311906
0.36814
-0.0562341
0.393655
-3.53028
3.13662
-4.38705
0.673883
1.04948
-6.29212
3.78636
-0.0133034
1.26912
0.686354
-2.25841
-4.08819
2.09432
-4.4469
1.47853
-2.20182
0.328894
-1.95312
-2.88578
4.8389
-5.08424
0.638191
0.788012
-1.4262
4.09416
-3.30098
3.28371
-2.76515
0.654463
2.55744
-3.2119
0.78629
-1.70594
-1.33744
-2.93155
4.26899
0.200954
1.70064
-1.9016
-1.37522
3.54949
-2.17426
4.21899
-2.8017
-1.41728
3.65281
0.184875
-3.83769
-2.39783
-3.79088
-1.50789
-0.182308
6.05051
3.65879
-0.0722896
0.485352
-0.413063
-3.13682
-0.828096
3.27201
2.95027
-2.50782
3.1027
-0.594876
-1.3636
1.23752
0.442174
1.98563
-2.42781
1.10437
0.0147712
-0.475082
-4.29412
-5.04398
1.85299
0.0100127
-1.95806
2.12288
0.346518
3.45558
-3.8021
-2.44521
-0.455606
-2.967
4.51761
0.343561
-1.17743
0.597291
-0.717694
0.120402
0.509554
-1.78391
1.27436
5.01874
1.01734
3.93936
4.00511
-1.79483
4.3871
-2.4916
-0.578683
-1.16911
1.74779
3.49752
0.460224
0.0386337
-3.24729
2.16034
4.9069
-4.59623
-2.3252
-1.91081
4.23601
-2.76744
-2.05382
-4.65538
4.69564
-0.0402537
0.81951
-1.67494
1.14587
2.72758
1.27753
-0.963359
-1.28603
2.24939
-1.48022
-2.33501
-2.45096
-1.51266
3.96362
3.42769
-2.13321
-0.651822
0.80155
2.83557
-4.48135
2.0433
-1.73008
-2.15712
3.94241
-1.78529
2.34387
2.4314
1.48526
-3.91667
4.70769
-2.89502
-1.81267
-1.488
-3.65486
5.0016
-1.34674
4.45561
-3.14474
-1.33081
1.31751
1.98085
3.82319
-1.02874
0.911481
0.271733
-0.14395
4.51561
-2.50663
2.98468
4.18897
-1.97225
1.07239
0.899863
1.10915
-2.02972
3.51155
-0.169488
4.97189
-1.25357
-3.15672
-0.352738
3.50945
0.888942
-0.127239
-0.761703
0.780316
0.343173
0.670829
-4.74185
-1.29452
1.3871
3.25185
-2.9097
-0.342143
0.716337
1.78221
-0.727827
0.36925
1.1027
1.16627
-2.26897
-2.24881
4.07977
0.0655033
-2.13788
5.22248
-3.08459
-1.13026
1.84818
-0.954657
-1.12567
5.0086
-2.46413
-1.61439
5.58892
-2.56418
1.36133
-1.3977
-0.828132
0.71342
-1.40766
-0.707526
-0.0183723
2.45793
-0.74239
3.81035
-3.06796
0.349217
-0.376902
-1.61796
0.557688
-1.59048
0.0825954
-6.67185
5.76507
1.05764
1.16793
-0.961829
-1.65222
2.61405
1.00454
0.542681
3.82772
2.34238
-6.1701
-0.515124
-0.0928733
0.607997
-0.951835
-0.8659
3.58717
1.9642
3.65868
-3.31216
-5.15902
0.125828
-0.176661
-1.50626
2.11459
1.63184
1.41069
-3.04252
1.68785
-0.114455
-0.132265
-1.48766
-0.484597
-8.21775
-2.14675
2.26011
0.439998
1.1451
2.66018
-2.56524
-0.0949474
0.897525
0.0386506
-0.339174
1.16154
-0.150421
3.68806
0.971795
-4.65985
-0.0772535
1.29553
-1.06094
0.650272
0.410667
-1.59798
0.0348776
1.5631
1.77842
2.00345
-3.78187
1.11397
1.31166
3.17106
-0.062975
-1.22769
3.14755
-2.80047
-0.35802
0.389236
-0.0312167
-3.88494
2.66335
3.87609
-3.08609
-0.790001
0.080925
-0.709928
0.629003
4.08306
-4.42933
4.25658
-0.828891
1.1175
2.16621
-0.649667
-0.0578593
-0.93065
-0.108704
1.03935
-2.56709
-0.607651
4.99866
-2.55434
-2.44432
5.81637
-3.4878
-2.32858
1.88762
-3.32164
1.43403
-0.378358
2.46738
-0.0646666
-2.1145
2.63644
-0.521941
-1.0769
0.146252
-6.25812
-0.631279
0.706382
4.29297
0.0259939
-4.31896
0.0744486
-0.303522
0.989935
0.496899
-0.164374
1.66217
1.85199
-0.134272
0.89123
-0.000558333
0.23787
-0.5054
0.570395
-1.81381
2.46828
0.0778013
1.07125
0.795445
-1.49149
3.7956
-0.051954
2.71214
-0.43459
-0.587414
-1.15399
2.2567
-0.952079
3.69831
-2.74623
-3.71596
-0.511477
-1.66546
2.30355
-0.638091
-0.736304
0.105024
1.40732
-0.300284
-0.0987197
-1.06602
1.16474
-3.70782
1.24369
0.603032
-0.658356
2.56304
-6.70472
0.994846
-7.09868
-0.86673
3.42981
-1.5559
2.33374
-1.16747
0.068684
-2.86782
3.26147
-0.00477429
-0.729304
0.472799
-2.34693
-0.524582
-2.68463
3.20921
1.03787
-5.27966
6.88528
-4.33216
-2.55312
-1.03898
0.355375
1.05339
0.106015
-1.1594
-3.62211
0.743534
0.920019
0.0609296
-0.0439088
-0.599821
0.64373
1.18906
-2.85452
0.384775
1.99213
0.254341
-2.24647
-4.10609
3.15401
0.708155
0.178431
-0.886586
5.79889
-8.45591
-0.667021
-0.017554
0.684575
0.924894
-0.216739
0.0323037
3.29928
-2.41091
2.70289
2.26869
-1.15471
-4.50487
1.47483
-2.98865
2.50731
0.48134
1.87965
-4.20485
-2.22318
-1.45309
3.67627
0.434528
1.78136
-1.33194
1.08024
4.78581
-0.619116
-4.1667
0.00226757
-4.37854
2.94044
0.712375
2.25947
2.04825
-0.738204
-0.0208647
0.708462
-1.34455
-1.4859
0.394962
-0.319341
-0.0756209
0.134283
-4.10404
3.96976
-0.17264
1.22972
-1.05708
-1.71745
-4.45597
6.17342
-0.328195
-2.48184
-0.133839
0.176541
2.9539
-1.48811
-0.935393
2.42351
-1.68258
-1.82931
2.00393
-1.12941
0.582391
-0.587258
0.0048669
-3.10299
2.14116
-3.7884
-0.538938
-0.284221
0.823159
0.515781
1.47718
-1.99296
1.278
-2.04969
0.77169
0.253575
-2.53482
0.697268
-5.25846
-2.86629
-1.71029
4.57658
-4.24047
0.205644
4.03483
-5.59921
-3.52464
0.134641
-1.197
1.24673
-0.0497376
-4.22324
-1.5958
5.28386
1.66666
-0.891006
0.339692
-1.49369
-0.794308
2.10597
0.701954
0.473475
-1.77972
0.0867016
-0.73722
0.650518
-0.727259
0.124495
-0.501802
0.582727
-1.15937
2.37587
-8.89961
2.88996
6.00964
-2.96291
2.75189
2.48442
0.925113
-0.0361714
-2.48804
1.52468
-2.10487
-1.25451
-2.4486
0.924007
1.52459
0.278951
1.08908
-1.36803
-1.7715
2.28106
-0.451045
3.23878
3.66932
-3.50955
2.46355
-4.14613
2.01149
-2.4802
0.468712
0.537998
-0.0194706
-0.715795
-0.14766
-4.82296
2.86985
4.01995
1.79642
0.0712533
-0.907881
0.836628
-6.06072
2.27113
-1.08688
0.201734
-0.861686
-0.0719056
-0.977337
1.04924
-2.52179
1.03368
-4.5265
4.05141
2.67625
-1.76176
-1.04086
0.935898
0.104959
-0.291735
0.31244
-0.71093
-4.57879
2.44521
2.13357
-0.692156
0.599283
-0.428994
1.44228
-1.01328
3.07645
1.18013
0.76684
-0.546492
-0.220348
-1.13315
1.21095
0.418092
-0.219081
3.26679
-5.87987
4.50901
0.319234
1.13403
-3.39289
4.16769
-0.154157
-4.01353
-0.880552
0.776994
0.103559
2.14953
-4.18627
-0.975801
3.59616
-2.62036
-0.0570577
-0.300551
0.357608
-3.38451
3.39402
-0.00950793
-1.45302
2.73253
-0.682588
2.98025
9.19386
-3.01021
-6.18365
0.137537
-0.265048
0.127511
0.125353
-1.37863
-0.104201
-1.35843
-0.0202039
0.266141
-1.58615
1.32001
-0.381309
4.155
-3.77369
-4.09733
1.48486
2.61247
1.30702
4.06522
0.1493
0.245518
-0.394818
2.46089
1.17692
-3.63781
0.545336
0.306413
-1.34883
3.8292
-2.48037
-3.5251
0.368379
2.88324
1.30945
-3.53263
-0.0103463
-0.564206
0.574553
3.97564
-0.836386
-3.13925
1.23857
0.944645
-4.42737
2.23818
4.45611
-4.77517
-2.21372
0.391733
1.82199
-0.496002
-0.0389209
1.29789
-1.25897
0.076829
0.164393
-0.241222
-0.0500064
0.587052
-0.537046
0.428931
-0.646381
0.21745
-2.53384
5.36942
-1.36175
1.3053
0.558955
-0.987949
1.68386
-2.4397
0.755846
-2.25598
-2.18718
-1.34793
-0.0851913
1.07339
-0.113684
-0.959702
3.96025
-2.17955
-1.7807
0.41124
2.84061
-1.08177
-0.566202
-2.56265
0.484818
1.42894
2.14142
-3.57035
0.00369149
-0.0905758
0.0868843
-0.116759
1.51677
0.196251
0.521348
-0.717599
3.38677
-1.32742
-2.05935
-4.6094
-0.203282
1.32178
-2.28649
-1.10545
3.39194
3.11998
0.684591
-0.365177
-0.441524
-0.967069
0.251274
-2.89832
3.63099
-0.732675
0.677592
0.121089
-0.755216
0.162441
-1.06658
0.976148
-1.32388
1.24812
-0.94934
-0.709814
1.65915
3.2773
-1.9183
-1.35901
6.03884
-1.0201
1.08768
0.231712
-1.02077
0.845616
-0.270915
-1.61934
-1.44981
-2.53183
-2.78123
0.66673
-1.02831
1.42207
0.638096
0.286798
0.0990123
-0.15607
3.82252
-3.86477
0.042249
3.70735
-2.15326
0.974737
1.17852
0.493759
-1.56393
-6.26623
-3.893
-1.08587
0.95863
-0.790175
-1.1691
1.95928
-3.50624
0.846811
1.2244
1.29784
-2.52224
1.20878
-1.00782
-1.18188
-2.43767
4.00147
-4.32627
-1.46894
1.20828
-2.29085
1.08257
-1.10609
1.44965
-2.5191
-3.54162
-0.792875
-0.383728
3.05491
-3.75547
1.60705
2.14842
-0.0468655
-1.38736
0.0610257
-1.48946
1.42843
-3.37094
-1.73677
-0.746626
0.729072
3.62418
1.82413
0.601474
3.40566
-3.70402
-1.45694
3.96153
-0.209437
-3.7521
2.79356
-3.39196
4.64656
-2.56349
-2.08307
1.32935
0.914073
-2.24342
-1.97795
3.26183
-1.28388
-6.1555
3.11947
3.03603
0.0357723
1.07834
3.58022
-2.47782
-2.9355
5.41332
-1.44969
4.56968
-3.22827
-0.233496
2.34685
-0.752617
2.25821
-1.50559
-1.50216
2.69122
-5.94919
0.245414
-2.91296
2.66755
1.7953
-3.15068
1.35538
3.15882
-2.04132