/*--------------------------------*- C++ -*----------------------------------*\
| =========                 |                                                 |
| \\      /  F ield         | OpenFOAM: The Open Source CFD Toolbox           |
|  \\    /   O peration     | Version:  2306                                  |
|   \\  /    A nd           | Website:  www.openfoam.com                      |
|    \\/     M anipulation  |                                                 |
\*---------------------------------------------------------------------------*/
FoamFile
{
    version     2.0;
    format      ascii;
    arch        "LSB;label=32;scalar=64";
    class       volVectorField;
    location    "3.1";
    object      U;
}
// * * * * * * * * * * * * * * * * * * * * * * * * * * * * * * * * * * * * * //

dimensions      [0 1 -1 0 0 0 0];

internalField   nonuniform List<vector> 
13486
(
(7.57432 -1.41236 3.15954e-20)
(8.54747 0.918 1.44978e-20)
(11.4979 -0.295817 0)
(-1.50268 -1.3761 -8.00502e-21)
(11.7053 -2.95881 1.70104e-20)
(11.5294 0.402367 -1.94083e-22)
(13.2451 -2.99499 1.23029e-22)
(9.93935 -3.74769 -2.07824e-20)
(9.88777 -2.24586 0)
(9.98662 2.81686 0)
(1.81084 6.63519 -6.57225e-20)
(12.5255 0.507624 0)
(6.83775 -2.32334 -3.14246e-20)
(11.9145 2.66439 2.02975e-22)
(12.6533 -2.21691 9.80004e-21)
(9.83073 2.98199 -9.74789e-21)
(4.94874 -1.26547 4.10666e-20)
(12.5528 -4.93229 -2.52929e-20)
(11.3153 0.16903 2.87743e-22)
(8.34636 -0.666622 -3.20283e-20)
(0.982546 -5.94811 -3.88487e-21)
(6.91053 -2.36837 4.04852e-20)
(8.708 0.927654 -1.16137e-20)
(11.3986 -4.23505 0)
(10.3098 2.26052 3.16293e-21)
(11.3273 -4.94524 -6.33341e-21)
(-2.39979 4.11408 4.78503e-20)
(10.7527 -0.490705 1.9883e-21)
(8.18759 -0.945809 0)
(9.21879 -1.37514 3.1394e-21)
(5.19759 -9.44936 -4.02065e-21)
(13.4175 -1.21349 -1.25534e-20)
(13.0149 -2.03908 1.2327e-20)
(10.0753 0.285512 0)
(10.0543 -3.64092 0)
(7.96474 0.0652753 5.29694e-23)
(9.83917 -2.53415 -1.0104e-21)
(8.15625 -3.8355 1.76927e-20)
(12.0557 -8.69328 -3.68825e-20)
(10.0056 -1.45266 1.81139e-20)
(11.7316 -4.20406 0)
(6.21873 -2.92691 -3.68267e-20)
(12.7247 0.0149183 0)
(10.2017 1.9143 -1.54602e-20)
(10.2997 1.90859 6.28094e-21)
(12.3135 0.514034 1.1528e-20)
(-2.67063 -0.39654 5.67441e-20)
(8.49192 -0.898488 -1.08448e-22)
(9.89918 -2.28802 8.12614e-22)
(11.6873 -0.24473 4.49206e-21)
(9.96569 0.160649 1.84886e-20)
(19.202 -5.8057 0)
(12.9388 1.1045 -1.61496e-20)
(8.33348 -3.17505 -2.54481e-20)
(12.8071 -7.95677 0)
(11.6167 -2.99839 -1.07779e-20)
(9.24911 -1.43724 -1.98552e-21)
(21.4006 -6.23104 -4.83566e-20)
(12.7846 -1.94144 1.36843e-20)
(8.65067 -2.62056 0)
(3.59164 4.32758 -8.56603e-20)
(8.03577 -2.38922 0)
(15.8253 -0.765821 -1.997e-20)
(1.61406 -5.70637 -2.71759e-23)
(8.56045 -11.072 0)
(9.54007 -2.47303 -3.83799e-22)
(-3.40446 0.173056 -1.44392e-20)
(7.50111 -0.224396 1.03471e-20)
(9.87839 -2.35585 -1.04949e-20)
(7.50193 0.439294 3.60503e-21)
(-3.36219 -0.157558 1.6673e-20)
(11.9282 -6.92756 -2.31408e-21)
(9.93633 -0.818225 1.31853e-20)
(-3.70529 0.359217 -4.05579e-20)
(9.00505 -2.16625 -9.12798e-23)
(8.21618 -1.14327 4.56764e-22)
(9.31002 -2.10825 -2.20248e-22)
(12.6545 -2.33603 -4.0104e-21)
(-1.82853 2.596 -2.89213e-20)
(-0.58481 13.6752 0)
(8.51348 0.0040195 1.02877e-23)
(8.38728 1.38908 -9.25896e-22)
(16.7081 -0.888648 -6.18047e-22)
(11.4089 -0.185826 -2.88869e-21)
(7.53959 -1.45514 -6.15992e-20)
(8.01117 7.15841 0)
(3.88334 7.23902 1.51255e-21)
(10.0315 0.249058 -2.81191e-20)
(9.38386 0.772224 -1.22428e-20)
(9.13524 4.05214 -1.15705e-20)
(14.208 -0.399946 -6.66799e-21)
(10.5864 -3.31742 -1.15289e-20)
(7.84931 -1.90119 8.25384e-21)
(8.55897 0.0196901 8.20656e-22)
(9.33973 -3.07516 4.26072e-21)
(8.34744 -0.64543 8.96967e-23)
(-3.93467 5.38262 0)
(-5.10034 -1.62076 1.79652e-20)
(10.0538 -1.43175 -3.45938e-20)
(4.77283 -1.11283 2.97724e-22)
(8.61132 0.0359411 0)
(11.8081 2.70714 -1.04241e-22)
(-4.82717 -3.03091 3.22094e-21)
(20.1234 -7.12749 5.61673e-20)
(6.87538 6.5562 0)
(4.32206 -0.495741 5.66391e-22)
(9.72595 0.160598 6.96148e-23)
(10.51 -5.73332 -1.02626e-19)
(-2.63133 1.94124 3.94031e-20)
(10.0284 -4.62551 0)
(8.5382 -4.03859 0)
(13.7383 -1.915 -1.25377e-20)
(8.39457 -3.08576 1.41368e-22)
(9.73842 -1.43519 1.37061e-22)
(5.98733 -0.737828 0)
(8.38703 -3.97104 -1.64057e-20)
(10.2022 2.40793 0)
(10.1056 0.798648 0)
(9.90675 -0.786771 0)
(10.0425 -1.66043 -3.56448e-22)
(15.5461 -4.9055 1.60149e-20)
(1.93563 4.53386 0)
(9.20733 -2.82624 0)
(16.7899 -8.46017 1.18776e-19)
(9.53484 -3.52017 0)
(19.5901 -5.58756 0)
(11.2734 -1.55415 4.52405e-22)
(10.6523 0.350032 6.42072e-21)
(10.5564 0.562258 3.16861e-21)
(7.32299 -8.23031 -1.26548e-20)
(17.7567 -5.59265 -2.91718e-21)
(-1.91254 -0.278756 -1.38396e-20)
(9.57362 -2.52643 5.60618e-20)
(-2.33128 1.87198 4.66903e-20)
(9.98844 0.0802711 -3.03151e-21)
(9.61857 1.71327 -1.36381e-20)
(4.79798 2.3894 -8.52712e-21)
(9.56461 -4.31062 0)
(10.0856 -1.44171 1.17937e-22)
(10.1542 -3.13663 -7.25095e-21)
(12.6002 -1.06939 -1.20233e-20)
(13.5401 1.20825 1.37259e-20)
(13.2263 -0.246914 0)
(1.01896 13.7035 0)
(13.4846 0.02339 8.73758e-22)
(16.9928 -2.3138 -3.82813e-20)
(9.80813 2.47546 -6.38468e-21)
(-2.30803 4.96318 0)
(12.1826 -0.348096 0)
(8.23158 -1.17696 0)
(9.92115 0.0732259 2.83155e-22)
(12.4487 -2.69044 0)
(8.50844 0.0403466 -1.07669e-23)
(8.27523 1.2353 -7.83921e-21)
(10.7343 1.21193 0)
(11.4426 -0.339033 0)
(9.81955 -4.38826 0)
(3.82614 -4.13911 -6.13369e-21)
(8.78692 -3.59484 3.7968e-20)
(7.78678 -1.44026 5.10283e-21)
(11.8255 0.0200339 2.56962e-21)
(8.83523 -3.51744 -5.71944e-20)
(13.7324 -2.70406 1.6851e-21)
(5.55974 -2.78088 1.62394e-20)
(21.221 -5.45703 0)
(12.3821 2.61956 -2.47053e-21)
(11.5105 2.47518 3.27784e-21)
(2.96594 -0.93183 -3.75557e-20)
(9.56743 2.4456 1.65263e-20)
(-2.40472 2.11602 1.26753e-20)
(1.73271 0.911957 -2.20936e-21)
(10.7034 1.08253 5.16534e-21)
(10.0051 0.38914 -2.26312e-20)
(12.1002 -1.15289 7.87788e-22)
(8.53358 -0.173417 2.91597e-23)
(3.71598 -11.1444 0)
(11.9698 4.17561 2.03704e-21)
(13.3147 -1.09649 1.85899e-20)
(9.81087 0.109042 -3.09223e-20)
(13.044 -0.0980206 0)
(10.2793 -1.70562 3.78926e-20)
(10.1788 -1.33447 2.51513e-22)
(12.5953 -0.901589 -2.45077e-22)
(-12.9468 6.95778 0)
(11.0104 0.406177 7.89225e-21)
(10.2925 -0.408268 -8.69041e-22)
(9.4434 -1.35475 -2.58123e-22)
(9.74091 -0.336333 1.57556e-21)
(11.6355 -4.11627 0)
(7.78465 -3.76847 -2.1676e-20)
(9.91317 -1.94577 0)
(12.233 -0.366531 0)
(22.2464 0.791362 0)
(10.2185 4.33949 -1.66277e-20)
(20.6679 7.17354 0)
(0.0865833 7.4681 -2.03781e-20)
(8.62178 -11.4517 2.73778e-20)
(11.4741 -0.0174435 1.24163e-21)
(7.46877 -3.66204 -7.7093e-21)
(12.2075 2.35891 -5.00134e-22)
(5.0633 -10.0536 5.94143e-21)
(10.6817 0.387126 -1.96396e-22)
(8.14774 -3.92388 -2.05026e-20)
(10.9383 -4.49607 5.97363e-21)
(7.87795 -1.41687 -6.09246e-21)
(20.8688 5.82903 -3.16085e-20)
(9.78138 -6.60322 -9.30372e-21)
(9.50371 -0.44413 2.57756e-20)
(22.0249 -0.808025 0)
(10.9732 0.210257 0)
(10.1977 -0.369164 -2.80723e-21)
(9.11417 -6.70884 1.38859e-20)
(8.39253 -0.519988 2.94219e-20)
(9.71507 0.192171 1.19138e-22)
(11.5406 0.558271 2.23821e-22)
(0.289783 -0.816966 1.63412e-21)
(9.81103 -1.35273 0)
(9.32517 3.78756 2.90713e-20)
(8.19333 -2.02477 0)
(14.8718 1.661 0)
(4.53905 -0.589444 -7.83237e-20)
(12.0017 -0.304286 0)
(10.0772 -3.11026 1.70858e-20)
(12.7388 0.0438527 0)
(12.8788 1.92876 -3.2394e-21)
(7.15325 -3.32503 1.18211e-20)
(12.1646 0.981027 -1.34873e-22)
(5.08406 -13.0718 6.67262e-21)
(3.18277 5.4569 -3.31504e-21)
(4.28648 9.33391 -1.21153e-21)
(10.2945 -1.66872 -1.21408e-20)
(11.278 0.191105 -4.71154e-21)
(12.6187 -1.17429 1.50996e-20)
(6.08329 -2.84957 1.25242e-20)
(-1.03497 -5.88494 0)
(6.82134 -3.32566 1.41938e-21)
(9.58773 0.189512 -5.34235e-21)
(12.0556 -0.334715 -1.83168e-21)
(7.022 -3.36317 3.88216e-20)
(12.2657 -0.439433 0)
(12.8145 -2.23305 0)
(10.0421 0.335019 3.48552e-20)
(12.6376 -0.505377 0)
(6.65569 -3.31179 1.31563e-20)
(4.636 -9.32919 -7.99612e-20)
(9.14551 0.0287248 0)
(12.3546 0.0108404 -3.5453e-21)
(10.0779 -4.05115 1.18193e-20)
(-3.13306 0.679893 7.65714e-20)
(10.0601 1.83517 0)
(-9.13704 0.766634 -1.70368e-20)
(5.87512 -0.612706 4.41533e-21)
(7.8367 -3.84168 2.11639e-20)
(14.8453 -4.11209 0)
(4.16006 10.7243 5.65315e-21)
(2.53047 -8.76715 1.2726e-20)
(13.5252 -1.09727 1.019e-20)
(1.38887 0.582447 -2.06492e-21)
(5.01492 -4.9559 6.42369e-21)
(12.8815 -2.37261 9.7922e-21)
(8.99786 0.74669 0)
(0.479182 -9.68932 -3.44941e-21)
(12.6868 -2.20194 -2.25878e-20)
(2.60347 -8.78164 -1.5891e-20)
(11.0176 -3.79286 -1.63841e-20)
(-12.8538 7.21395 0)
(6.53967 5.98039 3.30461e-21)
(4.01481 -9.30141 -5.7139e-21)
(10.234 -0.101486 -1.55277e-20)
(15.305 1.70632 0)
(7.78835 3.70968 1.22539e-20)
(9.8033 0.241707 -8.31376e-21)
(9.63725 -1.47224 0)
(12.4118 0.999918 1.00216e-20)
(7.44717 -3.50699 1.58514e-20)
(10.5351 -2.93771 -6.64799e-21)
(5.42466 10.3758 0)
(8.65059 -11.3894 0)
(14.0792 4.77628 -1.20227e-19)
(10.3163 2.66533 1.19133e-20)
(10.2189 -12.0928 4.51867e-20)
(10.8279 -1.18796 -1.42063e-20)
(9.68282 0.239903 1.82076e-20)
(15.1306 -4.99839 -1.93185e-20)
(-1.85204 5.36019 1.1067e-19)
(0.532164 2.1418 7.55153e-20)
(12.8341 -0.76917 1.46155e-20)
(10.9164 1.0584 -4.16659e-21)
(13.6213 2.0786 5.03965e-21)
(10.0421 -0.105895 0)
(-0.543954 -5.34708 0)
(5.25123 -4.62125 3.79252e-21)
(8.31725 -3.93454 1.61808e-20)
(9.98984 0.101972 -2.97623e-21)
(9.28079 0.446118 -6.0789e-21)
(9.57807 0.0395625 0)
(11.3695 -0.139058 -2.93294e-21)
(12.248 0.942919 -8.96607e-21)
(9.65431 0.147991 -1.67389e-20)
(12.525 -3.42839 1.13242e-20)
(12.5284 -3.10774 -2.54058e-21)
(11.6344 -6.44249 6.80056e-22)
(10.2165 2.66171 -1.01526e-20)
(13.3662 -1.23151 1.19653e-20)
(10.5058 -1.90921 3.53125e-22)
(9.36461 -4.65185 0)
(2.45557 1.85814 0)
(11.3106 -0.0512939 6.92636e-21)
(3.8153 8.0946 -7.76685e-23)
(9.88143 -2.18314 0)
(11.5347 7.08717 -7.14463e-20)
(-1.49599 -0.185841 0)
(11.4638 4.15031 8.5399e-22)
(13.6424 -1.70018 -1.20274e-20)
(14.2697 -3.05416 0)
(9.48219 1.43421 -8.29186e-21)
(6.0911 -4.19743 -5.08187e-21)
(9.37096 0.719904 -1.03875e-21)
(9.53574 -0.42428 -2.82771e-20)
(5.39326 4.78129 0)
(9.41871 -2.32401 5.94752e-22)
(5.26441 -6.9948 5.57318e-22)
(9.86014 0.184064 3.89307e-21)
(8.42366 0.220482 -1.53411e-20)
(4.36608 2.37997 1.58794e-20)
(14.1124 -0.718409 1.32192e-20)
(11.5104 -2.15039 -4.5709e-20)
(10.8961 -1.16052 0)
(11.5001 1.08546 -1.00689e-22)
(11.6642 -2.22008 -9.04668e-21)
(9.97701 0.13746 4.06821e-20)
(10.7153 -3.34449 0)
(14.8221 -0.431732 -2.6157e-21)
(7.57279 1.32954 0)
(13.0635 -3.10055 -2.50461e-20)
(9.69095 -2.91324 -1.19027e-20)
(4.63661 -2.10343 1.48687e-20)
(12.3362 -2.76157 -1.57872e-20)
(10.0468 0.803137 0)
(2.28647 -10.2748 -9.2297e-20)
(6.14952 5.20658 -7.2301e-21)
(8.5141 0.229381 1.4507e-20)
(11.7633 -2.25844 3.41376e-20)
(12.517 -0.902215 1.72464e-20)
(-11.5101 5.90886 -7.59353e-20)
(8.53377 -0.937566 6.22818e-23)
(11.5621 -1.15833 0)
(5.84691 -2.05198 3.53951e-20)
(15.0361 1.53054 0)
(5.13725 -5.5367 -5.37842e-22)
(11.38 -0.59402 2.59297e-20)
(11.9032 1.20747 -1.0706e-20)
(12.5228 0.996453 8.52603e-21)
(-5.59104 6.43777 -5.71235e-20)
(9.69684 0.153108 2.09387e-20)
(9.01347 0.122723 0)
(-2.36725 1.12177 -3.74091e-20)
(11.2939 -1.55466 -9.0724e-21)
(-0.0589825 9.14364 -3.78624e-21)
(7.61898 -3.79745 8.21727e-21)
(12.7743 0.143771 0)
(14.4746 -0.0498912 8.3723e-21)
(9.11286 0.428845 3.1436e-20)
(9.79895 0.275406 2.51648e-20)
(9.12854 -1.55947 0)
(8.50115 0.0374938 -2.11723e-23)
(9.22536 -0.014809 5.01749e-21)
(-3.14981 -3.37829 1.03067e-20)
(8.31049 -0.61014 4.08273e-21)
(11.2798 -1.37892 8.65328e-21)
(13.5759 0.0683258 -3.31888e-22)
(11.4771 -1.09604 0)
(12.6571 2.18332 -1.20362e-20)
(-8.35962 1.22221 1.98369e-20)
(11.5747 1.30315 -6.55583e-22)
(9.93811 0.150936 1.5572e-20)
(8.29111 0.0193553 0)
(4.0709 -8.91715 -3.57299e-20)
(17.6129 -4.95175 0)
(16.4776 3.68236 -1.52537e-20)
(10.311 -0.148793 0)
(10.6756 -3.74552 -2.34382e-22)
(7.05557 -0.948341 -8.54947e-21)
(7.98909 3.01479 2.87984e-20)
(-3.13718 -1.21088 -3.50622e-20)
(6.5632 9.36656 0)
(11.208 0.2527 -4.68768e-21)
(10.0733 0.857225 -9.0877e-21)
(3.04598 -2.60415 -2.51794e-20)
(4.24506 -7.3429 2.10821e-23)
(8.55525 -0.649929 -4.45784e-20)
(10.1576 -1.41629 7.11779e-22)
(10.2995 0.75106 6.34815e-21)
(7.63576 -2.49222 0)
(7.27633 0.888242 1.61921e-20)
(9.758 -1.33791 -1.33748e-22)
(-2.77252 -0.741418 5.00695e-21)
(-9.55272 1.90683 -6.57719e-20)
(4.80626 -2.47655 -4.99806e-20)
(12.8955 -0.911524 0)
(3.53363 -2.67514 0)
(10.5572 4.79094 0)
(10.6934 -0.543254 0)
(3.77538 -2.03108 6.46384e-22)
(13.1931 -2.9422 0)
(10.219 7.03422 0)
(8.59726 0.117237 6.05784e-21)
(13.262 -1.06625 -1.91009e-20)
(11.3524 -1.05964 -2.04102e-20)
(8.67809 1.10064 5.00944e-20)
(10.0478 0.183925 -4.57772e-21)
(11.5983 6.94718 0)
(10.6727 -1.34503 0)
(9.58262 0.162516 1.7824e-20)
(9.93327 0.0809456 3.09043e-21)
(7.12599 3.92766 0)
(-13.3262 6.68429 7.33565e-20)
(10.9837 -3.91528 1.83787e-20)
(-2.82585 3.62949 0)
(12.3858 -0.423119 1.64954e-20)
(9.85139 0.188361 -2.05935e-20)
(9.30664 -2.25667 -4.17669e-21)
(5.85224 -1.99478 0)
(9.9972 0.864507 1.69588e-20)
(12.0653 0.399283 0)
(9.35297 -0.412025 0)
(10.8373 0.717971 -8.94398e-22)
(9.64164 0.260672 9.49062e-21)
(-1.74786 3.74682 -6.26036e-20)
(11.407 2.44932 1.57054e-21)
(7.07507 -1.95406 -1.54701e-20)
(10.5312 -0.479557 2.37657e-21)
(10.3833 0.842363 4.96119e-21)
(13.1656 2.3635 3.31197e-20)
(11.4091 -3.83213 0)
(11.0816 -3.14074 5.6641e-21)
(7.12539 -0.692409 0)
(4.25815 -5.8799 6.53639e-21)
(12.0371 -1.15753 0)
(7.59242 -0.190478 2.21257e-20)
(-5.20509 -1.46203 -6.51663e-20)
(10.2482 -1.31947 0)
(-0.454238 1.50226 2.02697e-21)
(10.7947 -1.50876 -3.66883e-21)
(3.12196 2.17298 7.57541e-21)
(9.15872 -1.63263 4.49884e-20)
(7.15245 2.70227 -1.78972e-20)
(7.06862 -1.93263 -4.37542e-20)
(17.3038 3.3567 0)
(10.1756 -1.76018 5.39983e-22)
(-10.9288 6.18087 -1.86106e-19)
(9.97142 0.893127 0)
(9.30436 0.82077 1.13803e-21)
(12.104 -0.230553 -9.28568e-22)
(13.2035 4.06303 0)
(10.0072 0.0351255 0)
(-11.2415 4.58383 0)
(3.89929 -11.0301 5.0558e-20)
(15.0266 -5.81387 2.28823e-20)
(15.9543 -2.81853 1.70427e-21)
(11.4092 3.898 0)
(8.83803 -1.20215 2.96197e-20)
(8.60297 -0.174674 -5.76992e-23)
(11.3542 2.24876 -3.25062e-21)
(-0.16751 -3.69853 3.89726e-21)
(9.60506 0.623776 0)
(8.05795 -0.940247 0)
(4.65224 -1.00729 -2.32719e-20)
(7.51794 -2.43933 -1.11058e-20)
(9.97631 -1.16367 0)
(9.25032 -4.31974 -1.72797e-20)
(8.99887 0.0743853 2.13048e-23)
(8.31805 -0.54656 -7.88888e-23)
(5.02532 -2.24071 0)
(15.9317 3.1466 -3.3905e-21)
(10.0261 -1.36864 3.28025e-22)
(12.0078 0.372104 2.88348e-21)
(9.58441 -3.01564 0)
(1.26952 0.906508 -1.13909e-19)
(12.1851 1.07991 9.79191e-21)
(9.98116 0.49378 3.57807e-21)
(9.11046 0.121842 4.19388e-22)
(12.5817 2.42844 0)
(8.61987 1.09448 -1.33464e-20)
(14.3072 0.537952 -9.43746e-21)
(5.54319 -2.0102 1.02559e-20)
(9.96314 0.256824 0)
(4.20639 -7.40315 -2.163e-23)
(3.36865 -0.713668 0)
(10.0595 0.258113 -1.39089e-20)
(9.9527 0.329866 6.14871e-21)
(9.46661 -0.00379681 -3.49768e-21)
(1.12153 -7.89628 0)
(11.506 -0.0962864 -4.80153e-21)
(6.26974 1.64027 4.34232e-20)
(11.2101 -3.79204 0)
(8.48299 0.0319021 1.86138e-20)
(12.3749 -3.45337 -1.30316e-20)
(10.6729 0.0671492 0)
(3.70103 -9.39623 3.71486e-21)
(0.948112 14.5409 -3.58063e-20)
(13.5782 0.07223 0)
(2.50506 1.06531 7.53595e-20)
(9.2641 0.726878 0)
(8.95636 -4.14516 1.61908e-20)
(-6.68939 -0.438564 3.72703e-20)
(9.01736 -1.29027 2.38229e-22)
(11.6124 0.458223 -3.05309e-22)
(7.20544 0.847071 8.58555e-21)
(9.20356 -1.77968 -1.65577e-20)
(6.3296 9.56721 -5.07227e-22)
(9.10753 -4.1162 1.07141e-22)
(11.2379 -1.37546 8.18739e-21)
(12.5984 2.37188 5.32436e-21)
(10.6168 -4.8105 0)
(9.99619 0.132654 -1.38055e-20)
(4.7452 -0.984798 -2.65192e-20)
(7.2266 -0.713686 0)
(9.4059 -1.41365 9.83882e-23)
(7.58252 0.432112 0)
(6.63486 -2.02771 3.80215e-20)
(10.4464 -3.97684 0)
(8.44634 0.0421499 -1.22351e-22)
(11.6192 -0.536786 -1.48599e-20)
(4.28574 -10.7067 8.55827e-21)
(-10.1977 3.81396 4.71847e-20)
(12.6454 0.0763527 -1.57938e-22)
(9.39075 -4.48958 1.80151e-20)
(9.14675 -2.82351 1.685e-20)
(7.80167 -1.91593 0)
(-10.0581 5.86557 -4.18235e-20)
(11.5504 -3.6443 -3.72457e-21)
(-11.6859 7.93032 -5.02073e-20)
(8.38975 -0.688543 3.01869e-23)
(7.6065 -3.0013 0)
(11.0681 0.0674484 -7.62627e-23)
(-12.9693 6.99171 0)
(-4.25677 -3.56779 3.19703e-21)
(9.87096 -2.69815 5.74685e-21)
(2.97268 -3.41932 0)
(10.5057 -2.95344 5.53358e-21)
(9.06876 -10.261 0)
(13.2473 3.82114 0)
(8.67119 -4.1658 -2.12334e-20)
(7.70745 1.06329 1.32727e-20)
(0.645928 15.9337 0)
(9.11238 0.539883 -8.56868e-21)
(16.6057 -2.33478 4.33005e-20)
(-8.95189 1.73551 9.94109e-20)
(13.6578 5.60901 0)
(10.6226 0.00331087 0)
(-10.8397 6.96445 -8.29309e-20)
(9.59129 -0.821006 0)
(11.4603 0.0257341 0)
(4.09881 2.34728 1.86254e-21)
(10.5663 -2.24583 -2.5715e-20)
(9.00026 -2.38363 1.41165e-20)
(12.9495 -2.94215 1.43219e-21)
(-11.6954 7.48446 9.1553e-20)
(9.93781 0.264587 7.07897e-21)
(8.00247 -2.05324 0)
(10.7364 1.8055 -2.49952e-21)
(7.51765 -1.3021 0)
(10.5833 -0.0901221 0)
(10.008 0.553513 0)
(10.7574 0.701528 -7.32841e-22)
(9.51352 -0.417428 1.30011e-20)
(13.5251 -0.251966 -1.04147e-21)
(8.16713 -2.1153 0)
(-3.33086 4.79651 -4.52383e-20)
(10.2109 4.45631 4.36839e-21)
(9.48497 -3.55158 1.71227e-21)
(10.6529 1.78303 7.52423e-21)
(9.60091 -3.54736 7.57029e-21)
(9.92454 0.0772321 -1.20038e-20)
(-5.1911 -1.88643 0)
(12.3762 0.969942 0)
(7.59804 3.73983 0)
(6.82914 -3.02984 -2.82146e-20)
(7.7789 -12.4371 -1.89703e-20)
(1.12073 -3.75505 0)
(10.8037 1.78237 0)
(13.7593 1.73268 1.02135e-20)
(9.74297 -0.114633 -3.74602e-21)
(9.70809 2.44196 1.40095e-20)
(11.1562 -4.52147 0)
(-7.62026 9.54757 -2.24252e-20)
(11.324 0.261933 1.97023e-21)
(7.36213 -2.28143 -2.62472e-20)
(10.756 0.291799 -4.3515e-21)
(11.3122 2.22656 5.37887e-21)
(12.597 -8.63485 1.72497e-20)
(6.72997 -2.97402 4.85994e-20)
(3.15518 -7.09172 1.68578e-20)
(10.7414 -1.21675 3.06922e-22)
(9.96298 0.0447711 -3.49684e-21)
(8.30776 -4.06722 -5.35746e-21)
(2.08001 14.5503 1.86883e-20)
(8.97589 9.36965 -4.17951e-21)
(9.02222 -4.26448 8.87023e-21)
(12.0377 0.975137 0)
(5.59896 6.9474 -1.83371e-21)
(10.7457 0.0186369 -1.21999e-20)
(13.8622 2.22118 5.06329e-21)
(7.21451 -2.11114 -2.37741e-20)
(9.43392 -3.44476 -1.79907e-20)
(10.7985 -0.102939 3.97168e-20)
(13.5027 -0.302316 -2.28242e-20)
(13.6066 5.29456 -3.77619e-21)
(12.9919 -0.738543 -7.49528e-21)
(6.28477 -1.18854 -5.02538e-20)
(10.7187 0.024908 -1.01049e-20)
(6.25047 -1.46161 0)
(4.66175 -11.7187 -2.74187e-20)
(10.9119 0.0330629 3.17196e-20)
(7.46517 0.0627576 -1.15176e-23)
(-4.60825 -1.27326 0)
(9.58761 -4.39055 0)
(10.1328 1.70263 1.23674e-20)
(5.83545 -1.13843 3.09652e-20)
(11.5163 -12.0406 -3.16719e-20)
(10.7133 -3.68132 -1.05699e-20)
(11.5979 -2.20438 2.51154e-20)
(15.0037 1.39166 0)
(10.1569 1.82495 6.77156e-21)
(12.8911 -5.19516 -1.67498e-21)
(12.2461 3.87864 2.73155e-21)
(10.2054 -1.58651 -2.10271e-20)
(-10.7058 6.52896 -1.48923e-19)
(9.92444 -3.17178 -6.47891e-21)
(10.6106 -3.63133 3.76623e-21)
(11.1875 4.86175 0)
(6.91428 1.72609 4.08448e-21)
(9.49815 -0.0161135 3.21325e-21)
(8.56745 -0.0486391 5.63116e-24)
(5.52814 -2.70231 4.45783e-20)
(10.0399 -1.60493 3.16336e-20)
(7.70955 -1.58611 -1.41913e-21)
(-9.47266 1.94102 -5.70382e-20)
(9.87333 -0.320334 1.137e-21)
(10.8369 0.104613 9.04103e-21)
(-0.928617 6.38742 -1.39619e-20)
(11.8233 3.86177 3.13299e-23)
(3.99266 -0.565571 -8.1882e-20)
(7.15694 -3.45934 -1.53985e-20)
(8.45394 -0.0196512 0)
(8.61141 -1.51833 -1.85414e-21)
(-0.0522893 -2.90284 -4.60325e-20)
(7.02014 -1.06881 4.58524e-20)
(12.7135 0.00271734 0)
(13.4836 -2.5885 -2.71925e-22)
(6.54677 -2.64294 1.08998e-20)
(9.98718 0.188232 -3.0125e-20)
(-12.2877 5.96143 -6.89726e-20)
(1.22177 14.6547 -2.15719e-20)
(11.4148 -1.12169 1.40311e-20)
(10.9453 0.221061 6.91033e-21)
(9.0329 -4.18342 -2.27715e-20)
(13.3341 -0.407811 1.33511e-21)
(8.22493 -12.6621 -4.48013e-20)
(10.5443 0.0155936 1.14464e-20)
(10.4641 -0.414123 -1.02233e-20)
(10.4882 0.440357 -2.48189e-22)
(12.2659 -0.10672 -2.30717e-20)
(6.36553 -2.7081 -2.10444e-20)
(10.7807 -1.03603 0)
(1.81828 -10.9691 3.07833e-20)
(10.6008 0.0780569 2.30971e-21)
(8.65581 -0.956676 -6.25602e-21)
(12.2374 0.0433577 3.55782e-22)
(11.2784 -2.28633 -1.48309e-20)
(9.9749 0.129613 -2.33986e-20)
(10.4227 1.28828 3.75841e-21)
(-12.7259 6.74777 -7.54029e-20)
(11.4078 -0.071144 0)
(2.76527 -9.1732 1.91671e-20)
(11.644 1.32139 1.0973e-20)
(7.61883 -2.92301 0)
(10.5236 0.381624 7.16136e-21)
(11.6244 1.12528 1.44669e-20)
(11.3381 -0.168963 1.37631e-24)
(12.4106 -4.63544 -5.27767e-21)
(18.1007 5.878 0)
(9.03074 1.44601 2.44434e-20)
(8.06936 -1.53331 2.49008e-21)
(8.86224 -4.17088 1.85562e-20)
(10.3124 -1.11389 0)
(7.60181 1.01456 -3.84313e-20)
(15.3324 -4.02123 1.23134e-20)
(12.3569 6.14597 -9.97803e-21)
(6.318 -1.23715 4.91677e-20)
(13.7793 0.025533 1.42147e-21)
(-10.8829 4.45736 4.17963e-20)
(9.8068 -0.701811 -2.09531e-20)
(11.1792 -2.88182 -8.80861e-21)
(9.07098 0.426038 -1.80377e-20)
(12.5517 0.00674703 0)
(9.93789 0.110837 -1.32686e-20)
(-2.80669 -0.502487 -3.62206e-21)
(-0.181277 3.34836 0)
(12.1056 -5.7649 0)
(8.55278 -0.0539184 0)
(5.69168 -1.53669 0)
(10.205 1.24808 0)
(6.09468 -1.13405 0)
(2.47725 -0.883233 1.16098e-21)
(15.6944 -3.24354 -2.0474e-20)
(12.2485 1.01741 0)
(9.06564 1.18165 3.62735e-20)
(20.4231 2.5017 -8.26602e-20)
(10.3549 0.883158 3.10169e-22)
(1.74667 -0.68635 -2.38285e-20)
(6.16464 -0.097609 -1.17175e-22)
(-13.1705 6.73523 6.11164e-20)
(10.6079 0.0423452 -1.07152e-20)
(11.7359 -0.320098 6.04657e-22)
(10.0927 1.22757 -8.59853e-21)
(9.44027 0.653506 -2.44272e-20)
(9.96172 4.07459 -1.0281e-20)
(16.8715 3.76239 0)
(2.28496 -5.70857 -3.4055e-22)
(6.69506 -2.09483 -4.16402e-20)
(10.013 0.0567439 -4.01889e-20)
(11.5143 -3.60993 -2.47439e-20)
(11.727 -0.111925 3.54276e-21)
(13.1484 -3.3052 1.04912e-20)
(10.9876 -1.84742 -3.03422e-21)
(10.5896 -2.90735 -1.93744e-20)
(10.0993 0.768991 9.41952e-21)
(14.7041 8.54879 0)
(8.04145 11.2162 -1.94795e-21)
(8.69121 0.00584173 -5.56195e-21)
(13.4521 -2.69664 0)
(18.0272 1.39503 0)
(9.38808 -4.30004 -5.97707e-23)
(-9.69784 2.73345 4.14691e-20)
(1.47953 -1.55711 -2.87515e-21)
(15.4446 -6.02733 0)
(9.61374 -0.497053 -2.69229e-20)
(9.12841 0.755189 -4.69539e-21)
(1.29 -10.0245 1.62911e-20)
(10.9853 0.512727 7.75442e-21)
(-13.0211 6.52187 0)
(1.42498 -5.79565 3.26131e-22)
(11.195 0.900531 0)
(6.25496 1.77818 -4.29984e-21)
(14.5706 0.0477146 -6.95982e-21)
(10.0454 0.131971 -3.5547e-23)
(11.5623 2.53082 -5.76519e-21)
(13.4086 4.79314 -1.69383e-21)
(8.92052 -2.72581 3.45222e-20)
(6.88709 -8.4497 0)
(8.6959 -12.0168 -3.35629e-20)
(13.5998 -10.7207 0)
(12.4511 0.913276 -1.65986e-21)
(0.545747 -9.65988 2.67786e-20)
(10.2248 -6.02973 1.35272e-20)
(2.30361 -10.842 -3.03831e-20)
(4.36348 -9.13739 -9.03482e-20)
(7.98273 -3.73815 -2.1432e-20)
(6.84699 -2.10941 -2.44001e-20)
(9.85216 -1.41665 4.78137e-23)
(8.35342 -9.05631 2.72188e-20)
(6.41761 -2.76033 1.72399e-20)
(7.12756 -2.25664 2.66691e-20)
(8.00186 -11.6592 2.239e-20)
(9.79429 -11.6024 -1.2536e-20)
(9.38302 -3.09252 1.78039e-20)
(-4.88754 -1.98547 4.37782e-20)
(13.159 -0.106938 1.13266e-21)
(19.0184 2.09476 7.60047e-20)
(11.3357 1.53971 -2.28653e-21)
(11.4704 -3.08227 0)
(5.04847 -1.4623 -9.82896e-20)
(10.4484 0.00525046 -1.39618e-20)
(10.0115 0.561927 0)
(12.3573 0.873233 0)
(8.54695 -12.2572 -3.68335e-20)
(12.4484 -3.41216 -1.5134e-20)
(11.5653 0.670564 -1.46054e-21)
(10.5544 -2.19435 3.37918e-20)
(9.93682 4.00342 9.39554e-21)
(9.77393 -0.0654931 2.66469e-20)
(0.498827 -9.92449 -3.40023e-21)
(9.10511 2.48404 0)
(7.2865 -2.39972 2.55939e-20)
(3.10854 5.9529 1.09974e-20)
(3.76968 -8.53967 6.7972e-20)
(8.79547 -3.4656 5.86296e-21)
(9.72606 -4.64077 -7.03708e-21)
(10.6297 -0.0701859 1.37271e-20)
(13.7733 -11.1637 3.62997e-20)
(8.82989 -1.14432 -3.71265e-21)
(-0.896825 -8.76735 -2.36582e-20)
(11.5228 0.652153 1.18302e-21)
(9.6831 0.115543 1.04988e-20)
(6.23061 -1.4428 -2.02242e-20)
(9.57271 -0.688806 1.68345e-20)
(13.795 5.04719 0)
(11.6756 1.29079 1.52912e-21)
(9.82764 0.138252 2.33393e-21)
(7.7824 -1.76755 -8.21098e-21)
(9.72575 7.16981 -7.81635e-22)
(9.25559 -3.04038 1.29895e-20)
(9.6716 0.00140586 4.67924e-21)
(7.1771 0.192249 -2.95427e-20)
(13.4086 -2.62227 0)
(4.78692 -10.4605 -3.94585e-20)
(10.8371 0.309967 5.89693e-21)
(12.0484 3.08214 0)
(7.45311 -0.279303 1.70253e-20)
(11.0466 0.503139 0)
(8.39107 7.3918 1.60568e-20)
(12.9911 -0.227923 0)
(8.04452 10.3129 0)
(12.3648 0.425438 5.70719e-21)
(11.3926 0.507862 1.70202e-21)
(13.3858 -0.0919925 -1.33967e-20)
(9.62916 0.578498 -1.11423e-20)
(7.77293 4.13247 -8.19132e-21)
(10.0156 0.42627 -4.34518e-21)
(10.3703 1.2804 0)
(10.8783 -0.203295 -6.7017e-21)
(11.7277 0.425347 8.40835e-22)
(7.00258 3.17182 1.02358e-20)
(11.4982 -3.06281 0)
(14.0252 2.09398 7.87838e-21)
(10.7323 6.98752 2.23885e-22)
(13.2367 -0.0579762 4.30803e-21)
(13.5292 -11.4036 0)
(5.8747 1.97225 7.31718e-20)
(10.2677 0.732518 0)
(9.53001 -1.0196 1.8586e-21)
(-3.46077 0.770724 0)
(15.5037 -0.642973 0)
(3.31952 -10.626 0)
(10.2652 -3.95154 0)
(-1.48326 8.17496 -1.04752e-20)
(4.44379 -12.0725 -1.08862e-20)
(9.4541 -0.414398 -1.94261e-20)
(4.19014 -10.9764 -1.10249e-20)
(6.8359 -2.88904 0)
(5.76596 -12.5625 -1.22362e-20)
(-4.91791 0.0723805 -7.59384e-20)
(8.28125 -3.90625 0)
(7.62568 -2.74368 -2.8043e-20)
(8.70621 -2.13536 7.79331e-23)
(11.2669 1.45862 5.67057e-21)
(12.0506 -4.30552 8.62369e-21)
(9.32417 0.56921 0)
(11.0862 -3.71744 0)
(15.079 -0.383975 7.85182e-21)
(3.38645 15.6905 4.88661e-21)
(10.4651 -2.18929 -6.53742e-22)
(7.94735 -12.0845 -6.41731e-21)
(9.98976 0.0438499 9.80685e-22)
(8.13651 -1.37841 -5.26531e-23)
(10.0822 0.762896 1.34256e-20)
(5.79156 -8.00063 1.29243e-20)
(9.66545 -2.85612 0)
(-3.64547 6.34307 0)
(13.0505 -0.366234 0)
(8.32603 0.123298 0)
(8.9367 -1.8888 1.21118e-20)
(12.0579 -0.747494 0)
(2.02218 4.96007 1.42243e-19)
(12.1138 -9.9065 -6.38729e-22)
(6.99513 -2.31062 -4.01099e-20)
(18.8872 0.737087 3.35587e-20)
(3.33709 -11.4031 -1.75012e-20)
(5.24856 3.78281 -6.04445e-20)
(10.9088 0.0909062 3.70821e-21)
(-2.1669 -9.20972 -3.13318e-20)
(5.94896 -6.39141 1.12405e-20)
(12.4978 0.371274 0)
(12.256 -2.1895 0)
(11.6827 9.44706 0)
(11.1917 -2.408 7.93077e-21)
(9.04649 -8.96685 0)
(9.17519 2.40007 0)
(10.0217 0.0552887 0)
(9.09354 -2.38309 1.32541e-20)
(10.3991 0.778261 -1.27171e-20)
(8.02315 0.287448 0)
(4.60125 -2.14267 3.50224e-21)
(9.8513 0.855406 -1.30483e-20)
(12.179 3.6804 -6.10922e-21)
(8.39289 -3.88865 1.79068e-20)
(9.57243 2.77876 9.77089e-23)
(1.11934 12.9645 -3.63615e-21)
(7.65811 1.01585 1.18163e-19)
(4.43161 8.29943 -1.9916e-21)
(11.4135 0.560617 -2.15913e-21)
(10.4276 -1.77068 -1.0997e-21)
(9.19645 0.150185 -1.79416e-20)
(10.4457 0.0200688 0)
(9.27782 -1.27934 4.66662e-21)
(9.76331 0.231566 1.86551e-20)
(13.9105 -6.01947 1.41599e-20)
(10.932 -1.74618 -8.79858e-21)
(5.9469 -1.25143 -3.36825e-20)
(11.4079 0.447603 3.36787e-22)
(14.279 0.747038 1.36526e-20)
(10.0596 0.400093 0)
(8.06089 5.51248 -5.83914e-21)
(15.1111 -8.00497 -8.02655e-21)
(4.88237 8.16947 1.33541e-23)
(-0.0528296 -4.05272 -4.4466e-21)
(9.95416 -0.0106625 1.01669e-20)
(11.8345 -0.81435 -3.76557e-22)
(13.4327 0.00283452 -1.0562e-21)
(13.2508 -0.231256 0)
(14.5436 -1.11892 0)
(7.96753 -3.80657 2.17121e-20)
(-12.4134 5.71238 7.45046e-20)
(8.52459 0.0448287 4.42363e-24)
(9.80833 0.209629 3.72552e-20)
(8.66948 6.29797 1.72633e-20)
(7.51406 0.81216 0)
(9.07602 0.180349 0)
(8.34418 -2.01276 -7.20086e-23)
(12.0736 0.30883 8.8346e-21)
(9.77856 2.51203 1.89959e-20)
(13.1106 -0.238023 0)
(11.153 -0.293271 0)
(10.6487 -3.19705 2.82354e-20)
(10.1542 -1.02464 1.67638e-20)
(1.88207 -2.04977 2.00915e-21)
(10.9931 0.88552 0)
(16.7566 -0.49892 9.62604e-21)
(7.11986 -3.70481 -6.99799e-22)
(-0.190573 -0.8723 -6.1384e-20)
(9.97013 -0.256613 -2.21605e-20)
(15.2753 -2.74168 0)
(12.9691 -3.58811 1.19767e-20)
(14.392 -11.6217 -4.74196e-20)
(2.41869 -1.74127 0)
(8.933 0.135581 -1.42288e-21)
(9.55476 0.37007 -1.20689e-20)
(8.81784 0.108634 -2.08022e-25)
(14.4545 -0.85876 3.62067e-21)
(10.9429 11.4425 2.18572e-20)
(10.7538 0.0682856 0)
(5.93047 -2.14026 -1.75325e-22)
(8.8482 5.80449 -1.50044e-20)
(17.1457 -5.14018 -6.76724e-20)
(10.1815 1.21191 1.01821e-20)
(7.82354 -8.27755 5.82196e-21)
(9.63668 0.00711265 -4.84304e-20)
(7.73343 -1.7295 1.26068e-21)
(1.66481 -8.16222 8.80152e-20)
(8.94913 -2.21165 0)
(17.3486 -3.1608 -6.94194e-21)
(6.27786 -2.82949 1.39224e-20)
(11.4427 -0.537972 -2.80725e-20)
(9.85641 0.146267 -1.69226e-20)
(9.33751 -0.653042 -2.38459e-21)
(8.64544 -1.12054 4.26842e-20)
(12.9605 -0.103135 -1.39123e-21)
(9.09245 0.23505 1.02412e-20)
(9.27374 -1.49536 3.90532e-22)
(12.7857 -2.60216 -1.60359e-20)
(12.0236 4.14829 -4.52405e-21)
(11.0525 -11.6897 2.4795e-20)
(10.6431 -0.12356 0)
(6.99337 10.7436 0)
(3.70797 -2.44391 0)
(6.97568 -2.14841 3.07395e-20)
(9.75652 0.064293 -2.70075e-20)
(9.04015 0.783847 0)
(7.96467 -1.8679 -2.45711e-20)
(9.02056 0.673101 0)
(8.98579 -1.70667 -2.00405e-20)
(6.29929 2.30237 9.64765e-21)
(9.56974 -2.68255 -1.94744e-20)
(10.8918 0.0633826 0)
(9.66137 0.0601679 0)
(12.4338 2.66557 -6.58463e-21)
(12.1814 0.833998 1.34181e-22)
(11.2559 -0.467022 3.76337e-21)
(11.2068 7.25932 -9.51368e-22)
(13.5995 -0.531785 0)
(8.85648 -3.36278 -9.78213e-21)
(-2.75996 3.83948 0)
(4.06952 2.69728 -1.61827e-20)
(13.5084 4.75993 0)
(11.7523 -0.730193 8.5669e-22)
(6.28505 -1.0429 1.30348e-20)
(8.00297 -0.98597 1.34619e-20)
(12.4499 1.14981 7.24747e-21)
(12.3616 -10.0586 -6.50837e-20)
(10.0106 -1.19409 4.22041e-20)
(10.2598 1.26012 -3.17761e-22)
(11.7845 -3.48975 -1.26451e-20)
(10.1961 -2.42235 -1.01295e-20)
(-0.890186 3.77979 3.2978e-20)
(12.4461 1.5015 0)
(9.88424 0.18816 5.8895e-23)
(8.05814 -2.12427 0)
(9.165 -10.2746 -9.22317e-20)
(8.95487 -3.37354 -5.16706e-21)
(8.67485 -0.968768 -1.40507e-20)
(8.46138 0.0306706 2.3507e-23)
(11.8426 -0.00628053 -3.42774e-21)
(8.57999 -0.506439 2.85131e-20)
(12.4957 -0.196506 -1.17632e-20)
(10.0916 -2.01744 0)
(-8.18626 8.49858 0)
(11.4668 -0.19354 3.81606e-21)
(13.2666 -0.0356907 0)
(9.67526 0.709144 -6.03978e-21)
(8.1361 4.62468 -1.23036e-20)