/*--------------------------------*- C++ -*----------------------------------*\
| =========                 |                                                 |
| \\      /  F ield         | OpenFOAM: The Open Source CFD Toolbox           |
|  \\    /   O peration     | Version:  2306                                  |
|   \\  /    A nd           | Website:  www.openfoam.com                      |
|    \\/     M anipulation  |                                                 |
\*---------------------------------------------------------------------------*/
FoamFile
{
    version     2.0;
    format      ascii;
    arch        "LSB;label=32;scalar=64";
    class       surfaceScalarField;
    location    "5.2";
    object      phi;
}
// * * * * * * * * * * * * * * * * * * * * * * * * * * * * * * * * * * * * * //

dimensions      [0 3 -1 0 0 0 0];

oriented        oriented;

internalField   nonuniform List<scalar> 
7520
(
-0.995913
0.797173
0.19874
-1.32941
-0.204543
1.53396
0.0253031
-1.91125
1.88595
0.231792
-0.0320989
-0.199693
0.11264
1.48844
-1.60108
-0.0884101
0.0950471
-0.00663703
-0.299156
2.09571
-1.79656
-0.190418
-1.7743
1.96471
-1.46437
1.48968
0.842643
-0.057949
-0.784694
0.0995579
-0.258202
0.158645
-0.290328
-1.6594
1.94973
0.713109
-0.110318
-0.602791
-0.0970853
0.134455
-0.0373701
-1.90228
0.896025
1.00626
0.114474
1.57574
-1.69022
0.0197258
-0.0698304
0.0501047
-0.227767
0.0396171
0.18815
0.0163491
0.0564168
-0.0727659
0.0297527
-0.010027
-0.398083
-0.282803
0.680886
-1.0759
1.19038
-0.0297573
-0.312763
0.34252
0.131057
-0.141207
0.0101504
0.0278235
-0.216075
0.188251
0.252013
-0.243543
-0.00847041
0.855282
1.12163
-1.97691
-0.0354408
0.314208
-0.278767
-0.0667721
0.0831212
0.195718
-0.0308353
-0.164882
-1.14861
1.7476
-0.59899
-0.0470314
-0.0179243
0.0649556
-1.83981
2.02931
-0.189501
-0.299732
0.268234
0.0314982
-0.262567
-1.27689
1.53945
-0.446334
0.987919
-0.541586
0.274818
-0.545118
0.2703
0.769667
-1.52441
0.754741
0.0892018
-0.312106
0.222904
-0.0441728
-0.100543
0.144716
-0.027558
0.25935
0.362205
0.286962
-0.649167
0.285211
-0.0331974
2.12804
-1.59968
-0.528355
-0.553223
-0.608432
1.16166
-1.47634
1.61521
-0.138875
-0.0778636
0.0396471
0.0382164
0.259885
-0.0765583
-0.183327
-1.34223
0.193615
0.27214
-0.0760794
-0.19606
1.79839
0.177391
-1.97578
-0.725471
0.257443
0.468028
0.171845
-0.160118
-0.0117268
1.06696
0.481595
-1.54856
0.0140986
-0.102509
-0.755063
0.128987
0.626076
0.39686
-1.26
0.863144
-0.041481
-0.122347
0.163828
-0.115119
0.068088
-2.19394
1.10568
1.08826
1.36414
-0.624411
-0.739724
-0.0133406
0.0501381
-0.0367975
-1.27374
1.01117
0.835807
-0.122698
0.0155644
0.156281
0.00395161
-0.101037
1.10454
-2.26164
1.1571
0.162328
1.63606
-1.23735
0.977375
0.259979
0.313149
-0.236264
-0.0768851
-0.503985
0.900845
0.231777
-0.914492
0.682715
0.337741
-0.0930781
-0.244663
0.392333
-0.439606
0.0472728
0.767942
-1.44449
0.676552
0.126372
-0.110443
-0.0159296
1.95528
-0.842558
-1.11272
0.401689
-0.755349
0.353659
1.69271
-1.1928
-0.499916
-0.814817
0.0597543
-1.47865
-0.715294
1.3037
-0.153133
-1.15057
0.227882
-0.617788
0.389907
-0.150767
-0.148965
-0.212748
-0.0150189
0.212537
-0.0168189
0.0112634
-0.0504702
0.0392068
0.967708
0.987573
-1.85845
2.09355
-0.235106
0.587683
0.776452
-0.953967
1.12327
-0.169305
-0.00498566
-0.035033
0.0400186
1.33323
-1.62356
0.240041
0.193871
-0.104669
0.454775
0.253326
-0.708101
0.00748785
0.08285
-0.0903379
-0.549777
0.394562
0.155216
1.30794
-0.539997
-0.717107
0.620696
0.0964105
0.734485
-1.0928
0.358319
-0.0866544
0.109358
-0.0227032
0.00280365
-0.00945166
0.006648
2.46148
-1.37801
-1.08347
0.530676
-0.419138
-0.576775
-1.344
0.840011
-1.93379
1.63463
0.163801
-0.077021
-0.0867804
-0.0238417
0.1234
-0.156944
0.155771
0.00117297
-0.155071
0.227621
-0.0725503
1.89996
-1.13029
0.121304
-0.0488174
-0.0724868
-0.756768
0.358685
-0.02099
-0.0498632
0.0708532
0.0616223
1.24208
-0.803187
0.494577
0.30861
1.32126
-2.00173
0.680476
0.0296636
0.101393
-0.184311
-0.54116
-0.389034
0.100619
0.288414
1.06169
-0.219049
-0.00294719
-0.0348665
0.0378137
-0.0275441
0.03562
-0.00807592
-0.0109485
0.00407595
0.0068726
0.685748
-1.78241
1.09666
0.385006
-0.414763
-0.346539
-0.0521606
0.398699
0.111688
0.00961593
-0.00138408
-0.334767
0.336151
0.140909
0.0311861
-0.172095
-0.0623802
0.203289
-0.615399
-0.187788
-0.10776
-0.580363
0.688123
-0.864574
1.87898
-1.01441
0.410337
-0.425335
0.0149982
-1.16539
-0.178606
-0.0330541
-0.0490465
0.0821006
1.42296
-0.355996
-0.642227
0.426229
0.215998
-0.000713975
0.114079
-0.113365
0.286691
-0.0741054
-0.212586
0.215676
-2.12693
0.330782
-1.80712
-2.24621
0.797368
1.44885
-0.835343
-0.40201
-1.26901
1.11333
0.155687
1.98307
0.199807
-2.18287
0.179703
-0.223875
-0.10469
1.2608
-1.15611
-0.248655
-0.366745
0.615399
0.115339
-1.38435
-1.84361
0.00380246
-0.00355522
0.0148187
0.0623409
-0.118019
0.0556781
0.284161
-0.325642
0.949101
-0.214616
-0.153064
0.125506
-0.0462432
0.0128315
0.0334116
0.753863
-0.426307
-0.327556
-0.449156
-1.45313
-0.0148765
-0.233778
0.0358702
-0.580085
0.544214
0.222632
-0.062705
-0.159927
-1.56927
0.935926
0.633347
0.692686
-0.580045
-0.0525594
0.443725
-0.391165
-0.246325
0.274149
0.516137
-0.241586
-0.27455
0.996898
-0.542123
0.235168
-0.311247
0.930798
0.270631
-1.20143
0.297519
-0.33296
-0.374265
-1.44997
1.82423
1.2669
0.677542
0.688176
-0.460294
-1.33747
0.891133
-0.712583
0.923012
-0.210429
0.01241
-0.0369335
0.0245235
0.277178
-0.322033
0.0448557
-1.50744
1.56906
-0.273074
-0.149523
0.422597
0.216015
0.00661689
-0.850258
0.886128
0.551289
-1.05532
0.504036
-0.515305
-0.0344722
0.675026
-0.400208
0.137007
-0.0106344
-0.452551
0.253925
0.198626
0.0711677
-0.226238
-0.348564
-0.123798
0.472362
0.130959
0.206782
-0.825703
-0.61879
-0.748547
-0.820726
0.0102154
0.0285766
-0.038792
1.64301
-0.56165
-1.08136
-1.26759
0.403015
-1.15706
2.13515
-0.978091
0.358798
0.157339
-0.370699
0.281727
0.0889717
-0.771883
0.587572
0.572942
-1.12617
1.74862
-0.0519225
-1.69669
-1.46724
1.92836
-0.461125
-0.0228048
0.0851456
0.415425
1.39641
-1.81184
0.0331904
-0.162701
0.12951
-0.131348
1.79298
-1.66163
0.00164717
0.108055
-0.109702
-0.897407
1.23406
-0.33665
-0.116087
-0.655796
0.07906
-0.427624
0.285795
-0.164107
-1.66861
1.83272
0.00283748
0.0535793
-1.60935
0.783644
0.145281
-0.230496
0.0852145
0.0253929
-0.052937
0.150795
1.55878
-1.70957
-0.578553
-0.553155
1.13171
-0.508118
0.402425
0.105693
2.51057
-1.63158
-0.878989
0.44332
-1.02187
-0.0484864
0.0587651
-0.0102787
0.106765
0.726868
-0.833633
0.0417168
-0.0455409
0.00382409
0.828155
0.810368
-1.63852
-0.224033
-0.493074
-0.0577781
0.16427
-0.106492
-0.935018
0.705818
0.2292
-0.0712721
0.0387307
0.0325414
1.63593
0.00707606
1.08767
-2.03819
0.950524
-2.83599
1.21882
1.61718
-1.20435
-1.63164
-0.375102
0.49496
-0.119858
0.427194
-0.389551
-0.0376427
0.718623
-1.61589
0.897263
0.0448098
1.08317
-1.12798
-0.91449
0.761356
1.12598
-0.195183
1.07718
1.21658
-2.29376
-0.175027
0.0805116
0.0945156
0.0441261
-0.979145
1.87865
-0.489189
-1.38946
0.132274
-0.0990835
0.12144
-0.0654629
-0.00436758
1.05935
0.819305
0.210232
0.655504
-0.865736
0.356102
-0.0418945
-0.0142971
0.0651549
-0.0508578
0.358244
-0.411772
0.0535283
-1.81082
0.853108
0.957709
0.243604
0.18359
0.723837
-0.831597
0.449734
-0.0332741
-0.41646
0.131736
0.128149
-1.81033
1.77077
0.0395509
1.16264
-0.61135
0.0576704
0.114758
-0.172429
-0.0313195
-0.189956
0.221276
0.117523
-0.210601
1.66005
-0.555508
0.00283272
0.0925843
-0.095417
0.00167156
-0.0479147
-0.230413
-0.0277895
0.895326
-0.642
-0.644056
0.688866
-0.384242
-0.0683093
2.09571
0.0250583
-0.0242289
-0.000829403
0.0130617
0.882265
-0.198753
0.129144
0.0696083
0.0324735
-0.0296699
-0.295475
0.65768
1.38701
-1.4917
0.411087
-0.36623
-0.0448568
0.30458
-1.20199
0.194417
-0.195801
-1.82748
1.66337
-0.103694
0.0552075
-2.0179
0.217738
-0.218452
-0.0732267
-0.0310492
0.104276
-0.604414
-1.2064
1.52919
0.932293
1.72356
-0.787633
-1.6594
0.101022
-0.103969
0.073935
0.0738254
-0.14776
0.177035
-0.237634
0.0605996
-1.23244
0.624006
-0.194042
-0.261353
0.455394
0.335218
-0.393167
-0.113508
-1.94814
2.06165
0.999057
0.206586
-1.49008
1.2835
0.918677
1.11064
-0.717027
1.55134
-1.13592
-0.0572257
0.386701
-0.329475
-0.881831
0.74561
0.136222
-0.0538427
0.0566754
-0.0825144
0.323417
-0.240902
-0.261686
-0.261904
0.52359
-0.530336
1.79724
-0.27428
-0.3657
0.63998
-0.0363435
-0.0415201
0.26313
-1.2171
0.0265718
-0.0408689
0.00839269
-1.84324
0.988046
0.855196
0.359425
-0.469743
0.00885479
-0.0187989
0.429136
1.08474
1.42583
1.64599
-0.528739
-1.11725
0.116768
-0.0432708
-0.073497
0.736245
0.956466
0.102078
-0.0281433
0.688297
-2.09333
1.40503
-0.0495714
0.0656541
-0.0160828
0.551744
0.756195
-0.213542
-0.0985632
0.752309
-0.542077
-0.577864
1.43315
0.153437
0.0103647
1.84244
-0.521183
0.14227
-0.134782
1.76677
-0.120789
0.0992198
0.396261
0.0148258
0.017115
0.296034
-1.7564
-0.837955
0.975302
-0.137347
0.00575207
-0.116195
1.74392
0.0756045
-1.81952
-0.713472
0.439192
0.220227
0.066464
-0.304125
0.0678611
0.013563
-1.20636
1.54725
-1.5598
0.0125536
0.0136408
-0.289174
0.275533
-0.717314
1.26906
-0.837538
1.52329
0.0406317
-0.0269909
0.788226
-0.293649
1.93544
-0.602212
0.00515945
0.117615
-0.122774
-0.0642872
-0.10146
0.165747
0.113865
0.00290271
-0.176282
-0.737565
-0.261208
-0.0731532
0.334361
0.598342
1.28064
-1.72999
1.35573
0.108378
-0.454917
-0.768453
1.00023
-1.14507
1.33559
-0.19052
0.529831
-1.77798
1.64664
1.90276
-0.935049
1.31589
0.81215
-0.0670164
0.265506
1.28174
-1.30373
0.270614
1.03311
0.247513
-0.278349
0.35901
-0.115406
-0.209719
0.147339
-0.0831863
-1.51649
0.499824
-1.22151
0.721689
-1.23425
0.728674
0.505573
-0.164216
-0.750276
-0.0541999
0.0408593
0.0857242
-0.00687524
0.166335
-0.15946
-0.535471
0.482911
0.902493
1.00026
-1.46724
-0.0142589
0.0033104
1.61437
-1.42912
-0.185242
-0.418356
1.81477
-1.63337
2.53282
-0.899449
-0.758214
1.04126
-0.283051
0.105974
-1.37971
-0.0662208
-0.323331
-0.272097
0.421284
-0.149187
-0.0209092
0.0114576
1.32822
0.707138
-1.27729
0.570153
-0.00656439
-1.56297
1.56953
-0.0517842
-0.10516
-0.00401057
-0.473708
0.477718
-0.628514
1.5268
-0.898285
0.195723
-0.135693
-0.0600293
-0.401603
0.392736
0.00886692
-1.97813
1.77358
2.09219
-0.448211
-1.64398
-0.1096
0.0730358
0.0365646
0.0122941
0.16474
0.107993
-0.623298
-0.853461
1.68162
-0.037572
0.016582
1.74862
-0.962569
1.06933
0.0693941
-0.0693941
-0.130674
0.246269
-2.10471
2.25237
-0.929858
-1.32251
-0.743436
0.831807
-0.08837
-0.0641212
-0.292392
0.356514
1.01976
-1.18186
0.162099
-0.584857
-0.221584
0.806441
0.832955
-2.00363
1.17067
-0.0868907
-0.79494
-0.208203
0.143916
-0.203369
-0.58549
0.788859
0.762057
0.417532
-1.17959
-1.30081
-0.420211
0.66617
-0.245959
-0.801586
1.20799
-0.406403
1.44244
-1.29164
-0.0202566
-0.240952
0.0204073
-0.0393437
0.431676
-1.1852
1.05122
0.133986
-1.30813
1.83271
-0.524577
-0.0166285
0.129261
-0.112632
-1.49358
-0.768065
-0.0617496
-0.00502249
-1.63067
0.473608
-0.365562
0.283048
-0.212451
-0.545762
0.0307777
-0.0803491
-0.767792
1.84497
0.0426245
-0.355387
-1.52589
0.130229
1.39566
0.887558
-0.790054
-0.0975047
-0.883634
0.171051
0.212735
-0.562049
0.349314
1.59345
-0.132547
-1.4609
-0.029786
-0.0056747
0.0354607
-0.379113
0.774881
0.678952
-1.45383
-0.547353
1.44338
0.230458
0.665196
0.757765
-0.101806
1.58352
0.183259
-1.3989
1.39234
-0.0203187
-0.0615173
0.081836
0.0319499
-0.161105
0.129155
-2.03441
0.401039
-0.0809371
0.367899
-0.611346
-0.226608
0.248718
0.852033
-0.280874
-0.571159
0.187992
0.097219
-1.16693
1.82138
-0.65445
0.147678
-0.249138
-0.0684364
0.345614
0.243237
-0.515334
-0.207875
0.184506
0.0233683
0.203404
-0.0443096
-0.159094
0.769272
-1.0672
0.297923
-0.0274841
-0.0381574
0.0656415
-0.28549
0.317317
-0.0318261
0.0918859
-0.425887
0.334001
0.301131
-0.053618
0.122498
0.328975
-0.451473
1.40692
-1.02563
-0.951279
-0.0241741
-0.425665
0.449839
0.0862939
-0.0327145
-0.275879
-0.232239
1.12174
-0.269705
-0.0855825
-1.21361
1.29919
-0.358569
-0.030465
-0.0196977
-0.595701
-0.184166
-0.217437
0.166605
-0.164958
-1.39132
-0.0343816
-0.0784697
0.112851
1.27768
-1.00705
1.07121
1.02098
0.391895
0.0578392
-0.164084
-1.59786
1.76194
0.699178
0.499032
-1.19821
-0.0718772
-1.03322
0.674711
0.358511
0.966034
-0.0784753
0.0056903
0.040315
-0.0460053
2.19259
-1.18915
-1.00344
0.134174
-0.299535
0.16536
0.690512
0.432315
-1.12283
0.0680172
0.100136
-0.168153
1.72831
0.0292567
-1.75757
-0.0768332
0.11645
-0.250363
0.292987
0.0521781
-0.0103298
-0.0418483
0.0679171
-0.280665
0.0489181
0.0205878
-0.0695059
-0.491954
-0.661517
1.15347
1.13498
0.458465
0.97975
-1.06533
0.699126
-1.32764
-1.8544
1.74089
0.0662128
-0.0305928
0.256817
-0.602453
0.345636
0.730483
0.993077
1.1355
-1.3354
0.199905
1.21603
-0.550839
-0.129714
0.0864431
0.0936493
-0.380565
0.286916
-1.60148
-0.378388
1.97987
-0.408162
0.44861
-0.0404482
-0.00666798
0.076062
0.243793
1.24465
-0.134581
-0.0404458
0.915669
-1.97666
1.061
-0.768597
-0.342949
1.11155
1.58954
-0.501876
0.128494
0.553873
-0.920618
-0.258946
0.00446605
0.25448
0.0190194
-0.183902
-0.47865
1.18579
0.00920665
0.0325102
-0.250713
0.106532
0.144181
0.0254906
0.994269
0.291174
-0.871538
-0.460279
-0.417464
0.518084
0.729805
-0.942256
-0.0210475
-0.0277699
-0.103634
0.0992667
-1.9394
0.913767
0.0248978
0.10321
-0.128107
-0.311076
0.238127
0.0729486
0.219983
0.863191
0.0527441
-0.00260601
-0.0317552
-1.65644
1.6882
0.191383
-0.747994
0.556611
-0.0111717
0.0595195
-0.0483478
-0.69759
1.19741
-0.134896
-0.367031
0.501927
-0.276384
0.489119
-0.618477
0.964131
-0.345655
-0.613073
0.528351
0.0847226
2.06053
-0.0774663
0.00246068
-0.223419
0.220958
-0.20745
-0.127316
-0.175526
-0.0698564
1.13662
0.956929
0.250698
-1.40034
1.14964
-0.807604
-0.176174
0.983778
-0.0804456
0.168221
-0.0877752
0.0931995
0.173272
-0.266471
-0.0867051
-0.145178
0.231883
-0.0196775
0.0462492
-1.08606
-0.227429
0.0113544
-0.0779996
0.0371307
-0.121936
0.385841
-0.263905
-0.226333
0.260438
-0.0341055
-0.0111184
0.0999646
-0.0888463
0.789736
-0.384784
-0.0717982
0.021328
-0.158067
-0.599718
0.757785
1.20108
-0.981099
0.0143013
-0.356507
0.342205
-0.65944
-0.433364
-1.3505
1.51283
1.19217
0.0686305
-1.28679
0.833978
0.452811
0.213306
-0.0915942
-0.121712
1.75214
-1.75214
-1.59591
0.117263
-1.07417
-0.241364
-0.609596
0.85096
0.585354
-0.54688
-0.038474
-0.217426
-0.140641
0.111555
0.029086
0.00808416
0.199538
-0.207622
-0.496625
1.25748
-0.760854
0.248599
-0.182389
-0.0662091
0.793351
-0.687377
-1.0456
0.237996
-0.0387776
-0.211346
0.250123
0.00569179
-1.30942
-0.522336
-1.23089
0.708553
0.675513
0.0186271
0.229555
-0.248182
-0.268777
0.325917
-0.0571403
-0.224038
0.16626
-0.0805752
-0.10844
0.0352133
0.0353718
-0.0193047
0.200546
-0.181242
-0.290553
-0.0900118
-0.237766
0.360264
0.0527055
-0.0839179
0.0312124
-0.0523398
-0.10004
0.15238
0.0218329
-0.0646917
0.0428588
-0.0630093
0.164243
-0.101233
-0.626282
1.34797
0.576007
-1.13951
0.563502
-0.148989
-0.0782682
0.227257
-0.0777745
-2.3068
2.38458
0.877951
-0.565288
-0.312663
0.458812
-0.037604
-0.20003
-0.0494828
-0.000380418
-0.0531783
0.187353
0.306069
-0.944445
0.638376
-0.464832
-1.34549
-0.200383
0.833837
-0.633454
0.0525898
0.0590984
0.401369
-0.269617
-0.131752
0.341447
-0.499514
-0.646563
0.0716065
-0.248035
0.176429
-0.521758
0.327716
-0.150355
0.576584
-0.262766
0.231446
-1.68417
0.306162
-0.292589
0.535826
0.0316887
-0.239892
0.383305
-0.0963894
0.319867
-0.30124
-0.0829699
-1.32346
0.697176
1.98703
-0.194051
-1.66861
2.25435
-1.08334
-1.17101
-0.0944894
0.489051
-0.0761956
-0.738622
0.506099
-0.434931
-0.241181
-0.0177656
-0.591871
-0.406228
0.998099
-0.0155431
0.134245
-0.118702
0.0285055
-0.863849
-1.9799
-0.307369
-0.330763
0.638131
0.551329
-0.359946
-0.239966
-0.0371889
0.277155
0.462363
-0.0773571
0.160025
0.0532814
1.99955
-1.1666
-0.912256
0.320384
-0.247119
-0.0494136
0.296532
-0.0454497
-0.101423
-1.08044
0.139957
-0.295581
0.155624
-0.0817193
-0.0334001
0.907172
-1.16384
0.256669
-0.647355
-0.0444194
1.79656
0.0271106
-0.626828
1.30721
-2.05043
0.743219
-2.01675
1.40056
0.616194
0.145538
0.101415
-0.246953
0.155763
1.18954
0.00148812
0.825847
-0.827335
-0.044287
0.136871
-0.00444411
-0.105156
-0.0305325
-0.264319
0.294852
1.24129
-1.40537
0.17818
0.161682
-0.0892265
-0.0724554
-1.45337
-0.142543
-0.580171
-0.647632
0.623458
0.106575
0.00342165
-0.109997
-0.602767
0.278196
0.324571
-0.389935
0.33271
-1.0767
-0.560463
1.63717
-0.115304
0.220043
-0.284165
0.195241
-0.604269
0.409028
-0.268866
0.99754
-0.153579
-0.848175
0.104738
0.770003
-0.0461659
0.904602
-1.40123
-0.0533915
0.0446065
0.00878498
1.09082
-0.479548
-1.12153
-0.340427
-0.0717812
0.412208
-0.0525615
0.199901
-0.12194
-0.0899553
0.211896
0.244095
-0.259114
-0.205968
1.59298
-0.195429
0.302203
-0.0670354
-0.429803
0.411004
-0.177082
0.0743952
0.102686
0.239023
-0.10753
-0.131494
-0.14028
-0.0400033
0.180283
0.247449
-0.0894223
-0.158026
-0.0928285
0.0847525
-0.209785
-0.0793894
-0.0430443
1.17626
-0.22143
0.0739303
0.147499
-0.0581592
0.0456875
0.0124717
0.0493217
-0.417851
0.368529
0.185894
0.225126
-0.645337
0.0198314
0.357084
-0.0729227
-0.26306
0.0167353
-0.126872
-0.0358284
1.80055
-0.990185
0.0863679
-0.249313
0.162945
-1.58146
0.230952
-0.0690157
0.0871934
-0.0181777
-0.0393821
-0.03189
-0.60918
-1.40757
0.355741
-0.0582223
-0.839613
-1.25372
-0.0617053
-0.189008
-0.526488
0.721729
0.986189
-0.723551
-1.13179
1.38249
-1.91968
0.318198
-0.206102
0.104446
0.101656
0.130917
-0.17544
-0.39406
0.5695
-0.0424815
-0.0529355
-0.452937
-0.864541
1.31748
-0.803655
-1.07533
1.87898
0.605714
0.350094
-0.955808
-0.00352033
0.331022
-0.259416
-0.267144
-0.24819
-0.167249
-0.101731
0.26898
0.253757
0.361642
0.273502
0.127867
0.228144
-0.599958
-0.0105709
0.0356292
-0.663012
0.876274
-0.213262
-0.141261
0.146139
-0.887343
0.0353282
-0.00675165
-0.821064
-0.00312098
0.339272
-0.697115
-0.134482
-0.138427
-0.896352
-0.324035
1.22039
-0.157324
0.663422
0.172846
0.658961
-0.28914
-1.00856
-0.930838
-1.26173
1.42383
0.0747987
0.123572
0.00956507
-0.060073
0.0505079
-0.62622
0.573475
0.0527447
0.68606
-0.802147
0.209855
-0.184957
-1.15533
-0.131456
-0.313326
0.324437
-0.0111107
1.08386
-0.314583
-1.45151
-0.120912
1.57242
-0.0535353
-0.237018
0.192952
0.124027
-0.316979
-0.229564
0.389892
0.140785
-0.0425112
0.00883938
0.0336718
-1.30569
0.816502
-0.082949
0.0404675
-0.170786
-0.128749
-0.322395
-0.00427506
-0.0167724
0.277714
0.303247
0.063224
-0.105072
0.323162
1.44761
-0.66494
1.98083
1.00995
0.621266
-0.84285
0.0162623
-1.46777
-0.167151
-0.323043
0.379166
-0.0561222
0.0230643
-0.0189883
-0.0744278
0.0124897
-0.0536821
0.12177
-0.0951224
1.62505
-1.52992
0.196592
-0.852388
-0.123256
-0.256754
-0.0688886
0.143175
-0.280199
0.353561
-0.0733618
-0.00620455
-1.44393
1.45014
0.635424
0.272907
0.312447
-0.64995
-0.574921
0.95277
-0.37785
-0.0087599
-0.0699792
0.308106
-0.468279
0.893031
-0.424753
-0.119834
-0.233265
0.3531
-0.133568
-0.641901
0.775468
-0.274003
-0.0589563
-2.03005
-0.0402386
0.179558
-0.174398
0.022586
-0.0268711
-0.0560779
0.336792
-0.667555
2.18557
-0.945343
-1.24023
-0.0307959
0.423016
0.263129
-0.0701774
-0.328234
0.0801987
-0.169642
-0.0136846
-0.369767
0.219
-0.279072
0.845953
-0.979521
0.135383
-0.0914449
-0.0439384
-0.37668
-1.93679
1.01982
0.916971
-1.84635
1.76858
-1.16641
0.379118
0.787287
0.0802941
-0.0112689
-0.0690252
0.622203
0.499536
-0.109875
0.194969
-0.0588104
-0.0329292
-0.0485846
-0.258572
-0.0110456
1.04766
1.13791
0.0809423
-0.0157875
1.52178
-1.32197
-0.0392678
-1.39019
1.42945
1.20695
-0.0306871
-0.289484
-0.0760784
0.251986
0.0219651
-0.245517
0.028189
0.330821
0.583113
-1.62721
1.04409
0.0793746
2.42483
-1.43976
-0.985073
0.00755836
-0.311603
0.0192105
1.47746
0.0916018
1.30651
-1.18925
1.07601
-1.87966
-1.24088
0.00662499
1.23426
-1.13422
-0.0378563
1.17208
-0.0274198
0.0645505
2.28553
0.0116988
-2.29723
-1.11294
2.01296
-0.900024
0.0444802
0.215958
-1.03718
0.235592
-0.00754325
-0.0961506
-1.34479
0.199718
-0.00543727
-0.00985878
0.0152961
-0.0897318
0.220306
-0.130574
0.13779
-0.483801
0.346011
0.525693
0.449609
-0.516361
-0.0864064
0.0774958
0.865592
-0.952483
-0.0651738
-0.0528452
-0.248931
0.0528704
-0.066818
1.47069
-1.40387
-0.48207
0.898449
-0.416379
0.0509757
-0.408453
0.357477
-0.950349
-1.57751
0.755697
0.82181
0.011383
0.824141
0.277266
-1.10141
-0.392267
0.216516
-0.240098
0.0235817
0.16431
-0.0347995
-0.243806
0.00383998
-0.284308
-1.41064
-0.0810567
-0.39345
0.790384
-0.396934
-0.711909
-0.625558
1.74074
-0.752698
-0.0999792
0.179698
-1.3978
0.0480368
-1.40172
1.35368
-0.233275
0.0304264
0.202848
0.962574
-1.10229
0.13972
0.133417
-0.0193374
-0.0964355
-1.47123
0.759323
-0.592945
1.26766
-0.305285
0.0748718
0.291812
0.208747
0.0302759
0.810591
-0.371399
-0.00859921
0.694659
-0.967186
0.426026
-1.87036
0.795031
1.20463
-1.21083
-1.45433
1.35921
-0.126727
-1.46374
0.207912
1.25583
0.594249
0.239588
0.0326977
-0.922722
0.681358
-0.104713
-0.128523
0.233236
-1.57749
0.291086
1.28641
0.358981
0.766328
-1.12531
0.0572691
-1.319
0.770594
0.113552
-0.884147
0.025521
0.246779
-1.01523
-0.033914
-0.0114208
0.0501515
1.49746
-1.4682
0.0719448
-1.01404
-0.56347
0.78838
-0.0377286
-1.20315
1.09826
-0.274117
-1.64664
-0.0127671
-0.27535
-0.92608
0.328701
0.0377495
1.8544
0.241313
0.159212
-1.23965
0.132536
-0.10135
0.205701
-0.467386
0.322665
-0.539315
0.21665
0.282753
-0.00241192
-0.280341
0.0489885
-0.272407
0.0375499
0.320694
-1.11842
1.14488
-0.0264596
-0.73215
1.12686
-1.85571
0.728851
-0.696415
-0.0563682
0.0889096
-1.48444
0.145
1.33943
-0.363356
0.893187
-0.659724
0.688229
0.161934
0.961573
0.543511
-1.00379
-0.829081
-0.164727
0.993808
-0.649873
-1.25089
0.797953
-0.119586
0.122632
-0.00304553
0.0423064
-0.0906542
0.97573
-1.45438
-0.436212
-0.371961
0.808173
-0.16289
0.130839
0.0320508
-1.07648
0.434578
0.035974
0.0248806
-0.224574
0.410383
2.0332
0.252329
-0.794203
0.795691
-0.258944
0.0881582
-1.12564
1.84232
-0.716672
-0.0740358
0.062297
0.0747096
0.363792
-0.021272
0.963794
1.17136
0.650893
-0.944542
0.313908
-1.94549
-0.162562
0.12818
0.146599
-1.15365
-0.204501
-0.95934
-0.204674
0.0516102
0.782247
-0.371864
-1.34019
0.556425
1.03655
0.179793
-1.67015
0.300433
1.36972
-0.0836198
0.473511
0.669415
-1.16514
-0.3021
0.736324
-0.315786
-0.420538
0.853829
-0.281539
-0.57229
-0.172999
0.0373056
0.624641
-0.644739
0.0200987
-1.08562
0.183337
0.90228
0.684708
0.279423
0.000593803
0.105982
0.74302
-0.517894
-1.86831
0.676471
1.19184
-1.83272
1.45433
0.86358
0.768604
-1.63218
0.786664
-0.726909
1.80398
-0.604628
-1.19935
-1.03358
0.166642
-0.0801988
-0.0625141
-0.101742
0.182254
-0.033099
0.110897
-0.0777977
-0.247814
-0.191791
-1.60326
-0.171032
0.0607641
-0.0912966
-0.0314822
-0.0140587
1.01556
-0.487486
-0.528073
0.762913
-0.484717
-0.109907
0.122201
-0.143855
1.27935
-0.244376
0.0111016
-0.330733
-0.745746
-1.47131
0.574953
-0.0718249
-0.0693824
0.120594
0.0737681
0.0933374
-0.0837723
-0.502651
-0.110891
0.0894672
-0.0765221
-0.0129451
0.174696
-1.10733
-0.213556
1.32089
-0.0675681
0.040697
0.0214837
1.06409
1.0134
-2.07749
-0.386338
0.992053
0.208543
-0.0830372
0.623292
-0.855404
-0.672122
1.52753
-0.940328
-0.979572
0.573344
0.295292
-0.191161
-0.104132
0.705988
-1.26764
-0.145393
1.62658
-0.49972
-0.174615
0.10051
-0.401372
-0.738137
0.0713607
1.98319
-1.74089
-0.242301
-0.88544
-0.585865
-0.133514
0.159897
0.0640766
-1.0257
-0.199934
1.22564
0.241741
0.393532
-0.513367
-1.64018
-1.64208
0.699676
0.9424
-0.155587
-0.00478529
0.160373
0.951178
-0.558771
-0.392407
0.102487
-0.156169
0.0753156
0.0804557
0.884466
-1.96117
0.75975
0.0940791
-0.320428
-0.591828
0.142619
-0.00837383
0.144455
0.0357776
-1.14311
0.0322602
0.354441
-0.529801
0.490457
-0.0829743
-0.0110507
0.094025
0.988085
0.815893
0.570117
0.0600276
0.687681
-0.536748
-0.150934
1.77798
-1.47755
-0.162411
-0.45682
0.139374
0.0249357
0.205561
0.0114962
-0.192738
0.00334537
-0.122932
0.570604
0.0519686
-1.80081
-0.0191701
-0.136417
-0.0689693
0.00889625
1.0311
-0.858253
0.885044
-0.456687
-0.428357
0.00384808
0.10551
-0.00899868
0.0035614
0.394607
0.0989616
-0.258056
-0.648231
-0.418965
-2.25576
0.883472
1.37229
-0.0446446
0.00961159
0.0128337
0.0995994
0.112937
-0.272432
-0.289617
0.504994
-1.3604
0.255766
-0.958636
2.02273
0.630008
-0.077847
-0.552161
-0.667387
-0.487385
-0.0594949
0.0864204
-1.1118
0.484404
-0.714325
0.229922
-0.176302
0.0820859
0.0942159
-0.150781
1.25553
1.27729
-1.40195
1.47755
-1.70689
1.24646
0.460428
1.06951
-2.02815
2.17548
-1.09074
-1.0441
-1.01036
-0.0227722
0.189108
-0.0598014
-0.413906
-1.5466
0.0828597
-0.0583318
-1.27707
1.21477
-1.97275
0.757979
-0.0508133
0.230516
-0.436601
0.226281
-0.141558
1.02152
1.40331
-1.88036
0.754714
-0.173518
-0.766811
-1.3467
0.19625
-0.114164
1.84635
-1.92382
-0.13692
-1.10435
0.107673
1.21902
-0.444139
-1.53868
1.60779
-0.0691114
0.466641
1.91794
0.431671
-0.0688937
-0.362778
1.8475
-0.771497
0.227524
-0.2686
0.745802
-0.765499
0.0823756
0.126372
0.523284
0.928081
-1.45136
-0.614905
-0.453878
1.0387
-1.06179
0.0230912
-0.200309
-0.0952724
-1.73493
0.741268
0.993664
1.18031
-0.217739
-0.40091
0.0154938
0.838723
-0.884889
0.274555
-0.541699
-0.245375
0.262111
-0.626365
0.450925
-1.15941
-0.813998
1.9734
-0.292426
0.203003
-0.155242
-0.125423
1.03165
-0.92691
0.0688652
1.36393
-2.02887
-0.0813268
-0.389662
0.216888
-1.19799
0.101327
0.695846
0.428817
0.0288103
-0.6143
-1.49026
0.358466
0.0958844
0.322091
-0.417975
0.0671322
-0.308035
1.16187
1.09248
1.25076
-0.994092
0.0441171
-0.19541
-0.216362
0.431043
-0.201374
-0.0577399
-0.682246
-0.946826
2.01634
-0.240268
0.251651
-0.621418
-1.13976
1.76118
-2.013
0.900064
-0.0650732
0.291198
0.0773314
-1.46184
-0.0640464
-0.149772
0.634176
-1.02186
-1.2339
1.98319
0.558426
-1.37915
1.00812
-0.558511
-0.213344
0.0460746
-0.30549
-0.240263
0.254565
-1.63637
0.209587
-0.784508
1.07486
-2.02168
-0.7865
-0.278523
0.151206
-0.0766745
-1.462
0.847224
-0.981706
1.345
0.780064
-1.49324
0.713175
1.3936
-1.21027
1.94973
-0.935719
-1.03017
1.96589
0.56871
1.28009
-1.03834
-0.657255
-0.984822
-0.847136
-0.859755
0.454691
-0.646782
1.47311
-0.826331
-0.124663
1.37659
-1.25193
-0.997009
-0.950651
1.94766
0.910957
0.127745
0.226659
0.359644
-0.443999
0.284735
0.159265
-0.00682489
-0.242314
0.492545
-1.37799
-0.774056
-0.384413
-0.241807
-0.275459
0.272338
-0.310053
0.992768
-1.98841
0.875616
1.1128
-0.0373036
-1.64255
1.67985
0.034307
-0.242747
0.0351247
0.611761
-1.83928
1.83928
-0.0418226
-0.013201
0.0550236
-0.640395
1.05793
0.140344
0.0559055
-0.774306
-0.324672
0.686314
-1.40195
-0.0557345
-1.25727
0.294697
1.27194
-1.26625
-1.18707
0.161367
-0.290287
0.333769
-0.0434822
0.120257
0.504384
0.327198
-0.0444454
-0.952686
-1.19054
0.195148
0.995397
-1.40158
-0.24574
-0.639452
-1.21626
-0.0318793
-0.0106318
0.156758
-0.25781
-0.0704238
-0.00812917
0.0713532
0.37239
-0.269193
-0.357173
-0.722673
1.27839
-0.555713
0.302619
0.200009
-0.227702
0.394903
-0.167201
-0.433489
0.171585
0.418078
-0.527956
0.109878
-1.13946
1.82799
-0.964411
-1.26267
-1.67949
0.235558
-1.32668
0.0486028
1.01687
1.17572
0.154571
-1.08065
1.14926
-0.0980414
-0.279735
-0.0255497
0.655226
0.60549
0.181174
2.01028
-0.935423
-1.05792
-0.802539
1.86045
1.12345
0.00395139
-1.12741
0.114847
-0.0691593
-0.187801
0.171172
0.133848
1.33455
-1.4684
-1.28253
1.21083
0.0717035
1.28253
-1.35921
0.208707
-0.25952
-0.813855
1.06063
0.075197
0.208306
-0.123553
-1.67175
0.181663
1.53341
-0.753342
-0.32099
-0.0599513
0.134347
-0.425907
0.944343
0.250767
-0.0854066
0.619551
-1.0443
0.171703
-0.231733
-0.565274
-0.0525147
0.686845
-2.0763
0.513338
-0.0696069
0.42612
-0.356513
-1.03686
-0.935883
0.0616617
0.63262
0.530019
-0.880784
0.0865812
-0.0918493
-0.316604
0.0998866
-2.08549
1.04138
0.0377106
-0.0182667
-0.282973
0.101013
0.176701
-0.0472467
-1.41973
0.679807
-1.48041
0.8006
0.0572699
0.24089
-0.29816
0.17842
-0.104594
-1.02303
1.31773
0.622794
0.369259
1.31777
-1.16514
0.180637
0.0395897
1.67851
-1.96465
0.286137
-0.0762671
-0.528002
-0.824822
-0.0593247
0.367232
-0.439013
0.325519
-0.421909
-1.20389
-0.0457473
-0.0510398
0.0967872
-1.47572
0.200475
1.27525
0.359374
-0.412909
0.0757191
0.267235
-0.342954
1.1641
-1.20182
-0.342458
0.340046
0.60587
0.24509
-0.356933
0.345822
0.262595
-0.203496
0.170391
0.65178
-0.822171
-0.425615
-0.0581859
-0.927858
-1.01361
1.94146
-0.0738301
-0.245151
0.408096
-1.00445
1.76858
0.336902
-0.205985
0.0457229
0.0459779
0.0143031
2.05686
-1.0092
-1.23691
0.759722
-0.550135
-0.612168
1.80401
0.342367
-0.243405
-0.114149
0.107481
0.253773
-0.106274
-0.279749
0.178017
-0.248593
-0.029763
-0.228047
1.07877
-0.301403
0.402417
0.30475
-0.0751943
0.0360644
0.289373
0.0414482
0.483995
-0.753187
0.203234
-0.232418
0.029184
-0.320516
0.350943
0.172693
0.895953
-1.06865
-0.234298
0.105775
0.471118
-0.628442
1.68568
-1.08734
1.01659
0.907581
0.0999637
0.55932
-1.07209
0.345822
-0.423179
-0.359019
1.14838
0.851173
-1.50126
1.50126
1.72935
-0.826275
1.08941
-0.0089484
1.51018
-1.50123
0.928162
1.01628
0.866131
-2.02554
0.182348
-1.16187
-1.34188
-0.218289
-1.42592
1.64421
-0.399741
-0.122017
0.0699267
0.988377
0.151129
-0.258659
-0.914506
1.58026
-0.66575
-0.173611
0.255987
-0.0266629
-0.0275048
0.993539
2.54693
-1.00665
-1.54029
1.61457
-1.46957
1.12239
0.213204
0.0381794
0.00245226
0.00461235
1.55416
0.573328
1.10726
0.714119
0.0202922
0.190869
-0.211161
-0.33631
0.207561
0.175743
-0.187452
0.0117098
0.156516
-0.210356
0.0538401
0.51674
-0.439244
0.330198
-0.471459
-0.208939
0.309961
0.0168152
-0.247395
0.0299691
-0.56188
0.520849
0.041031
-0.114844
0.0959792
0.0188648
1.92382
-1.56484
0.355608
-0.234225
-0.121383
-1.49746
-0.3344
0.261477
-0.993793
1.92196
0.253588
-0.322477
2.03613
-1.17
0.240695
-0.30773
-0.151827
-0.356272
-1.34445
-0.05968
1.60908
1.30138
-1.0845
-0.106481
0.136145
-0.0686329
-1.49117
-0.286984
0.278513
0.237056
-0.360311
-0.357645
0.284284
-0.0745538
-1.34383
1.30457
-1.46869
1.48124
-1.15979
-0.464799
0.419942
0.65334
0.3786
-0.389646
-0.0523272
0.057731
0.342012
-0.399743
-0.350708
1.41006
-0.972592
-1.00748
-1.9806
-0.0767482
0.0730342