/*--------------------------------*- C++ -*----------------------------------*\
| =========                 |                                                 |
| \\      /  F ield         | OpenFOAM: The Open Source CFD Toolbox           |
|  \\    /   O peration     | Version:  2306                                  |
|   \\  /    A nd           | Website:  www.openfoam.com                      |
|    \\/     M anipulation  |                                                 |
\*---------------------------------------------------------------------------*/
FoamFile
{
    version     2.0;
    format      ascii;
    arch        "LSB;label=32;scalar=64";
    class       volScalarField;
    location    "9";
    object      p;
}
// * * * * * * * * * * * * * * * * * * * * * * * * * * * * * * * * * * * * * //

dimensions      [0 2 -2 0 0 0 0];

internalField   nonuniform List<scalar> 
13486
(
7.77491
6.94093
1.71552
-0.0370965
-0.769218
0.624202
-3.27473
2.24667
4.10931
4.27422
-24.0985
1.25895
8.18367
0.955569
-0.690591
4.56239
-13.3424
1.32339
1.44874
7.07742
-7.82774
8.04929
6.79636
-8.85321
3.98822
-7.82304
-15.8814
-1.70269
0.0812149
-1.37918
-10.2104
0.140949
-5.39494
0.424019
2.29406
-0.696922
-27.1337
5.4214
-0.943185
4.41733
-5.84959
8.58085
0.942707
3.87874
3.7674
1.25532
-10.1157
0.0759371
-26.2484
-1.61683
5.01053
3.57692
0.84462
5.60908
2.10983
-0.28759
2.00894
2.59045
-5.00404
-10.8077
-29.2184
-11.2947
-7.69291
-9.42836
-5.99007
-23.1311
-2.22787
8.19508
4.01048
0.634298
-1.87997
1.8982
4.70017
-10.8315
-13.3054
2.06345
-13.42
-0.903037
-10.3916
-0.842667
-0.299413
7.14138
-8.13312
1.53287
7.79472
5.83106
-17.4826
4.83185
5.68482
4.99661
0.516664
1.39289
7.27479
6.9898
4.14351
0.000668708
-16.1203
-8.85249
4.29814
-13.5466
-0.47975
1.18403
-9.59391
2.92768
6.42071
-13.5497
5.3922
-1.40955
-10.4993
0.343322
3.29534
-1.10041
5.61836
1.70788
9.71517
3.70342
4.05263
0.622869
4.76335
-16.1489
1.08131
-28.0956
4.58036
-0.782089
3.38087
3.52658
2.17488
2.36685
1.05129
-3.56202
3.70214
-9.62259
-10.4148
-10.4855
5.15076
5.21872
10.919
0.624934
-13.495
2.59871
-3.75262
0.864167
0.831885
-0.687347
1.59771
-12.2987
-1.84684
9.04204
-1.90438
0.052719
3.83623
-1.57086
-0.244015
7.30741
2.68134
1.73022
-0.858608
-15.1113
4.51859
-0.0517042
-0.88008
4.51509
0.186009
8.50193
3.35678
0.116551
1.55358
11.6095
-1.60492
-10.4613
-11.8145
2.71556
4.36268
1.32614
-0.306375
-24.6094
0.76463
-4.57814
5.36881
0.885981
3.80264
1.68949
1.03653
-20.3602
1.25985
-1.67981
0.0231442
-0.806956
-5.26181
4.12658
-20.972
2.00767
1.96974
8.29867
2.16057
-23.1474
-3.99184
-1.0346
6.4183
0.323396
-7.7563
2.29912
5.42884
-2.60082
-0.148186
2.19435
1.5466
5.43621
2.0468
1.30788
-1.19498
-6.09379
6.99109
5.4071
0.634402
-0.509145
-1.50037
5.01157
6.70343
-4.38915
-13.3358
-2.00088
2.81558
-1.05507
0.54549
7.29942
-0.163766
-7.83203
0.627351
-20.4613
3.74381
-11.6106
-4.01042
8.83981
-9.33474
6.8138
-0.089803
2.01394
6.92118
1.40421
-5.63741
4.2871
1.75528
6.33849
-6.04451
6.16493
1.64618
-4.16931
-10.6927
4.16583
-19.251
9.87166
3.35529
-1.19132
0.536395
-29.5359
0.286846
-0.376742
-13.5633
-5.50157
6.25291
-6.27933
-0.568533
-27.729
-0.542376
-20.5158
0.756962
-10.2034
4.57003
-1.29338
6.85973
5.354
-1.68268
1.07218
7.31479
-3.62684
0.773391
2.58473
-1.05763
-1.64594
2.19412
3.16339
5.48678
-17.0373
-27.248
-14.6163
-3.32608
0.898316
0.54871
4.65183
-8.69764
-9.86282
3.98139
5.17941
0.11228
-0.424195
-0.93495
1.10769
5.52298
-4.62138
0.238438
1.80762
-1.43416
0.1174
-22.4244
-2.45065
-12.6627
1.75657
-19.128
-22.3557
-9.09354
0.936589
1.5399
-0.820681
-27.9631
5.34378
-9.25585
5.72946
5.51597
0.579309
-23.878
-9.84936
5.34076
7.0815
10.6771
0.485442
1.27588
3.02444
1.03202
0.821497
4.86101
0.973871
0.498405
8.05513
-3.61915
3.74664
9.95177
-1.4024
4.08391
-7.83596
0.792241
7.04978
0.533289
0.999621
-23.8649
0.0482588
2.0992
9.4893
-4.49024
-9.90032
2.22389
1.02361
1.07794
-16.5611
5.48034
-3.73094
-10.8237
2.11342
-21.0362
-5.53468
1.4509
0.630906
6.19253
5.37392
-1.56152
-0.073655
-0.239606
-9.43659
7.1576
2.21881
0.842981
2.21829
0.428761
-21.6545
0.919682
5.08378
5.39603
-9.31564
-26.8494
-7.05339
4.39156
0.786307
8.46039
7.08087
-9.70251
0.939516
1.59244
4.00313
-11.9741
-20.4332
6.83449
-2.05543
3.26981
7.09929
8.44209
-8.11815
-0.521199
-20.7914
-12.296
-3.66398
-12.0499
3.6091
3.79246
-12.6743
-2.77979
-5.74131
6.88008
-4.43511
2.49008
6.61068
3.89551
-0.0285047
-2.3904
5.55359
5.36371
8.14686
-20.6575
-0.412782
-11.2437
1.41823
5.38031
-3.91762
9.55038
4.22452
-0.574353
-0.601414
2.31112
5.50812
-15.7047
1.87438
7.97633
3.85132
3.22638
0.446215
-1.57613
-4.55527
8.49974
-10.0254
1.50026
8.06031
-11.4535
-1.71299
-10.5342
-2.52701
-31.8545
5.60167
7.79611
8.06991
-7.26043
-19.5828
-24.4545
4.14962
5.83316
-1.57843
-1.84724
5.3537
-17.0566
-25.196
-19.5104
-11.8796
1.8414
6.22933
-0.371367
1.92083
-3.48114
5.48607
0.0886202
10.8372
7.2929
4.55786
1.82782
-1.04758
-0.0171224
9.8559
2.52427
-11.1391
-0.517713
3.80066
-14.5083
1.07458
4.42759
-5.97605
-0.403622
6.77374
-4.28337
-12.5947
4.155
-19.0899
11.5749
4.21179
5.05908
5.74172
-25.766
1.26323
9.60317
-1.08875
7.04602
-4.12906
2.57938
-8.95868
-0.766747
1.0288
-13.7348
5.92024
3.53226
-19.7763
0.0595585
0.46017
8.46298
5.58935
1.06628
3.69492
2.43274
-0.249538
-0.693802
5.09323
-11.4763
8.34026
-4.36683
-0.078243
8.565
0.806506
-0.831671
2.32609
-6.67151
-14.8708
1.52841
0.0376872
4.72024
7.26847
-18.6028
-1.60703
-18.4677
0.0229983
6.85095
2.59123
-20.7733
-10.9548
-3.20497
-12.8089
2.20913
-5.27272
-1.69649
3.70239
7.92676
-1.51036
6.13195
-11.6205
-23.3089
-2.46375
3.14296
-24.2711
5.30518
1.35839
-31.0199
2.84886
5.32397
-5.71733
-18.9438
5.07053
6.98936
2.98192
7.89343
1.32446
4.32226
2.38493
5.63082
1.47784
6.70149
-16.3039
3.45563
3.33172
1.36826
-3.31054
5.28292
-11.4756
1.12221
7.56649
7.97866
-0.00734888
-11.5227
2.79063
0.664344
3.97879
5.07974
-3.36227
-18.5109
1.3733
7.56986
2.03402
2.03114
-16.8965
8.0646
-1.19217
1.74053
5.30309
1.62306
-0.684136
3.15876
2.26928
1.01498
-14.8522
3.0642
-2.83538
7.78067
3.6063
2.48184
2.62047
-1.58601
-3.2816
9.21794
2.70095
9.20316
-7.64287
4.77636
-0.944041
-10.9097
-0.229434
4.14045
9.80546
-14.1744
0.505622
1.02477
-4.98499
4.04928
1.56865
0.247284
4.08246
-19.1683
-2.9527
-4.99209
1.62896
0.359511
5.67177
-0.377129
8.73614
4.26842
-1.21064
-22.5367
-1.10482
2.79927
-25.9623
1.116
-13.7677
6.73497
-0.0602705
2.07519
-33.4617
8.45324
0.106008
0.361469
8.49801
5.06007
-21.6147
-1.8213
2.36333
1.6911
3.21068
1.67744
-2.14437
3.03068
4.01921
2.65392
3.31554
8.67754
1.7121
-17.3396
5.2829
-4.24828
0.408118
1.49815
4.55792
3.4271
-20.6126
1.35456
-8.6764
0.950729
6.83659
2.70699
0.958739
1.46384
-6.93004
2.41343
6.10532
1.12462
3.03573
4.04484
7.94782
0.506125
-0.665435
9.13535
0.721547
-16.3911
4.97944
-4.38068
6.26581
1.53179
5.29445
-13.0834
-10.6884
-7.7337
-0.266917
-12.91
3.86249
9.51646
-0.566393
-11.6149
-0.393823
6.25198
-1.19966
3.34333
-33.4991
9.657
-20.7201
1.90679
-1.81493
4.07155
5.71895
4.01435
-6.5016
-13.2987
8.39558
5.42076
-1.80248
4.00382
-6.84473
2.51158
2.1457
3.95262
-9.78856
1.25673
6.75983
-2.89534
0.152189
2.11194
-15.0678
-0.589783
1.88837
5.34456
6.09625
-12.8596
1.22395
-20.5291
-10.9122
1.06665
0.332361
0.606908
5.28364
1.41403
-1.99493
5.13592
-10.5757
-1.49929
0.765079
-0.857429
-12.8906
-6.63571
-7.26189
-33.2354
3.16434
8.16752
-10.0898
-1.60301
8.52663
7.82583
0.0905099
-4.15299
3.99514
-10.431
1.76584
-0.751675
1.64688
-0.0458819
-12.7227
3.34933
4.34377
-0.606411
1.90097
-6.77366
0.732773
2.92456
4.22137
2.31587
-15.0716
5.78195
7.62314
-14.2635
-31.8224
4.6217
-3.05663
2.49145
-1.86191
-1.14015
-15.9042
0.864877
5.44637
9.22545
5.32552
-1.75642
0.907893
5.35503
7.44319
2.74893
4.28336
5.05196
8.44237
-2.71598
-7.25729
1.96524
1.68687
8.28435
1.18054
3.53667
2.39459
1.12646
1.29483
0.911237
-3.40181
5.45677
6.10897
4.40253
3.59189
-8.94338
0.124557
0.523118
0.0283008
-3.15241
0.930429
1.60826
-37.2233
-32.3295
3.73294
-1.09255
-10.6374
-8.58131
-1.23927
1.32168
-20.7513
-23.2829
5.69265
-7.40714
8.04029
-6.73927
-10.7454
5.09107
6.9172
-10.6288
1.74543
-4.51494
5.82508
-0.362068
-6.3081
-0.931835
-25.8759
1.80363
5.31146
1.98545
3.97054
-9.18863
3.86204
-15.6855
1.63119
-3.49179
5.72482
-2.74681
-25.6917
-16.8862
7.95417
-1.09912
-17.2535
-22.6151
5.02724
-19.3717
-10.0243
1.33608
-0.00541223
-3.94147
1.46313
-5.45418
5.62015
5.33506
5.1498
3.40068
1.7888
-0.618832
4.71348
0.417222
5.25872
4.97614
-0.755322
-1.54231
0.713251
1.02964
-19.6264
6.10156
3.11704
-3.23185
5.39739
1.70518
2.63817
9.65355
0.911442
-4.39283
4.37088
-8.1127
0.194201
0.612436
-5.50021
4.98701
1.75814
0.768624
1.42966
-0.462448
5.86511
-21.101
-0.126367
5.40942
-7.68851
8.13053
6.24543
6.52661
1.43521
4.72156
0.918467
1.86113
1.59526
4.29808
-12.5988
1.23875
-8.14734
-2.07158
-32.3293
4.80683
-10.474
-7.37296
-35.0983
-14.7314
-5.46335
5.56851
-2.20688
0.464059
-9.9451
5.37545
9.38376
-6.45959
-28.3297
3.98589
-8.95294
4.84078
-0.982238
-4.6605
5.54751
4.57427
8.70216
2.4549
5.33825
-0.936835
6.55563
1.77923
6.31001
-5.78714
-5.81541
0.872081
-15.7529
2.34146
-7.5771
-10.9634
8.02832
5.36983
6.18926
7.14111
6.24115
5.73979
0.455655
4.16914
5.40679
5.41333
1.54728
-0.166393
-1.88407
-0.758076
0.61461
4.62651
-10.7807
9.89075
-2.09278
1.73178
9.23114
7.46997
1.29353
-10.8132
4.47118
3.79029
-7.16203
3.48354
-10.8391
-0.423504
5.33119
6.82985
-3.52977
4.49435
6.49949
-0.128034
-0.805251
6.74637
1.46757
-22.2577
-19.5902
1.56307
-3.26146
5.4275
5.89063
-18.2363
-3.32631
-2.32237
0.468683
4.3514
1.32159
8.0268
3.57896
10.5
4.86831
1.46232
5.56839
-22.1675
-10.5421
-18.1939
5.0202
-2.67221
-9.4253
-6.1841
3.53657
4.23068
-7.87457
0.891249
-9.46799
0.0379054
-1.58024
-9.44636
2.93578
0.978232
6.24344
5.50063
6.02479
4.11102
1.28436
-4.2573
-2.69756
1.38989
-1.45748
2.90434
2.8137
-4.47651
0.869101
-12.3648
0.392729
-35.0721
2.53983
3.84604
0.75995
-2.67195
1.1761
-1.84441
-4.71958
0.976761
-8.62242
4.49889
4.55767
5.88236
-10.588
5.12264
1.56034
7.19171
1.92572
3.73369
-0.825987
0.731643
8.60417
9.86975
3.43172
-0.645557
4.40511
3.29143
8.69064
1.15757
-4.63391
-32.8533
1.18249
-1.14247
-8.43826
5.35541
4.71243
-4.54256
-3.9947
2.11106
3.96608
9.7041
-12.3439
4.85999
-12.2778
3.64878
7.87331
2.46203
2.68509
1.96269
5.14092
1.50193
10.2927
-29.7807
-1.90886
3.58909
1.03133
-23.9524
-10.7455
0.796912
6.20299
-4.82909
-0.502781
7.84116
7.24902
2.25815
-6.02606
-28.9812
2.3279
4.99139
4.49082
6.78326
2.30578
-23.1425
7.25465
2.92354
-5.5829
1.87256
5.82221
5.77079
-27.5774
-9.67307
0.036881
4.99504
8.31155
1.90053
0.455301
-3.28416
9.77949
-16.3466
-3.59078
8.83613
5.04641
-2.72724
2.7231
-1.88538
0.363022
-1.81044
-17.1131
-6.84741
-20.8588
1.48359
-0.67532
-10.8559
-13.0138
-9.04439
-10.0146
-12.1801
-19.7419
7.15269
5.40253
-0.969472
-9.68096
0.261759
2.24967
1.14536
10.4374
0.867382
-2.2206
5.05814
-1.05809
-22.2072
2.02294
1.92168
4.71213
10.6796
0.170819
2.46655
-9.42192
1.22227
1.20513
3.36371
-0.415435
7.39585
4.94876
5.65495
-7.11783
-1.08787
1.86987
4.08064
5.35713
4.14389
5.52664
9.75935
9.15395
-1.07397
5.07548
6.70184
-2.10022
6.68026
1.61443
9.02024
6.58877
1.48029
6.24767
3.67544
1.87167
1.72859
5.90268
-3.9701
3.40197
-1.37588
0.685974
0.609999
4.90479
4.19122
0.675817
8.59524
8.56426
1.43988
-10.5802
1.45129
-7.15622
2.06201
5.19064
7.39331
-10.6422
5.44249
3.64629
1.47911
4.07123
-29.3014
2.21796
-15.0899
10.246
-1.31149
-21.6966
6.61751
0.598693
2.10753
3.5401
1.1549
4.72337
-2.44814
-0.968244
2.18493
2.06991
0.75389
1.62524
9.36478
7.4058
5.55697
9.2734
8.31117
0.103051
2.80152
2.179
-2.58222
8.53877
-3.29084
4.42125
3.20355
-23.0984
0.184002
5.4579
-10.4494
1.54673
4.64483
10.8076
-16.7071
1.43601
-3.64204
4.75665
1.708
-9.82956
8.28607
6.52737
3.76294
5.00782
-1.69386
-1.68366
-13.4979
9.1342
-1.4636
10.203
-9.73225
0.443808
-11.2766
-0.879292
-10.7785
0.557979
-0.162971
2.95405
-14.3703
2.86661
-10.6886
-0.0965058
0.69504
-10.5719
-1.52021
-6.57113
-16.4022
3.36864
-2.4099
-28.4032
3.81378
3.98976
7.97665
5.33592
0.976062
1.49181
11.8252
4.27567
-15.5701
-0.402187
0.874851
4.77908
3.48782
7.41551
-3.10379
-3.13612
1.90166
-0.117644
1.44642
7.08362
-10.6182
-24.2583
-13.0847
9.26762
-7.53979
2.48259
6.32782
-10.8106
2.39207
3.20488
-18.3265
-17.5652
0.0354882
4.36867
5.28102
6.21408
-6.98928
-10.6991
0.414342
-11.0617
-1.76529
1.24271
0.60006
-1.73777
-18.9
-11.4265
-16.9773
-7.76241
7.86694
-7.80126
9.06849
-25.2609
-0.164583
0.465411
-1.76098
6.9781
3.33154
6.9604
-10.9048
-1.71821
-19.4116
6.51217
-10.5397
4.53242
-8.12033
7.33733
7.1418
-6.70595
5.04393
8.49849
4.59824
5.31743
-6.63656
-5.24102
0.963684
-3.94005
-1.33387
0.557482
0.914851
1.65777
-21.0074
1.29018
1.01969
2.51922
1.30669
-1.38101
8.98991
1.33489
0.0307117
1.02585
5.31659
-3.75149
0.165731
4.68516
-0.867747
1.79386
0.250782
3.9795
5.32495
5.21282
-19.7818
5.40653
6.21864
5.02539
-0.857398
1.78572
2.53669
3.19498
-3.13477
-10.8151
-15.2822
-4.36432
-3.06724
-0.338213
-0.117435
1.73525
-10.9606
-1.99755
-37.3015
0.885202
-2.08607
3.06593
-20.2978
5.69377
11.7425
3.09261
0.559349
3.49277
2.01394
1.44485
0.643308
-1.52708
-32.6109
1.22207
6.35515
0.140211
8.25415
0.566429
5.19202
2.3381
1.14635
-11.3146
-0.544502
10.0377
-1.47123
5.37133
5.29858
7.36974
1.12375
6.49003
4.15439
-11.2484
4.74692
-16.6504
-14.6618
6.65532
5.04954
-5.98328
2.21059
6.78886
-6.2972
-10.1633
1.67929
1.54226
5.08376
3.71011
5.81737
3.1472
3.48122
-6.9216
-1.72472
-0.821687
5.76175
10.1587
-2.05743
-14.6417
-11.2042
3.52526
1.3688
1.34519
-1.81327
0.61216
2.2816
-12.5709
-0.474983
9.85252
3.28097
0.522025
-11.1177
-12.0829
-4.85921
-12.4209
-7.35782
-25.3575
6.74117
3.71094
-2.32468
9.38572
-0.365915
-20.5604
-0.174582
-14.9641
4.60469
-9.54726
2.88147
3.94682
-30.7165
-0.8456
1.93661
-15.6683
-6.99084
6.14646
-35.597
-1.74744
-13.3035
5.31
5.35198
-8.75113
6.33424
5.43946
7.77222
8.33088
4.67451
1.15071
10.327
-12.9452
3.58099
-4.33545
-34.708
6.9218
-14.0198
8.49791
3.50117
-3.86104
-9.72602
-8.87013
5.93803
-14.9657
-2.4252
-0.852999
-0.873849
1.01774
4.11863
2.15515
1.80609
9.25876
-10.5884
-7.41904
1.69764
3.85345
4.97101
-4.74747
11.5836
0.926077
0.730124
4.74145
-3.16852
5.26823
4.25436
5.24672
4.87364
0.256509
0.357255
4.10598
1.39825
-12.573
-2.00059
4.37149
5.55701
6.67418
-8.10317
1.71339
-1.24881
4.03432
0.619263
-24.2392
5.05594
1.48382
5.01504
5.62841
-13.2022
8.13792
-9.43806
9.91134
4.92056
-37.7349
0.18127
-19.4267
4.19823
5.88016
-36.5629
6.60572
5.47395
-0.91238
1.34654
1.41927
0.663619
-0.906105
-13.1539
0.587338
-5.77447
5.33626
-10.9232
-8.68527
-0.816006
6.63942
7.01889
4.68068
-10.4317
3.58805
1.14357
1.4001
3.79012
-13.9804
-13.1843
8.9877
-0.755533
1.01919
-3.70869
-15.9545
-10.0838
5.43976
-13.1584
0.544631
5.88998
1.33027
5.51281
-17.9474
1.44715
9.436
-6.76618
5.71998
0.518054
-10.9111
2.91122
1.41304
1.42553
9.55397
5.13147
-6.54761
9.66011
6.25539
6.77846
-10.9244
-10.7251
0.117366
-4.15735
-9.14338
-9.84239
-3.28259
-8.90023
2.59975
1.48511
0.579028
1.37845
-11.3224
1.40587
6.00571
-18.9339
3.87784
4.13859
5.34343
0.930273
-6.30265
-9.46167
-12.3957
-15.5671
0.170738
5.98806
-36.803
7.76359
-22.3192
5.27556
0.10684
-10.7991
-4.60253
4.74215
3.63755
2.38829
3.35697
2.51048
2.01422
7.16886
7.18031
-5.30449
-14.656
-8.40822
5.22472
1.48055
-2.04345
-6.89499
1.37404
3.01376
-22.5939
3.41875
2.13172
0.374422
3.6314
1.34353
-2.05747
-38.2425
6.98826
-10.3695
4.90251
0.0571456
5.03078
4.98232
3.90697
3.60975
-8.14316
-10.9631
-9.75161
-11.3844
-15.3467
-8.18941
-2.0804
-10.0914
4.94712
1.08858
5.30441
-21.9098
0.862177
-5.53575
0.469671
4.87591
-17.4264
4.22702
1.34347
-29.9302
-9.14625
-12.5682
2.5424
5.53444
-6.20056
1.18546
-10.5079
4.95193
-16.8698
0.441136
-23.719
6.28668
1.63391
-1.18115
5.4091
4.3362
5.75456
4.46096
7.31721
-7.13674
0.368772
1.91429
3.20546
4.14901
1.37113
-5.86116
-16.2918
-29.358
0.524557
1.95276
-33.9271
9.6192
-7.32035
5.41826
2.4695
-2.47083
4.79495
-0.347966
-1.29608
1.8806
1.068
5.3758
-9.35267
5.37319
-5.72775
-2.42558
-15.0448
-1.14544
-18.6877
5.55474
9.36686
5.61002
-0.497392
-4.59492
4.71554
-15.6332
-17.652
-30.6692
1.99499
-6.69887
-38.5011
-21.2493
-2.11548
3.30613
3.44148
-9.33266
1.4529
6.01947
-1.61928
-5.42336
5.91817
3.09792
-25.4948
1.28265
0.233322
0.158279
9.47927
-33.4114
3.48689
-3.06078
-1.70828
-1.515
3.95699
-0.84691
2.58208
-1.89242
-2.77994
0.261742
-3.64377
6.32
3.50653
2.16515
3.16552
0.214725
9.71026
-10.0358
5.15566
5.55631
1.80034
4.63585
1.52447
-11.084
3.33644
5.15011
4.18155
4.20571
-18.8674
5.94795
1.92475
7.84327
-3.34506
5.23828
6.57502
5.02715
0.901971
-21.3995
2.81328
-14.669
2.29912
3.48557
5.75075
1.73021
7.74793
1.14447
8.40682
-2.5727
5.7576
0.74094
2.62451
-19.7185
5.27244
1.24887
3.4699
9.14568
5.48755
1.01812
-1.51294
1.89778
5.21772
1.19156
-12.4384
2.62848
-5.10928
6.58891
-8.72905
7.91868
2.51516
11.9896
8.52012
1.23292
0.234601
-21.8953
1.5946
8.86395
-0.868562
1.08645
1.41272
10.1757
3.85154
3.09205
9.4074
-1.87676
5.38232
0.709087
5.31939
2.12584
4.65178
4.6756
6.63351
4.64751
-9.79551
1.46799
-13.3558
1.04817
-5.40812
-24.5543
7.67653
7.43742
0.806129
-2.71678
1.40983
6.03088
3.24204
3.55754
4.08009
1.54121
-10.6973
-8.44747
5.60136
-5.69321
0.962461
3.69457
1.67521
1.55855
-1.65224
9.70898
-10.3205
7.76656
-3.42851
9.48406
-1.55565
-0.367724
-9.97889
1.82593
3.42622
5.32515
-0.679154
2.86172
-2.28147
-2.40137
7.14596
0.0685186
1.34831
-11.7107
3.5416
-3.20711
5.4562
-0.918791
-0.730657
-2.29437
5.39629
10.207
-14.3379
0.046647
3.70662
-13.2815
3.57525
-8.39212
1.02394
3.57664
-9.17009
2.26742
1.53221
-0.148508
-5.42554
-9.97378
-11.4918
1.56154
4.67322
5.07825
5.01262
9.75806
-28.5596
9.98494
-10.3122
9.18239
-37.7103
-2.35472
9.33611
3.29952
-2.35875
3.54795
4.88435
4.36499
-13.4139
-13.3548
1.19465
-2.00812
-3.2954
-0.319746
0.542723
3.16662
5.5423
-39.086
3.32646
-5.64966
0.51941
-10.1662
-0.3521
0.181066
-18.1619
-4.45414
8.29188
0.934066
8.69334
1.46048
-17.1393
3.10611
-2.23622
-9.68398
4.96127
6.11623
10.2826
4.6856
5.32573
-0.843285
-10.5462
9.95288
10.2688
5.97373
-1.49473
-18.4817
-14.8151
3.64699
1.01921
0.461235
5.97584
-4.80283
-3.71499
-19.8832
9.00895
0.314822
1.86364
-10.4424
3.46763
4.43271
11.3828
10.6112
3.69694
2.68195
-1.63117
-8.19093
3.64906
10.8783
-14.1556
-12.5714
1.64593
0.228868
1.10589
0.56682
-0.0071954
1.4372
0.629031
1.6547
-3.99344
2.85844
6.98332
-3.53626
5.06434
-11.1142
-0.308336
8.9211
-13.6721
-0.350153
-3.78348
3.41077
2.96996
-9.40526
-4.69847
0.271304
0.627822
11.6091
-11.4075
-9.35883
-13.1279
-0.973966
-12.8939
-3.87962
-5.65707
-8.62858
-1.01926
-7.52544
-1.97762
-3.70943
2.87248
0.973313
1.73171
11.2346
1.92066
1.40633
-0.28677
2.25782
-10.5618
-0.000197687
7.76056
5.06349
1.49146
2.91352
4.44079
5.27016
-15.4436
-36.0626
-31.2367
7.79095
-1.81221
5.17978
1.48522
7.93056
0.715846
-11.718
-0.631039
5.64388
-1.34369
5.18856
-1.91063
10.5195
-6.72579
0.160829
-21.6651
3.87418
-11.8655
-2.71356
-9.06216
1.19001
-1.87939
-21.161
-12.3438
3.51639
0.677865
-5.02432
-2.07135
3.11539
-14.1408
3.14065
-10.7657
5.67127
9.7546
3.24038
-10.7775
3.87732
1.15405
-0.150021
3.41806
-0.470087
-14.2676
-14.9456
-1.32151
-1.95589
1.38562
-0.470076
-9.70803
-19.6428
1.84251
5.37418
-0.918138
-11.8216
-0.197209
-7.06984
3.37487
1.30204
-5.98962
-13.4566
6.05691
-22.1108
-0.50337
-4.27741
-21.3974
-20.4908
-29.6166
11.7696
0.211249
-2.81905
3.61567
9.43197
8.94195
-12.3227
0.690355
5.32981
-3.17799
-16.1556
9.58902
1.7686
2.50496
11.7684
0.261092
-3.36791
2.02736
8.09343
5.54845
3.98083
7.5094
4.44499
1.37762
1.97975
3.46585
1.16545
-12.1239
9.40854
1.35602
-0.584083
-2.88833
-4.33163
0.936662
-10.5049
0.188996
0.976601
4.31207
5.87225
4.80634
-15.3706
8.25644
9.08088
-9.94386
2.12662
-0.85119
-2.00047
-0.568955
4.07688
-10.9529
-1.67774
1.95504
10.2513
-16.5062
5.12579
5.01408
6.19487
1.65097
2.98775
3.94066
1.18522
-0.346449
2.28837
-14.9584
-5.45736
1.74378
-4.69635
5.98831
-19.2332
-16.5509
2.45136
-10.5251
-11.7555
-12.9512
3.81521
0.84661
-26.8464
3.36793
-16.9794
0.581084
-9.46275
-0.914849
5.47978
-18.6554
9.73018
-3.13519
10.6024
-0.226586
-30.6125
1.34183
5.05764
3.01478
-7.09217
1.28738
0.703304
1.23658
1.74206
11.9294
6.23976
-0.997283
-1.57369
0.456164
1.35583
4.79935
2.91215
4.1184
-9.52694
-9.93358
-9.93887
-2.72372
1.31066
-10.3536
4.21903
2.1139
8.81863
10.0763
-12.5861
-14.3734
-0.626183
-2.77556
9.21779
-8.7846
0.127587
3.31116
4.50084
-3.34571
-17.0845
0.60815
5.03046
2.90223
-2.43621
-3.14832
-5.83114
-1.9656
-6.37808
0.258855
-6.3889
-5.89341
4.68558
-12.9583
-10.9482
-0.432633
1.25876
10.478
1.22308
5.22834
-1.30767
1.13489
1.09941
-0.189218
2.76582
-6.63344
-10.4552
9.16649
5.37455
1.29397
-11.2794
11.0164
-12.1508
-10.8754
-9.32361
-0.357948
-12.9966
-5.54433
7.91717
1.05211
3.395
3.17789
-2.85634
-3.30006
-23.0753
1.77859
-6.84063
1.4249
2.94234
4.24615
-13.8922
-11.6183
-7.10193
-1.31112
-3.41308
-3.12033
10.3882
4.30602
-35.3593
-0.728975
2.48938
8.53902
0.7633
-10.6756
0.519474
6.76371
4.2756
-2.1871
5.19791
3.69784
9.06671
1.21373
5.76051
-21.5698
-1.68472
-6.58478
-9.63327
-0.0415662
2.95383
-11.0294
-15.0207
5.41385
-4.08333
0.938156
7.2516
4.73149
7.04148
5.18793
-3.00394
0.645933
1.52938
3.95477
0.0215301
5.69687
1.65122
9.07158
-5.11757
6.82293
-1.18459
9.64237
-1.35475
-1.72027
9.55828
-7.6811
1.41663
-16.6457
7.58939
9.30779
5.59534
-5.16829
5.33759
6.23841
-4.45747
3.66725
-9.11852
6.85046
-9.83508
-17.8062
-14.1527
-13.9247
6.12215
-1.08143
-12.9567
1.29372
9.2214
-0.334293
0.915709
-13.5458
-2.6569
2.08641
-0.0997934
5.25218
3.82132
-12.0758
10.6784
4.35827
7.95251
6.90958
1.4496
-4.1981
3.0247
-5.30606
-0.0348199
2.76266
2.04275
-0.177626
3.78738
-6.52753
9.45848
6.02245
0.567458
-7.5218
4.48086
-1.88069
4.36039
6.25696
1.44844
-1.05992
6.08231
4.56872
-1.95354
-10.5507
1.56088
4.87498
9.07555
-11.1245
9.73434
10.6844
10.0235
3.05322
6.01391
-23.4601
5.33056
6.37033
6.92996
4.85354
7.3757
11.3303
5.16475
-11.1196
-6.11071
-10.1945
11.2316
1.51226
2.42097
-10.5709
5.77617
8.32591
4.44461
0.370105
1.61733
7.91023
-8.75175
4.343
-12.26
3.39318
-2.66816
-3.27477
2.05169
-22.4896
-23.7928
-10.1207
-1.05623
0.462192
5.88017
0.60636
1.03319
3.84309
-17.9017
0.0123679
-7.86987
-16.2652
-19.7566
-10.9969
7.00328
8.07885
-11.2235
5.07464
6.61273
7.46897
0.842641
-28.9211
4.79105
-11.8905
7.18311
-14.4141
6.97878
4.42607
2.02821
6.65316
2.38209
6.37341
0.561095
3.47734
-1.27143
-10.7117
-19.7292
-4.17041
6.22718
-30.0246
-4.85517
-24.9418
8.57713
6.18212
3.25036
2.0297
7.67758
-5.80967
3.84038
-7.14515
-1.65544
3.87801
-11.3338
-15.9917
-2.84731
-12.5584
0.356066
-38.2316
-8.71374
-14.8129
-10.7044
2.8839
9.40075
10.4204
8.71614
-34.4016
4.41038
-22.7386
3.85136
8.10911
2.18429
6.13244
-20.3668
0.699855
-1.60409
1.01272
6.83929
-1.37293
4.95006
-15.1645
0.227388
-12.6647
5.91866
4.95165
5.33877
-17.8579
3.90219
-12.2966
-12.9144
-13.0029
0.399263
9.25412
-6.8119
-1.17661
-13.8459
4.71435
5.27793
4.52549
4.09565
-16.8969
7.82773
8.19922
-4.62333
0.418529
7.28931
-9.87619
-31.7283
1.39463
6.75685
7.58019
-20.9752
1.10371
1.07604
9.24987
-13.2922
-7.66876
0.94134
8.32569
1.34147
-1.22174
-0.0691204
6.59269
4.74492
6.68108
0.781437
-6.27843
4.89561
11.0487
-10.9863
2.68803
1.20027
-11.1626
1.28906
0.892577
-13.3368
0.917098
-2.26357
4.22917
-3.12849
-3.89436
6.01493
7.45702
3.91385
-4.92409
-6.9175
4.87395
-16.0279
-1.54816
-1.62705
1.228
-16.0812
6.33691
4.96653
1.15037
4.31109
8.84509
0.131813
2.04025
5.7939
-13.0893
4.23849
-0.641021
1.02793
-2.24673
4.8102
0.136011
0.733225
1.67432
-5.74191
6.76953
-1.8345
0.0274691
-10.2279
-0.220055
5.41131
-17.1911
9.95218
-16.9817
-11.7205
-9.71806
6.73331
4.82444
6.30053
-9.70831
8.36025
-28.1939
1.70996
0.350096
-14.2664
5.297
1.23165
1.21372
1.63313
-10.4048
4.78619
-12.9489
-11.7453
-0.231485
-12.2212
-13.6084
2.90967
8.78212
-23.0682
-23.6687
6.10714
-7.8508
7.64122
-1.67469
1.50534
4.73102
5.52849
1.36935
-1.35984
-7.51422
1.22797
2.67014
3.24173
-16.2818
-14.3878
2.26703
-0.278021
1.76288
11.4182
4.42673
5.26252
7.65895
2.2931
5.95022
-15.9165
-8.65691
-16.6933
5.33438
11.038
3.91364
-1.96306
6.83457
3.04412
3.24859
-33.0879
1.1917
1.73655
9.98181
-11.6159
-3.71146
9.04627
7.0146
4.00354
4.38836
5.86751
2.47587
-9.40697
-27.9612
4.83248
-10.8641
-10.4002
5.04659
-21.1385
-7.84697
-2.77852
4.34106
4.60791
4.91233
1.2498
6.33759
6.52738
-0.374562
5.28484
4.38228
6.54639
5.32563
0.608303
1.21355
4.46944
6.54372
5.12793
-0.180452
2.96931
1.16873
-20.0434
8.70011
5.59402
0.35803
-25.9989
0.204174
5.77709
1.34949
3.11457
-4.12867
1.22868
-1.15297
1.27498
-17.8716
0.440019
1.16349
0.761552
-16.2649
-17.7768
7.88772
-12.4287
-10.1158
-21.2637
8.8927
2.79953
0.670927
2.49247
-13.8965
5.41148
5.23661
0.73517
7.24478
3.11269
1.40809
-10.402
-25.4453
0.783431
6.60071
0.310798
-21.4408
-12.6144
-1.73282
-10.3746
-19.1141
-8.48799
1.82231
3.07734
5.32102
5.99032
-0.68385
-2.83033
7.31634
5.40403
-20.8047
1.44972
-10.1861
1.15883
0.406006
1.82721
4.93843
-2.77367
2.15914
0.63031
2.76009
-30.4615
-10.807
1.3504
-26.872
-12.2157
-13.6469
-24.8944
1.43626
-9.12075
1.32187
-19.7398
5.45572
5.08499
-0.954867
6.8488
-36.8792
8.74676
-2.84498
1.61339
-2.51676
4.42719
2.02721
-10.5282
-8.97944
5.6047
6.76831
9.18561
-25.9697
-11.9428
-36.4108
2.41193
0.261783
-16.7645
-2.20816
-14.6618
1.97365
-22.6634
1.46174
-5.7312
3.96353
7.95035
3.35071
-0.664529
-0.501107
-4.43006
-11.2077
7.60082
10.4095
-10.7347
5.4023
4.29843
-0.0385888
-13.2651
6.6352
6.70931
-8.97714
3.29955
-19.0238
-39.3789
-2.15655
-15.4906
-1.57451
4.67989
0.0271482
6.09361
-20.4546
-13.533
5.32208
-1.76203
-14.1277
1.73761
5.25723
-13.8196
-0.657156
-12.7399
-17.0907
-14.288
9.3636
-8.99171
0.572998
-24.9759
5.28875
-12.6502
3.09317
-8.47074
-28.5457
-1.48507
5.05347
-0.457935
-16.164
3.55716
-0.261595
-5.20086
-15.1872
-18.2346
1.38946
2.61037
5.31133
-8.73827
7.50424
-2.92259
0.136648
1.13414
-5.50134
-30.0133
-17.081
-14.9265
0.720493
3.21768
-24.9444
0.542138
-4.23522
3.46617
-35.1829
5.50188
-21.5395
4.1222
0.162799
-17.8547
0.308246
11.8237
-11.2737
-13.368
-7.78001
-4.54601
5.3416
-27.5734
-0.387082
1.77171
-11.8491
-25.5824
-10.6068
-15.3032
4.326
-16.9062
1.96508
-11.8964
1.10302
3.59423
1.66553
-1.05993
-0.628284
6.14108
-12.7576
-9.44429
6.79584
0.556391
-12.9005
0.43398
-17.7925
-3.99917
0.0457197
6.12579
-13.8588
3.5236
-12.0231
-15.991
-21.7334
-18.5127
-10.5421
-0.111171
0.618274
5.19216
3.3674
-29.6782
4.15897
-34.2148
6.73127
7.41971
-13.5589
2.12895
5.15575
5.32289
1.74085
-13.049
-14.2769
-12.2141
5.32726
2.70763
-5.3237
-17.9652
0.316503
6.67527
0.725297
1.43785
1.68457
6.7392
-3.66619
-3.9351
-18.7368
4.97741
2.44296
1.20933
7.57342
6.51694
-23.6121
-26.8451
5.9836
3.70318
1.14337
2.8797
-2.14247
-14.3255
-13.6868
-22.046
6.6865
4.18178
3.07764
-1.6954
-0.443412
-19.9175
4.6023
-31.4663
1.30687
6.23417
6.89921
-0.297126
4.99041
2.82849
4.46752
4.99564
1.04069
5.13719
-0.417319
5.49151
4.38448
5.56467
-22.6831
6.40206
5.74063
5.09376
4.5533
-8.31396
1.61497
0.930831
-3.01536
6.42298
8.13122
-27.6774
8.56469
-17.7721
-11.0412
4.73505
5.26982
-8.03603
0.94188
-12.0915
-29.3445
-1.26699
-11.8716
-9.10646
0.35895
3.58875
10.3887
5.67198
-1.15141
-9.36738
4.33145
3.66665
-15.1224
-15.8245
-6.70242
-3.78246
-10.7297
-10.7006
5.24855
-2.7233
3.50431
1.02755
0.997124
1.81157
1.15082
0.759331
-0.236157
5.29988
-2.50479
-1.48959
0.214381
-37.4538
2.32652
3.8425
3.79403
-12.871
4.64971
4.69024
3.37367
-2.0231
5.21171
3.31343
8.23771
5.30634
-14.0967
0.240534
-1.70499
-5.56117
-5.49825
-19.2188
-0.235566
-26.5864
10.6318
1.60893
-7.28286
7.39004
-14.3192
-1.01507
-10.8936
-23.6199
-10.2035
-3.03912
-3.14621
3.5493
-0.541663
-12.4642
-0.989924
-2.8066
-2.79559
-12.7779
-5.218
4.79259
-7.40002
-12.4415
-3.50551
1.05333
-4.55566
5.40315
7.6706
-5.2567
5.52275
0.875095
4.50582
8.96153
-16.0467
4.20232
1.77617
3.38105
7.05218
0.801844
2.45757
-2.47616
5.142
7.66407
-12.2445
-2.28928
-6.80483
-4.2282
3.76999
-9.67426
-6.48068
-7.27121
3.39208
-11.7885
1.43309
0.55723
5.13238
1.27851
-11.0954
-7.62795
-3.69975
1.20554
8.41873
9.84861
6.40635
10.9776
5.53819
6.96026
4.62522
3.40655
6.07318
-7.3843
4.51537
0.228226
-10.6937
7.65577
1.57556
-4.01563
9.55063
1.50089
-35.0341
3.78404
3.40413
6.44001
-7.99214
5.32271
9.20555
-14.6958
-10.8983
-5.00149
2.53104
-20.6235
5.95723
0.788733
6.62107
5.32593
-12.8274
5.46756
-1.39155
-10.8088
-11.0536
-23.3737
5.33986
-4.92535
5.43525
4.71783
-16.1789
-0.382135
2.70822
-1.72917
-9.47168
-10.2432
5.66002
2.29494
-13.9404
-0.2757
4.58202
1.45721
-32.344
3.77837
-23.989
3.64901
-13.383
4.4564
2.61157
-0.148005
2.49036
4.29853
2.09507
2.84154
-12.5042
10.709
-2.64485
-12.6294
4.37382
3.31507
-14.9408
-3.74072
-20.4609
0.7801
0.578522
-3.94885
0.896956
0.258147
11.0177
-2.83339
-15.3028
-0.330424
-1.43974
1.04185
0.545427
3.84229
4.61237
-19.0453
2.23822
-11.8548
1.64807
1.51754
4.04834
4.53948
0.131463
0.194398
0.370175
5.48351
-0.562634
1.49998
-12.8737
-0.355545
-0.736786
5.46083
-12.7193
0.96832
-9.16463
5.26107
-16.3061
0.425245
6.3896
5.61648
4.1724
-18.6579
-9.92844
5.60246
-10.5365
6.40297
3.84378
-1.15953
5.09527
0.569098
2.75658
0.962873
-1.25363
-5.60383
4.62913
-19.8929
6.65743
1.53939
11.1259
1.23411
2.66384
5.84454
1.94989
1.40539
5.37033
2.55528
1.91772
-5.81388
-2.22983
4.09077
2.0868
-0.696907
-35.8338
-0.105949
-25.2591
-15.2057
-2.04789
5.13993
0.295226
4.82693
1.33572
9.37593
7.72588
3.20247
2.63641
3.08917
-12.5308
5.67732
2.72372
1.78875
1.14722
6.1474
4.92713
-3.53351
-26.2014
-5.36135
3.15623
0.150082
-1.10801
5.49317
-39.5651
3.17879
-7.53728
4.35478
3.56664
-5.81453
3.40468
5.34737
2.64687
4.2338
6.08397
1.23606
-1.26785
4.33278
0.57796
7.96223
-16.4376
6.95906
5.18197
-17.3951
-6.10544
-3.4212
-1.26839
-23.8966
-7.4357
5.30764
7.38589
6.09655
7.26984
4.4972
6.46794
3.39489
1.15523
3.57065
0.545209
2.01207
3.39027
0.875991
8.27974
0.912293
-11.0358
4.65683
7.5663
8.35704
-33.025
1.14501
-10.6516
-10.6051
3.70939
-4.47306
-12.5184
4.08419
9.12449
-11.1022
-15.1369
-25.6787
3.43679
1.18489