/*--------------------------------*- C++ -*----------------------------------*\
| =========                 |                                                 |
| \\      /  F ield         | OpenFOAM: The Open Source CFD Toolbox           |
|  \\    /   O peration     | Version:  2306                                  |
|   \\  /    A nd           | Website:  www.openfoam.com                      |
|    \\/     M anipulation  |                                                 |
\*---------------------------------------------------------------------------*/
FoamFile
{
    version     2.0;
    format      ascii;
    arch        "LSB;label=32;scalar=64";
    class       surfaceScalarField;
    location    "9";
    object      phi;
}
// * * * * * * * * * * * * * * * * * * * * * * * * * * * * * * * * * * * * * //

dimensions      [0 3 -1 0 0 0 0];

oriented        oriented;

internalField   nonuniform List<scalar> 
20045
(
0.551198
-0.62963
0.0784323
-1.13254
0.45962
0.672922
0.32475
1.84208
-2.16683
0.00845169
0.223004
-0.231456
-1.00944
0.892357
0.11708
-0.550298
2.10887
-1.55858
-1.08994
0.256258
0.833682
0.0593688
0.51209
-0.571459
0.535849
0.449724
-0.985574
-0.710449
-0.177845
0.888293
-0.348178
-0.254405
0.602584
2.08638
-1.01035
-1.07602
0.429763
-0.425282
-0.00448083
-1.19427
0.983855
0.210418
-0.176758
1.02914
-0.852379
-1.03132
0.320869
-0.0185972
-0.115666
0.134263
0.589631
0.111401
-0.701031
-1.61044
2.33415
-0.723713
-0.784575
-0.00323808
0.787813
-0.461079
0.00601381
0.455065
0.151956
0.277808
-0.214897
-0.917645
0.763233
1.06557
-1.8288
0.840846
0.125688
-0.966533
-1.11652
1.87975
0.031004
-0.0288505
-0.00215347
-1.24393
2.32597
-1.08205
1.85742
0.0367412
-1.89416
-2.29385
1.19466
1.0992
-0.636559
0.766873
-0.130314
1.28785
-1.11183
-0.176023
-0.703173
1.55757
-0.854402
2.20658
-1.24561
-0.960972
-0.65091
0.710279
1.53996
-0.69227
-0.847694
0.122974
1.22249
-1.34546
-0.0743369
0.452774
-0.378437
-0.800579
-0.674693
1.47527
0.635045
0.565123
-1.20017
0.010894
0.556726
-0.56762
0.190364
-0.267005
0.0766412
2.53122
-2.52348
-0.00774428
1.41644
-0.469337
-0.9471
0.614816
0.801621
0.939737
1.14664
-0.177355
0.217473
-0.040118
1.06514
0.74608
-1.81122
1.98473
-1.86176
0.156127
1.79509
-1.95121
1.31949
-2.20038
0.880886
1.72022
-1.82702
0.106797
-0.973977
-0.722787
1.69676
-0.105397
-0.348773
0.45417
0.2337
0.192535
-0.426235
-0.764423
-0.245014
0.123587
1.07759
-1.20118
2.09049
-0.819986
-1.27051
1.04368
-1.74685
-0.0994033
0.728374
-0.628971
-0.352865
-0.217564
0.570429
0.384925
-0.484329
0.37713
-1.5664
1.18927
0.215426
-0.676505
1.24635
-0.229526
-1.01683
-0.180125
0.813094
-0.632969
0.227527
-0.320375
0.0928481
-0.703364
0.101914
0.601449
0.940773
-0.404924
2.07602
-2.04066
-0.0353534
0.295962
-0.0684344
-0.597847
0.831548
-0.266642
-1.09442
1.36106
-0.0249796
-0.0760103
0.10099
-0.24203
0.446508
-0.204478
1.11403
-0.990447
-0.914765
0.672735
0.632448
-0.809206
0.0393501
-0.272881
0.233531
-0.337159
-0.933659
1.27082
0.957949
0.981031
-1.93898
0.896255
-0.771535
-0.12472
1.28167
-0.904541
-2.61124
0.481213
2.13003
-0.0072012
0.558399
-0.395795
0.543323
-0.147528
-0.160395
-2.40479
2.56519
-1.59242
0.0498017
1.54262
0.992554
0.241479
-1.23403
-0.84066
0.694114
0.146545
-1.35953
0.0734254
1.28611
0.850674
-0.187701
-0.662973
0.449392
-0.667946
0.218554
-0.23259
-0.814738
1.04733
0.665297
-0.715417
0.0501197
1.3457
0.539141
-1.88484
-0.0154014
0.0464054
-0.232463
0.449528
-0.217065
1.30919
-0.674144
0.00915454
-0.110277
0.101123
1.07827
0.461693
-0.466528
-0.727745
0.154033
-0.386497
0.458733
1.63176
0.0934832
-0.489278
0.0757508
-0.0665963
0.404844
1.24792
-1.65277
1.22277
-0.626383
-0.596386
-0.138005
-0.547998
0.468739
0.079259
-0.292341
0.371227
-0.0788854
1.1597
-1.10326
-0.0564456
-0.569654
0.464258
1.41345
-1.90668
0.49323
-0.251193
0.388023
-0.136831
0.0593722
-0.357091
0.297719
1.08766
-0.246813
1.58438
0.622206
-1.23189
0.965244
0.432117
-3.5509
3.11878
-0.136117
0.725748
-0.578092
0.225227
-0.879918
0.711221
0.168697
0.42219
0.12458
-0.676385
0.551805
1.95344
-0.233219
1.11731
-1.51945
0.402144
1.57258
0.165611
-1.73819
-1.89211
1.45772
0.43439
-0.0869938
-1.10406
1.19105
2.05517
-0.101735
0.135697
0.0817765
-0.0477162
0.0313396
0.0163767
-0.0424539
0.0191702
0.0232837
1.15003
0.792835
-1.94286
1.22631
-1.09996
-0.126352
-0.303166
0.0948647
0.208302
-0.392233
-0.155765
4.04164
-3.60952
-0.751501
0.777321
-0.0258204
1.18445
-2.12304
0.938593
0.288003
-1.26198
0.855744
0.559142
-1.41489
1.05434
-1.3915
2.1613
-0.323812
-1.83749
1.06094
-1.79174
0.730806
3.16347
-1.61858
-1.54489
-0.283429
0.362509
-0.0790798
-0.0383996
2.01349
-1.97509
2.01366
-0.156246
-1.64569
0.0462601
1.59943
-1.11497
0.835893
0.279074
1.67635
-0.718403
0.254861
0.641393
-1.24964
1.48634
-0.2367
-1.65807
1.98282
0.0218309
-0.458303
0.436473
0.30205
-0.742306
0.440256
-0.0440948
-0.427088
0.471183
2.48981
-1.26055
-1.22926
2.63027
-1.27715
-1.35312
-0.511922
0.467827
1.05191
-1.22587
0.173964
0.229277
-0.0389133
-1.36828
-0.901143
1.25408
-0.352941
-1.24069
0.947135
0.293554
-0.0207807
-0.11114
0.131921
1.67168
1.49179
-0.0438098
0.00135591
-0.127127
0.0794108
-1.34909
0.0994455
-1.48785
1.85521
-0.36736
-1.41136
1.49933
-0.0879747
-1.09062
-0.867027
1.95765
-0.601746
0.549425
0.052321
0.781496
-0.87001
0.0885139
1.7775
0.0906854
-1.86818
-0.0209034
-1.49892
1.51983
-0.780584
1.63633
0.401691
-1.17431
0.772622
-0.566538
1.97999
-1.57243
1.14949
0.42294
0.469997
-0.479949
0.00995205
1.00462
-2.54155
1.53693
-1.8541
0.610174
-1.36227
-0.52041
2.08981
-1.22441
-0.865398
-0.690077
0.700971
0.354933
-0.377505
0.0225727
-0.0192312
-2.51575
2.53498
-1.62894
2.38375
-0.754813
1.44241
-0.617906
-0.824507
0.0276144
-0.413444
0.385829
-0.00596648
-0.828661
0.834628
0.331875
-0.680054
-1.04584
0.958848
-1.3475
-0.445645
1.79315
0.250534
0.0648214
-0.315355
0.207924
-1.10907
-0.621632
-0.014927
1.66938
-0.0968015
-0.365428
0.291091
-0.402442
0.49905
-0.0966081
0.98954
1.50027
-0.954057
0.94809
0.613895
-0.528207
-0.0856886
-1.47217
0.304008
1.16816
0.918236
0.524176
2.66099
-1.65637
1.39529
-2.40754
1.01225
0.438383
-1.80394
1.36556
0.113444
-0.898019
-1.02145
1.42629
1.25717
-1.80747
1.00476
-1.6019
0.597149
-2.48956
1.47305
1.01651
-0.125826
-0.714834
0.393481
0.334826
-0.728307
1.28842
-0.410708
-0.877711
-0.128874
-1.3978
1.3594
-0.566431
-0.185069
1.28277
1.73645
-1.35814
-0.378301
-0.0260511
-0.313154
0.339205
1.26996
0.205543
-1.47551
0.496019
-0.564773
0.0687541
-0.744488
1.46826
-0.723775
-2.80536
2.64496
1.21813
-0.816434
-0.270265
0.803077
-0.532813
1.79286
-0.608413
0.25537
-0.0204855
-0.234884
0.261608
-0.477291
0.215683
-0.291506
0.302332
-0.0108264
2.02247
-1.2448
-0.777665
0.53593
-2.16487
-0.321303
0.0297976
-1.64762
0.456412
1.19121
2.35934
-0.801767
0.466929
-1.95478
2.72788
-1.42722
-1.30067
-0.0364429
0.286977
0.0337643
1.03894
-1.0727
-1.23741
0.232769
1.00464
-1.86963
1.84559
0.0240422
0.602528
-1.81983
1.2173
-0.0321398
-0.0369533
0.0690931
-0.948218
1.19564
-0.247421
-0.181934
0.567705
-0.385771
-0.357713
0.106521
-0.34918
0.0568391
-0.984418
0.358034
0.263475
-1.39172
1.12824
0.214732
0.318977
-0.533709
0.945233
0.342617
1.5287
-0.52395
-0.303379
0.605429
1.32015
1.0392
-1.05257
0.106733
0.945835
-1.26716
1.30092
0.87905
0.150087
-0.190224
0.404956
-0.640356
-0.0875465
0.727903
0.0201432
0.449854
-1.49227
0.747781
-0.32366
-0.32589
0.64955
-1.86152
1.80082
0.0606983
-1.60644
2.18267
-0.576233
-0.315199
-0.289426
0.604625
1.5059
-1.68465
0.178751
-1.55632
-0.933246
2.3032
-1.44184
-0.861367
-0.245795
0.219744
1.99538
-1.39285
-1.00055
1.26402
-0.183648
-0.650722
0.83437
0.368369
0.427358
-0.795727
3.26861
-1.38966
-1.87895
-0.887805
0.704157
1.73192
-1.0449
-0.687021
-0.383152
1.61635
-1.2332
1.07117
-2.00242
0.931249
0.344332
0.262375
-0.606707
0.00590359
-0.0266462
0.0207426
2.34786
-1.93717
-0.41069
-1.01731
-0.874798
1.05393
0.682513
-1.70901
-0.152515
0.397178
-0.13557
-1.98425
0.151798
1.83245
0.00754792
0.347385
-1.0689
2.21893
0.83011
1.19236
2.25301
-1.33366
-0.919349
-1.66757
1.22193
1.2493
-2.19222
0.942923
-1.24879
-0.130419
1.37921
-0.669576
-0.318834
0.98841
1.06777
-0.0158606
0.605025
0.00887061
1.65003
-0.263872
-0.847956
-0.999391
3.97091
-2.97152
-0.477417
0.0749751
-0.404722
0.134458
0.20025
-2.06988
-0.149969
-2.65539
1.9655
-0.453533
0.601562
-0.148029
0.0899999
-0.0815483
-0.933648
0.645479
0.28817
0.885708
0.273997
0.820139
0.0554127
-0.875552
0.940406
0.285909
-1.99618
0.011932
1.16814
-0.175582
-0.455581
-1.01659
1.74806
-1.56463
-0.183425
1.04237
-0.0386727
-1.99896
2.03763
1.57871
-1.75481
0.176103
-0.947275
0.714686
-0.283041
-0.0201254
-0.408925
-0.950607
0.687686
-1.16827
0.480581
0.845577
0.886343
1.23816
-2.17366
0.935499
0.584476
-1.16486
0.580388
-1.94864
0.356221
0.0569953
0.793679
-1.13012
1.33673
-0.206615
-0.456142
0.654599
-0.198457
-1.06658
-0.0233641
-0.274201
-0.518778
0.792979
0.243452
0.00130802
-0.24476
-0.649551
-0.465416
0.684076
0.91636
-1.60044
-0.00620676
-1.26095
0.255787
-0.914317
-0.0329579
1.0403
-0.455829
-1.35824
-0.214183
0.601324
-0.695154
0.09383
1.85609
-0.790942
-1.01479
1.55179
-0.536997
-0.284832
0.337864
-0.0530323
1.31
-0.0215853
2.16508
-2.01328
-1.06524
1.86361
-0.798366
1.06818
-2.09902
1.03084
1.10787
1.19533
0.00241284
-0.0484616
0.0460488
0.226264
-1.47505
0.95011
-1.27559
0.325484
0.105065
-0.130045
-0.215364
1.33267
-2.12388
1.97391
-1.30964
1.74802
0.34455
-1.95499
-1.36394
0.90026
0.463681
1.34704
-0.276882
-1.07015
1.89752
-0.391618
-0.820797
-0.925625
-0.700484
1.00821
-0.13959
0.134038
0.00555175
0.669181
-0.672419
-1.5295
1.31413
1.98766
0.543563
-1.62181
0.607018
1.65413
-0.6002
-0.334586
0.557167
-0.222581
-0.00791718
-1.15274
1.16066
-1.7968
0.322568
1.47423
1.60559
-1.60559
1.91044
-0.0267771
-1.88367
0.968375
-0.148236
1.15727
-0.67285
-0.484415
-1.91835
2.00502
-0.0866617
0.761379
-0.0734121
-0.687967
0.589996
-0.204142
-0.385853
0.277033
-0.592231
-0.00389286
0.381033
-1.38158
-1.60282
1.90201
-0.299187
-0.60257
1.28665
0.1225
0.00907253
-0.131572
-0.344713
-0.0303403
0.375053
-0.782923
0.896367
2.21621
-1.82968
-0.386527
-0.219439
-0.994698
1.21414
-0.537601
0.573491
-0.0358903
0.333005
-0.590122
0.257117
-3.52099
3.23183
0.289162
0.0589399
0.164065
-0.537823
0.203237
-0.00515955
-0.12457
0.129729
1.09324
1.25462
0.12553
-0.00302988
-0.17065
-0.466586
0.637237
-1.04763
1.64988
-0.602251
-0.00132903
0.35459
-0.35326
0.914369
-0.658111
3.22934
-1.7041
-1.52524
0.0822901
-0.897028
0.239384
1.53811
0.933084
0.56283
-1.49591
0.993249
-0.801368
-0.191881
-2.02921
0.38352
-0.720547
0.338486
0.382061
0.904565
1.12066
-2.02523
-1.30179
1.17137
0.127147
-1.82324
1.6961
-0.305545
0.333159
0.500406
-0.538531
0.0381247
0.0824883
-0.722844
0.213463
-0.122885
-0.090578
-1.33674
-0.31089
1.22702
1.20903
-0.588453
-0.620582
-0.313291
0.0284594
0.269126
-1.36743
1.0983
0.426647
1.02395
-1.4506
0.756148
-1.38883
1.65559
-0.26676
-1.47169
1.08854
0.0164729
-0.0453234
-0.76412
-0.476569
-0.58827
0.13771
0.45056
-1.78426
0.73663
1.2798
-1.49924
0.818113
0.836019
-0.71976
0.687586
0.032175
0.782171
-1.94321
1.16103
0.377732
-0.602031
0.224299
2.02848
0.136595
-1.27568
-0.135679
-0.704813
0.00144915
0.0744878
-0.00781079
-0.0666771
0.659891
0.0242962
-0.0573646
0.0330683
1.91443
-1.00986
-2.63006
3.10262
-0.472553
0.560125
0.406581
-0.966706
-0.702148
0.396604
-0.51311
-0.07516
0.7019
0.455365
-3.09851
-0.452386
0.666875
-0.0655506
1.18549
0.891541
0.276595
-1.77418
1.9303
0.155248
-0.793387
0.638139
-0.182273
-1.64807
1.83034
-0.570741
0.602264
-0.0315224
-0.361271
-0.240476
-0.954344
2.02552
1.86527
-0.804336
-0.740152
-0.193496
-0.0096388
-0.871416
0.881055
0.828367
-1.91899
-0.170376
-0.917067
1.08744
-0.458735
0.288358
0.170378
-1.27419
0.0337487
1.24044
1.89815
-1.15207
-0.00896054
0.216774
-0.207814
-0.486937
-0.050664
0.375991
0.764434
-1.14043
0.295359
-0.362644
0.0672857
0.888454
0.441091
-1.32954
-0.876669
2.22236
0.233107
0.0103455
-0.356973
-1.04444
1.40141
3.3207
0.72094
1.75107
-1.32442
-0.782951
0.50875
-0.0561906
0.0620942
-0.880782
2.13008
0.23001
-1.5071
1.27709
1.37179
-0.276076
-1.09571
-0.829871
1.2961
-0.466231
0.778352
-0.760432
-0.804735
1.56517
0.143489
-0.131427
-0.0120629
-0.549789
-0.981387
1.53118
-0.415987
0.0712746
0.123357
-0.144138
1.02236
-1.57215
-1.38675
-0.447516
1.83427
-0.0859555
-1.01263
1.09859
0.359202
2.25545
-2.29963
0.0441836
0.450827
-0.229906
-0.220921
-0.0301018
-0.689659
0.516229
0.531099
-0.742892
0.0733166
-1.60548
2.01579
-0.410305
-0.66888
0.34522
-0.212024
1.26637
-1.92762
-0.595858
-0.0301628
0.0233146
0.00684814
1.0736
-0.182055
-0.470366
0.515053
-0.0446861
0.311099
-0.493033
-2.16859
0.806329
1.7698
0.339069
-0.201627
0.534632
-0.446764
1.00689
1.27582
-0.894789
-0.48176
0.0113937
-0.260559
-1.26894
0.424213
0.538195
-0.516364
-1.84225
0.0454547
0.0863355
0.470229
-0.0924962
-2.01867
-0.122767
2.14144
1.10566
0.97036
0.44711
-0.157421
-0.289689
0.647992
-0.587082
-0.0609093
-1.10796
0.415688
-2.08742
1.02218
0.287388
0.202834
-0.490222
-0.0964544
0.546531
-0.450077
1.9796
-0.0206163
-1.95899
0.418756
0.0275179
-0.446273
-0.304924
-0.574994
0.512399
-0.0630073
0.213526
-0.198379
-0.0151471
0.88427
-0.0849174
-0.799353
0.0614061
0.15212
1.7106
-1.17146
-0.0630962
-0.328679
0.391776
-2.03156
0.426076
0.0204571
-0.303515
0.457549
0.528725
0.68031
0.125734
-0.429113
0.515269
0.381159
-0.896428
0.953769
0.292582
0.757188
-0.60194
0.49004
-0.430668
0.205858
-0.662
1.27958
0.380312
-1.65989
1.12687
-0.14325
-0.983623
-1.11358
-0.67816
-0.428915
-0.124944
0.553858
0.666943
-0.767649
0.100706
2.18663
-0.0636563
-2.12297
-0.70633
0.0786528
0.627677
-1.01977
1.37744
-0.357675
1.11761
1.32867
-2.44628
0.369046
-0.586609
-0.610223
0.937035
-0.326812
0.478109
0.209262
-0.687371
-2.06923
1.13398
0.935249
-0.166284
-0.0320948
-1.69554
0.308787
0.681166
-0.404551
-0.276616
0.874608
-1.16916
0.29455
-0.218921
-0.410709
0.350398
1.90505
1.65426
-0.313344
-1.34091
-1.61407
0.225244
0.680459
-1.13604
1.41199
-2.49201
1.08002
-0.234247
0.627728
-0.0129885
-0.735665
0.565015
-0.354037
0.478618
-0.222048
-1.29552
1.51757
0.80171
1.19367
-1.48639
1.5759
-0.089509
0.0295276
0.0449603
-1.08435
-0.425116
-0.27134
0.304257
-0.032917
0.528263
-0.420314
-0.107948
0.0474909
0.779651
-0.827142
-0.197699
1.07231
-1.19476
-0.153679
1.34844
-1.57913
-0.487938
2.06707
0.886609
-0.732475
-0.154134
-0.516927
0.0365283
0.480399
-0.576889
0.14009
0.4368
-1.89577
0.0781608
1.81761
0.0489662
0.430381
-0.479347
1.54446
-1.72515
0.180696
-0.934496
1.82569
0.157125
-1.98282
0.0275738
-0.298914
-0.246149
-1.17521
1.42136
1.4286
-1.99514
-1.89317
1.65206
0.24111
0.349935
-0.0545761
1.03756
-1.24958
-0.149931
-0.33749
0.487421
-0.0260793
0.36492
-0.33884
-0.280286
1.767
-1.48671
3.40198
-0.941652
-2.46033
2.03259
-1.93702
-0.095567
1.41765
-0.563269
-0.854381
0.0870938
-0.506475
0.419381
-0.644102
-0.0322833
-1.98623
1.73786
0.248367
0.0986672
-2.08489
-1.75642
2.0529
-0.296476
-1.09078
-0.846394
0.448897
-0.367941
-0.0809553
-1.58072
-0.450844
-0.422517
0.295116
0.127401
0.116798
0.379221
-1.89575
1.82343
0.072323
-0.219505
-0.111823
0.0358123
0.457294
-0.0385383
-1.1377
0.189481
0.343148
-0.381222
0.0380742
-1.54797
0.730167
0.817805
0.83418
-0.0728012
-0.477178
1.18965
0.120354
0.726301
0.612697
-0.0789378
-0.533759
-0.213296
0.994792
-1.29718
0.848961
0.448218
-0.264657
0.098373
1.94897
-1.14726
1.6821
-0.899925
-0.364356
-0.349064
0.71342
0.946833
-1.58298
0.636142
1.14968
-1.23563
1.77188
-0.855706
-0.916174
-0.0116357
-1.098
-0.199179
-2.24088
1.38305
0.857837
0.128253
-0.604357
1.99965
-2.0918
0.511088
0.602818
-0.258487
-0.224531
0.0455881
0.311704
-0.00937204
-0.936528
-0.856764
1.7889
-0.674869
-0.420726
0.488091
-0.0673657
0.108886
0.48111
-1.5018
-0.5073
2.0091
0.830501
0.23727
-0.0105124
-0.324291
0.334803
1.64206
-0.602122
0.0350771
0.567045
1.82876
-0.549181
-0.688723
-1.93348
0.330657
-0.492644
0.028549
0.464095
1.39538
1.3325
0.718749
-0.372583
-0.346166
1.93594
0.096649
1.23811
-1.73681
0.498693
-1.62379
0.0035933
1.6202
-1.62126
2.08167
-0.460404
0.318798
-0.0132044
-0.305594
-0.590136
2.01873
-0.604833
0.183061
0.421772
0.0725205
-1.55891
1.39247
-0.737093
-0.655372
-1.8428
2.37545
-0.532658
-0.461314
1.15503
-0.693716
2.32395
-1.0253
-1.29864
0.0534776
-1.19252
1.13904
-0.461084
-0.0774466
-1.04516
2.16277
1.91499
-0.00454749
2.09937
-1.03119
-0.40788
0.344784
-1.68018
0.0563857
2.33866
-1.1005
-0.0434892
-2.56775
0.585566
-0.0288408
0.191964
0.909817
-1.10178
1.10411
-0.307725
-0.796383
1.53678
-1.41088
-0.125897
-0.358581
0.0206418
0.337939
-0.403213
-1.00196
1.40518
0.740689
-0.534831
-0.625532
0.734855
-0.109323
0.253675
0.463345
-0.71702
0.164669
0.284228
-2.14233
2.50982
-0.367486
-0.518296
-0.0524457
0.924304
0.426544
-1.35085
1.08848
0.909496
-1.99798
0.372272
0.974765
-0.0345277
2.19583
-0.0212991
1.5799
-1.55861
0.017452
-0.0187811
0.0134694
0.0774788
-0.0909482
1.82105
-1.6939
-0.12715
0.856779
0.915101
-0.141225
0.121078
0.0201469
-0.500843
1.55386
-1.05302
8.71312e-05
0.378871
-0.378958
1.1621
-1.65501
0.492912
-0.812289
-1.10098
1.91327
1.55032
-0.28036
0.536357
0.567751
-1.9243
-0.143029
2.06733
0.610776
-1.60547
0.103266
-0.523178
0.419912
0.404521
-0.106382
-0.298139
0.0635701
-0.524655
-0.118762
1.28792
-1.16916
-0.268676
2.06376
1.47983
-1.24773
-0.232108
1.30182
-1.06034
-0.981471
0.36734
0.614131
0.13757
-0.81042
0.266623
0.320299
-0.586923
0.143963
0.303147
0.294278
1.45792
-1.7522
0.515515
0.368755
0.248706
-1.82784
-1.02656
0.287958
0.738602
-0.716505
-0.465015
1.18152
1.04823
-0.532959
-1.67434
1.07177
0.594396
-0.477392
-0.117004
-0.385674
1.16978
-0.784104
-0.872078
0.954368
-1.12201
1.14664
-0.0246326
-1.06243
0.841707
0.220724
-0.044963
0.472363
-0.4274
-0.559546
0.463092
-0.439809
-2.56462
2.54428
0.0203371
-1.11073
1.41474
0.991736
-1.07244
0.0807019
0.508214
-0.256318
-0.251896
-2.50379
1.66348
0.840313
0.0352634
0.478293
-0.513556
0.48205
1.38181
-1.6621
1.51515
-0.568313
-0.364893
-0.999049
-1.40619
1.38489
0.916292
0.0308428
0.642167
0.25881
-0.900978
-0.716828
0.66291
0.0539183
-0.405362
0.492799
-0.0874369
-0.0848273
-0.774338
0.859165
-0.579319
1.59855
-1.01923
-1.41344
-0.442921
1.85636
0.187952
0.320262
1.53197
0.289072
-0.0765778
1.6803
-1.60373
0.00554041
-0.38328
0.377739
0.0126456
0.410396
-0.516723
0.106327
-0.200287
-1.07027
0.985443
0.308286
0.439316
-0.352222
0.411024
0.117238
0.0861062
-1.19016
0.0566134
0.608684
0.0231584
0.0990994
-0.122258
-1.23991
-1.04818
2.28809
-0.524051
-1.40025
-0.982773
-0.144308
1.12708
0.218429
0.454356
-0.672785
0.00226398
2.22476
-1.437
-0.787755
0.385979
1.26828
0.136879
0.92679
-0.892698
-0.0340924
-0.855661
1.81834
-0.962682
-1.0837
-0.447957
1.53166
-0.964218
0.353995
-0.697996
-0.283475
1.88742
-0.911319
-0.976098
0.468372
-0.537164
0.0687921
0.672574
0.172385
-0.844959
-0.37314
0.422106
0.418283
-0.568836
0.150553
0.324517
-0.0586509
-0.453271
-0.0178766
1.03824
0.849177
-1.29242
0.61773
-0.790286
1.98494
0.147237
0.321135
-1.61391
0.530203
1.47015
-1.24388
-0.257849
-1.29681
0.277039
0.252481
-2.0089
1.33243
-1.34035
1.65573
-0.0770218
-0.409113
-0.258833
-0.406116
-0.185859
0.591976
-0.639386
-0.076031
1.50642
0.286516
-1.79294
-0.0213219
-0.505068
0.52639
-0.207636
-1.72955
-0.253552
1.9831
1.65689
-0.112435
-1.61418
1.72935
-0.115177
0.429704
-0.327789
-2.11904
-0.384754
-0.556047
1.78259
-0.0447279
0.890148
2.10438
-0.778242
-1.32614
-1.17716
-0.100098
1.27726
0.362619
0.933378
-1.296
-1.40578
0.13159
-0.371308
-0.171964
0.543271
-0.948735
1.17874
0.324299
0.957698
-1.282
-0.270258
0.321788
-0.0515306
-1.78818
0.191832
1.59634
0.805106
0.710041
-0.545994
0.981186
0.436465
-0.453501
-0.267047
1.6646
-1.98841
-0.144155
-0.649135
0.79329
0.57846
-0.209415
1.34554
0.0420704
-1.38762
1.21987
-2.01016
0.0132515
-0.0453913
-0.815886
1.0124
-0.196514
-1.39222
1.14607
-0.0526602
0.616203
-0.563542
-0.664206
0.327725
0.33648
0.257502
-0.618773
-0.529053
1.20951
0.503693
-0.216305
-0.336183
0.363757
-0.00935588
-0.555417
-0.0564814
0.0195281
-0.425068
0.405817
0.0192512
0.441301
-0.493008
0.0517073
0.0303166
0.416192
0.20738
-1.19015
-0.0774396
-0.612637
-0.0295247
1.13098
-1.10146
0.687513
-0.775059
0.279808
-1.42599
1.14618
0.302261
0.986996
-1.28926
2.50021
-3.4996
0.0389852
-0.0459092
-1.84726
0.608556
1.18035
-1.42495
-0.249392
-1.87211
1.83344
-0.882283
0.363505
0.116995
-0.0378172
-0.0791774
2.51747
-1.12209
1.06018
-0.110068
-0.483819
-0.32821
0.812029
-2.12755
0.899015
1.22854
-0.663368
0.408963
-0.0930366
1.91873
0.34784
-0.195884
-1.74947
-0.282197
-0.322636
0.610229
-0.538355
-0.0718742
-0.247508
1.75393
0.0517163
0.382451
-0.434167
0.0295237
-2.44214
1.10355
1.33859
0.34536
0.535236
-0.880596
2.2824
-0.469579
-1.81282
-1.08902
0.627704
-1.27537
-0.0591786
0.731753
1.76397
-1.94624
0.858461
-0.380352
-0.724695
1.33547
-3.03737
1.69162
1.34575
1.19948
-1.69532
0.495836
-1.33306
1.47067
-0.137614
0.724702
-0.937998
0.0277059
0.367478
0.51913
0.700038
-1.6337
-0.616049
-1.59832
1.18905
0.409262
0.453626
-1.63079
0.8724
-0.0455179
-1.19189
0.24961
0.804013
2.05509
-0.716847
-1.33825
-0.486447
0.495413
-1.21192
0.343235
-1.81434
1.71424
-1.38061
0.620174
0.906478
-3.23042
1.19756
2.03286
-1.80052
2.56034
-0.759818
-0.130053
-0.282732
-0.176003
-1.97407
1.38906
0.58501
1.45698
-2.04712
-2.08849
-0.0538382
2.47944
-1.06745
0.92299
-0.291292
-0.631698
-0.0507452
-0.32008
0.370825
-0.566859
0.750727
1.03365
-1.34669
-1.88373
0.283929
0.45676
0.399758
0.729178
-1.12894
0.799133
-0.464306
-0.0880235
-1.99922
2.08724
-0.66384
0.624367
-1.40495
-1.04518
-0.808971
1.85415
0.504529
-0.692231
-1.36647
0.415757
0.950711
0.0903515
0.209284
-0.299635
1.48136
-1.70341
0.0256676
-0.841554
0.821045
0.912198
-1.73324
-0.521541
0.100815
-1.61802
0.454071
1.16394
-1.83116
1.01888
0.961783
-1.81744
0.899901
-1.04406
0.169275
-0.0789236
0.058341
1.31345
-1.15492
1.49703
-0.342112
1.03209
0.0390133
-1.07111
-1.05669
-0.0132775
-0.440256
0.100503
1.50509
0.27268
0.065184
1.88265
0.775839
0.192536
0.978992
0.112684
-0.518046
-1.7852
-0.110547
-1.25134
1.24366
-0.204719
0.360292
0.390884
-0.751175
1.57232
0.321316
-1.89363
-0.239461
0.226257
-0.688715
-1.39871
-1.49454
-0.260276
-0.811153
2.03103
-0.663408
0.941014
-0.277606
-1.85538
0.615464
-0.586666
0.986424
-2.39454
0.375865
-0.749083
-0.515922
0.604436
-1.02138
-0.526595
2.05045
-0.267862
2.46291
-0.387306
-2.07561
0.222414
0.580664
0.548106
1.96594
-1.8388
-0.0608315
-0.455207
0.673761
-0.928374
1.03511
-0.930583
-0.759526
0.455433
0.35239
-0.807823
-1.64947
0.0438765
-0.263849
1.50341
-1.23956
-0.0704453
-1.54373
-1.27576
1.48131
2.51921
-1.08666
-1.43255
-0.185644
0.524131
1.40507
-0.608732
-0.796336
0.545938
-0.604589
0.094918
-0.0814486
-0.310243
-0.0120282
0.322271
-0.238967
0.881134
-0.674735
2.13172
-0.028443
-0.339498
-0.543104
-0.194379
0.737484
-0.0108094
1.49217
0.105789
0.877305
-0.983094
-0.761349
1.13734
0.743397
0.810465
-0.867258
-0.159302
1.07214
-0.403398
-0.668743
-0.046394
-0.00903254
0.0554265
0.218847
-1.41671
1.19786
-1.78231
0.287767
0.446919
0.859974
0.383685
-0.0196151
0.565554
0.272481
-0.93589
-1.47365
0.77317
-1.89165
0.614501
-0.910622
0.127699
-0.69568
-1.10111
1.79679
-2.96813
0.317212
0.317248
-0.63446
1.96028
-1.47907
1.40081
-1.03819
0.223731
1.04075
-1.26448
0.288227
-0.659535
-1.59247
1.90647
-0.313998
0.264445
-0.451402
0.186956
-0.804124
1.89493
-1.09081
1.40286
-1.0927
-0.310159
2.30184
-0.0174504
-2.28439
-0.997034
-1.44511
-0.61984
-0.0849732
0.0897123
1.96546
-0.0216965
0.20935
-0.187654
-1.29996
-0.318057
1.24208
1.09207
-1.04111
1.26693
-0.22582
-0.597024
0.632101
0.0641757
0.642515
-0.706691
0.374038
-0.322322
-0.210181
-1.76389
-0.432449
0.591039
0.00335708
-0.183069
-0.438562
0.165699
1.36128
-1.52698
-0.96707
-0.170628
1.50346
-1.50967
0.143961
-0.536194
-0.0805171
0.142175
-0.0616577
0.0847039
-0.699588
0.614885
0.813698
1.36897
-1.89889
1.62363
-0.778056
1.51928
-0.894917
-0.235978
-0.505919
0.741897
1.41712
0.199227
0.0011575
-1.32249
0.919273
0.818374
-0.829184
-0.942021
-1.04016
1.98218
-1.14985
-0.977702
-2.0097
2.08099
-0.0712931
0.298435
-0.616526
0.430667
1.0667
0.556932
-0.37563
0.229418
0.146212
-0.463406
-1.57726
1.84951
-1.3294
-0.520109
1.02913
-0.198626
0.491636
-0.38837
1.08756
-1.77627
0.806285
-0.680597
-0.218647
2.1919
-1.97325
1.14485
0.816282
0.66581
-1.48209
1.9899
-1.16714
-0.822765
-0.854726
-1.10091
1.9912
-0.890281
0.351223
2.11169
-0.589631
0.570016
0.811125
1.51282
-0.446456
0.395711
0.0489429
-0.0246467
1.79878
-1.00595
1.12219
1.39528
-0.82173
0.444659
0.377071
0.416415
-0.780771
1.38406
-0.0385155
1.05946
-0.136473
-1.23388
-0.178346
1.41222
0.384899
-0.0491146
-0.335784
0.324342
0.126485
0.243975
-1.86524
-0.578236
0.660724
1.26105
-1.16273
-0.0983247
0.336941
0.7352
-0.31384
0.156419
0.548587
0.432807
-0.981395
-0.860573
1.90425
-0.0350863
-1.01356
2.045
-1.03144
-0.437058
0.690732
-0.264242
-0.00601538
2.06645
-1.05273
-0.656271
0.516417
1.76599
0.620751
-0.698191
-0.36458
0.319617
-0.546147
-0.29675
-0.016541
0.76429
-0.334228
1.54162
-1.2074
0.11405
-0.119209
-0.53399
0.1965
-0.658902
0.0390619
-1.34656
0.989588
0.500025
0.43701
-0.0522083
-0.263676
0.315884
0.375184
0.168139
1.4434
0.87203
-2.31543
-0.228461
-0.0288887
0.25735
0.381977
-3.01204
1.64484
0.874375
1.46846
-1.30276
-1.9817
-0.0394556
0.048524
-0.761649
0.849991
2.79304
-0.296701
-2.49634
0.79924
-0.111727
-0.0559151
-0.618768
-0.202962
-0.762093
-0.75702
0.89459
0.467793
2.63482
1.03571
-1.017
-0.0187143
0.392456
0.0133603
-0.117532
0.508434
-0.0671332
1.38518
0.336963
-1.72215
0.566986
0.0432435
-0.464573
0.285027
0.179546
-0.686103
-0.0157112
0.701814
0.519897
0.994199
-1.5141
0.426625
0.621603
1.27229
-0.0345674
-0.535087
1.08328
-0.30744
-0.394233
0.400476
-0.00624328
-1.59404
1.07363
1.57485
-1.22368
-0.351179
0.0325789
-0.298379
0.2658
1.52471
-1.64347
0.89455
0.134578
0.613976
0.786831
-0.282017
-0.014733
-0.640394
0.218763
0.421632
-1.02979
-0.259947
1.99782
-1.02406
-0.973765
1.72112
0.34018
-2.0613
0.827425
-1.35187
0.52444
-0.261436
0.980022
0.0602834
-0.661938
1.41055
-0.748611
-0.414229
-0.226166
1.42688
0.0760551
0.306396
1.51842
0.0120263
-1.53045
-0.455524
-0.0949117
0.11807
0.14004
-0.0189615
0.746219
0.266181
-1.02674
1.07423
0.000960008
0.0298818
-0.162779
0.256262
-0.767113
0.990844
0.0171675
0.521027
0.0535208
-0.299481
1.24471
-0.0385718
1.07428
-0.245692
-0.250158
-0.426374
0.974961
-0.345068
1.57647
-1.2314
-1.46716
-0.228374
-1.17141
1.69163
-0.520227
-0.363326
0.439381
0.62991
-0.117821
-0.0361167
-0.489571
0.525688
-1.55416
0.501429
0.265654
-0.274614
0.615468
-2.11726
0.506244
-1.55069
-0.681977
1.74754
-0.878072
0.999156
-0.566349
0.0224089
-1.10698
1.32582
0.000833261
-0.313987
0.180426
-0.912901
-0.217603
-1.09642
1.31402
-0.466046
1.33982
2.5031
-1.57769
-0.925415
-0.42685
0.156808
0.456981
0.0428756
-0.499856
-1.47957
0.324643
0.390618
0.0139036
-0.0125752
-0.264224
0.276799
0.620206
-1.79161
0.174896
0.827881
0.0998419
-0.927723
-1.74481
1.39974
0.299063
0.0764166
-0.37548
-0.39026
-2.17436
-0.290622
-0.00170195
0.292324
0.386028
-0.0869652
0.00623337
1.34877
-0.976493
1.0677
0.974136
-0.547511
-1.53644
0.491258
-1.20306
1.02092
0.18214
0.983389
-1.92541
-0.945255
-0.541362
1.48662
0.0203468
0.815546
-0.593859
0.520447
1.95066
-0.265829
-1.68483
-0.0176549
-1.76755
1.91054
0.391301
0.80421
0.600858
-0.319829
-0.00446185
0.302898
-0.477794
-0.690473
0.057532
-0.0921864
0.0346544
0.0444197
-1.27687
1.23245
-0.174315
0.658363
-0.484048
0.536852
-1.25843
0.721578
-0.110121
-0.989842
-0.0565564
0.000167493
1.2063
-0.661116
-0.356111
1.01723
-0.693533
-0.643202
0.860301
-0.507911
0.499197
-0.108867
-0.39033
-0.473895
0.421687
0.257041
-0.207761
-0.13132
0.339081
0.442566
0.371877
-0.814442
3.00979
-2.96326
-0.0465242
0.118508
-1.03615
0.286304
-2.1291
-0.857142
-0.936186
1.79333
-1.68834
0.0676863
1.62066
-2.0979
-1.42981
0.0967533
-0.584695
0.581209
0.00348657
-2.03557
-0.596074
1.98126
0.742615
-0.361456
0.197788
-0.624161
-0.290667
0.91227
0.297916
0.197263
-0.740367
0.0340883
-0.283403
0.249315
-0.308166
0.0247376
-0.193679
0.226258
-0.590176
0.935536
-2.07937
2.18026
-0.10089
0.191177
0.413848
0.925753
0.405994
-0.0210955
-0.24054
-0.13509
-0.893301
-0.473166
-1.02593
0.342566
0.683362
0.0262304
0.579499
-0.605729
-0.825427
0.910131
-0.160713
1.32888
1.63724
-1.53145
0.871012
-1.56455
0.781263
-0.968138
0.186875
0.23419
-0.0174159
-0.0354188
-0.0130428
-1.78386
1.08818
-0.24109
1.96221
0.0276226
-0.39463
0.367008
-2.7722
1.11413
-0.216059
-0.261232
-0.37276
-0.0339327
-0.427327
0.46126
-1.05348
0.392359
-1.899
1.68882
1.86949
-1.04845
-0.451928
0.414499
0.0374292
-0.0173376
0.0406522
-0.303197
-1.57813
1.64129
-0.0631582
-0.290046
0.261157
-0.139648
0.687779
-0.548131
0.864665
0.0298853
0.0603944
-0.0655164
0.00512207
-0.5411
0.558268
-0.00252362
0.107589
0.971838
-0.635073
1.83015
0.105784
-2.78614
0.381354
1.67082
-0.0810403
-1.58978
-0.392882
0.117099
0.275783
0.869502
-1.80603
0.328748
0.60114
-0.929888
-0.0115262
-0.0267277
0.0382539
-1.03394
0.973694
0.0602407
-0.725491
1.0053
3.07954
0.322437
1.45825
-0.312501
-1.14575
0.16281
-0.211784
0.0489738
-0.315717
-0.613897
-0.030205
-0.58999
-0.0239066
0.124544
-0.579398
0.454854
-0.166035
1.67788
-1.51185
-1.47924
0.451337
1.02791
0.472329
1.50727
0.0470652
0.124166
-0.171231
1.03676
0.439066
-1.47582
0.0869222
0.0300724
-0.746511
1.76715
-1.02064
-1.41802
0.184142
1.13645
0.486325
-1.43158
-0.00186155
-0.216317
0.218179
1.74939
-0.461911
-1.28748
0.658617
0.436246
-1.83781
0.981047
1.74719
-1.83521
-0.903642
0.153172
0.75047
-0.0436624
0.117972
0.516146
-0.634118
0.00404298
0.0195763
-0.0236193
-0.0161652
0.238874
-0.222709
0.353179
-0.446606
0.0934274
-1.01964
2.10719
-0.562198
0.552559
0.365454
-0.505103
0.641712
-1.02877
0.387058
-1.91847
-1.1189
-0.551447
-0.0254421
0.117261
-0.0139757
-0.103286
1.42624
0.457409
-1.88365
0.127609
1.13344
-0.458643
-0.258185
-1.05886
0.187448
0.836314
0.664285
-1.5006
-0.0147141
-0.0292837
0.0439978
-0.0283397
0.676331
0.117777
0.224506
-0.342284