/*--------------------------------*- C++ -*----------------------------------*\
| =========                 |                                                 |
| \\      /  F ield         | OpenFOAM: The Open Source CFD Toolbox           |
|  \\    /   O peration     | Version:  2306                                  |
|   \\  /    A nd           | Website:  www.openfoam.com                      |
|    \\/     M anipulation  |                                                 |
\*---------------------------------------------------------------------------*/
FoamFile
{
    version     2.0;
    format      ascii;
    arch        "LSB;label=32;scalar=64";
    class       volVectorField;
    location    "9";
    object      U;
}
// * * * * * * * * * * * * * * * * * * * * * * * * * * * * * * * * * * * * * //

dimensions      [0 1 -1 0 0 0 0];

internalField   nonuniform List<vector> 
13486
(
(3.20427 -0.632924 1.88587e-18)
(3.44741 0.328327 9.97655e-19)
(4.73501 -0.0199756 0)
(-1.94248 -0.820795 -1.70519e-19)
(5.31619 -0.750812 -2.09021e-19)
(4.66288 0.24377 -6.15375e-20)
(5.83706 0.164564 2.5089e-21)
(4.50549 -1.54058 -5.31136e-19)
(4.2053 -0.776214 0)
(3.90468 1.11876 0)
(-1.22567 3.95579 -4.01918e-18)
(4.66443 -0.109462 0)
(2.97166 -1.03184 -1.87524e-18)
(4.60387 1.18538 -1.10821e-19)
(5.19907 0.0222194 -1.20308e-19)
(3.83108 1.10564 -7.65585e-19)
(1.25296 -0.6753 2.12694e-18)
(2.24213 1.58303 6.60392e-19)
(4.19803 0.00434958 7.49664e-21)
(3.46101 -0.254409 -1.94021e-18)
(-2.59019 -3.17411 -1.28152e-18)
(3.00846 -1.06182 2.44853e-18)
(3.49102 0.319157 -7.93247e-19)
(6.23523 -1.75366 0)
(3.98765 0.905568 2.60371e-19)
(6.01941 -1.68521 -6.99861e-19)
(0.312016 0.0388424 2.87805e-18)
(5.04256 -0.315089 7.6457e-19)
(3.87159 -0.374633 0)
(4.69134 -0.926069 -4.03451e-19)
(-3.29112 -2.04212 -1.36267e-18)
(4.65297 0.37177 -3.40867e-20)
(5.89221 -0.354998 1.13987e-18)
(3.90035 -0.21335 0)
(4.52194 -1.46516 0)
(2.6511 0.11372 2.13753e-19)
(2.40857 -2.2036 -1.14916e-17)
(3.54118 -1.64756 8.15531e-19)
(2.31453 2.27879 -6.56699e-20)
(4.14608 -0.469947 8.01207e-19)
(6.18658 -1.66044 0)
(2.40411 -1.18097 -2.19895e-18)
(4.67217 -0.00497061 0)
(4.02433 0.766234 -1.21459e-18)
(4.05852 0.73991 5.05647e-19)
(4.66837 -0.125733 2.85937e-19)
(-0.627224 1.053 3.20962e-18)
(3.9108 -0.334587 -9.77265e-21)
(4.15899 -3.26723 8.85562e-18)
(5.07219 -0.0334797 3.45065e-19)
(4.00016 0.0308204 1.19552e-18)
(3.38588 1.51588 0)
(4.2231 -0.28666 -3.31266e-19)
(3.67828 -1.36301 -1.2173e-18)
(2.53915 0.726986 0)
(5.20464 -0.772273 1.99395e-20)
(3.19119 0.0669265 -3.73593e-19)
(3.52506 1.58853 8.06897e-19)
(5.84964 -0.340505 1.28091e-18)
(-0.52394 1.00257 0)
(-1.27615 3.49026 -5.44552e-18)
(-0.135846 0.754684 0)
(6.43541 0.948881 -1.12567e-18)
(-3.22952 -3.55134 -1.57641e-20)
(3.49965 -3.78121 0)
(1.1092 -1.67011 -5.19746e-18)
(-2.62365 0.0835838 -6.28936e-19)
(3.11118 -0.125866 6.75996e-19)
(4.2204 -0.837498 -4.31066e-19)
(4.87146 -0.548097 -1.11963e-19)
(-2.50498 0.331565 7.29292e-19)
(2.08877 1.24134 4.3081e-20)
(4.09843 -0.244628 6.29799e-19)
(-0.751219 -0.528162 -1.5246e-18)
(0.47421 -1.38999 -7.75614e-19)
(3.14133 0.0335264 8.67411e-20)
(0.98385 -1.71941 1.7448e-18)
(5.25581 0.00393139 5.39885e-20)
(-0.751329 1.72968 -1.74554e-18)
(3.08091 -2.5781 0)
(3.46104 0.179295 -6.83375e-20)
(3.35207 0.486351 -6.3212e-20)
(6.65844 1.03838 6.3644e-20)
(5.36655 0.120934 -1.1943e-19)
(3.1983 -0.641857 -3.71303e-18)
(2.70824 2.48534 0)
(6.47412 -4.48919 -4.2006e-18)
(4.00923 0.0568678 -1.82852e-18)
(3.8048 0.249773 -7.91936e-19)
(3.59185 1.51559 -9.83717e-19)
(4.23902 0.359013 -8.36586e-20)
(4.77907 -1.23853 -2.06141e-19)
(3.33213 -0.801468 4.78168e-19)
(3.48087 -0.021741 5.23556e-20)
(4.11242 -1.24659 1.72017e-19)
(3.94957 -0.224686 9.29587e-22)
(0.144301 0.265744 0)
(-3.71556 0.468459 1.64729e-18)
(4.17643 -0.463232 -1.53167e-18)
(0.997562 -0.506531 -1.96307e-20)
(2.85403 0.134578 0)
(4.56402 1.18135 -5.19607e-20)
(-3.1995 -0.195236 2.70451e-19)
(2.97404 1.80117 -9.67316e-19)
(2.68678 2.34804 0)
(0.730822 -0.318706 -1.54436e-20)
(3.97748 0.0280273 6.14645e-22)
(1.90558 1.94455 -3.32568e-19)
(-0.801743 1.5637 2.25094e-18)
(4.59689 -2.01176 0)
(3.50125 -1.63824 0)
(4.99612 0.720493 3.2321e-19)
(3.69298 -1.3135 1.22399e-20)
(3.72937 -0.312355 2.9296e-20)
(2.54111 -0.385209 0)
(3.32552 -1.62534 -5.79259e-19)
(3.97069 0.930199 0)
(4.10474 -0.17918 0)
(4.08932 -0.222502 0)
(5.68944 -4.62891 -3.8423e-18)
(2.10908 1.57328 -2.35896e-19)
(-1.73368 3.68025 0)
(4.02769 -1.12308 0)
(1.55712 2.17972 1.20086e-19)
(4.25223 -1.45025 0)
(3.98342 1.39719 0)
(4.61922 -0.359974 1.26189e-20)
(4.24966 0.108988 5.32672e-19)
(3.52916 -0.0769425 7.20542e-20)
(3.82041 -2.93789 -3.9211e-19)
(3.77807 1.65429 1.42653e-19)
(-0.720261 0.906308 -8.04601e-19)
(0.142839 0.351601 2.48677e-18)
(-0.373371 0.00352188 2.12222e-18)
(3.99726 0.0131271 -1.91767e-19)
(3.78852 0.592854 -9.85081e-19)
(1.69952 0.875731 -6.37275e-19)
(4.56075 -1.93768 0)
(6.45149 -4.49818 9.08686e-19)
(4.51536 -1.16063 -2.19034e-19)
(5.58109 -0.0480782 -1.06532e-18)
(4.23181 -0.232617 2.80769e-19)
(4.45873 0.109186 0)
(3.14893 -2.0987 0)
(4.72973 -0.0284575 1.09069e-19)
(8.14311 0.514998 -2.99718e-18)
(6.55914 -1.36321 2.19124e-19)
(0.855595 2.18886 0)
(5.17043 -0.0259233 0)
(3.8502 -0.363117 0)
(4.02378 0.0163861 2.03607e-20)
(5.45733 -0.275845 0)
(3.32441 0.132163 7.18954e-20)
(3.31114 0.461389 -5.47415e-19)
(4.2506 0.486089 0)
(5.3307 0.049646 0)
(4.42844 -1.99845 0)
(5.02191 -0.445013 2.98457e-18)
(3.91549 -1.55225 1.5689e-18)
(3.74358 2.73776 -3.36414e-20)
(5.07343 0.0131478 1.44057e-19)
(3.93972 -1.48762 -2.38686e-18)
(3.97908 1.01601 3.9382e-20)
(2.21224 -1.05736 9.6544e-19)
(3.60732 1.30579 0)
(4.77645 1.18814 -9.1144e-21)
(4.49254 1.08018 4.41365e-19)
(1.45964 -0.566214 -2.53186e-18)
(6.67231 -1.4355 -6.47852e-19)
(-0.368811 -0.0579825 5.70521e-19)
(-1.14801 -0.0390313 1.10072e-19)
(4.24002 0.432171 4.32359e-19)
(3.99185 0.107904 -1.57876e-18)
(4.71698 -0.0857121 1.41417e-20)
(3.83773 0.124004 -4.79175e-20)
(-2.41054 -1.77357 0)
(4.53313 1.66229 -1.95455e-19)
(5.79615 0.00849972 1.51008e-18)
(3.99052 0.0268001 -1.83723e-18)
(4.45187 0.0702713 0)
(4.28989 -0.548145 1.48535e-18)
(3.84536 -0.324622 5.92693e-20)
(4.6944 0.00791813 -3.29377e-21)
(-4.0168 2.6206 0)
(5.40381 -0.0042271 2.24665e-19)
(4.81876 -0.320522 -3.43378e-19)
(3.76635 -0.413201 -1.0957e-20)
(4.4893 -0.589009 -8.44568e-20)
(6.09444 -1.57664 0)
(3.08978 -1.47468 -7.74708e-19)
(5.02201 -4.24794 0)
(4.61968 -0.0665619 0)
(2.40236 1.11177 0)
(2.85256 1.15096 -1.21687e-18)
(2.31237 0.687917 0)
(-1.97448 4.08592 -1.13711e-18)
(3.60507 -3.25 9.24509e-19)
(4.94872 0.000558693 9.15058e-20)
(2.9486 -1.44841 -3.74694e-19)
(4.74785 1.12251 5.5585e-20)
(-3.84995 -1.97712 9.52519e-19)
(4.26946 0.133468 -1.63799e-20)
(3.42822 -1.64307 -9.49562e-19)
(4.94954 -1.96389 -2.58888e-19)
(3.58699 2.68525 7.68052e-20)
(2.58871 0.588922 4.52381e-19)
(1.60709 2.05367 3.44532e-19)
(3.93196 -0.149323 1.38544e-18)
(2.69568 1.30654 0)
(5.33432 0.06198 0)
(4.90101 -0.329042 3.85363e-19)
(5.19321 -2.34894 1.1207e-18)
(3.49105 -0.219784 1.76812e-18)
(3.96223 0.0326939 9.92653e-22)
(4.66278 0.322238 7.0875e-20)
(3.9597 -1.8026 2.67017e-20)
(4.80716 -0.804443 0)
(3.61548 1.46558 2.27769e-18)
(3.50103 -0.825253 0)
(5.67165 1.22391 0)
(1.16451 -0.65674 -4.06351e-18)
(5.23026 0.0325826 0)
(4.46404 -1.16787 4.89453e-19)
(5.10294 0.027458 0)
(4.05785 -0.529936 -4.72411e-20)
(3.03821 -1.42228 6.48386e-19)
(4.86362 0.554019 -2.02538e-21)
(-1.25337 -2.82874 4.87398e-19)
(3.46931 -1.58796 1.05585e-20)
(5.614 -4.57911 -1.83224e-19)
(4.2999 -0.528572 -4.8014e-19)
(5.52555 -0.354999 3.02224e-18)
(5.65473 -0.133605 1.32937e-18)
(2.42177 -1.18322 7.58947e-19)
(-2.14289 -1.74582 0)
(2.80225 -1.35711 7.47011e-20)
(4.24135 -0.485038 3.18938e-20)
(4.5262 -0.0725518 -1.38996e-19)
(2.64114 -1.2695 1.99746e-18)
(4.60431 -0.0121332 0)
(5.97281 -0.446434 0)
(4.00704 0.0814131 2.39345e-18)
(4.38679 -0.286809 0)
(2.55712 -1.27198 6.6471e-19)
(0.673095 2.74756 -9.04869e-19)
(3.73351 0.0251786 0)
(4.55791 0.0239787 -9.1611e-20)
(5.37887 -1.41156 1.59206e-18)
(0.345573 -0.478155 3.56988e-18)
(3.97286 0.711829 0)
(-4.08649 1.38818 -1.15159e-18)
(2.4796 -0.329129 2.89281e-19)
(3.02269 -1.47401 6.85627e-19)
(1.42157 1.80923 0)
(3.10982 -1.80824 -3.99833e-20)
(-2.31786 -1.53477 9.96574e-19)
(4.62826 0.351256 6.45812e-20)
(3.80709 -1.9291 -3.39018e-20)
(4.51344 -0.0506141 -3.11405e-18)
(5.91958 -0.416353 9.51165e-19)
(3.65111 0.269184 0)
(0.862453 3.09454 2.30366e-19)
(5.18092 0.0109163 2.39293e-19)
(-2.62703 -0.832175 -1.24629e-18)
(5.16843 -1.42917 1.04824e-19)
(-3.81007 2.76427 0)
(3.38207 -1.35071 1.65247e-19)
(-3.07799 -2.75332 -1.83899e-18)
(4.29901 -0.00759631 -7.59062e-19)
(5.12933 -2.1678 0)
(3.11376 1.38338 9.19116e-19)
(3.97033 0.0356576 -5.06789e-19)
(4.79884 -0.826643 0)
(4.56184 -0.296869 2.26807e-19)
(3.02778 -1.44855 8.64211e-19)
(5.1989 -1.3753 -8.86745e-19)
(2.81012 -1.4998 0)
(3.82214 -1.18912 0)
(1.26226 1.27035 -2.2537e-19)
(6.30022 -1.49654 -3.62173e-19)
(3.68858 -1.31078 -4.9262e-19)
(4.41183 -0.296687 -5.19582e-19)
(3.93463 0.0614991 1.0938e-18)
(8.08576 -1.18239 -2.40372e-18)
(-2.32392 3.61338 6.44353e-18)
(0.319406 0.263699 4.44877e-18)
(5.5471 0.0636156 1.02319e-18)
(3.62621 -0.128183 -9.43365e-20)
(4.29175 -0.590979 6.2672e-20)
(4.18021 0.00682489 0)
(-2.6246 -1.83253 0)
(0.95084 4.85099 1.7331e-18)
(3.37875 -1.61104 6.06679e-19)
(3.99586 0.0253362 -1.88157e-19)
(4.23864 -0.433573 -3.59746e-20)
(4.35431 -0.537642 0)
(4.32133 -0.0782821 -2.0092e-19)
(4.71256 -0.300421 -2.0489e-19)
(3.92994 0.04049 -9.9979e-19)
(6.14447 -0.430053 -9.0613e-19)
(3.80725 0.996022 -3.81882e-20)
(1.73721 1.80425 -1.24275e-20)
(6.37205 -1.56115 3.15542e-19)
(4.72575 0.331867 4.66947e-20)
(7.08371 -4.05132 2.17871e-18)
(4.27762 -1.95284 0)
(3.51751 -0.395613 0)
(4.29341 -0.0023244 1.90359e-19)
(4.56497 -4.00706 3.71336e-18)
(3.29743 -3.63178 0)
(4.13419 2.91934 -3.51197e-18)
(-0.978156 -0.583841 0)
(4.38136 1.61429 2.20928e-19)
(4.95386 0.705393 2.12044e-19)
(3.9376 2.20164 0)
(3.76528 0.554002 -6.24745e-19)
(1.5077 4.04294 -2.48223e-18)
(3.78908 0.226072 -6.83924e-20)
(3.913 -0.139104 -1.53878e-18)
(3.56752 -1.30418 0)
(2.50691 -2.41839 9.21726e-18)
(0.739716 4.86978 2.2829e-20)
(3.99851 0.0337276 2.32147e-19)
(3.45044 0.0824337 -9.84799e-19)
(1.86129 0.82964 1.14338e-18)
(4.29978 0.389642 1.88356e-19)
(4.83497 -0.491631 -7.33196e-19)
(4.44182 -0.293104 0)
(5.053 -0.405123 1.25903e-20)
(4.93242 -0.45715 -3.38757e-20)
(4.00541 0.0266873 2.65208e-18)
(4.89481 -1.16494 0)
(4.09845 0.449373 -4.61132e-20)
(3.08597 0.44429 0)
(5.87977 0.203026 1.77237e-18)
(4.24152 -1.11901 -4.41045e-19)
(1.97143 -0.941845 9.17414e-19)
(5.45175 -0.342363 3.08433e-19)
(4.01782 0.232555 0)
(0.663767 3.35111 -2.04402e-18)
(3.51917 -1.31438 -1.66046e-19)
(3.45807 0.0736007 9.28609e-19)
(4.99348 -0.451152 3.0861e-19)
(4.68516 0.0116312 2.86077e-19)
(-4.64767 3.41871 -4.03187e-18)
(3.90066 -0.300387 2.9313e-21)
(4.59894 -0.173092 0)
(2.49708 -0.929912 2.24236e-18)
(5.69106 1.16468 0)
(1.75235 4.20064 1.4878e-21)
(4.52927 -0.0727141 7.74075e-19)
(4.82917 -0.445756 -2.20883e-19)
(4.57881 -0.309603 1.88874e-19)
(-0.138068 0.424203 -3.49635e-18)
(3.94083 0.0430048 1.2456e-18)
(2.45024 0.337187 0)
(-0.883249 -0.484951 -1.33243e-18)
(4.63179 -0.330554 -2.4599e-19)
(4.5454 -4.52571 -2.14845e-18)
(5.265 -2.32485 9.21516e-19)
(4.79055 0.0155362 0)
(4.031 0.273951 1.72311e-19)
(3.69843 0.144762 1.98833e-18)
(3.96532 0.0446095 1.5472e-18)
(4.72167 -0.928803 0)
(3.2562 0.0914313 1.3394e-20)
(4.40189 -0.517379 -2.99579e-20)
(-0.732059 0.409709 4.87159e-19)
(3.43563 -0.264478 2.45377e-19)
(4.6042 -0.288721 2.33089e-19)
(4.91809 0.0333185 -5.86462e-20)
(4.57334 -0.210167 0)
(4.0469 -0.679026 -1.41369e-19)
(-4.10593 1.55732 1.30448e-18)
(4.63465 0.622683 -1.64416e-19)
(3.99702 0.032506 1.00107e-18)
(3.03548 0.0259615 0)
(1.53522 4.23217 -3.17772e-18)
(4.37715 2.04025 0)
(5.96293 1.82277 -7.14834e-19)
(4.32332 -0.0248024 0)
(4.88135 -1.43813 -3.43756e-20)
(3.00566 -0.452164 -5.3518e-19)
(3.13823 1.20142 2.11094e-18)
(-0.691748 0.543447 -1.82256e-18)
(2.91231 -1.46458 0)
(4.47201 0.0988034 -4.34998e-19)
(4.02797 0.252366 -6.49827e-19)
(1.11803 -0.562487 -1.19418e-18)
(-2.28058 -1.9849 4.81616e-19)
(3.53422 -0.239239 -2.65632e-18)
(4.93346 -0.726559 2.86642e-19)
(4.11123 0.259957 4.89066e-19)
(3.32131 -1.07662 0)
(2.99068 0.286464 1.10446e-18)
(5.53844 -4.28699 -1.8852e-18)
(-2.04836 -0.424989 5.77122e-20)
(-4.36813 1.73701 -4.28178e-18)
(1.13283 -0.635078 -2.38339e-18)
(5.58484 0.0384594 0)
(1.12655 -0.596402 0)
(3.84619 1.80795 0)
(4.31209 -0.121343 0)
(3.98898 -0.721989 -1.52793e-18)
(5.67316 0.369274 0)
(6.29555 -3.12065 0)
(3.51735 0.042527 3.76164e-19)
(5.76835 0.0541148 -1.57742e-18)
(4.52375 -0.208323 -6.28321e-19)
(3.52152 0.393933 3.37146e-18)
(4.01456 0.0339413 -3.31284e-19)
(4.29534 2.64927 0)
(5.09083 -0.597796 0)
(3.91703 0.0367297 1.06979e-18)
(3.98307 0.0358831 1.86579e-19)
(2.76229 1.22912 0)
(-4.19024 2.57687 3.96164e-18)
(5.13232 -1.48383 -1.18888e-19)
(-0.978967 -0.536338 0)
(4.61431 -0.00635562 3.67502e-19)
(3.98301 0.0314578 -1.23789e-18)
(4.64417 2.90169 5.26403e-19)
(2.47865 -0.908825 0)
(4.00385 0.248362 1.19961e-18)
(4.93793 0.303682 0)
(4.5226 -0.57414 0)
(4.28928 0.299739 -7.70199e-20)
(3.9216 0.0610682 5.80137e-19)
(0.400784 -0.0248329 -3.71984e-18)
(4.42288 1.06045 1.79731e-19)
(3.08773 -0.874813 -9.22652e-19)
(4.28921 -0.0985128 1.02283e-19)
(4.11686 0.272255 3.87707e-19)
(4.02409 -0.692896 3.27188e-19)
(5.39706 -1.40514 0)
(5.50035 -1.17658 8.14647e-19)
(2.99754 -0.344137 0)
(0.819329 4.89108 1.72918e-18)
(4.67683 -0.119687 0)
(3.15175 -0.0905863 1.4195e-18)
(-0.580494 0.128993 -3.1177e-18)
(4.93297 -0.698384 0)
(-0.454977 0.168976 9.78683e-20)
(5.15061 -0.65189 -7.24312e-19)
(7.30231 0.328372 -8.98534e-18)
(3.84478 -0.604377 2.29157e-18)
(2.92685 1.13814 -1.37618e-18)
(3.05868 -0.867516 -2.64114e-18)
(6.13975 1.81593 0)
(6.3209 -4.50539 4.1967e-18)
(-4.50284 3.55683 -1.03186e-17)
(4.00566 0.2732 0)
(3.76226 0.261977 7.4041e-20)
(5.39482 -0.0951761 -7.26469e-20)
(5.0206 1.81756 0)
(4.00542 0.0140694 0)
(-4.87789 2.35641 0)
(-2.44797 -2.24482 4.14267e-18)
(8.1447 -1.48453 2.97339e-18)
(6.98239 0.598873 1.79214e-19)
(4.32733 1.56639 0)
(3.69257 -0.443918 1.64699e-18)
(3.84757 0.175443 9.4819e-20)
(4.41561 0.97956 -4.02129e-19)
(-2.35859 -2.3366 1.37935e-18)
(3.86911 0.166642 0)
(3.8771 -0.352829 0)
(1.97917 -0.529557 -1.57539e-18)
(3.26647 -1.05259 -6.25184e-19)
(4.11941 -0.348466 0)
(3.72927 -1.76586 -3.55567e-19)
(2.72604 0.153315 -1.46276e-19)
(3.89813 -0.192461 3.72587e-21)
(2.16837 -1.0313 0)
(2.96788 0.134105 -3.978e-19)
(6.17045 -4.56249 2.12279e-18)
(4.92648 0.267765 9.93954e-20)
(4.21859 -1.18158 0)
(0.351788 0.198844 -6.72687e-18)
(4.70973 -0.367253 2.23172e-19)
(3.9961 0.107166 2.45123e-19)
(2.87606 0.171917 7.99047e-19)
(4.88597 1.16523 0)
(3.47814 0.395369 -8.98803e-19)
(5.71238 0.846587 -5.54152e-19)
(1.16203 -0.686856 5.29879e-19)
(4.01741 0.0666555 0)
(-2.5046 -1.75544 -4.87233e-19)
(1.51199 -0.486994 0)
(4.01638 0.0650548 -9.57288e-19)
(3.98941 0.0625778 3.98368e-19)
(3.86422 0.00520466 -2.07531e-19)
(-2.81887 -1.75078 0)
(4.50208 0.0862796 -1.44977e-19)
(2.51056 0.483105 3.10969e-18)
(5.30562 -1.36175 0)
(3.46858 0.00703404 1.19061e-18)
(6.03249 -0.540391 1.02259e-18)
(4.42437 -0.00276861 0)
(-3.35616 -2.99696 7.06435e-19)
(2.87448 -2.56144 -1.76663e-19)
(4.89434 0.0224127 0)
(0.167299 0.239647 4.06866e-18)
(3.74 0.253322 0)
(4.04337 -1.80376 5.54437e-19)
(-3.6399 0.775997 2.48507e-18)
(3.80217 -0.408819 1.19095e-20)
(4.692 0.272888 7.01264e-20)
(2.98627 0.28197 5.81206e-19)
(3.8487 -0.649545 -8.47592e-19)
(2.83414 -1.24914 1.15722e-19)
(4.06526 -1.77872 1.21192e-20)
(4.55335 -0.318574 2.48142e-19)
(4.86452 1.16856 6.17021e-20)
(4.82014 -2.06845 0)
(3.99513 0.021788 -8.87732e-19)
(-1.25266 -0.331346 -1.38906e-18)
(3.05637 -0.348197 0)
(3.32624 -3.43929 -2.69201e-19)
(2.94323 -0.361726 0)
(2.86902 -0.920308 2.30163e-18)
(4.8085 -1.64583 0)
(2.59626 0.0774671 -3.8485e-19)
(4.56869 -0.0967967 -4.39948e-19)
(-1.81794 -2.60252 9.9287e-19)
(-5.07889 2.42446 3.16835e-18)
(4.66085 0.018561 -3.99212e-21)
(3.95124 -1.84632 9.19722e-21)
(3.99216 -1.1202 7.27068e-19)
(3.33308 -0.81345 0)
(-1.60932 1.17557 -2.20673e-18)
(5.44806 -1.16804 1.6777e-20)
(-1.62508 1.33704 -2.63053e-18)
(3.94135 -0.25202 2.76157e-21)
(3.31862 -1.31217 0)
(4.37753 -0.0202977 -6.17261e-21)
(-4.08778 2.78887 0)
(-3.05555 -0.238038 2.24446e-19)
(4.56384 2.73517 -8.08708e-19)
(4.70046 0.235485 0)
(4.62105 -1.04408 1.43744e-19)
(3.41332 -3.51515 0)
(5.06284 1.63128 0)
(3.76396 -1.7508 -7.34826e-19)
(3.13812 0.383616 8.93839e-19)
(3.76258 -2.54428 0)
(3.70661 0.186989 -5.51616e-19)
(6.96915 0.764488 3.15383e-18)
(-4.11834 1.87563 6.27427e-18)
(4.97483 2.27234 0)
(4.27513 -0.0529687 0)
(-4.33304 3.79236 -4.60128e-18)
(3.95284 -0.253801 0)
(5.37456 0.107406 0)
(-1.60752 3.5162 -1.05493e-19)
(4.50133 -0.685738 -8.22122e-19)
(3.87033 -0.937557 6.68712e-19)
(5.96029 -0.558495 1.36421e-19)
(-1.95594 1.58791 4.89401e-18)
(3.98831 0.0622693 4.51983e-19)
(3.40507 -0.87114 0)
(4.20992 0.727902 -2.10721e-19)
(3.17375 -0.586889 0)
(4.29583 0.0603678 0)
(3.99079 0.129805 0)
(4.27489 0.267149 -6.29778e-20)
(3.88407 -0.13746 7.20851e-19)
(4.88236 -0.246181 -1.71783e-19)
(3.49258 -0.87252 0)
(0.110369 0.174152 -2.79973e-18)
(3.91054 1.69489 4.4371e-19)
(4.25388 -1.48081 5.63435e-20)
(3.19647 -0.170135 2.23977e-19)
(5.11321 -1.38899 1.27238e-18)
(4.15164 0.0688768 -7.02932e-19)
(-0.541457 0.0872985 0)
(4.62997 -0.296451 0)
(3.00499 1.18121 0)
(2.92986 -1.31585 -1.64983e-18)
(0.872913 -1.9296 1.96797e-19)
(5.86632 0.693499 0)
(4.2523 0.750165 0)
(4.17407 -0.32402 1.87275e-19)
(4.00364 -0.0135422 -1.64139e-19)
(3.76387 0.908166 1.08577e-18)
(5.04382 -1.98954 0)
(-3.09885 3.89516 -1.19598e-18)
(4.52176 0.110228 2.18145e-19)
(3.19668 -0.984321 -1.52484e-18)
(4.30821 0.0946613 -3.79134e-19)
(4.40298 0.98789 5.89658e-19)
(6.70931 -3.81667 1.9315e-18)
(2.8864 -1.32088 2.86188e-18)
(4.2825 -2.15038 2.71938e-19)
(4.00357 -0.345353 6.56269e-20)
(3.99796 0.0136443 -2.17273e-19)
(3.44021 -1.56968 -8.69216e-20)
(2.68354 -2.14739 1.04966e-19)
(3.02832 3.11403 -4.15544e-19)
(3.67905 -1.73315 2.0313e-19)
(5.38306 -0.360961 0)
(7.08293 -4.09751 8.47388e-19)
(4.31569 -0.0531607 -9.74646e-19)
(5.36896 1.24302 2.58746e-19)
(3.142 -0.925001 -1.39822e-18)
(4.20123 -1.41804 -6.6377e-19)
(4.06793 0.011248 1.30461e-18)
(5.31812 -0.0642545 -7.37535e-19)
(5.38239 -2.64541 3.67709e-19)
(5.52248 0.0916387 -5.28151e-19)
(2.71059 -0.566032 -3.22087e-18)
(4.3533 -0.0177657 -8.08162e-19)
(2.69443 -0.669189 0)
(-1.10588 -2.6547 -2.15712e-18)
(4.24941 0.0534685 1.656e-18)
(2.25759 0.0597524 7.7165e-20)
(-0.78646 -0.530194 0)
(4.32664 -1.94767 0)
(3.98743 0.63604 9.49546e-19)
(2.4745 -0.565607 2.01793e-18)
(3.28504 -5.20051 -2.86855e-18)
(4.93693 -1.42395 -9.96199e-20)
(4.89058 -0.500473 3.85711e-19)
(5.79762 1.14654 0)
(4.00426 0.702579 5.26892e-19)
(2.10769 1.68842 6.34058e-20)
(4.61811 1.72119 -7.69634e-20)
(4.23015 -0.503631 -8.9969e-19)
(-2.29368 1.77942 -7.9557e-18)
(5.02644 -1.32525 -1.1929e-18)
(5.61299 -1.28346 5.10312e-19)
(4.24047 1.93343 0)
(3.84823 -1.09542 2.64722e-20)
(3.88497 0.00142941 1.88343e-19)
(3.60323 0.184709 -7.60517e-20)
(2.24448 -1.0934 2.65017e-18)
(4.18169 -0.511474 1.3445e-18)
(3.20913 3.00678 2.94933e-19)
(-4.32171 1.95735 -3.65769e-18)
(4.45281 -0.323777 -1.97272e-19)
(4.35698 -0.0359043 7.22964e-19)
(-2.24976 3.70557 -7.90487e-19)
(4.47561 1.59958 4.73269e-19)
(0.533903 -0.131402 -4.41122e-18)
(2.71485 -1.31744 -8.32337e-19)
(3.5894 0.10826 0)
(3.30423 -0.0418342 -3.38354e-19)
(-2.76517 2.27734 -3.12032e-18)
(2.99874 -0.504165 2.89454e-18)
(4.06969 -0.438212 0)
(3.74987 0.865206 7.17313e-20)
(2.79693 -1.17897 6.53017e-19)
(3.99177 0.047594 -1.94552e-18)
(-5.33089 3.41106 -3.83991e-18)
(4.4259 -2.90491 -1.22499e-19)
(4.55126 -0.200884 4.20953e-19)
(4.40781 0.0987063 6.44501e-19)
(4.11028 -1.82725 -7.18238e-19)
(4.64358 -0.3117 2.37025e-19)
(1.00858 -2.69222 -8.44078e-19)
(4.25242 -0.0412875 9.14788e-19)
(4.26107 -0.0865423 -4.4865e-19)
(4.19676 0.134254 -1.83508e-20)
(4.72485 -0.0135552 -9.19469e-19)
(2.71392 -1.20623 -1.26526e-18)
(4.06129 -0.339044 0)
(-2.31945 -2.58457 2.40602e-18)
(4.26185 0.0801262 1.35836e-19)
(5.00199 2.46292 8.76153e-19)
(4.76605 0.0525553 1.02707e-19)
(4.79676 -0.611824 -2.93234e-19)
(4.0005 0.0278345 -1.58512e-18)
(4.11142 0.47786 2.95264e-19)
(-4.09571 2.71839 -4.10776e-18)
(5.3911 0.120627 0)
(0.997226 4.39027 1.5746e-18)
(4.97387 -0.495486 2.25818e-19)
(3.33543 -1.27864 0)
(4.18751 0.106404 5.80551e-19)
(5.25747 -0.440768 2.88715e-19)
(5.2281 0.109925 5.19613e-23)
(6.33213 -1.65816 9.7205e-19)
(2.7389 0.258283 0)
(3.62529 0.474294 1.66348e-18)
(2.99478 1.70607 1.93638e-19)
(3.57379 -1.69343 5.71005e-19)
(4.23343 -0.323208 0)
(3.14109 0.318539 -2.57581e-18)
(2.34264 1.40301 -8.44802e-20)
(4.56569 2.38299 -2.72484e-19)
(2.73588 -0.599836 3.09262e-18)
(5.21405 -0.0164653 2.58637e-19)
(-5.37071 2.65913 2.72566e-18)
(4.03736 -0.213416 -1.05809e-18)
(5.53539 -0.955161 -1.15607e-18)
(3.68058 0.156807 -1.15597e-18)
(4.35739 -0.0318428 0)
(4.0004 0.0232947 -8.18479e-19)
(0.538315 -0.38365 7.28588e-18)
(-0.778253 -0.310639 0)
(5.79519 -2.21794 0)
(3.61124 0.177954 0)
(1.23853 -0.7159 0)
(4.0409 0.461722 0)
(2.59744 -0.544935 0)
(4.03309 -1.78465 -5.64255e-21)
(7.19322 0.173562 -1.76324e-18)
(4.91038 0.614598 0)
(3.59455 0.439195 2.52677e-18)
(5.40015 -2.55949 -4.73814e-19)
(4.10432 0.280519 1.74889e-20)
(-2.40675 2.77321 -1.47403e-18)
(2.57209 -0.144566 -1.27163e-21)
(-4.77105 2.9758 3.36972e-18)
(3.61865 0.024162 -2.98748e-19)
(5.14787 -0.0687138 5.26093e-20)
(4.00329 0.426895 -6.44464e-19)
(3.80575 0.211108 -1.56711e-18)
(3.82272 1.56293 -9.25331e-19)
(6.00193 1.81899 0)
(-2.5436 -3.51471 1.09972e-18)
(2.91691 -0.959771 -2.53193e-18)
(4.01725 0.0246215 -2.48018e-18)
(5.47015 -1.23866 6.56837e-19)
(4.52859 -0.00144963 1.55213e-19)
(6.49397 -0.825086 -1.47712e-18)
(4.56972 -0.472058 -8.68639e-20)
(4.64251 -1.0081 -4.88069e-19)
(4.03144 0.223222 6.79842e-19)
(4.4971 2.85602 0)
(2.62941 -1.05422 1.34065e-19)
(3.55556 -0.00289186 -3.50222e-19)
(5.63333 0.500364 0)
(1.61866 1.2686 0)
(4.32056 -1.90933 -1.81367e-20)
(-4.94425 2.08753 2.82215e-18)
(3.92997 -1.71556 -1.63921e-19)
(4.81311 2.4394 0)
(3.95692 -0.137802 -1.44747e-18)
(3.69311 0.265583 -3.04713e-19)
(-1.94779 -2.35703 1.26951e-18)
(5.32388 -0.0752292 2.15422e-19)
(-5.05881 3.07365 0)
(-2.19395 -3.69038 8.84363e-19)
(5.09602 -0.249533 0)
(3.82745 -1.14841 -5.0894e-20)
(4.11591 0.30432 -1.2811e-19)
(3.99968 0.0169216 7.29393e-23)
(4.52122 1.09671 -7.87664e-19)
(4.95784 2.07807 -1.03402e-19)
(3.88923 -1.07685 1.55477e-18)
(-2.40555 1.33391 0)
(3.20707 -2.67272 -4.16495e-19)
(4.61173 -1.99125 0)
(5.01164 0.59974 -7.49042e-20)
(-2.06596 -2.29444 2.35207e-18)
(5.47779 -2.12698 1.28712e-18)
(1.12876 3.962 -1.36057e-18)
(-1.98053 -0.971968 -7.07724e-18)
(3.20025 -1.54757 -6.62571e-19)
(2.99688 -0.964364 -1.42453e-18)
(5.83087 -4.3232 7.31022e-19)
(3.55697 -2.56978 3.45586e-19)
(2.76495 -1.23308 1.04619e-18)
(3.10277 -1.01184 1.57409e-18)
(1.40769 -1.95954 -1.24859e-19)
(3.96759 -3.12477 -4.52073e-19)
(4.14925 -1.24501 6.89093e-19)
(-0.854754 0.235281 2.11508e-18)
(4.76288 -0.0635434 1.41183e-19)
(5.75667 -2.4218 3.81681e-19)
(4.47792 0.683563 -2.53003e-19)
(5.16514 -0.84206 0)
(1.15184 -0.668761 -4.82385e-18)
(4.19155 -0.0412006 -1.10778e-18)
(3.98165 0.144283 0)
(4.96165 0.534588 0)
(3.34194 -1.49697 4.80316e-19)
(6.10204 -1.02695 -1.49265e-18)
(4.64924 0.363098 -3.25561e-19)
(4.4844 -0.681827 1.07139e-18)
(3.80189 1.51374 7.9908e-19)
(3.08594 -0.0132653 8.1779e-19)
(-2.3897 -1.9622 -1.43065e-19)
(3.58535 0.927627 0)
(3.15763 -1.06211 1.51124e-18)
(-0.692968 3.25592 6.38242e-19)
(-2.74352 -0.404254 5.35873e-18)
(3.91819 -1.46407 2.40257e-19)
(4.51673 -2.01947 3.04079e-19)
(3.64509 -0.01668 4.49872e-19)
(1.51944 2.53963 1.78666e-19)
(4.58913 -0.906962 3.99538e-19)
(-2.55499 -1.97164 -1.89653e-18)
(4.61579 0.353455 2.48946e-19)
(3.95466 0.0346644 6.16378e-19)
(2.68445 -0.672332 -1.2793e-18)
(3.95164 -0.213131 8.87336e-19)
(5.73939 -2.81045 0)
(4.62781 0.653941 3.13096e-19)
(3.99426 0.0288497 1.38498e-19)
(3.29038 -0.753411 -4.79687e-19)
(3.458 2.79671 -2.85579e-19)
(4.07945 -1.22379 5.40312e-19)
(4.21972 0.0448 2.54226e-19)
(3.02 0.00323447 -1.96087e-18)
(5.64357 0.330566 0)
(1.36576 4.22997 -2.39285e-18)
(4.34464 0.128457 5.16983e-19)
(3.7213 -0.243739 0)
(3.07248 -0.18067 1.10055e-18)
(5.2972 -0.0852984 0)
(3.31723 2.75656 1.51361e-18)
(5.08995 -0.0217801 0)
(2.68493 -1.22006 0)
(4.75763 -0.0575384 1.46497e-19)
(4.59998 0.274522 2.30568e-19)
(5.55006 0.347752 -8.87091e-19)
(3.87675 0.140616 -7.19409e-19)
(3.13703 1.79877 -6.20286e-19)
(3.98925 0.116023 -3.04551e-19)
(4.08868 0.473292 0)
(1.471 1.23817 -2.92459e-19)
(4.76719 0.255163 -4.37518e-20)
(3.70314 -1.18477 1.47816e-19)
(5.15365 -0.848657 0)
(5.4325 1.21089 4.16515e-19)
(3.99608 2.69143 -3.14994e-20)
(4.84458 -0.0468497 5.92932e-19)
(2.99367 -3.17002 0)
(-1.01279 3.24211 4.7956e-18)
(4.05558 0.207456 0)
(4.6572 -0.777263 -1.88824e-19)
(0.374109 -0.393775 0)
(4.75319 0.955991 0)
(3.7887 -2.17395 0)
(4.68863 -1.6485 0)
(-2.26619 4.295 -5.94528e-19)
(-1.83629 -2.85041 -8.57122e-19)
(3.86689 -0.119349 -1.08796e-18)
(-1.80519 -2.34412 -1.30919e-18)
(2.92618 -1.27616 0)
(-0.69727 -2.84055 -6.41319e-19)
(0.170452 -0.5022 -3.54016e-18)
(3.60657 -1.67684 0)
(3.33885 -1.1997 -1.54234e-18)
(0.507731 -0.770777 -6.30358e-19)
(4.45543 0.658957 6.33392e-19)
(5.902 -1.65352 -6.62592e-19)
(3.7891 0.186735 0)
(5.14362 -1.38401 0)
(6.12339 0.747569 4.86535e-19)
(2.40738 -2.30536 3.26786e-20)
(6.10192 -3.46173 -3.97165e-18)
(3.46362 -1.58187 -5.38194e-20)
(3.99619 0.00823963 6.05752e-20)
(3.28831 -0.0778588 1.36519e-20)
(4.02639 0.228332 9.79606e-19)
(1.80827 4.23241 1.5169e-18)
(4.22144 -1.08177 0)
(-0.46794 0.898285 0)
(4.5413 -0.27683 0)
(2.25031 0.246765 0)
(3.79645 -0.722394 6.27963e-19)
(5.34667 -0.0732604 0)
(-1.48871 3.83455 8.79315e-18)
(5.85142 -4.51918 -2.9549e-19)
(3.04826 -1.04007 -2.39319e-18)
(5.73821 -2.35587 2.42747e-19)
(-2.03803 -2.68129 -1.39217e-18)
(-0.407732 3.74088 -3.85587e-18)
(4.19992 0.0691281 2.0111e-19)
(-2.84409 -1.1215 -2.14857e-18)
(1.74775 4.25248 2.6364e-18)
(4.92933 -0.0287638 0)
(5.08464 -0.200718 0)
(5.20359 -3.325 0)
(4.80536 -0.643926 1.45418e-19)
(3.85861 -3.41725 0)
(3.63655 0.922224 0)
(4.00261 0.0106858 0)
(3.91106 -0.947923 6.17223e-19)
(4.10398 0.268656 -9.81121e-19)
(5.8764 -1.19118 0)
(4.09975 -1.69341 -1.27071e-19)
(3.95268 0.21778 -8.97512e-19)
(4.64607 1.53661 1.45728e-19)
(3.64543 -1.68357 8.15294e-19)
(3.75113 1.04212 6.13702e-21)
(3.43584 -2.43386 -1.62901e-20)
(1.49938 1.49235 2.22583e-19)
(3.26727 -1.62826 1.18605e-19)
(4.57546 0.282167 -3.02876e-19)
(6.69073 -4.32959 -6.77078e-18)
(3.75144 0.0457268 -1.08799e-18)
(4.23011 -0.0377253 0)
(4.7868 2.19883 -6.82933e-19)
(3.96347 0.0374432 1.13294e-18)
(1.82331 1.70929 -3.55264e-19)
(4.53739 -0.454347 -2.66054e-19)
(2.53109 -0.602517 -2.21179e-18)
(4.59475 0.240743 4.97897e-20)
(5.74817 0.819718 7.93484e-19)
(3.99057 0.107406 0)
(6.97012 -3.44865 1.0189e-18)
(4.83209 3.01523 4.88647e-20)
(3.29893 -1.4817 -1.99586e-19)
(-2.40541 -2.6457 -1.52629e-18)
(4.12595 0.0245458 5.4789e-19)
(4.28762 -0.348671 -7.07127e-20)
(5.11824 -0.00278529 -1.95163e-19)
(4.66812 -0.26608 0)
(2.66829 1.04236 0)
(3.37893 -1.61218 1.04201e-18)
(-5.23096 3.10976 4.20282e-18)
(3.36549 0.125824 -1.32295e-20)
(3.96199 0.0389485 2.26281e-18)
(6.74182 -2.94404 -2.85676e-18)
(3.09664 0.272362 0)
(3.70707 0.0579137 0)
(3.54858 -0.836009 -1.89967e-20)
(4.62386 0.0229194 2.43228e-19)
(3.82989 0.989413 1.48781e-18)
(4.51284 0.0569571 0)
(3.93811 -0.0680524 0)
(4.76163 -1.12963 4.87636e-19)
(4.1809 -0.309626 7.57104e-19)
(3.71595 -3.57504 -1.01013e-18)
(3.33933 -0.0830407 0)
(4.38118 0.805178 4.71946e-19)
(4.54915 -1.70389 -1.51899e-19)
(-3.23955 1.93168 -3.68132e-18)
(4.11143 -0.0565797 -1.12859e-18)
(7.0122 0.103969 0)
(6.25736 -0.891741 1.18919e-18)
(4.12894 -3.52056 -6.14678e-18)
(1.76392 -2.18463 0)
(2.71779 0.147126 -2.50663e-18)
(3.88962 0.0987571 -7.50307e-19)
(2.28487 0.134747 -1.31811e-21)
(4.1879 0.476148 4.70783e-20)
(3.41847 3.13267 1.13169e-18)
(4.16557 0.0402898 0)
(2.52578 -0.967984 -1.97112e-20)
(6.72613 -3.23805 2.31465e-18)
(4.66674 1.24444 -6.7064e-18)
(4.02684 0.418828 7.66941e-19)
(-0.724005 3.04622 1.45195e-18)
(4.14951 0.0300382 -2.52649e-18)
(3.3802 2.93251 -5.29754e-20)
(1.06401 2.47638 9.97249e-19)
(3.82327 -0.874538 0)
(3.85034 0.587844 1.43206e-18)
(2.70518 -1.26176 8.30266e-19)
(4.52633 -0.0990571 -8.78749e-19)
(3.99812 0.0296354 -1.01366e-18)
(4.51231 -0.753806 1.44791e-19)
(3.60063 -0.44728 2.47422e-18)
(4.64857 -0.0575493 -1.63009e-19)
(3.68232 0.0791477 6.50287e-19)
(3.51332 -3.54771 -1.42437e-18)
(5.99718 -0.592345 -1.549e-18)
(4.50916 1.7038 2.23296e-19)
(3.45503 -5.18771 2.18028e-18)
(3.90989 -0.00923493 0)
(5.40129 -4.00287 0)
(5.90275 -0.0361654 0)
(3.04281 -0.976757 1.83953e-18)
(4.15388 0.0678652 -1.62815e-18)
(3.66938 0.283469 0)
(3.37504 -0.786943 -1.40359e-18)
(3.6671 0.224697 0)
(3.806 -0.646522 -1.02425e-18)
(3.73986 -1.23998 9.85712e-20)
(4.15428 -1.02791 -7.70341e-19)
(4.25117 0.0398042 0)
(3.96812 0.0223913 0)
(3.48357 -0.275402 -2.48477e-19)
(4.85451 0.49496 2.02585e-21)
(5.12447 -0.19393 3.75881e-19)
(4.28308 2.87606 -5.12433e-20)
(4.42604 0.257745 0)
(3.93405 -1.41702 -4.03112e-19)
(-0.755425 -0.220676 0)
(2.04985 1.26142 -1.21059e-18)
(4.99344 2.05827 0)
(4.24209 -0.3344 1.44889e-19)
(2.71152 -0.528208 8.46034e-19)
(3.32754 -0.408859 8.10015e-19)
(3.48778 -0.0222084 2.20067e-19)
(5.11979 -4.28244 -5.28351e-18)
(4.13983 -0.366263 1.92407e-18)
(4.05946 0.450679 -1.60762e-20)
(6.6257 -0.766906 1.7066e-18)
(4.34829 -0.837009 -3.53821e-19)
(-0.488022 0.160842 1.57395e-18)
(4.92865 0.801849 0)
(4.00138 0.032661 7.88991e-22)
(3.45067 -0.880287 0)