/*--------------------------------*- C++ -*----------------------------------*\
| =========                 |                                                 |
| \\      /  F ield         | OpenFOAM: The Open Source CFD Toolbox           |
|  \\    /   O peration     | Version:  2306                                  |
|   \\  /    A nd           | Website:  www.openfoam.com                      |
|    \\/     M anipulation  |                                                 |
\*---------------------------------------------------------------------------*/
FoamFile
{
    version     2.0;
    format      ascii;
    arch        "LSB;label=32;scalar=64";
    class       surfaceScalarField;
    location    "2.2";
    object      phi;
}
// * * * * * * * * * * * * * * * * * * * * * * * * * * * * * * * * * * * * * //

dimensions      [0 3 -1 0 0 0 0];

oriented        oriented;

internalField   nonuniform List<scalar> 
7520
(
-0.993527
0.713732
0.279795
-1.35745
-0.175064
1.53251
-0.0547103
-1.6208
1.67551
0.252054
-0.033626
-0.218428
-0.164634
1.39713
-1.23249
-0.097509
0.104883
-0.00737425
-0.274656
2.09064
-1.81599
-0.0361908
-1.57048
1.60668
-1.298
1.24329
1.08346
-0.0761178
-1.00735
-0.235508
-0.1187
0.354208
-0.196986
-1.82462
2.0216
0.74704
-0.10225
-0.64479
-0.110257
0.151943
-0.041686
-1.76602
0.960717
0.805304
0.178082
1.5831
-1.76119
-0.167761
-0.0373395
0.2051
-0.0287013
0.304691
-0.27599
0.0748138
0.0270539
-0.101868
0.0649878
-0.232749
-0.460017
-0.228521
0.688538
-1.07158
1.24966
-0.0331301
-0.331211
0.364341
0.179744
-0.162153
-0.0175913
-0.0230482
0.090144
-0.0670958
0.272892
-0.268755
-0.004137
0.830682
1.14683
-1.97751
-0.0378188
0.335141
-0.297322
-0.00283988
0.0776537
0.218512
-0.0347547
-0.183758
-1.10036
1.76356
-0.663203
-0.0537112
-0.0205872
0.0742984
-1.75567
1.97265
-0.216985
-0.336823
0.411923
-0.0751008
-0.196449
-1.22845
1.42489
-0.689841
0.91196
-0.222119
0.291269
-0.573942
0.282673
0.819981
-1.58687
0.766894
0.0933467
-0.34153
0.248183
-0.049353
-0.112008
0.161361
-0.0303946
0.282449
0.52977
0.0106687
-0.540439
0.312287
-0.0393955
1.93261
-1.21493
-0.717679
-0.392805
-0.719118
1.11192
-1.54172
1.67758
-0.135866
0.0345592
0.124415
-0.158974
0.299262
-0.0919672
-0.207295
-1.36974
0.269378
0.295213
-0.0798199
-0.215393
1.73092
0.173642
-1.90456
-0.706929
0.230691
0.476238
-0.0524207
0.0447942
0.00762656
1.03184
0.525735
-1.55758
0.0159085
-0.113417
-0.774442
0.0944772
0.679965
0.373302
-1.25739
0.88409
-0.0424849
-0.132984
0.175469
-0.132476
0.0787645
-2.27438
1.11228
1.16211
1.71778
-1.16284
-0.554933
-0.017354
-0.0463431
0.0636971
-1.22077
1.02432
0.890148
-0.143108
-0.0249612
-0.0274596
0.00431159
-0.114569
1.10142
-2.13753
1.03611
0.142912
1.588
-1.29289
1.02213
0.270756
0.33504
-0.254429
-0.0806113
-0.512249
0.885551
0.541723
-0.756075
0.214352
0.359179
-0.0989428
-0.260236
0.423811
-0.512823
0.0890124
0.75082
-1.61122
0.860403
0.138982
-0.121534
-0.017448
2.35938
-0.894014
-1.46537
0.462629
-0.799362
0.336733
1.67512
-1.38806
-0.287053
-0.879822
0.105381
-1.5144
-0.759985
0.685794
0.148499
-0.834293
0.271433
-0.664438
0.393005
0.00169576
-0.338518
0.318286
-0.346988
0.237381
-0.0188681
0.0282427
-0.0419641
0.0137214
1.28881
1.07056
-1.62224
1.79624
-0.173999
1.19211
0.525669
-0.997021
1.1528
-0.155774
-0.0158938
0.191251
-0.175357
1.40277
-1.59976
0.261587
0.212026
-0.118679
0.448437
-0.106637
-0.341799
0.0078619
0.0916966
-0.0995585
-0.566813
0.377867
0.188946
1.52037
-0.76955
-0.761434
0.660315
0.101119
0.846328
-0.821513
-0.0248142
-0.0956062
0.120457
-0.0248511
0.0646475
-0.065285
0.000637517
2.1571
-1.36009
-0.797012
0.557106
-0.501451
-0.492076
-1.33792
0.825669
-1.85907
1.58441
0.189614
-0.0867263
-0.102888
-0.324031
0.0885229
-0.17272
0.1714
0.0013193
-0.337683
0.415257
-0.0775735
1.89613
-1.07615
0.149651
0.00337403
-0.153025
-0.799501
0.339484
0.0259091
0.103432
-0.129341
-0.0510745
0.736868
-0.753304
0.390471
0.362833
1.18813
-2.05137
0.863239
0.0645254
0.115219
-0.14279
-0.564139
-0.322568
0.0311861
0.291382
1.48489
-0.401422
-0.228701
0.453047
-0.224346
0.0983942
0.123626
-0.222021
0.103076
-0.0985886
-0.00448784
0.705284
-1.80165
1.09637
0.405997
-0.439127
-0.348868
-0.0774585
0.426327
-0.0205542
0.170205
0.125616
0.233258
-0.358874
0.162894
0.0345191
-0.197413
-0.068531
0.231425
-0.632034
-0.121269
0.209137
-0.670555
0.461419
-0.679179
1.4224
-0.74322
0.346602
-0.385744
0.0391414
-1.15394
-0.18398
-0.0367406
-0.0551315
0.0918722
1.3802
-0.348352
-0.634935
0.446344
0.188591
-0.00379583
0.139452
-0.135656
0.310485
-0.0806028
-0.229882
0.227661
-1.84847
0.276028
-1.81775
-2.06149
0.872255
1.18924
-0.880026
-0.412865
-1.20066
0.839597
0.361066
1.71189
0.287319
-1.99921
0.196659
-0.246012
0.169836
0.533119
-0.702954
-0.458049
-0.603369
1.06142
-0.121347
-1.07932
-1.77151
0.0158449
0.0203414
0.00790132
0.0730996
-0.142689
0.0695891
0.305755
-0.34824
0.697075
0.149252
-0.167888
0.137493
0.0131582
-0.0139151
0.000756898
0.789425
-0.447992
-0.341433
-0.555208
-1.21081
0.123222
-0.581271
0.0591523
-0.597526
0.538374
-0.179298
-0.0882382
0.267536
-1.59334
0.840975
0.752369
0.425765
-0.590399
-0.0620693
0.47317
-0.411101
0.143002
-0.16605
0.542423
-0.246971
-0.295453
0.604074
-0.155637
0.257275
-0.337095
0.954114
0.22882
-1.18293
0.315421
-0.353239
-0.310558
-1.41574
1.7263
1.28794
0.656502
0.729483
-0.45805
-1.13296
0.443118
-0.682358
0.922198
-0.23984
-0.0118847
-0.0266578
0.0385425
0.274883
-0.332541
0.0576579
-0.887065
0.835991
-0.293691
-0.152881
0.446572
-0.241942
0.0626435
-0.83649
0.895643
0.409774
-0.981585
0.571812
-0.511945
-0.0548672
0.70916
-0.41789
0.150703
-0.0117203
0.384236
-0.298673
-0.085563
0.0147101
-0.352394
-0.383695
-0.240355
0.62405
0.138541
0.220638
-0.775969
-0.835254
-0.859096
-0.734247
-0.0469361
-0.141903
0.188839
1.06983
-0.562463
-0.507365
-0.924939
0.24576
-1.18312
2.14375
-0.960623
0.380835
0.161588
0.266186
-0.245877
-0.0203094
-0.751446
0.608655
0.660631
-1.05344
1.77705
-0.0893225
-1.68773
-1.59134
2.13711
-0.545769
-0.0285263
0.101626
0.45855
1.27657
-1.73512
0.0366541
-0.184236
0.147582
-0.148103
1.88168
-1.73358
0.0013279
0.120747
-0.122075
-0.878521
1.25268
-0.374156
-0.0568
-0.694646
0.112916
-0.49661
0.320133
-0.247127
-1.62469
1.87181
-0.128688
0.155742
-1.72355
0.947585
0.341835
-0.0222817
-0.319553
-0.175296
0.273691
0.127136
1.56778
-1.69492
-0.549609
-0.604522
1.15413
-0.538581
0.432481
0.1061
2.32923
-1.50755
-0.821681
0.496236
-1.04584
-0.104097
0.0903969
0.0137006
0.118056
0.752361
-0.870417
0.0630844
-0.0655989
0.00251453
0.775246
0.827966
-1.60321
-0.232412
-0.529022
-0.0657009
0.185603
-0.119902
-0.936853
0.674399
0.262454
-0.0896063
0.04657
0.0430363
0.845163
0.224665
1.11248
-2.02647
0.913996
-2.58599
1.18421
1.40178
-1.14934
-1.43665
-0.386321
0.437089
-0.0507679
-0.336832
0.256882
0.0799496
0.416383
-1.1958
0.779418
0.00295111
1.1056
-1.10855
-0.508419
0.656919
1.11329
-0.159175
1.01702
0.993533
-2.01055
-0.212901
0.108226
0.104675
-0.000242562
-0.93661
1.81415
-0.426244
-1.3879
0.148908
-0.112253
0.0178044
-0.264978
0.227638
0.963132
0.851015
0.257431
0.587487
-0.844918
0.379642
-0.0445018
0.105498
-0.282824
0.177326
-0.285369
0.27893
0.00643904
-1.81198
0.868042
0.943938
-0.241906
-0.0949252
0.854431
-0.645295
0.635608
-0.0241291
-0.611479
0.148095
0.151167
-1.9216
1.85656
0.0650429
1.11585
-0.706072
-0.0437309
0.00365691
0.040074
0.0105101
0.0687186
-0.0792287
0.12672
-0.225663
1.70238
-0.600958
0.0517243
-0.177302
0.125578
0.000558514
0.0125997
-0.435789
0.317089
0.544543
-0.65118
-0.694426
0.697377
0.247062
0.137174
2.09064
-0.0214525
0.0109023
0.0105502
-0.579428
1.12397
-0.228046
0.150175
0.0778703
0.133017
-0.0683691
0.00502167
0.524748
0.881426
-0.711591
0.437325
-0.386911
-0.0504146
0.353333
-1.23185
-0.0923676
0.217984
-1.64939
1.40226
-0.0282157
-0.0758817
-1.68558
0.246127
-0.249923
-0.113513
-0.0854245
0.198937
-0.613199
-1.19878
1.17983
0.977269
1.71798
-0.877003
-1.82462
0.315083
-0.543784
-0.0889052
0.0196193
0.0692859
0.179476
-0.269451
0.0899759
-1.26992
0.550801
-0.202706
-0.27421
0.476916
0.722502
-0.798619
-0.0675835
-1.84648
1.91407
0.904467
0.20575
-1.51263
1.30688
0.953534
1.01912
-0.881658
1.39429
-0.935742
-0.044094
0.404896
-0.360802
-0.883873
0.800064
0.0838085
0.094595
-0.0428707
-0.0870397
0.344091
-0.257051
-0.302562
-0.203687
0.506248
-0.525191
1.81313
-0.282252
-0.387174
0.669426
0.240051
-0.205492
0.255658
-1.25268
-0.197604
0.303102
0.00927699
-1.92001
1.06796
0.852058
0.386918
-0.489167
0.00845676
-0.059417
0.406019
0.974065
1.35516
1.63133
-0.533937
-1.09739
0.137462
-0.0489018
-0.0885605
1.00101
0.674102
-0.041962
-0.0469432
0.645355
-1.69243
1.04707
0.249058
-0.271521
0.0224634
0.58837
0.932
-0.240735
-0.100795
0.756266
-0.498835
-0.575181
1.40586
0.178944
0.0106696
1.90746
-0.719333
0.156041
-0.148179
1.72471
-0.0933809
0.112167
0.419846
0.0174792
0.0181506
0.316889
-1.68543
-0.895485
1.02174
-0.126251
0.00628431
-0.127819
1.81862
0.0175318
-1.83615
-0.73923
0.456978
0.239367
0.0711177
-0.327145
0.0727166
-0.176929
-1.21113
1.55412
-1.58138
0.0272558
0.0590262
-0.381016
0.32199
-0.962366
1.55074
-0.844536
1.54982
0.118307
-0.0592804
0.768095
-0.377625
1.93429
-0.531517
0.00511483
0.133211
-0.138325
-0.122312
-0.0530335
0.175345
0.134959
0.00250316
0.173819
-0.807737
0.121575
0.119833
-0.241408
0.545494
0.876904
-1.73365
1.42309
0.133141
-0.48201
-0.383539
0.925262
-1.11763
1.31051
-0.192885
0.557013
-1.93509
1.78699
2.18148
-0.892667
0.878817
1.0538
-0.079951
0.294063
1.26006
-1.40702
0.359765
1.04726
0.269273
-0.304028
-0.382211
0.140305
-0.237691
0.16916
0.252996
-1.46793
0.716963
-1.16381
0.446843
-1.74239
0.79354
0.94885
-0.264483
-0.491592
0.0928387
-0.110193
0.0871436
-0.0159831
0.366009
-0.350026
-0.564746
0.502677
1.20511
0.976368
-1.59134
0.0474687
0.0556078
1.63069
-1.43088
-0.199811
-0.438783
1.71536
-1.23853
2.13575
-0.897229
-0.803867
0.988397
-0.18453
0.140656
-1.36143
0.0093684
0.247514
-0.27283
0.443317
-0.170487
-0.0566594
-0.00862559
1.35257
0.57794
-1.28317
0.705233
-0.00439288
-1.55081
1.5552
-0.0570602
-0.115659
0.0597889
-0.486251
0.426462
-0.85608
1.20194
-0.345856
0.215107
-0.149686
-0.065421
-0.134954
0.938064
-0.80311
-1.86457
1.6895
1.82395
-0.430745
-1.3932
0.534205
-0.368998
-0.165208
-0.0124239
0.1919
0.156378
-0.668324
-0.855532
1.63078
0.0341262
-0.0082171
1.77705
-0.998372
1.11643
-0.0258787
0.0258787
-0.256338
0.212975
-1.83521
2.25269
-0.927386
-1.32531
-0.523897
0.800244
-0.276347
0.066782
0.0678031
-0.134585
1.08253
-1.14254
0.0600095
-0.486519
-0.320432
0.806952
0.928873
-1.98354
1.05467
-0.0356725
-0.8482
-0.238789
0.116477
-0.281576
-0.506986
0.788562
0.724237
0.467695
-1.19193
-1.27591
-0.418662
0.702082
-0.28342
-0.378834
1.32652
-0.947684
1.48646
-1.35932
-0.106996
0.228571
-0.19119
-0.0844716
0.508283
-1.12793
0.785538
0.342396
-1.63424
1.77702
-0.142783
-0.0185644
0.143308
-0.124743
-1.38385
-0.75368
-0.0204243
0.0175844
-1.69311
0.509989
-0.387443
0.300404
-0.339651
-0.464216
-0.0285609
0.277619
-0.641358
1.65838
0.0462856
-0.377497
-1.48947
0.112235
1.37723
0.494557
-0.920625
0.426068
-0.879165
0.196807
0.218101
-0.590562
0.372461
1.62968
-0.15891
-1.47077
-0.0104509
-0.106875
0.117326
-0.326533
0.618663
0.442205
-1.06087
-0.377859
1.33858
0.286569
0.642975
0.737221
-0.0249266
1.53918
0.185526
-1.39716
1.39277
-0.194649
-0.0340638
0.228713
-0.26281
-0.0506743
0.313485
-1.7857
0.547175
-0.309474
0.320143
-0.631725
-0.263759
0.261167
0.9001
-0.414779
-0.485321
0.208268
0.10402
-1.05127
1.88394
-0.832667
0.186328
-0.239361
-0.0880691
0.362952
0.268938
-0.541768
-0.0757471
-0.247806
0.323553
0.0118441
0.0999593
-0.111803
0.587132
-0.727083
0.139951
0.00807706
0.0475952
-0.0556723
-0.308093
0.343316
-0.0352228
0.263231
-0.643542
0.380311
0.328139
-0.0588658
0.0109796
0.441825
-0.452804
1.06174
-1.03396
-0.943543
-0.702007
-0.0234048
0.725412
0.124028
0.0317136
-0.302213
-0.236368
1.04768
-0.147583
-0.0569515
-1.1973
1.25425
-0.328265
0.00569767
-0.106195
-0.52584
-0.455523
0.320568
0.183117
-0.181789
-1.38124
-0.0382972
-0.0865939
0.124891
1.2513
-1.02248
1.0444
0.779553
0.761546
-0.125938
-0.209502
-1.61218
1.82168
0.478104
0.646084
-1.12419
-0.288337
-0.993759
0.515117
0.478642
0.946005
-0.451448
-0.0650431
-0.176447
0.24149
2.26944
-1.26719
-1.00225
0.143108
-0.32722
0.184112
0.490782
0.619718
-1.1105
0.0787967
0.107834
-0.186631
1.61871
0.0216833
-1.64039
0.288101
0.0165899
-0.268435
0.314721
0.106099
-0.0441115
-0.0619874
0.389267
-0.0709803
0.0343394
-0.0042313
-0.0301081
-0.72793
-0.526977
1.25491
1.07622
0.553456
1.01813
-1.07508
0.21364
-1.06972
-1.80849
1.74091
-0.112213
0.235839
0.307826
-0.614106
0.30628
0.849407
0.86857
1.12743
-1.29073
0.163298
1.22274
-0.579767
-0.154255
0.105353
-0.0325884
0.155726
-0.123138
-1.40166
-0.314107
1.71576
-0.377613
0.452105
-0.0744912
-0.00163198
-0.0242467
0.447038
0.95009
-0.153496
-0.0594045
1.13013
-2.12179
0.991661
-0.979532
0.0444782
0.935053
1.68258
-0.570102
-0.0419018
0.51275
-1.11612
-0.279671
0.00528794
0.274384
0.0215812
-0.205339
-0.628652
1.20659
0.0194198
0.0436645
0.241021
0.0873593
-0.32838
0.0887022
0.993825
-0.0819713
-0.588584
-0.333128
-0.421838
0.453024
0.598657
-0.938309
-0.14605
0.149424
-0.0437908
0.271429
-1.90656
0.872595
0.0418936
0.186943
-0.228837
0.104164
-0.0826854
-0.021479
0.253412
0.852187
-0.0535478
0.00720466
-0.0444333
-1.56281
1.60724
-0.125795
-0.499626
0.625421
-0.0542325
0.0756237
-0.0213912
-0.408937
1.1259
-0.205789
-0.311112
0.5169
-0.296444
0.514545
-0.701756
1.67991
-0.978159
-0.822171
0.560512
0.261659
1.70752
0.00436725
-0.303534
-0.0601223
0.363656
0.339169
-0.105911
-0.189958
-0.287737
1.02084
0.7754
0.462832
-1.31116
0.848324
-0.811273
-0.206061
1.01733
0.231564
-0.195772
-0.0357922
0.103727
0.292821
-0.396548
0.265818
0.266442
-0.53226
0.129194
-0.326798
-0.921242
0.0926023
-0.00245835
0.205414
0.0976876
-0.131211
0.410008
-0.278797
-0.245078
0.283242
-0.0381644
-0.225502
0.01782
0.207682
0.799822
-0.404243
-0.0331678
-0.00879631
-0.302251
-0.45395
0.756201
1.21327
-0.959854
-0.0300908
-0.343439
0.37353
-0.347075
-0.474438
-1.34364
1.48655
0.683576
-0.150458
-1.30377
0.859141
0.444625
0.256284
-0.107811
-0.148474
1.77215
-1.77215
-1.6785
0.164096
-0.916675
-0.192367
-0.650805
0.843172
0.545759
-0.563523
0.0177641
0.0715759
-0.0382297
-0.115604
0.153834
-0.0372031
0.227856
-0.190653
-0.608076
1.20663
-0.598558
-0.268054
-0.0586486
0.326702
0.798388
-0.657732
-1.08408
0.272808
-0.0425575
-0.230836
0.273393
-0.105537
-1.30149
-0.685702
-1.16489
0.479183
0.856194
-0.0544782
0.245935
-0.191457
-0.286744
0.349014
-0.0622701
-0.248203
0.182502
-0.0875153
-0.215227
0.101715
0.0396899
-0.0371348
-0.132473
0.169608
0.121289
0.0344374
-0.362937
0.373917
0.171737
-0.210157
0.0384209
0.0116146
0.0315556
-0.0431702
-0.223595
0.270573
-0.0469783
-0.0703328
0.186958
-0.116625
-0.763776
1.21062
0.696069
-1.07243
0.37636
-0.172465
-0.080813
0.253278
-0.0519606
-1.9205
1.97246
0.849151
-0.616339
-0.232811
0.3477
-0.0793147
-0.190137
0.178594
-0.0751627
-0.0616409
0.204749
0.338967
-0.898656
0.559689
-0.451356
-1.47024
-0.227557
0.905481
-0.677924
0.151566
-0.17212
0.424406
-0.285499
-0.138908
0.2307
-0.532951
-0.550283
-0.313549
0.354615
-0.0410659
-0.545637
0.342931
-0.130631
0.576975
0.13967
-0.12916
-1.39984
0.039746
-0.297301
0.566239
-0.0189523
-0.219836
-0.147951
0.0248125
0.269368
-0.323847
-0.0874004
-1.18801
0.424236
2.03296
-0.151281
-1.62469
2.22757
-1.07796
-1.14961
-0.120093
0.49796
-0.13585
-0.743972
0.535358
-0.520648
-0.260196
-0.0194759
-0.602072
-0.457221
1.05929
-0.0544841
-0.104545
0.159029
0.019107
-0.899133
-1.89092
-0.332013
-0.332462
0.664476
0.316016
-0.441811
-0.259416
-0.0403788
0.299794
0.490282
-0.0842847
0.181417
0.0748677
1.97008
-1.04121
-0.962639
0.360567
-0.264105
-0.0526925
0.316798
-0.0465063
-0.0410456
-1.10149
-0.31352
-0.0739065
0.387426
-0.0946037
-0.0378719
0.909479
-1.22476
0.315279
-0.642984
-0.0438364
1.81599
0.251069
-0.705019
1.15752
-2.0286
0.871079
-1.96352
1.2127
0.750816
0.174498
0.108813
-0.283311
0.149125
1.13687
0.0457885
0.815057
-0.860845
-0.0307475
-0.146555
0.281382
0.252824
-0.0175028
-0.311092
0.328594
1.25173
-1.46123
0.387259
-0.180802
0.220857
-0.0400556
-1.51024
-0.168255
-0.645502
-1.02824
0.326236
0.118023
0.00359436
-0.121617
-0.650381
0.339064
0.311317
-0.405542
0.361448
-1.10558
-0.556678
1.66226
-0.152804
-0.0223178
0.0890998
0.474829
-0.542231
0.0674017
-0.893892
1.68743
-0.178694
-0.851519
0.327623
0.636685
0.217746
0.692011
-1.30009
0.0409034
-0.0387015
-0.00220193
1.29257
-0.241951
-0.990543
-0.359071
-0.07857
0.437641
-0.0551416
0.224301
-0.0507124
0.272985
-0.222273
-0.277776
-0.0692115
0.144083
0.737344
-0.356972
0.325015
-0.06774
-0.417027
0.35761
-0.174202
0.0245448
0.149657
0.270629
-0.106509
-0.164121
-0.161092
-0.0427137
0.203806
-0.209201
-0.0271541
0.236356
-0.0836453
-0.138375
-0.261261
-0.119755
-0.0123979
1.21026
0.119338
-0.036271
-0.0830668
0.245776
-0.122419
-0.123356
-0.0494425
0.412492
-0.363049
-0.356292
0.282366
-0.701028
0.123269
0.380126
-0.0743712
0.191445
-0.0484425
-0.145272
-0.0389647
1.8657
-1.03774
0.531842
-0.889678
0.357836
-1.57096
0.227321
-0.0670142
-0.124312
0.191327
-0.047132
-0.0424744
-0.809531
-1.15399
0.376726
-0.0613052
-0.829218
-0.863209
0.336425
-0.0954042
0.00599632
0.468833
1.13247
-0.778834
-0.834669
1.2975
-1.6629
0.261241
0.267527
-0.24811
-0.0194168
-0.141181
-0.189244
-0.407189
0.596433
0.154651
-0.0290736
-0.645378
-0.659334
1.30471
-0.905599
-0.993323
1.89892
0.614335
0.408823
-1.02316
0.00489806
-0.251109
-0.0624396
-0.25625
-0.285518
-0.193938
-0.102411
0.296349
0.608297
0.453121
0.288101
0.136305
-0.246336
-0.629314
-8.01761e-05
-0.0213723
-0.667349
1.58687
-0.919523
-0.151026
-0.235286
-1.59565
-0.179699
0.0377959
-0.60045
-0.160636
-0.198239
-0.811676
0.166382
-0.174602
-0.894411
-0.353223
1.24763
-0.261028
0.796386
0.402112
0.398132
-0.310993
-0.983026
-0.923533
-1.27945
1.33946
0.0830612
0.0880598
0.0332448
-0.0921935
0.0589487
-0.65571
0.596785
0.0589253
0.731205
-0.788005
0.322096
-0.280203
-1.11045
-0.193319
0.131999
-0.104325
-0.0276739
0.645265
-0.0581332
-1.43109
-0.0778506
1.50894
0.015772
0.105517
0.0498814
0.343239
-0.39312
-0.259981
0.439309
0.117797
0.087515
0.0305249
-0.11804
-1.27147
0.845226
0.147131
0.00752063
-0.191263
-0.135957
-0.34561
-0.105105
-0.040945
-0.0660487
-0.348116
0.00998012
-0.0719676
0.389412
1.46714
-0.814796
1.69361
1.01749
0.519188
-0.839621
-0.028437
-1.40265
0.497382
-0.341587
0.401144
-0.0595571
-0.0787266
-0.0198621
-0.150443
0.0269387
-0.0610598
0.139824
-0.0535754
1.48637
-1.43279
0.127431
-0.822077
-0.128827
-0.278509
-0.0697311
-0.0683334
-0.299515
0.375464
-0.0759492
0.00516366
-1.44536
1.4402
0.662591
0.214076
0.331683
-1.24678
-0.594517
0.995646
-0.40113
0.0122445
0.0159514
-0.0986368
-0.592634
0.558162
0.0344722
0.340292
-0.498933
0.15864
-0.161014
-0.612071
0.773086
-0.291399
-0.0618409
-1.95389
0.0679207
0.198215
-0.1931
0.0489659
0.174493
-0.0273621
0.35716
-0.689622
2.19613
-0.917611
-1.27852
-0.0963074
0.445878
0.354069
-0.304187
0.221967
0.132648
-0.198012
-0.00928256
-0.407453
0.409149
-0.441861
0.831523
-0.992537
0.158393
-0.104927
-0.0534656
-0.38207
-1.85113
0.96783
0.8833
-1.74838
1.69641
-1.13023
0.498811
0.631424
-0.614106
-0.151047
0.765154
0.428119
0.619564
0.00373385
0.210332
0.798284
0.914659
-0.00514615
-0.272876
-0.0126224
0.992692
1.20344
-0.261381
-0.021443
1.36927
-1.08195
-0.0307612
-1.397
1.42776
1.18122
0.0290387
-0.307814
-0.0796292
-0.114601
0.223234
-0.274751
-0.0388272
-0.343384
0.167564
-1.13914
0.971575
0.0119098
2.29105
-1.44917
-0.841877
-0.0302741
0.127209
-0.0594057
0.770723
0.0652676
1.60218
-1.43808
1.01348
-1.91908
-1.23758
0.041106
1.19647
-0.867607
0.233054
0.634553
0.276403
-0.178715
1.97873
0.0629271
-2.04166
-1.12778
1.63029
-0.502517
0.0499885
0.233254
-1.17768
0.798844
0.0264841
-0.0546998
-1.3432
0.225571
0.00279446
-0.0264088
0.0236143
-0.151314
0.223378
-0.0720639
0.0976069
-0.461257
0.36365
0.571374
0.450362
-0.523877
-0.126504
0.0152514
0.885307
-0.920979
-0.0755642
-0.0671245
-0.271724
0.056331
0.0473545
0.761088
-0.808442
0.0251374
0.556732
-0.581869
0.0719732
-0.453163
0.381189
-0.567497
-1.42005
0.592623
0.827426
-0.0263806
0.838157
0.260941
-1.0991
-0.555607
0.2415
-0.26535
0.0238501
0.185167
-0.0375844
-0.264049
0.00463386
-0.304484
-0.818077
0.106487
-0.420846
0.827069
-0.406223
-0.813626
-0.319332
1.85984
-0.791885
-0.100253
0.196346
-1.3063
-0.0190845
-1.30918
1.32826
0.0511105
-0.099719
0.0486085
0.779
-0.543863
-0.235137
0.164868
-0.0254164
0.209389
-1.26959
0.455967
-0.690509
1.20563
-0.0706447
-0.365144
0.31085
0.245342
0.0252876
0.848203
-0.391225
0.0379204
0.693284
-0.937104
0.372965
-1.90259
0.909268
1.43387
-1.4287
-1.55771
1.50413
0.279436
-1.449
0.233534
1.21547
0.633811
0.27167
0.0351387
-0.902624
0.710257
-0.13996
-0.129236
0.269195
-1.15335
0.333537
0.819817
0.293725
0.667985
-0.96171
-0.0147935
-1.26466
0.809673
0.0513033
-0.860976
0.269694
0.510505
-0.894043
0.242012
-0.0146772
0.0612472
1.56714
-1.54545
0.106855
-1.02044
-0.399609
0.650287
-0.0248371
-1.21274
1.14127
-0.303112
-1.78699
-0.0376302
-0.281064
-0.901869
0.347738
0.237365
1.80849
0.282153
0.0877604
-1.18925
0.151418
-0.116898
0.144258
-0.446819
0.333069
-0.58044
0.247371
-0.126257
-0.004312
0.130569
0.322076
-0.382198
-0.0877009
-0.197668
-1.10294
1.14016
-0.0372238
-0.740914
0.896767
-1.46031
0.563542
-0.826025
-0.0660162
0.109053
-1.42148
0.0749565
1.34653
-0.367394
0.924407
-0.690755
0.709862
0.148541
0.926453
0.625566
-0.958694
-0.806652
-0.213695
1.02035
-0.815893
-1.20006
0.554684
-0.133425
0.137317
-0.00389184
0.0801812
-0.101572
0.859716
-1.48837
0.0234357
-0.562728
0.539292
-0.312894
0.248063
0.064831
-1.10489
0.49282
0.0395989
0.0267956
-0.245224
0.430313
1.83318
0.14555
-0.788813
0.834601
-0.286417
0.0951534
-0.867627
1.48462
-0.616993
-0.0846656
0.0685381
0.0821646
0.386196
-0.0218544
0.922709
1.22104
0.553483
-0.931107
0.310747
-1.81829
-0.17861
0.140313
0.0899331
-1.11241
-0.269116
-0.955642
-0.224455
0.0565668
0.817858
-0.387545
-0.723525
-0.0118498
0.749193
0.197659
-1.71115
0.311846
1.3993
-0.0585276
0.497836
0.479854
-1.30739
-0.283953
0.785022
-0.364643
-0.420379
0.88868
-0.303384
-0.585296
-0.190743
0.0410564
0.662771
-0.651633
-0.0111381
-1.72349
0.732864
0.99063
0.962124
0.717791
0.000751023
0.117272
0.807335
-0.524969
-1.46837
0.55735
0.911025
-1.87181
1.55771
0.654239
0.790499
-1.44474
0.830818
-0.725437
1.78153
-0.751866
-1.02966
-1.07577
0.196107
-0.090754
0.0589713
-0.105075
0.2133
-0.0489517
0.138271
-0.0893198
-0.266424
-0.2464
-1.37944
-0.191041
0.078199
-0.0957018
-0.0360735
-0.0295254
1.04654
-0.410346
-0.636197
0.824423
-0.485358
-0.149206
0.136782
-0.143808
1.27124
0.00594044
0.04517
-0.266645
-0.838247
-1.47349
0.579078
-0.0530475
-0.109105
0.128268
0.107475
0.128495
-0.0952501
-0.497707
-1.06998
0.114968
-0.0899839
-0.0249841
0.198137
-0.532162
-0.979171
1.51133
0.159068
0.0154251
0.184178
1.03154
0.962145
-1.99369
-0.455085
1.06942
0.228604
-0.0911103
0.490937
-0.986756
-0.651926
1.63868
-0.917449
-1.03207
0.574845
0.29708
-0.134479
-0.162601
0.274099
-0.836563
-0.193154
1.2442
-0.347433
-0.191487
0.110884
-0.302563
-0.769866
0.0249603
1.88907
-1.74091
-0.148159
-0.88615
-0.58734
0.19011
0.181588
0.0676498
-1.04159
-0.20226
1.24385
0.257624
0.456978
-0.116686
-1.59124
-1.9724
0.790997
1.1814
-0.173451
-0.0052912
0.178742
0.976523
-0.58033
-0.396194
0.119543
-0.180603
0.0827467
0.0886535
0.929472
-2.03506
0.785232
0.103448
-0.351305
-0.611333
-0.131352
0.0268073
0.164841
0.800624
-1.33279
0.0202437
0.384652
-0.575532
0.491061
-0.0945263
-0.0112263
0.105753
0.758611
1.02292
0.548273
0.0519397
0.465203
-0.415774
-0.0494292
1.93509
-1.62325
0.23293
-0.581598
0.158082
0.0270844
0.145767
0.0194423
0.150166
0.00491912
-0.138344
0.550459
0.0452634
-1.72927
-0.0215891
-0.151862
-0.0793011
-0.0128924
0.990505
-0.588393
0.885314
-0.550931
-0.334383
0.00423825
0.116219
-0.0044527
0.00724716
0.405432
-0.139077
0.0272732
-0.442816
-0.284267
-2.02124
0.910007
1.11123
0.223509
-0.0322582
0.0228835
0.110039
0.127342
-0.277301
-0.313261
0.45759
-1.44435
-0.0870222
-0.957853
1.98939
0.627975
-0.14264
-0.485334
-0.788526
-0.443954
-0.119569
0.0989934
-1.06183
0.450195
-0.710578
0.260382
-0.329163
0.289677
0.0394853
-0.0594689
1.13184
1.00391
-1.60571
1.62325
-1.48406
0.904378
0.579684
1.02377
-1.98163
2.04159
-1.06752
-1.01347
-0.94588
-0.0443186
0.410328
-0.120417
-0.365835
-1.4942
0.0452001
-0.0182087
-1.27252
1.26947
-2.05397
0.784502
-0.0557655
0.252425
-0.531577
0.530416
-0.268757
0.951448
1.3396
-1.52351
0.655882
-0.122338
-0.795111
-1.3309
0.305228
-0.0155504
1.74838
-1.74401
-0.0943621
-1.26596
0.0402955
0.854993
-0.236329
-1.48033
1.63786
-0.157527
0.358606
1.61385
0.451914
-0.0657584
-0.386156
1.89802
-0.884544
0.247226
0.0641386
0.651312
-0.757507
0.105902
0.139439
0.0812069
0.925499
-1.00671
-0.708829
-0.460691
1.0336
-1.07289
0.0392933
-0.384376
0.31047
-1.70963
0.873366
0.836259
0.665339
0.11366
-0.76137
0.112457
0.860788
-0.643042
0.303518
-0.559768
0.181682
-0.230124
-0.655615
0.466372
-1.00916
-0.903845
1.91301
0.268933
-0.296087
0.297426
-0.368407
1.00139
-0.673763
0.0425349
1.01594
-1.83073
0.102672
0.373664
0.2093
-1.16915
0.0114435
0.702289
0.146368
0.103463
-0.610449
-1.35142
0.516746
0.0334037
-0.503115
0.469712
0.0717779
-0.328829
1.10699
1.12058
1.288
-0.972719
-0.0219683
0.106321
0.172609
0.466211
0.295206
-0.364417
-0.717342
-0.956353
1.98013
0.162829
-0.189209
-0.80915
-1.06402
1.87317
-1.59844
0.470663
-0.074391
-0.465429
0.10238
-1.39933
-0.0901377
-0.20628
0.656476
-1.02418
-0.99706
1.88907
0.650235
-1.38448
1.06928
-0.61892
-0.239118
-0.375385
0.312946
-0.265982
0.235891
-1.62826
0.228561
-0.823078
1.0277
-1.98405
-0.818816
0.253846
-0.359756
-0.0481958
-1.43213
0.866616
-0.700234
1.38171
0.903824
-1.66212
0.758296
1.72331
-0.990449
2.0216
-0.950284
-0.992254
1.94254
0.421415
1.26434
-1.00671
-0.796635
-1.17577
-0.865004
-0.619057
0.476425
-0.77305
1.64946
-0.876414
-0.124107
1.35909
-1.23498
-1.03126
-0.916813
1.94807
0.906163
0.127439
0.283458
0.402952
-0.71739
0.614013
0.103377
0.0383109
-0.277672
0.509836
-1.39599
-0.845357
-0.400038
-0.255673
0.216234
-0.37687
-0.642045
0.856397
-1.96457
0.951292
1.01327
-0.082199
-1.58741
1.66961
0.102135
-0.26633
0.0756774
0.604208
-1.84629
1.84629
-0.0570576
-0.0108917
0.0679493
-0.632636
1.10033
0.307794
-0.00256627
-0.811997
-0.605492
1.05861
-1.60571
-0.0434908
-1.29436
0.295985
1.21551
-1.32105
-1.18722
0.145631
0.218922
-0.351603
0.13268
0.152168
0.510603
-0.142268
0.0160114
-0.941024
-1.18799
0.178565
1.00942
-1.37628
-0.0642145
-0.461335
-0.998974
-0.0406804
0.128195
0.171544
-0.158265
0.380232
-0.0293069
0.039287
0.364839
-0.288548
-0.367067
-0.729342
1.59828
-0.868935
0.366373
0.2186
-0.225475
0.424721
-0.199246
-0.399485
0.195798
0.432964
-0.558828
0.125865
-0.904832
1.56522
-0.910976
-1.49889
-1.66509
0.219726
-1.10696
0.0555051
1.03805
1.23139
0.131065
-1.03293
1.09254
-0.307002
-0.397616
0.326972
0.635419
0.620632
0.210186
1.97646
-0.948764
-1.00021
-0.891578
1.89178
1.16523
-0.0195973
-1.14563
-0.119848
-0.00257102
-0.20606
0.187495
0.128427
1.36365
-1.49207
-1.45594
1.4287
0.0272314
1.45594
-1.50413
0.224361
-0.280126
-0.503512
1.01402
0.0911798
-0.0107967
-0.127579
-1.6571
0.144471
1.73655
-0.832727
-0.41912
-0.112813
0.137358
-0.449324
1.04263
0.271803
-0.087691
0.703185
-0.668713
0.188893
-0.254314
-0.586865
-0.0775731
-0.0379712
-2.06351
0.512698
-0.0708832
0.445941
-0.375058
-1.09256
-0.961419
0.0923312
0.496217
0.619628
-0.897397
0.108584
-0.111429
-0.341733
0.107399
-2.00305
0.989583
0.054282
-0.0912953
-0.232551
-0.0931968
0.0271481
0.208647
-1.42173
0.871181
-1.54012
0.668938
0.0628948
0.259411
-0.322306
-0.346335
0.365954
-1.02055
1.31654
0.60407
0.46535
1.36235
-1.30739
0.195586
0.0437812
1.63438
-1.87889
0.244508
-0.319865
-0.222366
-0.841339
-0.0196376
0.385951
-0.464521
-0.173726
0.198539
-0.966159
-0.184391
-0.0110745
0.195466
-1.48392
0.225121
1.2588
-0.192799
0.208571
-0.0326622
-0.160781
0.193444
1.19516
-1.22
0.185283
-0.189595
0.64253
0.200642
0.153234
-0.180908
-0.0435021
-0.128618
0.223581
0.647381
-0.870962
-0.439139
-0.0221183
-0.96037
-1.02091
1.98128
0.0330149
-0.652873
1.01071
-0.860218
1.69641
-0.0613781
-0.0798031
0.0627073
0.0507299
-0.0777542
1.99399
-1.0013
-1.2181
0.800988
-0.572426
-0.50098
1.412
-0.106757
-0.0323201
0.0810427
-0.0826747
-0.350854
0.267787
-0.308045
0.205634
-0.243891
-0.442012
0.283746
1.03337
0.0408056
-0.134002
0.271181
-0.0252454
0.0419281
-0.490611
0.147227
0.503235
-0.791783
0.220023
-0.252349
0.0323262
0.0126619
-0.112381
0.292887
0.838134
-1.13102
-0.263131
0.133895
0.393027
-0.654055
1.34051
-0.795012
0.984075
0.851888
0.0717272
0.574801
-1.04091
0.362982
-0.447267
-0.271055
1.03633
0.933752
-1.58298
1.58298
1.63198
-0.864997
1.12065
-0.088046
1.53191
-1.44386
0.914281
1.03016
0.925266
-1.93443
0.140473
-1.13301
-1.35549
-0.22443
-1.40202
1.62645
-0.420685
-0.124952
0.0814935
0.735998
0.182949
-0.289457
-0.979251
1.7652
-0.785953
-0.18035
0.286253
0.000880127
0.398367
0.547637
2.23044
-0.866551
-1.36389
1.53644
-1.46148
1.10163
0.208883
0.114585
0.00372193
-0.0164077
1.58419
0.575394
1.02788
0.856057
0.0225692
0.207213
-0.229783
-0.366032
0.230075
0.191267
-0.204346
0.0130782
0.170676
-0.229949
0.0592728
0.459478
-0.444226
0.346375
-0.497401
-0.208693
0.523776
0.0385111
0.0796508
-0.00807483
-0.590656
0.7188
-0.128144
0.0991238
-0.0935171
-0.00560668
1.74401
-1.45028
-0.431713
0.270841
0.160872
-1.56714
-0.353499
0.279127
-1.02763
1.94191
0.273103
-0.342834
1.93648
-1.01121
0.261384
-0.329124
-0.166461
-0.495912
-1.32397
-0.125951
1.61208
1.25765
-1.04835
-0.103373
0.167899
-0.118482
-1.46289
-0.31017
0.306033
0.259493
-0.38832
-0.377361
0.301412
-0.101556
-1.32048
1.28972
-1.49563
1.52288
-1.1769
-0.492201
0.441786
0.668911
0.39789
-0.410512
-0.072116
0.064632
0.360426
-0.425058
-0.395572
1.3587
-0.988655
-0.974041
-1.94506
-0.0920571
0.0880207
0.0040364
0.0169841
1.39892
-1.4159
0.865634