/*--------------------------------*- C++ -*----------------------------------*\
| =========                 |                                                 |
| \\      /  F ield         | OpenFOAM: The Open Source CFD Toolbox           |
|  \\    /   O peration     | Version:  2306                                  |
|   \\  /    A nd           | Website:  www.openfoam.com                      |
|    \\/     M anipulation  |                                                 |
\*---------------------------------------------------------------------------*/
FoamFile
{
    version     2.0;
    format      ascii;
    arch        "LSB;label=32;scalar=64";
    class       surfaceScalarField;
    location    "5.25";
    object      phi;
}
// * * * * * * * * * * * * * * * * * * * * * * * * * * * * * * * * * * * * * //

dimensions      [0 3 -1 0 0 0 0];

oriented        oriented;

internalField   nonuniform List<scalar> 
20045
(
0.247273
-0.264899
0.0176257
-0.534601
0.188621
0.345979
0.180432
0.937396
-1.11783
0.042496
-0.0491305
0.0066345
-0.420879
0.411117
0.00976204
-0.292328
1.11571
-0.823383
-0.512206
0.224239
0.287967
0.0338655
0.216699
-0.250565
0.237335
0.209001
-0.446336
-0.416635
-0.0549922
0.471627
0.0499719
-0.203192
0.15322
1.1391
-0.547157
-0.591942
0.177764
-0.17956
0.00179558
-0.648279
0.551447
0.0968321
-0.165834
0.534549
-0.368715
-0.548391
0.131756
-0.000611844
-0.0428028
0.0434147
0.412893
-0.312285
-0.100608
-0.841888
1.23745
-0.395564
-0.378883
0.0290777
0.349805
0.110165
-0.115403
0.005238
0.0599265
0.117837
-0.0642206
-0.47038
0.294094
0.534498
-0.828592
0.417834
0.102948
-0.520782
-0.557651
0.851745
-0.249298
0.286034
-0.036736
-0.624097
1.18644
-0.56234
0.873886
0.12373
-0.997616
-1.14266
0.631935
0.510727
-0.100257
-0.0952314
0.195489
0.718524
-0.506235
-0.212289
-0.412056
0.808644
-0.396588
1.15369
-0.669442
-0.484249
-0.279229
0.313094
1.07412
-0.526071
-0.548047
0.731119
0.0899069
-0.821026
-0.0302861
0.185652
-0.155365
-0.948246
0.385823
0.562423
0.297277
0.260794
-0.558071
0.0262979
0.197098
-0.223396
0.0642513
-0.0925342
0.0282829
1.07451
-1.0742
-0.000306169
0.748265
-0.278404
-0.469861
0.347359
0.400906
0.518774
0.620325
-0.160939
0.378173
-0.217234
0.636634
0.278558
-0.915192
0.905184
-0.174066
0.0760137
0.945393
-1.02141
0.649783
-1.09987
0.450085
0.885895
-0.651932
-0.233963
-0.604655
-0.43057
1.03522
-0.0451354
-0.151351
0.196487
0.406189
-0.106455
-0.299734
-0.348119
-0.0727604
-0.00569265
0.780369
-0.774676
0.790461
0.0492916
-0.839753
0.48361
-0.895667
1.04444
-0.672606
-0.371832
0.130485
-0.133823
0.00333848
0.452678
0.591759
0.283174
-0.909505
0.626331
0.115147
-0.00498189
0.461906
-0.00545912
-0.456446
0.829939
0.0876118
-0.917551
-0.00227493
0.0405803
-0.0383053
-0.335985
0.0862781
0.249707
0.424437
-0.187102
0.883258
-0.897926
0.014668
-0.0188828
0.0166079
-0.0500397
0.456228
-0.120972
-0.527129
0.648101
-0.00869349
-0.10716
0.115854
0.919575
-0.188856
-0.730719
0.689366
-0.695058
0.00384221
0.915733
0.216491
-0.382325
-0.13993
-0.261603
0.401533
0.202536
-0.599431
0.396895
0.519891
0.605891
-1.12578
0.450588
-0.348392
-0.102195
0.777897
-0.494723
-1.26141
0.240849
1.02056
0.0121594
0.235114
-0.277701
0.314182
-0.0364811
0.165034
-0.60423
0.439196
-0.804056
0.036851
0.767205
0.518633
0.0749482
-0.593581
-0.430343
0.395158
0.0351847
-0.719306
-0.110718
0.830023
0.363655
-0.0637114
-0.299943
0.202076
-0.286637
0.0845612
-0.0794701
-0.405189
0.484659
0.295653
-0.313725
0.0180718
0.754347
0.193618
-0.947965
-0.272908
0.0236094
-0.0490501
-0.00114402
0.0501941
0.609331
-0.312054
0.0416322
-0.0380472
-0.00358502
0.724966
0.349151
-0.237405
-0.410874
-0.0761136
0.0270635
-0.145738
0.9362
-0.00207503
-0.275626
-0.0377252
0.0793574
0.228836
0.602764
-0.8316
0.558505
-0.862776
0.304271
-0.30087
-0.207646
0.181141
0.0265054
-0.0981412
0.125279
-0.0271379
0.624062
-0.457959
-0.166104
-0.247058
0.201923
0.65765
-1.09775
0.440104
-0.0817793
0.157408
-0.0756284
0.0226892
-0.121793
0.0991039
0.581652
-0.163818
0.839987
0.313704
-0.582685
0.461713
0.69759
-0.98719
0.2896
0.27418
0.138713
-0.069708
0.200193
-0.388259
0.316032
0.0722269
-0.389741
0.0478424
-0.292639
0.244797
0.636601
0.249295
0.560114
-0.714482
0.154368
0.813058
0.0901972
-0.903255
-0.987586
0.752048
0.235538
-0.116077
-0.427807
0.543883
0.937768
-0.301167
0.0778115
0.300362
0.071198
-0.0720786
0.000880575
-0.0621849
0.0411576
0.0210273
0.569591
0.402673
-0.972263
0.600069
-0.580306
-0.019763
-0.178184
0.110126
0.0680576
-0.148976
-0.0586708
1.10842
-0.410831
-0.325421
0.347209
-0.0217874
0.637018
-1.10485
0.46783
0.17763
-0.782284
0.570703
0.22538
-0.796083
0.661364
-0.458828
0.971799
-0.131595
-0.840204
0.4248
-0.992276
0.567475
1.22913
-0.74738
-0.481748
-0.12895
0.238929
-0.109979
-0.00603085
1.04662
-1.04059
1.07571
-0.201823
-0.826187
0.0275957
0.798591
-0.476386
0.418088
0.058298
1.01481
-0.494923
0.169761
0.280826
-0.636856
0.780311
-0.143455
-0.78041
0.960842
0.010693
-0.151921
0.141228
0.0286831
-0.0380026
0.00931949
-0.0156862
-0.18784
0.203526
1.017
-0.233355
-0.783643
1.32443
-0.653258
-0.671169
-0.220977
0.205291
0.350151
-0.664398
0.314247
0.0756097
-0.0113583
-0.797671
-0.484773
0.691368
-0.206595
-0.676135
0.497774
0.178361
-0.0129791
-0.0218383
0.0348175
0.54184
0.687288
-0.0413017
-0.0208832
0.0108699
0.0603281
-0.710301
0.073445
-0.731903
0.932658
-0.200755
-0.658285
0.759149
-0.100864
-0.601355
-0.427222
1.02858
-0.32346
0.0779996
0.24546
0.452241
-0.477031
0.0247893
0.898142
0.0833334
-0.981476
0.0155446
-0.758391
0.742847
-0.361975
0.932678
0.194369
-0.543701
0.349332
-0.428732
1.08638
-0.832626
0.54303
0.289596
0.189591
-0.233186
0.0435955
0.440139
-1.22733
0.787194
-0.945683
0.321587
-0.614287
-0.417111
1.07439
-0.652414
-0.421971
-0.26637
0.292668
0.122695
-0.129646
0.00695157
-0.775591
-0.163906
0.939497
-0.830996
1.17032
-0.339324
0.90707
-0.647416
-0.259654
0.0855379
-0.25155
0.166012
-0.251084
-0.47129
0.722374
0.221548
-0.171576
-0.470693
0.354616
-0.67006
-0.222424
0.892484
0.088957
0.0246564
-0.113613
0.126621
-0.611393
0.0883521
-0.18861
0.870269
-0.0572111
-0.13928
0.108994
-0.128944
0.157016
-0.0280725
0.0347265
0.982272
-0.771489
0.520405
0.278898
-0.0081868
-0.270711
-0.700475
0.133922
0.566553
0.30407
0.603
1.27809
-0.837952
0.732366
-1.23359
0.501226
0.203961
-0.786732
0.582771
0.0264055
-0.405288
-0.48579
0.714626
0.662607
-0.954935
0.319054
-0.730736
0.411681
-1.24304
0.705578
0.537457
-0.0188163
-0.411526
0.180214
0.137159
-0.317374
0.721593
-0.218864
-0.50273
-0.0386591
-0.725348
0.719317
-0.253802
-0.0716188
0.654367
1.08479
-0.880997
-0.203788
-0.0105739
-0.12668
0.137254
0.679798
0.109171
-0.788969
0.217527
-0.0398786
-0.177648
-0.148215
0.665434
-0.517219
-0.440435
0.605469
0.56542
-0.371051
-0.053311
0.148003
-0.0946922
0.927628
-0.29061
0.0890119
-0.00803446
-0.0809775
0.130244
-0.0505978
-0.0796459
-0.103272
0.107093
-0.0038212
1.06107
-0.677706
-0.38336
0.240497
-1.07149
-0.11278
0.00950867
-0.877301
0.286205
0.591097
1.17049
-0.36185
0.249278
-0.981181
1.28641
-0.585568
-0.700843
-0.011708
0.100665
0.798575
-0.354063
-0.444512
-0.609499
0.141257
0.468242
-0.954021
0.95907
-0.00504862
0.287779
-0.854114
0.566335
0.00380298
-0.0566978
0.0528948
-0.469945
0.634944
-0.164998
-0.14278
0.153008
-0.010228
-0.142572
0.0607928
-0.113885
0.0157443
-0.57212
-0.290656
0.420477
-0.775554
0.355077
0.405717
-0.101798
-0.303919
0.40733
0.311194
0.655108
-0.336054
0.00956505
0.019118
0.690519
0.479975
-0.489926
0.0123599
0.477566
0.257987
0.540588
0.381498
0.153051
0.168502
0.237216
-0.28447
-0.0202649
0.304735
-0.05711
0.246701
-0.704924
0.556709
-0.175051
0.191892
-0.0168404
-0.915163
0.88043
0.0347333
-0.35672
0.578665
-0.221945
-0.218955
-0.107995
0.32695
0.765723
-0.827981
0.0622581
-0.756797
-0.486239
1.30166
-0.83227
-0.469387
-0.0927884
0.0822144
0.949316
-0.661537
-0.380715
0.801191
-0.135587
-0.21515
0.350738
0.802843
-0.151309
-0.651533
1.25706
-0.381499
-0.87556
-0.389644
0.254057
0.829036
-0.485885
-0.343151
-0.157362
0.781418
-0.624056
0.692655
-0.94707
0.254415
0.275706
-0.147323
-0.128383
0.306501
-0.121422
-0.185078
1.23855
-1.00357
-0.234981
-0.522667
-0.464919
0.730065
0.35472
-0.838864
-0.0762986
0.0216419
0.108602
0.103485
-0.713031
0.609546
0.00406426
0.11863
-0.540042
1.10963
0.403836
0.65723
1.16859
-0.714969
-0.453623
-0.757911
0.535487
0.738327
-1.21822
0.479895
-0.625816
-0.039395
0.665211
-0.229888
-0.177476
0.407364
0.546385
-0.196235
0.0425885
0.236309
0.509679
-0.027318
-0.478917
-0.704945
0.965824
-0.260878
-0.147889
0.0189446
-0.0575342
0.00422324
0.117387
-1.07141
0.266256
-0.70669
0.129594
-0.209101
0.291364
-0.0822629
0.000393462
0.0421026
-0.509282
0.375795
0.133487
0.352852
0.27121
-0.134462
0.549554
-0.415092
0.493385
0.106684
-0.634351
0.737836
0.572664
-0.0540318
-0.203699
-0.496776
0.994847
-0.752784
-0.242063
0.919846
-0.827801
0.235135
0.592666
0.7986
-0.864238
0.0656383
-0.430553
0.351083
-0.110782
-0.0674014
-0.115917
-0.603389
0.281845
-0.541026
0.259181
0.419992
0.409044
0.736242
-1.15215
0.415908
0.222929
-0.534769
0.31184
-0.972062
0.168007
0.0101425
0.353512
-0.567991
0.870605
-0.302614
-0.254393
0.305325
-0.0509319
-0.403441
-0.108765
-0.128323
-0.223169
0.351493
0.0809979
0.000898294
-0.0818961
-0.331057
-0.145329
0.376875
0.445651
-0.822525
0.747865
-0.489878
0.289923
-0.445607
0.0150536
0.461372
-0.238443
-0.665611
-0.167015
0.107758
-0.235458
0.1277
0.979015
-0.342381
-0.452847
0.747015
-0.294168
-0.114061
0.132201
-0.0181404
0.747805
-0.0262122
-0.159933
-0.553098
-0.499263
0.92161
-0.422346
0.653353
-1.15041
0.497059
0.589271
0.712385
0.257711
-0.272609
0.0148978
0.0862684
-0.712084
0.680003
-1.03232
0.352321
0.100128
-0.108821
-0.0722306
0.632345
-0.324053
0.590308
-0.575285
0.779246
0.191027
-1.03292
-0.890531
0.480768
0.409763
0.638836
-0.101414
-0.537422
0.934887
-0.169164
-0.437085
-0.531945
-0.482464
0.490886
-0.251193
0.0674641
0.183729
0.320299
-0.291221
-0.710014
0.637783
0.846504
0.228006
-0.783307
0.33046
1.06849
-0.338428
0.0403642
0.13188
-0.172244
0.00851889
-0.621959
0.61344
-0.90293
0.170594
0.732336
0.726811
-0.726811
-0.214875
0.75979
-0.544915
0.486905
-0.621367
0.680822
-0.400364
-0.280458
-0.941098
0.973929
-0.0328306
0.336785
-0.0453915
-0.291393
0.257459
-0.110764
-0.146695
0.107315
-0.326271
-0.173382
0.457622
-0.838337
-0.854191
1.00859
-0.154399
-0.283981
0.660856
0.0951399
-0.00383536
-0.0913045
-0.102657
0.155725
-0.0530677
-0.377842
0.404248
1.10968
-0.903693
-0.205985
-0.0853556
-0.526898
0.612253
-0.228519
0.248549
-0.0200307
0.119359
-0.274665
0.155306
-1.03313
0.412463
0.62067
-0.0397713
-0.00935923
-0.0790767
0.119441
0.016715
-0.0735307
0.0568157
0.552274
0.686276
0.0666081
0.0285318
-0.0496837
-0.291982
0.341666
-0.49889
0.794569
-0.295678
-0.0058043
0.0744509
-0.0686466
0.433323
-0.209084
0.805193
-0.296998
-0.508195
0.0063813
-0.41157
0.0853129
0.812829
0.423915
0.301329
-0.725243
0.461907
-0.411818
-0.0500889
-1.01259
0.186405
-0.43214
0.183862
0.248278
0.447844
0.573369
-1.02121
-0.627908
0.588513
0.0448646
-0.913333
0.868469
-0.123125
0.208663
0.180868
-0.226001
0.0451326
0.0210262
-0.305496
0.0810597
-0.0702391
-0.0108205
-0.673583
-0.203718
0.618309
0.0840397
0.0216321
-0.105672
-0.118857
0.00479613
0.170256
-0.710007
0.539751
0.213577
0.550719
-0.764297
0.359416
-0.715706
0.868718
-0.153012
-0.715579
0.558217
0.177952
0.108083
-0.398685
-0.277449
-0.25238
0.065961
0.186419
-0.863655
0.364765
0.669075
-0.754431
0.42487
0.643624
-0.297317
0.30208
-0.00476328
0.385687
-0.940017
0.55433
0.139719
-0.259961
0.120242
0.534766
-0.694698
-0.6398
-0.0184853
-0.304834
-0.0311504
0.0153034
0.111212
-0.126515
0.352882
-0.0127887
-0.0242351
0.0370238
0.956262
-0.508418
-0.328501
0.446939
-0.118438
0.261503
0.175694
-0.437197
-0.365002
0.241877
-0.210166
-0.0422145
0.399783
0.281039
-0.234846
-0.752343
0.284799
-0.177041
0.615906
0.405317
0.167347
-0.897041
0.973054
0.0996575
-0.46129
0.361633
-0.0852223
-0.828277
0.9135
-0.0931747
0.0859772
0.00719743
0.0512561
-0.374716
-0.287487
0.980141
1.01565
-0.590851
-0.431258
-0.0780237
0.0142956
-0.411027
0.396731
0.406883
-1.00824
-0.117912
-0.476301
0.594213
0.0051494
-0.0820915
0.0769421
-0.653158
0.0549209
0.598237
0.959385
-0.680827
-0.0191669
0.0804946
-0.0613277
-0.211071
-0.0174478
0.173465
0.359307
-0.532772
0.0951124
-0.120507
0.025395
0.630648
0.363243
-0.993891
-0.393218
1.14756
0.0787029
0.00229492
-0.265779
-0.561866
0.827645
0.37686
0.731561
0.920111
-0.706534
-0.348442
0.220119
0.139643
0.166858
-0.442586
1.18091
0.136376
-0.767548
0.631172
0.928239
-0.144924
-0.783315
-0.465546
0.713271
-0.247725
0.397686
-0.399921
-0.460691
0.860612
0.0576951
-0.0603492
0.00265411
-0.285075
-0.48535
0.770425
0.0420618
-0.144719
0.0278949
-0.0408741
0.506289
-0.791364
-0.707064
-0.206087
0.913151
-0.0666232
-0.475051
0.541674
0.246501
1.182
-1.20405
0.0220501
0.206941
-0.150747
-0.0561948
0.00814599
-0.305463
0.257501
0.227157
-0.313781
0.0838928
-0.81339
1.02083
-0.207441
-0.036027
-0.139024
0.318256
0.343108
-0.829241
-0.244962
-0.107863
0.232289
-0.124426
0.535242
-0.129924
-0.193905
0.214177
-0.0202717
-0.0297005
-0.11308
-1.17248
0.558197
0.935382
0.18033
-0.128139
0.247499
-0.196179
0.457682
0.822951
-0.365328
-0.201979
0.00807368
-0.0974322
-0.612582
0.225822
0.204878
-0.194186
-0.917927
0.0149972
0.0919296
0.204457
-0.0647375
-0.985284
0.642608
0.342676
0.743298
0.13996
0.182571
-0.0589746
-0.123596
0.275018
-0.25783
-0.0171876
-0.817698
0.291627
-1.02603
0.526768
-0.157904
0.192376
-0.0344718
-0.0342234
0.0671127
-0.0328893
1.03705
-0.00322178
-1.03383
0.13974
0.00776775
-0.147507
-0.133067
-0.255192
0.220921
-0.0188452
0.238567
-0.244496
0.00592866
0.38408
-0.0600713
-0.324009
-0.0237013
0.262268
0.845568
-0.65195
-0.0283663
-0.139526
0.167892
-1.01681
0.203416
-0.0523183
-0.0661939
-0.00991969
-0.0769274
0.160967
0.0100777
-0.000512691
0.243394
0.153673
-0.397067
0.435695
0.0262111
0.434724
-0.335066
0.188425
-0.165736
0.063961
-0.318354
0.628709
-0.0314754
-0.597233
0.534921
-0.034791
-0.50013
-0.663749
-0.328527
-0.0143983
-0.169374
0.183772
0.396644
-0.443354
0.0467101
1.11221
-0.0403819
-1.07182
-0.165254
-0.161302
0.326556
-0.493624
0.652476
-0.158853
0.535214
0.651047
-1.18626
-0.180151
0.0463273
-0.262251
0.426875
-0.164624
0.210639
0.093246
-0.303885
-1.02753
0.521397
0.506136
-0.223994
-0.0205016
-0.843081
0.136017
0.29553
-0.183425
-0.112105
0.483865
-0.617008
0.133143
-0.0772305
-0.187669
0.186317
0.995683
0.81988
-0.134413
-0.685467
-0.845122
0.129415
0.338719
-0.542418
0.696644
-1.1083
0.411655
-0.0959497
0.276164
-0.0151967
-0.39218
0.342496
-0.159235
0.207077
-0.121121
-0.769703
0.890824
0.400333
0.548983
-0.743636
0.773399
-0.0297632
-0.0527323
0.0680357
-0.62895
-0.257687
-0.110445
0.123411
-0.0129665
0.246482
-0.305965
0.0594823
0.0334357
0.00688163
-0.0403174
-0.0749574
0.558822
-0.798336
-0.103669
0.902005
-0.724653
-0.242559
0.967212
0.476455
-0.354196
-0.122259
-0.163809
0.0190091
0.1448
-0.282819
-0.072085
0.354904
-1.00776
0.0412486
0.966507
0.0260956
0.181146
-0.207242
0.808652
-0.906063
0.0974101
-0.516597
0.706645
0.0380546
-0.7447
0.0109933
-0.121438
-0.180724
-0.460804
0.641528
0.619101
-1.04783
-0.94841
0.823103
0.125307
0.110403
-0.0152909
0.672186
-0.35393
-0.0503528
-0.251174
0.301527
-0.00809333
0.120893
-0.1128
-0.247187
0.945517
-0.69833
0.719446
-0.246925
-0.472521
1.03525
-0.979664
-0.0555859
0.797546
-0.322862
-0.474684
0.043524
-0.218165
0.174641
-0.284122
-0.00851702
-0.9249
0.81552
0.10938
0.0556171
-0.980518
-0.320842
0.560339
-0.239497
-0.588457
-0.415113
0.17923
-0.158021
-0.021209
-0.795554
-0.221252
-0.171036
0.112357
0.0586785
0.206118
0.0114088
-0.893162
0.855594
0.0375682
-0.18705
-0.147376
0.0402158
0.150819
-0.0110797
-0.603878
0.133933
0.1225
-0.15085
0.0283508
-0.580835
0.348298
0.232536
0.353039
-0.0162539
-0.252924
0.661563
0.0862419
0.356539
0.0678942
0.250884
-0.318778
-0.101732
0.553973
-0.603909
0.388192
0.215716
-0.226689
0.00269506
0.934433
-0.5341
0.797774
-0.412088
-0.239249
-0.163559
0.402808
0.377331
-0.817805
0.440474
0.543621
-0.610244
0.986299
-0.433214
-0.553086
-0.00352225
-0.508969
-0.0949392
-0.856917
0.961042
-0.104125
0.117482
-0.289169
1.02153
-1.06556
0.270008
0.192315
0.0833915
-0.101236
-0.145588
0.110036
-0.00294303
-0.491876
-0.520074
1.19343
-0.504063
0.192241
0.111605
-0.303845
0.0649342
0.192525
-0.666346
-0.373079
1.03942
0.218486
0.327899
-0.00363447
-0.133285
0.136919
0.820377
-0.146646
-0.0669168
0.213563
0.612408
0.0163004
-0.359392
-1.02644
0.172253
-0.201491
0.00880015
0.192691
0.566383
0.720029
0.322989
-0.0443561
-0.278633
0.980405
0.0548457
0.596383
-0.844343
0.247961
-0.83193
-0.00862402
0.840555
-0.756395
0.979711
-0.223316
0.128201
-0.00497303
-0.123228
-0.414526
1.03363
-0.190429
0.236215
-0.045786
0.0218255
-0.765462
0.136238
-0.0315741
-0.104664
-0.943884
1.22627
-0.282391
-0.240159
0.53213
-0.291972
1.16153
-0.510762
-0.650764
-0.0045276
-0.596889
0.601417
-0.210846
-0.0151547
-0.515281
1.05049
0.516392
-0.731267
1.12704
-0.473685
-0.174822
0.146456
-0.867352
0.0354213
1.22358
-0.487334
-0.0278113
-1.2336
0.21922
-0.0221224
0.290163
0.5202
-0.810363
0.546158
-0.120487
-0.425671
0.748172
-0.975273
0.227101
-0.122068
0.00927564
0.112792
-0.193931
-0.472757
0.666689
0.342225
-0.278264
-0.430971
0.166332
0.264639
0.131956
0.286098
-0.418054
0.076036
0.103195
-0.865622
1.0167
-0.151081
-0.0534226
-0.0397521
0.450217
0.192894
-0.643111
0.548413
0.430157
-0.97857
0.150962
0.487874
-0.0184205
0.99022
0.0034075
0.783312
-0.786719
0.000718766
-0.00652306
0.0441263
0.0428913
-0.0870175
0.794801
-0.759032
-0.0357688
0.44814
0.538159
-0.0564606
0.0468795
0.00958114
-0.286439
0.805871
-0.519432
0.0147125
0.142842
-0.157554
0.427115
-0.770176
0.34306
-0.568754
-0.427822
0.996576
0.827762
-0.147964
0.299671
0.246488
-0.443085
-0.116894
0.559979
0.282282
-0.809179
-0.26922
0.129934
0.139286
0.178263
-0.0794711
-0.0987924
-0.0388398
-0.172006
-0.0733495
0.639781
-0.566432
-0.134823
1.08022
0.771846
-0.619894
-0.151952
0.619079
-0.544131
-0.52541
0.158679
0.366731
0.0705528
-0.470917
-0.116283
0.105187
0.0110964
0.0547773
0.127793
0.136982
0.735377
-0.872358
0.202697
0.181383
0.120772
-0.845425
-0.41759
0.172413
0.245177
-0.313314
-0.237316
0.55063
0.466018
-0.222624
-0.840826
0.556845
0.288842
-0.235888
-0.0529534
-0.464977
0.795792
-0.330815
-0.428106
0.434488
-0.42381
0.551021
-0.127211
-0.585411
0.866747
-0.281336
-0.020284
0.191478
-0.171194
-0.0585106
0.0242871
-0.30362
-0.604076
0.911834
-0.307758
-0.540556
0.674478
0.499215
-0.503449
0.00423323
0.118869
-0.20502
0.0861503
-1.21855
0.857577
0.360972
-0.0369737
0.175728
-0.138754
-0.00113604
0.667279
-0.914466
0.764125
-0.386794
-0.367539
-0.522992
-0.696304
0.699712
0.501089
-0.00331539
0.380092
0.139324
-0.519416
-0.315772
0.292877
0.0228957
0.247413
-0.22309
-0.0243231
0.0243602
-0.388484
0.364124
-0.204004
0.511385
-0.307381
-0.760797
-0.229545
0.990342
0.165062
-0.0461923
0.671548
0.123253
-0.811082
0.628945
0.182137
0.390583
-0.347868
-0.0427149
0.00321144
0.164828
-0.214879
0.0500505
-0.656272
-0.428342
0.452702
0.124566
0.187866
-0.144342
0.292821
-0.0463384
0.100628
-0.528434
0.0303101
0.265343
-0.10873
0.168363
-0.0596329
-0.588144
-0.458431
1.04657
-0.0636216
-0.379463
-0.511135
-0.090638
0.601773
0.129409
0.17132
-0.300729
0.00123443
1.13029
-0.738627
-0.39166
0.167093
0.652787
0.0669653
0.391315
-0.41021
0.0188957
-0.357361
0.881558
-0.524198
-0.569774
-0.241045
0.810818
-0.439514
0.177263
-0.413365
-0.112045
0.909135
-0.432372
-0.476762
0.0256181
-0.184213
0.158595
0.3858
0.0483392
-0.434139
-0.155411
0.181507
0.289077
-0.305917
0.0168398
0.288784
-0.0217036
-0.199274
-0.00679223
0.491407
0.417727
-0.423214
0.809037
-0.364447
0.996383
-0.103928
0.129546
-0.85076
0.280986
0.711164
-0.624896
-0.0949997
-0.61163
0.118007
0.211545
-0.532387
0.71444
-0.705921
0.815065
-0.016465
-0.186429
-0.100208
-0.285605
-0.0723672
0.357972
-0.283426
-0.0302991
0.713301
0.145755
-0.859056
0.031933
-0.244342
0.212409
0.00951252
0.27875
-0.84009
0.56134
0.869892
-0.0612394
-0.921564
0.965441
-0.0438772
0.207046
-0.120768
-1.08284
-0.135707
-0.335958
0.847117
-0.0315963
0.357974
1.12749
-0.418424
-0.709066
-0.623191
-0.0507587
0.67395
0.167702
0.516217
-0.683919
-0.682873
0.0297156
-0.164198
-0.147115
0.311314
-0.463847
0.600223
0.131055
0.512697
-0.643752
-0.409108
0.354508
0.0546002
-0.944344
0.100613
0.843731
0.269139
0.494986
-0.21871
0.545128
0.252418
-0.300773
-0.131367
0.748709
-0.880304
-0.235613
-0.38
0.615613
-0.134975
-0.0451757
0.667179
0.0449371
-0.712116
0.649835
-1.01428
0.017854
-0.014051
-0.569645
0.719831
-0.150186
-0.624383
0.44366
-0.014212
0.262215
-0.248003
-0.258762
0.01417
0.244592
0.306384
-0.255128
-0.240869
0.579588
0.0353395
-0.193243
-0.139796
0.150789
0.222906
-0.262784
-0.0408755
-0.0158223
-0.172369
0.166509
0.00586001
0.188101
-0.212217
0.0241164
-0.698687
0.50983
0.12315
-0.634285
-0.0105457
-0.255825
0.027053
0.536939
-0.563992
0.305651
-0.325916
0.2044
-0.803591
0.599191
-0.297243
0.679147
-0.381904
0.215011
-0.919956
0.00167011
-0.0256294
-0.922781
0.4943
0.699128
-0.738825
-0.102002
-0.614081
-0.213719
-0.391191
0.168022
0.288244
0.01374
-0.301984
1.15352
-0.587139
0.894357
-0.214354
-0.223607
-0.139852
0.363459
-1.10237
0.454092
0.648273
-0.152866
-0.050326
-0.0177514
0.724396
0.146373
-0.0864468
-0.473614
0.0888555
-0.279285
0.102634
-0.0844066
-0.0182271
-0.111389
0.82469
0.188309
0.0117174
-0.200027
0.769901
-1.28929
0.588545
0.700741
0.228352
0.187664
-0.416016
0.613263
-0.273452
-0.339811
-0.499006
0.258847
-0.476152
0.0118043
0.373996
0.886137
-0.97136
0.380676
-0.170037
-0.393009
0.675291
-0.931688
0.663873
0.267815
0.466394
-0.807932
0.341538
-0.687918
0.722052
-0.0341345
0.414336
-0.516068
0.0132823
0.230825
0.24563
0.0825313
-0.681962
0.230723
-0.919776
0.456658
0.463118
0.236573
-0.859764
0.730977
-0.0455612
-0.563938
0.132542
0.157871
1.01295
-0.334214
-0.678739
-0.362324
0.251957
-0.565271
0.137212
-0.955357
0.904598
-0.756236
0.356316
0.46881
-0.817724
0.315227
0.502497
-0.848588
0.570604
0.277984
-0.254342
-0.0733443
0.0784937
-0.989298
0.69376
0.295538
0.609921
-1.02445
-0.85383
-0.0117921
1.10276
-0.406118
0.313761
0.103938
-0.4177
-0.0195432
-0.123182
0.142725
-0.18362
0.482868
0.527163
-0.426877
-0.390847
0.167495
0.17473
0.222963
0.332667
-0.55563
0.348344
-0.211185
-0.0471765
-1.06739
1.11457
-0.317566
0.413142
-0.775117
-0.558974
-0.400363
0.959337
0.234253
-0.297965
-0.646522
0.197296
0.449226
0.00237527
0.00701211
-0.00938737
0.75444
-0.875561
0.0134212
-0.583066
0.450241
0.352199
-0.80244
-0.0177712
0.210012
-0.786258
0.217773
0.568485
-0.981407
0.412654
0.531685
-0.889045
0.470163
-0.705776
0.0011686
0.00120667
-0.0321179
0.960357
-0.586593
0.725085
-0.138492
0.911785
-0.000182163
-0.911602
-0.678709
-0.0101008
-0.199
0.0644455
0.662365
0.104683
0.0275186
0.378316
-0.0925787
0.579484
0.485407
0.0575828
0.18983
-0.832938
-0.0602247
-0.82219
0.350553
-0.704616
0.156681
0.176531
-0.333212
0.808147
0.0514801
-0.859627
-0.091447
0.0864739
-0.320553
-0.705478
-0.757281
-0.106957
-0.385597
1.03543
-0.320279
0.429524
-0.109245
-0.85869
0.270546
-0.260059
0.483023
-0.361505
-0.623779
-0.337014
-0.303875
0.328665
-0.454164
-0.12667
0.972404
-0.125287
0.591319
-0.261199
-0.33012
0.0805776
0.0674255
0.230789
0.985358
-0.940493
0.00928962
-0.206825
0.291386
-0.471677
0.484037
-0.419786
-0.483645
0.197421
0.161374
-0.358795
-0.763671
0.0368601
-0.107431
0.728801
-0.62137
-0.0811442
-0.84042
-0.680383
0.789554
1.29631
-0.559655
-0.736655
-0.132591
0.316453
0.788449
-0.425571
-0.362878
0.239719
-0.261422
0.0475487
-0.00342242
-0.199976
0.0537172
0.146259
-0.127496
0.507588
-0.428741
1.03866
-0.0327474
-0.125274
-0.25611
-0.0646028
0.320712
-0.0128215
0.767261
0.0732576
0.305088
-0.378346
-0.35927
0.532735
0.408498
0.397373
-0.319172
-0.0984174
0.479894
-0.173171
-0.306723
-0.0531619
0.0484509
0.00471093
0.117739
-0.766685
0.648946
-0.879694
0.122414
0.199581
-0.37001
0.720563
-0.00483796
0.244557
0.10315
-0.423429
-0.9652
0.482737
-0.985443
0.332185
-0.412581
0.0347389
-0.398273
-0.544069
0.942342
-0.91625
0.011432
0.292401
-0.303833
0.934344
-0.693495
0.741705
-0.574003
0.151642
0.495108
-0.64675
0.204508
-0.368706
-0.688986
-0.181072
0.870058
-0.0719074
0.234289
-0.162382
-0.416005
0.918588
-0.502583
0.773971
-0.487706
-0.286265
0.740813
0.021731
-0.762544
-0.528331
-0.760955
-0.29997
-0.00486417
0.337842
0.599926
-0.0135731
0.0761951
-0.062622
-0.635631
-0.150627
0.664725
0.572728
-0.5017
0.59417
-0.0924699
-0.218274
0.151357
0.0466938
0.354815
-0.401509
0.17548
0.0128297
-0.110617
-0.878681
-0.793224
0.287017
0.00182503
-0.141743
0.230095
0.0678359
0.696772
-0.764608
-0.478838
-0.12504
0.535682
0.212184
0.0624871
-0.211463
-0.12577
0.0867272
0.039043
0.0935657
-0.340394
0.246829
0.298657
0.280008
0.145709
0.773852
-0.35386
0.850544
-0.437401
-0.0957192
-0.229942
0.325661
0.71134
0.0700772
0.031793
-0.624346
0.430415
0.404476
-0.417297
-0.503839
-0.49148
0.995319
-0.607647
-0.494719
-1.02115
1.06229
-0.0411392
0.0170243
-0.360946
0.288579
0.523478
0.250375
-0.017654
-0.17584
0.193494
-0.30036
-0.597566
-0.098328
-0.720244
0.818572
0.419914
-0.201428
-0.190842
-0.0783779
0.55301
-0.873563
0.442433
-0.339485
-0.246845
1.02582
-0.778971
0.518428
0.478676
0.272777
-0.751454
1.04684
-0.625865
-0.420972
-0.391604
-0.673151
1.10743
-0.434283
0.266839
0.32448
-0.255702
0.250864
0.398392
0.763134
-0.184904
0.165361
0.0244575
-0.0372461
0.902454
-0.499781
0.432336
0.721186
-0.36663
0.185946
0.180684
0.211672
-0.450921
0.712893
-0.0457147
0.517462
-0.203701
-0.651374
-0.104051
0.755425
0.164171
-0.0319346
-0.132237
0.114808
0.0921333
0.128798
-0.885193
-0.253782
0.274809
0.655693
-0.572021
-0.0836713
0.142648
0.337246
-0.127069
0.0680941
0.217899
0.21902
-0.436919
-0.474364
0.957975
0.241538
-0.536889
1.11627
-0.579381
-0.273634
0.40559
-0.36083
-0.0482781
1.0498
-0.514243
-0.324621
0.296378
0.316885
0.268315
-0.278861
-0.137333
0.117049
-0.267272
-0.117066
-0.00179136
0.587829
-0.133191
0.761626
-0.628436
0.0829971
-0.0662821
-0.330434
0.0792602
-0.28738
-0.0125903
-0.85054
0.584761
0.209794
0.217082
-0.000128427
-0.24708
0.247209
0.274044
0.0401385
0.786789
0.428492
-1.21528
-0.077919
-0.0194809
0.0973999
0.0761374
-0.404638
0.846821
0.44949
0.734008
-0.666172
-1.11574
0.119544
-0.00561319
-0.156791
0.433507
0.869752
0.0112037
-0.880956
0.331915
-0.0262635
-0.0317462
-0.294576
-0.0720539
-0.481326
-0.442019
0.512572
0.0172912
0.429648
0.535324
-0.544152
0.008828
0.158803
0.00770579
-0.0606685
0.219595
-0.0314949
0.686945
0.17322
-0.860165
0.00441307
0.0982206
-0.197152
0.119682
0.0774701
-0.306603
0.00245212
0.304151
0.325933
0.517423
-0.843356
0.20883
0.257188
0.646132
-0.0154605
-0.231597
0.580334
-0.672913
-0.041214
0.0541781
-0.0129641
-0.928162
0.51105
0.778538
-0.62421
-0.154328
0.0113668
-0.113054
0.101688
0.773403
-0.846752
0.494881
-0.0749665
0.300298
0.441406
-0.103556
-0.0135101
-0.28937
0.0756391
0.213731
-0.552573
-0.0994814
0.998913
-0.5102
-0.488712
0.562407
-0.0756872
-0.48672
0.368611
-0.635803
0.267191
0.000808959
0.470443
-0.00907147
-0.232422
0.6182
-0.385778
-0.197614
-0.0917565
-0.2754
-0.173437
0.185154
0.672283
0.00696396
-0.679247
-0.303782
-0.149612
0.0408813
0.051474
-0.00459448
0.48586
0.233971
-0.117559
0.150994
-0.00692261
0.0739313
-0.133964
0.131889
-0.350127
0.501768
0.0127815
0.192097
-0.058306
-0.28964
0.696971
-0.0411746
0.576498
-0.123513
-0.0914921
-0.21669
0.434589
-0.188206
0.825116
-0.63691
-0.744631
-0.0984505
-0.49161
0.817838
-0.326228
-0.210025
0.0365879
0.273779
-0.0570797
-0.0189156
-0.204361
0.223277
-0.76284
0.248597
0.0839949
-0.103162
0.453185
-1.11953
0.319887
-0.881753
-0.238666
0.773163
-0.369756
0.448769
-0.229749
0.0126859
-0.592512
0.710251
0.000737921
-0.127418
0.134191
-0.488387
-0.0809877
-0.550108
0.631095
0.156349
0.374944
1.17341
-0.768917
-0.40449
-0.193771
0.0566736
0.177711
0.0195706
-0.197282
-0.719213
0.13262
0.149205
0.0290581
-0.00588285
-0.100057
0.10594
0.375374
-0.866984
0.0757465
0.400648
0.0217216
-0.42237
-0.911793
0.723587
0.117223
0.0322322
-0.149455
0.295509
-0.899585
-0.114783
-0.0024901
0.117273
0.150121
-0.0328983
0.00083505
0.645189
-0.494227
0.539553
0.435909
-0.227079
-0.794744
0.235771
-0.60626
0.481528
0.124732
0.474773
-0.978612
-0.439205
-0.269997
0.709202
0.0762719
0.341816
-0.2594
0.214009
1.03568
-0.142229
-0.893456
-0.00286456
-0.830073
0.674512
0.0663012
0.372556
0.415892
-0.129358
-0.00392722
0.114757
-0.252706
-0.28832
0.0591055
-0.0562336
-0.0028719
0.0222158
-0.675526
0.65331
-0.0393805
0.23625
-0.19687
0.313769
-0.830015
0.516246
-0.100263
-0.480042
-0.0299251
0.0348704
0.603733
-0.293216
-0.170004
0.463219
-0.309383
-0.3642
0.38336
-0.221986
0.190157
-0.24606
0.0559033
-0.289751
0.289623
-0.787313
-0.120936
-0.0141751
0.135111
0.101546
0.273533
-0.375079
0.599291
-0.513254
-0.0860373
0.0107892
-0.481169
0.146575
-1.09046
-0.423766
-0.621177
1.04494
-0.847351
0.0369764
0.810374
-1.16584
-0.703015
0.0150972
-0.228262
0.236167
-0.00790496
-1.03801
-0.310493
0.997438
0.322945
-0.169273
0.0691413
-0.285831
-0.148123
0.40531
0.121633
0.0682142
-0.324324
0.0126947
-0.0977627
0.085068
-0.207136
0.0781857
-0.0654681
0.0768349
-0.224675
0.453026
-0.894315
0.570306
0.324009
-0.287096
0.329684
0.535968
0.163812
0.000359075
-0.220678
0.203024
-0.425239
-0.221283
-0.469193
0.169617
0.299576
0.10841
0.101686
-0.210096
-0.341633
0.435199
-0.0617418
0.628295
0.646111
-0.572853
0.490322
-0.799705
0.383529
-0.517757
0.134228
0.0791379
0.00135668
-0.26542
-0.00718903
-0.936477
0.538204
0.0928969
0.46951
0.0135963
-0.160961
0.147364
-1.32702
0.546611
-0.13349
0.0828926
-0.160101
-0.0166719
-0.182766
0.199438
-0.480853
0.187637
-0.959085
0.848469
0.885883
-0.435642
-0.14656
0.131051
0.015509
0.0753292
0.15696
-0.120666
-0.967239
0.350074
0.617165
-0.111434
0.0919527
-0.0562861
0.230474
-0.174188
0.308822
0.186059
0.0802114
-0.105366
0.025155
-0.216303
0.229084
0.0283664
0.0717615
0.503066
-0.736721
0.937055