/*--------------------------------*- C++ -*----------------------------------*\
| =========                 |                                                 |
| \\      /  F ield         | OpenFOAM: The Open Source CFD Toolbox           |
|  \\    /   O peration     | Version:  2306                                  |
|   \\  /    A nd           | Website:  www.openfoam.com                      |
|    \\/     M anipulation  |                                                 |
\*---------------------------------------------------------------------------*/
FoamFile
{
    version     2.0;
    format      ascii;
    arch        "LSB;label=32;scalar=64";
    class       volVectorField;
    location    "5.25";
    object      U;
}
// * * * * * * * * * * * * * * * * * * * * * * * * * * * * * * * * * * * * * //

dimensions      [0 1 -1 0 0 0 0];

internalField   nonuniform List<vector> 
13486
(
(1.38812 -0.178211 6.12235e-19)
(1.65979 0.307713 2.85884e-19)
(2.45858 0.0278341 0)
(0.372954 -0.240286 -5.44477e-20)
(2.27757 -0.542682 2.10807e-19)
(2.46115 0.128598 2.18976e-20)
(2.49893 -0.465984 4.70078e-21)
(1.93998 -0.715351 -3.30389e-19)
(1.89183 -0.381631 0)
(2.02901 0.772899 0)
(-1.15396 0.515254 -2.13711e-18)
(2.55241 -0.0674587 0)
(1.24702 -0.399291 -6.06123e-19)
(2.51329 0.735065 3.93211e-20)
(2.39674 -0.389834 1.12017e-19)
(1.98513 0.76397 -1.67811e-19)
(0.436788 -0.227161 8.61593e-19)
(1.32221 -0.423831 5.03482e-20)
(2.25174 -0.0097575 3.01764e-21)
(1.59364 -0.0247257 -6.18464e-19)
(0.686849 -0.534964 -1.93995e-20)
(1.26692 -0.414123 7.81814e-19)
(1.68305 0.305352 -2.28525e-19)
(2.77654 -0.981752 0)
(2.06985 0.605316 5.50503e-20)
(2.7184 -0.908332 -1.65252e-19)
(-1.80559 1.3911 1.26674e-18)
(2.58013 -0.142941 4.30401e-19)
(2.04164 0.0362188 0)
(2.34673 -0.3706 -2.49529e-19)
(0.863111 -0.657952 -1.24604e-20)
(2.48521 -0.276859 -1.4121e-19)
(3.00845 -0.308767 4.05879e-19)
(2.06605 -0.0803344 0)
(1.94974 -0.68986 0)
(1.82772 0.00753913 -2.84765e-21)
(1.91838 0.130216 7.20381e-21)
(1.43699 -0.680541 3.12957e-19)
(1.71193 0.0109831 -7.91325e-21)
(1.92843 -0.220808 3.1375e-19)
(2.30169 -0.79747 0)
(0.836171 -0.414978 -7.0244e-19)
(2.01098 0.00475137 0)
(2.081 0.51582 -2.65997e-19)
(2.10168 0.512336 1.09594e-19)
(2.54945 -0.0652614 9.16688e-20)
(-0.0369198 2.02595 1.46548e-18)
(2.03529 0.0376531 -8.15638e-22)
(1.922 0.124576 -5.39706e-21)
(2.6759 -0.0298106 2.02407e-19)
(1.99983 0.0339913 3.50198e-19)
(1.79213 0.0139007 0)
(2.61339 -0.160887 -1.21658e-19)
(1.59388 -0.591075 -4.56868e-19)
(1.34052 -0.488821 0)
(2.24845 -0.547672 -1.40272e-19)
(2.11166 0.169689 -1.18263e-20)
(1.78566 0.0066955 -3.54361e-20)
(2.98205 -0.293313 4.67362e-19)
(1.92569 0.211378 0)
(-0.883581 -0.363565 -2.31667e-18)
(1.93212 0.206441 0)
(3.69984 0.334038 -5.10025e-19)
(0.724042 -0.54567 -1.9214e-22)
(1.65386 -1.27473 0)
(1.92365 0.14492 4.06706e-21)
(0.284112 -0.237815 -6.92229e-20)
(1.39033 0.0914388 2.05745e-19)
(1.89174 -0.405906 -1.81431e-19)
(1.81473 0.00856801 3.38863e-21)
(0.220547 -0.164681 7.94124e-20)
(1.34654 -0.465618 1.39647e-21)
(1.95845 -0.0933399 2.31202e-19)
(-1.00395 -0.506764 -7.00816e-19)
(1.94729 0.16388 1.17965e-21)
(2.11714 0.165126 2.78162e-21)
(1.95229 0.154797 -4.20931e-21)
(2.39841 -0.409661 -4.57808e-20)
(0.0735838 2.39291 -9.85046e-19)
(1.71446 -0.356168 0)
(2.0204 0.00596379 2.18268e-21)
(1.59856 0.410084 -1.81411e-20)
(3.98648 0.306763 4.31924e-20)
(2.55233 0.0725988 -9.33082e-21)
(1.38149 -0.194427 -1.19855e-18)
(1.3501 1.76378 0)
(1.46832 -0.540085 -7.01766e-20)
(2.00062 0.0505348 -5.25148e-19)
(1.86363 0.232544 -2.31787e-19)
(1.88311 1.05293 -1.74934e-19)
(2.54974 -0.264446 -7.89582e-20)
(2.0672 -0.618885 -1.73916e-19)
(1.45456 -0.292371 1.58393e-19)
(1.62721 0.106262 1.60372e-20)
(1.79854 -0.571172 7.36811e-20)
(2.02751 0.0323893 2.32643e-22)
(-2.23314 1.61184 0)
(0.0995442 -0.4399 6.29435e-20)
(1.94484 -0.221777 -5.98819e-19)
(0.242956 0.107567 -1.41447e-21)
(2.00361 0.0143193 0)
(2.47428 0.734343 1.09543e-20)
(0.08722 -0.503072 1.05735e-20)
(1.78708 0.0124527 4.12402e-20)
(1.32331 1.71524 0)
(-0.170514 0.698275 -6.12838e-21)
(1.96675 0.0710716 7.42809e-22)
(1.69292 -0.0123822 -1.8507e-20)
(-0.0130243 2.4304 1.12599e-18)
(1.701 -0.776017 0)
(1.20157 -0.579793 0)
(2.51971 -0.34313 -1.26888e-19)
(1.60287 -0.572367 3.28039e-21)
(2.12308 0.0970653 9.74681e-22)
(1.02885 -0.00762158 0)
(1.15157 -0.572299 -2.77036e-19)
(2.06908 0.622898 0)
(2.15459 -0.0645884 0)
(1.94773 -0.0946709 0)
(1.93616 0.0993819 3.75574e-21)
(1.34538 -0.413598 -1.93857e-20)
(-1.11643 -0.178628 0)
(1.77024 -0.512011 0)
(1.70736 0.00241428 2.60567e-20)
(1.84154 -0.665053 0)
(1.79419 0.0218026 0)
(2.17045 -0.279492 6.94439e-21)
(2.20235 0.0694063 9.34523e-20)
(1.90403 -0.0308497 -3.67968e-20)
(1.72551 -1.07529 -7.89011e-20)
(1.79396 0.0238754 -3.8822e-21)
(-0.0824329 1.88273 -3.62641e-19)
(0.58404 0.0607805 1.18833e-18)
(-0.470499 0.208179 9.13307e-19)
(1.99921 0.0170825 -5.75277e-20)
(1.90855 0.437499 -2.57516e-19)
(0.591032 0.808896 -1.65655e-19)
(1.72777 -0.774995 0)
(1.938 0.0928774 -1.19263e-21)
(1.96809 -0.578595 -1.17604e-19)
(2.88647 -0.0998327 -4.22948e-19)
(2.60447 -0.174988 1.01833e-19)
(2.50387 -0.207354 0)
(1.71866 -0.342878 0)
(2.09726 0.000993267 3.92751e-21)
(4.35495 -0.332982 -1.20111e-18)
(2.61624 -0.195744 3.48439e-20)
(0.227951 1.82039 0)
(2.69829 -0.0340239 0)
(2.04085 0.0332668 0)
(2.01159 0.0243629 5.1476e-21)
(2.39149 -0.473273 0)
(2.02592 -0.00419995 -2.29125e-21)
(1.57557 0.409097 -1.53949e-19)
(2.20927 0.315672 0)
(2.50147 0.0609095 0)
(1.50442 -0.69041 0)
(0.164078 -0.153209 -2.45045e-20)
(1.6977 -0.69295 6.54663e-19)
(2.05042 0.509878 3.00523e-21)
(2.56453 -0.0114665 1.21085e-19)
(1.70391 -0.671896 -9.94417e-19)
(2.36211 -0.249536 4.86067e-20)
(0.741752 -0.353839 3.08688e-19)
(1.79187 0.00910124 0)
(2.61975 0.695097 -9.23585e-20)
(2.4147 0.676536 -1.64132e-20)
(0.379814 -0.0875093 -7.32176e-19)
(2.66986 -0.159637 -1.06392e-19)
(-0.463129 0.171602 2.44053e-19)
(0.137725 -0.101812 1.26868e-21)
(2.20304 0.29112 8.07857e-20)
(1.99784 0.0971934 -4.20817e-19)
(2.3174 -0.227611 1.05691e-20)
(2.01209 0.0166515 4.80265e-22)
(-0.106864 -1.86139 0)
(2.50523 1.06043 1.18511e-19)
(3.027 -0.0957606 5.89323e-19)
(1.97464 0.0636647 -5.77496e-19)
(2.50259 -0.192997 0)
(1.97174 -0.28164 6.36399e-19)
(2.11921 0.0906144 1.92771e-21)
(2.39469 -0.213541 -4.82521e-21)
(-2.19384 0.981344 0)
(2.61934 0.118176 1.73988e-20)
(2.46303 -0.135126 -1.96084e-19)
(2.06269 0.0330667 -3.49368e-22)
(2.34549 -0.229713 -7.79783e-20)
(2.35331 -0.788329 0)
(1.03121 -0.499768 -3.54791e-19)
(1.93319 0.115092 0)
(2.24687 0.0275447 0)
(1.77221 -0.0228007 0)
(1.28023 0.892705 -3.15142e-19)
(1.78954 -0.0595636 0)
(-1.33008 0.921086 -5.5352e-19)
(1.67304 -1.14418 1.86456e-19)
(2.45577 -0.0187329 6.76436e-20)
(1.05353 -0.522072 -1.35289e-19)
(2.58882 0.660697 -4.25968e-20)
(0.855062 -0.694544 1.48393e-20)
(2.21397 0.0855896 -2.74765e-21)
(1.31297 -0.638552 -3.6164e-19)
(1.57674 -0.693716 6.36262e-20)
(2.04445 0.474518 -3.62803e-21)
(1.80149 -0.0553372 -3.64251e-20)
(1.21817 -0.477662 1.65333e-20)
(1.87648 -0.0346792 4.70292e-19)
(1.76554 -0.0245915 0)
(2.59908 0.12205 0)
(2.52851 -0.132191 2.84897e-19)
(2.33295 -1.03905 2.38941e-19)
(1.61132 -0.00839166 5.6602e-19)
(1.96023 0.0680201 1.04367e-21)
(2.46223 0.174136 -2.52274e-20)
(1.90509 -0.479998 2.4492e-20)
(2.39672 -0.335108 0)
(1.87846 1.0376 4.60465e-19)
(1.53752 -0.318143 0)
(3.22904 0.609168 0)
(0.413974 -0.151434 -1.65296e-18)
(2.72981 -0.0133771 0)
(1.95109 -0.572866 2.73819e-19)
(2.56192 0.00648171 0)
(2.67066 -0.168259 -1.72985e-20)
(1.22357 -0.57718 2.1895e-19)
(2.59921 0.298384 -6.45162e-21)
(0.687464 -1.05981 2.38124e-20)
(1.89232 -0.31386 3.45703e-21)
(1.34904 -0.485875 6.6623e-21)
(1.98141 -0.274532 -2.043e-19)
(1.12156 -0.228962 1.22446e-20)
(2.91185 -0.149937 5.30847e-19)
(0.859032 -0.415884 2.40183e-19)
(0.395981 -0.683639 0)
(1.02684 -0.50131 2.59458e-20)
(2.24983 -0.16757 1.29044e-19)
(2.26063 0.0130002 -6.90044e-21)
(0.893699 -0.433282 7.01548e-19)
(2.38728 -0.133582 0)
(3.00003 -0.37256 0)
(2.00533 0.0684718 6.41899e-19)
(2.14946 0.0766725 0)
(0.899638 -0.448235 2.34757e-19)
(1.62183 0.0380994 -1.59372e-20)
(1.78973 0.0942293 0)
(2.3055 -0.0200025 -4.47496e-20)
(2.52023 -0.660378 4.86502e-19)
(0.0254001 -0.448379 1.50538e-18)
(2.0457 0.498131 0)
(-0.939711 -0.468935 -8.38389e-20)
(0.99095 0.0240843 8.76176e-20)
(0.964236 -0.474592 3.51275e-19)
(1.69406 -0.0249956 0)
(1.80627 -0.292875 2.74111e-20)
(-0.282369 -1.97885 1.05702e-19)
(2.48893 -0.275498 1.13806e-19)
(1.88031 -0.487724 -3.09828e-20)
(0.0937806 -0.121843 2.56865e-20)
(2.96307 -0.363968 3.12123e-19)
(1.76551 0.248907 0)
(1.63243 0.0570854 2.10128e-22)
(2.40098 -0.398145 -2.62738e-19)
(-0.202409 -1.85301 -1.32747e-19)
(2.17327 -0.730547 -2.18676e-19)
(-2.18093 0.956619 0)
(1.90568 -0.305206 -6.47497e-20)
(0.776253 -0.681439 -2.10557e-20)
(2.08102 -0.00581786 -2.67003e-19)
(1.4834 -0.371427 0)
(1.54532 0.965217 2.19318e-19)
(1.97109 0.0763706 -1.56077e-19)
(2.4149 -0.350637 0)
(2.59885 -0.0951072 7.01803e-20)
(1.14977 -0.554802 2.90229e-19)
(2.48477 -0.620115 -2.7099e-19)
(1.81088 -0.27139 0)
(1.44787 -0.673279 0)
(1.68743 -0.0610099 -2.18905e-20)
(2.57057 -0.191086 -5.13567e-20)
(1.46217 -0.704566 4.88231e-20)
(2.09732 -0.198543 -2.31058e-19)
(1.93532 0.0978626 3.40881e-19)
(3.50362 -1.24781 -5.34416e-19)
(-1.67974 0.105959 2.49465e-18)
(-1.3445 1.6733 1.84281e-18)
(2.90201 -0.0449148 4.58871e-19)
(1.85085 -0.043363 4.82588e-20)
(2.72807 -0.157209 2.27313e-20)
(2.07039 0.000987189 0)
(0.443678 -0.644702 0)
(1.75652 0.272836 1.54386e-21)
(1.18672 -0.575192 2.70671e-19)
(1.99757 0.0252935 -5.66507e-20)
(2.24509 -0.160087 1.19469e-19)
(2.29671 -0.200795 0)
(2.01099 -0.0376508 -1.55941e-19)
(2.61333 -0.0655382 -5.14368e-20)
(1.92174 0.0775195 -3.13399e-19)
(2.47567 -0.583355 8.6739e-20)
(1.97604 -0.21194 -5.92429e-20)
(1.2381 -0.474505 2.41269e-21)
(2.63296 -0.1469 4.42219e-20)
(2.47095 -0.281507 1.33966e-19)
(1.91509 0.0933768 -5.99088e-22)
(1.28749 -0.592735 0)
(0.379847 -0.0949194 0)
(2.28131 -0.0363605 9.18681e-20)
(1.41805 -0.422037 5.21975e-20)
(1.92943 0.122233 0)
(2.13755 1.40486 -1.65851e-18)
(0.32026 -0.194381 0)
(2.3974 1.05323 -2.2117e-20)
(2.52426 -0.338519 -1.27879e-19)
(3.0964 -1.45555 0)
(1.89503 0.430336 -1.57717e-19)
(1.7731 0.301282 -1.77738e-21)
(1.86442 0.219304 -1.98448e-20)
(1.87712 -0.0292942 -5.16845e-19)
(1.95031 -0.320232 0)
(1.9281 0.139205 -7.53191e-21)
(1.74033 0.200261 1.20216e-22)
(1.98353 0.062753 7.29223e-20)
(1.60398 0.146857 -2.99557e-19)
(0.700003 0.782308 3.09537e-19)
(2.53605 -0.26314 1.48541e-19)
(2.20588 -0.390855 -6.56381e-19)
(2.10982 -0.197995 0)
(2.67773 -0.00739753 3.26255e-21)
(2.24045 -0.402075 -1.20674e-19)
(2.00085 0.0360662 7.6164e-19)
(2.09199 -0.623002 0)
(2.52673 -0.279746 -3.43595e-20)
(1.43274 0.406977 0)
(2.4987 -0.477104 -2.10678e-19)
(1.86773 -0.535701 -2.01647e-19)
(0.653747 -0.304118 2.85162e-19)
(2.3703 -0.488046 -1.81448e-19)
(2.02517 0.202093 0)
(1.61015 0.0818215 -2.19281e-20)
(1.92986 -0.318502 7.03625e-20)
(1.61422 0.156765 2.82863e-19)
(2.25565 -0.40994 4.69501e-19)
(2.38775 -0.218247 2.15614e-19)
(-2.32345 0.434939 -9.72385e-19)
(2.03586 0.0354048 1.50106e-22)
(2.21767 -0.212493 0)
(0.981202 -0.331504 6.89447e-19)
(3.23323 0.583527 0)
(1.72818 0.270765 3.39564e-22)
(2.24322 -0.117478 3.81846e-19)
(2.65869 -0.0459481 -4.28986e-20)
(2.61239 -0.0898247 5.07569e-20)
(-2.39185 1.6172 -1.50069e-18)
(1.9291 0.0778856 3.91543e-19)
(2.00739 0.0106861 0)
(-0.828266 -0.315018 -6.48104e-19)
(2.18165 -0.285018 -1.36511e-19)
(1.36528 -0.366065 -2.55937e-20)
(2.32467 -0.95484 2.17916e-19)
(2.48879 -0.0143441 0)
(2.61116 -0.266261 9.29829e-20)
(1.78895 0.173599 6.02109e-19)
(1.96531 0.0829732 4.7449e-19)
(2.36754 -0.38062 0)
(2.02816 -0.00492859 -5.38803e-22)
(2.28949 -0.191033 -1.21203e-19)
(-0.208801 1.3163 2.07531e-19)
(1.57855 -0.0263478 7.86688e-20)
(2.17903 -0.245117 1.29768e-19)
(2.04292 0.0145849 -2.15813e-21)
(2.2085 -0.20044 0)
(2.66391 -0.163495 -5.13892e-20)
(-1.22011 -0.450148 1.33319e-19)
(2.45976 0.377158 3.78522e-20)
(1.99756 0.0323209 2.96043e-19)
(1.37362 0.029734 0)
(1.66667 0.194281 -1.51285e-20)
(3.36558 -1.49025 0)
(3.53561 1.02541 -3.47028e-19)
(2.07759 -0.0251895 0)
(2.08095 -0.705843 -6.07924e-21)
(1.29519 -0.0712804 -1.68191e-19)
(1.53204 0.890951 5.32929e-19)
(-0.107632 1.37108 -7.07113e-19)
(1.83894 -0.266634 0)
(2.3747 0.057845 -3.94201e-20)
(2.03329 0.208914 -1.63911e-19)
(0.804759 -0.236336 -5.42642e-19)
(0.902011 -0.546891 5.73362e-22)
(1.63639 -0.0203981 -8.54402e-19)
(2.47886 -0.321356 1.31439e-19)
(2.10246 0.198507 1.10588e-19)
(1.43537 -0.438031 0)
(1.3563 0.343829 3.20295e-19)
(1.9514 0.0905165 4.37478e-21)
(0.31727 -0.217981 3.24336e-20)
(-1.17496 -0.299362 -4.11544e-19)
(0.657232 -0.22759 -1.04546e-18)
(2.91793 -0.0524479 0)
(0.840031 -0.219847 0)
(2.07077 1.20933 0)
(2.07293 -0.0789181 0)
(0.632692 -0.162055 -1.75173e-20)
(2.48839 -0.447795 0)
(1.69786 -0.405933 0)
(1.64452 0.122645 1.16641e-19)
(3.00326 -0.0889099 -6.10467e-19)
(2.18408 -0.188084 -3.12429e-19)
(1.70014 0.352444 9.69338e-19)
(2.00548 0.0240869 -8.46084e-20)
(2.46858 1.75706 0)
(2.56894 -0.281522 0)
(1.92055 0.0792726 3.34359e-19)
(2.01999 0.0519537 5.92296e-20)
(1.29418 0.95019 0)
(-2.01259 0.847881 8.21456e-19)
(2.157 -0.74326 2.46104e-19)
(-0.48948 -0.639684 0)
(2.37853 -0.136193 2.11129e-19)
(1.97296 0.0656434 -3.86606e-19)
(0.612168 -0.185674 -4.11093e-20)
(0.975339 -0.314447 0)
(2.01544 0.213144 3.09843e-19)
(2.60671 0.135296 0)
(2.32201 -0.224609 0)
(2.22794 0.192003 -1.25014e-20)
(1.92911 0.100252 1.78376e-19)
(-1.91036 1.41654 -1.65443e-18)
(2.36766 0.671965 1.13913e-20)
(1.31391 -0.318846 -3.0029e-19)
(2.07488 -0.0674778 3.97886e-20)
(2.10692 0.191737 8.5507e-20)
(2.74503 -0.149701 1.19366e-19)
(2.24455 -0.730388 0)
(2.63287 -0.589287 2.63649e-19)
(1.30194 -0.00438552 0)
(1.7211 0.245522 3.42215e-21)
(2.29689 -0.232643 0)
(1.41622 0.101361 4.34804e-19)
(-0.276787 0.949691 -1.43297e-18)
(2.44547 -0.308318 0)
(-0.17209 0.305029 4.22485e-20)
(2.5637 -0.311585 -3.04049e-19)
(0.888361 0.0586053 -2.26238e-19)
(1.74979 -0.241152 8.22868e-19)
(1.41976 0.878723 -3.36288e-19)
(1.3053 -0.306253 -8.52725e-19)
(3.61628 0.99098 0)
(1.9282 0.0996101 -2.99392e-21)
(-2.29119 0.290787 -2.51474e-18)
(2.02088 0.22247 0)
(1.84543 0.247275 2.1607e-20)
(2.72525 -0.0463824 -4.24516e-20)
(2.83606 1.07617 0)
(2.00335 0.0209964 0)
(-0.830708 0.212263 0)
(0.0332714 -1.93556 3.66357e-19)
(3.49407 -1.49881 6.46282e-19)
(3.98641 -0.472775 8.20715e-20)
(2.35747 1.01175 0)
(1.69254 -0.136528 5.56539e-19)
(2.0081 0.0159025 -1.30752e-21)
(2.35847 0.611202 -1.35235e-20)
(0.63979 -0.439867 3.48222e-20)
(1.91049 0.177791 0)
(2.03673 0.0360882 0)
(0.698906 -0.0713632 -4.64824e-19)
(1.40841 -0.428935 -2.10514e-19)
(1.93235 -0.158354 0)
(1.23634 -0.602007 -2.67583e-19)
(2.04349 0.0143107 2.38825e-21)
(2.02804 0.0276341 -4.22864e-22)
(0.738812 -0.340231 0)
(1.87296 -0.0318597 4.61496e-20)
(1.94212 0.0884432 -3.49859e-21)
(2.59888 0.119367 1.33102e-19)
(1.85326 -0.55455 0)
(-1.40894 1.86272 -2.84788e-18)
(2.62458 -0.0666895 5.60948e-20)
(2.0033 0.096784 6.67738e-20)
(1.96509 0.0257244 -1.46774e-21)
(2.67847 0.664929 0)
(1.67401 0.345969 -2.58195e-19)
(3.14327 0.367498 -2.52105e-19)
(0.534272 -0.265823 2.25835e-19)
(2.00983 0.0549756 0)
(0.878839 -0.562708 -5.84413e-22)
(0.426163 -0.0520971 0)
(2.00743 0.0535142 -2.56513e-19)
(1.98921 0.0776202 1.16311e-19)
(1.86764 0.0622727 -6.54279e-20)
(-0.268841 -1.80478 0)
(2.28732 0.0372846 -1.87505e-20)
(1.07261 0.518629 8.73367e-19)
(2.21762 -0.724848 0)
(1.61206 0.108749 3.64562e-19)
(2.45173 -0.590919 -9.87815e-20)
(2.19263 -0.0174055 0)
(0.750414 -0.72162 1.31086e-20)
(1.71198 -0.324006 -5.16568e-20)
(2.05475 0.00434957 0)
(-0.736628 1.62899 1.65184e-18)
(1.83402 0.233196 0)
(1.6525 -0.760607 2.68128e-19)
(-0.932663 -0.586232 2.29275e-19)
(2.06407 0.0425817 3.74331e-22)
(2.48035 0.138674 -6.36567e-20)
(1.34516 0.328089 1.70149e-19)
(1.7425 -0.270295 -3.03539e-19)
(1.84087 -0.244581 -2.91569e-20)
(1.69754 -0.772019 2.62739e-21)
(2.15933 -0.247561 1.25651e-19)
(2.67065 0.674142 1.91199e-19)
(1.76363 -0.789873 0)
(1.9967 0.0289094 -2.625e-19)
(-0.36474 -0.462607 -6.1697e-19)
(1.32469 -0.0147015 0)
(1.97265 0.109434 2.27422e-21)
(1.77242 0.00493193 0)
(1.19627 -0.333557 7.35886e-19)
(2.04975 -0.76678 0)
(1.90767 0.00586272 2.6086e-21)
(2.25472 -0.111211 -2.17417e-19)
(0.752054 -0.813234 2.71549e-20)
(-0.575262 0.0648201 2.19471e-19)
(2.39444 -0.0158568 -1.83833e-21)
(1.26024 -0.598507 2.47379e-19)
(1.75616 -0.505698 2.94197e-19)
(1.45038 -0.301378 0)
(-2.39788 1.18762 -7.8928e-19)
(2.2652 -0.676617 -5.1034e-20)
(-2.61805 1.37898 -9.80266e-19)
(2.0313 0.0333536 1.83935e-22)
(1.42462 -0.553212 0)
(2.23063 -0.0205536 -1.16297e-21)
(-2.05685 0.841004 0)
(0.0167665 -0.571023 1.03684e-20)
(0.777201 -0.244671 5.27216e-20)
(0.0299656 -0.091145 0)
(2.02786 -0.540584 8.75252e-20)
(1.6134 -1.21724 0)
(2.84389 0.980698 0)
(1.42059 -0.675445 -3.53539e-19)
(1.46136 0.375291 2.59327e-19)
(1.6398 -0.423131 0)
(1.80241 0.197507 -1.64417e-19)
(4.15384 -0.248917 1.36562e-18)
(-1.4383 -0.431422 8.01136e-19)
(2.87029 1.38439 0)
(2.18021 -0.0448189 0)
(-2.36188 0.428466 -1.22818e-18)
(1.85972 -0.0863405 0)
(2.60991 0.0661881 0)
(-0.646159 -0.746578 -8.27633e-20)
(2.03172 -0.394187 -4.15949e-19)
(1.71848 -0.407662 2.53351e-19)
(2.94657 -0.455962 4.45993e-20)
(-2.4832 1.18673 1.64562e-18)
(1.98932 0.0648442 1.33299e-19)
(1.48785 -0.333378 0)
(2.20492 0.478915 -3.90606e-20)
(1.3732 -0.157908 0)
(2.32296 0.0388086 0)
(2.00138 0.121406 0)
(2.2223 0.175378 -1.02866e-20)
(1.86123 -0.0240551 2.40329e-19)
(2.13503 0.0475241 -5.99978e-21)
(1.53089 -0.339129 0)
(-2.03074 1.33647 -1.18612e-18)
(2.1011 1.15345 4.20122e-20)
(1.83869 -0.679065 2.82418e-20)
(1.95626 -0.0646973 -7.71232e-20)
(2.44549 -0.608648 4.28593e-19)
(2.03725 0.0651025 -2.23313e-19)
(-0.135514 0.673773 0)
(2.60721 -0.0742005 0)
(1.43722 0.896139 0)
(1.18578 -0.536646 -5.29255e-19)
(1.13891 -0.966564 -5.25912e-20)
(0.225563 -0.0743781 0)
(2.22795 0.48842 0)
(2.66447 -0.189848 7.01868e-20)
(1.94607 -0.0260132 -6.27445e-20)
(1.92869 0.643822 2.54361e-19)
(1.56682 -0.682598 0)
(-2.55598 1.62975 -5.82173e-19)
(2.41225 0.0611669 1.47019e-21)
(1.37534 -0.391004 -5.02908e-19)
(2.26216 0.0565209 -5.13308e-20)
(2.35028 0.616954 5.38329e-20)
(2.40155 -1.58185 2.49864e-19)
(1.18414 -0.539846 9.24552e-19)
(1.84979 -0.701113 1.13806e-19)
(2.12902 0.0919194 2.27059e-21)
(1.99944 0.0156675 -6.6968e-20)
(1.11794 -0.524894 -8.51226e-20)
(1.71294 -0.308505 2.27516e-20)
(1.68845 2.21737 4.35587e-20)
(1.2557 -0.602113 1.36896e-19)
(2.67837 0.0314627 0)
(1.63391 -0.771166 2.59835e-20)
(2.21104 -0.0429239 -2.1116e-19)
(2.9998 0.658373 1.40058e-19)
(1.34374 -0.353699 -4.58201e-19)
(1.82434 -0.651981 -3.05853e-19)
(1.95532 -0.0128624 6.10551e-19)
(2.38428 -0.0594544 -3.48559e-19)
(1.60091 -0.237524 -1.27802e-20)
(2.91002 -0.023467 -2.36932e-19)
(1.11687 -0.12123 -9.94414e-19)
(2.13112 -0.0264622 -1.58487e-19)
(1.09857 -0.190089 0)
(0.702118 -0.98686 -9.74196e-20)
(1.92818 0.0139106 5.54419e-19)
(1.69146 -0.0069904 -1.61431e-21)
(-1.08463 -0.680209 0)
(1.47826 -0.68145 0)
(2.0528 0.459321 2.21472e-19)
(0.97692 -0.111955 6.16792e-19)
(1.57756 -1.67962 -2.87821e-19)
(2.10308 -0.7023 -1.54113e-19)
(2.2209 -0.405885 3.58266e-19)
(3.28779 0.552015 0)
(2.06769 0.49943 1.17443e-19)
(1.26423 -0.437068 -2.86196e-21)
(2.56328 1.05116 1.39012e-19)
(1.95523 -0.253615 -3.61276e-19)
(-2.45327 1.18937 -2.60853e-18)
(2.41865 -0.574245 -4.1523e-19)
(2.63654 -0.630777 1.45699e-19)
(2.33528 1.24232 0)
(2.05202 -0.309392 -5.17261e-20)
(1.87544 0.0598989 6.01496e-20)
(2.01541 0.0110119 1.33351e-21)
(0.772195 -0.37341 8.46642e-19)
(1.93479 -0.249031 5.40976e-19)
(1.98197 0.446763 -1.61925e-21)
(-1.42724 -0.266917 -4.37875e-19)
(2.25348 -0.123381 -1.41511e-19)
(2.27099 -0.0268737 1.40872e-19)
(-1.74453 0.176909 -3.18968e-19)
(2.46273 1.01529 -1.31315e-19)
(-0.478746 1.11346 -1.78728e-18)
(0.925033 -0.453135 -2.81639e-19)
(2.02327 0.00504351 0)
(2.12206 0.152375 -1.07505e-20)
(-1.05366 -1.42204 -6.17209e-19)
(1.28844 -0.103092 9.05733e-19)
(2.07787 0.0278366 0)
(2.01854 -0.221364 5.31457e-20)
(1.14775 -0.475696 2.09371e-19)
(1.99369 0.0490233 -5.69866e-19)
(-1.84697 0.444694 -6.44707e-19)
(1.64183 -0.417665 -1.34417e-20)
(2.19276 -0.201429 2.1266e-19)
(2.34313 0.0577788 5.33758e-20)
(1.66963 -0.768141 -3.72694e-19)
(2.15364 0.0750914 8.27828e-21)
(1.14053 -1.09513 -1.7349e-19)
(2.12124 -0.0418273 1.98075e-19)
(2.06834 -0.0555999 -1.71845e-19)
(2.16372 0.0938923 -6.82044e-21)
(2.12133 -0.0288316 -3.77011e-19)
(1.08651 -0.483462 -4.04406e-19)
(2.1356 0.0862247 0)
(0.117281 -1.4362 1.51427e-19)
(2.10939 0.0728921 4.30334e-20)
(0.67574 -0.126032 -5.64327e-20)
(2.42383 0.0278426 -4.42322e-20)
(2.16485 -0.418431 -2.19754e-19)
(1.9999 0.0204845 -4.38924e-19)
(2.11727 0.327116 6.46568e-20)
(-1.8677 0.676896 -8.48047e-19)
(2.59728 0.0719358 0)
(1.67265 0.165396 7.69743e-21)
(2.6702 -0.0442863 4.39053e-20)
(1.43374 -0.538182 0)
(2.15705 0.0727853 1.12229e-19)
(2.68683 0.00567003 4.21832e-20)
(2.54922 0.0727202 4.72033e-24)
(2.33109 -0.787457 -2.60333e-20)
(1.82002 -0.0617284 0)
(1.7805 0.384226 4.65505e-19)
(2.06734 0.353117 9.39739e-21)
(1.22957 -0.595887 2.98555e-19)
(2.00371 -0.16322 0)
(1.45678 0.332899 -7.51085e-19)
(1.37967 -0.377552 -2.33035e-20)
(2.61879 1.52493 -3.50442e-19)
(1.12709 -0.14743 9.66867e-19)
(2.08813 0.00892082 9.4606e-21)
(-0.771676 0.118742 2.14665e-19)
(1.92962 -0.0743984 -3.74973e-19)
(2.68718 -0.511748 -3.82861e-19)
(1.77828 0.168685 -3.47795e-19)
(1.99 0.0063627 0)
(1.99931 0.0361051 -2.53244e-19)
(0.109543 -0.108022 8.38004e-20)
(-0.684827 -0.0127556 0)
(2.51356 -1.01995 0)
(2.01441 0.0116017 0)
(0.486106 -0.281637 0)
(2.06719 0.33174 0)
(1.05319 -0.111813 0)
(1.95873 -0.489648 -3.71182e-21)
(3.83617 -0.638898 -6.30269e-19)
(2.62551 0.316882 0)
(1.7591 0.38495 7.02445e-19)
(1.51643 -0.40058 2.26877e-21)
(2.0936 0.207495 6.55953e-21)
(-0.907477 -1.28935 -4.10536e-19)
(1.06988 0.141984 -2.90835e-21)
(-1.88616 0.723364 6.13748e-19)
(1.88051 -0.00128233 -1.42269e-19)
(2.68221 -0.0517298 2.83199e-20)
(2.04249 0.317873 -1.54787e-19)
(1.86939 0.211548 -4.63667e-19)
(2.03001 1.07908 -1.44613e-19)
(3.48496 1.00888 0)
(0.788342 -0.528465 3.12614e-21)
(1.21697 -0.348624 -8.06364e-19)
(2.01095 0.0283539 -7.84265e-19)
(2.27726 -0.684831 -2.96022e-19)
(2.00098 -0.0267212 5.91985e-20)
(2.55034 -0.652439 3.90048e-20)
(2.11225 -0.318411 -4.73371e-20)
(2.0425 -0.530155 -3.03022e-19)
(2.03288 0.183289 1.70651e-19)
(2.14777 1.30568 0)
(1.82973 -0.21068 -2.66646e-20)
(1.67354 0.103368 -1.07116e-19)
(2.51247 -0.421157 0)
(1.71525 -0.0474786 0)
(1.71725 -0.788986 -3.48736e-21)
(-0.585221 -0.0242099 2.01273e-19)
(1.93299 -0.500414 -1.25954e-19)
(1.80846 0.0422808 0)
(1.89707 -0.0404915 -4.91173e-19)
(1.79785 0.241692 -9.0065e-20)
(0.302453 -1.14523 6.97716e-20)
(2.63082 0.0903153 2.14148e-20)
(-1.68578 0.581478 0)
(0.749313 -0.52307 5.48333e-21)
(2.67009 0.0422593 0)
(2.02828 -0.324197 5.4397e-20)
(2.5648 -0.267202 -7.45996e-20)
(1.9999 0.0332548 -2.92641e-22)
(2.43419 0.690451 3.00697e-20)
(2.83266 1.25272 -3.83184e-20)
(1.70921 -0.480498 6.1009e-19)
(1.01579 -0.555623 0)
(1.57978 -1.0108 -1.50546e-19)
(1.53831 -0.515939 0)
(2.67899 0.287879 -6.10051e-20)
(0.244408 -1.07799 1.02488e-19)
(2.4473 -1.00753 2.95369e-19)
(1.66649 0.123033 -9.7045e-21)
(-0.230716 -2.11302 -9.16372e-19)
(1.05504 -0.520569 -3.44746e-19)
(1.26182 -0.357565 -4.68173e-19)
(1.9501 0.0950737 -1.47983e-21)
(1.63342 -0.978272 1.23504e-19)
(1.1286 -0.498398 3.32492e-19)
(1.32326 -0.385727 5.14116e-19)
(1.13635 -0.921684 5.97601e-20)
(1.79054 -1.10008 -9.28487e-20)
(1.81664 -0.574034 3.04435e-19)
(-0.425421 0.928226 9.20714e-19)
(2.16923 0.0124681 4.7771e-21)
(1.51098 -0.415565 6.90775e-22)
(2.37416 0.412917 -1.96641e-20)
(2.2213 -0.567551 0)
(0.46885 -0.252308 -2.05297e-18)
(2.10642 -0.0393817 -2.63702e-19)
(1.99985 0.133243 0)
(2.65042 0.272836 0)
(1.46208 -0.769852 -6.56365e-20)
(2.93248 -0.676181 -4.4032e-19)
(2.45229 0.198549 7.733e-20)
(2.02832 -0.383245 5.45364e-19)
(2.0065 1.03378 1.38701e-19)
(1.46345 -0.0117471 3.91813e-19)
(0.0990742 -1.21581 -1.77974e-20)
(1.80721 0.675372 0)
(1.35657 -0.419561 4.92573e-19)
(0.127836 1.92352 4.63121e-19)
(-0.267345 -1.92199 6.69231e-19)
(1.69427 -0.655492 1.01006e-19)
(1.38069 -0.626928 -7.46443e-20)
(1.77855 -0.00737648 2.03457e-19)
(1.69482 0.0251011 7.84335e-21)
(2.32483 -0.353123 2.64935e-19)
(-0.0190485 -1.2127 -1.02766e-19)
(2.43259 0.194502 -5.48375e-20)
(1.93715 0.0740474 1.9529e-19)
(1.09395 -0.177577 -3.97141e-19)
(1.86438 -0.0630716 3.06739e-19)
(1.58768 -0.260342 0)
(2.46138 0.372133 -5.46203e-20)
(1.97813 0.0673062 4.35706e-20)
(1.43573 -0.265842 -1.57782e-19)
(1.93995 1.97787 9.44935e-20)
(1.78602 -0.559163 2.26202e-19)
(2.06563 0.0231968 8.36101e-20)
(1.34637 0.187694 -5.87212e-19)
(2.49154 -0.428477 0)
(1.70303 0.135441 -1.42653e-20)
(2.27204 0.0756525 6.97716e-20)
(2.00316 -0.0656957 0)
(1.36956 0.0846925 3.36839e-19)
(2.63997 0.0906171 0)
(1.8319 1.98361 -4.59063e-20)
(2.33887 -0.0385998 0)
(1.8298 -0.232816 0)
(2.56513 -0.02373 4.69592e-20)
(2.42346 0.14928 -2.28966e-20)
(2.97057 0.121193 -4.04378e-19)
(1.91778 0.165875 -2.10861e-19)
(1.60368 1.28685 -1.27404e-19)
(2.00392 0.103298 -8.0526e-20)
(2.09528 0.337005 0)
(2.29521 1.12597 -1.53886e-19)
(2.51642 0.128431 8.76677e-20)
(2.00003 -0.310123 -1.11696e-19)
(2.22119 -0.56314 0)
(3.02932 0.644318 2.10373e-19)
(2.30483 1.76398 2.331e-20)
(2.15705 0.00904369 2.0855e-20)
(1.73075 -2.70561 0)
(-0.361874 -0.954639 1.76898e-18)
(2.05409 0.178113 0)
(2.35309 -0.308786 -1.33518e-19)
(0.0731119 -0.324445 0)
(3.26897 0.685917 0)
(1.82186 -0.747085 0)
(2.00753 -0.760702 0)
(-1.64326 1.38769 -3.344e-19)
(0.179017 -1.88173 -7.14479e-20)
(1.84641 -0.0194041 -3.60481e-19)
(0.698906 -0.838831 -3.64902e-20)
(1.21276 -0.527575 0)
(0.777428 -1.08219 -4.34083e-20)
(-0.12267 -0.477389 -1.48686e-18)
(1.454 -0.688389 0)
(1.43628 -0.500641 -5.27665e-19)
(1.95375 0.169991 1.63871e-21)
(2.35825 0.398408 3.96618e-20)
(2.35795 -0.810683 7.75043e-20)
(1.85611 0.200649 0)
(2.16953 -0.703377 0)
(3.42564 0.235927 2.06886e-19)
(1.70618 -0.271553 5.84294e-21)
(1.91012 0.10089 1.46804e-21)
(1.4645 -0.758488 -5.82359e-22)
(1.99855 0.00883112 1.88299e-20)
(2.1192 0.148061 2.796e-22)
(2.03161 0.187041 2.457e-19)
(1.71566 0.19791 5.33487e-21)
(1.86444 -0.513122 0)
(-2.26865 1.84174 0)
(2.14763 0.0673181 0)
(1.91566 0.0108726 0)
(1.7112 -0.285917 2.23468e-19)
(2.77372 -0.0832926 0)
(-1.07939 0.33585 4.13469e-18)
(2.21813 -1.64018 -2.99973e-20)
(1.28846 -0.40312 -7.7206e-19)
(1.50089 -0.382649 -4.588e-21)
(0.259858 -1.52583 -8.78258e-20)
(-0.0234092 0.614157 -2.22779e-18)
(1.89559 0.0381537 6.66255e-20)
(-0.341399 -1.31042 -1.68795e-19)
(1.74412 0.22925 4.60978e-21)
(2.57769 -0.011192 0)
(2.3366 -0.396453 0)
(1.63388 -0.400694 0)
(2.16007 -0.434289 1.16338e-19)
(1.73558 -1.19001 0)
(1.84584 0.679852 0)
(2.00124 0.0128804 0)
(1.74001 -0.412227 2.36224e-19)
(2.0908 0.20576 -2.21941e-19)
(1.82906 0.0175123 0)
(2.01339 -0.500419 -1.24598e-19)
(1.98112 0.194952 -2.44066e-19)
(2.56587 0.949761 -2.91259e-19)
(1.49674 -0.704584 3.16314e-19)
(1.92647 0.719152 -4.22649e-23)
(1.71763 -0.376462 -4.20824e-21)
(1.68232 -0.0408789 2.15945e-20)
(1.84884 -0.305704 -5.46542e-20)
(2.40509 0.15783 3.54453e-20)
(1.92286 0.0897001 4.77894e-21)
(1.80097 0.0955292 -3.39924e-19)
(2.12402 -0.0396156 0)
(0.700108 -0.144168 4.25985e-20)
(1.96116 0.0780936 3.50548e-19)
(1.31376 -0.448368 -2.21416e-20)
(2.10592 -0.298769 -1.37951e-19)
(1.00833 -0.134968 -6.72395e-19)
(2.42197 0.128929 -6.86938e-21)
(3.16649 0.371232 3.62205e-19)
(2.00085 0.09013 0)
(1.90457 -0.656985 2.6345e-20)
(1.78997 0.0541797 -5.93305e-21)
(1.86283 -0.315214 1.0725e-19)
(0.649804 -0.479542 -3.97562e-20)
(2.04743 0.0233927 1.81916e-19)
(2.14477 0.0839197 -2.41134e-21)
(2.0968 0.014332 -7.17091e-21)
(2.13307 0.0487637 0)
(1.4457 -0.32549 0)
(1.31583 -0.634366 3.85828e-19)
(-1.72455 0.471157 6.97597e-19)
(2.03589 -0.00398594 5.08796e-22)
(1.95893 0.0747409 7.01839e-19)
(1.74718 -0.523265 -6.59632e-20)
(1.42282 0.317446 0)
(1.7821 0.12067 0)
(1.5647 -0.320204 -3.02083e-21)
(2.51019 0.0112188 7.38398e-20)
(1.97911 0.69373 3.33713e-19)
(2.49033 -0.183103 0)
(2.0524 0.00257315 0)
(2.06303 -0.59893 4.20954e-19)
(1.98112 -0.141655 2.89611e-19)
(0.0774788 -0.0742026 -5.30294e-21)
(1.79539 -0.0361482 0)
(3.14907 0.616789 2.34279e-19)
(2.15543 -0.627609 -5.30149e-20)
(-1.10232 -1.14298 -8.10981e-19)
(2.00231 -0.0156359 -3.90941e-19)
(3.68643 -0.424162 0)
(3.01019 -0.660745 3.48834e-19)
(2.09888 -2.57626 -7.31568e-19)
(-0.000559215 -0.030162 0)
(1.94347 0.026248 4.12124e-21)
(1.90955 0.127515 -2.28178e-19)
(1.93746 0.00382315 8.89481e-24)
(2.58697 -0.27685 4.32714e-20)
(1.4749 1.23674 5.19058e-19)
(1.86489 0.0468676 0)
(0.997481 -0.355253 -4.28174e-21)
(1.85879 -0.482911 4.9792e-20)
(3.25181 -1.79363 -2.19585e-18)
(2.05886 0.314493 1.83703e-19)
(1.04052 -0.540608 -6.19738e-21)
(2.00891 0.00211958 -8.44892e-19)
(1.98429 0.484014 8.45995e-22)
(1.6425 0.0189675 1.753e-20)
(1.70482 -0.369928 0)
(1.8157 0.0200431 -3.88788e-20)
(1.05585 -0.487505 2.65726e-19)
(2.22692 -0.113097 -4.20438e-19)
(1.98661 0.0660965 -3.17273e-19)
(2.33641 -0.288672 1.22846e-19)
(1.65348 -0.126774 8.14832e-19)
(2.14858 0.00805245 -5.38904e-21)
(1.77548 0.121608 1.97707e-19)
(1.97138 0.115792 7.21171e-21)
(2.9705 -0.45837 -5.08802e-19)
(2.50507 1.08282 -2.06515e-19)
(1.64057 -1.76135 2.22429e-19)
(1.8974 -0.027411 0)
(1.57793 -0.424863 0)
(0.923373 -0.195962 0)
(1.28764 -0.364702 5.97492e-19)
(2.14844 0.0723773 -5.17047e-19)
(1.7792 0.261652 0)
(1.47698 -0.282402 -4.69215e-19)
(1.7782 0.227953 0)
(1.72136 -0.258416 -3.66993e-19)
(1.97942 -0.326523 -1.16369e-19)
(1.83966 -0.480571 -3.34282e-19)
(1.94605 0.0448539 0)
(1.94279 0.0654498 0)
(2.01977 -0.0727201 6.77504e-20)
(2.58916 0.261616 6.4364e-21)
(2.65301 -0.106712 2.00901e-19)