/*--------------------------------*- C++ -*----------------------------------*\
| =========                 |                                                 |
| \\      /  F ield         | OpenFOAM: The Open Source CFD Toolbox           |
|  \\    /   O peration     | Version:  2306                                  |
|   \\  /    A nd           | Website:  www.openfoam.com                      |
|    \\/     M anipulation  |                                                 |
\*---------------------------------------------------------------------------*/
FoamFile
{
    version     2.0;
    format      ascii;
    arch        "LSB;label=32;scalar=64";
    class       volScalarField;
    location    "3";
    object      p;
}
// * * * * * * * * * * * * * * * * * * * * * * * * * * * * * * * * * * * * * //

dimensions      [0 2 -2 0 0 0 0];

internalField   nonuniform List<scalar> 
5098
(
-0.755155
0.413924
0.246868
1.89297
-0.352246
2.11277
0.147151
-0.507359
0.264657
0.165083
-0.364067
0.715568
0.362726
2.38192
-0.248225
0.0311109
-0.35986
-0.428622
-5.69498
-0.366051
1.31692
0.0416705
0.893058
2.90155
-0.446568
2.04363
1.2797
1.37445
-5.50184
0.61738
0.637318
2.54945
1.52787
-0.215179
-0.300676
-2.63997
1.52375
1.53547
2.28957
1.0616
1.85723
-1.29979
2.01687
0.150138
-0.192353
0.563798
-0.378887
2.58479
0.641623
1.92943
0.195399
1.72648
-2.63973
1.39933
2.11474
2.00533
1.44882
1.77819
2.5551
-0.0721532
0.0170169
-0.399726
-0.346187
0.393709
-2.79694
2.40854
0.0014218
0.124123
1.20396
1.69102
1.39881
-0.274547
1.2067
-0.00804356
0.0141248
1.92979
0.0880994
2.06052
0.147912
1.94014
-0.0822835
-2.2504
1.86543
-0.243652
-0.441811
0.557886
3.14216
0.0889632
-0.725255
0.0310645
0.85314
-7.48859
0.717552
1.89454
2.30116
-0.204443
1.6683
2.09302
0.038082
1.22487
-0.478102
2.05324
-0.0440404
0.14233
2.05908
-0.511567
1.32123
0.130339
2.62413
-0.373713
1.79368
-5.53401
1.45078
-7.42717
1.25159
-5.7679
-1.79948
-1.56161
0.0812569
2.87854
1.68458
0.195796
0.120644
-2.2409
-8.4978
-0.370203
1.33022
0.934446
2.33441
-7.76839
-0.830665
2.48835
2.45859
-1.31676
-0.320011
-0.821028
-1.52777
1.27237
2.31694
1.40471
1.73578
-0.249916
1.29141
0.286911
0.574215
0.132668
1.26205
-0.303092
-0.644103
1.07404
-1.09064
-4.498
-0.334701
1.52235
3.16564
2.82335
1.78187
-0.442658
1.8616
-5.254
1.39868
-0.269718
-4.50259
1.72595
-0.41897
0.47901
-0.384076
0.559237
-0.451497
1.77154
-0.227727
1.93344
0.288447
1.38452
0.619114
0.678905
1.82764
-2.33407
1.7918
3.15601
-2.85258
-1.61448
1.66953
-0.417562
1.68102
-0.951807
2.01757
1.49326
1.90515
-7.35234
-5.35701
0.281955
1.1584
0.0039851
0.503462
-7.3676
-2.26592
-0.898982
0.000246658
1.73753
-0.810343
1.71881
-0.195002
0.44538
1.34436
2.8206
-0.526896
2.34546
0.916356
1.14731
1.54176
1.69436
0.259479
0.470195
-0.46594
-5.41531
-0.00650359
-0.390745
-8.10635
0.679798
0.77774
2.03235
0.0867785
0.769788
-5.76467
1.44521
3.08436
1.37763
1.2919
0.239201
1.4118
2.95282
-2.05468
-0.0127641
0.423977
0.449961
0.989181
-3.09715
-1.27807
1.69551
-2.47237
0.222964
0.167525
2.66518
1.27966
0.851351
2.33864
-0.382048
-0.355791
0.83694
0.282679
1.32368
-5.89727
-1.6558
1.56535
-3.85181
-0.320862
0.0958332
2.5474
0.0419339
-0.918112
-3.4808
-0.492054
1.22225
0.0105489
-0.396832
-5.27323
-0.368967
-0.379796
1.72987
-6.68365
0.0260987
-5.3217
-0.557879
2.51866
0.00586028
-1.13946
-1.025
0.667017
1.55601
-0.743115
-0.490373
-5.43851
-0.485908
-0.190623
-0.220471
1.56678
0.149003
0.480718
0.79112
-2.28538
-8.85305
2.66221
-0.163799
1.29073
0.150239
-0.234989
0.57655
1.17877
1.55137
0.1494
-0.547592
1.99446
1.2389
-0.395866
1.51957
-1.91798
0.69861
1.64082
-0.377459
0.879776
-5.88069
2.0717
-0.0298931
0.3196
3.14924
-1.49826
0.0790834
1.03753
2.75747
0.129008
-8.17232
-1.12595
-7.28419
0.0133936
2.32062
0.38331
1.33074
2.59771
0.0755127
1.66868
0.987994
2.31943
0.57678
1.65102
0.187072
0.605945
1.95363
1.25417
1.64136
1.25322
1.72134
0.230871
1.44631
-5.19924
0.0294347
1.33818
-5.64774
-1.5319
0.717494
0.395238
2.72313
2.73278
-0.757608
-0.0427659
-0.624495
-0.721207
0.600495
2.29739
-0.190811
1.35354
1.32976
0.919676
0.0718264
0.119737
2.54512
1.47097
0.886473
0.648047
-4.09276
2.46061
0.0982248
-2.83743
0.0771468
-0.245133
-0.398517
1.69332
0.24919
0.615535
0.0808933
1.41546
-0.371739
1.55505
-0.594199
0.242999
-2.30429
-0.26866
-2.74634
1.82368
-0.0740645
1.23173
0.331049
1.46687
1.79932
0.949098
-3.39139
1.96097
-7.90449
0.480772
-0.373182
-4.08766
2.70394
1.95881
1.37133
-5.72244
0.41723
1.43515
-0.397165
0.237004
-0.659363
1.40167
-0.193975
-3.21447
-0.0137925
-1.74171
0.0771601
1.2431
2.68775
-2.18457
0.693776
1.37865
2.03444
-0.445262
0.761382
-0.610509
-7.777
-0.0137114
-0.240429
-0.189187
1.39944
0.0174491
-5.39288
0.0211667
1.52808
-2.04755
-7.32193
0.190731
0.933113
1.13586
-4.39263
1.776
1.64049
1.01738
-0.357692
1.16886
-1.78644
-1.26471
-0.236175
-5.44728
1.36231
-0.366315
0.921911
1.43263
-0.33935
-0.349486
0.219489
-1.30523
0.648815
1.43179
-2.91025
1.98939
0.0657644
2.68135
-2.62008
1.83084
-0.408914
-6.58321
-1.46107
-0.396634
1.81868
-5.2185
0.605756
-0.157334
-1.2021
1.2524
-6.52493
-5.3068
2.05618
-3.00422
0.813343
0.670753
-0.903612
-8.59769
1.16067
-0.119562
1.60546
0.237331
-0.33074
0.00704784
1.47327
-2.80462
-0.26662
-0.489613
-3.68038
-7.50897
-0.0265906
2.185
-3.47485
2.1063
1.55426
-0.414041
0.905514
-5.38609
-0.439171
-5.32887
-3.98321
1.0048
0.865194
-3.07926
-0.187438
-8.8266
1.39129
1.53346
0.442321
0.688176
1.36058
2.75761
-1.45916
-0.435089
2.21392
-0.398435
-0.314267
2.69899
0.0781842
-3.73983
0.0296076
-1.67017
-4.15633
1.37604
0.663908
0.360094
3.06214
-0.482035
-0.082103
-0.360492
-0.325909
0.0971493
-1.68139
-6.92296
-0.340052
1.30165
-0.0300245
-1.74164
1.67602
-0.351919
-0.401837
-0.217249
-0.331023
3.08674
-3.18153
-2.17879
1.63627
0.110371
-4.47818
-0.636657
-0.333578
-0.795252
2.09049
-0.363579
-0.70539
-0.349324
-0.266454
1.64036
-6.81778
-0.101786
-6.05257
-6.15182
0.093267
-0.432726
-5.66841
0.757879
0.504618
-5.86828
1.29337
1.68908
3.08275
-0.210411
1.64246
2.34974
-0.524126
0.172835
-0.999302
0.664169
-0.190565
0.361412
-0.0511505
0.0777004
0.953476
0.534153
-1.56857
-9.62863
2.68341
-1.17654
-0.443589
-0.251055
1.62802
0.933034
0.833543
-2.65846
-2.35406
0.0746847
1.89677
0.640526
0.271297
2.48975
-0.225409
2.36467
-0.422625
-1.33231
-0.158904
-0.280083
-2.17427
-8.43856
2.42145
-2.57086
-2.36543
2.45339
-0.619541
-0.169524
-0.300901
2.66201
-5.70194
2.18348
0.168242
0.0448764
0.325768
-8.14498
1.09497
-0.216021
0.0383962
-0.579633
1.30904
1.84009
-0.493904
0.134956
1.78813
2.58334
-1.62642
1.5517
3.06887
-2.24003
0.867561
-0.504138
1.52096
2.17201
1.89975
-4.86251
1.41388
0.465052
-0.399057
1.28815
-0.185599
1.7357
-0.332625
1.48368
0.902211
-0.149676
0.0759959
0.44906
1.4644
1.86081
0.0907328
-0.414903
2.57182
1.62356
1.98122
0.270474
-0.230152
0.0945495
0.099066
2.50416
2.71247
-3.21498
1.57585
-0.399581
-4.59949
-0.0229402
1.44246
-5.38498
-5.2968
-0.402267
-0.41928
-0.0804971
0.689493
-5.68919
1.5529
1.91297
-5.43925
1.97007
0.0508982
1.52853
-3.1823
-0.415839
0.0893117
2.62711
-0.208352
-0.287149
-1.03142
-5.60235
1.29505
-0.419443
0.788184
2.43018
-0.414829
-0.466064
-3.46569
-0.859438
-5.24057
1.90323
-0.925504
2.64105
2.56844
2.40301
-0.436437
-8.66886
-5.0661
-5.33479
0.122165
-10.1438
-4.51548
-6.78334
-0.438808
1.99453
-7.61811
1.74408
-0.443759
2.37258
1.33131
-5.40766
0.230561
-5.52349
2.97949
0.105634
1.33677
-1.15106
-0.48815
-0.40074
-0.464229
-3.94793
1.90381
-0.257145
-0.468783
-4.79929
-7.16511
0.894599
-0.396079
-0.11791
0.0662191
0.375858
0.374042
-0.658414
1.88204
2.39983
-4.60097
1.02974
-0.437399
1.78793
-5.18852
-0.327073
0.9975
-0.402967
0.114814
-7.08984
-0.231175
-0.983539
-0.363654
1.65502
1.14067
-4.54985
-0.176708
0.952043
1.25839
-0.0146742
0.530134
-0.684832
3.02955
1.03248
1.73532
-0.0358863
0.729511
-2.15329
-1.2428
-0.190493
-1.18145
-0.290659
2.48627
2.12373
-0.390449
0.851586
-0.398508
2.21578
0.663044
-6.55233
-3.57359
-7.50668
-5.30451
0.0155534
0.167225
1.5625
-1.40133
-0.134448
-7.18483
1.23119
-0.3793
-9.4437
1.98378
0.818148
2.53348
-0.332331
1.63495
1.96367
1.82585
-0.257201
1.6588
-0.189843
0.370503
0.266529
-0.279904
0.901329
-8.41408
-1.92104
-0.432901
-0.92345
0.649267
1.43886
0.450503
-8.23665
0.419411
3.12893
-0.395009
1.74063
0.00644821
2.42907
-6.29954
1.40047
-0.292982
-0.550963
2.59647
-0.233796
-4.65838
0.643225
2.68395
1.69444
-0.37726
-0.621709
-1.89226
-7.99537
-2.91679
-10.2784
1.78774
-6.08137
-7.54827
-6.40653
1.14186
0.0158381
-5.95882
-0.685258
-4.36472
1.02826
0.0035819
1.57179
-0.40388
-5.53549
2.44377
-5.07853
-2.21879
-5.94793
0.32845
-6.89649
-2.86288
-1.42103
-0.0261572
0.0529254
1.28775
-1.88305
-0.715521
-5.64112
0.171102
0.127879
0.41559
-0.5465
-5.06156
1.39089
-0.250311
2.33519
1.87802
0.590251
1.94146
0.496648
1.29165
2.8577
1.95637
-1.3333
-0.450062
0.00372166
-0.460888
-0.559562
-0.478508
1.66375
-4.12189
2.22614
2.31855
1.5186
1.49532
-1.12439
0.78183
-2.30199
-0.0403821
2.4736
1.7839
-0.209857
-0.0363421
-5.17169
-0.621774
-0.210068
-5.4436
-2.01507
-0.492419
-0.0825486
-0.38749
0.562028
2.54977
1.58503
1.82552
1.64519
1.86513
0.0679214
-0.18808
-0.338224
-5.21577
0.515014
0.309538
1.26882
0.986802
2.63564
-0.713154
-0.544287
0.0794142
1.46711
-0.334725
-0.162987
-7.82489
2.94505
1.58015
-9.01313
1.47508
-0.490339
-1.12064
1.2921
1.70883
0.905796
0.43684
0.688181
-0.329649
-0.105905
0.153536
2.48607
-1.42634
2.19185
-0.902075
-0.33561
-1.98438
1.18221
1.84024
-0.947645
0.0880146
2.92779
0.445981
1.28762
1.2994
2.71648
0.131587
1.69955
-0.257576
1.71853
0.0997901
-0.11963
2.23497
3.03211
0.431506
-0.386054
0.101081
-0.614917
-4.80873
1.59814
0.72813
-2.64191
1.44424
1.91948
1.41977
1.5184
0.149527
1.59947
2.24765
-0.595806
2.79003
1.88287
0.822366
0.00386861
-1.20975
0.163961
1.60984
0.299036
1.65281
1.88145
1.48406
-0.825992
-0.778584
1.9337
1.17023
2.12647
-0.190251
1.40195
1.73762
1.10498
1.98309
1.96236
0.119657
0.102121
1.52894
1.93381
-0.742115
-0.3701
-1.14516
1.91643
0.330069
1.69895
2.72041
-0.426589
2.63863
2.89303
-0.0464988
-0.580516
-0.0282005
3.0979
-3.74474
1.85821
2.7395
0.703989
-4.73596
0.809485
1.17096
2.86843
1.17173
1.21919
2.98324
2.14607
0.0984521
2.96257
2.42337
0.0545631
-0.392028
-7.08782
0.0134242
0.395584
1.83403
2.39414
-3.6878
-0.0357583
0.940388
0.521612
2.08738
-2.22968
2.549
-0.922544
-1.33339
1.3001
-2.35732
1.87728
-0.429184
1.23365
-0.400045
2.40021
1.61204
1.52923
1.63552
-0.889071
-0.129609
-0.0564044
0.929692
0.989541
2.5406
1.76787
0.0336921
1.04999
0.470412
-0.399093
2.37497
0.0204061
1.97835
-0.0734357
0.0294381
-0.42836
0.268004
0.814528
2.68163
-0.185619
1.13317
-0.407176
-0.36778
2.29614
2.21478
-0.415006
2.2435
0.560025
-0.413596
0.288992
0.97476
3.05387
-0.162994
-2.97244
2.03468
-0.264684
1.6641
-6.18589
-1.80263
0.146407
-7.39598
-2.46558
0.502792
1.68987
-0.0405994
-2.14188
0.0106771
-0.347274
-2.2093
0.714388
2.57161
1.18875
1.02873
-0.29773
-0.313615
0.232729
1.20178
-0.362568
0.0105421
0.10034
0.00157311
0.206247
1.09481
0.556778
0.702171
1.13985
1.03577
-1.65482
-4.61417
0.284577
-0.641334
2.93008
0.979304
0.601584
-0.27124
-0.574914
-0.790019
-0.0112431
-0.409792
-1.31938
-0.210632
-0.581377
1.68893
0.402348
0.0567242
1.82209
-2.79748
-0.767826
2.51985
-2.2343
-2.13584
0.5436
1.46888
-0.425913
0.350005
-0.564034
0.0901424
-0.364844
-0.287689
1.8772
-0.459689
0.938185
0.0891286
-0.454344
-0.454693
-0.192106
1.30649
0.214944
-0.400927
2.51618
-5.63178
1.63965
-0.825233
-3.43164
-2.33063
-0.299962
-9.01454
1.54566
1.48588
1.58367
-0.154866
-1.51156
2.23448
-0.487565
-2.63881
0.0173293
-0.494309
0.0720384
0.131502
2.27756
-7.0388
-5.58908
-0.397828
1.08843
0.946573
-1.22835
0.998772
0.165541
-0.4971
0.500995
0.935976
0.610761
-0.0432219
-0.713917
2.36505
-0.146363
0.0349557
0.910659
0.0157042
1.06751
-0.876802
-0.249532
-0.357757
1.11284
0.00757922
0.123566
0.679809
0.0130424
0.197956
-0.365013
1.6096
-0.045078
-0.42096
1.42219
1.33154
0.00560526
0.805276
0.772275
1.5093
1.9143
1.69049
0.0140133
2.59044
1.23685
-1.98503
1.08281
-1.10954
-0.413376
0.0654621
0.629843
-0.731336
2.61026
0.440571
0.425755
-0.181826
0.653829
-0.254093
0.522911
-4.69351
1.27018
-0.26158
1.44741
0.813312
1.50565
-1.52704
1.96679
-0.983807
1.51907
1.60137
0.519219
-0.263044
-1.06062
-0.388424
1.80653
-0.551623
-5.35663
1.78131
0.993273
0.0502246
1.81566
1.17597
-0.610495
2.40386
-1.9722
0.225767
-0.815341
-1.04058
0.0331364
-0.201253
-0.442737
2.65382
-0.014977
0.465502
-0.221396
-0.395228
1.58429
1.94748
0.0140065
0.0520143
1.42071
-4.46087
1.40288
1.50701
-0.210382
-0.260241
1.05214
-0.137797
2.68895
-9.25657
1.15861
0.00202977
-1.38322
2.58327
1.67692
0.331143
2.15466
-0.434364
1.96951
1.91184
-0.603579
1.45812
1.40734
1.1465
1.45396
-1.0713
1.5779
0.0207438
0.774402
0.00455055
-5.66744
1.59895
-4.04236
-7.79499
-0.0332007
-0.0595192
1.14046
-8.97032
1.43199
0.370142
0.785423
1.46096
1.21381
0.367529
0.261243
-0.446018
1.44353
0.840377
-1.60925
-0.70906
-0.310834
1.51701
-1.19206
-0.737081
1.29671
-0.927903
1.91033
0.86651
-2.17388
-8.54317
1.7217
1.90407
-0.343514
1.27333
-9.40359
-0.638471
-5.61771
0.382633
-0.517006
-7.52661
2.85886
0.707527
-7.37674
0.033352
-0.413432
1.43579
0.853694
-0.749471
-6.42213
-0.398289
-0.412307
-10.5016
1.12301
2.38208
-0.281021
-0.603789
0.0206139
-4.13659
1.78853
2.89222
-5.23491
1.04641
1.58815
-5.26389
0.446392
2.60298
-3.96233
-0.667617
1.19029
1.3063
1.17509
-0.519805
0.837784
0.0110496
0.94237
-2.2131
0.0757848
1.49597
-0.227818
0.269332
0.891387
1.35733
0.848367
0.0999441
0.665243
1.51918
1.09481
1.3663
2.70287
-1.03411
2.53428
0.0368202
2.47886
3.02271
-3.57419
0.264068
0.383941
1.37516
-5.18609
0.663927
0.946542
0.0526207
1.64678
2.21336
1.70517
1.75534
0.383533
1.03389
-1.7989
2.95368
-1.45183
-0.00818484
-0.391012
-0.549394
-2.83613
1.55643
1.74996
0.841905
1.82894
-2.39116
0.10654
1.90348
1.43517
-0.170967
-0.292536
0.055508
0.0217979
0.43736
1.60561
2.8293
1.38385
2.04259
1.96752
1.66561
2.71122
0.960945
1.45741
0.168233
-0.397677
0.734412
1.15547
1.15376
2.98935
0.431803
0.799233
0.00395779
0.0889643
2.86065
0.910635
-0.335733
-1.03313
1.25363
-0.897055
-0.0174826
2.12233
1.49165
1.37309
1.59237
0.015193
2.16938
-5.12089
1.34982
0.260917
0.0416637
0.0170886
2.36983
0.052794
-0.20689
1.55537
1.44602
-0.436262
1.30242
2.44106
-0.137309
-0.462231
-1.8516
-5.53392
-0.368813
-0.733216
-0.429902
1.31457
0.537319
0.0728909
1.58498
0.00661787
-0.284207
-0.789152
-4.12888
-0.81136
0.247971
-1.94331
-5.4623
1.44282
1.35426
2.05614
-0.379929
0.590371
-0.0915481
1.34823
2.33963
-1.30737
0.0327189
0.0566176
2.45814
1.18458
-0.314839
-0.570661
-5.41709
0.0541672
0.123445
2.60236
0.0652177
0.00584865
0.637282
0.540433
0.0149751
0.804922
0.273225
0.739923
-1.53597
-0.591228
0.0805003
-2.93655
0.0197213
0.678494
-7.73635
1.63448
0.870591
2.77442
0.58198
2.49351
-0.701934
1.69347
-0.167661
-0.204336
-0.532706
2.30636
-0.327597
0.313629
0.203444
-6.98219
-0.663875
0.0181457
0.0578279
-0.00116649
-0.100636
-0.0162879
0.23155
0.96685
1.83232
-4.55288
0.12393
0.251183
-0.0431675
-0.0978487
1.62985
0.301219
0.813861
-0.139411
0.02217
2.14731
-1.02851
0.702021
0.00440057
0.0584686
-0.252871
2.11094
-1.1509
0.0722039
0.0095624
-5.23752
-0.340772
-0.0204685
2.48781
1.78193
0.0102092
-4.83402
-0.87964
1.52608
0.11953
-0.131472
0.00824412
0.654812
0.0843748
0.0444381
-0.43404
0.00651252
0.622643
-0.617027
1.57966
0.343079
-0.560476
0.078222
0.562686
0.184759
-0.16628
1.56001
0.0850908
-0.195076
-0.288345
-0.0413418
-0.355641
0.0378149
1.57649
-8.74248
-1.16005
0.131714
0.0210923
-1.98869
0.0149233
0.0103516
0.0214902
2.24232
1.02446
-5.51125
0.0307549
-0.470293
-0.372719
-0.257288
-0.00803022
1.52676
0.8466
1.16748
1.4266
0.127663
-3.34328
-0.396233
-5.31925
-0.331387
1.70359
0.00347426
0.575045
-3.79965
1.83108
0.0634975
1.55341
0.138938
0.14351
2.00346
0.0373185
0.0217422
-1.8645
2.18764
0.27905
1.31014
1.52486
-0.646762
0.0391916
1.37765
-4.33522
2.13952
-0.253166
2.08462
-0.681954
0.0276351
0.125386
1.61058
2.02822
-2.02142
1.28859
0.624988
-0.0280202
2.31397
0.548213
-0.454951
1.44402
0.0499732
0.142263
-0.495449
-0.454153
0.042973
-1.06758
0.00361067
1.34652
1.03249
-0.0362523
0.0701775
0.684144
0.121002
1.43186
-0.27069
0.0335887
-0.619773
-0.141061
0.0921881
-0.301778
1.27549
0.270402
0.0364038
-6.40394
1.66076
-0.0172537
-0.383163
-0.0320222
0.454463
2.46397
0.0723577
0.00722142
1.13094
0.0364442
-0.0694961
0.0442579
-2.69547
-0.0129328
0.0735756
0.0234449
1.57218
0.00606216
0.0137052
-3.80815
0.0413473
0.0468658
-0.166865
1.51032
-0.145516
0.0252204
0.405346
-0.384534
0.127173
0.0551801
0.985289
-0.396698
0.212095
0.10335
0.12617
0.0720072
0.0152019
0.0180432
-0.520215
-0.289139
-0.316754
0.40763
0.90641
0.108995
0.645219
0.699468
0.0290728
0.0219185
0.750805
-1.63341
0.0216495
-0.252594
0.146541
0.302453
-1.0604
-0.406934
0.0214171
0.299071
0.193255
0.880064
0.817239
0.113558
0.320056
1.58127
0.0973677
-0.398519
0.0391583
-2.04828
2.03216
1.38225
0.1417
0.0295298
0.0134372
0.107775
0.0482834
0.0527977
-0.38718
0.14137
1.36976
0.2964
0.059864
1.46945
0.107626
2.29839
0.016482
0.241451
0.195637
0.00980125
2.15599
0.0433848
0.056055
-0.507256
0.0555307
1.0378
0.583052
0.0294831
1.53457
0.108528
1.18454
2.00433
0.868195
0.820107
0.0709303
0.934603
0.0818631
0.276292
-2.36802
-0.449018
0.0794497
1.92015
0.511859
1.41573
0.695429
0.00106395
0.067638
0.106729
-0.338267
1.0967
-0.416311
0.0522538
0.0128449
0.0542946
0.0160852
-0.12924
-0.485833
2.51235
-0.481981
-4.3341
2.34777
0.202585
0.0566968
0.0377152
0.0586938
1.37765
0.0726538
0.045808
-5.40316
-0.504097
-0.0513253
1.54679
0.0968702
0.0777958
-0.93238
0.0324567
0.155632
0.0128339
0.0611736
0.0727585
1.53253
-0.83457
-0.325346
0.630288
-0.00998828
-5.60289
0.145333
-0.519899
0.0300031
1.63971
-5.76872
1.90227
-0.045237
0.0855397
-6.13574
0.00204764
-0.067718
0.0510792
-0.421461
-0.295602
2.3789
-0.394069
-2.82051
0.0159599
-2.03435
0.0356582
0.106765
-8.32105
0.0122684
0.0343194
-0.066645
0.0576256
0.0522945
1.83627
0.382035
-0.0063204
0.155242
0.0467848
-1.03686
0.11445
-3.16633
0.0418215
-0.0723783
1.77393
0.0598368
1.53811
0.027272
-0.0311906
0.0254261
0.00751675
0.023032
-5.309
-0.67845
0.102543
0.867754
1.31958
0.612731
0.0184062
0.0265457
0.0156307
1.76359
0.0408065
0.286892
0.858239
0.00263223
0.0501545
0.0215433
0.0369074
0.0155089
0.101992
1.524
0.00926149
1.17915
0.0412483
1.58996
0.0640586
1.01476
0.0147066
0.0432218
-6.09776
0.0475256
0.00537051
-0.094004
0.142634
1.1323
0.0355077
0.466461
0.0633422
0.0286759
0.240585
0.0764466
0.0255816
-1.37282
-5.61213
0.0318626
1.92148
1.35098
0.0314306
0.0335128
-0.554759
0.0365226
0.380979
0.0807741
0.0313798
2.14017
-1.24616
0.0198906
0.0329276
-4.17688
1.57856
0.120441
0.0798248
0.0224903
-9.74746
0.174704
0.0512363
-1.89194
0.614805
1.06993
0.0799929
-0.173934
0.155683
1.45448
0.0252278
0.0178262
0.048792
0.0975429
-0.201105
0.101059
0.0732983
0.0182073
0.041314
0.039099
-0.0598496
0.0246048
0.0756002
-0.0954826
0.10508
0.00361544
0.135089
2.78106
0.0378659
0.149385
0.0150355
0.130463
0.657628
0.0190785
0.142109
0.192506
0.05045
0.0401494
0.0367689
0.0277536
1.49523
0.0152581
0.0440816
0.136547
0.0228642
0.0319438
0.192736
0.0199834
1.73929
0.0115074
-0.769848
1.24551
0.0473117
0.0419482
0.0701243
0.0567395
-6.05468
-0.013152
0.300332
0.045127
0.166578
0.0361954
-0.825246
1.64505
1.73185
0.0349419
0.100298
0.104744
0.0352871
1.4847
0.0116231
0.0437285
1.51725
0.0378527
1.53254
0.0664245
0.0460378
0.153996
0.0751022
0.0230621
1.85956
0.0478418
0.0022181
-0.112916
-0.152523
1.49436
2.18465
0.0103081
-0.0934236
0.0497938
0.0264102
0.00275022
1.5569
-3.50558
0.00323862
0.0414952
0.136115
0.0390876
0.0444087
0.0667424
-1.75187
0.00372004
0.0494645
-0.753617
1.47451
-3.61954
0.043766
0.0505062
0.96023
0.946734
0.0290066
0.00507637
-8.00218
-1.812
0.0154699
0.0433109
0.0449411
0.044529
0.00771712
-5.09007
0.0204779
0.184327
0.0399096
1.46389
0.0323507
0.110023
0.0482604
-0.27405
0.0223823
1.4653
0.214022
1.76654
0.132618
-1.31161
0.0332156
0.0869374
0.0582602
0.0692896
0.103737
0.023895
0.048346
0.11001
0.0205307
0.0317575
0.0433574
0.026957
0.0575287
0.0319274
1.53756
0.065263
-0.205735
1.8385
0.0380141
0.0978059
-0.506065
0.540063
0.0430645
-0.472895
0.036507
0.039171
-7.95828
-0.000994835
0.0381422
-0.478588
0.0408811
0.121637
-0.0913708
0.000872896
-2.59416
-0.00810188
0.0447131
-0.598172
-0.0822922
0.0238717
0.0323214
0.0500779
0.0684844
0.109804
0.102687
0.274219
0.0207122
0.0233852
0.0286573
-0.399341
0.0404206
0.0126314
0.0319101
0.016126
0.0507279
0.0528947
0.0150158
-0.379227
2.45654
0.0505674
0.0196733
0.0522398
-0.314974
1.73963
0.0542069
0.255211
0.00304793
1.72074
0.0278838
0.522865
0.149429
0.0122071
0.0246405
0.153648
-5.29497
0.0975089
0.293897
1.37209
0.0393945
0.0285845
0.0197342
1.75284
0.0565869
0.0570838
0.00979948
0.0319338
1.24081
0.0725467
0.0432429
0.0226134
0.0520983
0.0352124
0.0322715
0.625943
-0.441839
1.97293
0.00775041
-0.389331
-0.0863966
2.29164
1.10701
0.0423719
0.0335589
0.070461
0.0697809
1.36015
-0.0766266
0.0600205
0.0883722
-1.89154
0.044862
0.0943137
0.0461868
2.93972
0.964657
1.37271
0.0519743
1.51189
0.0222913
-0.549664
-1.40761
2.00983
-0.831503
-1.07078
0.0258883
1.19362
-0.0207346
0.0446387
-0.179104
-0.0568811
-1.83262
0.217488
-0.301895
0.0177845
1.48728
0.0295666
0.370907
0.0381082
0.0331113
0.0548044
1.52396
0.0374971
-0.886328
0.0611257
-5.32888
-0.00027449
0.0571651
0.07276
2.50827
-0.671037
-0.0816481
0.0803159
0.040281
0.0394054
1.00641
1.46676
0.00406362
0.0560475
-9.24058
0.0631186
0.814749
2.78078
0.777332
0.298247
0.0980356
0.0846711
0.0361246
0.409796
0.0692744
0.0715072
0.0366996
0.588891
1.4585
1.42274
-2.5612
0.982107
0.0637225
0.158923
-2.66675
0.137483
0.0654028
1.68838
0.0320714
-8.19288
0.0296786
2.41047
-0.313604
-0.0629571
0.0892478
-0.497343
0.0151795
-5.19721
2.5555
0.111863
-0.264554
-7.13756
0.085728
0.139433
-0.0103503
-0.185803
-0.0304386
-0.867472
-3.68129
1.5072
0.0307615
0.199157
0.0700254
0.914337
0.0498736
-4.74147
0.0489487
-0.146668
2.8883
0.0437344
-5.90137
2.61608
0.00342126
0.127165
0.103383
0.0137051
1.61082
-1.58236
1.39173
1.56296
0.101564
0.0785103
1.53819
0.728893
0.136551
-0.953203
-0.479563
-0.314531
1.62269
0.0494088
-0.381098
-9.94532
0.394451
-0.223671
0.00545282
0.102631
1.45528
0.0950118
0.0477211
-6.22355
0.0293043
0.0352798
0.0623965
-11.0222
-0.789729
0.201124
0.0427894
0.00961339
-0.372219
0.0816614
2.78821
0.0941812
-2.69096
0.378299
0.0315801
1.6189
0.00154494
1.51699
0.0788477
1.42099
-10.1859
0.116425
2.24495
-0.144525
-0.337591
1.7189
0.00158386
0.0397635
0.0157063
1.5361
1.6787
0.0742816
1.73498
2.57552
1.00428
1.77889
-4.06605
0.0549131
2.33468
-5.12114
0.459289
0.113163
1.41009
-2.06263
1.79206
1.71228
1.86779
-0.204285
0.0359026
-0.787984
0.0341215
0.137365
-0.576847
-0.394884
0.0340727
0.0358915
-0.687071
0.131727
-0.0868307
0.28064
1.93573
2.08278
2.00269
0.165893
1.10424
-0.0921684
0.457634
0.150474
0.138018
2.71695
0.0353104
0.0961945
0.216362
-11.109
2.17517
0.0934223
-0.212564
-9.02479
0.217493
0.102898
-0.454062
-0.60765
1.21692
0.0342139
1.22169
1.60383
-1.09464
-0.309086
0.186675
1.6267
-1.02681
0.00955738
0.0263381
0.00729055
1.31083
-0.116725
0.0682083
3.04302
2.18582
0.00640915
0.101764
-7.05645
2.48389
1.40267
-0.0691428
2.71349
0.0300334
1.49134
0.587135
2.50736
0.161699
-1.341
0.86612
-8.84852
-0.00187826
0.0901447
0.228419
-0.426021
2.61237
0.232058
0.0804293
0.16055
0.3773
0.984669
2.88175
0.0917633
0.0123728
0.105042
1.07833
-0.0488397
-0.496622
0.132391
1.43122
0.111555
-0.01243
-0.474402
0.21454
0.414882
1.42652
0.122675
2.55117
0.0917277
0.00172371
1.51208
0.0276795
0.00660392
0.192365
-0.707438
0.771057
0.030577
0.651409
-1.05515
0.0279493
1.31726
-0.583135
0.00315505
0.128217
0.0878413
0.114309
1.32354
0.0809052
0.142055
-0.00481616
-0.288993
0.00837208
-0.125003
-9.73314
0.0466712
0.73869
0.110034
0.0272501
0.265132
0.091207
-1.80749
0.11701
1.53413
-0.120829
-0.0678252
0.182522
-0.0751052
2.26702
0.0465628
0.652939
-0.0583617
2.99591
2.78771
0.140082
-0.589535
-5.81921
0.00170939
1.25199
1.52483
1.51173
0.00285075
0.0212993
0.195852
2.41527
0.240025
-1.66986
0.418272
-0.251838
0.294861
0.0200311
1.24354
2.38438
0.108022
-0.243966
-0.0320329
1.17952
2.02378
-0.403972
0.50211
-0.938041
2.83453
0.00140319
0.0946515
1.13365
0.125192
0.0276133
0.0260396
1.46642
0.0115413
0.0325356
-0.457284
-4.7219
0.0132495
0.00472259
2.34426
0.737089
1.82893
-0.199398
-0.390934
2.9598
0.00442712
0.212399
0.53888
-0.144119
1.22183
1.29799
1.59069
0.0113106
-0.397943
-0.211002
1.51715
-0.198366
0.0193034
0.122669
1.54011
0.210965
0.0299001
0.116814
0.297707
-0.0595261
0.0225816
0.216743
0.0219124
-0.164223
-0.116943
1.03484
2.32053
-0.0276028
1.66747
1.36533
-1.25893
0.0203703
-1.37145
1.586
-0.190592
-0.0996357
0.0570347
-0.0282308
0.00759224
-0.384628
2.97708
0.0123553
1.57062
0.937904
-0.0538462
0.0934884
-0.404119
0.0719955
0.450166
-0.143076
0.108283
1.03906
-0.0229402
-0.121245
1.78463
0.25542
0.335813
0.191452
-1.56343
0.23358
0.692218
-0.138354
1.15557
0.217127
-0.494669
2.1983
1.90342
0.0832703
1.34269
0.016018
0.67492
1.44318
1.60011
-0.092241
-0.236326
-4.24287
-0.0914156
1.48763
-0.669555
2.10231
0.0246034
0.82571
-0.399458
-5.28269
1.48691
-0.147469
1.44795
0.295975
0.215605
0.19054
0.236911
-0.250854
1.27239
0.483427
1.54262
0.378536
2.03577
2.21303
0.101993
1.9172
0.219295
0.00416093
0.590918
2.16457
0.787939
-1.30225
1.61956
0.102191
-0.0363704
2.11339
1.44027
2.05682
-0.0239072
-0.00856986
0.205293
-5.19818
0.0481512
-0.969712
1.21051
-0.573064
1.67221
-0.00396186
-0.18958
1.32853
1.59708
0.174435
1.51651
0.060517
-1.23753
-0.189983
0.0902901
-5.37455
0.90256
0.902773
-0.509788
-0.159555
0.3209
-0.129547
1.08713
2.14317
2.29141
0.665273
0.464588
0.0100488
0.344351
1.37683
0.0115188
1.84502
-0.162326
0.0511118
-0.231735
-0.168838
1.0025
1.54684
1.8583
1.22036
-0.0581383
0.05988
1.48501
1.45284
1.64072
0.0647124
1.90842
0.743455
1.51741
1.0073
0.184015
0.0599189
1.60847
1.44772
-0.790276
1.5741
-0.071723
0.336133
1.16192
-0.171644
-0.383303
2.50526
1.82829
0.134
1.51622
0.493107
1.00932
0.202929
0.214121
0.00262447
-0.00110773
-0.162828
-1.82256
0.419051
-0.244602
-0.0619503
1.49725
2.13053
0.228106
1.50491
0.243839
3.15704
-1.90987
1.7869
0.164471
-5.65813
-0.726816
3.18265
0.296769
0.00162521
3.16094
0.0977849
-7.41628
1.50142
3.13345
-0.850637
3.08549
0.811973
0.185416
-0.394662
2.98893
-0.0172854
-0.0192407
-6.70099
0.248551
0.155513
1.77173
2.84307
0.0162881
0.370271
1.86989
0.227902
1.601
1.27794
0.103268
-0.369162
-5.13611
2.79276
0.497788
-0.376858
0.28755
0.161447
2.75018
1.13996
-0.327596
-0.389618
2.70376
-1.17724
-0.396046
2.65838
1.80969
-0.398467
-2.58889
-0.402623
0.706986
1.81642
-0.400313
2.59284
1.52363
-0.1718
-0.393978
2.08033
0.196424
0.373357
-0.313719
-0.650082
1.36359
1.53651
-0.300358
1.5831
-0.692228
-0.877594
-8.87056
2.46573
1.02189
1.27228
-0.178831
-0.40131
-0.401838
-0.404812
-0.410672
-0.42126
-0.425254
-0.14385
-0.442905
-0.548546
1.86647
2.42562
0.999099
0.939434
0.304624
1.07149
-0.610352
2.39679
0.00114129
-0.695133
1.94925
-9.85473
-0.83083
0.135182
2.30885
1.39325
0.889318
0.420223
1.53021
-1.9321
-0.948175
2.27831
-1.14634
0.122365
0.41293
-3.20077
1.42837
2.23848
0.0107299
1.94045
0.145388
1.1898
-1.37244
-0.190164
-0.146446
2.19938
-0.241469
-5.39034
2.16074
0.0565338
-0.937485
-0.222938
-2.44238
2.12828
1.55593
0.494691
1.49471
0.311061
0.0282948
0.0265032
-2.93078
-0.499561
2.08424
0.648055
0.0714264
1.59073
0.726491
-0.602458
-0.19857
-3.472
2.05205
-0.396969
1.53118
0.0659305
0.0426869
-4.05169
2.01311
0.620492
-1.04469
1.96738
-4.66906
-0.0054889
-0.190569
-5.30049
-0.0779691
1.93908
-5.29033
1.88165
-5.87136
-0.308183
0.970891
0.0222326
0.904757
0.0308297
1.8403
-6.37338
0.893106
2.37987
1.60847
-6.78947
-0.483487
1.80753
-0.225915
-0.611624
1.26382
-7.07897
1.53791
1.77651
0.0315848
-0.0323933
-2.10557
1.50445
1.01885
0.0460202
0.20003
-7.26169
-5.26556
1.72571
0.433915
-3.21524
0.448235
-4.50414
-6.89592
0.209335
0.725702
1.68861
2.10506
1.54249
2.28054
1.58635
-7.19852
0.990344
-0.0109043
-0.3961
0.745233
0.0307431
0.203379
0.870065
1.18922
-0.0134563
-7.03808
-0.402106
1.60745
-0.606848
-0.408494
1.86793
1.22035
-0.145837
2.65691
-0.90671
0.419376
0.329683
-6.85598
0.31088
-1.93832
1.55518
1.82383
1.64888
1.0254
-6.64274
1.50393
1.44071
1.40712
1.3436
1.2993
1.22838
-4.96755
1.46058
1.1753
1.71401
1.06051
-2.52625
2.11348
-6.4425
-0.642935
-2.2005
1.14454
-5.88377
2.07825
-6.19669
0.35377
-6.00375
-0.646806
-5.87288
1.47688
-0.852436
-0.0369051
-5.77487
-9.79742
-0.355865
1.5522
-3.23946
-5.55294
1.61559
1.58331
-0.492816
-0.754438
1.6919
0.293306
-1.52386
-1.25746
0.613941
1.34914
-3.04714
-0.405258
-0.38017
1.66665
-0.361377
-1.8383
-0.394381
0.849813
1.56311
-0.536383
-7.87877
0.667633
1.75032
1.21246
-10.4169
1.53829
0.660772
1.28555
-0.123246
1.56932
-0.246164
0.00947814
-0.00339865
0.705196
-3.19278
2.29529
0.26697
0.0744529
0.234182
-5.32864
2.0065
1.61714
1.35167
1.51057
0.326628
-0.795948
0.333384
-1.67286
0.718973
-0.852788
-0.673971
1.06327
-4.2407
0.390137
2.82088
-0.011716
0.793325
0.881587
-0.549638
0.158446
1.14368
0.102573
0.678296
1.317
1.54229
1.59128
1.58669
-1.12199
1.78417
-5.29653
0.134645
0.490545
-0.224874
-0.360397
0.105606
1.7834
-0.478523
1.51165
-1.45434
-1.40029
0.3396
-3.23589
0.400691
-0.26951
0.343423
1.6689
0.233873
-0.217017
0.134359
0.342692
-0.0762955
-0.304949
0.0199241
1.56526
-0.815567
-0.501392
1.11276
-0.167665
1.13782
-0.340261
-0.102839
0.173217
0.0693546
0.204637
-0.412985
0.0492571
0.0503661
0.0448977
0.901564
2.32414
1.02525
-6.07456
1.50256
-0.141099
1.1427
0.0277836
0.0519368
1.29101
-3.39692
0.0235935
-1.24739
-0.504592
-2.36823
1.5399
-0.0767596
1.87221
0.356355
0.00973204
2.40918
2.28382
-0.274472
0.495253
-0.294864
-0.423521
1.70112
-1.24388
-0.113073
-5.135
-0.0221704
-3.10215
0.511545
0.923349
-0.250879
0.0109197
0.0674937
1.48209
-0.629922
-4.32465
0.927794
0.706797
2.26252
0.253563
0.608592
2.34408
2.38036