/*--------------------------------*- C++ -*----------------------------------*\
| =========                 |                                                 |
| \\      /  F ield         | OpenFOAM: The Open Source CFD Toolbox           |
|  \\    /   O peration     | Version:  2306                                  |
|   \\  /    A nd           | Website:  www.openfoam.com                      |
|    \\/     M anipulation  |                                                 |
\*---------------------------------------------------------------------------*/
FoamFile
{
    version     2.0;
    format      ascii;
    arch        "LSB;label=32;scalar=64";
    class       surfaceScalarField;
    location    "3";
    object      phi;
}
// * * * * * * * * * * * * * * * * * * * * * * * * * * * * * * * * * * * * * //

dimensions      [0 3 -1 0 0 0 0];

oriented        oriented;

internalField   nonuniform List<scalar> 
7520
(
-1.00984
0.754462
0.255382
-1.33155
-0.253248
1.58479
0.0353851
-1.70589
1.67051
0.244452
-0.0326867
-0.211765
-0.0842984
1.37285
-1.28855
-0.0932638
0.100345
-0.00708111
-0.266556
2.05723
-1.79067
-0.122462
-1.6042
1.72666
-1.28923
1.32461
0.960059
-0.163228
-0.796831
-0.222913
-0.118634
0.341547
-0.286869
-1.72931
2.01618
0.723589
-0.103759
-0.61983
-0.104573
0.144881
-0.0403082
-1.77251
0.945836
0.826676
0.134464
1.56928
-1.70375
-0.153724
-0.0268716
0.180596
-0.056945
0.274279
-0.217334
0.0426036
0.0128538
-0.0554574
0.0521035
-0.205828
-0.439463
-0.250317
0.68978
-1.08569
1.22016
-0.0304665
-0.324087
0.354553
0.15695
-0.149812
-0.00713794
-0.0282514
0.0793983
-0.0511469
0.263011
-0.25915
-0.00386083
0.875883
1.10046
-1.97634
-0.0356233
0.327826
-0.292203
-0.0356582
0.0782618
0.205816
-0.032667
-0.173149
-1.1439
1.7801
-0.636198
-0.0506434
-0.0190584
0.0697018
-1.75028
1.91594
-0.165656
-0.329622
0.414582
-0.0849596
-0.223008
-1.24898
1.47199
-0.67188
0.988965
-0.317085
0.295745
-0.568075
0.27233
0.809303
-1.53682
0.727519
0.0938727
-0.331586
0.237713
-0.0464652
-0.105491
0.151956
-0.02945
0.273902
0.481626
0.178788
-0.660414
0.301096
-0.0380848
2.17363
-1.41596
-0.757668
-0.501954
-0.64651
1.14846
-1.50801
1.60122
-0.0932121
0.0400615
0.109079
-0.149141
0.283031
-0.0859744
-0.197057
-1.37045
0.226543
0.286074
-0.0776749
-0.208399
1.78986
0.212495
-2.00236
-0.72708
0.239606
0.487474
0.0593626
-0.0795995
0.0202369
1.06021
0.523109
-1.58332
0.0154874
-0.108751
-0.778695
0.127571
0.651124
0.401277
-1.29113
0.889857
-0.0431285
-0.128778
0.171906
-0.123972
0.0733286
-2.27612
1.11761
1.15852
1.57974
-1.12942
-0.450319
-0.0123436
-0.0397116
0.0520553
-1.22888
1.00587
0.853566
-0.129978
-0.0656246
0.124987
0.00423278
-0.108806
1.09726
-2.21864
1.12138
0.174417
1.61545
-1.25925
0.998324
0.260921
0.328719
-0.248256
-0.0804633
-0.505101
0.906379
0.197644
-0.79325
0.595606
0.35207
-0.0976119
-0.254458
0.467751
-0.512553
0.0448025
0.708015
-1.52471
0.816693
0.132689
-0.116117
-0.0165716
2.24925
-0.949519
-1.29973
0.41896
-0.76757
0.348609
1.77727
-1.32922
-0.448048
-0.850735
0.0720405
-1.52177
-0.754355
0.764075
0.286422
-1.0505
0.252837
-0.649253
0.396416
0.0126406
-0.342263
0.254594
-0.311539
0.223484
-0.0176685
0.0242314
-0.0435373
0.0193059
1.21796
1.03129
-1.69188
1.90807
-0.21619
1.19911
0.380635
-0.976076
1.1343
-0.158226
0.0576112
0.185671
-0.243282
1.36474
-1.65161
0.253387
0.205848
-0.111976
0.216009
0.48403
-0.700039
0.00772253
0.0869418
-0.0946643
-0.550563
0.378802
0.171762
1.45938
-0.751368
-0.738705
0.641487
0.0972178
0.85379
-0.871908
0.018118
-0.0915698
0.115169
-0.0235996
0.0111175
-0.0167766
0.00565915
2.19511
-1.35996
-0.835144
0.546531
-0.48077
-0.529073
-1.33466
0.829562
-1.86843
1.60188
0.17891
-0.0827985
-0.0961115
-0.304917
0.0820043
-0.164742
0.163452
0.0012903
-0.2829
0.368608
-0.0857073
1.9504
-1.1411
0.370901
-0.101161
-0.26974
-0.784341
0.344878
-0.0483602
0.00404094
0.0443193
-0.130788
0.894863
-0.772096
0.425652
0.346445
1.22058
-2.06707
0.84649
0.049406
0.107544
-0.176718
-0.550362
-0.349237
0.0599309
0.289306
1.15877
-0.19871
-0.484172
0.573655
-0.0894831
-0.00157589
0.313319
-0.311743
0.0811752
-0.0773116
-0.00386359
0.725068
-1.82333
1.09826
0.397494
-0.427961
-0.353613
-0.0662885
0.419902
0.143164
0.227737
0.19666
0.0823157
-0.278976
0.152939
0.0339451
-0.186885
-0.0675697
0.220509
-0.6281
-0.143996
0.164215
-0.685871
0.521657
-0.680749
1.5058
-0.825053
0.365634
-0.397418
0.0317834
-1.14626
-0.188401
-0.0353376
-0.0525843
0.0879218
1.43734
-0.377131
-0.650215
0.451157
0.199058
-0.00113838
0.123264
-0.122126
0.300636
-0.0779061
-0.22273
0.180756
-1.88665
0.24939
-1.7574
-2.07569
0.857488
1.2182
-0.852237
-0.407008
-1.20585
0.889615
0.316235
1.79943
0.255694
-2.05513
0.188112
-0.234577
0.0747667
0.663206
-0.737973
-0.379356
-0.478461
0.857817
-0.0563941
-1.14946
-1.76848
0.0181962
0.015111
0.00912045
0.0680265
-0.133997
0.0659701
0.296563
-0.339691
0.761242
0.0925483
-0.161753
0.132303
-0.00522422
-0.0212905
0.0265147
0.775795
-0.448162
-0.327633
-0.507888
-1.26462
0.0763005
-0.455657
0.0655534
-0.602935
0.537381
-0.127246
-0.0933974
0.220643
-1.60829
0.90388
0.704406
0.48988
-0.574178
-0.0564242
0.45809
-0.401665
0.0962226
-0.124474
0.5363
-0.250251
-0.286049
0.786576
-0.570567
0.247624
-0.325298
0.973922
0.214243
-1.18816
0.311023
-0.346646
-0.449164
-1.34774
1.7969
1.27266
0.671785
0.712444
-0.459607
-1.22849
0.556614
-0.695669
0.93378
-0.238111
-0.0069265
-0.0282799
0.0352064
0.273874
-0.327981
0.054107
-1.03393
0.903145
-0.283041
-0.152577
0.435618
-0.185563
0.0583168
-0.851693
0.917246
0.46621
-1.00965
0.543439
-0.503726
-0.0468374
0.699657
-0.403912
0.143844
-0.0111553
0.132875
-0.249981
0.117106
0.0335056
-0.316406
-0.375534
-0.142452
0.517986
0.136963
0.215107
-0.699386
-0.825323
-0.81138
-0.796906
0.0223215
-0.251257
0.228935
1.25037
-0.654108
-0.596262
-0.983363
0.302614
-1.15857
2.17545
-1.01688
0.372348
0.163952
0.124383
-0.189557
0.065174
-0.751305
0.574587
0.594827
-1.09678
1.74235
-0.0507183
-1.69163
-1.58402
2.00848
-0.424463
-0.0264334
0.0944599
0.401263
1.30301
-1.70427
0.0356036
-0.176275
0.140671
-0.168927
1.80241
-1.63348
0.00161397
0.113483
-0.115097
-0.889281
1.26592
-0.37664
-0.098711
-0.652594
0.0839005
-0.459434
0.269673
-0.154744
-1.65841
1.81315
-0.0901675
0.103021
-1.63408
0.934693
0.32094
-0.0319509
-0.288989
-0.293646
0.29207
0.134405
1.59208
-1.72648
-0.572982
-0.572539
1.14552
-0.526191
0.419298
0.106893
2.38793
-1.53
-0.857934
0.46389
-1.03687
-0.254426
0.267317
-0.0128907
0.135724
0.737281
-0.873005
0.0579662
-0.0606118
0.00264558
0.826746
0.826137
-1.65288
-0.226045
-0.51266
-0.0613276
0.173664
-0.112336
-0.935079
0.686563
0.248516
-0.0832447
0.0427523
0.0404923
0.932311
0.318059
1.07968
-2.08987
1.01018
-2.67219
1.18709
1.4851
-1.13958
-1.53261
-0.379474
0.462536
-0.0830618
-0.245906
0.0377658
0.20814
0.475524
-1.30291
0.827386
0.0370824
1.07738
-1.11446
-0.606227
0.892648
1.12739
-0.153465
1.0135
1.02977
-2.04327
-0.195298
0.0969856
0.0983126
0.0193059
-0.954385
1.84983
-0.476867
-1.37296
0.142503
-0.1069
0.0160232
-0.249357
0.222486
1.07163
0.7782
0.237836
0.646209
-0.884045
0.372096
-0.0442701
0.0894373
-0.129354
0.0399163
-0.242942
0.116092
0.126851
-1.84348
0.898015
0.945468
-0.356006
0.110099
0.871683
-0.707468
0.581341
-0.0273797
-0.553961
0.142124
0.140907
-1.90037
1.85613
0.0442329
1.12678
-0.660567
-0.0449771
0.147917
-0.102939
-0.00444807
0.0563361
-0.0518881
0.122459
-0.22007
1.62458
-0.527317
0.0431536
-0.161947
0.118794
0.005657
-0.0108812
-0.414346
0.295712
1.14925
-0.665224
-0.659701
0.696783
-0.0302907
0.163165
2.05723
0.00730527
-0.0117408
0.00443553
0.327027
0.822226
-0.216124
0.140699
0.0754246
0.0535905
-0.0424731
-0.115879
0.597505
0.904461
-0.829695
0.424866
-0.377597
-0.0472689
0.322773
-1.21205
0.0189476
0.177712
-1.59412
1.43938
-0.19748
-0.0569461
-1.71659
0.230926
-0.232064
-0.0914717
-0.0719916
0.163463
-0.61938
-1.2241
1.22517
0.969939
1.7307
-0.826824
-1.72931
0.216829
-0.701001
-0.0631233
0.293684
-0.23056
0.176464
-0.25464
0.0781752
-1.2439
0.597385
-0.193975
-0.271088
0.465063
0.418688
-0.581916
-0.159971
-1.91801
2.07798
0.968723
0.230365
-1.53779
1.30742
0.862738
1.0532
-0.850525
1.45777
-1.0565
-0.0502775
0.399705
-0.349427
-0.859601
0.765215
0.0943864
0.0834632
-0.0403095
-0.0848454
0.337953
-0.253107
-0.28785
-0.22207
0.50992
-0.510523
1.78318
-0.272774
-0.385806
0.65858
0.233204
-0.193143
0.270874
-1.24695
-0.138256
0.227693
0.00877511
-1.9143
1.05177
0.862526
0.372421
-0.47618
0.00818446
-0.0448207
0.410455
1.02937
1.35856
1.63315
-0.51913
-1.11402
0.12809
-0.0457927
-0.0822973
0.933583
0.843689
0.157867
-0.22099
0.680973
-1.81304
1.13207
0.331306
-0.290692
-0.0406134
0.536454
0.92293
-0.228549
-0.103037
0.757749
-0.519913
-0.573771
1.44965
0.168004
0.0109056
1.89274
-0.672165
0.149488
-0.141765
1.77611
-0.142957
0.107166
0.408983
0.0158832
0.0178278
0.310891
-1.65594
-0.86434
1.00031
-0.135971
0.00596853
-0.122086
1.75074
0.056921
-1.80766
-0.737259
0.464485
0.230798
0.069839
-0.319525
0.0712688
-0.0599821
-1.26924
1.52215
-1.58183
0.0596759
0.0413459
-0.352721
0.311375
-0.914199
1.45065
-0.82061
1.54568
0.0907677
-0.0494218
0.779079
-0.353427
1.98229
-0.61755
0.00509881
0.124407
-0.129505
-0.0913994
-0.0755311
0.166931
0.125459
0.00263048
0.143331
-0.79669
0.000564758
0.121762
-0.122327
0.524003
0.981799
-1.80551
1.35635
0.129809
-0.483423
-0.608936
0.80658
-1.15852
1.36551
-0.20699
0.54975
-1.91729
1.74836
2.14212
-0.924159
1.00219
1.17144
-0.0739998
0.222366
1.29979
-1.29546
0.267495
1.02797
0.258127
-0.290794
-0.304884
-0.0511217
-0.227004
0.159434
0.185411
-1.60137
0.670058
-1.21377
0.543709
-1.64164
0.713349
0.928292
-0.0916786
-0.701572
0.0829954
-0.0953391
0.0893072
-0.0460538
0.300305
-0.254251
-0.550867
0.494443
1.17992
0.962207
-1.58402
0.0394591
0.0417161
1.64385
-1.46408
-0.179778
-0.374788
1.6778
-1.33701
2.28957
-0.952564
-0.792367
1.00751
-0.215141
0.119347
-1.34822
-0.16882
0.206586
-0.277898
0.440816
-0.162918
-0.0311489
0.0143723
1.33082
0.68821
-1.32189
0.633676
-0.022389
-1.56552
1.58791
-0.0545219
-0.11022
0.0277977
-0.479216
0.451418
-0.931562
1.45901
-0.52745
0.206908
-0.14411
-0.0627977
-0.362771
1.05125
-0.688476
-1.93644
1.6832
1.92096
-0.501308
-1.41965
0.24794
-0.151369
-0.096571
-0.00166479
0.178129
0.113099
-0.616825
-0.806792
1.63354
-0.055545
0.00718476
1.74235
-0.957128
1.09285
-0.0237013
0.0237013
-0.188506
0.167412
-1.8593
2.24101
-0.931384
-1.30962
-0.646079
0.833563
-0.187483
0.0975806
-0.1362
0.0386191
1.0474
-1.1536
0.106209
-0.520074
-0.290551
0.810625
0.922514
-1.99182
1.06931
-0.0589544
-0.800647
-0.221262
0.129862
-0.259004
-0.531819
0.790823
0.764849
0.441129
-1.20598
-1.30022
-0.422829
0.696126
-0.273297
-0.0406888
1.29462
-1.25394
1.43436
-1.29996
-0.15251
0.153075
-0.236034
-0.0164374
0.484188
-1.1187
0.835097
0.283605
-1.83579
2.13491
-0.299121
-0.0174691
0.135735
-0.118265
-1.46589
-0.752747
-0.0417851
0.00612695
-1.63725
0.478682
-0.380607
0.295762
-0.301001
-0.491366
0.103058
0.228248
-0.625262
1.63876
0.0441001
-0.368187
-1.52073
0.149225
1.3715
0.690447
-1.1601
0.469649
-0.89705
0.201381
0.212651
-0.577248
0.364597
1.58622
-0.162476
-1.42375
-0.00493908
-0.0882698
0.0932089
-0.351676
0.667937
0.476621
-1.14456
-0.388276
1.33411
0.27844
0.676652
0.760689
-0.0161531
1.58655
0.189565
-1.43422
1.41183
-0.175657
-0.0248686
0.200525
-0.259732
-0.0436466
0.303379
-1.92486
0.587854
-0.248109
0.426897
-0.625089
-0.239251
0.251496
0.883196
-0.372019
-0.511177
0.200637
0.100459
-1.07707
1.88483
-0.807756
0.165258
-0.240789
-0.0816229
0.355497
0.264032
-0.541929
-0.0870411
-0.207684
0.294726
0.216722
0.0834354
-0.300157
0.577704
-0.887966
0.310262
0.00964896
0.0395383
-0.0491872
-0.299746
0.333733
-0.0339877
0.236496
-0.595671
0.359175
0.314278
-0.0561507
-0.0069664
0.460591
-0.453624
1.1565
-1.01538
-0.960962
-0.69424
-0.185081
0.879321
0.104034
-0.00101247
-0.288521
-0.23767
1.06545
-0.182251
-0.0480175
-1.24455
1.29257
-0.341737
-0.00749991
-0.0754863
-0.552614
-0.482354
0.119583
0.174675
-0.173061
-1.65038
-0.0362232
-0.0822577
0.118481
1.2333
-1.01906
1.06073
0.860227
0.547094
0.0342472
-0.132228
-1.59245
1.72468
0.564353
0.583144
-1.1475
-0.229086
-1.01352
0.605184
0.408338
1.21023
-0.519778
0.0148436
-0.219853
0.20501
2.23286
-1.21173
-1.02114
0.139079
-0.316448
0.177369
0.579037
0.526229
-1.10527
0.0759506
0.104224
-0.180175
1.61591
0.0474264
-1.66333
0.249481
0.0247989
-0.260677
0.304777
0.101131
-0.0897042
-0.0114267
0.353818
-0.0992245
0.0630756
-0.0456735
-0.0174021
-0.618654
-0.633772
1.25243
1.16156
0.424665
1.00338
-1.0514
0.309914
-1.24148
-1.85334
1.69337
0.043681
0.269638
0.284497
-0.605772
0.321275
0.805911
0.924793
1.14841
-1.30571
0.157303
1.2262
-0.549548
-0.145378
0.0995855
0.0436768
-0.00839168
-0.0352852
-1.47809
-0.289077
1.76717
-0.390005
0.459325
-0.0693204
-0.00096937
-0.022732
0.397627
0.975221
-0.142537
-0.0527611
1.12144
-2.12986
1.00842
-0.969411
-0.099684
1.06909
1.59849
-0.518809
-0.101622
0.555948
-1.03441
-0.27154
0.00453955
0.267
0.0201386
-0.193288
-0.546531
1.23474
0.0175765
0.0403897
0.160118
0.109687
-0.269804
0.05841
0.988985
-0.0411263
-0.644745
-0.418695
-0.418359
0.478289
0.637599
-0.9386
-0.300166
0.199005
-0.0336507
0.256136
-1.94243
0.927049
0.051587
0.143955
-0.195542
-0.0577186
0.0180187
0.0396999
0.231169
0.846213
-0.0449987
0.00528707
-0.00563228
-1.58938
1.59501
-0.102788
-0.530177
0.632965
-0.0418023
0.071346
-0.0295437
-0.543527
1.21358
-0.182701
-0.327784
0.510485
-0.288413
0.501064
-0.61831
1.6761
-1.05779
-0.756222
0.543659
0.212563
1.90909
-0.109652
-0.2979
-0.0581844
0.356085
0.290946
-0.20863
-0.1832
-0.275885
1.04233
0.865747
0.356123
-1.29146
0.935333
-0.804933
-0.193506
0.998439
0.348751
-0.0301123
-0.318639
0.0850285
0.305517
-0.390546
-0.0804454
0.362701
-0.282255
0.18115
-0.319406
-0.945628
0.0799367
-0.000538472
0.162897
0.064796
-0.126193
0.399075
-0.272881
-0.235593
0.271606
-0.0360126
-0.314777
0.0665267
0.248251
0.784521
-0.410609
-0.0437191
0.000181779
-0.260971
-0.537354
0.798326
1.19121
-0.960045
-0.0162607
-0.352116
0.368376
-0.394581
-0.477328
-1.32816
1.50257
0.74144
-0.0782342
-1.24434
0.833688
0.410652
0.230897
-0.099447
-0.13145
1.74488
-1.74488
-1.64378
0.122013
-0.949945
-0.184309
-0.651705
0.836014
0.566442
-0.556176
-0.0102657
-0.0140418
-0.315009
0.0974436
0.217565
-0.0159527
0.212179
-0.196226
-0.598366
1.25025
-0.651883
-0.190847
-0.0877497
0.278597
0.788123
-0.668776
-1.07607
0.271137
-0.0405024
-0.220999
0.261501
-0.0452275
-1.25023
-0.649414
-1.19544
0.546027
0.815671
-0.0192458
0.239956
-0.22071
-0.278639
0.33818
-0.0595406
-0.235126
0.173799
-0.0863049
-0.188439
0.0969669
0.0379815
-0.0447921
-0.0953611
0.140153
-0.0286602
0.0202685
-0.386396
0.37943
0.155877
-0.184399
0.0285229
-0.0610395
-0.0310817
0.0921212
-0.397882
0.273095
0.124787
-0.068348
0.178004
-0.109656
-0.744748
1.28846
0.649779
-1.08685
0.437075
-0.161339
-0.082316
0.243655
-0.00292309
-2.0765
2.07942
0.894734
-0.617497
-0.277238
0.413964
-0.0590878
-0.195552
0.00392523
0.000115707
-0.0587812
0.19786
0.342656
-0.959045
0.616389
-0.423558
-1.47681
-0.208051
0.847809
-0.639758
0.270019
-0.126854
0.415209
-0.277915
-0.137294
0.295962
-0.556933
-0.442533
-0.290415
0.270144
0.0202715
-0.531481
0.337506
-0.124586
0.575743
0.0854542
-0.0899022
-1.44288
0.0829223
-0.292683
0.556714
0.0104468
-0.231708
0.0571651
-0.0924503
0.293553
-0.312799
-0.0855214
-1.23865
0.493899
2.01599
-0.213583
-1.65841
2.25728
-1.08933
-1.16795
-0.129082
0.507884
-0.103555
-0.74718
0.531267
-0.497761
-0.253355
-0.0181846
-0.601175
-0.421923
1.0231
-0.0477013
-0.0981463
0.145848
0.0172959
-0.869533
-1.92364
-0.327963
-0.328801
0.656764
0.337285
-0.440073
-0.252297
-0.0387652
0.291063
0.477183
-0.0796893
0.172443
0.0584545
1.97492
-1.05241
-0.929496
0.328321
-0.259598
-0.0507896
0.310387
-0.0463583
-0.0583708
-1.09523
-0.266777
-0.0940244
0.360802
-0.0878321
-0.0361398
0.90753
-1.18415
0.276622
-0.65447
-0.0457887
1.79067
0.187637
-0.724992
1.1776
-2.04039
0.862791
-1.99541
1.25441
0.740995
0.160462
0.106737
-0.267199
0.149306
1.16218
0.0276612
0.831012
-0.858674
-0.0249394
-0.137008
0.26062
-0.0126793
-0.0277513
-0.29006
0.317811
1.29242
-1.42465
0.34053
-0.161313
0.200155
-0.0388413
-1.46967
-0.174111
-0.605599
-1.21165
0.517415
0.111869
0.00358455
-0.115453
-0.632497
0.31815
0.314347
-0.403667
0.35339
-1.06983
-0.586216
1.65605
-0.152571
0.155743
-0.0581619
0.449632
-0.54449
0.0948584
-0.910186
1.62354
-0.168773
-0.894297
0.248217
0.702911
0.168772
0.750803
-1.34917
-0.0110414
0.0473877
-0.0363463
1.18787
-0.260415
-1.02814
-0.35099
-0.0746714
0.425661
-0.0562298
0.215664
-0.0612627
0.236563
-0.175301
-0.203737
-0.107802
0.060448
0.844013
-0.317231
0.314986
-0.0673625
-0.420857
0.376037
-0.179172
0.052602
0.12657
0.256553
-0.106521
-0.150033
-0.152161
-0.0431492
0.19531
-0.138971
-0.0517642
0.190736
-0.284043
-0.0277001
-0.246325
-0.106397
-0.0907167
1.17493
-0.230149
0.0515014
0.178648
0.0750688
-0.00110015
-0.0739686
0.130445
0.212667
-0.343112
-0.284245
0.255186
-0.678015
0.250058
0.372869
-0.0763064
0.150956
-0.0547337
-0.137696
-0.0385791
1.80453
-0.978393
0.169504
-0.613873
0.444369
-1.57356
0.245401
-0.0565608
-0.00689856
0.0634593
-0.0438801
-0.0393646
-0.784789
-1.21062
0.369198
-0.0581755
-0.872457
-0.940585
0.291486
-0.131369
-0.0358642
0.485496
1.08218
-0.758025
-0.93107
1.28719
-1.64985
0.171764
0.0767965
-0.173052
0.0962555
-0.0530183
-0.181532
-0.402998
0.58453
0.140827
-0.0220336
-0.585457
-0.676354
1.26181
-0.90799
-0.996443
1.90443
0.619517
0.354319
-0.973836
-0.00253685
-0.134391
-0.156024
-0.266008
-0.275921
-0.181154
-0.10599
0.287144
0.353253
0.504564
0.283392
0.131817
-0.183763
-0.620646
0.00744555
-0.000140282
-1.17356
1.3579
-0.18434
-0.144568
-0.209015
-1.5285
-0.278673
0.0274166
-0.706659
-0.263403
-0.0155727
-0.833239
0.125771
-0.16854
-0.909627
-0.333276
1.2429
-0.231349
0.762616
0.28627
0.547293
-0.301179
-1.01095
-0.931472
-1.25671
1.36292
0.0786849
0.156555
0.0277271
-0.0833957
0.0556686
-0.642492
0.587181
0.0553114
0.692383
-0.791094
0.310765
-0.259178
-1.18095
-0.0633927
0.0134751
0.103064
-0.116539
0.78084
-0.203136
-1.40047
-0.0925854
1.49305
-0.0685646
0.0399045
0.0426977
0.342136
-0.384834
-0.247644
0.418163
0.128368
0.0780383
0.0235217
-0.10156
-1.31796
0.841098
0.1386
0.00222694
-0.183142
-0.133305
-0.33479
-0.179313
-0.120853
0.110765
-0.119536
0.0773925
-0.0888192
0.369638
1.4865
-0.850043
1.85224
1.02447
0.554133
-0.844683
0.0165461
-1.41701
0.268306
-0.336605
0.392403
-0.0557987
-0.0632911
-0.0140205
-0.271328
0.0156308
-0.058319
0.131648
-0.065547
1.50197
-1.43642
0.190396
-0.842991
-0.124662
-0.268628
-0.0710637
-0.022081
-0.292406
0.368993
-0.0765869
0.00970394
-1.46721
1.45751
0.645515
0.244243
0.322199
-0.846529
-0.584127
0.966899
-0.382772
-0.128245
-0.0706402
0.0886589
-0.582323
0.5899
-0.00757739
0.244418
-0.503697
0.259279
-0.14431
-0.63813
0.782439
-0.287163
-0.059483
-1.98716
-0.0140241
0.188064
-0.182965
0.043066
0.158751
-0.020151
0.357808
-0.686609
2.17544
-0.947942
-1.22749
-0.133628
0.436246
0.348032
-0.305334
0.12208
0.148064
-0.185906
-0.0111502
-0.405103
0.417744
-0.397048
0.851041
-0.99535
0.148667
-0.0991725
-0.0494949
-0.379451
-1.77897
0.883606
0.895361
-1.68373
1.68081
-1.13114
0.451365
0.679778
-0.130857
-0.361281
0.492138
0.497719
0.567728
-0.132705
0.204956
0.532205
0.866166
-0.0958776
-0.268386
-0.00952914
1.03501
1.14042
-0.105767
-0.0235864
1.39957
-1.14387
-0.0442235
-1.36936
1.41358
1.18549
-0.0105551
-0.302336
-0.0782715
-0.0719971
0.229424
-0.26347
0.122986
-0.42787
0.220111
-1.31331
1.0932
0.218138
2.31538
-1.44317
-0.872212
-0.0796683
-0.00689711
-0.129303
0.911539
-0.00839406
1.48968
-1.36767
1.01778
-1.92577
-1.2147
-0.0179757
1.23267
-0.876501
0.158373
0.718128
0.12916
-0.0643641
2.07992
0.0160282
-2.09595
-1.25892
1.6543
-0.395374
0.0470621
0.224543
-0.90971
0.869021
0.0346175
-0.232097
-1.38476
0.226243
-0.00173673
-0.0161554
0.0178922
-0.11849
0.224549
-0.106058
0.112318
-0.464673
0.352355
0.54413
0.456181
-0.50943
-0.123068
0.0441773
0.863598
-0.922552
-0.0705499
-0.0634467
-0.262803
0.0544039
-0.0665446
0.941109
-0.874564
-0.0158266
0.580126
-0.5643
0.060181
-0.432712
0.372531
-0.598149
-1.48644
0.663726
0.822711
-0.0390199
0.85151
0.251078
-1.10259
-0.49075
0.232881
-0.256763
0.0238823
0.177745
-0.0370743
-0.256332
0.00403478
-0.298363
-0.844994
0.0152999
-0.404885
0.810437
-0.405552
-0.827484
-0.40101
1.81674
-0.764972
-0.103008
0.190565
-1.34157
0.0206714
-1.34754
1.32686
-0.0945335
-0.152729
0.247263
0.802348
-0.609336
-0.193012
0.145011
-0.021747
0.0725993
-1.33663
0.509151
-0.635031
1.24021
-0.0854953
-0.328851
0.302167
0.229356
0.0271971
0.835428
-0.370943
0.0142106
0.678172
-0.968705
0.418343
-1.89691
0.900468
1.37752
-1.36782
-1.52407
1.45853
0.294935
-1.45398
0.226203
1.22777
0.607284
0.240525
0.0325937
-0.90424
0.719931
-0.124491
-0.126912
0.251402
-1.22022
0.298132
0.922083
0.255284
0.737566
-0.992849
0.016697
-1.27341
0.778308
0.0907871
-0.869095
0.269728
0.303753
-0.912689
0.376153
-0.0133621
0.0561144
1.54604
-1.49862
0.342352
-1.01591
-0.470526
0.664961
0.0226014
-1.2373
1.11255
-0.261035
-1.74836
0.0190513
-0.24721
-0.940954
0.339534
0.231268
1.85334
0.203891
0.119742
-1.21498
0.143502
-0.109557
0.165779
-0.453629
0.326004
-0.570797
0.244792
-0.000847839
-0.0522145
0.0530623
0.311225
-0.369409
-0.202423
-0.0405199
-1.12138
1.13917
-0.0177942
-0.743815
0.979012
-1.54807
0.569062
-0.814225
-0.061567
0.102059
-1.45997
0.140767
1.3192
-0.368209
0.917959
-0.669191
0.686487
0.153091
0.988865
0.589114
-1.00781
-0.820861
-0.191497
1.01236
-0.785972
-1.17227
0.586813
-0.128137
0.131771
-0.00363418
0.0664909
-0.0960346
0.946836
-1.49337
-0.0185967
-0.544262
0.562859
-0.234864
0.193791
0.0410729
-1.10255
0.464421
0.0377071
0.0256705
-0.237435
0.431516
1.90234
0.177584
-0.802208
0.829869
-0.276183
0.0930403
-0.923817
1.54699
-0.623175
-0.079408
0.065593
0.0782512
0.376575
-0.0220217
0.962802
1.21265
0.5885
-0.941927
0.279379
-1.80938
-0.170915
0.134692
0.100134
-1.11919
-0.226107
-0.958045
-0.216007
0.0542538
0.803491
-0.371975
-0.816053
0.0719639
0.772049
0.190336
-1.68962
0.315963
1.37365
-0.0727827
0.490946
0.610842
-1.22607
-0.357948
0.760246
-0.340284
-0.419962
0.870332
-0.283995
-0.586337
-0.183289
0.0391786
0.65378
-0.661048
0.0072685
-1.69505
0.676686
1.01836
1.05306
0.623041
0.000637911
0.111231
0.763263
-0.508077
-1.53602
0.552574
0.983449
-1.81315
1.52407
0.668402
0.808919
-1.47732
0.818454
-0.746413
1.87743
-0.702673
-1.17476
-1.04697
0.185029
-0.0854434
0.0555952
-0.10137
0.198355
-0.0461788
0.12962
-0.0834411
-0.25124
-0.261314
-1.42757
-0.176634
0.0716331
-0.0993844
-0.0345426
-0.0260691
1.02829
-0.428712
-0.599575
0.794379
-0.476229
-0.129115
0.12745
-0.111625
1.26004
-0.188054
0.0935209
-0.309111
-0.793439
-1.49313
0.583505
-0.0606862
-0.0891262
0.124017
0.0611213
0.11692
-0.0891924
-0.519087
-1.14786
0.107746
-0.0842389
-0.0235069
0.187425
-0.314917
-1.1696
1.48452
0.149788
0.0089633
0.401348
1.01869
0.981946
-2.00064
-0.401024
1.02054
0.219733
-0.0874301
0.537538
-0.990765
-0.624745
1.61551
-0.960817
-1.00404
0.582114
0.297151
-0.164819
-0.132332
0.300002
-0.95411
-0.168725
1.33367
-0.354655
-0.183369
0.105463
-0.339787
-0.747067
0.0613467
1.91289
-1.69337
-0.219524
-0.890398
-0.602735
0.175215
0.172515
0.0666573
-1.01379
-0.206128
1.21992
0.233168
0.486622
-0.242204
-1.57283
-1.88323
0.763395
1.11983
-0.163383
-0.00498253
0.168366
0.958931
-0.556697
-0.402235
0.11146
-0.169779
0.0791279
0.0843238
0.937933
-2.00776
0.773097
0.0972349
-0.330076
-0.59942
-0.121502
0.0233558
0.156731
0.939357
-1.25427
0.0221711
0.377534
-0.584263
0.567825
-0.0897578
-0.00783655
0.0975944
0.907319
0.970113
0.561764
0.0536385
0.70987
-0.540929
-0.168941
1.91729
-1.60133
0.197722
-0.571303
0.151346
0.0263994
0.178661
0.0216782
0.118475
0.00440659
-0.132544
0.60383
0.0453429
-1.70173
-0.0202378
-0.143146
-0.0748723
-0.00852341
0.971765
-0.685495
0.884645
-0.524507
-0.360138
0.00396954
0.1112
-0.00661197
0.00487524
0.396815
-0.10984
-0.190317
-0.631378
-0.256588
-2.0563
0.88463
1.17167
0.237989
-0.0523179
0.0961672
0.104281
0.119204
-0.270959
-0.306289
0.416954
-1.40772
0.0276194
-0.968967
1.98766
0.628728
-0.114726
-0.514002
-0.758366
-0.471792
-0.0843835
0.0940045
-1.13936
0.45861
-0.72011
0.2615
-0.320479
0.291476
0.0290029
-0.0507509
1.26774
1.02183
-1.54441
1.60133
-1.53046
0.990956
0.539507
1.0343
-2.00326
2.0819
-1.05253
-0.994379
-0.988818
-0.02614
0.326445
-0.0910723
-0.388143
-1.52991
0.0759383
0.0125401
-1.31825
1.21512
-1.9788
0.763682
-0.0531252
0.241237
-0.493544
0.43456
-0.221997
0.932028
1.38336
-1.60366
0.679844
-0.142461
-0.818356
-1.37261
0.297245
-0.00576889
1.68373
-1.79339
-0.108112
-1.21712
0.0417961
0.923427
-0.255489
-1.46002
1.63647
-0.176451
0.385238
1.69418
0.442983
-0.0680837
-0.3749
1.87987
-0.862094
0.239914
-0.123787
0.686545
-0.762032
0.0953195
0.134037
0.167346
1.00339
-1.17074
-0.692619
-0.459906
1.04834
-1.06668
0.0183381
-0.365245
0.271221
-1.75448
0.859302
0.895178
0.726454
0.0758937
-0.641987
0.0915626
0.882693
-0.713921
0.296604
-0.562612
0.103802
-0.158535
-0.643265
0.461733
-1.04539
-0.890067
1.93546
0.174558
-0.226322
0.247374
-0.346599
0.988522
-0.740305
0.0864125
1.10032
-1.95036
0.0931121
0.335653
0.231245
-1.19129
0.0491368
0.705325
0.244174
0.0812889
-0.613108
-1.38858
0.457513
-0.0377618
-0.233348
0.271109
0.06997
-0.323077
1.15478
1.1025
1.23189
-0.955269
0.0147013
-0.0334908
0.149583
0.455814
0.232526
-0.340328
-0.711806
-0.956485
1.99078
0.0813651
-0.120385
-0.76218
-1.10232
1.8645
-1.64311
0.384188
-0.0703344
-0.347442
0.00432957
-1.47422
-0.0465104
-0.185923
0.644533
-1.04186
-1.01445
1.91289
0.604057
-1.40096
1.04052
-0.584337
-0.229879
-0.363136
0.207112
-0.264709
0.248448
-1.67191
0.21187
-0.795997
1.04015
-1.99664
-0.809853
0.133712
-0.342342
-0.052044
-1.40798
0.876956
-0.751185
1.36435
0.904472
-1.64196
0.737488
1.71796
-1.04127
2.01618
-0.950498
-0.998411
1.94891
0.513433
1.24179
-1.00862
-0.717191
-1.16603
-0.872916
-0.657546
0.475858
-0.728829
1.69395
-0.965116
-0.140242
1.35861
-1.21837
-0.990395
-0.981023
1.97142
0.93341
0.114927
0.253833
0.380795
-0.555482
0.395652
0.15983
0.0155298
-0.256319
0.496974
-1.38737
-0.842736
-0.393753
-0.248739
0.0788263
-0.342229
-0.0117433
0.60735
-1.96764
0.936653
1.03099
-0.0235597
-1.64533
1.66889
0.0761141
-0.252588
0.0563626
0.622074
-1.86027
1.86027
-0.045564
-0.0128228
0.0583868
-0.648759
1.08989
0.30793
-0.0106853
-0.789982
-0.448404
0.952968
-1.54441
-0.032562
-1.26094
0.303809
1.23201
-1.27724
-1.2084
0.194609
0.0517725
-0.311011
0.259238
0.13607
0.51771
-0.0207024
0.0198546
-0.938164
-1.21485
0.188499
1.02635
-1.38403
-0.0629672
-0.480456
-1.06762
-0.0327308
0.110769
0.165211
-0.216833
0.338913
0.0252247
0.0521678
0.37216
-0.279072
-0.364193
-0.721996
1.5414
-0.819409
0.334772
0.210491
-0.229293
0.416699
-0.187406
-0.408887
0.186817
0.427299
-0.544879
0.11758
-0.966961
1.64054
-0.972134
-1.47336
-1.67514
0.207926
-1.13333
0.0525559
1.0421
1.19076
0.142715
-1.08367
1.08487
-0.249775
-0.383741
0.298246
0.666858
0.620578
0.197876
1.98272
-0.94257
-0.998571
-0.887471
1.88604
1.14652
-0.0362728
-1.11025
0.0582711
-0.0593713
-0.197327
0.179858
0.148461
1.36604
-1.5145
-1.40648
1.36782
0.0386673
1.40648
-1.45853
0.217782
-0.270907
-0.631736
0.935489
0.0858564
0.270856
-0.298556
-1.69073
0.152944
1.67853
-0.774058
-0.384468
-0.0857462
0.138348
-0.44099
0.961603
0.262123
-0.0847543
0.716742
-0.72432
0.183032
-0.245829
-0.585631
-0.0636222
0.774833
-2.07713
0.511615
-0.0658544
0.43334
-0.367485
-1.04531
-0.93349
0.0798448
0.545744
0.581033
-0.897915
0.0957067
-0.101186
-0.331526
0.103694
-1.99774
1.00336
-0.00297333
-0.0539094
-0.25889
-0.0902333
0.200999
0.306913
-1.39634
0.815591
-1.48779
0.672196
0.059902
0.251881
-0.311783
0.0929753
0.200708
-0.978546
1.28236
0.640771
0.37977
1.29412
-1.22607
0.189324
0.0414734
1.62772
-1.8944
0.266675
-0.298183
-0.246307
-0.802676
-0.0664193
0.377693
-0.452365
-0.0697032
-0.0227471
-1.05109
-0.166108
-0.00277288
0.16888
-1.5098
0.186459
1.32334
-0.0788994
0.0103347
0.0272083
-0.0896265
0.0624182
1.22266
-1.20005
0.0342809
-0.0864954
0.619076
0.216938
-0.0605929
-0.0559465
0.218495
-0.345349
0.200754
0.648951
-0.849705
-0.431856
-0.0328171
-0.926382
-1.01297
1.93935
-0.179059
-0.416234
0.860603
-0.948569
1.68081
0.215646
-0.268664
0.05907
0.048064
-0.160772
2.04442
-1.00941
-1.2728
0.777964
-0.566093
-0.508614
1.49206
0.138023
-0.247864
0.0748674
-0.0758368
0.0713617
0.107286
-0.300433
0.194443
-0.183956
-0.422853
0.206021
1.02754
-0.177818
0.0875842
0.288235
-0.0482792
0.0386126
-0.448209
0.0203397
0.496753
-0.775825
0.213822
-0.244589
0.0307667
-0.24375
0.0910203
0.220289
0.889311
-1.1096
-0.250694
0.123782
0.412482
-0.643832
1.39289
-0.868888
1.01806
0.899132
0.0224037
0.562014
-1.01579
0.355762
-0.435451
-0.295702
1.05573
0.919187
-1.56424
1.56424
1.76662
-0.826081
1.09696
0.00361498
1.47619
-1.4798
0.948521
0.995923
0.914754
-1.96015
0.19389
-1.18924
-1.36133
-0.188891
-1.43063
1.61952
-0.411734
-0.119748
0.0759646
0.768079
0.171333
-0.277854
-0.970578
1.72435
-0.753774
-0.181077
0.276397
-0.00838143
0.509512
0.700714
2.22402
-0.883792
-1.34023
1.63884
-1.49807
1.13356
0.231946
0.0910126
-0.000244928
0.0373872
1.55469
0.576159
1.04755
0.837281
0.0214273
0.20092
-0.222347
-0.355068
0.221762
0.185071
-0.197437
0.0123669
0.164889
-0.221634
0.0567446
0.48533
-0.441152
0.340133
-0.484701
-0.414757
0.631586
0.0326807
-0.0310815
0.0170397
-0.629087
0.621704
0.00738297
0.089335
-0.083707
-0.00562802
1.79339
-1.5381
-0.377943
0.382868
-0.00492507
-1.54604
-0.346902
0.270596
-0.963421
1.91194
0.262852
-0.333916
1.96207
-1.04732
0.25099
-0.318353
-0.15962
-0.365397
-1.33084
-0.0909089
1.65124
1.29823
-1.06698
-0.103072
0.152478
-0.0665558
-1.51527
-0.298438
0.294577
0.249304
-0.373966
-0.371376
0.29479
-0.0888985
-1.3275
1.28328
-1.44574
1.50542
-1.15367
-0.479245
0.431976
0.665048
0.390904
-0.400433
-0.067387
0.0608791
0.352425
-0.413304
-0.383435
1.45506
-0.986873
-0.980582
-1.94247
-0.084661
0.0809724
0.00368856