/*--------------------------------*- C++ -*----------------------------------*\
| =========                 |                                                 |
| \\      /  F ield         | OpenFOAM: The Open Source CFD Toolbox           |
|  \\    /   O peration     | Version:  2306                                  |
|   \\  /    A nd           | Website:  www.openfoam.com                      |
|    \\/     M anipulation  |                                                 |
\*---------------------------------------------------------------------------*/
FoamFile
{
    version     2.0;
    format      ascii;
    arch        "LSB;label=32;scalar=64";
    class       volVectorField;
    location    "3";
    object      U;
}
// * * * * * * * * * * * * * * * * * * * * * * * * * * * * * * * * * * * * * //

dimensions      [0 1 -1 0 0 0 0];

internalField   nonuniform List<vector> 
5098
(
(2.64633 0.832762 0)
(2.21307 0.00216854 -3.60057e-20)
(2.17185 0.1111 -2.74572e-21)
(1.59531 -0.718304 7.3212e-19)
(1.85719 -0.395745 0)
(0.92555 -0.44895 0)
(2.28292 -0.00184238 2.58129e-20)
(2.13875 -0.1711 8.17289e-22)
(2.35887 0.0512441 -6.05417e-20)
(2.18531 -0.385381 6.75862e-20)
(1.48227 -0.73697 0)
(2.27983 -0.0570042 1.62026e-19)
(2.5485 -0.419528 -8.85134e-21)
(0.987749 -0.481598 0)
(1.92372 -0.121086 4.71547e-20)
(1.96178 0.0018262 1.30566e-21)
(1.21034 -0.608784 -5.99745e-20)
(1.32927 -0.752678 0)
(-0.503253 -0.133771 5.61962e-19)
(1.07531 -0.537406 6.77105e-20)
(1.84211 0.496769 -7.16167e-20)
(1.92491 0.0319654 4.41314e-21)
(2.15405 -0.836806 0)
(0.824118 -0.0170381 2.7968e-20)
(0.691756 -0.374559 0)
(1.53272 -0.632043 0)
(1.94254 -0.0444161 1.19105e-19)
(1.91518 -0.815892 1.92705e-19)
(-0.215361 0.323074 -1.69495e-18)
(1.75369 -0.7686 0)
(2.42792 -0.148795 -1.07521e-19)
(0.7567 -0.367496 0)
(1.92219 0.0547401 -1.3514e-19)
(1.44169 -0.7211 0)
(2.45228 0.208858 -3.55976e-20)
(3.23282 -0.379913 1.26805e-18)
(1.92219 -0.496213 1.4153e-19)
(1.97224 -0.0125687 -4.13212e-21)
(1.39927 -0.46009 5.35589e-19)
(1.43653 -0.666842 0)
(1.60432 -0.731746 -3.44767e-19)
(1.70366 -1.52194 -2.91834e-19)
(1.54796 -0.636648 0)
(2.60258 0.282336 4.37487e-20)
(2.42707 0.57635 3.70497e-20)
(2.04448 0.024323 6.73537e-21)
(1.29496 -0.632316 2.22319e-20)
(1.14434 -0.399739 0)
(2.46209 -0.189028 0)
(1.59515 -0.684087 7.80372e-20)
(2.22311 0.201813 4.73485e-20)
(1.6762 0.409229 -4.39953e-19)
(-0.965464 0.343594 -2.44997e-20)
(2.14051 -0.106141 1.72579e-19)
(0.990854 -0.497609 -3.26137e-19)
(1.61376 0.131082 0)
(1.90099 0.283018 -2.34591e-19)
(1.69957 -0.698266 0)
(0.895654 -0.44039 0)
(1.95452 0.0395404 -7.5511e-21)
(1.73146 0.287174 -3.08011e-21)
(0.619187 -0.297699 -7.28384e-20)
(2.47611 0.287548 0)
(2.51405 -0.413421 0)
(-1.01992 0.200921 1.06646e-18)
(0.851549 -0.427258 4.08221e-19)
(2.04669 0.0540676 5.71676e-21)
(2.33085 0.12533 8.67095e-21)
(2.12861 -0.260322 1.73059e-19)
(1.74121 -0.733059 2.28601e-19)
(1.88501 0.232597 1.42813e-20)
(1.28497 -0.461612 -2.34907e-20)
(1.98322 -0.829463 0)
(1.44767 -0.625879 0)
(1.83022 0.045574 -1.18175e-21)
(1.16426 -0.570451 -3.73791e-19)
(1.88663 0.198276 0)
(1.53361 0.192161 4.13176e-19)
(2.77382 -0.0421558 2.86127e-20)
(1.65081 0.152007 0)
(1.7894 -0.0449352 0)
(2.54697 -1.42641 3.06568e-19)
(1.75024 -0.317292 5.00335e-19)
(1.49886 -0.719707 -9.25306e-21)
(1.31398 -0.793779 4.19647e-20)
(1.58692 -0.698507 1.89618e-19)
(0.15328 0.187713 -2.5707e-19)
(1.91018 0.119745 -3.03939e-23)
(2.33514 -0.229119 3.85838e-20)
(1.73853 0.271815 -1.39972e-20)
(2.31021 -0.272866 -7.5318e-21)
(-2.33124 1.46045 1.23077e-18)
(2.44613 -0.0860789 -1.98753e-19)
(1.61291 -0.702827 -3.90421e-19)
(1.38563 -0.490616 9.45178e-20)
(1.23976 -0.689603 5.76832e-20)
(1.08303 -0.543368 -3.14135e-19)
(1.51489 0.226247 3.04392e-19)
(1.78905 0.117515 -4.62068e-21)
(2.07846 -0.502207 -1.16646e-19)
(1.75108 -0.660655 -4.42777e-20)
(1.04692 -0.517718 -3.87053e-19)
(-0.0398593 -0.111839 -1.46747e-20)
(2.11203 0.11538 -2.11089e-20)
(1.56452 0.177858 -4.69689e-19)
(2.4838 0.994145 0)
(1.92174 0.253485 2.49074e-19)
(2.14489 0.0689507 1.19662e-20)
(1.09249 -0.448963 7.2931e-20)
(1.47564 -0.740847 0)
(1.08936 -0.524543 -8.41422e-19)
(2.11251 0.708268 8.29972e-19)
(1.92928 0.0319094 -2.53535e-19)
(-2.27496 0.914641 2.59306e-19)
(1.82968 0.608801 1.01912e-19)
(0.391734 -0.180484 0)
(2.34197 -1.33507 4.57442e-19)
(2.78165 1.22842 0)
(2.0095 0.0938252 1.67889e-20)
(0.859918 -0.0644941 -4.29955e-19)
(1.71341 0.42332 3.61273e-19)
(1.65851 1.87354 -7.11747e-20)
(2.20575 -0.440926 -4.0829e-20)
(1.27091 -1.9444 -3.51856e-19)
(-2.12916 1.32555 -1.87701e-18)
(0.565524 -0.280045 7.69144e-21)
(2.17296 -0.0763602 1.45161e-19)
(2.13503 -0.802418 -2.28049e-19)
(1.43249 -0.184093 -1.12458e-19)
(-2.39005 1.03981 -5.34889e-19)
(0.737202 -1.13201 -1.33371e-19)
(1.18219 -0.523268 -5.38058e-19)
(1.21208 -0.521483 4.50569e-19)
(2.65561 1.29754 -1.34736e-19)
(1.59035 -0.636705 -1.16563e-19)
(2.22241 -0.542338 1.73957e-19)
(2.09239 2.36321 5.79716e-19)
(1.91454 0.256545 1.68847e-19)
(0.913054 -0.448937 0)
(2.12337 -0.132755 -5.51133e-19)
(1.65176 0.504402 -2.92612e-19)
(1.34008 -0.321907 3.25937e-20)
(1.81561 -0.827036 3.68193e-19)
(2.27908 0.0428248 -1.53379e-20)
(2.01343 0.00991299 -4.40332e-20)
(2.04321 0.0920825 0)
(2.123 -0.26872 1.80632e-19)
(1.76545 -0.397475 0)
(2.4111 -0.156353 2.38612e-19)
(1.69604 -0.77849 1.38347e-19)
(1.94065 -1.13018 -1.29646e-19)
(2.67865 0.530394 0)
(1.79898 -0.428741 4.20195e-20)
(2.03053 -0.0294586 0)
(0.141097 0.100629 -3.21977e-19)
(0.880218 -0.354778 -1.78411e-19)
(1.69725 -0.685084 -4.09925e-19)
(1.73646 -0.627954 -3.17456e-20)
(1.5487 -0.724528 -2.82115e-19)
(-0.338193 0.0182475 1.71011e-18)
(1.99679 -0.476343 -3.86916e-19)
(1.89609 -0.162132 -6.47559e-20)
(2.3494 0.34433 -4.9482e-19)
(1.8278 -0.203911 -3.11606e-19)
(1.22474 -0.697357 -3.816e-20)
(2.51326 -0.105414 -1.03585e-19)
(1.81402 -0.441697 -1.37788e-19)
(2.39174 -0.582801 0)
(0.823972 -0.477981 5.0398e-20)
(1.75378 -0.568744 -4.47801e-19)
(1.21928 -0.658139 -3.97998e-20)
(1.59897 -0.658964 -2.65915e-19)
(2.21852 0.413493 8.9326e-20)
(1.91037 -0.787811 3.441e-19)
(2.48302 0.056217 0)
(1.93309 0.00338184 0)
(1.75769 -0.316582 -1.94204e-19)
(3.13103 -0.334154 -6.58808e-20)
(1.80663 -0.191419 4.27709e-19)
(0.341868 0.0373053 0)
(1.96383 2.35497 0)
(2.34219 -1.10902 -3.7785e-19)
(1.81456 -0.566742 5.49235e-19)
(1.20383 -0.672026 0)
(1.91198 -0.222972 0)
(2.66691 0.596988 5.08326e-19)
(1.51938 0.280501 0)
(1.9477 -0.482265 4.87182e-19)
(1.0233 -0.500611 7.25889e-19)
(-0.53002 -1.00529 -5.12088e-19)
(2.41521 0.907343 0)
(1.64011 -0.211951 1.15863e-19)
(2.00527 -0.845641 0)
(1.76046 0.0786472 -1.50582e-21)
(2.49983 -0.122119 1.14193e-20)
(-2.40895 1.36664 -1.27602e-18)
(2.79535 -1.09651 3.03447e-19)
(2.26632 -0.613629 0)
(2.01765 -0.0143775 -3.50402e-21)
(1.78048 -0.547668 -8.09587e-20)
(0.496497 -0.953139 -2.45217e-19)
(1.66705 0.351178 5.49782e-21)
(2.38267 0.617626 5.74356e-21)
(2.20553 -0.00517533 4.31766e-21)
(1.61976 0.0159387 1.94903e-19)
(0.844481 -0.355775 -1.27649e-19)
(2.52209 -0.0453859 -1.24777e-20)
(1.24673 -0.575623 0)
(2.20142 -0.0223658 0)
(1.30917 -0.635776 -3.81497e-19)
(2.00862 -0.180841 -1.58415e-19)
(1.69608 0.309641 2.94788e-19)
(1.72874 -0.277436 -1.17353e-19)
(2.07196 0.0902157 -1.39501e-19)
(2.06882 -0.0721384 -1.2915e-19)
(1.15998 0.209655 -4.52332e-19)
(1.82524 0.0777273 0)
(1.44485 -0.742292 -7.89085e-20)
(-2.27292 1.60962 2.47568e-19)
(1.98021 -0.0260275 1.08773e-19)
(2.36615 -0.268534 -2.80761e-20)
(1.62832 -0.335316 0)
(2.01996 0.0264736 1.44347e-20)
(2.34722 -0.294824 1.44567e-19)
(-2.09315 0.781993 2.56847e-19)
(2.08204 -0.191421 0)
(0.455623 -0.132676 0)
(1.96999 0.0328098 0)
(2.03325 -0.506101 0)
(1.77936 -0.70691 4.11351e-21)
(1.84984 0.400448 0)
(0.647045 -0.282054 -4.66294e-19)
(2.637 -1.07332 -2.89244e-19)
(2.0642 -0.0199129 -3.14647e-21)
(2.4785 -0.0155478 -6.65879e-20)
(2.31522 -0.017262 0)
(1.52598 1.40719 -1.48347e-19)
(-0.101541 -1.38291 -1.13301e-18)
(2.63702 -0.456082 0)
(1.83101 0.00913975 3.08386e-19)
(2.46547 -1.73315 -1.0453e-18)
(2.30118 0.434137 0)
(2.14116 0.0417426 0)
(1.0746 -0.271006 7.86803e-19)
(1.82261 0.474319 -3.71004e-19)
(2.34587 -0.13306 -1.80317e-19)
(1.11062 -0.531276 8.71732e-20)
(1.46037 -0.733545 -5.76835e-20)
(1.39823 -0.691858 0)
(2.26638 -0.162993 5.46302e-20)
(2.28937 0.695625 -4.92566e-20)
(1.91958 -0.812155 3.55281e-19)
(-0.491285 0.861697 7.92808e-19)
(0.16971 -1.21761 2.77185e-19)
(1.97165 0.0230524 -2.27824e-19)
(0.11787 -1.6774 1.13324e-18)
(1.6343 -0.588144 1.01569e-19)
(1.38747 -0.482152 -2.90242e-20)
(1.17662 -0.419416 -3.30295e-19)
(1.91361 0.0224817 -4.07268e-21)
(2.67001 0.549661 7.34513e-20)
(-1.31036 0.334507 6.22223e-19)
(0.573292 -0.329962 8.48016e-20)
(1.93287 -0.83958 0)
(1.98085 -0.0311196 -1.03214e-21)
(1.08095 -0.506035 2.52729e-20)
(-0.182524 -0.0124048 -1.99857e-18)
(1.44527 -0.749868 0)
(1.18419 -0.94332 0)
(1.82829 0.00582091 -2.87211e-20)
(-0.759754 -0.587738 6.30901e-19)
(1.92603 0.0526401 -2.50119e-20)
(-0.057592 0.0394024 -9.10998e-19)
(1.7897 -1.14257 0)
(1.19145 -0.479085 2.32528e-21)
(0.265873 -0.226042 1.02554e-20)
(1.63185 -1.41989 -2.25967e-19)
(1.98104 -0.979054 0)
(2.29112 -0.73578 0)
(1.97517 -0.175954 0)
(0.748043 -1.03196 -7.7668e-20)
(2.10863 -0.141253 8.95379e-20)
(-2.01498 0.68663 -1.02779e-18)
(2.11811 -0.0970516 -9.94671e-20)
(2.07076 -0.554542 -3.05798e-20)
(1.05019 -0.62113 0)
(1.95705 0.0409182 0)
(2.0776 0.110988 -6.04166e-20)
(2.47329 -0.087431 8.34298e-20)
(1.86806 0.0103822 -2.49677e-19)
(1.59057 -1.96971 0)
(-0.106751 1.60373 1.14566e-18)
(1.09439 -0.0583739 -2.30948e-19)
(2.40662 0.416779 3.27083e-20)
(1.99443 -0.64328 3.71626e-19)
(1.58043 -0.367153 -3.39236e-20)
(2.41059 0.0232516 0)
(2.48819 -0.143628 -9.57385e-20)
(2.03239 0.0588104 0)
(1.97848 0.102062 -1.46872e-19)
(2.07069 0.103467 4.92637e-20)
(2.43104 0.0640313 8.23718e-20)
(1.6347 -0.441058 5.20451e-19)
(1.84886 0.420644 2.07454e-19)
(0.925729 -0.438811 -4.02457e-20)
(1.84368 -0.755588 -2.18037e-19)
(2.63712 1.74515 -1.5729e-19)
(2.04061 0.0086377 0)
(1.85865 -0.471003 0)
(1.39799 -0.679364 0)
(2.32083 -0.284538 3.65952e-20)
(-0.539126 1.40126 8.00139e-20)
(0.849711 -0.42362 4.28631e-19)
(1.91755 -0.000381607 -9.38165e-21)
(2.59135 -0.425864 -3.4343e-20)
(0.214103 0.0275939 6.31895e-19)
(1.98317 2.24556 -6.28949e-20)
(2.17217 0.064884 -1.36578e-20)
(2.24574 -0.135703 5.1901e-19)
(0.923646 -0.398737 0)
(2.75642 -0.0306743 -2.9478e-20)
(-0.0628786 1.94904 -2.14907e-18)
(2.6015 -0.323588 -3.426e-19)
(-1.77388 1.66974 -4.53537e-20)
(1.87703 0.138626 -2.46688e-21)
(1.38223 -0.430602 3.60367e-19)
(2.20889 0.721089 0)
(1.9594 0.059938 -8.64636e-20)
(1.09975 -0.45234 -7.71156e-19)
(1.98974 0.0968461 -1.53396e-20)
(1.31 -0.635463 0)
(2.22311 -0.124707 -1.52783e-19)
(1.06958 -0.517984 2.42509e-19)
(2.33243 -0.732275 -1.03543e-19)
(1.76827 -0.741562 -3.09334e-19)
(2.35968 0.108647 -4.94469e-20)
(2.43718 -0.357337 8.23868e-21)
(0.976821 -0.484067 4.73102e-19)
(2.13538 -0.0539458 2.28464e-19)
(1.8923 -0.424776 0)
(1.83472 -0.837427 -3.48434e-19)
(1.72197 -0.734643 -9.34712e-19)
(2.68724 -0.11589 1.71883e-20)
(2.00566 0.0388997 3.67201e-20)
(2.66538 1.43967 0)
(1.82194 0.0853205 0)
(2.03658 -0.118083 -1.76044e-19)
(0.983579 0.570477 4.11582e-19)
(2.79603 1.14657 0)
(2.41819 -0.1144 1.43298e-19)
(1.57173 -0.697733 -4.06329e-21)
(0.932102 0.320831 -5.65545e-19)
(0.911015 -0.398586 -4.11954e-19)
(0.578664 -0.957439 8.29587e-20)
(1.88748 0.00257915 9.53253e-21)
(0.716624 -0.851428 2.33547e-19)
(2.17054 -0.526124 -1.44457e-19)
(2.24478 0.0959864 0)
(1.45518 -0.142794 -9.68857e-20)
(1.20929 -0.294165 0)
(2.02 0.115596 -4.22318e-19)
(2.03399 -0.473254 0)
(2.2724 -0.0111991 -1.44117e-19)
(1.94204 0.127086 -1.56435e-20)
(2.61465 0.245247 -3.73651e-20)
(1.16475 -0.455317 4.35768e-19)
(1.92295 0.0276612 -3.45653e-19)
(2.04552 0.302269 -3.61353e-19)
(2.0317 -0.872696 0)
(0.240539 -1.79726 0)
(1.24368 -0.492398 -4.2995e-19)
(2.71173 0.228756 0)
(3.3122 0.167666 -8.889e-19)
(1.82421 0.197204 0)
(1.28928 -0.464385 3.14514e-20)
(0.806499 -0.382633 6.43095e-20)
(1.7985 -0.581853 6.53335e-19)
(1.04305 -0.383573 -2.4772e-20)
(2.37274 -0.551735 0)
(1.96147 0.094176 1.33445e-20)
(1.94434 -0.0160807 -2.23075e-19)
(0.601668 -0.30467 -8.87523e-21)
(1.94996 0.0592432 -1.94531e-19)
(2.39858 0.0117331 -5.93805e-20)
(2.38948 0.189699 -4.26132e-20)
(3.17154 0.678122 3.49055e-19)
(2.42137 0.352883 -4.86149e-20)
(-0.0132422 -1.49368 -1.5076e-19)
(1.73804 -0.521294 0)
(0.0298548 -0.140129 9.67661e-21)
(2.01879 0.0713522 -1.49189e-19)
(2.61247 -0.18569 0)
(1.99959 0.0429252 1.30608e-19)
(1.16298 -0.561504 -3.16182e-19)
(1.69399 1.19837 1.29473e-19)
(3.39448 -1.1318 0)
(1.41982 -0.675522 1.15006e-19)
(3.62197 -1.04277 0)
(2.09439 0.0778854 3.35006e-20)
(2.09687 -0.0455933 -6.88361e-20)
(0.774779 0.472682 1.03444e-18)
(1.06052 -0.0847126 0)
(1.57415 0.270458 2.0956e-19)
(1.92028 0.0449891 1.35074e-19)
(0.500356 -0.232071 0)
(1.75421 0.02359 0)
(2.04248 -0.227968 0)
(0.158134 -0.0749588 8.29829e-20)
(0.594991 -0.122421 -3.12148e-20)
(2.34513 -0.194949 0)
(1.95944 0.0176714 0)
(1.50229 -0.424464 4.80395e-20)
(-1.12896 -0.123367 0)
(2.35777 0.345026 4.99746e-21)
(2.928 0.977694 1.94985e-19)
(2.02494 0.0554892 9.71213e-21)
(1.82769 0.377209 -5.73256e-21)
(0.939448 0.408095 6.50411e-19)
(2.99405 1.17962 -2.11354e-19)
(2.43517 -0.222529 6.65377e-21)
(2.03999 -0.0581427 1.46432e-19)
(1.62562 -0.169465 -2.34077e-19)
(1.96414 0.964061 -6.91288e-21)
(2.03059 0.0683127 0)
(0.801639 -0.912592 -2.25978e-19)
(-2.40371 1.37908 0)
(1.22385 -0.591118 -4.92775e-21)
(1.70364 -0.342608 0)
(2.80939 0.42773 0)
(1.31112 -0.627255 -2.59748e-19)
(2.08721 0.0585992 -7.91163e-21)
(-0.324881 0.343736 -1.8157e-18)
(2.07614 -0.0150777 4.49269e-21)
(1.84932 -0.727713 3.51998e-19)
(3.05597 0.840075 2.24203e-19)
(-1.9287 2.06277 1.98616e-18)
(2.03899 0.00441088 3.25674e-20)
(2.11349 -0.85004 1.315e-19)
(1.92309 0.0526536 -2.37384e-19)
(3.72819 -1.38402 0)
(1.82657 -0.15096 -4.44697e-19)
(1.83147 -0.503968 3.63442e-19)
(1.9937 0.110772 -5.21175e-19)
(0.892033 -0.457298 -4.87597e-20)
(1.61912 1.20061 -1.27849e-19)
(2.91854 1.08272 2.98788e-19)
(2.50934 -0.531393 0)
(1.91009 -0.086462 0)
(1.47762 0.676917 -7.35929e-19)
(2.10349 -0.113296 9.30395e-20)
(1.43627 -0.697279 0)
(2.32716 -0.113769 -1.29525e-19)
(2.01043 -0.000504854 -2.83093e-19)
(1.19192 -0.621686 -3.05336e-20)
(1.50667 -0.731339 1.21431e-19)
(2.45758 0.180207 -3.52245e-21)
(1.58133 -1.54851 1.47078e-20)
(2.41811 -0.359161 -2.79779e-19)
(1.98147 -0.49126 2.53862e-19)
(3.35539 0.639738 7.80292e-19)
(1.56242 -0.653579 3.36892e-19)
(1.99032 0.0537116 -1.31272e-21)
(1.00734 0.253141 4.74094e-19)
(2.12759 2.09679 0)
(1.74876 -0.501078 2.1137e-19)
(1.40182 -0.744914 0)
(-2.17218 0.65258 -3.21518e-18)
(1.9839 -1.4731 0)
(0.611206 -0.276235 -1.58851e-19)
(1.66283 -0.712766 -4.73369e-19)
(2.85109 0.685624 -3.72092e-19)
(2.09408 -0.860953 0)
(1.47755 -0.655892 0)
(2.56018 -0.417572 0)
(2.0062 0.0767684 1.11112e-19)
(3.59527 -1.27738 -2.27165e-18)
(0.0505037 -0.0279259 1.3429e-18)
(1.61249 -0.319119 -7.54441e-21)
(3.4555 0.651938 -8.50787e-19)
(2.14362 0.324921 0)
(1.26642 1.90014 2.16937e-19)
(2.55067 1.18331 1.32302e-19)
(2.49937 -0.816961 -6.18629e-19)
(1.57363 -0.734549 2.92079e-19)
(2.8988 0.273535 -2.62285e-21)
(1.17836 -0.57307 5.30076e-19)
(2.25121 0.346319 0)
(2.00593 -0.135768 6.42106e-20)
(1.52831 -0.553727 1.63452e-20)
(1.87972 -0.0230193 2.82479e-20)
(3.3024 0.348151 -4.61618e-19)
(1.71742 -0.381428 0)
(2.49743 0.667091 0)
(3.22585 -1.49055 0)
(-2.25222 1.6212 0)
(1.93671 0.00858446 0)
(1.4559 -0.555497 1.44859e-19)
(3.79549 0.420419 6.45739e-19)
(1.49183 -0.632695 4.00715e-19)
(1.96182 0.0437142 2.37784e-19)
(1.35008 -0.74121 0)
(2.0845 -0.874439 2.70944e-21)
(-0.540176 -0.422607 0)
(1.35297 -0.7886 -7.72572e-20)
(-0.574022 -0.0446664 7.46346e-19)
(4.04757 0.174577 -4.10473e-19)
(1.982 0.148202 2.59454e-19)
(2.01255 0.260032 -8.51336e-20)
(3.30092 -0.710369 -3.74913e-19)
(2.31627 -0.0351001 0)
(-1.96275 1.5514 1.77723e-18)
(2.02825 -0.0320578 0)
(1.5633 0.818652 1.69506e-20)
(2.51415 -0.059208 0)
(2.08649 0.174525 -1.05878e-19)
(2.07699 -0.0619351 0)
(0.965845 -0.380636 -2.90664e-19)
(-0.34474 -0.278886 4.42019e-19)
(1.99886 -0.040019 -8.37815e-20)
(1.40204 0.313747 4.22968e-19)
(0.286315 -0.139494 -1.69915e-19)
(1.83586 -0.357499 0)
(1.04732 -0.241115 -1.11335e-18)
(2.00236 0.0854631 6.79908e-21)
(3.76188 -0.303729 -1.24731e-18)
(1.88476 0.0261435 3.8905e-21)
(2.44632 -1.10444 6.78318e-19)
(3.88045 0.391054 0)
(1.80314 -0.812533 -7.53387e-20)
(1.47944 -0.674357 0)
(2.62099 -0.146922 1.12386e-20)
(0.509286 -0.163258 7.13978e-20)
(1.12185 -0.857383 0)
(2.37731 0.30591 0)
(1.6182 -0.646777 -7.08779e-20)
(2.4413 0.657732 0)
(1.77609 1.71107 6.88283e-20)
(2.96223 0.696878 -3.49898e-19)
(-2.3924 1.04895 -1.01426e-18)
(1.43404 -0.709816 -5.00174e-20)
(1.92394 0.0944168 -6.31658e-21)
(1.10481 -0.64754 -3.00734e-22)
(-0.606984 -0.0119301 -3.33401e-19)
(1.88077 -0.0387254 4.74557e-19)
(1.11932 -0.572732 3.46716e-20)
(0.443635 -0.209495 0)
(2.32767 0.104665 -6.44965e-20)
(1.54304 -0.659215 9.24576e-20)
(0.459843 0.167004 7.73882e-20)
(3.60144 -0.0805429 9.38455e-19)
(2.91017 1.4756 0)
(1.8277 -0.533792 -3.65073e-19)
(1.96955 0.286371 1.47661e-21)
(3.50085 0.524607 -9.93122e-20)
(2.51058 -0.100689 -2.29673e-19)
(1.49997 -0.734575 3.11046e-20)
(0.924705 -1.15666 1.74323e-19)
(1.50459 -0.620417 -9.66806e-20)
(1.49786 -0.734841 1.59343e-21)
(2.42119 -0.222212 -2.03322e-19)
(1.48947 -0.741863 -3.48462e-20)
(1.79773 -0.345287 0)
(1.90225 -0.169172 -4.33767e-19)
(0.257805 1.77757 0)
(1.37696 -0.712175 -3.01068e-20)
(1.47398 1.06441 2.82765e-19)
(-1.10033 1.82982 1.19733e-18)
(1.99639 0.102111 -4.19226e-21)
(0.599999 -0.310523 9.55753e-21)
(-0.789848 1.36731 0)
(2.21451 -0.818009 3.47945e-19)
(2.19578 -0.863111 8.31718e-20)
(-0.610569 1.87431 -9.9964e-19)
(1.81858 0.498547 0)
(1.73278 0.463925 0)
(0.254474 0.279401 0)
(1.50621 -0.516309 -3.2428e-20)
(1.90944 -0.0236133 -4.23325e-19)
(1.39656 0.120982 0)
(1.77848 -0.690621 0)
(2.22992 0.139382 -1.00779e-20)
(1.86659 -1.08112 5.01819e-21)
(2.07101 0.13684 -3.12372e-19)
(1.68718 -0.390465 -4.41437e-20)
(1.79865 0.0193279 5.06355e-20)
(1.97633 0.0537102 -1.00481e-20)
(1.98522 0.102873 -2.3836e-20)
(1.96659 0.464049 -2.37879e-20)
(1.93883 1.16235 0)
(-0.458464 -0.0702814 2.88145e-20)
(-1.41538 1.44687 0)
(1.0369 0.128081 0)
(2.77183 -0.0240939 -4.10607e-19)
(1.24197 -0.770402 0)
(2.43561 0.352413 0)
(1.95664 -0.147619 6.67093e-19)
(1.90335 -0.839601 0)
(1.9987 0.17563 3.70252e-19)
(3.37783 0.125899 4.59972e-19)
(3.17132 0.249655 1.53024e-19)
(1.98695 0.103285 1.67317e-21)
(1.19611 1.26508 2.36439e-19)
(2.23379 -0.857406 4.00294e-21)
(2.00429 -0.797589 -6.21745e-21)
(1.21756 -0.47116 4.19976e-19)
(1.16234 -0.673389 0)
(0.979241 -0.484298 0)
(1.04644 -0.586764 -1.21426e-19)
(-0.262659 -0.27493 -5.84611e-19)
(1.47048 -0.678597 0)
(1.13801 -0.634696 6.12251e-20)
(-0.778687 0.113816 0)
(-1.86966 1.85435 1.95501e-18)
(1.16932 -0.541515 -5.44598e-19)
(3.29848 -0.0242922 -2.06641e-20)
(3.10547 0.455621 3.68931e-19)
(1.26584 -0.429055 8.49998e-20)
(2.33075 -0.12746 1.03744e-19)
(2.41537 0.89468 0)
(2.50439 0.779238 0)
(1.10278 0.00382891 0)
(0.0673796 0.0795585 -7.541e-19)
(1.45614 -0.564431 0)
(2.37174 0.567571 0)
(2.00957 -0.035361 0)
(2.48947 -0.398137 -5.61429e-20)
(-2.05354 0.883856 5.71029e-19)
(2.05654 -0.799002 -1.90996e-19)
(1.48104 -0.525065 8.04838e-20)
(1.80904 0.317635 0)
(1.068 -0.992298 0)
(1.99542 -0.608967 -3.39001e-19)
(1.6074 0.497898 6.25213e-19)
(0.693423 -0.446881 -7.45104e-20)
(2.10385 0.152902 -9.45295e-21)
(1.77504 -0.476358 3.87279e-19)
(1.01419 0.442111 -1.02094e-18)
(-0.420073 -0.40262 0)
(1.25934 1.28708 -5.57639e-19)
(0.433785 0.310278 -6.40774e-19)
(3.13344 0.0500917 0)
(2.37012 -0.116456 0)
(1.77408 -0.0084242 0)
(2.01997 0.0368247 -4.21084e-19)
(1.47812 0.225823 -4.32917e-19)
(1.66927 0.104161 0)
(3.60865 1.28012 1.77381e-18)
(1.83911 -0.824446 3.53223e-19)
(2.52733 -0.358359 6.82518e-20)
(1.1028 -0.524364 5.09534e-20)
(2.05621 -0.287904 0)
(2.44877 0.107092 4.03292e-20)
(1.80587 -0.444401 0)
(1.52569 -0.679018 -8.98217e-20)
(1.7793 -0.808416 0)
(2.15838 -0.782889 4.21364e-19)
(1.5496 -0.323856 -8.80381e-22)
(2.03269 0.0637337 -1.16908e-20)
(2.50619 -0.370159 0)
(1.86382 -0.801489 0)
(1.6378 -0.699778 -4.9442e-19)
(2.28952 0.337679 -5.51904e-21)
(1.39907 -0.768486 3.8274e-20)
(0.895883 -0.429272 4.26213e-19)
(1.92824 -0.0735523 0)
(1.59327 0.208229 -6.56117e-19)
(2.2332 -0.0113256 -5.11939e-20)
(1.5309 -0.491583 -3.34652e-20)
(2.03182 0.0688716 -1.62029e-20)
(2.04957 0.0893964 0)
(1.22671 -0.363649 5.9719e-19)
(0.9877 0.173884 -6.53101e-19)
(3.69129 0.318472 1.01555e-20)
(1.82746 0.237062 -7.37525e-19)
(1.13796 -0.535914 4.58092e-20)
(1.04921 0.448147 -1.69571e-18)
(1.67625 -0.302365 5.34331e-21)
(2.06697 -0.00158291 -3.92389e-20)
(2.19019 0.296655 1.49699e-18)
(-0.527994 0.0516735 1.30287e-20)
(1.31622 -0.644631 8.42279e-20)
(1.37187 -0.774086 8.0628e-20)
(1.79122 0.0314962 1.21254e-20)
(2.41243 -0.204417 0)
(4.08235 -1.1364 2.07666e-18)
(1.17899 -0.574358 2.39601e-19)
(1.71958 -0.269387 2.31578e-19)
(-0.791514 -0.11583 0)
(1.66712 -0.399091 -6.21862e-20)
(1.98537 0.00439803 1.97686e-21)
(1.91913 0.0744813 0)
(-1.14749 -0.0341915 4.23747e-19)
(1.50023 -0.7914 2.481e-20)
(1.84243 0.219135 0)
(1.09926 -0.423422 0)
(1.58101 -0.443263 -4.64689e-20)
(1.58939 -0.53817 -1.03766e-20)
(2.71913 -0.0343658 1.46385e-19)
(0.339003 -0.25418 0)
(2.03887 0.0805324 -3.74411e-19)
(1.95877 -0.385782 -4.49617e-20)
(2.22532 -0.756235 2.4065e-20)
(1.27066 -0.490697 5.28444e-19)
(1.30729 -0.705903 -6.80927e-20)
(1.28328 -0.824154 5.03763e-20)
(3.64573 0.210561 -8.79539e-21)
(1.9083 -0.934346 0)
(2.78641 0.713032 -1.39014e-18)
(1.62298 -0.6474 2.47453e-19)
(2.10286 1.92495 1.81296e-19)
(0.877572 0.589303 0)
(1.18965 -0.249864 -5.2783e-19)
(1.27429 -0.538741 -6.41465e-19)
(1.12462 -0.692185 8.35809e-20)
(-2.06541 1.24675 -1.83386e-18)
(2.58403 1.63592 0)
(-0.530989 -0.300094 -8.45951e-19)
(2.26447 0.405431 0)
(-0.359599 1.20161 -1.65939e-18)
(0.0727622 -0.11775 1.3577e-18)
(0.106364 -1.66089 0)
(1.18463 -0.765262 2.99775e-20)
(1.65136 -0.1191 -9.56885e-20)
(-2.43102 1.19518 6.37983e-19)
(1.72523 -0.677308 4.48838e-19)
(0.913546 -0.544639 -2.05673e-19)
(1.24116 -0.567656 0)
(2.01547 0.0655894 1.33473e-19)
(2.67915 0.353475 0)
(2.22219 0.174573 -3.0794e-21)
(-0.380523 0.35223 -1.63383e-18)
(0.607697 -0.247855 2.78067e-19)
(2.05682 0.111891 0)
(1.93703 -0.782643 -3.37025e-19)
(2.57462 -0.385985 9.71466e-20)
(1.19656 -0.862806 1.26642e-19)
(1.49631 -0.767261 0)
(1.22828 -0.830064 -1.12654e-19)
(3.58667 0.452717 -9.86444e-19)
(1.63045 0.190308 8.39694e-19)
(1.81043 -0.320507 0)
(2.09483 -0.0251269 2.0518e-19)
(0.0891739 1.15563 9.57209e-19)
(-2.11767 0.728314 -3.40239e-19)
(2.23383 -0.59613 1.31274e-19)
(1.22652 -0.575091 0)
(1.71476 -0.0853065 -1.68304e-20)
(2.00722 0.0482077 7.04778e-22)
(2.5646 -0.354478 1.07154e-19)
(2.22436 0.0592038 0)
(1.05445 -1.06331 7.7975e-20)
(1.71183 -0.480575 -3.73903e-22)
(1.32501 -0.39089 6.55784e-20)
(3.33902 0.255203 0)
(2.08271 -0.815328 -1.49278e-19)
(1.04684 -0.664975 1.46335e-19)
(1.76874 -0.43858 -4.84461e-19)
(0.153185 0.18524 0)
(1.84949 -0.866417 7.07209e-20)
(2.10574 -0.791029 1.22523e-19)
(1.246 -0.608546 -8.52846e-20)
(1.85944 0.33079 0)
(-2.27857 1.09768 2.17145e-18)
(1.58629 -0.484975 0)
(0.725973 -1.22912 2.04933e-19)
(1.67391 -0.603158 0)
(1.88395 -0.151919 -2.45943e-19)
(2.19915 -0.247732 -2.50612e-19)
(3.21632 1.0918 -8.98214e-19)
(1.47906 -0.363896 0)
(2.04603 -0.877822 -2.30704e-19)
(2.06568 0.0250537 0)
(2.32042 0.313824 0)
(2.13547 -0.878927 6.61813e-20)
(0.926559 -1.06996 8.07283e-20)
(0.638475 -0.10429 1.74991e-19)
(2.16194 -0.574228 -7.87966e-20)
(1.68602 0.292298 2.72739e-19)
(1.228 -0.688404 -1.12254e-20)
(2.07666 0.14646 1.46586e-19)
(-0.674381 -0.456583 -7.46088e-20)
(1.85848 -1.39082 0)
(2.35621 0.16266 0)
(-0.117281 -0.450038 0)
(1.46581 -0.719325 1.29621e-19)
(1.23242 -0.431034 -3.7104e-19)
(1.5379 0.116911 0)
(0.839382 -0.409421 1.44937e-19)
(2.33761 -0.124431 -1.74976e-19)
(1.12458 -0.532495 -5.30425e-20)
(1.44108 -0.526986 -1.20574e-19)
(2.21287 -0.880661 0)
(-2.22359 0.90202 1.69118e-18)
(-1.34624 0.124776 -1.16777e-18)
(-0.327629 -1.17932 0)
(-0.626501 -0.161065 -1.13117e-18)
(2.02843 0.03951 4.45434e-21)
(2.47988 0.275598 7.66059e-20)
(1.977 0.0331162 2.49168e-19)
(2.84548 0.866403 -3.80397e-19)
(2.36399 0.211385 5.30015e-21)
(0.907808 1.44519 0)
(1.98963 -0.790429 0)
(0.672199 -0.329885 1.43533e-19)
(-1.64673 1.27046 0)
(1.65726 -0.344439 -6.28551e-20)
(2.19801 -0.78982 -2.20878e-19)
(1.03207 -0.483802 4.47024e-19)
(2.00113 -0.0923618 -6.45231e-20)
(1.74412 0.342757 -2.70581e-19)
(1.58248 -0.640517 -2.43393e-19)
(1.67304 -0.661439 -4.51437e-19)
(1.568 -0.533469 0)
(1.779 -0.691254 4.27757e-19)
(1.96695 -0.0557865 0)
(2.55929 -0.387915 -5.51063e-21)
(2.0599 1.23261 8.46449e-21)
(1.78358 -0.905867 -8.44633e-20)
(2.25587 -0.393962 -2.13598e-19)
(-1.86008 1.67462 -1.507e-18)
(-0.658004 -0.141966 0)
(1.61041 -0.736612 -2.80992e-20)
(1.42018 -1.36843 -1.78526e-19)
(2.07383 0.537591 -1.46945e-19)
(1.88692 -0.766066 3.94468e-19)
(2.18985 0.0346034 -4.00361e-21)
(-2.24412 1.05861 6.96769e-19)
(1.8586 -0.780473 -7.62543e-20)
(0.419319 0.0722311 0)
(1.23411 -0.586006 1.56271e-19)
(1.81889 -0.396992 2.56047e-19)
(2.01288 0.0193761 -4.99729e-23)
(1.24389 -0.542412 9.4129e-19)
(-0.500673 1.87235 -2.34869e-20)
(1.70641 0.576751 0)
(1.50333 -0.72868 -5.2541e-20)
(1.09466 -0.96363 -9.0922e-21)
(1.14189 -0.363509 -7.0863e-19)
(1.4524 -0.696522 5.72023e-20)
(3.16363 0.618012 -3.9233e-19)
(2.15592 0.518101 -1.11024e-21)
(1.0158 -0.42213 3.20902e-19)
(1.84506 -0.390473 0)
(2.39496 0.00140122 -1.15797e-19)
(2.19796 0.0644275 -3.39175e-21)
(3.04354 0.56231 -3.7429e-19)
(1.74706 0.598069 0)
(3.40944 0.530947 3.67418e-20)
(-0.665804 1.13113 1.59692e-18)
(1.67385 -0.723711 9.57641e-19)
(1.89164 0.766999 1.8747e-20)
(3.15807 -1.11248 -1.19042e-18)
(-2.12842 0.778455 3.41266e-18)
(2.03991 -0.780091 3.91191e-19)
(2.09716 0.013411 -3.56497e-21)
(-0.409076 0.853238 7.16401e-21)
(2.39105 -0.0689346 2.55276e-20)
(1.13195 0.170183 0)
(2.03142 0.0131971 0)
(2.29889 0.427707 0)
(1.82738 -0.708495 -3.711e-19)
(1.69512 -0.632729 6.71716e-20)
(-0.331458 1.4744 0)
(1.28424 -0.389596 -1.53612e-19)
(0.597395 -1.98783 0)
(2.92315 -0.819981 0)
(0.168972 1.73131 0)
(1.9347 0.033709 0)
(-2.26118 1.13509 -6.84437e-19)
(-0.911588 -0.344351 0)
(2.22761 -1.14162 2.94998e-19)
(1.71126 -0.0470602 0)
(1.99247 0.0373834 0)
(1.93393 0.148206 1.15608e-21)
(-0.624756 -0.269138 0)
(1.89419 -0.798195 0)
(-0.361727 0.858655 0)
(2.21749 0.0339208 2.19975e-20)
(2.11317 0.323913 0)
(2.2253 -0.864292 -8.46939e-21)
(1.35545 0.89682 -1.85282e-20)
(-1.90688 0.678072 -4.32466e-19)
(2.00694 0.0322966 6.00738e-19)
(-0.19622 -0.00659334 -3.70108e-20)
(1.1143 0.849511 -5.40281e-19)
(1.49219 0.653942 0)
(2.45052 -0.346219 8.49188e-21)
(1.66272 -0.204893 -2.26098e-19)
(1.6451 1.59477 1.29255e-19)
(1.85343 0.342887 3.74726e-19)
(0.844668 -0.317304 -6.74558e-19)
(1.57271 -0.694492 -3.75714e-19)
(2.03504 -1.31795 4.08162e-20)
(1.55127 -0.775719 0)
(2.43641 -0.508268 -2.83364e-21)
(1.61301 -0.751514 3.31455e-20)
(2.54876 0.163816 -6.42222e-20)
(0.787314 -0.510351 0)
(1.86626 0.0548276 -2.78627e-19)
(3.20007 0.587549 -1.08229e-18)
(1.42005 -0.576847 4.86623e-19)
(1.30082 -0.591704 -5.88052e-19)
(1.71995 -0.794719 0)
(1.82976 -0.807331 0)
(2.06568 -1.01924 2.5835e-19)
(2.32651 -0.383972 -1.33188e-19)
(3.15694 -0.163593 -5.22764e-19)
(1.87499 0.0288744 5.85172e-21)
(1.26433 -0.359141 -1.42614e-19)
(1.76959 -0.523756 4.09763e-19)
(2.40362 0.225938 0)
(2.36231 0.267655 1.57646e-20)
(-1.76113 0.183354 -2.03887e-18)
(1.76786 -0.834996 1.76553e-19)
(1.0911 -0.229422 -3.02839e-20)
(-0.515771 0.662624 8.99757e-19)
(3.06498 -0.119477 4.36525e-19)
(2.52581 0.601396 7.53666e-20)
(2.36304 0.494235 0)
(1.43832 -0.75019 0)
(2.27669 -0.863437 -1.45709e-21)
(1.20345 -0.276562 0)
(1.89527 -0.424959 1.70768e-19)
(1.65945 0.247746 4.73419e-19)
(1.71147 0.475157 -1.37717e-19)
(1.64411 -0.669838 9.78463e-19)
(2.01222 0.0525439 -3.83818e-22)
(1.80842 0.0441678 0)
(1.92348 0.0297438 -3.55437e-21)
(0.401342 1.41026 -9.71067e-19)
(2.10338 0.231562 0)
(2.64416 -0.393784 0)
(1.96616 -0.800907 1.44056e-19)
(1.94118 0.475494 2.00987e-19)
(1.12382 -0.191328 0)
(2.12335 -0.628727 8.10005e-23)
(2.29553 -0.0793265 1.06885e-19)
(2.29867 0.27471 2.20087e-20)
(1.79653 0.457406 4.03159e-19)
(1.4992 -0.740537 -6.67079e-20)
(1.36516 -0.323839 0)
(-1.55701 1.85665 -3.63016e-18)
(0.560118 -0.250033 1.00836e-18)
(2.06303 -0.0214264 1.60425e-20)
(-1.24391 1.62804 -1.66933e-18)
(1.86296 -0.777071 2.79566e-20)
(2.4998 0.155156 1.7437e-19)
(1.83513 -1.27416 0)
(1.95607 0.138331 2.93081e-21)
(1.83687 0.0283199 8.74886e-20)
(2.26174 -0.0134881 -1.56605e-19)
(2.23506 0.443663 -9.89835e-20)
(2.25474 -0.819904 0)
(1.40225 -0.710778 0)
(2.35613 0.0170255 0)
(2.34272 0.365298 -4.87001e-20)
(1.1093 -0.517698 7.01402e-19)
(2.49233 1.64028 -1.10017e-19)
(1.5282 -0.129265 0)
(0.136372 -0.442918 -5.50731e-20)
(1.465 -0.73448 5.92642e-20)
(0.159449 -1.3474 0)
(1.91814 0.264652 -1.23065e-19)
(1.69309 0.22082 -1.5866e-19)
(2.44037 -0.411995 -4.90761e-20)
(2.02816 0.0653016 -1.20938e-20)
(0.740886 -0.277623 0)
(2.14287 0.242774 -1.48684e-19)
(2.06326 -0.447988 0)
(2.04107 -0.286 9.1593e-21)
(1.01334 0.0468754 0)
(2.32646 0.780542 5.50182e-20)
(1.74981 -0.699831 -4.37271e-19)
(2.4257 0.750912 0)
(1.87989 -0.102666 -4.28528e-19)
(2.03879 0.0931619 1.73271e-20)
(1.70598 -0.148117 0)
(1.19039 -0.568037 0)
(0.587088 0.144966 -8.58993e-20)
(2.55691 -0.14628 -1.17199e-20)
(1.53103 -0.723002 -3.92112e-20)
(0.798855 -0.49024 -1.8537e-20)
(2.33492 -0.122537 1.52812e-21)
(2.17087 0.635454 7.02514e-19)
(1.7717 0.402564 -1.75249e-21)
(2.12519 0.559189 0)
(3.40775 0.389081 4.84662e-19)
(1.76896 -0.807496 0)
(1.56379 -0.716998 -4.11061e-19)
(1.86973 -0.81197 -5.04284e-19)