/*--------------------------------*- C++ -*----------------------------------*\
| =========                 |                                                 |
| \\      /  F ield         | OpenFOAM: The Open Source CFD Toolbox           |
|  \\    /   O peration     | Version:  2306                                  |
|   \\  /    A nd           | Website:  www.openfoam.com                      |
|    \\/     M anipulation  |                                                 |
\*---------------------------------------------------------------------------*/
FoamFile
{
    version     2.0;
    format      ascii;
    arch        "LSB;label=32;scalar=64";
    class       surfaceScalarField;
    location    "8";
    object      phi;
}
// * * * * * * * * * * * * * * * * * * * * * * * * * * * * * * * * * * * * * //

dimensions      [0 3 -1 0 0 0 0];

oriented        oriented;

internalField   nonuniform List<scalar> 
7520
(
-0.968186
0.784918
0.183268
-1.31283
-0.197471
1.5103
-0.089449
-1.85508
1.94452
0.237255
-0.0334867
-0.203768
0.226842
2.03275
-2.25959
-0.0924744
0.0995335
-0.00705909
-0.323948
2.13626
-1.81231
-0.199104
-2.08802
2.28712
-1.55143
1.46198
0.823996
-0.0962592
-0.727737
0.418917
0.0342835
-0.4532
-0.261618
-1.53905
1.80066
0.609413
-0.0182548
-0.591159
-0.100792
0.139518
-0.0387261
-2.24603
0.981372
1.26466
0.0757866
1.50807
-1.58385
0.311699
0.00143662
-0.313135
0.06955
-0.498508
0.428958
0.0329975
0.0245616
-0.057559
-0.106623
0.418322
-0.385793
-0.27975
0.665543
-1.04338
1.11917
-0.0401617
-0.320456
0.360618
0.143713
-0.144546
0.000832895
0.09724
-0.182382
0.0851419
0.25739
-0.24959
-0.00780004
0.871402
1.11772
-1.98912
-0.0387157
0.324804
-0.286088
-0.0184486
0.0514461
0.218469
-0.0381078
-0.180361
-1.10293
1.71251
-0.609577
-0.0489098
-0.0189024
0.0678122
-1.84961
2.03338
-0.183766
0.171778
-0.389814
0.218037
-0.334296
-1.22403
1.55832
-0.33794
0.960644
-0.622704
0.269617
-0.547777
0.27816
0.821508
-1.58861
0.767101
0.0916669
-0.314776
0.223109
-0.0485724
-0.108017
0.156589
-0.0274145
0.264669
0.221172
-0.56185
0.340679
0.291702
-0.0343118
2.066
-1.59039
-0.47561
-0.551182
-0.606441
1.15762
-1.4644
1.58839
-0.123993
-0.100898
-0.188591
0.289488
0.267387
-0.0799022
-0.187485
-1.31977
0.216838
0.278378
-0.0778771
-0.200501
1.7989
0.17602
-1.97492
-0.710623
0.252542
0.458081
-0.0314664
0.0309932
0.000473201
1.0698
0.500858
-1.57066
0.0144417
-0.106916
-0.764004
0.123086
0.640918
0.387728
-1.26077
0.873041
-0.044414
-0.123783
0.168197
-0.119372
0.0704621
-2.24772
1.18563
1.06209
1.55327
-0.697737
-0.855534
0.0459461
0.156717
-0.202663
-1.29817
0.963871
0.783128
-0.173714
0.00189152
-0.0333579
0.00426868
-0.105061
1.19583
-2.4607
1.26487
0.142521
1.65638
-1.27572
0.993803
0.281916
0.321075
-0.24023
-0.0808447
-0.511849
0.899576
-0.175004
-0.564641
0.739645
0.347735
-0.0941465
-0.253588
-0.264725
0.0832083
0.181517
1.03391
-1.5999
0.565989
0.131883
-0.115114
-0.0167686
1.8477
-0.508493
-1.3392
0.405631
-0.760459
0.354828
1.62133
-1.11614
-0.50519
-0.837432
0.0734285
-1.5598
-0.687921
0.931736
-0.776243
-0.155492
0.230135
-0.62263
0.392495
-0.266829
0.438607
-0.501941
0.571491
0.236362
-0.0178935
0.018906
-0.0465172
0.0276112
1.19492
0.652775
-1.99422
2.39948
-0.405259
0.711857
0.841414
-0.991939
1.11314
-0.121201
0.00471063
-0.0921723
0.0874617
1.36247
-1.62408
0.244892
0.197567
-0.1059
-0.0771957
0.36987
-0.292675
0.00739632
0.0880918
-0.0954881
-0.533425
0.389527
0.143898
1.47316
-0.439251
-0.732356
0.625793
0.106563
1.27113
-1.58034
0.309208
-0.0904981
0.11412
-0.0236218
-0.0170447
0.109508
-0.0924638
2.76873
-1.82318
-0.945555
0.528717
-0.404708
-0.563478
-1.34178
0.829932
-1.92851
1.60456
0.168988
-0.0789407
-0.0900473
0.489454
-0.0705377
-0.164333
0.163125
0.00120775
-0.0939249
0.119982
-0.0260575
2.00099
-1.17949
-0.146268
0.01387
0.132398
-0.748636
0.362843
0.0352564
-0.00659189
-0.0286645
0.720504
0.211231
-0.763828
0.48625
0.277579
0.571767
-1.27027
0.698507
0.0405677
0.103145
-0.172745
-0.537878
-0.355166
0.0889675
0.266199
0.988264
-0.164268
0.727507
-0.65729
-0.0702173
-0.0131501
-0.0968176
0.109968
-0.277273
0.257065
0.0202088
0.713916
-1.88797
1.17405
0.389481
-0.429643
-0.340715
-0.0613008
0.402015
-0.0327395
-0.113529
-0.38508
-0.191208
0.576288
0.145193
0.0322316
-0.177424
-0.0643334
0.209526
-0.576353
-0.187476
-0.687892
-0.476083
1.16398
-1.45965
2.47937
-1.01971
0.375166
-0.387786
0.0126201
-1.14989
-0.191886
-0.0343934
-0.0513938
0.0857872
1.42678
-0.356984
-0.628591
0.411465
0.217126
-0.0454501
0.213239
-0.167789
0.296887
-0.0760307
-0.220856
0.264765
-2.11984
0.318455
-1.78285
-2.7771
1.23368
1.54342
-0.854274
-0.421445
-1.71691
1.74071
-0.0237955
2.18721
0.182464
-2.36968
0.187987
-0.23656
0.816315
0.0087471
-0.825062
-0.256419
-0.172792
0.429211
0.39484
-2.11175
-1.84957
-3.94548e-05
0.00702333
0.0118826
0.0644476
-0.124081
0.0596332
0.288251
-0.332665
1.57222
-0.301097
-0.156864
0.129449
-0.0173503
0.00229252
0.0150578
0.759746
-0.420878
-0.338867
-0.448116
-1.79791
-0.0748291
-0.18159
0.0217372
-0.572465
0.550728
0.240191
0.213916
-0.454106
-1.52943
0.91142
0.618009
1.10028
-0.873437
-0.0992608
0.476612
-0.377351
-0.198165
0.295405
0.520636
-0.244393
-0.276243
0.548604
-0.625799
0.239573
-0.31745
0.8782
0.315619
-1.19382
0.303525
-0.342241
-0.339785
-1.44079
1.78058
1.27774
0.666707
0.693687
-0.463553
-1.31235
0.974407
-0.703945
0.918799
-0.214854
0.00172935
-0.0321571
0.0304278
0.256979
-0.295592
0.0386129
-0.599375
1.31988
-0.270485
-0.154734
0.425219
0.389089
-0.148899
-0.867784
0.889521
0.581593
-1.06036
0.478762
-0.508247
-0.0251782
0.679156
-0.40954
0.143032
-0.0111491
-0.0550461
0.105108
-0.0500616
0.0769166
-0.170841
-0.46145
-0.0765778
0.538028
0.132322
0.215413
-1.05647
-0.543433
-0.747995
-0.781435
0.0213172
0.0755563
-0.0968735
0.905366
-0.0516632
-0.853703
-1.61348
0.153824
-1.21563
2.21438
-0.998754
0.360233
0.160403
-0.363103
0.467708
-0.104605
-0.754526
0.581781
0.573823
-1.12501
1.74975
-0.0634912
-1.68626
-1.4282
1.89439
-0.466189
-0.0245526
0.0890002
0.379095
1.53325
-1.91234
0.0343562
-0.167723
0.133367
-0.129854
1.80154
-1.67169
0.000673153
0.117009
-0.117682
-0.895545
1.23747
-0.341923
-0.0988602
-0.655666
0.00746395
-0.468914
0.275563
-0.168
-1.91877
2.08677
0.0361211
-0.0115595
-1.77893
0.72246
-0.470561
-0.0427584
0.513319
0.104354
-0.117504
0.130503
1.58461
-1.71511
-0.524404
-0.585082
1.10949
-0.521576
0.40801
0.113566
2.89647
-1.90655
-0.989925
0.476385
-1.00079
0.060777
-0.0596422
-0.00113482
0.0961428
0.737381
-0.833523
0.0499648
-0.0529997
0.00303491
0.845698
0.799331
-1.64503
-0.2369
-0.495456
-0.0750734
0.197358
-0.122285
-0.919298
0.689392
0.229906
-0.0773525
0.0410719
0.0362807
1.36657
-0.461199
1.0408
-1.93412
0.893327
-2.78456
1.21114
1.57342
-1.17043
-1.61412
-0.359268
0.461538
-0.10227
0.363302
-0.213034
-0.150268
1.02174
-1.73375
0.712011
0.0344951
1.07869
-1.11319
-0.502801
-0.273443
1.12656
-0.248357
1.32625
1.2855
-2.61176
-0.183791
0.0881947
0.0955962
0.0370454
-0.956343
1.8646
-0.468157
-1.39645
0.136928
-0.102572
0.0188937
0.374895
-0.373459
1.05024
0.81436
0.172175
0.668065
-0.840241
0.366657
-0.0418531
-0.0607806
0.000457333
0.0603232
0.486608
-0.360856
-0.125753
-1.82609
0.876877
0.949214
0.355447
0.00785498
0.907461
-1.59535
0.0931897
-0.0339455
-0.0592442
0.135309
0.132078
-1.63469
1.5724
0.0622916
1.17735
-0.595752
-0.00607627
-0.0284061
0.0344824
0.0314563
-0.100909
0.0694526
0.123603
-0.217749
1.75527
-0.55944
-0.125309
0.37777
-0.25246
0.000951318
-0.0183016
0.556085
-0.521801
0.664174
-0.294304
-0.664669
0.699164
0.0206125
-0.0756586
2.13626
0.0100174
-0.0152526
0.00523521
0.126523
0.537651
-0.204687
0.132978
0.071709
-0.102852
0.0858069
0.520472
-0.2993
1.38107
-0.564758
0.438548
-0.369053
-0.0694956
0.312222
-1.20777
0.00462314
-0.389703
-2.09446
1.92646
0.0389428
0.0218342
-2.29356
0.240177
-0.285627
0.075231
0.13926
-0.214492
-0.610869
-1.21522
1.42896
1.33978
1.68929
-0.777867
-1.53905
0.143012
0.584495
0.25937
-0.264954
0.00558438
0.172244
-0.241502
0.0692585
-1.24985
0.643413
-0.203286
-0.258132
0.461418
0.250911
-0.34717
-0.105541
-2.01287
2.11841
0.964513
0.220926
-1.51246
1.29154
0.94692
1.08646
-1.34814
1.5698
-1.19071
-0.0600813
0.395688
-0.335607
-0.877363
0.750408
0.126956
-0.23828
0.11297
-0.0871539
0.332034
-0.24488
-0.235042
-0.252231
0.487273
-0.532377
1.81011
-0.276944
-0.37
0.646944
-0.405681
0.304784
0.228187
-1.22013
-0.104716
0.043935
0.0090354
-1.89738
0.973979
0.923399
0.383545
-0.4018
0.00875268
-0.0165031
0.391669
1.27725
1.61923
1.651
-0.503394
-1.1476
0.121145
-0.0440146
-0.0771303
0.668608
0.952722
0.115729
0.14364
0.547047
-2.1961
1.64905
-0.0999612
0.0859983
0.0139629
0.868961
0.6042
-0.214161
-0.100615
0.718139
-0.545964
-0.563332
1.43473
0.158433
0.0105547
1.19465
-0.622881
0.148053
-0.140656
1.7884
-0.137403
0.102535
0.40811
0.0304386
0.0190295
0.302045
-1.75249
-0.839768
0.925511
-0.0857429
0.00614692
-0.121261
1.8173
0.0177747
-1.83507
-0.715049
0.438106
0.229407
0.0674794
-0.310959
0.0707289
0.0371997
-1.15334
1.5471
-1.57566
0.0285576
0.00113198
-0.242675
0.241543
-0.619274
1.48824
-0.835804
1.54972
0.0195218
-0.0183898
0.748459
-0.26221
1.95074
-0.588275
0.00126541
0.139352
-0.140618
-0.0803606
-0.0837645
0.164125
0.118404
0.00274106
-0.358479
-0.71175
-0.0435421
-0.300863
0.344405
1.00849
1.47087
-1.61534
1.27555
0.120725
-0.461439
-1.07021
0.895203
-1.13027
1.33383
-0.203555
0.522846
-1.67747
1.54762
1.66536
-0.47044
1.322
0.744002
-0.0693773
0.259206
1.28789
-1.31536
0.300188
1.01517
0.260526
-0.298634
0.332312
0.0231348
-0.215654
0.15132
-0.131906
-1.45848
0.421747
-1.23935
0.817604
-1.53213
1.02449
0.507648
0.251704
-0.816345
-0.224753
0.270699
0.0897483
-0.135444
0.038588
0.0968561
-0.55234
0.453079
1.12605
0.539313
-1.4282
-0.123193
-0.15408
1.62721
-1.4396
-0.187605
-0.404147
1.9374
-1.63728
2.45742
-0.820145
-0.708162
1.01815
-0.309992
0.0662621
-1.36443
0.140893
-0.353926
-0.274192
0.426553
-0.152361
0.09454
0.0149685
1.33864
0.676812
-1.21122
0.534407
-0.027049
-1.54566
1.57271
-0.0540266
-0.110306
0.00232632
-0.456577
0.454251
-0.360994
1.02864
-0.667642
0.201188
-0.139344
-0.0618438
0.328855
-0.270543
-0.0583113
-1.9874
1.78993
2.50552
-0.511741
-1.99378
0.0772115
-0.00690195
-0.0703095
0.00361431
0.168629
0.105203
-0.61345
-0.829078
1.67478
0.0361834
-0.000926959
1.74975
-0.983361
1.0795
0.109821
-0.109821
-0.212022
0.36828
-2.3625
2.24626
-0.931167
-1.3151
-1.3793
0.828821
0.550475
0.00225517
0.0501104
-0.0523656
1.0184
-1.20541
0.18701
-0.577822
-0.186412
0.764234
0.350815
-1.9125
1.56169
-0.0732042
-0.804159
-0.212328
0.131967
-0.170637
-0.572357
0.742994
0.718304
0.445909
-1.16421
-1.38711
-0.425516
0.685438
-0.259922
-0.642179
0.889266
-0.247087
1.4477
-1.3172
0.315616
-0.359158
0.109065
-0.377761
0.113036
-1.46396
1.63773
-0.173771
-1.18234
1.71905
-0.53671
-0.0178467
0.137274
-0.119427
-1.65412
-0.806577
-0.0304722
0.0120236
-1.67924
0.46361
-0.374051
0.286897
-0.16372
-0.544442
-0.0585965
-0.0413647
-0.78133
2.10758
0.0493733
-0.369829
-1.52453
0.127892
1.39664
0.299437
-0.241115
-0.0583225
-0.876845
0.1729
0.218161
-0.569686
0.351526
1.60593
-0.146703
-1.45923
-0.0117723
0.228076
-0.216304
-0.356941
0.467294
1.14451
-1.61181
-0.698021
1.67939
0.156103
0.692165
0.734617
-0.0307859
1.57711
0.211291
-1.41719
1.39014
0.324908
-0.00677998
-0.318128
0.437328
-0.0407334
-0.396595
-1.98417
0.346897
-0.058846
-0.503004
-0.569171
-0.270597
0.258278
0.784313
-0.197599
-0.586714
0.192401
0.0993013
-0.735834
1.2864
-0.550563
0.158256
-0.242021
-0.0579718
0.314951
0.251418
-0.52561
0.096128
0.400687
-0.496815
-0.0727494
-0.050049
0.122798
0.612084
-0.000643537
-0.611441
-0.0189094
-0.162096
0.181006
-0.292065
0.323447
-0.031382
0.0021329
-0.272703
0.27057
0.324987
-0.064461
0.416027
-0.407544
-0.00848283
1.56879
-1.0386
-0.950519
-0.0705206
0.164859
-0.0943383
0.0626918
-0.0742513
-0.277911
-0.243665
1.09771
-0.313397
-0.00785349
-1.23459
1.24245
-0.333089
-0.0220769
-0.00522249
-0.57113
0.226163
0.102692
0.174821
-0.174148
-1.31425
-0.0364955
-0.0831153
0.119611
1.30229
-0.986666
1.26621
1.23931
0.197523
-0.104334
-0.156273
-1.69703
1.8533
0.798476
0.376487
-1.17496
0.276749
-1.02486
0.670757
0.354105
0.249028
0.0504092
0.0144714
0.0815096
-0.095981
2.08893
-1.10521
-0.983713
0.13657
-0.304602
0.168032
0.736603
0.308917
-1.04552
0.070391
0.102536
-0.172927
1.70978
0.0123167
-1.7221
-0.462946
-0.035562
-0.258629
0.308002
0.037164
0.0449814
-0.0821453
-0.607334
0.105394
0.0281797
0.0203951
-0.0485748
-0.346893
-0.656508
1.0034
1.11995
0.485976
1.00346
-1.01131
0.76537
-1.12636
-1.91036
1.80482
-0.0432658
-0.0535518
0.250865
-0.587971
0.337106
0.711155
0.978132
1.12937
-1.33716
0.207794
1.23467
-0.542505
-0.135138
0.0911233
-0.0143565
0.00445339
0.00990309
-1.74156
-0.468219
2.20978
-0.407865
0.443304
-0.0354388
0.0152735
0.0945479
0.212891
1.81986
-0.137373
-0.0464178
1.03455
-1.47925
0.444701
-0.679458
-0.369673
1.04913
1.50316
-0.462367
0.767191
0.554392
-0.727184
-0.268281
0.00557245
0.262709
0.0227576
-0.203119
-0.454534
1.13135
0.0132767
0.0366881
-0.324662
-0.237541
0.562204
0.00542695
1.01298
0.623403
-1.09949
-0.451039
-0.393266
0.482234
0.755322
-0.919042
0.0936556
-0.0797856
-0.0261508
-0.347308
-1.94314
0.90454
-0.10073
-0.129846
0.230576
0.0448737
-0.0322512
-0.0126224
0.219318
0.859372
0.189289
-0.0325717
0.0347202
-1.68286
1.64814
0.603566
-0.763535
0.159969
-0.0271892
0.0647602
-0.037571
-0.766196
1.18794
-0.108368
-0.353921
0.462289
-0.276848
0.495009
-0.958094
1.45919
-0.501095
-0.439246
0.459074
-0.0198276
2.22627
-0.0390615
0.493934
-0.0883198
-0.405614
-0.578674
0.387467
-0.179199
0.406542
1.39373
1.00575
0.0798598
-1.79606
1.7162
-0.818341
-0.170718
0.989058
-0.278384
0.244767
0.0336167
0.0384596
-0.350605
0.312145
-0.0205172
-0.091915
0.112432
-0.104729
1.3178e-05
-0.235723
-0.172862
-0.00952041
-0.0843913
0.128326
-0.139052
0.405506
-0.266454
-0.236889
0.284182
-0.0472927
-0.0379098
0.196384
-0.158474
0.787453
-0.376049
-0.0549603
0.00844306
0.555899
-1.17693
0.621032
1.19147
-0.972157
0.00549219
-0.344339
0.338847
-0.85952
-0.720816
-1.36889
1.51141
0.527378
-0.51863
-1.31857
0.806878
0.51169
0.312375
-0.102229
-0.210145
1.74965
-1.74965
-1.67638
0.11658
-0.353204
-0.23969
-0.610852
0.850541
0.560466
-0.524255
-0.0362119
0.0305172
0.0811714
-0.106595
0.0254238
-0.00742227
0.205629
-0.198206
-0.365967
1.2276
-0.861637
0.394017
0.160616
-0.554633
0.782339
-0.716077
-1.07208
0.253742
-0.0440851
-0.221157
0.265242
0.00634088
-1.3217
-0.440874
-1.22291
0.782036
0.458815
0.00272156
0.222382
-0.225104
-0.276252
0.347311
-0.0710587
-0.254196
0.179123
-0.0826759
0.241768
-0.166537
0.0369459
0.139054
0.194745
-0.333799
0.00731978
-0.00286639
0.401784
0.0142423
-0.250954
0.271151
-0.0201967
0.0118967
0.0189122
-0.0308089
0.103992
-0.0177088
-0.0862835
-0.0650796
0.169355
-0.104275
-0.524544
1.34215
0.474913
-1.12086
0.645949
-0.152168
-0.0798206
0.231989
-0.0380265
-2.59455
2.63258
0.863186
-0.546592
-0.316594
0.458479
-0.0506866
-0.190815
0.0646727
-0.0712646
-0.0547857
0.191356
0.279274
-0.935943
0.656669
-0.396661
-1.23803
-0.249795
0.739547
-0.489752
-0.113014
0.0802745
0.413152
-0.280718
-0.132435
0.875375
-0.319477
-0.820276
0.573136
-0.529847
-0.0432891
-0.528316
0.32503
-0.152033
0.563499
-0.174915
0.206372
-1.71698
-0.106201
-0.293145
0.544564
0.0174126
-0.22974
-0.0218673
0.0317704
0.294729
-0.292008
-0.0821495
-1.28957
0.765027
1.98221
-0.180662
-1.91877
2.24108
-1.09066
-1.15042
-0.0833723
0.472899
-0.0930417
-0.744391
0.444942
-0.368026
-0.24859
-0.019692
-0.511255
-0.421756
0.93301
0.131714
0.222232
-0.353946
0.0372662
-0.89154
-1.97815
-0.315487
-0.329058
0.644545
0.520426
0.0831403
-0.247257
-0.039483
0.28674
0.481062
-0.0915804
0.173653
0.138721
2.08865
-1.73784
-0.8527
0.341446
-0.253141
-0.0526387
0.30578
-0.0471731
-0.124432
-1.08098
0.511206
0.0372041
-0.54841
-0.0849088
-0.034463
0.922499
-1.19739
0.274894
-0.655256
-0.0626591
1.81231
-0.648095
-0.528835
1.69865
-2.16062
0.461963
-2.40802
1.62327
0.784755
0.149001
0.102767
-0.251768
0.150834
1.11309
0.0181497
0.823355
-0.841505
0.0692996
0.30847
0.125831
-0.0486198
0.0751281
-0.394747
0.319619
1.26683
-1.4231
0.0648247
0.310372
-0.399186
0.0888135
-1.56719
-0.109184
-0.601465
-0.242303
0.171783
0.113178
0.00321436
-0.116392
-0.618376
0.292728
0.325648
-0.399902
0.339821
-1.07902
-0.441286
1.5203
-0.139791
-0.0444255
0.0466807
-0.377526
0.264702
0.112825
-0.393689
1.41817
-0.158843
-0.937355
-0.441941
1.51631
-0.608853
1.05005
-1.41601
-0.00142991
-0.0321559
0.0335858
1.05859
-0.629995
-1.6296
-0.34201
-0.0901463
0.432156
-0.0542632
0.205583
0.125675
-0.464503
0.338828
0.408009
0.163482
0.616787
0.764287
-0.116599
0.308267
-0.0686942
-0.400244
0.383741
-0.172618
0.0598896
0.112729
0.241519
-0.103063
-0.138456
-0.144447
-0.0414955
0.185942
0.292242
0.135012
-0.427254
0.0961607
0.013807
-0.183278
-0.0593967
-0.0292699
1.17785
0.0504605
0.145523
-0.195983
0.0817311
-0.131823
0.0500919
-0.0579509
-0.154142
0.212093
0.607933
0.243604
-0.669119
-0.0922117
0.364814
-0.0765638
-0.364496
0.166331
-0.130629
-0.0370942
1.79278
-0.993453
0.0497992
-0.200231
0.150432
-1.58542
0.216532
-0.102076
0.00226444
0.0998114
-0.0413887
-0.0359638
-1.09984
-1.30818
0.366047
-0.0625217
-0.739757
-1.45634
-0.568625
0.243962
-0.347406
-0.03012
0.863309
-0.748297
-1.60853
1.68839
-2.16673
0.425173
-0.150106
0.021792
0.128314
0.0596489
-0.200294
-0.375786
0.57608
-0.303136
0.050676
-0.294372
-1.19065
1.48502
-0.465578
-1.08674
1.55232
0.517081
0.357697
-0.874778
9.38403e-05
0.274636
0.2985
-0.268917
-0.256693
-0.168731
-0.102749
0.27148
0.0744002
0.354811
0.275994
0.137158
0.431296
-0.608632
-0.0253886
0.035406
-0.56762
0.699351
-0.131731
-0.153649
0.442086
-1.35178
0.0909138
-0.0153575
-1.58545
0.46776
0.108528
-1.10416
-0.491192
-0.149583
-0.933347
-0.313622
1.24697
-0.107122
0.552064
-0.305863
1.13468
-0.302714
-1.0139
-0.929236
-1.25974
1.44675
0.0880981
-0.304038
0.0181936
-0.0705435
0.0523499
-0.634915
0.568928
0.065987
0.687731
-0.786591
-0.300328
0.199598
-1.12236
-0.196205
0.00668838
-0.042014
0.0353256
-0.100735
0.712819
-1.42763
-0.176811
1.60444
0.0448566
-0.0375368
0.154722
-0.493959
0.339237
-0.234844
0.390831
0.137886
-0.203341
-0.0708016
0.274143
-1.30826
0.840098
-0.289626
-0.01351
-0.173484
-0.131118
-0.340713
0.0685297
0.0251259
-0.0505018
0.0471568
-0.0174125
-0.0647328
0.296368
1.27603
-0.625818
1.94782
1.01634
0.626275
-0.812687
0.039519
-1.46715
-0.298901
-0.328845
0.390396
-0.0615503
0.223466
0.0335988
0.0379057
0.00810782
-0.0553892
0.125851
-0.206859
1.86182
-1.65496
0.180547
-0.836213
-0.125049
-0.261094
-0.0715709
0.987478
-0.28397
0.361545
-0.0775754
-0.0799392
-1.53968
1.61961
0.533332
0.26464
0.295826
-0.441097
-0.541349
0.953291
-0.411942
0.0504405
0.015179
-0.0474302
-0.243989
0.684543
-0.440555
0.0776153
0.365329
-0.442944
-0.129119
-0.640181
0.7693
-0.279395
-0.0628453
-2.05089
-0.0168533
0.195852
-0.194586
0.0326031
-0.324229
0.0346023
0.340687
-0.669745
2.30388
-0.982965
-1.32091
-0.142639
0.409642
-0.307665
0.462388
-0.223593
-0.306254
-0.175173
-0.012312
0.253315
-0.520144
-0.168677
0.835221
-0.96434
0.140014
-0.0939384
-0.046076
-0.374362
-1.96807
1.10667
0.861392
-2.04644
2.00841
-1.13813
0.300307
0.837822
-0.0602307
0.306512
-0.246281
0.70005
0.39766
-0.0561347
0.199663
-0.0421158
-0.105684
0.0184807
-0.263135
-0.0175824
1.13199
1.17189
-0.0213631
0.0218204
1.65157
-1.46911
-0.0385549
-1.3897
1.42826
1.24443
-0.0665739
-0.29355
-0.0805014
0.468064
0.111993
-0.248552
-0.0623676
0.394679
0.811021
-1.53908
0.728059
0.0862933
2.3271
-1.39746
-0.929632
0.0111282
0.0289753
0.0211351
0.500594
0.819285
1.06979
-0.953205
0.990416
-1.45599
-1.23402
0.0100686
1.22395
-1.70467
0.586995
1.11767
0.0984493
0.029877
2.45073
0.0371866
-2.48792
-0.713844
1.37403
-0.660188
0.0583444
0.225838
-0.771551
0.129372
-0.00503154
0.0439743
-1.34478
0.21451
-0.00527634
-0.00802611
0.0133025
-0.101618
0.215141
-0.113522
0.133905
-0.472799
0.338894
0.538409
0.387102
-0.51882
-0.0995559
0.0682716
0.861446
-0.934651
-0.0668255
-0.0572553
-0.254855
0.0543535
0.825365
0.112243
-0.937608
-0.285123
0.167653
0.11747
0.161527
-0.475692
0.314165
-0.529112
-1.58451
0.81266
0.771848
0.12049
0.853953
0.240397
-1.09435
-0.26811
0.222719
-0.246743
0.0240241
0.169271
-0.0359041
-0.251894
0.00463696
-0.292624
-1.32596
0.761201
-0.431886
0.787873
-0.355988
-0.599357
-0.71299
1.71386
-0.739883
-0.0995506
0.18216
-1.40084
0.0645617
-1.38307
1.31851
0.0382951
0.0474379
-0.085733
1.00966
-0.700699
-0.308964
0.230687
-0.0174479
-0.00362654
-1.41778
0.818422
-0.597327
1.26808
-0.0350837
0.591169
0.300018
0.213362
0.0281573
0.813074
-0.374968
0.00948384
0.678247
-0.948191
0.410314
-1.40224
0.315494
0.986569
-1.06651
-1.61855
1.4117
-0.0638124
-1.44142
0.183243
1.25817
0.480309
0.259238
0.0372012
-0.924077
0.684387
-0.113788
-0.123947
0.237735
-2.36721
0.794819
1.57239
0.404373
0.827533
-1.23191
0.058156
-1.3179
0.767644
0.0948971
-0.862542
-0.422745
-0.136084
-0.934123
-0.0763053
-0.0128865
0.0539584
1.49711
-1.48479
-0.0608597
-0.961886
-0.622622
0.419737
-0.0134436
-1.22057
1.11753
-0.263575
-1.54762
0.00857003
-0.303137
-0.890682
0.334447
-0.354088
1.91036
0.225901
0.141159
-1.22214
0.136858
-0.104626
0.201555
-0.436596
0.322397
-0.553146
0.230749
0.0180735
0.0673258
-0.0853993
-0.497062
0.408742
0.283835
0.202773
-1.11986
1.14706
-0.027208
-0.738814
1.06636
-2.16194
1.09559
-0.213846
-0.0582263
0.094507
-1.48178
0.152075
1.3297
-0.374059
0.896905
-0.669385
0.706651
0.154942
0.947339
0.541357
-0.992395
-0.823627
-0.191558
1.01518
-0.53735
-1.41815
1.12378
-0.12356
0.126691
-0.00313115
0.0540647
-0.0916357
0.932577
-1.38711
-0.544411
0.179754
0.364657
0.246654
-0.145239
-0.101416
-1.06455
0.424369
0.0381503
0.026005
-0.229773
0.403534
2.29119
0.159542
-0.79443
0.81258
-0.263821
0.0903373
-1.23672
2.25003
-1.0133
-0.0755048
0.0645236
0.078508
0.377262
-0.0166448
1.01724
1.19714
0.639735
-0.901944
0.29415
-2.2007
-0.169772
0.133276
0.127536
-1.1142
-0.237549
-0.959845
-0.210424
0.0535604
0.784054
-0.38052
-1.08788
-0.328305
1.09259
0.184419
-1.6978
0.30068
1.39712
-0.0805894
0.47142
1.17151
-1.12423
-0.303968
0.74404
-0.322872
-0.421169
0.868388
-0.309214
-0.559174
-0.178163
0.0388189
0.645972
-0.66671
0.0207386
-1.43541
0.915387
0.520022
0.505029
0.95416
0.000783446
0.112394
0.757652
-0.514048
-2.21551
0.966301
1.2492
-2.08677
1.61855
1.00801
0.699564
-1.70757
0.806147
-0.732719
1.73711
-0.568569
-1.16855
-1.06118
0.172879
-0.0817556
-0.169751
-0.0992785
0.187473
-0.0385782
0.117981
-0.079403
-0.184201
0.267409
-1.82239
-0.265631
0.241805
-0.166677
-0.0325029
-0.0204968
0.91597
-0.488553
-0.427417
0.777613
-0.484885
-0.120485
0.124099
-0.120084
1.24945
0.0573896
-0.0190945
-0.322159
-0.742391
-1.48237
0.549025
-0.0645989
-0.0799469
0.12726
0.119496
0.103704
-0.0855102
-0.491237
-0.510369
0.0968045
-0.079202
-0.0176025
0.177726
-0.729732
-0.406095
1.13583
-0.307545
-0.0166839
-0.102346
1.17079
1.00224
-2.17304
-0.39453
0.911611
0.215114
-0.0856648
0.64786
-0.834395
-0.833418
1.66781
-0.933011
-0.92616
0.504404
0.289242
-0.179346
-0.109897
1.06224
-1.11391
-0.155206
2.0125
-0.946143
-0.182389
0.106359
-0.43124
-0.689623
0.0647965
2.08528
-1.80482
-0.280455
-0.904119
-0.578253
-0.329886
0.164088
0.0679954
-1.02469
-0.219517
1.24421
0.23163
-0.400399
0.478015
-1.64334
-1.39199
0.631377
0.760615
-0.169379
-0.00458634
0.173966
0.949281
-0.589999
-0.359283
0.105715
-0.161105
0.0782444
0.0848806
0.726568
-1.80559
0.75255
0.115838
-0.344136
-0.508564
0.309728
-0.0874958
0.148848
0.255223
-0.984955
0.0324271
0.363261
-0.205214
-0.172547
-0.259569
0.16141
0.0981584
0.971596
0.765518
0.528058
0.0548414
0.733051
-0.0832515
-0.6498
1.67747
-1.37679
-0.37569
-0.140133
0.143515
0.0257565
0.187624
-0.0857802
-0.248019
0.00337153
-0.126931
0.532083
-0.115279
-1.81515
-0.0225263
-0.146853
-0.0704433
-0.000100134
1.08201
-1.38787
0.833066
-0.392712
-0.440354
0.00412336
0.109997
-0.0235238
0.0182475
0.38477
0.0588996
0.0638988
0.417448
-0.418091
-2.72302
1.21578
1.50724
-0.101964
0.00979212
-0.0130387
0.106488
0.129874
-0.274545
-0.295141
0.668525
-1.50292
-0.0355335
-0.947219
2.11801
0.594109
-0.065643
-0.528466
-0.576961
-0.472986
-0.0512684
0.089056
-1.10979
0.498126
-0.723205
0.225079
0.365971
-0.412337
0.0463652
-0.056774
1.12074
1.33668
-1.35901
1.37679
-2.25795
1.69825
0.5597
1.18358
-2.1308
2.45587
-1.17863
-1.04719
-1.06977
0.00254353
0.0360445
-0.0584006
-0.398177
-1.54359
0.102173
-0.0359821
-1.30118
1.21083
-1.97776
0.766926
-0.0556957
0.243683
-0.382808
0.0975292
-0.117357
0.986178
1.34092
-2.22865
0.991925
-0.155736
-0.777276
-1.33579
-0.281395
-0.130941
2.04644
-2.0855
-0.121588
-1.1104
-0.0622592
1.28718
-0.819889
-1.79031
1.7812
0.00911019
0.428655
2.20392
0.407831
-0.0214185
-0.386412
1.54428
-0.553863
0.233287
0.0485722
0.718676
-0.723899
0.0862095
0.127152
0.727718
0.77371
-1.50143
-0.507536
-0.387751
1.02888
-1.06132
0.0324403
0.52034
-0.483135
-1.69317
0.704612
0.98856
0.942824
0.0668399
-0.93038
-0.229816
1.09102
-1.69987
0.283478
-0.552395
-0.228724
0.395055
-0.629918
0.429624
-1.74863
-0.525369
2.274
-0.370391
0.505404
-0.449469
0.554862
1.16206
-1.604
0.0740547
1.36449
-1.99031
-0.257189
-0.21651
0.204935
-1.17709
0.104224
0.680693
0.508485
0.00390858
-0.576266
-1.91114
0.302614
0.0279029
0.0708136
-0.0987166
0.070398
-0.315278
1.13205
1.10904
1.2503
-0.975409
0.0823243
-0.0323012
-0.328554
0.443122
-0.421772
0.585254
-0.628839
-0.932381
2.11596
-0.190312
0.310802
-0.697128
-0.623402
1.32053
-1.3758
0.661953
-0.0662543
0.168609
0.0434842
-1.45197
-0.07256
-0.134979
0.633105
-1.46986
-1.25317
2.08528
0.545968
-1.3274
0.975783
-0.58868
-0.233219
0.583831
-0.285331
-0.235553
0.241045
-1.48467
0.251212
-0.792561
1.18673
-2.11911
-0.797121
-0.181781
0.569248
-0.189298
-1.60101
1.28119
-1.77238
1.33872
0.632839
-1.57624
0.943403
1.5182
-0.602811
1.80066
-0.856317
-1.13449
1.99081
0.560296
1.25804
-1.02641
-0.620204
-0.771788
-1.16838
-1.08957
0.445186
-0.897325
1.48857
-0.591246
-0.125676
1.36008
-1.2344
-1.01046
-0.956807
1.96727
0.906335
0.122547
0.238832
0.369678
-0.222328
0.217871
0.00445749
0.00864106
-0.250662
0.469332
-1.37345
-0.652752
-0.379897
-0.255018
-0.112406
0.580167
0.0755827
0.664063
-1.97373
0.543612
1.43012
-0.0205114
-1.63612
1.65664
0.0229785
-0.247183
0.0489761
0.53848
-1.77833
1.77833
-0.128458
-0.0326469
0.161104
-0.593552
1.03946
-0.369715
0.0883199
-0.731887
-0.2068
0.561612
-1.35901
-0.00918629
-1.27482
0.291454
1.27058
-1.26423
-1.21855
0.193866
-0.122605
0.53969
-0.417085
0.124854
0.521118
0.0288326
-0.0107591
-0.962594
-1.20466
0.180626
1.02403
-1.3796
-0.240644
-0.979166
-1.18278
0.0599892
-0.26333
0.161087
0.394499
-0.618092
-0.0541173
0.0367048
0.370815
-0.293067
-0.33685
-0.983777
1.46042
-0.476639
0.31406
0.192459
-0.218377
0.392116
-0.17374
-0.403584
0.151353
0.372699
-0.544129
0.17143
-1.11992
1.92136
-0.913349
-1.42303
-1.93709
0.397413
-1.79838
0.0499672
0.955125
1.1338
0.141063
-1.03174
1.31475
0.322975
0.465617
-0.500701
0.64022
0.614535
0.191612
2.0763
-0.889574
-1.01691
-0.609234
1.62614
1.14207
-0.0208303
-1.12124
-0.0310337
-0.100789
-0.196212
0.178366
0.130739
1.3613
-1.49203
-1.2224
1.06651
0.155889
1.2224
-1.4117
0.215503
-0.271199
-1.19687
1.06079
0.0789405
-0.0728021
0.0866091
-1.67147
0.159005
1.56328
-0.930438
-0.292768
-0.0725255
0.132415
-0.431582
0.838006
0.254614
-0.0865818
0.631422
-1.07198
0.17542
-0.237264
-0.572254
-0.0503752
0.624186
-2.06999
0.524337
-0.0761109
0.432924
-0.356814
-1.04722
-0.93054
0.0807516
0.695545
0.4818
-0.879635
0.0852052
-0.178695
-0.296997
0.110809
-2.17378
1.12659
0.0669371
-0.029387
-0.262621
0.00092482
-0.0514266
-0.103033
-1.40258
0.6426
-1.64039
0.997792
0.0617389
0.248521
-0.31026
-0.00761046
-0.257344
-1.01121
1.30266
0.550239
0.361372
1.32202
-1.12423
0.186657
0.0427505
1.71529
-2.00601
0.290721
0.306659
-0.0419576
-0.8044
-0.058142
0.365015
-0.455161
0.137004
-0.105234
-1.26235
0.276885
-0.0509193
-0.225966
-1.4811
0.192643
1.28845
0.189025
-0.144169
-0.0421736
0.234968
-0.192794
1.1751
-1.18855
-0.156766
0.224092
0.600906
0.249636
-0.0506109
0.0859365
-0.0601152
0.14039
0.201804
0.648562
-0.850366
-0.414939
-0.0578604
-0.928764
-1.01521
1.94397
0.151107
-0.158397
0.30883
-0.982018
2.00841
-0.0686605
0.128309
0.0511557
0.0631036
0.149346
2.18324
-1.05125
-1.22833
0.778035
-0.526823
-0.992787
2.24199
-0.0475803
0.10648
-0.235215
0.250488
-0.0287021
-0.167281
-0.280311
0.177562
-0.319922
0.675988
-0.281489
1.18449
0.0653127
-0.0643879
0.281641
-0.0592581
0.0372517
0.334945
0.0597343
0.471205
-0.764272
0.209083
-0.239956
0.0308729
0.0937331
-0.0462952
0.182493
0.841144
-1.02364
-0.23618
0.112233
0.464927
-0.572049
2.23718
-1.22869
1.01568
0.897227
0.0896392
0.521405
-1.17154
0.345612
-0.437193
-0.389316
1.5977
0.49095
-1.49707
1.49707
1.67621
-0.865831
1.09402
-0.0305012
1.52914
-1.49864
0.915981
1.02846
0.777168
-2.5258
0.158499
-1.12284
-1.35036
-0.199393
-1.43637
1.63577
-0.398546
-0.129769
0.0723279
1.1816
0.156359
-0.259422
-0.670436
1.51608
-0.845641
-0.171076
0.257286
-0.0163786
-0.169822
0.41885
2.62996
-1.08577
-1.5442
1.6237
-1.47162
1.11917
0.214658
0.0232832
-0.00376133
0.0231249
1.56149
0.53734
0.917318
0.369079
0.0217193
0.196235
-0.217954
-0.339033
0.207915
0.180545
-0.193369
0.012824
0.160647
-0.216908
0.0562614
0.48631
-0.418039
0.331492
-0.485141
0.655952
-0.51294
0.0245017
0.0363448
-0.00582757
0.0699537
0.226799
-0.296753
-0.297238
0.280691
0.0165478
2.0855
-1.68113
0.497386
-0.512358
0.0149719
-1.49711
-0.339787
0.263223
-0.987637
1.90362
0.255962
-0.327533
2.44009
-1.66293
0.243819
-0.312513
-0.158062
0.20056
-1.32492
0.116808
1.55059
1.28856
-1.08363
-0.102919
0.143487
-0.081393
-1.49426
-0.291269
0.283469
0.2408
-0.365849
-0.36335
0.285774
-0.0825317
-1.33582
1.29727
-1.441
1.46956
-1.17674
-0.483817
0.414322
0.680181
0.382716
-0.400298
-0.0589912
0.0865736
0.33966
-0.426234
-0.366693
1.41694
-0.90544
-1.07596
-2.26321
-0.0811618
0.0774008
0.00376101
-0.0114898
1.44476
-1.43327
1.68599
-0.924788
0.320284
-0.381834
2.1557