/*--------------------------------*- C++ -*----------------------------------*\
| =========                 |                                                 |
| \\      /  F ield         | OpenFOAM: The Open Source CFD Toolbox           |
|  \\    /   O peration     | Version:  2306                                  |
|   \\  /    A nd           | Website:  www.openfoam.com                      |
|    \\/     M anipulation  |                                                 |
\*---------------------------------------------------------------------------*/
FoamFile
{
    version     2.0;
    format      ascii;
    arch        "LSB;label=32;scalar=64";
    class       volVectorField;
    location    "8";
    object      U;
}
// * * * * * * * * * * * * * * * * * * * * * * * * * * * * * * * * * * * * * //

dimensions      [0 1 -1 0 0 0 0];

internalField   nonuniform List<vector> 
5098
(
(2.48643 1.05342 0)
(2.09009 0.0996036 -4.99938e-20)
(2.54022 -0.0379595 -1.95097e-21)
(1.54784 -0.685351 6.27521e-19)
(2.97787 -1.07188 0)
(0.915822 -0.438694 0)
(2.51821 0.0241914 4.88748e-20)
(2.90414 -0.258092 2.15201e-21)
(2.72666 -0.0348915 -3.95765e-20)
(1.88377 -0.292685 2.37697e-19)
(-2.4469 0.714448 0)
(2.0776 -0.0188303 1.3122e-19)
(2.35471 -0.165125 1.94689e-21)
(0.949866 -0.461867 0)
(2.43976 -0.428788 1.60281e-19)
(1.87312 0.0671517 -7.23745e-22)
(-2.20208 0.917464 -7.60879e-19)
(-2.61818 1.45595 0)
(-0.261217 0.225705 3.04372e-19)
(-2.22064 0.924361 8.69041e-19)
(1.78215 0.58007 -8.50599e-20)
(1.83237 0.0685784 -3.02134e-21)
(2.17805 -0.790038 0)
(0.77515 0.0289344 2.88978e-20)
(-1.25688 0.936704 0)
(1.4949 -0.597189 0)
(1.9803 0.0176209 1.30274e-19)
(1.89037 -0.786505 1.26156e-19)
(-0.343714 0.261289 -9.3148e-19)
(1.853 -0.779195 0)
(2.37039 -0.157133 -8.26889e-20)
(0.73264 -0.355497 0)
(2.03995 0.0437555 -1.29035e-19)
(-1.88455 0.1421 0)
(2.51539 0.41647 -2.21174e-20)
(3.70406 0.494226 1.06592e-18)
(1.88261 -0.44381 1.13464e-19)
(2.05317 -0.0221133 -2.36562e-21)
(1.33433 -0.42532 5.07623e-19)
(1.47075 -0.670825 0)
(1.55692 -0.701045 -2.89215e-19)
(0.268344 2.06008 -1.6174e-18)
(1.51193 -0.599394 0)
(2.56534 -0.227199 7.3767e-20)
(2.42362 0.686038 -8.85955e-21)
(2.05549 0.0618337 8.39875e-21)
(-2.35584 0.984576 3.0779e-19)
(1.08593 -0.367454 0)
(2.34414 -0.171785 0)
(1.55403 -0.652861 6.71908e-20)
(2.24217 0.131146 8.91908e-20)
(1.60705 0.443196 -4.8732e-19)
(0.295757 -0.176303 1.0213e-21)
(2.09215 -0.0640996 1.46405e-19)
(0.977451 -0.485874 -2.97152e-19)
(1.58219 0.0999894 0)
(1.84931 0.269886 -2.59665e-19)
(1.65487 -0.664356 0)
(0.864215 -0.42507 0)
(1.98576 -0.0395941 -4.21146e-20)
(1.66276 -0.364937 -3.36189e-21)
(-2.14084 1.10407 -1.00201e-18)
(2.52615 0.438813 0)
(2.28084 -0.132717 0)
(0.321036 -0.193517 1.54365e-18)
(0.825992 -0.414071 3.91274e-19)
(2.39821 0.014524 2.90402e-21)
(2.31211 0.172516 1.86689e-20)
(2.16225 -0.23259 1.25956e-19)
(1.70364 -0.704825 1.82028e-19)
(1.89774 0.218135 1.31958e-20)
(1.08354 -0.928235 1.19526e-20)
(1.97331 -0.798134 0)
(-0.686715 -0.437278 0)
(1.80034 -0.277454 3.72702e-20)
(1.15335 -0.5614 -3.24118e-19)
(1.62425 -0.232964 0)
(1.53304 0.210314 4.26426e-19)
(2.42581 -0.282626 8.42057e-20)
(1.63356 0.15114 0)
(1.73438 -0.0858083 0)
(1.70293 1.40241 4.96741e-19)
(1.71549 -0.277868 4.55372e-19)
(-1.82474 0.0566596 -1.31823e-19)
(-2.52931 1.22338 7.26705e-19)
(1.69303 -0.716535 -1.61703e-19)
(0.093567 0.258951 -2.69167e-19)
(1.63706 -0.229575 -1.32532e-21)
(2.97768 -0.11424 7.70746e-20)
(1.52101 -0.368256 2.9395e-21)
(2.27764 -0.185738 -4.91499e-21)
(1.08849 -0.383102 6.47292e-19)
(2.47809 -0.0703315 -1.6498e-19)
(1.5696 -0.671694 -3.34391e-19)
(1.32551 -0.457733 8.9382e-20)
(0.684834 -0.752593 -8.43615e-20)
(1.0904 -0.544087 -2.47077e-19)
(1.45681 0.304872 3.192e-19)
(1.71692 -0.265053 1.58878e-20)
(2.05125 -0.451403 -7.25235e-20)
(3.05226 -1.77946 -7.28075e-19)
(1.03228 -0.507884 -3.46958e-19)
(-0.111748 0.533721 -4.12414e-19)
(2.58749 -0.0555952 6.67544e-21)
(1.52523 0.18949 -4.84699e-19)
(2.341 1.13098 0)
(1.93589 0.249746 2.77031e-19)
(2.34177 0.115206 3.4836e-20)
(1.03061 -0.417053 7.20599e-20)
(-2.45342 0.752927 0)
(1.08915 -0.521153 -6.88294e-19)
(0.942819 0.400247 4.42596e-19)
(1.93516 0.0100136 -2.30005e-19)
(1.02543 -0.164351 1.4523e-19)
(1.72731 0.659747 1.23179e-19)
(-0.35976 0.124155 0)
(2.23273 1.19423 1.51953e-18)
(2.53879 1.47591 0)
(1.21317 -0.235637 -7.96618e-20)
(0.805687 -0.0241323 -4.41317e-19)
(1.68209 0.41741 4.00202e-19)
(1.51296 1.93736 -2.23281e-19)
(1.91909 -0.335787 -1.50979e-19)
(-0.675321 2.44581 -7.54722e-19)
(0.702337 -0.456262 -8.80534e-19)
(-2.00232 0.925413 8.24927e-20)
(2.24659 -0.0433529 1.2097e-19)
(2.15299 -0.754948 -5.36539e-20)
(1.36448 -0.16587 -1.10288e-19)
(1.08235 -0.181195 -2.82259e-19)
(-1.65697 2.26572 -1.02689e-18)
(1.12179 -0.497124 -5.22282e-19)
(1.15322 -0.496473 4.36217e-19)
(2.44687 1.49182 -6.74932e-20)
(0.994261 -2.43817 -1.98816e-18)
(3.51507 -0.459231 5.89729e-19)
(1.88246 2.40783 3.49246e-19)
(1.91103 0.250176 1.90709e-19)
(0.883499 -0.43225 0)
(2.09571 -0.0601482 -4.76772e-19)
(1.55117 0.569507 -3.23957e-19)
(2.04152 -0.17116 3.09765e-19)
(1.80077 -0.81024 2.11405e-19)
(2.5099 -0.0168505 -9.92144e-21)
(2.01829 0.0768164 -5.85358e-20)
(2.83605 -0.0455731 0)
(2.1337 -0.237839 1.38078e-19)
(2.5795 -1.53328 0)
(2.89429 -0.0120871 4.17531e-19)
(1.71374 -0.773049 5.14923e-20)
(2.27217 0.879076 -1.17534e-18)
(1.73234 0.764164 0)
(2.77974 -1.47226 2.68476e-19)
(2.07776 0.048392 0)
(0.0841766 0.159051 -3.36082e-19)
(0.821127 -0.318995 -1.80387e-19)
(1.66147 -0.659849 -3.35185e-19)
(2.3629 -1.98137 -4.18514e-19)
(1.50509 -0.69634 -2.39458e-19)
(-0.178772 0.124037 9.93053e-19)
(1.95613 -0.414695 -2.9017e-19)
(2.47593 -0.465276 -2.14568e-19)
(0.512376 0.566789 -3.97794e-19)
(1.81563 -0.142807 -2.79462e-19)
(-2.4667 1.56742 -5.83737e-19)
(2.38054 -0.171349 -9.19496e-20)
(3.0081 -1.38084 -1.01923e-18)
(2.38976 -0.393509 0)
(-1.6953 1.29441 6.02636e-19)
(1.70325 -0.541361 -3.75619e-19)
(0.761422 -0.810343 6.00045e-20)
(1.56327 -0.629362 -2.29948e-19)
(2.18136 0.613888 1.64352e-19)
(1.88521 -0.755513 2.18756e-19)
(2.62492 -0.0408672 0)
(1.9435 0.00372382 0)
(1.72961 -0.266388 -1.72757e-19)
(3.31662 0.563352 -1.69195e-20)
(1.75823 -0.137506 3.99963e-19)
(0.275464 0.0948825 0)
(1.62932 2.10234 0)
(2.78635 0.881302 -1.01092e-18)
(1.76723 -0.531913 4.41214e-19)
(-2.39929 1.65983 0)
(1.8496 -0.135762 0)
(2.68422 0.840584 2.79786e-19)
(1.51233 0.324769 0)
(1.89939 -0.420729 3.80797e-19)
(1.01969 -0.495369 6.21135e-19)
(0.331581 0.346986 -2.97867e-19)
(0.919821 0.620778 0)
(1.64727 -0.0540604 1.72292e-19)
(2.00119 -0.820443 0)
(1.76952 -0.285696 3.76592e-20)
(2.39168 -0.173488 1.00135e-20)
(1.00434 -0.279519 -6.92652e-19)
(3.18148 0.584752 3.60721e-19)
(3.72281 -0.240557 0)
(2.05431 0.039994 -3.08723e-21)
(1.73339 -0.521692 -6.48378e-20)
(-1.60677 2.14132 -1.48894e-18)
(1.6741 0.340815 6.05425e-21)
(2.42682 0.694791 -2.49318e-20)
(2.34106 0.0242883 6.38575e-21)
(1.51477 -0.00698636 1.74493e-19)
(0.793549 -0.324599 -1.28553e-19)
(2.70586 0.102784 -1.54433e-20)
(1.18625 -0.543147 0)
(2.37942 -0.0845325 0)
(1.33725 -0.642153 -1.8193e-19)
(1.95379 -0.14618 -1.39718e-19)
(1.7142 0.310361 3.20277e-19)
(1.82262 -0.011882 -1.68191e-19)
(2.03949 0.0748426 -2.14509e-19)
(2.30805 -0.079615 -3.08701e-19)
(-0.108351 0.238882 -2.54759e-19)
(1.8419 -0.292235 0)
(-2.60723 1.06272 -1.37005e-18)
(0.962984 -0.438996 1.23525e-19)
(1.99661 0.0461255 1.4481e-19)
(2.28414 -0.188446 -1.83183e-20)
(1.6138 -0.299546 0)
(2.54593 0.0852861 -2.76345e-21)
(2.28574 -0.238555 8.54297e-20)
(0.458044 -0.121464 1.78608e-19)
(2.01624 -0.135663 0)
(0.40462 -0.102001 0)
(1.97979 0.0299603 0)
(2.01454 -0.465823 0)
(1.97049 -0.712529 -2.34123e-20)
(1.82127 0.449535 0)
(0.609103 -0.255967 -4.77446e-19)
(2.59681 0.801378 -6.02543e-19)
(1.96358 0.0327135 2.93795e-22)
(2.65301 -0.0416295 -5.36814e-20)
(2.37693 -0.0479766 0)
(1.41356 1.45766 -2.26546e-19)
(-0.577987 1.8277 -1.38093e-18)
(3.26406 0.219414 0)
(1.85494 0.00529272 2.9964e-19)
(1.35093 1.54943 -1.65806e-18)
(2.22319 0.633034 0)
(2.71459 -0.000265926 0)
(1.02882 -0.239009 7.90061e-19)
(1.81038 0.489837 -4.30532e-19)
(2.29309 -0.111789 -1.43203e-19)
(1.06559 -0.505099 8.25799e-20)
(-2.5796 0.845278 -8.93509e-19)
(-2.28976 0.813502 0)
(2.37304 -0.107474 4.01741e-20)
(2.13668 0.819254 -1.37118e-19)
(1.90191 -0.780734 2.12367e-19)
(-0.49416 -0.0998811 4.0766e-19)
(-1.06729 2.12595 7.13624e-19)
(1.96266 0.0417826 -2.22595e-19)
(-0.602416 1.67309 1.27129e-18)
(2.19339 -2.45719 1.69613e-18)
(0.229213 -0.130273 -1.70328e-19)
(1.12096 -0.38987 -3.24145e-19)
(1.71009 0.0393564 1.6384e-20)
(2.70413 0.849853 4.17045e-20)
(0.304467 -0.199236 7.10369e-19)
(-0.82785 0.663899 8.36909e-19)
(1.92053 -0.81515 0)
(2.08107 0.0198825 -7.4234e-22)
(-2.45746 1.27009 3.60167e-19)
(-0.149347 0.102135 -1.16464e-18)
(-2.38998 0.428464 0)
(0.751713 -0.593289 0)
(1.83804 -0.000103871 -2.76835e-20)
(0.411211 0.307948 3.66772e-19)
(1.835 0.0840645 -4.736e-20)
(-0.193845 0.127351 -5.2294e-19)
(0.935173 -0.512425 0)
(1.12979 -0.452339 2.55322e-21)
(-0.4254 0.675325 -2.9623e-19)
(0.383849 1.94071 -2.03614e-18)
(2.84011 0.0759729 0)
(2.32816 -0.629809 0)
(1.96112 -0.114296 0)
(-1.86957 2.20738 -5.75948e-19)
(2.80051 -0.220326 2.22161e-19)
(0.47889 -0.126907 -7.50556e-19)
(2.78429 -0.173776 -2.4685e-19)
(2.60094 -0.353108 -2.90771e-19)
(-1.49832 0.665035 0)
(1.95034 0.0253634 0)
(2.72681 -0.0105063 6.83483e-20)
(2.4384 -0.154774 7.41743e-20)
(1.60733 -0.00727722 -2.04772e-19)
(-0.46761 2.53589 0)
(-1.10397 -0.859675 5.10631e-19)
(1.04557 -0.0351152 -2.33689e-19)
(2.46058 0.557455 -1.49967e-20)
(1.97957 -0.594859 2.33457e-19)
(0.826318 -0.204301 -1.32674e-19)
(2.5598 0.141619 0)
(2.36477 -0.174501 -7.72397e-20)
(2.02011 0.0335281 0)
(2.09101 0.0240043 -1.33016e-19)
(2.60003 -0.0790435 -5.81799e-20)
(2.73393 0.0875738 9.91835e-20)
(1.60065 -0.391529 4.74244e-19)
(1.87201 0.448794 2.42488e-19)
(-2.4282 1.30167 -5.87756e-19)
(1.8117 -0.722238 -1.56809e-19)
(2.4041 1.85366 -8.92148e-20)
(2.07102 0.000580616 0)
(1.82085 -0.42761 0)
(-2.40384 0.914793 0)
(2.26859 -0.205514 2.48614e-20)
(-0.63148 -0.169438 4.20525e-20)
(0.848182 -0.421051 3.84719e-19)
(1.92521 -0.0552854 -9.31315e-20)
(2.39935 -0.146032 2.7044e-20)
(0.166221 0.0742771 6.61099e-19)
(1.85348 2.24896 -9.01975e-21)
(2.50857 0.0669984 1.9965e-21)
(2.23954 -0.100728 3.99839e-19)
(0.869131 -0.367514 0)
(2.57681 -0.279959 -1.01586e-19)
(-1.06903 -0.849802 -1.03466e-18)
(3.22545 0.14448 -5.7499e-19)
(0.391869 -0.586732 -2.49317e-20)
(1.78897 -0.252577 1.58208e-20)
(1.31144 -0.392228 3.46237e-19)
(2.12368 0.86174 0)
(1.98105 0.0874531 -9.31605e-20)
(1.04335 -0.422777 -7.59539e-19)
(1.27005 -0.101976 7.32685e-20)
(1.30254 -0.628714 0)
(2.3114 -0.099468 -1.17631e-19)
(1.02958 -0.494039 2.28347e-19)
(2.39007 -0.630087 6.28837e-20)
(1.72954 -0.708863 -2.39694e-19)
(2.30439 0.0854348 -8.12896e-20)
(2.30804 -0.206175 -1.8942e-21)
(0.975202 -0.481387 4.11425e-19)
(2.14065 -0.0401829 1.74832e-19)
(1.83142 -0.37655 0)
(1.82441 -0.823856 -1.98877e-19)
(1.68223 -0.705169 -7.49191e-19)
(2.4705 -0.270965 2.72612e-20)
(1.97463 0.0567066 3.80217e-20)
(1.46947 1.01519 0)
(1.70039 -0.228297 0)
(2.10422 -0.0504064 -1.47207e-19)
(0.319464 0.259448 2.30076e-19)
(2.59578 1.4101 0)
(2.2937 -0.0697175 1.19503e-19)
(1.71826 -0.732109 -7.11686e-21)
(0.898321 0.353999 -5.93954e-19)
(0.864558 -0.372105 -4.13017e-19)
(-1.7833 2.1498 5.47114e-19)
(1.85089 -0.0794264 5.26514e-20)
(-1.98825 2.06489 2.2014e-18)
(3.70704 -0.234105 -6.93627e-19)
(2.10047 -0.00740372 0)
(1.39691 -0.132468 -9.60483e-20)
(1.37632 -0.926822 0)
(1.97021 0.0885628 -4.4833e-19)
(2.00081 -0.414188 0)
(2.04018 -0.0221726 -1.16237e-19)
(1.57591 -0.22423 3.29071e-20)
(2.66004 -0.20104 -6.07122e-20)
(1.10552 -0.427251 4.27653e-19)
(1.97914 0.0602049 -3.53203e-19)
(1.99382 0.185589 -4.4714e-19)
(2.09579 -0.86322 0)
(-0.533851 2.06908 0)
(1.18294 -0.466601 -4.16204e-19)
(2.62815 -0.250274 0)
(3.40615 0.895025 -7.11295e-19)
(1.59654 -0.319968 0)
(1.03273 -1.04834 -1.60014e-20)
(-2.31408 1.14274 8.75654e-19)
(1.74783 -0.553658 5.29529e-19)
(0.151899 0.357755 -4.75208e-20)
(2.35458 -0.380078 0)
(1.59106 -0.247299 -3.57312e-20)
(1.72652 0.00273267 -1.99509e-19)
(-2.07074 0.974614 -1.09471e-19)
(1.94475 0.0470332 -1.93081e-19)
(2.76308 0.0543131 -6.84657e-20)
(2.6056 -0.105114 -3.2439e-20)
(2.98241 1.1466 2.36369e-19)
(2.50413 0.490975 -4.42845e-21)
(-0.848472 2.02567 -3.14727e-19)
(1.68952 -0.485914 0)
(-0.415405 0.602935 4.57637e-19)
(1.97893 0.107092 -1.63294e-19)
(2.39028 -0.243584 0)
(1.99279 0.0329975 1.33415e-19)
(1.16175 -0.557013 -2.61406e-19)
(1.58751 1.26063 1.91944e-19)
(3.23123 0.420228 0)
(1.37937 -0.648929 1.01573e-19)
(-0.922786 -0.651059 0)
(2.17358 0.0466289 4.88186e-20)
(2.68544 -0.383043 -2.24743e-19)
(0.261148 0.663532 1.00362e-18)
(1.00686 -0.0555916 0)
(1.55635 0.279888 2.22639e-19)
(1.98345 0.0344942 1.43403e-19)
(-0.306304 0.104948 0)
(1.62488 0.0339634 0)
(2.01963 -0.158147 0)
(-0.79094 0.423228 1.18967e-18)
(0.516993 0.194577 -5.33598e-20)
(2.91816 0.00397981 0)
(2.00495 0.0263271 0)
(1.61431 -1.79385 2.71865e-19)
(0.413296 -0.239115 0)
(2.40095 0.483943 3.62299e-20)
(2.7456 1.3252 1.14868e-19)
(1.95448 0.814049 -4.10069e-20)
(1.84036 0.40333 -6.06973e-21)
(0.89842 0.437895 6.82859e-19)
(2.73394 1.49567 -1.31881e-19)
(2.32669 -0.178612 4.63651e-21)
(2.13852 -0.0572506 1.27311e-19)
(1.60173 -0.145908 -2.27455e-19)
(1.33776 -0.299666 2.47192e-22)
(2.00872 0.0219154 0)
(-2.03724 2.05559 -2.12408e-18)
(1.0421 -0.420872 0)
(-0.425785 -0.729887 -1.4969e-20)
(2.25464 -1.55063 0)
(2.09264 -0.25605 0)
(1.32117 -0.628126 -1.69311e-19)
(2.19991 0.0430017 -1.38044e-21)
(-0.261503 0.176268 -1.04017e-18)
(2.10558 0.0251244 3.95824e-21)
(1.81831 -0.692973 2.54605e-19)
(2.91194 1.24814 1.41896e-19)
(0.287705 -0.595066 9.35369e-19)
(2.66283 0.029976 5.56249e-21)
(2.13291 -0.816478 2.46963e-20)
(1.94817 0.0548114 -2.65636e-19)
(0.776423 0.150652 0)
(1.79046 -0.0983273 -4.15088e-19)
(1.81377 -0.465123 2.91425e-19)
(1.99795 0.124167 -6.01257e-19)
(-2.11568 0.979964 -5.93794e-19)
(1.51279 1.26042 -1.59151e-19)
(2.67331 1.38909 1.78272e-19)
(3.52482 0.173458 0)
(2.36887 -0.383779 0)
(-0.00413995 0.157433 -3.89677e-19)
(2.11344 -0.0748763 7.9258e-20)
(-2.35087 0.917876 0)
(2.26055 -0.105615 -1.00097e-19)
(1.9971 -0.00337188 -2.9542e-19)
(-2.07846 0.874185 -3.70792e-19)
(-2.36019 0.736191 1.74633e-18)
(2.56761 -0.13567 -3.11652e-21)
(-0.305362 2.29731 -4.61218e-20)
(2.30244 -0.230279 -1.17757e-19)
(1.93794 -0.436233 1.85675e-19)
(3.28702 1.23865 5.78003e-19)
(1.52548 -0.619911 2.96803e-19)
(1.34917 0.118718 5.13335e-21)
(0.989847 0.285337 4.94692e-19)
(1.93672 1.97203 0)
(1.69522 -0.459421 1.83648e-19)
(-2.58749 1.19345 0)
(0.880588 -0.0797788 -1.94114e-18)
(1.06898 1.75749 0)
(-2.21504 1.15068 -2.25345e-18)
(1.62096 -0.680882 -3.91585e-19)
(0.8138 0.564706 -1.83923e-19)
(2.16331 -0.836138 0)
(-1.18128 -0.717595 0)
(3.29123 0.108546 0)
(1.99087 0.0868375 1.18036e-19)
(-0.1961 -0.377277 -6.80678e-19)
(-0.138372 0.387428 7.72179e-19)
(1.59851 -0.281929 -8.21134e-21)
(3.20528 1.25161 -6.68145e-19)
(2.05074 0.221438 0)
(1.14311 1.94228 3.15639e-19)
(2.3581 1.38557 4.42667e-20)
(-1.08696 -0.797276 -2.36812e-19)
(1.58539 -0.730658 1.3831e-19)
(2.43624 -0.251323 6.48719e-21)
(1.18239 -0.572183 3.99408e-19)
(2.26435 0.486083 0)
(2.68681 -0.343011 2.10936e-19)
(0.27233 -0.259383 1.9591e-19)
(1.96281 -0.0317914 2.07302e-20)
(3.42153 1.0403 -3.73878e-19)
(2.45895 -1.49291 0)
(2.50065 0.800378 0)
(1.13516 0.199906 0)
(0.998862 -0.47068 0)
(1.80367 0.0274743 0)
(1.4068 -0.520388 1.348e-19)
(3.57381 1.19772 5.63597e-19)
(1.4456 -0.595428 3.62175e-19)
(2.05172 0.0557074 2.31934e-19)
(-2.59051 1.26633 0)
(2.10492 -0.84542 3.15667e-21)
(-0.341395 0.412462 0)
(-2.54856 1.22393 -1.32267e-18)
(-0.290986 0.236186 4.29138e-19)
(3.43943 0.87464 -3.32836e-19)
(1.9921 0.115813 3.01459e-19)
(2.0454 0.239328 -1.00222e-19)
(3.31644 0.641513 -2.99992e-19)
(2.58308 0.00389006 0)
(0.400844 -0.477469 8.41021e-19)
(1.99847 0.00763251 0)
(1.48714 0.895199 1.65468e-20)
(2.42249 -0.154581 0)
(2.0989 0.218213 -1.33444e-19)
(2.07409 -0.06459 0)
(0.901157 -0.342417 -2.92049e-19)
(0.140684 0.0656656 1.30312e-18)
(2.50689 -0.272112 -1.84223e-19)
(1.33968 0.415732 4.4867e-19)
(-1.11273 0.653796 -2.44702e-18)
(2.77481 -1.17334 0)
(0.999996 -0.208581 -1.11848e-18)
(1.43132 -0.315182 -2.18816e-20)
(3.36151 0.474397 -9.17822e-19)
(1.75965 0.0197961 -3.63255e-22)
(3.25812 0.614257 1.522e-18)
(2.36744 0.927502 0)
(1.78305 -0.79168 -4.89068e-20)
(1.57475 -0.700115 0)
(2.41407 -0.226637 1.31415e-20)
(0.457189 -0.130179 7.38448e-20)
(-2.30182 1.78049 0)
(2.422 0.461906 0)
(1.3801 -2.01491 -1.37421e-18)
(2.43134 0.750418 0)
(1.64232 1.77174 2.11799e-19)
(2.84009 1.10549 -2.30259e-19)
(0.801041 -0.161133 -6.33303e-19)
(-2.24632 0.756257 -6.79108e-19)
(1.98513 0.0325592 -5.94956e-21)
(-1.12399 0.411192 -6.94905e-20)
(0.319558 -0.175298 -8.23954e-19)
(1.88645 -0.00547919 4.5431e-19)
(-2.13243 0.863011 4.233e-19)
(-1.99998 1.01603 0)
(2.46889 0.200196 -4.38132e-20)
(0.220854 -1.84032 1.74962e-18)
(0.385032 0.232471 8.06864e-20)
(3.41266 0.64741 7.50786e-19)
(2.62909 1.70052 0)
(1.80549 -0.494489 -2.93532e-19)
(1.80508 -0.291869 -2.72458e-22)
(1.59096 0.783864 -6.84062e-20)
(2.90537 -0.0147967 -4.20782e-19)
(-2.31255 0.512903 4.79004e-19)
(-1.8732 2.21512 1.36146e-18)
(1.46257 -0.582714 -8.78371e-20)
(-2.41726 0.737574 3.78691e-20)
(2.94309 -0.0904089 -4.36213e-19)
(-2.35329 0.473637 -5.37898e-19)
(2.50336 -1.24915 0)
(1.9036 -0.131487 -3.90898e-19)
(-1.11178 -0.661891 0)
(-1.48147 0.0639051 -4.91518e-19)
(-0.662003 -0.287942 2.20049e-19)
(-0.719059 -0.327447 6.33212e-19)
(1.31328 -0.345864 1.8824e-20)
(-1.26937 0.869291 1.15428e-19)
(-0.85151 0.00256848 0)
(2.25272 -0.760564 -4.52609e-21)
(2.27728 -0.823286 -6.6711e-20)
(-1.03303 -0.304604 -5.69129e-19)
(1.76182 0.540833 0)
(1.64116 0.506527 0)
(0.198293 0.340846 0)
(1.2096 -2.06529 -2.05507e-19)
(1.89548 -0.032338 -4.02938e-19)
(1.30379 0.181333 0)
(2.82608 -1.57944 0)
(2.27876 0.183821 -2.16954e-20)
(1.939 0.601725 -6.82919e-20)
(2.08722 0.368885 -4.0312e-19)
(2.2359 -0.0805045 -4.92066e-19)
(1.65039 0.040469 6.98769e-20)
(2.02537 -0.00845499 -6.54336e-20)
(1.48777 -0.291163 6.96163e-20)
(1.91798 0.579725 -3.0157e-20)
(1.82013 1.22677 0)
(0.312804 -0.166966 -3.56718e-21)
(-0.150216 -0.582036 0)
(1.01271 0.160926 0)
(2.96939 0.488486 -3.9886e-19)
(-2.55801 1.58962 0)
(2.50395 0.45961 0)
(1.9241 -0.105183 6.03145e-19)
(1.92781 -0.823997 0)
(2.02594 0.243676 4.55729e-19)
(3.34561 0.824944 3.72405e-19)
(3.16382 0.876927 1.2814e-19)
(1.25068 0.0426897 -7.45154e-21)
(1.06175 1.32461 2.80536e-19)
(2.28535 -0.806953 -2.11316e-21)
(2.18271 -0.790074 1.61039e-20)
(1.1571 -0.444917 4.09633e-19)
(-1.5571 0.595039 0)
(0.946425 -0.465935 0)
(-2.35271 1.64792 -1.59843e-18)
(0.109882 0.13299 -1.74308e-18)
(-0.996535 -0.634976 0)
(-1.78101 0.646802 6.9482e-19)
(0.316239 -0.192496 0)
(0.0891176 -0.623457 8.64192e-19)
(1.11378 -0.514679 -5.23872e-19)
(3.41841 0.692941 -1.68757e-20)
(3.1077 1.01589 2.83413e-19)
(1.2039 -0.399665 8.22902e-20)
(2.9003 -0.0853794 2.00101e-19)
(2.25602 0.973756 0)
(2.35146 0.941379 0)
(1.04977 0.0258498 0)
(-0.548078 0.144669 -4.02803e-19)
(1.40782 -0.525116 0)
(2.24121 0.742064 0)
(1.65038 0.0280158 0)
(2.19203 -0.10407 -2.93472e-20)
(0.990822 -0.16668 2.87243e-19)
(2.06083 -0.758226 -7.65252e-20)
(0.944249 -2.10502 6.11152e-19)
(1.67248 -0.344428 0)
(-1.99489 1.91514 0)
(1.97756 -0.553717 -2.1273e-19)
(1.52441 0.576599 6.90379e-19)
(-1.4132 1.14509 -7.50405e-19)
(2.57413 -0.0736689 4.34421e-21)
(1.73419 -0.446198 3.30851e-19)
(0.973114 0.458633 -1.08272e-18)
(0.126311 0.130713 0)
(1.15371 1.30736 -6.55721e-19)
(0.372462 0.381497 -6.71347e-19)
(3.1865 0.732179 0)
(2.18856 -0.0569555 0)
(2.11063 -0.0479708 0)
(2.04342 0.0299429 -4.2589e-19)
(1.40256 0.321448 -4.57166e-19)
(1.64971 0.127107 0)
(2.27226 1.32444 1.08691e-18)
(1.81482 -0.802361 2.33199e-19)
(2.29136 -0.199119 4.05221e-20)
(-2.45673 1.3934 7.70348e-19)
(2.10525 -0.260456 0)
(2.48326 0.0986946 1.40422e-20)
(1.77285 -0.410572 0)
(-0.170868 -1.66616 -1.72723e-18)
(1.75225 -0.787699 0)
(2.17322 -0.727883 1.0003e-19)
(2.29885 -0.0148376 -2.09407e-22)
(2.21461 0.743334 5.66196e-20)
(2.32187 -0.210114 0)
(1.83301 -0.771406 0)
(1.59774 -0.671888 -4.19474e-19)
(2.34121 0.415597 -4.00227e-20)
(-2.51002 0.91702 7.05292e-19)
(0.861658 -0.414038 4.19464e-19)
(1.92954 -0.0811946 0)
(1.56802 0.221025 -6.85971e-19)
(2.41334 0.0248676 -7.0647e-20)
(1.38841 -2.25361 -2.8355e-19)
(2.14673 0.700511 1.07181e-19)
(2.46409 0.225849 0)
(1.16589 -0.335754 5.85976e-19)
(0.963244 0.209935 -6.77528e-19)
(3.35846 0.984296 8.50132e-21)
(1.7809 0.237234 -7.94781e-19)
(-2.49225 1.36012 6.84187e-19)
(-0.00558101 0.397551 -1.59913e-18)
(2.317 0.207615 4.53488e-19)
(2.06029 -0.0317839 -3.51507e-20)
(0.39264 0.326723 8.51137e-19)
(-0.243529 0.180987 -1.16322e-21)
(-2.53609 1.41013 1.2729e-18)
(-2.52962 0.95051 1.40301e-18)
(1.85132 -0.0562359 7.89682e-20)
(2.34126 -0.156984 0)
(0.463317 -0.0305346 6.3326e-19)
(1.18802 -0.575641 1.75019e-19)
(1.6694 -0.210604 2.1623e-19)
(-0.271156 0.316036 0)
(1.63995 -0.358755 -5.65712e-20)
(1.82045 0.120859 -7.0832e-22)
(2.0691 0.0405521 0)
(0.386035 -0.250073 5.67287e-19)
(-1.40829 -0.336026 5.40881e-19)
(1.70912 -0.287339 0)
(1.03787 -0.39072 0)
(1.54947 -1.92703 -2.63089e-19)
(1.61179 -2.47538 -1.52595e-19)
(2.90344 0.449628 1.41886e-19)
(-0.37643 0.190307 0)
(1.91198 -0.0124694 -3.31702e-19)
(3.13215 -1.05608 -2.60385e-19)
(2.2505 -0.679142 -1.41026e-21)
(1.2105 -0.465356 5.09777e-19)
(-2.55887 1.47804 -1.06769e-18)
(-2.51417 1.43409 8.53559e-19)
(3.66555 0.981889 -7.36322e-21)
(3.01608 0.262286 0)
(1.84671 0.903564 -8.38919e-19)
(1.58907 -0.619381 2.13996e-19)
(1.93176 1.99777 1.13608e-19)
(0.810649 0.608059 0)
(1.12029 -0.218743 -5.2575e-19)
(1.21381 -0.510795 -6.15857e-19)
(-2.38164 1.73972 1.16438e-18)
(0.784546 -0.333228 -9.25163e-19)
(2.02311 1.41557 0)
(-0.179099 0.467737 -4.8687e-19)
(2.29737 0.601251 0)
(-0.7702 -0.759327 -6.74363e-19)
(-0.0851506 0.678005 1.08422e-18)
(-0.0757811 0.875417 0)
(-2.45591 1.60635 4.5855e-19)
(1.61937 -0.091234 -9.28771e-20)
(1.09086 -0.295033 3.51892e-19)
(1.68959 -0.651303 3.66283e-19)
(-2.14453 1.59201 -2.51187e-18)
(1.18076 -0.536414 0)
(1.99539 0.0156978 1.40756e-19)
(0.560564 0.132789 0)
(2.25123 0.218828 -5.24909e-21)
(-0.714784 0.306069 -9.26524e-19)
(0.566136 -0.22027 2.8591e-19)
(2.50428 -0.088521 0)
(1.91668 -0.748725 -2.15002e-19)
(3.19447 0.214175 1.54767e-19)
(-2.42276 1.61387 1.98298e-18)
(-0.707433 -0.584175 0)
(-2.41893 1.51562 -1.77111e-18)
(3.00759 0.939789 -8.56754e-19)
(1.63623 0.205197 8.78719e-19)
(2.49276 -0.97923 0)
(2.71818 -0.276341 4.61476e-19)
(-0.661135 0.207769 8.41907e-19)
(1.07311 -0.103609 -1.37998e-19)
(2.2018 -0.492705 4.20978e-20)
(-2.4848 1.26537 0)
(2.03806 -0.667225 -7.0916e-20)
(1.59404 0.390155 -1.43029e-21)
(2.31706 -0.212056 8.16276e-20)
(2.37254 0.0237665 0)
(-2.08076 2.09765 8.695e-19)
(1.67235 -0.438584 1.2528e-21)
(1.2502 -0.352533 6.32415e-20)
(1.2202 0.559389 0)
(2.09394 -0.777415 -4.15821e-20)
(-2.26646 1.69243 1.93769e-18)
(1.75162 -0.405317 -4.15656e-19)
(-0.261398 0.137223 0)
(1.26423 -0.354923 -1.07894e-19)
(2.11778 -0.747253 4.29763e-20)
(-2.47588 1.41016 -1.29048e-18)
(1.5514 -0.293033 0)
(0.810661 -0.25111 1.25947e-18)
(1.94351 -2.1292 0)
(-1.65124 2.26844 1.11235e-18)
(2.02288 -2.33163 0)
(1.91613 -0.111102 -2.24587e-19)
(2.17616 -0.19004 -1.90706e-19)
(2.52753 1.31938 -5.43733e-19)
(1.42204 -1.52477 0)
(2.06112 -0.854092 -5.14101e-20)
(2.00273 0.01866 0)
(2.39175 0.451501 0)
(2.2201 -0.858263 -5.97446e-20)
(-1.87182 2.13085 8.26919e-19)
(0.564987 -0.0489955 1.80856e-19)
(2.13999 -0.509005 -3.45676e-20)
(1.68612 0.291415 2.92382e-19)
(-1.20268 0.355674 -2.49986e-19)
(2.07579 0.357146 1.8551e-19)
(0.245187 0.0218398 -1.30295e-19)
(1.38762 1.57474 0)
(2.46684 0.308239 0)
(-0.0543833 0.344651 0)
(-2.09114 -0.0630141 2.10313e-18)
(1.17339 -0.40338 -3.624e-19)
(1.48208 0.138947 0)
(-2.30537 1.05272 1.91619e-18)
(2.31885 -0.123785 -1.30845e-19)
(-2.45884 1.17713 -7.66992e-19)
(1.38771 -0.489314 -1.1225e-19)
(2.26877 -0.840691 0)
(0.781719 -0.171093 1.08888e-18)
(0.38462 -0.241767 -1.28929e-18)
(0.157521 0.49598 0)
(-0.405397 0.398364 -6.5399e-19)
(1.63841 0.0417212 -1.79165e-20)
(2.76205 -0.177057 9.88941e-20)
(1.94266 0.0555195 2.47312e-19)
(2.67854 1.19644 -2.25801e-19)
(2.4085 0.235508 -7.32109e-22)
(-1.36375 -0.814537 0)
(1.978 -0.752784 0)
(-2.20111 1.0614 1.86859e-18)
(0.174566 -0.505624 0)
(1.64581 -0.319197 -5.74881e-20)
(2.22753 -0.732061 -4.32235e-21)
(0.98544 -0.46245 4.36698e-19)
(2.38425 -0.256706 -1.6686e-19)
(1.73141 0.337178 -2.93954e-19)
(1.54864 -0.608607 -2.14415e-19)
(1.63867 -0.63676 -3.80906e-19)
(1.49664 -2.39387 0)
(1.7439 -0.660932 3.3687e-19)
(2.12357 -0.155297 0)
(2.31267 -0.185836 -2.11908e-21)
(1.93101 1.30002 3.10085e-20)
(0.759082 -0.33859 1.28932e-19)
(2.23862 -0.289042 -1.20482e-19)
(0.364131 -0.580039 -7.1212e-19)
(0.318259 -0.17941 0)
(1.02707 -1.73409 -6.09936e-19)
(-0.785844 2.33215 -1.55263e-18)
(2.0651 0.58666 -2.10417e-19)
(1.85916 -0.731425 2.69711e-19)
(2.15319 0.0218765 -5.92127e-21)
(0.888241 -0.294582 3.23402e-19)
(1.99158 -0.787325 1.22913e-19)
(0.342176 0.127886 0)
(-2.4759 1.17854 2.26583e-18)
(1.7792 -0.363957 2.2165e-19)
(2.09077 0.0344613 -1.10918e-22)
(1.1822 -0.514787 9.0484e-19)
(-0.890854 -0.423035 3.10631e-20)
(1.68026 0.625336 0)
(-2.10488 0.285861 -8.13908e-19)
(-2.16718 1.95616 -1.2525e-19)
(1.08401 -0.329341 -7.02405e-19)
(-1.90571 -0.224148 9.21213e-19)
(2.19129 1.0073 -2.3258e-19)
(2.07569 0.493253 5.57581e-21)
(0.956931 -0.38935 3.1921e-19)
(1.79611 -0.361227 0)
(2.57007 0.205909 -1.04474e-19)
(2.57729 -0.0542337 -6.36486e-21)
(2.9775 1.03046 -2.74272e-19)
(-1.21036 -0.822726 0)
(3.45477 1.23905 1.42641e-20)
(-0.378285 -0.597553 6.47153e-19)
(1.63604 -0.696992 7.92665e-19)
(-0.00196219 -0.254612 1.22242e-20)
(-0.859823 -0.589463 -4.21062e-19)
(0.763721 -0.123897 2.09615e-18)
(2.03983 -0.734168 1.91398e-19)
(2.25956 0.0257416 -3.15628e-21)
(-0.342734 -0.158774 -6.77754e-21)
(2.9158 0.0561266 4.54954e-20)
(0.418215 0.641587 0)
(2.0022 0.0306317 0)
(2.38449 0.542476 0)
(1.79535 -0.675392 -2.7884e-19)
(2.64656 -2.17192 1.19933e-18)
(-1.12202 -0.207604 0)
(1.21683 -0.357038 -1.49689e-19)
(-0.526903 1.75249 0)
(3.6721 0.560125 0)
(-1.31656 -0.541948 0)
(1.92802 -0.00199319 0)
(0.749079 -0.229591 -3.89104e-19)
(0.313787 -0.139581 0)
(3.17691 0.65644 1.31805e-18)
(1.24263 0.0258878 0)
(1.53022 0.280445 0)
(1.92608 0.200442 2.2672e-21)
(0.211421 0.0315726 0)
(3.57667 -0.511757 0)
(-0.849804 0.0625555 0)
(2.5998 0.0181377 1.12509e-20)
(1.74349 -0.211463 0)
(2.33497 -0.818552 1.04898e-20)
(1.23864 -0.365168 5.20151e-22)
(0.339345 -0.117218 -3.6642e-19)
(1.97794 0.0416452 6.36824e-19)
(-0.163795 -0.0829735 -3.43055e-19)
(1.0514 0.880454 -5.88334e-19)
(1.42525 0.720299 0)
(2.30147 -0.215888 -2.12569e-21)
(1.6607 -0.160518 -2.11113e-19)
(1.5114 1.64601 1.67195e-19)
(1.85185 0.378595 4.3052e-19)
(0.784012 -0.279429 -6.85994e-19)
(1.52754 -0.661202 -3.27592e-19)
(2.47024 1.17878 1.81087e-19)
(0.163149 -0.942379 0)
(2.64194 -0.0523213 -1.63619e-19)
(0.60136 -1.12579 7.18485e-19)
(2.66164 0.384165 -5.49908e-20)
(-1.74222 1.4192 0)
(1.86431 0.0575941 -2.77326e-19)
(2.5182 1.01693 -8.89995e-19)
(1.36813 -0.543452 4.53897e-19)
(1.23804 -0.557539 -5.55858e-19)
(1.69252 -0.775889 0)
(1.79763 -0.781531 0)
(3.21847 0.473903 1.67974e-18)
(2.28445 -0.26718 -5.47659e-20)
(3.38119 0.589036 -4.71996e-19)
(1.74867 -0.0237507 4.65042e-20)
(1.19042 -0.322733 -1.402e-19)
(1.71039 -0.491894 3.43474e-19)
(2.48041 0.334779 0)
(2.3945 0.304919 -8.99605e-21)
(0.622016 -0.144695 -1.61289e-18)
(2.3157 -0.680432 2.97363e-18)
(1.73051 -0.114863 -3.28953e-19)
(-0.806288 0.301818 5.56093e-19)
(3.1893 0.586799 3.94153e-19)
(2.52733 0.759508 1.79822e-20)
(2.38491 0.636877 0)
(-2.4225 0.741902 0)
(2.34887 -0.804111 8.63752e-21)
(1.13471 -0.24362 0)
(1.85318 -0.382011 1.37031e-19)
(1.64409 0.244526 5.0359e-19)
(1.66288 0.441742 -1.53429e-19)
(1.60815 -0.643062 8.27618e-19)
(1.49602 0.460124 1.29476e-21)
(1.33594 -0.03448 0)
(1.89556 -0.0802182 -9.35447e-21)
(-0.903204 -0.0303579 -7.89221e-19)
(2.13039 0.284356 0)
(2.27497 -0.190783 0)
(1.95231 -0.769873 8.11974e-20)
(1.93159 0.585297 2.51828e-19)
(1.06227 -0.161716 0)
(4.11668 -0.418526 1.45127e-19)
(2.88614 0.0146254 1.73968e-19)
(2.35502 0.325973 5.665e-20)
(1.75394 0.451509 4.51525e-19)
(-2.32383 0.618577 -9.77759e-19)
(1.25184 -1.11463 0)
(0.0610759 -0.648056 -1.67118e-18)
(0.534961 -0.232624 1.03154e-18)
(1.95852 0.0352484 1.54485e-20)
(-0.171375 -0.641435 -7.3831e-19)
(1.831 -0.745544 1.97928e-20)
(2.61495 0.443275 1.37842e-19)
(1.05729 1.34089 0)
(1.97341 0.168972 2.48593e-21)
(1.8293 0.0348085 8.56451e-20)
(2.0509 -0.0141288 -1.19844e-19)
(2.12879 0.525805 -1.82136e-19)
(2.30442 -0.754073 0)
(-2.16906 0.706443 0)
(2.59522 0.00905967 0)
(2.30289 0.410504 -1.09192e-19)
(1.05611 -0.492597 6.80543e-19)
(2.27349 1.77012 -5.05789e-20)
(1.49662 -0.105611 0)
(-0.331698 0.575015 -3.1405e-19)
(-2.25571 0.202285 1.0051e-18)
(-1.18377 2.19951 0)
(1.92337 0.2592 -1.38541e-19)
(1.66384 0.239445 -1.66789e-19)
(3.37389 0.0628126 -1.11218e-19)
(2.02017 0.748061 8.47233e-20)
(0.686121 -0.240113 0)
(2.15796 0.209329 -2.08362e-19)
(2.02382 -0.397365 0)
(2.09046 -0.251263 1.12445e-20)
(0.986523 0.078053 0)
(2.18436 0.857884 1.53159e-19)
(1.71362 -0.672999 -3.45526e-19)
(2.37204 0.838491 0)
(1.85728 -0.107536 -4.03393e-19)
(2.26645 0.440794 -1.63536e-19)
(1.9862 -0.810847 0)
(1.14523 -0.537716 0)
(0.520218 0.201823 -8.95603e-20)
(2.36697 -0.21558 -1.08454e-20)
(0.112705 -1.45215 -8.3151e-19)
(-0.66592 0.467217 9.92519e-20)
(2.84972 -0.0686609 -3.82638e-21)
(0.950858 0.4353 6.42161e-19)
(1.76878 0.374539 -1.92266e-21)
(2.01911 0.573879 0)
(3.25253 1.0375 3.92877e-19)
(1.74572 -0.788541 0)
(1.51437 -0.684118 -3.53015e-19)
(1.84271 -0.784764 -3.32257e-19)