/*--------------------------------*- C++ -*----------------------------------*\
| =========                 |                                                 |
| \\      /  F ield         | OpenFOAM: The Open Source CFD Toolbox           |
|  \\    /   O peration     | Version:  2306                                  |
|   \\  /    A nd           | Website:  www.openfoam.com                      |
|    \\/     M anipulation  |                                                 |
\*---------------------------------------------------------------------------*/
FoamFile
{
    version     2.0;
    format      ascii;
    arch        "LSB;label=32;scalar=64";
    class       volVectorField;
    location    "0.2";
    object      U;
}
// * * * * * * * * * * * * * * * * * * * * * * * * * * * * * * * * * * * * * //

dimensions      [0 1 -1 0 0 0 0];

internalField   nonuniform List<vector> 
13486
(
(3.23062 -0.658592 2.18768e-18)
(3.29304 0.287809 1.08497e-18)
(4.10041 0.164628 0)
(2.06193 -1.15206 -7.49325e-19)
(5.31856 -0.600104 3.88745e-19)
(4.27303 -0.158721 -1.87668e-19)
(5.38897 0.661803 5.79056e-21)
(4.52402 -1.46711 -1.02426e-18)
(4.17522 -0.754319 0)
(4.26232 0.779814 0)
(3.53477 -1.26375 -1.40662e-19)
(4.22387 -0.0020836 0)
(3.064 -1.03351 -2.22934e-18)
(4.59756 0.5256 -1.30786e-19)
(4.9986 0.0788955 3.31915e-19)
(4.01082 0.904629 -7.32181e-19)
(3.6487 -1.81613 4.49165e-19)
(3.75923 0.535253 9.73069e-19)
(3.91881 0.0883409 1.29712e-20)
(3.61149 -0.285884 -2.19191e-18)
(1.49194 -0.558809 -6.79996e-20)
(3.01224 -1.05695 2.91152e-18)
(3.52174 0.155778 -8.62768e-19)
(3.92821 -0.313575 0)
(4.18399 0.710609 2.68228e-19)
(3.74613 -0.425653 6.55673e-20)
(3.22617 -1.58334 2.46745e-19)
(3.45587 -0.0407276 -4.2849e-19)
(4.18264 0.38245 0)
(4.05773 -0.0613481 2.19291e-19)
(2.28007 0.438971 1.51006e-19)
(4.39451 0.356793 -5.82244e-19)
(3.88711 -0.33073 -8.25535e-20)
(3.94651 0.192016 0)
(4.62142 -1.43774 0)
(3.88249 0.0387921 -2.11036e-19)
(3.93242 -0.0350853 3.93057e-19)
(3.59278 -1.64537 1.12291e-18)
(3.99747 -0.0042387 7.72261e-20)
(4.27074 -0.615388 1.07817e-18)
(6.67281 -1.44962 0)
(2.75228 -1.30865 -2.59536e-18)
(3.99047 -0.220973 0)
(4.05099 0.392619 -1.30479e-18)
(4.0164 0.57663 5.5491e-19)
(4.25291 0.0678397 5.02784e-19)
(4.07515 -1.55533 9.46941e-19)
(4.01759 -0.0467773 -8.19062e-20)
(3.95541 0.00906182 -3.02306e-19)
(4.12628 0.2606 -2.21166e-19)
(4.40632 0.424896 1.4126e-18)
(3.93836 0.0480543 0)
(4.22928 0.32628 -7.10158e-19)
(3.69693 -1.37394 -1.6112e-18)
(3.69001 0.546388 0)
(5.12433 -0.536271 -3.36281e-19)
(4.06636 0.0472151 -1.44747e-19)
(4.0043 0.0916872 2.156e-19)
(4.32987 -0.264186 -1.25147e-19)
(3.89611 -0.278518 0)
(3.47056 -1.21219 -1.01251e-19)
(4.20556 0.0307937 0)
(4.22975 -0.785983 -2.61442e-19)
(1.47354 -0.424695 -1.52029e-21)
(3.50849 -0.136139 0)
(3.97904 0.131683 2.01526e-19)
(2.14655 -1.01975 -4.7411e-19)
(3.29814 -0.179588 7.56218e-19)
(4.23677 -0.792929 -6.16928e-19)
(4.0138 0.244131 -8.80527e-20)
(2.08793 -1.05608 5.44707e-19)
(3.71459 0.533913 4.53785e-20)
(4.1624 -0.207841 8.18762e-19)
(4.41631 -3.05876 -1.51031e-18)
(3.79788 -0.206129 3.95172e-20)
(3.90488 0.230239 1.97309e-20)
(4.02761 0.249006 -6.25857e-20)
(4.93339 0.351983 -1.31062e-19)
(4.0471 -1.47739 -4.22323e-19)
(3.92051 -0.0918349 0)
(4.1911 -0.0508684 -9.90723e-20)
(3.34159 0.338471 -6.81628e-20)
(4.48151 -1.09576 1.06307e-20)
(4.46215 0.0676869 -8.4712e-20)
(3.33031 -0.610035 -4.32146e-18)
(2.86886 2.79919 0)
(4.20546 0.143274 2.10592e-19)
(4.261 0.182607 -2.12018e-18)
(3.99073 0.0373835 -9.18255e-19)
(4.04424 1.25146 -8.91569e-19)
(4.29115 0.330613 -4.29648e-19)
(4.79738 -1.20273 -5.17875e-19)
(3.31016 -0.763868 5.75785e-19)
(3.34981 -0.167557 5.94743e-20)
(4.0707 -1.30468 2.49717e-19)
(4.02001 -0.0219505 2.82767e-20)
(3.39541 -1.66977 0)
(2.34552 -0.979058 7.29966e-20)
(4.1372 -0.324502 -2.04483e-18)
(3.79839 -1.80965 8.08955e-21)
(4.13551 -0.474172 0)
(4.72564 0.649878 -5.6484e-20)
(2.39869 -0.920277 -3.73481e-20)
(3.93489 0.136 -2.49021e-19)
(3.3142 2.41203 0)
(3.82024 -1.78766 8.31718e-21)
(4.20052 0.00934925 4.98918e-20)
(3.99482 -0.0584255 2.05991e-19)
(4.05269 -1.56941 5.64207e-19)
(4.85467 -2.11173 0)
(4.02402 -1.9223 0)
(4.81624 0.692841 -4.38793e-19)
(3.68322 -1.2887 1.13862e-20)
(4.29961 -0.0734612 8.5513e-21)
(2.5669 -0.416425 0)
(4.05406 -1.96135 -9.21935e-19)
(4.2258 0.733696 0)
(3.97059 -0.0714506 0)
(3.94052 -0.10442 0)
(3.99852 0.0249145 1.61277e-19)
(3.78785 0.460467 -4.36927e-19)
(3.56331 -1.1933 0)
(4.04986 -1.06066 0)
(4.00785 -0.0262721 -2.58462e-19)
(4.26621 -1.39281 0)
(4.03694 0.0545735 0)
(4.63986 -0.434062 2.0587e-20)
(4.27529 0.172201 6.66153e-19)
(4.15828 -0.148124 7.0509e-20)
(3.54636 -0.155546 1.35515e-19)
(3.993 -0.00444421 2.97262e-20)
(4.06134 -1.57951 -2.32947e-19)
(5.28453 -2.17529 1.65702e-18)
(0.88951 -2.45488 7.3903e-18)
(4.3143 0.0400764 -2.38047e-19)
(3.77963 0.466846 -1.02017e-18)
(1.90901 0.950913 -6.86691e-19)
(4.79579 -2.0533 0)
(4.04914 0.0221703 -5.14173e-20)
(4.49578 -1.06101 -3.73768e-19)
(4.35143 -0.239093 6.74443e-20)
(4.65616 0.358759 5.86641e-19)
(4.54298 0.217281 0)
(4.05258 -0.00719917 0)
(4.25902 0.293844 4.19165e-20)
(3.94763 -0.872294 -1.96161e-19)
(4.11746 0.148386 -2.18883e-19)
(0.850235 2.24825 0)
(4.12136 -0.178401 0)
(4.01976 -0.137389 0)
(4.2781 0.0092424 2.24574e-20)
(5.40672 -0.0167997 0)
(4.05916 -0.088129 1.04288e-19)
(3.52684 0.452489 -5.75344e-19)
(4.19175 0.546459 0)
(3.84986 0.18387 0)
(5.17488 -2.38611 0)
(4.18008 3.96436 5.1521e-19)
(3.96045 -1.55794 2.2413e-18)
(4.09657 0.141962 3.54405e-19)
(3.68525 -0.163664 -2.06175e-19)
(3.93803 -1.44704 -3.42231e-18)
(4.33913 0.575693 3.18545e-19)
(2.57554 -1.20922 1.14664e-18)
(3.89254 -0.0648191 0)
(4.74375 0.468161 5.27945e-20)
(4.43263 0.351234 5.50044e-19)
(1.57762 -0.576994 -2.82437e-18)
(4.14365 0.104511 5.70994e-19)
(-1.17891 -1.76549 1.41455e-18)
(5.06614 -2.13117 -1.44426e-19)
(4.58401 0.239609 4.48213e-19)
(3.54889 0.22112 -1.82064e-18)
(4.59569 -0.0991076 3.53433e-20)
(3.76302 -0.041572 7.13484e-20)
(2.81442 -0.758384 0)
(4.891 0.894935 9.10134e-21)
(4.41685 -0.449977 1.03229e-19)
(3.80054 0.169858 -2.26652e-18)
(4.34182 0.281721 0)
(4.28121 -0.604698 2.15181e-18)
(3.96708 -0.0685655 1.46172e-20)
(4.44361 0.265073 2.12909e-20)
(2.76201 -1.31163 0)
(4.13268 -0.0219967 3.09524e-19)
(4.10594 -0.0459967 2.41132e-19)
(3.92393 -0.0185929 1.78413e-19)
(3.95668 -0.118903 6.31398e-20)
(6.51857 -1.34252 0)
(3.73212 -1.7808 -1.16188e-18)
(3.99364 0.00893907 0)
(3.46686 -0.00358407 0)
(3.59236 -0.266335 0)
(3.10011 1.15134 -1.25877e-18)
(3.69774 -0.0450329 0)
(3.48317 -1.34564 -3.40162e-20)
(3.54401 -0.142506 -3.03702e-19)
(4.20858 -0.457455 -4.27862e-20)
(3.37533 -1.62448 -4.78717e-19)
(4.91276 0.434518 8.87801e-20)
(2.53319 0.332802 -2.05695e-19)
(4.17234 -0.0372014 -2.17318e-20)
(3.57367 -1.67165 -1.30852e-18)
(5.42159 -2.18795 -8.07503e-20)
(4.06128 0.251341 -4.44756e-19)
(3.87235 0.0489695 2.62623e-19)
(3.5959 0.652038 3.82105e-19)
(4.06291 -0.449302 1.61728e-18)
(3.99616 -0.0166952 0)
(4.01755 0.0801376 0)
(4.17806 -0.175904 -8.1904e-20)
(3.90592 -0.224863 -1.50586e-19)
(3.51283 -0.381922 1.99578e-18)
(3.62799 0.201987 6.24712e-20)
(4.53919 0.258908 2.16338e-19)
(3.77801 -0.0674886 -9.26882e-20)
(4.06216 -0.0662856 0)
(4.08069 1.14186 2.18838e-18)
(3.56557 -0.81593 0)
(5.03109 -0.369846 0)
(3.75897 -1.80271 -9.10625e-19)
(4.7406 -0.204022 0)
(4.49927 -1.10545 8.57138e-19)
(4.74029 0.118534 0)
(4.10833 0.159726 -1.53786e-19)
(3.12933 -1.42078 7.98634e-19)
(4.46234 0.0289412 1.39602e-20)
(2.75736 -0.217501 -6.15861e-20)
(3.7468 -0.195186 4.4963e-20)
(4.19389 -0.00666251 5.63096e-21)
(4.11134 -0.392524 -6.98147e-19)
(8.22014 1.50067 3.13445e-18)
(4.29794 -0.152485 -7.12661e-20)
(2.69175 -1.27241 8.90449e-19)
(2.25891 -0.661409 0)
(3.25101 -1.52358 9.32628e-20)
(3.95155 -0.0169299 -1.59643e-19)
(4.51239 -0.0115208 -5.07826e-20)
(3.16753 -1.49255 2.47504e-18)
(4.37513 0.0984503 0)
(3.91068 -0.473782 0)
(4.58878 0.522804 2.84086e-18)
(4.00051 -0.00854738 0)
(3.18824 -1.55741 8.56256e-19)
(3.94618 0.0242795 2.13724e-19)
(3.69407 0.104362 0)
(4.12966 -0.176224 -1.65871e-19)
(3.91527 -0.274904 -9.50154e-20)
(2.58565 -2.11304 2.79249e-18)
(4.06253 0.478092 0)
(2.69239 -1.10107 -6.61991e-21)
(2.50274 -0.341028 3.23619e-19)
(3.82613 -1.88808 1.14084e-18)
(4.01011 -0.00782329 0)
(3.9366 0.0444617 -1.31876e-19)
(3.04128 -0.838622 -1.12196e-20)
(4.64755 0.366059 4.76919e-19)
(3.61927 -0.0313181 1.17355e-19)
(4.47127 2.78232 -5.10649e-19)
(3.99825 -0.325651 -3.32346e-20)
(3.59359 0.0480467 0)
(3.95466 0.0284142 -1.86802e-20)
(4.96869 0.250636 -7.82553e-19)
(2.97945 -0.795161 1.40111e-20)
(5.21093 -1.34423 -3.8896e-19)
(2.98431 -1.4644 0)
(3.8389 0.149561 2.27195e-19)
(2.12926 0.180682 1.30597e-19)
(3.79237 -0.161091 -9.11276e-19)
(3.92014 0.337797 0)
(3.5362 1.2127 9.0152e-19)
(4.07906 -0.0405455 -6.2022e-19)
(4.07493 -0.194778 0)
(4.24999 0.149014 4.55641e-19)
(3.15078 -1.44972 1.06985e-18)
(4.08443 -0.319587 2.83374e-20)
(3.87778 -0.0385071 0)
(3.68323 0.0920807 0)
(4.08244 0.212541 1.17819e-19)
(4.22549 0.148234 2.95466e-19)
(3.61323 0.233039 -3.86756e-19)
(4.1442 -0.455073 -7.85477e-19)
(3.99183 -0.000247051 1.28248e-18)
(3.93059 -0.550535 1.86298e-20)
(3.36532 -1.23781 1.34862e-19)
(3.65149 -1.71107 6.53108e-19)
(4.12931 -0.386203 -6.89063e-21)
(3.64155 -0.0680044 -9.22845e-20)
(4.27275 0.194767 2.87038e-19)
(4.13971 0.146746 0)
(2.1477 -0.682339 0)
(3.9171 -0.133705 -3.09541e-19)
(3.99894 -1.89851 9.14714e-19)
(4.08168 -0.215963 -2.16422e-19)
(3.96031 -0.11801 -1.85715e-19)
(3.9652 -0.0789805 0)
(4.59244 0.186181 9.98047e-20)
(4.00743 0.127196 -4.48009e-19)
(3.81433 0.0710519 -1.24633e-18)
(6.05977 0.207028 -2.87987e-19)
(4.21768 0.624534 -3.76408e-19)
(3.5949 0.695989 1.05576e-20)
(4.21648 0.218107 -2.55968e-19)
(4.58205 0.344525 5.4207e-19)
(4.04205 0.00264741 -6.30591e-20)
(5.29097 -2.42416 0)
(7.73217 0.684243 0)
(4.79036 -0.524958 3.13819e-19)
(4.11453 0.271123 -1.8319e-19)
(4.03446 -0.0129068 0)
(6.45832 3.04786 -1.12959e-17)
(2.03565 -1.04931 0)
(4.67731 0.881892 1.08125e-19)
(4.74274 0.596919 -5.10469e-19)
(3.77732 -0.892095 0)
(3.97852 0.478229 -6.25449e-19)
(3.72781 0.108413 4.37758e-19)
(3.63387 0.151195 -7.64775e-20)
(3.75082 -0.0303733 -1.79977e-18)
(3.38948 -0.10251 0)
(3.96012 0.0421471 -3.63577e-19)
(3.99125 -0.0387196 1.15878e-20)
(4.01274 -0.00191436 2.75736e-19)
(3.55971 0.0358202 -1.07524e-18)
(2.08452 0.885462 1.234e-18)
(4.29498 0.296469 8.80637e-19)
(4.92589 -0.316425 -1.99533e-18)
(4.26526 -0.170353 0)
(4.55007 0.0676061 1.77542e-20)
(4.83801 -0.22255 -3.04227e-19)
(4.24129 0.0342445 3.10588e-18)
(4.91984 -1.1444 0)
(4.21904 0.358727 -2.28422e-19)
(3.4086 0.295224 0)
(5.46808 0.67896 -8.95928e-20)
(4.28038 -1.01815 -6.78834e-19)
(2.24515 -1.03667 1.03879e-18)
(5.26864 0.0277857 -3.91387e-19)
(4.30419 0.164503 0)
(3.96147 0.0425348 3.32343e-19)
(4.23505 -0.0203006 -9.8793e-20)
(3.46701 0.0127068 1.01379e-18)
(4.87219 -0.273234 1.33518e-18)
(4.4677 0.207949 7.55095e-19)
(3.06128 -1.33106 -6.56442e-20)
(4.08118 -0.171161 8.59629e-20)
(4.01054 -0.323148 0)
(2.58656 -0.926858 2.56962e-18)
(4.95553 -0.367307 0)
(3.84071 0.086406 1.56801e-20)
(4.10159 -0.252613 1.21465e-18)
(4.16003 0.128997 -5.02687e-19)
(4.35771 0.275302 3.42772e-19)
(3.34741 -1.6339 -2.45106e-19)
(3.7961 0.0349188 1.548e-18)
(4.26421 -0.154052 0)
(4.7728 -3.2934 -1.24915e-18)
(4.9242 -0.0254008 -4.25838e-19)
(3.97542 0.0648126 1.59808e-19)
(3.65156 -0.306148 -1.56376e-19)
(4.74806 0.0218216 0)
(4.35194 0.273895 6.70742e-19)
(3.6589 0.125108 2.22494e-18)
(3.73066 0.0779186 1.87816e-18)
(3.97536 -0.145542 0)
(3.96873 0.0116106 -2.13592e-20)
(3.97428 -0.108348 1.49933e-19)
(4.29552 -1.59377 1.63845e-19)
(3.48806 -0.302013 2.79007e-19)
(4.36503 -0.547118 4.03493e-19)
(4.40981 0.0652397 1.53105e-20)
(4.83723 -0.0832627 0)
(4.21365 0.271222 -6.81637e-19)
(2.80782 -1.15978 7.05329e-21)
(4.52129 0.0545777 -3.10323e-19)
(4.1487 -0.120959 1.24348e-18)
(3.64249 -0.0302285 0)
(3.95533 0.0163181 4.96298e-19)
(3.86294 -0.949914 0)
(5.88911 -0.75657 -7.18342e-19)
(3.85577 -0.336072 0)
(4.89825 -1.33923 -3.61254e-20)
(3.0571 -0.429305 -6.12071e-19)
(3.40041 1.1095 2.15546e-18)
(4.27645 -1.53685 -6.43405e-19)
(3.8094 0.100343 0)
(4.28908 -0.0950437 -5.79185e-19)
(4.26791 0.278289 -7.42214e-19)
(3.6102 -1.81214 -4.65172e-19)
(1.70064 1.1229 -2.12366e-20)
(3.52517 -0.20453 -3.04363e-18)
(3.77697 -0.261625 -9.52945e-20)
(4.0821 0.308725 5.07729e-19)
(3.3417 -1.0343 0)
(3.13454 0.208987 1.21062e-18)
(4.04861 0.00711166 1.55033e-19)
(2.03893 -1.01632 4.20049e-19)
(2.8109 -1.13985 -2.27108e-20)
(3.85936 -1.92027 -7.90426e-19)
(4.36496 -0.176164 0)
(3.86269 -1.94109 0)
(4.32937 1.42098 0)
(3.90378 -0.316201 0)
(6.9276 -0.620908 -1.83161e-18)
(5.23115 0.656868 0)
(4.05239 0.174265 0)
(3.83555 -0.00118725 4.1769e-19)
(4.59472 -0.609249 -1.07255e-19)
(4.502 -0.0605594 -1.10727e-18)
(3.60516 0.397552 3.6142e-18)
(4.47128 0.0565706 -3.64953e-19)
(5.50772 2.21622 0)
(4.11043 -0.0613914 0)
(3.77454 0.0305593 1.26038e-18)
(4.03115 -0.0170584 2.37787e-19)
(2.93408 1.10087 0)
(2.7565 -1.30277 6.45901e-20)
(5.22708 -1.3407 4.41241e-19)
(4.83345 -2.08641 0)
(4.18189 0.251363 8.01973e-19)
(3.77703 -0.115809 -1.49781e-18)
(4.04839 1.18447 -3.0044e-19)
(2.57532 -0.899556 0)
(3.91536 0.400351 1.43712e-18)
(4.31763 -0.0401042 0)
(3.98706 -0.074696 0)
(3.88079 0.148012 -9.995e-20)
(4.3046 0.00557671 7.02805e-19)
(3.34957 -1.63902 -3.16653e-19)
(4.39691 0.592546 1.73667e-19)
(3.15581 -0.853452 -1.09183e-18)
(4.45475 -0.0149763 1.44583e-19)
(4.10716 0.0635408 4.78494e-19)
(4.28464 0.122437 1.82507e-18)
(5.5749 -1.24529 0)
(3.95708 -0.351989 -1.29437e-19)
(2.97774 -0.34911 0)
(3.9211 -0.0260778 -2.94569e-19)
(4.56867 -0.108222 0)
(3.14726 -0.131095 1.5683e-18)
(4.09065 -1.79256 -9.80327e-19)
(4.10455 -0.198967 0)
(6.44768 -2.37451 3.38307e-19)
(3.72566 -0.214924 1.96421e-19)
(4.08506 0.257005 3.564e-19)
(3.90867 -0.634134 2.84329e-18)
(3.20553 1.02378 -1.41703e-18)
(3.07573 -0.841556 -3.08889e-18)
(5.87305 -0.711322 0)
(3.96921 0.081525 -1.68417e-19)
(3.07626 -1.32519 -1.36572e-19)
(4.08194 0.166677 0)
(3.87538 0.527465 8.28216e-20)
(4.036 -0.311986 5.201e-20)
(5.37572 0.543345 0)
(4.02117 0.0816812 0)
(2.4627 -1.18391 0)
(3.11736 -0.72877 -5.86738e-20)
(3.74793 -0.662996 -2.24895e-20)
(4.29804 -0.711853 9.29821e-21)
(4.79685 0.948459 0)
(3.88344 -0.503439 1.95081e-18)
(4.0599 -0.12464 -1.41678e-19)
(4.58378 0.535196 -4.29165e-19)
(1.73051 -1.03727 5.88418e-19)
(3.79282 0.267609 0)
(3.98769 -0.0127306 0)
(2.09199 -0.522862 -1.75724e-18)
(3.33086 -1.04129 -7.54215e-19)
(4.07383 -0.268142 0)
(4.48594 -2.1119 -8.00109e-19)
(4.30364 -0.237464 -3.28562e-20)
(4.03089 0.185369 -8.70905e-21)
(2.36145 -1.06981 0)
(3.94827 -0.119851 -1.39717e-19)
(4.03443 0.052035 -1.73254e-19)
(4.467 -0.238868 -2.64531e-19)
(4.18608 -1.11473 0)
(3.68265 -1.72883 -9.76709e-19)
(4.15785 0.147115 4.88343e-19)
(4.01433 0.36254 3.01058e-19)
(3.85679 0.0146767 -7.41079e-20)
(4.93788 0.276326 0)
(3.60351 0.301612 -9.65456e-19)
(4.88688 -0.352286 -1.6527e-19)
(3.78842 -1.84895 1.46095e-19)
(4.14204 0.374623 0)
(1.9638 1.02663 2.19464e-20)
(1.62104 -0.491275 0)
(4.26815 -0.107917 -1.12521e-18)
(3.1999 0.209051 5.14844e-19)
(3.99195 0.0920863 -1.9441e-19)
(2.90934 -0.80514 0)
(4.24705 -0.0984892 -1.56125e-19)
(2.71736 0.492613 3.34171e-18)
(5.26766 -1.20596 0)
(3.36426 -0.0580321 1.32991e-18)
(6.05661 0.0193003 3.25473e-19)
(4.01336 -0.248947 0)
(2.26995 0.12293 -6.77802e-20)
(3.67462 0.163385 4.0466e-19)
(4.13095 0.107209 0)
(3.7835 -1.72775 7.74324e-19)
(3.8234 0.260446 0)
(4.08897 -1.79303 8.91463e-19)
(2.78202 -1.04484 2.34249e-21)
(4.29792 0.174186 -1.74555e-19)
(4.27386 0.0829451 2.96823e-19)
(3.0755 0.304411 6.41109e-19)
(3.76868 -0.655294 -1.0452e-18)
(3.81671 0.0544551 1.3396e-19)
(4.06209 -1.75293 9.90127e-21)
(4.63994 -0.0735531 3.90542e-19)
(4.81138 0.369891 -8.39529e-20)
(5.14761 -2.15138 0)
(3.81552 -0.275204 -1.10094e-18)
(4.86281 -2.17747 -7.61421e-19)
(3.28359 -0.31074 0)
(4.03029 0.0330266 5.98731e-20)
(4.407 -0.0767539 0)
(2.94872 -0.934901 2.6775e-18)
(4.88107 -1.60313 0)
(3.73815 0.115942 4.00135e-19)
(4.80851 0.0136629 -6.80511e-19)
(2.48936 0.0719764 -1.62584e-19)
(2.53087 -1.20903 7.48623e-20)
(4.14701 -0.226485 -6.61842e-21)
(4.66581 -2.18392 4.74566e-19)
(3.99738 -1.25881 9.8575e-19)
(3.42343 -0.831333 0)
(2.97884 -1.40771 -9.04937e-20)
(5.54069 -0.977745 -1.14158e-19)
(3.04136 -1.46085 -1.03451e-19)
(3.78687 -0.0946387 -3.26812e-21)
(3.33477 -1.29205 0)
(4.25724 0.607748 -7.72034e-21)
(2.89189 -1.40967 0)
(2.43079 -0.930268 -3.35097e-20)
(4.03177 1.10558 3.79246e-19)
(4.82979 3.23307 0)
(4.6289 -0.862502 2.76304e-19)
(3.21844 -0.229985 0)
(5.52753 0.623366 0)
(4.03779 -1.85564 -1.17426e-18)
(3.38563 0.404831 9.56653e-19)
(3.71689 -0.00515155 0)
(3.68852 0.190057 -6.11011e-19)
(4.15427 -0.87076 2.52181e-19)
(2.89437 -1.1849 2.35945e-20)
(5.91585 0.990646 0)
(3.98042 0.0434044 0)
(3.1185 -1.35511 -6.53012e-20)
(3.759 -0.467128 0)
(4.21259 0.148222 0)
(3.4107 -1.12754 -7.19129e-21)
(4.36873 -0.493611 -1.3639e-18)
(3.91946 -0.906322 8.67671e-19)
(4.20438 -0.303401 -6.67875e-21)
(2.89531 -1.39445 1.55501e-19)
(4.28609 0.285772 5.50412e-19)
(3.48716 -0.888666 0)
(4.47575 0.322447 -2.18593e-19)
(3.31346 -0.552208 0)
(4.3009 -0.085086 0)
(3.83002 0.198688 0)
(4.73102 0.435088 -7.7132e-20)
(4.04425 -0.238579 8.49253e-19)
(4.05027 0.0228265 -6.02945e-20)
(3.5551 -0.936185 0)
(3.15673 -1.55648 -2.10667e-19)
(4.24424 1.2593 3.49744e-19)
(4.29279 -1.48238 9.34311e-20)
(3.98217 0.00286994 1.75739e-19)
(3.68711 -0.21409 -3.63401e-19)
(4.00906 0.24268 -8.74385e-19)
(4.13163 -1.84787 0)
(4.38085 0.0934317 0)
(3.35202 1.15927 0)
(2.97287 -1.29053 -1.97726e-18)
(3.11267 0.0533649 2.6235e-19)
(4.7809 2.32898 0)
(4.37955 0.444506 0)
(4.37065 0.277478 5.49918e-19)
(3.5033 -0.049283 -2.15174e-19)
(3.99317 0.674291 1.06719e-18)
(5.59013 -2.2729 0)
(3.39464 -1.5006 -6.95668e-20)
(4.11025 0.114579 3.99054e-19)
(3.23866 -0.929222 -1.8393e-18)
(4.45294 0.228638 -5.53056e-19)
(4.42674 0.423114 6.44226e-19)
(3.5357 -0.522539 -8.45471e-20)
(2.93636 -1.31292 3.41992e-18)
(3.75499 -0.00318521 -3.0316e-19)
(4.05157 0.0605451 2.73858e-20)
(4.4613 -0.181061 -2.38241e-19)
(4.14843 -1.91611 -2.34683e-19)
(3.72117 0.0658321 -1.94364e-19)
(3.52382 3.59811 -1.69425e-19)
(4.3651 -2.04895 4.15819e-19)
(3.933 0.362852 0)
(3.84412 0.212156 -7.48018e-20)
(4.05666 0.0584566 -1.35156e-18)
(5.10903 -0.19408 1.50491e-19)
(3.18508 -0.988834 -1.65688e-18)
(4.25034 -1.41785 -1.01775e-18)
(4.14313 -0.40936 2.02589e-18)
(4.58735 -0.632706 -1.14763e-18)
(4.08463 0.0495221 -5.20621e-19)
(4.4486 -0.00961214 2.94755e-20)
(2.74699 -0.545943 -3.65751e-18)
(4.18659 0.167212 -1.03793e-18)
(2.73607 -0.647305 0)
(2.62092 -0.157226 2.51432e-19)
(3.82562 -0.240094 2.06588e-18)
(4.20937 0.110568 2.25267e-20)
(4.29299 -2.9709 0)
(4.99168 -2.29362 0)
(4.17848 0.52732 9.7254e-19)
(2.58129 -0.602234 2.26767e-18)
(3.54181 -0.370886 1.76385e-19)
(5.01737 -1.33485 -4.22792e-19)
(4.73627 -0.408409 1.07801e-18)
(5.05086 -0.612164 0)
(4.13061 0.43736 5.55665e-19)
(3.71439 0.721989 1.18759e-20)
(5.01325 0.73779 5.26705e-20)
(4.15851 -0.346436 -1.1923e-18)
(2.98569 -1.44606 -2.45119e-19)
(3.83122 -0.226973 3.26584e-19)
(3.65891 -0.296265 -7.17414e-20)
(4.69581 1.322 0)
(3.8985 -0.0201927 1.22221e-19)
(4.16857 -0.0534443 2.02336e-19)
(4.0634 0.00868108 2.46511e-20)
(2.57288 -1.23814 3.12176e-18)
(4.03747 -0.388197 1.78741e-18)
(3.95564 0.093406 -2.14888e-19)
(2.8544 -1.16192 -1.84656e-20)
(4.24853 0.0664904 -5.03222e-21)
(4.28218 -0.489069 9.08878e-19)
(3.38888 -1.29012 -1.86557e-20)
(4.90591 0.843516 1.91607e-19)
(3.78157 -1.76183 -8.40176e-19)
(3.23384 -1.53601 -1.04886e-18)
(4.03818 0.0241582 0)
(3.6201 -0.122539 -1.41358e-19)
(3.19072 -1.07905 -3.85933e-22)
(3.01778 -0.563245 3.30361e-18)
(4.18313 -0.00819098 0)
(4.2979 0.479235 4.52567e-19)
(2.83421 -1.16807 7.67669e-19)
(3.99366 -0.109994 -2.29918e-18)
(2.95139 -1.35488 -4.96683e-20)
(3.94407 -0.0923162 7.8229e-20)
(3.9626 -0.202266 7.41985e-19)
(4.39367 -0.217657 8.83483e-19)
(4.15931 -1.82567 -1.22006e-18)
(4.07245 -0.00445123 6.92115e-20)
(3.12808 -0.0152988 5.01394e-19)
(4.1946 -0.249586 1.2675e-18)
(4.20997 -0.12576 -6.3316e-19)
(4.18392 0.00277269 3.86927e-21)
(3.60772 -0.0319855 -1.27679e-18)
(2.78208 -1.18459 -1.48836e-18)
(3.98867 0.0267467 0)
(2.86948 -0.574716 -7.15727e-20)
(4.03639 -0.0426213 1.69968e-19)
(4.273 1.14749 -3.67497e-19)
(3.88172 -0.0136872 3.38881e-19)
(4.70617 -0.451571 -6.42184e-19)
(3.62376 0.0148143 -2.03745e-18)
(4.16041 0.174218 3.31754e-19)
(2.68204 -1.27492 -6.61241e-20)
(3.93505 -0.299927 0)
(3.94257 0.00341259 -2.55392e-19)
(4.02737 0.230365 5.14083e-19)
(3.31077 -1.26313 0)
(4.23513 0.0908058 7.31803e-19)
(3.65922 0.168238 6.63043e-19)
(4.17796 -0.149361 4.16025e-23)
(6.92142 -1.42893 8.83031e-19)
(3.86311 0.0437927 0)
(3.52951 0.366103 1.756e-18)
(4.02739 0.103696 2.33913e-19)
(4.17458 -1.99134 9.68199e-19)
(4.12896 -0.306325 0)
(3.09268 0.222676 -2.77268e-18)
(3.86084 0.438893 -4.55436e-19)
(5.50733 1.54603 -9.98278e-19)
(2.74021 -0.624517 3.51395e-18)
(3.73547 -0.183806 2.43846e-19)
(2.60703 -1.23518 4.7673e-20)
(4.33249 -0.472596 -1.2987e-18)
(3.93643 -0.298299 2.12859e-19)
(3.72197 0.198917 -1.27106e-18)
(3.68795 -0.292976 0)
(3.92316 0.132185 -1.052e-18)
(2.95576 -0.298592 8.93219e-18)
(5.33466 -3.73376 0)
(3.65398 -0.417116 0)
(4.02509 -0.0169289 0)
(3.7589 -1.83949 0)
(3.91169 0.412227 0)
(2.71615 -0.586771 0)
(3.69 -0.116368 -7.62622e-21)
(4.0234 -0.716867 -4.21066e-20)
(4.49931 -0.0120065 0)
(3.64085 0.419589 2.63098e-18)
(3.77901 0.294191 9.07383e-19)
(4.49398 0.362623 -2.06266e-20)
(3.31782 -1.08347 -9.7627e-21)
(2.70766 -0.134233 -7.11737e-21)
(2.81065 -1.32319 4.43375e-20)
(4.136 0.219541 -5.8876e-19)
(4.34541 -0.209206 -6.06464e-21)
(3.99649 0.363802 -7.01645e-19)
(3.80385 0.297671 -1.74711e-18)
(4.1441 1.11036 -7.98307e-19)
(5.95632 -0.59411 0)
(1.04608 -0.156428 9.62734e-20)
(2.98896 -0.982819 -2.94681e-18)
(4.08997 -0.0519942 -3.07418e-18)
(5.64853 -1.09954 -1.97191e-19)
(4.6865 0.064333 2.00745e-19)
(6.7942 -0.0198927 -9.12931e-19)
(4.42054 -0.472513 -1.55353e-19)
(4.56576 -0.908161 -9.22038e-19)
(3.88311 0.519293 7.762e-19)
(8.8702 1.74555 0)
(3.86418 0.0434225 1.36146e-19)
(3.70474 -0.0597289 -3.84884e-19)
(5.14886 0.710246 0)
(3.92506 0.0446012 0)
(4.41897 -1.96404 -1.99921e-20)
(2.61079 -1.20542 5.63351e-20)
(3.84993 -0.104197 4.1036e-19)
(3.94924 0.0247028 0)
(3.92984 -0.051567 -1.71003e-18)
(3.59023 0.0171886 -3.41963e-19)
(2.58281 -0.532517 -4.14423e-20)
(4.26648 0.116409 2.24616e-19)
(2.81246 -1.32461 0)
(1.09581 -0.432924 7.06162e-20)
(4.47607 -0.215487 0)
(3.97808 -0.105035 -1.48199e-19)
(4.29013 0.443805 -4.74997e-19)
(3.80673 -0.0486186 1.83228e-20)
(4.39161 0.302419 -9.58126e-19)
(5.56072 0.902532 -1.15143e-19)
(3.89628 -1.05961 2.12034e-18)
(2.96641 0.98312 0)
(3.44536 -0.0456284 2.86833e-19)
(3.76798 0.214501 0)
(4.52031 -0.0499235 4.47967e-20)
(2.62157 -0.562455 -6.19744e-20)
(3.77108 -0.393361 -8.38825e-20)
(3.91297 0.024353 2.18707e-19)
(3.16039 -0.880364 6.81393e-20)
(3.93151 -1.9133 -1.12522e-18)
(3.01482 -1.00064 -1.67687e-18)
(4.05667 0.025116 -4.98785e-20)
(3.68003 -0.0857121 -2.33423e-19)
(2.8429 -1.23176 1.22933e-18)
(3.14526 -0.978437 1.86513e-18)
(3.05899 0.068159 -3.32609e-19)
(3.47855 -0.0979578 1.45099e-19)
(4.17909 -1.21042 1.03343e-18)
(4.22745 -1.70803 7.66844e-19)
(3.33647 0.0274067 4.81204e-20)
(3.9398 0.472195 -7.9665e-19)
(4.50074 0.380821 -3.12591e-19)
(5.21675 -0.664619 0)
(3.54775 -1.69284 -1.35937e-18)
(3.52907 0.109197 -1.44986e-18)
(4.0003 0.227847 0)
(4.64542 0.0669852 0)
(3.30562 0.13863 3.84889e-19)
(3.95271 -0.337061 1.11746e-19)
(4.58837 0.287914 -6.11435e-19)
(4.52502 -0.676078 1.78076e-18)
(4.10105 1.2318 7.30523e-19)
(3.63085 0.15819 1.38765e-18)
(2.63774 -0.664972 6.70846e-21)
(3.67738 0.795591 0)
(3.11982 -1.06823 1.82211e-18)
(3.75142 -1.37595 7.41731e-20)
(3.06058 -0.843806 -5.56134e-20)
(3.88606 -1.41274 3.41839e-19)
(5.48965 -2.45845 9.48613e-20)
(4.60683 0.278028 6.6567e-19)
(3.90973 0.0163347 -1.03273e-19)
(3.95156 -0.128105 -2.43044e-19)
(2.67497 -0.714076 2.3485e-20)
(4.64526 0.435487 4.81481e-19)
(3.84592 0.0253651 7.48951e-19)
(2.75235 -0.705649 -1.45428e-18)
(4.19851 -0.174918 1.06642e-18)
(3.99893 0.233696 0)
(4.6591 0.337409 5.46061e-19)
(3.92497 0.0859759 1.703e-19)
(3.28434 -0.694697 -5.7451e-19)
(4.3306 2.64108 4.43397e-20)
(4.13159 -1.15755 7.63919e-19)
(4.07406 0.202416 3.17449e-19)
(3.01561 -0.0824136 -2.18471e-18)
(5.21709 0.665558 0)
(4.00025 -0.0195174 3.92765e-19)
(4.11691 0.0760164 7.45734e-19)
(3.82222 0.26231 0)
(3.11434 -0.244198 1.23793e-18)
(4.03806 0.240405 0)
(4.28968 2.61656 8.35779e-19)
(4.38249 0.223127 0)
(3.89305 0.0819557 0)
(4.49401 0.149575 2.45104e-19)
(4.31143 -0.123739 3.82437e-19)
(4.39748 -0.269461 -4.09413e-20)
(3.85895 0.248309 -8.28788e-19)
(3.50287 1.62065 -5.99917e-19)
(3.8389 0.199013 -3.96009e-19)
(4.42621 0.385981 0)
(4.09115 -1.15724 -7.51105e-20)
(4.41107 -0.0207781 -3.34457e-19)
(3.8695 0.000749469 2.93814e-19)
(5.10188 -0.67807 0)
(5.11892 0.20894 2.74987e-19)
(5.08585 2.48934 4.9079e-20)
(3.92131 -0.0691205 2.13155e-19)
(3.39291 -0.642244 0)
(3.42247 -1.08773 5.21883e-20)
(4.16629 0.255835 0)
(3.94904 -0.102613 1.3007e-19)
(1.82356 -1.81345 0)
(4.35559 -1.04756 0)
(3.71052 -0.0063726 0)
(4.78498 -1.60486 0)
(3.47269 -1.36532 -3.29903e-20)
(3.01768 -0.641522 1.40536e-20)
(3.817 -0.193575 -1.28647e-18)
(2.44039 -0.0177678 1.43531e-19)
(2.94808 -1.27116 0)
(2.72529 -0.162089 1.2527e-19)
(3.08521 -2.61218 -2.84578e-18)
(3.7056 -1.68969 0)
(3.37529 -1.16515 -1.89829e-18)
(3.82409 0.265425 7.10359e-20)
(4.48816 0.234435 8.06363e-19)
(6.26612 -1.55785 -3.75578e-19)
(3.7637 0.261188 0)
(5.33933 -1.29789 0)
(4.57172 -0.66632 1.15692e-19)
(3.86545 0.110945 -4.21254e-20)
(3.99482 -0.0263438 1.25104e-19)
(3.50421 0.204859 -2.8139e-20)
(4.23635 -0.278415 7.22285e-20)
(4.09267 0.121306 1.01015e-19)
(3.80234 0.106954 1.17519e-18)
(4.02659 0.0785593 -2.18139e-19)
(4.07697 -1.01335 0)
(3.4926 -1.63243 0)
(4.00399 0.0416335 0)
(4.27886 0.0982494 0)
(3.83084 -0.634891 7.86614e-19)
(4.35252 -0.0998014 0)
(3.49401 -1.23564 2.25034e-19)
(3.61527 -0.291778 -2.18754e-20)
(3.03577 -1.03042 -2.84827e-18)
(3.89465 0.403094 -4.20447e-19)
(2.84863 -0.621118 3.0846e-20)
(3.62304 -1.21349 -1.45903e-19)
(3.98726 0.128118 2.24944e-19)
(2.77394 -0.84882 2.16872e-20)
(4.00589 0.0886901 -3.21297e-19)
(4.40488 0.117824 0)
(4.84523 -0.053075 0)
(3.9063 0.174252 0)
(4.71608 -0.595135 3.44963e-19)
(3.45751 -0.240886 0)
(3.95484 0.760062 0)
(4.1531 0.211066 0)
(3.94343 -0.899791 8.16438e-19)
(4.19887 0.0815259 -1.0655e-18)
(4.41552 -0.357519 0)
(3.7029 -0.097787 3.22429e-19)
(3.85541 0.272046 -1.06526e-18)
(4.98113 0.643633 -8.01038e-20)
(3.66331 -1.67463 1.12094e-18)
(4.01515 0.675802 4.26375e-20)
(3.88046 0.00301049 2.22738e-20)
(4.07433 0.0597224 -1.1681e-19)
(4.03017 0.0267514 1.72557e-19)
(4.5835 -0.099929 -5.04315e-19)
(4.03072 -0.00773158 2.75031e-19)
(3.73687 -0.0462281 -1.22705e-18)
(4.25108 -0.00796491 0)
(4.13494 1.08258 2.79345e-19)
(3.61726 0.0268764 1.35391e-18)
(3.70449 0.456397 -4.85187e-19)
(4.51247 -0.36511 -4.45759e-19)
(2.6154 -0.610783 -2.48612e-18)
(4.62717 0.219323 8.69121e-20)
(4.51341 -0.337209 2.37659e-19)
(4.02294 -0.107569 0)
(4.26262 -0.214758 -2.23367e-19)
(3.94794 0.0540283 7.48029e-20)
(3.64514 0.0385521 -4.0759e-19)
(1.60761 -0.910442 -6.75467e-19)
(4.02389 -0.266548 7.00091e-19)
(4.05276 0.0196931 -2.93988e-20)
(3.96464 0.240154 -2.10774e-19)
(4.01746 0.0135856 0)
(3.9925 0.333228 0)
(3.49684 -1.63378 1.37359e-18)
(2.93186 -1.36414 5.29416e-20)
(3.76503 0.0787368 2.20544e-20)
(4.11901 0.237788 2.71974e-18)
(3.79068 0.309831 6.34215e-19)
(3.19955 0.333491 0)
(4.02003 -0.0489696 0)
(3.57819 -0.753752 -1.16138e-20)
(4.04451 -0.290874 4.6882e-19)
(4.07031 0.683139 1.42954e-18)
(4.41258 0.244105 0)
(3.41363 0.0326665 0)
(4.61751 -1.065 1.22987e-18)
(4.10814 -0.367757 1.00826e-18)
(1.25506 -4.23455 -1.24854e-18)
(3.83386 0.018379 0)
(4.3192 -1.15358 1.25996e-19)
(3.93904 -0.115705 7.00662e-20)
(3.20922 -1.03438 -1.24933e-20)
(3.88279 -0.251899 -1.4388e-18)
(4.08696 -0.625326 0)
(3.91274 -0.464358 -9.35662e-20)
(3.34694 -0.604045 8.69682e-20)
(-0.128214 -6.32117 0)
(4.19401 0.451117 2.30287e-19)
(3.86466 0.0609039 -8.81371e-19)
(4.06277 0.23017 3.78564e-23)
(4.32795 0.42919 2.61192e-19)
(7.88624 5.21211 3.7031e-18)
(4.05934 0.0169958 0)
(2.60228 -0.961768 -1.52159e-20)
(4.39634 0.158173 -5.47572e-19)
(3.8548 -0.844356 -3.86362e-20)
(4.09969 0.21295 8.35166e-19)
(2.9887 0.956306 -4.2163e-19)
(4.29218 0.0340038 -3.15706e-18)
(3.96346 0.0157248 1.07585e-19)
(3.94567 0.103646 -2.34891e-19)
(3.84401 -0.885851 0)
(3.96076 0.262222 1.311e-19)
(2.73079 -1.25216 9.79275e-19)
(4.13277 -0.0401017 -1.24594e-18)
(3.99644 0.0608067 -1.18822e-18)
(3.94839 -0.0710397 -1.03634e-19)
(3.52943 -0.607418 2.90815e-18)
(4.12961 -0.0837401 -1.19027e-19)
(3.7878 0.134766 6.95114e-19)
(4.01665 0.0199342 1.57885e-19)
(4.05443 -0.410549 5.65868e-20)
(4.95946 0.786699 -8.37796e-20)
(3.39534 -0.265372 -1.39804e-19)
(4.42563 0.552776 0)
(3.69725 0.162479 0)
(7.81583 1.48135 0)
(3.04037 -0.979883 2.1695e-18)
(4.36432 0.223418 -2.05361e-18)
(3.70682 0.158525 0)
(3.31093 -0.751646 -1.68918e-18)
(3.67502 0.258454 0)
(3.82389 -0.545551 -1.29339e-18)
(3.9679 -0.138564 3.47091e-19)
(4.19705 -1.08299 -1.07047e-18)
(4.00289 0.158094 0)
(3.91223 0.0168196 0)
(4.11812 0.0391182 -1.45696e-19)
(4.3607 0.0976827 -1.39562e-20)
(3.76757 -0.0371755 -9.28007e-20)
(5.63279 2.57597 -3.28785e-20)
(4.4233 0.310082 0)
(3.88603 -1.32911 -5.77883e-19)
(5.44653 -3.83108 0)
(2.40445 1.33348 -1.26497e-18)
(5.47388 0.692376 0)
(3.97328 0.0169634 6.24841e-20)
(2.74684 -0.516898 9.59301e-19)
(3.39287 -0.465988 9.32644e-19)
(3.85539 0.0276592 1.89375e-19)
(3.30414 -0.160503 4.16482e-19)
(4.141 -0.372776 2.56131e-18)
(3.96438 0.214997 -1.67091e-20)
(6.80575 0.00110725 1.06956e-18)
(4.44057 -0.807902 -5.58227e-19)