/*--------------------------------*- C++ -*----------------------------------*\
| =========                 |                                                 |
| \\      /  F ield         | OpenFOAM: The Open Source CFD Toolbox           |
|  \\    /   O peration     | Version:  2306                                  |
|   \\  /    A nd           | Website:  www.openfoam.com                      |
|    \\/     M anipulation  |                                                 |
\*---------------------------------------------------------------------------*/
FoamFile
{
    version     2.0;
    format      ascii;
    arch        "LSB;label=32;scalar=64";
    class       volVectorField;
    location    "4.1";
    object      U;
}
// * * * * * * * * * * * * * * * * * * * * * * * * * * * * * * * * * * * * * //

dimensions      [0 1 -1 0 0 0 0];

internalField   nonuniform List<vector> 
13486
(
(6.14925 -1.21712 1.61606e-20)
(6.87112 0.70509 8.07206e-21)
(8.66988 -0.176425 0)
(-7.38984 2.92566 -5.95753e-20)
(9.2576 -1.97785 2.67114e-21)
(9.37032 0.458869 -3.91476e-22)
(8.55157 -1.50122 -1.51256e-21)
(8.25139 -2.9721 -4.99311e-21)
(7.9761 -1.80028 0)
(7.84519 2.22883 0)
(-1.32454 2.93985 -2.13133e-20)
(10.8075 0.488292 0)
(5.70194 -1.98885 -1.58618e-20)
(9.34021 2.26363 -5.32773e-22)
(9.28811 -1.93015 5.16183e-21)
(7.73361 2.32718 -6.07719e-21)
(2.33451 -0.900111 1.60125e-20)
(4.15187 -14.9106 -5.60545e-20)
(9.55494 0.125897 1.29232e-22)
(6.76435 -0.555277 -1.65876e-20)
(-7.747 6.32922 -2.39989e-20)
(5.75921 -2.03504 2.04348e-20)
(6.96627 0.700862 -6.46627e-21)
(11.3809 -3.44073 0)
(8.15779 1.82708 1.99865e-21)
(11.3851 -3.3367 -4.56452e-21)
(-0.95671 1.07755 1.94793e-20)
(9.41215 -0.389982 4.64276e-21)
(7.03569 -0.810726 0)
(9.07982 -1.3743 -1.97911e-21)
(-2.03354 -1.15977 -2.13014e-20)
(10.6925 -2.61948 -1.00779e-20)
(10.9781 -0.702776 7.6729e-21)
(8.52016 -0.228279 0)
(8.30852 -2.87078 0)
(6.52471 0.121164 -1.96224e-24)
(9.27047 -4.93806 -7.05359e-21)
(6.65343 -3.11726 7.17803e-21)
(14.6337 7.39971 -3.51066e-21)
(8.06193 -1.16484 8.12799e-21)
(10.8248 -2.57477 0)
(4.94956 -2.37319 -1.88988e-20)
(9.75008 -0.014282 0)
(8.09678 1.55723 -9.63442e-21)
(8.16563 1.56768 3.922e-21)
(10.6885 0.464834 4.29069e-21)
(-1.20752 -0.547798 2.67117e-20)
(7.19607 -0.758051 -6.93376e-23)
(9.44959 -4.37215 5.38868e-21)
(10.0229 -0.0157216 2.74856e-21)
(7.97546 0.115872 1.01714e-20)
(12.7292 1.01297 0)
(12.1397 0.74768 -2.39021e-21)
(6.89407 -2.61785 -1.07418e-20)
(3.58133 -13.2138 0)
(9.22392 -2.0813 -1.93663e-21)
(6.47238 -1.61973 -7.34053e-22)
(12.984 2.40724 -2.4423e-21)
(11.3236 -0.672213 8.72291e-21)
(5.36774 -6.0763 0)
(-1.65724 2.87604 -2.6279e-20)
(5.70297 -5.57142 0)
(12.0853 1.33767 -8.6812e-21)
(-7.62464 6.5651 -2.848e-22)
(9.45281 -7.63408 0)
(8.3473 -5.13006 -3.55293e-21)
(-7.73538 3.40829 -4.98256e-20)
(6.08812 -0.236469 5.5839e-21)
(7.9982 -1.8888 -4.14871e-21)
(6.64867 0.320636 3.21655e-21)
(-6.25924 2.39832 5.75324e-20)
(4.61655 -14.6293 -3.31018e-21)
(7.95928 -0.642323 6.3038e-21)
(-2.64002 -0.0818534 -1.58721e-20)
(7.28204 -4.59424 -9.58321e-22)
(5.85248 -1.39531 1.70882e-22)
(7.69371 -4.32252 1.26127e-21)
(9.21358 -1.92369 -1.90903e-21)
(-1.32065 0.655562 -1.37574e-20)
(3.28119 1.24496 0)
(7.24686 -0.0178009 4.92861e-23)
(6.71013 1.01362 -5.23178e-22)
(12.0255 1.46321 -5.39167e-22)
(8.90063 0.056564 -1.00034e-21)
(6.14252 -1.25557 -3.14541e-20)
(6.10235 5.29779 0)
(4.70502 7.55187 -9.5555e-21)
(7.98563 0.178079 -1.56368e-20)
(7.5293 0.593643 -6.77058e-21)
(7.15165 3.11519 -7.4384e-21)
(12.7867 -2.40602 -4.72091e-21)
(8.70474 -2.53563 -2.56614e-21)
(6.38012 -1.61071 4.06058e-21)
(6.85046 -0.0149368 4.37828e-22)
(7.69954 -2.47954 1.57213e-21)
(7.2606 -0.620124 2.09262e-23)
(-1.37224 1.24933 0)
(-7.24285 4.33951 2.3039e-20)
(8.07807 -1.14206 -1.55774e-20)
(1.82293 -0.465902 1.19619e-22)
(7.11451 0.07844 0)
(9.22204 2.27748 -2.94312e-22)
(-6.71818 4.49208 -4.05033e-23)
(13.1416 1.77012 3.00134e-21)
(5.38087 4.97454 0)
(1.60239 -0.194527 1.21253e-22)
(7.84031 0.132526 2.07113e-23)
(12.1297 7.63167 -6.93022e-21)
(-1.2876 0.117592 1.83833e-20)
(8.41186 -3.80474 0)
(6.81927 -3.1981 0)
(9.10684 -3.65745 -1.47044e-20)
(6.92744 -2.54904 1.18946e-22)
(7.01112 -0.862302 6.6192e-23)
(4.9343 -0.696278 0)
(6.68042 -3.15258 -5.03943e-21)
(8.07671 1.93293 0)
(8.56441 -0.105436 0)
(7.95034 -0.62766 0)
(9.69095 -3.2208 -1.66867e-21)
(3.63193 -15.0392 3.08393e-20)
(-1.84444 3.38436 0)
(7.58979 -2.28973 0)
(10.9563 7.75844 8.49448e-21)
(7.86992 -2.82704 0)
(13.3217 1.01755 0)
(8.98777 -1.33827 1.88975e-22)
(8.53833 0.309175 4.21485e-21)
(8.19863 0.0560606 7.77373e-22)
(8.59077 -7.00397 -7.90674e-21)
(12.9823 0.228233 -2.96647e-22)
(-1.79694 -1.24529 -6.66675e-21)
(4.85398 0.490727 2.42166e-20)
(-1.1094 0.251685 2.25441e-20)
(7.99007 0.0540843 -1.65417e-21)
(7.6183 1.33467 -7.95347e-21)
(3.49174 1.76598 -5.06807e-21)
(8.27376 -3.63656 0)
(9.75899 -2.78223 3.88262e-22)
(8.32876 -2.46081 -2.20569e-21)
(10.8689 -0.131523 -7.33224e-21)
(12.4912 0.7081 1.86235e-21)
(11.4159 -1.13445 0)
(2.75915 1.41159 0)
(10.0791 -0.0349126 4.43408e-22)
(15.5571 1.13276 -2.07124e-20)
(8.34283 3.89389 1.60767e-22)
(-1.06937 3.66893 0)
(10.33 0.0113014 0)
(6.95513 -0.80766 0)
(7.98976 0.0628675 1.67771e-22)
(9.17404 -1.79549 0)
(7.17105 0.00612171 -5.15816e-23)
(6.64787 0.946241 -4.44832e-21)
(8.57146 1.04161 0)
(8.83102 -0.171513 0)
(8.2788 -3.56831 0)
(-2.65271 6.87202 2.48589e-21)
(7.30257 -2.94101 1.40178e-20)
(2.77262 -0.0872189 -2.24663e-21)
(9.71752 0.0990192 1.29751e-21)
(7.33062 -2.87488 -2.09901e-20)
(9.19958 -6.31311 2.49236e-21)
(4.44794 -2.23836 8.24343e-21)
(12.9161 1.6438 0)
(9.70771 2.25831 -6.0972e-22)
(9.05393 2.10155 3.19115e-21)
(2.58912 -0.854083 -2.16162e-20)
(8.29661 3.71885 -4.77704e-22)
(-1.21545 0.210288 6.11621e-21)
(-3.30663 2.27639 5.53211e-22)
(8.56222 0.944972 3.35732e-21)
(7.9851 0.302916 -1.30431e-20)
(9.65216 -1.24232 3.8015e-22)
(7.39866 -0.247285 4.52725e-23)
(-0.459058 2.81344 0)
(9.27542 3.34859 -2.68925e-22)
(11.2545 -0.00589407 1.06395e-20)
(7.84476 0.0950367 -1.63015e-20)
(11.3157 -0.917573 0)
(8.25557 -1.37908 1.60004e-20)
(7.00535 -0.740264 1.30724e-22)
(10.2242 -1.24472 -3.61968e-23)
(-3.61373 1.9851 0)
(8.86342 1.01627 2.43722e-21)
(9.341 -0.322606 -2.08789e-21)
(7.21982 -1.15509 -1.23465e-23)
(8.81836 -0.813823 -2.68881e-22)
(10.605 -2.64016 0)
(6.16228 -2.96099 -7.40265e-21)
(9.34622 -3.69903 0)
(8.9776 -0.32054 0)
(11.6233 3.42301 0)
(7.11941 2.83354 -9.80998e-21)
(9.43591 2.93442 0)
(-1.52892 3.60989 -6.14516e-21)
(8.73899 -7.50952 1.67538e-20)
(9.51572 0.0422252 6.58774e-22)
(5.87185 -2.88906 -3.43218e-21)
(9.5869 2.08555 2.35493e-22)
(-0.441927 -1.2835 2.39411e-20)
(8.58789 0.359523 -1.30085e-22)
(6.55746 -3.15225 -8.31789e-21)
(9.14393 -3.52121 -2.29026e-21)
(2.46975 0.0765767 3.05273e-21)
(10.4102 2.93639 2.89527e-21)
(4.89451 -12.7857 -2.04624e-20)
(7.66486 -0.353259 1.28677e-20)
(11.0197 4.04225 0)
(8.79923 0.797778 0)
(9.02629 -0.387173 1.70149e-21)
(10.6548 -4.88836 9.06207e-21)
(6.80582 -0.445466 1.5235e-20)
(7.80809 0.151867 3.87123e-23)
(9.3544 0.574298 4.51458e-22)
(5.47384 -1.59979 -3.46106e-22)
(9.26825 -1.19116 0)
(7.28979 2.94096 1.82718e-20)
(6.70537 -1.69285 0)
(11.4679 1.92373 0)
(2.01055 -0.881808 -3.04608e-20)
(10.1432 0.0573926 0)
(8.26021 -2.45238 5.01432e-21)
(10.6248 0.123729 0)
(12.6297 2.17377 -5.60645e-23)
(5.81375 -2.72466 5.63424e-21)
(9.77501 1.02637 -3.40659e-23)
(3.35181 -1.01581 1.0825e-20)
(6.85987 0.18963 -4.09641e-22)
(5.96385 6.67222 5.46961e-22)
(8.27436 -1.3545 -5.16887e-21)
(10.6062 3.06665 2.74044e-20)
(10.9593 -0.315818 9.19319e-21)
(4.88714 -2.34355 6.50952e-21)
(-6.89083 5.5317 0)
(5.40656 -2.64073 6.51752e-22)
(8.5211 -0.541172 -4.58409e-22)
(8.88255 -0.295144 -7.80017e-22)
(5.45854 -2.6136 1.80309e-20)
(10.1083 -0.667272 0)
(11.4426 -0.949132 0)
(8.00722 0.252802 2.00966e-20)
(9.1273 -0.409543 0)
(5.17033 -2.56256 5.82243e-21)
(8.49699 10.8637 -1.69579e-20)
(7.33726 0.026687 0)
(10.2535 -0.0574951 -1.71429e-21)
(10.037 -2.64978 1.0804e-20)
(0.263481 -0.471709 3.61235e-20)
(8.0067 1.48271 0)
(-4.68875 4.00363 -8.80279e-21)
(4.83301 -0.593482 2.45401e-21)
(6.20297 -3.03364 6.096e-21)
(9.395 7.518 0)
(4.15667 0.329677 -2.19153e-21)
(-0.752596 2.83579 4.62794e-21)
(10.7822 -2.4516 8.47732e-21)
(5.70648 -2.47493 4.37354e-22)
(-1.19889 5.33732 -2.60259e-21)
(11.1363 -0.91816 6.44575e-21)
(7.23981 0.581502 0)
(7.95405 11.7162 -5.63669e-22)
(9.22104 -1.9152 -1.1806e-20)
(-0.524943 2.92926 -5.77817e-21)
(9.23809 -2.84322 2.29901e-22)
(-3.46306 2.06425 0)
(7.59483 0.406631 3.82761e-21)
(-3.76424 1.65733 -2.92153e-20)
(8.24832 -0.0778884 -7.6637e-21)
(7.32189 -3.73342 0)
(6.26148 2.76183 7.43305e-21)
(7.85598 0.182186 -4.44584e-21)
(9.14258 -1.39504 0)
(10.9664 1.0276 2.7857e-21)
(5.9616 -2.82652 7.50469e-21)
(10.0626 -2.42906 -6.0297e-21)
(4.46701 1.05845 0)
(6.6003 -10.0793 0)
(7.14688 6.62788 -2.45745e-21)
(8.84476 3.98713 -4.9476e-22)
(6.23043 -10.8258 1.78932e-20)
(8.68008 -1.00348 -6.31416e-21)
(7.75924 0.190128 9.67881e-21)
(15.1776 -2.92857 -1.47296e-20)
(-2.3147 3.12097 3.12173e-20)
(-0.151983 1.59913 2.96375e-20)
(10.9134 -0.0060299 8.38322e-21)
(8.6118 0.0436821 -1.02222e-21)
(12.5337 2.15299 -1.21893e-21)
(8.06716 -0.0801201 0)
(-7.07305 5.51185 0)
(-1.62964 -3.19862 3.65721e-20)
(6.62042 -3.12159 5.54426e-21)
(7.99502 0.0701108 -1.61774e-21)
(8.35855 -0.402702 -1.04662e-21)
(8.62706 -0.612136 0)
(9.62862 -0.0975113 -1.5206e-21)
(10.8841 1.08196 -2.32371e-21)
(7.70319 0.116126 -8.84629e-21)
(9.65897 -0.921597 -1.86249e-21)
(8.23137 -6.59853 -3.79351e-21)
(4.19486 -11.6743 1.2227e-22)
(8.68387 3.88597 4.21636e-22)
(10.4677 -2.39924 9.55379e-21)
(10.4504 -3.51504 1.25259e-21)
(7.97303 -3.87067 0)
(8.34418 3.29865 0)
(9.40519 -0.108291 3.3595e-21)
(3.27822 7.42677 7.42591e-21)
(9.27763 -4.17221 0)
(8.50076 5.41231 -3.34159e-20)
(-7.8677 3.92987 0)
(8.90281 3.30118 1.19149e-21)
(9.68067 -3.45379 -1.48772e-20)
(2.53761 3.20913 0)
(7.56887 1.16478 -4.89203e-21)
(-1.18393 -2.60419 -5.09774e-20)
(7.50906 0.562193 -5.75574e-22)
(7.65548 -0.338363 -1.42437e-20)
(7.00596 0.116585 0)
(8.81386 -4.65138 6.3274e-21)
(2.18492 -2.11134 1.65398e-21)
(7.90211 0.145264 2.05735e-21)
(6.77811 0.136145 -8.2675e-21)
(3.63426 1.61567 9.37273e-21)
(12.5458 -2.51849 8.32602e-21)
(9.08358 -1.73273 -1.6095e-20)
(8.71881 -1.00464 0)
(9.96339 1.60622 1.40363e-22)
(9.15097 -1.74289 -2.84034e-21)
(7.97443 0.104049 2.26195e-20)
(8.80878 -2.5086 0)
(12.8812 -2.91887 -1.52166e-21)
(6.12416 0.943435 0)
(8.44366 -1.37109 -1.11866e-20)
(7.93715 -2.33488 -4.1322e-21)
(3.83838 -1.79637 8.12289e-21)
(9.16348 -1.70867 -4.35354e-21)
(8.03149 0.653343 0)
(7.30873 11.6117 -4.62046e-20)
(6.0386 -0.170033 -3.60127e-21)
(6.82426 0.15317 7.81805e-21)
(9.21649 -1.78233 1.15733e-20)
(10.1021 -1.28709 9.2462e-21)
(-3.6576 2.13001 -2.35624e-20)
(7.17696 -0.717373 1.00917e-23)
(9.26324 -1.08027 0)
(4.79164 -1.74672 1.89693e-20)
(11.458 1.88183 0)
(-0.103542 -0.596572 -5.51423e-21)
(9.15647 -0.595705 1.23388e-20)
(10.5233 1.56912 -2.27646e-21)
(11.255 1.0227 2.03413e-21)
(-1.66604 1.30405 -2.34521e-20)
(7.75596 0.125226 1.10462e-20)
(7.49635 0.135016 0)
(-2.41442 -0.340007 -1.42215e-20)
(8.99444 -1.32986 -3.88915e-21)
(5.69955 7.42749 -4.23138e-21)
(9.6675 -4.05657 6.82115e-21)
(10.7509 0.11976 0)
(13.7213 -1.79489 1.87918e-21)
(7.29752 0.333876 1.70283e-20)
(7.84874 0.208331 1.34776e-20)
(8.90275 -1.52065 0)
(7.10034 0.00475549 -2.4042e-23)
(8.55646 -0.608947 4.30533e-22)
(-1.23341 -1.8298 4.23768e-21)
(6.67771 -0.517891 2.11764e-21)
(9.01156 -1.20986 3.7095e-21)
(10.3709 0.0183121 -2.14034e-22)
(9.19214 -1.02718 0)
(12.3442 2.73767 2.94017e-21)
(-4.08208 3.33002 8.06275e-21)
(9.26958 1.21495 -1.11152e-21)
(7.98185 0.114082 8.52626e-21)
(6.45491 0.0146105 0)
(4.34989 6.13755 -1.05665e-19)
(5.14631 2.63537 0)
(12.3511 3.13647 -7.22558e-21)
(8.29393 -0.122566 0)
(8.86557 -2.8233 -2.06622e-22)
(5.81679 -0.852251 -4.52494e-21)
(6.33728 2.34657 1.72753e-20)
(-1.06452 -1.39539 -1.57792e-20)
(6.17249 0.892801 0)
(9.01286 0.225788 -3.39064e-21)
(8.03942 0.688283 -5.3765e-21)
(1.36356 -0.973048 -1.04392e-20)
(-5.56822 2.35165 3.05241e-21)
(6.91509 -0.527684 -2.29472e-20)
(9.40298 -1.27909 1.65606e-21)
(8.26432 0.649302 3.9077e-21)
(6.29895 -2.10181 0)
(5.91233 0.614329 9.14018e-21)
(9.2038 -2.51756 -6.19008e-22)
(-7.9399 3.22268 3.41495e-20)
(-4.29718 3.50233 -2.83905e-20)
(1.39862 -1.02719 -1.93663e-20)
(10.9912 0.0486768 0)
(1.17268 -0.921837 0)
(8.05178 3.66952 0)
(8.5671 -0.447968 0)
(10.2905 0.0334896 -2.05824e-20)
(8.4019 -1.84144 0)
(6.95871 6.29275 0)
(6.89839 0.0629633 3.22986e-21)
(11.0787 0.0517934 -1.09319e-20)
(9.09881 -0.956867 -9.2705e-21)
(6.97171 0.854041 2.80812e-20)
(8.01552 0.116446 -2.69821e-21)
(8.82336 5.39955 0)
(9.78783 -1.01437 0)
(7.69682 0.133999 9.4338e-21)
(7.9831 0.0742216 1.64034e-21)
(5.34186 2.72417 0)
(-3.64411 1.93855 2.51136e-20)
(9.22955 -2.85372 -2.57887e-22)
(-2.80949 0.251435 0)
(10.1954 -0.683556 8.31311e-21)
(7.85393 0.138998 -1.08847e-20)
(0.388846 -5.19571 2.01996e-22)
(4.77107 -1.70052 0)
(7.99985 0.706395 9.92476e-21)
(9.82231 0.535063 0)
(8.74754 -0.688986 0)
(8.67163 0.643573 -5.99745e-22)
(7.74518 0.210748 5.07688e-21)
(-1.01901 1.05366 -2.55017e-20)
(8.96555 2.04957 1.27427e-21)
(5.86217 -1.68178 -7.78806e-21)
(8.42352 -0.398434 1.13685e-21)
(8.29617 0.697348 3.07981e-21)
(12.0693 2.82411 -7.80533e-21)
(9.5149 -2.53166 0)
(10.333 -2.21094 5.23907e-21)
(5.84516 -0.628568 0)
(-0.946506 -0.949393 4.56543e-20)
(9.60096 -1.21804 0)
(6.15419 -0.210293 1.19468e-20)
(-1.68456 -1.58266 -2.58472e-20)
(9.43561 -1.04573 0)
(-0.314266 1.24048 1.01874e-21)
(9.7597 -1.12065 -4.33997e-21)
(2.11507 5.16883 -8.33798e-21)
(7.39073 -1.32308 2.08273e-20)
(5.73195 2.12225 -1.08063e-20)
(5.84588 -1.65566 -2.23803e-20)
(12.7553 3.04557 0)
(9.87477 -3.3548 2.02651e-21)
(-3.5155 2.13394 -5.54145e-20)
(8.01674 0.717472 0)
(7.47143 0.629529 6.30595e-22)
(10.1243 -0.0348199 -5.86586e-22)
(10.1526 3.35442 0)
(7.99829 0.0274743 0)
(-4.10653 2.27236 0)
(0.590647 2.20297 2.12363e-20)
(15.6521 -3.98555 1.74467e-20)
(13.9254 1.16941 8.53597e-22)
(8.87501 3.12687 0)
(7.14083 -0.962763 1.4557e-20)
(7.466 -0.237574 -9.9103e-23)
(8.95618 1.90251 -2.79602e-21)
(-8.72891 6.59604 4.9664e-20)
(7.67315 0.493214 0)
(7.07938 -0.761524 0)
(3.84789 -0.901341 -1.31029e-20)
(6.20441 -2.07214 -5.38992e-21)
(8.02914 -0.928528 0)
(7.45575 -3.46176 -3.00051e-21)
(7.3035 0.0977452 5.48082e-23)
(7.2045 -0.572832 -4.99664e-23)
(4.17653 -1.92229 0)
(9.11463 0.949886 -3.14688e-21)
(9.63537 -2.64815 8.11676e-22)
(9.85334 0.535218 1.15075e-21)
(7.8917 -2.41923 0)
(0.321375 1.51933 -4.47868e-20)
(10.6586 1.36951 2.53774e-21)
(7.98194 0.385026 2.04613e-21)
(7.91396 0.0688428 3.49304e-22)
(9.86666 2.16068 0)
(6.94293 0.83735 -7.47182e-21)
(11.3295 1.30986 -4.49922e-21)
(1.74674 -1.07549 4.14301e-21)
(7.99179 0.18913 0)
(-4.92129 2.34649 -3.13239e-21)
(2.85537 -0.683623 0)
(8.01363 0.190188 -8.03003e-21)
(7.95887 0.24663 3.3893e-21)
(7.58806 -0.00098171 -1.8433e-21)
(-0.829187 3.50369 0)
(8.79993 -0.0143724 -1.56192e-21)
(5.01612 1.08873 2.5043e-20)
(9.39869 -2.73155 0)
(6.82227 -0.00208347 9.8907e-21)
(9.63327 -1.35947 2.14997e-21)
(8.60561 0.0724442 0)
(-3.10488 1.95396 1.40075e-20)
(3.10191 2.47333 2.04513e-22)
(10.3485 0.0123024 0)
(1.07566 1.07616 2.96928e-20)
(7.44266 0.560368 0)
(7.47773 -3.40591 4.96972e-21)
(-4.43192 4.31869 1.63758e-20)
(7.31786 -1.061 1.43996e-23)
(9.42273 0.465726 3.70222e-22)
(5.87908 0.566741 4.81191e-21)
(7.41472 -1.43881 -7.63932e-21)
(5.86783 1.72861 2.61764e-21)
(7.54109 -3.34877 1.07201e-22)
(8.96635 -1.18923 3.58702e-21)
(9.84884 2.13035 1.49926e-21)
(8.89814 -3.8999 0)
(7.99197 0.082717 -7.55975e-21)
(1.60925 -0.0907508 -1.28921e-20)
(5.92628 -0.658912 0)
(8.01115 -2.66185 -1.29127e-23)
(6.40233 0.223915 0)
(5.52105 -1.74236 1.9656e-20)
(8.76641 -3.12287 0)
(6.87751 0.0574578 -3.8809e-23)
(9.39643 -0.536666 -7.07522e-21)
(0.236237 -0.14612 2.64315e-20)
(-4.90414 2.78244 3.03821e-20)
(10.5738 0.013041 -7.42876e-23)
(7.62393 -3.61337 1.23071e-22)
(7.54635 -2.29043 6.73989e-21)
(6.36256 -1.62356 0)
(-2.35268 1.38654 -1.49358e-20)
(9.53374 -2.48511 -6.33665e-23)
(-2.54254 1.62828 -1.7312e-20)
(7.27331 -0.679026 2.47872e-23)
(6.3206 -2.51926 0)
(8.94051 0.0486173 -4.84083e-23)
(-3.46372 1.95023 0)
(-6.49989 4.49748 -1.34748e-22)
(0.226406 -5.50632 5.63339e-22)
(-0.727978 6.52977 0)
(8.52625 -2.28463 1.60973e-21)
(9.52889 -8.48422 0)
(10.17 3.20478 0)
(7.06856 -3.35122 -6.536e-21)
(6.22975 0.760969 7.46268e-21)
(1.07914 0.360551 0)
(7.31671 0.423732 -4.68745e-21)
(13.7434 1.80333 2.26643e-20)
(-3.77819 2.95233 3.54798e-20)
(10.3795 4.43468 0)
(8.54121 -0.00674006 0)
(-3.38324 2.33848 -2.38109e-20)
(7.72059 -0.642831 0)
(9.20704 0.277439 0)
(-1.63735 3.15328 -5.42165e-22)
(8.50517 -1.78198 -9.54811e-21)
(7.37998 -1.93593 6.05938e-21)
(11.3747 -1.30659 9.46456e-22)
(-2.60802 1.66952 3.20346e-20)
(7.96 0.201185 3.88213e-21)
(6.52261 -1.72217 0)
(8.51781 1.51434 -1.63264e-21)
(6.11517 -1.13716 0)
(8.09104 -5.83918e-05 0)
(7.99771 0.440076 0)
(8.64918 0.620308 -4.89469e-22)
(7.62809 -0.332558 6.54737e-21)
(10.0224 -0.312526 -6.0288e-22)
(6.68441 -1.76293 0)
(-1.21926 0.949863 -1.87358e-20)
(7.91551 3.44208 3.19589e-21)
(7.84771 -2.8475 5.17048e-22)
(7.67581 0.122568 2.22081e-21)
(9.59072 -2.69218 8.48553e-21)
(8.01318 0.0736355 -6.3093e-21)
(-1.6416 -1.22475 0)
(10.8455 1.10599 0)
(5.85174 2.60034 0)
(5.59932 -2.52336 -1.40364e-20)
(7.82044 -8.5471 -2.22507e-20)
(1.74577 2.79392 0)
(8.56871 1.50431 0)
(13.3611 1.31711 -2.07026e-21)
(7.80473 -0.100723 -1.81358e-21)
(7.6226 1.93336 8.53676e-21)
(9.54825 -3.52985 0)
(-2.28003 2.53241 -7.72404e-21)
(9.13528 0.239168 1.57729e-21)
(6.08085 -1.94675 -1.29038e-20)
(8.64362 0.28074 -2.99405e-21)
(8.92067 1.90212 4.12235e-21)
(12.2133 -6.42442 1.17867e-20)
(5.5104 -2.48562 2.42591e-20)
(5.94868 -4.91014 4.017e-21)
(7.49154 -0.588917 1.37531e-22)
(7.98429 0.0321905 -1.8852e-21)
(6.73382 -3.24321 -6.03412e-22)
(2.71221 2.93991 4.32371e-22)
(6.53897 6.78108 -3.32294e-21)
(7.25861 -3.40682 1.87005e-21)
(10.0919 1.57452 0)
(5.94044 6.41817 2.10349e-21)
(8.64731 0.00510692 -7.63883e-21)
(10.8192 2.16897 2.2704e-21)
(5.96877 -1.80957 -1.18835e-20)
(7.79603 -2.76872 -5.97263e-21)
(8.68257 -0.113255 1.90068e-20)
(10.9702 -0.304795 -1.09229e-20)
(12.9493 8.08873 2.38878e-20)
(10.9797 0.198315 -4.33635e-21)
(5.22107 -1.04554 -2.71103e-20)
(8.64339 0.0132019 -6.43426e-21)
(5.19286 -1.28641 0)
(2.71597 -1.15452 -4.62179e-20)
(8.74122 0.0366269 1.59974e-20)
(5.99005 0.0853358 -3.18089e-23)
(-2.23366 -0.38249 0)
(8.02244 -3.57494 0)
(8.05829 1.38901 7.54352e-21)
(4.79165 -1.01673 1.69598e-20)
(9.25198 -7.37293 -2.21893e-20)
(8.89903 -2.84523 -1.23967e-21)
(9.11148 -1.74863 8.74965e-21)
(11.5858 1.77033 0)
(8.06921 1.48944 4.19103e-21)
(3.87055 -12.9094 -1.5965e-21)
(9.47211 3.17135 2.06937e-22)
(8.18882 -1.28364 -9.1837e-21)
(-2.77768 1.79336 -5.16927e-20)
(9.7324 -2.2459 -7.87454e-21)
(10.3222 -2.35594 3.09726e-21)
(8.6386 3.78975 0)
(7.6135 -0.583518 1.02853e-21)
(7.59436 -0.0155434 1.67537e-21)
(7.34108 -0.106392 4.48796e-23)
(4.46978 -2.21197 2.29608e-20)
(8.09668 -1.29031 1.38442e-20)
(1.75753 -0.431711 4.01971e-21)
(-3.92536 3.15768 -2.14853e-20)
(8.98997 -0.356287 -9.67006e-22)
(8.72303 0.103406 5.7638e-21)
(-2.11689 2.82163 -3.94758e-21)
(9.17702 3.12646 2.23347e-21)
(1.35608 0.369303 -3.22627e-20)
(5.57485 -2.69543 -7.05139e-21)
(7.21955 -0.0655843 0)
(6.46861 -1.5652 -6.68808e-22)
(-2.92478 2.10292 -1.25061e-20)
(5.78064 -0.950243 2.41623e-20)
(8.69398 -0.674184 0)
(10.5293 -6.82743 -2.07845e-21)
(5.36377 -2.22719 5.59199e-21)
(7.9633 0.137797 -1.65771e-20)
(-4.10065 2.23733 -2.42616e-20)
(2.78663 0.16033 -2.30021e-21)
(9.136 -1.01592 6.37228e-21)
(8.85283 0.227413 5.03627e-21)
(7.55843 -3.44431 -6.38801e-21)
(9.70019 -0.347718 6.70154e-22)
(7.56591 -8.03529 -4.56039e-20)
(8.4965 0.0111846 7.16568e-21)
(8.37155 -0.335798 -4.91213e-21)
(8.42566 0.39382 -1.28046e-22)
(9.90583 -0.0918514 -1.10034e-20)
(5.22453 -2.29912 -1.07973e-20)
(7.56514 -0.554625 0)
(-1.17408 2.82561 2.01275e-20)
(8.5176 0.075427 1.21394e-21)
(0.211184 -3.98109 -6.35665e-21)
(9.91422 0.0839877 6.58895e-22)
(8.94537 -1.78523 -4.99987e-21)
(7.99364 0.0757863 -1.32699e-20)
(8.29019 1.0693 2.33741e-21)
(-3.42781 1.91565 -2.58136e-20)
(9.10181 0.169934 0)
(2.75217 5.96443 5.70602e-20)
(10.1338 1.77959 2.33324e-21)
(6.34367 -2.46218 0)
(8.44186 0.326044 4.60768e-21)
(9.86255 1.75376 3.21779e-21)
(8.88599 0.0675907 4.64348e-25)
(11.1751 -3.15099 8.09885e-21)
(9.98586 2.19748 0)
(7.18748 1.08975 1.38907e-20)
(3.6687 -1.45247 -6.70209e-22)
(7.10318 -3.31445 5.13463e-21)
(8.26534 -0.905046 0)
(6.19157 0.71666 -2.1539e-20)
(4.81915 -14.9129 3.70251e-20)
(9.45293 4.7774 -3.94244e-21)
(5.27164 -1.1027 2.6483e-20)
(10.6831 -0.025313 8.99863e-22)
(-4.76372 2.72499 2.34496e-20)
(7.873 -0.552592 -1.01939e-20)
(10.4195 -1.754 -7.28184e-21)
(7.24829 0.322711 -9.80281e-21)
(9.36439 -0.0388452 0)
(7.9729 0.0857135 -7.12492e-21)
(3.91911 0.974653 9.53625e-20)
(-3.39454 -0.0909254 0)
(10.5674 -4.10475 0)
(7.34266 -0.092067 0)
(2.0534 -1.09869 0)
(8.14708 1.03252 0)
(5.03991 -1.0116 0)
(5.90726 -2.36032 1.81044e-22)
(14.36 0.0687833 -1.21345e-20)
(9.82928 1.08384 0)
(7.09807 0.93242 2.06649e-20)
(2.94017 -3.92046 -1.36735e-19)
(8.2632 0.719249 1.70748e-22)
(-2.66553 2.16714 -6.36798e-21)
(5.0613 -0.185861 -2.38173e-23)
(-3.97066 2.11044 2.17846e-20)
(8.65863 0.0216485 -5.20523e-21)
(10.0415 -0.0419438 3.89448e-22)
(8.06269 1.0035 -5.16925e-21)
(7.54596 0.522475 -1.34332e-20)
(7.73558 3.13499 -6.90434e-21)
(12.4338 3.25315 0)
(-7.21215 6.46662 9.2403e-21)
(5.58009 -1.80778 -2.15137e-20)
(8.0212 0.046493 -2.15318e-20)
(9.60405 -2.39791 2.05374e-21)
(9.41268 -0.100695 1.71088e-21)
(10.9658 -1.04573 -7.78786e-21)
(8.77493 -1.50004 -1.20526e-21)
(8.56202 -2.24529 -5.74553e-21)
(8.06373 0.626419 5.57275e-21)
(10.2816 6.88226 0)
(6.23797 2.06531 2.40861e-21)
(6.99614 -0.0214093 -2.9949e-21)
(8.22989 -2.16571 0)
(8.97893 6.29688 0)
(7.93363 -3.57974 -1.19183e-22)
(-5.32623 3.30879 2.51456e-20)
(6.28586 -2.192 7.77147e-22)
(14.3543 -1.22162 0)
(7.74796 -0.392168 -1.34346e-20)
(7.34266 0.576804 -2.5872e-21)
(-1.11895 3.11625 1.31315e-20)
(9.04975 1.0612 2.38353e-21)
(-4.04128 2.14079 0)
(-7.54598 6.29812 1.06915e-20)
(9.2487 1.42924 0)
(7.10749 -0.606713 -1.46389e-21)
(13.4341 -1.87113 -3.14553e-21)
(8.02771 0.100521 -1.5277e-23)
(9.06663 2.12773 -5.63378e-21)
(10.2632 3.90125 -9.14464e-22)
(7.35407 -2.21881 1.42442e-20)
(0.71156 -5.69192 0)
(8.54238 -8.04898 -1.94798e-20)
(0.427964 -9.52348 0)
(10.0023 1.05475 -6.67883e-22)
(-3.27764 4.13407 2.95775e-20)
(10.956 -4.39723 9.68925e-21)
(6.79309 9.51248 -5.07178e-20)
(-1.41464 2.39662 -2.88896e-20)
(6.38569 -2.97101 -5.93032e-21)
(5.71949 -1.81941 -1.24083e-20)
(9.32981 -2.63655 2.60555e-22)
(8.10223 -7.97525 1.59405e-20)
(5.26763 -2.32975 8.86386e-21)
(5.919 -1.93093 1.33305e-20)
(7.33929 -8.17945 3.00941e-20)
(9.17573 -7.46626 -7.49253e-21)
(7.74959 -2.49519 6.34824e-21)
(-1.42758 -1.33113 1.8459e-20)
(9.77505 -0.14662 5.60334e-22)
(1.64316 -6.49147 1.18153e-19)
(9.03076 1.36695 -1.77122e-21)
(9.22016 -2.11369 0)
(1.78953 -1.15921 -3.81173e-20)
(8.38368 -0.00452467 -8.64973e-21)
(7.98794 0.445071 0)
(9.94674 0.977986 0)
(6.85584 -9.51252 -2.06491e-20)
(11.7218 -2.00593 -1.02707e-20)
(9.36149 0.682368 -2.10313e-21)
(8.47809 -1.73461 1.24743e-20)
(7.72969 3.09598 6.18197e-21)
(7.68488 -0.0799354 1.27762e-20)
(-2.91867 4.16913 4.79617e-22)
(7.19501 1.94938 0)
(6.05051 -2.04732 1.25901e-20)
(0.930719 2.72359 4.6877e-21)
(-1.05441 2.61338 2.20367e-20)
(7.28779 -2.82482 2.18574e-21)
(8.40153 -3.90995 2.69799e-21)
(8.55566 -0.0797239 6.66276e-21)
(12.0657 9.21436 8.23474e-21)
(8.64318 -1.29785 1.85551e-21)
(-3.07934 4.50904 -1.74467e-20)
(9.32001 0.667872 1.62108e-21)
(7.76353 0.101918 5.51546e-21)
(5.15951 -1.26359 -1.08796e-20)
(7.71317 -0.54055 8.28016e-21)
(11.9591 8.312 0)
(9.30561 1.20349 2.09606e-21)
(7.86445 0.110452 1.22911e-21)
(6.33342 -1.50041 -4.10288e-21)
(7.49882 5.55217 -1.33684e-21)
(7.648 -2.4559 4.91859e-21)
(7.81555 0.00661657 2.39182e-21)
(5.89319 0.0774783 -1.62274e-20)
(8.52745 -1.92059 0)
(8.93365 5.13242 -1.12137e-19)
(8.73974 0.298385 4.05364e-21)
(9.16953 0.475644 0)
(6.04848 -0.285682 9.20681e-21)
(9.06726 1.10151 0)
(6.49329 5.61203 1.21709e-20)
(10.5435 -0.226893 0)
(6.22078 1.26643 0)
(10.5514 0.47316 2.26305e-21)
(9.21295 0.519407 1.66726e-21)
(10.943 0.620992 -6.84713e-21)
(7.6928 0.455575 -6.1351e-21)
(6.2521 3.27715 -5.07608e-21)
(7.98351 0.340303 -2.50827e-21)
(8.24424 1.05829 0)
(2.61569 1.39459 -1.72006e-21)
(9.5573 0.456825 -1.30788e-22)
(7.32292 -0.302319 3.44646e-21)
(9.16444 -2.09726 0)
(10.8505 2.09169 3.61847e-21)
(8.29977 5.39523 -7.91399e-23)
(9.93248 -0.0920475 2.21193e-21)
(5.03985 -4.16444 0)
(-1.97204 3.13375 2.20729e-20)
(8.15793 0.615127 0)
(9.01475 -1.12949 -8.71302e-22)
(0.378404 -0.445421 0)
(9.9269 1.67211 0)
(7.24143 -6.07131 0)
(8.57763 -3.11503 0)
(-1.34928 3.25358 -3.51732e-21)
(1.27855 1.1552 -4.81109e-21)
(7.59893 -0.333819 -9.79497e-21)
(-0.076088 1.03046 -2.97059e-20)
(5.59765 -2.41984 0)
(4.61371 -2.86668 -1.84293e-20)
(-0.439082 -0.133357 -3.58286e-20)
(6.75533 -3.17552 0)
(6.33254 -2.31712 -1.31614e-20)
(6.69004 -4.44936 -6.25552e-22)
(8.99057 1.29941 4.51791e-21)
(10.9428 -2.95726 -5.78935e-21)
(7.49257 0.456739 0)
(9.16226 -2.64348 0)
(12.0083 1.05642 3.69761e-21)
(3.28866 4.15825 -2.05776e-22)
(10.4412 -4.05354 -2.2288e-21)
(6.83474 -9.25453 2.04599e-21)
(7.99507 0.027158 5.27867e-22)
(5.9196 -1.29605 -5.14803e-23)
(8.06229 0.622615 7.93566e-21)
(6.6834 0.0725799 6.11652e-20)
(7.91273 -2.2844 0)
(-1.4866 1.53648 0)
(9.49197 -0.360306 0)
(6.81751 0.179537 0)
(7.2759 -1.53882 5.58051e-21)
(10.475 -0.141901 0)
(-1.3269 3.71331 4.45389e-20)
(12.1671 -7.52337 -4.15986e-22)
(5.82267 -1.97896 -2.0146e-20)
(2.82446 -5.40562 6.49079e-20)
(1.00998 1.85487 -1.09467e-20)
(-0.494186 3.82946 -2.16554e-20)
(8.72488 0.0927583 1.89677e-21)
(-3.33239 4.07756 -1.48023e-20)
(3.79507 -3.10311 8.0847e-20)
(10.7344 0.472676 0)
(9.319 -1.80268 0)
(5.60379 9.18397 0)
(8.93879 -1.86971 2.59144e-21)
(9.63486 -7.77532 0)
(7.30517 1.88704 0)
(8.01397 0.0336513 0)
(7.44421 -1.92855 5.73224e-21)
(8.27356 0.663133 -7.8359e-21)
(8.44422 -0.364924 0)
(6.62466 -1.61777 1.4882e-21)
(7.8902 0.672038 -7.45562e-21)
(9.44272 3.01031 -6.51699e-22)
(6.86968 -3.16609 7.15281e-21)
(7.54039 2.15427 7.18429e-23)
(2.57966 0.0319945 -2.19876e-22)
(10.8636 7.48109 2.41527e-21)
(6.1195 0.278854 4.00713e-21)
(9.21541 0.56573 -2.17779e-21)
(10.2499 -3.36437 -3.34528e-21)
(7.38216 0.0985903 -9.50301e-21)
(8.40255 0.0143208 0)
(-0.0274722 -4.29148 5.15553e-21)
(7.82007 0.182741 9.95216e-21)
(3.78346 -14.0482 2.86304e-20)
(8.73967 -1.42839 -3.60543e-21)
(4.89364 -1.10608 -1.84486e-20)
(9.25581 0.460937 3.51257e-22)
(11.2392 1.32138 6.50875e-21)
(8.01578 0.317651 0)
(8.0358 7.06851 5.11978e-21)
(16.7979 -0.171479 -4.23679e-21)
(6.41858 1.07535 -5.79033e-21)
(-8.53521 6.67693 -5.66613e-20)
(7.99467 0.000182157 5.16495e-21)
(8.43786 -0.505195 -1.47543e-22)
(10.3525 -0.0504856 -6.63269e-22)
(9.67049 -0.377726 0)
(11.2192 -10.9246 0)
(6.4128 -3.05966 9.32733e-21)
(-4.1505 2.27073 2.62061e-20)
(7.17783 0.00632193 8.79012e-24)
(7.84459 0.16986 1.98094e-20)
(6.46611 6.67648 -1.59189e-20)
(6.1439 0.576391 0)
(7.29996 0.135542 0)
(6.82214 -1.67407 -1.45585e-22)
(10.1497 0.411811 3.58539e-21)
(7.69572 1.9892 1.17449e-20)
(11.2481 -0.938367 0)
(8.05915 -0.259768 0)
(8.69719 -2.42406 6.10899e-21)
(8.15182 -0.8302 7.79508e-21)
(-2.48171 7.09627 -1.01111e-20)
(8.10196 0.13174 0)
(10.8313 1.19186 3.40658e-21)
(7.83797 -2.95985 -6.02455e-22)
(-3.0935 2.47027 -1.62594e-20)
(8.01354 -0.192243 -1.102e-20)
(13.473 -5.40445e-05 0)
(12.0606 -1.89751 8.14215e-21)
(6.99736 -4.5826 -2.80532e-20)
(-2.9002 2.06902 0)
(7.65342 0.088989 -1.24036e-21)
(7.6769 0.296857 -6.50819e-21)
(7.11412 0.10414 -4.12173e-26)
(13.0849 -2.92754 2.84256e-21)
(7.94478 7.89634 1.01022e-20)
(8.62458 0.0667578 0)
(4.84637 -1.82535 -1.5362e-22)
(8.84611 7.4662 1.42773e-20)
(5.40479 0.713109 -4.95594e-20)
(8.10269 1.00328 6.12124e-21)
(1.6108 -8.05488 2.60541e-20)
(7.75867 0.0095575 -2.44438e-20)
(1.8862 -0.521001 -1.03075e-21)
(10.0641 11.082 1.86664e-20)
(7.31622 -1.80304 0)
(12.1588 0.0357125 3.45965e-21)
(5.17667 -2.38935 7.14701e-21)
(9.21724 -0.524392 -1.33206e-20)
(7.88419 0.119377 -8.976e-21)
(8.80256 -1.03729 5.73336e-22)
(6.99049 -0.905626 2.1312e-20)
(9.63876 -0.126103 -6.71782e-22)
(7.27438 0.174316 5.50204e-21)
(8.11471 -2.80642 -4.26895e-22)
(11.5257 -1.21775 -1.05603e-20)
(9.32944 3.36042 -3.8091e-22)
(9.07711 -6.99981 1.73946e-20)
(8.54258 -0.129694 0)
(6.07571 8.57081 0)
(8.93855 2.98979 0)
(5.79772 -1.84512 1.55902e-20)
(7.8941 0.0612478 -1.43259e-20)
(7.28454 0.615911 0)
(6.48348 -1.567 -1.20277e-20)
(7.23733 0.525494 0)
(7.29818 -1.40113 -9.24323e-21)
(6.20025 -0.504555 3.67625e-21)
(7.82145 -2.15152 -7.25417e-21)
(8.75025 0.0638444 0)
(7.78009 0.0564609 0)
(8.3464 0.371402 -2.43685e-21)
(9.77276 0.917068 3.3891e-23)
(9.87041 -0.224485 2.84767e-21)
(8.67383 5.62553 -6.38933e-22)
(11.6562 -1.941 0)
(7.31792 -2.74617 -3.59454e-21)
(-1.03711 1.0179 0)
(3.67719 2.16415 -9.59884e-21)
(10.3439 3.84383 0)
(8.3705 -0.472142 3.35521e-22)
(5.24678 -0.947424 7.0481e-21)
(6.44548 -0.839436 6.9272e-21)
(8.98725 0.0967822 2.21373e-21)
(11.713 -7.542 -4.33148e-20)
(8.05457 -0.944925 1.95025e-20)
(8.16089 1.04106 -1.68242e-22)
(10.0472 0.0830383 9.70414e-21)
(8.24071 -1.93421 -3.73282e-21)
(-1.26144 -0.41995 1.61662e-20)
(9.86487 1.45974 0)
(7.9169 0.149158 1.89568e-23)
(6.57796 -1.78984 0)
(10.2113 10.5824 -1.64902e-20)
(7.40177 -2.73902 -1.84488e-21)
(7.027 -0.794638 -6.97326e-21)
(7.03026 0.0169137 2.66925e-23)
(9.91516 0.115969 -1.73081e-21)
(6.96309 -0.418988 1.46985e-20)
(10.4004 -0.40644 -5.78331e-21)
(9.8461 -3.83926 0)
(-2.76521 2.69492 0)
(8.93312 0.102028 1.32149e-21)
(10.845 0.666448 0)
(7.69578 0.540891 -3.34513e-21)