/*--------------------------------*- C++ -*----------------------------------*\
| =========                 |                                                 |
| \\      /  F ield         | OpenFOAM: The Open Source CFD Toolbox           |
|  \\    /   O peration     | Version:  2306                                  |
|   \\  /    A nd           | Website:  www.openfoam.com                      |
|    \\/     M anipulation  |                                                 |
\*---------------------------------------------------------------------------*/
FoamFile
{
    version     2.0;
    format      ascii;
    arch        "LSB;label=32;scalar=64";
    class       surfaceScalarField;
    location    "6.6";
    object      phi;
}
// * * * * * * * * * * * * * * * * * * * * * * * * * * * * * * * * * * * * * //

dimensions      [0 3 -1 0 0 0 0];

oriented        oriented;

internalField   nonuniform List<scalar> 
20045
(
0.577308
-0.696751
0.119443
-1.18189
0.547586
0.634307
0.248649
1.92783
-2.17648
0.583314
-0.722726
0.139411
-1.08228
0.958663
0.123615
-0.508706
2.01673
-1.50802
-1.20526
0.302651
0.902611
0.0644131
0.542491
-0.606904
0.563044
0.493626
-1.05667
-0.590914
-0.25665
0.847563
0.104141
-0.399552
0.295411
1.96261
-1.06132
-0.901296
0.479881
-0.463243
-0.016638
-1.12437
0.872873
0.251498
-0.181192
1.12086
-0.939669
-0.9754
0.384487
0.0184445
-0.131335
0.11289
1.07797
0.675898
-1.75387
-1.56394
2.23251
-0.668562
-0.786779
-0.0818864
0.868665
0.996042
-0.940012
-0.0560305
0.179101
0.30078
-0.30808
-0.873813
0.570422
0.779972
-1.35039
0.868239
0.03226
-0.900499
-0.720509
1.29093
-0.0113825
0.0227816
-0.0113991
-1.10533
2.41107
-1.30574
0.996761
0.115973
-1.11273
-2.45484
1.94767
0.507173
-0.128558
-0.921401
1.04996
1.42044
-1.31563
-0.104814
-0.53993
1.39715
-0.857216
3.19646
-1.92837
-1.26809
-0.690805
0.755218
1.78298
-0.870762
-0.912218
1.18421
0.515843
-1.70005
-0.0787765
0.480733
-0.401956
-2.98621
1.93772
1.04849
0.707562
0.581653
-1.28922
0.021101
0.577527
-0.598628
0.20468
-0.290076
0.0853963
2.57863
-2.56358
-0.01505
1.35592
-0.384668
-0.971257
0.534979
0.820946
0.986101
0.97651
-0.173587
0.324065
-0.150478
0.763645
0.444728
-1.20837
1.82416
-0.639957
0.218401
1.68392
-1.90232
1.3262
-2.20045
0.874246
2.71543
-1.67984
-1.03559
-0.599023
-0.962432
1.56146
-0.106223
-0.378031
0.484254
-0.650659
1.43805
-0.787389
-0.819135
-0.263143
0.453801
1.02555
-1.47935
2.02306
0.765273
-2.78833
1.07005
-1.60998
1.91523
-1.58226
-0.332969
0.217182
-0.366455
0.149273
0.467494
1.44773
0.0455847
-1.31429
1.26871
0.839155
0.156888
0.292568
-0.877697
0.585129
1.29388
0.57376
-1.86764
-0.146121
0.607789
-0.461668
-0.706604
0.0266056
0.679998
1.0048
-0.441751
1.4315
-1.47577
0.0442726
-0.495135
0.349014
-1.66938
1.01872
-0.327695
-1.12891
1.45661
-0.0605322
-0.0476029
0.108135
1.47513
0.0335943
-1.50872
1.31415
-0.86035
-0.380283
1.85541
0.704499
-0.885691
-0.047246
-0.301972
0.349218
1.33472
-1.73455
0.399833
0.876973
0.987061
-1.86403
0.867626
-0.836584
-0.0310421
0.901529
-0.855944
-2.28425
0.286116
1.99813
-0.0420541
0.619362
-0.272334
0.475045
-0.202711
-0.552597
-0.449429
1.00203
-1.58727
0.0401332
1.54714
0.939184
0.331089
-1.27027
-0.840834
0.620458
0.220376
-1.67286
0.331757
1.3411
0.904995
-0.198113
-0.706882
0.468228
-0.730399
0.26217
-0.320318
-0.777694
1.09801
0.714217
-0.762827
0.0486101
1.10384
0.274874
-1.37871
-0.0365035
0.0251211
-0.154008
-0.39609
0.550098
1.40646
-0.698894
0.0530153
-0.130648
0.0776324
1.2141
0.568884
-0.482808
-0.641563
-0.704972
0.550964
-0.911388
2.93445
0.158858
-0.431192
0.0928451
-0.0398298
0.367931
1.28114
-1.64907
1.03143
-2.81105
1.77962
-0.220833
-0.578635
0.494712
0.0839228
-0.309603
0.393531
-0.0839274
1.34431
-1.29
-0.0543065
-0.607715
0.501492
1.66967
-2.43788
0.768212
-0.316455
0.433137
-0.116682
0.0622126
-0.377952
0.315739
1.02074
-0.152498
2.46334
0.73312
-1.33017
1.00247
1.17287
-1.97209
0.799215
-0.906083
1.98405
-0.154361
0.371544
-0.939385
0.765237
0.174148
-1.95478
0.130347
-0.718952
0.588605
1.61119
1.10424
1.19271
-1.63355
0.44084
1.56085
0.148074
-1.70892
-3.02694
2.31307
0.713869
0.627539
0.103241
-0.73078
2.70656
-1.09537
0.0734582
0.250606
0.117222
-0.20215
0.0849273
-0.0559877
0.0125164
0.0434713
1.15313
0.790262
-1.94339
1.2586
-1.04557
-0.213028
-0.259135
-0.00404029
0.263176
-0.41405
-0.164585
2.16297
-0.990096
-0.799527
0.829796
-0.0302694
1.03383
-2.00151
0.96768
0.618699
-1.21772
0.687411
0.794633
-1.48204
2.15708
-0.822362
2.2656
-0.288319
-1.97728
0.997254
-1.53181
0.534559
1.38564
-0.742011
-0.643633
-0.303572
0.277758
0.025814
-0.11093
1.97268
-1.86175
1.20608
-0.20932
-1.64168
0.0404254
1.60125
-1.21064
0.909897
0.300738
1.68032
-0.80335
0.155824
0.711801
-1.25532
1.43827
-0.182952
-1.6535
1.90215
0.023539
-0.486182
0.462643
0.112052
-0.222116
0.110064
-0.0445588
-0.456309
0.500868
1.10007
0.415266
-1.51534
2.51992
-1.24361
-1.27632
-0.544334
0.499775
1.60338
-1.58834
-0.0150412
0.246128
-0.041448
-2.59123
-0.870593
1.14551
-0.27492
-1.14844
0.928194
0.220242
-0.0104214
-0.160052
0.170473
0.82519
0.560454
-0.0796878
0.0237001
0.0940427
0.0231797
-1.30046
0.0451409
-1.49837
1.85253
-0.354159
-1.54547
1.59881
-0.0533343
-0.980295
-0.692387
1.67268
-1.00109
0.189504
0.811582
0.666976
-0.812776
0.1458
1.73264
0.010343
-1.74298
-0.0598115
-1.48924
1.54906
-0.992489
1.6799
0.44331
-1.26248
0.819171
-0.866312
2.53598
-1.65027
1.28866
0.361618
0.00480768
-0.0186508
0.0138432
0.984191
-2.09991
1.11572
-1.9143
0.808968
-1.30708
-1.18922
2.47878
-1.85605
-0.622733
-0.722904
0.744005
0.375399
-0.399494
0.0240942
-1.26555
-0.596282
1.86183
-1.84147
2.65427
-0.812796
2.82416
-2.54428
-0.279881
-0.10361
-0.318673
0.422283
-1.56053
-1.13374
2.69427
0.338143
-0.234003
0.523424
0.104114
-1.33872
-0.424075
1.76279
0.264757
0.0687372
-0.333494
0.137577
-1.00817
0.865436
-0.993994
1.63518
-0.0743355
-0.387067
0.30829
-0.427851
0.529074
-0.101223
-0.698677
1.79875
-2.94847
1.38794
1.46977
-0.885675
-0.584096
-1.55712
0.381052
1.17607
0.481413
2.34274
2.24382
-1.25963
1.8261
-2.70041
0.874318
0.547242
-0.995262
0.44802
0.189477
-0.976256
-1.05431
1.42224
1.2176
-1.7263
-1.78308
-0.749702
2.53279
-2.64415
1.04431
1.59983
-0.213777
-0.627057
0.405819
0.385501
-0.79132
1.139
-0.368093
-0.770908
-0.112203
-1.36403
1.2531
-0.6054
-0.194128
1.18121
1.33725
-1.35014
0.0128934
-0.0289371
-0.336647
0.365584
1.20673
0.175272
-1.38201
1.1021
-0.391585
-0.710517
0.730513
2.26908
-2.99959
-1.40858
0.855981
1.309
-0.86569
-0.288656
0.804242
-0.515586
1.68755
-0.653719
0.277119
-0.0200077
-0.257111
0.941728
-0.141595
-0.800133
-0.308445
0.319641
-0.0111966
2.67821
-1.98432
-0.693897
0.566343
-2.40781
-0.340065
0.0316198
-1.6896
0.387394
1.30221
2.20772
-0.810577
0.452179
-1.95055
3.27665
-1.60744
-1.66922
-0.0382113
0.302968
2.38156
-1.98686
-0.394701
-1.22354
0.145742
1.0778
-1.91102
1.84504
0.0659815
0.967396
-1.56043
0.593031
-0.0858281
-0.00830626
0.0941344
-0.972784
1.1383
-0.165514
-0.275337
-0.0658208
0.341158
-0.402785
0.0863291
-0.370351
0.0607477
-1.11346
-1.69759
2.26219
-3.60182
1.33962
1.0631
-0.235456
-0.827648
1.17153
0.248914
-0.138854
-1.64423
-0.0632206
0.175272
1.14578
1.06194
-1.12144
0.204449
0.916987
1.59767
0.783894
0.973493
0.147367
0.487649
0.575455
-0.680282
-0.0911024
0.771385
-0.0378702
0.0426779
-2.44586
3.17637
-0.978118
1.333
-0.354878
-1.94266
1.86883
0.0738325
0.983201
0.377294
-1.3605
-0.196678
-0.363256
0.559933
1.49323
-1.69958
0.206357
-1.24388
-1.40027
2.03131
-1.46726
-0.564051
-0.263195
0.234258
1.67239
-0.70499
-1.79758
4.05977
1.98333
-1.09324
-0.8901
2.94054
-1.50275
-1.43779
1.53491
-0.545375
-0.989531
0.943512
1.03982
1.85405
-1.11573
-0.738324
-0.446112
1.66433
-1.21822
1.30629
-1.64798
0.341692
0.365688
-0.217063
-0.148625
0.0306216
-0.0458544
0.0152328
2.20504
-1.8798
-0.325235
-1.63806
-1.38887
1.13842
0.198826
-1.76791
-0.174753
-0.0370434
0.978772
1.05832
-1.8224
0.764078
0.00751843
0.367881
-1.06644
2.21957
0.712769
1.96544
2.79912
-2.03513
-0.763988
-1.68456
1.26049
1.26264
-1.92605
0.663408
-1.23622
-0.192642
1.42887
-0.704001
-0.354283
1.05828
1.36781
0.235565
1.33093
0.138843
0.792895
-0.393422
-0.922205
-1.23577
1.97552
-0.739751
-0.506678
0.0788269
-0.392745
0.104089
0.167255
-2.07828
-0.553208
-0.855369
0.558609
-0.445533
0.600489
-0.154956
-0.0435146
0.626829
-0.876397
0.546844
0.329553
1.06489
0.279425
-0.245956
0.283455
-0.0374992
0.891513
0.367084
-0.691784
1.7501
1.18349
-0.244302
-0.540504
-1.01662
4.4955
-2.39227
-2.10323
1.80973
-2.11256
1.32292
0.78964
1.57099
-1.77378
0.202795
-1.0161
0.695785
-0.328172
0.0690369
-0.658971
-1.01388
0.747054
-1.25684
0.509788
0.904277
0.949775
1.0454
-1.7556
0.710197
0.638787
-1.25505
0.616267
-1.94967
0.362393
0.0592983
0.845697
-1.50105
1.4926
0.00844911
-0.38426
0.677628
-0.293367
-1.15424
-0.0510212
-0.300626
-0.547599
0.848224
0.2813
0.000159875
-0.28146
-0.705199
-0.505436
0.646477
0.935142
-1.58162
2.12623
-0.528562
2.04963
-0.900885
-0.115217
1.12502
-0.486229
-1.48196
-0.168312
-0.0388952
-0.0614774
0.100373
1.25214
-0.488492
-1.10935
1.66572
-0.55637
-0.316423
0.384691
-0.0682682
1.14259
-0.00359193
-1.28376
-0.538634
-1.16504
1.99395
-0.828905
1.0096
-1.74796
0.738358
0.780609
1.25071
0.0288512
-0.0455097
0.0166585
0.283812
-1.52004
1.15
-1.76359
0.613585
0.115844
-0.176376
-0.241179
1.43389
-1.56812
1.01491
-0.411093
0.958335
0.316372
-1.88032
-1.45133
1.24564
0.205687
1.41261
-0.369925
-1.04269
1.91338
-0.420154
-1.41053
-0.902244
-0.781154
0.814803
-0.21883
0.0102227
0.208607
0.677659
-0.759546
-1.64694
1.40576
2.00374
0.574888
-1.73793
0.628578
1.33115
-0.192725
0.371032
-0.129073
-0.241959
-0.0561228
-1.06538
1.1215
-1.79447
0.315902
1.47857
1.6108
-1.6108
-1.41765
2.01726
-0.599606
0.129816
-0.375772
0.974966
-0.59886
-0.376106
-2.00594
2.09162
-0.0856875
0.809469
-0.0796631
-0.729806
0.634812
-0.17735
-0.457462
0.333687
-0.530365
-0.145372
2.35187
-4.14945
-1.56054
1.86345
-0.302911
-0.624904
1.27138
0.148313
0.0135954
-0.161909
-0.358028
1.00267
-0.644646
-0.78524
0.974717
2.38518
-1.63144
-0.753742
-0.255724
-0.959282
1.21501
-0.592017
0.616433
-0.0244152
0.418063
-0.612954
0.19489
-1.99605
0.994032
1.00201
-0.500466
-0.222259
0.23728
0.133753
0.00176886
-0.156124
0.154355
1.10106
1.10398
0.155114
-0.00680073
-0.239165
-0.367481
0.606646
-1.102
1.74881
-0.646814
-0.00324412
0.360441
-0.357197
1.01777
-0.715117
0.544329
-0.100909
-0.44342
0.179743
-0.957437
0.315707
1.41693
1.01296
0.587745
-1.60071
1.05531
-0.765129
-0.290183
-2.02858
0.386905
-0.630654
0.337671
0.292983
0.571901
1.39294
-1.96484
-1.34628
1.15364
0.13141
-1.8273
1.69589
-0.360882
0.257271
-0.0236
0.00991885
0.0136811
0.0854446
-0.765727
0.0119857
-0.102744
0.0907587
-1.4315
-0.258107
1.22133
1.43805
-0.512378
-0.925675
-0.36406
0.0476374
0.22731
-1.34196
1.11465
0.40673
0.969023
-1.37575
0.443647
-1.38444
1.60943
-0.224999
-1.50301
1.0569
0.0305557
-0.00777412
-0.754273
-0.394164
-0.637413
0.131248
0.506165
-1.89011
0.78811
1.24656
-1.50229
0.345896
0.985251
-0.762806
0.731588
0.0312174
0.259951
-1.58028
1.32033
0.457075
-0.655357
0.198282
0.547485
-1.83125
-1.36158
-0.183889
-0.780382
0.073778
0.0291107
0.0513997
-0.0805104
1.1413
0.00828277
-0.0586379
0.0503552
1.8153
-1.2434
-0.406484
1.52931
-1.12282
0.572721
0.470195
-1.04292
-0.675672
0.314791
-0.578652
-0.0587615
0.556178
0.418789
-0.702651
-1.26944
0.139562
-0.178457
1.16245
0.970677
0.212809
-1.63919
1.85759
0.0851351
-0.674308
0.589173
-0.183864
-1.64743
1.83129
0.188819
-0.225496
0.036677
0.00946234
-1.01055
-0.275009
1.5813
1.72889
-0.731636
-0.633252
-0.243146
-0.0589371
-0.902363
0.9613
0.672008
-1.6523
-0.0873517
-0.907317
0.994668
0.143984
-0.790093
0.646109
-1.2475
-0.0288903
1.27639
1.18325
-0.738518
0.018833
0.250068
-0.268901
-0.523079
-0.0689381
0.431183
0.79189
-1.22307
0.314033
-0.385056
0.0710228
1.05589
0.598187
-1.65408
-0.558318
1.66215
0.26391
0.0173896
-1.3537
-1.4969
2.8506
0.925232
1.23774
1.66602
-1.25928
-0.839729
0.539103
-0.0530451
0.0836667
-0.571854
1.8345
0.21053
-1.49563
1.2851
1.62985
-0.235194
-1.39465
-0.712991
1.18698
-0.473985
0.747231
-0.728234
-0.692362
1.4206
0.156311
-0.16316
0.00684913
-0.540314
-0.987738
1.52805
0.636804
-0.994832
0.174725
-0.185147
1.02797
-1.56828
-1.37674
-0.4608
1.83754
-0.00493772
-1.08852
1.09346
0.677153
2.19006
-2.28505
0.0949848
0.465374
-0.160848
-0.304526
-0.0294235
-0.733382
0.490089
0.607923
-0.795663
0.0916621
-1.60128
1.99988
-0.398608
0.0326985
-1.01082
0.949218
1.20786
-1.96571
-0.597867
-0.081144
0.0602396
0.0209043
1.06458
-0.0938989
-0.497635
0.544466
-0.0468304
-0.40577
0.130433
-2.74651
1.43944
1.70202
0.31471
-0.137412
0.555475
-0.505051
1.07777
4.10789
-1.75602
-0.509601
0.0119661
-0.288713
-1.35822
0.432523
0.568099
-0.54456
-1.84373
0.0492581
0.106028
0.507043
-0.0499683
-1.86445
0.968048
0.896407
1.22044
0.211059
0.500842
-0.190976
-0.309866
0.684615
-0.621436
-0.0631791
-1.36045
0.489691
-2.23042
1.06538
-1.00609
1.05554
-0.0494437
-0.0371109
-0.245041
0.282152
1.95704
-0.0453232
-1.91171
0.444492
0.0293961
-0.473888
-0.319304
-0.620081
0.559049
-0.0908207
0.0475175
-0.0500016
0.00248412
0.939181
-0.0930716
-0.846109
-0.00803606
0.0555535
1.14868
-0.873803
-0.0618165
-0.359049
0.420866
-2.0182
0.416921
-0.0422508
-0.146813
-0.558159
0.292294
1.14576
0.0919197
-0.15514
0.55296
0.405002
-0.957962
-0.560551
0.853119
0.652607
-0.567472
0.517935
-0.455722
0.285636
-0.669897
0.177704
-1.13699
0.95929
1.18774
-0.23557
-0.95217
-0.877894
-0.65392
0.27037
-0.26453
-0.00584034
0.551598
-0.685931
0.134333
2.18351
-0.0661094
-2.1174
-0.0315563
-0.173541
0.205098
-1.03871
1.46047
-0.421768
1.11542
1.03223
-2.14765
-0.341784
-0.0246709
-0.649738
1.00475
-0.35501
0.526905
0.209712
-0.736617
-1.87587
1.1146
0.761271
-0.0469554
-0.00304621
-1.70014
0.323398
0.739891
-0.419398
-0.320493
0.785245
-1.12241
0.337168
-0.271833
-0.424919
0.244064
1.946
1.6621
-0.333853
-1.32824
-1.56857
0.184134
0.650602
-1.19111
1.73878
-2.85582
1.11704
-0.268119
0.673938
-0.00765235
-0.700632
0.461466
-0.378094
0.50844
-0.436388
-2.3573
2.79369
1.22521
0.447177
-1.48668
1.58342
-0.0967406
-0.0036224
0.0327331
-1.14544
-0.341985
-0.294346
0.331783
-0.0374367
0.202147
-0.177926
-0.0242212
0.132656
0.558912
-0.691568
-0.263485
1.04873
-0.832579
-0.560892
1.39347
-1.66585
-0.516355
2.18221
0.827892
-0.770091
-0.0578015
-0.548622
0.04064
0.507982
-0.214092
-0.0355777
0.24967
-1.84056
0.0667513
1.77381
0.0385481
0.477366
-0.515914
1.52489
-1.68838
0.163491
-0.841625
1.19435
-0.472098
-0.722253
0.0343121
-0.328658
-1.00049
1.0201
-0.0196178
1.66984
-2.53615
-1.89373
1.65415
0.23958
0.372262
-0.0582288
2.39934
-1.45013
-0.188297
-0.225007
0.413305
-0.0280557
0.387617
-0.359561
-0.240193
1.36754
-1.12735
0.650525
0.0699424
-0.720467
2.02847
-1.9291
-0.0993727
1.28032
-0.525854
-0.754467
0.0773335
-0.54685
0.469517
-0.687817
-0.0311345
-2.10734
1.83062
0.276726
0.0888421
-2.19619
0.0294153
0.705024
-0.734439
-0.992145
-0.88766
0.50989
-0.39511
-0.11478
-1.56555
-0.452651
-0.472381
0.344418
0.127963
1.02698
0.0751181
-1.95784
1.87564
0.082203
-0.304559
-0.0871368
0.0395339
0.485094
-0.0406025
-1.08315
0.110364
0.412996
-0.429227
0.0162308
-0.793867
-0.50919
1.30306
0.885111
-0.0756421
-0.508
1.06795
0.0746394
0.75363
1.37828
-0.327626
-1.05065
-0.25199
0.918966
-1.40009
0.900416
0.499671
-0.0419784
-0.00497697
1.70548
-0.480268
1.1759
-0.915945
-0.25991
-0.380747
0.640657
0.157134
-2.49806
2.34093
1.22659
-1.23153
1.62936
-0.720081
-0.90928
-0.0129575
-1.16947
-0.230621
-0.864374
1.7526
-0.888226
0.141297
-0.48373
2.30983
-2.08144
0.515897
0.256885
0.108803
-0.265933
0.0117012
0.329575
-0.00993385
-0.839574
-0.834467
1.90324
-0.589088
0.392485
0.166559
-0.559044
0.0815217
0.55329
-1.78666
-1.05913
2.84578
1.43252
-0.0647072
-0.0175512
-0.355221
0.372772
1.64211
0.0461653
-0.0846054
0.0384401
-0.827628
1.00533
-0.724964
-1.89724
0.336701
-0.520941
0.0307127
0.490228
1.54116
1.73549
0.56155
-0.60159
0.0400399
1.92661
0.101867
1.30016
-1.83651
0.536356
-1.61828
0.0250564
1.59322
-1.72687
2.20692
-0.480053
0.35564
-0.0193996
-0.336241
-0.892681
2.56252
-0.797647
1.07438
-0.276738
0.0766705
-1.56335
1.75636
-0.79308
-0.963275
-1.78474
2.29924
-0.51449
-0.492601
1.24102
-0.748415
2.32406
-1.02693
-1.29713
0.116332
-1.20655
1.09022
-0.00369567
0.0136145
-0.832203
1.94762
0.588804
-2.00645
1.67715
-0.667554
-0.438607
0.37679
-1.65721
0.0389244
1.82066
-0.775256
0.0649459
-2.34919
0.613376
-0.0358492
1.67985
1.39831
-3.07816
1.10799
-0.376734
-0.731254
0.730153
-1.64415
0.914001
-0.379922
0.0213396
0.358582
-0.449998
-1.05398
1.50398
0.779454
-0.493818
-0.915999
1.68589
-0.769895
0.267803
0.370172
-0.637975
0.16521
0.34468
-2.19716
2.58165
-0.384486
0.25894
-0.0701206
0.935367
0.498082
-1.43345
0.651967
1.08052
-1.73249
0.461142
0.951469
-0.0682744
2.33388
-0.0275863
1.58476
-1.55717
0.00868172
-0.0119258
-0.019055
0.14634
-0.127285
1.13436
-1.01474
-0.119613
0.754009
0.875351
-0.164385
0.114702
0.0496831
-0.445854
1.52086
-1.07501
-0.0279139
0.445165
-0.417251
-1.07161
-0.916723
1.98834
-0.872847
-0.978068
1.85091
1.45136
-0.244621
0.46095
0.647038
1.03537
-1.38545
0.350085
0.642854
-1.60214
-0.513487
0.229908
0.28358
0.428618
-0.0564377
-0.37218
-0.0482798
0.0445841
-0.0939247
1.24244
-1.14852
-0.319883
2.0038
1.44377
-1.26667
-0.177104
1.36239
-1.03131
-0.930278
0.417744
0.512533
0.0732114
-0.672071
-0.982399
0.708141
0.274258
0.172359
0.328483
0.296244
1.45725
-1.7535
0.545526
0.393655
0.250173
-1.91603
-1.09581
0.328976
0.766834
-0.769523
-0.498437
1.26796
1.12068
-0.567721
-1.6766
1.05169
0.572184
-0.473864
-0.0983204
-2.00053
3.79137
-1.79084
-0.858064
1.03781
-1.23867
1.28895
-0.0502772
-1.12393
2.866
-1.74207
-0.0470397
0.498397
-0.451358
0.265636
-0.302746
-1.82132
-1.39217
2.43298
-1.04081
-1.1195
1.50055
0.96945
-1.136
0.166549
0.527308
-1.07432
0.547009
-2.07358
1.2657
0.807874
-0.0483872
-0.025147
0.0735342
-0.143244
1.13808
-1.37827
2.35611
-2.19898
-0.149453
-1.30187
-1.41002
1.38243
0.847007
0.0811871
0.531229
0.270398
-0.801627
-0.765611
0.716444
0.0491667
1.69452
-0.792416
-0.902106
-0.107271
0.632975
-0.525705
-1.4494
-0.353842
1.80324
-1.33648
-0.401413
1.73789
0.99453
-0.467222
0.767729
0.366626
-2.29557
1.01552
1.28005
0.871579
-0.867574
-0.00400515
0.0136089
0.469821
-0.5729
0.103079
-1.07081
0.5126
-0.619871
0.338089
0.47644
-0.399107
0.260306
-0.0581594
-0.51802
0.621262
0.0661584
0.648058
-0.0786902
0.11217
-0.0334796
-1.46182
-1.12554
2.58737
1.44194
-0.406568
-0.973707
-0.0891982
1.06291
0.234915
0.485071
-0.719986
-0.00807457
2.22201
-1.43765
-0.784357
0.408647
1.25345
0.114874
0.480791
0.86816
-1.34895
-0.78158
1.55006
-0.768484
-1.06546
-0.40281
1.46827
-1.0333
0.383562
-0.5824
-0.347877
1.92427
-0.94574
-0.978526
-0.157442
-0.734765
0.892208
0.573372
0.251993
-0.825365
-0.417621
0.456169
0.26867
-0.459131
0.190461
0.636123
-0.0587588
-0.485575
-0.0195481
1.04509
0.879181
-0.485144
2.42287
-0.285031
2.2327
-0.647316
0.489873
-1.55499
0.489526
1.51492
-1.23111
-0.307171
-1.38129
0.342588
0.632333
-0.602917
1.24299
-1.29912
1.67541
-0.104426
-0.421059
-0.30934
-0.288256
-0.219369
0.507625
-0.687513
-0.0753142
1.54821
0.277522
-1.82574
-0.100507
-0.503826
0.604333
-0.220902
1.4939
-2.29294
0.799036
1.61748
-0.092587
-2.91397
3.26048
-0.346514
0.426604
-0.399998
-1.68674
-0.386831
-0.476553
1.86544
-0.0348248
2.10736
1.98555
-0.79576
-1.18979
-1.11788
-0.118895
1.23678
0.391312
0.840874
-1.23219
-1.43438
0.186876
-0.408094
-0.070445
0.478539
-0.959911
1.17044
0.383624
0.90174
-1.28536
-0.302073
0.535787
-0.233714
-1.70583
0.177029
1.5288
-0.315879
2.67199
-0.58422
0.879454
0.400868
-0.344881
-0.285773
1.90984
-2.19816
-1.01938
0.118515
0.90087
-0.012283
-0.329501
1.35454
0.0141953
-1.36873
1.9238
-2.20883
0.00492667
-0.0907548
-0.734702
0.638873
0.0958289
0.245134
-1.24562
-0.0546237
0.651723
-0.597099
-0.305199
-0.00205771
0.307257
0.98096
-0.971497
-0.603056
1.25366
0.0780325
-1.08412
-0.365481
0.399793
0.731875
-1.12346
-0.0683598
0.0600536
-0.45093
0.430418
0.0205128
0.483588
-0.530878
0.0472902
-1.24273
1.27633
0.150371
-1.12408
-0.0754861
-0.647418
-0.117874
1.18708
-1.06921
0.731095
-0.822198
0.130357
-1.28619
1.15583
-0.280467
2.77729
-2.49682
0.692398
-1.92817
1.4243
-0.0452005
-1.84853
0.5168
1.38644
-1.40044
-0.276162
-0.842491
-1.27007
-0.943665
0.396066
0.0847952
-0.028785
-0.0560103
2.95525
-1.41409
1.5014
-0.3514
-0.497719
-0.376129
0.873848
-2.03312
0.946142
1.08698
-0.297769
-0.101783
0.593191
0.601159
0.381064
-0.201963
-0.402251
0.284487
-1.08213
0.109618
-0.311859
0.202241
-0.243789
1.792
0.806749
-0.249526
-0.557224
1.87041
-2.27261
1.05254
1.22007
0.359672
0.594206
-0.953877
-0.338547
-0.412844
0.751391
-1.16864
0.676044
-0.354273
-0.147193
0.720566
1.76289
-1.94675
0.923235
-0.396329
-0.689597
1.33245
-1.53341
1.10213
0.431282
-0.824962
-1.33687
2.16183
-1.31137
1.48588
-0.174509
0.622902
-0.874892
0.0298021
0.269251
0.558641
-0.863941
-0.870608
1.82708
-4.29777
1.52007
2.7777
0.455816
-1.5737
1.27287
0.0283686
-1.25191
0.254408
1.24398
2.07255
-0.745778
-1.32677
-0.993485
0.530224
-1.29975
0.385082
-1.76015
1.64125
-1.25837
0.53014
0.892623
-0.609618
0.181661
0.427956
-2.38454
1.23787
1.14667
-2.02869
-0.5551
0.699084
-2.00176
1.42826
0.573494
1.66889
-2.56157
-2.18029
-0.0168684
2.85988
-1.1211
1.60828
-0.981961
-0.626319
-0.0536717
-0.33972
0.393391
-0.00222189
0.77808
1.01824
-0.302738
-0.30688
0.222281
0.557173
0.318191
0.807684
-1.12587
0.86829
-0.48279
-0.0798493
-1.86013
1.93998
-0.70615
0.477311
-1.4698
-1.23852
-0.8885
2.12702
0.539391
-0.737504
-1.46449
0.467834
0.99666
-0.00813537
0.137874
-0.129739
2.28474
-2.72113
-0.265804
-0.468898
1.92578
-0.637341
-1.28844
0.043504
0.348981
-1.70037
0.508061
1.19231
-1.87944
1.00659
0.822868
-1.60445
-0.00348198
-1.0159
0.00364686
-0.0117822
-0.0634788
1.69333
-1.13304
1.53078
-0.397737
1.51142
0.00506001
-1.51648
-1.1693
5.36442e-05
-0.445586
0.0978089
1.513
0.317354
0.0673366
0.241592
-0.410875
0.540691
0.997918
1.33996
0.354563
-1.83005
-0.127792
-1.56305
0.130342
-2.1172
0.407251
0.402478
-0.809729
1.91319
0.0907966
-2.00398
-0.266611
0.247211
-0.750603
-1.47981
-1.48866
-0.28512
-0.445672
2.36947
-0.664212
1.00783
-0.34362
-2.07975
0.617928
-0.672172
0.990362
-0.934543
-0.929912
-0.730091
-0.432064
0.577864
0.410937
-1.2048
2.15207
-0.286622
-0.0286999
0.0876589
-0.0589589
0.25858
0.545661
0.601069
1.97123
-1.83982
-0.151987
-0.472174
0.734344
-0.899037
1.10349
-1.00277
-2.70815
0.479889
0.385453
-0.865342
-1.65247
0.0416691
-0.32003
1.55115
-1.23112
-0.187161
-2.72681
-1.2194
1.39467
2.42331
-1.13797
-1.28533
-0.116911
0.454582
1.5496
-0.538407
-1.0112
0.584499
-0.643258
0.126635
-0.14569
-0.233826
-0.0995243
0.333351
-0.248561
0.77979
-0.965967
2.63485
0.00980863
-0.404919
-0.551471
-0.254869
0.80634
-0.129732
2.41447
-0.673235
0.654345
0.0188901
-0.791565
1.22275
0.684949
0.835915
-0.908265
-0.187545
1.14514
-0.425348
-0.719791
-0.0220526
0.00895692
0.0130957
0.176263
-1.30828
1.13202
-1.79721
0.308544
0.471772
-1.97398
2.10433
-0.0167955
0.601295
0.352579
-1.01679
-1.5964
0.815251
-1.81652
0.572917
-0.990854
0.205614
-0.645833
-1.20687
1.8527
-1.86572
0.0209194
0.192399
-0.213318
1.70705
-1.42093
1.3226
-0.931286
0.165959
1.07983
-1.24579
0.183781
-0.591876
-0.962765
-0.876848
1.83961
-1.2523
1.36641
-0.114108
-1.37424
1.7471
-0.372852
1.57087
-1.35919
-0.211678
1.09204
0.0634453
-1.15549
-0.897307
-1.3753
-0.617035
-0.163346
1.22055
1.48601
-0.0115941
0.245148
-0.233554
-1.33129
-0.369084
1.15576
1.07675
-1.06082
1.3547
-0.293879
-0.0442947
-0.0403107
0.185219
0.543953
-0.729172
0.461884
0.344865
-0.194648
-1.80711
-2.45913
0.60249
-0.0303055
-0.369635
1.23507
0.182344
1.34606
-1.5284
-0.990179
-0.0929693
0.702838
1.42339
0.151799
-0.565849
-0.103925
-0.0374389
0.141363
0.0807237
-0.75241
0.671687
1.07401
-0.696718
1.17476
1.73882
-0.834539
1.54636
-1.06905
-0.27797
-0.52642
0.80439
1.40669
0.257639
-0.0714227
-1.41802
0.96802
1.73224
-1.86197
-0.741422
-1.08295
1.82438
-1.03009
-1.00302
-1.91535
1.91549
-0.000138676
0.383625
-0.542623
0.323254
1.14011
0.598706
0.131406
-0.99674
0.865333
-0.54113
-0.934641
-0.755428
-1.00199
1.75742
1.43524
-0.00271672
-0.232951
-0.280536
1.14105
-1.89165
0.727888
-0.695628
-1.01536
1.5424
-0.527038
0.331232
0.802245
0.779974
-1.58222
1.88537
-1.07193
-0.813435
-0.92831
-1.13322
1.65503
-0.521805
-0.245237
0.216537
-0.627323
0.610527
0.814608
1.50946
-0.475562
0.42189
0.0461235
-0.0378408
1.79791
-1.00765
1.18421
1.77104
-0.883551
0.506419
0.377132
0.422454
-0.682364
1.36156
-0.00702275
0.678375
0.929905
-1.19536
-0.131016
1.32637
0.415717
-0.0287047
-0.387012
0.390567
0.0748072
0.246495
-1.97336
-0.61241
0.697854
1.23516
-1.17749
-0.0576747
0.354379
0.79076
-0.353823
0.162847
0.58713
0.463509
-1.05064
-0.683244
1.75329
0.396467
-0.763763
1.81108
-1.04732
-0.349265
0.617068
-0.450048
0.147975
2.06904
-1.07488
-0.693029
0.135864
-0.474411
0.659528
-0.735014
-0.38529
0.33825
-0.589949
-0.332757
-0.0313031
0.750822
-0.373386
1.552
-1.17861
0.137939
-0.13617
-0.442936
0.217929
-0.732998
0.115962
-2.80245
1.44875
0.533389
0.471359
0.664986
-0.50504
-0.159947
0.252229
0.222816
1.39817
0.938064
-2.33624
-0.280925
-0.0140229
0.294948
0.831544
-1.23803
1.68072
0.742585
1.47029
-1.28794
-1.70508
0.108005
0.104583
-1.82208
0.817815
0.459705
0.884723
-1.34443
0.847197
-0.116102
-0.0406853
-0.625828
-0.257723
-1.26863
-0.67398
0.747191
1.27693
0.252376
1.02498
-0.953546
-0.0714321
0.416025
0.0143929
-0.13711
0.546488
-0.0628999
1.44553
0.327103
-1.77264
0.349196
-0.239579
-0.50384
0.315744
0.188096
-0.733181
-0.0132477
0.746429
0.374959
0.993342
-1.3683
0.458291
0.66239
1.24452
-0.0295053
-0.57821
0.28978
-0.700655
-0.38746
0.670739
-0.283279
-2.47037
1.28115
1.58248
-1.21443
-0.368056
0.0338348
-0.324413
0.290579
1.55826
-1.65218
0.899
0.536236
0.634457
0.688142
-0.333079
0.000321632
-0.447401
0.248939
0.198462
-0.900457
-0.286618
1.99861
-1.02537
-0.973235
0.581633
-0.434418
-0.147215
0.889581
-1.45026
0.560679
0.107322
1.05435
0.0706678
0.998588
-0.353652
-0.644935
-0.176118
-0.271283
-1.59273
-0.691848
0.442323
1.45873
0.0157389
-1.47447
-1.74169
-0.100826
0.022136
0.144558
-0.0298561
0.790857
-0.151985
-0.971854
1.10451
-0.00101009
0.171459
-0.0878544
0.246713
-0.81253
0.978489
0.0188474
0.549252
-0.0937019
-0.224274
1.3958
0.0204121
1.00457
-0.40806
-0.292519
-0.455733
1.04286
-0.239931
1.47632
-1.23639
-1.45924
-0.2409
0.194009
1.7189
-1.91291
-0.524557
-0.167291
0.668126
-0.125635
-0.0378233
-0.517063
0.554886
-1.60453
0.529653
0.334017
-0.315184
1.16059
-2.94725
1.54157
-3.03847
-0.38352
1.16349
-0.834207
1.07057
-0.60706
0.0235246
-1.05286
1.22912
0.00339398
-0.340041
0.0814063
-0.851497
-0.286813
-1.07515
1.36196
1.08823
2.11888
2.81867
-1.83901
-0.979657
-0.463776
0.18617
0.483649
0.0450814
-0.52873
-1.50843
0.37539
0.453947
-0.0253292
-0.00845717
-0.299588
0.308045
2.00611
-1.8121
0.182868
0.830048
0.178934
-1.00898
-1.65279
1.41286
0.318833
0.0828272
-0.40166
1.11208
-2.50424
-0.330277
0.00668691
0.32359
0.411128
-0.0922958
0.0228919
1.40112
-0.939975
1.06857
1.04289
-0.584596
-1.7688
0.530282
-1.18104
1.0755
0.105547
1.06079
-1.80222
-1.00517
-0.586441
1.59161
0.0221225
0.887774
-0.630874
0.551211
1.87652
-0.247988
-1.62853
-0.00917756
-1.82087
1.02505
0.0669924
1.04605
0.50355
-0.358896
0.00367541
0.332607
-0.508908
-0.747934
0.0604819
-0.140361
0.0798789
0.0213687
-1.13328
1.11191
-0.173623
0.687827
-0.514204
1.56007
-3.2102
1.65013
-0.0206926
-1.02488
-0.0457131
0.00184396
1.19489
-0.700162
-0.391124
1.09129
-0.804244
-0.627251
0.921641
-0.536188
0.185593
-0.453204
0.267611
0.42103
0.243956
-1.71819
-0.171446
-0.209727
0.381173
0.507086
0.406793
-0.913879
0.264072
-1.31389
1.04982
0.227956
-1.10177
0.285179
-2.06992
-1.121
-0.979766
2.10076
-1.68393
0.0613683
1.62256
-1.9092
-1.44315
0.131786
-0.615413
0.613133
0.00228004
-2.30172
-0.598145
2.04368
0.792211
-0.38721
0.210785
-0.666518
-0.312394
0.974784
0.330385
0.259859
-0.81133
0.0358846
-0.299054
0.26317
-0.227744
-0.0758285
-0.208123
0.241958
-0.655599
1.01527
-2.5408
1.35817
1.18263
0.423843
0.907085
0.821996
0.46086
-0.0451427
-0.822535
0.953941
-0.93195
-0.532544
-1.10027
0.373423
0.726846
0.142452
-0.120243
-0.0222095
-0.901025
0.981749
-0.237089
1.41316
0.0842983
-0.757534
0.846701
-1.65095
0.810414
-0.904155
0.0937413
0.286417
-0.0363484
-0.0404438
-0.00506587
-1.84553
1.1997
0.361384
0.220248
0.0292818
-0.418058
0.388777
-2.61439
0.960896
-0.940185
0.79859
-0.400541
-0.028245
-0.466001
0.494246
-1.13105
0.430891
-1.92019
1.72554
1.63903
0.286754
-0.479366
0.439168
0.0401978
-0.0358734
0.0961131
-0.338734
-1.80426
0.920552
0.883706
-0.329161
0.315138
-0.164168
0.731471
-0.567303
1.286
-0.387003
0.0192701
-0.0752622
0.0559921
-0.570132
0.58898
-0.0561744
0.172018
1.34315
-2.62668
1.82632
0.10029
-0.833981
0.384552
1.66679
-0.0973124
-1.56948
-0.202599
0.833139
-0.63054
0.800038
-1.63961
0.804892
-1.40477
0.599882
0.0389547
-0.0424348
0.0034801
-1.49378
1.56665
-0.072871
-0.762656
0.893014
0.930696
-0.280171
2.73426
-1.20518
-1.52908
-0.108989
-0.576942
0.68593
-0.371425
-0.652496
-0.0353216
-0.630557
-0.0219383
0.214996
-0.591973
0.376977
-0.173278
1.68246
-1.50919
-1.56306
0.388468
1.1746
0.503262
1.45377
0.0222391
0.194906
-0.217145
1.08691
0.491543
-1.57846
0.0585304
0.0262648
-0.556701
1.45568
-0.898975
-1.33495
0.139594
1.11249
0.526593
-1.53177
-0.00157618
-0.22901
0.230587
1.67827
-0.489421
-1.18885
0.686122
0.460574
-1.74107
0.906603
1.59673
-1.67658
-0.887646
0.0659779
0.821668
-0.0357782
-0.188389
0.135008
0.0533803
-0.0292673
0.0747992
-0.045532
-0.0152788
0.26298
-0.247701
-0.552916
0.526805
0.0261113
-1.09836
2.23941
-0.629942
0.571005
0.364315
-0.528483
0.689166
-1.10397
0.414804
-0.789305
-0.744103
-0.244175
0.0300829
0.0540754
-0.00164943
-0.052426
1.72234
-0.975278
-0.747063
0.0836437
1.15152
-0.497557
-0.268054
-1.15313
0.250764
0.952582
0.494477
-1.44706
-0.000238213
-0.045273
0.0455112
-0.0305441
0.715159
0.0908179
0.26682
-0.357638
1.87231
-1.48777
-0.384546
-2.75965
0.402349