/*--------------------------------*- C++ -*----------------------------------*\
| =========                 |                                                 |
| \\      /  F ield         | OpenFOAM: The Open Source CFD Toolbox           |
|  \\    /   O peration     | Version:  2306                                  |
|   \\  /    A nd           | Website:  www.openfoam.com                      |
|    \\/     M anipulation  |                                                 |
\*---------------------------------------------------------------------------*/
FoamFile
{
    version     2.0;
    format      ascii;
    arch        "LSB;label=32;scalar=64";
    class       volVectorField;
    location    "1.8";
    object      U;
}
// * * * * * * * * * * * * * * * * * * * * * * * * * * * * * * * * * * * * * //

dimensions      [0 1 -1 0 0 0 0];

internalField   nonuniform List<vector> 
13486
(
(7.21744 -1.05801 2.42627e-20)
(8.3879 1.28485 1.21548e-20)
(13.3808 0.00973134 0)
(-12.3401 5.3672 -8.60035e-20)
(11.7292 -1.96522 -2.07707e-21)
(12.1688 1.07976 -1.16799e-22)
(12.5488 -0.190186 2.14193e-23)
(10.0338 -3.45506 -6.37743e-21)
(9.72425 -1.75545 0)
(9.61195 3.50714 0)
(-5.1926 14.1137 -5.25464e-20)
(12.1584 -0.419982 0)
(6.44766 -2.00494 -2.40618e-20)
(11.6042 3.85351 -9.37478e-22)
(11.8398 -0.788049 -7.38095e-22)
(9.40647 3.62435 -9.15591e-21)
(11.644 -3.47429 3.83436e-20)
(1.38976 -3.02499 1.81042e-20)
(11.1455 -0.0964959 9.35362e-23)
(8.02722 -0.347423 -2.43876e-20)
(-13.0788 2.31228 -3.63671e-20)
(6.53419 -2.06557 3.09993e-20)
(8.47704 1.2152 -9.73673e-21)
(22.3696 -4.6593 0)
(10.009 2.87895 3.06639e-21)
(21.5816 -4.34157 -2.43791e-20)
(3.87091 -2.35813 4.09456e-20)
(14.8389 -0.587935 3.55069e-20)
(9.8161 0.85373 0)
(14.7721 -2.67112 -2.92499e-20)
(-12.6759 -1.0126 -2.40671e-20)
(11.2391 -0.630933 -3.87167e-21)
(17.9413 0.777663 2.73049e-20)
(12.4167 -1.09956 0)
(9.9911 -3.25811 0)
(8.8123 0.0699478 2.18654e-22)
(7.46126 -0.132518 -4.61792e-21)
(7.71063 -3.49736 1.05959e-20)
(8.80623 -1.08942 -1.04228e-21)
(9.81827 -1.09501 1.00277e-20)
(13.1204 -3.72005 0)
(5.65017 -2.65615 -2.8931e-20)
(11.0636 0.0355738 0)
(10.0917 2.46411 -1.47636e-20)
(10.109 2.47357 6.01402e-21)
(12.0936 -0.425841 3.47706e-21)
(-3.09765 4.15848 7.50789e-20)
(9.64873 0.840336 3.52198e-23)
(7.51964 0.0177174 3.4988e-21)
(14.5569 0.490018 1.08618e-20)
(9.9513 0.11186 1.47047e-20)
(9.04999 -0.514754 0)
(11.9572 -0.959534 -6.64861e-21)
(8.09493 -2.83879 -1.55893e-20)
(1.32529 -4.43768 0)
(11.5346 -2.10918 3.28096e-22)
(14.2929 2.4321 5.54987e-21)
(9.1705 -0.721521 -4.64588e-21)
(17.8104 0.989419 3.30241e-20)
(7.05165 -1.35259 0)
(-5.68809 15.0011 -7.14206e-20)
(7.00216 -1.20523 0)
(14.0064 7.02752 -1.49837e-20)
(-12.9566 2.43097 -3.99781e-22)
(8.97001 -13.1009 0)
(7.29855 -0.225239 -2.42726e-21)
(-13.2999 5.62682 -8.84088e-20)
(7.20377 0.13533 8.49224e-21)
(9.65094 -1.84157 -5.28401e-21)
(8.25414 0.0540632 1.43138e-21)
(-12.9882 6.03429 1.0208e-19)
(1.38747 -4.3116 7.3087e-22)
(9.81043 -0.527814 7.98997e-21)
(-0.842791 -5.44525 -1.9647e-20)
(6.78394 -0.249292 -6.36699e-22)
(13.7229 2.41415 -1.2473e-21)
(6.54791 0.0168256 2.06738e-21)
(11.8743 -0.814874 4.22063e-22)
(-3.81537 7.05134 -3.95119e-20)
(9.27618 -3.62153 0)
(9.31533 0.176499 -5.38358e-23)
(8.11411 1.77459 -7.93286e-22)
(4.69168 4.68594 2.33376e-21)
(13.3497 -0.131952 -1.3934e-22)
(7.23445 -1.10663 -4.72091e-20)
(7.11882 7.86352 0)
(6.57332 -1.62482 1.01408e-22)
(10.0809 0.219045 -2.27814e-20)
(9.30216 0.888202 -1.0002e-20)
(8.60337 4.80473 -1.0771e-20)
(11.0794 -1.08985 -4.42763e-21)
(10.525 -2.80674 -2.30766e-21)
(7.59021 -1.62732 6.01601e-21)
(8.29918 0.300508 6.50069e-22)
(9.24236 -2.69333 2.13371e-21)
(9.5417 0.702555 -1.46728e-23)
(5.04386 -3.85486 0)
(-14.8588 6.26791 5.49175e-20)
(9.80838 -1.06352 -1.91963e-20)
(10.0226 -2.06064 1.23214e-21)
(9.31947 0.0804226 0)
(11.548 3.87209 -4.87496e-22)
(-15.8007 5.97706 3.37775e-21)
(9.04713 -0.669168 5.45424e-21)
(6.50831 7.4004 0)
(8.22835 -0.268537 9.95643e-22)
(9.73493 0.135271 -8.93675e-24)
(8.88392 -1.20103 -2.32094e-21)
(-3.04833 6.13166 5.22851e-20)
(10.3381 -4.66389 0)
(8.61713 -4.02904 0)
(10.9424 -0.0590876 -1.48445e-21)
(8.17594 -2.77362 2.24001e-22)
(12.639 2.0041 -1.54782e-22)
(5.37301 -0.437436 0)
(8.39913 -3.95537 -7.2534e-21)
(9.87182 3.05874 0)
(12.9204 -1.04078 0)
(9.69515 -0.512593 0)
(7.76725 0.285325 -2.04701e-21)
(2.49081 -2.87152 -7.71197e-21)
(-7.52818 14.6834 0)
(9.12376 -2.49957 0)
(8.85656 -1.09083 3.39304e-21)
(9.4387 -3.10135 0)
(9.07461 -0.524782 0)
(10.8767 -1.03279 1.65436e-22)
(10.8036 0.540925 6.08878e-21)
(11.7479 -0.765682 -3.54814e-21)
(11.7614 -13.6652 -3.92428e-20)
(8.92131 -0.431023 -5.89207e-22)
(-3.71282 4.3511 -1.85409e-20)
(-1.04686 -5.37213 3.06095e-20)
(-0.542319 1.26251 2.7917e-20)
(9.96176 0.0278033 -2.37816e-21)
(9.25108 2.03061 -1.20395e-20)
(5.75927 4.01925 -7.74595e-21)
(9.9164 -4.32251 0)
(7.78917 0.313582 5.7763e-22)
(9.96179 -2.64671 -2.61764e-21)
(16.3622 1.35613 -2.51693e-20)
(12.177 -1.04119 5.6377e-21)
(11.4524 -0.755852 0)
(9.17627 -3.34443 0)
(12.1529 0.151005 -1.59944e-22)
(7.20842 5.40083 -5.34706e-20)
(10.1573 0.0306296 -6.73687e-22)
(-3.72365 7.13261 0)
(14.751 0.757639 0)
(9.84369 0.811149 0)
(10.0473 0.00351923 2.47567e-22)
(12.1832 -1.10969 0)
(9.36887 0.119461 5.63436e-23)
(7.60216 1.66357 -6.75593e-21)
(10.6716 1.73568 0)
(13.6018 -0.010999 0)
(10.2638 -4.47223 0)
(-0.796263 6.33926 2.65027e-20)
(8.69508 -3.22974 2.00457e-20)
(8.86759 -1.62205 -2.09796e-21)
(13.6464 0.356158 5.40925e-21)
(8.72242 -3.12236 -2.98912e-20)
(10.9623 -1.33523 5.8848e-21)
(5.14615 -2.54015 1.26397e-20)
(9.18086 -0.560879 0)
(12.0557 4.01544 -6.86864e-22)
(11.2507 3.56612 5.01676e-21)
(2.30173 -0.864317 -3.31255e-20)
(9.99797 -0.307775 1.85272e-21)
(-0.989779 0.780045 7.42173e-21)
(-2.6057 -7.77413 4.09685e-22)
(10.6323 1.56241 5.04006e-21)
(9.84325 0.34688 -1.92192e-20)
(11.2434 -0.803 2.22639e-22)
(9.33087 0.364558 -7.33105e-23)
(-13.4686 6.82925 0)
(11.3361 5.29978 -2.62858e-22)
(16.858 2.29363 3.15403e-20)
(9.86785 0.134209 -2.28308e-20)
(11.4931 -0.722967 0)
(9.99754 -1.25779 1.88084e-20)
(12.4775 1.83905 -2.31703e-22)
(11.417 -0.649322 -1.59704e-23)
(-7.75022 5.83824 0)
(12.974 -0.426087 6.2626e-22)
(14.3042 -0.469925 -1.60728e-20)
(10.3529 0.799515 -1.84928e-24)
(13.8381 -1.87904 -7.6583e-21)
(12.9433 -3.64365 0)
(7.75473 -3.71776 -1.07071e-20)
(7.52052 0.236634 0)
(13.1759 0.290317 0)
(9.29788 -0.941284 0)
(6.99696 3.75572 -1.47507e-20)
(9.50325 -1.10096 0)
(-6.57339 13.759 -1.49572e-20)
(10.9669 -15.1982 8.50921e-20)
(13.9311 0.275968 3.26785e-21)
(6.96795 -3.36169 -5.09385e-21)
(11.9617 3.78389 4.48915e-22)
(-11.257 -1.86948 2.37736e-20)
(10.7946 0.636189 -1.87574e-22)
(7.65441 -3.59098 -1.22787e-20)
(11.8892 -4.68911 -2.9238e-21)
(8.68463 -1.45962 2.86076e-21)
(9.57511 -1.10102 -4.02869e-21)
(-1.11458 -4.16592 5.78754e-21)
(9.43847 -0.244569 1.75209e-20)
(9.31231 -0.949921 0)
(13.0777 -0.341913 0)
(14.4518 -0.761418 2.50517e-20)
(20.8544 -7.88796 5.85253e-20)
(8.09337 -0.220147 2.23906e-20)
(9.62323 0.166139 2.4904e-23)
(12.258 1.30653 1.34694e-22)
(11.0539 -5.16041 3.85311e-21)
(15.1196 -2.08181 0)
(8.71103 4.44027 2.71478e-20)
(8.03888 -1.73955 0)
(14.0143 5.05859 0)
(9.23351 -1.4918 -7.20866e-20)
(14.6833 0.941531 0)
(9.84598 -2.63362 5.97436e-21)
(14.1041 0.433429 0)
(12.1409 -1.24895 -1.16268e-21)
(6.54779 -2.99079 8.49224e-21)
(12.6977 2.34126 -1.00644e-22)
(-11.8966 -3.44161 2.35065e-20)
(10.7879 -3.37891 7.32876e-22)
(8.10141 -1.82767 -1.56826e-22)
(10.034 -1.24382 -6.06904e-21)
(12.833 -1.89541 4.63055e-20)
(16.6677 1.35159 3.14344e-20)
(5.49931 -2.56442 9.97769e-21)
(-14.87 3.86524 0)
(6.37996 -3.06362 9.72367e-22)
(13.0887 -1.6661 1.30791e-20)
(13.2954 0.258049 1.5733e-22)
(6.52618 -3.08297 2.69767e-20)
(11.4911 -0.513323 0)
(18.2924 0.680941 0)
(10.0472 0.277972 2.96131e-20)
(12.5226 1.11106 0)
(6.3412 -3.09727 8.66313e-21)
(8.61656 -1.31187 -1.9394e-21)
(9.05176 0.23537 0)
(11.9942 -0.158497 -1.27168e-21)
(17.8152 -3.6567 6.78185e-20)
(1.34654 -3.20404 4.12045e-20)
(9.89364 2.34735 0)
(-15.1712 8.85583 -2.55021e-20)
(5.24728 -0.31667 3.7829e-21)
(7.9776 -3.89027 8.74518e-21)
(8.93924 -1.22277 0)
(9.94735 -3.13079 3.1075e-21)
(-14.0786 9.99638 2.28806e-20)
(11.3036 -0.67123 4.01189e-21)
(10.9037 -5.36969 -4.86904e-21)
(5.35951 6.04444 -2.7746e-20)
(18.2872 0.449421 2.60074e-20)
(8.7968 0.988075 0)
(8.60466 -1.26517 -7.46743e-23)
(11.765 -0.809049 1.3784e-21)
(-13.776 8.09773 -2.85655e-20)
(11.4586 -3.43129 1.75759e-21)
(-7.95899 7.37459 0)
(10.9265 -3.28625 -7.94008e-21)
(-13.7549 -0.0547361 -3.85625e-20)
(10.3984 -0.0464765 -9.61971e-21)
(4.78593 -2.73947 0)
(7.40196 4.29558 1.11235e-20)
(9.95141 0.186967 -6.32813e-21)
(14.972 -2.26178 0)
(12.2143 -0.692781 3.1795e-21)
(6.72498 -3.12448 1.12907e-20)
(17.0791 -4.07279 -3.81277e-20)
(10.0047 -2.7913 0)
(3.67972 -9.22205 0)
(9.04217 -1.40107 -2.51384e-21)
(10.784 -0.0306501 8.63903e-22)
(3.72528 -9.91042 1.50288e-20)
(10.5084 -0.832923 -6.62192e-21)
(9.65255 0.255594 1.37783e-20)
(16.9925 1.97942 -5.22335e-20)
(-8.47315 14.2129 8.44363e-20)
(5.91854 -0.10179 6.64044e-20)
(16.1202 1.8832 2.426e-20)
(11.5396 -0.918736 4.66563e-21)
(13.6497 -1.24114 1.82124e-21)
(10.0913 -0.0765516 0)
(-16.3511 3.86732 0)
(8.30897 -1.26175 1.84786e-21)
(8.27588 -3.85928 8.02405e-21)
(10.014 0.0628872 -2.31218e-21)
(12.9289 -1.51041 1.20293e-20)
(13.4441 -1.83017 0)
(13.5558 0.00413984 -7.50295e-21)
(12.3586 -0.597576 -2.45868e-21)
(9.59118 0.182311 -1.253e-20)
(13.3473 -1.44814 -1.17795e-20)
(8.75132 -1.20019 -6.94541e-21)
(-1.07394 -3.34629 8.3496e-22)
(10.9036 0.0211826 -7.36223e-22)
(11.3484 -0.628011 3.93404e-21)
(7.78111 0.0815128 7.60333e-22)
(10.0509 -4.91369 0)
(8.77045 -1.06094 0)
(10.7214 -0.172181 2.50356e-21)
(7.77506 -1.95377 6.85636e-23)
(7.5046 0.093763 0)
(9.572 6.84455 -4.71087e-20)
(-12.0332 5.07207 0)
(10.892 5.1652 1.57441e-21)
(11.3318 -0.125121 -3.10358e-21)
(3.45088 13.0189 0)
(9.32212 1.78574 -7.41639e-21)
(8.16746 -1.27899 -2.73694e-21)
(9.2347 0.870661 -8.53943e-22)
(9.37399 -0.259215 -1.9511e-20)
(11.2948 -3.38281 0)
(7.23324 -0.056925 4.40928e-21)
(8.19381 -1.14262 2.93914e-23)
(9.8285 0.147332 2.88581e-21)
(8.24079 0.559798 -1.23234e-20)
(3.39372 3.74862 1.41441e-20)
(11.3018 -0.940809 9.1305e-21)
(11.1142 -1.43649 -9.28655e-21)
(10.5757 -0.828304 0)
(12.6713 -0.586533 4.78044e-23)
(11.2641 -1.36221 -8.36445e-22)
(10.0169 0.0393747 3.29309e-20)
(10.6049 -2.79698 0)
(10.6203 -1.27113 -2.72122e-21)
(7.12208 1.74564 0)
(12.3202 0.0193991 1.78001e-20)
(9.53589 -2.55 -5.31262e-21)
(4.15794 -1.80231 1.24959e-20)
(12.1276 -1.30719 3.60818e-21)
(10.1399 0.913285 0)
(8.57523 -1.28939 -2.94457e-21)
(11.1189 -3.28027 8.91392e-21)
(8.28749 0.533644 1.16534e-20)
(11.4327 -1.3946 4.70723e-21)
(11.402 -0.631788 5.05943e-21)
(-11.2113 10.6088 -5.5277e-20)
(9.64273 0.779953 8.87792e-24)
(11.0089 -0.757844 0)
(5.18033 -1.6657 2.90972e-20)
(14.1645 5.20698 0)
(8.22488 -1.2872 -8.82406e-23)
(10.9301 -0.451912 1.05601e-20)
(12.5606 -0.684836 -2.30847e-21)
(12.3018 -0.678492 2.50272e-21)
(5.91567 -3.23036 -4.87371e-20)
(9.72506 0.244703 1.56244e-20)
(8.79491 0.125479 0)
(-1.56152 -5.18875 -1.71381e-20)
(10.8872 -0.990091 -3.29095e-21)
(8.25225 -1.92305 -3.0531e-22)
(18.3954 -8.11587 4.31359e-20)
(12.8236 -0.0745518 0)
(11.7407 -1.32003 6.63e-21)
(8.97384 0.574355 2.50613e-20)
(9.77521 0.193834 1.91926e-20)
(14.777 -2.81362 0)
(9.39573 0.138472 8.88414e-24)
(13.3721 -1.66465 -1.22838e-20)
(-4.155 2.37316 1.11323e-20)
(7.85598 -0.279128 3.12247e-21)
(10.8679 -0.874812 3.13893e-21)
(11.5172 0.0631904 5.69242e-23)
(10.9386 -0.739305 0)
(12.0793 -1.27243 -4.23322e-21)
(-14.956 9.81062 2.43273e-20)
(11.8314 2.36385 -1.54055e-21)
(10.0818 0.0869571 1.22248e-20)
(8.44661 0.0169486 0)
(8.40657 -1.19042 -3.4289e-21)
(3.23479 13.3426 0)
(14.3234 5.46708 -8.74304e-21)
(10.3877 -0.100906 0)
(10.7596 -3.37715 -4.02487e-22)
(6.80839 -0.614052 -6.87751e-21)
(7.55396 3.43022 2.61566e-20)
(-4.01599 2.37645 -3.98187e-20)
(10.2388 -2.85139 0)
(11.322 0.414008 -4.49718e-21)
(10.123 0.980175 -8.00793e-21)
(8.5761 -5.93369 -2.19405e-20)
(-11.1212 0.686982 3.36123e-21)
(8.27604 -0.359682 -3.34753e-20)
(15.1744 -1.86621 1.33959e-20)
(10.1627 0.953166 5.83146e-21)
(7.35475 -2.20381 0)
(6.78618 1.36451 1.40236e-20)
(7.87368 0.542904 -1.67155e-21)
(-12.7427 5.36404 5.02839e-20)
(-15.0632 8.90593 -8.55843e-20)
(10.0889 -5.34381 -4.73241e-20)
(16.2513 1.87441 0)
(9.26789 -5.55909 0)
(9.8207 5.56133 0)
(10.438 -0.321217 0)
(9.49752 -2.20496 -2.02147e-20)
(12.04 0.0129549 0)
(6.98542 -1.65405 0)
(8.35762 0.418597 4.77154e-21)
(16.8759 2.25481 -3.24089e-20)
(10.9289 -0.740445 -8.15353e-21)
(8.2964 1.40179 4.23842e-20)
(10.0102 0.18772 -3.95402e-21)
(10.7074 7.7753 0)
(15.5468 -1.2683 0)
(9.62482 0.268171 1.34054e-20)
(9.84619 0.0817557 2.29451e-21)
(6.06825 4.13503 0)
(-8.52782 5.93188 5.31851e-20)
(11.264 -3.54199 -1.97157e-21)
(-3.07019 -6.33783 0)
(11.519 -0.486749 5.65124e-21)
(9.974 0.18733 -1.52679e-20)
(5.40986 2.80898 -7.37238e-21)
(5.14539 -1.61637 0)
(9.90679 0.971083 1.48062e-20)
(13.2105 1.56608 0)
(13.7553 -1.77784 0)
(10.9659 1.10868 -8.79271e-22)
(9.60028 0.280398 7.24848e-21)
(3.63859 -3.49733 -5.36036e-20)
(11.1738 3.4855 1.9807e-21)
(6.75682 -1.60278 -1.17485e-20)
(10.4339 -0.283682 1.3145e-21)
(10.358 1.0883 4.58128e-21)
(13.4857 -1.24513 1.07312e-20)
(11.7719 -3.25822 0)
(17.578 -2.54775 3.08915e-20)
(6.84266 -0.369801 0)
(8.31259 -1.22021 1.75258e-21)
(11.1965 -0.834917 0)
(7.31861 0.183766 1.80943e-20)
(0.543805 -1.07063 -7.07664e-20)
(15.3773 -1.69352 0)
(0.00443681 -0.015672 1.3022e-21)
(15.7317 -1.39735 -2.8339e-20)
(8.64024 -1.26863 -8.88801e-22)
(8.90276 -1.33317 2.87899e-20)
(7.08405 3.31794 -1.62511e-20)
(6.74592 -1.60138 -3.38923e-20)
(13.9965 5.76416 0)
(7.68377 0.211693 1.94001e-21)
(-10.9606 10.8053 -1.38161e-19)
(9.91639 0.980182 0)
(9.20476 0.98279 9.35564e-22)
(14.016 0.267072 -2.39537e-21)
(12.4434 5.62845 0)
(10.0183 0.0185579 0)
(-13.5011 7.36761 0)
(-14.3033 5.87915 1.10453e-19)
(14.8059 2.70638 6.18658e-20)
(10.2369 5.45425 4.95705e-22)
(10.8161 4.93665 0)
(8.5657 -0.782777 2.07143e-20)
(9.27931 0.334643 1.30013e-22)
(11.1418 3.23038 -4.40024e-21)
(-12.5867 3.66483 6.93708e-20)
(9.53331 0.703274 0)
(9.69546 0.84592 0)
(4.08033 -0.763056 -2.01767e-20)
(7.21682 -2.14426 -8.05735e-21)
(9.78616 -0.794383 0)
(9.50442 -4.42091 -4.15411e-21)
(9.50013 0.091474 -1.33065e-22)
(9.58299 0.614642 3.30434e-23)
(4.44915 -1.88922 0)
(10.2446 -0.60589 4.93063e-21)
(7.86858 0.368662 1.5875e-21)
(13.3047 1.51815 3.89348e-21)
(9.37329 -2.63111 0)
(7.15141 -1.03218 -1.00534e-19)
(12.365 -0.651777 2.68513e-21)
(9.94518 0.410973 3.00359e-21)
(8.50211 0.216102 6.5532e-22)
(12.301 4.03495 0)
(8.37169 1.42848 -1.12461e-20)
(14.8632 4.56291 -6.57972e-21)
(10.5931 -4.75905 9.01732e-21)
(10.0848 0.20467 0)
(-11.0291 0.62708 -3.44921e-21)
(2.52553 -0.592987 0)
(10.1314 0.194072 -1.17751e-20)
(9.96631 0.252838 4.90082e-21)
(9.4741 0.152718 -2.61089e-21)
(-14.8124 7.96579 0)
(13.146 -0.14892 -5.44774e-22)
(5.72685 2.19367 3.83444e-20)
(11.747 -3.31671 0)
(8.24238 0.348727 1.46495e-20)
(13.0855 -1.54508 1.35705e-20)
(10.8628 0.0920681 0)
(-12.6641 -1.07809 1.97883e-20)
(9.19872 -3.22072 -5.04747e-21)
(11.6242 0.0834763 0)
(6.76102 0.755108 7.04738e-20)
(9.08697 0.891908 0)
(8.89274 -3.96084 7.10319e-21)
(-15.7683 8.92688 5.16935e-20)
(10.3052 0.895161 1.78038e-24)
(12.3624 1.08323 -6.60791e-22)
(6.77828 1.28984 7.39487e-21)
(8.90065 -1.45347 -1.04834e-20)
(10.2554 -2.58274 -3.3362e-21)
(8.98222 -3.87014 1.95102e-22)
(10.7996 -0.91208 3.19496e-21)
(12.3189 4.03117 1.80708e-21)
(11.0688 -4.83573 0)
(9.97042 0.0656519 -1.08367e-20)
(-2.39822 -6.70399 -1.52333e-20)
(6.94413 -0.387917 0)
(7.44406 1.0174 -6.28018e-22)
(8.29416 0.0581525 0)
(6.17626 -1.65905 2.99504e-20)
(10.6813 -3.78683 0)
(9.16231 0.0756959 -4.10332e-22)
(11.1262 -0.417342 -6.06671e-21)
(-12.0673 -1.52171 3.6219e-20)
(-15.1522 8.26987 7.89648e-20)
(12.5166 -0.157912 -5.40604e-23)
(9.95961 -4.70243 2.3076e-23)
(9.03414 -2.48991 9.30456e-21)
(7.54855 -1.63142 0)
(-0.511019 1.75506 -2.81636e-20)
(11.8905 -3.04561 2.83892e-22)
(1.12367 1.35523 -3.27646e-20)
(9.55132 0.718474 -5.81718e-24)
(7.30467 -2.75303 0)
(11.0127 0.09674 -7.00667e-23)
(-8.80923 7.29001 0)
(-15.3902 6.5881 2.63503e-21)
(4.84815 2.90328 7.51399e-21)
(5.70011 5.75106 0)
(10.4091 -2.44036 1.71734e-21)
(9.67728 -13.4868 0)
(12.4007 5.41291 0)
(8.53961 -3.98863 -9.36666e-21)
(7.16906 1.39361 1.14044e-20)
(7.94409 -3.92245 0)
(9.10215 0.732689 -6.94148e-21)
(7.72871 5.88743 5.77665e-20)
(-14.4822 10.291 1.09653e-19)
(12.4193 6.74093 0)
(10.4357 -0.00308102 0)
(-10.2401 11.1123 -5.9483e-20)
(9.41521 -0.536734 0)
(13.0914 -0.185894 0)
(-7.82395 15.4028 -1.6226e-21)
(10.3656 -1.73691 -1.01326e-20)
(8.63927 -1.90699 8.37034e-21)
(18.8317 -0.00925623 3.93299e-21)
(-0.666669 2.24259 6.02718e-20)
(9.92638 0.179892 5.60681e-21)
(7.7387 -1.75913 0)
(10.5619 2.48725 -2.49649e-21)
(7.18105 -0.929179 0)
(12.7149 -0.0437052 0)
(10.0067 0.532405 0)
(10.8388 1.04834 -7.10462e-22)
(9.34057 -0.233771 8.99845e-21)
(12.2145 0.89527 3.23991e-22)
(7.99591 -1.82333 0)
(4.17592 -1.71199 -3.83087e-20)
(9.68573 5.26484 4.42018e-21)
(9.4625 -3.15676 6.96612e-22)
(11.3611 -1.04144 -7.64755e-21)
(16.7519 -3.77706 5.92707e-20)
(10.2197 0.082015 -8.72903e-21)
(0.736279 -1.29623 0)
(12.3037 -0.623424 0)
(6.87483 4.16657 0)
(6.18642 -2.6914 -2.13315e-20)
(-4.08353 -9.81796 -4.25779e-20)
(6.76916 3.37734 0)
(10.6387 2.50441 0)
(12.7404 -1.29019 5.04222e-21)
(9.87774 -0.0219936 -2.08544e-21)
(9.35115 3.01167 1.29973e-20)
(12.3463 -4.76046 0)
(-6.51302 11.331 -1.59359e-20)
(11.5462 0.446317 1.78616e-21)
(7.04633 -1.9615 -1.93828e-20)
(10.9241 0.518749 -4.20433e-21)
(11.0682 3.26892 6.39427e-21)
(19.6719 -5.25194 7.19525e-20)
(6.105 -2.66894 3.68758e-20)
(11.4917 -8.09239 2.57429e-20)
(12.6644 1.66682 -2.86518e-22)
(10.045 0.00797532 -2.67795e-21)
(8.70706 -4.19867 -8.0169e-22)
(9.22963 -2.932 2.1531e-21)
(7.62096 9.91479 -3.07496e-21)
(9.24211 -4.32586 2.61249e-21)
(12.5784 -0.548421 0)
(7.94514 -1.72674 -8.83573e-23)
(10.5643 0.0142159 -1.1209e-20)
(13.3803 4.69063 2.95335e-21)
(6.89516 -1.76616 -1.79279e-20)
(9.35148 -3.01106 -8.12428e-21)
(10.3553 -0.0303067 1.7655e-20)
(12.8429 -0.236635 -1.01459e-20)
(7.37797 -1.12299 -4.1585e-21)
(15.9838 2.14638 -1.30499e-20)
(5.81721 -0.867351 -4.15669e-20)
(10.8386 0.0534794 -9.33806e-21)
(5.73452 -1.12985 0)
(-12.8414 -1.59233 -9.85478e-20)
(10.6171 0.048672 2.09208e-20)
(8.45402 0.0387074 6.28189e-23)
(-0.738221 -5.35398 0)
(9.97973 -4.45733 0)
(9.94023 2.19946 1.15158e-20)
(5.17659 -0.817514 2.60851e-20)
(7.27819 -9.77099 -1.40753e-19)
(10.9375 -3.36384 -9.58792e-22)
(11.2314 -1.42539 4.95226e-21)
(14.1285 5.10806 0)
(9.92782 2.33424 6.41538e-21)
(0.567312 -2.68189 -6.47233e-22)
(11.514 5.15368 2.93467e-22)
(9.92777 -1.19133 -1.11885e-20)
(-1.84585 3.05783 -9.64499e-20)
(16.1914 -4.03704 -5.60958e-20)
(18.1218 -2.84341 1.7673e-20)
(10.5134 5.73735 0)
(12.1982 -3.05958 -6.38642e-21)
(9.41442 0.114173 2.36563e-21)
(9.30984 0.272808 -8.90192e-23)
(5.1143 -2.45992 3.51483e-20)
(9.84685 -1.24009 1.69134e-20)
(9.72127 -1.81152 1.77157e-21)
(-14.563 9.40644 -6.19556e-20)
(13.736 -0.803461 -1.26064e-20)
(10.7387 0.140399 8.35808e-21)
(-7.19018 13.9375 -1.03859e-20)
(11.1713 5.00487 3.22589e-21)
(8.32243 -0.884394 -7.6573e-20)
(6.66199 -3.16285 -1.05182e-20)
(9.43755 0.233773 0)
(13.3809 2.36367 3.6824e-21)
(-12.2511 14.8312 -4.97516e-20)
(6.72152 -0.69985 3.6695e-20)
(10.7186 0.719441 0)
(10.3512 -1.90756 7.44632e-21)
(5.88138 -2.29172 8.53606e-21)
(10.055 0.13411 -2.39718e-20)
(-13.0027 9.32339 -5.83405e-20)
(8.06144 -3.82001 -9.19598e-22)
(10.9398 -0.75775 5.55068e-21)
(11.2661 0.464297 6.59714e-21)
(9.02012 -4.03114 -9.04559e-21)
(12.4788 1.11804 -6.39207e-22)
(-2.98011 -11.3777 -1.34262e-19)
(10.5846 0.0334392 1.05155e-20)
(10.4008 -0.248174 -5.71576e-21)
(10.6403 0.654651 -1.87426e-22)
(11.7222 -0.0531021 -1.16657e-20)
(5.70375 -2.38292 -1.64962e-20)
(12.4963 1.54064 0)
(-14.9172 4.37369 7.88387e-20)
(10.422 0.0591672 1.68805e-21)
(7.88645 1.95731 -3.38026e-21)
(12.6164 0.395179 -2.40746e-22)
(10.9901 -1.64315 -3.77863e-21)
(9.97645 0.109776 -1.93811e-20)
(10.2683 1.66634 3.53671e-21)
(-9.1504 7.29459 -5.46686e-20)
(13.2217 -0.16106 0)
(8.40889 -1.15922 1.79203e-21)
(12.6026 -0.683811 2.36604e-21)
(7.34476 -2.67935 0)
(10.4983 0.543707 6.74585e-21)
(12.6304 -0.573089 2.53375e-21)
(13.1133 -0.164841 8.90879e-26)
(13.651 -4.10637 1.11476e-20)
(9.81603 -1.03363 0)
(8.72727 1.74146 2.10104e-20)
(9.8693 -2.68257 -3.27935e-21)
(8.95607 -4.16843 7.29613e-21)
(10.076 -0.796697 0)
(7.22033 1.46768 -3.29298e-20)
(3.24219 -2.58487 -7.87922e-21)
(11.3918 7.05791 -7.22229e-21)
(5.88241 -0.92869 4.05998e-20)
(11.3699 0.13804 -1.0653e-22)
(-15.2878 8.41088 6.11528e-20)
(9.67844 -0.46228 -1.32916e-20)
(17.7252 -1.68832 -4.07124e-20)
(8.85 0.656955 -1.44746e-20)
(11.6789 0.148797 0)
(10.0427 0.0523055 -1.00937e-20)
(-0.924259 -0.160321 9.31111e-20)
(-0.71319 -2.11912 0)
(20.6223 -7.19116 0)
(9.31279 0.264029 0)
(10.6263 -3.79865 0)
(10.0888 1.57694 0)
(5.53471 -0.818186 0)
(11.6262 -5.14649 -5.44104e-22)
(13.8957 4.4937 -3.61659e-20)
(12.8081 2.5134 0)
(9.05047 1.63625 3.1296e-20)
(5.13968 -3.39862 9.92648e-21)
(10.2533 1.09839 2.64787e-22)
(-10.6638 15.2592 -2.09289e-20)
(5.51484 0.263004 -5.32182e-24)
(-10.3936 7.20711 4.80979e-20)
(10.3727 -0.0203617 -4.00965e-21)
(14.4919 0.473877 1.62551e-21)
(10.0189 1.51355 -7.8076e-21)
(9.3493 0.798995 -1.98348e-20)
(9.45066 4.91132 -9.85005e-21)
(13.8894 5.87043 0)
(-12.283 1.73406 1.19373e-20)
(6.27533 -1.75286 -3.27767e-20)
(9.99655 0.0385467 -3.02959e-20)
(12.0831 -2.90963 8.26269e-21)
(11.2685 -0.0410125 2.00424e-21)
(14.4051 -2.07446 -1.9145e-20)
(10.6028 -1.35983 -1.1081e-21)
(10.4523 -2.41065 -5.87467e-21)
(10.0194 0.891656 8.30031e-21)
(9.77473 7.21187 0)
(10.1163 -2.21297 -2.93758e-21)
(8.44121 0.254654 -4.41959e-21)
(11.6467 0.210111 0)
(9.06824 -1.25164 0)
(9.52051 -4.23288 -1.91038e-22)
(-14.8362 7.60632 6.7984e-20)
(11.5261 -5.3368 -2.05504e-20)
(8.66612 -0.384637 0)
(9.54915 -0.315983 -1.81019e-20)
(8.95161 0.955116 -3.83592e-21)
(-15.3918 2.12937 4.35762e-20)
(12.9345 -0.454569 8.65247e-22)
(-11.7795 7.85725 0)
(-12.7204 2.00529 1.43704e-20)
(12.9404 -0.545283 0)
(11.9909 -3.2269 6.83692e-21)
(11.1575 -1.28403 -4.68612e-21)
(10.1421 0.0653901 -2.20187e-23)
(11.3144 3.60614 -8.87341e-21)
(12.3414 6.21309 -1.2485e-21)
(8.81337 -2.38115 1.98858e-20)
(-8.77686 -2.53258 0)
(7.73678 -13.7856 -7.44724e-20)
(6.36181 -6.55684 0)
(13.107 2.58911 -1.39679e-21)
(-16.5168 4.03601 7.94297e-20)
(21.7628 -6.85476 6.01892e-20)
(8.52488 -1.12173 -1.80989e-21)
(-12.7287 11.7163 -1.41422e-19)
(8.15646 -3.81793 -8.42685e-21)
(6.49617 -1.77079 -1.88188e-20)
(7.75855 0.503398 6.04411e-22)
(10.1447 -13.249 6.10043e-20)
(5.77212 -2.4475 1.35458e-20)
(6.78187 -1.92463 2.01109e-20)
(-4.48203 -8.73483 5.35947e-20)
(12.6867 -13.5428 -3.90584e-20)
(9.29205 -2.70695 8.49263e-21)
(-2.77518 0.702611 4.64755e-20)
(12.6792 0.282448 -2.73365e-22)
(5.11869 -3.47419 -8.49982e-21)
(11.4228 2.47711 -2.63247e-21)
(11.4933 -2.18395 0)
(10.6314 -4.34701 -9.20414e-20)
(10.2936 0.00692319 -1.26588e-20)
(9.94002 0.558998 0)
(12.9853 2.41224 0)
(4.7249 -12.4615 -2.61888e-20)
(20.3526 -1.10715 -4.43895e-20)
(12.0855 1.51341 -1.70252e-21)
(10.3464 -1.68333 1.32813e-20)
(9.40531 4.7589 9.08226e-21)
(9.14942 -0.0509122 1.11654e-20)
(-17.3759 4.95173 -6.10355e-21)
(8.73955 2.96981 0)
(6.97371 -2.09979 1.89113e-20)
(-4.22606 12.2509 1.15151e-20)
(-12.3641 9.39561 1.08634e-19)
(8.65611 -3.0509 3.11572e-21)
(10.5235 -4.91329 3.44431e-21)
(10.3045 -0.0903152 5.6496e-21)
(8.72439 -1.09654 1.10923e-21)
(14.2805 -2.84436 3.02218e-20)
(-16.0858 4.89389 -5.60181e-20)
(11.9771 1.41658 1.33784e-21)
(9.64088 0.169738 7.75694e-21)
(5.68915 -1.11074 -1.66817e-20)
(9.49245 -0.398888 1.11463e-20)
(5.62144 -1.11375 0)
(11.863 2.34594 2.81269e-21)
(9.8974 0.119025 1.71896e-21)
(7.49708 -1.46468 -6.12186e-21)
(9.30017 8.06869 4.17792e-22)
(9.21484 -2.68636 6.73119e-21)
(10.1295 0.0178011 3.21299e-21)
(6.83707 0.585951 -2.48123e-20)
(12.0928 -0.296017 0)
(8.46316 -1.06581 -3.53395e-21)
(10.987 0.551548 5.68682e-21)
(11.3974 -1.07251 0)
(7.14605 0.0503789 1.40463e-20)
(12.9581 -0.46634 0)
(7.86724 8.11994 1.26749e-20)
(12.3419 -0.147392 0)
(10.0942 -2.48075 0)
(12.244 -0.264591 1.69647e-21)
(12.0345 1.11666 1.68483e-21)
(15.1833 2.86499 -1.47179e-20)
(9.5903 0.644485 -8.98616e-21)
(7.22025 4.92288 -7.44465e-21)
(9.75897 0.339047 -3.71793e-21)
(10.2078 1.62548 0)
(-1.18829 8.77733 -5.9889e-21)
(12.6095 1.13817 1.34662e-21)
(11.7365 -3.23988 -1.37959e-20)
(11.5232 -2.22386 0)
(13.4587 4.65284 4.49002e-21)
(10.111 7.85512 1.76704e-22)
(12.4996 0.26509 -9.56037e-22)
(4.45744 4.92173 0)
(-5.2667 15.6645 6.46789e-20)
(10.1424 0.884311 0)
(14.4931 -2.20473 -1.47459e-20)
(0.881641 -2.52564 0)
(3.06992 5.88907 0)
(11.0477 -9.19867 0)
(10.4529 -3.74899 0)
(-6.04774 12.8615 -8.04891e-21)
(-14.2316 5.10567 -2.42888e-20)
(9.43346 -0.217434 -1.34751e-20)
(-13.7349 -1.29035 -4.78662e-20)
(6.20402 -2.56358 0)
(-11.0201 -3.38831 -4.21036e-20)
(1.3925 -3.32412 -4.08685e-20)
(7.88181 -3.58545 0)
(7.34992 -2.48557 -1.96135e-20)
(6.42409 -0.364155 -8.44596e-22)
(11.3725 2.3334 6.77003e-21)
(12.9501 -3.85412 -8.44403e-21)
(9.36693 0.74078 0)
(11.2525 -3.2667 0)
(16.7992 5.79508 5.81272e-21)
(9.21812 -2.60411 5.45411e-22)
(7.75903 -0.0127142 -1.51067e-21)
(4.42788 -10.7144 1.77109e-21)
(9.93359 0.0365905 7.47979e-22)
(13.3371 2.27899 -2.70168e-22)
(10.0144 0.817036 1.18033e-20)
(8.27682 -1.1614 1.77702e-21)
(9.52134 -2.5024 0)
(3.17669 -2.29576 0)
(12.4111 1.00108 0)
(8.50866 0.112636 0)
(8.62457 -1.56792 7.82403e-21)
(15.5781 0.750718 0)
(-6.75815 14.6195 1.15281e-19)
(16.0991 -8.331 -1.86105e-21)
(6.6362 -1.99024 -3.04975e-20)
(4.69413 -2.93686 -4.95216e-21)
(-15.604 2.08346 -4.27134e-20)
(-4.74611 14.6804 -5.46664e-20)
(10.5168 0.128823 2.53854e-21)
(-16.016 7.92998 -5.47494e-20)
(8.2219 -1.16338 2.70479e-21)
(12.3602 -0.224848 0)
(11.7312 -1.09003 0)
(6.79324 -2.46907 0)
(10.9906 -1.75801 1.84319e-21)
(11.7871 -12.5973 0)
(8.88824 2.94372 0)
(10.0234 0.0218586 0)
(8.73833 -1.90744 7.83519e-21)
(10.4983 0.996815 -1.16874e-20)
(8.4089 -0.0109939 0)
(12.2943 -5.00865 -1.91181e-20)
(9.81197 0.935546 -1.10379e-20)
(11.599 4.94039 -8.02128e-22)
(7.93664 -3.53605 1.05179e-20)
(9.15425 3.35932 1.07021e-22)
(9.11087 -3.7535 -4.0116e-22)
(8.98118 -1.37923 2.47063e-21)
(10.3314 -3.23882 -6.48422e-21)
(11.8283 1.16765 -2.09642e-21)
(7.77844 0.0980463 -3.2443e-21)
(9.1248 0.352332 -1.37529e-20)
(10.4882 0.0477856 0)
(10.0929 2.15668 2.28393e-21)
(9.70828 0.217133 1.41283e-20)
(1.49908 -3.36355 -8.49654e-21)
(10.63 -1.29408 -3.39766e-21)
(5.29827 -0.916671 -2.83751e-20)
(11.9144 1.00965 3.14337e-22)
(14.7648 4.50532 9.51822e-21)
(9.96937 0.355591 0)
(6.61319 -1.27318 -5.81419e-22)
(8.71565 -0.594716 -1.12363e-21)
(10.4594 -3.27351 1.33241e-20)
(-12.8651 3.33473 -7.91373e-20)
(10.0078 0.0294996 6.89875e-21)
(12.6624 1.41747 2.68339e-22)
(11.2716 0.141999 5.3867e-23)
(12.1136 0.903152 0)
(4.55267 -2.22434 0)
(7.38284 -3.42774 1.38286e-20)
(-12.3356 8.60684 6.30201e-20)
(9.36573 0.167058 -5.73248e-24)
(9.87496 0.230062 2.80148e-20)
(7.02154 -1.55928 1.94935e-21)
(7.19581 1.2331 0)
(8.92773 0.365597 0)
(8.07876 -1.70805 -2.34042e-22)
(12.1229 -0.136309 2.48582e-21)
(9.42673 3.14565 1.78786e-20)
(11.5325 -0.673298 0)
(12.7073 0.134384 0)
(10.4186 -2.61146 5.69875e-21)
(9.90474 -0.735467 9.55544e-21)
(-1.53713 -0.686949 -1.20844e-20)
(11.0078 -0.673544 0)
(-3.0314 5.78022 6.7189e-21)
(14.3715 -5.73688 -8.96109e-21)
(-11.4169 13.5154 -5.66812e-20)
(9.95176 -0.14129 -1.43171e-20)
(20.1213 3.82667 0)
(20.7332 -0.660564 3.55659e-20)
(8.27149 4.2059 -1.53404e-19)
(-0.792037 -0.746887 0)
(8.39795 0.185016 -2.06669e-21)
(9.59553 0.424003 -9.40253e-21)
(9.3036 0.0723878 -1.17471e-24)
(11.3206 -1.10331 2.8912e-21)
(7.58895 7.48122 1.33315e-20)
(10.5828 0.06391 0)
(5.23889 -1.76588 -2.40651e-22)
(6.36286 -1.43298 -1.79071e-21)
(6.15151 11.4462 -1.0318e-19)
(10.1396 1.55007 9.24555e-21)
(-7.58218 -1.92207 1.03413e-20)
(10.0253 0.0224802 -3.2057e-20)
(8.78995 -1.70115 -9.41609e-22)
(8.70776 -1.30572 2.13476e-21)
(8.60235 -1.81639 0)
(8.9969 -0.122758 -5.38545e-21)
(5.6197 -2.49891 1.09337e-20)
(10.9451 -0.398261 -1.19136e-20)
(9.93813 0.124913 -1.26349e-20)
(14.0223 -2.31594 1.29496e-20)
(8.38026 -0.72266 3.06932e-20)
(12.5574 0.214909 3.21135e-22)
(8.88272 0.450299 8.06221e-21)
(7.30622 0.921625 -2.41597e-21)
(18.9202 0.190316 -4.27534e-20)
(11.3109 5.33546 -6.52815e-22)
(10.3751 -10.042 1.10123e-19)
(10.183 -0.0800898 0)
(7.21154 -2.19912 0)
(12.8951 -0.219522 0)
(6.60517 -1.80032 2.36288e-20)
(10.2058 0.0533187 -2.00385e-20)
(8.92623 1.01216 0)
(7.69164 -1.55144 -1.77759e-20)
(8.93395 0.911203 0)
(8.68887 -1.39589 -1.28524e-20)
(11.6027 -3.35617 -1.51332e-20)
(9.34235 -2.24662 -9.47336e-21)
(10.7031 0.0712418 0)
(9.74398 0.1218 0)
(11.4035 -1.18583 6.91565e-21)
(12.6865 2.16703 1.00128e-22)
(14.6984 0.113301 1.38034e-20)
(10.6095 8.19119 -1.09726e-21)
(11.298 -0.816732 0)
(8.7155 -2.93781 -5.0632e-21)
(-0.477313 -1.32799 0)
(3.67629 3.22904 -1.44771e-20)
(12.3771 6.06536 0)
(12.4939 1.31901 -4.72585e-22)
(5.85011 -0.754158 1.08121e-20)
(7.71109 -0.702588 1.02788e-20)
(10.6058 -0.761212 -6.75924e-21)
(14.7261 -8.86459 -2.75811e-19)
(9.80306 -0.856394 2.41385e-20)
(10.1793 1.60045 -2.61081e-22)
(14.1354 -2.10211 2.34727e-20)
(10.0022 -1.91482 -4.41419e-21)
(-0.0654612 0.538254 2.11258e-20)
(12.7158 3.11838 0)
(9.88196 0.142571 2.29416e-23)
(7.85838 -1.83761 0)
(8.676 -1.20838 -2.31242e-21)
(8.8251 -2.92648 -2.52074e-21)
(8.39174 -0.565693 -1.00244e-20)
(9.29866 0.111315 -9.86399e-24)
(13.747 0.561526 -7.21562e-21)
(8.28518 -0.220887 2.14494e-20)
(11.7266 -0.353275 -4.15237e-21)
(7.71676 0.0864245 0)
(-7.06174 10.8483 0)
(13.2329 -0.160608 1.84072e-22)
(15.1546 2.87388 0)
(9.51201 0.758631 -4.90256e-21)