/*--------------------------------*- C++ -*----------------------------------*\
| =========                 |                                                 |
| \\      /  F ield         | OpenFOAM: The Open Source CFD Toolbox           |
|  \\    /   O peration     | Version:  2306                                  |
|   \\  /    A nd           | Website:  www.openfoam.com                      |
|    \\/     M anipulation  |                                                 |
\*---------------------------------------------------------------------------*/
FoamFile
{
    version     2.0;
    format      ascii;
    arch        "LSB;label=32;scalar=64";
    class       volScalarField;
    location    "7.2";
    object      p;
}
// * * * * * * * * * * * * * * * * * * * * * * * * * * * * * * * * * * * * * //

dimensions      [0 2 -2 0 0 0 0];

internalField   nonuniform List<scalar> 
5098
(
-0.454299
0.587438
0.177947
1.9551
-1.69962
2.21033
0.127401
-1.32357
0.196504
0.336758
-4.55399
0.768381
0.319815
2.52435
-0.738204
-0.0115382
-2.99488
-7.2996
-3.64486
-3.18088
1.56586
-0.014293
0.798726
3.12336
-6.29465
2.1353
1.44584
1.35543
-3.66389
0.47509
0.627299
2.71594
1.63473
-1.52383
-0.301354
-2.55165
1.55783
1.57607
2.42296
0.992314
1.91292
-10.2997
2.10383
0.230373
-0.0614947
0.70391
-3.81749
2.75963
0.635833
1.99853
0.292785
1.96205
-4.63882
1.47212
2.21597
2.20163
1.66427
1.82196
2.72286
-0.29938
-0.0561039
-4.55443
-0.309591
0.365089
-4.62858
2.5533
0.0464552
0.219455
1.20946
1.71988
1.62044
0.0585191
1.1637
-0.0639639
-0.196774
1.99961
-0.171768
2.26122
0.319273
2.13363
-0.340783
-5.22418
1.96316
-1.83828
-7.75234
0.403691
3.35501
-0.176655
-1.4808
-0.0793932
0.841369
-4.52223
0.791979
1.95714
2.43378
0.122056
1.69384
2.32631
-0.184914
1.20986
-5.9146
2.14422
-0.360672
-0.206068
2.26411
-0.222826
1.52913
0.16573
2.80305
-4.71538
1.83594
-3.44587
1.56482
-4.54053
1.49893
-3.61749
-6.12009
-1.14612
-0.321313
3.09699
1.92429
0.380032
0.321122
-7.63562
-4.62965
-3.28005
1.38111
0.847885
2.50628
-4.55187
-7.95187
2.64544
2.61161
-0.923908
-3.26812
-2.83141
-1.28658
1.49802
2.44942
1.46185
1.9788
-0.676795
1.26013
0.209554
0.695355
-0.31258
1.27065
-1.38517
-1.21342
1.00701
-9.65051
-4.61275
-1.67479
1.65116
3.38822
3.02812
1.82675
-4.77753
1.9185
-3.67653
1.41207
-0.828302
-4.50721
1.8097
-7.08733
0.500284
-1.98295
0.431506
-6.4422
1.82444
0.122698
2.00414
0.503597
1.36812
0.554805
0.831441
1.91923
-2.50143
1.91311
3.37842
-2.51888
-5.86306
1.71089
-6.905
1.77804
-0.7759
2.24813
1.52616
1.97044
-4.49051
-3.54757
0.31529
1.10775
-0.212497
0.534013
-4.53871
-3.82
-2.94812
0.0121134
1.78484
-6.75097
1.95091
-0.0540774
0.595996
1.42135
3.02453
-0.810405
2.48127
0.976753
1.09742
1.62462
1.91466
0.297454
0.646757
-1.07662
-3.59271
-0.22657
-5.6949
-4.56464
0.873196
0.773379
2.14129
0.0286128
0.755802
-4.55226
1.5037
3.30915
1.52828
1.28873
0.00576695
1.63993
3.16941
-4.43031
0.00437705
0.356324
0.404432
1.2388
-5.17975
-2.24135
1.8184
-5.38289
0.445901
0.0357862
2.85619
1.51659
0.847649
2.47457
-5.25707
-3.13125
0.782094
0.52543
1.29813
-3.75307
-5.9569
1.68747
-5.07716
-2.92015
0.335618
2.71708
-0.0910327
-0.786947
-4.59073
-6.0509
1.18151
0.044032
-5.46083
-3.67529
-5.01062
0.187583
1.84462
-4.48285
0.012091
-3.67225
0.19863
2.68214
-0.263404
-10.654
-8.92396
0.53695
1.62646
-7.72545
-1.13451
-4.55445
-1.22799
-0.581105
-0.939395
1.69378
-0.247467
0.504762
0.816452
-7.76477
-4.43926
2.85662
0.000848532
1.26953
0.317096
-0.345659
0.57944
1.3972
1.65216
-0.333328
-0.843614
2.08919
1.45204
-5.31802
1.5236
-1.4018
0.833053
1.68781
-3.89286
0.87972
-3.82859
2.16512
-0.262643
0.269368
3.37117
-1.15238
0.0272879
1.0439
2.95506
0.298114
-4.36218
-2.05386
-4.27057
-0.178273
2.46045
0.597428
1.47606
2.77301
-0.234473
1.6936
1.00643
2.4524
0.430271
1.67494
0.260514
0.568297
2.02681
1.22261
1.69354
1.21754
1.75446
0.36041
1.6104
-3.56303
-0.172677
1.34626
-3.75106
-1.13901
0.751827
0.209923
2.95009
2.92709
-7.07081
-0.283944
-7.29505
-2.83175
0.561324
2.47012
0.0271455
1.54357
1.33152
0.993031
-0.218983
0.201996
2.71362
1.61864
1.05801
0.510082
-5.25905
2.61448
0.223975
-2.63149
-0.1179
0.0672832
-4.62895
1.73599
0.28698
0.504843
-0.21905
1.45921
-3.07745
1.7059
-0.846113
0.190635
-1.94877
-0.200586
-5.57787
1.88853
-0.47256
1.43822
0.420127
1.59551
1.84584
1.20834
-2.58767
2.03659
-2.7812
0.566215
-1.07045
-4.7036
2.89964
2.18074
1.54721
-3.58586
0.533066
1.47321
-5.63723
0.289199
-1.35232
1.55365
-0.438177
-4.58033
0.113528
-1.37076
-0.0714603
1.45806
2.91909
-1.69311
0.686109
1.44604
2.18347
0.087492
0.897688
-7.55045
-4.54681
0.0265043
-1.03755
0.136729
1.3831
0.0266026
-3.67215
0.016121
1.53542
-1.68961
-4.24731
0.0493032
0.844894
1.29353
-2.33696
1.90343
1.68336
1.17745
-2.63509
1.42762
-1.37496
-2.76218
-0.706624
-3.59579
1.40574
-3.62551
0.946528
1.58038
-2.46009
-3.55383
0.19427
-10.2473
0.609448
1.44975
-2.55339
2.07096
-0.122889
2.90644
-2.18819
1.8998
-6.39491
-4.54391
-8.9456
-5.05966
1.8696
-3.62511
0.458719
-1.08401
-2.21819
1.43457
-2.13336
-3.69218
2.17592
-2.73954
0.942005
0.851594
-0.554951
-3.21218
1.10997
0.174487
1.61874
0.405442
-0.977127
0.322988
1.50691
-2.6619
-1.27735
-0.31856
-2.61548
-4.43929
-0.000162051
2.29928
-3.5146
2.20589
1.63784
-6.79889
0.812932
-3.70076
-7.76095
-3.67493
-3.81283
1.19322
0.964453
-2.69069
-0.317951
-4.64602
1.56045
1.783
0.474815
0.804053
1.40029
2.95509
-4.84002
-0.93681
2.44582
-5.76173
-1.41084
2.89281
-0.277158
-3.03395
0.00831812
-5.00113
-4.21972
1.35677
0.529703
0.424695
3.28681
-8.36816
0.0595561
-4.27102
-0.141848
0.339104
-1.39585
-4.56761
-2.89808
1.43292
-0.345107
-4.77238
1.80579
-2.67461
-4.66507
-0.232654
-3.8301
3.30922
-2.89166
-1.63397
1.67439
-0.0797923
-3.84647
-1.21656
-3.60858
-8.5578
2.18839
-3.80128
-1.45576
-3.89498
-1.12889
1.72698
-4.44342
-0.711408
-4.95034
-3.90345
-0.37973
-6.29006
-3.88473
0.638826
0.335721
-4.17502
1.51655
1.93137
3.28723
-0.684098
1.76595
2.55906
-6.26815
0.252671
-10.6852
0.814282
-0.579351
0.396816
-0.393899
-0.309469
1.17929
0.811351
-4.82316
-4.67812
2.89771
-1.37106
-7.72831
-0.164493
1.73103
0.844355
1.04687
-2.4837
-2.23146
-0.173751
2.11245
0.497351
0.0466824
2.64877
-1.01346
2.50366
-6.79735
-4.94699
-0.922016
-1.44546
-4.68654
-4.50799
2.56906
-2.45241
-2.18966
2.60835
-1.2243
0.0803148
-0.0466375
2.86103
-3.64911
2.29649
0.372777
-0.107147
0.338056
-4.58724
1.03406
-0.722935
-0.0989346
-8.86658
1.2918
2.08221
-6.17772
-0.232499
1.85151
2.81909
-4.8212
1.8101
3.28214
-2.2386
0.934898
-1.12086
1.6579
2.4057
2.09319
-3.47428
1.40026
0.4675
-6.09396
1.31557
-0.25171
1.79897
-3.98607
1.48023
0.81039
-0.517874
-0.0526209
0.438132
1.45843
1.91822
0.236778
-6.8648
2.74373
1.74798
2.18906
0.311652
-1.04929
-0.164676
-0.369699
2.66968
2.93263
-3.13553
1.78267
-5.785
-5.0581
-0.205727
1.51304
-3.67997
-3.67467
-6.26141
-7.01374
-0.425471
0.681368
-2.1332
1.55699
2.02807
-3.66248
2.06599
-0.00459188
1.65455
-4.61767
-7.95837
-0.100288
2.80691
-0.645969
-1.96894
-1.25117
-3.63766
1.3861
-1.91863
0.677508
2.57947
-6.95265
-8.33917
-3.31617
-9.09639
-3.7174
1.96906
-0.642845
2.87613
2.74724
2.54741
-7.17526
-4.65382
-3.55641
-3.72955
0.262941
-4.61212
-4.3392
-4.50573
-7.64413
2.14401
-4.55093
1.78312
-6.646
2.5124
1.48843
-4.94513
0.329744
-3.76876
3.19885
-0.559589
1.31448
-1.91074
-8.59162
-7.02195
-8.17988
-4.01212
2.11009
-1.04636
-1.01073
-4.50112
-4.53888
0.820558
-5.32938
-0.445079
-0.0357941
0.388071
0.467358
-9.11185
1.96116
2.55084
-4.73109
0.957679
-7.01753
1.85426
-3.6791
0.256953
0.922033
-6.30384
-0.0737138
-4.54002
-0.961155
-7.61328
-3.40753
1.76457
1.14248
-3.42957
-0.28783
0.866397
1.42469
0.0627722
0.367907
-8.66948
3.25433
0.98084
1.9505
-0.374312
0.877493
-4.72233
-9.69254
-0.207572
-5.03917
-2.96637
2.64598
2.32963
-3.90563
0.851658
-4.99072
2.33539
0.524775
-4.54904
-4.58482
-4.50212
-3.70678
-0.0851442
0.204606
1.71196
-1.08921
-0.102747
-4.60717
1.19377
-3.49492
-4.70827
2.08645
0.71132
2.69781
-0.850301
1.8492
2.041
1.87822
-1.46227
1.68538
-0.555708
0.366787
0.551917
0.254819
0.866126
-4.54456
-4.72674
-6.79636
-10.8944
0.882731
1.43107
0.615658
-4.60534
0.236554
3.35139
-4.8986
1.80653
0.0194144
2.57749
-4.06283
1.65103
-2.69561
-9.00302
2.77371
-2.03996
-3.66488
0.83659
2.87226
1.75441
-0.486219
-1.18097
-1.69871
-4.3899
-2.79933
-4.70236
1.83409
-4.926
-2.58484
-4.55614
1.09008
0.024222
-3.76336
-1.30141
-4.63693
1.16864
0.173999
1.58659
-4.34512
-4.0781
2.59966
-4.93397
-3.1336
-4.4347
0.311189
-4.55172
-4.64296
-6.40577
-0.406297
-0.0488261
1.47138
-4.72317
-7.32779
-3.80321
0.0978651
-0.00315112
0.227183
0.0819678
-4.55619
1.53782
-0.705328
2.58109
2.10971
0.563863
2.06808
0.75035
1.51963
3.06617
2.03027
-8.13047
-8.37933
-0.19236
-8.15684
-0.685351
-6.38903
1.81644
-3.98385
2.34588
2.45007
1.51976
1.4937
-7.82933
0.734568
-2.39224
-0.262131
2.63563
1.84025
-0.195702
0.0117624
-4.53342
-9.30529
-0.66478
-3.8637
-2.1956
-0.350799
0.0745314
-5.79963
0.403515
2.72447
1.63063
2.03962
1.87618
1.92353
-0.0579976
-0.573646
-0.831671
-4.66619
0.631878
0.34766
1.23663
1.22262
2.82499
-3.65471
-0.975692
0.163679
1.69243
-3.08695
-0.0547533
-4.35236
3.16085
1.65916
-4.58381
1.47179
-0.552918
-10.6375
1.47807
1.85267
0.871478
0.641212
0.555215
-2.53092
-0.113751
0.305517
2.64301
-0.973403
2.3544
-5.33291
-3.92287
-6.04641
1.39732
2.05075
-2.36268
-0.122644
3.14219
0.572136
1.28369
1.32808
2.92636
0.349459
1.7312
-0.0546195
1.84388
-0.284131
-0.441078
2.3531
3.25782
0.454947
-5.85097
-0.101408
-1.22906
-5.02086
1.82478
0.967638
-2.50621
1.43512
1.98657
1.40719
1.55305
0.0817294
1.80297
2.37183
-1.91303
2.99194
1.94461
0.715848
0.00836487
-0.867237
0.0366844
1.62424
0.462141
1.76596
1.94272
1.5137
-7.93343
-9.96404
2.0041
1.12144
2.32059
-0.409192
1.50874
1.81071
1.08948
2.06151
2.1309
-0.160629
-0.0825452
1.52941
2.06981
-2.05306
-0.925828
-1.65893
2.09318
0.396283
1.81382
2.91398
-6.64638
2.82531
3.1055
-0.223022
-1.409
-0.242985
3.32298
-3.39896
1.97044
2.94285
0.810209
-4.55269
1.03004
1.18787
3.0914
1.1249
1.16561
3.20655
2.38302
-0.0469099
3.18214
2.57289
0.025521
-4.61098
-4.53471
0.0134117
0.416551
1.88783
2.53744
-3.56904
-0.288187
1.14384
0.51542
2.3277
-3.59622
2.7873
-2.56066
-7.51232
1.26923
-2.12963
2.09494
-0.572028
1.25665
-5.95982
2.54457
1.63184
1.70945
1.74084
-11.4827
-0.116814
-0.2536
0.837287
0.965926
2.70558
1.80651
-0.0108763
1.02361
0.444421
-6.09211
2.51502
0.0210466
2.06815
-0.0625546
-0.128229
-7.34316
0.352539
0.805665
2.87552
-0.0148674
1.10869
-6.56858
-4.61168
2.42419
2.45449
-6.66021
2.36436
0.766731
-6.87957
0.32914
0.890505
3.2807
-0.33112
-2.43557
2.12065
-0.660193
1.91243
-4.52523
-7.92948
-0.0747478
-4.48873
-4.64002
0.33881
1.73984
-0.285128
-4.67654
0.011253
-0.0243689
-2.06609
0.986304
2.74225
1.4062
1.26622
-2.42619
-2.80644
0.156595
1.22024
-1.36617
0.00872864
0.0331517
0.000306478
0.281468
1.35108
0.680649
0.866452
1.32491
0.962833
-1.43352
-4.07694
0.265363
-1.77165
3.14479
1.1896
0.773004
-2.12438
-1.15997
-0.612688
-0.247341
-6.39681
-3.16254
-0.719865
-1.29689
1.74379
0.245519
-0.0428821
1.87257
-4.61863
-0.438118
2.6914
-2.65243
-2.10526
0.52627
1.6579
-7.4831
0.393554
-8.28941
-0.127879
-2.99108
-1.74976
1.95952
-6.82999
0.876227
-0.0376863
-7.56672
-8.40646
-0.684731
1.51468
0.237668
-5.08599
2.67821
-4.70853
1.74459
-0.549929
-2.91181
-1.78004
-1.13709
-4.44137
1.55271
1.6464
1.69103
-0.0876866
-6.2444
2.39851
-9.0499
-2.35259
0.00913058
-6.56753
-0.141945
0.000483299
2.40606
-4.43489
-3.73425
-5.82846
1.26085
1.17841
-9.16275
1.05617
-0.0878396
-0.714079
0.529634
0.921202
0.59804
-0.262119
-9.68425
2.57401
-0.195463
-0.0107595
0.872367
0.0145571
1.28192
-9.04959
-0.764032
-2.8792
1.31425
-0.194276
-0.158428
0.718552
0.00831687
0.231658
-0.226041
1.70976
-0.281619
-1.57967
1.444
1.56442
-0.185717
0.922154
0.927165
1.69594
2.03572
1.75467
0.317832
2.81468
1.28151
-2.08797
1.04
-7.99879
0.0990455
0.00502029
0.77139
-0.379589
2.8209
0.457583
0.419912
-0.637327
0.647402
-1.83046
0.496191
-4.43493
1.26564
-1.33683
1.50282
1.00162
1.68739
-7.25175
2.12014
-5.1937
1.56381
1.75986
0.647439
-2.5825
-2.34253
-3.8238
1.85422
-9.5672
-3.69535
1.86232
0.939086
-0.163126
1.91724
1.43188
-1.15503
2.58614
-1.51782
0.0392558
-2.08307
-1.58815
-0.172163
-0.584485
-1.83056
2.83724
0.00365401
0.654388
-0.854195
-6.32648
1.81977
2.12255
0.0117599
-0.0212513
1.59772
-4.25024
1.38731
1.67141
-0.658978
-0.741915
0.982171
-0.137893
2.87777
-4.7092
1.36153
-0.19964
-1.10586
2.82104
1.7206
0.362784
2.26452
-6.22921
2.04652
2.01968
0.108658
1.60002
1.40477
1.32702
1.63504
-0.963496
1.76612
-0.193923
0.65864
0.00647922
-3.69274
1.85001
-4.58118
-4.49793
0.0114634
-0.300644
1.08513
-4.42125
1.47689
0.411589
0.902907
1.52839
1.17153
0.169651
0.140277
-8.51357
1.67123
0.740347
-4.94891
-1.83532
-1.90842
1.67148
-5.18813
-5.79374
1.51064
-5.50992
1.97665
1.11352
-4.81781
-4.60732
1.85998
2.14168
-1.34746
1.45729
-4.53579
-1.37387
-4.54596
0.435374
-1.17971
-4.53613
3.06789
0.582569
-4.33037
0.024183
-0.992543
1.63731
0.807938
-2.25009
-4.5077
-5.85312
-7.11969
-4.50347
1.06511
2.5346
-0.352579
-10.2321
0.0183128
-4.54081
1.98799
3.10291
-4.87819
0.999733
1.59923
-4.51978
0.493578
2.7901
-3.07635
-2.39802
1.36363
1.47262
1.2954
-1.19604
0.804
0.00892592
0.859531
-1.96422
-0.0173817
1.65266
-0.709611
0.352055
0.88718
1.55609
1.038
-0.0408557
0.839561
1.66583
1.28694
1.36022
2.89318
-1.68909
2.71291
-0.165932
2.6472
3.25054
-2.84799
0.120178
0.489402
1.57394
-3.52928
0.835591
0.912158
-0.0883282
1.66761
2.33474
1.73559
1.79395
0.657344
0.966098
-8.55361
3.17399
-4.90176
0.195206
-5.61286
-1.0088
-6.15689
1.66897
1.79116
1.01206
1.8828
-2.10283
-0.0225472
1.97058
1.42478
-0.126354
-1.32295
0.110323
-0.231611
0.464709
1.7176
3.04344
1.58732
2.1337
2.04658
1.69507
2.90756
1.14394
1.62181
0.28745
-6.11677
0.618142
1.15692
1.10444
3.2089
0.248603
0.770649
0.0017592
-0.0691916
3.06789
1.04397
-0.429955
-6.98033
1.22042
-1.59106
-0.219418
2.22618
1.74432
1.35321
1.8184
0.0411192
2.41672
-4.04172
1.33092
0.413781
0.25634
0.176231
2.51483
0.296549
0.063621
1.67066
1.44107
-4.05996
1.53475
2.59074
-0.513009
-6.21253
-4.75373
-3.78235
-0.875775
-5.57383
-0.5111
1.52233
0.538218
-0.0113756
1.62661
-0.257319
-0.807992
-0.939948
-3.42797
-3.91371
0.233103
-4.75127
-4.5816
1.54673
1.56413
2.14761
-3.55258
0.757809
-0.303534
1.5511
2.56585
-5.79039
0.0185818
-0.116409
2.62816
1.17045
-3.55081
-1.08024
-3.75654
-0.0318633
-0.0239076
2.80067
-0.124649
0.00182066
0.80434
0.500575
0.0102108
1.0083
0.263109
0.6957
-4.67699
-5.92065
0.350809
-4.67752
-0.158969
0.575443
-3.50108
1.79666
1.13788
2.98848
0.592584
2.72798
-0.570801
1.89858
-1.14742
-0.221106
-5.05323
2.44761
-0.0608273
0.365755
0.314009
-2.96854
-5.41724
0.0108455
0.0189719
-0.200162
-0.378485
-0.241339
0.154055
1.12852
1.98105
-4.15511
-0.0522131
0.163252
-0.351831
-0.011827
1.7578
0.307311
0.93758
-0.2577
-0.0990189
2.25741
-3.42891
0.649996
0.00225248
0.0248537
-0.98878
2.21159
-2.62556
-0.167978
-0.157878
-5.00286
-1.2519
-0.186743
2.64365
1.98825
0.00636486
-3.46474
-11.0683
1.65177
-0.255827
-0.435852
0.00313597
0.608296
-0.0281751
-0.11476
-1.39804
0.00435789
0.761333
-0.8218
1.59769
0.138691
-1.83093
0.367906
0.709793
0.0518763
0.0680954
1.66303
0.311232
-0.616319
-0.78027
-0.241992
-4.67708
-0.17694
1.6863
-3.49183
-0.862021
-0.0408086
0.0101266
-1.49876
0.0186012
-0.183367
-0.0383704
2.36271
1.19584
-3.70038
-0.17469
-6.10164
-4.32987
0.0463617
-0.214654
1.77817
0.744562
1.37271
1.54246
-0.015798
-3.32305
-4.917
-3.66287
-2.06127
1.8332
-0.168706
0.574297
-4.57431
1.90537
0.0159331
1.75742
-0.132126
-0.079949
2.17751
0.0218154
-0.00198002
-3.61198
2.3003
0.345957
1.50452
1.66409
-7.65257
-0.0266209
1.58472
-4.06909
2.24423
-1.26372
2.18063
-3.13946
-0.177986
-0.0721508
1.69924
2.11523
-3.06197
1.44804
0.760907
-0.225543
2.44543
0.6742
-7.0329
1.59428
-0.144587
-0.308711
-1.47739
-7.8793
-0.151648
-5.06723
0.00169282
1.49217
1.24774
-0.20046
0.0231949
0.815451
-0.339564
1.56927
-2.76411
0.0188758
-1.10951
-0.864506
-0.131553
-0.731081
1.26071
0.0489562
-0.129184
-3.89762
1.68227
-0.187139
-3.63049
-0.213966
0.472977
2.61717
-0.0857222
-0.000467345
1.07472
0.236681
-0.309593
-0.17641
-2.55225
0.275709
0.024715
0.223612
1.73315
0.00498337
-0.173517
-3.43351
-0.108918
0.0179322
-0.486995
1.66126
-0.510925
0.0144689
0.28086
-4.02314
-0.235388
-0.0912842
0.903255
-5.53419
0.126789
-0.0114714
-0.184519
-0.181829
0.0163847
0.0133816
-9.34457
-1.02296
-2.10184
0.577264
0.830477
-0.359468
0.79983
0.875273
-0.116446
0.0170263
0.874925
0.153611
0.0193829
-1.52656
-0.0926009
0.410137
-0.745864
-6.56275
0.0157271
0.509332
0.0737583
1.09827
0.999517
-0.148561
0.400214
1.6676
4.50685e-05
-5.90117
-0.0868326
-2.66211
2.11937
1.58952
0.0297704
-0.0341731
-0.169321
-0.0450372
0.0143906
-0.163041
-4.9113
-0.102224
1.55752
0.203678
-0.0923048
1.61626
-0.0775253
2.52916
-0.176063
0.156632
0.104409
-0.184961
2.26476
-0.0691239
0.0279636
-8.24383
0.0312834
1.20522
0.691472
-0.12348
1.65929
-0.248181
1.17547
2.09581
0.76997
0.992026
-0.111133
0.920097
-0.010875
0.360083
-2.83952
-8.32882
0.00215014
2.01216
0.647832
1.41678
0.881862
-0.00226812
0.0275993
-0.00424994
-0.108963
1.03479
-7.2136
0.0242988
0.00932132
0.012847
-0.14308
-0.434788
-6.79857
2.67667
-9.11062
-4.5606
2.53157
0.00263131
0.0184153
-0.0441821
0.00648968
1.37759
0.0183466
-0.0543964
-3.67921
-9.07691
0.16683
1.67435
0.0178011
0.0238173
-0.606677
0.0117115
-0.171142
-0.0937415
-0.0821816
0.0236733
1.66344
-9.55385
-2.18373
0.777083
-0.218959
-3.65784
-0.126393
-9.60072
-0.0260285
1.6597
-3.71705
2.04242
-0.259574
0.0124722
-4.5558
-0.173064
-0.257837
-0.133707
-6.94823
-1.97694
2.55142
-5.08978
-2.68122
0.0057761
-2.38876
-0.0144042
-0.0144671
-4.30032
0.00918089
-0.0932
-0.31593
-0.096324
0.0316072
2.03253
0.435631
0.00380678
-0.0789878
-0.0569551
-8.83627
-0.160082
-2.82113
-0.14849
-0.300421
1.91985
-0.00961119
1.67204
-0.00544276
-0.0422541
-0.0245018
0.00445889
0.0173506
-3.66703
-10.2971
-0.240951
0.886579
1.32862
0.723439
-0.0338865
-0.0519201
-0.0118658
1.89104
-0.106959
0.265478
0.922852
0.00818381
-0.0645158
-0.0950316
-0.0679082
0.00140641
-0.0173176
1.68259
0.00243691
1.15768
-0.027257
1.64181
0.0302075
0.938956
0.00774436
-0.0290101
-4.504
-0.0631128
-0.0961628
-0.389618
-0.116889
1.32462
-0.039233
0.353547
-0.180078
-0.156126
0.318589
0.0370078
-0.11171
-7.73837
-4.53682
-0.0530983
2.07614
1.56728
0.0119787
-0.114629
-1.54921
0.0306044
0.399273
-0.139456
0.000656724
2.24496
0.131328
0.0318662
0.00468658
-4.14156
1.66468
-0.573269
0.0480312
0.00615506
-4.7522
0.0867811
0.0273789
-6.93885
0.786935
1.07267
-0.00369585
-0.133553
-0.00102597
1.61243
-0.000710507
0.0164104
-0.0145258
0.0292979
-0.626976
0.022461
0.0334015
0.00515787
-0.111261
0.0234305
0.00660992
0.00581389
0.022737
-0.38478
-0.0901327
-0.0429708
0.0430424
3.00357
-0.0756495
0.0586177
0.00605355
-0.539955
0.607305
-0.0572709
0.0445177
0.290568
0.0285273
-0.0349921
-0.032225
0.0045196
1.64041
0.0101262
-0.0634184
0.0545154
0.0149847
0.0187412
0.0641461
-0.0854889
1.79541
-0.176449
-1.62065
1.2784
-0.0255279
0.0216009
0.0207432
-0.119804
-4.52904
-0.307186
0.234062
-0.014481
-0.102271
0.0198991
-2.56317
1.7898
1.81034
0.00813313
-0.0983442
0.00138825
-0.0344769
1.62465
0.00352421
-0.072037
1.71704
-0.017325
1.71373
0.038663
0.00785484
-0.119787
0.0380125
0.00269801
2.03455
-0.14305
0.00256135
-0.454438
-0.504401
1.53282
2.29692
0.00406891
-0.374313
0.0174703
0.0223789
0.00224377
1.56365
-5.66198
0.00251143
0.0231361
-0.0648375
-0.0771184
-0.0511193
0.0404781
-1.64131
0.00108017
0.0323439
-0.933684
1.64788
-2.89875
0.0295518
-0.0623459
1.15693
1.21449
0.0228451
0.00363473
-4.53083
-8.45813
0.0085783
0.020189
0.00240977
0.0174575
0.00275461
-4.34126
0.0115705
-0.0391996
0.0213148
1.72246
0.00275513
0.0209871
0.0106123
-2.27002
0.00217769
1.52065
0.00953333
1.87419
-0.0971039
-4.92459
0.0201922
0.0242084
0.00218915
-0.0848209
-0.0431417
0.0189996
0.0358272
0.0166121
0.00285637
0.00535454
-0.0254537
0.0201465
0.0279417
-0.0418921
1.69686
0.040768
-0.675481
1.95279
0.00428411
0.0197525
-1.29518
0.666993
0.0126667
-6.93266
0.01325
0.0297665
-4.47048
-0.0517168
0.0216739
-0.583552
0.0256381
-0.738494
-0.593957
-0.000352433
-6.12913
-0.202162
0.0231504
-2.2657
-0.588884
0.0198462
0.0162543
0.0334066
0.146833
0.027641
0.0294973
0.405654
0.00997268
0.0134201
0.0291177
-3.15926
0.00355687
0.00721169
-0.0013737
-0.0991865
-0.0739379
0.00194258
0.00759665
-4.49565
2.61977
0.0302641
0.00229309
0.0428226
-3.07895
1.86019
-0.15019
0.125982
0.00258796
1.88018
0.00845096
0.553823
-0.0455269
0.00385169
0.0200322
-0.272061
-3.66347
-0.140416
0.299024
1.3515
0.0263535
-0.000188242
-0.149484
1.79221
-0.00499038
0.0302264
0.0112982
-0.133777
1.46604
-0.217093
0.0287368
0.0105812
-0.00137753
-0.00416067
0.0310444
0.897419
-0.136963
2.20732
0.00774363
-4.43562
-0.328153
2.43182
1.04631
-0.0144619
0.0178204
0.0280744
-0.044915
1.54827
-0.332749
-0.0274633
0.0262783
-4.9723
-0.000332733
0.0267302
0.0335416
3.14764
1.10379
1.62436
-0.0030719
1.68029
0.00512683
-10.8249
-5.15288
2.09254
-5.78181
-5.44508
0.018316
1.14773
-0.241137
-0.000544323
-0.659034
-0.282184
-2.06208
0.362541
-0.768697
-0.0385398
1.66515
-0.124791
0.228404
0.0239739
0.0225248
0.0275531
1.75417
0.0130047
-6.96533
0.0384936
-3.76059
-0.00198555
-0.0243309
0.0139795
2.66878
-6.09804
-0.351361
-0.108649
0.0290849
0.0305025
1.18156
1.65574
-0.0853482
-0.0158667
-4.68184
-0.00180699
0.712248
2.98457
0.928012
0.237137
-0.603331
-0.2455
0.00597349
0.527861
0.0329976
-0.0646269
0.00908141
0.754449
1.60433
1.45513
-4.81228
1.01427
-0.0442695
-0.0578578
-7.01048
-0.0299247
-0.00740405
1.78165
-0.144977
-4.56248
-0.00505879
2.56964
-1.08119
-0.329762
-0.37288
-1.24429
-0.0758296
-3.82014
2.76916
-0.767341
-1.91678
-4.50548
-0.169357
0.015764
0.274898
-0.540216
-0.150326
-1.67013
-4.58856
1.68783
-0.0714575
0.0221283
-0.0213049
0.827687
-0.174306
-4.54376
-0.00160393
-0.935968
3.09892
-0.00901197
-4.50276
2.79993
0.00508524
0.00716505
-0.732197
0.00829269
1.82629
-7.42549
1.57288
1.65918
-0.412298
-0.277472
1.66927
0.910879
-0.517108
-1.23468
-7.27275
-1.87947
1.76607
-0.0104805
-1.26495
-4.38452
0.392867
-0.888244
-0.108596
-0.579169
1.63149
-0.559107
-0.0232094
-4.17504
0.00857661
0.0112732
0.0331296
-4.51637
-10.7096
-0.0151018
-0.0122095
-0.0319649
-0.887631
0.0304917
2.99045
0.0294839
-7.03242
0.443423
0.0119337
1.63542
-0.160489
1.66239
0.0365813
1.47413
-3.58491
-0.0168151
2.37288
-1.01028
-2.1889
1.92509
0.269535
-0.131525
-0.143721
1.69143
1.70474
0.0445965
1.77031
2.78036
0.93271
1.82242
-2.92658
-0.0535999
2.4832
-4.21456
0.481853
-0.597345
1.60627
-1.66555
1.84058
1.74877
1.92914
-1.68754
-0.0776542
-0.579666
0.00784407
0.00452987
-11.2409
-5.41406
-0.0477367
0.0125093
-4.06668
-0.543207
-0.430078
0.119719
2.00972
2.18067
2.08793
-0.00698484
1.04779
-0.160886
0.543663
-0.00678551
-0.71973
2.9115
0.0232514
-0.267485
0.0929267
-4.64657
2.29123
-0.239051
-0.699536
-3.36234
0.0501073
0.281355
-1.37955
-6.11206
1.17843
0.0254702
1.22049
1.7402
-5.96552
-3.3809
0.0887769
1.65194
-0.944893
0.00694326
-0.0613592
0.00898018
1.28712
0.194358
-0.169955
3.26855
2.35673
-0.174179
-0.00319361
-4.13897
2.65911
1.39245
0.12175
2.941
0.0123113
1.49425
0.681938
2.7382
0.173165
-4.9759
1.07271
-4.49656
0.00377823
-0.354006
0.120733
-6.37549
2.80264
0.125804
-0.144327
-0.0716622
0.179013
0.972387
3.0954
-0.153544
-0.160601
-0.92582
1.27505
-0.328771
0.0891532
0.414622
1.46997
-0.963996
-0.241799
-4.20478
0.0996872
0.471526
1.41408
-0.961336
2.73365
-0.174421
-0.19395
1.6986
0.0191672
-0.000295105
0.00415237
-0.595681
0.926679
0.011036
0.664007
-1.97056
-0.144968
1.29866
-4.88717
-0.160717
0.0515576
-0.153217
-0.18161
1.29427
0.018022
0.022354
0.000455486
-0.343292
-0.144034
-0.42582
-3.63245
-0.0328411
0.649511
0.250376
-0.116575
0.299186
-0.542776
-8.05745
-0.168849
1.67692
-0.466914
-0.137006
0.0629863
-0.39604
2.39093
-0.152338
0.514374
0.114608
3.21666
2.99895
-0.949327
-0.382536
-3.65251
-0.00151902
1.43578
1.67714
1.57735
-0.107747
0.00578828
0.0276848
2.59361
0.123474
0.136257
0.433715
-2.35558
0.215569
-0.0794712
1.43993
2.52907
-0.910776
-0.711128
-0.185353
1.36949
2.19627
-0.472143
0.520526
-1.08655
3.03979
0.00290811
-0.418577
1.12556
-0.0340802
0.00797162
0.012649
1.62682
0.00768873
0.00235572
-0.596425
-3.55989
-0.1806
2.13894e-05
2.4801
0.883771
1.90891
0.0348219
-0.83826
3.18461
-0.166608
0.0392748
0.757252
-0.483516
1.25582
1.47392
1.70148
0.00712007
-5.91279
-0.777948
1.64257
-0.607222
0.0111238
-0.938562
1.62997
0.345909
0.0143836
-0.211144
0.472837
-0.324332
0.016793
0.0261488
-0.113034
-0.522002
-0.109179
1.25681
2.54591
-0.30983
1.91928
1.35418
-1.81211
0.00999781
-9.26618
1.59607
-0.925685
0.079468
0.0688498
-0.0801489
-0.145787
0.110826
3.20392
0.00559334
1.76836
1.17213
-0.174126
0.0245204
-0.297987
-0.130813
0.413547
-0.494833
-0.342913
1.01978
-0.11056
-0.418395
1.98719
0.357566
0.364445
0.175876
-4.05836
0.0717739
0.667561
0.100721
1.17191
0.0879139
-1.42886
2.3139
1.97685
-0.0776865
1.31761
0.0102582
0.843294
1.61015
1.76643
-0.451574
-0.674794
-3.482
-0.0158227
1.63651
-1.6707
2.2299
0.0176236
0.811102
-5.86779
-3.67226
1.64358
-0.472984
1.64539
0.39663
0.146665
0.0709048
0.194923
-1.42419
1.24068
0.385702
1.66467
0.434757
2.17429
2.32963
-0.264089
2.0632
0.0976547
-0.00119596
0.730298
2.27342
0.678741
-0.879946
1.74
0.397188
0.123223
2.21397
1.48992
2.14847
-0.19578
-0.247804
0.0634101
-4.69837
0.27084
0.172065
1.33547
-8.04241
1.84942
0.00230157
-0.671523
1.32363
1.76124
0.286567
1.61719
0.0388668
-4.98653
-0.592841
-0.197664
-3.81713
1.02624
1.05296
-7.27007
-0.570491
0.277029
-0.0277087
1.02279
2.24811
2.46991
0.649975
0.491983
0.0788561
0.346248
1.40163
0.00747608
1.90081
-0.518338
-0.170297
-0.845929
-0.663032
0.975791
1.73587
1.92601
1.20104
-0.0767389
0.0332002
1.63004
1.62553
1.70074
-0.0557548
2.06807
0.995532
1.67354
1.02046
0.0602859
0.131998
1.62675
1.49802
-11.7258
1.72229
-0.302947
0.384257
1.3829
-0.548812
-6.01588
2.66503
2.07204
0.116885
1.51674
0.610563
1.13084
0.0752214
0.0647351
-0.16063
-0.212977
-0.520964
-3.24579
0.275973
-0.870295
-0.298082
1.63308
2.3755
0.107503
1.66686
0.155647
3.36258
-1.83199
1.91927
0.0802777
-3.62598
-4.90915
3.40708
0.258729
-0.212689
3.39007
0.120793
-4.44948
1.56976
3.35887
0.113371
3.30871
1.00666
0.0894579
-4.50218
3.20587
-0.228299
-0.172905
-4.03368
0.352648
-0.0248809
1.86444
3.04847
0.011226
0.451541
1.98825
0.354001
1.67185
1.44851
-0.688939
-3.05984
-3.85837
2.9943
0.527135
-3.3871
0.261325
0.111766
2.94593
1.12295
0.0790315
-3.74019
2.89427
-3.50408
-4.07179
2.84337
1.94714
-4.39517
-2.62176
-4.91143
0.837658
1.99869
-4.80784
2.76262
1.65303
0.119775
-5.05794
2.17639
0.435516
0.334204
-0.97326
-6.65502
1.56187
1.65259
-1.69312
1.66464
0.200139
-1.46402
-3.89552
2.61831
0.943816
1.47464
-0.9852
-5.86237
-6.05726
-6.1983
-6.29698
-6.34821
-6.29696
-0.534239
-6.22686
-5.84749
2.10475
2.5729
0.942482
1.08422
0.28816
1.26911
-5.70354
2.53732
0.000694597
-5.53773
2.05125
-4.40643
-5.34974
0.0289596
2.43957
1.53249
1.06472
0.663966
1.65992
-2.81624
-5.19356
2.40308
-5.05901
0.0640521
0.22577
-4.59981
1.60309
2.35819
-0.202707
2.05001
0.0360177
1.3857
-4.91899
-0.650026
-0.0854377
2.3139
-0.797509
-3.68409
2.26973
-0.237067
-1.43815
-0.794469
-4.66229
2.23062
1.61386
0.514615
1.66381
0.395595
-0.0571285
-0.0276843
-4.61852
-5.96355
2.18107
0.632543
0.0318748
1.73791
0.720938
-10.5732
-0.738257
-4.58721
2.14131
-5.79361
1.62225
-0.185015
0.0210118
-4.56759
2.09518
0.892997
-7.16398
2.04353
-4.55787
-0.186449
-0.562795
-3.67377
-0.393841
2.00711
-4.55619
1.94461
-4.56398
-2.27647
1.1576
0.00574725
1.03017
-0.016204
1.89622
-4.55656
0.796294
2.61407
1.73762
-4.56504
-9.34371
1.85536
-1.51544
-3.74065
1.48551
-4.5444
1.64575
1.81558
-0.0272145
0.267764
-1.72353
1.6555
1.21911
0.0931447
-0.0422771
-4.50695
-3.67614
1.75908
0.468667
-3.94506
0.385317
-5.1991
-2.48486
-0.039255
0.86332
1.71463
2.32358
1.59414
2.49346
1.716
-4.38528
0.9041
0.271036
-5.43213
0.897595
-0.0195387
0.0482658
1.03916
1.41857
-0.222646
-4.2765
-5.5437
1.61792
-2.88483
-0.470087
1.95827
1.47741
0.16309
2.84184
-12.023
0.545479
0.33202
-4.14637
0.379424
-2.47636
1.55911
1.99943
1.80401
1.18065
-4.00213
1.50122
1.43256
1.38969
1.31971
1.26595
1.18786
-3.51922
1.45335
1.12511
1.81849
0.986599
-6.77304
2.34224
-3.8678
-0.808484
-7.80748
1.32993
-3.66864
2.20921
-3.76346
0.425772
-3.68897
-7.78785
-3.63954
1.63743
-1.07281
-0.346309
-3.60486
-4.17955
-4.85175
1.69713
-4.91156
-3.61655
1.761
1.73761
-1.11197
-12.0497
1.86435
0.33073
-9.16232
0.162691
0.752941
1.60135
-2.72632
0.121565
-6.08834
1.86816
-2.78184
-2.15484
-6.23104
1.00974
1.6685
0.190885
-4.56894
0.811366
1.92436
1.20184
-4.76321
1.64243
0.66953
1.29924
-0.475983
1.6754
-1.17744
0.00946057
-0.00228538
0.848394
-2.94968
2.42359
0.371346
-0.0491445
0.32354
-3.66075
2.15596
1.77513
1.56518
1.70316
0.287176
0.0981597
0.153324
-1.86884
0.595095
-0.772303
0.123216
1.29411
-3.38952
0.327772
3.02726
0.00647565
0.966966
1.00987
-8.29822
-0.0463432
1.11263
0.102545
0.851274
1.34814
1.65232
1.71545
1.6754
0.133447
1.94531
-3.67579
0.0174262
0.322491
-0.677843
-0.564445
-0.0904608
1.86145
-7.59594
1.60302
-1.37072
-6.95457
0.363528
-2.70628
0.216806
-0.717374
0.324327
1.825
0.252959
-0.686139
0.0211471
0.539027
0.0482557
-3.46062
0.00721074
1.57359
0.165418
-2.75835
1.31413
0.23609
1.33045
-2.45414
0.137483
-0.0919889
0.0142738
0.351548
-6.51364
0.294188
0.0227471
0.0501758
1.0696
2.45806
0.981699
-3.19069
1.66525
-0.403012
1.35603
-0.0398159
0.0352536
1.29285
-4.65883
0.0148592
-1.2551
-8.50803
-4.66356
1.65791
-0.272578
1.93247
0.274142
0.00453191
2.57527
2.41104
-2.90355
0.659772
-2.66536
-1.27155
1.88225
-1.94411
0.201687
-2.73445
-0.205881
-2.61496
0.349357
0.863436
0.207529
0.00764647
-0.0177693
1.6326
-8.29325
-3.83328
0.901057
0.590078
2.39881
0.157469
0.758869
2.54101
2.58344
-0.00569644
2.28774
1.35149
1.66993
0.394132
2.21136
1.77181
0.6402
-0.706089
-0.000180144
1.35357
1.33338
-0.00242197
0.00745853
-2.53533