/*--------------------------------*- C++ -*----------------------------------*\
| =========                 |                                                 |
| \\      /  F ield         | OpenFOAM: The Open Source CFD Toolbox           |
|  \\    /   O peration     | Version:  2306                                  |
|   \\  /    A nd           | Website:  www.openfoam.com                      |
|    \\/     M anipulation  |                                                 |
\*---------------------------------------------------------------------------*/
FoamFile
{
    version     2.0;
    format      ascii;
    arch        "LSB;label=32;scalar=64";
    class       volVectorField;
    location    "7.2";
    object      U;
}
// * * * * * * * * * * * * * * * * * * * * * * * * * * * * * * * * * * * * * //

dimensions      [0 1 -1 0 0 0 0];

internalField   nonuniform List<vector> 
5098
(
(2.53125 1.05961 0)
(2.13623 0.0853066 -4.34058e-20)
(2.55868 0.0246001 -2.014e-21)
(1.50152 -0.677326 7.56722e-19)
(2.63217 -1.04957 0)
(0.88184 -0.425399 0)
(2.50454 0.0014094 2.08249e-20)
(2.80481 -0.282866 2.10078e-21)
(2.73414 -0.0165963 -4.46126e-20)
(1.89705 -0.279777 1.44121e-19)
(-2.0702 0.012237 0)
(2.14289 -0.026313 1.69946e-19)
(2.43012 -0.363948 -7.6118e-21)
(0.92177 -0.446426 0)
(2.30611 -0.420218 1.44775e-19)
(1.89833 0.0769498 -4.60272e-22)
(-1.77642 0.441036 -5.09995e-19)
(-2.64295 0.944022 0)
(-0.261266 0.186647 3.66819e-19)
(-1.81419 0.468423 5.8194e-19)
(1.82118 0.590084 -8.53442e-20)
(1.87014 0.0655433 -6.57136e-22)
(2.07446 -0.783227 0)
(0.741082 0.0397712 3.01119e-20)
(-2.15007 1.37343 0)
(1.44833 -0.582189 0)
(1.99073 0.0239073 1.35452e-19)
(1.81269 -0.76306 1.9059e-19)
(-0.349764 0.27798 -1.12332e-18)
(1.69421 -0.73222 0)
(2.40871 -0.190181 -1.07549e-19)
(0.702522 -0.338654 0)
(2.07981 0.0441859 -1.44252e-19)
(-1.05602 -0.4539 0)
(2.55742 0.378731 -3.70286e-20)
(3.60406 0.40893 1.26175e-18)
(1.82518 -0.442579 1.4533e-19)
(2.07165 -0.00790726 -2.16467e-21)
(1.31955 -0.426976 5.66625e-19)
(1.36992 -0.632361 0)
(1.50757 -0.690057 -3.5471e-19)
(0.816031 1.31842 -1.98397e-18)
(1.46436 -0.587715 0)
(2.58107 -0.157305 6.74909e-20)
(2.43054 0.776278 1.61523e-20)
(2.04595 0.0824389 7.97916e-21)
(-2.02317 0.48234 2.33002e-19)
(1.06446 -0.351284 0)
(2.37797 -0.212558 0)
(1.50489 -0.644246 8.07343e-20)
(2.26483 0.134327 7.03145e-20)
(1.61181 0.485657 -5.01118e-19)
(0.307913 -0.15539 2.08612e-21)
(2.06795 -0.034379 1.78465e-19)
(0.945222 -0.473136 -3.41976e-19)
(1.55431 0.125493 0)
(1.82466 0.286327 -2.70791e-19)
(1.5977 -0.659262 0)
(0.828996 -0.40453 0)
(1.94111 -0.0083776 -3.94779e-20)
(1.65073 -0.339121 1.02015e-20)
(-2.12433 0.995702 -8.41545e-19)
(2.55231 0.429536 0)
(2.36909 -0.342926 0)
(0.337799 -0.15226 1.76844e-18)
(0.798971 -0.399551 4.32995e-19)
(2.30886 0.0268265 5.91737e-21)
(2.30778 0.180216 1.36879e-20)
(2.12598 -0.226372 1.73514e-19)
(1.64034 -0.693767 2.32754e-19)
(1.89256 0.212363 1.53294e-20)
(0.989114 -0.705317 5.79645e-21)
(1.88691 -0.775808 0)
(0.00807119 -0.692755 0)
(1.76944 -0.245934 3.86994e-20)
(1.10518 -0.542076 -3.87496e-19)
(1.51887 -0.171164 0)
(1.49996 0.213492 4.53858e-19)
(2.5155 -0.250689 6.96179e-20)
(1.60258 0.193586 0)
(1.68023 -0.0502012 0)
(2.28737 0.990008 6.83648e-19)
(1.66006 -0.298656 5.27719e-19)
(-1.03345 -0.791451 -7.4736e-20)
(-2.49998 0.516058 7.4396e-19)
(1.53778 -0.667929 1.32198e-19)
(0.0478542 0.292713 -2.73615e-19)
(1.53096 -0.198991 -4.74081e-21)
(2.89781 -0.206864 7.80909e-20)
(1.58183 -0.31636 1.34626e-20)
(2.27828 -0.234561 -7.43934e-21)
(0.831769 -0.227169 7.40861e-19)
(2.48701 -0.0730747 -2.14007e-19)
(1.51969 -0.662756 -4.03461e-19)
(1.30051 -0.45094 9.98683e-20)
(1.02814 -0.54337 -3.29534e-20)
(1.02787 -0.516192 -3.1928e-19)
(1.4341 0.293556 3.37121e-19)
(1.71696 -0.236996 1.81027e-20)
(2.00172 -0.442707 -1.14939e-19)
(2.9507 -2.36812 -5.14913e-19)
(0.995513 -0.492742 -4.04222e-19)
(-0.29556 0.190382 -1.00786e-19)
(2.80259 0.122646 1.86642e-20)
(1.51894 0.18336 -5.15912e-19)
(2.38512 1.15584 0)
(1.93658 0.265098 2.87808e-19)
(2.34573 0.0964022 1.99117e-20)
(0.988997 -0.388626 7.78768e-20)
(-2.10111 -0.0359567 0)
(1.03275 -0.497349 -8.60745e-19)
(1.09483 0.449445 5.35691e-19)
(1.93804 -0.0182536 -2.66182e-19)
(0.762315 -0.124743 1.604e-19)
(1.76602 0.670748 1.22687e-19)
(-0.276321 -0.0934525 0)
(2.57585 0.738192 1.84462e-18)
(2.63354 1.49443 0)
(1.32588 0.320548 -6.11507e-20)
(0.772326 -0.012224 -4.62242e-19)
(1.66925 0.465465 4.11466e-19)
(1.57712 2.03271 -1.47056e-19)
(1.98138 -0.29765 -9.09661e-20)
(-0.321148 2.12596 -1.00577e-18)
(0.819013 -0.24137 -1.00341e-18)
(-1.7223 0.687893 4.43114e-20)
(2.22154 -0.0235402 1.44759e-19)
(2.0591 -0.748938 -2.06017e-19)
(1.32792 -0.100991 -1.20578e-19)
(0.817363 -0.106448 -3.13596e-19)
(-1.90573 2.10166 -1.32538e-18)
(1.08138 -0.469751 -5.7228e-19)
(1.11485 -0.470343 4.7874e-19)
(2.53104 1.51597 -9.55793e-20)
(1.12139 -2.46225 -1.14432e-18)
(3.31858 -0.591245 5.68644e-19)
(1.97194 2.51905 5.04022e-19)
(1.90211 0.283621 1.9695e-19)
(0.85865 -0.420029 0)
(2.09073 -0.0383034 -5.75348e-19)
(1.57405 0.587905 -3.32236e-19)
(1.47858 -0.254579 9.2859e-20)
(1.71501 -0.777007 3.58645e-19)
(2.53271 -2.2443e-05 -1.08436e-20)
(2.04873 0.0680144 -5.37117e-20)
(2.8838 0.394004 0)
(2.09811 -0.233962 1.8221e-19)
(2.28952 -1.28947 0)
(2.83643 -0.0650926 4.42916e-19)
(1.61131 -0.734522 1.29123e-19)
(2.70549 0.170457 -1.27699e-18)
(1.9383 0.759012 0)
(2.43558 -1.31083 2.00924e-19)
(2.05544 0.0406902 0)
(0.035347 0.186123 -3.44908e-19)
(0.770229 -0.288464 -1.91243e-19)
(1.60236 -0.65298 -4.19661e-19)
(2.22616 -2.35989 -2.62645e-19)
(1.45414 -0.681935 -2.91057e-19)
(-0.19641 0.142268 1.19062e-18)
(1.93199 -0.415263 -3.91767e-19)
(2.32247 -0.421622 -1.94421e-19)
(0.535279 0.57348 -4.72847e-19)
(1.78835 -0.20336 -3.26986e-19)
(-2.67908 1.32665 -6.55078e-19)
(2.43824 -0.197951 -1.08523e-19)
(2.64956 -1.28924 -7.41173e-19)
(2.32047 -0.50634 0)
(-2.33959 1.49922 7.42953e-19)
(1.6502 -0.544605 -4.61662e-19)
(0.989682 -0.559312 2.34517e-20)
(1.51254 -0.619831 -2.75348e-19)
(2.22874 0.569457 1.40341e-19)
(1.80983 -0.734943 3.3921e-19)
(2.62672 -0.0372575 0)
(1.92983 0.00942856 0)
(1.6845 -0.2905 -2.03442e-19)
(3.35215 0.50615 -1.66135e-20)
(1.74304 -0.16799 4.57848e-19)
(0.227674 0.122604 0)
(1.70319 2.19343 0)
(3.26016 0.422687 -1.25636e-18)
(1.70726 -0.535663 5.62659e-19)
(-2.62919 1.4164 0)
(1.84646 -0.210429 0)
(2.68181 0.839297 4.07313e-19)
(1.48845 0.32827 0)
(1.8639 -0.424656 4.98053e-19)
(0.973805 -0.476422 7.49995e-19)
(-0.125286 0.793606 -3.25016e-19)
(1.05972 0.668517 0)
(1.46523 -0.202563 1.32307e-19)
(1.91233 -0.794713 0)
(1.75517 -0.258994 4.09243e-20)
(2.4466 -0.189467 1.20194e-20)
(0.654854 -0.169868 -7.76014e-19)
(3.67726 0.46691 4.99583e-19)
(3.52568 -0.468145 0)
(2.02189 0.0273779 -4.19451e-21)
(1.6746 -0.526319 -8.30908e-20)
(-2.01865 2.13881 -1.97171e-18)
(1.65923 0.422948 6.26065e-21)
(2.43427 0.763017 -1.07106e-20)
(2.32651 0.0254051 5.8372e-21)
(1.4933 -0.00253791 2.07451e-19)
(0.741838 -0.294777 -1.36707e-19)
(2.74547 0.0920483 -1.93277e-20)
(1.15272 -0.524366 0)
(2.38571 -0.0918938 0)
(1.24784 -0.603798 -3.64873e-19)
(1.96322 -0.153713 -1.66098e-19)
(1.69149 0.382508 3.33274e-19)
(1.58875 -0.20967 -1.33097e-19)
(2.08654 0.104855 -1.93226e-19)
(2.21851 -0.0738107 -3.03762e-19)
(-0.0478761 0.210875 -3.0649e-19)
(1.79892 -0.266957 0)
(-2.35417 0.366811 -1.18823e-18)
(1.02082 -0.283576 1.4241e-19)
(2.0156 0.0562028 1.38208e-19)
(2.29373 -0.249454 -2.78147e-20)
(1.54145 -0.30628 0)
(2.39307 0.103161 4.12037e-21)
(2.28287 -0.288728 1.40757e-19)
(0.330049 -0.164992 2.00905e-19)
(2.03839 -0.163004 0)
(0.350573 -0.0786164 0)
(1.97378 0.0290727 0)
(1.95515 -0.447043 0)
(1.74895 -0.674906 -1.23947e-21)
(1.822 0.471147 0)
(0.553128 -0.224849 -5.0057e-19)
(3.10019 0.525749 -7.8606e-19)
(1.99854 0.0334462 -1.93578e-21)
(2.65588 -0.0465091 -6.07447e-20)
(2.39398 -0.0419914 0)
(1.44694 1.53255 -1.99215e-19)
(-1.00724 2.4121 -1.72263e-18)
(3.25599 0.0389355 0)
(1.86129 -0.0183426 3.32738e-19)
(1.90255 1.15191 -2.29525e-18)
(2.26814 0.61413 0)
(2.68697 0.0813881 0)
(1.01724 -0.226389 8.43552e-19)
(1.78652 0.526338 -4.37785e-19)
(2.30056 -0.121398 -1.90106e-19)
(1.036 -0.490086 9.22351e-20)
(-2.32385 0.203764 -7.4898e-19)
(-1.83443 0.325571 0)
(2.39623 -0.111587 5.21965e-20)
(2.1886 0.864986 -1.04934e-19)
(1.82044 -0.758509 3.47505e-19)
(-0.348178 -0.223062 5.10054e-19)
(-1.46572 2.34731 9.29382e-19)
(1.95775 0.0344747 -2.47009e-19)
(-1.07042 2.33653 1.57347e-18)
(1.9902 -2.35143 9.70122e-19)
(0.623341 -0.355823 -9.15824e-20)
(1.09489 -0.371291 -3.52141e-19)
(1.74446 0.0300673 1.2721e-20)
(2.68012 0.833202 6.22408e-20)
(0.38996 -0.189199 8.06793e-19)
(-1.79621 1.23892 1.04507e-18)
(1.83476 -0.787617 0)
(2.05734 0.0352751 -1.53983e-21)
(-2.45729 1.04239 3.34931e-19)
(-0.169732 0.118006 -1.39495e-18)
(-1.97173 -0.421914 0)
(1.07689 -0.432175 0)
(1.82659 -0.00412707 -3.06932e-20)
(-0.096281 0.87317 3.99189e-19)
(1.84344 0.0927778 -2.01793e-20)
(-0.183108 0.145421 -6.2842e-19)
(1.16203 -0.367676 0)
(1.09391 -0.426096 2.569e-21)
(-0.350478 0.173239 -5.0391e-20)
(0.884941 1.11872 -2.39536e-18)
(3.3485 -0.428238 0)
(2.22136 -0.673291 0)
(1.93957 -0.113982 0)
(-2.18989 2.0997 -7.48312e-19)
(2.6621 -0.186301 2.17218e-19)
(0.37566 -0.223428 -8.41649e-19)
(2.64454 -0.157668 -2.41375e-19)
(2.12693 -0.460588 -8.70978e-20)
(-0.743462 0.153958 0)
(1.9399 0.0381043 0)
(2.95076 0.139161 1.14342e-19)
(2.46793 -0.160975 8.73547e-20)
(1.67353 -0.0134784 -2.62606e-19)
(-0.166927 2.1908 0)
(-1.0119 -0.752599 5.80843e-19)
(1.0221 -0.00488185 -2.47741e-19)
(2.44228 0.619051 9.05927e-21)
(1.92205 -0.587407 3.6616e-19)
(0.850505 -0.185055 -7.0921e-20)
(2.56394 0.131107 0)
(2.40823 -0.197088 -9.6849e-20)
(2.03615 0.0483323 0)
(2.0547 0.0352427 -1.53162e-19)
(2.84892 0.309896 -9.52631e-20)
(2.72715 0.0660576 1.21747e-19)
(1.54082 -0.394673 5.46052e-19)
(1.88452 0.473611 2.43241e-19)
(-2.41969 1.12153 -5.46952e-19)
(1.74097 -0.706401 -2.18764e-19)
(2.51735 1.9104 -1.18498e-19)
(2.07603 0.00433726 0)
(1.76437 -0.426126 0)
(-2.0681 0.432717 0)
(2.26259 -0.240979 3.64858e-20)
(-0.534932 -0.235118 5.16921e-20)
(0.814213 -0.406103 4.4795e-19)
(1.89006 -0.0241056 -8.6187e-20)
(2.46882 -0.359219 -2.61453e-20)
(0.122233 0.100277 6.77071e-19)
(1.92904 2.33596 -3.619e-20)
(2.39809 0.0915248 -4.59521e-21)
(2.23626 -0.141618 5.24398e-19)
(0.820019 -0.336823 0)
(2.677 -0.246958 -8.36265e-20)
(-1.00372 -0.730253 -1.21482e-18)
(3.20653 0.0754121 -6.23242e-19)
(0.615539 -0.495981 -1.87182e-20)
(1.74127 -0.21598 1.70021e-20)
(1.30176 -0.399415 3.82489e-19)
(2.17906 0.901552 0)
(1.98909 0.0962139 -9.79646e-20)
(1.0013 -0.395425 -8.22527e-19)
(1.42718 0.328311 5.28958e-20)
(1.23604 -0.600934 0)
(2.29689 -0.133279 -1.53107e-19)
(1.00149 -0.480401 2.56096e-19)
(2.26818 -0.670196 -7.5477e-20)
(1.66444 -0.697443 -3.13216e-19)
(2.30078 0.0830232 -6.20538e-20)
(2.34363 -0.316534 6.49802e-21)
(0.932284 -0.462593 4.90965e-19)
(2.11332 -0.0748979 2.20488e-19)
(1.79248 -0.381963 0)
(1.73801 -0.78963 -3.38974e-19)
(1.62149 -0.694701 -9.54062e-19)
(2.57758 -0.258117 2.53025e-20)
(1.96788 0.0502371 4.08739e-20)
(1.6074 1.08935 0)
(1.60631 -0.232166 0)
(2.07356 -0.0376779 -1.77671e-19)
(0.371811 0.283481 2.76696e-19)
(2.67511 1.42072 0)
(2.27212 -0.0772506 1.54447e-19)
(1.53484 -0.67153 -5.22847e-21)
(0.865912 0.383294 -6.13586e-19)
(0.815277 -0.342926 -4.41076e-19)
(-2.16336 2.05451 7.22279e-19)
(1.80785 -0.0469118 4.93875e-20)
(-2.34874 1.95693 2.81824e-18)
(3.42104 -0.403724 -6.13277e-19)
(2.14482 -0.00178932 0)
(1.3593 -0.0647055 -1.0431e-19)
(1.38489 -0.768235 0)
(1.95507 0.109837 -4.74338e-19)
(1.97019 -0.413543 0)
(2.05107 -0.0179867 -1.48527e-19)
(1.42061 -0.170431 3.89256e-20)
(2.69131 -0.155596 -5.59399e-20)
(1.07254 -0.403713 4.64639e-19)
(1.95822 0.0794685 -3.80592e-19)
(2.01941 0.245163 -4.37576e-19)
(1.95163 -0.826458 0)
(-0.813895 2.57862 0)
(1.14869 -0.443087 -4.56731e-19)
(2.68072 -0.18281 0)
(3.4587 0.834241 -8.15032e-19)
(1.60634 -0.316255 0)
(1.00374 -0.747912 -7.76257e-21)
(-2.21293 0.940884 7.35046e-19)
(1.69382 -0.558406 6.69821e-19)
(0.25071 -0.105781 -3.07373e-20)
(2.30526 -0.481922 0)
(1.39668 -0.179975 -3.69538e-20)
(1.75852 0.00606934 -2.35259e-19)
(-1.70719 0.673817 -7.46035e-20)
(1.94083 0.0335972 -2.13245e-19)
(2.76855 0.0349902 -8.2046e-20)
(2.63546 -0.0956847 -3.44195e-20)
(3.06517 1.12325 2.91336e-19)
(2.49046 0.479306 -3.32775e-20)
(-1.28875 2.49058 -4.14799e-19)
(1.6273 -0.485017 0)
(-0.438564 0.269296 1.02736e-19)
(1.9777 0.122354 -1.70725e-19)
(2.48191 -0.254401 0)
(1.9807 0.0449007 1.43076e-19)
(1.10402 -0.533197 -3.24542e-19)
(1.6178 1.32239 1.73718e-19)
(3.50096 0.373829 0)
(1.33749 -0.636908 1.1973e-19)
(-0.580385 -0.0714701 0)
(2.2184 0.0477772 4.36316e-20)
(2.54333 -0.351281 -2.01813e-19)
(0.192122 0.601561 1.1727e-18)
(0.990319 -0.0336431 0)
(1.5309 0.301209 2.33579e-19)
(1.99631 0.0697733 1.53006e-19)
(-0.220823 -0.0549223 0)
(1.64925 0.0268523 0)
(2.02511 -0.157636 0)
(-1.11126 0.552859 1.18717e-18)
(0.191242 -1.48407e-05 -3.66771e-20)
(2.87677 -0.0710798 0)
(2.00928 0.00842923 0)
(1.51385 -1.21848 1.29154e-19)
(0.0459169 0.297608 0)
(2.3488 0.497882 2.16449e-20)
(2.82065 1.32342 1.53858e-19)
(2.0193 0.593345 -6.53384e-21)
(1.82067 0.437347 -5.13749e-21)
(0.869199 0.476628 7.05647e-19)
(2.83522 1.50873 -1.65087e-19)
(2.33974 -0.237071 6.59943e-21)
(2.09548 -0.0427213 1.52826e-19)
(1.57997 -0.13875 -2.51686e-19)
(1.39443 -0.211029 2.20807e-21)
(2.02345 0.0368021 0)
(-2.36906 1.93087 -2.70999e-18)
(0.933748 -0.242315 0)
(0.240354 -0.790636 2.20576e-20)
(2.03511 -1.20834 0)
(2.18254 -0.16522 0)
(1.24155 -0.592326 -2.56823e-19)
(2.15193 0.0322467 -2.4302e-21)
(-0.262065 0.201969 -1.2492e-18)
(2.06366 0.0107252 5.37794e-21)
(1.74804 -0.68132 3.5326e-19)
(2.98211 1.23811 1.82169e-19)
(0.502853 -0.509836 1.13884e-18)
(2.61482 0.122587 8.19499e-21)
(2.03178 -0.798466 1.18019e-19)
(1.96065 0.0584175 -2.72878e-19)
(1.33443 0.449992 0)
(1.76477 -0.116219 -4.75626e-19)
(1.74339 -0.462409 3.72297e-19)
(2.00087 0.135881 -6.07595e-19)
(-1.59147 0.562041 -3.5653e-19)
(1.54384 1.33271 -1.5303e-19)
(2.76274 1.39458 2.32028e-19)
(3.50292 -0.125666 0)
(2.2571 -0.350131 0)
(0.066469 0.182085 -4.71896e-19)
(2.07961 -0.0733487 9.64602e-20)
(-1.95472 0.344406 0)
(2.26399 -0.138514 -1.32433e-19)
(2.00774 0.0316794 -3.1628e-19)
(-1.57485 0.352836 -2.2585e-19)
(-1.85448 0.050739 1.20729e-18)
(2.59269 -0.130481 -3.53626e-21)
(0.224533 1.60087 -4.94678e-20)
(2.32302 -0.320657 -2.61849e-19)
(1.89641 -0.434747 2.55938e-19)
(3.38515 1.20181 6.90026e-19)
(1.47659 -0.607656 3.50546e-19)
(1.56821 0.36749 2.34228e-21)
(0.950682 0.314608 5.14446e-19)
(2.02525 2.03484 0)
(1.6285 -0.456731 2.19672e-19)
(-2.52221 0.607739 0)
(0.594368 -0.181035 -2.1632e-18)
(1.7231 1.10871 0)
(-2.28315 1.05657 -2.02554e-18)
(1.5661 -0.673132 -4.85446e-19)
(1.01341 0.614113 -2.23407e-19)
(2.02102 -0.813033 0)
(-0.505157 -1.10969 0)
(3.27331 -0.056833 0)
(1.98458 0.102422 1.23323e-19)
(0.240562 -0.139784 -7.60943e-19)
(-0.150573 0.37471 9.28704e-19)
(1.52874 -0.286723 -8.06567e-21)
(3.33623 1.24083 -7.90664e-19)
(2.01732 0.318198 0)
(1.17028 2.0409 2.71512e-19)
(2.4363 1.40252 8.23342e-20)
(-0.8219 -0.473582 -2.38493e-19)
(1.49033 -0.692539 2.79325e-19)
(2.5229 -0.178954 4.57081e-21)
(1.11412 -0.542128 5.34563e-19)
(2.2842 0.451703 0)
(2.53392 -0.306221 1.90886e-19)
(0.637813 -0.321229 1.05984e-19)
(1.9849 -0.0135135 2.54224e-20)
(3.50266 0.975681 -4.34426e-19)
(2.19785 -1.21745 0)
(2.50058 0.852737 0)
(1.73857 0.34359 0)
(0.958958 -0.332979 0)
(1.86467 0.00353477 0)
(1.37168 -0.506091 1.52456e-19)
(3.74273 1.16967 6.56266e-19)
(1.40161 -0.579052 4.19372e-19)
(2.09578 0.0579045 2.52994e-19)
(-2.62562 0.742745 0)
(1.99855 -0.823004 3.08634e-21)
(-0.313649 0.367274 0)
(-2.44602 0.505659 -1.30989e-18)
(-0.299197 0.237805 5.1416e-19)
(3.66093 0.779399 -3.74742e-19)
(1.9858 0.119521 3.04409e-19)
(2.03277 0.27265 -9.82889e-20)
(3.43839 0.533323 -3.78212e-19)
(2.57078 0.00137228 0)
(0.594805 -0.278549 9.56885e-19)
(1.99061 0.0235073 0)
(1.49745 0.948632 1.66163e-20)
(2.46366 -0.157086 0)
(2.1241 0.267931 -1.27368e-19)
(2.06992 -0.0721584 0)
(0.855557 -0.313765 -3.11543e-19)
(-0.58712 0.734932 1.53296e-18)
(2.42553 -0.240536 -1.72957e-19)
(1.31987 0.430372 4.68389e-19)
(-1.61276 0.879712 -2.4584e-18)
(2.4847 -1.08099 0)
(0.9866 -0.194231 -1.19381e-18)
(1.25888 -0.0137465 -2.56504e-20)
(3.48595 0.43335 -1.03075e-18)
(1.79504 0.0135054 2.39346e-21)
(3.76064 0.431909 1.95603e-18)
(2.64728 0.950674 0)
(1.70188 -0.762179 -7.4408e-20)
(1.43194 -0.647048 0)
(2.49851 -0.234505 1.3506e-20)
(0.401285 -0.102873 7.6581e-20)
(-2.49242 1.36812 0)
(2.38708 0.498584 0)
(1.45637 -2.40652 -8.73975e-19)
(2.44633 0.831431 0)
(1.70165 1.85161 1.44065e-19)
(2.87899 1.07399 -2.88858e-19)
(0.515762 -0.145913 -7.09542e-19)
(-1.7333 0.136192 -4.40675e-19)
(1.99137 0.0298376 -6.6295e-21)
(-0.334019 -0.147833 -1.67532e-20)
(0.119889 0.0221419 -9.6349e-19)
(1.88564 -0.00510657 5.10918e-19)
(-1.64309 0.390619 2.57635e-19)
(-2.04322 0.915217 0)
(2.46645 0.175275 -7.62926e-20)
(0.584851 -2.22259 1.08549e-18)
(0.339787 0.255295 8.30346e-20)
(3.51842 0.583449 8.59889e-19)
(2.7579 1.74056 0)
(1.73676 -0.493621 -3.74256e-19)
(1.83777 -0.313945 -1.12787e-21)
(1.8427 0.813699 -8.1172e-20)
(2.85693 -0.0472903 -4.41787e-19)
(-1.73712 -0.34801 3.42419e-19)
(-2.06561 1.96959 1.75748e-18)
(1.41901 -0.567471 -1.01324e-19)
(-1.98324 0.114836 5.78235e-20)
(2.87305 -0.177924 -4.38912e-19)
(-1.86402 -0.332335 -3.84337e-19)
(2.2797 -1.01551 0)
(1.88148 -0.159491 -4.58785e-19)
(-1.17441 -0.643273 0)
(-0.573086 -0.358105 -2.01125e-19)
(-0.643139 -0.462612 2.51358e-19)
(-0.614575 -0.330119 7.69328e-19)
(1.26534 0.177413 1.68602e-20)
(-2.02184 1.22278 1.36392e-19)
(-0.917628 -0.179573 0)
(2.14085 -0.763917 2.96808e-19)
(2.12486 -0.811484 5.75449e-20)
(-1.12025 -0.366298 -6.82105e-19)
(1.78365 0.545152 0)
(1.65611 0.526295 0)
(0.159674 0.378123 0)
(1.24957 -1.59753 -8.58736e-20)
(1.90304 -0.0377735 -4.53761e-19)
(1.26481 0.192316 0)
(2.77097 -2.20176 0)
(2.27291 0.209433 -1.59063e-20)
(2.26209 -0.121488 -1.11574e-19)
(2.1032 0.324588 -3.85005e-19)
(1.77087 -0.270602 -1.39078e-19)
(1.68155 0.0476702 5.67796e-20)
(1.95255 -0.0300209 -6.14815e-20)
(1.27719 -0.092229 9.7525e-20)
(1.93767 0.543669 -2.94494e-20)
(1.85878 1.26909 0)
(0.0126572 0.0899486 -1.30372e-20)
(0.0133776 -0.340923 0)
(0.972805 0.188991 0)
(2.97975 0.392291 -4.83746e-19)
(-2.72717 1.21087 0)
(2.49572 0.486254 0)
(1.87299 -0.113499 7.07153e-19)
(1.81828 -0.792682 0)
(2.05259 0.26988 4.47557e-19)
(3.42019 0.754286 4.32439e-19)
(3.21316 0.839152 1.5122e-19)
(1.47069 0.397896 -4.54113e-21)
(1.06956 1.41001 2.74952e-19)
(2.15828 -0.803713 2.99614e-21)
(1.95988 -0.756081 -2.10518e-21)
(1.12716 -0.42382 4.4706e-19)
(-0.804071 0.0545927 0)
(0.917923 -0.450954 0)
(-2.69754 1.58937 -1.89552e-18)
(-0.678148 0.893706 -2.07448e-18)
(-0.353404 -1.10899 0)
(-1.07217 0.109595 3.19215e-19)
(0.264014 -0.132502 0)
(0.285383 -0.464374 1.02087e-18)
(1.07803 -0.492625 -5.77876e-19)
(3.45889 0.619058 -1.96252e-20)
(3.17289 0.979995 3.3547e-19)
(1.18854 -0.392644 9.02961e-20)
(2.80015 -0.102498 2.06037e-19)
(2.31537 1.026 0)
(2.39409 0.978245 0)
(1.01785 0.0586488 0)
(-0.525126 -0.0750683 -4.84191e-19)
(1.3687 -0.51013 0)
(2.29247 0.770599 0)
(1.68883 0.0464219 0)
(2.32819 -0.32941 -5.68362e-20)
(0.877077 -0.0766275 3.14846e-19)
(1.97341 -0.74372 -1.79235e-19)
(1.03574 -1.61872 2.73423e-19)
(1.6137 -0.299343 0)
(-2.17036 1.51545 0)
(1.92041 -0.552555 -3.33912e-19)
(1.54269 0.600331 7.08276e-19)
(-2.1704 1.48507 -9.42734e-19)
(2.85019 0.00655116 1.28717e-20)
(1.66157 -0.43952 4.01266e-19)
(0.945759 0.503504 -1.11551e-18)
(-0.608952 0.93309 0)
(1.17077 1.38294 -6.38394e-19)
(0.338186 0.419459 -6.87297e-19)
(3.23846 0.688673 0)
(2.20177 -0.0631979 0)
(1.97611 -0.0673438 0)
(2.02626 0.0558609 -4.58311e-19)
(1.37465 0.314097 -4.79435e-19)
(1.61578 0.169745 0)
(2.47149 1.37789 1.30024e-18)
(1.73642 -0.774182 3.49757e-19)
(2.38243 -0.330953 6.80192e-20)
(-2.59082 1.2381 7.92005e-19)
(2.06424 -0.250389 0)
(2.51452 0.107158 4.43285e-20)
(1.71093 -0.407167 0)
(0.183789 -2.09939 -1.08022e-18)
(1.67775 -0.760097 0)
(2.08239 -0.729523 3.80607e-19)
(1.68631 -0.208116 -3.41292e-23)
(2.14179 0.514797 1.00448e-20)
(2.40323 -0.342588 0)
(1.75962 -0.749676 0)
(1.54502 -0.663605 -5.09835e-19)
(2.3047 0.433542 -2.39144e-20)
(-2.23017 0.0629324 6.55379e-19)
(0.824889 -0.391858 4.54832e-19)
(1.86822 -0.0556436 0)
(1.54769 0.239158 -7.25984e-19)
(2.41236 0.0223881 -5.74054e-20)
(1.36014 -1.78682 -1.32114e-19)
(2.11578 0.736487 2.5677e-20)
(2.31556 0.821711 0)
(1.16464 -0.331573 6.37087e-19)
(0.925513 0.236715 -7.05632e-19)
(3.52489 0.942025 9.80075e-21)
(1.79812 0.24538 -8.33072e-19)
(-2.50848 1.15795 6.75129e-19)
(-0.149558 0.235128 -1.87311e-18)
(1.73433 -0.144585 7.32413e-20)
(2.08729 -0.0231334 -4.07051e-20)
(0.516988 0.340014 1.02427e-18)
(-0.256826 0.194359 -4.15793e-22)
(-2.59893 1.12465 1.26632e-18)
(-2.39224 0.150889 1.38612e-18)
(1.78961 -0.0878511 7.42022e-20)
(2.36518 -0.205375 0)
(0.774431 0.222018 8.02787e-19)
(1.11686 -0.543429 2.40342e-19)
(1.63889 -0.243678 2.46095e-19)
(-0.25704 0.300018 0)
(1.56546 -0.358093 -6.53174e-20)
(1.88549 0.0834455 -1.48951e-22)
(2.05783 0.0376752 0)
(0.29834 -0.0414269 6.49976e-19)
(-1.07234 -1.41262 4.6854e-19)
(1.63584 -0.287707 0)
(1.00296 -0.365959 0)
(1.51859 -1.40165 -1.24969e-19)
(1.49791 -2.13438 -8.37165e-20)
(2.9336 0.353237 1.732e-19)
(-0.348993 0.0906463 0)
(1.90832 -0.00899093 -3.94509e-19)
(2.78172 -1.0727 -2.07553e-19)
(2.15283 -0.699629 2.02383e-20)
(1.1798 -0.444572 5.60791e-19)
(-2.67009 1.15905 -1.13858e-18)
(-2.50409 0.828362 9.26377e-19)
(3.78325 0.904909 -8.48975e-21)
(3.29673 -0.499403 0)
(2.0087 0.93961 -1.00668e-18)
(1.53759 -0.613411 2.56277e-19)
(2.01334 2.08016 1.4905e-19)
(0.786676 0.653175 0)
(1.12312 -0.203697 -5.64603e-19)
(1.17494 -0.485878 -6.80011e-19)
(-2.66443 1.57132 1.34935e-18)
(0.862335 -0.148188 -1.02071e-18)
(2.15327 1.48407 0)
(-0.187901 0.427777 -5.85936e-19)
(2.29714 0.59224 0)
(-0.634745 -0.548933 -7.62973e-19)
(-0.139918 0.61273 1.28844e-18)
(-0.597967 1.75091 0)
(-2.6696 1.23772 5.13571e-19)
(1.60592 -0.085131 -1.02842e-19)
(0.822758 -0.173665 3.94618e-19)
(1.6302 -0.646753 4.59382e-19)
(-2.6388 1.69139 -3.05993e-18)
(1.14544 -0.515449 0)
(2.0122 0.0502781 1.48489e-19)
(0.602926 0.00508479 0)
(2.24885 0.243879 -4.25247e-21)
(-0.719252 0.1278 -1.09848e-18)
(0.513123 -0.191928 2.98822e-19)
(2.40926 0.751407 0)
(1.84112 -0.728748 -3.32342e-19)
(3.17462 0.120364 1.69836e-19)
(-2.55854 1.1455 2.24753e-18)
(-0.369125 -1.86404 0)
(-2.47467 0.958567 -2.00539e-18)
(3.22749 0.874844 -9.98886e-19)
(1.58767 0.241123 9.30532e-19)
(2.29321 -0.819936 0)
(2.59212 -0.226781 4.37683e-19)
(-0.795166 0.0565581 9.80532e-19)
(0.72681 -0.133985 -1.39484e-19)
(2.16201 -0.532375 1.20351e-19)
(-2.4041 0.961768 0)
(1.96252 -0.567188 -6.06552e-20)
(1.81072 0.335534 -3.53668e-22)
(2.45552 -0.348599 1.11748e-19)
(2.34968 0.0280632 0)
(-2.18479 1.71719 1.08367e-18)
(1.60191 -0.431996 2.83271e-22)
(1.24818 -0.360216 6.96534e-20)
(1.44092 0.581043 0)
(2.00311 -0.762252 -1.36331e-19)
(-2.59888 1.58763 2.31955e-18)
(1.67309 -0.39812 -5.02418e-19)
(-0.24805 0.162543 0)
(1.40098 -0.29231 -6.0066e-20)
(2.02886 -0.737356 1.1368e-19)
(-2.61311 1.16138 -1.31978e-18)
(1.48649 -0.308574 0)
(0.490998 -0.163025 1.41801e-18)
(1.72545 -1.58087 0)
(-1.90226 2.1165 1.47601e-18)
(1.89922 -2.3799 0)
(1.84679 -0.106342 -2.61806e-19)
(2.18911 -0.213052 -2.52525e-19)
(2.68908 1.35509 -6.51294e-19)
(1.43156 -1.04693 0)
(1.95457 -0.826155 -2.08596e-19)
(1.99915 0.0207957 0)
(2.36649 0.480584 0)
(2.06006 -0.830535 4.49557e-20)
(-2.08697 1.8413 1.0439e-18)
(0.517801 -0.0289803 1.87994e-19)
(2.08567 -0.51469 -7.44773e-20)
(1.67798 0.361591 3.06839e-19)
(-0.38397 -0.203407 -8.41044e-20)
(2.05077 0.29445 1.78035e-19)
(-0.421321 0.807774 -1.50298e-19)
(2.01262 0.978097 0)
(2.50923 0.289602 0)
(-1.00241 1.19586 0)
(-1.41397 -0.792599 1.36157e-18)
(1.15383 -0.39041 -3.95061e-19)
(1.4681 0.125823 0)
(-2.0433 0.712777 1.45176e-18)
(2.31421 -0.144227 -1.75078e-19)
(-2.35091 0.875841 -6.6359e-19)
(1.3574 -0.480088 -1.26988e-19)
(2.13474 -0.828515 0)
(0.477627 -0.15741 1.21678e-18)
(0.395732 -0.164161 -1.46443e-18)
(-0.262983 1.26327 0)
(-0.383772 0.337747 -7.82257e-19)
(1.71222 0.0317387 -1.39113e-20)
(2.74156 -0.139826 9.37675e-20)
(1.91622 0.0532706 2.73141e-19)
(2.73002 1.17965 -2.97607e-19)
(2.45645 0.232239 4.3833e-21)
(-1.4322 -0.724505 0)
(1.89925 -0.735398 0)
(-1.89536 0.791368 1.33279e-18)
(0.35204 -0.258242 0)
(1.56992 -0.321196 -6.62301e-20)
(2.12622 -0.736078 -1.89642e-19)
(0.947061 -0.438777 4.75868e-19)
(2.32722 -0.229564 -1.58981e-19)
(1.71371 0.399096 -3.05864e-19)
(1.49976 -0.599595 -2.53236e-19)
(1.58318 -0.632049 -4.65073e-19)
(1.45526 -2.03323 0)
(1.68051 -0.655214 4.35028e-19)
(2.08024 -0.0680675 0)
(2.44158 -0.357511 -4.39184e-21)
(1.98414 1.34457 2.28499e-20)
(0.934624 -0.262209 7.17589e-20)
(2.20957 -0.338091 -2.05562e-19)
(0.543695 -0.415324 -8.41784e-19)
(0.0383157 0.157619 0)
(1.01441 -2.59987 -4.74077e-19)
(-0.260483 1.59239 -1.90873e-18)
(2.07259 0.531419 -1.95819e-19)
(1.78647 -0.713466 3.92801e-19)
(2.10968 0.0142539 -5.41262e-21)
(0.886789 -0.101371 3.5595e-19)
(1.80435 -0.743607 -4.17309e-20)
(0.292402 0.151007 0)
(-2.31483 0.815718 1.92643e-18)
(1.72782 -0.365653 2.66492e-19)
(2.07272 0.0432343 -9.7752e-23)
(1.14275 -0.488605 9.98185e-19)
(-0.850693 -0.407568 2.59099e-20)
(1.6849 0.630031 0)
(-1.37606 -0.647242 -5.10301e-19)
(-2.27365 1.51947 -1.52527e-19)
(1.07018 -0.317793 -7.57616e-19)
(-1.15865 -0.76461 5.38693e-19)
(2.35594 1.03325 -2.78983e-19)
(2.10593 0.477563 4.57516e-21)
(0.912755 -0.360694 3.43047e-19)
(1.76268 -0.364326 0)
(2.59138 0.198696 -1.43014e-19)
(2.49962 -0.0597545 -6.56784e-21)
(3.00538 0.988873 -3.32018e-19)
(-1.23074 -0.773647 0)
(3.5636 1.19635 2.04367e-20)
(-0.211156 -0.350152 7.31357e-19)
(1.57903 -0.686833 9.81489e-19)
(-0.0378124 -0.409936 1.36095e-20)
(-0.645294 0.450981 -4.24546e-19)
(0.48921 -0.183144 2.3557e-18)
(1.95693 -0.722742 3.74296e-19)
(2.20942 0.03831 -3.39713e-21)
(-0.122539 -0.249461 -5.47823e-21)
(2.87503 0.0402498 4.83166e-20)
(0.312168 0.562567 0)
(2.02295 0.0331758 0)
(2.37153 0.557317 0)
(1.72851 -0.666535 -3.75001e-19)
(2.43944 -2.45588 7.82795e-19)
(-1.22434 -0.326134 0)
(1.21362 -0.358716 -1.63532e-19)
(-0.791216 2.3241 0)
(3.71711 0.457212 0)
(-1.4429 -0.566572 0)
(1.96034 0.00562067 0)
(0.439224 -0.143188 -4.39041e-19)
(-0.138923 0.547977 0)
(3.58434 0.298445 1.49201e-18)
(1.31552 0.0174181 0)
(1.72285 0.285882 0)
(1.93024 0.253775 2.9551e-21)
(-0.496675 0.746874 0)
(3.65431 -1.1645 0)
(-0.913248 -0.145222 0)
(2.60964 -0.0023996 1.23418e-20)
(1.66097 -0.104715 0)
(2.15626 -0.810175 -5.16211e-21)
(1.38708 -0.302525 2.09824e-21)
(0.327741 -0.201411 -4.11407e-19)
(1.9739 0.0629842 6.7343e-19)
(-0.1986 0.0378555 -1.00928e-19)
(1.04764 0.952182 -5.97741e-19)
(1.43844 0.772372 0)
(2.3487 -0.320655 5.74904e-21)
(1.62626 -0.181426 -2.40286e-19)
(1.54968 1.73087 1.57489e-19)
(1.81164 0.426929 4.41235e-19)
(0.736208 -0.25161 -7.23839e-19)
(1.48105 -0.650797 -3.90041e-19)
(2.82367 0.553861 2.12751e-19)
(0.427769 -2.20838 0)
(2.36672 -0.360077 -3.0297e-20)
(0.90347 -2.02732 5.58208e-19)
(2.71021 0.349462 -7.57227e-20)
(-2.42475 1.68133 0)
(1.86433 0.0287332 -3.04539e-19)
(2.69499 1.01509 -1.04841e-18)
(1.32726 -0.522983 5.1276e-19)
(1.20271 -0.537905 -6.21375e-19)
(1.61906 -0.747402 0)
(1.72526 -0.758183 0)
(3.50036 -0.0711019 1.75126e-18)
(2.2605 -0.331827 -1.24157e-19)
(3.40169 0.527593 -5.53777e-19)
(1.75048 -0.0259436 4.25774e-20)
(1.19206 -0.325375 -1.52157e-19)
(1.65119 -0.495899 4.22356e-19)
(2.51166 0.317656 0)
(2.41787 0.336053 7.83499e-21)
(0.434894 -0.262455 -1.81206e-18)
(2.64331 -1.5459 2.7685e-18)
(1.22718 -0.167873 -9.51854e-20)
(-0.819478 0.089328 6.56819e-19)
(3.24692 0.540607 4.62445e-19)
(2.51361 0.819459 5.05675e-20)
(2.37335 0.675644 0)
(-1.99782 -0.158234 0)
(2.20371 -0.807446 5.28759e-23)
(1.13512 -0.232654 0)
(1.82888 -0.387797 1.75179e-19)
(1.62339 0.307805 5.29727e-19)
(1.62424 0.504218 -1.5767e-19)
(1.55393 -0.635823 1.00841e-18)
(1.77315 0.397908 3.9947e-22)
(1.39278 0.00445598 0)
(1.83948 -0.0821981 -8.92823e-21)
(-0.961325 -0.12805 -9.04951e-19)
(2.18334 0.270038 0)
(2.4969 -0.369052 0)
(1.87216 -0.747349 1.40076e-19)
(1.94821 0.562979 2.46769e-19)
(1.05567 -0.138254 0)
(3.77746 -0.771831 1.10858e-19)
(2.8254 -0.00117106 1.93014e-19)
(2.33241 0.363431 3.92388e-20)
(1.71317 0.502388 4.65929e-19)
(-1.79052 0.0147317 -6.70584e-19)
(1.28216 -0.836256 0)
(0.25893 -0.540614 -2.03004e-18)
(0.483714 -0.205418 1.08172e-18)
(1.9555 0.0149028 1.68748e-20)
(-0.0168642 -0.454399 -8.70608e-19)
(1.75896 -0.7268 2.79546e-20)
(2.65674 0.415331 1.97016e-19)
(1.57902 0.670136 0)
(1.97587 0.178938 2.9131e-21)
(1.81305 0.0235375 9.40957e-20)
(2.08104 -0.0318894 -1.52381e-19)
(2.19229 0.480941 -1.55527e-19)
(2.18286 -0.764709 0)
(-1.62251 0.172675 0)
(2.58418 0.0188169 0)
(2.28958 0.441038 -8.42499e-20)
(1.01926 -0.469514 7.45486e-19)
(2.37367 1.8241 -7.47187e-20)
(1.48946 -0.0602372 0)
(-1.3775 1.40356 -3.97398e-19)
(-1.66694 -0.706575 7.38043e-19)
(-1.56868 2.44616 0)
(1.93372 0.291031 -1.41885e-19)
(1.62995 0.286521 -1.75963e-19)
(3.25628 -0.0897605 -1.14798e-19)
(2.03559 0.638843 2.22904e-20)
(0.634596 -0.212506 0)
(2.16653 0.187622 -1.87992e-19)
(2.00912 -0.39623 0)
(2.04898 -0.239998 1.03557e-20)
(0.955724 0.100735 0)
(2.25069 0.910987 1.1723e-19)
(1.65044 -0.665466 -4.44948e-19)
(2.40539 0.901324 0)
(1.80823 -0.0606162 -4.58762e-19)
(2.17791 0.771649 -5.84633e-20)
(1.90831 -0.665211 0)
(1.11564 -0.526102 0)
(0.48452 0.220199 -9.21709e-20)
(2.45759 -0.226622 -1.23871e-20)
(0.294765 -2.41869 -5.66969e-19)
(-0.218933 -0.0539524 1.04834e-20)
(2.79104 -0.108154 -7.04239e-22)
(1.18413 0.358962 7.54079e-19)
(1.72622 0.430351 -1.99052e-21)
(2.05087 0.548284 0)
(3.3596 1.00009 4.62216e-19)
(1.66784 -0.758864 0)
(1.46972 -0.674303 -4.25102e-19)