/*--------------------------------*- C++ -*----------------------------------*\
| =========                 |                                                 |
| \\      /  F ield         | OpenFOAM: The Open Source CFD Toolbox           |
|  \\    /   O peration     | Version:  2306                                  |
|   \\  /    A nd           | Website:  www.openfoam.com                      |
|    \\/     M anipulation  |                                                 |
\*---------------------------------------------------------------------------*/
FoamFile
{
    version     2.0;
    format      ascii;
    arch        "LSB;label=32;scalar=64";
    class       volVectorField;
    location    "4.3";
    object      U;
}
// * * * * * * * * * * * * * * * * * * * * * * * * * * * * * * * * * * * * * //

dimensions      [0 1 -1 0 0 0 0];

internalField   nonuniform List<vector> 
5098
(
(2.68078 0.951431 0)
(2.10063 0.105333 -2.77436e-20)
(2.43151 0.045243 -2.7065e-21)
(1.53731 -0.686909 7.75546e-19)
(1.99587 -0.55778 0)
(0.887449 -0.428849 0)
(2.36419 0.000920948 -1.18678e-20)
(2.31825 -0.250261 1.27588e-21)
(2.56448 0.0398456 -5.14311e-20)
(2.01985 -0.278617 1.0124e-19)
(0.851547 -0.85292 0)
(2.2359 0.014785 1.81884e-19)
(2.4876 -0.430361 -1.02954e-20)
(0.941559 -0.458462 0)
(2.00382 -0.156713 7.89802e-20)
(1.99036 0.0169579 6.74774e-22)
(0.843547 -0.510944 -2.01041e-20)
(0.208621 -0.909809 0)
(-0.453133 0.263834 5.05871e-19)
(0.73538 -0.443032 2.27282e-20)
(1.82019 0.575025 -7.50758e-20)
(1.92816 -0.00244564 2.9836e-21)
(2.10673 -0.821598 0)
(0.768314 0.0128891 2.90681e-20)
(-0.914752 0.259002 0)
(1.48088 -0.595859 0)
(2.04096 0.016425 1.21536e-19)
(1.8633 -0.79015 2.07207e-19)
(-0.234765 0.490881 -1.53032e-18)
(1.69023 -0.74175 0)
(2.41695 -0.200288 -1.13807e-19)
(0.720054 -0.348993 0)
(1.99856 0.103826 -1.38907e-19)
(1.16307 -0.675157 0)
(2.46546 0.270673 -4.5677e-20)
(3.33436 0.0167152 1.54961e-18)
(1.8855 -0.46799 1.50668e-19)
(2.02696 -0.0325126 -2.64102e-21)
(1.34796 -0.439956 5.63908e-19)
(1.3863 -0.645128 0)
(1.54487 -0.700678 -3.65632e-19)
(1.72286 -2.32078 -1.10181e-18)
(1.49672 -0.60144 0)
(2.73138 -0.140198 3.87265e-20)
(2.44908 0.564692 4.43703e-20)
(2.10561 0.0724822 6.37339e-21)
(0.738515 -0.528876 9.91779e-21)
(1.07585 -0.353205 0)
(2.42511 -0.212669 0)
(1.54269 -0.654036 8.26283e-20)
(2.27034 0.103236 4.18708e-20)
(1.63464 0.464806 -4.62873e-19)
(-2.01598 1.04895 -1.96417e-20)
(2.03398 -0.120993 1.81659e-19)
(0.951904 -0.476648 -3.44079e-19)
(1.58812 0.118135 0)
(1.85096 0.272317 -2.49176e-19)
(1.64439 -0.671788 0)
(0.852547 -0.418952 0)
(1.89264 -0.00255318 -1.65887e-20)
(1.13582 -0.0530848 6.34855e-20)
(0.296544 -0.216764 -4.65749e-20)
(2.45992 0.308386 0)
(2.44442 -0.409538 0)
(-2.27203 1.20833 2.62631e-18)
(0.811924 -0.407193 4.28984e-19)
(2.08377 -0.0174986 8.60582e-21)
(2.27405 0.107064 7.43252e-21)
(2.12024 -0.272619 1.82921e-19)
(1.68516 -0.704144 2.42995e-19)
(1.91469 0.198055 1.67535e-20)
(1.48732 -0.463242 -1.11025e-20)
(1.93395 -0.809053 0)
(1.29188 -0.543816 0)
(1.69209 0.0183298 1.41368e-20)
(1.12206 -0.548244 -3.95891e-19)
(1.81431 0.210745 0)
(1.55014 0.214747 4.33273e-19)
(2.57774 -0.240447 5.70414e-20)
(1.61666 0.170996 0)
(1.73021 0.00668998 0)
(3.63615 -1.74512 7.95612e-19)
(1.69523 -0.297663 5.28432e-19)
(1.15755 -0.708177 -3.32889e-21)
(0.225734 -1.04911 7.45704e-20)
(1.5296 -0.673951 2.28748e-19)
(0.07453 0.266628 -2.6275e-19)
(1.83627 0.169681 2.88939e-21)
(2.51488 -0.21273 4.93856e-20)
(1.20902 0.12032 5.04895e-20)
(2.2806 -0.278477 -8.115e-21)
(-0.413581 0.539431 9.61389e-19)
(2.37421 -0.0483814 -2.2427e-19)
(1.55899 -0.673011 -4.13547e-19)
(1.32524 -0.464076 9.946e-20)
(1.39955 -0.398761 1.14305e-20)
(1.04974 -0.526671 -3.34684e-19)
(1.4892 0.312576 3.21055e-19)
(1.69303 0.0767797 8.50847e-21)
(2.04733 -0.48609 -1.25338e-19)
(1.70392 -0.959811 -7.61905e-20)
(1.00587 -0.496141 -4.08827e-19)
(-0.0706867 -0.0578543 6.77757e-21)
(2.20949 0.220295 -1.73647e-20)
(1.55037 0.189878 -4.92483e-19)
(2.49047 1.09614 0)
(1.96027 0.24169 2.64103e-19)
(2.23738 0.0410149 -8.34518e-22)
(1.01598 -0.403708 7.6446e-20)
(0.739399 -0.801838 0)
(1.05264 -0.505957 -8.93755e-19)
(1.59528 0.695421 7.465e-19)
(1.84795 -0.0333079 -2.60941e-19)
(-1.67457 1.65053 2.43827e-19)
(1.7805 0.657701 1.07013e-19)
(0.434763 -0.371622 0)
(3.33755 -1.75692 1.22786e-18)
(2.7337 1.37194 0)
(1.95522 0.194837 1.05281e-20)
(0.793659 -0.0314076 -4.47405e-19)
(1.70169 0.433683 3.80081e-19)
(1.65226 2.01249 -4.08386e-20)
(2.1044 -0.316272 -6.28948e-20)
(0.680263 -1.81631 -1.19829e-18)
(-0.969827 1.48255 -1.27649e-18)
(0.411406 -0.22469 1.98758e-21)
(2.20975 -0.0501631 1.4902e-19)
(2.08833 -0.787458 -2.52198e-19)
(1.36155 -0.122109 -1.182e-19)
(-1.68862 1.55753 -4.40841e-19)
(-0.902038 -0.840361 -6.52366e-19)
(1.11652 -0.490341 -5.64969e-19)
(1.146 -0.487727 4.73219e-19)
(2.6155 1.42022 -1.34896e-19)
(1.5602 -0.818078 -1.713e-19)
(2.46584 -0.706538 2.89581e-19)
(2.08244 2.51467 6.60818e-19)
(1.96659 0.240492 1.77231e-19)
(0.870553 -0.4274 0)
(1.98506 -0.083982 -5.79629e-19)
(1.57907 0.595305 -3.05681e-19)
(1.28018 -0.309237 1.32119e-20)
(1.7626 -0.80444 3.98465e-19)
(2.39488 0.0420727 -1.41767e-20)
(2.02077 0.0609141 -4.34255e-20)
(2.14062 0.206715 0)
(2.10826 -0.272531 1.8979e-19)
(1.87168 -0.60661 0)
(2.5594 -0.168196 3.51709e-19)
(1.63998 -0.754591 1.51728e-19)
(2.62926 -2.18936 -3.75105e-19)
(2.43739 0.366481 0)
(1.87599 -0.627633 6.74307e-20)
(1.99768 0.078116 0)
(0.0581052 0.167944 -3.32133e-19)
(0.802437 -0.307267 -1.86243e-19)
(1.64834 -0.662999 -4.34875e-19)
(1.65951 -0.918913 -5.26956e-20)
(1.48894 -0.693418 -2.9916e-19)
(-0.333328 0.24199 1.57896e-18)
(1.95505 -0.437238 -4.10804e-19)
(2.03187 -0.192485 -1.06013e-19)
(1.14206 0.200804 -4.98579e-19)
(1.81547 -0.185371 -3.27008e-19)
(-0.259397 -0.580371 -1.04129e-19)
(2.48519 -0.170304 -1.08698e-19)
(1.9638 -0.631976 -2.35973e-19)
(2.35382 -0.574525 0)
(-0.944922 0.137462 2.30847e-19)
(1.70334 -0.562809 -4.74354e-19)
(1.73778 -0.450228 -8.05867e-21)
(1.55352 -0.629964 -2.81386e-19)
(2.24021 0.536939 9.69614e-20)
(1.85811 -0.759494 3.70381e-19)
(2.68781 -0.0459344 0)
(1.9818 0.00303306 0)
(1.73768 -0.304743 -2.04948e-19)
(3.47492 0.0285938 -6.97357e-20)
(1.75292 -0.137235 4.52048e-19)
(0.26178 0.107616 0)
(1.87098 2.33019 0)
(3.28803 -1.63556 -8.32534e-19)
(1.76943 -0.560317 5.83817e-19)
(-0.316157 -0.521095 0)
(1.84169 -0.170154 0)
(2.79493 0.781369 5.44483e-19)
(1.54624 0.349297 0)
(1.89512 -0.439042 5.18941e-19)
(0.987142 -0.481708 7.69269e-19)
(-1.48129 1.49337 -6.92342e-19)
(1.78004 0.827967 0)
(1.51658 -0.220233 1.2592e-19)
(1.9574 -0.826712 0)
(1.70907 0.000312705 1.89057e-20)
(2.47865 -0.190971 1.21532e-20)
(-0.823498 0.845877 -1.0559e-18)
(3.81297 -0.973577 5.36265e-19)
(2.55885 -0.803016 0)
(1.97163 0.0351852 -6.22832e-21)
(1.73051 -0.547914 -8.6197e-20)
(-1.36056 -0.208634 -1.25545e-18)
(1.71118 0.37312 5.78791e-21)
(2.48292 0.558153 7.49805e-21)
(2.21313 0.0162992 4.77405e-21)
(1.55372 0.0429343 2.08974e-19)
(0.777088 -0.316661 -1.33312e-19)
(2.65555 0.100869 -1.79598e-20)
(1.18551 -0.545511 0)
(2.25156 -0.119254 0)
(1.26451 -0.615719 -4.16022e-19)
(1.95044 -0.146252 -1.66293e-19)
(1.74141 0.315623 3.07726e-19)
(1.62552 -0.249786 -1.27355e-19)
(2.10309 0.0971366 -1.50998e-19)
(2.08563 0.0111797 -1.92253e-19)
(0.608088 0.349557 -4.36696e-19)
(1.72021 -0.0133243 0)
(0.63322 -0.866058 -7.10876e-20)
(-0.698904 1.05007 1.78698e-19)
(1.98106 0.0710838 1.16576e-19)
(2.31898 -0.275595 -3.04518e-20)
(1.58915 -0.327535 0)
(2.12552 0.0538571 1.64283e-20)
(2.3104 -0.330432 1.56207e-19)
(-1.70413 1.23897 3.18566e-19)
(1.98156 -0.152598 0)
(0.383221 -0.0913079 0)
(1.97272 0.0250871 0)
(2.00889 -0.492196 0)
(1.71383 -0.68295 6.61756e-21)
(1.8295 0.438279 0)
(0.589733 -0.245206 -4.85585e-19)
(3.68878 -1.35401 -5.89302e-19)
(2.03967 0.00271117 -4.4213e-21)
(2.62351 0.0242704 -6.17389e-20)
(2.38806 -0.0348382 0)
(1.49528 1.52094 -1.4397e-19)
(-1.7868 -0.0315447 -3.00466e-18)
(2.97253 -0.322502 0)
(1.85401 0.0231809 3.22736e-19)
(3.39308 -1.9373 -2.78432e-18)
(2.26393 0.497326 0)
(2.2866 0.057708 0)
(1.02161 -0.233085 8.23345e-19)
(1.8189 0.483006 -3.92562e-19)
(2.29844 -0.150634 -1.99142e-19)
(1.0586 -0.50501 9.17114e-20)
(0.671471 -0.8256 -3.87719e-20)
(0.852793 -0.577838 0)
(2.32542 -0.132284 5.58255e-20)
(2.26958 0.806061 -5.60825e-20)
(1.86929 -0.788493 3.83585e-19)
(0.450092 -0.193603 7.34938e-19)
(-1.66485 -0.0656482 1.07725e-18)
(1.94728 0.0380807 -2.39394e-19)
(-1.52933 0.48602 2.8584e-18)
(1.59045 -0.773005 1.49192e-19)
(1.21973 -0.416298 -6.12907e-20)
(1.10302 -0.371583 -3.46576e-19)
(1.93198 0.0491618 -3.76759e-22)
(2.73305 0.762507 8.10475e-20)
(-2.32598 1.30559 1.25827e-18)
(-1.13051 0.382522 4.53325e-19)
(1.88246 -0.819092 0)
(2.00167 0.0161894 -2.36361e-21)
(0.222164 -0.327426 2.53344e-20)
(-0.310774 0.177144 -1.83711e-18)
(0.847917 -0.958446 0)
(1.44323 -0.402131 0)
(1.87981 0.0274843 -2.98344e-20)
(-1.76057 1.34708 8.43463e-19)
(1.86627 0.0901066 1.14995e-20)
(-0.0977392 0.171242 -8.29454e-19)
(1.50934 -0.374156 0)
(1.11726 -0.437168 2.34782e-21)
(0.0750647 -0.0955693 2.30055e-20)
(1.57316 -2.38051 -8.35481e-19)
(2.46678 -1.76066 0)
(2.24587 -0.720808 0)
(1.92156 -0.129342 0)
(-0.936375 -0.42982 -3.92074e-19)
(2.33053 -0.168704 1.38321e-19)
(-2.10612 1.42033 -1.32387e-18)
(2.40564 -0.160161 -1.53672e-19)
(1.98373 -0.535774 -1.23925e-20)
(0.876218 -0.474552 0)
(1.93806 0.0548498 0)
(2.19835 0.19874 -4.0226e-20)
(2.4794 -0.152955 8.73884e-20)
(1.86785 0.0149171 -2.77291e-19)
(0.986385 -1.60419 0)
(-0.674069 1.75218 6.67391e-19)
(1.04981 -0.0338235 -2.41266e-19)
(2.40335 0.375129 4.04312e-20)
(1.96157 -0.618381 3.98723e-19)
(1.11807 -0.195477 -5.02768e-20)
(2.53981 0.090169 0)
(2.44579 -0.202371 -1.01795e-19)
(1.98491 0.0831174 0)
(1.94329 -0.0372954 -1.46591e-19)
(2.16194 0.194383 3.20518e-20)
(2.52806 0.0582426 1.11238e-19)
(1.60148 -0.42045 5.4811e-19)
(1.9216 0.433174 2.1517e-19)
(0.224206 -0.286937 -4.05817e-20)
(1.78849 -0.723329 -2.33166e-19)
(2.61931 1.85452 -1.5814e-19)
(2.02092 0.00570853 0)
(1.81822 -0.440466 0)
(0.729986 -0.572921 0)
(2.27207 -0.29207 3.94262e-20)
(0.196726 -0.0423133 7.32487e-20)
(0.81726 -0.407035 4.52846e-19)
(1.85297 0.0133666 -3.3121e-20)
(2.54 -0.428777 -4.10062e-20)
(0.144104 0.0882966 6.51408e-19)
(1.99683 2.33915 -7.19197e-20)
(2.12412 0.0127284 -1.47878e-20)
(2.2446 -0.130273 5.48316e-19)
(0.855387 -0.358703 0)
(2.73153 -0.221937 -6.64888e-20)
(-0.563392 1.53195 -1.45212e-18)
(2.85123 -0.167763 -4.78723e-19)
(0.148393 0.154003 -3.99373e-22)
(1.6987 0.0906948 4.50395e-21)
(1.3349 -0.410977 3.79056e-19)
(2.24693 0.839198 0)
(2.01758 0.112536 -8.92938e-20)
(1.02773 -0.411749 -8.08343e-19)
(1.95645 0.174322 -9.64352e-21)
(1.26698 -0.614238 0)
(2.26041 -0.118298 -1.60814e-19)
(1.01969 -0.492645 2.55123e-19)
(2.28683 -0.716456 -1.21397e-19)
(1.71135 -0.711486 -3.29232e-19)
(2.25079 0.0437667 -3.47676e-20)
(2.38208 -0.371929 8.34508e-21)
(0.942139 -0.465849 5.01122e-19)
(2.17277 -0.0563709 2.23839e-19)
(1.80683 -0.372033 0)
(1.78399 -0.816735 -3.77064e-19)
(1.66578 -0.706006 -9.94188e-19)
(2.62378 -0.214267 2.34089e-20)
(1.9957 0.0030458 3.79658e-20)
(2.18798 1.31124 0)
(1.68555 0.136074 0)
(2.02259 -0.121779 -1.79572e-19)
(0.67929 0.42395 3.67656e-19)
(2.76033 1.30456 0)
(2.31095 -0.0647816 1.59956e-19)
(1.51199 -0.671813 -4.15089e-21)
(0.884839 0.379328 -5.864e-19)
(0.848561 -0.364196 -4.30772e-19)
(-1.15022 -0.35377 4.33903e-19)
(1.8223 0.0086729 2.07648e-20)
(-0.963394 -0.431006 1.18593e-18)
(2.4073 -0.70263 -2.46848e-19)
(2.18376 -0.0209979 0)
(1.38941 -0.0918974 -1.01825e-19)
(1.49051 -0.454638 0)
(1.95564 0.12053 -4.36233e-19)
(1.98937 -0.443697 0)
(2.19143 -0.0293698 -1.5424e-19)
(1.86838 0.196461 -3.04117e-21)
(2.89391 -0.0962078 -2.17888e-20)
(1.09242 -0.41229 4.57285e-19)
(2.00113 0.0640995 -3.55607e-19)
(2.01298 0.119098 -3.61542e-19)
(1.96652 -0.846464 0)
(-1.09619 -0.245757 0)
(1.17289 -0.453641 -4.51496e-19)
(2.80072 -0.200742 0)
(3.40136 0.323929 -8.97362e-19)
(1.41649 0.209316 0)
(1.50662 -0.444611 1.48592e-20)
(0.370392 -0.278313 4.10541e-20)
(1.74344 -0.577257 6.9372e-19)
(0.688053 -0.269478 -2.96481e-20)
(2.33484 -0.547452 0)
(1.89256 0.171063 5.26494e-21)
(1.80461 0.0178356 -2.32605e-19)
(0.45771 -0.251986 -3.06695e-21)
(1.95637 0.0556605 -2.04153e-19)
(2.50405 0.0025434 -6.68094e-20)
(2.57945 0.0976077 -3.12748e-20)
(3.17556 0.866155 3.54983e-19)
(2.46823 0.403292 -6.64492e-20)
(-1.50676 -0.055092 -5.24719e-19)
(1.69281 -0.50775 0)
(-0.0691902 -0.0486497 -1.13619e-20)
(1.96271 0.107031 -1.55331e-19)
(2.51629 -0.242851 0)
(2.04302 0.0274559 1.33476e-19)
(1.12451 -0.541727 -3.35899e-19)
(1.65038 1.305 1.29843e-19)
(3.96319 -0.231911 0)
(1.36375 -0.645403 1.21649e-19)
(2.19816 0.892669 0)
(2.2883 0.02784 3.2973e-20)
(2.15224 -0.19904 -1.09095e-19)
(-0.42917 -0.187061 1.04858e-18)
(1.02299 -0.068272 0)
(1.60799 0.309828 2.20425e-19)
(1.98778 0.0884276 1.42487e-19)
(0.478976 -0.337629 0)
(1.74532 0.00733779 0)
(2.02632 -0.172692 0)
(-0.0843864 0.0223102 1.16641e-19)
(0.335429 -0.0681125 -3.41455e-20)
(2.55528 -0.112547 0)
(2.03235 0.0210715 0)
(1.55894 -0.505943 6.41988e-20)
(-2.36575 1.11502 0)
(2.37708 0.35117 1.50985e-22)
(2.90199 1.18427 2.0089e-19)
(2.04231 0.130899 9.18645e-21)
(1.85999 0.396622 -5.4854e-21)
(0.888533 0.477762 6.74526e-19)
(2.94382 1.35379 -2.10465e-19)
(2.37939 -0.256796 7.11521e-21)
(2.07566 -0.0943466 1.52757e-19)
(1.62715 -0.150825 -2.4725e-19)
(1.77174 -1.00402 3.67934e-22)
(2.01498 0.0681039 0)
(-0.892748 -0.468482 -1.13639e-18)
(-0.78278 0.974607 0)
(1.32478 -0.556528 2.90274e-20)
(1.79403 -0.568827 0)
(2.35573 -0.304081 0)
(1.26941 -0.607961 -2.79532e-19)
(2.03206 0.0082038 -1.03756e-20)
(-0.285891 0.429033 -1.66451e-18)
(2.0294 0.0199925 7.98557e-21)
(1.79347 -0.695428 3.76297e-19)
(3.04642 1.09189 2.31007e-19)
(0.230074 0.117076 1.44644e-18)
(2.28708 0.0364447 2.15323e-20)
(2.06561 -0.83313 1.46222e-19)
(1.9747 0.089779 -2.42937e-19)
(3.78958 -0.33049 0)
(1.76809 -0.08719 -4.70048e-19)
(1.81575 -0.493647 3.86273e-19)
(1.97439 0.085024 -5.34594e-19)
(0.697011 -0.373687 -1.40656e-20)
(1.58134 1.31429 -1.29507e-19)
(2.87358 1.23598 3.03635e-19)
(2.89655 -0.616651 0)
(1.9481 -0.1056 0)
(0.843449 0.510999 -6.59802e-19)
(2.04868 -0.109662 9.78666e-20)
(0.798855 -0.608374 0)
(2.28388 -0.149444 -1.37986e-19)
(2.04368 0.0248284 -2.92412e-19)
(0.906272 -0.512324 -8.93565e-21)
(0.880659 -0.718096 5.08028e-20)
(2.67327 0.0646668 -7.51434e-21)
(1.38548 -2.26292 5.54623e-20)
(2.36964 -0.383143 -3.05053e-19)
(1.93258 -0.459084 2.70221e-19)
(3.33897 0.906492 7.9805e-19)
(1.51137 -0.619761 3.564e-19)
(1.97537 0.13327 -1.02729e-21)
(0.960978 0.314081 4.93407e-19)
(2.12742 2.10037 0)
(1.69815 -0.478396 2.23443e-19)
(0.462491 -0.921811 0)
(-2.02669 1.56664 -3.3732e-18)
(2.66165 -2.27272 0)
(0.196653 -0.165476 -1.36498e-19)
(1.60845 -0.684462 -5.0196e-19)
(2.20923 0.727015 -3.62528e-19)
(2.03465 -0.837603 0)
(1.33393 -0.676325 0)
(2.86419 -0.350462 0)
(1.97941 0.103481 1.10416e-19)
(3.07632 0.40252 -2.40876e-18)
(0.0395395 0.222776 1.32589e-18)
(1.56871 -0.297386 -7.65913e-21)
(3.49651 0.887156 -8.89325e-19)
(2.05817 0.290059 0)
(1.22764 2.03358 1.98172e-19)
(2.51173 1.29699 1.34573e-19)
(1.80764 1.11389 -4.2325e-19)
(1.51986 -0.711522 3.18713e-19)
(2.66802 -0.218895 2.45277e-21)
(1.14116 -0.55516 5.65988e-19)
(2.29334 0.436581 0)
(2.13398 -0.203614 1.0257e-19)
(1.24099 -0.393407 6.61561e-20)
(1.92577 -0.0314599 2.92975e-20)
(3.35973 0.538852 -4.70337e-19)
(1.80176 -0.565619 0)
(2.5877 0.759907 0)
(3.7476 -0.464699 0)
(0.0256517 0.179064 0)
(1.94619 -0.0230654 0)
(1.39639 -0.523487 1.52606e-19)
(3.69191 0.816571 6.0615e-19)
(1.43062 -0.59538 4.23259e-19)
(2.05448 0.0727796 2.38887e-19)
(0.230519 -0.816901 0)
(2.03288 -0.855253 2.88289e-21)
(-0.522524 0.172802 0)
(0.420941 -1.148 -1.15375e-19)
(-0.52953 0.305499 6.89961e-19)
(4.11378 0.368294 -3.5758e-19)
(2.00955 0.133499 2.64176e-19)
(2.07629 0.318857 -8.02579e-20)
(4.11676 -0.442199 -5.22752e-19)
(2.42708 -0.0119741 0)
(-1.0857 1.6847 1.21258e-18)
(1.98149 -0.0233363 0)
(1.52215 0.945739 1.60303e-20)
(2.51715 -0.118434 0)
(2.06194 0.185057 -1.03589e-19)
(2.05565 -0.12072 0)
(0.883022 -0.329837 -3.04043e-19)
(-2.23947 0.847397 1.78661e-18)
(2.13368 -0.119401 -1.0437e-19)
(1.34936 0.442658 4.4361e-19)
(-0.115075 0.0233116 -2.45879e-19)
(1.9714 -0.5657 0)
(0.997384 -0.208154 -1.16504e-18)
(1.91573 0.232538 3.74775e-21)
(3.77634 0.517989 -1.30569e-18)
(1.91719 -0.0137366 5.46667e-21)
(3.43599 -1.34301 1.45516e-18)
(3.37922 0.645682 0)
(1.75073 -0.788798 -8.10449e-20)
(1.4252 -0.650154 0)
(2.54915 -0.212083 1.29928e-20)
(0.43625 -0.117258 7.40479e-20)
(-0.30435 -0.961353 0)
(2.40948 0.348705 0)
(1.54309 -0.867645 -9.89027e-20)
(2.54756 0.681401 0)
(1.76422 1.82939 4.53112e-20)
(3.00159 0.886824 -3.57941e-19)
(-1.56423 1.25301 -1.01367e-18)
(0.924069 -0.613282 -1.75492e-20)
(2.01481 0.0278698 -5.85374e-21)
(0.909707 -0.475157 4.68258e-21)
(-2.2668 1.03848 -1.2058e-18)
(1.85269 0.000278517 4.97511e-19)
(0.830266 -0.47264 1.01508e-20)
(0.172935 -0.124755 0)
(2.48355 0.178066 -9.41182e-20)
(1.48094 -0.854073 1.09135e-19)
(0.378799 0.236259 7.98793e-20)
(3.56108 0.603406 9.47784e-19)
(2.8729 1.62654 0)
(1.80899 -0.526914 -3.88033e-19)
(1.57453 0.65154 -2.38117e-21)
(2.97661 0.682253 -1.01172e-19)
(2.54511 -0.0622521 -3.31428e-19)
(0.988779 -0.805676 1.57534e-20)
(-0.474688 -1.09148 8.61019e-19)
(1.44852 -0.582897 -1.0211e-19)
(0.791785 -0.68774 3.51455e-21)
(2.49849 -0.176359 -2.79313e-19)
(0.897459 -0.809027 -1.76557e-20)
(1.89808 -0.510157 0)
(1.87568 -0.143888 -4.55415e-19)
(-0.610617 1.07217 0)
(1.18714 -0.610875 -3.18019e-21)
(-0.570379 0.575208 2.16692e-19)
(0.0792648 0.0932137 1.052e-18)
(1.97287 0.212546 -2.58129e-21)
(-0.83752 0.25256 3.88516e-20)
(-0.130335 -0.132024 0)
(2.1653 -0.80231 3.91944e-19)
(2.13567 -0.840517 9.91755e-20)
(-0.358241 0.277756 -8.85381e-19)
(1.80856 0.520117 0)
(1.66512 0.529109 0)
(0.188242 0.35273 0)
(1.57538 -0.577924 -3.3354e-20)
(1.87097 -0.0154329 -4.40968e-19)
(1.32114 0.190551 0)
(1.74427 -1.02187 0)
(2.25244 0.180738 -8.63781e-21)
(2.33099 -2.08969 -2.07774e-20)
(2.129 0.223694 -3.0364e-19)
(1.61947 -0.380053 -1.64654e-20)
(1.76516 0.0116966 3.49927e-20)
(1.93803 -0.0206632 -3.40153e-20)
(1.92881 0.183456 -1.45478e-20)
(1.95746 0.540008 -2.47555e-20)
(1.88795 1.23317 0)
(-1.99733 0.894043 3.73933e-20)
(-1.07029 1.99888 0)
(0.990393 0.181491 0)
(2.87924 0.151885 -4.96777e-19)
(-0.0350523 -0.904947 0)
(2.47185 0.331268 0)
(1.90221 -0.109429 7.00256e-19)
(1.84747 -0.817076 0)
(2.03135 0.144494 3.75624e-19)
(3.34648 0.58331 4.67819e-19)
(3.25218 0.437955 1.63855e-19)
(1.98054 0.143277 1.02925e-21)
(1.13669 1.40524 2.40701e-19)
(2.18036 -0.838368 4.68305e-21)
(1.93392 -0.771041 -8.39995e-21)
(1.1485 -0.431528 4.40925e-19)
(0.986192 -0.525032 0)
(0.933704 -0.461084 0)
(-0.644084 -0.202393 -4.56649e-19)
(-2.04313 0.71324 -2.41673e-18)
(1.29422 -0.656864 0)
(0.942142 -0.504707 1.51581e-20)
(-1.98512 1.00427 0)
(-0.608035 1.22008 1.26499e-18)
(1.11068 -0.512621 -5.72129e-19)
(3.37558 0.319801 -2.23599e-20)
(3.1365 0.590379 3.75164e-19)
(1.20832 -0.394279 8.92794e-20)
(2.44786 -0.102522 1.39232e-19)
(2.41679 0.965891 0)
(2.55479 0.891792 0)
(1.04614 0.0412964 0)
(0.189257 -0.402589 -6.87401e-19)
(1.39529 -0.529729 0)
(2.31799 0.629769 0)
(1.96191 0.0250138 0)
(2.42169 -0.382779 -6.42855e-20)
(-1.71874 1.97524 4.48553e-19)
(2.01057 -0.780945 -2.08865e-19)
(1.52851 -0.581372 9.50302e-20)
(1.35493 0.145475 0)
(-0.31445 -1.1703 0)
(1.96699 -0.584168 -3.63703e-19)
(1.54928 0.613766 6.52335e-19)
(-1.16592 0.260137 -4.03051e-19)
(2.19597 0.255746 -6.80518e-21)
(1.72669 -0.45529 4.09527e-19)
(0.965315 0.514341 -1.05875e-18)
(-2.14618 0.761626 0)
(1.2228 1.39716 -5.60732e-19)
(0.374816 0.390557 -6.59256e-19)
(3.33056 0.312076 0)
(2.23377 -0.113186 0)
(1.68016 -0.0486386 0)
(2.06103 0.0495778 -4.31635e-19)
(1.42185 0.330421 -4.55615e-19)
(1.6437 0.142322 0)
(3.16586 1.40014 1.68357e-18)
(1.78788 -0.800916 3.79725e-19)
(2.44213 -0.357229 7.5716e-20)
(-0.0180448 -0.298519 8.42557e-20)
(2.04446 -0.288305 0)
(2.32643 0.0911268 6.03954e-20)
(1.75796 -0.406203 0)
(1.4273 -0.908601 -1.08552e-19)
(1.72713 -0.783169 0)
(2.1123 -0.769248 4.65742e-19)
(1.48229 -0.313757 -1.36904e-21)
(2.05837 0.121627 -1.08803e-20)
(2.45882 -0.373097 0)
(1.80994 -0.772732 0)
(1.5855 -0.672385 -5.23692e-19)
(2.36129 0.33801 -1.66751e-22)
(0.638943 -1.09775 4.86496e-20)
(0.851078 -0.407164 4.4689e-19)
(1.8905 -0.0446459 0)
(1.59524 0.235521 -6.88271e-19)
(2.27011 0.0339987 -3.53784e-20)
(1.57406 -0.613449 -4.30803e-20)
(2.05433 0.139576 -1.24346e-20)
(2.05828 0.169063 0)
(1.18264 -0.330002 6.26952e-19)
(0.939642 0.22666 -6.79534e-19)
(3.74049 0.574179 1.01882e-20)
(1.85769 0.219436 -7.69175e-19)
(0.146493 -0.367466 5.96513e-20)
(-0.820635 0.291673 -1.61448e-18)
(1.59723 -0.286655 -1.94618e-20)
(2.0584 -0.0373357 -4.05251e-20)
(1.45537 0.446443 1.46595e-18)
(-0.429441 0.297981 6.95522e-21)
(0.0629038 -0.514326 1.20156e-19)
(0.446355 -1.03721 1.19268e-19)
(1.79844 -0.0227301 4.10489e-20)
(2.38197 -0.209685 0)
(3.35721 0.0753179 2.408e-18)
(1.14248 -0.556672 2.56186e-19)
(1.68806 -0.239643 2.44073e-19)
(-0.435828 0.311513 0)
(1.62381 -0.383317 -6.55457e-20)
(1.9714 0.0418938 5.89654e-22)
(2.05801 0.0203553 0)
(-2.42532 1.27193 1.00171e-18)
(1.18294 -1.35183 3.19559e-20)
(1.47992 0.367778 0)
(1.01786 -0.372292 0)
(1.61172 -0.559824 -6.21048e-20)
(1.56152 -0.728651 -1.52273e-20)
(2.81856 0.155169 1.78016e-19)
(0.0387669 -0.385914 0)
(1.94386 -0.065807 -3.98671e-19)
(2.09169 -0.582067 -7.69048e-20)
(2.17922 -0.742572 2.71622e-20)
(1.20366 -0.454118 5.55115e-19)
(-0.014907 -0.695272 -1.43519e-19)
(0.193082 -1.16225 1.21785e-19)
(3.63248 0.575564 -8.82354e-21)
(2.18365 -1.70641 0)
(2.40946 0.928629 -1.34869e-18)
(1.58014 -0.622953 2.61872e-19)
(2.0965 2.05123 1.91173e-19)
(0.820308 0.659203 0)
(1.15872 -0.226516 -5.52423e-19)
(1.20724 -0.505238 -6.73874e-19)
(-0.497466 -0.507496 2.7105e-19)
(-1.47328 1.86921 -1.37394e-18)
(2.43608 1.59634 0)
(-0.174483 0.0880424 -8.40057e-19)
(2.36808 0.484129 0)
(-0.717774 2.0531 -9.70976e-19)
(-0.241569 -0.542819 1.48521e-18)
(-1.14046 1.01639 0)
(-0.280259 -0.711906 8.14544e-20)
(1.66481 -0.101742 -1.00561e-19)
(-1.24838 1.21751 5.59178e-19)
(1.67492 -0.656152 4.76204e-19)
(-0.874006 -0.015108 -8.91456e-19)
(1.17953 -0.537202 0)
(2.01589 0.0610219 1.3499e-19)
(0.935011 0.14282 0)
(2.25795 0.210958 -2.62297e-21)
(-0.412233 -0.492005 -1.4896e-18)
(0.546448 -0.209007 2.89285e-19)
(2.06422 0.181928 0)
(1.88652 -0.755536 -3.62686e-19)
(2.84279 -0.250485 1.35042e-19)
(-0.0591863 -1.11436 3.70939e-19)
(1.25942 -1.22936 0)
(-0.0522089 -1.02398 -3.29677e-19)
(3.53995 0.558226 -9.36075e-19)
(1.6568 0.216966 8.80655e-19)
(1.90148 -0.40019 0)
(2.16731 -0.0999217 2.59223e-19)
(-0.666356 0.0607174 1.02577e-18)
(-2.04692 1.85047 -2.64303e-19)
(2.20396 -0.581108 1.43576e-19)
(0.324805 -0.435266 0)
(1.75628 -0.307087 -3.39401e-20)
(1.98255 0.115801 4.54193e-22)
(2.51824 -0.367245 1.19369e-19)
(2.22419 0.0111655 0)
(-0.181796 -1.36045 3.37672e-19)
(1.66679 -0.450047 -5.46066e-22)
(1.28199 -0.366139 6.89449e-20)
(2.30062 0.366759 0)
(2.03695 -0.798245 -1.64626e-19)
(-0.667301 -0.308842 5.76127e-19)
(1.74014 -0.407167 -5.12025e-19)
(-0.0749355 0.271068 0)
(1.51037 -0.340527 -2.4013e-20)
(2.06063 -0.775765 1.34412e-19)
(-0.0516802 -0.378842 -1.39168e-19)
(1.34033 0.442205 0)
(-0.857937 0.731719 1.9517e-18)
(1.5925 -0.59337 0)
(-0.975709 -0.661945 1.00372e-18)
(1.59809 -0.828164 0)
(1.88665 -0.106823 -2.58165e-19)
(2.12207 -0.24118 -2.6726e-19)
(3.01629 1.30345 -8.45821e-19)
(1.58372 -0.498849 0)
(1.99187 -0.857098 -2.55846e-19)
(1.96132 0.0333659 0)
(2.38766 0.391571 0)
(2.06945 -0.85359 7.97775e-20)
(-0.661631 -0.961164 3.79082e-19)
(0.549024 -0.0413426 1.81598e-19)
(2.13298 -0.562368 -8.56666e-20)
(1.75419 0.311041 2.84429e-19)
(1.08074 -0.548582 7.18461e-21)
(2.11995 0.321709 1.4152e-19)
(-2.21091 0.843186 -2.1839e-19)
(2.11473 -2.2461 0)
(2.47494 0.247467 0)
(-2.04223 0.652069 0)
(1.11114 -0.822227 6.89635e-20)
(1.16884 -0.390278 -3.89452e-19)
(1.50736 0.150731 0)
(0.51371 -0.332257 6.44917e-20)
(2.28847 -0.152271 -1.87353e-19)
(0.391668 -0.399139 -3.90149e-20)
(1.38424 -0.49795 -1.27086e-19)
(2.15685 -0.861036 0)
(-1.59838 1.30196 1.70203e-18)
(-2.41629 1.24049 -2.29888e-18)
(-0.922245 1.00344 0)
(-0.771448 -0.108823 -1.0481e-18)
(1.96065 0.0231409 4.12056e-22)
(2.80774 -0.0219639 3.38991e-20)
(1.93622 0.0624697 2.615e-19)
(2.84808 1.01444 -3.88967e-19)
(2.4533 0.223621 8.52781e-21)
(-0.216571 1.02319 0)
(1.94169 -0.76793 0)
(0.47853 -0.270661 5.43233e-20)
(-0.915755 1.8474 0)
(1.61188 -0.341541 -6.63036e-20)
(2.15028 -0.775736 -2.48094e-19)
(0.978376 -0.457621 4.68847e-19)
(2.0126 -0.112136 -8.91606e-20)
(1.76512 0.338479 -2.82445e-19)
(1.53796 -0.610027 -2.57474e-19)
(1.62735 -0.641151 -4.78193e-19)
(1.57028 -0.660277 0)
(1.72524 -0.665731 4.54718e-19)
(1.9288 -0.0332214 0)
(2.50347 -0.397395 -5.3914e-21)
(2.01538 1.30359 8.53098e-21)
(1.3728 -0.327168 2.86799e-20)
(2.22208 -0.394506 -2.29052e-19)
(-0.534195 1.20412 -1.04451e-18)
(-2.21866 0.986909 0)
(1.54011 -1.14274 -4.59114e-20)
(0.779716 -1.98167 -7.35777e-19)
(2.03612 0.56205 -1.52242e-19)
(1.83381 -0.73498 4.23053e-19)
(2.0166 0.039651 -4.4268e-21)
(-1.39936 1.63937 4.6264e-19)
(1.79161 -0.753799 -9.72947e-20)
(0.332132 0.135246 0)
(0.462479 -0.464493 1.05725e-19)
(1.75156 -0.350765 2.70888e-19)
(1.98825 0.0356783 -1.67099e-22)
(1.17767 -0.509357 9.88681e-19)
(-0.179088 0.505676 -1.95485e-20)
(1.6924 0.615217 0)
(1.08383 -0.758824 -2.46998e-20)
(-0.197297 -1.27534 -3.59751e-20)
(1.07654 -0.317072 -7.42881e-19)
(1.19385 -0.752984 2.97205e-20)
(2.89358 0.822758 -3.86135e-19)
(2.11056 0.594643 6.5837e-23)
(0.940876 -0.377967 3.35968e-19)
(1.79026 -0.355334 0)
(2.55314 0.124542 -1.48284e-19)
(2.2784 -0.108374 -4.48661e-21)
(3.10825 0.78599 -3.82635e-19)
(0.451487 1.0885 0)
(3.43048 0.847024 3.84629e-20)
(-0.682029 2.00637 9.33448e-19)
(1.61955 -0.695625 1.01501e-18)
(0.383492 0.0781053 1.0767e-20)
(2.46742 0.723192 -1.19123e-18)
(-1.87167 1.54574 3.62131e-18)
(1.99373 -0.760232 4.25187e-19)
(2.09381 4.71731e-05 -4.20137e-21)
(0.577728 -0.177702 -7.15457e-21)
(2.61283 -0.0636976 3.81103e-20)
(-0.15103 -0.165435 0)
(2.01253 0.0376062 0)
(2.37489 0.381923 0)
(1.77269 -0.677942 -3.95776e-19)
(1.64479 -0.865403 1.08996e-19)
(-0.372578 0.0361261 0)
(1.23948 -0.35992 -1.61281e-19)
(-0.920705 0.204461 0)
(3.52907 -0.476255 0)
(-0.623155 0.645307 0)
(2.01224 0.069174 0)
(-1.03128 0.978421 -6.16026e-19)
(-2.22909 0.983502 0)
(3.06393 -1.65509 6.79388e-19)
(1.59789 0.0366931 0)
(1.97002 0.118268 0)
(1.94223 0.218219 1.63357e-21)
(-2.28809 0.856054 0)
(1.97919 -1.19328 0)
(-0.067831 -0.332139 0)
(2.2981 0.0493289 2.63584e-20)
(2.36757 0.801483 0)
(2.15847 -0.840214 -1.04461e-20)
(1.30385 -0.816235 -1.38903e-20)
(-1.9118 1.16541 -6.21492e-19)
(2.00668 0.0848179 6.19901e-19)
(-0.172033 -0.0579126 -1.56366e-20)
(1.07898 0.962007 -5.56402e-19)
(1.46972 0.773278 0)
(2.40071 -0.361266 8.69617e-21)
(1.6895 -0.189067 -2.3832e-19)
(1.60443 1.71109 1.29565e-19)
(1.85488 0.375154 3.93103e-19)
(0.764139 -0.267743 -7.03418e-19)
(1.51644 -0.661895 -3.97766e-19)
(2.71742 -2.11416 1.13145e-19)
(1.40757 -1.36364 0)
(2.35348 -0.49533 6.93017e-21)
(1.58438 -1.26537 5.41454e-20)
(2.59419 0.26048 -8.34706e-20)
(-1.0768 0.163346 0)
(1.85923 0.0786983 -2.91271e-19)
(3.1324 0.67015 -1.10493e-18)
(1.35202 -0.542624 5.12581e-19)
(1.23698 -0.560356 -6.18507e-19)
(1.66636 -0.768671 0)
(1.77505 -0.778523 0)
(2.69634 -1.70143 5.7424e-19)
(2.29327 -0.407115 -1.44235e-19)
(3.3074 0.167714 -6.18269e-19)
(1.83905 0.0287031 1.64192e-20)
(1.2225 -0.329537 -1.49645e-19)
(1.71617 -0.520377 4.34054e-19)
(2.42506 0.264086 0)
(2.38141 0.300024 2.75085e-20)
(-2.34056 1.62169 -3.00915e-18)
(1.84643 -1.41789 3.85182e-19)
(1.03655 -0.223625 -1.11922e-20)
(-0.395751 -0.509257 8.68941e-19)
(3.33093 0.175526 5.1631e-19)
(2.57603 0.73071 8.37182e-20)
(2.41384 0.452773 0)
(0.817979 -1.01989 0)
(2.22048 -0.844321 -2.63881e-21)
(1.16726 -0.249609 0)
(1.85279 -0.383037 1.80862e-19)
(1.70451 0.278252 4.96424e-19)
(1.67672 0.454432 -1.44168e-19)
(1.59847 -0.645624 1.03643e-18)
(1.99578 0.115225 -2.50655e-22)
(1.6578 -0.0243467 0)
(1.89342 -0.0303324 -5.19282e-21)
(-0.509914 0.451368 -8.37175e-19)
(2.14128 0.303741 0)
(2.59115 -0.395042 0)
(1.91689 -0.77616 1.55934e-19)
(1.98659 0.530194 2.0966e-19)
(1.09009 -0.169807 0)
(2.38865 -0.898568 7.55815e-21)
(2.55288 -0.0799679 1.65825e-19)
(2.35647 0.27782 1.51082e-20)
(1.76969 0.440049 4.24403e-19)
(0.91658 -0.685203 -2.86415e-20)
(1.56258 -0.483148 0)
(-0.209179 0.846687 -2.58175e-18)
(0.515232 -0.223623 1.04981e-18)
(2.01668 -0.0158126 1.59662e-20)
(-0.593075 1.61606 -1.07617e-18)
(1.80845 -0.746226 2.99239e-20)
(2.55101 0.273612 2.24241e-19)
(2.26285 -2.30389 0)
(1.97248 0.179762 2.77173e-21)
(1.82445 0.0230766 9.06643e-20)
(2.2255 -0.0315134 -1.60048e-19)
(2.17688 0.569951 -1.07437e-19)
(2.20485 -0.804467 0)
(0.958593 -0.593988 0)
(2.41996 -0.0111177 0)
(2.32821 0.380038 -4.55624e-20)
(1.05228 -0.489526 7.36136e-19)
(2.46644 1.75545 -1.09361e-19)
(1.48898 -0.0882354 0)
(-1.80251 0.583137 -3.08123e-19)
(1.00774 -0.890922 3.83666e-20)
(-1.43319 -0.323348 0)
(1.96115 0.263999 -1.28922e-19)
(1.68515 0.253903 -1.66939e-19)
(2.71084 -0.428368 -7.38959e-20)
(2.03518 0.12897 -8.44174e-21)
(0.666661 -0.230274 0)
(2.18409 0.191422 -1.45815e-19)
(2.01976 -0.428018 0)
(2.05864 -0.286408 9.18786e-21)
(0.975147 0.0808159 0)
(2.2855 0.828898 6.26507e-20)
(1.69663 -0.67595 -4.64745e-19)
(2.51691 0.782803 0)
(1.84374 -0.0690715 -4.47001e-19)
(2.05088 0.157585 1.22873e-20)
(1.71035 -0.321712 0)
(1.13516 -0.53945 0)
(0.52203 0.195932 -8.86658e-20)
(2.51338 -0.215304 -1.23976e-20)
(1.40977 -1.08997 -5.35566e-20)
(0.548343 -0.332006 -2.61477e-20)
(2.49559 -0.0819143 9.53691e-21)
(1.63477 0.106658 6.29253e-19)
(1.77293 0.368467 -1.83381e-21)
(2.02765 0.554478 0)
(3.43676 0.720785 5.06951e-19)
(1.71604 -0.782523 0)