/*--------------------------------*- C++ -*----------------------------------*\
| =========                 |                                                 |
| \\      /  F ield         | OpenFOAM: The Open Source CFD Toolbox           |
|  \\    /   O peration     | Version:  2306                                  |
|   \\  /    A nd           | Website:  www.openfoam.com                      |
|    \\/     M anipulation  |                                                 |
\*---------------------------------------------------------------------------*/
FoamFile
{
    version     2.0;
    format      ascii;
    arch        "LSB;label=32;scalar=64";
    class       volVectorField;
    location    "1.3";
    object      U;
}
// * * * * * * * * * * * * * * * * * * * * * * * * * * * * * * * * * * * * * //

dimensions      [0 1 -1 0 0 0 0];

internalField   nonuniform List<vector> 
13486
(
(1.55793 -0.309942 5.47717e-19)
(1.7148 0.169757 2.60233e-19)
(2.08954 0.0358793 0)
(1.11475 -0.62681 -2.12903e-19)
(2.51284 -0.486857 1.57179e-19)
(2.28097 0.070077 -9.87446e-21)
(2.81117 -0.271896 4.52159e-21)
(2.13535 -0.767856 -2.81023e-19)
(2.0233 -0.41661 0)
(2.05373 0.523131 0)
(1.76162 -0.81592 -1.28195e-19)
(2.25783 0.0633936 0)
(1.43756 -0.508586 -5.41988e-19)
(2.42397 0.387076 1.67265e-20)
(2.60205 -0.193199 8.45177e-20)
(2.01466 0.520519 -1.62697e-19)
(0.713029 -0.524087 1.34172e-19)
(1.45891 0.749672 5.13717e-21)
(2.2706 0.037392 3.0659e-21)
(1.70159 -0.144018 -5.56757e-19)
(1.3588 -0.866644 -7.81969e-20)
(1.45435 -0.520163 7.00088e-19)
(1.74232 0.165059 -2.07923e-19)
(1.95518 -0.343724 0)
(2.08 0.406535 5.4741e-20)
(1.95354 -0.309437 -2.66009e-20)
(0.964042 -0.472625 1.37866e-19)
(2.04374 -0.0613717 9.04578e-20)
(2.00803 0.0433376 0)
(1.97441 -0.117715 -3.95035e-20)
(1.15691 -0.739933 -5.38351e-20)
(2.54797 0.114931 -1.17673e-19)
(2.18657 -0.255871 9.82852e-20)
(2.00345 0.0107065 0)
(2.14278 -0.739673 0)
(2.00711 -0.0320788 -2.61717e-21)
(1.99796 0.0279753 4.62806e-20)
(1.66964 -0.781846 2.77001e-19)
(1.9299 0.01306 9.62625e-21)
(2.0136 -0.256268 2.8041e-19)
(2.74472 -0.87654 0)
(1.01569 -0.505551 -6.28294e-19)
(2.10502 0.0264713 0)
(2.07358 0.321064 -2.6242e-19)
(2.08956 0.321206 1.07863e-19)
(2.23083 0.0504243 1.11706e-19)
(2.01261 -1.49743 6.43099e-19)
(2.03061 -0.00814522 -6.70603e-21)
(2.01092 0.027564 -3.48679e-20)
(2.29565 -0.0346627 4.66417e-20)
(1.96894 0.0251368 3.33825e-19)
(1.95357 0.0261738 0)
(2.25169 0.165551 -1.68097e-19)
(1.76907 -0.666032 -4.04811e-19)
(1.37646 0.473289 0)
(2.48042 -0.495164 -1.09599e-19)
(2.02157 0.00595168 -1.89735e-20)
(1.9491 0.0207288 3.36623e-20)
(2.17661 -0.25683 1.09203e-19)
(1.95696 -0.0329477 0)
(1.75454 -0.773092 -1.30098e-19)
(2.041 0.0126341 0)
(2.5124 -0.651744 -2.01884e-19)
(1.32582 -0.863679 -1.00931e-21)
(1.64299 -0.318889 0)
(2.00453 0.0257048 2.25036e-20)
(1.1204 -0.599668 -1.91223e-19)
(1.52889 -0.0606327 1.85511e-19)
(2.03135 -0.441808 -1.59969e-19)
(1.99278 -0.0168325 -1.58774e-20)
(0.948852 -0.493619 2.19435e-19)
(1.42504 0.537663 3.16566e-21)
(2.00271 -0.155218 2.10412e-19)
(1.13197 0.356457 -1.48768e-18)
(1.99904 0.0247094 4.33064e-21)
(2.00479 0.0195611 4.61975e-21)
(2.01808 0.0590276 -1.66659e-20)
(2.62167 -0.217711 -3.42187e-20)
(1.85354 -1.35113 -2.42062e-19)
(1.85219 0.0500272 0)
(1.95933 0.0151959 4.84204e-21)
(1.68457 0.238997 -1.65677e-20)
(2.46489 -0.751012 -2.07309e-20)
(2.08683 0.0154625 -1.97344e-20)
(1.55095 -0.324061 -1.07287e-18)
(1.52031 1.37593 0)
(1.95771 0.119798 5.05849e-20)
(1.97437 0.0283168 -4.99061e-19)
(1.90552 0.142363 -2.14042e-19)
(1.95816 0.745439 -1.79085e-19)
(2.43856 0.267304 -7.14875e-20)
(2.26264 -0.63806 -1.45511e-19)
(1.61731 -0.398999 1.41416e-19)
(1.71809 0.00301818 1.44978e-20)
(1.96708 -0.623551 6.46996e-20)
(2.02748 0.0336929 2.04801e-21)
(1.10388 -0.537872 0)
(1.45541 -0.767564 8.32824e-20)
(2.02494 -0.244156 -5.35815e-19)
(0.999936 -0.749538 6.16739e-21)
(2.06154 0.0246648 0)
(2.39756 0.393206 2.40291e-21)
(1.47606 -0.766648 -2.92327e-21)
(1.96767 0.0100573 -3.88174e-20)
(1.47357 1.31244 0)
(1.05388 -0.87847 8.69301e-21)
(1.96182 0.0453519 2.46309e-21)
(1.9483 0.033681 2.07727e-20)
(1.90667 -1.4098 3.58864e-19)
(2.05827 -0.929177 0)
(1.50612 -0.718465 0)
(2.78926 0.0595955 -6.04757e-20)
(1.77589 -0.647578 3.00555e-21)
(2.03455 0.00372781 1.80331e-21)
(1.22545 -0.173409 0)
(1.44012 -0.70869 -2.41066e-19)
(2.08378 0.413734 0)
(2.01247 0.00518599 0)
(1.9841 -0.142393 0)
(2.00845 0.0237454 2.15904e-20)
(1.55535 0.695814 -2.81218e-20)
(1.74283 -0.782241 0)
(1.92897 -0.573191 0)
(1.94657 0.019336 -2.9124e-20)
(2.02495 -0.717225 0)
(1.97915 0.0335025 0)
(2.2678 -0.236793 6.14601e-21)
(2.1641 0.061677 1.21074e-19)
(2.00766 0.0297333 -2.10033e-21)
(1.64459 -0.24654 -1.01298e-20)
(1.95776 0.00703267 3.54742e-21)
(2.06029 -1.53701 -1.62557e-19)
(4.06858 -1.01128 1.56745e-18)
(-0.450355 0.800503 1.39722e-18)
(1.94678 0.0162809 -5.52971e-20)
(1.95922 0.29 -2.40016e-19)
(0.856665 0.544919 -1.61346e-19)
(2.06618 -0.916343 0)
(2.00591 0.0157256 -6.79555e-21)
(2.14607 -0.612154 -1.01614e-19)
(2.25113 -0.177931 -1.12966e-19)
(2.26027 0.18446 1.41828e-19)
(2.37989 0.137448 0)
(1.87364 0.0466331 0)
(2.09255 -0.0048931 7.98544e-21)
(2.18713 -0.629285 -2.10837e-19)
(2.06651 0.133083 -3.67373e-20)
(0.463562 1.32011 0)
(2.23045 -0.0901257 0)
(2.00397 -0.0462783 0)
(1.99034 0.0166861 5.45626e-21)
(2.6453 -0.33182 0)
(1.97718 0.016844 -5.08277e-21)
(1.6622 0.238151 -1.40976e-19)
(2.17924 0.186008 0)
(2.05933 0.0095674 0)
(1.90342 -0.867031 0)
(1.18573 -0.807269 1.01605e-20)
(1.87419 -0.754913 5.75962e-19)
(2.01732 0.0482007 6.40671e-20)
(2.22513 -0.0503005 2.00847e-20)
(1.87921 -0.734731 -8.7495e-19)
(2.5455 0.587094 2.47727e-20)
(0.907368 -0.436119 2.76368e-19)
(1.97646 0.0191025 0)
(2.49911 0.32873 -5.26895e-20)
(2.34493 0.372878 2.82521e-20)
(0.647286 -0.257907 -6.78714e-19)
(2.0562 0.115484 9.57974e-20)
(-0.568818 1.00806 3.89375e-19)
(4.08629 -1.06929 -1.23762e-20)
(2.15422 0.190215 9.44244e-20)
(2.00229 0.0134914 -4.02357e-19)
(2.3526 -0.10833 9.29789e-21)
(2.02205 -0.00397454 2.94041e-21)
(1.58099 -0.660725 0)
(2.52243 0.660719 8.87355e-20)
(2.27763 -0.241126 1.6554e-19)
(1.979 0.034111 -5.39021e-19)
(2.33171 0.125733 0)
(2.08429 -0.309827 5.65955e-19)
(2.02929 0.0066145 3.89162e-21)
(2.39584 -0.0224914 -5.1507e-21)
(0.863177 -0.426551 0)
(2.07282 0.0668981 5.65806e-20)
(2.0491 -0.0600056 -4.10158e-20)
(2.01061 0.000324099 -4.63374e-22)
(1.98366 -0.0816153 -1.12905e-20)
(2.74023 -0.837988 0)
(1.29144 -0.62271 -3.10273e-19)
(1.99971 0.0276439 0)
(2.00863 0.0258532 0)
(1.90657 0.00893218 0)
(1.436 0.641918 -2.99053e-19)
(1.89131 0.034641 0)
(1.75149 -0.826107 -3.52964e-20)
(1.65073 -0.276113 2.25852e-20)
(2.2592 -0.0233977 1.48643e-20)
(1.27838 -0.629569 -1.20425e-19)
(2.45608 0.310225 -1.96509e-20)
(1.15948 -0.685057 5.15291e-20)
(2.15314 0.0362725 -3.87818e-21)
(1.56917 -0.754502 -3.20391e-19)
(2.02889 -0.869449 3.15727e-20)
(1.98639 0.0596454 -7.74318e-20)
(1.95249 0.0015028 1.99412e-20)
(0.780824 0.641109 -7.22976e-20)
(1.90417 -0.0926963 4.25234e-19)
(1.97828 -0.0070675 0)
(2.10901 0.0461305 0)
(2.01326 -0.0324933 4.71781e-20)
(1.86637 -0.289952 3.54204e-20)
(1.71847 -0.116676 5.09497e-19)
(1.92121 0.0541432 4.52741e-22)
(2.27894 0.05419 1.13799e-20)
(1.84218 -0.0181044 -2.09226e-21)
(1.97579 -0.108903 0)
(1.95628 0.740468 4.56425e-19)
(1.69772 -0.419524 0)
(2.84027 -0.116991 0)
(0.775474 -0.652169 -2.68576e-19)
(2.29 -0.0707651 0)
(2.12642 -0.608053 2.3577e-19)
(2.24706 -0.0318327 0)
(2.19326 0.214514 -3.06355e-20)
(1.43554 -0.674631 1.95379e-19)
(2.38356 0.0730167 -1.54135e-21)
(1.38242 -0.596537 2.04601e-20)
(1.8771 -0.00595834 2.21111e-21)
(1.96078 0.119667 -2.82732e-21)
(2.08525 -0.307419 -1.822e-19)
(1.84233 -0.299908 2.37368e-19)
(2.2421 -0.199431 1.42318e-19)
(1.04668 -0.511214 2.15077e-19)
(1.4361 -0.768725 0)
(1.23829 -0.600725 2.31862e-20)
(1.96363 -0.000547926 1.84097e-20)
(2.02086 0.0328781 -1.37636e-20)
(1.09082 -0.527203 6.25481e-19)
(2.33639 0.00167911 0)
(2.1612 -0.272087 0)
(2.05251 0.00121141 6.16404e-19)
(2.0235 0.00577546 0)
(1.09472 -0.544889 2.09711e-19)
(1.95207 0.0624949 2.60357e-20)
(1.85854 0.0142916 0)
(2.28571 -0.0106578 -4.18275e-20)
(1.96162 -0.217697 8.44592e-20)
(-2.10231 1.56494 3.06654e-18)
(2.04512 0.326868 0)
(1.56713 -0.766733 -3.47535e-20)
(1.19121 -0.14829 7.9389e-20)
(1.23104 -0.601942 3.04434e-19)
(1.94074 0.0362443 0)
(1.88867 0.0169274 -9.33795e-21)
(1.61744 -0.668969 1.62077e-20)
(2.54023 0.120286 9.76824e-20)
(1.79323 -0.0333835 2.64457e-21)
(1.13742 -0.665479 -1.0718e-20)
(2.12929 -0.261382 6.6335e-20)
(1.81241 0.128208 0)
(1.96704 0.0380444 -1.03366e-21)
(2.60007 -0.19717 -2.00555e-19)
(1.61196 -0.670662 -2.02176e-20)
(2.41638 -0.756478 -1.62662e-19)
(1.03099 -0.506412 0)
(1.87991 -0.00349 1.00136e-20)
(1.25073 -0.749964 -7.8302e-20)
(2.07769 -0.0779165 -2.49967e-19)
(1.8743 0.386865 0)
(1.64887 0.70698 2.11059e-19)
(1.95919 0.0354955 -1.44459e-19)
(2.01812 -0.113288 0)
(2.19852 0.120238 9.5185e-20)
(1.37232 -0.658169 2.59312e-19)
(1.9514 -0.211904 -4.714e-20)
(1.90073 0.010115 0)
(1.45877 0.0322269 0)
(1.94906 0.0528699 2.13321e-20)
(2.08148 0.136549 7.06554e-20)
(1.4931 0.0171386 -2.03699e-20)
(2.14951 -0.181465 -2.06319e-19)
(1.89866 0.0671159 3.14575e-19)
(2.00422 -0.491467 -6.66764e-20)
(1.72159 -0.788439 1.56991e-19)
(1.41755 -0.764586 2.44202e-19)
(2.28447 -0.189663 1.40434e-19)
(1.95976 0.0239335 2.75476e-21)
(2.16671 0.185981 5.06736e-20)
(1.98529 -0.0352046 0)
(1.42302 -0.786038 0)
(2.00975 0.056035 -2.87817e-20)
(1.47252 -0.707317 2.37495e-19)
(1.99081 -0.0137495 -5.38366e-20)
(1.96509 -0.0543228 1.23951e-20)
(1.98374 -0.0402127 0)
(2.16392 -0.0526218 -3.22632e-20)
(2.21823 0.0869296 -8.14495e-20)
(1.96493 0.0416841 -2.88471e-19)
(2.82661 -0.475432 1.92849e-20)
(2.49047 0.614224 -2.78629e-20)
(0.876257 0.618672 8.94329e-21)
(2.0709 0.131119 -6.07498e-20)
(2.55578 0.0823704 1.13285e-19)
(1.99725 0.019268 -8.00607e-21)
(1.6891 -0.772353 0)
(0.716417 -0.230807 0)
(2.21954 -0.0309214 8.22829e-20)
(1.97319 0.117099 -3.96607e-20)
(1.99926 0.034359 0)
(2.78068 1.60311 -2.2378e-18)
(0.987562 -0.539788 0)
(2.42157 0.672309 -9.48284e-21)
(2.76675 0.0704767 -6.80328e-20)
(1.90176 -0.708536 0)
(1.93891 0.277545 -1.47831e-19)
(2.00379 0.034199 4.16819e-20)
(1.90939 0.107879 -1.81982e-20)
(1.92127 -0.0859367 -4.68925e-19)
(1.87866 -0.0317951 0)
(2.0092 0.0237834 -4.15516e-20)
(1.98986 0.0628539 7.04263e-22)
(1.97594 0.0308945 6.7778e-20)
(1.70128 0.0397186 -2.71257e-19)
(0.938641 0.513402 2.9529e-19)
(2.46341 0.250623 1.43146e-19)
(2.36782 -0.325381 -5.58822e-19)
(2.16721 -0.17263 0)
(2.14144 0.080312 1.81299e-21)
(2.41019 -0.326344 -9.90876e-20)
(2.00349 0.0297477 7.24724e-19)
(2.29652 -0.63977 0)
(2.43358 0.335092 -3.15425e-20)
(1.55519 0.238752 0)
(2.82138 -0.297293 -8.43204e-20)
(2.03493 -0.580574 -1.76368e-19)
(0.835433 -0.40021 2.56272e-19)
(2.61977 -0.365339 -1.30936e-19)
(2.06353 0.158149 0)
(1.97014 0.0565466 4.06228e-20)
(1.92687 -0.024025 -5.94288e-21)
(1.70088 0.0486351 2.56153e-19)
(2.42549 -0.326439 3.92209e-19)
(2.39009 -0.0141206 1.95188e-19)
(1.62679 -0.782813 -1.13372e-19)
(2.01418 -0.00543693 5.01327e-21)
(2.25574 -0.137276 0)
(1.2026 -0.462918 6.2016e-19)
(2.81312 -0.145321 0)
(1.98617 0.018287 -8.82376e-22)
(2.20787 -0.0542336 3.41858e-19)
(2.14441 0.113219 -8.92654e-20)
(2.23924 0.122471 7.88034e-20)
(1.05574 -0.514891 -1.57805e-19)
(1.91046 0.0543545 3.60229e-19)
(1.99227 0.000393544 0)
(1.5363 0.366563 -1.19809e-18)
(2.2715 -0.234187 -1.20305e-19)
(1.96724 0.106717 2.1826e-20)
(1.86554 -0.2659 3.29222e-20)
(2.25719 0.0158837 0)
(2.36273 0.293474 1.0622e-19)
(1.82742 0.0814919 5.48242e-19)
(1.99267 0.0761881 4.39711e-19)
(1.9803 -0.124103 0)
(2.02015 -0.0100012 -3.5073e-22)
(1.99147 -0.0637013 -1.72906e-20)
(2.28022 -1.67406 1.22632e-19)
(1.68541 -0.147836 7.0695e-20)
(2.25588 -0.19613 1.14358e-19)
(2.01394 0.0168167 -5.4082e-21)
(2.27373 -0.166602 0)
(2.15623 0.185233 -1.19791e-19)
(1.588 -0.767898 3.36105e-20)
(2.32014 0.168932 -1.19305e-20)
(2.07056 0.0169527 2.84864e-19)
(1.49219 0.013379 0)
(1.98614 0.0464793 5.00031e-20)
(1.90958 -0.688432 0)
(3.47038 0.0419279 -3.20206e-19)
(2.02259 0.00997725 0)
(2.29999 -0.744711 -6.26112e-21)
(1.45669 -0.22396 -1.51072e-19)
(1.64842 0.647908 5.03559e-19)
(2.21312 -1.62005 -4.56164e-19)
(1.87414 0.024602 0)
(2.23709 0.0316932 -9.40648e-20)
(2.07116 0.156931 -1.63208e-19)
(-0.945342 -0.0810229 -4.03289e-19)
(1.10125 -0.903557 1.27859e-20)
(1.71884 -0.126886 -7.69411e-19)
(2.02394 -0.118855 2.32032e-20)
(2.10609 0.142801 1.1666e-19)
(1.60541 -0.53382 0)
(1.49103 0.17325 2.92555e-19)
(2.00924 0.00773403 1.94881e-20)
(1.04594 -0.568489 1.22014e-19)
(1.57902 -0.767704 -1.17091e-19)
(-0.24553 -0.439435 -3.89916e-19)
(2.25749 -0.198228 0)
(-0.640549 -0.371746 0)
(2.14095 0.863062 0)
(2.07581 -0.0656806 0)
(0.897709 -0.307318 -1.09261e-19)
(2.79966 -0.240036 0)
(2.01994 0.179426 0)
(1.73443 0.019748 1.05374e-19)
(2.25981 -0.229807 -1.71011e-19)
(2.26225 -0.134682 -2.78532e-19)
(1.77518 0.22196 8.84e-19)
(2.00793 0.034917 -8.71427e-20)
(2.58111 1.34913 0)
(2.06141 -0.122631 0)
(1.91179 0.045327 3.08343e-19)
(2.00037 0.00806937 5.6249e-20)
(1.45366 0.683489 0)
(0.843776 -0.427294 1.17148e-19)
(2.39547 -0.776403 1.83178e-19)
(3.68791 -1.53588 0)
(2.35269 -0.0033169 1.92386e-19)
(1.97692 0.0399421 -3.60036e-19)
(3.12413 -0.0880891 5.07053e-19)
(1.19548 -0.447594 0)
(1.9725 0.168271 3.03329e-19)
(2.32719 0.0148583 0)
(2.01495 -0.0627088 0)
(2.14847 0.119816 -1.70769e-20)
(1.93992 0.0502891 1.66172e-19)
(1.07989 -0.527972 -1.78208e-19)
(2.31088 0.377612 2.15895e-20)
(1.48946 -0.434841 -2.68377e-19)
(2.10704 -0.0535029 3.62458e-20)
(2.08918 0.135845 9.2048e-20)
(2.12507 0.178932 3.17221e-19)
(2.50521 -0.747393 0)
(2.0063 -0.231815 4.58641e-20)
(1.45274 -0.161065 0)
(2.00579 0.0688946 -2.72402e-20)
(2.36663 -0.11832 0)
(1.5538 -0.0470134 3.92703e-19)
(1.55613 -2.1594 -6.96571e-19)
(2.00974 -0.105226 0)
(-0.0740628 0.0737363 5.64173e-20)
(2.03951 -0.122618 -5.87943e-20)
(1.99054 0.109229 6.12134e-20)
(1.85857 -0.313097 7.34696e-19)
(1.54663 0.625443 -3.22866e-19)
(1.47924 -0.422611 -7.62642e-19)
(3.42489 0.0110245 0)
(1.99695 0.018469 -2.07071e-20)
(1.649 -0.790489 -2.66129e-19)
(2.03148 0.168546 0)
(1.90944 0.137129 1.98126e-20)
(2.2151 -0.0395723 -9.29077e-21)
(2.80694 0.546021 0)
(1.97555 0.0281505 0)
(0.829759 -0.419263 0)
(1.58303 -0.645203 6.62875e-20)
(1.96536 -0.501348 7.97436e-20)
(2.18153 -0.584243 4.98525e-21)
(2.37595 0.640475 0)
(1.79876 -0.228989 4.98503e-19)
(1.98618 -0.0185337 -4.41272e-21)
(2.27275 0.32783 -4.67943e-20)
(1.38968 -0.860258 1.894e-19)
(1.93258 0.120213 0)
(2.01483 0.022282 0)
(0.939054 -0.248352 -4.24222e-19)
(1.58027 -0.526898 -1.87631e-19)
(2.00115 -0.208661 0)
(1.5711 -0.758125 -2.23131e-19)
(2.02418 0.0138643 3.33986e-21)
(1.98726 0.00594074 -4.23228e-21)
(0.940387 -0.448676 0)
(1.91688 0.00753676 -8.90259e-21)
(2.00168 0.0247307 -2.03198e-20)
(2.29834 -0.00409474 2.13909e-20)
(2.02034 -0.601048 0)
(1.42793 -0.795249 -3.6898e-19)
(2.14317 0.108717 8.88596e-20)
(1.9986 0.110344 6.36983e-20)
(2.02193 0.0398912 -1.17745e-20)
(2.52793 0.271276 0)
(1.75329 0.198466 -2.35518e-19)
(2.59676 -0.190348 -1.25724e-19)
(0.113233 -0.470043 4.87353e-20)
(2.02034 0.0548839 0)
(1.16859 -0.883508 -1.29888e-20)
(0.701129 -0.232995 0)
(2.05161 0.0466272 -2.46773e-19)
(2.009 0.068735 1.0913e-19)
(1.87244 0.0276425 -5.98484e-20)
(1.59578 -0.669423 0)
(2.05217 0.0285643 -3.9869e-20)
(1.25337 0.301493 8.08607e-19)
(2.47238 -0.740662 0)
(1.70314 0.00387567 3.29775e-19)
(2.78504 -0.497272 -2.18353e-20)
(2.08163 0.00116278 0)
(1.26361 -0.721952 3.26114e-20)
(1.85899 0.066807 3.12883e-20)
(1.9662 -0.0306104 0)
(1.29869 -0.997926 2.60962e-19)
(1.87509 0.135207 0)
(1.90172 -0.863344 2.33364e-19)
(1.5732 -0.759112 6.53184e-20)
(2.01844 -0.0124931 5.71118e-22)
(2.26523 0.00141847 1.17433e-20)
(1.48149 0.160763 1.55096e-19)
(1.85988 -0.34372 -2.71402e-19)
(1.91938 0.00652844 6.58687e-21)
(1.92273 -0.860503 2.57367e-21)
(2.24901 -0.207808 1.11681e-19)
(2.52619 0.286642 1.12824e-19)
(2.14433 -0.947264 0)
(1.96415 0.0351854 -2.52421e-19)
(3.84114 -1.50281 -6.90261e-19)
(1.47881 -0.169577 0)
(2.01311 0.0193991 7.25865e-21)
(1.95102 -0.00334544 0)
(1.388 -0.455954 6.58152e-19)
(2.26379 -0.819711 0)
(2.04647 -0.0279561 4.32609e-21)
(2.25597 -0.0704582 -1.95853e-19)
(1.29232 -0.648747 5.26717e-20)
(0.940811 -0.47622 1.23472e-19)
(2.24486 0.0139442 -1.76441e-21)
(1.61253 -0.765761 1.88542e-19)
(1.91465 -0.5684 2.59535e-19)
(1.6148 -0.406185 0)
(0.830947 -0.415987 -8.17906e-20)
(2.53089 -0.670466 -3.85321e-20)
(0.904105 -0.435423 -9.64997e-20)
(1.96768 -0.0311537 3.12284e-21)
(1.60513 -0.639967 0)
(2.14411 -0.0121321 -1.48e-21)
(0.943561 -0.456322 0)
(1.4886 -0.768003 -3.24089e-21)
(3.14662 0.358165 -6.10079e-19)
(0.96339 -0.400594 0)
(2.20958 -0.557923 7.50257e-20)
(1.61942 -0.312116 0)
(2.79931 0.482746 0)
(1.7159 -0.807184 -3.07838e-19)
(1.57762 0.214163 2.36364e-19)
(1.81244 0.130397 0)
(1.83877 0.11092 -1.50284e-19)
(2.21566 -0.639308 2.45065e-19)
(1.60753 -0.771011 1.50126e-19)
(2.94992 0.857705 0)
(2.09007 0.014502 0)
(1.66836 -0.797429 -1.16247e-19)
(1.92838 -0.156376 0)
(2.06574 0.00667543 0)
(1.7489 -0.76106 -5.69694e-22)
(2.17267 -0.397866 -3.64149e-19)
(1.86709 -0.47761 2.24783e-19)
(2.11259 -0.282701 9.45003e-21)
(0.752114 -0.368698 1.72988e-19)
(1.97708 0.0676452 1.25335e-19)
(1.65021 -0.432717 0)
(2.18099 0.30793 -4.26782e-20)
(1.54411 -0.290884 0)
(2.09886 -0.00438236 0)
(2.00678 0.147828 0)
(2.1817 0.104717 -1.38241e-20)
(1.90795 -0.0897269 2.17892e-19)
(2.02793 -0.00475153 -1.07089e-20)
(1.692 -0.437668 0)
(0.915807 -0.447772 -1.29455e-19)
(2.16212 0.815616 5.12256e-20)
(2.02513 -0.731688 2.44717e-20)
(1.98779 0.00549474 -8.04583e-23)
(1.94109 -0.195737 7.1361e-20)
(1.97872 0.0254292 -2.09763e-19)
(1.62392 -2.28115 0)
(2.14748 0.0908406 0)
(1.56968 0.651722 0)
(1.39311 -0.636148 -4.73973e-19)
(1.35246 -0.354164 -1.6631e-20)
(1.30146 -0.224148 0)
(2.20084 0.305139 0)
(2.21919 0.238188 1.15778e-19)
(2.05997 0.00319311 -5.83772e-20)
(1.96072 0.441107 2.40841e-19)
(2.03119 -0.862036 0)
(1.69279 -0.823256 -5.03298e-20)
(2.25128 0.0436965 4.38796e-20)
(1.54752 -0.493577 -4.4907e-19)
(2.1869 0.0234229 -8.41532e-20)
(2.28007 0.341138 8.35747e-20)
(1.79913 -0.408667 3.329e-20)
(1.3906 -0.639418 8.2721e-19)
(1.74375 -0.109569 -9.58347e-22)
(2.03608 0.0105035 4.27671e-21)
(1.9934 -0.00192172 -6.35073e-20)
(1.43027 -0.670514 -6.99722e-20)
(1.87721 0.0564211 -1.51379e-20)
(1.79517 1.7864 -7.40143e-21)
(1.58068 -0.753748 1.15437e-19)
(2.07796 0.0958009 0)
(1.99397 0.122344 -1.34729e-20)
(2.06007 -0.0483163 -2.4399e-19)
(2.7463 0.114751 9.27821e-20)
(1.51793 -0.462403 -4.09248e-19)
(2.00584 -0.702809 -2.66882e-19)
(2.07272 -0.0359421 5.64568e-19)
(2.297 -0.0217922 -3.22277e-19)
(2.03952 0.268627 -8.01561e-20)
(2.30135 -0.20343 -7.01662e-20)
(1.30884 -0.2675 -8.94038e-19)
(2.04859 0.0733827 -1.97159e-19)
(1.29893 -0.331949 0)
(1.36958 -0.607687 -9.11083e-20)
(1.9454 0.00307825 5.26639e-19)
(1.96164 0.0273775 -1.64699e-21)
(0.940646 0.281939 0)
(1.86145 -0.851874 0)
(2.06463 0.305924 2.14953e-19)
(1.18933 -0.268338 5.56457e-19)
(1.64365 -0.423705 -4.47224e-20)
(2.32533 -0.735558 -1.24325e-19)
(2.37837 -0.335333 3.04585e-19)
(2.81833 -0.176619 0)
(2.07147 0.329839 1.15084e-19)
(1.12297 0.831883 9.74003e-21)
(2.56902 0.637138 1.00606e-19)
(2.0651 -0.292836 -3.21859e-19)
(0.935673 -0.462206 -2.7968e-19)
(1.95568 -0.181336 -7.10212e-20)
(1.97645 -0.228669 2.57325e-20)
(2.39115 0.862223 0)
(1.92436 -0.0395554 -2.09534e-21)
(1.92748 -0.025566 5.53261e-20)
(1.99147 -0.00876797 5.15437e-21)
(0.941138 -0.459004 7.57371e-19)
(2.0391 -0.292269 4.81875e-19)
(2.02688 0.0647115 -2.9611e-20)
(1.59508 -0.76826 -9.10518e-20)
(1.9446 -0.012821 -2.41403e-20)
(2.07181 0.0121901 1.76209e-19)
(1.72544 -0.796698 -2.04849e-20)
(2.47223 0.624883 -7.87724e-20)
(1.2091 -0.892939 -2.83073e-19)
(1.12908 -0.55046 -2.52542e-19)
(2.01521 0.00672155 0)
(2.01062 0.0283045 -1.70295e-20)
(1.68219 -0.732385 -4.85806e-20)
(1.45081 -0.249454 8.13625e-19)
(1.96642 -0.0163111 0)
(2.41437 0.596879 3.28696e-20)
(1.35416 -0.58392 1.87265e-19)
(1.92434 -0.00725497 -5.42147e-19)
(1.33303 -0.663421 -1.10767e-19)
(1.83952 0.0958387 1.20788e-20)
(2.22135 -0.14887 1.89587e-19)
(2.22768 0.0336645 1.41304e-19)
(1.92862 -0.875532 -3.22484e-19)
(2.03182 0.0184202 1.50342e-20)
(1.42383 -0.382139 -5.47605e-20)
(2.00543 -0.0510222 2.28955e-19)
(2.03916 -0.0463453 -1.59313e-19)
(2.13136 0.0648211 -2.9044e-21)
(2.13069 -0.0332769 -3.49292e-19)
(1.30025 -0.592168 -3.6179e-19)
(2.02938 0.00625558 0)
(1.51865 -0.661524 5.60219e-20)
(2.0224 0.0362393 4.05192e-20)
(3.12972 -0.177155 3.91794e-19)
(2.21594 0.021423 2.47616e-20)
(2.31613 -0.377975 -1.88102e-19)
(1.99827 -0.00435456 -4.24526e-19)
(2.0987 0.210745 6.63136e-20)
(0.758443 -0.381539 -1.20299e-19)
(2.07879 0.0182559 0)
(1.9848 0.0455402 -2.54796e-20)
(2.15281 0.10565 9.1382e-20)
(1.61166 -0.62502 0)
(2.12938 0.0555506 1.34617e-19)
(2.09436 0.101287 1.13389e-19)
(2.12747 0.0364081 9.97576e-24)
(2.79314 -0.874325 3.79098e-20)
(1.95623 0.0287973 0)
(1.84099 0.250731 4.25665e-19)
(2.04192 0.0377916 3.28908e-20)
(1.54416 -0.742174 2.5852e-19)
(2.06795 -0.192831 0)
(1.57615 0.182132 -6.83544e-19)
(1.72036 0.673474 -4.03411e-20)
(2.72169 1.07725 -3.25165e-19)
(1.31911 -0.289711 8.67825e-19)
(2.03746 -0.0468541 1.39794e-20)
(0.982473 -0.498834 9.64085e-20)
(1.96618 -0.116836 -3.3947e-19)
(2.03911 -0.210769 -7.33041e-20)
(1.82849 0.0722227 -3.15173e-19)
(1.99844 -0.0500857 0)
(2.0161 0.00433454 -2.38173e-19)
(0.1311 -0.232175 5.16593e-19)
(0.464583 1.34528 0)
(1.89829 -0.302099 0)
(2.02872 -0.00517093 0)
(0.39087 -0.440968 0)
(2.04275 0.251058 0)
(1.25395 -0.261294 0)
(1.84669 -0.0408784 -1.73395e-21)
(2.14424 -0.5344 -1.0672e-19)
(2.3907 0.0589286 0)
(1.81648 0.238566 6.43479e-19)
(1.82734 0.337259 1.18679e-19)
(2.07644 0.161617 4.6831e-21)
(1.70062 -0.739519 -2.72316e-20)
(1.25369 -0.0539364 -1.86501e-21)
(0.935174 -0.469318 1.01031e-19)
(2.15334 -0.000360214 -1.30033e-19)
(2.24146 -0.030054 7.1569e-21)
(2.06791 0.21062 -1.51414e-19)
(1.87592 0.142366 -4.2722e-19)
(2.09423 0.757116 -1.53387e-19)
(3.3772 0.120227 0)
(1.28391 -0.905201 3.79901e-20)
(1.40661 -0.468192 -7.21572e-19)
(2.01718 -0.00950953 -7.34783e-19)
(2.54422 -0.677866 -1.96401e-19)
(2.04734 0.0227902 5.51579e-20)
(2.97243 -0.592783 -5.91082e-20)
(2.23129 -0.287444 -4.14488e-20)
(2.22326 -0.539541 -2.60118e-19)
(2.01584 0.152524 1.69934e-19)
(3.52386 1.43797 0)
(1.90982 -0.00215872 6.98855e-21)
(1.74274 -0.000905628 -9.77831e-20)
(2.82936 -0.184267 0)
(1.97782 0.0374573 0)
(2.01142 -0.912618 -3.6002e-21)
(1.20622 -0.611311 1.02257e-19)
(1.82484 -0.0633722 4.84474e-21)
(1.97002 0.0253595 0)
(1.92016 -0.0959215 -4.45666e-19)
(1.82606 0.161694 -8.24924e-20)
(1.46937 -0.670881 3.56501e-20)
(2.13928 0.0355072 5.3417e-20)
(0.929384 -0.462524 0)
(1.32469 -0.902681 4.08048e-20)
(2.15408 0.0656538 0)
(1.90027 -0.0496102 -1.74065e-21)
(2.38505 0.297643 -8.22003e-20)
(1.95733 0.0259412 -1.60731e-22)
(2.3693 0.380248 -4.83734e-20)
(2.86139 0.730847 -3.95842e-20)
(1.87034 -0.548863 5.38961e-19)
(0.720929 -0.702617 0)
(1.59873 -0.217237 -1.24979e-20)
(1.68057 0.188495 0)
(2.40353 0.0292048 -2.12729e-20)
(1.46907 -0.69154 8.16927e-20)
(1.8858 -0.30218 4.51522e-20)
(1.98975 0.0366055 2.39923e-20)
(1.64551 -0.669845 -1.0323e-19)
(1.33596 -0.652635 -2.98708e-19)
(1.44652 -0.471496 -4.17547e-19)
(2.00612 0.0103704 -6.88707e-21)
(1.61747 -0.198676 1.0386e-20)
(1.3391 -0.60578 2.97663e-19)
(1.50152 -0.492272 4.59349e-19)
(1.33451 -0.359253 3.22259e-20)
(1.67392 -0.247636 -1.07008e-20)
(1.9838 -0.623405 2.66768e-19)
(2.20265 -1.97872 5.95735e-19)
(2.0017 0.00352372 8.98863e-21)
(1.81744 0.326522 -1.01837e-19)
(2.28561 0.224262 -4.0014e-20)
(2.45396 -0.532019 0)
(0.152926 -0.328692 -4.99068e-19)
(2.06446 -0.0590558 -2.88558e-19)
(2.00492 0.180003 0)
(2.38564 0.0401383 0)
(1.48369 -0.059129 1.35057e-20)
(2.03628 -0.320553 -8.31541e-20)
(2.30568 0.064946 -4.70719e-20)
(2.16718 -0.389919 4.772e-19)
(2.06599 0.721236 1.42123e-19)
(1.77349 0.125147 3.70698e-19)
(1.49962 -0.68896 2.01072e-21)
(1.86271 0.460989 0)
(1.53182 -0.520246 4.40339e-19)
(1.81386 -0.96556 4.84968e-20)
(1.6377 -0.671015 7.83505e-20)
(1.86936 -0.720104 8.88048e-20)
(1.80271 -0.807428 -3.7046e-20)
(2.07555 0.101349 1.6905e-19)
(1.96665 0.0417269 -1.11845e-20)
(1.96209 -0.0951098 4.27779e-20)
(1.51609 -0.695632 -5.40055e-20)
(2.27817 0.0928394 3.73354e-20)
(1.93011 0.0728116 1.80357e-19)
(1.29338 -0.321126 -3.56835e-19)
(1.93124 -0.12867 2.77293e-19)
(2.02996 0.275146 0)
(2.32326 0.176295 3.38803e-20)
(1.98519 0.0433127 4.07569e-20)
(1.60021 -0.379868 -1.4098e-19)
(2.05375 1.55156 4.37743e-20)
(1.95149 -0.612496 1.98966e-19)
(2.00172 0.0254393 7.88094e-20)
(1.47563 0.0288537 -5.31873e-19)
(2.79922 -0.205412 0)
(1.97435 0.0414375 4.73293e-20)
(2.18314 0.014019 1.14538e-19)
(1.90719 -0.003887 0)
(1.49362 -0.0684975 3.03551e-19)
(2.10981 0.0577606 0)
(1.92824 1.5827 1.01342e-19)
(2.27597 -0.0767638 0)
(1.90846 0.0121898 0)
(2.23251 0.0799847 5.7456e-20)
(2.27009 0.0661947 3.96422e-20)
(2.3955 -0.144617 -1.5102e-19)
(1.92744 0.123041 -1.95328e-19)
(1.71505 0.959781 -1.31376e-19)
(2.02643 0.0905516 -7.65282e-20)
(2.08611 0.23133 0)
(2.1437 -1.01184 -5.19738e-20)
(2.28238 0.084009 -6.16586e-21)
(1.89753 -0.0217018 2.85346e-21)
(2.4515 -0.52287 0)
(2.75919 0.104695 1.41855e-19)
(2.39495 1.39628 1.69547e-20)
(1.99339 -0.00866054 4.30084e-20)
(1.73378 -0.562966 0)
(1.76148 -0.748912 1.00485e-19)
(2.05743 0.15913 0)
(1.97864 -0.0728288 -2.18698e-20)
(-1.64134 1.44801 0)
(2.36344 -0.890889 0)
(1.75137 -0.0984132 0)
(2.2145 -0.815305 0)
(1.74109 -0.843985 -2.38719e-20)
(1.56941 -0.632251 -1.46476e-20)
(1.89669 -0.0820105 -3.26969e-19)
(1.31436 -0.662728 -6.34444e-20)
(1.4155 -0.627107 0)
(1.37483 -0.566632 -3.0958e-20)
(-1.68372 1.30871 -3.00626e-18)
(1.69445 -0.792627 0)
(1.61107 -0.590029 -4.70172e-19)
(2.02482 0.0131906 7.04509e-21)
(2.2687 0.210621 9.7713e-20)
(2.68813 -0.854046 1.98271e-20)
(1.87899 0.115128 0)
(2.40936 -0.727695 0)
(2.51712 -0.435897 8.30351e-20)
(1.93378 0.0291547 -3.65711e-21)
(2.00634 0.0259348 1.62776e-20)
(1.48239 -0.049772 2.17128e-21)
(1.99039 0.0162376 1.78313e-20)
(2.06292 -0.00225845 -1.55368e-21)
(2.0473 0.168991 2.43132e-19)
(1.98115 0.0380545 -2.49015e-20)
(2.02824 -0.558986 0)
(1.43993 -0.705365 0)
(2.02947 -0.000390228 0)
(1.99777 0.00425252 0)
(1.84656 -0.370812 1.99014e-19)
(2.23438 -0.123876 0)
(1.75383 -0.804449 2.41338e-19)
(1.76648 -0.420456 -2.48022e-21)
(1.47305 -0.509258 -6.90218e-19)
(1.84228 0.371778 -5.72619e-20)
(1.52175 -0.635445 -3.19417e-20)
(1.80095 -0.823972 -1.29572e-19)
(1.95512 0.00367026 6.1841e-20)
(1.55619 -0.704355 -5.08259e-20)
(1.97058 0.00641647 -4.14172e-20)
(2.22327 0.0331806 0)
(2.51056 -0.248981 0)
(1.91562 0.211525 0)
(2.31997 -0.395972 9.92634e-20)
(1.66154 -0.305121 0)
(1.8928 0.471238 0)
(1.98271 0.00563217 0)
(1.87871 -0.479801 2.095e-19)
(2.08911 0.161896 -2.33753e-19)
(2.01641 0.0197742 0)
(1.90527 -0.0701598 -2.49981e-21)
(1.99651 0.162143 -2.32105e-19)
(2.54303 0.541306 -2.07215e-19)
(1.71996 -0.798766 2.79829e-19)
(1.96515 0.502639 3.26188e-23)
(1.86346 0.0527413 2.57911e-21)
(1.94992 0.0340024 -2.10584e-20)
(1.8869 0.00127914 1.29929e-20)
(2.25723 0.0497814 -5.10621e-20)
(2.00332 0.0108646 3.41849e-20)
(1.86013 0.00652753 -3.09439e-19)
(2.03739 0.0241018 0)
(3.36091 0.153125 -2.82855e-19)
(1.94173 0.0553668 3.26952e-19)
(1.35934 0.653903 -9.17616e-21)
(2.22487 -0.277962 -1.22014e-19)
(1.21783 -0.286092 -6.07226e-19)
(2.27089 0.0481694 8.47528e-21)
(2.62498 -0.182958 1.81034e-19)
(2.04303 0.0098667 0)
(2.02303 0.147928 -3.5208e-20)
(1.9876 0.0208234 9.5987e-21)
(1.87493 -0.0171706 -1.93786e-20)
(1.39405 -0.872282 -2.17125e-19)
(1.99751 -0.0440637 1.7104e-19)
(2.02308 0.016794 -4.80353e-21)
(1.94405 0.0229679 -7.85961e-21)
(2.03221 0.0123234 0)
(1.95245 0.562723 0)
(1.55403 -0.742883 3.42477e-19)
(1.2119 -0.603531 1.18702e-19)
(2.03186 0.00630811 -2.25822e-21)
(1.96484 0.040783 6.52735e-19)
(1.98377 0.176062 1.09829e-19)
(1.55063 0.158922 0)
(1.83381 0.0288217 0)
(1.72481 -0.418946 -2.80918e-21)
(2.1547 0.0197784 8.80551e-20)
(2.00324 0.465474 3.21306e-19)
(2.34675 0.113978 0)
(2.01905 0.0302723 0)
(2.25629 -0.611999 3.51159e-19)
(2.05368 -0.197581 2.61495e-19)
(0.455804 -0.383777 -6.96624e-20)
(2.0392 0.0180823 0)
(2.38511 -0.941548 9.24222e-20)
(1.8873 -0.141353 -5.74558e-21)
(1.67782 -0.731059 -6.85859e-20)
(1.99335 -0.0723605 -3.59026e-19)
(2.15931 -0.521148 0)
(2.06057 -0.328549 6.5712e-20)
(1.74877 -0.543648 -7.05871e-20)
(0.173765 -0.159348 0)
(1.9734 -0.00410266 3.40451e-20)
(1.92103 0.0781816 -2.11238e-19)
(1.99675 -0.0045028 2.74913e-23)
(2.46858 0.311876 3.83626e-20)
(2.59463 1.93408 7.22125e-19)
(1.9587 0.0478041 0)
(1.21749 -0.482979 -4.1866e-21)
(2.00969 0.193083 -1.01794e-19)
(1.90557 -0.668366 -1.51881e-19)
(2.05994 0.222521 1.79704e-19)
(0.658058 -0.686259 1.40016e-19)
(2.03712 0.00822405 -8.04447e-19)
(2.02717 0.0551576 1.70412e-20)
(1.94776 0.0603512 -2.86353e-20)
(1.85023 -0.443786 0)
(1.95959 -0.00784686 2.75906e-20)
(1.27349 -0.596585 2.37654e-19)
(2.19042 -0.0829241 -3.76803e-19)
(1.98261 0.0466948 -2.96354e-19)
(1.98619 -0.0856879 1.83789e-20)
(1.75305 -0.225298 7.31299e-19)
(1.98871 0.0270896 -1.21342e-20)
(1.8298 0.0357268 1.79687e-19)
(2.00292 0.0184546 2.41043e-20)
(2.11411 -0.290954 -1.08125e-19)
(2.52844 0.664986 -1.59869e-19)
(1.67029 -0.429928 3.4972e-20)
(2.05352 -0.024477 0)
(1.93705 0.160802 0)
(1.76914 -0.264529 0)
(1.46962 -0.477144 5.33783e-19)
(1.98024 0.055638 -4.85251e-19)
(1.8175 0.160358 0)
(1.64454 -0.390777 -4.18725e-19)
(1.81357 0.134371 0)
(1.84694 -0.34316 -3.27234e-19)
(1.9117 -0.0338052 3.83761e-21)
(1.99807 -0.529266 -2.93868e-19)
(2.00976 0.00642687 0)
(1.93531 0.0228786 0)
(1.92069 -0.00733439 -3.66363e-21)
(2.36821 0.0682463 1.53723e-21)
(2.1534 -0.0459704 4.58027e-20)
(2.62488 1.4907 -1.29954e-20)
(2.42724 0.176816 0)