/*--------------------------------*- C++ -*----------------------------------*\
| =========                 |                                                 |
| \\      /  F ield         | OpenFOAM: The Open Source CFD Toolbox           |
|  \\    /   O peration     | Version:  2306                                  |
|   \\  /    A nd           | Website:  www.openfoam.com                      |
|    \\/     M anipulation  |                                                 |
\*---------------------------------------------------------------------------*/
FoamFile
{
    version     2.0;
    format      ascii;
    arch        "LSB;label=32;scalar=64";
    class       volVectorField;
    location    "8.8";
    object      U;
}
// * * * * * * * * * * * * * * * * * * * * * * * * * * * * * * * * * * * * * //

dimensions      [0 1 -1 0 0 0 0];

internalField   nonuniform List<vector> 
13486
(
(1.48823 -0.253434 4.51037e-19)
(1.68322 0.236058 2.50361e-19)
(2.70599 0.028591 0)
(-2.05113 0.966043 -1.63579e-18)
(2.47724 -0.326719 -1.80274e-19)
(2.45077 0.176758 -1.55445e-20)
(2.47568 0.112168 -2.1217e-20)
(2.12025 -0.712661 -1.18573e-20)
(2.00963 -0.360597 0)
(1.94647 0.697186 0)
(-0.595082 2.27057 -6.23749e-19)
(2.45225 -0.0734546 0)
(1.33788 -0.450765 -4.39108e-19)
(2.36605 0.750205 -3.13331e-20)
(2.38326 -0.058015 -6.34486e-20)
(1.90919 0.6859 -2.01912e-19)
(1.29553 -0.456748 5.52283e-19)
(0.173155 -0.705435 2.90794e-19)
(2.13208 -0.011923 1.52276e-21)
(1.65731 -0.0792121 -4.65149e-19)
(-2.72791 0.826569 -7.85169e-19)
(1.35854 -0.467938 5.6677e-19)
(1.70201 0.229376 -2.00089e-19)
(4.35723 -0.198926 0)
(2.00745 0.563401 6.98217e-20)
(4.29398 -0.265846 -3.93861e-19)
(0.260823 -0.161268 6.30213e-19)
(3.14292 -0.199607 5.14117e-19)
(2.01011 0.164491 0)
(3.05681 -0.450471 -4.88903e-19)
(-2.51438 0.379109 -5.59998e-19)
(2.24324 -0.080126 -3.76204e-20)
(3.32602 0.175521 3.52042e-19)
(2.38584 -0.193272 0)
(2.12627 -0.67984 0)
(1.65904 0.0150773 2.84132e-21)
(1.55434 -0.0228458 -7.05212e-20)
(1.54216 -0.719797 1.55868e-19)
(1.85361 -0.212596 -1.37076e-20)
(2.01771 -0.220535 1.59217e-19)
(2.92699 -0.661941 0)
(0.917721 -0.455112 -5.24222e-19)
(1.97611 -0.00546175 0)
(2.0281 0.469216 -3.25841e-19)
(2.04322 0.469298 1.34362e-19)
(2.4537 -0.0751161 5.57544e-20)
(-1.10955 -0.80586 1.10272e-18)
(1.97853 0.15866 2.53649e-22)
(1.55711 -0.0029848 5.31412e-20)
(2.83738 0.0461913 1.41644e-19)
(1.99959 0.0169246 3.03918e-19)
(1.91977 -0.0535952 0)
(2.41912 -0.196394 -1.16198e-19)
(1.70182 -0.619129 -2.41251e-19)
(0.118162 -1.0542 0)
(2.43381 -0.342571 8.42934e-20)
(2.84903 0.412409 1.16989e-19)
(1.92858 -0.109538 -6.72559e-20)
(3.32025 0.209691 4.42618e-19)
(1.47408 -0.240756 0)
(-0.804171 2.65198 -8.24507e-19)
(1.45351 -0.223374 0)
(3.45561 0.608768 -2.50034e-19)
(-2.71534 0.827592 -8.8067e-21)
(2.00583 -1.91097 0)
(1.51917 -0.0387592 -3.81639e-20)
(-2.28811 1.11239 -1.56582e-18)
(1.46193 0.00414745 1.67217e-19)
(2.01025 -0.381726 -7.28364e-20)
(1.53515 0.0119797 1.83612e-20)
(-2.05789 1.05147 1.79101e-18)
(0.141141 -0.955044 1.04351e-20)
(2.02627 -0.110208 1.35104e-19)
(-0.642638 0.270435 -3.58137e-19)
(1.40478 -0.0497265 -1.01067e-20)
(2.86155 0.375803 -2.35067e-20)
(1.3843 -0.00808293 3.38098e-20)
(2.39655 -0.0515094 2.97401e-20)
(-0.842455 -0.515567 -5.90933e-19)
(1.9209 -0.771009 0)
(1.93239 0.0327463 2.48862e-22)
(1.62435 0.32477 -1.62413e-20)
(3.15369 0.488345 -4.08461e-20)
(2.77148 0.0129613 -1.68015e-21)
(1.48105 -0.263977 -8.81463e-19)
(1.30227 1.46934 0)
(1.57335 -0.374759 1.37486e-20)
(2.00144 0.0289725 -4.70528e-19)
(1.87965 0.174601 -2.02214e-19)
(1.78376 0.927617 -2.47344e-19)
(2.22603 -0.182775 -6.72371e-20)
(2.25659 -0.55398 2.27908e-20)
(1.55107 -0.349478 1.09363e-19)
(1.68351 0.0460555 1.28148e-20)
(1.9302 -0.571341 2.78687e-20)
(1.95952 0.132868 -1.27158e-22)
(0.312943 -0.228877 0)
(-2.635 1.38121 9.03826e-19)
(2.03069 -0.215461 -3.04552e-19)
(1.38048 -0.425358 8.7792e-21)
(1.81819 0.0245099 0)
(2.33926 0.744651 -1.48957e-20)
(-2.71098 1.35445 4.42516e-20)
(1.91875 -0.0916705 7.88186e-20)
(1.26373 1.40939 0)
(1.21135 -0.406643 8.31937e-21)
(1.99026 0.0466823 -5.06724e-22)
(1.86588 -0.24226 -2.94954e-20)
(-0.840269 -0.495501 7.62697e-19)
(1.98133 -0.867322 0)
(1.37303 -0.653411 0)
(2.18054 0.0472624 3.23327e-21)
(1.71247 -0.600097 4.16197e-21)
(2.58885 0.4339 -2.56651e-21)
(1.11932 -0.108567 0)
(1.30634 -0.641149 -7.34764e-20)
(2.00105 0.579841 0)
(2.51916 -0.165544 0)
(2.0174 -0.110527 0)
(1.61094 0.0579492 -3.07291e-20)
(0.353587 -0.694143 -1.301e-19)
(-0.955246 2.60187 0)
(1.89788 -0.516205 0)
(1.86443 -0.214567 4.45001e-20)
(1.99249 -0.668219 0)
(1.91421 -0.0500502 0)
(2.23718 -0.188831 1.69072e-21)
(2.18542 0.0702413 1.45081e-19)
(1.95106 -0.0984533 -6.56945e-20)
(2.54685 -2.30236 -9.28868e-19)
(1.88353 -0.0364235 -8.42136e-21)
(-1.2767 -0.905546 -2.80416e-19)
(0.45244 0.535244 7.01594e-19)
(-0.2409 0.186498 4.60194e-19)
(1.99986 0.00769324 -4.8754e-20)
(1.88818 0.372896 -2.56721e-19)
(0.699976 0.611221 -1.60506e-19)
(1.99437 -0.847909 0)
(1.62171 0.0662081 8.61834e-21)
(2.12614 -0.540146 -1.96239e-20)
(3.12309 0.189574 -3.57751e-19)
(2.40212 -0.202968 9.96742e-20)
(2.30892 -0.120439 0)
(1.9588 -0.729365 0)
(2.09292 0.00253798 -4.42145e-21)
(2.92402 0.730644 -3.35691e-19)
(2.09708 -0.146528 -2.81445e-21)
(0.354406 1.4277 0)
(2.85083 0.0838122 0)
(2.01882 0.154823 0)
(2.00898 0.0130824 5.48549e-21)
(2.48768 -0.112718 0)
(1.91733 0.0230155 -2.61213e-22)
(1.59923 0.322383 -1.40001e-19)
(2.16799 0.307209 0)
(2.90849 0.0381833 0)
(1.85397 -0.807043 0)
(0.595417 1.21041 6.21084e-19)
(1.82219 -0.71466 2.62146e-19)
(1.81636 -0.291175 -4.53193e-20)
(2.72661 0.0382591 6.10795e-20)
(1.8307 -0.689425 -3.92542e-19)
(2.09999 -0.261478 1.02777e-19)
(0.820212 -0.390095 2.27588e-19)
(1.94423 -0.069676 0)
(2.46854 0.753187 5.68774e-22)
(2.29898 0.67622 1.2538e-19)
(0.51972 -0.181088 -6.46012e-19)
(2.09045 -0.115906 6.89929e-21)
(-0.252511 0.208784 1.24031e-19)
(0.390903 0.493079 1.73224e-20)
(2.16271 0.280334 1.17969e-19)
(1.9974 0.0653602 -4.13633e-19)
(2.29882 -0.105427 1.66617e-21)
(1.9187 0.071704 -6.7315e-22)
(-2.21585 1.88777 0)
(2.31966 1.04186 -4.62721e-20)
(3.17263 0.294987 4.56494e-19)
(1.99852 0.0457333 -4.48314e-19)
(2.32353 -0.120149 0)
(2.07435 -0.258893 2.66048e-19)
(2.55405 0.395803 -3.87685e-21)
(2.31165 -0.0916071 1.23611e-21)
(0.174649 -0.00292108 0)
(2.62715 -0.0618211 1.24758e-20)
(2.87069 -0.178472 -2.29394e-19)
(2.11281 0.151077 -1.47748e-22)
(2.93299 -0.361322 -1.30119e-19)
(2.89758 -0.628024 0)
(1.17612 -0.564148 -1.17441e-19)
(1.5656 0.0387175 0)
(2.57691 0.057135 0)
(1.97821 -0.164362 0)
(1.29407 0.734116 -3.11646e-19)
(2.03542 -0.20522 0)
(-0.669332 2.07193 -1.7314e-19)
(2.07947 -2.2448 2.0421e-18)
(2.65937 0.0114872 3.827e-20)
(1.15045 -0.566736 -7.936e-20)
(2.45177 0.715633 1.73693e-20)
(-2.42755 0.293494 5.9504e-19)
(2.19582 0.0906288 -4.47442e-21)
(1.42326 -0.683454 -1.80198e-19)
(2.03734 -0.824745 -1.50067e-19)
(1.83634 -0.284198 5.5896e-20)
(2.06522 -0.19175 -6.22478e-20)
(-0.444258 -0.721073 5.04371e-20)
(1.94491 -0.0571171 3.17613e-19)
(1.96047 -0.168967 0)
(2.64878 -0.0495613 0)
(3.19026 -0.251716 4.02706e-19)
(4.44373 -0.969034 1.05121e-18)
(1.67492 -0.0664636 4.25578e-19)
(1.98298 0.0458171 -3.86901e-22)
(2.44672 0.215089 1.79052e-20)
(2.45019 -1.07477 7.16581e-20)
(3.07144 -0.370481 0)
(1.78494 0.911864 5.88929e-19)
(1.64193 -0.366362 0)
(3.01731 0.853595 0)
(1.26752 -0.494764 -1.04603e-18)
(2.88339 0.12529 0)
(2.10161 -0.536084 3.84532e-20)
(2.67897 0.0496199 0)
(2.46528 -0.25222 -2.28712e-20)
(1.30762 -0.616287 1.45363e-19)
(2.55427 0.386834 -5.84645e-22)
(-2.3205 0.225767 4.72187e-19)
(2.30662 -0.699403 1.239e-20)
(1.62564 -0.37539 -2.86604e-21)
(2.0811 -0.249532 -8.67597e-20)
(2.65793 0.257108 1.1603e-18)
(3.16139 0.201349 4.47164e-19)
(0.941859 -0.458524 1.82332e-19)
(-2.7939 1.09638 0)
(1.11761 -0.543519 1.61052e-20)
(2.79291 -0.330994 2.28899e-19)
(2.59614 0.0449041 5.61062e-21)
(0.983365 -0.474339 4.44497e-19)
(2.32912 -0.0622543 0)
(3.41469 0.221756 0)
(2.00178 0.0462069 6.32413e-19)
(2.59311 0.214537 0)
(0.989942 -0.490335 1.36789e-19)
(1.80496 -0.257337 -2.36973e-20)
(1.83759 0.0502069 0)
(2.19238 -0.00396941 -1.84339e-20)
(3.59995 -0.474925 1.06917e-18)
(-0.340998 0.0760077 7.37864e-19)
(1.99787 0.443823 0)
(-2.3886 1.83227 -3.61133e-19)
(1.08548 -0.0809969 7.35649e-20)
(1.12385 -0.548865 7.83797e-20)
(1.87819 -0.245885 0)
(2.13344 -0.649406 4.76935e-20)
(-1.97275 2.19011 3.0594e-19)
(2.2365 -0.090107 5.13955e-20)
(2.4035 -1.12281 -9.07819e-20)
(1.20841 1.18866 -6.36563e-19)
(3.43155 0.176605 3.4629e-19)
(1.79404 0.187428 0)
(1.79421 -0.252404 -1.36098e-21)
(2.35756 -0.0553026 1.37657e-19)
(-2.11429 2.05173 -3.76409e-19)
(2.43969 -0.650776 1.88044e-19)
(0.144644 0.0461565 0)
(2.33525 -0.669729 -1.3099e-19)
(-2.68913 0.54985 -8.59638e-19)
(2.1764 -0.00239943 -1.6154e-19)
(0.982083 -0.572376 0)
(1.52044 0.815991 2.34456e-19)
(1.98597 0.0482917 -1.25899e-19)
(3.10038 -0.393018 0)
(2.46464 -0.134629 5.398e-20)
(1.23541 -0.595023 1.90657e-19)
(3.48735 -0.553735 -5.99067e-19)
(2.14311 -0.58808 0)
(0.635413 -2.17201 0)
(1.89841 -0.279158 -3.26877e-20)
(2.19967 -0.17717 7.05644e-21)
(0.611165 -2.32026 5.2676e-19)
(2.168 -0.154414 -9.32295e-20)
(1.96048 0.0613155 2.69901e-19)
(3.10708 0.764833 -5.64938e-19)
(-1.08184 2.47754 9.82223e-19)
(1.11358 -0.106548 1.07976e-18)
(3.06683 0.278689 3.35366e-19)
(1.90621 -0.12887 8.61357e-20)
(2.55833 -0.251526 3.46869e-20)
(2.13957 0.00750676 0)
(-2.82497 1.0958 0)
(1.69878 -0.255043 2.74059e-20)
(1.33883 -0.640276 9.05106e-20)
(1.99883 0.013472 -4.77398e-20)
(2.8669 -0.324826 2.13557e-19)
(2.86989 -0.354708 0)
(2.17207 -0.0243223 -8.44646e-20)
(2.49422 -0.113944 -4.24029e-20)
(1.95555 0.0488318 -2.44574e-19)
(2.79328 -0.0588276 -3.77558e-19)
(1.89908 -0.272648 -1.21982e-19)
(-0.358902 -0.724589 2.61286e-20)
(2.27249 -0.1474 -6.06787e-21)
(2.2564 -0.0746201 4.10757e-20)
(1.62153 0.0179138 1.1134e-20)
(1.70844 -0.757828 0)
(1.96866 0.264247 0)
(2.17571 -0.0180549 3.71453e-20)
(1.63049 -0.404732 -8.70994e-21)
(1.55832 0.0209668 0)
(1.72953 1.21637 -8.58471e-19)
(-1.91159 0.906089 0)
(2.23155 1.0094 5.52377e-20)
(2.16901 0.0289932 -3.19245e-20)
(0.60108 2.26815 0)
(1.87702 0.36574 -1.61161e-19)
(1.70187 -0.260476 -4.05648e-20)
(1.87277 0.165671 -1.73728e-20)
(1.93553 -0.0512795 -3.57093e-19)
(2.43736 -0.673333 0)
(1.50993 -0.0148665 6.98601e-20)
(1.70793 -0.220379 4.23185e-22)
(2.00444 0.0441785 5.69384e-20)
(1.66796 0.0897981 -2.44215e-19)
(0.791201 0.58642 2.92058e-19)
(2.22874 -0.158797 1.44836e-19)
(2.30004 -0.240952 3.21416e-20)
(2.18285 -0.155459 0)
(2.57173 -0.107335 6.25035e-22)
(2.33312 -0.22604 3.80729e-20)
(2.00082 0.0173953 6.81408e-19)
(2.29363 -0.546388 0)
(2.18265 -0.217597 -4.58756e-20)
(1.46623 0.313598 0)
(2.52957 0.133088 5.6289e-19)
(2.00028 -0.517703 -6.06515e-20)
(0.748502 -0.355255 2.32077e-19)
(2.48594 -0.143777 1.83376e-19)
(2.01161 0.16359 0)
(1.78345 -0.253765 -3.61384e-20)
(2.38253 -0.680473 1.43752e-19)
(1.67502 0.0961107 2.30612e-19)
(2.35515 -0.220878 -9.04772e-20)
(2.30969 -0.0907283 4.93342e-20)
(-1.33854 1.64895 -6.84601e-19)
(1.97875 0.147181 9.21054e-23)
(2.25713 -0.123238 0)
(1.08048 -0.394358 5.4621e-19)
(3.03046 0.833811 0)
(1.71322 -0.243372 -6.82211e-22)
(2.28954 -0.0679069 1.41102e-19)
(2.53824 -0.123584 -4.27173e-20)
(2.47594 -0.129814 4.32511e-20)
(0.341366 -0.255071 -7.25194e-19)
(1.96329 0.0495062 3.04251e-19)
(1.8278 0.0290157 0)
(-0.471329 0.410419 -3.38563e-19)
(2.23894 -0.184635 -3.3437e-20)
(1.66118 -0.384924 2.02027e-21)
(4.04308 -1.1909 7.85542e-19)
(2.34405 -0.0154849 0)
(2.28351 -0.221627 1.12724e-19)
(1.81869 0.122428 4.97336e-19)
(1.98236 0.0544687 3.84078e-19)
(3.0864 -0.470904 0)
(1.91513 0.0151676 -1.67283e-22)
(2.92048 -0.346868 -2.14996e-19)
(-1.43522 -1.12669 1.58758e-19)
(1.63892 -0.0834533 5.92276e-20)
(2.24407 -0.163722 3.17899e-20)
(2.02814 0.00600295 5.48116e-22)
(2.25318 -0.129494 0)
(2.48007 -0.26095 -8.00707e-20)
(-2.28171 1.95058 3.28146e-19)
(2.4015 0.420931 -4.77983e-20)
(1.99827 0.0170164 2.54613e-19)
(1.39242 0.0279864 0)
(1.73763 -0.233875 -4.40378e-20)
(0.717622 2.25426 0)
(3.09214 1.28636 -1.9488e-19)
(2.18828 -0.0209446 0)
(2.30092 -0.661062 -9.33573e-21)
(1.38179 -0.157045 -1.31556e-19)
(1.50957 0.753159 5.47544e-19)
(-1.39672 -0.964522 -6.40407e-19)
(2.18883 -0.587454 0)
(2.36399 0.0621723 -1.16476e-19)
(2.01708 0.17097 -1.73791e-19)
(0.723926 -0.537162 -2.54174e-19)
(-2.44758 0.701985 8.43593e-20)
(1.70097 -0.0782154 -6.35109e-19)
(3.12119 -0.324557 2.15149e-19)
(2.08003 0.177815 1.32469e-19)
(1.52821 -0.481374 0)
(1.40118 0.247329 2.82504e-19)
(1.62789 0.110309 -2.51789e-20)
(-2.13308 1.01985 9.53261e-19)
(-2.30239 1.8505 -1.13689e-18)
(0.97044 -0.615244 -5.66196e-19)
(3.10501 0.250486 0)
(0.738187 -0.597488 0)
(1.93084 1.09442 0)
(2.15885 -0.07081 0)
(1.91895 -0.0376542 -6.07036e-19)
(2.43753 0.144933 0)
(1.43946 -0.318561 0)
(1.70571 0.0645232 9.3026e-20)
(3.18446 0.315573 -4.73813e-19)
(2.23383 -0.126463 -1.04056e-19)
(1.71992 0.274258 8.62247e-19)
(2.00494 0.0147225 -8.85153e-20)
(2.17254 1.5918 0)
(3.12467 -0.217243 0)
(1.94734 0.0510948 2.61789e-19)
(2.02938 0.0482415 4.69925e-20)
(1.31262 0.779403 0)
(0.0526379 0.0437103 7.4075e-19)
(2.4232 -0.677303 -2.1179e-19)
(-0.0702485 0.231905 0)
(2.32832 -0.0642416 7.06727e-20)
(1.99338 0.0431425 -3.02187e-19)
(0.972129 0.327196 -1.43572e-19)
(1.07381 -0.382029 0)
(2.00292 0.175809 3.1733e-19)
(2.62285 0.242613 0)
(2.94024 -0.359742 0)
(2.20112 0.194152 -2.10474e-20)
(1.95355 0.065123 1.43681e-19)
(0.300438 -0.168389 -8.16167e-19)
(2.26206 0.663453 4.95082e-20)
(1.40576 -0.376486 -2.16186e-19)
(2.168 -0.0619119 2.11075e-20)
(2.08322 0.173784 1.05101e-19)
(2.60607 -0.261904 1.96879e-19)
(2.55099 -0.612846 0)
(3.56358 -0.320219 4.78764e-19)
(1.38743 -0.0983452 0)
(1.71152 -0.244957 2.44847e-20)
(2.28731 -0.115351 0)
(1.48571 0.0187823 3.5415e-19)
(-0.801709 -0.821388 -9.11579e-19)
(3.08245 -0.312985 0)
(-0.189686 0.124839 2.07589e-20)
(3.14799 -0.239372 -4.40936e-19)
(1.6887 -0.267492 -4.77846e-22)
(1.84467 -0.269336 4.91918e-19)
(1.40733 0.730959 -3.47592e-19)
(1.39483 -0.367589 -6.29995e-19)
(3.22237 1.27046 0)
(1.6021 0.0414311 2.86562e-20)
(-1.40352 1.86735 -1.70419e-18)
(2.00686 0.182328 0)
(1.85754 0.186028 1.89154e-20)
(2.98409 0.00903075 -3.03765e-20)
(2.57965 1.1303 0)
(2.00399 0.0137431 0)
(-1.27675 0.881977 0)
(-2.07101 1.74687 1.54823e-18)
(2.78484 0.914317 6.75464e-19)
(2.9173 0.79834 -1.45177e-20)
(2.20375 0.966567 0)
(1.77334 -0.184547 3.7548e-19)
(1.90673 0.0709335 1.35253e-21)
(2.263 0.61241 -1.11613e-19)
(-2.5238 0.902792 1.45888e-18)
(1.92065 0.131008 0)
(1.99176 0.159268 0)
(0.814496 -0.169139 -3.96749e-19)
(1.49917 -0.473382 -1.43026e-19)
(2.01748 -0.166114 0)
(1.45582 -0.691786 2.57571e-20)
(1.83631 0.0245751 -6.83509e-22)
(1.96526 0.119612 2.53514e-22)
(0.835845 -0.39462 0)
(1.99476 -0.0675086 8.92591e-20)
(1.63368 0.0772274 2.33469e-20)
(2.62194 0.218776 3.64792e-20)
(1.9868 -0.542429 0)
(1.26442 -0.122645 -1.63546e-18)
(2.50615 -0.12445 4.62425e-20)
(1.99981 0.0688351 6.42372e-20)
(1.77613 0.0328126 9.53534e-21)
(2.53541 0.748909 0)
(1.69716 0.271661 -2.29455e-19)
(3.02823 0.62537 -1.45438e-19)
(1.14682 -0.598954 1.22945e-19)
(2.00618 0.0363952 0)
(-2.44241 0.646308 -8.71525e-20)
(0.565551 -0.150969 0)
(2.00353 0.0353276 -2.53617e-19)
(1.99311 0.0469128 1.01552e-19)
(1.91424 0.0265616 -5.08499e-20)
(-2.09702 1.91259 0)
(2.27813 0.0189656 -1.18006e-20)
(1.13666 0.372849 7.92224e-19)
(2.50209 -0.612659 0)
(1.67912 0.0530233 2.88503e-19)
(2.75495 -0.128503 4.30317e-19)
(2.20061 -0.0179433 0)
(-2.62028 0.439086 4.31161e-19)
(1.94564 -0.686593 -7.12119e-20)
(2.04537 -0.000572735 0)
(1.09008 -0.26483 1.09323e-18)
(1.84723 0.176455 0)
(1.80379 -0.807945 6.61735e-20)
(-2.44309 1.86553 7.10166e-19)
(2.10647 0.169325 1.59907e-22)
(2.47393 0.176323 1.43729e-20)
(1.39726 0.229139 1.47923e-19)
(1.83572 -0.293503 -1.79557e-19)
(2.19248 -0.528825 -5.28107e-20)
(1.84048 -0.811433 4.15211e-21)
(2.22465 -0.169888 3.85072e-20)
(2.52032 0.754119 1.11469e-20)
(2.09332 -0.886693 0)
(1.99805 0.0133671 -2.25834e-19)
(0.111289 0.305444 -3.71937e-19)
(1.41526 -0.110015 0)
(1.55018 0.204344 -9.91463e-21)
(1.49278 0.00966745 0)
(1.28591 -0.394279 5.52227e-19)
(2.27579 -0.757438 0)
(1.69059 0.00414302 -7.48331e-21)
(2.30441 -0.0724665 -8.11547e-20)
(-2.51213 0.281097 8.02457e-19)
(-1.66952 1.08329 1.10209e-18)
(2.25077 -0.00894226 -7.67013e-22)
(1.55193 -0.722108 -1.57775e-19)
(1.87943 -0.51159 1.34603e-19)
(1.54807 -0.351926 0)
(0.382187 -0.20035 -4.26745e-19)
(2.56273 -0.50723 4.05075e-20)
(0.41299 -0.206953 -4.97056e-19)
(1.96481 0.136845 -3.1366e-23)
(1.51796 -0.594496 0)
(2.21907 -0.0238465 -1.63472e-21)
(0.0435644 0.0862311 0)
(-2.70154 1.43581 4.5336e-20)
(0.798531 0.402778 1.70484e-19)
(1.45313 1.11011 0)
(2.18508 -0.478803 7.46385e-21)
(1.89003 -1.99877 0)
(2.5975 1.05358 0)
(1.57571 -0.735859 -8.8534e-20)
(1.49515 0.287807 2.29005e-19)
(1.66312 -0.905326 0)
(1.82328 0.146124 -1.39024e-19)
(2.69282 0.670696 3.08749e-19)
(-2.163 2.01892 1.4312e-18)
(2.54776 1.36823 0)
(2.17521 -0.0479133 0)
(-1.22263 1.79013 -7.32689e-19)
(1.93829 -0.112024 0)
(2.68395 -0.00357144 0)
(-0.956721 2.71325 -9.28872e-21)
(2.15176 -0.32868 -1.05855e-19)
(1.82703 -0.422824 1.32769e-19)
(3.53213 0.147743 5.15952e-20)
(0.377647 -0.186894 9.08316e-19)
(1.99384 0.0396718 1.15017e-19)
(1.58465 -0.380868 0)
(2.1392 0.45917 -5.74157e-20)
(1.47265 -0.236017 0)
(2.40324 0.0287081 0)
(1.9974 0.0897364 0)
(2.19053 0.17419 -1.72098e-20)
(1.92004 -0.0501502 1.67439e-19)
(2.54027 0.16134 5.67943e-21)
(1.63311 -0.380728 0)
(0.279455 -0.196883 -5.91824e-19)
(1.96646 1.03758 1.11604e-19)
(1.99162 -0.681507 5.99707e-21)
(2.13563 -0.16126 -1.43419e-19)
(3.46018 -0.572099 9.82979e-19)
(2.05217 0.0660719 -1.72074e-19)
(-0.800619 -0.804326 0)
(2.4861 -0.119518 0)
(1.42887 0.74962 0)
(1.27213 -0.576745 -3.76527e-19)
(-1.0545 -1.27232 -1.10755e-18)
(1.82818 1.01895 0)
(2.16285 0.473513 0)
(2.44223 -0.262189 9.7359e-20)
(1.95708 -0.0261568 -3.36421e-20)
(1.87166 0.579384 2.84704e-19)
(2.08153 -0.821494 0)
(0.297194 -0.0529798 -2.29073e-19)
(2.40202 0.0723133 5.64516e-20)
(1.46493 -0.43837 -3.4979e-19)
(2.23613 0.0639743 -1.03359e-19)
(2.25449 0.618601 1.61045e-19)
(3.65638 -0.030807 1.14829e-18)
(1.26785 -0.582986 6.60499e-19)
(2.65233 -1.84606 5.56906e-19)
(2.59906 0.352508 -4.80908e-21)
(2.00076 0.008619 -5.51233e-20)
(1.33784 -0.609917 1.68281e-20)
(1.96485 -0.638859 2.97024e-20)
(1.51998 1.86051 -6.78713e-20)
(1.46048 -0.685391 -2.16083e-21)
(2.57655 -0.0916772 0)
(1.55322 -0.3238 -4.70089e-21)
(2.20449 -0.0461327 -2.66305e-19)
(2.81062 0.835801 6.80061e-20)
(1.4338 -0.40507 -3.26398e-19)
(1.96886 -0.65336 -8.93017e-20)
(1.94051 -0.0109193 2.65142e-19)
(2.38081 -0.0519509 -1.51368e-19)
(1.3228 -0.271337 -7.77949e-20)
(3.04438 0.283817 -1.80374e-19)
(1.20757 -0.202092 -7.96374e-19)
(2.13161 -0.0306852 -2.16113e-19)
(1.19357 -0.266668 0)
(-2.54551 0.425212 -1.94496e-18)
(1.91033 0.0371184 3.67842e-19)
(1.49131 0.000442945 -1.10709e-22)
(-0.678205 0.212025 0)
(1.79576 -0.792184 0)
(2.00728 0.410125 2.52258e-19)
(1.07495 -0.201859 5.04839e-19)
(1.47066 -0.606333 -2.48783e-18)
(2.32852 -0.650844 5.76748e-20)
(2.31964 -0.247109 -2.28543e-20)
(3.0891 0.811412 0)
(2.01329 0.44864 1.40885e-19)
(-0.0818475 -0.664627 -1.58574e-20)
(2.37093 1.04791 -2.04006e-20)
(2.0532 -0.239325 -1.7087e-19)
(0.378244 -0.182305 -1.47926e-18)
(3.37035 -0.610522 -9.18378e-19)
(3.63348 -0.348514 2.50205e-19)
(2.15266 1.15432 0)
(2.6159 -0.602968 -1.12449e-19)
(1.92565 0.0243996 4.53592e-20)
(1.91983 0.0450593 -5.16038e-22)
(0.852394 -0.413288 6.34847e-19)
(2.03142 -0.239403 2.57858e-19)
(1.86148 -0.324356 2.71979e-20)
(-2.20432 1.93093 -8.22696e-19)
(2.64438 -0.250137 -2.00236e-19)
(2.26126 -0.0273578 1.93009e-19)
(-0.926524 2.32625 -1.20116e-19)
(2.29038 0.991944 1.2127e-19)
(1.27967 -0.315639 -1.18482e-18)
(1.01495 -0.494828 -1.74284e-19)
(1.94236 0.0416468 0)
(2.81935 0.454223 7.78523e-20)
(-1.5353 2.65467 -6.02113e-19)
(1.37706 -0.183027 7.02862e-19)
(2.18733 0.132981 0)
(2.01383 -0.328286 1.23276e-19)
(1.23586 -0.524105 1.5564e-19)
(1.99625 0.0275286 -4.94815e-19)
(-0.969682 0.990678 -7.52342e-19)
(1.67441 -0.86897 -1.07615e-20)
(2.24094 -0.130794 6.94036e-20)
(2.31869 0.0657074 1.72098e-19)
(1.83102 -0.818331 -6.58086e-20)
(2.56469 0.216446 -1.08079e-20)
(-0.785521 -1.28426 -3.04278e-18)
(2.11549 -0.0454491 2.4986e-19)
(2.16448 -0.0533217 -9.29546e-20)
(2.14403 0.0918596 -4.94238e-21)
(2.13282 -0.0307397 -1.86463e-19)
(1.17359 -0.529965 -3.01214e-19)
(2.5669 0.32957 0)
(-2.53948 1.44433 1.25632e-18)
(2.11906 0.0711019 3.33341e-20)
(1.45537 0.28122 -1.4244e-19)
(2.43624 0.0434929 2.23572e-20)
(2.27832 -0.292274 -4.83329e-21)
(2.00035 0.0119709 -4.12841e-19)
(2.08062 0.303201 7.95835e-20)
(-0.00542738 0.0771182 -7.62576e-19)
(2.71621 -0.000212427 0)
(1.74126 -0.229888 2.30497e-20)
(2.55266 -0.133244 4.37232e-20)
(1.52812 -0.579551 0)
(2.13623 0.0694464 1.58352e-19)
(2.57772 -0.109007 4.67133e-20)
(2.68393 0.0119243 1.6403e-24)
(3.00775 -0.670996 3.96222e-19)
(2.12213 -0.182824 0)
(1.78364 0.310996 4.30266e-19)
(1.98782 -0.49997 -5.07564e-20)
(1.41116 -0.67364 5.01025e-20)
(2.08398 -0.158184 0)
(1.49252 0.247473 -6.59478e-19)
(0.539408 -0.559727 -1.44394e-19)
(2.32929 1.42979 -9.20493e-20)
(1.21794 -0.226797 7.71653e-19)
(2.16654 0.00648832 -2.46963e-21)
(-1.54504 1.05498 8.41457e-19)
(1.99709 -0.0967171 -2.33291e-19)
(3.48687 -0.198973 -6.17373e-19)
(1.80869 0.120846 -2.88724e-19)
(1.95261 0.0108799 0)
(2.0026 0.0226233 -2.06871e-19)
(0.813452 0.0858505 2.86788e-18)
(-0.359082 0.401464 0)
(4.31502 -0.676546 0)
(1.92049 0.0455862 0)
(1.26107 -0.560805 0)
(2.03686 0.296272 0)
(1.14502 -0.196632 0)
(2.5973 -1.04089 -1.09979e-20)
(3.16459 0.853614 -2.61387e-19)
(2.57981 0.416453 0)
(1.76428 0.310499 6.49283e-19)
(1.02454 -0.687903 2.0578e-19)
(2.0706 0.181646 4.54019e-21)
(-1.3445 2.69111 -2.48381e-19)
(1.14938 0.0238075 6.41002e-22)
(-0.140841 0.259823 6.64996e-19)
(1.71875 0.00501826 -5.739e-20)
(2.88061 0.0404183 2.18379e-20)
(2.01568 0.277041 -1.71255e-19)
(1.88188 0.156055 -3.98597e-19)
(1.91211 0.957385 -2.34667e-19)
(3.09405 1.23769 0)
(-2.66456 0.78099 2.90028e-19)
(1.31 -0.410755 -6.04653e-19)
(2.01142 0.0241368 -6.35604e-19)
(2.5701 -0.522904 4.36958e-19)
(1.99079 -0.0206776 3.16124e-20)
(3.02683 -0.135329 -5.77575e-19)
(2.19873 -0.237049 -1.10291e-20)
(2.19411 -0.464583 -2.38746e-20)
(2.01895 0.15303 1.80947e-19)
(1.66523 1.09617 0)
(2.16416 -0.45926 -4.64782e-20)
(1.72572 0.0438013 -8.75861e-20)
(2.38109 0.147016 0)
(1.91915 -0.246309 0)
(1.9165 -0.852078 -5.972e-21)
(-2.14249 1.36003 9.34139e-19)
(2.54015 -1.10555 -3.85784e-19)
(1.81174 -0.0436518 0)
(1.96033 -0.0564696 -3.30598e-19)
(1.82025 0.184178 -7.73572e-20)
(-2.71554 1.03056 7.20911e-19)
(2.61185 -0.061552 1.57167e-20)
(-0.405271 0.410736 0)
(-2.70009 0.802663 3.28448e-19)
(2.6058 -0.0900092 0)
(2.58962 -0.644965 1.19337e-19)
(2.24583 -0.218442 -7.94698e-20)
(2.00197 0.0190633 1.4537e-22)
(2.31102 0.689746 -2.22509e-19)
(2.5458 1.26083 -2.62576e-20)
(1.82877 -0.494203 2.96846e-19)
(-1.83114 0.00586606 0)
(1.58911 -2.40542 -1.88835e-18)
(1.16326 -1.38433 0)
(2.64052 0.415882 -2.0491e-20)
(-2.76507 1.23691 1.37811e-18)
(4.60605 -0.707867 1.01497e-18)
(1.76383 -0.226603 -2.32262e-20)
(-1.75766 2.36816 -1.83854e-18)
(1.22238 -0.598262 -5.78746e-20)
(1.35263 -0.415911 -3.41917e-19)
(1.61381 0.0970076 9.0767e-21)
(2.08501 -2.44357 1.55404e-18)
(1.21531 -0.545488 2.48493e-19)
(1.41064 -0.437578 3.66291e-19)
(-1.02317 -1.02373 1.30928e-18)
(2.7253 -2.11436 -9.35732e-19)
(1.94918 -0.570836 1.0395e-19)
(-1.39971 -0.972775 6.67663e-19)
(2.44345 0.0361744 -6.90892e-21)
(1.00941 -0.752746 -1.73685e-19)
(2.30817 0.436709 -6.92014e-20)
(2.42703 -0.375413 0)
(1.09969 -0.565847 -1.18385e-18)
(2.10498 -0.0425561 -3.11995e-19)
(1.9947 0.0977702 0)
(2.61366 0.3896 0)
(0.772934 -2.5653 -8.65995e-19)
(3.75836 0.0906062 -5.71714e-19)
(2.43258 0.244065 -8.57499e-20)
(2.14581 -0.320458 1.36803e-19)
(1.89873 0.92344 2.07815e-19)
(1.39919 -0.0198075 1.6083e-19)
(-2.73054 1.44394 -7.45364e-20)
(1.76956 0.582552 0)
(1.44328 -0.467167 3.43124e-19)
(-0.238138 0.839808 1.63728e-19)
(-1.86533 2.25467 1.4163e-18)
(1.82001 -0.672742 4.1111e-20)
(1.84718 -0.804594 1.76101e-19)
(1.62099 -0.0132186 9.11775e-20)
(1.83619 -0.213654 1.44463e-20)
(3.00504 -0.486523 5.03775e-19)
(-2.6269 1.43226 -8.95376e-19)
(2.41425 0.234379 6.59269e-20)
(1.97155 0.045663 1.50038e-19)
(1.18606 -0.256483 -3.16474e-19)
(1.94574 -0.0889661 2.00409e-19)
(1.19129 -0.283307 0)
(2.40077 0.414358 8.92022e-20)
(2.00147 0.0467452 3.37522e-20)
(1.5312 -0.324823 -1.12227e-19)
(1.73731 1.69654 -3.45876e-20)
(1.91562 -0.561285 9.18603e-20)
(2.10891 0.0324247 5.92102e-20)
(1.40623 0.0911595 -4.92086e-19)
(2.41389 0.101454 0)
(1.75163 -0.207828 -4.61142e-20)
(2.25028 0.0864361 1.40258e-19)
(2.32899 -0.179863 0)
(1.43798 -0.0101819 2.74461e-19)
(2.62017 -0.0622993 0)
(1.64196 1.69073 2.8078e-19)
(2.32221 -0.0295898 0)
(2.15935 -0.511424 0)
(2.47762 -0.0466708 2.70139e-20)
(2.40831 0.183954 6.11232e-20)
(2.97642 0.401423 -2.39206e-19)
(1.92754 0.118478 -1.82557e-19)
(1.53138 1.0928 -1.55348e-19)
(1.99857 0.0745673 -7.95668e-20)
(2.06251 0.304589 0)
(-0.87732 -0.266395 -2.70466e-20)
(2.52472 0.174135 -5.26167e-21)
(2.52727 -0.634932 -2.40006e-19)
(2.41265 -0.370268 0)
(2.8441 0.824983 1.09455e-19)
(2.05005 1.57785 -3.16823e-21)
(2.40268 0.0213114 -2.46709e-20)
(0.629504 1.90244 0)
(-0.754741 2.73473 7.42767e-19)
(2.03742 0.151702 0)
(2.99282 -0.405241 -2.43405e-19)
(-0.315288 0.0938461 0)
(1.65275 0.015902 0)
(2.67444 -2.06599 0)
(2.21632 -0.758702 0)
(-0.285743 1.27349 -1.01075e-19)
(-2.09715 1.60118 -3.46452e-19)
(1.90979 -0.0435154 -2.51813e-19)
(-2.6503 0.38467 -1.00939e-18)
(1.29815 -0.571711 0)
(-2.29644 0.100372 -8.66517e-19)
(-0.449864 0.0757967 -7.28152e-19)
(1.5669 -0.729833 0)
(1.52945 -0.542021 -3.39682e-19)
(1.36156 -0.0658384 -1.42492e-20)
(2.29637 0.419545 1.74848e-19)
(2.8265 -0.687461 -3.26003e-19)
(1.87293 0.14323 0)
(2.42517 -0.618244 0)
(3.22233 0.587682 1.1369e-19)
(1.96064 -0.561443 7.38152e-21)
(1.61678 0.00481981 -2.20477e-20)
(0.760448 -2.48791 6.82101e-20)
(1.99916 0.005592 1.54333e-20)
(2.81199 0.465351 -1.31724e-20)
(2.0185 0.15405 2.59449e-19)
(1.72361 -0.22242 2.38909e-20)
(1.99511 -0.496833 0)
(0.49572 -0.227426 0)
(2.5708 0.189222 0)
(1.70175 0.0253498 0)
(1.8069 -0.317902 1.33844e-19)
(3.01773 0.106048 0)
(-0.803876 2.49007 1.33142e-18)
(3.01686 -0.389484 6.54221e-20)
(1.37865 -0.453912 -5.54234e-19)
(0.953728 -0.6398 -1.03519e-19)
(-2.42998 1.19039 -6.69355e-19)
(-0.57621 2.40115 -6.1208e-19)
(1.86532 0.0541147 4.7212e-20)
(-2.57393 1.78263 -8.00593e-19)
(1.709 -0.227645 3.86547e-20)
(2.52129 -0.03192 0)
(2.37238 -0.131485 0)
(1.37317 -0.523633 0)
(2.28152 -0.309429 -1.85173e-21)
(2.45638 -1.97431 0)
(1.79471 0.589846 0)
(2.00235 0.00814119 0)
(1.84901 -0.428874 1.23755e-19)
(2.07083 0.183108 -2.65218e-19)
(1.57265 0.0289037 0)
(2.73098 -0.996256 -3.52398e-19)
(1.97566 0.153153 -2.33627e-19)
(2.383 0.966477 3.987e-20)
(1.60354 -0.74268 1.52346e-19)
(1.86554 0.641233 1.81754e-21)
(1.92951 -0.823691 -6.02035e-21)
(1.88166 -0.271469 3.22502e-20)
(2.21533 -0.680405 -1.03177e-19)
(2.38879 0.188991 -7.98638e-20)
(1.62524 0.0308252 -4.70828e-20)
(1.84866 0.0531728 -2.66898e-19)
(2.11835 -0.0436611 0)
(1.42577 0.258287 1.05562e-19)
(1.98289 0.0501915 2.80609e-19)
(0.114712 -0.818264 -1.31858e-19)
(2.19002 -0.227788 -3.74003e-20)
(1.10462 -0.221204 -5.50647e-19)
(2.40693 0.167578 1.30006e-20)
(3.04167 0.650871 2.08786e-19)
(1.99671 0.0641891 0)
(1.48035 -0.307551 -1.72941e-20)
(1.80103 -0.088919 -1.52753e-20)
(2.25534 -0.695471 2.19662e-19)
(-2.62048 0.907185 -1.633e-18)
(2.09403 0.0363445 1.25447e-19)
(2.59935 0.290152 4.57037e-21)
(2.21761 0.0135737 1.83699e-21)
(2.51089 0.172087 0)
(0.821499 -0.387286 0)
(1.41726 -0.676209 2.1243e-19)
(-0.944857 0.884604 8.12263e-19)
(1.93456 0.0255394 1.8828e-22)
(1.98255 0.0513434 5.56475e-19)
(1.47436 -0.311399 5.60899e-20)
(1.46413 0.231916 0)
(1.82306 0.0710922 0)
(1.66769 -0.368226 -7.06606e-21)
(2.3975 -0.0100167 4.22096e-20)
(1.90897 0.627827 3.9305e-19)
(2.32618 -0.105681 0)
(2.1375 0.0122138 0)
(2.24161 -0.524986 -5.73264e-20)
(2.05967 -0.148668 1.55966e-19)
(-0.557121 -0.0463937 -3.68283e-19)
(1.72134 -0.0870683 0)
(1.19542 -0.118728 1.04177e-19)
(3.15775 -1.06149 -1.66502e-19)
(-1.60089 2.52105 -6.79196e-19)
(2.06953 -0.0229325 -2.52154e-19)
(3.61397 0.69512 0)
(3.75403 0.163401 4.64013e-19)
(1.0769 1.70201 -1.93676e-18)
(-0.364949 -0.157417 0)
(1.73681 0.031976 -2.97141e-20)
(1.93284 0.089203 -1.87193e-19)
(1.6909 0.016751 -1.26456e-23)
(2.21231 -0.183783 4.68019e-20)
(1.20504 1.04123 2.74579e-19)
(1.86324 0.0457157 0)
(1.0955 -0.417507 -5.98323e-21)
(1.44499 -0.312575 -5.32169e-20)
(1.00577 2.14436 -1.02426e-18)
(2.02629 0.27899 2.0324e-19)
(-1.62038 0.0311579 3.19524e-19)
(2.04514 0.0270938 -5.63613e-19)
(1.78231 -0.308985 -1.35965e-20)
(1.81737 -0.25754 2.60589e-20)
(1.80684 -0.392247 0)
(1.73519 0.0174987 -8.17489e-20)
(1.14254 -0.533248 1.98192e-19)
(2.27599 -0.073741 -1.67085e-19)
(2.00407 0.0465106 -2.50384e-19)
(2.96642 -0.41669 2.15643e-19)
(1.72196 -0.178 5.70271e-19)
(2.34372 0.0267666 9.09283e-21)
(1.80914 0.0749213 1.60212e-19)
(1.52425 0.18382 -3.9815e-20)
(3.51962 0.195039 -5.66508e-19)
(2.30807 1.06658 5.0103e-20)
(1.63771 -0.490183 1.95392e-18)
(1.87415 -0.0182006 0)
(1.49761 -0.474005 0)
(2.65796 0.384774 0)
(1.37648 -0.422063 4.35034e-19)
(2.1579 0.0689062 -4.09167e-19)
(1.80419 0.198619 0)
(1.57633 -0.337831 -3.21073e-19)
(1.80026 0.169141 0)
(1.81566 -0.28974 -2.18791e-19)
(2.50196 -0.669471 -2.61155e-19)
(1.963 -0.469232 -1.23212e-19)
(1.94231 0.0459376 0)
(1.97924 0.0388279 0)
(2.36773 -0.194439 1.2787e-19)
(2.55737 0.352231 5.83265e-22)
(2.95835 -0.0490431 1.81004e-19)
(2.20216 1.66701 -7.15061e-21)
(2.26544 -0.132351 0)
(1.82982 -0.6528 -6.62906e-20)
(-0.258676 0.441427 0)
(0.867855 0.843918 -3.00628e-19)