/*--------------------------------*- C++ -*----------------------------------*\
| =========                 |                                                 |
| \\      /  F ield         | OpenFOAM: The Open Source CFD Toolbox           |
|  \\    /   O peration     | Version:  2306                                  |
|   \\  /    A nd           | Website:  www.openfoam.com                      |
|    \\/     M anipulation  |                                                 |
\*---------------------------------------------------------------------------*/
FoamFile
{
    version     2.0;
    format      ascii;
    arch        "LSB;label=32;scalar=64";
    class       volVectorField;
    location    "1";
    object      U;
}
// * * * * * * * * * * * * * * * * * * * * * * * * * * * * * * * * * * * * * //

dimensions      [0 1 -1 0 0 0 0];

internalField   nonuniform List<vector> 
13486
(
(1.57438 -0.314946 5.16482e-19)
(1.77043 0.160142 2.4384e-19)
(2.11694 -0.0383051 0)
(1.16652 -0.677437 -2.5684e-19)
(2.55708 -0.444889 1.12177e-19)
(2.24612 0.0327529 -5.78464e-21)
(2.89218 -0.156919 4.95843e-21)
(2.17619 -0.769486 -2.40475e-19)
(2.04271 -0.416343 0)
(2.04994 0.48711 0)
(1.77813 -0.763289 -1.27598e-19)
(2.20702 0.0602341 0)
(1.46019 -0.518097 -5.12401e-19)
(2.42092 0.333106 2.15373e-20)
(2.6174 -0.109381 6.48162e-20)
(2.02174 0.486997 -1.49962e-19)
(1.13965 -0.58122 1.58723e-19)
(1.72745 0.519582 6.93155e-20)
(2.16582 0.0284207 2.34718e-21)
(1.72978 -0.149907 -5.21711e-19)
(1.25654 -0.872895 -9.80375e-20)
(1.47539 -0.530173 6.61969e-19)
(1.76331 0.162449 -1.948e-19)
(1.92966 -0.296733 0)
(2.07367 0.383391 4.96958e-20)
(1.96018 -0.269627 -2.7377e-20)
(1.07408 -0.532063 1.52681e-19)
(2.0397 -0.024766 1.12003e-19)
(2.01258 -0.0744516 0)
(1.95755 -0.0745685 -4.73035e-20)
(0.943431 -0.580391 -6.25155e-20)
(2.45136 0.186822 -1.01647e-19)
(2.1464 -0.235981 9.52847e-20)
(2.00356 -0.0375834 0)
(2.18575 -0.740046 0)
(2.05038 0.0296828 1.30054e-20)
(2.00921 0.0339782 2.99427e-20)
(1.72101 -0.802179 2.55107e-19)
(1.97227 0.042486 5.71765e-21)
(2.03519 -0.266983 2.57339e-19)
(2.89 -0.852085 0)
(1.07646 -0.532153 -5.96861e-19)
(2.09999 0.0470723 0)
(2.06185 0.303463 -2.42435e-19)
(2.10962 0.29492 1.0057e-19)
(2.16872 0.0755538 8.96984e-20)
(2.01682 -1.12273 4.86192e-19)
(2.03074 -0.000181775 1.91309e-21)
(1.99437 0.0322346 -2.26045e-20)
(2.2762 -0.0485279 5.00766e-20)
(1.9605 -0.0519629 3.0545e-19)
(1.96738 0.0280806 0)
(2.13675 0.172143 -1.46908e-19)
(1.7902 -0.671703 -3.73773e-19)
(1.6212 0.393176 0)
(2.51935 -0.456718 -8.31759e-20)
(2.02209 0.0256299 -1.82969e-20)
(1.9366 -0.00149854 1.73709e-20)
(2.15355 -0.232166 1.08515e-19)
(2.02344 0.0345085 0)
(1.75652 -0.725995 -1.29248e-19)
(2.02922 0.0794177 0)
(2.39413 -0.586394 -1.7525e-19)
(1.19765 -0.878994 -1.3103e-21)
(1.66879 -0.247636 0)
(2.00018 0.0244611 1.72131e-20)
(1.16318 -0.629005 -2.2386e-19)
(1.54939 -0.06689 1.7582e-19)
(2.04068 -0.431684 -1.4513e-19)
(1.9658 0.000182624 -1.10161e-20)
(1.01791 -0.537757 2.56958e-19)
(1.65847 0.425578 4.33955e-21)
(1.98729 -0.113139 1.91916e-19)
(1.89821 -1.13401 -1.49875e-18)
(1.97224 0.0537651 4.49006e-21)
(2.00937 -0.018798 4.67593e-21)
(1.96642 0.0307943 -1.19321e-20)
(2.64972 -0.131211 -2.57358e-20)
(1.94376 -1.05215 -2.06258e-19)
(1.8531 0.0630137 0)
(1.90377 -0.00802973 5.64677e-21)
(1.69795 0.229887 -1.55977e-20)
(2.34686 -0.65712 -1.53324e-20)
(2.02092 -0.016783 -1.61603e-20)
(1.57016 -0.325628 -1.01168e-18)
(1.54058 1.33702 0)
(1.94315 0.110949 3.5556e-20)
(1.97085 0.0171589 -4.67375e-19)
(1.918 0.112765 -2.01456e-19)
(1.96077 0.696178 -1.63245e-19)
(2.33033 0.262723 -6.58349e-20)
(2.30815 -0.627063 -1.21549e-19)
(1.63314 -0.408489 1.32858e-19)
(1.73409 -0.0307199 1.36531e-20)
(1.99173 -0.621845 5.84591e-20)
(2.03165 0.00444175 -1.18397e-21)
(1.22402 -0.604634 0)
(1.42036 -0.746789 9.29439e-20)
(2.02181 -0.260013 -4.90755e-19)
(1.47463 -0.771104 2.56366e-21)
(2.01575 0.0527068 0)
(2.37333 0.35446 4.51188e-21)
(1.42826 -0.736323 -4.51353e-21)
(1.9808 0.0135117 -2.05168e-20)
(1.49591 1.27266 0)
(1.52616 -0.839985 3.8511e-21)
(1.94133 0.0574222 -1.14507e-21)
(1.96874 0.0191413 1.15888e-20)
(1.96439 -1.07967 2.87545e-19)
(2.15619 -0.969689 0)
(1.60803 -0.765319 0)
(2.69669 0.228674 -5.03126e-20)
(1.79805 -0.654901 3.05781e-21)
(2.0054 0.0175423 8.15169e-22)
(1.25298 -0.191691 0)
(1.54273 -0.757857 -2.14266e-19)
(2.06983 0.382385 0)
(2.01624 -0.0482926 0)
(1.98641 -0.15235 0)
(2.00647 0.0263258 1.42956e-20)
(1.76026 0.499132 -3.84449e-20)
(1.74695 -0.737241 0)
(1.96084 -0.573929 0)
(1.93129 0.0260194 -1.69929e-20)
(2.0563 -0.722459 0)
(1.98005 0.00836827 0)
(2.28677 -0.217248 5.34843e-21)
(2.13083 0.0240188 1.08755e-19)
(2.01052 -0.00703154 -7.15195e-21)
(1.66289 -0.167985 -1.00549e-20)
(1.95735 0.0202372 2.24001e-21)
(2.04144 -1.15388 -1.24555e-19)
(3.79998 -1.61679 1.18328e-18)
(-0.78385 1.23432 1.59215e-18)
(1.98315 0.0065988 -4.8538e-20)
(1.94807 0.279803 -2.23449e-19)
(0.88569 0.513692 -1.56509e-19)
(2.15488 -0.950349 0)
(1.99661 0.0227053 -3.85737e-21)
(2.17733 -0.606584 -8.88668e-20)
(2.20638 -0.168043 -1.11095e-19)
(2.14225 0.196927 1.2545e-19)
(2.32095 0.135076 0)
(1.88795 0.0551373 0)
(2.06068 -0.0825439 2.63821e-21)
(2.11543 -0.548497 -1.93625e-19)
(2.04751 0.101021 -2.66516e-20)
(0.491251 1.27245 0)
(2.24556 -0.0387298 0)
(2.00096 0.012812 0)
(2.02017 -0.00395425 4.69489e-21)
(2.68516 -0.262948 0)
(2.0378 0.00602656 -5.92735e-21)
(1.69353 0.230702 -1.32786e-19)
(2.10877 0.190142 0)
(2.0255 -0.000801672 0)
(2.03898 -0.924084 0)
(1.67113 -1.3853 2.50322e-19)
(1.90622 -0.761852 5.22848e-19)
(1.9766 0.0462419 4.27565e-20)
(2.23584 -0.0175423 3.18564e-20)
(1.91285 -0.739862 -7.93548e-19)
(2.30568 0.505403 3.46988e-20)
(0.96598 -0.463196 2.62389e-19)
(1.99458 0.0286042 0)
(2.46347 0.292314 -5.54845e-20)
(2.31869 0.341854 1.61249e-20)
(0.680436 -0.274944 -6.5608e-19)
(2.03474 0.0859192 6.83569e-20)
(-1.043 1.49064 4.57037e-19)
(3.63032 -1.60376 -8.52645e-20)
(2.16432 0.153299 8.27094e-20)
(2.04633 0.0695138 -3.85426e-19)
(2.34714 -0.0502553 8.05519e-21)
(2.04341 0.0360093 7.18489e-22)
(1.54913 -0.596562 0)
(2.5127 0.585554 9.99081e-20)
(2.26062 -0.236008 1.674e-19)
(1.982 0.0304419 -4.9556e-19)
(2.29608 0.12503 0)
(2.10407 -0.301155 5.07616e-19)
(2.03081 0.0375808 2.57279e-21)
(2.35587 0.004109 -1.47931e-21)
(0.967017 -0.472955 0)
(2.06138 0.046507 3.91449e-20)
(2.02763 -0.025895 -5.30455e-20)
(2.01482 0.0201879 -5.94561e-21)
(1.99637 -0.0291792 -1.46298e-20)
(2.86676 -0.809125 0)
(1.38601 -0.668217 -2.7896e-19)
(1.99944 0.0110625 0)
(2.06041 0.00545845 0)
(2.02028 -0.000584267 0)
(1.45608 0.597138 -2.85617e-19)
(1.91039 0.0239789 0)
(1.76962 -0.778012 -3.57419e-20)
(1.66164 -0.174234 2.35691e-20)
(2.18113 0.0215254 1.57479e-20)
(1.35755 -0.66729 -1.1229e-19)
(2.43575 0.26131 -2.31988e-20)
(0.957151 -0.522057 5.33874e-20)
(2.12784 0.0842811 -3.40213e-21)
(1.64095 -0.785436 -2.95147e-19)
(2.1865 -0.922881 2.59142e-21)
(1.99645 0.0181691 -5.1097e-20)
(1.96045 0.030626 9.23877e-21)
(1.39953 0.632367 4.84066e-21)
(1.91683 -0.103278 3.96085e-19)
(1.92678 0.0674731 0)
(2.09909 0.0425259 0)
(1.96144 -0.0164573 5.61727e-20)
(1.85165 -0.242965 3.76547e-20)
(1.75531 -0.155734 4.77413e-19)
(1.94563 0.00869549 -1.30482e-21)
(2.28278 0.0917917 6.66628e-21)
(1.86081 -0.00912417 6.80495e-22)
(1.95415 -0.0922688 0)
(1.96097 0.694703 4.20991e-19)
(1.72054 -0.420523 0)
(2.73373 -0.160347 0)
(1.30439 -0.69957 -3.05736e-19)
(2.26676 -0.0656797 0)
(2.15802 -0.599199 2.05331e-19)
(2.25846 -0.0042719 0)
(2.11986 0.159113 -2.47953e-20)
(1.48212 -0.692525 1.83838e-19)
(2.33015 0.0448681 -1.69787e-21)
(1.31613 -0.489668 2.03584e-20)
(1.85416 0.0110991 5.48103e-22)
(1.95606 0.108559 -1.16856e-21)
(2.098 -0.27696 -1.63486e-19)
(2.2041 0.0257164 3.11765e-19)
(2.20137 -0.182198 1.40708e-19)
(1.10234 -0.534813 2.04601e-19)
(1.35141 -0.727413 0)
(1.31272 -0.635059 2.17297e-20)
(1.95703 -0.0405277 2.59059e-20)
(2.02993 0.0342645 -1.06556e-20)
(1.1669 -0.562551 5.8669e-19)
(2.28256 -0.000257807 0)
(2.10712 -0.260026 0)
(1.97028 0.0295147 5.90325e-19)
(2.01387 0.0115961 0)
(1.1678 -0.581074 1.95766e-19)
(1.97268 0.0278732 1.50164e-20)
(1.84688 0.00288303 0)
(2.17997 0.0561852 -3.75604e-20)
(1.94256 -0.177035 9.18366e-20)
(-1.90137 0.836748 2.96861e-18)
(2.04393 0.304915 0)
(1.52646 -0.730726 -3.67217e-20)
(1.222 -0.165375 7.59171e-20)
(1.3328 -0.651613 2.6859e-19)
(1.95412 0.0271577 0)
(1.92802 0.00255806 -3.82973e-21)
(1.59303 -0.608682 1.63393e-20)
(2.4492 0.190928 8.58891e-20)
(1.81601 -0.0156845 -8.60106e-22)
(1.7698 -1.44003 -2.66345e-19)
(2.11891 -0.243336 6.90289e-20)
(1.8137 0.133609 0)
(1.9796 0.020436 -6.90674e-22)
(2.61951 -0.109283 -1.54852e-19)
(1.58599 -0.612167 -2.03757e-20)
(2.47969 -0.740995 -1.1227e-19)
(1.13966 -0.558211 0)
(1.88802 -0.0134251 -3.24755e-21)
(1.08482 -0.660383 -9.50614e-20)
(2.08305 -0.00376743 -2.3638e-19)
(1.9103 0.290308 0)
(1.67536 0.671618 1.99922e-19)
(1.95676 0.0642103 -1.34143e-19)
(1.97881 -0.108314 0)
(2.17306 0.123763 7.86702e-20)
(1.43391 -0.683582 2.43954e-19)
(1.9434 -0.172388 -5.06502e-20)
(1.93084 0.0199197 0)
(1.57773 0.0947124 0)
(1.9358 0.0276604 1.13718e-20)
(2.0626 0.111604 5.17359e-20)
(1.58668 0.0783063 -1.79095e-20)
(2.15998 -0.187315 -1.86123e-19)
(1.93538 0.0485028 2.95115e-19)
(1.98436 -0.423186 -6.42351e-20)
(1.72899 -0.747726 1.57977e-19)
(1.63423 -0.808719 2.91922e-19)
(2.22928 -0.169161 1.36403e-19)
(2.03106 0.0309051 9.37993e-21)
(2.10067 0.179114 4.00857e-20)
(2.02351 -0.0628271 0)
(1.33315 -0.750696 0)
(1.99054 0.0716416 -1.73686e-20)
(1.57161 -0.753927 2.13862e-19)
(2.00028 0.0736669 -4.82948e-20)
(1.99508 -0.0731083 2.2678e-20)
(1.96578 -0.0420527 0)
(2.21192 -0.0186295 -3.69485e-20)
(2.20905 0.105816 -6.14859e-20)
(1.97694 0.0198002 -2.65828e-19)
(2.89543 -0.394889 -2.89893e-20)
(2.2635 0.500664 -4.11536e-20)
(1.4308 0.578413 5.32547e-21)
(2.03605 0.094139 -4.44757e-20)
(2.46135 0.155791 9.73662e-20)
(1.99678 0.00774825 -4.118e-21)
(1.84155 -0.838532 0)
(1.24054 0.0152008 0)
(2.23923 -0.0016336 7.06188e-20)
(1.98212 0.077472 -2.86769e-20)
(1.99168 0.0181474 0)
(2.88178 1.62044 -2.40842e-18)
(1.06289 -0.591642 0)
(2.41316 0.608334 -1.56671e-20)
(2.67215 0.245745 -6.17547e-20)
(1.89401 -0.631863 0)
(1.94482 0.274035 -1.37541e-19)
(2.02363 0.0342146 2.63877e-20)
(1.89246 0.128831 -1.70328e-20)
(1.9001 -0.0925943 -4.36656e-19)
(1.93795 -0.000529511 0)
(2.00801 -0.0125941 -2.88963e-20)
(2.00126 0.0357184 1.92396e-22)
(1.98422 0.0294575 6.28382e-20)
(1.72634 0.0150272 -2.54461e-19)
(0.969313 0.481884 2.85728e-19)
(2.34507 0.256616 1.29143e-19)
(2.38426 -0.291482 -4.73952e-19)
(2.17614 -0.167966 0)
(2.05435 0.078179 1.2124e-21)
(2.42225 -0.282419 -7.94122e-20)
(2.01362 0.045382 6.73011e-19)
(2.3495 -0.623166 0)
(2.29292 0.31037 -3.03732e-20)
(1.56467 0.228797 0)
(2.89819 -0.174677 5.77077e-21)
(2.05706 -0.57507 -1.57475e-19)
(0.875671 -0.418818 2.45246e-19)
(2.67181 -0.299745 -8.99041e-20)
(2.0456 0.147408 0)
(1.98868 0.0370024 2.50044e-20)
(1.90253 -0.00458712 1.88281e-21)
(1.73699 0.0144759 2.40298e-19)
(2.43838 -0.277717 3.24333e-19)
(2.38133 -0.0138838 1.66475e-19)
(1.62512 -0.766605 -1.16277e-19)
(2.00983 0.0301641 -5.1875e-21)
(2.20125 -0.133028 0)
(1.22987 -0.474263 5.91713e-19)
(2.69875 -0.189657 0)
(1.99816 0.0315772 -2.45419e-21)
(2.16588 -0.0891834 3.06527e-19)
(2.16976 0.116948 -6.47598e-20)
(2.1649 0.0982719 6.21979e-20)
(1.17895 -0.580172 -1.69421e-19)
(1.9715 0.00897202 3.33248e-19)
(1.98306 0.0114482 0)
(2.09674 -0.939585 -1.12506e-18)
(2.29499 -0.197121 -1.07017e-19)
(1.98337 0.0853292 1.39664e-20)
(1.83333 -0.195704 3.62993e-20)
(2.22214 0.0388164 0)
(2.25646 0.267489 9.51607e-20)
(1.82335 0.0727905 5.12204e-19)
(1.98903 0.0745661 4.08511e-19)
(1.97094 -0.107511 0)
(2.00714 -0.0130112 -6.95739e-22)
(1.99212 -0.042861 -2.43308e-20)
(2.15076 -1.2356 8.14578e-20)
(1.66979 -0.126511 6.62524e-20)
(2.23058 -0.167418 1.01735e-19)
(1.91597 -0.0151475 -6.20801e-21)
(2.27184 -0.10273 0)
(2.09629 0.200936 -9.44438e-20)
(1.55603 -0.733593 3.49649e-20)
(2.26995 0.152183 -5.47572e-21)
(2.04829 0.0559643 2.56327e-19)
(1.55564 0.0504988 0)
(1.99906 0.0528412 3.15055e-20)
(1.92092 -0.615223 0)
(3.36275 -0.144102 -3.06529e-19)
(2.04173 -0.0849143 0)
(2.34703 -0.734295 -6.49876e-21)
(1.4785 -0.224847 -1.43227e-19)
(1.65907 0.614732 4.77258e-19)
(2.10992 -1.19875 -3.29634e-19)
(1.92342 0.00368924 0)
(2.23304 0.0791012 -8.76434e-20)
(1.99092 0.174577 -1.48011e-19)
(0.199746 -0.41746 -1.88772e-19)
(0.809444 -1.04202 2.10116e-20)
(1.74547 -0.143141 -7.20201e-19)
(2.02213 -0.0824845 2.74432e-20)
(2.10303 0.138085 1.04799e-19)
(1.62931 -0.53716 0)
(1.50434 0.150897 2.78009e-19)
(2.00592 0.0124647 1.12799e-20)
(1.10223 -0.608713 1.46666e-19)
(1.54672 -0.735603 -1.22184e-19)
(0.773844 -0.617868 -2.40437e-19)
(2.26301 -0.164918 0)
(0.50634 -0.637964 0)
(2.14268 0.817822 0)
(2.09214 -0.104211 0)
(1.25547 -0.314332 -2.08731e-19)
(2.85857 -0.0910775 0)
(1.98254 0.148673 0)
(1.75462 0.00477819 9.90674e-20)
(2.2086 -0.247635 -1.7292e-19)
(2.20976 -0.146995 -2.48424e-19)
(1.77302 0.16511 8.27747e-19)
(1.96638 -0.00194111 -7.96061e-20)
(2.59073 1.2914 0)
(2.03879 -0.0971746 0)
(1.97348 0.00439692 2.8654e-19)
(2.04675 -0.00207304 5.06582e-20)
(1.47658 0.636276 0)
(0.949283 -0.474363 1.21168e-19)
(2.45747 -0.764553 1.26452e-19)
(3.21809 -1.88485 0)
(2.29236 0.0111126 1.68354e-19)
(2.00897 0.0192606 -3.32299e-19)
(2.5597 1.54577 1.45374e-19)
(1.22228 -0.45988 0)
(2.00816 0.144755 2.79517e-19)
(2.26473 -0.00999597 0)
(1.99856 -0.0406221 0)
(2.16082 0.0971629 -1.50209e-20)
(1.87512 0.0470546 1.55835e-19)
(1.19509 -0.591998 -1.97354e-19)
(2.27852 0.347669 1.73892e-20)
(1.51371 -0.443314 -2.53311e-19)
(2.08871 -0.0586298 3.38749e-20)
(2.10397 0.142425 8.30301e-20)
(2.08002 0.158504 2.45241e-19)
(2.57916 -0.726577 0)
(1.99046 -0.186977 5.13474e-20)
(1.48052 -0.179366 0)
(1.99968 0.0497555 -1.64107e-20)
(2.33665 -0.0701359 0)
(1.56573 -0.0491899 3.71593e-19)
(1.78013 -1.4892 -4.43044e-19)
(1.9805 -0.0843029 0)
(0.468138 0.539408 6.54721e-20)
(2.03378 -0.104397 -6.78424e-20)
(1.98244 0.0655554 4.31643e-20)
(1.89345 -0.328648 6.77821e-19)
(1.56015 0.585411 -3.07871e-19)
(1.50364 -0.430913 -7.21051e-19)
(3.33479 -0.163361 0)
(2.0036 0.0156283 -1.33408e-20)
(1.64123 -0.770273 -2.72189e-19)
(2.01041 0.148209 0)
(1.86752 0.172941 1.85447e-20)
(2.22968 -0.0502157 -1.02643e-20)
(2.78656 0.479725 0)
(2.04033 -0.00184541 0)
(0.913674 -0.459854 0)
(1.54984 -0.577511 6.66478e-20)
(1.95079 -0.434853 7.67956e-20)
(2.11996 -0.513215 5.24846e-21)
(2.37771 0.594163 0)
(1.81352 -0.246764 4.63261e-19)
(1.97388 0.00497723 1.76085e-21)
(2.28706 0.334184 -3.37922e-20)
(1.32912 -0.882455 2.37685e-19)
(1.93463 0.117044 0)
(2.02395 -0.0678864 0)
(0.972404 -0.262632 -4.08039e-19)
(1.60516 -0.529721 -1.76347e-19)
(2.00879 -0.195698 0)
(1.69114 -0.813511 -1.85914e-19)
(1.95095 -0.00406977 2.64375e-21)
(1.9809 -0.0309859 2.99603e-22)
(0.983087 -0.467681 0)
(2.00143 0.0276836 -1.0146e-21)
(2.00607 0.023183 -1.07108e-20)
(2.28151 -0.00726214 2.45791e-20)
(2.04272 -0.59681 0)
(1.66339 -0.827447 -4.39129e-19)
(2.10683 0.0818145 6.70797e-20)
(2.03142 0.0777398 6.14828e-20)
(1.94267 -0.00710251 -4.81159e-21)
(2.4917 0.242323 0)
(1.75594 0.16682 -2.20193e-19)
(2.52861 -0.203471 -1.15101e-19)
(0.947268 -0.592259 4.1995e-20)
(1.98079 0.00413978 0)
(0.767319 -0.871477 -2.13409e-20)
(0.734168 -0.250085 0)
(1.98892 -0.0313365 -2.42272e-19)
(2.08165 0.0685977 9.86565e-20)
(1.87654 -0.0258281 -5.64114e-20)
(1.56451 -0.609734 0)
(2.03501 0.0362379 -3.09407e-20)
(1.26603 0.270554 7.74803e-19)
(2.54177 -0.719356 0)
(1.73579 -0.0253017 3.10071e-19)
(2.85671 -0.420166 3.31377e-20)
(2.08917 0.0242671 0)
(1.10009 -0.62838 3.68299e-20)
(1.91284 0.0557562 1.06579e-20)
(2.02899 0.0270933 0)
(1.64665 -0.903178 3.01937e-19)
(1.83366 0.122595 0)
(1.95113 -0.882712 2.07121e-19)
(1.53063 -0.718237 6.8141e-20)
(2.01481 -0.00273875 5.97506e-21)
(2.25642 0.0837275 2.37567e-21)
(1.49567 0.136998 1.47502e-19)
(1.8815 -0.349029 -2.49507e-19)
(1.94669 -0.00656067 -8.80527e-22)
(1.96102 -0.873647 2.73437e-21)
(2.26918 -0.165921 9.81584e-20)
(2.47466 0.260767 1.16229e-19)
(2.25336 -0.988649 0)
(2.0504 0.0121379 -2.27406e-19)
(3.37909 -1.90855 -4.88596e-19)
(1.51177 -0.183902 0)
(2.01703 0.0167128 4.90208e-21)
(1.93741 0.0113518 0)
(1.41352 -0.460381 6.23941e-19)
(2.31463 -0.818353 0)
(2.05271 -0.0517607 -2.62441e-20)
(2.31006 0.00183623 -1.74139e-19)
(1.16552 -0.52563 5.52742e-20)
(1.021 -0.514147 1.32812e-19)
(2.29229 -0.0981043 -1.54564e-21)
(1.73616 -0.824439 1.36765e-19)
(1.94461 -0.567302 2.36833e-19)
(1.63253 -0.41753 0)
(0.950642 -0.473872 -8.53227e-20)
(2.60336 -0.639619 -2.70039e-20)
(1.0186 -0.492012 -1.00362e-19)
(1.99873 0.0210606 3.71063e-21)
(1.63299 -0.648315 0)
(2.12625 -0.0899437 -1.33208e-21)
(1.04968 -0.505897 0)
(1.43395 -0.731214 -4.76758e-21)
(2.50926 1.48759 -2.32726e-19)
(1.8114 -1.0183 0)
(2.2392 -0.546756 6.4855e-20)
(1.63022 -0.220093 0)
(2.76661 0.412751 0)
(1.79638 -0.843943 -2.73355e-19)
(1.59213 0.202386 2.23915e-19)
(1.8645 0.0568155 0)
(1.83201 0.113225 -1.40075e-19)
(2.14425 -0.553701 2.22907e-19)
(1.57842 -0.736046 1.54717e-19)
(2.96815 0.772925 0)
(2.03087 0.0127624 0)
(1.66035 -0.776682 -1.18684e-19)
(1.91169 -0.172046 0)
(2.06044 0.0146282 0)
(1.74713 -0.714115 -6.60021e-23)
(2.1967 -0.385903 -3.22429e-19)
(1.90249 -0.482083 2.06679e-19)
(2.06858 -0.260421 9.6551e-21)
(0.861912 -0.424674 1.78584e-19)
(2.00351 0.0302695 1.16398e-19)
(1.67418 -0.439322 0)
(2.15452 0.264105 -3.75728e-20)
(1.5599 -0.300448 0)
(2.07034 -0.00814565 0)
(2.02155 0.1873 0)
(2.12577 0.118985 -1.32899e-20)
(1.90231 -0.0739686 2.01223e-19)
(2.03424 0.0129826 -7.19369e-21)
(1.71828 -0.440678 0)
(1.02824 -0.507767 -1.40378e-19)
(2.15556 0.770805 4.20178e-20)
(2.05685 -0.736054 2.15759e-20)
(1.95125 -0.0262846 -9.89479e-21)
(1.9715 -0.156989 8.91786e-20)
(1.94692 -0.0345743 -1.94154e-19)
(1.78402 -1.58887 0)
(2.13149 0.0985743 0)
(1.58395 0.615115 0)
(1.4271 -0.648135 -4.48522e-19)
(1.36746 -0.195935 -1.02759e-20)
(2.17044 -0.869489 0)
(2.1578 0.262679 0)
(2.12354 0.184164 9.93706e-20)
(2.13705 -0.0150122 -5.27601e-20)
(1.9685 0.417399 2.22896e-19)
(2.19958 -0.916787 0)
(1.72998 -0.821871 -5.29747e-20)
(2.24338 0.0794991 4.13765e-20)
(1.57344 -0.499248 -4.22872e-19)
(2.17296 0.0321915 -7.61519e-20)
(2.25199 0.316794 6.6616e-20)
(1.79014 -0.324935 3.31939e-20)
(1.42236 -0.649323 7.83037e-19)
(1.78444 -0.0597324 5.98825e-21)
(2.02846 0.00916551 2.12546e-21)
(2.00197 0.0289616 -5.79026e-20)
(1.54027 -0.72061 -5.69346e-20)
(1.96843 0.030798 -4.22148e-21)
(1.81509 1.7456 -2.33678e-21)
(1.69307 -0.805368 9.77206e-20)
(2.03678 0.0597064 0)
(2.04356 0.119764 -1.02318e-20)
(2.02641 -0.0565566 -2.17207e-19)
(2.69798 0.0494507 8.89944e-20)
(1.54155 -0.47229 -3.86173e-19)
(2.03682 -0.708751 -2.38301e-19)
(1.99878 0.0262509 5.24513e-19)
(2.30438 -0.10207 -2.99406e-19)
(2.02945 0.17658 -6.49687e-20)
(2.25017 -0.170306 -7.02762e-20)
(1.32859 -0.288292 -8.51589e-19)
(2.09946 -0.0442953 -1.78065e-19)
(1.31997 -0.345821 0)
(1.30503 -0.494849 -9.22459e-20)
(1.97426 0.00616551 4.85661e-19)
(2.02033 -0.0191043 -7.36461e-22)
(1.35191 -1.06515 0)
(1.98882 -0.906846 0)
(2.07089 0.270918 1.96983e-19)
(1.21564 -0.285501 5.31568e-19)
(1.66386 -0.358083 -4.47345e-20)
(2.37467 -0.722808 -9.803e-20)
(2.40522 -0.300143 2.56842e-19)
(2.70475 -0.211034 0)
(2.08048 0.30205 1.06201e-19)
(1.5876 0.614998 1.57848e-21)
(2.55352 0.569235 1.0847e-19)
(2.06256 -0.282831 -2.93149e-19)
(1.04961 -0.517777 -2.88664e-19)
(1.96875 -0.14935 -8.67783e-20)
(1.95501 -0.194626 2.84844e-20)
(2.39055 0.803973 0)
(1.92727 -0.0171404 -6.57976e-21)
(1.88074 0.0253604 5.09013e-20)
(2.01101 -3.29681e-05 2.14974e-21)
(0.994451 -0.483179 7.1971e-19)
(2.05554 -0.279174 4.39383e-19)
(2.01649 0.0420927 -2.20654e-20)
(1.56924 -0.736249 -9.43261e-20)
(1.96855 -0.0762988 -2.65639e-20)
(2.07213 0.103723 1.59728e-19)
(1.73349 -0.756454 -2.06712e-20)
(2.47155 0.562002 -9.83015e-20)
(1.61039 -0.860502 -3.27444e-19)
(1.20529 -0.586432 -2.36932e-19)
(2.01367 0.0137646 0)
(2.05457 -0.0133706 -1.07947e-20)
(1.66642 -0.683585 -4.87271e-20)
(1.47624 -0.250239 7.70709e-19)
(2.01309 0.00598145 0)
(2.22167 0.464358 4.28643e-20)
(1.38159 -0.589583 1.77697e-19)
(1.875 0.0610241 -4.96121e-19)
(1.40162 -0.690074 -1.14504e-19)
(1.89896 0.0932867 6.95842e-21)
(2.22912 -0.152 1.68594e-19)
(2.21581 -0.00790287 1.2598e-19)
(1.9817 -0.896511 -2.82977e-19)
(2.03099 0.00578312 9.0066e-21)
(1.42171 -0.252077 -4.57898e-20)
(2.00863 0.0174343 2.04158e-19)
(2.10096 -0.0183911 -1.43981e-19)
(2.1235 0.0829571 -7.89078e-21)
(2.15166 0.0124112 -3.1216e-19)
(1.3318 -0.600534 -3.43521e-19)
(2.019 0.00893224 0)
(1.46811 -0.590304 5.71696e-20)
(2.01442 -0.00500537 3.75742e-20)
(2.90163 1.26671 2.0875e-19)
(2.24806 -0.0586643 1.63291e-20)
(2.36085 -0.340864 -1.60481e-19)
(2.0326 0.00229457 -3.83348e-19)
(2.11794 0.197536 6.09162e-20)
(0.859316 -0.429245 -1.24405e-19)
(2.16497 0.0610181 0)
(1.98309 0.0250046 -1.53e-20)
(2.11878 0.0821448 6.62963e-20)
(1.63838 -0.632872 0)
(2.10259 0.0565144 1.23145e-19)
(2.09382 0.0859431 8.89704e-20)
(2.10559 0.00683841 7.72205e-24)
(2.9492 -0.85779 9.74176e-20)
(1.95703 0.0337993 0)
(1.84031 0.215031 3.97774e-19)
(2.02368 0.0432692 2.4077e-20)
(1.6496 -0.791059 2.26693e-19)
(2.06815 -0.184416 0)
(1.5835 0.158855 -6.46736e-19)
(1.83122 0.47767 -4.37705e-20)
(2.74501 1.00906 -3.39672e-19)
(1.33889 -0.308226 8.26485e-19)
(2.00958 -0.00527908 5.97337e-21)
(1.06413 -0.537491 1.02614e-19)
(1.99139 -0.161046 -3.14512e-19)
(2.03274 -0.177344 -7.64048e-20)
(1.83913 0.0691167 -2.96604e-19)
(2.04108 -0.00634396 0)
(2.06677 0.0255365 -2.1797e-19)
(0.295995 -0.214988 9.7812e-19)
(1.07799 0.549249 0)
(1.88343 -0.263032 0)
(2.05652 0.00533319 0)
(1.03304 -0.551932 0)
(2.0612 0.202119 0)
(1.27708 -0.282181 0)
(1.8863 -0.0491899 -9.3905e-22)
(2.09898 -0.470602 -9.97498e-20)
(2.34637 0.0589649 0)
(1.83135 0.229173 6.03696e-19)
(1.89025 0.252135 9.64182e-20)
(2.05206 0.123263 4.03163e-21)
(1.69575 -0.687826 -2.72281e-20)
(1.27653 -0.0562001 -1.78667e-21)
(1.03574 -0.515874 1.0428e-19)
(2.1924 -0.0400869 -1.10578e-19)
(2.18959 -0.105212 7.3354e-21)
(2.01842 0.219078 -1.40092e-19)
(1.88175 0.11307 -3.98618e-19)
(2.0907 0.70574 -1.37739e-19)
(3.32466 -0.0333135 0)
(1.12493 -0.951076 5.73852e-20)
(1.43124 -0.472801 -6.84031e-19)
(1.99346 0.0269472 -6.86918e-19)
(2.61713 -0.649297 -1.0736e-19)
(2.01843 -0.0157395 5.08694e-20)
(3.04164 -0.481319 -1.18759e-19)
(2.23466 -0.271104 -3.68115e-20)
(2.2503 -0.530535 -2.23894e-19)
(2.05863 0.19531 1.54123e-19)
(3.73686 1.37691 0)
(1.92252 0.0189764 2.51004e-21)
(1.74084 0.00277566 -9.10666e-20)
(2.88334 -0.0133964 0)
(1.94846 0.0323142 0)
(2.07754 -0.937285 -3.85639e-21)
(1.25987 -0.632802 1.09315e-19)
(1.85506 -0.0106509 -8.89667e-21)
(1.97516 0.0125256 0)
(1.94965 -0.0967596 -4.16667e-19)
(1.84602 0.0943598 -7.67802e-20)
(1.40292 -0.601981 3.68685e-20)
(2.08088 0.0584034 4.30439e-20)
(1.02776 -0.507913 0)
(1.20511 -0.937918 5.68168e-20)
(2.06076 0.0625554 0)
(1.90211 -0.0224441 5.74691e-21)
(2.27438 0.273635 -7.12128e-20)
(1.95319 0.0388981 1.07404e-21)
(2.33208 0.34936 -2.66474e-20)
(2.85784 0.663607 -3.92628e-20)
(1.89309 -0.547493 4.94422e-19)
(0.414749 -0.0172871 0)
(1.61534 -0.144299 -1.60086e-20)
(1.7675 0.159885 0)
(2.35515 0.0314227 -2.23888e-20)
(1.40957 -0.626031 8.73256e-20)
(1.88688 -0.251382 5.07822e-20)
(1.98998 0.037133 1.48554e-20)
(1.62242 -0.612972 -1.03487e-19)
(1.43614 -0.700433 -2.6199e-19)
(1.46676 -0.478522 -3.94824e-19)
(2.00941 0.00538138 -3.63245e-21)
(1.64401 -0.127879 1.32545e-20)
(1.36695 -0.611444 2.82716e-19)
(1.52351 -0.501542 4.33467e-19)
(1.33445 -0.193768 2.19715e-20)
(1.69543 -0.180264 -1.17464e-20)
(2.00904 -0.619593 2.39704e-19)
(2.07935 -1.38377 3.833e-19)
(2.0647 -0.0179917 6.3295e-21)
(1.86881 0.248814 -8.2416e-20)
(2.25239 0.168142 -3.29212e-20)
(2.49512 -0.495038 0)
(0.880636 -0.516559 -4.06243e-19)
(2.07325 -0.0377698 -2.62303e-19)
(1.99271 0.127154 0)
(2.36698 0.0305861 0)
(1.56144 0.0237738 1.13317e-20)
(2.02961 -0.296714 -8.15767e-20)
(2.28438 0.0545878 -3.12866e-20)
(2.20303 -0.374211 4.22247e-19)
(2.063 0.676877 1.28592e-19)
(1.80104 -0.00253276 2.90595e-19)
(1.44332 -0.624879 2.9803e-21)
(1.86228 0.440323 0)
(1.55612 -0.525037 4.14725e-19)
(1.88861 -0.842809 4.59312e-20)
(1.61596 -0.613483 7.85887e-20)
(1.90151 -0.723368 8.06638e-20)
(1.96191 -0.873221 -3.0409e-21)
(2.11579 -0.0874854 1.56464e-19)
(1.97281 0.0553326 -6.30146e-21)
(1.96345 -0.0838202 5.09017e-20)
(1.46047 -0.633841 -5.69873e-20)
(2.2574 0.0559937 2.54826e-20)
(1.90545 0.0382592 1.68212e-19)
(1.31455 -0.337189 -3.39862e-19)
(1.94857 -0.148651 2.55707e-19)
(2.01165 0.179087 0)
(2.29001 0.134199 2.04383e-20)
(1.97341 0.0333034 3.74578e-20)
(1.62066 -0.386699 -1.32578e-19)
(2.07977 1.5025 4.99559e-20)
(1.97544 -0.609463 1.80469e-19)
(2.02602 -0.0263051 7.30514e-20)
(1.50371 -0.00216837 -5.04938e-19)
(2.85564 -0.0680822 0)
(1.98295 0.0345606 2.7355e-20)
(2.15449 0.0673333 1.033e-19)
(1.89726 -0.00620332 0)
(1.51932 -0.0833876 2.87931e-19)
(2.11919 0.0403481 0)
(1.95261 1.5359 8.39763e-20)
(2.24545 0.110575 0)
(1.89814 0.0196857 0)
(2.14479 0.0019521 4.52032e-20)
(2.22385 0.0206692 3.61502e-20)
(2.35261 -0.16525 -1.46049e-19)
(1.93277 0.0815598 -1.81909e-19)
(1.73824 0.922967 -1.24444e-19)
(2.04928 0.136032 -7.26646e-20)
(2.09029 0.190191 0)
(2.11227 -0.844379 -4.42582e-20)
(2.2666 -0.00425325 1.6785e-21)
(1.91959 -0.0218585 -1.00891e-20)
(2.49382 -0.490499 0)
(2.70126 0.058108 1.34331e-19)
(2.40615 1.34939 1.86645e-20)
(1.97396 0.030532 3.23773e-20)
(1.72162 -0.505226 0)
(1.75588 -0.697229 9.96953e-20)
(2.0435 0.145151 0)
(1.96953 -0.0756418 -2.63938e-20)
(-1.84266 0.851972 0)
(2.2632 -0.750317 0)
(1.7867 -0.0633216 0)
(2.2614 -0.814094 0)
(1.77472 -0.802443 -2.4356e-20)
(1.53738 -0.561976 -1.47596e-20)
(1.91159 -0.0661482 -3.02028e-19)
(1.19759 -0.557036 -6.82743e-20)
(1.44287 -0.63425 0)
(1.3095 -0.449742 -2.90697e-20)
(-1.47464 0.382373 -2.90731e-18)
(1.74892 -0.814655 0)
(1.63536 -0.59578 -4.40424e-19)
(1.97776 -0.0172781 4.12999e-21)
(2.23899 0.166565 8.06348e-20)
(2.79369 -0.836053 -3.28271e-20)
(1.88451 0.0986564 0)
(2.46938 -0.70871 0)
(2.43067 -0.397048 7.41839e-20)
(1.93462 0.0435881 -2.00276e-21)
(2.00447 0.0147958 9.03219e-21)
(1.58895 0.0275885 8.85523e-22)
(1.99956 0.00582928 1.61088e-20)
(2.02433 0.002699 -4.26208e-21)
(2.01488 0.16519 2.28568e-19)
(1.98004 0.0452912 -1.61863e-20)
(2.05434 -0.557106 0)
(1.55556 -0.765117 0)
(2.02091 -0.000264441 0)
(2.01811 0.0231251 0)
(1.85052 -0.369393 1.84352e-19)
(2.16308 -0.119775 0)
(1.76436 -0.753863 2.40637e-19)
(1.77485 -0.340672 -2.3632e-21)
(1.49287 -0.519282 -6.51924e-19)
(1.88735 0.279421 -4.677e-20)
(1.47672 -0.562009 -3.28073e-20)
(1.8292 -0.752766 -1.27311e-19)
(1.92578 -0.0467397 5.77842e-20)
(1.51145 -0.652503 -5.27031e-20)
(1.98427 0.0124115 -2.31212e-20)
(2.16697 0.0152299 0)
(2.51098 -0.180392 0)
(1.94493 0.171085 0)
(2.34295 -0.367345 8.41922e-20)
(1.6706 -0.204908 0)
(1.88948 0.438388 0)
(1.99811 -0.0168006 0)
(1.91836 -0.481233 1.92641e-19)
(2.0514 0.107458 -2.1021e-19)
(1.94233 0.0502972 0)
(1.92783 -0.0470703 -1.14596e-20)
(1.98589 0.167392 -2.152e-19)
(2.53331 0.484764 -2.22895e-19)
(1.76301 -0.815025 2.57126e-19)
(1.96979 0.47309 7.73048e-22)
(1.88303 0.0280305 1.24732e-21)
(1.95707 0.0171186 -1.12258e-20)
(1.88813 0.0270841 5.42508e-21)
(2.24974 0.0876382 -4.93414e-20)
(2.00443 0.00967421 2.15545e-20)
(1.86822 0.0155818 -2.86529e-19)
(1.97151 -0.0850239 0)
(2.79495 1.20016 -1.5782e-19)
(1.96332 0.0503495 3.00733e-19)
(1.65889 0.495627 -3.46449e-20)
(2.21287 -0.265917 -1.06798e-19)
(1.24158 -0.303117 -5.80129e-19)
(2.2177 0.0619966 8.78741e-21)
(2.53156 -0.212324 1.65758e-19)
(2.05712 0.128596 0)
(2.01463 0.122618 -2.66764e-20)
(1.99085 0.0137901 4.94946e-21)
(1.91917 0.0116113 -2.16683e-21)
(1.31991 -0.886059 -2.72299e-19)
(2.04949 0.0559462 1.55874e-19)
(2.01103 0.00799806 -2.97196e-21)
(2.0054 -0.0363893 -2.14905e-21)
(2.02207 0.0092523 0)
(1.96971 0.397149 0)
(1.61446 -0.769185 3.17633e-19)
(1.29189 -0.636656 1.22678e-19)
(2.02171 -0.017828 -2.45516e-22)
(1.95304 0.0344539 6.07088e-19)
(2.01651 0.105828 8.21533e-20)
(1.55512 0.146632 0)
(1.83692 0.0157735 0)
(1.73415 -0.421074 -3.28711e-21)
(2.2164 0.0188096 6.63059e-20)
(2.01049 0.444885 2.95988e-19)
(2.30208 0.129605 0)
(2.07362 -0.0272357 0)
(2.30302 -0.599932 2.92392e-19)
(2.04766 -0.164503 2.39212e-19)
(0.656196 -0.523331 -9.45618e-20)
(2.00566 0.0151884 0)
(2.28031 -0.795905 7.77465e-20)
(1.8947 -0.101058 -8.17033e-21)
(1.66052 -0.68457 -6.92012e-20)
(1.96972 -0.0553381 -3.34655e-19)
(2.14793 -0.447112 0)
(2.07659 -0.294881 6.42711e-20)
(1.72607 -0.473906 -6.92298e-20)
(0.363125 -0.237734 0)
(1.96858 -0.0960075 1.8547e-20)
(1.93118 0.0605296 -1.95126e-19)
(1.94501 0.00648082 8.18114e-24)
(2.32254 0.304559 3.61233e-20)
(2.79862 2.03619 7.7942e-19)
(1.98295 0.0126393 0)
(1.24438 -0.49358 -4.26878e-21)
(2.00115 0.136467 -7.59172e-20)
(1.9052 -0.591123 -1.45984e-19)
(2.01836 0.194109 1.66261e-19)
(0.513549 0.252484 1.05602e-19)
(2.0013 -0.0321581 -7.42504e-19)
(2.04521 0.050912 1.09572e-20)
(1.95901 0.0277728 -1.65153e-20)
(1.8806 -0.448357 0)
(1.91113 0.0187117 2.16634e-20)
(1.31223 -0.608978 2.25741e-19)
(2.19227 -0.044663 -3.4183e-19)
(1.96685 0.0355922 -2.73866e-19)
(1.9741 -0.0815315 2.15516e-20)
(1.76195 -0.243754 6.83338e-19)
(2.02348 -0.000554074 -4.50865e-21)
(1.8135 0.0306723 1.65838e-19)
(2.01118 0.0148743 1.3656e-20)
(2.1036 -0.260606 -1.12288e-19)
(2.52063 0.588351 -1.76601e-19)
(1.68478 -0.366038 3.50204e-20)
(1.96772 0.107 0)
(1.94669 0.127175 0)
(2.01231 -0.0201924 0)
(1.48948 -0.486209 5.04643e-19)
(2.01259 -0.0235718 -4.40054e-19)
(1.84707 0.126728 0)
(1.65594 -0.39813 -3.93062e-19)
(1.84262 0.106739 0)
(1.8554 -0.343535 -3.02266e-19)
(1.90662 -0.0339142 -1.05029e-20)
(2.03166 -0.529089 -2.64618e-19)
(2.01376 -0.0143468 0)
(1.9072 0.0224449 0)
(1.94336 -0.0231529 6.52856e-21)
(2.28951 0.053906 1.69322e-21)
(2.15643 -0.0552687 4.62922e-20)
(2.64105 1.44377 -1.27459e-20)