/*--------------------------------*- C++ -*----------------------------------*\
| =========                 |                                                 |
| \\      /  F ield         | OpenFOAM: The Open Source CFD Toolbox           |
|  \\    /   O peration     | Version:  2306                                  |
|   \\  /    A nd           | Website:  www.openfoam.com                      |
|    \\/     M anipulation  |                                                 |
\*---------------------------------------------------------------------------*/
FoamFile
{
    version     2.0;
    format      ascii;
    arch        "LSB;label=32;scalar=64";
    class       volVectorField;
    location    "1.6";
    object      U;
}
// * * * * * * * * * * * * * * * * * * * * * * * * * * * * * * * * * * * * * //

dimensions      [0 1 -1 0 0 0 0];

internalField   nonuniform List<vector> 
13486
(
(7.1249 -1.00339 2.85934e-20)
(8.24987 1.44654 1.38981e-20)
(13.2988 0.178164 0)
(-8.56824 3.09978 -6.25389e-20)
(11.1898 -2.35261 5.43147e-21)
(12.3169 1.00209 1.04618e-21)
(12.3642 -1.51684 -4.74788e-23)
(9.48542 -3.32032 -1.26814e-20)
(9.42232 -1.82321 0)
(9.63039 3.79735 0)
(-6.17746 11.7053 -6.60583e-20)
(12.3968 -0.449095 0)
(6.22509 -1.81274 -2.84471e-20)
(11.9017 4.21408 -3.80917e-22)
(11.6701 -1.45371 2.67301e-21)
(9.4155 3.99945 -1.0185e-20)
(4.24683 -0.404386 4.21492e-20)
(2.97963 -2.71442 5.74727e-21)
(11.328 -0.056326 1.10646e-22)
(7.78848 -0.195737 -2.87592e-20)
(-7.59758 0.0267972 -2.2595e-20)
(6.32379 -1.86496 3.66488e-20)
(8.26051 1.41787 -1.11332e-20)
(18.8597 -3.97966 0)
(10.159 3.19663 3.29721e-21)
(18.5378 -3.93333 -1.96e-20)
(-1.77019 1.98465 5.30767e-20)
(14.0774 -0.637307 3.67159e-20)
(9.87753 0.571404 0)
(13.6508 -2.36464 -2.61874e-20)
(-6.56242 -3.3058 -1.30854e-20)
(11.8134 -1.12484 -4.8045e-21)
(16.4059 -0.276337 3e-20)
(11.7963 -0.848782 0)
(9.50267 -3.17403 0)
(9.10145 0.078802 1.37962e-22)
(7.79358 0.658191 -3.42404e-21)
(7.46262 -3.43424 1.40519e-20)
(8.59956 -1.0275 -1.04496e-21)
(9.60611 -1.15752 1.34273e-20)
(11.9992 -3.8161 0)
(5.28907 -2.44679 -3.38579e-20)
(10.7806 0.111596 0)
(10.2025 2.63991 -1.57753e-20)
(10.2225 2.63264 6.38399e-21)
(12.3571 -0.495035 3.60959e-21)
(-6.78117 5.32917 7.21224e-20)
(9.79676 0.57205 1.65329e-23)
(7.92665 0.696764 2.59615e-21)
(14.1961 0.235036 1.44621e-20)
(9.89653 0.141216 1.67627e-20)
(8.81457 -0.391339 0)
(12.4241 -0.909732 -5.46869e-21)
(7.86023 -2.90363 -2.03872e-20)
(3.1331 -3.74677 0)
(11.066 -2.42508 -4.00907e-21)
(12.0054 3.2966 1.85368e-21)
(8.90495 -0.637048 -4.52108e-21)
(16.5658 -0.150105 3.58454e-20)
(6.45051 0.752817 0)
(-6.66249 12.3248 -9.07927e-20)
(6.38246 1.02024 0)
(20.1408 2.64958 -2.70135e-20)
(-7.46929 0.327235 -2.40896e-22)
(9.63297 -13.1542 0)
(7.59667 0.792407 -1.77765e-21)
(-8.95938 3.20308 -6.70148e-20)
(7.1218 0.286296 9.74498e-21)
(9.44162 -1.93378 -7.5383e-21)
(8.4485 0.0904835 1.23168e-21)
(-9.50852 3.76021 7.73795e-20)
(3.26449 -3.50931 2.437e-22)
(9.52063 -0.520839 1.01957e-20)
(-5.99124 -2.32491 -2.31085e-20)
(7.41536 1.32781 -4.75769e-22)
(12.2167 3.07668 -3.93157e-22)
(7.52696 1.35284 1.25646e-21)
(11.6444 -1.51029 -1.05429e-21)
(-5.06871 7.68652 -3.55181e-20)
(9.06899 -2.98317 0)
(9.53295 0.131124 -2.49025e-23)
(8.12213 1.89422 -9.01418e-22)
(16.894 1.82407 -2.70765e-21)
(13.3312 -0.0258014 -3.59059e-23)
(7.09542 -1.05546 -5.56786e-20)
(6.95675 8.3014 0)
(7.06327 -1.36867 -6.48477e-22)
(9.9537 0.249496 -2.56353e-20)
(9.27131 1.05831 -1.14378e-20)
(8.61489 5.16905 -1.22891e-20)
(11.9821 -1.21851 -3.12289e-21)
(10.0953 -2.847 -6.12546e-21)
(7.46425 -1.45225 7.22892e-21)
(8.16732 0.423368 7.55422e-22)
(8.74406 -2.67575 3.09672e-21)
(9.71441 0.484055 -3.11201e-24)
(-2.67788 3.79665 0)
(-11.5868 3.32848 4.37571e-20)
(9.64307 -1.10006 -2.56597e-20)
(3.4664 0.585734 5.34857e-23)
(9.58499 0.0380065 0)
(11.8347 4.18889 -2.7632e-22)
(-11.8066 2.6427 2.623e-21)
(8.82165 -0.525453 5.28885e-21)
(6.38108 7.94554 0)
(2.51894 1.63021 4.68825e-23)
(9.72671 0.254627 4.17669e-23)
(8.61064 -1.11378 -2.368e-21)
(-5.11264 6.50368 5.25788e-20)
(9.75682 -4.46139 0)
(8.19455 -3.85826 0)
(11.5636 -1.23762 -3.75432e-21)
(7.91912 -2.8044 2.15073e-22)
(11.469 1.6558 -2.53295e-23)
(5.14755 -0.192074 0)
(8.00928 -3.78806 -1.14488e-20)
(10.0055 3.37477 0)
(12.0742 -0.795426 0)
(9.50652 -0.49662 0)
(8.33634 0.707106 -1.42914e-21)
(3.46721 -2.65306 -2.69235e-21)
(-9.18471 12.0621 0)
(8.53579 -2.42691 0)
(8.56213 -0.977037 3.3848e-21)
(9.02564 -3.10173 0)
(8.88631 -0.355704 0)
(10.563 -1.27373 2.67387e-22)
(10.8449 0.568904 5.24944e-21)
(11.1261 -0.465698 -3.49489e-21)
(11.1092 -11.5857 -2.24246e-20)
(8.70634 -0.324507 -5.65575e-22)
(-4.22809 4.04849 -1.79682e-20)
(-2.27763 0.685442 4.17157e-20)
(-0.446621 1.7982 2.36687e-20)
(9.96307 0.0724244 -2.72727e-21)
(9.3645 2.34149 -1.33772e-20)
(5.53062 4.19028 -8.45476e-21)
(9.42432 -4.17313 0)
(8.30044 0.672782 4.02957e-22)
(9.62108 -2.70697 -4.5921e-21)
(15.662 0.476623 -3.00784e-20)
(12.5766 -0.975873 4.61157e-21)
(11.9034 -0.927013 0)
(9.03565 -2.76642 0)
(11.7434 0.13154 -2.31506e-23)
(21.0328 1.99543 -5.70626e-20)
(10.984 -0.586522 1.02448e-21)
(-4.29473 8.05151 0)
(14.3798 0.389496 0)
(9.90436 0.531616 0)
(10.0746 0.0537012 2.59669e-22)
(11.6827 -1.77838 0)
(9.58679 0.0673149 2.60625e-23)
(7.69017 1.83488 -7.64681e-21)
(10.8772 1.82554 0)
(13.4545 0.205809 0)
(9.64787 -4.26121 0)
(-4.74737 1.56993 8.7767e-21)
(8.24027 -3.21155 2.832e-20)
(9.41511 -3.03622 -7.68155e-21)
(13.6097 0.245819 8.25115e-21)
(8.31151 -3.16135 -4.24615e-20)
(12.5953 -1.67144 1.82923e-21)
(4.83464 -2.35422 1.4889e-20)
(8.99002 -0.456194 0)
(12.5204 4.36635 -2.18906e-21)
(11.4958 3.77297 4.01383e-21)
(1.90211 -0.464234 -3.64606e-20)
(10.6567 -0.0223156 -2.16077e-21)
(-0.711387 1.42583 6.41214e-21)
(-6.82109 2.77049 5.91115e-21)
(10.8463 1.64883 4.74092e-21)
(9.73738 0.35047 -2.09856e-20)
(11.3022 -0.958928 3.85757e-22)
(9.57431 0.244773 -5.63082e-23)
(-15.5183 1.45041 0)
(11.6356 5.83408 -2.97971e-22)
(16.2878 0.971925 3.95139e-20)
(9.80421 0.190226 -2.69082e-20)
(11.97 -0.879345 0)
(9.80065 -1.2745 2.65956e-20)
(11.5159 1.52445 -3.26091e-23)
(11.5553 -0.855796 -1.77632e-22)
(-12.7241 7.20902 0)
(13.0553 -0.37478 3.63929e-22)
(13.4503 -0.495662 -1.66826e-20)
(10.239 0.510796 -7.5567e-24)
(12.9882 -1.69562 -7.32925e-21)
(11.7352 -3.7693 0)
(7.40349 -3.56671 -1.5736e-20)
(8.1015 0.806392 0)
(12.7256 0.346194 0)
(9.11211 -0.887301 0)
(6.57503 4.12448 -1.64889e-20)
(9.22462 -0.993684 0)
(-9.0216 11.8844 -1.98103e-20)
(11.3052 -14.2747 4.93345e-20)
(13.8807 0.155979 4.76397e-21)
(6.80174 -3.29748 -6.44397e-21)
(12.3547 4.0394 -2.54864e-22)
(-6.51482 -3.41337 1.2482e-20)
(10.8754 0.637002 -1.5792e-22)
(7.43501 -3.53068 -1.62834e-20)
(10.8052 -4.34014 1.09889e-21)
(10.1956 -4.01429 9.37366e-21)
(9.42023 -0.975039 -3.81361e-21)
(1.34368 -3.24496 1.17769e-21)
(9.28824 -0.195006 2.14267e-20)
(9.03068 -0.883726 0)
(13.124 -0.255229 0)
(13.6781 -0.741826 2.50232e-20)
(18.0542 -6.6226 4.13388e-20)
(7.9303 -0.0510484 2.64086e-20)
(9.46 0.242364 2.18351e-23)
(12.2816 1.22003 -1.20647e-21)
(10.599 -4.23306 2.79008e-21)
(13.984 -1.92547 0)
(8.71604 4.78076 3.06626e-20)
(7.67601 -1.58386 0)
(15.9311 5.18106 0)
(3.78554 1.18785 -8.04e-20)
(14.3994 0.494856 0)
(9.54182 -2.6824 1.07204e-20)
(13.8044 0.322739 0)
(12.5033 -0.941113 -9.97357e-22)
(6.31306 -2.82906 1.03608e-20)
(12.8848 2.17188 -2.86523e-22)
(-8.54862 -6.17693 1.45202e-20)
(10.2977 -2.62548 5.46181e-22)
(7.93821 -1.89665 -1.69201e-22)
(9.9129 -1.25981 -8.53788e-21)
(10.0953 -1.46353 2.06123e-20)
(15.8628 0.328129 3.77176e-20)
(5.11691 -2.34531 1.1606e-20)
(-10.9731 0.0953161 0)
(6.19946 -2.97356 1.21061e-21)
(12.3969 -1.4528 1.23881e-20)
(12.8876 0.279368 1.41666e-22)
(6.3438 -2.99342 3.33903e-20)
(11.6214 -0.594953 0)
(17.0053 -0.40276 0)
(10.0909 0.362922 3.22936e-20)
(11.6997 0.993916 0)
(6.15443 -3.0196 1.0973e-20)
(8.3522 -1.19611 -2.06574e-21)
(8.94311 0.329842 0)
(12.1356 -0.101238 -1.67786e-21)
(16.0289 -3.3797 5.72302e-20)
(-0.186635 -1.50001 5.38581e-20)
(9.96984 2.50833 0)
(-14.9326 5.81021 -2.49955e-20)
(5.01954 -0.0594126 4.26738e-21)
(7.55519 -3.69317 1.44411e-20)
(8.61694 -1.0482 0)
(9.61795 -2.5471 2.64485e-21)
(-13.6088 3.51292 2.27115e-20)
(11.85 -1.15927 4.13087e-21)
(10.4618 -4.3756 -3.5257e-21)
(-1.54701 1.47251 -9.18978e-21)
(16.7249 -0.438404 2.61579e-20)
(8.73086 1.18923 0)
(8.32541 -1.18856 -3.99501e-23)
(11.6064 -1.4592 -6.39718e-21)
(-16.2982 2.77457 -2.83562e-20)
(10.7392 -3.40374 -6.06377e-21)
(-12.8345 7.75596 0)
(10.4089 -2.55102 -6.70571e-21)
(-7.65238 -2.23288 -2.18045e-20)
(10.1803 -0.00583132 -1.20982e-20)
(5.36832 -2.18412 0)
(7.22229 4.65392 1.25077e-20)
(9.76562 0.286401 -7.38662e-21)
(13.8916 -2.08235 0)
(12.4638 -0.656216 2.93724e-21)
(6.48911 -2.97887 1.3819e-20)
(15.3647 -3.62916 -3.2071e-20)
(9.66627 -2.28198 0)
(4.06099 -7.38048 0)
(8.6852 -1.23703 -2.50767e-21)
(11.212 -1.38209 -1.13666e-21)
(4.25295 -7.90394 6.5223e-21)
(10.2759 -0.946364 -9.43371e-21)
(9.65692 0.417575 1.61196e-20)
(22.0217 -0.41445 -4.81688e-20)
(-10.2913 11.6515 1.09027e-19)
(-1.58547 2.92854 8.18729e-20)
(15.6941 0.859103 3.19269e-20)
(11.0788 -0.666666 4.59562e-21)
(14.0122 -1.00175 1.25461e-21)
(10.0112 -0.0160757 0)
(-10.2484 0.713216 0)
(7.4918 -1.25005 2.56731e-21)
(7.91318 -3.72152 1.1765e-20)
(9.97998 0.110317 -2.66445e-21)
(12.2638 -1.31314 1.14003e-20)
(12.6892 -1.63661 0)
(13.1875 -0.0217095 -1.10893e-20)
(12.6007 -0.568141 -2.17637e-21)
(9.47273 0.252014 -1.47353e-20)
(12.5618 -2.29075 -2.2368e-21)
(9.52349 -1.21489 -2.30197e-21)
(1.74008 -3.4114 5.16962e-22)
(11.6124 -1.00225 9.68665e-22)
(11.7819 -1.13924 4.65243e-21)
(8.12401 0.493827 5.98729e-22)
(9.30706 -4.58678 0)
(4.43331 -0.781283 0)
(10.9174 -0.134866 3.43534e-21)
(7.80583 -1.58692 7.05278e-22)
(7.95859 0.754786 0)
(8.41238 6.66518 -3.75109e-20)
(-7.4438 2.92125 0)
(11.155 5.65323 1.89459e-21)
(11.9646 -1.24003 -4.15363e-21)
(9.02171 7.41913 0)
(9.34277 2.05647 -8.23682e-21)
(7.09976 -1.38729 -3.85981e-21)
(9.18115 1.05368 -9.74137e-22)
(9.29239 -0.19385 -2.37142e-20)
(10.7438 -2.69216 0)
(7.75188 0.842678 3.22856e-21)
(7.75165 -0.933107 -5.47952e-23)
(9.79609 0.218277 3.39274e-21)
(8.15461 0.634577 -1.42391e-20)
(2.80917 4.2895 1.53319e-20)
(12.2427 -1.2151 6.24523e-21)
(10.8896 -1.74457 -2.25295e-20)
(10.3436 -0.920526 0)
(12.9241 -0.512062 8.9504e-23)
(11.0257 -1.75109 -3.85712e-21)
(10.0631 0.0497738 3.7076e-20)
(10.1635 -2.84284 0)
(11.7409 -1.24509 -1.47773e-21)
(7.01589 2.01897 0)
(11.9194 -1.43463 2.2475e-21)
(9.1099 -2.45848 -8.20741e-21)
(3.81144 -1.66458 1.41763e-20)
(11.6168 -1.88989 -3.59262e-21)
(10.0867 0.974714 0)
(8.20442 -1.23107 -3.28967e-21)
(10.5624 -2.5772 7.53327e-21)
(8.25556 0.618957 1.3465e-20)
(11.1082 -1.77797 1.53768e-20)
(11.5433 -0.840537 7.7945e-21)
(-13.4217 8.60473 -7.62451e-20)
(9.82727 0.523899 1.31597e-23)
(11.0016 -0.938406 0)
(4.81941 -1.50762 3.33719e-20)
(16.1266 5.12943 0)
(7.488 -1.24604 4.06131e-23)
(10.9284 -0.498593 1.51288e-20)
(12.8302 -0.621019 -1.9794e-21)
(12.5866 -0.649387 2.22233e-21)
(-3.90571 4.69901 -6.20217e-20)
(9.67721 0.258134 1.83949e-20)
(9.12271 0.128446 0)
(-6.49301 -1.4269 -2.10885e-20)
(10.6099 -1.2706 -5.31629e-21)
(8.00794 -1.68891 -4.63638e-22)
(16.1993 -6.57199 3.22209e-20)
(12.8561 -0.0478862 0)
(12.649 -1.20748 4.40598e-21)
(8.85843 0.772671 2.89568e-20)
(9.77422 0.361163 2.2341e-20)
(13.7151 -2.46827 0)
(9.63259 0.0905511 2.79244e-24)
(12.6465 -1.51836 -1.16348e-20)
(-5.01764 1.34745 1.23214e-20)
(7.69599 -0.115483 3.67742e-21)
(10.693 -1.10965 5.07071e-21)
(10.9982 0.0838201 3.96525e-24)
(10.9805 -0.905445 0)
(12.4219 -0.899074 -2.84957e-21)
(-14.8442 6.78301 2.63194e-20)
(12.145 2.39025 2.89862e-22)
(10.0737 0.100506 1.40093e-20)
(8.40586 0.0294235 0)
(7.86794 -1.17361 -4.00364e-21)
(9.83456 8.91352 0)
(15.0244 8.13155 -1.21237e-20)
(10.2167 -0.0767795 0)
(10.1284 -3.25188 -3.42945e-22)
(6.54214 -0.433279 -7.96033e-21)
(7.5753 3.88616 2.94108e-20)
(-9.20501 3.67388 -4.10281e-20)
(9.82946 -2.37102 0)
(11.5012 0.42394 -2.6375e-21)
(10.0501 1.04331 -8.56958e-21)
(5.70886 -2.6919 -2.96511e-20)
(-4.92915 -1.43133 1.71764e-21)
(8.06448 -0.254917 -3.96644e-20)
(14.0844 -1.72494 1.26591e-20)
(10.2015 1.00316 5.89795e-21)
(7.12547 -1.94183 0)
(6.66138 1.52366 1.58224e-20)
(8.51085 0.810822 -1.08571e-21)
(-8.28419 3.14985 3.69112e-20)
(-15.3891 6.095 -9.02147e-20)
(6.46068 -2.11605 -5.64985e-20)
(15.8493 0.839176 0)
(6.14695 -2.37323 0)
(9.88372 6.01453 0)
(10.2456 -0.37054 0)
(5.51117 -2.55086 -8.85602e-21)
(11.782 -1.37583 0)
(7.49269 -1.15144 0)
(8.13826 0.51682 5.55334e-21)
(16.0882 0.938317 -4.06014e-20)
(10.9101 -0.87153 -1.22104e-20)
(8.32756 1.68992 4.8184e-20)
(10.008 0.164808 -4.19115e-21)
(10.7298 8.50465 0)
(14.4234 -1.26013 0)
(9.54741 0.275199 1.57394e-20)
(9.84858 0.107294 2.69478e-21)
(5.9333 4.41551 0)
(-13.1277 7.13123 7.71037e-20)
(10.5917 -3.46778 6.80198e-21)
(-9.04489 -0.00183222 0)
(11.6457 -0.568516 7.91473e-21)
(10.0382 0.256489 -1.80196e-20)
(1.6585 1.10471 -3.38834e-21)
(4.79958 -1.46817 0)
(9.98775 1.03587 1.60642e-20)
(13.2403 1.33377 0)
(12.9141 -1.62211 0)
(11.0739 1.19348 -7.54793e-22)
(9.65958 0.377964 8.45263e-21)
(-0.829861 2.31582 -6.94212e-20)
(11.4052 3.66546 1.79626e-21)
(6.48969 -1.43984 -1.39053e-20)
(10.1923 -0.341344 1.71975e-21)
(10.4146 1.08411 4.56485e-21)
(13.8621 -0.891499 6.70254e-21)
(11.0379 -3.35245 0)
(15.7479 -2.60379 2.73445e-20)
(6.56232 -0.110704 0)
(7.62937 -1.17203 2.17284e-21)
(11.2754 -0.975607 0)
(7.18585 0.28042 2.07989e-20)
(-4.4763 2.39092 -7.96175e-20)
(14.2437 -1.60858 0)
(0.248073 0.464326 1.03743e-21)
(14.6533 -1.39414 -2.77488e-20)
(8.45055 -1.25817 -1.22014e-21)
(8.65089 -1.11168 3.65273e-20)
(6.99961 3.75836 -1.82335e-20)
(6.45517 -1.43484 -3.98072e-20)
(16.5211 7.78433 0)
(8.19401 0.646403 1.40207e-21)
(-13.5554 9.38787 -1.8507e-19)
(10.0821 1.12701 0)
(9.18888 1.16315 1.06725e-21)
(13.7629 0.104857 -3.12235e-21)
(12.9067 6.31807 0)
(10.0623 0.0332518 0)
(-13.3289 6.16433 0)
(-12.8049 -0.488456 1.02895e-19)
(22.0627 -0.935141 5.70565e-20)
(18.4655 2.47059 1.36767e-21)
(11.1223 5.37166 0)
(8.42164 -0.778636 2.52121e-20)
(9.54023 0.244949 9.59534e-23)
(11.3832 3.43743 -3.54457e-21)
(-7.47649 1.58307 4.56892e-20)
(9.56785 0.840972 0)
(9.84296 0.593087 0)
(3.70208 -0.462748 -2.25155e-20)
(7.00641 -1.88491 -9.73443e-21)
(9.55471 -0.863598 0)
(8.98198 -4.19603 -1.00411e-20)
(9.71385 0.0856505 -8.32079e-23)
(9.7515 0.446261 1.89977e-23)
(4.07092 -1.73547 0)
(9.96373 -0.405773 4.5416e-21)
(8.45399 0.679032 1.11355e-21)
(13.3519 1.29841 7.66294e-21)
(9.00434 -2.58418 0)
(0.962093 0.105056 -1.22992e-19)
(12.5636 -0.636204 2.37682e-21)
(10.0237 0.483397 3.33486e-21)
(8.86312 0.190853 4.97145e-22)
(12.8626 4.28934 0)
(8.36631 1.71399 -1.27898e-20)
(16.1197 3.47647 -1.25809e-20)
(6.45277 -1.56031 1.07709e-20)
(10.059 0.283954 0)
(-5.05997 -1.20158 -1.76252e-21)
(2.40521 -0.254037 0)
(10.1481 0.248965 -1.27699e-20)
(9.98026 0.282702 5.57949e-21)
(9.29974 0.24754 -3.08331e-21)
(-14.1686 1.48571 0)
(13.1274 -0.127513 -4.6229e-22)
(5.37859 2.50519 4.2737e-20)
(10.9923 -3.35617 0)
(8.07293 0.440139 1.70816e-20)
(12.1751 -2.35478 2.58198e-21)
(10.9915 0.113208 0)
(-7.81426 -3.7209 1.16755e-20)
(8.98322 -2.73001 -4.38768e-21)
(11.0923 0.124463 0)
(0.232882 1.55719 7.56443e-20)
(9.04309 1.06629 0)
(8.47986 -3.82491 1.12288e-20)
(-15.2797 5.28401 5.29077e-20)
(10.2122 0.561734 7.91705e-24)
(12.4705 1.00248 -3.24744e-21)
(6.61337 1.4439 8.35622e-21)
(8.70364 -1.31343 -1.33588e-20)
(9.85366 -2.16346 -2.92815e-21)
(8.53977 -3.74134 1.64204e-22)
(10.6423 -1.13561 4.93157e-21)
(12.8367 4.21776 4.7409e-21)
(10.3822 -4.63007 0)
(9.96673 0.0324709 -1.242e-20)
(-8.08687 -0.26911 -2.62201e-20)
(6.71844 -0.143942 0)
(8.48906 1.28 -3.23784e-22)
(8.50276 0.130503 0)
(5.97173 -1.54461 3.49714e-20)
(10.0642 -3.61753 0)
(9.4464 0.0502844 -2.85631e-22)
(11.1752 -0.438321 -8.67117e-21)
(-7.88379 -4.13115 2.07685e-20)
(-13.1793 6.18491 7.75383e-20)
(12.5855 -0.165869 -6.84894e-23)
(9.18875 -4.37457 8.07653e-21)
(8.49879 -2.43428 1.27996e-20)
(7.34221 -1.39869 0)
(-8.24883 5.52134 -4.03551e-20)
(11.0863 -3.13547 -1.40288e-21)
(-9.79158 7.43363 -4.79171e-20)
(9.76769 0.508919 3.7152e-24)
(7.12232 -2.60165 0)
(11.0376 0.10678 -6.34475e-23)
(-12.8987 7.46309 0)
(-12.3987 2.9182 2.7421e-21)
(2.27078 0.299852 3.99608e-21)
(-0.744908 3.59818 0)
(10.0305 -2.51535 3.3081e-21)
(10.4485 -13.8644 0)
(12.9003 5.9881 0)
(8.16081 -3.8526 -1.4758e-20)
(7.10117 1.66936 1.29212e-20)
(8.06588 -3.40887 0)
(9.00077 0.948724 -7.97722e-21)
(18.2412 2.61953 6.17014e-20)
(-14.964 7.42785 1.23749e-19)
(12.6327 7.54861 0)
(10.4175 0.0121628 0)
(-13.1382 9.78528 -7.98971e-20)
(9.20871 -0.510614 0)
(13.1442 -0.0588848 0)
(-8.87181 12.1548 -1.98376e-21)
(10.0837 -1.81671 -1.63821e-20)
(8.38962 -1.91162 1.10672e-20)
(17.245 -0.836285 3.87498e-21)
(-10.1656 7.34221 8.83535e-20)
(9.86698 0.223904 6.39321e-21)
(7.48325 -1.52457 0)
(10.6447 2.66203 -2.51115e-21)
(7.04447 -0.865792 0)
(12.8192 -0.0346447 0)
(9.90424 0.574846 0)
(10.9979 1.12918 -6.01176e-22)
(9.36862 -0.203683 1.09572e-20)
(11.5494 0.711853 1.97637e-23)
(7.56138 -1.58899 0)
(-2.65376 3.50208 -5.0532e-20)
(9.7692 5.69505 5.18548e-21)
(9.00158 -3.12346 1.14758e-21)
(11.0017 -0.753664 -7.29986e-21)
(15.158 -3.39242 4.98451e-20)
(10.1676 0.0965046 -1.03744e-20)
(-3.33461 1.70829 0)
(12.4994 -0.606438 0)
(6.59196 4.4697 0)
(5.8858 -2.47186 -2.54285e-20)
(-2.0543 -9.63883 -2.29277e-20)
(0.106497 -0.576912 0)
(10.811 2.6491 0)
(13.2432 -1.14349 3.48146e-21)
(9.79675 -0.034223 -2.71094e-21)
(9.36474 3.28251 1.44844e-20)
(11.1497 -4.38221 0)
(-9.63546 10.1469 -2.19728e-20)
(11.712 0.466324 2.57687e-22)
(6.81178 -1.71517 -2.32473e-20)
(11.0432 0.552328 -3.12548e-21)
(11.3212 3.43581 5.82543e-21)
(21.5846 -7.67503 5.59545e-20)
(5.80461 -2.44615 4.38674e-20)
(10.6489 -6.71923 1.63652e-20)
(11.6665 1.45379 -4.91011e-23)
(10.0069 0.028782 -3.10751e-21)
(8.13386 -3.95062 -2.87309e-21)
(9.04615 -2.46077 1.86184e-21)
(7.46248 10.494 -3.84047e-21)
(8.74533 -4.12092 5.40746e-21)
(12.7325 -0.479839 0)
(7.79906 -1.50383 2.92134e-23)
(10.5228 0.0234132 -1.07051e-20)
(14.4753 4.88919 5.32145e-21)
(6.63829 -1.55794 -2.13051e-20)
(8.94022 -3.03883 -1.25385e-20)
(10.2873 -0.058968 2.42308e-20)
(12.6191 -0.200006 -1.39248e-20)
(6.72517 -0.873299 -7.76552e-22)
(15.7159 1.1218 -1.68744e-20)
(5.60485 -0.656739 -4.76217e-20)
(10.9794 0.0864935 -8.55737e-21)
(5.52562 -0.97033 0)
(-8.98899 -4.43374 -6.18621e-20)
(10.4149 0.0306339 2.57775e-20)
(8.74798 0.0193579 5.39442e-23)
(-6.35319 -2.86777 0)
(9.39653 -4.25506 0)
(10.0485 2.35764 1.24042e-20)
(4.90312 -0.584422 2.96556e-20)
(9.14519 -13.6867 -1.04581e-19)
(10.2779 -3.25013 -5.0704e-21)
(10.9603 -1.75932 1.22959e-20)
(16.3473 4.88437 0)
(10.0413 2.50439 6.88505e-21)
(2.40958 -2.96382 -1.76253e-22)
(11.9531 5.63542 8.27462e-22)
(9.68912 -1.20569 -1.53142e-20)
(-9.4647 6.37598 -1.43816e-19)
(14.6719 -3.55087 -4.76149e-20)
(16.3759 -2.856 1.53637e-20)
(10.6635 6.2672 0)
(11.4826 -2.52505 -5.47018e-21)
(9.35342 0.173086 2.80675e-21)
(9.55896 0.168728 -5.41797e-23)
(4.77232 -2.26236 4.10425e-20)
(9.63828 -1.27247 2.30896e-20)
(9.38044 -3.95672 4.44916e-21)
(-15.2912 6.63978 -7.09015e-20)
(12.8784 -0.810313 -1.26137e-20)
(10.7183 0.157916 7.64623e-21)
(-9.50153 11.9491 -1.35158e-20)
(11.5131 5.46287 3.31334e-21)
(2.25318 -0.0592298 -8.21914e-20)
(6.49056 -3.08456 -1.31083e-20)
(9.62607 0.185079 0)
(11.8397 2.7091 7.90684e-22)
(-12.5818 10.3878 -5.78806e-20)
(6.43306 -0.551627 4.25503e-20)
(10.5287 0.445686 0)
(10.922 -0.925468 1.86131e-21)
(5.58859 -2.0743 1.00017e-20)
(9.96601 0.184055 -2.73318e-20)
(-13.7626 7.78317 -7.68517e-20)
(7.92729 -3.25176 -8.08154e-22)
(10.9368 -0.91437 8.34635e-21)
(11.3237 0.464155 3.67665e-21)
(8.59739 -3.88718 -1.52394e-20)
(11.7519 1.08029 -1.00871e-22)
(-1.46889 -11.2969 -7.93792e-20)
(10.7422 0.0639117 1.00412e-20)
(10.1638 -0.286157 -7.43492e-21)
(10.6755 0.682157 -2.75747e-22)
(11.5025 -0.0486115 -1.55658e-20)
(5.35074 -2.16026 -1.93228e-20)
(11.6213 1.32259 0)
(-13.168 -1.44575 6.42915e-20)
(10.3416 0.10129 2.00106e-21)
(4.11207 0.448272 -4.90466e-21)
(12.6208 0.322134 -2.49163e-21)
(10.6874 -1.8874 -7.96623e-21)
(10.0814 0.0947889 -2.14601e-20)
(10.4504 1.80894 3.62706e-21)
(-12.663 7.34293 -7.9255e-20)
(13.2759 -0.0598505 0)
(7.99022 -1.06791 2.07369e-21)
(12.6595 -0.64634 2.02876e-21)
(7.16944 -2.50551 0)
(10.6411 0.56734 6.14695e-21)
(12.7749 -0.484704 2.06827e-21)
(13.1603 -0.00201658 4.05306e-26)
(12.5594 -4.30664 3.53947e-21)
(9.57336 -0.967992 0)
(8.78995 1.95621 2.37507e-20)
(11.4707 -2.31106 -1.44957e-20)
(8.51302 -3.98808 1.23698e-20)
(9.89879 -0.80972 0)
(7.04758 1.68407 -3.7346e-20)
(3.95188 -2.13653 -2.97402e-21)
(11.5688 7.71322 -5.91924e-21)
(5.68646 -0.725137 4.65417e-20)
(11.0828 0.102857 3.72268e-23)
(-13.6939 6.461 6.31708e-20)
(9.44849 -0.409422 -1.66938e-20)
(15.9729 -1.83603 -3.74734e-20)
(8.80066 0.807143 -1.66989e-20)
(11.1529 0.0727607 0)
(9.99358 0.0905269 -1.1717e-20)
(-1.89977 -0.470307 4.12393e-20)
(-3.17448 2.19354 0)
(17.8886 -5.99669 0)
(9.54563 0.17437 0)
(5.80675 -0.576501 0)
(10.1815 1.74528 0)
(5.30432 -0.587958 0)
(11.0718 -4.32179 -4.4484e-22)
(19.4592 1.68202 -3.49126e-20)
(13.0798 2.33344 0)
(9.10219 1.81494 3.54979e-20)
(5.41259 -2.60063 4.15381e-21)
(10.2983 1.16499 3.1726e-22)
(-11.4684 11.2787 -2.59578e-20)
(5.31697 0.537054 -1.68683e-23)
(-13.7761 7.64426 6.70187e-20)
(10.6098 -0.0189402 -5.43079e-21)
(14.1483 0.193712 2.05961e-21)
(10.1277 1.65223 -8.33448e-21)
(9.32841 0.984021 -2.27466e-20)
(9.51777 5.3426 -1.12995e-20)
(16.1518 7.93195 0)
(-6.5262 -0.291743 6.19896e-21)
(6.0815 -1.6258 -3.82831e-20)
(10.0459 0.0496648 -3.5289e-20)
(11.2584 -3.06943 -5.70379e-21)
(11.029 -0.0417283 2.59859e-21)
(13.4561 -2.77265 -6.31125e-21)
(10.3483 -1.51126 -1.82442e-21)
(10.0999 -2.47411 -1.14195e-20)
(10.0676 0.939815 8.88246e-21)
(8.03637 6.41971 0)
(9.73473 -1.90609 -2.63226e-21)
(8.29486 0.441809 -5.13227e-21)
(11.7113 -1.23685 0)
(8.77275 -1.12319 0)
(9.07168 -4.07574 -1.47549e-22)
(-13.0688 5.38401 6.69493e-20)
(10.9414 -4.39999 -1.50279e-20)
(8.41687 -0.219563 0)
(9.40986 -0.262135 -2.21976e-20)
(8.86359 1.09591 -4.4097e-21)
(-12.6578 -2.29959 3.36759e-20)
(13.0267 -0.399474 6.36433e-22)
(-14.1025 7.7571 0)
(-7.08097 -0.0151973 8.23586e-21)
(12.9145 -0.484581 0)
(11.3075 -2.61451 5.78982e-21)
(11.9826 -1.22223 -3.36828e-21)
(10.1131 0.111598 4.40126e-24)
(11.549 3.83217 -7.15022e-21)
(12.6748 6.85584 -1.3465e-21)
(8.18569 -2.28836 2.67571e-20)
(-2.68832 -3.21802 0)
(8.16627 -11.9229 -4.13116e-20)
(6.30055 -4.59741 0)
(13.4394 2.31443 -2.87067e-21)
(-13.3265 -1.07966 5.88487e-20)
(18.7577 -5.8692 4.54909e-20)
(8.11776 -1.0604 -2.0498e-21)
(-13.1585 5.63225 -1.51048e-19)
(7.71175 -3.61408 -1.42868e-20)
(6.28144 -1.62916 -2.2163e-20)
(8.41792 0.848486 3.95282e-22)
(9.3008 -10.8391 3.38356e-20)
(5.44184 -2.21924 1.58489e-20)
(6.56346 -1.71702 2.38994e-20)
(-2.37728 -9.29717 2.89682e-20)
(11.9553 -11.6809 -2.30069e-20)
(8.85348 -2.71195 1.26656e-20)
(-10.7251 2.86663 5.37401e-20)
(12.0249 0.226767 -6.15375e-23)
(5.68598 -2.76267 -3.46787e-21)
(11.597 2.56259 -1.9161e-21)
(10.9829 -2.49495 0)
(5.51393 -0.792279 -1.05671e-19)
(10.2909 0.0302393 -1.24869e-20)
(10.0169 0.600861 0)
(13.2138 2.13082 0)
(4.80002 -9.86608 -1.2208e-20)
(17.8558 -1.75932 -4.06268e-20)
(12.2785 1.40471 2.89608e-21)
(10.0338 -1.73538 2.15186e-20)
(9.38017 5.10129 1.02412e-20)
(9.17853 -0.111262 1.5594e-20)
(-15.465 -0.291614 -4.53402e-21)
(8.67305 3.30653 0)
(6.76624 -1.86779 2.26738e-20)
(-3.70646 10.8294 1.22116e-20)
(-13.328 4.20036 1.1505e-19)
(8.27203 -3.12304 4.38482e-21)
(9.68957 -4.57493 -1.29452e-21)
(10.4003 -0.119125 7.77732e-21)
(8.41416 -0.995367 1.13369e-21)
(13.2985 -2.47486 2.7343e-20)
(-13.9327 -0.302902 -4.55514e-20)
(12.0963 1.36058 -2.12185e-21)
(9.58798 0.208217 9.16155e-21)
(5.47335 -0.936456 -1.91304e-20)
(9.24851 -0.374567 1.37987e-20)
(5.31732 -0.9817 0)
(12.1387 2.32254 -4.11374e-22)
(9.86976 0.179253 2.02538e-21)
(7.37624 -1.34222 -7.29345e-21)
(9.20347 8.62253 -1.98811e-22)
(8.71889 -2.68503 9.58457e-21)
(10.0802 0.0405128 3.8932e-21)
(6.63662 0.734705 -2.82382e-20)
(12.0626 -1.37632 0)
(8.0543 -0.912357 -3.78023e-21)
(11.0992 0.56653 4.23086e-21)
(10.9017 -0.825418 0)
(6.9731 0.215865 1.60946e-20)
(13.088 -0.351781 0)
(7.82134 8.76088 1.49117e-20)
(12.1708 -0.216827 0)
(9.76621 -2.10431 0)
(12.4155 -0.344495 1.84652e-21)
(12.0685 1.09594 -6.58341e-22)
(15.4302 1.87984 -2.29909e-20)
(9.52886 0.752448 -1.02746e-20)
(7.10254 5.45238 -8.42504e-21)
(9.65721 0.471292 -4.04802e-21)
(10.2632 1.7969 0)
(2.32888 5.59349 -5.10803e-21)
(12.6933 0.998933 4.56885e-21)
(11.1128 -2.59153 -1.17364e-20)
(10.9985 -2.50622 0)
(14.5604 4.74377 8.15057e-21)
(10.1351 8.53605 -1.01586e-23)
(11.8326 0.227124 -1.1987e-22)
(9.15452 -2.86949 0)
(-5.94499 11.9371 8.07743e-20)
(10.1356 0.907683 0)
(13.511 -1.98957 -1.35503e-20)
(0.567288 -1.23284 0)
(10.4915 1.51571 0)
(10.5055 -7.84248 0)
(9.84437 -3.56776 0)
(-8.1824 11.3422 -1.03622e-20)
(-13.5666 -1.70662 -2.20282e-20)
(9.2565 -0.172753 -1.63834e-20)
(-9.16713 -3.19775 -2.87375e-20)
(5.93739 -2.33969 0)
(-7.78043 -6.33147 -2.5933e-20)
(-1.11378 -2.44968 -5.34165e-20)
(7.61333 -3.51715 0)
(7.17363 -2.27693 -2.4137e-20)
(7.27672 1.50128 -5.45337e-22)
(11.5773 2.44834 4.74411e-21)
(12.0945 -3.95569 -7.52088e-22)
(9.28392 0.885072 0)
(10.5605 -3.22984 0)
(17.6038 2.61751 1.119e-20)
(9.03572 -2.26546 4.93896e-22)
(8.16501 0.524042 -1.16069e-21)
(4.62184 -8.72156 8.63557e-22)
(9.94093 0.0341989 8.67236e-22)
(11.8235 2.66783 9.9759e-23)
(9.96194 0.942262 1.25748e-20)
(7.73277 -1.00944 1.99506e-21)
(9.11705 -2.41173 0)
(-5.1139 6.20204 0)
(11.6797 0.947818 0)
(8.88974 0.117622 0)
(8.41962 -1.46978 9.91179e-21)
(14.9893 0.29633 0)
(-8.32295 11.7719 1.45391e-19)
(18.7111 -11.3504 -2.68206e-21)
(6.41799 -1.78876 -3.61231e-20)
(5.44362 -2.42248 -2.15332e-21)
(-14.4793 -3.46871 -3.58303e-20)
(-4.15925 11.9743 -6.61414e-20)
(10.442 0.100567 3.07764e-21)
(-14.8654 2.5149 -5.04018e-20)
(7.5637 -1.05655 3.31311e-21)
(12.5404 -0.271534 0)
(11.4789 -1.58607 0)
(6.63611 -2.04511 0)
(10.6878 -1.99986 4.15386e-21)
(12.4363 -13.0983 0)
(8.77557 3.25811 0)
(10.1133 0.0219085 0)
(8.54496 -1.92103 1.03644e-20)
(10.479 1.08502 -1.17954e-20)
(8.41417 0.0614154 0)
(11.5935 -4.29523 -1.46735e-20)
(9.7596 1.00466 -1.22372e-20)
(11.9629 5.45577 -2.22603e-21)
(7.66685 -3.47498 1.40791e-20)
(9.15077 3.68972 1.76799e-22)
(8.95654 -3.05883 -3.29225e-22)
(8.67325 -1.22622 2.46457e-21)
(9.89653 -2.6331 -5.46702e-21)
(11.9845 1.14193 1.16086e-21)
(8.28225 0.529672 -2.34137e-21)
(8.95396 0.439377 -1.61241e-20)
(10.6207 0.0604186 0)
(5.71027 0.950667 3.75402e-21)
(9.62072 0.256614 1.64924e-20)
(3 -2.98059 -2.81095e-21)
(10.2745 -1.43135 -5.38944e-21)
(5.04825 -0.704712 -3.22585e-20)
(12.086 0.966173 -2.59331e-22)
(16.1025 3.59802 1.81996e-20)
(10.0512 0.401679 0)
(7.31064 -1.20764 -1.30034e-22)
(8.56518 -0.374593 -1.08166e-21)
(9.98899 -2.618 1.09695e-20)
(-7.95919 0.991651 -5.2125e-20)
(9.98388 0.040843 8.38641e-21)
(11.7506 1.27736 5.18942e-23)
(10.8852 0.120642 -3.9542e-23)
(11.4887 0.705877 0)
(4.72046 -1.49549 0)
(7.18932 -3.3686 1.78045e-20)
(-13.8824 7.48626 8.30166e-20)
(9.63616 0.0950846 -3.92466e-24)
(9.78163 0.250886 3.29092e-20)
(7.62723 -1.23059 8.59664e-22)
(7.04408 1.43222 0)
(8.8626 0.518301 0)
(7.81184 -1.60929 -1.79449e-22)
(12.2805 -0.189398 2.73469e-21)
(9.39877 3.41519 1.9805e-20)
(11.9351 -0.84704 0)
(12.4454 0.179447 0)
(10.1315 -2.7236 1.51072e-20)
(9.77655 -0.761335 1.25329e-20)
(1.23245 3.91906 -3.464e-21)
(10.6353 -0.489486 0)
(6.79664 0.495522 9.85684e-21)
(13.1391 -4.86073 -6.8479e-21)
(-12.3769 8.99886 -6.82453e-20)
(9.8137 -0.110441 -1.77368e-20)
(19.7479 1.0946 0)
(18.2149 -1.32827 3.24565e-20)
(10.4148 -3.49144 -1.49145e-19)
(0.798306 3.36437 0)
(8.79222 0.195977 -1.55779e-21)
(9.46901 0.473645 -1.0899e-20)
(9.5546 0.0765082 -8.64787e-25)
(12.5333 -1.30017 1.82329e-21)
(5.94317 6.55546 1.02486e-20)
(10.6076 0.064142 0)
(4.87927 -1.60146 -2.26294e-22)
(7.0649 -1.01747 -1.22662e-21)
(11.9695 6.32122 -1.16447e-19)
(10.094 1.66183 9.86946e-21)
(-2.21566 -3.0189 5.5848e-21)
(9.97558 0.000135941 -3.94291e-20)
(7.76912 -4.23901 -2.26654e-21)
(8.41977 -1.16836 2.27382e-21)
(8.44045 -1.83041 0)
(8.8428 -0.0180079 -5.18034e-21)
(5.23702 -2.26123 1.28075e-20)
(11.0151 -0.456159 -1.68373e-20)
(9.83402 0.167452 -1.481e-20)
(13.1463 -2.06487 1.20822e-20)
(8.14893 -0.672804 3.70081e-20)
(11.9213 0.132973 8.60116e-23)
(8.74243 0.573061 9.37228e-21)
(8.37495 1.29421 -1.22709e-21)
(17.3959 -0.751747 -4.28985e-20)
(11.7005 5.93598 -6.99491e-22)
(11.4144 -13.2225 8.15727e-20)
(10.1372 -0.18709 0)
(7.14353 -1.92759 0)
(8.65848 -1.723 0)
(6.3757 -1.63801 2.78645e-20)
(10.1195 0.0818946 -2.35748e-20)
(8.89521 1.19939 0)
(7.52584 -1.4435 -2.14237e-20)
(8.83596 1.12653 0)
(8.51453 -1.23501 -1.62944e-20)
(10.9464 -2.70062 -1.25542e-20)
(9.03226 -2.24758 -1.38872e-20)
(10.7618 0.055519 0)
(9.62411 0.163226 0)
(10.8803 -0.937875 6.53661e-21)
(13.002 2.02882 2.85054e-22)
(14.1158 -0.0724495 1.60901e-20)
(10.6867 8.93693 -1.20351e-21)
(11.8737 -1.07965 0)
(8.35446 -3.05474 -7.22496e-21)
(-4.1092 3.15134 0)
(3.11923 3.66726 -1.61657e-20)
(12.8561 6.91277 0)
(11.6386 1.15171 -1.15527e-22)
(5.67612 -0.542398 1.23747e-20)
(7.49012 -0.499531 1.21229e-20)
(10.4417 -0.505224 -6.58248e-21)
(16.6815 -10.8516 -2.04137e-19)
(9.62933 -0.896594 3.16748e-20)
(10.1179 1.75768 -3.46131e-22)
(12.5307 -2.70999 7.77642e-21)
(9.76252 -1.9987 -6.78991e-21)
(-2.24872 3.95726 1.72602e-20)
(13.1531 3.06233 0)
(9.82518 0.191982 3.39197e-23)
(7.54717 -1.57922 0)
(8.38839 -1.0971 -2.3832e-21)
(8.4489 -3.03945 -3.72087e-21)
(8.25025 -0.588663 -1.21263e-20)
(9.54918 0.0534181 -3.10043e-24)
(13.487 0.435672 -1.10066e-20)
(8.16179 -0.108356 2.53997e-20)
(11.7666 -0.423935 -5.54789e-21)
(8.16213 0.65988 0)
(-9.74357 9.47382 0)
(13.3141 0.0446548 4.7433e-23)
(15.2889 1.93301 0)
(9.49165 0.892932 -5.58284e-21)
(8.08283 5.83341 -1.28549e-20)