/*--------------------------------*- C++ -*----------------------------------*\
| =========                 |                                                 |
| \\      /  F ield         | OpenFOAM: The Open Source CFD Toolbox           |
|  \\    /   O peration     | Version:  2306                                  |
|   \\  /    A nd           | Website:  www.openfoam.com                      |
|    \\/     M anipulation  |                                                 |
\*---------------------------------------------------------------------------*/
FoamFile
{
    version     2.0;
    format      ascii;
    arch        "LSB;label=32;scalar=64";
    class       volScalarField;
    location    "5";
    object      p;
}
// * * * * * * * * * * * * * * * * * * * * * * * * * * * * * * * * * * * * * //

dimensions      [0 2 -2 0 0 0 0];

internalField   nonuniform List<scalar> 
13486
(
111.697
108.204
73.1652
-28.9549
64.1422
83.6558
43.9398
80.9138
92.4713
96.9893
3.04119
83.5718
113.511
80.0888
61.8563
98.1475
-49.2906
-5.13257
83.1311
108.608
-38.3896
112.895
107.667
69.2514
94.2882
73.4168
10.0992
81.6144
50.528
69.1857
-77.7057
67.2561
89.7662
62.7064
81.418
91.7652
53.6316
99.1185
60.6911
94.5022
33.58
115.58
19.4671
94.4834
94.2782
83.8264
-85.2628
63.8794
50.8071
83.0649
99.543
64.0675
82.3769
100.225
-21.6586
66.1646
56.0042
62.2902
87.6288
60.1868
5.39912
58.5222
39.9899
-39.1622
-331.197
55.4133
-28.7268
114.193
92.0476
81.261
-26.4209
-6.23983
97.2815
-5.68813
54.3951
56.8317
46.884
60.1576
-74.6369
-6.87369
31.1769
109.561
37.8765
77.3238
111.748
108.629
61.9071
98.9697
102.832
101.256
70.1694
76.2523
108.888
108.369
92.2462
38.1133
14.0202
-28.5081
94.5008
-52.5201
72.7946
81.3356
-31.2263
60.1479
112.485
-55.685
100.914
58.5461
-80.6681
71.8336
88.5878
53.7092
100.213
48.388
121.744
88.7337
94.9061
61.2358
97.5402
37.5269
-2.69851
6.5715
94.7747
58.8906
87.8146
67.8023
82.9124
89.2369
61.6474
-307.094
69.0654
-81.3146
-0.612398
-11.126
99.9757
100.616
129.706
72.8479
31.2916
83.5121
83.9778
83.192
76.7621
-12.4198
42.6018
64.7268
88.578
131.155
82.2219
27.212
94.8068
55.8061
41.548
110.413
89.6868
73.5126
62.7153
18.7584
94.2016
69.0498
82.4614
94.1246
55.6492
114.731
64.3222
75.7339
83.7876
130.99
88.3766
-11.1449
2.06362
89.8226
96.767
78.2034
11.0386
-52.5161
77.3406
81.5896
100.811
77.4992
91.5661
47.8132
76.7038
27.376
82.7313
81.4106
1.90643
67.5453
32.0319
92.6607
44.9853
63.3263
58.3568
117.622
52.6786
2.92202
-339.407
82.9832
104.854
77.8759
-94.6771
89.0211
99.0026
57.4837
68.0313
53.9298
-13.4886
100.956
59.0959
82.2934
75.9631
12.8765
108.208
100.924
83.4489
-65.2984
74.6372
101.542
106.144
53.1121
-56.2801
81.6714
84.55
82.9401
85.0944
108.907
79.494
-160.806
-57.4322
60.5433
91.3179
-29.254
84.2239
117.081
-50.1265
106.752
61.4518
63.7364
107.359
80.6004
90.9355
96.6799
47.3349
104.331
59.7693
104.457
83.2125
69.583
-15.1229
95.8676
-7.74661
122.543
86.2821
54.808
-33.7298
-39.7818
67.9829
-58.1046
36.8795
92.2693
105.373
60.9914
62.2266
-38.5715
64.2664
27.4796
-45.2837
-77.86
96.9589
52.2069
110.583
100.896
73.2502
84.6866
109.121
63.6849
-19.4203
-188.338
52.0911
89.3864
-184.778
88.6215
101.543
76.2995
10.5057
-27.9347
80.5866
62.0323
85.5915
97.2149
-48.089
64.3205
91.8452
100.06
57.7796
63.2134
82.5772
85.4599
101.692
36.5765
54.3463
-29.8648
89.4193
67.2563
52.1843
52.8558
-24.5788
83.3084
53.8814
50.1055
24.9624
-25.5481
82.1952
55.1483
23.6284
101.072
65.2292
103.035
101.357
-40.3715
51.9594
64.7233
100.711
108.92
128.358
69.7817
76.0072
88.0796
86.4745
73.6703
99.062
74.3539
68.1706
114.374
42.5561
90.0184
122.662
57.2369
95.8817
61.3895
-38.3634
108.709
72.0788
76.4968
20.8253
48.392
82.7082
120.344
53.7064
64.9549
84.5075
86.5355
85.1142
20.0056
101.5
86.2953
1.16105
82.7974
54.9495
4.45139
82.8416
73.1132
104.968
100.98
64.7104
13.4245
59.7667
-67.5638
108.991
83.1722
18.0708
83.3883
86.0775
-0.0629344
82.7509
99.7298
100.653
64.6924
28.0397
31.0561
96.2465
72.2858
115.105
111.182
-76.4433
-18.0566
86.7709
95.6365
-42.8209
-33.3049
107.332
77.8141
92.2489
107.91
116.248
6.66185
-30.2039
-0.0744801
-51.5568
81.1508
-46.0442
93.0096
92.7962
-17.7235
45.6273
80.8556
108.023
81.5713
84.7937
107.294
94.9515
74.7963
83.1625
101.838
100.582
116.885
25.3394
64.9052
-12.452
80.5554
100.888
11.5929
120.634
96.4252
80.4403
65.3695
88.6798
101.68
8.2087
84.8186
112.705
93.0141
92.0206
86.906
59.0187
69.5258
115.409
66.0152
78.6158
113.544
-78.8152
79.7146
-29.3558
82.1387
69.6731
100.519
115.097
112.982
31.2004
43.7875
19.7738
96.178
103.431
82.9013
65.3808
100.612
0.311301
-73.8547
78.1805
68.777
83.2312
104.238
8.05261
85.2769
-31.8553
101.758
50.4737
127.054
108.797
95.6393
78.452
102.07
57.7396
122.411
71.521
24.3125
80.6359
90.272
-34.2592
85.6743
97.2465
61.4419
74.2488
107.653
62.9669
-54.3274
96.3503
-38.2709
130.618
96.5236
99.7204
102.526
-45.5324
79.9336
122.261
60.7355
108.572
39.9233
89.9848
-82.1875
-2.70358
21.6533
-55.2071
103.785
88.4812
-9.99879
10.1755
83.2912
116.275
100.711
-5.41417
89.3476
83.789
74.5639
64.1872
99.7593
-7.80224
114.71
19.2199
78.665
115.514
72.4084
93.2124
85.2091
-123.155
-6.53853
82.6937
69.3229
95.2995
109.001
31.2188
57.5153
29.8659
44.8463
106.531
89.6066
24.8068
-31.4699
10.6131
19.6728
81.1581
-370.949
65.4073
89.4124
113.708
10.6774
104.74
61.3225
3.1745
57.9052
91.9147
20.6419
100.064
79.8937
4.63407
85.5839
98.5517
94.1816
30.5353
99.7507
107.48
90.4591
112.257
79.4097
96.4898
88.843
101.369
40.5815
106.105
16.9362
93.5956
87.7813
61.7139
62.2844
100.286
-75.0545
84.8963
114.273
112.543
-324.475
30.2972
89.7681
82.3037
93.6953
99.9115
48.6076
18.1498
85.9414
110.254
88.1795
85.5051
-32.6847
112.758
-86.6756
48.2268
100.455
75.9643
-1.79101
100.651
81.6459
85.7215
72.8269
91.5391
62.7345
111.597
89.0376
86.4651
87.1563
81.9534
80.1822
119.173
90.3381
118.87
-152.628
98.3123
104.848
-5.30153
68.434
95.6763
122.07
-201.478
70.9514
74.653
51.6305
95.5642
-7.96976
75.8775
92.9071
30.9386
69.7104
82.5573
83.898
1.17796
102.343
21.5684
116.543
93.6384
67.4334
3.7828
74.4245
90.6866
12.2942
79.5926
-52.4524
106.496
2.61893
54.4481
-2.82129
115.159
7.11651
58.5239
115.272
99.603
18.6492
13.4372
84.0955
87.021
86.9994
45.7672
-347.155
91.3824
93.8335
90.1462
90.3909
116.052
47.8364
-84.0279
100.243
21.2804
83.9028
77.6869
97.5151
92.6985
22.8494
79.6673
65.2121
86.8661
106.401
90.3274
86.6341
77.8025
26.0465
54.324
105.161
65.4794
85.139
93.2452
113.752
15.3347
70.1317
118.678
15.098
-1.70523
98.0654
84.5064
105.254
40.3757
100.485
-30.3961
-3.33388
33.1949
11.8438
-54.3648
94.5641
120.501
-40.8372
76.7551
78.6535
105.558
49.1562
92.5979
-0.198627
121.572
21.933
83.9486
82.7769
95.3899
102.943
96.3294
36.8067
-31.8586
114.81
100.768
56.851
94.1196
22.0809
84.2337
80.6648
95.3611
2.66975
13.732
107.363
46.5656
52.2314
80.3931
-7.47097
-45.9392
75.5401
100.176
104.564
-95.4851
83.3443
17.6054
-32.265
85.5469
-12.6438
71.9258
100.441
83.3832
62.2605
97.7608
-58.486
-398.802
-25.1543
77.4906
-79.7094
27.6438
64.2915
-34.1616
87.209
113.671
15.495
-341.933
115.301
111.797
-290.909
-252.997
91.6039
-75.7711
49.4583
40.4279
85.011
66.3614
-54.2488
92.6149
96.6733
78.2378
-235.555
95.9015
83.4015
86.1172
96.6363
85.291
-70.223
103.693
110.298
-39.5404
-30.5971
94.9796
48.6128
86.3828
60.6454
62.5134
-65.518
83.7364
101.392
119.246
99.9739
80.7399
82.816
100.756
109.686
95.0518
93.0307
99.3705
116.054
46.8391
65.9965
87.944
57.2463
114.416
83.7875
102.09
86.3346
3.92893
83.5722
84.3047
74.0095
101.591
109.155
97.1456
93.4778
-9.51612
82.4573
-12.5918
65.9313
61.6034
82.3235
41.2015
-42.3808
3.45884
94.1819
71.1322
-14.9582
18.7027
-108.349
75.3364
-0.298927
-80.9018
101.695
-122.202
112.854
-183.204
-14.3658
97.3864
106.989
51.058
85.4653
39.2717
103.284
66.3019
60.8983
10.4963
53.9832
-229.458
100.476
54.1349
95.2835
64.342
90.558
4.40576
45.2508
92.7837
101.22
84.2226
4.04865
-40.3563
112.495
48.7792
-101.591
-3.57634
99.2282
-41.4464
65.2329
83.6928
66.9007
62.3408
77.239
-312.7
103.11
100.584
98.0506
92.8135
81.2794
-18.7291
98.3113
76.4007
98.1649
100.035
-15.3946
55.4014
-42.8237
84.5809
47.0489
104.269
91.8365
23.2577
101.032
-6.72034
84.9156
121.332
84.3592
61.4902
96.573
80.4095
70.788
-50.6717
-33.3256
99.2345
47.9959
16.4447
39.4671
54.7017
101.881
17.2631
13.3748
101.061
80.0243
114.435
104.765
105.273
83.2107
99.0896
77.81
68.45
77.236
94.6951
-26.2664
61.7736
14.2115
31.9126
-3.51701
98.0363
76.2009
98.7821
-38.3827
-30.3684
66.1143
101.985
113.85
67.6559
-15.1194
100.611
119.758
81.6505
27.2671
95.1514
-46.6269
98.5385
68.3479
59.2716
99.7238
55.1916
116.089
85.6447
100.706
63.898
105.922
48.7261
104.997
18.1765
95.1045
77.352
-195.708
85.5123
57.651
4.74223
113.014
100.581
105.055
108.37
105.362
101.598
-34.7372
92.3493
100.674
101.193
60.8139
79.8533
84.0214
76.4348
72.6302
94.9703
-6.48508
128.247
61.724
47.2903
119.193
110.448
64.99
-72.529
95.3594
94.3935
21.2277
88.8493
-10.0285
76.5721
100.672
106.751
60.6536
94.1246
105.584
17.3393
82.2674
106.975
81.624
49.669
23.4303
77.4451
75.1282
101.419
106.598
62.5457
-80.4623
62.7776
70.5632
78.665
83.628
113.44
70.0353
125.346
98.3252
83.1707
101.419
17.3969
10.9616
-43.3416
99.3397
59.712
-9.28193
-96.8128
93.3724
95.9659
61.9805
72.0934
-56.1024
68.5947
58.3149
66.0666
87.7377
78.669
103.813
101.596
104.346
93.5535
64.1515
89.3491
83.6699
78.5461
-327.932
94.4404
87.2203
-140.397
81.6649
62.4382
56.012
-3.41488
86.3455
94.103
73.8332
64.3563
77.9421
81.1453
83.5181
86.2755
61.063
94.1157
97.6046
101.9
-13.3272
99.9096
43.4111
108.851
85.9339
94.2001
49.6723
82.3941
115.507
123.449
90.574
63.2527
97.1923
88.0033
116.019
74.8607
88.3722
0.946903
84.5052
66.1503
-16.7398
100.536
97.5533
64.3971
43.4365
79.5876
93.5951
121.44
68.9485
98.8207
-55.0562
103.153
112.704
71.2972
84.0535
-276.222
107.969
82.898
124.237
71.117
84.4361
93.5816
85.8928
22.0172
-11.8769
15.6379
105.04
73.6109
65.1248
111.879
109.218
52.7501
37.5216
69.9421
87.4751
96.7794
96.4541
106.254
84.7997
-1.33723
108.897
85.3751
60.9667
78.9654
103.382
100.851
28.668
-9.27763
4.69674
99.4029
114.472
83.6693
57.7278
75.6662
121.713
-28.112
82.9958
116.663
99.5887
81.0067
85.3933
-31.7522
71.1405
-30.3934
-26.3918
63.3162
-33.8688
86.5118
-17.2813
-74.5087
-52.9351
24.0778
28.5673
-47.5753
-5.03573
116.665
101.282
63.347
-63.7475
66.9684
87.0566
62.4089
125.05
73.0967
83.3907
99.6542
36.9078
-32.0775
79.8287
79.1264
97.6651
126.424
7.44968
67.4735
63.5189
83.2835
75.0188
87.7736
77.3563
109.454
99.5145
102.22
-109.035
4.78771
53.4477
91.8595
100.771
91.9544
101.79
121.997
118.647
30.2033
99.6821
106.932
82.4879
106.128
74.5752
117.747
105.779
86.2653
105.107
93.8393
79.401
68.3369
103.807
87.7515
89.6649
56.9373
71.7046
84.0623
98.5465
79.3958
73.3986
115.646
115.11
77.001
-7.9774
83.0197
24.875
45.0269
100.491
109.331
-16.4387
101.365
90.4596
80.6257
91.9172
-6.15918
-308.317
65.2771
125.182
56.4084
71.2718
107.119
83.8527
55.3141
93.4596
84.5558
98.2459
53.204
70.172
84.8328
80.7298
73.4267
77.7404
119.856
110.174
99.9059
131.021
114.96
67.5558
74.434
-21.1627
58.5309
115.235
-159.388
95.3191
87.7248
13.1801
69.2124
101.02
-89.1328
81.3935
97.7861
126.957
22.4938
81.194
78.8713
95.3758
74.4151
-60.8229
114.217
104.85
91.0075
99.204
34.4387
52.2185
-61.4464
118.39
29.1311
123.852
0.703977
61.0895
-31.4831
62.7682
0.808437
69.9584
54.867
90.9969
59.9717
90.8308
-50.7519
-0.363747
-318.041
-25.3035
80.9322
56.4214
73.4876
57.0107
-24.1926
8.60361
90.3598
91.3113
115.271
100.572
76.2432
82.6477
132.436
94.7385
-1.67662
19.0647
83.0573
98.448
90.1943
109.239
78.4432
79.1107
78.9227
5.8066
83.2895
109.168
-9.05726
17.1083
-68.7608
119.175
-24.4749
86.1221
104.754
-1.29059
82.34
81.0109
21.7788
28.9245
66.703
96.9736
98.4276
104.156
57.9719
-20.3253
70.4605
-70.8479
56.2131
61.1937
71.8813
-90.8941
49.4762
-35.4451
24.1811
82.5603
111.768
-39.2232
118.238
18.7649
-50.4871
70.8489
56.191
107.422
87.8775
109.157
74.4796
-23.2133
17.8117
105.274
-26.1674
97.6705
64.348
110.893
108.397
64.0026
99.2267
115.075
95.0481
100.118
34.2447
-83.0305
76.015
84.4896
50.2903
70.671
74.4237
74.9214
5.0631
83.7473
63.9633
82.7707
75.555
77.2872
117.653
81.5652
35.915
86.3094
100.533
-224.608
71.4149
95.4955
72.5104
70.3213
82.7385
91.0942
100.568
100.202
52.6986
101.339
104.717
97.5824
27.8567
48.409
88.6294
88.0748
76.6397
-28.2267
-120.093
57.5569
-28.9004
70.6524
55.671
50.2376
-9.8162
81.3222
-5.92275
65.0123
-96.1396
91.3142
28.7876
102.548
131.501
90.9728
-285.952
92.9745
86.5736
83.0007
12.2629
56.6362
-61.0423
80.4131
104.487
10.9371
113.923
10.7433
100.153
81.9882
77.5126
-45.891
66.8936
123.99
-24.1573
100.625
100.674
109.244
79.9921
104.743
92.0433
-26.2704
95.27
19.2209
-47.7262
105.837
99.6214
58.5887
87.093
107.337
29.2431
-214.271
49.4674
42.5363
99.9933
94.4762
103.486
86.2071
90.5967
33.3352
82.7096
9.87107
103.346
123.576
63.1773
-32.9424
-40.0308
88.7458
78.9238
79.2633
56.9803
-2.09297
82.2942
-6.85921
57.0633
126.753
92.5198
7.47065
-69.8504
-15.467
62.4446
-57.6797
85.826
14.6664
107.599
94.3155
82.4183
121.193
21.2534
21.7879
-240.563
-44.2815
95.0654
-7.71675
90.6243
91.6849
61.749
33.6942
-126.581
-2.99262
-152.716
104.785
-2.40992
76.6904
-64.2563
100.723
100.517
-23.7153
104.851
100.01
111.228
114.684
95.4296
85.3113
125.836
-74.0792
88.6732
38.1591
4.07792
108.25
-105.916
116.084
93.3305
65.3414
-43.4811
-63.498
103.806
-139.923
-284.578
87.6119
68.5263
-6.51723
95.6871
88.3602
79.6284
119.182
-10.7711
76.5939
91.9434
90.5338
99.5416
34.596
131.021
70.9492
63.3331
98.1692
62.8814
100.364
93.3536
99.0023
96.0845
21.5909
70.9032
93.6692
83.3469
-27.8434
110.249
94.0772
101.384
105.604
-17.0783
72.9889
58.9074
95.38
73.0342
34.8055
99.6657
-365.492
99.5288
102.232
-52.5373
113.334
-84.2139
123.385
97.1151
-9.92572
8.95677
52.211
97.034
103.567
-24.9327
105.522
101.674
62.5687
36.6428
83.0868
78.704
62.1615
-60.3272
70.6813
-161.22
100.815
-20.4109
16.0314
12.5229
106.849
107.573
99.1349
-22.0877
93.5577
30.0734
80.671
94.7334
-22.9687
-18.2048
117.866
72.6632
-20.4324
87.6679
-30.3582
-18.9625
100.768
-55.9424
22.7821
103.685
76.2567
101.494
2.19577
81.0303
120.506
34.3457
102.895
72.3932
-17.3757
90.9262
83.0207
89.6968
120.927
98.1878
74.9242
122.212
103.857
107.61
-75.0431
-28.5707
69.7024
60.4211
-6.38565
62.6635
60.7929
66.0321
84.7001
82.8792
70.9556
76.667
-10.1206
75.8982
104.114
-14.9451
90.8777
95.7869
100.569
27.2027
58.2171
-25.8107
-62.3984
-3.40963
36.9382
104.127
-2.36341
111.688
14.6876
100.417
69.0623
62.0922
35.5545
97.3144
93.5029
89.4612
88.794
87.8491
-9.41911
108.27
110.148
34.2299
75.1946
3.98616
100.506
84.8667
56.1281
61.9203
86.0086
80.917
70.1191
89.9077
80.3475
62.3671
93.3574
84.21
80.0423
-17.6201
108.476
-14.4781
98.5876
43.5834
99.5219
98.4242
94.9764
90.4298
12.7064
-58.9163
65.1022
3.97583
-86.8988
-90.519
59.6715
-17.7969
98.9216
84.8778
100.517
-26.1534
-19.6316
48.6796
70.5167
98.3777
27.3476
94.3578
83.4915
-52.291
6.28336
-15.821
86.4928
101.013
75.388
84.797
6.27359
96.4727
23.3823
70.3245
19.1892
104.692
82.225
-63.7364
100.928
93.8767
101.391
103.633
110.643
32.1827
66.0109
-131.665
86.6542
95.9815
83.3741
27.776
44.9824
-2.62274
71.5923
70.9928
-13.8029
124.434
28.5658
99.4204
84.7338
-315.947
70.1639
72.4622
15.4644
87.103
86.039
101.184
64.3065
100.822
47.8821
56.1942
-17.2676
54.4218
50.9798
99.769
120.153
101.944
64.5366
37.2089
98.211
4.28019
-12.4647
59.7178
41.5685
10.2359
-8.48582
27.4094
83.1484
88.5659
88.5756
52.3083
83.1916
103.732
83.4369
63.1179
103.697
68.6203
9.11566
34.6897
83.5383
18.9025
121.927
61.3818
88.5179
63.0607
74.6695
83.6364
92.2738
57.8654
83.2658
64.7266
85.2875
73.8356
39.8537
105.328
90.4303
88.3399
-164.858
61.126
121.592
-19.1108
98.5239
99.8485
83.4496
58.5637
81.8192
-41.268
107.943
100.222
95.7062
94.4023
-79.8921
103.883
87.1757
112.594
43.5546
100.683
106.292
99.6309
82.512
21.4343
90.626
-40.9056
80.6861
93.03
101.422
87.1639
110.987
85.1581
114.798
63.447
100.872
82.2743
85.4522
39.0499
100.537
77.9449
92.7637
121.254
101.615
81.0945
81.8408
82.7652
100.215
75.7408
-52.2079
86.9664
72.2727
106.077
-20.7767
112.298
89.2979
132.616
115.814
74.7705
70.922
36.901
86.8431
117.388
88.2019
85.0766
33.3699
127.075
94.2902
87.4405
122.271
74.9122
100.575
24.3891
98.8238
55.686
94.9906
96.8876
105.878
70.8036
-68.19
83.3101
-10.6365
76.5443
36.2251
71.8895
112.737
109.642
41.7012
49.1001
67.3846
102.447
89.1161
90.1123
95.6146
-109.24
3.09485
-46.0452
102.091
47.1859
-80.512
97.8826
79.0875
81.9777
83.1062
121.645
-9.47527
111.742
47.0937
122.974
48.3001
58.2882
61.1157
51.7664
90.4623
100.664
83.7712
-85.1505
61.0019
-77.3524
108.259
77.8251
85.9832
-9.20431
-65.5634
47.3611
99.2656
63.0878
66.8658
31.4545
101.047
123.798
-10.4744
72.6061
90.553
-14.7416
93.6062
63.8521
73.2712
-78.2691
-38.2406
90.0465
-340.024
-46.1447
86.6688
72.5891
-227.853
83.9432
98.586
98.7355
99.4206
121.625
4.25868
125.209
12.1353
121.015
-27.6878
75.4324
119.494
92.2473
-427.246
87.665
66.9186
93.2098
-35.5084
-59.0818
85.0623
77.4685
75.5769
13.8743
-48.9302
91.8267
99.6949
-29.6175
92.5601
50.4352
71.4231
-16.2414
76.7517
45.2878
-15.0083
58.4734
116.679
81.8933
118.878
82.273
26.2626
90.9884
63.4486
61.3411
99.4237
103.531
125.029
98.156
101.411
63.3172
-10.5051
123.395
124.159
103.869
73.2865
-54.1079
-39.9351
90.6959
73.7178
71.1664
105.556
-128.736
77.3141
-8.52523
119.853
64.3943
87.6734
-64.4835
88.2461
102.576
129.821
126.491
92.2674
87.2627
54.655
25.3443
93.4999
127.501
29.5554
58.3594
78.0042
5.90274
84.7375
84.4403
81.8781
83.0864
81.5533
83.4396
-8.29417
90.4739
107.602
47.2146
98.8326
-83.6075
82.4805
117.214
92.5108
54.091
41.5651
92.649
89.7828
-20.5019
38.8021
67.5708
74.772
131.094
-42.4564
60.4655
-25.7282
68.8391
24.5024
43.8699
-24.3624
71.9789
-67.0285
39.2935
65.7939
84.6286
89.6298
76.9644
87.2912
129.418
86.3244
83.284
-41.1032
88.697
-18.2951
42.1348
112.852
99.4967
83.4091
-48.7803
96.5805
100.08
-8.54618
-8.06029
61.3199
112.914
84.3631
100.114
86.3913
112.467
87.3367
-112.225
59.9868
102.141
77.8158
100.411
74.4759
125.627
-30.4943
82.6691
-1.46155
94.3199
-28.7969
78.5633
-34.2232
84.8462
56.1577
-88.3279
-8.53891
53.9707
74.7542
-1.10738
66.3392
89.7687
-50.3463
87.6592
-39.7747
102.141
122.171
86.8886
-0.828043
90.831
79.9978
57.3943
54.3081
82.0782
-35.8746
76.9864
23.3142
58.2387
84.8496
70.7258
-8.95178
44.6417
83.7879
100.616
72.8236
-18.5578
78.3274
-6.86082
-72.573
76.984
30.6583
-21.5478
104.622
-25.4759
65.1532
88.1848
23.9671
27.9706
3.96681
132.384
68.9697
87.9073
93.3408
121.245
117.419
-131.534
32.8944
100.672
80.7539
78.2352
121.432
81.7467
82.3254
132.187
77.3237
47.1601
87.8641
113.362
101.814
91.3126
112.069
97.3992
48.9827
58.9099
93.164
83.5622
-54.1674
119.958
83.7352
71.9668
-8.34397
32.7418
74.5427
-76.584
22.3801
80.7357
93.4554
103.487
95.8192
-0.244749
114.972
118.317
62.4836
84.3357
-12.0373
30.1104
52.8509
95.3931
-20.6068
83.531
93.9317
124.17
15.9104
97.9366
99.1225
103.346
78.0352
87.8244
-80.902
48.5425
65.0592
59.6561
-36.9617
57.811
71.3726
-30.8847
102.988
-101.665
66.3689
88.2467
-17.0418
-62.8163
-64.4842
92.8778
40.209
62.1203
92.6107
-1.36251
72.833
49.9065
-7.8629
101.207
22.6744
122.2
-64.6171
127.024
18.8764
59.4062
82.4674
99.6734
86.9525
34.0513
22.0039
79.5282
82.366
79.2804
133.495
103.359
58.7073
82.8683
71.2224
-13.3717
95.7846
-83.619
95.5549
-62.3549
-47.4548
-12.9377
50.5395
49.8371
-33.3466
96.2678
84.0793
116.78
124.014
-56.6306
-33.3577
82.1264
64.162
118.9
42.38
74.7327
92.4653
97.6028
-180.107
8.60181
87.5787
67.7586
84.8541
-162.354
45.4978
78.4639
72.123
43.5139
78.8671
41.0242
49.7675
95.4587
-157.143
-98.1554
-26.1898
-3.65875
125.41
75.6425
100.403
-81.474
76.0032
85.0745
64.9408
90.2176
-26.6976
-37.305
118.651
100.784
84.7767
-23.6962
128.078
-48.1898
-15.843
-53.2105
66.3647
-28.1132
-139.409
112.915
83.7148
88.7361
91.9346
-31.3006
1.2569
73.7081
83.5297
37.2155
85.3797
90.6714
94.2779
-14.7158
-3.83491
26.0279
48.4843
60.9961
65.3131
125.463
96.5805
-11.9488
64.1041
89.8038
115.345
72.9112
-47.6115
69.3994
107.374
93.1709
79.2481
100.465
-93.9589
118.214
49.8161
102.971
25.1121
79.4453
4.32849
-62.8351
68.3182
90.9205
-51.2777
-23.5162
100.083
-61.9157
84.6497
109.331
98.3545
108.258
100.136
84.9355
28.1779
85.8665
91.9858
34.5212
100.606
78.2432
118.07
-29.9469
107.225
59.4914
121.702
-29.578
73.7723
120.762
-32.6612
75.847
10.4647
110.715
119.782
101.845
45.6974
100.586
104.09
12.9293
93.0066
-154.308
106.807
-38.5602
-24.8022
-44.6581
-52.7781
103.432
61.2465
-63.1866
78.1617
119.087
72.5909
80.7345
-61.6728
74.776
80.748
-51.6528
100.464
91.8063
-61.2824
126.698
57.7141
113.443
107.102
73.3449
80.5858
86.4817
59.3096
-64.3669
84.1681
80.5511
77.0894
91.6081
-37.3323
123.859
104.25
71.8202
17.8878
93.8796
-136.596
96.6987
103.393
82.9564
-56.0766
102.747
94.8298
82.3247
-10.0113
77.2865
96.568
118.039
-17.4398
121.659
128.51
122.932
-117.197
102.897
22.9579
100.656
104.167
108.275
96.4044
109.262
129.374
100.35
-26.3639
28.0039
-26.4248
129.339
79.3122
-93.5823
-19.739
103.727
115.32
96.4642
70.0652
34.7562
112.525
59.2709
93.7418
-21.382
92.8208
76.6935
47.2789
82.8171
20.2417
13.5227
-17.2151
38.0612
-1.33677
102.234
80.1057
86.4364
92.0416
52.5062
70.0413
22.2159
57.5136
27.5629
-37.6555
107.561
113.632
-46.5724
104.311
106.245
112.539
34.2701
-93.1761
96.2084
-47.8846
109.017
73.1835
107.954
97.0409
87.519
106.949
85.7621
104.715
72.3523
93.1919
78.2334
-8.38074
11.3909
24.0087
104.092
-14.2434
-184.583
4.95186
117.877
103.469
91.7146
81.1626
111.692
53.7335
91.9345
46.6238
82.8084
92.1102
-124.117
8.45107
66.9547
-65.1365
33.6061
-14.4748
42.6028
-45.1514
-12.6192
86.3321
120.014
125.207
116.396
-29.5742
93.9215
22.2844
92.1872
114.066
87.2497
103.653
14.3482
74.1448
81.0275
84.254
106.838
68.4838
97.0205
-12.8109
79.6765
-72.5824
103.161
97.1163
100.571
16.0283
92.3236
-26.3247
-67.1534
-71.5277
70.5646
119.212
39.1133
-57.3685
-24.3143
97.8524
100.593
60.1778
95.7906
3.15582
112.405
116.496
-173.057
80.9785
109.005
-162.853
3.67273
85.3528
106.949
110.545
27.1234
74.4714
81.4043
119.257
-47.9956
-175.901
84.7464
114.206
85.3642
74.6833
-89.001
105.299
98.4114
106.166
84.1401
47.3898
96.7315
128.107
-6.20672
83.4861
85.031
-55.1363
84.8237
76.0924
-12.9455
72.8537
-31.6791
96.2925
-140.679
75.9305
102.865
109.706
92.5133
61.6157
-115.763
96.0945
1.32616
56.3471
83.4379
77.8698
-22.9864
105.68
96.656
84.3067
92.8355
116.913
-224.216
79.8506
102.664
-70.5848
96.1588
79.7803
75.3507
52.3449
98.8783
74.7226
74.5116
69.7287
41.5975
106.413
55.1463
53.238
-196.122
-62.0023
101.128
-15.0002
122.641
21.317
-83.2184
1.20824
107.106
96.7819
103.938
-51.9781
114.532
41.8325
78.0782
88.968
46.985
100.82
78.192
65.2091
78.2781
-12.2019
98.8413
-57.5229
-152.236
53.618
78.966
69.3502
85.0041
116.541
74.8521
21.7503
102.89
66.9266
110.621
55.816
85.8247
98.9876
101.733
78.668
-107.197
20.9923
85.5026
89.4604
91.6937
42.0361
-33.4904
59.1979
68.8944
84.8293
130.345
94.1136
100.261
110.963
87.6024
103.56
46.6485
-55.0134
-140.502
100.526
128.561
92.6229
71.5953
106.591
85.6508
87.3223
62.5845
84.3012
81.9714
122.803
23.9059
83.6539
121.91
107.673
91.2829
95.3085
102.295
86.6493
-26.0143
-60.3671
96.5775
1.92946
-30.1876
99.3396
-117.577
21.962
49.2651
93.1962
94.4531
96.8355
82.1326
103.997
105.057
56.8846
98.3372
93.8267
110.359
101.607
71.0138
77.1247
58.6936
105.963
97.553
31.1317
85.7417
81.9133
63.8963
116.229
100
8.63183
14.2563
69.661
101.247
76.1175
90.7195
73.9273
84.5132
-445.782
84.4986
-1.71602
83.8594
74.6983
-169.599
86.0188
11.7084
112.216
-12.0432
10.114
-8.31325
117.439
-308.906
72.5742
88.2897
-54.5824
102
100.444
71.4093
108.702
88.5712
85.9016
-45.4993
10.9821
16.0504
107.074
28.8379
26.1747
-50.109
-270.236
1.58863
-14.9927
49.5645
58.7379
91.4469
100.615
102.433
-244.946
38.5333
109.03
100.442
27.2203
81.756
-36.933
75.2547
88.6513
82.5094
99.1552
-53.3581
-339.749
-409.112
89.837
15.918
-53.1651
81.3858
-88.4322
-63.3628
-58.5324
1.6424
78.0976
-26.8589
78.6518
28.6427
101.482
99.7769
57.7736
107.654
-17.8527
116.428
69.9654
86.194
67.3682
95.642
83.5394
-12.9667
-40.9975
102.156
107.531
118.698
15.7518
-57.8905
-38.3751
76.5009
13.1476
15.1897
52.5295
-26.6899
83.2299
23.2283
77.1348
30.5325
42.1596
112.868
89.0194
69.5917
78.9062
63.6654
-31.8772
112.336
124.879
4.73178
98.95
95.7385
32.8317
-11.2112
106.652
107.294
49.8313
-253.011
-119.762
-25.1024
66.9005
-9.64104
67.7624
98.3882
14.4378
104.599
18.0285
-56.0918
100.928
67.8928
-46.0379
85.6313
101.241
-54.5354
76.6843
-58.9513
24.2457
-37.6726
119.593
-52.0194
81.8122
18.6134
99.9682
-77.6844
-102.621
63.3258
3.87306
79.9956
97.9145
56.7634
12.8665
91.3235
49.6238
-108.868
51.4857
4.39058
76.4708
83.7747
100.545
-61.0184
110.287
-221.298
7.0879
73.0185
44.1257
-55.7286
8.97653
67.2642
73.5837
92.3153
56.525
79.7833
86.3627
89.3091
1.65295
101.01
42.6576
95.8034
0.860502
-45.2086
12.4685
133.987
-3.16912
-64.4726
-1.41428
90.3382
100.563
61.5192
27.1998
57.3808
-38.8666
16.4841
-11.9406
-6.19025
93.0354
-23.2673
88.0211
-57.0958
85.2306
91.6945
72.0629
60.6771
81.8901
102.821
-62.8984
-9.36718
106.714
71.4484
-68.7316
80.2738
52.5572
86.3167
80.4674
103.203
-115.108
92.8915
-50.4337
72.7047
-3.52255
-7.67593
-6.96638
67.408
-202.244
99.9614
92.0393
32.5608
122.698
-39.0219
107.324
109.114
-61.8513
85.6567
99.4509
100.528
78.4084
28.5585
86.2
87.9485
100.469
90.0477
94.1976
33.6048
69.5536
107.236
80.7705
-8.81297
85.5242
106.077
60.5842
57.8002
65.6128
99.3378
87.1782
-9.32391
110.474
106.095
54.2778
-15.7363
102.309
93.9462
83.2408
84.5812
13.6608
72.8308
79.4032
7.63745
107.12
92.3135
74.0533
83.9412
39.5908
-23.28
95.0999
-34.2574
77.3202
103.354
107.209
-420.591
99.1006
84.6763
93.5792
96.8504
81.7142
97.5109
16.0899
101.632
97.2118
101.683
18.4542
105.353
101.686
99.7959
97.5262
-51.6414
78.1845
66.1566
86.0743
104.534
115.551
-114.309
124.058
28.6123
3.91368
96.0588
99.82
74.0646
84.6923
-58.3132
-47.3047
65.6506
-76.2037
75.8529
79.0375
90.4242
125.726
100.678
-270.971
-58.7998
93.5353
93.956
-26.5021
63.7946
-174.663
56.6246
-5.04514
-1.20294
100.428
56.8156
93.0624
49.8867
50.4496
-23.6851
25.2129
75.4102
67.3247
101.944
66.5631
64.1745
109.52
-2.85073
84.0861
94.5837
49.6358
28.9512
98.2006
73.4564
92.4311
81.9308
100.012
89.4766
113.982
100.537
17.0513
79.2716
83.1039
-168.436
77.8475
66.5358
-51.4632
-119.143
126.786
76.1333
-31.2207
109.465
-17.9442
69.6404
-22.0385
16.5893
-70.2363
47.3881
66.4577
88.7367
-71.0855
4.9317
47.7305
-407.502
80.2534
-69.2434
86.9803
98.8423
-28.7156
-56.8662
64.6426
77.5432
89.6349
100.858
111.062
-249.59
101.269
74.0501
97.6226
117.578
-5.7553
95.9781
82.6337
92.5886
107.601
78.4093
75.9507
-106.782
99.4915
111.202
-177.938
26.274
93.6806
89.7047
94.2137
-43.6162
64.705
-215.592
92.4556
-42.7564
83.158
72.7697
100.146
84.5521
-19.0952
76.5809
65.3045
-125.555
114.899
122.262
104.213
128.268
101.89
125.279
94.7157
87.3447
105.721
66.4507
95.4616
80.0986
-5.67238
111.126
66.7724
84.9535
120.795
85.3621
-9.97564
94.3249
92.8836
105.869
4.80064
100.961
119.986
-12.6155
-2.49071
65.1435
85.8936
26.7555
101.888
84.2291
106.865
100.622
-42.5768
100.225
82.8824
-37.138
-26.2842
-97.0594
98.5299
89.8118
100.768
63.8925
7.47131
87.3273
-50.5704
62.6162
-149.971
-79.2884
100.314
88.7773
-47.9588
75.5896
97.8714
83.0407
-72.9216
94.0293
61.6997
93.6937
-65.4133
97.3089
89.7428
67.0211
53.5583
95.9193
84.058
90.3304
-69.1145
126.565
79.6283
-65.8311
96.2246
89.7569
-17.0699
86.7743
19.9717
72.0316
72.0294
88.1569
84.949
84.158
128.736
61.1662
-28.5855
86.4026
78.7662
75.1117
5.62631
92.3155
98.0719
28.2388
84.7536
-52.6497
77.5579
83.0005
92.3389
97.5754
53.6359
5.90379
70.0102
101.083
54.8022
79.5699
-75.1694
72.5072
81.4027
101.811
-71.9479
74.7807
-66.6187
98.2651
-0.323982
81.1537
104.674
100.967
96.4599
1.57374
-24.0111
101.673
-10.9291
105.431
94.6791
57.3244
99.6175
72.63
90.2075
83.2573
73.4022
58.9686
97.9943
-32.2913
106.175
83.1892
129.264
85.467
90.0858
102.331
87.9517
83.2394
100.722
83.3447
82.0595
93.2001
63.0567
93.7283
83.1928
60.0246
-28.0747
-60.8282
4.93085
-13.5182
74.2835
100.09
69.7422
98.8931
82.9643
120.432
113.862
91.7932
84.5141
91.3827
-75.3682
102.694
86.7987
86.0419
77.8058
103.998
97.2033
46.3208
19.9418
53.9911
87.6463
68.1465
61.5666
101.457
-18.6157
86.9725
43.3114
95.3013
93.5194
45.4701
92.8471
99.5334
54.6349
93.3981
102.535
84.7905
28.8849
96.9366
84.3435
112.66
53.774
107.554
98.3765
1.67608
-105.283
-19.5845
69.5398
20.23
-197.193
100.486
110.196
104.439
108.918
97.3452
105.522
92.6868
84.8613
93.392
77.0622
86.7588
90.8259
61.9133
115.058
78.4747
-48.4678
98.0362
110.471
114.911
3.78997
75.8882
-4.76116
-12.0396
94.0157
37.8464
-36.9136
96.1513
120.05
-81.5372
60.5708
17.5909
92.9087
79.7487
88.2534
90.4339
90.4798
1.30958
86.8313
52.9651
29.4227
101.117
100.196
103.273
70.2197
30.3166
74.153
70.4334
83.2299
66.3165
89.1947
80.8688
75.9966
77.1103
23.8229
52.9446
96.5009
-16.6353
83.231
101.242
82.0396
76.9435
12.4751
0.990887
67.4558
97.8169
82.661
-21.2938
100.645
99.6426
-58.1293
80.7564
55.8244
64.9482
-161.369
87.2963
79.8957
75.9701
93.9559
37.0931
95.861
-36.5587
77.5198
105.15
91.9638
98.6641
76.8661
94.9133
20.6948
101.975
73.7985
77.8426
94.8043
-32.8861
-33.7985
-341.513
-30.9506
86.6805
53.4048
38.1489
102.422
81.4386
-5.13398
73.9419
62.6578
100.639
85.4134
84.6702
20.2413
107.49
81.8244
-76.5815
32.7945
83.0148
97.6243
83.1223
105.193
45.9167
78.5029
112.683
101.562
93.0759
94.8076
102.628
107.433
119.989
84.7911
103.709
71.1076
101.141
75.9918
103.123
98.2707
65.4575
64.5369
43.9988
71.5244
-62.2377
-6.89124
95.0535
-17.3226
100.516
80.2995
87.5156
-62.4538
93.8699
102.682
73.8908
69.8034
101.271
97.7367
54.1795
87.9283
103.216
-16.321
111.26
101.647
82.2331
62.9745
95.6603
99.0009
88.4966
108.402
69.6257
74.0711
-61.9244
95.3146
45.517
0.311898
98.653
104.36
77.0665
96.6408
31.8873
24.7157
90.9598
90.0438
-56.3457
64.9638
100.698
-74.2585
100.878
96.626
79.2521
45.4301
48.7496
81.7724
37.2651
81.7051
108.004
96.5935
90.2282