/*--------------------------------*- C++ -*----------------------------------*\
| =========                 |                                                 |
| \\      /  F ield         | OpenFOAM: The Open Source CFD Toolbox           |
|  \\    /   O peration     | Version:  2306                                  |
|   \\  /    A nd           | Website:  www.openfoam.com                      |
|    \\/     M anipulation  |                                                 |
\*---------------------------------------------------------------------------*/
FoamFile
{
    version     2.0;
    format      ascii;
    arch        "LSB;label=32;scalar=64";
    class       surfaceScalarField;
    location    "5";
    object      phi;
}
// * * * * * * * * * * * * * * * * * * * * * * * * * * * * * * * * * * * * * //

dimensions      [0 3 -1 0 0 0 0];

oriented        oriented;

internalField   nonuniform List<scalar> 
20045
(
1.45369
-1.75203
0.298334
-2.96771
1.38573
1.58197
0.40304
4.79433
-5.19737
1.56859
-2.07842
0.509837
-2.67472
2.38724
0.287479
-1.13849
4.81957
-3.68108
-2.96472
0.780302
2.18442
0.165678
1.3384
-1.50407
1.39998
1.24251
-2.64249
-1.46142
-0.709842
2.17126
0.885121
0.96678
-1.8519
4.81545
-2.70181
-2.11364
1.23254
-1.2055
-0.0270339
-2.85164
2.08865
0.762982
-0.493653
2.81419
-2.32053
-2.47887
1.01745
0.00103154
0.664639
-0.665671
3.23718
0.0305581
-3.26774
-4.00701
5.6227
-1.6157
-1.96374
-0.224259
2.188
2.60198
-2.24874
-0.353244
0.451169
0.781368
-0.777881
-2.18983
-1.12408
0.218542
0.905536
2.24606
0.00969893
-2.25576
0.00348993
-1.12757
-0.292137
0.206505
0.0856315
-2.51662
6.19209
-3.67547
5.83998
-2.71874
-3.12123
-7.6899
6.70422
0.985681
0.465308
-3.05008
2.58477
3.61902
-3.2901
-0.328923
-0.357386
2.27428
-1.91689
8.9047
-5.34802
-3.55668
-1.70582
1.8715
7.27677
-2.09728
-5.17949
1.30101
3.85339
-5.15441
-0.198725
1.2186
-1.01988
-7.72678
5.25788
2.4689
1.80021
1.42966
-3.22986
0.0525495
1.43612
-1.48866
0.568654
-0.779099
0.210445
7.91331
-7.9502
0.0368897
3.40586
-0.919073
-2.48679
1.29518
2.11068
2.52631
2.28913
1.27079
-0.977771
-0.293019
-1.9441
3.49336
-1.54927
5.34379
-4.04278
0.575
3.80044
-4.37544
3.32219
-5.50129
2.1791
5.91147
-3.44276
-2.46871
-1.35538
-2.63044
3.98583
-0.259543
-0.94168
1.20122
0.332619
2.44023
-2.77285
-2.03958
-0.635133
2.27929
3.39489
-5.67417
4.78458
1.71279
-6.49737
2.6365
-2.99388
5.81049
-5.73321
-0.0772729
0.888569
0.999493
-1.88806
0.154113
5.65637
1.97892
-3.45435
1.47542
1.89426
0.707718
0.598603
-2.31222
1.71362
1.72766
4.18891
-5.91657
-0.596292
1.84628
-1.24999
-1.7728
0.0555559
1.71725
2.51486
-1.11489
1.7549
-1.40034
-0.354553
-1.59429
0.998
-2.71348
3.0461
-0.872939
-2.75358
3.62652
0.391989
-0.174778
-0.217212
3.43425
2.02964
-5.46389
5.07903
-2.79974
-3.6966
7.13085
1.70587
-2.19952
-1.0634
1.39256
-0.329159
0.109698
-2.1834
2.0737
8.55184
1.07852
-9.63036
2.20233
-2.14256
-0.0597763
2.90574
-0.926815
-5.34775
0.531037
4.81671
-0.101438
1.55513
-0.679161
1.2367
-0.557541
-0.312244
-2.65638
2.96863
-3.98596
0.0894233
3.89654
2.33035
0.852364
-3.18271
-2.17734
1.57659
0.60075
-4.29516
0.776496
3.51867
2.2542
-0.486782
-1.76741
1.16578
-1.82669
0.660904
-0.809002
-1.93115
2.74015
1.78033
-1.89851
0.118178
-2.48816
3.03983
-0.551676
-0.0546673
-0.237469
-0.0447448
-1.4962
1.54094
3.49636
-1.69615
-0.183068
0.765585
-0.582516
7.12259
0.154177
-1.31341
-1.53822
-2.05529
2.01054
-2.74233
7.52691
0.496358
-1.17552
-0.794542
0.611474
0.890633
3.20775
-4.09838
2.46773
-6.84397
4.37624
0.207392
-1.45988
1.24706
0.212818
-0.903716
1.12455
-0.22083
3.40595
-3.16353
-0.242419
-1.50303
1.24349
5.45527
-6.88681
1.43154
-0.825966
1.13887
-0.312901
0.165586
-1.08641
0.920823
2.57118
-0.325119
6.65473
2.24997
-3.34123
2.46829
-0.0984933
-5.2897
5.3882
-1.11908
4.35627
1.6766
-0.788036
-2.34695
1.91216
0.434789
-5.25904
0.30856
-1.77312
1.46456
3.09257
2.8189
2.98192
-4.06336
1.08144
3.86753
0.354981
-4.22252
-8.20229
6.11208
2.09022
1.21569
1.66329
-2.87898
5.40632
-2.31375
-1.5249
0.547128
1.46531
-1.02603
-0.439281
-0.0583596
-0.0792648
0.137624
2.88666
1.97451
-4.86117
3.16997
-2.61547
-0.554493
-0.589272
-0.0497874
0.639059
-1.03751
-0.422368
5.11174
-5.21023
-1.98429
2.073
-0.0887082
1.94435
-4.18476
2.24041
1.77817
-3.13356
1.71673
2.07696
-3.7937
3.14135
-3.03166
6.71906
-0.875731
-5.84332
0.294904
-2.04246
1.74756
3.2028
-1.84368
-1.35913
-0.861954
0.766881
0.0950727
-0.342154
4.62099
-4.27884
3.83207
2.0079
-4.09693
0.0940444
4.00289
-2.98694
2.27082
0.716118
9.18967
-0.637829
0.38199
1.82034
-3.16371
3.55342
-0.389717
-4.07408
4.47712
0.0466521
-1.32243
1.27578
-0.0431092
-0.262989
0.306099
-0.105535
-1.138
1.24353
3.09197
1.89891
-4.99088
5.91237
-2.82241
-3.08995
-1.34528
1.23975
4.00202
-4.20163
0.199607
0.702637
-0.133983
-6.18509
-2.30333
2.81588
-0.512555
-2.8578
2.40562
0.452184
-0.0351292
-0.38461
0.419739
1.84337
1.35943
-0.166926
0.108567
0.615821
0.849494
-3.20539
0.041685
-3.75987
4.63913
-0.879262
-3.85772
4.01745
-0.159725
2.92309
-3.80016
0.877068
-1.32641
-1.58828
2.91469
1.59969
-2.11054
0.51085
3.42571
0.0224316
-3.44814
-0.17156
-3.68985
3.86141
-2.54654
4.26328
1.13599
-3.15975
2.02376
-1.50616
6.96143
-4.12673
3.21806
0.908677
-0.694999
0.752076
-0.057077
2.33901
-4.83466
2.49565
-4.8547
2.33808
-4.92248
-1.83181
7.33876
-5.73017
-1.60859
-1.80169
1.85424
1.06967
-1.14419
0.0745242
-1.01453
-4.46496
5.4795
-4.49972
6.72667
-2.22696
5.90338
-5.6838
-0.219576
-0.232764
-0.798357
1.03112
-4.09269
-2.05891
6.1516
-0.773913
1.65903
2.07053
-0.854844
-3.07901
-0.952421
4.03143
0.757502
0.179556
-0.937057
0.148656
-2.45198
2.94424
-2.47893
4.02065
-0.153116
-1.02428
0.825551
-1.19562
1.44674
-0.251121
-2.62003
5.712
-6.59786
2.50518
4.71973
-2.4857
-2.23403
-3.86864
0.969474
2.89917
0.558659
5.34472
5.20726
-2.86825
5.24716
-7.34408
2.09691
-1.67367
2.36556
-0.691893
0.487884
-2.45162
-2.64568
3.53631
3.00706
-4.14555
-5.70247
2.56015
3.14232
-7.89961
2.50193
5.39768
-0.611854
-1.56549
1.01393
0.96303
-1.97696
2.62344
-0.555456
-2.06798
0.766616
-3.16212
2.81996
-1.515
-0.469292
2.83336
3.27653
-3.59192
0.315397
-0.0597149
-0.859405
0.91912
2.99914
0.279255
-3.27839
2.07871
1.35408
-3.43279
-2.27311
6.47797
-4.20486
-4.39274
4.08049
3.26781
-2.13182
-0.801338
2.26882
-1.46748
3.46863
-1.52428
0.742833
-0.0654362
-0.677396
2.17152
0.49253
-2.66405
-0.867301
0.907111
-0.0398104
7.87734
-5.82047
-2.05688
1.62133
-6.12105
-0.965905
0.0986037
-4.21273
0.957915
3.25481
4.09715
-1.82288
1.10492
-4.86479
8.41361
-4.90916
-3.50445
-0.116444
0.873946
5.85873
-4.70494
-1.1538
-3.04655
0.351693
2.69486
-4.85997
4.6988
0.161176
3.20779
-2.7421
-0.465695
-0.0758811
0.129478
-0.0535967
-2.47482
2.83636
-0.361541
-0.205557
-1.33081
1.53637
-1.05453
0.228564
-1.10188
0.198164
-2.64133
-4.20264
1.15577
-6.45706
5.30129
2.84603
-2.24073
-0.605297
2.9259
0.693124
-3.89608
-1.80639
-0.784345
0.741235
1.3321
2.76506
-2.8224
0.520626
2.30178
4.00516
1.85357
2.4137
0.400488
2.61524
0.230794
-1.69875
-0.217848
1.91659
-0.0741857
-0.620813
-7.08505
4.81194
-2.17683
3.6849
-1.50807
-4.7683
4.54948
0.218816
2.12761
1.96475
-4.09236
-0.487936
-0.990554
1.47849
3.71448
-4.24657
0.532091
-2.93873
-4.96088
4.97809
-3.77169
-1.20641
-0.680015
0.6203
2.94168
0.266108
-5.74803
6.9038
6.74281
-5.1062
-1.63662
6.60818
-3.34074
-3.26744
3.26477
-0.841778
-2.423
2.00308
4.73973
4.64467
-2.76984
-1.87483
-1.13976
4.17252
-3.03276
1.9385
-1.34899
-0.58951
-0.747431
-0.778307
1.52574
0.479203
0.128019
-0.607222
4.67583
-4.00273
-0.673103
-4.53676
-3.66554
3.14602
0.130509
-4.28467
-0.483629
-0.592457
2.76398
3.66962
-5.17288
1.50326
0.0206192
1.04905
-2.66888
5.55555
2.32931
5.54803
8.35639
-6.15074
-2.20565
-4.52502
3.57259
3.27993
-4.696
1.41607
-3.07624
-0.497492
3.57374
-1.74305
-0.89519
2.63824
3.7018
0.300225
3.81338
0.90635
1.4211
-0.939194
-2.35091
-0.673751
4.75318
-4.07943
-1.4234
0.227781
-1.11771
0.316374
0.444009
-5.30398
0.0859852
-4.47872
4.32926
-1.42966
1.86228
-0.432625
-0.164249
1.73284
-2.26958
1.3157
0.953884
2.5965
0.809452
-1.83963
2.2564
-0.416772
2.21896
0.951008
-1.40991
5.07953
2.96118
-0.630837
-1.3559
-2.51274
9.56172
-7.07579
-2.48594
5.58106
-6.12126
4.62503
1.49623
3.89723
-4.42496
0.527726
-2.54283
1.73383
-0.813507
0.224235
-1.64899
-2.64617
1.83928
-3.12914
1.28986
2.29213
2.35253
2.72476
-4.16625
1.44149
1.56185
-3.12404
1.5622
-4.88722
0.901255
0.136252
2.11794
-3.87371
3.95019
-0.0764737
-0.956562
1.74039
-0.783824
-2.82045
-0.144272
-0.760224
-1.34946
2.10968
0.711542
0.00337639
-0.714919
-1.76058
-1.22636
1.57836
2.35374
-3.9321
5.38575
-1.38059
2.47667
-2.24998
-0.292854
2.79492
-1.23308
-3.69667
-0.43007
-1.05892
1.05745
0.00147875
0.39619
-2.34029
-2.76799
4.17987
-1.41188
-0.812058
0.972168
-0.16011
3.00324
-0.379798
-4.08326
-1.08962
-2.84257
4.92609
-2.08352
2.64548
-4.2095
1.56402
1.69896
3.27913
0.146669
0.0679484
-0.214617
0.727589
-3.80383
1.34133
-0.12181
-1.21952
0.121168
0.270821
-0.57972
3.56164
-4.52584
4.61183
1.55693
-3.23059
0.756099
-4.76311
-3.82242
3.28831
0.534114
3.53866
-0.931829
-2.60683
4.77193
-1.05745
-5.18796
-8.49719
-1.52829
2.53593
1.02938
-1.56608
0.5367
1.69367
-1.91793
-4.11002
3.5303
6.30642
1.6069
-4.33302
1.56503
3.28204
-0.136025
1.51469
-1.45965
-0.0550441
-0.26973
-2.53692
2.80665
-4.47563
0.782674
3.69296
4.27791
-4.27791
-3.99491
5.33435
-1.33944
0.632259
-2.47189
2.59047
-1.76354
-0.826924
-4.92721
5.09566
-0.168454
2.00859
-0.204734
-1.80386
1.61421
-0.448398
-1.16581
0.892615
-1.38055
-0.495517
2.14825
-7.89628
-3.74415
4.50365
-0.759506
-1.58907
3.16743
-0.618841
-0.116164
0.735005
-0.514534
2.23874
-1.7242
-1.96335
2.45124
6.8432
-3.91228
-2.93091
-0.669697
-2.35979
3.02949
-1.49105
1.55411
-0.0630617
1.09783
-1.58554
0.487714
-5.84109
6.97158
-1.13049
-1.37122
-0.707201
1.64375
-0.129056
0.0876307
0.706214
-0.793845
2.41357
2.26226
-0.741816
0.122975
-0.687257
-0.884398
1.57165
-2.71512
4.35371
-1.63859
-0.0498535
1.12865
-1.0788
2.51558
-1.73527
1.20995
0.845267
-2.05522
0.469591
-2.40074
0.647022
2.77868
2.49396
1.48
-3.97397
2.68822
-1.94457
-0.743653
-5.05861
0.961675
-1.63243
0.928375
0.70406
0.52632
4.37598
-4.9023
-3.36655
2.86906
0.368294
-4.59425
4.22595
-0.858182
0.625418
-0.823104
0.923799
-0.100695
0.203734
-1.90248
-1.26474
0.946984
0.317753
-3.57204
-0.640687
3.03619
3.3072
-0.931873
-2.37533
-0.915829
0.103771
0.536101
-3.34611
2.81001
0.82641
2.374
-3.20041
1.18802
-3.48244
3.98994
-0.507498
-3.76221
2.62245
-0.0648595
0.271364
-1.95883
-0.898975
-1.63781
0.349352
1.28846
-4.69013
1.97501
3.0823
-3.752
0.46254
2.8195
-1.89421
1.82623
0.0679866
-2.14956
-3.12466
5.27422
1.16483
-1.66401
0.499174
0.867181
-4.95044
-3.41781
-0.439914
-1.97403
0.201223
-0.112174
0.265026
-0.152852
3.90447
0.387772
-0.354611
-0.0331607
4.39441
-3.86809
-1.70605
5.43313
-3.72707
1.42431
1.1942
-2.61851
-1.69303
0.834844
-1.47856
-0.159254
1.27627
1.31419
-4.81125
-0.478454
-0.936354
-0.122571
2.88984
2.44623
0.514959
-3.84471
4.41971
0.0282742
-1.59814
1.56987
-0.465503
-4.11427
4.57978
1.2432
-1.35436
0.111159
2.19369
-3.5201
0.613144
1.32535
2.22512
-1.93022
-1.55068
-0.7189
-0.16679
-2.2578
2.42459
5.47159
-2.5485
-0.0983993
-2.33474
2.43314
0.602429
-2.16049
1.55806
-3.11652
-0.0916758
3.2082
3.20642
0.286939
0.0384658
0.633054
-0.671519
-1.32343
-0.167616
1.10683
1.94068
-3.04751
0.905119
-1.09245
0.187331
4.83916
0.142014
-4.98117
-0.46211
-2.02605
0.678979
0.0325633
-2.96294
-2.97208
5.93502
5.83359
-0.721848
3.899
-3.07259
-2.09479
1.33456
0.703838
-0.224634
-1.17253
4.45246
0.516528
-3.75081
3.23428
-0.761956
0.448658
0.313298
-1.57249
2.94485
-1.37237
1.91034
-1.24135
-2.02224
3.26359
-0.871592
0.788788
0.0828034
-1.33627
-2.47493
3.81121
1.71543
-2.22996
0.405147
-0.440276
2.57106
-3.90734
-3.4309
-1.16655
4.59744
-0.00304576
-2.72648
2.72952
1.02696
5.38256
-5.69846
0.315902
1.17293
-0.384132
-0.788795
-0.0614113
-1.8328
1.22545
1.5147
-1.97621
0.23316
-3.91808
4.89939
-0.981312
1.182
-3.35883
-0.192999
3.33435
-6.09972
-1.85048
0.273296
0.414268
-0.687564
2.66692
-0.220698
-1.25063
1.37243
-0.121808
-1.67368
1.46813
-7.34552
2.42304
4.12814
0.691428
-0.340986
1.43881
-1.28573
2.71004
7.82089
-5.67264
-1.28411
0.0334835
-0.707265
-3.40275
1.24339
1.41521
-1.36856
-4.60316
0.127525
-0.648916
1.28202
-0.117189
-7.6331
1.48439
6.14871
0.788146
0.966752
1.29608
-0.486275
-0.809805
1.71329
-1.54787
-0.165422
-5.11818
3.0209
-5.49196
2.64939
-3.8318
2.54508
1.28672
0.0668127
-1.33121
1.2644
5.00233
-0.130654
-4.87167
1.21195
0.0981818
-1.31013
-0.79263
-1.55432
1.39674
-0.230961
-0.39672
0.346498
0.0502225
2.33857
-0.252747
-2.08582
-0.128333
-0.268387
0.873278
2.16655
-0.167604
-0.900919
1.06852
-4.98847
1.07039
-0.0710284
0.14251
-2.1978
0.338599
2.9686
0.187226
-0.97157
1.38806
0.997423
-2.38548
-0.987682
1.58629
1.57738
-1.54911
1.34057
-1.17498
0.747713
-1.70427
1.03356
-3.40299
2.36943
2.98637
-0.601767
-2.3846
-1.8477
-0.19476
1.48934
-0.284769
-1.20457
1.32497
-1.78412
0.459151
5.37484
-0.133659
-5.24118
1.16542
-0.384625
-0.780798
-2.60286
3.68472
-1.08187
2.72708
2.34156
-5.06864
-0.930132
1.92962
-1.59895
2.49901
-0.900059
1.32102
0.508879
-1.8299
-2.98705
2.69344
0.293608
0.262919
0.0835794
-4.25357
0.82267
1.8482
-1.04542
-0.802779
1.9054
-2.8079
0.902501
-0.678686
-1.07334
0.505983
4.87658
4.15784
-0.847181
-3.31066
-3.87142
0.388984
1.61277
-2.96867
4.48233
-7.97895
3.49662
-0.66747
1.6814
0.0920017
-1.79315
1.10589
-0.944609
1.25317
-1.37631
-5.98859
7.3649
3.57971
-0.638033
-3.62695
3.89795
-0.271001
-0.264992
0.152818
-2.99704
-0.80041
-0.750014
0.833011
-0.0829966
0.537256
-3.7585
3.22124
0.399885
1.58288
-1.98277
-0.741112
2.64652
-2.03317
-1.70522
3.73839
-4.17272
-1.27752
5.45024
2.09312
-1.98608
-0.107036
-1.50963
0.13907
1.37056
0.653997
-0.478273
-0.175724
-4.42179
0.14791
4.27388
0.105088
1.20248
-1.30756
3.72738
-4.11823
0.390846
-2.05722
2.41284
-2.38687
-0.0259686
0.0624164
-0.812431
-2.33124
5.34313
-3.01189
5.25058
-6.75674
-4.7324
4.13867
0.593733
1.09796
-0.192839
4.08442
-4.27742
-0.525424
-0.560044
1.08547
-0.0755835
1.09469
-1.01911
-0.742756
3.38997
-2.64721
2.89984
-0.871889
-2.02795
4.98929
-4.77451
-0.214785
3.30325
-1.59422
-1.70903
0.204806
-1.39374
1.18893
-1.70324
-0.0698859
-5.38757
4.68749
0.700085
0.225091
-5.61266
0.633533
1.96751
-2.60105
-2.16002
-1.84271
1.3404
-1.03819
-0.302208
-3.89283
-1.09564
-1.23705
0.890481
0.34657
3.29982
-1.22111
-4.87972
4.61705
0.262673
-0.279024
0.197729
-0.372506
1.30943
-0.097478
-2.69796
0.22314
1.07466
-1.12415
0.0494895
-2.91252
-0.183787
3.0963
2.18512
-0.176528
-1.28476
2.34787
0.655366
1.91729
2.52768
0.204986
-2.73266
-0.792337
2.39203
-3.52911
2.23316
1.29594
0.453711
-0.190793
3.39436
0.185356
0.944192
-3.09375
-0.567157
-1.05342
1.62058
2.60451
-7.95465
5.35014
3.07176
-3.0748
6.31683
-6.34834
0.0315045
-0.0362665
-2.92785
-0.601255
-2.19893
5.24513
-3.0462
0.0296861
-1.17194
6.4191
-5.12592
1.23309
-1.45422
0.706791
-0.794844
-0.521246
0.937127
-0.0300156
-5.69228
0.147392
6.61793
-1.5389
2.06487
-1.56207
-0.502798
0.210088
1.40412
-5.70156
-2.21951
7.92107
3.60944
0.0923506
-0.025824
-0.90666
0.932484
4.10487
0.892617
-0.164735
-0.727882
-1.42939
2.46295
-1.83906
-4.58124
0.837095
-1.30712
0.0736166
1.2335
4.75603
3.65758
2.42601
1.19855
-3.62457
4.76716
0.222132
3.20315
-4.55412
1.35097
-3.99942
0.0852864
3.91414
-4.29925
5.5207
-1.22145
0.873087
-0.028534
-0.844553
-1.32897
6.57954
-0.72981
3.85226
-3.12245
0.243496
-3.87044
4.20418
-1.69025
-2.51393
-4.32703
5.5544
-1.22737
-1.24987
3.09242
-1.84255
5.80582
-2.56791
-3.2379
0.346578
-3.04948
2.7029
0.752029
0.17177
-1.89076
4.61784
1.20167
-5.19659
3.99696
-1.35147
-1.11077
0.943162
-4.08655
0.0871333
4.38986
-1.6651
0.264554
-5.6123
1.53742
-0.101306
4.39222
2.49159
-6.88381
2.76894
-0.965697
-1.80324
1.94848
-5.1915
3.24303
-1.08374
0.0588623
1.02487
-1.14706
-2.5953
3.74235
2.00046
-1.25275
-3.31879
4.80462
-1.48583
0.771521
0.883488
-1.65501
0.441759
0.898637
-6.63098
7.66471
-1.03373
1.29861
-0.0554019
2.31282
1.25372
-3.56654
-0.631131
4.15139
-3.52026
1.15201
2.38665
-0.260888
6.97994
-0.0790894
3.96641
-3.88732
-0.0506417
0.000788201
0.0219869
0.173221
-0.195208
-2.67769
1.56507
1.11261
6.55396
-0.237131
0.843498
-0.686156
-0.157342
-1.07755
3.80443
-2.72687
-0.0690683
1.16986
-1.10079
-5.27885
2.21321
3.06564
-1.65698
-0.498928
2.15591
3.43241
-0.43327
1.12971
1.63923
1.98917
-4.18014
2.19097
1.62887
-3.98866
-0.653579
1.98788
-1.3343
1.1301
-0.145199
-0.984899
-0.165936
0.917965
-0.255306
4.01806
-3.76276
-0.802718
4.60315
3.5949
-3.19144
-0.403459
3.43446
-2.58209
-2.3841
1.13158
1.25251
-0.111401
-1.65214
-2.4118
1.53171
0.880091
0.439325
0.856755
0.761697
3.62207
-4.38377
1.3472
0.991365
0.690968
-4.86369
-2.70292
0.804086
1.89883
-1.90239
-1.255
3.15739
2.79631
-1.40826
-4.21137
2.6223
1.73114
-1.36949
-0.36165
-1.97073
7.12172
-5.15099
-2.15377
2.62336
-3.0105
3.18903
-0.178527
-2.56769
6.99614
-4.42845
-0.118439
1.2447
-1.12626
1.31985
-1.25304
-2.7187
-2.43016
4.6659
-2.23574
-2.77357
3.74304
2.42974
-2.85527
0.425529
0.123416
-3.32711
3.2037
-4.7359
2.86925
1.86665
-0.113808
-0.827054
0.940862
-0.517543
2.4835
-3.22625
7.19472
-4.59021
-0.442661
-3.37976
-3.52995
3.45086
2.09923
0.30639
1.2559
0.809267
-2.06516
-1.9032
1.79013
0.113064
4.12205
-2.1971
-1.92495
1.25596
1.20785
-2.46381
-4.53031
0.0431252
4.48718
-3.33658
-0.76225
4.09883
2.85336
-2.72994
-1.10269
-1.57499
-5.87292
2.38343
3.48949
2.92752
-0.99759
-1.92993
0.04081
1.19879
-1.48148
0.282693
-0.00749698
3.01896
-1.763
0.847263
1.22487
-1.02006
3.08451
-2.54725
-1.71911
3.3824
0.177743
1.60259
-0.397289
-0.572976
0.970266
-3.8387
-3.15364
6.99233
4.18062
-2.19145
-2.45576
-0.123486
2.57925
0.595283
1.18609
-1.78137
-0.028094
5.50111
-3.52847
-1.97264
1.03312
3.12473
0.0958325
3.82934
1.32236
-5.1517
-2.2309
1.84212
0.388779
-2.66115
-0.884212
3.54536
-2.56701
0.968059
-1.43875
-0.945352
5.81081
-2.52015
-3.29066
-2.16606
-0.799254
2.96532
1.42695
0.675449
-2.1024
-1.06231
1.1674
-0.706374
1.94872
-1.24234
0.686789
-0.134477
-1.2108
-0.0628965
3.4412
2.36961
-1.11204
6.36992
-0.365928
7.07015
-2.83057
0.66451
-3.77817
1.11702
3.78186
-3.05427
-0.795292
-3.46211
0.859252
2.46796
-1.83443
2.97506
-3.24479
4.17143
-0.274199
-1.04826
-0.778421
-0.678356
-0.605304
1.28366
-1.7146
-0.183906
3.82876
0.632136
-4.46089
-0.271251
-1.26668
1.53793
-0.494927
4.63937
-6.22689
1.58752
3.92374
-0.196354
-7.14383
8.32208
-1.17825
1.07626
-1.02071
-3.86258
-0.873324
-1.20378
4.77618
-0.0886969
5.85016
4.85354
-2.02401
-2.82953
-2.67364
-0.354894
3.02853
0.591441
1.98866
-2.58011
-3.59905
0.48253
-1.06168
-0.130395
1.19208
-2.40965
2.92617
1.00841
2.21897
-3.22739
-2.56183
-0.0604754
2.62231
-4.05408
0.351395
3.70268
1.95431
5.24041
-1.4443
2.05755
1.2457
-0.826079
-0.806356
5.2997
-6.17543
-1.78722
-1.0308
2.81802
-2.18196
1.25183
3.39451
0.00795541
-3.40246
6.26418
-6.63011
-0.024479
-0.0514021
-1.32751
3.07263
-1.74512
2.78445
-5.11569
-0.130293
1.61573
-1.48544
1.29075
-0.841933
-0.448819
3.52047
-1.32678
-1.52257
3.13534
-0.9956
-2.8362
-0.934115
0.996531
3.88489
-2.53081
0.276186
-0.146709
-1.14552
1.09308
0.0524427
1.21466
-1.34147
0.126819
-3.6478
5.67744
0.275846
-2.73161
-0.182685
-1.619
-0.315652
2.99108
-2.67542
1.80852
-2.02637
1.13456
-2.87423
1.73967
0.476394
5.07089
-5.54728
4.18813
-4.86188
5.83242
-0.109151
-4.62325
1.50357
5.11436
-3.4907
-0.72067
-1.84701
-4.27425
-2.35
1.00054
-0.057829
0.350403
-0.292574
7.91547
-3.15945
0.522234
0.819098
-1.2299
-0.95117
2.18107
-4.54744
2.34861
2.19883
1.94048
-0.973697
2.16948
0.243359
0.979249
-0.52808
-2.05253
2.79918
-3.52899
-1.40765
2.11543
-0.707785
-0.607747
4.4365
2.39667
-2.07878
-0.317893
5.49222
-5.51353
2.63122
2.88231
0.923443
1.46361
-2.38705
0.326234
-2.7869
2.46067
-2.91258
1.66271
-0.241691
-0.420575
1.84752
4.40537
-4.87088
2.30077
-0.979743
-1.69583
3.3247
-2.32854
1.4881
0.840434
-4.97727
1.18424
3.79303
-3.27248
3.72461
-0.452132
1.47521
-2.26755
0.0730815
0.632088
1.46103
-0.629703
-1.5537
3.96685
-7.85211
5.31965
2.53246
1.15925
-3.83289
-0.0580676
0.0786231
-3.12517
0.600332
3.27231
5.17371
-1.86193
-3.31178
-2.68293
1.34012
-3.24251
1.00559
-4.2991
3.9442
-2.77492
1.53357
2.22948
-1.76382
1.15894
0.604883
-5.17127
2.23452
2.93675
-1.37415
-1.17841
1.78084
-4.9385
3.55127
1.38723
5.14821
-6.47718
-6.42325
-0.207731
8.04665
-3.56432
4.72776
-2.50739
-2.22037
-0.145075
-0.891254
1.03633
0.778809
0.692476
2.52803
-1.64902
-0.114802
0.563422
1.43704
0.788
2.03181
-2.81981
2.16411
-1.20108
-0.266199
-4.5596
4.8258
-1.84678
1.18097
-3.72751
-3.19307
-2.3657
5.55877
1.34967
-1.83645
-3.65144
1.19874
2.4527
0.130314
0.360162
-0.490477
5.9854
-7.36171
1.65065
-2.97816
1.41309
-3.6825
2.26941
1.9259
0.138971
-4.22303
1.29524
2.92779
-2.52602
0.869041
-0.34353
-1.88737
1.20938
-2.9966
0.116352
0.0139622
0.0609451
-0.822901
-2.82528
3.82808
-1.0028
1.64129
0.784126
-2.42542
-3.09722
-0.0593833
-1.37028
0.207312
4.0706
0.79281
0.179358
-0.439073
-1.50606
2.13832
2.51735
2.73497
1.38708
-4.52674
-0.352984
-4.81896
0.315888
-5.02082
1.03084
0.996694
-2.02753
3.99138
0.334067
-4.32545
-0.645492
0.616958
-1.82321
-3.66875
-3.69853
-0.726431
-0.965798
7.22998
-1.66142
2.53151
-0.870088
-5.69081
1.85211
-1.69185
2.47985
-6.36191
-1.27119
-1.65495
-1.02779
1.53864
0.0880824
-3.0006
5.57737
-0.801189
0.777335
-1.78804
1.01071
0.682656
1.58616
1.54814
4.82633
-4.45804
-0.39266
-1.17477
1.83567
-2.25765
2.77828
-2.51562
-5.12148
1.18532
0.969085
-2.1544
-4.33975
0.0618342
-0.81599
3.87258
-3.05659
0.0388163
-7.18264
-3.01746
3.29671
5.7314
-2.89701
-2.8344
-0.214024
1.1424
3.96746
-1.39923
-2.56823
1.45112
-1.58559
0.375227
-0.35324
-0.497428
-0.246561
0.743989
-0.739504
1.9954
-1.45884
6.60706
0.0201527
-1.05834
-1.37562
-0.646494
2.02211
-0.304843
6.29024
-3.0691
1.64349
1.42561
-1.93479
3.04163
1.68084
2.12359
-2.23918
-0.463743
2.85369
-1.05105
-1.80264
-0.177423
0.0781487
0.0992745
0.234875
-3.11611
2.88124
-4.4876
0.789077
1.18073
-4.92511
5.241
-0.0325407
1.48366
0.902906
-2.56432
-8.24364
6.71535
-4.16045
1.33804
-2.49672
0.533369
-1.58345
-2.9952
4.57865
-4.94342
-0.57986
-0.0931922
0.673052
3.99244
-3.46141
2.8602
-2.26876
0.40373
2.71431
-3.11804
0.422377
-1.48406
-1.66414
-3.82037
5.48451
-3.24689
3.96737
-0.720477
-4.04403
4.03365
0.0103879
4.0011
-3.40504
-0.596057
2.13223
-0.17565
-1.95658
-2.11482
-3.39871
-1.55266
-0.421368
2.68131
2.72501
-0.0404018
0.600865
-0.560464
-3.27795
-0.945078
2.89597
2.72674
-2.63937
3.39419
-0.754819
0.895228
-1.05996
0.586949
1.57223
-2.15918
0.20133
2.19534
-0.454068
-4.48443
-6.03716
1.85413
-0.122989
-0.597755
3.54199
0.467569
3.35095
-3.81852
-2.51295
-0.185011
1.6567
3.72905
0.39536
-1.43287
0.917581
-1.72476
0.807179
0.228495
-1.8799
1.6514
3.76368
-1.79893
3.48734
4.33475
-2.04262
3.911
-2.73003
-0.703259
-1.30952
2.01278
3.50994
0.662576
-0.188349
-3.53094
2.38389
5.77612
-6.08096
-0.817144
-2.8416
3.65874
-2.18395
-2.36349
-4.58657
4.49586
0.0907118
-1.33248
-1.38647
0.781162
2.85222
1.48253
1.75477
-3.75424
1.99948
-0.0361955
-1.36415
-3.2428
-2.00243
5.24523
3.8979
-0.288459
-2.13739
1.48381
2.81908
-4.64228
1.78078
-1.77108
-3.75366
5.0505
-1.29685
-0.649676
2.01943
1.92266
-3.94209
4.33465
-2.49048
-1.84417
-3.75579
-2.99724
4.00974
-1.0125
1.26875
-0.491411
-1.54523
1.51269
2.0414
3.76441
-1.20921
1.06413
0.235127
0.152645
4.49801
-2.52351
3.79285
4.12262
-2.22526
1.28226
0.943002
1.13069
-1.69785
3.38578
0.00872685
2.51842
2.20934
-2.97615
-0.199361
3.17552
1.08268
-0.0856893
-0.996995
1.00625
0.166679
0.669186
-4.96843
-1.52425
1.72799
3.09151
-2.97232
-0.119183
0.880449
1.97324
-0.917396
0.431121
1.42778
1.17389
-2.60166
-0.78681
3.42331
0.425809
-1.70609
4.39267
-2.68658
-0.834689
1.60621
-0.304002
-2.25783
5.03365
-2.56339
-1.72128
2.37544
-2.0492
1.63607
-1.81876
-0.990978
0.872539
-1.48698
-0.852106
-0.063723
1.72619
-0.946118
3.86138
-2.91526
-0.782501
0.870131
-1.1921
0.632059
-1.85787
0.305207
-5.99299
3.03004
1.31304
1.18596
3.69801
-4.84557
1.14755
0.591103
0.6456
3.43747
2.37853
-5.816
-0.694441
-0.0475291
0.74197
3.1939
-4.89995
4.24056
1.49085
3.67578
-3.20821
-4.16977
0.229069
0.197803
-4.43787
2.05454
1.30193
3.10963
-4.41155
2.08558
-0.277055
-0.105278
-1.57415
-0.651116
-2.20565
-1.9002
1.78879
4.47252
0.960608
2.58389
-2.32256
-0.261336
1.05706
0.03602
-0.377725
1.3776
-0.162945
3.75663
0.902604
-4.65923
-2.64497
1.23732
-1.2858
0.794537
0.491267
-1.83138
-0.0207801
1.85216
1.51432
1.56613
-3.08045
1.15265
1.64366
3.11881
-0.0699654
-1.43307
0.816422
-2.32249
-0.896088
1.62443
-0.728343
-5.66646
3.83464
3.95461
-3.02543
-0.929176
0.0942649
-0.82465
0.730385
4.00073
-4.25604
2.66796
1.22994
1.18471
1.67549
-0.837767
-0.0143396
2.01841
-1.23111
-0.787304
-1.77119
-0.710928
4.9974
-2.56372
-2.43368
2.61139
-2.0637
-0.547696
2.21013
-3.61954
1.40941
0.475056
2.63723
0.157697
4.00248
-4.59666
0.594181
0.93025
1.08816
-4.21621
-2.44414
0.365359
4.01193
0.0461273
-4.05806
-2.76406
0.168227
-0.565516
-0.809921
0.123765
0.52023
2.5524
-2.21896
2.61884
-0.0356015
0.312938
-0.219989
0.716347
-2.03
2.43373
0.0716965
1.34351
-0.648502
-0.649032
3.57493
0.134937
2.44896
-1.24963
-0.734843
-1.1691
2.59688
-0.390151
3.27649
-2.88633
-3.63812
-0.61545
2.21309
-0.159115
-2.05397
-0.403781
-2.04035
1.65732
-0.318921
-0.094992
-1.28993
1.38492
-3.88968
1.32629
0.845292
-0.806826
2.63934
-8.3409
3.94838
-6.92046
1.67503
-1.45649
-1.96541
2.66296
-1.48907
0.0653159
-2.65496
2.88984
-0.0101976
-0.849208
0.157729
-2.14381
-0.727114
-2.67603
3.40315
3.72708
4.56081
7.45983
-4.6646
-2.79523
-1.16469
0.481581
1.24916
0.115036
-1.3642
-3.7737
0.948418
1.20145
-0.0713494
-0.0360327
-0.722123
0.758156
3.69923
-1.48614
0.466751
2.07696
0.462433
-2.5394
-3.81827
3.42812
0.828255
0.200622
-1.02888
2.98726
-5.41742
-0.813673
0.000745332
0.812927
1.07775
-0.249491
0.0818641
3.5064
-2.35439
2.68925
2.58729
-1.43463
-4.76418
1.57111
-2.93726
2.69417
0.243095
2.88608
-3.70322
-2.4853
-1.48815
3.97344
0.0765393
2.19428
-1.54519
1.34046
4.42932
-0.55234
-3.87698
0.0177613
-4.5445
1.77277
0.359464
2.66443
1.30303
-0.899077
-0.00758316
0.827403
-1.28391
-1.84523
-0.0242962
-0.278293
0.302589
0.0866662
-3.49466
3.40799
-0.409909
1.70243
-1.29252
4.43112
-7.44139
3.01027
-0.0235278
-2.59195
-0.120957
-0.378908
2.96587
-1.71983
-0.992191
2.71202
-2.00075
-1.57129
2.29458
-1.32549
-1.16352
-0.74523
1.90875
-0.542272
4.24029
-4.90694
-0.422484
-0.557074
0.979559
1.18362
1.06292
-2.24655
0.904161
-4.60619
3.70203
0.578335
-2.76816
0.676917
-5.00395
-4.06556
-2.42637
6.49193
-4.21494
0.156301
4.05864
-4.70313
-3.61939
0.346911
-1.52298
1.5363
-0.0133255
-6.69596
-1.49442
5.25105
1.96809
-0.970666
0.510945
-1.68005
-0.794164
2.43782
0.867648
0.660355
-2.03597
0.0964031
-0.876708
0.780305
-0.63374
-0.228214
-0.579608
0.673873
-1.60453
2.52797
-5.25682
2.41891
2.83791
0.299163
3.51421
2.13424
1.18531
-0.102627
-2.15679
3.91156
-2.28568
-1.36576
-2.73435
0.940715
1.79364
0.179989
-1.2094
1.02941
-2.22902
2.45751
-0.623894
3.52306
-1.76024
-1.30886
2.10001
-4.10076
2.10285
-2.27948
0.176625
0.715708
-0.0826539
-0.0171836
0.085132
-4.57906
2.99562
2.12361
0.487783
0.0742318
-1.0615
0.987264
-6.26071
2.18662
-2.27471
2.76724
-1.04216
-0.0738215
-1.16521
1.23904
-2.81394
1.09411
-4.68578
4.23171
-1.55563
2.96873
-1.34471
1.23153
0.11318
0.713328
-0.29906
-0.849705
-7.96818
5.25958
2.7086
-0.84178
0.794251
-0.420705
1.85883
-1.43812
3.50969
-0.841728
-0.0401118
0.61322
-0.573108
-1.40559
1.47728
0.134481
-0.0133135
3.50752
-5.90843
4.48211
0.285053
-2.7042
0.0478165
4.12748
-0.246822
-3.88065
0.226406
2.18615
-2.41255
-0.656535
-5.03574
5.01083
-5.1596
0.148764
0.171135
-0.333057
0.161923
-4.75135
5.11268
-0.361335
-1.02719
2.16175
3.26823
-0.368384
6.03773
-3.5543
-2.48344
-0.32193
-1.38985
1.71178
0.898297
-1.60861
-0.0946304
-1.56017
-0.0484395
0.563825
-1.49247
0.928646
-0.451156
4.20472
-3.75356
-3.93036
0.986082
2.94427
1.31149
3.69084
0.0583863
0.473665
-0.532051
2.67519
1.25778
-3.93297
-0.443492
0.385663
-5.24371
1.85635
3.38737
-3.2053
0.229144
2.7785
1.32589
-3.81119
-0.0174371
-0.652756
0.670193
3.57384
-0.971884
-2.60195
1.41382
1.14971
-7.63248
7.77987
3.93064
-4.19684
-2.21928
0.151598
2.06768
-0.0804892
-0.512121
-0.677152
1.18927
-0.519207
-0.188006
0.707214
-0.0490524
0.695175
-0.646123
-1.74442
1.78057
-0.0361466
-2.70232
5.52139
-1.5905
1.42371
0.995818
-1.41652
1.7263
-2.7436
1.0173
-1.32242
-1.00612
0.426427
0.22757
-0.220154
0.0518534
0.1683
5.24543
-3.37235
-1.87308
0.17843
2.91308
-1.24655
-0.656645
-2.90115
0.643356
0.879827
1.78466
-2.66448
0.0714846
-0.245684
0.174199
-0.086647
1.79994
-1.09506
-0.202694
1.29775
4.92996
-4.58846
-0.341506
-7.42359
1.435
0.138906
3.01303
1.40421
-4.41723
0.0676162
-4.59346
2.11906
-1.97655
0.144173
-0.161356
0.699677
0.0369079
-0.736585
0.84759
0.131659
-1.08646
-1.16228
-1.28927
1.30942
0.849644
-1.23427
6.19488
-2.68152
-3.51336
3.21725
-2.38382
-0.833432
1.385
2.37868
1.29998
0.254133
-1.21876
0.99793
-0.560573
-1.58198
1.21815
-2.09004
3.94265
0.0598276
0.367146
-0.845419
0.739103
0.338643
0.369937
-0.198802
3.72749
-3.88487
0.157381
5.84104
-2.16229
1.27086
0.89143
0.636512
-1.81128
-3.84346
-4.05364
-1.30533
1.21965
-0.887763
-1.35649
2.24425
-3.78578
1.01221
1.21858
0.930773
-2.14935
-0.43619
-2.8107
-0.712299
-0.00661716
4.15801
1.42162
-4.68906
1.18384
-2.62723
1.4434
-1.34496
1.74032
-2.76191
-3.49879
0.740726
0.550025
2.73872
-5.01834
1.73475
3.28359
-0.108405
-1.59741
0.149753
-1.79512
1.64537
-4.1688
-3.17528
-0.89423
0.894976
3.05224
2.15501
-2.37332
2.76951
-2.98765
-1.22185
4.00739
-0.277947
-3.72944
-4.05434
2.33523
2.56512
-0.94893
-1.61619
1.51845
1.00909
-2.52754
-1.6223
2.8902
-1.2679
-6.41854
3.22171
3.19683
0.0740627
1.26978
3.55623
-2.50012
-2.91102
5.41114
4.68838
-4.62076
-3.12505
-0.474003
2.3835
-0.851858
2.53985
-1.68799
0.563759
3.13547
-6.36801
0.0384183
-2.66166
2.62324
2.07435
-3.44399
1.36965
2.77635
-1.59164
0.919701
0.118971
-1.03867
-0.525427
3.3246
2.26964
-2.66879
0.399154
-1.45266
1.92772
7.25052
-0.127927