/*--------------------------------*- C++ -*----------------------------------*\
| =========                 |                                                 |
| \\      /  F ield         | OpenFOAM: The Open Source CFD Toolbox           |
|  \\    /   O peration     | Version:  2306                                  |
|   \\  /    A nd           | Website:  www.openfoam.com                      |
|    \\/     M anipulation  |                                                 |
\*---------------------------------------------------------------------------*/
FoamFile
{
    version     2.0;
    format      ascii;
    arch        "LSB;label=32;scalar=64";
    class       volVectorField;
    location    "5";
    object      U;
}
// * * * * * * * * * * * * * * * * * * * * * * * * * * * * * * * * * * * * * //

dimensions      [0 1 -1 0 0 0 0];

internalField   nonuniform List<vector> 
13486
(
(8.67448 -2.18731 5.52381e-20)
(9.05832 -0.0775535 3.09706e-20)
(11.5808 -0.47158 0)
(16.414 -7.46059 -2.04001e-20)
(14.0064 -2.08701 3.19723e-20)
(10.7681 0.281798 -1.6435e-20)
(15.6571 0.0957537 4.09421e-22)
(11.821 -4.13976 -3.7612e-20)
(11.191 -2.3376 0)
(9.63743 1.44724 0)
(5.39548 -10.9766 -4.91844e-24)
(10.9877 0.77667 0)
(8.40919 -3.05188 -5.34709e-20)
(10.8808 1.57656 -1.99779e-20)
(14.2167 -0.0541407 2.15203e-20)
(9.50666 1.51419 -3.23253e-20)
(-6.95522 3.38264 1.79679e-20)
(12.3969 7.80844 -4.45747e-21)
(10.2398 0.311632 8.54955e-22)
(9.25165 -1.38564 -5.9906e-20)
(16.864 -6.88067 -1.28227e-20)
(8.46404 -3.09811 6.88896e-20)
(9.08745 -0.0904183 -2.48092e-20)
(-3.80797 -0.896206 0)
(9.91257 1.12866 1.26775e-20)
(-3.72501 -1.96291 1.30435e-20)
(-2.50322 -0.358473 -3.47268e-21)
(13.7163 1.04393 -7.27215e-20)
(4.54265 -6.01496 0)
(16.5012 3.43578 3.97838e-20)
(20.395 -3.3519 -1.87937e-20)
(13.2049 1.9157 -3.68849e-20)
(10.7815 1.91987 -3.68821e-20)
(16.8053 -0.00932988 0)
(11.8682 -3.92305 0)
(13.0483 3.5658 -5.16811e-20)
(10.0831 -5.98688 4.57028e-20)
(9.60021 -4.45234 3.11137e-20)
(13.1518 -4.98237 9.13376e-21)
(11.0589 -1.53239 3.5063e-20)
(15.9413 -4.39887 0)
(7.22068 -3.40841 -6.16531e-20)
(14.7843 -0.0458854 0)
(9.84735 0.91947 -5.94799e-20)
(9.93597 0.924657 2.45495e-20)
(10.6331 0.814944 3.82114e-20)
(9.00117 -3.73205 5.45764e-20)
(2.11317 -5.66744 -1.78358e-20)
(10.9565 -6.87869 -3.48031e-20)
(11.4724 0.396322 -3.57764e-20)
(9.99575 0.0304653 4.69726e-20)
(12.6741 -2.3169 0)
(10.2508 2.14095 -6.43252e-20)
(9.76623 -3.69438 -4.48444e-20)
(9.90663 6.18598 0)
(13.7583 -2.2424 -2.04509e-20)
(12.6725 -2.75282 -2.12847e-20)
(13.4123 -3.89371 3.62709e-20)
(10.1496 1.50633 -4.74389e-20)
(11.1652 -4.48623 0)
(6.42043 -10.3562 1.87104e-21)
(12.3303 -4.94106 0)
(12.8311 -2.30772 1.21162e-20)
(16.2448 -6.1891 -1.43246e-22)
(-9.12936 -6.26652 0)
(11.7609 -6.06895 2.29057e-20)
(13.6978 -7.27062 -1.76564e-20)
(8.43913 -1.17937 1.87752e-20)
(11.1994 -2.46985 -1.94595e-20)
(2.58178 -0.708063 -2.40026e-20)
(16.3059 -7.90273 2.03882e-20)
(9.61874 7.4025 -5.07959e-22)
(10.7084 -1.00151 2.62936e-20)
(-0.0765161 3.38879 -7.2971e-22)
(12.586 -5.87451 4.86907e-21)
(12.6245 -2.68151 4.82145e-21)
(12.0448 -6.15422 -1.37509e-20)
(14.3466 -0.120946 -8.53034e-21)
(7.43443 -5.80962 -2.51989e-20)
(7.74169 -3.20822 0)
(16.0241 8.75905 1.84977e-20)
(8.8145 0.136522 -1.97755e-21)
(12.9096 -3.40382 -1.20936e-21)
(11.6769 -0.643944 -1.18908e-20)
(8.68019 -2.20406 -1.07638e-19)
(7.53733 3.82106 0)
(6.8769 -5.06831 2.77017e-20)
(10.023 0.0791603 -7.46441e-20)
(9.63479 0.00715817 -2.88993e-20)
(8.91646 2.17723 -4.12202e-20)
(12.3016 3.0649 -2.66912e-20)
(12.6103 -3.30785 -2.13995e-20)
(8.97781 -2.56274 1.44927e-20)
(9.19398 -0.803498 1.60639e-21)
(10.8666 -3.40159 7.68773e-21)
(-2.67368 -7.1098 6.05581e-21)
(-2.02303 -1.01865 0)
(12.5908 -7.43631 9.94352e-21)
(11.0711 -1.47161 -6.7058e-20)
(-7.14256 2.954 1.73451e-21)
(14.0398 4.00978 0)
(10.7507 1.5778 -8.02583e-21)
(14.5797 -9.32239 8.50004e-22)
(14.8329 -3.63773 -4.28096e-20)
(7.19507 3.45353 0)
(-7.442 2.10065 1.15258e-21)
(9.99864 -0.167111 1.20562e-23)
(12.6694 -5.28523 2.0173e-20)
(7.61528 -4.14009 3.69614e-20)
(12.1891 -5.55479 0)
(10.3675 -4.80848 0)
(14.6743 1.90348 -3.3435e-20)
(9.78343 -3.60343 1.79718e-22)
(13.4999 -1.94244 1.65152e-21)
(7.39111 -1.83443 0)
(10.1642 -4.76441 -2.9392e-20)
(9.8417 1.22243 0)
(16.0527 -0.0387938 0)
(10.7281 -0.970878 0)
(8.059 -7.29805 1.73665e-20)
(11.0222 8.50065 2.03928e-21)
(5.84998 -10.1544 0)
(10.6625 -3.14794 0)
(12.8181 -5.27157 -2.83021e-20)
(11.1352 -3.91833 0)
(10.5768 -1.83272 0)
(12.2964 -0.966854 9.27773e-22)
(10.3748 0.149205 3.93359e-20)
(15.5938 -0.423819 9.32625e-21)
(-9.03964 7.05708 -7.90575e-20)
(10.8494 -1.53863 5.46285e-21)
(9.2788 -3.88046 -1.39308e-20)
(9.45257 2.10333 -2.88679e-22)
(-1.07902 -1.15064 4.76638e-21)
(10.0047 0.0126369 -7.46334e-21)
(9.41452 0.645641 -3.8116e-20)
(5.14098 0.583607 -1.54187e-20)
(12.0096 -5.07478 0)
(8.88181 -9.26072 -4.12745e-21)
(11.9085 -3.24381 -1.33522e-20)
(11.2466 0.976992 4.59247e-20)
(10.5465 2.46395 5.49508e-20)
(11.9583 1.83227 0)
(8.23838 -4.2146 0)
(14.6728 0.128278 6.10822e-21)
(9.5653 -3.46666 3.44971e-20)
(6.87818 -1.07933 -2.24925e-20)
(2.94254 1.92339 0)
(11.8002 0.583389 0)
(8.23549 -7.00481 0)
(10.024 0.0189434 1.01207e-21)
(14.6799 -0.79358 0)
(17.3238 7.10674 -1.93602e-20)
(8.80858 0.0997396 -1.65733e-20)
(10.2714 0.596858 0)
(12.3294 -0.605423 0)
(12.3168 -5.26327 0)
(-3.12883 -0.878026 -1.21737e-20)
(10.3733 -4.10414 6.76245e-20)
(10.7609 -3.64028 4.38661e-20)
(10.3479 0.176114 -2.8543e-20)
(10.372 -4.05602 -1.01941e-19)
(13.5315 4.67036 1.75442e-20)
(6.45234 -3.22269 2.73087e-20)
(12.0134 -2.9607 0)
(11.2096 1.60058 2.28814e-20)
(10.6294 1.43297 5.03384e-20)
(4.62658 -2.00623 -6.02148e-20)
(6.70067 -1.32895 5.8283e-20)
(-0.793504 -1.11012 1.34848e-21)
(6.41489 1.37112 1.55332e-21)
(10.2494 0.519361 2.81539e-20)
(10.0332 0.108073 -7.01721e-20)
(12.6333 0.0239143 1.79474e-21)
(2.17778 5.84426 1.6686e-21)
(10.8198 -13.8371 0)
(10.8707 2.61997 -3.72911e-20)
(10.7146 0.581373 -5.52251e-20)
(10.0372 -0.194722 -6.91718e-20)
(11.7834 1.73458 0)
(11.4062 -1.67919 7.29e-20)
(13.4829 -2.08478 3.37491e-21)
(12.5616 0.634249 -9.05894e-23)
(6.38151 -4.37619 0)
(10.1589 -0.914177 2.97068e-20)
(13.0351 0.857118 3.32432e-20)
(13.5402 -1.78951 -3.28683e-21)
(17.0606 1.99652 1.38421e-20)
(15.9544 -4.55669 0)
(9.44125 -4.5445 -3.85137e-20)
(10.797 -7.80363 0)
(13.0124 -0.443313 0)
(13.2189 -4.98689 0)
(7.47344 1.5308 -3.47708e-20)
(13.23 -5.06206 0)
(4.29349 -9.97902 9.16173e-22)
(-9.45359 0.696718 1.57975e-19)
(9.86899 0.116793 -1.52162e-20)
(8.72609 -4.21432 -1.33677e-20)
(11.0618 1.38032 1.6957e-20)
(19.4593 -3.7864 2.68956e-20)
(10.2928 0.176655 -1.25661e-21)
(9.55619 -4.52985 -3.60553e-20)
(14.7323 -5.58839 1.00824e-20)
(10.6721 -3.56995 -5.33528e-20)
(14.169 -5.23379 2.16214e-20)
(14.3206 7.43515 -8.88395e-21)
(10.2288 -0.815912 5.16271e-20)
(11.6861 -3.92934 0)
(10.2333 -0.893862 0)
(14.7148 1.00914 -5.06745e-20)
(-5.91929 -2.82327 2.15352e-21)
(9.33711 -1.24662 5.5064e-20)
(9.9857 -0.117534 1.66611e-23)
(10.8192 0.351759 1.89532e-20)
(-1.82282 12.6007 7.55323e-21)
(15.3099 3.14657 0)
(9.16798 2.15097 9.33103e-20)
(9.36609 -2.58594 0)
(12.7302 0.809671 0)
(-7.76795 3.11273 -3.33152e-20)
(11.5036 0.554493 0)
(11.8055 -3.24946 3.14006e-20)
(12.404 0.221135 0)
(9.38907 2.51719 -1.32139e-20)
(8.35825 -3.82921 2.02636e-20)
(11.0718 0.662639 1.95858e-21)
(16.1121 -8.48825 1.96576e-20)
(17.8091 -4.29833 2.96338e-21)
(8.4438 -6.95308 -1.55354e-21)
(11.4164 -1.5898 -2.34222e-20)
(16.5162 -1.89306 1.32126e-20)
(10.6191 1.07356 -5.80149e-20)
(7.09515 -3.35899 2.08948e-20)
(16.4903 -9.57095 0)
(7.95606 -3.82552 2.4486e-21)
(17.6838 0.887206 -2.38452e-20)
(12.7674 -0.402782 -8.89835e-21)
(8.21202 -3.89229 6.68454e-20)
(12.1046 0.495655 0)
(9.62773 1.83134 0)
(9.94871 0.110336 1.08424e-19)
(13.4942 -2.14941 0)
(7.92603 -3.9086 2.28464e-20)
(10.2689 -4.6013 2.03055e-20)
(9.65833 -0.635808 0)
(11.6786 0.276802 -9.27291e-21)
(6.3905 4.64448 -5.30691e-20)
(0.142328 0.658727 1.02554e-20)
(9.84032 0.848149 0)
(11.2536 -8.63793 -1.40139e-21)
(7.25108 -1.7306 7.48036e-21)
(9.66979 -4.71284 3.81204e-20)
(12.3145 -5.23574 0)
(14.2862 -8.2837 6.8603e-21)
(9.21766 -13.0939 2.75583e-21)
(13.2567 1.96579 3.2196e-20)
(-3.7263 13.0381 -9.54399e-21)
(6.0848 2.3442 1.27464e-20)
(10.1103 2.20995 -3.15427e-20)
(9.37625 -0.0878454 0)
(11.1496 -5.12608 2.56413e-22)
(14.1945 0.0142533 -4.94209e-20)
(9.5624 -12.41 -3.44131e-21)
(13.5973 -3.90282 -2.94664e-20)
(4.69737 -3.7159 0)
(19.4784 -4.87051 -1.38305e-20)
(20.3665 -4.89562 -2.50692e-20)
(10.735 -0.166595 -3.25286e-20)
(8.14786 9.18578 0)
(8.68006 1.8116 2.96626e-20)
(9.97082 -0.0862433 -1.91059e-20)
(15.4382 4.19423 0)
(10.3945 1.26461 3.58496e-20)
(8.61308 -3.99425 2.71835e-20)
(7.89094 5.54891 2.99964e-20)
(15.3335 -9.13067 0)
(9.5429 18.5805 0)
(11.7471 -5.56259 1.87725e-20)
(6.91261 -0.255545 4.30582e-20)
(7.7223 19.4542 7.64099e-20)
(11.6932 -0.911884 -2.87387e-20)
(9.96098 -0.197081 4.06941e-20)
(4.26148 -5.02895 2.04892e-20)
(5.40404 -9.38949 -4.68615e-21)
(-5.73686 0.668335 1.98048e-20)
(10.7859 0.671807 -5.0535e-20)
(15.4576 -0.611913 -1.22635e-20)
(9.84433 2.56475 2.24233e-20)
(10.603 -0.157348 0)
(17.7304 -9.18239 0)
(10.7309 -5.03811 -2.35412e-20)
(10.0182 -4.65468 2.87492e-20)
(9.98185 0.0135008 -7.27606e-21)
(16.4606 0.659591 -2.32944e-20)
(17.5645 1.45857 0)
(12.345 0.00815773 3.66269e-20)
(9.97573 0.965831 -3.21383e-20)
(9.97409 -0.281589 -3.6965e-20)
(16.1786 -1.65295 1.63785e-20)
(13.3719 4.83081 -2.1028e-20)
(16.0899 7.98907 1.15476e-21)
(6.61572 -0.425609 -3.66932e-20)
(13.3924 1.66807 3.57431e-20)
(9.31325 -7.52226 -9.08401e-21)
(12.0174 -6.1404 0)
(10.8708 -0.114664 0)
(10.859 0.181102 1.74994e-20)
(8.17783 -6.63747 -2.15585e-20)
(9.39782 -6.42412 0)
(10.2378 6.08027 3.65638e-21)
(13.5439 -6.91334 0)
(10.4957 2.56311 2.08258e-20)
(14.6863 1.91427 -3.46983e-20)
(6.72335 -9.47605 0)
(9.58682 0.504075 -2.37432e-20)
(9.61054 -4.19286 3.43721e-20)
(9.6025 -0.027366 -2.4306e-21)
(10.1769 -0.807552 -5.72543e-20)
(19.0005 -3.4119 0)
(11.3617 -6.68908 -4.13082e-20)
(11.3322 -5.13746 -1.42596e-22)
(10.0565 -0.0642443 8.7721e-21)
(9.07819 -0.659887 -3.04157e-20)
(5.58807 0.189479 2.82658e-20)
(12.6406 2.85106 5.46797e-20)
(12.9566 -1.34399 -9.17668e-20)
(11.7686 -0.8703 0)
(9.44809 0.191691 -2.07114e-22)
(13.1741 -1.23591 -1.79331e-20)
(10.0383 0.0136064 1.0787e-19)
(12.8162 -3.26885 0)
(12.3814 3.5841 -1.3355e-20)
(8.29699 -0.0164841 0)
(15.7937 0.0958131 -4.47458e-20)
(11.2454 -3.12777 -2.17356e-20)
(5.73717 -2.76029 2.4292e-20)
(14.679 -1.06562 -3.04714e-20)
(9.90732 0.273119 0)
(10.1317 -4.62089 3.43346e-20)
(18.2291 -2.54612 1.15495e-20)
(9.1076 -0.643254 2.87621e-20)
(13.3426 -1.24578 6.85419e-20)
(12.598 0.651544 4.36711e-20)
(5.88873 -6.40377 8.28065e-21)
(1.80724 -6.88409 -4.08232e-22)
(12.2344 -0.441758 0)
(7.09159 -2.81147 5.86787e-20)
(12.7698 0.73785 0)
(9.53766 -4.10744 5.79342e-23)
(11.7034 -0.124577 5.75645e-20)
(9.57555 0.71178 -3.89217e-20)
(10.0905 1.28192 3.08636e-20)
(-0.975775 -1.50138 9.28503e-21)
(9.97221 -0.243349 4.60629e-20)
(1.16947 2.86266 0)
(-1.02497 2.07737 2.09706e-21)
(12.2741 -0.892146 -1.87083e-20)
(9.58675 -7.91833 1.12875e-20)
(-10.1646 2.91482 -6.69706e-21)
(11.5769 0.265131 0)
(11.8623 3.37414 4.06663e-20)
(9.50705 -0.338813 6.77891e-20)
(9.97242 -0.099548 5.81194e-20)
(16.1786 5.0472 0)
(19.9872 6.42469 -4.19396e-21)
(16.2901 1.30151 2.23952e-20)
(9.79743 -2.46775 8.17477e-21)
(9.19285 -1.35929 7.5998e-21)
(12.216 -0.765775 1.7844e-20)
(15.2384 -0.0974921 -2.52796e-21)
(12.1839 -0.462143 0)
(8.97809 2.36428 -5.3223e-20)
(9.27401 -7.88219 8.6783e-24)
(10.7477 0.792028 -3.25745e-20)
(9.96838 0.0224654 3.92565e-20)
(8.3199 0.0226479 0)
(9.5391 -4.08154 4.41375e-20)
(7.57339 -8.91123 0)
(14.1028 2.20209 6.22762e-21)
(10.833 -0.198753 0)
(12.8396 -3.84184 -3.9385e-22)
(8.29356 -1.85355 -1.48729e-20)
(8.85788 1.50048 6.78783e-20)
(10.0985 -1.63156 -2.81156e-20)
(17.1608 -8.14742 0)
(10.5328 0.100574 -4.51573e-20)
(9.97788 0.301636 -3.11678e-20)
(-5.42945 3.87542 -8.81168e-21)
(18.9264 -3.45267 1.7744e-21)
(9.43521 -1.32472 -8.4317e-20)
(14.8603 3.64742 -2.07087e-20)
(10.0939 0.301529 2.69473e-20)
(9.0152 -3.10667 0)
(8.25411 -0.386994 3.06723e-20)
(8.57488 -9.26316 1.01789e-21)
(13.9095 -7.26962 1.18613e-20)
(10.063 -8.12651 -1.83766e-21)
(-6.68328 4.43901 -2.15402e-20)
(11.4587 0.783329 0)
(-6.151 4.2005 0)
(9.6829 2.80011 0)
(11.4502 -0.490846 0)
(13.5454 -3.26588 -6.26e-21)
(15.5463 0.354913 0)
(4.04287 3.09793 0)
(9.2656 -0.701465 1.20048e-20)
(10.6646 0.550322 5.67431e-20)
(12.0459 -0.523614 -4.32793e-20)
(9.13219 0.0909341 1.1006e-19)
(9.97723 0.0746976 -1.60024e-20)
(10.3814 4.8088 0)
(13.2836 2.82283 0)
(9.94542 -0.282258 3.92672e-20)
(10.1859 0.0333025 7.02218e-21)
(6.05559 1.13659 0)
(7.22581 -4.80215 -9.74047e-21)
(13.4347 -3.99477 3.30542e-20)
(6.00195 1.69592 0)
(12.1064 0.54149 4.20751e-20)
(10.0586 -0.115663 -4.62361e-20)
(15.7707 3.16001 -3.77623e-21)
(7.09359 -2.77321 0)
(9.97018 0.291535 5.45476e-20)
(11.0719 0.408969 0)
(15.975 1.78228 0)
(10.3866 0.343211 -5.78416e-21)
(9.91559 -0.188791 2.14915e-20)
(-2.93108 -0.339994 4.46396e-21)
(10.5584 1.3995 1.55712e-20)
(8.54171 -2.7149 -2.6566e-20)
(11.1944 -0.436211 4.89742e-21)
(10.1606 0.358686 2.20222e-20)
(9.39125 2.36986 1.42749e-19)
(14.0682 -3.69406 0)
(12.6772 6.93666 -2.88847e-20)
(8.2262 -1.61306 0)
(10.7069 -4.81186 -2.27801e-20)
(12.6221 -0.0681797 0)
(8.51913 -1.13084 4.07129e-20)
(0.544552 1.76991 -4.44725e-20)
(13.9511 2.88602 0)
(-2.6642 -2.16047 4.38659e-22)
(12.4334 3.00355 4.53075e-20)
(9.45615 -6.01661 3.96737e-20)
(10.2794 -2.00067 8.30414e-20)
(8.02628 1.33357 -4.10827e-20)
(8.50667 -2.69515 -7.49279e-20)
(14.5971 1.82891 0)
(9.58398 -8.46657 -1.93613e-20)
(5.70873 -6.47967 1.68704e-20)
(9.95437 0.302643 0)
(9.55946 -0.0130481 2.66291e-21)
(11.0162 0.273406 7.56429e-21)
(11.7362 2.56474 0)
(9.98384 -0.0196352 0)
(10.0451 -5.74968 0)
(9.84809 -15.8164 2.2235e-20)
(2.40592 -6.6632 -2.42661e-20)
(8.42402 -3.20148 9.63361e-23)
(10.4899 2.39782 0)
(9.84804 -1.73053 5.51759e-20)
(5.48871 9.19444 -5.32079e-21)
(10.5729 1.28521 -3.90714e-20)
(17.2525 -7.37392 2.04033e-20)
(9.76643 -0.0120304 0)
(4.06864 -6.08729 0)
(5.9238 -2.02559 -3.79686e-20)
(8.90568 -3.09375 -1.91947e-20)
(10.9382 -1.25804 0)
(11.3676 -5.25214 -3.12709e-20)
(9.94675 3.1349 2.95939e-20)
(-1.26581 -0.717993 -1.15899e-20)
(6.15819 -2.90606 0)
(12.0344 -2.89279 -2.28266e-20)
(6.683 -8.16565 -7.41188e-21)
(11.1102 0.399154 -3.66879e-20)
(11.166 -3.27115 0)
(-5.63553 0.549218 -3.13851e-20)
(10.1092 0.904073 3.50985e-20)
(9.97234 0.182129 1.06534e-20)
(-1.53361 -0.200054 -1.94698e-20)
(11.3204 1.49737 0)
(9.18171 0.0666131 -2.94496e-20)
(12.048 0.0614939 1.59654e-20)
(-6.97536 4.60955 4.17886e-21)
(9.97784 0.0648003 0)
(17.18 -3.38272 -1.82062e-21)
(4.71118 -1.79015 0)
(9.92589 0.104337 -4.38118e-20)
(9.95684 0.0323588 1.57135e-20)
(9.95906 -0.498645 -7.56545e-21)
(9.76605 -13.4884 0)
(11.2705 -0.386172 -1.88664e-20)
(6.97028 -0.129908 7.95351e-20)
(13.9891 -3.71739 0)
(9.186 -0.795934 3.6256e-20)
(15.9191 -1.70879 -1.88389e-20)
(10.6155 -0.0207443 0)
(20.4628 -5.76143 1.33051e-20)
(9.28866 -6.06669 -1.10202e-21)
(15.226 0.0011808 0)
(-6.39787 1.07791 3.30282e-20)
(9.55138 -0.044949 0)
(10.7608 -4.8885 2.89647e-20)
(10.6772 -9.09729 2.2954e-21)
(12.6894 -1.75779 3.31148e-21)
(10.8413 0.300131 3.32325e-20)
(8.17467 -0.423559 1.60245e-20)
(10.3073 -2.11889 -3.06473e-20)
(17.0646 -8.47467 -6.24627e-22)
(10.7872 -4.70361 1.71526e-22)
(12.2125 -0.832057 1.69136e-20)
(11.2927 1.38801 -4.26507e-20)
(13.0633 -5.58344 0)
(10.0003 0.0211682 -3.4823e-20)
(7.8212 2.19546 2.33668e-22)
(8.35376 -1.63287 0)
(13.6612 -7.50468 -1.19837e-21)
(3.11133 -1.68266 0)
(8.19031 -2.82271 6.44367e-20)
(12.5616 -4.27959 0)
(11.8285 2.22582 9.14354e-20)
(12.065 -0.144624 -3.30273e-20)
(20.2663 -6.23448 3.3845e-20)
(13.2531 -7.56537 3.16676e-21)
(11.6425 0.315749 -4.36384e-22)
(12.027 -5.61745 3.24425e-20)
(10.5943 -3.17082 3.03253e-20)
(8.97333 -2.55779 0)
(3.06042 -2.59982 8.0732e-21)
(14.2793 -3.45297 -6.73597e-21)
(2.43514 -2.28886 8.99388e-21)
(-1.92885 -5.38141 6.63113e-21)
(9.11629 -3.60444 0)
(10.8038 -0.00459972 -4.19958e-22)
(5.83368 -4.09162 0)
(13.4649 -8.72329 1.07522e-21)
(17.1828 4.58662 5.18913e-21)
(8.48506 1.50514 0)
(12.2569 -2.84585 1.03133e-20)
(-5.41191 -2.66666 0)
(11.8265 2.38507 0)
(10.3834 -4.90929 -3.80067e-20)
(8.46619 -0.166328 2.60801e-20)
(-1.07013 11.0624 0)
(9.49314 -0.241835 -1.88833e-20)
(9.64964 -4.00977 -3.52124e-20)
(8.83598 -7.92116 -1.15858e-21)
(12.0891 3.73596 0)
(10.5344 -0.0336658 0)
(5.20833 -6.56641 7.17849e-21)
(10.3958 -1.11666 0)
(10.7606 -0.55984 0)
(6.62375 -10.707 -3.29863e-22)
(11.9606 -2.0207 -4.92389e-20)
(10.356 -2.73824 2.55329e-20)
(9.1793 2.68114 -4.54863e-21)
(3.134 -2.28512 -1.67571e-20)
(10.0139 0.0304754 1.77712e-20)
(9.16465 -2.63862 0)
(10.2195 0.929636 -1.273e-20)
(8.62477 -2.09117 0)
(10.3148 -0.345377 0)
(10.0043 0.194015 0)
(10.3718 0.322092 -4.79152e-21)
(10.1648 -0.838896 2.61282e-20)
(15.4719 -0.96209 -9.39345e-21)
(9.36994 -2.6713 0)
(-1.69274 -0.251343 6.2293e-21)
(9.49701 2.64907 2.59138e-20)
(11.1474 -3.93274 3.08962e-21)
(16.7269 -1.36401 2.11637e-20)
(8.27427 5.36376 -5.18875e-20)
(10.0716 0.039706 -2.68908e-20)
(0.636889 2.55291 0)
(10.3772 0.993226 0)
(7.38822 1.38309 0)
(8.03559 -3.56276 -4.78385e-20)
(19.1021 -3.39746 -1.23937e-19)
(14.2719 0.386806 0)
(10.2772 0.927994 0)
(10.0543 2.94848 4.78948e-20)
(10.3378 -0.100162 -7.80576e-21)
(9.4914 1.17484 4.29978e-20)
(15.3403 -5.65112 0)
(1.12626 -5.06479 2.37614e-21)
(10.6135 0.116751 2.88505e-20)
(8.76819 -2.97072 -4.5168e-20)
(10.3762 0.134046 -3.35327e-20)
(10.5258 1.25961 4.70908e-20)
(-3.28412 -7.69241 8.52561e-21)
(7.92101 -3.5115 8.22828e-20)
(-7.51068 12.5433 3.81131e-20)
(13.3547 -2.01972 3.63255e-21)
(9.99268 -0.014822 -8.27616e-21)
(10.5578 -5.12568 -9.81046e-21)
(9.95666 -7.38648 -6.2237e-22)
(7.72396 5.29411 -2.58274e-20)
(11.0765 -5.14442 1.59514e-20)
(10.5547 -0.257906 0)
(5.78466 -3.13091 -7.98896e-21)
(10.6356 -0.026595 -5.86183e-20)
(12.0096 1.30697 -1.07377e-20)
(8.64766 -2.82973 -4.07867e-20)
(11.0367 -3.80542 -3.243e-20)
(11.1078 0.0299299 8.75679e-20)
(13.9673 -0.115854 -5.03227e-20)
(6.69758 4.66364 -4.06246e-20)
(11.4757 0.608735 2.70822e-20)
(7.81444 -2.16017 -8.52912e-20)
(10.597 -0.0484443 -5.33669e-20)
(7.78392 -2.38606 0)
(17.7245 -8.53191 -7.91662e-20)
(11.2742 -0.0317399 6.75092e-20)
(11.1117 2.70657 -1.72502e-20)
(0.141778 3.96887 0)
(11.9425 -5.26014 0)
(9.83753 0.765175 4.37376e-20)
(7.20698 -2.13764 5.18402e-20)
(1.02472 -13.7058 -7.50738e-20)
(12.9332 -3.81194 -1.92592e-20)
(13.0856 -1.31358 5.03645e-20)
(12.8037 0.586171 0)
(9.84034 0.835945 2.52742e-20)
(9.96395 5.08357 -9.77478e-22)
(11.0677 2.40796 -3.49779e-20)
(11.2784 -1.61111 -4.04214e-20)
(3.83659 -3.53794 2.68348e-20)
(8.53317 5.24645 5.23717e-20)
(9.01301 6.23509 -1.66181e-20)
(10.2436 3.10658 0)
(21.7562 -0.598152 2.10599e-22)
(9.97733 -0.478567 6.77207e-21)
(12.5353 9.00913 9.68025e-21)
(6.45304 -3.17733 7.45069e-20)
(11.1499 -1.64474 6.07929e-20)
(10.2274 -3.40301 -2.29387e-20)
(9.14179 -8.07742 1.60111e-21)
(14.7847 1.01654 2.50892e-20)
(10.6778 0.0429924 4.79699e-20)
(5.02114 -9.40143 7.0905e-22)
(10.7958 2.37663 6.50656e-20)
(-6.20981 2.08394 -3.58868e-20)
(8.37856 -4.0012 -2.65697e-20)
(11.0656 6.23837 0)
(12.8188 -2.54948 -1.81508e-20)
(8.15769 -10.9295 -2.08826e-21)
(8.23073 -1.94437 7.96729e-20)
(15.7468 -1.13442 0)
(12.8178 5.29448 2.11904e-20)
(7.81445 -3.26157 1.83332e-20)
(9.96742 0.0259292 -7.65849e-20)
(6.35927 -4.73206 6.90363e-21)
(-1.16947 8.53833 1.35234e-21)
(12.1241 -0.515433 2.98062e-20)
(10.3387 0.118776 6.89722e-20)
(10.8994 -4.94679 -4.08668e-20)
(14.0047 -2.03514 1.29791e-20)
(17.4851 -7.05779 -2.61163e-19)
(10.432 -0.0440952 5.50328e-20)
(11.1085 -0.404506 -2.11453e-20)
(10.27 0.199517 -1.1338e-22)
(12.7877 -0.0120329 -4.88671e-20)
(7.54668 -3.2992 -3.53236e-20)
(13.2663 -2.35991 0)
(14.9903 -14.8424 2.6436e-20)
(10.6908 0.0399152 5.19417e-21)
(16.8499 2.93969 -1.08371e-20)
(11.4364 0.0361551 3.09238e-20)
(12.7857 -1.64332 -2.90482e-20)
(9.98223 0.0740688 -6.78879e-20)
(10.1698 0.574782 1.58713e-20)
(6.90483 -4.31368 1.00117e-20)
(11.2335 -0.596334 0)
(10.752 -4.75472 -2.28106e-20)
(9.62079 0.596128 3.98924e-20)
(9.13713 -3.55184 0)
(10.1818 0.139382 3.91913e-20)
(9.9498 0.0280948 5.23156e-20)
(11.0033 -0.619036 5.61329e-24)
(16.2772 -5.15775 -6.44661e-21)
(14.5583 -4.92197 0)
(9.2182 0.341355 5.79868e-20)
(10.877 -2.96089 2.52741e-20)
(10.7593 -4.96409 3.32673e-20)
(11.197 -1.11065 0)
(8.43515 -0.21439 -7.53588e-20)
(12.2684 10.6396 -8.19641e-21)
(11.1352 4.07464 3.31555e-20)
(7.91543 -2.20644 8.33064e-20)
(15.8376 -0.230587 1.10057e-20)
(12.5531 -7.35494 9.38523e-22)
(10.5962 -0.950561 -4.19297e-20)
(11.8919 4.78442 4.73332e-20)
(9.53247 -0.314621 -3.86487e-20)
(13.9245 0.421843 0)
(9.98932 -0.0248035 -3.11098e-20)
(-1.15985 -0.539863 2.9738e-20)
(-1.7246 0.152585 0)
(-7.65762 -0.633124 0)
(12.1677 9.39469 0)
(-7.16534 4.40544 0)
(10.0108 0.532356 0)
(7.56648 -2.12593 0)
(-1.43842 11.3682 3.84159e-21)
(7.85073 -2.79373 2.16808e-20)
(11.0916 0.647488 0)
(9.10592 0.172432 8.48607e-20)
(7.03551 10.2499 4.37978e-20)
(10.1011 0.362606 1.50752e-22)
(7.74956 -10.6687 1.39259e-22)
(7.51009 -1.32714 2.38752e-23)
(7.89862 -5.32001 -7.24431e-21)
(10.0893 0.12011 -2.6834e-20)
(11.2252 0.458805 -4.68146e-21)
(9.94158 0.507138 -3.05569e-20)
(9.65568 -0.061997 -5.65696e-20)
(9.37841 2.22184 -4.31957e-20)
(14.3438 2.11698 0)
(16.4776 -5.50039 3.5891e-21)
(8.26732 -2.88358 -7.05854e-20)
(10.0421 0.0296495 -9.2688e-20)
(14.3515 -3.22024 -4.36921e-20)
(12.2524 -0.0986602 7.41893e-21)
(17.0926 -2.24523 9.2619e-21)
(12.1757 -1.35329 -6.03788e-21)
(12.3306 -2.81421 -3.62313e-20)
(10.0072 0.265025 3.23059e-20)
(15.2052 7.21342 0)
(15.86 -7.57862 3.20053e-21)
(9.35262 -0.780215 -1.14703e-20)
(15.4551 0.813962 0)
(12.9039 -5.49556 0)
(11.486 -5.07393 -1.04235e-22)
(10.6607 -6.48708 2.53393e-21)
(-2.7408 13.4431 -2.50581e-20)
(10.8112 -1.86791 0)
(10.3389 -0.824585 -5.45139e-20)
(9.46814 -0.0600458 -1.05623e-20)
(15.9838 -13.9426 1.71847e-20)
(9.82614 -0.627539 2.89156e-20)
(8.67249 -5.60097 0)
(16.7551 -6.08804 4.75137e-21)
(9.4288 -0.182539 0)
(19.3119 -0.643885 3.07603e-21)
(11.9127 3.33147 -3.02152e-20)
(10.0263 0.0242823 -7.3072e-24)
(10.6404 1.46532 -8.89098e-20)
(11.8773 3.0963 -1.28435e-21)
(10.3001 -3.11001 6.19448e-20)
(19.3845 0.804817 0)
(-5.82708 9.08564 -2.03018e-19)
(4.84132 15.7451 0)
(11.1735 0.600008 1.19662e-20)
(16.7044 -12.7414 3.00174e-20)
(-7.41406 -2.71637 -1.24778e-20)
(11.0302 -4.78244 2.2293e-20)
(8.98208 -12.942 -1.36636e-20)
(9.85514 -4.59866 -3.84232e-20)
(8.4413 -2.88691 -4.16153e-20)
(9.80752 -9.85499 -1.78906e-21)
(-8.00353 9.94022 1.66038e-19)
(7.59109 -3.34642 2.89184e-20)
(8.62587 -2.9784 4.57536e-20)
(19.9445 -2.00423 1.22352e-19)
(-11.5025 -0.325533 -6.56951e-20)
(10.9361 -3.40576 3.22442e-20)
(7.10237 0.354314 3.06501e-20)
(14.7735 -0.12225 7.8105e-21)
(7.44438 11.9535 -3.69391e-20)
(10.5965 0.848969 -2.34366e-20)
(13.7518 -2.36627 0)
(-7.09373 3.59031 -4.27488e-20)
(10.3344 -0.0272279 -6.09982e-20)
(9.95408 0.135429 0)
(11.1716 0.637482 0)
(5.68181 17.3182 -1.22495e-19)
(8.3972 4.79078 4.15438e-20)
(10.7664 0.419826 -6.98193e-20)
(11.9224 -1.98424 6.46344e-20)
(9.42946 2.27161 3.77878e-20)
(9.75345 0.0108858 6.08114e-20)
(15.6113 -13.1094 -2.41249e-21)
(9.03491 1.0918 0)
(8.77576 -3.08732 4.40496e-20)
(6.55447 -9.92772 4.20944e-21)
(8.19553 -12.1554 1.07367e-20)
(10.2981 -3.94035 1.04407e-20)
(12.5607 -5.95535 -1.18773e-20)
(10.5742 0.0137683 3.14273e-20)
(12.5021 -5.11236 -1.08411e-20)
(17.0359 4.22015 -4.37236e-20)
(14.2414 -13.6628 -1.40896e-20)
(10.7291 0.407569 5.26628e-20)
(9.99792 -0.268294 2.30057e-20)
(7.72489 -2.37004 -3.41999e-20)
(10.3947 -1.00896 3.33001e-20)
(6.49376 5.09951 0)
(10.7959 0.710301 5.699e-20)
(10.0293 -0.153178 5.21829e-21)
(8.91574 -2.43001 -1.43422e-20)
(8.58391 4.72359 -2.48555e-20)
(10.7684 -3.3773 2.33929e-20)
(10.0315 -0.0491857 1.0093e-20)
(8.09192 -0.897247 -5.3919e-20)
(15.3711 0.338688 0)
(11.2938 -4.99542 4.22182e-20)
(10.2291 0.149657 4.53521e-20)
(17.9969 -2.59807 0)
(8.41924 -1.25015 3.05619e-20)
(9.88837 -0.624374 0)
(7.57584 4.51856 8.42151e-20)
(13.367 -0.0427583 0)
(16.7547 -8.36361 0)
(11.042 0.501665 1.84886e-20)
(10.7543 0.307792 3.92908e-20)
(11.2552 0.497258 3.77757e-20)
(9.83822 -0.0142714 -2.69485e-20)
(8.01023 2.40576 -2.17159e-20)
(10.0237 0.0866471 -1.34559e-20)
(10.0676 0.554182 0)
(13.6123 -7.28329 1.85818e-21)
(10.9209 0.294152 -3.88262e-20)
(20.5238 -2.08676 -6.72608e-21)
(13.8018 -2.42333 0)
(12.1848 1.22612 -1.32451e-20)
(9.62254 4.56414 -4.66263e-21)
(15.6756 0.139285 3.10484e-20)
(4.66845 -12.5421 0)
(6.91395 -10.2715 -1.30466e-21)
(10.121 0.276916 0)
(15.9176 2.75741 2.26743e-20)
(0.796362 0.326436 0)
(14.2702 -4.86268 0)
(-7.08449 15.9954 0)
(12.2752 -4.28139 0)
(2.78502 -9.02903 -1.57213e-22)
(10.8689 -15.2045 -5.6019e-21)
(10.1924 -0.83507 -3.91087e-20)
(18.9116 -6.95613 -3.69394e-20)
(8.12087 -3.46562 0)
(16.0717 -7.91112 -4.11117e-20)
(-0.778179 2.02524 -1.01718e-20)
(9.76199 -4.53919 0)
(9.09047 -3.3706 -4.85234e-20)
(12.3654 -5.56979 5.61131e-21)
(10.5293 0.792198 6.23087e-20)
(15.314 -4.43132 1.35513e-20)
(9.62919 -0.142897 0)
(13.4638 -3.69225 0)
(11.8265 -0.814189 -8.24389e-21)
(12.1628 -9.47176 -7.64319e-22)
(7.92827 -5.80729 1.7499e-20)
(5.10235 20.8461 3.90416e-21)
(10.0081 0.0305442 2.30611e-21)
(12.9792 -2.5674 8.53651e-23)
(10.0218 0.271238 4.62715e-20)
(10.7443 -5.05541 -2.19889e-20)
(11.2058 -3.06027 0)
(-2.96876 -1.22636 0)
(14.2264 -1.80057 0)
(0.633275 1.77662 0)
(10.1395 -2.31474 2.2049e-20)
(11.4542 0.932334 0)
(5.43474 -10.7452 -3.22093e-21)
(-2.66657 -9.31191 2.99198e-21)
(8.53906 -3.02596 -6.84561e-20)
(7.55697 10.5855 -2.13911e-20)
(13.0837 -16.053 -1.17786e-20)
(6.49132 -11.7026 -7.53793e-22)
(11.1902 0.0251903 7.97001e-21)
(12.7025 -11.8554 -8.14148e-21)
(10.5147 -5.2108 -3.43329e-20)
(11.095 0.37392 0)
(13.8085 -0.578183 0)
(3.57604 7.7794 0)
(12.7968 -1.8015 1.55e-20)
(-7.43833 -1.62562 0)
(9.15459 1.08757 0)
(10.009 0.0353578 0)
(10.4233 -2.73093 2.41767e-20)
(10.1207 0.301158 -5.37821e-20)
(4.30789 -0.074099 0)
(-0.0829696 11.0484 -1.09747e-20)
(9.92412 0.27579 -3.76148e-20)
(11.0136 2.26406 7.3705e-20)
(9.85409 -4.46706 3.15646e-20)
(9.37069 1.34829 9.51115e-23)
(4.97089 0.512968 -4.51352e-22)
(11.97 -5.38366 -1.84498e-20)
(16.0631 -6.08666 -1.78318e-20)
(10.6841 0.335676 -5.36798e-20)
(6.39636 -6.60379 3.40184e-20)
(9.72869 -0.458006 -3.76413e-20)
(10.3753 -0.0320933 0)
(17.0312 4.36833 8.47009e-21)
(9.96893 -0.108881 4.26319e-20)
(9.72673 5.66357 2.79141e-21)
(12.0943 -1.33214 -1.75714e-20)
(7.32609 -2.23164 -5.63905e-20)
(10.6893 0.277532 9.20875e-21)
(12.041 0.433206 -2.30964e-20)
(9.99209 0.121732 0)
(4.44081 0.124973 -2.07826e-20)
(8.88642 -2.39404 1.2333e-20)
(15.9546 -5.04636 3.83797e-20)
(15.7556 -7.09021 -2.32847e-20)
(10.3469 -0.130216 2.17467e-20)
(13.2709 -2.22633 -3.86309e-21)
(15.7563 -0.155306 -8.21695e-21)
(15.2514 -1.02796 0)
(10.3087 8.35689 0)
(9.30819 -4.37269 3.78986e-20)
(8.08639 -5.69287 -7.45636e-21)
(18.094 7.32515 2.76561e-21)
(9.98259 -0.127266 8.44489e-20)
(4.32512 0.984915 6.25261e-20)
(8.44273 -0.366976 0)
(9.60481 -0.527077 0)
(9.51743 -2.53541 -1.89012e-22)
(10.8858 0.272037 2.83793e-20)
(9.52073 1.21644 6.32235e-20)
(11.9335 1.52165 0)
(11.7798 -0.297433 0)
(12.6029 -3.10209 5.21768e-20)
(11.0538 -1.06796 3.31835e-20)
(3.47423 -4.86696 -7.19939e-22)
(15.0508 -0.95321 0)
(14.5738 -4.9374 -1.59093e-21)
(-6.10766 9.37641 5.87075e-21)
(7.85942 -10.2824 -2.87919e-22)
(10.5525 -0.414272 -4.60176e-20)
(9.05969 -2.8706 0)
(6.07057 3.20998 -3.33452e-20)
(4.55233 -13.2654 -1.13539e-20)
(0.984272 -0.43319 0)
(-1.5926 0.035597 5.83861e-20)
(9.8241 -0.188878 -2.74949e-20)
(4.01378 1.63759 1.37488e-22)
(12.6765 3.30311 1.55992e-20)
(12.952 11.4734 -2.56196e-22)
(10.9095 0.0462049 0)
(7.16248 -2.87849 -2.04996e-22)
(3.88847 2.33005 -5.69345e-20)
(5.73725 -8.89969 1.35474e-20)
(9.9457 0.479771 3.61847e-20)
(17.7907 0.460088 2.48083e-20)
(10.0689 -0.0433464 -1.03235e-19)
(10.1966 -3.56493 1.2207e-20)
(11.3186 -5.18959 -2.23508e-20)
(10.2632 -2.57038 0)
(10.0439 0.37109 3.56433e-20)
(7.34629 -3.37627 2.33386e-20)
(11.8181 -0.152149 -6.16363e-20)
(10.0203 -0.128082 -3.84293e-20)
(17.2127 3.07611 -2.10673e-20)
(9.63131 -1.67885 7.92237e-20)
(14.1204 -0.100883 -9.08274e-21)
(9.6144 -0.441041 2.16783e-20)
(14.4031 -8.08668 1.1754e-20)
(8.5229 2.24859 5.15724e-20)
(10.9073 2.57111 5.51581e-20)
(-1.76154 -14.2487 5.96136e-20)
(10.8646 0.0438378 0)
(3.21727 4.0162 0)
(15.9841 -0.302224 0)
(8.49529 -2.90043 5.24565e-20)
(9.80178 0.027383 -6.12965e-20)
(9.40375 -0.0867424 0)
(9.0967 -2.47764 -4.32166e-20)
(9.41818 -0.179879 0)
(10.1407 -2.09835 -3.68485e-20)
(19.041 -1.40583 -2.02562e-20)
(11.056 -2.88171 -3.55758e-20)
(11.0244 0.0453845 0)
(10.0349 -0.302603 0)
(14.9578 -1.84605 -2.02989e-20)
(11.1462 0.563336 -1.94852e-21)
(11.8545 0.706542 -3.29839e-20)
(9.95688 4.89429 -9.97895e-22)
(12.3722 2.25992 0)
(10.3273 -3.8585 -1.74815e-20)
(-2.60176 -1.95536 0)
(4.83142 1.35244 -3.17292e-20)
(11.9675 3.06046 0)
(13.1592 -2.43446 7.79386e-21)
(7.89678 -2.06248 2.21444e-20)
(8.94307 -1.73514 2.42517e-20)
(13.4377 -0.525205 2.10971e-20)
(-6.52089 -7.91253 -7.55146e-20)
(10.9604 -1.28658 8.28139e-20)
(9.99945 0.53302 -1.63517e-22)
(17.1641 -2.45209 -1.1146e-20)
(11.5598 -2.39448 -1.90245e-20)
(-4.58322 -0.416531 3.31294e-21)
(11.1234 0.933898 0)
(10.0453 -0.0389443 6.23595e-24)
(9.22689 -2.72105 0)
(10.9189 -4.87081 2.25578e-20)
(10.4336 -3.80216 -9.29411e-21)
(9.68401 -1.55337 -2.59792e-20)
(18.2087 5.24685 4.65752e-21)
(11.389 0.203332 3.80749e-20)
(9.49711 -1.17715 5.40355e-20)
(12.0058 0.562117 -3.09327e-20)
(8.49324 -6.41021 0)
(1.97929 -5.14477 0)
(11.3627 -0.761951 1.57082e-20)
(11.3806 0.281709 0)
(9.72955 0.0435796 -1.50107e-20)