/*--------------------------------*- C++ -*----------------------------------*\
| =========                 |                                                 |
| \\      /  F ield         | OpenFOAM: The Open Source CFD Toolbox           |
|  \\    /   O peration     | Version:  2306                                  |
|   \\  /    A nd           | Website:  www.openfoam.com                      |
|    \\/     M anipulation  |                                                 |
\*---------------------------------------------------------------------------*/
FoamFile
{
    version     2.0;
    format      ascii;
    arch        "LSB;label=32;scalar=64";
    class       volScalarField;
    location    "3.4";
    object      p;
}
// * * * * * * * * * * * * * * * * * * * * * * * * * * * * * * * * * * * * * //

dimensions      [0 2 -2 0 0 0 0];

internalField   nonuniform List<scalar> 
13486
(
2.35493
1.87316
0.164554
-0.298506
0.764811
-0.182827
0.346568
1.3168
1.59711
0.778021
-4.0952
0.399109
2.47919
-0.337896
0.606262
0.874761
-7.76053
-0.0723914
0.543555
2.12219
-0.250337
2.44986
1.83451
-0.950863
0.746324
-0.893745
-4.3025
-0.611719
0.00627345
-0.478835
-0.18277
0.438702
-1.22597
-0.348813
1.32054
0.0200045
0.0523174
1.91505
0.00744591
1.59968
0.187771
2.57309
0.0398996
0.753567
0.714868
0.378907
-10.9097
0.00841544
0.0501931
-0.693856
1.36314
-0.0199684
0.228655
1.94959
-0.109959
0.827204
0.0857873
-0.0215552
-1.17968
0.0735133
-2.51568
0.0711062
-3.47188
-0.235361
-0.457609
0.0550401
-0.318601
2.35836
1.58698
0.0245368
-0.31892
-0.105938
1.61002
-5.56356
0.0622942
0.0832312
0.0588135
0.592072
-12.0904
-0.0873112
0.00828833
1.89354
-3.87053
0.187876
2.36443
0.807049
0.018883
1.28997
1.54747
0.856897
0.279398
1.14564
2.25728
2.01666
1.6545
0.0059711
-3.96276
-0.319358
1.57392
-8.34666
0.0245079
-0.246935
-0.322635
-0.0159934
1.01891
-8.69927
1.56747
0.00558391
-11.9291
1.02642
1.52545
0.361249
1.94866
0.0678235
2.77263
1.59763
0.745352
-0.324093
1.62228
0.0424234
-0.0959026
-2.51595
1.73051
0.00222596
1.52277
-0.0106346
1.13634
0.365528
-0.282211
-0.404914
-0.0109026
-10.4001
-4.37638
-5.26192
1.42975
1.24157
2.79219
1.06951
0.042641
1.36061
-1.04958
0.209967
0.42715
-0.0855043
0.0654186
-2.72434
0.103171
1.71062
-0.759674
0.00327172
0.893735
0.563594
0.0109853
1.93299
0.420614
0.161855
0.841294
0.0476583
1.73752
0.117233
-0.541906
1.73838
0.208681
2.56579
-0.021588
-0.598351
-0.0877806
3.20821
0.111513
-5.26382
-4.04897
0.437292
1.06329
0.849663
0.00675474
-0.491511
-0.597481
-1.27477
1.57418
0.441887
1.50037
0.0686848
0.679237
-0.455876
0.205625
-0.620989
0.00116776
-0.457388
0.258033
1.6799
0.0500389
0.123088
-0.0352918
2.00858
-0.0561543
-4.19198
-0.415523
-0.568626
2.11171
-0.506343
-0.192039
0.346353
1.91898
0.604365
0.111187
-0.0628982
-0.0341461
1.72612
-0.0311876
0.201959
-0.525044
-0.635071
2.0943
1.56935
-0.183883
-0.22909
-0.510226
0.885249
2.1386
-2.12904
-8.08541
-0.786939
1.3963
-0.57629
0.0370647
2.29287
-0.483658
-0.315148
-0.174565
0.0427306
1.48267
-0.191193
-1.0924
2.62439
-0.303779
2.20123
-0.385364
0.11978
2.22434
0.708959
-1.18352
1.04283
0.0758861
2.09392
0.0326587
1.79843
0.7412
-0.669821
-5.74369
0.858182
-0.339092
2.80499
1.54356
0.000680706
-0.118452
-0.564608
0.419312
-0.222539
0.0820036
-1.1017
1.71367
0.0375315
0.59453
-0.531336
0.851841
-0.482434
-0.177527
-0.213658
1.51817
-0.407131
1.53675
1.53279
-0.530249
0.282181
2.29664
-0.640596
-0.117922
-0.197505
-0.0114742
0.0892442
-0.207464
1.32024
1.58237
-1.55555
-2.03702
-7.58224
-1.08703
-0.301313
0.0590266
1.5316
-0.298239
0.0748988
1.65396
1.44979
-0.367463
-0.414381
-0.542188
0.276498
1.61957
0.291467
0.188365
-0.0469714
0.107168
0.470616
0.0422817
0.63267
-0.223968
0.766624
0.0349237
0.0471601
-4.94626
-0.291951
-0.318912
0.361495
-2.83011
1.26972
0.0770642
1.55019
1.73179
-0.212302
0.0560379
0.0609871
1.55993
2.02721
2.7517
0.311715
1.00665
1.29169
0.218759
0.931496
1.29984
1.0944
0.232556
2.16126
0.335728
1.56201
2.86803
0.601371
0.954045
0.0453366
-0.194508
2.00551
0.897007
0.698804
-0.506069
0.00514947
1.06596
2.76605
-2.12773
0.072799
1.02936
0.227411
0.272033
-3.2091
1.60734
0.0225697
-5.48583
1.11156
0.0444234
-0.621675
0.565928
0.21793
1.74455
1.53678
-0.502592
0.00182467
-0.395031
-8.65557
2.14339
1.12409
0.0385026
1.08396
0.0225264
-0.34415
-0.172748
1.39526
1.58786
0.0608626
-2.68098
-3.39732
1.49537
1.06062
2.48631
1.63333
-9.34678
-0.132127
0.118903
0.928399
-6.2454
-0.131052
2.05971
-0.585884
0.650582
2.24489
2.31055
0.0435053
-0.308383
-0.330161
-6.74936
-1.10641
-6.37912
0.312406
1.41305
-0.296324
0.383814
-0.409275
1.98593
-1.20998
1.14193
1.76223
0.911221
-1.29603
-0.65823
1.62249
1.58111
1.93334
-0.380085
0.876044
-3.95335
0.73478
1.57202
0.21706
2.77619
0.999611
-0.526789
-0.431585
0.328302
1.58337
-4.66992
0.0154912
2.4295
1.41534
0.635665
0.0422588
0.701629
-0.765999
2.47422
0.0699644
0.893286
2.31909
-8.94491
-0.547378
-5.37329
-0.663955
0.0947409
1.87292
1.81746
2.44411
-3.42617
0.0448687
-0.565145
0.972042
1.57938
-0.676126
-1.44871
1.55764
-0.300661
-0.505799
-1.53665
-2.53951
-0.189595
1.98139
0.00629491
0.0474949
-0.273282
1.49252
0.00707646
3.03988
2.2823
1.60952
1.26381
0.0245721
0.00611337
2.8506
-0.13246
0.0441197
-0.511327
1.5763
-8.08595
0.257436
1.0885
0.0329256
-0.738765
1.81271
-1.77579
-7.12716
1.0153
-0.142466
3.19643
1.03266
1.3745
1.71266
-0.501662
0.210285
2.56064
0.764712
2.04115
0.343621
0.428447
-0.228476
-0.0764522
0.0374546
-9.33978
1.61094
1.56245
-0.348572
0.00194921
-0.224763
2.33461
1.8781
-0.130725
1.5924
1.16309
-0.715814
0.852315
1.401
-3.92138
2.44538
0.0484502
0.0284309
2.55487
1.07181
0.0100486
1.04981
-0.249278
-0.311082
0.642405
0.978913
1.75633
2.26274
-1.1322
0.69576
-1.22168
0.00748038
2.19763
0.422665
-0.402652
-0.325399
0.201325
0.0832406
1.27315
-0.43452
-1.37269
1.59711
2.13811
-0.107681
1.71008
-2.96501
-0.368379
-1.91095
0.643878
-0.744273
1.73997
0.214
-2.14863
1.34661
1.85771
-1.07879
-0.974414
1.37902
2.20523
0.462583
2.37511
0.201105
1.04224
0.352285
1.75203
0.0596114
2.14548
-3.56079
0.289898
1.51745
-0.257725
-0.604185
1.54264
-8.39965
0.286476
1.77998
2.44422
-0.280496
0.0849469
0.400501
0.102947
1.4225
1.08269
0.499426
-3.01817
0.0458153
2.33715
0.259129
0.0753547
-0.815725
2.46017
-0.293004
0.0690426
1.52337
1.24449
-0.0754972
-0.472819
1.33849
0.208937
-0.00905358
0.602925
-1.57349
2.38593
1.56131
1.10171
1.13624
-1.28741
-1.11317
2.68232
0.463274
2.68849
-0.299141
1.53441
0.0201189
-5.59523
0.938439
0.854535
2.81469
-0.554131
1.01687
0.970065
-2.27006
0.81351
-0.0418525
-0.738695
1.54375
-0.893863
-0.580881
-0.774125
-0.358061
-0.271371
1.70111
0.00887508
2.60595
1.57961
0.105118
-0.34813
-0.515064
0.501751
-2.29821
-0.452618
-8.89379
2.18344
0.00199221
0.0842688
-0.872877
2.49366
-9.78444e-05
0.1727
2.55141
1.38041
-0.337725
-0.0943258
1.11753
0.1501
1.50523
0.070813
-0.324597
0.595991
1.44427
0.459284
1.29662
2.58843
0.0680241
-0.400646
1.54234
0.219571
-0.215883
1.07666
1.15864
0.667289
-0.366131
0.21163
0.0556204
0.213166
2.19435
0.475334
0.205331
0.196923
0.0984607
-0.0791405
1.57111
0.105267
1.47169
1.49797
2.16854
-0.105598
-1.38168
2.66799
0.029037
-0.304441
1.65809
-0.806813
1.77332
0.0632586
1.52129
-0.293198
-5.60148
-0.763595
0.00431519
-7.43209
0.818198
2.7461
-0.261049
-2.21753
-0.551956
1.60973
-0.372055
0.678475
-1.14404
2.71584
-0.345391
0.830907
-0.725089
0.890834
1.56233
0.523223
-3.18844
-0.209207
2.52573
1.59769
0.662753
1.42307
0.087824
1.23803
1.25252
0.904617
-5.00963
-0.114512
1.96752
0.349073
-0.0189414
1.30407
-0.3122
-0.251619
0.0108529
1.70488
1.66678
-0.352738
0.213259
-0.318225
-0.226545
0.217827
-0.262119
0.227951
1.51248
-0.145008
-1.63318
1.83921
-0.0610712
-0.339285
-0.186093
-0.680998
-0.347332
-0.696336
0.0461109
-0.655086
1.49478
2.47584
0.0443044
-0.33897
2.5581
2.39978
-0.267839
-0.430834
1.62428
-8.41018
0.0774042
-0.312987
0.036727
0.867272
-7.16917
0.730917
1.04892
-0.603761
-0.234007
-1.08978
-0.171931
1.35819
0.622463
1.00743
-0.369728
1.31603
2.35026
-9.91579
-0.606395
1.76266
0.533527
1.02319
0.0143304
-0.465515
-0.374402
-0.131509
1.60433
2.6954
1.7349
-1.55723
-0.165465
1.56646
2.28726
-0.47805
1.6812
1.55522
2.38666
0.378075
0.045233
0.235418
-0.20975
2.37929
0.218115
-0.209421
1.08535
-0.116635
0.397744
-0.102448
-1.29846
1.48524
1.11595
1.07606
0.728562
-7.6502
-0.320355
-0.241094
0.874438
-1.66129
-0.945188
0.0629421
-0.929354
-2.1144
0.814404
-0.475123
-5.71682
-5.01055
-0.297168
1.15713
-4.9225
-0.487121
1.76872
-0.262647
2.45363
-0.315744
-5.78725
1.85807
2.21251
0.0659252
0.0722061
0.342298
1.60621
0.881219
-2.42576
-0.06173
0.0469716
-0.225448
1.52812
0.0771351
0.905536
0.0598314
1.58017
-4.95873
0.0631813
0.0220902
1.91633
-0.867901
-3.44414
-0.779591
2.43063
-0.346926
-0.412085
-5.11721
1.55962
-0.401371
0.0658021
0.369426
0.741751
-0.70821
1.07914
-0.453036
1.2525
1.54515
1.82325
0.699056
0.031872
-0.294032
1.17608
-0.64715
1.88603
1.03231
-0.0963756
0.000444423
-0.143526
-0.0705247
0.0427062
1.78019
0.626802
0.230745
1.55366
-0.0785778
1.25661
2.78371
-0.0981472
-1.85786
1.06491
-0.123388
0.0126766
-0.157874
-0.269825
1.56096
0.0733741
0.0308118
0.0546649
-0.151808
2.01006
-0.322833
0.00518893
1.56265
-0.190274
2.22892
1.80138
2.10095
0.414764
0.941247
0.470019
0.126462
1.16873
1.5459
-0.242553
-0.263696
-5.60143
-0.413086
-0.78441
1.56995
-2.15269
-1.15701
-0.916781
-0.234821
0.030178
1.57121
0.0268855
0.264865
-5.23637
1.58301
2.74298
-0.271536
-2.33444
0.861042
-0.0485838
1.53367
0.109491
0.027869
1.89371
-0.033447
2.59664
1.08833
1.55337
-0.461916
2.04373
0.0764007
1.81255
0.0505724
-1.11706
-0.598587
-0.596687
1.05536
-0.23799
-0.119138
2.44599
1.58469
1.68862
2.22731
1.72298
1.9114
-0.233907
1.63897
1.59693
1.61238
-0.221181
-0.470709
-0.705481
-1.61626
0.38042
1.76153
-5.72426
2.38225
-1.62514
0.0694755
2.67427
2.25004
-0.257944
-0.668231
1.58797
0.792732
0.0620095
1.47667
-5.81949
-0.63108
1.54946
2.17614
0.0242181
1.7329
2.02302
0.00120906
-0.530565
2.03218
0.697178
0.0454035
-2.08872
0.185406
-1.23643
1.45271
1.05841
0.0619773
-0.119732
-0.527169
0.390602
0.00767099
0.38492
2.29841
-0.00973452
2.9792
1.57852
0.523275
1.77108
-0.350823
-4.87799
-0.38567
1.55973
0.0185727
-4.90751
-0.18319
0.770413
0.894598
0.0477935
1.10718
-6.92208
0.806672
-0.519052
0.0636104
1.26581
0.477787
2.04138
1.59868
1.64159
1.51757
-0.25917
-0.988217
-0.87455
0.19632
-0.30497
-0.313663
1.24227
-0.236748
0.0270426
0.0712071
0.148354
-1.16709
1.11025
0.703664
0.137153
-0.54777
0.756323
-0.776337
-0.81102
0.217113
-0.185192
1.73007
1.16214
2.01304
-5.37855
1.41607
0.059635
2.19746
-0.293401
0.812879
-0.227284
-0.205942
2.55149
2.63617
1.31147
0.845972
1.05699
1.4401
2.57955
1.06992
-1.09858
-0.992035
0.320686
-1.60613
-7.91675
1.57527
1.53344
-0.699938
0.39901
1.30714
1.4374
2.8088
-2.41507
1.22361
-6.95059
-0.330688
2.25372
-0.140748
1.30716
-0.229565
0.497329
0.619986
2.93129
0.0928377
-0.700453
0.78539
0.239307
-0.642564
-5.69406
-0.0818267
1.73993
0.123118
0.85457
2.39742
2.20528
-0.0756403
-2.99078
0.0987822
0.248498
1.83758
1.5056
2.1833
0.955631
-4.84641
2.29069
1.42305
-2.19221
1.20317
1.60001
1.97592
-2.20607
-0.236622
0.00173326
1.32912
2.51509
0.836798
0.104136
-1.21509
2.82213
-8.52733
-1.04988
2.62387
1.37652
-1.64021
1.25565
-0.310279
0.864519
-0.350239
-8.1094
0.0423143
-0.407139
0.0781566
-0.282591
-8.46006
-7.42156
-4.92844
0.179594
-6.53772
-0.332175
1.24923
1.44306
0.8093
-7.62038
0.399081
0.212403
-0.266531
2.96429
1.03102
-0.796145
1.37429
-0.356491
-0.428385
1.28225
1.26973
1.52905
3.00248
0.00247844
-0.136868
-0.94411
0.206171
1.06444
1.53111
-0.607739
2.31546
1.05146
1.66209
-0.230449
-0.0641828
0.0862096
1.62439
1.57076
1.67754
1.56077
2.75195
2.69335
-0.368029
1.38352
2.00258
-0.76997
2.17432
0.0104354
2.66168
2.15315
0.0757808
1.77707
0.752899
1.19317
0.110398
1.58197
-0.969047
1.37488
0.569824
1.04866
-0.170376
1.53531
0.0161874
0.369144
2.57116
2.56434
1.0443
-5.42023
0.408343
0.0704634
-0.125169
1.2525
2.3003
-5.52182
1.61414
1.50285
0.76719
1.61561
-0.582571
-0.234151
0.0655014
2.79897
0.455814
0.108549
1.79988
-0.168362
0.086674
0.789866
0.313659
1.18764
0.608805
-0.471767
0.940565
1.25491
1.02854
1.16861
2.71844
2.22626
1.94893
1.88486
2.51504
0.748257
0.00155817
-0.0702488
-1.89224
2.54218
-0.23946
1.56955
1.40904
-0.357544
0.817548
1.73779
-0.652481
0.78418
0.957927
3.03995
-2.91509
0.688814
-1.28017
1.78873
0.16538
-0.301767
2.49945
2.12883
1.51754
1.55477
-0.39533
0.724445
-9.74244
2.68771
0.0494587
2.90977
-0.157976
0.0533647
-5.61965
0.823544
-5.56844
0.210484
-0.0192341
0.565193
-0.0131365
0.528673
-0.318878
0.00375024
-0.269037
-5.27069
-0.631009
-2.61519
0.0231322
-0.0697526
-0.267908
-2.07534
1.59943
1.63097
1.97995
1.54567
0.629582
0.611785
3.21038
1.53239
-5.45429
0.0102097
-0.155179
1.19385
1.38647
2.32
-1.11555
-1.08723
1.26818
0.00363499
0.418438
1.95806
-5.51228
-0.446021
-9.72266
2.71869
-0.316479
1.09755
2.0062
-0.219412
1.24108
0.0161846
-2.64625
-1.84472
0.106424
1.04169
1.86473
1.96819
-2.50434
-5.31146
1.02111
-12.3486
-0.477478
-0.261696
0.26483
-0.335312
0.040534
-0.327163
-2.58811
-0.962963
2.4092
-0.259423
2.63422
-0.785081
-0.184573
0.590644
-0.581387
2.22387
1.5317
1.83761
-0.0555509
-0.35448
-3.05672
2.13731
-5.25879
1.14063
0.051157
1.88047
2.22054
0.043151
1.55508
2.52667
1.72309
1.69133
-3.4138
-0.117229
0.65006
-0.763627
-0.0101413
0.943894
1.1047
0.170619
-4.29816
0.388814
0.0977839
1.35936
1.15283
-0.551892
2.6528
0.200223
0.00285282
0.230326
1.53476
-0.421187
0.0141692
1.70422
-0.861978
0.151106
-0.288386
1.65208
1.53833
1.47009
0.0447998
1.46776
1.80677
1.7686
-0.35639
0.0747499
0.334724
1.35546
-1.17059
-4.16867
-0.399523
-1.99627
-0.308248
0.0281074
-0.00957288
0.0675367
-5.8957
-0.800473
-1.34922
0.102078
-0.355665
0.578203
-0.787188
1.66344
3.22918
0.51785
-0.267157
0.691342
0.16683
0.40667
0.0296285
-0.447063
-0.844763
0.218986
2.06921
0.00528539
2.48151
0.0251657
1.46462
1.281
0.686614
-5.80652
0.892713
2.74341
-0.271383
1.56442
1.50824
2.31017
0.216968
2.12021
1.67728
-5.6942
1.78553
-3.23798
-9.78361
2.16508
1.38031
-2.37523
-0.0599058
2.03105
0.150079
-0.556388
0.0633989
0.0632536
1.1949
0.84451
1.56231
1.46241
1.34433
-3.23417
-0.636678
-0.330476
1.52409
2.90456
-0.496357
-9.33949
-5.45072
1.56313
0.198675
0.201396
0.67099
0.0102475
1.21537
-0.227478
0.357101
2.43319
0.705037
-0.134291
-0.195315
-0.320259
-0.734564
-7.35014
-0.968331
-0.479737
1.85741
0.838882
-0.676566
2.52287
0.00989974
-2.19634
-0.282573
-9.6395
1.69518
-4.97737
0.518601
1.56316
0.0676222
-0.367427
-0.19863
-5.63088
-0.282603
1.70049
-1.35139
0.0232671
-9.47356
1.50656
1.68263
-0.319309
1.98618
1.83706
2.3875
2.45248
1.74386
0.282417
2.80214
-10.3332
1.52151
0.300336
-1.2825
1.89856
-0.370391
2.39506
0.732125
-1.63231
-5.43999
-8.54838
1.67
-0.407515
-0.365746
0.134142
-1.41067
-0.11723
0.966393
0.283313
1.13883
2.716
-5.51332
-0.894823
-0.944623
1.6232
1.16718
-0.613746
3.18938
0.0128308
0.0954361
0.977935
-1.61917
1.49746
1.61324
1.80313
1.81223
-0.142881
0.843923
1.50405
0.361731
-0.276091
0.018469
1.694
1.75871
2.1598
-0.24166
0.164289
0.789994
0.950121
0.17105
-1.17414
1.28849
-0.261377
1.36172
1.61046
-7.54945
2.47446
-0.605812
2.69047
1.78437
-1.05566
0.0031962
0.0584448
0.551793
1.64442
-0.780337
2.12866
1.47925
0.795414
0.0549527
0.347839
-0.42497
0.793887
-8.61234
0.96094
-0.269242
1.52139
-3.88905
0.0269861
-0.31356
1.93415
2.24062
0.717139
-4.14201
0.759561
-0.0795225
0.198019
0.877464
-0.224883
-0.210302
2.63424
-0.846277
-0.188297
-0.918839
-8.30122
-0.059473
1.6098
-8.18199
-0.272868
1.63631
1.00303
1.68343
-0.300343
0.710166
2.66313
-3.1154
1.50098
0.476789
-0.179162
0.544285
0.378465
-1.17645
2.71989
1.79359
-0.329318
2.63392
2.03919
1.91375
-12.4434
-4.09605
0.990643
-1.8391
-0.0404769
-2.60986
-1.65549
-2.48159
1.23776
0.603695
0.940606
1.0462
-0.208255
1.17179
1.5259
-6.99678
1.63229
0.975706
1.55732
-0.0791818
0.0324081
-0.320133
-7.72901
-0.307182
-0.324074
1.50726
-1.33175
2.39888
-0.342294
1.50627
0.956322
0.0711302
0.269505
1.61159
0.700542
0.363359
1.40916
0.0638488
-0.0655875
2.2682
1.84016
-0.634575
-1.96724
0.0561853
1.37461
0.0165577
0.691951
-2.34499
0.0519386
-0.102426
0.105697
1.36557
1.30686
0.00135202
0.690959
-0.0328179
0.024529
-1.0439
1.9291
-0.326938
1.53013
0.00474513
1.34428
1.66449
0.887432
1.45532
0.0961788
-0.320043
0.0772635
-4.23065
-0.377685
-0.59482
-0.787511
-0.107708
1.24031
-0.0455875
1.53149
-0.0783541
-0.00607729
-2.46473
0.0115416
1.6342
-2.04377
1.52674
0.414972
-0.829211
-0.122494
-0.32103
1.12074
1.64873
0.0254513
0.307547
-5.03623
1.83299
0.113442
0.465183
-0.469853
1.96811
0.770332
0.0295465
1.6715
1.62313
1.90013
0.230535
1.91667
-3.27815
0.104634
-0.208543
1.50739
1.00062
0.436802
0.166602
-1.13707
-0.60189
0.856982
0.151517
-0.711534
2.45345
-3.72026
1.86789
1.13137
-0.368471
-0.00871981
0.129591
-0.0504162
0.192487
0.250864
1.46164
0.0743678
1.56025
-2.56475
0.627023
-0.198063
0.37836
-1.17867
1.94547
2.6724
1.70905
0.872621
0.315263
0.999921
-4.91737
0.0195867
0.06734
-0.116623
-0.668389
-1.19489
-1.1354
-0.6512
1.39221
1.53629
-3.29538
0.423245
1.76705
-0.665654
-2.06186
1.67638
-0.00380969
-2.74141
0.0486137
-0.255446
0.00423545
2.50011
0.0716943
1.501
-1.5496
-0.92451
-0.640988
1.52819
0.401329
1.29134
-1.35639
-0.846737
0.133876
0.293184
1.80241
1.37916
0.285786
-0.183979
-0.365228
2.77922
-0.232722
1.77818
1.94327
-0.173941
-0.0259682
0.718106
-5.26828
-0.872687
1.35697
0.886945
1.51251
-0.413324
1.70332
0.20039
2.23414
0.29931
1.37677
1.97564
1.29232
0.260283
-0.34984
0.512699
-8.87488
1.34198
0.703488
1.89252
0.162396
2.37955
0.287339
2.53336
-1.03291
1.97014
-0.212058
1.17807
-3.19321
1.49142
0.754868
0.633338
2.34814
1.54394
0.365198
-0.63826
0.898874
1.47846
0.0134043
-6.85984
1.14815
0.118238
2.03403
-0.321699
2.42326
0.396357
3.24712
2.44334
1.1412
1.00561
-3.16385
0.115638
2.60246
0.122553
-0.0424735
-0.0897254
2.58883
0.752868
1.34153
2.20105
-0.949821
1.69759
-0.266576
1.86271
0.0874765
1.75791
1.59235
2.16051
-0.00834549
-11.5798
0.476099
-0.317695
0.727315
0.239634
0.107352
1.99194
2.28065
0.0316176
0.518562
-0.248498
2.03818
1.2937
1.43794
0.968858
-0.201749
-4.15089
-0.264523
1.59641
-2.55835
-0.0977353
0.035553
1.10591
0.745156
-0.663301
2.74964
-0.13793
2.39878
0.453898
2.4466
-0.434019
0.34978
0.0714184
0.0823377
1.33341
1.53687
-0.571208
-0.10353
-0.797007
-0.0975851
2.26303
-0.527766
0.0451598
-0.183366
-0.122478
0.520335
1.91085
0.742768
0.103381
0.047418
1.5504
2.91427
-0.31446
0.129583
1.52202
0.021968
0.798929
0.0540964
1.10844
-0.110039
-5.64238
-0.493103
-0.256864
-0.151791
0.0681904
-2.26877
-0.562394
-0.0487315
1.21251
1.6709
1.35858
2.82758
-2.94536
2.56792
-4.54817
2.41345
-0.801576
-1.03631
2.73149
0.63544
-0.3483
1.5807
-0.00682799
1.70601
-0.306131
-8.95871
0.293773
-0.600338
-0.683143
0.00760864
-0.130625
0.622206
1.93926
-0.990672
0.692962
-2.49697
0.373422
-0.157769
0.0202715
0.215836
-0.170937
-1.96911
2.03802
0.0397645
2.24847
0.600751
-2.32842
0.511681
-1.40105
0.0718247
1.34219
1.95912
2.8439
1.17639
1.30629
0.737307
-5.53039
2.74109
2.92924
1.70047
-0.924718
-0.403752
-8.92456
1.44906
1.02367
0.571555
1.23827
-0.200786
0.0266561
-6.38955
2.33829
-0.0264776
0.197698
-0.311194
1.50395
0.293118
3.14728
2.94148
1.39555
0.0560312
0.423608
-3.71975
0.572083
3.02084
0.176891
0.0690126
1.15028
0.0100528
0.311369
-0.164261
-0.337305
0.358354
0.0732763
0.728701
0.0463763
0.490075
2.18547
0.470009
1.65966
-0.324432
-0.4084
2.6402
-1.79943
0.285132
0.400077
0.667125
0.184881
-0.326791
0.31076
0.106814
0.1506
3.1786
-5.86717
-2.98522
-0.772207
-1.13091
0.158365
0.395917
-0.315884
-2.2732
0.0304115
-3.39831
-1.29455
-0.760845
0.182909
0.149561
0.169289
3.09964
0.146388
0.473352
-0.155243
0.318699
-5.40053
-0.335717
2.13831
1.54398
0.485037
-0.139045
1.4999
1.66474
0.0395667
-1.03647
0.0703146
2.12969
-0.68916
1.45569
0.0762432
2.4018
0.1201
-0.342677
-0.226324
1.70005
-0.550235
1.38086
-0.975827
2.98241
-0.318876
-0.306751
-4.89339
0.671495
-0.327337
-1.03035
-0.31848
0.2453
0.690758
-0.455031
-0.211362
-0.0587182
0.241897
-0.582395
-1.30762
1.26249
-10.3534
1.35926
-0.322881
1.72002
2.72598
1.46194
-5.6474
1.57718
0.223443
0.295118
-0.0738207
-0.463377
-7.96994
0.109753
-0.362843
0.672571
0.00282503
-1.21529
-0.0824733
-2.88262
0.795923
1.57953
-1.78279
-0.321467
-0.532471
0.0446557
-0.139764
0.931233
-3.46217
-0.325575
1.56874
-0.103761
0.883046
-1.06951
-3.56552
-0.923187
-2.83534
3.12236
0.490931
-0.783032
0.377966
2.56224
2.64639
-0.364483
-0.27815
1.54513
0.0257173
0.104468
2.63508
0.881542
1.37428
3.17413
-0.500972
0.457152
0.247122
2.34787
1.61192
1.61532
1.94632
1.10216
0.0553263
0.100978
0.726206
0.373707
-6.81255
2.69843
-0.86358
-0.942905
0.0457959
-0.575952
0.776899
-0.311316
-0.305572
0.355791
1.63343
1.68221
1.78941
-5.18725
2.30695
2.62661
-2.86084
0.988547
-0.0999235
-0.120408
0.289592
0.906991
-0.0949053
-0.681169
-1.03147
2.91868
-3.64915
1.80932
1.5717
2.06636
1.17758
1.24321
-0.124759
0.0492639
0.91149
-0.0164847
-9.50399
-2.27384
0.149241
-0.311027
1.92855
-0.439412
0.0494874
0.310798
-5.26449
-0.33062
-8.74038
1.4106
-0.271424
0.0595001
0.739234
-0.928267
0.556794
-3.45327
-0.0919526
1.68436
-2.33367
2.6872
0.0387262
2.86791
0.0059971
0.0661591
0.259874
1.36547
1.34079
-3.32497
-0.104014
-0.352549
0.24538
1.10641
3.18617
2.07315
0.53194
-0.656195
0.833304
-0.122093
1.79126
-0.16278
0.916282
-0.267049
-0.312039
-5.05907
0.563059
0.0512593
-5.19585
1.02498
1.0041
2.59497
2.79054
-7.40602
-7.63237
-0.524233
-1.4596
2.70588
0.151375
-0.721224
0.687604
1.12883
-0.258375
0.11988
0.0921963
-0.00382631
1.42982
-0.2225
0.463987
-0.466622
-1.04543
-2.89629
-0.432436
-2.91109
-2.58175
1.73343
-0.390581
-0.32692
-0.287127
-0.0233258
2.96337
1.15363
1.46038
-0.309487
0.808042
-0.0385507
0.650276
0.475651
-0.3185
-4.59447
2.6973
1.65745
-0.0102
-5.90294
3.07613
-0.333441
-3.88549
-0.258298
0.803555
-0.329575
-0.252009
2.33688
-0.103021
1.44638
0.631783
-0.300052
0.15009
0.0763589
0.775431
-3.12914
0.0318137
0.474554
1.54312
-0.31917
-4.12827
0.132037
-0.407831
-1.70736
-1.5198
2.88617
1.02553
-0.806954
0.760888
0.401845
2.53151
0.892217
-5.10228
0.948232
1.98365
1.70024
-0.609083
1.3778
-0.115229
2.67471
0.0492657
1.59326
-1.1181
-0.56807
0.0460162
-0.289172
0.932142
0.537209
-5.69024
-0.335306
1.8504
-0.0652308
-0.0780748
2.19017
1.23489
2.13167
1.45611
-0.890322
0.0224167
0.0709469
1.55299
0.00378966
1.94351
1.2165
2.65387
-0.318092
2.07516
0.779701
2.6835
-0.296086
-0.950313
2.74673
-0.31829
1.18713
-4.26398
2.35968
2.64539
1.69326
-2.63355
1.55172
2.0279
-0.561019
0.659112
-0.332423
2.1657
-0.318292
-0.176099
-8.5955
-9.46644
1.99186
0.766054
-11.9286
0.824838
2.64267
-0.880818
-0.273212
-10.4946
-1.11143
1.31461
-0.162866
1.48764
1.47161
-12.1614
2.97101
-0.0277537
2.2386
2.21765
0.136358
0.0236591
1.39024
-2.1412
-0.215693
1.37575
1.18323
-0.561201
1.47778
-0.271169
2.33089
1.69097
0.617858
0.0192187
1.73654
-0.17883
0.941464
2.07425
0.358371
0.0392025
2.01225
1.67611
-0.750535
-5.43231
1.19493
1.75423
2.67156
-5.47295
2.82267
2.79205
2.87098
-0.177899
1.95404
-0.857861
1.55849
2.10103
2.05025
1.73723
2.30205
3.14237
1.35618
-5.04401
0.165123
-4.4921
3.11169
0.852826
-0.111909
-0.325056
1.4621
2.32217
1.49858
0.543901
-0.0910199
2.30958
-2.75929
1.67544
-0.32436
0.721025
0.0226678
0.48974
1.03127
-0.397802
-0.390029
-0.111343
-0.393319
-0.189956
1.91516
-0.349837
0.226045
1.4643
-2.87195
0.970943
0.0454811
-2.59754
-1.25621
-4.80194
2.20208
2.37347
-0.324997
0.591905
2.02124
1.81832
0.0302156
-0.724395
1.71547
-6.3344
2.16532
-2.33095
2.10819
0.974306
0.235446
1.96237
1.04181
2.05924
0.578533
0.732149
-0.550285
-5.63818
-4.95749
-0.0184398
2.02056
-1.0088
-0.295529
-1.03789
2.24082
2.03782
0.546134
1.16856
2.27195
-2.46244
1.49461
-0.07624
-0.641443
1.48871
-0.346155
-4.55211
-1.40492
-8.26794
-0.306956
-0.954039
-0.0430257
-9.9585
-5.75887
1.28965
2.70613
2.95846
2.56784
-0.966664
1.69364
-1.3893
1.45293
2.26148
0.22586
1.98419
-1.05307
0.563484
-0.590899
-0.083528
2.15863
-1.21167
1.77616
-6.40181
-0.398597
-9.35823
1.81133
1.76214
1.55782
-3.46643
1.48267
-0.208267
-11.9901
-11.5237
0.521694
2.71595
-3.14944
-0.302651
-0.330204
1.52891
1.49172
-0.0217505
0.979942
-5.00246
2.30536
2.08012
-0.273317
-0.319412
2.24619
-0.351159
-2.4101
0.0260916
2.05256
2.31045
-0.693979
1.11494
-0.244485
2.65848
-10.832
-0.538238
-0.0834246
2.49167
0.0184058
-0.520098
-0.11016
2.14156
1.23591
2.12572
-0.134867
-2.78051
1.74132
3.07543
-5.85937
1.40673
-0.0222315
-11.5909
-0.010453
0.581212
-0.319315
1.08796
-0.280076
1.02496
-0.200415
-0.711378
1.94628
2.33002
1.47063
-1.97826
-0.552485
1.81141
-5.25278
0.594642
-0.66722
0.784711
-8.34279
1.68421
1.81758
-0.0571103
1.70498
2.62099
-0.263781
1.27538
1.78248
-10.7027
0.955054
-0.558484
0.782012
0.575856
1.22958
0.00985961
0.541655
-0.219128
-3.47336
2.18862
0.63409
0.228662
-0.375728
-0.206011
1.61931
-6.84899
2.85826
-2.89603
-10.1168
-0.117193
1.99827
1.77223
2.09128
-6.03359
2.52225
-1.53952
1.23348
0.10477
-3.30356
1.44017
0.723596
-0.259754
1.07624
-4.14258
1.27412
-7.78756
-0.368696
0.0137313
-2.08331
-2.4908
1.39876
2.58839
0.0866683
-1.01471
2.01269
-2.41028
2.35168
0.714291
0.0659763
0.841239
1.57108
0.824719
-0.142639
0.162776
0.00229961
0.387027
0.569785
-3.51402
-0.342387
0.0973888
0.922786
-0.274775
3.13165
1.68826
1.54489
2.37531
0.252188
1.74896
-1.05099
-7.75958
-0.432553
1.55902
3.05016
1.46195
-1.07513
2.193
1.47236
1.49604
0.0712963
-0.0522021
0.842474
2.87171
0.133943
-0.718997
2.11879
2.23735
1.64974
1.55293
1.90608
1.10385
-0.243793
-0.549675
1.71933
-5.6916
-5.45238
1.5253
-0.480182
-0.00760293
0.519532
1.69693
1.75878
1.78849
-0.173313
2.08903
2.13719
0.325648
1.87721
1.64114
1.29482
1.16827
1.05759
0.808149
-0.029279
1.99759
1.86135
-0.170949
1.42738
-0.189144
0.059723
2.56674
1.93671
0.0206529
-0.548677
-0.0636265
1.99181
1.12271
0.288141
0.0231391
0.250303
-0.326823
0.318221
-0.306875
-0.2082
1.14812
-0.234294
-1.68121
-3.94375
2.42259
-0.311034
-4.10968
-0.365528
2.60079
-0.227722
0.346419
0.310588
-10.4218
1.21368
1.45924
0.988703
2.2842
1.25818
0.0475945
-5.13837
-0.460934
0.0286053
1.80953
-0.0844657
-0.94211
-11.0739
-0.339532
-4.10488
-0.350946
-3.11641
-0.196534
0.587757
1.53454
2.03256
-0.298529
-0.129726
2.29394
1.74364
-0.601815
-0.28277
-4.75212
0.96562
0.0926348
0.868342
1.32486
-0.0559592
-0.246303
-0.283728
0.412537
-1.30999
-5.69566
0.200254
-0.762727
-7.62179
-11.0669
-0.421505
0.194056
-5.2701
0.803072
-1.06815
1.53671
1.37974
0.425238
2.02187
-0.845714
2.60166
-0.593223
0.102961
-1.35141
1.55351
0.952749
-5.32532
-6.32594
1.58878
1.88889
2.69851
-0.706945
-6.94804
-0.741887
-0.156679
0.00889567
-3.75505
0.57364
-7.22491
0.923262
-1.16045
1.19199
0.185459
-0.0526748
2.36106
1.38775
-1.23943
0.0330954
-1.80972
-5.35367
2.02575
2.95962
-4.77985
1.91284
1.47771
0.00657135
-0.216418
1.96899
1.88381
-3.40541
-0.214815
-0.450465
-0.887564
-1.27882
-6.28609
-1.18056
1.01674
-0.217393
1.7193
-2.63196
-11.3064
1.4554
-1.18343
-9.02275
0.0857898
1.17547
-10.0156
-0.671197
-11.875
-2.59587
-8.23152
2.73898
-6.94128
-0.254254
-1.26573
1.70648
-10.4793
-0.164815
-2.55148
-3.19683
-0.586991
1.77162
0.0161987
-4.03807
1.36241
0.0181896
-0.497791
-3.08673
-4.67238
1.11458
1.28692
1.56625
-9.40281
2.34036
-0.388019
0.00276078
0.135327
-2.63071
-0.582378
-4.39731
-1.1582
0.323673
0.671936
0.0541102
-0.351509
-1.10462
1.46769
-1.98215
1.6376
-2.58038
0.985516
-0.294048
-0.112126
-0.169742
3.09724
-0.28775
-11.0653
-6.06202
-0.925001
1.56125
0.0724526
-0.206416
0.0789134
-10.316
-0.598967
-5.62244
-5.81484
1.70521
-7.99944
0.242213
-11.7188
-0.0360998
1.3676
0.134166
0.705466
-0.497764
2.05277
-8.25843
-0.707991
2.19799
0.634942
-9.28526
-0.351109
-2.61561
-1.00733
-0.40562
2.00838
-0.377889
0.662521
-6.4813
-2.36872
-5.35602
-6.76759
-4.05354
0.925768
-0.248858
1.53908
0.581378
-1.9189
-0.385017
-0.676885
1.92996
2.32044
-11.0107
0.0643099
1.67197
1.53917
1.2286
-0.91338
-1.67146
-1.78296
1.56277
0.457485
-0.992616
-3.55822
0.897247
1.8558
-0.281982
-0.031792
0.0750797
2.17334
-1.72123
-1.89124
0.0494414
1.34388
0.0637795
-0.142082
2.35561
1.94536
0.0532952
-0.983681
1.98297
0.774413
-0.111925
1.44075
-0.405126
-1.27972
-2.12633
-1.00744
1.90385
1.66731
-0.0886673
-0.673601
-0.291519
-0.0345365
1.70982
-0.947734
1.17638
2.06802
2.21449
-0.304264
1.56799
1.37938
1.73235
1.83664
-0.199928
1.8498
0.0102132
1.56049
0.839685
1.69188
-0.382987
1.96765
1.87713
1.40307
1.02115
-0.626541
1.10917
0.106405
-0.793055
2.11548
2.08794
-0.675245
1.80053
-1.01494
-5.97015
1.69435
1.6956
-2.16451
-0.0810062
-7.10179
-0.877376
-1.4439
-0.333488
-2.18139
-0.439919
1.43109
2.85434
1.96832
-0.319324
-0.278174
1.66387
0.83188
-0.198725
-1.24222
-0.526662
-1.88115
-5.62464
-5.72896
1.49084
-0.607679
0.790246
0.0423623
0.0414068
-0.138162
0.0419068
0.335888
0.810854
1.03233
-0.570029
0.73909
-2.53357
-1.53098
1.09477
0.863438
-0.0576807
0.143464
1.02821
-0.00553055
0.601931
-0.622585
1.5412
1.30253
2.49328
1.56172
-0.880886
-0.423329
-0.657913
-0.488723
0.0290882
0.0564336
-0.187307
-0.71468
2.91327
0.173023
-0.0137101
2.31603
-0.324789
-1.03429
-0.193054
-0.40324
-7.6169
0.46926
-1.43376
1.52338
-0.236483
-0.803537
-0.276503
-0.347818
-0.993049
-0.159748
0.0467565
1.21505
-0.321331
-0.337099
-1.55834
0.617407
-1.0332
1.68621
2.37666
-0.467982
1.71912
0.897141
1.13504
2.62798
-0.308583
0.946552
0.83152
0.724033
2.24243
-0.503777
-0.15992
-0.154156
1.66178
2.37371
-0.394823
-0.137782
-1.03325
-0.877126
0.80516
-0.678683
-2.21505
-0.513181
0.614871
-6.12291
0.383896
0.505083
1.36391
0.306242
-5.11588
-0.214335
0.0306165
-0.210842
2.53488
2.84656
2.105
3.01948
1.37838
0.873555
1.76188
1.5274
1.40967
-0.823706
1.60826
-0.385334
-5.66025
2.32225
-0.230965
-1.07156
2.72797
0.0446763
-0.89883
0.837854
0.730273
1.91092
-6.42157
1.44085
2.51227
-0.319077
-5.82663
-1.91568
1.11689
-1.28924
2.01298
-0.12665
1.91457
1.55511
-0.337316
1.83551
-0.661793
-4.63052
-4.66065
-0.500894
1.88942
-0.940223
1.6112
-0.0165761
-4.67969
0.14454