/*--------------------------------*- C++ -*----------------------------------*\
| =========                 |                                                 |
| \\      /  F ield         | OpenFOAM: The Open Source CFD Toolbox           |
|  \\    /   O peration     | Version:  2306                                  |
|   \\  /    A nd           | Website:  www.openfoam.com                      |
|    \\/     M anipulation  |                                                 |
\*---------------------------------------------------------------------------*/
FoamFile
{
    version     2.0;
    format      ascii;
    arch        "LSB;label=32;scalar=64";
    class       surfaceScalarField;
    location    "1.3";
    object      phi;
}
// * * * * * * * * * * * * * * * * * * * * * * * * * * * * * * * * * * * * * //

dimensions      [0 3 -1 0 0 0 0];

oriented        oriented;

internalField   nonuniform List<scalar> 
20045
(
1.21872
-1.31682
0.0980971
-2.6006
0.897263
1.70334
0.957396
4.92596
-5.88335
0.126135
-0.0204522
-0.105683
-2.02213
1.98599
0.0361402
-1.55073
5.59354
-4.0428
-2.47833
1.10265
1.37568
0.150548
1.04345
-1.194
1.18106
0.99602
-2.17708
-2.09131
-0.239053
2.33036
-0.0860669
-1.76562
1.85169
5.59175
-2.64272
-2.94903
0.825911
-0.864898
0.0389878
-3.17023
2.75928
0.41095
-0.822386
2.5959
-1.77351
-2.70274
0.61143
0.0269809
-0.281486
0.254505
1.71031
-1.37615
-0.334162
-4.28214
6.32469
-2.04256
-1.84693
0.158106
1.68882
0.123269
-0.311815
0.188546
0.254827
0.571083
-0.28051
-2.32009
1.60728
3.29923
-4.90651
2.02845
0.591653
-2.6201
-3.31611
4.92338
-1.5598
1.80086
-0.241058
-3.12856
6.06577
-2.93721
4.22065
0.653185
-4.87384
-5.96118
3.20392
2.75726
-0.779343
-0.0316754
0.811018
3.52332
-2.44712
-1.07619
-1.96864
4.28315
-2.31451
6.17327
-3.44529
-2.72798
-1.33925
1.4898
5.40256
-2.70552
-2.69705
3.50307
0.268699
-3.77176
-0.148957
0.923813
-0.774856
-4.61474
2.11445
2.50029
1.45051
1.26032
-2.71083
0.142016
0.982808
-1.12482
0.423237
-0.568949
0.145712
5.62029
-5.61208
-0.00821139
3.70694
-1.40924
-2.29771
1.74942
1.95753
2.48433
3.10742
-0.894459
2.25476
-1.3603
3.14031
1.31147
-4.45178
4.19216
-0.689098
0.528969
4.72572
-5.25469
3.24119
-5.48324
2.24205
4.27228
-3.04622
-1.22606
-3.01471
-2.04304
5.05774
-0.235529
-0.715675
0.951204
1.81986
-0.592983
-1.22687
-1.67659
-0.345543
-0.438055
4.11832
-3.68026
3.71084
0.387845
-4.09869
2.78097
-4.74961
4.77078
-2.84939
-1.92139
0.32467
-1.62294
1.29828
2.30403
2.46675
0.294712
-3.94109
3.64638
0.405442
-0.282173
2.85719
-0.682933
-2.17426
4.00358
0.209615
-4.21319
0.165976
-0.103121
-0.062855
-1.67983
0.471396
1.20844
2.06998
-0.888924
4.39598
-4.49032
0.0943377
0.132897
0.0330791
-0.0895065
1.90936
-0.657901
-2.51996
3.17786
-0.302823
-0.73099
1.03381
4.4353
-1.12281
-3.31249
3.29574
-3.7338
0.231356
4.20394
1.02735
-1.84974
-0.838224
-1.48105
2.31928
0.853291
-2.9653
2.11201
2.55526
2.90209
-5.45735
2.22448
-1.7047
-0.519786
2.92499
-2.63027
-6.34538
1.15403
5.19135
0.0575612
1.16116
-1.48492
1.66996
-0.185037
1.29206
-3.11535
1.82329
-4.03601
0.180808
3.8552
2.57505
0.383702
-2.95875
-2.08988
1.94679
0.143098
-3.5557
-0.541407
4.09711
1.73772
-0.316761
-1.42096
0.99519
-1.39089
0.3957
-0.384066
-2.00474
2.3888
1.38778
-1.49473
0.10695
3.71799
0.906561
-4.62456
-1.66216
0.10236
-0.439952
0.473773
-0.0338209
2.94563
-1.49511
0.406886
-0.104467
-0.302419
3.69654
1.70602
-1.11843
-2.05181
-0.0754009
-0.364551
-0.832437
4.54328
-0.196933
-1.28799
-0.361239
0.768126
1.07865
3.0195
-4.09816
2.5028
-4.24815
1.74534
-1.73268
-1.12781
0.971543
0.156272
-0.692211
0.858518
-0.166307
3.05249
-2.19916
-0.85333
-1.19476
0.959227
3.09377
-5.51432
2.42056
-0.394831
0.787285
-0.392453
0.127298
-0.826586
0.699288
2.89454
-0.866088
4.46405
1.70922
-2.86964
2.21174
3.37672
-4.61573
1.23901
1.21115
0.49916
-1.38286
1.70753
-1.85085
1.48151
0.369337
-2.11193
0.242884
-1.39929
1.15641
2.96289
1.30938
2.71515
-3.4847
0.769551
3.99022
0.519694
-4.50991
-5.51094
4.204
1.30694
0.0381417
-2.57772
2.53957
4.47634
-1.51345
0.34659
1.90817
0.562372
-0.811167
0.248795
-0.587141
0.400937
0.186204
2.844
2.01971
-4.86371
2.95965
-2.89197
-0.0676791
-1.03482
0.432223
0.602598
-0.791562
-0.336252
5.21405
-1.83733
-1.56187
1.64938
-0.0875077
3.18119
-5.76393
2.58274
0.7924
-3.80711
2.8324
1.0364
-3.8688
3.30301
-2.44971
5.09272
-0.60974
-4.48298
3.13501
-4.92458
1.78957
5.21043
-3.33146
-1.87897
-0.319381
1.07564
-0.756263
-0.236016
5.44231
-5.2063
5.27874
-1.05809
-4.17
0.132487
4.03752
-2.29696
2.02885
0.268111
4.91029
-2.35503
0.853373
1.37111
-3.10286
3.8651
-0.76224
-4.01956
4.97695
0.0617106
-0.987995
0.926284
0.397661
-0.485258
0.0875971
-0.093634
-0.88971
0.983344
5.84965
-2.47801
-3.37164
6.92801
-3.4331
-3.49491
-1.06883
0.975197
1.87166
-3.46401
1.59235
0.523377
-0.10014
-3.87866
-2.29758
3.41193
-1.11435
-3.3326
2.40003
0.932571
-0.0978565
-0.0629621
0.160819
2.24538
2.96506
-0.363812
-0.223329
0.891223
-0.328851
-3.52032
0.417462
-3.66917
4.65228
-0.983112
-3.20648
3.69636
-0.489885
-2.88397
-2.11056
4.99452
-2.18303
1.38979
0.793236
2.28504
-2.33762
0.0525745
4.9159
0.118467
-5.03436
0.0349755
-3.70564
3.67066
-1.72149
4.55389
0.932918
-2.62605
1.69313
-2.31824
5.41201
-4.0877
2.63709
1.45061
1.36372
-1.65467
0.290951
2.41413
-6.21367
3.79954
-4.8883
1.75974
-2.99288
-2.10555
5.49693
-3.28061
-2.21632
-1.2639
1.40591
0.814067
-0.868634
0.0545666
-3.73522
-0.647106
4.38233
-4.44423
6.14402
-1.6998
4.40962
-3.29076
-1.11886
0.475727
-1.32839
0.852668
-1.40791
-2.21877
3.62668
1.67962
-1.76568
-2.25385
2.29199
-3.71095
-1.14366
4.85462
0.568305
0.136487
-0.704792
0.726272
-3.02386
0.0351937
-0.814536
4.33597
-0.345753
-0.771621
0.622664
-0.869214
1.03272
-0.163509
1.60542
4.24423
-3.87577
2.46786
1.04089
0.0744707
-1.11536
-3.42658
0.642792
2.78379
1.33235
3.07727
6.47701
-4.06288
3.74663
-6.32789
2.58126
0.800469
-4.34463
3.54416
0.152025
-1.99895
-2.37537
3.45403
3.2558
-4.80654
1.88431
-3.75978
1.87547
-6.49016
3.75423
2.73593
-0.0753334
-2.01455
0.866442
0.645607
-1.51205
3.51729
-1.17224
-2.34505
-0.0774864
-3.81914
3.58313
-1.20272
-0.359146
3.21706
5.41967
-4.40308
-1.01659
-0.0459832
-0.636716
0.682699
3.27244
0.673743
-3.94618
1.35286
-1.02306
-0.3298
-0.994686
3.46653
-2.47184
-2.1783
3.47036
2.73062
-1.79771
-0.396855
1.05455
-0.657692
4.89288
-1.71168
0.543811
-0.0594407
-0.48437
0.57412
-0.69738
0.12326
-0.655592
0.684006
-0.0284147
5.43472
-3.38135
-2.05337
1.23328
-5.6775
-0.729345
0.073753
-4.31051
1.43878
2.87173
6.40624
-2.12308
1.24254
-4.91171
6.53217
-2.89307
-3.6391
-0.0867696
0.655075
3.89518
-2.07091
-1.82427
-3.04281
0.713255
2.32956
-4.8129
4.89428
-0.0813737
1.46758
-4.69521
3.22764
0.309153
-0.465231
0.156078
-2.31782
3.13393
-0.816108
-0.9614
1.50916
-0.547764
-0.71357
0.318738
-0.835524
0.143314
-2.61432
-1.63383
1.94279
-3.89485
1.95206
1.75629
0.353858
-2.11014
1.9717
1.55161
3.40986
-1.52555
0.0426213
0.35504
3.65502
2.75122
-2.47077
0.0633405
2.40743
1.62038
2.2748
1.838
0.757899
0.0875021
1.66878
-1.36084
-0.093462
1.4543
-0.313965
1.67768
-3.66435
2.66967
-0.839885
0.5954
0.244485
-4.46231
4.31462
0.147685
-1.61872
2.61001
-0.991288
-1.08925
-0.504722
1.59397
3.77369
-4.1095
0.335808
-4.0075
-2.48266
6.37007
-3.99207
-2.37801
-0.512017
0.466034
5.13899
-3.67141
-2.06308
4.00587
-0.952924
-0.677937
1.63086
4.05459
-0.98775
-3.06684
5.85769
-1.94217
-3.91552
-1.84612
0.893201
4.07815
-2.40434
-1.67381
-0.819059
3.8962
-3.07714
3.89208
-5.74125
1.84916
1.97173
-0.480074
-1.49165
1.74686
-0.775938
-0.970925
6.40723
-5.3583
-1.04893
-3.04655
-2.46439
3.60282
1.81685
-4.05996
-0.402346
0.420549
0.153571
0.405705
-2.84257
2.43687
0.0164375
0.79763
-2.72041
5.56441
2.15736
3.27736
5.95381
-3.58115
-2.37266
-5.34928
4.20562
3.51994
-5.95166
2.43173
-3.11732
-0.210988
3.32831
-1.09027
-0.872683
1.96295
2.92433
-1.05267
0.0228243
1.01807
2.52623
-0.0972761
-2.34985
-3.36792
4.51425
-1.14633
-1.02718
0.15797
-0.350398
-0.0464566
0.662213
-5.47511
1.6432
-3.8215
0.45694
-1.21676
1.51718
-0.300428
0.0392593
0.0868761
-2.50096
1.90112
0.59984
1.67858
1.37391
0.752748
1.72842
-2.48117
2.44819
0.511458
-2.41616
2.82186
2.82699
-0.251944
-0.990033
-2.43655
4.96702
-3.92029
-1.04674
4.27228
-3.58673
1.1452
2.44153
3.89677
-4.26161
0.36484
-2.16546
1.78139
-0.622634
-0.412186
-0.56593
-2.98977
1.35929
-2.60351
1.24422
2.05668
2.02147
3.42224
-5.63187
2.20962
1.06684
-2.5809
1.51406
-4.87738
0.841368
0.050912
1.68681
-2.79623
4.25321
-1.45697
-1.25774
1.48701
-0.229264
-1.93466
-0.543668
-0.586369
-1.08544
1.67181
0.429165
0.01364
-0.442805
-1.61052
-0.686433
1.89483
2.23911
-4.13394
3.59529
-1.97491
1.30267
-2.26114
0.095683
2.22665
-1.15982
-3.24421
-0.843486
1.07424
-1.81353
0.739284
4.78261
-1.6423
-2.24686
3.67442
-1.42756
-0.556318
0.616653
-0.0603353
3.495
0.02229
-0.844869
-1.9977
-2.42324
4.48814
-2.0649
3.08582
-5.62757
2.54174
2.96035
3.40973
1.5975
-1.66251
0.0650108
0.454515
-3.57183
3.27476
-4.91308
1.63832
0.603227
-0.90605
-0.372178
3.08733
-1.74281
3.38602
-3.44437
4.24484
1.07074
-5.35287
-4.35294
2.31836
2.03458
3.08913
-0.444141
-2.64499
4.61682
-0.843131
-2.20696
-2.59787
-2.32719
2.57246
-1.55831
0.164343
1.39397
1.54605
-1.38794
-3.47984
3.10766
4.44059
1.1797
-3.83383
1.58698
5.20674
-1.60392
-0.204767
1.32192
-1.11716
0.148932
-3.14949
3.00055
-4.49412
0.845565
3.64855
4.22967
-4.22967
-1.35354
3.34862
-1.99508
2.79052
-2.03778
3.32919
-2.01855
-1.31064
-4.6095
4.80671
-0.197211
1.61091
-0.216338
-1.39457
1.28027
-0.547402
-0.732863
0.523929
-1.61318
-1.21172
2.12879
-4.19187
-4.17813
4.8765
-0.698369
-1.39019
3.28503
0.743285
-0.105906
-0.637379
-0.552615
0.543431
0.00918432
-1.8669
2.01893
5.81661
-4.76479
-1.05182
-0.373295
-2.62389
2.99719
-1.06974
1.19818
-0.128439
0.56791
-1.34402
0.776112
-4.86179
1.84011
3.02169
-0.0775446
0.0570923
-1.07947
0.874699
0.277408
-0.598425
0.321016
3.05201
3.35522
0.428347
0.314938
-0.217332
-1.46185
1.67919
-2.47725
3.92206
-1.44481
-0.149582
0.614136
-0.464554
2.09606
-0.993412
3.52946
-1.10404
-2.42542
-5.22828e-05
-2.00468
0.726708
4.18919
2.08751
1.45759
-3.5451
2.24372
-2.04051
-0.203213
-5.08968
0.919678
-2.10434
0.880495
1.22384
2.33614
2.99613
-5.33228
-3.11928
2.90829
0.37142
-4.52608
4.15466
-0.620448
1.09617
1.37554
-1.6971
0.321562
0.0959341
-1.45678
0.00427324
-0.794759
0.790486
-3.29177
-1.01874
3.05448
0.632564
0.104129
-0.736693
-0.541567
-0.014751
0.842553
-3.53633
2.69378
1.24706
2.65488
-3.90195
1.91578
-3.5519
4.37217
-0.820268
-3.57906
2.76
1.07794
0.722924
-1.94851
-1.38409
-1.22326
0.35204
0.871219
-4.24558
1.76833
3.32561
-3.69891
2.10926
3.09748
-1.41696
1.4451
-0.0281379
2.18235
-5.15584
2.97349
0.698497
-1.30446
0.605964
2.08869
-2.93356
-3.12346
-0.083024
-1.47003
-0.209797
-0.0363582
0.799179
-0.762821
1.80912
-0.120617
-0.319341
0.439958
5.03154
-2.6954
-2.4009
4.33597
-1.93507
1.28173
0.87319
-2.15492
-1.79218
1.17173
-0.991599
-0.23166
1.93922
1.38996
-1.00257
-3.61316
2.01801
-0.943763
3.08166
1.99446
0.832535
-4.50406
5.03303
0.555408
-2.28915
1.73375
-0.44422
-4.10682
4.55104
-0.946056
0.899171
0.0468845
-0.615038
-1.56799
-1.96514
5.85723
5.3195
-2.18449
-2.17591
-0.325047
0.0848846
-2.0431
1.95822
2.00563
-4.8896
-0.654638
-2.32219
2.97683
-0.190971
-0.0710575
0.262029
-3.25796
0.273607
2.98436
4.66661
-3.35514
-0.122388
0.398078
-0.27569
-1.02064
-0.0491076
0.855233
1.72365
-2.57888
0.679515
-0.831599
0.152084
3.21227
1.7621
-4.97437
-1.87509
5.59309
0.441948
-0.0127832
-1.42507
-2.70277
4.12785
1.67668
3.53736
4.69467
-3.44761
-1.64422
1.05785
0.787028
0.959834
-2.24787
5.76781
0.706523
-3.85849
3.15196
4.41658
-0.717771
-3.69881
-2.41327
3.5316
-1.11832
1.96321
-2.23062
-1.99427
4.22489
0.399987
-0.456786
0.0567996
-1.44937
-2.38703
3.83641
-0.0659277
-0.486687
0.10084
-0.198696
2.52099
-3.97036
-3.53743
-1.05581
4.59324
-0.324449
-2.34819
2.67264
1.47729
6.50765
-6.68249
0.174847
0.992319
-0.736634
-0.255684
0.0458998
-1.46286
1.2652
1.12361
-1.51183
0.421566
-3.92404
5.00671
-1.08267
-0.574296
-0.265589
1.45799
1.84502
-4.37043
-1.24164
-0.743877
1.41581
-0.671936
2.65911
-0.664649
-0.96548
1.05822
-0.0927358
0.274394
-1.23579
-5.79024
2.79736
4.60766
0.985872
-0.65088
1.21879
-0.958026
2.23976
4.10506
-1.97627
-0.987122
0.0216418
-0.503484
-2.97635
0.99866
1.09637
-1.03465
-4.56869
0.0745695
0.895496
1.01863
-0.32013
-4.6667
3.18269
1.48402
3.72469
0.671287
0.856045
-0.250113
-0.605931
1.31413
-1.22509
-0.0890361
-4.24715
1.54163
-4.979
2.55576
-0.228791
0.886359
-0.657568
-0.302994
0.805994
-0.503
5.34109
-0.00855503
-5.33254
0.914184
0.0628467
-0.97703
-0.657345
-1.1935
1.06226
-0.0670725
1.56304
-1.59257
0.0295288
1.84721
-0.297765
-1.54944
-0.10524
1.66828
4.115
-3.20844
-0.149279
-0.660177
0.809456
-5.0897
1.16566
-0.279131
-0.675782
0.600381
-0.388185
1.02075
-0.0282785
0.0708998
1.15912
0.753789
-1.91291
2.07667
0.780521
2.17452
-1.61911
1.03067
-0.903376
0.294572
-1.55232
2.99437
-0.0473875
-2.94698
2.63055
-0.118814
-2.51174
-2.6899
-2.23469
-0.546977
-0.977561
1.52454
2.00361
-2.16885
0.165245
5.35435
-0.102888
-5.25146
-1.46276
-0.699805
2.16256
-2.44809
3.22471
-0.776612
2.78334
3.1733
-5.95665
-0.681043
-0.941902
-1.27323
2.06163
-0.788398
1.00381
0.467615
-1.47142
-5.68094
2.98326
2.69767
-1.4275
-0.165068
-4.22022
0.682786
1.40497
-0.888976
-0.515995
2.43206
-3.058
0.625931
-0.39102
-0.925796
0.940706
5.56694
4.08687
-0.655308
-3.43156
-4.26445
0.712545
1.64125
-2.63128
3.61994
-5.66052
2.04057
-0.440826
1.30727
-0.0646661
-1.86659
1.64925
-0.750776
0.99366
-0.705622
-3.97446
4.68008
2.03875
3.10024
-3.60069
3.85519
-0.254503
-0.377563
0.341205
-2.99132
-1.26825
-0.545892
0.602373
-0.0564809
1.63576
-1.3188
-0.316953
0.264344
-0.144744
-0.119599
-0.320964
2.75303
-4.03697
-0.444368
4.48134
-3.81152
-1.15945
4.97097
2.35595
-1.72183
-0.63412
-1.0933
0.128352
0.964946
-1.74247
-0.249979
1.99245
-4.95991
0.277384
4.68253
0.156457
0.841423
-0.997881
3.94048
-4.46844
0.527952
-2.60315
4.84434
-0.453622
-4.39072
0.0302283
-0.57612
-0.617414
-2.57037
3.18778
2.94036
-5.2586
-4.71994
4.10828
0.61166
0.821443
-0.141928
3.38726
-1.92927
-0.188886
-1.37872
1.56761
-0.0507404
0.828424
-0.777684
-0.98465
4.5056
-3.52095
3.90062
-2.02657
-1.87405
4.97079
-4.77847
-0.192321
3.87666
-1.47641
-2.40025
0.243514
-1.05367
0.810153
-1.3418
-0.0574983
-4.80547
4.22684
0.578629
0.305861
-5.11133
-1.28599
2.41805
-1.13206
-2.91846
-2.43984
0.883578
-0.790465
-0.0931129
-3.9932
-1.0965
-0.838004
0.532256
0.305748
0.752774
0.600089
-4.59123
4.36705
0.224185
-1.03488
-1.14824
0.41725
0.975279
-0.0610955
-2.98595
0.668128
0.580387
-0.747792
0.167404
-3.66264
1.51337
2.14927
1.68806
-0.0771519
-1.22161
3.25113
0.243864
1.72469
0.163655
1.10172
-1.26537
-0.440812
2.72585
-2.93012
1.88351
1.04662
-1.47515
0.047645
4.99275
-2.954
4.45191
-2.26956
-1.21589
-0.731192
1.94709
2.08314
-4.1915
2.10836
2.69105
-3.0155
4.79666
-2.1269
-2.66975
-0.0251377
-2.46901
-0.461113
-4.61035
3.82064
0.789703
0.774946
-1.58776
5.33438
-5.1885
1.1953
1.77867
0.193054
-0.436499
-1.10512
0.705938
-0.0219317
-2.42255
-2.49619
6.09403
-2.79829
0.230924
1.37737
-1.6083
0.321642
0.958623
-3.23402
-1.9001
5.13412
1.3705
1.55382
0.00807014
-0.641268
0.633198
4.08675
-1.22266
-0.362634
1.58529
3.00515
-0.0107839
-1.74632
-4.98029
0.802165
-1.01006
0.0559323
0.954132
2.80672
3.72545
1.96256
-0.899968
-1.0626
4.80513
0.165661
2.94124
-4.13624
1.195
-4.04462
-0.108483
4.1531
-3.88262
5.04769
-1.16507
0.595606
0.000913274
-0.596519
-2.2459
5.18627
-1.52496
0.895588
0.629375
0.214414
-3.8151
1.00139
-0.206721
-0.794666
-4.67726
6.15349
-1.47623
-1.14765
2.55994
-1.4123
5.79908
-2.55153
-3.24755
-0.0536613
-2.93683
2.99049
-1.53359
-0.163514
-2.51287
5.29622
2.01427
-3.36781
5.52795
-2.44213
-0.844016
0.694737
-4.29734
0.252727
5.96275
-2.54051
-0.109436
-6.23594
1.10416
-0.121354
1.60554
2.47994
-4.08548
2.69464
-0.57897
-2.11567
4.44198
-4.67205
0.230076
-0.83081
0.0498725
0.780937
-0.93754
-2.33466
3.2722
1.68472
-1.39015
-1.80757
0.677742
1.12983
0.592187
1.42537
-2.01755
0.389473
0.494105
-4.35563
5.16827
-0.812636
-0.668899
-0.277157
2.14855
0.972832
-3.12138
3.007
2.32172
-5.32872
0.705125
2.38401
-0.113882
5.2066
-0.00357521
3.89984
-3.89627
-0.153101
0.00351905
0.579201
0.10392
-0.683121
4.45383
-4.48541
0.031583
2.20428
2.59238
-0.415668
0.424839
-0.00917158
-1.4448
3.99637
-2.55156
0.0932845
0.696279
-0.789563
2.41536
-3.98501
1.56965
-2.48198
-3.17402
5.656
4.14223
-0.869786
1.50046
1.19418
-2.02507
-0.5072
2.53227
1.34314
-3.96703
-1.44555
-0.167747
1.61329
0.897787
-0.410503
-0.487285
-0.207052
-1.32653
-0.35988
4.20902
-3.84914
-0.826498
5.55222
3.83125
-3.0695
-0.761745
3.09019
-2.70649
-2.57155
0.772658
1.79889
0.427072
-2.44562
-0.23403
0.412552
-0.178522
0.236015
0.62003
0.751518
3.63487
-4.38639
0.966769
0.880438
0.581929
-4.39345
-2.02721
0.867612
1.1596
-1.53209
-1.13515
2.66724
2.24663
-1.08751
-4.15428
2.76409
1.50187
-1.10906
-0.392814
-2.15565
3.97249
-1.81684
-2.09244
2.09239
-2.03148
2.66285
-0.631369
-2.68512
4.26531
-1.58018
-0.102661
0.974022
-0.871362
-0.783643
0.480648
-1.34442
-2.81569
4.34348
-1.52779
-2.64024
3.28304
2.5198
-2.49024
-0.0295585
1.19497
-0.914982
-0.279989
-6.17547
4.16299
2.01247
-0.214897
1.33968
-1.12478
0.171411
3.40522
-4.38987
3.95234
-1.8692
-1.79845
-2.55449
-3.51696
3.51338
2.45549
-0.0554544
1.91861
0.620743
-2.53936
-1.49663
1.36755
0.129078
0.81677
-0.902226
0.0854566
-0.428746
-1.60608
2.03483
-0.762483
2.33205
-1.56957
-3.65165
-1.29726
4.94891
0.676554
0.518416
3.9723
0.48153
-3.82506
2.60713
1.21793
1.48156
-2.1875
0.705938
0.0277079
0.748486
-1.01928
0.270791
-3.18511
-2.49382
2.06507
0.603676
0.902922
-0.659408
1.35053
0.285228
-0.00928474
-2.56843
0.124953
1.26282
-0.873795
1.00776
-0.13397
-3.09803
-2.2695
5.36754
-0.353224
-1.67185
-2.46316
-0.518775
2.98194
0.623926
0.821137
-1.44506
-0.015681
5.51133
-3.51726
-1.99408
0.839866
3.247
0.490574
1.48884
-1.91296
0.424114
-2.13897
5.01226
-2.87329
-2.74386
-1.28821
4.03207
-2.1211
0.847873
-2.04087
-0.530681
5.65309
-2.33406
-3.31903
0.970644
-1.41329
0.442648
1.92196
0.213951
-2.13591
-0.717262
0.873719
1.93677
-2.37072
0.433948
1.83542
-0.123816
-0.945016
-0.0605752
3.41012
2.24297
-1.79586
3.91031
-1.98455
5.18847
0.0444334
0.926211
-4.21043
1.46657
3.50336
-3.04884
-0.44853
-3.0239
0.575803
0.932702
-2.21869
3.60659
-3.45766
4.02935
-0.132583
-0.918091
-0.472799
-1.34134
-0.380323
1.72166
-1.32795
-0.166775
3.63346
0.654248
-4.28771
0.174884
-1.21777
1.04288
0.064575
1.555
-3.86114
2.30614
4.29295
-0.352469
-4.51082
4.89007
-0.379247
1.04699
-0.575598
-5.34059
-0.834878
-1.53022
4.35453
-0.127683
1.94942
5.51622
-1.98949
-3.52674
-3.17509
-0.164873
3.33997
1.09455
2.46423
-3.55879
-3.40458
0.146619
-0.817823
-0.714977
1.5328
-2.30394
3.01047
0.618168
2.55626
-3.17443
-1.87973
2.46106
-0.58133
-4.7778
0.610432
4.16737
1.56668
2.38567
-1.05266
2.73746
1.1392
-1.50132
-0.603014
3.87063
-4.48037
-1.96956
-1.14432
3.11388
0.579123
-1.26017
3.28521
0.239419
-3.52463
3.29259
-5.27714
0.18176
0.127393
-2.94376
2.71631
0.227453
-3.09949
2.48208
-0.0736914
1.25135
-1.17766
-1.92325
0.41318
1.51007
1.21607
-1.83111
-1.19449
2.83574
0.615346
-0.844137
-0.672135
0.702363
0.522617
-1.54568
-0.0398285
-0.425403
-0.871041
0.82981
0.0412307
0.89118
-1.02342
0.132239
-3.27981
2.157
0.68348
-3.14664
-0.0312795
-1.23262
0.102723
2.70381
-2.80653
1.46523
-1.55869
0.443801
-3.79386
3.35006
-1.34884
3.43875
-2.08991
0.908648
-4.27657
-0.357282
-0.127716
-4.59222
2.71762
3.37641
-3.6553
-0.498978
-2.42861
-1.15812
-1.86833
0.782889
1.51043
0.0823604
-1.59279
5.86364
-3.05692
4.28148
-1.00672
-1.09857
-0.676169
1.77474
-5.73682
2.44671
3.29011
-1.96744
0.201819
0.5611
4.28324
0.695945
-0.441118
-2.12592
-0.286457
-1.23851
1.46346
-1.73866
0.275204
-0.589166
4.22263
0.718453
0.687163
-1.40562
3.23389
-6.31949
2.81779
3.50169
1.11795
0.895153
-2.0131
2.91507
-1.34304
-1.57203
-2.40167
1.25402
-2.93678
0.0839385
1.83802
4.42642
-4.87064
1.84255
-0.838741
-2.00323
3.34637
-4.5597
3.28583
1.27388
2.59374
-4.19668
1.60294
-3.43816
3.59199
-0.153833
2.10621
-2.54702
0.052772
1.16856
1.18739
0.517762
-3.48306
1.44027
-4.58946
2.44571
2.14375
1.11594
-4.29103
3.51168
-0.22333
-2.81948
0.575887
1.10552
4.98802
-1.64198
-3.34605
-1.46565
1.20152
-2.73361
0.673672
-4.67825
4.51338
-3.77736
1.54674
2.34834
-3.44611
1.7877
1.65842
-4.02196
2.61576
1.4062
-1.12294
-0.318541
0.12757
-4.70998
3.30228
1.4077
2.97231
-5.21821
-4.31169
-0.0439374
5.58504
-1.9651
1.41075
0.338687
-1.74944
-0.109344
-0.670293
0.779637
-1.43756
2.31242
2.61265
-2.13196
-1.31415
0.844003
0.840719
1.10384
1.63398
-2.73782
1.66901
-1.02341
-0.184346
-5.32927
5.51362
-1.53418
2.07728
-3.79877
-3.34127
-2.15865
5.49992
1.11219
-1.42895
-3.17115
0.980216
2.19094
-0.00539712
0.0977943
-0.0923972
4.27382
-4.97944
-0.96846
-1.9753
2.12285
2.14189
-4.26474
-0.957165
1.18809
-3.8485
1.08432
2.76418
-5.58919
3.10721
2.95058
-5.08955
1.90815
-3.87771
0.0705141
-0.0759112
-0.153757
4.57034
-2.91057
3.59302
-0.68245
4.57461
0.00330525
-4.57791
-3.33764
-0.102692
-1.11406
0.22976
3.99991
0.46637
0.150283
1.3975
0.459614
2.33091
2.38644
0.0272503
0.789519
-4.29895
-0.292282
-3.00493
1.38828
-3.45919
0.751024
0.871751
-1.62277
3.9406
0.143966
-4.08456
-0.446082
0.446995
-1.54882
-3.43018
-3.69531
-0.5663
-2.06936
5.36195
-1.593
2.11622
-0.523221
-4.46582
1.36778
-1.23899
2.34283
-1.5795
-3.08721
-2.02592
-1.51781
1.57038
-2.16244
-1.5002
5.07008
-0.715557
3.02601
-1.46715
-1.55886
0.585993
0.468554
1.10053
4.84472
-4.4733
0.0490355
-0.99881
1.39451
-2.34054
2.40388
-2.0566
-2.35361
0.969992
0.750009
-1.72
-4.29746
0.0677878
-0.564696
3.58916
-3.02447
-0.240849
-4.26998
-3.30665
3.98039
6.62901
-2.9242
-3.70481
-0.601024
1.48152
3.85625
-2.10972
-1.74652
1.13753
-1.26134
0.386952
0.192249
-0.844
0.110129
0.733871
-0.583611
2.50222
-2.29649
5.2688
-0.178586
-0.611879
-1.22535
-0.308403
1.53375
-0.12267
4.39649
-0.287235
2.18342
-1.89618
-1.72747
2.58271
2.06375
1.93261
-1.51845
-0.508759
2.35119
-0.873212
-1.47798
-0.620022
0.493592
0.12643
0.695524
-3.8413
3.14577
-4.35954
0.664225
0.964145
-2.09577
3.48405
-0.0415943
1.17912
0.511435
-2.10443
-4.75408
2.42689
-4.9836
1.5505
-2.07537
0.208471
-2.01099
-2.64001
4.651
-4.26027
0.265763
1.63634
-1.9021
4.71488
-3.56086
3.83243
-2.73788
0.759334
2.4687
-3.22804
1.07622
-1.89404
-3.14368
-0.66975
3.81343
-0.0193505
0.796605
-0.777255
-2.09299
4.85587
-2.76288
3.81072
-2.38382
-1.4269
3.6406
0.127262
-3.76786
-2.66222
-3.65727
-1.50546
0.0354208
1.67972
2.79662
-0.0957486
0.361619
-0.26587
-3.09754
-0.750958
3.50139
2.82331
-2.46604
2.92945
-0.463409
-1.63807
1.27543
0.430746
1.68591
-2.11665
1.26099
-0.542532
-0.489241
-4.22074
-3.89163
1.40298
0.0988921
-0.80208
0.837273
0.2733
3.53689
-3.81019
-2.34946
-0.636485
2.16646
1.42883
0.319284
-1.11085
-0.843538
0.185462
0.658076
0.463087
-1.64928
1.18619
1.36593
1.24408
0.920013
3.80454
-1.74786
4.18018
-2.10291
-0.450508
-1.12117
1.57168
3.53714
0.359059
0.168865
-3.03898
2.10144
3.28001
-3.40268
-2.59741
-2.77821
5.37562
-3.06357
-2.67325
-5.31645
5.5343
-0.21785
0.643761
-1.81281
1.43249
2.55446
1.25008
-0.575467
-0.366486
0.941953
-1.46285
-3.02747
-0.234229
-3.28677
3.521
2.40335
-1.03284
-0.0131309
-1.43242
2.68401
-4.23283
2.22179
-1.63014
-2.9666
6.57719
-3.61059
2.89976
2.34097
1.3046
-3.64557
5.31922
-3.03861
-2.28061
-2.14883
-3.2064
5.41823
-2.21183
1.51705
1.50896
-1.22694
1.18535
1.97461
3.82447
-0.913304
0.80396
0.259825
-0.380442
4.5413
-2.52159
2.11949
3.74415
-1.75657
0.901312
0.855257
0.97591
-2.19181
3.54404
-0.258831
2.30332
-0.892568
-3.17956
-0.610925
3.79048
0.800961
-0.176938
-0.624023
0.564199
0.42812
0.697952
-4.58058
-1.20895
1.30489
3.31024
-2.88089
-0.429358
0.717041
1.63415
-0.597747
0.347634
1.05253
1.05058
-2.10311
-2.4029
5.18387
1.20963
-2.71133
5.48198
-2.77065
-1.34535
1.93754
-2.33901
0.459277
5.07448
-2.48887
-1.57109
1.52348
1.39159
1.29445
-1.32573
-0.772286
0.669625
-1.30434
-0.567226
0.0256586
2.14548
-0.638047
3.77012
-3.13207
0.532139
-0.25473
-1.80101
0.422291
-1.3862
-0.11925
-4.34281
2.91774
1.0191
1.04253
-0.512025
-0.737248
1.24927
1.25612
0.413842
3.91409
2.02133
-5.93543
-0.34122
-0.128478
0.469697
1.13984
-3.54074
4.35524
2.27377
3.62295
-3.34965
-5.45427
0.55525
-0.23307
-0.596424
2.18641
2.15264
2.98994
-5.14258
1.58706
-0.121838
-0.182447
-1.40735
-0.349221
-2.27023
-2.15251
2.57958
3.02642
1.30955
2.6253
-2.70209
0.0767905
0.805704
0.024106
-0.294876
1.06231
-0.171129
3.5383
0.969335
-4.50763
1.73282
-0.269364
-0.947175
0.559281
0.387894
-1.44599
-0.00626121
1.45225
1.17811
2.86114
-4.03925
0.996819
1.24981
3.19292
-0.0896152
-1.10514
2.90399
-2.44437
-0.259684
0.32314
-0.063456
-4.58803
2.48248
3.88321
-3.13146
-0.751751
0.0738717
-0.604106
0.530234
3.94345
-4.30333
2.57898
-0.175634
1.7666
2.06583
-0.467414
-0.0998118
-2.45853
0.862488
1.59604
-2.71192
-0.505522
4.99174
-2.55724
-2.4345
2.55892
-0.497297
-2.06163
1.81407
-3.0907
1.27663
-0.180666
2.27925
-0.0525962
-1.55234
3.36891
-1.81657
-1.42906
-1.02947
-1.6586
-0.475366
1.16253
4.57785
-0.00944315
-4.5684
-1.39127
-0.875349
0.00155457
0.357844
0.0669955
2.93326
-0.21695
-0.79917
1.06351
-0.170078
0.429698
-0.748001
0.551067
-1.73163
2.49096
0.0726979
1.02367
-0.679195
-1.46233
3.43403
-0.248363
2.87366
-0.775443
-0.436968
-1.03589
2.08842
-0.800648
4.17179
-3.37115
-3.71947
-0.500748
-2.77684
4.25826
-1.48141
-1.40227
0.926908
1.30883
-0.265378
-0.0850696
-0.995585
1.08065
-3.69522
1.20634
0.381531
-0.503919
2.28444
-5.51846
1.69016
-4.39293
-1.28972
4.58895
-2.05067
2.16653
-1.11595
0.0481512
-2.85787
3.5534
-0.0111534
-0.625563
0.720179
-2.44201
-0.407466
-2.71156
3.11903
0.312063
2.03842
5.98238
-3.95315
-2.02923
-0.898334
0.323715
0.956699
0.0843912
-1.04109
-3.58407
0.673498
0.739287
0.158501
-0.0533308
-0.474912
0.528243
1.74963
-4.52648
0.367278
1.97378
0.107543
-2.08132
-4.61582
3.81517
0.620256
0.150848
-0.771105
1.46248
-4.27817
-0.523616
-0.0413061
0.564922
0.808939
-0.188682
-0.0834154
3.1115
-2.40638
2.68192
2.10262
-1.1058
-4.75153
1.41027
-2.96585
2.34712
0.618727
2.63425
-5.23166
-2.16757
-1.3068
3.47438
0.380355
1.64849
-1.23371
1.01738
5.11897
-0.758762
-4.36021
-0.0206434
-4.27831
3.35087
0.289723
1.79753
2.05872
-0.59568
-0.0455881
0.592707
-1.20838
-1.39512
0.560148
-0.596636
0.0364871
0.0435517
-4.76556
4.72201
-0.158288
1.15861
-1.00032
1.73969
-4.21829
2.4786
-0.511755
-2.38022
-0.179213
0.240808
2.93866
-1.44192
-0.804928
2.24685
-1.50569
-1.78608
1.84093
-1.09092
1.66568
-1.32907
-0.33661
-1.58979
1.07777
-3.37791
-0.56188
-0.0834174
0.645297
0.468765
1.34091
-1.80967
0.53626
-3.58521
3.04895
0.0257621
-2.34586
0.79381
-5.47107
-1.86984
-3.36746
5.23731
-4.23508
0.213181
4.0219
-5.70265
-3.4893
0.0511432
-1.13513
1.1828
-0.047671
-5.34997
-1.53297
5.07126
1.55175
-0.797957
0.335655
-1.37155
-0.698749
1.94856
0.603166
0.301654
-1.527
0.0728768
-0.657498
0.584621
-0.721335
0.401955
-0.432962
0.506834
-1.07606
2.19401
-4.25705
2.64715
1.6099
-1.29011
1.31293
2.62435
0.767759
0.0332023
-1.11252
0.537055
-2.06435
-1.1068
-2.26343
0.805945
1.45748
0.61619
1.05159
-1.66778
-1.64548
2.10856
-0.310692
3.09448
3.4213
-3.70854
2.42221
-3.92791
1.86154
-2.57719
0.715647
0.364558
0.0335202
-1.64983
-0.0126809
-4.60839
2.5974
0.610982
1.94794
0.0533118
-0.807126
0.753815
-6.80568
2.78612
-0.573737
-0.123643
-0.783262
-0.0946794
-0.871146
0.965825
-2.33466
0.892738
-4.5257
4.03646
4.62241
-2.49956
-0.979564
0.880719
0.0988458
0.458866
0.956947
-0.576947
-4.57993
1.4898
3.09013
-0.541431
0.412953
-0.392337
1.35107
-0.958732
1.85725
0.721725
0.606105
-0.713447
0.107342
-1.06974
1.14244
0.139025
0.464202
2.45475
-3.67287
4.47126
0.333869
-2.50865
-0.606694
4.16597
-0.0854756
-4.0805
-0.763701
0.415922
0.347778
2.41552
-4.83808
0.290977
1.64054
-1.93152
0.254956
-0.441423
0.186467
-4.33364
4.30772
0.0259218
-2.11211
2.55591
2.94464
0.955982
4.10208
-1.49167
-2.61041
0.0358042
-0.239062
0.203258
-1.86294
-1.27473
-0.067062
-1.2273
-0.0474331
0.0349238
-1.42145
1.38653
-0.384303
4.14674
-3.76243
-3.82687
1.50162
2.32524
1.21082
4.13027
0.145137
0.0438877
-0.189024
2.44261
1.06477
-3.50738
0.370895
1.13953
-1.77501
4.36498
-2.58996
-3.77388
0.594321
2.95394
1.18257
-3.35015
-0.0110297
-0.49631
0.50734
4.78483
-1.34992
-3.43491
1.86637
0.888953
-5.10637
2.61018
4.97294
-5.15729
-2.21998
0.565496
1.65448
-0.829705
-0.480809
1.78376
-1.30295
-1.11036
0.873421
0.236937
-0.0500626
0.4901
-0.440037
0.153158
-0.311829
0.158672
-2.38746
5.07147
-1.2044
1.28929
0.545768
-0.938106
1.51678
-2.26388
0.747097
-2.60182
-1.95788
-2.10261
0.360139
1.61762
0.0103333
-1.62795
4.36128
0.276676
-4.63795
0.525006
2.78524
-0.942859
-0.553774
-2.37674
0.333637
2.67451
1.51785
-4.19236
0.069185
-0.194841
0.125656
-0.100174
1.4143
-0.0583612
1.86901
-1.81065
4.85027
-2.03103
-2.81924
-4.76582
0.791363
1.54262
-3.14599
0.491626
2.65436
1.59131
-3.33413
-0.440423
-0.235359
-1.62907
-0.0207564
-3.399
4.5754
-1.17641
0.557168
0.138777
-0.393453
0.0816376
-0.981042
0.802455
-2.06031
1.3605
-2.52474
3.27227
-0.747536
3.02092
-1.70428
-1.31664
2.87986
-1.51393
0.943896
0.254286
-0.937939
0.771632
-0.0850008
-1.6197
1.63407
-3.66065
-3.39593
1.84358
-2.23175
1.98178
0.554746
0.254193
0.14996
0.104996
3.84133
-3.86493
0.0235998
3.56927
-2.08615
0.773687
1.31246
0.368786
-1.3676
-1.25401
-3.87145
-0.982969
0.806031
-0.667755
-1.12953
1.79729
-3.35957
0.719329
0.996963
1.66065
-2.65761
0.437728
-0.457078
-1.18978
-2.86809
5.18982
-0.281493
-2.78535
1.09952
-2.12407
1.02455
-1.0382
1.35748
-2.59889
-4.20679
-0.259064
-1.66419
2.85401
-4.45718
3.96578
0.491404
-0.0700463
-1.2692
0.0750698
-1.39627
1.3212
-4.24219
-2.08569
-0.619156
0.57785
4.34511
2.1319
1.2105
3.57211
-3.32811
-2.29946
3.9603
-0.211808
-3.74849
2.87436
-2.88365
5.38566
-3.57969
-1.80597
1.2866
0.775922
-2.06252
-2.35418
3.44468
-1.0905
-6.61514
3.545
3.07014
-0.170138
0.973137
3.576
-2.44723
-2.93791
5.38514
3.34793
-1.75661
-3.27468
-0.1299
2.34723
-0.62845
2.07504
-1.44659
-2.65582
4.40545
-5.18957
0.437718
-3.04521
2.60749
1.73332