/*--------------------------------*- C++ -*----------------------------------*\
| =========                 |                                                 |
| \\      /  F ield         | OpenFOAM: The Open Source CFD Toolbox           |
|  \\    /   O peration     | Version:  2306                                  |
|   \\  /    A nd           | Website:  www.openfoam.com                      |
|    \\/     M anipulation  |                                                 |
\*---------------------------------------------------------------------------*/
FoamFile
{
    version     2.0;
    format      ascii;
    arch        "LSB;label=32;scalar=64";
    class       volVectorField;
    location    "1.3";
    object      U;
}
// * * * * * * * * * * * * * * * * * * * * * * * * * * * * * * * * * * * * * //

dimensions      [0 1 -1 0 0 0 0];

internalField   nonuniform List<vector> 
13486
(
(6.88816 -0.941181 2.88307e-20)
(8.15966 1.67134 1.2916e-20)
(12.549 0.273221 0)
(0.176144 -1.19897 -8.71771e-21)
(10.9154 -2.64459 1.02209e-20)
(12.2196 0.798089 1.8547e-21)
(12.2698 -2.30025 1.93495e-22)
(9.3141 -3.37713 -1.60946e-20)
(9.24019 -1.78558 0)
(9.96074 3.85489 0)
(-8.93446 7.94372 -1.27262e-19)
(12.5085 -0.428444 0)
(5.97439 -1.67339 -2.90203e-20)
(12.2285 3.86849 2.53454e-21)
(11.6014 -1.99586 4.9591e-21)
(9.63671 4.00488 -7.37454e-21)
(3.35137 -2.89134 3.59478e-20)
(5.38214 -2.06571 -4.81425e-22)
(11.5682 -0.230129 1.16064e-22)
(7.74589 -0.112365 -2.86677e-20)
(0.71088 -2.9663 -3.4444e-21)
(6.073 -1.73601 3.73871e-20)
(8.32843 1.62601 -1.03465e-20)
(16.2788 -6.0733 0)
(10.3361 3.25399 2.21738e-21)
(15.6391 -5.72014 -1.23906e-20)
(-12.0966 8.92669 6.30023e-20)
(13.2922 -0.642045 2.65723e-20)
(9.98113 0.298337 0)
(12.3383 -2.13977 -1.65519e-20)
(1.89179 -3.81345 -2.30042e-21)
(12.1349 -1.49691 -5.6223e-21)
(16.2518 -0.933624 2.56505e-20)
(11.1925 -0.618259 0)
(9.31719 -3.21529 0)
(9.37761 0.00630812 1.97955e-23)
(8.89017 0.886847 -1.37321e-21)
(7.28271 -3.35364 1.53458e-20)
(8.25695 -0.529395 -8.31635e-22)
(9.32891 -1.08074 1.45025e-20)
(11.2211 -3.90507 0)
(5.2958 -2.46338 -3.44169e-20)
(10.3751 0.0307446 0)
(10.2447 2.68852 -1.12221e-20)
(10.2267 2.69084 4.55512e-21)
(12.507 -0.478986 3.40978e-21)
(0.574372 12.4183 6.70707e-20)
(9.93133 0.271191 -8.22718e-24)
(8.91362 0.87997 1.05641e-21)
(13.7616 0.167365 1.27113e-20)
(9.88407 0.128811 1.52794e-20)
(8.59091 -0.177312 0)
(12.718 -0.948282 -4.29004e-21)
(7.6985 -2.74173 -2.20652e-20)
(5.73106 -2.62012 0)
(10.8087 -2.68758 -6.76074e-21)
(10.5363 1.50832 -4.08766e-23)
(8.69987 -0.253829 -3.35798e-21)
(15.8842 -0.89795 2.93985e-20)
(8.65599 1.59063 0)
(-9.70796 3.1143 -1.5643e-19)
(8.75981 1.51032 0)
(18.5272 5.38652 -2.37522e-20)
(0.918189 -2.89356 -3.60733e-23)
(7.19381 -8.73792 0)
(8.96502 0.95227 -6.44286e-22)
(-1.08628 -0.649265 -1.06031e-20)
(6.8536 0.70674 9.53157e-21)
(9.23352 -1.89456 -8.46496e-21)
(9.00563 0.0778614 7.45078e-22)
(-0.958623 -0.694623 1.22434e-20)
(5.46314 -2.36153 -6.75064e-23)
(9.46571 -0.610603 1.06554e-20)
(-8.30892 -5.75487 -4.47018e-20)
(9.02361 1.22771 -1.12684e-22)
(10.5995 1.47989 1.89551e-23)
(9.0923 1.1953 3.46755e-22)
(11.5974 -2.08718 -2.04579e-21)
(0.029162 13.7494 -4.72801e-20)
(8.70894 -2.21462 0)
(9.78087 0.0892578 -6.08131e-23)
(8.08271 2.10241 -8.3125e-22)
(16.1878 5.57327 3.63616e-21)
(12.932 0.30873 -4.27694e-23)
(6.79421 -0.969557 -5.61872e-20)
(7.45164 9.08084 0)
(7.06225 -1.7655 -2.26934e-21)
(9.98612 0.36106 -2.29229e-20)
(9.33257 1.14668 -1.04817e-20)
(9.00613 5.34027 -7.68368e-21)
(12.4369 -1.31325 -2.70118e-21)
(9.83454 -2.91233 -8.33284e-21)
(7.08127 -1.31801 7.42331e-21)
(8.08196 0.537632 7.34194e-22)
(8.54103 -2.56151 3.51364e-21)
(9.90256 0.242131 4.14081e-24)
(-13.2934 9.05086 0)
(-3.46425 -1.43341 9.25075e-21)
(9.40726 -1.0654 -2.76775e-20)
(-0.0915791 2.96974 2.71365e-22)
(9.82113 0.0267893 0)
(12.1029 3.88446 8.08934e-22)
(-3.58586 -1.84495 1.45456e-21)
(8.52752 -0.193628 3.92964e-21)
(6.74685 8.73735 0)
(-1.69786 5.73572 -2.46414e-22)
(9.79073 0.265925 8.39249e-23)
(8.23834 -0.65481 -1.95e-21)
(0.245304 13.5965 5.21812e-20)
(9.46229 -4.36125 0)
(7.96878 -3.75501 0)
(12.1086 -1.90687 -5.21586e-21)
(7.7464 -2.64811 1.82097e-22)
(10.5777 0.896442 1.33134e-23)
(5.09983 0.0453734 0)
(7.7529 -3.65618 -1.35155e-20)
(10.155 3.37002 0)
(11.3406 -0.551845 0)
(9.38369 -0.594718 0)
(9.07812 0.732954 -5.11408e-22)
(5.60736 -2.13241 2.82244e-22)
(-11.0387 5.6522 0)
(8.39878 -2.25991 0)
(8.19492 -0.564457 2.65822e-21)
(8.78363 -3.06965 0)
(8.61023 -0.158431 0)
(10.553 -1.29621 3.175e-22)
(10.9252 0.553746 2.92327e-21)
(10.3488 -0.241793 -2.33371e-21)
(8.05928 -7.07099 -7.02751e-21)
(8.56725 -0.0454279 -3.98925e-22)
(-0.116815 11.6959 -1.66438e-20)
(4.77074 -1.73837 7.45637e-20)
(-4.26608 2.03723 4.73717e-20)
(9.9291 0.0948802 -2.53933e-21)
(9.25011 2.38341 -1.12448e-20)
(5.28419 4.26128 -7.76783e-21)
(9.14701 -4.11367 0)
(9.14953 0.686346 1.59429e-22)
(9.40167 -2.67928 -5.60916e-21)
(15.0591 -0.00138401 -2.54379e-20)
(12.7896 -1.04817 3.5763e-21)
(12.1288 -1.16606 0)
(8.65178 -2.15712 0)
(10.8848 0.113566 1.1608e-22)
(20.8879 3.51631 -8.39131e-20)
(11.2742 -0.710535 2.25552e-21)
(-5.79313 9.00244 0)
(13.839 0.243617 0)
(10.0097 0.30724 0)
(10.2145 0.0412269 2.07967e-22)
(11.5163 -2.34699 0)
(9.80222 0.0656085 6.3646e-23)
(7.69962 1.97384 -7.04096e-21)
(10.8735 1.76953 0)
(12.9149 0.320374 0)
(9.31023 -4.17197 0)
(1.93018 -0.753986 1.73181e-23)
(8.1851 -3.20152 3.19438e-20)
(9.70594 5.23593 -1.33353e-20)
(13.2616 0.197675 8.01441e-21)
(8.21771 -3.10447 -4.79977e-20)
(12.8172 -1.2941 3.75376e-22)
(4.824 -2.37574 1.51584e-20)
(8.70609 -0.217831 0)
(12.8116 3.90596 -5.48661e-21)
(11.7074 3.50479 -1.93344e-21)
(1.66221 -0.0725232 -3.5545e-20)
(11.4361 0.122149 -5.08655e-21)
(-4.24902 2.37633 1.29853e-20)
(4.82639 -7.29702 -5.87961e-21)
(10.8329 1.60323 2.77564e-21)
(9.94281 0.372315 -1.7642e-20)
(11.2355 -1.12434 4.74252e-22)
(9.79008 0.160604 -3.48633e-23)
(-5.18768 -9.71076 0)
(12.3032 5.70717 7.16745e-21)
(15.7264 0.4564 3.48582e-20)
(9.69429 0.196601 -2.59418e-20)
(12.2467 -1.08068 0)
(9.50286 -1.31091 2.96135e-20)
(10.6426 0.834504 5.51515e-23)
(11.7164 -1.16353 -2.48423e-22)
(-14.6634 6.61507 0)
(13.2737 0.144319 -2.77059e-22)
(12.6108 -0.474799 -1.20796e-20)
(10.192 0.255866 -2.68693e-24)
(11.9815 -1.38524 -4.89456e-21)
(10.9082 -3.98461 0)
(7.14798 -3.43533 -1.8093e-20)
(8.989 0.819927 0)
(11.8154 0.276316 0)
(8.73507 -0.543552 0)
(6.91196 4.6942 -1.46652e-20)
(8.83167 -0.637618 0)
(-11.5998 10.6681 -3.39815e-20)
(7.45279 -7.59731 1.60137e-20)
(13.4572 0.171521 4.39211e-21)
(6.56804 -3.19613 -6.83509e-21)
(12.6214 3.61548 -2.55387e-21)
(1.77486 -4.05399 2.43901e-21)
(10.9191 0.629409 -8.39029e-23)
(7.19939 -3.41358 -1.77828e-20)
(10.204 -4.21675 3.65114e-21)
(9.59807 5.31628 1.59844e-20)
(8.9397 -0.660879 -2.7727e-21)
(4.71389 -2.50298 -5.12113e-22)
(9.28587 -0.113177 2.16416e-20)
(8.66288 -0.545863 0)
(13.0282 0.210868 0)
(12.8178 -0.74745 1.74308e-20)
(13.0353 -6.99645 1.92712e-20)
(7.9302 -0.056223 2.63239e-20)
(9.31858 0.288044 8.54485e-23)
(12.2849 1.04575 -2.13888e-21)
(9.50746 -3.09167 1.7208e-21)
(12.6906 -1.94779 0)
(9.11462 4.92618 2.14732e-20)
(7.32265 -1.47675 0)
(15.3836 3.59613 0)
(1.16335 1.40645 -6.96735e-20)
(13.9414 0.363551 0)
(9.3265 -2.64456 1.31935e-20)
(13.4594 0.239627 0)
(12.7724 -0.898562 -7.17039e-22)
(6.21536 -2.84591 1.07409e-20)
(12.7977 1.91089 -4.07465e-22)
(-0.123276 -7.16356 3.02698e-21)
(9.51143 -2.05289 2.57047e-22)
(7.95183 -1.57444 1.82197e-22)
(9.56171 -1.30485 -9.4848e-21)
(8.9251 -2.79168 6.38438e-21)
(15.2852 -0.237567 3.19641e-20)
(5.12326 -2.35254 1.17622e-20)
(-1.77523 -3.67755 0)
(6.04202 -2.9258 1.27073e-21)
(11.5416 -1.07797 8.15411e-21)
(11.8955 0.207679 -1.43937e-22)
(6.159 -2.9277 3.49085e-20)
(11.6711 -0.72324 0)
(16.2798 -1.54796 0)
(10.0475 0.384519 2.71745e-20)
(10.9155 0.579172 0)
(5.92712 -2.91474 1.16474e-20)
(7.75728 -0.655907 -1.86299e-21)
(9.01072 0.476074 0)
(12.0538 -0.281513 -1.85473e-21)
(14.0661 -3.91737 3.52254e-20)
(-2.20224 -2.00251 7.18071e-20)
(10.0854 2.50309 0)
(-10.2454 -0.583507 -9.68944e-21)
(4.95108 0.193123 4.18822e-21)
(7.30267 -3.56885 1.73056e-20)
(8.24215 -0.702041 0)
(9.04562 -1.91858 1.96188e-21)
(-5.98399 -10.0499 1.03455e-20)
(12.1723 -1.51942 4.46181e-21)
(9.38159 -3.13774 -2.17449e-21)
(2.49742 -2.67582 -1.81354e-23)
(16.3036 -1.35637 2.10937e-20)
(8.9649 1.22654 0)
(7.73066 -0.603825 5.32813e-23)
(11.5853 -2.00801 -1.15551e-20)
(-5.99844 -8.09637 -1.29184e-20)
(10.4029 -3.50572 -1.08804e-20)
(-15.3468 6.99003 0)
(9.57514 -1.99537 -4.53862e-21)
(1.24956 -4.07606 -3.65518e-21)
(10.1105 -0.0291421 -1.23004e-20)
(6.62023 -1.61305 0)
(7.41371 4.9551 1.04883e-20)
(9.83703 0.307863 -6.99047e-21)
(12.5947 -2.02759 0)
(12.6932 -0.719961 2.53692e-21)
(6.42723 -3.00494 1.43532e-20)
(13.55 -3.69637 -1.96426e-20)
(9.03987 -1.77311 0)
(5.65984 -3.8834 0)
(8.28662 -0.854102 -2.0645e-21)
(11.5907 -1.85361 -3.70065e-21)
(6.14283 -4.21954 4.20004e-21)
(10.2699 -0.951066 -1.05195e-20)
(9.6543 0.413634 1.53921e-20)
(22.3506 -6.21606 -4.73764e-20)
(-12.475 6.19693 1.63189e-19)
(-6.72849 9.41644 8.38942e-20)
(15.1386 0.382172 2.85299e-20)
(10.5075 -0.328566 3.06873e-21)
(14.1958 -0.861464 6.92456e-22)
(10.0205 -0.0674989 0)
(-1.37478 -3.39396 0)
(7.00137 0.982963 2.01282e-21)
(7.65181 -3.58869 1.35141e-20)
(10.0515 0.140646 -2.45276e-21)
(11.4328 -1.05117 7.55665e-21)
(11.7087 -1.20599 0)
(12.7798 -0.0427598 -1.03222e-20)
(12.7283 -0.557962 -1.76918e-21)
(9.64002 0.310886 -1.41374e-20)
(12.004 -2.96443 4.15379e-21)
(9.74102 -0.711491 -4.7851e-22)
(4.93396 -2.51097 9.90094e-23)
(12.1926 -0.90393 3.15372e-21)
(12.0816 -1.53741 5.34269e-21)
(8.967 0.603973 2.80091e-22)
(8.88732 -4.38174 0)
(-0.0993782 -0.548619 0)
(11.1406 -0.303885 3.74502e-21)
(7.84343 -1.93449 1.71252e-21)
(9.01668 0.894393 0)
(10.5029 7.50886 -7.14361e-20)
(0.376626 -0.771182 0)
(11.7017 5.68221 -1.79112e-21)
(12.4472 -1.86138 -5.05519e-21)
(13.7154 -0.768739 0)
(9.53575 2.1183 -6.85565e-21)
(6.78027 1.25375 -2.96713e-21)
(9.21564 1.11216 -8.9651e-22)
(9.12854 -0.115542 -2.37635e-20)
(9.82212 -2.08135 0)
(8.95299 0.991891 1.15275e-21)
(7.43724 0.46306 -9.80922e-23)
(9.79398 0.264464 3.25281e-21)
(8.07732 0.827349 -1.36996e-20)
(2.47272 4.5201 1.41994e-20)
(12.6338 -1.32025 5.1398e-21)
(10.6271 -1.87598 -3.0243e-20)
(10.3147 -0.908788 0)
(13.0357 -0.48243 1.32428e-22)
(10.8222 -1.99801 -5.70414e-21)
(9.99153 0.117609 3.31856e-20)
(9.94586 -2.94755 0)
(12.0555 -1.26359 -1.02984e-21)
(6.96445 2.21438 0)
(11.8882 -2.40398 -9.07888e-21)
(8.92379 -2.41389 -9.54215e-21)
(3.66733 -1.55653 1.41609e-20)
(11.4646 -2.43319 -8.33051e-21)
(10.1695 0.941307 0)
(7.56666 -0.607299 -3.00187e-21)
(9.77343 -2.01332 4.95135e-21)
(8.26484 0.881567 1.29548e-20)
(10.857 -2.0518 2.18047e-20)
(11.6416 -1.17311 9.35129e-21)
(-16.1836 4.59253 -7.59528e-20)
(9.92779 0.251035 2.13129e-23)
(10.8787 -1.01605 0)
(4.66699 -1.28904 3.34964e-20)
(15.2821 3.43866 0)
(6.76037 0.746925 2.11804e-22)
(10.8159 -0.580988 1.71592e-20)
(12.9091 -0.569023 -1.27841e-21)
(12.6482 -0.673483 1.77036e-21)
(-14.2966 9.27403 -8.41502e-20)
(9.61821 0.330812 1.76993e-20)
(9.50805 0.138941 0)
(-5.40984 -3.97085 -4.43587e-20)
(10.587 -1.32093 -6.3073e-21)
(7.7983 -1.69446 -1.19706e-21)
(12.7258 -6.13603 1.70109e-20)
(12.9277 -0.201865 0)
(12.9712 -1.29283 3.31768e-21)
(8.73217 0.970479 2.74889e-20)
(9.6867 0.392045 2.11294e-20)
(12.3361 -2.24586 0)
(9.84651 0.0245722 1.30426e-23)
(11.66 -1.16627 -7.65826e-21)
(-0.289877 9.10429 8.70341e-21)
(7.61074 0.00978157 3.66636e-21)
(10.5531 -1.09349 6.01594e-21)
(10.8374 0.0635062 -4.95331e-23)
(10.7648 -0.928225 0)
(12.5912 -0.773173 -1.63155e-21)
(-11.0721 -0.671724 1.36151e-20)
(12.121 2.17695 3.01438e-21)
(10.0082 0.113557 1.27744e-20)
(8.31187 0.00586645 0)
(7.13067 -0.00123254 -3.58345e-21)
(17.7892 -1.85311 0)
(17.4124 4.44783 -1.8716e-20)
(10.1492 -0.00817263 0)
(9.93059 -3.36258 -2.86378e-22)
(6.45115 -0.349773 -7.92252e-21)
(7.81048 4.1265 2.52164e-20)
(0.750916 9.22701 -2.96561e-20)
(9.12904 -1.7627 0)
(11.3646 0.391229 -1.81204e-22)
(10.0885 1.09521 -6.86979e-21)
(6.2908 -0.716069 -2.56187e-20)
(2.18888 -2.84867 2.71136e-22)
(8.23254 -0.220697 -3.95675e-20)
(12.8955 -1.84445 8.52762e-21)
(10.322 1.01099 4.2793e-21)
(6.88037 -1.89881 0)
(6.65616 1.79617 1.49839e-20)
(9.27168 0.669923 -3.98109e-22)
(-0.336143 -0.805487 5.16448e-21)
(-11.6502 0.254144 -4.41548e-20)
(5.41356 -0.900979 -4.62325e-20)
(15.1839 0.466946 0)
(6.4657 -1.31318 0)
(10.4626 6.28057 0)
(10.2592 -0.359622 0)
(2.68487 -2.62675 -1.89004e-21)
(11.9234 -2.28419 0)
(7.5538 -1.15875 0)
(8.0986 0.720827 5.38535e-21)
(15.6925 0.497191 -3.58174e-20)
(10.6655 -0.878236 -1.40635e-20)
(8.22565 1.79281 4.43474e-20)
(10.0101 0.199427 -3.38139e-21)
(12.0028 8.87534 0)
(13.3699 -1.42867 0)
(9.50383 0.411385 1.51013e-20)
(9.79704 0.0298836 2.57026e-21)
(6.18524 4.78918 0)
(-14.1988 6.03617 6.77751e-20)
(10.2574 -3.55873 1.22049e-20)
(1.12785 -10.4338 0)
(11.6715 -0.728099 9.0368e-21)
(9.81825 0.280573 -1.72721e-20)
(4.40264 -0.970757 -9.49123e-22)
(4.65013 -1.22457 0)
(9.96562 1.00373 1.31713e-20)
(13.0064 1.06124 0)
(11.8668 -1.30194 0)
(11.1227 1.11335 -3.80534e-22)
(9.54826 0.419485 8.04436e-21)
(-11.7597 8.47466 -8.25029e-20)
(11.6368 3.44262 3.65554e-23)
(6.31047 -1.30792 -1.41736e-20)
(10.1583 -0.307423 1.8245e-21)
(10.4384 1.1191 3.21498e-21)
(13.8059 -0.76623 4.06592e-21)
(10.6609 -3.52068 0)
(14.2471 -3.31694 1.79362e-20)
(6.55515 0.0224604 0)
(7.07907 0.549849 1.86409e-21)
(11.2202 -1.14542 0)
(6.96099 0.742836 2.02639e-20)
(-0.905162 6.85321 -6.32805e-20)
(13.0258 -1.74893 0)
(-0.519272 3.75305 2.23155e-21)
(13.5089 -1.62757 -1.93972e-20)
(8.51645 -2.74398 -4.21883e-21)
(8.59087 -1.20131 3.83301e-20)
(7.23967 4.065 -1.56153e-20)
(6.30971 -1.30002 -4.03342e-20)
(17.9134 4.81731 0)
(9.08542 0.685181 5.7045e-22)
(-14.9827 4.77389 -1.89616e-19)
(10.06 1.09835 0)
(9.13859 1.2401 9.822e-22)
(13.3574 0.0371268 -2.70589e-21)
(13.6197 5.44324 0)
(9.96639 0.041422 0)
(-8.38306 2.65135 0)
(-4.72194 -9.81308 4.05814e-20)
(20.3918 -7.91108 5.61205e-20)
(19.5603 1.79785 5.53183e-21)
(11.6112 5.37585 0)
(8.41267 -0.649355 2.58245e-20)
(9.77463 0.150075 5.72032e-23)
(11.6648 3.29813 6.47697e-22)
(0.610567 -2.1792 6.29654e-21)
(9.60244 0.884289 0)
(9.93743 0.278972 0)
(3.40056 -0.192828 -2.21488e-20)
(6.76908 -1.84519 -1.00522e-20)
(9.32318 -0.81034 0)
(8.72733 -4.08726 -1.3306e-20)
(9.93016 0.0726827 -1.91056e-23)
(9.90153 0.216043 -1.8899e-24)
(3.95275 -1.6223 0)
(9.41115 -0.360223 3.07328e-21)
(9.17295 0.63566 4.53524e-22)
(13.0488 1.03573 8.69747e-21)
(8.80996 -2.51322 0)
(-8.18752 11.0072 -1.28335e-19)
(12.8249 -0.580305 1.93213e-21)
(9.98811 0.541446 2.84069e-21)
(9.34109 0.166928 1.70945e-22)
(13.1083 3.73286 0)
(8.33178 1.84457 -1.17888e-20)
(15.0958 2.82152 -1.26107e-20)
(3.78663 -1.41775 1.04886e-20)
(9.97472 0.350167 0)
(2.02689 -2.9009 -2.78209e-22)
(2.14513 0.140427 0)
(10.0725 0.268725 -1.06441e-20)
(9.99423 0.352668 5.05384e-21)
(9.21518 0.312495 -2.97487e-21)
(-6.8601 -8.8043 0)
(12.9726 0.0651012 -3.89737e-22)
(5.19402 2.62964 4.02174e-20)
(10.6151 -3.50411 0)
(8.00885 0.547137 1.66631e-20)
(11.6957 -3.01204 -4.77698e-21)
(10.8653 0.112462 0)
(0.98197 -4.2925 1.99624e-21)
(8.62115 -2.0031 -3.70553e-21)
(10.8648 0.0445576 0)
(-3.45888 9.53369 7.19856e-20)
(9.13783 1.19402 0)
(8.27397 -3.71069 1.32709e-20)
(-9.53627 -1.77371 2.47456e-20)
(10.2183 0.296532 1.49994e-24)
(12.3369 0.883876 -4.68252e-21)
(6.56686 1.70787 7.95959e-21)
(8.55907 -1.31881 -1.40348e-20)
(9.19663 -1.60836 -2.05857e-21)
(8.34541 -3.6392 1.35689e-22)
(10.5192 -1.10544 5.74837e-21)
(13.0922 3.76509 1.10847e-20)
(10.0115 -4.53863 0)
(9.94409 0.0521741 -1.13185e-20)
(1.13526 -5.78161 -3.26962e-20)
(6.62696 -0.0425802 0)
(9.41347 0.832275 -8.91405e-23)
(8.94825 0.103259 0)
(5.75017 -1.33879 3.53918e-20)
(9.75728 -3.62193 0)
(9.68384 -0.0193629 -6.50922e-23)
(10.8672 -0.507825 -9.82536e-21)
(0.765463 -5.05654 3.83193e-21)
(-7.42887 1.68823 2.65985e-20)
(12.5826 -0.114984 -7.58356e-23)
(8.78658 -4.20808 1.28673e-20)
(8.33032 -2.25082 1.41485e-20)
(7.02813 -1.31627 0)
(-15.9716 7.5053 -5.47394e-20)
(10.7731 -3.34016 -2.46804e-21)
(-16.1466 9.07739 -6.5457e-20)
(9.91263 0.22474 -4.33769e-24)
(6.87948 -2.57242 0)
(10.9253 0.104422 -3.98574e-23)
(-14.9457 6.67307 0)
(-4.25165 -2.73147 1.57905e-21)
(5.18726 -1.36897 1.49538e-21)
(-0.713869 0.6988 0)
(9.76945 -2.54081 4.15282e-21)
(7.20279 -8.28164 0)
(13.678 5.30392 0)
(7.92844 -3.7337 -1.74297e-20)
(7.09615 1.83268 1.21458e-20)
(8.01562 -2.41597 0)
(8.95203 1.11108 -7.48823e-21)
(19.1095 4.01314 9.34136e-20)
(-12.2065 -0.175178 7.63561e-20)
(13.9583 7.2538 0)
(10.4847 0.0172378 0)
(-15.3589 5.90281 -8.9033e-20)
(9.11029 -0.441055 0)
(12.986 0.0862703 0)
(-10.3883 2.56605 -6.98215e-21)
(9.83909 -1.89904 -1.93728e-20)
(8.36423 -1.8898 1.19656e-20)
(16.4416 -2.01091 3.08007e-21)
(-15.8157 8.34958 1.1341e-19)
(9.90366 0.29841 5.85698e-21)
(7.14637 -1.46889 0)
(10.8515 2.533 -1.46674e-21)
(6.77828 -0.844846 0)
(12.5302 0.159982 0)
(9.96774 0.616795 0)
(11.1499 1.04309 -3.03664e-22)
(9.05737 -0.1143 1.09997e-20)
(10.9256 0.439592 -1.73627e-22)
(7.2196 -1.52422 0)
(-13.2005 8.33938 -6.36885e-20)
(10.1792 5.88516 1.42621e-21)
(8.83614 -3.14798 1.37366e-21)
(10.4223 -0.468732 -4.7783e-21)
(13.2377 -3.59258 3.00917e-20)
(10.2466 0.0926067 -9.96702e-21)
(0.198494 4.18685 0)
(12.6679 -0.57184 0)
(6.59302 4.67369 0)
(5.81322 -2.48476 -2.60536e-20)
(3.60789 -6.37468 -5.30757e-21)
(-0.794698 -1.49578 0)
(10.9982 2.53712 0)
(13.5653 -1.15619 2.14075e-21)
(9.87849 -0.0460377 -2.84594e-21)
(9.56891 3.38025 1.11072e-20)
(10.4355 -4.23354 0)
(-14.1616 10.2128 -3.28976e-20)
(11.649 0.439207 -1.21904e-21)
(6.58952 -1.65667 -2.39048e-20)
(11.0982 0.435814 -1.19077e-21)
(11.5365 3.24532 8.3081e-22)
(13.3831 -12.015 2.39218e-20)
(5.72639 -2.44577 4.49075e-20)
(9.16302 -4.37677 8.39212e-21)
(10.661 0.832626 4.86951e-23)
(9.89197 0.0549403 -2.91473e-21)
(7.83499 -3.83034 -4.03594e-21)
(8.587 -1.89045 1.63256e-21)
(8.17953 12.089 1.21316e-21)
(8.50054 -4.02222 6.935e-21)
(12.992 -0.273396 0)
(8.71328 -1.65481 4.67746e-22)
(10.5424 0.0296995 -7.37786e-21)
(14.386 3.71998 7.00138e-21)
(6.44731 -1.46649 -2.17704e-20)
(8.72481 -3.00331 -1.46472e-20)
(10.2498 -0.0670831 2.73453e-20)
(12.2011 -0.353896 -1.57147e-20)
(7.19682 -0.73914 1.01669e-21)
(15.1171 0.724653 -1.48985e-20)
(5.53607 -0.507653 -4.73422e-20)
(10.8978 0.0787309 -5.66044e-21)
(5.38625 -0.773091 0)
(-0.0647145 -6.65892 -1.27546e-20)
(10.2363 0.0685386 2.56541e-20)
(9.08801 0.0156467 5.53301e-24)
(-8.23234 -7.82345 0)
(9.08618 -4.16905 0)
(10.0731 2.2745 9.35372e-21)
(4.80094 -0.354052 2.93948e-20)
(7.0068 -12.7186 -3.02439e-20)
(10.0919 -3.36706 -7.5056e-21)
(10.6826 -1.93852 1.65991e-20)
(15.514 3.45412 0)
(10.1136 2.5349 4.9874e-21)
(5.07987 -2.23668 -1.12575e-22)
(12.6174 5.43324 7.54693e-21)
(9.45069 -1.19827 -1.67053e-20)
(-15.5663 7.66537 -1.80998e-19)
(12.9078 -3.43109 -2.89853e-20)
(14.6264 -3.63021 1.01838e-20)
(11.1856 6.3821 0)
(10.4241 -1.95102 -3.44889e-21)
(9.23664 0.286646 2.74016e-21)
(9.78986 0.0927072 -2.88095e-23)
(4.75047 -2.26838 4.16899e-20)
(9.35825 -1.22473 2.51651e-20)
(8.04297 4.78299 4.92994e-21)
(-12.4208 0.234526 -4.28914e-20)
(11.9301 -0.687498 -8.78466e-21)
(10.6117 0.1733 5.04781e-21)
(-12.9668 5.53415 -2.04691e-20)
(12.1197 5.39836 -8.26089e-21)
(-4.4257 8.9794 -7.82138e-20)
(6.28041 -3.00662 -1.37668e-20)
(9.8363 0.076963 0)
(10.6598 1.33517 -1.45151e-22)
(-9.26966 -3.71197 -4.90248e-20)
(6.39596 -0.507086 4.24161e-20)
(10.2841 0.260889 0)
(11.5378 -0.590119 -4.32535e-24)
(5.49365 -2.02581 1.01656e-20)
(9.98193 0.224486 -2.48947e-20)
(-13.9074 4.82063 -5.75029e-20)
(7.8814 -2.29779 -9.65318e-22)
(10.7384 -0.920973 9.63391e-21)
(11.3643 0.388675 -4.99372e-23)
(8.38306 -3.77802 -1.84116e-20)
(10.9627 0.607484 2.0299e-22)
(3.52213 -7.40806 -1.76421e-20)
(10.6021 0.0860295 6.91985e-21)
(10.1612 -0.25803 -7.85869e-21)
(10.6114 0.628269 -2.55066e-22)
(11.3318 -0.248841 -1.67497e-20)
(5.29121 -2.12034 -1.96429e-20)
(10.811 0.78473 0)
(-3.91112 -8.01838 1.88493e-20)
(10.2352 0.108243 1.92536e-21)
(3.83334 -0.49605 -2.50309e-21)
(12.3345 0.298721 -3.71976e-21)
(10.3995 -1.93164 -1.02999e-20)
(10.0946 0.131518 -1.87263e-20)
(10.4588 1.72561 2.5478e-21)
(-14.2658 6.18943 -6.96661e-20)
(13.038 0.191838 0)
(7.4072 -0.159257 1.80248e-21)
(13.1378 -0.526832 1.31029e-21)
(6.93061 -2.49081 0)
(10.5706 0.573501 3.86467e-21)
(13.1823 -0.407475 9.66941e-22)
(12.8074 0.225178 4.93271e-26)
(11.8649 -4.50032 -1.66787e-21)
(9.06375 -0.666914 0)
(8.77206 2.11537 2.13739e-20)
(9.92994 3.87764 -1.91128e-21)
(8.28882 -3.8915 1.49833e-20)
(9.84798 -0.78719 0)
(7.07145 1.86031 -3.52045e-20)
(5.8759 -1.76066 -2.80724e-23)
(12.5792 7.67993 -1.75684e-20)
(5.5807 -0.576976 4.63171e-20)
(10.6506 0.102025 2.02426e-22)
(-8.26178 2.37575 2.47855e-20)
(9.41409 -0.449444 -1.71759e-20)
(14.5741 -2.72111 -2.56548e-20)
(8.67198 0.928904 -1.58442e-20)
(10.663 0.114405 0)
(9.88367 0.150365 -1.10803e-20)
(-2.26743 -0.33559 8.41683e-21)
(-5.46985 1.74793 0)
(14.2328 -6.72189 0)
(9.79893 0.107245 0)
(2.66279 -2.73491 0)
(10.1989 1.71672 0)
(5.22973 -0.400568 0)
(9.87975 -3.12786 -2.16507e-22)
(20.5869 0.0739839 -4.73394e-20)
(12.8748 2.0244 0)
(8.64341 1.95497 3.18744e-20)
(6.78114 -1.76303 -1.33681e-21)
(10.3145 1.20847 3.08145e-22)
(-9.29857 -2.37541 -3.00267e-20)
(5.32536 0.775981 -1.0591e-22)
(-13.1539 5.55024 5.25362e-20)
(10.5495 0.0109685 -5.98655e-21)
(13.6509 0.0791949 1.75684e-21)
(10.146 1.63384 -6.45461e-21)
(9.36904 0.9987 -2.10326e-20)
(9.90928 5.49282 -5.96595e-21)
(18.048 5.62269 0)
(1.45488 -2.79974 8.96299e-22)
(5.82954 -1.41157 -3.87511e-20)
(10.1708 0.0408698 -3.35602e-20)
(10.937 -3.32479 -1.46102e-20)
(10.6017 -0.00571182 2.71378e-21)
(12.6563 -3.26249 2.39809e-21)
(10.2183 -1.51853 -2.17957e-21)
(9.84713 -2.5024 -1.44051e-20)
(9.96473 0.964009 7.12061e-21)
(9.96894 7.49389 0)
(9.08494 -1.44592 -1.90054e-21)
(8.08681 0.591274 -4.91425e-21)
(11.9362 -2.15893 0)
(8.39236 -0.734956 0)
(8.84044 -3.99473 -1.06935e-22)
(-7.25063 1.47613 2.35494e-20)
(9.73456 -3.20436 -8.83775e-21)
(8.56945 0.0797525 0)
(9.21505 -0.166094 -2.2455e-20)
(9.05701 1.31222 -4.09487e-21)
(-3.12861 -6.6958 9.21161e-21)
(13.2605 0.0328996 1.52904e-22)
(-12.4192 5.03316 0)
(1.14044 -2.82426 1.19569e-21)
(13.0986 -0.234301 0)
(10.3052 -2.00815 3.65303e-21)
(12.3334 -1.30389 -2.73001e-21)
(10.1516 0.119401 -9.36857e-24)
(11.7665 3.55547 3.44738e-21)
(13.6776 6.39149 -1.69617e-21)
(8.06666 -2.1491 2.92715e-20)
(3.24602 -2.97188 0)
(6.90496 -6.61311 -1.32388e-20)
(7.13073 -2.97775 0)
(13.1702 1.95377 -3.51053e-21)
(-3.23451 -6.59832 1.43728e-20)
(14.111 -6.66071 2.41602e-20)
(7.58084 -0.331751 -1.7655e-21)
(-5.78396 -10.9818 -8.70305e-20)
(7.46274 -3.4937 -1.73053e-20)
(6.03981 -1.44969 -2.25328e-20)
(9.18552 0.695655 1.41655e-22)
(7.43677 -6.31758 1.08028e-20)
(5.36928 -2.18228 1.61032e-20)
(6.352 -1.61457 2.44212e-20)
(3.61857 -6.03452 6.28443e-21)
(8.2721 -7.25007 -7.74593e-21)
(8.60537 -2.60052 1.45359e-20)
(-0.225741 5.57193 3.91066e-20)
(11.1416 0.226472 1.28738e-22)
(6.8586 -2.06767 1.1118e-21)
(11.6781 2.4144 3.68082e-23)
(10.7031 -2.74988 0)
(4.3118 -1.46171 -9.09289e-20)
(10.3919 -0.02218 -9.07301e-21)
(10.0102 0.667526 0)
(13.1027 1.82743 0)
(6.10724 -4.65787 -5.9445e-21)
(16.5934 -3.62075 -3.16194e-20)
(12.1305 1.27837 6.91099e-21)
(9.80896 -1.8384 2.54686e-20)
(9.63184 5.10186 5.95981e-21)
(9.22194 -0.0531633 1.74637e-20)
(-4.24683 -6.55258 -2.28641e-21)
(8.75745 3.45427 0)
(6.53147 -1.7932 2.33104e-20)
(-2.25334 13.9993 2.35879e-20)
(-7.08143 -8.09961 6.38458e-20)
(8.174 -3.04265 4.93483e-21)
(9.21428 -4.36101 -4.30113e-21)
(10.556 -0.0732125 8.6484e-21)
(8.09098 -0.477402 9.07622e-22)
(12.0363 -2.07504 1.74531e-20)
(-4.9041 -6.57396 -1.38242e-20)
(11.9864 1.19455 -5.12621e-21)
(9.60175 0.308976 8.82657e-21)
(5.36145 -0.753969 -1.90584e-20)
(9.31146 -0.29987 1.40809e-20)
(6.36441 -0.832381 0)
(12.1808 2.11383 -4.87723e-21)
(9.74341 0.166756 1.95811e-21)
(7.03316 -1.18498 -7.43706e-21)
(9.58242 9.1343 5.53609e-21)
(8.46487 -2.52149 1.07888e-20)
(10.0038 0.0113769 3.84942e-21)
(6.59774 1.05974 -2.73007e-20)
(12.1314 -2.18744 0)
(7.62045 -0.0848796 -2.95167e-21)
(11.0949 0.507518 1.61747e-21)
(10.0454 -0.694173 0)
(6.85214 0.612969 1.57308e-20)
(13.1256 0.0637735 0)
(8.56448 9.57065 -4.08158e-23)
(11.8472 -0.135768 0)
(9.0514 -1.57136 0)
(12.5413 -0.291651 1.7764e-21)
(12.0627 0.949738 -2.71788e-21)
(14.8938 1.41314 -2.22186e-20)
(9.49166 0.85064 -9.41825e-21)
(7.42569 5.81449 -6.46473e-21)
(9.92629 0.54799 -3.41613e-21)
(10.3966 1.7129 0)
(9.6136 10.3206 -7.7907e-21)
(12.5621 0.913469 6.12644e-21)
(10.1426 -1.99049 -7.47608e-21)
(10.7235 -2.73365 0)
(14.6594 3.66124 1.03308e-20)
(10.8759 9.02785 1.23226e-21)
(11.0918 0.165881 5.17433e-22)
(5.16291 -15.4854 0)
(-8.22459 0.534869 1.25675e-19)
(10.1633 0.932045 0)
(12.2938 -1.76734 -8.75752e-21)
(-1.94889 -1.98237 0)
(12.9581 7.23555 0)
(8.95113 -4.76472 0)
(9.57697 -3.58069 0)
(-10.3669 11.5497 -1.82053e-20)
(-3.26335 -10.3641 -8.1272e-21)
(9.03837 -0.132408 -1.64442e-20)
(0.333622 -5.37606 -5.22629e-21)
(5.82304 -2.33162 0)
(0.654169 -7.48911 -5.2045e-21)
(-4.0105 -2.11617 -7.12128e-20)
(7.41782 -3.42178 0)
(6.93767 -2.26576 -2.52051e-20)
(9.09818 1.34612 -1.38091e-22)
(11.5781 2.23441 -4.94465e-22)
(11.451 -4.03347 4.31533e-21)
(9.30598 0.891122 0)
(10.3283 -3.37527 0)
(16.4863 3.10954 1.04048e-20)
(8.59748 -1.77725 4.35975e-22)
(8.97031 0.665195 -5.32725e-22)
(6.12832 -4.53695 1.05443e-22)
(10.0013 0.0530809 8.17042e-22)
(10.6196 1.28028 1.00411e-23)
(10.0974 0.891496 1.00977e-20)
(7.32584 0.356922 1.55223e-21)
(8.94169 -2.35158 0)
(-11.6967 9.75281 0)
(10.9474 0.509263 0)
(9.24161 0.0915952 0)
(8.36471 -1.39024 1.04222e-20)
(14.4007 -0.152031 0)
(-10.4787 8.45492 2.60049e-19)
(12.085 -12.0318 -1.96233e-21)
(6.16246 -1.66401 -3.69161e-20)
(6.75967 -1.85978 6.59696e-22)
(-3.12399 -8.08955 -1.10244e-20)
(-4.78891 10.4548 -1.36847e-19)
(10.154 0.0981324 3.03966e-21)
(-5.98278 -6.55588 -1.93795e-20)
(7.26225 0.707693 2.39652e-21)
(12.5478 -0.269126 0)
(11.2986 -1.99511 0)
(7.65181 -1.66228 0)
(10.4139 -2.05606 5.46315e-21)
(8.02133 -7.97694 0)
(9.05934 3.42642 0)
(10.0697 0.0519959 0)
(8.44941 -1.88402 1.11695e-20)
(10.472 1.10398 -8.53195e-21)
(8.74875 0.0942982 0)
(10.3027 -3.08122 -8.58879e-21)
(9.97562 1.14311 -1.0531e-20)
(12.6069 5.16107 -1.62396e-20)
(7.48886 -3.39475 1.54588e-20)
(9.32581 3.76626 1.24113e-22)
(8.57477 -2.24974 -3.03474e-22)
(8.26981 -0.838863 2.02901e-21)
(9.22706 -1.981 -3.88443e-21)
(11.9254 1.0361 3.92602e-21)
(9.04945 0.635788 -1.02702e-21)
(8.97409 0.497831 -1.55406e-20)
(10.4302 0.036912 0)
(5.93675 -0.879639 1.90818e-21)
(9.61858 0.355094 1.56506e-20)
(5.35404 -2.28866 2.93245e-22)
(10.2013 -1.39392 -6.35193e-21)
(4.93983 -0.487333 -3.19742e-20)
(11.9386 0.818739 -7.20248e-22)
(15.3639 3.00178 1.82428e-20)
(10.047 0.410987 0)
(8.29288 -1.75253 6.73497e-22)
(8.43698 0.00206142 -7.6688e-22)
(9.35564 -2.01524 7.61269e-21)
(0.519278 -2.40731 -7.18422e-21)
(9.87801 0.0702455 8.3471e-21)
(10.9817 0.709961 -5.58045e-23)
(10.4919 0.107358 -1.51145e-22)
(10.796 0.424395 0)
(6.32466 -1.32529 0)
(6.98981 -3.29 1.90945e-20)
(-13.6667 4.51019 6.21154e-20)
(9.8375 0.0197763 -2.43013e-24)
(9.74069 0.33679 3.1316e-20)
(7.41383 -1.25795 -1.82934e-21)
(7.13835 1.65978 0)
(8.78532 0.6133 0)
(7.55008 -1.46451 -1.07031e-22)
(12.4772 -0.101675 2.59296e-21)
(9.68641 3.49927 1.45151e-20)
(12.1859 -1.07631 0)
(11.9772 0.121892 0)
(9.84668 -2.77901 2.05207e-20)
(9.68941 -0.693592 1.3322e-20)
(1.16844 -0.690483 -1.15447e-21)
(9.97991 -0.25396 0)
(11.3462 7.01651 9.78231e-21)
(11.2532 -4.02986 -3.73026e-21)
(-11.2679 -2.52899 -6.4322e-20)
(9.74911 -0.115334 -1.7992e-20)
(22.7329 0.666236 0)
(17.3323 -3.12903 2.50175e-20)
(8.70763 -15.6068 -8.08866e-20)
(0.884709 -0.541619 0)
(9.25878 0.1029 -6.4153e-22)
(9.50903 0.60633 -1.0272e-20)
(9.84392 0.0288713 -2.50559e-25)
(12.9478 -1.36092 1.43199e-21)
(6.89046 8.53324 2.11284e-20)
(10.6902 0.090391 0)
(4.74402 -1.40046 -1.98976e-22)
(8.53616 -1.14489 1.43623e-21)
(15.7513 -4.35833 -1.81992e-19)
(10.1173 1.65047 7.64336e-21)
(3.32076 -2.80875 1.44398e-21)
(9.97439 0.0724986 -3.9241e-20)
(7.94459 5.13757 -3.38354e-21)
(7.91489 -0.69376 2.05066e-21)
(8.35266 -1.72599 0)
(8.66528 -0.11521 -3.63553e-21)
(5.2109 -2.24696 1.3017e-20)
(10.8053 -0.517565 -1.89007e-20)
(9.7393 0.196907 -1.41513e-20)
(12.0263 -1.73023 7.90498e-21)
(8.17329 -0.578428 3.76493e-20)
(11.102 0.16314 -1.47524e-22)
(8.64921 0.684011 8.94228e-21)
(9.3702 0.868838 -3.41762e-22)
(16.4788 -2.1183 -3.45367e-20)
(12.2747 5.68733 -1.2279e-20)
(7.47691 -12.7438 2.34504e-20)
(10.1572 -0.106677 0)
(8.51089 -1.88848 0)
(4.99842 -2.89215 0)
(6.17565 -1.48989 2.83584e-20)
(10.2606 0.0196173 -2.24969e-20)
(8.98553 1.34449 0)
(7.13323 -1.29874 -2.20443e-20)
(8.8295 1.14282 0)
(8.42275 -1.22013 -1.71263e-20)
(10.0897 -2.07185 -7.92515e-21)
(8.87983 -2.17088 -1.58165e-20)
(10.8181 0.0784609 0)
(9.52813 0.234869 0)
(10.0493 -0.722598 4.29689e-21)
(12.8828 1.76425 4.05376e-22)
(13.5454 -0.385903 1.28781e-20)
(11.7406 9.1234 -1.30432e-21)
(12.238 -1.27044 0)
(8.18861 -2.91771 -8.17641e-21)
(-4.50631 3.25757 0)
(2.71721 4.01168 -1.47721e-20)
(13.9981 6.25792 0)
(10.8762 0.678573 1.00075e-22)
(5.60047 -0.384269 1.22884e-20)
(7.1243 -0.369737 1.21862e-20)
(9.9947 -0.331266 -4.28562e-21)
(11.3786 -11.0235 -7.89827e-20)
(9.45472 -0.813193 3.37631e-20)
(10.2352 1.72492 -3.22193e-22)
(11.5274 -3.21635 -2.841e-21)
(9.55967 -1.97888 -7.88359e-21)
(-3.97189 4.55121 4.25062e-20)
(13.0555 2.55915 0)
(9.88118 0.160166 4.13117e-23)
(7.16473 -1.5372 0)
(7.92713 -0.591317 -2.01209e-21)
(8.28512 -2.93161 -4.25448e-21)
(8.30328 -0.425532 -1.23833e-20)
(9.81695 -0.0145933 -1.44812e-23)
(13.2737 0.297706 -1.06908e-20)
(8.24758 -0.136171 2.52981e-20)
(11.8338 -0.618576 -6.17949e-21)
(8.98485 0.709014 0)
(-15.4008 9.41109 0)
(12.853 0.296322 5.64999e-23)
(14.9216 1.51903 0)