/*--------------------------------*- C++ -*----------------------------------*\
| =========                 |                                                 |
| \\      /  F ield         | OpenFOAM: The Open Source CFD Toolbox           |
|  \\    /   O peration     | Version:  2306                                  |
|   \\  /    A nd           | Website:  www.openfoam.com                      |
|    \\/     M anipulation  |                                                 |
\*---------------------------------------------------------------------------*/
FoamFile
{
    version     2.0;
    format      ascii;
    arch        "LSB;label=32;scalar=64";
    class       volScalarField;
    location    "9";
    object      p;
}
// * * * * * * * * * * * * * * * * * * * * * * * * * * * * * * * * * * * * * //

dimensions      [0 2 -2 0 0 0 0];

internalField   nonuniform List<scalar> 
13486
(
1.73302
1.69403
-0.0207183
-4.97831
-1.00262
0.213947
-1.18368
-0.234726
0.535293
1.15696
-3.29553
0.219873
1.79893
0.334188
-0.571593
1.22058
-3.10052
0.648095
0.23852
1.58999
-5.36551
1.75422
1.66704
-4.40728
1.07672
-4.11772
-3.18623
-1.08161
-0.00183262
-1.59643
-4.61544
0.09555
-1.53794
-0.976508
-0.21333
-0.000600091
-0.160483
0.844664
-0.159831
0.72829
-3.22802
1.91542
-0.0118913
1.04886
1.02843
0.214519
-3.2351
-0.00222998
-0.152721
-0.577055
1.23039
-0.223363
0.281683
0.931944
0.229623
-0.88579
-0.58603
-0.214401
-1.50556
-0.243134
-3.91541
-0.254373
-1.42997
-5.30871
-11.0285
-0.184117
-4.98745
1.93469
0.498223
-0.111355
-4.9594
0.393859
0.888008
-2.31725
-0.240357
-0.575497
-0.221698
-0.649738
-3.27926
-0.297386
-8.38524e-06
1.77482
-1.45065
0.0199183
1.73112
1.41741
0.0873442
1.20457
1.39574
1.31139
0.368027
-0.469808
1.54042
1.63928
0.458493
-0.00170472
-3.18239
-5.28285
0.70347
-3.23877
0.0193279
0.398059
-5.47088
-0.21218
1.57639
-3.31614
1.24632
-0.158119
-3.31608
-0.928667
0.113959
-0.0824466
0.936395
-0.182757
2.34388
0.257452
1.09092
-0.913857
0.900554
-0.129243
0.658255
-3.75335
0.614818
-0.16414
0.177899
-0.209074
0.120875
0.669697
-0.848863
-8.74835
-0.207012
-3.15826
-2.90667
-2.05802
1.25152
1.33978
2.73671
-0.834289
-0.120835
-0.0556074
-1.14384
0.292187
0.224654
-0.311758
-0.0834844
-0.815728
0.0159166
2.12458
-0.639646
-0.000921416
1.02455
-1.01741
0.00209603
1.8182
0.757675
-0.0264248
-1.36353
-3.56833
0.543697
-0.114006
-0.292595
0.550083
0.635857
1.90018
-0.224897
0.12837
0.489869
2.87705
0.00970077
-2.0637
-3.02676
0.763982
1.12251
0.0410235
-0.00502935
-8.38826
0.264432
-1.18811
1.23086
0.223854
0.523759
-0.157451
0.0899037
-3.38637
0.0649111
-1.02915
0.000206416
-1.26311
-2.96877
0.406936
-0.145839
-0.0947347
-0.241135
2.10778
-0.287098
-3.19185
-9.36176
-0.346182
1.172
0.183011
-4.6734
0.654262
0.849943
-1.99067
-0.132569
-0.304535
0.246526
1.13481
-0.227762
0.0643864
-1.15301
-5.78114
1.57311
1.25258
0.219152
-1.2511
-1.54543
1.31388
1.35388
-1.11002
-3.15378
-0.643184
0.0184027
-0.353973
0.287557
1.47377
0.0277266
-7.92207
-0.701333
0.0687142
0.517275
-5.21228
-1.19673
1.99422
-5.93513
1.31869
-1.12037
-0.0880846
1.35469
0.188415
-1.69273
1.10922
-0.110571
1.14313
-0.116935
1.41835
0.248137
-2.79464
-2.0149
1.11238
-5.01491
2.39408
0.147768
-0.16574
-0.46507
-8.33312
0.148055
-1.23661
-3.15897
-1.81473
1.52348
-0.116333
-0.495533
-8.026
-1.19588
-3.37424
-0.703928
-5.22972
0.861431
0.535545
1.7621
1.26212
-1.57224
0.231866
1.47815
-2.53069
-0.462274
-2.4286
-0.177031
0.0355907
-2.72272
0.42275
1.27863
-3.6462
-3.64361
-3.26406
-0.977323
-0.86205
0.269767
0.891993
-5.77375
-0.131803
0.360092
1.25624
-1.08256
-1.19479
-0.311586
0.207885
1.26875
-2.27943
0.691796
0.288752
0.0183541
0.0499188
-0.128234
-1.91523
-5.76273
0.260091
0.0601093
-0.152508
-2.07694
-4.94408
0.462077
-0.00608456
-3.17015
1.36734
-0.13212
1.40991
1.16523
-0.854618
-0.173562
-0.129237
1.23489
1.67186
2.68396
0.33202
-0.230099
0.389807
0.146204
-0.344868
1.20834
-0.58067
0.436348
2
-1.38299
0.336259
2.3654
-1.01272
1.07805
-0.109868
-0.755864
1.67159
-0.427796
0.0656493
-3.50953
-0.00194399
0.177344
2.22342
-1.13552
-0.124999
0.285269
0.181416
0.222021
-3.16131
1.25988
-0.0506276
-2.37899
0.122801
0.0434303
-5.09708
0.23011
0.390073
1.47769
1.26554
-1.62826
0.00127147
-1.16661
-3.18741
1.61719
0.161321
-0.0140834
0.209086
0.25887
-4.87465
0.320604
1.24153
1.28518
-0.113564
-3.02835
-1.75613
0.817574
-0.729002
1.96855
1.81756
-3.18175
-0.504827
0.460721
1.06312
-2.24655
-3.88682
1.52695
-1.55346
0.8956
1.44917
2.08857
-0.115759
-4.96761
-4.77728
-2.53813
-1.08458
-2.32087
0.949737
0.64912
-6.12017
-1.04646
0.201987
1.61322
-1.2267
0.27735
1.63671
1.03483
-0.0385022
-1.44264
1.28077
1.27343
2.06187
-3.46931
-1.15999
-3.21037
0.180878
1.23658
0.697135
2.24385
1.10645
-0.108538
-1.23938
0.662734
1.28942
-3.19423
0.564411
1.75742
0.664699
0.883815
0.242488
-1.53899
-2.49349
1.9933
-0.124601
0.0690527
1.90437
-3.04286
-1.5166
-2.02711
-1.52055
0.00489802
1.05381
1.97486
1.78994
-1.87695
-0.131606
-3.53675
1.09185
1.43189
-0.573063
-0.345037
1.29449
-4.32526
-9.04004
-3.89806
-1.05528
0.542022
1.29357
-0.00550994
0.574193
-5.22208
1.33857
-0.00114288
2.65414
1.50686
0.797207
-0.408616
-0.00292251
-0.0018123
2.33866
-0.540896
-0.116475
-0.105427
0.348022
-3.30446
0.206249
1.13511
-0.0694045
-0.00845899
1.67126
-0.986462
-2.74835
1.08655
-3.96491
2.86609
1.09688
1.24059
1.29437
-7.99798
0.0873854
2.4026
-1.37984
1.64248
-2.13046
0.714473
-5.50872
-0.284271
-0.023221
-3.46658
1.44667
0.193376
-5.28015
0.000556091
0.164984
2.08562
1.04121
-0.490769
0.251407
0.212968
0.031373
-1.32689
1.24297
-3.10311
1.94624
-0.157993
-0.108909
1.93273
-0.762079
-0.0190468
0.31199
-6.00693
-4.59534
0.219908
-1.0427
0.666302
1.53364
-3.2059
-1.49455
-3.20176
-0.00176282
1.33605
0.703814
-3.44799
-5.60779
0.799018
-3.1902
-0.142496
-10.9012
-0.309857
0.256601
1.96342
-0.140673
1.47722
-0.730918
-4.68875
-0.532755
0.878592
-3.42668
1.06701
0.070386
-4.22655
0.159608
0.894438
-2.05536
-3.2338
1.2406
1.44455
0.834571
1.77476
0.0761472
1.1151
0.677288
1.19766
-0.0698706
1.34924
-3.17204
0.921807
0.156977
-0.813867
-2.5061
1.21225
-2.92961
0.214435
1.92872
1.71431
-7.24444
-2.07659
0.78998
0.314566
0.691933
1.33482
-2.29712
-3.10611
0.400339
1.59968
0.583338
0.601087
-9.65728
1.74106
-2.82663
-0.154872
1.27891
-0.459313
-0.289515
0.584176
-0.258962
0.117973
0.108816
0.850017
-0.63601
1.68254
0.255777
0.391577
0.42089
0.333856
-0.923438
2.18073
0.735041
2.15729
-7.47328
0.960849
-0.00494171
-2.35083
-1.13478
1.10236
2.35227
-13.5917
-0.804064
-0.308759
-1.26057
1.08909
0.57905
0.148881
0.610636
-3.2466
-2.34014
-2.74847
0.477487
-1.04961
1.2751
-0.00288855
1.96444
0.661592
-0.136872
-4.66984
-1.13388
0.76742
-3.45876
0.356251
-3.38645
1.28864
0.00015248
-0.538931
-5.52328
1.95574
-0.00099559
0.675819
1.88852
1.23813
-3.62574
-0.12495
0.2381
0.490302
0.0802078
-0.100017
-8.73512
0.838774
0.710059
0.742956
0.550988
1.94253
-0.138552
-8.36959
1.21568
0.484059
0.144308
-0.204393
1.15526
0.933946
-3.50593
0.070559
-0.116173
0.175025
1.33511
0.756513
0.138188
0.0373321
-3.61116
-0.345197
1.53539
-0.202946
0.00893522
0.663291
1.96251
0.733294
-0.140288
2.15187
-0.0120795
-4.43227
0.976927
-2.19161
1.48838
-0.0777068
1.27217
-6.37269
-2.13908
-5.50293
-0.00152879
-2.92068
1.03189
2.26738
-1.44015
-1.44059
-0.028998
1.57001
0.473753
0.913972
-5.1193
2.35817
-3.56112
0.267765
-0.64972
1.07589
1.39471
1.07171
-1.55968
-5.19138
1.88592
1.31722
-1.53877
0.690843
-3.17332
0.157823
-0.150443
1.05138
-2.0514
-0.437729
1.57454
-0.867646
-0.196932
-0.320629
-4.67529
-1.43188
-0.164648
1.10743
1.48607
-7.65802
0.0819232
-3.67765
-5.28312
0.120136
-1.04234
0.395506
1.27053
0.461412
-0.407534
0.807322
-1.88603
-7.85105
-0.20762
-0.148517
-7.2653
-5.40354
-0.120044
-7.98927
0.0522535
1.8125
-0.120341
-7.48318
1.8962
1.69441
-6.74193
-8.6742
0.41082
-3.18386
-0.107807
0.442989
0.503473
-0.895479
-2.80208
0.950075
1.12064
-0.0882234
-4.05516
-2.50331
0.251041
0.196009
1.12476
0.344386
-7.4471
1.49598
1.61208
-3.24157
-7.91664
0.597843
-2.18887
0.421284
-0.149722
-1.48807
-7.24312
0.281883
1.24702
2.17614
1.0762
0.348954
0.315578
1.23573
1.59641
0.549183
0.51278
1.08439
2.05282
-0.923166
-0.126448
0.568179
-0.713272
1.96453
0.0935269
0.737173
0.374117
-0.446223
0.2041
0.291628
-0.795234
1.32901
1.55682
1.12965
0.973863
-1.4911
0.069865
-0.950917
-0.841331
-0.714644
0.19171
-0.0847026
-10.4557
-4.41431
0.996989
-1.41437
-2.01894
-1.28236
-3.20546
-0.579303
-3.07369
-9.37528
1.21035
-6.31988
1.73345
-8.15898
-2.03886
0.742891
1.37587
-0.272316
0.524545
-2.6815
1.40797
-1.09675
-1.33223
-0.254426
-0.134054
-3.56455
1.2827
-0.528479
1.05105
-0.124924
0.383582
-3.18709
-0.091206
-0.0504699
1.07247
-0.960041
-3.44105
-10.2892
1.72922
0.521249
-8.87871
-3.22787
1.07862
-7.13817
-0.129664
0.200952
-0.489391
0.279185
-0.238878
-10.3108
1.46397
1.28827
0.847578
0.926784
-0.120701
-1.60133
1.19952
0.193329
0.793761
1.31321
-0.328913
-0.162631
-0.569603
0.325035
-0.126408
1.40369
0.868582
0.659571
1.2596
0.518488
0.2016
2.30706
0.290888
-1.02805
1.12378
0.140276
-0.15962
-0.638825
-5.30395
1.05203
-0.13729
-0.0136624
-0.0655538
0.688815
1.00633
-3.68381
0.00188455
1.25843
0.158712
2.00464
1.45196
1.30387
0.208846
1.25345
0.212392
-0.0744349
-0.395525
0.7413
-6.1418
-0.824449
-1.55519
-2.49054
-5.42019
0.959164
-1.44643
-2.53749
-10.749
-6.15732
-0.0661409
1.32316
-0.0241574
0.402931
-2.21976
1.27408
2.18845
0.17649
-3.69506
1.05989
-1.46819
0.980316
-0.127819
-0.12564
0.97865
-0.256506
1.95138
0.339136
1.24068
-1.347
1.39938
-0.113998
1.47201
-0.166778
-1.97103
0.283493
-13.4396
0.358263
0.183422
-4.95674
1.77
1.27538
1.51169
1.50183
1.51342
1.08418
-0.945031
0.502357
1.29413
1.22723
-0.731432
0.0224938
-0.834366
-0.226629
0.247031
0.603441
-2.13552
2.47221
-0.423058
-0.123637
2.1883
1.67933
-0.822906
-10.5868
0.77675
1.01818
-3.37735
0.320753
-2.06306
-0.0223809
1.24116
1.39127
-0.133322
0.555451
1.392
0.000759295
-0.256407
1.50998
0.213718
-0.138855
-3.1729
0.0146456
-0.772547
1.33164
1.50285
-0.168475
-2.51727
-2.13546
0.211803
-0.153655
0.203011
1.90946
-0.195716
2.53804
0.981175
0.24421
1.15967
-3.67861
-2.48986
-6.89286
1.06014
-0.1417
-1.97376
-4.49813
0.95836
1.12138
-0.111446
-0.745493
-3.38742
-0.547769
0.499998
-0.118062
0.379575
0.214832
1.21234
1.27554
1.47278
0.676065
-0.833102
-1.54711
-0.912348
0.0541043
-8.11782
0.643595
0.349907
-5.81572
-0.122555
-0.172616
0.71089
-5.46452
0.368332
1.04474
-0.0437828
-2.3088
0.0822259
-0.549845
-2.38032
0.21053
0.170914
0.558873
1.15583
1.01201
-2.04815
1.24648
-0.083003
1.57169
0.535598
0.998281
0.657239
0.267817
1.95634
2.46479
0.574156
-1.25921
1.14269
0.249842
1.9656
-0.43917
-1.48684
-5.13885
0.21016
-0.268722
-1.71986
1.2639
0.922886
0.262162
-2.44947
-0.320357
0.69527
2.29224
-1.20728
1.22871
-2.6053
0.701588
1.87326
-0.563539
0.102866
-5.54734
1.22121
0.225173
2.47629
0.0229551
-0.887155
0.968857
0.212676
-3.42694
-2.07951
0.745707
1.48924
-0.0302541
-1.13429
1.70931
1.59856
-0.327913
-1.46901
-0.00560973
0.670842
0.70594
0.842293
1.33073
0.324168
-3.16973
1.49142
0.0445929
-1.24025
-0.236016
1.41412
0.988161
-3.66511
-5.99333
0.000152794
1.23407
1.82557
0.270804
0.687581
-0.794867
2.31809
-3.22238
-1.08808
1.99382
1.23561
0.301974
0.246864
-5.01329
-0.461519
-2.8783
-3.23161
-0.119485
-6.92866
0.425095
-1.60064
-3.10166
-2.94729
-0.992219
-1.73039
-2.4115
-4.81373
1.73187
1.33021
-1.43135
-3.2965
0.178855
0.651033
-0.827146
2.52322
-0.53907
-0.763206
1.23931
-1.86908
-7.06025
-0.313066
-0.386505
0.928013
2.61295
-0.000345953
-0.538786
-4.87116
0.0736067
-0.408096
0.133574
-0.019199
1.50968
1.30257
1.29631
-5.55033
-0.250028
-0.114574
0.462188
1.22938
0.410534
1.31208
2.37894
2.10236
-1.82942
1.241
1.51428
-0.739815
1.27698
-0.164853
2.05819
1.24327
0.430307
1.47354
0.99301
-0.219323
-0.145647
1.45736
-1.44133
0.473041
-0.919865
-0.776167
0.200105
0.99624
-0.147839
0.265518
1.9221
1.90393
-0.194842
-2.04927
0.203787
-3.64526
-0.462898
1.33279
1.54341
-2.03607
1.23956
0.423037
0.182341
0.477896
-5.64405
-5.65435
-0.165139
2.55407
-0.472806
-0.0116995
1.62487
0.188688
-0.396916
0.972064
0.215504
1.20011
-1.95551
-1.30898
0.312492
-0.200302
-0.573842
-0.324472
2.22454
1.66678
0.899693
2.22039
1.82502
-0.439428
-0.176983
0.148812
-0.554419
1.93068
-5.92063
0.779576
0.294564
-3.9762
-0.487942
1.13467
-9.99452
0.19377
1.2293
2.6417
-3.15606
0.204008
0.276486
0.616903
-0.0233872
-6.10874
1.85246
1.2391
0.467449
1.05318
-2.22082
-1.6539
-3.49075
2.09688
-0.205217
2.45352
-4.7442
0.644258
-2.37837
-1.39005
-2.27903
0.434848
-0.194958
0.813978
0.10867
0.796682
-6.14582
-0.00104196
-5.37347
-2.0442
-0.945779
-1.39935
0.0911178
-0.353937
-5.25771
-3.82765
0.319943
0.383138
2.02597
1.2741
0.10589
0.214967
2.95275
0.748122
-3.17976
-0.00597879
0.304923
1.21344
0.503928
1.51528
-0.813296
-0.862444
-0.394
-0.000368656
0.212566
1.71383
-2.06828
-3.75349
-3.39396
2.13821
-5.06714
0.364604
1.31961
-5.15997
0.0316815
-0.134214
-3.13208
-3.1639
-0.162131
1.13793
0.857153
1.2992
-1.27997
-2.09179
-0.878797
-3.36468
-1.91947
-0.829584
0.37011
-3.74
0.0319609
-5.82339
-3.15167
-3.51832
1.69271
-5.42631
2.14395
-3.56935
-1.01049
-0.0205576
0.455514
1.4081
0.126415
1.73515
0.129343
-2.6753
-3.05998
1.21593
-2.02182
1.15381
-0.12276
1.84608
1.50828
-0.126402
1.07029
1.92944
0.666585
1.10592
-1.48835
-2.5232
0.0882384
-2.08992
-0.175652
-0.619462
-0.739501
-0.0127522
-3.05824
0.202374
-0.257285
-0.130103
-0.545826
-1.1475
2.0485
0.056698
-0.00143271
0.193094
1.27412
-7.90319
-0.00223618
0.719813
-0.126766
-0.0823175
0.107436
0.359286
1.27249
1.26078
0.0137188
1.3194
1.43774
0.852972
-1.66632
-0.123551
0.726029
0.373121
-0.777576
-3.31486
-8.97055
-1.0682
-5.09806
0.0312729
-0.183637
-0.256298
-2.08455
-0.609211
-5.70294
-0.226407
-4.21362
0.843026
-3.24573
1.31174
2.91305
0.859169
-5.00349
0.950498
0.58906
0.20489
-0.00283761
-1.86036
-11.6202
0.0918808
1.24599
0.00137732
1.84772
0.00762835
1.2596
-0.0766948
0.115045
-2.55763
-1.24783
2.49345
-5.2065
1.30156
1.26274
1.50332
0.0919897
1.23242
0.412434
-2.29532
0.614043
-3.15369
-3.47764
1.26594
1.23637
-1.3231
0.637359
1.53327
-3.273
-11.9477
-0.233931
-0.0776858
1.30993
1.00127
1.43504
0.107201
0.560968
-1.80823
-0.995745
-1.73998
1.4333
2.42245
-2.0899
-3.06507
-2.65805
0.191564
0.0632681
0.0716459
-1.58693
0.578171
0.026782
-5.58625
0.118576
2.47398
0.928187
0.592203
-4.84483
-4.91286
-2.90272
-2.75717
-3.28155
-3.96091
1.63516
1.00019
-1.31621
2.34455
-0.00633313
-3.1304
-4.9076
-3.43055
0.68594
-2.03972
0.798429
0.502158
0.0338061
-1.62077
-1.7447
-3.15979
-7.04837
1.48698
-5.37171
-0.150101
-3.40708
1.265
1.12898
-5.10381
1.3435
1.01119
1.66069
1.93636
0.689336
0.196062
2.58401
-3.46591
0.295609
-1.81328
-7.62141
1.67607
-8.07214
2.07266
0.94839
-0.886571
-3.55893
-3.09597
1.41977
-9.46464
-7.14219
0.00774291
-0.177923
0.570142
1.07475
0.589655
-0.138777
2.13619
-2.10641
-3.77928
0.247689
0.308885
1.28482
-4.11562
2.88162
-0.164145
-0.291484
1.25298
-0.717721
1.26802
0.604556
0.950757
0.660129
0.668494
-0.436576
0.689093
0.193735
-5.74506
-0.0254472
0.557183
1.16071
1.28735
-5.76126
-0.0326232
-1.49575
1.05852
0.417873
-7.15461
1.26582
-6.46904
1.23094
1.32269
-3.03611
1.76793
-9.9693
2.4625
0.777664
-6.31001
-0.000330995
-0.196406
1.10891
1.4103
-7.42902
1.31429
1.34041
-1.27681
-0.0526553
0.177617
0.261532
-1.33645
-3.21747
-0.736537
-6.77695
1.26269
-3.45537
-3.55596
-1.75159
1.54719
1.38547
1.22654
-3.5054
0.964831
-0.330248
0.0387948
1.0166
-6.2385
-5.77621
2.10341
-0.0986105
-0.190164
-1.43067
-3.25011
-4.80917
1.32426
-3.13767
-0.996528
1.41905
-0.192502
1.20722
-4.26457
0.198825
2.29746
-1.81206
1.4281
0.138176
-4.90292
0.801583
0.197833
0.101953
2.30921
0.879061
0.190184
2.39819
1.22558
1.61197
-3.38242
-3.45138
-1.004
-0.989784
-4.06533
-1.13169
-0.778448
-1.204
0.20436
0.219745
-0.577425
-0.23521
-5.11062
-0.532628
1.51275
-3.04871
0.317493
1.07948
1.2697
-0.331752
-0.0695171
-5.20225
-2.84084
-4.48906
-1.12797
1.51338
-7.19791
1.64534
-3.82444
1.26971
-0.943083
-0.171914
-1.82411
0.906913
0.985473
0.671868
0.385444
0.713377
0.46521
1.43305
1.80773
-4.62499
-2.14962
-3.08401
1.29744
0.453448
-1.76057
-1.24368
0.39554
-0.471188
-0.0217299
0.494746
-0.307758
0.632513
0.985962
0.420569
-0.14376
-8.9113
1.68682
-4.87384
0.994291
0.000268686
1.24007
0.97295
1.0358
0.47582
-2.61447
-6.36998
-0.150797
-3.0116
-7.99557
-9.24959
0.431375
-5.90954
1.24467
0.336243
1.27172
-3.05722
0.456251
-1.40247
-0.159854
0.949589
-3.1574
0.725535
0.209032
-11.8136
-4.42909
-5.02598
0.386947
1.36315
-0.143554
0.204961
-2.49383
0.694632
-0.78254
0.12986
-3.57034
1.33907
0.227627
-0.0482245
1.16769
0.640277
1.10626
1.02432
1.82963
-1.90859
-0.177885
-2.47256
0.0796756
1.0823
0.214922
-2.77375
-6.11521
-5.33831
-0.370655
-0.0612811
-6.45508
2.42574
-1.65215
0.946202
0.286756
-7.69842
-0.197322
-0.0602294
-0.222782
0.55086
0.197917
1.31016
-0.162732
1.2441
-1.4612
-1.92381
-5.55276
-0.149224
-6.23449
0.895358
2.26093
1.23223
-1.21054
-2.58286
1.2458
-3.19616
-1.05825
-0.00405835
-0.436875
-5.97056
-6.21714
-7.07918
-1.27313
0.381794
0.18591
-0.953154
0.209869
1.37708
-0.70511
-1.1877
1.4084
-0.185768
-3.3989
-0.0455159
0.102332
0.000658714
2.37964
-0.0107511
0.277464
-0.712408
-0.371737
-0.669147
0.565913
-0.118038
0.0583845
-0.384719
-1.05243
-0.0392356
-0.957094
1.48353
0.525655
0.630594
-2.26633
-1.03566
2.33366
-5.71775
0.926004
0.892806
0.535577
-0.241657
0.220318
-2.86417
0.378874
1.27865
1.10892
0.733418
-8.18993
1.40136
0.56252
1.87727
-0.757619
1.30409
1.47524
1.25902
0.277296
-3.54704
0.783651
-3.42056
-0.250894
0.945951
1.11599
0.492228
1.65617
0.202847
1.85672
0.371001
0.98659
0.272817
0.307127
-1.54304
1.26123
0.109925
0.950504
2.30975
1.30727
0.255849
-0.914473
0.249447
1.26396
-0.159382
-2.61872
0.423786
-0.0394901
1.42663
-4.94429
1.72811
0.708464
2.99439
2.03379
-0.58581
-0.962319
-1.90896
0.456659
2.07246
0.0115921
0.332198
-0.359783
2.56238
1.03613
0.333381
2.34488
-0.431388
1.13195
-0.941527
0.88837
-0.46697
0.614442
0.889095
1.25479
-0.192301
-3.10296
0.222294
-4.74054
0.0600889
-2.96254
-0.00294492
1.9264
1.60153
-0.0196416
-1.82264
-0.800089
1.05614
0.488993
0.468402
1.06721
-1.66552
-3.06438
-5.53027
1.32076
-1.4734
-1.65995
0.868281
-0.137071
0.217833
-0.861188
2.35676
-6.33426
1.64686
-2.17636
2.39065
-1.95634
0.17306
-0.204534
-0.112815
0.552753
1.25436
0.315761
-1.30462
0.390073
-2.05158
1.42669
0.122042
0.385639
-6.36074
-0.6953
-2.22804
0.883051
-0.993165
-0.156877
-0.221536
1.26565
2.44479
-4.79726
-0.0535146
0.432478
-0.558106
0.979234
-0.114768
-0.69044
-0.978942
-3.52413
0.508489
-6.44586
-0.687941
0.0520331
-1.3146
-12.6953
0.490151
1.17837
1.01147
1.22971
2.30285
-3.77189
2.51562
-2.59557
2.31039
-7.98228
-0.576173
2.16388
0.899912
-9.527
0.214698
-0.199081
0.501384
-6.16331
-3.3236
0.192721
-1.41515
-2.02384
-0.00505425
-0.516085
0.869824
0.888259
-9.56028
0.912414
-1.41213
0.242965
-6.30613
-0.154719
0.795726
-5.39768
-1.06985
2.10483
-0.107687
2.20012
0.224473
-3.15144
0.863722
-0.477692
-0.220861
1.22304
1.2519
2.54992
1.19118
1.36168
-0.909707
-2.09625
2.46341
2.46148
1.41562
-0.307805
-7.68252
-3.3886
0.504793
-0.464815
0.0112484
1.54938
-4.84561
-0.139785
-2.92005
2.27458
0.614308
0.528944
-6.36075
0.247501
1.04948
2.81871
2.62873
0.623399
0.741947
-0.49412
-2.24054
0.99669
2.68857
-1.01491
-0.224971
-0.284168
-0.00206704
0.236264
0.183408
-0.00986479
0.187538
0.342335
0.262453
-0.138972
0.795698
1.46318
-2.38122
1.01435
-6.93094
-0.105727
2.02325
-2.44289
0.407495
-2.21136
0.929482
0.818443
-4.90629
-2.66345
-0.14998
0.413395
2.89293
-2.39957
-1.03
-9.04957
-0.130604
-1.95053
-2.2862
-4.94795
-1.28157
-0.052478
-1.56508
-0.410963
-1.9475
0.800847
-0.0134101
0.494896
2.79021
0.564341
0.222
-0.717814
0.62557
-2.01029
-1.19574
1.90024
1.07884
0.225985
-0.446736
0.834252
1.10418
-0.617184
-5.91022
-0.0240307
1.91742
-0.890304
1.25757
0.424819
1.76268
0.217944
-7.63979
0.607044
1.25941
-1.06124
1.28122
-0.429004
2.55633
-5.24242
0.0763851
-3.11905
1.05044
-5.53302
-0.71975
-5.52561
0.138221
-1.74037
-9.04283
-6.1376
-0.325627
0.361807
-4.92792
-0.438767
0.532332
-3.56437
0.334619
-5.88535
1.25185
2.39403
0.171839
-2.01064
0.411319
0.0967153
0.377516
-0.378434
-0.157167
-3.25364
0.0212183
-2.03494
-1.77478
0.432401
-0.0687197
-4.29109
-1.58534
0.26626
1.28212
-0.310539
-5.11636
0.0353171
-0.120077
-0.778982
-0.0717792
-1.35662
-5.34492
1.5207
-3.54712
-1.24365
-1.37732
-1.89227
-3.24309
-3.89353
2.95235
0.0431828
-1.27541
0.9701
2.34719
2.02988
-8.50178
-0.952655
1.24644
-0.137241
0.0313102
2.36869
0.207249
-0.179137
2.94216
0.169258
-2.11547
0.591472
1.89722
1.28524
0.412153
1.88359
1.13755
-0.244581
-0.10592
0.93905
0.231909
-2.52676
2.25087
0.269597
-0.0517784
-0.129636
-3.99572
-0.0538808
-6.61014
-1.13304
0.264015
0.598726
1.38206
0.666406
-3.20859
2.00609
2.15476
-0.988001
0.286549
-0.311029
0.0223316
0.344568
1.07303
-5.23254
-0.700743
0.216238
2.47621
-3.15486
0.854653
1.05285
1.10376
-0.334352
0.428185
-1.06409
-0.154172
-1.18676
-0.206359
-3.27438
-1.28107
-0.061775
-5.17743
1.21536
-9.26236
-0.14361
0.702932
-2.02122
-6.61927
-3.1898
0.679338
-0.907602
0.0441914
0.959557
-8.13008
0.0702032
-0.803741
-0.294969
1.18962
-3.14865
2.40171
-0.100438
2.65503
-0.0010239
0.0110945
0.115129
1.24394
0.288534
-1.98537
-0.399112
0.278591
0.123957
-0.100295
2.98684
1.11321
-0.538118
-0.831283
-0.362753
0.433379
0.662012
-0.93594
1.08256
-5.75136
-5.96923
-1.99377
-2.07013
-0.212523
-2.05095
1.09451
0.269155
2.03395
2.49158
-2.81797
-3.2276
0.341581
-0.630895
2.12649
-1.92941
0.122495
0.906939
1.14875
-6.56402
-1.21243
0.222392
-0.194383
0.00536469
-5.41007
-1.95373
0.208838
-0.433734
-1.6443
0.158617
-1.72478
-1.45747
0.70157
-9.45044
-7.23389
-1.45266
0.738013
2.55374
-0.631314
1.25996
-2.82836
0.00531833
0.32652
-0.420569
0.770086
-5.09362
-3.51594
2.10493
1.16298
0.405986
-1.92705
2.70936
-6.30503
-3.33835
-5.57379
-0.795547
-5.65713
-6.23382
1.83671
0.351067
0.353922
0.872596
-5.13245
0.857878
0.0545991
0.265347
-1.91965
0.430484
0.824892
0.716735
-5.05724
-3.09037
-2.14657
-1.87219
-0.790005
-0.72249
2.57027
1.11726
-6.4239
-0.907466
0.69787
1.9501
-0.306395
-3.273
-0.707315
1.56305
0.452171
-1.51396
1.28592
-1.40179
2.0707
-0.196636
1.38997
-3.21901
-1.34172
-0.138378
-6.05488
-0.975826
0.814538
-2.93004
-5.65423
0.986749
-1.46499
0.275209
1.61769
1.18547
1.56127
1.25799
-1.0775
-0.00553998
0.453325
0.525419
-0.00070497
0.996482
-0.435357
2.10774
-5.14446
1.50436
-1.49701
2.36987
-5.06046
-0.369716
2.28393
-5.38634
-0.565997
-3.11767
1.58151
2.25358
1.2432
-1.23906
1.26941
1.24541
-4.38162
1.00107
-8.19475
1.4057
-5.72419
-5.0071
-3.36586
-3.50372
1.21602
-1.31644
-3.54942
0.0506029
2.2099
0.0136456
0.32989
-3.6027
-0.637822
-0.315042
-0.759023
1.2608
0.574255
-3.42143
2.63706
-0.244647
1.92352
1.34966
-0.0676291
-0.0558959
0.201748
-1.21134
-1.08375
0.0192778
-0.0908871
0.0446594
0.547581
-5.35646
2.38228
1.44201
-0.0202168
-3.76256
0.520944
-4.27718
1.15152
1.14646
0.18718
-0.0863821
1.14463
0.691341
-0.681943
-2.07791
-0.451334
0.771354
2.0804
-2.44342
2.29933
2.6829
2.39747
-1.83656
1.18913
-3.31716
1.22877
1.15786
1.59016
0.777715
1.52922
2.7954
1.28415
-2.70617
-3.14632
-3.57092
2.78168
0.107704
-1.76465
-5.03159
1.457
2.03408
0.830445
0.0187845
-0.357818
1.84456
-1.13794
0.566986
-5.27268
0.928681
-0.144881
-2.2871
0.205935
-3.52827
-3.9624
-5.5721
-1.70744
-0.0723238
1.16266
0.248235
0.158778
0.59632
-1.25945
-1.03934
-0.131898
-1.22352
-3.20614
-3.01328
1.4539
1.88364
-6.1133
1.23803
1.45061
1.90195
-0.0169773
-12.7925
0.778063
-2.31377
1.60619
-1.44089
1.55023
1.16488
0.593484
1.52929
0.36146
1.2847
0.0366091
0.941543
-1.02975
-2.02819
-2.13854
-0.120296
1.25207
-9.5506
-7.73785
-8.64348
2.16829
1.17664
0.901531
-0.0335108
1.7702
-1.38269
0.556143
0.124864
-0.954234
0.58328
-8.02349
-3.16966
-0.649494
-2.99825
-1.06839
-6.83978
0.0964337
-3.43053
-2.09132
0.289269
2.24079
2.53287
2.02017
-10.0767
0.585402
-3.22195
0.613359
1.96582
0.633261
1.22522
-7.67132
0.0918327
-1.11861
0.322387
1.41212
-0.234474
0.794611
-3.2035
0.14342
-3.22845
1.2974
0.802894
1.26358
-3.09371
0.60636
-6.38833
-3.63872
-3.63803
0.060287
2.14984
-1.79878
-2.49456
-5.54811
0.931388
1.26197
-0.232736
1.07157
-3.06632
1.81598
2.08354
-7.01598
0.187776
1.55725
-8.73274
-4.23158
0.420935
1.49373
1.65383
-3.28158
-0.60897
0.375121
2.20843
-3.30246
-10.324
0.29172
1.87526
0.401676
-1.08899
-2.13264
1.27305
1.18761
1.36946
0.255077
-1.56249
0.804127
2.72523
-2.06471
-0.112311
0.369028
-3.16718
0.399096
0.12753
-4.80453
-0.706142
-5.16248
1.09555
-4.87078
-2.30859
1.20008
1.53671
0.624448
-1.1243
-9.0547
0.661714
-3.12896
-1.11619
-0.796571
0.0711731
-2.98798
1.57095
0.722006
0.373023
0.465047
2.00131
-4.10859
-0.293214
1.25601
-3.55223
1.11136
-0.11653
-0.0170051
-1.6272
1.215
-0.00142934
0.119708
-0.759917
-1.33653
1.30505
-1.49732
0.61102
-9.72535
-1.09832
1.21877
-3.09623
2.37078
-3.14606
-3.21947
-4.34069
1.53316
0.740684
1.14408
-3.48291
1.84417
-5.28327
-0.460796
0.144776
-0.449585
1.29255
0.123013
-0.822293
-0.127118
-3.43066
1.19781
-3.01625
-8.92075
0.00502179
-1.69373
-1.14949
0.0793327
2.01226
0.0445475
-3.31134
1.16033
-1.23321
1.63131
-1.66893
0.444151
1.25375
1.30594
0.0798526
-3.11744
-1.64744
0.36772
0.760385
0.892506
-0.836129
-6.04999
-0.258312
-1.15296
0.516414
2.84505
0.604974
1.20024
1.61007
0.661005
1.36323
-6.67132
-3.13875
-9.96252
1.25505
2.73952
0.63849
-0.431084
1.36076
0.0176524
0.132743
0.0192059
0.385504
0.223333
2.37407
-2.78441
-2.13857
2.2683
1.38505
0.360546
0.783243
1.17046
0.383209
-5.95624
-9.29851
0.803223
-2.28261
-2.00125
1.06365
-10.2753
-3.93908
-1.88028
0.503775
0.565854
0.756861
0.416722
1.18363
1.22121
0.245115
0.828624
0.63117
1.67819
1.39282
-0.840605
0.0352151
-0.244402
1.4391
0.751481
0.655118
0.0682871
0.394387
-0.161171
2.00394
0.933253
-0.0023424
-3.95155
0.541442
0.975605
-0.402261
0.862266
-0.146738
0.136153
-8.67403
0.193827
-4.50735
0.15561
-0.65461
-3.00689
-3.08391
-3.06961
1.68602
-4.77358
-2.94565
-5.37028
2.08864
-4.99572
0.289474
0.714991
-3.61132
1.40813
1.26178
-0.603935
1.46204
0.472831
0.418526
-3.42412
-4.19278
-0.0162219
1.60958
0.762054
-3.22598
-3.23173
-6.25273
-3.19944
-5.49707
-1.15435
-0.676897
0.84737
1.25538
1.04284
-5.1754
0.0850629
1.50975
1.1071
-3.2959
0.449492
-3.57481
-0.221268
0.164975
0.241229
1.2193
-1.05938
-5.69289
-7.22152
0.783611
-7.12408
-3.11786
0.0472459
-12.5199
-2.77194
-3.59713
-4.98705
0.0418825
-3.52617
0.0863759
-3.21223
1.29822
1.24717
-0.199167
1.56982
-6.88497
1.96818
-2.18121
0.471758
-0.562848
0.802578
0.272123
-2.06291
-3.407
1.32788
1.62691
2.12016
-3.74157
-2.54917
-8.58661
-0.611027
3.77117e-05
-3.13213
-1.56813
-3.23399
0.267469
-3.23616
-0.550727
-2.13231
-0.314201
1.8286
0.417135
-0.106034
-0.106231
-1.01774
-2.5689
1.88715
2.50534
-2.72982
0.8427
0.790221
-0.00232589
-5.96051
1.51301
1.60309
-1.0522
-4.27748
-9.85943
-7.9456
-0.467478
-3.16776
-0.302898
1.23551
0.148047
1.45336
-3.09518
-3.54751
1.29338
-0.361718
-3.44651
0.517082
1.37111
-3.57131
-0.0815323
-3.46854
-3.14885
-3.31029
2.16938
-3.33931
0.223298
-3.40384
1.07682
-3.42582
-1.30514
-1.19559
-3.70104
-1.00713
0.876204
-0.0173145
-3.17051
0.582785
0.011509
-7.86915
-0.685165
-3.02743
-0.374917
0.097231
1.21336
-2.94508
1.5493
-7.13272
-0.000777998
-0.0646349
-1.37846
-8.89688
-3.0837
-5.50301
0.309558
0.900243
0.0353924
0.22838
-1.29806
0.364591
-4.81051
1.35546
-2.0718
1.07587
-1.13535
-3.26975
0.526002
2.96929
-5.62176
-3.64145
-2.19786
-1.87984
1.26353
-0.0432319
0.602325
-1.04831
-2.82729
-3.739
-2.12001
-3.19593
0.466339
-3.09131
0.552587
-3.28778
0.320964
0.596023
-0.0897456
-0.992737
-0.19914
1.10587
-3.0518
-7.80854
1.315
-0.0455243
-3.27464
0.200376
-1.43278
-1.36372
0.0762578
1.18727
-8.51593
0.957978
-2.37941
-1.50101
-2.97914
-2.72774
-3.29974
-1.041
-3.76632
1.14109
0.929223
-4.45422
0.738128
-8.52826
1.58512
1.51629
-3.64583
0.627362
1.04659
1.28372
-0.39501
-7.01916
-2.88587
-2.25794
1.24925
0.756238
-2.09763
-1.20109
-0.629019
1.61272
0.273862
0.513813
0.501565
1.32246
-0.87996
-0.973363
-0.144465
1.22478
0.698686
0.36342
1.57722
1.47676
0.00783909
-9.54783
1.12275
0.99569
0.377149
-0.0454063
-2.7029
-4.49634
-1.75098
-8.49709
1.58205
0.444411
-0.458999
-0.854285
0.389748
-1.96444
0.676409
-10.2942
-0.593597
1.14278
1.34679
-7.99247
1.05086
0.0670974
0.516256
0.706228
0.357164
0.775076
-0.00427408
1.2962
1.17176
1.22492
-3.63216
1.39797
1.13526
1.24302
1.19375
-8.53837
-0.205843
-0.185755
-1.36324
1.18406
2.06416
-12.9333
2.09887
-7.46824
-2.16458
0.778068
1.07809
-1.30486
0.286885
-2.61063
-11.1277
-0.248199
-6.94058
-1.34195
0.191468
0.496256
2.58632
0.936031
-6.06019
-5.79404
0.578747
0.994021
-5.20711
-4.99869
-9.57325
-0.917579
-2.19611
-2.02135
1.26134
0.314666
1.00315
-0.11042
-0.0887623
0.0217075
-0.0440283
0.293432
-0.716825
1.38899
-2.02727
-1.61047
-0.607905
-5.51862
0.260968
1.02038
-0.333321
-1.34229
1.22375
-0.187436
0.927912
-1.30819
1.14573
0.511422
1.82789
1.21553
-7.80438
0.152165
-0.903455
-9.16932
-0.142654
-0.150342
-1.04768
-13.0258
2.64947
-0.00245333
-0.593474
1.53498
-5.22667
-0.156944
-5.75882
-3.76612
-3.25678
-1.85608
-0.721675
0.267128
-1.78031
-8.22431
0.608204
-9.58073
-0.796427
-4.08488
0.0694856
1.21373
-5.19813
-6.5648
-0.807164
0.139336
-1.59235
1.15164
1.61023
-9.51255
1.18224
-0.250393
1.146
2.08274
-4.65975
1.10176
0.244652
0.939197
1.39269
0.288614
-0.607208
-3.61152
1.04912
1.60631
-9.91572
0.0726802
-2.71075
-1.84555
1.00847
-8.52278
-1.2372
-10.7372
0.929236
-2.19167
0.199271
0.118343
1.27022
0.186556
-2.61679
0.166504
-0.137755
-2.03905
1.85826
2.33497
1.19521
2.7318
1.40721
1.59245
0.568653
0.156151
1.57644
-4.39328
0.777505
0.14012
-2.16921
1.69491
-0.781493
-1.23961
2.29919
0.458738
-5.95593
1.00766
0.933252
1.47234
-1.57215
1.30024
2.28591
-4.92351
-2.18408
-1.11779
0.348165
-3.18489
1.04729
0.25268
1.55214
1.23652
-6.24297
1.0298
-0.531462
-3.21207
-2.92562
-10.0232
0.833466
-2.04415
1.32234
-0.217557
-3.13982
0.0176951
-0.526431
-0.367341
-10.6162
-3.20253
0.997608
0.654403
-3.3433