/*--------------------------------*- C++ -*----------------------------------*\
| =========                 |                                                 |
| \\      /  F ield         | OpenFOAM: The Open Source CFD Toolbox           |
|  \\    /   O peration     | Version:  2306                                  |
|   \\  /    A nd           | Website:  www.openfoam.com                      |
|    \\/     M anipulation  |                                                 |
\*---------------------------------------------------------------------------*/
FoamFile
{
    version     2.0;
    format      ascii;
    arch        "LSB;label=32;scalar=64";
    class       surfaceScalarField;
    location    "9";
    object      phi;
}
// * * * * * * * * * * * * * * * * * * * * * * * * * * * * * * * * * * * * * //

dimensions      [0 3 -1 0 0 0 0];

oriented        oriented;

internalField   nonuniform List<scalar> 
20045
(
0.262068
-0.294067
0.031999
-0.548196
0.211859
0.336337
0.190574
1.0208
-1.21137
-0.168491
0.251022
-0.0825311
-0.484527
0.414814
0.0697129
-0.308762
1.11626
-0.807502
-0.455044
0.0874745
0.367569
0.0240005
0.248144
-0.272145
0.264837
0.212192
-0.47703
-0.383196
-0.0654206
0.448617
-0.206713
-0.109709
0.316422
1.08751
-0.521543
-0.565966
0.1972
-0.195786
-0.00141318
-0.607066
0.526093
0.0809725
-0.0802897
0.471173
-0.390883
-0.521822
0.138626
0.00596726
-0.115826
0.109858
0.0766846
-0.193714
0.11703
-0.789156
1.16578
-0.376622
-0.385253
0.00922041
0.376033
-0.454639
0.369049
0.0855892
0.0692291
0.127971
-0.0894403
-0.458756
0.855562
0.341526
-1.19709
0.408716
0.0885469
-0.497263
-0.433232
1.28879
0.0339557
-0.0359867
0.00203103
-0.750761
1.43079
-0.680032
0.792813
0.18549
-0.978303
-1.51513
0.839427
0.675708
-0.0476603
0.412474
-0.364814
0.625336
-0.489188
-0.136148
-0.227625
0.805613
-0.577988
1.36633
-0.777834
-0.588493
-0.31373
0.33773
0.966825
-0.463215
-0.503611
0.540048
0.149419
-0.689467
-0.0320115
0.201892
-0.169881
-1.06554
0.530612
0.534929
0.307538
0.281508
-0.589046
-0.0183516
0.29103
-0.272678
0.0727491
-0.104588
0.0318385
1.0605
-1.06202
0.00151942
0.72263
-0.257734
-0.464895
0.327683
0.394947
0.488359
0.599149
-0.0671163
-0.138482
0.205598
0.668837
0.200087
-0.868924
0.743671
-0.203623
0.1234
0.974689
-1.09809
0.659952
-1.09954
0.439587
0.961931
-0.680892
-0.28104
-0.566245
-0.380983
0.947228
-0.0508162
-0.163194
0.21401
0.263566
-0.290824
0.027258
-0.357523
-0.127005
-0.00261138
1.09945
-1.09684
0.817714
0.120403
-0.938117
0.73878
-0.966405
0.787618
-0.660579
-0.127039
-0.283096
-0.11958
0.402676
0.191801
0.595817
0.197238
-0.808502
0.611264
-0.308775
-0.145863
0.607367
-0.0585696
-0.548798
0.579949
0.172317
-0.752267
0.0846965
-0.257359
0.172662
-0.341465
0.0621038
0.279362
0.456628
-0.19179
0.739477
-0.752685
0.0132085
0.192168
-0.107472
0.204112
0.0594539
-0.131344
-0.545607
0.676951
0.0806875
-0.098451
0.0177635
0.596819
-0.0180515
-0.578768
0.917771
-0.920382
-0.0846496
0.681469
0.287192
-0.367481
0.199762
-0.0264282
-0.173334
0.0650019
-0.626835
0.561833
0.507587
0.562739
-1.07033
0.444514
-0.367229
-0.0772853
0.595601
-0.398363
-1.32426
0.215848
1.10842
0.00163112
0.260437
-0.22712
0.278297
-0.0511773
0.260098
-0.643913
0.383815
-0.796716
0.0248644
0.771852
0.502907
0.103704
-0.606611
-0.411624
0.361716
0.0499075
-0.631873
-0.0737614
0.705635
0.41149
-0.0977672
-0.313723
0.213913
-0.313523
0.0996102
-0.102744
-0.404211
0.506956
0.316232
-0.343213
0.0269812
0.772008
0.125216
-0.897224
0.0334143
0.000541406
-0.0262914
0.291002
-0.264711
0.641026
-0.333488
0.0293539
-0.132732
0.103378
0.655176
0.311649
-0.216276
-0.39079
0.344908
-0.371199
-0.204948
1.02266
0.0182874
-0.245407
0.138758
-0.109404
0.216747
0.619088
-0.835835
0.543456
-0.986515
0.443059
0.132646
-0.246098
0.21082
0.0352776
-0.115612
0.148557
-0.0329449
0.507887
-0.448215
-0.0596729
-0.268773
0.217957
0.673895
-1.39453
0.720635
-0.106766
0.175013
-0.0682465
0.0245125
-0.142173
0.117661
0.555515
-0.1468
0.937246
0.429081
-0.611503
0.480159
0.564118
-0.823172
0.259054
0.203901
-0.127217
-0.379012
0.0959156
-0.422194
0.338683
0.0835111
-0.522085
0.0613403
-0.322996
0.261656
0.654639
0.307293
0.54521
-0.742129
0.19692
0.804562
0.0891717
-0.893734
-1.02702
0.72166
0.30536
0.00460896
-0.741425
0.736816
0.99492
-0.340281
0.162049
-0.300531
0.104739
-0.0263857
-0.0783537
-0.036775
0.0283568
0.00841828
0.575337
0.396538
-0.971876
0.60256
-0.56041
-0.0421495
-0.159115
0.0723932
0.0867216
-0.178407
-0.0676905
0.92621
-0.362092
-0.362876
0.370768
-0.00789279
0.574388
-1.17115
0.596758
0.142119
-0.708365
0.493144
0.227421
-0.720564
0.732357
-0.667356
0.95748
-0.134607
-0.822873
0.515822
-0.662812
0.14699
0.954214
-0.593814
-0.3604
-0.131641
0.198807
-0.0671655
-0.0772147
1.13485
-1.05763
1.06411
-0.271298
-0.82169
0.0212223
0.800468
-0.513775
0.372576
0.141199
0.958429
-0.450842
0.143357
0.301157
-0.626002
0.762454
-0.136453
-0.891698
1.08227
0.0067618
-0.192999
0.186237
-0.169303
-0.0406345
0.209937
-0.0220153
-0.201138
0.223153
0.646132
0.154869
-0.801001
1.39534
-0.705433
-0.689906
-0.242456
0.220441
0.297263
-0.562856
0.265594
0.0859824
-0.0132333
-0.88584
-0.439811
0.654315
-0.214505
-0.642895
0.467534
0.175361
-0.00958521
-0.0399399
0.0495252
0.464902
0.489312
-0.0161965
-0.0205785
-0.0137596
0.118499
-0.69358
0.0675782
-0.742576
0.928455
-0.185879
-0.681949
0.73721
-0.0552604
-0.536151
-0.437123
0.973274
0.0960923
0.356962
-0.453054
0.424273
-0.437754
0.0134807
1.05009
-0.0573465
-0.992747
0.00223145
-0.761024
0.758793
-0.356411
0.849555
0.192983
-0.572925
0.379942
-0.648038
1.32193
-0.781818
0.546593
0.235225
-0.0161141
0.0235161
-0.00740202
0.524344
-1.24576
0.721421
-1.12018
0.369424
-0.562266
-0.496453
1.37642
-0.81274
-0.563685
-0.348045
0.329693
0.141889
-0.150475
0.00858593
-0.589466
-0.175274
0.76474
-0.969648
1.36263
-0.392979
1.00702
-0.771664
-0.235358
0.0455689
-0.22106
0.175491
-0.356359
-0.493372
0.849731
0.0817199
-0.288433
-0.617179
0.621788
-0.724998
-0.225227
0.950225
0.0997988
0.026944
-0.126743
0.143203
-0.583013
-0.363066
0.315406
0.860255
-0.0556923
-0.153946
0.121935
-0.170088
0.216314
-0.0462253
-0.299021
0.945154
-0.922312
0.565953
-0.187253
0.113049
0.0742032
-0.730905
0.147577
0.583327
0.29139
0.715633
1.31468
-0.790335
0.864787
-1.51666
0.651877
0.650413
-1.47207
0.821656
0.0469311
-0.432184
-0.502459
0.719205
0.642786
-0.951548
0.645437
-1.0392
0.393764
-1.61575
0.908749
0.706998
-0.0357593
-0.375865
0.190684
0.154859
-0.345543
0.707093
-0.256017
-0.451076
-0.126765
-0.791183
0.713969
-0.269778
-0.0930978
0.670341
1.01661
-0.791
-0.225606
-0.0114608
-0.138067
0.149528
0.646731
0.135725
-0.782457
-0.163672
-0.32131
0.484982
-0.36394
0.921754
-0.557814
-0.468809
0.728906
0.594336
-0.401353
-0.0802516
0.395171
-0.31492
0.999921
-0.425533
0.100395
-0.0083717
-0.0920237
-0.276242
-0.161613
0.437855
-0.115328
0.119785
-0.00445698
1.36858
-0.82705
-0.541533
0.252346
-1.22199
-0.126269
0.0109413
-0.838466
0.250106
0.58836
1.37608
-0.570467
0.234209
-0.976785
1.56088
-0.660304
-0.90058
-0.0133567
0.113156
0.92707
-0.53364
-0.39343
-0.616523
0.123468
0.493055
-0.912021
0.90685
0.0051712
0.585259
-1.28096
0.695702
0.0403203
-0.0173708
-0.0229494
-0.466317
0.610827
-0.14451
0.0401223
0.288072
-0.328194
-0.160232
0.0534661
-0.135625
0.0200127
-0.575903
-0.410612
0.39124
-0.947948
0.556707
-0.490637
0.438952
0.0516845
0.398239
0.227098
0.976881
-0.331444
-0.314695
0.145392
0.634413
0.741667
-0.511195
0.0381586
0.473036
0.433074
0.493996
0.398465
0.072708
-0.487707
-0.0029295
-0.304462
-0.0517846
0.356247
0.0150131
-0.0311271
-0.973412
0.609471
0.283195
-0.510491
0.227296
-0.950932
0.921317
0.029615
-0.36223
0.409107
-0.0468775
-0.182208
-0.124675
0.306883
0.76145
-0.840139
0.0786889
-0.950607
-0.665141
1.22834
-0.770846
-0.457492
-0.102317
0.0908565
1.3577
-0.772436
-0.572051
0.963292
-0.693753
0.258211
0.435542
0.952754
-0.269548
-0.683206
1.07068
-0.325977
-0.744702
-0.47029
-0.223463
0.859925
-0.519783
-0.340142
-0.180097
0.802862
-0.622765
-0.0396237
-0.658701
0.698325
0.125776
0.23588
-0.361656
-0.109391
-0.0292674
0.138658
1.27497
-1.11163
-0.16334
-0.539761
-0.487259
0.646709
0.369896
-0.872808
-0.0781245
0.143601
-0.419843
0.360648
-0.790359
0.429711
0.00321984
0.138669
-0.535881
1.11122
0.574902
0.793682
1.50634
-0.884239
-0.622103
-0.80724
0.582014
0.676234
-1.15558
0.479346
-0.629932
-0.055322
0.685254
-0.338407
-0.115366
0.453773
0.522391
-0.225128
-0.204499
0.0172463
0.476865
-0.0767732
-0.412415
-0.564971
0.824379
-0.259408
-0.201125
0.0310372
-0.253144
0.172892
0.103239
-1.01526
0.333262
-0.80207
0.154204
-0.175706
0.235397
-0.059691
0.0186502
-0.187141
-0.471158
0.350149
0.121008
0.343449
0.164439
0.611444
-0.322146
-0.289298
0.476389
0.126171
-0.422219
0.782867
0.577055
-0.0741473
-0.221568
-0.509336
1.23301
-1.03644
-0.196562
0.729368
-0.88514
0.444224
0.440916
0.800707
-0.8775
0.0767929
-0.456696
0.353952
-0.12658
-0.032535
-0.123259
-0.508614
0.3329
-0.560011
0.227111
0.420657
0.439268
0.653032
-1.10194
0.448913
0.282957
-0.55686
0.273903
-0.974072
0.177356
0.0336816
0.377808
-0.486996
0.72688
-0.239885
-0.236058
0.313158
-0.0770999
-0.479883
0.0248398
-0.126765
-0.25174
0.378506
0.0962389
0.00070157
-0.0969404
-0.287093
-0.226682
0.356863
0.452164
-0.809027
0.864586
-0.431512
0.259594
-0.451844
-0.00485161
0.496705
-0.213748
-0.657431
-0.124388
0.252649
-0.232019
-0.0206299
0.953069
-0.284232
-0.497694
0.766205
-0.268511
-0.127034
0.150417
-0.0233825
0.681243
0.0258503
-0.422243
-0.368116
-0.533325
0.942139
-0.408814
0.5866
-1.09232
0.505717
0.578131
0.650207
-0.0315914
0.0374921
-0.0059007
0.103396
-0.733328
0.615013
-0.922459
0.307446
0.0609578
0.0197297
-0.104104
0.649314
-0.388566
0.721828
-0.783402
1.43381
0.177831
-0.966988
-0.759282
0.407195
0.352088
0.65917
-0.124291
-0.534879
0.94663
-0.18518
-0.606385
-0.514087
-0.438305
0.679291
0.089044
0.188824
-0.277868
0.326963
-0.317742
-0.751195
0.647091
0.832068
0.228433
-0.801795
0.304101
1.00604
-0.359326
-0.351142
0.333649
0.0174937
0.0243596
-0.611925
0.587566
-0.898536
0.16169
0.736846
0.730933
-0.730933
-0.431202
0.848213
-0.41701
0.288733
0.322711
0.61478
-0.320671
-0.294109
-0.98273
1.02471
-0.0419784
0.361399
-0.0280486
-0.33335
0.276762
-0.10262
-0.174142
0.121328
-0.303536
0.251093
0.453103
-1.02515
-0.846839
0.996554
-0.149715
-0.293309
0.650171
0.0623893
0.0153602
-0.0777495
0.158112
-0.377948
0.219836
-0.384666
0.431597
1.41896
-1.1118
-0.307154
-0.0947441
-0.512308
0.607052
-0.24985
0.26859
-0.0187403
0.145322
-0.282572
0.13725
-0.849597
0.328293
0.521304
0.16888
0.0821425
-0.367238
0.0160954
-0.0231239
-0.0907793
0.113903
0.670244
0.604725
0.0981315
-0.0357422
-0.0566865
-0.25937
0.316056
-0.527217
0.832396
-0.305178
0.0510796
0.147859
-0.198938
0.38551
-0.298035
0.648878
-0.241855
-0.407022
0.0304987
-0.43471
0.236012
0.814082
0.4579
0.282583
-0.740483
0.479362
-0.402233
-0.0771288
-1.01293
0.191241
-0.377804
0.158353
0.219451
0.484588
0.74366
-1.22825
-0.645065
0.589743
0.0478527
-0.918898
0.871045
-0.137005
0.182574
-0.00889648
0.0158124
-0.00691594
0.0471467
-0.351609
-0.0187369
0.0618513
-0.0431144
-0.665452
-0.173014
0.62132
0.24089
-0.0891161
-0.151773
-0.138406
0.0113722
0.150803
-0.694656
0.543852
0.263507
0.518521
-0.782028
0.492185
-0.704256
0.854019
-0.149763
-0.731726
0.551629
-0.0169491
-0.0190376
-0.37782
-0.265075
-0.273473
0.0659186
0.207555
-0.905563
0.378346
0.65446
-0.749204
0.441567
0.564469
-0.35331
0.326059
0.0272514
0.287615
-1.19645
0.908836
0.170281
-0.282211
0.11193
0.358214
-0.780457
-0.625154
-0.0567948
-0.331769
-0.00969673
0.137808
-0.16049
0.022682
0.468348
0.00439963
-0.0239413
0.0195417
1.17225
-0.687667
-0.51866
0.858124
-0.339464
0.276158
0.191331
-0.46749
-0.350306
0.213301
-0.235259
-0.0382142
0.419873
0.194907
-0.228586
-0.594586
0.195013
0.0576354
0.602967
0.428423
0.148632
-0.951037
1.07444
0.119836
-0.436775
0.316938
-0.0890159
-0.82643
0.915446
-0.128059
0.143696
-0.0156369
-0.426387
0.522479
-0.575333
0.53571
0.737043
-0.221221
-0.399668
-0.0714896
0.00179015
-0.427447
0.425657
0.408729
-0.94488
-0.116768
-0.453245
0.570013
-0.131465
0.333576
-0.202111
-0.643138
0.0315815
0.611556
0.910484
-0.710398
-0.00863008
0.0935124
-0.0848823
-0.22783
-0.0220198
0.182975
0.378968
-0.561943
0.11843
-0.14621
0.0277808
0.561237
0.320782
-0.882019
-0.327396
1.0994
0.0919086
0.00433028
-0.289728
-0.610815
0.900543
0.318
0.60821
0.945026
-0.681519
-0.372986
0.246221
-0.152894
0.043503
-0.444066
1.1203
0.12059
-0.757352
0.636762
0.829933
-0.135417
-0.694516
-0.467682
0.675318
-0.207636
0.389922
-0.453194
-0.37632
0.829514
0.130052
-0.114887
-0.015165
-0.274845
-0.491036
0.765881
-0.208299
0.366411
0.0473777
-0.0569629
0.511162
-0.786007
-0.696044
-0.220459
0.916503
-0.0500683
-0.49932
0.549388
-0.130746
1.18848
-1.21235
0.0238684
0.211808
-0.126205
-0.0856038
-0.0254711
-0.327839
0.256458
0.250497
-0.342039
0.00363218
-0.811819
1.0166
-0.204785
-0.189527
0.472722
0.225142
0.507216
-0.803593
-0.258428
-0.0416823
-0.0893159
0.130998
0.533969
-0.105546
-0.216047
0.236136
-0.020089
0.372149
-0.332027
-1.19607
0.633807
0.920357
0.195908
-0.109909
0.255231
-0.212365
0.488524
1.00004
-0.546937
-0.221319
0.00527258
-0.128062
-0.623133
0.186633
0.243913
-0.237151
-0.921222
0.0226864
-0.0324965
0.220867
-0.0505861
-0.744348
0.531089
0.21326
0.622309
0.117168
0.203747
-0.0705802
-0.133167
0.317355
-0.281576
-0.0357786
-0.718931
0.255716
-1.05324
0.519911
0.523016
-0.300208
-0.222808
0.00322862
0.146312
-0.149541
0.972163
-0.00521613
-0.966947
0.174992
0.0115258
-0.186518
-0.148694
-0.2735
0.240656
-0.0267426
-0.0391205
0.0394886
-0.000368072
0.419207
-0.0286628
-0.390545
0.00369765
-0.0428182
0.78695
-0.661733
-0.0299199
-0.152237
0.182157
-1.01306
0.201246
0.0146196
-0.0770342
0.421942
0.0726141
0.168275
-0.072502
-0.242193
0.241144
0.189259
-0.430403
0.474957
0.13241
0.414002
-0.294166
0.212052
-0.187539
0.085921
-0.321979
0.560135
0.135499
-0.695633
0.551644
-0.0575604
-0.494083
-0.377679
-0.285133
-0.356548
0.0801181
0.27643
0.370258
-0.392201
0.0219429
1.11028
-0.0422335
-1.06805
-0.257052
0.115562
0.14149
-0.510927
0.686044
-0.175117
0.594164
0.635187
-1.22935
0.324536
-0.444116
-0.299925
0.452895
-0.15297
0.224697
0.103374
-0.328072
-1.19009
0.811738
0.378347
0.0361453
0.00334328
-0.84764
0.151596
0.321154
-0.193927
-0.127227
0.464011
-0.596459
0.132448
-0.0971081
-0.196959
0.174069
1.01441
0.824444
-0.150125
-0.674318
-0.831016
0.12676
0.342329
-0.563897
0.881363
-1.33709
0.455728
-0.107753
0.298437
0.00182286
-0.365201
0.308515
-0.167025
0.228365
-0.165073
-0.840349
1.00542
0.667839
0.689857
-0.748673
0.779771
-0.0310982
0.145297
-0.00748881
-0.57745
-0.228978
-0.120703
0.13521
-0.0145073
0.253289
0.135249
-0.388538
-0.124561
0.377845
-0.253284
-0.0760158
0.540027
-0.738344
-0.0640058
0.80235
-0.727828
-0.252688
0.980516
0.452845
-0.352151
-0.100693
-0.222026
0.0123746
0.209652
0.0405868
0.0180491
-0.0586359
-1.00003
0.047382
0.952645
0.0244746
0.199335
-0.22381
0.796227
-0.894003
0.0977765
-0.494588
0.214058
0.63444
-0.848498
0.0129495
-0.133653
-0.0145555
-0.959179
0.973734
0.654781
-1.30282
-0.947327
0.825903
0.121423
0.137846
-0.0194168
0.771448
-0.546306
-0.0556429
-0.200412
0.256055
-0.0115518
0.14736
-0.135808
-0.166837
0.872509
-0.705673
0.695612
-0.349182
-0.34643
1.03267
-0.975457
-0.0572078
0.73287
-0.258457
-0.474413
0.0422979
-0.235981
0.193683
-0.30452
-0.0184767
-0.925543
0.809345
0.116198
0.0502423
-0.975786
-0.283497
0.439811
-0.156314
-0.555472
-0.556158
0.202357
-0.169203
-0.0331546
-0.791486
-0.221579
-0.190783
0.131094
0.0596891
-0.408611
0.244939
-0.892297
0.865112
0.0271849
-0.157694
-0.0589113
-0.0395397
0.19336
-0.0183676
-0.581916
0.115599
0.149387
-0.170185
0.0207983
-0.205662
0.265133
-0.059471
0.403707
-0.0423086
-0.22396
0.662417
0.0188253
0.353093
-0.165156
0.09381
0.0713455
-0.0816337
0.505907
-0.634138
0.417702
0.216435
0.0372939
-0.00114857
1.33275
-0.664907
1.01041
-0.722799
-0.21613
-0.150466
0.366596
0.596271
-1.0866
0.490327
0.569712
-0.619781
0.935407
-0.425617
-0.50979
-0.0041922
-0.54027
-0.0938682
-0.509764
0.91157
-0.401807
-0.0228997
-0.396292
1.26108
-1.0602
0.268713
0.306188
-0.180412
-0.0876045
0.0970757
0.123033
-0.00324892
-0.489025
-0.4779
1.64691
-0.729138
-0.489439
0.310039
0.179399
0.0564807
0.220282
-0.64844
-0.450319
1.09876
0.192151
0.33024
-0.0054487
-0.146433
0.151882
0.821641
-0.107436
0.0519009
0.0555353
0.696033
-0.135899
-0.343895
-1.01456
0.167721
-0.22585
0.0128134
0.213037
0.639774
0.921111
0.153953
-0.358797
0.204844
0.975866
0.0567987
0.627758
-0.885031
0.257273
-0.82393
-0.005536
0.829466
-0.758264
0.98773
-0.229467
0.142518
-0.00652044
-0.135997
-0.59544
1.25022
-0.0500646
-0.490776
0.54084
0.0219083
-0.770581
0.368728
-0.16764
-0.201088
-0.944161
1.23386
-0.289695
-0.217012
0.554171
-0.337159
1.16259
-0.513794
-0.648801
0.0060398
-0.590457
0.584417
0.0145806
0.00123177
-0.50741
1.10157
0.394886
-0.826088
1.0721
-0.485495
-0.189805
0.159886
-0.856634
0.0327038
1.16062
-0.50759
-0.006386
-1.31788
0.288395
0.00263545
0.402883
0.574314
-0.977197
0.5459
-0.13868
-0.40722
0.399296
-0.915649
0.516354
-0.144003
0.00887868
0.135124
-0.197999
-0.498405
0.696404
0.353811
-0.26789
-0.156618
-0.0506456
0.207263
0.109354
0.260684
-0.370037
0.0772037
0.125154
-0.911814
1.06261
-0.150799
-0.152899
0.02484
0.462992
0.208935
-0.671927
0.500642
0.720273
-1.22092
0.17316
0.486011
-0.0164359
0.973916
-0.00581014
0.789123
-0.783313
0.0822556
-0.031176
0.0699477
-0.015833
-0.0541147
1.49148
-1.12135
-0.37013
0.43993
0.495477
-0.132291
0.104038
0.0282528
-0.269747
0.7891
-0.519352
0.00455948
0.167964
-0.172523
0.762062
-1.10775
0.345688
-0.20013
-0.612484
0.812614
0.823367
-0.176636
0.278834
0.267066
-0.450503
0.0639921
0.38651
0.29083
-0.803138
0.242679
-0.481815
0.239136
0.187397
-0.060411
-0.126986
0.0254424
-0.0108618
-0.0607626
0.565565
-0.504802
-0.186656
1.16134
0.753576
-0.619093
-0.134483
0.63855
-0.534846
-0.492079
0.160188
0.331891
0.130121
-0.450792
0.410962
-0.258389
-0.152573
0.0646976
0.13905
0.140229
0.734223
-0.874452
0.254813
0.164395
0.117859
-0.845687
-0.461259
0.084514
0.376745
-0.351019
-0.222549
0.573568
0.50272
-0.261576
-0.838427
0.545118
0.230633
-0.184342
-0.0462912
-0.467492
0.962251
-0.494759
-0.431856
0.462355
-0.482744
0.478304
0.00444047
-0.585077
0.985328
-0.400251
-0.0194642
0.215587
-0.196123
-0.242401
0.24563
-0.277139
-0.57585
0.923586
-0.347736
-0.556366
0.703943
0.495458
-0.522237
0.0267783
0.108891
0.380947
-0.489837
-1.2338
0.800366
0.433434
0.0240402
0.00857055
-0.0326107
0.102187
0.684879
-0.851715
1.03121
-0.434943
-0.306295
-0.452988
-0.702203
0.696393
0.474971
-0.00743735
0.359813
0.107217
-0.46703
-0.34278
0.314694
0.0280858
-0.415737
0.294309
0.121428
-0.273258
-0.339995
0.613253
0.122665
0.454406
-0.577071
-0.714753
-0.26796
0.982713
-0.359051
0.467942
0.98114
0.510344
-0.918966
0.555828
0.363138
-0.56093
0.191996
0.368934
0.00455446
0.186736
-0.237193
0.0504572
-0.531597
-0.80535
0.532091
0.137069
0.20399
-0.161692
-0.0643378
0.317627
0.076975
-0.8184
0.024072
0.29216
0.229905
-0.0269608
-0.202945
-0.669259
-0.518271
1.18753
-0.227108
-0.223395
-0.490612
-0.0944588
0.585071
0.0919022
0.22481
-0.316713
-0.00223907
1.12906
-0.739232
-0.389828
0.184313
0.64013
0.108614
-0.0510661
-0.468978
0.520044
-0.718369
1.07994
-0.36157
-0.550214
-0.252753
0.802967
-0.466672
0.166747
-0.373707
-0.118372
0.838132
-0.419509
-0.418623
0.421182
-0.0133247
-0.407857
0.355712
0.0659388
-0.421651
-0.172069
0.196544
0.0825696
-0.118484
0.0359149
-0.121978
-0.0289356
-0.213521
-0.00571267
0.441224
0.396908
-0.370764
0.901375
-0.47775
1.31718
0.453704
-0.0325223
-0.840192
0.289978
0.732156
-0.62876
-0.113579
-0.643398
0.132471
0.130243
-0.41374
0.7024
-0.67804
0.828917
-0.0282102
-0.195768
-0.117755
-0.235944
-0.0718388
0.307783
-0.303655
-0.0395584
0.7149
0.153542
-0.868442
0.00472958
-0.24549
0.24076
-0.0972349
0.464059
-0.921742
0.457684
0.85983
-0.0636034
-1.06519
1.16141
-0.0962126
0.20826
-0.146156
-1.03901
-0.194794
-0.291587
0.834784
-0.0254385
0.532548
1.08509
-0.395824
-0.689267
-0.625897
-0.0356733
0.66157
0.25939
0.459868
-0.719258
-0.695137
0.0519998
-0.167884
-0.11319
0.281074
-0.471329
0.591918
0.141313
0.495629
-0.636943
0.19322
-0.146162
-0.0470571
-0.951621
0.120261
0.83136
0.47854
0.552675
-0.265621
0.535107
0.197764
-0.260748
-0.117055
0.843075
-0.977682
0.46709
-0.111712
-0.355377
0.473186
-0.148649
0.667224
0.0332126
-0.700436
0.83413
-1.31188
0.000916306
0.039404
-0.200635
0.318758
-0.118123
-1.00781
0.993252
-0.0299635
0.29899
-0.269027
-0.131745
0.125203
0.00654225
-0.456139
0.0297517
-0.259445
0.601774
0.185604
0.337412
-0.152632
0.165582
-0.509178
0.187868
0.039877
-0.0572478
-0.1892
0.181201
0.00799885
0.205035
-0.229916
0.0248807
-0.475838
0.457787
0.127133
-0.617745
-0.0566463
-0.291399
9.99356e-05
0.555029
-0.555129
0.323932
-0.375717
0.0913162
-0.732635
0.641319
-0.23491
0.791318
-0.556408
0.229594
-0.794565
-0.521356
-0.0234727
-0.923854
0.763728
0.88318
-0.723372
-0.115055
-0.482958
-0.402182
-0.421918
0.170178
-0.0419265
-0.0238471
0.0657737
1.39294
-0.753167
0.795046
-0.180034
-0.236476
-0.153374
0.389849
-1.19293
0.561415
0.631517
-0.384206
0.274497
-0.546873
0.760931
0.160192
-0.0909627
-0.298238
-0.465809
0.415744
0.346065
-0.346758
0.000692537
-0.11685
0.83175
-0.385721
0.401998
-0.0162766
0.802439
-1.24922
0.56082
0.688399
0.161027
0.25182
-0.412847
0.547374
-0.173742
-0.373632
-0.522043
0.305031
-0.675749
-0.00750571
0.363218
0.884053
-0.973069
0.409781
-0.185084
-0.379045
0.669875
-0.793999
0.561282
0.232718
0.801134
-1.16181
0.360671
-0.674053
0.727747
-0.0536944
0.394176
-0.47581
0.0126924
0.206977
0.245868
0.231013
-0.857848
0.37685
-1.1185
0.674528
0.443971
0.225427
-0.851324
0.595792
-0.0295001
-0.587023
0.134822
0.279612
1.02698
-0.349135
-0.67784
0.0103973
0.239627
-0.590646
0.153946
-0.939002
0.903329
-0.74976
0.296566
0.457126
-0.648596
0.328812
0.319785
-0.876946
0.525184
0.351762
-0.196744
0.158452
-0.289917
-1.01459
0.70898
0.305613
0.665891
-1.26133
-0.899523
-0.0122909
1.30753
-0.426171
0.11881
0.11957
-0.23838
-0.0222213
-0.135264
0.157486
-0.0833961
0.444342
0.524517
-0.365379
-0.283217
0.150598
0.203213
0.206849
0.355024
-0.561872
0.37905
-0.224191
-0.0345256
-1.02567
1.06019
-0.314845
0.358549
-0.71496
-0.584815
-0.426561
1.01138
0.236341
-0.334109
-0.677114
0.204894
0.47222
0.0515717
-0.0385767
-0.0129949
0.690941
-0.856015
0.08537
-0.286005
0.62983
0.602859
-1.23269
-0.418422
-0.0710166
-0.817587
0.228218
0.589369
-0.865501
0.665371
0.338292
-1.05666
0.171451
0.295639
0.027051
0.0245207
-0.0259114
0.855844
-0.582659
0.74134
-0.158681
0.790847
0.00299529
-0.793842
-0.560757
-0.011495
-0.164211
0.062615
0.668318
0.121408
0.029009
0.283499
0.603967
-0.315235
0.483829
-0.206315
-0.209422
-0.841708
-0.0505889
-0.808785
0.278682
-0.812322
0.16836
0.19065
-0.359009
0.768652
0.0487666
-0.817418
-0.102504
0.0959832
-0.342984
-0.710252
-0.757853
-0.119647
-0.508461
1.34259
-0.326033
0.454328
-0.128294
-0.946288
0.277029
-0.281497
0.488346
-0.261636
-0.482713
-0.555672
-0.281964
0.295445
-0.395376
0.189715
0.95617
-0.121386
0.584212
-0.222146
-0.362067
0.025863
0.369308
0.252655
0.990587
-0.942734
-0.0157362
-0.218314
0.317924
-0.465808
0.503966
-0.448841
-0.557904
0.221267
0.164831
-0.386098
-0.767017
0.0360847
-0.123455
0.749806
-0.626351
-0.0372192
-1.02797
-0.65246
0.788185
1.44506
-0.65219
-0.792871
-0.115524
0.273877
0.703404
-0.355728
-0.347676
0.257609
-0.286545
0.0305285
0.0394192
-0.168514
0.0199102
0.148604
-0.0996571
0.45947
-0.5888
1.25469
-0.0194393
-0.149763
-0.26398
-0.0857821
0.349762
-0.0239174
0.714859
0.56728
0.0801657
-0.647446
-0.377587
0.560562
0.391567
0.397533
-0.433638
-0.0276211
0.520685
-0.200168
-0.320517
-0.0532918
0.0389799
0.0143119
0.146313
-0.753431
0.607119
-0.891181
0.133329
0.213401
-0.533282
0.811965
-0.0111925
0.268802
0.125814
-0.451848
-0.888373
0.450067
-1.01924
0.313807
-0.439655
0.0549891
-0.368051
-0.552823
0.920874
-0.769859
0.03532
-0.04081
0.00549004
0.988347
-0.772499
0.765093
-0.505703
0.128378
0.510494
-0.638872
0.169848
-0.337732
-0.456485
-0.320255
0.776741
0.302147
-0.38833
0.0861829
-0.647041
1.29849
-0.651454
0.688001
-0.473205
-0.214795
0.606888
0.0219677
-0.628856
-0.517541
-0.731679
-0.302442
-0.029327
0.386481
0.608439
-0.010341
0.0900278
-0.0796868
-0.659294
-0.158293
0.622279
0.543499
-0.518475
0.626374
-0.107899
-0.148866
0.200767
-0.0386581
0.244875
-0.206217
0.0220887
-0.40781
-0.11586
-0.898733
-0.904046
0.214817
0.0158163
0.0651862
-0.428252
0.0778849
0.686214
-0.764099
-0.476287
-0.105629
0.464739
0.399847
0.0652739
-0.243681
0.0549539
0.127773
-0.182727
0.0355363
-0.328073
0.292537
0.127186
0.281921
0.365255
0.806353
-0.385697
0.785913
-0.427364
-0.108533
-0.244501
0.353034
0.713846
0.0890155
0.0117319
-0.653781
0.455782
0.21884
-0.242757
-0.428046
-0.731602
1.15965
-0.594148
-0.598783
-1.06215
1.09655
-0.0343998
0.289202
-0.317318
0.245479
0.530305
0.276048
-0.274643
0.484251
-0.209609
-0.260181
-0.492504
-0.278614
-0.471435
0.750049
0.456026
-0.263875
0.493264
-0.250585
0.553972
-0.896956
0.420761
-0.332214
-0.471943
0.889285
-0.417341
0.685705
0.42316
0.304771
-0.727931
1.07612
-0.599604
-0.476515
-0.695808
-0.60868
1.04709
-0.438411
0.257662
0.32655
-0.280678
0.269485
0.405211
0.757384
-0.200986
0.178765
0.0208159
-0.0164163
0.899838
-0.5033
0.474184
0.918757
-0.39265
0.208497
0.184153
0.19313
-0.40926
0.700031
-0.0328078
0.329883
-0.211073
-0.626999
-0.117666
0.744665
0.177653
-0.0261206
-0.151532
0.138735
0.0730736
0.127347
-0.88561
-0.275487
0.322633
0.641274
-0.576357
-0.0649166
0.168286
0.352398
-0.142558
0.0719775
0.267234
0.200206
-0.46744
-0.363656
1.10244
-0.171775
-0.525491
1.06538
-0.539884
-0.246199
0.355552
0.203179
-0.00995966
1.0532
-0.537641
-0.335167
0.22047
0.326904
0.290615
-0.347261
-0.15827
0.138806
-0.277805
-0.131731
-0.00667538
0.124558
-0.151862
0.763669
-0.611807
0.0773185
-0.100442
-0.281302
0.0808901
-0.310431
0.00798932
-0.85314
0.563412
0.246286
0.206609
-0.396935
0.334723
0.0622124
0.222731
0.0555657
0.750582
0.4262
-1.17678
-0.0975825
-0.0146278
0.11221
0.172058
-0.690717
0.973182
0.471879
0.733954
-0.656069
-1.05275
-0.0620389
-0.0227632
0.0472837
0.427353
0.394619
0.354852
-0.749471
0.387508
-0.0635756
-0.0284268
-0.301493
-0.0911567
-0.519429
-0.37014
0.500261
0.451751
0.406373
0.516874
-0.527263
0.0103888
0.174885
0.00631639
-0.0614133
0.237858
-0.0328226
0.666221
0.159813
-0.826035
0.416612
-0.0705472
-0.214715
0.13166
0.0830544
-0.326089
-0.011878
0.337967
0.22332
0.566719
-0.790039
0.197862
0.304858
0.63865
-0.0180158
-0.250757
0.294496
0.309472
0.0665485
-0.130708
0.06416
-0.985029
0.488575
0.785135
-0.614832
-0.170303
0.0125461
-0.125306
0.11276
0.740197
-0.800959
0.55769
-0.101664
0.396193
0.3689
-0.123198
-0.00853297
-0.166956
0.0433522
0.123604
-0.500902
-0.110875
0.999144
-0.512475
-0.486668
0.434786
-0.0263355
-0.40845
0.406573
-0.661702
0.255129
-0.0884788
0.463517
0.0331881
-0.518238
1.09749
-0.579253
-0.113161
-0.0537949
-0.454227
0.442651
-0.0406533
0.672917
0.00283496
-0.675752
-0.306617
-0.00707024
0.236976
0.12754
-0.0235019
0.173113
0.145646
-0.437195
0.312634
0.0073522
-0.0791661
-0.103977
0.122265
-0.368637
0.497015
0.00451211
0.239401
0.243778
-0.20774
0.605978
-0.0412529
0.558127
-0.134355
-0.107923
-0.197911
0.465145
-0.134506
0.852023
-0.717517
-0.735039
-0.112601
-0.772223
1.17483
-0.402609
0.0287835
0.413867
0.302573
-0.054429
-0.0159262
-0.231855
0.247781
-0.783418
0.245778
0.110594
-0.119224
0.534853
-1.18329
0.392149
-1.00296
-0.781763
1.12329
-0.445398
0.476698
-0.276492
0.0102855
-0.555679
0.701992
0.000955261
-0.139022
0.113725
-0.465876
-0.10008
-0.551796
0.651877
-0.489735
0.536538
1.34437
-0.884225
-0.460147
-0.200651
0.0678929
0.19954
0.019341
-0.218881
-0.733688
0.151029
0.173184
0.0142124
-0.00506211
-0.1136
0.118662
0.472257
-1.24448
0.086602
0.407442
0.041212
-0.448654
-0.94819
0.813685
0.128469
0.0345202
-0.162989
0.351967
-0.927817
-0.129742
-0.000327768
0.13007
0.164609
-0.0361398
-0.00347256
0.662528
-0.489368
0.53288
0.465765
-0.267903
-0.820252
0.235436
-0.601119
0.49775
0.103369
0.680404
-1.10845
-0.469023
-0.265918
0.734941
-0.000986193
0.373562
-0.280809
0.25276
1.03721
-0.152679
-0.884527
-0.0124206
-0.829288
0.55559
0.051298
0.34929
0.354114
-0.144549
-0.00188447
0.127822
-0.224887
-0.335124
0.0399816
-0.0336404
-0.00634117
0.0150119
-0.60391
0.588898
-0.117749
0.335015
-0.217266
0.44887
-1.03446
0.585588
-0.0761303
-0.48428
-0.0284948
0.0160402
0.608701
-0.324255
-0.167681
0.491936
-0.3308
-0.334652
0.411632
-0.246801
0.266
0.164245
-0.430245
-0.214565
-0.18237
-0.7351
-0.106793
-0.0442343
0.151028
0.181066
0.174483
-0.355549
0.374767
-0.760955
0.386188
0.0417108
-0.500467
0.152014
-1.09617
-0.519279
-0.865535
1.38481
-0.84339
0.0318583
0.811532
-1.10294
-0.708786
0.0347331
-0.283294
0.275794
0.00750034
-1.3212
-0.299107
0.965328
0.358468
-0.169209
0.100226
-0.298137
-0.132961
0.437819
0.134809
0.0876001
-0.35158
0.0136041
-0.110873
0.0972693
-0.171745
0.0401033
-0.0741438
0.08669
-0.276537
0.437565
-0.937206
0.56168
0.375526
-0.127969
-0.0765303
0.477475
0.184741
-0.00708841
0.170861
-0.445503
-0.444428
-0.232686
-0.496642
0.16122
0.335422
-0.0684941
0.301277
-0.232783
-0.393532
0.429068
-0.0757628
0.65909
1.01557
-0.448287
0.454177
-0.784977
0.37859
-0.494853
0.116263
0.0991136
-0.00560117
0.0352224
0.00226978
-0.908944
0.540893
0.0524131
0.382373
0.012729
-0.175854
0.163125
-1.46892
0.577218
0.295454
-0.457067
-0.172496
-0.0173513
-0.198856
0.216207
-0.510395
0.18614
-0.981146
0.865287
1.31081
-0.680975
-0.19139
0.178187
0.013203
-0.101826
0.0125103
-0.134804
-0.675577
0.143469
0.532107
-0.127237
0.112609
-0.00776498
0.295624
-0.287859
0.325236
0.232454
0.129798
-0.0934624
-0.0363351
-0.258707
0.263219
0.0777621
-0.0168043
0.420586
-0.854625
0.93381
0.0420564
-0.550943
-0.0929704
0.846248
-0.0380128
-0.808236
-0.125214
-0.305972
0.431186
0.458341
-0.947366
-0.357187
0.718175
-0.360988
-0.0011005
-0.0112741
0.0123746