/*--------------------------------*- C++ -*----------------------------------*\
| =========                 |                                                 |
| \\      /  F ield         | OpenFOAM: The Open Source CFD Toolbox           |
|  \\    /   O peration     | Version:  2306                                  |
|   \\  /    A nd           | Website:  www.openfoam.com                      |
|    \\/     M anipulation  |                                                 |
\*---------------------------------------------------------------------------*/
FoamFile
{
    version     2.0;
    format      ascii;
    arch        "LSB;label=32;scalar=64";
    class       volVectorField;
    location    "7.9";
    object      U;
}
// * * * * * * * * * * * * * * * * * * * * * * * * * * * * * * * * * * * * * //

dimensions      [0 1 -1 0 0 0 0];

internalField   nonuniform List<vector> 
13486
(
(1.42444 -0.215932 5.62401e-19)
(1.659 0.284245 2.85766e-19)
(2.6934 0.0367272 0)
(-1.98277 0.918345 -1.41203e-18)
(2.34453 -0.435604 5.71707e-20)
(2.48393 0.174565 1.2297e-21)
(2.47305 -0.205846 -7.06356e-21)
(1.97826 -0.69507 -2.10103e-19)
(1.93197 -0.372232 0)
(1.97444 0.763487 0)
(-0.856224 2.56498 -9.26587e-19)
(2.50471 -0.0750021 0)
(1.26447 -0.412713 -5.51544e-19)
(2.42895 0.790402 -8.07008e-21)
(2.3783 -0.2315 4.31152e-20)
(1.93241 0.753392 -2.03557e-19)
(0.965393 -0.254231 7.06749e-19)
(0.584909 -0.645788 1.99236e-19)
(2.18359 -0.0118768 2.56932e-21)
(1.6069 -0.0476712 -5.76735e-19)
(-1.99808 0.378666 -5.57379e-19)
(1.28507 -0.428518 7.11512e-19)
(1.68055 0.279091 -2.28421e-19)
(3.96449 -0.692179 0)
(2.03156 0.615838 6.95624e-20)
(3.84252 -0.662099 -3.59376e-19)
(0.398067 -0.224798 8.11974e-19)
(3.00129 -0.207919 5.93735e-19)
(2.02702 0.11279 0)
(2.83663 -0.4685 -4.67425e-19)
(-1.5984 -0.406903 -3.46338e-19)
(2.37835 -0.188302 -1.07297e-19)
(3.32963 -0.0176288 4.61311e-19)
(2.2589 -0.142423 0)
(1.98761 -0.667789 0)
(1.71306 0.0125854 1.39263e-21)
(1.60382 0.127211 -5.21641e-20)
(1.44999 -0.68024 2.5624e-19)
(1.78833 -0.180884 -1.6579e-20)
(1.9632 -0.227468 2.59584e-19)
(2.53506 -0.742233 0)
(0.847454 -0.419751 -6.44642e-19)
(1.98634 -0.00342424 0)
(2.04945 0.513552 -3.28422e-19)
(2.06786 0.513007 1.35355e-19)
(2.50505 -0.0749287 8.47461e-20)
(-0.93513 -0.175611 1.35431e-18)
(2.0079 0.111114 -1.64271e-22)
(1.62192 0.132624 3.93794e-20)
(2.84739 0.0148235 2.02052e-19)
(1.9995 0.0264524 3.53309e-19)
(1.84727 -0.0441558 0)
(2.5208 -0.173871 -1.37406e-19)
(1.61711 -0.598041 -3.79406e-19)
(0.601519 -0.90163 0)
(2.30973 -0.445983 -5.23873e-20)
(2.42846 0.680434 3.97599e-20)
(1.84184 -0.0950827 -7.45129e-20)
(3.3187 0.0121834 5.57769e-19)
(1.33253 0.106654 0)
(-0.935304 2.62019 -1.25532e-18)
(1.32953 0.150496 0)
(3.68724 0.609362 -3.76261e-19)
(-1.92487 0.38448 -5.8912e-21)
(2.21265 -2.52088 0)
(1.56836 0.149643 -2.79622e-20)
(-2.24328 1.00733 -1.44952e-18)
(1.41236 0.0485496 1.96757e-19)
(1.93201 -0.394612 -1.41743e-19)
(1.60441 0.0120854 1.79273e-20)
(-2.05519 0.954569 1.65902e-18)
(0.627931 -0.826267 8.16933e-21)
(1.98403 -0.109681 1.99466e-19)
(-0.733505 0.107233 -4.51339e-19)
(1.51705 0.248583 -7.68422e-21)
(2.47754 0.622262 -7.54261e-21)
(1.53796 0.255213 2.01125e-20)
(2.38517 -0.240314 -1.59508e-20)
(-0.7753 0.151438 -7.10155e-19)
(1.85663 -0.600556 0)
(1.97226 0.0261133 8.47641e-22)
(1.60095 0.383812 -1.82848e-20)
(3.47191 0.541519 -1.79789e-20)
(2.77999 0.0290132 -2.78591e-21)
(1.41588 -0.228188 -1.10019e-18)
(1.30165 1.63321 0)
(1.59036 -0.313572 -1.32361e-22)
(2.00165 0.0409485 -5.38737e-19)
(1.86662 0.212825 -2.33369e-19)
(1.81283 1.01665 -2.36628e-19)
(2.41529 -0.225733 -8.22091e-20)
(2.12096 -0.577965 -9.85448e-20)
(1.48285 -0.316561 1.42301e-19)
(1.64811 0.0843098 1.53565e-20)
(1.82774 -0.564781 5.67895e-20)
(1.99105 0.0926505 3.05664e-23)
(0.423468 -0.224576 0)
(-2.51482 1.07272 9.02189e-19)
(1.97743 -0.22468 -4.95779e-19)
(1.15459 -0.196638 5.96081e-21)
(1.88078 0.0210817 0)
(2.39823 0.785254 -6.4787e-21)
(-2.58022 0.97882 5.06101e-20)
(1.83673 -0.0792824 8.73256e-20)
(1.26828 1.58101 0)
(1.11353 -0.118186 7.95363e-21)
(1.97716 0.0620967 1.93601e-22)
(1.79923 -0.206261 -3.6632e-20)
(-0.795494 0.128728 9.34678e-19)
(1.79658 -0.80429 0)
(1.25715 -0.602784 0)
(2.36168 -0.176569 -8.57523e-20)
(1.62768 -0.579934 3.68378e-21)
(2.352 0.336219 -3.6209e-22)
(1.04735 -0.0528738 0)
(1.20116 -0.593193 -2.01573e-19)
(2.02622 0.632823 0)
(2.37236 -0.115133 0)
(1.97437 -0.109651 0)
(1.69736 0.135833 -2.04348e-20)
(0.68468 -0.601816 -8.83934e-20)
(-1.15801 2.62651 0)
(1.7978 -0.508551 0)
(1.79537 -0.183778 5.34562e-20)
(1.87358 -0.651433 0)
(1.83567 -0.0411046 0)
(2.19718 -0.238002 4.97796e-21)
(2.20333 0.0773876 1.34129e-19)
(1.91066 -0.0654721 -6.57335e-20)
(2.54251 -2.57844 -5.81754e-19)
(1.81879 -0.0293131 -9.18288e-21)
(-1.15235 -0.257795 -3.41581e-19)
(0.42136 0.459376 8.38751e-19)
(-0.220243 0.157848 5.89951e-19)
(1.99949 0.0134777 -5.73348e-20)
(1.89194 0.42045 -2.78353e-19)
(0.626615 0.720248 -1.69523e-19)
(1.8167 -0.795268 0)
(1.7113 0.131026 5.65971e-21)
(2.01077 -0.551679 -8.06676e-20)
(3.13378 0.083734 -4.68183e-19)
(2.51282 -0.186549 1.16381e-19)
(2.41842 -0.168091 0)
(1.88689 -0.571147 0)
(2.09414 0.00272227 -4.19983e-22)
(3.76804 0.541928 -7.70476e-19)
(2.13262 -0.114162 -1.33071e-20)
(0.273925 1.63486 0)
(2.859 0.039078 0)
(2.03228 0.105414 0)
(2.01058 0.0196105 5.80778e-21)
(2.41771 -0.302179 0)
(1.96122 0.0143374 -8.89753e-22)
(1.57688 0.382652 -1.56137e-19)
(2.1925 0.330723 0)
(2.88002 0.0518651 0)
(1.63325 -0.731595 0)
(-0.579103 0.415386 2.12899e-19)
(1.71704 -0.684621 5.10285e-19)
(1.94663 -0.613539 -1.20871e-19)
(2.72756 0.0228909 1.04079e-19)
(1.72638 -0.664438 -7.72751e-19)
(2.33929 -0.267131 7.8377e-20)
(0.753751 -0.358359 2.82151e-19)
(1.85928 -0.0588043 0)
(2.53688 0.784827 -3.36731e-20)
(2.35144 0.715902 8.17517e-20)
(0.425249 -0.122607 -7.12011e-19)
(2.10232 -0.116618 3.33365e-20)
(-0.232041 0.173458 1.58954e-19)
(0.286679 0.41185 1.33714e-20)
(2.18701 0.303051 1.12071e-19)
(1.99753 0.0834742 -4.53361e-19)
(2.30984 -0.159021 7.22342e-21)
(1.96038 0.0543333 -2.67045e-22)
(-2.28178 1.03987 0)
(2.39393 1.10544 6.27146e-21)
(3.22968 0.165218 6.16331e-19)
(1.98506 0.0583983 -5.53233e-19)
(2.42373 -0.158558 0)
(2.01202 -0.274281 5.02165e-19)
(2.34544 0.304703 -2.86029e-22)
(2.35821 -0.144234 -2.27804e-21)
(-0.733424 0.57067 0)
(2.66438 -0.0481916 1.6018e-20)
(2.77242 -0.19019 -2.66949e-19)
(2.09525 0.0995552 -3.01037e-22)
(2.76493 -0.344405 -1.33007e-19)
(2.55381 -0.718039 0)
(1.07718 -0.519227 -2.67206e-19)
(1.6563 0.152146 0)
(2.51476 0.0599645 0)
(1.88778 -0.142336 0)
(1.26963 0.83434 -3.30788e-19)
(1.9373 -0.174873 0)
(-1.08426 2.53188 -2.61831e-19)
(2.34985 -2.79121 1.26392e-18)
(2.63281 7.4094e-05 6.16662e-20)
(1.0721 -0.529124 -1.15513e-19)
(2.51689 0.746234 -3.64709e-21)
(-1.59108 -0.492119 3.59203e-19)
(2.21476 0.0980962 -4.07564e-21)
(1.33299 -0.643138 -2.96134e-19)
(1.7512 -0.742906 -1.78656e-20)
(2.01242 -0.753191 1.48462e-19)
(1.96111 -0.162409 -6.69824e-20)
(0.110391 -0.793539 4.80433e-20)
(1.906 -0.0448135 4.25187e-19)
(1.87285 -0.147018 0)
(2.6803 -0.0312891 0)
(3.01625 -0.239145 4.39887e-19)
(3.73184 -1.24796 7.69511e-19)
(1.62517 -0.0334897 5.27825e-19)
(1.97064 0.0610257 2.91563e-22)
(2.48049 0.216614 -1.41646e-21)
(2.23986 -0.864806 5.54874e-20)
(2.87213 -0.401642 0)
(1.81073 1.00077 5.79521e-19)
(1.56945 -0.340146 0)
(3.13286 0.858718 0)
(1.1156 -0.245672 -1.35208e-18)
(2.8911 0.0775564 0)
(1.99139 -0.547351 1.84955e-19)
(2.69474 0.0371067 0)
(2.57991 -0.199761 -2.35167e-20)
(1.22868 -0.578029 1.93754e-19)
(2.60369 0.385569 -3.32353e-21)
(-1.73596 -0.874582 3.72657e-19)
(2.15859 -0.543623 8.84351e-21)
(1.63797 -0.315468 -3.08609e-21)
(2.02171 -0.26559 -1.61798e-19)
(1.75586 -0.113639 4.63574e-19)
(3.17366 0.0707701 5.85943e-19)
(0.869551 -0.421297 2.21636e-19)
(-2.42816 0.50964 0)
(1.04248 -0.507373 2.25046e-20)
(2.62652 -0.289434 2.28706e-19)
(2.52527 0.0441868 2.69241e-21)
(0.91166 -0.44046 6.12237e-19)
(2.36853 -0.0922773 0)
(3.39982 -0.0162132 0)
(2.00306 0.0606759 6.92597e-19)
(2.41596 0.193978 0)
(0.919542 -0.456271 2.0007e-19)
(1.73976 -0.231156 -3.15041e-20)
(1.80951 0.0779795 0)
(2.23155 -0.012268 -3.55663e-20)
(3.29308 -0.649311 9.91473e-19)
(-0.226025 -0.0810277 9.61538e-19)
(2.0149 0.488515 0)
(-2.6934 1.56992 -4.42373e-19)
(1.01164 -0.0237629 8.4075e-20)
(1.01878 -0.499599 2.49751e-19)
(1.80798 -0.211266 0)
(2.02726 -0.511867 4.73627e-20)
(-2.00375 1.33057 3.79015e-19)
(2.3785 -0.19184 9.63814e-20)
(2.20005 -0.8909 -7.02586e-20)
(-0.207746 0.43948 -2.21077e-19)
(3.39079 -0.0405319 4.14224e-19)
(1.77544 0.228163 0)
(1.72788 -0.225257 -9.91287e-22)
(2.37005 -0.235032 -1.05816e-19)
(-2.27321 1.28741 -4.68217e-19)
(2.24962 -0.679789 -6.20364e-20)
(-0.805991 0.707288 0)
(2.18295 -0.524802 -1.22882e-19)
(-1.9425 -0.181812 -5.73273e-19)
(2.14516 -0.00440298 -2.31807e-19)
(1.13208 -0.464258 0)
(1.51481 0.914699 2.42588e-19)
(1.97653 0.0641659 -1.52031e-19)
(2.89922 -0.424027 0)
(2.53459 -0.118129 7.19885e-20)
(1.15706 -0.556676 2.55996e-19)
(3.18477 -0.678976 -5.54274e-19)
(2.03603 -0.469127 0)
(0.969113 -1.743 0)
(1.82695 -0.241422 -3.98473e-20)
(2.24173 -0.100655 2.77183e-20)
(0.976006 -1.85406 2.27077e-19)
(2.12681 -0.180616 -1.81225e-19)
(1.94524 0.0827339 3.2883e-19)
(4.13923 0.0965063 -7.56392e-19)
(-1.39892 2.53856 1.49763e-18)
(0.625363 -0.185736 1.35356e-18)
(3.09881 0.171583 4.60372e-19)
(1.85384 -0.0879165 8.61973e-20)
(2.6643 -0.202329 3.38269e-20)
(2.11514 0.00440274 0)
(-2.43884 0.622306 0)
(1.56492 -0.250634 3.99152e-20)
(1.23371 -0.593891 2.04257e-19)
(1.99782 0.0201753 -5.63105e-20)
(2.67327 -0.277568 2.13161e-19)
(2.70183 -0.325914 0)
(2.13724 -0.0326882 -1.39662e-19)
(2.55193 -0.0988801 -5.56303e-20)
(1.93723 0.0676777 -3.00394e-19)
(2.59491 -0.356097 -9.87862e-20)
(1.98149 -0.231743 -9.44025e-20)
(0.224731 -0.831707 1.39888e-20)
(2.27373 -0.101628 -2.38399e-20)
(2.37419 -0.186925 1.04179e-19)
(1.67684 0.0974339 8.82817e-21)
(1.44727 -0.654848 0)
(0.955643 -0.0247142 0)
(2.20502 -0.0284773 7.22799e-20)
(1.63683 -0.346064 3.12245e-21)
(1.6381 0.149916 0)
(1.79714 1.24851 -1.10014e-18)
(-1.94343 0.9515 0)
(2.2986 1.07708 3.23639e-20)
(2.35948 -0.183248 -1.02159e-19)
(1.31205 1.82021 0)
(1.88025 0.412678 -1.72714e-19)
(1.52705 -0.274709 -5.98469e-20)
(1.86284 0.201447 -1.99939e-20)
(1.89982 -0.037383 -4.71226e-19)
(2.26387 -0.536172 0)
(1.5853 0.159516 5.11214e-20)
(1.61166 -0.186887 -5.2353e-22)
(1.993 0.0560458 7.00102e-20)
(1.63032 0.130242 -2.89293e-19)
(0.726251 0.69453 3.12832e-19)
(2.40678 -0.216819 1.64116e-19)
(2.23362 -0.316757 -3.90995e-19)
(2.14051 -0.179864 0)
(2.6091 -0.0842109 1.13007e-21)
(2.26715 -0.314478 -5.88032e-20)
(2.00086 0.027253 7.80723e-19)
(2.14929 -0.57669 0)
(2.39243 -0.246516 -4.38165e-20)
(1.43306 0.377658 0)
(2.49828 -0.200017 1.0068e-19)
(1.90006 -0.520745 -1.4918e-19)
(0.674253 -0.316594 2.69377e-19)
(2.40454 -0.324722 -3.64597e-20)
(2.01823 0.189907 0)
(1.71576 -0.232539 -4.90899e-20)
(2.22055 -0.540416 1.34316e-19)
(1.64017 0.13748 2.73173e-19)
(2.2846 -0.315717 2.52356e-19)
(2.35171 -0.145253 1.55212e-19)
(-2.07716 1.9143 -1.01543e-18)
(2.00938 0.10258 1.52468e-22)
(2.23882 -0.16703 0)
(1.00011 -0.350186 6.45479e-19)
(3.14888 0.834441 0)
(1.58653 -0.250169 3.79012e-22)
(2.28386 -0.0848768 2.9443e-19)
(2.5861 -0.0992689 -5.39978e-20)
(2.54243 -0.116966 5.53973e-20)
(0.400919 -0.199115 -9.53203e-19)
(1.94585 0.0672511 3.74595e-19)
(1.89057 0.0229041 0)
(-0.539049 0.287205 -4.20336e-19)
(2.2045 -0.238757 -9.79162e-20)
(1.66492 -0.329356 -5.05275e-21)
(3.44746 -1.32037 6.06906e-19)
(2.40341 -0.0165035 0)
(2.47073 -0.240232 1.15582e-19)
(1.79534 0.158043 5.88747e-19)
(1.97266 0.0723282 4.62819e-19)
(2.86633 -0.488563 0)
(1.95778 0.00805495 -2.96188e-22)
(2.73456 -0.316933 -2.14815e-19)
(-1.39215 -0.643651 2.01192e-19)
(1.58775 -0.0489828 7.33459e-20)
(2.20702 -0.207692 9.3087e-20)
(2.0325 0.00771489 -7.93961e-22)
(2.23456 -0.16366 0)
(2.5891 -0.19317 -7.7696e-20)
(-2.6514 1.72457 4.34123e-19)
(2.44616 0.435225 -1.54974e-20)
(1.99798 0.0259302 2.97333e-19)
(1.38645 0.0284862 0)
(1.65037 -0.22566 -6.01055e-20)
(1.40327 1.82965 0)
(3.22685 1.30664 -2.4635e-19)
(2.15509 -0.0233114 0)
(2.1357 -0.669108 -7.51549e-21)
(1.32045 -0.112652 -1.57799e-19)
(1.50341 0.846056 5.75802e-19)
(-1.29907 -0.442707 -7.6716e-19)
(2.07166 -0.467896 0)
(2.39086 0.0652399 -9.05962e-20)
(2.0246 0.198224 -1.84568e-19)
(0.978691 -0.570331 -3.81053e-19)
(-1.42924 -0.018623 4.4877e-20)
(1.65282 -0.0481499 -7.94444e-19)
(2.94362 -0.365743 2.20477e-19)
(2.09324 0.198754 1.34227e-19)
(1.45399 -0.446587 0)
(1.36015 0.309583 3.1753e-19)
(1.73763 0.160487 -1.47841e-20)
(-2.12219 1.00042 8.34145e-19)
(-2.67756 1.6323 -1.47571e-18)
(1.18203 -0.526762 -8.12584e-19)
(3.13434 0.146853 0)
(1.04312 -0.57687 0)
(1.97882 1.18374 0)
(2.1239 -0.0806123 0)
(1.04861 -0.145876 -2.24381e-19)
(2.45154 -0.179136 0)
(1.45996 -0.234717 0)
(1.6698 0.101484 1.11747e-19)
(3.22921 0.184594 -6.39474e-19)
(2.21294 -0.157521 -2.35833e-19)
(1.7005 0.326513 9.77858e-19)
(2.00587 0.0204617 -9.44393e-20)
(2.2768 1.705 0)
(2.98578 -0.281527 0)
(1.9284 0.0714733 3.20891e-19)
(2.02504 0.0512614 5.72134e-20)
(1.28579 0.886746 0)
(-0.86307 0.585034 1.0601e-18)
(2.23209 -0.699611 6.98328e-20)
(-0.273604 0.0913302 0)
(2.3652 -0.092295 1.61017e-19)
(1.98056 0.0574335 -3.71353e-19)
(0.28087 0.18264 -8.43783e-20)
(0.994528 -0.336084 0)
(2.00862 0.203354 3.41912e-19)
(2.66089 0.22717 0)
(2.76341 -0.342687 0)
(2.22325 0.207986 -1.90618e-20)
(1.93913 0.0871846 1.73419e-19)
(0.401164 -0.244371 -1.05099e-18)
(2.31025 0.703777 3.87965e-20)
(1.33278 -0.337243 -2.72984e-19)
(2.13291 -0.0710873 3.33788e-20)
(2.09674 0.193703 1.05429e-19)
(2.70083 -0.196748 1.89077e-19)
(2.33898 -0.666101 0)
(3.31683 -0.508263 4.74775e-19)
(1.32863 -0.0523639 0)
(1.60296 -0.233696 3.41884e-20)
(2.29494 -0.167286 0)
(1.43669 0.0627215 4.16919e-19)
(-0.581079 -0.449124 -1.2143e-18)
(2.9036 -0.351102 0)
(-0.195391 0.10544 2.67231e-20)
(3.00132 -0.309827 -4.73149e-19)
(1.71716 -0.26821 -1.53684e-20)
(1.78189 -0.256914 7.1072e-19)
(1.39708 0.8295 -3.62872e-19)
(1.32318 -0.326929 -7.81998e-19)
(3.36541 1.29326 0)
(1.6821 0.12842 2.03728e-20)
(-2.05554 2.04275 -2.55762e-18)
(2.0132 0.211157 0)
(1.8445 0.226223 2.17695e-20)
(2.97718 -0.0183087 -4.29409e-20)
(2.67667 1.1802 0)
(2.00364 0.0174941 0)
(-1.98703 1.14302 0)
(-2.01605 0.683006 1.80131e-18)
(3.7804 0.0782175 9.11055e-19)
(3.49208 0.581422 1.66489e-20)
(2.26697 1.03202 0)
(1.71594 -0.164954 4.99898e-19)
(1.95143 0.0549233 5.76408e-22)
(2.30887 0.649362 -8.23297e-20)
(-1.9658 0.6974 1.05458e-18)
(1.91132 0.160584 0)
(2.01571 0.111438 0)
(0.730695 -0.111208 -4.46773e-19)
(1.42619 -0.438079 -1.87846e-19)
(1.96877 -0.17317 0)
(1.31331 -0.632242 -1.56941e-19)
(1.9028 0.0239949 1.71771e-22)
(1.99418 0.0851206 3.3719e-23)
(0.7573 -0.352691 0)
(1.95209 -0.0506038 8.69804e-20)
(1.72509 0.133861 1.49851e-20)
(2.65843 0.203626 8.98468e-20)
(1.88453 -0.542331 0)
(0.722346 -0.14096 -2.0401e-18)
(2.56033 -0.103228 6.06674e-20)
(2.00144 0.0872981 7.11203e-20)
(1.83651 0.0367747 6.74412e-21)
(2.6071 0.774987 0)
(1.67498 0.322389 -2.60493e-19)
(3.14254 0.60367 -2.04926e-19)
(1.23546 -0.455059 1.69774e-19)
(2.00796 0.0493301 0)
(-1.48849 -0.0553749 -4.60434e-20)
(0.470912 -0.0903668 0)
(2.00454 0.0468152 -2.77354e-19)
(1.99166 0.064763 1.17676e-19)
(1.88714 0.0478729 -6.25208e-20)
(-2.17075 0.972898 0)
(2.30518 0.0270671 -1.56277e-20)
(1.08393 0.457248 8.71253e-19)
(2.30292 -0.661966 0)
(1.63792 0.0888435 3.47678e-19)
(2.56113 -0.38524 1.12749e-19)
(2.21156 -0.0160303 0)
(-1.90728 -0.327774 3.01204e-19)
(1.8769 -0.546285 -7.55801e-20)
(2.04879 0.00244798 0)
(0.9861 0.0308422 1.33278e-18)
(1.83321 0.214863 0)
(1.68713 -0.764944 1.93113e-19)
(-2.74969 1.53029 8.9713e-19)
(2.09126 0.111433 3.24355e-22)
(2.50714 0.176894 -2.32416e-20)
(1.35285 0.290528 1.67506e-19)
(1.77171 -0.283182 -2.61457e-19)
(2.0747 -0.425365 -5.24731e-20)
(1.72592 -0.771339 3.29213e-21)
(2.1891 -0.212979 9.33495e-20)
(2.59261 0.781465 7.82094e-20)
(1.87945 -0.820603 0)
(1.99719 0.0215002 -2.63685e-19)
(-0.0315114 0.164448 -4.36815e-19)
(1.35585 -0.0636247 0)
(1.73914 0.254242 -4.21386e-21)
(1.56398 0.0083621 0)
(1.21364 -0.353281 6.77598e-19)
(2.10782 -0.745204 0)
(1.75762 0.00269898 -5.04458e-21)
(2.30108 -0.0829637 -1.67943e-19)
(-1.7892 -0.574231 5.62185e-19)
(-2.29056 1.26927 1.3407e-18)
(2.30608 -0.0178149 -1.47703e-21)
(1.3672 -0.643028 9.30581e-20)
(1.7822 -0.503305 2.36235e-19)
(1.47716 -0.320372 0)
(0.116506 -0.0133825 -5.76849e-19)
(2.35731 -0.588942 -1.57557e-20)
(0.123464 0.023148 -6.71734e-19)
(1.99792 0.096594 -4.11821e-24)
(1.44224 -0.562542 0)
(2.23268 -0.0204431 -1.56159e-21)
(-0.958559 0.743861 0)
(-2.62241 1.02306 5.25988e-20)
(0.135319 0.122991 1.02368e-19)
(0.14009 0.372384 0)
(2.07733 -0.504343 5.71548e-20)
(2.16287 -2.61114 0)
(2.69439 1.09515 0)
(1.46342 -0.68929 -2.55156e-19)
(1.46247 0.348544 2.58228e-19)
(1.6655 -0.696958 0)
(1.80179 0.18319 -1.62539e-19)
(3.3366 0.566259 7.79962e-19)
(-2.58035 1.82881 1.95457e-18)
(2.66045 1.43585 0)
(2.18151 -0.0456245 0)
(-1.93254 2.09936 -1.10808e-18)
(1.89373 -0.104391 0)
(2.71782 0.0160053 0)
(-1.07762 2.63065 -1.36096e-20)
(2.07431 -0.36074 -2.99852e-19)
(1.74777 -0.414857 2.10463e-19)
(3.4648 -0.106079 6.09071e-20)
(0.0610652 0.0375442 1.23595e-18)
(1.99228 0.0549167 1.34047e-19)
(1.51386 -0.350857 0)
(2.16969 0.494883 -5.46903e-20)
(1.41018 -0.197038 0)
(2.41974 0.0367551 0)
(1.99895 0.110502 0)
(2.21314 0.187863 -1.5585e-20)
(1.88374 -0.0355948 2.19597e-19)
(2.38222 0.134486 -5.46077e-22)
(1.55845 -0.354456 0)
(0.398848 -0.205366 -7.72822e-19)
(2.01455 1.125 9.42505e-20)
(1.8693 -0.662707 1.99105e-20)
(2.0578 -0.118786 -1.40667e-19)
(3.1484 -0.677937 8.93219e-19)
(2.0428 0.0680265 -2.13541e-19)
(-0.576891 -0.50164 0)
(2.54314 -0.103726 0)
(1.41599 0.8463 0)
(1.19181 -0.538146 -4.78314e-19)
(-0.393981 -1.96119 -6.72724e-19)
(0.7964 0.330323 0)
(2.19472 0.509177 0)
(2.56948 -0.22321 9.73215e-20)
(1.94572 -0.032598 -5.26941e-20)
(1.88613 0.639247 2.94212e-19)
(1.76434 -0.736688 0)
(-0.581354 1.17148 -3.03859e-19)
(2.42987 0.0743457 3.50604e-20)
(1.39269 -0.402064 -4.51957e-19)
(2.25769 0.0692771 -8.84358e-20)
(2.29992 0.655316 1.32144e-19)
(3.97879 -1.03595 1.04389e-18)
(1.18949 -0.543006 8.36732e-19)
(2.27659 -1.43177 3.58495e-19)
(2.38345 0.29398 -6.80155e-22)
(2.00021 0.0125666 -6.57781e-20)
(1.19634 -0.554237 -4.65934e-20)
(1.892 -0.515059 3.19029e-20)
(1.57359 2.05255 -2.99445e-20)
(1.32602 -0.629446 8.45534e-20)
(2.60825 -0.0722576 0)
(1.60003 -0.254917 -2.34323e-21)
(2.21259 -0.0440692 -2.63175e-19)
(2.90941 0.848082 9.92735e-20)
(1.36143 -0.367836 -4.14981e-19)
(1.85513 -0.639309 -2.25155e-19)
(1.94655 -0.0117914 4.89013e-19)
(2.38655 -0.055655 -2.79171e-19)
(1.34299 -0.248316 -5.46161e-20)
(3.08381 0.184013 -2.44018e-19)
(1.13538 -0.154021 -9.3753e-19)
(2.14178 -0.02728 -2.08445e-19)
(1.1191 -0.219978 0)
(-1.87945 -0.551229 -1.54741e-18)
(1.89676 0.0360279 4.99333e-19)
(1.54851 -0.00179977 -5.90201e-22)
(-0.776808 0.0244145 0)
(1.59358 -0.72024 0)
(2.02463 0.451857 2.60486e-19)
(0.998785 -0.149408 5.85227e-19)
(1.93217 -1.92271 -2.05042e-18)
(2.1611 -0.662598 -7.29018e-20)
(2.25031 -0.326795 2.11226e-19)
(3.21307 0.810391 0)
(2.03391 0.493197 1.42954e-19)
(0.381256 -0.676382 -6.44069e-21)
(2.44804 1.10873 3.277e-20)
(1.99291 -0.250965 -2.93525e-19)
(-0.0632898 0.201277 -2.01593e-18)
(3.07096 -0.681735 -8.45208e-19)
(3.38231 -0.550207 2.5604e-19)
(2.22101 1.23795 0)
(2.41647 -0.50593 -1.02286e-19)
(1.89921 0.044512 5.67552e-20)
(1.95952 0.0369863 -9.32901e-24)
(0.784124 -0.379053 7.78163e-19)
(1.97242 -0.248717 4.40341e-19)
(1.79635 -0.758724 7.03351e-20)
(-2.62887 1.74592 -1.13331e-18)
(2.53022 -0.233866 -2.18186e-19)
(2.27258 -0.0245169 1.8591e-19)
(-1.28473 2.49744 -1.83071e-19)
(2.36156 1.05383 4.20306e-20)
(1.1054 -0.0782168 -1.44377e-18)
(0.942474 -0.460138 -2.44034e-19)
(1.97626 0.0273579 0)
(2.43776 0.554798 1.84862e-20)
(-1.76713 2.36722 -8.58002e-19)
(1.31327 -0.140029 8.47098e-19)
(2.14841 0.089465 0)
(2.07487 -0.249067 9.23828e-20)
(1.15821 -0.48402 1.9196e-19)
(1.99403 0.0395025 -5.7508e-19)
(-2.09627 1.56062 -1.08984e-18)
(1.67162 -0.677574 -1.30185e-20)
(2.21925 -0.166977 1.59916e-19)
(2.34425 0.0682509 1.3139e-19)
(1.70965 -0.77463 -2.58175e-19)
(2.39764 0.194672 -3.93247e-22)
(-0.206942 -2.07724 -2.10978e-18)
(2.12227 -0.0431663 2.46906e-19)
(2.12926 -0.0606407 -1.4489e-19)
(2.15978 0.101598 -6.13484e-21)
(2.1296 -0.0357534 -3.11189e-19)
(1.09468 -0.489485 -3.70939e-19)
(2.37219 0.268426 0)
(-2.42281 0.412733 1.29386e-18)
(2.1121 0.0729092 4.12615e-20)
(0.999847 0.0546158 -1.14144e-19)
(2.46086 0.0382146 -9.59639e-21)
(2.20156 -0.356778 -1.37424e-19)
(2.0002 0.0166575 -4.61868e-19)
(2.09915 0.333 8.00001e-20)
(-1.03826 0.762116 -1.09369e-18)
(2.73613 0.0178959 0)
(1.66289 -0.210849 3.10998e-20)
(2.59612 -0.1023 5.52679e-20)
(1.4529 -0.548032 0)
(2.15119 0.0785689 1.51133e-19)
(2.61071 -0.0843917 6.03923e-20)
(2.70857 0.0262375 2.30999e-24)
(2.58723 -0.736183 1.32469e-19)
(2.00697 -0.154387 0)
(1.77481 0.360473 4.80343e-19)
(2.17284 -0.508543 -2.41076e-19)
(1.28965 -0.620653 2.05798e-19)
(2.04202 -0.168907 0)
(1.45813 0.30521 -7.46128e-19)
(0.78088 -0.486765 -9.51891e-20)
(2.432 1.52028 -1.79075e-19)
(1.14558 -0.179202 9.10275e-19)
(2.14298 0.00577642 3.27511e-21)
(-2.30333 1.31849 1.06124e-18)
(1.95638 -0.0919966 -3.2998e-19)
(3.29345 -0.381618 -6.39647e-19)
(1.78279 0.154337 -3.40536e-19)
(1.95296 0.00845693 0)
(2.00105 0.0301193 -2.47908e-19)
(0.314471 -0.0722358 1.05267e-18)
(-0.391327 0.341457 0)
(3.86305 -1.0889 0)
(1.95821 0.035827 0)
(1.19276 -0.380223 0)
(2.05027 0.329058 0)
(1.07215 -0.146998 0)
(2.3526 -0.862671 -9.55967e-21)
(3.69516 0.498359 -4.93311e-19)
(2.63248 0.415571 0)
(1.75361 0.360947 7.23612e-19)
(1.17197 -0.539897 1.2691e-19)
(2.08378 0.204058 5.90748e-21)
(-1.53875 2.46941 -3.68964e-19)
(1.08433 0.0853951 -1.06386e-21)
(-1.25173 0.941526 9.54944e-19)
(1.76891 0.00197741 -1.11964e-19)
(2.87557 0.000469994 2.98288e-20)
(2.02653 0.309789 -1.78902e-19)
(1.8689 0.191188 -4.63163e-19)
(1.95282 1.0452 -2.17051e-19)
(3.23456 1.26318 0)
(-1.7435 0.295942 1.52193e-19)
(1.23606 -0.368673 -7.423e-19)
(2.01063 0.0264649 -7.6346e-19)
(2.36757 -0.598072 -1.10072e-20)
(1.98158 -0.0282289 4.94577e-20)
(2.74802 -0.438362 -2.04951e-19)
(2.14209 -0.281373 -3.37025e-20)
(2.09124 -0.492655 -1.96905e-19)
(2.02592 0.177522 1.92159e-19)
(1.72813 1.12677 0)
(2.05199 -0.373548 -4.73533e-20)
(1.68891 0.0804191 -1.03924e-19)
(2.44139 -0.164222 0)
(1.84186 -0.213096 0)
(1.77593 -0.803306 -4.51606e-21)
(-2.54101 1.36428 1.14783e-18)
(2.30438 -0.902157 -2.97494e-19)
(1.75759 -0.0307456 0)
(1.92228 -0.0471053 -4.43967e-19)
(1.80302 0.224205 -8.97057e-20)
(-2.46413 0.0982229 7.08127e-19)
(2.64954 -0.0474126 2.08463e-20)
(-1.52257 1.0701 0)
(-1.82595 0.355871 1.97672e-19)
(2.6386 -0.0716956 0)
(2.38875 -0.533581 1.07838e-19)
(2.43213 -0.238671 -8.65958e-20)
(2.00046 0.0268483 -9.12579e-23)
(2.36591 0.72898 -1.44878e-19)
(2.64968 1.32269 -3.04358e-20)
(1.73324 -0.481378 4.97079e-19)
(-0.961069 -0.604287 0)
(1.78886 -2.62595 -1.0511e-18)
(1.28994 -0.967603 0)
(2.69644 0.40878 -4.11146e-20)
(-2.54938 0.382639 1.29138e-18)
(3.83912 -1.02507 8.06522e-19)
(1.6888 -0.204692 -3.0653e-20)
(-1.79546 1.63978 -2.3978e-18)
(1.11148 -0.546412 -2.37665e-19)
(1.27995 -0.375674 -4.27441e-19)
(1.72427 0.157315 5.38002e-21)
(2.11573 -2.51298 8.66836e-19)
(1.13652 -0.504561 3.05292e-19)
(1.33963 -0.399235 4.65638e-19)
(-0.290502 -1.79286 8.1712e-19)
(2.72394 -2.45292 -5.69218e-19)
(1.84721 -0.566197 2.30154e-19)
(-1.2645 -0.612678 8.48819e-19)
(2.35721 0.0258566 -1.62066e-21)
(1.16588 -0.584038 -1.06021e-19)
(2.34858 0.457721 -5.42977e-20)
(2.28803 -0.471831 0)
(1.09086 -0.416639 -1.63263e-18)
(2.10739 -0.0399977 -3.14326e-19)
(1.9961 0.119019 0)
(2.66617 0.38155 0)
(1.12258 -2.20284 -3.91326e-19)
(3.60443 -0.268593 -6.50906e-19)
(2.4684 0.245556 -1.68237e-20)
(2.06999 -0.35108 3.92314e-19)
(1.93469 1.00751 1.96481e-19)
(1.41095 -0.0174414 3.09372e-19)
(-2.67312 0.660992 -8.99473e-20)
(1.77339 0.651591 0)
(1.37277 -0.430479 4.42861e-19)
(-0.626349 1.83592 1.93552e-19)
(-1.9823 1.52068 1.83698e-18)
(1.71807 -0.64999 7.89922e-20)
(1.55813 -0.693443 2.09615e-20)
(1.66383 -0.010373 1.64514e-19)
(1.76823 -0.184753 1.77892e-20)
(2.79425 -0.483042 4.8732e-19)
(-2.61179 0.559996 -9.39099e-19)
(2.4484 0.236896 1.49873e-20)
(1.95375 0.0627828 1.86019e-19)
(1.11293 -0.208564 -3.73561e-19)
(1.9002 -0.0806027 2.74074e-19)
(1.22527 -0.245652 0)
(2.44569 0.42912 3.44409e-20)
(1.98919 0.0591397 4.17082e-20)
(1.46572 -0.292953 -1.43117e-19)
(1.80379 1.85688 1.01219e-20)
(1.81518 -0.55461 1.76879e-19)
(2.08776 0.0323313 7.73471e-20)
(1.3596 0.144495 -5.6857e-19)
(2.44344 -0.187726 0)
(1.67335 -0.180504 -5.80933e-20)
(2.27219 0.0914694 1.20061e-19)
(2.22076 -0.137398 0)
(1.3899 0.0366446 3.22085e-19)
(2.65693 -0.0457539 0)
(1.70546 1.8542 1.72965e-19)
(2.32784 -0.0319636 0)
(2.04984 -0.413493 0)
(2.52565 -0.0464562 4.25038e-20)
(2.43975 0.186204 2.6744e-20)
(3.04867 0.335802 -3.48909e-19)
(1.91818 0.14837 -2.11937e-19)
(1.54606 1.21377 -1.53072e-19)
(2.00051 0.0945759 -8.70485e-20)
(2.07885 0.33675 0)
(-0.411249 0.362109 -6.30085e-20)
(2.558 0.170546 4.11856e-20)
(2.33897 -0.514337 -2.1904e-19)
(2.28328 -0.466928 0)
(2.94438 0.835089 1.53727e-19)
(2.14117 1.69664 5.71805e-21)
(2.32499 0.0162704 -3.4295e-21)
(1.38696 0.517176 0)
(-0.783276 2.57964 1.1244e-18)
(2.04595 0.174318 0)
(2.80223 -0.410921 -2.39344e-19)
(-0.196935 -0.0278892 0)
(1.957 0.213427 0)
(2.26217 -1.58372 0)
(2.0581 -0.741685 0)
(-0.993345 2.31573 -1.43381e-19)
(-1.95024 0.407636 -3.93255e-19)
(1.87278 -0.0308329 -3.29737e-19)
(-1.98209 -0.424281 -7.3409e-19)
(1.22049 -0.532529 0)
(-1.67009 -0.914289 -6.59619e-19)
(-0.349138 -0.0870937 -9.48966e-19)
(1.47125 -0.689349 0)
(1.45598 -0.510192 -4.62948e-19)
(1.49151 0.280826 -9.48671e-21)
(2.33551 0.441128 1.33067e-19)
(2.52287 -0.748889 -7.76784e-20)
(1.85757 0.177947 0)
(2.24074 -0.650447 0)
(3.39113 0.534411 1.65299e-19)
(1.88926 -0.46167 8.36756e-21)
(1.66588 0.0954916 -1.70814e-20)
(1.06361 -2.044 3.55293e-20)
(1.99857 0.00794183 1.84513e-20)
(2.41971 0.542193 -4.11059e-21)
(2.02508 0.179633 2.76019e-19)
(1.62287 -0.200411 3.10392e-20)
(1.89756 -0.499973 0)
(0.448294 -0.265723 0)
(2.4081 0.16843 0)
(1.76791 0.0201445 0)
(1.73896 -0.30239 1.92843e-19)
(3.00522 0.0329407 0)
(-0.999666 2.60544 2.0147e-18)
(3.36058 -1.61112 -1.07956e-20)
(1.306 -0.416004 -7.00649e-19)
(1.12371 -0.511788 -6.51914e-20)
(-2.25847 0.0799258 -7.10848e-19)
(-0.599743 2.53847 -8.96577e-19)
(1.85451 0.0542105 6.17019e-20)
(-2.65403 1.07253 -9.24013e-19)
(1.58771 -0.208188 5.09316e-20)
(2.56096 -0.02981 0)
(2.33734 -0.265971 0)
(1.42158 -0.427846 0)
(2.20109 -0.373077 7.09428e-20)
(2.6458 -2.55072 0)
(1.80447 0.658736 0)
(2.00204 0.0107742 0)
(1.77063 -0.420832 1.96344e-19)
(2.08323 0.204843 -2.6897e-19)
(1.62999 0.0285107 0)
(2.4586 -0.853541 -2.84843e-19)
(1.97672 0.181572 -2.59098e-19)
(2.45856 1.01861 -7.11759e-20)
(1.5087 -0.702651 2.569e-19)
(1.88089 0.707354 1.00534e-21)
(1.86407 -0.632757 -6.01909e-21)
(1.81358 -0.233077 3.931e-20)
(2.08947 -0.532089 -9.90225e-20)
(2.42191 0.192501 -3.21318e-20)
(1.69101 0.107029 -3.42365e-20)
(1.82051 0.0804256 -3.25297e-19)
(2.12346 -0.0408233 0)
(0.911742 0.122412 8.69379e-20)
(1.97112 0.0673836 3.40117e-19)
(0.553839 -0.727902 -9.30248e-20)
(2.1378 -0.268049 -1.00405e-19)
(1.02928 -0.17042 -6.38092e-19)
(2.43957 0.168669 4.64965e-21)
(3.15855 0.623151 2.94186e-19)
(1.99812 0.0803146 0)
(1.52477 -0.22032 -1.28077e-20)
(1.74525 -0.0625805 -1.71339e-20)
(2.11855 -0.540327 2.02481e-19)
(-1.96714 0.619816 -1.18501e-18)
(2.07104 0.0374091 1.66357e-19)
(2.4028 0.254425 6.65415e-22)
(2.17853 0.0119499 -2.49418e-21)
(2.36232 0.139035 0)
(0.964473 -0.324608 0)
(1.32937 -0.636491 3.2396e-19)
(-1.98809 1.37915 1.18064e-18)
(1.97765 0.0157813 2.92121e-22)
(1.96958 0.0672167 6.78111e-19)
(1.51698 -0.226123 4.10686e-20)
(1.42613 0.289574 0)
(1.79463 0.103371 0)
(1.59617 -0.343812 -4.89022e-21)
(2.44781 -0.00903404 6.64793e-20)
(1.9299 0.689859 3.99558e-19)
(2.41933 -0.148093 0)
(2.12787 0.0120152 0)
(2.11585 -0.556027 2.37685e-19)
(2.01499 -0.155597 2.4386e-19)
(-0.26625 0.737296 -1.0823e-19)
(1.72574 -0.0657046 0)
(1.44324 0.125187 1.46318e-19)
(2.78725 -0.983985 -1.32929e-19)
(-1.90133 2.22434 -9.87224e-19)
(2.03772 -0.0203099 -3.48488e-19)
(3.90049 0.346793 0)
(3.64708 -0.199562 5.23659e-19)
(1.92464 0.198162 -2.21208e-18)
(-0.078082 0.499889 0)
(1.80112 0.0342935 -2.13512e-20)
(1.91852 0.114699 -2.23459e-19)
(1.76448 0.01465 -6.90046e-24)
(2.43159 -0.235416 4.98972e-20)
(1.21743 1.04591 3.4666e-19)
(1.85708 0.0465242 0)
(1.01525 -0.373255 -5.02132e-21)
(1.4757 -0.223639 -3.91311e-20)
(1.72477 1.50556 -1.5506e-18)
(2.03955 0.31076 2.12317e-19)
(-0.814645 -0.664126 1.56726e-19)
(2.0235 0.0261586 -7.62938e-19)
(1.69341 -0.718227 -3.61319e-20)
(1.75208 -0.226575 3.46452e-20)
(1.73416 -0.381991 0)
(1.7483 0.0201475 -8.60983e-20)
(1.06267 -0.492113 2.4382e-19)
(2.26832 -0.0901788 -3.28995e-19)
(1.99349 0.0590815 -3.06166e-19)
(2.77932 -0.407472 2.15749e-19)
(1.66619 -0.155627 7.40463e-19)
(2.27963 0.0174392 2.84041e-21)
(1.78262 0.106181 1.91543e-19)
(1.71824 0.256177 -1.77002e-20)
(3.46493 -0.078215 -6.76878e-19)
(2.38277 1.13002 -3.27305e-20)
(2.08554 -1.87361 1.59657e-18)
(1.88058 -0.0213577 0)
(1.52031 -0.385094 0)
(1.70831 -0.0439429 0)
(1.3047 -0.381892 5.44924e-19)
(2.153 0.0712049 -4.99036e-19)
(1.7862 0.240977 0)
(1.50944 -0.308973 -4.20349e-19)
(1.77981 0.209004 0)
(1.74946 -0.274673 -3.16541e-19)
(2.31337 -0.541637 -2.33186e-19)
(1.87233 -0.472145 -2.56462e-19)
(1.93781 0.046784 0)
(1.95989 0.054657 0)
(2.24577 -0.146804 1.25028e-19)
(2.60428 0.347743 3.31585e-21)
(2.91804 -0.083687 2.31878e-19)
(2.31426 1.78422 -5.5243e-21)
(2.40716 -0.190382 0)
(1.72967 -0.633234 -1.31871e-19)
(-0.283933 0.403565 0)
(0.819281 0.972364 -3.12247e-19)
(2.66015 1.31279 0)