# Force       
# CofR        : (0.000000e+00 0.000000e+00 0.000000e+00)
#
# Time        	total_x total_y total_z	pressure_x pressure_y pressure_z	viscous_x viscous_y viscous_z
0.05           2.143304e+01 1.744302e+01 1.093685e-17 1.389844e+01 1.989400e+01 1.173283e-17 7.534597e+00 -2.450977e+00 -7.959754e-19
0.1            1.765499e+01 1.532480e+01 9.167387e-18 1.192241e+01 1.726972e+01 9.951007e-18 5.732580e+00 -1.944922e+00 -7.836200e-19
0.15           1.596348e+01 1.505686e+01 8.546256e-18 1.131402e+01 1.669391e+01 9.308060e-18 4.649456e+00 -1.637051e+00 -7.618042e-19
0.2            1.531812e+01 1.617476e+01 8.193560e-18 1.136324e+01 1.758213e+01 8.922842e-18 3.954873e+00 -1.407378e+00 -7.292821e-19
0.25           1.529869e+01 1.801075e+01 7.954303e-18 1.183129e+01 1.924252e+01 8.633593e-18 3.467400e+00 -1.231770e+00 -6.792898e-19
0.3            1.551189e+01 1.973884e+01 7.747508e-18 1.240002e+01 2.082803e+01 8.377909e-18 3.111871e+00 -1.089185e+00 -6.304016e-19
0.35           1.575416e+01 2.137340e+01 7.535894e-18 1.292165e+01 2.232196e+01 8.121477e-18 2.832501e+00 -9.485592e-01 -5.855828e-19
0.4            1.582058e+01 2.264248e+01 7.321843e-18 1.321648e+01 2.344727e+01 7.874732e-18 2.604095e+00 -8.047896e-01 -5.528889e-19
0.45           1.597925e+01 2.410120e+01 7.133853e-18 1.356001e+01 2.477506e+01 7.658925e-18 2.419240e+00 -6.738567e-01 -5.250716e-19
0.5            1.594168e+01 2.494106e+01 6.929541e-18 1.367643e+01 2.550659e+01 7.431718e-18 2.265243e+00 -5.655295e-01 -5.021768e-19
0.55           1.577111e+01 2.544395e+01 6.728486e-18 1.364475e+01 2.592219e+01 7.207413e-18 2.126363e+00 -4.782420e-01 -4.789271e-19
0.6            1.562888e+01 2.600991e+01 6.568024e-18 1.363045e+01 2.642312e+01 7.021872e-18 1.998428e+00 -4.132194e-01 -4.538478e-19
0.65           1.542208e+01 2.636547e+01 6.458267e-18 1.354062e+01 2.673135e+01 6.887719e-18 1.881462e+00 -3.658743e-01 -4.294520e-19
0.7            1.527884e+01 2.678653e+01 6.384817e-18 1.350313e+01 2.711711e+01 6.787740e-18 1.775712e+00 -3.305786e-01 -4.029229e-19
0.75           1.514009e+01 2.713533e+01 6.320999e-18 1.346012e+01 2.743827e+01 6.695930e-18 1.679975e+00 -3.029402e-01 -3.749314e-19
0.8            1.503287e+01 2.740029e+01 6.278696e-18 1.343864e+01 2.768059e+01 6.626339e-18 1.594231e+00 -2.802949e-01 -3.476431e-19
0.85           1.499616e+01 2.769265e+01 6.223841e-18 1.347803e+01 2.795324e+01 6.543491e-18 1.518134e+00 -2.605913e-01 -3.196500e-19
0.9            1.494957e+01 2.792811e+01 6.188413e-18 1.349972e+01 2.817102e+01 6.485399e-18 1.449851e+00 -2.429172e-01 -2.969862e-19
0.95           1.490323e+01 2.810786e+01 6.134344e-18 1.351494e+01 2.833304e+01 6.409884e-18 1.388286e+00 -2.251845e-01 -2.755402e-19
1              1.491216e+01 2.834931e+01 6.089376e-18 1.357963e+01 2.855715e+01 6.345349e-18 1.332532e+00 -2.078379e-01 -2.559735e-19
1.05           1.494174e+01 2.861457e+01 6.042804e-18 1.365960e+01 2.880490e+01 6.278351e-18 1.282148e+00 -1.903256e-01 -2.355469e-19
1.1            1.497055e+01 2.887396e+01 6.004709e-18 1.373490e+01 2.904727e+01 6.220496e-18 1.235653e+00 -1.733101e-01 -2.157873e-19
1.15           1.498775e+01 2.911711e+01 5.992845e-18 1.379604e+01 2.927401e+01 6.188636e-18 1.191708e+00 -1.568957e-01 -1.957914e-19
1.2            1.504651e+01 2.945245e+01 5.987751e-18 1.389674e+01 2.959427e+01 6.161676e-18 1.149775e+00 -1.418201e-01 -1.739251e-19
1.25           1.507996e+01 2.974579e+01 6.004491e-18 1.396991e+01 2.987254e+01 6.158602e-18 1.110044e+00 -1.267494e-01 -1.541108e-19
1.3            1.508458e+01 2.998778e+01 6.012615e-18 1.401290e+01 3.010067e+01 6.149206e-18 1.071675e+00 -1.128935e-01 -1.365908e-19
1.35           1.513746e+01 3.032805e+01 6.043014e-18 1.410235e+01 3.042804e+01 6.164017e-18 1.035108e+00 -9.998747e-02 -1.210038e-19
1.4            1.515508e+01 3.059752e+01 6.078194e-18 1.415456e+01 3.068408e+01 6.188047e-18 1.000513e+00 -8.655848e-02 -1.098530e-19
1.45           1.515840e+01 3.081250e+01 6.100898e-18 1.419037e+01 3.088583e+01 6.199916e-18 9.680300e-01 -7.333296e-02 -9.901803e-20
1.5            1.521408e+01 3.110780e+01 6.126415e-18 1.427687e+01 3.116896e+01 6.215030e-18 9.372044e-01 -6.116163e-02 -8.861460e-20
1.55           1.527654e+01 3.139587e+01 6.134828e-18 1.436830e+01 3.144539e+01 6.214250e-18 9.082438e-01 -4.951840e-02 -7.942140e-20
1.6            1.529931e+01 3.157687e+01 6.141995e-18 1.441808e+01 3.161520e+01 6.214073e-18 8.812272e-01 -3.832788e-02 -7.207801e-20
1.65           1.535475e+01 3.180977e+01 6.146014e-18 1.449919e+01 3.183811e+01 6.211370e-18 8.555580e-01 -2.834248e-02 -6.535604e-20
1.7            1.539259e+01 3.198908e+01 6.142039e-18 1.456124e+01 3.200796e+01 6.203637e-18 8.313453e-01 -1.888229e-02 -6.159792e-20
1.75           1.542248e+01 3.214359e+01 6.133061e-18 1.461400e+01 3.215370e+01 6.192876e-18 8.084786e-01 -1.011045e-02 -5.981547e-20
1.8            1.545776e+01 3.230909e+01 6.126216e-18 1.467066e+01 3.231069e+01 6.184976e-18 7.870999e-01 -1.598633e-03 -5.875993e-20
1.85           1.547041e+01 3.241729e+01 6.118388e-18 1.470425e+01 3.241249e+01 6.178720e-18 7.661687e-01 4.797149e-03 -6.033217e-20
1.9            1.551405e+01 3.259331e+01 6.113567e-18 1.476739e+01 3.258189e+01 6.174750e-18 7.466652e-01 1.141811e-02 -6.118300e-20
1.95           1.554097e+01 3.272093e+01 6.107423e-18 1.481280e+01 3.270352e+01 6.170895e-18 7.281683e-01 1.741881e-02 -6.347178e-20
2              1.560107e+01 3.292392e+01 6.100818e-18 1.489004e+01 3.290057e+01 6.166817e-18 7.110267e-01 2.334910e-02 -6.599942e-20
2.05           1.561571e+01 3.300430e+01 6.082047e-18 1.492050e+01 3.297548e+01 6.150960e-18 6.952120e-01 2.881516e-02 -6.891334e-20
2.1            1.565423e+01 3.312356e+01 6.057668e-18 1.497331e+01 3.308853e+01 6.129396e-18 6.809209e-01 3.502784e-02 -7.172811e-20
2.15           1.572145e+01 3.328481e+01 6.027446e-18 1.505391e+01 3.324424e+01 6.102002e-18 6.675322e-01 4.057030e-02 -7.455610e-20
2.2            1.578504e+01 3.343831e+01 5.996303e-18 1.513018e+01 3.339255e+01 6.073997e-18 6.548507e-01 4.575994e-02 -7.769358e-20
2.25           1.584322e+01 3.356540e+01 5.961277e-18 1.520017e+01 3.351433e+01 6.041363e-18 6.430488e-01 5.106993e-02 -8.008579e-20
2.3            1.591508e+01 3.372065e+01 5.926062e-18 1.528309e+01 3.366424e+01 6.008262e-18 6.319965e-01 5.641158e-02 -8.220023e-20
2.35           1.598301e+01 3.387244e+01 5.893241e-18 1.536176e+01 3.381101e+01 5.977870e-18 6.212435e-01 6.143017e-02 -8.462889e-20
2.4            1.603784e+01 3.400029e+01 5.859566e-18 1.542741e+01 3.393443e+01 5.946417e-18 6.104268e-01 6.586140e-02 -8.685072e-20
2.45           1.610905e+01 3.417169e+01 5.831052e-18 1.550923e+01 3.410159e+01 5.919357e-18 5.998132e-01 7.010822e-02 -8.830534e-20
2.5            1.617867e+01 3.435566e+01 5.812327e-18 1.558948e+01 3.428151e+01 5.902795e-18 5.891905e-01 7.415158e-02 -9.046812e-20
2.55           1.623221e+01 3.451465e+01 5.791382e-18 1.565387e+01 3.443693e+01 5.884712e-18 5.783430e-01 7.772432e-02 -9.333030e-20
2.6            1.628719e+01 3.469418e+01 5.779913e-18 1.571982e+01 3.461299e+01 5.876769e-18 5.673764e-01 8.118341e-02 -9.685596e-20
2.65           1.634452e+01 3.489148e+01 5.776051e-18 1.578780e+01 3.480707e+01 5.876765e-18 5.567235e-01 8.440928e-02 -1.007134e-19
2.7            1.641215e+01 3.512175e+01 5.777088e-18 1.586646e+01 3.503468e+01 5.882083e-18 5.456943e-01 8.707441e-02 -1.049953e-19
2.75           1.646206e+01 3.532442e+01 5.780479e-18 1.592742e+01 3.523451e+01 5.890767e-18 5.346350e-01 8.990829e-02 -1.102885e-19
2.8            1.651393e+01 3.553265e+01 5.782059e-18 1.599005e+01 3.543947e+01 5.896582e-18 5.238772e-01 9.317528e-02 -1.145224e-19
2.85           1.658595e+01 3.577896e+01 5.783859e-18 1.607292e+01 3.568289e+01 5.901625e-18 5.130226e-01 9.607120e-02 -1.177658e-19
2.9            1.666721e+01 3.604197e+01 5.779746e-18 1.616490e+01 3.594288e+01 5.900593e-18 5.023013e-01 9.908733e-02 -1.208468e-19
2.95           1.674472e+01 3.629122e+01 5.778675e-18 1.625286e+01 3.618871e+01 5.902598e-18 4.918683e-01 1.025117e-01 -1.239232e-19
3              1.680830e+01 3.650995e+01 5.772456e-18 1.632680e+01 3.640371e+01 5.899141e-18 4.814980e-01 1.062423e-01 -1.266848e-19
3.05           1.692154e+01 3.681216e+01 5.756388e-18 1.645016e+01 3.670165e+01 5.883546e-18 4.713729e-01 1.105085e-01 -1.271577e-19
3.1            1.698465e+01 3.701007e+01 5.741638e-18 1.652387e+01 3.689585e+01 5.870193e-18 4.607860e-01 1.142217e-01 -1.285549e-19
3.15           1.709217e+01 3.728852e+01 5.716028e-18 1.664188e+01 3.717020e+01 5.843922e-18 4.502966e-01 1.183215e-01 -1.278948e-19
3.2            1.718000e+01 3.751752e+01 5.685127e-18 1.674022e+01 3.739520e+01 5.811987e-18 4.397792e-01 1.223177e-01 -1.268604e-19
3.25           1.727155e+01 3.774498e+01 5.650807e-18 1.684201e+01 3.761841e+01 5.774967e-18 4.295330e-01 1.265669e-01 -1.241603e-19
3.3            1.735791e+01 3.795689e+01 5.612018e-18 1.693859e+01 3.782639e+01 5.733406e-18 4.193260e-01 1.305012e-01 -1.213885e-19
3.35           1.745214e+01 3.817961e+01 5.563889e-18 1.704292e+01 3.804527e+01 5.681987e-18 4.092224e-01 1.343436e-01 -1.180979e-19
3.4            1.755355e+01 3.841330e+01 5.514141e-18 1.715425e+01 3.827527e+01 5.628622e-18 3.992958e-01 1.380379e-01 -1.144804e-19
3.45           1.762408e+01 3.859138e+01 5.467769e-18 1.723467e+01 3.844965e+01 5.579182e-18 3.894137e-01 1.417327e-01 -1.114123e-19
3.5            1.771668e+01 3.881266e+01 5.416984e-18 1.733692e+01 3.866714e+01 5.525164e-18 3.797610e-01 1.455278e-01 -1.081806e-19
3.55           1.779124e+01 3.900140e+01 5.368052e-18 1.742127e+01 3.885291e+01 5.472749e-18 3.699702e-01 1.484894e-01 -1.046967e-19
3.6            1.784692e+01 3.915381e+01 5.322116e-18 1.748644e+01 3.900204e+01 5.423614e-18 3.604841e-01 1.517723e-01 -1.014985e-19
3.65           1.791815e+01 3.934053e+01 5.278635e-18 1.756693e+01 3.918551e+01 5.376630e-18 3.512207e-01 1.550120e-01 -9.799439e-20
3.7            1.800632e+01 3.956279e+01 5.231642e-18 1.766405e+01 3.940446e+01 5.325278e-18 3.422682e-01 1.583305e-01 -9.363595e-20
3.75           1.806707e+01 3.973124e+01 5.196141e-18 1.773338e+01 3.956910e+01 5.286027e-18 3.336841e-01 1.621358e-01 -8.988607e-20
3.8            1.813712e+01 3.991857e+01 5.157383e-18 1.781228e+01 3.975278e+01 5.243773e-18 3.248339e-01 1.657907e-01 -8.639034e-20
3.85           1.819084e+01 4.006967e+01 5.120305e-18 1.787474e+01 3.990008e+01 5.203791e-18 3.161018e-01 1.695845e-01 -8.348699e-20
3.9            1.827991e+01 4.028310e+01 5.077526e-18 1.797249e+01 4.010987e+01 5.156934e-18 3.074222e-01 1.732308e-01 -7.940789e-20
3.95           1.835686e+01 4.047295e+01 5.039152e-18 1.805780e+01 4.029593e+01 5.115231e-18 2.990647e-01 1.770145e-01 -7.607989e-20
4              1.843444e+01 4.065555e+01 4.995605e-18 1.814346e+01 4.047489e+01 5.068646e-18 2.909750e-01 1.806627e-01 -7.304111e-20
4.05           1.852574e+01 4.087225e+01 4.956940e-18 1.824262e+01 4.068791e+01 5.026220e-18 2.831171e-01 1.843385e-01 -6.927984e-20
4.1            1.861826e+01 4.108602e+01 4.917270e-18 1.834294e+01 4.089805e+01 4.983056e-18 2.753218e-01 1.879647e-01 -6.578577e-20
4.15           1.870352e+01 4.129108e+01 4.884264e-18 1.843579e+01 4.109935e+01 4.946796e-18 2.677312e-01 1.917294e-01 -6.253153e-20
4.2            1.878928e+01 4.149776e+01 4.851464e-18 1.852958e+01 4.130333e+01 4.910561e-18 2.596930e-01 1.944330e-01 -5.909676e-20
4.25           1.887092e+01 4.169988e+01 4.824986e-18 1.861923e+01 4.150286e+01 4.880641e-18 2.516900e-01 1.970211e-01 -5.565427e-20
4.3            1.894825e+01 4.189856e+01 4.801905e-18 1.870442e+01 4.169886e+01 4.854802e-18 2.438346e-01 1.997030e-01 -5.289678e-20
4.35           1.904156e+01 4.213549e+01 4.782601e-18 1.880557e+01 4.193311e+01 4.832504e-18 2.359868e-01 2.023779e-01 -4.990289e-20
4.4            1.914565e+01 4.239325e+01 4.765239e-18 1.891742e+01 4.218815e+01 4.812164e-18 2.282349e-01 2.051018e-01 -4.692570e-20
4.45           1.924935e+01 4.265467e+01 4.751645e-18 1.902911e+01 4.244741e+01 4.795635e-18 2.202394e-01 2.072538e-01 -4.398961e-20
4.5            1.933409e+01 4.288343e+01 4.745702e-18 1.912196e+01 4.267440e+01 4.787552e-18 2.121338e-01 2.090379e-01 -4.184963e-20
4.55           1.941305e+01 4.310040e+01 4.743816e-18 1.920893e+01 4.288955e+01 4.783802e-18 2.041229e-01 2.108444e-01 -3.998610e-20
4.6            1.951809e+01 4.336832e+01 4.742372e-18 1.932172e+01 4.315569e+01 4.780153e-18 1.963760e-01 2.126261e-01 -3.778110e-20
4.65           1.960680e+01 4.360378e+01 4.744288e-18 1.941808e+01 4.338958e+01 4.780342e-18 1.887162e-01 2.141960e-01 -3.605380e-20
4.7            1.970897e+01 4.386526e+01 4.749987e-18 1.952764e+01 4.364952e+01 4.783939e-18 1.813342e-01 2.157315e-01 -3.395155e-20
4.75           1.978972e+01 4.408390e+01 4.758997e-18 1.961542e+01 4.386636e+01 4.791529e-18 1.743024e-01 2.175365e-01 -3.253175e-20
4.8            1.988404e+01 4.432220e+01 4.767626e-18 1.971663e+01 4.410350e+01 4.798721e-18 1.674069e-01 2.186979e-01 -3.109537e-20
4.85           1.997991e+01 4.455831e+01 4.772027e-18 1.981898e+01 4.433848e+01 4.801870e-18 1.609322e-01 2.198264e-01 -2.984316e-20
4.9            2.003519e+01 4.471013e+01 4.782851e-18 1.988028e+01 4.448918e+01 4.812165e-18 1.549176e-01 2.209484e-01 -2.931404e-20
4.95           2.014938e+01 4.497916e+01 4.789803e-18 2.000003e+01 4.475715e+01 4.817027e-18 1.493463e-01 2.220111e-01 -2.722454e-20
5              2.023288e+01 4.518088e+01 4.796877e-18 2.008878e+01 4.495772e+01 4.822676e-18 1.440984e-01 2.231613e-01 -2.579858e-20
5.05           2.032056e+01 4.537795e+01 4.799511e-18 2.018111e+01 4.515348e+01 4.823779e-18 1.394459e-01 2.244767e-01 -2.426769e-20
5.1            2.042291e+01 4.559565e+01 4.796656e-18 2.028793e+01 4.537071e+01 4.819679e-18 1.349796e-01 2.249449e-01 -2.302361e-20
5.15           2.049432e+01 4.574747e+01 4.795402e-18 2.036334e+01 4.552211e+01 4.817397e-18 1.309815e-01 2.253595e-01 -2.199455e-20
5.2            2.059039e+01 4.594171e+01 4.786041e-18 2.046307e+01 4.571596e+01 4.806417e-18 1.273192e-01 2.257527e-01 -2.037566e-20
5.25           2.068923e+01 4.613473e+01 4.775550e-18 2.056515e+01 4.590850e+01 4.794136e-18 1.240767e-01 2.262385e-01 -1.858692e-20
5.3            2.075781e+01 4.625720e+01 4.766713e-18 2.063666e+01 4.603059e+01 4.784037e-18 1.211530e-01 2.266106e-01 -1.732379e-20
5.35           2.085227e+01 4.642957e+01 4.746437e-18 2.073363e+01 4.620242e+01 4.761382e-18 1.186367e-01 2.271495e-01 -1.494547e-20
5.4            2.092731e+01 4.656002e+01 4.731108e-18 2.081098e+01 4.633227e+01 4.744583e-18 1.163290e-01 2.277506e-01 -1.347543e-20
5.45           2.101655e+01 4.671254e+01 4.715721e-18 2.090243e+01 4.648468e+01 4.726874e-18 1.141132e-01 2.278633e-01 -1.115351e-20
5.5            2.109150e+01 4.683741e+01 4.701886e-18 2.097928e+01 4.660928e+01 4.711030e-18 1.122190e-01 2.281313e-01 -9.143590e-21
5.55           2.117374e+01 4.697463e+01 4.687395e-18 2.106322e+01 4.674622e+01 4.694148e-18 1.105131e-01 2.284022e-01 -6.752931e-21
5.6            2.122757e+01 4.705836e+01 4.674405e-18 2.111875e+01 4.682974e+01 4.679741e-18 1.088185e-01 2.286177e-01 -5.336034e-21
5.65           2.129060e+01 4.716054e+01 4.661477e-18 2.118326e+01 4.693159e+01 4.665220e-18 1.073404e-01 2.289500e-01 -3.742995e-21
5.7            2.136150e+01 4.728590e+01 4.653918e-18 2.125547e+01 4.705645e+01 4.655741e-18 1.060333e-01 2.294424e-01 -1.823230e-21
5.75           2.143455e+01 4.741304e+01 4.650210e-18 2.132993e+01 4.718344e+01 4.650552e-18 1.046188e-01 2.295989e-01 -3.413518e-22
5.8            2.148760e+01 4.750486e+01 4.645910e-18 2.138434e+01 4.727514e+01 4.645378e-18 1.032607e-01 2.297217e-01 5.313272e-22
5.85           2.153880e+01 4.759342e+01 4.645838e-18 2.143661e+01 4.736353e+01 4.644738e-18 1.021828e-01 2.298934e-01 1.099500e-21
5.9            2.159314e+01 4.768981e+01 4.643504e-18 2.149181e+01 4.745962e+01 4.641931e-18 1.013243e-01 2.301896e-01 1.573209e-21
5.95           2.165564e+01 4.780697e+01 4.649446e-18 2.155496e+01 4.757635e+01 4.647340e-18 1.006779e-01 2.306210e-01 2.105949e-21
6              2.169819e+01 4.788050e+01 4.653351e-18 2.159798e+01 4.764937e+01 4.651373e-18 1.002142e-01 2.311317e-01 1.977529e-21
6.05           2.175200e+01 4.796554e+01 4.656623e-18 2.165193e+01 4.773408e+01 4.654726e-18 1.000697e-01 2.314561e-01 1.896711e-21
6.1            2.177285e+01 4.798586e+01 4.665702e-18 2.167247e+01 4.775411e+01 4.664854e-18 1.003819e-01 2.317501e-01 8.484424e-22
6.15           2.180520e+01 4.802890e+01 4.672849e-18 2.170407e+01 4.779686e+01 4.672763e-18 1.011323e-01 2.320475e-01 8.581435e-23
6.2            2.182616e+01 4.804267e+01 4.683470e-18 2.172384e+01 4.781027e+01 4.684500e-18 1.023243e-01 2.323966e-01 -1.030079e-21
6.25           2.184263e+01 4.803926e+01 4.692076e-18 2.173855e+01 4.780660e+01 4.694530e-18 1.040857e-01 2.326584e-01 -2.454662e-21
6.3            2.186475e+01 4.804291e+01 4.702247e-18 2.175840e+01 4.781038e+01 4.705611e-18 1.063536e-01 2.325225e-01 -3.363681e-21
6.35           2.186789e+01 4.800416e+01 4.714975e-18 2.175863e+01 4.777196e+01 4.719975e-18 1.092617e-01 2.322000e-01 -4.999717e-21
6.4            2.186252e+01 4.794238e+01 4.722979e-18 2.174962e+01 4.771071e+01 4.729699e-18 1.129006e-01 2.316653e-01 -6.719667e-21
6.45           2.186074e+01 4.788113e+01 4.738187e-18 2.174337e+01 4.765008e+01 4.746213e-18 1.173769e-01 2.310485e-01 -8.025732e-21
6.5            2.186736e+01 4.783260e+01 4.748236e-18 2.174480e+01 4.760203e+01 4.756709e-18 1.225568e-01 2.305690e-01 -8.472887e-21
6.55           2.185856e+01 4.774884e+01 4.760539e-18 2.172996e+01 4.751916e+01 4.770032e-18 1.285961e-01 2.296816e-01 -9.493447e-21
6.6            2.184769e+01 4.765245e+01 4.769222e-18 2.171259e+01 4.742377e+01 4.779568e-18 1.351039e-01 2.286758e-01 -1.034597e-20
6.65           2.183612e+01 4.755556e+01 4.785033e-18 2.169371e+01 4.732795e+01 4.795961e-18 1.424093e-01 2.276105e-01 -1.092844e-20
6.7            2.182176e+01 4.744474e+01 4.794379e-18 2.167177e+01 4.721918e+01 4.806245e-18 1.499943e-01 2.255614e-01 -1.186520e-20
6.75           2.181715e+01 4.734356e+01 4.805546e-18 2.165871e+01 4.712023e+01 4.817784e-18 1.584354e-01 2.233268e-01 -1.223842e-20
6.8            2.179443e+01 4.720040e+01 4.815032e-18 2.162676e+01 4.697944e+01 4.827869e-18 1.676669e-01 2.209640e-01 -1.283696e-20
6.85           2.178220e+01 4.707933e+01 4.823915e-18 2.160483e+01 4.686098e+01 4.837100e-18 1.773722e-01 2.183577e-01 -1.318500e-20
6.9            2.175672e+01 4.691764e+01 4.830151e-18 2.156899e+01 4.670242e+01 4.843832e-18 1.877347e-01 2.152263e-01 -1.368145e-20
6.95           2.174259e+01 4.677673e+01 4.834682e-18 2.154389e+01 4.656493e+01 4.848488e-18 1.987037e-01 2.118032e-01 -1.380638e-20
7              2.171877e+01 4.660624e+01 4.837864e-18 2.150865e+01 4.639810e+01 4.851964e-18 2.101160e-01 2.081468e-01 -1.410033e-20
7.05           2.170328e+01 4.644577e+01 4.837618e-18 2.148116e+01 4.624157e+01 4.851838e-18 2.221218e-01 2.041960e-01 -1.422017e-20
7.1            2.167267e+01 4.625138e+01 4.837808e-18 2.143812e+01 4.605150e+01 4.852347e-18 2.345537e-01 1.998802e-01 -1.453916e-20
7.15           2.167245e+01 4.610278e+01 4.836313e-18 2.142512e+01 4.590805e+01 4.850256e-18 2.473323e-01 1.947259e-01 -1.394345e-20
7.2            2.162807e+01 4.586692e+01 4.831860e-18 2.136739e+01 4.567774e+01 4.846257e-18 2.606810e-01 1.891809e-01 -1.439686e-20
7.25           2.158249e+01 4.562293e+01 4.825670e-18 2.130814e+01 4.543958e+01 4.840648e-18 2.743511e-01 1.833431e-01 -1.497738e-20
7.3            2.152495e+01 4.534668e+01 4.821028e-18 2.123636e+01 4.516949e+01 4.836537e-18 2.885908e-01 1.771939e-01 -1.550824e-20
7.35           2.150676e+01 4.515832e+01 4.819608e-18 2.120382e+01 4.498777e+01 4.834866e-18 3.029456e-01 1.705473e-01 -1.525776e-20
7.4            2.145227e+01 4.487934e+01 4.815356e-18 2.113442e+01 4.471589e+01 4.831102e-18 3.178519e-01 1.634536e-01 -1.574541e-20
7.45           2.141025e+01 4.462163e+01 4.813067e-18 2.107693e+01 4.446558e+01 4.829124e-18 3.333167e-01 1.560467e-01 -1.605768e-20
7.5            2.135051e+01 4.432111e+01 4.808344e-18 2.100108e+01 4.417279e+01 4.825075e-18 3.494283e-01 1.483190e-01 -1.673013e-20
7.55           2.127717e+01 4.398221e+01 4.804133e-18 2.091089e+01 4.384177e+01 4.821546e-18 3.662883e-01 1.404366e-01 -1.741274e-20
7.6            2.120139e+01 4.362715e+01 4.798057e-18 2.081745e+01 4.349483e+01 4.816138e-18 3.839437e-01 1.323209e-01 -1.808099e-20
7.65           2.114369e+01 4.330956e+01 4.791672e-18 2.074169e+01 4.318601e+01 4.810303e-18 4.019921e-01 1.235499e-01 -1.863174e-20
7.7            2.106524e+01 4.293508e+01 4.781202e-18 2.064458e+01 4.282077e+01 4.800635e-18 4.206537e-01 1.143111e-01 -1.943307e-20
7.75           2.098899e+01 4.255708e+01 4.769542e-18 2.054914e+01 4.245236e+01 4.789781e-18 4.398509e-01 1.047184e-01 -2.023944e-20
7.8            2.090268e+01 4.214609e+01 4.754784e-18 2.044300e+01 4.205110e+01 4.775677e-18 4.596757e-01 9.499571e-02 -2.089211e-20
7.85           2.082517e+01 4.173657e+01 4.731395e-18 2.034513e+01 4.165164e+01 4.752568e-18 4.800469e-01 8.493237e-02 -2.117348e-20
7.9            2.071981e+01 4.125671e+01 4.701666e-18 2.021876e+01 4.118227e+01 4.723748e-18 5.010494e-01 7.444539e-02 -2.208120e-20
7.95           2.061765e+01 4.078048e+01 4.666080e-18 2.009517e+01 4.071708e+01 4.688544e-18 5.224824e-01 6.340356e-02 -2.246321e-20
8              2.049385e+01 4.023374e+01 4.626599e-18 1.994971e+01 4.018213e+01 4.649622e-18 5.441485e-01 5.161167e-02 -2.302301e-20
8.05           2.036835e+01 3.965803e+01 4.575619e-18 1.980163e+01 3.961883e+01 4.598922e-18 5.667137e-01 3.919741e-02 -2.330265e-20
8.1            2.023385e+01 3.905776e+01 4.522047e-18 1.964391e+01 3.903159e+01 4.545568e-18 5.899467e-01 2.617214e-02 -2.352108e-20
8.15           2.008226e+01 3.840143e+01 4.459974e-18 1.946868e+01 3.838889e+01 4.484184e-18 6.135812e-01 1.254744e-02 -2.421055e-20
8.2            1.993120e+01 3.772894e+01 4.392640e-18 1.929316e+01 3.773107e+01 4.417218e-18 6.380438e-01 -2.127896e-03 -2.457808e-20
8.25           1.975989e+01 3.698846e+01 4.324983e-18 1.909614e+01 3.700623e+01 4.350057e-18 6.637460e-01 -1.777078e-02 -2.507404e-20
8.3            1.957495e+01 3.620426e+01 4.253096e-18 1.888410e+01 3.623866e+01 4.278677e-18 6.908498e-01 -3.440052e-02 -2.558063e-20
8.35           1.939807e+01 3.542680e+01 4.182078e-18 1.867870e+01 3.547881e+01 4.207939e-18 7.193749e-01 -5.201659e-02 -2.586039e-20
8.4            1.922359e+01 3.462529e+01 4.111435e-18 1.847405e+01 3.469589e+01 4.137490e-18 7.495369e-01 -7.059752e-02 -2.605432e-20
8.45           1.904598e+01 3.379744e+01 4.046054e-18 1.826434e+01 3.388758e+01 4.072216e-18 7.816368e-01 -9.013263e-02 -2.616212e-20
8.5            1.887990e+01 3.298474e+01 3.982569e-18 1.806449e+01 3.309600e+01 4.008967e-18 8.154073e-01 -1.112603e-01 -2.639779e-20
8.55           1.870829e+01 3.211070e+01 3.926438e-18 1.785683e+01 3.224436e+01 3.953034e-18 8.514565e-01 -1.336595e-01 -2.659586e-20
8.6            1.853295e+01 3.121607e+01 3.870958e-18 1.764269e+01 3.137311e+01 3.898157e-18 8.902637e-01 -1.570399e-01 -2.719867e-20
8.65           1.837508e+01 3.034379e+01 3.824117e-18 1.744364e+01 3.052530e+01 3.851621e-18 9.314388e-01 -1.815149e-01 -2.750397e-20
8.7            1.822994e+01 2.947390e+01 3.782064e-18 1.725480e+01 2.968110e+01 3.809850e-18 9.751369e-01 -2.071972e-01 -2.778605e-20
8.75           1.811057e+01 2.862482e+01 3.745618e-18 1.708892e+01 2.885841e+01 3.773604e-18 1.021651e+00 -2.335894e-01 -2.798569e-20
8.8            1.799803e+01 2.776488e+01 3.718378e-18 1.692682e+01 2.802552e+01 3.746589e-18 1.071208e+00 -2.606405e-01 -2.821133e-20
8.85           1.791801e+01 2.694555e+01 3.696671e-18 1.679470e+01 2.723418e+01 3.724667e-18 1.123311e+00 -2.886275e-01 -2.799632e-20
8.9            1.785218e+01 2.614538e+01 3.678920e-18 1.667436e+01 2.646231e+01 3.706527e-18 1.177817e+00 -3.169255e-01 -2.760703e-20
8.95           1.782154e+01 2.540543e+01 3.667414e-18 1.658633e+01 2.575132e+01 3.694358e-18 1.235216e+00 -3.458925e-01 -2.694349e-20
9              1.781202e+01 2.468837e+01 3.660591e-18 1.651730e+01 2.506346e+01 3.686944e-18 1.294719e+00 -3.750832e-01 -2.635295e-20
9.05           1.784371e+01 2.404169e+01 3.655889e-18 1.648782e+01 2.444688e+01 3.680863e-18 1.355883e+00 -4.051817e-01 -2.497377e-20
9.1            1.790703e+01 2.345596e+01 3.657353e-18 1.648832e+01 2.389127e+01 3.680660e-18 1.418706e+00 -4.353093e-01 -2.330622e-20
9.15           1.797789e+01 2.288894e+01 3.654222e-18 1.649547e+01 2.335472e+01 3.676245e-18 1.482426e+00 -4.657885e-01 -2.202250e-20
9.2            1.810115e+01 2.244078e+01 3.658275e-18 1.655431e+01 2.293750e+01 3.678494e-18 1.546834e+00 -4.967241e-01 -2.021917e-20
9.25           1.821438e+01 2.196222e+01 3.655373e-18 1.660274e+01 2.248998e+01 3.673104e-18 1.611632e+00 -5.277634e-01 -1.773102e-20
9.3            1.838013e+01 2.163777e+01 3.658753e-18 1.670331e+01 2.219689e+01 3.673940e-18 1.676822e+00 -5.591192e-01 -1.518767e-20
9.35           1.857528e+01 2.140943e+01 3.658874e-18 1.683364e+01 2.200023e+01 3.671013e-18 1.741642e+00 -5.908064e-01 -1.213896e-20
9.4            1.877732e+01 2.122193e+01 3.654712e-18 1.697153e+01 2.184405e+01 3.663380e-18 1.805786e+00 -6.221202e-01 -8.667637e-21
9.45           1.899609e+01 2.109432e+01 3.655422e-18 1.712761e+01 2.174769e+01 3.660427e-18 1.868484e+00 -6.533725e-01 -5.004661e-21
9.5            1.924287e+01 2.106056e+01 3.656905e-18 1.731264e+01 2.174468e+01 3.657483e-18 1.930225e+00 -6.841183e-01 -5.777674e-22
9.55           1.945691e+01 2.099201e+01 3.643725e-18 1.746648e+01 2.170612e+01 3.639838e-18 1.990430e+00 -7.141192e-01 3.886824e-21
9.6            1.971338e+01 2.106768e+01 3.640148e-18 1.766497e+01 2.181076e+01 3.631212e-18 2.048407e+00 -7.430835e-01 8.936580e-21
9.65           1.997117e+01 2.119071e+01 3.625116e-18 1.786716e+01 2.196161e+01 3.611723e-18 2.104010e+00 -7.708956e-01 1.339265e-20
9.7            2.017088e+01 2.123509e+01 3.606030e-18 1.801379e+01 2.203225e+01 3.588172e-18 2.157094e+00 -7.971593e-01 1.785797e-20
9.75           2.041528e+01 2.143880e+01 3.585439e-18 1.820812e+01 2.226084e+01 3.562676e-18 2.207163e+00 -8.220366e-01 2.276312e-20
9.8            2.064936e+01 2.168077e+01 3.562216e-18 1.839579e+01 2.252601e+01 3.534125e-18 2.253572e+00 -8.452411e-01 2.809107e-20
9.85           2.085180e+01 2.188521e+01 3.537876e-18 1.855464e+01 2.275236e+01 3.504872e-18 2.297157e+00 -8.671486e-01 3.300415e-20
9.9            2.106747e+01 2.217600e+01 3.511004e-18 1.872987e+01 2.306369e+01 3.472902e-18 2.337606e+00 -8.876891e-01 3.810200e-20
9.95           2.122913e+01 2.239111e+01 3.474401e-18 1.885458e+01 2.329796e+01 3.432125e-18 2.374546e+00 -9.068551e-01 4.227603e-20
10             2.145770e+01 2.279867e+01 3.450869e-18 1.904923e+01 2.372328e+01 3.404005e-18 2.408475e+00 -9.246123e-01 4.686431e-20
10.05          2.163724e+01 2.312994e+01 3.418517e-18 1.919785e+01 2.407073e+01 3.368144e-18 2.439386e+00 -9.407894e-01 5.037325e-20
10.1           2.179493e+01 2.344502e+01 3.381716e-18 1.932757e+01 2.440037e+01 3.328309e-18 2.467369e+00 -9.553531e-01 5.340677e-20
10.15          2.191613e+01 2.368561e+01 3.346692e-18 1.942307e+01 2.465406e+01 3.290304e-18 2.493060e+00 -9.684474e-01 5.638842e-20
10.2           2.202875e+01 2.394982e+01 3.302694e-18 1.951211e+01 2.493020e+01 3.242999e-18 2.516638e+00 -9.803823e-01 5.969576e-20
10.25          2.210337e+01 2.412905e+01 3.255301e-18 1.956542e+01 2.511998e+01 3.192931e-18 2.537950e+00 -9.909372e-01 6.236943e-20
10.3           2.216506e+01 2.428109e+01 3.208356e-18 1.960740e+01 2.528195e+01 3.142706e-18 2.557663e+00 -1.000856e+00 6.565021e-20
10.35          2.222969e+01 2.447082e+01 3.161062e-18 1.965418e+01 2.548077e+01 3.091578e-18 2.575509e+00 -1.009947e+00 6.948386e-20
10.4           2.229730e+01 2.468145e+01 3.107320e-18 1.970602e+01 2.569925e+01 3.034066e-18 2.591285e+00 -1.017805e+00 7.325469e-20
10.45          2.229031e+01 2.471544e+01 3.049393e-18 1.968496e+01 2.574010e+01 2.973889e-18 2.605355e+00 -1.024651e+00 7.550403e-20
10.5           2.233153e+01 2.487283e+01 2.993329e-18 1.971352e+01 2.590352e+01 2.914823e-18 2.618002e+00 -1.030686e+00 7.850579e-20
10.55          2.232464e+01 2.494299e+01 2.929924e-18 1.969565e+01 2.597869e+01 2.849106e-18 2.628994e+00 -1.035708e+00 8.081806e-20
10.6           2.232049e+01 2.501721e+01 2.867196e-18 1.968230e+01 2.605711e+01 2.784313e-18 2.638192e+00 -1.039905e+00 8.288225e-20
10.65          2.223373e+01 2.491305e+01 2.797596e-18 1.958758e+01 2.595649e+01 2.713701e-18 2.646155e+00 -1.043440e+00 8.389496e-20
10.7           2.219610e+01 2.495319e+01 2.736236e-18 1.954343e+01 2.599906e+01 2.649346e-18 2.652678e+00 -1.045870e+00 8.689023e-20
10.75          2.212306e+01 2.489467e+01 2.683078e-18 1.946543e+01 2.594264e+01 2.593893e-18 2.657628e+00 -1.047968e+00 8.918503e-20
10.8           2.203747e+01 2.481849e+01 2.626780e-18 1.937623e+01 2.586794e+01 2.535102e-18 2.661235e+00 -1.049446e+00 9.167795e-20
10.85          2.195999e+01 2.478936e+01 2.570763e-18 1.929668e+01 2.583944e+01 2.475566e-18 2.663311e+00 -1.050081e+00 9.519713e-20
10.9           2.188040e+01 2.471270e+01 2.524322e-18 1.921561e+01 2.576261e+01 2.425938e-18 2.664791e+00 -1.049906e+00 9.838475e-20
10.95          2.176090e+01 2.459500e+01 2.461948e-18 1.909554e+01 2.564444e+01 2.361729e-18 2.665360e+00 -1.049435e+00 1.002185e-19
11             2.167604e+01 2.457253e+01 2.410947e-18 1.901162e+01 2.562110e+01 2.309430e-18 2.664423e+00 -1.048573e+00 1.015166e-19
11.05          2.152559e+01 2.439562e+01 2.348233e-18 1.886310e+01 2.544285e+01 2.247096e-18 2.662484e+00 -1.047236e+00 1.011362e-19
11.1           2.138429e+01 2.426081e+01 2.298769e-18 1.872443e+01 2.530612e+01 2.197992e-18 2.659862e+00 -1.045313e+00 1.007764e-19
11.15          2.126406e+01 2.416341e+01 2.255780e-18 1.860758e+01 2.520629e+01 2.154346e-18 2.656478e+00 -1.042880e+00 1.014340e-19