/*--------------------------------*- C++ -*----------------------------------*\
| =========                 |                                                 |
| \\      /  F ield         | OpenFOAM: The Open Source CFD Toolbox           |
|  \\    /   O peration     | Version:  2306                                  |
|   \\  /    A nd           | Website:  www.openfoam.com                      |
|    \\/     M anipulation  |                                                 |
\*---------------------------------------------------------------------------*/
FoamFile
{
    version     2.0;
    format      ascii;
    arch        "LSB;label=32;scalar=64";
    class       volScalarField;
    location    "3.6";
    object      p;
}
// * * * * * * * * * * * * * * * * * * * * * * * * * * * * * * * * * * * * * //

dimensions      [0 2 -2 0 0 0 0];

internalField   nonuniform List<scalar> 
13486
(
2.38127
1.89616
0.164773
-0.25315
0.780193
-0.187233
0.365381
1.33501
1.61662
0.798189
-5.37811
0.399707
2.5049
-0.333731
0.621077
0.895828
-7.50035
-0.0303895
0.553697
2.14643
-0.215589
2.47554
1.85772
-1.03489
0.764421
-0.969415
-5.25569
-0.650474
0.00323788
-0.511181
-0.161089
0.451397
-1.30641
-0.375097
1.33878
0.0147895
0.0490527
1.9379
-0.000998129
1.61864
0.202915
2.59862
0.04529
0.770475
0.731509
0.380562
-10.0466
0.0052482
0.0444708
-0.727131
1.37957
-0.0287673
0.239339
1.97241
-0.0720423
0.842651
0.0864716
-0.0308882
-1.25461
0.0716808
-3.42243
0.0707147
-3.59369
-0.202041
-0.477022
0.0534356
-0.268417
2.38361
1.60631
0.0213272
-0.26856
-0.0645205
1.62841
-5.57796
0.0596846
0.084779
0.053448
0.607046
-11.6465
-0.107069
0.00952787
1.91722
-4.00619
0.184114
2.3908
0.812367
-0.0516006
1.30231
1.56706
0.878486
0.30472
1.16249
2.28244
2.04044
1.67482
0.00814628
-4.9128
-0.26613
1.59287
-8.09948
0.0276597
-0.241078
-0.271175
-0.0259982
1.02116
-8.44535
1.58627
-0.00590999
-11.3097
1.04398
1.54447
0.371559
1.97144
0.0671854
2.79941
1.61695
0.763978
-0.347816
1.64199
0.0395284
-0.0451824
-3.44692
1.75163
-0.00643706
1.54212
-0.0220817
1.15182
0.370471
-0.300425
-0.422321
-0.0196683
-9.53831
-4.60579
-5.14465
1.45246
1.26294
2.80678
1.08723
0.0414855
1.37866
-1.10303
0.225479
0.440227
-0.104571
0.0655542
-2.99011
0.0633977
1.70712
-0.794376
0.00253621
0.904241
0.578965
0.0126137
1.95694
0.429665
0.15983
0.858385
0.0678585
1.75829
0.111025
-0.567432
1.75922
0.230772
2.59125
-0.0300016
-0.597133
-0.0814554
3.23101
0.0761282
-5.14939
-4.27164
0.445521
1.08361
0.863866
0.00763168
-0.492171
-0.588123
-1.3413
1.59482
0.45467
1.51885
0.0654874
0.692741
-0.596044
0.201098
-0.655535
0.000749054
-0.485597
0.272857
1.69962
0.0480891
0.125004
-0.0460596
2.03012
-0.0697022
-5.47811
-0.432487
-0.585404
2.13697
-0.504707
-0.170696
0.350646
1.94193
0.620815
0.107698
-0.0754563
-0.0105488
1.7469
-0.0412527
0.201278
-0.558227
-0.683995
2.11849
1.58969
-0.188889
-0.248887
-0.543933
0.907865
2.16248
-2.15145
-7.7673
-0.814479
1.41467
-0.599666
0.0412483
2.31873
-0.490302
-0.295784
-0.191203
-0.00818515
1.50092
-0.1869
-1.14909
2.65025
-0.263486
2.22704
-0.41333
0.122328
2.25014
0.719127
-1.26369
1.06413
0.0741951
2.11898
0.023067
1.81944
0.741725
-0.720548
-5.64391
0.877329
-0.298824
2.83159
1.56266
-0.0109442
-0.134616
-0.587589
0.433401
-0.241594
0.100979
-1.17669
1.73498
0.0287335
0.609113
-0.54457
0.867999
-0.636974
-0.193357
-0.188353
1.53374
-0.265845
1.5598
1.55245
-0.564867
0.282909
2.32253
-0.686384
-0.134452
-0.188729
-0.0215472
0.0415936
-0.202127
1.33549
1.60334
-1.73475
-2.7944
-8.10799
-1.13689
-0.321377
0.0566071
1.54439
-0.257171
0.0698326
1.67348
1.46708
-0.39182
-0.442496
-0.55564
0.276565
1.64124
0.305719
0.212554
-0.0202348
0.0692537
0.48257
0.0409511
0.649363
-0.216325
0.787875
-0.00959349
0.0442583
-4.85733
-0.247836
-0.307944
0.371021
-3.4895
1.29063
0.0721975
1.56921
1.75328
-0.229406
0.0515416
0.0543327
1.57897
2.05113
2.76833
0.333771
1.02197
1.30741
0.209584
0.9465
1.31464
1.11113
0.263719
2.18685
0.354259
1.5818
2.89568
0.616596
0.966006
0.0354703
-0.210833
2.02933
0.911976
0.712273
-0.650252
0.00810388
1.08167
2.79354
-2.15384
0.0674073
1.04506
0.221567
0.271363
-4.11491
1.62798
0.0199953
-5.55638
1.12721
0.00716971
-0.669723
0.569989
0.250278
1.76605
1.55467
-0.534496
0.00183188
-0.421486
-7.7615
2.1683
1.13986
0.0425151
1.09864
0.017362
-0.318251
-0.172557
1.40982
1.60953
0.0540659
-3.2637
-3.41927
1.50948
1.0775
2.51273
1.65695
-8.40818
-0.14762
0.110974
0.941386
-6.03599
-0.107772
2.08366
-0.624348
0.66359
2.26992
2.33618
0.0413195
-0.261337
-0.298199
-6.42132
-1.16171
-6.17218
0.328913
1.42721
-0.278768
0.401623
-0.868916
2.00965
-1.27426
1.1578
1.78536
0.923983
-1.28207
-0.699301
1.64444
1.59804
1.95443
-0.47132
0.892342
-4.10071
0.745908
1.59054
0.218705
2.80386
1.01095
-0.543228
-0.461063
0.333784
1.60373
-5.63233
0.0240989
2.45578
1.43271
0.647353
0.0322032
0.717279
-0.820662
2.50026
0.0634699
0.907092
2.34438
-8.00476
-0.583082
-5.19779
-0.70381
0.0740936
1.89461
1.84013
2.47059
-3.45447
0.0401402
-0.73529
0.98447
1.59853
-0.712759
-1.4448
1.57715
-0.254432
-0.511316
-1.72119
-2.77517
-0.17799
2.00414
0.00658409
0.0579344
-0.233866
1.51226
0.00397219
3.06532
2.30757
1.62801
1.28249
0.0206542
0.0051209
2.87833
-0.149517
0.040028
-0.528178
1.59624
-8.49171
0.255863
1.11432
0.0308049
-0.740119
1.83592
-1.81691
-6.75735
1.03072
-0.119375
3.21926
1.05081
1.3939
1.73298
-0.50561
0.207607
2.58639
0.78053
2.06518
0.358059
0.437509
-0.203315
-0.096627
0.0386674
-9.21598
1.62999
1.5816
-0.311158
0.00270446
-0.233737
2.36022
1.89994
-0.146005
1.61167
1.17881
-0.715687
0.869317
1.42112
-4.11177
2.47142
0.0462542
0.0233966
2.58153
1.08903
0.00519893
1.06391
-0.226441
-0.256034
0.649712
0.996378
1.77756
2.28793
-1.58732
0.711247
-1.71755
0.0085976
2.22281
0.435333
-0.506288
-0.2751
0.204735
0.106442
1.29055
-0.449817
-1.36942
1.6164
2.1635
-0.128468
1.73078
-3.23375
-0.361453
-1.8965
0.653227
-1.01223
1.76071
0.210317
-2.90336
1.36424
1.87951
-1.15584
-1.36464
1.39826
2.22962
0.475375
2.40137
0.195825
1.05447
0.35867
1.77286
0.0605352
2.16933
-4.48626
0.306275
1.53673
-0.275064
-0.647563
1.57051
-7.49903
0.284927
1.80442
2.46952
-0.271089
0.111171
0.413791
0.125537
1.43439
1.10516
0.515603
-3.99517
0.0464902
2.36257
0.261291
0.0866974
-0.888671
2.4854
-0.311867
0.0689274
1.54339
1.26312
-0.0948132
-0.472192
1.35729
0.202049
-0.122243
0.618299
-1.58467
2.41173
1.58087
1.12014
1.16048
-1.10792
-1.16172
2.70988
0.47709
2.71616
-0.277493
1.54544
0.0174651
-5.60856
0.955764
0.872548
2.84194
-0.582442
1.03352
0.985241
-2.29916
0.831811
-0.00919072
-0.731031
1.5624
-1.26039
-0.622681
-0.831734
-0.346713
-0.29273
1.72014
0.00955298
2.63166
1.59832
0.101738
-0.332094
-0.5496
0.511281
-3.16059
-0.442644
-8.76451
2.20912
0.00298079
0.0857298
-1.06089
2.52054
0.0025043
0.204286
2.57698
1.39784
-0.372348
-0.116891
1.13213
0.147847
1.52423
0.0701252
-0.318706
0.604347
1.45908
0.46435
1.3119
2.61412
0.0671584
-0.380683
1.57369
0.221928
-0.225277
1.0924
1.1756
0.67791
-0.432364
0.207456
0.0476912
0.202887
2.2194
0.486274
0.196311
0.191648
0.113834
-0.0917262
1.59416
0.101863
1.4906
1.51529
2.19471
-0.0394651
-1.36764
2.69559
0.0302502
-0.25385
1.67726
-0.863374
1.7945
0.0669339
1.54055
-0.275453
-5.51847
-0.825885
0.00545716
-7.06976
0.83023
2.77338
-0.281006
-2.42902
-0.562745
1.63284
-0.261871
0.691198
-1.46143
2.74262
-0.394274
0.853386
-0.758312
0.906077
1.58117
0.541678
-3.20216
-0.178059
2.55215
1.61939
0.678111
1.43808
0.0999127
1.2544
1.26974
0.918823
-4.90362
-0.13039
1.99102
0.368104
-0.029789
1.32272
-0.257685
-0.271511
0.00127183
1.72506
1.68708
-0.325577
0.203236
-0.334598
-0.193873
0.213499
-0.28323
0.260668
1.53565
-0.137887
-1.62482
1.86115
-0.0448327
-0.348739
-0.176314
-0.693006
-0.316802
-0.751559
0.0390362
-0.708844
1.51369
2.50198
0.0413127
-0.350045
2.58364
2.42553
-0.256756
-0.45255
1.64449
-7.45084
0.0761168
-0.230325
0.0415922
0.882911
-6.83459
0.736064
1.0664
-0.615661
-0.23026
-1.17515
-0.175485
1.37594
0.642209
1.02965
-0.341789
1.3393
2.37575
-11.0931
-0.6454
1.78376
0.549807
1.0411
0.00515401
-0.495918
-0.344978
-0.133441
1.62493
2.72309
1.75526
-1.28156
-0.16544
1.58487
2.31271
-0.472031
1.70179
1.57382
2.41275
0.396412
0.0384497
0.241134
-0.223984
2.40469
0.207396
-0.205273
1.10381
-0.134264
0.395839
-0.10648
-1.33953
1.5045
1.1313
1.09812
0.740556
-8.05329
-0.330463
-0.259443
0.889999
-1.67527
-0.933303
0.0678435
-1.0385
-2.83139
0.82569
-0.507843
-5.60937
-5.21688
-0.314938
1.17473
-6.28024
-0.488749
1.78918
-0.238142
2.47888
-0.298979
-5.69267
1.88003
2.23758
0.0609883
0.0776198
0.357256
1.62734
0.897415
-2.50324
-0.0809957
0.0415091
-0.222254
1.55057
0.079756
0.922924
0.053117
1.59997
-5.94644
0.0627819
0.0187708
1.93843
-0.913762
-4.59607
-0.847129
2.45636
-0.233216
-0.397229
-6.54127
1.57676
-0.375712
0.059341
0.381332
0.75635
-0.712297
1.09501
-0.473388
1.2756
1.56556
1.84466
0.709264
0.0249491
-0.317002
1.19371
-0.640213
1.90847
1.05485
-0.116477
-0.0113238
-0.160992
-0.0752903
0.0409364
1.80085
0.641501
0.229258
1.57665
-0.042981
1.27282
2.81121
-0.103272
-1.89845
1.08232
-0.343719
0.00378499
-0.175813
-0.2317
1.57778
0.0715759
0.0301512
0.0563315
-0.0591892
2.03437
-0.340017
0.00600798
1.58305
-0.463464
2.25505
1.82393
2.12445
0.413228
0.963138
0.482264
0.129426
1.18559
1.56423
-0.210912
-0.280311
-5.77695
-0.442097
-0.936991
1.58927
-2.34213
-1.24961
-1.01903
-0.204419
0.0270482
1.59085
0.0269779
0.28954
-5.13235
1.60477
2.77029
-0.60667
-2.79567
0.874764
-0.0323471
1.54889
0.105032
0.0167638
1.91594
-0.0402841
2.62223
1.10218
1.57001
-0.492493
2.06748
0.0791265
1.83473
0.0493106
-1.19568
-0.588236
-0.632697
1.08407
-0.401072
-0.118359
2.47209
1.60462
1.71009
2.25212
1.74505
1.93351
-0.251843
1.65899
1.61726
1.63228
-0.238077
-0.480624
-0.738842
-1.60015
0.396272
1.78269
-5.63308
2.39471
-1.61853
0.0689544
2.70166
2.27526
-0.276036
-0.719719
1.60709
0.80562
0.0742641
1.49479
-5.62715
-0.635461
1.56912
2.20009
0.0163156
1.7538
2.04639
0.00259603
-0.553577
2.05579
0.708462
0.0434695
-2.86941
0.179874
-1.27734
1.47406
1.07529
0.056739
-0.102412
-0.565165
0.405577
-0.00164102
0.392398
2.32353
-0.0170626
3.00629
1.59885
0.528928
1.79174
-0.386879
-5.02907
-0.354768
1.57809
0.0081476
-4.79609
-0.163375
0.77998
0.912323
0.0386343
1.12504
-6.08168
0.821572
-0.324466
0.0573833
1.28143
0.488798
2.06445
1.61751
1.66111
1.53419
-0.278783
-1.05061
-0.920017
0.19411
-0.296487
-0.305226
1.25702
-0.216829
0.0223155
0.0642563
0.186457
-1.47355
1.12459
0.721414
0.130784
-0.587288
0.768811
-0.803969
-0.869558
0.211903
-0.357219
1.75099
1.17569
2.03729
-5.21214
1.43568
0.062113
2.22234
-0.281268
0.82539
-0.125342
-0.2093
2.57865
2.66134
1.32484
0.862258
1.07217
1.45792
2.60624
1.08621
-1.16911
-1.2465
0.320075
-1.58958
-8.15809
1.59656
1.54555
-0.823088
0.413954
1.32581
1.45424
2.8365
-2.64993
1.24005
-6.54442
-0.333745
2.27894
-0.156048
1.32455
-0.21788
0.501208
0.624751
2.95858
0.0667404
-0.737215
0.797749
0.236717
-0.864673
-5.54665
-0.0243644
1.76097
0.114691
0.870586
2.42344
2.23021
-0.0884377
-2.9996
0.0821613
0.257649
1.85925
1.51899
2.20813
0.965753
-6.22246
2.3161
1.44185
-2.25473
1.22008
1.61952
1.99891
-2.61368
-0.200742
0.00261283
1.34513
2.54039
0.859606
0.162256
-1.25824
2.84986
-9.9194
-1.10173
2.64973
1.39499
-2.08315
1.27162
-0.261783
0.879616
-0.372769
-9.52951
0.0351258
-0.384557
0.0847817
-0.303216
-7.51466
-7.0996
-5.21287
0.215662
-6.24965
-0.294778
1.25395
1.46349
0.826099
-6.72181
0.412798
0.222691
-0.28394
2.99136
1.04717
-0.836719
1.38932
-0.380912
-0.411517
1.30032
1.28818
1.54613
3.02811
0.00487923
-0.153288
-1.02752
0.202601
1.0807
1.55017
-0.614989
2.34121
1.07404
1.68117
-0.207279
-0.083053
0.0900767
1.6445
1.58922
1.6973
1.58019
2.77872
2.71996
-0.394012
1.39958
2.02625
-0.806143
2.19999
0.00333528
2.68813
2.17874
0.0767195
1.79984
0.766144
1.21004
0.11662
1.6028
-1.02977
1.39223
0.585115
1.06562
-0.177553
1.54882
0.00536428
0.385265
2.59694
2.58982
1.05966
-5.26894
0.408079
0.0848446
-0.141562
1.27287
2.32561
-5.33495
1.63367
1.52151
0.780736
1.63543
-0.641503
-0.223995
0.0613918
2.82388
0.47048
0.0927746
1.82269
-0.175047
0.0836806
0.801043
0.313811
1.20418
0.62485
-0.502134
0.951905
1.27219
1.04482
1.18527
2.74592
2.25118
1.97228
1.88321
2.54028
0.762794
-0.00737344
-0.0425405
-1.88087
2.56909
-0.221114
1.5874
1.42687
-0.379061
0.832449
1.75823
-0.7023
0.797661
0.980089
3.06578
-3.78708
0.7074
-1.87204
1.80965
0.165879
-0.264476
2.52585
2.15329
1.53612
1.57048
-0.42315
0.741411
-9.46457
2.71436
0.0495603
2.93701
-0.144047
0.126417
-5.62101
0.840248
-5.60263
0.247079
-0.0309125
0.575122
-0.104944
0.535459
-0.278082
0.00355484
-0.270612
-5.1143
-0.665985
-2.69375
-0.059661
-0.0803967
-0.229372
-2.83372
1.61926
1.65104
2.0043
1.56753
0.642034
0.619394
3.22984
1.54941
-6.43056
0.00820629
-0.155709
1.2116
1.40341
2.34585
-1.16054
-1.13459
1.2867
0.00174616
0.42172
1.9815
-5.37146
-0.532101
-9.16738
2.74544
-0.262171
1.10996
2.02917
-0.20396
1.25782
0.0126887
-3.57981
-2.52447
0.100875
1.05708
1.8867
1.99104
-2.61755
-5.18004
1.03819
-12.324
-0.508776
-0.281904
0.292263
-0.355556
0.00933215
-0.279524
-3.41602
-1.04422
2.43487
-0.223491
2.66157
-1.05914
-0.198996
0.603864
-0.380251
2.24885
1.55076
1.86094
-0.22028
-0.377994
-4.07683
2.16277
-5.09663
1.15627
0.0439348
1.90509
2.24538
0.0354941
1.5694
2.55386
1.74368
1.71076
-3.40038
-0.0997933
0.662726
-0.817511
-0.0217047
0.959642
1.12249
0.169503
-5.58623
0.387914
0.0956775
1.37778
1.17013
-0.589453
2.6793
0.198353
0.00486213
0.224883
1.55662
-0.442939
0.0118472
1.72478
-0.866542
0.146293
-0.298489
1.67166
1.55885
1.49078
0.0168984
1.48511
1.82781
1.78967
-0.382806
0.074155
0.345625
1.3725
-1.21353
-4.02985
-0.383851
-2.02768
-0.260573
0.0345344
-0.0193358
0.0662083
-5.73414
-0.830026
-1.69732
0.0991444
-0.376998
0.587146
-1.10828
1.68328
3.25116
0.529585
-0.270143
0.701141
0.172892
0.41264
0.0325603
-0.477247
-0.927986
0.216163
2.09249
0.00732712
2.50825
0.0305988
1.48429
1.29826
0.700211
-5.58885
0.909889
2.76919
-0.232798
1.5866
1.52326
2.33584
0.215987
2.14444
1.69709
-5.71266
1.80647
-4.1635
-10.5632
2.19069
1.39783
-2.44172
-0.0471405
2.05471
0.164338
-0.589472
0.0663505
0.0654336
1.21335
0.857713
1.58242
1.48138
1.35976
-3.25654
-0.669638
-0.352973
1.54466
2.93222
-0.53063
-10.5426
-5.31295
1.58227
0.19952
0.200958
0.686513
0.0342906
1.23177
-0.214599
0.366349
2.44899
0.708429
-0.0882523
-0.171546
-0.262476
-0.791095
-6.8543
-1.04883
-0.572153
1.87988
0.852254
-0.716066
2.54907
0.00820812
-3.00364
-0.289583
-10.57
1.71562
-4.88152
0.526393
1.5824
0.0366411
-0.39275
-0.193344
-6.6525
-0.260968
1.7226
-1.72706
0.0153942
-9.06512
1.5253
1.70445
-0.263805
2.00921
1.85868
2.41307
2.47839
1.7647
0.277946
2.82638
-9.72743
1.54085
0.317372
-1.46981
1.92194
-0.346631
2.42151
0.742994
-1.67002
-4.80541
-7.8089
1.68983
-0.395499
-0.381646
0.107211
-1.3974
-0.0746034
0.97772
0.27986
1.1549
2.7428
-5.39935
-0.969601
-0.938796
1.64261
1.1857
-0.659892
3.21134
0.00408618
0.0922699
1.00032
-1.63614
1.51651
1.63277
1.82437
1.83349
-0.0805508
0.859082
1.52354
0.372027
-0.26053
0.0176359
1.71465
1.7789
2.18449
-0.205807
0.162509
0.807038
0.964604
0.209805
-1.31493
1.30469
-0.254567
1.37854
1.62924
-7.28931
2.49971
-0.649385
2.71636
1.80544
-1.27669
0.00446756
0.0552297
0.570347
1.66527
-0.879894
2.15226
1.49803
0.811257
0.0539143
0.359088
-0.422814
0.809854
-8.14682
0.976949
-0.249372
1.54134
-3.72183
0.0359105
-0.338695
1.95703
2.26657
0.736969
-3.92493
0.771594
-0.0939979
0.192187
0.890076
-0.20269
-0.176474
2.66189
-0.849919
-0.170306
-0.97586
-9.47287
-0.0578802
1.62875
-7.75375
-0.293987
1.65549
1.01818
1.70318
-0.25658
0.726267
2.68993
-3.13375
1.52179
0.489915
-0.172122
0.556136
0.378421
-1.17342
2.74651
1.81493
-0.723276
2.66042
2.06223
1.93731
-12.1595
-3.82106
1.00812
-1.87429
-0.0362507
-2.80225
-1.67742
-2.65221
1.25375
0.610607
0.956267
1.06153
-0.198019
1.18936
1.54821
-8.42759
1.65167
0.988426
1.5741
-0.0952365
0.0322494
-0.266301
-7.13533
-0.254809
-0.349029
1.53057
-1.53537
2.42435
-0.362438
1.52557
0.972816
0.0659984
0.287541
1.62771
0.713277
0.371495
1.42725
0.0772407
-0.0335881
2.29405
1.86474
-0.682432
-2.18875
0.0715288
1.39457
0.0195487
0.70892
-2.45568
0.0450361
-0.120063
0.0919532
1.38285
1.32541
0.0855033
0.704032
-0.0308621
0.0185621
-1.17788
1.95283
-0.268792
1.54746
0.00324398
1.36132
1.68401
0.899239
1.47345
0.119493
-0.282289
0.0709674
-4.39704
-0.353225
-0.637723
-0.477309
-0.0958863
1.26047
-0.0497195
1.55093
-0.0590663
0.0165267
-2.49595
0.00418596
1.65235
-2.76993
1.54606
0.412376
-0.907907
-0.109973
-0.264087
1.12969
1.67143
0.0216659
0.309835
-5.21017
1.85451
0.123892
0.478302
-0.585357
1.99066
0.787449
0.0299365
1.69198
1.64277
1.92214
0.23669
1.94129
-3.30147
0.0993925
-0.204967
1.52637
1.01854
0.438586
0.179767
-1.26
-0.679463
0.872001
0.150926
-0.805531
2.47505
-3.70698
1.88984
1.1465
-0.382919
-0.0164196
0.124987
-0.0680816
0.194768
0.244683
1.48295
0.0709851
1.58179
-2.59847
0.643393
-0.165934
0.389734
-1.31199
1.96881
2.69921
1.72926
0.889078
0.329676
1.02206
-5.87885
0.0335992
0.0464126
-0.13006
-0.721392
-1.46388
-1.26637
-0.687049
1.40981
1.55567
-3.49841
0.426244
1.78776
-0.691007
-2.12676
1.69634
-0.013279
-3.73686
0.0518568
-0.268113
0.00643965
2.5253
0.0532568
1.51998
-1.57171
-0.945972
-0.668674
1.54693
0.413097
1.30873
-1.35749
-0.890463
0.127722
0.316177
1.82457
1.39532
0.290286
-0.171896
-0.388091
2.80618
-0.197515
1.79916
1.96655
-0.162315
-0.0339988
0.734603
-5.03915
-0.891836
1.37483
0.904068
1.52999
-0.394557
1.72346
0.2012
2.25942
0.321573
1.39431
1.99895
1.30571
0.274057
-0.401367
0.522038
-9.65216
1.36076
0.714245
1.91452
0.167698
2.40518
0.287076
2.55877
-0.709816
1.99301
-0.213566
1.1925
-3.76046
1.51365
0.767434
0.64655
2.37236
1.56378
0.375265
-0.672108
0.913965
1.49746
0.00600386
-6.53469
1.16427
0.111557
2.05776
-0.264678
2.44912
0.401969
3.26584
2.46927
1.15857
1.02307
-3.78611
0.113522
2.62999
0.0910029
-0.0448386
-0.104038
2.60612
0.768515
1.35838
2.21344
-0.97491
1.71771
-0.28607
1.88456
0.0867181
1.7791
1.61132
2.18618
-0.0139199
-11.2402
0.476607
-0.260128
0.740762
0.254112
0.090264
2.01657
2.3061
0.029806
0.533398
-0.266743
2.06273
1.30898
1.45549
0.984154
-0.198532
-4.21982
-0.22935
1.61728
-2.58623
-0.0800964
0.0448749
1.12163
0.757121
-0.699101
2.77644
-0.112123
2.42421
0.468747
2.47012
-0.466351
0.358297
0.0655244
0.084484
1.34505
1.55717
-0.436589
-0.0844299
-0.534528
-0.0807334
2.28882
-0.528524
0.0393964
-0.163604
-0.101964
0.536375
1.93327
0.75806
0.098844
0.0489988
1.57057
2.9418
-0.258119
0.129137
1.54086
0.0362093
0.812046
0.0453245
1.12586
-0.0900846
-5.0506
-0.483152
-0.248917
-0.170327
0.00920821
-2.45583
-0.594763
-0.0405056
1.23355
1.6909
1.3766
2.85514
-3.96099
2.58844
-4.68644
2.43893
-0.900024
-1.06775
2.75856
0.646409
-0.349304
1.59995
-0.0152294
1.7266
-0.289867
-8.5784
0.29168
-0.638328
-0.728257
0.008935
-0.146561
0.633454
1.96245
-1.11632
0.706216
-2.53398
0.389611
-0.13871
0.0126078
0.21741
-0.140739
-2.00474
2.06127
0.0376003
2.27371
0.607478
-3.10605
0.522936
-1.40748
0.0689983
1.36136
1.98155
2.86922
1.19333
1.32662
0.752521
-5.40854
2.76734
2.95676
1.72181
-0.941569
-0.380306
-9.78289
1.4673
1.03978
0.584524
1.26148
-0.181202
0.0195437
-7.80169
2.36335
0.06123
0.208512
-0.275256
1.52325
0.30186
3.17034
2.96604
1.41209
0.0707073
0.438813
-3.76826
0.588779
3.04507
0.192784
0.0673581
1.1669
0.00346802
0.313698
-0.174869
-0.355301
0.377294
0.102501
0.729803
0.043147
0.49858
2.20991
0.485822
1.67822
-0.292964
-0.431874
2.66636
-1.99133
0.284388
0.414511
0.678073
0.20054
-0.269334
0.325326
0.105647
0.192153
3.19974
-5.72271
-3.17578
-0.838516
-1.1258
0.181322
0.410453
-0.261674
-2.43343
0.028836
-3.49461
-1.30114
-0.813128
0.198071
0.145645
0.170558
3.12253
0.150794
0.471549
-0.173145
0.315892
-5.20653
-0.358164
2.16337
1.55967
0.479795
-0.115168
1.52094
1.68536
0.0528654
-1.27081
0.0544822
2.15515
-0.720836
1.47765
0.0775798
2.42829
0.107962
-0.316408
-0.11288
1.72028
-0.577953
1.39946
-1
3.00911
-0.267192
-0.315392
-6.28785
0.688608
-0.275184
-1.0699
-0.269207
0.239615
0.707226
-0.448706
-0.176557
-0.0723146
0.268354
-0.625923
-1.31559
1.28267
-10.9679
1.37631
-0.277238
1.74055
2.75281
1.48089
-5.43662
1.59674
0.218251
0.298754
-0.0842679
-0.482827
-8.21325
0.0865771
-0.388688
0.688743
0.00418502
-1.20386
-0.0789055
-3.35718
0.81997
1.60059
-1.76639
-0.264596
-0.538234
0.0413636
-0.118473
0.945651
-3.4161
-0.272141
1.59138
-0.0824919
0.899931
-1.13248
-4.31299
-1.3079
-3.78941
3.13834
0.503771
-0.827563
0.395432
2.58898
2.6725
-0.344365
-0.297463
1.5666
0.0212948
0.0759253
2.66207
0.89338
1.39308
3.19274
-0.499591
0.471902
0.255602
2.37301
1.62961
1.63559
1.97093
1.11876
0.0548016
0.102552
0.736777
0.37687
-6.41916
2.72531
-0.852903
-0.939884
0.0428973
-0.61775
0.79057
-0.278314
-0.327648
0.367732
1.6533
1.70341
1.81082
-6.06845
2.33289
2.65363
-3.06404
1.00329
-0.119994
-0.144802
0.288067
0.921744
-0.0953212
-0.708843
-1.03243
2.94563
-4.6247
1.83078
1.59105
2.09124
1.19429
1.25707
-0.105383
0.047739
0.928655
-0.0263547
-10.7677
-2.3237
0.150332
-0.261998
1.95073
-0.430637
0.0444497
0.320764
-5.09972
-0.294658
-8.17262
1.41311
-0.291859
0.0232262
0.748156
-1.01886
0.568777
-3.68199
-0.112021
1.70469
-3.17745
2.71396
0.0374896
2.89078
0.0039527
0.0425879
0.258346
1.38383
1.35784
-3.34039
-0.119747
-0.348838
0.243937
1.12215
3.20292
2.09817
0.546781
-0.690286
0.848089
-0.0794479
1.81273
-0.145266
0.930182
-0.23403
-0.269894
-4.92875
0.578891
0.053063
-5.04888
1.04015
1.02123
2.62247
2.81656
-6.94161
-7.94027
-0.360291
-1.47897
2.7328
0.187
-0.715758
0.695649
1.14263
-0.241013
0.131594
0.0815491
-0.0112107
1.44856
-0.204944
0.478638
-0.968194
-1.06764
-2.93433
-0.432746
-2.93517
-2.62426
1.75422
-0.377561
-0.298373
-0.309014
0.0118489
2.9896
1.17159
1.48076
-0.329013
0.821956
-0.0450807
0.664407
0.485305
-0.264619
-4.14505
2.7238
1.6793
-0.00960684
-5.85051
3.10088
-0.292759
-3.87782
-0.225063
0.818865
-0.279657
-0.231218
2.36222
-0.102809
1.4645
0.641079
-0.254078
0.159646
0.0344371
0.794136
-3.14098
0.03281
0.486964
1.56105
-0.263545
-4.30685
0.160235
-0.436813
-1.72619
-1.54507
2.91143
1.0391
-0.937552
0.776196
0.413408
2.55882
0.907196
-4.63936
0.964014
2.00725
1.72025
-0.647349
1.398
-0.0966229
2.701
0.0488963
1.61366
-1.58672
-0.604054
0.0467408
-0.254541
0.948484
0.546566
-5.25826
-0.28701
1.87183
-0.0483136
-0.0813335
2.21497
1.25138
2.15616
1.47998
-0.935946
0.0239406
0.0713661
1.57195
0.00308467
1.96573
1.23428
2.68151
-0.267367
2.0991
0.796208
2.71054
-0.251531
-0.969722
2.77381
-0.268391
1.20536
-5.34479
2.38525
2.67218
1.71147
-2.64011
1.57031
2.05098
-0.601596
0.673884
-0.312692
2.18985
-0.271311
-0.147375
-8.73292
-9.48651
2.01449
0.781739
-12.3891
0.837996
2.6693
-0.876348
-0.269066
-10.3672
-1.14587
1.33331
-0.180833
1.50906
1.48953
-12.5735
2.99571
-0.0358285
2.26403
2.24344
0.134514
0.0247385
1.40779
-2.19564
-0.236348
1.39391
1.19978
-0.56464
1.49632
-0.233066
2.34884
1.71237
0.630872
0.0328093
1.75681
-0.161575
0.960213
2.09825
0.380713
0.0378142
2.03502
1.69641
-0.786661
-5.30632
1.21242
1.77516
2.69836
-5.54908
2.85031
2.8106
2.89847
-0.164786
1.97635
-1.19701
1.58001
2.12625
2.07442
1.75804
2.32742
3.16614
1.37296
-5.09504
0.179039
-4.11634
3.13509
0.868473
-0.0938847
-0.267741
1.48362
2.34796
1.52003
0.556747
-0.103888
2.33466
-2.92725
1.69571
-0.269088
0.732977
0.0188087
0.505463
1.04657
-0.477979
-0.430037
-0.100769
-0.420367
-0.180739
1.93741
-0.347664
0.212989
1.48222
-3.29942
0.988209
0.0420986
-2.9263
-1.77489
-4.65807
2.22647
2.39858
-0.282387
0.602483
2.04474
1.84276
0.0299267
-0.781272
1.73605
-6.07873
2.19013
-2.59006
2.13247
0.992263
0.240168
1.98568
1.06963
2.08237
0.590962
0.742231
-0.583191
-5.44122
-6.07876
-0.0393042
2.04352
-1.12398
-0.279136
-1.15496
2.26614
2.0608
0.559769
1.1845
2.29701
-2.51325
1.51334
-0.150952
-0.677652
1.50716
-0.323001
-5.57303
-1.42959
-7.62226
-0.328941
-1.12231
-0.103824
-10.9818
-5.65132
1.30608
2.7333
2.98511
2.59525
-1.07733
1.71425
-1.95708
1.47164
2.28715
0.232968
2.00667
-1.1684
0.576273
-0.627195
-0.0851383
2.18275
-1.21004
1.7973
-7.25584
-0.400865
-8.62711
1.83142
1.78308
1.5778
-4.47955
1.50094
-0.181703
-12.0233
-11.2464
0.53485
2.74326
-3.18214
-0.323542
-0.278996
1.54223
1.51186
-0.0316694
0.997081
-6.17719
2.33046
2.10496
-0.25522
-0.322606
2.27136
-0.334096
-3.21628
0.0261808
2.07655
2.33617
-0.966888
1.13198
-0.237846
2.68539
-11.8012
-0.571532
-0.0843377
2.51859
0.0156245
-0.555454
-0.0929228
2.16588
1.25315
2.14959
-0.140083
-2.82445
1.76202
3.0997
-5.70108
1.42555
-0.025436
-12.013
-0.0100984
0.594188
-0.262119
1.10514
-0.23943
1.04083
-0.18229
-0.76082
1.96855
2.3556
1.48901
-2.02876
-0.589449
1.83275
-6.33021
0.609779
-0.705095
0.798693
-9.66191
1.70626
1.83927
-0.0581166
1.72507
2.64725
-0.269945
1.29338
1.80338
-10.2226
0.971308
-0.574457
0.794855
0.590829
1.24615
0.00839948
0.554528
-0.236569
-3.4269
2.21426
0.649279
0.235365
-0.36471
-0.224134
1.63982
-8.15714
2.88591
-3.78714
-9.14415
-0.110136
2.02194
1.79319
2.11633
-5.28904
2.5477
-1.76297
1.25176
0.0755753
-3.70946
1.45848
0.735657
-0.276742
1.09179
-4.00326
1.28697
-7.34125
-0.351882
0.0102877
-2.29229
-2.75178
1.41713
2.61577
0.0509411
-1.42088
2.03557
-2.55165
2.37727
0.73066
0.065959
0.863339
1.5902
0.838786
-0.125454
0.201986
-0.00364634
0.398172
0.581283
-4.04991
-0.297885
0.0989035
0.939892
-0.263573
3.15334
1.70855
1.5677
2.40079
0.260665
1.7704
-1.1598
-7.07392
-0.425617
1.58349
3.07359
1.47771
-1.09535
2.21773
1.49128
1.51519
0.045835
-0.052746
0.854273
2.89945
0.154603
-0.769076
2.13326
2.26308
1.66936
1.57085
1.92848
1.11737
-0.208924
-0.566908
1.74006
-5.74214
-5.23831
1.54086
-0.482266
0.00658745
0.534409
1.7176
1.77944
1.80958
-0.166862
2.11295
2.16261
0.330838
1.89938
1.66113
1.31119
1.19052
1.07518
0.82275
-0.0359783
2.02101
1.88341
-0.105265
1.44603
-0.183789
0.0538355
2.59416
1.95931
0.0118268
-0.674421
0.0416765
2.01577
1.13916
0.304218
0.0194742
0.246099
-0.326696
0.316869
-0.260136
-0.220355
1.16619
-0.237475
-1.87432
-5.07011
2.44793
-0.25396
-4.16965
-0.335668
2.62819
-0.218075
0.364164
0.321242
-10.712
1.23564
1.47887
1.00462
2.3099
1.27371
0.0463454
-4.57871
-0.525856
0.029384
1.83224
-0.0219711
-1.33901
-11.9156
-0.353406
-4.09569
-0.311879
-3.278
-0.208813
0.598805
1.5526
2.05706
-0.308392
-0.161789
2.31925
1.76416
-0.828561
-0.272336
-4.25824
0.98064
0.0622736
0.88058
1.34437
-0.0386837
-0.238994
-0.279651
0.424623
-1.48832
-5.13797
0.191657
-0.82841
-7.00609
-11.5577
-0.43069
0.185672
-4.79344
0.817963
-1.50529
1.5563
1.39745
0.437754
2.04564
-0.976606
2.62763
-0.634652
0.103672
-1.36971
1.5714
0.968459
-5.19619
-5.69292
1.60795
1.91199
2.72551
-0.92458
-6.4566
-0.81677
-0.171941
0.00880354
-4.77069
0.588592
-7.7348
0.941793
-1.64173
1.21016
0.20473
-0.0619047
2.38688
1.4052
-1.22909
0.0296822
-1.85332
-5.33838
2.0505
2.98696
-5.02433
1.93564
1.49211
0.00633757
-0.204563
1.99213
1.90681
-3.59588
-0.204353
-0.445776
-1.01151
-1.29187
-7.27776
-1.18404
1.03766
-0.192959
1.73947
-3.57155
-11.9079
1.4743
-1.19116
-9.17196
0.089644
1.1977
-10.0506
-0.680668
-12.4557
-3.43927
-8.47739
2.76592
-6.20849
-0.259513
-1.75819
1.72624
-9.7399
-0.148637
-2.71043
-4.2288
-0.621667
1.79273
0.0171395
-5.02816
1.37872
0.014671
-0.529124
-3.48017
-5.90851
1.13108
1.30397
1.5862
-8.78156
2.36605
-0.407242
0.00652575
0.130649
-2.6466
-0.608836
-5.53464
-1.28183
0.342425
0.684163
0.0217702
-0.350952
-1.16865
1.48586
-2.57703
1.66104
-3.01229
1.00101
-0.313814
-0.0928287
-0.117843
3.11087
-0.2704
-10.9697
-6.02537
-0.988209
1.58312
0.0590884
-0.133902
0.078212
-11.087
-0.764927
-5.505
-6.71355
1.72522
-9.38422
0.242863
-12.2817
-0.0379705
1.38662
0.131429
0.720666
-0.518332
2.07664
-7.67849
-0.765796
2.22372
0.648014
-8.65734
-0.352292
-2.98051
-1.06858
-0.413722
2.03129
-0.35801
0.67496
-6.20201
-2.65513
-6.73779
-8.13204
-4.01679
0.942237
-0.252503
1.55665
0.595761
-2.24987
-0.404466
-0.733291
1.95341
2.34625
-11.1476
0.0754629
1.69105
1.55771
1.24634
-0.999714
-1.8527
-1.96058
1.58465
0.463682
-1.06317
-4.16894
0.912788
1.87914
-0.280454
-0.00180117
0.0789392
2.19797
-1.75084
-1.91836
0.0442202
1.36206
0.0769518
-0.110704
2.38116
1.96819
0.0281486
-1.09202
2.00564
0.78655
-0.110865
1.45963
-0.433953
-1.41661
-2.35616
-1.11609
1.92701
1.6877
-0.10798
-0.708158
-0.234135
-0.0180854
1.73038
-1.05125
1.19463
2.09184
2.24025
-0.301075
1.58602
1.39749
1.75267
1.85831
-0.195937
1.8717
0.00861799
1.58132
0.860164
1.7129
-0.441043
1.9906
1.89906
1.42434
1.03934
-0.673477
1.12524
0.10367
-0.841979
2.1408
2.11272
-0.721749
1.80802
-1.12022
-5.8995
1.71446
1.71541
-2.30779
-0.0855119
-6.59533
-0.965037
-1.4335
-0.300639
-2.34827
-0.438952
1.44859
2.87911
1.99197
-0.330367
-0.243184
1.68395
0.842093
-0.16824
-1.37851
-0.560079
-1.90092
-5.56403
-5.53079
1.51022
-0.520619
0.799381
0.0443818
0.0412435
-0.111845
0.0390205
0.353377
0.82605
1.05549
-0.609113
0.755791
-2.57951
-1.94149
1.10953
0.874835
-0.0701186
0.170716
1.04866
-0.0132833
0.615414
-0.662558
1.55973
1.31907
2.51927
1.58278
-0.963135
-0.423706
-0.697665
-0.517653
0.0194068
0.0515632
-0.204147
-0.770648
2.93705
0.17505
0.0026916
2.34147
-0.270636
-1.03397
-0.183239
-0.46378
-6.68173
0.483941
-1.46403
1.54286
-0.252784
-0.874465
-0.174226
-0.346622
-1.03197
-0.138561
-0.0243476
1.23253
-0.268416
-0.299799
-1.59084
0.629148
-1.10008
1.70554
2.40226
-0.493043
1.73968
0.911898
1.15471
2.6556
-0.25624
0.963005
0.842231
0.737565
2.26834
-0.495645
-0.173483
-0.136539
1.68194
2.39932
-0.384734
-0.163316
-1.11539
-0.93661
0.817383
-0.732559
-2.31274
-0.542584
0.627965
-5.94687
0.393979
0.518229
1.38211
0.306278
-5.21037
-0.511787
0.0222491
-0.210688
2.56025
2.8743
2.12929
3.04259
1.40027
0.862969
1.78245
1.54668
1.4331
-0.892418
1.62719
-0.389369
-5.56659
2.3482
-0.248226
-1.1322
2.75489
0.0453447
-1.08073
0.851476
0.737062
1.93324
-6.57254
1.45987
2.53884
-0.263612
-5.78602
-1.97408
1.13049
-1.82439
2.03631
-0.134159
1.93757
1.57494
-0.29503
1.85678
-0.695869
-4.38341
-4.66986
-0.506473
1.91175
-1.00518
1.63043
-0.0252875
-5.74526
0.123522
-0.128904
-1.65031