/*--------------------------------*- C++ -*----------------------------------*\
| =========                 |                                                 |
| \\      /  F ield         | OpenFOAM: The Open Source CFD Toolbox           |
|  \\    /   O peration     | Version:  2306                                  |
|   \\  /    A nd           | Website:  www.openfoam.com                      |
|    \\/     M anipulation  |                                                 |
\*---------------------------------------------------------------------------*/
FoamFile
{
    version     2.0;
    format      ascii;
    arch        "LSB;label=32;scalar=64";
    class       surfaceScalarField;
    location    "3.6";
    object      phi;
}
// * * * * * * * * * * * * * * * * * * * * * * * * * * * * * * * * * * * * * //

dimensions      [0 3 -1 0 0 0 0];

oriented        oriented;

internalField   nonuniform List<scalar> 
20045
(
0.252406
-0.278597
0.0261912
-0.543714
0.192368
0.351345
0.150051
0.877989
-1.02804
0.0582198
-0.0823681
0.0241484
-0.427165
0.417268
0.00989691
-0.279879
1.08772
-0.807843
-0.517536
0.22662
0.290916
0.0354443
0.220086
-0.25553
0.237964
0.217129
-0.455094
-0.411955
-0.0655174
0.477472
0.290728
0.028798
-0.319526
1.12448
-0.560077
-0.564403
0.187585
-0.186882
-0.0007034
-0.648624
0.536572
0.112052
-0.167999
0.541404
-0.373405
-0.553213
0.141258
0.0929585
0.143769
-0.236727
0.462989
-0.35538
-0.107609
-0.856277
1.24622
-0.389939
-0.378758
0.0219156
0.356842
0.211771
-0.194081
-0.0176901
0.0651933
0.122392
-0.064958
-0.478755
0.260548
0.410287
-0.670835
0.425183
0.099984
-0.525167
-0.441312
0.701859
-0.255638
0.256956
-0.00131802
-0.557468
1.07729
-0.519824
0.880901
0.114145
-0.995046
-1.03028
0.596106
0.434174
-0.0625206
-0.190741
0.253262
0.7321
-0.516422
-0.215678
-0.413674
0.723707
-0.310033
1.10698
-0.645214
-0.461768
-0.283769
0.319213
1.10193
-0.54634
-0.555589
0.730944
0.124201
-0.855145
-0.0311841
0.190498
-0.159314
-1.0112
0.389663
0.62154
0.310275
0.256213
-0.566488
0.026149
0.201177
-0.227326
0.0665184
-0.0963009
0.0297824
1.07207
-1.07464
0.00257022
0.747373
-0.271505
-0.475867
0.341989
0.405384
0.537579
0.586902
0.0954018
0.154702
-0.250104
0.62584
0.28933
-0.91517
0.938456
-0.207512
0.0649288
0.901431
-0.96636
0.650607
-1.10103
0.450424
0.929747
-0.691309
-0.238437
-0.580128
-0.48172
1.06185
-0.0434811
-0.157851
0.201332
0.440546
-0.109031
-0.331515
-0.353493
-0.0736721
0.0485216
0.734733
-0.783254
0.836441
0.0338187
-0.87026
0.383129
-0.796803
1.06476
-0.72629
-0.338469
0.277247
0.0804958
-0.357743
0.419119
0.64564
0.454112
-0.920612
0.4665
0.173038
0.0387327
0.333933
0.111541
-0.445475
0.823424
0.131267
-0.954691
-0.0254003
0.0898561
-0.0644558
-0.34073
0.0759909
0.264739
0.431246
-0.193282
0.934523
-0.94787
0.0133468
-0.0526042
0.0272039
-0.0533595
0.493906
-0.129925
-0.518791
0.648715
-0.0076404
-0.0918298
0.0994702
0.911763
-0.150071
-0.761693
0.693948
-0.645426
-0.0379208
0.949684
0.219267
-0.387266
-0.280839
0.0794494
0.20139
0.272091
-0.591783
0.319693
0.522597
0.609524
-1.13212
0.458549
-0.356896
-0.101653
0.7962
-0.342089
-1.13373
0.207918
0.925814
0.00552515
0.24688
-0.264749
0.314497
-0.0497473
0.597879
-0.620582
0.0227028
-0.802321
0.0321395
0.770181
0.514254
0.0903282
-0.604583
-0.440833
0.394321
0.0465125
-0.74146
-0.113713
0.855173
0.369054
-0.0631743
-0.305879
0.205552
-0.298329
0.0927779
-0.0801206
-0.411343
0.491463
0.303148
-0.319843
0.0166951
0.748783
0.202589
-0.951371
-0.188308
-0.0673296
0.0166972
-0.134068
0.117371
0.618099
-0.307825
0.0491212
0.214687
-0.263809
0.744348
0.357582
-0.249456
-0.399167
-0.159602
0.176299
-0.139832
0.976273
0.0112231
-0.275972
-0.267353
0.316474
0.229291
0.603237
-0.832528
0.627101
-0.919978
0.292877
-0.185437
-0.212013
0.18495
0.0270628
-0.100056
0.127838
-0.0277826
0.634256
-0.463129
-0.171127
-0.252663
0.209182
0.667831
-1.07038
0.402554
-0.0930629
0.165838
-0.072775
0.02306
-0.124149
0.101089
0.58499
-0.159807
0.822363
0.284619
-0.584905
0.454981
0.695969
-1.01926
0.323287
0.31787
0.145119
0.277886
-0.000639279
-0.395829
0.324276
0.0715527
-0.384102
0.0481335
-0.298197
0.250063
0.67312
0.256627
0.566658
-0.719932
0.153275
0.808804
0.0879549
-0.896759
-0.99988
0.774621
0.225259
-0.220621
-0.317757
0.538378
0.98755
-0.31443
-0.199103
0.353804
0.141161
-0.158391
0.0172302
-0.0478428
0.0170494
0.0307934
0.569936
0.40268
-0.972616
0.60687
-0.576747
-0.0301227
-0.17602
0.0972175
0.0788027
-0.152113
-0.0598993
1.13681
-0.440838
-0.330451
0.354036
-0.023585
0.614397
-1.01237
0.397976
0.227283
-0.807411
0.570965
0.240645
-0.81161
0.647302
-0.375212
0.968028
-0.121319
-0.846709
0.148779
-0.707607
0.558828
1.03034
-0.835986
-0.19435
-0.137933
0.23267
-0.0947377
0.0175419
0.978207
-0.995749
1.07077
-0.189871
-0.825078
0.0262488
0.79883
-0.483056
0.42357
0.0594859
1.01976
-0.49716
0.169485
0.289063
-0.641149
0.769869
-0.12872
-0.71074
0.860791
0.0108467
-0.154971
0.144124
0.0465872
-0.0617212
0.015134
-0.0152252
-0.193234
0.208459
0.908529
-0.0746806
-0.833849
1.27724
-0.626086
-0.651156
-0.22616
0.210935
0.353805
-0.684327
0.330522
0.0782834
-0.011765
-0.831141
-0.49463
0.681555
-0.186925
-0.673359
0.507626
0.165732
-0.0115344
-0.0302093
0.0417437
0.268859
0.761477
-0.0583932
0.0105504
0.0499414
0.0912199
-0.696047
0.0548972
-0.735243
0.931891
-0.196647
-0.665327
0.765932
-0.100605
-0.609736
-0.425244
1.03498
-0.0264981
-0.201573
0.228071
0.440521
-0.483323
0.0428013
0.763499
0.134343
-0.897842
0.015065
-0.753228
0.738163
-0.3806
0.951565
0.202658
-0.55238
0.349722
-0.396884
1.06472
-0.838195
0.550243
0.287952
-0.0246037
0.0138181
0.0107856
0.378816
-1.09125
0.71243
-0.871902
0.314433
-0.619964
-0.401147
0.975455
-0.610966
-0.364489
-0.270806
0.296955
0.125037
-0.132144
0.00710651
-0.773056
-0.194199
0.967256
-0.788244
1.11181
-0.323568
0.950896
-0.65464
-0.296255
0.07342
-0.249184
0.175764
-0.222184
-0.510436
0.73262
-0.00110419
0.291832
-0.455864
0.235243
-0.647937
-0.222592
0.870528
0.0908911
0.0254491
-0.11634
0.106408
-0.601038
0.171086
-0.233606
0.861253
-0.0524494
-0.142529
0.111345
-0.131599
0.160391
-0.0287922
-0.104845
1.01337
-0.774833
0.552649
0.326698
-0.0133581
-0.31334
-0.702143
0.137822
0.564321
0.334589
0.616307
1.14427
-0.765451
0.683203
-1.12371
0.440504
0.23682
-0.681578
0.444757
0.0332558
-0.412014
-0.485765
0.715057
0.657916
-0.937795
0.234675
-0.664394
0.429719
-1.1216
0.616816
0.504785
-0.0319039
-0.408929
0.181151
0.147427
-0.328578
0.679605
-0.173959
-0.505646
0.307646
-0.671229
0.688771
-0.259146
-0.0713054
0.629306
1.08959
-0.940685
-0.148907
-0.0112488
-0.13121
0.142459
0.675682
0.0899316
-0.765613
0.1751
0.113302
-0.288402
-0.0700731
0.597367
-0.527294
-0.0870582
0.684937
0.575085
-0.372427
-0.0544371
0.154567
-0.10013
0.838632
-0.224235
0.0925582
-0.00789918
-0.084659
0.160535
0.0536038
-0.214138
-0.106053
0.109749
-0.00369566
0.972864
-0.636411
-0.336453
0.238756
-1.027
-0.115751
0.0096981
-0.882316
0.282924
0.599392
1.0034
-0.279688
0.246015
-0.981258
1.24674
-0.582897
-0.663843
-0.0119738
0.102865
0.892399
-0.356991
-0.535409
-0.617355
0.144864
0.472491
-0.974213
0.972408
0.00180563
0.27826
-0.74509
0.46683
-0.0522395
-0.00435843
0.0565979
-0.480999
0.636231
-0.155233
-0.00425346
-0.126417
0.130671
-0.150897
0.0578339
-0.116119
0.0160631
-0.645841
-0.274137
0.461605
-0.741986
0.280382
0.242846
-0.256575
0.013729
0.41657
0.31553
0.583048
-0.348373
0.0102307
0.0363565
0.61639
0.387005
-0.493381
0.00796206
0.485419
0.269137
0.623262
0.386398
0.155007
0.256129
-0.0132838
-0.289434
-0.0200029
0.309437
-0.0262307
0.00162701
-0.638389
0.568316
-0.207522
0.29021
-0.0826875
-0.898064
0.856827
0.0412376
-0.436108
0.605328
-0.16922
-0.211967
-0.117991
0.329958
0.760911
-0.828558
0.0676478
-0.669441
-0.452159
1.28602
-0.863667
-0.422351
-0.0959788
0.08473
0.830451
-0.552191
-0.314508
0.776113
-0.0837417
-0.261578
0.34532
0.837223
-0.107508
-0.729715
1.06089
-0.108079
-0.952808
-0.381578
0.297837
0.834006
-0.48489
-0.349116
-0.162956
0.784087
-0.621131
0.530566
-0.686902
0.156336
0.0283376
-0.248153
0.219815
0.320194
-0.0361438
-0.28405
1.14955
-0.897984
-0.251569
-0.536977
-0.462903
0.815276
0.274316
-0.814657
-0.0834067
-0.0557318
0.216266
0.195098
-0.818536
0.623438
0.00406204
0.120975
-0.539683
1.10962
0.351865
0.620999
1.06257
-0.667109
-0.395458
-0.765578
0.542986
0.774642
-1.19165
0.417005
-0.628165
-0.0393688
0.667534
-0.234029
-0.178533
0.412562
0.575739
-0.221934
0.0567328
0.269965
0.2249
-0.0292994
-0.487122
-0.707232
0.996422
-0.28919
-0.150997
0.0193985
-0.0602013
0.00576418
0.11299
-1.0872
0.576429
-0.663487
0.1654
-0.23389
0.327741
-0.0938515
-0.00265197
0.0608717
-0.516233
0.366439
0.149793
0.356654
0.277602
-0.35967
0.578946
-0.219275
0.491736
0.115134
-0.639559
0.834656
0.576499
-0.0622441
-0.205937
-0.496206
0.957928
-0.683306
-0.274621
0.947625
-0.929827
0.307833
0.621994
0.79681
-0.867865
0.0710551
-0.435832
0.355711
-0.121445
-0.0545748
-0.121102
-0.620358
0.284843
-0.547834
0.262991
0.425464
0.408542
0.76104
-1.07608
0.315044
0.225455
-0.541773
0.316318
-0.971561
0.16924
0.00920942
0.359844
-0.586734
0.902949
-0.316215
-0.255521
0.311926
-0.056405
-0.408439
-0.109097
-0.133437
-0.225371
0.358809
0.087786
0.000708084
-0.0884941
-0.335509
-0.147547
0.369565
0.450318
-0.819884
0.852242
-0.583106
0.319539
-0.451664
0.0158326
0.467457
-0.242002
-0.67204
-0.166155
-0.109673
0.0720685
0.0376045
0.974396
-0.348556
-0.455914
0.753973
-0.298058
-0.120609
0.142067
-0.0214575
0.74535
-0.0657449
-0.250363
-0.568173
-0.501088
0.92245
-0.421362
0.691025
-1.10324
0.412216
0.527247
0.758771
0.212302
-0.151672
-0.0606304
0.0896641
-0.71783
0.691438
-1.04937
0.357935
0.142544
-0.150184
-0.0709561
0.637614
-0.0758513
0.65228
-0.442943
0.679763
0.186546
-1.04282
-0.925755
0.507814
0.417941
0.64855
-0.103201
-0.545349
0.929064
-0.168154
-0.413464
-0.539821
-0.484565
0.426155
-0.0927673
-0.245536
0.338303
0.320289
-0.298373
-0.715592
0.644635
0.851367
0.220704
-0.791435
0.335521
1.08181
-0.266532
0.13191
-0.130965
-0.000944671
-0.00367087
-0.607145
0.610816
-0.90183
0.168548
0.733282
0.729599
-0.729599
-0.272696
0.87096
-0.598264
0.312989
-0.67266
0.663149
-0.417223
-0.245926
-0.919285
0.957075
-0.0377894
0.343172
-0.0472808
-0.295891
0.265179
-0.106468
-0.158711
0.115723
-0.32769
-0.29187
0.493987
-0.808495
-0.827317
0.982394
-0.155077
-0.289536
0.659101
0.000389092
0.00344413
-0.00383323
-0.122331
0.218089
-0.095758
-0.378397
0.411652
1.00243
-0.805934
-0.196494
-0.092488
-0.52102
0.613508
-0.238025
0.256391
-0.018366
0.12737
-0.280766
0.153396
-1.06034
0.440388
0.619948
-0.0606989
-0.0216692
0.146794
-0.0148842
0.0722377
0.0488664
-0.121104
0.473857
0.675696
-0.0583904
0.0587795
-0.0657587
-0.282846
0.348604
-0.491109
0.789861
-0.298752
-0.00666271
0.0772141
-0.0705514
0.438362
-0.211742
0.691828
0.263991
-0.955819
0.00527794
-0.416621
0.016193
0.747306
0.427105
0.304124
-0.731229
0.469608
-0.418926
-0.0506825
-1.01144
0.186365
-0.429826
0.194577
0.235249
0.394125
0.52261
-0.916736
-0.626715
0.587346
0.0488914
-0.917029
0.868138
-0.132437
0.205857
-0.032169
0.0271556
0.00501344
0.02087
-0.310304
0.00150764
0.0477069
-0.0492145
-0.680852
-0.201464
0.618302
0.116043
0.0444284
-0.160472
-0.1297
0.0090902
0.160801
-0.705562
0.544761
0.193936
0.544438
-0.738375
0.308346
-0.719491
0.859843
-0.140351
-0.71848
0.555524
0.0918581
0.165098
-0.406719
-0.26664
-0.260765
0.0642956
0.196469
-0.859565
0.368456
0.665637
-0.758125
0.324841
0.756967
-0.301869
0.306779
-0.00490949
0.317728
-0.810623
0.492895
0.154631
-0.271191
0.11656
0.55181
-0.802173
-0.645296
-0.0200308
-0.316695
-0.0240346
0.0212186
0.243804
-0.265022
0.332986
-0.000924922
-0.0396113
0.0405362
0.854256
-0.460131
-0.796802
0.891369
-0.094567
0.259641
0.18726
-0.446901
-0.37172
0.239282
-0.222062
-0.0387028
0.354603
0.308545
-0.262589
-0.756667
-0.0411375
-0.0685354
0.611119
0.413983
0.162515
-0.85157
0.916499
0.0749452
-0.444118
0.369173
-0.0863297
-0.828291
0.914621
0.0670438
-0.0698365
0.0027927
0.256418
-0.282916
-0.16899
0.699556
0.763158
-0.614379
-0.423041
-0.0931915
0.00432054
-0.410282
0.405961
0.402417
-1.01215
-0.10393
-0.484013
0.587943
0.0370411
-0.145397
0.108356
-0.653622
0.0513164
0.602305
0.960766
-0.671436
-0.0143016
0.0874984
-0.0731968
-0.21776
-0.0202646
0.18769
0.353994
-0.541684
0.0970427
-0.122961
0.0259187
0.654149
0.372422
-1.02657
-0.400903
1.14969
0.0841034
0.00368263
-0.253257
-0.575553
0.82881
0.408127
0.72868
0.889559
-0.695623
-0.35679
0.223352
0.29293
0.0272639
-0.373586
1.14823
0.135709
-0.767059
0.63135
0.942796
-0.13532
-0.807475
-0.439963
0.706101
-0.266138
0.40465
-0.331013
-0.493294
0.824307
-0.189753
0.103299
0.086454
-0.283459
-0.486255
0.769714
0.0875739
-0.209905
0.0373776
-0.0489121
0.50552
-0.788979
-0.707178
-0.208196
0.915374
-0.069249
-0.474562
0.543811
0.0545568
1.13109
-1.15728
0.0261817
0.213354
-0.14544
-0.067914
0.00860743
-0.310476
0.26021
0.231254
-0.317911
0.083882
-0.807245
1.01208
-0.204835
0.0344216
-0.241944
0.389455
0.257847
-0.836396
-0.238245
-0.0201747
0.299924
-0.279749
0.537892
-0.123909
-0.198482
0.219122
-0.0206407
-0.147138
0.142885
-1.1624
0.542435
0.917666
0.170056
-0.125926
0.253296
-0.206556
0.466197
0.797957
-0.30397
-0.206636
0.00815456
-0.0960738
-0.619518
0.241592
0.208965
-0.198118
-0.917094
0.0152641
0.051449
0.212182
-0.0575516
-1.00376
0.632506
0.371254
0.782889
0.151634
0.193483
-0.0663025
-0.12718
0.279276
-0.262753
-0.0165235
-0.851682
0.305341
-1.0236
0.522511
-0.278526
0.226249
0.0522772
0.0110972
-0.0649175
0.0538203
1.0433
-0.00405789
-1.03925
0.142532
0.00793793
-0.15047
-0.133601
-0.262228
0.229016
-0.0234643
0.044455
-0.0588253
0.0143703
0.390325
-0.0610425
-0.329282
-0.047291
0.0917459
0.848689
-0.6461
-0.0278441
-0.146027
0.173871
-1.00613
0.198889
-0.0183509
0.0385354
-0.198138
-0.11046
0.226504
0.00963911
0.000591631
0.249497
0.154284
-0.403781
0.420651
-0.0867174
0.419386
-0.344441
0.192554
-0.169494
0.068729
-0.32425
0.591704
-0.0676857
-0.524018
0.537993
-0.0340967
-0.503896
-0.571573
-0.136034
0.135607
-0.0337236
-0.101883
0.379144
-0.444509
0.0653652
1.10518
-0.0421585
-1.06302
0.117524
-0.121126
0.00360147
-0.493148
0.657432
-0.164284
0.48003
0.586489
-1.06652
-0.269805
0.3503
-0.262871
0.432671
-0.169799
0.219204
0.0909703
-0.310174
-0.87942
0.425104
0.454316
-0.0654505
0.00662523
-0.845068
0.13789
0.305519
-0.185807
-0.119712
0.473075
-0.612491
0.139416
-0.0877208
-0.190876
0.173518
0.957576
0.822974
-0.136893
-0.686081
-0.832385
0.112894
0.338237
-0.544174
0.669798
-1.08446
0.41466
-0.102107
0.283258
0.0239939
-0.400215
0.334456
-0.163035
0.211168
-0.110826
-0.756936
0.867762
0.379493
0.450957
-0.741784
0.775534
-0.0337503
-0.208521
0.229739
-0.6644
-0.255997
-0.11485
0.128597
-0.0137477
0.172087
-0.340503
0.168417
0.0299914
0.00721883
-0.0372102
-0.0870626
0.560137
-0.811244
-0.159221
0.970465
-0.738117
-0.242445
0.980561
0.479364
-0.361738
-0.117626
-0.167279
0.0192491
0.14803
0.0117037
-0.192708
0.181005
-0.974512
0.035414
0.939098
0.0246634
0.189295
-0.213958
0.802671
-0.891889
0.0892175
-0.510649
0.459466
0.120817
-0.580282
0.0121786
-0.127028
-0.229504
-0.378582
0.608087
0.627523
-1.02441
-0.948066
0.823888
0.124178
0.11263
-0.0155875
0.655076
-0.265621
-0.0632109
-0.235092
0.298303
-0.00827417
0.123359
-0.115085
-0.302111
0.896102
-0.59399
0.753111
-0.81409
0.060979
1.02751
-0.972004
-0.0555085
0.797726
-0.349427
-0.448299
0.0418297
-0.225322
0.183492
-0.290536
-0.00766139
-0.947358
0.835068
0.11229
0.0539921
-1.00135
-0.54778
0.965367
-0.417587
-0.572223
-0.325762
0.190059
-0.162796
-0.0272635
-0.785004
-0.221131
-0.180729
0.122075
0.0586535
0.268261
-0.0931614
-0.897728
0.852324
0.0454041
-0.197532
-0.0986624
0.00683257
0.153868
-0.0113359
-0.600043
0.119045
0.136304
-0.16076
0.0244562
-0.417298
0.364828
0.0524698
0.358661
-0.0154895
-0.25693
0.61077
0.13458
0.364726
0.0775964
0.287374
-0.36497
-0.11866
0.559181
-0.61516
0.389248
0.225912
-0.0313499
-0.0341005
0.825578
-0.446084
0.678304
-0.360575
-0.22386
-0.179619
0.403479
0.304972
-0.756917
0.451946
0.543691
-0.61294
0.989502
-0.430576
-0.558927
-0.00374271
-0.512797
-0.102363
-0.766211
0.994853
-0.228643
0.00464144
-0.258594
0.941797
-1.05927
0.274262
-0.190774
0.219112
-0.116884
-0.287528
0.112809
-0.00305999
-0.489257
-0.520936
1.14907
-0.455122
0.278843
-0.17051
-0.108333
0.0603539
0.204825
-0.669971
-0.357075
1.02705
0.222784
0.352955
-0.00503565
-0.139479
0.144515
0.819155
0.0650447
-0.0244189
-0.0406258
0.5259
0.0658041
-0.36433
-1.00452
0.177201
-0.206223
0.00907777
0.197146
0.567506
0.679234
0.254776
0.0846975
-0.339474
0.974151
0.053361
0.588015
-0.842531
0.254517
-0.832516
-0.00388996
0.836406
-0.771061
0.995245
-0.224184
0.135231
-0.00613914
-0.129092
-0.383706
1.01123
0.0178447
0.250167
-0.268012
0.0244066
-0.766191
0.165423
-0.0226604
-0.142763
-0.912203
1.18232
-0.270112
-0.244629
0.539417
-0.294787
1.16183
-0.511051
-0.650774
0.0079918
-0.600829
0.592837
0.0220265
0.00512913
-0.467313
0.947342
0.563975
-0.836671
1.06518
-0.374153
-0.181083
0.153239
-0.860058
0.0275417
1.1395
-0.37846
-0.0173738
-1.11636
0.223426
-0.0222492
0.257864
0.551987
-0.809851
0.549824
-0.122939
-0.426885
0.659453
-0.971125
0.311672
-0.124539
0.00944692
0.115092
-0.203182
-0.468384
0.671566
0.349523
-0.280794
-0.481217
0.166098
0.31512
0.145413
0.272743
-0.418156
0.0761623
0.113897
-0.858512
1.00642
-0.147905
0.0624257
0.00461811
0.442744
0.201489
-0.644233
0.472408
0.379112
-0.85152
0.154073
0.494477
-0.0193651
0.987393
0.00241603
0.783288
-0.785704
0.00022892
-0.00689163
0.0291634
0.0972464
-0.12641
0.679961
-0.61201
-0.0679517
0.44711
0.542392
0.161158
-0.190191
0.029033
-0.276087
0.80259
-0.526503
0.00951135
0.155274
-0.164786
0.338521
-0.698313
0.359792
-0.556038
-0.20365
0.759688
0.804042
-0.12836
0.300621
0.249203
-0.474292
-0.0430135
0.517306
0.290195
-0.811216
-0.165566
0.301987
-0.136421
0.182597
-0.0724414
-0.110156
-0.0172981
0.0393245
-0.0688036
0.679139
-0.610335
-0.116652
1.01808
0.770252
-0.627717
-0.142534
0.631836
-0.541507
-0.533626
0.173253
0.360373
0.0247975
-0.44202
-0.194904
0.148929
0.045975
0.060848
0.132635
0.138212
0.735017
-0.873229
0.205999
0.184326
0.120259
-0.858376
-0.424131
0.173339
0.250792
-0.312826
-0.242645
0.555471
0.47349
-0.223993
-0.844567
0.55503
0.321949
-0.266268
-0.055681
-0.505918
0.775972
-0.270054
-0.434863
0.440141
-0.42844
0.557581
-0.129141
-0.658542
0.912698
-0.254155
-0.0207898
0.195866
-0.175076
0.103066
-0.0919691
-0.325873
-0.634407
0.961293
-0.326886
-0.540033
0.677855
0.504325
-0.508195
0.0038699
-0.0319194
-0.207917
0.239837
-1.08725
0.787518
0.299734
-0.00967471
-0.0347949
0.0444696
-0.0218659
0.57491
-0.877021
0.700093
-0.395121
-0.380829
-0.544927
-0.696448
0.698864
0.498067
0.0095588
0.362216
0.15579
-0.518006
-0.321785
0.301024
0.0207612
0.329477
-0.27906
-0.0504163
0.125378
-0.424892
0.299513
-0.207258
0.490159
-0.282901
-0.757965
-0.204807
0.962771
0.18588
-0.217799
0.531986
0.147975
-0.915046
0.699718
0.215328
0.294908
-0.054896
-0.240012
0.00329898
0.176561
-0.22561
0.0490489
-0.652209
-0.333831
0.45921
0.130196
0.195019
-0.153189
0.309698
-0.137612
0.188147
-0.505904
0.032959
0.270189
-0.313513
0.171869
0.141644
-0.567968
-0.44322
1.01119
-0.118968
-0.355324
-0.511282
-0.0818597
0.593142
0.131656
0.173934
-0.305591
-0.0285949
1.13051
-0.737731
-0.392776
0.176592
0.646382
0.0460773
0.444475
-0.404365
-0.0401106
-0.277595
0.738161
-0.460566
-0.56882
-0.229366
0.798186
-0.445291
0.182419
-0.407678
-0.125948
0.965841
-0.436473
-0.529368
-0.194114
-0.00551653
0.199631
0.38485
0.0536233
-0.438473
-0.163511
0.188175
-0.0933657
0.296956
-0.20359
0.038333
-0.0207445
-0.205415
-0.00688849
0.527006
0.438835
-0.488339
0.878003
-0.305502
0.901608
-0.213755
0.0196403
-0.839841
0.271022
0.714514
-0.62485
-0.104567
-0.615541
0.122393
0.324144
-0.871925
0.697928
-0.701598
0.81373
-0.01692
-0.188901
-0.109429
-0.270467
-0.0857153
0.356182
-0.291034
-0.028809
0.71813
0.134351
-0.852482
0.0225838
-0.247988
0.225405
0.0099215
0.329204
-0.938665
0.609461
0.856403
-0.053732
-0.896594
0.925396
-0.0288018
0.208865
-0.132874
-0.994834
-0.0924182
-0.333678
0.861027
-0.0259591
0.292039
1.10139
-0.421908
-0.679481
-0.613179
-0.0535944
0.666773
0.10663
0.518105
-0.624735
-0.682859
0.0292371
-0.175419
-0.135803
0.311222
-0.464697
0.600406
0.144316
0.502816
-0.647131
-0.689848
0.14659
0.543258
-0.91681
0.0897942
0.827016
0.196048
0.504045
-0.221837
0.521989
0.275736
-0.285833
-0.143993
0.729479
-0.850798
-0.0113172
-0.340589
0.351906
-0.437112
0.167307
0.668528
0.0389618
-0.70749
0.61013
-0.915632
0.00299262
-0.0552321
-0.503242
0.885353
-0.382111
-0.593564
0.36406
-0.0135393
0.266517
-0.252977
0.160441
-0.23713
0.0766892
0.250725
0.00569313
-0.243371
0.581608
-0.0465586
-0.231967
-0.145748
0.157927
0.33895
-0.225649
-0.0378817
0.0335233
-0.176545
0.170637
0.00590774
0.196426
-0.219628
0.0232024
-0.709163
0.559093
0.113772
-0.625054
-0.0111929
-0.259613
0.0158797
0.545711
-0.56159
0.31114
-0.331143
0.300074
-0.776443
0.476369
-0.366973
0.666712
-0.299739
0.24813
-0.955362
0.0628973
-0.0256589
-0.922407
0.449411
0.699659
-0.737192
-0.107375
-0.659859
-0.269968
-0.398754
0.173383
0.151567
0.117837
-0.269404
1.12634
-0.558835
0.911605
-0.220167
-0.222323
-0.148988
0.371312
-1.01633
0.401488
0.614845
0.308217
-0.279419
-0.106236
0.565702
0.15286
-0.0876671
-0.479122
0.254486
-0.236641
-0.324063
0.398795
-0.074732
-0.105249
0.823379
0.173914
-0.184133
0.0102187
0.859644
-1.24891
0.580734
0.668172
0.230904
0.19027
-0.421174
0.290281
-0.0560886
-0.234192
-0.506231
0.261602
-0.344323
0.00648372
0.378366
0.885291
-0.971621
0.38911
-0.169906
-0.385747
0.675943
-0.986883
0.70546
0.281423
0.371403
-0.735687
0.364285
-0.682417
0.719862
-0.037445
0.401247
-0.519907
0.0139526
0.226283
0.253081
0.0218649
-0.613648
0.191382
-0.886643
0.387809
0.498834
0.239345
-0.852524
0.733833
-0.048516
-0.568839
0.13318
0.209851
1.01348
-0.333156
-0.680325
-0.408739
0.257534
-0.57036
0.145815
-0.941514
0.887919
-0.709616
0.378603
0.467194
-0.713953
0.771422
-0.0574691
-0.897921
0.601632
0.296289
-0.289276
-0.0996706
0.136712
-0.969986
0.680311
0.289675
0.61084
-0.994547
-0.841916
-0.0165956
1.07676
-0.40696
0.312549
0.162779
-0.475328
-0.0197474
-0.126473
0.146221
0.05537
0.479937
0.527716
-0.888618
0.174665
0.166991
0.182532
0.228113
0.335441
-0.563554
0.359914
-0.212487
-0.0502727
-1.03894
1.08921
-0.326929
0.407823
-0.788424
-0.566827
-0.388575
0.955403
0.239091
-0.302266
-0.651209
0.207633
0.443576
-0.0025211
0.0100625
-0.00754138
0.792321
-0.903147
0.315889
-0.819131
0.452937
0.263622
-0.716559
0.218458
0.0603849
-0.783497
0.221212
0.562285
-0.789887
0.233848
0.458717
-0.736311
0.390998
-0.402316
-0.00267539
0.000154299
-0.0424455
0.985241
-0.590531
0.734092
-0.143561
0.945201
0.000393718
-0.945594
-0.700446
-0.00731512
-0.226575
0.0634348
0.666164
0.11426
0.027807
-0.19679
-0.194809
0.507799
0.494165
0.0958103
0.233666
-0.836447
-0.0612813
-0.871056
0.421358
-0.778348
0.166159
0.175391
-0.34155
0.841405
0.0463717
-0.887776
-0.0962906
0.0901515
-0.323986
-0.699614
-0.757458
-0.110407
-0.327976
0.938106
-0.316743
0.435266
-0.118523
-0.838628
0.27066
-0.263344
0.491457
-0.395279
-0.608481
-0.26303
-0.295498
0.338299
-0.448406
0.0311081
0.996078
-0.13505
0.295159
-0.276149
-0.01901
0.0809923
0.0735747
0.240856
0.986367
-0.937476
0.0109434
-0.209999
0.302777
-0.475421
0.483383
-0.428879
-0.487258
0.19878
0.166653
-0.365433
-0.767269
0.03767
-0.11132
0.731765
-0.620445
-0.0976574
-0.798937
-0.675206
0.765137
1.19867
-0.514238
-0.684428
-0.119968
0.314545
0.807763
-0.432644
-0.37512
0.246452
-0.267196
0.09247
-0.0633066
-0.194417
0.0401568
0.15426
-0.141733
0.503949
-0.40291
1.01375
-0.0267683
-0.136027
-0.257735
-0.0762913
0.334026
-0.0113574
0.803678
0.170198
0.174147
-0.344345
-0.35238
0.54007
0.397223
0.405367
-0.324997
-0.0991333
0.485607
-0.172778
-0.312828
-0.0478703
0.0266223
0.021248
0.0968489
-0.747351
0.650502
-0.881547
0.124089
0.203412
-0.373803
0.795161
-0.00339808
0.24985
0.114719
-0.431462
-0.983298
0.498733
-0.943503
0.317417
-0.419629
0.0412321
-0.395024
-0.55679
0.951815
-0.950866
-0.15561
0.165094
-0.00948375
0.838183
-0.630266
0.687926
-0.581296
0.14569
0.503519
-0.649209
0.194358
-0.369777
-0.686588
-0.234602
0.92119
-0.13111
0.310484
-0.179374
-0.39831
0.818632
-0.420322
0.791304
-0.500486
-0.290818
0.792606
0.0213853
-0.813991
-0.503713
-0.745193
-0.304119
-0.0125767
0.354729
0.632821
-0.0117242
0.0834795
-0.0717553
-0.631032
-0.152465
0.667668
0.578548
-0.500612
0.599277
-0.0986643
0.057378
-0.0817969
0.11746
0.37124
-0.4887
-0.0117888
0.185703
-0.103984
-0.866002
-0.862142
0.333225
-0.0112763
-0.136998
0.308083
0.0724032
0.693195
-0.765598
-0.491373
-0.10867
0.613205
0.239038
0.0639486
-0.216062
-0.071754
-0.236939
0.308693
0.094873
-0.344751
0.249878
0.197234
0.408094
0.211101
0.777335
-0.351872
0.863449
-0.455625
-0.104911
-0.230558
0.335469
0.709114
0.0749733
0.0296974
-0.630056
0.426875
0.498949
-0.510307
-0.468821
-0.406461
0.875282
-0.579499
-0.436834
-0.942874
0.980615
-0.0377404
-0.0857269
-0.361176
0.275461
0.528379
0.248957
0.0681414
-0.278829
0.210688
-0.311064
-0.636806
-0.157231
-0.715046
0.872276
0.470832
-0.248048
-0.347937
0.182371
0.546179
-0.870165
0.442692
-0.342708
-0.36349
0.95778
-0.59429
0.427267
0.480695
0.277717
-0.758411
0.993796
-0.608349
-0.385447
-0.338216
-0.725593
1.07941
-0.353821
0.384421
-0.089262
-0.260836
0.257438
0.399913
0.761912
-0.190212
0.170464
0.0304288
-0.0313537
0.902734
-0.500055
0.433216
0.693126
-0.376941
0.197075
0.179866
0.223786
-0.447646
0.709057
-0.0405293
0.593128
-0.280579
-0.646367
-0.0909113
0.737278
0.169351
-0.0273243
-0.142026
0.126276
0.0870781
0.133638
-0.904699
-0.258107
0.278977
0.649948
-0.578784
-0.0711644
0.142378
0.343228
-0.135273
0.0689704
0.220031
0.223455
-0.443486
-0.457394
0.840524
0.131478
-0.484936
1.084
-0.599059
-0.261302
0.406716
-0.253354
-0.436494
1.0498
-0.491133
-0.323525
0.167761
0.12252
0.271865
-0.283058
-0.140389
0.119599
-0.27155
-0.124703
-0.00499639
0.559508
-0.1363
0.763456
-0.627156
-0.144008
0.216246
-0.326262
0.0911703
-0.295999
-0.00811989
-0.861316
0.608059
0.210182
0.222488
0.085919
-0.329306
0.243387
0.25833
0.0561664
0.788863
0.432294
-1.22116
-0.0885565
-0.0167416
0.105298
-0.142022
-0.654781
0.782364
0.416302
0.734966
-0.662563
-1.09918
0.0763869
0.0445997
-0.163347
0.434792
0.648262
0.236316
-0.884579
0.33728
-0.0261392
-0.0288525
-0.294481
-0.08246
-0.51697
-0.456584
0.481381
0.210471
0.680899
0.541021
-0.539818
-0.00120276
0.162545
0.00809188
-0.0624589
0.226822
-0.0303959
0.701862
0.180611
-0.882473
-0.563257
0.239194
-0.205288
0.125744
0.0795435
-0.313151
0.00401393
0.309137
0.392445
0.414283
-0.806727
0.214159
0.259332
0.647715
-0.0128188
-0.239844
0.38383
-0.578639
-0.046542
0.0649877
-0.0184457
-0.914107
0.51296
0.777512
-0.62214
-0.155372
0.0115715
-0.117577
0.106006
0.796496
-0.865299
0.581739
-0.110907
0.232666
0.45526
-0.114364
-0.010339
0.327245
-0.176158
-0.151086
-0.538516
-0.10419
0.999839
-0.510924
-0.488914
0.832861
-0.314584
-0.518277
0.367748
-0.641452
0.273704
0.0291572
0.4769
-0.00944294
-0.146293
0.529834
-0.38354
0.18977
0.137475
-0.301842
-0.196801
0.0126684
0.685096
0.00717263
-0.692269
-0.32691
-0.193867
-0.119646
-0.18735
-0.00284103
0.288768
0.596585
-0.117652
0.147644
-0.00952398
0.0203769
-0.124626
0.135849
-0.357454
0.503144
0.013008
0.195957
-0.31729
-0.295117
0.711687
-0.0315157
0.572537
-0.128525
-0.100281
-0.221067
0.441098
-0.19477
0.776071
-0.5813
-0.743763
-0.101304
-0.400525
0.743072
-0.342547
-0.00630948
-0.190492
0.278831
-0.0587453
-0.0194782
-0.208849
0.228327
-0.743953
0.25282
0.0975365
-0.111838
0.436758
-1.10673
0.295948
-0.871502
-0.214637
0.624925
-0.303728
0.455125
-0.23167
0.0128989
-0.595563
0.692412
0.0012773
-0.132487
0.128828
-0.490567
-0.080538
-0.550933
0.631471
0.26067
0.288103
1.12861
-0.736101
-0.39251
-0.199974
0.0605017
0.181733
0.0199308
-0.201664
-0.723085
0.132554
0.159437
0.0231602
-0.0049333
-0.106629
0.111562
0.380364
-0.780889
0.0753917
0.402003
0.0262191
-0.428222
-0.861554
0.666784
0.120653
0.033794
-0.154447
0.310604
-0.945011
-0.122755
-0.00058102
0.123336
0.154575
-0.0339222
0.00788224
0.656662
-0.502588
0.541538
0.442542
-0.228383
-0.802223
0.235395
-0.608455
0.487906
0.120549
0.400867
-0.869689
-0.436051
-0.276137
0.712188
0.0770031
0.346567
-0.264344
0.217063
1.00018
-0.136221
-0.863961
0.000599298
-0.837046
0.720084
0.0725217
0.3863
0.421463
-0.137337
-0.00214191
0.119934
-0.256998
-0.290836
0.0556619
-0.0933309
0.037669
0.0193406
-0.706693
0.687352
-0.0408464
0.241091
-0.200245
0.275202
-0.810554
0.535352
-0.0915669
-0.48518
-0.0284656
0.0160507
0.603195
-0.293
-0.176894
0.469894
-0.316174
-0.364678
0.389993
-0.22334
-0.109712
-0.0859044
0.195616
-0.260386
0.346305
-0.843819
-0.117403
-0.0264794
0.143883
0.101972
0.277836
-0.379808
0.652818
-0.855976
0.203158
0.0098995
-0.488655
0.13959
-1.05179
-0.447435
-0.571635
1.01907
-0.846145
0.0367411
0.809404
-1.14934
-0.701804
0.0193872
-0.232479
0.240324
-0.00784488
-0.938942
-0.315141
1.017
0.327719
-0.173435
0.0695911
-0.290658
-0.152464
0.411795
0.128011
0.0776394
-0.335374
0.013032
-0.0996194
0.0865874
-0.199674
0.0617415
-0.0678315
0.079403
-0.227743
0.458647
-0.942066
0.602325
0.339741
-0.319984
0.376717
0.534934
0.174408
-0.00505708
-0.227043
0.295185
-0.41777
-0.233439
-0.47534
0.175017
0.300322
0.0293746
-0.110578
0.0812029
-0.346031
0.440904
-0.0680154
0.632336
0.568142
-0.397943
0.489263
-0.805438
0.391659
-0.521271
0.129613
0.089605
-0.00210664
-0.176374
0.0247025
-0.943057
0.548033
0.405182
0.427679
0.0139868
-0.164763
0.150776
-1.19669
0.485952
-0.163158
0.216762
-0.164761
-0.0147964
-0.190596
0.205392
-0.487696
0.194696
-0.932373
0.828389
0.801452
-0.348515
-0.149542
0.133818
0.0157236
0.255511
0.0444123
-0.127689
-0.984869
0.380777
0.604092
-0.119846
0.103105
-0.0576322
0.236288
-0.178655
0.357322
0.224417
0.0236692
0.0954286
-0.119098
-0.22039
0.233398
0.0154752
0.127068
0.52212
-0.766051
0.93113
0.0430215
-0.262579
-0.358003
0.850797
-0.0402953