/*--------------------------------*- C++ -*----------------------------------*\
| =========                 |                                                 |
| \\      /  F ield         | OpenFOAM: The Open Source CFD Toolbox           |
|  \\    /   O peration     | Version:  2306                                  |
|   \\  /    A nd           | Website:  www.openfoam.com                      |
|    \\/     M anipulation  |                                                 |
\*---------------------------------------------------------------------------*/
FoamFile
{
    version     2.0;
    format      ascii;
    arch        "LSB;label=32;scalar=64";
    class       volScalarField;
    location    "5.2";
    object      p;
}
// * * * * * * * * * * * * * * * * * * * * * * * * * * * * * * * * * * * * * //

dimensions      [0 2 -2 0 0 0 0];

internalField   nonuniform List<scalar> 
13486
(
2.5151
2.00841
0.119549
-0.143191
0.8681
-0.22483
0.408273
1.45009
1.72546
0.891704
-12.3382
0.429586
2.65139
-0.280326
0.682677
0.990604
-5.49166
0.101073
0.600577
2.26324
-0.103769
2.62104
1.96839
-2.00421
0.849766
-1.82778
-6.91323
-0.95589
0.00368781
-0.81207
-0.0885259
0.509338
-1.8964
-0.578064
1.45276
0.0175451
0.0175888
2.0726
-0.0971721
1.71734
0.319089
2.7514
0.0357806
0.851221
0.811329
0.406599
-4.81524
0.00594108
0.0167195
-0.938019
1.46819
-0.117716
0.312081
2.10482
0.0384573
0.93171
0.0645328
-0.120803
-1.80037
0.0320655
-11.7688
0.0325143
-3.54702
-0.0930913
-0.914226
0.0218234
-0.199971
2.50786
1.71579
-0.0173685
-0.203587
0.0540822
1.71951
-4.93302
0.0302679
0.0674049
0.0286174
0.668538
-5.89543
-0.214537
0.00852328
2.03121
-3.7284
0.128819
2.52597
0.842544
-0.341446
1.38764
1.66671
0.973451
0.381091
1.26766
2.41758
2.15137
1.79505
0.00350845
-7.0819
-0.330647
1.69053
-5.5231
0.0334651
-0.184191
-0.34359
-0.115064
1.033
-5.49593
1.68407
-0.106573
-5.54999
1.16133
1.66708
0.413845
2.10328
0.0572688
2.94265
1.7419
0.85246
-0.540007
1.73433
0.015784
0.0973937
-11.5035
1.87281
-0.104935
1.66123
-0.106222
1.23202
0.405125
-0.473047
-0.736677
-0.101755
-4.31644
-5.22531
-4.54411
1.54397
1.35635
2.89848
1.20469
0.0158972
1.48875
-1.50325
0.306916
0.503312
-0.217547
0.0560092
-4.80062
-0.289754
1.68981
-1.02138
0.00200225
0.972817
0.647163
0.00905865
2.07143
0.478053
0.113648
0.975951
0.108726
1.88526
0.0134398
-0.709795
1.88589
0.320807
2.74345
-0.121439
-0.555808
-0.0259407
3.36576
-0.298921
-4.52672
-5.31228
0.493646
1.16836
0.929796
0.0049691
-2.02301
-0.506862
-1.77762
1.68818
0.513594
1.61633
0.0558382
0.751702
-4.83592
0.108283
-0.957335
0.000658544
-0.755051
0.385662
1.82651
0.0178556
0.0979932
-0.14941
2.13598
-0.17979
-11.9365
-0.761536
-0.745377
2.27612
-0.465669
-0.104596
0.3811
2.07696
0.738492
0.0220744
-0.186397
0.079912
1.8407
-0.136717
0.119178
-0.846652
-1.30773
2.23293
1.68353
-0.222882
-0.404477
-0.855207
1.00541
2.29438
-2.1531
-5.45043
-1.04867
1.52526
-0.754062
0.194083
2.46219
-0.529453
-0.398692
-0.328956
-0.31452
1.59692
-0.0469605
-1.57323
2.80411
-0.242151
2.36788
-0.641076
0.101412
2.39142
0.779858
-1.89674
1.14485
0.0619495
2.2578
-0.0882043
1.922
0.812258
-1.22726
-4.5095
0.960362
-1.55101
2.97466
1.68581
-0.114295
-0.260318
-3.01943
0.494047
-0.388276
0.124834
-1.809
1.84116
-0.078415
0.668678
-2.72342
0.974326
-5.03435
-0.334802
-0.116364
1.59493
0.0402595
1.66699
1.64706
-0.88888
0.314799
2.46613
-1.15457
-0.260894
-0.17109
-0.129418
-0.218985
-0.198835
1.41802
1.70164
-3.83855
-10.3727
-6.22543
-1.46456
-0.496163
0.188371
1.60931
-0.208922
-0.00640029
1.79968
1.55934
-0.60885
-0.692599
-0.713917
0.285647
1.73714
0.389712
0.307778
0.0782103
-0.249262
0.539221
0.00990952
0.76746
-0.0733681
0.851074
-0.26385
0.0185078
-4.45267
-0.132136
-0.225095
0.417002
-10.5649
1.38612
-0.00385331
1.66912
1.84838
-0.385359
0.0200371
-0.0187855
1.6763
2.16424
2.86832
0.405315
1.1033
1.38923
0.158217
1.02579
1.39961
1.21594
0.351415
2.30497
0.402749
1.69637
3.05108
0.688452
1.04106
-0.0755847
-0.358476
2.1425
0.991353
0.771834
-5.29384
0.00416645
1.15349
2.94705
-2.16511
-0.0149734
1.11385
0.203593
0.295587
-7.22977
1.72357
0.00775575
-5.05326
1.20522
-0.258249
-1.25495
0.619414
0.341997
1.87236
1.65118
-0.848085
0.00310295
-0.661019
-3.60254
2.28704
1.21768
0.0310693
1.17225
0.164168
-2.14191
-0.164628
1.50232
1.71436
-0.0386228
-10.0754
-3.37618
1.57731
1.18591
2.64664
1.76765
-3.96005
-0.275551
0.115667
1.01452
-5.39024
-0.0134743
2.19699
-0.969843
0.72388
2.40888
2.45653
0.0193651
-0.162458
-1.95803
-5.41392
-1.53117
-5.40553
0.417223
1.50544
-0.141371
0.446305
-0.111428
2.11901
-1.71236
1.23124
1.89612
0.991911
-1.21569
-1.06399
1.73955
1.6981
2.05899
-4.28837
0.999956
-5.15788
0.807422
1.6877
0.235976
2.9566
1.08859
-0.629043
-0.716102
0.369289
1.69779
-6.88835
0.0829794
2.59878
1.51048
0.706368
0.154678
0.821952
-1.37274
2.63153
-0.0174617
0.974063
2.46678
-5.31067
-0.907395
-4.56167
-1.08004
-0.741932
2.00858
1.94786
2.61295
-3.44452
0.0151088
-5.62668
1.06158
1.69916
-0.91962
-1.37327
1.67166
-1.38398
-2.03196
-4.09875
-4.4012
-0.0956044
2.11824
0.00446928
0.112148
-0.1081
1.60652
0.0053827
3.20972
2.44746
1.72444
1.40192
0.0183123
0.00287166
3.03419
-0.281555
0.0173746
-0.615924
1.712
-6.16374
0.263657
1.19378
0.0112393
-0.719707
1.9474
-1.94173
-5.41816
1.10496
-0.0269248
3.35382
1.12622
1.48481
1.8305
-2.2997
0.159192
2.70716
0.885097
2.17744
0.443318
0.480297
-0.144516
-0.211477
0.0356332
-5.72727
1.73301
1.7051
-1.59967
0.00219436
-0.281693
2.48106
2.01548
-0.274146
1.73582
1.25701
-0.683886
0.986272
1.50938
-5.23169
2.60245
0.0293203
-0.012984
2.72909
1.20133
0.00425012
1.13158
-0.201413
-0.959224
0.698841
1.11403
1.89908
2.42404
-6.64231
0.812465
-6.85078
0.0028695
2.36238
0.47861
-4.52109
-0.408261
0.234531
0.119765
1.39453
-0.82923
-1.30078
1.74103
2.28138
-0.173998
1.83499
-4.85314
-2.7788
-1.78813
0.706869
-6.40975
1.85745
0.149141
-11.309
1.46172
2.00141
-1.83374
-6.33823
1.49054
2.36426
0.536841
2.53488
0.155173
1.13543
0.394952
1.86995
0.0511109
2.30217
-7.07917
0.394979
1.65631
-0.438711
-1.0866
1.67336
-5.37385
0.301927
1.91651
2.6175
-0.325696
0.111723
0.471895
0.240936
1.50806
1.20201
0.633383
-8.78265
0.0350708
2.50344
0.282343
0.144558
-2.15434
2.63384
-0.491371
0.060758
1.63644
1.38242
-0.212931
-0.515051
1.47719
0.12149
-0.425345
0.667317
-1.58179
2.55367
1.70061
1.18989
1.22296
0.047446
-1.47234
2.85464
0.517375
2.8634
-0.33893
1.61443
0.0141602
-4.96094
1.07325
0.954832
2.98929
-1.3897
1.14035
1.06634
-2.30921
0.914745
0.104547
-0.654876
1.65987
-6.23956
-1.03294
-1.41791
-0.260396
-0.474084
1.81773
0.00670183
2.78486
1.69725
0.0193832
-2.52832
-0.834036
0.557073
-10.5748
-0.363044
-5.60553
2.3494
0.00183286
0.0664876
-7.00538
2.65601
0.00397683
0.302039
2.72782
1.48832
-3.53831
-0.176046
1.20634
0.153485
1.64629
0.059777
-0.4543
0.650177
1.53673
0.506801
1.38448
2.76646
0.059021
-1.00039
1.67096
0.227887
-0.280086
1.17893
1.25574
0.743924
-3.9345
0.150428
-0.0423927
0.179716
2.35863
0.526904
0.132327
0.135696
0.233097
-0.206166
1.69981
0.0526164
1.61205
1.60563
2.3132
0.116612
-1.27658
2.84068
0.0279426
-1.23072
1.76885
-1.40128
1.89932
0.0493939
1.63518
-0.13804
-4.82082
-1.60747
0.00489717
-5.42942
0.906075
2.91904
-0.458493
-4.05477
-0.606784
1.74023
0.000853
0.754516
-8.4868
2.87886
-3.73609
0.907139
-0.988737
0.983782
1.68294
0.631902
-3.13441
-0.0637279
2.69968
1.7137
0.777351
1.5097
0.198258
1.34157
1.37153
0.994982
-4.44182
-0.256975
2.09985
0.40419
-0.135328
1.44185
-0.952643
-0.440888
-0.064704
1.81745
1.79217
-0.585732
0.120574
-3.15451
-0.0765312
0.135541
-0.459173
0.349634
1.63022
-0.0797299
-1.5352
1.98522
0.0254244
-0.543484
-0.113783
-0.755931
-0.555707
-1.4334
-0.0541831
-4.08831
1.63546
2.64717
0.0187623
-0.551725
2.73502
2.56867
-0.292679
-0.809237
1.76332
-4.40556
0.0603603
-0.00903893
0.073296
0.97572
-5.42313
0.794473
1.14491
-0.672123
-0.256856
-1.98038
-0.199502
1.47307
0.733968
1.09919
-0.755327
1.44375
2.51745
-10.605
-3.6368
1.91089
0.667519
1.13494
-0.0909406
-0.782513
-0.832683
-0.153781
1.72027
2.86991
1.8501
0.0364463
-0.162073
1.68025
2.44775
-0.472306
1.82246
1.65852
2.53678
0.437848
-0.0430734
0.258627
-0.372988
2.53009
0.122222
-0.210544
1.16524
-0.259942
0.414396
-0.127306
-1.55708
1.60189
1.21316
1.17664
0.809213
-6.00468
-0.393083
-0.426667
0.981263
-1.67767
-0.877918
0.05615
-4.28499
-11.4233
0.895772
-0.793106
-4.4569
-4.572
-0.492673
1.28817
-11.3884
-1.74714
1.8877
-0.220945
2.62687
-0.407209
-4.5859
2.01304
2.37669
0.0332463
0.109485
0.468786
1.73108
1.0024
-2.68881
-0.203444
0.00961394
-0.243058
1.643
0.0637345
0.997174
-0.0265956
1.71432
-7.25922
0.0573232
0.00414528
2.05711
-1.23566
-12.3201
-2.07361
2.60141
0.0263404
-1.02944
-13.3523
1.66016
-1.34498
-0.0144983
0.391668
0.825544
-0.0823168
1.183
-0.879127
1.37931
1.65987
1.96502
0.77311
-0.0236324
-0.515565
1.28017
-0.568875
2.04222
1.15187
-0.220611
-0.117501
-0.292168
-0.0881158
0.0120852
1.9034
0.694004
0.254856
1.6725
0.0812855
1.35993
2.95862
-0.125262
-2.00313
1.16333
-0.263505
-0.0632397
-0.309707
-0.105
1.65954
0.0608513
0.0278401
0.0491864
0.134346
2.17177
-3.19274
0.00509676
1.67866
-0.20249
2.37448
1.92743
2.25484
0.42627
1.05815
0.539107
0.0876084
1.28967
1.65582
-0.0936043
-0.446025
-4.33679
-0.740355
-6.42409
1.66984
-3.72613
-2.1288
-3.86094
-0.0878672
0.00855196
1.69018
0.0114775
0.370694
-4.65843
1.70785
2.92388
-0.145183
-9.20078
0.952455
0.0357502
1.61753
0.0130499
-0.0924002
2.03762
-0.127649
2.77492
1.1704
1.66886
-0.767832
2.18404
0.0597873
1.93821
0.0286262
-1.87727
-0.50138
-1.56467
1.13767
-0.147207
0.00646246
2.61645
1.70344
1.81501
2.38616
1.84972
2.0508
-0.416359
1.77442
1.71836
1.72669
-0.386625
-0.525002
-1.0115
-1.53423
0.464468
1.90937
-4.9175
2.47083
-1.53479
0.0612462
2.84461
2.4016
-0.439429
-1.61943
1.70142
0.879514
0.179977
1.59987
-4.83888
-0.653848
1.66608
2.33439
-0.0886685
1.87927
2.16071
0.00449135
-0.691794
2.16749
0.764304
0.0160785
-8.35132
0.121836
-1.50004
1.57239
1.16046
0.0131254
-0.0312784
-0.924117
0.4711
-0.0533994
0.404619
2.44466
-0.0927943
3.15703
1.67982
0.57696
1.88967
-3.61651
-5.06234
-1.15979
1.6561
-0.0927987
-4.34173
-0.101201
0.840795
0.994809
-0.0667425
1.24247
-3.25731
0.897555
0.0302564
-0.0299924
1.36182
0.546063
2.19237
1.71519
1.76517
1.62655
-0.446946
-1.55478
-1.22898
0.139293
-0.392031
-0.279622
1.33676
-0.191449
-0.0257434
0.0167936
0.284574
-8.55856
1.19594
0.804172
-0.0205719
-0.971655
0.830599
-1.00824
-1.43887
0.231258
-0.163766
1.87568
1.25758
2.1745
-4.57028
1.52706
0.0539336
2.34867
-0.195624
0.894911
0.107087
-0.215542
2.7231
2.78285
1.40288
0.971355
1.15439
1.56202
2.75429
1.18089
-1.68732
-7.77687
0.333295
-1.49475
-5.3431
1.69754
1.61969
-0.0931017
0.522725
1.44505
1.53248
2.9891
-4.41743
1.33021
-5.4019
-0.40094
2.39886
-0.290804
1.42013
-0.221299
0.514391
0.677144
3.10902
-0.965572
-1.02129
0.859093
0.254202
-6.00273
-4.81854
0.119363
1.86521
-0.234302
0.97387
2.56505
2.35573
-0.198741
-2.93872
-0.706271
0.304942
1.99143
1.5912
2.34626
1.04416
-13.4888
2.45818
1.55498
-2.41943
1.32027
1.72067
2.13101
-8.60882
-0.0758327
0.000281765
1.439
2.69121
0.911763
0.280518
-1.49923
3.00159
-11.6525
-1.47792
2.80325
1.48498
-0.0104306
1.35633
-0.1736
0.957475
-0.614813
-11.838
-0.0622014
-1.60298
0.0744724
-0.495295
-4.86732
-5.44225
-5.01219
0.17413
-5.41239
-1.71387
1.28782
1.55767
0.94262
-3.54664
0.473611
0.269799
-0.453497
3.14148
1.14183
-1.10146
1.48355
-0.622036
-1.84051
1.41537
1.40646
1.61691
3.17271
0.00496507
-0.28351
-2.0394
0.109641
1.17374
1.6728
-0.638308
2.48508
1.16939
1.77903
-0.160166
-0.203946
0.0698092
1.76025
1.68368
1.82431
1.67934
2.91708
2.87456
-0.644844
1.49175
2.13588
-1.06208
2.3403
-0.0676489
2.84146
2.31883
0.073317
1.90429
0.837606
1.30827
0.0485555
1.70644
-1.49925
1.4767
0.650721
1.1754
-0.222769
1.61225
-0.0474194
0.454622
2.748
2.74226
1.143
-4.62403
0.412341
0.200594
-0.264997
1.36701
2.46549
-4.6431
1.72973
1.62458
0.841225
1.74916
-4.6286
-0.232488
0.0124975
2.95218
0.51837
-0.717118
1.93231
-0.224893
0.0696501
0.859076
0.330498
1.29029
0.740185
-0.77997
1.02026
1.3768
1.14113
1.28597
2.89171
2.37572
2.10808
1.87914
2.69108
0.831056
-0.07963
0.0578954
-1.78013
2.71465
-0.204431
1.6792
1.52524
-3.40923
0.907313
1.85426
-1.55214
0.857027
1.07103
3.21176
-7.20076
0.761324
-0.0377976
1.94012
0.111004
-0.257175
2.67159
2.29013
1.63879
1.64653
-0.700352
0.859585
-5.69313
2.86843
0.0326602
3.0867
-0.0157609
0.260688
-5.37569
0.955932
-5.01923
0.340234
-0.138872
0.617138
-0.293985
0.587308
-0.336931
0.0022659
-0.351152
-4.51664
-0.954351
-2.80899
-0.649273
-0.191369
-0.0976366
-10.6686
1.7404
1.77265
2.11896
1.66456
0.699994
0.669875
3.34818
1.63748
-7.35237
0.00548495
-0.159727
1.29973
1.48838
2.49022
-1.42826
-1.42446
1.40531
0.00179605
0.436895
2.09512
-4.69701
-4.6059
-5.49173
2.90075
-0.318691
1.18029
2.14506
-0.0704611
1.35012
-0.0353129
-8.42203
-7.14158
0.0357483
1.13882
2.01127
2.10323
-2.96871
-4.6007
1.15044
-6.98768
-0.826269
-0.450462
0.371715
-0.57746
-0.226123
-0.422548
-7.284
-1.92291
2.57921
-0.116642
2.80249
-6.66034
-0.281092
0.661286
0.00367693
2.38765
1.67353
1.9743
-0.329198
-0.625438
-9.22498
2.3024
-4.50852
1.24029
-0.038594
2.02094
2.37827
-0.050699
1.65013
2.69664
1.86115
1.80312
-3.24651
-0.0291015
0.721055
-1.31691
-0.137215
1.04954
1.23943
0.112337
-10.9864
0.40238
0.0561255
1.49214
1.2806
-0.885884
2.832
0.117103
0.00301012
0.220192
1.65191
-0.778245
0.00818023
1.83653
-0.862417
0.0865243
-0.350621
1.7978
1.65726
1.58124
-0.212922
1.58151
1.93123
1.90224
-0.621277
0.0630625
0.395885
1.46173
-1.45398
-4.72608
-0.880651
-2.07796
-0.173414
0.0441076
-0.123445
0.0566186
-4.93237
-1.05084
-9.24194
0.0518652
-0.623177
0.641101
-6.20605
1.78202
3.38218
0.589855
-0.353835
0.769711
0.209198
0.411238
0.0256207
-0.775662
-3.29917
0.164061
2.22209
0.00422204
2.65146
0.0313773
1.5774
1.39973
0.759187
-5.48474
1.02729
2.89777
-0.100531
1.68175
1.6185
2.47941
0.166975
2.28054
1.82386
-5.30823
1.93669
-7.52677
-8.67842
2.33083
1.4868
-2.58069
0.0379916
2.16599
0.276459
-1.27327
0.054702
0.0540797
1.30512
0.919855
1.68509
1.59605
1.43458
-3.24935
-0.967321
-0.578174
1.64693
3.08601
-0.868242
-10.9703
-5.3707
1.7059
0.143985
0.149848
0.789651
0.12316
1.32225
-0.0721282
0.418517
2.53877
0.768738
0.067274
-0.0966777
-0.623788
-1.35919
-5.3846
-1.89065
-4.76102
1.99043
0.916582
-1.07043
2.67097
0.00540139
-8.79566
-0.404027
-9.17769
1.82818
-4.4346
0.575138
1.68881
-0.409384
-0.637006
-0.178173
-7.69567
-0.29169
1.82672
-9.31674
-0.046929
-5.5267
1.61986
1.79506
-0.353961
2.12152
1.97065
2.55659
2.61075
1.88377
0.277684
2.95175
-5.59059
1.65228
0.378832
-5.58243
2.03393
-0.716523
2.54633
0.8081
-1.79424
-3.23225
-3.37458
1.79364
-0.894841
-0.630322
-0.283242
-1.30238
0.069415
1.05538
0.313599
1.24442
2.8978
-4.68451
-1.79388
-0.957882
1.7677
1.27649
-1.19091
3.34203
-0.0698025
0.0551947
1.09313
-1.65566
1.61243
1.73974
1.93582
1.96492
0.089559
0.93433
1.61113
0.369653
-0.118518
0.0089005
1.83443
1.87603
2.3223
-0.0771406
0.110637
0.924874
1.03659
0.315153
-3.68677
1.39808
-0.301912
1.46968
1.72925
-5.46434
2.648
-1.38708
2.84241
1.92493
-7.74341
0.00576518
0.0247167
0.660218
1.76659
-5.40041
2.28483
1.59428
0.914385
0.045815
0.340486
-0.373625
0.916023
-5.38018
1.07335
-0.264593
1.63866
-4.42492
0.0837937
-0.553375
2.06483
2.4089
0.828079
-4.09444
0.836634
-0.214089
0.101704
0.956218
-0.080559
-0.0493429
2.8059
-0.837604
-0.0992605
-1.42474
-9.80494
0.0334582
1.72274
-5.44551
-0.475102
1.75902
1.09793
1.79775
-1.53527
0.783505
2.8243
-3.11185
1.62374
0.548662
-0.0369634
0.601962
0.384218
-1.22389
2.88662
1.92912
-0.170997
2.78633
2.18898
2.04776
-6.47846
-4.37991
1.12534
-1.95468
0.0432462
-3.82707
-1.70383
-3.5155
1.33896
0.659914
1.04438
1.14652
-0.0599865
1.30181
1.65298
-12.8392
1.77706
1.0616
1.67206
-0.217101
0.0102975
-0.373328
-5.37363
-1.09212
-0.55372
1.6347
-6.15762
2.5713
-3.32017
1.62073
1.07936
0.0174635
0.342199
1.71871
0.785689
0.416698
1.52129
0.162886
0.0822035
2.43667
1.97986
-1.2616
-4.3264
0.106861
1.48758
0.0363769
0.827323
-2.86675
0.0295633
-0.245916
-0.522991
1.46632
1.44389
0.239963
0.777569
-0.0157654
-0.0367745
-4.96822
2.06535
-0.544944
1.60617
0.00312556
1.45058
1.77854
0.971886
1.56803
0.132442
-0.355313
0.00691656
-5.07886
-0.807473
-1.32166
-0.00750865
0.0174951
1.34982
-0.0649433
1.64235
0.0184231
0.104514
-2.47935
-0.0624991
1.74213
-7.24686
1.63474
0.434117
-2.98726
0.0155222
-0.624735
1.20047
1.76476
-0.0356719
0.317041
-5.19107
1.9868
0.146565
0.53712
-4.9251
2.101
0.846051
0.017849
1.7851
1.74904
2.03673
0.25818
2.05623
-3.30214
0.0422028
-0.206684
1.64852
1.09224
0.459101
0.268923
-2.97299
-5.00865
0.946384
0.107841
-5.52581
2.58292
-3.53597
2.01028
1.2187
-0.634142
-0.0894813
-0.0541812
-0.193149
0.211886
0.246112
1.57656
0.0133426
1.67968
-2.56001
0.760328
-0.0423835
0.432602
-3.25309
2.10451
2.83677
1.82484
0.999444
0.433749
1.11204
-7.01909
0.0907783
-0.243366
-0.254518
-1.39741
-8.41861
-3.35656
-1.02684
1.5023
1.67604
-4.17292
0.434453
1.88921
-0.92986
-2.33295
1.79845
-0.0876197
-11.1995
0.0426059
-0.326074
0.00458366
2.64374
-0.250048
1.62992
-1.6094
-1.04432
-0.900757
1.64534
0.459954
1.4044
-1.31681
-1.2331
-0.0398644
0.339607
1.92967
1.47803
0.322186
-0.135281
-0.603812
2.95072
-0.0681366
1.90891
2.10177
-0.0832146
-0.117173
0.791948
-5.21842
-1.09222
1.46752
0.985476
1.61747
-1.17285
1.82623
0.223404
2.37877
0.343254
1.48525
2.10749
1.39874
0.340336
-3.79752
0.566019
-7.98478
1.48051
0.781007
2.02779
0.164401
2.54799
0.292304
2.70971
-0.0423072
2.12426
-0.216481
1.26777
-8.86778
1.60954
0.828033
0.716322
2.4863
1.66136
0.432602
-0.958067
0.977324
1.59127
-0.057687
-5.42109
1.22572
-0.188785
2.1716
-0.388968
2.59346
0.44059
3.38064
2.59561
1.26988
1.13973
-9.58743
0.113632
2.77192
-0.252414
-0.0666061
-0.225568
2.70426
0.845846
1.44787
2.29109
-1.09718
1.80912
-0.462111
2.00717
0.069638
1.90415
1.69974
2.32644
-0.0863143
-5.73731
0.502918
-0.737147
0.801555
0.364685
-0.871461
2.13313
2.43992
0.0255607
0.628335
-0.426926
2.20036
1.38393
1.54892
1.05521
-0.191593
-4.67376
-0.138292
1.71532
-2.54836
-0.00685054
0.0839419
1.20842
0.819641
-0.967844
2.91618
-0.00353943
2.57084
0.572012
2.58307
-0.760694
0.412908
0.0251427
0.0652746
1.42001
1.65107
0.0855685
-0.00731601
-0.0380914
-0.009972
2.4312
-0.510638
0.0212263
-0.0409415
-0.0175018
0.653311
2.0629
0.843481
0.0293733
0.0325137
1.66273
3.09369
-0.823972
-0.0333233
1.64595
0.0951342
0.873391
-0.05107
1.2392
-0.00998285
-2.90683
-0.445082
-0.286909
-0.281805
-0.555307
-3.69789
-1.3299
0.00543648
1.3184
1.78224
1.46584
3.01083
-12.4659
2.6951
-4.86124
2.55685
-5.31155
-1.23724
2.91298
0.707907
-0.542127
1.72404
-0.0831537
1.85158
-0.144268
-5.47281
0.285087
-0.979728
-1.17539
0.00619598
-0.274392
0.689027
2.09732
-4.90365
0.764916
-2.51957
0.457541
-0.0252256
-0.0533766
0.290514
-0.0221471
-2.0787
2.1721
-0.0125212
2.39069
0.661856
-7.21712
0.586367
-1.39404
0.0285776
1.44788
2.09532
3.00327
1.27741
1.42144
0.834087
-4.57854
2.89842
3.10917
1.82398
-1.0034
-1.14094
-8.38271
1.55991
1.13113
0.641734
1.36472
-0.128222
-0.0329126
-13.0645
2.47985
0.220142
0.213864
-0.312048
1.63501
0.34123
3.30566
3.10185
1.48755
0.158973
0.482867
-3.83582
0.676893
3.18258
0.191649
0.0291344
1.26344
0.00641824
0.350486
-0.224735
-0.437485
0.363596
0.239848
0.790138
0.0278258
0.550597
2.34158
0.602393
1.77055
-0.40126
-0.538446
2.81969
-3.85069
0.343304
0.511572
0.74313
0.289138
-0.436577
0.432577
0.0329394
0.301666
3.3256
-5.53447
-3.94318
-1.90661
-1.05253
0.167132
0.510739
-0.286133
-3.34046
0.0181393
-3.37661
-1.2902
-1.29213
0.285905
-0.0305122
0.170382
3.25571
0.182324
0.504405
-0.278208
0.357969
-4.54174
-0.570841
2.28124
1.64166
0.515023
-0.0279151
1.57776
1.77653
0.105986
-7.81086
-0.209339
2.2728
-1.00135
1.56814
0.0718742
2.56625
0.170711
-0.50616
0.13044
1.81686
-0.87914
1.49421
-1.11251
3.15801
-0.252309
-0.379732
-11.8743
0.777812
-0.471447
-1.30775
-0.30074
0.184678
0.823724
-1.46334
-0.0528835
-0.175729
0.355855
-1.15259
-1.31107
1.35167
-8.20492
1.46749
-0.366239
1.83787
2.88753
1.59149
-4.68276
1.70927
0.170221
0.360087
-0.202696
-0.599833
-5.76139
-1.45202
-0.638396
0.803613
0.0160818
-1.11201
0.0273173
-8.10953
0.879584
1.70069
-1.72123
-0.545528
-0.559242
0.0221141
-0.0389058
1.01701
-3.20499
-0.637202
1.69686
0.00430936
1.01539
-1.61351
-10.2709
-6.63197
-12.5845
3.23658
0.561026
-1.20552
0.484807
2.71292
2.82628
-0.628454
-0.477688
1.66138
-0.0315929
-1.6707
2.78961
0.958218
1.51298
3.30675
-0.468403
0.572271
0.274353
2.49873
1.73043
1.75313
2.08705
1.20143
0.0457412
0.0886593
0.800531
0.412156
-5.40792
2.8666
-0.818377
-0.88153
0.0267924
-1.10339
0.853579
-0.331046
-0.523039
0.427539
1.76313
1.80496
1.93709
-6.68626
2.45355
2.79276
-4.06441
1.07064
-0.214555
-0.146543
0.342465
0.998038
0.0234447
-0.945973
-1.1094
3.0942
-7.66947
1.94883
1.6711
2.22957
1.29644
1.33185
-0.0275776
0.0388921
1.04552
-0.116878
-10.8668
-2.4088
0.0947993
-0.194196
2.06294
-1.24053
-0.00961037
0.368659
-4.50514
-0.430925
-5.395
1.49521
-0.465078
-0.348904
0.804746
-2.46577
0.626661
-4.48634
-0.212505
1.79814
-8.26102
2.84434
0.0231982
3.0138
0.00410228
-0.281199
0.232412
1.47565
1.44936
-3.03213
-0.242206
-0.31078
0.213326
1.2076
3.30504
2.23673
0.601167
-0.950699
0.920816
0.0481391
1.93991
-0.0741769
1.00713
-0.168909
-0.283093
-4.41326
0.693336
0.0429633
-4.49229
1.1165
1.08554
2.76625
2.95034
-5.39671
-5.78217
0.0880788
-1.5104
2.88681
0.158223
-0.65045
0.755468
1.22664
-0.249706
0.151009
0.156886
-0.080199
1.56473
-0.176596
0.572596
-0.136004
-1.1549
-2.80409
-0.426294
-2.80221
-2.60311
1.87109
-0.766373
-0.42082
-0.500769
0.127427
3.13611
1.28858
1.57506
-0.527459
0.886263
-0.0651826
0.726221
0.53173
-0.282873
-4.01636
2.87877
1.77115
-0.00567315
-5.09411
3.24274
-0.462973
-4.86424
-0.13984
0.902631
-0.562541
-0.218963
2.48985
-0.0994254
1.56419
0.696727
-0.153967
0.206518
-1.12545
0.852588
-2.95518
0.0360552
0.544094
1.65316
-0.722441
-5.21682
0.167722
-0.710997
-1.7473
-1.60536
3.0477
1.11857
-6.21126
0.859864
0.451706
2.70047
0.982311
-4.59239
1.05708
2.11623
1.84841
-1.0011
1.49125
-0.0209869
2.85566
0.0412682
1.7162
-7.32456
-0.921858
0.0243079
-0.227845
1.05368
0.597581
-5.17169
-0.771927
1.98714
0.0229277
-0.122819
2.33751
1.33654
2.27476
1.57
-1.29208
0.0199027
0.0741608
1.67584
0.00243108
2.09248
1.3471
2.82773
-0.219968
2.21445
0.911302
2.84276
-0.141591
-1.05788
2.91811
-0.257236
1.32333
-8.21995
2.53054
2.80732
1.80838
-2.58424
1.66678
2.17493
-1.08329
0.753819
-0.464277
2.32219
-0.308873
-0.0346465
-5.8391
-5.99379
2.13482
0.882975
-8.32175
0.903116
2.8066
-0.811147
-0.230595
-6.23115
-1.32672
1.45279
-0.300349
1.60093
1.5814
-8.19855
3.13382
-0.114779
2.38381
2.38475
0.0180966
0.00779842
1.50878
-2.32963
-0.389047
1.50199
1.29122
-0.572465
1.58976
-0.118871
2.44688
1.81582
0.688787
0.147905
1.88561
-0.109646
1.04364
2.23386
0.365555
0.0235974
2.16261
1.80629
-1.02552
-4.6368
1.32309
1.89055
2.8509
-5.1601
3.00534
2.91762
3.04883
-0.11995
2.09301
-6.80107
1.67648
2.26519
2.18626
1.87085
2.46829
3.3044
1.46573
-5.22271
0.288302
-3.56509
3.27147
0.931727
-0.0207267
-0.469676
1.58465
2.46921
1.5728
0.613876
-0.223454
2.4597
-3.60697
1.8124
-0.547338
0.789951
-0.0394954
0.620525
1.11563
-4.31254
-3.81473
0.000372231
-0.68107
-0.106297
2.05074
-0.325046
0.175266
1.57098
-7.37348
1.10428
0.023587
-5.99161
-7.21439
-5.05739
2.36025
2.52673
-0.385334
0.657412
2.15658
1.95727
0.0286226
-2.59658
1.84601
-5.4492
2.31073
-4.88172
2.24897
1.07569
0.266366
2.09321
1.13156
2.20846
0.648668
0.8076
-0.878209
-4.70946
-11.8475
-0.173029
2.16601
-3.63997
-0.345938
-3.32955
2.38436
2.19008
0.628499
1.27319
2.42195
-2.5521
1.60839
-0.17003
-0.964617
1.60031
-0.522508
-7.54002
-1.49707
-5.37312
-0.522574
-6.90032
-0.177123
-9.61262
-4.5959
1.39225
2.87618
3.13332
2.7363
-3.94658
1.83237
-8.10922
1.55752
2.40677
0.273691
2.12525
-3.04534
0.634238
-0.934091
-0.0990012
2.31407
-1.15287
1.91448
-7.00323
-0.411473
-5.39449
1.93066
1.89768
1.67443
-8.66041
1.59101
-0.0619299
-7.31284
-6.44529
0.591957
2.89659
-2.95116
-0.51962
-0.651213
1.61199
1.60878
-0.108953
1.06958
-8.86211
2.45645
2.22094
-0.280391
-0.334672
2.4042
-0.550616
-12.0383
0.0281996
2.18975
2.46991
-5.98643
1.24077
-0.188226
2.82457
-9.73843
-1.16254
-0.11568
2.66085
0.0116259
-0.850756
-0.0229262
2.30232
1.33962
2.27945
-0.16773
-2.75076
1.87385
3.23927
-4.90089
1.54574
-0.0329414
-7.8888
-0.0100807
0.651318
-0.723747
1.21633
-0.119228
1.11818
-0.135932
-1.25849
2.08358
2.49964
1.57854
-2.17497
-1.17282
1.96368
-8.04603
0.684494
-0.958249
0.86066
-11.7887
1.81444
1.96591
-0.0566131
1.85255
2.79908
-0.362321
1.40576
1.90104
-5.81843
1.05083
-0.654047
0.857784
0.683805
1.33177
0.00723397
0.612767
-0.390424
-3.22649
2.35476
0.743238
0.31311
-0.663587
-0.359968
1.7326
-10.2813
3.03745
-7.64007
-5.35722
0.00897865
2.13123
1.91327
2.25492
-3.39176
2.69752
-5.60947
1.36944
0.0538622
-6.60214
1.55427
0.795502
-0.446108
1.17529
-4.14184
1.36862
-5.41885
-0.644348
0.0114762
-4.03632
-4.87446
1.5249
2.76056
-1.33039
-7.34323
2.16231
-3.18179
2.51797
0.846189
0.0682677
0.959487
1.68728
0.902951
-0.0611288
0.178131
-0.0176659
0.450103
0.644689
-7.99968
-0.690183
0.0794804
1.05608
-0.177837
3.28113
1.82483
1.66973
2.54635
0.306048
1.87102
-2.72292
-3.01099
-1.05841
1.68319
3.208
1.56437
-1.16927
2.35547
1.61255
1.63317
-0.352845
-0.0468653
0.916712
3.05369
0.146617
-1.25058
2.2203
2.40466
1.79512
1.65896
2.04035
1.18835
-0.0854013
-2.43468
1.84899
-5.13036
-4.57326
1.61712
-1.46974
0.124863
0.631923
1.841
1.90868
1.93048
-0.118408
2.24801
2.30215
0.386042
2.02765
1.77009
1.39725
1.28963
1.1917
0.886598
-0.114685
2.131
2.01592
0.0860277
1.55819
-0.140055
0.00928964
2.73625
2.08921
0.012957
-5.32396
0.205638
2.15223
1.23837
0.39264
-0.0417599
0.193857
-0.479717
0.315526
-1.39526
-0.271708
1.284
-0.287596
-4.00537
-8.90959
2.59497
-0.678802
-4.46746
-1.91035
2.76871
-0.220962
0.434739
0.371343
-7.17291
1.33486
1.57426
1.09759
2.45265
1.34699
0.0424867
-4.1386
-4.35815
0.0284287
1.94178
0.136572
-6.85501
-9.30457
-0.560278
-4.41764
-1.41618
-3.70811
-0.353423
0.65214
1.65064
2.19481
-0.45112
-0.139513
2.46048
1.85957
-5.59498
-0.196878
-3.57498
1.05845
0.0797206
0.943342
1.43326
0.0342732
-0.26716
-0.361296
0.478928
-4.89159
-4.82043
0.103104
-2.55216
-5.387
-8.18011
-3.27778
0.133624
-2.95056
0.881554
-6.83463
1.65325
1.49036
0.484919
2.15641
-6.20208
2.77958
-1.04056
0.107558
-1.40993
1.65967
1.03232
-4.58939
-2.74259
1.7072
2.02313
2.87883
-6.33841
-5.46016
-4.58799
-0.314829
0.00751653
-8.04363
0.678769
-6.08538
1.00488
-7.60596
1.32773
0.251959
-0.162955
2.51634
1.49543
-1.13791
-0.0111053
-1.98932
-5.34372
2.16662
3.13899
-5.29037
2.06961
1.56535
0.00335514
-0.0608583
2.10003
2.01724
-4.04808
-0.192944
-1.24539
-5.91479
-1.30987
-7.74876
-1.16154
1.12583
-0.0799354
1.84469
-9.25976
-8.65337
1.56953
-1.19181
-6.05678
0.116522
1.29428
-6.2886
-0.714134
-8.6203
-7.51004
-5.8716
2.92151
-2.90267
-0.272745
-8.2311
1.82117
-5.53408
-0.0855706
-3.42097
-13.0114
-0.920676
1.90436
0.011486
-7.45363
1.45681
0.0183218
-0.988843
-6.62076
-9.69071
1.22787
1.398
1.67871
-3.82756
2.5108
-0.690493
0.00495022
0.00377665
-2.62106
-2.95344
-8.67601
-2.93086
0.416159
0.734973
-0.287544
-0.335866
-1.62691
1.58758
-11.2033
1.75582
-7.98698
1.07602
-0.508632
-0.0145636
0.0417331
3.1985
-0.138208
-6.58341
-3.53724
-1.54485
1.6791
-0.167068
0.0602165
0.058864
-8.90655
-5.78115
-4.60824
-7.02286
1.85336
-12.0509
0.250478
-8.46433
-0.0675396
1.46155
0.0352266
0.801755
-0.644877
2.21203
-5.36089
-1.61171
2.36448
0.70634
-5.4052
-0.349536
-6.61737
-1.52749
-0.452792
2.15606
-0.734865
0.744533
-5.42173
-5.39304
-13.3528
-12.5969
-4.48697
1.05002
-0.318936
1.64661
0.66764
-7.67733
-0.587181
-4.06173
2.06231
2.49055
-7.09658
0.145874
1.78296
1.65222
1.35836
-2.22911
-3.72726
-3.59021
1.68828
0.509338
-1.70234
-8.79324
0.998943
1.98916
-0.264799
0.10321
0.102339
2.33541
-1.80993
-1.95059
-0.0096203
1.44993
0.159786
0.0228269
2.52616
2.0751
-0.224192
-3.28292
2.13066
0.856782
-0.0943473
1.58043
-0.725051
-3.12057
-4.39584
-3.02781
2.03584
1.81064
-0.235709
-0.977582
-0.0291654
0.0514465
1.84547
-3.54254
1.31308
2.22665
2.38143
-0.412789
1.66594
1.50351
1.8812
1.99021
-0.166785
1.99962
0.00660108
1.67638
0.953169
1.80929
-4.02592
2.09888
2.00913
1.51453
1.12367
-1.39314
1.21457
0.0482328
-1.23929
2.27998
2.22996
-2.37708
1.86507
-2.752
-5.07817
1.82177
1.80844
-3.10154
-0.117247
-5.41467
-3.09738
-1.33987
-0.455761
-3.41292
-0.415513
1.53918
3.01004
2.12804
-0.50325
-0.187625
1.79852
0.906836
-0.0498273
-3.20605
-1.10558
-1.90978
-4.869
-4.73426
1.60328
-0.0691619
0.858063
0.0355196
0.0329775
-0.00648569
0.0375546
0.425897
0.907999
1.15463
-0.987202
0.872702
-2.99722
-9.8921
1.18051
0.94439
-0.176215
0.136289
1.13535
-0.0801053
0.682684
-0.998608
1.65139
1.39659
2.66612
1.678
-2.21026
-0.422977
-0.976557
-0.979682
-0.0349209
0.000355191
-0.305913
-2.39331
3.06664
0.117879
0.0712768
2.48406
-0.73199
-0.99205
-0.0505909
-4.17268
-4.07763
0.574065
-1.56624
1.65617
-0.383601
-1.95489
0.071357
-0.535949
-1.30459
-0.0611373
-0.44432
1.32037
-0.285406
-0.488231
-1.69307
0.686979
-1.62713
1.79829
2.54861
-0.922104
1.83306
0.985803
1.23176
2.80025
-1.07999
1.04095
0.905707
0.796681
2.4106
-0.424469
-0.310854
-0.074718
1.77146
2.54601
-0.773159
-0.136992
-1.91983
-1.45892
0.888918
-1.56534
-2.68178
-1.08995
0.69407
-5.45212
0.388595
0.576536
1.47392
0.297847
-5.17761
-0.216125
-0.0679371
-0.224867
2.71173
3.02974
2.26588
3.17401
1.49794
0.77443
1.91223
1.66749
1.54033
-1.68632
1.72456
-0.404875
-4.73927
2.48067
-0.406961
-1.56786
2.8964
0.0595953
-7.02194
0.919408
0.79694
2.03871
-4.31405
1.55686
2.66249
-0.826395
-5.04735
-2.17713
1.19934
-7.48923
2.16972
-0.165273
2.04487
1.66998
-0.525722
1.96755
-0.887412
-4.77115
-5.11395
-1.73059
2.04174
-1.60264
1.72661
-0.0937731
-7.93565
-0.214438
-0.044689
-1.5491
-1.30314
-4.36223
2.06893
0.366556
-5.63838
-0.653912
1.10169
0.458095
-3.13328
0.839598
-0.146392
0.863846
-5.88549
1.00212
0.47251
1.0806
-0.227292
1.57072
1.05108
0.54007
-5.35614