/*--------------------------------*- C++ -*----------------------------------*\
| =========                 |                                                 |
| \\      /  F ield         | OpenFOAM: The Open Source CFD Toolbox           |
|  \\    /   O peration     | Version:  2306                                  |
|   \\  /    A nd           | Website:  www.openfoam.com                      |
|    \\/     M anipulation  |                                                 |
\*---------------------------------------------------------------------------*/
FoamFile
{
    version     2.0;
    format      ascii;
    arch        "LSB;label=32;scalar=64";
    class       surfaceScalarField;
    location    "5.2";
    object      phi;
}
// * * * * * * * * * * * * * * * * * * * * * * * * * * * * * * * * * * * * * //

dimensions      [0 3 -1 0 0 0 0];

oriented        oriented;

internalField   nonuniform List<scalar> 
20045
(
0.247639
-0.265514
0.0178744
-0.535177
0.189088
0.346089
0.180027
0.934944
-1.11497
0.0442794
-0.0523698
0.00809045
-0.420925
0.411265
0.00966014
-0.292012
1.11503
-0.823018
-0.512351
0.224189
0.288162
0.0337898
0.216873
-0.250663
0.237234
0.209238
-0.446473
-0.416928
-0.0544804
0.471409
0.0619931
-0.200523
0.138529
1.13921
-0.547317
-0.591897
0.17799
-0.179737
0.00174708
-0.648749
0.550626
0.0981231
-0.165795
0.534568
-0.368773
-0.548426
0.131498
0.00174565
-0.0432463
0.0415007
0.415472
-0.313848
-0.101624
-0.842303
1.23818
-0.395881
-0.3794
0.0292318
0.350168
0.115357
-0.11903
0.00367308
0.0600478
0.117942
-0.0644842
-0.470693
0.291198
0.53074
-0.821938
0.417576
0.102632
-0.520208
-0.55433
0.845528
-0.256842
0.293814
-0.0369718
-0.621765
1.18282
-0.561054
0.874246
0.123267
-0.997513
-1.13864
0.630011
0.50863
-0.097397
-0.100116
0.197513
0.718713
-0.506201
-0.212512
-0.413702
0.80696
-0.393258
1.15175
-0.668247
-0.483504
-0.279403
0.313193
1.07546
-0.526949
-0.548509
0.731447
0.0911327
-0.82258
-0.0303144
0.185739
-0.155424
-0.949236
0.384525
0.56471
0.297961
0.260368
-0.55833
0.0263611
0.197081
-0.223442
0.0643243
-0.0926518
0.0283276
1.07432
-1.07406
-0.000252954
0.747761
-0.277551
-0.47021
0.346525
0.401236
0.519308
0.619905
-0.159038
0.383636
-0.224599
0.636376
0.278873
-0.915249
0.90665
-0.175203
0.0759665
0.944338
-1.0203
0.649744
-1.09993
0.45019
0.886808
-0.653303
-0.233506
-0.604569
-0.431201
1.03577
-0.0449939
-0.151561
0.196555
0.407766
-0.106028
-0.301738
-0.34825
-0.0726757
-0.00311326
0.778462
-0.775349
0.792169
0.0483415
-0.840511
0.479616
-0.893318
1.04613
-0.675317
-0.370811
0.141277
-0.128299
-0.012978
0.45158
0.594548
0.288378
-0.912958
0.62458
0.117666
-0.00230856
0.455775
-0.000461476
-0.455313
0.830129
0.0891437
-0.919273
-0.00414142
0.0445734
-0.040432
-0.336174
0.0868162
0.249357
0.424524
-0.187289
0.88518
-0.899732
0.0145523
-0.0220534
0.017912
-0.0510008
0.458767
-0.12091
-0.527109
0.648019
-0.0129328
-0.103773
0.116706
0.919507
-0.187277
-0.73223
0.68955
-0.692663
0.00214535
0.917361
0.216614
-0.382409
-0.144504
-0.258075
0.402578
0.203633
-0.598826
0.395193
0.519372
0.606717
-1.12609
0.450621
-0.348716
-0.101905
0.782974
-0.494596
-1.25712
0.239755
1.01736
0.0119606
0.235679
-0.277747
0.314431
-0.0366839
0.154997
-0.596423
0.441426
-0.803965
0.0366151
0.76735
0.518798
0.0750207
-0.593818
-0.430223
0.394915
0.0353082
-0.719479
-0.111468
0.830948
0.363635
-0.0636179
-0.300017
0.202251
-0.287146
0.0848944
-0.0797307
-0.405576
0.485307
0.295875
-0.313939
0.0180635
0.754217
0.193963
-0.94818
-0.277548
0.020706
-0.0464696
-0.00726485
0.0537344
0.609511
-0.311549
0.0472663
-0.0338303
-0.013436
0.725462
0.349996
-0.238321
-0.410427
-0.0801645
0.033695
-0.144866
0.937035
-0.00183538
-0.275912
-0.047794
0.0950603
0.22875
0.602942
-0.831692
0.560662
-0.863042
0.30238
-0.303541
-0.207787
0.181278
0.0265088
-0.0981779
0.125341
-0.0271633
0.623834
-0.457911
-0.165923
-0.2471
0.202107
0.657871
-1.09642
0.438545
-0.0820683
0.157605
-0.075537
0.0226785
-0.121826
0.0991474
0.581443
-0.163867
0.839314
0.312436
-0.582691
0.461781
0.69799
-0.988671
0.290681
0.275702
0.13977
-0.054941
0.196218
-0.388515
0.316309
0.072206
-0.388574
0.0479588
-0.292864
0.244905
0.6379
0.248908
0.56064
-0.714695
0.154054
0.813282
0.0898271
-0.903109
-0.987749
0.752347
0.235401
-0.120282
-0.423173
0.543455
0.93926
-0.30136
0.073955
0.309681
0.065843
-0.0707363
0.00489333
-0.0618822
0.0405421
0.0213402
0.569462
0.402815
-0.972277
0.599639
-0.580126
-0.0195132
-0.178342
0.110066
0.0682762
-0.149069
-0.0587179
1.10997
-0.411985
-0.325513
0.347295
-0.0217821
0.637356
-1.10299
0.465633
0.178233
-0.782802
0.570923
0.225419
-0.796343
0.660339
-0.456706
0.971776
-0.131319
-0.840457
0.413199
-0.987331
0.574133
1.24722
-0.763379
-0.483842
-0.12923
0.239005
-0.109775
-0.00629342
1.04506
-1.03877
1.0757
-0.201458
-0.826133
0.0274361
0.798697
-0.476535
0.418228
0.058307
1.01504
-0.495665
0.169322
0.281299
-0.636874
0.779969
-0.143095
-0.777597
0.957624
0.010719
-0.151978
0.141259
0.0287892
-0.037884
0.00909473
-0.0156193
-0.188004
0.203624
1.01143
-0.224866
-0.786562
1.32192
-0.651992
-0.669925
-0.221085
0.205466
0.346862
-0.6625
0.315638
0.075696
-0.0113717
-0.798169
-0.485336
0.690555
-0.205219
-0.676426
0.498589
0.177837
-0.0129552
-0.0220301
0.0349853
0.536458
0.710764
-0.0419517
-0.0199305
0.00854649
0.0572965
-0.710281
0.0734065
-0.731792
0.932514
-0.200721
-0.658374
0.759337
-0.100963
-0.601598
-0.427358
1.02896
-0.314725
0.0665293
0.248196
0.451764
-0.477581
0.0258168
0.894677
0.0850717
-0.979748
0.0154203
-0.758297
0.742877
-0.362046
0.932969
0.194426
-0.543752
0.349326
-0.427704
1.08557
-0.832597
0.542949
0.289649
0.184797
-0.228767
0.0439698
0.437144
-1.22371
0.786569
-0.943263
0.321498
-0.615049
-0.416127
1.07093
-0.650716
-0.420214
-0.266402
0.292763
0.122716
-0.129672
0.00695613
-0.775839
-0.165046
0.940886
-0.829654
1.16812
-0.338471
0.907699
-0.646783
-0.260916
0.0857147
-0.25178
0.166065
-0.249502
-0.472226
0.721728
0.219278
-0.157285
-0.4698
0.349518
-0.669282
-0.221992
0.891274
0.088992
0.0246842
-0.113676
0.125383
-0.610719
0.0926808
-0.190078
0.870333
-0.0570515
-0.139324
0.10901
-0.128966
0.157025
-0.0280585
0.0271627
0.984266
-0.770744
0.521242
0.281891
-0.00903079
-0.272861
-0.700024
0.133367
0.566657
0.304939
0.602759
1.27455
-0.837409
0.730614
-1.23019
0.499577
0.204001
-0.781667
0.577666
0.0264422
-0.405842
-0.485805
0.714555
0.662808
-0.95482
0.316344
-0.728403
0.412059
-1.23898
0.703004
0.535975
-0.0189084
-0.411314
0.180237
0.13758
-0.317817
0.721746
-0.218923
-0.502823
-0.0320846
-0.724612
0.718319
-0.253884
-0.0716296
0.652636
1.08439
-0.881122
-0.203268
-0.0106009
-0.126823
0.137424
0.680076
0.107841
-0.787917
0.214529
-0.0319035
-0.182626
-0.146067
0.663067
-0.516999
-0.435053
0.590049
0.565417
-0.370991
-0.0533491
0.147886
-0.0945365
0.925816
-0.28846
0.0891231
-0.00803317
-0.0810899
0.131338
-0.0456642
-0.0856737
-0.103351
0.10716
-0.00380891
1.05796
-0.676116
-0.381845
0.240082
-1.06974
-0.112863
0.00951199
-0.877282
0.286047
0.591234
1.16513
-0.358166
0.249482
-0.981274
1.28577
-0.585679
-0.70009
-0.0117155
0.100708
0.800328
-0.351843
-0.448485
-0.609685
0.141305
0.46838
-0.955393
0.959824
-0.0044312
0.286099
-0.849458
0.563359
0.00118538
-0.056128
0.0549426
-0.470293
0.634627
-0.164333
-0.140432
0.14401
-0.00357801
-0.142783
0.0607146
-0.113931
0.0157533
-0.574119
-0.288924
0.420991
-0.774001
0.35301
0.407526
-0.111606
-0.29592
0.407234
0.311479
0.652669
-0.336325
0.010001
0.0187882
0.689417
0.47571
-0.48967
0.0119313
0.477739
0.255954
0.544375
0.381573
0.152995
0.176056
0.23147
-0.284667
-0.0201224
0.304789
-0.0582921
0.243089
-0.702548
0.556481
-0.175791
0.196181
-0.02039
-0.914486
0.879154
0.035332
-0.357792
0.58001
-0.222218
-0.218837
-0.10814
0.326977
0.76561
-0.82803
0.0624203
-0.753696
-0.485282
1.3022
-0.832976
-0.469227
-0.09289
0.0822891
0.944496
-0.658397
-0.378837
0.799828
-0.132689
-0.217964
0.350653
0.802128
-0.148871
-0.653257
1.27061
-0.38429
-0.886322
-0.389504
0.256815
0.828716
-0.485617
-0.343098
-0.157906
0.781914
-0.624008
0.689139
-0.935944
0.246804
0.272112
-0.156241
-0.115871
0.317898
-0.124431
-0.193467
1.2368
-1.00127
-0.235529
-0.523027
-0.464722
0.730021
0.354369
-0.838103
-0.0763831
0.0179603
0.113378
0.106483
-0.717956
0.611474
0.00404915
0.118667
-0.540075
1.10954
0.402364
0.655597
1.16489
-0.713355
-0.45153
-0.757408
0.535416
0.739352
-1.2184
0.479053
-0.625881
-0.039665
0.665546
-0.2299
-0.177569
0.407469
0.543963
-0.197101
0.0440092
0.237882
0.507233
-0.027169
-0.479032
-0.705396
0.967442
-0.262046
-0.147907
0.0189407
-0.05742
0.00407084
0.117016
-1.07241
0.261162
-0.696215
0.130811
-0.209839
0.292448
-0.0826087
2.62284e-05
0.0442532
-0.509622
0.37517
0.134452
0.352666
0.271167
-0.155916
0.562048
-0.406132
0.49313
0.106509
-0.636291
0.742773
0.572851
-0.0540535
-0.20344
-0.496584
0.993408
-0.75019
-0.243218
0.921262
-0.832374
0.237181
0.595193
0.798565
-0.864122
0.0655574
-0.431268
0.351537
-0.110986
-0.0673561
-0.115598
-0.603881
0.2818
-0.541148
0.259349
0.419912
0.408804
0.738543
-1.1522
0.413662
0.22288
-0.53493
0.31205
-0.971919
0.167954
0.0100568
0.353578
-0.567951
0.871958
-0.304008
-0.254414
0.305611
-0.0511968
-0.403625
-0.108726
-0.128416
-0.223251
0.351667
0.0811775
0.000894407
-0.0820719
-0.331187
-0.145348
0.37664
0.446009
-0.822649
0.750473
-0.494519
0.29086
-0.445717
0.0144492
0.461501
-0.238621
-0.665541
-0.167057
0.0988735
-0.227415
0.128541
0.97903
-0.342654
-0.452719
0.747128
-0.294409
-0.114221
0.13243
-0.0182094
0.747859
-0.0261127
-0.162361
-0.555595
-0.498888
0.921296
-0.422408
0.654854
-1.15119
0.496333
0.588801
0.713401
0.263436
-0.27565
0.0122146
0.0864532
-0.712334
0.680749
-1.03299
0.352241
0.100837
-0.113769
-0.0718744
0.632515
-0.318435
0.579597
-0.570861
0.774863
0.190799
-1.0331
-0.891865
0.481417
0.410449
0.639039
-0.101346
-0.537693
0.93516
-0.16955
-0.435637
-0.532462
-0.482342
0.48877
-0.260003
0.0620142
0.197989
0.32063
-0.291398
-0.709921
0.638046
0.846301
0.228014
-0.783417
0.330698
1.0685
-0.338477
0.046386
0.123124
-0.16951
0.00836028
-0.621527
0.613166
-0.902905
0.170481
0.732424
0.726803
-0.726803
-0.215257
0.764255
-0.548999
0.481219
-0.637134
0.680458
-0.400592
-0.279866
-0.940428
0.972723
-0.0322949
0.336934
-0.0454985
-0.291436
0.257842
-0.11067
-0.147172
0.107376
-0.326213
-0.186048
0.457907
-0.836744
-0.853819
1.00874
-0.154925
-0.284124
0.660764
0.0924311
-0.00345968
-0.0889714
-0.102624
0.158438
-0.0558145
-0.378162
0.404604
1.1059
-0.900311
-0.205593
-0.0856362
-0.526761
0.612397
-0.228795
0.248749
-0.019954
0.119206
-0.274896
0.15569
-1.03414
0.413955
0.620185
-0.041745
-0.0106248
-0.0705676
0.116954
0.0147197
-0.0714199
0.0567002
0.550027
0.686771
0.0652411
0.0271899
-0.0501473
-0.291603
0.34175
-0.49865
0.794467
-0.295817
-0.00584582
0.0744197
-0.0685739
0.433439
-0.20925
0.813392
-0.304862
-0.508529
0.00616551
-0.411741
0.0830432
0.811633
0.423815
0.301351
-0.725166
0.462105
-0.411822
-0.0502828
-1.01248
0.186347
-0.432408
0.184278
0.24813
0.447057
0.570894
-1.01795
-0.6281
0.588435
0.0446685
-0.913311
0.868642
-0.123127
0.208841
0.175451
-0.220429
0.0449786
0.0209147
-0.305582
0.0869452
-0.0743179
-0.0126273
-0.673621
-0.20366
0.618362
0.0854773
0.0207349
-0.106212
-0.119094
0.00487315
0.169575
-0.709529
0.539954
0.212127
0.550776
-0.762903
0.357575
-0.715893
0.868613
-0.15272
-0.716072
0.558166
0.180584
0.11323
-0.399092
-0.277334
-0.252632
0.0659517
0.186681
-0.863258
0.364608
0.668838
-0.754474
0.425119
0.643379
-0.297342
0.302237
-0.00489528
0.384235
-0.935702
0.551467
0.140028
-0.260236
0.120208
0.536995
-0.699356
-0.639937
-0.0184367
-0.304408
-0.031766
0.017595
0.121669
-0.139264
0.352207
-0.0126231
-0.0243351
0.0369582
0.952985
-0.505927
-0.361763
0.448863
-0.0870999
0.261417
0.175919
-0.437336
-0.365079
0.241953
-0.210421
-0.0422115
0.399093
0.281365
-0.235809
-0.752862
0.27807
-0.179197
0.615583
0.40551
0.167341
-0.895757
0.971723
0.0991131
-0.4613
0.362187
-0.0852052
-0.828307
0.913512
-0.0864247
0.0792028
0.0072219
0.0612186
-0.375944
-0.27908
0.968219
1.00976
-0.596566
-0.430541
-0.0790814
0.0142291
-0.411132
0.396903
0.406726
-1.00832
-0.117569
-0.476631
0.594199
0.00736649
-0.0862801
0.0789136
-0.653085
0.0546829
0.598402
0.959391
-0.680519
-0.0190592
0.0806599
-0.0616006
-0.211267
-0.0175283
0.173967
0.35903
-0.532997
0.0951656
-0.12058
0.0254146
0.631626
0.363551
-0.995177
-0.393685
1.1479
0.0788521
0.00232536
-0.265509
-0.561459
0.826968
0.378029
0.731946
0.918464
-0.706337
-0.348679
0.220263
0.14966
0.168238
-0.442123
1.18147
0.136297
-0.767456
0.631159
0.928728
-0.14525
-0.783478
-0.463987
0.712379
-0.248393
0.397621
-0.399992
-0.461033
0.861025
0.0583421
-0.0595697
0.00122756
-0.284971
-0.485423
0.770394
0.0448315
-0.147456
0.0281117
-0.0410669
0.506372
-0.791344
-0.707082
-0.206115
0.913196
-0.066483
-0.475329
0.541812
0.242585
1.18005
-1.20264
0.0225865
0.207157
-0.151126
-0.0560316
0.00830552
-0.305647
0.257884
0.227422
-0.313873
0.0839723
-0.813442
1.02076
-0.20732
-0.0319385
-0.143852
0.319074
0.341265
-0.829687
-0.244376
-0.112043
0.24599
-0.133947
0.534963
-0.129453
-0.193969
0.214217
-0.0202477
-0.0363356
-0.104096
-1.17267
0.557625
0.93459
0.18044
-0.128557
0.247762
-0.196407
0.457824
0.821547
-0.36364
-0.201998
0.00802878
-0.0970928
-0.612828
0.226568
0.205002
-0.194283
-0.917951
0.0150457
0.0954917
0.204706
-0.0646779
-0.98627
0.64214
0.34413
0.744638
0.140542
0.182822
-0.0591208
-0.123702
0.275151
-0.258003
-0.0171478
-0.818941
0.291992
-1.02557
0.526679
-0.163641
0.193242
-0.0296015
-0.0328226
0.0608666
-0.0280439
1.03665
-0.00294816
-1.0337
0.139803
0.00776589
-0.147569
-0.133081
-0.255435
0.221227
-0.0189758
0.237352
-0.244083
0.00673116
0.38423
-0.0602286
-0.324002
-0.0256899
0.263042
0.845851
-0.651888
-0.028371
-0.13968
0.168051
-1.01659
0.203145
-0.053316
-0.0621675
-0.017997
-0.0768993
0.162377
0.0102516
-0.000250627
0.243506
0.153642
-0.397148
0.434587
0.0211876
0.434943
-0.33583
0.188471
-0.165792
0.0641679
-0.318582
0.628108
-0.03191
-0.596198
0.534958
-0.0347902
-0.500168
-0.664713
-0.322619
-0.00730215
-0.16815
0.175452
0.396519
-0.443717
0.0471979
1.11205
-0.0402319
-1.07182
-0.15568
-0.165365
0.321045
-0.493711
0.652409
-0.158698
0.532965
0.650792
-1.18376
-0.190359
0.0620596
-0.262212
0.426925
-0.164713
0.21097
0.0931032
-0.304074
-1.0229
0.517005
0.505898
-0.224255
-0.0198281
-0.843022
0.13594
0.295907
-0.183523
-0.112384
0.483355
-0.616856
0.133501
-0.0776261
-0.187888
0.18549
0.99456
0.819853
-0.134059
-0.685795
-0.844958
0.129065
0.338915
-0.542355
0.696206
-1.10747
0.411266
-0.0961905
0.276427
-0.0141123
-0.392201
0.342054
-0.159265
0.207224
-0.120569
-0.769226
0.889795
0.398421
0.546075
-0.743494
0.77343
-0.0299366
-0.0583268
0.0759218
-0.629603
-0.257704
-0.110582
0.123573
-0.0129907
0.242038
-0.30724
0.0652019
0.0338639
0.00641538
-0.0402793
-0.0753184
0.558673
-0.797561
-0.104444
0.902005
-0.724932
-0.242404
0.967336
0.476659
-0.354592
-0.122067
-0.163822
0.0190301
0.144792
-0.277548
-0.0777915
0.355339
-1.00742
0.0409721
0.966447
0.026038
0.181415
-0.207453
0.807983
-0.905639
0.0976556
-0.51666
0.695735
0.0400501
-0.735785
0.0110249
-0.121607
-0.182808
-0.457457
0.640265
0.619124
-1.04683
-0.948425
0.823069
0.125356
0.110466
-0.0153006
0.670852
-0.351779
-0.0506433
-0.251034
0.301677
-0.00809976
0.120966
-0.112866
-0.249914
0.946438
-0.696525
0.704437
-0.221514
-0.482923
1.03517
-0.979501
-0.0556714
0.797479
-0.322715
-0.474764
0.0434735
-0.218391
0.174918
-0.284289
-0.00857537
-0.925145
0.816338
0.108807
0.0558115
-0.980956
-0.323307
0.565433
-0.242126
-0.588083
-0.413186
0.179474
-0.158122
-0.0213524
-0.795508
-0.221079
-0.171225
0.112534
0.0586914
0.208612
0.00591758
-0.893388
0.855969
0.0374197
-0.187314
-0.14615
0.0423769
0.150871
-0.0110679
-0.604103
0.133809
0.122795
-0.151055
0.0282607
-0.57179
0.347854
0.223935
0.353079
-0.0161454
-0.25313
0.661535
0.0863241
0.357076
0.0690434
0.252464
-0.321508
-0.102945
0.554709
-0.604031
0.388062
0.215969
-0.22525
0.000994734
0.929789
-0.531368
0.793754
-0.409519
-0.238566
-0.164305
0.402871
0.375111
-0.815661
0.440551
0.543676
-0.610159
0.98652
-0.433203
-0.553317
-0.00352878
-0.508858
-0.0951727
-0.852658
0.963538
-0.11088
0.115822
-0.288374
1.01899
-1.06531
0.2698
0.181376
0.0907362
-0.10241
-0.159837
0.110108
-0.0029486
-0.491976
-0.520108
1.19157
-0.502025
0.204566
0.101764
-0.30633
0.0647556
0.193086
-0.666838
-0.372363
1.0392
0.21456
0.329403
-0.00366582
-0.133454
0.13712
0.820224
-0.139853
-0.0681422
0.207995
0.611203
0.0169051
-0.359602
-1.02621
0.172395
-0.201577
0.00883426
0.192743
0.566738
0.719031
0.318746
-0.0376708
-0.281076
0.980207
0.0549649
0.595807
-0.843779
0.247972
-0.831781
-0.00867316
0.840454
-0.756706
0.979915
-0.22321
0.1284
-0.0050022
-0.123397
-0.413156
1.03228
-0.18175
0.238381
-0.0566314
0.0219323
-0.765426
0.137997
-0.0329116
-0.105086
-0.943197
1.22542
-0.28222
-0.240365
0.532276
-0.291911
1.16159
-0.510783
-0.650805
-0.00408735
-0.597121
0.601208
-0.206415
-0.0140141
-0.514599
1.04756
0.519542
-0.734799
1.12766
-0.47281
-0.17495
0.146579
-0.867224
0.0354424
1.22419
-0.485646
-0.0276292
-1.22949
0.219229
-0.0221484
0.288665
0.520726
-0.809391
0.546316
-0.120724
-0.425592
0.744088
-0.975562
0.231474
-0.122125
0.00926978
0.112855
-0.194487
-0.472475
0.666962
0.34241
-0.278242
-0.433393
0.167093
0.2663
0.132434
0.285896
-0.41833
0.0760408
0.103434
-0.865759
1.01612
-0.150356
-0.0476234
-0.0388013
0.450446
0.192684
-0.64313
0.546523
0.427812
-0.974335
0.151143
0.487896
-0.0187173
0.990494
0.0033509
0.783302
-0.786653
0.00065785
-0.00650367
0.0413897
0.0460838
-0.0874736
0.789055
-0.753311
-0.0357443
0.44775
0.538771
-0.0568445
0.0469912
0.00985337
-0.285855
0.805438
-0.519583
0.0145907
0.143112
-0.157702
0.423906
-0.767585
0.343679
-0.571912
-0.417509
0.98942
0.826578
-0.146503
0.29957
0.246746
-0.444216
-0.117279
0.561495
0.282535
-0.809296
-0.274026
0.143482
0.130544
0.178457
-0.0794948
-0.0989619
-0.0402156
-0.166199
-0.0733545
0.640974
-0.56762
-0.134414
1.07875
0.771517
-0.620234
-0.151283
0.619382
-0.544361
-0.525214
0.158878
0.366337
0.0700155
-0.470608
-0.120443
0.107031
0.0134121
0.054905
0.127917
0.137045
0.73533
-0.872375
0.202678
0.181553
0.120581
-0.845513
-0.417657
0.17251
0.245147
-0.313105
-0.237764
0.550869
0.46614
-0.222634
-0.841066
0.556942
0.289858
-0.236802
-0.0530555
-0.465525
0.794363
-0.328838
-0.428299
0.434465
-0.424065
0.551103
-0.127038
-0.587579
0.867056
-0.279477
-0.0202948
0.191607
-0.171313
-0.0515327
0.0187101
-0.304497
-0.605479
0.913297
-0.307819
-0.540908
0.674275
0.498908
-0.503307
0.00439866
0.112026
-0.205666
0.0936399
-1.21509
0.856885
0.358202
-0.0376436
0.170447
-0.132804
-0.00277704
0.665007
-0.914921
0.761647
-0.386537
-0.368579
-0.523286
-0.696284
0.699634
0.501157
-0.00256836
0.379932
0.139836
-0.519768
-0.315956
0.293177
0.0227791
0.251457
-0.225128
-0.0263293
0.028833
-0.389907
0.361074
-0.205378
0.512046
-0.306668
-0.761307
-0.228112
0.989418
0.166694
-0.0546678
0.6664
0.122656
-0.814111
0.632622
0.181489
0.397401
-0.344646
-0.0527554
0.00321621
0.165115
-0.215152
0.0500374
-0.656111
-0.424224
0.453057
0.124734
0.188061
-0.144588
0.293096
-0.0510572
0.103917
-0.52709
0.0303413
0.265534
-0.123713
0.179737
-0.0560237
-0.587404
-0.45777
1.04517
-0.0636447
-0.380572
-0.511325
-0.0903419
0.601667
0.129559
0.17127
-0.300829
0.00149758
1.13039
-0.738587
-0.391801
0.167321
0.652532
0.0652716
0.394376
-0.410124
0.0157477
-0.353139
0.876594
-0.523456
-0.569888
-0.240753
0.810641
-0.439599
0.177387
-0.413069
-0.112145
0.910735
-0.432846
-0.477889
0.0155489
-0.177098
0.161549
0.385785
0.0487486
-0.434534
-0.155633
0.181671
0.281802
-0.295275
0.013473
0.285796
-0.0215884
-0.199497
-0.00679688
0.492401
0.418334
-0.425763
0.810289
-0.362931
0.992942
-0.110151
0.1257
-0.850625
0.280737
0.711456
-0.625003
-0.0951845
-0.611486
0.117775
0.213005
-0.536312
0.714012
-0.705651
0.815093
-0.0165278
-0.186598
-0.100548
-0.285516
-0.0726932
0.358209
-0.283655
-0.0302835
0.713819
0.145433
-0.859252
0.0325202
-0.244755
0.212234
0.00937415
0.279232
-0.843378
0.564146
0.869392
-0.0614087
-0.920338
0.963414
-0.0430752
0.207257
-0.120441
-1.08168
-0.133411
-0.336159
0.848245
-0.0319068
0.356022
1.12779
-0.418859
-0.70893
-0.623028
-0.0510546
0.674082
0.16736
0.515983
-0.683343
-0.68292
0.029835
-0.164354
-0.147086
0.31144
-0.464108
0.600405
0.131512
0.51241
-0.643921
-0.417837
0.352911
0.0649256
-0.943111
0.0998633
0.843248
0.266964
0.494683
-0.218691
0.54514
0.252339
-0.300637
-0.131771
0.747908
-0.879228
-0.230311
-0.379693
0.610004
-0.153712
-0.0366467
0.667126
0.0449856
-0.712112
0.648061
-1.01099
0.0177685
-0.0165831
-0.574302
0.730065
-0.155764
-0.623157
0.44035
-0.0142232
0.262371
-0.248148
-0.249167
0.00448812
0.244679
0.306411
-0.245193
-0.240584
0.579499
0.0308371
-0.194478
-0.139971
0.150996
0.228
-0.259903
-0.0433954
-0.0127326
-0.172416
0.166562
0.00585373
0.188221
-0.21235
0.0241292
-0.699238
0.511962
0.122965
-0.63429
-0.0104682
-0.255934
0.0266725
0.537249
-0.563921
0.305814
-0.325936
0.206805
-0.803754
0.596949
-0.298137
0.677828
-0.379691
0.216288
-0.921684
0.00487185
-0.0256084
-0.922816
0.492352
0.699223
-0.738823
-0.102243
-0.617506
-0.214868
-0.391424
0.168173
0.289202
0.0176581
-0.30686
1.15205
-0.585311
0.895113
-0.214364
-0.223482
-0.140107
0.363589
-1.10052
0.452436
0.648088
-0.136553
-0.0639698
-0.0204172
0.716152
0.146527
-0.086479
-0.475071
0.0967747
-0.278524
0.0848552
-0.067245
-0.0176101
-0.11086
0.824679
0.190327
0.00252163
-0.192849
0.774176
-1.28929
0.588216
0.70107
0.22846
0.187676
-0.416136
0.614151
-0.272865
-0.341286
-0.499174
0.258809
-0.470262
0.0115262
0.374259
0.886167
-0.971372
0.380975
-0.170005
-0.392857
0.675392
-0.933612
0.665496
0.268117
0.463068
-0.805194
0.342125
-0.68785
0.722061
-0.0342106
0.413677
-0.516622
0.0133227
0.230978
0.245681
0.081296
-0.680122
0.22801
-0.917926
0.454517
0.463409
0.236658
-0.859686
0.731633
-0.0458636
-0.563822
0.132551
0.158732
1.01303
-0.334452
-0.678575
-0.364849
0.252581
-0.565686
0.137385
-0.955426
0.904372
-0.7566
0.356608
0.468405
-0.827722
0.302918
0.524805
-0.850179
0.571973
0.278206
-0.25486
-0.0744346
0.081801
-0.989046
0.693797
0.295249
0.61012
-1.02328
-0.853604
-0.0121544
1.10228
-0.406072
0.313714
0.10552
-0.419234
-0.0195252
-0.123257
0.142782
-0.177496
0.482575
0.527222
-0.422675
-0.405048
0.167671
0.174738
0.222752
0.33304
-0.555791
0.348775
-0.211195
-0.0472776
-1.06729
1.11457
-0.317448
0.413224
-0.77527
-0.558191
-0.400743
0.958934
0.234351
-0.297969
-0.646453
0.197568
0.448885
0.00246044
0.00711754
-0.00957799
0.755325
-0.875894
0.0169267
-0.591228
0.450309
0.349022
-0.79933
-0.00675905
0.211325
-0.786104
0.217133
0.568972
-0.976896
0.404984
0.530815
-0.883954
0.466092
-0.696403
0.00124692
0.00121353
-0.0330893
0.961817
-0.586584
0.724907
-0.138323
0.912631
-0.000145486
-0.912486
-0.679419
-0.010038
-0.199801
0.0643146
0.662488
0.104895
0.0275354
0.390717
-0.108368
0.589587
0.485662
0.0601684
0.191289
-0.833063
-0.0603257
-0.825495
0.353734
-0.705577
0.157012
0.176418
-0.333431
0.808981
0.0516376
-0.860619
-0.0915887
0.0865865
-0.320253
-0.705315
-0.757269
-0.106853
-0.383998
1.03206
-0.320522
0.429713
-0.109191
-0.857946
0.270542
-0.26041
0.483162
-0.363039
-0.623231
-0.333487
-0.303522
0.329339
-0.452086
-0.119704
0.973841
-0.125596
0.589919
-0.257346
-0.332572
0.0806887
0.067197
0.231067
0.985311
-0.940643
0.0092384
-0.206968
0.291862
-0.471661
0.483592
-0.419889
-0.483226
0.197471
0.16157
-0.359041
-0.763772
0.0369693
-0.10777
0.728942
-0.621171
-0.0817455
-0.838593
-0.68051
0.788351
1.29391
-0.558559
-0.735351
-0.132395
0.316673
0.788862
-0.425934
-0.362929
0.239938
-0.261526
0.0481618
-0.00677202
-0.200144
0.0536603
0.146484
-0.127998
0.50793
-0.42803
1.03815
-0.0325291
-0.125593
-0.256265
-0.064263
0.320528
-0.0125992
0.767924
0.0765386
0.299253
-0.375791
-0.359073
0.533039
0.407978
0.39746
-0.319173
-0.0984845
0.480033
-0.173158
-0.306875
-0.0521172
0.0473471
0.00477017
0.116622
-0.766044
0.649422
-0.879873
0.122604
0.199717
-0.368291
0.722024
-0.00474792
0.244686
0.103151
-0.423673
-0.96591
0.483568
-0.983549
0.331557
-0.412742
0.0345805
-0.397914
-0.544626
0.94254
-0.917908
0.00577886
0.293477
-0.299255
0.931103
-0.691348
0.740948
-0.573588
0.151643
0.495141
-0.646785
0.20439
-0.368744
-0.689644
-0.182945
0.87259
-0.0754431
0.238001
-0.162558
-0.414046
0.91439
-0.500344
0.774266
-0.487686
-0.28658
0.742142
0.0218033
-0.763945
-0.528502
-0.760784
-0.300258
-0.00415002
0.338306
0.600954
-0.0135357
0.0763709
-0.0628352
-0.635935
-0.150169
0.665153
0.57303
-0.501784
0.593951
-0.0921666
-0.211827
0.143685
0.0489652
0.354418
-0.403384
0.16923
0.0210967
-0.110343
-0.878703
-0.794054
0.288307
0.00155092
-0.140673
0.233354
0.0675964
0.696856
-0.764452
-0.478823
-0.12528
0.539846
0.210627
0.0625562
-0.211625
-0.136388
0.080449
0.0559389
0.093685
-0.340558
0.246873
0.299122
0.280888
0.146749
0.773628
-0.353716
0.850916
-0.437692
-0.0960922
-0.229893
0.325985
0.711418
0.0704964
0.0316563
-0.624575
0.430088
0.40721
-0.41981
-0.503998
-0.487786
0.991784
-0.607524
-0.492999
-1.01896
1.05951
-0.0405456
0.0115062
-0.361202
0.288508
0.523428
0.2502
-0.0128191
-0.180646
0.193465
-0.300636
-0.599096
-0.100581
-0.720765
0.821346
0.417525
-0.202964
-0.205158
-0.0688686
0.553487
-0.87374
0.44218
-0.339548
-0.251712
1.02087
-0.769153
0.515742
0.478753
0.272745
-0.751497
1.04561
-0.624854
-0.42076
-0.389179
-0.674343
1.10815
-0.433806
0.262889
0.32703
-0.255815
0.251067
0.398494
0.763094
-0.185034
0.165508
0.0244773
-0.0371004
0.902447
-0.499632
0.432926
0.719123
-0.366518
0.185716
0.180802
0.212148
-0.450714
0.712788
-0.0456622
0.518619
-0.204905
-0.651439
-0.103869
0.755308
0.16431
-0.0319074
-0.132402
0.114834
0.0923227
0.128856
-0.885561
-0.253985
0.274899
0.655524
-0.572383
-0.0831409
0.14263
0.337404
-0.12725
0.0681289
0.217856
0.219226
-0.437082
-0.475059
0.954675
0.245246
-0.536319
1.11631
-0.579991
-0.273522
0.405956
-0.362678
-0.0551591
1.04963
-0.513953
-0.32415
0.294036
0.320115
0.268446
-0.278914
-0.137421
0.117127
-0.267451
-0.117242
-0.00185246
0.592256
-0.133263
0.761816
-0.628553
0.0801848
-0.0654652
-0.3306
0.0795662
-0.287012
-0.0132455
-0.850461
0.584952
0.209759
0.217166
0.00444199
-0.250992
0.24655
0.273971
0.0404605
0.787109
0.428836
-1.21595
-0.0781591
-0.0194251
0.0975842
0.0210924
-0.382856
0.845579
0.448331
0.733955
-0.666359
-1.11647
0.12239
-0.00395547
-0.157691
0.433612
0.857611
0.0231845
-0.880795
0.331925
-0.026111
-0.0317106
-0.294792
-0.0717266
-0.482079
-0.442279
0.512294
-0.0128394
0.461703
0.535576
-0.544067
0.00849014
0.158835
0.00772744
-0.0612738
0.219716
-0.0314944
0.687513
0.17307
-0.860584
-0.0197281
0.104583
-0.197315
0.119777
0.0775379
-0.306729
0.00242404
0.304305
0.327417
0.515927
-0.843343
0.208971
0.257169
0.646054
-0.0153491
-0.231751
0.577304
-0.685672
-0.0416675
0.0549405
-0.0132729
-0.9276
0.511472
0.778602
-0.624169
-0.154433
0.0113736
-0.113195
0.101821
0.774379
-0.847734
0.495591
-0.0780663
0.299595
0.441353
-0.103788
-0.0134536
-0.276442
0.0715581
0.204884
-0.552962
-0.0996219
0.998874
-0.510212
-0.488662
0.563578
-0.0730961
-0.490482
0.368333
-0.636093
0.267761
0.00282841
0.47066
-0.00915893
-0.229556
0.614872
-0.385316
-0.188366
-0.0880758
-0.274266
-0.178625
0.181146
0.671867
0.00705164
-0.678919
-0.304517
-0.160019
0.0363057
0.0518909
-0.00489977
0.485415
0.24465
-0.117645
0.151509
-0.00617877
0.0734421
-0.133904
0.132069
-0.350057
0.5017
0.0128298
0.192172
-0.0743737
-0.28991
0.697143
-0.0407192
0.576296
-0.123546
-0.0916948
-0.216883
0.434739
-0.188595
0.824227
-0.635632
-0.744461
-0.0985612
-0.48888
0.815084
-0.326203
-0.205138
0.0265137
0.273923
-0.0570493
-0.0189197
-0.204508
0.223428
-0.762249
0.248296
0.0843045
-0.103364
0.45254
-1.11938
0.319432
-0.880891
-0.23602
0.76676
-0.366828
0.448953
-0.229727
0.0126402
-0.592832
0.709454
0.000759522
-0.127583
0.13394
-0.488532
-0.080935
-0.549911
0.630846
0.161304
0.372716
1.1719
-0.767713
-0.404192
-0.193953
0.0567957
0.177756
0.0195507
-0.197306
-0.719354
0.13277
0.149476
0.0289803
-0.00586488
-0.100238
0.106103
0.375292
-0.864172
0.0757638
0.400786
0.0215306
-0.422317
-0.91065
0.722055
0.117313
0.0322971
-0.14961
0.295722
-0.901201
-0.114989
-0.00245362
0.117443
0.150244
-0.0329312
0.00132373
0.645509
-0.494366
0.53949
0.436067
-0.227096
-0.794209
0.236018
-0.60637
0.481617
0.124752
0.47182
-0.975818
-0.439018
-0.269973
0.708991
0.0762821
0.341946
-0.259549
0.214051
1.03497
-0.142576
-0.892391
-0.00249143
-0.830571
0.675734
0.0664074
0.372598
0.416265
-0.129559
-0.0038956
0.114914
-0.252898
-0.28825
0.0588285
-0.0566941
-0.00213442
0.0220801
-0.675863
0.653783
-0.0393227
0.236233
-0.19691
0.312516
-0.828814
0.516298
-0.100326
-0.4798
-0.0298516
0.0344934
0.603685
-0.293239
-0.170197
0.463436
-0.309329
-0.364293
0.383568
-0.221998
0.181995
-0.247639
0.0656442
-0.287944
0.292386
-0.790226
-0.121096
-0.0142151
0.135311
0.101698
0.273513
-0.375211
0.624959
-0.529768
-0.095191
0.0109512
-0.481644
0.146601
-1.0898
-0.424934
-0.619173
1.04411
-0.847311
0.0369854
0.810325
-1.16592
-0.703015
0.0151646
-0.228347
0.236298
-0.00795032
-1.03471
-0.310429
0.997943
0.322981
-0.169339
0.0690618
-0.285944
-0.148252
0.405421
0.121759
0.0677293
-0.323995
0.0127055
-0.0977801
0.0850746
-0.207172
0.0779417
-0.065544
0.0769176
-0.224653
0.453112
-0.895619
0.571254
0.324365
-0.288257
0.332266
0.536355
0.164025
0.000285022
-0.220091
0.207272
-0.425027
-0.221426
-0.4694
0.169835
0.299564
0.109056
0.0934286
-0.202484
-0.341686
0.435371
-0.0612828
0.62794
0.641818
-0.56528
0.490369
-0.799698
0.38393
-0.517669
0.133739
0.0793805
0.00127933
-0.269592
-0.00605784
-0.936305
0.538391
0.0900226
0.473556
0.0136013
-0.160991
0.14739
-1.32259
0.54499
-0.134829
0.089165
-0.160247
-0.0166514
-0.18288
0.199531
-0.48119
0.187951
-0.958947
0.848604
0.882786
-0.432478
-0.146597
0.131065
0.0155322
0.085214
0.160776
-0.120854
-0.96807
0.351428
0.616642
-0.111621
0.0921962
-0.0563293
0.230469
-0.17414
0.306887
0.188704
0.0746015
-0.0993145
0.024713
-0.216431
0.229261
0.0247227
0.0761139
0.503379