/*--------------------------------*- C++ -*----------------------------------*\
| =========                 |                                                 |
| \\      /  F ield         | OpenFOAM: The Open Source CFD Toolbox           |
|  \\    /   O peration     | Version:  2306                                  |
|   \\  /    A nd           | Website:  www.openfoam.com                      |
|    \\/     M anipulation  |                                                 |
\*---------------------------------------------------------------------------*/
FoamFile
{
    version     2.0;
    format      ascii;
    arch        "LSB;label=32;scalar=64";
    class       volScalarField;
    location    "9.2";
    object      p;
}
// * * * * * * * * * * * * * * * * * * * * * * * * * * * * * * * * * * * * * //

dimensions      [0 2 -2 0 0 0 0];

internalField   nonuniform List<scalar> 
13486
(
8.44272
7.29286
1.4279
-3.99183
0.788031
0.383453
-2.52368
3.72368
5.09202
4.30999
-23.2911
1.13627
8.90042
0.777473
0.0312549
4.61697
-14.0241
1.73225
1.4406
7.66448
-7.19718
8.77793
7.13991
-10.3629
4.0189
-9.23156
-15.3785
-2.3145
0.117789
-2.10039
-11.0004
0.0279425
-6.01216
-0.199869
3.7478
-0.98079
-30.4795
6.47295
-0.915218
5.20971
-2.32238
9.27912
0.974072
3.91175
3.79187
1.11812
-10.7624
0.105305
-31.6813
-2.07801
5.29485
3.12264
0.70737
6.60904
2.99935
1.22384
2.21322
2.2289
-5.63829
-8.83141
-27.9301
-9.78455
-7.6985
-7.83612
-10.1925
-24.7253
-6.16658
8.71164
5.02099
1.11422
-6.03354
2.7151
5.36569
-11.3455
-14.5597
2.25926
-15.9988
-0.117535
-10.7947
-0.377947
-0.430579
7.46026
-7.98723
1.23107
8.47199
5.83062
-10.0094
5.07938
5.99721
5.03489
0.235839
2.90058
8.01374
7.46411
5.2847
-0.00543974
-15.4298
-11.1704
5.08444
-14.2696
-0.695913
1.02145
-11.5149
2.58918
6.44428
-14.3396
5.80849
-1.40459
-11.1447
2.25855
4.66319
-1.59064
6.61179
1.90693
10.2362
5.00093
4.0822
0.0264524
5.43318
-26.0721
1.79567
-27.1127
5.64742
-0.759996
4.66272
3.2187
2.98708
2.27949
0.474403
-5.53586
3.47186
-10.2936
-11.0442
-11.0156
5.47016
5.38133
11.2009
2.48431
-22.5051
3.9212
-4.32943
0.710211
0.792732
-0.290685
1.61775
-11.7999
-1.84005
9.10648
-2.37473
0.0801384
3.91843
-0.393949
-0.351355
7.62508
2.62145
1.43515
1.31857
-14.8052
5.67233
-1.43401
-1.27235
5.66379
-0.398469
9.20794
2.88482
-0.109909
1.41246
12.0493
-1.66968
-10.994
-12.5045
2.65972
4.51335
1.84604
-0.463883
-30.8153
0.583425
-5.10878
5.79723
0.860546
4.67369
1.87323
1.30773
-19.3614
0.949833
-2.27075
0.0264499
-1.49019
-1.91305
5.36638
-29.9112
1.87158
1.5322
8.51417
1.60328
-22.4454
-6.50173
-1.45914
7.35932
0.107707
-10.1255
2.20554
6.47992
-0.0261281
-1.42176
1.76126
-0.826625
6.02695
1.60967
0.997501
-1.85073
-7.67248
7.56796
5.81868
0.395839
-0.573333
-2.2142
5.05679
7.49498
-4.82579
-14.049
-2.46939
4.10346
-1.47245
0.367122
8.13208
-0.442155
-12.8741
0.293735
-12.1266
4.60049
-4.75257
-4.59051
9.5149
-10.2649
7.70817
-0.728462
1.86076
7.80263
1.64322
-6.30459
4.43107
1.85552
7.28984
-6.23645
6.62876
1.8664
-5.14785
-11.1539
4.22476
-20.9526
10.3797
4.70609
-1.2088
0.41668
-35.065
0.137614
-0.490945
-13.1423
-6.22844
6.60054
-6.63917
0.0374679
-33.5882
1.39749
-19.5746
0.342625
-10.9184
5.14103
0.204381
7.00821
5.73565
-2.4047
0.889111
8.14687
-4.54663
0.536088
3.03046
-1.05639
-1.54122
2.62459
3.91038
5.89279
-17.533
-26.5017
-15.1949
-3.84488
0.340354
0.369065
5.21755
-9.48768
-10.6009
5.24276
5.50681
-0.534183
-1.10496
-1.35679
0.910768
5.95778
-2.23349
-0.299042
0.615575
-1.47995
0.0810718
-30.0084
0.0671343
-5.06827
2.00706
-11.342
-29.9572
-9.58325
-2.91892
1.39768
-1.30737
-24.2353
5.51132
-10.4545
6.03444
6.09123
0.124994
-27.1475
-9.17096
5.75791
7.54464
10.9681
0.227583
2.28457
3.76837
0.771185
1.84748
5.11427
2.54588
0.190726
8.40462
-2.57338
4.89648
10.5252
-0.143065
4.18461
-8.69252
0.316277
7.4986
1.60213
1.31314
-23.6133
0.0655037
2.76778
10.0969
-4.92602
-11.1591
2.73864
0.79278
0.893392
-15.5929
5.91373
-4.76906
-11.3812
2.88697
-12.4908
-6.90884
1.46423
0.438285
6.58743
5.7565
-2.29518
-0.105745
-0.90802
-10.2504
7.74008
2.97389
0.873048
2.87801
0.307219
-23.2105
0.720436
5.38372
5.80526
-10.5958
-23.337
-7.57529
4.97
2.4782
9.047
7.24979
-10.5024
0.63456
1.42801
4.09485
-12.4659
-15.3437
7.41841
-2.78407
3.2695
7.9093
8.82885
-15.4228
-4.68964
-22.3193
-12.8654
-4.21322
-12.562
3.56653
4.43196
-6.30126
-2.10936
-3.47963
7.35036
-5.00146
3.15321
6.92904
3.98338
-0.251331
-3.10102
5.98394
5.771
8.3488
-19.801
1.52969
-12.3481
1.69132
5.80434
-9.40848
10.1497
4.33954
-0.896959
-1.27575
2.21835
5.90677
-15.3316
1.75168
8.68758
4.48132
3.21982
0.295088
0.563018
-5.50788
9.05779
-10.7589
2.05403
8.57064
-12.2592
-2.43348
-11.0482
-3.2521
-27.3604
6.39623
7.98316
8.76566
-7.81957
-29.3006
-24.2192
4.25572
6.14496
-2.04161
-2.14109
5.73054
-18.7117
-32.0115
-19.6365
-11.6113
1.71573
6.92577
-0.554136
1.79901
-4.47639
5.79531
0.119338
11.32
8.08546
5.30065
3.43941
-1.46534
-0.0279385
10.438
1.88007
-19.4511
-0.842386
4.95722
-15.1784
0.848887
4.58894
-6.38361
-0.663441
7.10302
-4.69109
-13.2231
4.2857
-14.3179
12.0138
4.35132
5.3469
6.22223
-31.5925
1.01899
9.95198
0.936756
7.53669
-1.84151
2.51214
-10.684
-0.322019
1.06313
-14.6638
6.24709
4.8548
-21.7724
0.073851
0.204139
8.86633
6.40031
0.727751
4.99044
3.18788
-0.498126
1.43029
5.39722
-12.3247
8.91328
-9.27625
1.44357
9.23425
2.56093
-1.15059
2.83994
-10.3876
-16.94
1.64427
2.02155
5.7632
8.02
-17.2276
0.487217
-17.0874
0.0256282
7.71745
2.52827
-19.9508
-12.7927
-8.86969
-11.8086
3.50764
-9.30068
-1.98858
5.00058
8.28374
-0.191065
6.50286
-11.0461
-24.5698
-2.7679
3.12874
-23.9157
5.95722
1.08466
-29.5626
3.9105
6.25164
-6.54968
-17.7012
5.36154
7.76537
2.94316
8.54372
1.06396
4.45596
2.2967
6.20107
1.56058
7.5055
-15.501
3.40944
4.63095
0.787898
-4.19854
5.71427
-12.224
0.933113
7.75506
8.73849
-4.05039
-11.2289
2.73712
0.491313
4.57693
5.17934
-0.548327
-17.2781
1.18577
8.32939
1.91603
1.91717
-22.1782
8.81424
-1.39197
1.91352
5.66621
3.2677
-0.278318
3.01425
3.80809
0.736493
-8.74584
3.03942
-3.20345
8.51489
4.85047
2.99892
3.15247
-1.33768
-3.77586
9.79594
2.64692
9.8033
-12.1165
5.3133
-1.32559
-11.4144
1.81067
4.19863
10.3527
-22.4152
2.22638
2.06705
-5.43511
4.09707
1.03029
0.0425037
4.92325
-17.9015
-3.80601
-6.00909
1.48837
-0.164634
6.15638
-0.54891
9.42126
5.10207
-2.74471
-23.8344
-1.77377
2.75197
-25.2497
0.952203
-14.5997
7.63997
-0.0874416
2.28734
-34.1764
9.05605
0.121983
-0.0707461
9.20072
5.35242
-21.7455
-0.482201
3.03423
1.53829
4.58616
1.78269
-6.8116
3.0028
4.64178
2.5927
3.90815
9.36567
1.87217
-23.438
5.7107
-8.41574
0.142259
2.57777
4.74793
3.43306
-19.9313
1.08333
-9.32826
0.717803
7.70072
2.65084
0.68765
1.16674
-2.99775
1.84518
6.36164
0.770342
4.45029
4.77942
8.32298
1.38254
-0.904347
9.72523
0.749397
-18.2085
5.62481
-5.25836
6.67127
1.55563
5.66242
-6.23222
-11.2115
-9.50891
-0.388967
-13.5703
3.91438
10.0727
-0.911987
-11.6232
-0.683643
6.51195
0.439197
3.35296
-33.1764
10.1303
-20.2973
2.22026
-2.29389
4.14511
6.04371
4.00051
-6.98825
-8.87228
9.08174
5.80989
0.288463
4.59888
-3.51048
3.42668
3.4212
4.0377
-10.283
0.894913
7.24325
-2.60721
0.0068907
3.67472
-17.0936
-0.856209
2.83799
5.93738
6.43584
-17.0413
0.932251
-20.6431
-7.83425
0.779347
-0.172338
0.385186
5.64846
1.26636
-2.28963
6.13225
-13.6974
-2.88447
2.29398
-1.17328
-16.5389
-8.25184
-7.64045
-37.8537
4.56091
8.87237
-18.4242
-2.81944
9.22852
8.56233
-3.84947
-6.1094
5.14874
-11.3615
1.76583
0.939422
1.50126
1.53306
-13.3631
3.34857
4.48105
-0.91052
1.80057
-7.68964
0.504726
3.96264
4.2229
2.77901
-19.3468
5.93117
8.38357
-13.1897
-36.4182
5.75157
-0.334983
2.93411
-1.78854
-1.83488
-20.1207
0.644288
5.88692
9.81753
5.96455
-1.38672
0.707213
5.77426
8.16025
2.60976
5.40067
5.55339
8.90018
-2.22538
-6.68677
1.84043
1.10333
8.79562
0.896576
3.42454
2.89787
0.778757
1.16698
0.693103
-3.82267
5.76903
6.16801
4.55535
3.61688
-7.69716
-0.158247
0.0128478
1.55402
-3.53385
0.742132
1.63014
-40.976
-30.4822
3.78445
-1.78222
-11.1039
-7.86067
-1.4823
2.97652
-20.1213
-30.7346
6.26764
-10.8532
8.79042
-12.1662
-11.2114
6.18541
7.7628
-11.8063
1.60494
-1.4212
6.17132
1.51262
-6.6315
-0.429573
-32.4358
2.01115
5.67667
2.20139
4.05613
-9.11176
4.98371
-15.3524
1.72392
-4.48576
6.54684
-3.3009
-24.7683
-22.3175
8.68795
0.481658
-24.049
-21.4401
5.5363
-23.5825
-9.66707
1.17569
0.893839
-1.64677
2.58648
-8.82337
5.7527
5.70788
6.08438
3.41641
4.03073
-1.14358
4.89603
0.218471
6.33072
5.06374
-0.210601
-1.51423
0.425904
0.821614
-28.5286
6.56182
3.09956
-7.58181
5.7964
2.077
3.53158
10.2123
0.693704
-4.80564
4.51832
-5.02221
1.4387
0.326557
-5.78841
5.50298
1.89708
0.800094
1.52118
0.700709
6.86366
-21.3773
-0.180366
5.81405
-4.55949
8.51871
6.69219
7.32585
1.28329
4.79097
0.917693
1.62605
3.03916
5.0179
-6.40454
0.681758
-7.51763
-2.74709
-33.1689
5.3811
-10.6055
-8.24863
-39.0954
-7.86502
-6.08594
5.9391
-2.96301
0.132747
-10.4582
5.78806
10.0009
-3.86127
-24.5634
4.05058
-12.7717
5.37156
-2.60361
-4.70997
6.43237
3.89814
9.38958
2.98873
5.74827
-1.61714
7.22241
1.77126
6.75067
-11.5618
-6.60129
0.695788
-23.7868
2.82993
-3.88542
-4.1489
8.74332
5.77863
6.52753
7.8859
6.6003
6.54648
-0.0128031
5.23959
5.81318
5.86744
0.972007
-0.448107
-2.431
-1.01099
0.480625
5.74817
-11.2866
10.1088
-2.39271
1.8603
9.79539
8.0922
0.726225
-14.9458
5.20724
3.83536
-3.56628
4.53763
-11.3158
-0.701938
5.73947
7.62654
-3.55384
5.63057
7.15392
-0.182175
-1.18286
7.3215
1.6696
-31.3807
-18.4205
1.25613
-3.68129
5.71948
5.94608
-13.0573
-8.65815
-3.11718
0.304374
5.45438
1.17743
8.51999
3.46557
11.0233
5.43595
1.42822
6.18162
-22.4264
-11.2011
-22.0841
5.52868
-2.68006
-9.90484
-9.51806
3.56928
4.29968
-9.0503
2.6899
-10.5554
1.10907
-0.232511
-10.3585
3.65551
0.979824
7.06623
5.91834
6.35697
4.85659
0.703115
-4.94455
-3.23227
1.11649
-5.88719
2.78346
3.53152
-8.88962
1.83149
-10.0767
0.0205525
-34.7556
3.08106
3.86746
-0.435511
-3.50699
1.55526
-2.28456
-5.63996
0.751753
-4.48863
5.62689
4.74866
6.87749
-11.1047
5.43484
1.6553
7.85618
1.79661
3.78541
0.596024
0.514418
9.25139
10.2254
4.02565
1.38862
4.54183
4.37585
9.35195
2.50534
-5.27322
-32.9522
1.00022
-1.39983
-7.41314
5.76836
5.26939
-2.14386
-1.13055
3.67677
4.5948
10.2901
-12.1256
5.05586
-12.8688
3.51351
8.35944
1.81799
3.75252
-1.6605
5.10036
1.59572
10.8279
-22.9266
-2.46377
3.62692
0.808866
-23.628
-11.2437
1.43727
6.58619
-8.56264
1.38061
8.56366
7.89708
1.76974
-6.50922
-28.1125
2.23211
6.09882
5.06802
7.64121
2.72487
-21.645
8.07256
4.22327
-5.95518
3.17678
6.15945
6.74139
-24.1434
-4.35346
0.045055
5.2556
9.03833
2.21422
0.213549
-3.71671
10.3551
-15.2287
-4.15303
9.5111
5.338
-1.59729
3.56552
-5.70557
1.41961
-2.15965
-16.1372
-7.31188
-24.9547
1.30877
-1.1036
-11.7275
-13.6769
-8.1314
-10.1091
-12.7159
-21.2957
7.20097
5.6856
1.21331
-10.6658
0.0617634
2.14821
0.580935
10.9619
2.27728
-2.72537
5.34531
-1.64236
-26.6595
3.54559
3.5111
5.26379
11.1666
0.19134
1.85135
-11.1372
0.920875
2.50658
4.71204
-0.694624
8.21717
5.0444
6.10088
-10.2626
-0.478136
1.84386
5.17546
5.78416
5.37464
5.89781
10.2435
9.79865
-1.66306
5.3678
7.24959
-2.60217
7.58608
2.50235
9.67439
7.5065
1.30415
6.66414
3.70893
3.14247
1.46897
6.20422
-4.63519
4.1685
-0.317397
2.41469
0.360687
5.42805
5.26021
0.545135
9.28654
9.2646
2.46344
-11.1008
1.28873
-3.15286
1.50151
5.36091
8.16932
-11.1512
5.89162
4.62677
1.78606
5.13773
-31.0628
-0.981099
-11.2109
10.6443
-1.08541
-23.6513
6.96289
0.344305
2.28254
3.57298
0.972091
4.91167
0.0990339
-1.64354
2.58865
3.41478
2.20578
2.98471
9.93574
8.01723
6.59279
9.37282
9.03908
0.954569
2.99177
1.79402
-2.8958
9.19942
-7.93026
5.13321
4.19994
-23.6739
1.1973
6.06069
-14.4626
1.86628
4.72226
11.2997
-15.6865
1.64251
-2.19696
5.89728
1.40327
-10.96
8.97767
7.41613
4.71409
5.51567
-2.31262
0.664014
-14.4748
9.77882
-3.82804
10.7401
-4.7846
0.334158
-11.7279
1.2787
-11.3338
0.31304
-0.258603
2.91917
-8.04103
2.82541
-12.2377
-0.14375
0.32954
-11.0859
-2.0665
-6.87007
-9.98362
2.69372
-1.89376
-27.5291
5.03634
5.1826
8.21875
5.72091
1.1871
1.57036
12.2154
4.97154
-15.4037
-0.59312
0.667889
4.96502
4.23871
8.23674
-3.5632
-3.61732
3.4996
-0.169261
1.29812
7.47484
-11.1381
-24.3291
-13.9873
9.90349
-10.5724
3.00763
7.02426
-5.541
3.44493
4.61116
-16.9685
-16.1846
-0.878867
4.49857
6.2552
6.89415
-7.23336
-11.2357
2.24509
-11.2738
-2.48686
0.652817
0.362829
-2.24141
-11.1623
-13.24
-15.8437
-8.98342
8.6117
-7.55671
9.6359
-24.9065
0.157789
0.694284
-0.402005
7.80609
4.69269
7.26847
-6.42747
-2.12114
-18.4319
7.43929
-11.0448
4.71329
-7.87615
7.61248
7.87451
-6.47766
5.54457
9.14741
5.60146
5.90107
-7.07798
-10.3787
1.20542
-4.7977
-1.32066
1.92301
2.69643
1.35383
-20.3541
1.1528
0.769364
3.92986
2.9166
-2.02925
9.64418
1.0207
0.0452723
0.787345
5.69335
-5.33225
0.215895
5.6083
-1.15508
1.52869
-0.0206894
5.23683
5.7064
5.55144
-11.8016
5.71144
6.67648
5.89298
-1.46575
1.89336
2.46065
4.0374
-3.57577
-11.9844
-21.8149
-4.79806
-6.32317
-0.511903
-0.20229
1.95476
-11.4151
-2.45275
-36.3893
0.550756
-2.71238
3.04089
-19.3052
6.13115
12.1718
3.06423
0.370866
3.50674
1.89185
1.28201
0.667158
-2.21328
-38.0129
0.997352
7.17595
0.170427
8.93315
0.58871
5.52886
3.56984
1.41141
-11.8552
1.57046
10.4402
-1.0426
5.74997
5.661
8.19224
0.94052
7.37642
5.38115
-11.6722
5.8871
-15.5223
-15.2758
7.56092
5.34184
-6.34283
2.10436
7.34595
-2.67333
-16.498
1.89825
1.62438
5.23407
3.76801
6.11853
4.42596
4.11959
-7.48476
-2.30228
-1.37996
6.04058
10.7133
-2.83105
-13.2249
-11.7867
4.8525
1.09735
1.0818
0.351381
-3.14729
3.30188
-6.74318
-0.910138
10.0936
3.27659
1.9871
-11.2616
-14.4954
-5.89684
-13.0523
-8.50589
-25.4482
7.11769
3.76656
-3.00444
9.74692
-0.560291
-19.6551
-0.402787
-15.3373
5.55231
-10.0448
2.83871
4.9206
-18.7142
-1.47637
2.75627
-15.4559
-11.3106
6.50614
-34.7844
1.03065
-14.2152
5.67091
5.91416
-11.4683
6.99483
6.23521
8.52482
8.91563
5.6799
0.929019
10.7085
-13.9493
4.72367
-2.67563
-33.9425
7.29973
-18.8607
8.94401
3.5273
-4.26745
-11.1964
-9.48305
6.31787
-21.9978
-3.56763
-1.08934
-1.11923
2.18878
4.22486
2.05005
2.90515
9.89431
-11.1174
-8.71295
1.50948
5.12596
5.11664
-5.95547
12.009
1.69157
0.50499
4.82203
-3.5558
5.62309
5.18408
6.06195
5.9979
1.61067
1.34885
4.82359
1.21227
-6.72197
-2.72572
5.45747
6.15998
7.54852
-3.77347
1.42901
1.01181
4.13669
0.439597
-25.7948
5.27343
-0.934638
5.29936
6.02495
-13.876
8.87676
-13.6529
10.302
5.88231
-38.0767
0.204919
-21.7997
4.18921
6.24806
-39.4606
7.42518
5.77432
1.05872
1.42342
1.21985
0.467376
1.11185
-13.9141
2.09954
-10.2718
5.71163
-12.5578
-6.10139
-1.34124
7.11786
7.88479
4.69741
-12.3957
3.62095
0.843542
1.05426
3.86481
-7.61544
-7.20506
9.588
-1.03487
2.62125
-4.38674
-15.9123
-4.37281
5.83028
-13.8745
-0.012342
6.24718
2.29343
6.02679
-19.4232
1.6798
9.91489
-7.34117
5.98838
0.503579
-5.0532
2.87271
1.23352
1.21407
10.0644
6.00117
-3.90733
10.0564
7.0635
7.20321
-11.3375
-12.2271
2.06974
-4.57446
-5.44822
-9.79022
-3.6873
-9.01332
3.46352
1.55659
1.88996
2.4473
-5.72568
3.02416
6.24888
-17.4903
5.15585
4.2466
5.73673
0.695301
-6.9179
-11.8962
-13.0557
-17.5296
-0.435832
6.22114
-35.2758
8.54402
-22.8097
5.63498
1.90783
-9.53658
-3.05303
5.39351
3.65343
2.30221
4.25553
2.42127
1.88097
8.01586
7.45301
-6.59742
-14.5885
-6.12537
5.4821
1.31788
0.379868
-7.15533
1.18487
2.31649
-26.6464
4.15295
3.68105
0.409113
3.64609
1.17251
1.23471
-39.7919
7.37759
-13.1498
5.42473
0.0778028
5.29564
5.63891
3.98326
4.47413
-6.77448
-12.808
-9.52396
-12.3418
-20.2976
-11.5891
-0.751235
-4.31083
5.14598
0.883947
5.67732
-18.7032
-2.87569
-5.99312
1.826
5.51696
-16.2139
4.9383
1.21957
-35.4945
-4.48086
-14.8136
3.07184
5.92717
-1.35813
0.985442
-11.1777
6.06722
-21.5837
0.39667
-23.5683
6.93381
1.91086
-2.02595
5.93934
5.24189
6.53071
4.39754
7.62102
-7.72956
-0.259864
2.45516
4.58613
4.2743
1.26378
-3.01511
-18.6832
-30.6272
1.46396
1.66463
-36.0056
9.89753
-7.77602
6.30578
3.11016
-3.81449
4.60206
-2.31515
-0.622359
1.74541
0.843217
5.68295
-8.27225
5.78718
-6.17967
0.119666
-8.71579
-1.51895
-20.7742
6.59044
9.87791
6.12721
1.51244
-1.71805
4.80406
-15.3156
-21.9662
-21.0947
1.4508
-8.41943
-38.1898
-23.3806
-2.78456
4.18717
4.7331
-8.97803
1.307
6.48653
-2.13675
-5.79297
6.30878
3.02161
-24.777
1.35495
-0.046414
0.196794
9.80808
-25.1932
4.6228
-3.45446
-2.0694
-2.03659
4.82031
-1.1023
3.67559
-2.21129
-3.36379
-1.10161
-3.52054
6.74754
4.22613
2.06101
3.36831
-0.440804
10.2432
-5.23148
5.96626
6.59063
1.67317
4.09361
1.74914
-11.7938
3.13335
5.40443
4.24896
4.89416
-24.8783
6.3597
1.79342
8.31331
-3.50339
5.49109
7.12898
5.24964
0.744227
-21.2092
2.76739
-15.4328
3.83147
3.50227
6.51082
1.57798
8.49728
0.943733
9.12155
-1.10449
6.72188
0.527784
3.30048
-17.6242
5.62939
1.60317
3.47188
9.43002
5.85052
0.915754
-2.04922
2.30105
5.56092
2.58313
-13.0318
3.15813
-9.25518
7.22545
-11.7752
8.64826
2.43829
12.3758
9.02855
2.86895
2.15281
-19.3254
1.42893
9.46337
-1.06901
0.878945
1.01634
10.4511
3.88317
3.95766
9.6038
-2.25517
5.95355
0.13569
6.25943
2.31166
5.75433
5.32379
7.54837
4.58195
-9.89793
1.37567
-15.6333
1.40439
-2.07379
-23.7415
7.97145
8.14497
0.954963
-0.51649
0.811687
7.00779
3.88802
4.40779
4.19014
2.40215
-11.771
-8.5428
5.99041
-6.16811
-3.90688
3.61352
2.72321
1.81463
-2.19993
10.2071
-6.59557
8.54484
-0.852322
9.7769
-2.24042
-0.831005
-8.75897
1.81101
4.05286
5.71349
-0.598564
-0.534483
-0.813781
-7.61941
7.99405
-0.165308
1.16002
-5.77787
3.15239
-0.431943
6.45757
0.591198
-1.91995
-5.13571
5.78627
10.7526
-16.4225
-1.42032
4.70283
-18.3367
3.61382
-9.38181
2.74428
1.96812
-10.5083
2.12714
-1.59166
0.0201281
-4.23004
-10.1168
-18.4428
1.41714
4.89032
5.71042
5.29543
10.3491
-27.0322
10.2744
-11.013
9.50204
-40.9356
-2.7628
9.96206
3.29592
-6.39608
4.86786
4.76314
5.52463
-7.5849
-14.1717
0.97651
-2.71235
-4.12863
-0.47988
0.408482
3.15582
6.57673
-41.3547
3.33324
-6.08755
0.353318
-5.24024
1.6863
-0.795714
-10.7708
-4.88498
8.52153
4.04135
8.98314
1.54383
-15.967
3.07808
-2.5755
-8.24738
5.23712
6.82568
10.71
4.86967
5.51416
0.556859
-11.0704
10.372
10.8125
6.3754
-1.83467
-23.5868
-15.4548
4.4752
2.32295
0.644752
6.07833
-8.69761
0.148935
-18.275
9.30701
0.335366
1.72586
-12.128
4.64088
4.38048
11.8224
11.048
4.33902
2.59779
-1.51892
-8.83075
3.64319
11.3254
-16.357
-10.0815
2.93013
0.249148
0.935563
0.308495
-0.316433
1.24771
0.473243
1.83554
-8.84973
2.81489
7.72303
-0.674252
5.68481
-13.9874
-0.6428
9.58576
-13.8876
-1.18428
-1.24489
3.41679
2.90366
-12.344
-1.69551
-0.680112
0.464196
12.0198
-11.8749
-9.09723
-17.3098
-1.23242
-13.0046
-1.25061
-9.2613
-8.8224
-1.91312
-7.65337
-2.30881
-4.53697
2.8028
0.0424145
1.58028
11.6636
1.79069
1.32825
0.0730084
2.16108
-11.0707
-0.618741
8.15562
5.55741
1.39883
3.79781
5.01307
5.83454
-20.6547
-36.2903
-26.427
8.16821
-2.36667
5.51213
1.30819
8.61347
0.500671
-15.7901
0.123359
6.13736
-1.96751
5.45831
-2.2846
11.034
-9.25254
-0.12394
-21.0201
3.88813
-13.796
-3.15926
-10.7867
0.921483
0.528452
-28.3043
-6.10214
2.86287
0.472969
-6.34625
-2.41119
3.68681
-14.9628
4.0284
-12.4177
6.18446
10.2103
4.44348
-11.2558
4.96592
0.960141
-0.854433
2.69525
-0.818885
-14.9004
-14.0246
-1.88125
0.457139
1.21634
-0.700474
-4.72037
-17.7114
2.12549
5.77798
-1.18474
-14.099
-0.465449
-14.0334
3.80555
2.03882
-6.38846
-15.5154
6.31988
-17.101
1.56492
-4.88814
-18.9121
-19.5135
-27.6097
12.1087
0.225972
-3.47189
3.58171
9.81592
9.60634
-17.6721
0.12128
5.73117
0.31191
-13.309
10.0033
2.18624
3.99977
12.1429
0.0393389
-0.864885
1.90958
8.62788
5.97119
5.11985
7.80152
4.61117
1.5898
1.89192
3.48802
1.03879
-12.6926
9.9433
1.177
-0.835166
-6.84087
-5.48561
1.45047
-12.7102
-0.400451
0.863239
5.27368
6.28245
5.89247
-15.2904
8.69006
9.634
-9.662
2.59651
-0.135675
-0.25316
-1.4386
4.1549
-3.82616
-2.18933
1.7527
10.7793
-15.5252
6.03728
5.53791
7.15394
3.03656
3.62891
3.03535
1.37236
1.69849
1.95204
-14.0197
-5.86616
1.46527
-7.51411
6.69864
-26.5657
-9.81104
2.36819
-11.0288
-14.1206
-13.7138
4.40981
0.256428
-15.7335
3.36818
-20.8654
0.711469
-9.03011
-0.216482
6.00638
-17.2881
10.1554
-6.80137
10.9777
-0.326601
-19.381
1.1462
5.33671
3.92696
-7.60321
0.910658
0.506187
1.04339
2.75199
12.282
7.19629
-0.491096
-2.11392
1.35348
2.62794
5.8933
3.90789
4.19919
-9.95188
-11.1763
-10.4263
-0.124097
1.51587
-10.8609
4.35342
2.61234
9.43998
10.5081
-13.2316
-14.9339
-0.486447
-3.15565
9.85335
-8.73934
-0.0867984
3.3155
4.67706
-8.25084
-20.3176
0.414619
4.79625
4.25407
-6.81298
-0.866151
-3.4597
-2.33016
-6.81185
0.025865
-6.89121
-6.31164
5.66502
-19.7536
-14.3957
-0.864974
0.719016
10.9814
2.94087
5.56415
-1.6521
1.63552
0.886909
0.462841
2.71234
-9.70427
-11.9396
9.81224
5.89805
1.11556
-11.662
11.4847
-14.2692
-12.1561
-9.33351
1.00683
-15.0082
-9.87205
8.48832
0.859712
4.37531
3.16971
-5.86747
-9.63762
-16.07
2.0274
-7.40508
1.25047
2.90166
4.98438
-15.9437
-12.6025
-6.2895
-1.96189
-3.81314
-3.51419
10.8291
4.43154
-37.0029
0.703445
2.41231
9.17573
1.68722
-11.6997
1.99365
7.26555
5.48756
-2.9048
5.46298
1.24971
9.72158
1.39174
6.10803
-20.7833
-2.37469
-13.4044
-10.7089
1.76325
2.91648
-11.7859
-17.1916
6.24531
-9.8407
0.709374
7.87055
4.95621
7.6555
5.52092
-3.59291
0.741051
1.35982
4.89056
0.0320895
6.61904
3.2215
9.68174
-8.09076
7.43414
1.04039
10.0863
-4.7139
-2.07783
10.1027
-9.68827
3.10687
-15.737
8.38873
9.805
6.09243
-5.61513
5.72756
7.01905
-5.67353
3.67771
-14.4493
7.62171
-11.2987
-11.1781
-14.9485
-14.8922
6.89299
0.89582
-13.3978
1.77413
9.74662
-0.568704
0.73008
-14.6847
-3.0692
3.65817
-0.0504948
5.60353
4.60856
-12.0477
11.1285
4.03979
8.39629
7.78761
0.614557
-5.20532
4.10095
-5.69932
-0.330273
4.02242
3.15226
-0.438938
4.6086
-6.85386
9.69731
6.40238
0.832952
-3.46909
5.6614
-6.4152
4.44203
7.17856
1.26082
-2.98517
6.93726
5.48658
-2.43786
-11.0783
3.12007
5.80621
9.71977
-11.6006
10.3254
10.9969
10.5742
3.61093
6.77084
-22.985
5.75207
7.31345
7.46056
5.75801
8.1671
11.7815
5.41518
-11.701
-2.67751
-11.8632
11.6738
1.98203
-1.59698
-13.1513
6.00845
8.75277
5.01633
0.505685
1.14083
8.45454
-8.68062
5.39154
-14.3924
3.40736
0.716219
-0.522541
2.63999
-22.3646
-24.2378
-4.03753
-1.71973
2.04243
6.62181
0.398283
0.768168
4.60022
-16.3285
1.97068
-15.5181
-15.242
-18.5671
-11.7905
7.76699
8.64289
-12.9782
5.06022
7.22065
7.68633
0.966463
-36.5075
5.66977
-12.3827
7.79053
-13.9827
7.58283
4.51718
1.90879
7.16125
2.85872
7.14989
0.740052
3.50157
-1.87016
-11.2031
-17.5779
-2.46236
6.99537
-32.9279
-10.2792
-27.7359
8.87944
7.03473
3.23307
3.05056
8.24745
-6.21174
4.67446
-3.53183
-2.21172
4.67742
-16.0162
-15.43
-3.23189
-13.2673
-0.227391
-39.483
-4.14136
-14.9261
-11.1954
3.72777
9.94819
10.9359
9.32841
-37.4745
5.46313
-22.0721
4.57866
8.53886
2.07678
6.88704
-23.2005
0.834249
-2.23393
0.804596
7.59818
-1.65668
5.88397
-15.3891
-0.0156963
-13.4926
6.46758
5.85992
5.73752
-16.6409
4.67124
-6.7407
-13.8925
-14.1715
0.48047
9.88086
-7.25489
-1.51432
-15.9054
5.26163
5.6345
4.09792
4.2126
-16.194
8.38983
8.46209
-9.58564
0.182848
8.00332
-15.8947
-29.4679
1.21653
7.35847
8.27232
-20.2014
2.73331
0.905009
9.78693
-12.5185
-11.8053
0.720226
8.99022
1.15532
-1.85444
-4.99931
7.46314
4.97004
7.44642
0.552116
-6.68048
5.7789
11.5059
-11.4207
4.14963
1.00523
-10.6226
1.10658
1.04112
-15.5789
2.62043
-4.21444
4.36403
-7.244
-4.79262
6.75473
8.26839
4.65384
-5.32016
-9.82433
5.99513
-15.5918
-0.167852
-2.15934
1.64833
-14.5523
6.64194
6.02708
0.963198
5.51335
9.51163
0.126499
3.52443
6.34885
-14.1797
4.33181
-0.962631
1.51592
-0.21004
5.01527
0.176309
0.825731
1.07777
-6.13435
7.66039
0.11771
-0.785583
-17.2456
-0.262251
5.87212
-16.8009
10.5137
-15.7046
-12.6142
-4.64357
7.26371
5.81095
7.24654
-10.9207
9.07567
-26.4277
3.33574
0.147094
-13.0338
5.59933
1.53572
0.629097
2.62907
-12.14
5.02541
-13.6294
-17.7976
-0.333583
-12.2663
-13.1433
4.13207
9.41429
-16.4341
-23.1479
6.94785
-8.04835
8.38719
0.674957
1.33177
4.76953
5.90944
1.82752
-6.62416
-7.85989
1.03083
2.60677
3.22492
-14.6765
-16.779
2.31174
1.74563
1.63043
11.8309
5.45122
5.69973
8.44782
2.19519
6.4135
-18.6688
-9.46235
-24.5416
5.74378
11.4695
4.6262
-2.32227
7.6753
4.44533
4.54567
-21.1268
1.0089
2.09344
10.5508
-10.7757
-4.57083
9.24264
7.87682
5.25182
5.07742
6.59399
2.99297
-4.05572
-35.2068
5.69171
-11.3976
-10.9066
5.53684
-29.5634
-3.60248
-0.490696
5.4859
5.76684
5.90057
1.08817
7.23839
7.44678
-0.984152
6.30357
5.31927
6.63209
5.44248
2.4468
1.68839
4.10464
7.14147
6.21458
1.36062
4.24451
1.00004
-13.7512
9.32304
6.57367
0.385698
-26.0056
0.245265
6.78423
2.73577
3.0601
-0.26453
0.968439
-4.28917
1.06622
-19.4922
0.178001
2.90764
1.12632
-16.5247
-16.7134
8.65211
-14.8834
-11.0637
-23.3756
9.47764
0.728349
0.504891
2.41198
-14.9741
5.5423
5.5705
2.15004
8.08029
3.73291
1.22803
-11.5738
-25.8107
0.810362
6.96293
1.13928
-20.6609
-11.7557
-2.49097
-11.6222
-21.3603
-8.3406
1.22869
3.05548
5.70857
6.9753
-1.04479
-0.835347
8.11871
6.0293
-20.0171
1.30379
-11.7678
2.09999
0.201961
2.19844
5.20671
-8.6477
0.191971
-1.72094
2.70469
-29.7903
-11.714
1.014
-33.3343
-12.8575
-14.456
-26.331
1.1485
-10.5739
1.75237
-18.5683
5.82003
5.37206
-1.06116
7.37218
-38.8485
9.42465
-3.68593
1.44874
-2.88645
5.10303
2.47158
-11.0529
-10.188
5.9836
7.16657
9.82064
-25.7186
-12.5068
-40.9387
1.77977
0.298267
-15.683
-0.247056
-15.1635
2.39196
-22.0253
3.13684
-4.01394
3.23227
8.54593
4.18938
-0.90369
0.834151
-4.83663
-11.7368
7.93481
10.9425
-11.4709
6.45329
4.87849
-0.0660901
-6.77928
7.15738
7.1189
-8.68411
1.74311
-26.992
-41.8591
-2.50628
-15.5574
-1.88393
4.77553
1.77439
6.48526
-19.599
-14.0136
5.63371
-2.092
-15.0284
1.59421
5.3826
-14.8887
-0.950127
-12.7908
-15.769
-15.0074
9.99055
-10.0739
0.342218
-24.4317
5.90507
-13.6452
3.86658
-8.56656
-26.3746
-2.06355
5.90315
-0.764259
-15.3876
4.19938
-0.382338
-7.11035
-13.9564
-17.4504
2.72943
3.65592
5.74531
-9.10357
8.31389
-4.15155
0.158605
0.064026
-5.98917
-36.4033
-16.1598
-16.978
0.557548
3.20958
-14.8442
0.325818
-4.82693
4.46357
-32.3956
5.89362
-19.3716
4.24081
-0.388832
-15.4654
2.10873
12.1397
-5.38294
-14.5379
-7.55643
-5.32916
5.7434
-29.5804
1.39499
1.93648
-10.5387
-25.4127
-11.1261
-15.3422
5.52915
-15.5174
1.83891
-11.4196
0.888417
4.23004
0.976283
0.38854
-0.988902
7.08022
-13.472
-12.2682
7.68922
0.859814
-13.7331
0.207156
-16.4494
-4.63217
-0.223944
6.93752
-19.3423
3.52972
-12.5492
-15.2367
-20.1042
-16.8316
-12.0005
1.76449
0.758863
5.65374
3.35999
-26.3719
3.97184
-39.281
7.18206
8.24011
-14.6884
2.02138
5.76348
5.69423
3.28105
-15.953
-14.7119
-12.4855
5.74386
2.64905
-6.16417
-16.0354
1.6251
7.06148
0.518474
0.130953
1.5359
7.59544
-4.0805
-4.35745
-10.4974
5.25315
2.3514
2.97641
8.37284
7.04611
-14.4252
-30.1577
6.82807
3.74175
0.961062
4.31038
-2.77446
-15.7774
-13.5548
-25.1947
7.12182
5.35372
2.36005
-2.24278
1.15198
-20.6794
5.57862
-35.1165
3.0214
7.15191
7.77613
-3.39492
5.51128
4.03665
5.648
6.10106
0.858909
6.17963
-0.612335
5.8721
4.43281
6.07402
-22.8093
7.00538
6.46851
5.39959
4.65707
-11.3103
2.74602
0.391313
-3.68979
7.35626
8.40754
-36.0319
8.68515
-20.9944
-11.5102
5.58954
5.87536
-8.26171
0.717492
-12.6819
-34.1498
-1.53003
-14.8123
-9.30753
0.140243
4.40155
10.7993
6.69243
-1.80764
-9.91561
5.35284
3.72023
-9.45567
-17.5632
-9.81547
-4.1969
-11.2613
-11.1587
5.60102
-0.801406
3.51122
1.17901
1.168
3.45185
1.18503
0.635941
1.04665
5.3721
-3.29726
0.816351
-0.246905
-35.756
2.94457
3.90958
3.06853
-13.8935
4.75176
4.61626
3.36744
-2.70058
5.67376
3.95366
8.94417
5.737
-17.5319
0.00349908
-2.25925
-8.06147
-1.02408
-12.0005
-0.0513856
-33.9749
11.0375
1.30555
-12.7735
8.19134
-16.3317
-1.29353
-5.19975
-23.8394
-11.1837
-0.888796
-3.54002
4.72498
-0.504877
-16.0521
0.851476
-7.26178
-3.27733
-12.0863
-3.92677
4.99125
-10.0434
-14.8823
-3.90702
1.23607
-5.24516
5.95346
8.46109
-7.85345
6.07868
1.74654
4.68639
9.57155
-17.9458
4.29357
2.10379
3.39036
7.91283
0.621479
1.7999
-7.03878
5.73889
8.45557
-19.6083
-0.433538
-7.79868
-5.00229
3.81778
-12.82
-6.77418
-11.5292
3.38702
-12.2379
1.25701
0.593671
5.39634
1.06415
-11.639
-4.6315
-3.28553
1.91261
9.13355
10.4301
7.313
11.395
5.74776
6.90121
5.78514
4.71776
6.23421
-8.84947
5.27396
-0.0178026
-11.2131
8.32632
0.968383
-4.60353
10.0723
1.33836
-35.8759
3.84299
3.4202
6.94979
-7.30397
5.6222
9.59601
-16.6935
-11.3936
-5.39176
3.09067
-19.6317
6.90967
0.556151
7.08299
5.73856
-15.0708
6.24466
-1.84364
-11.786
-11.779
-31.6348
6.36724
-5.74907
5.8293
4.56595
-15.5096
-0.626693
3.87503
-2.00679
-14.5156
-11.1405
6.55828
2.1988
-14.7178
-0.529468
4.67414
1.32392
-38.8585
3.80753
-25.288
3.6904
-14.4611
4.51778
2.54837
1.86106
1.89731
4.88217
2.54793
2.79657
-13.2642
11.1838
-3.10703
-13.3438
4.95072
3.93716
-15.3064
-4.36519
-20.271
2.14099
1.4227
-4.70053
0.667857
-0.0318551
11.4033
-1.09638
-17.6626
-0.651246
-2.05066
2.48418
0.00210441
4.54434
4.6974
-17.6916
2.71631
-12.3644
3.29523
1.64299
4.99518
4.69349
0.176774
0.211285
1.16756
6.03087
-1.29845
1.12348
-14.0182
-0.599605
-1.10875
5.65743
-13.8118
1.5204
-9.56261
6.33118
-15.8467
0.18559
7.1788
6.37656
4.18128
-20.0954
-11.5131
6.15503
-16.3513
6.97989
3.91561
0.200885
5.59843
0.524412
2.70424
0.805449
-1.94901
-6.85135
4.73692
-17.6757
7.41141
1.49603
11.5269
1.03453
2.60269
6.54264
1.82152
1.30639
5.91177
3.76749
2.45821
-6.70973
-1.99087
4.78471
2.65439
-0.173723
-37.7182
-0.116903
-26.2926
-15.4715
-2.79173
5.44721
-1.0512
5.06824
1.17644
9.79566
7.96423
3.18854
3.62793
3.06477
-13.4351
5.89489
3.30374
1.64648
1.38257
6.79818
5.74773
-2.94917
-28.1124
-5.79753
4.13074
0.874965
0.0566516
5.99175
-40.9808
4.33056
-7.7438
5.02475
3.60033
-4.66837
3.42111
6.12332
2.03536
5.13048
7.01649
1.02594
-1.74845
4.38031
0.424851
8.6349
-14.9715
7.68797
6.07234
-16.7251
-8.35033
-7.58801
-1.96579
-23.2856
-13.4747
5.67438
7.97038
6.52348
7.97378
4.64684
7.15317
3.40172
0.881004
3.59802
-0.432371
1.88894
3.97676
0.751962
8.73128
0.86129
-10.0858
4.81798
8.24931
8.88902
-30.2403
1.881
-13.7329
-11.1108
3.76041
-6.06889
-14.5425
4.1102
9.47561
-11.9629
-14.1467
-25.2625
3.45556
1.00925
2.02392
4.6218
4.85867
-9.96292
-1.80793
-4.64915
-18.4038
5.68908