/*--------------------------------*- C++ -*----------------------------------*\
| =========                 |                                                 |
| \\      /  F ield         | OpenFOAM: The Open Source CFD Toolbox           |
|  \\    /   O peration     | Version:  2306                                  |
|   \\  /    A nd           | Website:  www.openfoam.com                      |
|    \\/     M anipulation  |                                                 |
\*---------------------------------------------------------------------------*/
FoamFile
{
    version     2.0;
    format      ascii;
    arch        "LSB;label=32;scalar=64";
    class       volScalarField;
    location    "9.6";
    object      p;
}
// * * * * * * * * * * * * * * * * * * * * * * * * * * * * * * * * * * * * * //

dimensions      [0 2 -2 0 0 0 0];

internalField   nonuniform List<scalar> 
13486
(
48.8496
48.1098
32.6978
-32.2296
27.3373
35.7262
28.2668
32.7672
39.334
44.0714
8.24467
36.7877
49.3754
37.1716
32.0446
44.3672
7.76898
34.2473
37.2949
47.5672
-40.3156
49.0852
47.87
17.1064
42.7868
18.383
5.23279
29.6972
8.72286
29.9345
20.3939
36.386
22.8625
33.6327
32.881
24.2905
15.4778
41.7052
35.4779
40.7868
6.43322
50.3459
13.144
42.7071
42.6446
36.7431
3.98231
6.39442
20.2161
30.0893
44.2509
39.5521
35.2487
42.4946
32.271
28.0329
31.3177
37.9898
23.3384
-0.374131
7.05373
2.27514
10.4551
-34.9423
-5.29052
13.6118
-13.2267
50.3281
39.076
34.881
-13.4188
32.9564
42.3022
14.2408
17.1072
30.9359
17.2805
31.0267
2.7327
34.656
16.3163
48.7099
8.42537
33.7001
48.8291
46.3253
-14.6356
44.0213
45.7915
45.8282
36.7529
30.974
47.2837
47.8003
38.6302
-3.9425
4.58936
-6.99937
40.8377
7.47379
20.5076
37.5601
-7.96545
40.5256
48.5636
7.3782
44.5502
36.8896
4.71728
26.94
35.9885
35.8627
42.4902
26.6034
53.7688
36.5421
43.1008
35.0475
42.4061
31.9049
33.1788
6.58024
39.969
36.517
36.2645
39.8141
36.5159
39.4488
35.9155
4.40575
39.8899
4.88023
17.699
14.4944
44.3953
45.1845
56.737
27.4609
33.4831
34.4623
26.1046
34.3064
36.5616
35.1546
21.9083
10.0379
16.343
55.6034
29.7398
5.13982
42.2877
27.9965
5.02393
49.1383
40.1861
32.8143
22.5146
18.3183
39.2658
29.9055
32.008
39.2895
37.0517
50.0777
39.9183
35.2503
38.4166
58.3114
20.4993
14.5642
15.2746
40.1861
43.1781
35.9876
31.9075
-17.6097
36.8315
24.5382
44.4669
36.9002
39.3735
26.548
36.3173
0.935282
34.3683
29.7795
1.47409
31.3316
2.46019
38.2217
25.2503
29.9064
38.6369
52.2224
39.4729
7.80252
1.58964
32.271
44.6317
35.8828
13.6155
39.3581
41.6617
17.956
29.6743
39.2566
36.9086
44.0665
39.296
34.3931
30.6524
17.0635
47.4156
44.5794
35.7324
32.2514
29.4384
45.8809
45.8297
25.3565
7.69249
29.6503
34.9658
31.8304
32.4003
46.7539
34.2895
-7.99991
35.8308
-2.2512
39.3317
-31.4735
25.5518
51.0834
-16.0887
45.6339
32.9385
30.4064
45.9585
37.0444
22.5265
43.128
25.311
44.2533
31.4218
46.0567
37.4866
23.3758
13.3851
43.2578
-5.76968
54.1178
35.4191
36.1832
37.1131
-17.5971
36.598
32.4542
19.5722
22.5819
46.8114
28.2275
32.3433
-17.9543
24.0346
0.650798
35.3355
5.64832
42.3317
22.1663
49.3068
44.6052
29.2847
36.5049
46.8462
24.4827
37.0231
23.288
37.4147
16.1909
21.1206
38.7062
44.8534
12.0677
4.79417
7.29415
26.1847
35.4984
31.1187
42.4721
-18.7881
-1.50349
37.8613
44.3432
33.3979
32.2566
31.9341
36.0653
44.8318
17.52
36.6827
37.0017
19.016
36.3498
28.989
16.6202
-21.7617
37.4524
0.81934
23.8216
21.1674
-33.986
38.5718
36.3862
10.8372
45.3327
1.27888
45.8682
44.2761
35.1279
13.8689
-1.21997
44.4477
48.0771
57.0282
36.8246
33.5989
38.4993
33.966
32.9035
44.066
30.1573
36.724
50.8181
26.7148
37.7012
54.1421
28.1351
42.8677
28.1051
36.313
48.0104
32.266
36.1801
-0.599923
4.45231
36.9145
52.9046
25.0766
5.45836
37.8099
34.3036
36.1068
3.73061
44.7586
43.2319
14.1182
36.5599
9.16074
19.5559
37.5247
35.9989
46.4683
44.6444
29.5203
6.24866
32.633
7.69289
47.8105
36.7998
11.9082
37.1344
30.8951
-6.48627
36.8834
44.2085
44.4899
17.2568
11.3391
22.2221
41.9642
28.0951
50.6025
49.3368
7.74893
36.9885
37.8481
42.7645
10.3551
22.2971
47.0149
28.8728
41.2263
46.5891
51.5676
35.567
-25.608
-5.37211
9.38677
25.7889
10.0364
42.43
40.5484
-62.2739
28.2618
-55.0014
47.6742
24.8492
37.582
47.7652
42.339
35.9172
28.2282
44.9258
44.4405
51.5809
1.17799
24.2893
15.2047
36.9871
44.5046
40.0922
53.0281
43.1445
33.2076
31.7365
39.3619
44.9259
5.22309
38.8344
49.1344
40.6609
41.1164
31.009
22.5972
24.316
50.786
2.08842
36.0686
50.0533
8.96757
29.133
14.9913
28.097
15.214
43.3781
50.9839
49.3053
22.2159
29.791
-0.896109
43.0342
46.0059
30.1922
32.5597
44.5373
2.89981
-17.3054
12.0543
11.0632
38.9809
45.3286
22.5868
38.9025
-50.9975
45.2359
6.47476
56.2683
47.0275
41.4162
30.8279
29.9152
-1.76849
53.9635
38.7613
35.4024
32.9887
37.7411
7.14389
36.2155
43.3407
43.9598
34.3284
47.8877
25.6229
8.77149
42.9398
12.6033
58.0495
42.9989
44.2974
45.1104
-18.066
33.7023
54.1604
22.6962
47.8699
17.606
39.8774
1.94072
35.6787
14.1821
7.10192
46.0992
36.2563
-7.9228
2.07095
35.3323
51.5564
43.3383
37.9391
36.733
36.9965
34.6156
22.6164
44.2453
16.1909
50.4439
32.2997
34.5851
50.4905
28.0404
22.8974
37.9054
4.62635
2.636
37.3205
25.4808
40.2442
47.299
0.905941
21.603
0.91774
2.04937
45.6926
39.6044
0.84596
-8.95154
40.0692
17.163
33.7531
-5.26709
32.5898
36.7446
50.5261
28.5946
46.4668
9.21787
-6.04108
30.499
40.881
-0.129575
43.5252
34.037
5.71507
36.4665
42.035
21.6221
0.688542
44.3198
46.5043
40.9009
49.1299
33.6369
43.0939
39.4066
44.3641
22.293
45.799
4.33248
42.6056
36.136
35.9043
25.7603
44.2279
10.0056
36.1919
51.0641
48.763
-3.90048
26.9633
40.5962
33.8321
40.9975
45.083
13.3865
3.47178
37.2314
47.7911
38.7862
39.0599
4.64708
48.8928
25.9395
26.5538
44.4897
30.058
36.0688
42.3484
32.4622
34.5299
-34.4091
40.6648
29.6691
48.4854
36.8717
38.0937
38.962
-3.27449
26.2246
52.4633
40.112
52.2701
-5.74784
42.9637
26.9819
13.9417
25.0466
43.1366
53.8506
-9.76403
27.8155
33.0842
24.4803
43.1539
36.1473
36.1661
40.0682
0.421133
26.1947
23.0372
39.2846
34.2982
44.9981
24.617
50.8014
40.321
26.6189
-4.7326
31.1176
40.2157
5.43688
37.6293
7.22101
45.4459
19.3484
30.4524
-6.01374
50.5914
3.53967
35.5318
50.1901
44.248
0.629065
25.3766
37.3358
38.0166
35.4088
24.676
-14.8031
40.6094
40.9769
40.0296
39.7739
50.5847
25.92
-15.6404
44.2042
39.7337
35.2863
33.7297
43.4828
41.633
1.21198
34.0756
14.8355
34.7004
45.6653
40.0844
34.2467
33.613
1.61516
39.912
46.9986
30.9397
34.5841
40.4819
50.524
31.962
34.4552
52.2111
10.1052
3.31365
42.7744
24.2962
46.5753
21.2914
44.4796
-70.5362
14.3795
17.4863
23.9331
8.2536
42.4624
53.1072
32.387
13.0194
33.8601
47.1352
22.2713
41.3939
-2.06125
53.7562
0.939374
37.7025
29.8745
42.8072
45.6925
43.6673
23.5625
-29.3055
50.1623
44.585
21.6383
41.0851
4.42764
36.5945
33.7034
42.665
16.3957
38.0584
47.2883
31.1602
37.4364
31.9012
1.65864
32.1405
36.6146
43.7563
46.4558
-13.5294
34.4257
1.23051
-39.0538
34.5364
34.3982
36.5016
44.4708
38.3655
31.9035
41.4909
36.2447
2.00492
26.2468
32.8843
-12.8336
16.9183
21.6555
-15.4464
35.2342
49.5622
33.2829
6.49913
50.2097
48.5867
-0.406779
6.37716
38.2645
9.86357
24.4362
24.0916
38.1381
27.6463
8.5816
41.256
43.1592
33.3592
18.8724
20.1407
36.0589
36.7683
43.8905
38.1219
-14.6555
46.6485
47.7945
5.29533
-16.2475
39.7622
14.1658
38.7129
34.6471
30.5177
-15.6276
36.1868
44.6904
52.4512
43.563
-0.965798
36.7099
44.4685
47.6944
40.6725
39.0269
43.6364
51.3747
31.1204
15.897
38.6433
37.0449
50.4659
34.5238
44.2978
38.5488
37.8813
36.9569
36.427
27.2404
45.1499
48.8855
43.2935
41.9993
-10.8699
34.6076
34.7698
27.7133
29.1362
37.5089
22.1192
-4.91626
5.86183
42.1315
30.4417
13.5259
-2.95639
25.6686
29.6771
7.34318
-16.7956
44.4797
1.14856
48.937
-8.10015
13.346
40.8548
46.0041
16.7134
38.3363
7.83212
45.8585
26.0535
19.5109
36.7752
26.5208
19.8456
44.4965
30.3619
42.6008
8.59983
38.0478
5.6475
24.2748
42.6367
43.5873
27.8167
8.15853
3.64907
48.9146
20.5289
-15.6997
9.40501
43.5239
-16.7798
-2.35046
36.7846
32.0528
-5.52771
33.3342
0.933029
46.4191
44.5202
41.8319
41.5148
32.0068
31.5177
43.909
36.3321
41.2683
45.2235
33.5437
35.0468
36.9535
36.6736
30.916
45.9554
40.8956
39.5771
44.6144
33.5403
36.8947
53.4959
36.3452
25.557
43.1569
-53.9329
36.3204
36.0496
-49.3975
43.488
26.0336
10.5926
21.9007
31.729
43.1716
1.17103
3.57722
44.621
-63.6288
50.7669
46.2618
45.4229
36.9118
44.8326
36.9859
31.7199
31.6175
41.0821
-49.5086
35.7878
-4.98978
27.7626
-6.76014
42.8216
14.0443
19.218
-3.55492
-49.935
42.8715
45.1577
39.7209
36.8594
15.0857
44.4534
52.6037
-62.7144
10.3419
42.722
36.6454
43.1975
27.8151
31.9899
42.7029
41.8461
50.6607
38.0789
44.4685
30.942
46.1072
24.8132
46.3998
30.3512
21.5283
36.8977
-7.49079
37.8275
-19.8981
-6.34196
49.2538
44.4695
46.6967
47.0017
46.7715
43.7023
35.0833
38.9614
44.515
44.56
36.9116
34.1148
29.3054
35.2944
36.7608
39.8022
14.2294
56.7488
31.6567
25.612
52.4746
48.343
36.3511
5.07849
41.3338
42.4
7.26256
37.5941
14.1921
34.0115
44.4517
46.1455
33.0331
39.3717
46.0257
6.13852
32.291
46.8879
37.19
27.0866
2.31797
33.7073
27.4496
45.1048
47.3849
-28.5843
33.13
27.6057
36.7331
41.6425
36.8586
50.0681
40.0745
55.4742
42.9631
37.4615
44.2409
-0.0300892
15.2172
-15.8676
43.5702
33.4755
15.5723
21.3687
41.657
43.2475
23.9544
27.9547
10.8134
31.5341
22.2255
7.68573
38.4622
36.7885
44.6972
44.8714
46.396
40.5798
36.3716
24.342
27.9768
33.6475
-10.3195
40.8508
38.2549
7.47558
33.2386
-24.0595
36.3282
-2.20663
38.4332
42.6724
32.664
26.4087
36.2656
30.051
23.8205
35.433
-27.1783
39.4116
43.4991
43.1533
14.2817
44.292
23.5753
47.4729
39.8034
42.1377
26.2119
36.2287
50.5797
54.6788
39.517
23.6503
43.4613
37.1994
50.7135
31.4178
24.0342
-2.89199
36.7417
33.3382
-9.89086
44.4126
42.6239
-19.6939
11.5513
31.6787
40.8725
53.4522
11.752
44.1444
9.35371
40.9581
49.7732
38.4395
35.8703
9.00738
45.5489
37.3094
54.872
9.87996
29.2555
41.76
35.1784
-0.0720144
14.5613
33.6328
46.5689
27.6309
25.4079
48.6693
47.6729
39.0858
23.195
15.2855
39.4234
40.5287
42.0845
45.6246
37.9675
9.95636
46.9917
35.3074
21.5645
33.0062
45.9364
42.8618
10.0896
-47.8694
1.84625
44.2005
49.7024
37.6496
34.6239
27.1283
53.6015
6.71904
26.3886
50.9889
44.2274
-28.2742
37.2535
-23.1229
32.0752
26.0802
7.36978
27.1868
-16.5318
37.554
31.4921
10.0457
8.14637
-3.97191
26.4214
9.69911
-4.00133
50.8786
45.0939
22.0717
10.0742
36.7387
39.2986
36.07
55.2888
30.3652
29.0913
44.2533
30.3185
-16.9651
32.1266
31.2672
42.6915
56.0424
4.13559
38.4493
16.1123
34.3622
31.6975
35.8539
34.0347
47.0991
44.9061
45.0541
5.41725
36.3671
26.4174
38.6584
44.4419
38.1044
45.0649
53.9291
51.9611
30.2161
44.2643
46.9363
29.2825
45.3075
37.5585
51.5333
45.1243
37.52
46.4322
42.1591
33.3478
31.0225
46.2124
25.0655
39.0281
28.9943
28.175
35.6865
43.0979
41.2108
36.7103
50.4227
50.2033
33.7887
14.6498
37.125
-4.48697
38.6702
44.963
47.3248
14.0893
44.6557
38.572
37.0238
38.7938
-10.6058
8.45875
-31.3562
55.5037
33.198
19.1888
47.6558
35.4636
29.9651
41.6705
36.3234
43.8807
16.6318
31.0269
38.0488
33.4119
30.6691
32.2928
52.8076
48.219
42.1185
57.483
49.8638
32.4217
38.5729
35.9684
30.7664
50.4123
8.30549
41.363
37.5321
-1.64188
31.9057
44.083
3.18979
37.0587
44.2481
56.2594
3.46917
37.143
-28.6184
39.7772
33.0675
-14.9098
49.8443
44.9034
38.8867
43.5201
28.5895
18.316
7.04145
51.878
31.713
54.6885
-19.0538
35.6529
12.4789
22.1662
14.6563
36.6581
37.9005
40.3396
-14.6266
40.346
-13.6312
23.845
13.7568
13.9971
29.9309
18.6277
-23.1163
40.5658
-59.4637
5.04062
37.4307
37.9569
51.3289
44.4852
36.4006
37.4453
58.8697
41.1719
6.02154
37.5392
36.5409
43.9909
39.26
47.0771
27.2745
27.1155
31.2054
23.461
36.979
48.4115
14.3143
-1.36909
7.3329
52.2492
-3.10219
38.4262
45.5414
-22.8955
35.3664
32.2121
3.29812
2.01471
29.0049
43.3989
41.7853
45.3345
17.1669
14.0515
27.0309
3.08507
28.6529
35.7211
36.5455
23.6667
13.048
-10.2935
2.91188
18.6451
48.4824
-32.5486
52.1037
-0.239579
30.3216
35.6756
16.077
46.3044
35.8277
48.7141
-42.4315
27.5419
4.36265
44.9138
14.3617
43.5263
19.2796
49.4594
47.0282
24.0802
43.4806
50.3872
40.3321
43.765
22.6744
32.4719
36.2806
24.9121
35.0576
30.1345
28.3386
33.2078
6.98691
36.7849
30.4434
33.6264
30.1392
30.3823
51.4559
34.4433
1.59454
35.7105
44.4872
11.2832
12.3544
40.7622
33.327
32.1838
34.9485
37.689
44.4844
44.4023
16.2237
45.0406
46.1898
41.8541
31.197
25.8898
39.9428
38.194
27.3017
14.9464
-14.6096
25.1411
-23.126
14.8387
37.5274
27.9363
14.2538
29.6962
-0.388659
30.0714
24.7043
40.7346
0.439644
45.2132
58.5194
41.0305
16.0118
41.7656
38.7404
37.0081
8.05033
29.1127
-5.0403
34.0775
45.0048
4.7001
49.787
7.06441
44.384
34.3998
36.4557
12.5235
23.963
54.9126
-57.9067
44.55
44.558
47.0206
33.8345
44.8664
38.1275
13.0617
39.7708
3.91609
6.55279
45.1617
44.2484
20.4775
40.2385
47.0875
1.26674
-3.43222
27.6716
23.0649
44.9395
42.1349
46.0836
35.7139
39.6857
21.8277
29.7459
31.1572
46.0409
54.5396
27.9679
4.94757
12.4556
36.3202
33.8574
33.4487
21.4252
38.8908
35.4535
-21.4531
36.8387
55.8366
41.2067
29.2583
6.63478
1.13307
23.7235
8.88393
19.3321
-2.40933
47.7508
42.0568
28.4575
53.6442
38.0697
3.13909
18.2495
6.44932
40.5079
16.6189
40.365
39.0783
7.95208
30.9914
23.4623
6.24727
-3.23137
46.5085
-0.12362
33.9427
7.26741
44.5886
43.9673
-3.22956
45.6664
43.1005
48.2563
50.4252
40.4719
35.6346
55.6817
7.05834
37.2044
22.0369
4.41527
48.0625
-13.459
51.3884
41.7696
26.4135
13.2504
5.46958
45.9993
-15.1184
12.6459
26.5483
34.0171
31.3171
42.7189
38.9176
34.2802
52.237
14.2313
18.6889
39.2906
37.2762
44.72
21.0214
58.3257
34.96
29.4709
44.4427
28.942
44.4478
39.8949
42.6493
40.0949
31.2867
32.3604
40.6884
36.5499
-30.5666
39.1568
39.6123
44.2807
45.2782
-53.4975
32.6044
20.8334
42.5389
35.3152
7.69468
44.4422
1.38358
44.2243
45.2006
7.91526
49.1969
6.00894
54.6444
41.3715
-4.67837
4.54208
11.8789
44.0316
45.916
-11.9827
45.477
45.1892
24.2764
20.4127
36.9177
36.536
22.9213
7.68177
28.9484
0.117166
44.5911
16.4836
11.9877
30.6906
47.1025
46.0022
44.863
18.6693
41.8444
38.5237
34.4152
42.2528
-54.2825
-48.0556
51.8314
33.5872
25.5279
25.5534
6.73936
-6.64302
44.6004
7.82676
34.6563
45.971
33.8586
44.5317
2.2706
37.1014
53.3136
21.7837
45.9589
36.4385
-10.5766
40.3321
36.6841
39.6662
53.4121
42.0775
-62.6485
54.1294
44.7878
47.6005
3.12307
16.2945
26.3556
25.9197
3.55348
12.5501
27.6085
13.927
36.9479
37.4241
30.5029
33.4564
-35.0276
30.0945
46.5577
8.10812
37.3992
42.7718
44.4709
38.6815
42.6407
-4.23721
8.88729
3.53409
33.529
46.5239
2.77899
48.3383
-0.142412
44.463
26.8441
-22.5392
22.6868
42.368
42.1873
39.6449
38.2509
40.5482
34.733
46.4563
49.0911
20.0704
12.4841
14.0616
44.7655
37.7404
17.9844
18.0564
37.2471
40.1256
19.8671
39.2157
31.9729
32.922
42.1568
37.508
34.0047
-0.196065
48.0995
1.74556
43.1847
2.44777
44.2515
42.8563
42.4643
38.9779
19.1676
-13.5909
-10.9149
19.2932
-15.1152
8.47589
10.4546
-24.3053
44.2004
36.6771
44.4813
25.499
38.106
22.7138
35.1217
42.7725
2.1324
40.9833
36.9548
-4.04671
-14.6682
-0.514108
38.2937
44.7904
30.8401
36.4276
19.106
40.39
34.5161
36.5096
-0.749486
45.6332
37.3173
42.234
44.232
40.1857
43.8051
46.0105
49.3124
22.0214
29.3405
24.7593
35.3047
42.841
36.9887
11.3355
10.0329
-8.85872
32.7228
32.9508
-10.446
55.216
21.2844
42.5596
37.6389
6.43238
38.1681
31.1617
36.898
38.3858
35.4019
44.9601
-13.2372
44.5235
21.9363
17.3317
-50.3418
35.7716
9.67506
42.0454
53.0557
44.718
24.2326
8.82101
44.3578
5.64241
36.9014
18.2185
39.0058
16.309
-2.54799
7.63266
28.8097
38.2394
36.3833
8.95537
36.9981
45.7166
29.957
21.9506
45.9167
38.3479
6.56033
19.6101
34.976
5.61601
54.0696
17.5002
37.195
28.1893
30.9117
30.056
39.6978
35.4257
35.4659
31.6589
27.5657
31.9338
30.0514
46.5178
39.4371
39.1939
24.463
33.3927
53.6659
-56.4784
42.4638
42.1043
38.9754
41.8963
37.276
13.3646
38.1744
44.6222
43.1069
41.0648
-16.2672
45.8981
38.5028
49.7464
32.9437
44.8659
46.6177
44.4439
36.589
0.917054
40.2652
6.65904
32.3047
41.7202
43.8708
38.1497
48.1499
36.2333
49.9112
5.00375
42.868
36.306
37.7586
9.47484
44.5144
36.444
41.9369
53.8027
45.0094
36.9108
29.7937
37.4094
44.4198
36.1785
9.1153
38.4544
27.3358
46.2854
-0.163085
48.8525
39.6688
58.9217
51.1142
29.6187
26.4549
9.5374
37.8457
51.6132
22.9423
36.7222
38.6532
55.9584
42.5828
37.8934
53.3391
30.3071
43.9799
34.8306
42.1235
30.6756
39.8799
42.2279
45.1707
36.902
1.11764
37.243
2.95895
36.165
7.50443
17.0037
50.1867
47.7058
19.5351
18.3586
36.7846
43.475
39.1349
38.918
42.641
25.4951
18.9711
-24.8066
45.1653
22.6111
34.5557
42.95
34.3254
37.2617
29.8626
53.7568
-30.6207
48.2992
16.4577
54.5756
29.1563
37.2162
-13.0605
25.8962
39.6676
44.4974
15.9817
33.8027
11.3797
34.2037
46.4444
35.3458
37.2609
-47.5587
31.4539
12.9004
42.0521
27.5309
26.838
30.8105
44.6571
54.6655
1.21931
31.3498
38.5687
38.7761
41.728
22.1053
28.6659
33.0756
14.9596
40.9723
2.04388
33.1826
2.52765
13.9384
-4.92154
38.1802
43.8498
43.071
44.1712
53.5491
8.16175
55.3256
17.5297
53.7027
-11.815
29.2017
52.4407
41.3638
-18.3585
36.1018
41.5264
38.8724
-36.0458
7.41675
36.1415
29.2379
25.9901
27.2617
36.9687
40.9688
42.0476
-2.6248
41.2458
21.5929
36.7643
-40.1855
34.298
37.7946
-33.2492
24.9768
51.5724
31.3372
52.7639
37.5187
2.75372
41.113
30.553
-9.76955
44.1528
44.9369
55.3282
43.8135
45.4939
28.3857
14.2493
54.6201
54.8424
45.9858
31.6078
-16.2754
6.74705
39.2148
31.3708
35.9212
47.3647
16.3857
32.195
8.58254
53.131
32.3432
38.3436
-12.2393
36.8911
44.8623
57.6495
56.0711
40.3395
40.6463
33.2147
19.2611
42.5889
56.5035
33.2301
-10.1266
32.8353
3.46267
36.226
35.592
33.6131
36.6191
33.2305
37.6301
32.7694
40.4626
46.6457
12.5589
43.1154
-10.7502
33.1559
51.2571
13.3552
38.0646
14.2267
41.5722
41.4013
0.733263
12.4219
29.8577
35.8252
58.1076
11.8044
11.7999
7.28119
33.7511
27.4984
15.1295
-2.75913
15.2428
41.83
11.8277
31.1624
25.5492
41.3434
33.1346
38.1713
57.4985
38.5987
37.2145
32.2407
39.0299
14.439
33.1498
50.0652
43.6755
37.3133
28.9572
42.1658
43.7672
37.6443
-4.61079
20.2564
50.1586
29.453
44.3585
37.5435
49.1035
33.3512
-11.0575
27.8458
44.8801
30.8206
44.6804
30.3206
55.6231
-12.0114
34.6441
7.99606
42.8399
-6.60101
28.1183
-12.8244
34.8885
19.2022
-16.6464
-48.1444
40.9708
36.0376
18.2383
30.9809
39.5762
6.35865
37.8885
-12.6043
44.8399
54.037
36.2914
13.6399
38.2882
33.4854
37.5757
40.1234
32.7116
7.21246
17.5784
29.2729
19.2239
37.526
34.7074
-0.489885
9.65477
37.6588
44.4767
34.7834
-1.58686
34.4507
34.0254
30.7276
35.0235
22.859
-4.78603
46.6678
22.3985
23.6545
24.6525
9.63872
0.0288279
8.44314
58.5718
36.1489
27.3098
42.7513
53.7469
51.3266
-12.5674
34.8943
44.4666
33.1843
13.3034
53.7947
37.0935
33.0638
58.837
35.5727
16.2887
38.8408
49.9216
44.9557
38.2226
49.9294
43.4048
28.0229
28.5088
41.6323
36.6933
9.57777
52.8861
38.7442
34.4125
34.2073
22.1226
35.2667
-11.5241
33.7802
36.5261
39.8228
45.7396
40.301
5.95561
50.8889
52.1478
10.9455
37.7829
32.1558
24.3868
37.9154
42.7475
-12.9385
29.8263
37.3152
54.8627
4.06395
41.8529
43.4061
43.8769
32.2769
38.6732
31.9879
27.6646
23.9482
39.8362
6.04578
22.1378
32.1456
-19.9774
44.6839
-15.951
-18.6882
39.7013
14.6247
-12.976
7.75355
40.6243
35.1793
6.29165
41.2464
8.00155
36.2307
6.76681
31.9662
44.3754
2.57426
54.1595
36.7441
56.2018
11.3845
14.2447
36.1751
44.3258
37.5478
18.6245
38.5152
36.4887
35.8207
34.5574
59.3819
43.8582
32.2971
29.7744
32.8996
31.3646
40.2286
27.2439
42.8414
-10.8372
-14.5722
12.9662
15.3192
27.9383
13.0594
42.9367
37.6828
51.2306
54.8843
8.68205
7.10783
15.9676
29.0284
52.1422
28.0083
35.5893
41.2038
43.4932
2.52113
33.8689
29.7823
40.423
34.7924
11.8804
17.6739
-67.4439
30.4423
19.7267
35.4925
19.9852
20.71
40.602
-14.3953
-11.3484
32.6958
36.7982
55.448
29.3017
44.5016
26.3437
35.6634
36.5707
32.6664
40.1423
-6.48906
14.6981
51.9689
44.1893
37.2862
12.1261
56.8301
-12.8355
18.6521
-17.1586
29.1782
-8.55597
3.68181
49.6199
36.898
37.9423
41.0186
-31.2962
40.5929
3.44811
37.522
20.1713
37.4572
40.892
40.8777
-1.33419
17.9824
23.1833
29.7026
28.3549
28.1182
55.5893
43.1387
-9.11683
28.2436
39.7769
50.5491
33.1478
13.2615
29.0667
47.2932
38.4229
28.8049
44.7339
33.3021
51.7214
28.5016
45.7028
0.707994
29.4973
31.7219
-13.139
26.8215
40.5702
12.4936
-8.45211
43.0099
36.8922
36.1752
47.8053
43.7946
47.3261
44.3506
27.2573
13.4098
37.6215
39.3215
-1.87552
42.9072
31.121
51.8707
-12.4608
46.892
20.8408
53.8353
-34.1346
30.9904
53.245
-12.4984
29.6664
4.66848
47.701
52.9032
44.7372
26.0786
44.4758
44.9528
21.8189
42.1482
-10.8461
46.1826
-12.8928
-20.4039
7.16633
7.07586
44.7043
23.3367
5.19326
36.0472
52.5582
34.8533
36.8839
6.80331
28.6623
31.9211
33.8336
44.4957
39.7728
3.85505
56.2072
42.125
50.2322
45.8769
33.3363
43.9759
36.7742
22.3978
33.6781
35.0091
34.5258
34.2812
39.6011
-41.1904
54.8781
46.1817
35.6204
-2.17292
39.0225
21.2392
43.5531
44.1478
36.7058
37.1492
44.0974
40.5237
29.6061
14.5236
31.0779
41.1957
51.6808
13.4261
53.5689
56.7092
54.2481
24.6579
44.5015
0.539718
44.4066
44.2997
47.5803
41.2262
47.2274
57.4489
44.6996
13.375
4.04797
15.9889
57.4172
36.4223
33.9079
-0.174421
46.235
51.1028
42.1008
36.0239
38.9176
49.5368
13.0919
39.6185
-3.18922
41.3663
33.1761
12.0461
37.1485
0.106379
-2.07255
-15.8172
30.5076
25.0537
44.2654
36.2711
35.187
39.9504
10.034
25.8195
33.093
10.2329
0.569928
13.1123
46.5647
49.98
-12.9182
45.806
46.4539
50.0198
17.4722
-8.06802
41.2322
10.3308
47.6936
11.701
47.2155
43.663
38.6785
47.0469
38.2898
45.266
36.0839
41.6418
30.7734
14.726
8.48969
33.6842
45.0161
1.93183
-6.06625
4.13822
52.3745
44.4095
41.5186
35.0893
49.057
21.1363
39.6727
0.408249
29.6146
39.8629
-12.5021
5.06796
28.7323
8.28437
34.1007
-7.32007
5.85173
6.21894
13.5321
37.5771
52.8826
55.4183
51.1112
-1.85654
39.6814
1.83067
40.0845
50.5236
39.0997
44.8056
6.92571
36.2763
29.947
36.5314
46.2321
33.3747
41.3871
6.61616
35.2048
7.72646
45.202
41.464
44.4522
4.38225
40.0325
-43.5421
5.69616
6.32446
36.3062
52.3281
18.1178
27.6781
-6.90607
42.8194
44.5368
42.1875
42.715
5.50568
49.4304
51.7925
-0.107398
35.6
47.3807
-12.271
7.51609
37.3248
46.7978
48.1571
-0.117874
29.513
37.3693
52.6028
4.48428
3.4093
36.4046
49.9572
37.1416
31.164
33.8467
45.1903
43.7836
45.9393
36.0962
19.5348
41.4361
56.7715
13.6076
33.6613
36.9822
1.19033
37.19
36.5485
2.19049
28.7179
-45.6209
42.9281
16.5454
24.3972
44.5526
47.2922
40.1721
23.4456
8.58629
40.1926
5.68663
26.8627
29.6744
36.1991
6.42374
47.078
40.7428
37.0645
38.5526
51.0713
21.0463
32.2704
44.9047
6.88825
43.131
33.1556
35.5183
20.7877
44.0869
9.74468
36.3901
37.3501
25.1746
45.4992
21.8013
37.8066
-14.9798
32.5314
44.5081
6.79721
54.0723
3.10934
8.2691
-1.31272
47.0541
41.1343
44.2382
12.931
49.808
8.38418
30.6855
27.2265
5.50126
44.7955
36.5311
35.7847
34.3056
18.111
43.9866
8.10371
-13.6617
11.0387
13.2239
10.5999
35.5093
51.084
5.01454
0.823893
44.2187
15.5303
48.0075
19.067
37.492
44.8995
45.0194
36.276
28.6439
26.7541
37.0193
40.29
41.355
7.30739
-11.4705
30.9902
24.6933
39.5997
57.889
39.8788
44.1991
47.92
39.4093
45.6283
10.5338
5.1598
-15.3587
44.4031
57.1441
40.2917
30.5272
45.8787
34.7636
35.9976
13.4308
37.1692
37.2658
54.1632
22.202
25.0164
52.8452
46.1457
37.7057
41.4295
44.3337
38.3913
-50.0445
-16.9185
41.4495
14.4286
14.9376
43.5778
-15.7037
-4.49814
19.3461
38.9265
39.3724
41.1848
37.6057
44.4837
44.8041
37.4626
41.5866
40.0573
48.9207
45.7855
27.2855
35.9063
41.9331
46.3582
40.9362
29.4533
35.5236
37.3949
-31.3322
50.9945
42.4394
5.09718
-2.29785
31.91
42.8092
31.6069
41.7093
32.0557
34.9281
-13.8954
36.2515
1.01477
35.4179
28.8612
22.7206
12.4362
4.63106
48.5772
2.25994
19.7437
-9.51822
51.682
12.3606
36.7413
39.8289
6.57676
45.9827
44.5261
30.1198
46.7202
38.9562
37.3967
14.3563
-4.04324
10.8362
47.5458
31.8434
0.545535
3.45584
13.9455
16.7176
-9.32911
11.5295
37.3982
40.7856
44.4815
43.3905
18.438
17.6931
47.0819
43.7848
0.367543
38.3001
16.3465
33.6881
30.6193
37.3814
44.0311
37.0405
8.1222
-3.80398
40.4958
5.35308
13.2892
34.3596
-5.7996
9.00246
6.10683
-8.47539
33.4886
13.8464
36.3248
0.708089
44.9303
44.3689
35.1654
47.3295
-9.72907
50.8024
26.3705
37.6983
29.5828
41.5936
37.585
14.61
10.0225
45.2131
47.6415
52.0403
-1.05944
9.79504
-13.6223
38.6419
5.81593
4.55849
21.6846
6.94357
37.5128
1.22249
29.9375
21.4449
41.6091
49.5296
38.5557
34.3371
36.7782
25.1205
13.4619
49.9553
55.2059
16.0427
41.6682
41.7943
1.70343
-42.448
46.8797
47.5144
9.46938
17.5264
-15.7947
-9.43821
30.4241
6.47624
32.1751
44.346
22.4813
46.2917
4.02618
5.7159
44.8202
31.4723
7.1469
38.1542
45.6419
6.89614
33.3218
4.53366
2.89028
7.21297
52.4855
10.516
35.7777
1.89489
43.5666
7.2087
28.0276
14.4687
9.56184
30.536
42.0632
39.5444
4.89735
39.9365
11.3136
12.2742
7.9399
5.67449
32.0734
35.8919
44.3245
2.6854
47.4586
12.839
3.50442
33.0958
24.9447
-17.1122
5.26698
11.7399
36.6548
41.0889
7.81214
35.9952
24.8022
38.0667
6.04767
44.7493
10.5866
42.7193
33.8416
21.6687
30.1808
59.9474
-33.4568
6.41639
-1.99014
23.7804
44.4417
21.8946
26.7494
31.5852
1.22552
-1.35328
13.8878
6.47017
38.5392
7.18452
38.6154
2.53224
36.6192
40.1131
33.8218
27.4995
32.5173
43.827
8.19668
10.9644
45.6212
35.4107
7.63561
35.844
9.35412
25.1848
34.5296
44.4738
-14.2762
41.883
10.1032
10.497
9.57079
7.57305
17.7823
25.8752
20.5203
43.9577
41.6241
9.46339
56.6245
-15.3517
47.3976
46.9906
6.32701
39.3568
43.3827
44.5054
31.5596
11.0128
13.2904
14.3973
44.366
40.0854
22.426
7.42817
30.1637
47.5535
36.3309
36.7812
38.0803
45.5778
26.8052
25.7973
-14.0199
44.1191
40.2946
30.1267
47.6224
46.6132
16.4182
1.92181
43.955
42.1582
37.1801
34.2135
27.4327
12.755
12.3166
4.70929
47.3121
38.4416
40.3622
29.6638
18.9436
33.9076
40.4586
-0.239292
29.8801
44.1274
45.8801
-10.1612
43.4198
35.4593
38.9382
40.5632
36.9867
41.154
21.6685
44.9364
44.0433
44.6317
-0.125353
46.0535
44.0634
44.2627
43.9002
11.1809
33.626
30.7799
27.0335
44.492
51.3886
-9.60436
53.4227
8.35149
14.1901
41.2522
43.5662
16.2669
36.2795
9.71255
-2.32959
33.0501
-12.8163
14.8096
35.8942
39.1697
55.7953
42.4673
15.0527
-16.0541
39.6485
41.8961
-33.5661
11.3212
5.62972
26.8176
14.0691
15.4539
44.4805
2.03383
41.5161
28.1955
27.3663
29.3936
15.6855
36.5672
30.0745
45.9405
26.9592
20.609
32.1856
2.15229
37.4802
42.2582
41.7418
33.5313
44.227
41.6534
41.7585
29.0109
44.0088
39.2629
49.6535
44.3253
9.15223
35.4214
29.5003
8.71962
31.8768
-30.0119
31.6379
-6.8054
56.1947
33.5095
38.1251
47.2793
-3.11787
33.3253
-24.919
-1.44481
9.96964
19.1987
28.0553
37.0154
28.6768
10.1543
26.5833
-19.1258
27.8722
18.3496
-7.65
44.0804
-7.39922
-13.1185
27.2131
36.6347
23.9447
44.1422
47.9467
4.41291
44.3301
33.7346
43.4237
51.6348
0.87399
43.0314
37.4192
41.2275
46.0779
37.0226
38.7694
24.8042
43.4117
47.9666
-15.2215
19.6426
20.4455
24.4025
42.2407
9.78795
19.1267
1.73323
41.7138
10.7707
37.1018
36.5052
44.5749
35.9142
14.0693
-62.47
30.7426
24.5696
49.9555
53.8879
44.5651
56.7754
45.6581
52.5008
39.3992
35.9091
47.4808
19.4103
41.3167
35.2135
14.2461
48.495
36.796
25.39
53.3183
37.7716
-6.44326
42.1557
41.3952
46.5624
-7.6226
44.859
53.1769
-0.359504
14.6553
22.9901
38.1527
1.29166
43.3773
36.0309
47.1631
44.4193
-12.1945
43.2541
30.8519
15.1313
14.5556
-16.123
41.6073
23.188
44.6101
41.6903
5.45462
26.7769
29.9005
32.1165
2.32495
8.5397
42.8947
39.3513
7.22305
34.6015
44.1079
37.2159
-6.59366
42.3892
22.359
41.8755
6.83518
43.9994
40.1211
24.8117
39.4246
41.8547
37.7203
40.43
8.28152
56.0874
28.2842
5.29585
42.012
39.4042
7.00114
25.7363
1.62129
30.6482
33.365
25.0747
36.2544
35.0524
57.1944
-1.15271
-10.1855
30.1698
30.3487
31.1458
34.7655
40.2086
44.262
1.30234
37.8652
10.5069
30.3746
37.3192
39.4297
43.6164
9.82571
3.61363
33.0706
44.2786
37.5511
34.3759
6.48405
34.5465
32.0439
45.5211
5.69784
35.1752
2.22356
41.2843
6.12853
35.428
45.1986
43.6406
43.8906
1.58228
17.0097
44.5229
38.9085
46.1609
42.2286
25.9833
43.696
36.7704
40.3336
35.4535
30.2038
19.6754
44.1185
25.2106
45.9902
37.2902
57.3943
36.9195
39.9538
44.4329
38.534
37.2257
44.1034
34.9699
36.9956
21.5468
34.6675
40.7742
37.2794
32.5304
0.210791
34.1403
-6.67547
6.83746
28.4965
44.4214
31.6399
43.9545
37.7436
53.342
50.8797
41.1121
36.3758
40.928
7.59781
46.1398
38.3843
38.2456
36.5759
45.3147
41.8386
34.3251
5.18064
22.8445
37.5624
33.0219
26.139
44.5557
-7.36075
36.5406
15.4749
41.4782
41.7742
31.9031
41.4468
42.9893
39.0984
40.0174
43.7166
36.1555
29.2007
43.8803
32.1217
49.2215
7.54608
46.6758
42.085
6.06516
11.1771
35.406
30.056
2.38947
-11.6177
44.4905
48.338
46.1084
47.3784
43.5055
45.8791
41.5481
34.6372
41.868
32.7242
38.7604
39.8981
29.7887
50.9152
36.5782
0.160539
43.8292
48.1275
50.6293
7.64152
34.7415
10.8042
13.8341
42.018
35.6195
-11.6888
43.7706
53.2192
9.33733
8.85014
0.382662
41.4396
33.9627
39.0276
38.7327
38.1688
-38.306
23.894
-11.1056
0.359992
44.8988
44.4307
46.0016
30.7893
11.7687
31.727
32.8454
14.2713
33.2292
38.9439
36.7529
30.1405
31.7247
34.192
25.0606
41.9888
6.37934
37.1136
43.3709
33.925
31.4568
4.79887
-7.76597
24.9283
43.9743
36.3677
35.6641
44.3448
44.9399
31.6489
30.0546
42.1852
33.5652
-9.47093
36.6437
36.6002
28.1776
41.8793
11.0701
42.7802
34.5513
36.8235
47.2195
40.3267
42.4599
33.4747
42.5347
25.3874
45.2435
26.5331
32.8529
40.6157
-29.3914
-20.5969
-20.4486
3.59557
38.1074
15.9513
6.37307
45.4432
35.3711
-8.11359
11.8614
27.5264
44.3736
37.3685
38.3964
22.7645
46.876
34.4173
24.6682
20.8839
29.6898
43.9455
37.2315
45.8978
16.6106
34.5687
49.3807
45.0565
41.4996
42.7738
45.6438
48.0314
52.6844
35.8719
45.7878
32.5897
45.5334
34.1537
13.1675
42.7806
32.9255
29.1203
20.8648
39.1494
37.3528
-23.0996
42.8236
-5.07166
43.8234
35.6343
38.6225
37.0572
42.0928
45.5827
32.0758
30.1008
44.489
42.0556
26.8686
38.2218
46.4744
1.05661
48.8705
44.6736
35.975
-31.1686
41.5492
43.2219
25.5684
48.5867
38.5471
33.6677
36.4132
42.7458
5.1611
4.24698
43.0062
46.2773
36.5621
42.0035
19.4036
1.52159
40.6967
40.0448
35.9772
27.2191
44.4925
44.0539
44.8676
42.1575
36.5719
21.0292
41.3809
27.1728
35.7174
34.4641
47.1488
41.1221
39.4063
34.1727
-3.89987
23.042
-8.41845
22.5112
36.3746
42.6349
13.7491
47.1815
30.8009
34.3445
46.3895
54.8443
-10.5645
12.6592
42.543
34.2177
10.7481
20.3676
22.2287
20.2131
25.8454
0.188259
16.7189
20.7877
37.4421
44.3513
37.883
44.4138
23.4158
36.5782
41.8542
30.0706
-6.86581
2.06817
46.4508
52.8114
26.0167
43.9277
38.5455
38.5757
39.5932
10.6109
27.863