/*--------------------------------*- C++ -*----------------------------------*\
| =========                 |                                                 |
| \\      /  F ield         | OpenFOAM: The Open Source CFD Toolbox           |
|  \\    /   O peration     | Version:  2306                                  |
|   \\  /    A nd           | Website:  www.openfoam.com                      |
|    \\/     M anipulation  |                                                 |
\*---------------------------------------------------------------------------*/
FoamFile
{
    version     2.0;
    format      ascii;
    arch        "LSB;label=32;scalar=64";
    class       surfaceScalarField;
    location    "8.5";
    object      phi;
}
// * * * * * * * * * * * * * * * * * * * * * * * * * * * * * * * * * * * * * //

dimensions      [0 3 -1 0 0 0 0];

oriented        oriented;

internalField   nonuniform List<scalar> 
20045
(
0.255277
-0.282822
0.0275453
-0.540797
0.201687
0.33911
0.19476
1.02091
-1.21567
-0.228503
0.305471
-0.0769673
-0.459903
0.411431
0.0484722
-0.312816
1.12877
-0.815957
-0.472133
0.13267
0.339463
0.0281747
0.233801
-0.261976
0.253669
0.210568
-0.464237
-0.39752
-0.0567474
0.454267
-0.234901
-0.146052
0.380954
1.106
-0.528755
-0.577245
0.187951
-0.187716
-0.000235566
-0.617691
0.539346
0.0783451
-0.108609
0.491009
-0.3824
-0.529192
0.131672
0.019399
-0.113423
0.0940239
0.144087
-0.242266
0.0981785
-0.80278
1.18608
-0.383303
-0.380896
0.0165453
0.364351
-0.378091
0.310468
0.0676227
0.0650499
0.122901
-0.0786844
-0.462113
0.734193
0.469729
-1.20392
0.406902
0.0993781
-0.50628
-0.523188
1.25738
0.0407198
-0.0457987
0.00507893
-0.745349
1.40572
-0.660366
0.815224
0.170534
-0.985757
-1.45253
0.790609
0.661916
-0.146218
0.367267
-0.221049
0.656083
-0.495299
-0.160784
-0.276402
0.836159
-0.559757
1.3189
-0.756795
-0.562104
-0.297973
0.326148
0.984861
-0.473155
-0.511705
0.571314
0.103095
-0.674409
-0.0308328
0.193206
-0.162373
-1.04013
0.513045
0.527089
0.305198
0.272464
-0.577661
-0.000812923
0.252887
-0.252074
0.0685042
-0.0985187
0.0300145
1.06409
-1.06529
0.00120465
0.731137
-0.267781
-0.463355
0.337449
0.393688
0.496867
0.609133
-0.0727543
-0.0780909
0.150845
0.66241
0.219339
-0.881749
0.739971
-0.168657
0.114651
0.986811
-1.10146
0.656369
-1.09958
0.443208
0.938687
-0.665048
-0.273638
-0.579855
-0.396713
0.976568
-0.0488816
-0.157036
0.205918
0.328041
-0.285479
-0.0425615
-0.352193
-0.10771
-0.229554
1.14701
-0.917453
0.797447
0.114448
-0.911895
0.706593
-0.982995
0.713426
-0.582912
-0.130514
-0.283009
-0.13716
0.420169
0.224004
0.489423
0.185831
-0.830882
0.645052
-0.249223
-0.128868
0.735899
-0.121946
-0.613953
0.623529
0.107673
-0.731201
0.0912768
-0.293515
0.202238
-0.337584
0.0695239
0.26806
0.443078
-0.189409
0.756419
-0.76984
0.013421
0.228517
-0.13724
0.179536
0.148504
-0.130174
-0.537227
0.667401
0.0653979
-0.0960874
0.0306895
0.651068
-0.11104
-0.540028
0.787356
-1.01691
-0.00705834
0.658126
0.26284
-0.37145
0.151746
-0.0508688
-0.100877
0.107464
-0.62688
0.519417
0.513475
0.569835
-1.08331
0.446015
-0.35852
-0.0874956
0.611793
-0.425963
-1.3362
0.223141
1.11306
0.00503745
0.25024
-0.244895
0.28846
-0.0435642
0.278356
-0.64631
0.367954
-0.79927
0.0289195
0.77035
0.508684
0.0921314
-0.600815
-0.413505
0.372228
0.0412762
-0.662297
-0.0864874
0.748784
0.390767
-0.0842036
-0.306564
0.20835
-0.30224
0.09389
-0.093503
-0.404825
0.498328
0.305323
-0.329022
0.023699
0.768699
0.142519
-0.911217
0.0449155
-0.00419577
-0.0316366
0.302813
-0.271177
0.629699
-0.324501
0.0474594
-0.137448
0.0899889
0.667745
0.317116
-0.216667
-0.401024
0.337661
-0.369298
-0.197205
0.994652
0.00893052
-0.253826
0.145538
-0.0980789
0.221962
0.612806
-0.834768
0.535226
-0.962175
0.426949
0.0789919
-0.229408
0.197746
0.0316621
-0.108129
0.138581
-0.0304522
0.543594
-0.449672
-0.0939226
-0.258589
0.209707
0.633231
-1.30309
0.669857
-0.0967523
0.166562
-0.0698094
0.0236088
-0.133348
0.109739
0.564566
-0.157664
0.912968
0.405931
-0.602312
0.472138
0.595367
-0.831094
0.235727
0.227987
-0.0838999
-0.404211
0.121202
-0.406321
0.32721
0.0791118
-0.504908
0.0554168
-0.309195
0.253779
0.640072
0.298615
0.549254
-0.731689
0.182435
0.808266
0.0919132
-0.90018
-1.00367
0.718247
0.285427
0.061082
-0.850131
0.789049
0.97326
-0.333188
0.157483
-0.235573
0.0904664
-0.0296901
-0.0607763
-0.0360993
0.0275492
0.00855013
0.573238
0.398611
-0.971849
0.599235
-0.567386
-0.0318498
-0.164776
0.085844
0.0789323
-0.165677
-0.0637305
0.94349
-0.348123
-0.345545
0.359241
-0.0136957
0.601664
-1.18599
0.584328
0.15352
-0.733376
0.51826
0.228301
-0.746561
0.722044
-0.61458
0.958216
-0.135443
-0.822773
0.559416
-0.746765
0.187349
0.980331
-0.643058
-0.337273
-0.128734
0.211456
-0.0827219
-0.0644799
1.13684
-1.07236
1.06948
-0.25426
-0.823382
0.0236693
0.799712
-0.499336
0.387231
0.112105
0.970929
-0.457454
0.154302
0.291713
-0.627226
0.770225
-0.142999
-0.890412
1.08517
0.00822305
-0.176018
0.167795
-0.115259
0.0652054
0.0500539
-0.0196889
-0.194376
0.214065
0.633823
0.186664
-0.820488
1.40396
-0.707185
-0.696777
-0.232824
0.213135
0.325426
-0.621554
0.296128
0.0808519
-0.0123477
-0.862253
-0.446262
0.668379
-0.222118
-0.654871
0.472182
0.182689
-0.0106574
-0.0327585
0.0434159
0.445285
0.535046
-0.0165807
-0.0195186
-0.00856659
0.099033
-0.70145
0.0742242
-0.738654
0.929898
-0.191245
-0.674396
0.7448
-0.0704044
-0.550193
-0.436822
0.987015
0.0169464
0.387227
-0.404173
0.438165
-0.447372
0.00920699
1.05053
-0.0344782
-1.01606
0.00776233
-0.760761
0.752999
-0.360716
0.878975
0.194047
-0.561932
0.367884
-0.615559
1.24879
-0.797674
0.547159
0.250515
0.028213
-0.0209886
-0.00722439
0.524298
-1.2553
0.731003
-1.10071
0.355364
-0.577391
-0.475852
1.33068
-0.780909
-0.549773
-0.314687
0.313874
0.133479
-0.14138
0.00790054
-0.628534
-0.142914
0.771448
-0.961596
1.34778
-0.386185
0.979358
-0.746003
-0.233355
0.0619837
-0.23243
0.170446
-0.338623
-0.483268
0.821891
0.142254
-0.377156
-0.676527
0.737609
-0.724689
-0.228126
0.952815
0.0945894
0.0256824
-0.120272
0.149384
-0.595646
-0.336936
0.190719
0.867112
-0.0588461
-0.1466
0.115767
-0.153441
0.192397
-0.0389562
-0.33965
0.973474
-0.889761
0.551139
-0.13392
0.140096
-0.00617641
-0.719907
0.142591
0.577315
0.286423
0.692935
1.32503
-0.800728
0.840556
-1.48026
0.639703
0.514528
-1.4132
0.898673
0.0395558
-0.420452
-0.49621
0.718172
0.649665
-0.962482
0.580638
-0.968325
0.387687
-1.55747
0.889816
0.667656
-0.0255382
-0.387966
0.185675
0.148258
-0.333933
0.722123
-0.260061
-0.462062
-0.118049
-0.791976
0.727496
-0.261699
-0.0838457
0.679273
1.04262
-0.821714
-0.220905
-0.010885
-0.13182
0.142705
0.65668
0.13726
-0.793939
-0.0417762
-0.354232
0.396008
-0.319018
0.864805
-0.545787
-0.448674
0.72703
0.583882
-0.389835
-0.0866914
0.312495
-0.225804
1.01091
-0.409251
0.0946409
-0.00812692
-0.086514
-0.241001
-0.170823
0.411825
-0.109294
0.113525
-0.00423129
1.31791
-0.800191
-0.517719
0.250435
-1.21203
-0.119579
0.0102852
-0.851993
0.258095
0.593898
1.38053
-0.544369
0.239671
-0.978325
1.49747
-0.625013
-0.872459
-0.0125724
0.107162
0.907383
-0.516698
-0.390685
-0.614237
0.130309
0.483928
-0.920283
0.917535
0.00274784
0.504426
-1.20926
0.704832
0.0348067
-0.025341
-0.00946564
-0.464679
0.618803
-0.154124
0.0127616
0.324525
-0.337286
-0.152006
0.0552537
-0.126372
0.0182431
-0.567304
-0.394871
0.404112
-0.910927
0.506815
-0.423086
0.435511
-0.012425
0.401696
0.254387
0.905222
-0.324585
-0.168055
0.0527955
0.676144
0.704385
-0.501969
0.0272999
0.474669
0.419818
0.487565
0.391705
0.0993046
-0.466585
0.0434988
-0.293504
-0.0400544
0.333559
0.0197784
0.00843457
-0.91675
0.597732
0.171658
-0.39074
0.219082
-0.943164
0.9128
0.0303645
-0.345582
0.433077
-0.0874954
-0.197157
-0.115612
0.312769
0.763026
-0.835832
0.0728061
-0.933535
-0.623936
1.25314
-0.790837
-0.462299
-0.0972423
0.0863573
1.29388
-0.789456
-0.525964
0.930076
-0.650385
0.183841
0.466544
0.927488
-0.25501
-0.672478
1.09196
-0.297173
-0.794783
-0.514599
-0.135785
0.849865
-0.507701
-0.342164
-0.171518
0.794779
-0.623261
0.117925
-0.81651
0.698585
0.162024
0.234314
-0.396338
-0.085384
-0.0206671
0.106051
1.29628
-1.11678
-0.179508
-0.524083
-0.479591
0.675669
0.36695
-0.865124
-0.0780403
0.138864
-0.379866
0.358073
-0.769205
0.411132
0.0034949
0.129984
-0.537408
1.11065
0.548817
0.769093
1.45304
-0.853124
-0.599918
-0.809302
0.581176
0.693995
-1.17572
0.481724
-0.62905
-0.0486732
0.677723
-0.297709
-0.137807
0.435515
0.552122
-0.226696
-0.220956
0.0870367
0.448898
-0.0612983
-0.434001
-0.586092
0.825509
-0.239418
-0.179552
0.0261111
-0.169889
0.0831977
0.106917
-1.0272
0.347402
-0.796076
0.111437
-0.177983
0.240329
-0.0623462
0.0146178
-0.243121
-0.480694
0.362412
0.118281
0.344351
0.199243
0.604193
-0.273728
-0.330465
0.482533
0.116702
-0.39919
0.757263
0.574269
-0.0655846
-0.21518
-0.504727
1.17859
-0.979407
-0.199183
0.726623
-0.861154
0.432079
0.429075
0.800391
-0.872633
0.0722418
-0.446761
0.353258
-0.119608
-0.0451681
-0.121021
-0.541276
0.314381
-0.551725
0.237344
0.42138
0.428486
0.669748
-1.11515
0.445401
0.261463
-0.547429
0.285965
-0.973447
0.174177
0.0245289
0.366238
-0.515989
0.779402
-0.263413
-0.243534
0.308474
-0.0649394
-0.452417
-0.0197154
-0.126275
-0.239169
0.365444
0.0891311
0.00076319
-0.0898943
-0.301202
-0.198135
0.365249
0.448808
-0.814057
0.846259
-0.426441
0.26184
-0.450109
0.00334841
0.48287
-0.221406
-0.661074
-0.1366
0.310239
-0.303215
-0.00702392
0.960848
-0.298438
-0.48281
0.75972
-0.276911
-0.120534
0.141706
-0.0211728
0.697435
0.0246887
-0.415764
-0.353441
-0.52283
0.938173
-0.415343
0.603593
-1.10998
0.506385
0.583021
0.670115
-0.0431954
0.0450275
-0.00183217
0.0970346
-0.726085
0.627221
-0.940868
0.313646
0.0613155
0.00408249
-0.0934432
0.642698
-0.369402
0.716805
-0.812159
1.32669
0.181865
-0.984646
-0.805483
0.434227
0.371256
0.649763
-0.114166
-0.535598
0.942116
-0.17909
-0.562709
-0.519324
-0.44679
0.65285
0.0525186
0.198877
-0.251396
0.322533
-0.305988
-0.736768
0.643325
0.835604
0.228484
-0.796287
0.313478
1.03178
-0.356112
-0.349779
0.363308
-0.0135299
0.0279667
-0.622504
0.594537
-0.900042
0.164826
0.735216
0.729102
-0.729102
-0.420574
0.828504
-0.40793
0.339843
0.26435
0.631576
-0.33263
-0.298946
-0.974578
1.01494
-0.0403572
0.348921
-0.0342533
-0.314667
0.267899
-0.104067
-0.163831
0.114065
-0.311222
0.210001
0.459125
-0.985089
-0.854629
1.00481
-0.150179
-0.288648
0.653897
0.0895145
0.0132207
-0.102735
0.051429
-0.255122
0.203693
-0.380362
0.419918
1.37246
-1.09274
-0.279727
-0.0884436
-0.519316
0.60776
-0.239636
0.25863
-0.0189936
0.13378
-0.277944
0.144164
-0.87125
0.318162
0.553088
0.209623
0.0958477
-0.389873
0.040094
-0.0105863
-0.112896
0.123482
0.663445
0.632839
0.115104
-0.0255895
-0.0491477
-0.272354
0.321502
-0.51887
0.822673
-0.303803
0.0193425
0.120935
-0.140277
0.399919
-0.267249
0.644799
-0.226677
-0.418122
0.0211537
-0.425978
0.216083
0.83445
0.446711
0.290107
-0.736818
0.470825
-0.405168
-0.0656575
-1.01286
0.189483
-0.392943
0.16168
0.231263
0.496817
0.712566
-1.20938
-0.637908
0.589235
0.0465861
-0.917028
0.870442
-0.130206
0.192189
0.0410193
-0.0373414
-0.00367791
0.0371893
-0.330694
0.00190035
0.0326888
-0.0345892
-0.671773
-0.18022
0.620569
0.136205
-0.0636762
-0.0725286
-0.129472
0.00893828
0.159351
-0.700509
0.541158
0.263369
0.527416
-0.790786
0.477558
-0.706933
0.861958
-0.155024
-0.725689
0.554171
-0.0267642
-0.0190345
-0.380897
-0.273975
-0.263192
0.0653094
0.197883
-0.896249
0.377379
0.661283
-0.749727
0.438489
0.593292
-0.329228
0.313712
0.015516
0.34718
-1.17916
0.831984
0.15959
-0.272922
0.113332
0.345919
-0.761683
-0.630215
-0.0441806
-0.320326
-0.0172582
0.103629
-0.125496
0.0218667
0.438929
0.0049365
-0.0240658
0.0191293
1.15058
-0.65376
-0.529928
0.862604
-0.332676
0.268934
0.186266
-0.4552
-0.354109
0.223903
-0.223877
-0.0393152
0.426871
0.204704
-0.204554
-0.62654
0.268703
0.0415359
0.608159
0.418145
0.156124
-0.959107
1.07376
0.124723
-0.450352
0.325629
-0.0877804
-0.827014
0.914795
-0.187749
0.207365
-0.0196165
-0.427249
0.444195
-0.5597
0.677625
0.831364
-0.271948
-0.413299
-0.0673943
0.00476812
-0.419093
0.414325
0.41016
-0.960352
-0.124684
-0.45682
0.581504
-0.103954
0.318415
-0.214461
-0.646397
0.0407904
0.605606
0.924757
-0.705418
-0.0122206
0.0874768
-0.0752563
-0.21952
-0.0201162
0.181386
0.370295
-0.55168
0.108707
-0.135354
0.0266472
0.572288
0.328208
-0.900496
-0.343675
1.11237
0.0856071
0.003524
-0.281984
-0.603236
0.885221
0.304233
0.639257
0.954977
-0.691607
-0.360407
0.234132
-0.1293
0.0439156
-0.445629
1.13962
0.126973
-0.761287
0.634314
0.847595
-0.140556
-0.70704
-0.479779
0.689297
-0.209518
0.392141
-0.459818
-0.388989
0.848807
0.131317
-0.130174
-0.00114233
-0.278886
-0.48858
0.767465
-0.205285
0.256714
0.039599
-0.0502564
0.508901
-0.787787
-0.700284
-0.21519
0.915475
-0.0561439
-0.490434
0.546578
-0.0793583
1.20159
-1.22357
0.0219764
0.208342
-0.134521
-0.0738209
-0.0133859
-0.315842
0.256909
0.241419
-0.329966
0.032257
-0.814323
1.0214
-0.207075
-0.222609
0.394267
0.256287
0.465757
-0.808128
-0.257165
-0.065737
-0.0726115
0.138349
0.533582
-0.115438
-0.205413
0.225334
-0.0199212
0.374196
-0.361434
-1.19171
0.614318
0.930984
0.197789
-0.116941
0.250721
-0.206431
0.475365
0.963343
-0.504218
-0.211604
0.00619041
-0.117428
-0.61934
0.188601
0.227158
-0.218935
-0.920241
0.0201991
-0.00666624
0.213957
-0.0543678
-0.789267
0.586382
0.202885
0.637705
0.118714
0.193786
-0.0655566
-0.128229
0.297898
-0.269465
-0.0284328
-0.73408
0.260925
-1.04781
0.524979
0.438629
-0.182054
-0.256575
-0.00786362
0.199689
-0.191825
0.986357
-0.00382894
-0.982528
0.160367
0.00997771
-0.170345
-0.142118
-0.264203
0.232105
-0.0237555
-0.0322996
0.0334118
-0.00111217
0.40221
-0.0395804
-0.36263
0.00730359
-0.0396032
0.8026
-0.660081
-0.0291152
-0.145905
0.17502
-1.01762
0.203295
0.0200307
-0.0906063
0.428267
0.0708539
0.0653508
-0.0368021
-0.131253
0.241008
0.17475
-0.415757
0.555258
0.180641
0.425738
-0.301015
0.201113
-0.177504
0.0758611
-0.319396
0.585056
0.0862036
-0.67126
0.543212
-0.0473582
-0.495854
-0.429284
-0.317481
-0.364306
0.0530261
0.31128
0.383178
-0.405172
0.021994
1.11161
-0.0415511
-1.07006
-0.33585
0.115608
0.220242
-0.50402
0.674861
-0.170841
0.591793
0.645659
-1.23745
0.319044
-0.456204
-0.28514
0.44231
-0.15717
0.218498
0.098858
-0.317356
-1.20077
0.769383
0.431382
0.0306625
0.00274928
-0.846199
0.145914
0.31022
-0.189023
-0.121197
0.475017
-0.603342
0.128325
-0.0902169
-0.192605
0.180756
1.02084
0.822395
-0.143749
-0.678646
-0.83911
0.132176
0.340687
-0.555866
0.848408
-1.28977
0.441361
-0.103163
0.288838
0.00172016
-0.371052
0.321904
-0.163294
0.218711
-0.151373
-0.822705
0.974077
0.5982
0.695681
-0.746915
0.776814
-0.0298987
0.116668
-0.0130392
-0.592698
-0.240043
-0.115125
0.12881
-0.013685
0.408962
-0.0068517
-0.402111
-0.0531418
0.254234
-0.201092
-0.0695541
0.544572
-0.759334
-0.0766352
0.835969
-0.721716
-0.252171
0.973887
0.460396
-0.3484
-0.111996
-0.198589
0.0150297
0.183559
-0.0350845
0.0528935
-0.017809
-1.00953
0.0482088
0.961324
0.0248473
0.190806
-0.215653
0.800958
-0.90093
0.0999718
-0.50558
0.463937
0.488683
-0.952619
0.0120092
-0.127134
-0.0331138
-0.839246
0.87236
0.614853
-1.23041
-0.947676
0.824952
0.122723
0.126403
-0.0176968
0.754736
-0.498449
-0.0508331
-0.218195
0.269028
-0.0101314
0.136188
-0.126056
-0.178286
0.884987
-0.706701
0.698821
-0.369966
-0.328855
1.03451
-0.977987
-0.0565258
0.749733
-0.264746
-0.484987
0.0423741
-0.227279
0.184905
-0.294917
-0.0142786
-0.926016
0.81202
0.113995
0.0522318
-0.978247
-0.277601
0.448876
-0.171275
-0.571978
-0.544799
0.191765
-0.163159
-0.0286055
-0.795695
-0.221923
-0.181394
0.122889
0.0585052
-0.294472
0.252696
-0.886066
0.858696
0.0273701
-0.161793
-0.0727323
-0.0233552
0.175803
-0.0154354
-0.589541
0.124862
0.137951
-0.161046
0.0230951
-0.47398
0.366009
0.107971
0.381181
-0.0322605
-0.233048
0.676016
0.0214192
0.351021
-0.156801
0.149783
0.00701834
-0.0796581
0.517824
-0.623146
0.406149
0.216998
0.0239918
0.00667066
1.26607
-0.667865
1.00581
-0.65863
-0.228669
-0.148613
0.377283
0.561953
-1.03349
0.471535
0.560496
-0.61664
0.948705
-0.429339
-0.519366
-0.00387785
-0.528182
-0.0949648
-0.48402
0.924203
-0.440183
-0.000997486
-0.384577
1.22513
-1.06396
0.26826
0.357657
-0.195633
-0.0849602
0.0798012
0.116601
-0.00307569
-0.492458
-0.484899
1.59424
-0.806882
-0.483202
0.333331
0.149871
0.0585642
0.209334
-0.655253
-0.429572
1.08483
0.212388
0.339734
-0.00468393
-0.139626
0.14431
0.821196
-0.184381
0.0544197
0.129962
0.676321
-0.0912654
-0.349576
-1.02258
0.167954
-0.21431
0.0111864
0.203124
0.611189
0.886284
0.333017
-0.414453
0.0814359
0.978985
0.0555279
0.619569
-0.876466
0.256896
-0.826475
-0.00928219
0.835757
-0.755025
0.98527
-0.230244
0.135104
-0.00582531
-0.129279
-0.573487
1.18834
-0.118433
-0.413123
0.531556
0.0211557
-0.768071
0.330016
-0.133817
-0.1962
-0.953288
1.24529
-0.292
-0.224135
0.544911
-0.320776
1.16222
-0.512745
-0.649473
-0.00191512
-0.590145
0.592061
-0.0332849
-0.00405651
-0.516816
1.10861
0.386319
-0.806893
1.08738
-0.483786
-0.182412
0.153297
-0.862243
0.0357681
1.17413
-0.504385
-0.0112219
-1.32498
0.260788
-0.00790057
0.383286
0.558469
-0.941755
0.544802
-0.13052
-0.414282
0.296532
-0.978193
0.681661
-0.134586
0.00895624
0.12563
-0.197656
-0.488328
0.685984
0.347388
-0.271527
-0.204603
-0.0120029
0.216606
0.110804
0.272064
-0.382868
0.0757567
0.116008
-0.903117
1.05479
-0.15167
-0.203842
0.0160928
0.456479
0.204896
-0.661375
0.547202
0.658356
-1.20556
0.163719
0.486044
-0.0165059
0.974722
-0.00247806
0.786956
-0.784478
0.0370301
-0.0176876
0.0659088
-0.0112649
-0.0546439
1.41694
-1.13889
-0.278049
0.444487
0.504218
-0.13905
0.0965298
0.0425205
-0.278001
0.794992
-0.516991
0.00800555
0.15702
-0.165026
0.696773
-1.03138
0.334611
-0.26779
-0.643301
0.911091
0.835706
-0.179026
0.287092
0.257709
-0.427261
0.016785
0.410476
0.285312
-0.804628
0.222053
-0.485207
0.263154
0.181934
-0.0659637
-0.115971
0.036787
-0.0700719
-0.0634447
0.57976
-0.516315
-0.178788
1.1656
0.760032
-0.617289
-0.142743
0.629862
-0.53773
-0.49998
0.154761
0.345219
0.129518
-0.462147
0.334387
-0.198301
-0.136086
0.0603647
0.133421
0.139053
0.734644
-0.873698
0.233748
0.168463
0.119065
-0.84078
-0.448408
0.118997
0.329411
-0.336805
-0.22724
0.564045
0.486846
-0.245838
-0.838643
0.549995
0.236321
-0.189365
-0.046956
-0.470943
0.928514
-0.457572
-0.42982
0.450973
-0.462008
0.499294
-0.0372863
-0.577165
0.959963
-0.382798
-0.0195707
0.204317
-0.184747
-0.28405
0.276186
-0.271552
-0.56488
0.903388
-0.338508
-0.550732
0.693323
0.49675
-0.513739
0.0169885
0.150822
0.301068
-0.45189
-1.24238
0.811126
0.43125
0.029604
0.0631099
-0.0927139
0.0851634
0.686821
-0.865107
0.97866
-0.416707
-0.327527
-0.477955
-0.700144
0.697666
0.484267
-0.0120849
0.37184
0.109646
-0.481486
-0.330533
0.304122
0.0264112
-0.31542
0.140886
0.174534
-0.323797
-0.38937
0.713167
0.0405196
0.462218
-0.502737
-0.726739
-0.271485
0.998224
-0.301115
0.451936
1.0235
0.393439
-0.897912
0.545262
0.35265
-0.510336
0.133501
0.376835
0.00399525
0.176772
-0.226559
0.0497876
-0.567017
-0.90336
0.579562
0.13042
0.196049
-0.153675
0.0852122
0.32375
0.000676547
-0.850807
0.0259468
0.279377
0.200474
-0.01487
-0.185604
-0.653579
-0.509093
1.16267
-0.177106
-0.250155
-0.49428
-0.0996402
0.59392
0.104361
0.204725
-0.309086
-0.00773344
1.12999
-0.739006
-0.390981
0.17763
0.644764
0.108967
0.0378895
-0.544829
0.506939
-0.654129
1.08259
-0.428464
-0.555241
-0.257198
0.812439
-0.4556
0.17046
-0.388483
-0.111497
0.850045
-0.422624
-0.427422
0.430131
-0.0706611
-0.359469
0.367547
0.056537
-0.424084
-0.16422
0.189067
0.144531
-0.217921
0.0733892
-0.074825
-0.0263923
-0.206431
-0.00619176
0.449427
0.400618
-0.36769
0.880735
-0.47165
1.26226
0.427281
0.00284994
-0.849369
0.294128
0.724995
-0.62796
-0.105637
-0.63269
0.12867
0.146532
-0.424134
0.71354
-0.685574
0.824206
-0.0238147
-0.191377
-0.110863
-0.253472
-0.068135
0.321607
-0.292876
-0.0361465
0.709849
0.152968
-0.862817
0.0145273
-0.243804
0.229276
-0.0620892
0.451168
-0.899478
0.448311
0.866887
-0.0659294
-1.03566
1.11839
-0.0827248
0.20632
-0.136796
-1.05087
-0.191509
-0.304305
0.839465
-0.0274444
0.492401
1.10066
-0.401739
-0.698917
-0.633455
-0.034898
0.668353
0.254012
0.475272
-0.729284
-0.689689
0.0432927
-0.163186
-0.126897
0.290083
-0.46811
0.595083
0.133663
0.503869
-0.637532
0.1455
-0.0512413
-0.0942588
-0.962314
0.120626
0.841688
0.445004
0.533656
-0.247832
0.546683
0.20305
-0.276041
-0.116902
0.825396
-0.960839
0.384273
-0.195668
-0.188605
0.479552
-0.160508
0.665918
0.0393447
-0.705262
0.793876
-1.26553
0.00406604
0.0307406
-0.219331
0.314826
-0.0954952
-0.897559
0.864446
-0.023584
0.281842
-0.258258
-0.254083
0.174565
0.0795183
-0.374201
-0.0530476
-0.252851
0.593537
0.209886
0.228742
-0.145841
0.157851
-0.397136
0.0429046
0.0256776
-0.0510186
-0.180657
0.173419
0.00723823
0.196721
-0.22113
0.0244088
-0.46812
0.35708
0.132665
-0.626945
-0.0387669
-0.27592
0.0105162
0.547111
-0.557627
0.313842
-0.353897
0.0984479
-0.757288
0.65884
-0.255376
0.772517
-0.517141
0.202196
-0.788287
-0.47671
-0.0242197
-0.923456
0.818425
0.775813
-0.729842
-0.108801
-0.470081
-0.391073
-0.407618
0.168448
-0.0482449
-0.00971379
0.0579586
1.33997
-0.728782
0.812586
-0.185365
-0.229862
-0.148483
0.378345
-1.1991
0.549468
0.649628
-0.431654
0.285602
-0.41514
0.879077
0.153456
-0.0884057
-0.328797
-0.442749
0.324316
0.382151
-0.390938
0.00878719
-0.116286
0.826135
-0.346796
0.410127
-0.0633311
0.777998
-1.2667
0.569781
0.69692
0.183205
0.229217
-0.412422
0.548066
-0.196035
-0.352032
-0.51246
0.288325
-0.798473
0.00295894
0.364588
0.884791
-0.972572
0.39689
-0.178392
-0.385919
0.671231
-0.806412
0.571997
0.234415
0.739443
-1.08292
0.343481
-0.679121
0.724644
-0.0455232
0.406202
-0.48586
0.012549
0.21861
0.241786
0.189671
-0.816552
0.360184
-1.07527
0.622754
0.452521
0.226757
-0.860213
0.620955
-0.0359679
-0.578269
0.133624
0.26634
1.02203
-0.34337
-0.678662
-0.0627292
0.243587
-0.580392
0.145957
-0.948105
0.913207
-0.76573
0.305912
0.461788
-0.645557
0.344532
0.301025
-0.856294
0.516955
0.339339
-0.21047
0.153113
-0.257067
-1.00822
0.703644
0.304576
0.627444
-1.20093
-0.891256
-0.011861
1.26129
-0.412879
0.148459
0.106349
-0.254807
-0.0210764
-0.128938
0.150014
-0.154777
0.451605
0.525822
-0.378718
-0.266839
0.157373
0.190015
0.213256
0.345987
-0.559243
0.3663
-0.218042
-0.0358688
-1.03988
1.07575
-0.310582
0.375252
-0.735968
-0.583053
-0.42485
1.0079
0.234134
-0.318338
-0.666694
0.204113
0.462581
-0.000445753
-0.0630818
0.0635275
0.694067
-0.84544
0.0510399
-0.270371
0.56847
0.574576
-1.14305
-0.434991
-0.0482101
-0.809115
0.225742
0.583374
-0.938926
0.671137
0.414973
-1.0691
0.292724
0.0915493
-0.015028
0.0145822
-0.0243258
0.871921
-0.584359
0.735086
-0.150727
0.809474
0.00259109
-0.812066
-0.602476
-0.0115712
-0.166412
0.0632456
0.665857
0.113681
0.0280257
0.266081
0.585646
-0.245803
0.482031
-0.242346
-0.0730738
-0.835533
-0.0505327
-0.82367
0.278069
-0.794766
0.163581
0.183968
-0.347549
0.771525
0.048036
-0.819561
-0.0968067
0.0909814
-0.336298
-0.711512
-0.757845
-0.114788
-0.499243
1.29312
-0.321308
0.442988
-0.12168
-0.930404
0.276825
-0.272244
0.4855
-0.241621
-0.547647
-0.524622
-0.292154
0.301361
-0.52495
0.0509694
0.960965
-0.1215
0.579071
-0.238328
-0.340743
0.0642358
0.24826
0.242081
0.988308
-0.941722
-0.00521871
-0.213102
0.306992
-0.467561
0.494861
-0.436292
-0.534403
0.211053
0.162681
-0.373733
-0.765678
0.036576
-0.117612
0.742468
-0.624856
-0.0500326
-0.985629
-0.66182
0.799079
1.44259
-0.642443
-0.800152
-0.123919
0.285598
0.732399
-0.378893
-0.353506
0.248933
-0.275326
0.0305232
0.0353856
-0.179018
0.0327425
0.146275
-0.101522
0.473362
-0.571522
1.19897
-0.0236535
-0.139506
-0.2598
-0.0790165
0.338816
-0.0204114
0.714478
0.40966
0.217072
-0.626732
-0.36964
0.551026
0.400061
0.39493
-0.389891
-0.0585168
0.503524
-0.189054
-0.31447
-0.0513569
0.0371839
0.014173
0.149429
-0.766948
0.617519
-0.886896
0.129051
0.207057
-0.51589
0.793959
-0.00908902
0.258022
0.118519
-0.439827
-0.902868
0.456078
-1.0279
0.320712
-0.428419
0.0480568
-0.376952
-0.555
0.931951
-0.769453
0.0961687
-0.00456063
-0.0916081
0.997882
-0.774742
0.777056
-0.523044
0.137528
0.503934
-0.641462
0.18361
-0.346796
-0.441717
-0.291219
0.732936
0.313416
-0.279302
-0.034114
-0.585343
1.23216
-0.646822
0.716948
-0.478326
-0.238622
0.620486
0.0220119
-0.642498
-0.524096
-0.742605
-0.300042
-0.0202832
0.376248
0.597012
-0.0112889
0.0836406
-0.0723517
-0.653077
-0.156038
0.634265
0.551818
-0.512052
0.615184
-0.103132
-0.216082
0.270502
-0.0301999
0.251016
-0.220816
0.0609411
-0.407737
-0.116113
-0.892107
-0.88358
0.221269
0.0150524
-0.0497657
-0.287171
0.0731265
0.690736
-0.763862
-0.474502
-0.115039
0.458092
0.388167
0.0635098
-0.229187
0.0379578
0.168173
-0.20613
0.0552873
-0.331164
0.275877
0.165724
0.267353
0.358423
0.795619
-0.37424
0.808576
-0.433324
-0.10401
-0.237335
0.341345
0.712805
0.0819739
0.0198436
-0.643312
0.445656
0.239934
-0.260346
-0.463278
-0.69634
1.15962
-0.609379
-0.589717
-1.06816
1.10666
-0.0384952
0.326166
-0.329156
0.261021
0.528933
0.266686
-0.309492
0.389893
-0.0804009
-0.265268
-0.504572
-0.255587
-0.444811
0.700398
0.457059
-0.24467
0.493505
-0.271452
0.556803
-0.893101
0.430682
-0.331304
-0.486764
0.908566
-0.421802
0.680723
0.439905
0.296409
-0.736314
1.08795
-0.612643
-0.47531
-0.631963
-0.628823
1.06776
-0.438942
0.27204
0.307031
-0.269358
0.260269
0.4029
0.759318
-0.192337
0.17126
0.0211056
-0.0161691
0.900665
-0.502054
0.455897
0.884074
-0.381772
0.200317
0.181456
0.194372
-0.423041
0.70528
-0.0393623
0.346737
-0.198278
-0.634243
-0.12151
0.755753
0.170906
-0.0279027
-0.143003
0.12884
0.0795019
0.12843
-0.883455
-0.263928
0.301117
0.646969
-0.573788
-0.0731805
0.15769
0.345834
-0.135289
0.0697324
0.24849
0.205725
-0.454215
-0.401144
1.10774
-0.151876
-0.530682
1.08174
-0.551057
-0.25749
0.368294
0.124279
0.0212207
1.05155
-0.532791
-0.332333
0.239263
0.308803
0.279653
-0.31842
-0.148946
0.129375
-0.27668
-0.124586
-0.00488591
0.188063
-0.143852
0.761892
-0.618041
0.102799
-0.113385
-0.295828
0.0776334
-0.299717
-0.000325164
-0.847821
0.565837
0.232341
0.209969
-0.443697
0.239765
0.203932
0.241067
0.0473925
0.761892
0.425394
-1.18729
-0.0891553
-0.0160576
0.105213
0.160677
-0.690605
0.961215
0.48138
0.733569
-0.660443
-1.07445
-0.0671469
-0.0208337
0.0233838
0.429046
0.388848
0.379986
-0.768834
0.363537
-0.0496951
-0.0293961
-0.296771
-0.0850007
-0.506476
-0.382176
0.511693
0.449055
0.413549
0.520485
-0.535967
0.0154823
0.166857
0.00656134
-0.061778
0.228817
-0.0320962
0.66983
0.163117
-0.832947
0.454347
-0.0721961
-0.206034
0.125901
0.080133
-0.31623
-0.00583588
0.322066
0.23436
0.578483
-0.812843
0.20105
0.285796
0.640378
-0.0175177
-0.241071
0.360046
0.2256
0.111185
-0.198102
0.0869165
-0.971421
0.495569
0.782443
-0.618122
-0.164321
0.011937
-0.118842
0.106905
0.746893
-0.810337
0.54074
-0.0836809
0.391201
0.385855
-0.114491
-0.0100946
-0.285559
0.1021
0.183459
-0.522546
-0.104934
0.999028
-0.511722
-0.487306
0.451468
-0.0414836
-0.409985
0.392453
-0.651939
0.259486
-0.0838917
0.464294
0.0185758
-0.475221
0.986972
-0.511751
-0.172286
-0.113273
-0.43982
0.412825
-0.00269786
0.681078
0.00274544
-0.683823
-0.291942
-0.00819832
0.208673
0.121447
-0.0249171
0.215896
0.0989296
-0.362085
0.308943
0.00220849
-0.0653479
-0.114869
0.1238
-0.360999
0.498527
0.00753076
0.219627
0.236835
-0.234879
0.636575
-0.0470038
0.567489
-0.127192
-0.100444
-0.203235
0.451726
-0.149275
0.862805
-0.713529
-0.738521
-0.107677
-0.729405
1.09734
-0.367937
-0.0161767
0.429002
0.288964
-0.0551632
-0.0168493
-0.218953
0.235803
-0.777
0.24421
0.0995987
-0.111819
0.513105
-1.16836
0.376682
-0.979919
-0.698216
1.16795
-0.444175
0.464771
-0.259046
0.0110243
-0.564716
0.714145
0.000782455
-0.132603
0.125272
-0.473672
-0.0930657
-0.551392
0.644458
-0.404663
0.49936
1.31768
-0.865232
-0.452443
-0.196565
0.0634448
0.189317
0.0191323
-0.208449
-0.727965
0.143606
0.162872
0.0190626
-0.00528708
-0.106816
0.112103
0.439056
-1.16846
0.0826742
0.403369
0.0343724
-0.437741
-0.958049
0.808774
0.122511
0.0330457
-0.155556
0.340389
-0.905269
-0.122341
-0.00110721
0.123448
0.156912
-0.0344013
-0.00472436
0.654455
-0.490736
0.533724
0.453001
-0.25195
-0.817737
0.234684
-0.602721
0.490484
0.112237
0.648874
-1.11215
-0.458078
-0.268286
0.726364
0.0258958
0.361336
-0.269919
0.235666
1.04758
-0.154013
-0.893569
-0.0120814
-0.823452
0.5678
0.0526852
0.357817
0.374582
-0.137013
-0.00261319
0.120996
-0.233599
-0.318127
0.0391475
-0.0336075
-0.00553991
0.0158691
-0.623144
0.607275
-0.0859387
0.29599
-0.210052
0.419244
-0.992111
0.572867
-0.0873763
-0.480009
-0.028714
0.0150817
0.607382
-0.311492
-0.168497
0.479989
-0.328944
-0.342829
0.399022
-0.236341
0.298754
0.1342
-0.432954
-0.37119
-0.0725068
-0.697305
-0.110671
-0.0330958
0.143766
0.154839
0.206107
-0.360946
0.378978
-0.771042
0.392064
0.0293875
-0.4915
0.152693
-1.10598
-0.399149
-0.90686
1.30601
-0.845203
0.0343076
0.810895
-1.12338
-0.705716
0.0265948
-0.260175
0.258432
0.00174288
-1.28015
-0.302256
0.972085
0.343166
-0.168416
0.0886619
-0.291897
-0.137874
0.42367
0.128415
0.0808213
-0.340621
0.0130484
-0.104812
0.0917633
-0.183215
0.0544816
-0.0698198
0.0817568
-0.257989
0.441194
-0.914684
0.550479
0.364204
-0.221493
0.000537091
0.492824
0.175224
-0.00431775
0.0284718
-0.337963
-0.435965
-0.23073
-0.485404
0.164356
0.321049
-0.0557036
0.336128
-0.280424
-0.374355
0.429643
-0.0711308
0.648446
1.03449
-0.624827
0.463855
-0.792799
0.375806
-0.502977
0.127171
0.0905361
-0.0030593
0.0449591
6.84821e-05
-0.922467
0.545515
0.0683217
0.383147
0.0127433
-0.168162
0.155419
-1.47416
0.583751
0.250211
-0.421034
-0.166194
-0.0171121
-0.190896
0.208008
-0.498241
0.186749
-0.975272
0.859159
1.21961
-0.651137
-0.173039
0.159058
0.0139816
-0.116304
0.0436929
-0.127628
-0.755181
0.157385
0.597796
-0.119779
0.103721
-0.0355148
0.278692
-0.243177
0.327409
0.21333
0.131371
-0.12118
-0.0101913
-0.240155
0.247686
0.0698572
-0.00854172
0.451874
-0.832175
0.935765
0.0432201
-0.538584
-0.107726
0.848239
-0.0349136
-0.813326
-0.141989
-0.275617
0.417606