/*--------------------------------*- C++ -*----------------------------------*\
| =========                 |                                                 |
| \\      /  F ield         | OpenFOAM: The Open Source CFD Toolbox           |
|  \\    /   O peration     | Version:  2306                                  |
|   \\  /    A nd           | Website:  www.openfoam.com                      |
|    \\/     M anipulation  |                                                 |
\*---------------------------------------------------------------------------*/
FoamFile
{
    version     2.0;
    format      ascii;
    arch        "LSB;label=32;scalar=64";
    class       volScalarField;
    location    "2.7";
    object      p;
}
// * * * * * * * * * * * * * * * * * * * * * * * * * * * * * * * * * * * * * //

dimensions      [0 2 -2 0 0 0 0];

internalField   nonuniform List<scalar> 
13486
(
2.29205
1.82964
0.193045
-0.387999
0.734215
-0.121639
0.339151
1.27793
1.55732
0.778932
-1.43034
0.411023
2.4119
-0.300276
0.589132
0.871514
-7.20789
-0.309196
0.553812
2.0672
-0.315799
2.38306
1.79207
-0.705987
0.743405
-0.669158
-1.33851
-0.480151
0.00256567
-0.36244
-0.225102
0.404515
-0.953558
-0.271107
1.28205
0.0107153
0.0656407
1.86542
0.0428465
1.56119
0.138514
2.50282
0.0309227
0.747495
0.708678
0.394917
-11.0887
0.000685759
0.0584453
-0.556633
1.34026
0.0119387
0.255022
1.89825
-0.284694
0.796716
0.0987754
0.0119407
-0.922218
0.0869657
-1.05604
0.0891215
-2.85565
-0.296857
-0.382357
0.0685674
-0.417685
2.2958
1.54693
0.0428099
-0.418744
-0.311584
1.57517
-5.44092
0.0728994
0.0907295
0.0648547
0.574816
-9.7836
-0.0147664
0.00994681
1.85038
-3.12517
0.200346
2.3014
0.854062
0.122244
1.26251
1.5144
0.865123
0.185988
1.11004
2.19777
1.9655
1.61053
0.0117114
-1.17089
-0.431136
1.53661
-7.21327
0.0271462
-0.213159
-0.429862
0.0109664
1.0683
-7.49421
1.54351
0.0352881
-10.6049
0.988232
1.48318
0.349853
1.89733
0.0755054
2.70123
1.55326
0.743472
-0.250142
1.58658
0.0542535
-0.37858
-1.01642
1.68503
0.0362161
1.48094
0.0131567
1.10909
0.392462
-0.206798
-0.330369
0.0124313
-10.747
-4.33366
-5.6045
1.41471
1.21808
2.75128
1.03146
0.053975
1.32259
-0.837286
0.228616
0.407247
-0.0177131
0.0665871
-1.88137
0.186648
1.75787
-0.609726
0.00836795
0.897345
0.541051
0.00330494
1.8884
0.436177
0.187182
0.800852
0.0768113
1.69154
0.129917
-0.434275
1.69237
-0.0771698
2.49554
0.00925623
-0.546894
-0.0575077
3.13499
0.187767
-5.64244
-4.59789
0.452453
1.05697
0.829514
0.0118211
-0.505981
-0.561997
-1.02642
1.54732
0.425594
1.46363
0.0697124
0.660549
-0.434539
0.23392
-0.482919
0.00224888
-0.345003
0.211801
1.63468
0.0603029
0.133203
0.00448187
1.98
-0.015653
-1.42683
-0.343767
-0.436871
2.05682
-0.457661
-0.233616
0.375722
1.86925
0.560656
0.121202
-0.0208492
-0.164471
1.68617
0.0109213
0.236468
-0.396048
-0.481929
2.04075
1.5414
-0.127457
-0.151887
-0.390237
0.890071
2.08251
-1.99007
-7.46041
-0.632185
1.35792
-0.454132
0.14439
2.22855
-0.410491
-0.346184
-0.105416
0.122073
1.44704
-0.310085
-0.868512
2.55457
-0.381541
2.14213
-0.29322
0.138914
2.16424
0.692269
-0.914802
1.04121
0.0770223
2.03967
0.0637853
1.7569
0.724878
-0.508465
-6.14239
0.849157
-0.485543
2.73393
1.50074
0.0332644
-0.0544081
-0.548989
0.380254
-0.143528
0.112846
-0.846575
1.67484
0.0652874
0.578248
-0.536185
0.815693
-0.431281
-0.109284
-0.259972
1.48754
-1.59149
1.51993
1.50132
-0.404296
0.316198
2.23217
-0.484512
-0.0555507
-0.206626
0.0291851
0.190264
-0.20223
1.29106
1.55581
-1.07675
-0.853603
-4.06565
-0.882909
-0.225042
0.169034
1.49467
-0.376557
0.094201
1.60903
1.42867
-0.280749
-0.319403
-0.410995
0.316084
1.59161
0.245978
-0.116715
-0.191369
0.193616
0.442354
0.0543387
0.588399
-0.323274
0.766703
0.113892
0.0578195
-5.14719
-0.380553
-0.288378
0.341221
-1.50341
1.24329
0.098162
1.51675
1.69345
-0.14204
0.0684459
0.0808314
1.53013
1.97681
2.70775
0.230408
0.980569
1.26279
0.269176
0.905822
1.2794
1.05865
0.0965844
2.10928
0.320527
1.52086
2.7961
0.577248
0.940442
0.0703263
-0.126434
1.95594
0.871379
0.679048
-0.464734
0.0118333
1.04226
2.69606
-1.97354
0.091396
1.0024
0.279898
0.305998
-0.878469
1.58198
0.0407695
-5.1123
1.08562
0.109975
-0.472341
0.543293
0.134434
1.70708
1.50418
-0.383598
0.00116541
-0.298564
-10.3982
2.08714
1.09739
0.0213157
1.05931
0.149553
-0.490597
-0.124657
1.37168
1.56161
0.0811082
-1.47718
-3.27477
1.47059
1.02448
2.41811
1.61065
-10.9254
-0.0672626
0.157835
0.919824
-7.46683
-0.169887
2.0075
-0.455777
0.666657
2.18404
2.25322
0.0523717
-0.401583
-0.487705
-8.14731
-0.891564
-7.78642
0.336083
1.37917
-0.360346
0.37666
0.106271
1.93647
-0.970772
1.11825
1.72196
0.912874
-1.24206
-0.50791
1.596
1.54454
1.90853
-0.430406
0.839527
-5.3565
0.716452
1.54897
0.168149
2.70603
0.987303
-0.434972
-0.329792
0.353675
1.55048
-1.51334
0.0403478
2.36419
1.38624
0.651484
0.165937
0.664357
-0.579455
2.40615
0.0866265
0.87304
2.2587
-11.7984
-0.423942
-5.79377
-0.508272
0.12984
1.82506
1.7941
2.37836
-3.32278
0.0521739
-0.476991
0.961302
1.54342
-0.551836
-1.38807
1.52853
-0.481715
-0.505932
-1.05665
-1.78337
-0.162135
1.9313
0.0157838
0.072391
-0.351365
1.46232
0.00321555
2.966
2.22037
1.57195
1.22423
0.0146153
0.00404395
2.77917
-0.0822836
0.0507648
-0.416647
1.53462
-4.64681
0.305835
1.07839
0.0379929
-0.673072
1.77144
-1.56738
-8.26815
1.00396
-0.183085
3.12366
1.01619
1.3585
1.67679
-0.518916
0.234939
2.50859
0.728343
1.98916
0.301222
0.458534
-0.27437
-0.0117646
0.0371035
-7.31857
1.57631
1.51923
-0.487131
0.00562288
-0.156756
2.27602
1.83005
-0.0668124
1.54869
1.13648
-0.656276
0.812663
1.3869
-4.85583
2.37837
0.0569717
0.0390208
2.48718
1.03464
0.00717076
1.02834
-0.288916
-0.481732
0.633299
0.940109
1.71003
2.20279
-0.428335
0.658949
-0.447806
0.00822137
2.13793
0.450853
-0.434104
-0.435639
0.125775
0.105788
1.23748
-0.369695
-1.31327
1.5531
2.08598
-0.00898653
1.6714
-2.06268
-0.493565
-1.86797
0.662268
-0.495649
1.6994
0.228315
-0.984469
1.3122
1.80911
-0.822427
-0.438136
1.35637
2.14691
0.468057
2.31133
0.223201
1.02692
0.382767
1.71276
0.0636766
2.08904
-1.00761
0.312016
1.47564
-0.18322
-0.459912
1.5248
-11.4975
0.320548
1.75439
2.37531
-0.288402
0.0930297
0.409692
0.129046
1.38983
1.06793
0.454789
-0.87701
0.0952307
2.27395
0.29408
0.0969612
-0.616527
2.39116
-0.212381
0.0752776
1.4968
1.20464
-0.0138289
-0.361567
1.29864
0.255565
0.135461
0.626099
-1.47147
2.32154
1.51882
1.08792
1.11909
-0.18478
-0.906602
2.61177
0.480738
2.61862
-0.33537
1.52311
0.0142099
-5.55527
0.899382
0.846609
2.74256
-0.464585
0.98099
0.943489
-2.10254
0.806833
-0.227285
-0.6982
1.50685
-0.428897
-0.442055
-0.585643
-0.323873
-0.192025
1.66525
0.00906176
2.53611
1.54136
0.120835
-0.490211
-0.386598
0.517787
-0.889262
-0.419703
-7.01543
2.12551
0.00106444
0.0949706
-0.649939
2.42583
0.00452702
-0.177428
2.48229
1.35618
-0.4601
0.000854588
1.09291
0.189989
1.46312
0.069844
-0.320991
0.599726
1.41203
0.47507
1.28145
2.51891
0.0725805
-0.44503
1.51002
0.243646
-0.139742
1.04765
1.14638
0.669351
-0.448555
0.229934
0.0761311
0.274634
2.13479
0.502555
0.257222
0.207717
0.0458432
-0.0302118
1.53603
0.111963
1.43049
1.46424
2.1157
-0.560439
-1.34015
2.59797
0.0206668
-0.484786
1.6222
-0.615082
1.73262
0.0714312
1.49824
-0.357212
-5.66976
-0.575875
0.0115125
-8.06504
0.816279
2.67466
-0.179177
-1.56082
-0.473483
1.57404
-0.811922
0.68994
-0.724997
2.64913
-0.458025
0.802332
-0.577466
0.885575
1.5317
0.539881
-3.07004
-0.264711
2.458
1.56305
0.626234
1.39583
0.0213724
1.20812
1.21753
0.902154
-5.27258
-0.0625032
1.91814
0.353553
0.0188426
1.26487
-0.480329
-0.170945
0.0328902
1.666
1.6289
-0.406846
0.237979
-0.4648
-0.286663
0.262165
-0.187369
0.135842
1.49589
-0.113864
-1.58178
1.79071
-0.114334
-0.286545
-0.161009
-0.585339
-0.40913
-0.527096
0.0657985
-0.587285
1.45338
2.40864
0.0510795
-0.282087
2.48862
2.33459
-0.280801
-0.347253
1.58119
-11.3377
0.0877643
-0.593917
0.0668585
0.835352
-8.11006
0.735645
1.04037
-0.516025
-0.220888
-0.818597
-0.117696
1.32378
0.634548
1.00838
-0.430922
1.29446
2.28645
-4.56337
-0.568385
1.71606
0.489311
0.995315
0.0457696
-0.352647
-0.443324
-0.0769196
1.58063
2.62496
1.69362
-0.256447
-0.119358
1.53367
2.22704
-0.389032
1.63662
1.5342
2.32479
0.376064
0.0686828
0.271556
-0.141163
2.31579
0.245038
-0.122527
1.06736
-0.0617692
0.407051
-0.0476544
-1.09886
1.45805
1.12812
1.068
0.730783
-4.83046
-0.247636
-0.16623
0.843251
-1.55149
-0.885871
0.072128
-0.693583
-1.00473
0.818757
-0.363228
-6.11336
-3.78378
-0.218581
1.1197
-1.64314
-0.490943
1.72631
-0.305505
2.38485
-0.340167
-6.13954
1.80945
2.15249
0.0737869
0.102363
0.298017
1.57918
0.845338
-2.05424
-0.00536548
0.0538622
-0.208141
1.50389
0.0944924
0.909272
0.0787128
1.53876
-1.65992
0.071285
0.0255408
1.86651
-0.693166
-1.26672
-0.595257
2.36441
-1.19498
-0.444439
-1.85467
1.53969
-0.478556
0.0846409
0.381909
0.720776
-0.0367271
1.04978
-0.373764
1.23449
1.51713
1.77536
0.705328
0.03845
-0.212699
1.16068
-0.607704
1.83694
1.02048
-0.021834
0.0337982
-0.0812537
-0.0204552
0.0525696
1.73954
0.653324
0.198581
1.53597
-0.279332
1.22709
2.71188
-0.0439398
-1.65319
1.05195
0.138618
0.035854
-0.0933417
-0.342907
1.54236
0.0778997
0.0264971
0.0665751
-1.44883
1.95794
-0.464637
-0.00221602
1.54036
0.128848
2.17387
1.76072
2.04556
0.415294
0.933394
0.451406
0.146145
1.13353
1.51265
-0.349391
-0.189356
-4.26429
-0.308683
-0.620033
1.54339
-1.54651
-0.86435
-0.685897
-0.338581
0.0383539
1.5397
0.0224858
0.143136
-5.51097
1.5515
2.67329
0.119167
-1.35417
0.856248
-0.10947
1.5272
0.124934
0.0544891
1.84472
0.000746057
2.52698
1.0705
1.52382
-0.353773
1.99153
0.0847168
1.76905
0.0591686
-0.852331
-0.566563
-0.489579
1.04781
0.0828214
-0.250338
2.37947
1.54719
1.64779
2.16867
1.68329
1.86214
-0.158699
1.59621
1.56425
1.58445
-0.150226
-0.394272
-0.568291
-1.56094
0.336967
1.71491
-5.59146
2.36055
-1.56839
0.0780706
2.6036
2.19083
-0.181279
-0.519509
1.55178
0.790733
-0.00348694
1.43917
-5.8035
-0.556019
1.52493
2.11842
0.0541226
1.68701
1.97189
0.00656992
-0.425787
1.98041
0.681741
0.0565569
-0.653123
0.195248
-1.04177
1.43485
1.07023
0.0794031
-0.170309
-0.403414
0.345236
0.0349673
0.399291
2.23963
0.0199991
2.90531
1.55556
0.536327
1.73005
-0.466821
-4.50804
-0.471386
1.53994
0.0471669
-5.14719
-0.223715
0.772795
0.883961
0.0721579
1.06927
-9.49149
0.78232
-1.5499
0.0824332
1.23729
0.46186
1.9876
1.5697
1.60492
1.48095
-0.193735
-0.769225
-0.701377
0.207748
-0.309
-0.241816
1.21364
-0.272538
0.0357204
0.0768231
-0.180956
-0.741834
1.08369
0.703604
0.155836
-0.416119
0.738955
-0.638091
-0.616321
0.272936
0.0935026
1.6843
1.14853
1.96071
-5.73755
1.40024
0.0699574
2.14038
-0.25905
0.815862
-1.81555
-0.154775
2.48379
2.58334
1.29562
0.808848
1.04479
1.40305
2.51157
1.03766
-0.858598
-0.676013
0.348109
-1.56822
-5.34897
1.54242
1.51161
0.00033776
0.355822
1.26793
1.41064
2.73805
-1.6797
1.19882
-8.64744
-0.207322
2.19633
-0.0841278
1.27394
-0.248126
0.560745
0.596936
2.85819
0.137236
-0.55601
0.78804
0.294347
-0.473479
-5.65397
-0.439919
1.69945
0.145016
0.818908
2.33276
2.14787
-0.026658
-2.89636
0.134113
0.265008
1.78946
1.48091
2.12433
0.937598
-1.83208
2.22736
1.38398
-1.88379
1.16887
1.56549
1.92389
-1.31745
-0.328115
-0.000184143
1.31118
2.44487
0.8155
-0.249648
-1.01509
2.75092
-3.48659
-0.841917
2.55419
1.36569
-0.0629667
1.22661
-0.404496
0.839552
-0.256691
-3.22493
0.0663865
-0.487485
0.13988
-0.201253
-11.6085
-7.75267
-3.53254
0.201276
-7.82418
-0.488773
1.28362
1.42062
0.769529
-10.1858
0.351945
0.232266
-0.196608
2.89056
0.998735
-0.644462
1.34589
-0.261266
-0.496471
1.24366
1.23099
1.51656
2.92902
0.00757148
-0.0865627
-0.700084
0.236855
1.03304
1.4885
-0.532099
2.25021
1.0372
1.62849
-0.272342
-0.0022048
0.0988948
1.58185
1.54117
1.63211
1.53196
2.68401
2.62411
-0.27289
1.36365
1.95192
-0.623028
2.11619
0.0331858
2.59279
2.09598
0.121414
1.739
0.753096
1.15958
0.138761
1.54979
-0.758207
1.34496
0.549203
1.01216
-0.106384
1.52489
0.0274893
0.327063
2.50233
2.49413
1.01761
-5.67281
0.408792
0.018299
-0.073489
1.22818
2.23803
-5.82147
1.58862
1.46552
0.748248
1.57357
-0.560463
-0.248925
0.0784585
2.73993
0.44788
0.138013
1.75825
-0.106426
0.0847666
0.786454
0.344898
1.16951
0.56744
-0.359007
0.908717
1.21914
0.995557
1.13424
2.64735
2.16779
1.89853
1.91889
2.44476
0.727755
0.0253511
-0.203406
-1.84318
2.4746
-0.272341
1.53361
1.3737
-0.478474
0.793683
1.69907
-0.505661
0.763089
0.946423
2.96574
-0.783378
0.67764
0.00562314
1.74164
0.192737
-0.373099
2.43203
2.07177
1.47974
1.53322
-0.292988
0.681423
-8.15625
2.61853
0.0634332
2.83683
-0.223668
-0.327594
-7.09007
0.784541
-5.25413
0.083702
0.0203072
0.571713
0.117362
0.552808
-0.401263
0.000750433
-0.238209
-5.75728
-0.491582
-2.22032
0.143248
-0.0268815
-0.356182
-0.898093
1.55627
1.58727
1.94484
1.52819
0.610885
0.607118
3.1461
1.49906
-1.99647
0.00909264
-0.105898
1.17624
1.35635
2.25446
-0.919991
-0.889232
1.22934
0.00315905
0.412717
1.91049
-5.70209
-0.479301
-9.37518
2.64922
-0.430895
1.0644
1.95323
-0.286338
1.20975
0.0445535
-0.756622
-0.53633
0.116075
1.03274
1.81547
1.91902
-2.04103
-5.66324
0.983824
-8.66012
-0.362311
-0.190534
0.17869
-0.250219
0.102998
-0.431273
-0.691441
-0.717515
2.3433
-0.327229
2.56376
-0.52
-0.1075
0.571604
-1.03243
2.16362
1.48916
1.79609
0.131125
-0.259393
-0.917347
2.081
-5.74456
1.12884
0.0745152
1.8387
2.16235
0.0636742
1.53163
2.45921
1.6779
1.6564
-3.31473
-0.166333
0.63231
-0.5841
0.0268819
0.913564
1.06699
0.189452
-1.40242
0.402279
0.110354
1.32045
1.11587
-0.425267
2.58404
0.230052
0.00841574
0.28375
1.51124
-0.335758
0.00852563
1.66149
-0.78465
0.155143
-0.213606
1.60708
1.52294
1.44884
0.098742
1.43721
1.76583
1.72418
-0.264797
0.082301
0.348585
1.32416
-0.975886
-6.75258
-0.430129
-1.82115
-0.400488
0.0331575
0.0250784
0.0709429
-5.58124
-0.65385
-0.819863
0.108453
-0.267095
0.591003
-0.436978
1.62949
3.15712
0.520064
-0.231548
0.692237
0.191911
0.408796
0.0338352
-0.336183
-0.648563
0.239032
2.01448
0.00663151
2.4149
0.0366456
1.44637
1.24596
0.672579
-8.50992
0.853075
2.68444
-0.362927
1.54564
1.47051
2.24528
0.223282
2.06349
1.63198
-6.63996
1.73847
-0.892896
-5.04197
2.1071
1.36575
-2.04146
-0.0352256
1.97885
0.0997911
-0.450156
0.0715533
0.0662791
1.16993
0.848274
1.52969
1.42247
1.31225
-3.15877
-0.498405
-0.239725
1.4936
2.83242
-0.37852
-4.19794
-7.9813
1.51985
0.218663
0.221461
0.633485
-0.139584
1.18502
-0.305028
0.319456
2.40344
0.709821
-0.518775
-0.239409
-0.469793
-0.556148
-8.93793
-0.723328
-0.493408
1.8151
0.842491
-0.523018
2.46858
0.0100661
-0.707361
-0.233271
-4.70062
1.65269
-5.2179
0.534234
1.52409
0.122023
-0.273691
-0.190557
-2.06427
-0.319009
1.66255
-0.80399
0.0367053
-8.6137
1.47461
1.64922
-0.438356
1.9356
1.7907
2.3222
2.38493
1.6977
0.324038
2.7451
-9.7933
1.4816
0.267828
-0.870315
1.8549
-0.418657
2.33163
0.732962
-1.4388
-8.09812
-9.62579
1.63692
-0.427775
-0.294213
0.196673
-1.36913
-0.420785
0.960261
0.327657
1.109
2.64654
-5.79715
-0.670188
-0.83984
1.5789
1.14328
-0.464572
3.11882
0.0328014
0.107254
0.966107
-1.49827
1.47241
1.57335
1.75762
1.76458
-0.629059
0.819746
1.47204
0.386463
-0.349707
0.0195118
1.6492
1.71621
2.10156
-0.327901
0.17502
0.748259
0.951851
0.0768874
-0.827088
1.26613
-0.261719
1.34268
1.58113
-7.35912
2.40552
-0.473799
2.63336
1.73723
-0.726471
0.00583209
0.0742402
0.570257
1.61091
-0.634995
2.07237
1.45088
0.759311
0.0542315
0.361521
-0.382955
0.757448
-8.50633
0.928345
-0.30252
1.49558
-6.07867
-0.0910911
-0.22925
1.88598
2.17895
0.731522
-6.13981
0.759802
-0.0296646
0.213964
0.880027
-0.32049
-0.277308
2.56468
-0.774352
-0.18775
-0.720858
-3.5682
-0.181036
1.56995
-8.13767
-0.195735
1.60369
0.977511
1.64892
-0.485136
0.697152
2.59605
-3.05638
1.47117
0.447195
-0.281916
0.558176
0.398977
-1.05241
2.6494
1.74829
0.109335
2.576
1.98559
1.86841
-9.36981
-6.7862
0.952202
-1.65244
-0.165345
-1.92066
-1.5227
-1.86319
1.20898
0.588
0.911086
1.01845
-0.295962
1.13449
1.4937
-2.67992
1.58792
0.96445
1.52477
-0.0308887
0.0393226
-0.436606
-9.46296
-0.48234
-0.241242
1.47519
-0.893074
2.33051
-0.471473
1.47872
0.920292
0.0830175
0.238478
1.57518
0.696454
0.413531
1.37523
0.0851675
-0.239283
2.20513
1.7991
-0.480843
-1.3464
-0.0364824
1.35029
0.0535708
0.647666
-1.89931
0.0894337
-0.0501685
0.130875
1.33573
1.26769
-0.451608
0.686717
0.00589242
0.043602
-0.757668
1.88255
-0.4692
1.52386
-0.00107733
1.31416
1.62855
0.881736
1.42093
0.0407054
-0.395532
0.0899437
-4.68886
-0.429735
-0.462722
-0.93114
-0.208795
1.22113
0.00190915
1.49856
-0.112986
-0.139005
-2.27852
0.0348432
1.59876
-0.570935
1.49442
0.429111
-0.638024
-0.192283
-0.466662
1.08784
1.61827
0.0488991
0.343672
-4.5627
1.78492
0.124938
0.434306
-0.469457
1.91741
0.752314
0.0406679
1.64425
1.58328
1.85133
0.295031
1.87269
-3.22328
0.114344
-0.196564
1.46529
1.00501
0.452671
0.109636
-0.813222
-0.562654
0.833014
0.165996
-0.607415
2.41368
-3.60309
1.81938
1.10568
-0.300099
0.0132618
0.147226
0.00678858
0.228098
0.299896
1.43846
0.0959221
1.53928
-2.3615
0.584277
-0.255953
0.368515
-0.835826
1.89509
2.60255
1.67444
0.83543
0.26931
0.985191
-1.66484
-0.0184906
0.107073
-0.0657077
-0.506284
-0.777216
-0.805848
-0.50441
1.35948
1.49418
-2.48348
0.422158
1.72878
-0.526008
-1.7588
1.641
0.0231007
-1.00503
0.0504713
-0.178132
0.00754306
2.45126
0.109156
1.46168
-1.41651
-0.800485
-0.510122
1.49053
0.384513
1.25818
-1.28629
-0.670089
0.155518
0.312279
1.7615
1.35027
0.316411
-0.212316
-0.277399
2.70762
-0.309001
1.73335
1.89305
-0.146562
0.00576681
0.702997
-8.19847
-0.665736
1.33115
0.878818
1.48094
-0.460412
1.6681
0.23295
2.17747
0.325958
1.3469
1.92637
1.26581
0.278581
-0.457632
0.533892
-4.55792
1.3022
0.707317
1.8443
0.209168
2.31498
0.329195
2.46349
-0.424128
1.91818
-0.160332
1.15152
-1.8233
1.47132
0.736491
0.63101
2.3059
1.51713
0.365137
-0.498381
0.879519
1.45925
0.0330175
-8.08169
1.11527
0.140399
1.98197
-0.447173
2.35751
0.419785
3.18339
2.37848
1.10418
0.967376
-1.7461
0.173864
2.5329
0.193985
0.00788169
-0.0408338
2.55045
0.748267
1.30916
2.18171
-0.816154
1.66388
-0.188903
1.81383
0.0927022
1.71149
1.55806
2.10331
0.0168483
-9.03598
0.474139
-0.47612
0.709443
0.192588
0.141091
1.9473
2.22087
0.0310328
0.480738
-0.17959
1.98499
1.26609
1.40468
0.964687
-0.180374
-4.70316
-0.329993
1.5676
-2.38586
-0.164185
0.0945335
1.07704
0.727553
-0.516855
2.68036
-0.205421
2.3308
0.412628
2.40356
-0.327184
0.302784
0.0793345
0.099332
1.29875
1.50572
-0.123883
-0.180981
-0.527751
-0.154981
2.20027
-0.468208
0.0878231
-0.278638
-0.218023
0.476734
1.86059
0.713034
0.114008
0.0613311
1.51737
2.84167
-0.477159
0.153277
1.4836
-0.0351016
0.806162
0.0721031
1.07111
-0.193653
-7.73807
-0.426692
-0.262984
-0.0766522
0.171243
-1.64971
-0.459557
-0.0189894
1.20732
1.63347
1.34441
2.75685
-1.19607
2.526
-4.34084
2.36569
-0.643155
-0.878055
2.66209
0.641358
-0.324652
1.5368
0.0185244
1.66074
-0.382355
-8.22602
0.330263
-0.462828
-0.523121
0.00919998
-0.0661598
0.632509
1.88902
-0.726684
0.709746
-2.27523
0.324723
-0.246894
0.0380571
-0.0495538
-0.218723
-1.77833
2.00474
0.0523369
2.20462
0.588513
-0.631973
0.514343
-1.31091
0.0837973
1.32383
1.90897
2.7802
1.15501
1.27982
0.709355
-5.9255
2.68014
2.85655
1.66709
-0.816287
-0.463897
-4.50711
1.41479
0.992892
0.551795
1.2293
-0.239505
0.0394639
-2.47184
2.29351
-0.51801
0.250774
-0.380745
1.46438
0.347236
3.07556
2.87463
1.37221
0.079929
0.420981
-3.64526
0.577233
2.95096
0.229264
0.0842796
1.11742
0.0119494
0.339194
-0.0974691
-0.256382
0.392596
0.0872636
0.703433
0.0540418
0.504599
2.12838
0.42631
1.62355
-0.385199
-0.33473
2.57103
-1.2536
0.169905
0.358418
0.669232
0.205545
-0.459141
0.264807
0.119786
0.0606899
3.11078
-8.17912
-2.24443
-0.585894
-1.0812
0.221522
0.353593
-0.427932
-1.70815
0.0400498
-2.88175
-1.20698
-0.583548
0.201842
0.173238
0.206809
3.03041
0.172374
0.482632
-0.0771925
0.360347
-5.88634
-0.249801
2.08639
1.51746
0.489321
-0.232577
1.47687
1.63251
-0.00626454
-0.711341
0.104749
2.07798
-0.54094
1.43059
0.140653
2.33717
0.221744
-0.392923
-1.81521
1.66481
-0.414853
1.35767
-0.844212
2.9082
-0.421163
-0.232515
-1.65502
0.671788
-0.446417
-0.852908
-0.41924
0.279795
0.649372
-0.474973
-0.291037
-0.0282732
0.178718
-0.442816
-1.21565
1.242
-5.76421
1.32692
-0.419137
1.68522
2.661
1.42319
-5.87799
1.53621
0.227887
0.179959
-0.034519
-0.372229
-5.08605
0.155085
-0.266436
0.632233
0.0429642
-1.17293
-0.203355
-1.70904
0.790577
1.55811
-1.71492
-0.460284
-0.461299
0.0514926
-0.222128
0.909305
-3.48678
-0.461631
1.53429
-0.138582
0.844649
-0.839006
-1.86725
-0.450827
-1.21106
3.07075
0.465076
-0.611402
0.397175
2.50546
2.57711
-0.400876
-0.199732
1.52311
0.0387136
0.154593
2.57528
0.858916
1.33425
3.11375
-0.449586
0.416523
0.277838
2.2856
1.58363
1.57274
1.90238
1.08869
0.0568766
0.117861
0.73254
0.393836
-8.7836
2.62773
-0.791971
-0.890659
0.0506158
-0.437425
0.758245
-0.374552
-0.221657
0.3514
1.59296
1.65046
1.74224
-1.94856
2.24865
2.55618
-2.10343
0.975548
-0.0194788
0.010268
0.206044
0.899519
-0.228778
-0.536352
-0.89361
2.84537
-1.04384
1.7626
1.55278
2.01236
1.14278
1.21741
-0.20774
0.0543139
0.872558
0.0181447
-4.18615
-2.00779
0.168923
-0.405234
1.87909
-0.460016
0.0682971
0.32776
-5.72138
-0.403435
-9.13641
1.37487
-0.192963
0.118736
0.74607
-0.684886
0.535439
-2.55947
-0.0157604
1.6544
-0.68708
2.62578
0.0521164
2.81097
0.00665288
0.112516
0.291594
1.34564
1.30847
-3.13941
-0.0486637
-0.308249
0.271465
1.07827
3.13082
2.01918
0.519697
-0.514369
0.810474
-0.368439
1.74396
-0.221309
0.907777
-0.328082
-0.395423
-5.36205
0.521713
0.0577257
-5.62311
1.01737
0.982044
2.52656
2.72732
-8.65103
-4.69337
-0.222921
-1.33692
2.63672
0.149589
-0.677996
0.694263
1.11737
-0.287231
0.146556
0.203313
0.0201237
1.38979
-0.25567
0.424802
0.104592
-0.917519
-2.65226
-0.375035
-2.73814
-2.3295
1.68836
-0.410154
-0.38101
-0.203597
-0.243118
2.88963
1.11569
1.43983
-0.224314
0.789062
0.0160897
0.632685
0.500113
-0.428302
-7.5534
2.62783
1.62882
0.0309379
-6.45098
3.00267
-0.420508
-5.51037
-0.31893
0.775162
-0.449531
-0.288155
2.27417
-0.057027
1.41003
0.636385
-0.388261
0.0492183
0.139238
0.771747
-3.01408
0.0741823
0.480232
1.50808
-0.46987
-4.8609
0.102617
-0.304497
-1.58144
-1.37413
2.82003
1.01674
-0.640428
0.732042
0.437597
2.46394
0.868344
-8.49057
0.916764
1.93375
1.65415
-0.470732
1.35817
-0.1901
2.60529
0.0588112
1.56435
-0.500222
-0.430177
0.0561325
-0.354267
0.896376
0.551751
-9.09926
-0.462206
1.80244
-0.129477
-0.0241307
2.13314
1.22291
2.07645
1.43278
-0.707842
0.0285016
0.109181
1.51454
-0.000957239
1.89181
1.17894
2.58469
-0.416987
2.02185
0.740471
2.62012
-0.383375
-0.828327
2.67533
-0.416626
1.14882
-1.29384
2.29266
2.57681
1.65464
-2.54071
1.52429
1.9749
-0.426306
0.657003
-0.364819
2.10904
-0.41405
-0.22317
-5.82074
-6.82355
1.93959
0.730092
-7.12213
0.80461
2.57264
-0.833438
-0.231995
-7.90463
-0.94359
1.27505
-0.0885662
1.45886
1.43871
-7.3432
2.90194
-0.000341899
2.18266
2.15718
0.155491
0.0483534
1.35415
-1.86436
-0.144953
1.33841
1.15224
-0.493522
1.44285
-0.34365
2.29925
1.65772
0.599248
-0.038585
1.69028
-0.21856
0.92796
2.01898
0.402989
0.0465759
1.95909
1.63479
-0.601995
-5.73926
1.15773
1.70942
2.60284
-5.95874
2.75202
2.74459
2.79863
-0.211604
1.9035
-0.494997
1.53535
2.04618
1.99783
1.69365
2.23931
3.06929
1.32473
-6.52399
0.113177
-6.70813
3.04033
0.835877
-0.179459
-0.458001
1.43112
2.26255
1.47453
0.522306
-0.0389751
2.24842
-2.11362
1.6315
-0.457741
0.728557
0.0455931
0.447133
1.00886
-0.458764
-0.480477
-0.207429
-0.295286
-0.156332
1.8663
-0.299409
0.275675
1.43127
-1.75515
0.932693
0.0520889
-1.67698
-0.48447
-7.4877
2.14407
2.30917
-0.414183
0.631716
1.96986
1.78599
0.0360447
-0.583075
1.67319
-8.32136
2.10926
-1.57332
2.05393
0.959755
0.268999
1.91369
1.04148
2.00506
0.558407
0.737513
-0.419743
-5.83904
-2.23899
0.0376898
1.9676
-0.732451
-0.31959
-0.748015
2.19419
1.98385
0.545682
1.13915
2.2116
-2.18138
1.45869
0.0844383
-0.499338
1.45523
-0.388579
-1.42917
-1.26211
-9.65261
-0.222766
-0.696328
0.0879394
-4.75819
-6.15402
1.25952
2.63529
2.88446
2.49932
-0.711459
1.64905
-0.581935
1.42212
2.20525
0.246915
1.93232
-0.758071
0.54273
-0.45514
-0.03377
2.10234
-1.14979
1.73014
-2.73919
-0.33702
-10.206
1.76838
1.71753
1.52968
-0.997583
1.44899
-0.309109
-8.18275
-8.99108
0.497567
2.64658
-2.90225
-0.218555
-0.459029
1.51561
1.4744
0.00803706
0.97884
-1.63457
2.24391
2.04031
-0.302451
-0.260054
2.18737
-0.377647
-1.10712
0.0688574
2.00026
2.24955
-0.43875
1.07846
-0.207732
2.58811
-5.44237
-0.429056
-0.026775
2.42483
0.0613172
-0.38673
-0.169119
2.0842
1.22584
2.07008
-0.0770917
-2.51223
1.69793
3.00307
-5.59165
1.36628
0.0232405
-7.04804
0.0319643
0.566367
-0.475983
1.05109
-0.361964
1.01901
-0.23755
-0.541515
1.89651
2.26443
1.44063
-1.7213
-0.433045
1.76385
-1.79954
0.568513
-0.540608
0.766598
-3.49611
1.64763
1.76973
-0.012201
1.65929
2.55239
-0.215332
1.23755
1.74255
-9.3528
0.946813
-0.461388
0.762192
0.540021
1.20455
0.00987951
0.519837
-0.150254
-3.50199
2.12948
0.599056
-0.0341426
-0.387554
-0.127672
1.59123
-2.57033
2.78639
-0.788903
-11.8911
-0.219247
1.94726
1.72498
2.03633
-8.96588
2.45334
-1.01928
1.19503
0.216162
-2.10106
1.4143
0.706699
-0.186249
1.04919
-5.63104
1.23761
-8.33796
-0.396258
0.00092763
-1.45545
-1.69656
1.36119
2.52027
0.142986
-0.526122
1.9598
-1.87345
2.2881
0.674002
0.107761
0.843744
1.54016
0.804721
-0.189346
0.182674
0.0464963
0.397909
0.56879
-2.07712
-0.45174
0.111307
0.884316
-0.24355
3.06431
1.64422
1.52304
2.30821
0.271757
1.71239
-0.759832
-8.97721
-0.442283
1.54089
2.98165
1.42593
-0.950324
2.13384
1.43089
1.45479
0.119314
-0.0105018
0.82304
2.80009
0.142109
-0.54915
2.09675
2.17589
1.60502
1.51941
1.85812
1.07951
-0.340531
-0.527007
1.67701
-5.08591
-5.87155
1.50935
-0.475051
-0.0641443
0.481148
1.65195
1.71219
1.74113
-0.138519
2.03337
2.0803
0.260823
1.82782
1.60049
1.2991
1.15133
1.01974
0.790342
0.000668757
1.94749
1.81275
-0.843856
1.38841
-0.152441
0.0753433
2.49845
1.88569
0.0160452
-0.508401
-0.454884
1.94019
1.08888
0.303766
0.0431532
0.279715
-0.305846
0.346772
-0.486159
-0.135208
1.10997
-0.192606
-1.15947
-1.18546
2.3545
-0.463601
-4.42772
-0.492582
2.53093
-0.241067
0.299789
0.323921
-6.58509
1.19425
1.44
0.957155
2.22049
1.23453
0.0942577
-8.45241
-0.499754
0.0300091
1.76807
-0.652551
-0.46888
-5.84398
-0.271905
-4.91519
-0.483239
-2.43245
-0.122978
0.601798
1.50697
1.97985
-0.241191
0.0279487
2.2312
1.70231
-0.434747
-0.252906
-7.43901
0.940636
0.211405
0.838685
1.31516
-0.127458
-0.249854
-0.274825
0.420423
-0.894293
-9.30288
0.217038
-0.598944
-9.74531
-6.52682
-0.508322
0.205503
-6.96812
0.784106
-0.454135
1.51074
1.35728
0.411997
1.97003
-0.657052
2.53277
-0.45255
0.144601
-1.22786
1.51829
0.929244
-5.61552
-8.07533
1.55863
1.84393
2.62942
-0.52507
-9.45356
-0.61871
-0.093661
0.0100273
-1.08103
0.538859
-3.90279
0.910334
-0.531428
1.15386
0.144571
-0.020117
2.29762
1.35572
-1.19654
0.0394294
-1.58731
-7.19367
1.97768
2.88629
-4.32689
1.86311
1.46465
0.0074123
-0.290543
1.91902
1.83872
-2.6107
-0.233342
-0.459172
-0.677404
-1.17199
-2.49783
-1.10096
0.999501
-0.18687
1.68316
-0.827199
-6.41214
1.42833
-1.09213
-6.08966
0.117365
1.15555
-7.1131
-0.588011
-6.80425
-0.69586
-5.19799
2.66931
-8.8733
-0.197822
-0.60405
1.66915
-10.4844
-0.214785
-1.95306
-1.34714
-0.448913
1.72693
0.0213841
-1.19826
1.3338
0.00654878
-0.389544
-1.95515
-1.4921
1.08165
1.25447
1.53737
-9.3325
2.27404
-0.309111
0.00455695
0.150709
-2.53291
-0.54851
-1.35665
-0.830036
0.275411
0.688847
0.111639
-0.30045
-0.872307
1.43082
-1.0298
1.614
-1.54654
0.980907
-0.208532
-0.152517
-0.50443
3.05232
-0.350653
-8.13944
-5.14324
-0.712314
1.53279
0.10179
-0.832775
0.0881039
-5.52079
-0.503754
-6.01963
-2.30431
1.65929
-3.22491
0.265366
-6.77926
0.0180837
1.35088
0.153675
0.677298
-0.39995
1.99815
-9.19277
-0.537349
2.13876
0.616164
-9.61321
-0.295321
-1.64464
-0.789265
-0.331965
1.95594
-0.416844
0.659212
-8.31693
-1.56339
-2.07531
-2.72891
-5.24814
0.889305
-0.207276
1.51477
0.581014
-1.18619
-0.190681
-0.592627
1.88305
2.25492
-7.38482
0.083938
1.63717
1.50922
1.19106
-0.674995
-1.16578
-1.26064
1.53599
0.475547
-0.756211
-2.01808
0.868418
1.81222
-0.233579
-0.202136
0.108471
2.11484
-1.55998
-1.73574
0.0657547
1.32546
0.0854301
-0.370745
2.28898
1.89693
0.101493
-0.717605
1.93111
0.773761
-0.0693962
1.39987
-0.303005
-0.911103
-1.45818
-0.730996
1.85786
1.62294
-0.0454651
-0.527388
-0.44762
-0.0718909
1.66581
-0.700948
1.13807
2.013
2.15417
-0.292353
1.55024
1.34236
1.68617
1.78856
-0.157776
1.80115
0.00679517
1.53263
0.833908
1.6585
-0.465542
1.91847
1.83006
1.38825
1.00232
-0.48272
1.07928
0.11698
-0.620832
2.0597
2.04537
-0.558179
1.80564
-0.736764
-5.37418
1.65256
1.65936
-1.65213
-0.0242519
-9.34771
-0.662578
-1.39923
-0.399059
-1.61586
-0.385387
1.3988
2.79268
1.91742
-0.259928
-0.343595
1.62062
0.833752
-0.251865
-0.882656
-0.417933
-1.75231
-5.66967
-5.75265
1.46622
-0.147329
0.797074
0.0522994
0.0503349
-0.285213
0.0424599
0.300586
0.783408
1.02918
-0.434743
0.69785
-2.13448
-0.886754
1.06755
0.862358
-0.0295071
0.234727
1.00925
0.0184946
0.598404
-0.485783
1.52923
1.27987
2.4259
1.53585
-0.653948
-0.363867
-0.52031
-0.389749
0.0423985
0.0714507
-0.109906
-0.574073
2.8512
0.202178
-0.0881204
2.25204
-0.468893
-0.975055
-0.303105
-0.475306
-10.7221
0.431297
-1.2698
1.48316
-0.158179
-0.604289
-1.66021
-0.32988
-0.811538
-0.201965
0.167704
1.19541
-0.428772
-0.415797
-1.38398
0.599964
-0.805526
1.64873
2.30879
-0.376903
1.68342
0.873913
1.11886
2.55893
-0.480944
0.937108
0.816029
0.739389
2.18047
-0.467647
-0.0903987
-0.198332
1.62826
2.30544
-0.405939
0.0109449
-0.774484
-0.676151
0.805687
-0.519259
-1.81504
-0.414153
0.610402
-7.82231
0.409559
0.478505
1.34284
0.334112
-6.00008
0.120179
0.0566849
-0.177866
2.46471
2.77522
2.04864
2.95356
1.35059
0.989302
1.71514
1.48535
1.38519
-0.618553
1.57121
-0.3218
-5.87132
2.26084
-0.164903
-0.847118
2.65719
0.0846955
-0.665478
0.83912
0.734038
1.86465
-4.73101
1.41693
2.45416
-0.476759
-5.36413
-1.63836
1.0937
-0.508669
1.95975
-0.0689879
1.86752
1.52298
-0.43222
1.78905
-0.531297
-7.60133
-6.61119
-0.491441
1.83988
-0.717972
1.57098