/*--------------------------------*- C++ -*----------------------------------*\
| =========                 |                                                 |
| \\      /  F ield         | OpenFOAM: The Open Source CFD Toolbox           |
|  \\    /   O peration     | Version:  2306                                  |
|   \\  /    A nd           | Website:  www.openfoam.com                      |
|    \\/     M anipulation  |                                                 |
\*---------------------------------------------------------------------------*/
FoamFile
{
    version     2.0;
    format      ascii;
    arch        "LSB;label=32;scalar=64";
    class       volScalarField;
    location    "9.7";
    object      p;
}
// * * * * * * * * * * * * * * * * * * * * * * * * * * * * * * * * * * * * * //

dimensions      [0 2 -2 0 0 0 0];

internalField   nonuniform List<scalar> 
5098
(
0.659924
0.987308
0.177947
0.756564
-4.05809
1.15224
0.696391
-1.05415
0.190981
0.703802
-7.89001
0.251813
-0.914624
1.65008
-0.942785
-0.0544939
-9.87261
-4.53362
-1.03716
-9.3277
1.6884
-0.0586344
-1.55597
2.63097
-2.82974
1.06679
1.31078
-0.333847
-1.03703
-2.61831
0.193393
1.93125
1.14159
-7.96792
0.487089
-0.905018
0.30115
0.929106
1.53376
-1.17877
0.682639
-3.22957
1.00845
0.399963
0.739256
1.04923
-8.36845
2.01892
0.149655
0.836761
0.831836
1.84693
-2.29516
0.714099
1.16797
1.71679
1.4996
0.538845
1.94331
-0.361841
0.0724974
-6.40159
0.502009
-0.673682
-2.30102
1.6933
-0.0318465
0.777527
0.153192
0.362675
1.49143
-0.38647
-0.738384
-0.511177
-0.114955
0.822053
-0.0726046
1.84396
0.565826
1.66574
-0.39916
-0.487857
1.01096
-7.63526
-4.62963
-2.87445
3.14176
-0.0876561
-0.875295
0.0629926
-0.105945
-1.69204
0.24017
0.766133
1.53931
0.243862
0.288593
1.95776
-0.0976434
-0.299736
-9.71156
1.05623
-6.31361
-0.0531758
1.80398
0.794495
1.44792
0.716172
2.07257
-7.64345
0.530146
-0.866845
0.901487
-2.21256
1.64349
-1.17494
-0.885277
0.357507
-0.123502
2.56897
1.79044
1.6221
0.675909
-2.24831
-1.72472
-8.96292
0.618372
-1.39858
1.79366
-2.14972
-2.53093
1.83645
1.78866
0.507002
-9.30908
-2.20618
0.858116
1.42267
1.53204
0.668399
1.92086
-9.18437
-0.545559
0.185212
1.05163
-0.102731
0.234989
-4.62555
-0.554592
-1.13488
-4.0525
-1.81114
-5.46471
1.15905
3.12469
2.40119
0.554921
-9.70792
0.687466
-1.09737
0.130018
-1.07538
-1.70181
0.947003
-3.50648
0.307518
-4.63236
-1.91965
-2.76084
0.619502
0.155981
0.853126
1.05407
-0.290527
0.275309
1.12638
0.965868
-0.79425
1.1185
3.02432
0.186799
-0.783537
0.444565
-3.37361
0.901852
0.355246
1.92391
0.273055
0.771581
-2.59723
-0.949875
-0.0973159
-0.858751
-0.146362
0.276011
-1.93362
0.142944
-2.16995
-0.0138306
0.544751
-2.35562
1.76854
0.757507
0.983044
0.705452
2.39019
-0.00941427
1.58464
0.289135
-0.918205
0.756356
1.71984
-0.33715
1.02384
-0.848811
-0.977377
-0.173062
-6.38216
-1.62521
1.14585
-0.100564
1.21163
-0.0587878
-0.190914
-2.2388
0.589213
2.85295
1.31969
-0.147909
-4.46157
1.67817
2.61104
0.150834
-0.026123
0.27458
0.267592
1.92669
-2.18496
-0.95905
1.22566
-0.637449
1.04692
0.0279762
2.18345
1.58322
0.207994
1.57236
-6.93556
-9.82969
0.219866
1.16939
-0.460142
-1.21298
-2.15474
1.16303
-2.27232
-9.40367
0.609905
1.95389
-0.128103
0.317997
-2.292
-2.65108
-0.709071
-0.0369383
-5.12372
-1.09842
-7.42768
0.563619
1.25338
-2.6072
0.630533
-1.08861
0.629151
1.89595
-4.98716
-3.61499
-4.33862
-2.11193
0.789933
-2.51015
-0.905184
-2.27505
-0.922083
-7.59725
-10.6172
1.18549
-0.0687793
0.302467
0.255986
-2.23215
-1.96128
2.28639
0.757482
-0.375495
0.754111
0.384791
0.242944
1.31073
1.11467
-0.0863857
0.0100021
1.10442
1.55113
-5.19711
0.00870232
0.36792
1.13697
0.517321
-8.40339
-0.0646911
-1.31389
1.08932
-0.284064
-1.11316
3.05849
0.785592
-0.0650104
0.264509
2.29174
0.553807
-1.82917
-0.818065
-1.2104
-0.0809383
1.59756
1.22716
1.3124
2.02571
-0.131405
0.293024
0.255482
1.53783
-2.46284
0.276951
0.789821
-0.427184
0.865341
0.450029
0.557032
-0.638288
0.419155
0.514403
1.31058
-1.00806
-0.073399
0.600774
-1.15881
0.321229
0.239725
-3.53999
2.61231
2.24728
-2.39846
-0.320777
-2.5275
-2.71981
0.281776
1.76806
-0.5028
1.3382
-0.0040749
0.305525
-0.0818468
0.356698
1.94102
1.31406
1.24168
-2.49214
-2.2882
1.79865
0.450042
-1.01885
0.0254425
-0.489915
-6.32596
0.472151
-0.179009
-1.62718
-0.0973121
0.763673
-9.27279
1.25192
-0.0498723
0.228137
-0.239509
0.575317
-2.16314
0.745241
-8.18009
1.32146
0.42611
1.31372
0.554541
1.79144
-0.425126
0.884979
-2.03208
0.97154
-1.1575
-1.94517
2.31864
1.85746
1.31831
-1.15825
0.951424
0.574773
-4.60432
-0.289002
-0.699054
1.31185
-3.42033
-2.29046
0.789004
0.142615
-0.546688
1.53028
2.63253
0.00533
0.0464723
0.691553
1.44517
0.341538
1.15709
-2.59292
-1.71513
-0.291802
-3.83138
0.415199
-0.30444
-0.046253
-1.07135
-0.0256492
0.0418821
-0.0783757
-1.20023
0.0300666
-1.46052
1.29636
-0.255091
1.11945
0.450424
1.25996
-10.42
1.95361
0.168563
-1.29357
-0.86249
-0.979732
0.590802
-9.03242
0.217116
1.30926
-11.0478
-9.1758
0.244502
-3.17466
-0.453608
0.156216
-0.623077
0.95626
-0.174645
2.53529
0.233475
0.784642
-5.49907
-2.30064
-2.4678
-5.57572
0.617817
-0.952717
-2.64463
-3.2129
-0.933423
1.31188
-1.27432
-1.0174
1.28259
-0.755517
1.19699
1.89716
0.710866
-2.29159
-0.888493
0.469751
0.154052
0.982504
-1.04809
0.626717
0.799838
-0.956931
-4.66505
0.640203
-0.136918
-1.41726
-0.0151038
1.3313
-1.39184
1.17473
1.20482
-4.74869
-1.5919
-1.0823
-5.09584
-1.08902
-1.94564
1.27792
1.21884
-0.538299
0.403603
-1.64309
1.31054
1.96503
0.325837
1.12467
0.555241
2.29744
-2.30065
-0.82628
2.1591
-4.40862
-3.39794
2.24577
-0.108298
-1.60961
-0.018868
-0.480359
-1.56968
-0.347294
-2.46171
0.405651
2.81244
-3.37731
0.761433
-9.54118
0.7408
1.51776
0.0529063
-2.15069
-10.3606
1.33075
-5.1212
-2.30908
1.17796
-10.4767
-6.19474
0.483778
-8.43464
2.97643
-1.2833
0.148636
0.414034
0.0618375
-1.17544
-0.561352
-8.51318
-2.73585
1.1517
-8.81603
-0.947146
-8.60719
-2.90294
0.891143
-2.10443
-5.64542
-2.70445
-1.35334
-0.104063
-2.92242
-1.41295
-1.97048
-3.02737
-1.71418
1.60572
1.86576
3.09622
-4.42708
1.12761
2.10016
-9.6558
0.802209
-4.63076
1.15217
-7.49082
0.87161
-0.486583
-0.0956095
1.42474
1.52475
-2.30571
-1.74085
2.44442
-0.168398
-3.85864
0.603445
0.918221
-1.52817
1.24176
-0.855559
-0.650753
-0.16845
2.44491
-2.42336
-4.27939
1.8517
-10.5695
1.61425
-3.0068
-2.30373
-3.35415
-11.2774
-2.31461
-1.42487
1.71827
-0.875664
-0.577706
1.80655
-0.690595
0.941323
0.862919
2.33311
-1.20214
1.32029
1.03947
-0.136729
-0.419373
-2.16236
-0.995465
-4.35757
0.0211834
-3.10529
-0.305377
1.98486
-2.62866
-0.045288
0.721457
2.56665
-2.28674
2.21974
3.02495
-0.682394
0.255015
-0.816121
1.32191
2.04614
1.67215
-0.937298
-0.258022
-0.179689
-4.20903
0.262425
0.471348
0.692066
-8.07003
-0.0993961
-1.45956
-6.67818
-0.597831
-0.303446
-0.129644
0.705079
0.86101
-5.94711
1.97783
0.996576
1.81737
0.82675
-5.85895
-0.279071
-0.142885
1.90475
2.51374
-1.29088
1.55839
-4.75397
-2.30816
-3.9078
0.802924
-1.00086
-1.08759
-4.3525
-5.54347
-0.490949
0.106579
-1.09036
0.0389541
1.16963
-1.06537
1.08893
-0.0723406
1.18872
-2.29153
-7.28101
0.035545
2.08321
-4.27753
-8.37224
-0.119491
-1.16998
0.655841
-3.65558
-1.76246
1.75006
-4.03956
-4.33943
-1.54815
-5.4489
-1.01394
0.801024
0.977345
2.69944
2.05703
1.69252
-3.05955
-1.92496
-0.986435
-1.07472
0.898702
-1.96727
-1.55571
-2.52695
-3.52225
1.42384
-1.98062
0.488405
-2.82006
1.63401
1.31027
-2.81288
0.860412
-1.26338
2.6613
-0.110328
-0.388874
-0.668369
-3.69945
-7.71196
-3.95008
-1.6919
1.73356
-2.29848
-0.915475
-1.87337
-2.31753
-1.04388
-5.4627
-0.874392
-0.264921
-0.0906973
0.911409
-3.07281
0.89489
1.73907
-2.1667
-1.16279
-2.95706
0.758816
-1.09596
0.734258
-1.22118
-4.09973
0.0518537
-1.98999
-5.59545
-2.39309
-9.87719
0.985135
0.178774
-0.916716
-2.49558
-1.46295
1.32189
0.741299
-2.96881
-2.8798
2.77927
-0.774759
1.71225
-3.92204
1.18369
-2.27414
-3.04159
0.53454
-2.30682
-7.67285
1.85603
1.83976
-7.68321
0.172
-5.9016
1.39141
-2.38642
-2.18049
-2.29266
-2.56255
-1.11405
-0.125981
0.326497
1.22681
0.28254
0.597171
-2.48443
-0.633543
-8.58534
-1.774
1.13371
-1.71696
1.90913
-0.776976
1.68714
0.913488
0.649093
-7.07743
0.31878
-0.550789
-0.447315
1.38753
0.739868
-0.383122
-1.45034
-2.30456
-9.17629
-3.62603
1.26165
-0.162181
1.00081
-1.99335
-3.43024
2.99179
-6.28632
0.73519
-0.0384373
1.73467
-1.5611
1.71728
-8.45875
-3.26868
2.04921
-6.60055
-1.0479
1.22653
2.16933
0.670103
0.320214
-0.653615
-0.21559
-2.85956
-0.874405
-1.92403
0.556788
-2.93865
-1.77826
-2.22417
-0.859475
-0.0191843
-1.16806
-0.55191
-1.79633
1.24965
0.855528
0.142016
-10.2072
-1.58799
1.8059
-2.38055
-0.454292
-1.995
0.23841
-2.07093
-2.27064
-1.54775
-0.482842
-0.210939
1.39835
-2.29416
-6.49456
-1.32749
0.102305
0.0690783
-3.43282
0.342036
-2.27303
1.32829
-11.1365
2.51909
2.16181
-0.290575
1.24125
1.67816
1.5303
2.46169
0.883905
-2.19763
-8.2815
-3.76142
-8.78493
0.24532
-2.68305
1.29915
-1.38064
1.38804
1.53873
-0.0247558
-0.0660799
-3.36063
-0.542936
-0.7887
-0.286272
1.8628
0.658695
0.549772
0.686359
-2.34775
-8.95129
-9.75371
-1.35397
-0.654641
0.584073
0.791956
-6.81565
-2.71561
2.00775
0.48971
1.75686
1.7693
0.722152
-0.307883
-0.51957
-0.707263
-2.10649
1.04163
-0.175238
-0.554506
1.43449
2.18861
-4.07218
-0.223394
0.791976
1.62564
-9.91664
-1.04236
-1.30122
2.59245
1.2126
-1.57797
-0.0927637
0.333448
-3.74206
1.38902
1.32404
0.266717
1.12914
-2.20248
-10.9789
0.553961
0.885653
1.82883
0.586093
1.64691
-2.35599
-7.91782
-2.14853
1.38266
1.71617
-1.27065
-0.386908
2.57414
0.995958
-0.0272252
0.239206
2.42959
1.05304
0.393852
0.818288
1.1172
-0.201495
-0.982084
1.38114
2.89972
0.349623
-8.46642
-2.71542
-0.628779
-2.43594
1.70879
1.30233
-0.787062
-0.192133
0.805898
-0.235492
0.358124
0.0751165
1.54516
1.44252
-1.79241
2.35318
0.72818
-1.79827
-0.00070884
0.450781
-0.0466152
0.164458
0.999862
1.06294
0.72688
0.332841
-5.51061
-6.59119
0.831361
0.364628
1.79751
-3.34963
0.821785
0.810462
-0.219867
0.923563
1.50102
0.00941738
0.0316831
-0.0168083
1.31718
-1.45202
-0.781501
-0.438626
1.60223
0.417855
1.12552
2.24054
-2.93364
2.1427
2.53584
-1.27058
-1.04706
-4.73542
2.89465
-1.03438
1.09677
2.37593
1.12883
-2.30574
1.3248
0.246975
2.62629
-0.793551
0.389949
2.71479
2.08249
0.0820577
2.64631
1.74873
0.198211
-6.83102
-3.02977
-0.00671395
0.000530541
0.635647
1.67027
-1.18294
-0.279112
1.39486
-0.194931
2.31989
-0.333721
2.59429
-1.50126
-2.31372
-0.535226
-0.46656
1.81684
0.207407
0.303887
-4.68567
1.69413
0.215793
1.4035
1.07339
-4.11434
0.568989
-0.237716
-1.5847
-0.267048
1.92344
0.483787
-0.0777092
-0.316554
-0.450099
-4.07146
1.64171
0.203422
1.05279
-0.765601
-3.40297
-4.10827
0.451083
-0.0743134
2.26428
-0.94112
0.356148
-4.32551
-9.00792
1.4973
2.44005
-3.14081
1.4027
1.19826
-3.76701
0.833312
-1.4287
2.84426
-2.24447
-0.461968
1.01703
-10.9921
2.0587
-2.3678
-1.91696
-0.0264971
-1.61098
-2.28613
-3.10163
0.551901
-0.279438
-2.31072
-0.00470681
1.02039
-0.521394
1.58094
1.98043
1.37079
1.52097
-10.5535
-9.94953
0.19151
0.455148
-2.27343
-0.00474277
-0.0740858
-0.0046023
0.16887
1.81623
1.06196
1.1482
1.28189
-1.23109
-0.0294774
-1.24854
0.220005
-1.45016
2.58735
1.39706
1.10576
-10.1559
-0.530961
1.22892
-0.215625
-5.13573
-1.1854
-0.649129
-0.808595
0.589999
-2.41818
-0.179721
0.614605
-2.29705
0.737905
1.95623
-0.54227
-0.575596
-0.287887
1.4489
-6.00895
0.378366
-9.03783
0.0207044
-9.57011
-7.78649
0.919677
-2.76132
-0.87904
-0.372397
-3.07446
-5.24441
-3.85319
1.41973
0.320467
-5.57051
1.88566
-2.47643
1.13395
0.5754
-1.43403
-0.00117139
-2.23445
-2.48353
0.0582988
1.30369
0.951732
0.635921
-2.19708
1.67902
-4.51349
-0.531659
-0.00287078
-2.62397
-0.135286
0.0737316
1.49417
-2.43255
-1.11065
-8.9421
1.27932
1.4845
-2.94447
0.345279
-0.0145925
0.0919267
0.257122
0.278845
-0.178903
-4.28296
-3.24198
2.1437
0.498774
-0.0645987
-0.489913
-0.00496193
1.43962
-2.82699
-0.686562
-9.21063
1.2876
-0.132792
-0.00425085
0.277819
-0.0052002
0.767721
0.642588
1.03264
-0.332687
-2.33083
0.225018
1.5692
-0.102688
1.15948
1.16532
1.45856
1.23514
0.708991
0.857418
2.4431
0.367816
-0.590761
-0.657281
-2.44659
0.0575241
-0.880803
1.09035
0.835049
2.36993
-0.0556154
0.28404
-9.45821
0.0271666
-10.5208
-0.434752
-2.26961
0.513077
-11.2848
0.643204
1.21254
1.37952
-2.26538
1.45315
-2.33942
0.732363
1.37453
1.03299
-6.95393
-1.08165
-7.8743
0.572673
-3.62773
-1.11979
0.871271
-0.785899
-0.0591935
0.999578
2.05091
-0.561374
1.95062
0.374435
-3.06369
-1.28184
-0.430068
-0.0812301
-0.55808
-2.70548
2.11945
-0.00397776
1.11718
-3.63693
-6.79056
1.76792
1.58948
-0.00731398
-0.162957
1.40813
-1.52537
-0.294805
1.26492
-0.549408
-0.618114
-1.17243
-1.03031
2.18366
-2.04296
1.29304
-0.155165
0.235357
2.73238
0.473823
-0.0175526
1.28517
-9.70068
0.902957
1.104
0.206488
1.31586
-0.125171
1.28303
1.42218
0.197863
1.5046
-3.95709
-1.94907
0.00213104
-1.2165
2.18289
-2.30647
-1.46097
0.671233
-0.324228
-0.931392
-2.2954
0.639374
0.145146
1.14828
0.860801
-0.747258
-3.70534
0.136742
-7.15818
1.57382
-1.55994
-2.26324
-1.3479
-11.579
1.22675
-2.2992
-2.39523
1.38186
-2.33828
0.78725
1.40529
-2.24493
-2.29706
1.21893
2.13037
-2.63959
1.29948
-1.85413
-0.895655
-2.78419
0.359532
-0.716335
-2.42494
2.47368
-2.02197
-1.8955
-0.0223849
-0.800787
1.46231
-0.652479
-1.7789
-2.46197
-4.37455
-8.20496
-2.1511
-0.988274
1.72808
0.413623
-3.8146
-0.0164675
-2.33429
2.48288
2.51342
-2.3395
-0.60186
0.122246
-2.41561
0.265065
2.16439
-0.740741
-2.47948
1.29466
1.29682
1.28156
-0.79535
-0.400422
-0.00148425
-1.30416
-0.340508
-0.774228
1.15019
-0.57237
0.414547
0.0136609
1.327
1.20541
-0.238391
1.21011
1.24828
1.29352
-0.158317
2.19732
-0.527256
2.03155
-0.115653
1.89896
2.83642
0.0472181
0.153069
0.94237
1.34934
-1.00843
1.12446
-0.294438
-0.205533
0.247746
1.40129
0.371095
0.468136
1.54286
-1.08558
-2.36716
2.65179
-2.3053
0.358146
-4.84455
-0.288816
-2.21684
1.17447
0.5146
1.20297
0.66788
-0.374779
-0.240102
0.812373
-0.217612
-1.75813
-3.58847
0.749388
-4.56522
0.340281
1.09405
2.49219
1.31797
1.07541
0.93255
0.350831
2.29338
1.23367
1.30617
0.872573
-6.36642
-1.822
0.138368
-0.794909
2.68499
-3.06629
0.235439
-0.000102311
-0.393789
2.45439
1.20423
0.317288
-3.47542
-0.559703
-0.582064
-0.167359
1.2222
1.77976
-0.361451
1.64406
0.217858
2.3234
-1.48335
-0.342779
0.955903
0.573136
0.20416
1.67625
0.745583
-0.415191
1.20936
-0.131186
-9.43371
1.51818
1.74939
-0.505781
-2.76736
-2.30726
-1.16817
-0.731135
-2.40519
0.283421
1.31885
-0.105538
-0.873748
0.401289
-2.75463
-0.773229
0.0734889
-1.94404
-3.64779
0.279873
-2.31164
-2.51135
0.845267
1.32442
1.06124
-8.84717
1.08711
-1.47742
1.40412
2.20045
-1.79205
-0.0351626
-0.131927
1.89375
0.410573
-7.63861
-0.415877
-1.19818
-0.191252
0.117412
2.27807
-0.124245
-0.00137381
1.10263
-0.580257
-0.0101798
1.29282
0.288952
-0.521987
-0.940045
-2.48938
0.802755
-2.25113
-0.178171
-1.50224
-2.74174
1.25802
1.27022
2.48093
0.249079
2.46008
0.431232
1.65396
-6.56615
-2.56205
-8.31425
1.59331
1.25327
0.175669
0.492177
-2.42684
-6.38499
-0.00859429
-0.682311
-0.136061
-0.596877
-0.246967
0.156437
1.24224
1.3771
-1.37011
0.0806147
0.15914
-0.438633
-0.506479
1.18055
-0.535281
1.19037
-1.4989
-0.127487
1.28491
-1.93814
-0.610575
-0.000148557
-0.54609
-3.01693
1.1644
-1.29835
-0.101781
-0.17749
-2.39125
-1.85047
-0.19371
1.82772
1.65474
-0.00497713
-0.950854
-5.64254
1.1014
-0.031721
-0.674189
-0.00544642
0.281077
0.110568
-0.136085
-1.66942
-0.00437754
1.0911
-0.0205028
0.178724
-3.53987
-1.93738
1.37815
1.0556
0.0785706
0.288476
0.890883
0.972271
-0.524698
-0.646766
-0.226076
-7.55768
-0.115082
0.973972
-2.65151
0.41804
0.0833091
-0.0167043
0.230574
-0.321482
-0.144404
-0.0948012
1.40227
1.24815
-1.1725
-0.101067
-2.70484
-8.05303
1.02956
-0.177769
1.91104
-1.78808
1.30204
0.914885
-1.81302
-1.17097
-9.95407
-1.07486
-10.8348
1.18297
-0.185148
-0.107897
-2.2775
0.854357
-0.816135
1.4566
0.00316348
0.0321078
1.63542
-0.0511208
-0.047207
-0.713019
1.30507
-0.0692188
1.3623
1.17914
-7.47546
-0.14262
1.3881
-1.30969
1.21922
-6.30788
1.11828
-3.51049
-0.110292
0.0495616
1.04219
1.01349
-0.522004
1.31638
1.08242
-0.186127
1.5355
1.04722
-2.83503
1.31873
-0.119064
-0.0192149
-1.58458
-3.31016
-0.112041
-2.32384
-0.00101585
1.31025
1.40917
-0.211578
-0.474487
1.11435
-0.0386027
1.31388
-6.33904
-0.011975
-0.38302
-2.67831
-0.249545
-9.91766
-0.271212
-3.90483
-0.122033
-1.26451
0.258235
-0.202777
-8.22893
-0.208419
0.316111
1.78816
-3.22451
-0.0088101
-0.9951
0.5343
-0.402899
-4.56725
-0.982431
0.833676
-0.34756
0.908096
1.35307
-0.00223846
-0.123611
-0.36904
-0.131738
-0.347488
-2.78381
1.27909
-0.960683
-0.0124928
-1.88123
-7.71071
-0.0227729
-0.130706
-1.38452
-5.40425
0.12524
0.153867
-0.0792686
-0.122386
-0.0167055
-0.00614885
-3.86033
-1.84883
-8.03694
1.05796
-1.08861
-0.108968
1.11189
1.14491
-0.132233
-0.0184507
1.12284
0.561293
-0.023424
-6.8799
-0.0147144
0.905269
0.852528
-3.8266
-0.0142877
1.10906
0.0876636
1.25462
1.2078
-0.105171
0.246624
1.19884
-0.291673
-4.50997
-0.126543
-0.553565
1.01662
1.31611
0.00396201
-0.085625
-0.135217
-0.11722
-0.373895
-0.104355
-5.84815
0.0102619
1.32128
0.168931
-0.135108
1.29995
-0.107868
2.21512
-0.125464
0.15368
0.107063
-0.158736
1.24568
-0.12617
-0.401149
-9.20195
-0.295226
1.26112
1.0445
-0.129761
1.31752
-0.0771824
-0.149884
1.08174
-1.73172
1.19716
-0.150952
0.0601749
-0.506786
0.275698
-0.520897
-5.71042
-0.420021
1.01572
1.01677
-0.0806705
1.14481
-0.0078605
-0.522533
-0.181563
0.798146
-1.0175
-6.45994
-0.438169
-0.00544799
-0.655297
-0.165579
-0.608037
-2.66589
1.90141
-4.96945
-2.29698
1.9025
0.0239012
-0.610619
-0.143082
-0.789581
-0.0775004
-0.586003
-0.160479
-1.12545
-8.8635
0.962188
1.29062
-0.196615
-0.332324
0.604695
-0.00559185
-0.0239513
-0.128152
-0.134825
-0.27514
1.26916
-3.06048
-11.3467
1.09449
-0.190562
-1.17976
-0.0627127
-4.26011
-0.0770113
0.232373
-1.25093
1.30941
-0.250119
-0.256183
-2.21545
-0.192601
-0.49392
-0.155593
-3.20906
-11.519
1.86042
-6.23274
0.294983
-0.00551895
-0.664685
-0.0657094
-0.118991
-2.40605
-0.00434935
-0.124977
-0.332335
-0.147765
-0.295391
1.61929
0.372211
-0.0346912
-0.0679525
-0.134528
-2.66359
-0.108964
-1.24184
-0.109503
-0.329296
1.40263
0.138405
1.3004
-0.0353735
0.00370847
-0.0772639
-0.00193785
-0.0166153
-1.07966
-3.59728
-0.0993792
0.257756
0.0832378
1.06484
-0.0859757
-0.104809
-0.0543164
1.17335
-0.137574
0.270831
0.223461
-0.00157043
-0.139186
-3.06298
-0.124926
-0.0100283
-0.177238
1.29208
-0.00163714
-0.347169
-0.0647336
0.547409
-0.382313
-1.26978
-0.00795042
-0.0725465
-2.35046
-0.149084
-0.128153
-0.462653
0.00469255
1.30219
-0.0823261
-1.65839
-0.104954
-0.129978
0.40646
-0.231489
-0.130598
-2.35688
-2.33579
-0.12552
1.46759
1.51481
-0.0200733
-0.129708
-1.35467
-0.0423074
0.351511
-3.62153
-0.051996
1.21674
0.434815
-0.0202407
-0.076668
-1.97701
1.2326
-0.0583943
-0.0297346
-0.0593593
-1.97451
0.101493
-0.367845
-2.21883
1.1128
0.324526
-0.703346
0.546042
0.00422729
1.31653
-0.0435507
-0.0152923
-0.0610013
-0.013513
-8.78697
-0.165485
-0.21632
-0.0160246
-0.14201
-0.0271199
0.0597468
-0.0335461
-0.0764961
-0.483044
-0.117708
-0.0917079
0.00595021
2.57611
-0.120342
0.0532969
-0.0205295
-0.0409714
-0.607076
-0.106627
0.0100492
0.426945
-0.201723
-0.130265
-0.0793037
-0.0465518
1.32584
-0.0260395
-0.115078
0.0318586
-0.0134015
-0.0137214
0.0683322
-0.123098
0.61841
-0.15096
-0.926732
0.496536
-0.0750034
-0.229934
-0.0727819
0.0248015
-2.55763
-5.57708
0.235679
-0.153557
-0.006306
-0.0154454
-1.7846
1.22274
0.846913
-0.098549
-0.16728
-0.144043
-0.0838974
1.32073
-0.0308481
-0.186242
1.49157
-0.133557
1.44198
-0.195628
-0.323259
-0.0116426
-0.0509097
-0.0258556
1.55469
-0.119021
7.08993e-05
-0.528019
-0.851399
0.400428
1.29762
-0.0116531
-0.652925
-0.503086
-0.034626
0.000661558
0.0592643
-2.23921
0.000393422
-0.193161
-0.0868173
-0.123167
-0.121673
-0.204363
-0.205107
-0.000948547
-0.0404729
0.0660703
1.40616
-0.671288
-0.0745969
-0.131169
1.36607
1.69977
-0.0290488
-0.00227155
-2.57112
-2.33074
-0.0194929
-0.240502
-0.0396477
-0.263243
-0.0031605
-2.51436
-0.0246866
0.0317098
-0.174382
2.07984
-0.0458667
-0.133119
-0.45633
-8.83832
-0.0413371
0.884345
0.0375225
1.03962
0.0267629
-2.31138
-0.0541804
-0.168617
-0.536045
-0.239113
-0.149459
-0.0465188
-0.0599304
-0.126257
-0.0279394
-0.0503103
-0.121356
-0.0321852
-0.0383998
-0.123554
1.29112
-0.0582832
-0.57784
1.10642
-0.0718402
-0.0931941
-1.1486
1.04154
-0.250238
-9.83657
-0.119588
-0.112003
-1.3721
0.0314188
-0.187274
0.28329
-0.170978
-0.0410648
-6.02171
-0.0241732
-2.18383
-0.176641
-0.15466
-2.5952
-3.78489
-0.0269588
-0.0781019
-0.198029
0.254641
-0.0670033
-0.0748285
0.900297
-0.0192803
-0.038214
-0.0493238
-8.89182
-0.056188
0.000542222
-0.11285
-0.128451
-0.162677
-0.266488
-0.0214077
-7.65749
1.85271
-0.151623
-0.0597417
-0.115772
-9.02395
1.29907
-0.115529
0.13601
-0.000354323
1.3751
-0.062725
0.274621
-0.0477361
-0.00341128
-0.0558191
-0.0338705
-1.08192
-0.146026
0.314324
-0.37042
-0.123421
-0.0286651
-0.133963
0.485482
-0.413143
-0.028404
-0.0378258
-0.134796
1.60648
-0.11714
-0.0483893
-0.029148
-0.166359
-0.0921066
-0.0656813
1.6251
0.904297
2.2535
0.00113781
-7.201
-0.453584
2.89371
-1.01195
-0.121628
-0.0910455
-0.145594
-0.629869
1.3739
-0.411308
-0.297682
-0.0788302
-2.22919
-0.197523
-0.11136
-0.0768139
3.05605
1.23074
1.90028
-0.306538
1.26643
-0.035787
-5.83101
-2.26867
0.972249
-2.36935
-2.32377
-0.0562926
-0.790441
-0.226199
-0.132657
-2.72658
-0.300954
-0.582242
0.559517
-10.6373
-0.112261
1.11841
-0.123101
-2.19144
-0.100258
-0.0945596
-0.13894
1.60318
-0.177739
-4.48692
-0.0641414
-1.17547
-0.00221565
-0.513244
-0.75024
1.86667
-2.43214
-0.394701
-0.314879
-0.0943014
-0.108762
1.2528
1.37479
-0.121369
-0.408299
-2.24854
-0.702802
-1.57671
2.39975
1.1704
0.248723
-0.0921595
-0.199965
-0.157979
0.985344
-0.129768
-0.463424
-0.122972
1.15313
1.30887
0.39317
-2.22207
0.292401
-0.418836
0.0224793
-1.83528
-0.0728876
-0.687255
0.935308
-0.0265379
-2.42611
-0.0761384
1.78788
-1.70186
-0.362542
-0.127824
-0.829438
0.0173311
-1.14055
2.36349
-0.0697225
-7.9296
-2.50109
-0.275718
-0.0404526
0.80666
-0.580134
-0.236873
-0.720025
-2.30851
1.41454
-0.120817
0.0426772
-0.775067
-1.34338
-0.113222
-2.38986
-0.0910026
-7.52227
2.50216
-0.105016
-2.4816
2.12783
0.00212879
-0.0588337
-0.125814
-0.00828447
1.61721
-1.59515
1.31547
1.25033
-0.0469945
-0.160522
1.21065
1.24855
-0.0570878
-0.136638
-2.80375
-10.7957
1.24576
-0.190677
-1.63137
-2.31269
-0.272436
-4.36057
-0.128431
-0.0930587
1.38655
-0.115059
-0.241311
-2.88173
-0.0981189
-0.0935681
-0.0804044
-2.23037
-6.47634
0.0221141
-0.23908
0.0824265
-0.819749
-0.139436
2.35968
-0.110801
-2.00998
0.24023
-0.068717
0.190775
-0.147763
1.25205
-0.131033
0.740992
-2.12704
-0.0855898
1.46443
-4.08637
-10.5762
1.62904
0.596073
-0.130638
-0.143531
1.2499
0.31754
-0.102381
0.431373
2.2913
-1.13137
0.519583
-0.314334
-0.115604
1.6554
-1.65947
0.0200195
-0.0624811
1.37963
0.424817
0.603573
0.449865
0.750752
-5.48736
-0.117405
0.496392
-0.139478
-0.0136043
-6.18318
-5.01717
-0.111102
-0.132279
-4.84031
-0.080435
-0.506451
-2.58754
0.880116
1.15582
1.00534
-0.0426812
-0.894662
-0.621332
0.960999
-0.0357573
-0.061334
2.24464
-0.0602748
-0.0362454
0.125984
-2.22645
1.34196
-0.0294005
-0.71679
-2.48292
0.0894018
0.376131
-1.54376
-2.45164
-0.62983
-0.0592325
-0.0370045
1.18106
-2.63462
-7.51344
0.12005
0.284992
0.180831
-0.00375312
-0.114924
-0.00361378
-0.418096
1.16948
-0.0569159
2.778
1.68329
-0.155858
-0.0816436
-2.98682
1.95645
-0.217356
0.014365
2.75001
-0.0707358
-0.0252797
1.06137
2.41622
0.279158
-1.46821
1.31482
-1.61122
-0.00137874
-0.169007
0.155868
-2.98858
2.21135
0.145847
-0.00609891
0.0156997
-3.53275
0.0859876
2.5358
0.00198527
-0.0718207
-0.0924293
1.28901
-0.346975
0.14923
1.24652
0.451507
-0.0795401
-0.242999
-8.54845
0.115458
0.290252
-0.243404
-0.0726442
2.08585
-0.0358664
-0.138206
1.35573
-0.0401587
-0.0182172
0.0426039
0.394611
1.1688
-0.0563551
0.276461
-0.866751
-0.0616449
-0.344811
-7.0376
-0.154757
0.108276
-0.0109176
-0.0268452
-0.504914
-0.0456429
-0.0581081
-0.012385
0.442231
-0.159208
-0.509203
-2.12811
-0.0869912
-1.25819
0.482006
-0.00621348
0.344918
-0.145652
-2.37009
-0.0209979
1.33624
-0.502838
-0.365134
0.0825917
-0.447726
1.44709
-0.0292042
-2.28954
0.254033
2.97359
2.45447
-0.0575118
0.620228
-1.15532
-0.00439259
1.367
1.28712
0.776324
-0.0460751
-0.0307105
0.0634765
1.9302
0.143492
0.491171
0.327777
-6.02011
0.207738
0.0351764
1.4128
1.68591
-0.101493
-10.6668
-0.243219
1.34807
1.617
0.28528
-0.0104224
-0.00567364
2.41203
-0.00859801
-0.0816478
-0.106803
0.0965099
-0.0395493
-0.0490646
1.29193
-0.0138043
-0.0127782
0.258876
-0.969046
-0.0941341
-0.00502993
1.59132
1.1738
0.891195
-0.313952
-11.5683
2.71041
-0.091073
0.0724153
1.21407
-0.66671
0.378391
1.35361
1.1082
-0.00599564
-5.93354
-2.30744
1.28674
-0.833177
-0.0182535
-0.12705
0.992476
0.599992
-0.0590894
-0.0460734
0.933175
-0.4173
-0.0264446
0.0679984
-0.0133742
-0.638454
-0.648429
1.32777
2.15635
-5.06868
1.95678
-0.240568
-0.53195
-0.0318311
-2.74543
0.11266
-10.0577
0.275489
0.193476
-0.0814202
-0.0914386
0.355572
2.86586
-0.012401
1.44033
1.28234
-0.377678
-0.074505
0.580598
-0.245767
-0.634324
-6.65174
-0.058655
-0.148776
-0.123994
-0.479488
1.61492
0.441304
0.34733
0.245591
-0.919567
0.102723
-0.350127
0.286233
0.272864
0.114749
-1.39476
1.34126
0.875463
-1.78668
-0.444816
-0.0188506
1.13835
1.32344
1.40075
-1.85123
-10.9964
-0.996604
-0.179624
1.29896
-1.15444
1.35259
-0.0517681
-0.0013599
-5.00707
-1.08524
1.31708
-0.604525
1.3567
0.900215
0.169238
0.0883935
-1.31409
-11.3171
-0.57966
-1.39992
1.23424
0.193844
1.39482
1.35257
-0.0698811
1.37873
0.137005
-0.002936
1.07379
1.26574
-1.9938
0.596245
1.20737
1.27642
0.267988
1.17354
0.546099
1.06809
-0.180683
-0.258695
0.0760141
-2.48603
0.970351
0.584398
0.595627
-2.77499
1.44089
-0.000786551
-1.28181
-0.145162
1.32608
0.469294
1.00617
-0.0670951
-2.31675
-0.744806
-0.045975
-1.25537
1.1997
1.21632
-2.68938
-0.910979
0.242465
-0.355053
-1.1126
1.21749
1.80848
-0.163287
0.293477
0.702971
0.289544
0.193872
-0.0219056
0.654876
-7.91357
-0.0357748
-1.8926
-2.20955
-0.330735
1.54206
0.79277
-0.353631
-0.191531
-0.108044
1.29349
1.30254
0.650771
-2.45979
1.50577
1.43156
1.32216
0.141217
0.0918141
0.240454
0.197005
0.686679
-4.48798
1.32618
-0.601171
0.230116
1.46796
-0.806909
-7.13626
1.86034
2.20571
0.193314
-0.0349543
0.998303
1.23814
0.09876
0.0924226
-0.173824
-0.215529
-2.36026
-0.546184
-2.17422
-1.58008
-0.310014
1.28355
2.24471
0.144084
1.29869
0.165118
3.20795
-0.345853
1.17912
0.134222
-1.164
-5.18063
3.12107
0.233617
-0.153117
3.02052
0.711933
-1.48831
0.663143
2.93185
0.33226
2.83798
1.19829
0.121085
-6.90358
2.66691
-0.245398
-0.164412
-1.1525
0.898164
-0.0151061
0.941884
2.42284
-0.0143318
0.254669
1.17898
0.527565
0.77599
1.35709
-0.132481
-9.18099
-1.20107
2.34217
0.184819
-8.55637
0.245617
0.174877
2.27163
-0.229043
0.0141833
-7.90559
2.19474
-1.57032
-7.24293
2.12042
1.32822
-6.61303
-0.786689
-5.91428
1.11903
1.55927
-6.00173
2.00478
1.27366
0.327189
-5.49067
1.10957
1.16036
0.259816
-1.41262
-2.43642
1.42626
1.26298
-11.4366
1.00733
0.679302
-0.494222
-2.17947
1.78916
-1.30076
1.34654
-3.19693
-4.22704
-3.9104
-3.6285
-3.38467
-3.18336
-3.01552
-1.59243
-2.86207
-2.55461
2.2984
1.7215
-0.829791
1.25636
0.276111
1.29236
-2.48602
1.66726
0.000955232
-2.42639
1.10354
-2.43369
-2.37579
-0.0348102
1.51667
1.3151
1.21417
1.22992
1.3248
-0.569522
-2.33881
1.46006
-2.31659
0.125352
-3.24152
-2.28919
1.36468
1.39094
-0.123145
1.17514
-0.00989808
1.34428
-2.30637
-1.08893
0.624054
1.32196
-0.792722
-1.09973
1.25284
-5.75884
-0.351223
-1.58421
-2.30856
1.19016
0.651906
0.296799
1.31298
0.397481
-0.116863
-0.103563
-2.30269
-2.63717
1.10977
0.236598
-0.0915398
1.3827
0.12376
-4.23284
-1.86486
-2.29679
1.05198
-4.59237
0.847701
-0.156971
-0.024696
-2.29474
0.97648
1.49518
-2.32131
0.894636
-2.28877
-0.16967
-0.643669
-1.08694
-6.05014
0.832167
-2.24474
0.728113
-2.19851
-11.185
1.27131
-0.0173146
1.2188
-0.0972597
0.645899
-2.0859
-1.6862
2.40029
1.39131
-2.02713
-7.87448
0.5741
-9.55858
-5.22826
1.49117
-1.85177
1.27361
0.498386
-0.0886034
0.655962
0.461991
1.28945
1.30632
0.195957
-4.39562
-1.68821
-1.09083
0.402975
0.129338
-0.237633
-0.964029
-2.23235
-1.17279
-4.64117
1.17289
0.323942
1.91628
0.502122
2.03293
1.1503
-1.34801
-1.40705
1.14277
-5.76827
1.20202
-0.0899044
0.0441549
1.20605
1.34037
-0.216493
-1.21604
-4.80183
0.15375
-3.73915
0.365758
0.97416
1.79318
1.19856
2.13611
-4.69146
0.96944
0.312499
-1.11651
0.38474
-0.620561
0.04269
1.49335
1.32504
1.2806
-1.05866
-0.070998
-0.198566
-0.295974
-0.438833
-0.564355
-0.722104
-0.984596
-0.164055
-0.867455
1.04852
-1.19546
-2.2161
2.4433
-1.04305
0.13056
-1.97097
1.293
-1.15673
1.36688
-1.05571
0.308751
-1.09378
-2.6161
-1.12648
1.30154
-0.0365781
-2.65933
-1.14808
-2.28148
-8.18571
1.31273
-0.813829
-1.15657
1.27125
1.31146
-0.964566
-4.96652
1.39361
0.367229
-2.66203
0.563496
1.09341
1.93632
-1.18724
0.372169
-7.57327
1.57191
-10.0345
-0.607341
-3.88227
1.2449
1.09049
0.652239
-1.8936
1.12353
1.46869
-0.151792
-2.11263
1.0759
0.186701
0.31128
-0.510581
1.07753
-5.50931
-0.0124905
-0.00258258
1.1354
0.0565042
1.49465
0.347463
-2.89253
0.618471
-1.13357
1.477
1.30449
1.48921
1.50924
0.261243
0.322705
-2.88737
-0.50683
-2.20317
0.274406
0.446733
1.42314
-0.926978
-1.08607
2.41897
-0.00349303
1.18512
1.20519
-2.93691
-0.0310578
-0.432983
0.169985
1.13254
0.486479
1.23567
1.19728
0.867529
0.481131
1.45493
-1.1016
-0.0157674
-3.14007
-10.6986
0.213932
-3.42138
0.836685
-2.93742
0.986263
-0.0471171
-2.24366
0.322498
-0.882109
-3.50611
-11.3979
0.293927
1.36644
-0.776947
-0.956534
-0.0308061
1.1086
0.244007
-6.94584
-0.0209321
0.083183
0.592618
-4.95515
1.34642
0.740271
1.34082
-10.6436
0.339489
-0.0109881
0.00159157
0.579856
-3.19567
0.697959
-0.0667383
-0.0249436
1.24322
1.56724
-0.563077
-2.40235
1.2766
-1.94514
1.41618
-0.0920354
-0.0961015
0.0691061
-2.27023
-0.012047
-0.0593403
-3.22209
-2.30782
1.11054
-0.271659
0.70895
-1.40827
-0.0156477
1.82516