/*--------------------------------*- C++ -*----------------------------------*\
| =========                 |                                                 |
| \\      /  F ield         | OpenFOAM: The Open Source CFD Toolbox           |
|  \\    /   O peration     | Version:  2306                                  |
|   \\  /    A nd           | Website:  www.openfoam.com                      |
|    \\/     M anipulation  |                                                 |
\*---------------------------------------------------------------------------*/
FoamFile
{
    version     2.0;
    format      ascii;
    arch        "LSB;label=32;scalar=64";
    class       volScalarField;
    location    "8.8";
    object      p;
}
// * * * * * * * * * * * * * * * * * * * * * * * * * * * * * * * * * * * * * //

dimensions      [0 2 -2 0 0 0 0];

internalField   nonuniform List<scalar> 
13486
(
28.1495
24.4792
10.5288
-1.46101
17.2161
7.70029
13.4958
21.3983
23.0483
17.7535
-25.9619
12.3764
29.0546
9.21464
14.0546
18.2306
-24.8493
-83.3933
13.7541
26.4195
-0.514148
28.8935
24.205
-8.95433
16.379
-8.98923
-26.4513
3.53028
-2.11439
5.83011
-11.3016
9.35061
-5.1813
10.0831
21.4099
6.81732
8.09958
25.4455
-10.9244
22.7469
13.6977
29.637
3.38016
16.3651
16.2444
12.3421
-32.8925
-7.01772
8.10527
2.06986
20.4558
7.63875
9.18447
25.6666
-103.963
17.537
6.71952
5.30518
-4.84367
6.54061
-28.2618
6.57076
-17.8309
-0.140442
-26.1217
7.34144
-7.05381
28.1072
23.0098
13.0087
-6.65338
-95.4402
22.8878
-16.7718
6.77433
6.9364
6.64449
14.0833
-32.6507
10.7771
0.757667
24.7599
-18.713
11.2777
28.2247
21.4548
-5.01592
19.8687
22.0912
19.6702
5.32529
20.1403
27.5311
25.5314
23.6355
-10.618
-26.8716
-15.8697
22.7431
-25.3348
6.27359
9.69631
-16.671
7.29919
23.6041
-25.3393
22.151
-19.0955
-31.5232
19.7844
23.2329
7.60149
25.6413
5.49074
31.0859
23.136
16.6985
11.1463
22.9956
8.42336
-79.6725
-28.9224
24.1362
-5.59944
22.8052
6.22921
19.1373
12.3433
12.3687
-12.8563
7.28339
-33.4955
-12.1486
-17.5355
20.9612
19.9412
32.5268
19.8828
8.8118
21.5931
-2.09093
9.39016
10.5195
9.16092
5.51766
-17.215
12.0453
30.3749
1.61882
-0.183467
16.569
14.9901
6.59824
25.0985
13.1746
10.8156
18.2971
10.0311
24.2673
7.84776
3.81576
24.2538
-6.14295
29.4463
6.9182
6.93667
10.7443
34.4279
12.2437
-17.5221
-14.81
13.2153
18.0771
16.1558
-14.9195
-44.1643
8.96131
-4.13001
22.225
10.5309
22.2324
5.36118
13.9839
-29.4218
12.1253
3.53629
-0.124427
7.23662
14.0538
24.0372
7.87002
9.0364
5.29255
27.1399
5.99359
-26.2314
-19.2216
3.98904
27.0554
7.63037
-13.5416
12.2033
25.4163
17.2721
7.7996
8.57336
-68.2729
23.6095
4.26887
12.0461
5.5435
-7.42745
26.2129
22.1318
7.68234
20.0613
4.74507
19.7362
26.7796
-4.49591
-24.837
1.42852
21.7878
3.68114
8.79359
27.8479
5.87316
-34.4031
17.4382
-9.20921
22.0715
4.47003
-2.65596
30.0966
-14.1987
27.392
9.3161
9.46747
27.6102
14.6066
-5.48658
17.9687
6.07524
26.7674
-31.9263
23.9323
15.3766
-1.49064
-18.4694
17.1255
-29.4513
31.3017
22.5122
-13.5423
14.5782
-44.0949
8.83549
18.8618
10.2339
-5.23458
23.3263
-26.4939
13.7678
-43.3045
18.1579
-29.9243
15.8766
-9.32839
22.0739
-28.8867
23.9654
21.8465
4.57419
11.4808
27.9548
-0.950818
12.7402
-51.6545
-22.8068
11.6736
-46.9779
20.5696
22.3113
-17.3663
-30.3613
-26.1066
-2.25973
11.4491
9.17718
22.1272
-11.5785
2.94814
23.8715
21.0111
10.0207
8.28737
3.65358
11.9106
22.6256
14.4693
-7.77548
-71.615
12.2678
9.73221
9.30022
16.3431
6.36981
15.4487
-11.3628
7.89763
-8.44299
0.129638
11.0546
7.16351
-21.5619
20.1156
3.12338
22.1069
23.6383
15.3725
7.22387
2.16549
22.0929
25.6304
32.1974
5.12206
18.28
20.3763
12.3648
17.7369
19.9537
19.8204
3.10126
26.9164
11.6638
22.998
31.7694
15.1525
17.2715
-26.6986
15.6149
25.4425
17.6139
14.1902
-31.5139
-6.84004
18.3101
31.033
-4.82018
1.03698
17.9659
12.0761
11.5737
-27.116
22.5239
8.63245
-16.6637
19.089
-19.0553
-5.38558
13.77
4.35704
23.5366
21.8854
5.22466
2.84776
8.91771
-32.0547
26.5721
19.1613
2.86154
18.4131
8.95863
-31.0333
8.88528
20.6032
22.09
-5.94442
-21.0688
-8.05981
21.9011
19.5866
28.9869
24.2915
-30.9481
15.2689
10.2782
17.1015
-22.3691
0.422558
25.9514
3.8851
14.7455
27.522
27.9512
7.24783
-3.29661
-30.5062
-23.1513
-2.60297
-22.6285
15.8242
21.3014
10.4216
13.4102
5.18182
25.3964
-3.61038
18.9037
23.8161
16.6743
8.7453
2.18767
22.6358
22.019
26.7421
-29.8535
18.3702
-15.5532
14.7853
22.2139
-9.01884
31.0865
17.6531
4.80603
7.9668
12.1577
22.3033
-26.5797
11.2538
28.763
21.3275
14.5905
9.45618
17.2362
-1.96992
28.8893
1.44636
16.3979
27.8146
-25.2832
4.07925
-17.5956
2.04078
-2.40484
24.838
25.9638
28.8025
-8.1931
8.69981
-31.6347
17.4716
22.3045
2.23343
3.95423
21.7565
-26.6655
-46.9019
-18.01
-16.7867
11.5531
25.5526
-14.9033
11.3551
1.44749
21.5592
-0.111398
32.9627
27.7537
22.8425
20.9205
5.37483
-14.869
31.6954
15.1498
8.27251
4.5947
23.0753
-26.3245
11.8013
18.3487
13.4425
5.78575
24.0465
-3.85091
-23.6969
17.7055
-0.228925
34.219
17.8176
20.5502
23.3225
-43.0367
11.5827
30.0626
17.5779
25.7252
14.4322
12.9635
-12.427
7.64475
2.82802
-25.8825
22.4822
23.0703
-30.3769
-0.700151
7.24514
28.1002
24.9265
14.5412
23.2721
19.314
6.12615
18.2874
20.655
-14.2694
28.6943
5.21564
13.3191
29.5769
19.7688
7.08098
18.1185
-18.7853
-24.523
14.2639
19.2231
24.239
27.6215
-28.5038
17.0892
-28.4304
-15.6476
27.2701
12.623
-29.9525
-19.1179
-11.7764
11.57
20.8303
-28.1026
3.95656
23.2776
26.7138
2.0015
23.2755
-17.8431
-31.9385
2.04634
14.3747
-31.5273
23.7297
11.5712
-29.6387
21.1893
24.8574
-5.92092
-28.52
20.6159
27.1898
13.983
28.2672
11.3957
17.8218
12.2521
23.6501
5.11091
26.8218
-26.7861
15.9354
22.8014
13.2114
0.604323
22.0866
-24.4746
11.7538
25.8148
28.8596
-41.5778
13.6663
13.6079
7.26518
21.3041
19.2205
15.7301
-27.3772
9.53624
28.1279
11.4651
11.5481
-27.5823
28.9035
10.1135
6.06003
21.5517
20.5081
8.68012
17.6706
21.7255
12.3675
3.30581
14.0717
0.410749
28.4633
23.0321
18.1521
19.0849
2.08537
-2.31104
30.4284
13.2702
30.4526
-30.2521
22.1895
6.63951
-17.0035
19.2149
17.0063
31.3507
-42.7796
19.3076
18.0838
-5.61571
16.9435
-77.2431
8.17996
22.5283
-28.6653
1.99665
-2.78919
11.9906
13.6645
23.2669
-0.00684394
29.9338
22.6872
7.18258
-31.3243
5.96394
13.4112
-29.4635
9.86652
-25.8108
27.3877
0.473786
6.38041
-35.5563
29.0892
-0.0882369
-7.43343
29.5829
20.5518
-30.538
1.38379
18.7305
10.4828
22.8083
5.85046
-43.9342
13.9732
21.4947
13.1069
20.3323
29.7958
5.6447
-40.3061
22.0256
-4.23781
7.20392
19.0727
18.7446
15.1426
-30.109
11.569
-4.11507
12.0028
27.2286
13.2007
12.2582
11.2651
12.8593
11.282
22.5363
7.82682
22.3907
22.0039
26.9253
-62.6645
6.68426
30.3088
2.76182
-26.0879
23.0339
-2.09774
23.7333
4.90713
21.5941
8.83826
-16.8562
-7.90627
-4.33254
-24.1595
16.353
30.8439
18.3427
-15.4803
5.38022
22.7426
-28.8136
15.0151
-33.984
30.6745
-29.7485
16.2852
1.85708
16.8819
22.1321
17.2379
-6.40079
2.3585
29.3957
21.95
16.8746
21.4048
14.2608
20.124
20.7069
16.9182
-14.5863
12.3231
25.1994
10.6366
-6.22422
21.4115
-24.7427
16.9635
9.29728
23.3689
22.908
-32.1074
12.2026
-29.7944
1.22257
12.28
14.0401
4.23739
21.5476
10.6487
3.37928
24.8517
-18.0226
-20.6987
-32.3642
4.28191
-29.6757
-8.27706
-7.56797
-42.7912
22.8885
29.0534
7.60019
-10.268
29.588
28.5501
-40.8552
-12.0955
23.4612
-26.0777
6.90887
-32.964
10.4532
17.8169
-23.9107
14.8426
17.9105
4.83543
-29.8502
-7.47678
8.02871
21.2223
17.4884
17.7733
-33.6517
21.174
28.1586
-25.5482
-42.5577
24.4329
16.2532
18.4814
-7.74052
6.95373
-33.0225
8.19834
22.5303
30.5273
23.6467
1.84059
8.72743
22.1267
27.7182
15.1933
23.7757
22.3784
28.4744
11.4553
-1.43356
11.2723
14.5451
28.1677
12.239
18.8366
18.4988
14.3674
12.655
8.47404
-1.67554
21.5147
22.9042
18.2378
15.6697
-34.7229
6.40621
14.7318
17.8076
-0.21728
10.9094
5.2605
-41.0152
-29.1462
16.0826
6.464
-18.234
-26.6264
10.6036
20.3314
-25.7415
-48.3357
23.7907
-20.6815
28.9408
-36.7207
-18.3631
25.0378
27.3438
6.41187
10.6895
15.0275
22.5019
18.4041
-10.1639
6.13469
9.36282
-21.6553
21.574
6.65641
16.8776
-0.920572
23.0679
-26.3207
5.73099
8.36932
25.2188
-0.118251
-26.6833
-23.5674
28.7973
-29.9941
-43.7217
-23.6024
22.3431
-35.2195
1.40334
12.5789
15.6346
-6.23303
19.176
-24.2709
20.8477
21.7002
24.6797
15.1651
12.6867
15.8021
19.0439
8.32957
25.2365
19.2626
8.36577
-18.9568
16.4556
8.77073
9.27834
23.814
14.3401
-5.97565
22.034
-86.7668
20.2886
31.1275
8.41576
-4.03947
18.0076
7.49638
6.39209
14.648
0.324767
22.3638
5.76897
2.78005
4.97014
-26.466
26.1868
-30.2133
2.05167
22.0806
6.06928
27.2477
23.9038
26.507
12.6033
18.7133
11.0562
10.071
20.217
22.3941
7.59551
12.7925
-28.8482
9.37034
-35.6472
22.4867
-14.3301
-8.2045
-40.3261
7.16767
12.1186
22.1805
6.03097
3.48936
-17.4177
22.0908
30.8657
6.21665
-22.121
16.7243
-20.0868
22.3078
7.18801
-31.212
25.055
4.26246
29.8411
18.3729
22.0282
6.86389
25.9406
6.81019
23.9694
5.02255
-6.2736
9.09027
-44.1064
17.6469
-4.1516
12.504
28.8871
22.0593
23.1137
27.3608
23.4191
25.1667
15.7356
23.4092
22.0772
22.591
13.5498
5.72314
1.74313
8.43493
8.25336
24.4161
-17.0919
31.4088
3.01338
6.12484
30.3605
27.3793
13.4625
-23.0879
22.7321
16.2437
13.0291
22.1717
-17.4224
5.47645
22.001
27.0267
-20.329
24.2031
25.7793
3.3495
4.07815
25.7553
14.5515
8.85815
-28.4464
11.2252
-1.42386
21.2415
21.644
6.32543
-25.089
3.97776
8.6578
11.5468
12.6451
27.6589
7.81323
32.5606
22.528
13.6479
23.9441
-30.8378
-13.7928
-33.5467
22.3731
-20.3805
-16.9295
-17.2162
15.4928
17.2093
-19.7365
20.1202
-28.2402
16.7185
-20.1981
-1.10515
20.1671
11.4971
26.1086
22.4341
22.7627
22.1732
13.3522
-3.33901
-0.0503059
11.5315
-42.5334
15.3394
19.9959
-23.9567
12.8338
6.06227
-9.90704
-33.9104
18.7473
16.1767
10.052
3.0131
14.8943
1.74422
-2.66805
11.5359
-3.46303
24.1806
18.7795
26.1479
-18.29
20.8303
5.4928
27.0033
12.6905
16.1024
-31.2049
8.16504
29.4862
30.5258
19.9598
18.1804
18.1547
22.0108
29.7207
19.3117
-3.661
-34.1669
12.0703
5.45169
-35.7243
22.0475
22.1665
-3.64658
15.0731
21.3129
21.4693
31.3306
-16.3111
19.4133
-23.2908
17.6132
27.3379
14.8531
20.8058
-38.5252
20.4365
14.3187
32.1558
-0.469155
1.9298
15.6445
11.6024
-31.4134
-16.6156
-63.6894
23.4892
7.61463
18.1544
28.5061
27.0446
8.81416
-6.40642
-1.31698
12.0856
24.9026
21.9509
27.1453
17.3921
-22.8842
27.8729
22.0656
-7.87379
20.3231
22.4422
25.7825
-22.0129
8.86384
-0.667843
20.1667
29.3526
16.2219
-12.0698
-1.71039
31.386
-24.3305
-1.87353
30.0025
20.5067
1.96066
20.0611
-5.15728
17.3097
9.88454
-23.786
-13.7691
-36.1187
9.90216
15.9742
-25.6491
-24.3592
-26.4944
11.7367
-22.859
-29.5616
25.8813
21.1437
18.0912
-26.3357
7.81077
11.9181
12.6984
32.4252
19.0733
1.06089
20.5125
11.5133
-37.0631
21.2167
21.1435
22.1542
32.7732
-0.0511243
14.1827
-10.6357
12.1948
19.2417
22.9832
5.511
28.0466
19.0442
22.9273
-14.7536
4.90273
7.47233
23.3522
22.1941
23.891
22.1042
30.9088
30.5614
10.5707
20.5598
25.5378
1.2878
27.2435
8.80144
30.2993
27.1866
9.8439
23.762
15.8955
20.2106
9.79724
22.3568
-2.61699
21.0189
14.71
19.5479
7.65064
22.1238
11.4309
8.06173
29.6893
29.5583
18.6269
-17.2931
12.5915
13.7115
14.3346
19.8409
27.8697
-17.6509
22.6085
22.3779
15.1093
23.241
-36.1154
-39.7005
6.30164
31.5762
11.3496
2.35699
24.0125
7.41524
6.69195
15.536
11.8848
19.0874
16.7748
6.61834
17.438
20.8341
19.2214
20.1466
30.6704
27.2057
25.6401
32.2742
29.5056
15.6021
8.1292
-83.0305
2.17155
29.4516
-26.8949
22.5564
21.5979
-31.2686
16.6838
23.7089
-21.5434
15.3947
18.2038
33.0026
-27.1312
14.4486
1.56939
24.5933
10.8054
-15.7115
29.1986
26.7977
22.4328
22.3238
8.78461
16.7739
-25.6694
30.4898
4.05731
32.0139
10.515
-11.3208
-19.8687
18.2166
-16.0501
2.11494
-10.9593
13.6394
-3.80155
13.5709
-18.5665
-2.73785
-25.1249
-19.2679
3.41902
-10.4369
2.98168
10.4609
5.69436
-30.0794
23.314
23.5061
26.4371
21.8001
13.2414
14.1645
34.7481
22.2621
-26.278
-35.6696
8.54372
19.1511
21.0945
28.0039
-1.40781
-1.50258
21.1387
-1.01809
12.7136
25.2038
-17.6094
-31.8479
-25.1164
30.7212
-14.2314
18.5921
25.7132
12.1211
20.2232
12.4422
-27.5836
-27.7475
7.74471
18.0265
24.9657
25.4231
-11.8002
-18.6065
19.4569
-30.4385
5.62221
12.5691
5.38634
9.35317
-20.734
-20.3215
-27.4424
-7.85857
28.57
-2.4931
30.0563
-31.7925
9.97732
12.479
-19.9714
27.4202
22.9774
24.5546
5.03697
8.36925
-27.4492
27.1059
-18.1326
18.7133
-3.38247
24.9677
27.2991
-6.44551
22.2274
29.3354
23.9808
23.283
-6.61265
-19.2745
13.49
-1.2052
-15.9284
18.2778
20.114
10.8442
-26.2563
12.5985
7.6098
21.6552
20.2783
4.96954
30.2474
11.9665
-2.64061
11.921
21.707
-8.58516
-5.14318
23.7659
4.62974
10.4785
6.78599
23.7011
21.7608
21.2116
-29.3652
21.331
23.9822
24.1943
11.7117
5.94185
12.7649
20.9371
-1.45874
-17.7233
-43.2585
-4.69776
-5.53089
7.30876
-8.69505
5.48335
-16.735
1.4284
-33.1829
7.63172
6.55732
14.0563
-29.7091
22.972
34.5118
14.2291
-23.4603
15.3396
11.2624
12.5231
2.64614
6.57605
-42.6181
11.6186
26.323
-0.081692
29.0587
2.28152
21.1752
20.8924
14.0979
-20.9482
18.8507
31.1096
6.40282
21.7865
21.59
27.9684
11.2922
26.7452
23.8726
-19.2768
24.567
-26.9251
-25.5855
27.1096
20.5273
-9.07406
12.9785
25.7554
13.1345
-27.3801
5.32881
5.39233
19.5608
16.1845
22.2482
22.2859
20.5761
-8.26696
3.271
12.7171
21.9421
32.0264
4.91147
-24.4834
-20.3406
23.176
11.5429
11.2473
17.0217
-54.6342
20.1152
11.0782
6.05605
30.8595
14.7665
-71.6689
-8.80472
-21.4842
-2.36938
-23.5911
-7.52704
-32.2845
24.425
16.0973
2.12174
29.692
-33.7495
-28.3076
-7.53203
-25.8987
23.7313
-15.3738
13.5527
22.7701
-11.6112
10.2048
-38.4548
-26.2237
-28.1179
23.197
-33.3881
9.78612
-25.5138
21.6028
23.2486
-15.631
25.5249
24.6033
28.4424
28.8143
24.1272
12.1084
31.6826
-26.0608
22.5669
14.4381
-27.4993
24.7053
-36.0768
28.3928
15.4851
-2.97783
-24.1671
-33.3131
22.9833
-45.879
-5.82349
12.5879
6.14614
-83.7857
17.1968
11.6745
19.6647
30.7125
-17.4198
-7.81361
13.9161
23.5119
19.3248
-3.7863
34.3156
5.75261
7.38822
18.4151
-0.46644
21.428
23.1018
24.393
24.7044
-64.3489
16.9889
22.0407
12.4013
4.19872
5.6044
23.9411
23.8479
26.9983
7.76195
10.5927
17.8759
16.994
3.3401
-22.4796
19.8859
-41.3105
20.4392
22.4945
-24.5545
29.0593
-22.3938
30.7271
24.4698
-35.8322
0.260645
6.74995
17.6519
22.7906
-40.655
26.6847
21.4197
17.751
4.69059
12.3909
8.45611
17.7818
-24.7727
18.7362
-29.0021
21.7584
-16.9316
15.2146
14.3712
24.9618
27.504
18.63
-16.6094
15.6396
7.46237
11.833
16.4851
7.13674
7.45438
30.0836
4.92273
-48.5003
-1.93906
-25.4209
16.2697
21.9774
-24.6537
13.4346
22.7361
18.218
23.2207
-27.3313
14.7098
30.3359
-8.53502
21.7578
10.5739
7.5029
13.5986
12.3388
13.6377
30.6761
24.4059
3.3144
30.3302
26.0733
24.8527
-31.6662
-16.4031
19.6006
-3.70829
15.179
-15.419
-1.89133
-14.0805
20.022
14.2095
18.2128
18.7379
6.07322
20.4266
22.0011
-23.3225
23.7092
17.2616
21.8806
10.322
11.4461
-16.8639
-23.7545
-25.1584
11.4898
21.8986
-30.542
28.6681
-30.9048
21.4845
18.9703
5.93915
14.236
22.8002
15.7507
12.5379
21.4951
13.3759
-87.4329
27.7259
24.6061
-4.01624
-16.3725
16.9957
20.6009
9.98333
16.8568
-10.8703
9.51904
16.4723
1.66218
20.9202
21.4048
-11.5048
15.6995
9.67836
11.0191
-34.2908
24.9076
-19.7858
22.1863
-4.47523
20.2557
23.1982
16.647
21.8511
15.3529
-20.6744
4.42096
-12.5046
-35.606
-13.6214
-17.0165
13.3235
19.4793
8.8119
21.6591
-0.0227348
-56.0789
-7.50939
7.39091
23.0578
-27.7415
22.2367
12.6311
-39.8573
10.812
-21.8207
18.4694
22.1829
9.51765
12.1231
-13.2086
24.8364
2.74785
9.85723
-31.5387
25.3794
15.3587
-11.8814
23.1393
23.1534
25.0199
20.2518
25.0821
-8.61455
7.51563
-32.6382
22.7131
17.4948
12.7481
11.7495
-17.7502
-35.5712
16.9676
10.2917
-38.1594
30.294
-8.19308
24.9404
18.7682
-12.9794
8.69649
8.69867
2.59086
10.901
11.9827
21.2937
5.25375
22.1014
-8.3676
17.0051
6.37552
8.41059
-20.381
25.5882
30.3827
23.4104
18.3605
14.8232
18.4165
-26.5179
-4.94902
-33.3039
12.9863
-9.96604
-34.9268
-23.212
2.60753
21.3333
22.9364
-17.8688
12.7541
23.7034
2.24649
-7.28585
23.0204
7.76783
-28.5349
3.9908
6.8454
-0.507216
29.6744
-29.4151
22.457
-1.22576
2.07054
2.40001
22.4383
9.11571
20.6936
2.75472
-0.163087
9.57366
11.33
23.9313
20.9892
11.9134
-62.6486
10.0528
31.1018
7.66483
24.213
25.6419
11.4701
5.07112
14.7849
-19.7261
16.2385
20.4575
17.0648
22.1024
-39.4796
23.2427
11.0299
27.1647
9.72652
20.6269
25.3445
19.9258
9.77564
-30.6464
13.4485
-26.1001
21.5376
15.3489
24.9371
10.639
28.3496
12.0372
29.439
-10.9586
25.7535
8.24563
19.213
-20.7238
21.4986
14.7774
15.3752
29.1078
21.9638
10.8007
3.10886
16.5115
21.2628
9.9493
-23.3558
18.5473
7.43495
25.8415
-16.3343
28.7021
12.5993
34.6721
28.7333
20.1852
19.5432
-21.1634
10.2691
29.8962
12.2311
8.8624
11.2959
31.3504
16.2415
20.8785
28.4123
1.46854
23.3381
13.5534
24.9486
7.1485
24.3657
22.6576
27.1834
8.8767
-35.606
13.1324
-22.2713
14.4697
14.1304
2.53836
25.8327
27.6464
0.972438
15.6984
13.6799
26.2996
20.1466
21.6609
17.1512
-27.4774
-13.3813
-5.14308
22.3851
-7.62302
-39.0697
17.3112
19.2916
15.1673
2.56341
30.8622
12.6265
28.6369
15.6363
29.8378
7.69749
5.3744
6.45439
7.34717
20.4622
21.8363
4.44698
-54.6866
-13.8402
-25.9582
27.7346
7.02148
9.49183
9.61713
-81.1624
15.883
25.3677
16.9833
7.09759
4.20416
21.9669
32.0596
-23.6483
9.3741
22.4993
-13.0411
15.6415
-10.4444
20.0217
-68.727
-23.8654
14.464
-40.5046
16.3776
11.104
-14.3349
-33.3565
10.4625
19.3697
23.1549
20.3697
31.433
-27.0064
30.6343
-13.2875
29.2748
-41.512
0.371509
30.8063
14.8182
-38.2283
22.9585
7.30621
24.0142
7.39384
-25.1142
12.2001
3.77503
0.219913
-24.8907
14.8426
14.4215
25.5943
-37.7343
14.8769
-8.25483
8.28324
13.3237
9.37645
-10.8853
6.89032
-4.79221
26.8908
12.6479
28.1997
13.9115
-27.4997
14.2763
1.45927
6.58261
20.3022
25.3593
31.7113
18.988
20.4686
16.6696
-17.3427
31
32.1955
23.2099
2.75657
-36.8222
-25.7906
21.7172
18.8891
12.0979
21.6539
-19.8935
11.3069
-22.2581
28.6647
-10.5376
10.949
-19.2603
22.5009
19.2167
33.8779
32.4014
21.1542
13.648
11.0521
-10.4867
15.908
32.8998
6.59441
6.27293
19.8828
0.570527
11.5265
7.57497
5.37964
12.3561
6.94338
15.2953
4.51923
13.6155
27.0357
15.727
23.0937
-24.7206
4.9388
30.1549
-14.8768
0.653724
15.0957
15.0981
14.5037
-17.2972
14.4243
7.89102
3.38671
34.1211
-21.1823
-15.9323
-17.4919
5.32791
12.7099
15.3099
-12.2168
-13.1275
-6.25055
-16.6959
2.13042
-0.816991
14.3207
11.0634
10.6635
33.6057
11.0677
13.1082
16.285
11.8701
-18.5082
11.408
26.6905
22.3169
13.3144
-92.7475
21.9796
23.1126
-8.05721
-35.7295
-37.4769
26.6014
2.22186
21.0987
9.85652
28.5212
10.6871
-31.3842
-19.9645
23.2931
5.32558
20.6677
1.44617
32.5955
-11.9479
6.44487
-25.4853
16.3518
-20.3608
-0.483826
-14.954
12.3118
17.2738
-45.4957
8.96793
10.9842
5.81679
-4.21665
1.8874
20.0765
-26.136
21.0924
-18.7753
23.4669
30.7808
22.2135
-17.7818
22.9939
11.2636
0.973039
12.4028
4.49112
-26.1811
8.12354
11.033
17.2563
9.76853
6.8772
15.8523
-20.8061
15.9298
22.0034
7.84405
-20.5257
6.00234
6.17702
-86.133
17.1809
-6.54839
-22.9901
22.372
-1.03855
18.6386
-3.24028
-21.2798
-29.6501
-26.1969
34.1709
10.452
0.184684
16.0628
29.8684
30.2052
-38.4368
13.1293
21.945
11.3618
7.25281
30.2069
16.2709
21.8039
34.4297
7.28383
15.5574
11.5005
27.9637
22.5451
23.3268
25.5072
18.4698
3.75373
8.55198
15.3549
11.9879
-23.0652
30.4751
12.2197
5.99378
4.29606
-2.44126
15.2125
-21.373
12.5305
10.419
23.283
23.0918
24.5803
-26.3823
27.827
29.9934
-17.0503
17.5598
10.2427
-8.36491
1.48925
16.895
13.3959
2.00275
13.1358
32.0787
-26.8117
24.5398
22.4267
26.5084
20.2757
19.6779
-71.3478
2.30769
18.7194
4.78899
-24.5064
-7.67185
10.3948
-7.52286
25.1675
-46.4242
6.31136
12.4715
-17.631
-23.7038
-24.5651
21.0254
12.9535
-15.34
14.8507
-20.8242
11.84
-19.1859
7.39501
23.2193
-27.8303
30.6013
3.65208
32.1284
4.74034
-23.8663
11.8585
20.4556
20.9578
-12.7498
11.8321
8.40974
12.1695
19.1801
34.8934
26.4758
13.2298
2.47545
16.6444
-96.2438
24.5813
-80.2051
16.9961
-9.95375
-16.3108
-19.4087
16.3091
3.29418
-21.9808
17.6701
17.7112
29.7944
31.355
-23.8234
-26.1825
2.63945
-0.289605
30.6295
12.6936
7.39115
14.8144
18.6338
-30.4459
8.25979
10.4648
7.89931
22.1498
-28.572
15.2151
4.20814
1.47132
-10.7565
7.21315
-10.1088
-9.08406
24.0174
-45.8652
-27.7619
15.1051
-70.0188
32.3971
20.4371
21.2428
13.0651
15.5114
8.70761
14.4323
13.2468
-12.5709
-20.0098
30.5679
23.0339
9.49134
-20.4376
33.3196
-22.8158
-13.3104
-6.65498
17.2452
-22.5659
-24.7337
28.0068
8.99527
21.8593
14.4935
-4.02041
-18.7547
2.89079
15.5939
-10.7718
9.71212
13.9772
22.3633
-23.0169
-13.6634
11.1715
8.46483
-1.14774
-1.27291
32.0097
17.7669
-37.6121
16.9986
12.7233
29.3655
17.1942
-20.4927
18.4347
25.365
24.0011
3.14488
20.6692
-59.1434
30.4492
2.73577
22.3805
-30.0334
3.9224
5.72949
-14.2363
18.799
13.7927
-20.7225
-25.3879
24.7968
-27.7843
8.25704
26.9473
19.4223
26.5211
21.105
-0.566098
0.212554
9.93244
22.6782
-0.117125
25.487
20.7877
30.2233
-9.52491
26.1101
17.7543
30.5152
-1.66483
2.12941
30.8658
-12.5975
20.6523
-26.5737
28.34
30.1587
23.209
-3.76269
21.8493
25.9759
-3.31392
15.5586
-36.9525
26.9189
-16.1067
4.4945
-26.1155
-25.9784
25.6872
17.4847
-27.0127
15.9235
30.0941
6.52001
8.87751
-26.0786
-0.211789
21.5012
18.6602
21.4203
21.8569
-28.0456
32.6282
5.19887
27.3177
27.4979
10.0896
10.0354
21.5641
-7.09293
18.0611
21.6388
19.9342
5.8198
21.9703
-1.04603
29.8073
23.1458
12.962
13.3309
24.2662
-24.8993
17.6315
26.4382
12.3211
1.55267
25.9032
23.5331
1.57692
-17.2459
20.5812
24.1534
30.3541
-18.3013
31.4548
32.2594
31.7413
-63.3756
25.4146
-31.0415
22.1127
26.7397
25.9229
23.9885
27.9066
33.7693
20.4746
-18.3316
13.2775
-19.0039
33.7001
16.1212
-45.3086
-18.8847
21.5995
27.9226
21.9087
11.4843
10.278
27.7018
-14.9438
23.7306
-21.2689
15.0655
10.8273
15.8719
17.8701
-30.8599
-31.7599
9.92353
9.09113
-30.3459
25.1098
8.11347
12.2123
21.7414
-20.1118
19.283
6.31732
-18.6539
-29.1084
-19.1331
27.1614
28.2438
-20.0641
20.0703
25.7116
25.1855
1.10948
-47.4682
23.7933
-22.5492
26.7741
-17.1442
26.3168
17.832
11.2847
25.2258
18.0483
26.1952
12.1807
15.3845
5.17906
-17.9356
-22.1014
-10.0887
25.9093
-31.0955
-37.7602
-25.412
27.9027
26.1167
14.7697
19.793
27.5311
-8.64181
22.1464
-6.60608
2.88964
22.0155
-34.0374
-26.5606
-0.531251
-24.0916
12.0798
-37.9354
-8.10829
-25.3179
-18.028
20.3947
30.5828
32.4238
29.5968
-36.0065
23.8172
-30.355
21.6205
27.4573
11.7241
25.6358
-23.6175
12.1852
4.00687
8.60321
26.8578
4.75983
24.321
-26.2141
6.90462
-24.6237
24.1041
24.2101
21.9197
-26.9312
21.9193
11.2264
-26.635
-26.5119
11.016
30.704
-12.1881
11.5792
-23.8824
22.2026
21.5067
5.54925
17.324
-26.3176
27.7671
27.0249
-30.0375
7.37893
27.4349
-41.1785
-27.8317
9.56347
25.9386
27.8585
-30.0532
19.9853
9.43795
30.2447
-25.9428
-20.477
8.46747
29.0952
9.36584
6.18121
-35.0547
26.8685
19.4092
26.654
8.12973
-10.3499
23.9894
33.2204
-15.6385
22.0514
9.137
-30.3938
9.38162
12.5034
-22.4613
19.8423
0.396024
17.6722
-25.0453
-1.2363
25.3306
28.0991
21.7913
-6.02039
-14.8809
24.7523
-26.2463
15.4504
2.16101
15.2317
-24.33
23.1307
24.752
9.20466
24.0505
30.0359
-9.10496
21.0679
23.9453
-25.6306
17.3948
4.70073
15.2048
15.9268
19.4523
-5.5895
11.8464
14.438
-3.12613
27.2816
16.3528
-7.45277
-47.9037
20.0673
22.649
-25.3759
31.6775
-27.2662
-25.8736
12.9531
25.4768
24.4533
26.6937
-22.7316
29.3779
-22.5961
20.9411
11.7381
-20.9625
21.1055
14.4944
12.2921
18.8549
-15.6126
19.7573
-24.2998
-42.1793
7.53783
-15.2555
-17.4371
21.7364
29.7731
3.60623
-31.0691
25.8857
-12.8224
28.1984
17.2397
9.78172
18.6756
22.1689
15.9135
-27.2409
13.7782
9.20738
13.232
14.6496
-21.4269
-25.8828
7.92315
18.9571
12.2844
33.9071
23.7643
22.1298
28.4188
12.0619
23.5785
-18.5314
-33.6967
-49.9858
21.9975
33.2765
21.671
1.5311
27.1921
22.5101
22.664
-19.7226
9.327
15.9206
31.7909
13.8199
-0.62063
28.3713
27.6017
23.6964
22.4077
25.0334
18.535
8.30539
-48.3571
23.807
-16.4622
-17.3519
22.1636
-52.1215
13.047
15.857
23.9374
24.3874
24.5043
9.74263
26.5481
26.928
3.46538
25.133
23.2944
23.4478
20.0666
19.823
15.5376
5.59145
25.532
25.0846
-49.5728
22.1145
9.50429
6.73925
29.6106
25.5245
0.516951
-32.4647
-5.70897
25.9744
19.8181
14.7686
8.83857
12.263
-37.5399
12.2889
-27.3979
7.33475
20.3983
-8.86758
-16.8467
-26.6807
28.7646
-21.6861
-12.1919
-31.6171
29.8423
-40.0456
7.0473
12.6202
-26.1336
20.3538
21.2441
18.7006
27.8494
19.7388
9.66688
-19.5661
-32.5879
2.7007
24.1053
-51.7548
-30.1314
-27.487
-7.61278
-15.0037
-30.0882
-16.5858
14.686
14.145
21.8183
26.2823
-2.38548
-8.08965
27.8602
23.7095
-29.8657
10.6409
-19.4772
17.8681
11.3179
16.2162
20.0814
-31.0489
-38.767
-38.2022
13.5044
-26.5336
-20.7296
11.9208
-41.592
-23.5739
-26.2986
-33.317
11.2302
-22.4751
15.5591
-29.2906
21.9047
20.5688
9.56356
25.6384
-38.737
29.8999
2.03823
10.0539
0.336076
22.4148
17.0532
-17.5904
-27.7594
22.3134
24.6178
30.5541
-32.4642
-23.1038
-43.9158
16.4039
0.0780431
-26.7094
15.8694
-26.3835
16.7351
-30.5314
20.6818
12.005
8.10873
28.1576
21.2252
6.33896
13.1081
-4.3791
-18.964
25.9871
32.4167
-15.0619
25.41
21.7915
-11.9471
8.03042
25.2521
24.6268
-17.4909
-44.5924
-49.1421
-40.6926
1.29545
-26.0709
3.31319
18.5012
-29.7268
23.3664
-27.9725
-26.2583
21.234
2.46132
-26.0732
10.5337
19.9678
-26.2128
4.72433
-27.1146
-27.3394
-26.0912
30.8399
-29.327
7.63525
-31.2431
23.4574
-25.5561
-71.0117
-13.9355
-25.1565
4.6539
24.2049
-58.7659
-26.5632
20.8201
6.4568
-9.99942
-19.6674
-26.256
19.6541
20.6257
22.1799
-37.6511
28.2339
-7.1045
-0.176284
9.61886
-5.21274
-46.5387
-26.5238
-17.5006
7.29833
14.6178
-17.0592
7.81573
-3.2788
22.0766
-28.9611
22.1306
-20.1481
17.3297
13.1564
-4.16711
-73.0746
34.8537
10.1812
-26.6285
-30.2415
-3.23531
21.9468
-35.6399
-55.2871
6.77263
-29.887
-32.1673
-17.6565
-26.2267
24.0379
-23.1864
11.2583
-28.226
8.75097
20.9271
9.64996
16.2976
4.23409
26.3097
-24.2454
-16.7478
27.3966
13.2858
-24.9109
7.63551
-19.7883
-2.55129
6.20377
25.8517
-39.2388
15.3521
-22.7805
-18.1419
-22.6179
-23.3181
-15.7275
18.7707
-11.9439
22.1966
14.907
-22.818
29.6288
-44.2651
24.9546
27.9202
-26.1211
11.9042
23.2089
21.6607
20.8365
-18.0256
-15.1646
-14.2166
22.0439
13.1429
-4.99675
-21.9122
17.8567
24.3845
8.23012
-77.1096
10.4275
27.0756
-2.71527
-3.89253
6.22388
20.2439
13.0842
-92.2476
28.268
25.0981
-30.3197
-30.0995
25.6967
15.9546
9.26601
22.2912
8.57385
-15.9881
-16.1999
-25.5709
24.7328
23.7561
14.7749
2.37139
-30.4604
-5.21413
23.8734
-33.9674
20.8429
26.4024
27.494
-38.8402
22.3999
21.5686
24.1991
24.9199
9.01109
24.9593
-9.16155
22.1046
17.78
23.2607
-31.0237
25.3334
24.8279
20.7146
18.1754
-15.0273
19.4387
7.85797
-0.0207067
26.7769
26.8341
-50.2217
28.4972
-20.2183
-16.8455
23.6114
23.3497
-12.0119
8.34818
-23.3069
-35.5072
4.82694
-25.8984
-13.3958
7.65406
21.5464
31.9253
25.8101
-9.01463
-10.9094
23.57
15.9512
4.48899
-18.6675
-16.7612
-2.87315
-17.1523
-18.5165
21.4235
-10.5544
15.1742
0.845309
0.584055
-101.522
2.69621
8.4223
17.1696
20.0149
2.67553
17.7461
13.1905
-32.0009
18.4409
16.3817
11.5027
9.70556
18.4475
9.14796
15.1122
3.04115
22.2418
20.1987
29.175
22.1513
-18.4414
7.13527
2.50233
-14.4867
9.25314
6.56164
14.6012
-45.9627
32.3019
11.1428
-22.3543
28.0058
-23.7877
4.66205
2.92323
-31.6102
-26.1247
15.063
-1.19341
22.6959
14.7793
-16.8508
-35.2098
-43.284
-0.570527
-8.86568
10.5436
19.3841
-13.6052
-24.8474
-2.11283
13.1638
-3.71888
23.2703
28.443
-19.4168
23.4734
17.1759
18.6
30.0292
-25.6196
17.2831
15.8967
14.9069
27.5064
9.13364
16.4244
-23.639
23.141
28.4524
-47.9587
-4.92978
-7.0716
-2.50062
16.1254
-17.9169
-9.90088
-22.4796
15.0926
-22.2722
12.5459
11.0118
20.5093
12.2908
-17.3273
3.96628
-6.49578
-17.1055
29.4796
31.6341
26.6528
32.9577
20.8444
28.1308
24.4218
22.8133
22.1414
-8.26567
22.8864
6.92465
-16.9734
27.9227
13.9362
-2.75095
30.7224
10.0658
-36.1809
16.1936
15.1045
24.825
-31.4101
21.128
29.4362
-24.1596
-16.4837
-6.38315
18.5797
-29.4826
26.0488
8.04175
24.842
22.0291
-23.9522
24.5757
2.74371
-17.8364
-17.4264
-51.0881
25.2332
-3.88415
22.0281
6.50671
-26.4353
12.4644
-91.3334
3.80603
-25.1152
-28.4185
25.2838
12.1508
-25.9037
6.12222
18.2433
12.8079
-45.6693
16.0591
-42.8379
15.766
-25.976
17.8315
13.1047
19.1538
12.8135
21.8766
17.3074
13.5528
-24.4792
32.7089
-0.216569
-27.2969
21.9107
20.1909
-26.121
-2.02279
-29.7456
18.6472
16.56
-1.98032
8.33595
6.95079
32.9862
-9.93767
-26.7262
12.6296
4.70048
19.6028
14.0214
21.5101
18.3125
-28.715
17.7197
-22.802
20.8193
14.4939
22.8496
18.4685
-0.423691
0.609785
15.9232
23.3401
3.37939
11.6598
-26.77
6.14561
3.77623
20.5784
-27.0995
15.5358
-35.376
25.2371
-26.1739
7.22178
26.2497
24.751
17.4059
-27.9514
-20.4527
23.5907
-16.5203
25.1766
16.4043
-22.6161
22.4217
10.0244
13.4098
10.291
5.42217
-6.14788
18.4083
-3.74885
26.5934
13.4931
33.3595
9.11262
13.0199
24.8665
11.1875
12.9741
23.1554
21.1914
17.3088
-5.58046
-8.95876
21.9109
17.8814
13.2366
-34.1647
17.6898
-33.0616
-26.1081
3.57411
20.8456
8.16414
19.7267
9.9234
29.8531
25.9235
14.5028
20.6072
14.2278
-25.5829
21.3595
18.8887
10.6581
13.813
25.1646
23.8125
-32.628
-25.3685
-7.1225
21.4664
15.174
-19.1282
23.0626
-38.3937
22.0318
-14.3035
22.2707
15.5981
-41.0115
15.1413
24.3593
11.5042
22.9538
26.1879
12.2675
11.2063
17.5996
8.83388
28.5046
-20.7584
26.9617
24.5704
-26.1419
-11.5818
4.82908
5.88869
-30.5921
-43.2294
21.5968
27.0631
23.5853
27.3426
18.3382
25.8952
15.1002
12.3167
15.5848
10.9173
11.2845
20.422
7.2465
28.0083
10.5478
-31.2188
18.7335
27.7659
28.5638
-27.206
16.9214
-17.0603
-17.6901
15.9902
5.40132
-22.3731
17.3885
29.1676
-26.4703
-19.2758
-31.8851
15.1653
10.9445
11.7599
22.2101
22.8443
8.40128
12.2918
-4.55917
-29.1405
21.3813
21.2724
22.0514
17.8104
13.7103
18.8203
10.2979
-14.5679
14.3676
20.6752
16.7029
20.5345
3.04808
12.5349
9.03061
22.5562
-23.0282
12.8919
25.5059
21.2328
12.1822
-27.0382
-32.7589
-0.240413
18.3384
12.0322
-5.90278
22.2664
19.2189
17.7935
3.76585
5.86295
13.504
-47.2189
22.1757
16.0997
3.0005
15.8861
-17.2656
17.3288
2.82567
9.43072
21.5406
20.7845
24.4086
11.1093
16.5923
-2.38496
21.9229
0.881496
19.7822
23.3818
-4.82989
-8.2553
-47.5044
-26.7275
10.5527
16.6382
-19.9576
22.1788
19.7154
-31.8984
-17.3111
3.39355
22.1725
19.9651
10.7445
-32.4934
26.5589
20.725
10.7434
12.685
2.17913
18.1571
12.9172
25.4506
-13.1934
18.7592
28.2597
21.6915
15.1449
16.5298
21.6875
22.9299
30.9467
12.2906
23.3842
3.77405
19.9823
17.7586
-15.4066
22.9438
4.59851
16.6548
-9.69087
17.2128
3.55708
9.15929