/*--------------------------------*- C++ -*----------------------------------*\
| =========                 |                                                 |
| \\      /  F ield         | OpenFOAM: The Open Source CFD Toolbox           |
|  \\    /   O peration     | Version:  2306                                  |
|   \\  /    A nd           | Website:  www.openfoam.com                      |
|    \\/     M anipulation  |                                                 |
\*---------------------------------------------------------------------------*/
FoamFile
{
    version     2.0;
    format      ascii;
    arch        "LSB;label=32;scalar=64";
    class       volScalarField;
    location    "7";
    object      p;
}
// * * * * * * * * * * * * * * * * * * * * * * * * * * * * * * * * * * * * * //

dimensions      [0 2 -2 0 0 0 0];

internalField   nonuniform List<scalar> 
13486
(
15.5476
14.9203
2.30791
-34.6679
-8.79963
3.42085
-12.6932
-1.89856
5.12427
10.7003
-20.943
5.84287
16.1051
3.66843
-4.82053
10.9581
-12.2351
14.3079
5.28083
14.1845
-55.8938
15.7965
14.6853
-27.9286
9.57445
-25.298
-18.6219
-3.51398
2.8831
-7.2047
-46.0955
3.13854
-6.07855
-4.84429
-1.69934
1.98209
-26.0701
7.87339
-2.82869
6.74927
-29.4255
17.1812
1.48203
9.57727
9.51088
5.92109
-35.324
0.694851
-14.0607
-1.54406
11.0372
0.970167
6.6951
8.67459
8.61967
-7.82317
-3.89525
0.0798804
-6.94046
-85.403
-21.7877
-88.3551
-11.2572
-58.9365
-81.2844
-41.0067
-30.2849
17.1566
4.83667
12.9444
-29.2171
11.4533
8.4871
-21.9727
-38.6002
-2.85836
-36.1738
-5.75846
-34.5606
-3.71491
-0.702997
15.5388
-11.6623
3.34957
15.5189
11.138
1.35162
10.841
12.58
12.1628
6.54769
-3.90897
13.8432
14.5134
4.43947
-2.07815
-19.133
-32.0608
6.82426
-14.9194
1.277
4.09816
-35.0217
1.50992
13.6569
-16.7527
11.1669
-3.02998
-35.0727
-7.69249
1.72147
-0.158519
8.66495
1.65677
20.8194
2.40464
9.83695
0.958046
8.60126
-9.52459
12.495
-18.119
5.88786
-2.51431
1.92266
0.592593
1.99195
6.75015
0.403483
-68.4388
1.6574
-39.5368
-22.391
-21.13
11.1536
12.0522
23.0736
-7.14589
-0.946986
-0.187837
-4.46556
6.8055
5.12218
-1.29031
1.70047
7.34923
2.14116
20.7994
-1.91348
1.91978
9.30834
-9.87804
-1.1108
15.9793
7.30189
2.16455
-12.1446
-63.3621
5.20349
-13.2318
0.10584
5.22241
9.54093
16.9244
0.321136
1.74039
5.10411
25.5671
-0.0176065
-21.1498
-26.1689
7.3075
10.1166
1.8032
-9.06298
-59.3101
2.64923
-4.84027
11.0615
5.20989
5.18169
1.96321
2.7799
-15.9763
3.42707
-3.52399
0.496835
-4.21412
-29.5542
4.12647
-7.50427
1.40686
1.49733
18.9382
-0.0373813
-19.4802
-72.722
0.185182
10.9704
2.49538
-43.6032
6.65595
7.84178
-16.6192
-9.8186
1.04531
11.9927
10.4426
0.207381
3.7849
-4.04662
-43.0925
14.0278
11.2025
3.3764
-7.50139
-6.68591
12.2612
12.2576
-8.93488
-13.4679
-1.91068
0.376454
-0.0908356
6.69591
13.316
1.83541
-60.8368
-2.96624
0.046242
5.13786
-56.6146
-4.84026
17.9408
-46.4692
12.0874
-4.12471
2.28437
12.4194
3.97054
-7.52862
10.0627
2.00286
10.5854
-5.81023
12.6836
4.56762
-16.3624
-20.6015
10.1317
-29.0176
21.179
1.23006
-1.92454
-1.40692
-57.4738
3.79498
-7.40284
-55.2502
-7.21412
13.5914
-6.70937
-4.23902
-56.4091
-11.0278
-16.8674
-2.74385
-51.0185
8.62392
8.4949
15.8565
11.2657
-6.69668
6.31503
13.3941
-14.3068
-1.23014
-17.6299
-1.64323
2.40256
-19.5536
4.5564
11.4931
-20.1515
-15.9917
-23.3222
-3.96357
-0.97673
6.61675
8.7913
-45.3649
-28.3704
3.74927
11.0569
-2.59035
-4.51291
0.0616746
6.29984
11.4319
-23.0974
10.3687
12.6262
1.34541
2.65227
-1.36213
-17.5492
-62.0838
4.40635
-0.649373
-20.0641
-15.5555
-35.1346
4.49759
0.955308
-15.2848
12.1876
-28.1186
12.6603
10.6831
-2.92461
-25.2614
-20.9759
11.0592
14.8138
23.8241
6.59895
-1.58137
4.33868
5.94915
-2.48099
10.8886
-4.90553
7.48123
17.6644
-14.0532
3.39358
21.2088
-9.60222
9.83694
-7.40332
-2.84019
14.7514
-3.23816
2.52103
-16.8932
1.09827
2.71181
19.8899
-8.98714
-22.8151
3.97409
6.20135
6.32744
-18.6449
11.3598
15.8683
-21.9651
2.09435
-0.873637
-36.5334
5.366
7.54178
13.1896
11.3047
-7.57569
-0.637515
-4.27069
-44.6326
14.4552
2.42764
1.31936
2.95585
6.2499
-28.4051
4.09613
10.9453
11.1006
-13.355
-11.977
-14.8227
8.19157
-6.66819
17.4367
15.9912
-42.0156
-1.23987
5.33495
9.74014
-14.3544
-59.2072
13.6002
-6.14167
8.32282
13.1015
18.4537
-14.7043
-32.091
-27.1092
-11.9296
-4.22721
-13.5812
8.26243
6.64184
-63.7109
-11.545
3.563
14.3782
-4.84174
3.4401
14.5701
9.34633
0.279425
-5.79685
11.538
11.0571
18.1402
-15.9028
-10.6294
-27.3144
3.80852
11.105
8.73518
20.0185
10.0979
1.16575
-4.56717
6.61795
11.5785
-18.5031
5.53562
15.8464
6.76738
8.22698
5.90982
-13.798
-11.6164
17.635
-22.7195
1.86396
16.8677
-28.5651
-6.49645
-20.8299
-6.14394
-6.24057
9.58648
17.5712
16.0326
-14.6165
-1.86933
-17.4642
9.99696
12.7952
-1.76164
-2.01813
11.1974
-20.1419
-62.8806
-19.0668
2.15412
5.01105
11.7297
-5.78126
5.71317
-48.6371
12.0053
1.38857
23.4457
13.5724
7.46682
-3.60939
5.03593
0.193541
21.0122
0.575642
-9.15211
0.955557
3.4387
-23.4688
6.29923
10.2526
14.8855
0.931002
14.7111
-6.21582
-11.0316
9.88922
-53.2322
25.2993
9.9399
11.0669
11.6727
-56.7622
4.85007
21.077
-12.906
14.582
-21.1291
7.20408
-50.7263
-1.09979
1.44634
-21.6363
12.8704
2.04515
-32.306
0.450756
3.0803
18.4614
9.53143
-0.988458
2.54854
2.66828
1.13873
-11.8943
10.9958
-26.5898
17.2653
-15.3231
12.1809
17.3053
-6.77065
2.4722
4.1044
-49.7181
-22.0222
4.68046
-9.06882
6.18267
13.8603
-16.6049
-13.9582
-17.134
0.485721
12.1382
6.76748
-17.5827
-36.1506
9.03171
-55.643
-1.10539
-80.0863
-1.93921
2.57686
17.367
-1.18494
13.2161
2.73768
-26.5822
-4.85943
8.05996
-17.3356
9.80877
4.16515
-23.6073
1.88428
8.12954
-8.80471
-16.4559
11.1007
12.9947
7.83088
15.8471
4.55776
10.0413
6.65301
10.7775
2.06861
12.2215
-18.2448
8.59183
1.78587
-1.46339
-14.5743
10.8103
-28.0951
6.17161
17.7593
15.4687
-56.2643
-39.2161
7.53181
7.21256
7.16542
11.7862
-20.9929
-16.6855
4.81407
14.3923
6.15899
5.82513
-75.7702
15.6105
-20.4419
1.76345
11.17
-4.38651
-1.02692
5.68865
-1.94814
4.92113
1.02532
7.85448
-4.11507
15.138
2.57453
4.33485
5.19607
6.48285
-3.85876
19.4245
7.36281
19.2203
-58.7103
9.34789
4.36059
-21.6924
-9.61428
10.0342
20.9019
-91.5598
-7.22393
-2.20176
-9.67947
10.0208
13.8422
2.01617
5.96863
-16.502
-12.4429
-14.6169
5.01066
-3.64083
11.55
-4.20757
17.6454
6.23577
-20.0695
-25.4789
-3.17881
7.41866
-15.3413
3.57673
-19.0397
11.8562
-1.87233
-1.60656
-35.7713
17.4226
0.611746
10.5987
16.9892
11.0191
-16.9745
-0.782411
3.15202
5.47478
1.13162
2.06452
-66.7603
7.79486
7.10779
7.2651
5.91791
17.4178
1.9122
-60.6205
10.7928
5.46291
3.04675
-1.36326
10.3768
8.65571
-17.1429
4.2699
-13.5259
5.55213
12.1086
7.31783
4.76242
3.53297
-33.3806
1.27663
13.8182
-14.6848
0.300901
6.47102
17.4042
12.7243
-0.753408
19.1565
1.18938
-19.746
9.01288
-10.7841
13.2922
1.91621
11.1516
-69.6417
-21.2516
-37.3763
-2.18765
-11.2677
9.44278
20.1136
-7.98221
1.31675
1.41592
13.9851
6.49835
8.47032
-31.5051
20.7956
-17.6576
4.56676
-1.88949
9.77154
12.4582
9.77594
-12.8077
-65.8425
16.9617
11.2286
-14.3039
7.19688
-32.3205
2.03965
-1.09452
9.65895
-19.6017
-0.505173
13.9688
-9.10604
-0.613927
-2.57397
-23.8101
-8.50101
0.197341
10.1114
13.2374
-57.7739
3.86047
-16.7554
-63.3211
6.17436
-3.97323
7.45785
11.1501
5.01086
-3.02006
7.55114
-15.996
-63.3095
-0.170437
0.552488
-54.9117
-37.3247
-10.2899
-54.9215
0.930533
16.3093
-3.50105
-60.7098
17.0187
15.2527
-53.0426
-67.5414
4.04093
-39.9487
1.68018
6.1566
5.24188
-8.17361
-11.1908
8.40883
10.1041
1.00095
-30.1529
-12.4317
3.62755
2.21542
10.1249
4.56378
-55.0452
13.3792
14.4005
-28.0637
-53.8091
5.7304
-20.1072
5.15184
-4.15968
-6.30571
-53.2478
3.76997
11.2814
19.4049
9.86036
6.45026
3.98326
11.0772
14.2865
4.50187
4.86458
10.1173
18.2798
-9.59403
-12.2674
6.03092
-0.611403
17.3069
4.44447
8.84777
4.89834
-0.716958
5.7874
4.01124
-3.6022
11.9148
15.0566
10.2185
8.99785
-18.8985
2.46014
-3.26303
-8.18928
-4.64804
1.84673
1.85298
-73.6013
-27.3177
9.16985
-6.10214
-20.6749
-12.783
-23.1875
-5.10481
-22.7957
-65.5557
10.9015
-54.1459
15.6471
-62.3218
-20.7023
6.97094
12.4654
-48.4611
5.46127
-25.686
12.6103
-9.6842
-8.37284
-0.764197
-5.9439
-26.8921
11.1741
-1.05655
9.59412
-16.5667
3.75926
-20.1646
2.04096
18.0539
9.80767
-3.4922
-20.1613
-79.3103
15.6098
7.91692
-64.4228
-23.2199
10.0009
-50.4376
-22.1115
5.87564
-4.04874
3.97302
-1.75379
-78.0385
13.1449
11.1836
7.88764
8.58105
8.01769
-8.93563
10.7963
2.28299
7.40677
11.9211
-0.60365
-2.10529
-2.00023
4.21329
-3.18602
12.5811
8.07107
5.81814
11.2537
12.4742
2.42914
20.5315
3.96339
-6.61656
10.0923
2.05
-1.89436
-2.06191
-50.1136
9.93464
1.90169
1.16264
2.12098
11.1334
9.44339
-16.3207
0.155088
11.2548
2.72404
17.6381
12.9215
11.8102
5.81539
11.5349
5.04263
2.97028
-3.32231
7.13249
-66.7406
-2.13424
-24.2162
-14.7168
-35.3796
9.13859
1.18033
-11.2944
-76.4892
-69.9337
16.3181
11.8533
13.3929
7.31025
-20.6961
11.0582
19.5712
3.38935
-21.4133
9.68982
-14.0662
9.63016
-14.1842
-5.23221
8.84664
2.14886
17.5035
4.22578
11.0895
-5.62807
12.575
1.73009
13.0712
-10.4516
-8.59753
2.64275
-92.0992
4.07647
2.01388
-50.4823
15.9784
11.0843
13.4856
13.5309
13.5359
9.92202
-3.56571
4.74354
11.1291
11.1255
-0.282825
1.75792
-2.92213
-0.839553
5.47161
5.766
-21.43
23.1329
-3.21359
1.94518
19.4342
15.0013
-1.92657
-79.039
7.38914
9.38089
-32.8954
3.20052
-21.2907
1.20404
11.0744
12.6081
-4.92669
5.28972
12.4994
0.266077
0.456204
13.4731
4.36749
-9.10142
-15.0795
3.34483
-3.35471
11.8976
13.4491
-64.2151
-17.2715
-10.7456
4.7298
5.4862
5.8383
16.8871
0.857978
22.6163
9.2966
5.51413
10.6066
-16.5942
-24.5772
-48.9773
10.023
-4.00037
-19.4829
-39.4983
8.74006
10.1498
-9.08814
-6.55901
-44.315
-4.45301
7.62891
-17.2122
4.33135
5.021
11.022
11.4989
13.1754
6.56908
-1.12527
-7.05621
-3.24899
3.88403
-63.7091
4.92337
4.10752
-48.6843
9.66385
-73.5502
11.3176
-35.9096
4.59871
9.45341
-1.82785
-12.9371
2.59414
-1.45941
-11.3829
5.99678
1.8805
5.32366
10.394
9.42599
-21.2639
11.023
2.09424
14.0538
5.45794
9.16643
12.1258
3.60012
17.4047
21.6021
5.63243
-11.607
10.3932
2.76576
17.543
-3.80066
-5.4704
-31.3654
6.03148
-2.09846
-24.4242
11.0216
8.9775
3.44087
-23.0902
-2.73813
6.99491
20.4722
4.64713
11.021
-12.74
2.73844
16.588
0.415474
1.23267
-43.3486
10.0174
4.96107
21.9754
0.372827
-3.00708
8.83315
6.18991
-16.5514
-21.1447
14.9063
13.3106
-4.73806
-10.063
15.3368
14.2704
0.538649
-13.3353
-0.597539
6.44907
6.61455
8.34032
12.0552
4.52823
-19.7593
13.5454
0.795224
-7.8539
-1.93036
12.6987
9.06585
-20.0914
-67.3002
0.489829
11.0061
16.4745
4.45494
11.2371
-3.52569
20.6323
-28.3432
-4.14957
17.8604
11.0024
5.08386
2.82646
-32.2465
-3.53462
-19.4666
-27.7488
-8.88753
-48.2545
5.07409
-9.32415
-34.9202
-11.4349
-10.8466
-30.5175
-12.7804
-26.928
16.346
11.8892
-12.6094
-44.5096
4.21112
6.2952
-0.694566
22.4145
-4.89002
-2.39807
11.0245
-10.3989
-49.3266
-2.50804
-3.23067
9.02857
23.233
0.746062
0.413483
-31.5905
4.11411
-3.55067
1.59833
1.33041
13.6708
11.6356
11.6518
-49.9213
-0.799611
1.63685
4.42853
11.0397
4.02034
11.7578
20.9799
18.8786
-9.84765
11.0356
13.5423
-2.37866
11.7275
-0.362742
18.431
11.5242
5.03633
13.1276
9.14541
-1.63321
-1.48923
13.0173
-6.1392
4.87118
-8.72019
-6.96594
3.4018
9.54494
5.82329
5.76717
17.2423
17.0385
-1.32378
-21.0767
5.82175
-35.6487
0.411749
11.796
13.8857
-21.2446
11.2326
4.27833
3.72285
4.55765
-36.8317
-44.3077
-65.3531
22.5746
-3.96296
-3.73045
14.4652
3.28854
-0.130294
8.7643
6.09464
10.7594
-18.0233
-4.71797
4.60522
-1.40468
-4.70233
-2.68172
19.7937
14.8709
8.33226
22.8482
16.6233
-3.53559
0.550099
11.8459
-4.39173
17.2251
-49.5669
7.43825
3.0964
-19.7589
-3.94209
10.4515
-81.2289
3.8008
11.0198
23.4509
-17.7984
4.25558
4.93351
5.80454
1.92663
-48.5017
16.6113
11.2772
4.62199
9.98508
-13.4731
-16.0722
-21.1197
18.798
-6.94931
21.7831
-46.1597
11.0396
-23.3459
-12.3394
-21.3759
7.92681
-1.34003
7.52331
0.831918
7.55249
-45.8963
-0.51443
-41.9968
-21.5205
-2.91077
-8.53761
0.927468
1.28778
-51.3886
-18.2437
3.18849
3.74712
18.0927
11.1336
3.13148
4.92095
26.1033
7.24899
-22.0423
-10.3005
3.91153
10.8682
5.146
13.672
-3.4001
-3.49319
-3.29131
0.0208332
5.89702
15.2098
-21.231
-18.1573
-18.0795
19.1909
-28.8669
4.61952
11.9587
-49.5207
0.563557
8.81905
-16.4624
-17.8272
-14.3283
10.3324
7.85496
11.7426
-7.88201
-21.6785
-7.75551
-31.9853
-9.90533
-0.807133
6.83773
-26.6774
-0.594244
-39.0421
-18.3856
-19.5009
15.1453
-52.8525
19.0456
-16.5085
-7.21008
1.6115
7.13548
12.7916
1.586
15.5468
0.723011
-18.3271
-15.541
11.2904
-21.0484
10.4232
-12.7344
16.3045
13.5594
-10.3241
9.95155
17.196
6.24967
10.1312
-13.5271
-17.226
2.84862
-10.2493
-0.581425
-5.4881
-6.27101
2.28275
-20.4293
5.8247
-16.2837
-0.932888
-4.73416
-4.41162
18.3416
3.30722
1.96244
5.7888
11.1484
-62.4152
1.85721
6.70272
0.00140022
2.07339
2.74761
3.57945
11.138
11.1133
-1.4582
11.8097
12.8308
7.90469
-8.4252
1.93946
6.97616
3.88941
-3.35493
-31.0114
-65.1963
-7.97929
-34.0062
1.07521
-1.03041
1.35513
-21.2363
-1.78112
-38.7984
-12.4352
-30.7421
7.87698
-15.8474
11.8247
25.7864
7.9995
-39.106
8.77517
5.87282
5.84595
1.09818
-9.60626
-81.0157
5.01925
11.3586
1.44356
16.5519
1.06153
11.0979
-0.362481
3.00998
-25.5279
-10.6616
21.9584
-51.6265
11.208
11.2416
13.5951
5.0429
11.2315
4.03311
-22.2124
5.79168
-18.2958
-36.743
11.5798
11.0276
-8.49181
6.32094
13.6951
-32.0459
-87.9603
1.63875
2.04604
11.8184
9.20933
12.8894
1.2443
5.74268
-15.607
-2.78361
-9.47014
12.8522
21.6179
-11.3598
-20.8913
-26.4374
2.10935
4.19584
4.43206
-14.5166
15.7111
0.737013
-54.4888
2.82346
22.3909
8.37724
10.6124
-53.0057
-25.2429
-14.7916
-12.2652
-17.9763
-20.9179
14.5375
9.12415
-4.85156
20.5266
-11.8035
-13.637
-37.5032
-36.774
6.42234
-19.1348
7.53482
4.83928
-2.25053
-8.12579
-11.7576
-23.2273
-57.5269
13.2639
-34.7342
-0.673436
-18.182
11.2743
10.3705
-29.3938
12.108
9.2735
14.9063
17.2481
6.40855
6.05412
22.7034
-20.7913
2.80974
-18.9386
-56.2473
14.8623
-60.7743
18.2885
8.83355
-5.41349
-39.8044
-42.7006
12.7169
-68.5774
-57.4599
-0.391651
-1.14771
12.3772
9.70164
6.27786
-0.63518
19.1746
-21.2766
-22.2926
2.80085
3.12095
11.6043
-26.6379
25.5961
-1.89534
-16.8455
11.1937
-4.5799
11.1361
5.74219
8.78234
6.15363
12.523
-3.3379
6.70861
5.88016
-61.9814
11.7487
5.48945
10.6667
11.6837
-65.4613
2.05021
-13.6152
9.53986
7.85368
-52.328
11.2969
-49.9657
11.014
11.8679
-12.2966
15.9266
-78.1689
21.6514
7.387
-42.5864
0.878721
-43.4396
10.0797
12.6435
-50.9178
11.8773
11.9669
-11.3822
2.0431
5.89665
3.04608
-12.3927
-14.4549
-6.44274
-55.1008
11.2598
-31.4531
-42.0634
-9.91114
13.7775
12.5068
10.9654
-31.5975
8.89989
-0.537058
2.92231
9.28653
-70.0177
-72.6405
18.747
0.167133
0.613515
-6.06131
-35.1868
-47.1339
11.2429
-12.5593
-3.10615
12.7068
-1.23042
11.0207
-20.071
4.07982
20.3274
-15.5922
12.7983
3.85542
-51.1429
7.52872
5.7516
3.53329
20.4272
8.15037
2.88105
21.1001
11.124
14.3405
-32.2361
-32.6642
-8.32868
-6.64168
-44.2089
0.0694175
-5.67152
-1.8111
2.48558
5.02218
-5.0737
-1.70313
-51.9838
-4.65984
13.3959
-22.7973
3.25807
9.75086
11.107
-0.601588
14.7013
-30.5732
-13.6498
-20.4956
-3.70566
13.3602
-55.3601
15.0053
-17.3452
11.146
-8.29803
-67.4412
-18.2441
8.57224
9.12218
6.97522
3.92628
6.71324
13.1327
12.9831
15.9211
-31.4449
-0.618311
-35.72
11.5762
4.99749
-16.1945
-6.7783
4.79226
1.2258
-6.84494
5.11717
-2.48411
10.9938
9.065
4.74901
2.27003
-63.8795
14.8853
-24.5339
9.62778
0.122221
11.0531
9.08927
9.47565
4.75632
-34.9382
-48.3659
-37.4394
-23.3322
-59.2299
-72.623
6.42449
-50.6783
11.0619
4.26461
11.1475
-55.6435
14.146
-11.2011
-0.888861
9.01534
-18.3525
7.03102
5.79183
-83.2764
-44.3072
-27.482
4.4916
11.4291
-1.52816
6.06814
-20.8382
6.48532
-25.8876
3.65897
-17.4811
12.0785
4.21786
-65.6665
10.6839
6.0626
10.0499
10.9597
16.1392
-15.7438
-15.2127
-15.795
1.04783
9.82068
5.72767
-27.4975
-47.1635
-34.175
-2.83277
1.80066
-43.0325
21.9022
-15.2748
8.68396
3.55509
-61.7409
3.02782
-3.93189
-1.20395
5.74325
6.41037
11.7269
-44.5353
11.1418
-11.818
-16.8388
-75.0618
-0.687493
-45.5998
8.25469
20.0469
11.2142
-11.0421
-25.648
11.1483
-19.7518
-20.1633
-2.50778
0.412271
-44.4775
-42.1866
-53.9499
-4.75229
3.92154
2.06479
-3.87903
5.81129
12.3216
-2.09349
-7.11888
12.6204
0.205452
-16.8434
2.02034
2.79067
1.49108
20.9638
-3.90588
2.77504
-4.90443
-1.19877
-2.25726
5.53513
-0.291238
0.772044
-2.51345
-4.02752
-2.64521
-11.3428
13.207
5.3686
6.48026
-14.859
-4.12892
20.71
-67.0703
8.58145
8.29335
5.12035
1.97394
4.33421
-28.2437
-1.79472
11.4387
10.0277
7.13652
-59.1473
12.5753
5.84213
16.5564
-8.93513
11.6993
13.1953
11.298
6.31045
-14.9321
7.47703
-34.524
-2.10367
8.75249
10.1261
5.59713
14.7845
6.06148
16.7004
5.4648
9.06255
3.62535
3.60859
4.7583
11.2041
2.77246
8.85002
20.5022
11.7106
5.95056
-2.86135
3.90104
11.1255
0.550042
-11.6305
4.61987
-6.18522
12.7864
-26.455
15.5459
6.89656
26.1414
17.9951
-5.19592
-8.12593
-1.16345
5.33173
18.5111
1.3572
4.30641
0.277245
22.4875
9.49078
3.54724
19.7632
-1.56546
10.374
-2.51733
8.20727
-1.55357
5.82737
8.42357
11.5772
3.45576
-33.3557
5.70669
-23.3804
2.38858
-27.9048
-4.76234
17.0421
14.2956
3.83519
-17.6854
-0.772794
9.76505
5.15234
4.68703
9.63171
-11.227
-26.0079
-52.2033
11.8407
-11.8137
-8.09737
7.6331
-0.643427
4.20675
-2.63906
20.8018
-64.923
14.9575
-19.9523
21.3902
-10.3348
3.80979
-87.5914
1.72066
5.73697
11.1459
6.94113
-2.58266
5.51327
-15.4295
12.9577
2.1935
4.79833
-56.5101
2.57315
-20.7661
8.18119
-8.88028
-19.8898
-7.34993
11.3097
21.7574
-24.9374
-3.26869
4.27371
-5.27451
8.81073
-11.667
-6.12521
-0.802021
-40.2446
5.79786
-50.2806
-4.04948
1.50972
-1.05188
-89.7406
5.04236
10.7272
9.34579
10.9503
20.571
-21.5742
22.0742
-22.5879
20.542
-54.7777
-2.21216
19.3951
8.42563
-71.9537
1.93491
3.0935
4.75648
-68.9049
-15.8578
6.09753
-4.95241
-9.71697
-8.50955
-1.75653
8.09187
8.23363
-65.8879
8.37034
-10.8361
5.20859
-60.268
-0.620948
11.2415
-77.4867
-7.7938
18.2005
10.0625
19.491
5.04826
-17.7779
8.05543
-3.44519
-89.2078
10.9344
11.2987
22.405
10.702
12.3748
-8.05073
-21.072
21.6733
21.939
12.6811
-0.897483
-55.2903
-34.4034
5.02606
-4.0284
2.10274
13.8508
-38.9476
2.31924
-18.136
19.9695
10.395
5.78943
-49.718
2.46167
9.73271
24.9005
23.2276
6.42039
6.56389
-4.25103
-19.2539
9.21772
23.688
-23.8355
-96.255
-2.22468
0.468028
6.37891
3.27585
1.76229
5.83258
7.32884
4.89523
-11.5521
7.58074
13.1423
-21.8294
9.40563
-54.0719
1.25463
18.1374
-5.57888
6.65135
-21.8297
8.60515
7.4737
-26.3061
-24.9291
-13.3222
8.01059
25.3148
-23.4174
-2.51544
-70.7161
-0.618609
-34.1946
-21.5479
-27.087
-3.04053
-63.983
-12.2996
-2.60849
-8.89059
7.54819
-0.340017
5.60943
24.7349
5.76518
5.6536
-4.36314
6.36606
-20.923
-4.36048
16.9347
10.1593
5.74785
3.03553
8.45206
10.1519
-8.05157
-38.6629
-4.16314
17.0128
-2.97737
11.0696
5.04959
15.8102
6.17329
-58.8153
10.8226
11.4125
-1.66434
11.4887
-1.65993
22.7788
-33.1834
2.49725
-22.5602
9.54501
-34.543
-2.91953
-37.0165
5.78448
-15.588
-64.5775
-73.4759
1.80239
7.20245
-36.6102
-2.64304
5.73309
-35.3317
3.5449
-41.086
11.3464
21.0765
1.7993
-21.1333
3.99761
5.0915
6.56104
1.97234
0.841322
-19.5171
-2.44814
-12.174
-15.6601
4.82948
-0.317191
-46.4572
5.34297
4.5965
11.1002
-1.233
-28.572
1.75849
-7.97187
0.950056
0.279808
-13.1633
-31.9687
13.5025
-61.3233
-11.0098
-5.51957
-2.8307
-16.0188
-23.0578
25.6021
2.80675
-5.22795
8.87021
20.7385
18.2078
-63.6743
-2.34286
11.0975
3.72749
-1.51108
20.793
3.51333
-1.33707
26.0508
2.26086
-19.7287
6.15465
16.7267
11.5834
3.97204
16.7343
10.3134
2.94826
1.61559
8.71009
5.89373
-13.5628
19.8735
3.16899
0.41094
-18.1822
-27.3154
0.784571
-52.2543
-3.99758
6.08453
5.66274
12.4115
6.29139
-18.8055
17.7653
19.0867
-0.493471
4.08734
-3.8902
0.721437
5.54086
9.72483
-55.8194
-2.21711
-0.770141
21.9697
-18.8893
7.91145
9.8266
10.1973
-2.65597
4.67671
-0.523677
3.71694
-10.6054
-0.549975
-27.802
-9.00595
1.8555
-34.073
11.0231
-65.8557
-23.0979
6.76058
-21.0713
-49.7098
-14.1516
6.77922
-1.99564
-1.8447
8.40368
-63.4261
2.92448
-2.2088
-2.46872
10.842
-15.6596
21.2145
-18.8439
23.2281
-2.54102
-2.34127
5.72763
11.1197
3.1326
-17.3287
-0.44877
3.23233
5.55934
-0.37384
26.6312
10.1887
-5.00393
-2.82034
-2.63168
9.80233
6.21997
-2.90334
9.81168
-51.8397
-43.9103
-22.1638
-19.3445
3.39961
-21.8871
9.89803
3.88857
18.099
21.952
-12.0286
-19.5507
7.24067
-4.13569
19.0794
-26.8831
1.60811
8.33017
10.3896
-51.5356
-32.603
5.93106
3.23364
0.30353
-44.002
-19.4477
3.15385
-1.83176
-13.6067
2.51971
-14.429
-11.1961
6.53577
-68.5311
-56.804
-7.61293
15.8197
22.5813
-5.31994
11.22
-19.8394
1.31898
4.21278
-3.48353
7.33011
-29.7464
-35.4509
18.8917
10.6467
4.66525
-18.9737
24.0583
-45.9472
-27.8652
-52.7425
-6.79895
-36.5598
-52.4838
16.3885
4.23322
3.5623
8.14442
-36.2832
11.8185
-1.48034
4.59466
-15.5006
4.87543
7.8888
6.89
-28.1802
-24.8639
-26.0548
-9.94835
-5.26105
-4.59927
22.7358
10.0877
-43.4353
-7.99445
7.02274
17.3664
-2.24171
-34.4543
-6.56559
13.954
4.36987
-6.30503
11.5477
-3.91694
18.6237
3.55589
12.4458
-17.2743
-4.95114
-8.87053
-50.2687
-8.53751
7.73842
-30.6444
-36.1093
9.16989
-2.96146
3.9159
14.4258
10.6398
13.9135
11.0554
-4.08713
2.55414
5.0593
5.10504
-0.455441
9.07632
-3.54608
18.7928
-32.1654
13.4499
-13.6173
20.8491
-36.4084
-1.26674
20.2547
-34.9034
-4.82953
-20.3271
14.3176
19.8889
11.2558
-9.33287
11.1169
11.2978
-30.9782
8.98203
-63.5637
12.6399
-39.6365
-69.608
-21.8937
-24.3917
11.029
-11.9898
-34.4228
1.98649
19.5263
0.779362
3.69404
-26.6184
-2.67173
-2.5193
-4.23863
11.1927
5.65667
-31.5083
23.3988
2.35159
17.0911
12.3426
-1.69535
20.5218
2.26765
-7.72524
-5.66091
0.426502
-0.35846
1.41108
5.4538
-49.9858
21.3462
12.9054
1.56968
-36.3692
4.99517
-34.566
10.4445
10.464
5.84724
-32.7844
10.3651
6.43677
-2.12188
-21.1554
-3.76174
7.17951
18.5821
-23.1647
20.5915
23.4801
21.3204
-11.1811
10.8108
-16.5036
11.0087
10.6506
14.2352
7.21207
13.786
24.6939
11.5319
-25.5093
-30.0562
-34.433
24.6562
2.47357
-6.69001
-27.5139
13.0547
17.9994
8.39117
2.20421
-0.207475
16.3128
-3.90293
5.46807
-30.8636
8.48177
1.12639
-21.7062
3.08635
-16.5046
-19.9548
-64.7607
-8.54163
1.17727
10.5585
3.19957
5.62502
5.87706
10.1991
-8.84411
-16.4057
11.0443
-16.3705
-29.2439
13.0559
16.7775
-44.1559
11.0352
12.9851
16.7082
3.18408
-87.4086
7.21704
-15.5799
14.3085
7.14878
13.8038
10.5611
5.98473
13.6862
4.72426
11.6423
2.44973
8.72192
-2.41197
-20.8311
-10.1125
-0.962005
11.3682
-72.0813
-60.7509
-65.7672
19.2235
10.7068
8.41428
0.289649
15.788
-9.56913
5.53053
0.994263
-3.30878
5.74917
-61.2069
-19.8403
-3.87219
-13.7003
-3.42513
-47.2991
0.515751
-36.3285
-21.0305
3.19678
19.8675
22.5696
17.9735
-73.5697
5.5522
-13.3797
6.05245
17.4028
6.21166
11.1362
-60.9733
3.15879
-3.60353
4.08042
12.6937
-0.846563
7.39354
-23.7261
2.47239
-16.5165
11.6942
7.47093
11.0819
-18.0783
5.95841
-67.321
-32.6962
-28.9577
2.79641
19.2795
-15.2479
-17.8533
-34.6991
9.20366
11.2283
1.66709
9.68614
-22.9754
16.1929
18.5381
-56.3155
2.94499
13.9431
-65.6796
-25.0582
4.77115
13.3567
14.7847
-17.4811
-5.36275
4.04683
19.573
-27.5477
-79.6667
4.03247
16.7346
4.63941
-2.53669
-13.8086
11.5828
10.629
12.3752
3.76023
-12.5186
7.44324
23.9718
-21.3639
-0.707327
4.4972
-28.0595
4.60932
3.57958
-24.173
-6.25433
-44.0066
9.88488
-39.8072
-13.1164
10.8741
13.8832
6.13565
-7.11238
-71.9847
6.23827
-22.7526
-10.5755
-2.50181
2.35403
-22.0015
13.8995
6.76442
4.44579
4.4833
17.9297
-31.565
-2.42645
11.3717
-23.4476
10.0804
1.04225
1.19138
-15.7273
10.9567
1.40257
3.5544
-0.937662
-11.5863
11.9355
-14.4441
9.51309
-70.6083
-6.54024
11.0589
-31.1494
21.1284
-18.386
-26.4225
-43.8502
13.679
7.13412
10.5784
-42.0963
16.5788
-37.2073
-3.86141
4.05983
10.2969
11.5665
3.04501
0.0967748
-0.686829
-30.2927
10.8223
-12.1707
-66.0011
-0.132984
1.49341
5.04437
0.922738
17.9409
-2.48252
-15.9024
10.4971
-4.51458
14.6276
-15.3044
4.95163
11.3165
11.6986
2.3104
-22.4026
-20.54
4.55706
7.31379
8.32278
12.2544
-41.2507
0.462396
-9.91313
5.44777
25.1552
5.7484
10.7734
14.5547
6.4786
12.2355
-51.2894
-44.6124
-70.3271
11.0155
24.4164
6.28775
-1.91356
12.3284
0.459497
1.60381
-1.39038
4.51018
3.86626
21.2225
-39.7038
-11.0647
19.0812
12.6294
3.57523
7.52617
10.6371
4.5772
-66.9098
-63.6473
7.45689
-21.7558
-21.0179
10.0718
-70.6956
-38.0467
-17.7803
4.78895
5.36084
7.20068
4.3449
10.8146
11.194
4.69312
7.67455
5.92333
15.0688
12.5392
-7.26727
1.79059
2.0772
12.8895
7.03766
10.3954
1.01568
4.20336
-54.4699
17.8494
8.59552
0.6667
-20.1969
9.72157
9.0541
-3.47138
8.0099
-1.14919
5.24826
-66.8247
5.96473
-22.2389
3.16525
-5.6642
-21.3045
-11.6638
-19.2964
15.2541
-23.7246
-23.7446
-33.4746
18.5912
-38.754
6.25507
6.83947
-31.6116
12.7824
11.2486
-5.39257
13.2586
5.02351
4.90017
-36.2171
-22.7162
1.26244
14.3311
14.3627
-16.6679
-27.2446
-48.2542
-29.2876
-34.6459
-7.39826
-0.301126
7.92736
11.1308
9.68007
-39.8039
1.47353
13.6309
10.1069
-16.0725
4.44354
-36.4549
-1.46796
4.38302
3.9565
10.8275
-1.64882
-43.914
-56.3101
7.49267
-55.1096
-34.4653
2.99344
-87.2578
-14.5659
-35.6619
-30.1237
3.59008
-37.645
2.48411
-16.0996
11.6272
11.1564
-0.710033
13.9799
-48.702
17.6448
-11.962
5.1479
-3.38305
7.71875
3.96984
-21.1618
-42.1729
11.9014
14.4025
18.9682
-19.0475
-16.4044
-59.5076
-0.0115558
1.18983
-19.2315
-15.1091
-21.1392
3.97494
-13.3594
-4.64138
-22.5201
2.22782
16.2863
4.28671
-0.510306
14.1039
-6.30319
-24.4129
16.8121
22.3189
-25.5821
7.82583
8.02563
-2.18228
-61.7105
13.499
14.2641
-6.29056
-31.9684
-68.9701
-54.9658
-2.84865
-25.4946
-1.67412
11.1705
2.75846
13.0034
-14.2116
-34.6352
11.5782
-2.00483
-24.2288
5.34617
12.45
-26.8594
0.718738
-32.5665
-18.0481
-21.9751
19.4444
-43.603
3.20777
-14.0948
9.88668
-21.274
-5.42842
-2.99535
-23.2854
-2.68381
8.1377
-23.8378
-18.8247
6.00107
0.547412
-61.3272
13.1201
-22.2508
-3.03335
1.22929
10.9069
-42.3795
14.0562
-56.0859
0.673344
-2.8658
-10.9285
-61.4593
-20.7996
-38.5372
6.32353
8.25004
-0.204335
2.98471
-5.27407
3.70601
-31.5986
11.3918
-0.457716
9.6901
-4.14119
-45.2263
10.6508
27.3591
-58.5383
-29.1254
-30.8121
-8.68635
11.0671
-6.67582
10.8591
-7.35048
-21.8793
-19.3711
-21.2797
-21.8465
4.48723
-22.0682
5.99803
-29.0135
4.23609
6.18724
-1.28226
-9.35936
0.653447
10.118
-13.2783
-62.7131
12.0671
1.04493
-16.0487
2.98987
5.49077
-5.59693
2.14147
10.7777
-63.5514
8.83625
-14.3621
4.48589
-21.2107
-17.8277
-29.4899
-9.17412
-28.5243
10.4875
8.512
-30.3637
23.6987
-59.3416
14.1077
13.5879
-31.4322
5.94006
9.70066
11.1724
-3.18266
-54.7862
-7.85358
-2.94591
10.9712
7.27835
-9.88641
6.04431
-5.53063
14.3272
3.37244
14.2434
5.31165
12.0032
-5.94015
-7.48423
-20.8571
10.9063
6.52394
8.94632
14.238
13.2107
-2.03213
-73.6001
10.2128
9.16286
4.35538
-0.123174
-16.0051
-26.2539
-0.0295488
-67.3444
14.027
4.27797
1.83473
-2.8843
5.1252
-35.1342
6.37998
-73.8576
-4.64077
10.4326
12.3428
-61.8294
9.84969
0.836377
4.90136
6.64255
3.93629
7.21204
-3.48738
11.6095
10.7606
11.1303
-17.6206
12.5578
10.3436
11.0073
10.7943
-67.008
-1.4182
-10.669
-5.53866
10.8628
18.2154
-86.4911
19.4333
-57.3491
-21.4246
7.2428
9.89725
-3.38675
3.92738
-14.9291
-80.438
-1.89759
-53.3308
-2.0051
2.75459
4.98133
22.9339
8.68944
-47.9811
-49.4103
5.4914
8.95168
-70.5115
-32.8567
-76.6964
-7.08716
-21.4071
-20.4233
11.175
4.64183
8.66179
2.9214
3.08292
5.56365
1.57867
6.00596
-6.06808
12.3924
-10.3514
-13.8104
-12.2576
-36.0091
3.42134
9.27816
1.27607
-25.0545
11.0883
3.31694
8.69179
-4.89288
10.5357
5.29134
16.403
10.9123
-61.5694
2.53727
-3.15373
-71.5811
-0.130485
-34.8516
-7.9947
-89.7404
23.3153
2.54275
1.33686
13.853
-30.1326
-0.586668
-52.2244
-18.5973
-41.9222
-17.9429
-4.12548
2.65474
-13.1296
-63.8024
10.1365
-71.7744
-2.98264
-42.7128
2.42245
10.958
-31.4511
-48.4378
-4.9525
3.65584
-6.71696
10.5699
14.5948
-75.085
10.7597
-1.50136
10.3323
18.535
-24.4078
9.98906
4.14844
8.36255
12.5875
3.08971
-0.0556156
-32.376
9.74171
14.618
-71.0312
1.1088
-13.6627
-8.48739
9.24969
-68.8101
-6.70061
-80.9708
8.6692
-16.2321
5.90553
3.5965
11.3882
5.97664
-23.5116
1.69756
-6.36177
-14.9063
16.7454
20.9344
10.9144
23.9148
12.5173
17.6784
5.40507
1.58975
14.208
-28.3824
7.35196
2.55009
-21.1544
15.1501
-1.19976
-4.9769
20.339
5.07792
-39.2708
9.18553
8.50916
13.176
-24.7375
11.6329
20.1388
-26.8444
-21.3628
-6.60525
4.2964
-15.8875
9.62513
3.72237
13.8529
11.0337
-44
9.44606
-1.05984
-30.6497
-26.7744
-69.5779
7.70709
-9.42633
11.2458
2.61751
-20.9109
-3.5855
1.56351
-3.0568
-83.1073
-41.3533
9.05464
6.63673
-19.3305
1.32067
10.9522
5.73342
-81.1454
9.32702
-7.33218
8.91963
-24.0784
10.7759
7.29035
-9.67314
1.32472
8.09804
4.09831
7.53944
-15.5941
23.2628
-2.65702
-32.8259
8.29053
5.47865
-23.2747
-5.06871
-16.2313
-4.88607
-2.04521
-7.44016
3.9064
2.79082
24.3744
4.95405
-38.9602
-1.96204
-3.56093
-4.037
-3.23395
6.20858
11.0703
-16.5803
4.15264
-16.9149
-4.12535
4.7567
5.22587
10.5328
2.93311
0.444099
-2.51555
10.7156
4.61933
2.31654
-26.5662
0.611134
0.306065
12.3549
-30.0469
0.622152
-37.5192
7.4181
-24.3693
2.86209
11.5686
9.87054
10.3275
-20.7331
-36.1298
10.9698
0.910589
12.691
9.28161
9.81263
10.16
4.24706
7.48298
6.44574
-5.31627
-27.6587
11.0052
-45.8135
12.4315
5.40321
24.5967
4.51671
7.18625
10.7567
5.92412
5.75908
10.5362
0.289499
3.03325
-11.4578
-4.6857
6.82369
3.28364
-4.59861
-68.6545
-3.80119
-27.2739
-25.7556
-7.50166
11.1787
-4.68521
10.7954
4.6135
20.3105
17.6465
8.18808
1.77942
8.01393
-19.0292
13.0329
4.51256
5.49044
3.31757
11.7343
7.8949
-1.5362
-59.6778
-9.61255
3.1343
-2.73131
10.443
11.0645
-50.481
2.06458
-12.7814
7.59817
8.84115
-1.58592
8.53243
9.16286
0.817673
5.87646
9.9862
6.11557
-13.0097
10.6278
6.8904
15.9389
9.26362
13.176
8.15705
-23.9702
-65.8949
-21.4873
-5.81544
-12.2264
-66.3982
11.1625
15.0103
12.7794
13.9422
10.42
12.3229
8.60223
5.08205
8.89347
-0.654903
5.9376
6.03493
-19.1793
17.8002
5.57239
-25.3133
10.7336
14.7519
17.4741
-27.7659
-0.109261
-60.6569
-20.9783
9.06116
-6.30944
-41.2759
10.4215
20.0958
-33.0592
9.56629
-15.6561
8.5441
5.38136
6.32808
4.45216
3.84407
-79.7265
-1.16329
1.09156
-16.2768
11.6503
11.1405
12.7959
-4.94243
-26.6395
-3.61315
1.74059
-3.25004
-2.61182
4.83402
2.8319
-4.56831
-0.311592
-3.5401
-6.39397
8.16322
-15.9003
5.69423
9.57317
-0.766306
4.42542
-17.6205
-29.4706
-12.8283
10.8675
5.80212