/*--------------------------------*- C++ -*----------------------------------*\
| =========                 |                                                 |
| \\      /  F ield         | OpenFOAM: The Open Source CFD Toolbox           |
|  \\    /   O peration     | Version:  2306                                  |
|   \\  /    A nd           | Website:  www.openfoam.com                      |
|    \\/     M anipulation  |                                                 |
\*---------------------------------------------------------------------------*/
FoamFile
{
    version     2.0;
    format      ascii;
    arch        "LSB;label=32;scalar=64";
    class       volVectorField;
    location    "7";
    object      U;
}
// * * * * * * * * * * * * * * * * * * * * * * * * * * * * * * * * * * * * * //

dimensions      [0 1 -1 0 0 0 0];

internalField   nonuniform List<vector> 
13486
(
(4.57703 -0.769924 7.6846e-21)
(5.12901 0.607209 4.24984e-21)
(8.20068 0.441215 0)
(-4.06135 0.206005 -2.38508e-20)
(7.66163 -0.721384 -4.44646e-21)
(7.08164 0.463619 -6.6827e-22)
(7.8826 0.932918 -3.3013e-22)
(6.59343 -2.12629 7.05977e-22)
(6.11217 -1.03001 0)
(5.7951 1.84053 0)
(1.92094 4.43982 -7.63643e-21)
(6.94869 -0.461408 0)
(4.19361 -1.37196 -7.52747e-21)
(6.95403 1.99865 -8.77153e-22)
(7.20531 0.268704 -1.59977e-21)
(5.71408 1.91484 -3.71674e-21)
(2.09052 -2.0911 4.44229e-21)
(1.32435 -2.17312 1.35638e-20)
(6.30899 -0.110452 5.56223e-23)
(5.05253 -0.293106 -7.80491e-21)
(-9.07292 0.530429 -1.6051e-20)
(4.24406 -1.40789 9.69748e-21)
(5.18286 0.586036 -3.40444e-21)
(12.4231 0.749987 0)
(6.03023 1.49359 1.27964e-21)
(12.5068 0.340271 -5.00698e-21)
(2.99975 -0.0790104 7.11548e-21)
(8.77237 -0.387395 3.20807e-21)
(6.39625 -3.4733 0)
(8.84993 -1.28689 -4.328e-21)
(-10.7969 3.02052 -1.28285e-20)
(6.32585 0.262027 -1.5716e-21)
(9.19236 0.675283 2.33257e-21)
(7.5908 -0.842576 0)
(6.6081 -2.01347 0)
(1.98547 -0.218463 -1.25471e-21)
(-0.320444 6.43375 -1.85913e-20)
(5.10253 -2.34789 2.46774e-21)
(3.52863 -2.50524 -4.0766e-22)
(6.09612 -0.590159 2.51781e-21)
(9.50503 -2.01898 0)
(3.61056 -1.73428 -9.2203e-21)
(6.51102 -0.151884 0)
(6.04674 1.26724 -6.05763e-21)
(6.05902 1.27156 2.47307e-21)
(6.97067 -0.456171 2.69675e-21)
(-4.02249 -3.60151 2.37712e-20)
(7.06807 -4.86825 -2.9323e-22)
(-0.155704 5.45646 1.34589e-20)
(7.99903 0.209876 6.29644e-22)
(5.97904 0.0373509 5.20109e-21)
(3.32444 -0.530552 0)
(6.34772 -0.790579 -5.18596e-21)
(5.25574 -1.85247 -3.87967e-21)
(1.90517 -3.43468 0)
(7.49538 -0.885652 2.21844e-21)
(6.40777 0.949344 1.54557e-21)
(3.63953 -1.0125 4.58454e-22)
(9.18467 0.766258 3.33045e-21)
(6.80267 5.12969 0)
(0.43307 8.18735 -8.38022e-21)
(7.71033 7.02707 0)
(9.97427 0.451664 -3.64281e-21)
(-8.58223 0.445505 -2.11652e-22)
(4.90634 -3.58609 0)
(0.321877 7.97018 -1.26457e-20)
(-4.73736 0.97312 -1.90833e-20)
(4.51359 -0.0445701 2.83262e-21)
(6.11662 -1.10257 -1.04988e-21)
(3.83478 0.783032 -3.26911e-21)
(-4.36296 1.16327 2.20353e-20)
(1.69959 -3.38583 5.68527e-22)
(6.01492 -0.311166 2.25416e-21)
(-0.76931 1.58783 -6.4166e-21)
(4.59023 10.0489 -5.53787e-21)
(6.29634 0.978018 -2.85636e-22)
(5.17122 9.58053 9.91627e-21)
(7.27844 0.273625 7.46523e-22)
(-5.51459 -5.63177 -1.11752e-20)
(5.02491 -3.15397 0)
(2.87919 -0.0190304 -4.62224e-22)
(4.97843 0.850161 -2.80684e-22)
(9.18577 -0.0631874 -1.71382e-21)
(8.94349 0.363966 -5.14218e-22)
(4.57421 -0.793415 -1.49242e-20)
(4.29916 4.24757 0)
(5.05046 -2.60093 3.39266e-22)
(5.9848 0.0779173 -8.19009e-21)
(5.63711 0.426129 -3.51569e-21)
(5.26368 2.55814 -4.6254e-21)
(6.03758 -0.280272 -2.50437e-21)
(7.00118 -1.59395 9.84705e-22)
(4.77762 -1.06258 1.82601e-21)
(5.12044 0.0764405 2.155e-22)
(5.94855 -1.67686 3.86071e-22)
(8.8054 -4.99006 -9.77157e-23)
(2.9968 -0.0901542 0)
(-7.89437 2.75579 1.13016e-20)
(6.08862 -0.563786 -4.8538e-21)
(2.22517 -2.67012 -4.7655e-23)
(2.17803 -0.0987934 0)
(6.90132 1.9943 -3.87724e-22)
(-8.1399 2.51415 1.14378e-21)
(2.60973 -0.868799 -5.02004e-22)
(3.88408 4.00473 0)
(1.57184 -3.44834 1.86393e-22)
(5.94339 0.0710349 -7.2299e-24)
(3.9934 -2.78646 -1.20532e-21)
(-4.80087 -4.81281 1.43984e-20)
(6.84915 -3.00876 0)
(5.36167 -2.48382 0)
(6.41394 0.947166 9.78344e-23)
(5.29299 -1.80465 9.84805e-23)
(6.36342 0.515702 5.40425e-23)
(3.54237 -0.390619 0)
(5.24655 -2.46874 -7.1085e-22)
(5.96277 1.59689 0)
(7.36998 -0.552898 0)
(6.00754 -0.286916 0)
(2.73733 7.23604 -3.06743e-21)
(2.2483 -2.19633 -5.64416e-21)
(-0.53181 6.73622 0)
(5.81673 -1.51484 0)
(3.33092 -2.50885 1.04003e-21)
(6.16447 -2.00639 0)
(3.75575 -0.864915 0)
(6.6609 -0.407553 2.41174e-23)
(6.36708 0.238949 3.00593e-21)
(6.01577 -0.326851 -5.73654e-23)
(7.17991 -5.98827 -1.5703e-20)
(2.94356 -0.377274 9.8155e-23)
(-3.34843 -3.91245 -6.19597e-21)
(0.946429 1.26947 1.11601e-20)
(-0.602579 0.352514 9.04587e-21)
(5.98919 0.0134022 -8.3056e-22)
(5.65993 1.0371 -4.51863e-21)
(2.6707 1.56624 -2.84447e-21)
(6.74958 -2.86522 0)
(2.70981 6.2503 7.41101e-22)
(6.56265 -1.58215 -7.78481e-23)
(8.65235 0.57696 -2.57481e-21)
(6.36766 -0.861271 4.48237e-21)
(6.40563 -0.23206 0)
(6.47956 -3.60813 0)
(6.20329 -0.151638 2.39002e-22)
(8.8126 1.02221 2.55647e-21)
(6.58074 -2.78484 -2.89327e-22)
(-0.787733 3.31754 0)
(8.02643 0.310638 0)
(6.79641 -3.24706 0)
(6.01306 0.0155337 9.92799e-23)
(7.74278 0.103134 0)
(2.6745 0.0262529 4.83746e-22)
(4.88101 0.824479 -2.40863e-21)
(6.39344 0.845666 0)
(9.43777 0.451468 0)
(6.87482 -2.88228 0)
(5.96388 4.34173 2.57193e-20)
(5.65511 -2.14149 3.79848e-21)
(10.2645 -0.366954 -7.47637e-21)
(7.81754 0.122858 -1.06093e-22)
(5.67297 -2.08427 -5.56359e-21)
(5.07488 0.132191 3.21103e-21)
(3.3008 -1.63524 3.98967e-21)
(4.15299 -0.911638 0)
(7.25854 2.02588 4.4098e-22)
(6.74961 1.81343 3.04223e-21)
(1.82 -0.616859 -1.17822e-20)
(6.22529 -3.05362 4.03603e-22)
(-0.587528 0.39869 2.45163e-21)
(-0.0470896 2.32404 8.98015e-22)
(6.36913 0.764784 2.32194e-21)
(5.99369 0.142473 -7.32083e-21)
(6.73533 -0.119249 3.63699e-23)
(5.89878 -1.898 -1.56846e-21)
(-4.30735 5.22943 0)
(6.87818 2.86135 -1.27537e-21)
(8.7007 0.865406 3.27708e-21)
(5.95458 0.05554 -7.5829e-21)
(6.41601 -0.285538 0)
(6.24917 -0.672144 4.02432e-21)
(6.31175 0.426144 1.49886e-22)
(6.70362 -0.0821848 6.33704e-23)
(1.41091 -0.690472 0)
(8.96561 -0.327921 1.16136e-21)
(8.14777 -0.266629 -1.4354e-21)
(5.95287 -1.12737 -2.67605e-22)
(8.15657 -1.10282 -8.63761e-22)
(9.45393 -2.02262 0)
(4.80977 -2.2902 -1.6499e-21)
(1.18225 6.53988 0)
(7.39575 0.227395 0)
(4.01104 -1.48558 0)
(4.45031 2.05114 -5.50777e-21)
(4.70124 -1.56384 0)
(1.04247 3.78338 -1.76064e-21)
(5.24532 -4.58293 3.44502e-20)
(7.93549 0.0473684 -2.39477e-23)
(4.44403 -2.17824 -1.38275e-21)
(7.18751 1.88171 6.44431e-22)
(-9.46055 1.96528 1.16586e-20)
(6.41247 0.282208 -9.43456e-23)
(5.03709 -2.38807 -2.85958e-21)
(7.78953 -2.91942 -3.54143e-21)
(9.9626 0.504624 9.10758e-21)
(4.69849 -1.57981 4.68416e-22)
(-0.842937 -1.82009 5.21006e-21)
(5.81321 -0.163564 5.34077e-21)
(4.17626 -1.33806 0)
(8.72347 -0.0750208 0)
(8.79483 -0.64892 2.43733e-21)
(13.6319 -2.19253 1.71494e-20)
(5.10733 -0.220458 7.16456e-21)
(5.91671 0.0820261 -3.4731e-24)
(7.10155 0.559446 7.70664e-22)
(7.2457 -3.6523 9.17827e-22)
(8.89854 -0.954846 0)
(5.34953 2.41388 1.11474e-20)
(5.03989 -1.10403 0)
(8.83786 2.05989 0)
(1.65244 -2.49447 -8.11517e-21)
(8.17892 0.382961 0)
(6.49689 -1.57822 4.40983e-23)
(7.92588 0.184419 0)
(6.49799 -1.18225 -1.07521e-21)
(4.34049 -2.00674 2.50454e-21)
(7.38888 1.01624 4.41689e-23)
(-6.74496 1.36444 7.50863e-21)
(6.3212 -2.55689 2.24058e-22)
(5.81654 -3.20819 -4.04325e-22)
(6.25755 -0.655738 -1.32171e-21)
(10.66 1.20876 3.08926e-20)
(8.75619 0.652116 3.21028e-21)
(3.56043 -1.69894 3.21943e-21)
(-9.14234 1.65206 0)
(4.12893 -2.00412 2.7471e-22)
(7.9024 -1.0202 1.64985e-21)
(7.41112 0.115177 -2.76839e-22)
(4.07993 -1.9476 7.72861e-21)
(6.69054 -0.127895 0)
(9.33603 0.970733 0)
(5.99138 0.118076 1.12949e-20)
(6.75969 0.229108 0)
(3.9484 -1.93939 2.32363e-21)
(4.06015 -3.1641 -1.87923e-21)
(5.54201 0.0732091 0)
(6.93344 -0.0327808 -5.15281e-22)
(10.3122 -0.77235 1.23001e-20)
(-0.919637 0.770787 1.43629e-20)
(5.95755 1.19028 0)
(-6.05529 5.55208 -3.9817e-21)
(3.46723 -0.311585 1.29503e-21)
(4.89445 -2.37714 5.27845e-22)
(3.88837 -2.46598 0)
(5.84298 -2.57664 2.68603e-22)
(-3.5748 5.83795 4.00791e-21)
(6.25117 0.157838 1.91724e-21)
(7.07131 -3.79863 -1.15981e-21)
(8.25921 5.48604 -2.69268e-20)
(9.41334 0.678618 2.69718e-21)
(5.40454 0.466015 0)
(3.43157 -2.949 9.78788e-23)
(7.14911 0.242777 3.54378e-21)
(-3.96032 5.65017 -5.00388e-21)
(7.68145 -1.89912 4.93383e-21)
(1.03897 -1.01878 0)
(6.78283 -2.52977 -8.17046e-22)
(-10.8519 2.25287 -1.86835e-20)
(6.25725 0.00479269 -2.85549e-21)
(4.20182 -2.44645 0)
(4.54993 2.20966 4.29731e-21)
(5.94203 0.0824156 -2.13864e-21)
(8.81952 -1.05988 0)
(6.81802 -0.830815 2.6881e-21)
(4.42041 -2.07566 3.30423e-21)
(10.2231 -1.33615 -6.92546e-21)
(6.05052 -2.54703 0)
(2.36432 -6.89705 0)
(4.28705 -2.52766 -6.54132e-22)
(7.05783 -2.62299 9.22887e-22)
(2.6384 -7.52502 8.53727e-21)
(6.42775 -0.363073 -1.47954e-21)
(5.86918 0.116522 4.60592e-21)
(9.06002 3.93829 -5.18395e-21)
(-0.939138 6.02669 8.1158e-21)
(4.34568 -2.21739 1.4896e-20)
(8.55699 0.734078 2.45805e-21)
(6.53514 -0.479009 7.54335e-23)
(6.82403 -1.08978 1.67621e-21)
(6.1686 -0.0107884 0)
(-9.9826 1.43612 0)
(3.99621 -3.56161 1.02663e-20)
(5.18249 -2.42758 1.25038e-21)
(6.00471 0.0259818 -8.06119e-22)
(7.84266 -1.0308 9.86538e-22)
(8.06129 -1.16573 0)
(7.18637 -0.0185622 9.79472e-23)
(7.09018 -0.827251 -2.36591e-21)
(5.84617 0.0840502 -4.15368e-21)
(8.95745 0.164168 -9.40706e-21)
(4.83958 -0.0491855 -3.7952e-21)
(-0.769124 -1.00468 4.54049e-22)
(6.5679 -2.84586 -7.86456e-22)
(6.4085 0.214702 1.68651e-21)
(1.61572 4.72736 8.23152e-22)
(6.79677 -3.22688 0)
(9.02342 1.45063 0)
(6.25354 -0.0591546 9.25055e-22)
(5.90833 -3.3477 1.11951e-22)
(0.726381 8.41981 0)
(5.77566 4.1205 -1.39352e-20)
(-2.02605 -0.363769 0)
(6.59964 2.79081 1.1747e-21)
(6.33391 0.918486 -9.48475e-22)
(1.66513 8.44215 0)
(5.65142 0.934341 -2.82179e-21)
(4.26754 -4.52083 -1.54593e-20)
(5.61126 0.419445 -2.99713e-22)
(5.78215 -0.155741 -6.02128e-21)
(6.97247 -2.4605 0)
(-0.0554431 6.20862 2.4252e-20)
(1.56 -3.1274 -3.49961e-22)
(5.97073 0.0699037 9.61281e-22)
(5.08786 0.191469 -4.13211e-21)
(2.56839 1.58094 5.19992e-21)
(5.84455 -0.0530511 5.25453e-21)
(6.96241 -0.533143 2.0607e-21)
(6.46271 -0.35192 0)
(7.91475 -1.19881 2.18964e-22)
(7.05079 -0.452414 9.89849e-22)
(5.99055 0.0194843 1.18348e-20)
(7.10067 -1.56374 0)
(5.7885 -0.340949 -1.58038e-21)
(4.49588 0.83137 0)
(7.94359 1.2386 1.44216e-20)
(6.14357 -1.50889 -7.2642e-22)
(2.78367 -1.29667 4.2201e-21)
(7.72104 -0.10886 4.58282e-21)
(6.00648 0.422416 0)
(4.14108 -2.87299 -4.17349e-21)
(6.79525 -2.37744 1.04199e-21)
(5.10944 0.199654 3.90748e-21)
(7.14004 -0.457762 -2.75351e-21)
(6.65449 -0.0458742 1.49294e-21)
(-2.18461 4.02233 -6.60633e-21)
(7.64996 -4.85605 5.84069e-23)
(6.66927 -0.234355 0)
(3.43808 -1.19408 9.6633e-21)
(8.83651 2.01732 0)
(4.12525 -3.88331 -5.35185e-22)
(6.45486 -0.123511 2.71266e-21)
(7.41587 -1.09614 -2.63632e-21)
(6.92202 -0.759777 2.23223e-21)
(1.56877 0.0722729 -8.05164e-21)
(5.86845 0.0846207 5.16717e-21)
(8.16031 -1.85424 0)
(-0.816952 1.12984 -5.52651e-21)
(6.64585 -0.388771 -5.08845e-22)
(5.73646 -3.12286 -1.58339e-22)
(12.1768 -2.9683 1.15997e-20)
(7.35334 -0.0966837 0)
(5.76542 -0.432867 4.26007e-21)
(5.47998 0.281105 8.50572e-21)
(5.93148 0.101215 6.50501e-21)
(8.88432 -1.31561 0)
(2.55149 0.370101 4.39343e-23)
(8.17295 -1.03389 -1.54953e-21)
(-0.747572 -1.63142 3.80273e-21)
(4.9958 -0.265624 1.00078e-21)
(6.64322 -0.336003 4.85346e-22)
(6.78431 -0.126931 -1.85448e-22)
(6.62352 -0.242122 0)
(6.56356 -1.39101 -3.86322e-21)
(-6.07142 6.46946 3.47712e-21)
(6.9682 1.11494 -1.51688e-21)
(6.01032 0.0332169 4.3174e-21)
(4.74017 0.0051002 0)
(4.31053 -2.63692 -9.38592e-21)
(2.48619 9.02361 0)
(9.06635 3.35595 -3.29991e-21)
(6.29248 -0.0307628 0)
(7.20648 -1.93742 -1.96696e-22)
(4.29818 -0.500201 -2.25156e-21)
(4.52162 1.86366 9.90649e-21)
(-2.611 -2.95472 -1.68448e-20)
(6.05111 -2.45732 0)
(6.57417 0.185936 -2.84948e-21)
(6.01361 0.455435 -3.16544e-21)
(-1.33392 -0.00949487 -3.39455e-21)
(-7.38833 3.32121 2.78331e-21)
(5.1814 -0.275063 -1.06371e-20)
(8.79664 -0.831451 1.78254e-21)
(6.15362 0.471544 2.47205e-21)
(4.72936 -1.44495 0)
(4.33483 0.596246 4.9043e-21)
(3.47232 7.9877 -4.45068e-21)
(-3.26001 0.237582 1.3331e-20)
(-5.78727 5.59413 -1.25194e-20)
(-0.756433 -0.857091 -5.00646e-21)
(8.58028 0.70801 0)
(-1.24152 -0.263186 0)
(5.8987 3.02062 0)
(6.37369 -0.154186 0)
(9.71301 -0.521361 -1.75256e-20)
(7.66127 1.11617 0)
(5.82983 -2.56683 0)
(5.17568 0.130596 1.58029e-21)
(8.75371 0.840558 -3.36713e-21)
(6.58179 -0.252451 -1.72278e-21)
(5.19875 0.703672 1.49238e-20)
(6.00583 0.064502 -1.57928e-21)
(6.45504 4.40204 0)
(8.80528 -0.477444 0)
(5.82698 0.0979248 4.44932e-21)
(6.01269 0.0544415 7.72898e-22)
(3.89198 2.2212 0)
(1.2487 -0.579231 6.68783e-21)
(7.61739 -1.98862 -5.5344e-21)
(0.15989 1.77861 0)
(6.66385 -0.118697 1.96324e-21)
(5.94714 0.0744845 -5.10013e-21)
(3.32513 2.766 -3.69376e-21)
(3.42471 -1.1681 0)
(5.98693 0.464068 5.72149e-21)
(7.51626 0.641492 0)
(8.26667 -0.97182 0)
(6.45763 0.521749 -4.38228e-22)
(5.85016 0.129922 2.44756e-21)
(3.5656 -0.244985 -9.33375e-21)
(6.68402 1.76851 1.06796e-21)
(4.35136 -1.13824 -3.66329e-21)
(6.30408 -0.143377 3.6156e-22)
(6.18494 0.504261 1.97875e-21)
(6.95044 -1.31507 9.81159e-21)
(7.99545 -1.67413 0)
(10.0618 -0.467304 4.87563e-21)
(4.30758 -0.333689 0)
(2.66185 -3.50489 7.91989e-21)
(6.71615 -0.15531 0)
(4.56915 -0.0378885 6.05069e-21)
(-3.92466 -1.48537 -1.49845e-20)
(8.93419 -0.793256 0)
(-0.491554 0.0347704 4.03597e-22)
(8.97646 -0.513228 -3.4805e-21)
(6.5447 -3.53076 -2.02848e-21)
(5.61336 -0.777287 7.95369e-21)
(4.26901 1.79468 -6.18219e-21)
(4.33082 -1.11103 -1.07443e-20)
(9.6394 3.07631 0)
(1.74337 5.62444 1.60467e-21)
(-2.42375 5.08357 -1.58284e-20)
(5.98243 0.480241 0)
(5.58763 0.478007 3.28367e-22)
(8.02769 0.116932 -1.50927e-22)
(7.57637 2.99949 0)
(6.00187 0.0115507 0)
(-3.47493 3.21958 0)
(-3.69732 4.6681 2.04001e-20)
(8.57852 4.87807 6.13938e-21)
(7.32975 1.88577 -9.53814e-22)
(6.5513 2.64556 0)
(5.37993 -0.559536 6.21426e-21)
(6.02224 -2.00588 4.12811e-21)
(6.67114 1.63245 -2.50072e-21)
(-6.28734 -0.291493 3.08983e-20)
(5.77013 0.334345 0)
(6.9101 -4.49311 0)
(2.67875 -0.577342 -7.01041e-21)
(4.64988 -1.43413 -2.41773e-21)
(6.05834 -0.444829 0)
(5.95658 -2.74675 1.46738e-21)
(2.52549 -0.528799 1.22628e-21)
(8.3913 -3.77748 2.83148e-22)
(3.01033 -1.37116 0)
(5.47453 -0.460341 -1.57878e-22)
(3.76368 7.27182 1.7882e-21)
(7.55987 0.617221 -5.39069e-22)
(6.11337 -1.59169 0)
(4.56105 -2.27455 -2.29855e-20)
(7.06233 -0.997663 2.58382e-21)
(5.98949 0.184194 1.13311e-21)
(9.59433 0.360464 -4.30853e-21)
(7.40827 1.97374 0)
(5.17806 0.70416 -3.9622e-21)
(8.62664 1.42205 -1.6591e-21)
(-0.0578147 -1.32751 8.35395e-22)
(5.99485 0.0890707 0)
(-11.0918 3.64625 -2.85634e-21)
(1.95641 -0.471917 0)
(6.00464 0.0834244 -4.5191e-21)
(5.97551 0.0934887 1.73936e-21)
(5.74155 0.0378179 -8.66986e-22)
(-4.06763 5.21593 0)
(7.62325 0.149993 -1.16478e-21)
(3.61046 0.988276 1.37166e-20)
(7.90626 -1.78627 0)
(5.11242 0.0976986 4.83338e-21)
(8.82751 -0.0521748 1.08358e-20)
(6.58423 0.0726179 0)
(-9.93744 1.61684 8.35175e-21)
(5.11841 -3.05941 -5.17244e-22)
(6.69445 -0.148742 0)
(1.56582 -3.86271 1.24591e-20)
(5.5597 0.424584 0)
(5.86473 -2.60349 6.79119e-22)
(-6.202 5.60489 8.25247e-21)
(5.77682 -1.28133 2.72652e-22)
(7.13065 0.46187 1.16326e-21)
(4.31046 0.557613 2.56113e-21)
(5.58626 -0.84598 -2.87062e-21)
(6.20592 -2.31587 -1.95254e-22)
(5.88421 -2.53244 8.65061e-23)
(6.61333 -0.359831 5.85564e-22)
(7.3965 1.9502 -6.49853e-22)
(7.34325 -3.08956 0)
(5.9983 0.010499 -3.82862e-21)
(1.09779 2.23239 -6.2183e-21)
(4.38635 -0.35609 0)
(2.80494 7.88377 -2.31561e-21)
(4.54279 -0.0723335 0)
(4.03343 -1.17932 9.59383e-21)
(7.10926 -2.25673 0)
(2.09125 -0.264397 2.30077e-21)
(6.67718 -0.127503 -1.57068e-21)
(-8.65958 1.65443 1.45434e-20)
(-4.80898 3.69405 1.01004e-20)
(7.19068 -0.054282 -2.48594e-23)
(6.32843 -2.9448 -4.3321e-21)
(5.77861 -1.51852 2.04633e-21)
(4.76228 -1.06131 0)
(-0.249092 -0.177129 -4.29133e-21)
(8.06133 -1.54851 1.01569e-21)
(-0.0394881 -0.596977 -5.00604e-21)
(8.30035 -4.78243 1.27739e-22)
(4.73244 -1.79191 0)
(6.6514 0.0119137 -3.2974e-23)
(1.32815 -0.940264 0)
(-7.87412 3.08723 1.02235e-21)
(3.65422 2.87791 4.12489e-21)
(8.75326 4.60021 0)
(6.74565 -1.34517 -8.43225e-23)
(4.75818 -3.69165 0)
(7.59303 2.86266 0)
(5.56821 -2.58304 -9.17647e-22)
(4.58061 0.688799 3.98674e-21)
(5.38239 -3.59995 0)
(5.49227 0.346925 -2.38659e-21)
(7.77083 0.850794 -2.54386e-21)
(-5.50532 6.79575 1.55189e-20)
(7.60544 3.78488 0)
(6.39352 -0.0300452 0)
(-1.53033 3.81131 -6.41258e-21)
(5.81073 -0.327957 0)
(8.46234 0.136397 0)
(-1.03636 8.775 -5.73916e-22)
(6.53262 -0.894474 -1.20102e-21)
(5.62152 -1.24173 2.08086e-21)
(9.69774 0.723127 4.17354e-22)
(0.138349 -0.43859 8.9892e-21)
(5.96841 0.0676635 1.97482e-21)
(4.88643 -1.12701 0)
(6.33545 1.25684 -1.11439e-21)
(4.55112 -0.707729 0)
(7.80429 0.224847 0)
(5.99618 0.233196 0)
(6.45693 0.496115 -3.58516e-22)
(5.77592 -0.160868 2.78563e-21)
(6.93852 -0.0320946 -4.76988e-22)
(5.01032 -1.148 0)
(2.09282 -0.0511692 -6.71581e-21)
(5.83982 2.84341 2.22473e-21)
(6.16421 -2.02488 5.01477e-23)
(6.83175 -0.590075 -3.86537e-22)
(10.0998 -1.20289 1.10801e-20)
(6.14526 0.0645895 -2.89698e-21)
(-4.20051 -1.57921 0)
(6.91864 -0.815297 0)
(4.29133 2.12232 0)
(4.11031 -1.81315 -6.58867e-21)
(-2.7846 -2.04069 -1.8208e-20)
(9.12536 4.4475 0)
(6.40225 1.25727 0)
(6.26536 -1.0297 4.25912e-21)
(5.90907 -0.023367 -5.89668e-22)
(5.64784 1.59144 5.11767e-21)
(8.19951 -2.97514 0)
(3.85462 0.508808 -2.43382e-21)
(6.67385 0.200696 1.56717e-21)
(4.54105 -1.33462 -5.89663e-21)
(6.44056 0.225893 -2.31871e-21)
(6.66524 1.64393 3.34218e-21)
(9.53866 1.04538 1.79843e-20)
(4.05992 -1.79718 1.14312e-20)
(7.98235 -5.6727 8.91137e-21)
(6.44167 0.439669 1.22584e-22)
(6.00141 0.0118219 -9.19942e-22)
(5.48184 -2.59098 7.63626e-22)
(6.21188 -3.04954 1.76522e-22)
(4.6167 5.40583 -2.05502e-21)
(5.78036 -2.68002 -4.42066e-22)
(8.50314 -1.28663 0)
(5.71022 -2.39331 -1.06654e-22)
(6.462 -0.0221372 -5.01584e-21)
(8.13821 2.13311 7.63941e-22)
(4.44543 -1.22961 -5.54953e-21)
(6.09724 -1.94569 -1.03885e-21)
(6.07852 -0.0170648 4.69449e-21)
(7.88067 -0.162089 -2.6979e-21)
(5.69867 -1.87733 -3.21266e-21)
(8.48826 0.760748 -1.28337e-21)
(3.78728 -0.64487 -1.38528e-20)
(6.54842 -0.00834366 -4.35904e-21)
(3.76239 -0.843995 0)
(-7.58914 1.56524 -3.15581e-20)
(6.50407 0.0603186 6.50737e-21)
(1.7831 -0.286776 -7.47496e-22)
(-0.629622 1.62179 0)
(6.61432 -2.86678 0)
(5.98363 1.10697 4.60643e-21)
(3.43028 -0.637062 8.82216e-21)
(2.82555 0.510731 -3.4654e-20)
(7.27096 -1.90528 1.77816e-21)
(7.02503 -0.511119 -1.23194e-21)
(8.97409 1.89869 0)
(5.98259 1.20374 2.6115e-21)
(0.675118 -1.46662 -2.7876e-22)
(7.01794 2.73539 -9.891e-22)
(6.17801 -0.62491 -2.64884e-21)
(0.162708 -1.00651 -1.43251e-20)
(9.81313 -1.51089 -1.0212e-20)
(10.1378 -0.373398 2.7745e-21)
(6.3676 3.13296 0)
(7.45386 -2.07422 -8.158e-22)
(5.76008 0.0226709 7.67829e-22)
(3.81344 -0.58175 -1.09917e-21)
(3.31324 -1.61349 1.124e-20)
(6.13019 -0.667976 4.0257e-21)
(10.8189 -0.127297 6.42956e-21)
(-5.28047 5.85257 -7.92631e-21)
(7.76144 -0.357931 -1.26487e-21)
(6.51102 0.0805268 3.91246e-21)
(0.424356 4.91525 -9.67162e-22)
(6.78503 2.67409 3.05544e-21)
(2.32627 -3.15324 -1.35376e-20)
(4.18638 -2.01358 -2.95945e-21)
(3.26746 0.485335 0)
(6.21088 0.907497 4.44239e-22)
(-2.97666 8.3552 -7.52629e-21)
(4.26382 -0.572445 1.19599e-20)
(6.22615 -0.537896 0)
(4.88225 -0.338294 4.08905e-21)
(3.90798 -1.5746 2.71768e-21)
(5.99067 0.0503026 -8.48033e-21)
(-0.486671 2.00284 -6.40464e-21)
(4.80118 -3.05066 -1.78071e-22)
(6.61348 -0.252283 1.16263e-21)
(6.68335 0.201612 4.28931e-21)
(5.95742 -2.64322 -3.72797e-22)
(6.76574 0.20588 5.96944e-22)
(-1.87228 -1.82709 -4.83484e-20)
(6.41761 -0.00695676 4.70559e-21)
(6.287 -0.127278 -1.59419e-21)
(6.30151 0.292679 -5.03221e-23)
(7.13318 0.0398939 -3.08778e-21)
(3.79375 -1.64199 -5.25596e-21)
(6.44187 0.347777 0)
(-5.939 3.9706 1.77575e-20)
(6.41463 0.0675754 5.5901e-22)
(4.14339 2.9563 -2.74803e-21)
(7.30262 0.139634 1.20195e-21)
(6.92079 -0.685249 3.82537e-22)
(6.00184 0.0304837 -7.22657e-21)
(6.17866 0.835076 1.49058e-21)
(1.75873 0.032414 -6.87398e-21)
(8.77564 0.209134 0)
(2.50924 -2.56277 4.72036e-21)
(7.44758 -1.32687 2.70208e-21)
(4.7581 -1.74421 0)
(6.29363 0.236731 3.16692e-21)
(8.14076 -1.43954 3.40937e-21)
(8.40157 0.310165 2.56577e-25)
(9.77925 -2.42307 9.19641e-21)
(4.9459 -1.34855 0)
(5.37247 0.863226 7.55229e-21)
(10.9712 2.57472 -5.19364e-21)
(5.58873 -2.57886 2.46221e-22)
(6.20911 -0.403107 0)
(4.55681 0.658288 -1.14698e-20)
(2.74302 -1.99988 -5.61804e-21)
(6.91039 3.94774 -9.26181e-22)
(3.82487 -0.698921 1.35131e-20)
(7.20661 -0.221617 8.19046e-22)
(-4.24007 3.51792 7.19375e-21)
(5.97316 -0.269091 -3.87045e-21)
(9.89956 -0.106682 -5.88872e-21)
(5.45626 0.287258 -4.92998e-21)
(6.05884 -0.120729 0)
(6.00208 0.0277101 -3.45123e-21)
(3.20614 0.237686 7.96339e-20)
(-0.805777 0.720901 0)
(12.4342 -0.915675 0)
(3.57457 -0.323031 0)
(0.786478 -1.58185 0)
(6.07579 0.785552 0)
(3.63664 -0.627754 0)
(7.60001 -3.46989 -1.07707e-22)
(7.64645 2.49037 9.07027e-22)
(7.44889 1.07297 0)
(5.3154 0.792426 1.12543e-20)
(4.12029 -2.77873 6.33114e-21)
(6.14141 0.510895 6.89406e-23)
(-2.27744 8.69123 -2.70743e-21)
(3.64274 -0.00908555 1.41221e-23)
(1.80718 -1.1156 5.86254e-21)
(5.8385 0.00993225 -1.466e-21)
(8.13553 0.210615 1.10176e-22)
(6.01997 0.750249 -3.1202e-21)
(5.67071 0.38413 -6.89596e-21)
(5.70396 2.61043 -4.44119e-21)
(9.39413 3.34722 0)
(-8.02407 0.747019 9.86927e-21)
(4.08989 -1.23437 -1.04936e-20)
(6.01448 0.0217531 -1.03283e-20)
(8.12768 -1.3807 1.0627e-20)
(6.96677 -0.0150823 5.59117e-22)
(9.70465 -0.281487 -1.39742e-20)
(6.61146 -0.57475 -1.33508e-22)
(6.75258 -1.31615 3.19018e-22)
(6.01783 0.409098 3.28095e-21)
(5.9943 4.33325 0)
(5.91377 -2.07991 -8.54097e-23)
(5.24503 0.0624499 -1.48594e-21)
(7.36839 1.27886 0)
(4.17817 -2.03448 0)
(6.34491 -2.78098 -9.73613e-23)
(-5.53617 3.8583 9.18272e-21)
(7.48928 -3.64897 -4.84632e-21)
(2.47589 0.010325 0)
(5.86655 -0.189877 -5.5094e-21)
(5.48285 0.447128 -1.33327e-21)
(-7.30684 2.57122 1.06439e-20)
(8.71195 -0.582675 1.41992e-21)
(1.17883 -0.376208 0)
(-8.29028 0.755614 9.56067e-21)
(7.87881 -1.13798 0)
(7.42273 -2.18838 8.8882e-22)
(5.96829 -0.457595 -2.93613e-21)
(6.00356 0.0209888 -1.48755e-24)
(6.76548 1.85074 -5.37498e-21)
(7.54948 3.35939 -4.52066e-22)
(5.59729 -1.48037 4.66983e-21)
(-7.57526 3.10699 0)
(4.96136 -6.279 -3.3857e-20)
(3.95019 -4.40355 0)
(7.60235 1.07111 5.48127e-23)
(-7.87711 3.01779 2.08442e-20)
(14.0416 -1.19576 1.47207e-20)
(2.97606 -2.25566 -3.83263e-21)
(-2.93817 6.43281 -2.33785e-20)
(5.08125 -2.35752 -2.84375e-22)
(4.21016 -1.24125 -5.93156e-21)
(3.0634 6.8865 1.44238e-21)
(6.28908 -6.74611 2.76869e-20)
(3.84693 -1.66408 4.32466e-21)
(4.37922 -1.31196 6.22523e-21)
(-2.90546 -1.0456 2.18992e-20)
(7.46533 -5.34034 -1.60197e-20)
(6.00525 -1.68586 1.36896e-21)
(-3.04391 -1.40492 1.52331e-20)
(6.89709 -0.0967368 2.76492e-22)
(4.32851 -3.1431 -5.26787e-21)
(6.76287 1.18917 -1.51817e-21)
(7.56627 -0.924503 0)
(0.515797 -1.19623 -8.73654e-21)
(6.26983 -0.0268116 -5.53662e-21)
(5.97637 0.250093 0)
(7.53755 1.01458 0)
(3.11968 -7.99958 -1.50548e-20)
(10.4425 1.11713 -5.05194e-21)
(7.05575 0.656553 -3.07198e-21)
(6.51054 -0.855671 1.54237e-21)
(5.68745 2.53093 3.96477e-21)
(4.7865 -0.0946645 3.13413e-21)
(-7.27755 3.67841 -9.26175e-22)
(5.3243 1.59093 0)
(4.49736 -1.40683 5.7566e-21)
(-2.19785 -1.199 2.66553e-21)
(-3.24934 6.03537 1.80823e-20)
(5.62147 -2.02614 6.03652e-22)
(7.22486 -3.25088 4.17189e-21)
(5.71343 -0.0438037 1.65074e-21)
(3.28477 -2.45247 7.75265e-22)
(8.59052 -1.35735 4.33972e-21)
(-6.68605 3.66752 -1.26725e-20)
(7.00053 0.629142 2.3316e-21)
(5.88171 0.071292 2.55438e-21)
(3.73113 -0.81981 -5.5452e-21)
(5.84007 -0.267298 3.31844e-21)
(5.45286 -1.95292 0)
(6.98768 1.08303 2.72e-21)
(5.96586 0.0594819 5.70267e-22)
(4.73098 -0.97018 -1.891e-21)
(5.4355 4.54042 -9.56938e-22)
(5.90943 -1.65884 1.3074e-21)
(6.1061 0.0259954 1.01985e-21)
(4.30516 0.190424 -8.42486e-21)
(7.54595 0.906543 0)
(2.79874 -2.29204 -7.93895e-21)
(6.51653 0.250382 3.13666e-21)
(6.74315 -0.785723 0)
(4.45047 -0.0842698 4.69241e-21)
(8.57568 -0.593491 0)
(4.69984 4.46974 7.3575e-21)
(7.49919 -0.0814247 0)
(5.90804 -2.37264 0)
(7.13861 -0.344908 1.28148e-21)
(6.99314 0.496966 1.9359e-21)
(8.37059 1.02613 -1.94369e-21)
(5.77963 0.286212 -3.15066e-21)
(4.55684 2.7195 -2.97964e-21)
(5.98418 0.172069 -1.41224e-21)
(6.13616 0.815838 0)
(1.03711 -4.17324 -1.21951e-21)
(7.25181 0.469605 -1.22211e-21)
(7.21497 -2.2683 -1.66574e-21)
(7.56691 -0.961984 0)
(8.23776 2.06524 1.35107e-21)
(6.07223 4.40134 -1.39856e-22)
(6.88674 -0.163536 1.35944e-21)
(1.24978 5.80725 0)
(-0.00461984 9.07889 7.83976e-21)
(6.08823 0.40928 0)
(8.66089 -1.12991 -2.04115e-21)
(-0.796533 0.569415 0)
(7.73947 -1.44145 0)
(8.0744 -6.41816 0)
(6.92106 -2.25238 0)
(2.30366 3.14234 -1.50063e-21)
(-3.94222 4.4011 -4.64209e-21)
(5.74748 -0.149186 -4.17617e-21)
(-8.94088 1.7568 -1.79437e-20)
(4.10574 -1.73033 0)
(-6.24616 1.33809 -1.37637e-20)
(-0.989068 0.917683 -1.42457e-20)
(5.20189 -2.40355 0)
(4.74944 -1.62528 -5.6665e-21)
(7.93459 10.3372 -4.68846e-21)
(6.72409 1.12846 3.96014e-21)
(9.16115 -2.09186 -8.01447e-21)
(5.6305 0.342531 0)
(7.57264 -1.74214 0)
(9.02329 1.02883 1.23868e-21)
(5.89437 -2.88958 5.79774e-23)
(1.61802 5.14319 -1.21317e-21)
(2.90305 -7.41187 9.12264e-22)
(5.99403 0.00182744 2.56444e-22)
(6.23202 0.701418 -1.87855e-22)
(6.02402 0.397925 4.66791e-21)
(3.62554 -2.76024 5.4988e-21)
(6.12492 -1.45915 0)
(4.47077 -0.0570935 0)
(6.81383 0.116976 0)
(8.2568 -2.19014 0)
(5.50581 -0.942456 2.16347e-21)
(8.4562 0.354629 0)
(0.401334 5.09531 1.35485e-20)
(6.89873 0.767316 7.90471e-22)
(4.29933 -1.35979 -9.48966e-21)
(4.33607 -2.71629 -3.35065e-21)
(-5.10183 3.42486 -9.38041e-21)
(0.456864 4.5317 -7.70938e-21)
(6.46465 0.10045 8.06704e-22)
(-5.85102 4.75185 -1.07062e-20)
(4.15044 -3.43108 1.20402e-20)
(7.40767 -0.292842 0)
(7.19749 -0.104719 0)
(5.25397 -2.85224 0)
(6.94841 -0.748884 -3.13426e-22)
(6.42478 -4.02946 0)
(5.4038 1.55098 0)
(6.0023 0.00416695 0)
(5.66366 -1.2272 1.96735e-21)
(6.1612 0.478952 -4.94811e-21)
(3.72712 0.620511 0)
(8.0099 -3.23873 -4.02763e-21)
(5.92088 0.420314 -4.11135e-21)
(7.02875 2.61882 1.99274e-21)
(5.25118 -2.37037 2.38223e-21)
(5.57579 1.75429 4.88573e-23)
(5.8144 -3.27174 -6.02626e-23)
(4.4511 -2.3649 6.42873e-22)
(6.03648 -2.52789 -7.17816e-22)
(6.9183 0.530012 -2.59991e-21)
(2.80241 5.80887 -7.79008e-22)
(5.56721 0.117118 -4.5417e-21)
(6.34444 -0.00565716 0)
(4.69076 2.63564 1.97287e-21)
(5.92541 0.0893401 4.76068e-21)
(1.56431 -2.37368 -6.45149e-21)
(6.57753 -0.553512 -4.99056e-22)
(3.50926 -0.698183 -9.59684e-21)
(6.96823 0.44296 4.35874e-22)
(8.69155 1.49321 2.40013e-21)
(5.9926 0.155372 0)
(5.99045 -2.42294 -6.18343e-22)
(3.07008 -0.54301 -3.29752e-22)
(6.49009 -2.62536 1.68848e-21)
(-7.38886 -0.152421 -3.52506e-20)
(6.0917 0.0349283 2.1638e-21)
(6.51941 0.391668 -1.43624e-22)
(6.96669 -0.194807 -6.19544e-22)
(6.7633 -0.0475169 0)
(3.77064 -1.63942 0)
(4.87931 -2.29592 3.55272e-21)
(-1.65039 2.41303 6.91783e-21)
(2.62993 0.257256 -1.25698e-22)
(5.93112 0.0873042 9.4092e-21)
(6.07632 -2.64291 2.18895e-21)
(4.54008 0.561617 0)
(5.51348 0.145204 0)
(5.11796 -1.07805 -1.22305e-22)
(6.89438 -0.174444 1.95669e-21)
(5.6954 1.65155 7.17793e-21)
(6.49395 -0.24746 0)
(6.41069 -0.199238 0)
(6.93867 -1.4726 -2.43714e-21)
(6.1451 -0.370494 2.54554e-21)
(3.6785 -4.5397 -1.10944e-20)
(5.60659 -0.354563 0)
(7.85097 -1.80304 3.05104e-21)
(9.29824 -3.07557 -2.02285e-21)
(-2.85948 7.81956 -7.91246e-21)
(6.08048 -0.0698048 -4.3209e-21)
(8.2233 1.4925 0)
(10.2082 1.09971 4.14273e-21)
(2.47735 5.37357 -2.65657e-20)
(2.50056 -1.73189 0)
(9.6175 0.054022 1.40889e-20)
(5.80029 0.19556 -3.1995e-21)
(4.40984 -0.761632 1.58083e-23)
(5.70831 -0.0667516 1.65707e-21)
(4.51124 4.5444 4.15888e-21)
(6.44496 0.0595852 0)
(3.48394 -1.26311 -1.10633e-22)
(5.76536 -2.37736 -2.21835e-21)
(2.89599 8.46389 -1.00918e-20)
(6.03776 0.759757 3.69482e-21)
(-6.05781 4.46611 3.8383e-21)
(6.03548 0.0377249 -9.98522e-21)
(9.73848 -0.578979 -2.17514e-21)
(3.69614 -3.20572 2.06853e-21)
(5.55758 -1.14089 0)
(4.35531 -0.315515 1.29253e-21)
(3.76924 -1.70827 3.4878e-21)
(6.54974 -0.108406 -3.09948e-21)
(5.97615 0.0587305 -4.22963e-21)
(8.42769 -1.22 1.68042e-21)
(5.24413 -0.519964 9.41919e-21)
(6.52123 -0.0982042 -3.15502e-22)
(5.46515 0.181612 2.70612e-21)
(4.17139 8.33857 -6.11895e-21)
(9.58261 0.919737 -4.44593e-21)
(6.89612 2.88608 1.53941e-21)
(3.37065 -0.0157995 2.71988e-20)
(5.88367 -0.0522737 0)
(5.42384 -2.72797 0)
(10.0575 1.64035 0)
(4.27396 -1.25212 7.42789e-21)
(6.06058 0.0459464 -6.7381e-21)
(5.44578 0.486649 0)
(4.84575 -1.00826 -5.36223e-21)
(5.43388 0.429546 0)
(5.52889 -0.837266 -3.54802e-21)
(7.13052 -2.33506 -2.1291e-21)
(6.03582 -1.35039 -1.65853e-21)
(6.54488 0.0573352 0)
(5.89805 0.0460174 0)
(6.50161 -0.781424 2.05334e-22)
(7.3754 0.926543 -4.39419e-23)
(8.3393 0.0293956 1.14442e-21)
(6.37905 4.63414 -2.9851e-22)
(6.16563 -0.0859146 0)
(5.65056 -1.96463 -9.40833e-22)
(-0.690616 0.674953 0)
(2.84099 1.96123 -5.41531e-21)
(7.61652 3.34078 0)
(6.57063 0.299288 2.98523e-22)
(3.80451 -0.586317 3.60984e-21)
(4.80928 -0.48369 3.2739e-21)
(6.0594 -0.564082 -3.62491e-22)
(7.3856 -0.526556 -7.8877e-20)
(6.07627 -0.46249 6.38456e-21)
(6.07947 0.800332 -7.72841e-23)
(9.92149 -0.0479314 1.71367e-20)
(6.32495 -1.08178 -6.41174e-22)
(-0.468905 0.585829 6.41217e-21)
(7.46415 1.4178 0)
(5.97988 0.0661418 -1.54521e-24)
(4.94165 -1.18603 0)
(3.593 -2.8758 -1.67845e-21)
(5.73017 -1.94611 -4.20729e-22)
(5.29454 -0.452728 -3.05487e-21)
(2.24241 0.197011 -4.87735e-23)
(7.72863 0.210157 1.41523e-22)
(5.21846 -0.201247 6.82669e-21)