/*--------------------------------*- C++ -*----------------------------------*\
| =========                 |                                                 |
| \\      /  F ield         | OpenFOAM: The Open Source CFD Toolbox           |
|  \\    /   O peration     | Version:  2306                                  |
|   \\  /    A nd           | Website:  www.openfoam.com                      |
|    \\/     M anipulation  |                                                 |
\*---------------------------------------------------------------------------*/
FoamFile
{
    version     2.0;
    format      ascii;
    arch        "LSB;label=32;scalar=64";
    class       volScalarField;
    location    "3.5";
    object      p;
}
// * * * * * * * * * * * * * * * * * * * * * * * * * * * * * * * * * * * * * //

dimensions      [0 2 -2 0 0 0 0];

internalField   nonuniform List<scalar> 
13486
(
2.36672
1.88317
0.164914
-0.276014
0.771707
-0.185935
0.355617
1.32484
1.60566
0.785991
-4.73038
0.398505
2.4906
-0.338197
0.612893
0.883248
-7.6324
-0.0504582
0.548418
2.13293
-0.233241
2.46128
1.8446
-0.992009
0.753435
-0.930728
-4.79363
-0.631849
0.00448433
-0.494996
-0.172162
0.444389
-1.26672
-0.362416
1.32859
0.0171115
0.0510171
1.92506
0.00325302
1.60805
0.194512
2.58431
0.0420611
0.76035
0.721456
0.378387
-10.5003
0.00623902
0.046963
-0.71104
1.3701
-0.0243978
0.232919
1.95971
-0.0895844
0.834115
0.0872291
-0.0262246
-1.21774
0.0736937
-2.93641
0.0722426
-3.53736
-0.218998
-0.466561
0.054479
-0.293579
2.36954
1.59551
0.022636
-0.29381
-0.0836881
1.61796
-5.57782
0.0613467
0.0838391
0.0558701
0.598859
-11.915
-0.0974954
0.00920735
1.90385
-3.94431
0.185841
2.37621
0.809025
-0.0137724
1.29485
1.55578
0.865567
0.292623
1.15308
2.26844
2.0272
1.66349
0.00736589
-4.44777
-0.292434
1.5822
-8.23331
0.0260601
-0.246571
-0.296627
-0.0208452
1.01939
-8.58882
1.57506
-0.000332246
-11.6581
1.0341
1.53389
0.365219
1.95877
0.0673829
2.78441
1.60617
0.752586
-0.335803
1.63058
0.0404553
-0.069369
-2.94735
1.73989
-0.00221087
1.53131
-0.0164115
1.14305
0.366213
-0.29189
-0.413203
-0.015448
-9.98517
-4.50112
-5.20729
1.43994
1.2507
2.79793
1.07727
0.0420814
1.36856
-1.07738
0.216762
0.433097
-0.0951156
0.0645178
-2.85715
0.0847659
1.70862
-0.779077
0.00265671
0.89741
0.57074
0.0122598
1.94349
0.423235
0.160928
0.848761
0.0578894
1.74666
0.113824
-0.556089
1.74756
0.223258
2.577
-0.0257971
-0.599678
-0.0869708
3.21793
0.0951475
-5.21049
-4.16099
0.439582
1.06998
0.855905
0.00710478
-0.490231
-0.595703
-1.30916
1.58287
0.447562
1.50852
0.0668222
0.685064
-0.510117
0.203929
-0.638586
0.000976574
-0.471813
0.264623
1.68854
0.0494998
0.124886
-0.0404925
2.01761
-0.062875
-4.83198
-0.423501
-0.578499
2.12298
-0.507575
-0.181555
0.347009
1.92904
0.611573
0.10916
-0.0691959
-0.0216654
1.73541
-0.0365323
0.201316
-0.542048
-0.658853
2.10512
1.57829
-0.187256
-0.239158
-0.527289
0.894352
2.14919
-2.14285
-7.93125
-0.80197
1.4044
-0.590097
0.037253
2.30455
-0.488712
-0.305343
-0.182961
0.019006
1.49074
-0.189258
-1.1219
2.6357
-0.28362
2.21284
-0.4
0.120423
2.23595
0.712468
-1.22313
1.05047
0.0751404
2.10508
0.0277557
1.80775
0.73901
-0.69534
-5.69753
0.865904
-0.317847
2.81662
1.55203
-0.00500477
-0.126553
-0.57375
0.425821
-0.232135
0.0924178
-1.13884
1.72282
0.0330731
0.601034
-0.535716
0.858982
-0.544313
-0.185331
-0.201258
1.52511
-0.328812
1.5466
1.5413
-0.547448
0.282033
2.30833
-0.663507
-0.126088
-0.192973
-0.0165173
0.0674029
-0.204622
1.32681
1.59135
-1.64283
-2.3877
-7.87951
-1.11356
-0.311831
0.0563123
1.53719
-0.27777
0.072403
1.66253
1.45781
-0.380238
-0.428236
-0.550132
0.275991
1.62903
0.298438
0.204353
-0.0327961
0.0894112
0.475868
0.0414906
0.639996
-0.221
0.777329
0.0138095
0.0450492
-4.90426
-0.270066
-0.316221
0.365168
-3.14086
1.27862
0.074539
1.5583
1.74129
-0.221
0.0541128
0.0573848
1.568
2.03775
2.75839
0.323123
1.01344
1.2984
0.213346
0.938164
1.30634
1.10182
0.249076
2.17256
0.344822
1.57079
2.88013
0.608384
0.958518
0.0405409
-0.202825
2.01594
0.903718
0.704697
-0.565099
0.00692872
1.07295
2.7781
-2.14339
0.0699382
1.03641
0.224395
0.271166
-3.66242
1.61629
0.021172
-5.53186
1.11841
0.02659
-0.645017
0.56689
0.234482
1.75377
1.54425
-0.518934
0.00158188
-0.408181
-8.20831
2.15451
1.13091
0.0409927
1.09016
0.0176245
-0.328245
-0.174775
1.40127
1.59719
0.0573735
-2.95642
-3.41325
1.50159
1.06807
2.49812
1.64346
-8.88074
-0.139992
0.113717
0.933542
-6.12592
-0.119905
2.07037
-0.605703
0.655213
2.25607
2.32189
0.0423767
-0.285005
-0.311678
-6.57358
-1.13584
-6.2519
0.317927
1.41901
-0.288601
0.392224
-0.613825
1.99645
-1.24363
1.14901
1.77219
0.916458
-1.29091
-0.678831
1.63216
1.58836
1.9421
-0.412919
0.883236
-4.00956
0.739214
1.57949
0.216347
2.78835
1.0041
-0.53644
-0.446821
0.329413
1.59234
-5.16792
0.0174661
2.44114
1.42278
0.639899
0.0353433
0.70858
-0.793661
2.48589
0.0665856
0.899246
2.33034
-8.46563
-0.56608
-5.28777
-0.684387
0.0848041
1.88258
1.82714
2.45584
-3.44468
0.0423332
-0.636645
0.976479
1.58764
-0.696121
-1.44949
1.56647
-0.274919
-0.507209
-1.62587
-2.65759
-0.186444
1.99148
0.0062167
0.0503517
-0.253807
1.5014
0.00476486
3.05089
2.29359
1.61748
1.27209
0.0226222
0.00575153
2.86273
-0.140646
0.0420883
-0.521624
1.58514
-8.32517
0.256667
1.09911
0.0320866
-0.741799
1.82285
-1.79837
-6.9352
1.02043
-0.131368
3.20615
1.03847
1.38305
1.72154
-0.501616
0.208783
2.57185
0.771726
2.05183
0.350556
0.431677
-0.216107
-0.0866566
0.0364354
-9.30977
1.61894
1.57092
-0.327355
0.00258928
-0.230431
2.34594
1.88777
-0.138409
1.6009
1.17002
-0.717808
0.859738
1.41047
-4.01012
2.457
0.0469859
0.0255336
2.56663
1.07939
0.00735249
1.05645
-0.23797
-0.281855
0.646253
0.986546
1.76577
2.27393
-1.34369
0.702671
-1.45322
0.00859573
2.2089
0.427953
-0.441249
-0.29982
0.202154
0.0967705
1.28081
-0.441529
-1.37372
1.60563
2.14931
-0.118601
1.71924
-3.10033
-0.360365
-1.90656
0.646658
-0.861322
1.74912
0.212355
-2.49521
1.35444
1.86738
-1.11732
-1.15145
1.38714
2.21606
0.467012
2.38686
0.19702
1.04591
0.353592
1.76116
0.0601476
2.15605
-4.02885
0.295323
1.52597
-0.267107
-0.626177
1.55579
-7.93455
0.284495
1.79069
2.45552
-0.275626
0.100356
0.404991
0.113469
1.42701
1.09203
0.506525
-3.49704
0.0447545
2.34849
0.258581
0.0786896
-0.850089
2.47141
-0.30239
0.0688246
1.53262
1.25274
-0.0852487
-0.472596
1.34685
0.205958
-0.0587116
0.608964
-1.58168
2.39739
1.56996
1.1097
1.14771
-1.24587
-1.13881
2.69455
0.468876
2.70077
-0.288254
1.53897
0.0192238
-5.60705
0.946004
0.861436
2.82671
-0.566707
1.02423
0.976838
-2.2872
0.820741
-0.0244062
-0.737683
1.5519
-1.05769
-0.601607
-0.803244
-0.355186
-0.281995
1.7093
0.0093773
2.61722
1.58777
0.103587
-0.33608
-0.532796
0.504741
-2.70717
-0.450409
-8.85553
2.19496
0.00265588
0.085771
-0.954037
2.50569
0.000886318
0.193934
2.56267
1.38792
-0.34609
-0.106011
1.12402
0.147675
1.51367
0.0704882
-0.321363
0.598745
1.45044
0.459753
1.30339
2.59971
0.0671169
-0.389936
1.55774
0.216837
-0.222032
1.08361
1.16622
0.670454
-0.387858
0.209828
0.0514702
0.208405
2.20555
0.479218
0.200509
0.194574
0.105305
-0.0852768
1.58108
0.103722
1.48011
1.50538
2.18022
-0.0686978
-1.37712
2.68024
0.0288726
-0.276882
1.66669
-0.83556
1.78266
0.0653591
1.52994
-0.285315
-5.5668
-0.793953
0.00478434
-7.24504
0.822142
2.75817
-0.270928
-2.32306
-0.559243
1.61971
-0.311718
0.682275
-1.2839
2.72751
-0.35932
0.841971
-0.742976
0.896611
1.57006
0.529944
-3.2001
-0.194012
2.5374
1.60759
0.669628
1.42879
0.0938398
1.24522
1.26013
0.909108
-4.95905
-0.122318
1.97787
0.35787
-0.0243565
1.31235
-0.283324
-0.261664
0.00578068
1.71371
1.67512
-0.33884
0.207194
-0.318425
-0.210545
0.216502
-0.272974
0.24489
1.52271
-0.143817
-1.63185
1.84899
-0.0530696
-0.343733
-0.181101
-0.688833
-0.331696
-0.723392
0.0425334
-0.67835
1.50318
2.48745
0.0428069
-0.344171
2.56935
2.41123
-0.262162
-0.44109
1.63324
-7.92317
0.0772377
-0.268055
0.0370991
0.874281
-6.99492
0.731391
1.05601
-0.61193
-0.231961
-1.13242
-0.175043
1.36609
0.629918
1.01781
-0.35515
1.32613
2.36163
-10.5425
-0.622667
1.77196
0.540667
1.031
0.00955362
-0.480883
-0.359078
-0.133439
1.61315
2.7077
1.74426
-1.47401
-0.167175
1.57444
2.29858
-0.47574
1.69032
1.56317
2.39809
0.386632
0.0416841
0.237079
-0.217157
2.39047
0.212354
-0.207754
1.09465
-0.12551
0.396021
-0.105847
-1.32067
1.49323
1.12177
1.08513
0.732642
-7.87908
-0.327406
-0.250319
0.88141
-1.6709
-0.94101
0.0650786
-0.980073
-2.44279
0.818131
-0.492144
-5.66759
-5.12401
-0.305987
1.16489
-5.60044
-0.486784
1.77759
-0.250483
2.46488
-0.307193
-5.74198
1.86765
2.22372
0.0632941
0.0731278
0.348937
1.61499
0.888399
-2.46756
-0.0714601
0.0442147
-0.223709
1.53853
0.0789974
0.911714
0.0562471
1.58894
-5.46869
0.0623812
0.0202592
1.92616
-0.892075
-4.00483
-0.811267
2.44206
-0.283265
-0.40392
-5.82757
1.56665
-0.387409
0.0623925
0.372476
0.74829
-0.733542
1.08613
-0.462499
1.26263
1.55419
1.83275
0.702341
0.0282607
-0.305829
1.18318
-0.64643
1.89584
1.04165
-0.106779
-0.00526439
-0.152217
-0.074695
0.0419288
1.7892
0.632313
0.227372
1.56373
-0.0600093
1.26373
2.79587
-0.101991
-1.88026
1.07122
-0.219649
0.00769238
-0.166833
-0.251046
1.56763
0.0726969
0.0295571
0.055389
-0.100811
2.02081
-0.323551
0.00568806
1.57131
-0.309162
2.24055
1.81143
2.1114
0.413248
0.950151
0.475707
0.127546
1.17616
1.55368
-0.226364
-0.272298
-5.70287
-0.427446
-0.849391
1.57827
-2.24739
-1.20318
-0.963459
-0.21949
0.0285889
1.57947
0.0271914
0.277789
-5.18652
1.59234
2.75494
-0.417241
-2.55257
0.865758
-0.0404864
1.54014
0.107374
0.0222106
1.90358
-0.0369552
2.60786
1.09509
1.55991
-0.477518
2.05432
0.0777858
1.8226
0.049886
-1.15651
-0.596258
-0.612927
1.07056
-0.321737
-0.118094
2.45757
1.59386
1.69791
2.23834
1.7327
1.92125
-0.242889
1.64785
1.60626
1.6209
-0.230411
-0.477762
-0.723625
-1.60999
0.387931
1.77086
-5.68703
2.38696
-1.62471
0.0686527
2.68645
2.26125
-0.267236
-0.692468
1.59629
0.797208
0.0678726
1.48465
-5.7289
-0.635394
1.55773
2.18675
0.0202755
1.74211
2.03338
0.00148955
-0.543513
2.04266
0.702665
0.0440662
-2.46146
0.182424
-1.25887
1.46129
1.06489
0.0590229
-0.111131
-0.546574
0.397896
0.00230664
0.386631
2.3096
-0.0138066
2.99107
1.5873
0.525141
1.78016
-0.360127
-4.9642
-0.369109
1.56778
0.0133886
-4.85479
-0.173472
0.773808
0.901585
0.0431796
1.11502
-6.48807
0.813396
-0.404807
0.0605118
1.27237
0.48275
2.05166
1.60672
1.64962
1.52475
-0.269299
-1.01984
-0.898734
0.194562
-0.300492
-0.310515
1.24847
-0.226857
0.024972
0.0676187
0.171607
-1.30277
1.11591
0.710409
0.133743
-0.567563
0.761773
-0.792401
-0.840435
0.213579
-0.269125
1.73932
1.16784
2.02377
-5.29781
1.42472
0.0604841
2.20851
-0.290075
0.816715
-0.171442
-0.209035
2.56355
2.64696
1.31671
0.853145
1.06272
1.44795
2.59132
1.07715
-1.13464
-1.10289
0.319857
-1.60019
-8.06683
1.58492
1.53765
-0.787791
0.40567
1.31543
1.44459
2.82097
-2.53245
1.22995
-6.73237
-0.332147
2.26503
-0.14842
1.31489
-0.223562
0.498846
0.62209
2.94328
0.0804495
-0.71984
0.790209
0.237341
-0.738194
-5.62723
-0.05024
1.7493
0.118973
0.861689
2.40898
2.21636
-0.0824988
-2.99913
0.0910135
0.250994
1.84703
1.51033
2.19439
0.958915
-5.52814
2.30207
1.43134
-2.22617
1.21066
1.60825
1.98614
-2.39901
-0.218574
0.00219741
1.33508
2.52629
0.848814
0.136232
-1.23887
2.83434
-9.25574
-1.0767
2.63519
1.3847
-1.90893
1.2628
-0.286181
0.871272
-0.361455
-8.85073
0.0384145
-0.394509
0.0800366
-0.292919
-7.97871
-7.25511
-5.08093
0.200671
-6.38179
-0.311595
1.2509
1.45172
0.816633
-7.16131
0.405611
0.21553
-0.275645
2.97615
1.03822
-0.8182
1.37978
-0.369126
-0.418138
1.29023
1.2779
1.53583
3.01359
0.00323793
-0.144979
-0.984773
0.204481
1.07164
1.53956
-0.613499
2.32708
1.06073
1.67034
-0.219027
-0.0737203
0.0884801
1.63332
1.57837
1.6862
1.5689
2.76364
2.70497
-0.380878
1.3902
2.01312
-0.789304
2.18584
0.0069573
2.67325
2.16461
0.074256
1.78709
0.75739
1.20064
0.11366
1.59068
-1.00013
1.38278
0.57692
1.05615
-0.1748
1.54087
0.0103056
0.37679
2.5825
2.57555
1.05108
-5.34939
0.408045
0.0768816
-0.133552
1.26101
2.31159
-5.43238
1.62245
1.51113
0.773594
1.62439
-0.605247
-0.228898
0.0634198
2.80947
0.462287
0.100956
1.80978
-0.173048
0.0848735
0.794086
0.313255
1.19437
0.615828
-0.487348
0.945998
1.26253
1.03581
1.17597
2.73062
2.23732
1.95918
1.88346
2.52622
0.754796
-0.00320905
-0.0555298
-1.8894
2.5541
-0.230315
1.57727
1.41694
-0.361123
0.824227
1.74667
-0.676079
0.790718
0.966952
3.05117
-3.34885
0.697971
-1.59924
1.79784
0.166124
-0.283106
2.51116
2.13973
1.5257
1.56137
-0.409461
0.731881
-9.63026
2.69936
0.0495388
2.92174
-0.151843
0.092135
-5.61207
0.830834
-5.59741
0.229521
-0.0252362
0.568944
-0.0560338
0.529749
-0.298284
0.00379031
-0.269673
-5.19327
-0.650254
-2.65785
-0.0136226
-0.0751059
-0.248682
-2.42505
1.6082
1.63985
1.99075
1.55526
0.635251
0.615822
3.21841
1.53987
-5.95941
0.00929421
-0.157143
1.20103
1.39373
2.33167
-1.14001
-1.11261
1.27638
0.00263582
0.417791
1.96825
-5.44781
-0.47841
-9.45836
2.73036
-0.289052
1.10262
2.01652
-0.212611
1.24846
0.0136878
-3.09661
-2.17043
0.103832
1.04774
1.87451
1.9783
-2.56422
-5.24807
1.02863
-12.3888
-0.493284
-0.271677
0.279245
-0.3454
0.0255213
-0.302898
-2.99575
-1.00306
2.42066
-0.241707
2.64641
-0.904925
-0.192123
0.596617
-0.465443
2.23503
1.54016
1.84778
-0.127263
-0.36627
-3.55561
2.1487
-5.17872
1.14647
0.0473444
1.89129
2.23158
0.0392855
1.56088
2.53877
1.73222
1.6997
-3.41248
-0.108616
0.655643
-0.790762
-0.0157933
0.950911
1.11251
0.17026
-4.93515
0.387293
0.0965527
1.36749
1.16047
-0.571626
2.6644
0.198974
0.00412037
0.22647
1.54436
-0.43162
0.0132274
1.71337
-0.866368
0.149326
-0.295867
1.66068
1.547
1.47967
0.0312902
1.47497
1.81595
1.77799
-0.369892
0.0745171
0.338384
1.36287
-1.19408
-4.07173
-0.39116
-2.01419
-0.284556
0.030978
-0.0141946
0.0664372
-5.81697
-0.81729
-1.50512
0.100761
-0.366275
0.58083
-0.92847
1.67194
3.2385
0.521858
-0.268404
0.69415
0.167897
0.410015
0.0316577
-0.46199
-0.882653
0.217985
2.07957
0.00659951
2.49337
0.0274575
1.47311
1.28862
0.69251
-5.67282
0.900213
2.75444
-0.252083
1.57467
1.51437
2.32174
0.216195
2.131
1.68596
-5.7035
1.79466
-3.69958
-10.2371
2.17657
1.38813
-2.41154
-0.056212
2.04154
0.156476
-0.571624
0.0646685
0.0646814
1.20273
0.849743
1.57072
1.47079
1.3513
-3.24877
-0.654117
-0.341631
1.53271
2.91668
-0.513689
-9.97431
-5.35806
1.5716
0.198211
0.20004
0.677911
0.0230764
1.22255
-0.222113
0.361008
2.4395
0.704216
-0.109684
-0.183709
-0.290337
-0.763217
-7.08953
-1.00815
-0.515548
1.86719
0.84379
-0.697008
2.53444
0.00887108
-2.58277
-0.285987
-10.158
1.70422
-4.93182
0.520754
1.57164
0.0529444
-0.379999
-0.195915
-6.15794
-0.271752
1.71032
-1.51929
0.019258
-9.28812
1.51453
1.69239
-0.2912
1.99632
1.8467
2.39892
2.46408
1.75312
0.279582
2.81222
-10.0485
1.53009
0.308962
-1.37017
1.90877
-0.358219
2.40674
0.735446
-1.65317
-5.10227
-8.18926
1.67849
-0.400935
-0.373391
0.121229
-1.40665
-0.0943288
0.969864
0.279188
1.14582
2.7277
-5.46209
-0.931557
-0.942369
1.63175
1.17489
-0.636423
3.19864
0.00869199
0.0936187
0.987251
-1.63019
1.50543
1.62185
1.81259
1.82149
-0.110304
0.850699
1.51294
0.367345
-0.269373
0.0173995
1.70318
1.76754
2.17081
-0.223696
0.163517
0.797452
0.955701
0.190164
-1.24088
1.29468
-0.257737
1.36844
1.6183
-7.41761
2.4857
-0.626481
2.70157
1.79373
-1.15403
0.00314411
0.0572135
0.558668
1.65355
-0.824376
2.13913
1.48709
0.802454
0.0543501
0.354926
-0.426496
0.800944
-8.38513
0.968055
-0.259282
1.52948
-3.78075
0.0348672
-0.326013
1.94425
2.25232
0.724846
-4.01271
0.76363
-0.0867538
0.19546
0.882031
-0.213766
-0.19362
2.64655
-0.850187
-0.179212
-0.948019
-8.92861
-0.0567488
1.61861
-7.97042
-0.283186
1.64432
1.00971
1.69181
-0.275501
0.716784
2.67489
-3.1275
1.50966
0.482798
-0.176059
0.548665
0.377084
-1.17533
2.7316
1.80309
-0.505297
2.6455
2.04946
1.92412
-12.3478
-3.93039
0.998282
-1.85863
-0.0360585
-2.70778
-1.66878
-2.56852
1.24471
0.607343
0.947564
1.05297
-0.203906
1.17955
1.53541
-7.73279
1.64082
0.980844
1.56426
-0.087206
0.0323481
-0.292821
-7.41948
-0.278998
-0.336449
1.51723
-1.42707
2.41031
-0.344942
1.51443
0.963615
0.0684082
0.278815
1.61832
0.705087
0.365433
1.41713
0.0679266
-0.0486908
2.27986
1.85089
-0.657843
-2.07643
0.0669532
1.38275
0.0161777
0.699404
-2.40322
0.0471542
-0.111697
0.0990692
1.37312
1.31508
0.0447952
0.695601
-0.0335715
0.0216173
-1.1068
1.93941
-0.297075
1.5376
0.0033244
1.35139
1.67281
0.891119
1.4634
0.11084
-0.30097
0.0742086
-4.3101
-0.364976
-0.615313
-0.610396
-0.100912
1.24889
-0.0486706
1.54051
-0.0692057
0.00592226
-2.48296
0.00725387
1.64241
-2.3942
1.53523
0.414203
-0.865019
-0.11693
-0.291581
1.12381
1.65919
0.0237403
0.308106
-5.13716
1.84236
0.117406
0.471257
-0.515428
1.97812
0.778035
0.0293504
1.68051
1.63176
1.90989
0.233004
1.92751
-3.29278
0.101927
-0.206649
1.51583
1.00778
0.439089
0.173216
-1.19611
-0.632634
0.863722
0.151511
-0.751323
2.46259
-3.71986
1.87763
1.13825
-0.375324
-0.0127869
0.127235
-0.0593748
0.192087
0.247074
1.47104
0.0724357
1.56928
-2.58435
0.63419
-0.182347
0.382909
-1.2425
1.95572
2.68426
1.71795
0.879859
0.321829
1.00914
-5.41545
0.0260473
0.0571633
-0.12319
-0.694155
-1.31538
-1.19765
-0.6699
1.39995
1.54485
-3.4001
0.424408
1.77611
-0.679089
-2.0969
1.68484
-0.00889005
-3.21785
0.0498505
-0.263929
0.00489695
2.51108
0.0626323
1.5094
-1.56325
-0.937413
-0.654754
1.53646
0.406181
1.29907
-1.35931
-0.869765
0.130437
0.303923
1.81202
1.38617
0.286414
-0.177673
-0.376886
2.79109
-0.215241
1.78744
1.9535
-0.170777
-0.0301976
0.725192
-5.12444
-0.881369
1.36431
0.893699
1.51985
-0.403042
1.71204
0.199382
2.24544
0.309303
1.38367
1.98599
1.2972
0.266138
-0.365108
0.515584
-9.29934
1.35033
0.706688
1.90224
0.164713
2.39098
0.286723
2.54458
-0.872713
1.98031
-0.214379
1.18425
-3.46737
1.50093
0.760542
0.638168
2.3587
1.55236
0.369505
-0.656273
0.905117
1.48665
0.0092071
-6.69245
1.15576
0.114764
2.04463
-0.292742
2.43475
0.397265
3.25482
2.45468
1.14887
1.01325
-3.463
0.113442
2.61474
0.107521
-0.0453018
-0.0968994
2.5959
0.75879
1.34898
2.20575
-0.964341
1.70656
-0.276486
1.87241
0.0874047
1.76728
1.60045
2.17201
-0.0111765
-11.4611
0.477038
-0.287665
0.733181
0.246112
0.0992765
2.00281
2.29198
0.0304533
0.525322
-0.257995
2.04907
1.30066
1.44567
0.975033
-0.200228
-4.17988
-0.247158
1.60533
-2.57495
-0.0887676
0.0390129
1.11281
0.749075
-0.68164
2.76138
-0.12536
2.41018
0.460575
2.45675
-0.450239
0.353463
0.0679796
0.0838044
1.33871
1.54583
-0.516123
-0.093723
-0.658176
-0.0891454
2.27466
-0.530365
0.0407334
-0.173382
-0.111672
0.527367
1.92081
0.749638
0.101081
0.0475646
1.55952
2.92636
-0.284883
0.129636
1.53034
0.0287857
0.803475
0.0497762
1.11612
-0.0996754
-5.33303
-0.489542
-0.252696
-0.161265
0.0420794
-2.36262
-0.577187
-0.0468518
1.22083
1.67986
1.36651
2.83963
-3.42543
2.57668
-4.62423
2.42469
-0.845671
-1.05371
2.74333
0.639042
-0.348394
1.58921
-0.0115551
1.71508
-0.29908
-8.78244
0.292746
-0.619082
-0.706061
0.00831568
-0.13868
0.626207
1.94946
-1.04985
0.69752
-2.51816
0.381336
-0.147951
0.0166036
0.219621
-0.156307
-1.98914
2.0481
0.0389844
2.25967
0.602982
-2.70817
0.515389
-1.40683
0.0702462
1.35056
1.96901
2.85468
1.18349
1.3149
0.744148
-5.47277
2.75238
2.94131
1.70979
-0.935476
-0.39117
-9.38473
1.45707
1.03084
0.577433
1.24819
-0.191126
0.0227121
-7.10943
2.34935
0.0186047
0.201834
-0.293133
1.51249
0.296498
3.15707
2.95192
1.40323
0.0605635
0.430246
-3.74784
0.578092
3.03116
0.183337
0.0684111
1.15764
0.00583306
0.311802
-0.169497
-0.348425
0.368356
0.0867681
0.729632
0.0445086
0.492353
2.19633
0.476945
1.66744
-0.308537
-0.422363
2.65165
-1.89429
0.284861
0.406692
0.670785
0.189958
-0.297464
0.317332
0.106289
0.170905
3.18742
-5.77607
-3.08326
-0.803712
-1.13105
0.169977
0.402526
-0.288607
-2.35445
0.0291347
-3.45077
-1.30036
-0.7872
0.187861
0.147893
0.169641
3.10929
0.146843
0.472259
-0.164333
0.314671
-5.30577
-0.346959
2.14937
1.55049
0.482351
-0.126228
1.50956
1.67349
0.0457198
-1.13999
0.0625294
2.14101
-0.706335
1.46544
0.074564
2.41361
0.112093
-0.329291
-0.168831
1.70884
-0.564468
1.38818
-0.989974
2.9941
-0.292971
-0.312926
-5.5828
0.677913
-0.300674
-1.05225
-0.293656
0.242409
0.697955
-0.450822
-0.193976
-0.0657761
0.255063
-0.603782
-1.31422
1.27203
-10.7235
1.36683
-0.299745
1.72886
2.73766
1.4703
-5.54975
1.58584
0.220346
0.297147
-0.078766
-0.47459
-8.11605
0.0986463
-0.376001
0.679643
0.00185585
-1.21224
-0.0796377
-3.11277
0.808509
1.58884
-1.77617
-0.2922
-0.537596
0.0427418
-0.128625
0.937635
-3.44261
-0.297925
1.57845
-0.0936348
0.890424
-1.1019
-3.92726
-1.09746
-3.28415
3.12876
0.49675
-0.806202
0.384023
2.57407
2.65781
-0.354146
-0.287703
1.55466
0.0232771
0.0913711
2.6469
0.886603
1.38264
3.18174
-0.502541
0.463816
0.250408
2.35898
1.61922
1.62429
1.95711
1.10765
0.0547627
0.101551
0.729685
0.373839
-6.59731
2.71031
-0.859677
-0.944007
0.0441974
-0.596522
0.78305
-0.294726
-0.317225
0.361685
1.64217
1.69143
1.79888
-5.64726
2.31839
2.63865
-2.96482
0.994494
-0.110295
-0.133636
0.288325
0.912676
-0.0940446
-0.696366
-1.03207
2.93051
-4.13927
1.81883
1.57983
2.07743
1.18499
1.24918
-0.114517
0.0483156
0.918987
-0.021586
-10.1743
-2.3013
0.149492
-0.286617
1.93831
-0.434124
0.0464521
0.31394
-5.18353
-0.31234
-8.45898
1.4124
-0.281855
0.042338
0.741634
-0.971426
0.562131
-3.57025
-0.102273
1.69317
-2.73965
2.69885
0.0375727
2.8773
0.00482023
0.0548951
0.260722
1.37301
1.3483
-3.33582
-0.111954
-0.352886
0.24426
1.11333
3.19288
2.08429
0.538664
-0.674132
0.839866
-0.0987496
1.80075
-0.153767
0.921567
-0.250709
-0.290855
-4.99682
0.57
0.0520661
-5.12378
1.03051
1.0129
2.60722
2.80172
-7.16473
-7.8108
-0.44589
-1.47179
2.71765
0.172459
-0.721228
0.689837
1.13344
-0.249648
0.124501
0.0858576
-0.00781346
1.4381
-0.213762
0.470716
-0.693669
-1.05877
-2.91858
-0.434669
-2.92588
-2.60596
1.74265
-0.383608
-0.312468
-0.298411
-0.00440175
2.9748
1.16153
1.46884
-0.319225
0.813995
-0.0441493
0.656633
0.478469
-0.291391
-4.34231
2.70886
1.6667
-0.0112935
-5.87956
3.08678
-0.312684
-3.86647
-0.241923
0.810412
-0.303888
-0.241673
2.34809
-0.104952
1.45442
0.63465
-0.277258
0.15477
0.0569258
0.786187
-3.13757
0.0307592
0.478992
1.55109
-0.290199
-4.20954
0.148514
-0.42269
-1.71916
-1.53483
2.89697
1.03054
-0.863698
0.767789
0.406605
2.54369
0.898872
-4.83957
0.955268
1.9941
1.709
-0.628105
1.38632
-0.105634
2.68619
0.0487748
1.6017
-1.33259
-0.58612
0.0463889
-0.271913
0.939383
0.54007
-5.44214
-0.310099
1.85987
-0.0567217
-0.0805487
2.20119
1.2416
2.14258
1.46715
-0.914288
0.0228592
0.069976
1.56132
0.00318515
1.95341
1.22434
2.66614
-0.292774
2.0858
0.786911
2.6953
-0.273996
-0.962237
2.7587
-0.293294
1.19517
-4.81037
2.37119
2.65719
1.70094
-2.64028
1.55973
2.0382
-0.580895
0.664483
-0.322379
2.17641
-0.2946
-0.162206
-8.69519
-9.51509
2.00192
0.773044
-12.2282
0.830553
2.65444
-0.881243
-0.273296
-10.4672
-1.1302
1.3229
-0.171988
1.49703
1.47946
-12.435
2.98154
-0.0318778
2.2498
2.22926
0.135734
0.0246668
1.39792
-2.17095
-0.226015
1.38373
1.19049
-0.565009
1.48592
-0.252377
2.33815
1.70038
0.623662
0.0253628
1.74538
-0.170256
0.949053
2.08492
0.371323
0.0382815
2.02239
1.68509
-0.770022
-5.37459
1.20265
1.76351
2.6833
-5.51886
2.83477
2.7997
2.88309
-0.171087
1.96394
-1.00678
1.56772
2.11228
2.06098
1.74646
2.3134
3.15254
1.36296
-5.05502
0.171443
-4.28543
3.12162
0.859798
-0.102692
-0.295759
1.47135
2.33358
1.50885
0.549504
-0.0975904
2.32075
-2.84578
1.68445
-0.295935
0.725206
0.0207805
0.496646
1.0384
-0.426632
-0.402045
-0.104383
-0.40715
-0.185582
1.92509
-0.350643
0.219009
1.47232
-3.08077
0.978501
0.043352
-2.75985
-1.49745
-4.70169
2.21291
2.38456
-0.303373
0.59594
2.03167
1.82915
0.0298247
-0.749813
1.72458
-6.18897
2.17637
-2.45931
2.11896
0.981693
0.236091
1.97277
1.05557
2.06955
0.58416
0.734904
-0.56744
-5.5455
-5.51339
-0.0287941
2.03078
-1.06185
-0.287212
-1.0929
2.25211
2.04803
0.551174
1.17547
2.28309
-2.49077
1.50284
-0.113366
-0.660958
1.49686
-0.334354
-5.07453
-1.41978
-7.93725
-0.318502
-1.02909
-0.073076
-10.5181
-5.70684
1.29686
2.71815
2.97012
2.58008
-1.01663
1.70283
-1.65264
1.46123
2.2728
0.227554
1.99416
-1.1078
0.569123
-0.610025
-0.0856304
2.16932
-1.21343
1.78554
-6.8509
-0.401496
-8.99242
1.82026
1.77142
1.56658
-3.96502
1.49087
-0.194791
-12.0681
-11.4334
0.527536
2.72791
-3.16943
-0.313044
-0.303682
1.5338
1.50032
-0.0270449
0.986613
-5.59857
2.31646
2.09119
-0.264225
-0.323133
2.25739
-0.342375
-2.78312
0.0246066
2.06324
2.32192
-0.812173
1.12246
-0.243554
2.67042
-11.3615
-0.553928
-0.0851173
2.50363
0.0152542
-0.538873
-0.101454
2.15239
1.2429
2.13633
-0.139054
-2.80575
1.75049
3.08581
-5.80079
1.4151
-0.0255614
-11.8423
-0.0117934
0.587035
-0.289509
1.09554
-0.259935
1.0306
-0.191428
-0.73608
1.95616
2.34154
1.47838
-2.00581
-0.57015
1.82073
-5.80444
0.601615
-0.687334
0.791162
-9.03146
1.69352
1.82719
-0.0596139
1.71377
2.6325
-0.266787
1.28333
1.79186
-10.4912
0.961478
-0.569035
0.787785
0.58266
1.23651
0.00911922
0.547499
-0.228254
-3.45329
2.20014
0.640952
0.234644
-0.369805
-0.215207
1.62818
-7.52175
2.87042
-3.33637
-9.63191
-0.113517
2.00876
1.7815
2.10245
-5.64425
2.53351
-1.64548
1.24155
0.0904107
-3.50476
1.44753
0.72889
-0.268754
1.08318
-4.0573
1.27934
-7.5612
-0.359957
0.0119969
-2.18723
-2.6207
1.40685
2.60055
0.0700805
-1.19644
2.02289
-2.48321
2.36307
0.721442
0.0647226
0.850183
1.57935
0.830654
-0.134079
0.184517
-0.00195331
0.390826
0.573804
-3.77662
-0.319298
0.0980066
0.930261
-0.271957
3.1407
1.69727
1.55545
2.38675
0.254462
1.75859
-1.10312
-7.42392
-0.428371
1.56958
3.06005
1.46855
-1.08738
2.20403
1.48077
1.5045
0.0591438
-0.0540915
0.848174
2.88387
0.146501
-0.744348
2.12437
2.24893
1.65835
1.56103
1.91604
1.10911
-0.226165
-0.556928
1.72854
-5.73295
-5.34907
1.53195
-0.480229
-0.00125603
0.526269
1.70605
1.7678
1.79782
-0.172529
2.09969
2.14857
0.327763
1.88706
1.64996
1.30116
1.17755
1.0653
0.8147
-0.0326618
2.00803
1.87101
-0.136125
1.43559
-0.188683
0.0563914
2.57897
1.94678
0.0168058
-0.599908
-0.0102238
2.00239
1.13
0.293593
0.0210659
0.248259
-0.32644
0.31674
-0.281168
-0.214956
1.15607
-0.235909
-1.7757
-4.51244
2.43391
-0.281356
-4.13703
-0.348712
2.61304
-0.222732
0.35521
0.314033
-10.6199
1.2229
1.46741
0.995815
2.29578
1.2649
0.0453366
-4.8314
-0.484879
0.0281551
1.81931
-0.0499197
-1.12147
-11.5363
-0.346218
-4.09234
-0.329237
-3.20081
-0.202636
0.591611
1.54206
2.04341
-0.303347
-0.147382
2.30525
1.75284
-0.698951
-0.280175
-4.48281
0.972269
0.0763858
0.873214
1.33325
-0.0471908
-0.242426
-0.281415
0.416818
-1.39439
-5.38551
0.19592
-0.792509
-7.29652
-11.3721
-0.421135
0.189682
-5.01999
0.80943
-1.27166
1.54499
1.38691
0.430499
2.03239
-0.903525
2.61305
-0.614201
0.101939
-1.36307
1.56111
0.959873
-5.2648
-6.003
1.59693
1.89889
2.71033
-0.800817
-6.6809
-0.775692
-0.164006
0.00872836
-4.26425
0.580459
-7.50768
0.931953
-1.38059
1.2
0.196027
-0.0573969
2.37257
1.39533
-1.23698
0.031763
-1.83349
-5.33
2.03661
2.9716
-4.91551
1.92285
1.48309
0.00670366
-0.211781
1.97924
1.89383
-3.50432
-0.209408
-0.447308
-0.943373
-1.28797
-6.80239
-1.18466
1.0254
-0.205775
1.7279
-3.08599
-11.6661
1.46325
-1.18977
-9.13298
0.0858958
1.18488
-10.0729
-0.678177
-12.2316
-3.01009
-8.38656
2.75074
-6.57121
-0.258753
-1.48979
1.7149
-10.1251
-0.156547
-2.6332
-3.68714
-0.605372
1.78101
0.0163141
-4.54136
1.3694
0.0159432
-0.512795
-3.28127
-5.29534
1.12188
1.29444
1.57496
-9.11311
2.35194
-0.397263
0.00466178
0.132822
-2.64174
-0.593667
-4.97209
-1.21778
0.33303
0.676289
0.0385396
-0.353185
-1.13812
1.47576
-2.25314
1.64856
-2.78872
0.991109
-0.303642
-0.102826
-0.143144
3.10255
-0.280031
-11.0695
-6.05742
-0.956858
1.57093
0.065876
-0.166615
0.0777651
-10.7369
-0.668849
-5.56716
-6.28369
1.71396
-8.71929
0.241625
-12.0382
-0.0386914
1.37647
0.133204
0.71236
-0.509407
2.06339
-7.96564
-0.735744
2.20955
0.640797
-8.97541
-0.3539
-2.79435
-1.03891
-0.411717
2.01859
-0.367632
0.666788
-6.32279
-2.50996
-6.04746
-7.46729
-4.02308
0.933033
-0.25063
1.54686
0.586639
-2.07548
-0.393919
-0.702019
1.94034
2.33209
-11.1372
0.067392
1.6802
1.54735
1.23643
-0.9549
-1.76062
-1.87083
1.57238
0.459094
-1.02813
-3.85523
0.90417
1.86603
-0.283168
-0.0158064
0.0752516
2.18432
-1.73805
-1.90715
0.0464868
1.35193
0.067828
-0.126032
2.36711
1.95549
0.0410231
-1.03417
1.99307
0.778537
-0.113537
1.44915
-0.419668
-1.34606
-2.24012
-1.05867
1.91414
1.67634
-0.0985727
-0.691755
-0.262006
-0.026789
1.71892
-0.994533
1.18442
2.07862
2.22608
-0.302361
1.57567
1.38738
1.74122
1.8461
-0.19983
1.8595
0.0093585
1.5696
0.84793
1.70082
-0.40224
1.97788
1.88684
1.41243
1.02873
-0.649017
1.11625
0.105168
-0.818542
2.12679
2.09899
-0.695545
1.80314
-1.06515
-5.94861
1.70322
1.70436
-2.23734
-0.0844942
-6.82901
-0.917432
-1.44146
-0.31683
-2.26544
-0.441389
1.43888
2.86482
1.97873
-0.324615
-0.26079
1.67277
0.835068
-0.183887
-1.30794
-0.542503
-1.89346
-5.6008
-5.64417
1.49931
-0.570938
0.792845
0.0430878
0.0412023
-0.123877
0.0397707
0.344203
0.817675
1.0421
-0.589695
0.746391
-2.55593
-1.71598
1.10153
0.867338
-0.063997
0.157187
1.03665
-0.00965264
0.606958
-0.642474
1.54978
1.30934
2.50478
1.57096
-0.920162
-0.425597
-0.67748
-0.502504
0.0242968
0.0539752
-0.195977
-0.739815
2.92325
0.174177
-0.00550631
2.32742
-0.296618
-1.0363
-0.187393
-0.424079
-7.13752
0.47605
-1.45126
1.53201
-0.244752
-0.837392
-0.220742
-0.346828
-1.0141
-0.149424
0.0149042
1.22215
-0.29472
-0.318021
-1.57674
0.622547
-1.06768
1.69435
2.38818
-0.479757
1.7282
0.903674
1.14338
2.64027
-0.280601
0.952927
0.8364
0.728787
2.25411
-0.502422
-0.166966
-0.145399
1.67065
2.38523
-0.389285
-0.151988
-1.07424
-0.907539
0.809412
-0.704468
-2.26646
-0.526903
0.619763
-6.02195
0.389499
0.51122
1.37152
0.304816
-5.1546
-0.345617
0.0263862
-0.210827
2.54608
2.85871
2.11582
3.02919
1.38766
0.86843
1.77085
1.53592
1.41977
-0.857051
1.61657
-0.389078
-5.61806
2.33387
-0.239852
-1.10274
2.73983
0.0429845
-0.978155
0.842787
0.731972
1.92078
-6.51672
1.44841
2.52407
-0.290023
-5.81954
-1.94727
1.12349
-1.53775
2.02335
-0.131376
1.92486
1.56412
-0.315635
1.84496
-0.679892
-4.4771
-4.64321
-0.502793
1.89932
-0.97343
1.62006
-0.0214758
-5.22284
0.134396
-0.139681
-1.65966
-0.59385
-8.90754
1.93239