/*--------------------------------*- C++ -*----------------------------------*\
| =========                 |                                                 |
| \\      /  F ield         | OpenFOAM: The Open Source CFD Toolbox           |
|  \\    /   O peration     | Version:  2306                                  |
|   \\  /    A nd           | Website:  www.openfoam.com                      |
|    \\/     M anipulation  |                                                 |
\*---------------------------------------------------------------------------*/
FoamFile
{
    version     2.0;
    format      ascii;
    arch        "LSB;label=32;scalar=64";
    class       volVectorField;
    location    "3.5";
    object      U;
}
// * * * * * * * * * * * * * * * * * * * * * * * * * * * * * * * * * * * * * //

dimensions      [0 1 -1 0 0 0 0];

internalField   nonuniform List<vector> 
13486
(
(1.44352 -0.230764 5.75847e-19)
(1.69034 0.306342 2.67814e-19)
(2.24617 0.012573 0)
(0.61802 -0.303837 -9.20914e-20)
(2.31473 -0.552213 1.87578e-19)
(2.40463 0.110034 1.827e-20)
(2.53061 -0.469091 3.09295e-21)
(1.97731 -0.735611 -3.02173e-19)
(1.92476 -0.408868 0)
(2.05728 0.735857 0)
(0.323975 -2.27236 -8.61409e-19)
(2.51283 0.0112486 0)
(1.30585 -0.437989 -5.69229e-19)
(2.50086 0.652722 4.74017e-20)
(2.43125 -0.395164 1.00666e-19)
(2.01852 0.732308 -1.49803e-19)
(-2.12134 1.5786 1.27134e-18)
(1.50969 -0.516144 -2.12476e-20)
(2.29962 0.0105251 2.75163e-21)
(1.61578 -0.0524752 -5.82781e-19)
(1.34927 -0.667463 -3.47361e-20)
(1.32517 -0.451203 7.34561e-19)
(1.71206 0.306044 -2.14064e-19)
(2.23848 -0.717363 0)
(2.08293 0.591603 4.86328e-20)
(2.22724 -0.661473 -8.26455e-20)
(-1.94324 0.661546 9.27589e-19)
(2.31495 -0.0979087 2.82247e-19)
(2.03543 0.0148095 0)
(2.10943 -0.261375 -1.5064e-19)
(1.42181 -0.6726 -2.25309e-20)
(2.53516 -0.279645 -1.24345e-19)
(2.61867 -0.392349 2.70815e-19)
(2.0003 -0.0479926 0)
(1.9865 -0.710484 0)
(1.88291 -0.00557909 -3.29141e-21)
(1.98494 0.0703649 2.16144e-20)
(1.47527 -0.700238 2.90563e-19)
(1.84975 0.0760089 3.46447e-23)
(1.95309 -0.252394 2.93685e-19)
(2.34999 -0.809306 0)
(0.870956 -0.4345 -6.59733e-19)
(2.01338 0.000621134 0)
(2.08534 0.493533 -2.37035e-19)
(2.10901 0.495196 9.77036e-20)
(2.50965 0.0183213 8.57368e-20)
(1.45144 0.866985 3.25467e-18)
(2.03152 0.0181303 -1.05956e-21)
(1.98465 0.0664483 -1.62751e-20)
(2.52287 -0.0443666 1.53564e-19)
(2.00168 0.0322754 3.26432e-19)
(1.89013 0.0337314 0)
(2.67823 -0.00227601 -8.97218e-20)
(1.63919 -0.625379 -4.25224e-19)
(1.43915 -0.519219 0)
(2.28625 -0.557568 -1.26004e-19)
(2.06209 0.0775146 -1.58413e-20)
(1.86603 0.0425252 -6.95834e-21)
(2.60749 -0.381882 3.12008e-19)
(1.98686 0.0949405 0)
(0.663495 -2.26991 -6.01208e-19)
(1.98904 0.0895502 0)
(3.53344 -0.361621 -5.22261e-19)
(1.37338 -0.680784 -4.06369e-22)
(1.69635 -0.74292 0)
(1.98727 0.0722239 1.1433e-20)
(0.70377 -0.337055 -9.04928e-20)
(1.44203 0.0414582 1.94328e-19)
(1.92298 -0.429592 -1.68731e-19)
(1.91665 -0.000199844 -3.50967e-21)
(0.512459 -0.239519 1.03721e-19)
(1.5193 -0.537297 -2.37891e-21)
(1.94875 -0.121919 2.17609e-19)
(-0.860658 -0.297292 -7.8138e-19)
(1.99608 0.0709231 2.74065e-21)
(2.06323 0.0696891 3.63671e-21)
(2.00247 0.0750277 -8.13965e-21)
(2.43399 -0.415036 -4.11106e-20)
(1.56446 0.430205 -1.99495e-18)
(1.63038 -0.125979 0)
(2.02404 0.00104299 2.71885e-21)
(1.63479 0.399613 -1.69932e-20)
(3.66844 -0.571774 -2.65278e-20)
(2.28939 0.052609 -1.41251e-20)
(1.43649 -0.243939 -1.12744e-18)
(1.42182 1.65605 0)
(1.5757 0.532331 2.96328e-22)
(2.00289 0.0440814 -4.89675e-19)
(1.88063 0.204801 -2.16176e-19)
(1.9212 0.987793 -1.52535e-19)
(2.65923 -0.269143 -6.39482e-20)
(2.10197 -0.638025 -1.58595e-19)
(1.50436 -0.330735 1.48585e-19)
(1.65266 0.100224 1.51054e-20)
(1.83853 -0.595127 6.83072e-20)
(2.0288 0.0177419 5.80181e-22)
(-1.90228 0.611746 0)
(1.23108 -0.576731 4.53977e-20)
(1.96518 -0.250795 -5.6071e-19)
(-2.40847 1.82917 4.72318e-20)
(2.03764 0.00777047 0)
(2.46762 0.652023 1.40084e-20)
(1.29436 -0.615195 9.82814e-22)
(1.8715 0.0385376 7.80495e-21)
(1.38815 1.59957 0)
(-2.33956 1.6641 4.69112e-20)
(1.96694 0.0712229 9.54929e-22)
(1.83527 0.0759164 5.36886e-22)
(1.43342 0.748668 2.41436e-18)
(1.74065 -0.794176 0)
(1.23049 -0.593051 0)
(2.56051 -0.358952 -1.1261e-19)
(1.64569 -0.60669 3.06844e-21)
(2.07405 0.039122 1.15713e-21)
(1.0886 -0.0661213 0)
(1.17749 -0.584541 -2.55417e-19)
(2.08501 0.602203 0)
(2.05504 -0.0408034 0)
(1.93357 -0.118158 0)
(1.98369 0.0433118 9.88019e-21)
(1.47759 -0.526495 1.82542e-20)
(0.430887 -2.16715 0)
(1.81025 -0.54031 0)
(1.84084 0.0728358 8.5439e-22)
(1.88003 -0.683543 0)
(1.89267 0.0363855 0)
(2.18937 -0.290292 6.45027e-21)
(2.18658 0.0638402 8.42929e-20)
(1.92086 -0.0173476 -2.27229e-20)
(1.71129 -0.661715 -4.33812e-20)
(1.89216 0.0295217 -5.72455e-22)
(1.79539 0.780575 -8.3049e-19)
(1.23563 -0.079058 9.71273e-19)
(-0.439533 -0.0922016 1.04926e-18)
(2.00011 0.0172015 -5.36429e-20)
(1.91742 0.409474 -2.37184e-19)
(0.681388 0.728549 -1.6008e-19)
(1.76792 -0.793588 0)
(1.98625 0.043203 -3.10895e-21)
(2.00308 -0.599995 -1.08348e-19)
(2.60336 -0.212435 -2.99971e-19)
(2.70253 -0.045402 7.36645e-20)
(2.56397 -0.175672 0)
(1.64281 -0.115133 0)
(2.07033 0.00967867 4.99188e-21)
(3.10045 -1.0102 -7.33976e-19)
(2.30776 0.467855 -1.13502e-20)
(0.314167 1.66917 0)
(2.53028 -0.0743297 0)
(2.03114 0.0160101 0)
(2.00888 0.0198544 4.74139e-21)
(2.42815 -0.478696 0)
(2.03702 0.00410382 -2.85415e-21)
(1.61237 0.397598 -1.4427e-19)
(2.19281 0.268984 0)
(2.2283 0.0279087 0)
(1.53871 -0.705541 0)
(0.309153 -0.246535 -1.59026e-20)
(1.74291 -0.714983 6.06497e-19)
(2.05608 0.181877 3.54409e-20)
(2.45682 -0.0143447 9.46538e-20)
(1.74889 -0.6951 -9.2132e-19)
(2.41207 -0.300616 3.27008e-20)
(0.772495 -0.370282 2.89893e-19)
(1.87724 0.0328026 0)
(2.60589 0.60418 -9.86105e-20)
(2.41984 0.611726 -3.59672e-20)
(0.468812 -0.144775 -7.00389e-19)
(2.28771 0.45046 3.07102e-20)
(-0.455146 -0.194326 2.84352e-19)
(0.546002 -0.106641 -5.11663e-20)
(2.17863 0.239926 7.18336e-20)
(2.00596 0.07751 -3.85343e-19)
(2.34127 -0.227399 9.73238e-21)
(2.02667 0.0108385 7.20914e-22)
(1.25541 -0.921383 0)
(2.53307 0.967659 1.40908e-19)
(2.71825 -0.265209 4.29e-19)
(1.95747 0.0612429 -5.41133e-19)
(2.56106 -0.151483 0)
(1.99575 -0.305398 5.93826e-19)
(2.06923 0.0362974 2.27866e-21)
(2.41525 -0.201533 -4.65967e-21)
(0.124159 -0.198619 0)
(2.32693 0.148304 3.60692e-20)
(2.27316 -0.0924769 -1.2914e-19)
(2.04148 0.0134265 -4.80025e-22)
(2.12945 -0.156182 -4.82398e-20)
(2.39737 -0.798143 0)
(1.05353 -0.510087 -3.27759e-19)
(1.98141 0.0518074 0)
(2.13718 0.00457186 0)
(1.84789 0.0384128 0)
(1.33834 0.844452 -2.9716e-19)
(1.83469 0.0169551 0)
(-0.0740502 -2.13232 -1.8368e-19)
(1.69706 -0.689689 1.01242e-19)
(2.38814 -0.0285381 5.20577e-20)
(1.07931 -0.536285 -1.26105e-19)
(2.57779 0.575063 -4.80443e-20)
(1.41586 -0.676037 2.43914e-20)
(2.19299 0.0749582 -2.48727e-21)
(1.3448 -0.654567 -3.35798e-19)
(1.6154 -0.708814 5.21597e-20)
(2.04832 0.172246 -4.30613e-20)
(1.83864 0.0108856 -1.32111e-20)
(1.43418 -0.529517 -5.58363e-21)
(1.87895 -0.0475574 4.43086e-19)
(1.85067 0.0353317 0)
(2.31925 0.130005 0)
(2.25384 -0.0839814 1.8033e-19)
(2.0141 -0.662857 1.17281e-19)
(1.631 -0.034731 5.33365e-19)
(1.95568 0.0689415 1.10821e-21)
(2.41832 0.144842 -2.10499e-20)
(1.78445 -0.289506 1.44209e-20)
(2.1584 -0.239979 0)
(1.91528 0.977399 4.0936e-19)
(1.5823 -0.360596 0)
(3.16846 0.354748 0)
(-2.21215 1.65544 -2.34492e-18)
(2.54411 -0.0645188 0)
(1.98663 -0.594138 2.51933e-19)
(2.46934 -0.00963226 0)
(2.80133 0.0757547 -7.24381e-21)
(1.27078 -0.603642 2.04907e-19)
(2.54272 0.233897 -5.91771e-21)
(1.40795 -0.732788 1.83127e-20)
(1.80574 -0.160095 2.75241e-21)
(1.62225 0.470662 2.90653e-21)
(2.00958 -0.29768 -1.9071e-19)
(1.17473 -0.223704 5.02861e-20)
(2.60754 -0.25961 3.77499e-19)
(0.898699 -0.438379 2.25737e-19)
(1.40662 -0.687541 0)
(1.05464 -0.516691 2.42373e-20)
(2.07093 -0.109637 7.92745e-20)
(2.15071 0.00694989 -8.32826e-21)
(0.917573 -0.446242 6.5555e-19)
(2.40597 -0.119377 0)
(2.57453 -0.44176 0)
(2.00032 0.0623912 5.88834e-19)
(2.08382 0.0333712 0)
(0.919746 -0.459422 2.18826e-19)
(1.84118 0.123275 4.22547e-21)
(1.80923 0.0976394 0)
(2.33315 0.003849 -4.08784e-20)
(2.17497 -0.479649 2.72807e-19)
(0.545118 -0.296262 1.90157e-18)
(2.06669 0.46963 0)
(1.08841 -0.671625 -1.97583e-20)
(1.05403 -0.0365988 8.29331e-20)
(0.985315 -0.484488 3.23391e-19)
(1.8312 0.0697351 0)
(1.74762 -0.116864 1.29605e-20)
(1.21319 -1.02477 1.91307e-20)
(2.54434 -0.273479 9.80543e-20)
(1.77185 -0.292862 -1.8235e-20)
(0.214884 -0.202661 1.66908e-20)
(2.53696 -0.436322 1.92069e-19)
(1.78582 0.266257 0)
(1.84788 0.121155 -7.87473e-22)
(2.43507 -0.402685 -2.36499e-19)
(1.21499 -0.98216 -2.39069e-20)
(2.21093 -0.746904 -1.93122e-19)
(0.111378 -0.258639 0)
(1.82801 -0.152085 -3.5332e-20)
(1.42039 -0.684285 -3.53117e-20)
(2.01745 -0.0166987 -2.54504e-19)
(1.62625 -0.734419 0)
(1.58899 0.920991 2.03442e-19)
(1.96078 0.0663824 -1.46076e-19)
(2.16715 -0.254682 0)
(2.58805 0.0533463 6.2587e-20)
(1.19118 -0.57804 2.7155e-19)
(2.16328 -0.447234 -1.52045e-19)
(1.75938 -0.100118 0)
(1.52901 -0.542997 0)
(1.8172 0.0666758 -1.89921e-21)
(2.3836 0.480864 1.84084e-20)
(1.54429 -0.547696 4.93062e-20)
(2.10966 -0.213971 -2.16231e-19)
(1.93615 0.0825175 3.18854e-19)
(2.4549 -1.02797 -2.14584e-19)
(0.16951 -1.87426 5.6761e-19)
(-2.48598 1.0474 2.45733e-18)
(2.65286 -0.186598 3.50554e-19)
(1.88178 -0.0299685 2.98024e-20)
(2.79023 0.0806112 4.59022e-21)
(2.01051 -0.0202677 0)
(1.41172 -0.682021 0)
(1.94953 0.140951 -1.33169e-20)
(1.21343 -0.587366 2.50139e-19)
(1.99988 0.025284 -5.29614e-20)
(2.04333 -0.101193 7.38271e-20)
(2.09196 -0.128405 0)
(2.03473 -0.0352525 -1.20204e-19)
(2.54648 0.0721466 -4.98818e-20)
(1.92859 0.0759477 -2.93682e-19)
(2.51327 -0.583942 6.78499e-20)
(2.09675 -0.277124 -4.10746e-20)
(1.42043 -0.52866 6.60243e-22)
(2.35345 0.46684 -1.58566e-20)
(2.5211 -0.28029 1.17624e-19)
(1.97036 0.0460373 -3.52879e-21)
(1.31845 -0.606377 0)
(0.391573 -0.0839848 0)
(2.32533 -0.0201088 8.42421e-20)
(1.57669 0.394444 -3.08824e-21)
(1.98954 0.0596806 0)
(2.36782 1.50369 -1.84624e-18)
(0.49584 -0.249818 0)
(2.42819 0.967784 -3.43239e-20)
(2.56445 -0.352068 -1.1223e-19)
(2.32307 -2.14373 0)
(1.90713 0.402659 -1.44993e-19)
(1.96344 0.15051 1.97138e-20)
(1.87565 0.194766 -1.85165e-20)
(1.88104 -0.0410506 -4.86906e-19)
(1.84943 -0.17404 0)
(1.98827 0.0695424 -2.08135e-20)
(1.92916 0.129345 6.41563e-22)
(1.98504 0.0585635 6.81651e-20)
(1.63047 0.142874 -2.8178e-19)
(0.783171 0.700103 2.97325e-19)
(2.60529 -0.261981 1.15523e-19)
(2.2384 -0.400193 -6.02993e-19)
(2.1236 -0.213185 0)
(2.47041 0.174643 2.41391e-21)
(2.27514 -0.411409 -1.0971e-19)
(1.99995 0.0294393 7.10085e-19)
(2.12805 -0.641815 0)
(2.65552 -0.305299 -2.45449e-20)
(1.46883 0.388897 0)
(2.53361 -0.480875 -1.81336e-19)
(1.90623 -0.55862 -1.86627e-19)
(0.704754 -0.333628 2.69029e-19)
(2.40757 -0.493176 -1.61212e-19)
(2.0271 0.173408 0)
(1.85157 0.133016 1.07548e-20)
(1.83434 -0.170902 3.9445e-20)
(1.64085 0.155346 2.66073e-19)
(2.29016 -0.418822 4.2897e-19)
(2.41131 -0.208594 1.97015e-19)
(0.291777 -0.734373 -1.03895e-19)
(2.02358 0.0116546 -1.5893e-23)
(2.23946 -0.216819 0)
(1.04987 -0.382515 6.49862e-19)
(3.17001 0.338597 0)
(1.93788 0.146807 -6.39888e-22)
(2.25074 -0.113443 3.5584e-19)
(2.52394 0.147205 -4.84137e-20)
(2.58254 0.0536024 4.64099e-20)
(-1.63212 0.450477 -7.44179e-19)
(1.94179 0.073546 3.67002e-19)
(2.02595 0.0132313 0)
(-1.08177 -0.543168 -6.58896e-19)
(2.20081 -0.293325 -1.26803e-19)
(1.62752 0.360145 2.81219e-21)
(2.01684 -0.61802 1.10766e-19)
(2.47226 0.000115942 0)
(2.71426 -0.249233 6.12105e-20)
(1.81755 0.172619 5.63907e-19)
(1.95813 0.0820803 4.43314e-19)
(2.12767 -0.268965 0)
(2.04953 0.000769222 -2.03212e-22)
(2.07594 -0.123311 -7.44565e-20)
(2.06876 0.968159 3.93953e-19)
(1.59731 -0.0530213 7.40936e-20)
(2.20222 -0.256655 1.20535e-19)
(2.03986 0.0106385 -2.61384e-21)
(2.23525 -0.208206 0)
(2.79518 0.160215 -9.42208e-21)
(0.957197 -0.698333 1.93276e-20)
(2.42659 0.332871 3.98198e-20)
(1.99785 0.0276565 2.76173e-19)
(1.37077 0.0291569 0)
(1.9035 0.142446 1.92124e-20)
(2.46591 -1.90876 0)
(3.5481 0.744892 -3.52948e-19)
(2.03148 -0.0136185 0)
(2.11782 -0.726 -5.82569e-21)
(1.34192 -0.123653 -1.58676e-19)
(1.57484 0.850755 4.95246e-19)
(1.68006 1.1624 -1.61307e-18)
(1.78452 -0.108356 0)
(2.29976 0.0424357 -3.77834e-20)
(2.03438 0.184897 -1.50043e-19)
(-0.0937611 0.19832 -6.09096e-19)
(1.38635 -0.686582 3.02593e-21)
(1.65911 -0.0489433 -8.0491e-19)
(2.21832 -0.24881 8.09216e-20)
(2.09785 0.179904 9.97677e-20)
(1.48506 -0.470504 0)
(1.3945 0.315812 3.02677e-19)
(2.00256 0.0500086 9.47973e-21)
(0.591235 -0.289369 5.33812e-20)
(0.990438 -0.676915 -6.74447e-20)
(-0.820342 1.00616 -1.28459e-18)
(2.65322 -0.197077 0)
(-0.334974 0.562418 0)
(2.11054 1.127 0)
(2.06547 -0.0905362 0)
(0.647411 -0.171845 -3.52108e-20)
(2.52354 -0.452659 0)
(2.08669 1.12803 0)
(1.66935 0.122971 1.09815e-19)
(2.68536 -0.26832 -4.43701e-19)
(2.20875 -0.192505 -2.91585e-19)
(1.73048 0.356356 9.05527e-19)
(2.00473 0.0234795 -7.8079e-20)
(2.50588 1.6494 0)
(2.29729 -0.232488 0)
(1.91188 0.0883295 3.13249e-19)
(2.02421 0.0422927 5.53688e-20)
(1.35452 0.89724 0)
(0.257156 -0.217881 7.67627e-20)
(2.19386 -0.760294 2.17364e-19)
(-0.0266179 0.0518618 0)
(2.40197 -0.120414 1.93827e-19)
(1.9777 0.0619687 -3.61513e-19)
(0.95791 -0.326591 -3.64705e-20)
(1.04445 -0.367067 0)
(2.01188 0.186633 2.85314e-19)
(2.52914 0.095842 0)
(2.10359 -0.152695 0)
(2.21172 0.156588 -1.11091e-20)
(1.91628 0.0948271 1.6707e-19)
(-2.11983 0.794727 -1.21695e-18)
(2.37695 0.611789 4.93896e-21)
(1.36655 -0.360287 -2.81999e-19)
(2.06346 -0.0812085 3.75024e-20)
(2.10443 0.182652 7.72519e-20)
(2.78458 0.170854 1.62322e-20)
(2.28235 -0.743618 0)
(2.26044 -0.462329 1.52232e-19)
(1.35413 -0.0583357 0)
(1.93236 0.143809 -1.18257e-20)
(2.32108 -0.231837 0)
(1.4635 0.0595016 4.10614e-19)
(-0.362887 2.10287 -2.3325e-18)
(2.19555 -0.234812 0)
(-0.290575 0.247525 4.94918e-20)
(2.28297 -0.250176 -1.90309e-19)
(1.90027 0.368061 2.32716e-20)
(1.78253 -0.280023 7.71014e-19)
(1.46957 0.833575 -3.15135e-19)
(1.35565 -0.348943 -8.01474e-19)
(3.55418 0.693502 0)
(1.98815 0.0526751 -9.23303e-21)
(0.249433 -0.794012 -2.84307e-19)
(2.01849 0.193425 0)
(1.85465 0.231936 2.01611e-20)
(2.53388 -0.0422213 -3.19775e-20)
(2.85363 0.94258 0)
(2.00373 0.0207699 0)
(0.562765 -0.281122 0)
(1.29246 -0.934417 8.32226e-20)
(2.38512 -1.09006 2.57793e-19)
(3.00406 -0.989815 3.34448e-20)
(2.38593 0.92902 0)
(1.71409 -0.17496 5.23219e-19)
(2.0247 0.00478884 -1.85549e-21)
(2.36288 0.559694 5.07502e-22)
(1.11554 -0.554211 7.56038e-20)
(1.91729 0.1617 0)
(2.03326 0.0134201 0)
(0.780626 -0.133256 -4.41637e-19)
(1.46065 -0.46118 -1.9723e-19)
(1.95139 -0.198309 0)
(1.2644 -0.615675 -2.4295e-19)
(2.0821 0.015424 3.03368e-21)
(2.02892 0.012859 -8.15439e-22)
(0.794675 -0.374248 0)
(1.89948 0.00101199 2.30707e-20)
(1.98567 0.0368125 -8.90972e-21)
(2.52699 0.0819029 1.12355e-19)
(1.89264 -0.577564 0)
(-2.45058 1.17986 -3.81733e-18)
(2.54918 0.101775 5.44099e-20)
(2.00383 0.0915203 6.18212e-20)
(2.00737 0.000649106 -4.28824e-21)
(2.66336 0.561974 0)
(1.70429 0.34857 -2.41001e-19)
(3.02064 0.102521 -2.35736e-19)
(-1.29674 1.32236 2.67674e-19)
(2.00387 0.0624624 0)
(1.39239 -0.689742 -3.07899e-21)
(0.517978 -0.112482 0)
(2.0002 0.0505732 -2.36105e-19)
(1.98862 0.0745909 1.0828e-19)
(1.87101 0.0676186 -6.13585e-20)
(1.22303 -0.943508 0)
(2.19534 0.0302522 -2.50759e-20)
(1.12954 0.463375 8.2941e-19)
(2.25563 -0.738891 0)
(1.63831 0.100789 3.43428e-19)
(2.49004 -0.592842 -7.72399e-20)
(2.16976 -0.018287 0)
(1.41345 -0.689409 1.76692e-20)
(1.65333 -0.0920681 -2.08077e-20)
(2.05459 0.00958681 0)
(-2.26593 1.43218 2.68008e-18)
(1.8447 0.227398 0)
(1.69538 -0.779293 2.47036e-19)
(1.07999 -0.708516 4.12151e-20)
(2.04414 0.0137135 5.17524e-22)
(2.41902 0.121638 -5.2956e-20)
(1.38629 0.295692 1.60877e-19)
(1.77482 -0.308627 -2.84448e-19)
(1.79359 -0.0865935 -1.48486e-20)
(1.74172 -0.790823 2.52548e-21)
(2.18117 -0.259052 1.17081e-19)
(2.65677 0.57185 2.02356e-19)
(1.80391 -0.807344 0)
(1.99839 0.0256147 -2.44876e-19)
(0.233419 -0.269426 -4.53275e-19)
(1.37847 -0.0703831 0)
(2.01076 0.0525517 3.53302e-21)
(1.88558 0.000691599 0)
(1.25451 -0.381672 6.91677e-19)
(2.08639 -0.787394 0)
(1.98144 0.00483807 4.25274e-21)
(2.23784 -0.105661 -2.02741e-19)
(1.4086 -0.694138 3.2652e-20)
(0.643271 -0.30628 6.15163e-20)
(2.38145 -0.0237386 -1.69936e-21)
(1.28878 -0.611984 2.1915e-19)
(1.79592 -0.534695 2.73541e-19)
(1.49941 -0.338205 0)
(-0.548831 0.132894 -1.62686e-19)
(2.30528 -0.688503 -4.52157e-20)
(-0.638976 0.0394716 -1.98372e-19)
(2.02197 0.0102473 3.38601e-22)
(1.48065 -0.589458 0)
(2.21177 -0.0279938 -1.04485e-21)
(0.249423 -0.253129 0)
(1.33245 -0.642217 7.73016e-22)
(1.08465 -0.365596 4.79774e-20)
(0.0526692 -0.137453 0)
(2.06158 -0.561762 8.04629e-20)
(1.67962 -0.72177 0)
(2.85031 0.853811 0)
(1.45652 -0.69154 -3.25771e-19)
(1.49481 0.358678 2.44211e-19)
(1.48373 -0.214004 0)
(1.81072 0.199571 -1.53871e-19)
(3.17954 -1.00975 8.72809e-19)
(0.860513 -0.750191 9.96035e-20)
(2.90893 1.2559 0)
(2.1537 -0.0457604 0)
(0.0742469 -0.893212 -1.58841e-19)
(1.8731 -0.101641 0)
(2.3348 0.0631522 0)
(0.729841 -2.17818 -3.15626e-20)
(2.05999 -0.412617 -3.85721e-19)
(1.75299 -0.439192 2.36292e-19)
(2.48891 -0.494685 2.70899e-20)
(-0.444576 -0.00229405 2.8407e-19)
(2.00165 0.0609541 1.24088e-19)
(1.53393 -0.370921 0)
(2.19923 0.443655 -3.406e-20)
(1.42963 -0.211856 0)
(2.20938 0.0409576 0)
(2.00343 0.105763 0)
(2.2117 0.135369 -9.1783e-21)
(1.86139 -0.0326019 2.26238e-19)
(2.08778 0.0162952 -6.81051e-21)
(1.5742 -0.378886 0)
(-1.73561 0.592696 -6.88807e-19)
(2.14153 1.07549 2.78325e-20)
(1.87834 -0.697422 2.60053e-20)
(1.9293 -0.028887 -4.63067e-20)
(2.14257 -0.437539 2.43883e-19)
(2.05446 0.0654876 -2.07673e-19)
(-0.277877 2.28479 0)
(2.55735 0.0665624 0)
(1.48663 0.855509 0)
(1.24026 -0.566527 -4.96726e-19)
(1.50396 -0.683594 -4.52104e-20)
(0.21933 -0.0907185 0)
(2.22681 0.453371 0)
(2.81116 -0.0204762 2.84883e-20)
(1.98627 -0.0228901 -5.93081e-20)
(1.95583 0.620593 2.30432e-19)
(1.60605 -0.697837 0)
(-1.19733 -0.674377 -2.54732e-19)
(2.33118 0.0480432 3.22718e-21)
(1.42867 -0.424011 -4.71682e-19)
(2.23061 0.0333986 -4.68801e-20)
(2.36382 0.564296 3.47578e-20)
(1.95379 -0.901483 9.51068e-20)
(1.23925 -0.570197 8.67583e-19)
(1.75895 -0.455715 6.87168e-20)
(2.07943 0.0378968 2.5859e-21)
(1.99625 0.0134849 -6.26654e-20)
(1.14389 -0.537458 -7.6993e-20)
(1.66072 -0.0786471 9.0591e-21)
(1.73618 2.08816 4.20459e-20)
(1.28472 -0.616199 1.2478e-19)
(2.41559 0.179615 0)
(1.8112 0.721404 1.97533e-21)
(2.19248 -0.0420169 -1.9314e-19)
(2.97169 0.490037 1.39857e-19)
(1.39734 -0.389862 -4.3005e-19)
(1.86336 -0.670548 -2.82515e-19)
(2.03204 -0.00740469 5.7143e-19)
(2.4171 -0.0600879 -3.2615e-19)
(2.84461 0.0634919 2.77914e-19)
(2.67563 -0.177502 -1.7902e-19)
(1.1723 -0.176328 -9.38228e-19)
(2.10122 -0.0296939 -1.43213e-19)
(1.15944 -0.247472 0)
(1.40781 -0.715556 -7.70286e-20)
(1.94173 0.00306842 5.28256e-19)
(1.78542 -0.00319652 -1.95066e-21)
(-0.760799 -0.206501 0)
(1.51198 -0.696495 0)
(2.0682 0.42465 1.9989e-19)
(1.04519 -0.171402 5.82866e-19)
(1.66922 -0.872872 -1.10208e-19)
(2.14042 -0.721817 -1.38876e-19)
(2.25274 -0.415268 3.28924e-19)
(3.21216 0.274014 0)
(2.08859 0.48234 1.04986e-19)
(1.44005 -0.512239 -3.41771e-21)
(2.58693 0.954177 1.57758e-19)
(1.97772 -0.281898 -3.37886e-19)
(-0.384813 -0.0998863 -4.31091e-19)
(2.12768 -0.410917 -2.38174e-19)
(2.24933 -0.484693 8.14551e-20)
(2.37078 1.15387 0)
(1.91961 -0.176693 -3.05169e-20)
(1.87852 0.0631255 5.65427e-20)
(2.02066 0.00400636 1.66526e-21)
(0.80642 -0.392117 7.95311e-19)
(1.95722 -0.279593 5.0595e-19)
(2.03035 0.167801 -1.72829e-20)
(0.887863 -0.714465 -5.27986e-20)
(2.10076 -0.0816955 -8.98158e-20)
(2.25143 -0.0376533 1.27222e-19)
(-0.0135458 -1.89378 -7.74684e-20)
(2.48888 0.926251 -1.66628e-19)
(-2.32884 1.62207 -2.89956e-18)
(0.949297 -0.466473 -2.63147e-19)
(2.01862 0.000936475 0)
(2.06421 0.0607775 -1.37275e-20)
(0.826819 -1.43776 -8.0182e-20)
(1.33355 -0.154415 8.54267e-19)
(2.05577 0.00307884 0)
(2.07986 -0.298628 3.29857e-20)
(1.20697 -0.511538 1.96668e-19)
(1.98564 0.0437404 -5.31133e-19)
(0.568368 -0.463829 -6.17613e-20)
(1.4612 -0.196233 -7.79979e-21)
(2.2175 -0.209057 1.98375e-19)
(2.27915 0.0455085 5.16217e-20)
(1.713 -0.787577 -3.42565e-19)
(2.06562 0.0240337 9.76612e-21)
(1.51897 -0.716012 -1.1542e-19)
(2.1138 -0.0413425 1.81115e-19)
(2.05428 -0.0747668 -1.62224e-19)
(2.16042 0.0793347 -6.50824e-21)
(2.15471 -0.0407333 -3.54266e-19)
(1.14362 -0.517084 -3.79862e-19)
(2.07258 0.0320712 0)
(1.30471 -0.802703 5.53471e-20)
(2.10251 0.061437 4.00934e-20)
(0.845528 -0.200738 -5.29969e-20)
(2.35564 0.0109212 -3.4244e-20)
(2.1947 -0.429969 -2.02243e-19)
(2.00014 0.0212961 -4.07046e-19)
(2.10938 0.285234 5.81668e-20)
(0.287389 -0.20537 -7.89142e-20)
(2.32901 0.0543154 0)
(1.90436 0.134494 -9.51021e-21)
(2.51686 0.171566 4.95516e-20)
(1.48893 -0.574265 0)
(2.15299 0.0593532 1.01679e-19)
(2.45467 0.194728 6.04096e-20)
(2.28587 0.0436155 6.88985e-24)
(2.38158 -0.800557 -9.81664e-21)
(1.85121 0.00916961 0)
(1.79622 0.381598 4.32544e-19)
(2.05222 0.131937 1.97684e-20)
(1.25899 -0.609812 2.74329e-19)
(2.01239 -0.187101 0)
(1.48966 0.316691 -7.07243e-19)
(1.51271 -0.527695 1.97099e-20)
(2.65613 1.41332 -3.77166e-19)
(1.18305 -0.202397 9.11674e-19)
(2.07438 -0.0034381 1.01457e-20)
(0.681835 -0.332606 4.75299e-20)
(1.92271 -0.0949878 -3.53356e-19)
(2.31428 -0.430823 -2.26401e-19)
(1.79909 0.172968 -3.25781e-19)
(2.00334 0.00987453 0)
(1.99683 0.0353874 -2.37102e-19)
(0.107499 -0.116894 1.65339e-19)
(-1.06392 -0.326334 0)
(2.10209 -0.683537 0)
(2.02313 0.00361795 0)
(-1.69406 1.51756 0)
(2.06575 0.28702 0)
(1.11428 -0.169107 0)
(1.82077 -0.29842 -2.09486e-21)
(2.86558 -0.960518 -3.58941e-19)
(2.56978 0.244665 0)
(1.77496 0.381461 6.53488e-19)
(1.4213 -0.644488 -1.37525e-19)
(2.09411 0.185408 6.28221e-21)
(0.775648 -1.65861 -6.30226e-20)
(1.11883 0.0854199 -2.5787e-21)
(0.403315 -0.300103 5.7605e-20)
(1.9801 0.0122848 -1.31577e-19)
(2.52169 -0.0672025 2.10588e-20)
(2.05193 0.276731 -1.40634e-19)
(1.88853 0.178325 -4.32632e-19)
(2.06995 1.00956 -1.21524e-19)
(3.45082 0.748246 0)
(1.34146 -0.680948 1.16047e-20)
(1.27488 -0.394819 -7.58044e-19)
(2.01243 0.028487 -7.34558e-19)
(2.31699 -0.696349 -2.55982e-19)
(2.02643 -0.0160568 5.6116e-20)
(2.5979 -0.655736 1.66943e-20)
(2.13321 -0.336527 -4.39364e-20)
(2.07579 -0.550663 -2.78743e-19)
(2.04418 0.165578 1.56225e-19)
(2.52922 1.43725 0)
(1.7944 -0.0655807 -1.28463e-20)
(1.69598 0.101164 -1.00675e-19)
(2.54766 -0.429392 0)
(1.82184 0.0538689 0)
(1.7604 -0.809543 -3.4241e-21)
(0.870579 -0.41918 5.14522e-20)
(1.80392 -0.307367 -7.40397e-20)
(1.91587 0.0394415 0)
(1.90578 -0.0507017 -4.62986e-19)
(1.81208 0.252923 -8.41983e-20)
(1.34524 -0.749272 3.1447e-20)
(2.36015 0.140332 3.6163e-20)
(0.493372 -0.309745 0)
(1.31588 -0.666773 1.45519e-20)
(2.41869 0.164331 0)
(1.90047 -0.188998 3.18287e-20)
(2.7078 -0.267143 -5.42071e-20)
(1.99265 0.0332814 -2.37554e-22)
(2.43685 0.622847 6.52257e-20)
(2.86348 1.12392 -3.96043e-20)
(1.74838 -0.511158 5.67907e-19)
(1.39054 -0.623007 0)
(1.6533 -0.639479 -9.25511e-20)
(1.47222 -0.458923 0)
(2.6146 0.209369 -5.52014e-20)
(1.33276 -0.733933 6.08199e-20)
(2.07196 -0.672456 1.48004e-19)
(1.88872 0.122635 8.04625e-21)
(1.18818 -1.13778 -1.42659e-19)
(1.07938 -0.531968 -3.16791e-19)
(1.31822 -0.399724 -4.39485e-19)
(1.99543 0.0493834 -3.40395e-21)
(1.66737 -0.622822 7.59066e-20)
(1.18676 -0.532407 3.124e-19)
(1.37895 -0.42161 4.82584e-19)
(1.49489 -0.671595 5.377e-20)
(1.7416 -0.66536 -5.00191e-20)
(1.856 -0.596663 2.81915e-19)
(0.933254 1.73402 1.57898e-18)
(2.0843 0.00399329 5.91236e-21)
(1.348 -0.603979 1.18271e-19)
(2.35311 0.37794 -1.40419e-20)
(2.26048 -0.579105 0)
(-1.25744 1.10577 -2.63261e-18)
(2.09935 -0.0379316 -2.42419e-19)
(1.99827 0.105191 0)
(2.58575 0.207129 0)
(1.56365 -0.570888 -5.92939e-20)
(2.42511 -0.601283 -2.47251e-19)
(2.41764 0.168343 6.80306e-20)
(2.05764 -0.401915 5.05609e-19)
(2.04543 0.969464 1.18059e-19)
(1.54275 0.00296741 3.65615e-19)
(1.30495 -0.756184 -2.3964e-21)
(1.83248 0.652031 0)
(1.41202 -0.452705 4.62169e-19)
(1.20073 -1.72399 5.15822e-19)
(1.18593 -1.08631 1.05813e-19)
(1.73876 -0.680469 9.35834e-20)
(1.41478 -0.641186 -6.1193e-20)
(1.89499 0.00727854 1.85505e-19)
(1.85738 0.0829609 -1.12065e-21)
(2.10054 -0.243235 1.60812e-19)
(1.2867 -0.760259 -4.14261e-20)
(2.3974 0.166856 -4.80507e-20)
(1.94633 0.0682415 1.83057e-19)
(1.15404 -0.234728 -3.7456e-19)
(1.87236 -0.0715668 2.89128e-19)
(2.69407 -0.244688 0)
(2.42608 0.326531 -5.64406e-20)
(1.97082 0.063935 4.0878e-20)
(1.48869 -0.307257 -1.48153e-19)
(1.98812 1.85762 9.39973e-20)
(1.82597 -0.584369 2.09904e-19)
(2.03439 0.00264468 7.89134e-20)
(1.39405 0.141209 -5.5503e-19)
(2.52576 -0.433774 0)
(1.90155 0.119499 1.37291e-20)
(2.24444 0.0543399 6.36622e-20)
(1.92453 -0.0256308 0)
(1.42427 0.0300316 3.18078e-19)
(2.36624 0.153396 0)
(1.87499 1.86943 -4.63671e-20)
(2.37434 -0.0155282 0)
(1.79471 -0.0798855 0)
(2.4986 0.0226223 4.48627e-20)
(2.3876 0.133743 -1.94295e-20)
(2.79799 -0.0453604 -3.4243e-19)
(1.92089 0.165446 -1.9643e-19)
(1.65453 1.2083 -1.18109e-19)
(2.00227 0.111384 -7.43433e-20)
(2.0846 0.299055 0)
(3.80562 -0.994344 -1.90406e-19)
(2.4492 0.101503 7.32812e-20)
(1.88121 -0.173057 -6.51064e-20)
(2.25943 -0.573449 0)
(3.00081 0.477958 2.10338e-19)
(2.3386 1.66627 2.48365e-20)
(2.08258 0.0165752 2.38973e-20)
(1.64889 -1.21932 0)
(1.02086 -2.2264 3.79918e-19)
(2.04959 0.164378 0)
(2.12758 -0.212866 -8.16687e-20)
(0.517396 -0.319019 0)
(3.93533 -0.844593 0)
(1.74558 -0.479986 0)
(2.04463 -0.781829 0)
(-0.402419 -1.71218 -1.79236e-19)
(1.31657 -0.907007 -1.76788e-20)
(1.85695 -0.0301405 -3.39377e-19)
(1.40428 -0.701732 -4.04792e-20)
(1.27019 -0.559474 0)
(1.42742 -0.735264 -3.26768e-20)
(0.320009 -0.26945 -1.89246e-18)
(1.49105 -0.70649 0)
(1.48968 -0.535685 -4.93589e-19)
(2.00081 0.0763606 3.30686e-21)
(2.33471 0.364528 2.56044e-20)
(2.39861 -0.820712 5.90977e-20)
(1.88182 0.181644 0)
(2.20785 -0.720463 0)
(3.22003 -0.201161 1.9668e-19)
(1.68625 -0.0450829 1.90952e-21)
(1.96948 0.0474956 7.04544e-21)
(1.55954 -0.566787 2.5304e-22)
(2.0003 0.0107545 1.76138e-20)
(2.06496 0.0684829 1.05715e-21)
(2.03457 0.171936 2.24846e-19)
(1.92029 0.133823 -9.14495e-21)
(1.90236 -0.536966 0)
(-2.11765 0.519025 0)
(2.09296 0.0278376 0)
(1.96422 0.000360584 0)
(1.74335 -0.326109 2.09231e-19)
(2.54126 -0.14241 0)
(0.299437 -2.32393 1.28294e-18)
(1.88891 -0.902441 -9.24892e-21)
(1.3464 -0.439666 -7.24855e-19)
(1.30575 -0.609738 6.39232e-20)
(1.3385 -0.818218 -3.02473e-20)
(1.01027 -2.53697 -9.3748e-19)
(1.92875 0.0119919 6.28011e-20)
(1.20458 -0.804422 -4.1318e-20)
(1.93327 0.134204 -1.60241e-20)
(2.48968 0.0278317 0)
(2.36916 -0.399368 0)
(0.679606 -0.199063 0)
(2.1936 -0.447347 1.06918e-19)
(1.72166 -0.70774 0)
(1.86903 0.654919 0)
(1.99653 0.00978238 0)
(1.77363 -0.443814 2.2039e-19)
(2.08292 0.182492 -2.00796e-19)
(1.92788 0.0253425 0)
(1.86476 -0.306595 -7.32698e-20)
(1.97135 0.1816 -2.25489e-19)
(2.57972 0.854344 -3.29138e-19)
(1.53659 -0.724408 2.93584e-19)
(1.95901 0.694884 -3.23586e-22)
(1.62534 -0.153191 -2.02819e-21)
(1.81948 0.0742929 1.87437e-21)
(1.7746 -0.139726 -2.77555e-20)
(2.38316 0.142785 2.98675e-20)
(1.98052 0.0498049 1.53638e-20)
(1.82014 0.102202 -3.19172e-19)
(2.11422 -0.0423077 0)
(0.951151 -0.245888 4.0094e-20)
(1.96171 0.0743126 3.28079e-19)
(1.45447 -0.528706 1.32081e-20)
(2.12537 -0.319111 -1.28239e-19)
(1.0746 -0.193551 -6.35629e-19)
(2.37667 0.123873 -5.68484e-21)
(3.05114 0.116251 3.39006e-19)
(1.99926 0.0904306 0)
(1.97341 0.946981 3.40814e-20)
(1.90385 0.0558698 7.11148e-22)
(1.78244 -0.152439 5.79736e-20)
(1.22419 -0.60608 -8.6639e-20)
(2.00632 0.0146572 1.71992e-19)
(2.08179 0.0389529 -2.94991e-21)
(2.06315 0.00571987 -7.56304e-21)
(2.07781 0.0159137 0)
(1.61465 -0.528945 0)
(1.3511 -0.653507 3.58972e-19)
(0.583197 -0.413323 6.63281e-20)
(2.03842 0.00744264 4.99308e-22)
(1.96471 0.0773532 6.56626e-19)
(2.0034 1.00376 -1.2709e-19)
(1.45633 0.300036 0)
(1.80706 0.126736 0)
(1.60685 -0.364528 -3.0573e-21)
(2.46139 0.0291033 7.16619e-20)
(2.0061 0.665206 2.98945e-19)
(2.53958 -0.144797 0)
(2.04797 0.0203133 0)
(2.09807 -0.617328 3.83543e-19)
(1.98501 -0.175448 2.71899e-19)
(0.0980478 -0.0283378 -1.48552e-20)
(1.85868 -0.0184319 0)
(4.19259 -0.643212 3.33521e-19)
(1.94622 -0.410886 -3.00709e-20)
(0.839307 -1.3492 -1.02484e-19)
(1.98999 -0.0253203 -3.69437e-19)
(2.90787 -0.831909 0)
(2.45551 -0.622319 1.95409e-19)
(1.71687 -1.16263 -1.75849e-19)
(0.0143464 0.0169512 0)
(1.99417 0.00820664 1.32724e-20)
(1.93284 0.121776 -2.13189e-19)
(1.99731 -0.00302854 1.792e-23)
(2.67745 -0.286532 3.31481e-20)
(1.77649 1.46271 5.83195e-19)
(1.88454 0.0424133 0)
(1.0648 -0.404229 -4.2554e-21)
(2.03238 1.10152 1.27431e-19)
(2.27666 -1.83609 -5.97091e-19)
(2.06832 0.270782 1.66912e-19)
(1.39163 -0.613167 1.09659e-20)
(1.99603 -0.00604085 -8.05347e-19)
(2.02574 0.179046 9.64264e-21)
(1.83695 0.108018 -4.64774e-21)
(1.7398 -0.405843 0)
(1.87871 0.00713711 -1.04775e-20)
(1.11053 -0.518562 2.49559e-19)
(2.22879 -0.102165 -3.93548e-19)
(1.9916 0.0625213 -2.96427e-19)
(2.11158 -0.199591 7.5638e-20)
(1.67347 -0.166781 7.6647e-19)
(2.09188 0.0057115 -7.08504e-21)
(1.80326 0.130462 1.85561e-19)
(1.99719 0.0532642 1.25667e-20)
(2.51212 -0.498338 -3.12752e-19)
(2.53721 0.984579 -2.40356e-19)
(1.69102 -0.902565 8.59815e-20)
(1.9644 -0.00353175 0)
(1.02401 0.409932 0)
(0.963786 -0.189846 0)
(1.34309 -0.404742 5.61129e-19)
(2.15508 0.068946 -4.82974e-19)
(1.79788 0.277985 0)
(1.52881 -0.324787 -4.40012e-19)
(1.78004 0.246168 0)
(1.75186 -0.297499 -3.43723e-19)
(1.86733 -0.183216 -6.74507e-20)
(1.8742 -0.504319 -3.10151e-19)
(1.95927 0.0497995 0)
(1.94729 0.0582833 0)
(1.94818 -0.0261384 4.01067e-20)
(2.53121 0.198597 5.90328e-21)
(2.44796 -0.102739 1.43043e-19)
(2.551 1.75851 -8.21723e-21)
(2.57863 -0.22892 0)
(1.74565 -0.661442 -1.57652e-19)