/*--------------------------------*- C++ -*----------------------------------*\
| =========                 |                                                 |
| \\      /  F ield         | OpenFOAM: The Open Source CFD Toolbox           |
|  \\    /   O peration     | Version:  2306                                  |
|   \\  /    A nd           | Website:  www.openfoam.com                      |
|    \\/     M anipulation  |                                                 |
\*---------------------------------------------------------------------------*/
FoamFile
{
    version     2.0;
    format      ascii;
    arch        "LSB;label=32;scalar=64";
    class       volScalarField;
    location    "0.4";
    object      p;
}
// * * * * * * * * * * * * * * * * * * * * * * * * * * * * * * * * * * * * * //

dimensions      [0 2 -2 0 0 0 0];

internalField   nonuniform List<scalar> 
13486
(
32.0163
24.7762
2.25879
-11.6486
9.30985
-4.71577
1.50412
17.4757
21.3247
9.92613
-16.3097
5.23973
33.9823
-6.72722
6.04729
10.5282
-27.1617
-13.3128
6.04493
28.5145
-11.3475
33.6672
23.8901
-10.1354
8.44712
-9.80106
-12.67
-8.01927
0.233812
-6.27819
-9.88237
3.76694
-13.0219
-4.67905
17.5108
-0.334399
0.102835
26.3126
-0.78817
20.3367
-1.33897
35.4695
0.17882
8.40426
7.90035
4.8653
-52.0971
0.431589
0.232676
-9.44057
17.3665
-0.480082
3.30305
26.6457
-6.73497
9.98089
1.16975
-0.0551327
-12.4856
0.385346
-15.3063
0.347161
-30.4121
-11.2576
-6.93961
0.154825
-12.4674
31.6395
21.145
0.373643
-12.2495
-5.69435
21.2638
-169.513
-0.0258256
0.688245
0.0228825
5.83051
-39.3153
-0.81257
0.12425
24.3624
-31.3108
2.27285
32.2255
8.19198
1.2016
15.2342
20.7125
11.97
2.58415
14.8777
30.6794
26.7491
22.2738
-0.214712
-12.8218
-11.7093
20.913
-24.1766
0.125194
-5.57303
-11.5546
-0.766015
12.9668
-24.7564
20.5233
-0.456102
-43.4565
13.6953
21.3259
0.838736
26.6079
1.06089
38.2218
21.3916
8.16448
-4.65215
20.9425
-0.00388205
-11.1906
-15.2726
23.4091
-0.299753
20.4489
-0.698891
14.5321
2.46714
-4.54255
-6.02656
-0.490791
-52.4753
-127.513
-113.1
19.0986
14.9332
36.666
14.0219
0.117795
18.0432
-11.9894
3.19757
5.51192
-1.28206
1.10259
-20.6222
2.13916
31.0869
-9.77499
-0.459332
10.6235
5.42138
0.594269
25.1624
3.52614
2.31761
10.2335
-7.038
23.6459
0.870108
-6.93267
23.6526
-4.10795
35.0022
-0.160203
-10.5151
-3.30147
45.2854
2.06254
-112.221
-120.704
3.91401
11.5949
10.9931
0.122553
-11.1237
-10.7813
-13.8332
20.4625
4.35366
19.8953
0.682685
7.95866
-12.8088
2.45353
-8.62448
-0.0514691
-6.63169
0.391687
23.2019
0.0823928
1.71732
-1.41394
29.1216
-1.11373
-16.3113
-6.01463
-7.58709
29.3603
-8.63546
-9.73184
2.19892
26.3034
7.64953
1.421
-0.859541
-24.7845
22.7477
-1.15797
2.52671
-7.04332
-8.17655
27.921
20.4635
-4.5699
-3.17346
-6.77389
12.9416
28.9962
-29.6871
-27.6495
-9.49904
18.4706
-7.49174
3.02689
31.4843
-7.37467
-9.37377
-2.8255
0.734787
19.5563
-24.4648
-12.4286
36.3882
-11.0532
30.3424
-5.14014
1.40337
30.7061
8.82403
-12.6582
11.9327
0.797083
28.9981
-0.0985873
23.5313
8.59159
-8.26232
-151.321
9.56488
-12.2238
38.6319
20.136
-0.255477
-1.69571
-11.5929
3.63573
-3.25618
-5.44723
-12.5133
22.5534
-0.308284
5.96748
-11.567
10.2476
-12.6871
-2.69778
-9.91923
19.0224
0.556349
21.2147
19.6645
-7.07594
4.3507
31.6196
-8.24947
-1.93743
-3.34638
-0.363201
2.22895
-3.25297
16.7593
20.2789
-13.6491
-14.8438
-13.6772
-13.8314
-4.31722
3.94527
20.1905
-11.1954
0.320842
22.8205
17.8831
-5.12387
-5.60429
-8.25635
4.37723
21.2339
1.14299
-5.45171
-21.3877
2.32665
4.15136
0.165451
6.03633
5.9311
9.60957
0.403669
0.307891
-75.8572
-11.5361
-6.60731
0.902344
-16.7591
15.1299
0.500648
19.6706
22.5518
-3.21001
-0.154967
0.123827
20.2762
26.8743
38.9167
2.41015
12.5787
17.0528
3.08769
11.6235
16.5184
14.1379
0.786141
28.9566
0.978816
20.9225
39.968
6.05908
11.3203
-0.314198
-3.16109
26.4891
11.2442
8.28704
-13.3312
-0.13053
13.1127
38.3169
-30.0053
0.488111
13.7288
3.87605
4.0123
-13.3389
20.6818
0.74018
-153.795
14.2179
0.827058
-7.84511
7.69816
2.20939
22.6758
19.5645
-6.3561
0.535349
-5.5825
-60.6264
28.5419
14.5596
0.787766
13.9081
2.84744
-12.539
-3.83888
17.1361
19.2392
0.326707
-16.6316
-55.8865
18.7218
13.4527
33.7375
21.3266
-63.7491
-2.24528
-0.529758
10.7602
-98.38
-10.4382
27.3389
-7.44576
6.73376
30.6648
31.142
0.155254
-11.8925
-12.5272
-74.1471
-13.3084
-95.91
2.72555
18.3229
-15.2343
1.67186
1.79509
26.2371
-13.1849
14.2979
23.2349
10.6954
-20.6091
-8.33829
20.9098
20.8985
26.6097
-13.3772
10.6173
-127.807
9.12191
20.3914
-10.5402
38.4285
11.4626
-8.10473
-5.91069
3.47578
20.8423
-12.4988
-2.11743
33.2913
18.2613
6.62957
3.3239
7.82145
-8.52288
33.599
0.597094
11.275
31.0942
-87.0637
-7.27665
-104.712
-8.12465
1.23382
24.8486
24.773
33.4356
-56.5582
-0.0268692
-13.4274
11.0996
20.3238
-10.4266
-22.497
19.5814
-12.446
-11.0237
-13.5875
-20.0112
-5.00168
26.7121
0.257508
-1.50216
-12.0534
18.7219
0.5583
42.1726
31.1517
21.0002
16.4907
0.0739698
0.184938
39.7877
-2.06172
0.219103
-7.67297
21.1445
-15.3175
4.48319
13.4813
-0.537995
-12.1193
23.5431
-22.4542
-54.9014
11.9524
-11.28
44.776
12.5287
16.4621
22.7851
-11.3076
2.96968
34.8538
8.72835
27.0684
1.86767
4.2287
-9.597
-1.01515
0.192623
-22.5301
20.8936
21.1614
-12.1582
-0.0158163
-4.81715
31.6498
25.0154
-2.23678
21.5598
14.6214
-11.8287
10.394
17.7882
-136.299
33.1197
0.149995
-0.581747
35.1205
13.7078
1.00744
13.535
-9.83018
-12.4015
7.09219
12.4133
23.6412
30.8538
-14.2431
7.71837
-14.1804
0.0670992
30.1097
3.89499
-13.6889
-11.567
-17.3638
-4.02521
16.6786
-6.79384
-21.7725
21.6062
28.6452
-0.420547
22.335
-21.4822
-12.6696
-31.5213
6.52129
-13.6989
22.5992
2.4207
-14.9718
17.6886
24.9033
-11.9937
-14.1182
17.3489
29.913
4.41446
32.2149
2.07706
12.0711
2.27519
22.7779
0.662754
29.1483
-13.0432
4.27911
20.4402
-3.96481
-7.49801
20.2327
-96.9814
4.73218
26.4188
33.6114
-7.24348
-4.73043
3.13702
3.43333
17.3672
13.0446
4.31905
-14.4317
-1.47783
31.9858
1.67047
-1.20034
-9.71726
33.7639
-3.87213
0.737364
19.2866
15.4135
-1.06881
-7.0677
18.1261
3.28309
1.33675
5.65377
-22.0367
32.7296
20.9725
13.4977
14.6364
1.98053
-13.9488
36.8749
4.8895
36.9676
-9.42996
19.9459
-0.277262
-178.312
12.4067
9.63119
38.8725
-8.46664
12.8815
12.173
-31.0078
9.65673
-28.0449
-11.847
20.5305
-13.8828
-7.32536
-8.83052
-5.20974
-3.91421
22.434
0.280903
36.0425
20.6825
1.08245
-12.6269
-6.2625
4.55818
-14.9678
-8.29092
-22.6469
30.2135
0.314761
1.22521
-13.3016
33.9283
0.248246
-3.05053
35.1866
17.9642
-13.1519
-0.450138
13.7463
0.842796
20.4876
0.790566
-7.4253
6.39266
17.7782
5.04889
16.8258
35.7124
0.679166
-10.6855
19.6993
-13.9286
-4.60347
13.6855
15.1999
6.9027
-13.6599
3.12203
0.171802
3.41418
30.0269
4.5551
3.43787
1.64397
-3.36871
-1.59149
20.4674
0.920917
19.6741
19.5415
29.3685
-7.88919
-22.5677
36.6071
0.903353
-12.375
21.8609
-9.42235
23.06
0.655034
18.279
-19.94
-127.718
-8.63438
0.147738
-39.9468
9.41347
37.761
-3.70429
-17.8685
-8.76275
20.3527
0.668414
7.58487
-13.7313
37.1275
-12.6914
10.1231
-10.014
9.54265
19.7288
6.39986
-52.3482
-10.6357
34.735
19.4023
7.35342
17.9913
0.624934
16.22
16.3566
10.3265
-89.9337
-1.77934
25.8535
1.13428
-0.834513
17.403
-12.6086
-3.58653
-0.455303
22.2405
21.1795
-10.4438
3.4722
-13.1221
-10.7772
3.73241
-3.78441
1.69144
19.1516
-3.48904
-26.5624
24.9073
-11.1568
-5.47888
-0.601093
-10.1229
-10.6326
-8.21426
-0.103114
-11.935
20.5923
33.9576
0.263273
-5.43568
35.2292
32.8903
-7.32607
-6.14341
21.9196
-80.6942
1.05913
0.165064
-1.36118
10.3489
-48.5279
6.97991
12.4015
-9.23151
-4.09921
-11.6058
-4.35639
17.8851
7.33172
11.3987
-10.8385
17.095
32.0112
-22.8916
-12.0543
24.0052
5.27179
12.8578
-0.480079
-6.16459
-10.9739
-4.07349
20.5099
37.0671
22.7638
1.79384
-4.09986
19.7595
31.1098
-9.8123
22.6013
20.9736
32.3424
1.21843
0.123115
1.50661
-3.32162
31.8886
3.07713
4.29797
13.2784
-2.01636
5.36291
-3.4685
-15.911
19.0418
18.912
13.2391
7.80329
-31.3124
-5.60666
-3.61016
10.3817
-23.2444
-14.4395
0.811803
-11.3375
-14.985
8.35522
-6.2364
-145.164
-32.4846
-3.81817
15.0397
-16.5095
-10.7691
22.936
-9.83726
33.7744
-9.03137
-161.508
25.4537
30.2806
0.570301
-0.874825
2.34941
20.9516
10.7908
-24.2015
-1.37643
0.155856
-3.78446
19.4968
1.12834
10.279
0.138118
21.175
-12.9699
0.859787
0.25324
25.7171
-10.6421
-15.9699
-9.49436
33.4508
-0.130277
-10.4314
-17.7882
21.1566
-11.4765
0.467696
4.49946
8.33891
1.33342
13.6993
-6.70217
16.0318
18.6708
24.67
7.89799
-0.863067
-4.18258
14.0561
-11.0055
25.8406
12.5425
-1.15005
-0.379699
-2.46756
-2.09002
0.00372875
23.3811
6.38376
-11.6663
19.3698
-13.784
16.116
38.3943
-3.68297
-23.4443
12.2059
1.5713
-0.5835
-2.48749
-11.6767
20.2013
0.748235
-0.755121
0.422029
-1.51462
27.7843
-13.144
0.0587293
19.5368
1.56763
29.8876
23.4154
28.4926
6.15758
12.0647
5.4418
1.01172
15.112
20.4111
-15.6302
-4.26719
-34.6245
-5.23318
-13.1444
20.0584
-17.9629
-12.0294
-11.2228
-16.1563
-0.145783
20.2008
0.607677
0.98968
-105.681
19.4113
37.9732
1.92107
-15.7486
9.5398
-12.752
19.8438
1.29038
-0.158459
25.3532
-0.985975
35.7718
14.1237
20.3123
-6.06458
27.6252
0.558662
23.9375
0.326309
-12.4684
-10.8129
-8.71444
13.6395
0.879887
-2.01835
33.5928
19.3154
21.7019
30.2639
22.0082
25.4864
-3.66367
21.9497
19.8659
21.024
-3.43381
-7.68103
-9.13478
-19.9559
3.41716
23.9732
-117.073
38.3156
-26.6217
0.667953
36.7266
30.3912
-3.99228
-8.86331
21.0133
9.35271
-2.96567
19.5738
-105.132
-10.1328
20.0345
29.5847
-0.125472
23.4993
26.9527
-0.872806
-7.08867
27.061
8.36301
0.12839
-14.4203
2.55298
-15.0941
18.0217
14.8305
0.421209
-10.2554
-7.05017
3.81812
-0.135967
4.82704
30.7616
-0.795409
41.5436
20.5893
5.85449
23.1446
-13.0173
-92.9967
-11.4423
20.6821
-0.253081
-94.5886
-9.50015
7.78546
10.5232
0.362405
14.455
-73.512
9.6641
0.590251
0.352297
16.6594
5.73553
27.6339
20.4347
20.7865
19.2791
-3.93791
-11.3354
-11.3172
2.92908
-7.58981
-7.70522
16.4438
-9.09577
0.259718
0.477308
-5.21993
-13.6799
14.7417
7.61744
1.42899
-7.09325
9.08807
-10.2036
-9.5202
3.97161
0.922245
23.4305
14.1036
27.7294
-108.384
17.9361
0.769014
29.5993
-4.04919
9.17639
-0.885727
-4.91881
34.9084
35.9856
15.8335
10.0438
12.7876
19.324
35.4065
13.6255
-12.1608
-13.5705
4.64716
-27.4862
-34.1098
20.0322
20.0727
1.23978
2.63581
17.1447
18.0741
38.946
-18.8111
14.5367
-73.3667
-8.81941
30.1716
-1.76309
16.8689
-7.2421
5.38256
6.86143
40.6497
1.11137
-9.18008
8.44139
4.24184
-13.5676
-108.68
-9.12687
22.6058
1.18076
10.3816
32.7852
29.5928
-1.3143
-47.0788
1.08595
1.05706
25.1506
18.9711
29.8508
10.6754
-17.8671
31.4293
19.0203
-23.9669
15.5555
21.2601
26.9343
-15.6348
-14.5459
0.0154602
16.6767
34.7332
9.60194
-2.83531
-14.4604
39.0552
-20.762
-12.6431
36.1542
17.0378
1.80263
16.0886
-12.2047
10.65
-4.77973
-20.0481
0.0198985
-11.6708
-0.815843
-3.61737
-88.2195
-35.8546
-30.1186
-3.39796
-81.7976
-12.3845
21.4702
18.1671
9.97715
-74.7458
3.16396
0.933167
-4.43827
41.1996
13.026
-10.7353
16.155
-4.9389
-11.6433
17.0074
16.8285
20.2443
41.7871
-0.242093
-1.99968
-10.2337
2.89255
13.5173
20.8578
-9.35106
31.8315
13.119
21.498
-9.99629
-1.32986
1.64506
21.917
19.9394
22.8438
20.105
37.6069
37.3535
-4.77526
17.0305
26.7191
-10.0465
30.0011
-0.589508
36.7522
29.8301
-1.08975
23.3051
8.42578
15.4303
1.35034
20.1189
-11.2173
17.4863
5.5711
13.3373
-3.83395
19.4301
-0.61196
3.64908
35.4115
35.2259
13.2024
-102.759
5.58728
-1.44759
-2.52217
15.0579
31.3741
-108.521
20.8597
19.9207
9.15276
21.6072
-12.6403
-6.76054
0.39176
38.8858
3.29607
1.15303
23.6434
-3.87376
1.32295
8.16452
4.54572
13.6925
6.54012
-6.58738
11.9973
16.4961
13.3118
15.1247
37.3958
29.9577
26.7269
38.9288
35.0341
8.48359
-0.795702
-15.951
-30.4597
34.7993
-9.11525
20.5838
18.3428
-12.9787
9.66813
22.9763
-8.6002
9.17565
11.3859
42.3395
-13.608
8.45174
1.81375
24.468
1.77452
-10.8756
34.2706
29.0912
20.1404
19.7538
-5.46845
6.79334
-27.4918
37.1761
0.308107
40.3256
-8.90645
-1.00329
-175.867
10.1685
-145.821
1.4357
-0.861666
6.83828
1.14889
4.59164
-11.0403
-0.0785469
-4.40587
-103.731
-8.02414
-25.9399
1.26045
-1.63668
-13.0249
-14.8783
21.5753
22.0303
27.5826
19.6225
7.60353
7.94894
44.9446
20.1209
-13.4545
0.144322
-4.30481
14.3748
17.7813
31.7445
-13.8649
-13.6811
16.7761
0.0277642
5.04831
25.6554
-110.562
-13.1707
-37.4065
37.7131
-11.9008
14.9048
27.0157
-9.48346
15.8024
-0.449237
-14.2339
-14.0207
1.06084
11.7723
25.1226
26.5065
-24.7821
-115.795
13.0549
-33.185
-6.39219
-3.32453
2.69353
-4.46649
0.67743
-11.5133
-13.6824
-10.3875
32.9339
-11.1875
36.0209
-13.7076
-2.44849
6.59449
0.846758
30.4174
20.8731
24.6899
1.76946
-5.26047
-14.7665
29.5722
-117.124
13.9695
0.100523
24.561
30.0914
0.00324556
19.8067
34.5091
23.0495
21.9723
-55.7753
-10.4443
7.55826
-9.16314
-0.470808
11.6203
14.4375
2.19019
-16.012
5.15222
1.3278
17.9929
14.9368
-7.10941
36.6398
2.68978
0.0956443
3.96331
19.6334
-5.90274
0.395117
22.7861
-13.5772
2.15308
-4.66788
22.4621
18.4852
18.0443
0.651362
18.4495
23.9437
23.5853
-5.08215
0.678297
2.21902
17.7793
-14.2196
-126.998
-10.2056
-26.5808
-11.8422
-0.340229
-0.339485
0.637517
-112.016
-10.5021
-13.8126
1.2426
-4.91409
6.0082
-13.7707
21.6217
45.5003
5.05847
-4.08044
7.17879
0.417701
6.3348
0.0257778
-5.90726
-10.6239
3.29433
28.0101
0.0537107
33.9954
0.600995
18.1752
16.8366
8.52587
-153.24
11.6253
37.6856
-13.1606
19.7434
18.8189
31.699
3.93799
28.9769
22.8593
-178.516
24.3847
-13.5677
-20.6454
29.8151
17.7748
-25.0254
-1.68664
26.9479
-2.48709
-7.93025
0.709537
0.727682
14.6496
9.04014
20.1905
19.4305
17.4888
-51.8469
-7.3251
-4.75386
19.2975
40.4437
-6.35246
-22.9698
-161.197
21.3139
3.2126
1.30197
7.45956
-39.0473
15.7141
-18.1845
0.615559
36.0986
6.02375
-4.96715
-9.85688
-12.0383
-8.41001
-66.4194
-10.3071
-13.1791
24.4191
9.33155
-8.22709
34.0953
0.207059
-14.5361
-4.18346
-21.0822
22.7238
-100.063
5.02064
20.6388
0.675279
-5.16182
-2.30681
-13.7816
-9.49225
22.2479
-13.9177
-0.317097
-30.8547
18.9269
22.0247
-11.8404
26.3958
24.5205
32.6929
33.3887
23.34
4.40845
38.4255
-37.4125
19.9586
2.14676
-12.7135
25.2706
-10.4733
32.3258
7.4828
-20.8609
-78.925
-57.2394
21.2126
-10.0249
-5.27508
2.39626
-22.2716
-3.10691
11.5341
2.21085
14.9058
37.6818
-126.459
-9.67306
-8.01006
22.0949
14.4482
-7.63263
45.0517
-0.258725
1.20227
11.4073
-22.726
19.4771
21.4486
24.0684
24.8131
-1.39635
10.1807
19.8323
4.21599
-29.8036
0.581605
22.9931
23.0985
29.5191
-13.6966
1.64796
9.07419
10.5729
2.06738
-11.8508
16.3403
-6.19972
17.0418
20.9811
-31.1769
34.0366
-7.93904
36.8038
24.2833
-13.2604
-0.0994545
0.610559
6.75506
20.9526
-12.3679
28.8839
18.2832
9.41433
0.858756
4.54245
-7.5949
9.23905
-34.5427
12.0894
-9.2432
19.2176
-104.718
2.00853
-4.64501
25.6739
30.7756
9.10082
-93.0701
8.54161
-1.57961
2.59669
10.2261
-16.8707
-12.0385
36.0689
-13.4344
-0.469564
-10.7826
-18.8977
-3.55137
18.7206
-34.5962
-4.083
20.8976
12.5776
22.512
-12.6781
9.08096
36.4528
-48.6477
19.2286
5.24053
-14.9538
5.94112
4.68311
-10.398
37.269
24.0606
1.3739
35.8357
27.4817
24.809
-36.3113
-115.179
13.0087
-24.1206
-7.19137
-21.0955
-23.1728
-21.0464
15.832
7.80997
11.6516
13.2055
-10.5014
15.2676
19.453
-19.6253
22.4349
10.5068
20.1481
-1.60039
-0.112649
-11.7083
-65.667
-12.3435
-4.50673
19.3051
-13.0433
33.1372
-12.9203
19.1048
12.0608
0.763235
1.41936
21.1338
7.57054
4.04377
18.5045
-0.515951
-16.3484
31.1489
24.753
-7.54038
-15.8653
-1.28853
16.541
-1.63077
7.08145
-23.4831
-0.621527
-1.66329
1.09586
17.2889
17.3693
-1.82926
7.1476
-2.56302
-0.288209
-12.0503
25.5221
-12.0283
20.0877
0.00933573
16.6595
21.4696
9.85635
18.8865
-6.43164
-10.8956
0.398565
-97.6725
-10.6726
-7.87847
0.939941
-6.09235
15.0597
-2.66737
19.7736
-10.1804
-31.4764
-32.5321
-0.713178
21.2726
-13.8525
20.0618
5.64466
-10.5016
-5.68494
-12.158
13.7154
20.4914
-0.0208534
4.62638
-104.335
25.0478
-10.2127
4.82456
-13.2912
26.1134
9.40917
0.238998
21.8669
21.6483
25.344
9.51712
25.3324
-53.0554
0.961594
-2.84658
20.3621
11.5525
5.8099
-4.60234
-11.6383
-12.8425
10.3919
1.87069
-12.6015
35.7298
-61.3927
25.0702
14.0851
-5.60106
-0.549468
1.66732
-0.977193
0.189517
4.35165
18.3704
0.314235
20.4697
-32.6682
7.20722
-10.7888
1.14768
-11.9995
26.6646
36.5672
22.6964
10.4498
1.77772
12.1686
-12.8636
-11.9054
0.509035
-1.85915
-8.27037
-13.4716
-11.3777
-7.70077
18.2489
20.7816
-25.04
6.06153
23.4091
-9.25251
-22.6845
21.2934
-0.61796
-15.3037
1.00021
-4.00419
0.0932226
34.4172
0.788074
19.8938
-22.0284
-12.4389
-8.86409
20.3571
1.98061
16.7316
-20.7944
-10.0377
1.28664
-0.83313
23.4783
18.3473
2.26527
-3.87284
-5.20933
38.2742
-12.5568
23.7694
26.6624
-4.25396
-0.676143
8.75863
-153.729
-20.8094
17.0182
9.813
20.0401
-10.8662
22.4222
0.0667996
29.6726
-0.394818
17.1571
26.0302
16.7253
3.88775
-13.0616
4.57437
-18.6141
17.6043
8.03091
25.4447
0.755121
32.4305
4.2113
34.9386
1.19125
26.8465
-4.89734
14.8777
-18.4329
18.9987
8.93248
7.17801
32.7468
19.4408
4.55097
-7.23456
10.8518
17.8262
-0.453141
-66.1665
13.7858
1.18984
27.0563
-11.1414
33.2149
2.5166
45.1797
33.0342
14.753
13.089
-18.0338
0.0658224
35.7192
2.24362
-1.99296
-1.513
36.2031
8.79341
17.3614
29.0678
-13.0936
22.3444
-3.91052
25.1036
0.595468
23.7909
20.6848
29.8606
-0.481551
-39.1357
5.7678
-12.6927
8.5649
0.650689
1.33402
26.7576
30.9414
0.424915
4.62813
-3.68007
28.0533
15.04
18.5826
11.2769
-2.2855
-84.38
-10.7083
20.4843
-33.8982
-10.6992
0.736697
14.2273
9.70401
-8.12345
37.6147
-12.7443
33.107
4.02634
34.635
-5.70149
0.669378
0.90632
0.046542
16.7108
20.0457
2.28755
-10.5761
1.20009
-10.5493
31.1358
-8.76849
-1.27437
-18.4039
-6.37535
4.64424
26.0241
8.7353
0.935518
0.331481
20.2802
40.4792
-12.3432
1.24205
20.1438
-13.4861
8.52337
0.0444137
14.2709
-9.52299
-71.1449
-5.40321
-6.64405
-1.91351
1.83473
-19.0405
-8.144
-2.88019
16.2814
21.8797
16.7345
39.2406
-15.8149
35.5805
-87.0047
33.598
-12.2052
-13.9564
37.8465
6.59443
-6.90941
20.875
-0.878225
23.117
-20.7669
-30.1795
4.61712
-7.39217
-8.449
0.16901
-1.96273
6.79879
26.5942
-11.8633
6.7253
-30.3817
3.41146
-16.4307
-0.542774
-8.55435
-10.6867
-25.848
27.325
0.315997
30.8194
6.83145
-13.8916
4.91081
-21.8388
0.623368
17.6016
26.1592
39.0427
14.1347
17.2305
8.71699
-133.132
37.6248
40.7602
22.437
-13.589
-11.075
-18.8517
18.6423
12.8223
5.98586
16.2282
-9.39436
-0.295032
-19.4835
31.7947
-0.596788
1.21114
-10.7829
19.9045
6.20313
43.9046
40.7908
17.7143
-2.32199
2.66827
-63.4732
6.27689
41.7335
-6.47594
0.420599
14.7258
0.354926
4.19574
-3.46811
-5.42642
5.14802
3.41147
9.31899
0.190868
5.02586
29.5879
4.02226
21.4494
-10.5673
-7.858
36.4458
-15.2947
-2.7685
2.98612
6.56636
0.562232
-12.0531
0.115947
1.00435
2.20558
44.0523
-156.14
-23.4351
-9.33042
-18.349
-3.0635
3.50761
-11.9597
-19.8203
0.314488
-31.4319
-19.931
-9.12535
1.17748
1.80532
0.154282
43.5054
0.23688
5.91039
-1.95633
2.50687
-103.719
-4.63729
29.0193
20.7345
4.36548
-4.52792
19.0748
21.6392
-12.3752
-13.2975
0.566475
28.5809
-9.576
18.1573
-1.15864
32.701
3.2547
-10.2575
0.0800329
22.3703
-6.29895
17.4135
-13.7441
41.5428
-11.7399
-5.24136
-16.7099
7.56212
-11.5259
-13.0515
-11.5325
3.47284
7.85293
-10.7225
-13.9265
-1.18826
2.84116
-6.9952
-19.4053
16.1146
-21.8032
17.5325
-11.3908
22.2251
37.265
19.2296
-109.627
21.1168
3.70874
-1.46789
-1.43794
-8.08981
-15.2164
1.03859
-5.22816
7.83134
-1.80097
-19.4961
1.79063
-17.7156
9.201
20.7802
-22.8893
-11.8382
-8.52157
0.181271
-5.60253
11.4078
-58.0414
-11.9302
20.0662
-10.9153
11.0826
-12.4316
-18.4575
-13.8866
-15.7682
42.8704
4.68747
-9.07965
4.22123
35.1489
36.5826
-10.0131
-4.24738
19.449
-0.135212
1.46948
35.8207
10.6619
18.3045
45.0367
-8.76643
4.30091
1.73595
31.6531
20.4301
21.6155
26.1935
14.0673
0.440582
1.31808
8.09369
4.98799
-86.1297
36.9311
-12.147
-14.9372
0.322145
-7.22253
9.12166
-10.5904
-4.57416
4.51773
21.7438
21.9857
24.2908
-12.2183
31.1673
35.8617
-21.9427
11.8124
-1.11728
-0.267626
-2.37287
9.90359
-10.257
-9.16654
-19.6736
40.4327
-13.6639
24.2713
20.482
28.5025
15.3591
16.3082
-6.95593
0.470133
11.2786
-0.658742
-21.9267
-26.142
2.10111
-11.6596
25.7649
-10.4411
0.164955
1.97939
-106.766
-10.9101
-42.4573
17.9367
-4.06278
1.18768
7.44122
-10.0274
6.16455
-24.9212
-1.18097
21.5373
-14.2836
36.9028
0.250528
39.4017
0.0103796
0.703196
3.53564
17.4082
17.3057
-40.3815
-1.66386
-6.8915
3.10097
14.2003
45.3776
28.518
4.57224
-9.55324
9.92885
-5.55352
24.3214
-2.54883
10.8559
-10.8459
-11.1237
-103.455
5.43593
0.576303
-117.833
11.2823
12.5464
35.5047
38.3524
-55.7566
-13.1695
2.13983
-20.8326
37.4761
-1.6137
-12.2101
7.37942
14.1928
-8.61937
-6.2463
2.89509
-0.155482
19.0828
-8.87573
3.29801
1.55465
-14.3882
-34.4777
-7.44039
-36.5182
-30.345
23.0795
-9.77173
-10.2845
-3.66742
-34.2024
40.9949
15.1727
18.2336
-4.1465
9.4247
-2.71726
6.93992
4.00986
-11.8045
-104.118
37.3796
21.6173
-1.94922
-152.092
43.0286
-11.154
-111.508
-11.0235
9.74717
-11.5996
-9.30729
31.585
-3.20208
18.9671
6.45707
-12.1874
-27.8958
1.43497
10.6597
-40.0177
-1.22558
4.4584
20.1052
-12.1249
-108.422
-4.1785
-5.50436
-23.8344
-19.9151
40.0521
11.5038
-12.7442
8.97346
3.52664
34.5896
10.8985
-121.168
11.5028
26.152
23.4214
-7.30542
17.3136
-8.60991
37.1099
0.636592
20.691
-14.0317
-7.38022
0.110918
-10.7147
11.7328
4.87938
-135.136
-11.8086
25.1098
-11.4702
-3.10287
29.4703
14.2815
28.3344
17.8565
-10.66
0.611202
-1.17049
20.6022
-0.0129144
26.1977
15.9974
36.4597
-11.7349
27.7034
9.0409
36.6993
-12.4859
-13.2291
37.7281
-11.6489
15.6735
-14.0565
32.5125
36.0917
22.3394
-40.6097
18.8374
27.3705
-7.01229
7.216
-9.52652
29.3299
-11.451
-10.8542
-17.329
-21.428
26.7581
8.90984
-26.2722
10.6195
36.042
-14.3247
-5.7581
-26.0672
-13.6675
17.6402
-2.07417
18.4612
19.561
-28.2208
41.4033
-1.47781
29.8969
30.5536
1.6003
0.673304
18.4806
-24.6759
-3.3974
18.0839
15.3276
-9.54477
19.5775
-11.924
33.8769
21.9926
7.02575
-1.93872
23.7695
-9.13299
11.1382
28.3234
4.83881
0.160489
27.0934
22.2939
-9.78872
-111.281
15.6322
23.5314
36.8543
-183.263
39.2373
38.7218
39.7934
-3.58037
26.1919
-13.8541
20.35
28.9712
27.3223
23.2497
31.4865
43.9213
16.8877
-170.868
-2.42245
-85.0968
43.4795
10.6673
-9.94494
-11.896
19.089
31.2724
18.9799
5.38416
-1.79703
30.9927
-23.0594
22.5579
-12.0041
7.83495
-0.214879
4.27247
12.7474
-13.2512
-13.0206
-4.69781
-5.69052
-0.353476
25.6901
-6.51621
3.57115
18.9262
-18.3729
12.6368
0.258465
-18.0002
-14.0699
-152.325
29.8127
32.1201
-11.1534
8.66064
26.8267
24.1326
0.0564344
-10.2526
22.7839
-110.382
29.0594
-17.4962
27.9427
11.5805
1.42233
25.7643
11.63
27.8156
6.60921
7.58873
-7.83064
-104.535
-19.565
-0.532201
27.1478
-11.2671
-8.79157
-11.2275
30.6868
27.5861
5.09218
15.0465
30.6543
-28.0337
20.0136
0.571075
-8.72048
19.8554
-10.0034
-13.3354
-18.7754
-59.2393
-4.46765
-12.9381
0.340582
-21.0374
-155.958
16.5006
37.1277
41.1796
35.0477
-11.4291
22.7736
-14.2489
18.7695
30.6167
1.09954
26.6049
-10.8338
6.25399
-7.23513
-3.27506
29.2075
-18.3371
23.8551
-13.5143
-6.97844
-52.4306
23.5005
23.6631
20.5743
-14.358
19.3094
-20.7909
-28.7833
-30.8521
5.07893
37.6123
-36.884
-4.04483
-11.7813
20.0242
19.1406
-1.96332
11.5719
-14.9218
31.1395
29.1484
-8.90356
-5.80148
30.3897
-9.44901
-15.4238
-0.385812
27.241
31.3015
-13.5996
14.3545
-5.48958
36.3421
-24.6394
-7.3666
-2.15244
34.0201
-1.09506
-6.22617
-10.157
29.2736
15.1653
28.7878
-3.27378
-31.2611
23.123
42.5431
-106.094
18.8249
-2.1725
-29.4556
-2.34328
6.57596
-12.4891
13.9683
-12.0908
11.9558
-9.38554
-8.88408
26.2538
31.9862
18.8783
-23.4961
-7.22619
24.7912
-14.2039
6.03167
-9.09007
9.32288
-21.4858
21.6484
24.6938
-2.65526
23.2305
36.166
-3.6465
16.7013
23.136
-33.3118
11.1725
-7.94104
9.22366
5.61333
14.9782
0.495116
6.04007
-3.46864
-52.4256
30.1211
6.48256
-4.47765
-9.31148
-2.6835
21.3237
-17.4396
39.6478
-13.7768
-67.2796
-7.30686
26.5659
24.1937
28.8255
-80.2211
34.7372
-13.7625
16.3467
2.81144
-20.8311
18.3563
9.03689
-3.28253
13.6286
-86.8596
14.5685
-39.2575
-9.75217
-0.727717
-16.8628
-18.5894
18.3579
35.5023
0.969048
-13.992
27.1237
-21.7011
32.0699
7.86174
-1.20296
10.4478
20.2452
10.5259
-9.31377
-3.15596
-1.66083
2.9775
5.60232
-19.7232
-11.5356
1.18804
12.0054
-4.05233
43.7073
22.7008
20.3271
32.6731
1.15847
23.0941
-11.1076
-56.778
-10.0021
19.7173
42.9277
18.7612
-14.9659
29.952
19.8278
20.1297
0.68371
-2.48272
10.5366
39.9482
-1.88078
-8.66498
25.1235
30.8137
22.4862
20.2333
25.4927
13.9381
-14.2343
-11.0856
22.9175
-135.666
-104.288
20.9059
-10.2621
-1.4042
4.73123
22.9593
23.9588
24.2127
-4.51547
28.5401
29.403
-0.171295
25.5402
21.6448
18.2883
14.615
13.7388
9.20945
-1.21117
26.5275
25.5137
-3.72492
19.0494
-4.67594
0.283904
35.094
26.3845
0.649227
-13.2891
0.538705
27.4064
14.3321
2.6301
-0.0306244
4.00762
-6.51299
4.25209
-12.382
-4.13415
15.0905
-3.06956
-14.4639
-14.6751
33.3741
-12.995
-77.5998
-12.2004
35.5625
-6.05551
3.25382
2.11603
-22.1135
16.0286
18.8951
12.2749
31.3951
15.4123
-0.215181
-111.931
-13.0655
-0.00917844
23.4837
-5.56534
-13.9102
-25.8113
-4.82087
-83.0913
-12.0771
-26.3147
-2.60483
6.32369
20.3791
28.0454
-4.29295
0.297228
31.3655
23.0999
-13.578
-5.84382
-87.9539
12.042
3.045
10.5475
15.9316
-12.8597
-5.68804
-6.21262
3.82077
-12.4371
-126.076
2.6743
-10.055
-80.3111
-23.8503
-12.6582
2.2724
-69.0078
9.86164
-13.97
19.5962
17.172
2.39678
27.1902
-12.7296
35.8885
-7.51129
0.57044
-18.9895
20.2356
11.5623
-112.151
-63.6047
20.5587
24.6556
37.3001
-13.5735
-100.383
-11.9649
-2.27338
0.13069
-13.7118
5.67635
-12.9139
11.4476
-14.1037
15.7675
-2.14966
-0.245335
31.919
18.1736
-19.8374
-0.986313
-22.2897
-171.043
27.1795
41.2528
-119.31
26.21
18.1956
0.0394912
-10.1029
25.9954
24.9181
-26.8985
-5.85855
-10.2345
-12.3745
-18.2847
-14.504
-18.1157
12.4933
-0.190233
22.1621
-14.7626
-24.0947
18.7882
-17.7915
-17.989
-0.7588
14.9436
-22.0732
-10.5204
-26.2988
-13.782
-14.9584
37.9696
-64.9646
-5.24625
-14.1649
22.4952
-45.4955
-4.01395
-22.179
-16.188
-7.64775
23.6492
0.210617
-13.1536
17.3181
-0.732669
-6.68388
-19.6707
-15.4581
14.1025
16.762
20.098
-48.1455
32.2709
-5.45973
-0.152489
1.5816
-40.5741
-11.3918
-14.4432
-11.5683
3.29677
6.68755
0.865397
-6.67407
-12.3378
19.3731
-14.8525
19.301
-16.8608
11.4246
-4.20614
-10.5302
-0.248039
46.0839
-11.5878
-26.8229
-40.5276
-10.4531
20.5283
0.578887
0.59619
0.222989
-27.0418
-13.4209
-147.125
-12.6335
23.3283
-20.7352
1.22353
-28.3496
-2.65267
17.7264
1.34764
7.68579
-7.43059
28.0488
-48.4973
-8.69366
30.3238
6.80604
-42.2059
-6.37299
-17.8895
-11.2944
-6.9517
27.0188
-10.2113
7.06562
-92.9104
-17.6243
-18.6112
-20.3433
-90.8664
11.5783
-3.59727
20.1931
5.98897
-14.4878
34.5459
-11.9511
25.3666
31.6673
-24.8501
-1.13997
21.4309
18.92
16.1933
-9.96005
-14.6719
-15.328
20.6158
3.76022
-11.1445
-19.3032
11.0218
24.2255
-6.01743
-31.5626
-0.452123
29.6998
-23.1759
-26.1481
0.310832
15.9704
-0.972866
-1.96649
32.3812
25.8329
0.648614
-10.9075
26.7588
7.62059
-3.41688
19.3213
-5.70521
-12.5043
-16.7781
-10.9319
24.4423
22.5714
-1.09123
-8.43
0.22496
-11.5361
22.8441
-11.1219
16.0694
28.253
30.5602
-6.57171
20.8176
18.0438
23.5586
25.1648
-5.1713
25.1666
-0.596851
19.6853
10.3172
22.5256
-13.0914
26.1409
25.0046
17.0342
12.1007
-7.83881
14.2604
0.571786
-9.19738
29.1245
28.2554
-9.96922
28.9839
-10.701
-114.607
22.408
22.3561
-19.5189
-2.15061
-87.1147
-10.4687
-23.5367
-10.7101
-18.9344
-7.72111
18.4112
39.6771
27.0804
-4.67829
-10.8554
22.3033
9.13239
-10.2955
-12.2224
-7.12352
-26.9659
-142.839
-104.458
18.3271
0.798797
7.08706
0.346714
0.421541
-4.21038
1.39176
3.62622
9.84218
13.1785
-7.36053
9.4067
-46.5532
-14.1282
13.3609
9.12366
-1.4313
-4.75624
12.6805
-0.308555
6.08375
-7.84483
19.7232
16.7499
34.2122
20.099
-9.72929
-7.47116
-8.52519
-6.71285
-0.219272
0.276825
-2.38376
-9.93731
40.254
2.03071
-12.9221
31.7168
-12.047
-16.0494
-16.7178
-13.0846
-84.2337
3.90806
-18.8552
20.3082
-3.05087
-9.38893
0.550084
-7.213
-12.2504
-10.0764
1.99707
15.2966
-11.8519
-10.9986
-20.7341
7.18123
-11.3986
22.0686
32.7465
-6.55583
22.2276
10.9306
13.4281
36.0165
-12.4483
11.0375
10.8974
7.83562
30.7582
-8.98744
-2.49904
-9.80686
21.8216
32.8112
-9.56562
0.241463
-11.11
-9.91491
9.31278
-8.51325
-22.6888
-7.25682
6.15741
-118.142
5.45521
5.36594
17.1802
3.77927
-180.142
1.45978
-0.488486
-2.40733
35.0324
39.6542
28.7778
41.465
17.2969
23.1532
24.1397
20.4749
18.7647
-9.26482
21.334
-6.76731
-150.506
31.4273
-3.33568
-12.1815
37.409
-0.91648
-13.0472
9.41624
8.17074
25.1976
-35.2554
17.6428
34.2479
-12.1982
-125.062
-21.6786
14.4108
-14.0939
27.4865
-3.29688
25.1598
19.971
-11.3266
24.6054
-8.45335
-134.625
-161.82
-10.601
25.7296
-10.5433
19.8011
-1.04176
-13.6333
2.49507
-4.03605
-27.5321
-7.66215
-67.6492
25.8664
2.36129
-18.5313
-10.855
11.9289
5.49197
-10.6856
8.3865
0.299249
7.90877
-28.2078
10.5454
3.78851
12.1741
-1.81927
19.3501
11.9203
4.75097
-58.058
41.648
-12.7538
-28.5074
19.1398
15.7704
-13.1158
-11.2586
-12.7588
12.4257
10.0325
-10.0931
-2.6778
-4.89581
41.9265
0.939879
-11.6457
2.34037
-8.01062
14.0023
-3.94781
18.7318
11.6167
-14.0882
11.6964
-109.504
16.2206
6.22891
20.8333
13.5081
0.0272303
0.179196
9.26646
22.2264
-1.33294
2.40002
-33.5036
-14.1323
-7.12497
16.5851
-30.7552
9.58581
-46.543
25.8658
-14.6488
-5.63853
27.884
25.2116
8.39687
-12.5791
-73.552
22.1703
-14.3836
25.7234
10.1831
-0.339975
20.4926
4.59161
4.3965
4.65135
-6.99535
-8.66589
12.4561
-9.74845
28.6924
7.15908
42.3919
-2.64331
4.54883
24.8563
1.53435
5.09724
21.86
17.4374
12.2368
-11.0672
-0.412648
19.8336
13.596
4.95046
-11.9348
-2.50095
-12.8114
-13.9658
-7.33294
18.8807
1.98556
16.2644
-3.53461
35.0741
27.114
6.34814
16.6839
5.74444
-50.379
17.9179
13.9999
-0.274935
8.0358
25.8462
22.9819
-0.261708
-11.8689
-28.9725
18.312
8.20677
0.19559
21.7298
-12.753
19.1833
-31.9244
19.8507
8.21692
-0.424696
7.50179
24.1129
-1.46818
21.2439
27.7745
4.37912
-5.06855
9.99235
3.04261
32.7033
-19.4096
29.4349
24.3973
-15.3942
-7.13641
0.210204
-6.79042
-14.3166
-9.05515
18.8222
29.7412
22.9407
30.2235
12.5235
27.2497
7.32919
3.50244
7.76874
1.7008
0.594472
16.0075
1.03174
31.5641
4.87238
-29.5144
13.3599
31.1337
32.94
-15.2617
11.0284
-9.11987
-149.125
8.82349
-5.35952
-11.4598
9.09422
33.1963
-81.1153
-19.1152
-13.8632
7.2862
3.13857
1.99995
19.7112
20.7314
-12.0728
2.34503
1.07175
-13.7982
18.9257
17.7331
19.8448
10.9746
-1.26506
12.9016