/*--------------------------------*- C++ -*----------------------------------*\
| =========                 |                                                 |
| \\      /  F ield         | OpenFOAM: The Open Source CFD Toolbox           |
|  \\    /   O peration     | Version:  2306                                  |
|   \\  /    A nd           | Website:  www.openfoam.com                      |
|    \\/     M anipulation  |                                                 |
\*---------------------------------------------------------------------------*/
FoamFile
{
    version     2.0;
    format      ascii;
    arch        "LSB;label=32;scalar=64";
    class       volVectorField;
    location    "0.4";
    object      U;
}
// * * * * * * * * * * * * * * * * * * * * * * * * * * * * * * * * * * * * * //

dimensions      [0 1 -1 0 0 0 0];

internalField   nonuniform List<vector> 
13486
(
(6.0892 -1.1455 1.58928e-20)
(6.79249 0.627134 6.99402e-21)
(8.45261 0.151481 0)
(5.41371 -2.96782 -8.26597e-21)
(9.64421 -2.14769 4.52807e-21)
(9.13658 0.283204 9.12321e-22)
(10.9853 -1.57686 2.35755e-23)
(8.21974 -2.94559 -8.19454e-21)
(7.89916 -1.59118 0)
(8.18713 2.19611 0)
(6.68062 -3.47027 -5.78229e-21)
(9.09955 0.477001 0)
(5.5594 -1.91896 -1.59727e-20)
(9.7546 1.6102 1.81402e-21)
(10.222 -1.10736 1.99682e-21)
(7.93499 2.30509 -3.7999e-21)
(-0.821866 -2.25045 8.38041e-21)
(3.82815 4.39571 -1.60874e-20)
(9.12682 0.0704355 6.10689e-23)
(6.50466 -0.416068 -1.56036e-20)
(5.61887 -3.3199 -3.36161e-21)
(5.62092 -1.93347 2.05777e-20)
(6.8841 0.625033 -5.60269e-21)
(7.82548 -1.53805 0)
(8.31043 1.59762 1.07455e-21)
(7.79994 -1.40561 -1.77805e-21)
(4.96937 -2.60268 4.82192e-21)
(8.07481 -0.287266 7.14194e-21)
(8.0557 0.00329134 0)
(7.83616 -0.519839 -3.8803e-21)
(5.5392 -2.96741 -2.53151e-21)
(10.3408 0.0862333 -2.1843e-21)
(8.73029 -1.24235 5.50406e-21)
(7.78493 -0.0677855 0)
(8.27068 -2.84275 0)
(7.99556 -0.221344 -2.17947e-22)
(7.92568 0.0519562 1.12869e-22)
(6.71261 -3.08624 8.26333e-21)
(7.72569 0.0850765 -8.22109e-23)
(7.81492 -1.01923 7.65009e-21)
(10.1877 -3.28828 0)
(5.16222 -2.44834 -1.89648e-20)
(8.20031 -0.153397 0)
(8.20585 1.58185 -5.31341e-21)
(8.37081 1.42834 2.10045e-21)
(8.90322 0.213067 2.15091e-21)
(9.10387 -7.80282 3.45615e-20)
(8.1229 -0.0772262 -4.11345e-23)
(7.91476 0.0638952 -1.10718e-22)
(9.27111 -0.269432 3.9725e-21)
(7.71314 0.153856 8.39207e-21)
(7.73512 0.0508724 0)
(9.16091 0.872479 -2.61943e-21)
(6.82846 -2.50461 -1.19155e-20)
(3.35255 1.91762 0)
(9.54562 -2.17966 -3.13245e-21)
(7.80407 0.279194 -3.6123e-22)
(7.65107 0.128338 -2.3703e-22)
(8.60498 -1.12897 6.61116e-21)
(7.84944 0.130851 0)
(6.78105 -3.25515 -6.01191e-21)
(7.90648 0.165545 0)
(10.319 -2.75207 -9.50474e-21)
(5.53374 -3.03676 -4.18379e-23)
(6.55115 -1.52482 0)
(7.98192 0.0168931 -6.32012e-23)
(5.29305 -2.82044 -7.93234e-21)
(6.13222 -0.220909 5.22101e-21)
(7.95007 -1.68811 -4.49735e-21)
(7.73304 -0.0447146 -9.11752e-23)
(5.18223 -2.67079 9.15934e-21)
(3.53865 2.32253 -2.99445e-22)
(7.73541 -0.681857 5.75286e-21)
(2.8827 2.89596 -4.73736e-20)
(7.97693 0.0580009 -1.11764e-23)
(7.97765 0.123607 7.80506e-23)
(8.10425 0.191396 -6.51572e-23)
(10.3216 -1.22234 -8.30121e-22)
(7.79445 -7.08178 -1.26418e-20)
(7.11392 0.216139 0)
(7.82948 0.0418001 1.84882e-22)
(6.81156 1.07661 -4.45222e-22)
(10.2482 -3.20249 -8.47935e-22)
(8.15376 0.25424 -3.73699e-22)
(6.08852 -1.10247 -3.09523e-20)
(6.69154 6.12112 0)
(7.61228 0.624989 4.46004e-22)
(7.72243 0.195909 -1.19518e-20)
(7.44419 0.740509 -5.6873e-21)
(7.6133 3.1941 -4.10095e-21)
(9.93446 0.950045 -9.02934e-22)
(8.71889 -2.51357 -4.13903e-21)
(6.39014 -1.53068 4.06531e-21)
(6.69538 0.0171948 3.989e-22)
(7.64791 -2.3685 1.862e-21)
(8.08228 -0.00248947 -8.75415e-24)
(5.8339 -2.97259 0)
(6.09204 -3.14629 3.7059e-21)
(7.98545 -0.985487 -1.47278e-20)
(0.808813 -3.38784 9.93654e-22)
(8.19032 0.159221 0)
(9.55572 1.75448 6.06268e-22)
(6.06445 -3.00922 -4.17416e-23)
(7.76948 0.112143 3.54312e-22)
(5.74846 5.38729 0)
(1.2537 -3.93157 1.01831e-21)
(7.87424 0.205077 -1.53648e-23)
(7.66817 0.224739 -2.21351e-22)
(8.40843 -7.19203 1.92189e-20)
(8.50781 -3.89513 0)
(7.31434 -3.43309 0)
(11.1902 -0.345743 -5.91155e-22)
(6.89548 -2.44849 1.10108e-22)
(8.08616 0.137899 2.69073e-23)
(4.83093 -0.526174 0)
(7.15557 -3.37278 -7.03535e-21)
(8.24902 1.75415 0)
(7.90099 0.0221657 0)
(7.78837 -0.553643 0)
(7.94618 0.132362 2.82058e-23)
(4.90599 4.51907 3.35213e-21)
(6.67717 -3.29372 0)
(7.4358 -2.18416 0)
(7.66321 0.183626 2.53628e-22)
(7.79325 -2.77684 0)
(7.83345 0.176618 0)
(9.00979 -1.05783 1.65221e-22)
(8.58882 0.464 1.35995e-21)
(7.99149 0.108811 -6.65507e-22)
(6.45498 -1.27615 -1.27222e-21)
(7.7031 0.014222 -5.07407e-23)
(9.3702 -7.72013 -8.71469e-21)
(15.4663 -2.69986 5.74944e-20)
(-3.17389 4.80156 4.85942e-20)
(7.81555 0.132172 -1.39359e-21)
(7.78047 1.43783 -5.68499e-21)
(3.95696 2.14559 -4.53168e-21)
(8.18394 -3.679 0)
(7.943 0.0915402 -2.4878e-23)
(8.28598 -2.43343 -2.9123e-21)
(9.09704 -0.755172 -6.66081e-21)
(9.17895 0.796881 2.15187e-21)
(9.59047 0.425371 0)
(7.30025 0.168923 0)
(8.32372 -0.0433899 8.29875e-23)
(8.90481 -2.85231 -1.0903e-20)
(8.29431 0.695691 -5.34721e-22)
(-2.54654 4.10559 0)
(9.14457 -0.340884 0)
(8.04026 0.0175143 0)
(8.00551 0.214554 1.11104e-22)
(10.3251 -1.60056 0)
(8.01577 0.0436927 -1.93494e-22)
(6.60048 0.97892 -3.78633e-21)
(8.68249 1.00173 0)
(8.38913 -0.208404 0)
(8.44882 -3.77301 0)
(3.75963 -3.2394 2.70333e-21)
(7.22771 -2.86969 1.70105e-20)
(8.16595 0.16036 7.20479e-22)
(9.08184 -0.158975 2.43381e-21)
(7.26833 -2.82373 -2.55529e-20)
(11.1389 2.08838 -1.57197e-21)
(4.61953 -2.31291 8.30343e-21)
(7.81641 -0.0333072 0)
(10.0895 1.41801 -3.39479e-21)
(9.33006 1.53156 -2.05527e-21)
(2.56441 -0.837285 -2.08267e-20)
(8.22383 0.578421 1.38912e-21)
(-2.69253 3.46476 1.32499e-20)
(17.5151 -3.66679 1.90416e-21)
(8.6465 0.905124 1.36137e-21)
(8.00391 0.0662879 -8.52664e-21)
(9.28957 -0.665029 2.52571e-22)
(7.99517 -0.101679 6.18595e-23)
(6.25558 -2.72141 0)
(10.1069 2.92332 5.20707e-21)
(8.94338 -1.05559 9.14199e-21)
(7.92657 0.163076 -1.38492e-20)
(9.50794 0.454362 0)
(8.17694 -1.33842 1.57331e-20)
(8.10834 -0.0222287 5.23275e-23)
(9.5219 -0.209088 -1.39875e-22)
(5.07785 -2.46179 0)
(8.49109 0.214337 9.50795e-22)
(8.51841 -0.0943092 -3.40251e-21)
(8.02235 0.0168019 1.94567e-23)
(7.9265 -0.240959 -1.31215e-21)
(10.089 -3.58899 0)
(6.58592 -3.16532 -9.61039e-21)
(7.94792 0.0927229 0)
(8.111 0.265707 0)
(7.72051 0.106464 0)
(7.95266 3.32241 -8.36712e-21)
(7.44895 0.0988894 0)
(6.58031 -3.45399 -1.54562e-21)
(6.41312 -1.31442 2.93254e-21)
(8.91225 -0.371521 1.44885e-21)
(6.13349 -2.98597 -3.73062e-21)
(9.72542 1.26048 -1.67554e-21)
(5.19038 -2.81006 2.70001e-21)
(8.64911 0.293913 -3.71881e-23)
(6.69342 -3.15928 -9.57555e-21)
(9.65001 -3.97892 1.21777e-21)
(7.98733 0.320249 -9.19465e-22)
(7.64758 0.0843871 -3.87482e-22)
(1.12612 -2.14689 -9.8584e-21)
(7.56173 -0.374266 1.16892e-20)
(7.49788 0.155182 0)
(8.38588 0.0725721 0)
(7.92884 -0.233981 4.48571e-21)
(7.53537 -1.38197 2.92097e-21)
(6.83378 -0.370169 1.43307e-20)
(7.49958 0.208714 1.24865e-22)
(9.11432 0.276293 -1.05211e-21)
(7.13966 -0.195445 3.96841e-22)
(7.82669 -0.543589 0)
(7.90682 3.11993 1.13467e-20)
(6.58982 -1.58494 0)
(11.4807 -0.288944 0)
(-0.579006 -1.81522 -1.73213e-20)
(9.17722 -0.319933 0)
(8.23476 -2.39192 6.82553e-21)
(8.70472 0.0566693 0)
(8.88687 0.857332 -4.7048e-22)
(5.80894 -2.69136 5.87578e-21)
(9.55252 0.453753 -1.85044e-22)
(5.73321 -2.4926 1.18531e-21)
(7.27014 -0.11853 7.7788e-23)
(7.84901 0.54556 -1.60284e-22)
(8.20837 -1.12205 -5.05332e-21)
(8.96662 -2.40617 1.11791e-20)
(8.8875 -1.01432 8.43308e-21)
(5.05875 -2.38029 6.49184e-21)
(5.80854 -2.99182 0)
(5.66283 -2.72182 6.95264e-22)
(7.82277 -0.172206 2.10562e-21)
(8.05299 0.131938 -2.8703e-22)
(5.73971 -2.72541 1.911e-20)
(9.27916 0.0129699 0)
(8.47941 -1.31158 0)
(7.92097 0.265042 1.33145e-20)
(8.05057 -0.0128876 0)
(5.55919 -2.7459 6.35677e-21)
(7.73422 0.253529 -4.43446e-23)
(7.31307 0.120773 0)
(9.18717 0.162879 -1.01261e-21)
(7.65206 -0.958359 6.58286e-21)
(-8.26799 6.00778 1.08766e-19)
(8.2825 1.37781 0)
(6.22397 -3.03409 -1.61634e-21)
(4.72508 -0.4427 2.35348e-21)
(6.73648 -3.28559 8.8885e-21)
(7.69915 0.119132 0)
(7.41345 0.093241 3.57045e-22)
(6.43586 -2.74105 8.15825e-22)
(10.2865 0.257464 1.6159e-21)
(7.00242 -0.177289 -5.01461e-22)
(4.88679 -3.92896 -2.83107e-21)
(8.58359 -1.28478 4.19242e-21)
(7.25035 0.691543 0)
(7.78073 0.336678 4.20569e-23)
(10.2501 -1.14506 -4.69266e-21)
(6.40059 -2.73352 -1.01865e-21)
(9.29144 -3.02613 -4.76317e-21)
(5.60066 -2.77863 0)
(7.48861 -0.0611714 -1.04313e-21)
(5.46644 -2.84499 -3.65355e-21)
(8.11995 0.00496577 -6.42371e-21)
(7.42278 2.12681 0)
(6.4877 2.92096 5.80322e-21)
(7.87058 0.285497 -3.7441e-21)
(7.98008 -0.512069 0)
(8.75377 0.493259 1.80305e-21)
(5.998 -2.8104 7.86073e-21)
(7.76317 -1.04324 -3.69284e-21)
(7.46698 0.0532091 0)
(5.35814 -0.305257 0)
(7.74205 0.314266 -1.2975e-22)
(8.28874 0.553451 1.09516e-21)
(5.52274 -0.377104 1.47327e-21)
(8.63337 -0.85206 -5.50827e-21)
(7.6806 0.2462 8.15607e-21)
(7.90519 -2.05831 -3.608e-21)
(6.55078 -3.26384 7.12304e-21)
(3.92692 -3.75521 9.2322e-21)
(9.25665 -0.739789 8.73395e-21)
(7.76722 -0.0846941 8.75119e-22)
(8.55188 0.843045 8.75053e-22)
(7.93487 -0.0786964 0)
(5.88981 -3.01155 0)
(8.0048 0.199133 -1.48887e-22)
(7.06353 -3.30563 7.18104e-21)
(7.76471 -0.0498908 -1.31912e-21)
(7.62748 -0.109642 2.02062e-21)
(7.87307 -0.254067 0)
(9.21251 -0.0213214 -3.63153e-21)
(8.78929 0.402118 -1.66473e-21)
(7.5814 0.188859 -7.54979e-21)
(10.6456 -2.32466 6.53959e-22)
(10.9896 2.19652 1.86755e-21)
(0.839344 -0.106617 -1.43083e-21)
(8.21104 0.56429 -9.33283e-22)
(10.2632 0.100432 2.10997e-21)
(7.90445 0.08438 -3.7612e-23)
(8.13973 -3.99956 0)
(-0.61399 -0.469448 0)
(8.9085 -0.187068 1.95579e-21)
(7.83928 0.628806 -2.15106e-22)
(7.91868 0.0699146 0)
(9.69215 6.97529 -7.04473e-20)
(4.78694 -2.55171 0)
(9.75966 2.9847 -1.64772e-21)
(11.1052 -0.268518 -5.04366e-22)
(7.55254 -3.18348 0)
(7.70144 1.12327 -3.34523e-21)
(7.86291 0.21667 2.08051e-22)
(7.49852 0.58512 -4.71137e-22)
(7.55733 -0.162877 -1.27448e-20)
(7.44771 -0.131411 0)
(8.03989 0.0858222 6.78728e-24)
(7.94605 0.210397 3.80569e-23)
(7.81434 0.0965818 1.76989e-21)
(6.72511 0.262841 -7.45931e-21)
(3.47346 1.93659 8.53973e-21)
(10.1479 0.802356 1.82604e-21)
(9.19525 -1.36999 -1.51534e-20)
(8.45849 -0.54989 0)
(8.56493 0.421572 3.10252e-24)
(9.40935 -1.4677 -2.77079e-21)
(7.83209 0.121114 1.73432e-20)
(8.81521 -2.50366 0)
(10.1709 1.23423 -1.22757e-22)
(6.30575 1.07993 0)
(11.0602 -1.6742 -1.32683e-21)
(7.89141 -2.29113 -5.00921e-21)
(3.93863 -1.85307 7.93531e-21)
(10.1982 -1.7022 -3.40805e-21)
(8.27208 0.843791 0)
(7.87364 0.317506 -1.11549e-22)
(7.52536 -0.141837 1.19828e-21)
(6.76164 0.230168 7.0538e-21)
(9.48063 -1.49716 1.07436e-20)
(9.63408 -0.296139 4.72622e-21)
(6.43007 -3.14564 -5.0455e-21)
(8.01166 0.0386017 6.44379e-23)
(8.84035 -0.849265 0)
(4.6452 -1.62982 1.86616e-20)
(11.5388 -0.478345 0)
(7.76005 0.227408 3.22229e-23)
(8.79174 -0.537125 9.17568e-21)
(8.60668 0.427537 -1.63505e-21)
(9.03672 0.487159 1.43391e-21)
(5.88882 -2.87681 -5.94355e-21)
(7.65817 0.255561 9.50603e-21)
(7.75183 0.0273165 0)
(5.08675 1.39031 -3.83832e-20)
(8.88753 -0.878676 -3.24303e-21)
(7.75347 0.452202 1.6251e-22)
(7.55155 -1.2014 2.62785e-21)
(8.75878 -0.173974 0)
(9.87566 1.19583 1.15475e-21)
(7.1497 0.350243 1.46261e-20)
(7.79035 0.219349 1.12637e-20)
(7.7247 -0.500742 0)
(8.10664 0.0560219 5.56645e-23)
(7.833 -0.26841 -1.97757e-21)
(10.3157 -8.04795 7.19051e-21)
(6.66681 -0.428741 1.9926e-21)
(8.67267 -0.830117 3.09324e-21)
(7.91641 0.0714921 -3.66417e-23)
(9.01047 -0.665743 0)
(8.82061 1.01511 -1.98336e-21)
(6.28598 -3.03723 1.5727e-21)
(9.28357 0.808356 1.73094e-21)
(8.17466 0.0139294 6.86903e-21)
(7.38688 -0.186734 0)
(7.83054 0.163923 1.99996e-22)
(7.61385 -3.09661 0)
(13.9357 0.380567 -1.22041e-20)
(8.32892 -0.286521 0)
(8.82256 -2.96248 -1.79369e-22)
(5.6675 -0.724254 -4.37101e-21)
(6.2005 2.18532 1.36783e-20)
(10.4547 -8.02608 -2.42418e-20)
(7.42535 0.0800124 0)
(8.9239 0.0850017 -3.14488e-22)
(8.21859 0.914942 -3.43983e-21)
(-7.36086 1.37414 -2.49736e-20)
(4.51309 -3.0448 5.38229e-22)
(6.70628 -0.436627 -2.14285e-20)
(7.98634 -0.60174 1.99634e-21)
(8.63767 0.707275 2.19904e-21)
(6.22085 -1.99114 0)
(5.97574 0.785363 8.25443e-21)
(7.97061 0.0712594 8.31244e-23)
(4.98549 -2.77815 4.71702e-21)
(6.27305 -3.04947 -5.46901e-21)
(-5.43532 -0.236386 -3.00549e-20)
(9.38058 -0.976604 0)
(-7.09321 1.20788 0)
(8.60138 3.39064 0)
(8.23383 -0.319638 0)
(3.43866 -2.53915 -4.60404e-21)
(10.9905 -1.45681 0)
(8.03874 0.903927 0)
(6.88726 0.123411 2.90357e-21)
(9.17323 -1.1192 -9.39306e-21)
(8.8749 -0.760189 -7.26206e-21)
(7.02464 0.802373 2.37681e-20)
(7.93819 0.227177 -1.77954e-21)
(10.3572 5.31669 0)
(8.25486 -0.463956 0)
(7.71965 0.143305 8.02459e-21)
(7.66659 0.0960923 1.40463e-21)
(6.667 3.76036 0)
(5.13611 -2.42331 5.4697e-21)
(9.15363 -3.0487 5.343e-21)
(16.2482 -5.08987 0)
(9.19373 -0.0996503 4.7298e-21)
(7.94661 0.180798 -9.37042e-21)
(7.30689 -1.95327 5.25969e-21)
(4.62104 -1.58386 0)
(7.83446 0.860272 6.63446e-21)
(9.27158 0.0721469 0)
(7.91608 -0.353457 0)
(8.3703 0.575672 -2.27644e-22)
(7.62831 0.27718 4.32919e-21)
(5.35986 -2.83592 -6.31669e-21)
(9.20889 1.66959 -2.29293e-22)
(5.73903 -1.58104 -7.80057e-21)
(8.1312 -0.36445 9.52979e-22)
(8.44012 0.774435 1.59808e-21)
(8.63456 0.860662 5.47733e-21)
(9.52856 -3.03372 0)
(7.99155 -1.01529 3.52955e-21)
(5.55963 -0.445967 0)
(7.92707 0.232721 -1.88794e-22)
(9.28979 -0.602127 0)
(6.2029 -0.19809 1.10952e-20)
(6.48266 -8.93447 -4.53792e-20)
(7.98031 -0.460744 0)
(3.03792 -0.692704 2.04548e-21)
(8.14704 -0.531685 -4.52249e-21)
(7.98108 0.458023 6.44625e-22)
(7.28681 -1.22241 2.06034e-20)
(5.86414 2.0834 -8.6796e-21)
(5.73569 -1.56524 -2.22572e-20)
(13.8198 0.56194 0)
(7.94342 0.0409994 5.57219e-24)
(6.43037 -3.16179 -1.18796e-20)
(8.05089 0.782578 0)
(7.62544 0.594203 5.16174e-22)
(9.13159 -0.208456 -9.06682e-22)
(11.1109 2.31813 0)
(7.89471 0.0310318 0)
(4.83486 -2.42848 0)
(6.3631 -2.68452 3.54252e-21)
(7.88279 -2.07135 4.27317e-21)
(8.69632 -2.55854 3.13584e-22)
(9.39016 2.66685 0)
(7.08105 -0.795213 1.40931e-20)
(8.03413 -0.0178952 -1.07727e-22)
(9.32172 1.494 9.64718e-22)
(6.01313 -3.2366 7.40957e-21)
(7.68271 0.585474 0)
(8.01999 0.07237 0)
(3.67696 -0.764554 -1.2638e-20)
(6.13404 -1.94297 -5.50263e-21)
(7.99886 -0.912358 0)
(8.02795 -3.74498 -6.56345e-21)
(7.98893 0.0803597 9.22104e-23)
(7.94558 -0.000178611 -2.78974e-23)
(4.22295 -1.9422 0)
(7.4155 -0.00163412 6.10335e-22)
(7.95927 0.0452868 -1.15892e-22)
(9.38171 -0.0952255 3.49282e-21)
(7.76196 -2.37903 0)
(3.89244 -4.02252 -1.42965e-20)
(8.7167 0.341908 1.81807e-21)
(8.11712 0.216957 1.33568e-21)
(8.0835 -0.0560747 1.97514e-22)
(10.1977 1.24355 0)
(7.03075 0.959996 -6.35531e-21)
(10.4368 -0.892164 -5.92396e-21)
(-3.49829 -1.25925 3.95936e-21)
(7.94726 0.188423 0)
(5.44019 -3.32377 -5.52262e-22)
(2.83892 -0.626706 0)
(8.13787 0.216863 -5.51581e-21)
(7.87254 0.0886378 2.54464e-21)
(7.47509 -0.00780357 -1.63592e-21)
(6.34355 -2.72893 0)
(8.03154 -0.13301 -7.44048e-22)
(5.09248 1.36355 2.27555e-20)
(9.48417 -3.03273 0)
(6.71184 0.0268621 9.01276e-21)
(10.5835 -2.43195 -7.49509e-22)
(8.30388 0.12619 0)
(5.458 -2.88579 1.56938e-21)
(7.28199 0.278708 -5.05381e-22)
(8.09064 0.0337547 0)
(3.10928 -5.34839 1.3876e-20)
(7.34496 0.578371 0)
(7.45412 -3.35552 6.94208e-21)
(6.26098 -3.00095 3.05563e-21)
(8.10307 0.000792364 -1.69829e-23)
(9.0651 0.222901 -1.8973e-21)
(5.95983 0.69914 4.39701e-21)
(7.26494 -1.25466 -7.53608e-21)
(7.53164 0.0862834 -4.73494e-22)
(7.46214 -3.28289 8.40285e-23)
(8.84473 -0.794418 2.98124e-21)
(10.0939 1.23054 6.82589e-21)
(9.07708 -4.0694 0)
(8.02912 0.0933086 -6.08765e-21)
(15.2948 -4.05469 -2.64409e-20)
(5.74568 -0.457035 0)
(8.02142 0.0654418 1.66283e-23)
(7.6849 -0.217167 0)
(5.36975 -1.64017 1.95489e-20)
(8.65248 -3.20265 0)
(8.01358 0.11712 5.70145e-22)
(8.84568 -0.474062 -5.31012e-21)
(5.48086 -2.74255 2.89409e-21)
(5.36947 -2.72059 5.70251e-21)
(9.02489 0.250917 -3.50096e-23)
(8.18168 -3.90527 5.82514e-21)
(7.46498 -2.19228 7.5742e-21)
(6.30785 -1.533 0)
(5.18319 -2.50323 -3.67759e-21)
(9.64164 -2.87545 -1.08636e-21)
(5.37832 -2.62895 -4.21892e-21)
(7.84469 0.0335624 2.04463e-23)
(6.21673 -2.45436 0)
(8.23696 0.0594699 -2.04952e-23)
(5.33095 -2.70974 0)
(6.02048 -3.05371 -1.05684e-23)
(8.50445 -2.88026 -6.31725e-21)
(2.4412 -2.47628 0)
(8.53653 -2.255 2.13314e-21)
(6.41034 -1.54221 0)
(11.2084 2.24571 0)
(7.25088 -3.42621 -9.12393e-21)
(6.21441 0.86177 6.65028e-21)
(7.056 0.444986 0)
(7.25135 0.402954 -4.01773e-21)
(8.91632 -2.82856 1.25482e-20)
(6.32816 -3.02259 6.99521e-21)
(12.0257 3.69982 0)
(8.34351 0.135255 0)
(6.41865 -3.18722 -5.18001e-21)
(7.48884 -0.584808 0)
(8.37888 0.189554 0)
(6.72669 -3.21541 -6.63919e-23)
(8.45046 -1.58038 -1.01965e-20)
(7.28626 -1.82099 6.43852e-21)
(8.56563 -1.2545 5.88855e-22)
(5.11802 -2.55999 7.64504e-21)
(7.42597 0.323369 3.03563e-21)
(6.47815 -1.61364 0)
(8.73512 1.26999 -6.53801e-22)
(6.09303 -1.06144 0)
(8.43248 0.0717804 0)
(8.02734 0.194438 0)
(8.86326 0.405721 -1.24991e-22)
(7.4654 -0.290841 5.88029e-21)
(8.05225 0.0315174 -1.83584e-22)
(6.63659 -1.64228 0)
(5.14576 -2.54357 -4.61691e-21)
(8.49195 3.32048 6.15072e-22)
(7.79688 -2.81019 7.14601e-22)
(7.85335 0.0999347 -1.25098e-21)
(7.74022 -0.950621 5.90964e-21)
(7.98813 0.168679 -5.44206e-21)
(7.14293 -9.37671 0)
(8.69526 0.557861 0)
(6.58909 3.16047 0)
(5.50182 -2.44392 -1.42925e-20)
(5.54253 -1.84284 -2.34607e-21)
(2.70423 -1.85032 0)
(8.81873 1.2072 0)
(8.89632 1.10493 2.00117e-21)
(8.27539 0.300026 -1.54476e-21)
(7.83771 1.93994 5.57434e-21)
(9.87339 -3.96249 0)
(6.33253 -3.36551 -2.00972e-21)
(9.00452 0.163014 -7.08102e-22)
(5.99748 -1.81598 -1.31064e-20)
(8.70148 0.299498 -5.97954e-22)
(9.21507 1.41454 -3.39682e-22)
(7.23325 -1.84016 2.2219e-21)
(5.44235 -2.41219 2.46701e-20)
(6.70398 -0.512115 1.78609e-21)
(8.13512 0.0999463 6.88996e-23)
(8.05473 -0.0602089 -1.56438e-21)
(7.21329 -3.51125 -1.88393e-21)
(7.24579 0.234393 1.9447e-22)
(7.01179 8.1393 6.00415e-24)
(7.8116 -3.68575 3.51164e-21)
(8.29449 0.355392 0)
(7.89697 0.629185 -1.41835e-22)
(8.11559 0.0979892 -3.82333e-21)
(11.0194 0.568384 3.92941e-21)
(5.86947 -1.64979 -1.19817e-20)
(7.76964 -2.7432 -7.68981e-21)
(8.55768 -0.265122 1.40492e-20)
(8.53918 -0.0028201 -8.07389e-21)
(8.2778 1.25902 -9.91749e-22)
(9.45149 -0.906427 -4.59213e-21)
(5.1165 -0.927308 -2.63414e-20)
(8.16674 -0.0201177 -2.78562e-21)
(5.08353 -1.1344 0)
(5.72799 -2.5449 -5.12642e-21)
(7.96399 0.0801587 1.36462e-20)
(8.03084 0.171208 1.43136e-23)
(5.44073 2.31336 0)
(8.24369 -3.78862 0)
(8.25863 1.35415 4.59917e-21)
(4.61987 -0.846768 1.64541e-20)
(6.42956 -1.88735 -3.23862e-21)
(8.88277 -2.9102 -3.57786e-21)
(9.23613 -1.44984 8.29706e-21)
(11.5327 -0.524755 0)
(8.2287 1.40644 2.41996e-21)
(1.89379 2.71857 2.41525e-21)
(10.1259 2.46685 5.24322e-21)
(8.07898 -1.08893 -8.93002e-21)
(5.23566 -2.57531 -1.21625e-20)
(7.60962 -0.819832 -5.78692e-21)
(7.80564 -0.961973 1.84043e-21)
(9.28897 3.57811 0)
(7.61068 -0.235991 -8.49676e-22)
(7.69899 -0.166204 1.49532e-21)
(7.84115 -0.124325 1.1378e-22)
(4.6054 -2.25961 2.30064e-20)
(7.9255 -1.12772 1.34322e-20)
(7.92097 0.271154 -3.13319e-22)
(6.31963 -3.02075 -4.25155e-21)
(7.72753 -0.0659087 -2.23209e-21)
(8.1592 0.0133716 2.46206e-21)
(6.54625 -3.27752 -9.21942e-22)
(9.78855 2.75396 -6.36945e-21)
(2.37682 -4.44829 -1.50772e-20)
(5.86666 -2.80801 -7.54183e-21)
(8.02546 0.034852 0)
(7.96148 0.21773 -3.93265e-22)
(6.54601 -3.00464 -2.35003e-21)
(5.64136 -0.862895 2.34105e-20)
(7.94629 0.00362158 0)
(10.5038 2.39411 -1.55479e-21)
(5.24865 -2.14601 5.60494e-21)
(7.63169 -0.153685 -1.36266e-20)
(6.25053 -3.04698 -5.06238e-21)
(7.12128 0.606557 -8.72081e-23)
(8.7546 -0.588133 4.94807e-21)
(8.85501 0.153537 1.89622e-22)
(7.55081 -3.41955 -9.54419e-21)
(8.09006 0.0403243 2.17008e-22)
(5.77508 -1.89389 -5.2007e-21)
(7.96513 0.289228 3.63703e-21)
(8.26789 -0.309168 -4.04216e-21)
(8.30867 0.183813 -1.31065e-23)
(8.99047 -0.251371 -8.78614e-21)
(5.11525 -2.20289 -1.08299e-20)
(8.06767 0.0258275 0)
(6.09275 -2.69047 2.99306e-21)
(8.19179 -0.000814132 1.0402e-21)
(9.40891 -1.2446 6.29025e-21)
(8.82619 -0.086143 -1.58407e-21)
(9.04654 -1.57975 -5.20618e-21)
(7.59827 0.11189 -1.0129e-20)
(8.2342 0.85866 1.20531e-21)
(4.88595 -2.38953 -5.62196e-21)
(8.23459 -0.0417985 0)
(7.80381 0.232512 -8.71156e-23)
(8.50904 0.574721 1.67583e-21)
(6.2258 -2.39613 0)
(8.56992 0.327993 2.08399e-21)
(8.41467 0.410272 2.03384e-21)
(8.59455 0.126998 1.42524e-25)
(10.6304 -3.90531 8.80663e-22)
(7.7255 0.101858 0)
(7.32989 1.1769 1.12046e-20)
(8.0191 0.0690283 4.05843e-22)
(7.60664 -3.56205 7.77839e-21)
(8.06734 -0.874927 0)
(6.18554 0.877513 -1.92527e-20)
(6.65175 4.58967 2.08585e-21)
(10.7943 4.62402 -1.2786e-20)
(5.16726 -0.964663 2.57617e-20)
(8.06813 -0.0256221 3.06377e-23)
(5.54515 -2.77791 4.41148e-21)
(7.60357 -0.402715 -9.24507e-21)
(8.20212 -0.905339 -5.20438e-21)
(7.32906 0.394973 -8.43531e-21)
(8.14727 0.0555085 0)
(8.27798 0.0519513 -5.90063e-21)
(-2.25799 0.0257255 2.08272e-20)
(2.43496 5.4908 0)
(7.53426 -1.36681 0)
(8.0121 -0.0566316 0)
(-2.30629 -1.63524 0)
(8.07932 1.008 0)
(4.934 -0.885489 0)
(7.41094 -0.225484 -4.579e-24)
(8.51633 -2.51174 -5.47357e-21)
(9.67808 0.416782 0)
(7.27808 0.951638 1.66909e-20)
(6.98653 1.82718 3.22628e-22)
(8.23675 0.83997 3.10884e-22)
(6.62137 -3.04937 -1.27873e-21)
(4.98364 0.000695672 -6.90348e-23)
(5.32019 -2.63085 4.43358e-21)
(9.09188 0.0409687 -3.08948e-21)
(8.80398 -0.0714642 5.46723e-22)
(8.24433 0.936699 -3.06051e-21)
(7.42648 0.652149 -1.12262e-20)
(8.2364 3.03293 -2.94633e-21)
(13.4719 1.05714 0)
(5.43301 -3.1336 1.40127e-21)
(5.43179 -1.71186 -2.14022e-20)
(8.02027 -0.246905 -1.82031e-20)
(9.71841 -2.78537 -5.73301e-21)
(8.26142 -0.155715 1.46178e-21)
(11.1164 -2.41372 -5.54292e-22)
(8.66205 -1.31601 -1.14349e-21)
(8.55681 -2.15583 -7.39553e-21)
(8.04515 0.98304 3.56539e-21)
(15.415 6.87505 0)
(7.50051 0.0855971 -3.85373e-22)
(6.95556 0.0579345 -2.69819e-21)
(11.1547 -1.17908 0)
(7.78276 0.204141 0)
(7.90596 -3.56278 -6.17522e-23)
(5.75437 -2.84881 4.77579e-21)
(7.13558 -0.295358 -1.99639e-21)
(7.79633 0.0366066 0)
(7.40667 -0.296241 -1.20329e-20)
(7.37529 0.604183 -2.17211e-21)
(5.98614 -2.74349 1.87197e-21)
(8.47729 0.230296 1.19743e-21)
(5.39276 -2.68516 0)
(5.28714 -3.43814 1.58662e-21)
(8.75978 0.337732 0)
(7.45765 -0.139912 9.02909e-22)
(9.90849 1.09045 -9.81446e-22)
(7.77006 -0.0841241 7.77196e-24)
(9.30275 1.52496 3.6063e-21)
(11.5488 3.08368 -1.31898e-21)
(7.20441 -2.08376 1.57096e-20)
(4.64962 -2.76794 0)
(6.2707 -1.18007 -2.97592e-21)
(6.23641 0.848165 0)
(9.64814 0.0928026 -1.62401e-21)
(5.94773 -2.78912 4.11077e-21)
(7.6405 -1.4391 3.44614e-21)
(7.85344 0.223452 -8.9092e-24)
(6.47994 -2.7817 -5.23082e-21)
(6.86428 -3.21709 -8.98379e-21)
(5.56212 -1.74546 -1.24042e-20)
(7.91908 0.0825946 -3.37057e-23)
(6.29484 -1.10673 2.42851e-21)
(5.1784 -2.24735 8.88188e-21)
(5.83006 -1.7913 1.34407e-20)
(5.5573 -1.93957 3.20016e-21)
(6.65858 -1.24839 -1.43487e-21)
(7.64011 -2.41423 7.67974e-21)
(10.9754 -9.49778 3.45263e-20)
(7.83129 0.0723517 9.12573e-23)
(6.90674 1.8123 -3.19964e-22)
(8.95448 0.846061 1.09693e-22)
(9.47346 -2.23069 0)
(-4.15189 0.831654 -4.01701e-20)
(8.18491 -0.145287 -4.74922e-21)
(8.22099 0.512133 0)
(9.72375 0.221809 0)
(5.64736 -0.641116 -2.07909e-21)
(8.01825 -1.41586 -5.04412e-21)
(9.34149 0.465719 3.5451e-21)
(8.3743 -1.5657 1.3391e-20)
(8.22299 3.1839 3.04129e-21)
(8.60988 -0.0119484 8.72027e-21)
(6.04021 -2.77728 2.20497e-23)
(7.26211 1.94539 0)
(5.98349 -1.93518 1.27823e-20)
(6.79573 -4.70706 2.28145e-21)
(6.50457 -2.7958 3.99371e-21)
(7.20052 -2.74526 2.63101e-21)
(8.43979 -4.01143 -1.43456e-21)
(8.76931 0.155907 4.55646e-21)
(7.75157 0.234768 7.82178e-23)
(7.75666 -0.48181 4.10949e-21)
(6.11247 -2.79111 -2.70508e-21)
(9.38916 0.358427 -2.65447e-21)
(7.81115 -0.0052182 4.6951e-21)
(5.04676 -1.12654 -1.05943e-20)
(7.69228 -0.444519 7.62138e-21)
(8.13432 1.38398 0)
(9.03793 0.612426 -2.84972e-21)
(7.94571 0.211014 1.01463e-21)
(6.26059 -1.41412 -4.08399e-21)
(8.72975 6.35043 2.35587e-21)
(7.56715 -2.3566 5.7353e-21)
(7.86677 0.172143 2.07183e-21)
(5.8642 0.181089 -1.50274e-20)
(11.0569 -1.31777 0)
(7.85185 0.195452 7.01953e-23)
(8.64053 0.347064 8.23558e-22)
(7.35881 -0.165645 0)
(5.89185 -0.194231 8.68072e-21)
(8.47471 0.276174 0)
(6.88526 5.61668 3.18288e-21)
(8.69222 -0.378016 0)
(7.47179 0.0956223 0)
(8.85116 0.476033 1.21945e-21)
(8.91561 0.0626414 -1.1379e-21)
(9.78353 -0.547711 -8.16457e-21)
(7.64387 0.542846 -4.97962e-21)
(6.64266 3.30498 -3.67741e-21)
(8.00135 -0.10579 -1.68907e-21)
(8.09783 0.921963 0)
(8.94106 -4.63199 -2.57297e-21)
(9.20964 0.0985447 2.42123e-21)
(7.55305 -0.180465 -1.91568e-21)
(9.54856 -2.23636 0)
(11.0607 0.480803 5.86919e-21)
(9.81455 5.4724 7.48424e-22)
(7.99235 -0.0913402 6.96164e-22)
(6.87057 -2.46107 0)
(6.83722 -3.20807 4.66619e-21)
(8.16513 0.600638 0)
(7.76676 -0.416334 -2.1023e-21)
(-7.72604 6.85982 0)
(9.75329 -3.90062 0)
(6.81465 -0.549631 0)
(8.48652 -3.1682 0)
(6.39668 -3.52996 -1.03079e-21)
(6.29354 -2.63125 -7.86216e-22)
(7.82606 -0.326518 -8.80508e-21)
(5.50733 -2.66986 -3.32448e-21)
(5.49821 -2.32919 0)
(5.67314 -2.36634 -1.99311e-21)
(-5.60846 5.16247 -1.0787e-19)
(6.82722 -3.14974 0)
(6.21777 -2.22957 -1.3746e-20)
(8.09565 0.125407 3.16819e-23)
(8.90501 0.827381 -7.05644e-22)
(10.1469 -3.36351 8.16669e-22)
(7.23565 0.68193 0)
(9.2184 -2.88864 0)
(10.323 -1.68552 3.76832e-21)
(7.50782 0.20784 6.88537e-23)
(7.94675 0.0511158 5.29289e-23)
(5.67486 -0.550313 1.25206e-22)
(7.91273 0.123999 4.40112e-22)
(7.9162 0.118736 7.29041e-23)
(7.9878 0.593878 5.24979e-21)
(7.91942 0.150424 -5.26391e-23)
(7.8597 -2.20785 0)
(5.25691 -3.16333 0)
(8.05 0.0450425 0)
(8.13983 -0.0454545 0)
(7.10456 -1.31871 5.6378e-21)
(8.91632 -0.469142 0)
(6.6814 -3.41259 1.0887e-20)
(6.90622 -1.88761 -1.11023e-22)
(5.70617 -1.87741 -2.03127e-20)
(7.28033 2.07142 -1.25005e-22)
(6.13773 -2.62858 -1.6742e-21)
(6.83964 -3.68704 -6.00399e-21)
(7.43523 0.067416 1.66677e-21)
(6.22388 -2.86869 -2.51437e-21)
(7.82754 0.16985 -1.92301e-22)
(8.96286 0.190783 0)
(9.91489 -1.31322 0)
(7.49099 1.08375 0)
(9.1065 -1.60984 2.74017e-21)
(6.50231 -1.40524 0)
(7.49928 1.8537 0)
(7.98838 0.146726 0)
(7.25128 -1.78617 6.02277e-21)
(8.19737 0.643776 -4.49791e-21)
(7.97543 0.235405 0)
(7.42472 -0.426154 -1.91098e-21)
(7.86561 0.863943 -5.23618e-21)
(10.129 2.42818 -1.11813e-20)
(6.82274 -3.08986 8.30874e-21)
(7.87828 2.18862 1.58268e-22)
(7.23828 0.229798 -4.54127e-23)
(7.67594 0.207436 1.2752e-22)
(7.33344 0.0582535 -8.41095e-22)
(9.0047 0.111938 1.78693e-21)
(7.94747 0.0915612 2.53735e-23)
(7.24399 0.259535 -8.37141e-21)
(7.99888 -0.163356 0)
(9.29605 -1.26685 -4.84032e-21)
(7.81366 0.232974 8.37389e-21)
(3.03693 3.3331 6.47279e-21)
(8.81664 -1.20697 -3.29327e-21)
(4.73864 -0.936622 -1.78981e-20)
(9.16172 0.195195 -3.88449e-22)
(10.7375 -0.701101 8.56997e-21)
(7.94235 -0.163636 0)
(8.0318 0.812776 -4.06615e-22)
(7.89621 0.0874478 -7.30191e-23)
(7.41879 -0.0378954 1.71142e-21)
(5.64646 -3.33089 -8.45481e-21)
(7.96601 -0.104324 4.39892e-21)
(8.13019 0.111296 -7.01077e-23)
(8.02997 0.167008 -1.22618e-22)
(8.09595 -0.00770773 0)
(7.97858 3.12022 0)
(6.49074 -3.05739 1.03594e-20)
(5.94319 -2.89653 5.46774e-21)
(7.83066 0.0132198 -3.60349e-23)
(7.75034 0.114209 1.66153e-20)
(8.0432 0.759673 1.30316e-21)
(6.30112 0.763025 0)
(7.36538 0.264809 0)
(6.71212 -1.56807 -7.00815e-23)
(8.69983 0.190936 2.04736e-21)
(8.06387 1.95341 7.27853e-21)
(9.51339 0.1879 0)
(7.88979 0.219427 0)
(8.6904 -2.40088 1.01966e-20)
(8.16272 -0.692031 7.15938e-21)
(2.51313 -1.16213 -2.56773e-21)
(7.967 -0.0953525 0)
(9.94828 -4.17764 4.34529e-21)
(7.45414 -0.635434 -7.58446e-22)
(6.50633 -3.01089 -3.22877e-21)
(7.98023 -0.197824 -9.52791e-21)
(8.6753 -2.27563 0)
(8.35345 -1.55804 4.00516e-21)
(6.9075 -2.37479 -4.05634e-21)
(1.82806 -0.837988 0)
(8.03635 0.15318 -1.5948e-22)
(7.68526 0.558106 -5.49098e-21)
(7.75118 0.0751565 5.93488e-25)
(10.2792 1.06752 2.41157e-22)
(12.845 9.98076 2.14774e-20)
(8.12055 0.0862735 0)
(4.70864 -1.69271 -1.269e-22)
(8.07569 0.794728 -1.26349e-21)
(7.51762 -2.99099 -7.61619e-21)
(8.25874 0.873936 3.62415e-21)
(4.58799 -3.07736 5.51767e-21)
(7.80852 -0.115267 -2.07782e-20)
(7.99145 0.224699 2.41843e-22)
(7.69236 0.234179 4.88117e-23)
(7.14776 -1.63351 0)
(7.58843 0.0441434 -5.21641e-22)
(5.07925 -2.30354 7.16767e-21)
(8.6816 -0.130559 -1.02965e-20)
(7.8788 0.276987 -7.70043e-21)
(7.89207 -0.261923 1.97242e-21)
(6.82665 -0.839632 2.04844e-20)
(7.92673 0.150017 -2.18941e-22)
(7.19033 0.205957 4.83351e-21)
(7.93391 0.0509931 1.62604e-22)
(8.46038 -1.24539 -6.83472e-21)
(10.0104 2.75708 -8.81445e-21)
(6.70377 -1.90674 2.53229e-21)
(8.65228 -0.351128 0)
(7.6287 0.767406 0)
(5.38871 -3.1358 0)
(5.6522 -1.73089 1.56065e-20)
(7.69287 0.0880505 -1.20271e-20)
(7.37765 0.787712 0)
(6.42288 -1.46343 -1.20566e-20)
(7.28201 0.577072 0)
(7.24929 -1.21975 -9.20228e-21)
(7.57038 -0.128702 -1.97953e-21)
(7.75816 -2.00932 -8.42558e-21)
(8.0895 0.182447 0)
(7.69788 -0.1837 0)
(7.73748 0.0198184 1.1668e-21)
(9.44183 0.229941 1.84094e-22)
(8.55269 -0.332632 3.53706e-21)
(10.3256 5.38573 -1.26099e-21)
(10.028 0.342295 0)
(7.24574 -2.67087 -4.34885e-21)
(1.95582 3.68494 0)
(3.14849 2.14374 -8.47719e-21)
(11.5485 2.8296 0)
(8.05099 -0.000975924 1.0361e-22)
(5.15318 -0.820348 6.83966e-21)
(6.33471 -0.697746 6.66729e-21)
(7.66738 0.173483 -1.17436e-21)
(6.82095 -1.77322 -8.68547e-21)
(7.82182 -0.730074 1.81491e-20)
(8.40253 0.860681 -1.44169e-22)
(10.7536 -2.64864 7.87076e-22)
(8.12282 -1.81164 -4.18435e-21)
(0.716209 1.82429 3.23142e-20)
(9.98904 0.696743 0)
(7.79189 0.0845964 1.62794e-22)
(6.53703 -1.69723 0)
(7.84106 0.217967 -7.01149e-23)
(7.38047 -2.69298 -2.24814e-21)
(6.87637 -0.649346 -6.79297e-21)
(8.30477 -0.0993062 -6.18023e-23)
(9.00087 -0.0736068 -3.24659e-21)
(6.74119 -0.297364 1.37174e-20)
(9.05123 0.0140253 -3.28113e-21)