/*--------------------------------*- C++ -*----------------------------------*\
| =========                 |                                                 |
| \\      /  F ield         | OpenFOAM: The Open Source CFD Toolbox           |
|  \\    /   O peration     | Version:  2306                                  |
|   \\  /    A nd           | Website:  www.openfoam.com                      |
|    \\/     M anipulation  |                                                 |
\*---------------------------------------------------------------------------*/
FoamFile
{
    version     2.0;
    format      ascii;
    arch        "LSB;label=32;scalar=64";
    class       volScalarField;
    location    "5";
    object      p;
}
// * * * * * * * * * * * * * * * * * * * * * * * * * * * * * * * * * * * * * //

dimensions      [0 2 -2 0 0 0 0];

internalField   nonuniform List<scalar> 
13486
(
18.7169
15.5425
4.73559
-1.8281
6.29119
0.896647
2.67166
10.6949
13.1737
9.19186
-48.1339
5.73654
19.515
1.12548
4.43932
9.65204
-33.6132
-42.1023
6.5576
17.1343
-4.96394
19.3402
15.2876
-6.78028
7.9876
-4.76122
-37.9172
0.546458
0.278939
3.38632
-17.1983
2.50586
-7.49629
6.23829
10.7448
0.265006
0.696716
15.4004
-35.0667
13.2181
0.273332
20.1065
1.38034
8.04995
7.92623
5.73686
-30.6865
0.39631
0.670787
-2.51064
11.7993
-7.6867
3.67978
15.7179
-68.6326
6.67257
1.71805
-11.429
-6.55801
0.615199
-42.5841
0.797811
-21.3374
-5.60252
-26.5212
0.72038
-3.34377
18.8954
13.0975
-1.50362
-3.14275
-63.8945
13.6021
-29.1792
0.872075
1.5462
1.02451
4.29747
-35.2933
-14.8525
0.162132
15.8456
-22.5665
5.10071
18.7773
12.671
-8.12298
11.2905
13.2938
10.9239
0.661623
9.39832
17.9813
16.4179
13.4777
0.107086
-37.6901
-7.10463
13.2457
-34.2614
0.307292
1.61444
-7.91065
-9.96009
14.7673
-34.3638
13.2438
-54.0279
-32.7972
8.48576
12.7306
0.262313
15.6991
1.38222
21.8266
12.699
8.26496
6.89431
13.6944
0.779188
-43.6209
-42.2084
14.1031
-37.1236
12.4138
-8.36015
9.70793
4.76165
7.21191
-38.2728
-7.40678
-29.5347
-25.0383
-29.7088
12.2362
11.3515
23.5858
8.63483
0.720875
11.1547
-5.59465
4.05812
4.00211
-18.2077
2.02858
-23.7015
6.03787
21.6754
-2.9927
0.254079
8.41111
4.28981
0.129163
16.1729
5.31768
4.73019
6.5523
-1.58218
14.0732
1.7053
-1.58435
14.0668
-6.58069
19.8998
-8.54813
-0.969095
2.6962
25.3013
6.10126
-29.7518
-26.5519
5.37176
9.72145
7.42792
0.194224
-21.7919
0.396035
-7.67969
13.2974
4.11211
12.5784
1.18914
6.01706
-27.1557
5.74003
0.445556
-0.0428883
4.45856
0.435472
13.723
0.755956
3.62563
-15.9229
18.2339
-17.9002
-46.4482
-32.2848
-1.24635
17.1781
-0.248839
-18.7249
4.64105
15.3671
5.13528
1.97
-13
-52.0715
14.4063
-19.7352
5.6268
2.63111
-5.05243
16.946
13.2335
0.851377
8.09562
2.67853
11.0107
17.1572
-11.6548
-33.5508
-3.22233
11.3974
-1.59406
3.80374
18.1233
-0.970824
-22.4651
11.3877
-10.5293
12.4538
-10.4696
-5.94435
20.6018
-7.62401
17.5911
6.1991
3.84901
17.825
6.78853
-7.04046
9.62707
1.65825
16.8786
-55.2146
14.8867
7.54494
-0.809505
-29.1759
8.75762
-17.6065
22.0599
12.0024
-52.1714
0.798479
-22.6989
2.30969
2.3246
-0.593721
-6.81767
14.4394
-41.5697
4.32202
-22.0393
6.66211
-27.5304
9.39193
-13.9626
12.9763
-26.9853
15.1429
12.9977
2.84385
5.35244
18.2312
-2.13837
-0.588243
-131.88
-79.4301
5.90379
-128.139
11.2441
13.4086
-15.9704
-38.1548
-37.6517
-6.19378
6.52111
4.1468
13.0306
-6.68645
-3.14345
13.5295
12.2784
6.79069
5.49085
-1.59203
5.67072
13.6698
2.00818
-7.07661
-53.6143
6.35586
2.68136
0.510101
4.07354
-4.5428
7.53226
-13.4269
0.804343
-19.4158
-1.24995
2.47965
0.213023
-44.2202
11.5138
-2.59359
13.3158
14.4577
8.10294
0.725898
-5.14638
13.1894
16.5351
23.2109
0.366567
8.38426
11.063
6.08688
7.78847
11.3647
8.97911
-0.605981
17.9124
1.04158
12.8274
22.4271
4.48763
8.99311
-41.3313
11.762
16.3693
7.55426
6.09693
-26.7359
0.16605
9.22337
21.6454
-11.7497
-4.56444
9.23572
5.88204
5.43774
-37.1946
13.5785
0.408684
-29.5351
9.68484
-21.7664
-4.75305
6.56049
0.418865
14.5914
13.0324
2.85717
0.0517048
6.09264
-27.2307
17.2888
9.7996
1.05898
9.35437
4.01017
-19.3505
1.46666
11.919
13.2064
-12.5107
-42.2271
-17.9732
12.7955
8.50227
19.6564
15.4572
-26.9779
4.18338
3.06105
8.84332
-30.1891
-10.1519
16.6794
1.58804
6.77744
17.8566
18.8934
0.855629
-2.0622
-18.8201
-31.1144
-6.3756
-30.5874
7.09586
12.1443
-6.21669
2.48977
1.9466
16.2932
-7.3397
9.81003
14.9342
8.50261
-0.47483
-0.16555
13.6873
13.1421
17.8579
-25.7917
6.89617
-26.6255
6.88132
13.2948
-10.6205
21.711
9.32823
-1.45728
5.23156
4.54223
13.4074
-38.0906
3.17986
19.2488
12.191
6.64465
4.55492
5.48939
-3.04713
19.6031
-5.25722
7.61606
18.6168
-29.1225
2.14933
-30.3281
-0.206083
-3.63205
15.2519
17.086
19.3077
-18.0157
0.691297
-27.4403
9.17264
13.4944
-2.30453
-4.68866
12.9291
-16.1193
-21.3644
-15.4063
-21.8791
2.99728
16.1224
0.223606
3.35254
-2.40282
12.8029
0.209027
23.7599
18.1117
13.4128
9.9978
0.468171
0.250456
22.3446
3.50491
0.792403
-1.56185
12.8905
-37.4161
5.64034
9.95858
0.47918
-1.93977
15.152
-9.94595
-31.7826
9.39431
-7.91745
25.09
9.49762
11.8804
14.2803
-21.8414
5.33786
21.0255
5.9047
16.5895
2.27775
5.31153
-15.9784
-23.0357
1.26807
-35.6221
13.6543
12.616
-17.8634
0.141805
0.563937
19.0247
15.3188
4.33712
12.8551
9.95077
-1.70051
6.59365
11.9668
-24.435
19.3961
0.992008
-1.43383
20.1067
8.62
0.126482
9.38161
-18.4152
-13.3976
6.74649
7.80141
14.2307
18.0571
-32.7911
5.34891
-33.0588
0.392795
17.508
4.97874
-26.1416
-9.24498
-12.396
0.459794
10.415
-31.7788
-4.61672
12.8598
17.712
-25.624
14.3661
-23.8848
-21.0926
-7.12234
6.52386
-29.2691
14.4267
5.324
-41.1111
11.2194
15.0272
-7.18262
-31.8041
11.9389
17.5868
5.8929
18.8569
5.14839
9.49351
4.63331
14.4667
1.60422
17.1846
-37.3841
7.26961
12.3878
7.31031
-0.742094
13.1675
-28.6835
5.53398
16.9158
19.2486
-51.9922
0.87698
5.54494
2.57884
12.2239
10.6152
3.09836
-38.4251
2.4312
18.5321
4.02973
3.50641
-14.0325
19.3029
-17.6534
1.41502
12.7477
9.51973
-18.1172
8.85639
10.9315
6.11745
-0.510743
6.25955
-7.14016
18.9108
12.6969
9.41566
10.3179
-0.879786
-6.44354
21.0998
5.56828
21.0853
-20.769
13.119
0.348433
-28.8561
7.73474
8.66053
22.0572
-21.0891
8.19413
8.10491
-12.4133
8.58098
-46.9635
-0.303197
12.9315
-31.5121
0.242959
-2.06027
3.28335
10.709
14.2235
0.16072
20.4247
13.0926
1.33671
-20.4288
2.9036
5.69685
-39.4052
1.34099
-35.2324
17.5698
0.0243211
1.70852
-27.6849
19.7378
0.604123
-6.58978
20.0542
11.8839
-23.4595
-24.0655
9.62603
3.22354
12.2772
1.68774
-44.705
6.16798
12.3602
5.40862
11.3386
20.2821
1.46007
-19.8584
13.1116
-7.30801
0.689373
9.03231
10.3022
7.05552
-24.8452
5.32817
-11.9064
5.91038
17.4709
5.48854
6.14462
5.09905
-1.39403
-6.53006
13.7483
1.86144
11.792
12.6311
17.8949
-33.781
-2.39522
20.9637
1.13408
-15.1925
13.7664
-3.18232
14.7686
1.97805
12.7816
-10.0531
-29.6851
-3.44897
0.137295
-32.5039
8.13697
21.5318
12.9692
-19.3023
-1.42313
13.9462
-32.1968
7.0097
-30.9598
21.4842
-24.2381
8.21491
-2.59975
8.61499
13.3236
8.56408
-15.9997
-5.835
19.9085
13.0997
5.10782
12.3204
1.41363
10.4525
10.3196
8.68953
-26.0385
-0.984728
16.086
1.03426
-45.5008
10.5783
-13.602
6.86773
-5.91984
14.169
14.0503
-16.9676
5.83968
-22.5796
-4.77938
5.93811
10.518
0.141545
12.74
2.5743
-5.56171
14.9215
-26.919
-53.2846
-70.6781
-2.34915
-15.7614
-3.52227
-17.8948
-23.5836
12.3244
19.5453
0.827449
-47.726
20.0571
18.9943
-49.8148
-21.1586
13.2853
-26.6917
2.34544
-27.3693
2.79797
6.86162
-31.8052
6.94885
9.57089
-1.83503
-116.141
-7.11949
1.05901
11.3024
8.81363
9.22237
-17.115
12.47
18.5555
-53.6416
-22.7421
14.2866
3.71178
10.0026
-36.1507
5.32583
-17.1939
1.21162
13.5747
21.1761
14.3654
-1.2545
1.36071
13.2186
18.196
6.29685
13.656
13.3574
19.3297
1.56274
-10.8048
3.86532
6.95096
18.9599
5.86391
10.0581
9.82653
2.88102
5.92605
1.51057
-6.89547
12.7587
14.0756
9.85984
7.52178
-38.1367
-0.115036
10.4297
6.8752
-7.71346
1.90568
1.9615
-20.8978
-40.951
7.9568
4.23372
-29.1497
-27.8086
-21.1876
9.33795
-46.4016
-22.5013
14.5979
-16.9889
19.3438
-25.0663
-29.1351
14.9336
17.6203
1.13276
3.04296
2.02232
13.6546
7.08464
-14.7089
-24.9478
0.578394
-120.28
12.7686
1.57105
8.65502
-8.00897
12.9403
-38.6907
1.6796
0.43196
15.5789
-3.83111
-47.9592
-11.1466
19.2382
-23.9536
-21.0991
-57.6073
13.3108
-19.076
-5.19507
5.86186
5.84408
-12.1055
9.0318
-25.72
12.1553
12.8795
14.858
7.13822
-2.92447
14.3968
10.5661
-0.0947289
15.1614
10.6538
-20.0432
-69.6011
8.91554
1.73841
0.650376
14.7762
6.50322
-6.62113
13.157
-55.3335
10.6398
21.8191
1.47936
-10.247
9.65873
2.45231
-6.6728
4.23115
-3.27813
13.3204
1.56337
1.14291
1.49684
-20.8854
16.2318
-22.656
0.0642138
13.2009
1.65476
18.2028
14.8838
16.878
5.86208
10.1333
4.43414
4.50503
9.5633
13.0288
-6.35206
7.02463
-29.9084
-1.3883
-26.4116
13.3537
-17.7668
-7.95397
-20.2751
-7.55893
0.471979
13.3239
0.591701
-0.535217
-29.7962
13.2014
21.463
2.65002
-35.6462
8.46804
-29.2186
13.2531
1.26144
-55.3681
15.2956
-3.00951
20.3267
9.59479
13.1377
4.61246
16.5489
2.35088
14.9479
0.970799
-7.83054
0.467505
-20.652
8.99526
-9.90149
-5.3465
19.3647
13.1776
14.2476
17.804
14.5145
15.5663
12.8776
13.3689
13.1974
13.6142
5.93986
-1.02996
-2.01736
-0.662739
2.35016
14.2828
-30.509
22.5026
-5.86637
1.55678
21.0462
18.0242
7.03399
-11.7514
13.3218
8.03387
0.33788
12.1899
-31.3452
-1.726
13.1147
17.3998
-46.9476
14.0436
16.4034
0.112302
-1.45479
16.5011
6.863
0.71478
-36.436
5.09614
-6.58515
12.5189
12.842
-0.349585
-34.7104
1.8995
2.44384
-6.33044
5.88994
18.4863
-7.32075
23.2936
13.4052
6.52971
14.6939
-23.6575
-26.2777
-18.0587
13.3398
-46.2206
-29.0904
-27.8688
7.46913
8.8529
-29.1119
8.91346
-24.8293
6.63435
-21.703
-7.91003
10.9054
4.73448
16.4475
13.5115
13.9192
12.772
6.82925
-4.97912
-3.93203
5.24362
-46.7231
6.48353
10.739
-25.1244
-1.70018
-0.299644
-8.07597
-30.4652
9.948
7.81086
3.3673
1.87187
6.66301
-3.20464
-3.74415
5.52442
-7.5716
14.0345
10.3316
16.1969
-30.5435
12.1178
1.63026
17.5955
4.00395
7.96971
-24.983
0.95221
20.052
21.4807
10.9809
6.5659
9.77553
11.9894
20.2566
8.78658
-6.50883
-28.7558
5.67457
-3.79983
-35.0746
13.1598
13.0747
-8.11251
2.27943
10.4598
12.3227
21.9744
-21.5283
10.8913
-30.7867
8.90639
18.1776
3.96166
10.8093
-61.5342
11.6406
6.85593
22.8712
-3.95073
-1.64886
7.59858
5.54453
-28.7066
-30.7084
-37.4452
14.5598
1.81401
6.82504
18.9761
17.657
-11.1729
-15.4417
-4.70889
4.2129
14.7755
12.8466
17.4025
9.01766
-58.931
18.1931
11.6686
-13.0604
9.87977
13.6086
15.8717
-33.7081
-6.10942
0.290497
11.5488
19.7877
8.12492
-9.78194
-6.55789
22.043
-56.0539
-5.538
20.5043
11.8413
-0.761991
10.5435
-2.63355
7.27077
5.16178
-54.9605
-26.5279
-19.3513
2.77614
10.0593
-27.8157
-32.6536
-29.9576
-1.47952
-30.5894
-17.9873
17.1029
12.4358
6.35072
-25.1069
1.68972
4.03483
7.56386
23.1585
8.40753
-3.20646
11.8499
10.5618
-20.1054
10.4487
10.264
13.0731
23.5631
0.60366
3.17734
-8.39294
5.74857
8.77823
12.4905
-1.58966
18.3416
10.4646
13.944
-17.2563
-30.1254
2.68111
13.2721
13.2716
13.5742
13.2506
21.7045
21.1147
7.32201
11.8911
16.3283
-3.00032
17.4241
-6.1861
20.8366
17.3517
2.69534
14.7808
7.71737
9.85125
3.96103
13.554
-4.90901
11.6317
4.2679
8.42454
0.983226
13.0636
-6.03214
2.2998
20.1761
20.0194
8.69664
-29.4687
5.84924
0.104666
1.93564
11.2674
18.2545
-30.0766
13.6381
12.5283
7.0873
13.2144
-23.7656
-69.5401
-0.53077
22.4823
2.4157
-1.91922
15.1016
0.754975
1.58265
7.52147
5.55353
10.6009
4.44697
4.33808
9.06703
10.3724
8.54665
9.62245
21.3443
17.8662
15.619
23.4711
19.9471
5.90612
-7.13958
-55.1292
-6.90348
19.9972
-29.7711
13.1979
11.7357
-22.7939
6.69178
14.4872
-7.70977
7.34175
9.68795
23.7879
-36.8941
6.73996
-2.47276
14.4083
4.7517
-9.38818
19.7059
17.009
12.6291
13.2918
12.0996
4.56766
-35.1727
21.0426
1.08909
22.7278
-4.01539
-9.69878
-28.1948
6.47899
-29.6552
-1.26904
-60.1003
5.87093
-6.5861
5.81343
-9.64267
0.0572801
-96.2757
-31.5309
0.258798
-15.4493
-0.572309
-1.58987
-2.32153
-38.4303
13.0193
13.259
17.5206
12.9555
5.51234
6.70873
25.6937
12.9477
-39.0692
0.244755
1.31078
10.6597
11.7353
18.294
-5.98687
-5.9761
10.2406
0.0466329
5.93841
16.2035
-30.3751
-25.2979
-33.5777
21.284
-6.22033
9.83891
16.284
-5.02359
10.2533
-4.23873
-37.7268
-35.0503
1.66955
9.65801
15.0656
16.0207
-16.2566
-31.1894
8.21369
-39.3178
2.88695
6.59031
0.725975
-15.0052
-24.2124
-9.95362
-36.4965
-7.75808
18.9886
-4.46054
20.7431
-29.3531
-23.7536
4.52228
-22.1941
17.7304
12.4793
15.6485
0.300173
-3.91943
-39.2548
17.2568
-29.6666
10.2785
-12.1342
16.0714
17.7606
-17.2384
13.1953
19.9036
14.0555
14.1006
-16.336
-31.6423
5.6392
-2.02635
-76.5995
7.69996
8.96838
4.81716
-44.1899
5.89639
1.75215
11.062
9.35571
2.0421
20.7862
5.61027
0.312964
5.77224
12.8763
-19.9843
0.306506
13.9795
-2.95541
4.56386
0.152812
13.3554
12.9218
12.4535
-36.1282
12.5934
14.9402
14.4997
9.19794
1.75102
4.85335
11.3877
-6.33397
-26.4315
-20.4789
-11.1672
-2.9091
0.383297
-47.3607
1.29658
-30.456
-3.3531
-32.7679
1.83358
-19.1846
6.18524
-30.6994
13.9981
25.4036
6.14611
-87.9272
7.22389
3.562
5.77691
0.758301
3.30521
-18.6634
5.27154
16.6652
0.316
19.5867
0.822622
12.4194
10.5927
6.1564
-27.5346
7.2776
22.0101
-1.92596
12.9549
12.7785
18.2635
4.97372
16.9637
13.565
-28.2709
14.3858
-37.6129
-43.5079
17.2895
11.8601
-14.1634
4.43619
16.5275
-0.888148
-14.6514
1.33084
1.64719
11.0065
8.08472
13.4508
11.9081
11.4683
-17.1399
0.108462
12.2962
13.1816
22.7097
3.83709
-56.5443
-27.566
12.7129
5.24485
5.06455
5.2294
-36.8698
10.1985
-9.54278
-0.204005
21.9352
6.87865
-45.5887
-16.2627
-10.6717
-2.25781
-31.2823
-6.09974
-25.4123
15.4707
8.00827
-0.543124
20.6478
0.269042
-37.0987
-72.3075
-44.1973
13.9059
-27.473
5.75492
12.914
-12.3944
6.99787
-126.728
-39.6648
-21.4229
14.3025
-33.2511
-3.992
-34.137
12.792
14.1021
-6.94159
16.1516
15.0307
18.8501
19.4919
14.1908
5.77083
22.6126
-33.8389
12.4008
2.78631
-22.7512
15.7379
-18.2758
19.2555
7.42219
-9.04192
-23.5517
-26.0659
14.0758
-22.0886
-37.1204
6.29014
-2.9186
-47.4024
8.9488
4.20986
9.60906
21.278
-30.0952
-7.99189
5.09566
13.1371
10.7946
-4.01816
25.2068
-7.85458
1.70125
9.86809
-7.68886
12.6421
13.3188
14.7896
14.5471
-33.9901
7.0554
12.6981
5.75141
-17.2887
0.240294
13.8966
14.6219
17.2287
-4.29999
4.70936
5.95468
8.78062
-0.109007
-15.3386
11.3172
-71.2749
11.7873
13.5942
-33.0308
19.4801
-11.3234
21.6467
14.6143
-28.3837
0.73006
0.864762
8.9293
13.9056
-24.9886
17.0227
12.6773
6.27729
1.49386
5.79308
0.432766
6.15762
-33.1632
7.89055
-22.902
12.9234
-24.3052
-1.31248
12.2406
15.8649
17.73
9.89777
-25.121
7.56055
-17.831
5.46458
8.34135
-8.15073
-3.79271
20.7248
-2.75736
-76.7737
-4.2464
-45.2086
9.58563
13.1258
-33.0218
9.70093
13.8627
8.3919
14.1388
-16.7183
6.8912
21.141
-16.8805
13.0142
3.64054
-8.27306
5.83928
5.65536
4.60748
21.44
14.699
-0.108081
21.2434
16.435
15.8224
-36.9427
-24.3329
8.20955
-10.1626
-1.14104
-20.9968
-8.88036
-18.3425
10.456
6.78766
7.69429
8.71305
-5.19239
9.48831
13.2579
-59.9353
13.327
9.0034
13.0198
-14.4669
0.444008
-7.78223
-31.1459
-14.403
8.83076
13.1624
-23.3269
19.0328
-22.835
12.6869
7.76436
-0.429982
2.65028
13.5358
7.52863
5.0161
11.8101
4.84731
-55.2047
17.983
15.7267
-4.7714
-19.0335
4.16597
11.9479
2.52342
4.74169
-15.4498
2.46705
3.75428
-1.59576
11.6021
10.5884
-9.4527
7.46246
2.22275
-3.27632
-23.4468
15.9197
-9.50721
13.1352
0.159762
11.6276
13.9181
8.45963
12.2218
-4.44638
-11.0656
-1.78091
-24.724
-18.3882
-2.62511
-20.6988
0.616047
10.9501
1.81149
12.8344
-11.3064
-40.8396
-13.9693
-5.97045
13.8085
-35.533
12.8945
5.86517
-20.2731
-2.55213
-10.8861
9.69255
13.3268
-2.91721
5.72213
-29.0739
14.6953
-3.1463
3.02935
-26.2576
16.0307
7.41623
0.727586
14.0384
13.4139
15.4667
11.3724
16.1642
-17.6846
1.64799
-126.501
12.1788
9.21499
5.93512
-1.11908
-12.1055
-24.528
7.1315
4.41436
-24.6723
21.3262
-18.4855
15.1874
9.72967
-38.484
-8.12627
2.60084
-37.822
3.48245
5.78274
12.5561
-0.911231
13.2004
-14.5459
4.81724
-4.27913
0.75387
-14.2555
15.5646
21.1484
14.3157
6.79883
1.93296
9.89428
-38.2251
-13.3608
-29.489
-2.22133
-6.63924
-30.8293
-16.408
0.0315833
11.6891
12.5408
-22.7575
5.96471
14.6619
-1.87914
-12.3447
14.1008
-7.54805
-42.4901
1.46513
0.412819
0.38453
20.6576
-26.6831
12.3169
-8.14787
-4.2361
-1.6581
12.7942
1.3927
10.6436
-5.39647
-3.44592
3.25283
0.660494
14.9326
11.6971
4.32926
-119.525
6.5575
21.8253
-3.53553
14.6226
15.6246
2.99239
-5.29907
7.01075
-26.3845
7.69339
11.8147
8.7312
12.8107
-19.8847
14.2903
3.57358
18.0273
0.635811
11.9736
16.1309
11.3522
4.13342
-24.2998
5.70301
-41.0338
10.7387
7.2627
15.4123
3.37665
18.7628
5.72084
19.8906
-14.5792
15.8542
0.965193
10.0707
-40.8885
12.6987
6.60161
7.15816
20.1409
13.1272
4.5549
-0.167471
8.175
12.4951
-5.23858
-31.1295
9.77259
1.73851
16.4936
-7.23172
19.152
4.92947
25.6208
19.5157
9.21192
8.20801
-43.3836
3.06314
20.5416
5.9061
1.8879
-8.62542
22.3887
7.95176
11.2865
19.5073
-4.5581
14.1738
10.222
15.114
1.62062
14.2608
13.4058
17.3534
-8.21142
-34.7938
6.25121
-11.4908
6.28031
0.99116
-1.16945
16.902
18.1414
1.03819
3.66858
6.61261
16.3719
11.0438
12.0673
8.91801
-111.968
-24.0609
-5.40618
13.4964
-14.3242
-47.4153
8.48851
9.3278
7.27362
-1.06444
21.6413
-5.77199
19.0043
3.25238
20.8547
5.69802
-0.452165
0.32004
2.53444
11.382
12.9809
1.0652
-60.3988
-19.4149
-37.057
17.9931
-0.590646
2.47499
-9.4299
-91.4544
3.32241
15.4128
6.11716
1.17867
1.11842
13.1009
22.7579
-12.6189
2.82357
12.6114
-18.896
7.61265
-18.8574
8.9214
-77.708
-24.4704
5.51125
-65.0879
-11.0341
5.41218
-17.1836
-20.3719
2.57483
10.8598
13.907
11.7227
22.0614
-47.0051
21.6591
-25.3725
20.2693
-24.4999
-5.18479
21.3875
6.79279
-47.3892
12.4865
-7.1666
13.8103
-11.5161
-33.9536
5.80051
1.14254
-1.11505
0.2149
4.29243
6.51213
15.5766
-21.4837
6.93942
-14.2739
2.32455
-10.0358
-4.79513
-10.1138
-4.88854
-11.1286
17.9842
-2.86183
19.2321
6.55169
-36.079
6.17232
-6.40265
0.547363
11.6595
15.9124
22.5808
10.5163
11.8434
5.96858
-29.5275
21.8781
22.8969
14.2677
-3.9782
-19.1529
-42.1578
12.1701
8.41306
4.35911
12.8862
-25.7021
-2.35832
-61.9282
19.6875
-8.14792
3.61257
-10.9286
12.297
10.3976
24.7428
23.2571
12.0062
4.95054
2.13023
-20.0488
7.47182
23.7465
-1.49846
0.344873
9.4961
0.340136
5.34568
1.01452
-0.789789
5.77054
2.54823
7.55819
0.955524
5.74462
17.4913
3.06497
13.8686
-13.6452
-0.968307
20.6747
-16.6249
-3.13388
2.67089
7.02771
5.87196
-7.8067
1.33507
1.75657
-0.198615
25.0314
-28.322
-20.6277
-6.18934
-3.18411
4.58561
2.8595
-5.17191
-16.4264
0.75513
-20.6626
-5.59946
-2.76245
5.75151
4.31452
3.40861
24.4806
3.42365
6.16609
-14.6971
4.35606
-30.7051
8.32021
17.6504
13.3056
6.3879
-95.7793
12.886
13.9653
-14.7337
-29.1917
-31.5748
17.576
-1.38344
12.3529
2.73887
19.0569
5.20922
-16.8432
-14.5677
14.2313
2.2468
12.0029
-4.69621
23.3475
-5.51226
-0.0190585
-48.0215
7.92648
-10.0542
-5.33802
-7.18285
5.88929
5.16544
-21.3296
-4.97718
-2.29158
1.34262
-6.80313
-5.66286
11.1578
-42.1725
11.4412
-9.24546
14.372
21.6126
11.9628
-29.2601
12.9318
4.99639
-2.67302
0.189012
-1.28494
-36.3746
2.18228
10.5767
5.25496
2.3644
-2.08852
4.09482
-35.8303
7.95055
13.1291
-1.44344
-10.1532
-1.12332
0.893466
-97.6045
7.88452
-16.5848
-11.7175
13.5944
-9.85405
7.03516
-6.05147
-47.9863
-31.5908
-47.2183
25.1735
3.24106
-2.3443
7.39382
20.7956
20.7265
-19.2769
9.32979
13.0704
-2.73736
1.84248
21.094
7.90789
11.0773
25.383
-0.484955
3.33349
3.99606
18.7208
13.6103
13.1715
16.5862
10.0647
1.13866
3.17024
7.32031
5.50652
-30.6234
21.2
3.12473
-2.27932
0.980817
-0.61257
6.47568
-12.3411
9.79359
4.32784
13.4398
14.1459
14.4993
-37.9243
18.7217
20.701
-20.9228
8.98377
-14.5152
-31.6728
-2.786
8.64217
1.92608
-2.10425
4.28795
22.8076
-38.1192
14.7561
13.366
16.6041
9.72512
10.6172
-88.4752
1.08464
7.12853
-14.1075
-53.9691
-13.1563
4.55188
-3.81815
15.724
-21.3911
-2.1364
4.61068
-29.1838
-12.5607
-32.7591
11.976
8.52604
-14.0187
6.95916
-12.3879
4.38376
-24.7535
-17.4282
14.1187
-37.002
21.4711
0.892454
23.0669
0.0911221
-23.647
5.54029
11.8048
11.2705
-18.1417
-3.18539
0.592161
5.87858
9.28814
25.8799
16.5704
3.67322
-1.12686
6.89173
-59.5782
14.484
-113.708
8.72754
-8.35949
-8.10408
-31.4274
3.86699
1.18834
-34.5695
9.36897
9.03195
20.4009
22.2145
-31.5295
-36.4844
-0.285481
-7.32519
21.1976
1.53208
-0.946026
6.88184
10.2077
-29.5578
-2.44494
5.07874
-8.26258
11.6446
-32.3024
3.04302
0.516126
-4.97571
-16.4542
-0.275768
-16.3392
-14.7415
14.1317
-20.7476
-15.6611
13.2079
-37.7403
23.1649
9.38005
12.4816
-7.02452
6.80832
1.77547
4.97597
5.49049
-5.53213
-24.7982
21.1163
13.946
2.19668
-29.4624
24.1398
-11.8724
-26.8641
-7.24514
6.64066
-11.4666
-23.0003
18.7197
1.6719
12.0115
6.57868
-2.42721
-15.6775
-1.02958
7.69567
-17.0263
2.43853
5.93716
12.9644
-12.0832
-28.906
-1.99013
9.16547
-8.40642
-7.90272
22.8584
9.43757
-26.1947
6.24874
5.16822
19.955
7.40387
-25.8141
7.62248
16.2246
13.7178
0.728793
12.0071
-72.4648
20.9851
1.20727
13.5391
-32.5508
1.45856
0.930899
-8.41701
7.59164
5.95128
-26.8049
-13.573
15.1627
-34.9921
1.40779
17.597
10.8952
17.1865
12.3584
-4.02014
1.41796
2.66567
12.8953
-0.0170131
15.6606
9.95477
20.8409
-4.42584
16.7926
5.87936
21.3627
-2.12821
-4.32868
21.5721
-5.86487
9.59804
-39.2643
18.6713
20.9409
14.1468
-12.6329
12.9952
16.3921
-5.23908
7.26988
-21.7746
17.3246
-7.94025
-5.58313
-36.3987
-36.6245
16.1289
5.97468
-43.1522
7.29368
20.8399
-1.83126
1.07345
-36.6983
-5.70233
10.6631
-3.26741
12.6334
12.3853
-43.7692
23.4666
-5.75293
18.2104
17.7161
3.4748
0.39503
11.5594
-12.6027
6.40595
11.2896
9.86817
-1.42644
12.4325
-4.2952
20.8818
14.2308
4.89648
-0.985895
14.0244
-32.7793
9.23858
16.6001
5.68363
0.912387
16.188
13.7592
-2.86598
-29.903
9.75351
14.3498
20.9081
-28.4562
22.0892
23.2784
22.4343
-127.642
15.8863
-30.7346
13.2028
16.8568
16.7267
14.2309
18.2643
24.6155
11.8351
-27.6304
-0.15049
-23.169
24.5619
7.54316
-55.7978
-8.87049
12.8855
18.8201
12.8157
3.91819
-10.6078
18.4521
-19.185
13.7371
-10.5022
7.10257
-3.19105
3.20819
8.97287
-25.1564
-23.6021
-5.9899
7.21453
-59.5245
15.6114
0.462091
6.00579
12.3378
-33.1752
7.90484
0.910796
-27.3801
-33.3407
-26.7524
17.576
18.9619
-10.2622
11.228
16.4095
16.3138
1.17904
-19.5647
14.0861
-30.1405
17.442
-21.9641
17.0036
9.42857
3.78751
16.0824
9.42003
16.6113
4.5273
7.35191
2.15591
-29.9914
-58.2065
-54.9407
16.3509
-17.4125
-27.4971
-13.8592
18.9244
16.4069
6.58307
9.87386
18.2481
-14.211
12.5774
-16.3385
-0.215718
12.5166
-18.4053
-38.6325
-7.1407
-31.5905
9.15687
-27.3414
-20.7131
-46.2576
-29.2814
10.8619
21.2879
23.1749
20.2268
-19.3078
13.8094
-33.8277
12.2779
18.3603
3.96995
16.108
-14.4482
4.69587
1.04617
1.55199
17.2854
-3.6124
14.509
-38.791
-0.312866
-32.3524
14.9404
14.4453
13.0504
-39.1249
12.4835
-9.44542
-39.3738
-36.9199
3.70475
21.2893
-17.6691
-5.56937
-12.259
13.1263
12.7066
-5.27012
9.06729
-40.6998
18.4934
18.0894
-26.8967
0.207629
17.9234
-21.5049
-44.6258
2.34569
16.6389
18.3825
-29.7768
9.03112
1.47272
20.9708
-50.5136
-13.9432
1.58936
19.6446
2.23609
3.1444
-43.3878
17.1141
10.8827
17.0769
1.2726
-15.7784
14.2703
24.0558
-30.6035
11.3752
2.03364
-44.005
2.14046
5.08467
-11.6524
8.76684
-2.2839
9.37044
-33.1825
-1.11691
15.8274
18.4124
12.4196
-11.5674
-9.90618
14.6041
-39.8504
4.57319
-1.78526
6.85436
-59.1391
14.2874
14.7099
1.9271
13.7772
20.5578
-86.9398
10.3555
14.7787
-35.0991
9.07628
-1.66171
6.5597
4.19076
10.9285
0.282101
4.55231
6.41169
-13.1304
17.4836
4.69684
-7.5986
-24.466
1.97134
13.6573
-45.4848
22.3552
-37.1951
-30.814
-0.159236
16.2915
14.5601
16.8129
-23.3841
19.8322
-21.6142
10.0026
6.06565
-32.5199
12.3832
6.46018
6.75573
8.9839
-24.3409
11.1917
-32.4378
-21.8275
-0.0057901
-18.9043
-22.4382
11.4481
20.3599
-0.594655
-31.5357
16.1952
-16.9225
18.6242
5.17286
2.57252
10.0033
13.3021
7.3513
-38.1074
3.10086
2.19191
5.27889
6.54112
-39.3322
-13.6989
2.01689
7.49347
3.63769
24.8089
13.8094
13.2024
18.7686
4.25376
14.548
-10.8064
-25.5142
-21.9102
13.1132
24.1431
12.356
-5.06953
17.4812
11.927
12.2592
-16.3625
1.99081
7.72597
22.4562
3.13914
-1.19118
19.4939
17.8426
13.3568
13.0985
15.5634
9.7721
-4.26196
-22.5369
14.1365
-31.1295
-30.605
13.1543
-22.5603
-0.653107
3.74832
13.7628
14.1789
14.5999
1.81645
16.7459
17.087
-1.43604
15.1509
13.4926
14.6273
11.428
8.57208
6.94941
-3.73126
16.2513
14.9906
-32.6045
11.7485
1.64368
-0.522618
20.2176
15.602
0.515674
-26.2207
-6.07911
16.0033
9.24582
6.22289
-3.63597
5.90511
-58.2272
5.81378
-16.2169
0.760087
9.27442
-104.52
-16.8563
-39.8092
19.1508
-10.9531
-22.688
-18.9524
20.5072
-82.9029
1.68104
4.69083
-39.4645
11.7083
12.4837
8.01213
18.1273
10.7241
2.5223
-24.0232
-24.4537
1.01412
15.1687
-24.6524
-31.6296
-49.1222
-45.64
-23.3637
-17.2808
-20.475
6.25795
6.26955
12.9669
16.3432
-64.2439
-25.4212
18.2035
14.4451
-28.959
2.20928
-23.6913
8.07719
5.62532
7.97203
11.4632
-37.8952
-78.8095
-69.6794
5.49402
-20.0884
-25.4642
5.52454
-17.6245
-30.7741
-42.0204
-22.0486
5.08702
-23.7937
7.12712
-32.4448
13.0738
11.9035
1.68209
16.4558
-25.6954
20.4047
0.822488
2.8046
-6.55419
13.1307
8.58507
-30.2342
-23.3981
13.44
15.6253
21.1234
-28.2226
-30.0422
-24.0856
4.56727
0.729112
-38.6775
4.23765
-37.1014
8.35814
-32.7007
9.67452
-0.0314986
-0.39913
18.8284
11.6761
-2.56795
-0.834955
-10.2636
-27.1926
17.0252
23.1352
-30.0865
15.3679
12.6993
0.225523
-7.25856
16.0833
15.6202
-22.5037
-88.3976
-22.6485
-25.75
-5.95239
-40.1364
-4.57958
10.0017
-45.4081
14.4308
-38.235
-44.0008
12.4952
-5.0516
-36.9501
2.95601
11.3556
-37.2026
-2.19255
-45.0981
-36.6142
-36.714
21.4146
-23.9092
0.519462
-32.7999
14.2205
-33.3325
-125.253
-18.2811
-51.0824
1.49774
14.544
0.488008
-38.3395
11.6868
0.102789
-12.6088
-31.6376
-41.8874
9.17795
10.6746
13.2517
-28.8201
18.5481
-30.8436
0.35299
3.30914
-13.5757
-21.8748
-40.0685
-11.5832
1.96901
6.74157
-19.2678
0.250904
-6.18395
12.2017
-41.1042
13.2719
-33.8169
9.07237
10.9626
-13.7815
-50.2974
25.8582
-6.14556
-37.4446
-27.2098
-4.5346
13.0744
-29.8792
-32.2312
1.70752
-49.4055
-27.2661
-29.5847
-38.7684
13.7626
-59.1978
3.86585
-45.4511
1.84017
11.8064
3.35988
5.46794
-1.4603
16.4455
-32.0536
-9.2472
17.5967
5.05199
-32.8412
0.226378
-29.3836
-5.1947
-0.602258
16.2138
-20.1598
7.17513
-30.1975
-23.7668
-60.8961
-62.1932
-24.8416
7.44602
-98.2899
13.2286
6.70708
-28.6378
20.7836
-23.169
15.8892
18.2097
-39.1389
3.7042
13.9987
12.8426
10.0482
-10.1147
-16.3077
-15.943
13.1515
5.39041
-5.87165
-42.6374
7.34168
15.4156
0.682096
-43.2487
2.89337
17.3406
-9.39305
-10.6759
-1.87131
11.6128
4.58682
-64.12
18.5992
15.9251
-32.1388
-16.935
16.006
7.79372
1.77562
11.6599
3.04167
-13.5118
-19.4698
-14.692
15.6947
13.5378
4.22225
-1.31196
-34.713
-13.3567
14.0001
-18.6486
9.81415
16.5718
17.7151
-61.7528
13.3438
11.3085
13.9554
14.797
1.31343
14.9412
0.203157
13.241
9.27058
14.1771
-24.3895
16.0503
15.3611
12.0191
9.73672
-7.78645
9.29436
1.94742
-2.48145
16.9148
17.8951
-19.9347
19.7336
-11.3434
-31.3266
13.9545
14.1309
-16.1334
1.50605
-30.2896
-16.8593
-4.12032
-14.0824
-16.5624
0.00166323
12.0351
22.8126
15.8157
-53.3878
-7.75967
13.6208
7.87479
-4.99976
-13.6274
-5.83634
-10.0564
-30.3534
-31.5868
12.6341
-17.997
7.24687
1.01772
0.978386
-81.1268
1.41241
2.79964
6.71217
11.3
0.490189
5.97657
4.93721
-35.4289
9.45972
8.22453
-0.755584
3.80597
9.96938
-9.65934
6.92957
0.585506
13.2757
11.1074
19.655
13.2288
-10.8094
-0.252741
-0.843686
-10.8093
-2.90001
-1.2266
-13.8387
-18.7949
23.1991
4.96727
-27.8761
18.3461
-12.4635
-3.41744
-7.84501
-24.5202
-25.9358
3.17198
-7.53061
12.4776
-17.4775
-7.37444
-29.3321
-45.1481
-5.0567
-16.9269
4.95866
10.8676
-6.08432
-12.8799
-8.42561
5.61378
-5.62753
14.1395
18.787
-21.3018
14.3223
7.53594
10.1867
20.6508
-14.4646
8.9828
7.79431
6.98258
17.7426
0.731081
5.16267
-31.5407
13.9492
18.7961
-24.418
-25.4385
-6.67957
-3.74536
7.95984
-7.6632
-14.4472
-15.9851
6.92781
-29.7609
5.82423
3.92751
11.8621
5.83099
-26.7999
0.302455
-22.0306
-113.847
19.9307
22.2828
16.8379
23.8466
12.1878
19.4909
14.2102
12.3568
13.387
-4.4812
13.4309
-0.22311
-29.5469
18.4876
6.52619
-5.79941
21.4643
2.6459
-26.7153
8.05881
7.14058
15.6916
-30.7859
12.408
20.3574
-12.8571
-31.0442
-11.479
9.75725
-33.5319
16.1681
1.21778
15.7687
13.1347
-12.4385
15.0367
-2.05428
-25.1607
-26.2325
-22.2018
15.2319
-4.6426
13.1724
-6.65379
-39.3888
5.97543
-102.823
-5.28677
-10.1599
-27.8318
15.5041
4.56144
-35.5702
-1.54389
9.77125
5.97219
-20.9519
7.81582
-40.1128
7.67699
-35.616
9.34735
5.30556
7.64676
-1.9995
12.7672
8.80732
5.67408
-31.5666
23.5141
-4.91642
-40.4967
12.8125
11.1413
-38.417
-4.91226
-23.2972
8.08043
6.94678
-3.96862
1.54793
0.573696
23.9109
-14.4793
-14.2966
6.14126
1.7286
8.96435
10.4778
12.2236
9.81734
-34.0998
9.10834
-29.6583
9.85094
6.92988
13.0424
10.0535
0.448181
0.369809
6.36337
14.2048
-1.74005
5.29197
-35.3361
-2.06921
-1.79655
11.9474
-37.6601
6.6883
-30.3203
15.1665
-40.933
0.13404
16.6411
15.2338
8.79296
-17.2256
-23.1831
14.4403
-21.3141
15.9374
8.27237
-18.2492
13.3897
3.37734
5.57348
4.44831
2.78629
-5.98684
9.94406
-14.0468
17.0394
6.35171
24.2679
2.09828
5.34245
15.449
3.81044
6.07846
14.0388
10.9302
8.56182
-6.3829
-27.9391
12.6199
9.03333
3.82007
-21.3631
-1.69538
-22.753
-39.671
1.18426
12.1393
2.23332
11.1657
2.07828
20.7368
17.0126
6.52305
10.7588
6.2771
-32.2057
12.661
10.0156
3.11792
6.0136
15.8145
14.2118
-105.287
-16.5822
-13.1218
11.646
5.74181
-15.4428
14.0068
-26.4647
11.8771
-18.6717
13.0045
7.5423
-109.406
7.14046
14.8254
-2.69665
13.2341
16.3351
5.83181
13.3283
9.12173
3.79403
19.0615
-34.5547
17.4383
14.8236
-42.0759
-4.4046
0.92696
3.17752
-34.1334
-25.9609
12.7835
17.7672
14.6006
17.8492
9.93993
16.4801
7.05139
6.00221
7.47687
4.13101
3.63899
11.4286
1.67101
18.8782
4.17146
-45.3549
10.2863
18.3042
19.3132
-44.0365
7.61004
-9.22382
-29.347
7.88243
-1.46855
-11.4634
8.85291
20.1337
-28.3575
-28.1186
-30.5186
7.18457
4.33635
4.22824
12.4309
12.7974
-4.96632
5.92015
-10.8599
-29.8744
12.6266
12.5019
13.2741
7.41958
0.553096
8.42754
4.23924
-15.9783
5.08441
11.3692
8.05818
9.56981
-3.1915
8.98288
0.615423
13.3006
-61.7395
6.01371
15.7576
10.7753
-1.8955
-40.3414
-21.1207
-1.3683
9.89347
5.45229
-15.5619
13.3241
10.6588
-8.21312
0.640355
-2.17267
4.47377
-18.8028
11.9983
7.59884
0.766679
7.81831
-10.2643
9.06388
0.916027
3.48492
12.7851
11.7533
14.7676
5.04555
8.37415
-28.4377