/*--------------------------------*- C++ -*----------------------------------*\
| =========                 |                                                 |
| \\      /  F ield         | OpenFOAM: The Open Source CFD Toolbox           |
|  \\    /   O peration     | Version:  2306                                  |
|   \\  /    A nd           | Website:  www.openfoam.com                      |
|    \\/     M anipulation  |                                                 |
\*---------------------------------------------------------------------------*/
FoamFile
{
    version     2.0;
    format      ascii;
    arch        "LSB;label=32;scalar=64";
    class       surfaceScalarField;
    location    "5";
    object      phi;
}
// * * * * * * * * * * * * * * * * * * * * * * * * * * * * * * * * * * * * * //

dimensions      [0 3 -1 0 0 0 0];

oriented        oriented;

internalField   nonuniform List<scalar> 
20045
(
0.835631
-0.995747
0.160115
-1.73093
0.762169
0.968761
0.267148
2.76582
-3.03297
0.390524
-0.375013
-0.0155104
-1.4462
1.38553
0.0606725
-0.731432
3.01863
-2.2872
-1.74986
0.714353
1.0355
0.112627
0.736658
-0.849285
0.776567
0.739357
-1.51592
-0.971973
-0.357963
1.32994
0.298761
-0.389399
0.0906376
3.17976
-1.77398
-1.40578
0.682987
-0.661751
-0.0212354
-1.77353
1.36101
0.412516
-0.487561
1.77604
-1.28848
-1.52393
0.551957
0.0835361
0.0568718
-0.140408
3.09457
-1.18068
-1.91389
-2.5406
3.57355
-1.03295
-1.15221
-0.093374
1.24558
0.673211
-0.875676
0.202465
0.254426
0.42856
-0.393011
-1.33792
0.782201
1.03645
-1.81865
1.32056
0.0880028
-1.40856
-0.999009
1.78121
-0.36139
0.395411
-0.0340207
-1.51446
3.19677
-1.68231
2.44206
-0.018876
-2.42319
-3.19203
2.25438
0.937652
-1.39975
-0.43889
1.83864
2.40126
-1.91021
-0.491049
-0.956135
1.96296
-1.00682
4.02082
-2.50491
-1.51591
-0.94869
1.06132
2.77795
-1.35808
-1.41987
1.68472
1.11162
-2.79633
-0.113916
0.681752
-0.567836
-6.96353
5.34415
1.61938
1.07233
0.802337
-1.87467
0.0805999
0.714612
-0.795212
0.30719
-0.431042
0.123852
4.04402
-4.00592
-0.038101
2.10681
-0.633393
-1.47341
0.850891
1.25591
1.68069
1.49907
-0.0253702
0.372957
-0.347587
1.33431
1.01578
-2.35009
2.98577
-1.30105
0.229185
2.4545
-2.68368
1.96636
-3.29662
1.33026
5.31061
-2.82753
-2.48308
-1.05786
-1.76434
2.8222
-0.140882
-0.539032
0.679914
1.64868
0.875471
-2.52415
-1.17426
-0.271936
0.780935
1.47922
-2.26015
3.66301
1.87954
-5.54255
1.2507
-2.20683
2.74427
-2.54984
-0.194434
0.437148
-0.175703
-0.261446
0.389047
2.35522
0.904269
-2.32187
1.4176
0.982716
-0.309505
2.72164
-2.37644
-0.345192
1.76448
1.21372
-2.9782
0.0172401
0.254914
-0.272154
-1.04225
0.0757535
0.9665
1.43564
-0.65907
2.06006
-2.17767
0.117616
-0.180515
0.197755
-1.96812
3.6168
-0.511732
-1.60587
2.1176
0.0382779
-0.167942
0.129664
2.0709
0.314672
-2.38557
1.91692
-1.13598
-0.848526
2.91943
0.812856
-1.30042
-0.333206
-0.219256
0.552463
3.95263
-1.95367
-1.99896
1.34581
1.55669
-2.9025
1.32271
-1.21832
-0.104393
2.01049
-1.10622
-3.17931
0.390867
2.78845
-0.0488985
0.88453
-0.526374
0.812624
-0.28625
1.46322
-0.450641
-1.01258
-2.39643
0.0820671
2.31437
1.44219
0.422933
-1.86512
-1.29288
0.994155
0.29872
-2.75574
0.172395
2.58334
1.23805
-0.223733
-1.01432
0.669095
-1.04392
0.374825
-0.424776
-1.16843
1.5932
1.01953
-1.07279
0.0532637
1.70486
0.722145
-2.42701
-0.336168
-0.0252224
-0.228628
-0.0795422
0.30817
2.034
-0.961672
0.0764706
0.142817
-0.219288
1.88645
0.891496
-0.767319
-1.00621
-0.455931
0.227303
-2.16415
5.82716
0.188558
-0.714931
-0.223292
0.299763
0.583559
1.87794
-2.4615
2.05243
-6.65066
4.59822
-0.358577
-0.793714
0.682856
0.110858
-0.455592
0.56994
-0.114348
2.17744
-1.71302
-0.464418
-0.853961
0.713079
2.41906
-3.0656
0.646536
-0.435785
0.62214
-0.186355
0.0891085
-0.551353
0.462244
1.59477
-0.274217
3.26541
0.755411
-1.94594
1.43421
1.79692
-3.26045
1.46353
0.389089
2.70548
0.134847
0.302301
-1.32999
1.09509
0.234897
-4.9111
0.16173
-0.998057
0.836327
2.60571
2.70489
1.83521
-2.37677
0.541562
2.35103
0.238056
-2.58908
-4.0418
3.37052
0.671278
2.83481
-2.0216
-0.813211
5.35407
-2.74836
-0.148245
0.521202
0.547587
-0.522073
-0.0255141
-0.0968022
0.0484952
0.048307
1.71837
1.19703
-2.9154
1.87726
-1.62195
-0.255307
-0.401725
0.0279911
0.373734
-0.562281
-0.231433
3.56457
-1.76765
-1.10277
1.18026
-0.0774903
1.59185
-2.81043
1.21859
1.15344
-2.2113
1.3607
1.15567
-2.51637
1.81326
2.13937
3.5357
-0.477377
-3.05833
0.79565
-2.21091
1.41526
2.01924
-1.64631
-0.372932
-0.445814
0.484122
-0.0383083
-0.0342536
2.77793
-2.74368
2.52046
-0.078394
-2.47037
0.0720319
2.39834
-1.64393
1.39752
0.246416
2.59946
-1.25365
0.299653
1.02306
-1.9063
2.19792
-0.291615
-2.31354
2.58069
0.0382124
-0.669262
0.63105
0.915955
-1.12939
0.213436
-0.0532607
-0.645687
0.698947
1.2867
0.732416
-2.01912
3.70459
-1.76165
-1.94294
-0.75948
0.706219
2.30453
-3.04747
0.742942
0.375046
-0.0678556
-4.99167
-1.39508
1.78914
-0.394064
-1.80003
1.45648
0.343548
-0.0257367
-0.201325
0.227062
0.637291
1.38195
-0.0826955
-0.0141067
0.192563
0.355024
-1.99107
0.0847687
-2.22712
2.78894
-0.561823
-2.2392
2.46945
-0.230249
-1.6224
-1.03523
2.65763
-0.399063
-0.35243
0.751493
1.05531
-1.29951
0.244199
2.25013
0.218598
-2.46873
-0.0533501
-2.22304
2.2764
-1.5076
2.8683
0.693085
-1.8361
1.14301
-0.913878
3.33294
-2.64126
1.90008
0.741187
0.205257
-0.252499
0.0472415
1.22142
-2.91754
1.69613
-2.55189
1.03743
-2.49354
-0.460692
3.12485
-2.25872
-0.866131
-0.923454
1.00405
0.54781
-0.584281
0.0364708
-1.85577
-1.18371
3.03949
-2.59799
3.82369
-1.2257
6.2365
-5.01756
-1.21894
-0.056868
-0.554542
0.61141
-1.80448
-3.57516
5.37964
0.366718
-0.0679569
-0.0582008
2.89301
-1.9261
-0.626593
2.55269
0.391035
0.101454
-0.492489
0.172564
-1.56764
0.327484
-1.72723
2.4719
-0.120875
-0.559631
0.445716
-0.589309
0.709133
-0.119824
-1.15439
2.44109
-5.25379
3.44931
2.81511
-0.560841
-2.25427
-2.25271
0.543134
1.70958
1.17232
5.06418
3.13651
-1.91509
2.29642
-3.48321
1.18679
1.22957
-1.93729
0.707723
0.249191
-1.4014
-1.53714
2.1207
1.8691
-2.60053
-0.832326
0.234037
0.598288
-3.4147
1.54059
1.87411
-0.289284
-1.00359
0.579615
0.552134
-1.13175
1.75132
-0.45054
-1.30078
0.226354
-1.89855
1.8643
-0.865276
-0.237494
1.77849
2.40303
-2.60775
0.204718
-0.0406632
-0.481348
0.522011
1.88049
0.205846
-2.08634
1.88106
-0.906482
-0.974575
1.5882
0.0950192
-1.68321
1.40586
0.0573588
1.90195
-1.20887
-0.310996
0.874345
-0.56335
2.34623
-0.754382
0.410165
-0.0317717
-0.378393
0.936047
-0.44196
-0.494086
-0.458813
0.476338
-0.0175246
3.31663
-2.47721
-0.839414
0.879398
-3.47739
-0.507822
0.0490092
-2.6878
0.710963
1.97684
2.88128
-0.918329
0.704061
-2.93118
4.73427
-2.36647
-2.3678
-0.0591788
0.450214
4.38225
-5.35627
0.974022
-1.81875
0.264323
1.55443
-3.02447
2.94322
0.0812558
1.235
-2.33442
1.09942
0.008769
-0.0485182
0.0397492
-1.46598
1.75864
-0.292657
-0.199245
0.0749581
0.124287
-0.576527
0.140742
-0.547492
0.0918998
-2.89633
-3.75432
3.60163
-1.67242
-1.92921
0.85472
-0.623364
-0.231356
1.65591
0.745347
-0.664102
-0.168223
0.118355
0.7976
1.62503
1.25625
-1.63066
0.235391
1.39527
4.59842
-0.216173
1.34327
0.432767
0.696466
0.158255
-0.958765
-0.0786174
1.03738
-0.0523244
0.257582
-0.877409
2.4656
-1.71907
1.54593
0.173141
-2.82848
2.70811
0.120368
0.647887
2.17046
-2.81834
-0.367966
-0.518874
0.886841
2.245
-2.51912
0.274117
-1.73749
-1.6772
3.3811
-2.55719
-0.823908
-0.380574
0.339911
2.40322
-1.16822
1.14646
2.45517
-0.229627
-0.527368
0.756995
6.65948
-2.1918
-4.46768
2.11845
-0.133941
-1.98451
-0.433808
0.204181
2.73125
-1.58786
-1.14339
-0.613482
2.4429
-1.82941
1.42057
-2.03371
0.613145
0.345821
-0.386269
0.0404481
0.423886
-0.110475
-0.313411
3.16889
-2.55682
-0.612065
-2.05501
-1.98679
2.31562
0.0874116
-2.55292
-0.27556
0.209507
0.72654
2.2965
-2.69073
0.394226
0.0136408
0.534169
-1.61248
3.33085
0.801479
2.51515
3.49847
-2.50851
-0.989963
-2.58254
1.95595
2.26828
-3.16149
0.893211
-1.85159
-0.240785
2.09238
-0.807741
-0.576577
1.38432
2.80268
-0.498148
1.09665
1.71846
0.472137
-0.335036
-1.57517
-1.89514
3.33141
-1.43627
-0.696166
0.106857
-0.342701
0.0317059
0.283569
-3.30804
0.968471
0.43739
1.13
-0.809655
1.0533
-0.243645
0.0176286
0.372895
-1.39732
0.868905
0.52842
1.36759
0.809853
-0.765828
1.50804
-0.742209
1.37017
0.507096
-0.20918
2.50569
1.75619
-0.313999
-0.763834
-1.48888
2.6096
-1.18948
-1.42012
2.8761
-3.32244
2.96805
0.354385
2.34621
-2.62265
0.276441
-1.47042
1.04565
-0.467161
0.0654362
-0.828861
-1.92688
0.978709
-1.81942
0.840713
1.38589
1.34535
1.94979
-2.72573
0.775935
0.792076
-1.80391
1.01184
-2.91731
0.520881
0.0392511
1.1988
-2.4259
2.9026
-0.476704
-0.6148
0.999843
-0.385043
-1.43952
-0.310334
-0.45485
-0.743661
1.19851
0.403506
0.000405884
-0.403912
-1.09806
-0.545875
1.01668
1.38867
-2.40535
3.43744
1.16098
1.73219
-1.35008
-0.120349
1.57102
-0.77894
-2.23637
-0.404894
0.0870984
-0.211038
0.12394
2.38988
-1.05558
-1.55163
2.47344
-0.921811
-0.453243
0.544931
-0.0916876
1.9078
-0.156478
-2.86233
0.171595
-1.66339
2.98168
-1.3183
1.88728
-2.81696
0.929676
1.1205
2.2606
0.342395
-0.319955
-0.02244
0.379423
-2.23102
1.82348
-2.76739
0.943916
0.165538
-0.12726
-0.264213
2.09942
1.76924
-0.800771
-0.763823
1.99339
0.473201
-3.0138
-2.79895
2.12455
0.674392
2.05736
-0.482538
-1.57482
2.83263
-0.587628
-1.65144
-1.37993
-1.20676
1.02126
-0.131923
-0.262418
0.394341
0.991766
-1.08514
-2.37007
2.10585
3.15192
0.892093
-2.57777
1.02615
2.39761
-0.0819973
0.141161
0.0235302
-0.164691
-0.112175
-1.61845
1.73063
-2.69965
0.493022
2.20662
2.48667
-2.48667
-3.60905
3.06828
0.540768
1.04028
-1.80611
1.64034
-1.05706
-0.583283
-2.92449
3.03066
-0.106175
1.13663
-0.147546
-0.989087
0.917475
-0.272979
-0.644496
0.477753
-0.845719
-0.280168
3.45499
-2.30853
-2.357
2.82087
-0.463872
-0.9165
1.93317
0.0346924
0.00224883
-0.0369412
-1.18717
1.37001
-0.182842
-1.15064
1.39983
3.07195
-2.22487
-0.847081
-0.348154
-1.47471
1.82287
-0.844836
0.877835
-0.0329994
0.578792
-0.907257
0.328465
-3.25805
1.70685
1.5512
-0.310006
-0.0650075
0.0192828
0.121878
0.0424005
-0.00621794
-0.0361826
1.41804
1.75085
-0.00253769
0.0372301
-0.347493
-0.608957
0.95645
-1.57317
2.54613
-0.972952
-0.123439
0.453785
-0.330346
1.49514
-0.780786
1.00198
1.04946
-2.05144
0.215896
-1.38432
0.207294
2.04284
1.41958
0.951511
-2.37109
1.54215
-1.17744
-0.36471
-3.03378
0.563408
-1.04276
0.55186
0.4909
0.908455
1.75688
-2.66534
-1.96715
1.72637
0.202515
-2.7247
2.52218
-0.488546
0.431678
0.207277
-0.257046
0.0497689
0.0780016
-1.03677
-0.135036
0.200738
-0.0657026
-2.18778
-0.500023
1.82459
1.38401
0.161144
-1.54515
-0.511335
0.0580921
0.390858
-2.05343
1.66257
0.514132
1.51178
-2.02591
0.616344
-2.1091
2.4631
-0.353998
-2.21472
1.60123
0.197435
0.197976
-1.18362
-0.616408
-0.913781
0.192633
0.721147
-2.75395
1.18078
1.90338
-2.25153
0.273345
2.12427
-1.01359
1.01818
-0.00459341
0.570322
-2.25138
1.68106
0.642128
-0.945207
0.30308
-0.125591
-2.73673
-2.08867
-0.150537
-1.11945
0.0771984
0.0213209
0.190544
-0.211865
1.33445
0.0746108
-0.127666
0.0530553
2.45708
-1.54862
-0.227574
0.613518
-0.385944
0.809468
0.693222
-1.50269
-1.02707
0.538524
-0.821861
-0.0919199
0.87417
0.766169
-1.34803
-1.91242
0.251486
-0.164388
1.77953
1.39087
0.365316
-2.39387
2.62306
0.100442
-1.06322
0.962774
-0.269758
-2.4754
2.74516
-0.123696
0.113772
0.00992385
0.572283
-0.971346
-0.590114
2.01068
2.31263
-1.51698
-1.01683
-0.380492
-0.0862996
-1.3026
1.3889
1.0128
-2.6352
-0.137149
-1.407
1.54414
-0.138748
-0.466258
0.605006
-1.89043
0.0166302
1.8738
2.48337
-1.46759
0.00823179
0.358336
-0.366568
-0.74616
-0.0986754
0.661824
1.11159
-1.77342
0.45031
-0.551278
0.100969
1.64229
0.937509
-2.5798
-1.1534
2.85826
0.382459
0.0210471
-1.22045
-3.04361
4.26406
1.62851
1.93605
2.45782
-1.94369
-1.19709
0.742243
0.292005
0.131882
-0.72419
2.99247
0.358603
-2.27561
1.91701
2.58292
-0.414682
-2.16824
-1.06929
1.86649
-0.797201
1.14914
-0.911361
-1.27402
2.18539
-0.0787119
0.024339
0.0543729
-0.832466
-1.46711
2.29958
0.0338008
-1.22097
0.219528
-0.245264
1.53042
-2.36289
-2.08648
-0.662208
2.74869
-0.0548221
-1.57159
1.62641
0.344035
3.12502
-3.28883
0.163815
0.694345
-0.283554
-0.410791
0.0164134
-1.03
0.742126
0.851078
-1.07254
0.264801
-2.38811
2.99388
-0.605771
-0.757351
-0.961716
4.48786
-2.67459
-3.08328
-0.922636
-0.0873555
0.348585
-0.261229
1.59941
-0.208544
-0.694442
0.764369
-0.0699271
-0.226545
0.0272998
-3.30795
0.814406
2.57573
0.442903
-0.241744
0.820536
-0.745226
1.55469
2.73208
0.72291
-0.717269
0.0228268
-0.343522
-2.02655
0.719856
0.772104
-0.733892
-2.75862
0.0589745
0.0575274
0.730781
-0.0886537
-2.95808
1.46517
1.49291
1.78408
0.275979
0.711962
-0.269491
-0.442471
0.935374
-0.869258
-0.0661164
-2.12406
0.765984
-3.31237
1.64899
-0.936274
1.73977
-0.803493
-0.0632486
0.0896358
-0.0263872
3.1514
-0.0729774
-3.07842
0.618018
0.0434467
-0.661465
-0.438889
-0.891101
0.799355
-0.13026
0.25518
-0.268395
0.013215
1.301
-0.192077
-1.10893
-0.0388497
0.29403
2.20888
-1.48674
-0.0870213
-0.508503
0.595524
-3.05536
0.667252
-0.0452222
-0.246948
-0.208983
-0.663879
2.04788
0.181798
-0.0634429
0.825252
0.523148
-1.3484
0.517129
2.20451
1.03637
-0.935924
0.732254
-0.643145
0.382028
-0.996828
1.79873
-2.64344
0.844707
1.73174
-0.284922
-1.44682
-1.5576
-0.653308
0.098776
-0.173242
0.0744663
0.889808
-1.11822
0.228412
3.26303
-0.0858155
-3.17722
-0.134228
-0.159427
0.293655
-1.52121
2.14141
-0.620192
1.54911
1.50514
-3.05426
-0.549276
0.373573
-0.872252
1.43643
-0.564178
0.763985
0.277257
-1.04124
-2.52463
1.4077
1.11693
-0.252347
-0.0160481
-2.53905
0.452564
1.05828
-0.599658
-0.458626
1.2305
-1.7328
0.502298
-0.375239
-0.620507
0.333486
2.79153
2.47781
-0.460441
-2.01736
-2.39399
0.284887
0.965712
-1.72955
2.50425
-4.17481
1.67057
-0.382115
0.96173
0.00622735
-1.0954
0.747905
-0.543814
0.705545
-0.223513
-3.34617
3.56969
1.49196
0.911262
-2.19944
2.34672
-0.147285
-0.143231
0.164552
-2.04099
-0.549317
-0.42108
0.473561
-0.052481
2.81031
-1.56377
-1.24654
0.274042
0.136974
-0.411017
-0.382404
1.61291
-1.59836
-1.13989
2.73825
-2.46007
-0.767911
3.22798
1.2969
-1.15414
-0.142768
-0.747446
0.0812768
0.66617
-0.270712
-0.146634
0.417346
-2.78463
0.099032
2.6856
0.0558121
0.67961
-0.735422
2.29979
-2.55569
0.255897
-1.32077
1.2185
0.449624
-1.66812
0.0440774
-0.465158
1.2909
-0.269045
-1.02186
2.37969
-3.29357
-2.84126
2.4764
0.364859
0.539569
-0.0892591
1.55567
2.93219
-0.272323
-0.440072
0.712396
-0.0363007
0.550997
-0.514697
-0.747693
2.25739
-1.5097
0.67587
-1.57606
0.900192
3.03794
-2.89915
-0.138788
2.09723
-0.950867
-1.14637
0.11196
-0.781235
0.669275
-0.973236
-0.0248214
-3.22075
2.82365
0.397097
0.14526
-3.36601
0.45192
1.7779
-2.22982
-1.52966
-1.02717
0.725637
-0.568207
-0.15743
-2.37708
-0.678286
-0.673623
0.482399
0.191224
1.47499
0.406065
-2.89842
2.75484
0.143584
-0.481773
-0.169437
0.00149574
0.663801
-0.0457822
-1.67589
0.209908
0.580232
-0.616077
0.0358459
-1.49189
0.338625
1.15327
1.19802
-0.0613909
-0.825205
1.59539
0.31241
1.12525
1.54539
1.29713
-2.84252
-0.427425
1.48274
-2.05669
1.27245
0.784235
-0.24528
-0.00706643
2.37053
-0.878576
1.88727
-1.31695
-0.43064
-0.592
1.02264
-0.099382
-2.53303
2.63241
1.77832
-1.83314
2.55108
-1.102
-1.44908
-0.020877
-1.68547
-0.371222
-0.836151
2.2842
-1.44805
0.122306
-0.684835
2.98125
-3.12848
0.751399
0.134858
0.210963
-0.430606
-0.310648
0.491474
-0.0151365
-1.24955
-1.33409
2.59203
-0.675108
0.529505
-0.156066
-0.373439
0.131359
0.786116
-2.69352
-0.956778
3.6503
2.10872
0.693958
-0.0217541
-0.505165
0.526919
2.45939
-0.175505
-0.0567244
0.23223
-0.839693
2.63843
-1.1582
-2.86553
0.50853
-0.72369
0.0372459
0.686444
2.29184
2.44243
2.78622
-1.96481
-0.82141
2.90532
0.13262
1.87158
-2.67645
0.804871
-2.42729
0.019912
2.40738
-2.56441
3.3006
-0.736191
0.501338
-0.0240165
-0.477322
-1.07456
3.45425
-0.580041
1.09352
-0.513483
0.129574
-2.32901
1.58722
-0.212592
-1.37463
-2.70342
3.47165
-0.76823
-0.793636
1.79169
-0.998052
3.48543
-1.53722
-1.94821
0.137202
-1.81072
1.67351
-0.234992
-0.0220534
-1.18826
2.73738
-0.390984
-3.21807
2.65573
-0.768451
-0.620105
0.533083
-2.50533
0.0780424
2.84347
-0.89368
0.10175
-3.28106
0.788143
-0.073531
1.63964
3.42385
-5.0635
1.66091
-0.517544
-1.14336
0.888554
-2.34069
1.45214
-0.550871
0.0335854
0.517286
-0.696365
-1.49592
2.19229
1.14391
-0.761886
-3.04494
2.93954
0.105395
0.438069
0.602667
-1.04074
0.244409
0.481229
-3.34367
3.96104
-0.617365
-0.0660974
-0.0575983
1.34944
0.726106
-2.07555
1.0401
1.2762
-2.3163
0.621375
1.43598
-0.0804839
3.61619
-0.0219253
2.36355
-2.34163
-0.0897995
-0.0336395
0.0837819
0.0989741
-0.182756
1.8851
-1.54362
-0.341478
1.147
1.40407
0.0629319
-0.0906981
0.0277662
-0.716516
2.32737
-1.61085
-0.0287548
0.630965
-0.602211
-0.139477
-0.166698
0.306175
-1.39239
-0.878221
2.27062
2.18931
-0.308824
0.739524
0.921383
0.283016
-2.58432
2.30131
0.930362
-2.40508
-0.471491
0.484699
-0.0132076
0.629046
-0.11279
-0.516256
-0.0312489
-0.203743
-0.159172
2.25437
-2.0952
-0.37347
2.82797
2.2123
-1.90104
-0.311264
1.99267
-1.56973
-1.46408
0.630434
0.833642
0.0303446
-1.0874
-0.792536
0.957525
-0.164989
0.243568
0.468394
0.445457
2.18152
-2.62698
0.700277
0.600727
0.405435
-2.8655
-1.42362
0.5791
0.844519
-1.04768
-0.78714
1.83482
1.58176
-0.756513
-2.52346
1.60696
1.01341
-0.796459
-0.216955
-3.97305
3.30761
0.665439
-1.2822
1.49809
-1.53925
1.9057
-0.366451
-3.75244
6.81365
-3.06121
-0.071776
0.691527
-0.619751
-0.0684912
0.00524252
0.0945601
-2.1504
4.76884
-2.61843
-1.63425
2.17738
1.46719
-1.65245
0.185268
0.581433
-1.1291
0.547667
-2.88851
1.93619
0.952316
-0.0313741
0.20193
-0.170556
0.19018
1.50505
-2.25274
2.03341
-2.1328
-0.643774
-2.15517
-2.10383
2.0819
1.32345
0.133026
0.850299
0.455244
-1.30554
-1.08112
1.02602
0.0551019
2.0389
-2.08874
0.0498379
-2.58533
0.782904
1.80242
-2.93156
0.522187
2.40937
-2.10306
-0.518666
2.62172
0.967103
-0.385669
1.25701
0.628087
-3.99039
0.324519
3.66587
0.894418
-0.398602
-0.495815
0.0190688
0.664752
-0.816796
0.152044
-1.62954
-1.86068
-0.724651
0.479584
0.68114
-0.569179
2.13549
0.67482
-2.38252
0.360926
0.117519
0.90201
-0.25284
0.140524
0.112316
-2.10479
-1.67153
3.77632
2.29312
-2.0101
-1.494
-0.127486
1.62149
0.417663
0.598166
-1.01583
-0.01578
3.32469
-2.13598
-1.1887
0.568634
1.90917
0.0862566
-0.680192
-0.781649
1.46184
-0.941732
2.02354
-1.08181
-1.64491
-0.578883
2.22379
-1.47572
0.603472
-0.952221
-0.511855
3.27512
-1.50972
-1.7654
-0.162056
-0.6515
0.813556
0.933206
0.337288
-1.27049
-0.595798
0.65161
0.329232
-0.366695
0.037463
0.271054
-0.0687845
-0.690695
-0.0383138
1.87792
1.3972
-0.00229942
5.34645
-0.537041
2.79142
-0.579318
0.417262
-2.36405
0.719136
2.21828
-1.83885
-0.429214
-2.00965
0.488436
2.19298
-1.74106
1.89062
-2.0028
2.47246
-0.126254
-0.604022
-0.439898
-0.493546
-0.338078
0.831624
-0.98239
-0.090402
2.28049
0.394065
-2.67456
-0.108559
-0.748607
0.857166
-0.044113
3.7889
-3.99216
0.203254
2.44023
-0.140443
-4.29862
4.0961
0.202526
0.631515
-0.555761
-2.53159
-0.356925
-0.765869
2.90012
-0.0764726
-1.24097
3.16351
-1.33043
-1.83307
-1.68087
-0.200521
1.8814
0.357497
1.35941
-1.71691
-2.11417
0.223739
-0.615019
-0.150255
0.765274
-1.41772
1.77633
0.537849
1.39658
-1.93443
-1.23563
0.694551
0.541077
-2.54336
0.225343
2.31802
-0.610283
2.6437
-0.7566
1.36344
0.733794
-0.582812
-0.459948
2.76386
-3.24124
-0.346098
-0.897602
1.2437
-0.574868
0.0255926
2.01658
0.0541626
-2.07074
2.2831
-2.82014
0.0159993
-0.00723034
-1.47413
2.07173
-0.5976
1.13339
0.157507
-0.0524772
0.889104
-0.836627
-0.245706
-0.176978
0.422684
0.985861
-0.413578
-0.864878
1.83059
0.666225
-1.6025
-0.519844
0.563921
1.1892
-2.09568
0.00437915
-0.0528974
-0.636696
0.611722
0.0249739
0.688162
-0.753132
0.0649706
-1.84933
2.164
0.223665
-1.71767
-0.0469272
-0.876527
-0.109345
1.73541
-1.62607
1.028
-1.10662
0.61282
-2.01718
1.40436
-4.33797
1.68615
2.65181
1.37467
-3.26981
-1.114
-0.0707142
-2.77054
0.649009
1.94302
-2.13907
-0.384398
-0.223892
-3.09855
-1.33482
0.591157
0.31925
0.0839552
-0.403205
4.30887
-2.01703
2.336
-0.512524
-0.699109
-0.549187
1.2483
-2.8432
1.21498
1.62823
0.000757124
-0.390156
-0.109
1.3275
0.542632
-0.288206
-1.93644
0.548262
-1.1283
-0.223125
0.0793593
0.143766
-0.372333
2.65282
0.59786
-0.311722
-0.286137
2.84246
-3.59464
1.74598
1.84866
0.696969
0.705156
-1.40212
0.784881
-2.67602
1.89114
-1.68082
0.887188
-2.43465
-0.180745
1.11395
2.64869
-2.91845
1.31268
-0.548698
-1.07527
2.00563
-2.27998
1.6514
0.628581
0.459678
-0.864255
0.404577
-1.9967
2.20526
-0.208555
0.974847
-1.40227
0.0450559
0.458747
0.838158
-2.44869
0.495018
3.76314
-2.27999
-0.818105
3.0981
0.7074
-2.38828
1.98338
-0.00110087
-1.81765
0.363883
1.74836
3.07276
-1.07301
-1.99975
-3.1488
0.835863
-1.88354
0.551477
-2.6682
2.46767
-1.86796
0.9566
1.37122
-0.961918
1.40668
-0.444759
-4.65066
1.79875
2.85192
-2.18497
-0.64286
0.504113
-2.93012
2.08803
0.842082
2.40317
-3.47773
-3.30318
-0.0404921
4.17719
-1.67294
3.41529
-1.32716
-2.08814
-0.0750039
-0.491464
0.566468
-0.20688
1.21954
1.53562
-1.77972
0.817799
0.372733
0.771181
0.522102
1.15542
-1.67753
1.23834
-0.686204
-0.20467
-2.90661
3.11128
-1.06518
0.943233
-2.45084
-1.7871
-1.32904
3.11614
0.791546
-1.01528
-2.13533
0.720599
1.41473
-0.0516728
0.300973
-0.2493
3.57038
-3.79389
0.336537
-1.81066
1.7332
0.777526
-2.51073
0.334514
0.194991
-2.47388
0.747074
1.72681
-2.25143
0.859035
1.07792
-2.01966
0.973946
-1.32004
0.00806544
-0.0597383
-0.0659603
2.64888
-1.71259
2.25107
-0.538479
2.35588
0.0110597
-2.36694
-2.2535
-0.0373911
-0.772264
0.14077
2.3459
0.445609
0.0993219
-0.777738
-0.483729
1.52401
1.49579
0.259533
1.77936
-2.70261
-0.195812
-1.99054
-1.14733
-4.20895
0.599469
0.557638
-1.15711
4.47292
-0.671646
-3.80128
-0.375617
0.3516
-1.0634
-2.24897
-2.22735
-0.395303
-0.673246
2.95635
-0.966215
1.45409
-0.487878
-3.0868
0.982008
-0.947056
1.46916
-1.59937
-1.35871
-0.899599
-0.685997
0.930196
-0.831381
-0.660513
3.35605
-0.455927
0.154282
-2.06672
1.91244
0.399862
0.474484
0.857386
2.92038
-2.71787
-0.163471
-0.67578
1.05061
-1.36758
1.60297
-1.44434
-1.79976
0.654945
0.571768
-1.22671
-2.53991
0.0532384
-0.437123
2.27054
-1.83342
-0.901466
-3.39716
-1.89053
2.09637
3.34744
-1.52807
-1.81937
-0.184583
0.736442
2.64835
-1.14054
-1.50781
0.829744
-0.898528
0.167158
-0.0833765
-0.370878
-0.100577
0.471455
-0.418289
1.26859
-1.27469
3.67786
-0.00313372
-0.565074
-0.805454
-0.352537
1.15799
0.0461423
3.52424
0.259025
0.532451
-0.791476
-1.11328
1.7751
1.0787
1.24866
-1.09992
-0.323699
1.6198
-0.569983
-1.04982
-0.139946
0.0462419
0.0937038
0.20195
-2.00043
1.79848
-2.6637
0.436357
0.676168
-5.46749
4.32016
-0.0092521
0.838996
0.50106
-1.46727
-2.4736
1.26684
-2.63457
0.872915
-1.42618
0.275536
-1.08192
-1.83035
2.91228
-3.09613
-0.0516706
0.353976
-0.302306
2.37261
-1.98174
1.88866
-1.53116
0.314318
1.58325
-1.89757
0.339091
-0.95411
-1.00509
-1.8577
2.86279
-0.148536
1.79304
-1.6445
-1.48868
2.37064
-0.881959
2.63289
-1.97186
-0.66103
1.45957
0.191843
-1.65142
-1.35689
-2.23775
-0.918427
-0.201024
2.97918
2.37489
-0.0260856
0.342659
-0.316573
-1.93627
-0.537609
1.81861
1.75494
-1.54532
1.96528
-0.419959
-0.223943
0.167218
0.325246
0.994203
-1.31945
0.28381
0.314049
-0.28925
-2.64087
-5.46978
1.06089
-0.0474714
-1.5907
1.91819
0.244886
2.04516
-2.29005
-1.48969
-0.186202
-0.598018
4.03546
0.221172
-0.783453
0.0111793
-0.281218
0.270039
0.261308
-1.13064
0.86933
3.14589
-0.975428
2.84439
2.54088
-1.15499
2.59984
-1.65661
-0.405329
-0.744604
1.14993
2.10577
0.337131
-0.053042
-2.06473
1.36837
3.08518
-3.03904
-1.15091
-1.32182
2.47273
-1.54551
-1.29769
-2.71865
2.69708
0.0215654
1.22245
-0.889242
0.551164
1.71307
0.827815
-0.767331
-1.04085
1.80818
-0.865497
-1.31218
-1.64494
-1.03597
2.68091
2.93359
-0.824867
-0.614818
0.143327
1.73016
-2.79356
1.14193
-1.05392
-1.41748
2.16404
-0.746563
0.881856
1.39555
1.0421
-2.43765
2.74338
-1.64945
-1.09393
-1.21128
-2.10791
2.72528
-0.617371
1.82639
-1.67211
-0.876567
0.867315
1.20326
2.28217
-0.674389
0.599385
0.113389
-0.0387786
2.70428
-1.50725
1.77065
2.53822
-1.27669
0.726774
0.549915
0.66427
-1.09491
2.06352
-0.0469428
2.5272
0.888099
-1.84113
-0.171508
2.01264
0.594827
-0.050427
-0.5444
0.551975
0.14237
0.400202
-2.96461
-0.854308
0.93231
1.89471
-1.75812
-0.136584
0.470788
1.14901
-0.504137
0.234646
0.747805
0.729198
-1.477
-1.12124
2.37194
0.328633
-1.12027
2.93104
-1.81077
-0.570285
1.00835
-0.748332
-0.487297
3.06115
-1.54089
-1.01203
2.33846
-1.55358
0.908169
-0.955096
-0.5398
0.468024
-0.882372
-0.475414
-0.0359217
1.43441
-0.507805
2.30623
-1.79842
-0.0817171
0.124118
-0.793147
0.353074
-1.05284
0.134416
-4.20674
2.98629
0.703928
0.732502
-1.36572
-0.889331
2.25505
0.443189
0.369435
2.19615
1.48899
-3.68514
-0.386947
-0.0316038
0.418551
0.186694
-0.414268
2.26152
1.08592
2.20027
-1.95538
-2.8321
0.117258
0.0272128
-2.65585
1.2492
0.457257
1.12222
-1.57948
1.12937
-0.101367
-0.0600881
-0.916942
-0.359747
-3.61415
-1.16356
1.1939
0.807429
-0.193912
1.5687
-1.46249
-0.106207
0.587631
0.0240916
-0.216374
0.775669
-0.087507
2.25879
0.561914
-2.82071
-0.366768
0.143643
-0.714418
0.448135
0.266284
-1.04695
0.0144344
1.03251
0.921671
1.18956
-2.11123
0.702974
0.87879
1.88332
-0.0341798
-0.819781
1.26764
-1.75137
-0.534532
0.725254
-0.190721
-2.36064
1.89995
2.35503
-1.8421
-0.512923
0.0476907
-0.467175
0.419484
2.47213
-2.63131
2.53635
0.39724
0.712215
1.17644
-0.4651
-0.0103138
-0.300554
0.163658
0.136896
-1.39239
-0.407388
2.99653
-1.53374
-1.4628
2.58296
-1.92846
-0.654503
1.23079
-2.11785
0.887058
-0.055092
1.56838
0.00263502
-1.06605
0.333901
0.732147
-0.110184
-0.19037
-4.58841
-0.560449
0.248726
2.35063
0.0275352
-2.37817
0.29298
-0.163998
-0.0888418
-0.0767022
-0.0139959
1.09396
0.977768
-0.727966
1.00201
-0.00875562
0.094241
-0.183849
0.372406
-1.16154
1.47586
0.0456535
0.726451
-0.251238
-0.722658
2.37857
0.0247955
1.5439
-0.423373
-0.413032
-0.723375
1.47118
-0.466241
2.15024
-1.684
-2.20725
-0.331794
-0.350077
1.58615
-1.23608
-0.237516
-0.322933
0.928149
-0.19149
-0.060207
-0.70982
0.770026
-2.32018
0.779286
0.458317
-0.450086
1.05194
-3.74547
1.40764
-4.45125
-0.774672
1.81112
-0.98135
1.51619
-0.786988
0.0406788
-1.65131
1.85326
0.00270352
-0.484052
0.175906
-1.33004
-0.378888
-1.61116
1.99005
0.982416
-2.7823
4.11846
-2.63257
-1.48588
-0.679873
0.249419
0.684996
0.0670144
-0.75201
-2.22269
0.510092
0.645633
-0.0165869
-0.016116
-0.420488
0.436604
1.66271
-2.01279
0.252133
1.2202
0.231126
-1.45133
-2.40446
1.93822
0.455782
0.120065
-0.575847
2.74982
-4.90022
-0.464713
0.00570678
0.459006
0.592176
-0.136393
0.0362442
2.0487
-1.42732
1.61655
1.4738
-0.770825
-2.63465
0.847554
-1.78044
1.57062
0.209824
1.30258
-2.4535
-1.42203
-0.911502
2.33353
0.20299
1.19453
-0.871502
0.723956
2.8001
-0.353391
-2.44671
0.000756737
-2.70337
1.3989
0.0606685
1.59152
1.05684
-0.507377
0.00221159
0.475452
-0.827805
-0.991616
0.0702228
-0.148719
0.0784964
0.0728871
-1.89642
1.82354
-0.148788
0.842511
-0.693723
0.70781
-4.28778
3.57997
-0.0977085
-1.52425
-0.0665505
-0.0574433
1.78115
-0.961042
-0.601531
1.56257
-1.13689
-1.05089
1.30765
-0.735885
-0.0870814
-0.275116
0.362198
-2.58912
1.2234
-2.65004
-0.278505
-0.27268
0.551185
0.450894
0.85924
-1.31013
0.0061124
-0.898299
0.892186
0.265791
-1.60371
0.417749
-3.12117
-1.61498
-1.06471
2.67969
-2.53846
0.109079
2.42939
-3.16127
-2.14495
0.148248
-0.808879
0.83447
-0.0255916
-2.93197
-0.948227
3.20702
1.09589
-0.572737
0.244045
-0.96742
-0.496985
1.37578
0.473535
0.360186
-1.16564
0.0540797
-0.445775
0.391695
-0.397655
-0.0481589
-0.314673
0.362364
-0.818085
1.51505
-5.0257
2.1299
2.89581
-1.78592
2.88257
1.34505
0.651534
-0.0567067
-2.01443
1.2471
-1.32349
-0.811834
-1.577
0.584721
0.99228
0.097654
0.0729014
-0.170555
-1.19452
1.45583
-0.338447
2.04803
1.23013
-0.971105
1.40609
-2.54297
1.23012
-1.41414
0.184016
0.398567
-0.0402309
-0.333149
0.0131933
-2.90762
1.82569
2.05357
0.529394
0.044903
-0.592819
0.547916
-3.60958
1.29604
-0.941706
0.499745
-0.573227
-0.0371829
-0.661614
0.698797
-1.62452
0.663473
-2.79923
2.50998
2.06774
-0.334541
-0.66383
0.601198
0.0626316
0.218269
0.130316
-0.480829
-2.77764
1.46666
1.31099
-0.469215
0.437612
-0.244791
0.939434
-0.694643
2.60476
-0.0684145
0.0970645
-0.0051705
-0.091894
-0.759833
0.805486
0.0690882
0.0964499
2.25882
-5.94424
2.73632
0.168993
0.918469
-1.36911
2.50148
-0.124882
-2.3766
-0.376432
0.721024
-0.344592
1.30321
-2.55276
-2.02484
2.05831
-0.0334691
0.0135824
-0.113792
0.10021
-2.13042
2.22283
-0.0924054
-0.865698
1.47852
-0.379461
1.05533
4.77123
-2.06139
-2.70984
0.0269363
-0.534905
0.507969
-0.251422
-0.908664
-0.0645721
-0.892866
-0.0157979
0.274279
-0.896583
0.622303
-0.244857
2.50731
-2.26245
-2.50481
0.778422
1.72638
0.814689
2.33671
0.0543403
0.240731
-0.295072
1.54913
0.753304
-2.30243
0.00030285
0.318947
-0.834335
2.32527
-1.49094
-2.02375
0.182619
1.69745
0.816083
-2.23811
-0.00428772
-0.342986
0.347273
2.33273
-0.550192
-1.78254
0.803074
0.63132
-2.7037
1.3696
2.45711
-2.66178
-1.33211
0.149826
1.18228
-0.121506
-0.10879
0.228066
-0.119276
-0.324083
0.132823
0.191259
-0.024674
0.387526
-0.362852
-0.208187
0.142914
0.0652728
-1.6074
3.33756
-0.907547
0.821248
0.42881
-0.673601
1.05668
-1.57624
0.51956
-1.00966
-1.27032
-0.392595
0.121883
0.285191
0.0131053
-0.298296
2.34603
-1.53492
-0.811114
0.174524
1.72018
-0.715723
-0.365396
-1.66174
0.359139
0.892837
1.12351
-2.01635
-0.0103309
-0.0740654
0.0843963
-0.0678845
1.00326
-0.0965411
0.438754
-0.342213
2.49287
-1.67066
-0.82221
-3.49671
0.150533
0.428173
1.08875
-1.5457
0.456952
0.978854
0.790388
0.252366
-0.499313
-0.300285
-0.0328633
-1.1451
1.82551
-0.680411
0.474603
0.0680291
-0.736311
-0.139365
-0.710841
0.707707
-0.223093
0.0636661
1.67869
-0.379989
-1.2987
2.04158
-1.32354
-0.718038
1.9551
1.19079
0.739551
0.138284
-0.662327
0.547979
-0.260981
-0.957336
-0.921473
-0.654588
-0.609192
-0.456855
-0.442948
0.296315
0.412031
0.180144
0.0752794
-0.061697
2.26929
-2.32565
0.0563605
3.39792
-1.29925
0.700353
0.5989
0.360352
-1.03613
-3.66764
-2.40516
-0.724921
0.674494
-0.521645
-0.759316
1.28096
-2.20435
0.570102
0.696428
0.653304
-1.34973