/*--------------------------------*- C++ -*----------------------------------*\
| =========                 |                                                 |
| \\      /  F ield         | OpenFOAM: The Open Source CFD Toolbox           |
|  \\    /   O peration     | Version:  2306                                  |
|   \\  /    A nd           | Website:  www.openfoam.com                      |
|    \\/     M anipulation  |                                                 |
\*---------------------------------------------------------------------------*/
FoamFile
{
    version     2.0;
    format      ascii;
    arch        "LSB;label=32;scalar=64";
    class       volVectorField;
    location    "5";
    object      U;
}
// * * * * * * * * * * * * * * * * * * * * * * * * * * * * * * * * * * * * * //

dimensions      [0 1 -1 0 0 0 0];

internalField   nonuniform List<vector> 
13486
(
(4.96072 -1.18221 9.27246e-21)
(5.3062 0.196962 4.42576e-21)
(6.86412 -0.235049 0)
(2.85389 -2.52198 -1.36434e-21)
(7.72491 -1.70178 3.11708e-21)
(6.73721 0.213533 -1.7162e-22)
(8.49223 -1.23201 -2.60974e-22)
(6.58817 -2.41782 -5.01071e-21)
(6.38715 -1.46018 0)
(5.82692 1.22542 0)
(-2.42382 -0.270632 -1.74389e-20)
(7.20301 0.536402 0)
(4.62201 -1.72119 -9.17425e-21)
(6.77405 1.28092 -2.47094e-22)
(8.24735 -0.963675 1.46385e-21)
(5.75258 1.27721 -3.2899e-21)
(-1.03105 1.00546 1.12337e-20)
(10.5241 2.24244 -4.33647e-20)
(6.38288 0.182499 6.72642e-23)
(5.33689 -0.683543 -9.42264e-21)
(4.06782 -5.48378 -1.61432e-21)
(4.65936 -1.74588 1.18191e-20)
(5.35906 0.200878 -3.54537e-21)
(6.13977 -1.49742 0)
(6.02959 0.980028 1.06185e-21)
(5.62244 -1.4155 -8.61929e-22)
(-2.8202 1.59656 1.45776e-20)
(7.16342 0.0306938 -4.41949e-22)
(4.90376 -0.611524 0)
(6.70926 0.487746 2.56424e-21)
(5.81469 -7.61402 -4.27633e-21)
(8.49452 0.0926588 -1.42837e-21)
(7.56139 -0.534497 3.22563e-21)
(7.36188 0.310351 0)
(6.62607 -2.33731 0)
(4.73024 0.0747203 -1.06213e-22)
(6.09553 -1.35854 6.01563e-22)
(5.33217 -2.50602 4.83173e-21)
(11.3294 -5.94761 -5.51985e-21)
(6.39821 -0.965083 4.90936e-21)
(8.14113 -2.63996 0)
(3.92063 -1.91094 -1.07539e-20)
(7.30788 0.0647768 0)
(6.02028 0.830056 -5.09437e-21)
(6.0507 0.830498 2.07151e-21)
(7.07258 0.519021 2.62969e-21)
(1.27959 2.33147 1.98447e-20)
(5.10357 -0.562403 -8.73764e-23)
(6.12992 -1.21626 -4.55621e-22)
(7.09057 -0.0273105 1.07237e-21)
(5.98326 0.0647285 5.59272e-21)
(10.0865 -2.49058 0)
(7.20034 1.25774 -3.03507e-21)
(5.54028 -2.13645 -7.02945e-21)
(10.7907 2.47931 0)
(7.66783 -1.738 -2.09718e-21)
(5.35101 -0.978869 -6.45373e-22)
(10.9522 -2.72265 -6.34574e-21)
(7.25355 -0.553212 3.49667e-21)
(5.54377 -1.71966 0)
(-1.38936 -2.15417 -1.72948e-20)
(5.31603 -1.57919 0)
(9.05091 0.0963006 -6.40814e-21)
(4.65357 -5.63421 -1.93824e-23)
(-0.596147 -9.83104 0)
(5.97807 -1.41271 2.97411e-22)
(1.65748 -1.75398 -2.07838e-21)
(4.84793 -0.511952 3.10946e-21)
(6.39652 -1.52891 -2.78138e-21)
(4.31213 0.25741 4.75469e-22)
(1.86283 -1.6655 2.39991e-21)
(11.906 3.2915 -3.29224e-21)
(6.25444 -0.587216 3.66532e-21)
(-1.51374 -0.178742 -8.57103e-21)
(5.67326 -1.31941 6.18336e-23)
(4.64028 -0.784593 1.3895e-22)
(5.6759 -1.2627 -2.96585e-22)
(8.28052 -1.02555 -6.10725e-22)
(0.709495 2.8582 -1.22009e-20)
(1.86656 8.2118 0)
(5.19864 0.0194109 7.36648e-23)
(5.16232 0.370104 -2.87076e-22)
(10.0575 0.131217 1.45992e-22)
(6.73593 -0.255587 -7.83276e-22)
(4.9521 -1.21051 -1.80654e-20)
(4.53495 3.07276 0)
(1.15961 2.85224 -4.17304e-21)
(5.98776 0.0992879 -8.53819e-21)
(5.70667 0.208751 -3.70856e-21)
(5.3737 1.74854 -4.12676e-21)
(8.55978 0.991418 -1.12675e-22)
(6.99207 -2.07327 -2.6282e-21)
(5.14266 -1.4405 2.38709e-21)
(5.36303 -0.283471 2.44615e-22)
(6.14605 -2.01935 1.12586e-21)
(5.08663 -0.352899 3.81752e-23)
(-3.03096 1.72447 0)
(1.11777 -2.49352 2.6991e-21)
(6.41128 -0.936546 -9.38688e-21)
(-1.73148 1.65692 -6.56437e-23)
(5.15772 0.0298822 0)
(6.71442 1.28983 -1.38212e-22)
(1.11621 -2.7014 5.70686e-22)
(10.4596 -2.81923 7.40252e-21)
(4.16551 2.86061 0)
(-1.80323 1.81218 -5.0138e-23)
(5.93853 0.00919075 1.77801e-23)
(11.996 -5.4285 -1.92056e-20)
(1.19688 2.41687 1.4375e-20)
(6.61087 -3.00509 0)
(5.30377 -2.48824 0)
(8.97271 -0.518844 -2.63637e-22)
(5.56456 -2.0895 5.38865e-23)
(6.12717 -0.789461 4.8778e-23)
(4.03977 -0.883565 0)
(5.19719 -2.46169 -4.19477e-21)
(5.96904 1.05022 0)
(7.66404 0.455061 0)
(6.23859 -0.575534 0)
(6.1206 -0.875568 3.67344e-22)
(10.7319 3.09784 2.05982e-20)
(-1.33133 -2.24868 0)
(6.04246 -1.87467 0)
(11.5249 -5.60796 1.71347e-20)
(6.27431 -2.28598 0)
(10.5313 -2.46058 0)
(7.19331 -0.853761 1.09853e-22)
(6.31647 0.140457 2.14468e-21)
(7.94642 0.181264 1.02806e-21)
(-2.94597 -9.74138 -8.73516e-21)
(9.75896 -2.41757 -5.78243e-22)
(1.07132 1.99984 -5.03315e-21)
(4.49404 -0.742512 1.19002e-20)
(-0.806419 0.23533 1.27279e-20)
(5.99362 0.0347545 -9.12755e-22)
(5.71782 0.657918 -4.28658e-21)
(2.90926 0.82128 -2.78515e-21)
(6.49571 -2.91677 0)
(6.12252 -0.765611 -1.12094e-22)
(6.67073 -2.00368 -1.79869e-21)
(7.34184 -0.231199 -3.17167e-21)
(7.4813 1.42991 2.58195e-21)
(7.95887 0.578167 0)
(3.01296 8.79143 0)
(7.81335 0.03857 3.00903e-22)
(9.72779 -1.28898 -1.22648e-20)
(4.62253 0.90571 -1.5423e-21)
(0.905436 1.71793 0)
(7.21603 -0.0268689 0)
(4.89104 -0.686648 0)
(6.00457 0.0473735 8.94142e-23)
(8.22872 -1.31247 0)
(5.18489 0.03182 -7.70953e-23)
(5.1119 0.354129 -2.42418e-21)
(6.30726 0.539215 0)
(7.07871 -0.287598 0)
(6.38574 -2.83324 0)
(5.86943 -3.37378 4.6757e-22)
(5.84023 -2.37071 1.01179e-20)
(4.45649 -1.47691 1.17029e-21)
(6.70962 0.0557745 5.2348e-22)
(5.86199 -2.32266 -1.52097e-20)
(10.0731 0.832594 -2.13525e-21)
(3.52662 -1.77678 4.71967e-21)
(10.7474 -2.37298 0)
(6.99971 1.2672 -4.02966e-22)
(6.59658 1.17468 1.5814e-21)
(2.52705 -1.04724 -1.16317e-20)
(4.46494 0.692781 3.97535e-21)
(-0.771685 0.0429871 3.44175e-21)
(1.78174 0.493106 -1.3256e-22)
(6.30065 0.48406 1.72863e-21)
(6.00377 0.163661 -7.0204e-21)
(7.61995 -0.429543 1.71038e-22)
(5.19085 -0.0703502 5.58409e-23)
(2.36466 -3.986 0)
(6.74183 1.98728 -2.11657e-22)
(7.583 -0.277734 5.08212e-21)
(5.96391 -0.0111118 -9.11648e-21)
(7.81736 0.584335 0)
(6.57684 -1.09351 9.99116e-21)
(6.30018 -0.661626 8.49188e-23)
(7.82435 -0.127427 -8.72925e-23)
(-2.30331 1.05508 0)
(6.17438 -0.0288996 2.05287e-21)
(6.58735 0.00634301 2.00916e-22)
(5.91426 -1.52468 -2.52672e-23)
(7.0627 0.358227 8.79358e-22)
(8.06249 -2.76635 0)
(4.76844 -2.28832 -5.69057e-21)
(6.07967 -1.04679 0)
(7.33818 -0.160096 0)
(12.6114 -2.331 0)
(4.62263 1.31853 -5.37414e-21)
(12.8298 -0.411531 0)
(-2.02556 -0.30646 -4.33263e-21)
(-2.24857 -8.69402 1.70916e-20)
(6.58735 0.0136386 2.57248e-22)
(4.58691 -2.26476 -2.17674e-21)
(6.93712 1.15652 6.93502e-23)
(5.49454 -7.83251 6.56831e-21)
(6.32024 0.169149 -6.60143e-23)
(5.22548 -2.51206 -5.59894e-21)
(7.04609 -2.88436 8.35392e-22)
(4.46436 -1.51015 -1.39082e-21)
(12.5764 -0.5716 -4.58693e-21)
(11.4024 -1.73661 -2.23873e-20)
(5.96805 -0.415407 7.38604e-21)
(12.7003 -2.78865 0)
(6.3164 -0.135075 0)
(7.08921 0.121991 -1.86391e-21)
(6.0535 -0.327354 1.55203e-21)
(5.36797 -0.606548 8.65476e-21)
(5.93053 0.0218438 2.41286e-23)
(6.73938 0.273293 1.97916e-22)
(-0.527767 2.2126 -6.00764e-22)
(6.63057 0.207997 0)
(5.46043 1.69743 1.00096e-20)
(5.36192 -1.48057 0)
(8.19019 0.989128 0)
(-1.3981 1.31559 -2.12298e-20)
(7.03363 -0.00624953 0)
(6.62562 -1.98928 4.21538e-21)
(7.56932 0.0686534 0)
(6.88264 1.78988 -6.45146e-22)
(4.67915 -2.21386 3.38401e-21)
(6.98978 0.51291 -2.45902e-23)
(3.12977 -9.36784 2.70548e-21)
(3.41572 3.03004 -2.0105e-21)
(0.743649 3.5449 -1.05315e-21)
(6.59234 -1.06566 -3.20612e-21)
(6.82275 -0.692146 5.35325e-21)
(7.31361 -0.258087 3.98684e-21)
(3.92145 -1.91344 3.68021e-21)
(2.09497 -4.87624 0)
(4.27134 -2.0897 4.03749e-22)
(7.33822 0.526197 -2.41753e-21)
(7.31201 -0.1648 -5.38345e-22)
(4.22113 -2.03396 1.10689e-20)
(7.52545 0.0267613 0)
(7.31297 -0.640533 0)
(5.99329 0.138995 1.08139e-20)
(7.67017 -0.232216 0)
(4.0152 -1.99551 3.69402e-21)
(8.11334 -8.10617 -1.88678e-20)
(5.66602 -0.190769 0)
(7.27594 0.133074 -8.38074e-22)
(7.32961 -0.591579 1.14599e-21)
(-0.0711117 -0.336861 2.02774e-20)
(5.96142 0.776928 0)
(-0.15862 -1.48299 -2.11272e-21)
(3.9647 -0.817594 1.34538e-21)
(4.77159 -2.32875 5.3305e-21)
(12.1008 -4.80336 0)
(5.30443 5.83956 3.56209e-22)
(2.24683 -3.88604 1.5736e-21)
(8.5563 0.154291 9.45274e-22)
(-0.640285 1.60726 7.59133e-22)
(5.64993 -4.10364 -4.89666e-22)
(7.34851 -0.637187 2.49041e-21)
(5.53696 0.156809 0)
(6.03613 -7.74392 1.05421e-21)
(8.26114 -0.929177 -3.4387e-21)
(2.24384 -3.88745 -1.96484e-21)
(7.38163 -2.40845 -3.0951e-21)
(-2.26635 0.983057 0)
(5.52494 2.56691 3.84554e-21)
(4.84074 -7.80062 -4.27747e-21)
(6.44588 -0.0716298 -4.34314e-21)
(7.39757 5.3145 0)
(4.90553 1.45603 4.08621e-21)
(5.94463 0.0430194 -2.47214e-21)
(6.62628 0.142415 0)
(6.94936 0.89071 2.2634e-21)
(4.75615 -2.26822 4.52895e-21)
(6.05781 -0.153987 -6.21656e-22)
(5.04754 5.97955 0)
(2.56429 -1.0055 0)
(13.4371 -3.15937 -2.60484e-20)
(4.95858 1.13772 2.94364e-21)
(2.71481 -1.45473 6.15141e-20)
(6.86909 -0.69153 -3.66961e-21)
(5.89645 0.0125176 5.39288e-21)
(7.51308 -2.52445 -4.15094e-21)
(-1.91542 -1.64693 1.83756e-20)
(-2.62233 1.92758 2.38961e-20)
(7.41245 -0.131399 3.97496e-21)
(7.61804 0.433025 -1.35187e-21)
(7.17354 1.82598 1.06371e-21)
(6.25822 -0.0743693 0)
(2.62916 -4.8783 0)
(4.71591 -3.40472 1.04383e-21)
(5.16514 -2.44972 4.25051e-21)
(5.99624 0.0426164 -8.94222e-22)
(7.15168 0.556451 -2.62181e-21)
(7.17701 0.486918 0)
(6.99318 -0.080498 -5.57155e-22)
(6.80954 0.77242 -2.12379e-21)
(5.89771 -0.0426025 -4.94411e-21)
(8.39703 -1.76833 9.18908e-22)
(10.1779 1.59862 2.62241e-21)
(11.2605 -1.76842 1.82796e-21)
(4.76395 0.995176 -2.50848e-21)
(8.50602 -0.00816657 1.37913e-21)
(6.39978 -0.922449 -8.225e-23)
(6.04978 -2.9071 0)
(1.74868 -0.969878 0)
(6.84362 0.062417 1.62921e-21)
(-0.45058 3.19238 4.50367e-21)
(6.05353 -1.16225 0)
(6.29334 3.97567 -1.90235e-20)
(2.56887 -1.94532 0)
(6.48691 1.94686 7.12377e-22)
(8.96242 -0.469494 -1.03966e-22)
(6.79076 -4.97099 0)
(5.71524 0.569683 -2.6303e-21)
(4.86996 -3.2358 -1.39928e-21)
(5.70457 0.190338 -3.15683e-22)
(5.95208 -0.396405 -8.1386e-21)
(4.82938 2.68128 0)
(5.94642 -1.29826 -5.56853e-22)
(5.4075 -4.01819 -1.06468e-23)
(5.98017 0.0330706 1.14974e-21)
(5.3086 -0.187876 -4.59918e-21)
(3.16718 0.552169 5.11622e-21)
(8.70399 0.748881 2.49723e-22)
(7.44274 -1.18582 -1.00896e-20)
(6.90466 -0.679191 0)
(6.25915 0.566648 -4.05262e-23)
(7.55681 -1.19328 -1.86977e-21)
(5.98705 0.0573792 1.23544e-20)
(7.09059 -2.08711 0)
(8.82674 1.24414 3.30148e-22)
(4.79253 0.295172 0)
(8.87677 -1.4774 -1.76684e-21)
(6.34639 -1.8916 -3.07469e-21)
(3.20235 -1.55699 4.45102e-21)
(8.1447 -1.40526 -2.4819e-21)
(6.01683 0.320899 0)
(6.49281 -8.18588 -2.20303e-20)
(4.02291 2.37164 -4.85297e-21)
(5.32709 -0.169727 4.34917e-21)
(7.61613 -1.20604 7.20974e-21)
(7.81 -0.134111 3.49245e-21)
(-2.02336 0.287476 -1.02387e-20)
(5.06872 -0.535871 3.51172e-23)
(7.28591 -0.545285 0)
(3.96774 -1.58583 1.05425e-20)
(8.18961 0.97838 0)
(4.96464 -3.75323 2.22022e-23)
(7.15857 -0.241235 6.31934e-21)
(6.50175 0.794777 -2.64694e-21)
(6.97904 0.903685 1.95306e-21)
(-3.02268 1.66427 -1.63778e-20)
(5.90938 -0.0272014 6.17757e-21)
(5.42828 0.0512097 0)
(-0.813953 -0.128246 -7.67995e-21)
(7.20738 -0.832121 -2.19605e-21)
(-1.43454 4.07228 -4.97781e-21)
(5.53158 0.42489 1.62739e-21)
(7.45247 0.168208 0)
(8.46639 1.30334 1.05133e-22)
(5.60711 0.0126652 9.42833e-21)
(5.93618 0.0504466 7.48964e-21)
(6.64021 0.280747 0)
(5.17286 0.0228149 -2.26462e-23)
(6.98645 0.495047 2.27052e-21)
(1.79402 1.52432 2.47336e-21)
(5.29601 -0.669222 1.20248e-21)
(7.18207 -0.726209 2.09463e-21)
(7.89624 0.0855139 -1.60316e-22)
(7.2532 -0.526945 0)
(6.63572 1.83532 -2.57549e-21)
(-0.421931 -1.05747 2.3925e-21)
(6.70222 0.637814 -4.7282e-22)
(5.99194 0.0607097 4.7001e-21)
(4.70711 0.0071112 0)
(5.4443 -5.31635 -8.42725e-21)
(8.27482 -5.14117 0)
(8.81394 1.80267 -3.8144e-21)
(6.49432 -0.101764 0)
(7.07454 -2.3578 -9.92586e-23)
(4.68997 -0.9499 -2.54469e-21)
(4.9284 1.2752 9.4864e-21)
(1.78652 1.43503 -1.05506e-20)
(6.27861 4.71653 0)
(6.62692 0.0970794 -1.68482e-21)
(6.02395 0.338823 -2.86068e-21)
(0.390534 -0.0518743 -6.49392e-21)
(6.44636 -6.36578 4.46872e-22)
(5.44049 -0.646036 -1.30737e-20)
(6.74807 -0.00270783 -2.62863e-22)
(6.14201 0.326955 2.05018e-21)
(5.09168 -1.78092 0)
(4.64461 0.0655068 5.00505e-21)
(5.94371 -0.709315 3.87106e-22)
(2.13142 -1.96164 7.82359e-22)
(-0.553891 -0.79518 -8.02382e-21)
(-0.0917221 0.36488 -1.25651e-20)
(7.45444 -0.180848 0)
(0.134323 0.174625 0)
(5.84403 2.14216 0)
(6.66903 -0.330997 0)
(2.18901 -2.11804 -2.11967e-21)
(8.67422 -1.33146 0)
(3.66473 3.40213 0)
(5.38246 -0.225219 1.80482e-21)
(7.62934 -0.241594 -5.22169e-21)
(7.16155 -0.524263 -5.00477e-21)
(5.36258 0.313377 1.53303e-20)
(6.00545 0.067482 -1.44476e-21)
(6.37946 3.43095 0)
(6.87777 -0.0898482 0)
(5.87507 -0.0386119 5.26838e-21)
(5.94005 0.0540654 9.18752e-22)
(3.88347 1.22968 0)
(-2.17035 0.972397 1.02401e-20)
(7.32298 -2.44858 3.47184e-21)
(-0.571103 0.247505 0)
(7.57563 0.0396292 3.6239e-21)
(5.97303 0.0165217 -6.08255e-21)
(9.49329 -1.84306 4.60133e-21)
(3.95281 -1.55221 0)
(5.99241 0.347174 5.30589e-21)
(7.01274 0.241352 0)
(6.86439 0.43063 0)
(6.38225 0.319654 -3.03192e-22)
(5.8751 0.0207477 2.82236e-21)
(-2.96445 1.67459 -1.90927e-20)
(6.54565 1.14669 6.45164e-22)
(4.76316 -1.5195 -4.51449e-21)
(6.60348 -0.30355 6.43458e-22)
(6.17182 0.347605 1.60544e-21)
(6.8515 1.8661 7.42948e-21)
(7.62329 -2.36719 0)
(6.35994 -0.276937 8.03908e-22)
(4.6948 -0.793935 0)
(4.75569 -3.95887 1.70857e-21)
(7.5914 -0.441491 0)
(4.89112 -0.478196 6.6533e-21)
(-0.435441 1.67307 -1.64025e-20)
(6.59718 0.148116 0)
(-1.2507 0.337107 5.7939e-22)
(6.76223 -0.0477909 -2.83685e-22)
(0.749683 -0.337548 -2.66336e-21)
(5.89484 -1.17736 1.2623e-20)
(4.58646 1.17618 -5.96721e-21)
(4.74517 -1.49382 -1.28401e-20)
(8.99663 1.69201 0)
(6.1896 -0.916535 -3.06124e-22)
(-1.94204 0.159389 -2.43768e-20)
(5.99667 0.350048 0)
(5.67251 0.221836 3.45864e-22)
(6.82222 -0.0242301 -2.19223e-22)
(7.3172 1.98145 0)
(6.00146 0.0162702 0)
(-1.09839 0.22094 0)
(2.66949 -4.01644 7.05712e-21)
(7.18237 -2.9014 4.9162e-21)
(9.26009 -1.79361 7.20748e-22)
(6.44784 1.83716 0)
(5.65645 -0.945721 8.51157e-21)
(5.23011 -0.0782493 -1.17328e-22)
(6.52462 1.04951 -1.38928e-21)
(3.41664 -3.70158 1.79374e-21)
(5.79968 0.175487 0)
(4.9157 -0.535686 0)
(3.32762 -1.04336 -7.10841e-21)
(5.02554 -1.7683 -3.20054e-21)
(6.35105 -0.792794 0)
(5.75955 -2.69113 -3.99555e-21)
(5.33807 0.0237269 1.04274e-22)
(4.99169 -0.289167 -6.1947e-23)
(3.50454 -1.67684 0)
(9.23377 0.197678 -1.19494e-21)
(6.0931 -0.728017 -3.28378e-22)
(6.98106 0.236312 6.11828e-22)
(6.30056 -1.9596 0)
(-2.47493 2.14149 -3.61603e-20)
(6.71453 0.819465 2.31941e-21)
(5.98994 0.19391 1.10599e-21)
(5.48622 0.0919828 -1.53355e-22)
(7.10552 1.20028 0)
(5.33459 0.290433 -4.07665e-21)
(8.03854 0.502242 -2.60304e-21)
(-0.354469 0.561321 2.77155e-21)
(5.99452 0.107995 0)
(5.97006 -6.10626 -4.58498e-22)
(2.62031 -0.922103 0)
(5.99261 0.11284 -4.3248e-21)
(5.97605 0.113606 1.85999e-21)
(5.8508 -0.164677 -1.02978e-21)
(2.34882 -3.69634 0)
(6.50242 -0.178056 -1.25017e-21)
(4.02152 0.309157 1.36959e-20)
(7.53447 -2.37704 0)
(5.33805 -0.282465 5.53997e-21)
(8.45927 -1.94503 -1.0562e-21)
(6.4908 0.0292288 0)
(4.5827 -7.82583 2.34343e-21)
(2.98478 9.24892 -1.00496e-20)
(7.90574 0.0679947 0)
(-1.97266 2.10188 2.17551e-20)
(5.66015 0.175628 0)
(5.96035 -2.71777 4.13973e-21)
(0.0311447 -1.61788 4.61929e-21)
(5.76692 -1.29794 3.02129e-23)
(6.76656 0.220896 1.39233e-22)
(4.63685 0.0227227 2.63927e-21)
(5.90341 -1.25512 -4.63188e-21)
(5.68926 4.70968 1.26648e-21)
(6.01085 -2.68352 4.01168e-23)
(7.15066 -0.738632 2.0107e-21)
(7.10389 1.18571 9.58212e-22)
(6.96721 -3.10551 0)
(5.99798 0.0498722 -4.16727e-21)
(1.89363 -0.334449 -5.7983e-21)
(4.75271 -0.810128 0)
(5.77631 -0.829321 1.59029e-22)
(4.32967 0.229142 0)
(4.49112 -1.5641 1.11975e-20)
(6.93471 -2.55055 0)
(5.00763 0.018662 1.65924e-22)
(7.25463 -0.223054 -3.62198e-21)
(3.95231 -8.40725 5.20286e-21)
(-0.746135 -0.103872 6.0082e-21)
(7.39208 0.17442 -3.60323e-23)
(5.88833 -2.80505 3.68016e-21)
(6.00975 -1.87298 4.55182e-21)
(5.13144 -1.4548 0)
(-2.70361 1.28829 -8.43165e-21)
(7.71111 -2.24414 -7.15816e-22)
(-2.82377 1.3188 -9.80376e-21)
(5.02559 -0.38677 2.15125e-23)
(5.08297 -2.06673 0)
(6.62028 -0.00789805 -2.46113e-23)
(-2.19127 0.952747 0)
(1.12609 -3.04852 5.17591e-22)
(10.1834 -1.81825 -5.30825e-21)
(1.95527 -1.74026 0)
(6.88042 -1.83944 1.33669e-21)
(-0.447564 -10.5925 0)
(7.35246 1.89693 0)
(5.62602 -2.66151 -5.4401e-21)
(4.85259 0.196815 4.08228e-21)
(1.36926 8.05972 0)
(5.60009 0.0741473 -2.58353e-21)
(9.64564 -1.43261 1.43241e-20)
(-0.531666 -1.10545 1.16926e-20)
(7.48951 2.73752 0)
(6.37101 -0.0300071 0)
(-2.02938 0.14926 -1.10058e-20)
(6.05435 -0.629827 0)
(6.60493 -0.152218 0)
(-0.545767 -3.33937 -7.55294e-22)
(6.83681 -1.37908 -6.45203e-21)
(5.88407 -1.62213 3.88154e-21)
(7.29054 -0.770761 3.62414e-22)
(-2.73364 1.20747 1.72811e-20)
(5.96531 0.0948066 2.13539e-21)
(5.24989 -1.51383 0)
(6.26577 0.812177 -8.46248e-22)
(4.92483 -1.12623 0)
(5.96765 -0.140719 0)
(5.99959 0.223552 0)
(6.34872 0.305036 -2.48104e-22)
(5.93385 -0.405721 3.74488e-21)
(8.07201 -0.112 -3.83411e-22)
(5.35813 -1.53466 0)
(-2.87981 1.4885 -1.34485e-20)
(5.82582 2.01326 1.8272e-21)
(6.27217 -2.31055 4.3345e-22)
(7.8313 0.592083 2.38903e-21)
(6.62535 -0.0689165 1.55937e-22)
(6.13936 0.0575924 -3.53555e-21)
(-0.241297 1.6797 0)
(6.90899 0.786374 0)
(4.43825 1.25441 0)
(4.54044 -2.08689 -8.1793e-21)
(3.59386 -11.4016 -2.12576e-20)
(1.07717 -0.616003 0)
(6.30326 0.806778 0)
(7.38404 1.81691 1.49829e-21)
(6.12439 -0.0745283 -1.01715e-21)
(5.70128 1.03972 4.5995e-21)
(7.23642 -2.90709 0)
(-2.99372 1.32819 -5.41774e-21)
(6.70521 0.105285 7.5844e-22)
(4.93279 -1.68755 -7.5955e-21)
(6.37828 0.121768 -1.49959e-21)
(6.50943 1.04464 2.09923e-21)
(5.75786 -2.20719 2.88836e-21)
(4.47911 -2.05446 1.41048e-20)
(-3.08206 -1.31762 5.94915e-21)
(6.81191 -0.570255 1.12416e-22)
(5.99236 0.0185898 -1.04784e-21)
(5.20483 -2.51382 -1.17094e-21)
(3.45019 8.98137 5.57669e-21)
(4.62324 3.95448 -2.44286e-21)
(5.62186 -2.65496 2.12035e-21)
(6.33695 0.389834 0)
(1.88936 3.14444 5.9121e-23)
(6.4423 -0.0283552 -3.98339e-21)
(7.7103 1.18217 1.29103e-21)
(4.84635 -1.5994 -6.92108e-21)
(6.22706 -2.23708 -4.64796e-21)
(6.59435 -0.00496646 9.84002e-21)
(8.53268 -0.183312 -5.65499e-21)
(5.95434 3.83722 2.08226e-22)
(7.48748 -0.117159 -2.02425e-21)
(4.26109 -1.11029 -1.50808e-20)
(6.48451 -0.0376513 -3.32284e-21)
(4.23719 -1.27148 0)
(2.98534 -9.01365 -1.07612e-20)
(6.63958 0.0113558 9.0437e-21)
(4.3721 0.0508893 -5.49224e-23)
(-1.33266 -0.40721 0)
(6.222 -2.8365 0)
(5.98718 0.726152 3.99689e-21)
(3.94904 -1.10279 9.34384e-21)
(2.1064 -6.26967 -7.88601e-21)
(7.11827 -2.33268 -2.26175e-21)
(7.50097 -1.20566 5.52544e-21)
(8.27549 0.863156 0)
(5.98535 0.78293 2.21855e-21)
(11.4069 -0.0332059 -3.11734e-21)
(6.8498 1.86559 9.00496e-23)
(6.50517 -1.03033 -5.64017e-21)
(-2.68243 1.2185 -2.74683e-20)
(6.04561 -0.0147246 -6.88892e-23)
(7.65844 -0.669664 7.74258e-22)
(6.30401 2.27363 0)
(7.33422 1.90025 2.26399e-21)
(5.85829 -0.161542 9.42269e-22)
(5.22012 -0.011575 6.39061e-23)
(3.58167 -1.78617 1.30368e-20)
(6.43795 -1.05586 8.49583e-21)
(4.33587 -1.75082 -3.25217e-22)
(-0.817318 -0.809094 -6.88982e-21)
(6.70018 0.0728172 8.29331e-22)
(6.48777 0.0568692 2.97643e-21)
(-2.32303 -0.765111 -2.40077e-21)
(6.66207 1.83724 1.26199e-21)
(-2.02196 2.03384 -2.36379e-20)
(4.32512 -2.10472 -4.37499e-21)
(5.16768 -0.000300493 0)
(5.21627 -0.904376 -5.47996e-22)
(0.372072 -3.10162 -4.76716e-21)
(4.67657 -1.02264 1.36222e-20)
(7.29763 -0.796458 0)
(9.88997 1.69325 -2.76071e-21)
(4.36989 -1.88833 3.19398e-21)
(5.98034 0.0769164 -9.11288e-21)
(-2.02802 0.660451 -8.87153e-21)
(1.24411 8.14136 -3.4568e-21)
(7.20413 -0.549434 3.42992e-21)
(6.46687 0.0945988 2.49681e-21)
(6.02025 -2.74471 -5.7235e-21)
(8.03138 -0.195992 4.62764e-22)
(2.09122 -11.067 -3.1842e-20)
(6.37799 -0.0270313 3.73609e-21)
(6.5479 -0.26965 -2.77839e-21)
(6.2448 0.186416 -6.91264e-23)
(7.63336 0.00877163 -5.9874e-21)
(4.27114 -1.94183 -6.15845e-21)
(6.81597 -0.446814 0)
(2.07449 -5.66282 5.81633e-21)
(6.3883 0.0603149 6.7943e-22)
(7.29082 -1.71766 3.41344e-21)
(7.06973 0.00201501 3.00957e-22)
(7.30456 -1.30895 -3.42425e-21)
(5.99587 0.0484052 -7.20356e-21)
(6.16286 0.549923 1.22154e-21)
(-2.13878 0.876856 -1.05254e-20)
(6.63689 -0.200135 0)
(5.13021 -5.53246 4.28566e-21)
(6.29976 0.78758 2.71296e-21)
(5.10452 -2.02876 0)
(6.24842 0.149258 2.36662e-21)
(6.18704 0.530793 3.68411e-21)
(6.59369 -0.217347 3.66682e-25)
(8.452 -3.11575 2.84748e-22)
(11.7488 -0.00652033 0)
(5.47194 0.467521 7.55808e-21)
(4.85661 -1.32808 7.17386e-22)
(5.51869 -2.58556 4.6584e-21)
(6.53754 -0.728255 0)
(4.8443 0.151498 -1.1795e-20)
(10.9176 4.13858 1.50779e-20)
(6.85157 2.95941 -1.78906e-21)
(4.2932 -1.14882 1.47422e-20)
(8.18524 0.0944155 7.93357e-22)
(-1.0208 0.101464 5.27063e-21)
(6.1749 -0.533215 -5.88932e-21)
(6.51068 -0.376994 -1.45355e-21)
(5.58653 0.00276045 -5.41965e-21)
(7.12887 0.0504624 0)
(5.98552 0.0404899 -3.96502e-21)
(-0.788653 -0.562834 1.00001e-20)
(-1.45349 0.078547 0)
(5.2781 -1.21246 0)
(5.20903 -0.00800027 0)
(-0.621798 0.730122 0)
(6.0652 0.528434 0)
(4.12559 -1.09407 0)
(-0.130531 0.647404 4.49757e-22)
(8.75717 -1.8919 -6.09931e-21)
(7.04051 0.540592 0)
(5.45866 0.40457 1.12492e-20)
(7.16583 5.57018 -2.76603e-20)
(6.14057 0.359439 9.63287e-23)
(-0.0544083 -3.30399 -2.9134e-21)
(4.10927 -0.533051 -2.0093e-23)
(-2.05594 0.847913 8.25182e-21)
(5.92195 0.0733549 -2.58558e-21)
(6.96503 -0.0381723 1.44939e-22)
(6.01987 0.507114 -2.73787e-21)
(5.71899 0.167701 -7.38236e-21)
(5.72524 1.78501 -3.91524e-21)
(8.80895 1.84036 0)
(5.28794 -5.62237 7.58369e-22)
(4.52614 -1.60128 -1.22604e-20)
(6.02313 0.0362969 -1.204e-20)
(7.74099 -2.19496 -3.9867e-21)
(7.21721 -0.0613568 9.60087e-22)
(8.88261 -1.98921 3.59178e-22)
(7.04505 -1.05643 -7.4336e-22)
(6.92652 -1.80194 -4.65912e-21)
(6.03127 0.307582 2.96507e-21)
(8.29477 4.57506 0)
(7.3937 4.88816 3.07938e-22)
(5.44236 -0.27189 -1.66291e-21)
(8.93585 -1.1391 0)
(12.7719 -3.14985 0)
(6.28712 -2.85061 -3.74494e-23)
(-0.787397 -0.240941 5.34108e-21)
(-0.00850441 0.0313031 4.84647e-21)
(9.10449 -2.14224 0)
(6.02821 -0.425994 -7.69398e-21)
(5.59787 0.168687 -1.42246e-21)
(2.27189 -6.27435 3.23455e-21)
(6.12403 0.0871133 2.02105e-21)
(-1.91112 0.764835 0)
(4.62071 -5.5931 7.8331e-22)
(6.32787 0.363111 0)
(6.67221 1.94487 -2.55386e-21)
(8.52591 1.31864 -3.49093e-22)
(6.00588 0.0501276 -8.45139e-24)
(6.60691 1.19024 -2.79634e-21)
(7.38892 2.34962 -4.82882e-22)
(5.85527 -1.83406 9.42253e-21)
(7.76132 -6.41735 0)
(-1.89443 -8.5279 -2.76442e-20)
(4.17455 8.86009 0)
(7.1405 0.507544 -3.95095e-22)
(2.06051 -5.86101 5.74319e-21)
(6.20214 -0.943994 1.81277e-21)
(5.74081 -6.49266 -6.40337e-21)
(2.03469 -4.03866 -1.01095e-20)
(4.95194 -2.30234 -5.38025e-21)
(4.63942 -1.60676 -7.14464e-21)
(5.98257 -0.756571 -1.34854e-22)
(-2.62404 -8.03807 2.23334e-20)
(4.30945 -1.95739 5.04877e-21)
(4.80225 -1.676 7.76379e-21)
(3.28847 -9.93408 2.33032e-20)
(-3.10123 -7.11224 -6.90532e-21)
(6.18058 -2.0226 4.66071e-21)
(0.898029 1.38451 1.11296e-20)
(7.86018 -0.00493277 3.70122e-22)
(6.99293 5.6905 2.46155e-20)
(6.58068 0.724357 -8.7044e-22)
(7.59522 -1.81898 0)
(-0.315718 0.440437 -2.53643e-20)
(6.26078 -0.0210187 -4.58013e-21)
(5.98618 0.21618 0)
(7.0854 0.473595 0)
(-0.0188301 -5.25887 -6.22086e-20)
(6.87786 -0.951146 -3.22109e-21)
(6.73312 0.331079 -9.23574e-22)
(6.81962 -1.34839 8.47801e-21)
(5.71481 1.77206 3.41075e-21)
(5.40823 -0.068922 6.47403e-21)
(1.77322 -5.29495 -4.56209e-22)
(5.43212 1.01707 0)
(4.90209 -1.74984 7.40778e-21)
(0.0636 2.27455 4.98903e-21)
(2.21423 -3.88896 7.7002e-21)
(5.82836 -2.28505 1.56528e-21)
(6.32385 -2.89811 -9.84111e-22)
(6.06471 -0.0354797 3.38691e-21)
(10.4992 -6.47557 5.61468e-21)
(6.53462 0.327416 -2.98835e-21)
(1.64473 -4.62039 -4.04539e-21)
(6.72565 0.323002 7.16285e-22)
(5.91812 -0.0385682 3.08788e-21)
(4.21653 -1.2522 -6.05889e-21)
(6.03597 -0.55312 4.78705e-21)
(5.64627 4.1224 0)
(6.74857 0.62474 9.18129e-22)
(5.96711 0.00474803 6.87862e-22)
(5.10145 -1.36909 -2.38831e-21)
(5.32063 3.47665 -1.50547e-21)
(6.09783 -1.99611 3.45655e-21)
(6.11022 -0.00191909 1.34937e-21)
(4.67767 -0.307084 -8.96535e-21)
(8.67891 -1.15359 0)
(6.16866 -5.40777 -7.28635e-21)
(6.38755 0.134847 2.02966e-21)
(9.41139 0.829469 0)
(4.80901 -0.541962 5.12619e-21)
(6.24225 0.0496901 0)
(4.70539 3.31453 8.44139e-21)
(8.1478 -0.0932676 0)
(7.46966 4.73837 0)
(7.15728 0.39404 1.30465e-21)
(6.66403 0.244596 7.80647e-22)
(7.59127 0.153221 -3.69447e-21)
(5.82182 0.154039 -3.36688e-21)
(4.78413 1.89721 -2.84068e-21)
(6.00654 0.173113 -1.34887e-21)
(6.12394 0.544191 0)
(6.74636 0.858423 -2.28214e-21)
(6.83869 0.208868 -7.08589e-24)
(6.9329 2.16151 5.90854e-21)
(7.59454 -1.80245 0)
(7.7596 1.11839 2.02862e-21)
(6.01611 3.35045 -1.40346e-22)
(8.01209 0.0355166 1.46599e-21)
(4.02022 -4.94315 0)
(-0.231756 -3.36899 1.28002e-20)
(6.08052 0.306295 0)
(6.6398 0.39409 1.47362e-21)
(0.0291072 -0.219425 0)
(9.13534 0.435063 0)
(-3.1228 -3.61973 0)
(6.80034 -2.53565 0)
(-2.77675 0.847016 -2.88102e-21)
(2.61675 -4.81595 -1.58598e-21)
(5.92101 -0.411138 -5.59853e-21)
(3.82168 -8.63969 -5.27975e-21)
(4.53694 -2.01299 0)
(2.95987 -9.7974 -5.87061e-21)
(-0.421239 -0.195199 -2.01119e-20)
(5.4062 -2.54654 0)
(5.10614 -1.93077 -7.9975e-21)
(5.48868 -1.32106 1.08114e-22)
(6.55081 0.684722 2.19714e-21)
(8.17619 -2.70118 7.04667e-22)
(5.70165 0.122299 0)
(7.37001 -2.31149 0)
(8.50633 0.1304 2.31521e-21)
(4.52164 9.20388 1.84846e-21)
(6.41212 -1.07626 1.7951e-22)
(-1.61775 -2.70989 1.56643e-22)
(5.99843 0.0229249 2.93833e-22)
(4.75973 -0.767546 -2.7898e-23)
(6.02897 0.310021 4.23129e-21)
(5.81709 -4.38677 2.65411e-21)
(6.32826 -1.85108 0)
(-3.19434 1.83713 0)
(7.86341 -0.176604 0)
(4.98559 0.100424 0)
(5.79555 -1.33972 3.40458e-21)
(7.13503 -0.128838 0)
(-1.81178 -1.63217 3.21339e-20)
(3.66521 -3.07036 -2.74062e-22)
(4.71714 -1.71165 -1.16937e-20)
(6.38192 4.88292 1.25899e-20)
(2.41253 -5.80728 -3.13849e-21)
(-0.416577 -1.16528 -1.91644e-20)
(6.58047 0.0640692 1.07167e-21)
(1.4633 -3.49417 -4.17401e-21)
(5.52866 -3.82094 2.56697e-21)
(7.30378 0.311362 0)
(7.96568 -1.0262 0)
(3.63734 5.983 0)
(7.28059 -1.38933 1.8075e-21)
(-0.404179 -9.75226 0)
(5.49302 0.98446 0)
(6.00389 0.0271518 0)
(5.93212 -1.60972 3.65041e-21)
(6.14713 0.33194 -4.10642e-21)
(4.21333 0.345119 0)
(1.52814 -0.642095 6.7224e-21)
(5.9331 0.315285 -4.03138e-21)
(6.84814 1.76323 -3.461e-22)
(5.4913 -2.53827 4.87339e-21)
(5.63975 1.15406 4.08425e-23)
(3.09486 8.07095 -7.29304e-22)
(12.1642 -3.81238 2.5601e-20)
(4.66551 4.36543 2.42994e-21)
(6.67452 0.271957 -1.01685e-21)
(6.34249 -0.874402 4.87339e-22)
(5.69293 -0.135359 -5.31617e-21)
(6.31654 -0.0209043 0)
(8.35088 -1.09491 -2.47094e-21)
(5.93426 0.0364935 5.53896e-21)
(11.4296 1.58515 2.33206e-20)
(7.00985 -1.00743 -2.17655e-21)
(4.01893 -1.15481 -1.01639e-20)
(6.67809 0.21514 1.63548e-22)
(7.93608 0.562622 3.76569e-21)
(6.0016 0.165984 0)
(2.95169 2.65551 -5.32128e-22)
(9.31867 -2.89162 -1.26503e-21)
(3.97532 4.20267 -4.65633e-21)
(3.6402 -4.55373 -2.04669e-21)
(6.13355 -0.0341465 2.91838e-21)
(7.43743 -0.374443 -1.25576e-22)
(8.04379 0.0628143 -6.08184e-22)
(7.98081 -0.1212 0)
(8.67976 4.17944 0)
(5.1211 -2.45234 6.04325e-21)
(-1.96968 0.668074 9.58241e-21)
(5.20835 0.0337201 9.57322e-24)
(5.93956 0.0295906 1.10455e-20)
(3.19557 2.97461 1.63078e-21)
(4.8038 0.0598583 0)
(5.62813 -0.121539 0)
(5.44407 -1.4616 -4.22926e-23)
(6.85819 0.24099 2.02145e-21)
(5.74105 1.0702 6.30926e-21)
(7.8913 0.473713 0)
(6.50502 -0.173866 0)
(7.0182 -1.99748 6.44768e-21)
(6.43832 -0.689491 4.58046e-21)
(3.3672 -1.41335 -1.5885e-21)
(8.09268 0.189577 0)
(9.81612 0.571811 3.44164e-21)
(6.8928 -0.358582 -4.51477e-23)
(0.457967 -2.92391 -6.55439e-21)
(6.21276 -0.209361 -6.27106e-21)
(8.41717 -1.32669 0)
(6.67506 -1.02461 2.50391e-21)
(4.31344 -4.68803 -7.07338e-21)
(0.609977 -0.175422 0)
(5.36571 0.0943952 4.26553e-22)
(5.82969 0.0606321 -3.60507e-21)
(5.19781 0.0714728 6.42962e-25)
(8.87849 0.926114 -1.49832e-22)
(6.70803 6.04132 6.02291e-21)
(6.45393 0.0557828 0)
(4.00347 -1.63388 -6.44233e-23)
(3.67228 3.10436 -1.68663e-21)
(7.07281 -5.26047 -1.686e-20)
(6.0426 0.507448 3.24208e-21)
(8.97007 -5.76116 1.46632e-20)
(6.06886 0.00140479 -1.38169e-20)
(4.34109 -1.71502 2.84806e-22)
(7.60129 -7.35753 2.07682e-20)
(5.83681 -1.52654 0)
(8.45513 -1.92676 -2.59856e-21)
(4.25065 -2.00324 4.07319e-21)
(7.15698 -0.220132 -6.97746e-21)
(5.96915 0.0192867 -5.00986e-21)
(6.83549 0.440708 -1.4703e-21)
(5.54534 -0.918589 1.23607e-20)
(7.7262 0.00296562 -4.37367e-22)
(5.62361 -0.101868 3.05855e-21)
(5.71213 -0.86126 4.97609e-22)
(7.38024 -0.79139 -4.07602e-21)
(6.73648 1.97879 -1.12241e-22)
(2.44723 -4.8072 6.21144e-21)
(6.41982 -0.0300326 0)
(1.99753 5.20206 0)
(5.12341 -2.01286 0)
(4.70629 -1.62147 8.99189e-21)
(6.07035 0.0479959 -8.02627e-21)
(5.5576 0.184029 0)
(5.20968 -1.40469 -7.09336e-21)
(5.54157 0.122512 0)
(5.81464 -1.24138 -5.62711e-21)
(5.11735 1.55803 7.10687e-21)
(6.25941 -1.75307 -5.11604e-21)
(6.55313 0.0549307 0)
(5.93003 -0.0662257 0)
(8.33184 0.780443 -2.17245e-21)
(6.99843 0.451354 2.44638e-23)
(6.84797 -0.0479387 8.54953e-22)
(6.28428 3.53421 -3.8575e-22)
(8.30877 0.580068 0)
(5.85746 -2.22915 -2.59993e-21)
(-1.12912 0.0552099 0)
(3.14352 1.34245 -5.30567e-21)
(7.448 2.30941 0)
(7.2943 -0.318219 2.82184e-22)
(4.27747 -1.04111 3.91609e-21)
(5.14799 -0.90403 3.95736e-21)
(7.93463 0.375396 2.16518e-21)
(3.88664 -2.93213 -1.03726e-20)
(6.36868 -0.798713 1.15416e-20)
(6.0722 0.530764 -9.35128e-23)
(8.41396 -1.9465 -3.78164e-22)
(6.60091 -1.53717 -2.60099e-21)
(-1.41704 0.327364 9.37592e-21)
(7.08082 0.768532 0)
(5.98308 0.0436146 1.26902e-23)
(5.28405 -1.55403 0)
(9.45115 -7.41119 -1.74607e-20)
(5.91619 -2.21892 -1.35814e-21)
(5.55801 -0.836554 -4.05942e-21)
(5.12074 0.0314178 2.51418e-23)