/*--------------------------------*- C++ -*----------------------------------*\
| =========                 |                                                 |
| \\      /  F ield         | OpenFOAM: The Open Source CFD Toolbox           |
|  \\    /   O peration     | Version:  2306                                  |
|   \\  /    A nd           | Website:  www.openfoam.com                      |
|    \\/     M anipulation  |                                                 |
\*---------------------------------------------------------------------------*/
FoamFile
{
    version     2.0;
    format      ascii;
    arch        "LSB;label=32;scalar=64";
    class       surfaceScalarField;
    location    "6.3";
    object      phi;
}
// * * * * * * * * * * * * * * * * * * * * * * * * * * * * * * * * * * * * * //

dimensions      [0 3 -1 0 0 0 0];

oriented        oriented;

internalField   nonuniform List<scalar> 
7520
(
-0.988136
0.801987
0.186149
-1.34714
-0.187164
1.53431
-0.0859886
-1.87975
1.96574
0.227575
-0.0306739
-0.196901
0.186756
1.63728
-1.82404
-0.086981
0.0935986
-0.00661761
-0.31417
2.12353
-1.80936
-0.197427
-1.88849
2.08592
-1.55538
1.46939
0.844812
-0.0926477
-0.752164
0.350669
-0.307927
-0.0427419
-0.254991
-1.62352
1.87851
0.707318
-0.110641
-0.596676
-0.0976525
0.1349
-0.0372477
-2.00305
0.930838
1.07221
0.117228
1.56088
-1.67811
0.191784
-0.098143
-0.0936406
-0.1553
-0.22324
0.37854
0.0345213
0.0221785
-0.0566997
-0.00822744
0.200011
-0.409308
-0.2791
0.688408
-1.07017
1.1874
-0.0306596
-0.309114
0.339774
0.132304
-0.139011
0.00670676
0.0894657
-0.29981
0.210344
0.245957
-0.239792
-0.00616553
0.855277
1.12923
-1.9845
-0.0361565
0.309837
-0.273681
-0.0316865
0.0662077
0.193888
-0.0305801
-0.163307
-1.14765
1.75145
-0.603797
-0.0473511
-0.0180629
0.0654139
-1.84685
2.0184
-0.171551
-0.261098
0.110354
0.150744
-0.291771
-1.25027
1.54204
-0.390405
0.974228
-0.583823
0.25667
-0.530869
0.274198
0.798466
-1.58569
0.787225
0.0868955
-0.308072
0.221177
-0.0437912
-0.0994503
0.143242
-0.0272313
0.254806
0.372974
-0.194826
-0.178148
0.280307
-0.0343495
2.08461
-1.57966
-0.504949
-0.566496
-0.609417
1.17591
-1.50953
1.6257
-0.116174
-0.144722
-0.0431507
0.187872
0.256321
-0.0725634
-0.183757
-1.3372
0.189548
0.267418
-0.0733718
-0.194046
1.80116
0.187746
-1.98891
-0.72536
0.271476
0.453885
0.0358035
-0.027526
-0.00827752
1.05061
0.489732
-1.54034
0.0144014
-0.101382
-0.78415
0.142387
0.641763
0.414774
-1.26848
0.853705
-0.0405693
-0.120457
0.161026
-0.115319
0.0679679
-2.19177
1.11304
1.07873
1.54798
-0.731346
-0.81663
0.0085648
0.142481
-0.151045
-1.28153
0.989763
0.825553
-0.118236
0.0290605
0.00674297
0.00391311
-0.101566
1.12864
-2.31903
1.19039
0.140045
1.66111
-1.24637
0.979175
0.267198
0.308112
-0.232127
-0.0759848
-0.486271
0.901045
0.127507
-0.748023
0.620516
0.332596
-0.0910705
-0.241526
0.243166
-0.368045
0.124879
0.898198
-1.50986
0.61166
0.123683
-0.108251
-0.0154323
1.6987
-0.56324
-1.13546
0.379346
-0.736227
0.356882
1.69053
-1.20064
-0.489884
-0.836871
0.052721
-1.485
-0.706772
1.24806
-0.557618
-0.690444
0.230525
-0.601562
0.371037
-0.304925
0.0438272
-0.423923
0.268622
0.210532
-0.0166447
0.00909954
-0.0472819
0.0381824
0.934865
0.763833
-1.9552
2.26373
-0.30853
0.71885
0.829126
-0.953683
1.11389
-0.160209
0.0048668
-0.0487626
0.0438958
1.36988
-1.62487
0.236744
0.189916
-0.10302
0.385191
0.245292
-0.630482
0.00719986
0.0813193
-0.0885192
-0.512707
0.386354
0.126353
1.3529
-0.454699
-0.720339
0.619246
0.101093
0.948768
-1.52963
0.580862
-0.0854213
0.107397
-0.0219753
-0.0106162
0.0115796
-0.00096338
2.82974
-1.61542
-1.21432
0.521733
-0.406526
-0.58161
-1.31461
0.82834
-1.93218
1.61801
0.161485
-0.0779082
-0.0835771
0.211096
0.139573
-0.153601
0.15242
0.00118039
-0.127784
0.173999
-0.0462154
1.93568
-1.13722
-0.0908316
0.0251747
0.0656569
-0.771767
0.36246
0.0104385
-0.0468764
0.0364379
0.42342
0.824643
-0.791345
0.495737
0.295608
1.35605
-1.77627
0.420222
0.0326117
0.0996925
-0.201398
-0.523963
-0.382741
0.100861
0.281879
1.05115
-0.206334
0.469955
-0.43158
-0.0383751
-0.0443155
-0.0604225
0.104738
-0.154958
0.133348
0.0216097
0.708032
-1.83072
1.12269
0.380541
-0.411201
-0.340127
-0.0497784
0.389906
-0.0334174
-0.0574142
-0.232107
-0.301423
0.533529
0.13955
0.0314602
-0.17101
-0.062742
0.202292
-0.598989
-0.192356
-0.458949
-0.540899
0.999848
-1.07397
2.14336
-1.06939
0.402996
-0.415997
0.0130008
-1.1512
-0.163413
-0.0327511
-0.0492792
0.0820303
1.39404
-0.343438
-0.648559
0.421083
0.227476
-0.00207682
0.114944
-0.112868
0.282176
-0.0726883
-0.209488
0.271596
-2.15135
0.303665
-1.81319
-2.46504
0.750433
1.7146
-0.838835
-0.407538
-1.36126
1.27989
0.0813654
2.03978
0.233783
-2.27356
0.177554
-0.221345
0.305127
0.830402
-1.13553
-0.252661
-0.299467
0.552129
0.234421
-1.59568
-1.85121
0.00435695
-0.00508391
0.0141835
0.0612988
-0.11259
0.0512909
0.278604
-0.319173
1.39132
-0.442548
-0.150107
0.122876
-0.0234271
0.00133071
0.0220964
0.746492
-0.409645
-0.336847
-0.455903
-1.54715
-0.0301639
-0.222498
0.0361229
-0.571605
0.535482
0.291214
0.0864162
-0.37763
-1.58374
0.950189
0.633546
0.831536
-0.64478
-0.0516598
0.441832
-0.390172
-0.296146
0.385611
0.50583
-0.236069
-0.269761
0.902955
-0.517764
0.231329
-0.304701
0.90316
0.300004
-1.20316
0.291871
-0.328028
-0.345925
-1.44967
1.7956
1.29653
0.647919
0.675212
-0.444687
-1.33428
0.943871
-0.680403
0.896592
-0.216189
0.0132632
-0.0346422
0.0213789
0.271085
-0.313324
0.0422393
-1.21523
1.63865
-0.266845
-0.14761
0.414454
0.379912
-0.0886978
-0.844248
0.880371
0.583711
-1.08134
0.497629
-0.500817
-0.0118896
0.663546
-0.406875
0.134095
-0.0104121
-0.426206
0.307023
0.119183
0.0748477
-0.202631
-0.323509
-0.11818
0.441689
0.128255
0.204341
-0.941088
-0.56877
-0.754405
-0.82933
-7.13936e-05
0.0458002
-0.0457288
1.39533
-0.304954
-1.09038
-1.44784
0.373872
-1.17661
2.16029
-0.983677
0.351513
0.154317
-0.425524
0.438885
-0.0133611
-0.765682
0.564284
0.576482
-1.14298
1.75796
-0.0678613
-1.6901
-1.44188
1.87741
-0.435528
-0.0208184
0.0821172
0.429221
1.47662
-1.90584
0.0327992
-0.162625
0.129826
-0.10071
1.78616
-1.68545
0.0015072
0.106935
-0.108442
-0.896419
1.24115
-0.344736
-0.119546
-0.646136
0.0850649
-0.408574
0.278557
-0.160758
-1.75188
1.91263
0.0217276
0.000450914
-1.67668
0.735595
-0.061377
-0.284034
0.345411
0.0642665
-0.108582
0.116076
1.59915
-1.71523
-0.571938
-0.553141
1.12508
-0.490993
0.390555
0.100438
2.62765
-1.70543
-0.922215
0.444542
-1.01648
0.0497045
-0.0534755
0.00377104
0.101356
0.736445
-0.837801
0.0370089
-0.0407405
0.00373165
0.851298
0.802913
-1.65421
-0.231309
-0.48903
-0.0573539
0.162862
-0.105508
-0.920336
0.70052
0.219815
-0.0661961
0.0370417
0.0291544
1.69584
-0.300511
1.05479
-2.00409
0.949298
-2.80262
1.22647
1.57615
-1.16977
-1.63285
-0.374644
0.49381
-0.119167
0.496795
-0.346202
-0.150593
0.833591
-1.67486
0.84127
0.047362
1.05826
-1.10562
-0.803791
0.246173
1.12473
-0.22157
1.17432
1.30364
-2.47796
-0.175662
0.0793466
0.0963155
0.0413271
-0.961663
1.86494
-0.488817
-1.37612
0.13232
-0.0995204
0.149719
0.0899751
-0.188118
1.06018
0.804755
0.166032
0.684439
-0.850471
0.350415
-0.040578
-0.0638061
0.0587076
0.00509846
0.497474
-0.437829
-0.0596444
-1.80324
0.863485
0.939751
0.388949
0.107846
0.746428
-1.20538
0.378154
-0.0104234
-0.367731
0.13192
0.124401
-1.73885
1.67845
0.0604024
1.19153
-0.607819
0.029413
-0.017347
-0.012066
0.00700462
-0.235079
0.228074
0.11636
-0.207431
1.69823
-0.569591
-0.0604027
0.291771
-0.231368
0.00193357
-0.0253607
-0.00769536
-0.300232
0.819292
-0.574
-0.641444
0.688806
-0.326242
-0.0999646
2.12353
0.0180448
-0.019647
0.00160217
0.0162895
0.803003
-0.196017
0.125988
0.0700291
0.0156712
-0.0262874
0.0796511
0.293323
1.62368
-1.31855
0.409579
-0.364173
-0.0454056
0.318749
-1.21517
0.109233
-0.34134
-1.92988
1.76913
0.0382417
0.0114628
-2.12731
0.215201
-0.217278
-0.0594474
0.0394462
0.0200012
-0.598751
-1.20448
1.80075
1.02898
1.72212
-0.771928
-1.62352
0.159025
0.31093
0.152752
-0.132483
-0.020269
0.177295
-0.242355
0.06506
-1.24539
0.635969
-0.196488
-0.252175
0.448663
0.300248
-0.392896
-0.108193
-2.03324
2.14144
0.997044
0.208853
-1.50329
1.29444
0.935801
1.0826
-0.664282
1.58425
-1.15503
-0.050575
0.376654
-0.326079
-0.886368
0.754426
0.131942
-0.180531
0.120129
-0.082231
0.318382
-0.236151
-0.251231
-0.263097
0.514327
-0.532831
1.82936
-0.280233
-0.35028
0.630513
-0.240062
0.0953402
0.257179
-1.21086
-0.047296
-0.0165101
0.00817732
-1.84213
0.973068
0.869064
0.353217
-0.463858
0.00817931
-0.0159846
0.418981
1.11712
1.51052
1.64905
-0.529355
-1.1197
0.114124
-0.0440725
-0.0700516
0.741745
0.948781
0.0798862
0.0728659
0.660465
-2.17633
1.51586
-0.0780551
0.101105
-0.0230498
0.702326
0.650571
-0.211766
-0.0963064
0.72952
-0.563488
-0.569783
1.42506
0.150228
0.0112571
1.69323
-0.337182
0.139341
-0.132141
1.75827
-0.109221
0.0995685
0.394763
0.0148156
0.0172442
0.290868
-1.74444
-0.83177
0.969414
-0.137645
0.00559596
-0.113847
1.77125
0.0220067
-1.79325
-0.694659
0.414426
0.217191
0.0649854
-0.298979
0.0668514
0.0102942
-1.21094
1.54805
-1.568
0.0199506
0.00769822
-0.269494
0.261796
-0.605885
1.30821
-0.807643
1.51567
0.0300367
-0.0223385
0.770734
-0.274996
1.96481
-0.594931
0.00507374
0.116581
-0.121654
-0.0721896
-0.0887705
0.16096
0.110469
0.00365543
-0.316291
-0.729095
-0.171075
-0.22421
0.395285
0.718389
1.42497
-1.68894
1.34302
0.103854
-0.443981
-0.801407
0.928914
-1.1429
1.32657
-0.183668
0.515184
-1.72129
1.62058
1.56854
-0.633675
1.30359
0.781017
-0.0640974
0.265372
1.28268
-1.32041
0.279335
1.04107
0.245144
-0.275724
0.422818
-0.0338688
-0.207451
0.144709
-0.090532
-1.48913
0.490306
-1.24527
0.754968
-1.47518
1.00717
0.468007
-0.0833745
-0.664649
-0.177925
0.18649
0.0846687
-0.00721934
0.155906
-0.148686
-0.53166
0.480001
0.784043
0.784498
-1.44188
-0.0839136
-0.0710439
1.60783
-1.42481
-0.183025
-0.42812
1.90474
-1.64985
2.50974
-0.859888
-0.735512
1.03164
-0.296124
0.0984161
-1.37995
0.06729
-0.413493
-0.264168
0.414238
-0.15007
-0.00887258
0.0204522
1.33808
0.701931
-1.27734
0.575407
-0.031431
-1.54135
1.57278
-0.0507313
-0.102869
-0.00959256
-0.475391
0.484983
-0.470875
1.30801
-0.837138
0.192089
-0.133697
-0.0583918
-0.0655935
0.0461549
0.0194386
-1.96143
1.77427
2.23944
-0.447645
-1.7918
-0.0134012
-0.000849637
0.0142508
0.00876567
0.16853
0.0874728
-0.58829
-0.833892
1.68519
-0.00459385
0.0150324
1.75796
-0.997601
1.09896
0.150592
-0.150592
-0.125399
0.292787
-2.24798
2.25195
-0.944565
-1.30739
-0.900604
0.789009
0.111595
-0.0782798
-0.157444
0.235724
1.02579
-1.19532
0.169529
-0.582836
-0.203787
0.786623
0.706865
-1.99354
1.28667
-0.0901014
-0.796266
-0.207492
0.135302
-0.187898
-0.586135
0.774033
0.756031
0.418733
-1.17476
-1.34099
-0.408902
0.659811
-0.250909
-0.693564
1.05182
-0.358254
1.44934
-1.33326
0.180854
-0.351929
0.0691333
-0.163444
0.40661
-1.23254
1.20075
0.0317864
-1.27183
1.78262
-0.510794
-0.0165597
0.127515
-0.110955
-1.56082
-0.758213
-0.038522
0.00683554
-1.64119
0.46458
-0.359186
0.276955
-0.191572
-0.543939
0.0171665
-0.0952217
-0.794104
1.96842
0.0427059
-0.35182
-1.5153
0.114543
1.40076
0.689829
-0.523468
-0.16636
-0.85185
0.171447
0.211927
-0.552097
0.34017
1.60457
-0.13973
-1.46484
-0.0546681
0.110256
-0.0555881
-0.384236
0.698432
0.838361
-1.53679
-0.581246
1.51208
0.195727
0.664674
0.729371
-0.150087
1.57542
0.182852
-1.41806
1.38663
0.148309
-0.0927621
-0.0555466
0.239786
-0.213843
-0.0259422
-2.01333
0.363484
-0.101954
-0.0928723
-0.607287
-0.224482
0.2539
0.834634
-0.250995
-0.58364
0.185954
0.0943526
-1.19275
1.73357
-0.540819
0.152652
-0.241423
-0.0640205
0.335105
0.241481
-0.505649
-0.178542
0.38623
-0.207688
-0.0401378
-0.0145879
0.0547258
0.838442
-0.626737
-0.211705
-0.0433119
-0.129896
0.173207
-0.280469
0.312081
-0.0316121
0.0352234
-0.353056
0.317832
0.298389
-0.0532454
0.331628
0.0879002
-0.419528
1.49406
-1.02644
-0.958061
0.0486895
-0.240008
0.191318
0.0770639
-0.076613
-0.26765
-0.223343
1.12515
-0.29052
-0.0515857
-1.24536
1.29695
-0.353537
-0.0292035
-0.00733109
-0.591658
0.0583234
-0.123917
0.164505
-0.162998
-1.36236
-0.0339694
-0.0769674
0.110937
1.29741
-0.997404
1.14553
1.09391
0.363526
0.0146282
-0.135386
-1.64113
1.77652
0.737038
0.461785
-1.19882
0.0473531
-1.05045
0.699774
0.350674
0.639914
0.0499145
0.0344684
0.0420296
-0.076498
2.15422
-1.15786
-0.996362
0.12981
-0.293004
0.163195
0.71232
0.402917
-1.11524
0.0687676
0.0974467
-0.166214
1.70948
0.0181121
-1.72759
-0.309532
0.0862929
-0.247433
0.290139
0.046263
0.0198208
-0.0660838
-0.222043
-0.201879
0.0371913
0.0104367
-0.047628
-0.456488
-0.672147
1.12864
1.12585
0.478721
1.00692
-1.05851
0.783053
-1.25393
-1.88318
1.77498
0.0408388
-0.101261
0.252901
-0.613986
0.361085
0.729648
0.992469
1.12486
-1.3437
0.218833
1.22576
-0.561083
-0.125272
0.0811994
0.036096
-0.303626
0.26753
-1.62187
-0.430678
2.05255
-0.40909
0.440334
-0.0312434
0.0040253
0.146567
0.218222
1.41906
-0.1366
-0.039062
0.667105
-1.66364
0.99653
-0.745457
-0.353238
1.0987
1.5684
-0.513605
0.480609
0.567424
-0.866891
-0.254895
0.00482935
0.250066
0.0188614
-0.182169
-0.479803
1.18173
0.00757769
0.0294312
-0.338131
-0.07752
0.415651
0.0201136
1.00568
0.633781
-1.17468
-0.473966
-0.413031
0.513893
0.737408
-0.928981
0.0619606
-0.0367858
-0.149764
-0.0383539
-1.94698
0.920537
-0.0513766
0.0778657
-0.0264892
-0.145455
0.125349
0.0201064
0.2123
0.845962
0.164369
-0.021888
0.0193681
-1.68718
1.66782
0.545321
-0.93157
0.386249
-0.0120662
0.0551297
-0.0430635
-0.717617
1.20792
-0.122779
-0.367037
0.489816
-0.271821
0.483748
-0.992149
1.36061
-0.368463
-0.543676
0.5181
0.0255763
2.11745
-0.0776671
0.256585
-0.318171
0.0615859
-0.460727
0.159305
-0.171024
0.0896988
1.26011
1.00361
0.196416
-1.50043
1.30401
-0.811013
-0.177166
0.988179
-0.245381
0.216977
0.0284039
0.13311
0.0179612
-0.151071
-0.00795697
-0.198076
0.206033
-0.0896547
0.0423587
-1.10916
-0.298529
-0.00128088
-0.124673
0.108163
-0.12192
0.383172
-0.261252
-0.224249
0.258142
-0.0338938
0.000155449
0.170115
-0.170271
0.795753
-0.377084
-0.0668644
0.0195825
0.0982831
-0.703873
0.60559
1.16508
-0.952778
0.0177619
-0.347068
0.329306
-0.918272
-0.611358
-1.38903
1.52907
1.00305
-0.172647
-1.3087
0.826768
0.48193
0.213542
-0.090915
-0.122627
1.75464
-1.75464
-1.58847
0.103469
-0.879593
-0.229108
-0.620121
0.849229
0.588253
-0.540747
-0.0475058
-0.109359
0.0325359
0.0130135
-0.0455494
-0.0030296
0.203007
-0.199977
-0.452712
1.25092
-0.798209
0.392046
-0.0300938
-0.361953
0.797719
-0.699302
-1.07156
0.260546
-0.0386017
-0.208968
0.24757
-0.011658
-1.30875
-0.508236
-1.23605
0.727811
0.500477
0.0162439
0.228053
-0.244297
-0.266365
0.323299
-0.0569339
-0.221992
0.164638
-0.081463
-0.00906243
-0.050385
0.0353798
0.0745503
0.256813
-0.331363
-0.218754
-0.0848719
-0.0314812
0.363109
-0.07704
0.0399594
0.0370806
0.00222407
-0.0247508
0.0225267
0.0800885
-0.0893557
0.00926715
-0.0629557
0.164402
-0.101446
-0.597499
1.35247
0.545262
-1.13415
0.588883
-0.145909
-0.0789307
0.224839
-0.0377201
-2.41023
2.44795
0.887121
-0.553258
-0.333862
0.480595
-0.0463857
-0.19597
0.00601999
-0.0528964
-0.053382
0.183192
0.28513
-0.940702
0.655573
-0.431267
-1.30758
-0.191702
0.820442
-0.628741
-0.0740955
0.0406781
0.396531
-0.2674
-0.129131
0.468262
-0.369979
-0.75633
0.367699
-0.43876
0.0710611
-0.516719
0.320231
-0.162953
0.584036
-0.299921
0.306926
-1.98436
0.368945
-0.282906
0.524387
0.0261099
-0.233602
0.279692
-0.0121614
0.317605
-0.301361
-0.0789306
-1.31652
0.719023
1.98546
-0.199303
-1.75188
2.23877
-1.09089
-1.14787
-0.0747147
0.461069
-0.0803807
-0.75649
0.482742
-0.407894
-0.236672
-0.0182232
-0.590762
-0.397925
0.988688
0.0624032
0.238628
-0.301031
0.0387988
-0.877634
-2.01387
-0.296717
-0.322535
0.619252
0.721586
-0.176265
-0.235237
-0.0372332
0.272471
0.459403
-0.0788612
0.158114
0.0554283
2.01238
-1.30552
-0.901233
0.31047
-0.242314
-0.0495896
0.291904
-0.0437247
-0.108205
-1.08712
0.400585
-0.297856
-0.102729
-0.0816102
-0.0337087
0.917841
-1.18671
0.26887
-0.648755
-0.0547149
1.80936
-0.163726
-0.540148
1.4523
-2.06078
0.608479
-2.06651
1.59416
0.472347
0.144246
0.102971
-0.247216
0.149622
1.17411
0.0027118
0.832548
-0.83526
-0.00246518
0.294236
0.00603498
-0.0194361
-0.0245279
-0.264744
0.289272
1.2636
-1.39899
0.112287
0.309417
-0.297104
-0.0123124
-1.46039
-0.12808
-0.58117
-0.394448
0.443137
0.104895
0.0031837
-0.108079
-0.606865
0.301342
0.305523
-0.376789
0.326214
-1.0998
-0.501391
1.60119
-0.141729
0.0454057
-0.123685
-0.106694
-0.405032
0.511726
-0.308748
1.31592
-0.150472
-0.847326
-0.0532776
0.984035
-0.237607
0.967761
-1.42047
-0.03322
0.0101485
0.0230716
1.06977
-0.556224
-1.26782
-0.337483
-0.0728359
0.410319
-0.0531033
0.197812
-0.0165874
-0.330336
0.346924
0.375137
-0.106515
0.00218624
1.62149
-0.157329
0.295789
-0.0644598
-0.422925
0.40694
-0.174706
0.0693236
0.105383
0.242006
-0.108714
-0.133292
-0.139336
-0.0400193
0.179355
0.337371
0.0267245
-0.364096
0.0624477
0.0422902
-0.198559
-0.0709357
-0.0567922
1.1892
-0.0273228
0.061086
-0.0337632
0.0310135
-0.0656172
0.0346036
0.0117522
-0.443434
0.431682
0.478463
0.247542
-0.656444
-0.0574856
0.350399
-0.0717952
-0.411423
0.115277
-0.127155
-0.0354705
1.78376
-0.980847
0.0769454
-0.202753
0.125807
-1.6123
0.223269
-0.109599
0.0582357
0.0513634
-0.0374371
-0.028759
-0.380217
-1.68629
0.350721
-0.0588499
-0.816468
-1.35986
-0.345043
0.0069123
-0.800857
0.694163
0.970341
-0.729135
-1.27228
1.46869
-1.99731
0.375431
-0.233303
0.117875
0.115428
0.025519
-0.177564
-0.386595
0.564159
-0.19995
-0.0314184
-0.376324
-0.972529
1.34885
-0.6877
-1.12889
1.81659
0.608804
0.335518
-0.944322
0.00331878
0.333372
0.0343273
-0.255336
-0.250313
-0.165926
-0.100952
0.266878
0.196718
0.355411
0.269116
0.127415
0.411922
-0.579623
-0.0199924
0.0380372
-0.595752
0.812496
-0.216743
-0.142085
0.37182
-1.3009
0.0493322
-0.003532
-1.01105
0.286422
0.247107
-0.842984
-0.362393
-0.153718
-0.900935
-0.324336
1.22527
-0.135547
0.618289
0.0351328
0.753876
-0.286035
-1.01415
-0.932826
-1.27138
1.44091
0.0741404
-0.127356
0.00920236
-0.0569434
0.047741
-0.62296
0.565419
0.0575412
0.672394
-0.79194
0.0565971
-0.107974
-1.1552
-0.153502
-0.272735
0.206455
0.0662801
0.658599
0.179843
-1.44801
-0.144486
1.5925
0.0227671
-0.241521
0.313654
-0.120017
-0.193637
-0.227372
0.37069
0.151043
-0.155869
-0.0220738
0.177942
-1.30604
0.817227
-0.237304
0.0373537
-0.168487
-0.124518
-0.31961
0.0369363
0.0250243
0.0748186
0.318776
0.00769051
-0.0737743
0.325048
1.3534
-0.651895
1.95548
1.00908
0.620727
-0.824514
0.0422489
-1.49026
-0.253338
-0.317165
0.374371
-0.0572056
0.143545
-0.0101973
0.0733747
0.0137666
-0.053902
0.12187
-0.167795
1.75129
-1.5835
0.20471
-0.850846
-0.118747
-0.252064
-0.0671094
0.443887
-0.274415
0.347182
-0.0727669
-0.0201415
-1.4625
1.48264
0.633852
0.282189
0.306064
-0.579463
-0.572409
0.946342
-0.373933
-0.0211727
-0.00695622
0.132305
-0.336856
1.05494
-0.718087
-0.0519224
0.0869033
-0.0349809
-0.119423
-0.645328
0.764751
-0.268793
-0.0592349
-2.02929
-0.0116478
0.177847
-0.172773
0.0204875
-0.190422
-0.0468812
0.320041
-0.642576
2.21468
-0.936158
-1.27852
-0.0894992
0.42142
0.162892
0.150761
-0.30671
-0.13205
-0.167956
-0.0158017
-0.270785
-0.0341395
-0.225844
0.837301
-0.956724
0.132442
-0.0912596
-0.0411825
-0.374618
-1.94798
1.06558
0.882399
-1.89558
1.85786
-1.15638
0.353504
0.802877
0.015793
0.20343
-0.219223
0.653561
0.471593
-0.0143093
0.191624
-0.12113
-0.193853
0.0223483
-0.25428
-0.0131205
1.06616
1.14852
0.0497004
0.00900715
1.59917
-1.36538
-0.0249956
-1.39824
1.42324
1.22527
-0.036069
-0.283461
-0.075725
0.548332
0.0454419
-0.244857
-0.0338219
0.45664
0.730368
-1.63881
0.90844
0.0467067
2.37811
-1.45569
-0.922415
0.0125463
-0.246359
0.0889155
1.18233
0.45632
1.19883
-1.09536
1.10275
-1.79045
-1.23139
0.0162222
1.21517
-1.55005
0.0433145
1.50674
0.0299314
0.0782319
2.42467
0.000847014
-2.42552
-0.715024
1.62217
-0.907143
0.0441447
0.213998
-0.975324
0.28176
-0.00303631
0.041278
-1.34451
0.201611
-0.00422003
-0.0107985
0.0150185
-0.0924136
0.218958
-0.126544
0.14799
-0.496676
0.348686
0.519058
0.450357
-0.501727
-0.105138
0.0807788
0.844703
-0.934805
-0.0642928
-0.0482969
-0.244998
0.0509518
0.373792
0.955686
-1.32948
-0.703621
0.909262
-0.205641
0.0543241
-0.404711
0.350387
-1.04048
-1.5935
0.788779
0.804725
0.0856898
0.862039
0.216894
-1.07893
-0.348791
0.213959
-0.236236
0.022277
0.163862
-0.0340358
-0.239438
0.00420018
-0.279547
-1.55613
0.237576
-0.390424
0.787088
-0.396664
-0.673168
-0.661108
1.70023
-0.727159
-0.100611
0.178169
-1.39475
0.0691836
-1.40298
1.3338
-0.0239198
0.0440027
-0.0200829
1.14287
-1.24572
0.102857
0.134254
-0.0193092
-0.0796677
-1.45463
0.781457
-0.591038
1.29081
-0.394458
0.386762
0.289405
0.210344
0.0316626
0.795375
-0.380949
-0.00340852
0.675803
-0.957878
0.433916
-1.80467
0.675781
1.12922
-1.14936
-1.48196
1.31416
-0.186596
-1.44329
0.177939
1.26535
0.597228
0.223214
0.0335562
-0.939376
0.710268
-0.107934
-0.129714
0.237649
-1.93558
0.418447
1.51713
0.368165
0.800377
-1.16854
0.0625033
-1.33388
0.753169
0.11696
-0.870128
-0.175706
0.113466
-0.914873
-0.0721892
-0.0103296
0.0473712
1.48679
-1.46868
-0.0362822
-0.985205
-0.6083
0.73825
-0.0109952
-1.2204
1.10283
-0.240794
-1.62058
-0.00294046
-0.303597
-0.899567
0.326239
-0.131116
1.88318
0.240351
0.158896
-1.24601
0.132777
-0.101317
0.209506
-0.460737
0.317142
-0.531897
0.214755
0.230691
0.0653573
-0.296048
-0.211775
-0.106396
0.203524
0.29395
-1.12149
1.1282
-0.00670337
-0.732544
1.15813
-1.99388
0.835744
-0.541241
-0.0547511
0.0839055
-1.49413
0.153205
1.34093
-0.368768
0.883951
-0.656049
0.694847
0.156621
0.969569
0.5436
-1.01757
-0.815081
-0.188604
1.00369
-0.466617
-1.29769
0.92137
-0.118765
0.122132
-0.00336722
0.0430616
-0.086125
0.966152
-1.44596
-0.757155
-0.108405
0.86556
-0.0899291
0.0599063
0.0300228
-1.08068
0.435349
0.0357985
0.0239258
-0.220826
0.388499
2.18474
0.239932
-0.799602
0.802314
-0.254361
0.0858738
-1.20529
2.00073
-0.79544
-0.073981
0.0610143
0.0730812
0.360506
-0.0207321
0.968299
1.19199
0.644791
-0.919787
0.296492
-2.00192
-0.15957
0.1256
0.159789
-1.15719
-0.239366
-0.947346
-0.200582
0.0504749
0.77229
-0.383791
-1.54787
0.37427
1.24722
0.176656
-1.67939
0.313182
1.36621
-0.0916207
0.462311
0.717185
-1.14733
-0.29455
0.731554
-0.315729
-0.415825
0.846878
-0.286691
-0.560187
-0.170144
0.0364472
0.634674
-0.651604
0.0169303
-1.16155
0.913929
0.24762
0.202491
1.15812
0.000642352
0.104253
0.746109
-0.498567
-1.99274
0.74671
1.24603
-1.91263
1.48196
0.940768
0.754649
-1.69542
0.796957
-0.744236
1.78931
-0.597284
-1.19203
-1.05445
0.16209
-0.0808903
-0.15461
-0.104356
0.183703
-0.0295389
0.106212
-0.0766728
-0.293919
-0.0741261
-1.68674
-0.201747
0.065744
-0.0902719
-0.0289452
-0.0117953
0.992436
-0.501065
-0.49137
0.766365
-0.465023
-0.114509
0.123274
-0.141751
1.26662
-0.00885707
-0.0150627
-0.329398
-0.751279
-1.4596
0.558666
-0.0662543
-0.0727567
0.120091
0.0918544
0.090114
-0.0809116
-0.483805
-0.471771
0.08429
-0.0739293
-0.0103606
0.171736
-0.837602
-0.48483
1.32243
-0.233193
0.042771
-0.105337
1.10435
0.995917
-2.10027
-0.375501
0.984305
0.20415
-0.0812736
0.643644
-0.809678
-0.729705
1.53938
-0.949519
-0.970518
0.572593
0.297514
-0.196229
-0.101285
0.949842
-1.2548
-0.148596
1.79625
-0.638121
-0.172027
0.0993385
-0.410398
-0.723748
0.0875126
2.03321
-1.77498
-0.258223
-0.879756
-0.579844
-0.299569
0.157793
0.063721
-1.02149
-0.213323
1.23481
0.217732
0.0315983
-0.0835207
-1.64494
-1.5504
0.674123
0.876277
-0.154079
-0.00471531
0.158794
0.937888
-0.553281
-0.384608
0.100981
-0.154883
0.0736147
0.0788055
0.817245
-1.91704
0.749935
0.0969431
-0.31348
-0.587752
0.300208
-0.0615795
0.143885
0.274024
-1.11163
0.0262813
0.350373
-0.515614
0.35217
-0.0817291
-0.00437163
0.0861008
0.976056
0.813257
0.560751
0.0605953
0.645732
-0.395633
-0.250099
1.72129
-1.40811
-0.342649
-0.297788
0.139599
0.0242626
0.2051
-0.0468011
-0.284562
0.00413617
-0.122901
0.533704
-0.0307064
-1.79915
-0.0190737
-0.135005
-0.0654011
0.00845773
1.03598
-1.00084
0.869644
-0.431337
-0.438307
0.00369331
0.103703
-0.00860856
0.00438853
0.400891
0.0461057
0.00862006
-0.13533
-0.491406
-2.52296
0.967989
1.55497
-0.0531975
0.00443484
-0.039904
0.0986327
0.1119
-0.268972
-0.283124
0.590992
-1.40067
0.134529
-0.976388
2.08074
0.61561
-0.0637568
-0.551853
-0.647163
-0.499642
-0.0411052
0.0861308
-1.10527
0.493499
-0.734253
0.240755
-0.0366409
-0.107148
0.143789
-0.212347
1.1793
1.33043
-1.3861
1.40811
-1.87913
1.4022
0.476931
1.09561
-2.07199
2.23262
-1.1155
-1.03857
-1.02019
-0.0392388
0.195145
-0.0485278
-0.426863
-1.56271
0.119421
-0.0142626
-1.32944
1.22557
-1.97448
0.748908
-0.050488
0.228042
-0.418973
0.165782
-0.140206
1.02611
1.352
-2.00796
0.80267
-0.171537
-0.777982
-1.34388
0.0995719
-0.20672
1.89558
-1.97325
-0.134118
-1.08569
0.0766971
1.30725
-0.608822
-1.66646
1.73322
-0.066763
0.426631
2.02132
0.429451
-0.0681626
-0.361289
1.79228
-0.68953
0.223194
-0.094625
0.733638
-0.740969
0.0826218
0.127722
0.640917
0.855755
-1.49667
-0.588712
-0.45146
1.03227
-1.07688
0.044608
0.0506389
-0.348495
-1.73206
0.731448
1.00061
1.44492
-0.302057
-0.959059
-0.0921411
0.873644
-1.11125
0.269153
-0.524489
-0.297507
0.412784
-0.621647
0.444083
-1.31001
-0.721501
2.03151
-0.400942
0.427667
-0.357655
0.155776
1.06241
-1.11569
0.0639728
1.36442
-2.01632
-0.223843
-0.477256
0.203852
-1.15663
0.111214
0.690773
0.462466
0.0172505
-0.603385
-1.62042
0.348143
0.0810094
0.350982
-0.431991
0.0666769
-0.302828
1.13405
1.10472
1.24467
-0.975805
0.0609571
-0.115387
-0.322442
0.420996
-0.354917
0.248402
-0.661392
-0.945735
2.04134
-0.27257
0.358259
-0.519978
-1.11311
1.63309
-1.43015
0.715124
-0.0644451
0.352175
0.0795067
-1.44646
-0.0688418
-0.150375
0.643873
-1.202
-1.32096
2.03321
0.553484
-1.38281
1.00766
-0.557307
-0.21042
0.382369
-0.348042
-0.228328
0.24609
-1.57156
0.206843
-0.779252
1.09701
-2.04275
-0.807434
-0.268924
0.428229
-0.110267
-1.55619
0.92256
-1.28495
1.34012
0.686533
-1.49789
0.811356
1.10183
-0.187905
1.87851
-0.91245
-1.06353
1.97598
0.584874
1.24182
-1.02409
-0.649231
-0.901169
-0.927879
-0.95125
0.435443
-0.740368
1.38861
-0.648246
-0.120568
1.3601
-1.23953
-1.01213
-0.963002
1.97513
0.919102
0.11317
0.244382
0.356936
-0.388856
0.271751
0.117106
0.00307429
-0.244497
0.494243
-1.374
-0.735602
-0.378012
-0.244948
-0.208258
0.49468
-0.282233
0.902749
-1.98441
0.805552
1.17886
-0.0349192
-1.63657
1.67149
0.0239524
-0.244831
0.0448538
0.613187
-1.86166
1.86166
-0.0433386
-0.0142235
0.0575621
-0.64339
1.06212
-0.0198409
0.119413
-0.764941
-0.298194
0.653605
-1.3861
-0.0861024
-1.28681
0.289206
1.25962
-1.27128
-1.20726
0.185774
-0.214269
0.496778
-0.282509
0.127445
0.507229
0.290523
-0.0598323
-0.968059
-1.19089
0.181442
1.00944
-1.37471
-0.390802
-0.739891
-1.25399
-0.00920545
-0.146663
0.153418
0.0530043
-0.359714
-0.0355959
0.0432864
0.359483
-0.274384
-0.347263
-0.88107
1.33684
-0.45577
0.321678
0.198439
-0.223796
0.388979
-0.165184
-0.427011
0.163915
0.413142
-0.523443
0.110301
-1.15699
1.91229
-0.971526
-1.33577
-1.78776
0.325264
-1.4841
0.048865
0.988739
1.16548
0.183711
-1.08328
1.16518
0.0355719
-0.0814464
-0.313011
0.653731
0.620303
0.176654
2.02022
-0.923207
-1.06645
-0.758437
1.82489
1.147
-0.0103105
-1.13669
0.0363046
-0.101922
-0.184934
0.168374
0.128691
1.33538
-1.46407
-1.20389
1.14936
0.0545341
1.20389
-1.31416
0.20597
-0.256458
-0.89915
1.01262
0.0708301
-0.0268756
0.0691658
-1.66944
0.166151
1.50562
-0.819083
-0.308253
-0.0632157
0.132539
-0.419431
0.932746
0.244492
-0.0812973
0.626349
-1.34444
0.169875
-0.228267
-0.546862
-0.0546991
0.620722
-2.04955
0.508197
-0.0713674
0.418817
-0.34745
-1.04419
-0.930292
0.0701237
0.670687
0.520843
-0.862104
0.0625021
-0.0935326
-0.311178
0.0992531
-2.09096
1.05239
0.0642557
-0.0168196
-0.284542
0.0779031
-0.00308446
-0.0741136
-1.42107
0.651639
-1.52988
0.878236
0.0568398
0.237372
-0.294211
0.0499086
-0.182392
-1.03332
1.32253
0.627217
0.357088
1.32877
-1.14733
0.177851
0.0393398
1.71429
-2.02834
0.314046
0.11073
-0.515762
-0.807822
-0.0623062
0.363626
-0.436462
0.362865
-0.375026
-1.26125
0.0899512
-0.100964
0.0110128
-1.48218
0.191103
1.29107
0.408297
-0.38553
0.0115885
0.343353
-0.354942
1.17021
-1.1812
-0.335791
0.401148
0.606878
0.242351
-0.295432
0.361712
-0.00935183
0.0500299
0.208486
0.629765
-0.838251
-0.429566
-0.06711
-0.927289
-1.01162
1.93891
0.040817
-0.239288
0.365095
-1.00241
1.85786
0.0234917
0.00202728
0.0419189
0.0461454
0.10829
2.089
-1.02284
-1.22387
0.754194
-0.547351
-0.726865
1.97289
0.0912639
-0.0451582
-0.249072
0.253098
0.0877373
-0.121501
-0.279307
0.178354
-0.280165
0.355587
-0.302582
1.10532
-0.131865
0.209768
0.299531
-0.0714777
0.0356086
0.383196
0.073444
0.47961
-0.753995
0.199013
-0.228039
0.029026
-0.103283
0.147286
0.175673
0.892471
-1.06814
-0.237492
0.107778
0.474514
-0.610061
1.89584
-1.17745
1.01716
0.900255
0.105988
0.555918
-1.09504
0.340912
-0.419773
-0.370243
1.24678
0.765606
-1.49115
1.49115
1.7075
-0.831848
1.08903
-0.0106786
1.52719
-1.51651
0.921914
1.02253
0.791406
-2.10142
0.197588
-1.15431
-1.35349
-0.211014
-1.4297
1.64071
-0.391975
-0.124744
0.0692861
1.09583
0.151778
-0.260492
-0.774184
1.48374
-0.709558
-0.174264
0.256885
-0.0223395
-0.180307
0.820221
2.63078
-1.06978
-1.561
1.62545
-1.47225
1.1267
0.199865
0.0298913
0.000145443
0.036801
1.56235
0.563955
1.14447
0.5891
0.0202285
0.186789
-0.207017
-0.330705
0.206187
0.171925
-0.183652
0.0117267
0.153124
-0.205974
0.0528501
0.518256
-0.437478
0.3243
-0.466384
0.310434
-0.151409
0.0161846
-0.11433
0.00497114
-0.440412
0.479937
-0.0395245
-0.285227
0.255867
0.0293599
1.97325
-1.60509
0.489977
-0.445484
-0.0444929
-1.48679
-0.326556
0.254761
-0.981442
1.90336
0.247434
-0.314543
2.11281
-1.32141
0.235388
-0.299848
-0.149135
-0.160997
-1.34048
-0.0120634
1.5997
1.27544
-1.07159
-0.104141
0.136753
-0.0761
-1.4919
-0.279511
0.273345
0.232382
-0.351129
-0.349642
0.276875
-0.0760048
-1.3357
1.3107
-1.4545
1.47445
-1.17499
-0.462914
0.417509
0.654839
0.371432
-0.384553
-0.0477978
0.0573846
0.340181
-0.397566
-0.357655
1.41784
-0.957214
-1.02998
-2.02702
-0.0736959
0.0697588
0.00393711
-0.000505967