/*--------------------------------*- C++ -*----------------------------------*\
| =========                 |                                                 |
| \\      /  F ield         | OpenFOAM: The Open Source CFD Toolbox           |
|  \\    /   O peration     | Version:  2306                                  |
|   \\  /    A nd           | Website:  www.openfoam.com                      |
|    \\/     M anipulation  |                                                 |
\*---------------------------------------------------------------------------*/
FoamFile
{
    version     2.0;
    format      ascii;
    arch        "LSB;label=32;scalar=64";
    class       volVectorField;
    location    "6.3";
    object      U;
}
// * * * * * * * * * * * * * * * * * * * * * * * * * * * * * * * * * * * * * //

dimensions      [0 1 -1 0 0 0 0];

internalField   nonuniform List<vector> 
5098
(
(2.54302 1.07634 0)
(2.09935 0.105373 -4.04793e-20)
(2.57343 -0.0378987 -2.34415e-21)
(1.48679 -0.668417 8.28366e-19)
(2.35837 -0.889803 0)
(0.861313 -0.416568 0)
(2.47222 0.0174077 6.67968e-21)
(2.62508 -0.251115 1.91681e-21)
(2.74444 -0.029646 -4.75048e-20)
(1.95826 -0.287417 1.22193e-19)
(-1.2156 -0.770293 0)
(2.1527 -0.00443774 1.93343e-19)
(2.47 -0.441614 -1.29606e-20)
(0.919138 -0.449776 0)
(2.16696 -0.32134 1.22652e-19)
(1.96551 0.0303717 3.26116e-22)
(-1.07292 -0.0780151 -2.18401e-19)
(-1.98632 0.246087 0)
(-0.31613 0.166355 4.12604e-19)
(-1.16078 0.0329296 2.48688e-19)
(1.83472 0.565295 -8.39858e-20)
(1.89657 0.0378455 1.46446e-21)
(2.06321 -0.795244 0)
(0.726775 0.0603163 3.08994e-20)
(-2.47581 1.37951 0)
(1.4302 -0.578157 0)
(1.98181 0.0327183 1.38733e-19)
(1.80499 -0.756736 2.25815e-19)
(-0.315358 0.338041 -1.25871e-18)
(1.65281 -0.726332 0)
(2.41182 -0.196899 -1.25495e-19)
(0.70747 -0.342853 0)
(2.03041 0.0654673 -1.51155e-19)
(-0.0990527 -0.875283 0)
(2.51487 0.336326 -4.45323e-20)
(3.52661 0.349205 1.39133e-18)
(1.84455 -0.422136 1.62728e-19)
(2.05187 0.00497921 -2.98857e-21)
(1.2994 -0.428025 5.98554e-19)
(1.35409 -0.629141 0)
(1.49128 -0.679841 -3.91214e-19)
(1.05819 0.314679 -2.33579e-18)
(1.44579 -0.583405 0)
(2.53993 -0.181408 7.44344e-20)
(2.44987 0.721577 2.59384e-20)
(2.08842 0.040896 7.68562e-21)
(-1.34733 -0.0441158 1.21158e-19)
(1.04981 -0.330341 0)
(2.38703 -0.230353 0)
(1.49171 -0.636728 8.82434e-20)
(2.2708 0.160005 6.22243e-20)
(1.62041 0.495405 -5.05506e-19)
(-0.132265 0.194666 3.54802e-21)
(2.07217 -0.0514957 1.93101e-19)
(0.925766 -0.4646 -3.65818e-19)
(1.61421 0.147489 0)
(1.83491 0.325521 -2.73763e-19)
(1.59122 -0.652264 0)
(0.835974 -0.410035 0)
(1.93274 -0.00606772 -3.57696e-20)
(1.61246 -0.353423 2.98683e-20)
(-1.73667 0.723828 -5.22424e-19)
(2.53017 0.381539 0)
(2.42021 -0.424242 0)
(-0.144166 0.278748 2.04377e-18)
(0.796164 -0.400705 4.5545e-19)
(2.23244 0.0296229 6.69104e-21)
(2.28664 0.145146 1.08516e-20)
(2.11689 -0.241467 1.981e-19)
(1.63255 -0.684606 2.61104e-19)
(1.87523 0.251929 1.54056e-20)
(1.19684 -0.48659 -3.87948e-21)
(1.87932 -0.774643 0)
(0.706303 -0.720571 0)
(1.70439 -0.170974 3.91072e-20)
(1.08463 -0.531016 -4.22385e-19)
(1.45962 -0.0267438 0)
(1.46669 0.246187 4.65752e-19)
(2.53544 -0.217908 7.1921e-20)
(1.63412 0.195165 0)
(1.6834 -0.0363844 0)
(3.05443 0.32092 9.20979e-19)
(1.63631 -0.279452 5.66106e-19)
(-0.127482 -0.990694 -2.46446e-20)
(-1.88075 -0.154831 5.92966e-19)
(1.49511 -0.659676 2.76176e-19)
(0.00799466 0.322933 -2.76366e-19)
(1.45109 -0.0108947 -4.56036e-21)
(2.81992 -0.210305 7.42177e-20)
(1.59366 -0.338658 3.02638e-20)
(2.26562 -0.258367 -8.94232e-21)
(0.559659 -0.210313 8.22083e-19)
(2.47492 -0.0621387 -2.38864e-19)
(1.50714 -0.65499 -4.4179e-19)
(1.27815 -0.452493 1.05531e-19)
(1.29968 -0.409534 -9.21457e-21)
(1.01411 -0.508615 -3.59726e-19)
(1.40772 0.323392 3.43875e-19)
(1.65406 -0.159722 2.12903e-20)
(2.01842 -0.45742 -1.37336e-19)
(2.35038 -2.13847 -2.75209e-19)
(0.975247 -0.4825 -4.35058e-19)
(-0.0871242 -0.0416531 2.95148e-20)
(2.69149 0.396926 1.0699e-20)
(1.50683 0.23021 -5.29443e-19)
(2.38202 1.18943 0)
(1.89054 0.282571 2.91454e-19)
(2.3274 0.104437 8.8759e-21)
(0.984323 -0.378342 8.12876e-20)
(-1.3367 -0.930643 0)
(1.01504 -0.488015 -9.57227e-19)
(1.21444 0.523715 6.06002e-19)
(1.85635 -0.0009669 -2.82989e-19)
(0.566578 -0.25 1.76719e-19)
(1.77513 0.642628 1.20112e-19)
(-0.0372526 -0.268627 0)
(3.18212 0.105317 2.22259e-18)
(2.65019 1.50616 0)
(1.6851 0.487784 -1.67388e-20)
(0.753552 0.0135358 -4.75556e-19)
(1.68328 0.475465 4.15059e-19)
(1.60573 2.09129 -8.98136e-20)
(2.03777 -0.290606 -7.635e-20)
(-0.454175 1.63597 -1.3063e-18)
(0.735006 -0.138722 -1.08602e-18)
(-1.19339 0.379597 9.13309e-21)
(2.14977 -0.0463536 1.58928e-19)
(2.05316 -0.760838 -2.84405e-19)
(1.32156 -0.124527 -1.25498e-19)
(0.553148 -0.22899 -3.4418e-19)
(-1.92797 1.41641 -1.44028e-18)
(1.08408 -0.475305 -6.00105e-19)
(1.11263 -0.474879 5.02302e-19)
(2.54208 1.5359 -1.14443e-19)
(1.19061 -1.94423 -5.2653e-19)
(3.106 -0.694996 5.05646e-19)
(2.01583 2.59186 6.18563e-19)
(1.8891 0.28253 1.97776e-19)
(0.848897 -0.418162 0)
(2.0326 -0.0622009 -6.19257e-19)
(1.60117 0.603097 -3.34081e-19)
(1.24763 -0.290497 -4.90581e-21)
(1.70575 -0.772424 4.38089e-19)
(2.5414 -0.0116754 -1.22523e-20)
(2.06012 0.0640453 -5.34064e-20)
(2.44992 0.505781 0)
(2.0849 -0.24357 2.03557e-19)
(2.06735 -1.01399 0)
(2.73657 -0.0750899 4.4191e-19)
(1.59835 -0.732858 1.69782e-19)
(2.91829 -1.02731 -1.20173e-18)
(2.25083 0.528982 0)
(2.13904 -1.04718 1.38394e-19)
(2.09634 0.05707 0)
(-0.0146796 0.213843 -3.50904e-19)
(0.75548 -0.266258 -1.98223e-19)
(1.59433 -0.643605 -4.66859e-19)
(1.95518 -2.13294 -1.4048e-19)
(1.43547 -0.670734 -3.1974e-19)
(-0.260906 0.173654 1.32728e-18)
(1.92658 -0.395879 -4.45483e-19)
(2.19605 -0.327631 -1.67491e-19)
(0.608571 0.400323 -5.2653e-19)
(1.79171 -0.172679 -3.52131e-19)
(-2.43375 0.909534 -5.93816e-19)
(2.47423 -0.190814 -1.23156e-19)
(2.31888 -1.05062 -5.01908e-19)
(2.31438 -0.576608 0)
(-2.56026 1.38572 7.86965e-19)
(1.6525 -0.534717 -5.09526e-19)
(1.32875 -0.389047 6.59363e-21)
(1.49902 -0.611704 -3.00539e-19)
(2.21105 0.563371 1.29088e-19)
(1.80708 -0.730298 4.04513e-19)
(2.64093 -0.0347214 0)
(1.91938 0.0114894 0)
(1.68589 -0.284143 -2.19973e-19)
(3.40886 0.41977 -1.94309e-20)
(1.72716 -0.150397 4.85284e-19)
(0.184634 0.14742 0)
(1.73141 2.2335 0)
(3.86135 -0.411385 -1.44855e-18)
(1.723 -0.531895 6.29647e-19)
(-2.4395 0.963418 0)
(1.82388 -0.148144 0)
(2.74604 0.852063 4.66351e-19)
(1.45549 0.349152 0)
(1.86151 -0.392875 5.61433e-19)
(0.954341 -0.466359 8.21353e-19)
(-0.877922 1.98209 -3.82401e-19)
(1.20161 0.710839 0)
(1.44239 -0.242757 1.55434e-19)
(1.90355 -0.792242 0)
(1.71321 -0.200608 3.93984e-20)
(2.46804 -0.207734 1.36089e-20)
(0.483008 -0.227187 -8.53217e-19)
(4.13452 0.235358 6.33736e-19)
(3.31434 -0.709061 0)
(2.01129 0.0122469 -5.97379e-21)
(1.68144 -0.518482 -9.30205e-20)
(-2.17924 1.63857 -2.33138e-18)
(1.65615 0.410818 6.32766e-21)
(2.46402 0.70924 -5.36339e-21)
(2.30928 0.0253311 5.57052e-21)
(1.45673 -0.00171262 2.24288e-19)
(0.732518 -0.279715 -1.41934e-19)
(2.69423 0.0544061 -1.97386e-20)
(1.1503 -0.531883 0)
(2.32826 -0.123942 0)
(1.23502 -0.59986 -4.61954e-19)
(1.96549 -0.152846 -1.79284e-19)
(1.70748 0.360211 3.37448e-19)
(1.53694 -0.267519 -1.56768e-19)
(2.10206 0.0908796 -1.83802e-19)
(2.16407 -0.0665446 -2.79086e-19)
(0.098384 0.24686 -3.48456e-19)
(1.77202 -0.201895 0)
(-1.55543 -0.578952 -7.77044e-19)
(0.814614 -0.202525 1.56592e-19)
(2.00803 0.0592965 1.36725e-19)
(2.29885 -0.274316 -3.35955e-20)
(1.52138 -0.313187 0)
(2.30005 0.0459836 1.00124e-20)
(2.30091 -0.329292 1.73193e-19)
(0.403964 -0.186425 2.21742e-19)
(2.02872 -0.146448 0)
(0.311948 -0.0539589 0)
(1.98403 0.0286158 0)
(1.9839 -0.461659 0)
(1.67194 -0.66808 9.30562e-21)
(1.82478 0.463505 0)
(0.533386 -0.204219 -5.16598e-19)
(3.76192 0.0126872 -9.34223e-19)
(2.03206 0.0118955 -3.32568e-21)
(2.6538 -0.03664 -6.7578e-20)
(2.40922 -0.0465509 0)
(1.46682 1.57567 -1.77982e-19)
(-1.20463 2.10861 -2.25171e-18)
(3.22144 -0.0984172 0)
(1.81338 0.0222826 3.50385e-19)
(2.54129 0.529607 -3.12656e-18)
(2.23282 0.58725 0)
(2.6081 0.115426 0)
(1.00323 -0.194872 8.74941e-19)
(1.81341 0.52927 -4.35296e-19)
(2.28971 -0.14392 -2.14554e-19)
(1.03102 -0.493839 9.73628e-20)
(-1.65649 -0.486284 -4.68788e-19)
(-1.06857 -0.19087 0)
(2.37097 -0.128567 5.99331e-20)
(2.1631 0.856603 -8.97798e-20)
(1.81198 -0.754442 4.20534e-19)
(-0.0673363 -0.41715 6.00804e-19)
(-1.66559 1.8982 1.18527e-18)
(1.93683 0.0428004 -2.60101e-19)
(-1.2531 2.12051 2.06089e-18)
(1.59381 -1.6739 4.46703e-19)
(0.948497 -0.389908 -7.87987e-20)
(1.07919 -0.351959 -3.6811e-19)
(1.80316 0.0367076 7.41571e-21)
(2.73693 0.822458 7.17536e-20)
(0.0725802 0.127049 9.15653e-19)
(-2.35601 1.38387 1.18302e-18)
(1.82669 -0.785048 0)
(2.03662 0.0373197 -1.66367e-21)
(-2.11468 0.709628 2.43236e-19)
(-0.223612 0.136988 -1.55385e-18)
(-1.1645 -1.20447 0)
(1.26878 -0.347115 0)
(1.81326 0.0213959 -3.23059e-20)
(-0.773844 1.94513 4.66228e-19)
(1.86059 0.0778176 -6.47261e-21)
(-0.160238 0.186962 -6.97636e-19)
(1.30931 -0.293266 0)
(1.08667 -0.420331 2.66736e-21)
(0.0144946 -0.100013 5.39494e-20)
(1.10156 -0.39352 -2.53675e-18)
(3.73932 -1.58681 0)
(2.20934 -0.712217 0)
(1.97299 -0.127083 0)
(-2.16725 1.57218 -8.3775e-19)
(2.55729 -0.191875 2.00508e-19)
(0.364149 -0.162328 -9.28761e-19)
(2.58381 -0.182108 -2.22788e-19)
(1.92552 -0.511845 4.60041e-21)
(-0.112378 -0.275422 0)
(1.91844 0.0356349 0)
(2.63549 0.437407 3.08285e-20)
(2.48059 -0.184359 9.91618e-20)
(1.73638 -0.00012243 -2.95195e-19)
(-0.180741 1.67077 0)
(-0.712478 -0.412395 6.1925e-19)
(1.05476 -0.013628 -2.55721e-19)
(2.44867 0.527374 1.97256e-20)
(1.92488 -0.586026 4.36256e-19)
(0.896877 -0.195462 -5.68833e-20)
(2.55415 0.140645 0)
(2.42752 -0.205692 -1.10433e-19)
(2.01472 0.0421012 0)
(2.05295 0.0289211 -1.56929e-19)
(2.51011 0.497879 -2.50845e-20)
(2.68375 0.0205749 1.25902e-19)
(1.53444 -0.400407 5.84751e-19)
(1.88307 0.467571 2.41797e-19)
(-2.06701 0.817023 -3.96405e-19)
(1.73737 -0.699732 -2.52784e-19)
(2.55437 1.93581 -1.39282e-19)
(2.1276 0.00604154 0)
(1.77532 -0.396269 0)
(-1.35513 -0.0517292 0)
(2.24824 -0.264259 4.31837e-20)
(-0.287984 -0.414881 6.03642e-20)
(0.794202 -0.39647 4.81982e-19)
(1.87608 -0.0261682 -7.57472e-20)
(2.50745 -0.441206 -5.42392e-20)
(0.0786917 0.128715 6.87689e-19)
(1.961 2.39193 -5.57916e-20)
(2.27875 0.0118871 -1.04113e-20)
(2.21978 -0.141129 5.87824e-19)
(0.815459 -0.324585 0)
(2.70501 -0.21853 -8.75989e-20)
(-0.675529 -0.384815 -1.34196e-18)
(3.16215 -0.0198748 -6.2677e-19)
(0.849842 -0.310345 -8.29807e-21)
(1.62425 -0.143399 1.72909e-20)
(1.2856 -0.399599 4.02132e-19)
(2.16781 0.8993 0)
(1.97187 0.0941851 -9.98579e-20)
(0.998257 -0.388841 -8.59198e-19)
(1.72212 0.407982 1.40231e-20)
(1.22167 -0.592214 0)
(2.29271 -0.13464 -1.70234e-19)
(0.993888 -0.481562 2.70783e-19)
(2.2492 -0.708826 -1.44217e-19)
(1.65757 -0.690083 -3.543e-19)
(2.33101 0.0840135 -5.59505e-20)
(2.35935 -0.361007 1.0138e-20)
(0.912186 -0.451889 5.34687e-19)
(2.11627 -0.0598657 2.42383e-19)
(1.77695 -0.331207 0)
(1.72852 -0.784658 -4.14525e-19)
(1.61269 -0.686096 -1.06846e-18)
(2.60802 -0.229735 2.74431e-20)
(1.98915 0.0559037 4.18241e-20)
(1.70328 1.12406 0)
(1.53934 -0.116703 0)
(2.04532 -0.0824602 -1.92407e-19)
(0.42379 0.304548 3.07266e-19)
(2.67443 1.42163 0)
(2.29617 -0.055936 1.71286e-19)
(1.47654 -0.657083 -4.35707e-21)
(0.872069 0.377836 -6.26394e-19)
(0.813322 -0.334867 -4.58729e-19)
(-2.24947 1.56321 8.45005e-19)
(1.78913 -0.0294603 4.47627e-20)
(-2.33592 1.45617 3.05036e-18)
(3.14018 -0.614277 -5.02232e-19)
(2.20756 -0.0138443 0)
(1.34721 -0.0864431 -1.08298e-19)
(1.42308 -0.536689 0)
(1.95822 0.11767 -4.8435e-19)
(1.96443 -0.409899 0)
(2.10158 -0.0367898 -1.6917e-19)
(1.41855 0.12135 3.3425e-20)
(2.71923 -0.165434 -6.01098e-20)
(1.06345 -0.393938 4.8572e-19)
(1.96849 0.050558 -3.92085e-19)
(2.0452 0.266343 -4.31782e-19)
(1.92222 -0.828087 0)
(-0.910413 2.25353 0)
(1.13886 -0.44061 -4.79213e-19)
(2.69048 -0.194454 0)
(3.48663 0.645926 -8.46567e-19)
(1.60378 -0.323774 0)
(1.27273 -0.512163 5.1945e-21)
(-1.7744 0.622902 4.56774e-19)
(1.69734 -0.549359 7.47267e-19)
(0.54887 -0.268075 -3.72227e-20)
(2.29429 -0.545057 0)
(1.41505 0.126541 -2.47861e-20)
(1.79461 0.0234846 -2.50818e-19)
(-1.12836 0.308331 -3.23591e-20)
(1.92347 0.0583886 -2.21077e-19)
(2.67432 0.00267115 -8.27429e-20)
(2.6566 -0.0696477 -3.67119e-20)
(3.088 1.03818 3.22413e-19)
(2.5081 0.42505 -5.10465e-20)
(-1.43206 2.10805 -5.31432e-19)
(1.63334 -0.476956 0)
(-0.130431 -0.0324166 -4.2056e-20)
(1.97833 0.123152 -1.71789e-19)
(2.52744 -0.245203 0)
(1.96881 0.0105782 1.47004e-19)
(1.08561 -0.5232 -3.59773e-19)
(1.64325 1.36381 1.59261e-19)
(3.71553 0.457608 0)
(1.31826 -0.626713 1.29621e-19)
(0.103414 0.271313 0)
(2.2159 0.0688338 4.18676e-20)
(2.41786 -0.337161 -1.7785e-19)
(0.047962 0.204293 1.22361e-18)
(1.01427 -0.0353867 0)
(1.50155 0.308327 2.38228e-19)
(2.01979 0.0421136 1.55246e-19)
(0.0450995 -0.194611 0)
(1.67666 0.0206828 0)
(2.03549 -0.159187 0)
(-1.1197 0.545006 9.48772e-19)
(0.287045 -0.106819 -4.26876e-20)
(2.81536 -0.0614796 0)
(2.0011 0.038763 0)
(1.44264 -0.931706 8.77031e-20)
(-0.972058 1.29239 0)
(2.38625 0.438291 1.53505e-20)
(2.81373 1.30493 1.75674e-19)
(2.04677 0.355162 4.231e-21)
(1.83384 0.440953 -4.82207e-21)
(0.871146 0.46928 7.20446e-19)
(2.85637 1.49369 -1.85418e-19)
(2.3525 -0.252918 7.87536e-21)
(2.10301 -0.0514937 1.63597e-19)
(1.54405 -0.147741 -2.64281e-19)
(1.51105 -0.21923 3.55729e-21)
(2.02615 0.0388131 0)
(-2.29533 1.37973 -2.92477e-18)
(0.692641 -0.226807 0)
(0.870925 -0.688678 4.94006e-20)
(1.90605 -0.934999 0)
(2.17937 -0.204857 0)
(1.23123 -0.587458 -3.04822e-19)
(2.09466 0.0544451 -8.88664e-21)
(-0.275552 0.273907 -1.39352e-18)
(2.06042 0.0237511 7.65925e-21)
(1.74542 -0.674771 4.07587e-19)
(2.96698 1.2028 2.0483e-19)
(0.796675 -0.329182 1.30129e-18)
(2.52908 0.102203 1.34201e-20)
(2.0211 -0.804623 1.65911e-19)
(1.96121 0.0613365 -2.75059e-19)
(1.94002 0.677592 0)
(1.72617 -0.104607 -5.04622e-19)
(1.76072 -0.448357 4.16851e-19)
(2.01848 0.155141 -6.08462e-19)
(-0.885259 0.0901882 -1.1622e-19)
(1.56645 1.37094 -1.48118e-19)
(2.77286 1.38145 2.64643e-19)
(3.38489 -0.377397 0)
(2.14963 -0.28143 0)
(0.213062 0.310032 -5.34163e-19)
(2.08093 -0.103131 1.04433e-19)
(-1.19815 -0.293809 0)
(2.23944 -0.15213 -1.48894e-19)
(1.99294 0.00639383 -3.22677e-19)
(-0.804989 -0.218409 -7.84689e-20)
(-0.973846 -0.650876 5.57125e-19)
(2.61909 -0.114847 -4.65428e-21)
(0.313428 0.531673 -2.17795e-20)
(2.33175 -0.364294 -3.46042e-19)
(1.90251 -0.417229 2.93527e-19)
(3.38233 1.0936 7.51502e-19)
(1.46017 -0.602221 3.80156e-19)
(1.81628 0.29431 4.30107e-22)
(0.970691 0.303828 5.26181e-19)
(2.06138 2.05827 0)
(1.63729 -0.450143 2.39434e-19)
(-1.97099 -0.0831606 0)
(0.404601 -0.097963 -2.37974e-18)
(2.32579 0.0268071 0)
(-1.94361 0.797391 -1.3939e-18)
(1.55535 -0.665282 -5.37859e-19)
(1.32212 0.703891 -2.69462e-19)
(1.99176 -0.821228 0)
(0.426599 -1.23367 0)
(3.21848 -0.185746 0)
(1.98851 0.0995231 1.2418e-19)
(0.98423 0.663444 -9.87728e-19)
(-0.194411 0.372485 1.0587e-18)
(1.50034 -0.289587 -7.84645e-21)
(3.38302 1.12219 -8.53256e-19)
(2.08446 0.303422 0)
(1.17481 2.10349 2.39126e-19)
(2.44374 1.42608 1.05448e-19)
(-0.370366 0.534905 -2.20761e-19)
(1.47953 -0.690129 3.541e-19)
(2.51017 -0.170789 5.53066e-21)
(1.10207 -0.535348 6.10264e-19)
(2.29119 0.47728 0)
(2.38537 -0.334062 1.65138e-19)
(0.924617 -0.313896 8.72202e-20)
(1.93223 -0.0205035 3.07058e-20)
(3.49685 0.791851 -4.5547e-19)
(1.98869 -0.949189 0)
(2.53899 0.852794 0)
(2.44811 0.521114 0)
(0.723554 -0.227073 0)
(1.87641 0.0136184 0)
(1.34899 -0.507843 1.62037e-19)
(3.75352 1.02643 6.6885e-19)
(1.38417 -0.578156 4.50396e-19)
(2.06328 0.0575848 2.63665e-19)
(-2.1378 0.16638 0)
(1.986 -0.829446 3.15583e-21)
(-0.381771 0.285381 0)
(-1.70867 -0.317373 -1.01397e-18)
(-0.365266 0.205043 5.75705e-19)
(3.86373 0.636448 -3.63523e-19)
(1.99377 0.142526 3.05949e-19)
(2.06432 0.291306 -9.7935e-20)
(3.83922 0.426915 -4.61549e-19)
(2.52121 -0.00442049 0)
(0.704709 -0.105456 1.0343e-18)
(2.01267 -0.00466527 0)
(1.54317 0.969218 1.74989e-20)
(2.47862 -0.163508 0)
(2.10719 0.242522 -1.2433e-19)
(2.08734 -0.110125 0)
(0.843607 -0.292386 -3.23635e-19)
(-1.69327 1.35844 1.88966e-18)
(2.35246 -0.231144 -1.57486e-19)
(1.33211 0.430859 4.75005e-19)
(-1.68096 0.870513 -1.97873e-18)
(2.249 -0.88858 0)
(0.976244 -0.165797 -1.23805e-18)
(1.50978 0.340349 -1.32425e-20)
(3.51236 0.506371 -1.07734e-18)
(1.82746 -0.00442995 4.11198e-21)
(4.21787 -0.00491863 2.32361e-18)
(2.91332 0.918073 0)
(1.69171 -0.756243 -8.83733e-20)
(1.39431 -0.636575 0)
(2.50273 -0.223216 1.49564e-20)
(0.364654 -0.0741997 7.84796e-20)
(-2.14194 0.686627 0)
(2.41099 0.421833 0)
(1.46304 -2.16432 -4.21111e-19)
(2.48382 0.811244 0)
(1.72943 1.90084 9.28005e-20)
(2.8944 1.02452 -3.21873e-19)
(0.457456 -0.225479 -7.78865e-19)
(-0.905729 -0.469748 -1.8306e-19)
(1.98244 0.0461982 -7.75008e-21)
(0.228397 -0.399426 1.00487e-20)
(-0.859607 0.652429 -1.15854e-18)
(1.8675 -0.00815109 5.37376e-19)
(-0.922754 -0.0799198 8.94117e-20)
(-1.71305 0.664637 0)
(2.48808 0.176321 -9.49199e-20)
(0.894304 -2.08503 5.02221e-19)
(0.297252 0.279067 8.45831e-20)
(3.48066 0.578896 8.92924e-19)
(2.79147 1.74133 0)
(1.75905 -0.488767 -4.18764e-19)
(1.73295 -0.492368 -3.05399e-21)
(2.19343 0.841763 -9.21419e-20)
(2.71188 -0.0769687 -4.33602e-19)
(-0.777986 -1.12457 1.71453e-19)
(-1.95261 1.24821 1.91481e-18)
(1.39972 -0.565572 -1.08638e-19)
(-1.16629 -0.416161 4.82477e-20)
(2.80909 -0.202592 -4.14348e-19)
(-1.03152 -0.852891 -1.9234e-19)
(2.09114 -0.81365 0)
(1.90132 -0.147204 -4.90086e-19)
(-1.08985 -0.620088 0)
(0.103668 -0.61523 -2.27882e-20)
(-0.688799 -0.770528 2.40505e-19)
(-0.327035 -0.442563 8.894e-19)
(1.64688 0.481804 4.93093e-21)
(-2.32693 1.22879 1.40645e-19)
(-0.731424 -0.422718 0)
(2.12675 -0.783549 4.49466e-19)
(2.09127 -0.825557 1.18949e-19)
(-0.948032 -0.519174 -7.65567e-19)
(1.77721 0.529914 0)
(1.68102 0.543967 0)
(0.1238 0.410514 0)
(1.11875 -0.999919 -5.63539e-20)
(1.8526 -0.0224073 -4.78142e-19)
(1.28333 0.218309 0)
(2.35525 -2.19893 0)
(2.29996 0.210142 -1.26105e-20)
(2.66465 -1.48927 -1.17135e-19)
(2.12933 0.291477 -3.68617e-19)
(1.56954 -0.354092 1.47533e-20)
(1.70988 0.030815 5.26306e-20)
(1.91951 -0.00813867 -5.11085e-20)
(1.4814 0.306106 5.36718e-20)
(1.94666 0.564815 -2.83846e-20)
(1.87632 1.3125 0)
(-0.980272 0.797171 -2.45223e-20)
(0.232557 -0.0542512 0)
(1.00455 0.175247 0)
(2.9283 0.294532 -5.16319e-19)
(-2.20835 0.585309 0)
(2.51693 0.406805 0)
(1.92183 -0.122863 7.54209e-19)
(1.8039 -0.795656 0)
(2.03126 0.243795 4.43701e-19)
(3.37325 0.667815 4.53071e-19)
(3.27065 0.685193 1.59205e-19)
(1.78491 0.372296 -1.07159e-21)
(1.06964 1.44895 2.71198e-19)
(2.13705 -0.821884 5.53764e-21)
(1.88829 -0.754359 -1.08744e-20)
(1.11621 -0.417817 4.68158e-19)
(-0.155902 -0.32583 0)
(0.912842 -0.452328 0)
(-2.6211 1.29965 -1.88932e-18)
(-1.72864 1.44862 -2.58362e-18)
(0.490489 -1.06952 0)
(-0.321747 -0.295311 5.7836e-20)
(-0.346453 0.409261 0)
(0.583603 -0.202009 1.13444e-18)
(1.07975 -0.500882 -6.0733e-19)
(3.4183 0.507262 -2.05738e-20)
(3.20401 0.822081 3.57497e-19)
(1.17074 -0.382294 9.47054e-20)
(2.68772 -0.105576 1.99609e-19)
(2.30513 1.03525 0)
(2.41004 0.994749 0)
(1.06002 0.0437747 0)
(-0.265006 -0.255534 -5.48911e-19)
(1.34737 -0.512871 0)
(2.27783 0.733138 0)
(1.77152 0.0246927 0)
(2.38976 -0.402851 -7.71047e-20)
(0.561487 -0.18012 3.4225e-19)
(1.96886 -0.747968 -2.3292e-19)
(1.04016 -1.03251 1.58354e-19)
(1.56518 -0.308461 0)
(-2.02014 0.683109 0)
(1.9324 -0.555761 -3.9791e-19)
(1.56877 0.611947 7.12661e-19)
(-2.51734 1.43326 -1.06769e-18)
(2.79736 0.448893 1.25145e-20)
(1.66451 -0.41992 4.3978e-19)
(0.955587 0.49236 -1.13574e-18)
(-1.73154 1.61233 0)
(1.18336 1.41569 -6.27093e-19)
(0.303318 0.450266 -6.9764e-19)
(3.29052 0.559585 0)
(2.20769 -0.0676489 0)
(1.87857 -0.0610613 0)
(2.04135 0.0376309 -4.72899e-19)
(1.36462 0.344764 -4.87138e-19)
(1.68192 0.156569 0)
(2.62144 1.39105 1.4489e-18)
(1.72559 -0.766724 4.13644e-19)
(2.42238 -0.372132 8.67686e-20)
(-2.36289 0.963028 6.54408e-19)
(2.0677 -0.247806 0)
(2.56072 0.0937238 5.62131e-20)
(1.70425 -0.373727 0)
(0.668148 -2.08103 -4.99882e-19)
(1.66612 -0.751167 0)
(2.07754 -0.745662 5.25014e-19)
(1.42856 -0.290636 -5.41537e-22)
(2.08597 0.317462 -4.51308e-21)
(2.44753 -0.392637 0)
(1.75167 -0.742101 0)
(1.53358 -0.654699 -5.60162e-19)
(2.34916 0.404715 -1.69563e-20)
(-1.49128 -0.790898 4.69153e-19)
(0.831934 -0.396784 4.75388e-19)
(1.92369 -0.0799084 0)
(1.53916 0.246569 -7.43484e-19)
(2.36859 0.00803884 -5.32108e-20)
(1.27409 -1.12409 -7.09729e-20)
(2.08424 0.4469 -2.86987e-21)
(2.14899 0.536497 0)
(1.14809 -0.309163 6.65355e-19)
(0.942599 0.230313 -7.23685e-19)
(3.58719 0.801035 1.00053e-20)
(1.80055 0.26341 -8.47424e-19)
(-2.21579 0.844497 5.28834e-19)
(-0.229641 -0.317299 -1.91325e-18)
(1.5007 -0.274147 -8.32031e-20)
(2.03365 -0.0074041 -4.39761e-20)
(0.737156 0.429811 1.19037e-18)
(-0.328079 0.207933 1.32548e-21)
(-2.28054 0.720497 1.00524e-18)
(-1.73687 -0.609813 1.0648e-18)
(1.76084 -0.0378297 6.1678e-20)
(2.36447 -0.217226 0)
(1.20275 0.543515 1.10088e-18)
(1.10512 -0.537099 2.76821e-19)
(1.63085 -0.23479 2.61485e-19)
(-0.329761 0.248806 0)
(1.55635 -0.362623 -7.00089e-20)
(1.92175 0.0754662 9.46743e-23)
(2.05276 0.0291298 0)
(-0.587729 0.854171 7.51915e-19)
(-0.335404 -1.88408 2.89802e-19)
(1.54132 -0.335462 0)
(0.991151 -0.347085 0)
(1.50164 -1.01482 -8.48528e-20)
(1.40435 -1.46142 -3.8691e-20)
(2.87944 0.303698 1.8551e-19)
(-0.240617 -0.133279 0)
(1.91926 -0.0266056 -4.26927e-19)
(2.48254 -0.916965 -1.55416e-19)
(2.14486 -0.726326 3.12117e-20)
(1.16677 -0.443049 5.88891e-19)
(-2.31381 0.682299 -9.80847e-19)
(-1.83552 0.104223 7.74032e-19)
(3.7519 0.74903 -8.66633e-21)
(3.14329 -1.63432 0)
(2.10438 0.954928 -1.13718e-18)
(1.52422 -0.603234 2.79731e-19)
(2.04722 2.13019 1.74249e-19)
(0.783214 0.655593 0)
(1.12633 -0.193688 -5.85834e-19)
(1.16975 -0.492701 -7.15091e-19)
(-2.53208 1.16846 1.29708e-18)
(0.688166 -0.124141 -1.10132e-18)
(2.20568 1.49765 0)
(-0.316578 0.340054 -6.6966e-19)
(2.30554 0.546743 0)
(-0.385664 -0.0317107 -8.22897e-19)
(-0.178872 0.358913 1.45192e-18)
(-0.842443 2.11453 0)
(-2.32645 0.704388 4.64763e-19)
(1.59111 -0.109886 -1.07916e-19)
(0.593357 -0.249035 4.37155e-19)
(1.6217 -0.635748 5.11328e-19)
(-2.6552 1.44966 -3.18112e-18)
(1.14435 -0.524164 0)
(1.98829 0.0295251 1.5173e-19)
(0.374437 -0.237256 0)
(2.28793 0.224936 -3.83295e-21)
(-0.702595 -0.160667 -1.22618e-18)
(0.489345 -0.168321 3.07652e-19)
(2.20015 0.57911 0)
(1.83933 -0.724944 -3.95998e-19)
(3.13331 -0.0167311 1.71824e-19)
(-2.03765 0.448208 1.99135e-18)
(0.144736 -2.44325 0)
(-1.95751 0.295604 -1.77415e-18)
(3.41712 0.711172 -1.02168e-18)
(1.58338 0.222492 9.52678e-19)
(2.1305 -0.662895 0)
(2.48862 -0.236664 4.04073e-19)
(-1.16789 -0.45142 1.05668e-18)
(0.463844 -0.150117 -1.50945e-19)
(2.15631 -0.565573 1.60634e-19)
(-2.02943 0.559674 0)
(1.84003 -0.477596 -5.17431e-20)
(1.9026 0.244355 1.49942e-22)
(2.51038 -0.388826 1.40256e-19)
(2.33171 0.0143847 0)
(-1.92841 0.943936 1.08747e-18)
(1.60078 -0.423156 -6.1038e-22)
(1.23414 -0.35291 7.31269e-20)
(1.60416 0.493518 0)
(1.99738 -0.767294 -1.85283e-19)
(-2.53087 1.21506 2.32376e-18)
(1.67006 -0.374472 -5.4975e-19)
(-0.213383 0.231656 0)
(1.44951 -0.243878 -4.52722e-20)
(2.02462 -0.745683 1.50411e-19)
(-2.35491 0.801604 -1.08515e-18)
(1.46845 -0.339612 0)
(0.398779 -0.209013 1.55886e-18)
(1.58158 -1.09406 0)
(-1.96092 1.50345 1.73078e-18)
(1.72467 -1.90329 0)
(1.91115 -0.124995 -2.7841e-19)
(2.13492 -0.228605 -2.87394e-19)
(2.76947 1.34241 -7.25449e-19)
(1.40516 -0.819814 0)
(1.94195 -0.829677 -2.89537e-19)
(2.01175 0.0206914 0)
(2.40683 0.433045 0)
(2.02366 -0.836195 9.63735e-20)
(-1.97776 1.04072 1.07354e-18)
(0.483731 0.00278386 1.92807e-19)
(2.09487 -0.534565 -9.51048e-20)
(1.66772 0.323287 3.12798e-19)
(0.208971 -0.469766 1.53056e-20)
(2.09451 0.287453 1.71489e-19)
(-1.60582 1.6928 -1.83849e-19)
(2.35558 -0.282032 0)
(2.48452 0.256462 0)
(-2.02303 1.6572 0)
(-0.466752 -1.21146 5.9375e-19)
(1.13726 -0.376283 -4.13326e-19)
(1.44334 0.189019 0)
(-1.50612 0.321989 7.66858e-19)
(2.29755 -0.164251 -2.0189e-19)
(-1.92199 0.497351 -4.31648e-19)
(1.33572 -0.483611 -1.34991e-19)
(2.11135 -0.841807 0)
(0.46649 -0.228712 1.3354e-18)
(-0.325244 0.574899 -1.65506e-18)
(-0.736244 2.32118 0)
(-0.473947 0.204673 -8.76662e-19)
(1.77082 0.0414138 -8.10982e-21)
(2.71859 -0.14414 9.73514e-20)
(1.91532 0.053926 2.83173e-19)
(2.72761 1.15494 -3.39599e-19)
(2.42649 0.236533 6.47014e-21)
(-1.17807 -0.352398 0)
(1.89751 -0.735212 0)
(-1.32426 0.434057 6.24981e-19)
(0.493467 -0.0238649 0)
(1.54466 -0.322704 -7.08515e-20)
(2.11713 -0.75477 -2.83753e-19)
(0.953621 -0.445223 4.98198e-19)
(2.28951 -0.182565 -1.50727e-19)
(1.73872 0.37942 -3.09711e-19)
(1.48329 -0.591498 -2.74625e-19)
(1.57232 -0.620463 -5.11976e-19)
(1.26497 -1.26527 0)
(1.67427 -0.645119 4.89652e-19)
(1.97428 -0.0949401 0)
(2.49528 -0.415942 -5.64221e-21)
(2.00574 1.39075 1.66165e-20)
(1.04461 -0.217557 5.40795e-20)
(2.20632 -0.392633 -2.5276e-19)
(0.722325 -0.180063 -9.34238e-19)
(-0.976241 0.956821 0)
(1.12755 -2.56701 -2.67924e-19)
(-0.288966 0.0833446 -2.0765e-18)
(2.07152 0.573496 -1.84342e-19)
(1.78422 -0.708172 4.60049e-19)
(2.10511 0.0331443 -5.16533e-21)
(0.657823 -0.167167 3.76796e-19)
(1.74932 -0.737964 -1.21788e-19)
(0.245858 0.17593 0)
(-1.84934 0.373205 1.21438e-18)
(1.70765 -0.32211 2.90851e-19)
(2.02938 0.0387491 -1.68469e-22)
(1.14229 -0.495617 1.04928e-18)
(-0.576728 -0.469182 2.07988e-21)
(1.72018 0.638004 0)
(-0.436387 -1.12784 -2.07658e-19)
(-1.92326 0.716614 -1.46701e-19)
(1.05306 -0.291717 -7.89006e-19)
(-0.134953 -1.18219 2.02583e-19)
(2.53522 0.997424 -3.2119e-19)
(2.07735 0.571709 3.0929e-21)
(0.907364 -0.348228 3.57469e-19)
(1.75797 -0.324113 0)
(2.54351 0.140548 -1.63131e-19)
(2.42964 -0.0366746 -6.39873e-21)
(3.04365 0.919275 -3.58671e-19)
(-1.22981 -0.257749 0)
(3.5482 1.05558 2.99756e-20)
(-0.00695851 0.11673 7.88471e-19)
(1.56685 -0.676947 1.08696e-18)
(-0.455842 -0.528369 1.22557e-20)
(0.199931 1.00711 -4.82653e-19)
(0.430352 -0.1845 2.5897e-18)
(1.95464 -0.727348 4.70789e-19)
(2.1433 0.0115393 -4.57454e-21)
(0.178509 -0.435294 -5.60729e-21)
(2.80254 -0.00563099 4.8639e-20)
(0.18864 0.280174 0)
(2.01974 0.0382874 0)
(2.37565 0.475438 0)
(1.72354 -0.65745 -4.27998e-19)
(1.95502 -2.01544 3.95327e-19)
(-0.924788 -0.424064 0)
(1.19595 -0.345063 -1.71051e-19)
(-0.851087 2.176 0)
(3.93205 0.301325 0)
(-1.18884 -0.484968 0)
(2.00341 0.0367468 0)
(0.40008 -0.210647 -4.83195e-19)
(-1.36337 1.67053 0)
(4.01399 -0.427451 1.5363e-18)
(1.3876 -0.00552325 0)
(1.84405 0.242587 0)
(1.93066 0.18781 2.62116e-21)
(-1.5553 1.42136 0)
(3.23222 -1.79384 0)
(-0.644554 -0.339978 0)
(2.56986 0.0777841 1.74209e-20)
(1.8478 -0.412576 0)
(2.11077 -0.8239 -1.28168e-20)
(1.56867 -0.306833 3.06146e-21)
(0.331107 -0.155006 -4.56978e-19)
(1.98785 0.0662923 6.87889e-19)
(-0.157926 -0.0314376 7.39415e-22)
(1.05675 0.959341 -6.04131e-19)
(1.47542 0.777813 0)
(2.3648 -0.354878 9.22672e-21)
(1.62327 -0.188193 -2.5531e-19)
(1.56306 1.78462 1.49741e-19)
(1.83731 0.404316 4.39557e-19)
(0.717406 -0.225541 -7.48543e-19)
(1.4667 -0.644429 -4.24416e-19)
(3.17362 -0.383793 2.44356e-19)
(0.707256 -2.66913 0)
(2.26311 -0.484332 2.68328e-20)
(1.3101 -2.6161 3.1557e-19)
(2.68662 0.351557 -8.33662e-20)
(-2.6001 1.50892 0)
(1.83828 0.0948033 -3.17102e-19)
(2.91182 0.888307 -1.13888e-18)
(1.30801 -0.527066 5.44278e-19)
(1.19846 -0.545858 -6.56377e-19)
(1.60659 -0.738084 0)
(1.71536 -0.748999 0)
(3.69455 -1.05533 1.59139e-18)
(2.26825 -0.392756 -1.62202e-19)
(3.41631 0.414558 -5.98669e-19)
(1.7395 -0.0126833 3.69974e-20)
(1.17995 -0.310572 -1.58766e-19)
(1.66346 -0.489888 4.66178e-19)
(2.48553 0.288435 0)
(2.41645 0.321864 1.70665e-20)
(0.118201 0.245322 -2.01077e-18)
(2.74151 -2.41218 1.90391e-18)
(1.00775 -0.199399 6.72114e-21)
(-0.767202 -0.234742 7.26956e-19)
(3.28156 0.448015 4.99943e-19)
(2.5713 0.814798 6.30526e-20)
(2.37931 0.59151 0)
(-1.16661 -1.19388 0)
(2.17508 -0.828228 -3.88571e-21)
(1.13331 -0.217938 0)
(1.83039 -0.342246 1.9529e-19)
(1.61798 0.280717 5.39858e-19)
(1.65235 0.514929 -1.58593e-19)
(1.54354 -0.626624 1.10913e-18)
(1.90862 0.280639 -1.70159e-23)
(1.49576 0.0222447 0)
(1.78627 -0.0754272 -8.50298e-21)
(-0.957701 -0.52475 -8.91686e-19)
(2.14389 0.332384 0)
(2.57543 -0.415528 0)
(1.86924 -0.74398 1.71557e-19)
(1.97413 0.559607 2.39451e-19)
(1.0701 -0.133905 0)
(3.33963 -1.01281 5.86045e-20)
(2.72572 -0.00642719 2.02763e-19)
(2.36737 0.334414 3.19217e-20)
(1.7514 0.500784 4.6773e-19)
(-0.925175 -0.543892 -3.08357e-19)
(1.30824 -0.641447 0)
(0.571541 -0.294642 -2.32278e-18)
(0.468622 -0.191785 1.11656e-18)
(1.98003 0.0247299 1.75747e-20)
(0.30565 -0.145461 -9.65829e-19)
(1.7556 -0.720668 3.24487e-20)
(2.633 0.401737 2.22279e-19)
(2.1606 -0.598177 0)
(1.97196 0.161488 2.6411e-21)
(1.81137 0.0683652 9.86039e-20)
(2.11996 -0.0213934 -1.74332e-19)
(2.16049 0.549895 -1.43047e-19)
(2.1644 -0.787504 0)
(-0.810556 -0.35003 0)
(2.54409 -0.0123972 0)
(2.3342 0.453027 -7.23968e-20)
(1.02462 -0.477245 7.81736e-19)
(2.40436 1.85568 -9.18307e-20)
(1.42831 -0.0734823 0)
(-2.22212 1.62707 -4.98534e-19)
(-0.799206 -1.16546 3.84449e-19)
(-1.68912 1.99827 0)
(1.88564 0.312646 -1.4355e-19)
(1.64354 0.24754 -1.79886e-19)
(3.12726 -0.252175 -1.08874e-19)
(2.04321 0.390851 -1.33509e-21)
(0.612596 -0.186424 0)
(2.16543 0.222914 -1.7646e-19)
(1.99435 -0.392994 0)
(2.05932 -0.248078 9.70958e-21)
(0.978951 0.0919036 0)
(2.21918 0.888475 1.00294e-19)
(1.64466 -0.656575 -5.00305e-19)
(2.42929 0.890649 0)
(1.83266 -0.113155 -4.8536e-19)
(2.09547 0.480486 -4.17544e-21)
(1.85148 -0.548048 0)
(1.10239 -0.524925 0)
(0.455767 0.240224 -9.38931e-20)
(2.48101 -0.212418 -1.42314e-20)
(0.644754 -2.43712 -2.86355e-19)
(0.252458 -0.282247 -4.21945e-20)
(2.70383 -0.123316 5.53413e-22)
(1.42924 0.0943987 7.53682e-19)
(1.75251 0.429921 -2.01161e-21)
(2.05947 0.591003 0)
(3.3594 0.883117 4.92274e-19)
(1.65614 -0.750648 0)