/*--------------------------------*- C++ -*----------------------------------*\
| =========                 |                                                 |
| \\      /  F ield         | OpenFOAM: The Open Source CFD Toolbox           |
|  \\    /   O peration     | Version:  2306                                  |
|   \\  /    A nd           | Website:  www.openfoam.com                      |
|    \\/     M anipulation  |                                                 |
\*---------------------------------------------------------------------------*/
FoamFile
{
    version     2.0;
    format      ascii;
    arch        "LSB;label=32;scalar=64";
    class       volVectorField;
    location    "2.5";
    object      U;
}
// * * * * * * * * * * * * * * * * * * * * * * * * * * * * * * * * * * * * * //

dimensions      [0 1 -1 0 0 0 0];

internalField   nonuniform List<vector> 
13486
(
(1.478 -0.269955 5.54161e-19)
(1.70075 0.238682 2.58989e-19)
(2.1551 0.0286162 0)
(0.789061 -0.411802 -1.34722e-19)
(2.36616 -0.552147 1.75645e-19)
(2.35996 0.0841338 1.03068e-20)
(2.57861 -0.451993 7.2228e-22)
(2.02686 -0.750543 -2.88496e-19)
(1.9626 -0.420968 0)
(2.05598 0.65005 0)
(1.25113 -1.45996 -2.08458e-19)
(2.39625 0.0625956 0)
(1.35549 -0.477771 -5.47704e-19)
(2.47489 0.537632 4.05386e-20)
(2.48897 -0.379788 9.5435e-20)
(2.01236 0.649205 -1.48253e-19)
(-2.25951 0.962317 1.01127e-18)
(1.32587 -0.795269 -2.18124e-19)
(2.27674 0.0192377 2.75613e-21)
(1.64442 -0.0893131 -5.61418e-19)
(1.43156 -0.769911 -4.89709e-20)
(1.37355 -0.491164 7.07065e-19)
(1.72229 0.243082 -2.06978e-19)
(2.07963 -0.545914 0)
(2.07378 0.520304 4.82541e-20)
(2.0798 -0.49835 -5.49897e-20)
(-0.0380022 -0.215222 1.77437e-19)
(2.18528 -0.0752257 1.98869e-19)
(2.02382 0.0189482 0)
(2.02512 -0.191036 -1.01841e-19)
(1.45049 -0.724373 -3.18132e-20)
(2.63483 -0.205399 -1.10381e-19)
(2.39431 -0.361256 1.8962e-19)
(1.97345 -0.030421 0)
(2.03544 -0.724626 0)
(1.94668 -0.0063124 5.40439e-22)
(2.00881 0.0519225 2.78137e-20)
(1.53002 -0.723519 2.79446e-19)
(1.91666 0.0566865 3.57999e-21)
(1.97274 -0.270632 2.8339e-19)
(2.4481 -0.836652 0)
(0.907248 -0.455572 -6.34767e-19)
(2.07535 0.0137776 0)
(2.08484 0.433661 -2.34081e-19)
(2.10168 0.431146 9.63403e-20)
(2.39895 0.0628497 9.22085e-20)
(2.50615 -1.74349 3.24396e-18)
(2.03345 0.0108702 -1.11567e-21)
(2.00858 0.0446995 -2.08969e-20)
(2.37062 -0.0518802 1.13511e-19)
(1.99994 0.0359315 3.19672e-19)
(1.9317 0.0268285 0)
(2.51076 0.188768 -1.04073e-19)
(1.68335 -0.641499 -4.0897e-19)
(1.23955 -0.667772 0)
(2.33804 -0.55837 -1.18842e-19)
(2.03785 0.0482439 -1.61558e-20)
(1.92657 0.0338117 6.0871e-21)
(2.40612 -0.359308 2.19549e-19)
(1.99017 0.0640377 0)
(1.37038 -1.1963 -1.8435e-19)
(1.99948 0.0599865 0)
(3.13421 -0.6649 -4.00897e-19)
(1.44023 -0.775466 -5.8001e-22)
(1.67478 -0.572406 0)
(2.00548 0.045826 1.48811e-20)
(0.843614 -0.432747 -1.33963e-19)
(1.46989 0.0033941 1.87141e-19)
(1.96153 -0.443388 -1.62356e-19)
(1.9523 0.000822224 -7.25676e-21)
(0.640815 -0.317936 1.53602e-19)
(1.17744 -0.669987 -1.20409e-20)
(1.9662 -0.13736 2.10595e-19)
(-0.331065 1.04912 -7.42492e-19)
(2.00012 0.0456207 3.07075e-21)
(2.04532 0.0340528 3.7521e-21)
(2.01324 0.0664431 -9.61638e-21)
(2.49243 -0.402194 -3.89899e-20)
(1.98658 -2.16476 -1.32267e-18)
(1.71976 0.0196661 0)
(1.98964 -0.0010461 1.84652e-21)
(1.64461 0.336407 -1.64492e-20)
(3.12611 -0.916628 -4.40567e-20)
(2.15853 0.0423618 -1.58898e-20)
(1.47207 -0.285261 -1.08519e-18)
(1.45228 1.53272 0)
(1.88839 0.287514 3.08556e-20)
(1.98263 0.040019 -4.79279e-19)
(1.89108 0.216692 -2.09873e-19)
(1.9351 0.881994 -1.55475e-19)
(2.76561 -0.0447629 -4.15216e-20)
(2.15101 -0.646276 -1.51056e-19)
(1.54219 -0.371771 1.43025e-19)
(1.68312 0.0485022 1.45637e-20)
(1.88207 -0.609987 6.56149e-20)
(2.02049 0.0115428 7.88743e-22)
(0.110675 -0.371532 0)
(1.34395 -0.687027 6.88258e-20)
(1.98446 -0.264749 -5.41187e-19)
(-2.00182 0.421721 9.20169e-20)
(2.05805 0.00604133 0)
(2.43618 0.541632 1.14531e-20)
(1.42851 -0.722035 5.53136e-22)
(1.92071 0.0325925 -7.34927e-21)
(1.40999 1.4725 0)
(-1.9764 0.248927 8.33898e-20)
(1.97233 0.0734338 9.33684e-22)
(1.91525 0.0681654 7.98043e-21)
(2.13462 -1.91388 1.98312e-18)
(1.82157 -0.829001 0)
(1.29245 -0.621082 0)
(2.68201 -0.36699 -9.8863e-20)
(1.69041 -0.623017 2.9646e-21)
(2.05328 0.0213312 1.26885e-21)
(1.1435 -0.110391 0)
(1.23483 -0.611606 -2.44912e-19)
(2.07881 0.529449 0)
(2.01095 -0.0297798 0)
(1.95863 -0.140357 0)
(1.99765 0.0301511 1.29783e-20)
(1.03902 -0.855814 1.36029e-19)
(1.303 -1.19924 0)
(1.85091 -0.55469 0)
(1.90988 0.0587969 -1.04684e-20)
(1.92726 -0.700058 0)
(1.92956 0.0285609 0)
(2.20841 -0.27974 6.21428e-21)
(2.17671 0.0717856 9.27565e-20)
(1.93015 -0.0086194 -1.48628e-20)
(1.67165 -0.510626 -3.35291e-20)
(1.94683 0.0271389 9.27835e-22)
(2.57042 -1.6815 -8.04906e-19)
(1.91996 0.52772 1.11464e-18)
(-0.169981 -0.335703 1.15578e-18)
(2.00162 0.0201947 -5.23487e-20)
(1.93581 0.390368 -2.30462e-19)
(0.745775 0.651023 -1.57807e-19)
(1.84575 -0.826369 0)
(2.00047 0.032642 -4.09868e-21)
(2.04735 -0.610859 -1.03813e-19)
(2.43962 -0.220339 -2.17076e-19)
(2.54075 0.18418 8.62507e-20)
(2.57613 -0.0414746 0)
(1.74097 0.0171583 0)
(2.06392 -0.0114556 4.8105e-21)
(2.54848 -0.958336 -4.38602e-19)
(2.13504 0.26135 -2.60132e-20)
(0.371452 1.51805 0)
(2.41632 -0.0716858 0)
(2.01791 0.0111536 0)
(2.01212 0.0186241 4.76516e-21)
(2.48691 -0.470095 0)
(2.04675 0.00231826 -1.93837e-21)
(1.62492 0.336451 -1.39622e-19)
(2.18644 0.264061 0)
(2.15133 0.0317066 0)
(1.62244 -0.743164 0)
(0.569656 -0.364727 -2.40519e-20)
(1.78712 -0.730353 5.82772e-19)
(2.03561 0.103333 4.33411e-20)
(2.3682 0.000464593 6.79924e-20)
(1.79346 -0.710482 -8.85337e-19)
(2.89771 -0.187712 -2.77951e-20)
(0.80454 -0.38782 2.7888e-19)
(1.91484 0.0203629 0)
(2.57685 0.485518 -8.72893e-20)
(2.378 0.512568 -2.26854e-20)
(0.532919 -0.186397 -6.8023e-19)
(2.13605 0.249551 6.65748e-20)
(-0.0989599 -0.349634 3.18672e-19)
(2.07849 0.344654 8.86929e-20)
(2.18357 0.249807 7.46795e-20)
(2.00771 0.112169 -3.84423e-19)
(2.36688 -0.1975 9.36408e-21)
(2.01854 -0.00266953 1.22374e-21)
(1.5621 -0.768036 0)
(2.53245 0.840332 1.29314e-19)
(2.52314 -0.284582 3.1366e-19)
(1.99472 0.0652087 -5.26131e-19)
(2.54435 -0.0171447 0)
(2.01689 -0.309134 5.72212e-19)
(2.05226 0.0274252 2.57637e-21)
(2.4403 -0.157709 -4.4577e-21)
(0.707234 -0.337295 0)
(2.19445 0.0927479 4.3436e-20)
(2.16973 -0.0665704 -9.07746e-20)
(2.02922 0.00852057 -9.14682e-22)
(2.0453 -0.11465 -3.27698e-20)
(2.48313 -0.818869 0)
(1.10479 -0.53425 -3.14546e-19)
(1.99778 0.0308308 0)
(2.0948 0.00896404 0)
(1.88722 0.0291014 0)
(1.37123 0.752084 -2.91312e-19)
(1.88641 0.0325208 0)
(1.13059 -1.45832 -4.44096e-20)
(1.66179 -0.53179 7.6543e-20)
(2.34455 -0.0322631 3.75257e-20)
(1.12198 -0.555922 -1.21312e-19)
(2.54908 0.453681 -4.11963e-20)
(1.46008 -0.716974 3.40635e-20)
(2.18046 0.0805286 -2.75351e-21)
(1.40039 -0.679391 -3.23018e-19)
(1.70898 -0.746855 4.52872e-20)
(2.03612 0.0932043 -5.24606e-20)
(1.9062 0.0197134 -1.20183e-21)
(1.3854 -0.663991 -5.41629e-20)
(1.89711 -0.0796137 4.28079e-19)
(1.90945 0.033873 0)
(2.19459 0.0900659 0)
(2.13551 -0.0533646 1.22038e-19)
(1.92389 -0.489681 7.9575e-20)
(1.65731 -0.0708646 5.13792e-19)
(1.94434 0.0705887 1.1045e-21)
(2.35696 0.113587 -1.18763e-20)
(1.7789 -0.154506 7.60884e-21)
(2.0598 -0.182918 0)
(1.93312 0.876288 4.1046e-19)
(1.62681 -0.389852 0)
(3.08627 0.152364 0)
(-2.23062 0.693596 -1.93325e-18)
(2.42401 -0.0789838 0)
(2.03009 -0.60535 2.41217e-19)
(2.38507 -0.00784779 0)
(2.49809 0.297433 -1.60402e-20)
(1.3153 -0.623794 1.96924e-19)
(2.48195 0.164725 -4.58596e-21)
(1.52991 -0.713398 2.15976e-20)
(1.82385 -0.0687831 1.97297e-21)
(1.89786 0.26132 -1.19389e-21)
(2.03188 -0.304306 -1.83791e-19)
(1.3037 -0.263581 9.90343e-20)
(2.43481 -0.256157 2.73603e-19)
(0.940438 -0.462895 2.17363e-19)
(1.52127 -0.771907 0)
(1.09327 -0.533854 2.33226e-20)
(2.01678 -0.0794546 5.34317e-20)
(2.10488 0.00576221 -9.31373e-21)
(0.951383 -0.461762 6.30363e-19)
(2.40391 -0.0809302 0)
(2.36308 -0.393125 0)
(2.01069 0.0567161 5.86215e-19)
(2.05247 0.0170861 0)
(0.955941 -0.476894 2.10657e-19)
(1.91769 0.0946299 1.16592e-20)
(1.81672 0.0578135 0)
(2.33143 0.00921364 -3.96629e-20)
(2.03726 -0.36488 1.849e-19)
(0.358826 -0.0425555 2.0937e-18)
(2.04668 0.418307 0)
(1.53624 -0.737478 -3.28876e-20)
(1.10833 -0.0832979 8.00889e-20)
(1.0366 -0.508737 3.09889e-19)
(1.89742 0.0647584 0)
(1.79597 -0.0235835 3.49933e-21)
(1.55574 -0.793169 1.8954e-20)
(2.64675 -0.185488 8.2198e-20)
(1.75807 -0.151178 -9.619e-21)
(0.4696 -0.297262 2.52714e-20)
(2.31898 -0.383411 1.31523e-19)
(1.81008 0.206493 0)
(1.92737 0.0944688 -7.88423e-22)
(2.49341 -0.385538 -2.24374e-19)
(1.55927 -0.780954 -2.36571e-20)
(2.26708 -0.757167 -1.79851e-19)
(0.856375 -0.399488 0)
(1.83994 -0.0667486 -1.74575e-20)
(1.46914 -0.7403 -4.8838e-20)
(2.01244 -0.0279656 -2.48124e-19)
(0.891073 0.683213 0)
(1.60255 0.824829 2.00923e-19)
(1.99489 0.0635843 -1.4141e-19)
(2.06593 -0.195628 0)
(2.42407 0.147478 7.24096e-20)
(1.23394 -0.597251 2.61055e-19)
(2.03387 -0.340921 -1.03083e-19)
(1.81432 -0.0130256 0)
(1.41519 -0.450007 0)
(1.88823 0.0694163 7.09428e-21)
(2.15753 0.276145 4.94687e-20)
(1.42908 -0.445696 4.48703e-20)
(2.13071 -0.209427 -2.08873e-19)
(1.92839 0.0954146 3.10437e-19)
(2.16496 -0.769134 -1.27161e-19)
(1.2492 -1.09852 1.84662e-19)
(-1.11159 -0.279066 9.68638e-19)
(2.48411 -0.214193 2.62341e-19)
(1.91711 -0.0197358 1.94937e-20)
(2.46901 0.305944 2.58988e-20)
(2.02 -0.0356455 0)
(1.50649 -0.770715 0)
(1.97674 0.0845078 -1.8276e-20)
(1.27094 -0.613919 2.40214e-19)
(2.00091 0.0232241 -5.17296e-20)
(2.00258 -0.0605529 5.0678e-20)
(2.02462 -0.0981743 0)
(2.09588 -0.0293673 -8.6315e-20)
(2.38122 0.132274 -6.02293e-20)
(1.92873 0.0745958 -2.86115e-19)
(2.58361 -0.574201 5.4759e-20)
(2.68223 -0.272681 2.8411e-20)
(1.26962 -0.670426 -5.09155e-21)
(2.15749 0.27118 -4.25587e-20)
(2.61089 -0.209759 1.03854e-19)
(1.9902 0.0296802 -4.69877e-21)
(1.3986 -0.642619 0)
(0.424587 -0.133055 0)
(2.33578 0.00329679 8.00095e-20)
(1.8642 0.250458 -2.47119e-20)
(2.00269 0.0325254 0)
(2.53197 1.54481 -1.9713e-18)
(0.656335 -0.343669 0)
(2.43049 0.845408 -2.90533e-20)
(2.66984 -0.348939 -9.32844e-20)
(1.92986 -1.23401 0)
(1.92276 0.377197 -1.41081e-19)
(1.97559 0.0878534 2.68478e-20)
(1.89078 0.203073 -1.79337e-20)
(1.88665 -0.0699337 -4.7075e-19)
(1.84796 -0.0875443 0)
(1.98888 0.0332921 -2.70309e-20)
(1.97063 0.088733 4.93413e-22)
(2.00977 0.0645768 6.6269e-20)
(1.66733 0.08885 -2.7202e-19)
(0.840833 0.620144 2.91527e-19)
(2.74038 -0.083726 6.7605e-20)
(2.28337 -0.396881 -5.77714e-19)
(2.14098 -0.203152 0)
(2.27661 0.155587 1.30267e-21)
(2.31594 -0.403587 -1.04477e-19)
(2.00108 0.0205373 6.95395e-19)
(2.1782 -0.649797 0)
(2.84732 -0.0348545 -4.33455e-21)
(1.50296 0.325018 0)
(2.58966 -0.469566 -1.70472e-19)
(1.94501 -0.571579 -1.79194e-19)
(0.752455 -0.358576 2.59625e-19)
(2.46468 -0.483929 -1.51312e-19)
(2.03182 0.147328 0)
(1.93192 0.0959752 2.13887e-20)
(1.84342 -0.0832397 2.1174e-20)
(1.67649 0.0967098 2.56867e-19)
(2.33012 -0.408162 4.0973e-19)
(2.43999 -0.166197 1.88887e-19)
(1.39969 -0.710543 -9.35527e-20)
(2.02493 0.00266556 3.70385e-22)
(2.25721 -0.20248 0)
(1.10824 -0.414332 6.27159e-19)
(3.07768 0.127386 0)
(1.98054 0.0947286 -7.66978e-22)
(2.26721 -0.109112 3.43573e-19)
(2.31846 0.168468 -6.50486e-20)
(2.41478 0.142427 5.69052e-20)
(0.328208 -0.38156 -1.31371e-19)
(1.93272 0.0800275 3.57357e-19)
(2.02526 -0.0118318 0)
(-0.405318 0.89645 -5.68838e-19)
(2.22401 -0.279403 -1.22142e-19)
(1.86871 0.231817 1.29454e-20)
(1.92408 -0.458252 7.48399e-20)
(2.38996 -0.0244449 0)
(2.77262 0.0360346 3.13815e-20)
(1.80695 0.147136 5.46271e-19)
(1.98092 0.0755322 4.30284e-19)
(2.0437 -0.198732 0)
(2.04201 -0.00259931 -2.17088e-22)
(2.02186 -0.104591 -5.0184e-20)
(2.9617 -1.21453 5.42437e-19)
(1.62592 -0.091867 7.1357e-20)
(2.22461 -0.253178 1.16105e-19)
(2.0249 0.0374352 -2.99721e-21)
(2.25998 -0.199496 0)
(2.43255 0.333856 -6.12148e-20)
(1.53832 -0.730077 3.19743e-20)
(2.3996 0.265098 2.68331e-20)
(1.97969 0.045072 2.71096e-19)
(1.3706 0.0430127 0)
(1.95922 0.0876236 2.94664e-20)
(1.99002 -1.17615 0)
(3.5324 0.551228 -3.37476e-19)
(2.03072 -0.0458104 0)
(2.17083 -0.736515 -5.76323e-21)
(1.39298 -0.164957 -1.52712e-19)
(1.58835 0.759483 4.8557e-19)
(2.89131 -1.26515 -1.90172e-18)
(1.82856 -0.0280652 0)
(2.26892 0.0422941 -5.54573e-20)
(2.01423 0.161196 -1.49635e-19)
(-1.89624 1.50612 -8.39031e-19)
(1.41108 -0.754424 4.77855e-21)
(1.6821 -0.0843853 -7.75843e-19)
(2.10946 -0.185758 5.59195e-20)
(2.09226 0.163367 1.01448e-19)
(1.52377 -0.500559 0)
(1.43448 0.250633 2.92652e-19)
(1.99679 0.0297333 1.26202e-20)
(0.743847 -0.385121 7.81608e-20)
(1.53003 -0.726758 -1.11545e-19)
(-2.5305 1.6065 -1.64663e-18)
(2.48237 -0.223784 0)
(-2.38495 1.68719 0)
(2.12451 1.01572 0)
(2.05605 -0.091303 0)
(0.672294 -0.203087 -5.05533e-20)
(2.58122 -0.44823 0)
(2.01409 0.453572 0)
(1.69928 0.0668851 1.05977e-19)
(2.49644 -0.291871 -3.242e-19)
(2.22399 -0.188465 -2.81596e-19)
(1.7411 0.291935 8.76284e-19)
(1.99546 0.0146538 -7.79829e-20)
(2.52893 1.52552 0)
(2.16681 -0.190509 0)
(1.91794 0.0764661 3.04748e-19)
(2.03621 0.0486651 5.33791e-20)
(1.38657 0.799608 0)
(0.664927 -0.326891 9.69773e-20)
(2.24991 -0.770731 2.02458e-19)
(1.99603 0.658489 0)
(2.39113 -0.0815527 1.86846e-19)
(1.99142 0.0738375 -3.52447e-19)
(1.3281 -0.526335 -8.00137e-21)
(1.10153 -0.397209 0)
(2.02323 0.148317 2.81303e-19)
(2.44977 0.0540374 0)
(2.03226 -0.0940988 0)
(2.20897 0.158789 -1.21808e-20)
(1.94098 0.0975354 1.62419e-19)
(-0.127242 -0.265385 -2.31498e-19)
(2.3346 0.518384 7.73629e-21)
(1.40784 -0.397451 -2.71393e-19)
(2.0586 -0.0841567 3.62783e-20)
(2.10843 0.159976 7.89866e-20)
(2.41011 0.329533 1.63462e-19)
(2.3411 -0.754039 0)
(2.1066 -0.358912 1.03755e-19)
(1.3968 -0.098178 0)
(1.97031 0.0887516 -1.63655e-20)
(2.34423 -0.201818 0)
(1.49016 0.0169238 3.95703e-19)
(0.296822 -0.146568 -3.13992e-18)
(2.08737 -0.174251 0)
(-0.442525 -0.0835963 5.39326e-20)
(2.15363 -0.204516 -1.31447e-19)
(1.97447 0.198374 4.04577e-20)
(1.79771 -0.297486 7.42502e-19)
(1.49024 0.73715 -3.1035e-19)
(1.39736 -0.384309 -7.71386e-19)
(3.51454 0.482832 0)
(2.0013 0.03582 -1.22067e-20)
(1.38295 -0.730778 -2.27315e-19)
(2.01917 0.166797 0)
(1.87662 0.218625 1.95241e-20)
(2.40829 -0.0435223 -2.36021e-20)
(2.83956 0.785219 0)
(2.00575 0.0209582 0)
(0.585478 -0.289088 0)
(1.56945 -0.770334 8.15013e-20)
(2.1149 -0.794041 1.52379e-19)
(2.52468 -0.882635 1.30895e-20)
(2.38765 0.809681 0)
(1.74667 -0.207592 5.04067e-19)
(2.01031 0.00166332 -2.45942e-21)
(2.33036 0.476056 -8.41311e-21)
(1.27602 -0.687852 1.08811e-19)
(1.9028 0.19061 0)
(2.01648 0.0200582 0)
(0.83866 -0.175699 -4.27498e-19)
(1.4993 -0.493891 -1.89662e-19)
(1.9647 -0.205529 0)
(1.33233 -0.647193 -2.31088e-19)
(2.08804 0.000915689 3.1098e-21)
(2.02244 0.0114863 -1.34943e-21)
(0.848069 -0.403093 0)
(1.89849 0.00993491 1.0671e-20)
(1.99563 0.0252666 -1.13938e-20)
(2.43606 0.0340725 8.37422e-20)
(1.93261 -0.590985 0)
(-1.15886 -0.430639 -1.51411e-18)
(2.37103 0.140412 6.57055e-20)
(1.99961 0.069649 6.05533e-20)
(2.01261 -0.00272496 -7.55285e-21)
(2.62412 0.446857 0)
(1.71669 0.281129 -2.33308e-19)
(2.87221 -0.065556 -1.98359e-19)
(-2.56391 1.45151 2.86969e-19)
(2.01022 0.0387222 0)
(1.42055 -0.755811 -4.8592e-21)
(0.58407 -0.157591 0)
(2.01718 0.032534 -2.3504e-19)
(1.99648 0.059549 1.05917e-19)
(1.88983 0.0376175 -5.96137e-20)
(1.55999 -0.774057 0)
(2.16125 0.0111264 -2.91884e-20)
(1.18216 0.390263 8.06278e-19)
(2.31353 -0.748377 0)
(1.67311 0.0508352 3.31144e-19)
(2.55772 -0.586169 -6.22992e-20)
(2.13865 0.00390105 0)
(1.47948 -0.739441 2.36353e-20)
(1.75287 0.0281597 1.18027e-21)
(2.03658 -0.0174456 0)
(-1.57281 -0.311162 1.75243e-18)
(1.86262 0.206826 0)
(1.75567 -0.804848 2.36857e-19)
(1.54796 -0.744147 6.351e-20)
(2.02533 0.0127524 9.1359e-22)
(2.36565 0.0782503 -3.36403e-20)
(1.42274 0.232928 1.5542e-19)
(1.79606 -0.325301 -2.7398e-19)
(1.83675 -0.0163459 -6.02366e-21)
(1.79828 -0.814106 2.47464e-21)
(2.20653 -0.253223 1.12962e-19)
(2.62679 0.455832 1.79931e-19)
(1.88965 -0.843534 0)
(1.98912 0.0156422 -2.40342e-19)
(1.78694 0.882471 -6.1157e-19)
(1.4179 -0.107756 0)
(1.99975 0.028395 4.24947e-21)
(1.95093 -0.0114528 0)
(1.3059 -0.415956 6.65909e-19)
(2.13849 -0.799988 0)
(2.01702 0.00422652 -1.53901e-21)
(2.2736 -0.0887774 -1.95676e-19)
(1.48996 -0.72242 4.21675e-20)
(0.67517 -0.335442 1.10843e-19)
(2.32731 -0.0476412 -1.68086e-21)
(1.36139 -0.646502 2.04851e-19)
(1.83679 -0.549059 2.62872e-19)
(1.5364 -0.378961 0)
(0.662252 -0.345027 -5.44796e-20)
(2.36353 -0.6962 -4.21627e-20)
(0.71037 -0.364335 -6.45286e-20)
(2.01202 1.62074e-05 1.47549e-22)
(1.52561 -0.610948 0)
(2.14822 0.00967199 -1.13923e-21)
(0.768362 -0.351208 0)
(1.47703 -0.745265 1.52912e-22)
(1.35293 -0.552966 1.51565e-20)
(0.216474 -0.159147 0)
(2.10457 -0.56691 7.70167e-20)
(1.66102 -0.566299 0)
(2.8344 0.707724 0)
(1.52128 -0.720497 -3.12376e-19)
(1.52318 0.299038 2.35908e-19)
(1.58415 0.0558111 0)
(1.80924 0.171134 -1.4902e-19)
(2.61245 -0.963316 5.1868e-19)
(1.54368 -0.735845 1.44275e-19)
(2.93023 1.10278 0)
(2.11994 -0.0451963 0)
(1.30488 -0.763763 -1.00182e-19)
(1.89543 -0.134868 0)
(2.20121 0.0423578 0)
(1.39682 -1.14151 -7.92901e-21)
(2.09938 -0.419689 -3.70792e-19)
(1.79394 -0.45919 2.27266e-19)
(2.27174 -0.415886 1.84378e-20)
(0.621377 -0.307324 1.19142e-19)
(1.99157 0.0552142 1.20949e-19)
(1.57444 -0.405318 0)
(2.20161 0.38484 -3.44053e-20)
(1.46262 -0.250585 0)
(2.14881 0.0163306 0)
(1.98844 0.0979249 0)
(2.20065 0.154148 -1.0164e-20)
(1.89045 -0.0646991 2.18729e-19)
(2.04564 0.00545654 -7.1533e-21)
(1.61904 -0.407109 0)
(0.168385 -0.271764 -1.22084e-19)
(2.14969 0.961182 3.21325e-20)
(1.92591 -0.714067 2.49213e-20)
(1.94683 -0.0117363 -2.8485e-20)
(2.02585 -0.32677 1.65254e-19)
(2.03294 0.0513577 -2.02263e-19)
(0.141755 0.326642 0)
(2.39078 0.136113 0)
(1.50919 0.763907 0)
(1.28929 -0.595299 -4.77716e-19)
(1.52081 -0.623175 -4.69535e-20)
(0.398668 -0.0131414 0)
(2.21786 0.389953 0)
(2.57951 0.294198 4.13716e-20)
(2.05191 -0.0428335 -5.77579e-20)
(1.94867 0.554781 2.25939e-19)
(1.70056 -0.736332 0)
(0.666749 -0.935402 -4.88435e-20)
(2.28452 0.0655191 1.53287e-20)
(1.46712 -0.461434 -4.53739e-19)
(2.22425 0.0665741 -5.61913e-20)
(2.32087 0.478406 4.20023e-20)
(1.8718 -0.644719 6.47359e-20)
(1.28934 -0.600401 8.34189e-19)
(1.69997 -0.305081 4.2641e-20)
(2.06489 0.023937 2.9424e-21)
(1.99172 0.023002 -6.10524e-20)
(1.20784 -0.567338 -7.30779e-20)
(1.76678 0.0394241 -1.17434e-21)
(1.75105 1.9507 2.518e-20)
(1.35119 -0.646929 1.18947e-19)
(2.23721 0.137732 0)
(1.95995 0.323315 -8.41447e-21)
(2.15301 -0.047714 -2.00494e-19)
(2.90537 0.325827 1.27041e-19)
(1.43661 -0.428961 -4.13743e-19)
(1.91016 -0.686475 -2.71078e-19)
(2.07419 -0.026943 5.55404e-19)
(2.39452 -0.0719437 -3.16984e-19)
(2.24261 0.703899 3.37188e-22)
(2.50817 -0.212981 -1.33418e-19)
(1.22889 -0.211175 -9.04428e-19)
(2.12685 -0.000938341 -1.52034e-19)
(1.21357 -0.275745 0)
(1.52238 -0.711855 -9.23329e-20)
(1.95068 0.00671829 5.20178e-19)
(1.83476 -0.00885715 -1.77417e-21)
(-0.411367 1.49954 0)
(1.59305 -0.732901 0)
(2.0458 0.385016 1.96633e-19)
(1.09966 -0.205822 5.62514e-19)
(1.69185 -0.667525 -8.50599e-20)
(2.19328 -0.731582 -1.31292e-19)
(2.29713 -0.409725 3.14977e-19)
(3.10997 0.0712743 0)
(2.06347 0.4195 1.03591e-19)
(1.21589 -0.711842 1.9958e-22)
(2.58446 0.821964 1.44363e-19)
(1.99882 -0.288895 -3.25815e-19)
(0.768618 -0.380528 -1.94255e-19)
(2.01394 -0.310369 -1.61569e-19)
(2.09261 -0.376759 5.51725e-20)
(2.37794 1.0327 0)
(1.89167 -0.109024 -1.89641e-20)
(1.87641 0.0335016 5.48384e-20)
(2.00568 0.0029441 1.91259e-21)
(0.84287 -0.412754 7.65364e-19)
(1.98261 -0.291382 4.87868e-19)
(2.02005 0.0999549 -2.10594e-20)
(1.52832 -0.725489 -8.57948e-20)
(2.03639 -0.0564497 -6.08978e-20)
(2.21136 -0.00671315 1.35658e-19)
(1.20253 -1.14461 -2.36169e-20)
(2.48818 0.802121 -1.47812e-19)
(-1.64786 -0.102754 -1.90112e-18)
(0.985922 -0.483234 -2.53385e-19)
(2.01468 0.0016623 0)
(2.03123 0.0492902 -1.57855e-20)
(1.45036 -0.887671 -5.73186e-20)
(1.38552 -0.195707 8.22331e-19)
(2.0302 -0.000901736 0)
(2.80707 -0.159021 -5.68835e-20)
(1.2616 -0.548288 1.89271e-19)
(1.99354 0.0309873 -5.20364e-19)
(1.127 -0.526158 -9.72777e-20)
(1.5864 0.0657611 2.0548e-21)
(2.23539 -0.200709 1.91556e-19)
(2.25799 0.0540366 7.90815e-20)
(1.77496 -0.813808 -3.28104e-19)
(2.05569 0.0119048 1.03251e-20)
(1.54972 -0.633932 -1.12489e-19)
(2.13119 -0.0393818 1.88036e-19)
(2.05142 -0.0912106 -1.5727e-19)
(2.17033 0.0658569 -6.12575e-21)
(2.1512 -0.0104581 -3.4693e-19)
(1.19944 -0.552061 -3.65543e-19)
(2.05364 0.0264768 0)
(1.55944 -0.749815 6.29563e-20)
(2.07203 0.0250072 3.90228e-20)
(1.20078 -0.410387 -3.27548e-20)
(2.31842 0.0225245 -1.5971e-20)
(2.23983 -0.430926 -1.9391e-19)
(2.00182 0.0150341 -3.99746e-19)
(2.12139 0.298261 5.80565e-20)
(0.596024 -0.28628 -9.96221e-20)
(2.19008 0.0254362 0)
(1.95849 0.0896167 -1.47479e-20)
(2.30887 0.180388 6.65843e-20)
(1.53292 -0.596372 0)
(2.14562 0.0511206 1.0835e-19)
(2.26068 0.163835 8.23095e-20)
(2.18561 0.0185991 7.62698e-24)
(2.48408 -0.8293 2.44289e-21)
(1.88667 0.0135824 0)
(1.81778 0.328545 4.18972e-19)
(2.04463 0.0756322 2.23312e-20)
(1.32317 -0.639374 2.62782e-19)
(2.03136 -0.194011 0)
(1.51363 0.262768 -6.82838e-19)
(0.980953 -1.11717 2.33116e-19)
(2.68464 1.2792 -3.63677e-19)
(1.23879 -0.23432 8.78494e-19)
(2.09484 0.0178311 6.02319e-21)
(0.719597 -0.357369 8.82967e-20)
(1.9411 -0.115379 -3.4147e-19)
(2.16214 -0.333583 -1.5419e-19)
(1.79299 0.14026 -3.1534e-19)
(2.02173 0.0132972 0)
(1.99805 0.0376727 -2.30909e-19)
(0.0990063 -0.144706 2.37671e-19)
(-0.702804 -0.0153794 0)
(1.98102 -0.506465 0)
(2.02072 0.00658118 0)
(-2.50527 1.22928 0)
(2.06944 0.307392 0)
(1.16937 -0.203322 0)
(1.79596 -0.175235 -2.2365e-21)
(2.44111 -0.822096 -2.16182e-19)
(2.50435 0.167686 0)
(1.79649 0.329259 6.32993e-19)
(0.765634 0.404109 -2.96541e-19)
(2.07489 0.168098 5.32126e-21)
(1.4305 -0.950368 -3.21031e-20)
(1.17428 0.0203555 -2.27459e-21)
(0.740162 -0.34891 8.74722e-20)
(2.05355 0.0157025 -1.27615e-19)
(2.38616 -0.0690877 1.54599e-20)
(2.044 0.305501 -1.39356e-19)
(1.87567 0.204408 -4.20141e-19)
(2.07852 0.896186 -1.26321e-19)
(3.40794 0.532206 0)
(1.41529 -0.779501 1.70899e-20)
(1.32578 -0.430878 -7.29896e-19)
(2.00715 0.0135018 -7.15949e-19)
(2.37476 -0.704371 -2.3366e-19)
(2.04968 -0.0182542 5.4191e-20)
(2.69646 -0.661092 -3.75998e-21)
(2.15989 -0.325667 -4.23409e-20)
(2.11881 -0.555778 -2.66829e-19)
(2.0118 0.146783 1.55795e-19)
(2.90064 1.48921 0)
(1.84695 -0.00877997 -4.87636e-21)
(1.71333 0.0505966 -9.73396e-20)
(2.60619 -0.433997 0)
(1.90077 0.0517322 0)
(1.82892 -0.837979 -3.39904e-21)
(0.951525 -0.472468 9.3112e-20)
(1.77622 -0.181062 -4.18051e-20)
(1.93991 0.0263639 0)
(1.90008 -0.0771383 -4.48387e-19)
(1.83792 0.207694 -8.1508e-20)
(1.55002 -0.745702 3.77072e-20)
(2.22451 0.101703 4.20334e-20)
(0.717287 -0.337613 0)
(1.40422 -0.774487 2.10761e-20)
(2.2564 0.135109 0)
(1.88298 -0.116753 1.90425e-20)
(2.78337 0.0264917 -3.37668e-20)
(1.98932 0.0384306 -1.19377e-21)
(2.39645 0.518687 4.1823e-20)
(2.86877 0.971189 -3.96254e-20)
(1.78984 -0.527848 5.45926e-19)
(1.40761 -0.681711 0)
(1.61656 -0.500259 -7.14558e-20)
(1.26649 -0.172049 0)
(2.53825 0.130225 -4.44776e-20)
(1.54843 -0.751771 7.78853e-20)
(1.96237 -0.500075 9.91796e-20)
(1.95078 0.0786515 1.31422e-20)
(1.54854 -0.820735 -1.24419e-19)
(1.13513 -0.557938 -3.03496e-19)
(1.36597 -0.437103 -4.2262e-19)
(2.00433 0.0251827 -4.36153e-21)
(1.62312 -0.486024 5.86653e-20)
(1.24246 -0.568286 3.00713e-19)
(1.42153 -0.461473 4.64326e-19)
(1.51092 -0.623625 5.96358e-20)
(1.70536 -0.50265 -3.70612e-20)
(1.89909 -0.61144 2.70729e-19)
(2.19179 -0.59716 2.29128e-18)
(2.04135 -0.0130413 7.15624e-21)
(0.796867 0.260562 2.1973e-19)
(2.33367 0.303998 -1.89753e-20)
(2.31096 -0.582103 0)
(-2.46606 1.19472 -2.95563e-18)
(2.10046 -0.0317758 -2.45306e-19)
(1.9893 0.120008 0)
(2.51633 0.140833 0)
(1.48264 -0.466058 -5.27896e-20)
(2.22008 -0.484312 -1.64523e-19)
(2.36926 0.120713 3.623e-20)
(2.09436 -0.41068 4.85952e-19)
(2.05195 0.85948 1.20417e-19)
(1.62065 0.015127 3.56499e-19)
(1.55656 -0.752064 -7.71818e-22)
(1.83075 0.578104 0)
(1.45365 -0.489658 4.44713e-19)
(1.55631 -2.35632 1.75922e-19)
(1.55006 -0.805522 9.41599e-20)
(1.7836 -0.695718 8.99052e-20)
(1.4995 -0.678074 -5.31319e-20)
(2.00645 0.0095676 1.77109e-19)
(1.92614 0.0678496 -4.63007e-21)
(2.02737 -0.171464 1.09292e-19)
(1.5607 -0.754907 -5.36903e-20)
(2.35292 0.125972 -2.45243e-20)
(1.93924 0.068916 1.78382e-19)
(1.20858 -0.264362 -3.6107e-19)
(1.89773 -0.109638 2.78908e-19)
(2.18183 0.782929 0)
(2.39179 0.253803 -3.36897e-20)
(2.0071 0.0652653 3.96306e-20)
(1.52461 -0.348924 -1.42591e-19)
(2.0034 1.72367 7.64008e-20)
(1.86929 -0.598876 2.01668e-19)
(1.98205 -0.0204843 7.71713e-20)
(1.41527 0.0868248 -5.35046e-19)
(2.57556 -0.424696 0)
(1.94853 0.0791788 2.42687e-20)
(2.23114 0.0735626 7.6369e-20)
(1.91857 -0.0134566 0)
(1.44804 -0.00741473 3.06159e-19)
(2.22607 0.118446 0)
(1.88227 1.74304 2.35923e-21)
(2.36397 -0.0247942 0)
(1.84474 -0.0131549 0)
(2.37365 0.0505478 4.65915e-20)
(2.34204 0.104376 -3.28122e-21)
(2.63625 -0.119932 -2.69914e-19)
(1.91858 0.177678 -1.91124e-19)
(1.671 1.09695 -1.1988e-19)
(2.00905 0.06966 -7.35414e-20)
(2.09869 0.295683 0)
(3.07295 -1.83609 -1.28599e-19)
(2.39333 0.0720944 4.7889e-20)
(1.87775 -0.0879443 -3.86215e-20)
(2.30931 -0.575115 0)
(2.93013 0.312267 1.91739e-19)
(2.3549 1.5507 2.23266e-20)
(2.03625 0.0163963 2.4169e-20)
(1.72697 -0.834407 0)
(1.46015 -1.13206 1.36333e-19)
(2.0598 0.136651 0)
(2.04069 -0.154952 -5.5894e-20)
(0.473912 -0.15877 0)
(3.1528 -1.24889 0)
(1.68574 -0.326582 0)
(2.09543 -0.79498 0)
(0.913448 -1.53574 -3.95658e-20)
(1.57097 -0.759846 -1.78348e-20)
(1.89165 -0.0727151 -3.2811e-19)
(1.49961 -0.729317 -5.20974e-20)
(1.32081 -0.591698 0)
(1.53255 -0.702784 -3.69658e-20)
(0.0266727 0.391406 -2.07913e-18)
(1.54742 -0.730836 0)
(1.53179 -0.560128 -4.74644e-19)
(2.00574 0.0584791 4.57866e-21)
(2.3191 0.293878 3.99011e-20)
(2.47333 -0.839013 4.7233e-20)
(1.83654 0.191257 0)
(2.26312 -0.729939 0)
(2.95356 -0.39263 1.53194e-19)
(1.79928 0.0485228 -4.63225e-22)
(1.99001 0.031802 9.65299e-21)
(1.4686 -0.453695 2.45529e-21)
(1.99903 0.0138021 1.71636e-20)
(2.03483 0.0571834 1.89884e-21)
(2.02144 0.155112 2.23611e-19)
(1.96375 0.0812491 -1.38282e-20)
(1.93931 -0.549973 0)
(-0.141147 -0.541265 0)
(2.05903 0.0201783 0)
(1.98946 -0.00951773 0)
(1.77213 -0.345724 2.01413e-19)
(2.38502 -0.148413 0)
(1.258 -1.36939 3.46734e-19)
(1.83093 -0.654874 -5.04278e-21)
(1.39271 -0.479899 -6.97422e-19)
(0.728052 0.463258 1.90638e-19)
(1.56562 -0.743485 -3.50967e-20)
(1.42783 -1.63962 -2.35127e-19)
(1.97131 0.00105215 6.13989e-20)
(1.56495 -0.759066 -5.27932e-20)
(1.97068 0.0790326 -2.32374e-20)
(2.35688 0.0403751 0)
(2.41529 -0.384174 0)
(1.6323 0.564046 0)
(2.23273 -0.448792 1.02407e-19)
(1.69124 -0.541166 0)
(1.86234 0.58243 0)
(1.9952 0.00753666 0)
(1.81419 -0.462573 2.12001e-19)
(2.07166 0.172952 -2.03451e-19)
(1.9766 0.0156587 0)
(1.8288 -0.190317 -4.49696e-20)
(1.98072 0.168939 -2.21769e-19)
(2.57165 0.727627 -3.00516e-19)
(1.59113 -0.747118 2.82346e-19)
(1.95153 0.621158 -1.53972e-22)
(1.7057 0.00226534 5.41338e-23)
(1.89406 0.0783546 -7.00261e-21)
(1.8167 -0.0494722 -1.07491e-20)
(2.3426 0.105651 7.19815e-21)
(1.98981 0.0285863 2.04245e-20)
(1.8284 0.0682958 -3.09017e-19)
(2.11982 -0.0268399 0)
(1.33557 -0.483409 2.58185e-20)
(1.9499 0.0685076 3.19968e-19)
(1.16751 -0.743367 1.07398e-19)
(2.15269 -0.30924 -1.23555e-19)
(1.12872 -0.225367 -6.13581e-19)
(2.3359 0.105123 -1.67228e-21)
(2.90285 -0.0512379 2.85446e-19)
(2.00825 0.0984918 0)
(2.00457 0.374412 -2.10772e-20)
(1.94184 0.0461139 3.79014e-21)
(1.80553 -0.0575244 2.68652e-20)
(1.35332 -0.729736 -1.24764e-19)
(1.98626 0.00505464 1.68428e-19)
(2.05187 0.0229347 -3.16495e-21)
(2.03115 0.00883078 -2.91397e-21)
(2.06211 0.00558855 0)
(2.03354 -0.330304 0)
(1.40338 -0.676331 3.45289e-19)
(0.992894 -0.466704 1.04321e-19)
(2.0386 -0.001741 1.19912e-22)
(1.96457 0.0752088 6.39326e-19)
(2.00677 0.400977 6.25514e-20)
(1.48546 0.241452 0)
(1.80819 0.0914886 0)
(1.65461 -0.392752 -3.02159e-21)
(2.34719 -0.00650435 7.26815e-20)
(2.00183 0.591664 2.94709e-19)
(2.5268 -0.039213 0)
(2.0478 0.0243527 0)
(2.14636 -0.624969 3.65047e-19)
(1.99941 -0.181925 2.62901e-19)
(0.162171 -0.0831096 -2.48956e-20)
(1.88416 -0.0136863 0)
(3.3478 -1.28137 2.3243e-19)
(1.87484 -0.28379 -1.99697e-20)
(1.45314 -0.862329 -7.39152e-20)
(1.98553 -0.0458182 -3.59564e-19)
(2.48537 -0.761444 0)
(2.24174 -0.50479 1.30148e-19)
(1.75474 -0.807398 -1.15996e-19)
(0.028974 -0.00273354 0)
(1.9838 0.00318774 2.06853e-20)
(1.92094 0.133703 -2.07295e-19)
(1.98806 0.00655599 1.98809e-23)
(2.80402 -0.0863956 1.51234e-20)
(2.06536 1.63692 6.28118e-19)
(1.89932 0.0446605 0)
(1.12326 -0.436713 -4.22042e-21)
(2.01944 0.431208 -5.63608e-20)
(1.96303 -1.12499 -2.8337e-19)
(2.0751 0.307773 1.65394e-19)
(1.37712 -0.682738 3.58794e-20)
(1.97669 -0.000912931 -7.92915e-19)
(2.0296 0.101256 1.1592e-20)
(1.90722 0.0862906 -1.28238e-20)
(1.78179 -0.430689 0)
(1.91877 0.0169965 3.45568e-21)
(1.16516 -0.551772 2.40103e-19)
(2.2298 -0.0952184 -3.79193e-19)
(2.00536 0.0629916 -2.88475e-19)
(2.02721 -0.138433 5.13779e-20)
(1.70207 -0.200229 7.38441e-19)
(2.06617 -0.0117194 -8.06019e-21)
(1.79563 0.0872589 1.79581e-19)
(2.00106 0.0204153 1.53062e-20)
(2.29922 -0.424766 -2.14025e-19)
(2.53756 0.851663 -2.22233e-19)
(1.709 -0.677985 6.65544e-20)
(2.01158 -0.0104008 0)
(1.77604 0.399145 0)
(1.11819 -0.22045 0)
(1.38797 -0.443336 5.39867e-19)
(2.1626 0.0761602 -4.65442e-19)
(1.82338 0.22166 0)
(1.56717 -0.364601 -4.23531e-19)
(1.81474 0.187796 0)
(1.77593 -0.314869 -3.30916e-19)
(1.86931 -0.1017 -3.93218e-20)
(1.91353 -0.519808 -2.98007e-19)
(1.9752 0.0488618 0)
(1.95019 0.0557659 0)
(1.9245 -0.00431211 2.34538e-20)
(2.46924 0.127153 4.57441e-21)
(2.32248 -0.0796363 1.05066e-19)
(2.57029 1.64282 -1.08308e-20)
(2.65339 -0.0732771 0)
(1.79124 -0.677026 -1.51464e-19)