/*--------------------------------*- C++ -*----------------------------------*\
| =========                 |                                                 |
| \\      /  F ield         | OpenFOAM: The Open Source CFD Toolbox           |
|  \\    /   O peration     | Version:  2306                                  |
|   \\  /    A nd           | Website:  www.openfoam.com                      |
|    \\/     M anipulation  |                                                 |
\*---------------------------------------------------------------------------*/
FoamFile
{
    version     2.0;
    format      ascii;
    arch        "LSB;label=32;scalar=64";
    class       volScalarField;
    location    "1";
    object      p;
}
// * * * * * * * * * * * * * * * * * * * * * * * * * * * * * * * * * * * * * //

dimensions      [0 2 -2 0 0 0 0];

internalField   nonuniform List<scalar> 
13486
(
35.9582
27.6276
1.52992
-5.17061
12.4735
-6.31554
5.60149
20.7905
24.4877
11.3945
-86.9684
4.99852
38.1318
-7.21653
9.03493
12.0641
-159.72
-1.69548
6.80707
32.0632
-5.07429
37.7722
26.9774
-19.8034
9.40109
-18.6504
-88.487
-12.7243
-0.00402281
-10.5568
-3.98517
6.03862
-25.0108
-7.97333
20.7931
-0.00481566
0.00362672
29.9171
-1.45847
24.0717
4.38812
39.7583
0.669346
9.85596
9.60832
4.69554
-239.866
-0.103026
-0.0273494
-15.0056
19.001
-1.91613
1.94031
30.3229
-1.83878
13.0423
0.657913
-1.85203
-23.5272
0.183438
-55.878
0.162795
-78.5098
-4.83482
-9.58436
0.0458581
-5.93615
35.6706
24.3763
-0.581778
-5.89648
-2.949
24.2771
-83.5536
0.10958
0.719999
0.188983
8.86273
-261.383
-3.82817
0.084593
27.5354
-86.5651
1.94306
36.1369
5.66489
-6.20491
17.9552
22.5497
13.3426
3.2322
18.1261
34.5473
30.0978
25.7143
0.0169732
-81.9606
-5.72968
23.9538
-174.443
0.0482132
-5.99143
-5.81241
-1.76893
13.4345
-181.234
22.6271
-1.59222
-266.042
17.2677
24.6053
5.33724
30.2532
0.463222
42.3498
24.8149
9.93491
-7.62603
24.4039
-0.101476
-2.33599
-56.2612
26.8716
-1.54689
23.8551
-1.68612
17.2972
3.08271
-6.56455
-8.6451
-1.46627
-235.97
-50.7211
-82.8531
20.9532
17.972
38.5723
17.6349
-0.0776439
21.2066
-21.4616
1.96524
5.71989
-3.74604
0.904483
-63.9229
-2.3851
30.6046
-16.01
0.202385
11.3665
8.80912
0.0447772
28.5627
4.10768
1.67482
14.2963
0.321058
27.1342
0.770581
-12.8109
27.1113
1.66269
39.4241
-1.79586
-12.246
-3.1766
48.7709
-1.13875
-83.0367
-59.8249
4.23123
14.742
12.7302
0.0139048
-9.77323
-11.0486
-26.1428
22.8799
5.85181
22.953
0.627399
9.71612
-8.49821
1.99767
-12.9816
0.0192615
-9.91468
5.47414
26.5405
-0.0225668
1.09908
-2.2877
30.7254
-2.61265
-87.9616
-8.78646
-12.7081
33.2137
-9.95334
-4.14778
2.84526
29.9034
11.9426
0.646927
-2.76785
-2.10337
25.8946
-2.1432
2.14401
-11.2385
-13.7936
31.5916
22.7654
-6.17781
-5.87541
-11.3427
13.8423
32.7845
-39.7808
-170.665
-16.3772
21.6734
-13.0754
-0.317978
35.6027
-10.7535
-6.27724
-5.12545
-4.2071
22.6076
-11.0634
-22.2586
40.6392
-5.74642
34.343
-8.57399
1.25979
34.7103
10.0428
-24.0506
14.3166
0.618407
32.799
-1.0836
26.6153
10.4371
-14.6551
-90.7673
11.6408
-6.29095
42.71
23.5944
-1.73729
-3.88279
-11.1318
5.82261
-5.86301
-0.336937
-23.7217
25.2162
-0.912736
8.89012
-10.3781
13.8908
-9.38543
-5.03473
-4.53062
22.6616
-4.87754
22.9257
22.1429
-11.7092
3.07564
35.7176
-14.1306
-4.00112
-4.53018
-1.83149
-3.18479
-4.91126
19.8801
23.2743
-32.7087
-46.0853
-161.159
-23.4429
-7.03955
-0.211429
22.7956
-5.65939
-0.0617084
26.2009
20.236
-8.17496
-9.15713
-12.7209
2.91971
23.854
5.2013
1.07675
-2.01541
-1.7705
6.49691
-0.183252
10.6621
1.07007
10.852
-3.40137
-0.016696
-61.3664
-5.16936
-6.44886
5.41842
-64.4753
18.105
0.0261294
22.7148
25.8866
-5.47137
-0.0135587
-0.236506
22.4909
30.2615
40.7783
3.60036
15.2995
19.5092
1.85406
14.3428
18.2085
17.4461
2.19093
32.4496
5.02625
24.3049
44.3139
9.33309
12.7287
-0.908551
-5.25478
29.8812
13.9424
10.0599
-10.4689
0.0284747
15.899
42.6242
-39.8828
-0.0965695
15.3507
1.93496
2.94004
-65.9048
23.6555
0.126929
-81.2767
17.0083
-2.86202
-13.3949
7.70587
2.03815
25.7212
22.3026
-11.116
0.0689025
-8.84734
-200.539
32.4159
17.2556
0.350645
16.1405
-0.525203
-6.5441
-4.92802
19.3027
22.4762
-0.446861
-62.1205
-54.1626
22.3184
16.9183
37.8185
23.7946
-208.98
-4.21717
-1.13292
12.2649
-105.376
-3.19793
31.0132
-12.4385
7.72939
34.5905
34.8431
-0.211282
-5.64391
-6.11834
-126.696
-23.7253
-112.658
2.48272
21.2158
-4.64943
5.72
-31.5324
29.8237
-25.3144
16.9203
26.0695
11.7033
-19.7749
-13.9004
23.7173
22.6862
27.9147
-7.13831
14.3501
-66.9871
10.4084
22.9553
2.39019
42.7097
13.2869
-11.9135
-9.43929
2.58618
23.0723
-96.0707
-1.96916
37.4252
20.9883
7.30307
-0.708606
11.7599
-15.813
37.5166
-0.0912551
13.0158
35.0579
-187.365
-11.9925
-80.3516
-13.8222
-1.02626
28.4606
27.1745
37.5118
-53.0737
-0.155371
-12.3729
13.3661
22.9942
-14.8123
-22.814
21.9746
-5.29213
-9.77925
-32.5901
-58.0482
-4.95572
30.1227
-0.0631916
-1.30502
-5.28566
21.712
-0.00660697
46.2097
35.1155
24.1826
19.9541
0.0112901
0.0339727
44.1009
-4.06843
-0.06963
-11.9535
24.4766
-164.105
2.50009
15.1055
-0.403001
-14.1552
26.5476
-34.2029
-141.307
14.0809
-3.21834
48.3335
14.649
19.6504
25.2623
-9.88491
2.52669
38.1535
12.5441
30.6283
5.69996
4.29859
-4.69647
-3.57441
0.618333
-192.668
23.3388
24.5414
-6.43358
-0.0073902
-7.0297
35.228
28.624
-4.21826
24.9648
17.5839
-13.7357
14.3364
19.4846
-66.1613
37.0715
0.0801696
-0.599055
39.322
17.2857
-0.171867
15.5635
-5.11748
-5.43454
8.45113
16.2409
27.1007
34.7407
-22.8467
11.5642
-24.3466
-0.00504506
34.0355
4.50856
-7.7139
-6.0263
2.59142
0.0775336
19.7341
-9.08895
-22.5878
24.9753
32.0666
-4.23702
25.1591
-66.2415
-7.16974
-31.2008
7.25459
-16.5636
26.1031
2.29262
-48.7021
20.6501
28.4799
-23.3265
-19.341
19.6397
33.7542
5.0432
36.1981
2.51994
14.1869
2.73655
25.9571
0.363347
32.8877
-72.0551
3.48795
23.8097
-5.98851
-13.0844
22.6542
-175.383
3.18198
27.6503
37.8509
-5.86987
-2.98841
4.16243
0.596342
21.1595
15.0099
9.1097
-64.0086
-2.1644
35.9545
1.49183
-1.02078
-16.6885
37.9592
-7.09863
0.621732
21.5172
19.118
-3.55986
-9.91419
21.4708
1.85072
-10.2272
6.55181
-27.279
36.7242
24.3803
16.6249
17.0627
-10.6713
-23.8758
41.0708
5.08872
41.211
-6.01263
22.3574
-0.166579
-85.7112
16.0913
11.465
43.057
-11.5207
16.3106
14.8974
-42.0087
11.1098
-1.70655
-12.4539
23.5763
-18.3059
-12.6053
-16.283
-5.76421
-6.65287
25.0034
0.0297565
40.3074
23.883
0.635555
-6.50073
-10.8403
5.13865
-49.428
-8.56068
-183.719
34.1441
0.0062517
0.746903
-18.8787
38.0418
0.0546882
-0.633936
39.4409
19.2111
-6.1494
-4.10663
16.6959
-0.541076
23.8422
0.611325
-6.67665
6.6451
21.7427
4.66219
19.4387
39.9791
0.532777
-7.76134
22.4105
2.63707
-6.66706
16.6468
15.7809
8.09811
-6.70148
2.25855
-0.577493
1.69436
33.9355
4.60086
1.58376
2.02148
2.72924
-3.04967
23.3643
0.593961
23.0577
22.5281
32.7074
-2.46194
-21.5603
40.829
0.340465
-5.18929
24.7443
-16.8289
26.1492
0.79619
21.5337
-7.14162
-86.7553
-16.0982
0.0227311
-152.19
10.6379
41.9756
-6.43797
-48.39
-11.7827
23.7348
-4.46059
8.22062
-25.5903
41.2673
-6.02603
11.7871
-15.4873
11.7157
22.7401
6.93245
-48.7505
-4.5059
38.9241
22.1276
11.0982
20.9963
3.33942
18.7854
19.4359
12.0683
-70.5545
-3.88952
29.2677
5.21342
-1.97855
20.8337
-5.73214
-6.39552
-1.25613
25.4273
24.3913
-6.76472
1.98899
-5.54174
-4.69169
1.9619
-6.52602
2.29457
21.642
-3.59106
-26.2573
28.4261
-2.06392
-7.60337
-4.56357
-13.9906
-6.70294
-15.288
-0.752632
-13.1766
23.8838
38.1171
-0.203679
-7.64543
39.495
36.9468
-5.69804
-9.27308
25.3147
-183.87
0.610953
-4.05203
-1.89404
13.5298
-142.583
8.29898
14.2472
-12.8331
-5.37543
-22.7779
-5.56066
20.8006
8.28447
15.0065
-7.1546
19.2187
36.0623
-218.707
-11.996
27.4976
9.99763
14.6856
-1.40429
-10.2804
-7.18506
-5.23976
23.4003
41.3504
25.9391
-5.30842
-5.13748
22.4974
34.9568
-9.48405
26.0533
23.1101
36.3346
5.70716
-0.610756
0.958667
-5.45963
35.7427
1.91626
0.149379
16.2682
-3.97177
5.21395
-4.54531
-25.3929
21.3529
19.5522
14.6745
9.28139
-180.571
-8.3697
-5.99339
13.4887
-28.5681
-16.6483
0.737905
-19.0023
-47.4143
10.5585
-10.4643
-91.3646
-127.022
-7.07705
18.4771
-107.018
-9.74662
26.2677
-5.29327
37.9893
-6.27618
-91.0407
29.0076
34.1765
0.292615
-1.30465
7.02346
23.4385
14.3669
-46.7748
-3.27317
-0.167629
-5.28341
21.7669
0.685656
12.1462
-0.33256
24.4978
-101.21
0.525434
0.276867
29.2849
-18.4356
-74.7774
-16.2698
37.5419
-3.3728
-8.04621
-118.505
22.9751
-7.70955
-0.114785
4.49941
11.0896
-8.189
16.736
-9.53271
18.4118
21.7985
28.0774
8.49932
-0.677231
-7.11594
16.3134
-11.7009
29.4339
15.0415
-3.94182
-1.64524
-4.53782
-3.98933
-0.162784
26.4208
6.99038
4.04163
22.4071
-2.77238
19.1294
42.6475
-4.66908
-35.1532
14.2796
-19.9679
-1.10646
-4.74293
-5.27344
23.175
0.538144
0.0441794
0.323432
-2.01554
31.5297
-5.82817
-0.0427269
22.8512
-27.6319
33.3504
26.6974
32.1971
4.75825
13.9549
6.16722
1.43813
18.3222
23.283
-5.72963
-6.42446
-124.396
-9.21442
-17.1145
23.445
-46.8684
-24.3823
-18.9204
-5.96563
0.154394
22.9592
0.236471
2.83067
-72.9769
22.5211
42.2679
-31.1725
-50.4807
11.4653
-1.9039
22.9274
0.676842
-1.23814
28.9173
-2.13373
40.0814
16.1441
22.4855
-10.1695
30.9459
0.639536
26.682
0.064967
-24.1549
-11.3827
-12.4139
15.9376
-10.4978
-0.77644
37.7302
22.1345
24.7772
34.1465
25.4081
29.1384
-6.10343
25.2556
22.4355
23.6484
-5.42548
-10.712
-15.1938
-22.9874
4.88779
27.4679
-88.3381
39.2114
-26.493
0.491965
40.87
34.1785
-6.12664
-14.6298
23.9225
10.2258
1.64702
22.6279
-83.5029
-12.7883
22.5077
33.3785
-1.20388
26.9863
30.598
-0.00788141
-12.2578
30.5746
9.69352
-0.135035
-46.4186
1.89817
-24.4939
20.912
15.5405
-0.0615078
-2.76945
-11.5172
5.26257
-1.05984
4.81316
34.5612
-1.51097
45.7442
23.4798
6.7235
26.5894
-6.52161
-67.7538
-7.26514
23.2503
-1.38357
-76.9222
-4.03757
9.21599
12.0432
-0.847617
18.0369
-160.236
12.4441
-4.88671
-0.341576
19.1404
6.27954
31.263
23.4859
24.1984
22.8827
-5.98528
-20.5203
-18.56
1.98622
-6.31183
-9.79658
18.7621
-4.86749
-0.824362
0.0605445
-0.259593
-25.6939
16.6871
9.11246
0.981722
-11.8816
10.8092
-16.3422
-16.8483
1.84068
-12.3012
26.9291
15.9319
31.4812
-79.7752
19.8534
0.546201
33.3259
-4.40335
10.1634
-2.66508
-6.0751
39.0588
39.6057
19.3516
13.8904
14.8581
22.2214
39.6379
16.6475
-23.2717
-21.8367
3.59562
-25.0095
-185.629
22.3903
23.1245
-12.5334
7.42861
20.6511
21.6338
43.2376
-53.5912
17.0904
-134.737
-23.2104
33.9642
-4.31186
19.9226
-5.06284
3.06731
8.26219
44.8735
-1.03333
-14.936
9.62554
2.21046
-13.7939
-82.6969
-1.63095
25.6449
0.364353
13.9019
36.7996
33.4124
-2.97586
-49.7212
-0.881962
1.34562
28.6739
22.3022
33.7098
13.8667
-113.772
35.434
22.3156
-43.4542
18.684
23.5694
30.5846
-50.3258
-5.4328
0.024468
18.3806
39.0006
11.6916
-1.59273
-24.4527
43.3241
-190.078
-21.6989
40.4899
19.3285
-24.9562
18.85
-5.75002
13.4445
-8.27416
-177.139
-0.866495
-7.74261
-1.46745
-6.99427
-182.829
-151.813
-121.207
4.78856
-117.053
-6.22842
17.9155
20.7417
13.8727
-174.417
5.39755
0.843718
-6.55035
45.3868
16.0994
-16.6878
19.5765
-8.22646
-8.2773
20.375
20.2837
22.6542
45.8372
0.0468546
-4.01969
-19.4578
1.93209
16.5643
24.2284
-12.4208
35.9391
14.7943
24.5623
-4.81731
-3.34932
0.919342
25.13
22.689
26.3028
22.7446
41.7691
41.6365
-8.51926
19.208
30.1828
-16.2757
33.9389
-1.19771
41.0569
33.7491
-1.34714
26.2397
9.74928
18.503
1.31283
23.2167
-20.104
20.6027
8.82888
16.7788
-6.00326
22.8631
-0.693142
4.64107
39.6729
39.568
15.9084
-83.697
4.99649
3.62978
-3.89463
17.3133
35.3629
-85.6657
23.7671
23.1204
10.9752
24.8797
-11.7644
-5.11852
-0.0379709
42.5459
6.5848
-0.468823
26.706
-6.18497
0.71384
9.50468
3.33009
16.6171
10.9588
-10.2882
13.6341
19.6592
16.3009
18.2651
41.6001
33.7772
30.3902
29.597
39.2352
11.1262
-1.33393
-2.05686
-30.138
39.0006
-4.95731
23.6082
21.5971
-6.70114
12.5555
26.0852
-13.6897
11.2648
13.3597
46.3967
-59.1079
9.65249
-23.9458
27.9263
1.68984
-5.79167
38.4405
32.9098
23.2501
23.1859
-8.92916
11.5077
-200.007
41.4947
0.161089
44.5464
-2.14352
-1.348
-101.502
14.086
-83.7403
1.7864
-2.02211
5.66521
-7.02861
5.6138
-6.00932
0.0712281
-6.09511
-78.7557
-12.8576
-51.4154
-8.88162
-2.98877
-5.56141
-45.296
24.9691
25.4153
30.0275
22.0831
8.95139
8.5157
48.2548
22.9597
-112.026
-0.0852981
-5.2468
16.66
20.8416
35.9534
-22.3743
-22.3078
20.2457
-0.0687
4.78276
29.2647
-86.7718
-9.1513
-197.446
42.0366
-5.86648
16.4036
30.3896
-1.55141
18.8637
-0.891903
-54.2973
-36.7107
0.625621
14.3257
28.6819
29.8381
-52.9061
-76.8099
16.6162
-267.785
-10.4917
-6.18073
3.08103
-7.79223
-2.09565
-6.06361
-52.6507
-20.1649
37.0245
-5.16924
40.2019
-16.8755
-5.12843
8.43113
-4.86518
34.3353
24.2364
27.7353
-17.1952
-8.33809
-62.1148
33.4787
-74.059
15.6696
-0.553494
28.0204
33.9911
-0.744924
23.0741
38.7151
26.4849
25.2439
-52.6333
-2.82447
9.21559
-16.0387
-1.97131
14.6977
18.076
1.78675
-89.9312
4.76095
0.693998
21.3283
18.3444
-11.6418
40.9092
2.13809
0.0209515
2.15624
21.8998
-9.20076
0.0713631
26.0406
-16.5622
1.68549
-7.66723
25.8783
22.075
20.9706
-2.36237
21.0853
26.6866
27.003
-8.15061
0.658014
2.84757
20.4787
-23.636
-90.5546
-7.80649
-38.0182
-5.61103
-0.115977
-1.7995
0.592288
-97.2011
-16.7757
-29.7272
0.699186
-8.25451
6.37066
-16.4532
24.6452
48.8572
5.71861
-6.09305
8.38276
-0.0568934
4.91299
0.309878
-10.0075
-17.2466
2.7573
31.7812
0.0350545
38.1096
0.150353
20.408
19.8599
9.82527
-114.865
15.3788
41.6036
-5.59467
22.2633
21.4568
35.8074
2.42107
32.7809
26.2756
-92.5322
27.8731
-66.7784
-203.172
33.737
19.3863
-46.5321
-1.42661
30.6057
3.41076
-11.577
0.7035
0.374704
17.0951
10.3878
22.968
22.7469
20.0292
-53.0543
-13.2759
-7.7227
22.2818
44.7251
-10.8992
-208.831
-108.459
24.6927
2.24403
2.46601
11.3642
-0.799645
18.6792
-6.48154
4.8898
36.6626
7.90094
-3.35492
-4.31497
-5.58279
-15.425
-145.998
-20.0899
-9.98813
27.4744
10.3411
-14.0831
37.4726
-0.0514707
-45.2499
-6.45706
-204.442
25.9783
-71.0935
5.39699
23.9073
-2.70696
-8.58796
-4.70724
-117.651
-5.75477
24.9983
-30.0947
-0.922218
-193.919
21.5119
25.0039
-5.71749
30.0427
27.9303
36.7514
37.3805
26.8378
2.89126
42.0483
-211.029
23.3905
5.31619
-27.819
28.0462
-7.20451
36.1417
9.29638
-31.6916
-128.885
-198.079
24.5127
-7.92062
-8.13759
-0.353029
-22.2469
-2.61656
12.5559
1.94739
17.6766
41.9948
-89.9104
-18.508
-16.1728
25.4877
16.5931
-13.2832
48.4769
-1.1322
0.641683
13.6444
-28.2562
20.9871
24.6532
27.4679
28.2638
-2.4535
13.0492
22.6183
4.3952
-15.6631
-0.069421
26.3809
26.3798
33.3798
-5.3739
1.65417
13.3972
12.2227
1.41507
-25.3552
18.1559
-5.68456
19.3519
23.4437
-155.76
38.2452
-13.0401
40.5808
27.6273
-22.4431
0.0747046
0.0583351
7.53951
24.2112
-16.1933
32.5848
21.159
13.0243
0.599596
4.30962
-8.63016
13.0128
-175.953
15.2925
-5.55635
22.026
-83.2248
-0.391261
-7.65145
28.8408
34.7975
9.7761
-80.8884
9.60193
-3.32733
1.87965
11.3475
-5.9024
-5.06024
40.3268
-16.1933
-4.04115
-19.3114
-175.217
-2.94506
22.2386
-165.957
-6.63859
24.0349
15.2713
25.0392
-5.27816
9.9921
40.5011
-53.3579
21.9348
6.59843
-6.40267
5.28187
4.45585
-11.4637
41.3329
27.4959
-33.2799
39.6159
31.1993
28.656
-274.216
-92.7713
16.8297
-34.9086
-2.97479
-59.9405
-31.628
-54.8237
18.7214
8.57182
14.6167
16.0322
-3.94899
18.6673
22.0835
-153.473
25.7854
12.7814
22.2104
-3.3481
0.446437
-5.73305
-154.901
-5.45714
-7.70925
21.6
-27.2411
37.3397
-6.47948
21.4575
15.5556
0.0805968
4.6328
24.1477
8.91014
3.06701
21.4385
-0.299143
-2.35725
35.2144
27.1793
-13.7087
-42.2946
-0.755207
19.5134
-2.34296
11.5099
-49.5598
-2.34568
-3.40177
-0.142762
20.4387
20.8124
-1.98993
8.64761
-3.14117
-0.83257
-22.6917
28.5589
-5.36448
22.9973
0.0230172
19.125
24.8883
11.4897
22.2114
-1.09266
-6.08519
0.0888432
-52.0195
-7.2949
-13.0266
-5.11758
-5.12942
17.1418
-3.78526
21.7079
-2.28749
-1.24751
-47.0747
-1.11171
24.5802
-41.125
22.9509
5.18233
-17.13
-0.582893
-5.74729
16.2457
22.7117
-0.700296
3.49007
-67.9303
28.5613
1.26802
6.34609
-10.1513
29.7419
10.9801
0.0153565
24.9184
24.7805
28.8588
5.0145
28.4578
-52.5077
0.564569
-4.90705
23.7169
13.2321
5.4553
1.83635
-23.7953
-12.2438
13.1436
1.37582
-14.7734
38.2835
-57.5796
28.659
16.6949
-8.13555
-1.28524
0.789837
-3.00379
-0.00408815
2.42654
20.9449
-0.058502
22.4166
-49.3158
11.5919
-4.41353
5.67473
-25.0708
30.3017
40.6509
25.5376
14.2889
6.01771
13.9741
-97.8138
-0.63899
-1.3925
-3.75118
-14.46
-26.065
-24.6036
-13.6036
21.1333
24.1046
-74.8992
5.0655
26.1272
-14.6524
-41.3259
24.8761
-1.44371
-61.407
0.616151
-7.41531
0.0594692
37.848
-1.36303
23.1558
-29.6108
-18.6979
-14.4648
23.3559
5.99762
19.6791
-23.559
-17.8414
0.959118
4.15337
26.5974
20.6795
2.05627
-4.36926
-8.1933
42.462
-5.33327
27.1261
30.3296
-4.37063
-1.94452
10.2043
-111.754
-35.0346
19.2215
11.8636
22.6956
-7.9516
25.0359
0.113868
33.4407
4.45144
19.9712
29.6796
18.222
2.83549
-6.38972
5.27786
-186.078
21.1112
8.6892
28.7009
-0.40451
36.4937
3.14958
39.1879
-6.05411
30.4988
-6.06006
17.4594
-74.3865
21.531
10.7651
7.97896
35.1478
22.6127
4.48773
-13.2067
12.9236
20.8556
-0.992592
-129.826
16.656
0.469469
30.7469
-4.87985
37.3242
3.42485
48.4175
37.064
18.1513
16.8069
-72.8507
-1.0695
39.9229
-1.21898
-3.55715
-3.34015
38.8036
9.87545
20.3286
31.6724
-19.4497
25.2668
-6.46481
28.6414
0.691745
27.3431
23.888
33.8162
-1.37507
-257.869
6.03618
-5.75812
10.4874
5.3267
-0.477096
29.7546
34.7819
0.226984
8.57436
-5.74748
31.8229
19.0919
21.8109
12.6588
-4.95286
-61.0051
-5.11027
23.323
-48.0226
-2.76226
-2.92504
17.072
10.639
-14.3753
41.7628
-3.9065
37.2745
8.1923
37.5442
-9.85927
4.97395
0.122201
0.74688
19.9281
21.9943
-2.61467
-2.75978
-4.75201
-2.67953
35.1743
-10.5888
-2.31775
-5.26027
-3.14244
9.37029
29.6074
12.0284
0.558226
0.0850205
22.3608
44.7435
-5.61452
1.07115
23.34
-0.391363
9.5379
-0.610324
17.8099
-2.73403
-129.751
-4.59788
-5.54466
-4.77382
-3.98971
-48.4355
-11.6574
-2.95349
17.4346
24.9453
19.0043
43.6029
-66.1997
38.3054
-63.3438
36.9751
-16.1279
-21.0484
42.1664
7.70297
-7.29347
24.3395
-1.6254
26.5509
-8.19903
-183.074
3.23404
-12.4973
-14.5248
0.0585945
-4.25677
6.86475
30.2349
-20.7226
7.87644
-48.9699
4.88433
-4.48214
-0.93516
2.57856
-3.78203
-37.9886
29.3678
-0.575816
33.7438
8.34076
-47
5.6605
-25.6285
0.186353
18.8592
29.5973
42.87
16.5445
19.065
11.7039
-89.5926
41.5129
45.0254
25.065
-18.3915
-7.70044
-186.813
21.9676
15.883
8.08955
17.9197
-4.29596
-0.70177
-145.62
34.7178
-2.18359
0.386677
-5.96886
23.2213
2.70465
47.645
44.7123
20.8966
-1.31769
6.36721
-58.877
7.4042
45.6569
3.48014
0.211494
17.8376
0.169665
3.18486
-6.27266
-9.44507
4.58607
1.06796
10.0218
0.133349
5.27017
33.3799
8.8739
24.8201
-6.2829
-10.3472
40.7589
-38.5388
3.77093
7.0141
8.04142
1.21198
-5.68999
5.40899
0.577668
1.19174
47.5708
-111.348
-62.4065
-16.1076
-19.2013
2.7877
7.48556
-5.78142
-48.5078
-0.0151974
-76.8182
-23.471
-15.9975
1.82462
1.09957
-0.200561
47.1563
-0.313689
6.01309
-4.88519
2.31379
-81.0206
-7.78729
32.3893
22.9848
6.20716
-3.32686
22.4185
24.7434
-0.2046
-22.5705
-1.07443
32.0675
-14.219
20.3376
-1.31355
36.8154
0.347517
-6.64045
-1.21614
25.2984
-11.3145
19.7889
-19.8166
45.7187
-5.78111
-8.16413
-103.492
8.85719
-5.88016
-20.9868
-5.85146
2.32425
12.1873
-8.76231
-4.64753
-2.61676
2.43022
-12.3466
-23.3678
18.6643
-218.006
20.6386
-6.02534
25.5545
41.3139
22.6249
-92.3753
24.337
2.3306
3.41171
-2.9912
-11.2162
-165.874
-0.859954
-8.36912
11.9911
-2.71139
-19.7308
0.653216
-65.4498
11.4069
22.7655
-25.0249
-5.58435
-11.2082
-0.147698
-2.9958
13.9139
-52.8708
-5.98408
22.7911
-2.51415
14.927
-22.2623
-85.3305
-20.191
-64.6642
45.7814
6.80731
-16.5858
4.74812
38.8856
40.8757
-7.07483
-6.6615
22.3441
-0.734115
-1.27781
39.7099
12.5543
21.7098
48.1976
-10.5927
8.24013
1.34347
35.4077
23.6526
25.0444
29.3331
15.3265
0.370193
1.33827
8.92448
4.40683
-131.714
41.0114
-13.867
-16.18
0.273921
-12.3979
11.3392
-5.97921
-7.19491
4.15964
25.0195
24.7893
27.8324
-109.342
34.8306
39.9951
-60.9792
14.6463
-4.02771
-4.55754
3.73369
11.9132
-5.49267
-15.0303
-29.648
44.6347
-75.0508
27.7881
23.426
32.2957
18.4947
18.3627
-3.09658
0.333519
15.1957
-1.65232
-208.802
-43.7422
1.63759
-5.57274
29.2404
-8.68868
-0.301689
2.34693
-75.533
-6.30427
-178.625
20.3772
-6.58904
-2.52456
7.74476
-19.0055
7.71765
-78.443
-3.8913
25.0426
-51.4031
40.9262
0.115037
42.8176
-0.0254145
-1.85344
3.28684
19.211
20.3962
-64.7054
-3.62431
-7.89182
2.60569
16.9097
48.6094
32.3245
7.96404
-13.9322
12.6897
-2.97433
27.8527
-4.08475
11.9485
-5.35177
-5.86797
-82.1942
10.0542
0.402247
-78.8844
13.2458
15.1689
39.7098
42.2446
-148.842
-161.427
-4.3613
-27.4633
41.791
2.42619
-13.1073
7.67242
15.5529
-5.35254
1.7159
-0.599756
-1.47022
22.4079
-4.71182
7.52156
-35.914
-20.7547
-56.2418
-9.52508
-56.7349
-51.1844
26.6004
-7.68271
-6.28898
-7.03684
-1.13904
45.1105
18.7293
21.0287
-7.34627
11.8609
-3.76087
9.75704
4.71167
-5.57718
-107.115
41.7004
24.6259
-3.0509
-93.22
46.926
-6.2844
-61.4668
-5.14888
12.7539
-6.06504
-5.1352
35.5263
-4.39472
22.0961
7.22112
-5.56792
1.50076
-3.13286
10.8405
-58.1463
-2.31057
5.35971
23.2347
-5.82453
-46.2314
2.10074
-9.2899
-30.2312
-28.7654
44.054
13.7327
-17.0222
12.2259
3.53706
38.7291
13.5982
-119.887
14.7478
29.7426
26.7086
-12.8274
20.0653
-3.00806
41.3982
0.288241
23.2091
-24.6381
-12.2219
-0.0239902
-5.63533
15.2024
5.79369
-123.679
-6.24672
28.2878
-2.2083
-4.31481
33.2003
17.1018
32.2959
20.3923
-18.7079
0.184465
-1.85233
23.7843
0.00432564
29.8628
19.4626
40.7195
-5.74504
31.3592
13.1819
40.6244
-5.66731
-19.1764
41.9132
-5.77078
19.1622
-87.6306
36.6391
40.1846
25.0383
-40.9081
22.2861
31.008
-12.0529
7.87472
-6.59503
33.0982
-5.88067
-4.10058
-178.774
-192.52
30.3324
12.5348
-252.426
12.2444
40.1793
-15.3175
-6.63397
-214.534
-22.4249
20.9978
-4.96811
21.577
22.2127
-260.536
45.2597
-1.92509
33.823
34.554
0.917621
0.046063
21.4085
-42.3469
-5.71795
21.3713
18.183
-12.4477
22.4479
-5.3428
34.846
24.9489
8.87699
2.44725
27.1919
-3.968
12.9107
32.0974
4.43951
0.0537011
30.7883
25.5948
-15.9337
-85.3283
19.0069
26.8959
41.1338
-87.1036
43.5606
41.1821
44.0283
-4.13236
29.716
-18.9098
22.6303
32.8247
30.9698
26.5365
35.4703
47.6874
19.5787
-91.9121
3.54428
-96.6111
47.2309
12.6122
-2.87878
-5.65491
21.3692
35.0598
22.0012
7.6145
-3.31777
34.7695
-59.6474
25.9484
-5.86938
8.49772
-0.79017
9.10144
15.3317
-7.83508
-7.85678
-5.06367
-9.10941
-4.58629
29.1002
-7.83779
1.81659
22.0259
-64.6654
16.2827
-0.0985005
-57.8834
-27.6007
-102.796
33.6699
36.0356
-6.10311
7.53046
30.4916
26.3536
0.187486
-14.5701
26.1573
-117.798
32.8274
-50.561
31.8451
13.4004
0.767163
29.4589
15.8785
31.4848
8.11072
8.9997
-11.519
-92.6708
-116.075
-2.64519
30.8508
-21.0789
-5.93856
-21.497
33.8788
31.2765
6.35774
18.0644
34.4812
-47.6561
22.8143
-5.77638
-13.3277
22.5648
-6.72131
-93.6369
-26.6574
-166.66
-7.21207
-19.9992
-4.90794
-210.055
-92.4726
19.4862
41.3059
45.3364
39.1862
-20.1289
26.1291
-31.5678
21.8506
34.1108
0.905184
30.2291
-21.4723
7.89345
-12.2831
-4.42571
32.964
-19.456
27.2865
-134.663
-9.32957
-190.797
26.8932
27.0032
22.1692
-72.8884
22.3385
-6.26064
-250.895
-239.264
7.26774
41.9181
-61.7624
-7.29078
-6.03642
22.727
21.4809
-1.86783
12.985
-104.135
35.0087
31.6157
-5.55735
-7.87189
34.3121
-6.93356
-55.4077
-2.66856
31.0341
35.2489
-14.6894
17.7468
-5.95407
40.5033
-238.878
-11.395
-4.46248
38.1712
-2.63055
-10.6488
-2.8574
33.0591
17.2878
32.5026
-5.10548
-54.8033
26.5674
46.453
-93.7283
22.2249
-3.23459
-255.252
-3.14723
8.11534
-5.90575
17.3994
-5.51844
13.679
-4.31321
-15.1399
29.5674
36.0794
22.0715
-39.2111
-11.7339
28.2885
-109.253
9.32033
-14.8369
11.3445
-184.421
24.6505
28.2175
-3.72866
26.6704
40.4335
-6.16977
20.0834
26.5694
-218.22
12.7216
-12.2522
11.3509
9.41337
17.4231
0.0235636
7.53346
-5.37916
-48.2922
34.0724
10.2598
2.13138
-7.50081
-5.62737
23.6657
-144.131
43.9214
-59.1393
-210.786
-2.95499
30.0135
27.5657
32.658
-142.195
38.9598
-33.3872
19.8053
-0.689356
-79.0093
20.6418
10.4071
-6.4528
16.3357
-71.1875
18.0643
-160.664
-7.21953
0.105573
-44.6367
-55.168
21.6031
39.7018
-2.64784
-23.2871
30.7467
-51.1416
36.1078
12.1656
-1.92914
11.9377
22.8411
12.3266
-3.49938
3.76102
-3.16616
3.83899
6.55877
-83.533
-6.44733
0.8723
15.6406
-4.1844
47.5579
26.0079
22.3522
36.8012
1.56065
25.8817
-21.6395
-180.491
-8.53917
22.4329
46.7471
21.8585
-21.1284
33.8176
23.2157
23.5333
-1.62339
-3.59733
12.1324
44.2537
3.56051
-15.1644
26.9817
34.8105
25.8812
23.2598
28.9369
16.6994
-5.69601
-10.7811
26.1954
-82.115
-79.6533
22.8663
-9.46622
2.71281
8.81687
26.3977
27.4584
27.7046
-5.03403
32.3195
33.3006
4.241
29.0741
25.0537
19.0071
17.0324
17.4033
11.8211
-1.87287
30.0605
29.0553
-3.21511
22.3891
-5.2928
-0.13092
39.3306
29.9558
0.106503
-11.8081
-1.76096
31.0959
17.5958
3.16384
-0.772027
2.57211
-6.86789
3.57184
-5.49975
-6.58683
18.6462
-5.5754
-36.0057
-83.1332
37.5399
-6.09036
-56.2692
-6.92154
39.765
-4.9625
4.10656
2.31032
-216.452
17.8681
20.6365
15.3887
35.4475
18.6563
-2.00222
-119.531
-9.45985
0.123619
26.8285
-1.8316
-20.7963
-244.635
-7.56699
-67.0042
-6.63844
-67.3652
-5.23809
6.40589
22.1926
31.794
-6.83047
-4.7268
35.3649
26.0135
-12.1477
-5.97356
-108.053
14.6886
-0.916864
12.4323
18.5098
-1.87046
-5.41002
-6.09854
4.32424
-27.9762
-127.601
1.89629
-15.6059
-152.634
-230.879
-8.24175
2.00967
-114.474
11.7991
-23.1326
22.2612
19.662
6.30677
30.4166
-17.5758
40.1461
-12.8847
-1.41278
-25.0885
23.4484
13.8121
-79.5649
-146.164
23.1713
27.9534
41.5898
-16.0257
-137.382
-14.8447
-4.13124
0.0569207
-76.4851
9.35687
-149.359
13.2668
-26.0331
19.263
2.98874
-2.75987
35.9113
20.9944
-20.2908
-0.503712
-34.9637
-95.7674
30.4906
45.4547
-60.307
29.8123
22.3848
0.0549229
-4.31175
29.4875
28.1448
-73.3598
-4.71548
-8.68854
-18.2096
-23.8723
-132.674
-21.0929
14.3282
-3.97653
25.3383
-59.1308
-237.628
20.8694
-21.8029
-186.749
-1.35819
17.3699
-204.708
-13.8573
-254.772
-51.8124
-171.806
42.3205
-162.061
-7.11733
-28.2999
25.3925
-214.951
-3.80932
-55.3096
-72.898
-12.237
27.0729
0.042984
-82.5412
20.658
0.0407137
-10.7843
-70.8509
-98.5271
17.3458
19.6011
22.7759
-214.872
36.393
-8.59041
0.0683725
0.890544
-43.4091
-11.434
-91.28
-24.4341
3.84841
7.91563
-2.5066
-8.23806
-22.8309
22.5037
-45.271
22.6346
-58.5875
12.7473
-6.99725
-2.90148
-3.44427
48.8843
-2.44886
-227.833
-137.113
-19.5076
22.3369
-0.812284
-3.45855
0.679997
-231.098
-12.4652
-92.8366
-124.019
26.7178
-176.978
1.06544
-260.173
-3.50396
20.4953
0.812123
10.9711
-11.8412
31.8081
-168.244
-14.895
34.3038
9.17974
-188.773
-8.06867
-59.2371
-20.8324
-9.86122
30.7126
-7.35359
8.03347
-120.727
-51.6739
-123.751
-152.944
-70.7837
15.2103
-5.83753
22.9157
6.76317
-40.4873
39.8319
-13.3971
28.9019
35.8415
-227.789
-1.04113
25.0046
21.6126
19.5575
-18.9411
-35.572
-37.9803
22.4465
4.38646
-21.1065
-86.0779
13.9655
27.5054
-7.18638
-1.55894
-1.45197
33.5381
-33.0273
-36.672
-0.31125
18.8254
-0.622978
-2.97055
36.5016
29.1607
-1.94295
-20.8056
30.3407
9.86336
-4.27259
22.7356
-9.14118
-27.2524
-45.8013
-21.0893
28.1681
25.9542
-3.47181
-14.6031
-4.26923
-1.30048
26.2805
-20.3016
19.5128
31.9964
34.5459
-6.46436
23.3968
21.2732
27.0367
28.6875
-5.79279
28.6936
-0.0425298
22.5989
12.0874
25.091
-7.15653
29.6397
28.4712
19.8203
13.9917
-13.4117
17.2071
0.550373
-16.5438
32.9902
31.1973
-13.6363
27.0858
-21.1406
-90.0549
25.7879
25.3954
-46.5046
-4.59294
-140.402
-18.2051
-23.7626
-6.37383
-46.938
-9.05384
21.6466
43.5149
30.7466
-7.18706
-5.48229
25.6103
10.1503
-4.34667
-26.8683
-11.3142
-35.1139
-90.5669
-96.6491
21.3646
-6.76054
8.5497
0.32923
0.254417
-1.82745
0.237057
4.22079
12.8319
14.589
-12.4579
13.192
-66.8677
-34.4941
16.1137
11.0124
-2.87134
2.22603
14.4018
-1.37131
7.41232
-13.2425
22.9682
19.2965
38.392
22.8778
-18.2407
-9.40775
-13.8065
-10.5372
-0.735595
-0.159461
-5.29223
-14.6347
43.8894
1.9534
-1.31176
35.7516
-5.8651
-18.4753
-6.90252
-7.8414
-172.943
7.73329
-27.7691
23.6139
-6.06717
-16.807
-3.40552
-7.21655
-20.7208
-3.50772
-6.59297
17.1224
-5.78788
-6.40028
-30.1838
8.59871
-21.7428
25.1287
36.9193
-10.0712
25.6142
13.6708
15.5998
40.2465
-5.5864
12.4543
11.725
8.14061
34.8156
-9.49981
-4.45207
-3.55633
24.875
37.0024
-7.74897
-4.5203
-21.4452
-18.4879
10.2649
-14.4006
-46.4417
-10.8857
7.64134
-108.763
4.87062
6.94329
19.4812
3.48479
-86.5716
-28.2804
-1.08084
-5.02851
39.2806
43.9741
32.5917
45.2908
19.7515
21.9832
27.5746
23.8818
20.8962
-17.0474
24.3418
-8.98757
-89.0189
35.3892
-5.51501
-22.1395
41.557
-1.97374
-19.1071
10.5993
8.62117
28.5985
-148.625
20.6027
37.9971
-5.76119
-82.7455
-38.2938
16.5135
-28.0741
31.176
-5.32783
28.5683
22.4293
-6.32734
27.8805
-13.9676
-101.926
-93.8838
-9.78111
29.3059
-19.7342
22.1897
-1.80669
-97.7567
-0.309581
-3.09954
-26.8832
-12.2669
-207.865
29.4312
2.96027
-178.287
-13.0275
13.8747
5.50014
-15.9841
9.67037
-0.922171
9.65316
-211.829
12.5384
4.33051
15.9847
-3.35532
22.6314
14.3189
4.88688
-177.821
45.669
-20.4574
-257.021
22.3224
19.3127
-141.614
-20.4018
-5.89766
15.3492
12.7077
-18.2239
-4.53909
-7.15079
45.6461
-7.19458
-6.36294
0.25545
-11.5244
17.1128
-6.53732
21.4875
13.9721
-31.2902
15.0302
-125.117
19.6302
8.80473
24.0776
15.0914
0.000739811
0.254988
11.7545
25.3008
4.19759
1.71014
-232.398
-15.6298
-11.9931
19.0861
-249.808
11.7162
-233.383
29.4308
-112.652
-7.9961
31.6037
28.2889
9.44287
-5.39146
-104.7
25.774
-0.236258
29.3002
11.0548
-2.38664
23.2026
6.19154
4.90602
2.6871
-11.2161
-15.068
14.5601
-2.36415
32.3634
6.84559
46.0032
-3.03548
4.16321
28.5306
1.12269
5.75912
24.8951
20.4845
14.4399
-21.3171
-1.18416
22.325
15.3001
8.3213
-23.2114
-4.95944
-8.32135
-139.838
-12.2083
20.0428
0.800363
17.7787
-4.09452
38.9416
29.025
7.04661
19.6691
6.27509
-202.585
21.2475
16.9669
-0.90773
9.44329
29.2222
26.2232
-2.04406
-24.2727
-44.24
21.3146
10.7972
-2.67026
24.6589
-20.2973
22.2507
-66.3476
23.1339
9.46707
-1.91089
8.51314
27.4153
-3.34841
24.3565
31.4778
3.43952
-8.20037
11.8738
-0.027703
36.776
-72.1092
33.2058
27.838
-108.365
-11.5393
0.100482
-11.1234
-31.7238
-6.75939
21.3173
33.4534
26.1446
34.0888
14.9294
30.8319
8.22019
2.14988
9.09197
0.984368
0.234681
19.6372
0.54232
35.289
5.30171
-247.528
15.7515
35.0452
36.7373
-53.1778
13.5147
-16.0866
-90.8741
10.2544
3.61549
-6.21761
10.7535
36.6669
-196.553
-63.1558
-21.4499
8.45381
2.36952
1.92795
22.8158
23.9873