/*--------------------------------*- C++ -*----------------------------------*\
| =========                 |                                                 |
| \\      /  F ield         | OpenFOAM: The Open Source CFD Toolbox           |
|  \\    /   O peration     | Version:  2306                                  |
|   \\  /    A nd           | Website:  www.openfoam.com                      |
|    \\/     M anipulation  |                                                 |
\*---------------------------------------------------------------------------*/
FoamFile
{
    version     2.0;
    format      ascii;
    arch        "LSB;label=32;scalar=64";
    class       surfaceScalarField;
    location    "1";
    object      phi;
}
// * * * * * * * * * * * * * * * * * * * * * * * * * * * * * * * * * * * * * //

dimensions      [0 3 -1 0 0 0 0];

oriented        oriented;

internalField   nonuniform List<scalar> 
20045
(
1.01112
-1.09504
0.0839135
-2.1169
0.724154
1.39275
0.624726
3.46913
-4.09386
0.418482
-0.572317
0.153835
-1.64172
1.61657
0.025153
-1.17131
4.37469
-3.20337
-2.01707
0.905109
1.11196
0.132333
0.847516
-0.979849
0.947595
0.823895
-1.77149
-1.67143
-0.227561
1.89899
1.43575
-0.127929
-1.30782
4.44878
-2.2005
-2.24827
0.720152
-0.734266
0.014114
-2.55394
2.16647
0.387463
-0.676491
2.12054
-1.44405
-2.19918
0.527746
0.279015
1.09724
-1.37625
1.81131
-1.37207
-0.439241
-3.42262
5.04752
-1.6249
-1.5127
0.119268
1.39343
0.86185
-0.794506
-0.0673449
0.237328
0.482823
-0.230791
-1.88611
0.933448
1.74404
-2.67749
1.71732
0.401924
-2.11925
-1.87289
2.80634
-1.16769
1.13407
0.0336158
-2.2096
4.26164
-2.05204
3.46553
0.463717
-3.92925
-4.09404
2.32023
1.77382
-0.251367
-0.677821
0.929188
2.88567
-1.9908
-0.894864
-1.7279
2.94828
-1.22038
4.38756
-2.52721
-1.86036
-1.09342
1.22575
4.44168
-2.21154
-2.23014
2.87452
0.465579
-3.3401
-0.133335
0.787976
-0.654641
-3.92305
1.49087
2.43218
1.22477
1.01178
-2.23654
0.11889
0.805917
-0.924808
0.345241
-0.467549
0.122307
4.35017
-4.3236
-0.0265675
2.968
-1.02953
-1.93847
1.31589
1.65211
2.08477
2.364
0.282471
0.694765
-0.977236
2.46807
1.13316
-3.60123
3.66805
-0.793526
0.262484
3.60657
-3.86905
2.58774
-4.40662
1.81888
3.63957
-2.70438
-0.935187
-2.33775
-1.8018
4.13955
-0.182884
-0.60064
0.783524
1.72046
-0.388936
-1.33153
-1.36704
-0.274685
0.158014
2.92822
-3.08623
3.2495
0.118628
-3.36813
1.48962
-3.21751
4.1891
-2.83402
-1.35508
1.2268
0.159354
-1.38616
1.68181
2.50729
2.01062
-4.07685
2.06623
0.730123
0.131727
1.32794
0.394988
-1.72293
3.25112
0.493386
-3.7445
-0.177292
0.576079
-0.398787
-1.34367
0.326157
1.01751
1.69336
-0.745767
3.73819
-3.81972
0.0815272
-0.410767
0.233475
-0.263365
1.98383
-0.525333
-2.04273
2.56806
0.266617
-0.30232
0.0357036
3.60424
-0.633107
-2.97113
2.73656
-2.57855
-0.108339
3.71258
0.828076
-1.50457
-0.939699
0.354674
0.585024
0.9691
-2.28846
1.31936
2.04336
2.39688
-4.44024
1.83621
-1.40564
-0.430566
3.6532
-1.64258
-4.53956
0.838405
3.70116
0.0462555
0.964867
-1.16035
1.32951
-0.169161
2.10722
-1.87802
-0.229209
-3.25762
0.16466
3.09296
2.08604
0.337748
-2.42379
-1.70123
1.55407
0.14716
-2.92313
-0.486931
3.41006
1.43044
-0.245637
-1.1848
0.816152
-1.16399
0.347837
-0.294591
-1.62004
1.91463
1.1636
-1.24302
0.079424
2.95713
0.79205
-3.74917
-0.775889
-0.391801
0.0428292
-0.605677
0.562848
2.4221
-1.19733
0.0134244
1.2288
-1.24222
3.04445
1.39723
-0.935527
-1.61841
-0.659635
0.702464
-0.544076
3.79357
-0.0896818
-1.07067
-1.3927
1.40612
0.88032
2.39948
-3.2798
2.42808
-3.57132
1.14324
-0.657228
-0.928685
0.80089
0.127795
-0.558424
0.692171
-0.133748
2.48379
-1.77779
-0.705999
-0.9844
0.801516
2.61796
-4.25289
1.63493
-0.340946
0.652285
-0.311339
0.108395
-0.672467
0.564072
2.36805
-0.650722
3.26176
1.1258
-2.31773
1.7924
2.75693
-4.01246
1.25553
1.20045
0.610861
1.08029
0.146519
-1.53283
1.2419
0.290932
-1.49497
0.187495
-1.15128
0.963782
2.63136
1.00821
2.19839
-2.79989
0.601496
3.18158
0.380635
-3.56221
-4.10473
3.21623
0.888497
-0.822385
-1.29138
2.11376
3.85704
-1.22568
-0.728143
1.42291
0.203556
0.00292382
-0.206479
0.0255118
-0.119247
0.0937354
2.28229
1.60198
-3.88426
2.40379
-2.31585
-0.0879411
-0.766742
0.305743
0.460998
-0.653312
-0.275373
4.47075
-1.71382
-1.29024
1.38047
-0.0902287
2.49216
-4.13008
1.63792
0.80487
-3.14262
2.2796
0.913175
-3.19277
2.51313
-1.54403
3.8861
-0.489071
-3.39703
0.52983
-3.01074
2.48091
4.31915
-3.59149
-0.727658
-0.328812
0.847867
-0.519054
0.0108643
3.95207
-3.96294
4.22329
-0.757763
-3.33764
0.129989
3.20765
-1.87034
1.65807
0.212274
3.98866
-1.94531
0.699308
1.1369
-2.50335
3.05849
-0.555148
-2.81688
3.4416
0.0510185
-0.794574
0.743556
0.437458
-0.522968
0.0855105
-0.0699512
-0.738431
0.808382
3.65031
-0.384761
-3.26555
5.18611
-2.53467
-2.65144
-0.877219
0.807268
1.11828
-2.59047
1.47218
0.423592
-0.0783502
-3.24846
-1.93048
2.73095
-0.800473
-2.68397
1.96363
0.720339
-0.0605898
-0.0993767
0.159966
1.05384
3.2653
-0.137547
0.163058
-0.304971
0.508527
-2.77473
0.271387
-2.90979
3.75899
-0.849196
-2.58222
2.99414
-0.411921
-2.40009
-1.67657
4.07666
-0.163438
-0.722391
0.885829
1.78065
-1.89917
0.118512
3.13445
0.535252
-3.66971
0.0249821
-3.00031
2.97533
-1.4575
3.7371
0.796681
-2.15818
1.3615
-1.58834
4.20631
-3.31506
2.13977
1.1753
-0.161168
0.117905
0.0432637
1.52008
-4.43281
2.91273
-3.48802
1.27842
-2.4456
-1.59267
3.84463
-2.36172
-1.48291
-1.03852
1.15741
0.666985
-0.710577
0.0435922
-3.05345
-0.748288
3.80174
-3.21273
4.50798
-1.29525
3.68063
-2.54728
-1.13335
0.366352
-1.08515
0.718797
-0.885895
-1.95507
2.84097
0.231873
1.20387
-1.77447
0.95208
-2.71431
-0.923064
3.63737
0.476716
0.117784
-0.5945
0.477969
-2.40844
0.626764
-0.878131
3.4286
-0.247019
-0.659721
0.526387
-0.698003
0.829597
-0.131594
-0.342883
3.99319
-3.02688
2.14099
1.27768
-0.0875306
-1.19014
-2.7335
0.503219
2.23028
1.27636
2.40427
4.60066
-3.08058
2.68976
-4.49677
1.80702
0.848646
-2.6659
1.81725
0.103435
-1.61613
-1.90116
2.78148
2.58527
-3.75658
0.994209
-2.63697
1.64277
-4.43929
2.49293
1.94636
-0.0947013
-1.60653
0.728039
0.553251
-1.28129
2.80248
-0.801067
-2.00141
1.50781
-2.72558
2.73644
-1.00941
-0.280831
2.4718
4.36373
-3.60801
-0.755714
-0.0341699
-0.53939
0.57356
2.66412
0.422284
-3.08641
0.690536
0.39769
-1.08823
-0.346466
2.38037
-2.0339
-0.15781
2.26503
2.25479
-1.45811
-0.31947
0.846452
-0.526982
3.43243
-0.940269
0.447019
-0.0459383
-0.401081
0.630051
0.166677
-0.796728
-0.549199
0.574841
-0.0256412
3.84454
-2.46039
-1.38414
0.892843
-4.10557
-0.609801
0.060602
-3.49514
1.16879
2.32635
4.00341
-1.05513
1.00311
-3.9129
4.97226
-2.30546
-2.6668
-0.0735227
0.550239
3.41228
-1.33642
-2.07586
-2.43441
0.561304
1.87311
-3.90643
3.92944
-0.0230094
1.01983
-2.95999
1.94016
-0.322147
0.144946
0.177202
-1.92994
2.49595
-0.566004
-0.05073
-0.478787
0.529517
-0.593864
0.252918
-0.671606
0.113182
-2.49096
-1.08036
1.73529
-2.88924
1.15394
0.968288
-0.933193
-0.0350943
1.60441
1.28126
2.33087
-1.33666
0.10469
0.332768
2.51683
1.48658
-1.99247
0.0749768
1.91749
0.999943
2.41234
1.49209
0.628442
0.965694
0.00259319
-1.11627
-0.0719124
1.18818
-0.123212
-0.0379558
-2.53633
2.18986
-0.783023
1.06364
-0.28062
-3.50944
3.38302
0.126419
-1.6735
2.59622
-0.922724
-0.814216
-0.424262
1.23848
2.99905
-3.28394
0.284889
-2.68244
-1.75684
5.10201
-3.36347
-1.73854
-0.425988
0.391818
3.30016
-2.28032
-1.28644
3.02173
-0.330158
-1.01809
1.34824
3.22841
-0.429076
-2.79934
4.52075
-0.430953
-4.08979
-1.49775
1.16759
3.292
-1.92001
-1.37199
-0.636083
3.11435
-2.47827
2.25531
-2.75909
0.50378
0.23709
-1.09423
0.857141
1.42396
-0.0105063
-1.41345
4.70469
-3.6876
-1.01709
-2.25164
-1.85309
3.06184
1.30189
-3.20048
-0.30896
-0.188124
0.818174
0.686765
-3.16152
2.47475
0.0176616
0.649323
-2.17837
4.46066
1.42926
2.41528
4.18953
-2.58263
-1.6069
-3.98569
3.06262
3.02934
-4.73939
1.71004
-2.43575
-0.179494
2.61524
-0.889768
-0.712931
1.6027
2.1809
-1.06262
0.259344
1.01833
0.929261
-0.0653431
-1.92546
-2.79866
3.91492
-1.11626
-0.821209
0.123206
-0.284039
-0.0354313
0.565435
-4.47187
2.02327
-2.18108
0.614602
-1.02621
1.34106
-0.314846
-0.0329283
0.45141
-2.05159
1.48158
0.570014
1.35506
1.12872
-1.81562
2.46841
-0.652786
1.9561
0.447683
-2.54189
3.22866
2.31836
-0.232316
-0.77447
-1.95903
3.73981
-2.70873
-1.03107
3.7167
-3.5959
1.14672
2.44918
3.15746
-3.44749
0.290029
-1.668
1.37341
-0.498537
-0.268205
-0.447681
-2.47545
1.1049
-2.13801
1.03311
1.68628
1.60572
3.0146
-4.34591
1.33131
0.871994
-2.10639
1.2344
-3.92165
0.664027
0.034073
1.39637
-2.32974
3.64496
-1.31522
-1.02616
1.24687
-0.220711
-1.57395
-0.443113
-0.502812
-0.876194
1.37901
0.37865
0.00737462
-0.386025
-1.31704
-0.553305
1.47703
1.768
-3.24502
3.26408
-2.26414
1.20348
-1.75749
0.0894914
1.81572
-0.943729
-2.62928
-0.685782
-0.455115
0.274712
0.180403
3.84669
-1.37862
-1.79027
2.95558
-1.16531
-0.480745
0.547696
-0.066951
2.97441
-0.171937
-0.905928
-2.25559
-1.93665
3.60468
-1.66804
2.70207
-4.47879
1.77673
2.15894
2.94307
0.934127
-0.609563
-0.324563
0.39575
-2.8315
2.7038
-4.11828
1.41448
0.362058
-0.0954416
-0.283929
2.48232
-0.228247
2.25151
-1.81259
2.66123
0.828332
-4.25095
-3.67212
2.00428
1.66783
2.5559
-0.417398
-2.1385
3.66465
-0.665606
-1.60112
-2.1199
-1.89088
1.72914
-0.520917
-0.992974
1.51389
1.26823
-1.14896
-2.79476
2.51083
3.45058
0.899592
-3.10403
1.31376
4.36554
-1.3037
0.548784
-0.509087
-0.0396966
0.0205134
-2.42056
2.40005
-3.58688
0.6909
2.89598
3.36926
-3.36926
-0.999563
3.35994
-2.36038
1.0944
-2.91003
2.62014
-1.59444
-1.0257
-3.62157
3.73258
-0.111013
1.32342
-0.182355
-1.14107
1.06637
-0.438548
-0.62782
0.431347
-1.24556
-1.24906
1.88526
-3.1717
-3.27933
3.88007
-0.600739
-1.14707
2.6241
-0.669802
-0.219977
0.88978
-0.459196
0.844157
-0.38496
-1.51553
1.61896
3.98236
-3.22861
-0.753756
-0.347876
-2.10075
2.44863
-0.910771
1.00258
-0.0918108
0.501217
-1.12152
0.620306
-4.18784
1.72234
2.4655
-0.406548
-0.165768
0.585139
-0.0363556
0.343691
0.935763
-1.27945
1.95294
2.75175
-1.1091
0.439297
-0.23934
-1.13337
1.37271
-1.93722
3.11655
-1.17933
-0.129387
0.478602
-0.349215
1.71139
-0.806278
3.3035
-0.0223984
-3.2811
0.0180534
-1.63809
0.0868247
3.04763
1.6682
1.1939
-2.86209
1.83269
-1.64409
-0.188601
-4.05565
0.718014
-1.67306
0.732389
0.940676
1.61262
2.06607
-3.67869
-2.49138
2.31188
0.298705
-3.63799
3.33928
-0.511348
0.877699
-0.213743
0.2049
0.00884325
0.0751256
-1.1914
-0.512024
1.05331
-0.541287
-2.67947
-0.815671
2.42446
0.620544
0.131406
-0.75195
-0.491686
0.0109414
0.697615
-2.87787
2.18026
0.838601
2.14052
-2.97912
1.262
-2.82702
3.43986
-0.612844
-2.8623
2.22621
0.333557
0.800517
-1.58993
-1.09404
-1.02044
0.272571
0.747871
-3.38945
1.45224
2.67843
-3.02631
1.52493
2.8406
-1.15715
1.18371
-0.0265531
1.35046
-3.2645
1.91404
0.606071
-1.08258
0.47651
2.19357
-3.0995
-2.52692
-0.0552976
-1.23868
-0.104992
0.265491
0.97543
-1.24092
1.29992
0.142695
-0.420918
0.278222
3.42778
-1.81517
-3.17058
3.34211
-0.171527
1.03446
0.699605
-1.73407
-1.44735
0.936
-0.846453
-0.173989
1.53844
1.0817
-1.02166
-2.99079
-0.123965
-0.33115
2.46561
1.67177
0.646589
-3.39586
3.65834
0.383546
-1.8123
1.42875
-0.370786
-3.29088
3.66167
0.434772
-0.449071
0.0142989
0.924923
-1.08836
-0.555101
2.81041
3.20211
-2.67228
-1.71491
-0.336681
0.0316119
-1.62497
1.59336
1.59114
-3.99123
-0.458594
-1.88315
2.34174
0.175244
-0.758188
0.582944
-2.61455
0.269981
2.34457
3.79371
-2.66055
-0.079621
0.344742
-0.265121
-0.853963
-0.0568076
0.723322
1.38087
-2.10419
0.542498
-0.665929
0.12343
2.66979
1.45438
-4.12417
-1.58105
4.53818
0.378842
-0.000191927
-1.00541
-2.21439
3.2198
1.59889
2.87186
3.58462
-2.74602
-1.3681
0.86529
1.46642
-0.0424588
-1.58562
4.61496
0.518864
-3.03741
2.51855
3.72572
-0.538188
-3.18753
-1.82916
2.82281
-0.993643
1.6019
-1.44421
-1.94392
3.38813
-1.49004
1.16364
0.326402
-1.09238
-1.96528
3.05767
0.327284
-0.78648
0.117592
-0.178181
2.05657
-3.14895
-2.8259
-0.839452
3.66536
-0.253609
-1.87774
2.13135
0.243303
4.73612
-4.87981
0.143692
0.850063
-0.602753
-0.247309
0.0418772
-1.19903
1.02779
0.88684
-1.23512
0.345349
-3.13008
3.99444
-0.864362
0.0978963
-0.880919
1.42246
1.09066
-3.38897
-0.934636
0.127899
1.31986
-1.44776
2.13635
-0.46458
-0.805435
0.888369
-0.0829332
-0.587842
0.537112
-4.60013
2.15452
3.61864
0.756043
-0.509027
1.01024
-0.798459
1.83292
3.13276
-1.2475
-0.831073
0.0256381
-0.368489
-2.42627
0.901784
0.906008
-0.85499
-3.64237
0.0554934
-0.816995
0.848248
-0.242177
-3.94118
2.48609
1.45509
3.15996
0.578235
0.743641
-0.238061
-0.50558
1.07758
-1.00876
-0.0688164
-3.52477
1.31323
-3.99253
2.05588
-1.02968
0.861448
0.168231
0.059583
-0.437637
0.378054
4.31667
-0.0313229
-4.28535
0.735348
0.0491276
-0.784475
-0.525089
-1.00774
0.893194
-0.0770419
0.127873
-0.204841
0.0769679
1.51129
-0.246592
-1.2647
-0.241073
0.368946
3.34092
-2.54887
-0.12804
-0.549631
0.677671
-3.9954
0.865319
-0.0958385
0.110175
-0.76981
-0.415891
1.03644
0.0138944
0.0907956
0.961777
0.599408
-1.56118
1.63048
-0.302547
1.71585
-1.3323
0.861885
-0.75349
0.270454
-1.29661
2.32419
-0.191059
-2.13313
2.12356
-0.159673
-1.96389
-2.51179
-0.498945
0.555004
-0.17491
-0.380094
1.55336
-1.75237
0.199012
4.24944
-0.116987
-4.13245
0.472734
-0.5304
0.0576661
-1.95535
2.60383
-0.648481
1.88139
2.36612
-4.2475
-1.19728
1.35663
-1.01053
1.6794
-0.668869
0.839855
0.362997
-1.20285
-3.5604
1.68533
1.87507
-0.277073
0.0722316
-3.39186
0.565959
1.19293
-0.74252
-0.450412
1.898
-2.43219
0.53419
-0.325373
-0.769662
0.71064
4.02548
3.24982
-0.55721
-2.69261
-3.36805
0.541033
1.3554
-2.12987
2.70187
-4.32926
1.62738
-0.384681
1.11272
0.158238
-1.55657
1.31723
-0.624305
0.8118
-0.433392
-2.91802
3.35141
1.43917
1.86098
-2.9068
3.082
-0.175191
-0.860335
1.12583
-2.58045
-1.016
-0.461338
0.507665
-0.0463261
0.681816
-1.31174
0.629927
0.226489
-0.192596
-0.0338933
-0.300689
2.19869
-3.19563
-0.54385
3.73948
-2.96485
-0.956806
3.92165
1.89819
-1.41943
-0.478765
-0.878044
0.104052
0.773992
0.132064
-0.907881
0.775818
-3.84956
0.169592
3.67996
0.114209
0.721287
-0.835496
3.09796
-3.52463
0.426664
-2.04853
1.86988
0.386249
-2.25613
0.0260623
-0.487401
-0.86257
-1.53309
2.39566
2.46419
-4.05253
-3.76691
3.30316
0.463752
0.652955
-0.110457
2.53112
-1.10866
-0.205942
-1.08825
1.29419
-0.0398134
0.663468
-0.623654
-1.21576
3.63043
-2.41467
2.39803
-3.14544
0.747409
3.9281
-3.78133
-0.14678
3.14916
-1.29074
-1.85842
0.18232
-0.879837
0.697517
-1.11893
-0.0323468
-3.79408
3.36624
0.42784
0.234773
-4.02885
-2.39369
3.45325
-1.05955
-2.31757
-1.37003
0.729844
-0.648268
-0.0815767
-3.14876
-0.846641
-0.705358
0.457623
0.247735
1.02111
-0.330572
-3.72472
3.53776
0.186961
-0.854976
0.0334323
-0.335753
0.785299
-0.0499518
-2.36313
0.433185
0.508739
-0.635764
0.127025
-1.65191
1.38727
0.26464
1.38118
-0.0577566
-1.00149
2.57225
0.402157
1.46642
0.336903
1.07005
-1.40695
-0.413877
2.19453
-2.41315
1.53273
0.880423
-0.0958522
-0.18122
3.25923
-1.82006
2.74663
-1.39617
-0.921628
-0.676849
1.59848
1.27338
-3.01644
1.74307
2.14397
-2.39758
3.90221
-1.71009
-2.19212
-0.0205297
-2.02306
-0.390087
-3.0724
3.90717
-0.834771
0.0459172
-1.1063
3.79606
-4.12025
0.971489
-0.685631
0.922722
-0.417585
-1.2648
0.59332
-0.0184793
-1.937
-2.04642
4.57254
-1.83598
1.13891
-0.595248
-0.543665
0.262484
0.803884
-2.63553
-1.42719
4.06272
0.641079
1.53982
-0.000645357
-0.545816
0.546461
3.27864
0.310681
-0.128316
-0.182365
2.154
0.170182
-1.43583
-3.94328
0.663945
-0.840688
0.0410108
0.799677
2.24287
2.7294
1.00553
0.289882
-1.29541
3.79287
0.135233
2.31077
-3.29382
0.983047
-3.2337
-0.0437812
3.27748
-3.05866
3.96581
-0.907148
0.511966
-0.00576061
-0.506205
-1.53593
4.00012
0.0327519
0.970495
-1.00325
0.143855
-3.05066
0.911405
-0.157374
-0.754031
-3.60146
4.71614
-1.11468
-0.962409
2.10471
-1.1423
4.64361
-2.04385
-2.59975
0.0162257
-2.36574
2.34952
0.162817
0.0420825
-1.86812
3.74951
2.21336
-3.21293
4.30554
-1.60348
-0.703981
0.575941
-3.41222
0.178526
4.60954
-1.59494
-0.103473
-4.43609
0.907262
-0.101345
1.03668
2.13232
-3.16899
2.12656
-0.471205
-1.65535
2.67355
-3.84947
1.17592
-0.670365
0.0430874
0.627278
-0.798007
-1.84628
2.64429
1.40046
-1.13
-1.83001
0.68834
1.14167
0.511471
1.12204
-1.63351
0.318035
0.41181
-3.41383
4.0014
-0.587578
0.413513
0.0212588
1.74688
0.792414
-2.53929
1.94828
1.47925
-3.42752
0.590513
1.96538
-0.0796863
3.96579
-0.0156632
3.13797
-3.12231
-0.120122
-0.00926529
0.0111512
0.366758
-0.377909
2.66052
-2.45763
-0.202886
1.77834
2.12387
1.35985
-1.28389
-0.075959
-1.15404
3.25112
-2.09708
0.0680828
0.586322
-0.654405
1.39526
-2.7732
1.37794
-2.38038
-0.755157
3.13553
3.24104
-0.576912
1.1553
0.971256
-1.76511
-0.310372
2.07548
1.0862
-3.18695
-0.761246
1.19351
-0.432267
0.731003
-0.295496
-0.435507
-0.0952958
0.258113
-0.384906
3.45479
-3.06988
-0.481437
4.08801
3.0765
-2.45205
-0.624456
2.52343
-2.18568
-2.10845
0.667676
1.44077
0.23201
-1.82645
-0.825922
0.649049
0.176873
0.219947
0.523694
0.602539
2.93175
-3.53429
0.789873
0.721417
0.508436
-3.47328
-1.66264
0.709419
0.953222
-1.23707
-0.929378
2.16644
1.83237
-0.870597
-3.32698
2.17991
1.3755
-1.0207
-0.354797
-1.92887
3.03825
-1.10938
-1.73942
1.75747
-1.65345
2.17591
-0.522455
-2.53331
3.54514
-1.01183
-0.0878944
0.807774
-0.71988
0.53045
-0.470867
-1.24171
-2.47526
3.74999
-1.27473
-2.141
2.64422
1.98705
-2.04631
0.0592602
-0.081161
-0.805798
0.886959
-4.41549
3.21226
1.20323
-0.0578467
-0.22919
0.287037
-0.0957988
2.3463
-3.56205
2.77974
-1.50636
-1.52992
-2.1422
-2.7746
2.75894
1.98086
-0.0172295
1.4893
0.564252
-2.05356
-1.24448
1.15775
0.0867317
1.23535
-1.01766
-0.217695
0.435852
-1.62999
1.19414
-0.85422
1.97972
-1.1255
-2.99199
-0.872459
3.86445
0.714118
-0.795279
2.13408
0.526438
-3.5121
2.71696
0.795141
1.16362
-0.306401
-0.85722
0.0218063
0.661733
-0.871176
0.209443
-2.58895
-1.35142
1.78727
0.51132
0.760487
-0.578167
1.1993
-0.51748
0.693621
-1.985
0.115686
1.04791
-1.34868
0.840816
0.507869
-2.29334
-1.75903
4.05237
-0.354979
-1.41013
-2.01411
-0.333606
2.34772
0.518783
0.661795
-1.18058
-0.13019
4.38065
-2.80331
-1.57734
0.652011
2.59781
0.249047
1.73856
-1.58429
-0.154267
-1.10928
3.00681
-1.89753
-2.22835
-0.945269
3.17362
-1.71623
0.705697
-1.6244
-0.484044
4.64786
-1.87302
-2.77483
-0.70129
-0.0630628
0.764353
1.52604
0.191818
-1.71785
-0.620728
0.734936
-0.813474
1.38176
-0.568281
0.230428
-0.0893366
-0.787883
-0.0484463
2.73428
1.91358
-1.89776
3.38863
-1.27981
3.60004
-0.806337
0.105047
-3.32782
1.09947
2.81984
-2.42409
-0.387323
-2.43901
0.483661
0.499861
-2.89355
2.77554
-2.75503
3.27026
-0.112794
-0.750677
-0.413312
-1.04404
-0.345279
1.38932
-1.11563
-0.127393
2.87219
0.514894
-3.38709
0.109533
-0.996584
0.887051
0.0579361
1.237
-3.61844
2.38144
3.3874
-0.28944
-3.45139
3.60714
-0.155746
0.839591
-0.513433
-4.04305
-0.372439
-1.24998
3.50231
-0.136074
1.20389
4.35957
-1.66167
-2.6979
-2.44504
-0.212065
2.65711
0.504313
2.06655
-2.57087
-2.75338
0.138831
-0.679779
-0.51414
1.19392
-1.8834
2.40227
0.565692
2.02511
-2.5908
-2.85854
0.503938
2.3546
-3.68333
0.397066
3.28627
0.826988
1.95275
-0.848257
2.14383
1.00534
-1.12168
-0.551386
2.90554
-3.39462
-0.1481
-1.26327
1.41137
-1.69422
0.496945
2.63785
0.144237
-2.78208
2.36583
-3.64565
-0.0663771
-0.25577
-2.13055
3.82984
-1.69929
-2.32949
1.46692
-0.0552398
1.02698
-0.971738
0.720775
-1.22824
0.507461
0.967389
-0.0424655
-0.952637
2.30804
-0.146761
-0.882918
-0.569935
0.595997
1.28058
-0.88289
-0.0388469
0.183793
-0.736282
0.707938
0.0283439
0.741753
-0.853244
0.111491
-2.78571
2.15261
0.462844
-2.47695
-0.0248991
-1.01363
0.0411469
2.15604
-2.19719
1.20208
-1.27399
1.16752
-3.20239
2.03486
-1.34985
2.57191
-1.22206
0.954089
-3.75275
0.240812
-0.102674
-3.66423
1.81881
2.75373
-2.90987
-0.417106
-2.59119
-1.00471
-1.53581
0.65962
0.581461
0.633166
-1.21463
4.4919
-2.24903
3.56255
-0.858753
-0.886037
-0.566191
1.45223
-4.05599
1.59515
2.46084
1.18365
-1.31158
-0.338899
2.20878
0.593465
-0.356136
-1.98387
0.953654
-0.920902
-1.70031
1.63462
0.0656921
-0.479392
3.35159
0.681929
-0.686803
0.00487391
3.34029
-4.9633
2.28474
2.67856
0.921538
0.71876
-1.6403
1.83023
-0.343313
-1.48692
-1.96787
1.00546
-1.37948
0.0386538
1.48738
3.53533
-3.90612
1.51101
-0.671152
-1.59239
2.67859
-3.90696
2.78446
1.1225
1.52472
-2.90547
1.38075
-2.72127
2.85469
-0.133425
1.62037
-2.03425
0.051694
0.913498
0.984695
0.160057
-2.44851
0.737454
-3.47209
1.56999
1.9021
0.937584
-3.38263
2.89326
-0.184617
-2.2498
0.468116
1.04281
3.99595
-1.31683
-2.67911
-1.63543
0.984355
-2.22142
0.576821
-3.73305
3.52098
-2.93677
1.49256
1.87559
-2.82314
3.20402
-0.380882
-3.48308
2.34325
1.13982
-1.09172
-0.452175
0.627419
-3.80204
2.688
1.11405
2.40765
-3.94358
-3.3379
-0.0759221
4.32353
-1.62166
1.20753
0.498233
-1.70576
-0.0896327
-0.574913
0.664546
0.252834
1.86876
2.09478
-3.4481
0.624956
0.672687
0.727771
0.891802
1.3408
-2.2326
1.39662
-0.843374
-0.151472
-4.15748
4.30895
-1.28568
1.63897
-3.09648
-2.36498
-1.54675
3.91173
0.930937
-1.17657
-2.52696
0.784826
1.74213
-0.041184
0.0918929
-0.0507089
3.34437
-3.77777
1.20368
-3.33423
1.75537
1.10686
-2.86223
0.822745
0.316168
-3.09455
0.860234
2.23432
-3.29395
0.913568
1.9044
-3.01368
1.49847
-1.64657
0.026518
-0.067702
-0.123481
3.8492
-2.33952
2.95451
-0.61499
3.76801
0.0168086
-3.78482
-2.81667
-0.0716845
-0.954529
0.178088
3.19117
0.427168
0.120528
-0.144597
-1.07401
2.16842
1.92247
0.37692
0.858434
-3.43417
-0.290551
-3.41528
1.64596
-2.98239
0.629443
0.69684
-1.32628
3.28949
0.173272
-3.46276
-0.380104
0.374343
-1.25632
-2.73621
-2.9737
-0.473795
-1.36361
3.72945
-1.27184
1.71669
-0.444854
-3.33404
1.0407
-1.03936
1.93116
-1.51902
-2.42216
-1.04357
-1.2023
1.32081
-1.70218
0.0502697
4.03906
-0.536744
1.09458
-0.371894
-0.722688
0.441257
0.405195
0.934304
3.84834
-3.54964
-0.00542208
-0.832955
1.18079
-1.89085
1.96582
-1.6845
-1.88174
0.780094
0.638985
-1.41908
-3.44629
0.0770322
-0.489821
2.89298
-2.40316
-0.34308
-3.10831
-2.66499
3.08728
4.80734
-2.10487
-2.70247
-0.44811
1.1805
3.17685
-1.73578
-1.44107
0.948205
-1.03754
0.556567
-0.545416
-0.68091
0.0706988
0.610211
-0.513589
2.00289
-1.60167
4.00932
-0.143964
-0.504304
-1.0264
-0.270268
1.29667
-0.0370517
3.38143
0.568314
0.731445
-1.29976
-1.37545
2.09877
1.63634
1.61477
-1.2467
-0.415942
1.90448
-0.674956
-1.22952
-0.0802532
-0.409368
0.489621
0.465202
-3.01757
2.55236
-3.47727
0.503575
0.80825
-1.42844
3.07441
-0.022561
0.970766
0.432796
-1.70463
-3.89187
2.00099
-3.77064
1.23597
-1.65172
0.136188
-1.5912
-2.16339
3.75459
-3.73908
-0.70193
0.736254
-0.0343242
3.34864
-2.51023
2.81228
-2.30796
0.609995
1.93311
-2.5431
0.805224
-1.485
-2.7174
-0.893675
3.61107
-0.510142
1.17452
-0.664376
-1.52721
3.21842
-1.69121
3.12447
-1.95553
-1.16894
3.16941
0.0882252
-3.25764
-2.0215
-2.9418
-1.21449
-0.0241893
1.36477
2.49227
-0.0687804
0.319247
-0.250467
-2.50879
-0.585767
2.80298
2.24454
-1.99938
2.37471
-0.375326
0.228238
-0.356554
0.323513
1.41015
-1.73366
-0.00966645
0.691596
-0.402564
-3.39948
-3.3262
1.33048
0.045018
-0.525992
1.15276
0.250538
2.76714
-3.01767
-1.95038
-0.412749
2.38392
0.880162
0.26108
-0.914392
-0.4838
-1.08712
1.57092
0.3809
-1.34507
0.964173
1.13775
1.45847
0.768752
3.07661
-1.39033
3.38725
-1.74827
-0.389625
-0.910086
1.29971
2.84004
0.274306
0.0900419
-2.46472
1.66672
2.76444
-2.8015
-1.92581
-1.57831
3.50413
-2.32479
-1.7312
-3.71814
3.8938
-0.175657
-0.306214
-1.44993
1.10465
2.09915
0.977461
0.233929
-1.03714
0.803211
-1.25822
-2.5615
-0.565755
-2.84027
3.40603
1.78065
-1.13957
-1.3652
0.603956
2.16572
-3.42204
1.76651
-1.36459
-1.3816
3.81029
-2.4287
1.73202
1.92665
1.05228
-2.97893
3.98994
-2.42766
-1.56228
-1.31622
-2.81527
4.37614
-1.56087
0.811552
0.283031
-1.01322
0.990656
1.58509
3.05852
-0.774333
0.6847
0.151615
-0.0089197
3.62278
-2.0208
1.72741
2.76449
-1.46463
0.749705
0.714923
0.846539
-1.76817
2.81707
-0.179218
2.07889
-0.871361
-2.55559
-0.392673
2.94826
0.667109
-0.134039
-0.533071
0.49743
0.352633
0.572652
-3.63131
-0.992303
1.06743
2.65752
-2.28284
-0.374683
0.554618
1.34986
-0.52216
0.284099
0.837776
0.881509
-1.71929
-1.89121
3.38083
0.598265
-1.99666
4.3256
-2.32893
-1.06043
1.5719
-0.958362
-1.90018
4.02643
-1.98812
-1.21236
0.265783
1.56445
1.05897
-1.08387
-0.636628
0.548733
-1.07868
-0.49565
0.00396402
2.44695
-0.546562
3.06469
-2.51812
-1.08508
1.42877
-1.46052
0.37227
-1.16938
-0.0451088
-3.36135
2.35594
0.814335
0.865068
0.323804
-1.26642
0.942614
0.996057
0.333452
3.12145
1.67247
-4.79391
-0.319945
-0.093666
0.413611
-0.827935
-2.34264
3.15311
1.65423
2.91824
-2.66771
-4.40089
0.348769
0.476314
-0.629563
1.70617
2.67046
0.837227
-3.50769
1.29623
-0.0941578
-0.131966
-1.16789
-0.296743
-1.9902
-1.78101
2.01302
0.59478
2.74733
2.13555
-2.13952
0.00396728
0.679765
0.0281732
-0.238553
0.881828
-0.140074
2.95834
0.747547
-3.70589
-2.32128
0.620963
-0.797062
0.469191
0.327871
-1.21937
0.0161484
1.20323
1.54553
1.78556
-3.3311
0.826706
1.00567
2.56458
-0.0677881
-0.916612
1.44521
-2.51923
-0.310393
0.455899
-0.145506
-3.61649
2.02382
3.0931
-2.46182
-0.631283
0.0615728
-0.503682
0.442109
3.2045
-3.5894
2.29278
-0.51213
1.01172
1.80055
-0.429386
-0.0662646
1.55067
-0.512584
-1.03808
-2.17714
-0.426042
3.99093
-2.03132
-1.95961
2.2984
0.437377
-2.73578
1.44609
-2.51808
1.07199
0.169531
1.85666
-0.0409345
-0.654316
2.12441
-1.4701
1.21097
0.339696
-1.12818
-0.767092
0.0802892
3.5508
-0.0317964
-3.519
-1.24848
-0.906617
-0.442068
-1.40691
0.123019
1.1738
2.65604
-0.59408
0.82057
-0.173336
0.106352
-0.580059
0.490377
-1.38766
1.99766
0.0590464
0.846962
-1.47677
-1.19775
2.80217
-0.130672
2.26622
-0.561537
-0.388725
-0.871161
1.70894
-0.764392
3.12807
-2.36368
-2.96867
-0.423195
-1.63686
2.93575
-1.2989
-0.0566172
-0.710475
1.07215
-0.224638
-0.0743405
-0.822148
0.896489
-2.99745
1.00932
0.359651
-0.439272
1.74357
-4.3791
1.18443
-3.39881
-0.755937
2.49998
-1.22055
1.76331
-0.881802
0.0476811
-2.32671
2.79192
-0.0150543
-0.524335
0.530447
-1.94988
-0.349809
-2.15056
2.50037
0.959344
1.18127
4.45731
-2.9247
-1.5326
-0.75572
0.269944
0.800733
0.0775511
-0.878284
-2.86794
0.528415
0.628176
0.102827
-0.0356765
-0.413075
0.448751
1.47748
-3.11433
0.309971
1.60807
0.0771423
-1.68522
-3.47064
2.70624
0.526669
0.12592
-0.652589
1.19354
-3.6688
-0.461146
-0.0207667
0.481913
0.685849
-0.15918
0.030517
2.58659
-1.99607
2.20204
1.71031
-0.8836
-3.42191
1.05694
-2.43501
1.96689
0.468122
1.57179
-3.49761
-1.71987
-1.08266
2.80253
0.314829
1.34324
-1.01335
0.830994
3.97126
-0.572778
-3.39848
-0.0204431
-3.41372
2.89586
0.273553
1.49441
1.68243
-0.520383
-0.0254327
0.49665
-1.01011
-1.1279
0.184616
-0.546804
0.362188
0.0212145
-3.75454
3.73333
-0.13101
0.953651
-0.822641
1.10691
-3.16602
2.05911
-0.389052
-1.92679
-0.132677
-0.236302
2.33002
-1.13261
-0.673434
1.80604
-1.22294
-1.45653
1.5192
-0.880211
-0.365773
-0.410537
0.77631
-1.01151
1.33531
-3.28315
-0.463292
-0.0928712
0.556163
0.365765
1.10653
-1.47229
2.65998
-3.28896
0.628983
0.0298037
-1.91592
0.579789
-4.18125
-1.74447
-2.28742
4.03189
-3.44028
0.170464
3.26981
-4.57711
-2.78131
0.0600421
-0.933083
0.973846
-0.0407625
-3.72533
-1.21675
4.1751
1.2705
-0.67109
0.261205
-1.13237
-0.59297
1.59864
0.504746
0.27374
-1.30014
0.0655245
-0.548834
0.48331
-0.574676
0.245864
-0.350683
0.412256
-0.868398
1.78994
-3.66749
2.35898
1.30851
-1.23302
1.49236
2.11761
0.660904
0.00620503
-0.869821
1.10375
-1.64799
-0.878969
-1.82311
0.673957
1.14916
0.155217
-0.463784
0.308566
-1.33574
1.71664
-0.24731
2.47759
2.194
-1.62568
1.93572
-3.15866
1.55666
-2.07623
0.51957
0.33364
0.0111027
-0.767507
0.157944
-3.72027
2.12907
-0.369013
2.66741
0.0522616
-0.686855
0.634594
-4.81469
1.99782
-0.629319
0.795996
-0.651229
-0.078257
-0.721126
0.799383
-1.88285
0.750239
-3.60613
3.20356
3.18189
-1.42652
-0.784977
0.705532
0.0794442
1.38651
-0.066653
-0.496823
-3.89145
1.51217
2.37928
-0.476486
0.38282
-0.31646
1.10104
-0.784583
1.38857
0.904208
0.0551543
1.08793
-1.14309
-0.879184
0.93823
0.0905435
0.271515
2.11504
-2.96239
3.56051
0.232365
-0.705266
-1.17275
3.32996
-0.0807614
-3.2492
0.132869
0.615663
-0.748532
1.97085
-3.90785
0.941647
0.831894
-1.77354
-0.152443
-0.0866888
0.239131
-3.07616
3.09756
-0.0213966
-1.33292
2.50045
-0.0447616
2.44279
3.34163
-1.12247
-2.21916
-0.065842
-0.46742
0.533262
-0.0139458
-1.05266
-0.0662697
-1.02353
-0.0291275
0.0720976
-1.20751
1.13541
-0.301778
3.35229
-3.05051
-3.09787
1.20095
1.89692
1.02281
3.29387
0.137015
0.0751526
-0.212168
1.92301
0.850022
-2.77303
-0.583475
1.16494
-1.39004
3.5561
-2.16606
-2.95311
0.397521
2.30813
0.963697
-2.68357
-0.0118007
-0.408052
0.419852
3.38997
-0.74415
-2.64582
1.07241
0.733434
-4.17523
2.1288
3.86876
-4.02023
-1.81607
0.468647
1.34742
-0.0704897
-0.396986
-0.0458868
0.442873
-1.45305
0.128475
1.32458
-0.0366135
0.407696
-0.371082
-0.606605
0.643754
-0.0371494
-1.94022
4.10594
-0.993939
1.02555
0.434114
-0.750575
1.25663
-1.85195
0.595313
-2.27074
-1.63622
-0.397124
0.529187
0.350126
0.124921
-0.475047
3.92391
-1.17495
-2.74896
0.407891
2.24963
-0.801746
-0.442734
-1.92145
0.296477
1.16285
2.05273
-3.21559
-0.032642
-0.021587
0.054229
-0.0841647
1.16174
-0.54374
0.197058
0.346682
3.27588
-1.5047
-1.77118
-3.43839
0.520374
1.26786
-2.31947
0.747799
1.57167
1.91994
-2.14819
0.692504
-0.582329
-0.474796
-0.292711
-2.03736
2.63332
-0.595957
0.487289
0.106175
-0.412723
-0.381782
-0.80349
0.659526
0.000727959
-0.531128
-1.61697
2.45577
-0.838796
2.4571
-1.37441
-1.08268
2.6016
-1.46385
0.797413
0.205168
-0.778952
0.645204
-0.0736972
-1.33194
-1.19039
-1.95505
-2.11885
1.46454
-0.713064
-0.194817
0.471497
0.214352
-0.202916
0.0504735
3.03381
-3.09224
0.0584328
3.45037
-1.71369
0.648679
1.06501
0.320243
-1.1532
-0.901486
-3.09123
-0.814226
0.680187
-0.572458
-0.911555
1.48401
-2.70557
0.564568
0.960217
1.19426
-2.15448
0.261833
-0.771976
-0.958107
-1.88869
3.36794
-0.653848
-2.14549
0.910588
-1.73232
0.821731
-0.855092
1.11617
-1.81697
-2.99773
1.05209
-0.331318
2.33807
-3.67701
2.45983
1.21718
-0.0455336
-1.04789
0.0563542
-1.14258
1.08622
-2.99734
-1.49944
-0.531833
0.511066
3.23324
1.36743
0.922059
2.92463
-2.89362
-1.58518
3.17591
-0.172121
-3.00379
2.16025
-1.46663
4.38761