/*--------------------------------*- C++ -*----------------------------------*\
| =========                 |                                                 |
| \\      /  F ield         | OpenFOAM: The Open Source CFD Toolbox           |
|  \\    /   O peration     | Version:  2306                                  |
|   \\  /    A nd           | Website:  www.openfoam.com                      |
|    \\/     M anipulation  |                                                 |
\*---------------------------------------------------------------------------*/
FoamFile
{
    version     2.0;
    format      ascii;
    arch        "LSB;label=32;scalar=64";
    class       volVectorField;
    location    "1";
    object      U;
}
// * * * * * * * * * * * * * * * * * * * * * * * * * * * * * * * * * * * * * //

dimensions      [0 1 -1 0 0 0 0];

internalField   nonuniform List<vector> 
13486
(
(5.69134 -0.778603 1.78329e-20)
(6.68532 1.39241 7.84202e-21)
(8.78446 0.132878 0)
(4.23753 -2.01509 -3.75969e-21)
(8.86636 -2.17218 6.1535e-21)
(9.57309 0.571036 1.22789e-21)
(9.92096 -1.90703 1.50297e-23)
(7.58508 -2.80848 -9.73168e-21)
(7.52795 -1.52336 0)
(8.02699 2.94786 0)
(-0.834265 -8.88183 -3.38434e-20)
(9.88377 -0.0220209 0)
(5.09697 -1.5897 -1.79215e-20)
(9.85626 2.8756 1.98912e-21)
(9.42141 -1.66333 3.04192e-21)
(8.00396 3.16426 -4.28118e-21)
(-12.4398 7.42483 5.72485e-20)
(5.69589 -1.73947 -1.86472e-21)
(9.39093 -0.126201 6.95128e-23)
(6.38186 -0.0990622 -1.76048e-20)
(5.42388 -2.84098 -1.5717e-21)
(5.15854 -1.62277 2.30881e-20)
(6.72936 1.31354 -6.28202e-21)
(8.89908 -3.29084 0)
(8.53126 2.35206 1.24369e-21)
(8.93607 -3.03598 -3.32898e-21)
(-9.77363 2.71188 3.55434e-20)
(9.28297 -0.409628 1.14229e-20)
(8.05022 0.0741827 0)
(8.47543 -1.20353 -6.44386e-21)
(5.11099 -2.51598 -1.07023e-21)
(9.95385 -1.31805 -3.45293e-21)
(10.689 -1.73916 1.09081e-20)
(8.00907 -0.219774 0)
(7.62465 -2.69666 0)
(7.74978 0.0130415 5.30705e-23)
(7.74812 0.29758 -8.80215e-24)
(6.17013 -2.89758 9.39477e-21)
(7.16972 0.328907 -2.29801e-22)
(7.67289 -0.989887 8.91001e-21)
(9.24774 -3.24846 0)
(4.33123 -2.02595 -2.12475e-20)
(8.14118 0.113462 0)
(8.28001 1.7664 -6.28574e-21)
(8.35918 1.73384 2.51949e-21)
(10.0345 -0.141821 2.14555e-21)
(4.87629 4.74826 1.5499e-19)
(8.0078 0.0755226 1.02851e-23)
(7.74877 0.326324 7.65768e-24)
(10.1456 -0.147912 6.48509e-21)
(8.00171 0.153007 9.01699e-21)
(7.36995 0.130996 0)
(10.4721 -0.386512 -1.64057e-21)
(6.3581 -2.33805 -1.35546e-20)
(5.30993 -1.94037 0)
(8.79186 -2.22424 -4.07729e-21)
(8.18654 0.3623 -2.59209e-22)
(7.1435 0.158288 -1.07284e-21)
(10.4821 -1.64749 1.25483e-20)
(7.81613 0.459256 0)
(1.07556 -9.32649 -2.35491e-20)
(7.78584 0.449691 0)
(15.7198 -1.21568 -2.37257e-20)
(5.58545 -2.86393 -1.83914e-23)
(6.5124 -3.10952 0)
(7.74455 0.286316 9.47414e-25)
(4.40683 -2.16919 -3.7989e-21)
(5.64221 0.314734 5.86504e-21)
(7.54078 -1.64713 -5.18361e-21)
(7.7158 0.019997 2.11566e-22)
(3.90849 -1.78511 4.38648e-21)
(6.59194 -1.85857 -1.57498e-22)
(7.67848 -0.502973 6.54496e-21)
(-1.85632 1.97803 -2.40938e-20)
(7.83886 0.390018 4.87343e-24)
(8.25582 0.36044 5.90182e-23)
(7.81962 0.386962 -4.03031e-23)
(9.42666 -1.73404 -1.25182e-21)
(3.41779 1.25626 -9.04822e-20)
(6.37259 -0.780161 0)
(7.99009 -0.00529304 3.25706e-23)
(6.55598 1.71985 -5.02873e-22)
(16.9971 -2.02404 -1.10711e-22)
(9.30042 0.232098 -2.94609e-22)
(5.66754 -0.815557 -3.47483e-20)
(5.98657 7.04544 0)
(4.66497 2.40273 -2.38907e-21)
(8.09482 0.276739 -1.36296e-20)
(7.58501 0.843924 -6.28041e-21)
(7.29532 4.14728 -4.40356e-21)
(10.4052 -1.18688 -1.4458e-21)
(8.10606 -2.47635 -5.0314e-21)
(5.88512 -1.21229 4.58231e-21)
(6.5102 0.441241 4.50361e-22)
(7.10219 -2.18928 2.14799e-21)
(8.00873 0.0787143 7.12582e-25)
(-8.97392 2.58119 0)
(5.5362 -2.84127 1.86135e-21)
(7.69061 -0.959139 -1.70073e-20)
(-12.8988 7.87033 2.12211e-21)
(8.03732 0.0329207 0)
(9.71375 2.92222 6.51066e-22)
(5.09995 -2.68657 7.79978e-23)
(7.29906 0.217577 1.25457e-21)
(5.55366 6.84572 0)
(-11.8472 6.75678 1.55711e-21)
(7.63794 0.252364 1.01668e-22)
(7.12074 0.268166 -5.40526e-22)
(5.14912 4.07667 1.13448e-19)
(7.73075 -3.54897 0)
(6.43499 -3.04607 0)
(9.879 -1.62494 -3.37419e-21)
(6.38574 -2.24613 1.22242e-22)
(8.25979 0.241416 1.44581e-23)
(4.23617 -0.0407605 0)
(6.31601 -2.99892 -8.18525e-21)
(8.43163 2.56267 0)
(8.09822 -0.169693 0)
(7.60233 -0.442069 0)
(7.80527 0.231282 -3.81417e-23)
(6.01395 -1.96336 1.11977e-21)
(0.382513 -8.96917 0)
(6.94968 -1.99666 0)
(7.1077 0.272607 7.64715e-22)
(7.22927 -2.62566 0)
(7.38891 0.191769 0)
(8.48094 -1.09522 1.9559e-22)
(8.62514 0.333174 1.50584e-21)
(7.73826 -0.0576571 -1.0303e-21)
(6.7037 -2.76952 -1.80948e-21)
(7.32749 0.125939 -1.16943e-22)
(6.11108 4.28168 -3.97106e-20)
(-0.33555 1.93578 2.5397e-20)
(-0.485722 -1.82436 3.48165e-20)
(8.00217 0.0703235 -1.5384e-21)
(7.53637 1.82007 -6.68423e-21)
(3.69526 3.00006 -4.85221e-21)
(7.58566 -3.4299 0)
(7.80497 0.248741 1.09226e-23)
(7.79177 -2.32937 -3.41025e-21)
(10.6919 -0.79923 -1.19647e-20)
(10.4966 -0.460521 1.2964e-21)
(10.0422 -0.815308 0)
(6.41196 -0.769771 0)
(8.0615 0.0220033 1.2274e-22)
(13.9548 -4.70761 -3.31257e-20)
(9.91769 2.33152 4.59097e-22)
(-3.0117 6.13577 0)
(10.1193 -0.169461 0)
(8.00934 0.0805943 0)
(8.06916 0.177509 1.21277e-22)
(9.41051 -1.957 0)
(7.96674 -0.0141136 -3.40877e-23)
(6.45989 1.65485 -4.27418e-21)
(8.66376 1.25021 0)
(8.96028 0.14883 0)
(7.54875 -3.39711 0)
(1.84014 -1.21915 6.73963e-24)
(6.73451 -2.68069 1.95082e-20)
(8.12115 0.936369 4.53259e-22)
(10.1081 -0.00150763 4.33074e-21)
(6.76029 -2.60981 -2.93067e-20)
(9.58716 -1.89158 3.73331e-22)
(3.93141 -1.9281 9.35498e-21)
(7.34218 0.108249 0)
(10.4016 2.77198 -3.94763e-21)
(9.55429 2.71282 -2.06009e-21)
(1.67206 -0.364455 -2.23943e-20)
(9.73609 2.23391 -1.06035e-21)
(-0.320242 -1.49577 9.7556e-21)
(1.13637 2.67952 3.31038e-21)
(8.57346 1.09775 1.43055e-21)
(8.03194 0.470774 -1.05501e-20)
(9.09306 -0.947678 2.94762e-22)
(7.93223 0.0480809 -2.38026e-23)
(4.41685 -3.84666 0)
(9.95987 4.24259 5.42354e-21)
(11.2243 -0.993734 1.74132e-20)
(7.78432 0.149289 -1.56305e-20)
(10.0428 -0.747824 0)
(7.79588 -1.20007 1.82251e-20)
(8.1081 0.140988 3.99454e-23)
(9.45574 -0.948628 -1.61889e-22)
(0.54575 -1.0698 0)
(9.53892 0.628198 6.97684e-22)
(9.08333 -0.325785 -5.24579e-21)
(8.0751 0.0657599 -3.7194e-24)
(8.40808 -0.748931 -2.03072e-21)
(9.01544 -3.28529 0)
(5.81803 -2.80526 -1.1012e-20)
(7.80064 0.31031 0)
(8.63633 0.138094 0)
(7.18969 0.109274 0)
(6.30708 3.86359 -8.91113e-21)
(7.04036 0.00726577 0)
(-2.08484 -9.26706 -6.45257e-21)
(6.5502 -2.86804 4.24791e-21)
(10.1053 -0.00417948 2.33633e-21)
(5.55691 -2.73012 -4.22359e-21)
(10.255 2.54822 -1.88405e-21)
(5.1169 -2.5878 1.14912e-21)
(8.70623 0.44519 -4.01808e-23)
(6.13897 -2.95985 -1.08866e-20)
(8.18792 -3.43897 2.08412e-21)
(8.07283 0.898792 -5.46144e-22)
(7.1273 -0.0329991 -1.07237e-21)
(5.71995 -1.96666 -8.75313e-22)
(7.27723 -0.0333347 1.32879e-20)
(7.09672 0.0847707 0)
(9.364 0.582969 0)
(9.09542 -0.48229 7.4403e-21)
(7.99784 -2.94917 4.92765e-21)
(6.42981 0.00467191 1.61647e-20)
(7.54007 0.27643 2.99295e-23)
(9.66201 0.68363 -1.41602e-21)
(6.985 -1.36046 7.23333e-22)
(8.65599 -1.13913 0)
(7.39352 3.83586 1.24279e-20)
(6.18876 -1.30117 0)
(12.7644 2.02983 0)
(-11.9536 7.41493 -1.04339e-19)
(10.2471 -0.126209 0)
(7.75402 -2.31275 8.01504e-21)
(9.95237 0.0483648 0)
(10.9935 -0.318557 -2.6751e-23)
(5.24871 -2.36014 6.63915e-21)
(10.1513 1.15229 -2.6384e-22)
(5.19473 -2.94317 7.71396e-22)
(7.07222 -0.789316 1.10307e-22)
(5.15978 1.96363 5.69455e-22)
(7.8155 -1.17384 -5.8357e-21)
(7.2059 -2.08469 4.94622e-21)
(10.705 -0.985089 1.50922e-20)
(4.22462 -1.96266 7.26595e-21)
(5.01746 -2.73548 0)
(5.08962 -2.46172 7.86266e-22)
(8.19992 -0.533425 3.42379e-21)
(8.60488 0.149712 -1.76255e-22)
(5.13298 -2.4419 2.16091e-20)
(9.5112 -0.616422 0)
(10.3759 -2.03983 0)
(8.02419 0.31261 1.61835e-20)
(8.3706 0.207376 0)
(4.9308 -2.44365 7.18558e-21)
(7.03172 0.550444 -3.97378e-22)
(7.18099 0.360618 0)
(9.56997 -0.169218 -1.16323e-21)
(8.78633 -2.20236 1.1579e-20)
(2.53709 -0.730033 6.32213e-20)
(8.17652 1.64891 0)
(3.75668 -2.7961 -7.91914e-22)
(4.12475 0.0513463 2.60153e-21)
(5.85769 -2.87077 1.04496e-20)
(7.06382 0.24881 0)
(6.73766 -0.653538 8.36573e-22)
(4.03824 -4.37619 7.54875e-22)
(9.93076 -1.23775 2.67169e-21)
(6.98366 -1.38734 -9.14031e-22)
(2.46315 -2.68726 -7.05777e-24)
(10.4446 -1.93176 8.05072e-21)
(7.1388 0.897949 0)
(7.05024 0.554216 -4.28562e-24)
(9.46409 -1.68038 -7.08985e-21)
(4.09428 -4.16721 -9.42562e-22)
(8.48908 -2.89401 -6.44648e-21)
(0.167771 -1.31433 0)
(7.24915 -0.784049 -1.93405e-21)
(5.09472 -2.62381 -1.64064e-21)
(8.00732 -0.0184324 -7.56199e-21)
(7.22306 -2.09299 0)
(6.03479 3.80157 6.25848e-21)
(7.75805 0.230461 -4.22974e-21)
(8.64026 -1.20561 0)
(10.2316 -0.00711087 1.32835e-21)
(5.39751 -2.48648 8.87742e-21)
(8.68921 -2.07473 -6.45928e-21)
(6.83127 -0.562519 0)
(6.05191 -2.17929 0)
(6.95228 0.221722 -6.07628e-22)
(10.4588 2.20055 -1.22045e-21)
(6.05336 -2.17573 2.37188e-21)
(8.32963 -0.849272 -6.50424e-21)
(7.7496 0.358088 9.3674e-21)
(9.83151 -4.77563 -8.65045e-21)
(-0.567791 -7.77942 2.20126e-20)
(-12.4333 4.18063 1.03539e-19)
(10.9866 -0.705043 1.48789e-20)
(7.84962 -0.148126 1.35481e-21)
(10.9169 -0.433498 -9.96216e-23)
(7.89367 0.0107111 0)
(5.08766 -2.6915 0)
(7.59214 0.724348 6.66296e-24)
(6.26393 -2.97375 8.22524e-21)
(8.04897 0.128991 -1.47463e-21)
(8.13961 -0.544957 3.19935e-21)
(8.27761 -0.63868 0)
(9.87871 -0.0728511 -5.50082e-21)
(10.1664 0.0681096 -1.01429e-21)
(7.52409 0.204074 -8.61044e-21)
(9.76559 -2.4309 2.33429e-21)
(7.67971 -1.72116 -5.85578e-22)
(5.25854 -1.79729 1.10609e-22)
(10.2288 2.16559 1.04008e-21)
(9.85398 -1.30178 3.2629e-21)
(7.74964 0.2501 2.85175e-23)
(7.13753 -3.47051 0)
(0.123422 -0.502272 0)
(9.26196 -0.266063 2.32099e-21)
(5.02246 1.60082 1.43434e-21)
(7.78256 0.262082 0)
(8.97528 5.81309 -5.21657e-20)
(3.65216 -1.84115 0)
(9.58653 4.19072 -1.56782e-21)
(10.0775 -1.53141 -3.305e-21)
(8.8587 -10.0992 0)
(7.65463 1.59816 -4.07563e-21)
(7.56783 0.741393 6.58153e-25)
(7.5801 0.854225 -5.38205e-22)
(7.42678 -0.0325461 -1.45591e-20)
(7.31284 -0.873033 0)
(7.8274 0.368568 -8.54302e-24)
(7.46211 0.613543 2.86786e-23)
(7.97335 0.163611 1.96579e-21)
(6.22967 0.69595 -8.40674e-21)
(2.63273 3.14113 9.02381e-21)
(10.372 -1.18814 2.57778e-21)
(8.69378 -1.59707 -1.84468e-20)
(8.28294 -0.845243 0)
(10.0598 0.564531 9.18142e-23)
(8.79097 -1.62552 -3.46714e-21)
(7.97772 0.164097 1.97653e-20)
(8.20468 -2.49796 0)
(10.5008 -1.25218 -3.90844e-22)
(5.85888 1.66485 0)
(9.7207 -1.97958 -5.55075e-21)
(7.32158 -2.06921 -5.82205e-21)
(3.14847 -1.40921 8.78671e-21)
(9.30929 -2.00931 -5.04083e-21)
(8.02693 0.688646 0)
(7.04633 0.596952 -5.03472e-22)
(7.14522 -0.812854 2.1084e-21)
(6.37556 0.688328 7.94973e-21)
(8.88145 -1.66208 1.32941e-20)
(9.4668 -0.956616 5.71638e-21)
(0.237942 -3.13058 -4.07678e-21)
(7.99023 0.0549795 -1.26567e-23)
(8.76491 -0.887987 0)
(4.08696 -1.30577 2.07627e-20)
(12.8526 2.02514 0)
(7.49577 0.700572 2.4791e-24)
(8.72126 -0.51456 1.05132e-20)
(10.3056 0.251466 -8.13951e-22)
(10.2599 -0.0354143 9.68238e-22)
(-8.00006 1.89916 -2.78527e-20)
(7.60456 0.210131 1.07714e-20)
(7.92722 -0.000801441 0)
(-1.66113 0.562677 -1.76889e-20)
(8.51036 -1.11115 -3.86172e-21)
(5.45031 1.40396 -5.35071e-22)
(7.92675 -2.7329 4.63183e-21)
(10.0538 -0.129554 0)
(10.8114 -1.02092 1.04282e-21)
(7.16945 0.60506 1.66229e-20)
(7.74809 0.341877 1.27835e-20)
(8.5004 -1.2507 0)
(8.01707 0.0183709 -7.72334e-24)
(8.23259 -0.651813 -3.2156e-21)
(7.84082 5.44323 1.85602e-20)
(6.21591 -0.0473208 2.25256e-21)
(8.52042 -0.957205 3.68336e-21)
(8.24444 0.0391037 -4.43505e-23)
(8.73696 -0.830854 0)
(11.1462 -0.121142 3.0662e-22)
(3.31095 -2.99061 7.9243e-22)
(9.56078 1.44961 2.24117e-21)
(7.87862 0.197413 7.63178e-21)
(6.71719 0.0164596 0)
(7.38269 0.66411 -3.22792e-22)
(9.9707 -9.2941 0)
(13.5361 3.78917 -1.16583e-20)
(8.06005 -0.0888708 0)
(8.1462 -2.79194 -1.76301e-22)
(5.38425 -0.390116 -4.90038e-21)
(5.84701 2.97525 1.50008e-20)
(6.55955 6.26139 -7.97955e-20)
(7.01296 -0.622359 0)
(9.18577 0.20706 3.36073e-22)
(8.05606 0.791076 -3.97031e-21)
(-5.84772 6.65974 -2.21187e-20)
(5.36144 -2.6003 1.58937e-22)
(6.58015 -0.0928212 -2.42941e-20)
(8.8764 -1.11363 3.34535e-21)
(8.41921 0.773193 2.43468e-21)
(5.77313 -1.68775 0)
(5.55704 1.30377 9.21181e-21)
(7.93239 0.278789 -8.768e-23)
(4.06538 -2.07052 2.17222e-21)
(3.40304 -2.86266 -2.77983e-21)
(-9.59981 7.85961 -5.28291e-20)
(10.9492 -0.721262 0)
(-7.5884 7.12164 0)
(8.47292 4.70877 0)
(8.20259 -0.379725 0)
(1.88715 -2.0899 -1.5379e-21)
(9.70979 -1.91447 0)
(8.83462 1.5743 0)
(6.5918 0.551439 3.29393e-21)
(11.1048 -0.96887 -1.78917e-20)
(8.63064 -0.788627 -8.6559e-21)
(6.77436 1.41823 2.68039e-20)
(8.02405 0.131158 -2.00065e-21)
(9.72001 6.57468 0)
(9.25745 -1.02244 0)
(7.56699 0.297734 9.14817e-21)
(8.00419 -0.0343702 1.56489e-21)
(5.17683 3.92347 0)
(1.33393 -1.29489 2.79826e-21)
(8.39632 -2.94653 7.23119e-21)
(2.45907 5.86441 0)
(9.42679 -0.563183 5.54386e-21)
(7.95188 0.223153 -1.04555e-20)
(4.4343 -1.09709 -7.88409e-22)
(4.08246 -1.2531 0)
(8.08268 0.88389 7.62799e-21)
(10.1178 0.551862 0)
(8.33454 -0.741585 0)
(8.77246 0.736248 -1.89343e-22)
(7.66193 0.389789 4.8365e-21)
(-10.0181 3.37815 -4.6671e-20)
(9.34551 2.64665 -2.14695e-22)
(5.27677 -1.2512 -8.76251e-21)
(8.03973 -0.328925 1.11964e-21)
(8.43808 0.735022 1.8013e-21)
(11.1821 -0.167665 -1.43968e-21)
(8.72563 -2.90864 0)
(9.06591 -2.10788 6.20202e-21)
(5.44127 -0.141557 0)
(7.5089 0.732739 3.26666e-23)
(9.04116 -0.945137 0)
(5.72364 0.316551 1.24828e-20)
(-3.5941 9.28614 -1.06802e-19)
(8.81847 -1.03834 0)
(-3.01139 0.56969 1.59271e-21)
(9.1733 -1.12963 -7.73511e-21)
(7.19039 2.00286 -5.94513e-22)
(6.93479 -0.977801 2.35658e-20)
(5.73552 3.06229 -9.3647e-21)
(5.27366 -1.2185 -2.49643e-20)
(14.4164 3.41521 0)
(7.84999 0.285906 6.56696e-23)
(0.00486409 -3.36228 -1.11673e-20)
(7.963 0.922786 0)
(7.46752 0.883047 5.89653e-22)
(9.95542 -0.182224 -1.35882e-21)
(11.1686 4.18057 0)
(7.94054 0.0235425 0)
(3.56313 -1.82652 0)
(4.45187 -3.88518 3.27162e-21)
(9.55518 -5.03188 1.02456e-20)
(12.9816 -4.56149 1.97762e-21)
(9.50526 3.97718 0)
(6.70759 -0.653398 1.58793e-20)
(7.9746 -0.00133178 1.45238e-23)
(9.2911 2.38191 9.69656e-22)
(5.90019 -2.8919 3.30021e-21)
(7.54284 0.873962 0)
(8.04099 0.0736643 0)
(2.99319 -0.355291 -1.38485e-20)
(5.68144 -1.64832 -6.20251e-21)
(7.58254 -0.724796 0)
(6.98338 -3.27186 -7.96836e-21)
(8.18062 0.0268706 -1.26622e-23)
(8.00869 0.0596854 -1.18205e-23)
(3.41386 -1.48254 0)
(7.47452 -0.0263345 1.34027e-21)
(7.81636 0.200855 4.06223e-23)
(10.093 0.540719 5.19149e-21)
(7.30566 -2.16999 0)
(-12.034 5.26208 -1.58344e-19)
(10.2713 0.170874 1.10771e-21)
(7.95746 0.337025 1.70052e-21)
(8.03731 -0.0222682 -2.12914e-23)
(10.5818 2.62477 0)
(6.71916 1.45335 -7.11205e-21)
(12.3962 0.797606 -8.93861e-21)
(-11.2431 8.25076 1.05831e-20)
(7.88269 0.102801 0)
(5.17609 -2.51878 -1.63083e-22)
(1.89995 -0.176883 0)
(8.0349 0.12227 -6.61565e-21)
(7.93922 0.302035 3.04036e-21)
(7.35581 0.228535 -1.79481e-21)
(4.26436 -3.98215 0)
(9.39045 0.0031814 -6.26784e-22)
(4.50162 2.0402 2.49728e-20)
(8.65878 -2.89124 0)
(6.41363 0.484196 1.02238e-20)
(9.58053 -2.46408 -2.68406e-21)
(8.58905 0.061441 0)
(4.99812 -2.67154 7.77563e-22)
(6.43924 -0.697111 -1.73245e-21)
(8.26132 0.00114459 0)
(-11.4754 5.58284 1.15476e-19)
(7.43534 0.77001 0)
(6.92864 -3.16567 8.04665e-21)
(3.77131 -2.96972 1.67578e-21)
(8.10264 0.0769475 3.81974e-24)
(9.68551 0.615441 -2.94883e-21)
(5.48436 1.26363 4.90208e-21)
(6.99157 -1.12624 -8.63522e-21)
(6.98984 -0.489879 -8.8406e-22)
(6.95687 -3.10374 8.19319e-23)
(8.49431 -1.01451 3.54007e-21)
(10.6075 2.56435 7.9015e-21)
(8.13465 -3.68519 0)
(7.99273 0.0525442 -6.76159e-21)
(1.61159 7.04886 -1.39094e-20)
(5.49936 -0.173381 0)
(7.89464 0.228934 2.30428e-23)
(7.48153 0.0387927 0)
(4.89622 -1.30403 2.18967e-20)
(8.01232 -3.00317 0)
(7.99123 0.0559682 -1.2693e-22)
(8.65191 -0.393799 -6.01476e-21)
(5.10085 -2.7329 1.44909e-21)
(4.27949 -2.08118 2.54533e-21)
(9.97702 0.0420363 -4.54731e-23)
(6.991 -3.35459 7.66182e-21)
(6.92041 -2.00369 8.6691e-21)
(5.87804 -1.22666 0)
(-2.65097 0.631057 -5.86923e-21)
(8.82122 -2.75712 -1.46609e-21)
(-3.57386 -0.418683 -6.95439e-21)
(7.97479 0.0666429 -1.03013e-24)
(5.75537 -2.12343 0)
(8.63447 0.0093342 -2.23948e-23)
(0.883298 -1.3372 0)
(4.86416 -2.71109 6.35178e-23)
(5.11433 -1.35996 1.15357e-21)
(-0.363497 -0.209958 0)
(7.96919 -2.16839 2.52779e-21)
(6.46591 -2.99839 0)
(11.1101 3.92069 0)
(6.60512 -3.14563 -1.05673e-20)
(5.98479 1.43622 7.42556e-21)
(6.02369 -1.24392 0)
(7.13857 0.722777 -4.51993e-21)
(13.9391 -4.79707 3.97122e-20)
(2.81135 -3.23207 3.99512e-21)
(11.3968 5.37214 0)
(8.22511 -0.0429336 0)
(-0.677848 -3.75194 -6.19058e-21)
(7.39975 -0.395297 0)
(9.31354 0.332259 0)
(1.57242 -8.99839 -1.40187e-21)
(7.97628 -1.63983 -1.18686e-20)
(6.82276 -1.64198 7.34606e-21)
(10.2706 -2.15485 1.14271e-21)
(-2.33443 -0.426553 1.03008e-20)
(7.97693 0.208031 3.50808e-21)
(6.02309 -1.32395 0)
(8.68353 1.87192 -7.50395e-22)
(5.67409 -0.693254 0)
(9.19528 0.116756 0)
(7.90548 0.419194 0)
(8.78097 0.761108 -1.53464e-22)
(7.27164 -0.0174201 6.73442e-21)
(8.36998 0.126301 -1.09571e-22)
(6.17826 -1.36868 0)
(-8.40698 2.34865 -2.59799e-20)
(8.36998 4.4664 5.1598e-22)
(7.21537 -2.64976 8.34378e-22)
(7.42179 -0.124575 -2.0971e-21)
(8.5419 -1.99171 1.02254e-20)
(8.11502 0.184864 -6.04798e-21)
(-2.37436 10.5353 0)
(10.1681 0.110078 0)
(5.6037 3.66941 0)
(4.90507 -2.09163 -1.60876e-20)
(5.71768 -2.75354 -1.96845e-21)
(-0.494241 -1.65503 0)
(8.70937 1.8563 0)
(10.8681 -0.50995 5.09147e-22)
(7.8956 -0.102828 -1.75105e-21)
(7.68637 2.55959 6.53613e-21)
(8.34436 -3.44802 0)
(-5.70365 -3.42655 -9.60173e-21)
(9.15563 0.221585 -8.86089e-22)
(5.5418 -1.51571 -1.47497e-20)
(8.65694 0.372903 -4.55998e-22)
(9.35545 2.40864 -1.30307e-22)
(7.55981 -4.00794 3.81143e-21)
(4.8447 -2.06528 2.77366e-20)
(6.93815 -1.98898 3.22065e-21)
(8.31566 0.271546 4.81157e-23)
(7.91983 0.0861136 -1.76151e-21)
(6.2468 -3.04257 -2.40212e-21)
(6.39509 -0.541516 7.81144e-22)
(7.37666 9.24622 4.54264e-22)
(6.81208 -3.23323 4.17025e-21)
(9.82353 0.686795 0)
(5.70776 4.14843 1.04377e-21)
(8.33404 -0.0106011 -4.22721e-21)
(11.6687 2.52691 4.84391e-21)
(5.40535 -1.37698 -1.34522e-20)
(7.19159 -2.56712 -8.91963e-21)
(8.32499 -0.224979 1.69486e-20)
(9.44988 -0.222264 -9.74016e-21)
(9.11289 -3.22011 4.01918e-21)
(11.0301 -0.566105 -7.68926e-21)
(4.55533 -0.434684 -2.93495e-20)
(8.51261 0.0510442 -3.01649e-21)
(4.52028 -0.766885 0)
(5.1803 -2.86969 -3.25552e-21)
(8.09543 -0.0331212 1.55282e-20)
(7.58961 0.0661662 3.46668e-24)
(-0.86101 3.58377 0)
(7.36818 -3.39537 0)
(8.18659 1.49942 5.3648e-21)
(4.09929 -0.40569 1.82521e-20)
(6.31721 -3.73517 -4.50256e-21)
(8.24283 -2.78221 -4.49648e-21)
(8.74829 -1.61404 1.01145e-20)
(12.9756 1.72043 0)
(8.25616 1.62628 2.80602e-21)
(5.46273 -1.78909 -2.02093e-22)
(10.1656 3.9919 5.54287e-21)
(7.78058 -1.05301 -1.0286e-20)
(-2.2031 -0.52252 -1.54821e-20)
(8.45734 -1.82105 -1.00159e-20)
(9.04063 -2.17982 3.29024e-21)
(9.28694 4.83429 0)
(7.62699 -0.900926 -1.42728e-21)
(7.40684 0.228137 1.66196e-21)
(7.97398 0.0407531 1.36978e-23)
(3.90362 -1.87879 2.57412e-20)
(7.64189 -1.05863 1.54922e-20)
(8.03229 0.865774 -1.85314e-22)
(2.93065 -3.05711 -2.13583e-21)
(8.54489 -0.450914 -3.74906e-21)
(8.52402 0.0895664 2.70402e-21)
(-1.63208 -7.03199 -2.96081e-21)
(9.82911 3.96625 -6.54064e-21)
(-12.0188 7.13798 -1.25469e-19)
(5.26796 -2.53308 -8.51905e-21)
(7.96747 0.0195866 0)
(8.16983 0.359134 -2.39369e-22)
(2.26713 -6.37897 -3.18297e-21)
(5.33202 -0.479605 2.62386e-20)
(8.11583 0.0433923 0)
(8.27306 -1.72356 -1.95765e-22)
(4.68945 -1.8114 6.28104e-21)
(7.93167 0.166894 -1.47084e-20)
(2.01668 -2.14155 -2.30345e-21)
(5.86917 -1.17393 -6.02472e-22)
(8.66615 -0.796871 5.93256e-21)
(8.91619 0.175674 -6.6983e-22)
(7.00797 -3.21313 -1.11375e-20)
(8.2354 0.159082 1.67075e-22)
(5.72243 -2.95125 -4.86106e-21)
(8.32496 0.0302592 3.96971e-21)
(8.03059 -0.351152 -4.84928e-21)
(8.42746 0.430762 -6.38505e-23)
(8.80913 -0.257695 -1.0452e-20)
(4.48917 -1.86741 -1.21328e-20)
(8.21168 0.17502 0)
(4.71114 -3.25828 2.24357e-21)
(8.25312 0.194493 1.16678e-21)
(3.98891 -0.794551 -1.60525e-21)
(9.44897 0.162916 -2.28768e-21)
(8.53442 -1.69935 -6.30073e-21)
(7.98986 0.079263 -1.10633e-20)
(8.34215 1.21127 1.41044e-21)
(1.52918 -1.22212 -2.8762e-21)
(9.40549 0.342918 0)
(7.3176 0.67646 1.80211e-22)
(10.2521 0.421459 8.34251e-22)
(5.77758 -2.05419 0)
(8.45087 0.404418 2.01132e-21)
(9.97522 0.629358 9.50447e-22)
(9.06099 0.249374 1.45097e-25)
(9.71867 -3.68748 -7.26119e-22)
(7.20916 -0.0416162 0)
(7.0646 1.62895 1.27589e-20)
(8.13999 0.76708 2.47621e-22)
(6.68823 -3.15517 9.06444e-21)
(7.95385 -0.746616 0)
(5.9067 1.38275 -2.15113e-20)
(6.02738 -1.81124 1.09369e-21)
(10.2669 6.00425 -1.20214e-20)
(4.59755 -0.515955 2.87205e-20)
(8.27243 -0.0540943 1.30248e-22)
(4.27224 -2.12549 1.90428e-21)
(7.59881 -0.380743 -1.05483e-20)
(9.3688 -1.89616 -9.20215e-21)
(7.15242 0.673382 -9.56809e-21)
(8.26469 0.00716509 0)
(7.91853 0.000237484 -6.69389e-21)
(-1.46216 -0.483303 6.72698e-21)
(-3.06355 -1.24933 0)
(8.31552 -3.02201 0)
(7.96874 0.0578133 0)
(-12.3558 8.37858 0)
(8.25394 1.25684 0)
(4.35903 -0.389028 0)
(7.14587 -1.38681 -8.00088e-23)
(12.0227 -4.35503 -1.52321e-20)
(10.2539 1.1872 0)
(6.6943 1.39387 1.90952e-20)
(6.41382 -1.81428 -3.93531e-21)
(8.2604 0.873213 2.05572e-22)
(1.98441 -7.13854 -2.51245e-21)
(4.44057 0.393042 -8.95974e-23)
(1.95532 -1.72093 2.07285e-21)
(8.86954 -0.124844 -3.70974e-21)
(10.1492 -0.24961 8.76495e-22)
(8.11109 1.28573 -3.7145e-21)
(7.56477 0.761697 -1.2691e-20)
(8.09225 4.16503 -3.24671e-21)
(14.204 3.85252 0)
(5.68876 -2.90345 5.82576e-22)
(4.95863 -1.37464 -2.39739e-20)
(8.26932 -0.0143079 -2.03859e-20)
(8.9209 -2.72904 -8.59831e-21)
(8.21736 -0.087246 1.65971e-21)
(10.3125 -2.67992 1.0428e-21)
(8.30301 -1.25763 -1.33683e-21)
(8.00601 -2.11383 -8.75417e-21)
(8.03007 0.624579 4.11524e-21)
(9.75921 6.85759 0)
(6.97781 -0.40162 -8.01152e-22)
(6.78836 0.418508 -2.9819e-21)
(9.74788 -1.82192 0)
(7.02803 0.165986 0)
(7.33287 -3.35504 -7.00409e-23)
(4.2652 -2.20207 2.15787e-21)
(7.14828 -1.42424 -3.60018e-21)
(7.50511 0.159243 0)
(7.56812 -0.121659 -1.37908e-20)
(7.26212 0.798714 -2.47406e-21)
(4.83958 -3.03325 1.28253e-21)
(9.69674 0.646431 7.10441e-22)
(2.60737 -1.84191 0)
(5.47081 -2.87131 6.8186e-22)
(9.93759 0.666023 0)
(7.47633 -0.921184 1.53098e-21)
(10.5112 -1.08207 -1.13905e-21)
(7.93253 0.158114 -4.71546e-24)
(9.49837 2.75872 3.66732e-21)
(11.2212 4.75167 -1.25273e-21)
(6.7207 -1.94152 1.79403e-20)
(5.13929 -2.14086 0)
(6.38953 -2.74356 -4.15573e-21)
(6.02431 -1.67051 0)
(10.446 1.0466 -2.25025e-21)
(4.69571 -2.94707 2.51762e-21)
(8.29653 -2.98265 6.38953e-21)
(7.2367 0.570652 -2.35893e-22)
(3.86115 -4.96219 -5.6429e-21)
(6.00793 -2.81378 -1.04691e-20)
(5.10018 -1.38861 -1.39276e-20)
(7.83836 0.180853 3.32471e-23)
(6.51461 -2.6386 3.38405e-21)
(4.56954 -1.90358 9.94735e-21)
(5.34433 -1.50432 1.50902e-20)
(5.71178 -2.69329 2.3763e-21)
(6.84706 -2.85949 -2.11522e-21)
(7.16596 -2.23722 8.8796e-21)
(3.37857 8.04126 7.48019e-20)
(8.35488 0.0707866 9.83198e-23)
(5.26517 -1.82445 3.5335e-21)
(9.28433 1.56671 2.57794e-22)
(8.7018 -2.2981 0)
(-10.2557 6.7994 -1.12071e-19)
(8.1155 0.0137975 -5.28336e-21)
(7.98979 0.591472 0)
(10.3472 1.04998 0)
(6.13374 -2.27532 -2.80744e-21)
(9.95457 -2.58448 -1.00703e-20)
(9.5646 0.785289 4.58749e-21)
(7.93279 -1.59688 1.56036e-20)
(7.99878 3.99939 3.29935e-21)
(7.4677 -0.0101011 1.09457e-20)
(4.60418 -3.07456 -1.00584e-22)
(7.12252 2.72413 0)
(5.49501 -1.62545 1.43836e-20)
(2.73147 -8.563 2.19691e-20)
(3.85988 -4.70966 4.17577e-21)
(6.71851 -2.57509 3.01482e-21)
(7.41774 -3.45415 -2.45515e-21)
(8.78054 -0.000324286 5.31194e-21)
(7.15156 0.386513 2.26786e-22)
(8.41644 -1.12631 6.87882e-21)
(4.55785 -3.10647 -1.71527e-21)
(9.46905 0.751581 -3.40116e-21)
(7.70626 0.148513 5.353e-21)
(4.49552 -0.724328 -1.18175e-20)
(7.41794 -0.314862 8.632e-21)
(9.02364 -2.8631 0)
(9.57005 1.37523 -3.57519e-21)
(7.90348 0.136308 1.1771e-21)
(5.84644 -1.09635 -4.59261e-21)
(8.02065 6.92893 3.47211e-21)
(7.05347 -2.17442 6.60048e-21)
(7.94595 -0.00459533 2.34716e-21)
(5.50279 0.710004 -1.68629e-20)
(9.89494 -1.82964 0)
(7.34142 0.564116 -3.81657e-22)
(8.80761 0.404338 6.20257e-22)
(7.4529 -0.219686 0)
(5.68716 0.274651 9.70556e-21)
(9.64194 0.618207 0)
(6.66471 7.64581 -1.26916e-22)
(9.28679 -0.247822 0)
(7.05383 -0.488049 0)
(9.918 0.0348391 1.15041e-21)
(9.55091 0.551868 -1.91962e-21)
(11.3755 0.147527 -1.33704e-20)
(7.67828 0.689951 -5.63599e-21)
(6.12745 4.37918 -3.81207e-21)
(8.14254 0.309249 -2.02088e-21)
(8.3324 1.17632 0)
(15.1589 -3.97762 -9.42239e-21)
(9.81684 0.52004 3.77406e-21)
(7.43237 -0.860677 -3.16342e-21)
(8.70738 -2.28641 0)
(11.7909 2.41884 7.2664e-21)
(9.03319 6.65135 8.59139e-22)
(8.3219 0.0670281 6.08961e-22)
(6.06874 -5.33586 0)
(2.65862 -9.47857 1.50512e-20)
(8.04701 0.632613 0)
(8.51027 -1.01471 -3.50543e-21)
(2.75494 -0.0800349 0)
(17.4012 -3.39599 0)
(6.88673 -2.07464 0)
(7.86767 -2.97846 0)
(-3.58093 -8.08961 -6.81028e-21)
(4.60746 -3.78328 -7.04838e-22)
(7.41874 -0.0379418 -1.00606e-20)
(5.1021 -2.75816 -1.76696e-21)
(4.94624 -1.99328 0)
(5.2501 -2.92479 -1.36637e-21)
(1.73983 0.548247 -6.27093e-20)
(6.2702 -2.95802 0)
(5.77464 -1.89431 -1.5525e-20)
(7.85552 0.41214 2.22664e-23)
(9.23295 1.50683 -1.0041e-21)
(9.36707 -3.30809 2.36941e-21)
(7.33685 0.614302 0)
(8.46426 -2.79816 0)
(13.34 -0.395002 7.65425e-21)
(6.47678 -0.383949 1.8404e-22)
(7.7298 0.229218 -5.77902e-23)
(6.12061 -2.27477 3.871e-24)
(7.95265 0.0165469 4.99794e-22)
(8.20595 0.377515 1.74609e-23)
(7.94109 0.673732 5.91692e-21)
(7.4359 0.640087 1.34416e-22)
(7.30535 -2.00499 0)
(-10.4784 1.82928 0)
(8.36838 0.156142 0)
(7.71256 0.074424 0)
(6.82666 -1.20464 6.40991e-21)
(10.2088 -0.610046 0)
(-0.274635 -9.69487 4.95357e-20)
(7.27588 -3.94014 -2.43808e-22)
(5.2264 -1.56646 -2.2808e-20)
(5.29174 -2.14783 1.7009e-21)
(4.8576 -3.34371 -1.22502e-21)
(2.48146 -11.5495 -3.74324e-20)
(7.95426 0.069962 1.84964e-21)
(4.21736 -3.29569 -1.67803e-21)
(7.49894 0.65213 8.58402e-23)
(9.89325 0.0313632 0)
(9.20882 -1.68358 0)
(4.30575 -2.78582 0)
(8.47744 -1.7839 3.34063e-21)
(6.68055 -2.9515 0)
(7.26656 2.59922 0)
(7.96071 -0.0135487 0)
(6.90653 -1.64086 6.87059e-21)
(8.25322 0.850852 -4.85592e-21)
(7.47477 0.0269439 0)
(7.31577 -1.42353 -3.44855e-21)
(7.8687 0.759815 -6.25685e-21)
(10.009 3.78306 -1.18846e-20)
(6.33503 -2.93348 9.45897e-21)
(7.67011 2.922 7.36487e-23)
(6.38332 -0.914196 -1.5257e-22)
(6.98108 0.279411 5.97181e-22)
(6.94703 -0.7244 -1.6876e-21)
(9.41897 0.570458 2.75506e-21)
(7.74267 0.19227 -1.09912e-22)
(7.20097 0.418428 -9.47425e-21)
(8.29153 -0.0142479 0)
(5.09884 -0.986461 1.22077e-21)
(7.74294 0.255567 9.44404e-21)
(5.88273 -2.11286 1.07175e-21)
(8.26469 -1.16182 -3.90233e-21)
(4.20971 -0.5141 -1.98536e-20)
(9.41005 0.44782 -5.01944e-22)
(12.4936 1.00234 1.2931e-20)
(8.05964 0.396678 0)
(7.66386 4.60581 6.16505e-21)
(7.35995 0.232336 -1.94812e-22)
(7.01338 -0.787112 3.29249e-21)
(5.51646 -2.79402 -3.76577e-21)
(7.8682 0.0010882 5.09071e-21)
(8.27865 0.21121 -5.06722e-23)
(8.0953 -0.0386874 -1.04083e-22)
(8.35161 0.0960877 0)
(5.93009 -1.52523 0)
(5.97833 -2.84861 1.1749e-20)
(2.26919 -1.96614 2.48796e-21)
(7.98362 0.0516589 -6.63618e-24)
(7.77634 0.266037 1.9056e-20)
(8.26387 3.9601 -2.1311e-20)
(5.90266 1.21642 0)
(7.1501 0.490441 0)
(6.29412 -1.2792 -6.3642e-23)
(9.79729 0.0081034 1.70588e-21)
(7.81363 2.64595 8.438e-21)
(9.95133 -0.716443 0)
(8.45123 0.0600034 0)
(8.14661 -2.39562 1.23896e-20)
(7.67844 -0.573741 8.18958e-21)
(0.628084 -0.0784394 -8.91107e-22)
(7.66856 -0.0501192 0)
(17.4697 -2.19549 1.48293e-20)
(7.74932 -1.82247 -1.30462e-21)
(2.27704 -6.04062 -4.22975e-21)
(7.85635 -0.0453426 -1.09968e-20)
(12.3556 -3.68033 0)
(10.0669 -2.65647 7.92341e-21)
(6.5398 -5.14706 -7.02738e-21)
(0.846275 -0.0171894 0)
(7.74258 0.117643 -6.14361e-23)
(7.71189 0.425211 -6.21378e-21)
(8.04822 0.0136928 2.20674e-26)
(10.7099 -1.28683 7.02811e-22)
(6.6923 7.31374 1.54496e-20)
(8.40888 0.0681434 0)
(4.1453 -1.39244 -1.27583e-22)
(8.75891 3.03829 2.02551e-20)
(8.64595 -8.7705 -2.4461e-20)
(8.14417 1.37137 4.39859e-21)
(5.3394 -2.25572 9.38797e-22)
(8.15883 -0.0642642 -2.38346e-20)
(7.96147 0.851085 1.18655e-22)
(6.99237 0.465308 4.37409e-22)
(6.79071 -1.47698 0)
(7.26809 -0.00333681 -1.27858e-21)
(4.40756 -1.93991 8.04084e-21)
(8.71101 -0.370638 -1.17612e-20)
(7.81236 0.160054 -8.58603e-21)
(8.39164 -0.948634 3.22464e-21)
(6.61683 -0.535248 2.31016e-20)
(8.38931 0.0486181 -1.28768e-22)
(7.10603 0.509551 5.42364e-21)
(7.82977 0.312087 3.81641e-23)
(10.2878 -2.22644 -1.31399e-20)
(10.1222 4.2765 -9.1586e-21)
(6.40003 -3.87414 3.51336e-21)
(8.2296 -0.246217 0)
(2.81147 -1.06107 0)
(4.02762 -2.07034 0)
(5.2052 -1.41325 1.75264e-20)
(8.17642 0.0881996 -1.35821e-20)
(7.18237 0.906328 0)
(5.97546 -1.16383 -1.36032e-20)
(7.18557 0.864823 0)
(6.90139 -1.08336 -1.05249e-20)
(7.29524 -0.845127 -3.37857e-21)
(7.27069 -1.88916 -9.67439e-21)
(8.56489 0.126952 0)
(7.61849 0.0607006 0)
(7.59159 -0.228027 1.92047e-21)
(10.1143 1.04695 2.62485e-22)
(9.99025 -0.304222 6.08123e-21)
(9.38839 6.9624 -6.40813e-22)
(10.1225 -1.04841 0)
(6.75866 -2.50039 -4.99606e-21)
(-4.8514 -2.46203 0)
(2.94468 3.14796 -8.93406e-21)
(11.3327 4.66979 0)
(8.27299 0.199579 1.09437e-22)
(4.58492 -0.318375 7.61511e-21)
(5.94989 -0.360933 7.50749e-21)
(7.74558 -0.0454683 -1.92641e-21)
(7.1638 -3.67307 -1.42001e-20)
(7.66689 -0.763252 2.07316e-20)
(8.40341 1.28341 -2.01405e-22)
(9.50757 -2.6294 -1.21751e-21)
(7.7594 -1.78371 -4.82438e-21)
(-1.79833 -0.590597 2.51134e-20)
(10.3697 1.72083 0)
(7.89177 0.235183 2.67745e-23)
(6.07664 -1.37619 0)
(7.13679 0.458924 -4.83641e-22)
(6.82377 -2.48842 -2.59838e-21)
(6.69419 -0.425091 -7.59543e-21)
(8.01961 0.0175629 8.57493e-24)
(10.0497 0.0396063 -5.777e-21)
(6.64143 0.0202108 1.55305e-20)
(9.57332 -0.350197 -3.82294e-21)
(7.78139 0.225157 0)
(-4.91917 -2.9115 0)