/*--------------------------------*- C++ -*----------------------------------*\
| =========                 |                                                 |
| \\      /  F ield         | OpenFOAM: The Open Source CFD Toolbox           |
|  \\    /   O peration     | Version:  2306                                  |
|   \\  /    A nd           | Website:  www.openfoam.com                      |
|    \\/     M anipulation  |                                                 |
\*---------------------------------------------------------------------------*/
FoamFile
{
    version     2.0;
    format      ascii;
    arch        "LSB;label=32;scalar=64";
    class       surfaceScalarField;
    location    "6.5";
    object      phi;
}
// * * * * * * * * * * * * * * * * * * * * * * * * * * * * * * * * * * * * * //

dimensions      [0 3 -1 0 0 0 0];

oriented        oriented;

internalField   nonuniform List<scalar> 
7520
(
-0.990911
0.802862
0.188049
-1.34058
-0.191508
1.53209
-0.0773475
-1.89349
1.97084
0.227558
-0.0305454
-0.197013
0.197447
1.66949
-1.86694
-0.0871799
0.0938344
-0.00665459
-0.315423
2.12756
-1.81214
-0.18059
-1.92272
2.10331
-1.55417
1.47683
0.839872
-0.0933506
-0.746521
0.374485
-0.276723
-0.0977621
-0.255181
-1.61954
1.87472
0.703441
-0.107829
-0.595612
-0.097716
0.135113
-0.0373975
-2.02953
0.943892
1.08564
0.104484
1.55636
-1.66085
0.209625
-0.0939806
-0.115644
-0.157585
-0.253481
0.411066
0.035222
0.0206707
-0.0558927
-0.0149449
0.22457
-0.405257
-0.2803
0.685557
-1.07092
1.1754
-0.0316105
-0.307766
0.339377
0.134024
-0.139264
0.00524001
0.1022
-0.310259
0.208059
0.245566
-0.239891
-0.0056757
0.854507
1.13168
-1.98619
-0.0355977
0.308997
-0.273399
-0.0278551
0.0630771
0.194374
-0.0309087
-0.163465
-1.14573
1.74702
-0.601287
-0.0473386
-0.0180103
0.0653489
-1.84611
2.02113
-0.175016
-0.231894
0.0618857
0.170009
-0.290831
-1.25296
1.54379
-0.403338
0.979668
-0.57633
0.253925
-0.527145
0.27322
0.799156
-1.58967
0.790517
0.0876756
-0.308733
0.221058
-0.0438588
-0.0992603
0.143119
-0.0273812
0.25494
0.343915
-0.26997
-0.0739448
0.280015
-0.0344482
2.07947
-1.57523
-0.504235
-0.543412
-0.620773
1.16418
-1.5025
1.62694
-0.124443
-0.149732
-0.0541713
0.203903
0.256266
-0.0723126
-0.183953
-1.33629
0.190562
0.267031
-0.073158
-0.193873
1.80078
0.188389
-1.98917
-0.72322
0.272647
0.450574
0.0135956
-0.00706853
-0.00652706
1.05594
0.484555
-1.54049
0.0144787
-0.101659
-0.779888
0.134704
0.645184
0.404184
-1.26537
0.861183
-0.0403704
-0.120364
0.160734
-0.114975
0.0676368
-2.19311
1.11436
1.07875
1.55383
-0.736916
-0.816917
0.0110126
0.152695
-0.163708
-1.28443
0.993604
0.82383
-0.120389
0.0248802
-0.0112846
0.00395643
-0.101672
1.13261
-2.33575
1.20315
0.139913
1.66087
-1.24961
0.978816
0.270793
0.307655
-0.232032
-0.0756226
-0.493079
0.897263
0.0837192
-0.698751
0.615031
0.331564
-0.0907471
-0.240816
0.199633
-0.339163
0.13953
0.925314
-1.52808
0.602766
0.123783
-0.108401
-0.0153824
1.68272
-0.52569
-1.15703
0.38845
-0.740118
0.351669
1.69176
-1.19924
-0.492529
-0.834943
0.0550551
-1.48483
-0.708284
1.2201
-0.612531
-0.607564
0.234525
-0.603928
0.369404
-0.325157
0.0932626
-0.467187
0.309602
0.211006
-0.0166325
0.00989768
-0.0472064
0.0373087
0.959126
0.723598
-1.95142
2.28277
-0.331348
0.71837
0.835463
-0.952235
1.11162
-0.159382
0.0101051
-0.0543732
0.0442681
1.37071
-1.62589
0.236486
0.190571
-0.102895
0.35425
0.249564
-0.603814
0.00725849
0.0811905
-0.088449
-0.512243
0.38257
0.129673
1.37283
-0.447512
-0.717518
0.61696
0.100558
0.993631
-1.58757
0.593936
-0.085637
0.107589
-0.0219524
-0.0177132
0.0218677
-0.00415444
2.92517
-1.71634
-1.20882
0.523153
-0.410312
-0.580599
-1.31982
0.826736
-1.93354
1.61812
0.160981
-0.0779391
-0.0830419
0.255959
0.118527
-0.153572
0.152408
0.00116476
-0.12256
0.164006
-0.041446
1.93941
-1.14026
-0.0936059
0.0245545
0.0690514
-0.766842
0.361585
0.0174026
-0.0450624
0.0276597
0.47888
0.741215
-0.794357
0.498907
0.29545
1.33189
-1.70543
0.373543
0.0346166
0.0994076
-0.199767
-0.523453
-0.38246
0.100697
0.281763
1.04017
-0.200298
0.52855
-0.463928
-0.0646217
-0.0510176
-0.0629822
0.114
-0.171061
0.148078
0.0229827
0.707527
-1.83711
1.12959
0.378339
-0.409949
-0.339355
-0.0491162
0.388472
-0.0309261
-0.0626799
-0.271006
-0.275173
0.546179
0.138924
0.0317041
-0.170629
-0.0631895
0.202114
-0.601038
-0.193319
-0.530134
-0.535461
1.06559
-1.08984
2.18757
-1.09773
0.402516
-0.415408
0.012892
-1.15105
-0.168768
-0.032866
-0.0494253
0.0822913
1.39574
-0.339802
-0.64429
0.41683
0.227461
-0.00372394
0.117854
-0.11413
0.281343
-0.0724305
-0.208912
0.253085
-2.14658
0.31294
-1.81544
-2.54641
0.768909
1.7775
-0.837961
-0.411648
-1.38004
1.32409
0.0559432
2.05453
0.250437
-2.30497
0.17698
-0.220839
0.377041
0.746144
-1.12319
-0.257476
-0.283685
0.541161
0.272751
-1.65279
-1.84952
0.00341037
-0.00410699
0.0140047
0.0608878
-0.112359
0.0514713
0.278063
-0.318433
1.45089
-0.457263
-0.150257
0.122876
-0.0219702
0.0018683
0.0201019
0.744837
-0.407172
-0.337664
-0.446648
-1.58288
-0.0396018
-0.217874
0.0401513
-0.569398
0.529247
0.303349
0.102525
-0.405874
-1.5819
0.947076
0.634828
0.867444
-0.669997
-0.0536979
0.442551
-0.388853
-0.300644
0.402844
0.504494
-0.235223
-0.269271
0.871359
-0.517108
0.231
-0.304158
0.885667
0.337942
-1.22361
0.291555
-0.327153
-0.339427
-1.45828
1.79771
1.29688
0.647566
0.677097
-0.442572
-1.34627
0.94293
-0.676829
0.893107
-0.216277
0.0122475
-0.0341946
0.0219472
0.271031
-0.31301
0.0419793
-1.13964
1.61852
-0.265745
-0.148034
0.413779
0.402671
-0.099322
-0.840224
0.880375
0.594896
-1.08301
0.488109
-0.499827
-0.0124163
0.660481
-0.406556
0.134222
-0.010439
-0.381684
0.290426
0.0912578
0.0758175
-0.198377
-0.325883
-0.114457
0.44034
0.127767
0.203797
-0.961461
-0.566619
-0.754104
-0.827801
0.0048985
0.0429051
-0.0478036
1.33476
-0.255963
-1.0788
-1.46755
0.377704
-1.17752
2.1636
-0.986075
0.350489
0.154004
-0.42579
0.460046
-0.0342556
-0.767312
0.567544
0.585762
-1.12917
1.75613
-0.0660139
-1.69011
-1.4395
1.87372
-0.434214
-0.0207411
0.0816289
0.408886
1.49904
-1.90792
0.0329503
-0.162708
0.129757
-0.0969493
1.78417
-1.68722
0.00140233
0.106798
-0.1082
-0.894564
1.24508
-0.350517
-0.11701
-0.650302
0.0824956
-0.408379
0.286357
-0.165159
-1.76754
1.9327
0.0242127
-0.00354201
-1.68587
0.724405
-0.11152
-0.276218
0.387738
0.0667924
-0.11781
0.125635
1.59049
-1.71613
-0.570322
-0.551484
1.12181
-0.490851
0.390474
0.100377
2.65678
-1.72893
-0.927856
0.444061
-1.01438
0.0494709
-0.0542485
0.00477766
0.105647
0.736008
-0.841655
0.0377352
-0.0413206
0.00358539
0.850915
0.801307
-1.65222
-0.23144
-0.486078
-0.0579047
0.163853
-0.105948
-0.910165
0.695165
0.215
-0.0661893
0.0367813
0.029408
1.68023
-0.345473
1.0517
-1.99198
0.940284
-2.80426
1.21992
1.58434
-1.17182
-1.63244
-0.375078
0.493866
-0.118787
0.501617
-0.335026
-0.16659
0.884136
-1.68137
0.797238
0.061042
1.05123
-1.11227
-0.767086
0.154555
1.12292
-0.237257
1.19451
1.3082
-2.5027
-0.177218
0.0812767
0.0959411
0.0501841
-0.960349
1.86261
-0.486872
-1.37574
0.132573
-0.0996229
0.144438
0.120229
-0.21421
1.06064
0.801974
0.169662
0.676988
-0.84665
0.349577
-0.0405802
-0.0671837
0.0537619
0.0134218
0.512201
-0.435028
-0.0771732
-1.79924
0.858325
0.940917
0.408112
0.0935045
0.761084
-1.29122
0.357372
-0.0078541
-0.349518
0.132174
0.124092
-1.7219
1.66578
0.0561269
1.19081
-0.595917
0.0200719
-0.0276489
0.00757697
0.0160913
-0.236578
0.220487
0.116091
-0.206838
1.70364
-0.571031
-0.066088
0.310573
-0.244485
0.00160188
-0.0235721
0.0698716
-0.346595
0.807135
-0.557571
-0.635778
0.69682
-0.288128
-0.0935554
2.12756
0.0162273
-0.0185158
0.0022885
0.0231024
0.784032
-0.195685
0.125411
0.0702742
0.00494172
-0.022655
0.1447
0.199215
1.62338
-1.24634
0.410172
-0.362477
-0.0476956
0.318891
-1.21346
0.0873476
-0.358354
-1.94794
1.78278
0.04374
0.00573083
-2.12853
0.215516
-0.21924
-0.048942
0.0485439
0.000398101
-0.592932
-1.20631
1.84696
1.0782
1.72342
-0.776343
-1.61954
0.163445
0.365105
0.17453
-0.162355
-0.0121746
0.175939
-0.241724
0.0657853
-1.24704
0.626264
-0.194082
-0.253745
0.447828
0.296437
-0.389788
-0.108926
-2.03471
2.14363
0.992914
0.205072
-1.49852
1.29344
0.931123
1.09001
-0.699446
1.57629
-1.16741
-0.0486334
0.374874
-0.326241
-0.891996
0.747733
0.144263
-0.193355
0.127267
-0.0814953
0.317726
-0.236231
-0.251007
-0.263991
0.514998
-0.532067
1.82894
-0.277861
-0.349413
0.627274
-0.266285
0.116554
0.257772
-1.21001
-0.0536854
-0.0134983
0.00819749
-1.84308
0.967478
0.875605
0.353763
-0.461592
0.0081405
-0.0159111
0.418427
1.13967
1.51712
1.65079
-0.531256
-1.11953
0.113441
-0.043802
-0.0696393
0.744622
0.947143
0.0880977
0.0864319
0.628936
-2.17995
1.55101
-0.0841802
0.104399
-0.0202187
0.731717
0.641109
-0.211313
-0.0974203
0.72921
-0.559548
-0.568718
1.42323
0.149526
0.0114545
1.63868
-0.306788
0.13925
-0.131991
1.76751
-0.11672
0.0997073
0.394156
0.0160164
0.0169779
0.290677
-1.74515
-0.831008
0.96853
-0.137523
0.00559006
-0.113991
1.76635
0.0277528
-1.79411
-0.695897
0.418036
0.21654
0.0648026
-0.298654
0.066622
0.0112467
-1.21048
1.5481
-1.56086
0.0127675
0.00669997
-0.267149
0.260449
-0.597276
1.32899
-0.811766
1.51929
0.0283593
-0.0216593
0.774184
-0.275278
1.96542
-0.594715
0.00488666
0.117216
-0.122102
-0.0724378
-0.0889582
0.161396
0.109747
0.00369426
-0.338442
-0.728726
-0.147939
-0.252067
0.400006
0.729315
1.45826
-1.67522
1.33579
0.103553
-0.442908
-0.822004
0.905723
-1.14187
1.3286
-0.186728
0.513397
-1.70817
1.61123
1.51322
-0.554098
1.30042
0.779052
-0.0635111
0.266087
1.28201
-1.31391
0.281884
1.03203
0.244845
-0.275753
0.419006
-0.0108935
-0.207475
0.144285
-0.0829814
-1.49225
0.481566
-1.2364
0.754834
-1.48099
1.0098
0.471188
-0.046837
-0.651914
-0.190435
0.201447
0.084744
-0.00720477
0.143449
-0.136244
-0.532289
0.478591
0.78692
0.726305
-1.4395
-0.0907392
-0.0803219
1.60387
-1.42374
-0.180131
-0.421447
1.92048
-1.64904
2.50426
-0.855221
-0.731013
1.0344
-0.303388
0.0953403
-1.37978
0.0882224
-0.423249
-0.261761
0.411882
-0.150122
-0.00194993
0.0238176
1.33675
0.705256
-1.27837
0.573119
-0.0297875
-1.54198
1.57177
-0.0506751
-0.102897
-0.00918875
-0.475521
0.48471
-0.450951
1.26851
-0.817555
0.192259
-0.133925
-0.0583335
0.0135681
-0.00951524
-0.00405284
-1.96906
1.77755
2.26313
-0.456489
-1.80665
-0.00721715
0.00380127
0.00341588
0.00675188
0.169187
0.0933836
-0.59321
-0.840127
1.69104
0.0034304
0.0139722
1.75613
-0.993046
1.09869
0.159395
-0.159395
-0.121662
0.302281
-2.2537
2.25383
-0.94455
-1.30928
-0.93162
0.795249
0.136371
-0.0683993
-0.123812
0.192211
1.02753
-1.21017
0.182639
-0.588178
-0.200325
0.788502
0.674419
-1.98788
1.31346
-0.0896661
-0.80233
-0.208142
0.135704
-0.186006
-0.590232
0.776239
0.754928
0.420555
-1.17548
-1.35256
-0.409006
0.662963
-0.253957
-0.672239
1.03531
-0.363071
1.45531
-1.32967
0.216119
-0.364058
0.0768975
-0.195017
0.39465
-1.2524
1.2291
0.0233015
-1.28268
1.77875
-0.496076
-0.0165025
0.127162
-0.110659
-1.57138
-0.764374
-0.0360173
0.00816225
-1.63866
0.461135
-0.358361
0.276866
-0.181346
-0.549667
0.00666342
-0.0908436
-0.80459
1.9991
0.0431282
-0.350895
-1.51409
0.117732
1.39635
0.644858
-0.47979
-0.165068
-0.856824
0.179994
0.211873
-0.548023
0.33615
1.59791
-0.143562
-1.45435
-0.0527461
0.123288
-0.0705421
-0.384267
0.652773
0.882851
-1.53562
-0.583645
1.52754
0.188218
0.672835
0.722902
-0.146056
1.57908
0.188428
-1.4137
1.38391
0.16839
-0.0861555
-0.0822348
0.274846
-0.2042
-0.0706464
-2.00866
0.359624
-0.105387
-0.164583
-0.607647
-0.223361
0.253308
0.826933
-0.237421
-0.589512
0.185879
0.0941352
-1.19395
1.70109
-0.507149
0.152324
-0.241282
-0.0635738
0.334605
0.241254
-0.503015
-0.172741
0.421619
-0.248877
-0.0548111
-0.0114653
0.0662764
0.826907
-0.52913
-0.297777
-0.0449958
-0.140353
0.185348
-0.280058
0.311784
-0.0317254
0.0277462
-0.339296
0.311549
0.298627
-0.0537823
0.371401
0.018991
-0.390392
1.51307
-1.02791
-0.958275
0.0442702
-0.194273
0.150003
0.0756242
-0.0791662
-0.266397
-0.224453
1.12519
-0.29826
-0.0494697
-1.24227
1.29174
-0.353681
-0.0287792
-0.00803297
-0.593005
0.0978936
-0.0843255
0.163976
-0.162573
-1.36566
-0.0338347
-0.0768683
0.110703
1.32105
-0.983107
1.14215
1.12099
0.355127
0.00224494
-0.139928
-1.64685
1.78677
0.743832
0.447448
-1.19128
0.0716936
-1.04579
0.690753
0.35504
0.581184
0.0636738
0.0385791
0.045182
-0.0837611
2.15498
-1.15931
-0.995666
0.129755
-0.293665
0.16391
0.715083
0.395191
-1.11027
0.0689869
0.0972932
-0.16628
1.71123
0.0219234
-1.73315
-0.344601
0.0911199
-0.246457
0.289585
0.0417421
0.0287625
-0.0705046
-0.274783
-0.192404
0.034149
0.0141506
-0.0482996
-0.44828
-0.666325
1.11461
1.13258
0.465333
1.0033
-1.05277
0.783374
-1.23433
-1.88893
1.78001
0.0404094
-0.103392
0.254103
-0.612971
0.358868
0.724896
0.998523
1.13736
-1.3383
0.200939
1.22657
-0.553735
-0.124979
0.0811769
0.0258736
-0.272959
0.247085
-1.64187
-0.434603
2.07648
-0.40749
0.43623
-0.02874
0.00513871
0.154256
0.200835
1.46866
-0.136593
-0.0406247
0.643828
-1.57476
0.930929
-0.738972
-0.34348
1.08245
1.56076
-0.509067
0.540588
0.565299
-0.848984
-0.254261
0.00476849
0.249493
0.0189795
-0.182444
-0.475675
1.18093
0.00812184
0.0296133
-0.345253
-0.10237
0.447623
0.0188683
1.00866
0.673111
-1.20857
-0.460031
-0.413332
0.51403
0.74891
-0.930256
0.0608756
-0.036321
-0.141595
-0.0726144
-1.94774
0.919826
-0.0619951
0.0675217
-0.00552657
-0.10536
0.0948549
0.0105052
0.203234
0.847996
0.176939
-0.0242435
0.0301642
-1.69355
1.66339
0.589555
-0.951896
0.36234
-0.0135802
0.0558271
-0.0422469
-0.714252
1.19582
-0.12158
-0.368618
0.490198
-0.26889
0.480763
-0.958245
1.42408
-0.465836
-0.527614
0.511549
0.0160648
2.12683
-0.0722995
0.301962
-0.30739
0.00542873
-0.485299
0.210126
-0.170904
0.12879
1.27506
1.00771
0.19141
-1.5246
1.33319
-0.809542
-0.185464
0.995005
-0.265345
0.236094
0.0292509
0.133142
-0.0156952
-0.117447
-0.0104775
-0.185313
0.195791
-0.0944276
0.0407422
-1.0616
-0.305621
-0.00463779
-0.126396
0.112897
-0.123028
0.382813
-0.259785
-0.224023
0.258612
-0.0345886
-0.00428795
0.180582
-0.176294
0.797917
-0.371643
-0.0658794
0.0186729
0.137104
-0.750742
0.613638
1.15939
-0.956156
0.0218634
-0.345802
0.323939
-0.944851
-0.642716
-1.39213
1.53205
0.958996
-0.212852
-1.32607
0.842129
0.483939
0.215736
-0.0906658
-0.12507
1.7578
-1.7578
-1.59065
0.105822
-0.787838
-0.240054
-0.620869
0.860923
0.588132
-0.541207
-0.046925
-0.0794865
0.0386046
0.00201357
-0.0406182
-0.00268013
0.202601
-0.199921
-0.448449
1.25978
-0.811334
0.413704
-0.0147793
-0.398925
0.79627
-0.70093
-1.07131
0.261767
-0.0388655
-0.208347
0.247212
-0.00323909
-1.31067
-0.492568
-1.22776
0.735192
0.444731
0.0156903
0.228734
-0.244424
-0.265532
0.323385
-0.0578524
-0.222826
0.164922
-0.0820638
0.0133522
-0.0622942
0.0354905
0.090363
0.264097
-0.35446
-0.195286
-0.077673
0.02235
0.349051
-0.0966458
0.0626778
0.0339679
0.00727768
-0.011318
0.00404034
0.0862065
-0.0837165
-0.00249
-0.0632133
0.164344
-0.101131
-0.59374
1.34857
0.527037
-1.13142
0.604385
-0.1455
-0.0798485
0.225348
-0.0498708
-2.42911
2.47898
0.882888
-0.55403
-0.328858
0.472577
-0.0464062
-0.195318
0.0138097
-0.0588721
-0.0536103
0.183366
0.283487
-0.933514
0.650028
-0.428618
-1.29329
-0.193877
0.818179
-0.624302
-0.0816374
0.0507114
0.395085
-0.266667
-0.128418
0.504566
-0.367462
-0.762618
0.405443
-0.453362
0.0479188
-0.515638
0.321556
-0.164226
0.581056
-0.30115
0.317241
-2.01217
0.295827
-0.279814
0.521068
0.0262219
-0.234364
0.245979
0.00110612
0.317694
-0.302003
-0.0794595
-1.3138
0.720063
1.98751
-0.203337
-1.76754
2.24081
-1.09286
-1.14795
-0.0736103
0.45618
-0.0867955
-0.748148
0.479991
-0.404174
-0.236319
-0.0179418
-0.585931
-0.399224
0.985155
0.0679888
0.252742
-0.32073
0.0384502
-0.876411
-2.00454
-0.298168
-0.318465
0.616633
0.734047
-0.144492
-0.235045
-0.0369029
0.271948
0.458441
-0.0801025
0.157946
0.0577895
2.01646
-1.34204
-0.897956
0.312025
-0.242296
-0.0490451
0.291341
-0.0435727
-0.134116
-1.07605
0.447524
-0.284433
-0.163091
-0.0812255
-0.0337498
0.91163
-1.17385
0.262222
-0.646735
-0.0543322
1.81214
-0.189537
-0.561204
1.48736
-2.06067
0.573307
-2.09151
1.6493
0.442216
0.144324
0.103472
-0.247796
0.149644
1.16253
-0.00797926
0.837427
-0.829448
-0.00149143
0.312064
0.0230756
-0.0302927
-0.0217566
-0.267287
0.289044
1.26708
-1.40701
0.10337
0.33051
-0.317958
-0.0125523
-1.47031
-0.120336
-0.581366
-0.36092
0.40519
0.104644
0.00322122
-0.107866
-0.606697
0.300839
0.305858
-0.375861
0.327227
-1.09814
-0.49389
1.59203
-0.138296
0.0158021
-0.0842013
-0.155325
-0.336189
0.491514
-0.349292
1.35909
-0.150252
-0.85708
-0.0745407
1.07182
-0.310731
0.986704
-1.43515
-0.0287054
0.00194636
0.0267591
1.06195
-0.561893
-1.30505
-0.335414
-0.0746264
0.41004
-0.0538447
0.19813
-0.0121406
-0.357356
0.369496
0.398479
-0.0888773
0.0623112
1.56107
-0.151077
0.29514
-0.0641393
-0.423155
0.407244
-0.175284
0.0691031
0.106181
0.242581
-0.107117
-0.135464
-0.138901
-0.040504
0.179405
0.348522
0.0437244
-0.392247
0.0625213
0.0514785
-0.197579
-0.0695691
-0.0504037
1.18693
-0.00886309
0.070793
-0.0619299
0.0358005
-0.0739312
0.0381307
-0.000871136
-0.432698
0.433569
0.516229
0.248529
-0.657536
-0.0577814
0.349614
-0.0715513
-0.435583
0.134938
-0.126946
-0.0357611
1.78262
-0.981312
0.0901649
-0.215157
0.124993
-1.60726
0.21513
-0.108125
0.0522231
0.0559023
-0.0372306
-0.0289587
-0.326113
-1.7654
0.349681
-0.0581254
-0.802795
-1.37715
-0.3837
0.0384474
-0.798604
0.64328
0.96049
-0.73353
-1.29919
1.4906
-2.01325
0.371372
-0.225298
0.104138
0.121159
0.0142404
-0.181413
-0.383339
0.564752
-0.213756
-0.0307291
-0.365279
-0.996918
1.3622
-0.660816
-1.13819
1.79901
0.606023
0.335955
-0.941978
-0.0016759
0.317144
0.0882992
-0.251444
-0.251571
-0.165463
-0.10205
0.267513
0.192082
0.349079
0.267579
0.127506
0.438885
-0.577982
-0.0216311
0.0378584
-0.594401
0.797153
-0.202752
-0.142371
0.398499
-1.30754
0.0471145
-0.00420947
-1.04662
0.327518
0.218661
-0.872818
-0.418399
-0.159679
-0.904006
-0.319746
1.22375
-0.131286
0.611277
0.00553603
0.789713
-0.285323
-1.01549
-0.932246
-1.27064
1.45328
0.0746035
-0.168155
0.0106353
-0.0581993
0.0475639
-0.623475
0.564735
0.0587401
0.677271
-0.794281
0.0260435
-0.0880386
-1.14981
-0.176253
-0.247198
0.173873
0.0733249
0.557954
0.268953
-1.45033
-0.156341
1.60667
0.0348962
-0.230182
0.31663
-0.17882
-0.137809
-0.227563
0.373186
0.149967
-0.167561
-0.0258362
0.193397
-1.30613
0.819255
-0.250659
0.0369035
-0.168942
-0.124724
-0.319315
0.0363605
0.0245151
0.035874
0.289555
-0.000508763
-0.0699959
0.321909
1.34387
-0.650177
1.9506
1.01094
0.628482
-0.828807
0.0476397
-1.49797
-0.275822
-0.316406
0.373147
-0.0567412
0.157251
-0.00917265
0.079014
0.0146132
-0.05395
0.121587
-0.183218
1.75812
-1.5749
0.20164
-0.851942
-0.118279
-0.251567
-0.0668662
0.510611
-0.273991
0.346421
-0.0724301
-0.0106109
-1.48925
1.49986
0.629953
0.281612
0.306519
-0.571299
-0.567284
0.942756
-0.375473
-0.017185
0.00121863
0.0936362
-0.323503
1.05847
-0.734963
-0.014608
0.1279
-0.113292
-0.119083
-0.655117
0.774201
-0.268681
-0.0584717
-2.03508
-0.0191161
0.178155
-0.173269
0.0216324
-0.205482
-0.0451772
0.325618
-0.644082
2.22813
-0.939855
-1.28827
-0.0987155
0.414864
0.119985
0.196645
-0.289795
-0.163567
-0.168277
-0.0156759
-0.227624
-0.0975329
-0.216064
0.855981
-0.975065
0.131825
-0.0909978
-0.0408271
-0.370279
-1.96271
1.07173
0.890987
-1.91412
1.86425
-1.1505
0.334443
0.816058
-0.0247533
0.242419
-0.217665
0.664243
0.46095
-0.00684952
0.19142
-0.0951483
-0.203788
0.0248952
-0.253397
-0.0132703
1.0781
1.15003
0.0412779
0.0124839
1.60762
-1.35718
-0.0287558
-1.39722
1.42597
1.22817
-0.0412359
-0.283191
-0.0751703
0.578075
0.0541866
-0.245311
-0.0488987
0.467904
0.748758
-1.63173
0.882973
0.0597997
2.38729
-1.45175
-0.93554
0.0107935
-0.215466
0.091654
1.10142
0.517105
1.18234
-1.07652
1.11011
-1.77093
-1.2371
0.0144479
1.22265
-1.60736
0.0899557
1.51741
0.0355221
0.0773751
2.45286
-0.00738525
-2.44548
-0.771452
1.52132
-0.749868
0.044671
0.213941
-0.946571
0.274332
-0.00248786
0.0462279
-1.34222
0.200343
-0.00188539
-0.0125317
0.0144171
-0.0928079
0.219768
-0.12696
0.146923
-0.495775
0.348851
0.519505
0.449026
-0.500861
-0.105836
0.0805334
0.847569
-0.937235
-0.0638469
-0.0485123
-0.244713
0.0508397
0.446237
0.854233
-1.30047
-0.699459
0.872512
-0.173053
0.0570123
-0.405873
0.34886
-1.02296
-1.58686
0.783868
0.802989
0.101694
0.857544
0.231079
-1.08862
-0.337436
0.214329
-0.236658
0.0223296
0.164008
-0.0342509
-0.239102
0.00405756
-0.279199
-1.54765
0.301316
-0.389678
0.785259
-0.395581
-0.687901
-0.658368
1.70049
-0.733014
-0.100987
0.176659
-1.4093
0.0712827
-1.40708
1.3358
0.00536307
0.0357092
-0.0410722
1.15542
-1.21838
0.0629542
0.136497
-0.0186439
-0.0726033
-1.46488
0.776976
-0.596776
1.28753
-0.369437
0.439309
0.288796
0.211582
0.0309995
0.796466
-0.37843
-0.000779072
0.67805
-0.956888
0.433435
-1.78962
0.651427
1.11986
-1.13048
-1.4981
1.31488
-0.165498
-1.45193
0.181872
1.27006
0.594197
0.223981
0.0332748
-0.946883
0.706829
-0.110445
-0.128224
0.238669
-1.99685
0.429605
1.56724
0.367469
0.81216
-1.17963
0.0630236
-1.33366
0.755248
0.11278
-0.868028
-0.212242
0.0879759
-0.90998
-0.0770531
-0.0103487
0.04713
1.48792
-1.46599
-0.0431082
-0.990712
-0.596145
0.702654
-0.0214671
-1.21564
1.10219
-0.244648
-1.61123
-0.00831467
-0.331991
-0.891618
0.324961
-0.15877
1.88893
0.238626
0.165197
-1.24125
0.132653
-0.100949
0.210395
-0.461402
0.318046
-0.53487
0.216824
0.211167
0.0766096
-0.287776
-0.261259
-0.0461312
0.225154
0.287047
-1.13077
1.1319
-0.00112528
-0.734309
1.16729
-2.03196
0.864666
-0.500517
-0.0543811
0.0837891
-1.48544
0.153322
1.33212
-0.369199
0.882596
-0.655745
0.694195
0.156195
0.960474
0.548955
-1.00899
-0.809812
-0.19556
1.00537
-0.411371
-1.30591
0.940627
-0.119011
0.122397
-0.00338641
0.0443056
-0.0865525
0.970329
-1.446
-0.779682
-0.0739077
0.853589
-0.0662026
0.0378732
0.0283294
-1.09016
0.435043
0.0356285
0.0238245
-0.220837
0.38991
2.2067
0.246159
-0.803109
0.79513
-0.255018
0.0860761
-1.22983
2.02958
-0.799752
-0.0735076
0.0611021
0.07312
0.359464
-0.0200869
0.970284
1.19331
0.649615
-0.924893
0.285908
-2.01484
-0.159319
0.125484
0.170303
-1.15341
-0.233673
-0.94018
-0.200701
0.0504441
0.774708
-0.384798
-1.54505
0.30354
1.25753
0.176876
-1.67499
0.300682
1.37431
-0.0923113
0.465497
0.750009
-1.14694
-0.292568
0.732057
-0.321558
-0.410499
0.848522
-0.291472
-0.55705
-0.170381
0.0364561
0.634907
-0.656627
0.0217201
-1.26122
1.01957
0.241655
0.300779
1.1233
0.00062966
0.104015
0.74377
-0.495241
-2.0351
0.770908
1.26419
-1.9327
1.4981
0.937769
0.751806
-1.68958
0.796529
-0.741474
1.78937
-0.597191
-1.19218
-1.04348
0.161726
-0.0805493
-0.171485
-0.103205
0.184482
-0.0304887
0.106721
-0.0762324
-0.296758
-0.0424048
-1.72222
-0.200505
0.0688698
-0.0906264
-0.0288821
-0.0124385
0.986759
-0.503597
-0.483163
0.765375
-0.464535
-0.116281
0.123032
-0.141925
1.27929
0.020212
-0.0148489
-0.332578
-0.757582
-1.46469
0.560685
-0.0654957
-0.0737685
0.11975
0.0913591
0.0914056
-0.0807702
-0.4811
-0.472074
0.0848698
-0.0736974
-0.0111724
0.171503
-0.836648
-0.449865
1.28651
-0.247611
0.0421288
-0.119902
1.10776
0.995057
-2.10282
-0.375847
0.981869
0.204239
-0.0813638
0.649324
-0.813623
-0.742493
1.55612
-0.953447
-0.968033
0.568809
0.298287
-0.196717
-0.10157
0.990459
-1.24642
-0.149062
1.82958
-0.662284
-0.171516
0.0990855
-0.417173
-0.71425
0.0848401
2.04039
-1.78001
-0.260386
-0.884718
-0.579973
-0.319449
0.157626
0.0632308
-1.02567
-0.20938
1.23505
0.21921
-0.0300544
0.0154463
-1.64591
-1.52808
0.662552
0.865526
-0.154092
-0.00465956
0.158751
0.935565
-0.557214
-0.378352
0.100354
-0.154304
0.0736477
0.0787599
0.814171
-1.91231
0.747185
0.101337
-0.314379
-0.583577
0.32004
-0.0672985
0.143644
0.272086
-1.10873
0.024784
0.35009
-0.495988
0.300971
-0.0822045
-0.00159077
0.0837953
0.973794
0.815575
0.560133
0.0587418
0.63794
-0.347655
-0.290284
1.70817
-1.40749
-0.369908
-0.278784
0.139639
0.0243689
0.205479
-0.0562178
-0.298242
0.00411808
-0.123129
0.52399
-0.0363775
-1.79949
-0.0192556
-0.134836
-0.0654489
0.00724961
1.04342
-1.03789
0.869558
-0.425604
-0.443954
0.00368534
0.103904
-0.00737584
0.00549045
0.401026
0.030935
0.0353414
-0.0404289
-0.488701
-2.56214
0.992171
1.56997
-0.0583138
0.0039406
-0.0415928
0.0986652
0.112341
-0.26722
-0.280803
0.60135
-1.41497
0.100914
-0.977785
2.08555
0.617258
-0.0650091
-0.552249
-0.623376
-0.498312
-0.0428946
0.0860153
-1.11632
0.495552
-0.737904
0.242352
0.0101684
-0.147228
0.13706
-0.202073
1.17327
1.331
-1.37974
1.40749
-1.91239
1.44486
0.467523
1.10236
-2.08014
2.26669
-1.12702
-1.03743
-1.02172
-0.0429366
0.186385
-0.0497429
-0.425779
-1.55691
0.104979
-0.0065214
-1.33178
1.21812
-1.97217
0.754055
-0.0506225
0.227602
-0.401591
0.155497
-0.139432
1.03229
1.35499
-2.03406
0.804233
-0.172556
-0.780891
-1.35597
0.0660192
-0.213248
1.91412
-1.98642
-0.133645
-1.08452
0.0770176
1.29764
-0.644869
-1.68487
1.7492
-0.0643282
0.447163
2.03182
0.428736
-0.0670502
-0.361686
1.77336
-0.663249
0.223214
-0.0593211
0.736844
-0.744877
0.0837141
0.127868
0.647098
0.848357
-1.49546
-0.578611
-0.448528
1.03733
-1.07627
0.0389452
0.110407
-0.394839
-1.73286
0.73644
0.996422
1.43769
-0.282266
-0.960445
-0.105684
0.877629
-1.18836
0.271648
-0.523092
-0.301559
0.436497
-0.622683
0.44127
-1.34353
-0.699686
2.04322
-0.413859
0.457584
-0.397263
0.204859
1.07316
-1.1477
0.071608
1.36245
-2.01263
-0.238351
-0.481597
0.207696
-1.16385
0.108783
0.694079
0.456846
0.0149467
-0.605179
-1.6457
0.346504
0.0762597
0.317908
-0.394167
0.0662615
-0.302493
1.1356
1.10521
1.237
-0.974777
0.0735048
-0.0998628
-0.335165
0.421598
-0.380744
0.291867
-0.654594
-0.945786
2.04814
-0.273569
0.375263
-0.50426
-1.08763
1.59189
-1.41683
0.645381
-0.0644466
0.34817
0.0853994
-1.44845
-0.0656378
-0.150203
0.645754
-1.23721
-1.32493
2.04039
0.552042
-1.37984
1.00678
-0.557757
-0.210275
0.412339
-0.32404
-0.222884
0.244747
-1.56481
0.210752
-0.778036
1.10517
-2.05096
-0.80262
-0.24185
0.451977
-0.124162
-1.56071
0.9523
-1.3707
1.33585
0.676085
-1.50043
0.824346
1.16007
-0.140503
1.87472
-0.907757
-1.06967
1.97743
0.567408
1.23921
-1.02
-0.642746
-0.885332
-0.955944
-0.956441
0.437044
-0.761192
1.39201
-0.630814
-0.119198
1.35846
-1.23926
-1.01045
-0.963549
1.974
0.920729
0.116598
0.24291
0.361777
-0.379806
0.271234
0.108572
0.00123316
-0.242515
0.49761
-1.38233
-0.744813
-0.3778
-0.245675
-0.180782
0.5083
-0.252311
0.867342
-1.98689
0.782646
1.20424
-0.0435755
-1.6235
1.66707
0.0242536
-0.242603
0.0426819
0.609308
-1.8537
1.8537
-0.0458317
-0.0136899
0.0595216
-0.640783
1.06134
-0.0576354
0.123655
-0.762907
-0.294164
0.643243
-1.37974
-0.0832935
-1.28302
0.28997
1.24879
-1.25203
-1.20351
0.177832
-0.18964
0.504778
-0.315138
0.1271
0.507807
0.26939
-0.0582228
-0.964124
-1.19151
0.180315
1.0112
-1.38046
-0.406444
-0.788243
-1.24372
-0.00633518
-0.161226
0.153564
0.106049
-0.395844
-0.0411734
0.0406647
0.35554
-0.278086
-0.344598
-0.904339
1.35633
-0.451993
0.322802
0.198907
-0.223688
0.385902
-0.162214
-0.427349
0.163358
0.41214
-0.523755
0.111614
-1.17043
1.90918
-0.971409
-1.35185
-1.80944
0.320186
-1.51784
0.048783
0.990154
1.16482
0.184296
-1.07591
1.17775
0.0513479
-0.00979872
-0.359639
0.648435
0.62429
0.172239
2.02412
-0.918953
-1.0683
-0.741295
1.80959
1.14094
-0.00798521
-1.13296
0.0286336
-0.102565
-0.184434
0.167931
0.130191
1.33532
-1.46551
-1.19072
1.13048
0.0602398
1.19072
-1.31488
0.205113
-0.255736
-0.930059
1.01804
0.0707283
-0.0341149
0.0855935
-1.67388
0.175365
1.50846
-0.832379
-0.301773
-0.0640458
0.133149
-0.416924
0.930152
0.24478
-0.0808699
0.630497
-1.36546
0.169998
-0.228331
-0.548125
-0.0558037
0.619048
-2.04645
0.504463
-0.0696642
0.417943
-0.348279
-1.04322
-0.928952
0.0646724
0.692239
0.498574
-0.871122
0.0680128
-0.0955435
-0.310329
0.0996786
-2.09773
1.06031
0.0660328
-0.0173372
-0.284666
0.0599065
-0.0240326
-0.0792309
-1.42669
0.645197
-1.53746
0.892267
0.056863
0.236438
-0.293301
0.0334037
-0.195759
-1.03307
1.32304
0.627041
0.354828
1.33611
-1.14694
0.17721
0.0393307
1.7289
-2.02492
0.296018
0.137362
-0.473551
-0.800466
-0.0675613
0.360766
-0.435392
0.361188
-0.360081
-1.26315
0.110034
-0.0985233
-0.0115108
-1.486
0.194128
1.29187
0.409229
-0.374333
-0.00230295
0.354181
-0.351878
1.1628
-1.18427
-0.329635
0.406245
0.612284
0.248639
-0.279637
0.352962
-0.0286965
0.0794079
0.195489
0.634178
-0.829667
-0.428841
-0.0669339
-0.927389
-1.0122
1.93959
0.0586184
-0.237116
0.362108
-1.00797
1.86425
-0.0193835
0.0336239
0.0428742
0.0475634
0.117349
2.10066
-1.02256
-1.22642
0.755213
-0.544461
-0.731848
1.99604
0.0397489
-0.00881395
-0.265146
0.270284
0.0588013
-0.120731
-0.279779
0.177729
-0.299327
0.398674
-0.292625
1.11459
-0.0933718
0.153278
0.299598
-0.070864
0.0352769
0.381256
0.0866486
0.47667
-0.754755
0.198973
-0.227815
0.0288422
-0.0583186
0.0940278
0.173578
0.893962
-1.06754
-0.23732
0.109097
0.477957
-0.609243
1.9256
-1.19628
1.01706
0.901224
0.0967077
0.553078
-1.10268
0.338255
-0.418358
-0.379807
1.27247
0.743989
-1.49133
1.49133
1.71023
-0.832072
1.08984
-0.0105531
1.52557
-1.51501
0.919998
1.02445
0.780153
-2.12369
0.174515
-1.14958
-1.35581
-0.210188
-1.43517
1.64536
-0.392881
-0.122757
0.06892
1.10638
0.15336
-0.260477
-0.750919
1.47755
-0.726632
-0.173726
0.25744
-0.0211432
-0.198413
0.779597
2.63466
-1.08066
-1.554
1.61921
-1.46589
1.12585
0.202756
0.0287492
-0.000389941
0.0281244
1.56237
0.560093
1.13979
0.561306
0.0200693
0.186821
-0.20689
-0.331254
0.20653
0.172007
-0.183604
0.0115975
0.153243
-0.205988
0.0527444
0.518319
-0.437785
0.3222
-0.46457
0.387774
-0.224329
0.0177082
-0.0813799
0.00189334
-0.405805
0.468561
-0.0627568
-0.304435
0.273811
0.0306233
1.98642
-1.61895
0.486875
-0.465904
-0.0209712
-1.48792
-0.326065
0.254514
-0.980896
1.90089
0.247219
-0.314085
2.13315
-1.353
0.235371
-0.29951
-0.148805
-0.120267
-1.34406
0.00131905
1.60516
1.27618
-1.06848
-0.103109
0.137726
-0.071789
-1.48907
-0.279579
0.273904
0.23268
-0.350959
-0.349189
0.276759
-0.0778512
-1.33607
1.30732
-1.4574
1.47017
-1.16847
-0.462396
0.414701
0.65907
0.36977
-0.38304
-0.048403
0.0586222
0.339497
-0.398119
-0.353305
1.41394
-0.952739
-1.03485
-2.04172
-0.073207
0.069315
0.00389196
0.00131628