/*--------------------------------*- C++ -*----------------------------------*\
| =========                 |                                                 |
| \\      /  F ield         | OpenFOAM: The Open Source CFD Toolbox           |
|  \\    /   O peration     | Version:  2306                                  |
|   \\  /    A nd           | Website:  www.openfoam.com                      |
|    \\/     M anipulation  |                                                 |
\*---------------------------------------------------------------------------*/
FoamFile
{
    version     2.0;
    format      ascii;
    arch        "LSB;label=32;scalar=64";
    class       volVectorField;
    location    "0.8";
    object      U;
}
// * * * * * * * * * * * * * * * * * * * * * * * * * * * * * * * * * * * * * //

dimensions      [0 1 -1 0 0 0 0];

internalField   nonuniform List<vector> 
13486
(
(5.69707 -0.824071 1.70179e-20)
(6.74588 1.06942 7.44436e-21)
(8.71412 0.155173 0)
(4.32259 -2.20457 -4.89099e-21)
(9.02638 -2.21287 5.66036e-21)
(9.49521 0.446862 1.11083e-21)
(9.94524 -1.90567 -5.25441e-23)
(7.73778 -2.86395 -9.14481e-21)
(7.54061 -1.60245 0)
(8.12891 2.85995 0)
(3.22661 -8.49179 -1.23398e-20)
(9.78459 0.0438995 0)
(5.21203 -1.65789 -1.71144e-20)
(9.93379 2.42311 2.02067e-21)
(9.58337 -1.6105 2.77459e-21)
(8.06135 2.99366 -3.89862e-21)
(-12.1969 5.67336 5.26421e-20)
(6.56977 -2.36423 -3.99295e-21)
(9.2213 -0.132471 6.52069e-23)
(6.37819 -0.232292 -1.67681e-20)
(5.85771 -2.9893 -1.86269e-21)
(5.26334 -1.69463 2.20485e-20)
(6.87154 1.12795 -5.96346e-21)
(8.31614 -2.63216 0)
(8.12993 2.2365 1.12787e-21)
(8.37409 -2.43847 -2.60903e-21)
(-2.99257 -0.0241384 1.20374e-20)
(8.9019 -0.382783 9.47452e-21)
(8.06916 0.0463805 0)
(8.11909 -0.96535 -5.34091e-21)
(5.54571 -2.58038 -1.28867e-21)
(10.0417 -1.13879 -2.96203e-21)
(9.98818 -1.66584 8.73322e-21)
(7.80503 -0.208286 0)
(7.79726 -2.77437 0)
(7.84812 0.00110801 -1.78339e-22)
(7.90649 0.211378 -6.44384e-23)
(6.26095 -2.91844 8.91795e-21)
(7.40324 0.307727 -1.81165e-22)
(7.80698 -0.952667 8.47607e-21)
(9.37565 -3.24234 0)
(4.66665 -2.20231 -2.03537e-20)
(8.26157 -0.077944 0)
(8.1947 2.04073 -5.7446e-21)
(8.22 2.02864 2.31247e-21)
(9.64861 0.158608 2.18716e-21)
(9.10174 -5.49508 1.60215e-19)
(8.05165 0.0658228 -5.60493e-24)
(7.8929 0.2239 6.07085e-23)
(9.64753 -0.169441 5.55913e-21)
(7.91735 0.180636 8.86645e-21)
(7.60739 0.115658 0)
(10.4912 0.145807 -1.65153e-21)
(6.4301 -2.38995 -1.28739e-20)
(5.14382 -2.04028 0)
(8.94739 -2.2576 -3.76717e-21)
(8.16224 0.23274 -2.2966e-22)
(7.43025 0.176543 -8.48808e-22)
(9.88083 -1.61614 1.0137e-20)
(7.89616 0.364977 0)
(4.07664 -6.65981 -9.11181e-21)
(7.88106 0.324486 0)
(14.0311 -2.62377 -1.97592e-20)
(5.89386 -2.90737 -2.20604e-23)
(6.64614 -2.60001 0)
(7.86836 0.206967 3.12512e-23)
(4.57078 -2.31535 -5.00287e-21)
(5.87038 0.198093 5.60717e-21)
(7.51973 -1.70794 -4.92604e-21)
(7.81359 0.0401991 1.38995e-22)
(3.9354 -1.895 5.77669e-21)
(6.37393 -2.06687 -2.1303e-22)
(7.70176 -0.457137 6.26078e-21)
(-0.446717 8.30073 -2.56428e-20)
(7.89901 0.319201 1.47023e-23)
(8.17638 0.213648 7.03404e-23)
(7.86307 0.239397 -2.9239e-23)
(9.58639 -1.69904 -1.14475e-21)
(6.57516 -7.68429 -7.01575e-20)
(6.39037 -0.215144 0)
(7.87156 0.0124082 7.67173e-23)
(6.54883 1.57357 -4.78631e-22)
(14.5017 -3.77135 -1.21684e-21)
(8.79148 0.194719 -3.57457e-22)
(5.7069 -0.877081 -3.31585e-20)
(6.44339 6.75871 0)
(6.91066 1.71537 -2.52145e-22)
(7.94608 0.0406606 -1.30606e-20)
(7.51585 0.88682 -5.97651e-21)
(7.35995 3.81464 -4.04487e-21)
(10.6627 -0.950613 -1.02306e-21)
(8.20666 -2.51096 -4.71128e-21)
(5.92615 -1.25646 4.36917e-21)
(6.56387 0.406579 4.27599e-22)
(7.21318 -2.28139 2.03382e-21)
(7.96657 0.0401666 8.92929e-24)
(-3.1897 -0.763791 0)
(6.46519 -3.08241 2.4625e-21)
(7.76353 -0.993904 -1.61863e-20)
(-11.6254 4.45378 4.17389e-21)
(8.07428 -0.00731472 0)
(9.7635 2.47145 6.69179e-22)
(6.21 -2.89952 3.97415e-23)
(7.39844 0.131501 1.0023e-21)
(5.66559 6.47734 0)
(-11.5759 2.69209 2.66915e-21)
(7.70221 0.24794 -5.28945e-24)
(7.31717 0.309512 -3.87879e-22)
(6.01149 -5.34464 1.00785e-19)
(7.88254 -3.62165 0)
(6.59293 -3.12073 0)
(10.1972 -1.59271 -2.55441e-21)
(6.44011 -2.29844 1.10205e-22)
(8.16734 0.202372 2.47635e-23)
(4.46637 -0.265715 0)
(6.47029 -3.07103 -7.72403e-21)
(8.17599 2.44298 0)
(7.86674 -0.175728 0)
(7.75532 -0.481932 0)
(7.83025 0.175345 2.29251e-23)
(5.39465 -2.14392 2.12296e-21)
(3.5646 -6.61159 0)
(7.12502 -2.08438 0)
(7.39638 0.31312 5.98922e-22)
(7.39484 -2.66135 0)
(7.53562 0.0904151 0)
(8.58994 -1.13441 1.84464e-22)
(8.53224 0.354436 1.448e-21)
(7.72062 -0.135497 -8.82991e-22)
(6.60582 -2.26589 -1.6462e-21)
(7.63275 0.134393 -1.13691e-22)
(8.38914 -4.43758 -4.05733e-20)
(5.52346 5.70107 3.97911e-20)
(-0.000227255 -1.75023 3.71407e-20)
(7.99728 0.0750712 -1.45873e-21)
(7.51763 1.74702 -6.36224e-21)
(3.58739 2.55885 -4.68137e-21)
(7.69721 -3.48204 0)
(7.88218 0.151955 1.90528e-24)
(7.84527 -2.34554 -3.2193e-21)
(10.0165 -0.913475 -9.94629e-21)
(10.6616 0.0786839 1.33933e-21)
(10.0991 -0.597889 0)
(6.53919 -0.16388 0)
(8.07119 -0.0448552 1.11553e-22)
(11.3693 -4.59531 -2.24124e-20)
(8.8033 1.4846 -2.21102e-22)
(-2.75631 5.39617 0)
(9.82461 -0.35868 0)
(8.03818 0.0585874 0)
(8.1245 0.148438 1.13639e-22)
(9.48779 -1.96399 0)
(8.05748 0.0463096 -8.02905e-23)
(6.42092 1.48218 -4.07331e-21)
(8.63144 1.1282 0)
(8.80207 0.143142 0)
(7.7179 -3.46638 0)
(2.5818 -1.71078 -6.62236e-22)
(6.82976 -2.70457 1.84901e-20)
(8.1324 0.609245 4.53485e-22)
(9.81839 -0.00308701 3.78245e-21)
(6.84183 -2.64107 -2.77781e-20)
(10.2467 -1.13387 5.87592e-23)
(4.21524 -2.10134 8.9345e-21)
(7.41167 0.182892 0)
(10.2961 2.45157 -3.86713e-21)
(9.51451 2.3841 -2.15919e-21)
(1.84424 -0.460233 -2.15201e-20)
(8.70384 1.49177 6.06333e-22)
(1.0457 -0.61306 1.02853e-20)
(6.42361 4.23058 5.94034e-21)
(8.66158 1.05866 1.35793e-21)
(8.08215 0.392885 -1.01236e-20)
(9.18119 -0.902751 2.72738e-22)
(7.99076 0.00662168 3.24243e-23)
(5.46819 -3.25316 0)
(9.91843 3.8891 5.49918e-21)
(10.592 -1.08422 1.4633e-20)
(7.93815 0.236883 -1.49187e-20)
(10.081 -0.465241 0)
(7.90194 -1.18452 1.72969e-20)
(8.14169 0.207676 4.63354e-23)
(9.5631 -0.839894 -1.35504e-22)
(3.7701 -2.01488 0)
(9.07443 0.517622 8.27171e-22)
(8.81932 -0.265834 -4.29624e-21)
(8.03292 0.0289714 -6.22872e-24)
(8.12483 -0.580399 -1.722e-21)
(9.16111 -3.30821 0)
(5.96078 -2.8728 -1.04449e-20)
(7.92365 0.222379 0)
(8.26124 0.117021 0)
(7.41319 0.199317 0)
(6.79245 3.79716 -8.5827e-21)
(7.30097 0.114048 0)
(2.29142 -8.18041 -2.37821e-21)
(6.65522 -2.40981 3.82506e-21)
(9.69197 -0.0920845 2.02495e-21)
(5.63839 -2.77046 -4.01003e-21)
(10.0743 2.18988 -1.8706e-21)
(5.85308 -2.73346 1.38782e-21)
(8.66019 0.232291 -3.75639e-23)
(6.21555 -2.97667 -1.03341e-20)
(8.39302 -3.50973 1.8371e-21)
(8.01177 0.663799 -5.67358e-22)
(7.30746 0.0512494 -8.32319e-22)
(5.84096 -1.84605 -1.27186e-21)
(7.33272 -0.144584 1.26569e-20)
(7.3154 0.181239 0)
(8.95366 0.482665 0)
(8.56548 -0.459579 6.35386e-21)
(7.79764 -2.37608 3.97559e-21)
(6.4584 -0.112451 1.53974e-20)
(7.63255 -0.0044566 3.2621e-23)
(9.53417 0.596129 -1.28103e-21)
(6.8472 -0.962636 6.06365e-22)
(8.28796 -0.930689 0)
(7.52642 3.5964 1.15354e-20)
(6.22747 -1.39885 0)
(12.7715 1.34697 0)
(-12.7468 4.84187 -9.91681e-20)
(9.70623 -0.287927 0)
(7.77574 -2.31061 7.56127e-21)
(9.54497 0.0700291 0)
(10.7726 0.775342 -2.906e-22)
(5.40295 -2.5147 6.30721e-21)
(9.9555 0.851867 -2.43813e-22)
(5.81895 -2.76477 8.5893e-22)
(7.1103 -0.506121 1.19561e-22)
(7.02913 1.66018 -3.43653e-23)
(7.89723 -1.16793 -5.5379e-21)
(7.73572 -2.30519 6.4683e-21)
(10.0155 -1.09897 1.25586e-20)
(4.55186 -2.12075 6.96494e-21)
(5.91242 -2.79004 0)
(5.19212 -2.52611 7.46441e-22)
(7.78789 -0.432655 2.89707e-21)
(8.43793 0.015334 -1.83005e-22)
(5.24644 -2.50949 2.05108e-20)
(9.4461 -0.474493 0)
(9.71692 -1.83365 0)
(7.95028 0.354386 1.55681e-20)
(8.20417 0.0920629 0)
(5.00815 -2.48048 6.82265e-21)
(7.38057 0.430019 -2.47768e-22)
(7.21587 0.365161 0)
(9.38517 -0.115705 -1.07975e-21)
(8.28907 -1.75438 9.36772e-21)
(-1.06507 2.39731 6.3148e-20)
(8.15064 1.84956 0)
(5.6532 -3.03984 -1.09834e-21)
(4.35405 -0.156217 2.48747e-21)
(6.00249 -2.94303 9.83379e-21)
(7.294 0.301435 0)
(6.87795 -0.255917 6.78054e-22)
(5.39323 -3.44038 7.05623e-22)
(10.1126 -1.11877 2.2182e-21)
(6.9162 -0.936141 -7.66225e-22)
(3.44967 -2.38475 6.93494e-22)
(9.71243 -1.74093 6.40801e-21)
(7.16589 1.00794 0)
(7.4207 0.442138 -4.74318e-23)
(9.60318 -1.62227 -6.48467e-21)
(5.38613 -3.34404 -8.81056e-22)
(8.61572 -2.95175 -5.89606e-21)
(3.80073 -2.19437 0)
(7.29272 -0.467859 -1.6657e-21)
(5.6744 -2.66141 -1.94579e-21)
(7.90672 0.0670767 -7.10931e-21)
(5.65762 -4.22791 0)
(6.19911 3.54828 5.97076e-21)
(7.96192 0.22615 -4.00153e-21)
(8.36809 -1.03238 0)
(9.98285 0.282452 1.44471e-21)
(5.59555 -2.63852 8.43153e-21)
(8.29836 -1.63432 -5.21975e-21)
(7.00943 -0.29747 0)
(6.0888 -2.05039 0)
(7.28342 0.280209 -4.33961e-22)
(9.01109 1.60369 2.59616e-22)
(5.96438 -1.96956 2.48719e-21)
(8.49695 -0.920137 -6.1834e-21)
(7.66382 0.24611 8.84474e-21)
(8.87251 -3.80789 -5.94701e-21)
(3.16624 -5.90298 8.38949e-21)
(-8.89876 0.237384 6.14873e-20)
(10.2759 -0.820517 1.2592e-20)
(7.71696 -0.110508 1.1611e-21)
(10.7673 0.823284 -6.7815e-23)
(8.05425 0.000936084 0)
(5.98663 -2.79456 0)
(7.79269 0.484747 -1.48989e-23)
(6.4157 -3.04107 7.80237e-21)
(7.89278 0.0789581 -1.41101e-21)
(7.92785 -0.356753 2.68304e-21)
(7.93774 -0.5069 0)
(9.65537 -0.0770202 -4.8842e-21)
(9.80814 0.422999 -1.17455e-21)
(7.64032 0.288371 -8.13775e-21)
(9.84266 -2.41065 1.9806e-21)
(9.05955 -1.06409 -1.35547e-22)
(4.50073 -1.93291 -1.98305e-22)
(8.86306 1.52521 -2.21244e-22)
(10.0303 -1.1315 2.79248e-21)
(7.79983 0.122025 2.60542e-23)
(7.30617 -3.56084 0)
(0.227365 -0.575293 0)
(9.35522 -0.172742 2.17338e-21)
(6.7716 1.37741 2.43568e-22)
(7.94118 0.236373 0)
(9.34473 5.89321 -5.52384e-20)
(3.69586 -1.93436 0)
(9.45187 3.89344 -1.6309e-21)
(10.3162 -1.51091 -2.35961e-21)
(7.57168 -6.47233 0)
(7.52941 1.6 -3.80628e-21)
(7.77712 0.517601 2.88111e-23)
(7.41224 0.914614 -5.14556e-22)
(7.39157 -0.103627 -1.39241e-20)
(7.28526 -0.542303 0)
(7.82181 0.264408 -3.8764e-23)
(7.69554 0.423541 1.90868e-23)
(8.02254 0.148235 1.88041e-21)
(6.48243 0.493458 -7.98424e-21)
(2.89911 2.67283 8.75956e-21)
(10.4124 -0.926606 1.7674e-21)
(8.80459 -1.64321 -1.73141e-20)
(8.31643 -0.864999 0)
(9.4782 0.678464 7.51959e-23)
(8.91308 -1.68365 -3.22574e-21)
(7.8941 0.117408 1.89162e-20)
(8.30546 -2.52332 0)
(10.8128 -1.15561 -2.58867e-22)
(5.79263 1.4418 0)
(9.90495 -2.10964 -5.2223e-21)
(7.43291 -2.15511 -5.51262e-21)
(3.28737 -1.45875 8.42629e-21)
(9.41799 -2.02349 -4.60675e-21)
(8.19313 0.772264 0)
(7.44623 0.492091 -2.89868e-22)
(7.19775 -0.544119 1.75299e-21)
(6.57301 0.511155 7.55019e-21)
(8.96313 -1.71128 1.24152e-20)
(9.53191 -0.781125 5.31289e-21)
(4.07306 -3.19831 -2.76991e-21)
(8.02935 0.0477193 -2.56758e-23)
(8.80493 -0.842916 0)
(4.23526 -1.29643 1.98836e-20)
(12.9032 1.20345 0)
(7.72664 0.520702 -4.49099e-23)
(8.77272 -0.511396 1.01254e-20)
(9.76707 0.674791 -1.10833e-21)
(9.92352 0.360615 1.05061e-21)
(-1.84827 -1.33258 -7.79906e-21)
(7.54965 0.351624 1.01704e-20)
(7.9152 0.0177042 0)
(-1.17054 6.5653 -1.9341e-20)
(8.62078 -1.16626 -3.67818e-21)
(6.85 1.37283 -1.33773e-22)
(7.72504 -2.20877 3.80266e-21)
(9.92363 0.0133202 0)
(10.8275 -0.884634 6.30607e-22)
(7.15013 0.761548 1.58496e-20)
(7.78854 0.342029 1.21442e-20)
(8.19519 -0.992283 0)
(8.05657 0.0472472 2.92366e-23)
(8.04175 -0.459938 -2.7209e-21)
(10.5018 -1.96704 2.52788e-20)
(6.31873 -0.186258 2.14445e-21)
(8.62918 -0.940923 3.50829e-21)
(8.3054 -0.0132791 -3.1984e-23)
(8.86736 -0.813383 0)
(10.6881 1.08874 2.03501e-22)
(5.2986 -2.98356 1.03869e-21)
(9.60859 1.32656 2.21634e-21)
(7.84536 0.154206 7.29703e-21)
(6.82848 0.148537 0)
(7.58198 0.529622 -1.43329e-22)
(8.12303 -6.0827 0)
(13.7947 3.62117 -1.1692e-20)
(7.94565 -0.083136 0)
(8.28277 -2.83118 -1.71073e-22)
(5.37936 -0.39045 -4.67344e-21)
(5.7987 2.63998 1.4167e-20)
(11.3986 -2.12218 -9.27468e-20)
(6.9974 -0.262093 0)
(9.07449 0.199626 2.52824e-22)
(7.90582 0.740743 -3.77457e-21)
(-11.3861 7.47025 -3.37895e-20)
(5.53836 -2.83855 1.96802e-22)
(6.62569 -0.229291 -2.31636e-20)
(8.5638 -0.871071 2.77232e-21)
(8.26877 0.713057 2.24132e-21)
(5.87389 -1.84019 0)
(5.57588 1.09772 8.78972e-21)
(7.85674 0.104099 7.72884e-24)
(4.11781 -2.18923 2.82467e-21)
(5.48696 -3.0175 -3.66859e-21)
(-12.2958 7.36165 -7.12552e-20)
(10.3595 -0.865333 0)
(-11.7315 7.26629 0)
(8.58932 4.47448 0)
(8.34153 -0.432103 0)
(1.98428 -2.2435 -2.15088e-21)
(9.89086 -2.01434 0)
(8.25536 3.52127 0)
(6.64339 0.436342 3.1511e-21)
(10.4589 -1.08793 -1.5035e-20)
(8.8485 -0.769447 -8.20771e-21)
(6.92256 1.31662 2.56043e-20)
(7.95969 0.162111 -1.88372e-21)
(9.53457 6.4449 0)
(8.79395 -0.965799 0)
(7.56832 0.288726 8.69687e-21)
(7.94884 -0.00362743 1.47104e-21)
(5.4955 3.85365 0)
(4.18337 -2.05041 2.69453e-21)
(8.5365 -3.00494 6.61378e-21)
(7.89546 5.87745 0)
(9.51518 -0.418615 5.22257e-21)
(8.0997 0.177415 -9.96894e-21)
(4.67978 -1.67876 1.86817e-22)
(4.23331 -1.25064 0)
(7.88136 0.959524 7.2902e-21)
(9.86865 0.370951 0)
(8.17585 -0.626159 0)
(8.71714 0.762797 -1.72037e-22)
(7.68065 0.357489 4.59179e-21)
(-4.3012 -0.354524 -1.5883e-20)
(9.3215 2.3595 -2.6519e-22)
(5.42972 -1.3142 -8.36216e-21)
(8.15303 -0.317698 1.06017e-21)
(8.20167 0.617575 1.67041e-21)
(10.6441 1.11981 -6.30492e-22)
(8.88215 -2.96338 0)
(8.5799 -1.71125 4.97915e-21)
(5.5114 -0.215471 0)
(7.68015 0.46128 7.55179e-26)
(9.18055 -0.953042 0)
(5.88015 0.192511 1.19003e-20)
(-2.60543 2.76045 -1.33734e-19)
(8.48377 -0.818197 0)
(-2.37557 -1.03598 1.57341e-21)
(8.74676 -1.00365 -6.48334e-21)
(7.65542 1.26198 1.6661e-22)
(7.11501 -1.0797 2.24315e-20)
(5.82332 2.82748 -8.98029e-21)
(5.40294 -1.25854 -2.383e-20)
(14.446 3.12889 0)
(7.89976 0.196007 -1.6359e-25)
(3.83908 -3.29873 -7.1571e-21)
(8.1696 1.02139 0)
(7.37038 1.06065 5.63745e-22)
(9.75104 -0.10649 -1.18364e-21)
(11.1117 3.61793 0)
(8.07588 0.145511 0)
(4.3263 -2.08344 0)
(5.61795 -3.29428 3.12743e-21)
(8.6316 -3.90727 7.04354e-21)
(10.9686 -4.2328 9.97465e-22)
(9.4225 3.65644 0)
(6.86316 -0.702978 1.50731e-20)
(8.04668 0.0644319 -4.70525e-23)
(9.30453 2.18679 1.152e-21)
(5.96694 -2.99244 4.16707e-21)
(7.68592 0.539161 0)
(8.01939 0.0127754 0)
(3.14985 -0.465908 -1.32793e-20)
(5.79082 -1.80658 -5.91325e-21)
(7.62763 -0.768292 0)
(7.1655 -3.35382 -7.44527e-21)
(8.08268 -0.0456593 3.05837e-23)
(8.02426 0.0472716 -7.47141e-24)
(3.5766 -1.52446 0)
(7.3178 -0.0123283 1.07122e-21)
(7.84289 0.132721 2.09099e-23)
(9.90278 0.335185 4.66787e-21)
(7.39883 -2.22837 0)
(-8.60559 -0.190074 -9.52068e-20)
(9.82151 0.54827 1.28274e-21)
(8.17242 0.262795 1.57382e-21)
(8.05834 0.0871921 1.00966e-23)
(10.4156 2.26923 0)
(6.85589 1.30693 -6.8344e-21)
(12.0069 0.169643 -8.29062e-21)
(-12.5478 7.31331 1.37378e-20)
(7.98382 0.187628 0)
(5.489 -2.75072 -2.01936e-22)
(2.07022 -0.270794 0)
(8.09995 0.0738756 -6.20094e-21)
(7.94655 0.293169 2.86887e-21)
(7.41899 0.207909 -1.70058e-21)
(5.41336 -3.27334 0)
(9.01762 0.0726789 -6.2225e-22)
(4.59608 1.72815 2.39396e-20)
(8.79503 -2.94889 0)
(6.56951 0.395541 9.68865e-21)
(9.73139 -2.44158 -2.27705e-21)
(8.69439 0.0818736 0)
(5.71834 -2.70617 9.28782e-22)
(6.56249 -0.165966 -1.26071e-21)
(8.20202 0.0118865 0)
(-10.0552 0.540542 9.22767e-20)
(7.35032 1.02977 0)
(7.05621 -3.23769 7.60367e-21)
(5.43275 -3.00917 2.1195e-21)
(8.04484 0.0429743 7.18708e-24)
(9.49766 0.372172 -2.61796e-21)
(5.53255 1.07974 4.66983e-21)
(7.05941 -1.19405 -8.21597e-21)
(7.07023 -0.318075 -6.95341e-22)
(7.09366 -3.17638 8.11877e-23)
(8.45706 -0.996149 3.36509e-21)
(10.3966 2.17263 7.74591e-21)
(8.30245 -3.76038 0)
(7.99318 0.112465 -6.46708e-21)
(6.70035 7.16373 -2.1572e-20)
(5.57474 -0.23461 0)
(8.01073 0.187315 3.11972e-23)
(7.74475 0.0192765 0)
(5.05678 -1.34295 2.09109e-20)
(8.14607 -3.03733 0)
(7.94781 0.0836151 3.63385e-22)
(8.87305 -0.355114 -5.79847e-21)
(5.75057 -2.68839 1.69307e-21)
(4.62667 -2.1738 3.74527e-21)
(9.7729 0.00574719 -4.44047e-23)
(7.17461 -3.44005 7.05165e-21)
(7.08455 -2.07086 8.22934e-21)
(5.90106 -1.2812 0)
(2.05176 -1.57169 -1.73448e-21)
(8.97586 -2.80966 -1.33871e-21)
(1.80274 -1.62648 -2.114e-21)
(7.96684 0.0483153 2.6095e-24)
(5.87398 -2.241 0)
(8.66788 0.0506605 -1.9496e-23)
(3.96985 -2.15516 0)
(6.2014 -2.96565 2.7812e-23)
(5.14129 -1.93259 -4.22652e-23)
(0.619488 -0.227084 0)
(8.0923 -2.20575 2.38045e-21)
(6.62338 -2.52776 0)
(11.1036 3.39446 0)
(6.75428 -3.22225 -9.98641e-21)
(5.95137 1.23208 7.09259e-21)
(5.86006 -0.443238 0)
(6.95384 0.796827 -4.30009e-21)
(11.417 -4.635 2.65679e-20)
(5.06694 -3.0252 4.69685e-21)
(11.4768 4.87842 0)
(8.1532 -0.0942346 0)
(3.41732 -3.51147 -3.32362e-21)
(7.46573 -0.49162 0)
(8.948 0.217118 0)
(4.20527 -6.10705 -5.77977e-22)
(8.05966 -1.61497 -1.12237e-20)
(6.91337 -1.65289 6.98354e-21)
(9.51706 -1.91784 9.03863e-22)
(2.32542 -1.58522 3.42229e-21)
(7.8446 0.284142 3.40866e-21)
(6.05492 -1.42016 0)
(8.75579 1.82352 -6.88117e-22)
(5.69996 -0.71522 0)
(8.69448 0.0739397 0)
(8.07338 0.444541 0)
(8.78081 0.702052 -1.28657e-22)
(7.38327 -0.0919477 6.42439e-21)
(8.31999 0.0235192 -1.43072e-22)
(6.20917 -1.48326 0)
(-2.25626 -0.222975 -7.8104e-21)
(8.32112 4.18022 3.86429e-22)
(7.35896 -2.69354 7.88486e-22)
(7.39092 -0.180301 -1.79046e-21)
(8.21085 -1.54797 8.43875e-21)
(8.07034 0.247949 -5.74014e-21)
(-2.40505 5.09183 0)
(9.92589 0.419908 0)
(5.92065 3.54636 0)
(5.12138 -2.2635 -1.53447e-20)
(6.04638 -2.55287 -2.07101e-21)
(0.0931578 -0.974102 0)
(8.79968 1.72376 0)
(11.0907 0.238472 3.01615e-22)
(8.06355 -0.19225 -1.67653e-21)
(7.90392 2.53664 6.03462e-21)
(8.55808 -3.51358 0)
(-0.460873 -4.20528 -2.87805e-21)
(9.23307 0.259461 -7.78342e-22)
(5.66391 -1.66087 -1.40767e-20)
(8.77771 0.194569 -3.82638e-22)
(9.34996 2.17281 -2.78374e-22)
(7.45459 -3.1049 2.98062e-21)
(5.05831 -2.22462 2.64708e-20)
(6.78583 -1.54522 2.74915e-21)
(8.29595 0.192891 3.87391e-23)
(7.8924 0.0691629 -1.68524e-21)
(6.40469 -3.12177 -2.21755e-21)
(6.72498 -0.106106 5.4615e-22)
(7.53291 8.83281 8.82333e-22)
(6.98538 -3.3109 3.91778e-21)
(9.19879 0.640653 0)
(7.46456 2.17217 4.44221e-23)
(8.35989 -0.0504044 -3.90892e-21)
(11.6325 1.9623 4.71168e-21)
(5.54466 -1.48861 -1.28423e-20)
(7.31887 -2.60191 -8.43697e-21)
(8.27987 0.0769876 1.56793e-20)
(9.41574 0.0540775 -9.01069e-21)
(11.3559 3.73508 8.49682e-21)
(10.4708 -0.796627 -6.51768e-21)
(4.77088 -0.649583 -2.79894e-20)
(8.70813 -0.0179283 -2.75866e-21)
(4.7549 -0.866933 0)
(5.77514 -2.70229 -3.66388e-21)
(7.94929 -0.134348 1.50745e-20)
(7.71448 -0.0378591 5.58134e-23)
(-0.720149 8.66887 0)
(7.53162 -3.4667 0)
(8.06958 1.75535 4.98273e-21)
(4.31624 -0.621398 1.743e-20)
(6.5953 -3.03087 -3.84592e-21)
(8.3356 -2.81172 -4.17831e-21)
(8.85574 -1.66345 9.49254e-21)
(12.9302 0.971703 0)
(8.05984 1.88009 2.57189e-21)
(5.07847 -2.16103 -1.67654e-22)
(10.1877 3.5793 5.56908e-21)
(7.81199 -1.02675 -9.78325e-21)
(2.50986 -1.85631 -5.42481e-21)
(8.17474 -1.41447 -8.30462e-21)
(8.54107 -1.83213 2.60999e-21)
(9.22872 4.56826 0)
(7.4315 -0.606264 -1.22245e-21)
(7.46779 0.273289 1.58461e-21)
(7.95536 -0.00704376 1.71074e-23)
(4.17612 -2.02673 2.46739e-20)
(7.74468 -0.997094 1.47369e-20)
(8.04518 0.518671 -1.92908e-22)
(5.27118 -3.01809 -2.73119e-21)
(8.34485 -0.363978 -3.17778e-21)
(8.53744 0.136853 2.45438e-21)
(2.85174 -6.34897 -1.08902e-21)
(9.7766 3.64339 -6.59636e-21)
(-9.9814 2.55652 -1.00264e-19)
(5.36382 -2.58879 -8.08799e-21)
(7.98168 0.0208233 0)
(8.09086 0.260371 -1.92261e-22)
(4.60936 -4.17505 -2.19754e-21)
(5.40771 -0.495518 2.50073e-20)
(8.10248 0.0490895 0)
(9.26853 -1.13085 -4.82942e-22)
(4.87163 -1.87612 6.00798e-21)
(7.86988 0.141796 -1.44263e-20)
(5.04768 -2.6593 -2.76525e-21)
(5.70929 -0.29888 -4.25743e-22)
(8.73714 -0.814823 5.6303e-21)
(8.89746 0.182196 -5.23397e-22)
(7.12835 -3.2807 -1.05041e-20)
(8.12484 0.127188 2.14646e-22)
(6.06751 -2.65131 -4.94648e-21)
(8.38837 0.0217451 3.66638e-21)
(8.09115 -0.293962 -4.64396e-21)
(8.49989 0.474804 -4.43446e-23)
(8.65503 -0.158453 -9.85894e-21)
(4.7208 -1.94447 -1.16127e-20)
(8.09693 0.178195 0)
(5.57765 -2.99046 2.39219e-21)
(8.0608 0.0795644 1.1225e-21)
(3.95115 -1.66403 -2.24598e-22)
(9.60235 0.179338 -1.9849e-21)
(8.67181 -1.69119 -5.91587e-21)
(7.95957 0.109704 -1.06266e-20)
(8.39725 1.20075 1.32092e-21)
(3.93253 -1.96301 -2.76955e-21)
(9.00547 0.223144 0)
(7.66277 0.495556 7.59963e-23)
(9.67967 0.740774 1.13597e-21)
(5.9023 -2.17251 0)
(8.4695 0.326113 1.85354e-21)
(9.3913 0.77663 1.41824e-21)
(8.77098 0.253623 1.58054e-25)
(9.8546 -3.70939 -3.16157e-22)
(7.34803 -0.00281527 0)
(7.24677 1.60348 1.21358e-20)
(8.10491 0.509334 3.30928e-22)
(6.85315 -3.2299 8.54992e-21)
(8.02559 -0.805713 0)
(5.92328 1.19554 -2.05248e-20)
(6.07772 -2.43953 2.63329e-21)
(10.3037 5.62901 -1.213e-20)
(4.82316 -0.694394 2.73896e-20)
(8.1692 -0.0708019 1.19159e-22)
(4.88296 -2.2634 2.83498e-21)
(7.49474 -0.349625 -1.00266e-20)
(8.78499 -1.51526 -7.42761e-21)
(7.04984 0.750899 -9.15194e-21)
(8.2399 0.0182084 0)
(7.92416 0.13159 -6.36204e-21)
(-1.31958 -0.57527 9.49843e-21)
(-1.24987 2.19536 0)
(7.92913 -2.44368 0)
(7.95779 -0.0753662 0)
(-12.5042 6.83818 0)
(8.13525 1.17188 0)
(4.59836 -0.623831 0)
(6.99318 -1.00628 -5.51633e-23)
(10.3284 -3.9062 -1.04142e-20)
(10.1066 0.862624 0)
(6.77253 1.37524 1.80626e-20)
(4.04814 -3.17883 -1.01061e-20)
(8.12674 0.694195 1.45166e-22)
(4.44365 -4.64139 -1.29852e-21)
(4.64058 0.270075 -8.6555e-23)
(4.54568 -2.26019 2.30753e-21)
(9.11594 0.148326 -3.53746e-21)
(9.65791 -0.271385 7.5464e-22)
(8.01247 1.0753 -3.502e-21)
(7.56098 0.815858 -1.20302e-20)
(8.10248 3.84008 -2.94375e-21)
(13.9807 3.32494 0)
(5.77668 -2.97915 6.66115e-22)
(5.11525 -1.42851 -2.28946e-20)
(8.16013 0.0571893 -1.94783e-20)
(9.04994 -2.7694 -7.74972e-21)
(8.05388 -0.0838862 1.61344e-21)
(10.4492 -2.65736 4.5557e-22)
(8.37368 -1.31846 -1.26437e-21)
(8.14305 -2.17367 -8.24994e-21)
(8.08741 0.594711 3.91235e-21)
(11.077 7.14015 0)
(7.08041 -0.137623 -6.63013e-22)
(6.72687 0.35688 -2.82152e-21)
(9.98175 -1.92431 0)
(7.26442 0.280998 0)
(7.44183 -3.39933 -6.50785e-23)
(5.37933 -2.54873 3.12697e-21)
(6.93077 -1.01222 -3.0246e-21)
(7.58388 0.14537 0)
(7.45423 -0.182399 -1.31052e-20)
(7.27849 1.07543 -2.34422e-21)
(5.65619 -2.83447 1.42864e-21)
(9.21493 0.535552 8.84226e-22)
(4.76452 -2.31956 0)
(5.72561 -3.01948 7.9876e-22)
(9.38959 0.648285 0)
(7.43789 -0.677951 1.30321e-21)
(10.9103 -0.863105 -7.96462e-22)
(8.02602 0.0144368 -2.77498e-23)
(9.50395 2.38246 3.8471e-21)
(11.2928 4.22117 -1.26145e-21)
(6.95816 -1.9847 1.70372e-20)
(5.46141 -2.4005 0)
(6.49443 -2.28098 -3.89957e-21)
(5.46713 -1.76345 0)
(10.2991 0.838412 -2.08375e-21)
(5.64839 -2.79339 2.9332e-21)
(8.0391 -2.44459 5.08482e-21)
(7.58471 0.488308 -1.10832e-22)
(5.32587 -3.68266 -4.74222e-21)
(6.14945 -2.87975 -9.87485e-21)
(5.27137 -1.47061 -1.3297e-20)
(7.9605 0.162458 -1.57025e-24)
(6.51347 -2.1446 3.17668e-21)
(4.78856 -1.99431 9.52312e-21)
(5.48211 -1.62269 1.4406e-20)
(6.02494 -2.57191 2.5841e-21)
(6.67387 -2.28261 -1.88612e-21)
(7.2619 -2.29876 8.40191e-21)
(6.77639 1.67071 9.9798e-20)
(8.15601 0.0397779 1.4122e-22)
(4.82534 -3.02038 8.67522e-21)
(9.3722 1.51584 3.30213e-22)
(8.86189 -2.33424 0)
(-13.133 5.99309 -1.36111e-19)
(8.1252 0.0461093 -4.95899e-21)
(8.09405 0.688695 0)
(10.1486 0.778643 0)
(6.04349 -2.12088 -2.88268e-21)
(9.12573 -2.33907 -7.78773e-21)
(9.43054 0.62742 4.30069e-21)
(8.05863 -1.55161 1.47533e-20)
(8.09401 3.7206 2.95764e-21)
(7.65531 -0.109343 1.00888e-20)
(5.58533 -2.88739 -4.93209e-23)
(7.25576 2.55012 0)
(5.61923 -1.76277 1.37278e-20)
(4.1593 -10.8937 1.09401e-20)
(5.33739 -3.56951 3.57989e-21)
(6.81938 -2.59478 2.85879e-21)
(7.58234 -3.54336 -2.16414e-21)
(8.725 -0.178601 5.07306e-21)
(7.45008 0.348147 1.50997e-22)
(8.09949 -0.895513 5.69225e-21)
(5.5152 -2.91769 -2.00153e-21)
(9.50719 0.677476 -3.20094e-21)
(7.73717 0.278896 5.11803e-21)
(4.71475 -0.849795 -1.12708e-20)
(7.35187 -0.371276 8.21581e-21)
(10.7053 3.49228 0)
(9.60947 1.27356 -3.49868e-21)
(8.02006 0.191569 1.11424e-21)
(5.9032 -1.14593 -4.38381e-21)
(8.26058 6.52236 3.5324e-21)
(7.1591 -2.2555 6.25374e-21)
(8.08389 -0.012988 2.23692e-21)
(5.54647 0.599461 -1.60999e-20)
(9.99054 -1.92633 0)
(7.63273 0.432975 -2.45434e-22)
(8.80189 0.200299 5.42392e-22)
(7.4949 -0.130287 0)
(5.81706 0.160453 9.27765e-21)
(9.17728 0.559218 0)
(7.05712 6.81065 -6.25981e-22)
(9.34843 -0.0818069 0)
(7.09226 -0.135978 0)
(9.71013 0.149892 1.1597e-21)
(9.40724 0.552564 -1.80765e-21)
(10.8088 -0.288829 -1.17427e-20)
(7.65662 0.397994 -5.37295e-21)
(6.28431 4.06437 -3.63911e-21)
(8.12972 0.203781 -1.89314e-21)
(8.32353 1.2321 0)
(13.8391 -8.66254 -7.10515e-21)
(9.57548 0.51672 3.35227e-21)
(7.31415 -0.601969 -2.6658e-21)
(8.8684 -2.31591 0)
(11.7757 1.84292 7.09716e-21)
(8.95597 6.42871 8.26239e-22)
(8.24025 -0.0613895 3.27823e-22)
(6.46609 -3.98324 0)
(4.78063 -6.02411 6.27449e-21)
(8.07975 0.635127 0)
(8.15482 -0.801869 -2.92812e-21)
(-0.193075 1.47107 0)
(15.1406 -5.72002 0)
(6.77464 -1.68287 0)
(8.00001 -3.01693 0)
(0.99124 -7.75393 -2.57647e-21)
(5.63917 -3.23213 -6.83633e-22)
(7.47219 -0.0554157 -9.59965e-21)
(5.84404 -2.75654 -2.07513e-21)
(5.10983 -2.13487 0)
(5.90197 -2.772 -1.51262e-21)
(-1.82712 4.66668 -6.26326e-20)
(6.37202 -2.97149 0)
(5.89178 -2.02449 -1.47812e-20)
(7.88858 0.276519 1.38553e-23)
(9.22435 1.47774 -1.14373e-21)
(9.50626 -3.32019 1.93477e-21)
(7.3133 0.760996 0)
(8.6135 -2.84289 0)
(12.5207 -1.28843 6.43035e-21)
(6.75006 0.0185079 1.27681e-22)
(7.79188 0.202469 -4.33757e-23)
(6.06833 -2.06689 -6.90881e-23)
(8.01025 -0.0510354 4.75567e-22)
(8.21206 0.195752 -1.30228e-23)
(7.97372 0.626873 5.51326e-21)
(7.59685 0.516765 6.79295e-23)
(7.44762 -2.12739 0)
(-4.80707 -0.867368 0)
(8.24711 0.0774418 0)
(7.86322 -0.00485042 0)
(6.92793 -1.28816 6.10068e-21)
(9.8413 -0.611352 0)
(3.22329 -7.69358 1.82219e-20)
(7.17127 -3.08063 -1.57201e-22)
(5.34546 -1.66078 -2.17668e-20)
(4.1802 -3.72867 4.76549e-21)
(5.64188 -3.01331 -1.32058e-21)
(4.60628 -9.51127 -1.41539e-20)
(8.26328 -0.0115746 1.76836e-21)
(5.37083 -3.01745 -1.90716e-21)
(7.68597 0.501279 7.38503e-23)
(9.72386 0.0243322 0)
(9.34599 -1.66241 0)
(3.34525 2.01318 0)
(8.65986 -1.79378 3.13349e-21)
(6.67638 -2.46424 0)
(7.46302 2.49277 0)
(8.09237 -0.0877389 0)
(6.96236 -1.64541 6.52392e-21)
(8.18705 0.660044 -4.43328e-21)
(7.71682 0.0778053 0)
(7.16293 -1.04875 -2.89287e-21)
(8.07412 0.654988 -5.82515e-21)
(10.0711 3.40848 -1.19358e-20)
(6.42896 -2.94633 8.97816e-21)
(7.80866 2.79849 6.74501e-23)
(6.39643 -0.337897 -1.11808e-22)
(7.25502 0.335066 4.26501e-22)
(6.89317 -0.431799 -1.30962e-21)
(9.2965 0.522245 2.59867e-21)
(7.84106 0.182908 -3.32819e-23)
(7.34435 0.354744 -9.02863e-21)
(8.3663 0.0484105 0)
(5.06719 -1.90914 1.80144e-22)
(7.68695 0.128264 8.95898e-21)
(5.22411 -2.20927 1.90045e-21)
(8.37924 -1.28704 -3.68466e-21)
(4.42775 -0.707893 -1.89594e-20)
(9.35055 0.42628 -4.69641e-22)
(12.2283 0.417141 1.19936e-20)
(8.05985 0.161107 0)
(7.89716 2.63364 4.72062e-22)
(7.54139 0.194053 -1.82635e-22)
(6.95062 -0.404268 2.67199e-21)
(5.86709 -2.98898 -4.75493e-21)
(7.69929 0.127162 4.82079e-21)
(8.28966 0.163497 -3.70844e-23)
(8.00244 0.0736412 -8.46518e-23)
(8.17441 0.138652 0)
(7.08804 -2.2766 0)
(6.05283 -2.88197 1.11515e-20)
(4.84043 -2.4852 2.9867e-21)
(8.03737 0.0101114 1.21283e-23)
(7.74847 0.166407 1.81593e-20)
(7.89117 2.8587 -1.84268e-21)
(5.92864 1.01005 0)
(7.18065 0.44324 0)
(6.33681 -1.37964 -6.02441e-23)
(9.54671 0.0218145 1.74599e-21)
(8.01247 2.6053 7.71027e-21)
(10.0502 -0.524955 0)
(8.22018 0.0435636 0)
(8.22544 -2.41726 1.16059e-20)
(7.78409 -0.647145 7.78293e-21)
(0.941746 -0.305865 -1.15686e-21)
(7.5499 -0.192045 0)
(16.1758 -5.65681 1.1659e-20)
(7.42613 -1.41907 -1.0939e-21)
(4.61752 -4.01038 -2.78551e-21)
(7.81153 -0.151355 -1.05778e-20)
(10.626 -3.59208 0)
(9.18052 -2.44895 6.14621e-21)
(6.70267 -3.80987 -5.1601e-21)
(1.11097 -0.131607 0)
(7.86635 -0.0635397 -5.43763e-23)
(7.68787 0.399675 -5.902e-21)
(8.04955 -0.0792624 8.54132e-26)
(10.801 -1.01118 5.30579e-22)
(8.1454 8.14088 1.61649e-20)
(8.19086 0.0588066 0)
(4.30971 -1.38004 -1.24556e-22)
(7.99933 3.20408 1.97165e-21)
(7.67948 -5.82533 -1.35936e-20)
(8.06723 1.00754 4.14694e-21)
(5.64791 -2.45822 1.43803e-21)
(7.94795 0.0213161 -2.30309e-20)
(8.00863 0.551736 1.41842e-22)
(7.35835 0.413282 2.72727e-22)
(6.85548 -1.5023 0)
(7.44586 0.0382794 -9.49121e-22)
(4.66938 -2.05267 7.69567e-21)
(8.74251 -0.443288 -1.11402e-20)
(7.93599 0.251153 -8.1665e-21)
(8.19925 -0.722387 2.70481e-21)
(6.68856 -0.626242 2.20311e-20)
(8.14949 0.0420387 -1.69059e-22)
(7.1238 0.56358 5.20426e-21)
(7.9643 0.253584 6.42173e-23)
(9.6342 -1.94262 -1.04515e-20)
(10.0995 3.91985 -9.28772e-21)
(6.62014 -3.09615 3.00675e-21)
(8.34706 -0.0391835 0)
(5.51093 2.28229 0)
(4.54427 -1.9457 0)
(5.33973 -1.5028 1.67323e-20)
(8.36983 0.0179618 -1.30185e-20)
(7.19947 1.0663 0)
(6.04989 -1.25698 -1.29719e-20)
(7.07504 0.946116 0)
(6.94411 -1.13654 -1.00176e-20)
(7.29896 -0.608952 -2.73985e-21)
(7.4134 -2.00898 -9.15696e-21)
(8.39348 0.0223494 0)
(7.63038 0.142061 0)
(7.6716 -0.189268 1.6156e-21)
(9.95164 0.750221 2.42561e-22)
(9.42899 -0.317355 5.12567e-21)
(9.35791 6.73251 -5.92737e-22)
(10.2612 -0.844092 0)
(6.84676 -2.51923 -4.73143e-21)
(-1.45264 1.88421 0)
(3.1069 2.8604 -8.68582e-21)
(11.3412 4.15817 0)
(8.11155 0.127311 7.59236e-23)
(4.79974 -0.540164 7.263e-21)
(6.10902 -0.463644 7.14574e-21)
(7.70941 -0.109242 -1.58742e-21)
(7.08697 -2.88123 -1.13537e-20)
(7.74168 -0.774137 1.97112e-20)
(7.98937 1.20625 -2.21463e-22)
(9.74336 -2.54547 -4.95904e-22)
(7.8311 -1.7433 -4.56717e-21)
(-1.61186 -1.39001 2.40433e-20)
(10.4072 1.48859 0)
(7.97281 0.10349 6.40897e-23)
(6.09234 -1.46959 0)
(7.38935 0.422673 -3.01293e-22)
(6.92276 -2.52549 -2.46263e-21)
(6.77852 -0.526435 -7.24436e-21)
(8.08948 0.00989266 -3.24603e-23)
(9.69027 -0.0132088 -5.04561e-21)
(6.66281 -0.122667 1.48116e-20)
(9.45572 -0.290121 -3.57443e-21)
(7.81481 0.193073 0)
(0.623049 -4.10305 0)
(8.84554 0.249494 4.72216e-22)
(10.7333 -0.352703 0)