/*--------------------------------*- C++ -*----------------------------------*\
| =========                 |                                                 |
| \\      /  F ield         | OpenFOAM: The Open Source CFD Toolbox           |
|  \\    /   O peration     | Version:  2306                                  |
|   \\  /    A nd           | Website:  www.openfoam.com                      |
|    \\/     M anipulation  |                                                 |
\*---------------------------------------------------------------------------*/
FoamFile
{
    version     2.0;
    format      ascii;
    arch        "LSB;label=32;scalar=64";
    class       volVectorField;
    location    "1.1";
    object      U;
}
// * * * * * * * * * * * * * * * * * * * * * * * * * * * * * * * * * * * * * //

dimensions      [0 1 -1 0 0 0 0];

internalField   nonuniform List<vector> 
5098
(
(2.59331 0.53646 0)
(2.15273 0.0332061 -1.69518e-20)
(2.17879 0.0327118 -2.07714e-21)
(1.73029 -0.770135 6.17166e-19)
(1.87149 -0.103429 0)
(1.14525 -0.552425 0)
(2.25789 -0.0423533 -1.28778e-20)
(2.02238 -0.198057 5.81528e-22)
(2.01632 0.0804643 -5.97367e-20)
(2.46313 0.632927 -9.31942e-21)
(1.41509 -0.6854 0)
(2.23617 0.0121167 1.31397e-19)
(2.85123 -0.130015 1.51514e-21)
(1.15642 -0.564194 0)
(1.98852 -0.0422709 3.20081e-20)
(1.95688 0.0364524 1.84602e-21)
(1.36972 -0.781632 -1.38971e-19)
(1.53987 -0.720307 0)
(0.180594 0.321729 6.67599e-19)
(1.38392 -0.762966 1.56876e-19)
(1.82834 0.305158 -6.018e-20)
(1.913 0.00495694 8.13915e-21)
(2.36815 -0.859295 0)
(1.00624 -0.134545 2.52554e-20)
(1.0626 -0.528008 0)
(1.66728 -0.672319 0)
(2.0472 -0.105717 9.48727e-20)
(2.06319 -0.854192 1.49895e-19)
(0.463181 0.205669 -2.02445e-18)
(2.25291 -0.968432 0)
(2.36285 0.0492898 -8.28611e-20)
(0.917359 -0.449111 0)
(1.90753 0.00837807 -1.08599e-19)
(1.17593 -0.754586 0)
(2.37215 0.0844172 -3.23152e-20)
(2.46112 -0.468387 6.50759e-19)
(2.0631 -0.485095 1.17767e-19)
(2.18591 -0.0837597 -9.04066e-21)
(1.52745 -0.537414 4.60543e-19)
(1.81991 -0.829394 0)
(1.7599 -0.79151 -2.88597e-19)
(1.78046 -0.627323 -1.57113e-19)
(1.68533 -0.679156 0)
(2.1046 0.199569 7.98755e-20)
(2.3932 0.274118 4.72184e-20)
(2.01031 0.174194 5.15285e-21)
(1.43662 -0.786169 4.57091e-20)
(1.29882 -0.480793 0)
(2.38047 0.023749 0)
(1.72289 -0.736695 6.58305e-20)
(2.12634 0.0524094 4.7532e-20)
(1.7382 0.279641 -3.7982e-19)
(0.988826 -0.471672 -3.26723e-22)
(2.14666 -0.0211025 1.40417e-19)
(1.20842 -0.596186 -2.79486e-19)
(1.66683 0.0882003 0)
(1.91738 0.22852 -2.05611e-19)
(1.82914 -0.742495 0)
(1.07625 -0.527448 0)
(2.07758 -0.0690472 -4.91831e-21)
(1.95665 0.0608229 -1.67437e-20)
(1.00028 -0.512247 -1.42663e-19)
(2.33261 0.0798335 0)
(2.80682 -0.0193303 0)
(1.06085 -0.496011 3.85385e-19)
(1.02691 -0.515212 3.54063e-19)
(2.10867 0.0554597 1.24419e-21)
(2.2738 0.212971 4.38987e-21)
(2.22365 -0.211768 1.3428e-19)
(1.86715 -0.774323 1.88488e-19)
(1.93636 0.0453688 1.8348e-20)
(1.76687 0.251174 6.00792e-21)
(2.16422 -0.870512 0)
(0.418769 0.397267 0)
(1.94221 -0.0342601 8.19944e-21)
(1.42721 -0.694689 -3.16867e-19)
(1.96863 0.0956187 0)
(1.57288 0.0654574 3.63792e-19)
(2.2239 0.285948 5.81362e-20)
(1.75791 0.119722 0)
(1.9417 0.0372786 0)
(1.93646 -0.597104 1.15165e-19)
(1.84854 -0.344023 4.23989e-19)
(1.08222 -0.718838 -2.36299e-20)
(1.54127 -0.694301 6.4217e-20)
(2.02621 -0.876243 -2.33652e-21)
(0.338342 0.0681425 -2.43606e-19)
(1.96792 0.102994 -1.14185e-20)
(2.09596 0.00178579 2.14332e-20)
(1.9516 0.0694538 -2.31765e-20)
(2.26289 -0.0286944 -5.56158e-21)
(0.852491 -0.597495 1.99002e-19)
(2.31307 -0.0912917 -1.7325e-19)
(1.74139 -0.753415 -3.28955e-19)
(1.5143 -0.564721 8.14388e-20)
(1.75397 0.458174 -2.97008e-20)
(1.36606 -0.676466 -2.57434e-19)
(1.63194 0.156952 2.64042e-19)
(1.90258 0.149772 -1.25613e-20)
(2.23573 -0.517063 -8.69216e-20)
(1.70374 -0.334061 -3.39262e-20)
(1.27938 -0.622923 -3.3157e-19)
(1.04846 -0.775126 -1.27678e-19)
(2.04386 0.088239 -1.37776e-20)
(1.62254 0.062341 -4.13568e-19)
(2.49484 0.784047 0)
(1.84494 0.0669919 2.14774e-19)
(2.32558 0.0443636 2.97571e-20)
(1.24936 -0.528475 6.40466e-20)
(1.43014 -0.720134 0)
(1.33945 -0.643741 -6.99262e-19)
(2.99516 0.646291 9.81857e-19)
(2.01361 0.00836261 -2.12538e-19)
(1.39656 -0.842245 3.73585e-20)
(1.86189 0.458192 8.53295e-20)
(-1.86948 0.84687 0)
(1.9734 -0.58724 2.1306e-19)
(2.81627 0.871079 0)
(2.04735 0.0566237 1.59632e-20)
(1.0411 -0.170604 -3.86548e-19)
(1.7572 0.236627 3.1196e-19)
(1.72295 1.52751 -1.45403e-19)
(2.37321 0.542517 2.09378e-21)
(1.78792 -0.740459 -1.30492e-19)
(1.03671 -1.08023 -3.25047e-19)
(0.993547 -0.532824 1.9607e-20)
(2.16376 -0.133463 1.1354e-19)
(2.35124 -0.822506 -1.35594e-19)
(1.50828 -0.269154 -9.72791e-20)
(1.36751 -0.845289 -7.49149e-20)
(1.69558 -0.7514 -1.28992e-19)
(1.34607 -0.600965 -4.68928e-19)
(1.36459 -0.598415 3.91969e-19)
(2.69698 0.979182 -1.35262e-19)
(1.56574 -0.208723 -7.97099e-20)
(1.9701 -0.271874 1.01313e-19)
(2.16475 2.02605 4.01364e-19)
(2.01575 0.134196 1.41807e-19)
(1.0962 -0.536697 0)
(1.95437 -0.057652 -4.52024e-19)
(1.71558 0.362084 -2.52298e-19)
(2.28776 -0.422676 1.98451e-19)
(2.06164 -0.922959 2.7431e-19)
(2.25662 -0.0201298 -1.54857e-20)
(2.23201 0.103499 -3.20702e-20)
(1.98321 0.0150841 0)
(2.24384 -0.220236 1.36202e-19)
(1.75392 -0.0772384 0)
(2.1799 -0.0444442 1.78359e-19)
(2.05875 -0.930124 9.1266e-20)
(1.84486 -0.519743 -7.91512e-20)
(3.6596 -1.13215 0)
(1.71746 -0.148078 2.34954e-20)
(2.13246 -0.0604449 0)
(0.334378 -0.00469938 -2.98483e-19)
(1.05383 -0.443061 -1.58971e-19)
(1.83072 -0.734328 -3.39676e-19)
(1.59588 -0.264576 -2.45357e-20)
(1.75969 -0.811795 -2.37324e-19)
(-0.400091 0.394737 2.28236e-18)
(2.09714 -0.466754 -3.06058e-19)
(1.92717 0.0259769 -3.74003e-20)
(4.15624 -1.24144 -7.03606e-19)
(1.8467 -0.288999 -2.57268e-19)
(1.56681 -0.756488 -6.55832e-20)
(2.32681 0.0846192 -8.40334e-20)
(1.68648 -0.0694698 -8.98573e-20)
(2.67126 -0.477358 0)
(1.33469 -0.660093 8.98201e-20)
(1.8728 -0.62535 -3.7116e-19)
(1.79912 0.363368 2.1139e-20)
(1.73202 -0.711338 -2.24109e-19)
(2.18891 0.325908 7.2498e-20)
(2.05905 -0.823313 2.64737e-19)
(1.98715 0.0987846 0)
(2.03093 -0.0565414 0)
(1.86008 -0.364544 -1.63466e-19)
(2.51676 -0.421355 -2.14246e-20)
(1.88034 -0.228443 3.55381e-19)
(0.518309 -0.093202 0)
(2.17721 2.4314 0)
(1.9437 -0.55989 -1.78906e-19)
(1.94 -0.611244 4.53812e-19)
(1.56562 -0.768469 0)
(1.86274 -0.19055 0)
(2.57774 0.198347 4.78382e-19)
(1.65631 0.200134 0)
(2.04816 -0.449151 3.97324e-19)
(1.25419 -0.611301 6.13363e-19)
(1.68234 -0.924009 -8.42927e-20)
(3.75865 0.70216 0)
(3.28284 0.670546 -5.75227e-19)
(2.18454 -0.886429 0)
(1.98182 0.10787 -9.81752e-21)
(2.37614 0.0475952 9.16735e-21)
(1.01539 -0.584939 -1.85356e-19)
(2.09479 -0.573672 1.2765e-19)
(2.05291 -0.302473 0)
(1.9952 -0.050333 -1.61427e-20)
(1.89698 -0.618123 -6.7793e-20)
(1.69894 -0.77438 -2.44659e-19)
(1.68705 0.195834 4.74272e-21)
(2.39106 0.358131 1.22625e-20)
(2.12843 -0.0267882 2.87759e-21)
(1.84585 -0.100865 1.55263e-19)
(1.02285 -0.44861 -1.13553e-19)
(2.48278 -0.203614 -1.039e-20)
(1.42487 -0.655843 0)
(2.1935 -0.00470674 0)
(1.67597 -0.801034 -2.65449e-19)
(2.14588 -0.220067 -1.30088e-19)
(1.79084 0.150181 2.48018e-19)
(3.47155 0.167832 5.09049e-19)
(2.07797 -0.0522116 -1.06245e-19)
(2.06698 -0.0656798 -1.08518e-19)
(2.18475 0.497835 -5.74303e-19)
(1.94649 -0.0168478 0)
(1.45 -0.706612 -1.31862e-19)
(0.920014 -0.871921 4.36907e-20)
(2.00748 -0.0111383 8.25842e-20)
(2.40603 -0.0976758 -2.05802e-20)
(1.74595 -0.425889 0)
(1.87181 -0.081498 1.29642e-20)
(2.43634 -0.200848 9.86727e-20)
(1.07929 -0.526712 4.48193e-20)
(2.05986 -0.185312 0)
(0.630237 -0.227137 0)
(2.17051 -0.0141377 0)
(2.15646 -0.480405 0)
(2.30316 -0.864923 -1.04585e-20)
(1.92305 0.169523 0)
(0.830225 -0.378783 -4.19527e-19)
(2.02438 -0.552111 -1.3403e-19)
(2.14387 -0.0787769 1.94231e-20)
(2.3113 0.0401477 -5.46097e-20)
(2.09406 0.0823642 0)
(1.62395 1.14715 -1.47489e-19)
(1.78251 -0.796864 -3.39861e-19)
(2.22231 -0.341175 0)
(1.93218 -0.0695885 2.6094e-19)
(1.91951 -0.670004 -3.82203e-19)
(2.21918 0.358685 0)
(2.06474 0.0266497 0)
(1.24087 -0.368838 6.93436e-19)
(1.98627 0.350352 -3.12519e-19)
(2.24966 -0.089626 -1.43735e-19)
(1.29053 -0.615307 7.52006e-20)
(1.45773 -0.707292 -1.06675e-19)
(1.40782 -0.791011 0)
(2.30127 -0.0329393 3.84309e-20)
(2.22865 0.485379 -2.95214e-20)
(2.08685 -0.859762 2.67805e-19)
(-0.569184 -0.659619 8.35311e-19)
(1.74625 -0.789291 1.53052e-19)
(1.86709 -0.00448145 -1.97132e-19)
(1.78144 -0.81011 3.15824e-19)
(1.60863 -0.179865 6.85164e-20)
(2.09562 1.45652 1.61281e-19)
(1.32507 -0.491667 -2.88785e-19)
(1.98456 -0.0280866 1.74301e-21)
(2.5448 0.126199 7.19867e-20)
(1.14943 -0.546274 1.80903e-19)
(0.992174 -0.478963 1.42471e-19)
(2.1349 -0.900579 0)
(2.1213 -0.0122552 -5.48721e-21)
(1.36988 -0.68872 4.83004e-20)
(-0.345461 0.412915 -2.73737e-18)
(1.4031 -0.661226 0)
(1.92967 0.457255 0)
(1.83359 -0.0911435 -2.42624e-20)
(1.7142 -0.870383 1.04846e-19)
(2.00633 0.12819 1.24783e-20)
(0.0726998 0.0304247 -1.19459e-18)
(1.94744 0.423826 0)
(1.34253 -0.549207 2.55204e-21)
(1.28439 -1.02931 -1.4528e-19)
(1.76359 -0.618183 -1.48924e-19)
(1.81857 -0.447851 0)
(2.5632 -0.715296 0)
(1.93555 -0.115331 0)
(1.69114 -0.754981 -8.12326e-20)
(2.09093 -0.0534688 6.00325e-20)
(1.25572 -0.59864 -1.91451e-19)
(1.97413 -0.190349 -6.6736e-20)
(2.99101 -0.646971 -1.86759e-19)
(1.14078 -1.09953 0)
(1.93719 -0.0520279 0)
(2.05471 0.0157742 -4.31331e-20)
(2.29857 0.157266 6.7776e-20)
(2.05859 0.0801214 -2.0313e-19)
(1.81297 -0.720035 0)
(1.61857 -2.05672 3.97463e-19)
(1.22824 -0.156794 -2.03946e-19)
(2.34381 0.233757 3.43539e-20)
(2.18451 -0.674974 2.81648e-19)
(2.28301 0.746636 3.01577e-20)
(2.35628 -0.0272127 0)
(2.342 0.0838812 -7.91664e-20)
(1.98695 0.112705 0)
(2.04925 0.166503 -1.24325e-19)
(2.08417 0.051451 3.56682e-20)
(2.42006 2.2805e-05 5.50012e-20)
(1.74625 -0.476612 4.39178e-19)
(1.9268 0.262875 1.75606e-19)
(1.24024 -0.63207 -7.67503e-20)
(1.984 -0.78803 -1.74063e-19)
(2.74983 1.52476 -1.62435e-19)
(1.90286 0.0347374 0)
(1.9411 -0.474428 0)
(1.43742 -0.76745 0)
(2.39946 -0.16435 2.7565e-20)
(-0.314041 -0.900932 8.30742e-20)
(1.06497 -0.523071 3.66593e-19)
(2.05307 -0.04621 1.12175e-20)
(2.86109 -0.0954614 1.55602e-20)
(0.396959 -0.0872107 5.8859e-19)
(1.97704 2.05774 -4.13212e-20)
(2.15973 0.146158 -8.49178e-21)
(2.19435 0.0166716 4.01071e-19)
(1.09986 -0.493508 0)
(2.2052 0.218671 -7.99275e-20)
(1.75387 -2.14057 -1.10085e-18)
(2.22844 -0.250999 -1.9232e-19)
(0.195509 -0.634511 3.21046e-20)
(1.8782 0.0409248 3.38954e-21)
(1.50995 -0.5093 3.11664e-19)
(2.20849 0.483422 0)
(1.9274 0.0718704 -7.09456e-20)
(1.25979 -0.529586 -6.76571e-19)
(2.00814 0.0172942 -1.51552e-20)
(1.60002 -0.766557 0)
(2.26217 -0.0253329 -1.12405e-19)
(1.26382 -0.608539 2.09294e-19)
(2.61638 -0.716761 -1.59716e-20)
(1.89678 -0.780173 -2.53352e-19)
(2.02086 -0.125334 -2.96521e-20)
(2.57698 -0.0820973 9.39324e-21)
(1.21131 -0.596671 4.00731e-19)
(2.30881 -0.135678 1.85085e-19)
(1.98656 -0.409133 0)
(2.07273 -0.927344 -2.59432e-19)
(1.84737 -0.77607 -7.70826e-19)
(2.2687 0.227794 1.76544e-20)
(1.97519 0.0210381 3.08013e-20)
(3.68345 1.5926 0)
(1.95281 0.0734418 0)
(2.19919 -0.0839173 -1.41378e-19)
(2.01642 0.742339 5.55428e-19)
(2.85468 0.74225 0)
(2.26316 -0.0841349 1.27533e-19)
(2.08705 -0.91368 -4.20658e-21)
(1.09758 0.20849 -5.12446e-19)
(1.08528 -0.490961 -3.64976e-19)
(1.69312 -0.771384 8.88578e-20)
(1.90434 0.0271158 6.43684e-21)
(1.66886 -0.772606 3.04855e-19)
(2.01056 -0.295875 -1.04347e-19)
(2.31653 0.0389298 0)
(1.57039 -0.246265 -8.38184e-20)
(1.85846 0.165059 0)
(1.9242 0.179343 -3.46292e-19)
(2.17381 -0.453974 0)
(2.35748 -0.100507 -1.11502e-19)
(1.97712 0.0528306 -1.62336e-20)
(2.08498 0.212175 -7.32521e-20)
(1.32131 -0.527414 3.80976e-19)
(2.04881 0.0154509 -2.93683e-19)
(2.01116 -0.0938094 -2.45178e-19)
(2.43188 -1.01371 0)
(1.77904 -0.81761 0)
(1.384 -0.563698 -3.74156e-19)
(2.19982 0.214822 0)
(2.80147 -0.351094 -5.67917e-19)
(1.95933 -0.00497853 0)
(1.70103 0.271683 -8.04358e-21)
(1.17622 -0.600066 1.26109e-19)
(1.90652 -0.639608 5.40007e-19)
(3.04883 0.530883 2.99192e-19)
(2.62841 -0.456044 0)
(2.01134 0.053737 1.8153e-20)
(2.1656 0.071893 -1.68294e-19)
(1.07505 -0.582652 -2.07459e-20)
(1.94378 -0.0564247 -1.61811e-19)
(2.03996 0.010502 -3.74958e-20)
(2.16011 0.137587 -4.10441e-20)
(3.09896 0.189283 3.4327e-19)
(2.3076 0.0651935 -6.72206e-20)
(1.76793 -0.797069 -6.82587e-20)
(1.84776 -0.56444 0)
(0.825257 -0.827963 1.175e-19)
(2.08248 0.112193 -1.18772e-19)
(2.3666 0.214893 0)
(2.11998 -0.00184949 1.05483e-19)
(1.43011 -0.687549 -2.63055e-19)
(1.78134 0.974891 1.19473e-19)
(2.26637 -0.701458 0)
(1.62304 -0.762716 9.80187e-20)
(2.1947 -1.09624 0)
(2.23374 0.0638286 1.92361e-20)
(1.9008 -0.0548611 -4.3043e-20)
(3.80448 -1.55938 1.4561e-18)
(1.20853 -0.188092 0)
(1.67971 0.124155 1.80487e-19)
(1.9285 0.072246 1.10165e-19)
(-1.91168 0.975428 0)
(1.95333 0.0233049 0)
(2.06895 -0.196802 0)
(0.279952 -0.134634 1.56384e-19)
(3.36518 0.0768731 2.34971e-19)
(2.21927 -0.05482 0)
(1.91625 -0.0616136 0)
(1.69403 0.0681175 1.40724e-20)
(1.69324 -0.795333 0)
(2.32168 0.402608 5.88602e-21)
(2.95133 0.580728 1.90109e-19)
(2.02863 0.00188445 1.01989e-20)
(1.90298 0.326122 -1.04024e-20)
(1.09917 0.280416 5.89087e-19)
(3.1258 0.721343 -2.15993e-19)
(2.4018 -0.0211686 4.92471e-21)
(2.02486 -0.0981102 1.202e-19)
(1.69696 -0.222026 -1.98217e-19)
(1.99401 0.169951 2.10474e-21)
(2.05054 0.135235 0)
(1.66815 -0.765106 -2.97129e-19)
(0.947157 -0.7364 0)
(0.645374 0.846527 -2.65641e-19)
(1.79027 -0.0328288 0)
(2.12331 0.159857 0)
(1.6364 -0.779566 -2.01567e-19)
(2.03904 -0.074509 -1.11565e-21)
(-0.206189 0.177954 -2.32959e-18)
(1.97671 -0.00809421 2.06976e-20)
(1.99066 -0.758946 2.82015e-19)
(3.04778 0.463449 2.17156e-19)
(0.145645 -0.775049 6.53934e-19)
(2.08498 0.0193141 2.94123e-20)
(2.32456 -0.888159 7.5026e-20)
(1.96039 0.0409157 -1.75435e-19)
(2.18372 -0.793126 0)
(1.83055 -0.195315 -3.69602e-19)
(1.94597 -0.528541 3.00534e-19)
(2.10365 0.287928 -4.06546e-19)
(1.28771 -0.767579 -1.29945e-19)
(1.67735 0.946952 -1.184e-19)
(2.90193 0.664582 3.00296e-19)
(1.98837 -0.286281 0)
(1.97854 -0.043425 0)
(3.27819 0.437437 -8.77204e-19)
(2.15442 -0.16563 7.48831e-20)
(1.42393 -0.769764 0)
(2.12955 -0.0507827 -1.04793e-19)
(1.99424 0.0429629 -2.40195e-19)
(1.35146 -0.819126 -7.67409e-20)
(1.3813 -0.726928 2.52635e-19)
(2.17531 0.108607 -2.91421e-21)
(1.76479 -0.652714 2.09921e-21)
(2.56651 -0.136052 -1.59231e-19)
(2.08065 -0.458804 2.0203e-19)
(3.26549 0.149974 7.11774e-19)
(1.69573 -0.698552 2.85051e-19)
(2.00085 0.0346105 -1.54289e-21)
(1.17042 0.139186 4.24385e-19)
(2.15132 2.13969 0)
(1.86017 -0.521408 1.76111e-19)
(1.49215 -0.703595 0)
(1.50959 -0.796914 -4.95387e-19)
(1.84689 -0.624033 0)
(0.967435 -0.476263 -3.05958e-19)
(1.79279 -0.757561 -3.94202e-19)
(4.22605 0.168809 -5.45189e-19)
(2.44751 -0.976762 0)
(0.920043 -0.2625 0)
(2.255 -0.218132 0)
(1.97013 0.0761279 8.79913e-20)
(2.18839 -0.937527 -5.22254e-19)
(2.33184 0.261746 1.81522e-18)
(1.72436 -0.406667 -8.29746e-21)
(3.27007 -0.0826548 -7.86528e-19)
(2.03218 0.280064 0)
(1.36543 1.5293 2.67585e-19)
(2.5722 0.887161 1.35135e-19)
(2.09407 -1.1986 -1.31561e-19)
(1.9437 -0.892062 2.02265e-19)
(2.10171 0.281257 5.98005e-21)
(1.47686 -0.70885 4.31412e-19)
(2.226 0.347212 0)
(2.00532 -0.0154822 3.95272e-20)
(1.97888 1.26158 -1.13781e-19)
(2.05063 -0.123175 2.03376e-20)
(3.07759 -0.212567 -3.46472e-19)
(1.77655 -0.0604557 0)
(2.44811 0.325253 0)
(2.12952 -0.734473 0)
(0.523759 -0.538059 0)
(1.98609 0.0424422 0)
(1.58765 -0.604878 1.24342e-19)
(3.30834 -0.296698 5.36552e-19)
(1.62702 -0.677371 3.41963e-19)
(2.02188 -0.0159081 1.96314e-19)
(1.5377 -0.710608 0)
(2.32625 -0.938852 2.79722e-21)
(0.340302 0.911955 0)
(1.53137 -0.674949 -1.21826e-19)
(-0.439807 1.00745 1.02374e-18)
(3.05101 -0.832745 -2.5559e-19)
(2.03175 0.0921856 2.09719e-19)
(2.03799 0.441349 -5.02011e-20)
(2.37581 -0.602636 -1.5877e-19)
(2.23364 -0.0375397 0)
(0.996213 -1.22104 3.07032e-19)
(2.03436 -0.0359187 0)
(1.6715 0.625147 2.20813e-20)
(2.25713 0.0817081 0)
(2.12184 0.124179 -7.18824e-20)
(2.16038 -0.0757026 0)
(1.12773 -0.465019 -2.57348e-19)
(1.42646 -0.690505 2.95366e-19)
(1.96141 -0.0939215 -4.36111e-20)
(1.49182 0.208679 3.71397e-19)
(0.47866 -0.239106 -3.20326e-19)
(1.87476 -0.110866 0)
(1.21623 -0.339849 -9.8134e-19)
(2.03426 0.0539527 6.26764e-21)
(2.6882 -0.651226 -6.59596e-19)
(2.10639 -0.0148199 -2.40161e-20)
(2.03568 -0.550327 3.11222e-19)
(3.75905 -0.45661 0)
(2.02431 -0.898991 -5.84523e-20)
(1.91516 -0.863014 0)
(2.36327 0.147487 1.02046e-20)
(0.691233 -0.263489 6.50162e-20)
(1.60076 -0.725951 0)
(2.30896 0.215621 0)
(1.55312 -0.253589 -5.51088e-20)
(2.45868 0.379313 0)
(1.877 1.40489 1.18553e-19)
(2.92808 0.260327 -3.41348e-19)
(1.14332 -0.606469 -1.61491e-19)
(1.38564 -0.813868 -1.13071e-19)
(2.20674 0.068175 -1.51483e-21)
(1.07239 -1.25585 -6.66256e-20)
(1.06849 -0.515944 -1.92764e-19)
(1.97651 -0.0943146 3.96297e-19)
(1.37537 -0.812799 8.7146e-20)
(0.777828 -0.393464 0)
(2.42925 0.119374 -5.05847e-20)
(1.48437 -0.270173 8.5132e-20)
(0.631991 0.035902 7.11918e-20)
(2.77593 -0.607609 5.97236e-19)
(2.9956 1.15613 0)
(1.9598 -0.555572 -3.02166e-19)
(1.97796 0.0543613 1.8334e-21)
(4.22202 -0.257651 -1.17906e-19)
(2.11496 0.0019498 -1.73719e-19)
(1.34642 -0.678216 6.01616e-20)
(1.6903 -0.729837 1.72573e-19)
(1.63908 -0.663417 -8.25181e-20)
(1.41336 -0.748323 4.51883e-22)
(2.09981 -0.117947 -1.26197e-19)
(1.36893 -0.717246 -6.74142e-20)
(1.82026 -0.092658 0)
(1.95584 -0.219458 -3.57157e-19)
(2.02996 -2.27662 0)
(0.937325 -0.942032 -2.11153e-19)
(2.84127 -2.01496 2.49396e-19)
(0.139999 -1.34716 1.09942e-18)
(2.0046 0.0300247 -3.64278e-21)
(0.912295 -0.449195 1.75786e-20)
(0.297729 -1.29797 0)
(2.45516 -0.843044 1.6423e-19)
(2.55265 -0.962909 6.60254e-21)
(1.01484 -1.84005 -1.02574e-18)
(1.90429 0.299015 0)
(1.78949 0.282168 0)
(0.424689 0.156266 0)
(1.52768 0.0403474 -8.42908e-21)
(1.90337 -0.0731401 -3.53774e-19)
(1.41973 0.0352592 0)
(1.73473 -0.299454 0)
(2.18221 0.168292 -5.10206e-21)
(1.79846 -0.539921 -3.02892e-21)
(2.21479 0.121268 -2.26521e-19)
(2.51914 -0.25722 -2.9002e-19)
(1.96233 0.0515142 3.6123e-20)
(1.96042 -0.0470834 -1.78665e-21)
(2.00657 0.0215303 -2.16155e-20)
(2.02231 0.289056 -1.99958e-20)
(2.00131 0.909371 0)
(1.06332 -0.509483 3.46792e-21)
(1.20031 -1.55453 0)
(1.19183 0.0147418 0)
(2.49029 -0.103411 -2.97437e-19)
(1.5687 -0.731057 0)
(2.30045 0.0387016 0)
(1.96656 -0.112102 5.4639e-19)
(2.21917 -0.954426 0)
(2.05789 -0.000133655 2.68197e-19)
(2.83308 -0.325946 3.41396e-19)
(2.84927 -0.141642 1.07172e-19)
(1.9928 0.0392795 1.85234e-21)
(1.36095 0.923945 2.1438e-19)
(2.51138 -0.912715 8.67925e-22)
(2.54752 -0.965413 5.64402e-21)
(1.36254 -0.545135 3.66072e-19)
(1.29206 -1.02237 0)
(1.1662 -0.575267 0)
(1.47933 -0.731913 -2.20786e-19)
(1.41526 -0.693195 -3.8886e-19)
(0.860934 -0.376035 0)
(1.30771 -0.952344 2.11053e-19)
(0.955798 -0.459415 0)
(0.698264 -1.29234 4.91691e-19)
(1.33432 -0.623248 -4.72875e-19)
(2.68613 -0.406626 -1.24541e-20)
(3.01346 -0.0210102 3.15767e-19)
(1.40874 -0.508528 7.38276e-20)
(2.00204 -0.0474278 7.48169e-20)
(2.31351 0.664578 0)
(2.4006 0.473282 0)
(1.2457 -0.102797 0)
(-1.49672 0.338925 -1.14889e-18)
(1.58875 -0.614106 0)
(2.27956 0.375736 0)
(2.03649 -0.0402919 0)
(2.93675 0.113262 1.48331e-20)
(1.45182 -0.997887 7.99289e-20)
(2.24462 -0.827929 -1.28159e-19)
(1.49064 0.073277 2.3587e-20)
(1.98653 0.167421 0)
(1.64225 -0.71552 0)
(2.19516 -0.619728 -2.56805e-19)
(1.685 0.337571 5.39595e-19)
(1.28127 -0.629997 -1.24794e-19)
(2.02439 0.0773035 -8.80526e-21)
(1.86726 -0.52365 3.23415e-19)
(1.17057 0.304574 -9.21453e-19)
(1.60443 -0.782964 0)
(1.37652 1.08564 -5.31993e-19)
(0.596598 0.138873 -5.91741e-19)
(2.71824 -0.244622 0)
(2.10408 0.0663213 0)
(1.90224 0.0602348 0)
(1.90105 0.0562104 -3.42706e-19)
(1.52088 0.128464 -3.79453e-19)
(1.74697 -0.0222102 0)
(4.2913 0.858111 2.00221e-18)
(2.02103 -0.888943 2.75346e-19)
(2.63614 0.0515681 3.42202e-20)
(1.36554 -0.681999 9.48156e-20)
(2.1971 -0.26093 0)
(2.21706 -0.0834174 2.11799e-20)
(1.87882 -0.451865 0)
(1.44368 -0.300026 -8.16945e-20)
(1.9656 -0.876002 0)
(2.38174 -0.791108 2.506e-19)
(2.5822 -0.250833 1.60197e-20)
(2.01165 0.0244023 -1.16796e-20)
(2.66037 -0.00292882 0)
(2.00658 -0.8409 0)
(1.76345 -0.746725 -4.1502e-19)
(2.21432 0.252605 -6.50005e-21)
(1.49587 -0.645016 5.72889e-20)
(1.06293 -0.510202 3.73583e-19)
(2.04278 -0.144088 0)
(1.66774 0.0853729 -5.61516e-19)
(2.15162 -0.0286409 -3.65211e-20)
(1.62226 -0.0279084 -1.06367e-20)
(2.02538 0.00988479 -1.49855e-20)
(2.02384 0.0157071 0)
(1.38141 -0.452665 5.19299e-19)
(1.1549 0.0613778 -5.85857e-19)
(3.07444 -0.508983 7.49192e-21)
(1.90291 0.0757654 -6.22266e-19)
(1.37686 -0.690784 8.61037e-20)
(3.31428 -1.71283 -2.09161e-18)
(2.74013 -0.25556 1.61461e-19)
(1.93554 0.00832538 -3.04018e-20)
(3.67384 -0.0811317 1.89492e-18)
(-0.178685 0.600677 -3.31557e-20)
(1.50492 -0.738852 1.56159e-19)
(1.49929 -0.672226 1.24207e-19)
(1.90708 0.0200263 2.15596e-21)
(2.3741 0.0212125 0)
(2.22922 -0.914934 5.52763e-19)
(1.48266 -0.717484 1.93912e-19)
(1.79318 -0.313566 1.94694e-19)
(0.421906 1.06802 0)
(1.76851 -0.466726 -5.28585e-20)
(2.09103 -0.0383813 8.90892e-22)
(1.91871 0.103201 0)
(1.5797 -0.757606 1.42547e-19)
(1.51711 -0.521037 3.07311e-20)
(1.94866 0.1407 0)
(1.24938 -0.500585 0)
(1.65894 -0.0146849 -1.36111e-20)
(1.59785 -0.149783 -6.26597e-21)
(2.35775 -0.155527 1.0709e-19)
(-2.09829 1.47999 0)
(2.07859 0.00373335 -2.988e-19)
(1.87142 -0.165105 -2.71688e-20)
(2.46769 -0.752886 1.08314e-20)
(1.40983 -0.562488 4.5885e-19)
(1.55204 -0.745385 -1.20236e-19)
(1.5664 -0.691999 7.18815e-20)
(3.08833 -0.480537 -6.48498e-21)
(1.76661 -0.451922 0)
(3.68091 0.322566 -1.56659e-18)
(1.76024 -0.707176 2.0849e-19)
(2.20301 1.58513 1.62276e-19)
(0.978175 0.429579 0)
(1.34404 -0.347645 -4.63158e-19)
(1.42129 -0.612108 -5.56782e-19)
(1.58436 -0.773144 1.47649e-19)
(1.23547 -1.09081 -2.74277e-19)
(3.02475 1.703 0)
(1.61386 0.76883 -1.1486e-18)
(2.29216 0.328189 0)
(1.58795 -1.83472 -3.6111e-19)
(3.86057 -1.00553 2.53885e-18)
(1.7379 -0.889138 0)
(1.58609 -0.74256 5.15638e-20)
(1.75474 -0.198392 -8.20313e-20)
(1.17833 -0.757563 8.91654e-20)
(1.85884 -0.726396 3.71693e-19)
(1.41098 -0.698436 -3.68349e-19)
(1.40478 -0.644649 0)
(1.94969 -0.00840234 1.14267e-19)
(3.11593 -1.52607 0)
(2.2485 0.195871 -1.22987e-21)
(-0.486466 0.156082 -2.98974e-18)
(0.776816 -0.336482 2.50598e-19)
(2.0373 0.0424248 0)
(2.09652 -0.81243 -2.59655e-19)
(2.21434 -0.425376 5.63246e-20)
(1.59418 -0.71244 1.88242e-19)
(1.48449 -0.4703 0)
(1.5762 -0.708688 -1.67557e-19)
(3.30039 -0.752163 -8.23917e-19)
(1.70715 0.0660979 7.11582e-19)
(1.85222 -0.0939663 0)
(2.06587 -0.086705 8.8054e-20)
(2.84795 -1.77516 1.74913e-18)
(1.58088 -0.879977 -4.06919e-20)
(2.40542 -0.523749 8.27559e-20)
(1.42603 -0.719928 0)
(1.85496 0.00246857 -5.78346e-21)
(2 0.0164778 7.06137e-22)
(2.76138 0.128624 1.98972e-20)
(2.13036 0.0144035 0)
(1.65159 -0.719676 8.20397e-20)
(1.81038 -0.512949 -5.31795e-22)
(1.46285 -0.479932 5.67769e-20)
(3.533 -1.17005 0)
(2.27655 -0.844205 -9.2355e-20)
(1.57636 -0.768178 2.56047e-19)
(1.89379 -0.45665 -4.04739e-19)
(1.13534 0.085046 0)
(2.04982 0.40707 -3.03468e-20)
(2.31065 -0.807452 7.96353e-20)
(1.4934 -0.739726 -1.57752e-19)
(1.93785 0.0578704 0)
(0.919097 -0.518169 3.27619e-19)
(1.66742 0.0119636 0)
(1.70688 -0.754412 1.68447e-19)
(1.61715 -0.19906 0)
(1.88363 -0.1509 -2.01255e-19)
(2.24815 -0.206746 -1.9842e-19)
(3.77069 0.639825 -1.0237e-18)
(1.70388 0.100733 0)
(2.29884 -0.95458 -1.35685e-19)
(1.86263 0.0104821 0)
(2.29893 0.149124 0)
(2.54024 -1.00492 1.07322e-23)
(1.67443 -0.728663 9.16477e-20)
(0.805617 -0.201713 1.58698e-19)
(2.34318 -0.54599 -5.33785e-20)
(1.71031 0.202423 2.34747e-19)
(1.09801 -1.29942 -1.86606e-19)
(2.07703 0.215552 1.05514e-19)
(1.71012 -0.819495 -3.18157e-20)
(1.84062 -0.59897 0)
(2.23852 0.0743472 0)
(1.4988 -0.729134 0)
(1.25398 -0.637094 2.59028e-19)
(1.37542 -0.508358 -3.23301e-19)
(1.68226 -0.0112761 0)
(1.23105 -0.64886 2.99893e-19)
(2.16 -0.00766057 -1.30493e-19)
(1.3867 -0.709003 -1.01535e-19)
(1.5707 -0.585237 -1.03374e-19)
(2.49856 -0.941352 0)
(1.2082 -0.64038 2.78853e-19)
(1.44095 -0.683849 -3.29276e-19)
(1.71238 -0.921789 0)
(0.173999 1.33654 -1.78318e-18)
(2.03644 0.138417 -1.9064e-21)
(2.07809 0.197193 1.32723e-19)
(1.91267 0.0350248 2.07261e-19)
(2.8095 0.413603 -3.77211e-19)
(2.22896 0.0617181 4.6033e-21)
(2.68784 -2.10134 0)
(2.16213 -0.816068 0)
(1.10254 -0.596619 3.16509e-19)
(1.20061 -1.43557 0)
(1.75641 -0.422952 -5.30924e-20)
(2.42839 -0.809386 -1.07971e-19)
(1.20966 -0.566478 3.91159e-19)
(1.96828 0.00110663 -1.97717e-20)
(1.67858 0.229181 -2.27645e-19)
(1.72182 -0.689452 -2.05957e-19)
(1.81054 -0.714267 -3.77936e-19)
(1.60001 -0.0617115 0)
(1.90913 -0.73239 3.50688e-19)
(1.93094 0.00267954 0)
(2.85952 0.00115161 -1.32182e-20)
(2.17408 0.930645 8.01433e-21)
(1.9697 0.45884 3.62186e-20)
(2.38367 -0.280221 -1.52957e-19)
(0.713322 -1.12972 -3.23288e-19)
(1.32924 -0.653633 0)
(1.60217 -0.323576 -2.49502e-20)
(1.71193 -0.6465 -1.30443e-19)
(1.97849 0.371613 -1.16324e-19)
(2.03383 -0.79977 3.10429e-19)
(2.04559 0.0352907 -2.6683e-21)
(1.25092 -1.01126 1.096e-19)
(2.37053 -0.961913 3.22677e-20)
(0.591077 -0.0390437 0)
(1.41778 -0.729846 3.01638e-19)
(1.87952 -0.415679 2.12709e-19)
(2.02901 -0.0418501 -3.97777e-23)
(1.39843 -0.617791 8.17627e-19)
(0.907958 -1.65972 8.57953e-20)
(1.79991 0.42685 0)
(1.25129 -0.686573 -1.12186e-19)
(1.61986 -0.71275 -1.25721e-20)
(1.2963 -0.447809 -6.20798e-19)
(1.10484 -0.610369 1.30648e-19)
(4.05425 -0.00372392 -4.62569e-19)
(2.16278 0.252222 4.07864e-21)
(1.1782 -0.509133 2.82986e-19)
(1.9608 -0.40756 0)
(2.40069 0.0967689 -7.65933e-20)
(2.09113 -0.0252671 -2.15868e-21)
(2.89967 0.17927 -3.24933e-19)
(2.45914 -1.5421 0)
(3.23364 -0.0398612 5.97904e-20)
(1.59977 -1.67296 3.41256e-19)
(1.80502 -0.768038 7.98694e-19)
(2.89855 -1.64713 9.74199e-21)
(2.09169 -1.0869 -2.14498e-19)
(1.36237 -0.691182 5.33767e-19)
(2.22313 -0.805361 2.75727e-19)
(2.03248 0.107766 -4.16392e-21)
(-0.956771 -0.164051 -5.84456e-20)
(2.29659 0.026883 1.83659e-20)
(3.65744 -1.27234 0)
(1.9868 -0.0341937 0)
(2.26194 0.164171 0)
(1.96636 -0.735421 -2.99594e-19)
(1.62478 -0.245134 5.1995e-20)
(1.14404 -1.45557 0)
(1.43233 -0.475211 -1.3345e-19)
(1.77323 -0.834336 0)
(2.25673 -0.571436 0)
(2.35977 -2.09159 0)
(1.9438 -0.00183387 0)
(0.946778 -0.497939 -9.9974e-20)
(1.76759 -0.831103 0)
(1.99423 -0.527011 1.48266e-19)
(2.01645 -0.0658491 0)
(1.99468 0.0243822 0)
(1.86768 0.187081 3.65188e-21)
(1.53844 -0.745419 0)
(1.78265 -0.382347 0)
(-0.454874 -0.474648 0)
(2.00185 -0.0170744 1.80411e-20)
(2.05452 0.0839189 0)
(2.64021 -0.967496 1.43982e-21)
(1.96284 0.21243 2.49566e-21)
(1.08496 -0.513563 -9.42993e-20)
(1.90996 0.140429 4.91808e-19)
(-0.410848 -0.0606503 -1.98667e-19)
(1.14949 0.613202 -4.93416e-19)
(1.52968 0.464141 0)
(2.59285 -0.0841686 7.68462e-21)
(1.73819 -0.285125 -1.90103e-19)
(1.76257 1.29034 1.22419e-19)
(1.9956 0.197187 3.08518e-19)
(1.01235 -0.401743 -6.03251e-19)
(1.70391 -0.742975 -3.17972e-19)
(1.87055 -0.602617 2.04083e-20)
(1.56661 -0.4279 0)
(3.11541 -0.354122 -6.87892e-20)
(1.57076 -0.409168 2.94398e-20)
(2.43668 0.0247679 -5.59125e-20)
(1.37207 -0.676042 0)
(1.94606 -0.0403295 -2.33114e-19)
(3.69635 -0.611495 -1.1025e-18)
(1.54785 -0.632521 4.1855e-19)
(1.4598 -0.662448 -5.07842e-19)
(1.93279 -0.879739 0)
(1.97917 -0.851727 0)
(1.88942 -0.511626 1.43963e-19)
(2.43526 -0.269846 -8.5003e-20)
(2.56363 -0.444974 -3.13572e-19)
(1.92753 0.0529836 -4.2302e-21)
(1.41401 -0.450345 -1.24236e-19)
(1.88959 -0.596823 3.39331e-19)
(2.31731 0.139918 0)
(2.23945 0.115683 1.61049e-20)
(1.64063 -0.788088 -4.2101e-19)
(1.73988 -0.339546 1.27674e-19)
(1.83393 -0.369499 -2.17793e-19)
(0.366486 -0.816762 1.68618e-18)
(2.53127 -0.318576 2.6175e-19)
(2.52925 0.342472 8.12726e-20)
(2.22742 0.24941 0)
(1.45076 -0.637462 0)
(2.57508 -0.912192 5.04325e-21)
(1.3557 -0.369054 0)
(2.03639 -0.466929 1.38158e-19)
(1.75764 0.160467 3.99276e-19)
(1.72406 0.232325 -1.19548e-19)
(1.7761 -0.72235 8.202e-19)
(1.99735 0.0282696 -3.8337e-22)
(1.93095 0.0353851 0)
(1.93848 -0.0131304 -1.38411e-21)
(2.34611 -2.04955 -1.03094e-18)
(2.17101 0.16606 0)
(2.90817 0.155733 0)
(2.13021 -0.83317 1.06343e-19)
(1.96654 0.453012 1.64484e-19)
(1.27949 -0.291145 0)
(2.00092 -0.368923 -1.3479e-20)
(2.01284 -0.134867 9.79584e-20)
(2.11585 0.146072 1.13073e-20)
(1.88313 0.334073 3.42872e-19)
(1.3694 -0.76865 -1.37641e-19)
(1.74009 0.162213 0)
(0.423622 -1.17435 -1.2214e-18)
(0.724183 -0.336683 9.0794e-19)
(2.05097 0.0436681 1.3198e-20)
(1.07454 -1.60717 -4.1496e-19)
(2.00279 -0.812526 2.22831e-20)
(2.33792 0.0708607 1.47735e-19)
(1.79328 -0.600852 0)
(2.09074 0.0893977 2.51224e-21)
(1.83928 -0.0699959 7.43759e-20)
(2.21109 -0.0241638 -1.14885e-19)
(2.13937 0.345128 -8.03589e-20)
(2.50332 -0.840358 0)
(1.36121 -0.826622 0)
(2.32791 0.0302128 0)
(2.27704 0.0516617 -3.98274e-20)
(1.2911 -0.604793 6.12034e-19)
(2.61419 1.35852 -1.15312e-19)
(1.61687 -0.202882 0)
(1.42652 -0.691571 -6.40203e-20)
(1.33815 -0.649625 1.03485e-19)
(1.75609 -0.7876 0)
(1.95058 0.177828 -1.00766e-19)
(1.73639 0.122158 -1.3362e-19)
(2.17989 -0.301934 -3.20894e-20)
(2.02172 0.0192432 -1.1214e-20)
(0.91217 -0.364096 0)
(2.04333 0.0515338 -1.29021e-19)
(2.17187 -0.395952 0)
(2.13127 -0.267167 5.09029e-21)
(1.15767 -0.0463935 0)
(2.18626 0.519596 3.29538e-20)
(1.88018 -0.74742 -3.58873e-19)
(2.36765 0.416896 0)
(1.88361 -0.0936359 -3.5373e-19)
(2.03013 0.0352151 1.55191e-20)
(1.86949 0.0154277 0)
(1.38431 -0.65357 0)
(0.751836 0.0149386 -7.90202e-20)
(2.31805 0.153926 -9.81967e-21)
(1.48501 -0.393462 -3.63746e-20)
(1.7919 -1.54357 3.10727e-19)
(2.26348 -0.119294 5.94512e-21)
(3.32126 -1.51873 7.43703e-19)
(1.77124 0.175459 -1.51724e-21)
(2.08035 0.375677 0)
(3.01799 -0.238711 4.26067e-19)
(1.98417 -0.890732 0)
(1.71729 -0.780689 -3.46742e-19)
(2.02356 -0.859891 -3.92761e-19)
(2.06487 -0.369315 -4.20543e-19)