/*--------------------------------*- C++ -*----------------------------------*\
| =========                 |                                                 |
| \\      /  F ield         | OpenFOAM: The Open Source CFD Toolbox           |
|  \\    /   O peration     | Version:  2306                                  |
|   \\  /    A nd           | Website:  www.openfoam.com                      |
|    \\/     M anipulation  |                                                 |
\*---------------------------------------------------------------------------*/
FoamFile
{
    version     2.0;
    format      ascii;
    arch        "LSB;label=32;scalar=64";
    class       volScalarField;
    location    "4.5";
    object      p;
}
// * * * * * * * * * * * * * * * * * * * * * * * * * * * * * * * * * * * * * //

dimensions      [0 2 -2 0 0 0 0];

internalField   nonuniform List<scalar> 
13486
(
7.39149
6.6536
-0.0289972
-18.3416
-1.89388
-0.0259695
-3.54233
1.10362
3.31036
3.65871
-15.5962
0.918532
7.77313
0.101529
-1.19695
3.98276
-14.446
1.84028
1.10272
6.71007
-18.2653
7.61841
6.50982
-22.5325
3.48783
-20.6601
-14.0692
-4.9003
-0.0179623
-6.57008
-16.8965
0.505888
-6.86954
-3.75112
1.1538
-0.0158156
-0.741043
4.63699
-0.793708
3.77167
-7.27766
8.2121
-0.048901
3.40539
3.27864
0.875347
-16.2162
-0.014969
-0.704349
-3.1127
4.63474
-1.00472
1.02768
4.85551
0.490172
-1.43373
-2.33904
-0.986279
-6.74131
-1.1366
-20.3023
-1.16724
-3.73581
-17.8143
-44.718
-0.848364
-19.471
7.91858
3.19349
-0.578943
-19.4382
1.04218
4.16619
-13.3548
-1.09679
-2.21982
-0.997467
-1.43975
-16.3868
-1.34724
-0.00471943
6.85008
-3.11481
0.084278
7.40484
4.21219
0.112998
4.44983
5.35691
4.17003
1.28719
0.209054
6.78949
6.68195
3.23643
-0.010463
-14.0186
-22.0093
3.65888
-15.4317
0.0212951
0.359516
-22.7939
-0.974343
4.79025
-16.0101
5.01294
-0.786567
-16.5951
-0.93021
2.26646
-0.167135
4.8666
-0.693983
9.50899
2.7325
3.529
-3.60589
4.22498
-0.587781
1.87524
-18.8708
3.72979
-0.808567
2.3682
-0.9522
1.48971
1.89056
-3.33209
-34.9173
-0.937458
-15.5608
-16.5046
-11.5976
4.77579
4.85463
10.4708
-0.636869
-0.548288
1.53144
-5.3634
1.08496
0.956749
-1.40556
-0.282607
-2.68551
0.148572
7.26911
-3.34991
-0.0158633
3.42516
-2.44789
0.000471288
7.01461
2.19522
-0.0628834
-2.17398
-13.2544
3.61818
-0.538066
-2.04602
3.62063
2.07865
8.13375
-1.01379
-0.781273
0.812321
11.4705
0.131726
-11.6522
-17.0035
2.23531
3.97676
0.860223
-0.026013
-39.3479
-0.359539
-5.46058
4.98369
0.971642
3.08415
-0.592169
0.821306
-14.3263
0.207148
-4.71616
-9.36479e-05
-5.07807
-6.7013
3.19218
-0.665295
-0.350476
-1.09525
7.78291
-1.27957
-14.2408
-37.9889
-2.41163
5.73069
-0.529262
-17.1402
1.81569
4.65034
-3.99632
-0.637059
-1.34037
0.449503
4.98381
-1.02822
0.202088
-4.80583
-26.5567
6.62149
5.03048
-0.000713806
-4.93663
-6.39984
4.27199
6.15415
-5.82501
-14.844
-3.3801
1.77183
-2.38071
0.948737
6.74244
-0.884915
-31.7612
-2.81073
0.0327183
3.03814
-13.9484
-5.54463
8.48906
-23.2141
6.18935
-4.38818
-0.305848
6.31048
1.13635
-7.67923
3.902
-0.400811
5.638
-0.638057
5.80982
1.31111
-12.5711
-10.9418
3.72457
-22.7
9.67571
2.35313
-0.819041
-1.96588
-41.1539
0.661686
-4.82911
-12.3854
-8.33931
5.94404
-0.631644
-0.996999
-38.9681
-1.91017
-14.3154
-2.82609
-19.1861
4.07538
1.62217
6.26621
4.97839
-6.57778
0.873848
6.75812
-11.0498
-1.96112
-7.72085
-0.877355
0.208479
-8.82952
2.55291
5.113
-20.1905
-17.5299
-15.164
-4.53721
-3.41871
0.871178
4.16345
-22.2261
-0.685265
3.03524
4.80467
-4.24242
-4.74099
-2.29883
0.774272
5.13419
-6.05396
2.28335
0.656113
0.154755
0.401175
-0.599755
-3.81172
-14.2422
1.43118
-0.0158694
-0.695459
-10.7701
-17.7657
0.498267
0.101504
-21.3202
4.96844
-0.685554
5.40247
5.07564
-3.4402
-0.796891
-0.671668
4.95708
6.78708
10.3001
1.18624
0.430105
2.41308
0.51622
-0.0130085
4.4814
-0.199494
1.46973
7.79789
-4.11568
2.79987
9.74484
-2.33206
3.68415
-0.606527
-3.04762
6.75497
-0.312788
0.764424
-15.7313
-0.0105763
1.54997
9.23103
-5.75636
-0.65604
1.73277
0.646784
0.828965
-13.6594
5.09246
-0.212767
-13.8371
1.43915
-0.0713498
-23.0239
1.10965
1.34425
5.87203
5.00129
-6.7421
0.00114218
-4.61612
-15.943
6.8092
1.56703
-0.0449584
1.6727
0.825168
-22.7862
0.267758
4.7083
5.00538
-0.611008
-20.7262
-9.92236
3.88845
-0.476269
8.17391
6.53613
-15.9345
-2.11382
1.0519
3.60349
-10.0301
-13.2472
6.45364
-6.66487
2.84324
6.55657
8.20016
-0.511831
-18.8046
-22.0022
-11.4493
-5.0251
-10.4316
2.59821
3.25917
-13.7221
-3.02657
0.54756
6.56368
-5.68125
1.92626
6.32231
3.48911
-1.93319
-6.35439
5.16896
4.97057
7.57686
-14.3898
-1.77099
-17.8531
1.14684
4.9969
2.47553
9.29749
3.83053
-1.37497
-4.95366
1.82655
5.14311
-14.1712
1.17506
7.56858
3.32085
2.80295
0.757696
-2.98746
-11.2925
8.22736
-0.654992
1.01903
7.7803
-15.2437
-6.38072
-11.3863
-6.70546
-0.186507
5.00283
7.2338
7.67714
-10.4184
-0.606972
-16.1053
3.75233
5.50897
-3.10423
-3.27608
4.96743
-18.4313
-42.6165
-22.4333
-4.07105
0.863029
5.75598
-0.0282863
1.25926
-17.4117
5.14076
-0.0117817
10.6799
6.7664
3.95512
0.669311
-0.0438941
-0.0128694
9.64294
-2.12736
-0.526176
-1.31143
2.85265
-15.5606
0.753619
4.03248
-0.309488
-1.32147
6.49153
-4.86512
-12.4791
3.75564
-13.5951
11.4257
3.81646
4.68605
5.36778
-37.9909
0.304172
9.33197
-2.49463
6.73711
-5.50341
2.12113
-20.5545
-1.3129
-0.0754758
-17.0943
5.60073
2.5261
-24.1834
0.00176663
-0.23244
8.22763
4.97629
-2.05607
2.70632
1.78438
-1.17737
-2.04325
4.71772
-17.2998
8.05929
-0.664157
-0.554384
8.20887
-0.47647
-0.0432574
1.83035
-23.0596
-19.6809
1.2015
-1.24559
3.89204
6.77821
-13.4934
-2.9727
-13.4594
-0.00744064
6.24298
2.12651
-14.5793
-23.6846
2.82658
-12.4895
1.15989
-43.2904
-3.07094
2.72652
7.6671
-0.782662
5.81952
-1.8433
-22.2751
-4.12148
2.69299
-15.4485
4.8131
0.24851
-22.2896
1.97913
4.60402
-9.54754
-13.5953
4.69514
6.47112
2.45771
7.52957
0.258101
3.94319
1.90579
5.19584
-0.249608
6.14721
-13.8318
2.47514
2.31221
-3.19495
-10.7929
4.88076
-14.6096
0.810221
7.04291
7.52457
-27.4824
-8.25588
2.25093
1.1298
3.44766
4.60905
-4.77273
-12.9105
0.803591
7.07958
1.53753
1.36694
-49.7556
7.62014
-10.494
-0.576392
4.91961
0.466114
-1.33084
0.649606
1.13412
0.387293
0.206807
2.62833
-4.13773
7.33531
2.6174
2.03162
2.18002
1.03619
-4.26926
8.97712
2.23867
8.93959
-29.9283
4.32456
-0.0358234
-13.3694
-1.51939
3.70866
9.60353
-60.474
-0.75874
0.160948
-6.23758
3.59121
1.59969
-0.922446
3.39368
-13.638
-10.0372
-12.7974
0.449593
-4.21711
5.29498
-0.0184277
8.37739
3.58646
-0.672556
-22.0452
-4.60408
2.35263
-16.101
0.0501823
-16.4684
6.09624
-0.000874486
-2.06906
-28.6639
8.15498
-0.00493333
2.15099
8.11005
4.68654
-15.8808
-0.72633
1.79593
1.16279
2.16738
-0.358791
-33.5907
2.5991
3.49282
2.19721
2.80024
8.30667
-0.518417
-36.988
4.88382
1.53487
-0.321493
0.588637
4.17543
2.99887
-14.8936
0.25099
-0.620082
0.613592
6.23079
2.25907
0.476222
0.151311
-8.26696
-1.4776
5.78396
-1.00594
1.96689
3.44667
7.69469
2.17109
-2.33643
8.88617
-0.067954
-19.0013
4.48095
-9.84573
5.94714
-0.256291
4.911
-14.0479
-12.5708
-26.9515
-0.0101746
-13.3289
3.44194
9.28297
-5.72032
-6.73167
-1.13862
5.93311
1.41298
2.9184
-26.856
9.46174
-15.0688
1.5484
-3.40822
3.67162
5.38438
3.12662
-9.00786
-16.494
8.03325
5.03461
-3.17862
3.47468
-8.59452
1.76649
1.10208
3.55624
-10.9762
-1.85808
6.43248
-2.71159
-0.942407
0.950799
-20.3738
-5.6526
-0.78152
4.88587
5.79095
-32.2142
0.274544
-15.8451
-16.9744
0.398649
-4.19003
1.36683
4.90006
0.630711
-3.5546
4.35954
-7.60153
-29.5915
-0.889628
-1.63243
-30.5722
-25.7127
-0.638723
-40.8434
2.10345
7.77865
-0.537774
-28.2135
8.1407
7.38394
-25.2356
-35.1684
3.07269
-16.2726
-0.360871
1.29565
1.0498
-1.29968
-12.6568
2.92332
3.9684
-1.37123
-13.9205
-11.7947
0.0928819
2.08063
3.42679
1.91485
-32.2859
5.33423
7.13522
-16.0626
-39.9558
3.75003
-4.47518
2.02901
-0.756589
-6.0732
-31.7707
0.241931
5.05739
8.98008
4.84178
1.08752
0.248996
4.97317
6.98088
0.582455
3.40111
4.62885
8.21207
-2.76084
-0.66043
1.46514
-2.80049
8.01934
0.321868
1.41485
1.96244
-1.89559
0.839932
0.280981
-3.92706
5.10952
5.09103
4.00886
3.15095
-5.43073
-0.627161
-3.82702
-1.17537
-4.48337
-0.933252
-0.278486
-58.2127
-23.7963
3.32918
-5.75332
-11.0654
-1.48631
-11.7492
0.078079
-12.682
-43.493
5.25662
-24.5977
7.59234
-32.5189
-11.1682
4.27725
6.33857
-1.23526
1.16429
-5.96042
5.49691
-1.6812
-5.26164
-1.20688
-0.62701
-11.7851
4.92983
-1.98919
3.57618
-0.655406
2.9389
-14.1374
-0.324736
-0.204917
5.10794
-4.59691
-16.9199
-52.2295
7.51919
1.5627
-38.9907
-16.4796
4.60301
-32.5355
-0.672434
0.836411
-0.687541
0.757701
0.516916
-42.3888
5.13121
4.94963
4.42219
2.97743
-0.635224
-6.38298
4.35043
-0.68276
4.45711
4.47259
-1.46575
-0.81692
-2.35161
0.415432
-0.586632
5.74777
2.67352
2.2852
5.02573
1.41264
1.91182
9.4449
0.291099
-5.0732
3.97748
0.358118
-0.77096
-2.59547
-17.9029
4.56922
-0.511289
-0.0715732
-0.244235
2.10693
5.14257
-16.0782
0.00102176
5.03784
0.414103
7.88967
5.90949
5.96447
0.894377
4.18911
0.964258
-0.253728
0.429394
3.71161
-13.6534
-3.22345
-3.00775
-10.3693
-27.6735
4.32959
-6.50189
-12.1063
-59.6045
-13.6186
-0.29081
5.21601
-0.121063
1.37286
-11.2127
4.98578
9.11385
0.467591
-24.0616
3.57458
-6.0625
4.39451
-0.635519
-0.671698
4.86593
-1.12018
8.33407
1.95524
4.9533
-5.44936
6.11491
-0.382469
5.97936
-0.706735
-9.12866
-0.246507
-61.8784
1.93296
0.430595
-14.4401
7.62327
4.97837
5.88652
6.64549
5.93243
5.13582
-3.79501
3.30462
5.01696
5.02049
-2.8906
-0.88333
-4.16996
-2.84151
0.963453
3.75901
-12.6747
9.12885
-3.6422
-0.458859
8.99105
7.10688
-3.21557
-49.3791
3.86911
3.36029
-8.83044
2.60586
-12.1799
-1.21948
4.94675
6.29178
-0.696491
3.60804
6.06058
0.00640708
-1.87212
6.36884
1.19946
-0.641782
-13.2957
0.0518538
-3.84351
5.08654
4.92817
-0.816986
-9.73811
-9.02065
0.844105
-0.7495
0.842452
7.74887
-0.895668
10.3284
4.39508
1.0739
5.10803
-16.4418
-14.9139
-31.0932
4.58784
-0.723958
-10.6819
-16.42
3.1295
3.81186
-0.611686
-0.359585
-17.675
-0.781944
1.51909
-0.627169
2.33601
0.98902
5.64837
5.11649
5.71748
3.50504
-3.246
-6.90642
-4.40801
0.197875
-30.8785
0.998599
2.21169
-22.0502
-0.610054
-0.827991
2.23261
-29.0822
2.04852
3.3439
-0.15479
-9.82415
0.882827
-3.04142
-10.8166
0.750171
0.392782
3.61218
4.17232
5.15999
-11.4065
4.74357
-0.297925
6.78815
0.718573
3.32969
2.02052
0.0784299
8.26452
9.60227
2.90311
-2.00997
4.02035
2.38167
8.33557
0.0778052
-6.66933
-26.6938
0.815147
-2.89717
-6.40569
4.96864
4.23808
0.703846
-5.46336
0.950442
3.44018
9.46546
-5.38743
4.50354
-11.9267
0.97325
7.58661
-2.22607
1.79673
-20.2973
3.26121
1.17716
10.1039
-0.0936562
-4.35013
3.18434
0.772048
-15.3604
-12.2472
2.18887
5.89165
-0.254577
-1.81725
7.41218
6.85322
-1.42196
-8.47067
-0.230026
1.78427
4.16207
3.99208
6.18612
1.86312
-16.8607
6.72505
1.88192
-5.25725
0.808792
5.49503
5.03767
-23.727
-14.6773
-0.00150539
4.6326
7.90249
1.54586
2.13161
-3.88881
9.54814
-15.8581
-5.12128
8.48485
4.67194
0.883189
2.02621
-19.2662
-0.465867
-11.0644
-15.676
-0.640224
-32.1468
0.931097
-6.34789
-15.7361
-13.3466
-0.456405
-6.93717
-10.777
-21.8485
5.68666
5.0585
-2.34447
-16.9311
0.731833
1.68651
-3.2508
10.2635
-0.239024
-3.85819
4.68671
-7.52968
-33.2096
0.859797
0.736488
4.24196
10.5167
-0.00465389
-2.13168
-24.8893
0.243925
0.141427
2.33638
-1.18884
6.8539
4.48907
5.28153
-20.9498
-1.19971
-0.40635
3.19116
4.97045
3.21206
5.16909
9.56769
8.84392
-7.4118
4.70437
6.33736
-3.77616
6.04791
-0.785506
8.69154
5.943
0.926656
5.92261
3.23797
0.825874
-0.336599
5.58088
-6.44354
2.77918
-2.18355
-0.597423
-0.0692338
4.46977
-0.72117
1.03111
8.21991
8.18523
0.578095
-11.7013
0.870072
-8.50886
-1.9173
4.83371
6.88253
-11.5955
5.05339
2.8541
1.19026
3.20669
-27.9846
-20.572
-0.802326
10.0353
-1.24251
-0.241638
6.32845
-0.101475
-1.53911
3.12101
0.837631
4.35808
-3.86628
-5.29561
1.76301
0.994978
-0.363109
0.534123
9.12999
7.03936
4.79971
7.73571
7.90299
-0.545344
-0.826368
0.231752
-4.21934
8.18811
-22.5322
3.83761
2.39288
-18.416
-0.599576
5.00142
-46.7121
1.24485
4.17661
10.6532
-13.5048
1.15909
0.782314
3.89113
-0.0652213
-24.0206
7.91379
5.88875
2.98784
4.57855
-9.1047
-3.02634
-17.3596
8.82166
-0.826134
10.0092
-11.085
2.0374
-12.4105
-2.24913
-13.463
1.46824
-0.943353
2.51817
0.189491
2.43301
-25.0964
-0.00569103
-19.0144
-11.2368
-4.37269
-5.30379
0.153226
-1.47161
-15.4738
-19.0286
2.84265
3.03999
7.57573
4.94864
0.802585
1.14549
11.5993
3.70631
-14.0807
-0.0266615
0.240895
4.42163
2.87939
6.87947
-3.89282
-4.0796
0.72016
-0.00785043
0.908917
6.80231
-11.9526
-17.286
-16.8921
8.97083
-21.1885
2.00056
5.86589
-12.0241
1.50752
-0.675378
-12.9935
-13.2689
-0.789692
3.98402
4.52476
5.74775
-4.43535
-11.5184
-0.867962
-16.8494
-7.97775
-3.26599
1.30598
-14.017
-0.112252
-24.5778
-13.3706
-17.6144
7.41412
-19.0725
8.82007
-16.5298
-3.80056
0.376438
1.36497
6.42006
2.30448
6.67047
0.298097
-10.4364
-12.2407
5.85254
-11.1971
4.14646
-0.643973
7.03799
6.65334
-0.665354
4.61791
8.1562
3.8111
4.8625
-8.81993
-9.83725
0.77617
-9.35272
-0.877638
-0.558293
-0.34369
-0.038954
-12.4433
0.824073
-1.28963
1.40432
0.0884749
-4.90002
8.65745
0.17158
-0.00862569
0.691286
4.92925
-31.8288
-0.0134883
3.9391
-1.81588
-0.200812
-0.479711
3.03417
4.93869
4.8313
-0.171821
5.05955
5.87245
4.34257
-6.74826
-0.456574
2.01652
2.50177
-3.79756
-18.2621
-38.5627
-5.28128
-19.5176
0.0562527
-0.883675
-0.935763
-12.526
-3.2613
-31.1476
-1.11907
-15.9834
2.63746
-13.6004
5.32739
11.5928
2.5918
-17.3639
3.05166
1.46435
0.866438
-0.0534008
-7.67587
-62.9844
0.335774
5.76904
0.0056978
7.88263
-0.0285539
4.8155
1.32365
0.911228
-13.0679
-1.84801
9.82522
-15.1213
4.98603
4.92692
6.82702
0.349699
5.85325
3.22013
-12.0962
3.87881
-13.6089
-17.454
6.01977
4.67789
-5.44571
1.26509
6.42461
-7.69913
-52.1844
-0.848421
-0.272696
4.70919
3.30047
5.49104
2.11405
2.94181
-9.98612
-4.63804
-6.97552
5.43977
9.95507
-8.75025
-15.2913
-13.8367
2.52173
0.226115
0.251083
-3.20795
1.64508
1.42146
-13.2814
0.48015
9.25973
2.84697
1.67355
-17.6351
-21.0311
-13.4732
-12.8221
-16.1175
-18.7149
6.44711
3.30545
-5.85828
9.13367
-0.0316497
-13.1467
-17.2798
-17.0435
3.84055
-10.9382
2.43725
3.15732
-0.085402
-6.57855
-5.49208
-13.8582
-27.827
5.83688
-28.9117
-0.728293
-16.8432
4.93851
4.90286
-21.6204
5.88428
4.83675
7.30614
8.04207
3.89249
0.742318
10.1022
-17.432
2.6404
-5.2465
-44.9028
6.63457
-34.4367
8.26972
3.08512
-4.50487
-19.558
-15.037
5.60664
-40.4814
-27.6475
0.0889726
-2.48872
1.5812
3.73223
1.66541
0.876035
8.96139
-12.1985
-18.773
-0.788865
2.88667
4.59431
-18.4003
11.4265
-0.78394
-1.45365
4.26452
-4.38804
4.88456
3.49734
4.62418
4.02814
1.94326
-0.429468
3.52053
0.820119
-13.3778
-0.110971
3.51363
5.10265
6.05425
-14.8225
-0.051224
-2.57422
3.64014
1.4124
-41.2612
4.70777
-23.9146
4.64129
5.26781
-13.8819
7.70304
-45.4075
9.68998
4.17329
-34.0099
-0.00431936
-0.899312
3.25101
5.54714
-39.1869
6.03535
5.13637
-2.24207
-0.190071
0.751944
-0.19988
-2.31157
-15.5545
-0.688345
-26.374
4.96136
-19.4427
-12.405
-6.98006
6.30683
6.42941
3.75874
-19.7614
3.177
-1.46506
0.113309
3.37759
-14.6739
-15.2753
8.72025
-1.71384
-0.781892
-6.41867
-15.2214
-15.3001
5.05526
-14.9733
-3.98821
5.56215
0.518831
5.09758
-18.2946
1.16479
9.23241
-9.75457
5.39717
0.714625
-12.805
2.47637
0.834277
-1.34316
9.35244
4.44607
0.500303
9.4439
5.67458
6.46385
-16.9933
-19.2869
-1.16433
-4.95694
-13.3456
-3.68788
-4.28857
-4.13845
1.88892
1.13636
-0.493202
0.476017
-12.5831
0.177053
5.67701
-15.4225
2.91481
3.75681
4.95149
-1.48159
-0.312164
-21.99
-13.4855
-19.1212
-4.51035
5.64745
-42.8356
7.28647
-17.3685
4.88929
-1.1891
-0.82787
-5.42861
4.22277
3.18175
1.92183
2.61538
1.62857
1.23032
6.59545
6.87901
-20.9355
-11.6479
-10.6201
4.87513
0.885665
-3.38282
-4.49884
0.799318
-1.92783
-0.275528
2.82025
0.967295
2.00139
3.16229
0.729461
-0.700059
-51.4549
6.70136
-20.4762
4.46903
-0.00664706
4.66791
4.47754
3.51348
2.89823
-9.27672
-25.9857
-0.76174
-17.1214
-34.6934
-41.891
1.28323
-17.1083
4.59545
0.493906
4.91697
-10.9075
1.12219
-6.6661
-0.769952
4.37166
-13.2609
3.64589
0.881666
-63.4987
-10.6479
-21.6734
2.06119
5.14973
-0.700783
0.789175
-14.9004
4.12572
-4.64918
0.66935
-16.0264
5.84323
1.32139
-0.211577
4.98113
3.59854
5.17432
2.65108
7.02092
-10.3844
-0.873348
-8.0293
2.16288
3.75175
0.92734
-7.53279
-33.1789
-26.4875
-0.222685
-0.226393
-33.3345
9.18505
-9.68164
4.73275
1.92487
-29.8901
-0.896479
-0.289474
-1.08388
1.37023
0.719865
5.02685
-0.818574
4.99461
-6.70601
-3.81103
-15.3104
-0.36955
-34.6361
4.79401
9.15748
5.19372
-1.85192
-6.09729
4.26547
-14.218
-5.08613
-0.227335
-1.82458
-28.047
-33.9309
-40.0455
-5.64292
2.58289
2.42672
-1.63872
0.910416
5.65881
-3.80904
-5.00385
5.58443
-0.861541
-15.7997
-0.159271
-0.538601
0.00213372
9.1835
-0.246459
2.55275
-4.00954
-2.50099
-3.71784
3.24531
-0.222626
1.66761
-3.14221
-4.93492
-0.166519
-3.10306
5.9958
2.91797
1.67202
-7.15543
-3.97331
9.49785
-15.2413
4.52775
4.78722
0.853629
-1.05889
1.24482
-15.0553
-0.19723
4.79665
3.76868
3.64142
-36.9098
5.60763
1.42019
7.56336
-2.5038
4.89556
6.19841
4.67833
1.02984
-15.2971
2.37357
-16.9166
1.15937
3.06358
5.18436
1.19674
7.28172
0.767039
8.00864
1.07323
5.02516
0.0704007
2.04513
-11.0805
4.8971
0.96645
2.98342
8.77562
5.13063
1.03762
-4.30372
1.54111
4.84125
-0.764226
-11.7704
2.18115
-0.276355
6.16422
-20.884
7.49184
2.04524
11.7524
8.2583
-0.0063629
-1.04633
-13.2847
1.04673
8.59253
0.11884
0.481622
-1.56648
9.71096
3.39061
2.38324
8.66358
-2.65088
4.93409
-3.76607
4.59136
-1.83285
3.78639
4.15571
5.98802
-0.872564
-15.1163
1.00689
-20.2704
0.779347
-6.84117
-0.212448
7.37915
6.98312
-0.0800927
-4.12314
-3.16771
5.31991
2.70274
2.85939
3.68827
-5.29185
-17.1928
-20.0657
5.24153
-7.09117
-6.33353
2.02748
0.79422
1.26063
-4.26925
9.51369
-17.3337
7.28945
-4.88701
9.10524
-8.06512
0.624414
-0.970425
-0.3879
2.89159
4.94462
1.04834
-4.78336
1.13857
-8.10114
6.57095
-0.748731
0.784798
-16.2585
-2.40198
-4.60926
4.68333
-1.98164
-0.771066
-0.902958
5.02645
10.0085
-20.8871
-0.231111
2.90748
-3.19838
3.15816
-0.616143
-0.245581
-3.45682
-19.0231
0.398792
-23.8803
-2.768
0.188357
-5.39369
-55.4724
0.886736
4.29159
4.59112
4.637
9.52922
-19.817
9.57657
-15.2268
8.87697
-42.1598
-3.11755
9.04837
2.86178
-36.6695
2.56557
-0.9125
3.45463
-14.2618
-16.2207
0.743066
-6.11671
-8.92879
-0.0252384
-2.15549
2.74169
4.7698
-54.2994
2.90739
-6.41056
0.936431
-17.0932
-0.747338
2.62109
-14.9211
-5.2554
7.828
-0.586847
8.36276
1.13638
-13.2952
2.59668
-3.46273
-1.05086
4.58109
5.61842
10.0916
4.32003
4.9728
-1.82019
-12.0062
9.74619
10.0759
5.63957
-2.31671
-34.6646
-16.6764
2.96723
-0.0581263
0.441074
5.35207
-18.0558
-0.685063
-15.3398
8.67353
1.91639
1.35047
-25.5133
2.50389
2.8239
11.2237
10.4326
3.1601
1.70029
-1.41254
-12.2376
3.04971
10.7104
-4.99494
-1.06556
0.592622
-0.0206728
0.916942
-0.152893
-0.82779
0.791941
1.2209
1.30753
-0.586389
2.39083
6.4855
-4.97505
4.58235
-28.3327
-1.18665
8.57958
-13.0706
1.28569
-5.23927
2.98425
2.05926
-20.6888
-6.18008
-0.724687
1.40463
11.4266
-12.1127
-2.40583
-45.0042
-2.27544
-8.1399
-5.34429
-20.3678
-4.78667
-0.230718
-4.81773
-3.14669
-8.71993
2.01877
-0.139293
1.2058
11.0644
1.3706
0.976026
-2.85958
1.77995
-11.2829
-4.79901
7.50253
4.63332
1.02728
-1.56583
3.95244
4.81584
-3.52071
-31.5201
-0.291478
7.52773
-4.38012
4.80551
0.921436
7.5423
0.72586
-31.6636
1.89559
5.2553
-4.42713
4.83309
-2.68587
10.357
-21.1098
-0.581309
-13.416
3.31599
-23.7127
-3.59048
-22.65
0.496887
-3.2647
-41.2005
-15.0844
-1.36311
1.27248
-21.8376
-3.22495
2.60832
-18.166
2.41495
-24.483
5.26229
9.5599
2.25688
-11.6457
2.98764
0.366948
1.21612
-1.56069
-1.38102
-15.1124
-0.0923003
-8.19584
-3.36861
0.78866
-1.98706
-12.8575
-11.1745
1.50881
4.98188
-3.27698
-21.9898
-0.947812
-0.52331
-2.58829
0.694819
-7.83922
-23.314
5.73724
-12.1758
-1.84796
-6.17703
-13.0048
-13.6221
-21.0273
11.4473
0.415056
-5.76388
2.68739
9.2052
8.60373
-35.5138
-3.80459
4.95022
-0.670809
-0.0474832
9.37388
1.40747
1.38124
11.5023
-0.572761
-4.81032
1.52094
7.80469
5.16093
3.06076
7.21496
4.05053
-0.880987
-0.374232
3.0516
0.954153
-11.6149
9.18232
-0.699482
-1.70474
-0.547587
-17.6024
0.531211
-26.5858
-4.55281
1.06047
3.53012
5.52683
3.95897
-14.3386
8.00782
8.83755
-2.55742
1.68581
-1.40207
-0.207269
1.0798
3.6875
-15.7026
-3.75324
-0.982998
10.0677
-13.6914
4.41184
4.58604
5.49635
0.539132
2.45551
-3.60049
-0.563089
-1.6692
-0.959636
-16.231
-5.68752
-0.130109
-20.1213
5.48104
-41.3601
-0.712796
1.93424
-11.1551
-27.4203
-15.5291
3.27141
-3.6209
-0.049959
2.93971
-42.7536
0.597888
-0.870176
-1.34954
5.05694
-13.1832
9.52217
-0.434647
10.3675
-0.01065
-0.169689
0.523274
4.69581
2.26909
-8.56254
-1.72073
-0.078382
0.444169
0.895019
11.5993
5.53993
-1.25222
-4.12399
-0.242152
1.18672
3.95045
-2.95954
3.72754
-21.5237
-23.9627
-10.9428
-4.16906
-0.765955
-11.1192
3.82675
1.64164
8.51232
9.87994
-13.038
-14.7953
1.18599
-3.76742
8.91689
-7.3852
-0.95638
2.89353
4.11078
-25.335
-5.44575
0.724022
-0.885563
1.83073
-20.3234
-4.56148
0.560601
-2.77872
-6.96933
-0.500632
-7.95464
-6.34684
3.91576
-39.6778
-29.6023
-5.80917
2.16214
10.3117
-0.0190871
4.8579
-10.6529
0.723395
0.499117
-0.666623
2.31611
-20.9185
-19.5785
8.85657
4.95031
0.702053
-9.44785
10.8621
-26.5162
-18.6937
-20.374
-1.36572
-24.4783
-23.9221
7.61296
0.427383
2.59533
2.75163
-19.2394
2.55634
0.0257957
1.4487
-9.02216
0.854391
2.43696
3.64475
-22.0536
-17.3808
-7.53421
-7.662
-4.65293
-4.00706
10.2076
3.92856
-33.7909
-1.74909
2.03001
8.2107
0.0160641
-17.6323
-0.69432
6.43137
3.36071
-6.56685
4.84339
-4.96192
8.74263
-0.711091
5.42836
-13.7082
-5.69929
-0.597197
-23.4449
-1.33257
2.5153
-15.2515
-24.9383
4.78068
-5.82797
0.308834
6.86326
4.34719
6.64672
4.81121
-5.06118
-0.02567
0.984723
3.1917
-0.00567479
4.99272
0.452703
8.78284
-20.3618
6.42239
-2.57141
9.44089
-18.6233
-2.52564
9.32938
-21.71
0.19836
-13.2818
7.08292
9.09789
5.19965
-7.29819
4.94863
5.68879
-19.2469
3.17081
-33.2597
6.32274
-23.4824
-15.0804
-16.1559
-17.3355
5.56643
-2.40645
-18.375
0.860965
8.99511
-1.48141
0.171239
-18.1332
-3.38212
0.941114
-3.02098
4.87966
3.17881
-17.2992
10.507
-1.06144
7.70261
6.3039
-0.192152
-0.234872
2.14427
-5.3361
-4.28404
1.74067
1.1038
-0.964098
3.11382
-18.7819
8.93789
5.69497
0.412218
-9.02242
3.58081
-15.9827
3.94489
5.58173
0.804538
-0.368133
5.44937
3.8238
-3.53339
-11.9761
0.368711
4.13289
8.75861
-13.2902
9.50481
10.3313
9.81438
-5.77913
5.45623
-14.6504
4.94388
5.68439
6.59087
4.12801
6.85465
11.1731
4.81466
-14.5408
-7.58024
-20.1449
11.0717
1.07429
-6.49422
-21.4555
5.4391
8.09122
3.96008
0.424376
-1.5522
7.61333
-3.23451
3.50895
-22.7836
2.97496
-0.703041
-4.73289
1.55395
-15.5373
-18.4593
-17.3471
-6.96078
-0.470289
5.33326
-0.140661
0.565417
3.22879
-9.17735
-1.28268
-0.574767
-7.92775
-13.5618
-16.1523
6.49002
7.78158
-25.393
3.68116
6.20775
7.03613
-0.0710004
-65.483
4.08671
-10.5937
6.80085
-7.76358
6.5893
4.02023
1.5338
6.31487
1.97555
5.83358
0.523309
3.06561
-4.30823
-11.7607
-13.1745
-0.695435
5.68606
-53.8881
-30.6009
-48.5759
8.26729
5.5607
2.73898
1.16715
7.3568
-5.957
3.15747
0.201904
-4.50154
3.22286
-33.1519
-13.9383
-3.72248
-14.488
-4.27006
-36.832
0.0993774
-17.1826
-11.6784
2.18787
9.16801
10.2541
8.42395
-56.8495
3.5813
-13.9062
3.25918
7.85509
1.65119
5.58272
-42.4099
0.676208
-4.95013
0.403804
6.32183
-2.64231
4.21492
-14.4784
-0.495343
-16.0095
5.50948
4.225
4.94735
-12.9017
3.27797
-15.4489
-18.7491
-18.545
0.519704
8.97341
-7.47344
-9.55419
-24.2417
4.24483
4.90325
-1.01696
3.69436
-12.6464
7.52158
7.8438
-27.404
-0.272258
6.8198
-35.7248
-23.1303
0.827836
6.3609
7.1547
-13.8233
-0.125104
0.299766
9.01801
-16.4799
-44.9626
0.318418
7.9665
0.778227
-4.25002
-8.1965
5.97697
4.36557
6.15589
0.144739
-6.55552
4.19171
10.8911
-12.3702
1.58288
0.612904
-15.5736
0.703321
0.810437
-20.6785
-0.354841
-17.8801
3.83681
-18.2804
-10.2358
5.47327
6.93078
3.31203
-5.09203
-40.0745
4.0228
-13.4828
-2.56894
-4.06918
0.881701
-15.1107
6.03554
4.13967
0.545803
3.39118
8.49468
-14.0275
0.881355
5.37696
-17.9332
3.84882
-1.44935
0.641298
-3.60052
4.44731
-0.00902627
0.739223
-3.00763
-7.74987
6.14878
-3.17227
1.98815
-39.7875
-4.28112
5.0152
-13.252
9.73487
-13.4222
-16.2358
-11.8602
6.38123
4.05799
5.61683
-18.7591
7.95706
-32.13
0.504598
0.462585
-2.85297
4.94622
0.975514
-3.16648
0.794491
-19.1651
4.40277
-14.1611
-37.0708
0.0118311
-8.49669
-5.70157
1.91526
8.45784
-0.00926705
-14.6606
5.48658
-4.29287
7.17003
-3.068
0.961959
4.07078
5.16446
0.947903
-11.7888
-6.16559
0.644178
2.15515
2.75844
-6.57992
-26.4563
-1.05278
-1.59399
0.665531
11.2344
3.61472
4.85964
7.16661
1.76311
5.5932
-35.5602
-15.2485
-43.2761
4.94166
10.8651
3.33091
-2.80388
6.25901
1.97887
2.22125
-0.141027
0.582971
1.40319
9.76926
-10.8984
-9.50689
8.38913
6.42359
3.05103
3.82369
5.33636
2.00291
-14.18
-44.9021
4.147
-13.6505
-11.3685
4.61286
-46.6936
-9.23411
-4.20911
3.43327
3.7213
4.13555
0.508193
5.68349
5.87349
0.81466
4.49472
3.62012
5.60073
4.86789
-0.664663
0.810054
-1.06045
6.14266
4.30898
1.92898
1.9369
0.443435
-0.783754
8.39194
4.84192
-0.0131884
-18.8572
1.75987
5.04108
0.252469
2.32529
-0.71553
0.495957
-33.1802
0.776065
-19.9266
-0.275074
-0.0699566
-9.94979
-17.0955
-12.5022
7.42345
-20.3289
-16.2948
-24.9749
8.63034
-17.6951
1.10616
1.95881
-18.231
4.98198
4.86533
-0.415011
6.68499
2.59457
0.857033
-18.6982
-19.9697
-0.0592068
6.30204
2.29795
-13.7299
-15.9802
-23.7418
-17.7735
-25.1026
-2.79296
-2.65241
2.64955
4.93864
5.27605
-18.6867
0.0184032
6.79012
4.93534
-13.9209
0.483581
-20.0455
0.374698
0.521117
1.48417
4.56392
-4.33919
-20.4541
-26.9993
2.23849
-42.0103
-16.4344
0.141239
-65.1205
-13.2104
-18.4326
-23.9498
0.159032
-19.0047
0.941167
-13.4614
5.09394
4.72019
-0.466714
6.50768
-36.5917
8.38486
-9.38644
1.08388
-3.46844
3.87588
1.63238
-11.6088
-17.5374
5.25191
6.47179
8.88716
-17.6696
-12.0533
-44.6241
-2.46199
0.00124537
-13.3713
-3.51605
-14.8133
1.60357
-13.9919
0.237904
-6.66475
-1.30527
7.63434
2.66128
-2.14166
-0.53176
-4.89508
-13.5198
7.31608
10.2302
-15.9799
4.61336
3.79611
-0.0129319
-13.9594
6.28427
6.39733
-1.87157
-14.7961
-43.8527
-42.6716
-3.18542
-14.0815
-2.71263
4.24581
0.283422
5.76545
-12.7792
-18.2756
4.96768
-2.83377
-16.827
1.16627
4.8268
-17.8471
-1.4346
-17.7354
-13.3535
-15.6163
9.07973
-16.9983
-0.0877562
-15.5178
4.81357
-17.2984
-4.11701
-3.92007
-20.192
-4.46631
4.39205
-0.0805876
-13.9169
3.01619
0.0264781
-33.7046
-4.7497
-11.9961
0.312204
1.74217
4.91647
-13.8508
6.9818
-28.137
-0.009073
-0.214066
-7.74692
-43.8201
-12.7849
-29.6913
1.16516
2.78685
-0.09287
-0.19363
-5.85952
2.6579
-27.0119
5.11788
-13.8295
3.72578
-4.56591
-11.7114
1.46956
11.4248
-12.3396
-18.4926
-6.56862
-8.41466
4.9493
-0.359862
1.7522
-4.085
-14.0127
-17.6087
-12.1239
-14.2966
3.41214
-15.4471
1.46394
-16.3317
0.500105
3.05599
-0.283589
-2.06501
-1.5964
5.45088
-14.6793
-37.2642
6.17546
0.359612
-16.1713
-0.291638
-9.84571
-6.12789
-0.648115
5.53558
-36.1613
3.06524
-10.8218
-9.00702
-16.0851
-14.555
-18.468
-1.44074
-12.5716
4.77157
2.86258
-28.0767
0.40348
-43.5614
6.40826
6.88274
-18.5414
1.40968
4.68262
4.93662
0.557972
-35.8743
-15.6809
-11.9352
4.93553
2.2506
-9.61589
-9.00838
-0.725324
6.38193
0.0154177
1.37298
1.10971
6.14352
-4.57045
-4.96073
-0.71429
4.60265
1.58067
0.975131
7.06591
6.15466
-0.186365
-53.0452
5.35205
3.28307
0.511361
1.7955
-11.0944
-24.242
-9.09714
-46.8791
6.36587
3.25067
-1.86577
-4.26367
1.11253
-7.78676
3.82596
-57.5438
0.101641
5.55957
6.29376
-30.5357
4.5762
1.84359
3.56496
4.16302
0.345665
4.32567
-0.0249432
5.12668
3.85908
5.15212
-16.2907
5.99144
5.20147
4.7169
4.15241
-39.256
0.660088
-0.915578
-6.14031
5.75302
7.80003
-64.4315
7.44198
-40.1719
-13.0993
4.04756
4.79949
-4.91215
0.320376
-12.2385
-60.6617
-2.79442
-28.7656
-5.35292
-0.430479
2.92064
10.188
4.92286
-22.5506
-21.9082
3.51543
3.24514
-15.7572
-27.5137
-41.6489
-5.13032
-12.8697
-11.8917
4.87524
0.869087
3.07456
-0.411674
-0.333041
-0.084883
-0.13813
1.12624
-1.182
4.66941
-8.65229
-2.87084
-6.59151
-30.6177
1.79938
3.44364
-1.37872
-6.0999
4.23049
-0.859815
2.88188
-5.7348
4.7922
2.77698
7.84914
4.91117
-39.9351
-0.509681
-4.41345
-38.8518
-0.695322
-0.739291
-4.0108
-65.9876
10.4271
-0.0132869
-3.06857
6.87555
-22.9253
-2.13141
-16.3848
-17.2685
-16.8949
-4.40805
-3.91941
2.57942
-6.65154
-40.9977
1.82645
-37.0068
-3.92754
-14.9361
0.217726
4.4304
-21.3055
-27.5868
-4.25334
0.887593
-7.16653
4.96246
7.17923
-39.7208
5.08684
0.166237
4.12675
8.675
-20.4805
3.81342
1.44577
2.95683
6.46509
-0.233537
-2.44631
-13.4622
4.6744
7.17296
-41.3426
-0.0276406
-12.8619
-8.25147
3.3628
-40.1548
-4.70885
-45.785
2.9137
-10.0153
0.832896
0.687948
4.77689
0.74515
-14.2667
0.427927
-0.705797
-6.60484
8.02153
9.63203
5.74871
10.7901
5.18455
4.09323
3.74305
2.37602
5.63714
-21.6617
3.90345
-0.481945
-12.5479
7.25867
-3.08624
-5.66115
9.33912
0.912847
-31.4116
3.38414
2.98579
6.08828
-3.64554
4.97307
8.97881
-21.5533
-13.1399
-4.84296
2.03323
-13.5313
5.24437
0.143781
6.28982
4.94062
-26.6227
4.87877
-2.90417
-17.4362
-15.8072
-46.5765
4.54405
-9.24612
5.04554
-0.973572
-13.6058
0.057808
-1.7747
-3.34468
-47.4652
-16.2169
4.96547
1.8097
-16.0078
-1.15308
4.15003
0.948889
-63.935
3.34004
-0.389852
3.24255
-17.8654
3.97142
2.13267
-1.44911
-1.64172
3.79595
1.68095
2.37055
-15.1542
10.5428
-3.68035
-18.5412
3.88014
2.78686
-14.6794
-5.85142
-15.4665
-0.337935
-0.0840614
-7.66548
0.255512
-0.551006
10.7907
0.938689
-26.1477
-0.00376185
-4.5786
-0.0683471
-3.96085
3.26459
4.16565
-13.4448
1.78562
-11.2145
0.448019
1.18364
3.27844
4.16699
-0.0137934
-0.0264352
-0.2445
5.04829
0.833609
0.0409504
-18.2784
-1.42416
-1.80969
5.09727
-18.6644
0.518187
-14.4472
4.45769
-13.0665
-0.249435
5.83419
5.04573
3.46169
-19.2671
-19.6012
5.17407
-1.8229
6.00448
3.43844
1.90426
4.67617
0.78866
2.28473
1.00309
-5.69509
-19.1486
4.22515
-10.4132
6.14377
1.09107
10.9215
0.650207
2.21478
5.33697
1.44783
0.952206
4.93415
1.56032
1.44889
-10.6126
-0.745454
3.52216
1.59195
-1.02699
-52.8545
-2.8863
-22.5969
-14.5467
-7.12955
4.76387
-0.505611
4.45128
0.644243
9.15958
7.3319
2.76054
1.81566
2.63657
-16.5691
5.32797
2.23074
1.2279
0.911264