/*--------------------------------*- C++ -*----------------------------------*\
| =========                 |                                                 |
| \\      /  F ield         | OpenFOAM: The Open Source CFD Toolbox           |
|  \\    /   O peration     | Version:  2306                                  |
|   \\  /    A nd           | Website:  www.openfoam.com                      |
|    \\/     M anipulation  |                                                 |
\*---------------------------------------------------------------------------*/
FoamFile
{
    version     2.0;
    format      ascii;
    arch        "LSB;label=32;scalar=64";
    class       volScalarField;
    location    "2.8";
    object      p;
}
// * * * * * * * * * * * * * * * * * * * * * * * * * * * * * * * * * * * * * //

dimensions      [0 2 -2 0 0 0 0];

internalField   nonuniform List<scalar> 
13486
(
2.2968
1.83166
0.190272
-0.384232
0.735937
-0.130341
0.332554
1.28092
1.56005
0.77405
-1.63308
0.406273
2.41766
-0.311256
0.588064
0.866841
-7.51238
-0.261769
0.551357
2.07104
-0.313242
2.3887
1.79413
-0.738316
0.739552
-0.698763
-1.63115
-0.499664
0.00163191
-0.380745
-0.22215
0.408383
-0.992012
-0.280593
1.28496
0.016282
0.0634476
1.86941
0.0364936
1.56358
0.147338
2.50933
0.0351112
0.744738
0.706309
0.389625
-11.5487
0.00214631
0.0565141
-0.575369
1.3354
0.00672264
0.247273
1.90204
-0.251271
0.798371
0.0981881
0.00776876
-0.959398
0.0823236
-1.15447
0.0839788
-2.9599
-0.294431
-0.395596
0.0670712
-0.413393
2.30049
1.54962
0.0393354
-0.414382
-0.270037
1.57644
-5.45091
0.067515
0.0913154
0.0636431
0.573633
-10.4806
-0.0250985
0.00980337
1.85137
-3.25059
0.198198
2.30613
0.835742
0.113426
1.25911
1.51401
0.858807
0.195452
1.11268
2.20244
1.96852
1.61368
0.010228
-1.43521
-0.426136
1.53934
-7.63638
0.0246935
-0.223674
-0.425078
0.00610589
1.04957
-7.93636
1.54504
0.0318521
-11.2232
0.992089
1.4861
0.354514
1.90108
0.073838
2.7066
1.55642
0.738804
-0.261844
1.58927
0.0535437
-0.319348
-1.11468
1.68836
0.0310187
1.484
0.00899752
1.11044
0.387296
-0.217451
-0.343747
0.00789399
-11.1578
-4.17918
-5.54346
1.41626
1.21669
2.75032
1.03518
0.0511991
1.32528
-0.865936
0.222756
0.406978
-0.0275709
0.0709743
-1.9885
0.176341
1.73987
-0.632165
0.00468639
0.891076
0.540294
0.00188269
1.88929
0.430329
0.182987
0.805635
0.0614989
1.69497
0.126614
-0.457216
1.69581
-0.0407519
2.50198
0.00375367
-0.559699
-0.0678396
3.1399
0.180125
-5.57319
-4.33643
0.446402
1.05591
0.829105
0.0115031
-0.506745
-0.573042
-1.06149
1.54863
0.424659
1.46566
0.0683836
0.660428
-0.4135
0.227986
-0.504547
0.00105116
-0.362929
0.219704
1.63799
0.0566103
0.131803
-0.00419746
1.97815
-0.0237335
-1.6437
-0.356625
-0.4574
2.06067
-0.469898
-0.23083
0.366034
1.87328
0.566825
0.118637
-0.0276531
-0.139886
1.68863
0.00643729
0.233358
-0.414572
-0.503769
2.04452
1.54184
-0.135217
-0.163838
-0.407826
0.884747
2.0869
-2.01377
-7.82007
-0.65504
1.36062
-0.475522
0.123089
2.23315
-0.424139
-0.346882
-0.115951
0.114404
1.44898
-0.279482
-0.899707
2.56109
-0.378698
2.14611
-0.30704
0.140184
2.16832
0.688918
-0.95011
1.04018
0.0760506
2.04353
0.0583937
1.75879
0.730216
-0.531977
-6.07075
0.8461
-0.470563
2.73937
1.50374
0.026741
-0.0647741
-0.551363
0.384916
-0.157189
0.0920575
-0.880497
1.67595
0.0610727
0.577288
-0.536449
0.819236
-0.411885
-0.120745
-0.257661
1.4871
-1.53272
1.51662
1.50223
-0.423811
0.308464
2.23676
-0.505817
-0.0666345
-0.209752
0.0233583
0.17956
-0.207752
1.29104
1.55627
-1.13471
-0.924497
-4.65247
-0.912899
-0.237459
0.149966
1.49628
-0.373658
0.0900967
1.61227
1.42654
-0.290325
-0.333985
-0.434417
0.311508
1.5922
0.249198
-0.0777438
-0.164055
0.182765
0.445223
0.0512279
0.59458
-0.295948
0.775614
0.106073
0.0577793
-5.12516
-0.376755
-0.298086
0.347598
-1.62838
1.24161
0.0944083
1.51701
1.697
-0.154257
0.0624563
0.0781592
1.53284
1.97965
2.70783
0.239065
0.981318
1.26286
0.263071
0.906526
1.27498
1.0614
0.110592
2.11194
0.31477
1.52375
2.80181
0.576935
0.937663
0.0657644
-0.137834
1.95846
0.871888
0.679739
-0.448466
0.0119967
1.04261
2.70186
-1.99988
0.0889663
1.00407
0.273299
0.301826
-1.06767
1.5821
0.0391211
-5.15036
1.0868
0.102641
-0.493189
0.545702
0.138655
1.70977
1.50674
-0.399057
0.00268664
-0.314365
-10.4893
2.09052
1.09853
0.022676
1.06024
0.12928
-0.472398
-0.134904
1.3681
1.56382
0.0777993
-1.59372
-3.28384
1.46727
1.02754
2.42311
1.60808
-11.0957
-0.077788
0.145104
0.914363
-7.26045
-0.167285
2.0109
-0.473466
0.661123
2.18883
2.25617
0.0499045
-0.39754
-0.468878
-7.98621
-0.924612
-7.56278
0.327509
1.38125
-0.345044
0.371227
0.0717939
1.93926
-1.00378
1.11766
1.72381
0.906325
-1.258
-0.530082
1.59598
1.54714
1.90626
-0.406775
0.843165
-4.95155
0.713672
1.55077
0.191251
2.7117
0.984153
-0.451238
-0.344566
0.349837
1.55127
-1.84179
0.0315674
2.36943
1.39096
0.645075
0.148786
0.668482
-0.605079
2.4113
0.0833276
0.872462
2.26326
-11.6003
-0.440386
-5.76183
-0.531513
0.126113
1.82821
1.792
2.38369
-3.32625
0.0512375
-0.464523
0.959307
1.54462
-0.572666
-1.40385
1.52644
-0.463073
-0.508487
-1.11492
-1.88144
-0.171194
1.93455
0.0165395
0.064219
-0.348051
1.46041
0.00379003
2.97139
2.22526
1.5741
1.22761
0.0151153
0.00269502
2.78491
-0.091599
0.0487359
-0.432196
1.53763
-5.26707
0.298422
1.08206
0.0334757
-0.686412
1.77348
-1.60105
-8.2301
0.999462
-0.180171
3.12857
1.01628
1.35585
1.67956
-0.518615
0.228965
2.51083
0.732117
1.99261
0.304418
0.450548
-0.272302
-0.0214342
0.0423606
-7.87026
1.57659
1.52226
-0.473076
0.0050616
-0.169696
2.27911
1.8334
-0.0770462
1.55179
1.13757
-0.669133
0.817251
1.37955
-4.52197
2.38326
0.056173
0.0392928
2.49287
1.03801
0.01235
1.02806
-0.287682
-0.467497
0.625021
0.944228
1.71335
2.20749
-0.453253
0.662849
-0.477726
0.00549697
2.14236
0.439397
-0.410708
-0.430265
0.15136
0.0829648
1.23982
-0.381582
-1.32908
1.5562
2.08866
-0.0247209
1.67277
-2.18041
-0.475011
-1.88198
0.655583
-0.491188
1.70125
0.225904
-1.06275
1.31433
1.81271
-0.85694
-0.450216
1.35828
2.15142
0.462329
2.31615
0.222769
1.0222
0.376471
1.71566
0.0624132
2.09338
-1.23005
0.303884
1.47868
-0.195258
-0.480171
1.52399
-11.1833
0.315753
1.75293
2.38112
-0.291197
0.06357
0.40403
0.116672
1.3904
1.06392
0.461521
-1.03267
0.0841783
2.27895
0.285187
0.0898433
-0.642328
2.39708
-0.226766
0.0744068
1.49511
1.20817
-0.0234331
-0.389188
1.3018
0.251805
0.124617
0.616548
-1.49007
2.3267
1.52189
1.08661
1.11644
-0.307087
-0.93635
2.61707
0.472436
2.62402
-0.335392
1.52091
0.0143173
-5.53538
0.903651
0.843485
2.74794
-0.4788
0.984082
0.944405
-2.13063
0.804183
-0.195271
-0.710198
1.50859
-0.433555
-0.462855
-0.61153
-0.33472
-0.206158
1.66541
0.00964377
2.54259
1.54323
0.116212
-0.470534
-0.406524
0.511905
-0.975087
-0.429825
-7.53258
2.12941
0.000455419
0.0902275
-0.66157
2.43081
0.00649844
-0.136339
2.4885
1.35462
-0.43374
-0.0136572
1.09314
0.176546
1.46608
0.0707081
-0.325599
0.59133
1.41383
0.468627
1.28157
2.52529
0.0722628
-0.444343
1.50757
0.261051
-0.155493
1.04877
1.14492
0.665276
-0.423332
0.227182
0.0731004
0.269073
2.13925
0.49343
0.253016
0.20597
0.0559261
-0.0402388
1.53651
0.110949
1.43337
1.4665
2.11915
-0.456493
-1.35384
2.60335
0.0298584
-0.467626
1.62424
-0.642488
1.73443
0.0711556
1.4993
-0.342042
-5.67182
-0.602613
0.0135443
-8.16983
0.811255
2.67998
-0.193952
-1.6441
-0.486319
1.57442
-0.842655
0.68589
-0.748354
2.65419
-0.430855
0.794498
-0.599392
0.882163
1.53257
0.532911
-3.08169
-0.262589
2.4637
1.56168
0.629952
1.39858
0.0309208
1.20918
1.21977
0.898522
-5.24446
-0.0727687
1.9207
0.34663
0.0137914
1.26802
-0.466363
-0.184968
0.0285905
1.66838
1.63048
-0.405605
0.237072
-0.437831
-0.284358
0.257078
-0.1998
0.142304
1.49559
-0.123168
-1.59642
1.79419
-0.10562
-0.297797
-0.174144
-0.601847
-0.407307
-0.551492
0.0629533
-0.59359
1.45624
2.41419
0.0494323
-0.294015
2.49492
2.33986
-0.282715
-0.361687
1.58427
-11.1457
0.0809374
-0.618301
0.0578979
0.837522
-8.1192
0.733368
1.03758
-0.530985
-0.227489
-0.853328
-0.1263
1.32596
0.628394
1.00425
-0.429082
1.29179
2.2915
-5.26147
-0.571908
1.71955
0.495825
0.996754
0.0408781
-0.369468
-0.440499
-0.0863773
1.582
2.63033
1.69615
-0.415336
-0.129479
1.53478
2.23155
-0.412005
1.63971
1.53536
2.32912
0.370089
0.0647387
0.26304
-0.150369
2.32058
0.242209
-0.146146
1.06331
-0.0709376
0.404405
-0.0572314
-1.12762
1.45773
1.11812
1.06844
0.726074
-5.27953
-0.262735
-0.177797
0.845158
-1.57133
-0.902576
0.0751977
-0.720376
-1.08216
0.814277
-0.379528
-6.04222
-3.9871
-0.233159
1.12288
-1.93166
-0.493589
1.72895
-0.304339
2.3907
-0.341551
-6.08003
1.81337
2.15712
0.0663272
0.0944931
0.305141
1.57937
0.848725
-2.11318
-0.0132732
0.0516388
-0.215743
1.50308
0.0914051
0.906007
0.0755608
1.54164
-2.01373
0.0731376
0.0251404
1.86988
-0.720576
-1.42336
-0.619432
2.36985
-1.14239
-0.444957
-2.12068
1.54085
-0.473322
0.0817965
0.38883
0.720417
-0.10492
1.05088
-0.387629
1.23123
1.51662
1.7788
0.699815
0.0373833
-0.225473
1.15808
-0.619456
1.84089
1.01634
-0.0329865
0.027725
-0.0911063
-0.0302881
0.0496525
1.74175
0.648219
0.223513
1.53417
-0.240014
1.22819
2.71724
-0.0531257
-1.68641
1.0508
0.119021
0.032289
-0.103517
-0.339975
1.54065
0.0765769
0.0312728
0.066857
-0.979973
1.96195
-0.43829
-0.00192799
1.54082
0.106415
2.17752
1.76258
2.04983
0.411236
0.929116
0.450864
0.146909
1.13607
1.51423
-0.34013
-0.200948
-4.49885
-0.324259
-0.626595
1.54541
-1.62485
-0.902632
-0.712879
-0.329352
0.0340692
1.54032
0.0197492
0.156746
-5.47808
1.55331
2.6792
0.0904582
-1.45281
0.852691
-0.0990482
1.52771
0.121861
0.0497905
1.84828
-0.00492406
2.53344
1.06857
1.52736
-0.369399
1.99507
0.0812942
1.77063
0.057147
-0.889276
-0.577281
-0.505666
1.04086
0.0617931
-0.221402
2.38491
1.55227
1.65048
2.17328
1.68454
1.86564
-0.170689
1.59906
1.56486
1.58488
-0.159375
-0.407847
-0.585614
-1.57721
0.341065
1.7184
-5.62117
2.35578
-1.58361
0.077053
2.60874
2.19508
-0.193605
-0.540302
1.5537
0.787004
0.0075716
1.44137
-5.85632
-0.569457
1.52512
2.12284
0.0484763
1.69043
1.9756
0.00714141
-0.447848
1.98384
0.680398
0.0562024
-0.736634
0.194955
-1.07038
1.43425
1.06107
0.0760849
-0.163687
-0.422179
0.349777
0.0332014
0.399481
2.24377
0.0171563
2.91068
1.55664
0.531676
1.73228
-0.441829
-4.49434
-0.465589
1.5366
0.0410803
-5.12541
-0.220609
0.765751
0.88102
0.0670483
1.07284
-9.33538
0.782679
-1.66911
0.0784697
1.23723
0.461822
1.99179
1.57224
1.60512
1.4831
-0.203371
-0.798629
-0.730113
0.210774
-0.312472
-0.261634
1.21355
-0.271252
0.0307831
0.0764779
-0.133494
-0.770985
1.09032
0.699209
0.152907
-0.435818
0.738061
-0.657011
-0.643636
0.26587
0.0753006
1.68767
1.14589
1.96472
-5.70882
1.398
0.0708606
2.14444
-0.269933
0.811908
-1.33459
-0.164446
2.48936
2.58579
1.29037
0.812768
1.04193
1.40488
2.51726
1.03971
-0.893612
-0.69202
0.342875
-1.58176
-5.81179
1.54436
1.51569
-0.0532783
0.362286
1.27109
1.41054
2.74363
-1.77377
1.1989
-8.48396
-0.237025
2.20023
-0.0927527
1.27593
-0.248919
0.540027
0.595372
2.86356
0.132671
-0.578261
0.7827
0.284472
-0.464143
-5.68846
-0.366131
1.70127
0.140888
0.822299
2.33799
2.15187
-0.0338299
-2.90929
0.129394
0.257869
1.79332
1.47918
2.12883
0.936007
-2.07478
2.23235
1.38678
-1.93233
1.17101
1.56588
1.9277
-1.40914
-0.323293
0.000666349
1.31177
2.45114
0.811243
-0.189851
-1.04517
2.75641
-4.05892
-0.872026
2.56065
1.3618
-0.159953
1.22753
-0.400582
0.839973
-0.271491
-3.76329
0.0630773
-0.481342
0.132654
-0.213977
-11.3305
-7.90946
-3.74264
0.159361
-7.63725
-0.471806
1.26693
1.41621
0.774259
-10.0745
0.358685
0.224806
-0.205937
2.89594
1.00079
-0.664522
1.34914
-0.274803
-0.491181
1.24669
1.23417
1.51911
2.93448
0.00625388
-0.0939862
-0.732606
0.233548
1.03475
1.4915
-0.545031
2.25498
1.03342
1.62907
-0.27053
-0.0109928
0.0959125
1.58473
1.54234
1.63545
1.53268
2.68916
2.63038
-0.287755
1.36164
1.9551
-0.641596
2.12015
0.0276111
2.59895
2.09992
0.113628
1.74122
0.749648
1.16162
0.134066
1.54924
-0.789863
1.34615
0.548202
1.01536
-0.118464
1.52519
0.0274595
0.330331
2.50852
2.5006
1.01829
-5.65265
0.40208
0.0283646
-0.0826928
1.22755
2.24294
-5.81453
1.58873
1.46767
0.747468
1.57632
-0.556904
-0.250022
0.0756778
2.7436
0.446388
0.134563
1.7603
-0.117
0.0828114
0.781119
0.339692
1.16746
0.573097
-0.37783
0.910772
1.22154
0.997824
1.1365
2.65271
2.1719
1.90257
1.90326
2.45103
0.727378
0.0219946
-0.180927
-1.85771
2.48018
-0.271456
1.53558
1.37571
-0.455212
0.793947
1.70136
-0.526737
0.762091
0.942279
2.97113
-0.948941
0.677593
-0.0629241
1.74532
0.188101
-0.3706
2.43767
2.07603
1.48171
1.53181
-0.308517
0.687026
-8.68643
2.62473
0.0615263
2.84222
-0.208181
-0.254176
-6.68711
0.789066
-5.3051
0.0951646
0.0145728
0.569496
0.10749
0.544986
-0.397986
5.96479e-05
-0.246793
-5.69839
-0.511708
-2.28539
0.135081
-0.0347753
-0.351567
-0.971783
1.5594
1.59045
1.94433
1.52638
0.609669
0.599715
3.14973
1.49918
-2.40041
0.0103309
-0.116966
1.17545
1.35644
2.25923
-0.950693
-0.920775
1.23256
0.00317275
0.41476
1.91332
-5.68775
-0.461529
-9.75913
2.65549
-0.425575
1.06795
1.95643
-0.270295
1.21137
0.042864
-0.884817
-0.610473
0.114145
1.0303
1.81902
1.92238
-2.11157
-5.62419
0.987346
-9.48032
-0.377913
-0.203644
0.184579
-0.264573
0.0963873
-0.426313
-0.827075
-0.750709
2.3487
-0.324614
2.56885
-0.517481
-0.121525
0.572057
-1.20943
2.16836
1.49213
1.79713
0.118525
-0.274355
-1.07182
2.08491
-5.68864
1.12592
0.0715085
1.83928
2.16685
0.0599671
1.53135
2.46468
1.68101
1.65817
-3.33263
-0.159884
0.630155
-0.610016
0.0205751
0.915097
1.0705
0.189292
-1.64202
0.399405
0.108579
1.32335
1.1189
-0.442454
2.59023
0.229633
0.00812634
0.27462
1.51145
-0.350528
0.0092385
1.6644
-0.79931
0.154268
-0.231682
1.61035
1.523
1.44523
0.0928809
1.43694
1.76781
1.7271
-0.279603
0.0812007
0.343
1.32524
-1.0049
-6.22783
-0.431018
-1.8511
-0.396715
0.0315521
0.0189073
0.0714729
-5.68577
-0.674886
-0.859529
0.10722
-0.281934
0.585065
-0.435092
1.63093
3.16179
0.51361
-0.240881
0.688822
0.184114
0.402879
0.0315858
-0.352849
-0.672478
0.232222
2.0187
0.0075135
2.42037
0.0391409
1.44469
1.24802
0.671535
-7.9665
0.857588
2.68804
-0.357858
1.54232
1.47063
2.25008
0.230101
2.06774
1.63531
-6.33037
1.74212
-1.08537
-5.79879
2.11109
1.35943
-2.09455
-0.0437412
1.98244
0.108832
-0.466854
0.0696556
0.0643499
1.16806
0.841554
1.52998
1.42534
1.3144
-3.16101
-0.520733
-0.254188
1.4932
2.83788
-0.395652
-4.8382
-7.4303
1.52288
0.218877
0.220124
0.637678
-0.111707
1.18608
-0.28371
0.328813
2.40098
0.707153
-0.430406
-0.236829
-0.460058
-0.581511
-8.85706
-0.755535
-0.478596
1.81585
0.839582
-0.545921
2.47082
0.00992487
-0.79682
-0.244343
-5.43313
1.65545
-5.19027
0.527189
1.52656
0.116883
-0.287867
-0.197677
-2.4804
-0.318784
1.66298
-0.842339
0.0330479
-9.04725
1.47709
1.65129
-0.432689
1.93904
1.7937
2.32752
2.38988
1.70085
0.316278
2.74837
-10.2446
1.48437
0.265033
-0.914622
1.85633
-0.417927
2.33631
0.727422
-1.4697
-7.7941
-9.80259
1.63858
-0.429801
-0.307594
0.18982
-1.38276
-0.359835
0.957879
0.327021
1.11004
2.65277
-5.75806
-0.700526
-0.864832
1.58206
1.14168
-0.486519
3.12355
0.0269161
0.105581
0.962151
-1.51924
1.47758
1.57581
1.76052
1.76836
-0.507851
0.820225
1.47294
0.387254
-0.330605
0.022367
1.65229
1.71916
2.10594
-0.323664
0.173071
0.753444
0.947383
0.0820717
-0.868444
1.26427
-0.265284
1.33879
1.58154
-7.60112
2.41147
-0.4929
2.63653
1.74049
-0.751364
0.00739534
0.0688997
0.562407
1.61099
-0.647014
2.07661
1.44982
0.762937
0.0521269
0.36411
-0.395039
0.761196
-8.7973
0.930561
-0.302244
1.49783
-5.65935
-0.0926815
-0.244079
1.88798
2.18322
0.723833
-5.79756
0.756285
-0.0381514
0.210221
0.875511
-0.307103
-0.275287
2.56994
-0.788413
-0.197104
-0.748366
-4.17068
-0.165738
1.56775
-8.40421
-0.208766
1.60479
0.978161
1.65182
-0.464964
0.693053
2.60106
-3.05885
1.47126
0.448757
-0.255888
0.555572
0.395113
-1.08068
2.65474
1.75108
0.0821026
2.57906
1.98962
1.87077
-10.1579
-6.29502
0.95619
-1.68339
-0.15477
-2.01515
-1.5459
-1.94945
1.20958
0.588392
0.912329
1.0194
-0.272825
1.13757
1.49355
-3.10395
1.59107
0.958256
1.52767
-0.039736
0.0371234
-0.430962
-9.39011
-0.466564
-0.25555
1.47565
-0.939476
2.33604
-0.446768
1.4815
0.923589
0.0808704
0.233854
1.57635
0.692076
0.405047
1.37724
0.0772345
-0.208963
2.20956
1.79958
-0.502516
-1.42228
-0.0460039
1.35003
0.0449386
0.653654
-1.96619
0.0801033
-0.0563403
0.127343
1.33685
1.27083
-0.337078
0.682182
-0.00390701
0.0390339
-0.790035
1.88595
-0.460471
1.52068
0.00115687
1.31522
1.63109
0.880189
1.42255
0.018663
-0.392746
0.0845002
-4.49672
-0.42853
-0.482288
-1.17323
-0.194343
1.22042
-0.00524971
1.49727
-0.1091
-0.114549
-2.30947
0.0323245
1.60053
-0.660843
1.49538
0.42799
-0.661983
-0.176117
-0.45729
1.091
1.61885
0.0438421
0.338633
-4.54637
1.78878
0.126679
0.436796
-0.451448
1.92066
0.752829
0.040745
1.64524
1.58577
1.85452
0.274611
1.87414
-3.22136
0.112354
-0.203497
1.46823
0.999492
0.450251
0.115469
-0.853005
-0.558826
0.833564
0.162143
-0.613347
2.41374
-3.62267
1.82287
1.10579
-0.312948
0.00918909
0.144139
-0.00135935
0.217918
0.290548
1.4373
0.0925755
1.54018
-2.39571
0.590171
-0.254458
0.371642
-0.877771
1.89913
2.60789
1.6758
0.839312
0.276021
0.981859
-2.01689
-0.0100342
0.102157
-0.075944
-0.528544
-0.809587
-0.845582
-0.521883
1.36094
1.4972
-2.60363
0.420748
1.73044
-0.541806
-1.80598
1.6426
0.0200173
-1.11869
0.0501657
-0.191846
0.00968034
2.45298
0.104903
1.46433
-1.43922
-0.821408
-0.527737
1.4927
0.388036
1.26001
-1.3001
-0.696871
0.153389
0.300603
1.76383
1.35025
0.309672
-0.212363
-0.290903
2.71293
-0.305842
1.73633
1.89703
-0.155153
0.00243728
0.701259
-7.60975
-0.709496
1.32956
0.875009
1.48222
-0.459222
1.67003
0.224348
2.18124
0.315226
1.34377
1.92955
1.26539
0.27298
-0.431339
0.526964
-5.23422
1.30533
0.70284
1.84773
0.199692
2.3202
0.324204
2.46979
-0.620552
1.92199
-0.171413
1.15128
-1.97174
1.47289
0.735067
0.625789
2.3066
1.51685
0.362564
-0.520825
0.877579
1.45702
0.0318299
-7.96837
1.11448
0.137796
1.98572
-0.440875
2.36288
0.411306
3.18675
2.38367
1.10727
0.971254
-1.89273
0.162222
2.53809
0.188163
-0.00179706
-0.0501631
2.54977
0.7442
1.31069
2.17592
-0.837555
1.66569
-0.203367
1.81737
0.0898164
1.7149
1.5598
2.1072
0.0112695
-9.75392
0.472454
-0.46464
0.709325
0.200535
0.136304
1.94805
2.22531
0.0330845
0.484508
-0.189832
1.98897
1.26712
1.40564
0.960505
-0.18931
-4.53989
-0.327593
1.56824
-2.41535
-0.154356
0.0764533
1.07781
0.72498
-0.537626
2.68557
-0.203945
2.33632
0.418101
2.40433
-0.344882
0.314572
0.0777217
0.0977093
1.29904
1.50739
-0.204724
-0.169472
-0.723942
-0.146427
2.20472
-0.481991
0.0778523
-0.265924
-0.203532
0.483179
1.86428
0.714401
0.111131
0.0598532
1.51599
2.84706
-0.464848
0.150111
1.48612
-0.0228849
0.801223
0.0685326
1.07441
-0.181354
-7.56519
-0.444894
-0.265806
-0.0889217
0.162666
-1.73118
-0.475762
-0.027877
1.20317
1.63623
1.33999
2.76267
-1.32067
2.52642
-4.3082
2.36712
-0.65723
-0.903274
2.66813
0.636744
-0.331863
1.53994
0.0168625
1.66408
-0.362535
-8.62045
0.324434
-0.4841
-0.545618
0.00896331
-0.076394
0.626395
1.89297
-0.756155
0.702353
-2.3133
0.330096
-0.237818
0.0351609
-0.00320975
-0.218083
-1.81016
2.00362
0.0473995
2.20533
0.583965
-0.746695
0.508109
-1.32714
0.0815149
1.31976
1.91264
2.78483
1.1534
1.27849
0.710167
-5.86686
2.68414
2.86193
1.66855
-0.835646
-0.461286
-5.17855
1.41712
0.994474
0.552739
1.2246
-0.236925
0.0364358
-2.83522
2.29443
-0.398576
0.244306
-0.378343
1.4671
0.329084
3.08055
2.87969
1.36801
0.0716952
0.418794
-3.63284
0.571914
2.95621
0.219038
0.0825643
1.11938
0.0129537
0.332357
-0.106166
-0.270496
0.395128
0.0741567
0.702153
0.0537445
0.499235
2.1327
0.432972
1.62686
-0.383498
-0.345715
2.57735
-1.32087
0.20016
0.363404
0.664673
0.19812
-0.451885
0.271894
0.118037
0.064441
3.11515
-7.68575
-2.35147
-0.610424
-1.09534
0.193152
0.359072
-0.422829
-1.78613
0.03951
-2.97275
-1.22207
-0.609945
0.194618
0.170571
0.193937
3.03532
0.165391
0.474629
-0.089957
0.357314
-5.84456
-0.2614
2.08928
1.51823
0.486828
-0.221713
1.47468
1.63415
0.00443249
-0.733964
0.100457
2.08091
-0.559617
1.42878
0.132567
2.34229
0.207729
-0.39217
-1.45926
1.66694
-0.43446
1.35811
-0.865318
2.91362
-0.41696
-0.245831
-1.93174
0.666553
-0.440167
-0.878935
-0.414912
0.272068
0.654776
-0.476223
-0.288257
-0.0324746
0.181614
-0.463207
-1.2319
1.25421
-6.5262
1.32797
-0.414867
1.68772
2.66571
1.42584
-5.90092
1.53892
0.233287
0.206868
-0.0434114
-0.386746
-5.66831
0.149442
-0.281403
0.637465
0.0326745
-1.18642
-0.182808
-1.83848
0.78974
1.55708
-1.73307
-0.452108
-0.475297
0.0507004
-0.212386
0.909157
-3.49297
-0.452976
1.53515
-0.135763
0.848875
-0.871382
-2.03843
-0.457806
-1.32942
3.07205
0.467485
-0.635002
0.39002
2.50815
2.58348
-0.401433
-0.211862
1.52119
0.0367361
0.147954
2.57876
0.857298
1.33729
3.11681
-0.46174
0.421592
0.271271
2.29006
1.5873
1.57578
1.90323
1.08693
0.0560356
0.12101
0.72913
0.387188
-8.5477
2.633
-0.810744
-0.904363
0.04954
-0.457838
0.757809
-0.372618
-0.233635
0.347606
1.59584
1.65195
1.74572
-2.3242
2.25259
2.56125
-2.20925
0.972552
-0.0320961
-0.00979616
0.232785
0.896773
-0.201736
-0.555562
-0.92458
2.85076
-1.27378
1.76579
1.55633
2.0163
1.1451
1.21564
-0.196128
0.0538102
0.876845
0.0125873
-4.85074
-2.05113
0.169975
-0.401487
1.88224
-0.461447
0.0663914
0.321855
-5.67551
-0.400767
-9.35667
1.36783
-0.205961
0.113093
0.740898
-0.715643
0.535562
-2.69013
-0.0273643
1.65543
-0.790952
2.62966
0.0509694
2.81409
0.00616297
0.106514
0.281767
1.34452
1.31008
-3.18103
-0.0573401
-0.319836
0.27108
1.07906
3.13274
2.02307
0.518022
-0.533602
0.810591
-0.325128
1.74751
-0.214717
0.903847
-0.325854
-0.392241
-5.33343
0.527485
0.0559344
-5.57553
1.01379
0.981903
2.53195
2.73183
-8.64227
-5.25953
-0.313498
-1.35825
2.6428
0.110599
-0.690504
0.689934
1.11442
-0.287202
0.143108
0.187619
0.0174281
1.39273
-0.254226
0.428761
0.0677168
-0.939082
-2.69608
-0.386872
-2.77074
-2.37346
1.69138
-0.41235
-0.379852
-0.21609
-0.204777
2.89511
1.1191
1.44032
-0.238831
0.788856
0.00800562
0.631972
0.496205
-0.423508
-7.0762
2.63417
1.63203
0.0223857
-6.31029
3.00802
-0.416627
-5.11615
-0.316721
0.776233
-0.442565
-0.287218
2.27876
-0.0671593
1.41213
0.6318
-0.384754
0.0747227
0.133472
0.773364
-3.03946
0.0657605
0.474221
1.50893
-0.459429
-4.59179
0.0784197
-0.320459
-1.60333
-1.39806
2.82507
1.01417
-0.651622
0.733196
0.42469
2.46929
0.86877
-7.91942
0.918659
1.93689
1.65761
-0.490086
1.35608
-0.179431
2.6117
0.0582192
1.56545
-0.517816
-0.450265
0.0529793
-0.351999
0.899613
0.545651
-8.49444
-0.453532
1.80538
-0.118903
-0.0305103
2.13715
1.21967
2.08041
1.43055
-0.734024
0.0282745
0.0996098
1.51692
0.00092677
1.89562
1.18194
2.59012
-0.412931
2.02553
0.745158
2.62446
-0.379774
-0.849551
2.68054
-0.412617
1.15222
-1.57226
2.29784
2.58206
1.65626
-2.55568
1.52567
1.97876
-0.4459
0.652336
-0.365562
2.11342
-0.410057
-0.221628
-6.41943
-7.42717
1.94324
0.733692
-7.96556
0.803865
2.57786
-0.847098
-0.243081
-8.5813
-0.970365
1.27827
-0.100438
1.4575
1.44017
-8.19239
2.90721
-0.00639476
2.18628
2.16132
0.153398
0.0418689
1.35632
-1.90854
-0.157035
1.34093
1.15355
-0.506149
1.44481
-0.340802
2.2975
1.6577
0.599298
-0.0272369
1.69379
-0.214932
0.925523
2.02307
0.401366
0.0451165
1.96312
1.63746
-0.625724
-5.69395
1.1607
1.71249
2.60888
-5.73962
2.75776
2.74552
2.80402
-0.210784
1.90713
-0.496504
1.5357
2.05004
2.00123
1.69642
2.24427
3.0744
1.32502
-6.09448
0.122151
-6.38406
3.04543
0.835526
-0.169545
-0.450684
1.43065
2.26654
1.47302
0.523073
-0.0475074
2.2528
-2.20759
1.63441
-0.449981
0.72122
0.042351
0.453417
1.00801
-0.435949
-0.459451
-0.202269
-0.308611
-0.172042
1.86963
-0.310994
0.265849
1.43253
-1.88241
0.936652
0.0511323
-1.7872
-0.512519
-6.91765
2.14864
2.31397
-0.410382
0.615842
1.97321
1.78482
0.0365584
-0.601609
1.6757
-7.98907
2.11297
-1.66619
2.05763
0.956732
0.260881
1.91694
1.03783
2.009
0.559118
0.733063
-0.439425
-5.85779
-2.49118
0.0293126
1.97142
-0.764739
-0.320715
-0.782681
2.19507
1.98794
0.54257
1.13987
2.21595
-2.22872
1.46077
0.0706006
-0.518252
1.45724
-0.388511
-1.74224
-1.28578
-9.68395
-0.235846
-0.716737
0.0757089
-5.50043
-6.07978
1.26088
2.64054
2.88995
2.50449
-0.740972
1.65199
-0.614626
1.42353
2.20893
0.241089
1.93602
-0.794145
0.54181
-0.473992
-0.0432396
2.10663
-1.16541
1.73332
-3.22241
-0.348822
-10.4067
1.76886
1.72037
1.52987
-1.19202
1.44994
-0.298996
-8.98763
-9.69102
0.498834
2.65252
-2.95016
-0.23349
-0.45099
1.52018
1.47316
0.00422188
0.975913
-1.96894
2.24841
2.04018
-0.302665
-0.272609
2.19178
-0.379109
-1.2013
0.061557
2.00401
2.25399
-0.431984
1.08144
-0.218218
2.59328
-6.21835
-0.446007
-0.0368143
2.43031
0.0516338
-0.40171
-0.160786
2.08849
1.22465
2.07437
-0.0874289
-2.55965
1.7008
3.00836
-5.68502
1.36927
0.0142316
-7.8615
0.024364
0.564439
-0.46481
1.0543
-0.358378
1.01442
-0.234973
-0.5651
1.89979
2.26942
1.44214
-1.76251
-0.451045
1.76757
-2.17502
0.568587
-0.561629
0.766822
-4.04116
1.64758
1.77327
-0.023122
1.6627
2.55853
-0.226418
1.24043
1.74458
-9.90759
0.943798
-0.480195
0.762041
0.543209
1.20227
0.00968582
0.518876
-0.159568
-3.5068
2.13358
0.60211
0.00891225
-0.390556
-0.141135
1.59216
-3.06257
2.79183
-0.94718
-11.9958
-0.198053
1.95035
1.72816
2.04028
-8.66503
2.45943
-1.07741
1.19828
0.20544
-2.24773
1.41411
0.704014
-0.195184
1.05007
-5.37174
1.23464
-8.48683
-0.397649
0.00215087
-1.53377
-1.79636
1.36374
2.52575
0.136728
-0.536121
1.96384
-1.95136
2.29314
0.679105
0.096363
0.838759
1.53959
0.804544
-0.183815
0.145984
0.0389767
0.391689
0.564463
-2.24247
-0.445076
0.110099
0.888461
-0.253768
3.06879
1.6471
1.52107
2.31355
0.26508
1.71392
-0.79653
-9.10413
-0.445244
1.54017
2.98663
1.42739
-0.972004
2.13841
1.43384
1.45778
0.113293
-0.0192175
0.819743
2.80565
0.113956
-0.573211
2.09188
2.18021
1.60826
1.52072
1.86138
1.08467
-0.334721
-0.531538
1.6799
-5.17634
-5.85404
1.51157
-0.479101
-0.0526597
0.485284
1.65525
1.71575
1.7444
-0.148794
2.03747
2.08428
0.277573
1.83148
1.60319
1.2904
1.14763
1.02339
0.789909
-0.00451043
1.95069
1.81659
-0.655137
1.39121
-0.163555
0.0735832
2.50374
1.88945
0.0143768
-0.49943
-0.39029
1.94419
1.09112
0.297246
0.0404498
0.276939
-0.312758
0.342793
-0.467726
-0.150619
1.11348
-0.203601
-1.22294
-1.42216
2.36016
-0.453051
-4.32338
-0.478925
2.53604
-0.242888
0.302794
0.317929
-7.32759
1.19108
1.43958
0.959033
2.22512
1.23347
0.0824943
-7.94829
-0.483616
0.0377615
1.76982
-0.51013
-0.476334
-6.63401
-0.285097
-4.7365
-0.470889
-2.53683
-0.131922
0.595394
1.50865
1.98382
-0.252998
0.00642101
2.23617
1.70551
-0.42241
-0.262032
-7.05253
0.941273
0.197366
0.837176
1.311
-0.115492
-0.253159
-0.280054
0.415389
-0.940423
-8.70746
0.214223
-0.620429
-9.58713
-7.3266
-0.493639
0.205868
-6.82705
0.784675
-0.470262
1.51083
1.35774
0.413963
1.97318
-0.671526
2.53899
-0.472863
0.132628
-1.2486
1.52102
0.931193
-5.57457
-8.02251
1.55859
1.84593
2.63545
-0.519077
-9.13697
-0.630602
-0.106652
0.00820391
-1.31591
0.541599
-4.45653
0.912056
-0.550692
1.15719
0.13738
-0.0259299
2.30212
1.35723
-1.21012
0.0352753
-1.62312
-6.72384
1.97948
2.89167
-4.26442
1.86702
1.4634
0.0050454
-0.268163
1.922
1.84092
-2.73167
-0.23427
-0.461966
-0.69629
-1.19122
-2.96528
-1.11587
0.996363
-0.206645
1.68435
-0.946963
-7.23068
1.42898
-1.10874
-6.71017
0.10932
1.15295
-7.74937
-0.602737
-7.64594
-0.828441
-5.80327
2.67551
-8.8346
-0.208991
-0.628098
1.67188
-10.8841
-0.210103
-2.0391
-1.48738
-0.471357
1.72976
0.0216168
-1.4687
1.33711
0.0102027
-0.406358
-2.09115
-1.78621
1.08368
1.25629
1.53802
-9.71596
2.27902
-0.323342
0.0055611
0.148671
-2.54633
-0.553259
-1.63976
-0.87088
0.278263
0.680817
0.105435
-0.311513
-0.906245
1.43271
-1.10347
1.61071
-1.65933
0.977976
-0.221552
-0.14807
-0.412787
3.05213
-0.336877
-8.85354
-5.38487
-0.741116
1.53411
0.0975991
-0.61895
0.0824419
-6.23948
-0.494559
-5.95629
-2.73776
1.66271
-3.74297
0.257187
-7.60841
0.00944873
1.34665
0.150301
0.678172
-0.417999
2.00215
-9.29378
-0.561113
2.1428
0.616419
-9.87986
-0.30738
-1.7577
-0.821712
-0.345441
1.9598
-0.417038
0.65402
-8.04003
-1.66017
-2.3549
-3.12155
-4.99394
0.892821
-0.218033
1.51687
0.577109
-1.26202
-0.232669
-0.600909
1.88518
2.25971
-8.13321
0.0761305
1.63898
1.51128
1.194
-0.706184
-1.22795
-1.32592
1.53784
0.470059
-0.78755
-2.18923
0.869478
1.81376
-0.244034
-0.172497
0.100384
2.11931
-1.58699
-1.76261
0.064682
1.31948
0.0778713
-0.326723
2.29415
1.90005
0.0956377
-0.749455
1.93498
0.769218
-0.0791911
1.40281
-0.318977
-0.957241
-1.54066
-0.764789
1.86026
1.6262
-0.0504657
-0.552839
-0.447637
-0.0656319
1.6689
-0.730131
1.14153
2.01707
2.15835
-0.297954
1.55114
1.3448
1.68966
1.79237
-0.168197
1.80474
0.00692633
1.53199
0.829323
1.6612
-0.442773
1.92158
1.83316
1.38521
1.00042
-0.503124
1.08044
0.114081
-0.645132
2.06362
2.04544
-0.574158
1.79449
-0.77186
-5.49719
1.65543
1.66226
-1.72428
-0.0344631
-9.10425
-0.688959
-1.41315
-0.396941
-1.69196
-0.398265
1.40024
2.79689
1.92143
-0.271872
-0.341264
1.62354
0.828984
-0.250078
-0.927672
-0.434696
-1.7751
-5.67514
-5.80624
1.46596
-0.239171
0.791552
0.0511579
0.0488453
-0.264103
0.0474048
0.301252
0.784231
1.02475
-0.4531
0.703072
-2.20809
-0.936567
1.06832
0.858467
-0.0347636
0.200673
1.0067
0.0146698
0.593888
-0.503749
1.52782
1.28225
2.43161
1.53653
-0.683291
-0.375869
-0.540748
-0.405786
0.0375923
0.0686391
-0.123663
-0.59306
2.8554
0.200447
-0.074071
2.25716
-0.45907
-0.986839
-0.27881
-0.454224
-10.4805
0.434555
-1.29599
1.48598
-0.172304
-0.630681
-1.31895
-0.336254
-0.837244
-0.198426
0.155731
1.19492
-0.424132
-0.412592
-1.41225
0.599748
-0.837565
1.65203
2.31415
-0.391904
1.68478
0.874246
1.11596
2.56432
-0.465663
0.934337
0.812429
0.73638
2.18476
-0.478398
-0.102736
-0.193614
1.6299
2.31085
-0.409013
-0.01195
-0.808795
-0.704908
0.801719
-0.541506
-1.8756
-0.429834
0.605632
-7.49327
0.405213
0.481068
1.33995
0.331515
-5.68042
0.0976824
0.0517057
-0.187954
2.47108
2.78095
2.05282
2.95825
1.35004
0.960017
1.71874
1.48842
1.38269
-0.646484
1.57273
-0.334935
-5.84737
2.2654
-0.17572
-0.879303
2.6625
0.0746418
-0.680476
0.834245
0.730289
1.86729
-5.04382
1.41909
2.45683
-0.464985
-5.44759
-1.68071
1.09329
-0.537846
1.96365
-0.0786557
1.87009
1.52094
-0.427517
1.79201
-0.555069
-7.02709
-6.11765
-0.495511
1.84352
-0.748419
1.57154