/*--------------------------------*- C++ -*----------------------------------*\
| =========                 |                                                 |
| \\      /  F ield         | OpenFOAM: The Open Source CFD Toolbox           |
|  \\    /   O peration     | Version:  2306                                  |
|   \\  /    A nd           | Website:  www.openfoam.com                      |
|    \\/     M anipulation  |                                                 |
\*---------------------------------------------------------------------------*/
FoamFile
{
    version     2.0;
    format      ascii;
    arch        "LSB;label=32;scalar=64";
    class       surfaceScalarField;
    location    "2.8";
    object      phi;
}
// * * * * * * * * * * * * * * * * * * * * * * * * * * * * * * * * * * * * * //

dimensions      [0 3 -1 0 0 0 0];

oriented        oriented;

internalField   nonuniform List<scalar> 
20045
(
0.254777
-0.284915
0.0301381
-0.546436
0.201543
0.344893
0.144121
0.85715
-1.00127
0.0717554
-0.0969408
0.0251855
-0.434125
0.422827
0.0112987
-0.267383
1.06881
-0.801425
-0.524206
0.225939
0.298267
0.0358719
0.224007
-0.259879
0.240091
0.219614
-0.459705
-0.397002
-0.0766624
0.473664
0.140621
0.185943
-0.326564
1.08509
-0.561394
-0.523691
0.194523
-0.192239
-0.00228442
-0.643558
0.516117
0.127441
-0.167572
0.547568
-0.379995
-0.547197
0.150195
0.0126411
0.234308
-0.246949
0.43329
-0.375336
-0.0579542
-0.84024
1.22645
-0.386212
-0.37747
0.0127391
0.364731
0.221681
-0.208031
-0.0136503
0.0691389
0.125385
-0.0764244
-0.470012
0.267289
0.355177
-0.622466
0.429084
0.0831805
-0.512265
-0.38808
0.655369
-0.0738294
0.0586802
0.0151492
-0.526373
1.02902
-0.502642
0.883823
0.111933
-0.995756
-0.991773
0.588835
0.402938
-0.0674351
-0.197266
0.264701
0.750949
-0.537261
-0.213688
-0.393157
0.676901
-0.283743
1.08672
-0.631316
-0.455401
-0.288669
0.324541
1.11936
-0.554917
-0.564444
0.72944
0.134299
-0.863739
-0.0317114
0.194966
-0.163255
-1.04437
0.406211
0.638155
0.313413
0.256596
-0.570009
0.0267192
0.206704
-0.233424
0.0686217
-0.099904
0.0312824
1.08167
-1.08581
0.00413978
0.743487
-0.26168
-0.481806
0.333567
0.409919
0.537109
0.547976
0.329896
-0.24454
-0.0853559
0.623224
0.29366
-0.916884
0.948884
-0.219444
0.0582712
0.86119
-0.919462
0.652109
-1.10216
0.450051
0.947357
-0.701912
-0.245445
-0.498778
-0.518833
1.01761
-0.0444587
-0.16073
0.205189
0.444316
-0.134929
-0.309387
-0.358409
-0.0757161
0.0641554
0.718262
-0.782418
0.853584
0.0371153
-0.890699
0.35393
-0.747088
1.06794
-0.741332
-0.326611
0.102167
0.190349
-0.292516
0.409084
0.65886
0.501085
-0.876778
0.375693
0.187737
0.0339438
0.296747
0.143682
-0.440429
0.821437
0.139825
-0.961262
-0.0266267
0.101418
-0.0747915
-0.33962
0.0673797
0.27224
0.436959
-0.196868
0.959101
-0.975702
0.0166018
-0.0595739
0.0329472
-0.00910749
0.453423
-0.138018
-0.517787
0.655805
0.0805022
-0.0922882
0.011786
0.903438
-0.135262
-0.768175
0.696069
-0.631913
-0.0550587
0.958497
0.225308
-0.39288
-0.274094
0.389624
-0.11553
0.333708
-0.625828
0.29212
0.519125
0.602293
-1.12142
0.454548
-0.3654
-0.0891489
0.73764
-0.236555
-1.07925
0.18748
0.891773
0.00215378
0.252623
-0.251626
0.309415
-0.0577889
0.605752
-0.764841
0.159089
-0.800501
0.0345337
0.765968
0.526299
0.0714246
-0.597723
-0.442779
0.386259
0.0565206
-0.792758
-0.0847778
0.877536
0.375354
-0.0647602
-0.310593
0.205636
-0.304444
0.098808
-0.0935511
-0.405112
0.498663
0.30824
-0.325164
0.0169244
0.743891
0.204229
-0.94812
-0.0150612
-0.0587681
0.0143309
-0.144767
0.130437
0.621519
-0.308106
-0.0576465
0.255792
-0.198146
0.758576
0.360786
-0.259081
-0.384477
-0.179981
0.194312
-0.147013
1.0006
0.0197916
-0.271417
-0.262964
0.205318
0.223927
0.607773
-0.8317
0.644121
-0.948587
0.304466
0.055802
-0.21823
0.19023
0.028
-0.103241
0.131972
-0.028731
0.646927
-0.47074
-0.176188
-0.257521
0.213062
0.670208
-1.06024
0.390029
-0.102293
0.172063
-0.06977
0.0236519
-0.128024
0.104372
0.576481
-0.147396
0.813036
0.273681
-0.595315
0.457297
0.695634
-1.02574
0.330102
0.36734
0.0659501
0.254693
-0.152526
-0.402047
0.329415
0.0726319
-0.400245
0.0489253
-0.303611
0.254686
0.683411
0.263947
0.570937
-0.728464
0.157527
0.81326
0.0820832
-0.895343
-1.0095
0.791293
0.218206
-0.248123
-0.280647
0.52877
1.00616
-0.322747
-0.391964
0.147424
0.268278
-0.197561
-0.0707169
-0.0156244
-0.0120368
0.0276613
0.569674
0.402532
-0.972206
0.614333
-0.581964
-0.0323684
-0.172787
0.0876779
0.085109
-0.156517
-0.0617134
1.14611
-0.45048
-0.335339
0.359388
-0.0240485
0.58964
-0.960811
0.371171
0.29095
-0.789728
0.541502
0.275647
-0.817148
0.680422
-0.346714
0.978591
-0.133486
-0.845105
0.0956499
-0.592458
0.496808
0.968432
-0.735448
-0.232985
-0.14125
0.225536
-0.0842856
0.0214163
0.938954
-0.96037
1.06736
-0.18354
-0.826462
0.0257382
0.800724
-0.491255
0.428694
0.0625612
1.02107
-0.501942
0.15679
0.297758
-0.63664
0.770702
-0.134062
-0.689885
0.834006
0.0111088
-0.160454
0.149345
0.0658303
-0.0855895
0.0197592
-0.015724
-0.196398
0.212122
0.879224
-0.0410371
-0.838187
1.24619
-0.611539
-0.634654
-0.230244
0.21452
0.371527
-0.740599
0.369072
0.0808239
-0.0122023
-0.848926
-0.501424
0.664987
-0.163563
-0.659718
0.510931
0.148787
-0.0104587
-0.0351246
0.0455833
0.298833
0.669599
-0.0462666
0.0306422
0.0853028
0.182976
-0.699045
0.0624049
-0.742133
0.93335
-0.191217
-0.674286
0.769699
-0.0954134
-0.61187
-0.421021
1.03289
0.0304007
-0.260975
0.230574
0.423133
-0.486027
0.0628944
0.706823
0.142479
-0.849303
0.0147739
-0.766275
0.751501
-0.41054
0.952041
0.206984
-0.559511
0.352526
-0.388057
1.05827
-0.84378
0.564541
0.279239
-0.0718624
0.0805274
-0.00866502
0.373208
-1.04323
0.670023
-0.841113
0.314739
-0.618953
-0.397464
0.940308
-0.596927
-0.34338
-0.276759
0.303478
0.128886
-0.13623
0.00734391
-0.775401
-0.203567
0.978968
-0.776736
1.09313
-0.316392
0.973071
-0.668566
-0.304505
0.0579021
-0.240103
0.182201
-0.219459
-0.530303
0.749762
-0.147792
0.288413
-0.446805
0.198682
-0.641894
-0.211523
0.853417
0.0931013
0.0258593
-0.118961
0.0813673
-0.582792
0.177782
-0.245217
0.85909
-0.0458305
-0.146273
0.114561
-0.136507
0.166379
-0.029872
-0.134372
1.0136
-0.786233
0.566774
0.31074
0.00365317
-0.314393
-0.701959
0.140522
0.561437
0.342028
0.631044
1.09568
-0.722472
0.667442
-1.08075
0.413305
0.259831
-0.655947
0.396116
0.0424364
-0.419907
-0.488284
0.712211
0.654181
-0.921564
0.187254
-0.642121
0.454867
-1.07685
0.580484
0.496368
-0.0448583
-0.397921
0.181373
0.154216
-0.335589
0.644243
-0.142342
-0.501901
0.268433
-0.644222
0.665638
-0.263088
-0.0722515
0.604299
0.964935
-0.910944
-0.0539911
-0.0116589
-0.134286
0.145945
0.67462
0.0734877
-0.748107
0.17516
0.13686
-0.31202
-0.0287894
0.576183
-0.547394
-0.197874
0.803626
0.580623
-0.373639
-0.0606323
0.163021
-0.102388
0.794993
-0.205353
0.0959258
-0.00781422
-0.0881116
0.177835
0.0594207
-0.237255
-0.108228
0.112144
-0.0039159
0.946824
-0.623851
-0.322973
0.230094
-1.00683
-0.118163
0.00993537
-0.875641
0.2711
0.604541
0.934061
-0.257161
0.238173
-0.980306
1.23809
-0.584697
-0.653396
-0.0121946
0.105296
0.929135
-0.381232
-0.547903
-0.613041
0.135413
0.477628
-0.970752
0.973109
-0.0023574
0.283704
-0.708343
0.424639
-0.0664235
0.0221543
0.0442692
-0.473504
0.62301
-0.149506
0.0335459
-0.196372
0.162826
-0.157348
0.0550548
-0.119889
0.0166475
-0.665603
-0.282984
0.501468
-0.750847
0.24938
0.200937
-0.285888
0.0849515
0.440292
0.310656
0.552657
-0.365404
0.0134744
0.0523559
0.573407
0.360655
-0.504743
0.0211289
0.483614
0.293034
0.636101
0.393628
0.153939
0.273958
-0.0730213
-0.29393
-0.0210201
0.31495
0.0106772
-0.0825396
-0.619321
0.590531
-0.220559
0.304852
-0.0842932
-0.897094
0.854378
0.0427153
-0.260174
0.291791
-0.0316162
-0.197917
-0.12778
0.325697
0.765125
-0.831951
0.0668259
-0.630161
-0.446691
1.21715
-0.849518
-0.367632
-0.098227
0.0865681
0.786583
-0.502879
-0.29123
0.792697
-0.0682785
-0.256408
0.324686
0.865224
-0.106968
-0.758256
0.987848
-0.147066
-0.840782
-0.360145
0.291867
0.841026
-0.488916
-0.35211
-0.156248
0.781114
-0.624866
0.44447
-0.608016
0.163546
-0.143573
-0.0831629
0.226736
0.129148
0.0531275
-0.182275
1.09483
-0.846217
-0.248615
-0.544167
-0.465332
0.789681
0.175254
-0.813781
-0.0833129
-0.0566598
0.234494
0.220088
-0.839149
0.619061
0.00411327
0.124772
-0.54026
1.10993
0.338879
0.607945
1.02502
-0.653653
-0.371365
-0.778309
0.566786
0.760543
-1.13141
0.370866
-0.628217
-0.0378213
0.666038
-0.240087
-0.181118
0.421205
0.65654
-0.285013
0.0309589
0.279781
0.2524
-0.0400863
-0.497175
-0.709459
1.00756
-0.298105
-0.156712
0.0202049
-0.0611891
0.000556835
0.11664
-1.08739
0.619143
-0.817017
0.173483
-0.248737
0.352644
-0.103907
-0.00254768
0.0743031
-0.518117
0.351634
0.166484
0.362544
0.284383
-0.216134
0.420221
-0.204088
0.495284
0.119049
-0.626564
0.846651
0.579698
-0.0533994
-0.207376
-0.494583
0.964386
-0.664901
-0.299485
0.955735
-0.956128
0.336049
0.62008
0.801421
-0.863327
0.0619059
-0.447846
0.354295
-0.127793
-0.0449937
-0.153707
-0.639051
0.289709
-0.555353
0.265644
0.429015
0.412011
0.712349
-1.00848
0.296128
0.229937
-0.549329
0.319392
-0.969237
0.168736
0.00982816
0.365525
-0.651105
0.955085
-0.30398
-0.247484
0.31461
-0.0671263
-0.417619
-0.106587
-0.135644
-0.228226
0.363871
0.0920105
0.00070085
-0.0927114
-0.339285
-0.15197
0.365099
0.459931
-0.82503
0.88872
-0.595686
0.345065
-0.452249
0.00440275
0.474103
-0.244166
-0.682803
-0.160977
-0.13281
0.164953
-0.0321427
0.972145
-0.348922
-0.46198
0.7608
-0.29882
-0.12526
0.147792
-0.0225321
0.734979
-0.0907368
-0.280367
-0.558781
-0.509104
0.931082
-0.421978
0.659046
-1.03799
0.378946
0.468389
0.748762
0.0348674
0.00826459
-0.043132
0.084941
-0.713158
0.682439
-1.0412
0.358765
0.0935737
-0.0130715
-0.0734098
0.644347
-0.134884
0.754027
-0.391722
0.651553
0.194927
-1.03517
-0.952685
0.579705
0.37298
0.642577
-0.102698
-0.539879
0.941024
-0.175899
-0.411289
-0.539271
-0.484062
0.401168
0.250393
-0.422595
0.172202
0.320784
-0.308045
-0.723504
0.650094
0.863688
0.217984
-0.795383
0.333403
0.951972
-0.162292
0.145261
-0.197726
0.0524651
-0.0235675
-0.58945
0.613018
-0.899991
0.168202
0.731789
0.734734
-0.734734
-0.301294
0.899751
-0.598457
0.278683
-0.494816
0.645343
-0.424664
-0.220679
-0.925118
0.957284
-0.0321652
0.348568
-0.0475885
-0.30098
0.272154
-0.104742
-0.167412
0.12398
-0.321897
-0.141571
0.524207
-0.815436
-0.828954
0.971799
-0.142844
-0.292201
0.6573
-0.169407
-0.0445077
0.213915
-0.133371
0.227326
-0.0939551
-0.377045
0.419481
0.962845
-0.763331
-0.199515
-0.104567
-0.50886
0.613427
-0.244971
0.26023
-0.0152592
0.135973
-0.283171
0.147198
-1.06487
0.451503
0.613369
-0.0722139
-0.0247269
0.201224
-0.0559628
0.0618041
0.223636
-0.28544
0.4421
0.652732
-0.258472
0.0890646
-0.0805365
-0.269619
0.350155
-0.487923
0.787231
-0.299309
-0.00819493
0.0806132
-0.0724182
0.443842
-0.217903
0.752729
0.065311
-0.81804
0.0201498
-0.425261
0.00053709
0.706286
0.431077
0.303807
-0.734884
0.475311
-0.412013
-0.0632982
-1.01411
0.187652
-0.424508
0.202367
0.222141
0.362105
0.510149
-0.872254
-0.626105
0.588284
0.0486842
-0.915945
0.867261
-0.140154
0.198056
-0.07024
0.0777488
-0.00750877
0.0217789
-0.315709
-0.227731
0.22924
-0.00150843
-0.684149
-0.191492
0.622547
0.153139
0.0588322
-0.211971
-0.135157
0.00989692
0.152119
-0.706485
0.554366
0.170235
0.542126
-0.71236
0.286655
-0.710486
0.857161
-0.146676
-0.714739
0.558491
-0.0114451
0.0701253
-0.410423
-0.249296
-0.267434
0.0638487
0.203585
-0.861002
0.373079
0.656697
-0.761264
0.231356
0.720616
-0.307442
0.311792
-0.00435003
0.275162
-0.760931
0.485769
0.162638
-0.276097
0.113459
0.544448
-0.824815
-0.64847
-0.0258159
-0.323822
-0.0157978
-0.0084864
0.112553
-0.104066
0.332685
0.0240604
-0.0498483
0.0257879
0.813266
-0.451161
-0.77984
0.945143
-0.165304
0.259769
0.1943
-0.454069
-0.370615
0.230461
-0.230472
-0.0369619
0.325154
0.320188
-0.273538
-0.752199
-0.159364
0.0265538
0.61205
0.412006
0.167692
-0.824484
0.882755
0.0496449
-0.423084
0.373439
-0.0883485
-0.827713
0.916062
0.0715167
-0.0737287
0.002212
0.300889
-0.270488
-0.170546
0.615016
0.660044
-0.564394
-0.40785
-0.110267
-0.00182855
-0.412886
0.414714
0.404522
-1.01639
-0.0836189
-0.487705
0.571324
0.0346811
-0.160507
0.125825
-0.65657
0.0534702
0.6031
0.960665
-0.667005
-0.0110029
0.0912112
-0.0802083
-0.220758
-0.0242126
0.190609
0.355027
-0.545636
0.100512
-0.127132
0.0266193
0.653523
0.377056
-1.03058
-0.402901
1.14679
0.0879667
0.00404386
-0.249608
-0.575916
0.825524
0.415477
0.730637
0.856264
-0.686029
-0.362071
0.226426
0.222752
-0.0936038
-0.324433
1.08498
0.140224
-0.770592
0.630369
0.947895
-0.139404
-0.808491
-0.407585
0.691733
-0.284147
0.398887
-0.287106
-0.506234
0.793341
-0.31055
0.26481
0.0457403
-0.286278
-0.484463
0.770741
0.0855537
-0.218925
0.0430498
-0.0535084
0.505399
-0.791677
-0.707198
-0.209696
0.916894
-0.0627767
-0.480169
0.542946
0.0129832
1.09873
-1.13631
0.0375762
0.218108
-0.13814
-0.0799673
0.0079726
-0.315415
0.256888
0.241775
-0.324098
0.0840114
-0.796296
0.999937
-0.203641
0.0372871
-0.257846
0.450891
0.22953
-0.832892
-0.25292
0.10838
0.12694
-0.23532
0.542022
-0.130016
-0.203187
0.224261
-0.0210746
-0.172463
0.206009
-1.15696
0.538003
0.904526
0.164282
-0.119797
0.255769
-0.211388
0.471157
0.808296
-0.28409
-0.211433
0.00824676
-0.0989051
-0.624599
0.257401
0.215132
-0.204023
-0.915814
0.0158231
-0.142429
0.216498
-0.0538607
-1.01185
0.623485
0.388365
0.799771
0.15933
0.200215
-0.0691763
-0.131038
0.284185
-0.266963
-0.0172226
-0.866148
0.311232
-1.03014
0.521034
-0.299502
0.238428
0.0610735
0.0120284
-0.0665306
0.0545023
1.04049
-0.005483
-1.035
0.147516
0.00823311
-0.155749
-0.135291
-0.266756
0.23422
-0.028584
-0.0522111
0.0490992
0.00311191
0.396816
-0.0613308
-0.335485
-0.00975212
-0.042459
0.84821
-0.643981
-0.0271962
-0.150327
0.177523
-1.0093
0.213001
0.0102874
0.0457236
-0.225705
-0.133512
0.28665
0.0134596
1.48259e-05
0.252318
0.157028
-0.409345
0.410731
-0.113984
0.401567
-0.351922
0.197959
-0.174307
0.0768406
-0.324325
0.643289
-0.145898
-0.497391
0.533824
-0.036568
-0.497256
-0.505634
-0.0868237
0.15997
0.0225303
-0.182501
0.360042
-0.443325
0.0832829
1.10457
-0.0398235
-1.06475
0.156962
-0.0146944
-0.142268
-0.491522
0.66655
-0.175028
0.465388
0.559247
-1.02463
-0.0825088
0.272858
-0.266654
0.439396
-0.172743
0.225549
0.0908861
-0.316436
-0.819495
0.40275
0.416746
0.0446854
0.00441379
-0.846839
0.139641
0.312328
-0.185766
-0.126562
0.469242
-0.613818
0.144576
-0.0922979
-0.192617
0.150087
0.948647
0.825546
-0.139579
-0.685967
-0.832835
0.122349
0.336654
-0.544031
0.663346
-1.07636
0.413012
-0.1072
0.288573
0.0198061
-0.400647
0.32011
-0.166006
0.214932
-0.112108
-0.762015
0.874122
0.379304
0.407279
-0.735043
0.775706
-0.0406637
-0.121554
0.113067
-0.663021
-0.246635
-0.118218
0.1329
-0.014682
0.158645
-0.342723
0.184078
0.02939
0.0203158
-0.0497058
-0.0932022
0.562444
-0.706082
-0.245292
0.951375
-0.757824
-0.238276
0.9961
0.473216
-0.368551
-0.104665
-0.17352
0.019842
0.153678
0.122501
-0.0950318
-0.027469
-0.967681
0.0403402
0.927341
0.021932
0.195403
-0.217335
0.793571
-0.885837
0.0922664
-0.494041
0.386257
0.157843
-0.5441
0.0138078
-0.132026
-0.250479
-0.337322
0.587801
0.628264
-1.01632
-0.94875
0.824273
0.124477
0.116661
-0.0161486
0.685289
-0.234398
-0.0708877
-0.221912
0.292799
-0.0086556
0.127561
-0.118905
-0.279799
0.836173
-0.556374
0.838053
-0.727084
-0.110969
1.02322
-0.964492
-0.0587275
0.789222
-0.365766
-0.423455
0.039834
-0.22986
0.190026
-0.295984
-0.00762692
-0.955365
0.842229
0.113136
0.0523126
-1.00768
-0.0352477
0.762369
-0.727121
-0.55319
-0.293026
0.198491
-0.167573
-0.030918
-0.789995
-0.219301
-0.187621
0.127581
0.0600397
0.284378
-0.109217
-0.900823
0.854325
0.0464981
-0.212625
-0.0033182
-0.08897
0.159305
-0.0117886
-0.594541
0.121037
0.144522
-0.166939
0.0224169
-0.380575
0.370208
0.0103671
0.364874
-0.016305
-0.25962
0.570879
0.164101
0.361329
0.0421225
0.315329
-0.357451
-0.137194
0.560327
-0.622775
0.392314
0.230461
0.0566094
-0.011924
0.78592
-0.406616
0.627043
-0.351881
-0.204781
-0.194036
0.398817
0.274752
-0.739785
0.465033
0.551619
-0.614396
0.98333
-0.425409
-0.557922
-0.00397825
-0.517221
-0.105554
-0.739358
0.995614
-0.256256
-0.0377559
-0.242847
0.910288
-1.05695
0.266951
-0.235619
0.0920459
-0.134393
-0.154584
0.115211
-0.00306742
-0.490158
-0.517221
1.1345
-0.438433
0.204689
-0.2313
0.026611
0.0587112
0.213443
-0.662459
-0.354047
1.01651
0.258444
0.398096
-0.00620454
-0.144459
0.150664
0.820311
0.103675
0.00888915
-0.112565
0.509621
0.133668
-0.364306
-0.99681
0.167855
-0.211179
0.0094603
0.201719
0.565762
0.672332
0.240612
0.106859
-0.34747
0.969211
0.054008
0.586725
-0.840215
0.25349
-0.828592
-0.000198474
0.82879
-0.771971
1.00236
-0.230389
0.141219
-0.00714289
-0.134076
-0.37616
1.00442
0.0517722
0.264189
-0.315961
0.0325654
-0.767608
0.230896
-0.0296584
-0.201237
-0.905454
1.16871
-0.263254
-0.247619
0.546331
-0.298712
1.1606
-0.510586
-0.650018
0.00633263
-0.606183
0.59985
0.0719482
0.00580064
-0.440993
0.906381
0.563137
-0.864431
0.99195
-0.332904
-0.184764
0.157567
-0.855363
0.0267716
1.06351
-0.351163
-0.0105413
-1.06871
0.229691
-0.0229868
0.256505
0.565744
-0.822249
0.554726
-0.130891
-0.423835
0.640264
-0.97026
0.329996
-0.128523
0.00964056
0.118882
-0.207314
-0.468751
0.676065
0.352329
-0.275489
-0.473324
0.0560451
0.417279
0.157728
0.258315
-0.416043
0.077607
0.120884
-0.840809
0.9999
-0.159091
0.0637968
0.00771998
0.438543
0.207071
-0.645614
0.42854
0.37348
-0.802019
0.154788
0.487789
-0.0121958
0.990787
0.000385837
0.786172
-0.786558
-0.0016977
-0.00649723
-0.00435063
0.0916656
-0.087315
0.655312
-0.564213
-0.0910992
0.443077
0.540253
0.291819
-0.24601
-0.0458094
-0.278012
0.798604
-0.520592
0.00667741
0.163537
-0.170214
0.294443
-0.673796
0.379353
-0.501727
-0.16372
0.665447
0.781796
-0.107176
0.294093
0.260633
-0.246643
0.0211433
0.2255
0.296357
-0.805217
-0.0121043
0.232325
-0.22022
0.186802
-0.0647822
-0.12202
0.00359614
0.068352
-0.0806097
0.705028
-0.624418
-0.106754
0.967945
0.762513
-0.617977
-0.144537
0.615432
-0.544008
-0.530706
0.184391
0.346316
-0.00751058
-0.417154
-0.205392
0.163462
0.0419297
0.0636259
0.136589
0.138519
0.733356
-0.871875
0.210121
0.186694
0.119198
-0.877022
-0.435719
0.177092
0.258626
-0.316161
-0.244009
0.560171
0.480125
-0.227808
-0.842658
0.550457
0.343178
-0.288651
-0.0545267
-0.536176
0.79019
-0.254014
-0.429154
0.449304
-0.437081
0.563611
-0.12653
-0.682889
0.942851
-0.259962
-0.0211731
0.20063
-0.179457
0.111911
-0.0998828
-0.347677
-0.64207
0.976489
-0.334419
-0.533946
0.674468
0.505902
-0.514355
0.00845234
-0.0541445
-0.219145
0.27329
-1.03771
0.743549
0.294156
0.0052981
-0.0677551
0.062457
-0.0176545
0.54528
-0.825079
0.68419
-0.409438
-0.35093
-0.601755
-0.697951
0.698337
0.487357
0.023574
0.341997
0.171203
-0.513201
-0.327701
0.306838
0.0208637
0.335228
-0.287986
-0.0472414
0.149706
-0.424638
0.274933
-0.197646
0.421255
-0.223608
-0.758073
-0.178468
0.936541
0.201239
-0.255383
0.483734
0.171578
-0.947554
0.708837
0.238718
0.252504
0.0272957
-0.2798
0.00344921
0.183714
-0.232925
0.0492104
-0.649395
-0.300399
0.450105
0.135014
0.199263
-0.159429
0.309296
-0.150651
0.213901
-0.494549
0.0336423
0.274598
-0.171706
-0.0959715
0.267678
-0.566721
-0.432486
0.999207
-0.0607077
-0.185935
-0.517725
-0.067759
0.585484
0.132643
0.177435
-0.310078
-0.0187307
1.12831
-0.73621
-0.392102
0.1822
0.643346
0.0237227
0.43778
-0.386153
-0.0516271
-0.266621
0.683168
-0.416547
-0.569749
-0.215026
0.784775
-0.451258
0.184604
-0.392666
-0.138041
1.01384
-0.448638
-0.565206
-0.239838
0.0213059
0.218532
0.371342
0.0673952
-0.438737
-0.169768
0.1917
-0.197842
0.485339
-0.287498
-0.033384
-0.0213926
-0.208851
-0.00714067
0.561509
0.452335
-0.499825
0.906036
-0.281954
0.870788
-0.243735
0.00389683
-0.831142
0.261393
0.70937
-0.624429
-0.110014
-0.626675
0.135153
0.688077
-0.723325
0.680162
-0.703729
0.822753
-0.0213325
-0.188335
-0.11611
-0.256432
-0.0941594
0.350592
-0.295983
-0.0291818
0.718024
0.131905
-0.849929
0.0143758
-0.246346
0.23197
0.00676086
0.356139
-0.969041
0.612903
0.854742
-0.0611714
-0.896957
0.915841
-0.0188832
0.207057
-0.139678
-0.942071
-0.0956344
-0.32732
0.873379
-0.0311507
0.27212
1.05876
-0.41445
-0.644309
-0.599598
-0.0605735
0.660171
0.0802353
0.508182
-0.588417
-0.693943
0.0373724
-0.181366
-0.123381
0.304747
-0.463659
0.603882
0.142056
0.507845
-0.649901
-0.635009
-0.0155479
0.650557
-0.895781
0.0789683
0.816812
0.163547
0.520643
-0.225766
0.499549
0.289672
-0.270947
-0.15356
0.716082
-0.849568
0.057485
-0.355696
0.298211
-0.316727
0.234218
0.668793
0.0342287
-0.703022
0.597812
-0.879765
-0.00349734
-0.0629261
-0.334839
0.761927
-0.427088
-0.574119
0.32364
-0.0140987
0.271145
-0.257046
0.25029
-0.161721
-0.0885694
0.248513
0.0523757
-0.249866
0.586521
-0.0538589
-0.245643
-0.150293
0.164101
0.361208
-0.224349
-0.00904851
0.0312028
-0.181042
0.174789
0.00625322
0.202113
-0.223763
0.0216506
-0.706897
0.571635
0.101912
-0.619638
-0.0117758
-0.264983
0.0302714
0.528913
-0.559184
0.315947
-0.336968
0.330162
-0.739801
0.409639
-0.418663
0.696283
-0.27762
0.257229
-0.966689
0.0776348
-0.0248622
-0.923888
0.436794
0.697708
-0.730987
-0.111671
-0.660501
-0.295627
-0.404572
0.176346
-0.00859248
0.0910556
-0.0824631
1.10788
-0.542115
0.913234
-0.230794
-0.223253
-0.152734
0.375986
-0.967517
0.378975
0.588542
0.316866
-0.130923
-0.141034
0.527291
0.157273
-0.0881344
-0.239031
0.289894
-0.238121
-0.224974
0.374846
-0.149872
-0.103484
0.821508
0.178148
-0.228272
0.0501247
0.880496
-1.20278
0.567925
0.63486
0.230566
0.19545
-0.426016
0.44333
-0.4876
0.0442704
-0.512862
0.265243
-0.303122
-0.00755264
0.378894
0.884528
-0.972876
0.397071
-0.171522
-0.379521
0.675878
-1.00381
0.712042
0.29177
0.326943
-0.710352
0.383408
-0.687178
0.724776
-0.0375984
0.384797
-0.521991
0.0139243
0.21425
0.258966
-0.0239576
-0.601871
0.199621
-0.894267
0.362085
0.532183
0.239706
-0.839304
0.734026
-0.0406664
-0.572375
0.140079
0.289728
1.01607
-0.338629
-0.677443
-0.384443
0.259777
-0.575939
0.151199
-0.933354
0.872781
-0.673797
0.38669
0.469692
-0.780071
0.658802
0.121269
-0.914178
0.607632
0.306545
-0.318084
-0.113371
0.148053
-0.965705
0.682367
0.283338
0.611468
-0.987628
-0.827179
-0.0136291
1.06687
-0.403521
0.203339
0.351564
-0.554903
-0.0205688
-0.129425
0.149994
0.108974
0.481796
0.527788
-0.743081
-0.0369896
0.160685
0.191644
0.218962
0.340398
-0.55936
0.368469
-0.214254
-0.0588301
-1.00326
1.06209
-0.332947
0.383438
-0.793978
-0.56124
-0.389653
0.950892
0.242473
-0.307233
-0.658303
0.213044
0.445259
-0.0020121
0.0147126
-0.0127005
0.810552
-0.92266
0.42821
-0.763049
0.464002
0.223612
-0.687613
0.241215
-0.036526
-0.782373
0.225908
0.556466
-0.69707
0.195343
0.412672
-0.679293
0.394968
-0.337483
-0.000977382
-0.00103471
-0.0399908
0.987885
-0.589879
0.728654
-0.138775
0.953341
0.00132281
-0.954664
-0.735883
-0.00337815
-0.245359
0.0642386
0.670495
0.118978
0.0288143
0.00964803
-0.100359
0.379042
0.484501
0.0924638
0.242764
-0.832893
-0.0679303
-0.87373
0.427784
-0.809016
0.170761
0.177091
-0.347852
0.855004
0.0515561
-0.90656
-0.100588
0.0934451
-0.322878
-0.707261
-0.751669
-0.111658
-0.305949
0.903761
-0.316096
0.441395
-0.125299
-0.823139
0.256418
-0.266427
0.485389
-0.405161
-0.606689
-0.246089
-0.282283
0.345177
-0.453994
0.0734196
1.00444
-0.131064
0.526524
-0.511785
-0.0147394
0.0886484
0.0743721
0.247563
0.98514
-0.936456
0.00115965
-0.210132
0.30894
-0.474663
0.495792
-0.434641
-0.501354
0.201298
0.170129
-0.371427
-0.76704
0.0323055
-0.106187
0.732456
-0.626269
-0.103197
-0.793761
-0.670951
0.744439
1.14795
-0.49235
-0.655601
-0.108233
0.3106
0.833639
-0.428088
-0.405551
0.250889
-0.272281
0.103716
-0.108067
-0.187474
0.0299197
0.157554
-0.154944
0.496941
-0.390068
1.00154
-0.0224318
-0.145141
-0.258493
-0.0820125
0.340506
-0.00850098
0.819053
0.205012
0.136191
-0.341203
-0.354069
0.544678
0.399371
0.399233
-0.333311
-0.102408
0.493592
-0.175494
-0.318098
-0.00408917
-0.015865
0.0199541
0.072746
-0.725993
0.653246
-0.873052
0.121384
0.205128
-0.391411
0.819195
-0.00368005
0.254569
0.122882
-0.438978
-0.98944
0.505378
-0.919974
0.308436
-0.427671
0.0506262
-0.38415
-0.558023
0.942173
-0.955765
-0.0996213
-0.01892
0.118541
0.800101
-0.612622
0.654678
-0.574443
0.143906
0.498766
-0.642672
0.181659
-0.363025
-0.680919
-0.253556
0.934475
-0.130874
0.31635
-0.185476
-0.399233
0.783326
-0.384093
0.818387
-0.533454
-0.284933
0.811194
0.0225838
-0.833778
-0.476003
-0.726782
-0.30254
-0.0212819
0.3614
0.644758
-0.0109423
0.0875309
-0.0765885
-0.625728
-0.156646
0.660455
0.565997
-0.503569
0.614322
-0.110753
0.145008
-0.136119
0.140578
0.375073
-0.515651
-0.0477942
0.225942
-0.0993509
-0.866354
-0.891236
0.369381
-0.026203
-0.141916
0.319697
0.0788543
0.690178
-0.769032
-0.481663
-0.112879
0.622882
0.265838
0.0652987
-0.221816
0.202347
-0.445278
0.242931
0.0935323
-0.348197
0.254665
0.213488
0.0783028
0.23925
0.785434
-0.356419
0.860558
-0.47712
-0.110163
-0.232942
0.343106
0.711533
0.0695812
0.0276674
-0.635805
0.428491
0.554238
-0.562739
-0.438235
-0.381235
0.81947
-0.558879
-0.408638
-0.908906
0.936432
-0.027526
-0.102111
-0.356381
0.262222
0.532705
0.252728
0.077467
-0.296172
0.218705
-0.321769
-0.653933
-0.177401
-0.704789
0.882191
0.58189
-0.323447
-0.263697
0.251593
0.548415
-0.871292
0.431276
-0.348096
-0.392162
0.948529
-0.556367
0.386687
0.473402
0.28931
-0.762712
0.960343
-0.595489
-0.364854
-0.332392
-0.710874
1.01092
-0.30005
0.530391
-0.00386723
-0.266
0.26232
0.397395
0.76321
-0.194558
0.17399
0.039432
-0.0153716
0.902862
-0.500329
0.430815
0.677063
-0.382238
0.203441
0.178798
0.232931
-0.437712
0.706301
-0.0375075
0.682961
-0.479623
-0.648935
-0.0713286
0.720263
0.17483
-0.0268434
-0.147987
0.136566
0.081542
0.142932
-0.914903
-0.262114
0.283893
0.645158
-0.577843
-0.0673146
0.144276
0.349316
-0.140111
0.0709346
0.223988
0.225849
-0.449836
-0.434546
0.788476
0.00102452
-0.443532
1.03564
-0.59211
-0.24843
0.406158
-0.0729621
-0.562047
1.04938
-0.498235
-0.315546
0.526605
-0.0832756
0.276736
-0.288512
-0.144457
0.123284
-0.274278
-0.129479
-0.00567855
0.496324
-0.140795
0.764446
-0.623651
-0.260602
0.322406
-0.319309
0.097397
-0.303092
0.000552026
-0.86812
0.618511
0.213642
0.225755
0.0964816
-0.337322
0.240841
0.244017
0.0653971
0.777894
0.433569
-1.21146
-0.0941185
-0.0156378
0.109756
-0.0595878
-0.720252
0.753397
0.394554
0.738309
-0.659455
-1.03531
-0.00240166
0.0996268
-0.105984
0.431126
0.612553
0.27474
-0.887294
0.343355
-0.0274081
-0.0262745
-0.294043
-0.0881951
-0.529728
-0.463972
0.456461
0.290124
0.65502
0.540578
-0.532352
-0.00822601
0.166772
0.0080166
-0.0707399
0.231153
-0.0290404
0.721652
0.174784
-0.896436
-0.487947
0.262973
-0.210422
0.130798
0.0796237
-0.318403
0.00436213
0.314041
0.410529
0.358321
-0.76885
0.216249
0.263876
0.645704
-0.0130809
-0.24444
0.344239
-0.444598
-0.0634051
0.0860563
-0.0226512
-0.909715
0.512251
0.781093
-0.624967
-0.156126
0.0115679
-0.121553
0.109985
0.788615
-0.869225
0.733828
-0.151938
0.204677
0.450001
-0.119719
-0.00975955
0.46542
-0.273677
-0.191743
-0.518711
-0.108402
0.996048
-0.50797
-0.488079
0.899193
-0.519572
-0.379621
0.37269
-0.648618
0.275928
0.0292043
0.482223
-0.00812028
-0.105717
0.49202
-0.386303
0.232771
0.232649
-0.324672
-0.20354
-0.0247325
0.708802
0.00715365
-0.715956
-0.346853
0.00193393
-0.17364
-0.282368
0.0363584
0.146467
0.61546
-0.14632
0.17571
-0.0348358
0.00485185
-0.116492
0.136284
-0.359805
0.503711
0.0131539
0.201978
-0.220248
-0.294471
0.734764
-0.0205132
0.561091
-0.131367
-0.105061
-0.223652
0.44764
-0.190624
0.748576
-0.557951
-0.745157
-0.101682
-0.361155
0.718751
-0.357595
0.0375746
-0.241114
0.283599
-0.0595922
-0.0196653
-0.213155
0.23282
-0.743141
0.244907
0.105526
-0.116528
0.43788
-1.10034
0.295008
-0.870924
-0.225387
0.580564
-0.299682
0.461567
-0.235719
0.0130821
-0.598039
0.670785
0.0018959
-0.136182
0.118741
-0.487292
-0.084654
-0.550031
0.634685
0.275715
0.266626
1.10652
-0.720771
-0.385748
-0.203274
0.0564783
0.186824
0.0203377
-0.207161
-0.723906
0.134027
0.169637
0.0171651
-0.00482628
-0.111519
0.116345
0.39673
-0.757886
0.0751541
0.400717
0.0358812
-0.436598
-0.8322
0.641576
0.123418
0.0343174
-0.157736
0.321975
-0.964045
-0.128156
-0.00015185
0.128307
0.157975
-0.0345566
0.00411745
0.651517
-0.496729
0.541427
0.448677
-0.232428
-0.806981
0.245742
-0.614748
0.491878
0.122869
0.381605
-0.81984
-0.438781
-0.278863
0.717644
0.0757779
0.352916
-0.268584
0.220995
0.982282
-0.130556
-0.851726
0.00673591
-0.839629
0.736556
0.0746379
0.423524
0.410114
-0.143188
-0.00127141
0.124727
-0.25985
-0.295503
0.0251472
-0.109114
0.0839667
0.0146795
-0.719767
0.705088
-0.0418876
0.247875
-0.205987
0.266972
-0.816979
0.550007
-0.0945919
-0.487372
-0.0253551
-0.0247011
0.603183
-0.297619
-0.178511
0.47613
-0.327952
-0.356197
0.396273
-0.226144
-0.19363
-0.00574456
0.199375
-0.251709
0.34819
-0.85832
-0.114004
-0.0366162
0.15062
0.105744
0.280202
-0.385946
0.618564
-0.881202
0.262638
0.0254179
-0.49543
0.139153
-1.04461
-0.455725
-0.558988
1.01471
-0.847867
0.0367478
0.811119
-1.10655
-0.712875
0.0256972
-0.238352
0.24622
-0.0078683
-0.902877
-0.31004
1.03169
0.332687
-0.175659
0.0712265
-0.294879
-0.153935
0.417811
0.132619
0.0840315
-0.342525
0.0132545
-0.102309
0.0890543
-0.192058
0.0508079
-0.0700989
0.0816668
-0.233116
0.463682
-0.957041
0.60745
0.349591
-0.330378
0.361337
0.531246
0.180965
-0.00613454
-0.231862
0.309329
-0.420083
-0.23822
-0.480909
0.176664
0.304245
-0.019639
-0.151191
0.17083
-0.352128
0.44566
-0.0768607
0.638298
0.548724
-0.343711
0.479022
-0.806974
0.395782
-0.516844
0.121062
0.095421
-0.00420988
-0.00618423
0.0144488
-0.937867
0.553716
0.520416
0.378777
0.014146
-0.168923
0.154777
-1.15134
0.461458
-0.179198
0.238619
-0.169299
-0.0139389
-0.195386
0.209325
-0.494369
0.19675
-0.917099
0.817748
0.774133
-0.310131
-0.154976
0.138816
0.0161593
0.240386
-0.113447
-0.132982
-0.98722
0.393988
0.593231
-0.124521
0.108883
-0.0611252
0.245737
-0.184612
0.480431
0.253397
0.00319584
0.243736
-0.246932
-0.225602
0.238756
0.0207402
0.0728335
0.604155
-0.789857
0.924425
0.0447864
-0.4177