/*--------------------------------*- C++ -*----------------------------------*\
| =========                 |                                                 |
| \\      /  F ield         | OpenFOAM: The Open Source CFD Toolbox           |
|  \\    /   O peration     | Version:  2306                                  |
|   \\  /    A nd           | Website:  www.openfoam.com                      |
|    \\/     M anipulation  |                                                 |
\*---------------------------------------------------------------------------*/
FoamFile
{
    version     2.0;
    format      ascii;
    arch        "LSB;label=32;scalar=64";
    class       surfaceScalarField;
    location    "1.5";
    object      phi;
}
// * * * * * * * * * * * * * * * * * * * * * * * * * * * * * * * * * * * * * //

dimensions      [0 3 -1 0 0 0 0];

oriented        oriented;

internalField   nonuniform List<scalar> 
20045
(
0.265775
-0.303944
0.0381688
-0.556493
0.223033
0.33346
0.138102
0.818976
-0.957078
0.113117
-0.14374
0.0306225
-0.463581
0.439076
0.0245054
-0.241108
1.02254
-0.781431
-0.555775
0.2107
0.345076
0.0347323
0.236697
-0.271429
0.250729
0.224714
-0.475443
-0.36414
-0.105829
0.469969
-0.0833455
0.314544
-0.231199
1.01125
-0.535962
-0.475288
0.207487
-0.203618
-0.00386812
-0.636583
0.479173
0.15741
-0.142709
0.551602
-0.408893
-0.538376
0.174236
-0.0569086
0.00668299
0.0502256
0.324847
0.0456407
-0.370488
-0.79593
1.17267
-0.376745
-0.38177
-0.00184793
0.383618
0.218479
-0.215275
-0.0032032
0.0747753
0.132711
-0.10159
-0.454903
0.296401
0.275824
-0.572225
0.448772
0.0500471
-0.498819
-0.305635
0.602035
0.122895
-0.127159
0.00426337
-0.49048
0.964605
-0.474125
0.872541
0.111738
-0.984279
-0.953835
0.595754
0.358081
-0.0841887
-0.166787
0.250976
0.727705
-0.587114
-0.140591
-0.333753
0.599175
-0.265422
1.08521
-0.638139
-0.447076
-0.303743
0.338476
1.13997
-0.568324
-0.571648
0.7211
0.146493
-0.867592
-0.0340579
0.210041
-0.175983
-1.07619
0.436786
0.639401
0.318597
0.264042
-0.582638
0.0245784
0.23091
-0.255489
0.0758915
-0.109699
0.0338077
1.08566
-1.07959
-0.00606716
0.727962
-0.237302
-0.490661
0.307038
0.420924
0.50061
0.51064
0.368903
-0.416273
0.0473693
0.623029
0.281107
-0.904136
0.952255
-0.231156
0.0516083
0.816204
-0.867812
0.643071
-1.09744
0.454371
0.968685
-0.711995
-0.25669
-0.406346
-0.485597
0.891943
-0.0474663
-0.168152
0.215618
0.111655
0.118486
-0.230141
-0.37271
-0.0908713
0.0683795
0.698152
-0.766532
0.875703
0.0423955
-0.918098
0.336144
-0.669897
1.06043
-0.740168
-0.32026
-0.0438754
0.277779
-0.233903
0.381162
0.679265
0.441793
-0.712213
0.27042
0.200437
0.0180418
0.226207
0.194035
-0.420242
0.812491
0.162585
-0.975075
-0.0365361
0.140653
-0.104117
-0.344391
0.0519727
0.292418
0.451602
-0.200873
0.984093
-0.988832
0.00473903
-0.0926611
0.056125
-0.276089
0.387744
-0.147955
-0.521478
0.669433
0.0858068
0.0418311
-0.127638
0.905084
-0.128789
-0.776295
0.684344
-0.615965
-0.0592386
0.964323
0.266119
-0.408828
-0.241644
0.369938
-0.128294
0.393572
-0.698472
0.3049
0.512568
0.604012
-1.11658
0.451342
-0.38419
-0.0671514
0.581939
-0.140146
-1.03999
0.179607
0.860386
-0.00388559
0.269661
-0.229189
0.305374
-0.0761853
0.557621
-0.807485
0.249864
-0.79317
0.0284036
0.764766
0.505062
0.101334
-0.606396
-0.455381
0.374492
0.0808886
-0.805788
0.0504955
0.755292
0.39491
-0.0737174
-0.321192
0.214066
-0.321745
0.107678
-0.111413
-0.398656
0.51007
0.321089
-0.339751
0.0186621
0.738372
0.204897
-0.943269
0.104336
0.0185595
0.0111069
-0.164242
0.153135
0.633193
-0.314597
-0.0579186
-0.028063
0.0859816
0.771498
0.368474
-0.280149
-0.356434
-0.194326
0.205433
-0.157922
1.03362
0.039225
-0.268414
0.0821258
-0.140044
0.217352
0.61447
-0.831822
0.654
-0.983184
0.329184
0.127259
-0.242704
0.210772
0.0319312
-0.118775
0.151673
-0.0328979
0.671954
-0.547078
-0.124875
-0.270704
0.223237
0.673315
-1.05648
0.383164
-0.117863
0.185049
-0.0671854
0.0261565
-0.146516
0.12036
0.56475
-0.115977
0.83455
0.250665
-0.608178
0.460223
0.691243
-1.02856
0.33732
-0.0886672
0.413514
0.223717
-0.267592
-0.419837
0.343489
0.0763482
-0.422186
0.0530958
-0.318307
0.265211
0.694437
0.274247
0.569579
-0.744542
0.174963
0.798593
0.0857295
-0.884322
-1.03193
0.82051
0.211422
-0.299274
-0.211581
0.510855
1.02497
-0.330531
-0.405758
-0.0105143
0.650435
-0.529997
-0.120438
-0.0523387
0.0482403
0.00409834
0.56707
0.401308
-0.968378
0.627981
-0.566464
-0.0615175
-0.167172
0.068334
0.0988383
-0.173404
-0.0692991
1.14879
-0.457547
-0.351966
0.373855
-0.0218893
0.5346
-0.883747
0.349148
0.28018
-0.686526
0.435683
0.325071
-0.760754
0.742196
-0.348623
0.971654
-0.129949
-0.841705
0.111166
-0.489554
0.378388
0.936833
-0.659539
-0.277294
-0.151081
0.213058
-0.0619769
0.0232395
0.872342
-0.895581
1.06314
-0.1906
-0.829182
0.0263087
0.802873
-0.525394
0.437868
0.0875263
0.999792
-0.487224
0.133286
0.318055
-0.651597
0.761804
-0.110207
-0.671454
0.809557
0.012079
-0.185141
0.173062
0.151483
-0.181563
0.0300804
-0.0177745
-0.204905
0.22268
0.849403
-0.00313754
-0.846265
1.16368
-0.555255
-0.60843
-0.241732
0.223957
0.708935
-0.85467
0.145735
0.0892947
-0.0134033
-0.869917
-0.514082
0.635085
-0.121003
-0.631665
0.51726
0.114405
-0.00854905
-0.0467737
0.0553228
0.33826
0.598573
-0.0132398
-0.0390989
0.513232
0.137203
-0.689535
0.0379378
-0.742541
0.933751
-0.19121
-0.695912
0.765251
-0.0693392
-0.617803
-0.41002
1.02782
0.0608819
-0.286353
0.225471
0.387057
-0.484858
0.0978011
0.633318
0.128513
-0.761831
0.000979363
-0.747127
0.746148
-0.439276
0.874959
0.209667
-0.575042
0.365375
-0.376615
1.04993
-0.815661
0.585864
0.229797
-0.0859705
0.0964033
-0.0104328
0.37749
-0.994292
0.616802
-0.8098
0.31932
-0.621187
-0.386129
0.911196
-0.599128
-0.312067
-0.300354
0.324933
0.146935
-0.155446
0.00851063
-0.766509
-0.214421
0.98093
-0.744701
1.05147
-0.306772
0.993783
-0.681762
-0.312021
0.0266215
-0.222258
0.195636
-0.228377
-0.540466
0.768843
-0.25852
0.175174
-0.424547
0.125272
-0.586422
-0.231093
0.817515
0.104583
0.0283822
-0.132966
0.037528
-0.55161
0.143093
-0.227282
0.850647
-0.0520545
-0.161758
0.1277
-0.158935
0.193998
-0.035063
-0.158011
1.00741
-0.810968
0.582591
0.136635
-0.0501161
-0.0865187
-0.718705
0.155535
0.56317
0.345464
0.648319
1.04815
-0.670656
0.635006
-1.01733
0.382327
0.305241
-0.630077
0.324836
0.0549245
-0.436695
-0.486666
0.704019
0.639361
-0.880468
0.124508
-0.639772
0.515264
-1.02988
0.52975
0.50013
-0.0742567
-0.381124
0.188497
0.163878
-0.352375
0.559892
-0.0778308
-0.482061
-0.0849716
-0.598259
0.621499
-0.273419
-0.0785473
0.577263
0.819006
-0.769629
-0.0493772
-0.0120371
-0.145352
0.157389
0.659249
0.0473631
-0.706612
0.159661
0.134423
-0.294084
0.0152513
0.574156
-0.589407
-0.295493
0.853114
0.596539
-0.386872
-0.0798947
0.214372
-0.134478
0.726509
-0.191909
0.105374
-0.00878529
-0.096589
0.182593
0.0518926
-0.234486
-0.121072
0.125761
-0.00468852
0.912927
-0.621209
-0.291718
0.235495
-0.980196
-0.132406
0.011334
-0.842467
0.231366
0.611101
0.846544
-0.24737
0.238592
-0.981133
1.21854
-0.583362
-0.635174
-0.0138796
0.118463
0.957777
-0.408011
-0.549766
-0.610291
0.114217
0.496074
-0.966091
0.949039
0.0170514
0.313825
-0.675644
0.36182
0.159743
0.0683586
-0.228102
-0.495552
0.617203
-0.121651
0.0332403
-0.210336
0.177096
-0.16995
0.0520862
-0.138507
0.0197326
-0.679197
-0.303988
0.547368
-0.790302
0.242934
0.176793
-0.300981
0.124187
0.505066
0.222639
0.532376
-0.407869
0.015999
0.135484
0.4969
0.349644
-0.515078
0.0413326
0.473746
0.319086
0.638691
0.425105
0.126497
0.279532
-0.102738
-0.307182
-0.0271133
0.334296
0.0160933
-0.102064
-0.613834
0.629086
-0.216416
0.283027
-0.0666117
-0.904791
0.867713
0.0370776
-0.121205
0.637352
-0.516147
-0.16853
-0.151893
0.320423
0.761333
-0.828086
0.0667526
-0.580368
-0.449512
1.09798
-0.774441
-0.323539
-0.107775
0.0957383
0.745619
-0.431794
-0.281247
0.828615
0.0734039
-0.301943
0.228539
0.905782
-0.121098
-0.784685
0.96031
-0.200779
-0.759531
-0.283752
0.357156
0.847006
-0.499693
-0.347313
-0.172567
0.791783
-0.619216
0.331587
-0.53497
0.203383
-0.263102
0.0484482
0.214653
-0.180101
0.0330835
0.147017
1.00147
-0.769633
-0.231842
-0.552697
-0.479235
0.665239
0.153767
-0.819167
-0.0856239
-0.0514488
0.234042
0.253245
-0.856893
0.603648
0.00414135
0.142794
-0.544858
1.11193
0.300685
0.612242
1.00041
-0.649926
-0.35048
-0.84625
0.615157
0.676822
-1.02312
0.3463
-0.615567
-0.0567391
0.672306
-0.269846
-0.183241
0.453087
0.744876
-0.0359413
0.133359
0.00327573
0.300771
-0.108095
-0.47902
-0.708026
1.01521
-0.307182
-0.183298
0.024363
-0.0797721
-0.000122582
0.113287
-1.07938
0.608089
-0.903582
0.185747
-0.278385
0.405168
-0.126783
-0.00375022
0.116867
-0.516694
0.32251
0.194184
0.441759
0.230194
-0.0638163
0.316647
-0.25283
0.483204
0.144777
-0.615058
0.868303
0.584264
-0.0792023
-0.229471
-0.489234
0.99404
-0.6524
-0.34164
0.958983
-0.977842
0.362314
0.615529
0.790198
-0.865194
0.0749958
-0.462359
0.350945
-0.14083
-0.0263425
-0.241214
-0.564574
0.312643
-0.570952
0.25831
0.424707
0.4223
0.634898
-0.934998
0.3001
0.255344
-0.567797
0.312453
-0.967628
0.174458
0.0149843
0.379926
-0.700646
0.827245
-0.1266
-0.233612
0.32517
-0.0915582
-0.467234
-0.0885417
-0.139478
-0.239762
0.37924
0.102635
0.000582464
-0.103218
-0.343907
-0.181488
0.380184
0.454973
-0.835157
0.912984
-0.593898
0.380206
-0.449576
-0.0127828
0.49708
-0.241737
-0.689835
-0.125826
-0.155401
0.213678
-0.0582771
0.97097
-0.347941
-0.481693
0.766488
-0.284795
-0.135446
0.161602
-0.0261558
0.689306
-0.129414
-0.312004
-0.544889
-0.51327
0.921751
-0.408481
0.584814
-0.943262
0.358448
0.41827
0.679711
-0.109032
0.095028
0.0140041
0.100797
-0.716364
0.679982
-1.03661
0.356625
-0.132001
0.217808
-0.0872584
0.656837
-0.206553
0.814642
-0.317211
0.622452
0.196609
-0.992539
-0.814703
0.586761
0.227942
0.662095
-0.130207
-0.531887
0.937124
-0.175791
-0.424085
-0.531478
-0.479179
0.379197
0.513095
-0.447485
-0.0656102
0.326725
-0.328573
-0.743108
0.65585
0.865231
0.220428
-0.802949
0.321256
0.824269
-0.15903
0.160794
-0.22015
0.0593558
-0.0521803
-0.554232
0.606413
-0.909322
0.16469
0.744632
0.763034
-0.763034
-0.334124
0.923466
-0.589342
0.295115
-0.358931
0.614427
-0.451847
-0.16258
-0.94754
0.970509
-0.0229688
0.363495
-0.0458383
-0.317657
0.283579
-0.0992599
-0.184319
0.142362
-0.310892
0.107337
0.565554
-0.8468
-0.805037
0.95465
-0.149613
-0.288026
0.66821
-0.17837
0.0115423
0.166828
-0.156432
0.222468
-0.066036
-0.37796
0.432885
0.920829
-0.707437
-0.213392
-0.102362
-0.514133
0.616495
-0.259058
0.274368
-0.0153105
0.159024
-0.294078
0.135053
-1.06676
0.456067
0.610697
-0.106044
-0.0376958
0.219594
-0.0588
-0.0809206
0.131652
-0.0507311
0.409215
0.592259
-0.101115
-0.0772554
-0.109438
-0.244635
0.354074
-0.490972
0.799779
-0.308807
-0.0123499
0.101957
-0.0896068
0.470847
-0.260148
0.809822
-0.0833236
-0.726498
0.0397188
-0.438375
0.00117211
0.632146
0.446507
0.292538
-0.739045
0.498126
-0.406485
-0.0916414
-1.01444
0.185254
-0.417226
0.219048
0.198178
0.31989
0.499174
-0.819064
-0.637359
0.58062
0.0457069
-0.899884
0.854177
-0.157068
0.18369
-0.0842377
0.0924778
-0.00824013
0.0266159
-0.333798
-0.640654
0.148408
0.492246
-0.67694
-0.165526
0.615449
0.334557
0.0939536
-0.42851
-0.149432
0.0139865
0.158274
-0.696513
0.538239
0.133681
0.528991
-0.662672
0.26127
-0.719202
0.840669
-0.121467
-0.71749
0.544922
-0.062936
-0.0642228
-0.4139
-0.217765
-0.281622
0.0645604
0.217061
-0.857216
0.366244
0.652052
-0.754414
0.227871
0.596398
-0.327494
0.327495
-9.31501e-07
0.20701
-0.694982
0.487972
0.17932
-0.288172
0.108852
0.533297
-0.845301
-0.647576
-0.0483365
-0.344505
0.000114071
-0.161337
-0.205039
0.366376
0.340461
0.0520275
-0.0466658
-0.00536166
0.759744
-0.439854
-0.756797
0.975574
-0.218777
0.265491
0.202659
-0.46815
-0.371568
0.2145
-0.246101
-0.0355203
0.241497
0.37293
-0.283416
-0.745147
-0.225393
0.0699915
0.613247
0.441486
0.142778
-0.762844
0.814452
0.00273322
-0.382444
0.379711
-0.0815098
-0.829033
0.910543
0.0957037
-0.0998719
0.00416814
0.31519
-0.254308
-0.198672
0.530259
0.551467
-0.440301
-0.378409
-0.138286
-0.00895461
-0.41986
0.428815
0.40505
-1.02285
-0.0453813
-0.494945
0.540327
0.0281244
-0.187217
0.159093
-0.649788
0.0369605
0.612827
0.947411
-0.666304
-0.00484895
0.100769
-0.0959205
-0.232871
-0.0261865
0.1959
0.360782
-0.556682
0.116918
-0.146826
0.0299083
0.682193
0.375472
-1.05767
-0.399047
1.13742
0.0972273
0.00540808
-0.257312
-0.587808
0.84512
0.422911
0.725879
0.79578
-0.662099
-0.376842
0.237364
-0.132038
-0.0480633
-0.30195
0.978772
0.110024
-0.751916
0.641892
0.956359
-0.135467
-0.820892
-0.353192
0.662929
-0.309737
0.396536
-0.213807
-0.498311
0.712117
-0.00706902
0.0846057
-0.0775367
-0.283624
-0.495843
0.779468
0.0557363
-0.212168
0.0560937
-0.0646428
0.502258
-0.785882
-0.690831
-0.226182
0.917013
-0.0324265
-0.506928
0.539354
-0.00682119
1.06928
-1.10503
0.03575
0.225032
-0.125177
-0.0998548
0.00278493
-0.330279
0.253703
0.256367
-0.346115
0.0762694
-0.754623
0.977307
-0.222685
0.0218775
-0.238293
0.504697
0.237499
-0.825737
-0.253854
0.0560104
-0.186679
0.130669
0.541121
-0.0996346
-0.218304
0.240487
-0.0221826
-0.185383
0.218623
-1.15587
0.534688
0.878136
0.144404
-0.10648
0.265504
-0.221118
0.486608
0.840121
-0.274567
-0.225839
0.00753449
-0.113662
-0.629446
0.281893
0.23917
-0.227091
-0.923984
0.0146624
-0.127422
0.225102
-0.0457822
-1.00835
0.618371
0.389979
0.812574
0.171519
0.214858
-0.0773234
-0.137535
0.300487
-0.279181
-0.0213067
-0.899027
0.330702
-1.02978
0.516511
-0.273916
0.223869
0.0500472
0.0134036
-0.09199
0.0785863
1.02155
-0.0330046
-0.988543
0.170043
0.00961132
-0.179654
-0.141581
-0.278256
0.246691
-0.0326253
-0.0741937
0.0747061
-0.00051241
0.417526
-0.0588715
-0.358654
0.00963077
-0.0838245
0.847448
-0.642551
-0.0286824
-0.158069
0.186751
-0.970026
0.215403
0.0121656
0.0429468
-0.237272
-0.250302
0.584859
0.0497348
-0.0337358
0.258362
0.168897
-0.427259
0.38195
-0.155743
0.36597
-0.363236
0.21917
-0.193013
0.0966526
-0.330265
0.77852
-0.21381
-0.56471
0.557333
-0.0651218
-0.492211
-0.401664
-0.0878896
0.178136
0.0332624
-0.211398
0.321876
-0.438532
0.116657
1.07276
-0.02451
-1.04825
0.18748
0.042786
-0.230266
-0.492858
0.675656
-0.182798
0.45598
0.518049
-0.974029
0.0503778
0.227401
-0.280048
0.452049
-0.172001
0.233533
0.0942454
-0.327778
-0.740392
0.392637
0.347755
0.0708456
0.00386057
-0.821085
0.130253
0.328406
-0.193387
-0.13502
0.437377
-0.604594
0.167217
-0.10489
-0.199054
0.148862
0.920414
0.823039
-0.143198
-0.679841
-0.823899
0.104698
0.326275
-0.555746
0.643425
-1.05267
0.40924
-0.113521
0.302019
-0.00469623
-0.403699
0.294261
-0.172187
0.225283
-0.0963011
-0.776473
0.872774
0.400195
0.345424
-0.717728
0.749058
-0.0313303
0.166271
-0.327608
-0.604852
-0.229206
-0.127532
0.142985
-0.0154536
0.107034
-0.296461
0.189427
0.0784331
0.0699028
-0.148336
-0.124935
0.562312
-0.559161
-0.243413
0.802574
-0.778385
-0.228012
1.0064
0.461117
-0.384207
-0.0769094
-0.202153
0.0215552
0.180597
0.157102
0.0654121
-0.222515
-0.945287
0.0282204
0.917067
0.0219582
0.207373
-0.229331
0.779405
-0.877959
0.0985533
-0.459281
0.294402
0.210494
-0.504896
0.0140599
-0.141592
-0.316451
-0.27534
0.591791
0.625013
-1.00163
-0.947393
0.825508
0.121884
0.135987
-0.0190692
0.737757
-0.23306
-0.088084
-0.198979
0.287063
-0.0101281
0.147301
-0.137173
-0.231832
0.762918
-0.531086
0.873927
-0.663129
-0.210798
0.979037
-0.950132
-0.0289054
0.760511
-0.390955
-0.369556
0.0400253
-0.242431
0.202406
-0.308489
-0.00981821
-0.958724
0.825004
0.133719
0.045379
-1.0041
-0.20488
0.681841
-0.476961
-0.510709
-0.258924
0.214825
-0.176577
-0.0382482
-0.754448
-0.215578
-0.201929
0.140265
0.061664
0.26288
-0.103219
-0.911824
0.86048
0.0513443
-0.216833
0.12649
-0.0846591
0.183758
-0.0137154
-0.588001
0.0924485
0.162294
-0.180718
0.0184242
-0.321998
0.359155
-0.0371563
0.3854
-0.021905
-0.255154
0.481043
0.208263
0.379902
0.238644
-0.0985179
-0.140126
-0.168455
0.555512
-0.636371
0.404971
0.2314
0.0744935
-0.00364797
0.749761
-0.349566
0.561629
-0.354619
-0.170733
-0.218498
0.38923
0.240995
-0.739591
0.498596
0.578133
-0.61056
0.982653
-0.425589
-0.557064
-0.0043249
-0.530097
-0.106274
-0.713194
0.996283
-0.283088
-0.042014
-0.230725
0.865732
-1.00968
0.255227
-0.236946
-0.0261561
-0.162348
0.138136
0.129174
-0.00341323
-0.49087
-0.51859
1.11592
-0.431572
0.179152
-0.276973
0.097821
0.0525739
0.231005
-0.663313
-0.338897
1.00221
0.604101
0.140775
-0.00659342
-0.154757
0.161351
0.807761
0.125627
0.00893421
-0.134561
0.589316
0.189204
-0.356442
-0.979169
0.174132
-0.227661
0.0111785
0.216483
0.558504
0.660032
0.18496
0.132549
-0.317508
0.923501
0.0555363
0.58399
-0.84094
0.25695
-0.824755
0.00118998
0.823565
-0.788528
1.00151
-0.212985
0.152072
-0.00744214
-0.14463
-0.368468
0.993481
0.0652227
0.25775
-0.322972
0.0408554
-0.758583
0.548423
-0.0936904
-0.454733
-0.87889
1.12408
-0.245185
-0.244348
0.563817
-0.319469
1.15796
-0.512836
-0.645122
0.0286175
-0.610007
0.58139
0.0850691
0.00740871
-0.398679
0.854659
0.555294
-0.889418
0.907894
-0.323081
-0.194181
0.165498
-0.856178
0.0314236
0.979726
-0.344828
-0.0117192
-1.02827
0.25433
-0.0234194
0.261756
0.586288
-0.848044
0.559649
-0.151081
-0.408568
0.614267
-0.95917
0.344903
-0.147506
0.0105022
0.137004
-0.21207
-0.478206
0.690276
0.368011
-0.271358
-0.403527
0.474524
-0.070997
0.180258
0.230153
-0.410411
0.0795696
0.135255
-0.823399
0.967807
-0.144408
0.0889984
0.00670532
0.443338
0.213396
-0.656734
0.35537
0.383943
-0.739312
0.177759
0.484335
-0.0190532
0.990707
0.00183734
0.788598
-0.790436
-0.00517001
-0.00717994
0.133798
-0.129892
-0.00390585
0.631064
-0.502598
-0.128466
0.439752
0.542901
0.0350305
0.0238893
-0.0589198
-0.257193
0.796352
-0.539159
0.00110172
0.180574
-0.181676
0.239225
-0.667263
0.428038
-0.39318
-0.170999
0.564179
0.738039
-0.0787899
0.275911
0.283738
-0.240117
-0.399987
0.640103
0.295858
-0.809991
0.0739259
0.208304
-0.28223
0.195787
-0.0557908
-0.139996
0.00212669
0.0829424
-0.074109
0.775372
-0.701263
-0.098966
0.91517
0.762515
-0.635987
-0.126529
0.638448
-0.537115
-0.530381
0.209403
0.320978
-0.0825959
-0.369251
-0.204133
0.180378
0.0237557
0.07044
0.144418
0.137775
0.72964
-0.867415
0.226704
0.190822
0.12056
-0.898945
-0.473334
0.179978
0.293356
-0.334058
-0.243076
0.577134
0.500338
-0.241976
-0.844171
0.556145
0.375861
-0.332565
-0.0432964
-0.572438
0.819589
-0.247151
-0.428879
0.468598
-0.498195
0.601255
-0.10306
-0.699209
0.982207
-0.282999
-0.0226771
0.217544
-0.194867
0.141295
-0.127892
-0.400547
-0.64934
0.992372
-0.343032
-0.533354
0.688888
0.500235
-0.535613
0.0353781
-0.056092
-0.211652
0.267745
-0.984457
0.682808
0.301649
0.0035123
-0.0812331
0.0777208
-0.00369679
0.524971
-0.756803
0.678946
-0.43795
-0.198773
-0.61593
-0.693303
0.69514
0.468667
0.048593
0.302559
0.198618
-0.501176
-0.341567
0.319907
0.0216601
0.243578
-0.259169
0.0155917
0.212958
-0.424472
0.211513
-0.377739
0.482564
-0.104825
-0.741515
-0.137322
0.878837
0.197159
-0.253251
0.420024
0.21104
-0.975243
0.706027
0.269216
0.230368
0.074699
-0.305067
0.00416653
0.198065
-0.247966
0.0499017
-0.643853
-0.225027
0.437986
0.145479
0.210719
-0.170693
0.255214
-0.148179
0.26673
-0.478311
0.034072
0.287017
0.223802
-0.555776
0.331974
-0.546475
-0.429179
0.975654
0.206452
-0.446568
-0.521189
-0.0398581
0.561047
0.128843
0.194348
-0.323191
0.0279615
1.1319
-0.742516
-0.389386
0.168074
0.654965
-0.00347649
0.454086
-0.322677
-0.131409
-0.274234
0.615404
-0.341171
-0.574296
-0.186661
0.760956
-0.463806
0.183758
-0.365857
-0.164524
1.10579
-0.462892
-0.642893
-0.244148
0.0284207
0.215727
0.347166
0.0913072
-0.438473
-0.180499
0.202458
0.0143857
0.274807
-0.289193
-0.0706128
-0.023657
-0.218075
-0.00815427
0.611484
0.494301
-0.499961
0.936747
-0.240508
0.836262
-0.245153
0.00100466
-0.812564
0.238268
0.715149
-0.614352
-0.122359
-0.63299
0.140132
0.441118
-0.645998
0.645656
-0.697836
0.813251
-0.0230535
-0.195077
-0.126667
-0.232547
-0.113092
0.345638
-0.308677
-0.0310749
0.706699
0.131346
-0.838046
-0.00455235
-0.248213
0.252765
-0.0273477
0.385215
-0.9922
0.606985
0.831677
-0.0522714
-0.887299
0.916289
-0.0289904
0.208414
-0.156441
-0.873468
-0.11099
-0.320631
0.857825
-0.0328208
0.267683
0.985958
-0.398517
-0.587442
-0.56122
-0.0809804
0.6422
0.0513279
0.472801
-0.524129
-0.697014
0.0472266
-0.198297
-0.09866
0.296957
-0.484849
0.594873
0.156156
0.489519
-0.645675
-0.398295
0.00281956
0.395475
-0.843106
0.0622504
0.780855
0.12076
0.558186
-0.243867
0.448185
0.312326
-0.244697
-0.172529
0.70989
-0.839839
0.117406
-0.365703
0.248297
-0.248257
0.298635
0.669473
0.0396434
-0.709117
0.604867
-0.845375
-0.0472517
0.206995
-0.201911
0.53871
-0.336798
-0.571864
0.255413
-0.0175816
0.286014
-0.268432
0.195219
0.0474145
-0.242633
0.236067
0.079122
-0.263442
0.589717
-0.0435906
-0.230326
-0.160583
0.174643
0.33282
-0.198396
0.242122
-0.173763
-0.196035
0.188502
0.00753343
0.212711
-0.235405
0.0226938
-0.714947
0.586158
0.0695424
-0.590731
-0.0174965
-0.282858
-0.00199201
0.556387
-0.554395
0.329696
-0.35681
0.318515
-0.644043
0.325528
-0.461221
0.755226
-0.294004
0.265381
-0.973407
0.170334
-0.0259957
-0.921397
0.417514
0.698402
-0.730802
-0.113369
-0.654924
-0.322918
-0.421932
0.182171
-0.1276
-0.0486906
0.176291
1.09396
-0.535455
0.916769
-0.236787
-0.229123
-0.162276
0.3914
-0.894456
0.353421
0.541035
0.272612
0.0419321
-0.184586
0.478988
0.166707
-0.0919318
-0.521192
0.290799
-0.225576
-0.00306018
0.258883
-0.255823
-0.119379
0.826078
0.177699
-0.24015
0.0624512
0.89561
-1.1108
0.524805
0.585996
0.212359
0.228752
-0.441111
0.654231
-0.511886
-0.142346
-0.529268
0.28492
-0.230512
-0.033412
0.380578
0.889777
-0.971287
0.411333
-0.1778
-0.380132
0.67599
-1.02205
0.724687
0.29736
0.270315
-0.699518
0.429203
-0.690889
0.730466
-0.0395765
0.349199
-0.517655
0.0140053
0.185791
0.275326
-0.0554062
-0.643066
0.226586
-0.935474
0.357788
0.577686
0.247575
-0.808795
0.731792
-0.0245909
-0.5857
0.122625
0.642377
1.00918
-0.336797
-0.672381
-0.230449
0.257749
-0.591807
0.163396
-0.911634
0.830653
-0.590336
0.376529
0.448901
-0.812077
0.589899
0.222178
-0.937194
0.615391
0.321803
-0.361318
-0.131987
0.160111
-0.954947
0.679496
0.275452
0.607013
-0.975481
-0.814194
-0.00920418
1.04944
-0.406016
0.683591
-0.219695
-0.463897
-0.0228814
-0.142495
0.165376
0.129139
0.468314
0.522512
-0.663535
-0.148543
0.149268
0.218743
0.200496
0.358559
-0.559055
0.385012
-0.221134
-0.0387996
-0.923446
0.962245
-0.352586
0.309497
-0.748773
-0.574686
-0.370635
0.945321
0.249575
-0.323292
-0.66723
0.213903
0.453327
-0.000469315
0.0364982
-0.0360289
0.867828
-0.96413
0.319991
-0.521902
0.507291
0.157945
-0.665236
0.265622
-0.0864696
-0.786671
0.229097
0.557574
-0.586677
0.193497
0.337008
-0.611242
0.392626
-0.27522
0.00942525
-0.00989456
-0.0299233
0.986283
-0.582648
0.732475
-0.149827
0.966495
-0.00445175
-0.962043
-0.65015
0.00759909
-0.285984
0.050083
0.712951
0.131248
0.0303534
0.146287
0.0146803
0.280434
0.505322
0.00614554
0.237432
-0.840435
-0.0713897
-0.871206
0.431533
-0.839544
0.177866
0.182553
-0.360418
0.883618
0.0418226
-0.925441
-0.10925
0.101808
-0.34091
-0.688872
-0.753028
-0.112165
-0.270338
0.875205
-0.316923
0.456357
-0.139435
-0.808219
0.261744
-0.285959
0.486454
-0.413422
-0.594928
-0.243492
-0.257302
0.355103
-0.44309
0.121092
0.996035
-0.13821
0.651496
-0.506554
-0.144942
0.109291
0.105082
0.262625
0.955158
-0.909451
-0.0148434
-0.217854
0.325532
-0.466085
0.507418
-0.450241
-0.531641
0.210842
0.175769
-0.386611
-0.782515
0.019482
-0.121094
0.737956
-0.616862
-0.112581
-0.774718
-0.655847
0.70321
1.06798
-0.46635
-0.601626
-0.0867755
0.305824
0.791505
-0.345217
-0.446288
0.262105
-0.285762
-0.0311649
0.164963
-0.174034
0.0090882
0.164946
-0.178436
0.480994
-0.381486
0.988499
-0.0151485
-0.161428
-0.262567
-0.0926038
0.355171
0.00287459
0.864954
0.251734
0.0862718
-0.338006
-0.363126
0.559025
0.38425
0.412102
-0.367377
-0.105957
0.511047
-0.184167
-0.32688
-0.0505366
0.104496
-0.0539593
0.0385246
-0.678749
0.640224
-0.880657
0.127629
0.214885
-0.421463
0.852996
-0.00479465
0.2669
0.136009
-0.452932
-0.99404
0.51486
-0.858576
0.303321
-0.438323
0.0603622
-0.348067
-0.549158
0.897225
-0.959569
-0.00501329
-0.182941
0.187954
0.763699
-0.584092
0.590611
-0.539283
0.133371
0.511658
-0.645029
0.155629
-0.353927
-0.667128
-0.268732
0.935861
-0.067595
0.229014
-0.161419
-0.419543
0.750343
-0.3308
0.791193
-0.594902
-0.19629
0.837664
0.0165539
-0.854218
-0.435675
-0.675126
-0.303088
-0.0414173
0.376227
0.648741
-0.00891892
0.0978658
-0.0889468
-0.620391
-0.16628
0.632831
0.539844
-0.50309
0.617654
-0.114564
0.173037
-0.164103
0.256871
0.345242
-0.602113
-0.0545077
0.232207
-0.0896739
-0.865274
-0.921424
0.435845
-0.0599842
-0.136214
0.279307
0.0683221
0.694759
-0.763081
-0.502741
-0.0852597
0.618289
0.294695
0.0699603
-0.243365
0.551268
-0.527223
-0.0240446
0.0771393
-0.354821
0.277682
0.560926
0.0764256
0.268542
0.796237
-0.37153
0.804381
-0.494885
-0.116749
-0.240577
0.357326
0.706981
0.0848024
0.00550763
-0.649702
0.437632
0.673325
-0.670451
-0.388392
-0.363415
0.751807
-0.511269
-0.383187
-0.8753
0.901939
-0.0266391
-0.111502
-0.352984
0.239892
0.532259
0.263978
0.0645903
-0.264911
0.200321
-0.322532
-0.6663
-0.197921
-0.689153
0.887074
0.73766
-0.133559
-0.23347
0.307396
0.541245
-0.882155
0.409649
-0.359601
-0.417189
0.937216
-0.520028
0.330218
0.437916
0.321461
-0.759378
0.896309
-0.564702
-0.331608
-0.339612
-0.634617
0.916656
-0.282039
0.520452
0.131044
-0.27854
0.273745
0.393132
0.764826
-0.208978
0.186097
0.0528078
-0.000780338
0.902758
-0.501451
0.426953
0.667006
-0.395291
0.214372
0.180919
0.24866
-0.419393
0.707591
-0.038118
0.592564
0.091027
-0.638647
-0.0443156
0.682962
0.183366
-0.0228775
-0.160489
0.153441
0.0715906
0.152273
-0.940801
-0.274438
0.301054
0.641456
-0.566157
-0.0752987
0.15244
0.358608
-0.151142
0.0738185
0.242504
0.226368
-0.468871
-0.374544
0.710688
-0.0686689
-0.401561
0.943048
-0.541487
-0.223957
0.404215
-0.0348972
-0.363398
1.00524
-0.494102
-0.325065
0.533155
0.121076
0.292235
-0.309731
-0.161203
0.138526
-0.273226
-0.140614
-0.00881875
0.380468
-0.141142
0.765017
-0.623875
-0.0824883
0.00156777
-0.310617
0.111638
-0.320295
0.0172072
-0.880668
0.623356
0.226695
0.225354
0.113414
-0.294582
0.181168
0.218998
0.0863759
0.721347
0.430266
-1.15161
-0.108097
-0.012733
0.12083
0.00506356
-0.76186
0.713898
0.354078
0.73983
-0.671508
-0.936567
-0.0379125
-0.0817015
-0.492195
0.427126
0.571532
0.305288
-0.87682
0.364793
-0.035096
-0.02537
-0.297749
-0.097542
-0.549211
-0.478889
0.396294
0.348613
0.626961
0.548486
-0.515902
-0.0325841
0.180907
0.00759486
-0.0798267
0.242918
-0.0302069
0.732421
0.176044
-0.908465
-0.314191
0.31113
-0.222099
0.13758
0.0845188
-0.330405
0.00150135
0.328903
0.394277
0.282314
-0.676592
0.219195
0.281143
0.636456
-0.0140146
-0.256689
0.338974
-0.324294
-0.114717
0.147447
-0.03273
-0.895893
0.509765
0.770356
-0.612125
-0.158231
0.0131692
-0.132677
0.119508
0.796937
-0.871046
0.607026
0.130634
0.171428
0.419184
-0.133713
-0.0069007
0.256224
-0.277329
0.0211053
-0.474532
-0.118035
0.993939
-0.505598
-0.488341
0.787459
-0.303816
-0.483643
0.391808
-0.663713
0.271905
0.0346096
0.492155
0.00492572
-0.0339942
0.441364
-0.40737
-0.00814823
0.264372
-0.356954
-0.205767
-0.0343832
0.773968
0.00324085
-0.777209
-0.396948
0.445377
-0.221575
0.00261269
0.0212766
0.0983054
0.440404
-0.228335
0.306768
0.0305367
0.00925832
-0.100963
0.140188
-0.364162
0.497533
0.0132274
0.225942
0.103783
-0.207373
0.712439
0.00588747
0.542598
-0.143619
-0.117016
-0.225127
0.46763
-0.174919
0.693555
-0.518637
-0.722101
-0.0989835
-0.305596
0.707522
-0.401926
0.0539092
-0.259676
0.297316
-0.0606193
-0.0200334
-0.226828
0.246862
-0.749306
0.255204
0.122959
-0.127808
0.43949
-1.1028
0.301222
-0.88903
-0.254054
0.529879
-0.311484
0.479911
-0.253543
0.0128255
-0.583764
0.622289
0.00108954
-0.146441
0.0872929
-0.4715
-0.100545
-0.544575
0.64512
0.245747
0.276536
1.0822
-0.714344
-0.36786
-0.21109
0.0661242
0.206018
0.0210891
-0.227107
-0.726275
0.143626
0.186554
0.00923278
-0.00480788
-0.122012
0.12682
0.430422
-0.736018
0.0856597
0.4013
0.0501721
-0.451472
-0.773376
0.598457
0.135198
0.0364649
-0.171663
0.336506
-0.985846
-0.139488
0.000799981
0.138688
0.173356
-0.0381587
0.00936308
0.660838
-0.483079
0.540406
0.466427
-0.247232
-0.819705
0.245019
-0.602171
0.504189
0.0979825
0.368788
-0.75718
-0.455004
-0.273524
0.728529
0.0569235
0.380944
-0.280446
0.234608
0.93605
-0.106521
-0.829529
0.00976646
-0.850201
0.750189
0.0874742
0.462959
0.328546
-0.154163
-0.000594506
0.135616
-0.255518
-0.315434
0.0624554
-0.0534018
-0.00905357
0.0173463
-0.800563
0.783217
-0.0516869
0.276641
-0.224954
0.26764
-0.833778
0.566138
-0.0678734
-0.49859
-0.0254986
0.0157895
0.594055
-0.30909
-0.181453
0.490543
-0.346929
-0.330011
0.412313
-0.236544
-0.239278
0.0292232
0.210054
-0.180454
0.293868
-0.865049
-0.108701
-0.0536914
0.162393
0.156623
0.257351
-0.413973
0.579381
-0.888871
0.30949
0.0545348
-0.509438
0.129779
-1.00867
-0.455423
-0.539679
0.995102
-0.839633
0.0342881
0.805345
-1.00641
-0.704207
0.0133173
-0.260102
0.266902
-0.00679957
-0.869467
-0.296171
1.02859
0.349452
-0.180555
0.0805549
-0.305681
-0.154983
0.436126
0.142326
0.0967684
-0.359336
0.014619
-0.11583
0.101211
-0.179152
0.0280711
-0.0771984
0.0903676
-0.262914
0.475273
-0.974494
0.614578
0.359917
-0.0446292
0.177988
0.520494
0.194574
-0.0112074
-0.203854
0.268445
-0.426357
-0.240874
-0.496167
0.178576
0.317591
-0.0240334
-0.176912
0.200946
-0.380043
0.457182
-0.0858471
0.649018
0.524628
-0.272894
0.435649
-0.782578
0.410427
-0.499131
0.0887049
0.109439
-0.00866993
0.0996206
-0.00459255
-0.898092
0.550025
0.332616
0.454844
0.0142043
-0.182646
0.168442
-1.11658
0.445126
-0.178758
0.230651
-0.177526
-0.0144332
-0.205446
0.21988
-0.511003
0.201913
-0.914621
0.824947
0.761196
-0.253905
-0.179687
0.161849
0.017838
-0.105924
-0.0807557
-0.144296
-0.98982
0.402522
0.587298
-0.135938
0.123205
-0.0716393
0.286575
-0.214936
0.628336
-0.0213105
-0.00629164
-0.0572719
0.0635636
-0.244143
0.25737
0.049925
-0.181926
0.628473
-0.820306
0.87188
0.0516202
-0.506266