/*--------------------------------*- C++ -*----------------------------------*\
| =========                 |                                                 |
| \\      /  F ield         | OpenFOAM: The Open Source CFD Toolbox           |
|  \\    /   O peration     | Version:  2306                                  |
|   \\  /    A nd           | Website:  www.openfoam.com                      |
|    \\/     M anipulation  |                                                 |
\*---------------------------------------------------------------------------*/
FoamFile
{
    version     2.0;
    format      ascii;
    arch        "LSB;label=32;scalar=64";
    class       surfaceScalarField;
    location    "3.8";
    object      phi;
}
// * * * * * * * * * * * * * * * * * * * * * * * * * * * * * * * * * * * * * //

dimensions      [0 3 -1 0 0 0 0];

oriented        oriented;

internalField   nonuniform List<scalar> 
20045
(
1.1047
-1.31457
0.209868
-2.29143
1.00511
1.28632
0.335962
3.6083
-3.94426
0.25371
-0.12579
-0.12792
-1.87861
1.83579
0.0428155
-1.04158
4.11363
-3.07205
-2.34747
1.08391
1.26356
0.156219
0.958641
-1.11486
1.01762
0.985155
-2.00278
-1.30626
-0.446556
1.75282
0.126718
-0.519824
0.393106
4.27215
-2.40015
-1.872
0.901102
-0.875539
-0.0255631
-2.3366
1.84907
0.487534
-0.718656
2.41039
-1.69173
-2.01671
0.71045
-0.0809927
0.15781
-0.0768172
3.8389
-1.52729
-2.31161
-3.4531
4.84841
-1.39531
-1.52549
-0.123696
1.64919
0.0950205
-0.464049
0.369028
0.333872
0.56723
-0.513652
-1.77778
1.47789
1.39534
-2.87323
1.72559
0.152985
-1.87857
-1.64098
3.11887
-0.250536
0.296373
-0.0458372
-2.14033
4.35508
-2.21475
3.29966
-0.0473251
-3.25233
-4.3914
2.80453
1.58687
-2.35395
0.801535
1.55242
3.28069
-2.55858
-0.722109
-1.30771
2.78054
-1.47284
5.07016
-3.03446
-2.03571
-1.23896
1.39518
3.80019
-1.87268
-1.92751
2.08899
1.80397
-3.89296
-0.149884
0.898948
-0.749063
-10.4877
5.5544
4.93328
1.4338
1.05239
-2.48619
0.126173
0.906745
-1.03292
0.418341
-0.581051
0.16271
5.42732
-5.40226
-0.025054
2.79672
-0.86472
-1.932
1.15211
1.64461
2.28616
1.98599
-0.500814
0.742572
-0.241758
1.73601
1.41107
-3.14709
4.13925
-2.05026
0.338633
3.37301
-3.71164
2.62429
-4.39882
1.77453
6.76887
-4.3128
-2.45607
-1.41267
-2.43409
3.84676
-0.184961
-0.708544
0.893504
1.75934
0.189941
-1.94928
-1.55148
-0.327129
1.0193
1.87773
-2.89703
5.81909
1.15064
-6.96972
1.85862
-3.16633
3.44171
-3.52576
0.0840487
0.020669
-0.276101
0.255432
0.174818
3.26689
1.15679
-3.39865
2.24186
0.702323
-0.607302
2.15823
0.111526
-2.26976
2.10352
1.97027
-4.0738
0.127664
0.00318488
-0.130848
-1.37514
0.0993432
1.2758
1.89365
-0.876032
3.06776
-3.22992
0.162157
0.0587379
0.0689256
-1.43607
3.19541
-0.689707
-2.12478
2.81449
0.230483
-0.238393
0.00790984
2.558
0.709643
-3.26764
2.48818
-1.46888
-1.42596
3.98395
1.01799
-1.73664
0.417397
-0.709808
0.292411
3.52912
-2.32037
-1.20875
1.80343
2.10128
-3.90471
1.75693
-1.61108
-0.145859
2.96791
-1.81113
-4.1431
0.526935
3.61617
-0.0626797
1.16738
-0.68988
1.06313
-0.373253
3.10458
-1.15447
-1.95011
-3.19648
0.109474
3.08701
1.9245
0.550413
-2.47492
-1.68658
1.30984
0.376737
-3.75079
0.188827
3.56196
1.61377
-0.274786
-1.33898
0.8852
-1.37862
0.493417
-0.561084
-1.55126
2.11235
1.34198
-1.40708
0.0651006
2.24066
1.01974
-3.26041
-0.369947
0.119411
-0.27765
0.211065
0.0665847
2.69801
-1.26421
-0.1621
0.292695
-0.130595
2.58527
1.21493
-0.970044
-1.36655
-0.0981138
-0.179536
-1.90258
7.72166
0.25715
-0.94703
-0.432945
0.270845
0.775745
2.49972
-3.27547
6.02373
-9.55648
3.53275
-0.0834171
-1.03875
0.893865
0.144881
-0.629328
0.78194
-0.152612
3.02151
-2.2928
-0.728701
-1.12241
0.937447
3.23222
-3.99944
0.76722
-0.578786
0.828009
-0.249222
0.120747
-0.758881
0.638134
2.11646
-0.390875
3.95375
1.11641
-2.58726
1.89755
2.3336
-4.53776
2.20416
0.606688
3.23221
-0.330506
0.351175
-1.74667
1.44224
0.304423
-4.46395
0.207178
-1.30786
1.10068
3.93373
2.83514
2.46286
-3.15425
0.691387
3.13337
0.337141
-3.47051
-4.94089
4.04359
0.8973
0.430454
-2.48904
2.05859
6.98342
-3.04969
0.229623
0.51295
0.212141
-0.102456
-0.109686
-0.00629866
-0.0443223
0.0506209
2.29085
1.5967
-3.88755
2.4766
-2.15858
-0.318021
-0.511831
0.0253297
0.486501
-0.731795
-0.306951
4.93777
-2.60417
-1.44178
1.5534
-0.111623
2.21468
-3.97367
1.75899
1.60425
-3.01692
1.86767
1.55658
-3.42425
2.37757
1.15155
4.73828
-0.669888
-4.06839
1.27217
-3.24892
1.97675
2.69762
-2.402
-0.295624
-0.582498
0.624487
-0.0419892
-0.0891716
3.87385
-3.78468
3.40563
-0.105974
-3.29258
0.0993136
3.19327
-2.14832
1.88337
0.264954
3.49964
-1.69621
0.405257
1.35168
-2.51619
2.9378
-0.421611
-2.98427
3.32023
0.0545175
-0.902926
0.848408
1.30841
-1.38081
0.0723979
-0.0678486
-0.848877
0.916725
1.16735
0.963296
-2.13065
5.1045
-2.42879
-2.67572
-0.99598
0.928132
3.0438
-4.1352
1.0914
0.515161
-0.0968199
-6.21538
-1.79462
2.39353
-0.598907
-2.40159
1.89593
0.505668
-0.0373249
-0.255861
0.293186
0.646908
2.05071
-0.0830082
0.0767095
-0.12494
0.337081
-2.66833
0.152138
-2.97057
3.72352
-0.752954
-2.96806
3.31276
-0.344703
-2.21158
-1.3635
3.57508
-0.138461
0.509814
-0.371353
1.42226
-1.68231
0.26005
3.25319
0.216134
-3.46932
-0.0716723
-2.95857
3.03024
-2.02354
3.89122
0.930125
-2.43621
1.50609
-1.01235
4.24457
-3.56939
2.53468
1.03471
0.254749
-0.310946
0.0561963
1.51061
-3.78963
2.27902
-3.51668
1.37635
-3.07217
-0.796284
4.17217
-2.81059
-1.36157
-1.17808
1.30425
0.751658
-0.801529
0.0498705
-2.34483
-1.85961
4.20444
-3.36181
4.95775
-1.59594
7.93272
-5.07398
-2.85873
-0.0636545
-0.73518
0.798835
-0.769174
-4.68361
5.45278
0.443023
-0.316305
-2.51743
2.94788
-2.66695
-0.840428
3.50738
0.536314
0.134308
-0.670622
0.31286
-2.10748
-1.13497
-1.21899
3.31839
-0.185024
-0.746251
0.596366
-0.79577
0.949503
-0.153733
-1.52546
2.69281
-5.37943
4.61025
1.80951
0.495673
-2.30518
-2.98988
0.724634
2.26525
2.73935
5.19337
4.07564
-2.56503
2.952
-4.67047
1.71847
1.25994
-3.2441
1.98416
0.330491
-1.85598
-2.0445
2.82024
2.49569
-3.53728
0.379885
-1.74672
1.36684
-4.74372
2.39467
2.34905
-0.361218
-1.32536
0.766008
0.728154
-1.49416
2.47722
-0.759967
-1.71725
0.211703
-2.65078
2.56161
-1.13972
-0.302065
2.43755
3.28056
-3.60066
0.320107
-0.0514425
-0.635795
0.687237
2.50639
0.345127
-2.85152
1.12488
-1.85484
0.729954
1.09381
1.59926
-2.69307
2.82019
0.284396
2.52383
-1.59371
-0.544863
1.1847
-0.63984
3.33894
-1.12426
0.552331
-0.0447996
-0.507532
0.509954
-0.714692
0.204738
-0.624967
0.649739
-0.0247723
4.29468
-3.00616
-1.28853
1.15627
-4.51808
-0.69318
0.068213
-3.62235
0.980634
2.64171
4.17192
-1.39138
0.939066
-3.90963
6.05088
-3.14192
-2.90897
-0.0816643
0.617978
7.10213
-4.99584
-2.10629
-2.415
0.353516
2.06149
-4.07923
3.991
0.0882243
1.51991
-3.3971
1.87718
-0.146302
0.0350681
0.111234
-1.92602
2.33835
-0.412325
-0.147058
0.411989
-0.264931
-0.768039
0.189253
-0.759952
0.130623
-7.07485
-2.48164
3.55887
-2.75496
-0.803914
-0.19103
0.316675
-0.125645
2.21441
1.06628
1.24752
-0.867639
0.150748
1.15766
2.30589
1.86603
-2.15587
0.303764
1.85211
5.00391
2.09822
1.76884
0.641545
-0.390152
0.199122
-1.25884
-0.0863703
1.34521
-0.0450838
0.299833
-2.33813
3.43194
-1.29935
0.406516
0.892833
-3.74657
3.57933
0.167234
1.23615
2.6065
-3.84265
-0.505752
-0.681393
1.18714
2.98847
-3.35408
0.365602
-2.61593
-2.12779
4.56316
-3.49007
-1.07308
-0.50647
0.455027
3.54797
-2.02806
0.0981771
3.46069
-3.88537
2.78435
1.10102
7.83046
0.583745
-8.4142
2.85481
-0.0157206
-2.83909
-0.940947
-2.94443
3.62852
-2.09551
-1.53302
-0.813772
3.24882
-2.43505
1.86023
-3.10066
1.24044
0.245638
0.0599983
-0.305636
0.207017
-0.00578675
-0.20123
4.46034
-3.65022
-0.810115
-2.59568
-2.34522
3.22337
0.0571833
-3.37256
-0.374006
0.418661
0.091293
3.95987
-3.58931
-0.370561
0.0187519
0.732906
-2.14917
4.44001
1.29404
3.00064
4.60734
-3.08112
-1.52622
-3.71026
2.86984
3.11108
-4.26099
1.14991
-2.4671
-0.318272
2.78537
-1.00516
-0.784906
1.79006
3.81608
-0.772284
-0.34883
2.15834
0.452811
-0.400675
-2.15791
-2.45586
4.66987
-2.21401
-0.940605
0.144835
-0.529866
-0.0149968
0.401979
-4.48121
3.35425
-0.534058
1.79442
-1.02339
1.2951
-0.271719
0.0668433
0.186867
-1.81425
1.1683
0.645954
1.84953
1.17198
-0.441328
1.03663
-0.595303
1.82544
0.651155
0.768009
3.19186
2.33008
-0.405574
-1.01665
-1.97323
4.69229
-2.52402
-2.16827
3.9075
-4.90638
5.27051
-0.364125
3.12442
-3.4943
0.369878
-1.94708
1.386
-0.603717
0.0918865
-1.09747
-2.65332
1.2686
-2.41284
1.14423
1.85338
1.77514
2.71134
-3.64346
0.93212
1.01227
-2.38863
1.37636
-3.89075
0.694265
0.0365082
1.57726
-3.2942
4.00664
-0.712439
-0.816852
1.32541
-0.508561
-1.83197
-0.515505
-0.606132
-0.970842
1.57697
0.531273
0.00196945
-0.533242
-1.48357
-0.664749
1.37047
1.83638
-3.20685
5.52548
-0.521569
2.35416
-1.78901
-0.158072
2.06759
-1.05532
-2.99283
-0.576561
0.2962
-0.387365
0.0911659
3.19052
-1.45451
-2.03653
3.29066
-1.25413
-0.602117
0.720462
-0.118345
2.54376
-0.0665476
-5.08402
1.49471
-2.1914
3.96885
-1.77745
2.6111
-3.7848
1.1737
1.46708
3.09608
0.355122
-0.458746
0.103624
0.50361
-2.97071
2.49584
-3.80658
1.31073
0.225337
0.00514675
-0.32509
2.78795
3.46537
-0.111117
-1.80109
3.06104
0.649035
-4.10213
-3.86187
2.89878
0.963086
2.72814
-0.634622
-2.09352
3.77162
-0.783145
-1.99673
-1.85302
-1.6369
1.60119
-0.746302
-0.0832125
0.829515
1.3149
-1.43859
-3.1309
2.80581
4.26823
1.15909
-3.43165
1.39513
3.26422
-0.0408487
-0.259238
0.409646
-0.150408
-0.085198
-2.20493
2.29012
-3.59557
0.654519
2.94105
3.37164
-3.37164
-6.26955
4.48938
1.78016
1.08386
-1.52519
2.13593
-1.26316
-0.872775
-3.87295
4.00409
-0.131135
1.49473
-0.207526
-1.28721
1.20886
-0.361172
-0.847686
0.622304
-1.12806
-0.51668
3.47268
-3.3745
-3.17806
3.78161
-0.603552
-1.20784
2.57831
-0.164136
-0.0435699
0.207706
-1.48008
1.10474
0.37534
-1.52233
1.85282
4.24367
-3.22464
-1.01903
-0.434172
-1.98183
2.416
-1.11174
1.15688
-0.0451383
0.764809
-1.20149
0.43668
-4.49525
2.50185
1.99341
-0.16558
0.0397898
-0.390434
0.131196
0.0245344
0.210417
-0.234951
2.05189
2.40845
-0.232098
0.0679617
-0.428436
-0.81661
1.24505
-2.08393
3.38734
-1.30341
-0.166156
0.576692
-0.410537
2.0199
-0.935985
1.63668
1.55601
-3.19269
0.283337
-1.8346
0.372097
2.88109
1.8677
1.29301
-3.16071
2.03732
-1.56135
-0.47597
-4.04255
0.749967
-1.33097
0.678135
0.652831
1.43571
2.31165
-3.74736
-2.61447
2.2962
0.27744
-3.6369
3.35946
-0.609223
0.545568
0.282872
-0.339156
0.0562841
0.0889555
-1.3478
-0.220976
0.422928
-0.201951
-2.92808
-0.694263
2.42805
1.52205
0.358366
-1.88042
-0.675541
0.0734239
0.537505
-2.74142
2.20391
0.774194
2.01575
-2.78995
1.09104
-2.79952
3.30374
-0.504226
-2.94524
2.13147
0.239981
0.056392
-1.54281
-0.85878
-1.20487
0.256068
0.948804
-3.66667
1.58274
2.55526
-2.98943
0.29376
2.97046
-1.31015
1.33253
-0.022386
1.02294
-3.33396
2.31102
0.845009
-1.24539
0.400383
-1.29534
-3.78868
-2.80041
-0.167646
-1.47789
0.102749
0.406975
0.285126
-0.692101
1.62774
0.086512
-0.233156
0.146644
3.51977
-2.08406
-0.300295
-0.558073
0.858368
1.06802
0.920529
-1.98855
-1.33037
0.721145
-1.08227
-0.122601
1.29708
0.838847
-2.07773
-2.46003
0.374268
-0.0780682
2.37389
1.83546
0.494614
-3.30884
3.64747
0.224119
-1.44509
1.22097
-0.36165
-3.29824
3.65989
-0.315177
0.327421
-0.012244
-0.513568
0.375107
-1.23873
3.09896
3.34563
-2.07347
-1.36032
-0.453934
-0.118129
-1.72145
1.83958
1.3418
-3.55338
-0.240517
-1.83921
2.07973
-0.319053
-0.162292
0.481345
-2.51994
0.0321859
2.48775
3.33282
-1.92175
0.00675625
0.476368
-0.483124
-0.983909
-0.127832
0.889911
1.4632
-2.35311
0.616956
-0.754705
0.137749
2.26445
1.29024
-3.5547
-1.59352
3.83419
0.507435
0.0238374
-1.17826
-3.71508
4.89334
2.39951
2.53826
3.38487
-2.61067
-1.57583
0.969702
0.291654
-0.084637
-0.917349
4.02843
0.485505
-3.03568
2.55017
3.54977
-0.529254
-3.02052
-1.51644
2.49635
-0.979908
1.52366
-1.40745
-1.61783
3.02529
-0.22696
0.233739
-0.00677909
-1.11341
-1.9511
3.06451
-0.661859
-0.818218
0.281191
-0.318516
2.03908
-3.15248
-2.77987
-0.884288
3.66415
-0.0747607
-2.08543
2.1602
0.119662
4.14784
-4.35002
0.202184
0.919232
-0.374391
-0.544841
0.0403936
-1.35054
0.985787
1.12656
-1.39634
0.391184
-3.15944
3.97871
-0.819276
-1.5734
0.274052
4.13072
-1.75315
-4.15255
-1.24971
0.248404
0.33548
-0.583884
2.12191
-0.28645
-0.91196
1.00496
-0.0930033
0.25602
-0.403078
-4.26302
1.19084
3.47125
0.642381
-0.321071
1.08588
-0.98783
2.05585
3.70697
-0.234284
-0.943115
0.0311553
-0.431433
-2.69946
0.877091
1.00782
-0.953305
-3.67554
0.079963
-0.345916
0.963518
-0.118509
-4.01171
1.84206
2.16965
2.60205
0.465706
0.941001
-0.354591
-0.586411
1.21477
-1.13918
-0.0755966
-2.93046
1.05777
-4.41163
2.22024
0.786708
1.00352
-1.79023
-0.0685212
0.296106
-0.227585
4.27818
-0.0943072
-4.18387
0.835735
0.0591008
-0.894836
-0.572835
-1.17383
1.05473
-0.169528
0.305027
-0.336906
0.0318789
1.70403
-0.270172
-1.43385
-0.101698
0.406726
2.9828
-1.96306
-0.116644
-0.6692
0.785844
-4.06525
0.905814
-0.0280737
-0.347807
0.249693
-1.00109
2.52314
0.632821
-0.482072
1.10056
0.672501
-1.77306
1.75325
0.404981
1.40537
-1.18125
0.974019
-0.853272
0.502756
-1.31961
2.2751
-2.54689
0.271786
2.29358
-0.371142
-1.92244
-2.29283
-0.956095
-0.329281
-0.0606505
0.389932
1.21114
-1.43992
0.228781
4.33084
-0.103209
-4.22763
-0.307172
-0.0384443
0.345616
-2.01242
2.83996
-0.827547
1.98578
1.996
-3.98178
-0.0117268
-0.264374
-1.13456
1.89758
-0.763016
1.0109
0.36064
-1.37154
-3.65051
2.06241
1.58809
-0.332817
-0.00408893
-3.38481
0.604947
1.39727
-0.793652
-0.603616
1.66981
-2.30815
0.638343
-0.493828
-0.820743
0.464886
3.68295
3.29881
-0.603744
-2.69506
-3.21701
0.417495
1.28072
-2.29737
3.16448
-5.43186
2.26737
-0.503536
1.26954
-0.0148256
-1.42522
0.996787
-0.716765
0.923942
-0.337553
-3.8873
4.22485
1.83834
1.70963
-2.91208
3.11437
-0.202288
-0.200042
0.607017
-2.79392
-0.708064
-0.555672
0.623117
-0.0674456
3.70536
-0.357653
-3.3477
1.02063
0.257593
-1.27823
-0.465116
2.13493
-2.17886
-1.60754
3.78639
-3.27465
-1.01772
4.29237
1.71918
-1.51166
-0.207524
-1.00365
0.114554
0.889098
-0.287751
0.153933
0.133818
-3.75622
0.155154
3.60107
0.0754698
0.89416
-0.96963
3.06715
-3.42981
0.362662
-1.78333
1.82209
1.21913
-3.04122
0.0548505
-0.610522
0.527679
-2.17884
1.65116
3.23778
-4.25013
-3.78558
3.29988
0.485703
0.743891
-0.126935
2.4585
1.67223
-0.350559
-0.569422
0.919981
-0.0470643
0.752674
-0.70561
-1.12353
3.07536
-1.95184
0.769984
-2.25804
1.48806
4.02897
-3.85868
-0.170294
2.7673
-1.15495
-1.61235
0.149633
-1.0298
0.88017
-1.28087
-0.026985
-4.3054
3.78275
0.522647
0.21486
-4.52026
0.617251
2.53251
-3.14976
-2.1067
-1.54352
0.961288
-0.753705
-0.207583
-3.17113
-0.894126
-0.893984
0.638696
0.255288
0.0312311
1.09365
-3.85412
3.6552
0.198914
-0.666003
-0.0622515
-0.176142
0.8929
-0.0571652
-2.23181
0.305787
0.769881
-0.820471
0.0505906
-1.69368
1.96944
-0.275757
1.55987
-0.0651387
-1.12002
2.29945
0.244314
1.47363
0.991784
1.88522
-2.87701
-0.499456
1.92171
-2.73205
1.67975
1.0523
-0.287948
-0.0448692
3.53691
-1.69856
2.89359
-1.87065
-0.599082
-0.734602
1.33368
0.567287
-3.30839
2.74111
2.364
-2.43876
3.43403
-1.46913
-1.96489
-0.0287198
-2.2308
-0.501247
-0.517967
2.46129
-1.94332
0.0803646
-1.03643
3.98843
-4.15715
0.986028
0.306674
-0.0610368
-0.514008
-0.184541
0.67117
-0.0214312
-1.66879
-1.79962
3.39181
-0.903622
-0.313954
0.25932
0.0546336
0.174343
1.03452
-3.35576
-1.67645
5.03221
2.75142
1.06466
-0.025289
-0.668413
0.693702
3.27881
-0.304956
0.00198183
0.302974
-0.284817
2.55992
-1.56395
-3.84018
0.662114
-0.949673
0.0471089
0.902564
3.06531
2.98558
2.88057
-3.32653
0.445961
3.86382
0.165158
2.48323
-3.56463
1.0814
-3.22897
0.0025896
3.22638
-3.3996
4.3967
-0.997106
0.657212
-0.0277576
-0.629455
-1.18075
4.41852
-0.525259
-0.377414
0.902673
0.181266
-3.09335
2.22224
-0.242303
-1.97994
-3.63707
4.70425
-1.06718
-1.07224
2.37361
-1.30137
4.64618
-2.04816
-2.59802
0.14881
-2.39528
2.24647
-0.297951
-0.0412051
-1.57647
3.56225
-1.21779
-5.05176
3.56166
-0.950564
-0.817958
0.701314
-3.35283
0.123857
3.81995
-1.10861
0.116605
-4.25971
1.01559
-0.108847
0.910416
4.32428
-5.23469
2.19862
-0.677996
-1.52062
0.82671
-2.72274
1.89603
-0.756406
0.0462838
0.710122
-0.936339
-1.97681
2.91315
1.5093
-1.00654
-3.58463
3.43718
0.147454
0.525556
0.814651
-1.34021
0.325421
0.635867
-4.44326
5.24541
-0.802152
-0.276145
-0.0390328
1.78504
0.970685
-2.75573
1.66121
1.84712
-3.50833
0.819344
1.9088
-0.0865975
4.82488
-0.0343728
3.15054
-3.11616
-0.128535
-0.0376203
0.072617
0.134537
-0.207154
3.2465
-2.72409
-0.522416
1.53221
1.90182
0.233601
-0.131953
-0.101648
-0.976082
3.10106
-2.12498
-0.0360941
0.837115
-0.801021
0.646157
-2.46223
1.81608
-1.86171
-1.39265
3.25437
2.99463
-0.48824
0.986893
1.21173
1.08984
-3.70814
2.6183
1.21654
-3.19837
0.0619263
-0.282899
0.220972
0.83746
-0.150777
-0.686683
0.00202289
-0.299974
-0.239644
3.30355
-3.06391
-0.540534
3.91354
2.95048
-2.51496
-0.435525
2.63884
-2.08843
-1.91572
0.806067
1.10965
0.23361
-1.49677
-0.300606
0.805906
-0.505299
0.320389
0.620613
0.598937
2.90529
-3.50422
0.901041
0.802984
0.554817
-3.82946
-1.88161
0.805279
1.07633
-1.37025
-1.06326
2.4335
2.08098
-0.980418
-3.35582
2.14798
1.28372
-0.969649
-0.314067
-3.9469
3.95795
-0.0110435
-1.70212
1.98546
-1.97267
2.59768
-0.625008
-7.58203
8.9913
-1.40928
-0.0968747
0.907739
-0.810864
-0.313128
0.244607
-1.10057
-3.12427
6.53705
-3.41279
-2.16545
2.89009
1.94708
-2.18493
0.237847
0.697328
0.122365
-0.819694
-3.75532
2.59261
1.16271
0.000108026
0.281508
-0.281616
0.401716
1.92549
-3.04902
2.86145
-2.29417
-0.93045
-2.93142
-2.81036
2.77599
1.76435
0.13157
1.16649
0.531445
-1.69794
-1.42151
1.3518
0.0697138
1.16528
-2.09068
0.925397
-2.17795
-0.563191
2.74114
-1.53078
-0.523007
2.05379
-2.79557
-0.788729
3.5843
-0.0435568
0.740885
2.29036
0.95614
-6.66888
0.931454
5.73743
-0.28629
0.108773
0.177516
0.025534
0.875218
-1.07798
0.202758
-2.09575
-2.99816
0.820207
0.631923
0.898543
-0.748911
1.14775
2.55761
0.200896
-2.68994
0.160169
1.18181
-0.618482
0.764298
-0.145816
-2.69545
-2.20228
4.89772
3.46488
-2.37504
-1.96357
-0.216475
2.18004
0.575732
0.762519
-1.33825
0.00664133
4.42137
-2.83172
-1.58965
0.74996
2.54885
0.199064
-2.8193
-1.20155
4.02085
-1.50084
3.11356
-1.61272
-2.17688
-0.828843
3.00572
-1.95012
0.815554
-1.26731
-0.648408
4.65274
-2.06116
-2.59158
0.766331
-0.510588
-0.255742
1.24295
0.432571
-1.67552
-0.783738
0.859208
-0.552471
-0.283438
0.83591
0.0303856
-0.0879376
-0.908042
-0.0541493
2.74946
1.90328
-3.27484
8.82923
-1.05953
3.86406
0.451148
0.315183
-3.18674
1.00986
2.94797
-2.44436
-0.568563
-2.66764
0.655222
2.82565
-2.2084
2.57459
-2.65979
3.2947
-0.170274
-0.799945
-0.578672
-0.642992
-0.425706
1.0687
-1.29345
-0.113633
3.03034
0.512044
-3.54238
-0.141446
-0.986687
1.12813
0.047222
6.58762
-6.69378
0.106164
3.2769
-0.209758
-4.98589
4.795
0.190885
0.83329
-0.733947
-3.36255
-0.392762
-0.993551
3.89133
-0.108578
-0.239937
4.2279
-1.79415
-2.43375
-2.29724
-0.230178
2.52742
0.614841
1.82451
-2.43935
-2.81031
0.290375
-0.78824
-0.205133
0.993373
-1.88837
2.37388
0.683065
1.87922
-2.56228
-1.56647
0.744214
0.822257
-3.47577
0.34681
3.12896
-0.136985
2.99844
-0.975746
1.88502
0.882277
-0.763192
-0.567774
3.55565
-4.22554
0.673274
-1.12153
0.448258
0.154265
-0.165992
2.67759
0.0912401
-2.76883
2.82169
-3.88122
0.00200204
-0.148304
-2.03169
2.79535
-0.763662
-1.49662
2.0243
-0.0590412
1.15724
-1.0982
-0.34651
-0.0597846
0.406295
-0.36846
-0.145109
-1.14989
2.43062
1.33059
-0.543884
-0.687498
0.742348
-0.874793
-0.980042
0.024882
0.0101862
-0.840301
0.80628
0.034021
0.90513
-0.992592
0.0874622
-2.39612
3.10577
0.346298
-2.30987
-0.0405124
-1.13757
-0.135929
2.29906
-2.16313
1.35285
-1.43922
0.724516
-2.84424
2.11973
-4.28495
2.89655
1.3884
2.14314
-4.599
-3.76025
-0.0930753
-3.69251
0.851013
2.54079
-2.85991
-0.495912
0.707973
-5.61436
-1.75684
0.785997
0.280862
-0.173365
-0.107497
5.55153
-2.48622
3.2228
-0.72696
-0.920819
-0.727411
1.64823
-3.99602
1.72549
2.27052
-0.454691
-0.0651328
-1.1685
2.99059
0.716247
-0.382375
-2.47199
-0.831554
0.306295
-0.29693
-0.343166
0.640096
-0.493372
3.52371
-0.0679191
0.444197
-0.376278
3.97517
-4.78414
2.34753
2.43662
0.980307
0.885572
-1.86588
1.12801
-3.62858
2.50057
-2.22292
1.15068
-2.4059
-0.222269
1.46521
3.53152
-3.89317
1.73046
-0.719562
-1.45178
2.66832
-3.67642
2.49456
1.18186
0.880108
-2.93284
2.05273
-2.66572
2.93129
-0.265571
1.32593
-1.82539
0.0586466
0.624948
1.09423
-2.22329
-0.0970777
0.755613
-3.60878
0.328271
3.2805
0.92438
-3.22162
2.59214
-0.00408557
-2.41092
0.472159
2.5806
4.09173
-1.42874
-2.66299
-2.96336
1.12702
-2.49726
0.733787
-3.58411
3.35393
-2.62973
1.22228
1.83515
-1.49832
2.27591
-0.777586
-6.61493
2.77828
3.83665
-2.00952
-0.519462
0.20041
-3.89066
2.77685
1.11381
3.22945
-4.41019
-4.35952
-0.0837398
5.46878
-2.3043
4.50479
-1.57663
-2.92816
-0.10109
-0.653685
0.754775
-0.304848
1.64662
2.04723
-2.8013
1.30297
0.494585
1.01471
0.699292
1.52923
-2.22852
1.63455
-0.906395
-0.296396
-3.88575
4.18215
-1.39177
1.29376
-3.31731
-2.34714
-1.74332
4.09046
1.0506
-1.32539
-2.83552
0.966372
1.86915
0.0454144
0.284355
-0.329769
4.29247
-4.63002
0.282793
-2.31448
2.0624
0.782561
-2.84496
-0.329958
0.0160041
-3.28857
0.998994
2.28957
-3.25024
1.38852
1.56139
-3.06223
1.55081
-0.877533
0.0166225
0.0287918
-0.107231
3.65701
-2.27899
2.99128
-0.712293
3.25169
0.0169448
-3.26863
-3.10538
-0.0621357
-0.96125
0.177394
3.19425
0.586937
0.133525
-1.16462
-0.0860913
1.16995
1.9744
-0.960468
2.12575
-3.58992
-0.264192
-2.04342
1.93273
-6.92857
0.795722
0.730858
-1.52658
5.78761
-0.409972
-5.37764
-0.491839
0.464081
-1.39853
-3.0131
-2.96608
-0.528224
-1.18718
4.00888
-1.27611
1.92253
-0.646426
-4.01766
1.32222
-1.25216
1.95145
-2.3363
-1.67541
-1.34462
-0.925946
1.186
-2.46644
0.772754
4.51022
-0.618892
0.587542
-3.2546
2.66706
0.36934
0.815363
1.13129
3.86917
-3.59173
-0.208796
-0.894341
1.38776
-1.81513
2.1189
-1.90865
-2.661
0.855934
0.7598
-1.61573
-3.43266
0.0610218
-0.578304
3.01628
-2.43797
-0.935022
-4.05086
-2.52639
2.87152
4.66502
-2.11784
-2.54719
-0.260458
0.938593
3.60879
-1.582
-2.02678
1.09107
-1.17901
0.216982
-0.144365
-0.47218
-0.133901
0.606082
-0.491039
1.65753
-1.46571
4.69516
-0.0060113
-0.747694
-1.06884
-0.465635
1.53448
0.0398414
4.25263
1.61964
0.570194
-2.18984
-1.46807
2.35798
1.45767
1.64339
-1.42399
-0.457627
2.1333
-0.741866
-1.39144
0.000152331
-0.242223
0.242071
0.355426
-2.72531
2.36989
-3.55064
0.584563
0.893732
-5.61766
7.55039
-0.00900017
1.10007
0.665896
-1.942
-3.35281
1.71591
-3.59106
1.16227
-1.88841
0.366075
-1.47075
-2.43963
3.91038
-4.31963
-0.00901996
0.22488
-0.21586
3.08349
-2.55656
2.6566
-2.04175
0.42985
2.10142
-2.53128
0.448164
-1.2364
-0.890306
-3.00763
3.89794
1.38501
0.682817
-2.06783
-1.95334
3.432
-1.47866
3.58399
-2.64938
-0.93461
2.83976
0.18192
-3.02168
-1.79044
-2.99371
-1.21309
-0.264801
3.50446
3.47895
-0.0384028
0.451713
-0.41331
-2.56819
-0.720383
2.48659
2.36181
-2.05073
2.61181
-0.561076
-0.340363
0.342344
0.129517
1.30615
-1.43567
0.382409
-0.450328
-0.376699
-3.51396
-8.8925
1.29006
-0.00634465
-1.9881
0.853132
0.312054
2.73529
-3.04735
-1.96063
-0.271177
0.319657
5.20583
0.29575
-1.02755
-0.609964
-0.276123
0.886087
0.391884
-1.51251
1.12062
3.92735
-1.32085
5.19736
3.37129
-1.51791
3.52002
-2.22626
-0.535383
-0.982291
1.51767
2.80058
0.448233
-0.0630134
-2.74332
1.80698
3.64288
-3.60304
-1.65462
-1.92156
3.57618
-2.14705
-1.84897
-3.54731
3.5325
0.0148119
2.52291
-1.14256
0.716851
2.28664
1.08465
-2.15852
0.644836
1.51369
-1.23571
-1.99421
-2.72408
-0.874992
3.59908
4.0327
-1.28127
0.22017
-0.158243
2.32873
-3.72726
1.52939
-1.37641
-1.66904
2.69432
-1.02527
1.58357
1.9061
1.36538
-3.27149
3.78688
-2.24065
-1.54624
-1.67275
-2.90759
3.66958
-0.761992
2.96008
-2.37254
-1.15065
1.14165
1.60447
3.0417
-0.889643
0.788552
0.0984786
-0.0119667
3.60708
-2.01037
2.40643
3.1451
-1.69136
0.961925
0.72944
0.839221
-1.4383
2.75963
-0.0820406
3.15567
1.34912
-2.44922
-0.291449
2.74067
0.786038
-0.0677758
-0.718262
0.733816
0.185416
0.547032
-3.94663
-1.11971
1.20867
2.53518
-2.33825
-0.196931
0.609927
1.52338
-0.66684
0.31225
0.964067
0.981661
-1.94573
-1.57227
3.43089
-0.0235784
-1.46441
3.93369
-2.46927
-0.761653
1.28721
-0.88167
-0.684801
4.04657
-2.02807
-1.34449
3.4198
-2.29179
1.18849
-1.22901
-0.717348
0.620473
-1.18345
-0.631592
-0.0439492
1.95298
-0.666947
3.06687
-2.39993
-0.326546
0.35108
-1.02936
0.459934
-1.3907
0.177611
-4.81832
3.64005
0.910683
0.986897
-3.745
1.52649
2.21851
0.580814
0.482319
2.96669
1.98164
-4.94832
-0.508912
-0.0459656
0.554878
-0.834269
0.533974
3.1342
1.53082
2.92637
-2.61432
-3.82494
0.0670956
0.217135
-2.97795
1.65896
0.247696
1.03978
-1.28747
1.46608
-0.113226
-0.0809987
-1.21592
-0.475444
-4.46901
-1.44359
1.6772
-0.289057
-0.269015
2.06487
-1.96546
-0.0994133
0.775117
0.0311637
-0.293621
1.02179
-0.116655
3.0453
0.770399
-3.8157
0.1367
-0.433629
-0.943114
0.589611
0.353503
-1.3787
0.0283582
1.35034
1.14522
1.81115
-2.95637
0.943791
1.13719
2.50291
-0.0444647
-1.07794
1.57157
-1.65766
-0.594833
0.688715
-0.0938814
-3.04407
2.24778
3.13355
-2.45117
-0.682384
0.0652772
-0.618952
0.553675
3.33406
-3.5737
3.7188
0.313897
1.09612
1.56047
-0.614729
-0.0168633
-0.270996
0.723562
-0.452565
-1.92177
-0.536639
3.99642
-2.04603
-1.95039
3.2382
-2.46868
-0.769527
1.61509
-2.81262
1.19753
-0.162395
2.09505
-0.0274644
-0.646635
1.97016
-1.32352
0.390319
-0.661315
-6.34922
0.19266
0.251537
3.31658
0.0233406
-3.33993
-1.58213
-0.724785
0.106303
-0.158337
0.0263837
1.4776
1.31775
-0.278197
1.29883
-0.0216809
0.0215547
-0.246725
0.503875
-1.53275
1.9626
0.0656721
0.94215
-0.693177
-1.0326
3.24701
-0.00960121
2.07447
-0.586428
-0.547315
-0.974046
1.93811
-0.620582
2.97447
-2.35388
-2.94065
-0.44416
-1.23885
2.90911
-1.67026
-0.248864
0.441524
1.21512
-0.256477
-0.0821329
-0.927568
1.0097
-3.06284
1.03477
0.60749
-0.600733
1.80987
-5.16563
1.41684
-5.13192
-1.3878
2.78314
-1.19702
1.99886
-1.0172
0.0552901
-2.17575
2.53118
0.000797123
-0.636592
0.255559
-1.76722
-0.501347
-2.14258
2.64392
-0.56988
-1.82646
5.33704
-3.37731
-1.95973
-0.900906
0.336132
0.908411
0.0882408
-0.996652
-2.95362
0.674633
0.858948
-0.021488
-0.0245941
-0.548808
0.573402
1.91501
-3.15386
0.338154
1.6151
0.307993
-1.92309
-3.33332
2.71274
0.606214
0.155673
-0.761887
3.59161
-6.71587
-0.61017
0.00395302
0.606217
0.78915
-0.182935
0.0253913
2.71954
-1.9002
2.14074
1.94284
-0.999046
-3.47211
1.12497
-2.36955
2.08232
0.287226
1.86707
-3.5217
-1.87354
-1.22533
3.09887
0.328467
1.5549
-1.14602
0.938493
3.80151
-0.508487
-3.29302
0.00605679
-3.59598
2.39579
0.44397
2.14862
1.46016
-0.668407
-6.36673e-06
0.626791
-1.12226
-1.29058
0.045952
-0.240829
0.194877
0.117527
-2.84536
2.72783
-0.163447
1.08028
-0.916834
0.622766
-4.5155
3.89273
-0.147422
-2.01115
-0.0897485
-0.187204
2.36967
-1.2621
-0.804787
2.06689
-1.49926
-1.42882
1.72357
-0.963767
0.309298
0.0454291
-0.354727
-2.97222
-0.772777
-3.61439
-0.369559
-0.365039
0.734597
0.517015
1.23215
-1.74917
-0.142124
-0.107404
0.249529
0.344683
-2.12246
0.573106
-4.21018
-2.08183
-1.50492
3.58675
-3.38706
0.150798
3.23627
-4.25833
-2.85239
0.186665
-1.04707
1.08723
-0.0401534
-3.99777
-1.28243
4.32772
1.43441
-0.761908
0.304697
-1.27874
-0.671465
1.80866
0.629532
0.476098
-1.54494
0.0723627
-0.614998
0.542635
-0.51954
-0.0629579
-0.429124
0.494402
-1.04646
2.02677
-6.71441
3.12977
3.58463
-2.53902
2.19019
1.74258
0.85908
-0.0730415
-1.54388
-0.614636
-1.74823
-1.08729
-2.08656
0.788857
1.29771
0.0178634
0.363067
-0.380931
-1.55008
1.94196
-0.452638
2.71788
3.31333
-1.69368
1.91248
-3.41174
1.61455
-1.88394
0.269391
0.52646
-0.0500922
-0.414721
-0.0440249
-3.90695
2.4362
2.47922
0.758983
0.0589246
-0.781751
0.722827
-4.67445
1.69017
-0.285308
-0.429384
-0.757587
-0.050087
-0.870067
0.920154
-2.1498
0.8877
-3.70226
3.32556
3.22676
-1.16435
-0.896017
0.808
0.0880168
0.610352
-0.274873
-0.634764
-3.75417
2.12033
1.63384
-0.624785
0.578819
-0.376149
1.26011
-0.883964
3.6501
0.0687024
0.116882
0.310251
-0.427133
-0.987885
1.05356
0.121992
0.103345
3.07619
-6.99828
3.62091
0.24291
1.05052
-2.20499
3.32565
-0.145933
-3.17972
-0.5694
0.218614
0.350786
1.76258
-3.43137
-4.60002
4.39716
0.202867
-0.168395
-0.0189463
0.187341
-3.04477
3.11805
-0.0732772
-1.35953
2.08404
-1.068
1.83798
5.66884
-1.94889
-3.71995
0.119335
-0.484964
0.365629
-0.270507
-1.1911
-0.0897711
-1.17495
-0.0161519
0.355631
-1.17944
0.823814
-0.332498
3.34466
-3.01216
-3.38461
1.07999
2.30461
1.09567
3.18251
0.0726719
0.316317
-0.388988
2.04897
1.00947
-3.05844
0.272292
0.0085696
-1.08895
3.12597
-2.03702
-2.74899
0.299771
2.26435
1.09933
-2.97287
-0.00790828
-0.470738
0.478647
3.30575
-0.841995
-2.46375
1.19905
0.825606
-3.63349
1.83387
3.33124
-3.62763
-1.76417
0.201717
1.56246
-0.023694
0.0596617
0.312578
-0.37224
-0.41359
-0.201864
0.615454
-0.0351889
0.519627
-0.484438
0.061194
-0.142521
0.0813265
-2.12801
4.45674
-1.20187
1.08374
0.501849
-0.877998
1.41899
-2.08126
0.662271
-1.8657
-1.81072
-0.280522
-0.00722877
0.428291
0.000590912
-0.428882
2.62515
-1.97971
-0.645443
0.250309
2.28487
-0.943359
-0.47815
-2.20155
0.480093
1.45008
1.52725
-2.97734
-0.0483646
-0.0412489
0.0896136
-0.0968721
1.31165
0.844933
-0.255473
-0.58946
3.49982
-1.91724
-1.58258
-4.20959
0.322293
0.63054
-2.14599
0.24122
1.90477
3.39165
0.0737154
-0.259857
-0.0879499
-0.467088
0.0523668
-1.69125
2.80108
-1.10983
0.624614
0.0916326
-0.622143
0.158094
-0.939899
0.933888
-0.35678
0.318336
-0.374017
0.327826
0.0461911
2.76553
-1.74454
-1.02099
2.20462
1.72273
0.972969
0.183911
-0.881016
0.728404
-0.339203
-1.27187
-1.36342
-0.894623
-2.08311
1.43648
-0.0647361
0.218669
0.546184
0.242966
-0.137464
-0.0309305
3.02642
-3.09893
0.0725096
5.36983
-1.71424
0.918694
0.795546
0.474938
-1.36928
-5.76233
-3.19022
-0.956297
0.888521
-0.69258
-0.995681
1.68826
-2.92592
0.760466
0.771431
0.95725
-1.72868
1.54681
-0.161801
-0.849931
-1.66649
3.51361
-4.06495
-4.34926
1.01418
-1.96551
0.951328
-0.963189
1.25894
-1.99376
-2.68069
-0.113171
-0.233339
2.43746
-2.67492
0.769221
1.9057
-0.0436025
-1.19536
0.0588593
-1.28853
1.22967
-2.9742
-1.69627
-0.660363
0.664316
2.6445
1.43114
0.477442