/*--------------------------------*- C++ -*----------------------------------*\
| =========                 |                                                 |
| \\      /  F ield         | OpenFOAM: The Open Source CFD Toolbox           |
|  \\    /   O peration     | Version:  2306                                  |
|   \\  /    A nd           | Website:  www.openfoam.com                      |
|    \\/     M anipulation  |                                                 |
\*---------------------------------------------------------------------------*/
FoamFile
{
    version     2.0;
    format      ascii;
    arch        "LSB;label=32;scalar=64";
    class       surfaceScalarField;
    location    "2.9";
    object      phi;
}
// * * * * * * * * * * * * * * * * * * * * * * * * * * * * * * * * * * * * * //

dimensions      [0 3 -1 0 0 0 0];

oriented        oriented;

internalField   nonuniform List<scalar> 
20045
(
0.25491
-0.284072
0.0291615
-0.545812
0.200538
0.345274
0.144132
0.860417
-1.00455
0.0695188
-0.0942772
0.0247583
-0.433139
0.422105
0.0110337
-0.268393
1.0717
-0.803305
-0.523783
0.226063
0.29772
0.0358848
0.223362
-0.259247
0.239152
0.21906
-0.458213
-0.399348
-0.0744965
0.473845
0.167131
0.170313
-0.337444
1.09031
-0.560003
-0.530307
0.193414
-0.191635
-0.00177826
-0.646077
0.519523
0.126554
-0.167588
0.546452
-0.378864
-0.54845
0.149101
0.0262595
0.23115
-0.257409
0.442722
-0.372548
-0.0701739
-0.839526
1.23034
-0.390812
-0.377697
0.0138706
0.363827
0.220325
-0.206447
-0.0138772
0.068404
0.12501
-0.0753699
-0.470442
0.266057
0.36177
-0.627827
0.426739
0.0853511
-0.51209
-0.39431
0.660367
-0.0987928
0.0840102
0.0147826
-0.528565
1.03407
-0.505505
0.884578
0.109911
-0.994488
-0.996126
0.588506
0.40762
-0.0666146
-0.197216
0.263831
0.748128
-0.532856
-0.215272
-0.395858
0.68206
-0.286202
1.08863
-0.631469
-0.457159
-0.287875
0.32376
1.11663
-0.554717
-0.56191
0.727116
0.135366
-0.862481
-0.0315444
0.194151
-0.162607
-1.04104
0.403551
0.637492
0.312406
0.25752
-0.569926
0.0267407
0.205613
-0.232354
0.0683992
-0.0994882
0.031089
1.07923
-1.08276
0.00352407
0.743859
-0.264166
-0.479693
0.335627
0.408232
0.538327
0.551983
0.301273
-0.184434
-0.116839
0.623675
0.292956
-0.916631
0.94645
-0.219334
0.0575654
0.867722
-0.925288
0.652696
-1.10149
0.448795
0.945749
-0.702047
-0.243702
-0.511137
-0.516508
1.02765
-0.0444804
-0.160242
0.204722
0.446102
-0.130647
-0.315454
-0.357772
-0.0753663
0.0617143
0.722506
-0.78422
0.852141
0.0353908
-0.887532
0.356726
-0.752584
1.06986
-0.740737
-0.329125
0.123786
0.180235
-0.304022
0.410149
0.659713
0.498398
-0.885666
0.387267
0.18607
0.0342541
0.301288
0.140788
-0.442076
0.82038
0.138751
-0.959131
-0.0261216
0.0990911
-0.0729696
-0.339747
0.0688904
0.270857
0.435674
-0.196522
0.95536
-0.972132
0.0167725
-0.0579497
0.0318281
-0.019596
0.465698
-0.137117
-0.517917
0.655034
0.0569526
-0.0845405
0.0275879
0.905725
-0.138456
-0.767269
0.694708
-0.632994
-0.0515932
0.957318
0.224318
-0.391907
-0.278614
0.356659
-0.0780451
0.325838
-0.619708
0.29387
0.519823
0.603234
-1.12306
0.455369
-0.364297
-0.0910724
0.748289
-0.249891
-1.08568
0.189645
0.896032
0.0033501
0.25156
-0.254118
0.310083
-0.0559653
0.608749
-0.755693
0.146944
-0.802475
0.0366473
0.765828
0.526796
0.0702281
-0.597024
-0.441485
0.386738
0.0547472
-0.784464
-0.0934451
0.87791
0.374397
-0.0644615
-0.309935
0.205135
-0.303009
0.0978742
-0.0919283
-0.405821
0.49775
0.307343
-0.324291
0.016948
0.743678
0.204871
-0.948549
-0.0359449
-0.0628479
0.0150794
-0.143703
0.128624
0.620918
-0.308512
-0.0430532
0.257974
-0.21492
0.757368
0.359258
-0.259504
-0.386573
-0.178138
0.193217
-0.14532
0.997461
0.0180646
-0.272183
-0.271257
0.228204
0.222917
0.608164
-0.83108
0.641926
-0.944346
0.30242
0.0226586
-0.217147
0.18931
0.027837
-0.102672
0.131218
-0.0285452
0.643237
-0.46864
-0.174597
-0.256841
0.212361
0.667377
-1.06089
0.393513
-0.1015
0.171207
-0.0697073
0.023581
-0.127357
0.103776
0.576465
-0.149725
0.812665
0.275964
-0.594212
0.457094
0.695907
-1.02414
0.328236
0.361622
0.0810997
0.261341
-0.137555
-0.401232
0.328641
0.072591
-0.399117
0.048706
-0.302835
0.254129
0.682033
0.263716
0.570656
-0.727073
0.156417
0.815944
0.0793157
-0.895259
-1.0073
0.789972
0.217325
-0.245957
-0.284599
0.530556
1.00365
-0.321612
-0.369072
0.184638
0.243995
-0.192123
-0.0518716
-0.021593
-0.00765144
0.0292444
0.569884
0.401594
-0.971478
0.612752
-0.581733
-0.0310193
-0.173456
0.0892147
0.0842415
-0.155758
-0.061389
1.14568
-0.449771
-0.334493
0.3586
-0.0241064
0.592468
-0.967731
0.375263
0.284511
-0.795648
0.547064
0.27019
-0.817254
0.675124
-0.349286
0.977863
-0.134779
-0.843084
0.0996338
-0.605878
0.506244
0.973806
-0.746016
-0.227791
-0.140732
0.226798
-0.0860668
0.0241376
0.940753
-0.964891
1.06928
-0.184699
-0.827632
0.0273443
0.800288
-0.489868
0.427864
0.0620046
1.02018
-0.500354
0.158508
0.296862
-0.636363
0.770593
-0.13423
-0.691461
0.835593
0.0110706
-0.159475
0.148404
0.0642546
-0.0814696
0.0172151
-0.0156868
-0.195834
0.211521
0.882838
-0.0438669
-0.838971
1.24932
-0.61132
-0.638002
-0.229584
0.213897
0.345305
-0.716239
0.370935
0.0805543
-0.0121551
-0.847367
-0.49944
0.666558
-0.167118
-0.662093
0.512503
0.14959
-0.0105932
-0.0344279
0.0450211
0.295318
0.678488
-0.0504258
0.0288328
0.0761369
0.167858
-0.698595
0.0622317
-0.738661
0.930968
-0.192307
-0.672451
0.76883
-0.0963783
-0.612221
-0.4205
1.03272
0.0254166
-0.25515
0.229733
0.425579
-0.48586
0.0602807
0.714705
0.141807
-0.856512
0.0132374
-0.764526
0.751289
-0.406756
0.95382
0.206763
-0.558962
0.352199
-0.39057
1.05795
-0.843142
0.56284
0.280302
-0.0698507
0.0773614
-0.00751063
0.371846
-1.04882
0.676972
-0.844506
0.315941
-0.619603
-0.397179
0.943031
-0.598289
-0.344742
-0.275637
0.302377
0.128246
-0.135543
0.00729791
-0.776041
-0.203521
0.979562
-0.779731
1.09662
-0.316891
0.971443
-0.667665
-0.303778
0.0592569
-0.241278
0.182021
-0.218841
-0.528757
0.747598
-0.132552
0.299683
-0.448708
0.202751
-0.642339
-0.210336
0.852675
0.0926341
0.0257469
-0.118381
0.0854364
-0.584876
0.177866
-0.24448
0.86064
-0.0446965
-0.145587
0.114043
-0.135624
0.165284
-0.0296602
-0.130244
1.01308
-0.783821
0.564981
0.315497
-0.000275933
-0.315221
-0.701117
0.137817
0.5633
0.34244
0.629004
1.10047
-0.72862
0.667947
-1.08516
0.417209
0.258144
-0.659514
0.401369
0.0412569
-0.418954
-0.489782
0.712699
0.654587
-0.92298
0.193321
-0.64402
0.450699
-1.08178
0.584392
0.497389
-0.0427438
-0.398741
0.18117
0.152952
-0.334122
0.649073
-0.146894
-0.502179
0.284233
-0.645378
0.669515
-0.262453
-0.0720402
0.606983
0.981779
-0.919784
-0.0619945
-0.0117005
-0.133802
0.145503
0.674571
0.0762141
-0.750785
0.175053
0.135182
-0.310235
-0.0342839
0.578023
-0.543739
-0.186362
0.795111
0.579843
-0.37308
-0.0588719
0.15974
-0.100868
0.800398
-0.207929
0.0955471
-0.00788485
-0.0876622
0.176246
0.0599237
-0.23617
-0.107755
0.111603
-0.00384786
0.946319
-0.624531
-0.321788
0.228413
-1.00814
-0.117631
0.00987536
-0.876577
0.271878
0.604699
0.941636
-0.259576
0.242579
-0.98124
1.23885
-0.5854
-0.653453
-0.0121306
0.104765
0.925193
-0.377933
-0.54726
-0.613544
0.136716
0.476828
-0.96404
0.969881
-0.00584147
0.283204
-0.712556
0.429352
-0.0680238
0.020538
0.0474858
-0.473024
0.624118
-0.151094
0.0313926
-0.191572
0.160179
-0.156622
0.0551226
-0.119206
0.0165339
-0.663523
-0.280824
0.496604
-0.74861
0.252006
0.203704
-0.282505
0.0788016
0.435206
0.312921
0.556009
-0.362688
0.0167055
0.0475491
0.578775
0.362861
-0.502954
0.0186318
0.484322
0.290751
0.634443
0.392407
0.154045
0.271541
-0.0678373
-0.293253
-0.02076
0.314013
0.00740944
-0.0772602
-0.621634
0.58735
-0.219648
0.304128
-0.0844797
-0.89421
0.855573
0.0386369
-0.365785
0.337336
0.0284492
-0.19895
-0.127891
0.32684
0.763217
-0.828327
0.06511
-0.635488
-0.446293
1.22487
-0.852432
-0.372434
-0.097911
0.0862105
0.792539
-0.509335
-0.293188
0.789792
-0.0706286
-0.25832
0.328949
0.862448
-0.106572
-0.755876
0.993665
-0.143564
-0.850101
-0.364217
0.293588
0.839601
-0.48777
-0.351831
-0.155898
0.780497
-0.624598
0.455119
-0.616035
0.160915
-0.127062
-0.103326
0.230388
0.156997
0.0464682
-0.203465
1.10261
-0.853892
-0.248715
-0.542206
-0.465091
0.798487
0.183292
-0.813211
-0.0809984
-0.0570229
0.233269
0.217348
-0.837205
0.619857
0.00413235
0.124113
-0.540764
1.11065
0.339586
0.606734
1.02824
-0.653064
-0.375177
-0.773685
0.563349
0.764551
-1.13981
0.375256
-0.62826
-0.0373542
0.665614
-0.239065
-0.181034
0.420099
0.628707
-0.283402
0.036792
0.278705
0.247649
-0.0372675
-0.495588
-0.710476
1.00768
-0.297204
-0.155671
0.020047
-0.0600026
0.00113072
0.121832
-1.08587
0.618647
-0.80501
0.17041
-0.24666
0.349337
-0.102677
-0.00247741
0.0719962
-0.517924
0.353844
0.16408
0.360033
0.283204
-0.232316
0.433822
-0.201506
0.495686
0.117066
-0.62741
0.844759
0.578732
-0.0519363
-0.205977
-0.49514
0.963241
-0.66658
-0.296661
0.955746
-0.953725
0.333486
0.62024
0.798363
-0.860225
0.0618615
-0.44675
0.354821
-0.127078
-0.0463782
-0.14666
-0.637804
0.288597
-0.553953
0.265357
0.428586
0.411015
0.719395
-1.01676
0.297361
0.228842
-0.547899
0.319057
-0.970606
0.168131
0.00968152
0.364715
-0.640722
0.954144
-0.313421
-0.24794
0.313918
-0.0659781
-0.41663
-0.107153
-0.135237
-0.227584
0.362821
0.0912269
0.000709604
-0.0919365
-0.338711
-0.151157
0.367816
0.457445
-0.825261
0.885905
-0.595154
0.341607
-0.452714
0.00596379
0.472871
-0.244029
-0.681129
-0.162013
-0.130999
0.155735
-0.0247357
0.973319
-0.349643
-0.461172
0.759237
-0.298065
-0.124512
0.146782
-0.0222704
0.735813
-0.0867402
-0.276988
-0.560217
-0.506843
0.930158
-0.423315
0.665749
-1.04769
0.381936
0.474017
0.75085
0.0576673
-0.00967691
-0.0479904
0.0847911
-0.713051
0.685765
-1.04353
0.357764
0.0979484
-0.0409958
-0.073343
0.643999
-0.12703
0.745677
-0.396965
0.655109
0.193037
-1.03256
-0.95359
0.570143
0.383447
0.641095
-0.0995124
-0.541582
0.940319
-0.177102
-0.411733
-0.538746
-0.485698
0.40371
0.190427
-0.399034
0.208607
0.320976
-0.307106
-0.722235
0.648892
0.866557
0.212676
-0.793858
0.332686
0.968593
-0.170106
0.14322
-0.191326
0.0481055
-0.0200637
-0.593139
0.613202
-0.901595
0.168677
0.732917
0.734136
-0.734136
-0.297538
0.897069
-0.599531
0.279092
-0.511408
0.646583
-0.42377
-0.222813
-0.924773
0.955298
-0.0305244
0.347711
-0.0475694
-0.300142
0.270903
-0.104594
-0.166309
0.124014
-0.322963
-0.178645
0.519447
-0.812635
-0.828682
0.971907
-0.143224
-0.291768
0.659584
-0.146351
-0.0397285
0.186079
-0.132328
0.226222
-0.0938939
-0.377146
0.418403
0.967205
-0.767389
-0.199817
-0.105009
-0.507498
0.612508
-0.244033
0.259356
-0.0153227
0.134091
-0.282262
0.148171
-1.06545
0.450939
0.614515
-0.0702366
-0.0240406
0.196729
-0.0535085
0.0712642
0.204633
-0.275897
0.446262
0.656345
-0.241029
0.0946787
-0.0775288
-0.271711
0.34924
-0.490986
0.790353
-0.299367
-0.00771867
0.0796442
-0.0719255
0.443218
-0.217155
0.745036
0.0885563
-0.833592
0.0185411
-0.424363
0.0025174
0.712187
0.430277
0.304107
-0.734384
0.474532
-0.412753
-0.0617788
-1.01408
0.18645
-0.424825
0.201036
0.22379
0.366474
0.511303
-0.877777
-0.626092
0.588737
0.0484428
-0.91513
0.866687
-0.140072
0.199329
-0.0692431
0.0762585
-0.00701543
0.0215513
-0.314804
-0.19185
0.207049
-0.015199
-0.684489
-0.192087
0.621401
0.152597
0.0513848
-0.203982
-0.134211
0.00969879
0.1574
-0.708555
0.551155
0.174953
0.54207
-0.717023
0.289967
-0.710654
0.857196
-0.146542
-0.713221
0.557323
-0.000544108
0.0845543
-0.411344
-0.250749
-0.267023
0.0642175
0.202806
-0.862874
0.371888
0.654954
-0.759964
0.23798
0.730613
-0.306479
0.311015
-0.00453638
0.280912
-0.767579
0.486667
0.161799
-0.274898
0.113099
0.545396
-0.822384
-0.647977
-0.0244747
-0.322618
-0.0171292
-0.00796842
0.142638
-0.134669
0.331717
0.0184453
-0.048034
0.0295887
0.818613
-0.452139
-0.781911
0.94059
-0.158678
0.259786
0.193613
-0.453398
-0.371705
0.231634
-0.229402
-0.0376209
0.328164
0.318419
-0.273309
-0.750835
-0.147757
0.0167581
0.614845
0.409202
0.16953
-0.827065
0.88463
0.0523074
-0.425655
0.373347
-0.0872864
-0.828605
0.915891
0.0716348
-0.0737684
0.00213356
0.296539
-0.271122
-0.168872
0.623991
0.672481
-0.572847
-0.410161
-0.107763
-0.000722192
-0.412963
0.413685
0.404919
-1.01714
-0.0847995
-0.488979
0.573778
0.0345972
-0.158012
0.123415
-0.654787
0.048698
0.606089
0.962091
-0.669136
-0.0113106
0.0906254
-0.0793148
-0.220153
-0.0238802
0.189944
0.355017
-0.544961
0.0998769
-0.12636
0.0264832
0.65287
0.375433
-1.0283
-0.403391
1.14707
0.0872783
0.00394859
-0.248678
-0.5761
0.824778
0.414681
0.730997
0.862541
-0.687587
-0.361003
0.225767
0.241778
-0.0847817
-0.329236
1.09379
0.136624
-0.768449
0.631824
0.949797
-0.142235
-0.807562
-0.412543
0.692424
-0.279881
0.399162
-0.293934
-0.505528
0.799461
-0.309414
0.250909
0.0585054
-0.283935
-0.487103
0.771038
0.0857158
-0.218043
0.042277
-0.0528703
0.505924
-0.789858
-0.707485
-0.210431
0.917916
-0.0638352
-0.479411
0.543246
0.0163911
1.10146
-1.13595
0.0344871
0.217846
-0.139165
-0.0786817
0.00817914
-0.314658
0.257291
0.240459
-0.323269
0.0842045
-0.801011
1.0068
-0.205786
0.0376104
-0.257259
0.444066
0.231058
-0.833494
-0.249263
0.0926755
0.156062
-0.248737
0.541926
-0.132723
-0.202452
0.223512
-0.0210591
-0.169357
0.200749
-1.15818
0.538577
0.90754
0.164159
-0.120742
0.254833
-0.211176
0.470961
0.806247
-0.2868
-0.210772
0.00831925
-0.0990502
-0.623185
0.254015
0.214068
-0.202998
-0.915615
0.0140201
-0.115713
0.215664
-0.0538651
-1.01383
0.626556
0.387274
0.801281
0.154078
0.199223
-0.0684073
-0.130816
0.283389
-0.266285
-0.0171041
-0.863973
0.309256
-1.03004
0.523198
-0.298691
0.237628
0.0610636
0.0123694
-0.0663701
0.0540006
1.04737
-0.0100598
-1.03731
0.146625
0.00817938
-0.154804
-0.135104
-0.266129
0.233162
-0.0280272
-0.0446243
0.040106
0.00451828
0.395807
-0.0613857
-0.334422
-0.0147739
-0.0298504
0.848258
-0.643387
-0.0268771
-0.150017
0.176894
-1.01087
0.209856
0.00811828
0.0462956
-0.224434
-0.127516
0.280113
0.0145672
0.00213829
0.251892
0.156575
-0.408466
0.412863
-0.111575
0.403916
-0.351609
0.197101
-0.17352
0.0766836
-0.324624
0.631911
-0.134855
-0.497055
0.531116
-0.034229
-0.496887
-0.514936
-0.0909418
0.15683
0.0175765
-0.174407
0.36221
-0.443799
0.0815888
1.10681
-0.0401266
-1.06668
0.154157
-0.0263268
-0.12783
-0.490812
0.666957
-0.176145
0.466635
0.562957
-1.02959
-0.102449
0.282684
-0.265833
0.438155
-0.172322
0.224448
0.0911239
-0.315572
-0.826757
0.404402
0.422355
0.0354611
0.00464491
-0.845706
0.138221
0.311058
-0.185407
-0.125651
0.470884
-0.614354
0.143469
-0.0912182
-0.192853
0.151222
0.950238
0.824066
-0.136207
-0.687859
-0.832094
0.12144
0.337322
-0.543299
0.665939
-1.07764
0.411705
-0.106471
0.287642
0.0217224
-0.399836
0.322307
-0.165665
0.214371
-0.111022
-0.761104
0.872127
0.37973
0.41281
-0.738449
0.778087
-0.0396372
-0.143916
0.135948
-0.66579
-0.247692
-0.117843
0.132463
-0.0146208
0.159904
-0.343261
0.183357
0.0326809
0.0148815
-0.0475624
-0.0904517
0.561336
-0.722007
-0.237071
0.959078
-0.755764
-0.239197
0.994962
0.474951
-0.367987
-0.106963
-0.172386
0.0197624
0.152624
0.114488
-0.111636
-0.0028522
-0.970041
0.0416178
0.928423
0.0221858
0.194681
-0.216867
0.795034
-0.886154
0.0911203
-0.496144
0.394192
0.154297
-0.548488
0.0136583
-0.131501
-0.247639
-0.342279
0.589918
0.626929
-1.0175
-0.948876
0.825087
0.123789
0.115917
-0.0160401
0.680978
-0.236912
-0.0692937
-0.224108
0.293402
-0.00859183
0.126786
-0.118194
-0.284519
0.844079
-0.55956
0.832204
-0.735484
-0.0967201
1.02507
-0.967554
-0.0575157
0.790402
-0.364102
-0.426299
0.0401541
-0.229484
0.18933
-0.295274
-0.00756072
-0.956665
0.840277
0.116388
0.049109
-1.00577
-0.0288827
0.787776
-0.758893
-0.555365
-0.298526
0.197365
-0.166636
-0.0307291
-0.788339
-0.222528
-0.186583
0.126781
0.0598017
0.283372
-0.108319
-0.900579
0.854169
0.0464096
-0.211103
-0.0167205
-0.06782
0.158333
-0.0117079
-0.597462
0.124438
0.143637
-0.166004
0.0223669
-0.384622
0.370348
0.0142735
0.36383
-0.0161184
-0.259302
0.57642
0.159393
0.359953
0.0499892
0.311187
-0.361176
-0.135183
0.560762
-0.620974
0.39232
0.228654
0.0504451
-0.0149841
0.790915
-0.411185
0.632899
-0.351987
-0.207851
-0.191853
0.399704
0.278633
-0.742109
0.463477
0.550968
-0.614804
0.984162
-0.426211
-0.557951
-0.00394112
-0.516769
-0.104204
-0.743268
0.995278
-0.25201
-0.0344952
-0.245811
0.913757
-1.05482
0.266478
-0.236502
0.10944
-0.132015
-0.178582
0.114665
-0.00306245
-0.49006
-0.517298
1.13708
-0.442368
0.2102
-0.225061
0.0148608
0.058755
0.212148
-0.661654
-0.355996
1.01765
0.22993
0.398776
-0.00592007
-0.143876
0.149796
0.821373
0.102013
0.00642886
-0.108442
0.506902
0.125008
-0.363581
-0.998073
0.169391
-0.210373
0.00934934
0.201023
0.564174
0.674678
0.242306
0.104981
-0.347287
0.967705
0.0573642
0.588929
-0.839044
0.250114
-0.828155
0.000926191
0.827228
-0.771743
1.00199
-0.230247
0.140388
-0.00691518
-0.133473
-0.378259
1.00519
0.0487261
0.26241
-0.311136
0.0287845
-0.767234
0.226484
-0.0361699
-0.190314
-0.905881
1.17174
-0.265862
-0.247273
0.545451
-0.298178
1.16044
-0.510408
-0.650036
0.00703765
-0.606895
0.599858
0.0703331
0.00592543
-0.444894
0.911529
0.56355
-0.861088
1.00283
-0.337082
-0.1841
0.157223
-0.856493
0.0283379
1.0721
-0.352704
-0.0128461
-1.07283
0.228537
-0.0229243
0.257302
0.564962
-0.822264
0.554085
-0.129305
-0.42478
0.642706
-0.970499
0.327793
-0.1278
0.00962046
0.11818
-0.207414
-0.468682
0.676096
0.352421
-0.275738
-0.479817
0.0837316
0.396085
0.156294
0.260051
-0.416346
0.0772438
0.120121
-0.841176
0.996496
-0.15532
0.0635121
0.00812269
0.437647
0.206686
-0.644333
0.434032
0.372838
-0.80687
0.15249
0.488605
-0.0123009
0.990164
-0.000536034
0.78695
-0.786414
-0.00131869
-0.00639998
-0.00527812
0.0986041
-0.093326
0.657591
-0.569627
-0.0879634
0.443436
0.540725
0.285584
-0.251849
-0.0337351
-0.275627
0.795873
-0.520247
0.00667187
0.162597
-0.169269
0.299643
-0.676352
0.376709
-0.509553
-0.166626
0.676179
0.785886
-0.111315
0.295286
0.258799
-0.319381
0.072037
0.247344
0.297536
-0.805035
-0.0259111
0.238135
-0.212224
0.186516
-0.065896
-0.12062
0.00224908
0.068084
-0.0753977
0.698312
-0.622914
-0.104594
0.972316
0.759278
-0.618942
-0.140336
0.615703
-0.545475
-0.529924
0.181797
0.348127
-0.00428416
-0.419485
-0.203903
0.161831
0.0420717
0.0629852
0.136238
0.137185
0.73389
-0.871076
0.20941
0.186398
0.120615
-0.87638
-0.433852
0.177021
0.256831
-0.315474
-0.243655
0.559129
0.479075
-0.227184
-0.842126
0.550358
0.340687
-0.285833
-0.0548543
-0.532637
0.78774
-0.255103
-0.429424
0.447965
-0.436203
0.562645
-0.126442
-0.680178
0.938493
-0.258315
-0.0210986
0.199796
-0.178697
0.11132
-0.098951
-0.344377
-0.641483
0.974013
-0.332531
-0.535493
0.67331
0.506205
-0.512172
0.00596666
-0.0527539
-0.217787
0.270541
-1.04326
0.748777
0.294484
0.00464031
-0.06725
0.0626097
-0.0178323
0.548062
-0.83258
0.684941
-0.406308
-0.360341
-0.593249
-0.698651
0.698115
0.489516
0.0229873
0.344348
0.16984
-0.514188
-0.327273
0.306215
0.0210578
0.335106
-0.286995
-0.0481103
0.147248
-0.425533
0.278285
-0.195026
0.431521
-0.236495
-0.758836
-0.181523
0.940359
0.199606
-0.25236
0.489495
0.168096
-0.944059
0.708524
0.235534
0.255055
0.0204849
-0.27554
0.00341722
0.182555
-0.232061
0.0495066
-0.650774
-0.304452
0.4517
0.134468
0.198685
-0.158531
0.31003
-0.150126
0.211216
-0.495814
0.0335242
0.273819
-0.207582
-0.0436934
0.251275
-0.569496
-0.431359
1.00086
-0.10519
-0.214191
-0.516562
-0.0710012
0.587564
0.132575
0.17688
-0.309456
-0.0238302
1.12541
-0.736213
-0.3892
0.177397
0.646669
0.0270501
0.439954
-0.389626
-0.0503274
-0.267531
0.690262
-0.422731
-0.56978
-0.217624
0.787404
-0.449836
0.184003
-0.394202
-0.135722
1.00757
-0.450189
-0.557384
-0.23573
0.0192648
0.216465
0.373739
0.0652436
-0.438983
-0.16889
0.191076
-0.201228
0.479542
-0.278315
-0.0274505
-0.0213651
-0.208219
-0.0071021
0.558557
0.449016
-0.498537
0.902088
-0.285009
0.873515
-0.240583
0.00485339
-0.832875
0.263095
0.708719
-0.623928
-0.109339
-0.625357
0.134544
0.721085
-0.749967
0.683311
-0.703375
0.819818
-0.0214549
-0.188172
-0.114837
-0.258723
-0.0922944
0.351017
-0.295136
-0.029155
0.718474
0.133121
-0.851595
0.0167606
-0.247081
0.230321
0.00701512
0.353216
-0.965922
0.612706
0.853575
-0.0585412
-0.89618
0.917657
-0.0214763
0.207112
-0.138222
-0.947478
-0.0957822
-0.328017
0.871301
-0.0310239
0.273609
1.0661
-0.416796
-0.6493
-0.600963
-0.0589215
0.659885
0.0825667
0.509323
-0.59189
-0.694956
0.0401688
-0.180071
-0.125623
0.305693
-0.467786
0.60441
0.14314
0.507173
-0.650313
-0.657302
-0.00191735
0.659219
-0.900661
0.0840403
0.816621
0.167477
0.517464
-0.225197
0.502222
0.28818
-0.273022
-0.151803
0.716995
-0.851773
0.0502547
-0.353492
0.303237
-0.330357
0.227908
0.667806
0.0353847
-0.70319
0.599136
-0.884145
-0.00348499
-0.0645388
-0.357047
0.784962
-0.427915
-0.576852
0.329212
-0.0140175
0.270407
-0.25639
0.249431
-0.180904
-0.068527
0.248317
0.0482219
-0.247537
0.584859
-0.0539224
-0.244769
-0.149799
0.163458
0.359737
-0.224555
-0.0178061
0.0383441
-0.180332
0.174093
0.00623886
0.201475
-0.222926
0.0214509
-0.70705
0.568594
0.104189
-0.620751
-0.0115657
-0.264071
0.0297742
0.531054
-0.560828
0.315214
-0.335974
0.327608
-0.745203
0.417596
-0.412546
0.691184
-0.278639
0.255289
-0.965765
0.075737
-0.0253637
-0.923512
0.436383
0.700694
-0.731593
-0.110534
-0.660424
-0.293301
-0.403589
0.176005
0.0107779
0.098908
-0.109686
1.10895
-0.544772
0.912144
-0.226378
-0.222925
-0.152529
0.375454
-0.973662
0.381377
0.592285
0.324341
-0.154028
-0.13735
0.531541
0.156645
-0.0882414
-0.293748
0.286403
-0.237677
-0.250374
0.390189
-0.139814
-0.104128
0.822602
0.177039
-0.223662
0.046623
0.878882
-1.20663
0.568503
0.638126
0.230746
0.194583
-0.425329
0.402126
-0.456631
0.0545053
-0.512241
0.264968
-0.307921
-0.0058088
0.379548
0.88477
-0.972056
0.396014
-0.171566
-0.379026
0.676562
-1.00149
0.709913
0.291582
0.332459
-0.712472
0.380013
-0.6888
0.72754
-0.0387405
0.387118
-0.522301
0.0138191
0.216317
0.258634
-0.0188209
-0.600887
0.198926
-0.892376
0.364818
0.527558
0.240209
-0.841172
0.734372
-0.0416716
-0.571872
0.139253
0.277869
1.01757
-0.339573
-0.677996
-0.392144
0.259388
-0.574862
0.150309
-0.933865
0.874943
-0.680389
0.386456
0.463182
-0.77553
0.668054
0.107476
-0.912605
0.605916
0.30669
-0.314353
-0.111786
0.146383
-0.96779
0.68305
0.28474
0.611545
-0.989805
-0.828131
-0.0130453
1.06918
-0.403239
0.202722
0.332888
-0.53561
-0.0204927
-0.128795
0.149288
0.106653
0.481431
0.527787
-0.755289
-0.0202408
0.161028
0.191393
0.221017
0.339425
-0.560442
0.366819
-0.213867
-0.0643491
-1.00721
1.07156
-0.332132
0.387181
-0.793937
-0.558912
-0.391172
0.950084
0.24204
-0.306501
-0.656729
0.211504
0.445225
-0.00253602
0.0144112
-0.0118752
0.80967
-0.920693
0.424147
-0.781194
0.463356
0.228231
-0.691587
0.238134
-0.0279336
-0.783253
0.22579
0.557463
-0.708542
0.19899
0.418685
-0.686216
0.394067
-0.343812
-0.00119111
-0.00134491
-0.0382933
0.988091
-0.589715
0.729668
-0.139953
0.951591
-0.000374775
-0.951216
-0.734167
-0.00386698
-0.242793
0.0637201
0.670416
0.11804
0.0287427
-0.0102532
-0.11157
0.390663
0.483652
0.0938298
0.241276
-0.831297
-0.0692821
-0.873512
0.427873
-0.805806
0.169415
0.177085
-0.3465
0.854072
0.0498759
-0.903948
-0.0999942
0.093079
-0.323564
-0.706477
-0.749973
-0.110252
-0.308582
0.907717
-0.316342
0.440373
-0.124031
-0.823448
0.253951
-0.264784
0.485801
-0.403638
-0.610191
-0.247981
-0.284242
0.344523
-0.453687
0.0690656
1.00279
-0.131486
0.504521
-0.504417
-0.000103997
0.0877705
0.071969
0.246772
0.985208
-0.936766
0.00325125
-0.209631
0.307505
-0.474225
0.492856
-0.434101
-0.499103
0.200677
0.170167
-0.370844
-0.766462
0.0323256
-0.104946
0.73125
-0.626304
-0.100658
-0.795522
-0.672048
0.748262
1.15362
-0.496183
-0.657434
-0.109816
0.310852
0.830926
-0.430439
-0.400487
0.250138
-0.271504
0.105889
-0.111167
-0.18889
0.0315581
0.157332
-0.153799
0.498147
-0.390512
1.00206
-0.0222491
-0.144387
-0.258772
-0.0810292
0.339801
-0.00944828
0.819119
0.200715
0.14077
-0.341485
-0.354408
0.544353
0.397231
0.398642
-0.331671
-0.102181
0.492626
-0.175296
-0.317331
-0.00889972
-0.00894849
0.0178482
0.0776751
-0.730637
0.652962
-0.874213
0.12424
0.204587
-0.389534
0.817406
-0.00370146
0.25384
0.122084
-0.438426
-0.990083
0.504386
-0.922117
0.310797
-0.426553
0.0494066
-0.386252
-0.557568
0.94382
-0.954356
-0.110691
0.00294936
0.107742
0.804655
-0.615009
0.658119
-0.575552
0.141795
0.50118
-0.642975
0.183832
-0.363903
-0.68226
-0.252005
0.934265
-0.131789
0.316565
-0.184775
-0.399668
0.786654
-0.386986
0.815089
-0.527542
-0.287547
0.807175
0.0237754
-0.830951
-0.480154
-0.726476
-0.303034
-0.0195839
0.360358
0.643287
-0.0109381
0.0868478
-0.0759096
-0.627137
-0.156116
0.663091
0.567246
-0.503805
0.612768
-0.108962
0.138172
-0.131743
0.140724
0.371809
-0.512533
-0.0448674
0.221906
-0.102806
-0.864984
-0.888071
0.365127
-0.0244401
-0.141327
0.319193
0.0780061
0.690535
-0.768541
-0.482123
-0.115339
0.622636
0.263269
0.0650515
-0.220809
0.150116
-0.416549
0.266432
0.0941813
-0.347886
0.253705
0.121087
0.216249
0.236644
0.784637
-0.356052
0.861953
-0.474772
-0.109211
-0.232389
0.3416
0.711518
0.0689781
0.0297534
-0.635496
0.428082
0.546529
-0.555978
-0.444142
-0.383021
0.827164
-0.560892
-0.41277
-0.914345
0.939793
-0.0254483
-0.100955
-0.356593
0.264299
0.532956
0.251681
0.0774301
-0.295549
0.218119
-0.321911
-0.650221
-0.174634
-0.705414
0.880048
0.545854
-0.315923
-0.270381
0.24447
0.547698
-0.871262
0.432178
-0.346827
-0.388184
0.949138
-0.560953
0.391247
0.474775
0.287448
-0.762224
0.963448
-0.596617
-0.366831
-0.333547
-0.714326
1.01968
-0.305358
0.526436
-0.0219143
-0.265272
0.26157
0.397468
0.762976
-0.193728
0.173235
0.0376993
-0.019254
0.9032
-0.501606
0.432331
0.676615
-0.381441
0.202557
0.178884
0.231383
-0.439234
0.705031
-0.0372259
0.684639
-0.481917
-0.648637
-0.07421
0.722847
0.174473
-0.0274661
-0.147007
0.135619
0.0822276
0.141438
-0.913182
-0.261497
0.283048
0.647407
-0.573987
-0.0734197
0.144101
0.348525
-0.139344
0.0709363
0.223319
0.225491
-0.44881
-0.437992
0.794718
0.0130743
-0.448184
1.04345
-0.595271
-0.249885
0.406179
-0.0941734
-0.563129
1.04893
-0.49851
-0.314701
0.510543
-0.108418
0.275943
-0.287509
-0.143724
0.122626
-0.273945
-0.12865
-0.00556092
0.505854
-0.141474
0.765583
-0.624109
-0.25256
0.323824
-0.320293
0.0961845
-0.30279
-0.000244628
-0.867908
0.619229
0.212894
0.225262
0.0962832
-0.337834
0.241551
0.2466
0.0634835
0.777318
0.434137
-1.21145
-0.0933632
-0.0156166
0.10898
-0.0670776
-0.714834
0.755037
0.39858
0.737409
-0.659403
-1.04356
0.00639961
0.0969893
-0.118195
0.431604
0.616756
0.271008
-0.887763
0.342315
-0.0271007
-0.0266786
-0.294172
-0.0872692
-0.526519
-0.463178
0.458894
0.28307
0.65752
0.540376
-0.53416
-0.0062168
0.166135
0.00795863
-0.0692005
0.230324
-0.0288488
0.722629
0.174573
-0.897202
-0.512235
0.26186
-0.209652
0.130313
0.0793383
-0.317647
0.00444119
0.313206
0.409165
0.36549
-0.774655
0.216009
0.263066
0.645477
-0.0131291
-0.243712
0.34641
-0.45798
-0.0612278
0.0832863
-0.0220584
-0.910292
0.513113
0.780993
-0.623642
-0.157351
0.0115575
-0.121122
0.109565
0.794588
-0.869986
0.695054
-0.1492
0.206503
0.451616
-0.118889
-0.00976118
0.466873
-0.264745
-0.202128
-0.521469
-0.107879
0.996094
-0.507667
-0.488427
0.920793
-0.556352
-0.364441
0.371956
-0.647296
0.27534
0.0288546
0.481531
-0.00865948
-0.110794
0.496472
-0.385678
0.242886
0.223987
-0.321423
-0.202105
-0.0215567
0.706897
0.00390419
-0.710801
-0.343893
-0.0351677
-0.172414
-0.282472
0.0306235
0.161268
0.623694
-0.141452
0.174133
-0.0363967
0.00515694
-0.118054
0.136119
-0.360251
0.502046
0.0131458
0.200923
-0.248917
-0.296059
0.731266
-0.0230525
0.563429
-0.130721
-0.104301
-0.223381
0.4467
-0.191428
0.75262
-0.561192
-0.745612
-0.100094
-0.366239
0.721186
-0.354948
0.0337933
-0.235898
0.282847
-0.0594849
-0.0196245
-0.212433
0.232058
-0.743478
0.244968
0.104569
-0.115879
0.438554
-1.10021
0.29491
-0.87101
-0.223613
0.585383
-0.300042
0.460581
-0.23509
0.0131391
-0.597237
0.674912
0.00199923
-0.135801
0.121315
-0.489303
-0.0834987
-0.550596
0.634094
0.275238
0.268432
1.10976
-0.72261
-0.387148
-0.202912
0.0552919
0.186025
0.0203183
-0.206343
-0.725131
0.135416
0.168589
0.0179265
-0.00499103
-0.110679
0.11567
0.395422
-0.761661
0.0757607
0.400823
0.0347839
-0.435607
-0.836159
0.644732
0.122843
0.0342653
-0.157109
0.320457
-0.96194
-0.127182
-0.000449939
0.127632
0.157257
-0.0344131
0.00186545
0.651161
-0.498671
0.540371
0.447699
-0.23169
-0.804673
0.245761
-0.615727
0.491069
0.124658
0.383335
-0.827477
-0.439255
-0.277739
0.716994
0.0760221
0.351841
-0.267902
0.220332
0.984837
-0.132112
-0.852725
0.00636967
-0.837666
0.734889
0.072286
0.417311
0.413615
-0.142232
-0.00164402
0.124168
-0.259657
-0.294296
0.030605
-0.110767
0.0801617
0.0208766
-0.718517
0.69764
-0.0415206
0.246552
-0.205032
0.268528
-0.81579
0.547262
-0.0965271
-0.485206
-0.0254716
-0.017429
0.603773
-0.297354
-0.177956
0.47531
-0.326181
-0.358309
0.395552
-0.225385
-0.186148
-0.0120708
0.198219
-0.253044
0.349328
-0.856894
-0.114615
-0.035386
0.150001
0.105329
0.27948
-0.384809
0.622788
-0.878676
0.255888
0.0250623
-0.495504
0.13914
-1.04502
-0.452639
-0.561333
1.01397
-0.847877
0.0349233
0.812954
-1.11397
-0.71477
0.0259701
-0.237317
0.245219
-0.00790162
-0.90687
-0.305485
1.02811
0.331939
-0.175364
0.0709028
-0.294284
-0.153797
0.416863
0.131868
0.0827969
-0.341569
0.0131781
-0.1018
0.0886214
-0.193492
0.0527599
-0.0698595
0.081417
-0.232236
0.462983
-0.95477
0.606994
0.347777
-0.330343
0.367135
0.53205
0.180004
-0.00553119
-0.231556
0.308986
-0.419618
-0.237111
-0.479709
0.176255
0.303454
-0.0155858
-0.146983
0.162568
-0.350932
0.445113
-0.0722327
0.635533
0.550811
-0.350096
0.480567
-0.806748
0.395159
-0.518353
0.123195
0.0946182
-0.00399277
-0.0266013
0.0169244
-0.938614
0.552362
0.553296
0.367497
0.0141005
-0.168283
0.154182
-1.15732
0.465855
-0.177834
0.237758
-0.169076
-0.0137479
-0.194876
0.208623
-0.493908
0.196555
-0.91927
0.816464
0.777488
-0.314131
-0.153999
0.137906
0.0160931
0.250639
-0.0945773
-0.132173
-0.984422
0.392532
0.59189
-0.123717
0.1081
-0.0605361
0.24386
-0.183323
0.43784
0.257214
0.00380741
0.236872
-0.240679
-0.22471
0.237856
0.0090904
0.088858
0.593803
-0.78675