/*--------------------------------*- C++ -*----------------------------------*\
| =========                 |                                                 |
| \\      /  F ield         | OpenFOAM: The Open Source CFD Toolbox           |
|  \\    /   O peration     | Version:  2306                                  |
|   \\  /    A nd           | Website:  www.openfoam.com                      |
|    \\/     M anipulation  |                                                 |
\*---------------------------------------------------------------------------*/
FoamFile
{
    version     2.0;
    format      ascii;
    arch        "LSB;label=32;scalar=64";
    class       volScalarField;
    location    "0.4";
    object      p;
}
// * * * * * * * * * * * * * * * * * * * * * * * * * * * * * * * * * * * * * //

dimensions      [0 2 -2 0 0 0 0];

internalField   nonuniform List<scalar> 
13486
(
2.42709
2.08702
0.359421
-0.487386
0.506088
0.616422
0.139563
1.18928
1.59068
1.22905
-0.106349
0.648507
2.56894
0.456037
0.567547
1.32414
-0.646247
0.56921
0.769891
2.19194
-0.146659
2.54314
2.04127
0.223257
1.22304
0.234751
-0.228997
0.336593
0.0405997
0.266117
0.406416
0.615418
0.167545
0.300242
1.19412
0.0562031
0.264287
1.96562
0.311041
1.62214
-1.10091
2.68064
-0.000710918
1.2257
1.21261
0.630185
-0.643255
0.200259
0.250923
0.392086
1.73576
0.282133
0.551429
1.98973
0.538465
0.610497
0.162631
0.254832
0.190708
0.26575
-0.0391785
0.134004
-0.281698
-0.0860628
0.374435
0.280043
-0.290312
2.47551
1.57293
0.113986
-0.302516
0.521282
1.63993
-2.3272
0.318514
0.169404
0.194589
0.522548
-0.542559
0.379606
-0.0536173
2.10437
-0.355705
0.328136
2.43983
1.50724
0.336722
1.58857
1.82335
1.35479
0.634089
1.00011
2.33581
2.16976
1.6382
0.0881583
-0.216246
-0.0794835
1.57367
-0.611688
-0.10302
0.450357
-0.0497306
0.262433
1.71311
-0.60473
1.75751
0.343961
-0.588747
0.725307
1.47613
0.461572
1.98704
0.161924
2.90526
1.56564
1.17975
0.319984
1.6959
0.20344
0.556459
-0.0536812
1.72888
0.307704
1.47156
0.245938
1.04107
0.963576
0.263587
0.370993
0.251176
-0.638342
-1.88043
-7.96142
1.71285
1.56925
3.14343
0.798086
0.205148
1.27557
0.157707
0.51387
0.706263
0.363907
0.184466
-0.0805744
0.485281
2.49468
0.275413
-0.119889
1.27589
0.346094
-0.0597374
2.14009
0.994806
0.360526
0.382088
-0.719529
1.73799
0.348418
0.41531
1.73674
0.567521
2.66761
0.308329
0.239173
0.650929
3.42088
0.488563
-6.98552
-1.63337
0.886623
1.46503
0.917323
0.11187
0.183448
0.148356
0.0915295
1.8507
0.686198
1.51117
0.167573
0.765521
0.00370653
0.483569
0.376148
-0.139659
0.261279
-0.903688
1.67845
0.213997
0.325388
0.388186
2.358
0.360547
-0.119348
0.388159
0.294766
2.19824
0.291797
0.42544
0.99187
1.97053
-0.117972
0.308647
0.367313
0.541594
1.79007
0.215687
0.507094
0.153346
0.278812
2.16922
1.84335
0.627819
0.394805
0.267182
1.38624
2.18789
-0.443432
-0.649399
0.249704
1.31509
0.258282
0.634241
2.38637
0.412306
0.337021
0.356835
0.352572
1.5106
-3.39084
0.190186
2.74394
0.0236759
2.28809
0.298528
0.273689
2.31574
0.779487
0.172582
1.44821
0.182537
2.17841
0.35808
1.96238
0.895635
0.181358
-1.90939
1.28136
0.0635369
2.94483
1.48835
0.319009
0.383143
0.167667
0.590848
0.443014
-0.564979
0.163557
1.92203
0.334946
0.574194
0.156757
0.486934
0.00285193
0.338703
0.317588
1.54443
0.529871
1.93643
1.82342
0.223411
0.564432
2.39148
0.18599
0.398964
0.46017
0.287273
0.426837
0.454834
1.34177
1.79646
0.114415
-0.0438732
-0.410167
0.170603
0.358216
0.629411
1.65911
-0.0238985
0.428572
1.64148
1.70632
0.321819
0.281383
0.315786
0.663395
1.8753
-0.388459
0.575493
0.530751
0.415544
0.621059
0.215496
-0.0797838
-4.21946
0.905842
0.347238
0.223628
-7.04683
-0.584094
0.364773
0.483538
-0.00636628
1.60886
0.409879
1.82006
1.79897
0.391068
0.237741
0.314263
1.77686
2.14343
3.07538
0.628652
0.93415
1.32079
0.566262
0.850172
1.64682
0.909305
0.650243
2.35459
0.0591213
1.54721
3.00305
0.388312
1.30682
0.351621
0.232734
2.12695
0.805221
0.773511
0.00752826
0.0615721
1.17679
2.88532
-0.409208
0.429158
1.14763
0.610654
0.535752
-0.197078
1.85724
0.0191084
-2.52454
1.05906
0.425386
0.313061
0.701735
0.65882
1.91961
1.81667
0.281046
0.0244715
0.295347
-0.750833
2.23248
1.1236
-0.0262429
1.10072
0.621036
0.062127
0.580465
1.73224
1.92705
0.394373
-0.00348085
-1.58138
1.60847
0.855896
2.5874
2.01988
-0.733229
0.392278
0.739519
1.31886
-1.00141
0.272914
2.13557
0.265479
1.17449
2.31279
2.50588
0.197512
-0.429037
0.0551618
-0.897404
0.110477
-0.962712
0.889651
1.5166
-3.95397
0.194536
0.428147
2.10465
0.0547016
1.17171
1.98363
1.24707
-0.661681
0.253455
1.86246
1.90614
2.31173
-0.00133855
0.52128
-1.44998
0.855888
1.84969
0.47031
2.89417
1.45146
0.513385
0.278508
0.994145
1.80931
-0.257677
0.665756
2.52
1.47578
1.18874
0.611258
0.237998
0.276991
2.57763
0.422595
0.92667
2.43319
-0.8407
0.176758
-10.2698
0.276141
0.358415
1.88346
2.19597
2.53018
-1.49055
0.231487
0.00626152
1.40634
1.79978
0.376646
-0.477056
1.80917
0.0287213
0.184951
0.122122
-0.0727773
0.453873
2.03352
0.0969239
0.680494
-0.455302
1.79605
0.0606308
3.20192
2.35472
1.65955
1.1005
-0.071538
0.000911587
2.98172
0.305231
0.221331
0.427018
1.56641
-0.436333
0.624203
1.57077
0.169001
0.194807
1.98757
-0.171129
-0.821024
1.4266
0.338433
3.40798
1.4235
1.82961
1.7816
0.166945
0.360048
2.78144
0.36548
2.18574
-0.301011
0.940078
0.324664
0.468741
0.083918
-0.552053
1.78603
1.52295
0.0719484
-0.116988
0.562944
2.5154
1.91279
0.407563
1.56049
1.10553
0.202577
0.422478
1.83584
-1.54724
2.5315
0.198699
0.139821
2.64726
0.828903
0.259846
0.967165
0.363937
0.00261255
0.706015
0.634408
1.75175
2.33088
-0.0760321
0.235429
-0.0972789
0.0942664
2.27513
1.09871
-0.00435018
-0.0116487
0.484029
-0.680886
1.1699
0.386611
-0.376268
1.56535
2.316
0.408004
1.89537
-0.122009
0.06017
-1.08648
1.25393
-0.0122205
1.84117
0.52092
-0.00801943
1.30157
1.86399
0.187586
-0.0773163
1.75894
2.25654
0.942895
2.44135
0.341666
1.49756
0.901979
1.84562
0.155728
2.19433
-0.206982
0.886123
1.46628
0.312662
0.304719
1.80433
-0.899149
0.58775
2.13569
2.54105
0.446989
-0.292434
0.933531
0.591718
1.52557
1.4455
-0.358924
-0.149773
0.800886
2.41843
0.904219
0.716303
0.239672
2.55799
0.405024
0.187089
1.73342
1.05163
0.463048
0.414467
1.21312
0.468438
0.435421
1.24815
-0.276018
2.4626
1.51434
1.12121
1.21436
0.559351
0.109533
2.79051
0.931664
2.79641
0.327709
1.68317
-0.015899
-2.03868
0.564075
1.25099
2.93558
0.318852
0.776352
0.891708
-0.469321
1.25056
0.552243
0.0584294
1.51082
-0.0732194
0.295839
0.281147
0.330325
0.34581
1.74753
0.0227283
2.72042
1.55788
0.341805
0.0578389
0.214789
1.19243
-0.0611204
0.258172
-0.56405
2.27115
0.026039
0.290607
0.0666182
2.5875
-0.108715
0.625291
2.65369
1.66952
0.0192743
0.363682
1.1621
0.796652
1.44871
0.167673
0.427166
1.23791
1.54573
1.05109
1.35574
2.69902
0.182761
0.20553
1.8121
0.427946
0.658866
0.995578
1.59029
1.14791
0.00339091
0.536338
0.384408
0.60798
2.27333
1.03293
0.575381
0.301411
-1.44887
0.375302
1.82192
0.315478
1.40279
1.5327
2.34832
0.56642
-0.705319
2.77382
0.0930645
0.0226723
1.71068
0.273824
1.92418
0.149778
1.89489
-4.13658
-4.37866
0.243083
0.0122473
-0.753655
1.30046
2.85954
0.428563
0.0306755
0.361061
1.85992
0.522973
1.09623
0.0438556
2.85427
0.00916509
1.05351
0.2351
1.30389
1.79524
1.07912
-1.53416
-0.121142
2.6142
1.86423
0.18446
1.46388
-1.05828
1.2099
1.16318
1.37222
-6.86234
0.39431
2.07168
0.243645
0.313502
1.16975
0.0071932
0.414829
0.282852
1.75706
1.8993
0.214319
0.403925
0.0158596
-0.178738
0.463364
0.346209
0.633764
1.89683
0.581079
-0.724318
1.85614
0.526494
0.379869
0.499926
0.303863
0.178471
0.244052
0.3559
0.157202
1.43557
2.56332
0.199353
0.370977
2.66174
2.47886
0.446613
0.387766
1.60387
-0.82861
0.239242
0.540578
0.679214
0.626055
-0.788934
1.30571
1.45907
0.314107
0.458394
0.20801
0.510007
1.311
1.15015
1.07856
0.171505
1.67859
2.4345
-0.284713
0.159054
1.76554
-0.268507
0.96779
0.336279
0.284847
0.15513
0.626756
1.82703
2.80302
1.7105
0.591468
0.57437
1.78303
2.37673
0.323967
1.66436
1.73151
2.52862
0.239117
0.336536
0.903112
0.294785
2.4937
0.504764
0.613463
1.03005
0.382343
0.583795
0.618529
0.0798931
1.77211
1.64794
1.57012
1.14596
-0.36178
0.546899
0.371499
0.664566
-0.320269
-0.276236
0.222672
0.200307
0.000798541
1.28681
0.282452
-2.0512
-0.363267
0.396235
0.960922
-0.16245
0.208082
1.85314
0.327414
2.54954
0.358936
-1.93746
1.89107
2.27649
0.330147
0.729935
-0.66217
1.82203
0.540081
-0.206172
0.40188
0.233905
0.441788
1.78166
0.158413
1.41671
0.335434
1.58046
-0.265907
0.184848
0.0558616
1.94309
0.225119
-0.0802535
0.268144
2.51809
0.525278
0.23018
-0.124529
1.63842
0.140507
0.337469
0.639046
0.7033
0.504225
0.991547
0.387304
1.614
1.83264
1.83351
1.16804
0.171786
0.391784
1.54522
0.130882
1.92729
1.45639
0.367386
0.247774
0.296978
0.618202
0.221824
1.9358
1.22416
0.47361
1.82189
0.55353
1.22773
2.90179
0.59374
-0.196237
1.46788
0.47774
0.283925
0.393713
-0.339488
1.71078
0.192912
0.21679
0.153624
0.537843
2.07299
0.020065
0.0308395
1.7991
0.509918
2.41177
1.88983
2.15169
0.757503
1.37379
0.693101
0.361073
1.02205
1.57126
-4.86527
0.359404
-0.411329
0.327208
0.0673771
1.70699
0.0164938
0.197692
0.222843
-6.01203
0.162709
1.8072
0.0170696
0.627167
-9.02032
1.87986
2.86209
0.430033
0.0276938
1.27859
0.533071
1.6735
0.362627
0.352482
1.93193
0.18999
2.70802
0.980289
1.76635
0.263098
2.11396
0.292323
1.92906
0.199044
0.177605
0.117063
0.318503
0.937723
0.491166
-2.91974
2.53343
1.8767
1.88175
2.29701
1.92606
1.95364
0.386206
1.60512
1.96099
1.80553
0.317353
0.448781
0.245335
-1.03859
0.63722
1.76248
-4.73263
2.81648
-0.67324
0.190927
2.78523
2.32472
0.354878
0.304016
1.61287
1.26469
-1.22581
1.42897
-6.15127
0.315983
1.77334
2.24064
0.328962
1.72662
2.062
0.0291079
0.443003
2.11066
0.832371
0.226865
-0.108568
0.359931
0.11929
1.67722
1.58008
0.307262
0.529244
0.285419
0.68947
0.169668
0.705831
2.407
0.257245
3.1272
1.69629
0.725433
1.86256
0.025945
-2.19088
0.13303
1.71879
0.310793
-6.11898
0.464241
1.29678
1.28404
0.349946
0.862607
-0.830997
0.71503
0.522891
0.381969
1.31554
0.715325
2.08467
1.78228
1.89678
1.55178
0.34147
0.201756
0.207832
0.441159
0.432049
0.410103
1.29817
0.427139
0.268184
0.351765
0.6289
0.0532758
1.10592
1.14457
0.409786
0.271288
0.868716
0.34606
0.25706
0.602103
0.489261
1.71783
1.46766
2.07446
-11.0402
1.83329
0.169529
2.25852
0.36312
1.25764
0.540032
0.623995
2.6497
2.86262
1.28957
0.45514
1.46692
1.43522
2.67812
0.962875
0.19527
0.0495228
0.579016
-0.97365
-0.399847
1.88002
1.63518
0.521314
-0.466331
1.17017
1.52481
2.93032
-0.027034
1.62042
-0.895004
0.610029
2.36273
0.322745
1.29223
0.474775
1.24842
0.810933
3.07139
0.415541
0.174986
1.29407
0.601994
-0.00719061
-5.99817
0.560353
1.91248
0.456968
0.517122
2.4749
2.25814
0.38494
-1.32496
0.338001
0.827926
1.86792
1.55361
2.24806
1.09764
-0.11319
2.36251
1.35645
-0.189757
1.12758
1.79984
2.02026
0.0461729
-2.02122
-0.101505
1.7056
2.61788
0.987969
0.568189
0.168972
2.94441
-0.23835
0.132776
2.7405
1.83481
0.567043
1.1941
-0.332135
0.794207
0.283971
-0.226953
0.356902
0.129815
0.792762
0.391387
-0.859284
-0.73162
-0.295164
-0.167629
-0.928191
0.0559494
1.92373
1.67387
0.345307
-0.816549
0.608568
0.807362
0.265517
3.1081
0.878127
0.206902
1.60294
0.354208
0.139169
1.14727
1.11983
1.75062
3.15764
-0.124151
0.273693
0.245858
0.463074
0.953615
1.4833
0.318032
2.40697
1.40212
1.86231
0.368403
0.40219
0.149623
1.581
1.82234
1.67065
1.79831
2.89223
2.81351
0.352958
1.75758
2.10351
0.263175
2.2551
0.28164
2.77606
2.23359
0.843275
1.95807
1.20003
1.1133
0.400703
1.78959
0.226823
1.36863
0.397641
0.824213
0.625949
1.72293
0.166712
0.625027
2.67408
2.67364
1.00879
-8.6227
0.649373
-1.49206
0.376281
1.53212
2.3724
-9.0379
1.81383
1.46904
0.889431
1.60115
0.0874346
0.455217
0.326151
3.00374
0.495517
0.4468
1.96603
0.568727
0.173965
1.28018
0.543118
1.57017
-0.0667978
0.254437
1.09962
1.12038
0.858965
1.01967
2.82823
2.30005
1.99905
2.59758
2.6202
0.723034
0.279801
0.500867
-0.979446
2.63702
0.440122
1.61937
1.355
0.0401663
0.748299
1.78084
0.321175
0.900651
1.33603
3.19981
-0.18517
0.854178
0.493899
1.8144
0.354206
0.0834688
2.586
2.19348
1.47866
1.67032
0.299197
0.137028
-0.579337
2.80495
0.193423
3.04515
-2.50568
0.549944
-1.38215
0.37749
-3.00752
0.638895
0.338716
1.27469
0.449324
1.08271
0.0575052
0.0273449
0.433007
-10.2224
0.231047
-0.263003
0.399901
0.303899
-1.02464
-0.039017
1.56781
1.60721
2.28342
1.8598
0.776394
0.619404
3.4673
1.57887
-0.28126
-0.0412439
0.616896
1.53372
1.38186
2.4121
0.197297
0.158871
1.11683
0.017595
0.762338
2.12577
-6.97513
0.0271407
-0.650578
2.84409
-0.127604
0.96433
2.0744
-2.88509
1.18182
0.343444
-0.140515
-0.136528
0.300463
1.4496
1.88091
2.0254
-0.140198
-9.82298
0.74308
-0.47456
0.287361
0.32475
0.638411
0.399089
0.432866
0.0176801
-0.167189
0.235944
2.49294
-0.127556
2.74173
-0.00475636
0.436756
0.72151
0.485458
2.28935
1.48369
2.0329
0.453446
0.340397
-0.139763
2.2172
-9.56566
1.53925
0.370413
2.11852
2.28951
0.326587
1.76552
2.61972
1.72784
1.75726
-2.05974
0.525331
0.802119
0.259368
0.392177
0.78828
0.866804
0.498811
-0.145007
0.667923
0.358101
1.26137
0.958821
0.280287
2.76454
0.469847
0.0536376
0.59868
1.84986
0.395344
0.0713528
1.72505
0.144356
0.202375
0.519732
1.63528
1.8555
1.81991
0.429833
1.73587
1.96459
1.81124
0.355537
0.194875
0.925593
1.34663
0.191789
-1.26825
0.250538
-0.329783
-0.303208
-0.115494
0.324701
0.176871
-5.01154
0.335204
0.0608948
0.342215
0.36724
1.10165
-0.0487401
1.86028
3.45616
1.02014
0.442107
1.16724
0.807298
0.684092
0.177092
0.292713
0.259464
0.422997
2.12326
-0.0448023
2.56399
0.0043767
1.93531
1.16918
0.764867
-1.21665
0.471947
2.93645
-1.26741
1.75749
1.77542
2.40055
0.512586
2.1779
1.67019
-1.4584
1.80877
-0.195407
-0.350488
2.24396
1.7875
-0.205205
0.567489
2.12001
-1.16301
0.324421
0.18955
0.155927
1.50382
1.48634
1.81026
1.40661
1.43837
-1.29129
0.158668
0.395605
1.75291
3.04553
0.297687
-0.265725
-1.27634
1.52358
0.508043
0.375424
0.186844
0.553179
1.16072
-3.39822
0.558785
2.81578
1.20721
0.557497
0.353357
-0.0264151
0.266137
-0.846476
0.234563
0.0314673
2.01585
1.28213
0.28629
2.72562
-0.0147175
-0.104733
0.44276
-0.325688
1.71806
-7.08542
1.05363
1.55581
0.43103
0.351976
0.501428
-0.276229
0.342508
1.89254
0.0493303
0.272617
-0.622793
1.78498
1.78231
-0.0999731
2.01704
1.86267
2.47074
2.53191
1.73593
0.635819
3.02155
-0.632054
1.48873
-0.176535
0.150876
2.05785
0.219133
2.52413
1.21581
-0.0898691
-0.945659
-0.702571
1.87996
0.272109
0.380349
0.487146
-0.703096
0.531356
1.41489
0.979164
1.05996
2.83971
-4.84697
0.225063
-0.116419
1.60049
1.49619
0.327585
3.40644
0.266354
0.350939
1.34024
-0.264781
1.85505
1.59568
1.83637
1.84202
0.564447
0.795508
1.53752
0.782554
-3.57746
0.0588215
1.69899
1.79804
2.2327
-1.50382
0.358794
0.264831
1.49316
0.649566
0.178391
1.53798
0.437311
1.66482
1.85341
-0.683319
2.56859
0.336994
2.88765
1.78314
0.0844882
-0.0300754
0.246726
1.09776
1.84847
0.131493
2.17996
1.80795
0.41857
0.157821
0.555146
0.406196
0.392122
-0.679431
0.751928
0.373643
1.80406
-1.25727
-1.40396
0.410232
2.04994
2.33274
1.24124
-1.14525
1.24785
0.382463
0.451274
1.33953
-4.67405
-1.22047
2.73405
0.100609
0.508281
0.22733
-0.288719
-2.58723
1.90292
-0.688283
0.346071
1.86727
0.931203
1.82269
0.0292507
0.773309
2.80023
-1.04452
1.77747
0.678421
-2.91477
1.2171
0.787323
-0.308639
2.84468
1.85051
0.505706
2.82177
2.0862
2.06129
-0.512395
-1.20889
0.663032
-0.186254
-1.85214
-0.0737294
-0.211737
-0.0868169
1.19986
0.688263
0.821126
0.999868
-3.0702
0.987797
1.72927
-0.184926
1.61357
1.4285
1.85511
0.387372
0.326525
-0.0736454
-0.835997
0.0114275
0.350254
1.72508
0.137301
2.49127
0.0331247
1.84486
0.658306
0.419984
-0.206713
1.63999
1.17247
0.873744
1.39761
0.672939
0.554656
2.35672
2.06425
0.300713
0.0582879
-1.0358
1.65914
0.6545
0.0326269
-0.140151
0.799842
0.232325
0.422498
1.36345
1.17563
0.605149
1.11434
0.607301
0.294624
0.189259
2.09114
-0.0600653
1.79361
0.0334441
1.69884
1.76062
1.34131
1.4624
-0.679392
0.0998013
0.395514
-1.55828
0.192749
0.346991
0.51375
-4.29196
1.58553
0.645671
1.83512
0.344505
0.546842
-0.47435
0.287069
1.67046
-0.143865
1.55583
0.692602
0.254429
-2.23884
-0.0164029
1.02858
1.84521
0.270443
0.616019
-2.28539
1.86331
0.250037
0.648394
0.0164155
2.01085
0.929634
0.178685
1.80958
1.62702
1.92254
0.979262
2.12838
-1.19289
0.326679
0.502505
1.45018
1.4471
0.753341
-0.750626
0.209099
0.0770993
0.817484
0.362554
0.102992
2.76139
-2.29224
1.9055
1.10959
0.364675
0.24508
0.375418
0.413819
0.879516
0.592806
1.73159
0.348794
1.76848
-0.424684
-0.0567183
-0.916612
0.461315
0.199141
1.99722
2.80081
1.86061
0.492809
-0.585867
1.38479
-0.269359
0.444087
0.411329
0.378513
0.280794
0.0783038
0.187317
0.29194
1.38595
1.48444
-0.204497
0.639674
1.90838
0.15762
-0.135472
1.87882
0.263211
-0.0722816
0.145251
0.569211
-0.0173396
2.73924
0.409465
1.45589
-0.134252
0.227266
0.173077
1.54476
0.497567
1.26577
-0.217628
0.239834
0.406838
0.157295
1.9627
1.40506
0.930869
0.483872
0.292499
2.90467
-1.17908
1.80195
1.99334
0.466929
0.208599
0.858754
-1.23746
0.425173
1.69113
1.28765
1.57394
0.193802
1.90991
0.901115
2.355
0.241378
1.68735
2.08007
1.5634
0.596118
0.0143437
1.06741
-0.36564
1.21852
1.16479
1.91828
0.763382
2.46986
0.648658
2.63653
0.517497
2.0112
0.603197
1.24963
-0.0559005
1.76799
0.825498
1.09284
2.63643
1.80911
0.671548
0.202366
1.0419
1.83772
0.277068
-0.862149
1.06142
0.427853
2.10991
-0.0907333
2.50318
0.944844
3.51886
2.56533
0.942791
0.695881
-0.037186
0.69803
2.70381
0.507895
0.696542
0.384555
2.92211
1.13865
1.3169
2.65027
0.220143
1.79014
0.338724
1.86631
0.298435
1.7541
1.63648
2.2471
0.22519
-0.515454
0.612832
-0.0236371
0.836113
-0.89645
0.360309
2.22203
2.36558
0.11946
-0.0216683
0.320933
2.10285
1.36818
1.42323
1.57534
0.488372
-1.43245
-0.0261986
1.8412
-0.563596
0.548571
0.731444
1.02484
0.875744
0.252715
2.8842
-4.42485
2.49101
-0.25228
2.72797
0.29937
0.559658
0.322308
0.174107
1.45501
1.77397
0.59496
0.541414
0.528198
0.530154
2.34912
0.302498
0.760174
-4.7552
0.521509
-0.297272
1.94667
0.48492
0.313328
0.184242
1.79793
3.0538
0.00285112
0.391902
1.50172
0.499665
1.35764
0.361863
0.887459
0.528365
-0.880977
0.2023
0.441535
0.422891
0.497677
-0.0382956
0.337851
0.654536
1.70894
1.71502
1.78869
2.95967
-0.0461506
2.87203
-1.92544
2.65628
0.143262
0.185254
2.85135
1.13841
0.420783
1.53254
0.273243
1.69764
-3.96945
-0.633247
0.63827
0.282072
0.242939
0.0887435
0.339604
1.14515
1.989
0.193336
1.24142
-0.38144
0.695099
-4.8589
0.270333
0.571585
-0.812093
-0.275389
2.36307
0.167605
2.51625
0.804887
-0.159232
1.03901
-0.229248
0.319853
1.77356
2.02544
3.02526
1.55748
1.58798
0.499608
-3.93635
2.92548
3.07091
1.90382
0.166112
0.173029
-0.343404
1.42965
0.883823
0.729521
1.64174
0.453906
0.276815
-0.157884
2.60259
0.615178
0.824234
0.116239
1.46877
1.00433
3.34801
3.12154
1.42647
0.675553
0.462455
-1.47166
1.09775
3.1983
0.0919937
0.27856
1.03001
0.0560073
0.662652
0.534392
0.598881
0.588798
0.551715
0.78207
0.206196
0.96853
2.25805
-0.40543
1.71261
0.184212
0.488439
2.75511
0.0740433
0.561709
-0.308361
1.14589
0.762198
-0.0777098
-0.641884
0.253846
0.642094
3.4073
-1.23834
-0.14958
0.248253
-0.220535
-0.23262
-0.356276
-0.177125
-0.0484403
0.185126
-0.383583
-0.163186
0.272128
0.761519
0.439749
0.793951
3.30001
0.749831
0.718742
0.406144
0.958209
-9.3771
0.346966
2.30014
1.74312
0.726104
0.541149
1.64866
1.76994
0.459527
0.0721485
0.414333
2.30333
0.19866
1.89303
0.803251
2.47062
0.621834
0.237251
0.565634
1.88552
0.215037
1.69476
0.214688
3.12793
-0.137862
0.53901
-0.152413
1.14205
-0.000933114
0.158073
-0.0594369
0.566377
0.0974004
0.216193
-2.20276
0.289401
0.689168
0.334791
-0.139071
1.13373
-0.388121
1.34287
0.0160341
1.83569
2.87908
1.42633
-6.97497
1.57415
0.495997
0.591116
0.307911
0.463259
-0.48848
0.450614
0.275526
0.0762703
0.665133
-0.474611
-2.06638
-0.0291152
0.892109
1.91459
-1.22134
-0.024143
0.373099
0.211205
0.515246
0.927048
-3.19718
0.0104232
1.80648
0.270109
0.485255
0.193376
-0.0575941
-0.0564887
-0.0315027
3.43867
0.639422
0.26792
0.930723
2.75272
2.76293
0.275159
0.348653
1.78241
0.264362
0.457341
2.80565
0.98397
1.27373
3.44445
0.303938
-0.217188
0.792458
2.46584
1.72711
1.60794
2.1777
1.57903
0.184564
0.227821
1.18268
0.668611
-0.929529
2.82134
-0.176201
-0.0629473
0.199302
0.322204
0.835194
0.164768
0.35689
0.686557
1.61519
1.87211
1.79331
-0.301465
2.47217
2.73655
-0.0897124
1.04435
0.419823
0.429104
0.546741
1.32574
-3.22229
0.211944
-0.105866
3.05444
-0.205335
1.82074
1.77554
2.13802
1.03658
1.26991
0.527012
0.185606
0.528358
0.326558
-0.272605
-0.275645
0.351083
-0.226497
2.00962
0.23844
0.310509
0.927792
-8.35433
0.12657
-0.709825
1.27588
0.359719
0.475188
1.32941
0.225273
0.729058
-0.201241
0.398569
1.82242
-0.125388
2.85765
0.20051
3.09655
-0.00688025
0.415574
0.549912
1.76233
1.31445
-0.59527
0.407262
0.398644
0.563208
1.0886
3.49188
2.14926
0.462037
0.28741
0.765156
0.505458
1.79441
0.514157
1.32887
0.10639
0.0222982
-6.68305
-0.146948
0.18279
-8.25691
1.40526
1.12776
2.69141
2.96846
-0.809468
-0.471733
0.609094
-0.104224
2.82216
-0.292181
0.104752
1.22298
1.56608
0.433786
0.0925522
0.630166
0.2742
1.35515
0.457679
-0.122782
0.508681
0.144958
-0.462169
0.455307
-0.56298
-0.372193
1.72798
0.295196
0.222429
0.385455
0.546538
3.1095
0.944684
1.76364
0.396669
0.929316
0.659099
0.640565
1.01294
-0.146138
-1.08716
2.8234
1.78887
0.656467
-1.37159
3.24925
0.0795544
-1.39215
0.0654153
0.624633
0.026426
0.393648
2.42687
0.583842
1.40549
1.12903
-0.344647
0.497938
0.472022
0.897653
-0.653892
0.732241
0.944329
1.57501
0.00457944
-1.5351
-0.436223
0.321382
-0.298902
-0.126841
3.05929
1.39718
0.101522
0.533416
0.991726
2.62542
0.875233
-1.13264
0.74628
2.09332
1.71208
0.283574
1.68522
0.534848
2.79891
0.19257
1.82587
-0.0551209
0.234799
0.188364
0.110058
0.630745
1.11146
-1.14732
0.0467739
1.89227
0.531532
0.669944
2.26994
1.55837
2.22688
1.71317
0.237145
0.11273
0.754742
1.52025
0.00181231
1.95997
1.05682
2.76038
-0.195039
2.17519
0.295362
2.84465
-0.442135
0.191899
2.86597
-0.105343
0.997486
-0.212375
2.45067
2.78233
1.85152
-1.10008
1.85139
2.10785
0.314598
1.11836
0.31117
2.2318
-0.0213914
-0.200766
-0.499357
-0.511693
2.03916
0.367764
-0.407991
0.883171
2.75838
-0.0256542
0.444448
-0.524812
0.11801
1.16975
0.417417
1.76821
1.4829
-0.404469
3.14201
0.287839
2.3894
2.30391
0.370611
0.192215
1.34187
-0.217179
0.342601
1.28674
1.08908
0.362562
1.47429
-0.238029
2.70084
1.90546
0.735764
-1.59132
1.75165
0.498918
1.33303
2.13099
0.676903
0.182736
2.06946
1.68386
0.209462
-6.02715
1.03047
1.75335
2.78431
-1.65219
2.94976
3.09055
3.00141
0.468717
2.01083
-0.0289367
1.78937
2.18267
2.18058
1.7454
2.3752
3.33619
1.66583
-1.45603
-1.05689
-1.02869
3.30368
0.922463
0.547459
-0.0468272
1.6925
2.50057
1.59046
0.702427
0.395985
2.42492
-0.151604
1.66936
-0.0109638
1.25541
0.28982
-0.313719
1.06009
0.0165703
0.0365573
-3.60147
0.333378
0.505529
1.97428
0.398079
0.598872
1.47814
-0.0277972
0.638073
0.184308
-0.00623111
-0.0784526
-1.28227
2.26564
2.46769
0.0527811
1.25719
2.09157
2.12355
0.122112
0.242257
1.72159
-1.02465
2.2652
0.0293685
2.20073
1.36222
0.925807
2.07631
1.10432
2.12294
0.734995
1.20291
0.251361
-7.4347
-0.110356
0.431129
2.07302
0.192842
0.380563
0.205127
2.49481
2.08239
1.03502
1.0991
2.37553
-0.285976
1.48202
0.467464
0.218107
1.4897
0.267081
-0.238962
-0.0803242
-0.783649
0.362531
0.109077
0.463627
-0.321285
-2.29623
1.24276
2.82922
3.1007
2.65903
0.18733
1.70201
-0.0564166
1.47734
2.41199
0.809233
2.02465
0.229257
0.736214
0.206298
0.707556
2.22155
-0.225305
1.78059
-0.331272
0.433656
-0.723805
1.85401
1.76714
1.84661
-0.172264
1.49553
-4.14509
-0.475028
-0.527935
0.691851
2.8308
-0.522888
0.402007
0.0282175
1.75779
1.77016
0.290147
1.36852
-0.218687
2.40701
2.36464
0.383999
0.514847
2.32224
0.314276
-0.0152985
0.791067
2.14195
2.38739
-0.033975
0.916065
0.40841
2.77251
-0.326892
0.357903
0.709803
2.58044
0.764722
0.262611
0.535234
2.2014
1.69411
2.17622
0.662543
-0.414241
1.76395
3.25337
-4.79152
1.31567
0.742854
-0.403397
0.660165
0.745095
-0.0168016
0.867059
-0.47096
1.57938
0.476783
0.222982
2.02663
2.41826
1.4929
-0.14401
0.350332
1.83597
-0.252679
0.357619
0.226403
0.932666
-0.227846
1.89732
1.82432
0.613593
1.70543
2.72966
0.43954
1.14613
1.91029
-0.58579
1.34736
0.40617
0.881629
0.108824
1.59465
0.0108788
0.721678
0.368225
-3.35906
2.26713
0.202898
0.556225
0.33125
0.428468
1.80352
-0.229421
2.9864
-0.175364
-0.751974
-2.16857
2.12784
1.77294
2.16205
-0.916559
2.6213
0.115016
1.06551
0.596379
-0.0938072
1.72621
0.795939
0.255734
1.06799
-1.1653
1.59787
-0.735854
0.295336
0.0095815
0.0451752
-0.0137652
1.33692
2.69054
0.377257
-0.0352948
2.06193
-0.0809204
2.43731
0.158406
0.7783
1.31423
1.82351
0.909353
0.520651
-0.201997
0.706048
0.931319
1.06623
-0.0814704
0.0687312
0.290603
0.553489
0.408119
3.35053
1.68797
1.87165
2.46491
0.890235
1.87235
0.224127
-0.714749
0.272089
1.85816
3.24234
1.51487
0.125656
2.25215
1.40038
1.44073
0.409493
0.61964
0.949278
3.00465
-0.669309
0.233855
2.54174
2.31996
1.63405
1.60188
1.97603
1.10131
-2.54767
0.193376
1.7433
-3.24708
-7.85566
1.75343
0.251136
-1.75065
-0.0423289
1.68933
1.77677
1.80499
0.537514
2.14007
2.2133
0.557424
1.91002
1.62577
1.81061
1.52
0.790228
0.909073
0.251048
2.08008
1.89276
0.574285
1.37742
0.547347
0.286031
2.66166
1.97003
0.0450234
0.0297437
0.62418
2.04732
0.944562
0.859147
0.271865
0.551768
0.443167
0.652708
0.0349187
0.56833
0.93093
0.455259
0.0703052
-0.185363
2.51581
-0.0353688
-1.40901
0.0795634
2.70467
0.514238
0.598384
0.887087
-0.448131
1.56683
1.76658
0.809911
2.37059
1.26016
0.755234
-1.07092
0.0367908
0.184165
1.97078
0.579812
-0.0484707
-0.341616
0.405242
-1.31951
0.0700352
-0.213155
0.296617
1.11001
1.77457
2.09971
0.428423
0.480746
2.36321
1.84272
-0.0277021
0.392435
-1.01525
0.922269
0.60306
0.965316
1.90608
0.52794
0.480577
0.434872
0.957167
0.177724
-1.09519
0.44276
0.244898
-0.872401
-0.405337
0.0703448
0.436488
-0.89141
0.950264
-0.0727571
1.82539
1.71974
0.511562
2.15761
0.113044
2.71079
0.271941
0.828597
-0.062219
1.59464
1.10408
-9.31938
-0.79549
1.83539
2.06026
2.81287
0.0109993
-0.967495
0.160016
0.322235
0.0522322
-0.20118
0.135192
-0.412347
1.08005
-0.0481761
1.00619
-0.382387
0.226178
2.45186
1.37146
-0.462445
0.268227
-0.132808
-1.36125
2.21728
3.10696
-2.09602
1.95715
1.56128
0.0416262
-4.00323
2.09392
2.03306
-0.235206
0.499735
0.255096
0.140635
-0.0656437
-0.29732
-0.124053
1.41081
0.515656
1.91811
-0.118445
-0.388261
1.74814
-0.0826349
-0.488462
0.727564
1.5266
-0.499725
0.33982
-0.385449
-0.162641
-0.478083
2.86739
-0.783532
0.567187
-0.0382148
1.79972
-0.664449
0.478813
-0.112341
-0.0373756
0.154657
1.79921
0.112624
-0.220058
1.47658
0.0258511
0.356061
-0.0607021
-0.190793
0.988895
1.24932
1.79001
-0.611923
2.43345
0.390515
-0.0413899
0.385206
-0.933276
0.18584
-0.203787
0.187607
0.646886
1.15911
0.455011
0.466339
0.175684
1.43426
0.0214295
1.84006
0.0023946
1.50505
0.353482
0.432994
0.553042
3.45215
-3.36891
-0.505489
-0.517343
0.207705
1.84636
0.405333
0.570052
0.212154
-0.342112
0.0176855
-3.27252
-0.308733
1.71533
-0.219816
0.863986
-0.382993
0.671328
1.36197
0.364298
0.481498
0.424346
2.10581
-0.751529
0.301992
2.28093
0.735312
-0.697196
0.443805
-0.0180841
0.232127
0.459605
2.05124
0.252225
1.15287
-0.970965
0.025014
-0.126692
-0.17226
-1.31347
0.595679
0.443455
1.8371
1.02303
0.0867803
0.902698
0.164655
2.06793
2.41478
-0.464895
0.679588
1.72056
1.94092
1.08256
0.217788
0.0705873
0.0823196
1.76903
1.01695
0.221555
-0.080579
0.738312
2.00621
0.482862
0.559398
0.732262
2.23546
-0.210847
-0.313715
0.295666
1.73996
0.672657
0.509538
2.44465
2.05219
0.422928
0.205812
2.02298
1.19225
0.602677
1.35977
0.354316
0.175221
0.0386797
0.250699
2.05942
1.65597
0.235633
0.159464
0.530415
0.435476
1.70497
0.214585
0.967457
2.12477
2.29848
0.439118
1.84306
1.31882
1.74589
1.86538
0.552496
1.86859
-0.00485433
1.83577
1.28233
1.85298
0.0244915
2.0496
1.926
1.83304
1.38907
0.332143
1.02698
0.33838
0.260476
2.19175
2.36228
0.256684
2.37869
0.225256
-4.11772
1.69495
1.76196
-0.0396262
0.637722
-0.92285
0.25413
-0.640479
0.1645
-0.0253882
0.39325
1.40747
3.05074
2.02132
0.432683
0.0733979
1.6472
1.31993
-0.287088
0.154354
0.367376
-0.356747
-3.38047
-5.54942
1.78755
0.502599
1.26628
0.182902
0.175059
0.504251
0.162696
0.659098
0.673998
1.45033
0.269109
0.197605
-0.46418
0.0536099
1.07565
1.28949
0.242694
-0.0347258
1.39367
0.224517
1.05362
0.275265
1.84144
1.37664
2.58034
1.77845
0.225057
0.40011
0.307016
0.378434
0.280553
0.313452
0.421712
0.245825
3.11501
0.44753
0.532514
2.39056
0.0168509
-0.0810519
-4.23254
0.0285164
-0.859774
-0.0703692
-0.0141734
1.47338
0.440903
0.251017
0.54934
0.412795
0.215683
0.428883
0.503158
1.57435
-0.120448
0.11262
-0.072468
0.77437
0.18686
1.80079
2.46905
0.387267
1.80572
0.868173
1.6883
2.72239
0.0200798
1.3579
0.912175
1.40748
2.33332
0.239669
0.37846
0.507835
1.73946
2.46639
0.312168
0.45462
0.225272
0.218775
1.28391
0.309913
-0.134091
0.373562
1.06552
-1.0843
0.687225
0.694311
1.66702
0.63037
-1.59953
0.517707
0.332164
0.485704
2.6393
2.97704
2.16544
3.22157
1.63315
1.90951
1.78727
1.47385
1.74552
0.25569
1.66202
0.427532
-3.01205
2.38774
0.338277
0.195038
2.85112
0.740592
0.0817966
1.28754
1.24966
2.03213
-0.432656
1.71831
2.69627
0.0112423
-3.9953
-0.11526
1.05765
-0.0721656
2.0638
0.696808
2.04288
1.78938
0.074708
1.86422
0.253085
-1.22056
-1.39807
0.234476
1.91846
0.208899
1.89888
0.270144
-0.234245
0.487029
0.517223
-0.885647
0.348064
-0.776245
1.96155
0.91543
-0.538987
0.310277
1.38325
0.685302
0.240876
1.19027
0.405026
1.23757
-0.565441
1.29538
0.935336
0.584454
0.347264
1.52541
1.12493
0.967525
-0.769663
3.15886
0.19316
-0.451668
1.58945
1.35955
-0.361617
0.233836
0.0128903
0.839187
0.821833
0.226707
0.670098
0.453029
3.21877
0.508448
0.0647164
0.482425
0.150011
0.931848
0.354918
1.48443
1.38112
-0.092659
1.04326
-1.02125
1.05485
0.778569
1.55826
1.48003
0.0564269
0.0609403
0.800361
1.80594
0.549789
0.468555
-0.570306
0.026504
0.394606
1.64736
-0.514969
0.848312
-0.58563
1.92553
-0.247842
0.515764
2.12688
1.88909
1.1793
0.035043
-0.975118
1.84318
0.512544
2.04396