/*--------------------------------*- C++ -*----------------------------------*\
| =========                 |                                                 |
| \\      /  F ield         | OpenFOAM: The Open Source CFD Toolbox           |
|  \\    /   O peration     | Version:  2306                                  |
|   \\  /    A nd           | Website:  www.openfoam.com                      |
|    \\/     M anipulation  |                                                 |
\*---------------------------------------------------------------------------*/
FoamFile
{
    version     2.0;
    format      ascii;
    arch        "LSB;label=32;scalar=64";
    class       surfaceScalarField;
    location    "0.4";
    object      phi;
}
// * * * * * * * * * * * * * * * * * * * * * * * * * * * * * * * * * * * * * //

dimensions      [0 3 -1 0 0 0 0];

oriented        oriented;

internalField   nonuniform List<scalar> 
20045
(
0.279431
-0.321839
0.0424083
-0.562747
0.236909
0.325838
0.161805
0.805243
-0.967048
0.106993
-0.133985
0.0269923
-0.511518
0.431435
0.0800829
-0.203805
0.96368
-0.759875
-0.488677
0.0755352
0.413142
0.0264403
0.260372
-0.286813
0.269163
0.222902
-0.492065
-0.336967
-0.137884
0.474852
-0.115349
0.320021
-0.204672
0.937935
-0.485452
-0.452483
0.219885
-0.218251
-0.0016342
-0.62116
0.433571
0.187589
-0.0585809
0.480334
-0.421754
-0.531343
0.194375
-0.0107468
-0.147402
0.158149
0.554546
-0.217968
-0.336578
-0.766114
1.08199
-0.315874
-0.388784
-0.00915792
0.397942
0.119961
-0.110563
-0.00939759
0.0780568
0.141828
-0.11719
-0.445557
0.336123
0.211637
-0.54776
0.463787
0.0196852
-0.483472
-0.245361
0.581484
0.189876
-0.197347
0.00747065
-0.457062
0.924471
-0.467409
0.891159
0.0868145
-0.977973
-0.950362
0.615022
0.33534
0.123418
-0.19402
0.0706018
0.623453
-0.542232
-0.0812207
-0.26769
0.527843
-0.260152
1.05152
-0.627065
-0.424457
-0.331643
0.358083
1.1313
-0.554696
-0.576602
0.706602
0.159944
-0.866546
-0.0369062
0.229153
-0.192247
-1.09327
0.446853
0.646413
0.318775
0.276403
-0.595178
-0.0143562
0.314587
-0.300231
0.102572
-0.14257
0.0399977
1.0824
-1.09227
0.00987408
0.704486
-0.198076
-0.50641
0.286555
0.417931
0.45775
0.480185
0.30177
-0.206391
-0.0953787
0.611431
0.311666
-0.923097
0.943362
-0.23676
0.0628748
0.758066
-0.820941
0.673993
-1.15787
0.483873
0.979354
-0.713475
-0.26588
-0.405444
-0.442304
0.847748
-0.0537855
-0.174297
0.228082
0.322697
0.0866271
-0.409324
-0.373257
-0.138261
0.0552174
0.697923
-0.753141
0.872601
0.0547392
-0.92734
0.361721
-0.629411
1.07508
-0.759349
-0.315736
-0.0727408
0.278651
-0.20591
0.369834
0.705251
0.335321
-0.597685
0.262364
0.0741645
0.0457963
0.158711
0.269698
-0.428409
0.807863
0.161166
-0.969029
-0.0408122
0.129222
-0.0884098
-0.354179
0.0424374
0.311742
0.473037
-0.203874
0.988054
-1.01079
0.02274
-0.102047
0.0612351
-0.289154
0.611852
-0.122064
-0.543955
0.666019
-0.327254
0.352908
-0.025654
0.885438
-0.11999
-0.765448
0.653139
-0.597922
-0.080646
0.966085
0.324505
-0.383086
-0.320059
0.300894
0.0191653
0.392065
-0.714762
0.322697
0.494493
0.612633
-1.10713
0.454061
-0.401246
-0.0528151
0.492384
-0.157063
-1.02379
0.189005
0.834787
-0.00464284
0.284074
-0.20831
0.307335
-0.0990245
0.537926
-0.819041
0.281115
-0.847202
0.0788667
0.768335
0.484236
0.135392
-0.619628
-0.475371
0.36415
0.111221
-0.687817
0.0305716
0.657245
0.431439
-0.100248
-0.331191
0.226204
-0.33629
0.110086
-0.121922
-0.39098
0.512902
0.33416
-0.361035
0.0268748
0.749147
0.210202
-0.959349
0.164252
0.0256242
0.0244467
-0.138283
0.113836
0.65284
-0.334064
0.0225079
-0.187554
0.165046
0.771061
0.360237
-0.296512
-0.324649
-0.135781
0.160228
-0.166139
1.03874
0.063927
-0.272237
0.221143
-0.198635
0.204706
0.622222
-0.826927
0.655349
-1.00106
0.345706
-0.0182891
-0.28762
0.245898
0.0417217
-0.165983
0.207906
-0.0419234
0.547148
-0.517924
-0.0292241
-0.286625
0.232839
0.683627
-1.05456
0.370936
-0.129832
0.19994
-0.0701076
0.0329845
-0.200255
0.16727
0.558037
-0.0942496
0.794688
0.256834
-0.591937
0.469873
0.684159
-1.0245
0.340339
0.165124
0.389422
0.200203
-0.272944
-0.442767
0.357722
0.0850453
-0.437917
0.0637107
-0.34103
0.277319
0.693853
0.285501
0.554095
-0.748225
0.19413
0.776808
0.0899181
-0.866727
-1.03261
0.80344
0.229167
-0.387655
-0.161827
0.549483
1.03563
-0.341775
-0.336444
0.130053
0.381806
-0.406738
0.0249325
0.0165719
-0.0983614
0.0817895
0.599406
0.402731
-1.00214
0.634949
-0.556223
-0.0787259
-0.165668
0.0503512
0.115317
-0.202684
-0.0849351
1.14302
-0.458863
-0.377811
0.386142
-0.00833107
0.474961
-0.823544
0.348583
0.263257
-0.668701
0.396267
0.289686
-0.685953
0.763558
-0.371493
0.959279
-0.1048
-0.854479
0.15549
-0.458578
0.303087
0.930344
-0.637372
-0.292971
-0.163316
0.206514
-0.0431973
0.0351218
0.824169
-0.859291
1.04999
-0.158827
-0.859992
0.0615953
0.798397
-0.545532
0.384162
0.16137
0.98798
-0.493487
0.117728
0.336333
-0.639229
0.728161
-0.088932
-0.608474
0.77028
0.0116832
-0.252498
0.240815
-0.154449
-0.200809
0.355258
-0.0232967
-0.215163
0.23846
0.849718
0.00361147
-0.853329
1.09533
-0.51665
-0.578679
-0.25738
0.234083
0.492897
-0.637301
0.144404
0.12276
-0.020188
-0.879614
-0.517286
0.597433
-0.0801473
-0.598992
0.517202
0.0817898
-0.0100459
-0.0592992
0.0693452
0.356198
0.574146
-0.0300907
0.0466626
0.370288
0.0115179
-0.663883
0.0246533
-0.701794
0.881301
-0.179507
-0.703599
0.742103
-0.0385039
-0.610956
-0.400441
1.0114
0.0998067
-0.268127
0.16832
0.341271
-0.479361
0.13809
0.623917
0.0908064
-0.714723
-0.0150836
-0.732791
0.747875
-0.414373
0.810641
0.191126
-0.581057
0.389932
-0.369675
1.0533
-0.736385
0.556444
0.179942
-0.126502
0.146209
-0.0197074
0.374979
-0.969129
0.59415
-0.776069
0.319007
-0.616727
-0.351926
0.895749
-0.592208
-0.303541
-0.374476
0.360119
0.198976
-0.211082
0.012106
-0.753785
-0.224561
0.978346
-0.717604
1.00679
-0.289183
0.997231
-0.692814
-0.304417
-0.000426399
-0.211145
0.211572
-0.234746
-0.541314
0.776059
-0.263581
0.148232
-0.445192
0.0575369
-0.550026
-0.226996
0.777023
0.139881
0.0339578
-0.173839
-0.00331955
-0.513966
0.209518
-0.0860999
0.802872
-0.0260632
-0.191038
0.154132
-0.22301
0.275344
-0.052334
-0.167575
1.01729
-0.825415
0.59067
0.503339
-0.203315
-0.300024
-0.73439
0.172303
0.562087
0.32529
0.671941
1.00679
-0.631813
0.648102
-1.01614
0.368036
0.350502
-0.637828
0.287325
0.0644811
-0.453265
-0.464072
0.668778
0.611001
-0.814805
0.110109
-0.675209
0.5651
-1.02546
0.512937
0.512518
-0.109776
-0.365595
0.198303
0.168665
-0.366968
0.472172
-0.0398792
-0.432293
-0.198301
-0.546826
0.581948
-0.282645
-0.0951661
0.545303
0.798932
-0.697961
-0.100971
-0.0115586
-0.160487
0.172045
0.627055
0.0273867
-0.654442
0.0494759
0.202446
-0.251922
0.0132834
0.574138
-0.587421
-0.335976
0.873901
0.594189
-0.403064
-0.125652
0.528352
-0.4027
0.683019
-0.208058
0.136663
-0.0122471
-0.124416
0.0929569
0.0762023
-0.169159
-0.160438
0.167592
-0.00715459
0.911925
-0.627124
-0.284801
0.258484
-0.976088
-0.177165
0.0167274
-0.760973
0.18425
0.576723
0.788151
-0.260308
0.287446
-0.989239
1.20164
-0.576591
-0.625053
-0.0201834
0.160064
0.97223
-0.425506
-0.546724
-0.601133
0.100835
0.500298
-0.900485
0.885215
0.0152696
0.338156
-0.662146
0.32399
-0.113546
-0.0278775
0.141423
-0.500001
0.594902
-0.0949009
0.0447273
-0.187572
0.142844
-0.183558
0.0537255
-0.196653
0.0306704
-0.690231
-0.310824
0.560741
-0.819426
0.258685
0.11521
-0.266061
0.150851
0.454179
0.169274
0.529844
-0.419735
-0.393238
0.238789
0.4358
0.352351
-0.528475
0.066279
0.462196
0.335132
0.637097
0.426392
0.0539424
0.23211
-0.116901
-0.321627
-0.0542998
0.375927
0.0232686
-0.14977
-0.61976
0.633043
-0.0503586
0.158471
-0.108112
-0.897323
0.879925
0.0173976
-0.241267
0.698594
-0.457327
-0.146071
-0.178693
0.324763
0.737788
-0.824666
0.0868776
-0.562615
-0.46284
1.04183
-0.710019
-0.331807
-0.128148
0.11659
0.730577
-0.392421
-0.297016
0.857757
0.138088
-0.408164
0.270076
0.928379
-0.138688
-0.789691
0.957498
-0.242017
-0.715481
-0.31301
0.451098
0.840804
-0.508474
-0.33233
-0.215922
0.826339
-0.610417
0.258017
-0.50287
0.244852
-0.263047
0.0723229
0.190725
-0.234275
0.0231703
0.211104
0.927832
-0.71404
-0.213792
-0.558488
-0.474119
0.622712
0.17622
-0.78924
-0.108082
-0.0568459
0.149803
0.262778
-0.86078
0.598001
0.0045999
0.194376
-0.540934
1.14034
0.305291
0.606635
0.986707
-0.652355
-0.334352
-0.92867
0.701674
0.626584
-0.966737
0.340153
-0.61677
-0.0674029
0.684173
-0.370277
-0.121171
0.491448
0.584987
-0.0920897
0.298766
0.204574
0.320126
-0.135976
-0.406256
-0.700337
1.01275
-0.312413
-0.263577
0.0405675
-0.345748
0.220096
0.137455
-1.03794
0.592118
-0.928093
0.189577
-0.322762
0.512221
-0.189459
-0.00315619
0.110149
-0.513009
0.285483
0.227525
0.409242
0.137906
0.0107155
0.266804
-0.27752
0.471557
0.163392
-0.604982
0.86776
0.577557
-0.0933208
-0.234964
-0.499426
1.02929
-0.655094
-0.374199
0.967807
-0.979236
0.377935
0.601301
0.777297
-0.871916
0.0946183
-0.478612
0.35669
-0.157929
-0.00773835
-0.209317
-0.4785
0.349885
-0.57219
0.222304
0.396967
0.443837
0.59111
-0.896415
0.305305
0.301313
-0.57041
0.269097
-1.0142
0.166998
0.0340279
0.397411
-0.577107
0.697566
-0.120459
-0.230593
0.340101
-0.109508
-0.528935
0.0402582
-0.133637
-0.264113
0.39775
0.127194
0.00116101
-0.128355
-0.294206
-0.251326
0.35119
0.472786
-0.823976
0.921066
-0.585933
0.409533
-0.45201
-0.0266021
0.517564
-0.216251
-0.649865
-0.0865207
-0.136387
0.197748
-0.0613611
0.960504
-0.349073
-0.477639
0.73154
-0.253901
-0.14773
0.174788
-0.0270574
0.604302
-0.13213
-0.322963
-0.537816
-0.496904
0.847536
-0.350632
0.540686
-0.9022
0.361514
0.415492
0.626334
-0.172088
0.152364
0.0197236
0.114316
-0.731085
0.697063
-1.06759
0.370531
-0.355818
0.0285636
-0.113998
0.668093
-0.238053
0.830171
-0.270196
0.620698
0.176542
-0.942656
-0.71083
0.493371
0.217459
0.667116
-0.142897
-0.524219
0.918132
-0.180343
-0.437425
-0.524282
-0.478581
0.359582
0.280335
-0.348558
0.0682228
0.331216
-0.340374
-0.76135
0.647352
0.83952
0.242877
-0.774302
0.296663
0.799087
-0.176375
0.125174
-0.191107
0.0659323
-0.0787963
-0.50988
0.588676
-0.881912
0.142459
0.739453
0.82028
-0.82028
-0.347866
0.933449
-0.585584
0.309343
-0.298627
0.490527
-0.425588
-0.0649396
-0.929375
0.944033
-0.0146573
0.382279
-0.0305935
-0.351685
0.301467
-0.102955
-0.198511
0.16009
-0.306161
-0.0561092
0.575355
-0.872371
-0.745878
0.905395
-0.159517
-0.282134
0.633323
0.189868
0.0112509
-0.201119
0.113554
0.0209647
-0.134519
-0.387571
0.452052
0.905199
-0.664817
-0.240382
-0.115854
-0.506676
0.62253
-0.271675
0.290316
-0.0186413
0.176185
-0.305657
0.129473
-1.06705
0.456515
0.610535
-0.0948298
-0.0391552
0.186171
-0.060997
0.00583086
-0.188247
0.182416
0.38902
0.538812
0.185544
0.00432386
-0.139505
-0.221094
0.360599
-0.482453
0.766561
-0.284108
0.027536
0.20765
-0.235187
0.411889
-0.336354
0.833801
-0.129415
-0.704386
0.0546917
-0.445672
0.0201407
0.603776
0.449873
0.275417
-0.725289
0.517692
-0.402681
-0.11501
-1.05152
0.191527
-0.419841
0.252457
0.167384
0.28186
0.508798
-0.790659
-0.646579
0.579176
0.0575846
-0.909909
0.852324
-0.174035
0.173609
-0.1276
0.146335
-0.0187351
0.0494288
-0.371056
-0.40402
0.0671302
0.33689
-0.624105
-0.136869
0.607138
0.422938
-0.137711
-0.285227
-0.161894
0.0141637
0.134074
-0.690654
0.55658
0.115929
0.485496
-0.601425
0.243394
-0.6935
0.78188
-0.08838
-0.733502
0.51758
-0.0901818
-0.107165
-0.410641
-0.188351
-0.29873
0.0695574
0.229173
-0.862081
0.379628
0.636694
-0.752548
0.24097
0.558117
-0.373297
0.34548
0.027817
0.158647
-0.675931
0.517284
0.197537
-0.304573
0.107036
0.5312
-0.854163
-0.626297
-0.077302
-0.36006
0.00588099
-0.271767
0.00480648
0.26696
0.342584
-0.0805377
0.361737
-0.281199
0.714408
-0.432548
-0.748783
0.99276
-0.243977
0.275658
0.204569
-0.480227
-0.37568
0.201645
-0.262355
-0.0363752
0.132399
0.358129
-0.286923
-0.737575
-0.210445
0.0740586
0.60686
0.440119
0.137438
-0.718995
0.78187
-0.0529201
-0.32347
0.37639
-0.0519936
-0.840072
0.892066
0.129538
-0.133778
0.00424018
0.291419
-0.191613
-0.219232
0.477249
0.519205
-0.363715
-0.34296
-0.170048
-0.00996571
-0.438969
0.448934
0.412424
-1.02338
-0.0148651
-0.494392
0.509258
0.0191947
-0.12104
0.101846
-0.633187
0.0121086
0.621079
0.968226
-0.656561
-0.00366481
0.113897
-0.110232
-0.246034
-0.0256409
0.192264
0.375565
-0.567829
0.165325
-0.203126
0.0378015
0.680702
0.389851
-1.07055
-0.398525
1.14767
0.122936
0.00425804
-0.274324
-0.579223
0.853547
0.425171
0.717851
0.760283
-0.644354
-0.39337
0.259733
-0.217431
-0.0168437
-0.304881
0.931465
0.139023
-0.783286
0.644263
0.95276
-0.140601
-0.812159
-0.300197
0.62032
-0.320123
0.400502
-0.179095
-0.458472
0.637567
0.188708
-0.19011
0.00140199
-0.297545
-0.458343
0.755888
0.16375
-0.0501959
0.0669137
-0.0769596
0.500912
-0.798457
-0.683311
-0.189457
0.872767
-0.0469194
-0.48382
0.530739
-0.0360162
1.06341
-1.10228
0.0388744
0.234288
-0.116032
-0.118256
-0.0272416
-0.346055
0.250083
0.26282
-0.369617
-0.00066069
-0.750205
0.927799
-0.177594
0.122011
-0.17237
0.504652
0.258905
-0.839763
-0.252508
-0.0380423
-0.20061
0.238652
0.530019
-0.0899009
-0.237243
0.260428
-0.0231851
-0.145662
0.19039
-1.16284
0.546114
0.835507
0.128172
-0.101858
0.278043
-0.220762
0.496419
0.857086
-0.28173
-0.242569
0.00532577
-0.146415
-0.614935
0.297236
0.283088
-0.271405
-0.906944
0.0250322
-0.0337319
0.242933
-0.045396
-1.00667
0.613359
0.393306
0.833438
0.154616
0.230052
-0.0819834
-0.148068
0.335116
-0.298734
-0.0363815
-0.88525
0.330553
-1.00274
0.505836
-0.231214
0.0894689
0.141745
0.0203594
-0.122955
0.102595
0.957117
0.00220373
-0.959321
0.231052
0.0141274
-0.245179
-0.151543
-0.291224
0.260674
-0.0344702
-0.124247
0.127699
-0.0034518
0.444816
-0.030085
-0.414731
0.0154577
-0.139705
0.819405
-0.609203
-0.031805
-0.166849
0.198654
-0.965427
0.215222
0.0186088
0.0532917
-0.189073
0.063857
0.359081
-0.0656578
-0.32758
0.246435
0.200544
-0.446979
0.376511
-0.2178
0.31636
-0.36928
0.256156
-0.223171
0.1117
-0.342294
0.817915
-0.216687
-0.601228
0.56801
-0.0759476
-0.492063
-0.350537
-0.108041
0.145518
0.0436423
-0.18916
0.256416
-0.427567
0.171151
1.04516
-0.0235429
-1.02161
0.167288
0.0513361
-0.218624
-0.490403
0.665987
-0.175584
0.45133
0.516799
-0.968129
0.0822772
0.196374
-0.310666
0.462036
-0.15137
0.240643
0.104365
-0.345008
-0.69961
0.394721
0.304889
0.119452
0.00824647
-0.830556
0.147245
0.343926
-0.202001
-0.141925
0.408462
-0.591533
0.183071
-0.114273
-0.207567
0.167874
0.895536
0.805467
-0.15331
-0.652157
-0.800327
0.106828
0.33039
-0.565354
0.638166
-1.04058
0.402412
-0.119089
0.317392
-0.0078361
-0.403242
0.263737
-0.177439
0.24115
-0.106299
-0.784367
0.890665
0.420032
0.310545
-0.713633
0.762575
-0.0489417
-0.034995
-0.236772
-0.551245
-0.21559
-0.139411
0.155313
-0.0159015
-0.0214835
-0.282219
0.303703
-0.11016
0.40773
-0.29757
-0.140975
0.549437
-0.560673
-0.177413
0.738086
-0.750767
-0.219633
0.9704
0.447528
-0.401557
-0.0459714
-0.285486
0.0194169
0.26607
0.153654
0.077278
-0.230932
-0.88493
0.0251527
0.859777
0.0235782
0.218924
-0.242503
0.758342
-0.84215
0.0838082
-0.425506
0.214865
0.263324
-0.478189
0.0126572
-0.152068
-0.37192
-0.257625
0.629544
0.621539
-0.991214
-0.97557
0.854114
0.121456
0.195405
-0.0300802
0.755184
-0.250531
-0.112298
-0.1816
0.293898
-0.0140611
0.204039
-0.189978
-0.201029
0.695409
-0.49438
0.882638
-0.633304
-0.249335
0.975914
-0.947961
-0.0279533
0.700751
-0.385706
-0.315045
0.0430922
-0.257327
0.214235
-0.323252
-0.0177776
-0.89835
0.797254
0.101096
0.0834823
-0.981832
-0.273425
0.688461
-0.415036
-0.456397
-0.257643
0.228842
-0.185552
-0.0432902
-0.768676
-0.196751
-0.216359
0.151043
0.0653155
0.18517
-0.135694
-0.920842
0.847865
0.0729771
-0.204547
0.164407
0.188502
0.251079
-0.0200273
-0.566155
0.0661539
0.179786
-0.197915
0.018129
-0.265223
0.367355
-0.102131
0.427457
-0.0451781
-0.220525
0.399788
0.204514
0.396826
0.301057
0.165674
-0.466731
-0.206761
0.548032
-0.634857
0.416507
0.21835
0.122523
-0.00307096
0.738251
-0.318219
0.509944
-0.351297
-0.128912
-0.250505
0.379417
0.237194
-0.760258
0.523065
0.569556
-0.616475
0.97787
-0.427025
-0.550844
-0.00590685
-0.536738
-0.0981187
-0.696608
0.98561
-0.289002
-0.0455887
-0.229261
0.877363
-1.00549
0.236811
-0.218146
-0.0449013
-0.193878
0.1831
0.172516
-0.00492367
-0.49683
-0.525934
1.08107
-0.427927
0.138906
-0.257806
0.1189
0.0517011
0.249766
-0.658348
-0.314084
0.972432
0.397619
0.187368
-0.00466401
-0.1656
0.170264
0.816452
0.143817
0.0148564
-0.158673
0.641175
0.17674
-0.324429
-0.922442
0.176564
-0.249297
0.0144609
0.234836
0.549755
0.651889
0.0828981
0.239272
-0.32217
0.934268
0.0416466
0.595262
-0.855965
0.260702
-0.809521
0.0119649
0.797556
-0.755328
0.947961
-0.192632
0.162996
-0.00529257
-0.157703
-0.363178
0.984717
0.104252
0.18322
-0.287472
0.0440881
-0.757721
0.537809
-0.242883
-0.294925
-0.82163
1.03118
-0.209547
-0.213296
0.567165
-0.353869
1.17277
-0.520403
-0.652364
0.054387
-0.615324
0.560937
0.134389
0.0119463
-0.377623
0.828953
0.548612
-0.896478
0.868894
-0.328208
-0.205476
0.173671
-0.837971
0.0284504
0.921823
-0.330713
0.00215037
-1.02594
0.317112
-0.0025252
0.268249
0.59447
-0.862719
0.553528
-0.159866
-0.393662
0.594429
-0.949275
0.354846
-0.201443
0.0123154
0.189127
-0.202633
-0.490573
0.693206
0.3776
-0.2659
-0.561364
0.406023
0.155342
0.217525
0.187859
-0.405384
0.0823099
0.146532
-0.825817
0.962462
-0.136645
0.116432
0.0131055
0.443185
0.228237
-0.671422
0.308418
0.402541
-0.710959
0.182285
0.484831
0.0163124
0.942967
-0.00143057
0.788953
-0.787523
0.070724
-0.043188
-0.390588
0.0749966
0.315591
0.629062
-0.460205
-0.168857
0.442278
0.535592
-0.191532
0.1462
0.0453321
-0.227065
0.768395
-0.54133
-0.00158128
0.197191
-0.19561
0.234238
-0.689405
0.455168
-0.321323
-0.209142
0.530465
0.683078
-0.0560228
0.249771
0.303757
-0.349323
-0.351378
0.700701
0.321096
-0.827773
0.0979913
0.172146
-0.270137
0.20687
-0.0514538
-0.155417
0.00726879
0.12712
-0.0555634
0.854011
-0.798447
-0.10691
0.864976
0.736015
-0.63442
-0.101594
0.666066
-0.530675
-0.527898
0.23634
0.291558
-0.160947
-0.264641
-0.0772842
0.0302558
0.0470284
0.0746448
0.155407
0.141376
0.736037
-0.877412
0.270874
0.173942
0.137783
-0.88855
-0.508654
0.0902588
0.418396
-0.355588
-0.220682
0.57627
0.52073
-0.274295
-0.823327
0.541193
0.399029
-0.418238
0.0192096
-0.579111
0.83716
-0.25805
-0.441856
0.496548
-0.537558
0.512405
0.0251531
-0.703386
0.986027
-0.282641
-0.0233995
0.240809
-0.217409
0.148439
-0.128079
-0.440971
-0.643469
0.994926
-0.351458
-0.542287
0.714591
0.485409
-0.535143
0.0497337
-0.0912593
-0.135384
0.226643
-0.956259
0.667149
0.28911
0.00801113
-0.124999
0.116988
-0.00311973
0.498118
-0.699148
0.702444
-0.46525
-0.186533
-0.524296
-0.69962
0.69819
0.441587
0.0756151
0.236609
0.235608
-0.472217
-0.358972
0.330196
0.0287755
0.322189
-0.0986332
-0.223556
0.297488
-0.468772
0.171284
-0.422414
0.568369
-0.145955
-0.700598
-0.118899
0.819497
0.122439
-0.213698
0.379585
0.249478
-0.982146
0.70035
0.281796
0.173021
0.108247
-0.281268
0.00646325
0.208636
-0.263233
0.0545969
-0.641878
-0.178017
0.475505
0.158332
0.22221
-0.179118
0.209949
-0.231433
0.334476
-0.496303
0.0270254
0.307135
0.00256203
-0.308427
0.305865
-0.526577
-0.400995
0.927572
0.146163
-0.495486
-0.521471
-0.0179051
0.539376
0.0922502
0.239209
-0.331459
-0.00282338
1.06975
-0.6864
-0.383349
0.171587
0.63388
-0.0175195
0.572714
-0.345038
-0.227676
-0.297478
0.589033
-0.291554
-0.548867
-0.173575
0.722441
-0.481154
0.170487
-0.338347
-0.18955
1.17783
-0.444415
-0.733412
-0.220093
0.0709977
0.149095
0.332333
0.109482
-0.441816
-0.188853
0.212432
0.0804678
0.224261
-0.304729
-0.0930401
-0.031324
-0.226056
-0.0101424
0.713567
0.46426
-0.492817
0.93967
-0.224425
0.839447
-0.192979
-0.0271136
-0.753382
0.204515
0.726431
-0.612116
-0.134049
-0.633496
0.143093
0.386912
-0.660338
0.607422
-0.686218
0.808696
-0.0313989
-0.202172
-0.134118
-0.208495
-0.139763
0.348258
-0.319817
-0.0412185
0.701604
0.128973
-0.830577
-0.0168292
-0.251954
0.268784
-0.125669
0.3949
-0.999196
0.604296
0.785772
-0.0274301
-0.924346
0.931175
-0.00682972
0.213805
-0.171368
-0.830245
-0.126014
-0.320793
0.832498
-0.0352443
0.277975
0.929339
-0.356595
-0.572744
-0.518519
-0.0917712
0.61029
0.0472281
0.421389
-0.468617
-0.69602
0.0628323
-0.22068
-0.0725792
0.293259
-0.452039
0.591063
0.195197
0.470175
-0.665372
-0.37394
0.0686804
0.305259
-0.802249
0.0484031
0.753846
0.118389
0.584055
-0.281007
0.394916
0.305835
-0.214669
-0.205172
0.704782
-0.809581
0.159189
-0.354382
0.195193
-0.211395
0.293672
0.677703
0.0134662
-0.691169
0.608942
-0.833367
0.0211685
-0.134714
-0.228165
0.472233
-0.244069
-0.609435
0.237515
-0.0308284
0.315989
-0.285161
0.177375
0.0756631
-0.253038
0.172712
0.118707
-0.258028
0.588417
-0.108298
-0.122915
-0.171411
0.184068
0.30248
-0.100034
-0.197582
0.169705
-0.216413
0.205124
0.0112896
0.221993
-0.247452
0.0254591
-0.69678
0.576789
0.039366
-0.560837
-0.0579382
-0.316538
-0.0288545
0.57164
-0.542786
0.344873
-0.399173
0.258082
-0.55891
0.300829
-0.458199
0.769013
-0.310814
0.270657
-0.970993
0.259704
-0.0312204
-0.94435
0.396026
0.68504
-0.698766
-0.124561
-0.650005
-0.329231
-0.441535
0.177421
-0.151553
-0.0662556
0.217809
1.079
-0.529243
0.93054
-0.233478
-0.244415
-0.165688
0.410102
-0.858086
0.362392
0.495694
0.247896
0.0721253
-0.217134
0.431998
0.177133
-0.099076
-0.592645
0.26145
-0.157198
0.0499072
0.229006
-0.278914
-0.136334
0.837938
0.121654
-0.207124
0.0854703
0.909135
-1.0615
0.504124
0.557376
0.143707
0.277222
-0.420929
0.690721
-0.48711
-0.203612
-0.528862
0.315566
-0.175494
-0.057285
0.389618
0.891707
-0.943701
0.430809
-0.190166
-0.330843
0.65194
-1.02632
0.700283
0.326039
0.252079
-0.71392
0.461841
-0.664735
0.722041
-0.057306
0.306812
-0.513572
0.0127397
0.156074
0.291455
-0.0406535
-0.674109
0.238148
-0.973164
0.364702
0.608462
0.245367
-0.763886
0.725827
-0.0111545
-0.589978
0.0971946
0.400098
0.991355
-0.333344
-0.658011
-0.507122
0.234096
-0.589684
0.178205
-0.896703
0.804932
-0.506387
0.327291
0.429261
-0.827929
0.557516
0.270414
-0.939693
0.609416
0.330277
-0.399026
-0.0667851
0.0859798
-0.930944
0.668936
0.262009
0.601736
-0.964915
-0.817471
-0.00834596
1.0389
-0.400731
0.583057
-0.0525439
-0.530513
-0.0266285
-0.16687
0.193498
0.151828
0.463698
0.527283
-0.648339
-0.17959
0.138565
0.239035
0.191803
0.376665
-0.568468
0.400812
-0.232148
-0.00968159
-0.888539
0.898221
-0.375269
0.2748
-0.689173
-0.545689
-0.347386
0.893075
0.251663
-0.351911
-0.675464
0.208787
0.466676
0.214482
-0.0657197
-0.148762
0.841066
-0.947365
0.211059
-0.439224
0.563104
0.117516
-0.68062
0.236095
-0.0971886
-0.784335
0.229557
0.554778
-0.547418
0.226095
0.283843
-0.581321
0.378582
-0.219393
0.16064
0.0538421
-0.0233966
0.976157
-0.570294
0.740971
-0.170677
0.96762
0.00992785
-0.977548
-0.546536
0.0569687
-0.379731
0.0111326
0.809147
0.140729
0.0340587
0.185462
0.077743
0.2316
0.50895
0.27561
0.0465792
-0.854178
-0.0666645
-0.864183
0.428947
-0.854452
0.182298
0.195888
-0.378186
0.893493
0.0506617
-0.944155
-0.122715
0.117422
-0.328635
-0.674106
-0.741723
-0.130193
-0.256643
0.865586
-0.318295
0.459192
-0.140897
-0.799339
0.272762
-0.284421
0.476225
-0.411414
-0.595251
-0.26381
-0.226676
0.364766
-0.442367
0.177144
1.00309
-0.170593
0.667591
-0.481949
-0.185642
0.027003
0.501349
0.278194
0.949223
-0.891638
-0.043066
-0.227208
0.337294
-0.465136
0.531415
-0.465177
-0.536705
0.23054
0.174757
-0.405297
-0.840261
0.0199811
-0.1326
0.744767
-0.612168
-0.120063
-0.804282
-0.627805
0.655192
1.00824
-0.45326
-0.554975
-0.0549239
0.307381
0.696568
-0.289342
-0.407226
0.272631
-0.303955
-0.369423
-0.0211651
-0.164864
-0.0117109
0.176575
-0.20749
0.4441
-0.379845
0.981582
-0.0127067
-0.172845
-0.274052
-0.101962
0.376015
-0.00934558
0.850411
0.307173
0.0303457
-0.337519
-0.374862
0.567127
0.342763
0.425633
-0.476008
-0.0326462
0.532672
-0.202703
-0.329969
0.416845
0.0259456
-0.44279
0.00418553
-0.626476
0.622291
-0.881481
0.139759
0.224837
-0.434267
0.863214
-0.0120108
0.284642
0.147323
-0.465619
-0.98922
0.510638
-0.809485
0.292835
-0.460548
0.0729762
-0.3049
-0.53441
0.83931
-0.962136
0.00489493
-0.18879
0.183895
0.733656
-0.544651
0.556347
-0.509119
0.128609
0.522971
-0.651579
0.132974
-0.353655
-0.649934
-0.28537
0.935304
-0.284958
0.302967
-0.0180092
-0.441399
0.743757
-0.302358
0.690138
-0.544468
-0.14567
0.842448
0.0324535
-0.874902
-0.41864
-0.64286
-0.31357
-0.0464903
0.379875
0.655753
-0.0110736
0.11034
-0.0992663
-0.614396
-0.169939
0.555513
0.526476
-0.512028
0.624721
-0.112693
0.172593
-0.157737
0.335416
0.122715
-0.45813
-0.0730435
0.194698
-0.0642285
-0.866716
-0.927085
0.549895
-0.150866
0.0263051
0.183213
0.0748954
0.690727
-0.765622
-0.509404
-0.056751
0.610953
0.310112
0.0741727
-0.276857
0.297072
-0.373274
0.0762024
0.0245415
-0.33881
0.314269
0.524594
0.173999
0.283445
0.780725
-0.383758
0.735097
-0.460297
-0.11733
-0.255387
0.372716
0.723344
0.102995
-0.00512364
-0.656461
0.453829
0.805761
-0.815106
-0.341536
-0.384596
0.726132
-0.490924
-0.367162
-0.836306
0.856113
-0.0198063
-0.199321
-0.357682
0.21792
0.509943
0.270782
0.172784
-0.238455
0.065671
-0.331365
-0.679429
-0.228448
-0.654073
0.882521
0.575481
-0.177863
-0.195964
0.293956
0.518828
-0.847463
0.385241
-0.365555
-0.4175
0.92042
-0.50292
0.296852
0.376732
0.33214
-0.708872
0.815394
-0.503571
-0.311824
-0.367513
-0.586116
0.871267
-0.285151
0.496786
0.170805
-0.298012
0.286001
0.375664
0.797103
-0.226152
0.199524
-0.135469
0.0549309
0.876619
-0.473888
0.424095
0.654903
-0.412373
0.228686
0.183687
0.26919
-0.398103
0.687167
-0.00946476
0.645895
-0.0628388
-0.621271
-0.0221358
0.643406
0.195107
-0.0253756
-0.169731
0.170618
0.06367
0.170826
-0.926154
-0.292922
0.342351
0.641044
-0.592101
-0.0489436
0.172633
0.360039
-0.161423
0.0794397
0.280957
0.20571
-0.486667
-0.334537
0.696258
-0.0856608
-0.403044
0.902897
-0.499853
-0.188262
0.405787
-0.101801
-0.272139
0.960355
-0.501553
-0.287687
0.51413
0.176592
0.314345
-0.372283
-0.190871
0.167471
-0.266819
-0.153776
-0.00811809
0.310063
-0.146476
0.741995
-0.595519
0.224532
-0.218701
-0.313845
0.132244
-0.34082
0.0272505
-0.897025
0.622702
0.252529
0.209508
0.254672
-0.36083
0.106158
0.194708
0.112627
0.697007
0.391379
-1.08839
-0.11993
-0.0141256
0.134055
0.033161
-0.781944
0.653475
0.35476
0.738104
-0.663209
-0.890998
-0.0431578
0.0474222
-0.396241
0.425114
0.545744
0.315546
-0.86129
0.411299
-0.0664263
-0.0281544
-0.307994
-0.104379
-0.557166
-0.447941
0.286994
0.377296
0.615464
0.54134
-0.487701
-0.0536392
0.199585
0.0055386
-0.0494501
0.257098
-0.0351059
0.702015
0.208022
-0.910036
-0.271291
0.321198
-0.235971
0.143886
0.0920855
-0.345784
-0.0109357
0.35672
0.340127
0.259476
-0.599603
0.201154
0.319576
0.637212
-0.0183105
-0.268314
0.340077
-0.262334
-0.121265
0.0709176
0.0503471
-0.868625
0.5167
0.780338
-0.625147
-0.155191
0.0183376
-0.156351
0.138013
0.774601
-0.830164
0.560034
0.0154477
0.156899
0.399448
-0.145817
-0.00795899
0.211856
-0.285916
0.0740602
-0.434524
-0.134962
0.99844
-0.509495
-0.488945
0.73777
-0.246518
-0.491253
0.414673
-0.669932
0.255259
0.0343922
0.475386
0.0421784
0.0107718
0.419886
-0.430658
-0.0620944
0.273951
-0.371193
-0.153421
-0.0537035
0.866675
0.0116864
-0.878362
-0.437327
0.284801
-0.282239
0.169205
-0.023005
0.136204
0.336029
-0.478851
0.368692
-0.00270265
-0.00140029
-0.0853725
0.1493
-0.353288
0.481896
0.00760103
0.275487
-0.051486
-0.149141
0.60332
0.0269006
0.514439
-0.143924
-0.131004
-0.20826
0.489217
-0.153213
0.621872
-0.468659
-0.741334
-0.0892218
-0.284724
0.727514
-0.44279
0.0747824
-0.228203
0.317469
-0.0570967
-0.0183447
-0.2486
0.266945
-0.765432
0.263879
0.139393
-0.143058
0.446679
-1.10503
0.319678
-0.898901
-0.284254
0.49589
-0.30198
0.499893
-0.294183
0.0111316
-0.568855
0.57304
-0.000766056
-0.159721
0.0629604
-0.464517
-0.119573
-0.534782
0.654355
0.21148
0.296985
1.11112
-0.718857
-0.392268
-0.210994
0.0759052
0.235633
0.0216985
-0.257332
-0.724677
0.154383
0.201833
0.00503721
-0.00744517
-0.13604
0.143485
0.461441
-0.746165
0.0751176
0.411461
0.0588061
-0.470267
-0.717259
0.564046
0.155053
0.0375413
-0.192594
0.344632
-0.9881
-0.149076
-0.001782
0.150858
0.202105
-0.0470521
0.0204652
0.655371
-0.473086
0.537959
0.48464
-0.283486
-0.821683
0.275994
-0.596338
0.523998
0.0723401
0.368211
-0.709747
-0.461793
-0.264743
0.726536
-0.0140484
0.39821
-0.296865
0.266272
0.883948
-0.097369
-0.786579
0.00333048
-0.857508
0.751957
0.0904915
0.409683
0.286885
-0.162943
-0.00265644
0.15742
-0.221939
-0.35025
-0.331633
0.284568
0.0470656
0.0308402
-0.883097
0.852256
-0.122629
0.367432
-0.244802
0.273474
-0.850492
0.577018
-0.0428023
-0.51342
-0.0271095
0.0301035
0.593832
-0.334378
-0.169112
0.50349
-0.342891
-0.281213
0.431494
-0.256736
-0.221802
0.0485349
0.173268
-0.0955577
0.350229
-0.878382
-0.106495
-0.0693755
0.175871
0.220001
0.159534
-0.379534
0.552903
-0.881049
0.328146
0.0786614
-0.524219
0.151705
-0.973335
-0.458169
-0.552828
1.011
-0.869665
0.0581333
0.811532
-0.95429
-0.707229
0.0424946
-0.306752
0.302511
0.00424057
-0.848851
-0.262558
0.964572
0.377961
-0.177418
0.106165
-0.314425
-0.141781
0.461357
0.153901
0.103031
-0.377084
0.017853
-0.15933
0.141477
-0.170296
0.00697954
-0.104255
0.122592
-0.302292
0.445999
-0.98419
0.61587
0.36832
-0.165749
0.464515
0.492023
0.206095
-0.0109876
-0.0908201
0.263604
-0.436709
-0.238754
-0.512758
0.167572
0.345187
-0.0303801
-0.154823
0.185203
-0.411557
0.436098
-0.0824772
0.644564
0.523929
-0.216756
0.414727
-0.757619
0.425464
-0.483934
0.0584695
0.123849
-0.00995208
0.160879
-0.00851454
-0.839862
0.534962
0.26419
0.47358
0.012777
-0.19936
0.186583
-1.06903
0.460559
-0.0964071
0.172609
-0.188588
-0.0175517
-0.215144
0.232695
-0.526026
0.191648
-0.907339
0.84311
0.792264
-0.22916
-0.24962
0.230166
0.0194532
-0.24056
0.0399498
-0.156521
-0.980458
0.397125
0.583333
-0.150275
0.136149
-0.0304957
0.354993
-0.324498
0.49571
0.0643234
-0.225719
-0.0251532
0.250872
-0.279548
0.287149
-0.364586
0.00876841
0.511033
-0.842074
0.885929
0.0483385
-0.525606
-0.293435
0.840082
-0.0407484
-0.799333
0.0719159
0.106316
-0.178232
0.494273
-0.991103
0.444693
0.0234369
-0.468129
0.156217
0.0674992
-0.223716