/*--------------------------------*- C++ -*----------------------------------*\
| =========                 |                                                 |
| \\      /  F ield         | OpenFOAM: The Open Source CFD Toolbox           |
|  \\    /   O peration     | Version:  2306                                  |
|   \\  /    A nd           | Website:  www.openfoam.com                      |
|    \\/     M anipulation  |                                                 |
\*---------------------------------------------------------------------------*/
FoamFile
{
    version     2.0;
    format      ascii;
    arch        "LSB;label=32;scalar=64";
    class       volVectorField;
    location    "0.4";
    object      U;
}
// * * * * * * * * * * * * * * * * * * * * * * * * * * * * * * * * * * * * * //

dimensions      [0 1 -1 0 0 0 0];

internalField   nonuniform List<vector> 
13486
(
(1.62214 -0.328059 5.90809e-19)
(1.68054 0.124727 2.96653e-19)
(2.04859 0.0672903 0)
(0.983385 -0.548617 -1.52347e-19)
(2.65972 -0.283307 1.22149e-19)
(2.155 -0.0614689 -6.09497e-20)
(2.70359 0.338507 -3.52874e-21)
(2.28161 -0.752892 -2.74731e-19)
(2.09592 -0.390311 0)
(2.10101 0.404078 0)
(1.76202 -0.642641 -1.92574e-20)
(2.10774 0.00936605 0)
(1.52482 -0.523271 -5.88108e-19)
(2.33512 0.278162 -4.90099e-20)
(2.51481 0.0787656 9.46167e-20)
(1.9997 0.433389 -2.18092e-19)
(1.68584 -0.833942 9.93997e-20)
(1.87939 0.268984 2.69599e-19)
(2.00904 0.0281213 3.82856e-21)
(1.78361 -0.162863 -6.00034e-19)
(0.767268 -0.301034 -3.13291e-21)
(1.5299 -0.539681 7.60044e-19)
(1.77287 0.0754923 -2.37005e-19)
(1.95753 -0.170305 0)
(2.09564 0.323036 7.85875e-20)
(1.89829 -0.199408 2.26904e-20)
(1.46524 -0.71786 4.41736e-20)
(1.80617 -0.0246967 -1.432e-19)
(2.0852 0.158355 0)
(2.01961 -0.0434207 8.4859e-20)
(1.14618 0.210394 4.73588e-20)
(2.22677 0.187567 -1.66662e-19)
(1.98616 -0.171149 -3.61894e-20)
(1.96879 0.079978 0)
(2.30317 -0.727987 0)
(1.96626 0.0227328 -4.61905e-20)
(1.97164 -0.0113048 1.11523e-19)
(1.81649 -0.833756 2.96625e-19)
(1.99936 0.00530797 2.36055e-20)
(2.12636 -0.283657 2.94245e-19)
(3.34597 -0.736978 0)
(1.29727 -0.629136 -6.85317e-19)
(1.99511 -0.0960525 0)
(2.04683 0.225052 -3.83705e-19)
(2.02893 0.274773 1.60492e-19)
(2.12135 0.0393459 1.44424e-19)
(2.07389 -0.778522 2.09325e-19)
(2.02941 -0.0217413 -2.00904e-20)
(1.98356 -0.000134247 -8.55488e-20)
(2.09502 0.0931457 -7.96124e-20)
(2.16756 0.186322 4.00722e-19)
(1.97228 0.0232281 0)
(2.12235 0.16283 -2.10407e-19)
(1.84958 -0.678267 -4.31662e-19)
(1.84488 0.260841 0)
(2.58905 -0.29328 -9.55074e-20)
(2.01479 0.026642 -4.28943e-20)
(1.99622 0.0250416 7.61788e-20)
(2.15484 -0.1404 -5.15095e-20)
(1.98063 -0.103837 0)
(1.73634 -0.607608 -8.03393e-21)
(2.06954 0.00622211 0)
(2.17633 -0.418615 -5.17757e-20)
(0.731684 -0.221043 -2.1581e-22)
(1.74243 -0.0897943 0)
(2.00365 0.0558285 5.47441e-20)
(1.03235 -0.504743 -9.14622e-20)
(1.61723 -0.103197 2.02807e-19)
(2.11915 -0.409979 -1.66662e-19)
(1.99369 0.0946567 -2.94127e-20)
(0.960266 -0.482847 1.04939e-19)
(1.857 0.268582 1.34742e-20)
(2.06146 -0.117227 2.24914e-19)
(2.20334 -1.53397 -3.48281e-19)
(1.94001 -0.0866602 1.01688e-20)
(1.94355 0.0809118 7.07698e-21)
(2.00763 0.0923702 -2.49084e-20)
(2.50123 0.146585 -3.68891e-20)
(2.03094 -0.755028 -8.65783e-20)
(1.94775 -0.0280861 0)
(2.0724 -0.0257109 -1.43289e-20)
(1.70569 0.19826 -1.8772e-20)
(2.21787 -0.516761 -2.61617e-21)
(2.19921 0.0302387 -2.65886e-20)
(1.63845 -0.331642 -1.15819e-18)
(1.57762 1.26735 0)
(2.06664 0.0748014 7.70565e-20)
(2.1039 0.0797676 -6.09015e-19)
(1.97883 0.0442339 -2.53411e-19)
(2.00969 0.605425 -2.58758e-19)
(2.15328 0.176741 -1.19825e-19)
(2.41 -0.585017 -1.37366e-19)
(1.66876 -0.401092 1.5282e-19)
(1.72185 -0.0747164 1.61217e-20)
(2.06319 -0.628977 6.72792e-20)
(2.01702 -0.00955008 6.60365e-21)
(1.59937 -0.781242 0)
(1.18363 -0.50712 4.76668e-21)
(2.078 -0.18393 -5.60243e-19)
(1.88993 -0.907347 2.35961e-21)
(2.03135 -0.178292 0)
(2.36874 0.301375 -2.20142e-20)
(1.1986 -0.478373 -8.85901e-21)
(1.96465 0.0445141 -8.88374e-20)
(1.56591 1.20004 0)
(1.91039 -0.899598 1.68637e-21)
(2.06891 0.0077396 7.79258e-21)
(1.99371 -0.0150873 6.05584e-20)
(2.04508 -0.777755 1.24477e-19)
(2.40562 -1.06492 0)
(1.93071 -0.918485 0)
(2.38483 0.339594 -1.41118e-19)
(1.85435 -0.6547 3.81944e-21)
(2.13119 -0.0187303 2.81155e-21)
(1.29711 -0.210298 0)
(1.90242 -0.926292 -2.47635e-19)
(2.0997 0.366591 0)
(1.98012 -0.0112602 0)
(1.97918 -0.0743121 0)
(1.99895 0.0136712 4.85577e-20)
(1.89416 0.244104 -1.2241e-19)
(1.75046 -0.612608 0)
(2.02918 -0.565826 0)
(1.99694 -0.00721267 -7.84525e-20)
(2.14365 -0.714859 0)
(2.01048 0.0216203 0)
(2.30476 -0.206166 5.98882e-21)
(2.1311 0.0778293 2.11139e-19)
(2.04939 -0.0551586 2.37784e-20)
(1.76981 -0.0854449 4.02941e-20)
(1.99207 -0.0116565 9.96214e-21)
(2.07384 -0.783324 -5.22592e-20)
(2.64337 -1.09262 3.9281e-19)
(0.00148889 -0.975633 1.68849e-18)
(2.15573 0.0155902 -6.54841e-20)
(1.92108 0.22286 -2.92709e-19)
(0.953673 0.46462 -1.81816e-19)
(2.37656 -1.02831 0)
(2.01969 0.00269727 -1.57454e-20)
(2.26377 -0.553346 -1.02059e-19)
(2.1646 -0.104544 4.87635e-20)
(2.30125 0.156118 1.74801e-19)
(2.25632 0.116862 0)
(1.99955 0.00220426 0)
(2.12869 0.124341 1.11537e-20)
(2.00536 -0.429958 -2.24631e-20)
(2.05186 0.0782653 -6.16431e-20)
(0.540664 1.19434 0)
(2.08097 -0.078531 0)
(2.00718 -0.0462813 0)
(2.08323 0.0078183 6.99442e-21)
(2.68487 0.0142667 0)
(2.00997 -0.0382471 1.50403e-20)
(1.73775 0.20288 -1.59111e-19)
(2.12164 0.244216 0)
(1.92838 0.0833133 0)
(2.48685 -1.11038 0)
(2.04853 1.9035 1.35588e-19)
(1.98516 -0.777226 6.03617e-19)
(2.04197 0.0487067 1.03932e-19)
(1.92408 -0.062782 -7.43719e-20)
(1.98068 -0.741201 -9.15753e-19)
(2.14344 0.298058 9.02851e-20)
(1.1807 -0.563725 3.01242e-19)
(1.95333 -0.0217373 0)
(2.3966 0.2341 3.33175e-20)
(2.23161 0.217516 1.82482e-19)
(0.77366 -0.304709 -7.4583e-19)
(2.06619 0.0599493 1.59397e-19)
(-0.554458 -0.862045 3.42311e-19)
(2.54457 -1.06995 -3.48005e-20)
(2.23528 0.121437 1.44485e-19)
(1.81141 0.126239 -5.29187e-19)
(2.30384 -0.0518597 1.03247e-20)
(1.90441 -0.0199536 1.43155e-20)
(1.44819 -0.387045 0)
(2.47028 0.466988 -3.07145e-20)
(2.208 -0.19021 -2.44984e-20)
(1.90842 0.0681707 -6.2836e-19)
(2.1748 0.1381 0)
(2.13694 -0.284693 5.94105e-19)
(1.99245 -0.025456 5.27968e-21)
(2.2324 0.107955 2.67766e-21)
(1.24477 -0.594747 0)
(2.07167 0.00386186 8.46138e-20)
(2.08453 -0.0185165 7.27037e-20)
(1.97105 -0.00823084 3.55454e-20)
(1.97945 -0.0554183 2.62416e-20)
(3.27335 -0.677236 0)
(1.71914 -0.829359 -3.22261e-19)
(1.9985 0.00670525 0)
(1.78714 -0.00246373 0)
(1.86301 -0.0986735 0)
(1.5222 0.547057 -3.44839e-19)
(1.87893 -0.0214648 0)
(1.75423 -0.671783 -4.47008e-21)
(1.77011 -0.0774802 -9.16459e-20)
(2.09799 -0.183405 -2.7965e-20)
(1.61678 -0.786491 -1.29813e-19)
(2.42374 0.207657 3.90228e-20)
(1.23112 0.189523 -6.14152e-20)
(2.08769 -0.00612219 -6.8145e-21)
(1.79915 -0.847151 -3.43414e-19)
(2.66609 -1.08039 -1.81388e-20)
(2.02795 0.097011 -1.28449e-19)
(1.94745 0.0256996 7.17726e-20)
(1.78998 0.337959 1.11651e-19)
(2.0078 -0.192577 4.54296e-19)
(1.97224 -0.017648 0)
(2.02617 0.0368717 0)
(2.07925 -0.0821132 -6.16604e-20)
(1.93284 -0.133647 -5.32329e-20)
(1.75683 -0.174974 5.48839e-19)
(1.83651 0.0855421 8.38147e-21)
(2.2672 0.0829076 7.02536e-20)
(1.89925 -0.0238674 -2.58321e-20)
(2.02449 -0.0480334 0)
(1.99912 0.621622 6.30662e-19)
(1.77577 -0.431225 0)
(2.53787 -0.198619 0)
(1.83695 -0.885718 -1.97831e-19)
(2.29831 -0.100815 0)
(2.24346 -0.567882 2.35239e-19)
(2.30742 0.0398351 0)
(2.0619 0.060407 -4.50975e-20)
(1.5803 -0.725209 2.12e-19)
(2.24056 0.0181698 5.27036e-21)
(1.36617 -0.109942 -2.04901e-20)
(1.86862 -0.0768004 6.61091e-21)
(2.06189 0.0143844 1.13809e-21)
(2.07878 -0.214412 -1.9214e-19)
(4.02014 0.692716 8.54058e-19)
(2.1549 -0.0838291 -5.97079e-20)
(1.2944 -0.619077 2.34957e-19)
(1.12528 -0.343591 0)
(1.56127 -0.745399 2.50939e-20)
(1.97591 -0.00462078 -5.82783e-20)
(2.21423 -0.0193625 -1.6454e-20)
(1.44712 -0.689028 6.76096e-19)
(2.18664 0.053923 0)
(1.98798 -0.210911 0)
(2.23888 0.221146 8.20125e-19)
(2.00778 0.00198621 0)
(1.4481 -0.715898 2.27625e-19)
(1.98006 0.0178451 6.03853e-20)
(1.84691 0.0251548 0)
(2.10601 -0.0839375 -4.86018e-20)
(1.9474 -0.139001 -7.58468e-20)
(1.28909 -1.00233 6.40713e-19)
(2.03838 0.25028 0)
(1.37278 -0.56325 3.48203e-21)
(1.26609 -0.185361 8.66178e-20)
(1.7229 -0.846594 3.07551e-19)
(2.00097 0.0100993 0)
(1.96291 0.0167556 -4.05382e-20)
(1.52755 -0.419094 -5.58048e-21)
(2.29551 0.181842 1.41994e-19)
(1.83493 -0.0128252 3.26551e-20)
(2.2452 1.49097 -1.37895e-19)
(2.00378 -0.174462 -2.87053e-20)
(1.80528 0.0446353 0)
(1.97855 0.0204376 -3.95354e-21)
(2.4972 0.109125 -2.22514e-19)
(1.50378 -0.413413 6.9527e-21)
(2.6465 -0.678551 -1.1193e-19)
(1.40228 -0.68197 0)
(1.90756 0.0511089 7.07197e-20)
(1.05954 0.0778711 4.71265e-20)
(1.90444 -0.0624222 -2.6039e-19)
(1.9626 0.171771 0)
(1.72781 0.59205 2.5448e-19)
(2.02615 -0.013128 -1.72108e-19)
(2.02338 -0.0945018 0)
(2.12006 0.0626226 1.30147e-19)
(1.57693 -0.736237 2.81797e-19)
(2.01178 -0.150925 3.85111e-20)
(1.94608 -0.0189595 0)
(1.80142 0.0594711 0)
(2.03039 0.0826275 4.64608e-20)
(2.0903 0.0614768 1.00284e-19)
(1.78527 0.100752 -1.14701e-19)
(2.11465 -0.211616 -2.16403e-19)
(1.99401 0.00286578 3.56798e-19)
(1.95805 -0.284604 1.55632e-20)
(1.68981 -0.631515 9.95738e-21)
(1.82352 -0.862627 1.30235e-19)
(2.08847 -0.177201 -4.33436e-20)
(1.86084 -0.0143172 -3.11851e-20)
(2.11885 0.100986 8.11773e-20)
(2.06438 0.0380107 0)
(1.08426 -0.355246 0)
(1.97107 -0.0442346 -7.60219e-20)
(1.89781 -0.905808 2.48017e-19)
(2.01721 -0.0671601 -6.24588e-20)
(1.97745 -0.0484808 -6.38127e-20)
(1.98362 -0.0309431 0)
(2.26427 0.0729396 6.56113e-20)
(2.02726 0.0624013 -1.20569e-19)
(1.91998 0.0249314 -3.39661e-19)
(3.07889 0.0869899 -7.09421e-20)
(2.1006 0.302128 -1.08131e-19)
(1.79587 0.340595 1.86101e-21)
(2.0783 0.0961688 -8.61996e-20)
(2.28961 0.188569 1.58029e-19)
(2.01836 0.00365998 -1.85164e-20)
(2.4051 -1.08313 0)
(3.5035 0.331935 0)
(2.36916 -0.198602 8.6941e-20)
(2.02789 0.111773 -6.57324e-20)
(2.01421 -0.00395024 0)
(3.29813 1.60846 -2.82145e-18)
(0.924745 -0.503116 0)
(2.37956 0.482507 4.68548e-20)
(2.3584 0.307224 -1.5597e-19)
(1.87735 -0.471001 0)
(1.95603 0.239764 -1.80354e-19)
(1.89187 0.0476897 1.08423e-19)
(1.84702 0.0643106 -2.12849e-20)
(1.89415 -0.0312355 -5.0358e-19)
(1.76609 -0.027621 0)
(1.97905 0.0240157 -9.91075e-20)
(1.99628 -0.0096944 1.29399e-21)
(2.0002 0.00157095 7.75297e-20)
(1.75376 0.0122967 -2.9678e-19)
(1.03449 0.43487 3.30011e-19)
(2.15724 0.174138 2.45386e-19)
(2.43733 -0.168159 -5.5624e-19)
(2.13399 -0.10518 0)
(2.24204 0.0276086 3.9624e-21)
(2.42285 -0.132943 -9.33759e-20)
(2.10188 0.0295365 8.88115e-19)
(2.46086 -0.585516 0)
(2.11971 0.189511 -6.23711e-20)
(1.65815 0.159592 0)
(2.76069 0.333269 -4.24231e-20)
(2.14961 -0.534339 -1.81582e-19)
(1.03732 -0.487642 2.79589e-19)
(2.661 -0.00326955 -1.13578e-19)
(2.11736 0.0921475 0)
(1.9802 0.0253363 9.65126e-20)
(2.06748 -0.0214018 -4.71906e-20)
(1.74474 -0.00454981 2.80249e-19)
(2.44159 -0.133395 3.85911e-19)
(2.24603 0.0787255 2.19763e-19)
(1.54148 -0.670809 6.20282e-22)
(2.02962 -0.0829437 1.79038e-20)
(2.09181 -0.12864 0)
(1.28724 -0.479317 6.76303e-19)
(2.50474 -0.186108 0)
(1.94123 0.043668 2.5116e-21)
(2.08548 -0.0994185 3.65072e-19)
(2.07724 0.0574905 -1.36359e-19)
(2.15108 0.113715 1.02669e-19)
(1.55889 -0.754186 -4.05776e-20)
(1.92104 0.0170081 4.22111e-19)
(2.10284 -0.0657145 0)
(2.38287 -1.63484 -2.97608e-19)
(2.41179 -0.0578784 -1.22987e-19)
(1.98389 0.0422861 4.63322e-20)
(1.84658 -0.155945 -5.21477e-20)
(2.33835 0.00210741 0)
(2.16703 0.162029 1.80433e-19)
(1.8435 0.0518584 6.17129e-19)
(1.88766 0.0344021 5.21549e-19)
(1.9813 -0.0699716 0)
(1.99097 0.00451023 -3.56807e-21)
(1.98499 -0.0453869 5.47351e-20)
(2.14626 -0.792929 3.65972e-20)
(1.72942 -0.148212 7.64332e-20)
(2.20498 -0.224469 1.16915e-19)
(2.16654 0.0239981 1.42326e-21)
(2.36658 -0.0783564 0)
(2.09495 0.145695 -1.90826e-19)
(1.41649 -0.584411 -3.52667e-21)
(2.25386 0.0504996 -1.1197e-19)
(2.0403 -0.0524509 3.50212e-19)
(1.73052 -0.0126008 0)
(1.9857 0.0135252 1.31904e-19)
(1.91079 -0.468797 0)
(2.97135 -0.379567 -1.71316e-19)
(1.9745 -0.114522 0)
(2.48025 -0.684771 -8.22979e-21)
(1.53399 -0.235007 -1.64066e-19)
(1.69528 0.547181 6.02422e-19)
(2.13779 -0.781216 -1.40524e-19)
(1.90846 0.0411217 0)
(2.1387 -0.0399525 -1.97527e-19)
(2.10107 0.133514 -2.19228e-19)
(1.61227 -0.804095 -1.07699e-19)
(0.847155 0.55094 -7.34903e-21)
(1.76877 -0.122425 -8.3168e-19)
(1.92022 -0.107911 -3.58328e-20)
(2.05189 0.146055 1.59203e-19)
(1.67831 -0.538163 0)
(1.55506 0.116154 3.26098e-19)
(2.01963 0.000363857 4.66501e-20)
(0.964453 -0.49652 8.64796e-20)
(1.40975 -0.584012 1.26373e-20)
(1.78755 -0.882958 -1.74064e-19)
(2.17312 -0.116877 0)
(1.8006 -0.895234 0)
(2.16474 0.729724 0)
(1.99263 -0.140001 0)
(2.88411 -0.310701 -4.86675e-19)
(2.64496 0.334309 0)
(2.01894 0.0895083 0)
(1.85531 -0.0134521 1.15374e-19)
(2.25845 -0.266182 2.53114e-20)
(2.2403 -0.0389326 -3.00496e-19)
(1.80007 0.171677 1.00677e-18)
(2.18939 0.041252 -1.10866e-19)
(2.71523 1.14211 0)
(2.05373 -0.033986 0)
(1.89986 0.0145616 3.50343e-19)
(2.02249 0.00184576 6.5829e-20)
(1.51604 0.569263 0)
(1.23439 -0.589004 -2.02813e-22)
(2.63234 -0.70111 1.26134e-19)
(2.41826 -1.04757 0)
(2.12651 0.0943778 2.23529e-19)
(1.90184 -0.0400838 -4.14993e-19)
(2.01906 0.588816 -8.59491e-20)
(1.28211 -0.46541 0)
(1.96747 0.182236 4.0943e-19)
(2.1711 -0.0173928 0)
(1.98926 -0.0385704 0)
(2.00617 0.0883483 -3.11841e-20)
(2.10889 0.00744316 1.92474e-19)
(1.56419 -0.765715 -5.71894e-20)
(2.22981 0.297149 6.05681e-20)
(1.56639 -0.442205 -2.90392e-19)
(2.20217 -0.032204 3.92688e-20)
(2.05525 0.0489981 1.40724e-19)
(2.1296 0.0879198 5.01198e-19)
(2.787 -0.628201 0)
(1.98974 -0.162834 -4.8621e-20)
(1.51325 -0.189331 0)
(1.96786 -0.002411 -7.37755e-20)
(2.29289 -0.0305515 0)
(1.59348 -0.0725665 4.28252e-19)
(2.05856 -0.901482 -2.19803e-19)
(2.02889 -0.0919415 0)
(3.02572 -1.0526 8.83125e-20)
(1.90537 -0.101834 7.30307e-20)
(2.03157 0.103815 1.09277e-19)
(1.93723 -0.324515 7.75589e-19)
(1.60468 0.518351 -3.82934e-19)
(1.55126 -0.437618 -8.2513e-19)
(2.94079 -0.377731 0)
(1.98815 0.0328394 -4.92607e-20)
(1.54988 -0.669497 3.27089e-21)
(2.03484 0.090486 0)
(1.92529 0.220171 2.31767e-20)
(2.05918 -0.120343 1.74643e-20)
(2.70257 0.268471 0)
(1.97386 0.033692 0)
(1.10083 -0.531005 0)
(1.52711 -0.366202 -3.02118e-20)
(1.8961 -0.332004 -1.85916e-20)
(2.11607 -0.369893 1.90362e-21)
(2.37914 0.486942 0)
(1.90415 -0.258533 5.35002e-19)
(2.03477 -0.0477438 -2.90772e-20)
(2.27021 0.258952 -1.4941e-19)
(0.863086 -0.527336 1.17972e-19)
(1.89977 0.116562 0)
(1.99534 -0.000931543 0)
(1.04316 -0.281166 -4.63657e-19)
(1.65451 -0.536518 -2.02306e-19)
(2.05023 -0.159773 0)
(2.10474 -0.997954 -2.11458e-19)
(2.12152 -0.0904436 -1.30191e-21)
(2.02103 0.0655851 -2.968e-21)
(1.13244 -0.524184 0)
(1.95271 -0.0494044 -5.01222e-20)
(2.0126 0.0206384 -4.99354e-20)
(2.23213 -0.0703698 -9.79897e-20)
(2.11771 -0.57223 0)
(1.83912 -0.868966 -1.96722e-19)
(2.08607 0.0736599 1.31537e-19)
(2.0054 0.16564 8.31844e-20)
(1.94253 0.000377232 -2.4583e-20)
(2.45229 0.138372 0)
(1.78924 0.15486 -2.68608e-19)
(2.41118 -0.175038 -2.37639e-20)
(1.74988 -0.85505 3.30406e-20)
(2.04768 0.159283 0)
(0.957104 0.501095 7.5635e-21)
(0.814581 -0.272185 0)
(2.09915 -0.0134275 -3.2725e-19)
(1.69038 0.0948073 1.41829e-19)
(1.96659 0.038012 -5.91944e-20)
(1.47567 -0.407518 0)
(2.11859 -0.0488034 -4.595e-20)
(1.33443 0.233327 8.95471e-19)
(2.70646 -0.620417 0)
(1.69968 -0.0447934 3.62127e-19)
(3.04878 -0.0061415 8.09486e-20)
(2.0271 -0.0715849 0)
(1.12046 0.0453277 -2.34201e-20)
(1.85401 0.0651774 1.12764e-19)
(2.06016 0.0394579 0)
(1.90771 -0.87399 1.6543e-19)
(1.90048 0.140506 0)
(2.05058 -0.912944 2.39471e-19)
(1.39012 -0.542446 -9.2398e-21)
(2.1141 0.0711073 -3.41003e-20)
(2.15591 0.0290448 1.07995e-19)
(1.53882 0.1256 1.72084e-19)
(1.91502 -0.331721 -2.84274e-19)
(1.91414 0.0205824 3.99994e-20)
(2.03933 -0.893009 3.25857e-21)
(2.29652 -0.0386436 1.11436e-19)
(2.40702 0.189365 -5.56942e-20)
(2.54966 -1.08866 0)
(1.91945 -0.0839746 -3.1023e-19)
(2.45271 -1.08424 -1.78249e-19)
(1.59392 -0.185934 0)
(2.01305 0.0159854 1.68826e-20)
(2.15831 -0.0240477 0)
(1.47214 -0.478802 7.13153e-19)
(2.46246 -0.807913 0)
(1.92846 0.0506632 8.60413e-20)
(2.34092 0.000797899 -2.0634e-19)
(1.23699 0.0217172 -5.23822e-20)
(1.16471 -0.557383 5.70415e-22)
(2.10116 -0.074643 -1.95069e-21)
(2.16132 -1.0244 1.4039e-19)
(2.00182 -0.60358 2.71954e-19)
(1.69199 -0.419653 0)
(1.32121 -0.635822 -1.11366e-20)
(2.79376 -0.500665 -2.87381e-20)
(1.37728 -0.65675 -1.29372e-20)
(1.90642 -0.0385557 6.05414e-22)
(1.68381 -0.661813 0)
(2.14719 0.224903 -2.36631e-21)
(1.33109 -0.63526 0)
(1.21927 -0.475989 -8.30504e-21)
(2.00262 0.550516 1.08318e-19)
(2.41405 1.62657 0)
(2.32441 -0.457398 7.47685e-20)
(1.65458 -0.107559 0)
(2.72532 0.281722 0)
(1.99332 -0.930022 -3.16121e-19)
(1.6628 0.175972 2.63127e-19)
(1.88207 0.0202717 0)
(1.84601 0.0803382 -1.69958e-19)
(2.08073 -0.429977 3.35624e-20)
(1.45155 -0.596769 -1.70056e-20)
(2.97095 0.50333 0)
(2.01119 0.0200078 0)
(1.57447 -0.681432 -7.55292e-22)
(1.91639 -0.208414 0)
(2.10542 0.0620673 0)
(1.71949 -0.579409 -8.39979e-22)
(2.22224 -0.287648 -3.7099e-19)
(1.9585 -0.469556 2.36121e-19)
(2.08761 -0.168154 -4.32953e-21)
(1.23669 -0.602047 1.91754e-20)
(2.11432 0.117029 1.53046e-19)
(1.7364 -0.452236 0)
(2.1945 0.204537 -6.87616e-20)
(1.62588 -0.305581 0)
(2.13334 -0.0348461 0)
(1.9353 0.088888 0)
(2.30402 0.182674 -2.44298e-20)
(2.00411 -0.107792 2.35563e-19)
(2.02517 0.00738424 -1.79927e-20)
(1.76918 -0.457062 0)
(1.4228 -0.693678 -3.55183e-20)
(2.15004 0.657691 1.11121e-19)
(2.14475 -0.729907 2.4956e-20)
(1.98952 -0.00581688 5.48061e-20)
(1.86674 -0.110645 -1.22919e-19)
(2.00816 0.100578 -2.44271e-19)
(2.07011 -0.921235 0)
(2.16483 0.0544202 0)
(1.64435 0.553339 0)
(1.49179 -0.66346 -5.15557e-19)
(1.55776 0.0271969 7.90787e-20)
(2.38059 1.20592 0)
(2.19266 0.224488 0)
(2.16369 0.154433 1.65311e-19)
(1.8287 -0.0280384 -6.05578e-20)
(1.98289 0.35762 3.11275e-19)
(2.71659 -1.08578 0)
(1.70625 -0.759378 -1.09292e-20)
(2.07673 0.0471729 1.25192e-19)
(1.619 -0.502155 -4.86082e-19)
(2.20516 0.10095 -1.72444e-19)
(2.21782 0.23449 2.07142e-19)
(1.78261 -0.229486 -2.92458e-20)
(1.48017 -0.663288 8.99558e-19)
(1.87421 -0.00805891 -9.02052e-20)
(2.02165 0.0248111 7.70211e-21)
(2.16795 -0.0712855 -7.09523e-20)
(1.91541 -0.891038 -6.30217e-20)
(1.87423 0.0304817 -5.36578e-20)
(1.87139 1.69336 -6.2475e-20)
(2.06834 -0.975063 1.11301e-19)
(1.98027 0.151739 0)
(1.94101 0.0913843 -2.27331e-20)
(2.02251 0.0225206 -3.97605e-19)
(2.54477 -0.0574209 2.58146e-20)
(1.59096 -0.490374 -4.42013e-19)
(2.12717 -0.707284 -2.74121e-19)
(2.08318 -0.2094 5.8713e-19)
(2.28781 -0.231896 -3.35257e-19)
(2.0409 0.0520717 -1.39486e-19)
(2.20353 -0.0700274 2.90165e-20)
(1.3767 -0.291002 -9.71606e-19)
(2.09321 0.052973 -3.12637e-19)
(1.3715 -0.356253 0)
(1.31955 -0.0912132 8.39202e-20)
(1.9342 -0.088316 5.75901e-19)
(2.07711 0.0392691 1.04271e-21)
(2.12479 -1.4777 0)
(2.39706 -1.07933 0)
(2.06745 0.248919 2.87435e-19)
(1.27972 -0.304499 6.05089e-19)
(1.73442 -0.186179 5.94975e-20)
(2.52396 -0.672455 -1.10938e-19)
(2.39465 -0.189568 3.0209e-19)
(2.51371 -0.276668 0)
(2.05118 0.221689 1.63987e-19)
(1.84824 0.34335 3.29146e-21)
(2.51608 0.392732 -2.18441e-20)
(2.0883 -0.198813 -3.30417e-19)
(1.3764 -0.666029 -2.92259e-20)
(1.92644 -0.109536 1.14685e-19)
(1.86652 -0.147015 -2.51338e-20)
(2.38225 0.67312 0)
(1.96065 -0.0141837 3.63715e-20)
(2.04116 -0.0308987 5.81823e-20)
(2.03056 -0.00378004 7.86788e-21)
(1.19293 -0.577906 8.26163e-19)
(2.04536 -0.226812 4.96452e-19)
(1.98391 0.0417909 -5.85597e-20)
(1.4368 -0.596935 8.55023e-21)
(2.1025 0.0110815 2.09353e-20)
(2.14234 -0.186975 2.75752e-19)
(1.70588 -0.644104 -1.59497e-21)
(2.44867 0.440601 1.15003e-19)
(1.90262 -0.889954 -1.79395e-19)
(1.48042 -0.712612 -2.75023e-19)
(2.02583 0.0106858 0)
(1.8849 -0.0401291 -3.73131e-20)
(1.6097 -0.539882 7.97597e-21)
(1.52131 -0.278931 8.81292e-19)
(2.06549 0.00228926 0)
(2.13416 0.253211 1.16062e-19)
(1.42708 -0.598589 2.03635e-19)
(1.9933 -0.0219835 -6.52874e-19)
(1.45733 -0.680926 3.6471e-21)
(1.95225 -0.031932 2.7267e-20)
(2.04739 -0.0950533 2.03752e-19)
(2.1864 -0.0813391 3.01332e-19)
(2.08775 -0.928627 -3.26367e-19)
(2.03193 -0.00392283 2.23235e-20)
(1.56912 -0.0194519 1.48148e-19)
(2.09931 -0.0977506 3.73075e-19)
(2.10436 -0.0649142 -1.72464e-19)
(2.08988 0.0136826 -2.10825e-22)
(1.87778 -0.0274712 -3.56173e-19)
(1.39904 -0.613858 -3.94013e-19)
(2.00005 0.00559621 0)
(1.41958 -0.317885 -3.04394e-20)
(2.02017 -0.0128915 4.73737e-20)
(2.12167 0.581006 -1.0637e-19)
(2.00223 0.00882599 1.13696e-19)
(2.37432 -0.236303 -1.84322e-19)
(1.88589 0.00670212 -5.61281e-19)
(2.07783 0.114981 9.86205e-20)
(1.16573 -0.559671 2.08146e-22)
(1.97602 -0.113171 0)
(1.97473 0.0128389 -6.80831e-20)
(2.02578 0.102376 1.396e-19)
(1.68195 -0.647468 0)
(2.11552 0.051046 2.25575e-19)
(1.88436 0.082349 1.752e-19)
(2.06643 -0.0599301 1.34071e-23)
(3.44392 -0.761715 2.01593e-19)
(1.94177 0.0218625 0)
(1.79498 0.183882 4.96692e-19)
(2.01323 0.0421077 6.35021e-20)
(1.99001 -0.948559 2.61133e-19)
(2.07266 -0.156162 0)
(1.58384 0.112886 -7.61279e-19)
(1.92844 0.232134 -1.24833e-19)
(2.77627 0.796764 -2.19191e-19)
(1.37561 -0.320205 9.42555e-19)
(1.89815 -0.0456862 5.45622e-20)
(1.2127 -0.580767 -2.83371e-21)
(2.12615 -0.203577 -3.6124e-19)
(1.98405 -0.149143 7.4229e-20)
(1.84543 0.0843902 -3.52867e-19)
(1.88313 -0.101193 0)
(1.97421 0.062988 -2.87762e-19)
(1.32207 -0.11761 2.30622e-18)
(2.51266 -1.96238 0)
(1.85325 -0.189846 0)
(2.00322 -0.000412542 0)
(1.70732 -0.83046 0)
(1.99376 0.199982 0)
(1.34064 -0.295306 0)
(1.86869 -0.0486318 -1.53021e-21)
(2.03092 -0.35443 1.15326e-22)
(2.25175 0.000729913 0)
(1.81914 0.191695 7.41963e-19)
(1.90458 0.1551 2.51052e-19)
(2.20326 0.161961 -8.71099e-22)
(1.65133 -0.550301 1.56023e-21)
(1.33609 -0.0834744 -1.46786e-21)
(1.29841 -0.619392 -1.88862e-21)
(2.089 0.103176 -1.54951e-19)
(2.17378 -0.0592474 -5.81139e-21)
(2.0136 0.180435 -2.06217e-19)
(1.90681 0.135265 -4.89509e-19)
(2.08674 0.59294 -2.42528e-19)
(2.99583 -0.287709 0)
(0.525885 -0.0895924 1.73229e-20)
(1.49195 -0.494469 -7.81944e-19)
(2.03102 -0.00493969 -8.73692e-19)
(2.81629 -0.526818 -7.93923e-20)
(2.30131 0.0141661 5.61815e-20)
(3.43572 -0.00796715 -2.40878e-19)
(2.23358 -0.230323 -4.26773e-20)
(2.32104 -0.459908 -2.54906e-19)
(1.94294 0.225835 2.28244e-19)
(4.52336 0.98075 0)
(1.93672 0.0160689 3.91706e-20)
(1.83278 -0.0346699 -1.068e-19)
(2.58463 0.37272 0)
(1.97226 0.0229225 0)
(2.22573 -0.99117 -4.63747e-21)
(1.26904 -0.589597 -2.43931e-21)
(1.92546 -0.0396687 1.15679e-19)
(1.97774 0.0105234 0)
(1.96486 -0.0525264 -4.76723e-19)
(1.80755 0.0360573 -9.5148e-20)
(1.31477 -0.278319 -1.80161e-20)
(2.113 0.0567404 7.25135e-20)
(1.28375 -0.613687 0)
(0.567365 -0.241197 1.08292e-20)
(2.19462 -0.0736175 0)
(1.98878 -0.0453921 -4.33691e-20)
(2.14373 0.221403 -1.32215e-19)
(1.92741 -0.00711449 4.46163e-21)
(2.23247 0.165872 -3.20649e-19)
(2.7966 0.433397 -3.43924e-20)
(1.9524 -0.534751 5.71526e-19)
(1.47713 0.484472 0)
(1.72104 -0.0286539 1.00894e-19)
(1.88083 0.111616 0)
(2.2651 -0.00773467 2.3439e-20)
(1.30167 -0.302681 -3.21378e-20)
(1.87747 -0.183993 -4.90336e-20)
(1.96155 0.0153246 6.23484e-20)
(1.57739 -0.437828 3.27849e-20)
(1.80118 -0.876657 -3.02024e-19)
(1.51341 -0.495017 -4.52304e-19)
(2.01659 0.0122105 -1.58591e-20)
(1.80336 -0.0430884 -8.22406e-20)
(1.42312 -0.623769 3.24303e-19)
(1.5771 -0.507028 4.96182e-19)
(1.53091 0.0376113 -9.78614e-20)
(1.74816 -0.0619424 4.43994e-20)
(2.09023 -0.613587 2.76794e-19)
(2.13021 -0.853082 1.69251e-19)
(1.74655 0.00945392 1.47825e-20)
(1.96509 0.210962 -2.19713e-19)
(2.25121 0.173724 -1.00548e-19)
(2.61631 -0.34017 0)
(1.5904 -0.770755 -3.03972e-19)
(1.81591 0.0363544 -4.33611e-19)
(1.99714 0.108409 0)
(2.30927 0.0252228 0)
(1.69101 0.081477 1.16975e-19)
(1.99033 -0.180627 4.28714e-20)
(2.29078 0.136629 -2.32017e-19)
(2.25068 -0.327668 4.85534e-19)
(2.08361 0.606862 2.18041e-19)
(1.80366 0.0742977 4.0184e-19)
(1.33297 -0.343323 2.51478e-21)
(1.85518 0.381208 0)
(1.58853 -0.539594 4.76842e-19)
(1.89397 -0.689425 1.43696e-20)
(1.5472 -0.434133 -2.57106e-20)
(1.96141 -0.716538 9.30574e-20)
(2.53324 -1.1179 2.12893e-20)
(2.2831 0.109517 1.87825e-19)
(1.96332 0.0109319 -2.96394e-20)
(1.97924 -0.0588637 -9.18744e-20)
(1.34732 -0.365178 1.66333e-20)
(2.29477 0.160381 1.77869e-19)
(1.9369 0.0101539 2.05949e-19)
(1.36959 -0.353735 -3.87676e-19)
(2.03852 -0.107051 2.93995e-19)
(2.01653 0.12329 0)
(2.29976 0.152027 2.00573e-19)
(1.96108 0.0347985 4.72814e-20)
(1.65953 -0.392115 -1.52839e-19)
(2.1584 1.39202 -1.16115e-20)
(2.05845 -0.591414 2.06951e-19)
(2.02416 0.0783778 8.83525e-20)
(1.52646 -0.0366637 -5.83689e-19)
(2.61062 0.332187 0)
(1.9978 -0.000974171 1.11006e-19)
(2.08475 0.0465714 2.32465e-19)
(1.90819 0.0937825 0)
(1.56538 -0.121189 3.32081e-19)
(2.03601 0.0942233 0)
(2.05084 1.43307 2.78119e-19)
(2.19744 0.0408392 0)
(1.9442 0.0314904 0)
(2.2184 0.0712303 7.08195e-20)
(2.15266 -0.0503532 1.43938e-19)
(2.20934 -0.127515 1.9591e-20)
(1.9306 0.111334 -2.32172e-19)
(1.76822 0.823057 -1.68609e-19)
(1.92143 0.0875288 -1.0757e-19)
(2.16976 0.187836 0)
(2.05374 -0.605359 -1.43343e-20)
(2.20033 -0.00407402 -1.25286e-19)
(1.94543 9.09563e-05 8.88131e-20)
(2.57123 -0.337479 0)
(2.56759 0.0520724 4.84852e-20)
(2.52173 1.23619 6.26441e-21)
(1.98388 -0.0113945 5.49033e-20)
(1.69351 -0.331539 0)
(1.72086 -0.556326 7.44429e-22)
(2.07277 0.130533 0)
(1.9764 -0.0512102 4.76354e-20)
(0.876162 -0.817497 0)
(2.16544 -0.542439 0)
(1.85226 -0.0123286 0)
(2.40313 -0.807072 0)
(1.76077 -0.695774 -5.35115e-21)
(1.50085 -0.336393 7.0215e-21)
(1.9121 -0.102152 -3.54661e-19)
(1.21743 -0.0342259 4.96905e-20)
(1.48926 -0.643378 0)
(1.37514 -0.0900069 4.06182e-20)
(1.47179 -1.21963 -6.44013e-19)
(1.85543 -0.849926 0)
(1.68433 -0.602507 -5.06156e-19)
(1.94168 0.102405 1.72136e-20)
(2.22625 0.118663 2.62621e-19)
(3.15214 -0.759069 -8.88095e-20)
(1.88501 0.112286 0)
(2.6574 -0.646139 0)
(2.29008 -0.328646 1.99264e-20)
(1.93739 0.043467 -1.19274e-20)
(1.99828 -0.010327 3.69473e-20)
(1.74748 0.0886474 -3.06153e-21)
(2.09633 -0.0984213 2.06972e-20)
(2.03041 0.010885 1.60791e-20)
(1.94857 0.0506002 3.35648e-19)
(2.01389 0.0475417 -5.8718e-20)
(2.07603 -0.522798 0)
(1.73146 -0.821959 0)
(2.00248 0.0156685 0)
(2.10985 0.0311495 0)
(1.90735 -0.330693 2.11684e-19)
(2.17391 -0.0552849 0)
(1.74772 -0.631114 2.45177e-20)
(1.80254 -0.203626 -4.943e-21)
(1.53772 -0.527346 -7.47724e-19)
(1.94554 0.1918 -1.17037e-19)
(1.42354 -0.30865 1.50076e-20)
(1.82454 -0.616841 -1.9843e-20)
(1.9826 0.0624716 6.49265e-20)
(1.40138 -0.429367 1.42399e-20)
(2.00979 0.045171 -8.62609e-20)
(2.18554 0.0472777 0)
(2.45111 -0.00616847 0)
(1.9573 0.0918084 0)
(2.35663 -0.27432 9.79315e-20)
(1.74018 -0.112651 0)
(1.94334 0.387338 0)
(2.02711 0.104209 0)
(1.96995 -0.467314 2.21956e-19)
(2.08948 0.062642 -3.28849e-19)
(2.15899 -0.139349 0)
(1.86791 -0.0414721 9.42473e-20)
(1.94924 0.126469 -2.98303e-19)
(2.49663 0.339162 5.11484e-20)
(1.84072 -0.839189 2.98348e-19)
(1.99091 0.360732 5.69527e-21)
(1.92554 0.0170388 7.43565e-21)
(2.00984 0.0296977 -4.58665e-20)
(1.99675 0.00820374 6.16189e-20)
(2.25268 -0.00127223 -1.93139e-19)
(2.01342 -0.00281259 8.18826e-20)
(1.86771 -0.0237867 -3.43251e-19)
(2.11923 -0.00288747 0)
(2.07176 0.55262 8.04328e-20)
(1.84302 0.0221291 3.80147e-19)
(1.85639 0.241646 -1.33579e-19)
(2.2447 -0.195382 -1.23705e-19)
(1.30728 -0.321887 -6.60511e-19)
(2.28358 0.101175 3.31732e-20)
(2.28548 -0.17173 3.42184e-20)
(1.97666 -0.0255789 0)
(2.09605 -0.0484759 -6.36846e-20)
(1.97597 0.0236344 2.38633e-20)
(1.85454 0.0198931 -1.27466e-19)
(0.811991 -0.457032 -1.34835e-19)
(1.99664 -0.117868 1.92804e-19)
(2.02618 0.0103027 -8.15611e-21)
(2.02095 0.10112 -4.66336e-20)
(2.01096 0.00251042 0)
(1.9906 0.185154 0)
(1.74252 -0.824122 3.68172e-19)
(1.41112 -0.666258 -3.90639e-21)
(1.91756 0.0367444 2.6569e-21)
(2.0206 0.0949497 7.58347e-19)
(1.91954 0.138759 1.85441e-19)
(1.5884 0.129118 0)
(1.96028 -0.0193669 0)
(1.79133 -0.411723 -3.79573e-21)
(2.04665 -0.0927187 1.2676e-19)
(2.02205 0.362116 4.27172e-19)
(2.19922 0.116602 0)
(1.79206 0.0083241 0)
(2.38016 -0.542634 3.32241e-19)
(2.05935 -0.179957 2.7713e-19)
(0.428009 -2.16155 -2.95418e-19)
(1.92929 0.00471482 0)
(2.16937 -0.571065 2.56568e-20)
(1.96414 -0.0574757 2.23082e-20)
(1.6034 -0.534469 7.23535e-21)
(1.96383 -0.103343 -3.97132e-19)
(2.05498 -0.322369 0)
(1.97311 -0.226889 -3.50553e-20)
(1.70057 -0.316788 3.52204e-20)
(-0.265841 -2.81711 0)
(2.08191 0.163812 7.21786e-20)
(1.93166 0.0340041 -2.44491e-19)
(2.0173 0.0872032 3.42711e-23)
(2.1639 0.215175 7.17502e-20)
(3.66753 2.33652 9.30106e-19)
(2.01931 0.00658664 0)
(1.30058 -0.499114 -4.58534e-21)
(2.14633 0.0787628 -1.63725e-19)
(1.89599 -0.438088 8.70096e-21)
(2.03695 0.118204 2.44756e-19)
(1.50599 0.472312 -1.19593e-19)
(2.11407 0.0139516 -8.8124e-19)
(1.98913 0.0141156 3.00749e-20)
(1.97547 0.0464774 -6.64126e-20)
(1.92641 -0.444722 0)
(1.97184 0.0986769 6.21114e-20)
(1.3882 -0.634223 2.59071e-19)
(2.10411 -0.0101881 -3.66179e-19)
(1.99404 0.0260783 -3.36531e-19)
(1.97477 -0.0346045 -4.15745e-20)
(1.8031 -0.276145 7.83905e-19)
(2.0809 -0.0351434 -2.69646e-20)
(1.87687 0.0438548 1.97293e-19)
(2.00625 0.00894435 4.89932e-20)
(2.02541 -0.192452 4.70831e-20)
(2.49216 0.440285 2.68133e-20)
(1.69628 -0.166335 -4.70093e-20)
(2.18109 0.222538 0)
(1.87588 0.0808398 0)
(3.84463 0.74304 0)
(1.53537 -0.493892 5.78229e-19)
(2.16279 0.0959557 -5.71238e-19)
(1.84496 0.0821204 0)
(1.69045 -0.39723 -4.51513e-19)
(1.83916 0.110871 0)
(1.90712 -0.313684 -3.4902e-19)
(1.97295 -0.059527 1.03281e-19)
(2.09357 -0.516047 -2.99571e-19)
(2.00265 0.071463 0)
(1.96096 0.00690908 0)
(2.04753 0.00788366 -4.92939e-20)
(2.20994 0.0511453 -5.25569e-21)
(1.92576 -0.0199995 -4.87652e-20)
(2.78354 1.31089 -9.86889e-21)
(2.20086 0.164973 0)