# Moment      
# CofR        : (0.000000e+00 0.000000e+00 0.000000e+00)
#
# Time        	total_x total_y total_z	pressure_x pressure_y pressure_z	viscous_x viscous_y viscous_z
0.005          -6.733616e+01 7.424106e+01 -1.476857e+02 -7.239722e+01 5.887034e+01 4.423626e+01 5.061061e+00 1.537073e+01 -1.919220e+02
0.01           -9.744115e+01 9.203523e+01 1.783823e+02 -1.023609e+02 7.739870e+01 3.641536e+02 4.919790e+00 1.463653e+01 -1.857714e+02
0.015          -9.153626e+01 8.408063e+01 1.746442e+02 -9.634626e+01 7.020208e+01 3.543966e+02 4.809999e+00 1.387855e+01 -1.797524e+02
0.02           -7.890957e+01 7.237417e+01 7.612180e+01 -8.362230e+01 5.919201e+01 2.502812e+02 4.712730e+00 1.318216e+01 -1.741594e+02
0.025          -7.262665e+01 6.747506e+01 9.127151e+00 -7.723523e+01 5.493366e+01 1.775956e+02 4.608577e+00 1.254140e+01 -1.684685e+02
0.03           -7.078723e+01 6.596886e+01 -9.494678e+00 -7.527940e+01 5.402823e+01 1.530611e+02 4.492169e+00 1.194063e+01 -1.625558e+02
0.035          -6.887828e+01 6.455928e+01 -2.267484e+01 -7.322496e+01 5.316968e+01 1.337502e+02 4.346681e+00 1.138960e+01 -1.564250e+02
0.04           -6.787636e+01 6.306668e+01 -1.529219e+01 -7.205705e+01 5.216316e+01 1.351387e+02 4.180689e+00 1.090352e+01 -1.504309e+02
0.045          -6.843730e+01 6.270899e+01 2.951378e+00 -7.243974e+01 5.222656e+01 1.477069e+02 4.002433e+00 1.048243e+01 -1.447555e+02
0.05           -7.035721e+01 6.227594e+01 4.132637e+01 -7.419931e+01 5.217648e+01 1.808548e+02 3.842093e+00 1.009945e+01 -1.395284e+02
0.055          -7.131064e+01 6.124742e+01 7.765356e+01 -7.501800e+01 5.149398e+01 2.125970e+02 3.707362e+00 9.753446e+00 -1.349435e+02
0.06           -7.147516e+01 6.034317e+01 9.085517e+01 -7.505299e+01 5.091240e+01 2.214450e+02 3.577828e+00 9.430777e+00 -1.305898e+02
0.065          -7.418295e+01 6.028280e+01 1.420019e+02 -7.764031e+01 5.114820e+01 2.685338e+02 3.457365e+00 9.134600e+00 -1.265320e+02
0.07           -7.815884e+01 6.147760e+01 1.968654e+02 -8.150845e+01 5.261329e+01 3.196829e+02 3.349609e+00 8.864308e+00 -1.228175e+02
0.075          -8.059886e+01 6.172607e+01 2.415504e+02 -8.385803e+01 5.311022e+01 3.610484e+02 3.259170e+00 8.615850e+00 -1.194980e+02
0.08           -8.239592e+01 6.153289e+01 2.817125e+02 -8.558410e+01 5.314820e+01 3.983030e+02 3.188177e+00 8.384692e+00 -1.165904e+02
0.085          -8.489750e+01 6.188878e+01 3.264239e+02 -8.802007e+01 5.371225e+01 4.404122e+02 3.122573e+00 8.176537e+00 -1.139883e+02
0.09           -8.599386e+01 6.180522e+01 3.519309e+02 -8.905193e+01 5.381283e+01 4.635606e+02 3.058064e+00 7.992384e+00 -1.116296e+02
0.095          -8.724335e+01 6.196281e+01 3.747693e+02 -9.023825e+01 5.413183e+01 4.842572e+02 2.994899e+00 7.830982e+00 -1.094880e+02
0.1            -8.842548e+01 6.229263e+01 3.940505e+02 -9.136496e+01 5.460997e+01 5.015852e+02 2.939484e+00 7.682662e+00 -1.075347e+02
0.105          -9.017008e+01 6.270737e+01 4.243961e+02 -9.305737e+01 5.516645e+01 5.300504e+02 2.887284e+00 7.540916e+00 -1.056542e+02
0.11           -9.088071e+01 6.248041e+01 4.403678e+02 -9.371719e+01 5.507965e+01 5.441559e+02 2.836488e+00 7.400764e+00 -1.037881e+02
0.115          -9.335897e+01 6.291787e+01 4.839189e+02 -9.614117e+01 5.565593e+01 5.857882e+02 2.782201e+00 7.261939e+00 -1.018693e+02
0.12           -9.627405e+01 6.357083e+01 5.307422e+02 -9.899644e+01 5.644557e+01 6.305944e+02 2.722393e+00 7.125265e+00 -9.985225e+01
0.125          -9.869707e+01 6.412026e+01 5.690515e+02 -1.013517e+02 5.712838e+01 6.667569e+02 2.654598e+00 6.991888e+00 -9.770538e+01
0.13           -1.008141e+02 6.461177e+01 6.009798e+02 -1.033924e+02 5.774939e+01 6.964128e+02 2.578279e+00 6.862389e+00 -9.543296e+01
0.135          -1.025163e+02 6.483382e+01 6.271184e+02 -1.050121e+02 5.809696e+01 7.201926e+02 2.495729e+00 6.736856e+00 -9.307427e+01
0.14           -1.032865e+02 6.498708e+01 6.393162e+02 -1.056966e+02 5.837145e+01 7.300020e+02 2.410030e+00 6.615635e+00 -9.068572e+01
0.145          -1.054484e+02 6.569416e+01 6.673642e+02 -1.077693e+02 5.919471e+01 7.556359e+02 2.320885e+00 6.499454e+00 -8.827171e+01
0.15           -1.068100e+02 6.594341e+01 6.876524e+02 -1.090482e+02 5.955708e+01 7.736081e+02 2.238137e+00 6.386325e+00 -8.595568e+01
0.155          -1.082477e+02 6.623688e+01 7.078839e+02 -1.104053e+02 5.996296e+01 7.915739e+02 2.157575e+00 6.273925e+00 -8.368998e+01
0.16           -1.096779e+02 6.643232e+01 7.304034e+02 -1.117584e+02 6.026938e+01 8.119288e+02 2.080518e+00 6.162945e+00 -8.152532e+01
0.165          -1.108106e+02 6.640284e+01 7.496888e+02 -1.128166e+02 6.034898e+01 8.291514e+02 2.005953e+00 6.053856e+00 -7.946253e+01
0.17           -1.119235e+02 6.645340e+01 7.670564e+02 -1.138566e+02 6.050742e+01 8.445429e+02 1.933131e+00 5.945978e+00 -7.748654e+01
0.175          -1.136331e+02 6.666383e+01 7.927396e+02 -1.154983e+02 6.082631e+01 8.683446e+02 1.865251e+00 5.837519e+00 -7.560505e+01
0.18           -1.151956e+02 6.670385e+01 8.175522e+02 -1.169974e+02 6.097568e+01 8.913484e+02 1.801771e+00 5.728177e+00 -7.379617e+01
0.185          -1.166605e+02 6.694491e+01 8.381243e+02 -1.184039e+02 6.132747e+01 9.101787e+02 1.743335e+00 5.617437e+00 -7.205441e+01
0.19           -1.176262e+02 6.687151e+01 8.531645e+02 -1.193153e+02 6.136463e+01 9.235399e+02 1.689112e+00 5.506880e+00 -7.037537e+01
0.195          -1.185404e+02 6.691184e+01 8.662521e+02 -1.201802e+02 6.151528e+01 9.350207e+02 1.639794e+00 5.396557e+00 -6.876869e+01
0.2            -1.194548e+02 6.696920e+01 8.798929e+02 -1.210489e+02 6.168169e+01 9.471153e+02 1.594097e+00 5.287507e+00 -6.722247e+01
0.205          -1.200111e+02 6.688815e+01 8.894857e+02 -1.215621e+02 6.170786e+01 9.552147e+02 1.550950e+00 5.180286e+00 -6.572896e+01
0.21           -1.205478e+02 6.683046e+01 8.975070e+02 -1.220576e+02 6.175539e+01 9.617886e+02 1.509823e+00 5.075078e+00 -6.428165e+01
0.215          -1.209335e+02 6.664048e+01 9.033743e+02 -1.224042e+02 6.166893e+01 9.662562e+02 1.470675e+00 4.971548e+00 -6.288190e+01
0.22           -1.211566e+02 6.648493e+01 9.063354e+02 -1.225899e+02 6.161481e+01 9.678637e+02 1.433264e+00 4.870122e+00 -6.152831e+01
0.225          -1.216032e+02 6.639038e+01 9.128908e+02 -1.230006e+02 6.161924e+01 9.731120e+02 1.397441e+00 4.771142e+00 -6.022116e+01
0.23           -1.217660e+02 6.622108e+01 9.150020e+02 -1.231290e+02 6.154598e+01 9.739663e+02 1.363059e+00 4.675093e+00 -5.896430e+01
0.235          -1.222760e+02 6.620865e+01 9.215684e+02 -1.236062e+02 6.162672e+01 9.793259e+02 1.330149e+00 4.581929e+00 -5.775750e+01
0.24           -1.221102e+02 6.582541e+01 9.190103e+02 -1.234091e+02 6.133455e+01 9.756060e+02 1.298865e+00 4.490855e+00 -5.659569e+01
0.245          -1.225788e+02 6.586579e+01 9.244265e+02 -1.238487e+02 6.146454e+01 9.799063e+02 1.269848e+00 4.401252e+00 -5.547978e+01
0.25           -1.233136e+02 6.588241e+01 9.345202e+02 -1.245557e+02 6.156900e+01 9.889156e+02 1.242059e+00 4.313411e+00 -5.439533e+01
0.255          -1.233949e+02 6.563100e+01 9.364172e+02 -1.246105e+02 6.140363e+01 9.897620e+02 1.215571e+00 4.227363e+00 -5.334486e+01
0.26           -1.237197e+02 6.551541e+01 9.403950e+02 -1.249107e+02 6.137229e+01 9.927316e+02 1.190944e+00 4.143128e+00 -5.233657e+01
0.265          -1.240815e+02 6.544746e+01 9.460376e+02 -1.252490e+02 6.138644e+01 9.974012e+02 1.167526e+00 4.061021e+00 -5.136363e+01
0.27           -1.242436e+02 6.529578e+01 9.483240e+02 -1.253887e+02 6.131424e+01 9.987495e+02 1.145092e+00 3.981545e+00 -5.042553e+01
0.275          -1.246734e+02 6.530650e+01 9.538938e+02 -1.257969e+02 6.140178e+01 1.003413e+03 1.123445e+00 3.904719e+00 -4.951893e+01
0.28           -1.250533e+02 6.527062e+01 9.593020e+02 -1.261560e+02 6.143995e+01 1.007948e+03 1.102688e+00 3.830670e+00 -4.864548e+01
0.285          -1.260023e+02 6.559114e+01 9.718366e+02 -1.270850e+02 6.183167e+01 1.019638e+03 1.082683e+00 3.759478e+00 -4.780145e+01
0.29           -1.271678e+02 6.595311e+01 9.870977e+02 -1.282310e+02 6.226158e+01 1.034082e+03 1.063238e+00 3.691526e+00 -4.698391e+01
0.295          -1.280141e+02 6.617128e+01 9.986479e+02 -1.290587e+02 6.254458e+01 1.044841e+03 1.044530e+00 3.626701e+00 -4.619264e+01
0.3            -1.284814e+02 6.625161e+01 1.004443e+03 -1.295082e+02 6.268733e+01 1.049870e+03 1.026806e+00 3.564287e+00 -4.542694e+01
0.305          -1.292293e+02 6.642724e+01 1.015034e+03 -1.302388e+02 6.292314e+01 1.059711e+03 1.009541e+00 3.504108e+00 -4.467687e+01
0.31           -1.296548e+02 6.653672e+01 1.020663e+03 -1.306474e+02 6.309107e+01 1.064601e+03 9.925240e-01 3.445656e+00 -4.393776e+01
0.315          -1.307945e+02 6.688210e+01 1.035768e+03 -1.317699e+02 6.349329e+01 1.078970e+03 9.753463e-01 3.388805e+00 -4.320188e+01
0.32           -1.316755e+02 6.718541e+01 1.047001e+03 -1.326331e+02 6.385231e+01 1.089463e+03 9.575787e-01 3.333105e+00 -4.246220e+01
0.325          -1.322805e+02 6.732204e+01 1.054716e+03 -1.332199e+02 6.404371e+01 1.096436e+03 9.394089e-01 3.278337e+00 -4.172020e+01
0.33           -1.328861e+02 6.749298e+01 1.062290e+03 -1.338071e+02 6.426850e+01 1.103268e+03 9.209561e-01 3.224484e+00 -4.097813e+01
0.335          -1.334694e+02 6.765814e+01 1.069835e+03 -1.343717e+02 6.448660e+01 1.110073e+03 9.023168e-01 3.171545e+00 -4.023810e+01
0.34           -1.341507e+02 6.787447e+01 1.077816e+03 -1.350344e+02 6.475508e+01 1.117319e+03 8.836416e-01 3.119391e+00 -3.950249e+01
0.345          -1.345926e+02 6.795932e+01 1.083648e+03 -1.354577e+02 6.489131e+01 1.122424e+03 8.650735e-01 3.068014e+00 -3.877558e+01
0.35           -1.351090e+02 6.805762e+01 1.090574e+03 -1.359552e+02 6.503983e+01 1.128628e+03 8.462467e-01 3.017789e+00 -3.805397e+01
0.355          -1.356345e+02 6.818749e+01 1.097459e+03 -1.364621e+02 6.521887e+01 1.134803e+03 8.276517e-01 2.968616e+00 -3.734445e+01
0.36           -1.362108e+02 6.833545e+01 1.105010e+03 -1.370200e+02 6.541486e+01 1.141657e+03 8.092628e-01 2.920590e+00 -3.664699e+01
0.365          -1.365209e+02 6.832886e+01 1.109418e+03 -1.373122e+02 6.545522e+01 1.145382e+03 7.912368e-01 2.873643e+00 -3.596399e+01
0.37           -1.370844e+02 6.845522e+01 1.116902e+03 -1.378582e+02 6.562745e+01 1.152201e+03 7.737865e-01 2.827772e+00 -3.529890e+01
0.375          -1.373179e+02 6.841755e+01 1.121059e+03 -1.380739e+02 6.563393e+01 1.155705e+03 7.559794e-01 2.783627e+00 -3.464567e+01
0.38           -1.377658e+02 6.849432e+01 1.126843e+03 -1.385043e+02 6.575330e+01 1.160855e+03 7.384777e-01 2.741022e+00 -3.401211e+01
0.385          -1.383033e+02 6.859592e+01 1.133930e+03 -1.390247e+02 6.589587e+01 1.167332e+03 7.213930e-01 2.700054e+00 -3.340190e+01
0.39           -1.386226e+02 6.860338e+01 1.138846e+03 -1.393272e+02 6.594283e+01 1.171657e+03 7.045172e-01 2.660550e+00 -3.281050e+01
0.395          -1.387490e+02 6.853415e+01 1.140769e+03 -1.394369e+02 6.591177e+01 1.173006e+03 6.878551e-01 2.622380e+00 -3.223721e+01
0.4            -1.390457e+02 6.854191e+01 1.145073e+03 -1.397172e+02 6.595647e+01 1.176756e+03 6.715351e-01 2.585436e+00 -3.168316e+01
0.405          -1.392601e+02 6.852993e+01 1.148235e+03 -1.399157e+02 6.598031e+01 1.179382e+03 6.555778e-01 2.549613e+00 -3.114702e+01
0.41           -1.394584e+02 6.850845e+01 1.151026e+03 -1.400980e+02 6.599344e+01 1.181651e+03 6.396210e-01 2.515009e+00 -3.062464e+01
0.415          -1.397142e+02 6.853397e+01 1.154391e+03 -1.403382e+02 6.605261e+01 1.184509e+03 6.240112e-01 2.481366e+00 -3.011782e+01
0.42           -1.399640e+02 6.852952e+01 1.157923e+03 -1.405729e+02 6.608097e+01 1.187550e+03 6.088724e-01 2.448550e+00 -2.962696e+01
0.425          -1.401952e+02 6.855122e+01 1.160870e+03 -1.407894e+02 6.613477e+01 1.190020e+03 5.942095e-01 2.416453e+00 -2.915037e+01
0.43           -1.403921e+02 6.856892e+01 1.163077e+03 -1.409722e+02 6.618403e+01 1.191764e+03 5.800933e-01 2.384887e+00 -2.868707e+01
0.435          -1.406414e+02 6.860283e+01 1.166252e+03 -1.412081e+02 6.624904e+01 1.194490e+03 5.667208e-01 2.353788e+00 -2.823801e+01
0.44           -1.408078e+02 6.860742e+01 1.168093e+03 -1.413613e+02 6.628410e+01 1.195890e+03 5.534686e-01 2.323323e+00 -2.779693e+01
0.445          -1.412040e+02 6.872299e+01 1.173006e+03 -1.417448e+02 6.642975e+01 1.200373e+03 5.407254e-01 2.293245e+00 -2.736628e+01
0.45           -1.416004e+02 6.882048e+01 1.178202e+03 -1.421289e+02 6.655703e+01 1.205146e+03 5.285049e-01 2.263448e+00 -2.694468e+01
0.455          -1.417844e+02 6.884703e+01 1.180115e+03 -1.423014e+02 6.661323e+01 1.206647e+03 5.169639e-01 2.233796e+00 -2.653257e+01
0.46           -1.418362e+02 6.880846e+01 1.180588e+03 -1.423422e+02 6.660416e+01 1.206718e+03 5.060453e-01 2.204301e+00 -2.613013e+01
0.465          -1.420040e+02 6.881111e+01 1.182310e+03 -1.424995e+02 6.663617e+01 1.208045e+03 4.955714e-01 2.174940e+00 -2.573487e+01
0.47           -1.422633e+02 6.886892e+01 1.184980e+03 -1.427489e+02 6.672312e+01 1.210329e+03 4.855906e-01 2.145800e+00 -2.534854e+01
0.475          -1.424181e+02 6.887201e+01 1.186772e+03 -1.428940e+02 6.675517e+01 1.211740e+03 4.759296e-01 2.116843e+00 -2.496812e+01
0.48           -1.425203e+02 6.883608e+01 1.188407e+03 -1.429867e+02 6.674802e+01 1.212999e+03 4.664132e-01 2.088055e+00 -2.459140e+01
0.485          -1.426847e+02 6.883020e+01 1.190278e+03 -1.431417e+02 6.677072e+01 1.214496e+03 4.569707e-01 2.059475e+00 -2.421813e+01
0.49           -1.429492e+02 6.886893e+01 1.193322e+03 -1.433967e+02 6.683780e+01 1.217169e+03 4.474620e-01 2.031124e+00 -2.384717e+01
0.495          -1.429920e+02 6.881533e+01 1.193880e+03 -1.434299e+02 6.681222e+01 1.217359e+03 4.379017e-01 2.003111e+00 -2.347965e+01
0.5            -1.432239e+02 6.882879e+01 1.196978e+03 -1.436522e+02 6.685331e+01 1.220095e+03 4.282970e-01 1.975478e+00 -2.311632e+01
0.505          -1.432550e+02 6.875897e+01 1.197656e+03 -1.436733e+02 6.681048e+01 1.220412e+03 4.183205e-01 1.948492e+00 -2.275571e+01
0.51           -1.434268e+02 6.874504e+01 1.199691e+03 -1.438353e+02 6.682325e+01 1.222092e+03 4.085273e-01 1.921789e+00 -2.240088e+01
0.515          -1.435412e+02 6.871681e+01 1.201681e+03 -1.439400e+02 6.682117e+01 1.223734e+03 3.988401e-01 1.895640e+00 -2.205300e+01
0.52           -1.436758e+02 6.869087e+01 1.203407e+03 -1.440649e+02 6.682078e+01 1.225119e+03 3.891566e-01 1.870088e+00 -2.171158e+01
0.525          -1.438489e+02 6.869119e+01 1.205731e+03 -1.442285e+02 6.684608e+01 1.227109e+03 3.795969e-01 1.845108e+00 -2.137796e+01
0.53           -1.439863e+02 6.866917e+01 1.207464e+03 -1.443564e+02 6.684854e+01 1.228515e+03 3.700967e-01 1.820635e+00 -2.105055e+01
0.535          -1.441425e+02 6.866737e+01 1.209501e+03 -1.445025e+02 6.687036e+01 1.230224e+03 3.599874e-01 1.797018e+00 -2.072308e+01
0.54           -1.442504e+02 6.864861e+01 1.210864e+03 -1.446004e+02 6.687466e+01 1.231267e+03 3.499835e-01 1.773948e+00 -2.040228e+01
0.545          -1.445589e+02 6.873033e+01 1.214373e+03 -1.448990e+02 6.697891e+01 1.234461e+03 3.401167e-01 1.751414e+00 -2.008810e+01
0.55           -1.446232e+02 6.869182e+01 1.215472e+03 -1.449537e+02 6.696240e+01 1.235253e+03 3.304580e-01 1.729412e+00 -1.978139e+01
0.555          -1.449178e+02 6.875289e+01 1.219054e+03 -1.452388e+02 6.704502e+01 1.238536e+03 3.210026e-01 1.707868e+00 -1.948119e+01
0.56           -1.450073e+02 6.873990e+01 1.220395e+03 -1.453191e+02 6.705314e+01 1.239583e+03 3.118017e-01 1.686762e+00 -1.918800e+01
0.565          -1.451975e+02 6.877755e+01 1.222648e+03 -1.455004e+02 6.711139e+01 1.241551e+03 3.028984e-01 1.666161e+00 -1.890278e+01
0.57           -1.453791e+02 6.881385e+01 1.224679e+03 -1.456734e+02 6.716780e+01 1.243304e+03 2.942761e-01 1.646046e+00 -1.862511e+01
0.575          -1.454644e+02 6.881350e+01 1.225543e+03 -1.457504e+02 6.718715e+01 1.243898e+03 2.860580e-01 1.626343e+00 -1.835559e+01
0.58           -1.458220e+02 6.892363e+01 1.229674e+03 -1.461001e+02 6.731661e+01 1.247767e+03 2.781445e-01 1.607025e+00 -1.809293e+01
0.585          -1.459916e+02 6.896250e+01 1.231763e+03 -1.462621e+02 6.737445e+01 1.249599e+03 2.704730e-01 1.588055e+00 -1.783600e+01
0.59           -1.462709e+02 6.905268e+01 1.235169e+03 -1.465336e+02 6.748307e+01 1.252750e+03 2.627172e-01 1.569614e+00 -1.758171e+01
0.595          -1.464776e+02 6.911912e+01 1.237271e+03 -1.467328e+02 6.756762e+01 1.254603e+03 2.551730e-01 1.551506e+00 -1.733222e+01
0.6            -1.467498e+02 6.921005e+01 1.240468e+03 -1.469976e+02 6.767633e+01 1.257556e+03 2.478387e-01 1.533717e+00 -1.708741e+01
0.605          -1.469480e+02 6.926822e+01 1.243039e+03 -1.471887e+02 6.775203e+01 1.259885e+03 2.406873e-01 1.516188e+00 -1.684633e+01
0.61           -1.471421e+02 6.932266e+01 1.245461e+03 -1.473758e+02 6.782373e+01 1.262070e+03 2.337264e-01 1.498926e+00 -1.660913e+01
0.615          -1.474647e+02 6.944329e+01 1.249133e+03 -1.476916e+02 6.796135e+01 1.265509e+03 2.269353e-01 1.481940e+00 -1.637571e+01
0.62           -1.476014e+02 6.947937e+01 1.251018e+03 -1.478217e+02 6.801412e+01 1.267164e+03 2.202861e-01 1.465250e+00 -1.614593e+01
0.625          -1.480135e+02 6.964937e+01 1.255802e+03 -1.482273e+02 6.820045e+01 1.271723e+03 2.137864e-01 1.448921e+00 -1.592041e+01
0.63           -1.482515e+02 6.972334e+01 1.258567e+03 -1.484589e+02 6.829045e+01 1.274266e+03 2.074016e-01 1.432889e+00 -1.569827e+01
0.635          -1.486106e+02 6.985719e+01 1.262900e+03 -1.488118e+02 6.844016e+01 1.278380e+03 2.012349e-01 1.417033e+00 -1.547995e+01
0.64           -1.489440e+02 6.998665e+01 1.266720e+03 -1.491388e+02 6.858500e+01 1.281981e+03 1.947375e-01 1.401653e+00 -1.526031e+01
0.645          -1.493465e+02 7.015397e+01 1.271218e+03 -1.495348e+02 6.876736e+01 1.286262e+03 1.883022e-01 1.386610e+00 -1.504342e+01
0.65           -1.497135e+02 7.029590e+01 1.275729e+03 -1.498955e+02 6.892409e+01 1.290558e+03 1.819326e-01 1.371816e+00 -1.482863e+01
0.655          -1.500058e+02 7.040358e+01 1.279220e+03 -1.501815e+02 6.904636e+01 1.293837e+03 1.757184e-01 1.357221e+00 -1.461645e+01
0.66           -1.502946e+02 7.050273e+01 1.282676e+03 -1.504640e+02 6.915978e+01 1.297081e+03 1.693874e-01 1.342955e+00 -1.440545e+01
0.665          -1.504192e+02 7.052957e+01 1.284323e+03 -1.505823e+02 6.920064e+01 1.298520e+03 1.631466e-01 1.328928e+00 -1.419707e+01
0.67           -1.508837e+02 7.072264e+01 1.290009e+03 -1.510408e+02 6.940750e+01 1.304001e+03 1.570487e-01 1.315135e+00 -1.399184e+01
0.675          -1.511536e+02 7.080885e+01 1.293033e+03 -1.513048e+02 6.950729e+01 1.306824e+03 1.511469e-01 1.301563e+00 -1.379049e+01
0.68           -1.513262e+02 7.085551e+01 1.295342e+03 -1.514717e+02 6.956732e+01 1.308935e+03 1.454608e-01 1.288191e+00 -1.359313e+01
0.685          -1.517570e+02 7.101865e+01 1.300653e+03 -1.518964e+02 6.974339e+01 1.314049e+03 1.394918e-01 1.275256e+00 -1.339555e+01
0.69           -1.520824e+02 7.113342e+01 1.304463e+03 -1.522161e+02 6.987083e+01 1.317664e+03 1.336395e-01 1.262582e+00 -1.320142e+01
0.695          -1.523451e+02 7.121695e+01 1.307765e+03 -1.524730e+02 6.996677e+01 1.320776e+03 1.278828e-01 1.250176e+00 -1.301063e+01
0.7            -1.526365e+02 7.131522e+01 1.311161e+03 -1.527588e+02 7.007724e+01 1.323984e+03 1.222235e-01 1.237984e+00 -1.282294e+01
0.705          -1.529181e+02 7.140658e+01 1.314665e+03 -1.530348e+02 7.018058e+01 1.327304e+03 1.166837e-01 1.225999e+00 -1.263866e+01
0.71           -1.532363e+02 7.152079e+01 1.318509e+03 -1.533475e+02 7.030656e+01 1.330967e+03 1.112687e-01 1.214226e+00 -1.245785e+01
0.715          -1.535314e+02 7.161520e+01 1.322003e+03 -1.536374e+02 7.041261e+01 1.334284e+03 1.060220e-01 1.202595e+00 -1.228071e+01
0.72           -1.538692e+02 7.173940e+01 1.326006e+03 -1.539703e+02 7.054831e+01 1.338114e+03 1.010372e-01 1.191087e+00 -1.210847e+01
0.725          -1.541432e+02 7.183242e+01 1.329103e+03 -1.542391e+02 7.065246e+01 1.341041e+03 9.588648e-02 1.179965e+00 -1.193720e+01
0.73           -1.544008e+02 7.191008e+01 1.332465e+03 -1.544916e+02 7.074105e+01 1.344234e+03 9.083001e-02 1.169030e+00 -1.176910e+01
0.735          -1.545917e+02 7.197113e+01 1.334614e+03 -1.546776e+02 7.081278e+01 1.346219e+03 8.588549e-02 1.158344e+00 -1.160498e+01
0.74           -1.548275e+02 7.204050e+01 1.337325e+03 -1.549084e+02 7.089259e+01 1.348769e+03 8.088591e-02 1.147911e+00 -1.144315e+01
0.745          -1.551381e+02 7.215607e+01 1.340952e+03 -1.552145e+02 7.101863e+01 1.352240e+03 7.645412e-02 1.137447e+00 -1.128769e+01
0.75           -1.554740e+02 7.227750e+01 1.344810e+03 -1.555463e+02 7.115037e+01 1.355947e+03 7.230309e-02 1.127129e+00 -1.113724e+01
0.755          -1.557171e+02 7.235422e+01 1.347698e+03 -1.557854e+02 7.123726e+01 1.358688e+03 6.827335e-02 1.116953e+00 -1.098990e+01
0.76           -1.559923e+02 7.244995e+01 1.350812e+03 -1.560563e+02 7.134286e+01 1.361654e+03 6.398607e-02 1.107091e+00 -1.084161e+01
0.765          -1.562103e+02 7.251771e+01 1.353321e+03 -1.562701e+02 7.142034e+01 1.364017e+03 5.979747e-02 1.097376e+00 -1.069607e+01
0.77           -1.564803e+02 7.261314e+01 1.356418e+03 -1.565361e+02 7.152537e+01 1.366971e+03 5.571030e-02 1.087768e+00 -1.055299e+01
0.775          -1.567008e+02 7.267832e+01 1.358876e+03 -1.567525e+02 7.160007e+01 1.369288e+03 5.174451e-02 1.078248e+00 -1.041242e+01
0.78           -1.569375e+02 7.275879e+01 1.361670e+03 -1.569855e+02 7.169004e+01 1.371944e+03 4.792276e-02 1.068750e+00 -1.027409e+01
0.785          -1.572076e+02 7.285194e+01 1.364789e+03 -1.572519e+02 7.179268e+01 1.374928e+03 4.429194e-02 1.059265e+00 -1.013848e+01
0.79           -1.575401e+02 7.298210e+01 1.368454e+03 -1.575810e+02 7.193235e+01 1.378460e+03 4.085242e-02 1.049753e+00 -1.000532e+01
0.795          -1.577660e+02 7.305641e+01 1.371214e+03 -1.578036e+02 7.201622e+01 1.381090e+03 3.766896e-02 1.040189e+00 -9.875385e+00
0.8            -1.579818e+02 7.312538e+01 1.373786e+03 -1.580164e+02 7.209472e+01 1.383533e+03 3.456235e-02 1.030660e+00 -9.746788e+00
0.805          -1.582607e+02 7.323205e+01 1.376999e+03 -1.582921e+02 7.221080e+01 1.386617e+03 3.138491e-02 1.021250e+00 -9.618111e+00
0.81           -1.585010e+02 7.331976e+01 1.379984e+03 -1.585293e+02 7.230786e+01 1.389475e+03 2.832130e-02 1.011895e+00 -9.491574e+00
0.815          -1.587459e+02 7.340699e+01 1.382750e+03 -1.587712e+02 7.240438e+01 1.392117e+03 2.532017e-02 1.002609e+00 -9.366722e+00
0.82           -1.590614e+02 7.352509e+01 1.386502e+03 -1.590839e+02 7.253176e+01 1.395746e+03 2.248512e-02 9.933262e-01 -9.243880e+00
0.825          -1.592216e+02 7.356835e+01 1.388662e+03 -1.592413e+02 7.258427e+01 1.397785e+03 1.969329e-02 9.840879e-01 -9.122304e+00
0.83           -1.594304e+02 7.363869e+01 1.391224e+03 -1.594473e+02 7.266379e+01 1.400226e+03 1.695536e-02 9.748962e-01 -9.002143e+00
0.835          -1.596409e+02 7.370844e+01 1.393807e+03 -1.596552e+02 7.274270e+01 1.402691e+03 1.428203e-02 9.657361e-01 -8.883451e+00
0.84           -1.599254e+02 7.381151e+01 1.397294e+03 -1.599372e+02 7.285497e+01 1.406062e+03 1.179649e-02 9.565325e-01 -8.767490e+00
0.845          -1.600886e+02 7.385180e+01 1.399358e+03 -1.600976e+02 7.290430e+01 1.408007e+03 9.071316e-03 9.474977e-01 -8.649639e+00
0.85           -1.602805e+02 7.391035e+01 1.401919e+03 -1.602868e+02 7.297182e+01 1.410451e+03 6.280491e-03 9.385307e-01 -8.531736e+00
0.855          -1.604617e+02 7.396333e+01 1.404326e+03 -1.604653e+02 7.303369e+01 1.412741e+03 3.517819e-03 9.296348e-01 -8.415238e+00
0.86           -1.606563e+02 7.402299e+01 1.406830e+03 -1.606571e+02 7.310215e+01 1.415130e+03 7.682774e-04 9.208386e-01 -8.300242e+00
0.865          -1.608236e+02 7.406803e+01 1.409064e+03 -1.608216e+02 7.315585e+01 1.417251e+03 -1.976952e-03 9.121851e-01 -8.187055e+00
0.87           -1.611183e+02 7.417779e+01 1.412862e+03 -1.611136e+02 7.327410e+01 1.420937e+03 -4.774581e-03 9.036879e-01 -8.075092e+00
0.875          -1.612974e+02 7.424283e+01 1.415152e+03 -1.612899e+02 7.334747e+01 1.423118e+03 -7.503406e-03 8.953631e-01 -7.965920e+00
0.88           -1.613820e+02 7.425146e+01 1.416744e+03 -1.613718e+02 7.336431e+01 1.424603e+03 -1.015238e-02 8.871528e-01 -7.859348e+00
0.885          -1.614775e+02 7.426792e+01 1.418367e+03 -1.614646e+02 7.338885e+01 1.426121e+03 -1.286435e-02 8.790685e-01 -7.753325e+00
0.89           -1.617639e+02 7.437984e+01 1.422060e+03 -1.617480e+02 7.350863e+01 1.429705e+03 -1.591985e-02 8.712155e-01 -7.644363e+00
0.895          -1.619316e+02 7.442288e+01 1.424233e+03 -1.619126e+02 7.355946e+01 1.431769e+03 -1.904988e-02 8.634197e-01 -7.535123e+00
0.9            -1.620358e+02 7.444341e+01 1.425808e+03 -1.620136e+02 7.358777e+01 1.433234e+03 -2.222747e-02 8.556406e-01 -7.425578e+00
0.905          -1.622218e+02 7.450828e+01 1.428536e+03 -1.621964e+02 7.366041e+01 1.435852e+03 -2.541293e-02 8.478655e-01 -7.316043e+00
0.91           -1.622993e+02 7.451821e+01 1.430000e+03 -1.622708e+02 7.367813e+01 1.437207e+03 -2.856649e-02 8.400821e-01 -7.206917e+00
0.915          -1.626762e+02 7.468059e+01 1.434342e+03 -1.626445e+02 7.384835e+01 1.441440e+03 -3.166949e-02 8.322439e-01 -7.098115e+00
0.92           -1.629005e+02 7.476714e+01 1.437186e+03 -1.628659e+02 7.394279e+01 1.444178e+03 -3.459991e-02 8.243462e-01 -6.991328e+00
0.925          -1.630661e+02 7.482548e+01 1.439502e+03 -1.630285e+02 7.400893e+01 1.446386e+03 -3.758114e-02 8.165552e-01 -6.884418e+00
0.93           -1.632400e+02 7.488377e+01 1.441728e+03 -1.631993e+02 7.407486e+01 1.448505e+03 -4.072204e-02 8.089174e-01 -6.776111e+00
0.935          -1.634776e+02 7.497016e+01 1.444733e+03 -1.634338e+02 7.416882e+01 1.451402e+03 -4.383220e-02 8.013427e-01 -6.668676e+00
0.94           -1.636952e+02 7.505163e+01 1.447835e+03 -1.636483e+02 7.425779e+01 1.454397e+03 -4.693239e-02 7.938483e-01 -6.561974e+00
0.945          -1.639040e+02 7.513183e+01 1.450713e+03 -1.638540e+02 7.434536e+01 1.457169e+03 -5.001724e-02 7.864667e-01 -6.456334e+00
0.95           -1.642300e+02 7.526632e+01 1.454559e+03 -1.641769e+02 7.448714e+01 1.460910e+03 -5.309661e-02 7.791758e-01 -6.351507e+00
0.955          -1.644799e+02 7.536595e+01 1.457807e+03 -1.644237e+02 7.459398e+01 1.464055e+03 -5.613654e-02 7.719724e-01 -6.247905e+00
0.96           -1.647172e+02 7.545673e+01 1.460842e+03 -1.646582e+02 7.469200e+01 1.466989e+03 -5.897624e-02 7.647316e-01 -6.146283e+00
0.965          -1.648579e+02 7.549571e+01 1.462822e+03 -1.647963e+02 7.473831e+01 1.468869e+03 -6.160951e-02 7.574088e-01 -6.046980e+00
0.97           -1.651412e+02 7.561014e+01 1.466618e+03 -1.650767e+02 7.485993e+01 1.472563e+03 -6.447656e-02 7.502165e-01 -5.944886e+00
0.975          -1.654264e+02 7.572082e+01 1.470153e+03 -1.653590e+02 7.497778e+01 1.475995e+03 -6.736919e-02 7.430354e-01 -5.842316e+00
0.98           -1.657093e+02 7.582764e+01 1.473778e+03 -1.656390e+02 7.509180e+01 1.479518e+03 -7.023617e-02 7.358414e-01 -5.739891e+00
0.985          -1.659563e+02 7.591754e+01 1.476755e+03 -1.658833e+02 7.518891e+01 1.482392e+03 -7.308166e-02 7.286280e-01 -5.637563e+00
0.99           -1.662658e+02 7.603431e+01 1.480601e+03 -1.661900e+02 7.531289e+01 1.486137e+03 -7.588282e-02 7.214224e-01 -5.535897e+00
0.995          -1.664621e+02 7.610598e+01 1.483518e+03 -1.663835e+02 7.539172e+01 1.488953e+03 -7.862393e-02 7.142586e-01 -5.435373e+00
1              -1.668257e+02 7.625501e+01 1.488102e+03 -1.667444e+02 7.554783e+01 1.493439e+03 -8.127981e-02 7.071745e-01 -5.336738e+00
1.005          -1.670506e+02 7.632580e+01 1.491097e+03 -1.669668e+02 7.562575e+01 1.496338e+03 -8.375749e-02 7.000532e-01 -5.240739e+00
1.01           -1.673633e+02 7.644346e+01 1.494864e+03 -1.672767e+02 7.575025e+01 1.500005e+03 -8.657652e-02 6.932094e-01 -5.141762e+00
1.015          -1.676188e+02 7.653117e+01 1.498133e+03 -1.675294e+02 7.584467e+01 1.503177e+03 -8.944851e-02 6.864976e-01 -5.043323e+00
1.02           -1.679341e+02 7.664873e+01 1.502372e+03 -1.678417e+02 7.596879e+01 1.507317e+03 -9.243252e-02 6.799451e-01 -4.945043e+00
1.025          -1.681516e+02 7.673025e+01 1.505503e+03 -1.680562e+02 7.605674e+01 1.510351e+03 -9.535594e-02 6.735082e-01 -4.848558e+00
1.03           -1.685178e+02 7.687341e+01 1.509878e+03 -1.684197e+02 7.620629e+01 1.514633e+03 -9.806694e-02 6.671176e-01 -4.754993e+00
1.035          -1.687491e+02 7.694838e+01 1.512894e+03 -1.686483e+02 7.628756e+01 1.517557e+03 -1.007813e-01 6.608210e-01 -4.662395e+00
1.04           -1.689978e+02 7.703658e+01 1.516203e+03 -1.688943e+02 7.638195e+01 1.520774e+03 -1.034645e-01 6.546321e-01 -4.571408e+00
1.045          -1.692601e+02 7.713394e+01 1.519664e+03 -1.691540e+02 7.648544e+01 1.524146e+03 -1.060608e-01 6.485081e-01 -4.482573e+00
1.05           -1.695812e+02 7.726374e+01 1.523551e+03 -1.694725e+02 7.662119e+01 1.527946e+03 -1.086545e-01 6.425550e-01 -4.395310e+00
1.055          -1.699291e+02 7.741572e+01 1.527995e+03 -1.698177e+02 7.677882e+01 1.532303e+03 -1.114437e-01 6.369023e-01 -4.307551e+00
1.06           -1.702441e+02 7.754133e+01 1.532106e+03 -1.701299e+02 7.690991e+01 1.536328e+03 -1.142401e-01 6.314289e-01 -4.221461e+00
1.065          -1.705174e+02 7.765173e+01 1.535680e+03 -1.704003e+02 7.702564e+01 1.539817e+03 -1.170327e-01 6.260830e-01 -4.136670e+00
1.07           -1.707756e+02 7.775186e+01 1.539056e+03 -1.706558e+02 7.713099e+01 1.543110e+03 -1.197872e-01 6.208653e-01 -4.053584e+00
1.075          -1.711059e+02 7.789416e+01 1.543125e+03 -1.709834e+02 7.727839e+01 1.547097e+03 -1.225224e-01 6.157699e-01 -3.972030e+00
1.08           -1.713654e+02 7.800270e+01 1.546617e+03 -1.712402e+02 7.739190e+01 1.550509e+03 -1.252195e-01 6.108051e-01 -3.892540e+00
1.085          -1.717463e+02 7.817976e+01 1.551208e+03 -1.716183e+02 7.757368e+01 1.555021e+03 -1.280938e-01 6.060845e-01 -3.812899e+00
1.09           -1.719412e+02 7.825492e+01 1.553832e+03 -1.718106e+02 7.765363e+01 1.557567e+03 -1.306446e-01 6.012899e-01 -3.735389e+00
1.095          -1.721575e+02 7.834415e+01 1.556789e+03 -1.720243e+02 7.774757e+01 1.560448e+03 -1.331538e-01 5.965814e-01 -3.659134e+00
1.1            -1.724700e+02 7.848581e+01 1.560637e+03 -1.723343e+02 7.789388e+01 1.564220e+03 -1.356411e-01 5.919331e-01 -3.583658e+00