/*--------------------------------*- C++ -*----------------------------------*\
| =========                 |                                                 |
| \\      /  F ield         | OpenFOAM: The Open Source CFD Toolbox           |
|  \\    /   O peration     | Version:  2306                                  |
|   \\  /    A nd           | Website:  www.openfoam.com                      |
|    \\/     M anipulation  |                                                 |
\*---------------------------------------------------------------------------*/
FoamFile
{
    version     2.0;
    format      ascii;
    arch        "LSB;label=32;scalar=64";
    class       volScalarField;
    location    "0.9";
    object      p;
}
// * * * * * * * * * * * * * * * * * * * * * * * * * * * * * * * * * * * * * //

dimensions      [0 2 -2 0 0 0 0];

internalField   nonuniform List<scalar> 
13486
(
2.05589
1.63383
0.104695
-0.881424
0.38658
0.0368382
-0.079551
0.967529
1.31146
0.751561
-0.780849
0.366115
2.17739
-0.176005
0.324216
0.829629
-1.09926
0.122684
0.404677
1.84339
-0.833455
2.14891
1.61858
-0.361342
0.715324
-0.353079
-0.875357
-0.28135
0.00590071
-0.193456
-0.480959
0.311463
-0.468855
-0.169476
0.974871
-0.015872
0.0375019
1.62215
0.0286236
1.34167
-0.66998
2.27234
0.0179549
0.712539
0.679233
0.349396
-1.46585
-0.0867876
0.0516959
-0.290186
1.19568
0.013026
0.324194
1.6543
0.119153
0.459929
0.115496
0.0303726
-0.462426
0.0568892
-0.709984
0.0904126
-1.11661
-0.829022
-0.173598
0.0476913
-0.805252
2.0775
1.29585
0.0451587
-0.812421
0.12808
1.36726
-9.4015
0.0377067
0.0828733
0.0468683
0.301527
-1.28406
0.03448
0.0197535
1.68339
-1.14477
0.184671
2.06432
0.974338
0.115458
1.18362
1.37915
0.843592
0.284724
0.790193
1.96282
1.77556
1.34935
-0.0310404
-0.865042
-0.69179
1.31311
-1.09901
-0.00630146
-0.109314
-0.674834
0.00745691
1.19162
-1.10782
1.40612
0.0176977
-1.36359
0.592629
1.20137
0.116386
1.65305
0.0221933
2.48012
1.27755
0.705872
-0.169314
1.36457
0.0430486
0.133874
-0.718301
1.43103
0.0434444
1.20206
0.026826
0.858948
0.436027
-0.109513
-0.129348
0.0294599
-1.4988
-5.05506
-8.56944
1.20239
1.11258
2.66022
0.649338
0.0392461
1.03538
-0.454511
0.304304
0.380785
0.0269771
0.0412058
-0.759329
0.1667
1.94526
-0.334601
0.0591352
0.799593
0.209692
-0.00383322
1.71768
0.476731
0.106348
0.325297
-2.37753
1.4331
0.0981929
-0.257592
1.4338
0.187182
2.26419
0.000897429
-0.376583
0.036299
2.95121
0.164324
-9.05094
-4.26725
0.471523
0.9923
0.627686
-0.0101266
-0.477668
-0.458185
-0.524191
1.37781
0.393387
1.22172
0.0296456
0.523023
-0.689098
0.170286
-0.302166
0.0232619
-0.190255
-0.537176
1.37383
0.0290064
0.0814333
-0.0221391
1.88917
0.00993935
-0.795733
-0.137352
-0.210824
1.83093
-0.303715
-0.425678
0.406022
1.6253
-0.0388658
0.0853405
0.00903351
0.0295077
1.48018
0.0457653
0.171177
-0.194306
-0.25482
1.81774
1.39054
0.00985168
-0.0461989
-0.228497
0.862788
1.8439
-1.28184
-1.10905
-0.343294
1.07485
-0.243734
0.264421
2.00304
-0.189649
-0.338373
-0.0326621
0.114879
1.20892
-0.988422
-0.469034
2.3252
-0.638745
1.91749
-0.170219
0.100182
1.94071
0.556958
-0.460178
1.00411
0.0511195
1.81294
0.0483639
1.5692
0.563838
-0.270851
-7.87915
0.796045
-0.61246
2.51551
1.21678
-0.000189891
-0.0131112
-0.501333
0.315182
-0.0538949
-2.07906
-0.457672
1.51629
0.051204
0.327606
-0.510204
0.400145
-0.690582
-0.0527178
-0.544584
1.34338
0.164467
1.4534
1.34368
-0.227308
0.311473
2.00793
-0.259306
-0.0250937
0.0478355
0.0276048
0.17737
0.0376253
1.06312
1.39912
-0.5223
-0.713993
-1.00862
-0.475675
-0.148569
0.253034
1.31056
-0.671953
0.0673117
1.34393
1.22622
-0.173035
-0.169322
-0.208145
0.272446
1.42355
-0.270847
0.184731
0.0597297
0.175648
0.335171
0.0304315
-0.00863184
-1.38171
0.547559
0.106979
0.0321514
-6.40613
-0.913386
-0.208354
0.1494
-0.679446
1.13949
0.0602192
1.35884
1.49714
-0.0764215
0.0524209
0.037371
1.37858
1.77495
2.60058
0.295195
0.725174
1.05395
0.25699
0.649106
1.15258
0.721987
0.264817
1.9413
-0.111739
1.25647
2.56675
0.248893
0.88299
0.0557987
-0.0379661
1.75163
0.604964
0.53501
-0.672418
-0.0181573
0.851347
2.46339
-1.22479
0.0666702
0.820171
0.2277
0.299782
-0.849488
1.4159
0.0231245
-9.53058
0.861809
0.0870353
-0.253198
0.459098
0.277017
1.52807
1.3587
-0.211364
0.0051639
-0.166637
-1.68
1.85553
0.868181
0.0650203
0.856369
0.265622
-0.616959
-0.00868667
1.24766
1.37379
0.0566531
-0.669983
-2.82826
1.29799
0.669392
2.19049
1.52931
-1.62433
-0.0519049
0.246269
0.867608
-1.44589
-1.05746
1.78631
-0.260064
0.641439
1.94707
2.06663
0.025023
-0.862431
-0.622213
-1.24079
-0.49409
-1.36338
0.366326
1.19218
-2.00982
-0.0101771
0.163414
1.74317
-0.506749
0.936696
1.55498
0.849963
-1.1547
-0.267979
1.41148
1.3528
1.83086
-0.672703
0.426539
-3.76533
0.56879
1.36787
-0.587136
2.47384
0.922173
-0.167571
-0.186328
0.398756
1.41619
-0.903702
0.104681
2.12774
1.22897
0.613829
0.253152
0.199967
-0.315856
2.18305
0.0566825
0.68402
2.04294
-1.64672
-0.234025
-7.54446
-0.285448
0.110641
1.58284
1.71613
2.14154
-2.73842
0.0370325
-0.673768
0.913537
1.40611
-0.28819
-1.1776
1.33078
-0.64172
-0.456095
-0.518238
-0.732856
-0.0918741
1.69314
-0.0025333
0.128794
-0.924351
1.31312
-0.0305449
2.75784
1.98488
1.35283
0.885886
0.0411724
-0.0256019
2.54839
-0.034241
0.0221106
-0.168356
1.27311
-1.02556
0.279305
1.00492
0.0649522
-0.440996
1.60479
-0.897073
-1.17221
0.958063
-0.937498
2.93983
1.00628
1.19118
1.47669
-0.499758
0.212408
2.34172
0.289167
1.79346
-0.202379
0.532928
-0.496861
-0.000175523
-0.0442758
-1.10326
1.42697
1.24253
-0.602454
0.0141443
-0.00914817
2.08694
1.59197
-0.0491678
1.2756
0.913944
-0.448894
0.350235
1.17333
-4.20315
2.1548
0.0394616
0.055281
2.25168
0.668178
-0.0760308
0.817775
-0.388131
-0.656314
0.515145
0.523088
1.45504
1.96739
-0.725243
0.210958
-0.754014
-0.0388216
1.9038
0.494844
-0.681827
-0.650836
-0.470698
-1.59285
0.949545
-0.162312
-1.08707
1.27927
1.91114
0.0765757
1.50411
-0.806164
-0.619793
-1.74423
0.67626
-0.690446
1.49637
0.164543
-0.688475
1.06396
1.56376
-0.429704
-0.73924
1.22893
1.90839
0.464534
2.0786
0.222212
0.960115
0.45799
1.50548
0.0355146
1.84875
-0.857943
0.341416
1.19494
-0.0925284
-0.276006
1.39115
-1.74303
0.279854
1.66536
2.14744
-0.120532
-1.85313
0.436763
0.317112
1.20597
0.991794
-0.200987
-0.814236
0.191469
2.03801
0.366963
0.154922
-0.326027
2.16296
-0.0637253
0.0382631
1.31784
0.85188
0.00286387
-0.11383
0.980873
0.227418
0.124258
0.611622
-1.03135
2.08594
1.24619
0.920413
0.941613
0.214863
-0.465768
2.38174
0.554197
2.38593
-0.363607
1.32158
-0.000486015
-8.32872
0.467208
0.79331
2.51655
-0.26446
0.618224
0.686038
-1.26461
0.763805
0.0823634
-0.565965
1.2768
-0.740412
-0.250943
-0.322912
-0.246158
-0.102914
1.48276
0.00153497
2.30648
1.31459
0.0991656
-0.621851
-0.220706
0.535229
-0.728788
-0.326427
-1.09627
1.90143
-0.00473873
0.0510695
-0.607225
2.19578
0.00864369
0.198763
2.25087
1.24155
-0.659382
0.0607343
0.859293
0.293816
1.17803
0.04205
-0.158495
0.611609
1.19439
0.501572
1.04014
2.28867
0.0490223
-0.457103
1.3919
-0.607621
-0.00263742
0.783774
1.02966
0.647879
-0.670362
0.155973
0.0509852
0.243407
1.89992
0.53499
0.230703
0.194199
-0.869076
-0.0006118
1.39309
0.10359
1.14254
1.23623
1.93144
0.158059
-1.26058
2.3669
0.0420158
-0.644609
1.40926
-0.33654
1.55029
0.0404692
1.31351
-2.04175
-10.9561
-0.299854
-0.00879831
-1.13409
0.768983
2.44758
-0.0960154
-0.686733
-0.242013
1.42359
0.155812
0.662185
-0.625905
2.43778
-0.669643
0.5875
-0.283072
0.826853
1.39691
0.551479
-2.67864
-0.933184
2.22165
1.46476
0.176296
1.20958
-0.60557
0.973917
0.93374
0.838697
-6.37764
-0.00713828
1.71233
-0.0523858
0.0411079
0.944543
-0.651825
-0.0725447
0.0321922
1.47515
1.45498
-0.467993
0.227419
-0.65778
-0.90566
0.251344
-0.104956
0.282109
1.32491
-0.0137756
-1.39899
1.54071
-0.516074
-0.0992568
0.0905808
-0.305039
-0.497225
-0.292454
0.0548458
-0.515169
1.17027
2.17245
0.0197213
-0.0984033
2.25809
2.09879
-0.127976
-0.147316
1.31738
-1.78041
0.0697504
0.146615
0.149515
0.486304
-1.14853
0.710341
0.974702
-0.267841
0.00471424
-0.405328
0.0585267
1.07274
0.637429
0.739281
-0.495219
1.20942
2.05151
-0.980536
-0.517339
1.4586
-0.144803
0.755431
0.0319813
-0.196407
-0.512738
0.0620558
1.42135
2.39251
1.49477
0.196884
-0.0113992
1.39049
1.98951
-0.207789
1.37817
1.36233
2.1216
-0.0149985
0.0471892
0.341316
-0.0672706
2.09824
0.201478
0.074323
0.942776
0.00164024
0.369076
0.11777
-0.612147
1.31716
1.13965
0.987254
0.682041
-1.12977
-0.0634889
-0.0953751
0.504055
-1.07247
-0.78061
0.0360495
-0.437237
-0.676879
0.781952
-0.189438
-8.29128
-1.17316
-0.0642382
0.774629
-0.833018
-0.439716
1.52132
-0.4177
2.15569
-0.299483
-8.22459
1.5613
1.91589
0.0466348
0.175472
-0.391276
1.42744
0.445995
-0.980808
0.0326188
0.0269517
0.00809896
1.31514
0.0807244
0.843043
0.0609599
1.27876
-0.909563
0.0398253
0.012715
1.62811
-0.366399
-0.75386
-0.31951
2.12919
0.167125
-0.432522
-0.798669
1.38133
-0.533393
0.0441849
0.358241
0.472632
0.13288
0.785336
-0.167012
1.16189
1.32772
1.53289
0.680472
0.0669587
-0.0751439
1.06443
-0.471855
1.59107
0.958511
0.0262289
0.0257479
-0.00733882
0.148326
0.030989
1.53578
0.669034
-0.452422
1.36483
0.11358
0.992132
2.48355
0.105184
-0.948903
0.970218
0.174928
0.0249905
-0.0396529
-0.884325
1.34108
0.0517902
-0.0122214
0.0416409
0.184472
1.71953
-0.655343
0.00567319
1.3856
0.151311
1.98586
1.56371
1.80773
0.310574
0.884974
0.407051
0.145
0.826264
1.29986
-1.62722
-0.0772708
-1.24004
-0.155549
-0.608429
1.36753
-0.683104
-0.431814
-0.418166
-1.65917
0.0113571
1.37479
0.002786
0.268132
-7.32228
1.39012
2.44037
0.166015
-0.640163
0.808056
-0.422309
1.36495
0.0816697
0.0468572
1.60454
0.0339796
2.29714
0.884517
1.37048
-0.173226
1.76695
0.028903
1.57562
0.0315543
-0.455256
-0.475436
-0.279411
0.869601
0.130385
-0.530649
2.14328
1.36437
1.48698
1.93336
1.51657
1.6233
-0.0800728
1.34064
1.37204
1.43767
-0.0862358
-0.175014
-0.259952
-1.49647
0.36048
1.45749
-10.5065
2.32922
-1.3689
0.0419968
2.37494
1.95802
-0.0568764
-0.28447
1.33454
0.752616
-0.711505
1.18296
-9.07032
-0.309083
1.35646
1.87786
0.0390886
1.42795
1.74838
0.00865719
-0.213561
1.76736
0.542746
0.0337992
-0.777304
0.171454
-0.576783
1.30902
1.07504
0.0435665
-0.226137
-0.213376
0.318373
0.0510476
0.336633
2.02654
0.0252015
2.68536
1.38285
0.380892
1.50917
-0.656036
-4.49924
-0.54249
1.32318
0.0477974
-5.89737
-0.351062
0.745324
0.824634
0.0535319
0.699602
-1.89422
0.515236
0.158133
0.0601062
1.03674
0.411131
1.74946
1.42836
1.4274
1.25371
-0.0918024
-0.404653
-0.361703
0.182119
-0.152339
-0.106984
1.01608
-0.304867
0.0252203
0.0640001
0.193298
-0.613411
0.948637
0.679082
0.111517
-0.209735
0.597243
-0.358601
-0.332547
0.276302
0.137632
1.42557
1.03488
1.72193
-7.52487
1.1896
0.0374844
1.90464
-0.185361
0.792714
0.184798
-0.00546927
2.24941
2.4164
1.10614
0.37746
0.981024
1.14284
2.27702
0.742083
-0.447214
-0.623038
0.318358
-1.50819
-1.19353
1.36847
1.33851
0.133575
-0.275227
0.946128
1.23032
2.50713
-0.710664
1.08958
-1.26767
0.0769694
1.98496
-0.0438805
1.02204
-0.0727601
0.719695
0.534939
2.63549
0.111636
-0.258648
0.750851
0.284691
-0.686271
-9.82917
0.143149
1.51973
0.10393
0.418348
2.09654
1.91536
-0.000248627
-2.39676
0.105703
0.304706
1.54021
1.34584
1.88774
0.766471
-0.78807
1.99324
1.10029
-0.946556
0.879789
1.41094
1.68058
-0.627486
-1.367
0.00619928
1.17853
2.21777
0.598601
0.215047
-0.517467
2.52102
-0.927781
-0.466242
2.32441
1.16572
0.166393
1.00157
-0.81941
0.576589
-0.0940834
-0.916205
0.0414602
-0.542055
0.217537
-0.078531
-1.79043
-1.11787
-1.09966
-1.5765
-1.28394
-0.61985
1.39617
1.31008
0.291163
-1.82989
0.30611
0.2717
-0.100025
2.67009
0.687598
-0.316695
1.28647
-0.137497
-0.534887
0.925081
0.904217
1.29073
2.71848
0.0555485
-0.0308239
-0.3599
0.203796
0.747322
1.20724
-0.291908
2.02338
0.965033
1.46485
-0.422771
0.0445948
0.104515
1.32255
1.38366
1.36996
1.38297
2.47059
2.39243
-0.141212
1.20307
1.74189
-0.334381
1.8888
0.0266349
2.36035
1.86863
0.180212
1.54115
0.716173
0.876534
0.103581
1.39401
-0.400483
1.11532
0.232383
0.648931
0.032144
1.34667
0.0538306
0.358203
2.26989
2.26549
0.758958
-8.80119
0.342476
-0.869084
-0.018746
1.13115
2.00231
-8.13593
1.42609
1.21532
0.585803
1.31773
-0.586834
-0.0600765
0.063719
2.55388
0.183993
0.0899007
1.58714
0.0718456
0.0612009
0.773635
0.322203
1.07037
-0.00189832
-0.182586
0.715407
0.923982
0.677599
0.837071
2.41816
1.93931
1.65503
2.05415
2.21952
0.486322
0.015846
0.0783324
-1.67472
2.23963
-0.258765
1.31705
1.12605
-0.64343
0.530454
1.50653
-0.275832
0.592881
0.889994
2.75508
-0.840082
0.533529
0.146
1.49026
0.147217
-0.600392
2.19589
1.83405
1.23337
1.38294
-0.144116
0.14191
-1.13209
2.38633
0.0357979
2.61365
-1.39644
0.230498
-4.04311
0.317922
-10.2559
0.274431
0.027438
0.560525
0.102469
0.570257
-0.604548
-0.00014514
-0.0295237
-7.15535
-0.253207
-1.03084
0.155294
-0.0155054
-1.11157
-0.706885
1.28714
1.32144
1.82422
1.37854
0.498834
0.530224
2.99211
1.2756
-0.921943
-0.000527109
0.0222767
1.08149
1.14325
2.02955
-0.451628
-0.453641
0.900962
-0.00234615
0.33328
1.71632
-9.63254
-0.654
-1.18615
2.41855
-0.720388
0.924597
1.71639
-1.66863
0.957755
0.0244041
-0.80509
-0.798683
0.0895573
0.983967
1.56637
1.67707
-0.929604
-7.72302
0.601517
-1.1794
-0.194213
-0.102506
0.292751
-0.10036
0.0882041
-0.629488
-0.825255
-0.371049
2.10926
-0.798588
2.33525
-0.684113
0.0163152
0.43134
0.159546
1.92624
1.20743
1.63926
0.135091
-0.0975737
-0.806876
1.85324
-7.21591
1.05228
0.0460749
1.68862
1.92734
0.0580732
1.36607
2.22564
1.42476
1.46653
-3.19226
-0.299295
0.504086
-0.297864
0.0188819
0.609655
0.700206
0.121281
-0.819854
0.338798
0.0905963
1.02043
0.777633
-0.255723
2.35131
0.184558
-0.0352334
0.251264
1.34765
-0.142129
-0.0168232
1.42549
-0.5144
0.165891
-0.0641512
1.34028
1.36712
1.2568
0.0859377
1.30509
1.57609
1.4863
-0.126663
0.0521712
0.386448
1.0994
-0.511614
-3.24144
-0.412233
-1.08446
-0.811318
-0.0159023
0.00836654
0.0541305
-8.85363
-0.378712
-0.607323
0.0865264
-0.110048
0.600796
-0.725097
1.464
2.98139
0.528973
-0.0318588
0.669005
0.243008
0.329573
-0.0200045
-0.178149
-0.394886
0.216006
1.77443
0.0128748
2.17869
0.0303838
1.26798
0.968149
0.509807
-2.89149
0.398741
2.49488
-1.15319
1.36524
1.33254
2.01733
0.179991
1.825
1.36983
-4.5885
1.48682
-0.846873
-1.00296
1.87824
1.16124
-1.00252
0.0258241
1.77122
-0.693163
-0.233854
0.0300757
0.036519
1.07326
0.752875
1.38432
1.14311
1.11313
-2.45719
-0.267434
-0.121061
1.36023
2.60671
-0.212646
-0.96257
-3.27994
1.24278
0.164587
0.219242
0.166248
-0.0178112
0.933914
-1.86028
0.189935
2.33615
0.701177
0.141849
-0.551854
-0.668957
-0.305624
-1.23951
-0.376271
-0.647035
1.63421
0.834612
-0.318267
2.29429
0.0114299
-0.774174
-0.0319961
-0.984389
1.40089
-6.55762
0.554602
1.2786
0.118299
-0.139802
0.0388184
-0.920298
-0.35328
1.49103
-0.621861
0.0319271
-1.14754
1.32609
1.45176
-0.705528
1.70668
1.54797
2.08808
2.15695
1.44512
0.298099
2.56826
-1.20374
1.21398
-0.198663
-0.487544
1.66314
-0.453258
2.13115
0.690452
-0.826597
-2.17049
-1.61839
1.47508
-0.384963
-0.112371
0.172469
-1.27774
0.140165
0.915349
0.384728
0.842451
2.41535
-10.8249
-0.347756
-0.638156
1.30988
1.04541
-0.256581
2.94062
0.022596
0.0884675
0.906187
-0.998167
1.32986
1.3234
1.51541
1.51477
0.161886
0.565705
1.25581
0.275934
-1.9981
-0.00606897
1.39544
1.50422
1.86526
-1.27152
0.132645
0.24059
0.851542
0.286654
-0.435837
1.15456
-0.05843
1.19839
1.42705
-1.10737
2.17508
-0.245636
2.44901
1.4927
-0.580771
-0.00804098
0.0154132
0.577973
1.45872
-0.535379
1.8316
1.30311
0.337998
0.0297878
0.301408
-0.24165
0.321197
-1.14655
0.602314
-0.312806
1.34025
-3.06892
-0.394712
-0.115515
1.68091
1.95346
0.725313
-2.77341
0.709986
0.0027263
0.170484
0.77352
-1.66497
-1.25878
2.33245
-0.513149
0.0915734
-0.379286
-0.945769
-0.0563353
1.46152
-1.13311
-0.0963506
1.43784
0.740557
1.45861
-0.647733
0.578484
2.38291
-2.19927
1.33909
0.362462
-1.14268
0.575696
0.290813
-0.811171
2.42971
1.5097
0.153073
2.38792
1.75042
1.67445
-1.21945
-3.00519
0.544173
-0.970298
-0.402486
-0.794189
-0.967536
-0.791767
0.966965
0.498403
0.619404
0.75847
-1.48255
0.795664
1.34904
-0.868823
1.3198
0.904054
1.37109
0.000718832
-0.0135054
-0.689409
-1.2734
-0.649664
-0.123326
1.34247
-0.503733
2.10189
-0.648626
1.35917
0.539073
0.0510407
-0.239124
1.37708
0.665202
0.485174
1.14891
0.125873
0.0991934
1.97841
1.65364
-0.267069
-0.595912
-0.483175
1.23546
0.154427
0.0749276
-0.876077
0.184343
0.017091
0.114526
1.12045
0.948525
0.216208
0.651447
0.0967165
0.0301567
-0.45938
1.69553
-0.68811
1.31957
-0.0338539
1.21625
1.41048
0.83325
1.17054
-0.613327
-0.572131
0.0354626
-3.64501
-0.46674
-0.240972
0.149429
-0.51892
1.1094
0.110349
1.35979
-1.37971
-0.018593
-1.32143
0.0303529
1.4126
-0.805686
1.27865
0.337063
-0.378299
-1.22087
-0.66127
0.961166
1.44741
0.0319853
0.275778
-5.07054
1.53497
-4.59375
0.357513
-0.664912
1.68866
0.593702
0.0237257
1.45133
1.33857
1.62424
0.446953
1.71339
-2.41536
0.0876581
0.0314314
1.18034
0.915773
0.363066
-0.456896
-0.419788
-0.600774
0.58556
0.118343
-0.563977
2.30046
-3.51705
1.58048
0.91584
-0.115078
0.0371566
0.124938
0.0263893
0.299568
0.278099
1.29588
0.062552
1.40043
-1.32211
0.0062112
-1.19549
0.132336
-0.431839
1.65188
2.38409
1.50167
0.408754
-0.360048
0.914819
-0.910805
-2.3153
0.076515
-0.0082712
-0.283105
-0.585682
-0.418789
-0.303259
1.13376
1.21584
-0.952662
0.32721
1.52705
-0.276555
-0.874271
1.47722
0.0183951
-0.741508
0.0260434
-0.00492865
-0.0062503
2.29552
0.0772317
1.19704
-0.881557
-0.437395
-0.288338
1.25065
0.181501
0.994424
-0.97603
-0.360275
0.121133
-0.19111
1.55907
1.13002
0.379954
0.045966
-0.149799
2.48398
-1.21412
1.49625
1.65073
-0.0721108
0.0294751
0.558959
-3.08291
-0.155164
1.21002
0.825823
1.25925
-0.472996
1.48548
0.275751
1.97511
-0.166242
1.2356
1.7192
1.16073
0.312888
-0.66728
0.561175
-1.00282
0.985527
0.673206
1.62089
0.307122
2.08011
0.281598
2.23416
0.166636
1.67484
-0.0145559
0.9548
-0.730932
1.32654
0.593925
0.624507
2.17479
1.3654
0.376115
-0.258275
0.696696
1.28576
0.0323542
-1.20152
0.937736
0.108023
1.75844
-0.700868
2.12112
0.460861
3.03754
2.16248
0.760347
0.56713
-0.712672
0.262441
2.3006
0.164462
0.111096
-0.00257805
2.45337
0.698419
1.0689
2.15355
-0.45778
1.4577
-0.0933401
1.56621
0.0554936
1.45563
1.35975
1.87884
0.0291317
-1.2654
0.399541
-0.670484
0.57026
-0.539473
0.111548
1.7932
1.98403
0.0074561
0.00200902
-0.062635
1.74858
1.06156
1.16273
0.82397
0.0446595
-3.23115
-0.717374
1.40743
-1.39856
-0.069358
0.205352
0.818857
0.600855
-0.307309
2.46348
-1.10809
2.10161
-0.147512
2.27403
-0.165738
0.204775
0.0441902
0.0627882
1.06594
1.3452
0.236846
0.00203951
0.1458
-0.172925
1.97276
-0.275685
0.18369
-1.23262
0.0757228
-0.155088
1.61429
0.366634
0.0880416
0.0300031
1.36074
2.61678
-0.653844
0.0997052
1.23323
-1.25686
0.730826
0.052874
0.712483
0.0466669
-2.04675
-0.310485
-0.0701138
-0.00336871
0.15378
-0.717656
-0.243414
0.0710353
1.02352
1.42127
1.17161
2.52668
-0.722731
2.40981
-4.01111
2.21245
-0.519909
-0.480087
2.42982
0.59891
-0.137024
1.2529
0.0263721
1.39968
-2.17221
-1.13506
0.282182
-0.277862
-0.282618
-0.021143
-0.00342012
0.627684
1.64664
-0.460215
0.675573
-1.23628
0.331013
-0.986857
0.0400009
0.14081
-1.26501
-1.03878
1.90038
0.0245023
2.06211
0.475104
-0.817277
0.508926
-0.956844
0.0350856
1.16778
1.68611
2.58255
1.05727
1.17944
0.380435
-10.6899
2.48332
2.63239
1.49759
-0.469072
-0.499805
-0.990479
1.1826
0.70068
0.407027
1.1711
-0.301918
0.0444532
-0.847188
2.14953
0.209388
0.322851
-0.566619
1.19669
0.462674
2.88803
2.67793
1.18035
0.125189
0.130814
-2.91519
0.562985
2.75353
-3.96513
0.0253755
0.827651
-0.0307198
0.334588
0.0818443
-0.070555
0.285926
0.306952
0.550728
0.037305
0.541981
1.89118
-0.228357
1.42695
-0.503986
-0.117774
2.33965
-0.574738
0.157167
-0.186861
0.651413
0.234957
-0.697378
-0.393132
0.0983032
0.302742
2.94028
-2.91562
-0.899804
-0.307373
-0.897776
-2.57201
-0.215169
-0.743446
-0.742061
0.0258637
-1.17626
-0.861815
-0.318544
0.226491
0.136832
0.301823
2.84415
0.234358
0.363212
0.00375574
0.412942
-7.30297
-0.131546
1.89971
1.34566
0.362509
0.0919353
1.29943
1.44214
-1.98265
-0.594615
0.0815103
1.89154
-0.267699
1.26003
0.199731
2.10287
0.252025
-0.453721
0.201343
1.46455
-0.198552
1.22806
-0.463027
2.6901
-0.725279
-0.0352293
-0.822582
0.644614
-0.645717
-0.474925
-0.679544
0.237641
0.112399
-0.444729
-1.36162
-0.0151138
0.29172
-0.230927
-0.83644
1.09373
-1.03564
1.08986
-0.631392
1.52143
2.45314
1.158
-7.7884
1.27444
0.186641
0.184918
0.00549508
-0.169017
-1.04683
0.129274
-0.120669
0.0990909
0.158284
-1.06913
-0.577445
-0.707139
0.633074
1.36067
-1.65154
-0.663584
-0.248713
0.0228814
0.0776628
0.690479
-3.65838
-0.640094
1.39403
-1.26022
0.402865
-0.438964
-0.741155
-0.728855
-0.711444
2.95371
0.365465
-0.32763
0.416441
2.32195
2.34615
-0.404593
-0.110542
1.34832
0.0447796
0.130548
2.37921
0.695446
1.02765
2.96855
-0.28788
-0.125205
0.364128
2.06465
1.45253
1.31124
1.74519
1.00481
0.0341464
0.116683
0.715189
0.351375
-1.35479
2.40429
-0.674046
-0.696314
0.035598
-0.219443
0.567261
-0.528551
-0.114826
0.351053
1.34292
1.48408
1.48841
-0.933794
2.0453
2.32958
-0.846866
0.763339
0.049604
0.0739825
0.136737
0.838552
-0.257805
-0.281876
-0.613579
2.62385
-0.855412
1.52124
1.37163
1.77946
0.845655
1.0165
0.0599457
0.0336765
0.434897
0.00797873
-0.963082
-1.06041
0.149271
-0.773401
1.6501
-0.428573
0.0488602
0.361605
-7.05351
-0.546631
-1.18424
1.22809
-0.116488
0.0913654
0.716737
-0.365394
0.445393
-0.956239
0.0328478
1.45708
-0.791201
2.42633
0.0343807
2.64098
0.00486064
0.0950662
0.203699
1.21085
1.06344
-1.5272
-0.0116495
-0.168646
0.230433
0.83307
3.00709
1.78847
0.263624
-0.310432
0.563412
0.13478
1.4898
0.0735705
0.839893
-0.631093
-0.633579
-6.23282
-0.0622918
0.0423795
-6.90662
0.955143
0.788687
2.29342
2.5268
-1.1864
-1.03295
0.230641
-0.853942
2.40392
-1.15301
-0.523994
0.687362
1.03919
-0.249331
-4.7217
0.257968
0.0357276
1.10088
-0.221752
-0.0700396
0.153546
-0.550692
-1.34986
-0.19226
-1.50473
-1.20406
1.43416
-0.365148
-0.470209
-0.0935944
0.0906885
2.6737
0.761295
1.29588
-0.0786675
0.619318
0.139569
0.406999
0.532159
-0.73045
-2.61963
2.39824
1.44607
0.142621
-3.4647
2.80017
-0.581397
-3.44725
-0.677436
0.45876
-0.626977
-0.330589
2.05135
0.0646759
1.16213
0.629317
-0.830543
-0.420317
0.133198
0.585907
-1.62814
0.166666
0.486701
1.28645
-0.648541
-3.75273
-0.625694
-0.155224
-1.04288
-0.835196
2.61977
0.955841
-0.56758
0.399127
0.476128
2.22984
0.620842
-2.68857
0.597211
1.724
1.39618
-0.265653
1.24284
0.0253275
2.37577
0.0387592
1.42201
-0.731086
-0.250876
0.0281791
-0.595173
0.512985
0.523918
-2.65578
-0.612343
1.56687
-0.253129
0.0839578
1.90909
1.08962
1.85353
1.27327
-0.397862
-0.0060262
0.21392
1.26784
0.00526086
1.64883
0.849924
2.35201
-0.757461
1.79466
0.256475
2.41433
-0.87158
-0.475162
2.44984
-0.706803
0.800588
-0.865568
2.06489
2.35995
1.46092
-2.07207
1.37052
1.73735
-0.205183
0.639789
-0.35957
1.87106
-0.657944
-1.08888
-1.06081
-1.0861
1.7056
0.307529
-1.08038
0.61689
2.35253
-0.658677
-0.106037
-1.11708
-0.499925
0.947869
-0.0143097
1.32511
1.20645
-1.10517
2.70152
0.0207659
1.98036
1.93036
0.12289
0.000330047
1.09933
-0.981419
-0.0398452
1.0567
0.893028
-0.281781
1.2181
-0.826595
2.21996
1.48452
0.464488
-0.916071
1.43534
-0.198457
0.86333
1.77961
0.276311
0.0231357
1.72052
1.3989
-0.286165
-10.1464
0.829609
1.4663
2.36975
-5.94526
2.52091
2.62151
2.57249
0.0566036
1.67191
-0.704141
1.3731
1.81765
1.78123
1.45352
2.00465
2.87682
1.21753
-4.39841
-0.632622
-2.47429
2.84895
0.660892
-0.0267231
-0.676913
1.30313
2.06434
1.31716
0.39433
-0.00705693
2.02573
-0.879384
1.37384
-0.655352
0.68865
0.0285724
-0.179317
0.818108
-0.666401
-0.644425
-0.408101
-0.158314
0.0910087
1.63442
-0.15799
0.228894
1.21187
-0.716064
0.521101
0.0307062
-0.695196
-0.747924
-3.35571
1.9064
2.08749
-0.604889
0.713993
1.74733
1.67444
0.0233867
-0.361779
1.42801
-1.56707
1.88494
-0.680842
1.83619
0.890774
0.32301
1.71398
0.802815
1.76539
0.427199
0.723636
-0.219675
-8.33069
-0.807955
0.0587304
1.73131
-0.424433
-0.269045
-0.416328
2.04548
1.74227
0.528844
0.881335
1.98803
-1.11266
1.24268
0.110674
-0.267974
1.22133
-0.419241
-0.884473
-0.769897
-1.25231
-0.115844
-0.55999
0.103758
-0.983163
-9.31879
1.02845
2.4095
2.66547
2.26637
-0.426634
1.39236
-0.73361
1.21221
2.00163
0.290932
1.70175
-0.399807
0.446328
-0.252341
0.112918
1.86144
-0.924806
1.48708
-0.9582
-0.138773
-1.2586
1.57693
1.47264
1.36549
-0.832437
1.22912
-1.4865
-1.12216
-1.15623
0.398152
2.41278
-1.40972
-0.0883207
-0.626445
1.31872
1.32431
0.0224862
0.93917
-0.878233
2.01714
1.90724
-0.275477
-0.0815138
1.95112
-0.34864
-0.687075
0.14028
1.77076
2.01515
-0.711711
0.736096
-0.0955944
2.36434
-1.02192
-0.221607
0.0621749
2.19121
0.202764
-0.212837
-0.108429
1.84559
1.08897
1.83348
0.0898638
-1.24957
1.45095
2.80437
-7.99865
1.06581
0.138111
-1.12777
0.146346
0.45423
-0.666182
0.69364
-0.916515
0.930228
-0.237371
-0.286476
1.65856
2.03518
1.2219
-0.927396
-0.220595
1.51296
-0.900006
0.221235
-0.312032
0.590394
-0.922521
1.48795
1.51747
0.124066
1.39957
2.31961
-0.0216799
0.924125
1.54608
-1.17764
0.877858
-0.227187
0.575724
0.0933194
1.10117
0.0117291
0.426288
-0.0508859
-3.73639
1.89969
0.169847
0.169442
-0.314265
-0.0476179
1.42181
-0.903015
2.55851
-0.831684
-1.46418
-0.890604
1.73542
1.47377
1.8032
-2.08335
2.22177
-0.522332
0.859911
0.220053
-0.796037
1.275
0.551101
-0.105059
0.804532
-2.77944
1.18417
-1.14332
-0.372072
0.0177926
-0.648813
-0.71615
1.08389
2.28659
0.141142
-0.710789
1.72027
-0.834491
2.05284
0.156979
0.224233
0.810743
1.37851
0.637522
-0.178397
-0.967085
0.173784
0.418447
0.549262
-0.779514
-0.593175
0.0727279
0.455133
-0.171537
2.88856
1.38916
1.34271
2.07859
0.325705
1.51739
-0.39478
-1.66636
-0.378646
1.36928
2.79134
1.20237
-0.5641
1.89585
1.14103
1.17394
0.107676
0.127308
0.656776
2.57141
-1.49657
-0.278755
2.05521
1.94691
1.33909
1.3147
1.62945
0.942333
-1.41189
-0.45463
1.43504
-9.77577
-7.44982
1.34406
-0.401085
-1.01064
-0.0156514
1.39142
1.45784
1.49043
-0.0387777
1.79358
1.84979
0.188508
1.57909
1.3532
1.29809
1.06332
0.639124
0.612753
0.0325487
1.72402
1.5647
0.162114
1.10833
-0.0385164
0.0615552
2.26519
1.64094
-0.0122506
-0.649981
0.228464
1.70003
0.782178
0.325577
0.0286835
0.230876
-0.11223
0.299612
-0.63853
0.00505464
0.750446
0.00206571
-0.554128
-0.844462
2.12468
-0.669356
-3.08997
-0.597248
2.30082
-0.0305474
0.342433
0.362778
-1.06704
1.10606
1.2951
0.642842
1.99156
1.05646
0.181899
-2.51293
-0.638093
-0.0201728
1.60162
0.16755
-0.72412
-1.04742
-0.0939129
-2.9967
-0.597423
-0.98018
-0.049071
0.612472
1.3386
1.74385
-0.0472092
0.0822173
1.99652
1.48274
-0.706271
-0.163869
-2.4157
0.698692
0.218417
0.690098
1.13261
-0.188928
-0.043081
-0.0729183
0.426495
-0.47678
-2.51461
0.188422
-0.35275
-1.35882
-1.06
-0.609209
0.17021
-2.08772
0.62085
-0.74154
1.35013
1.23646
0.201664
1.76105
-0.554074
2.30053
-0.254377
0.219633
-0.783058
1.31507
0.702181
-8.47658
-1.87023
1.38459
1.64937
2.39607
-0.669557
-1.53685
-0.499371
-0.0217414
-0.0161665
-0.853282
0.106057
-1.00799
0.692537
-0.725165
0.808852
-0.372058
-0.0154871
2.06793
1.12397
-1.07528
0.0451231
-0.865649
-3.87641
1.80587
2.66458
-5.37368
1.61844
1.26825
-0.0195859
-1.95431
1.71537
1.64386
-0.996371
0.00132131
-0.403086
-0.523199
-0.765293
-0.936066
-0.798823
0.929727
0.116832
1.51024
-0.786973
-1.04997
1.27971
-0.747491
-1.06335
0.193617
1.07513
-1.08873
-0.322135
-1.07285
-0.822495
-1.0462
2.43887
-1.8156
-0.0281206
-0.710954
1.46514
-1.25472
0.0657186
-0.840369
-0.724464
-0.254026
1.49532
0.0206769
-0.868066
1.17065
0.0529676
-0.187742
-0.758807
-0.853679
0.783255
1.00356
1.37701
-1.48803
2.04764
-0.118579
-0.00209791
0.101297
-1.86291
-0.475301
-0.862985
-0.423233
0.332744
0.730403
0.0942596
-0.148015
-0.454111
1.18421
-0.647032
1.44329
-0.671024
0.917963
-0.105374
-0.821817
0.146235
2.96038
-1.79529
-1.1215
-1.39623
-0.380177
1.37135
0.0908776
0.152998
0.0532489
-1.05542
-0.662983
-10.641
-0.943954
1.40319
-0.907644
0.360416
-1.0955
0.131904
1.17053
0.108673
0.335469
-0.185191
1.75853
-1.19643
-0.283991
1.91168
0.467225
-1.2043
-0.138119
-0.689977
-0.424684
-0.132722
1.71957
-0.423952
0.63669
-1.40173
-0.670591
-0.807686
-0.865627
-3.07794
0.492387
-0.00831542
1.37869
0.560751
-0.587062
0.315961
-0.498583
1.69254
2.02997
-1.09356
0.129698
1.43708
1.34936
0.867661
-0.346039
-0.556875
-0.575747
1.39639
0.479473
-0.401228
-0.767736
0.569894
1.62768
-0.0840207
0.0630663
0.196079
1.87685
-0.945252
-1.06021
0.0536098
1.18352
0.127454
0.128396
2.06047
1.69526
0.0854198
-0.410143
1.69114
0.741984
0.0431671
1.1058
-0.139856
-0.458395
-0.644174
-0.40636
1.66772
1.35984
-0.00865731
-0.276634
0.137441
-1.70303
1.41542
-0.416065
0.783142
1.77301
1.92597
-0.0978766
1.33106
1.06972
1.43042
1.53942
-0.0365388
1.55078
0.0100709
1.37395
0.782103
1.47289
-0.658284
1.69736
1.6045
1.19499
0.931638
-0.252952
0.815601
0.100267
-0.333321
1.82914
1.90555
-0.356073
1.85701
-0.382775
-9.12759
1.41637
1.45789
-0.725659
0.0984046
-1.40087
-0.388196
-1.26399
-0.51598
-0.722686
-0.207863
1.16329
2.60204
1.6769
-0.0754666
-0.635436
1.36782
0.766216
-1.02719
-0.44815
-0.210521
-1.15266
-10.8751
-7.67295
1.32326
0.156491
0.772202
0.0321728
0.0302099
0.112059
-0.0126998
0.339247
0.482392
0.983136
-0.242759
0.181666
-1.12506
-0.616312
0.860276
0.832493
0.0133525
-3.09201
0.943288
0.0118564
0.597077
-0.274647
1.37818
1.09468
2.19017
1.37615
-0.346124
-0.178757
-0.29011
-0.182293
0.0354983
0.0531665
-0.00594942
-0.346859
2.66636
0.149973
-0.444878
2.01801
-0.638661
-0.726147
-0.805615
-0.652543
-1.88716
-0.0414532
-0.74184
1.21237
-0.0319204
-0.318864
0.174742
-0.147697
-0.432321
-0.545153
0.136856
1.1038
-0.716318
-0.554248
-0.810392
0.488027
-0.43461
1.46745
2.08081
-0.174223
1.49021
0.639966
0.999194
2.32607
-0.642158
0.865155
0.647801
0.659168
1.95478
-0.350306
-0.00718547
-0.225233
1.41341
2.07652
-0.338428
0.0922008
-0.39094
-0.364638
0.76215
-0.274576
-0.855256
-0.209557
0.600558
-1.71111
0.302991
0.383238
1.21257
0.309437
-5.35502
0.125707
0.0440638
0.0276672
2.23611
2.54469
1.81058
2.7679
1.23794
1.33366
1.46304
1.20495
1.29517